/*--------------------------------*- C++ -*----------------------------------*\
| =========                 |                                                 |
| \\      /  F ield         | OpenFOAM: The Open Source CFD Toolbox           |
|  \\    /   O peration     | Version:  5.0                                   |
|   \\  /    A nd           | Web:      www.OpenFOAM.org                      |
|    \\/     M anipulation  |                                                 |
\*---------------------------------------------------------------------------*/
FoamFile
{
    version     2.0;
    format      ascii;
    class       volScalarField;
    location    "2.9";
    object      alpha.water;
}
// * * * * * * * * * * * * * * * * * * * * * * * * * * * * * * * * * * * * * //

dimensions      [0 0 0 0 0 0 0];

internalField   nonuniform List<scalar> 
8563
(
1.0526
1.05542
1.01044
1.21267
1.06076
0.968046
-4.30947e-15
-3.23439e-20
-3.11531e-23
9.12003e-18
1.04952e-18
8.48818e-21
2.71736e-24
1.46678e-28
4.19413e-32
1.76262e-35
7.21358e-39
3.10376e-42
1.30656e-45
5.26793e-49
2.48186e-52
1.08747e-55
4.65259e-59
1.62437e-62
9.60487e-66
8.82852e-69
3.17179e-72
6.02485e-76
1.10462e-78
3.73036e-82
6.07895e-85
4.69135e-89
1.40347e-91
5.81964e-94
1.77849e-97
1.43415e-100
1.03941e-103
2.14941e-106
2.0901e-110
2.02785e-114
1.01407e-117
9.45274e-120
5.76033e-123
3.9317e-125
6.77766e-129
6.90119e-132
1.28893e-135
1.30801e-139
2.82705e-141
1.20401e-144
1.04212
1.01333
1.01183
1.0047
1.09832
1.00522
0.0226855
-1.29024e-18
-1.48841e-19
3.92614e-23
8.69849e-20
1.40147e-21
3.48373e-25
1.88463e-29
5.42756e-33
2.2092e-36
9.30749e-40
3.97424e-43
1.73114e-46
6.95262e-50
2.95226e-53
1.266e-56
6.89053e-60
3.40187e-63
1.19167e-66
7.07022e-70
2.94704e-73
1.19271e-76
5.50939e-80
4.62139e-83
3.13248e-86
8.75358e-89
1.01449e-92
2.24308e-95
5.16819e-99
8.1067e-102
2.91136e-105
1.95018e-109
7.44556e-111
6.27612e-114
7.54483e-118
7.8757e-121
1.2116e-124
1.83766e-128
3.10089e-131
2.3988e-134
3.74435e-137
6.00202e-141
1.47792e-144
2.76397e-145
1.09881
0.849079
1.07651
1.04782
1.01246
0.993532
0.80653
-9.75864e-18
-1.38401e-20
1.64797e-16
9.83032e-18
2.47003e-20
1.07178e-23
5.20008e-27
8.5699e-31
2.4375e-34
9.97529e-38
4.26268e-41
1.82378e-44
7.6823e-48
3.27628e-51
1.38908e-54
6.0328e-58
2.44106e-61
1.08023e-64
4.81151e-68
2.05743e-71
7.54645e-75
3.51506e-78
4.22548e-81
6.05497e-85
2.31045e-88
5.45232e-90
2.72087e-93
2.55802e-97
1.33718e-100
8.24196e-104
7.19049e-108
1.30567e-109
1.33221e-112
1.74901e-116
1.21807e-119
3.96335e-122
4.90444e-126
6.78643e-130
2.56019e-133
2.66946e-135
2.107e-138
1.26407e-142
2.86854e-145
1.0214
0.981279
0.988231
1.04093
1.00583
0.991682
1
-1.47385e-19
-5.29388e-19
-6.93777e-24
4.32738e-18
2.17807e-19
3.5862e-22
2.16698e-26
3.0763e-30
1.13703e-33
4.70993e-37
2.09596e-40
8.3895e-44
3.51092e-47
1.53812e-50
6.19003e-54
4.21166e-57
1.85889e-60
7.01468e-64
3.30863e-67
8.9918e-71
3.91897e-73
6.07131e-77
1.16512e-80
6.48299e-83
1.04047e-85
7.175e-90
2.39843e-93
1.20356e-95
2.04629e-99
7.96602e-103
8.32822e-106
6.46814e-108
1.78341e-111
3.00922e-115
1.29432e-117
2.46987e-121
1.00522e-124
4.69905e-127
1.84941e-130
2.06993e-134
5.86661e-138
7.6704e-141
2.20155e-143
1.03319
1.02871
0.97822
1.00449
0.994826
0.999505
1.00153
-4.61526e-15
-1.70253e-18
-1.27619e-23
2.2019e-17
1.77972e-18
6.74392e-21
7.97558e-25
5.77222e-29
2.05912e-32
8.23305e-36
3.44197e-39
1.42117e-42
7.14949e-46
2.44488e-49
1.39526e-52
4.2315e-56
2.05297e-59
8.94819e-63
8.14783e-66
3.90244e-69
1.42738e-72
4.7572e-75
1.22875e-78
1.7191e-81
1.53182e-85
6.762e-88
7.94202e-92
1.10868e-95
1.13206e-98
9.74793e-101
4.68093e-104
1.55643e-108
1.79001e-110
2.35645e-114
5.13359e-118
4.32812e-120
1.03595e-122
2.19427e-126
4.69739e-130
4.8866e-132
2.04524e-135
1.89081e-138
3.61238e-142
1.043
1.02282
1.00542
1.01058
1.00001
0.999548
1.00183
-8.92207e-16
-2.00429e-18
-1.17619e-23
1.71866e-17
1.41809e-18
5.70334e-21
7.26955e-25
5.00463e-29
1.72611e-32
7.14022e-36
3.50819e-39
1.29469e-42
6.62525e-46
2.50291e-49
9.44e-53
3.835e-56
3.37931e-59
7.43576e-63
7.23789e-65
1.87878e-68
1.57048e-72
5.35042e-75
2.28551e-77
1.45883e-80
6.76067e-84
4.86106e-88
2.43853e-91
3.57265e-94
8.88785e-98
6.45404e-101
8.00874e-104
4.37415e-108
3.10803e-110
5.04558e-113
1.37623e-115
3.84283e-119
7.73782e-123
1.10909e-126
2.54984e-129
1.6671e-133
5.27041e-137
3.20529e-140
4.87231e-144
1.03964
1.00315
0.993787
1.01132
1.01618
1.01978
1.00296
-4.08938e-17
-1.154e-18
-1.84962e-22
4.1099e-18
2.00753e-19
3.14942e-22
1.95641e-26
2.98271e-30
1.08244e-33
4.4756e-37
1.90359e-40
8.49171e-44
3.4351e-47
2.1176e-50
6.30135e-54
3.14274e-57
1.17939e-60
1.05042e-63
2.1178e-67
8.04821e-71
7.32631e-74
3.14368e-76
3.69462e-80
5.04611e-84
2.00261e-87
7.50347e-91
2.03198e-93
2.10777e-96
2.05845e-99
3.87794e-103
2.25929e-105
1.29844e-108
6.53008e-112
5.9889e-116
2.8287e-118
5.78689e-122
5.53996e-126
5.2923e-128
8.13566e-132
1.09084e-133
2.58399e-137
1.26311e-141
4.35477e-143
1.03894
0.997468
1.01163
0.989963
1.00349
1
1
-2.92281e-17
-1.95471e-19
1.66518e-16
9.89101e-18
2.54473e-20
1.12243e-23
5.05851e-27
8.4957e-31
2.49121e-34
1.02288e-37
4.35611e-41
1.8716e-44
8.14102e-48
3.37348e-51
1.513e-54
6.66387e-58
2.52573e-61
1.05314e-64
5.77508e-68
4.57404e-71
1.53922e-74
3.37064e-78
2.4865e-81
6.01411e-85
1.3907e-87
1.78258e-90
3.00465e-94
9.60354e-98
4.92556e-100
4.90729e-104
8.64763e-107
7.72442e-110
7.85896e-113
5.11611e-117
8.01055e-120
1.73784e-122
8.66247e-126
6.76042e-130
1.09526e-133
3.43927e-137
1.33033e-140
5.2544e-144
2.74952e-145
1.02399
1.01431
0.961952
0.937441
1.00709
0.996869
0.730572
-2.5721e-17
-1.74562e-18
5.28066e-37
8.40629e-20
3.05877e-21
2.29571e-24
7.53416e-29
1.54477e-32
6.23389e-36
2.58906e-39
1.07289e-42
4.45571e-46
1.83725e-49
7.52429e-53
3.10935e-56
1.27289e-59
5.27322e-63
3.65345e-66
9.66193e-70
3.6848e-73
1.61092e-76
6.19952e-80
3.23005e-83
2.10254e-85
5.68012e-89
6.21237e-93
1.75314e-96
1.37648e-98
3.15395e-102
3.38059e-105
2.63009e-109
5.90157e-113
5.31399e-115
7.61007e-118
1.37936e-120
3.25492e-124
2.51168e-128
1.5395e-131
6.16927e-135
5.72099e-137
1.01292e-139
1.4268e-142
2.78888e-145
1.06207
1.02626
1.03333
1.02467
0.999887
0.98968
0.0321959
-7.23202e-18
-1.4521e-21
7.85523e-18
1.08089e-18
1.29853e-20
7.36368e-24
4.04206e-28
9.69438e-32
3.95732e-35
1.64245e-38
6.87193e-42
2.87302e-45
1.27235e-48
5.03138e-52
2.0719e-55
8.53064e-59
3.49691e-62
1.64168e-65
6.7836e-69
2.87946e-72
1.27342e-75
5.79252e-78
1.50737e-81
1.46646e-85
8.35276e-88
7.28127e-91
3.57973e-94
4.1121e-98
3.3845e-101
9.81396e-104
1.49423e-107
9.35013e-110
1.72253e-113
1.47284e-117
7.00514e-121
1.19683e-122
3.3821e-126
1.16194e-129
2.25417e-132
1.04144e-135
6.23072e-139
1.13766e-142
3.24801e-145
1.02608
1.06044
1.01121
0.912929
1.1176
0.997094
1.13758e-06
1.22016e-15
1.95488e-17
1.7858e-17
3.01218e-18
8.72472e-20
2.73843e-22
7.8662e-26
1.40153e-29
8.74966e-33
6.48839e-36
4.62462e-39
3.25455e-42
2.2865e-45
1.60486e-48
1.12382e-51
7.848e-55
5.47101e-58
3.80495e-61
2.63956e-64
1.82837e-67
1.26353e-70
8.7077e-74
5.98873e-77
4.10775e-80
2.81053e-83
1.92044e-86
1.3094e-89
8.91354e-93
6.05548e-96
4.10156e-99
2.77014e-102
1.86817e-105
1.25823e-108
8.45575e-112
5.67157e-115
3.79535e-118
2.53396e-121
1.6888e-124
1.12248e-127
7.44578e-131
4.93329e-134
3.26071e-137
1.27643e-140
1.05125
0.945057
1.00038
1.00097
1.1447
1.02048
0.0299959
1.0821e-12
1.1755e-15
1.56377e-18
7.46388e-19
1.7269e-20
1.50101e-23
1.59026e-27
6.2373e-31
4.60029e-34
3.36563e-37
2.394e-40
1.69655e-43
1.19899e-46
8.46999e-50
5.96576e-53
4.19476e-56
2.94556e-59
2.06297e-62
1.44124e-65
1.00556e-68
6.99489e-72
4.85368e-75
3.36205e-78
2.33815e-81
1.61227e-84
1.1059e-87
7.59935e-91
5.21621e-94
3.57029e-97
2.4408e-100
1.66073e-103
1.12973e-106
7.66222e-110
5.18927e-113
3.50313e-116
2.36325e-119
1.5961e-122
1.06872e-125
7.16205e-129
4.79067e-132
3.19837e-135
2.13057e-138
8.42442e-142
1.0754
1
1.06484
1
0.857998
0.999692
0.808134
1.67537e-12
1.41028e-15
1.48882e-15
1.76646e-16
1.63095e-18
6.57757e-22
5.3632e-26
2.8406e-29
2.09736e-32
1.47041e-35
1.01959e-38
7.05899e-42
4.87805e-45
3.36672e-48
2.32021e-51
1.59578e-54
1.09585e-57
7.50633e-61
5.13234e-64
3.50563e-67
2.38872e-70
1.62467e-73
1.10487e-76
7.49883e-80
5.08109e-83
3.43951e-86
2.32255e-89
1.56313e-92
1.05158e-95
7.06384e-99
4.73502e-102
3.16972e-105
2.11712e-108
1.41094e-111
9.39038e-115
6.24206e-118
4.14289e-121
2.74643e-124
1.8176e-127
1.2002e-130
7.91063e-134
5.20335e-137
2.03014e-140
1.01057
1.07312
0.99046
0.989075
1.03428
1.00095
1.00035
5.29904e-09
3.13841e-14
5.21651e-17
2.85483e-17
2.47252e-18
1.74795e-20
6.27762e-24
6.24047e-28
3.52001e-31
2.59421e-34
1.82126e-37
1.26578e-40
8.7918e-44
6.0985e-47
4.22102e-50
2.91435e-53
2.01274e-56
1.38396e-59
9.50407e-63
6.51975e-66
4.46689e-69
3.05914e-72
2.08322e-75
1.41817e-78
9.64062e-82
6.53616e-85
4.4258e-88
2.99369e-91
2.01978e-94
1.36081e-97
9.1507e-101
6.13859e-104
4.1116e-107
2.74871e-110
1.84187e-113
1.22685e-116
8.1604e-120
5.40718e-123
3.58359e-126
2.37028e-129
1.56561e-132
1.03191e-135
4.0333e-139
1.09649
0.993899
0.974481
0.992228
0.972519
1.00306
1.00196
7.21995e-07
1.72056e-15
1.64244e-16
2.66586e-16
3.65831e-17
4.47601e-19
2.93543e-22
2.57002e-26
1.10341e-29
8.21592e-33
5.81049e-36
4.03033e-39
2.7914e-42
1.93196e-45
1.33462e-48
9.19553e-52
6.32816e-55
4.34487e-58
2.97627e-61
2.03641e-64
1.39047e-67
9.46985e-71
6.43838e-74
4.36924e-77
2.95825e-80
2.00036e-83
1.34911e-86
9.08052e-90
6.1044e-93
4.09447e-96
2.7397e-99
1.83036e-102
1.22112e-105
8.13112e-109
5.407e-112
3.587e-115
2.37388e-118
1.56868e-121
1.03472e-124
6.81033e-128
4.47611e-131
2.93594e-134
1.14172e-137
1.0177
0.992918
0.997199
1.01458
0.989024
1.00198
1.00248
8.84869e-07
1.42863e-15
1.62284e-16
4.84703e-16
7.16542e-17
8.98766e-19
5.90499e-22
5.04591e-26
2.14992e-29
1.60188e-32
1.13244e-35
7.85336e-39
5.43638e-42
3.75846e-45
2.5944e-48
1.78693e-51
1.22854e-54
8.42749e-58
5.76747e-61
3.94464e-64
2.69215e-67
1.833e-70
1.24597e-73
8.44486e-77
5.70992e-80
3.85905e-83
2.6029e-86
1.75091e-89
1.17614e-92
7.8839e-96
5.27405e-99
3.52368e-102
2.34945e-105
1.56348e-108
1.03883e-111
6.88623e-115
4.55305e-118
3.00602e-121
1.98063e-124
1.30214e-127
8.5541e-131
5.6118e-134
2.18318e-137
1.0676
1.20598
0.990493
1.04298
1.01665
1.0131
1.00425
6.51669e-08
3.30839e-14
4.30528e-17
1.94758e-17
1.65357e-18
1.20203e-20
4.66051e-24
4.67863e-28
2.57419e-31
1.88363e-34
1.31886e-37
9.1447e-41
6.34198e-44
4.40772e-47
3.05335e-50
2.09941e-53
1.45054e-56
1.00638e-59
6.83877e-63
4.68429e-66
3.20817e-69
2.1928e-72
1.50126e-75
1.01782e-78
6.91744e-82
4.69808e-85
3.18253e-88
2.16635e-91
1.45389e-94
9.79097e-98
6.60249e-101
4.44186e-104
2.96433e-107
1.98309e-110
1.32545e-113
8.83498e-117
5.88385e-120
3.90309e-123
2.5871e-126
1.7258e-129
1.13248e-132
7.47709e-136
3.07369e-139
1.0373
1.0031
1.00365
0.980289
1.00688
0.978084
1.00001
2.89263e-10
1.54647e-15
1.75835e-15
2.28227e-16
2.49896e-18
1.25764e-21
9.87734e-26
4.80461e-29
3.56616e-32
2.50476e-35
1.73548e-38
1.20069e-41
8.29422e-45
5.72205e-48
3.9395e-51
2.70641e-54
1.85664e-57
1.27133e-60
8.68568e-64
5.92375e-67
4.03168e-70
2.73829e-73
1.8581e-76
1.25969e-79
8.52164e-83
5.75426e-86
3.87587e-89
2.60526e-92
1.74956e-95
1.17253e-98
7.842e-102
5.2397e-105
3.49288e-108
2.32329e-111
1.54315e-114
1.0232e-117
6.77093e-121
4.47471e-124
2.95145e-127
1.94133e-130
1.27562e-133
8.37583e-137
3.26243e-140
1.03765
1.06581
0.900029
0.975079
0.988257
0.994893
0.729338
3.22991e-12
8.73692e-15
6.84922e-18
5.25624e-19
7.22729e-21
5.84396e-24
7.32598e-28
3.18827e-31
2.37613e-34
1.72092e-37
1.21726e-40
8.59092e-44
6.05832e-47
4.26759e-50
3.0009e-53
2.10696e-56
1.47633e-59
1.03587e-62
7.22331e-66
5.03067e-69
3.50244e-72
2.43372e-75
1.68718e-78
1.16984e-81
8.0629e-85
5.56285e-88
3.82175e-91
2.62537e-94
1.79879e-97
1.23082e-100
8.40494e-104
5.7251e-107
3.89507e-110
2.64388e-113
1.79084e-116
1.21101e-119
8.1697e-123
5.50459e-126
3.70376e-129
2.48238e-132
1.6639e-135
1.11428e-138
4.40603e-142
1.07458
1.03616
1.05022
1.07089
1
0.994997
0.0386144
1.50532e-14
2.17586e-17
1.26112e-17
1.76006e-18
4.25185e-20
1.14586e-22
3.09718e-26
6.23633e-30
3.99906e-33
2.9729e-36
2.12771e-39
1.50402e-42
1.06116e-45
7.4762e-49
5.25363e-52
3.68225e-55
2.57675e-58
1.79863e-61
1.25226e-64
8.70198e-68
6.03444e-71
4.17518e-74
2.88252e-77
1.98505e-80
1.36328e-83
9.33961e-87
6.38738e-90
4.3583e-93
2.96949e-96
2.01813e-99
1.36795e-102
9.25257e-106
6.24897e-109
4.21103e-112
2.83213e-115
1.90062e-118
1.27229e-121
8.50056e-125
5.66656e-128
3.76949e-131
2.50495e-134
1.65986e-137
6.51082e-141
1.02465
1.03713
1.00896
1.03801
0.833656
1.03326
8.78437e-07
-3.9378e-20
-3.34125e-23
4.23527e-18
5.25037e-19
5.04476e-21
2.0907e-24
1.14413e-28
3.06224e-32
1.31632e-35
5.21629e-39
2.2259e-42
9.55219e-46
6.04818e-49
2.12619e-52
8.61162e-56
3.79891e-59
1.24258e-62
1.06696e-65
1.03881e-68
2.4395e-72
8.79386e-76
2.5101e-78
4.06626e-82
5.95902e-86
2.02409e-89
9.23443e-92
3.67449e-94
1.62848e-97
7.18465e-101
9.62777e-104
5.18505e-107
2.7258e-111
6.86323e-113
3.22332e-116
1.65105e-120
3.76865e-123
4.82982e-127
1.27362e-129
6.28276e-132
1.56157e-135
8.65839e-139
9.25466e-142
1.99506e-144
1.03914
0.998201
0.94292
0.949108
1.19581
1.00605
0.0297893
-1.24764e-18
-1.44319e-19
3.30894e-26
1.03146e-19
1.66693e-21
4.31631e-25
2.32765e-29
6.63558e-33
2.69559e-36
1.13343e-39
4.86188e-43
2.0654e-46
8.41797e-50
3.74067e-53
1.55177e-56
7.40615e-60
3.16164e-63
1.4216e-66
5.73448e-70
2.99579e-73
1.23667e-76
4.28636e-79
8.59834e-83
1.37134e-85
1.45952e-88
1.18746e-91
1.86849e-95
1.34309e-98
1.13746e-101
1.9035e-105
3.22391e-109
2.15125e-110
2.6041e-113
2.30478e-117
5.07555e-121
1.81925e-124
2.39748e-126
7.38606e-130
7.27199e-134
1.08236e-136
9.9654e-141
7.16961e-144
2.72671e-145
1.057
1.01967
1.03832
1.05369
1.04582
1.02345
0.807999
6.11993e-13
-1.39138e-20
1.63536e-16
9.86102e-18
2.55172e-20
1.2598e-23
6.50509e-27
1.05732e-30
2.9265e-34
1.194e-37
5.1057e-41
2.18167e-44
9.18372e-48
3.94643e-51
1.64348e-54
7.4443e-58
3.14766e-61
1.35499e-64
5.32623e-68
2.48024e-71
9.05287e-75
3.74014e-78
4.46681e-81
7.84656e-85
2.79974e-88
1.18649e-91
5.22604e-94
1.48399e-97
1.78831e-100
7.2729e-104
2.2695e-107
1.91233e-110
6.27905e-113
4.74219e-116
3.08955e-120
2.07793e-123
6.08437e-126
2.35348e-129
5.30917e-133
3.11573e-135
1.783e-138
4.16008e-142
1.38208e-144
1.032
1.03516
1.01007
1.01478
1.0192
0.999766
1.00043
2.85928e-09
-5.62219e-19
-6.7651e-24
4.47767e-18
2.25008e-19
3.69555e-22
2.20482e-26
3.12183e-30
1.15577e-33
4.792e-37
2.03872e-40
8.53057e-44
3.62541e-47
1.5328e-50
6.22482e-54
2.91473e-57
1.92751e-60
5.53337e-64
2.8967e-67
8.44859e-71
6.69029e-73
3.74738e-76
2.10641e-80
5.71161e-83
2.97006e-86
2.12777e-90
1.23053e-93
3.82596e-96
9.60869e-100
9.32309e-103
1.03384e-105
7.09452e-110
1.08825e-111
5.12247e-115
7.4305e-118
6.86757e-121
2.94852e-124
3.73694e-127
1.66278e-130
8.42519e-134
3.74711e-138
9.25156e-142
6.12776e-145
1.12194
0.873446
0.997841
0.996445
0.997296
1.00562
1.00186
5.81938e-07
-1.99368e-18
-1.20591e-23
2.27244e-17
1.84163e-18
6.95603e-21
8.18572e-25
5.937e-29
2.06586e-32
8.44347e-36
3.50653e-39
1.55143e-42
6.109e-46
2.46368e-49
1.04789e-52
4.61105e-56
1.97937e-59
8.28508e-63
1.30194e-65
2.47297e-69
5.98191e-73
2.62246e-76
1.16469e-78
1.17838e-81
5.43814e-86
6.27006e-88
1.36887e-91
2.39432e-94
8.87755e-99
6.97757e-101
4.12037e-104
1.83361e-106
4.4564e-110
3.30152e-114
4.42349e-116
1.25908e-119
3.35836e-123
2.55049e-126
3.36126e-130
7.30287e-132
2.2551e-135
1.12207e-138
2.71594e-141
0.992036
0.999988
0.97668
1.01481
0.981386
0.998888
1.00179
6.97128e-07
-2.42508e-18
-3.45116e-23
1.76189e-17
1.45814e-18
5.83145e-21
7.39955e-25
5.11459e-29
1.76946e-32
7.3113e-36
3.07119e-39
1.27328e-42
1.24167e-45
2.57516e-49
1.7381e-52
5.93599e-56
1.86226e-59
7.5812e-63
2.74533e-66
2.50228e-69
5.04416e-73
1.88084e-76
1.02663e-77
9.62887e-81
4.2736e-84
4.14962e-88
4.85806e-91
3.92985e-95
9.24512e-98
8.37745e-101
8.6036e-104
4.2228e-108
6.4365e-110
2.84262e-113
2.04114e-117
3.07441e-119
1.64266e-122
3.18614e-126
1.94148e-130
9.9925e-133
3.36658e-135
6.81339e-139
2.66219e-143
1.0231
0.911565
1.00286
1.01624
0.958386
1.0141
1.00391
4.22829e-08
-1.43951e-18
-2.89808e-22
3.9867e-18
1.94938e-19
3.06245e-22
1.92163e-26
2.93433e-30
1.06381e-33
4.39854e-37
1.91864e-40
8.06309e-44
3.39759e-47
2.13984e-50
6.58154e-54
2.83337e-57
1.34904e-60
9.10884e-64
5.83693e-67
1.1702e-70
1.36439e-73
2.51601e-76
5.23833e-80
4.95141e-84
2.66965e-86
2.82796e-90
1.99171e-93
6.3584e-96
1.29723e-99
1.87149e-103
1.21812e-105
3.44203e-109
7.8961e-112
1.5026e-115
1.90374e-119
1.70441e-121
5.00685e-125
1.58896e-128
1.48161e-132
4.36679e-136
1.70081e-139
1.25774e-142
8.27304e-143
1.02249
1.01883
1.0096
0.999504
0.935863
1.02045
1.00006
1.45689e-10
-1.85659e-19
1.75664e-16
9.93705e-18
2.32212e-20
1.08008e-23
5.19095e-27
8.54221e-31
2.46559e-34
1.00971e-37
4.30338e-41
1.88024e-44
7.92979e-48
3.34494e-51
1.49099e-54
6.59562e-58
2.49466e-61
1.62675e-64
5.59843e-68
3.80585e-71
3.02075e-74
4.14202e-78
5.53525e-81
8.05203e-85
3.1883e-88
1.12362e-90
5.09634e-94
7.4585e-98
9.16303e-101
1.14426e-103
3.34152e-107
7.26081e-110
2.16817e-112
3.00057e-116
1.72647e-118
2.70287e-122
1.37308e-126
1.25806e-129
1.95061e-133
6.45036e-137
2.50695e-140
9.85225e-144
2.75883e-145
1.03065
1.03001
1.01348
0.741699
1.00998
1.00345
0.729716
-2.54233e-17
-1.75105e-18
-1.05613e-37
7.95779e-20
2.88346e-21
2.13666e-24
6.9963e-29
1.44347e-32
5.82614e-36
2.41958e-39
9.99772e-43
4.14476e-46
1.71639e-49
7.01648e-53
2.90981e-56
1.18972e-59
4.94367e-63
1.99983e-66
8.16957e-70
3.55228e-73
1.41755e-76
5.52803e-80
2.33626e-83
1.36814e-85
3.88043e-89
4.04157e-92
2.47175e-95
1.51639e-98
6.58721e-102
2.75941e-105
1.61922e-108
1.37432e-112
8.44263e-115
1.45676e-118
2.26193e-122
1.49353e-124
3.0429e-127
1.27383e-130
2.11608e-134
3.12357e-137
2.8543e-140
1.55641e-142
2.90914e-145
1.05509
1.01314
1.05758
1.04474
0.994544
1.00471
0.0376745
-8.50644e-18
-1.40034e-21
5.71883e-18
7.85647e-19
9.47089e-21
5.45066e-24
3.01632e-28
7.1938e-32
2.93214e-35
1.22055e-38
5.1623e-42
2.13769e-45
8.852e-49
3.74816e-52
1.56652e-55
6.36249e-59
2.66055e-62
1.20807e-65
6.02108e-69
3.37127e-72
9.04181e-76
6.8452e-79
5.35272e-82
7.61254e-86
1.01408e-87
3.2683e-91
2.82155e-95
1.25992e-98
7.20919e-101
6.18283e-104
7.43187e-108
9.52969e-110
2.82767e-113
1.03534e-116
2.89277e-119
1.66719e-122
1.31568e-126
2.10956e-129
2.38845e-132
1.50939e-135
9.39057e-139
1.72837e-142
2.8721e-145
0.307196
1.00419
0.435247
0.95947
0.318338
1.01433
0.435533
0.653197
1.0105
1
1.02205
0.652075
1.00788
1
1.00018
1.017
1.00022
0.997716
1.00001
1.01593
1.00055
0.999747
1.0012
1.00137
0.994434
0.999948
1.00039
1.00135
1.00263
1.00005
1.00283
1.00287
1.00248
1
1.00288
1.00279
1.00101
1.00494
1.00094
1.00312
0.997806
1.00523
1.00406
1.01325
1.00178
1.01254
1.00652
1.00865
1.00177
0.999812
1.01124
1.00015
0.999999
0.999538
1.00428
1.0005
1.00004
0.997679
0.792041
0.997231
1.00047
0.99922
0.795044
0.685902
0.996476
0.24086
0.999703
0.688065
0.999459
0.252431
0.315031
1.01798
0.435443
1.02922
0.314664
1.00683
0.435086
0.651628
1.0174
1
1.02876
0.651351
1.03847
1
1.00012
1.01527
1.00098
1.0159
1.00002
1.00458
1.00072
1.00007
1.00017
1.00184
1.00304
1.00004
0.986141
1.00117
1.00324
0.99981
1.00352
1.00469
1.0026
0.99999
1.00227
1.00328
1.0048
1.00551
1
1.00232
0.998708
1.00507
1.00622
1.00379
1.00238
1.01084
1.00574
0.995183
1.00148
1.00025
0.999864
1.00098
1.01542
0.999661
0.999363
1.00061
1.00094
0.998862
0.79512
1.00039
1.00071
0.995813
0.793457
0.68783
1.00156
0.253921
1.00686
0.688074
1.00691
0.256073
0.31043
1.00242
0.43514
1.04484
0.299437
0.995344
0.434843
0.651344
1.0412
1
1.013
0.653507
1.03319
1
1.00013
1.0012
1.00114
1.01966
1.00018
1.00484
1.00026
1.00027
0.965746
1.00187
1.00378
1.00001
0.974652
1.00163
1.00312
1
1.00268
1.00563
1.00265
1
1.00204
1.00223
0.997764
1.00555
0.995808
1.00153
1.00034
1.00518
1.00564
1.00688
1.00202
1.01495
1.00518
1.00136
1.00165
1.00051
0.996576
1.00102
1.01396
1.00002
1.00104
1.00036
1.00098
0.990509
0.794842
1.00642
1.00026
0.993996
0.789398
0.687852
1.00786
0.251778
1.0057
0.686081
0.999451
0.237939
0.96741
1.14964
0.89795
1.01013
1.0006
1.03123
0.972287
0.999876
0.998738
1.002
0.941019
1.00101
1.00006
1
-6.53762e-19
0.000148553
-2.27613e-19
7.85569e-07
3.15897e-13
0.000612476
3.15904e-13
0.962218
1
1.0799
1.08262
0.991809
1.08692
1.02114
1.00178
1.00419
0.99051
1.0024
1.00227
0.995304
1.00298
1.58118e-24
0.542984
-8.4283e-19
0.0296033
6.20358e-10
0.543023
3.76135e-10
1.00634
0.952208
0.963288
0.993218
0.984258
1.00623
0.996655
0.998887
1.0022
0.937211
0.991222
1.00244
0.941272
0.999589
-2.03381e-16
1.00004
-2.60328e-19
0.80826
5.69606e-10
1.00001
9.61056e-08
1.01254
1.01038
1.01404
1.00095
1.01061
1.01944
1.01273
0.994724
0.997886
0.997625
0.992577
0.998114
1
0.979943
-2.27243e-19
1.00167
0.0979931
1.00051
3.59358e-06
1.00171
0.105011
0.990986
0.996972
0.932985
1.00518
1.00181
0.999506
0.958677
1.00243
1.00445
1.00549
0.996883
1.00485
1.00522
1.0024
0.175223
1.00194
0.272999
1.00246
0.187001
1.00224
0.28869
0.984364
0.995134
0.980553
0.995873
0.954496
0.989439
0.999999
0.99912
1
0.999043
1.00002
1.00014
0.999079
0.99991
0.291132
1.00314
0.166447
1.0029
0.309582
1.00346
0.174635
0.90072
1.0682
1.00921
0.750944
0.9848
1.40987
0.497796
1.0155
1.0107
1.02142
1.03502
1.01057
1.03041
1.01592
0.0943096
1.00065
-3.09867e-17
1.00426
0.0997483
1.00088
2.5546e-06
0.999365
1.00908
1.02889
1.01209
1.04435
1.00313
0.996302
0.987297
1.00156
0.985002
0.985121
0.999998
0.923383
0.993113
-9.76323e-17
0.911721
-2.70604e-18
1.00054
1.25177e-07
0.910231
1.17935e-09
0.987988
0.893804
0.950118
1.0044
0.995173
0.88093
0.997978
0.989568
1
0.976511
0.997927
1
0.984654
0.988088
-1.30966e-14
0.0959072
-1.99888e-16
0.730464
3.61294e-09
0.101067
5.56137e-09
0.939308
0.995569
0.996963
0.980832
0.960775
1.01092
1.00376
1.00164
0.998317
1.00162
0.983933
0.999228
1.00122
1.00176
-6.55795e-16
-2.69548e-15
-5.749e-16
0.0380416
5.10751e-12
8.8956e-07
6.73586e-12
0.99921
1.0423
0.96819
0.831697
1.09335
1.15669
1
1
1
0.946661
1.01628
1.00032
0.945886
1.00095
1.75754e-12
0.000697535
1.75757e-12
9.55148e-07
1.75754e-12
0.000686392
1.75757e-12
1.03632
1.0705
1.00466
1.09444
0.968351
1.04847
0.999641
0.997541
1.00247
1.00162
1.0308
0.999383
1.00298
1.0084
2.1757e-09
0.542865
1.21353e-09
0.0304222
2.17683e-09
0.543154
1.21353e-09
0.995866
1.01926
1.01775
1.0081
0.93611
0.993141
1.14188
1
1.00656
0.959009
1
0.999189
1.00674
0.993043
1.12503e-09
1.00048
1.52019e-07
0.80821
1.12585e-09
1.00011
1.51252e-07
1.02273
1.04089
1.00863
1.02048
1.02058
1.02548
1.00276
0.999427
0.999414
0.961471
0.999935
0.992185
0.998266
0.959047
4.72444e-06
1.00179
0.10631
1.00057
5.07143e-06
1.0015
0.10519
1.00057
1.00002
0.955486
0.998549
1.0084
0.997815
0.950277
1.00278
1.00603
0.996637
1.00449
1.00324
1.00621
0.997627
0.187112
1.0031
0.292513
1.00234
0.186745
1.00214
0.292376
0.983837
1.00968
1.12857
0.998626
0.982666
1.27659
1
0.998352
1.0001
0.982266
1.0014
0.998819
1.00019
0.983958
0.311689
1.00429
0.177252
1.00205
0.310963
1.00344
0.176038
0.988832
1.01784
0.509972
1.02395
1.07433
1.00027
1
1.01494
1.01028
1.03545
1.01137
1.01512
1.0107
1.02471
0.0995711
1.00187
3.63394e-06
1.00406
0.100885
1.00093
3.6375e-06
1.09871
1.09073
1.03336
0.946144
1.08759
1.00621
0.979888
0.988468
0.999526
0.902595
0.976535
0.983045
1.00076
0.937866
1.94794e-07
0.909804
2.16799e-09
1.0006
1.95185e-07
0.910364
2.11402e-09
0.939894
0.98662
1
0.994414
0.999002
1.00232
0.942419
0.990825
1
0.968581
0.997052
0.995623
1
0.960126
1.03525e-08
0.10205
1.7235e-08
0.729921
1.03525e-08
0.102987
1.72289e-08
0.977397
0.989249
0.99489
0.993304
1.00775
0.967857
0.991077
1.00177
1
1.00725
0.995262
1.00207
1
1.00916
2.07335e-11
1.10119e-06
3.32423e-11
0.0383634
2.07335e-11
9.67701e-07
3.33155e-11
1.07203
1.18026
0.989737
0.826177
1.07114
1.16881
1.00382
1.00206
1.00084
1.0165
1.04103
1.00125
1.01366
1.00281
3.3057e-13
0.000612659
3.30582e-13
-3.70504e-15
-1.00644e-18
0.000143365
-2.62447e-19
1.02935
1.06264
0.98872
1.25032
1.02503
1.07546
0.999818
0.99588
1.00166
0.995943
1.02527
0.996791
1.00211
0.976342
6.10287e-10
0.543386
3.69259e-10
0.02247
6.03209e-25
0.543272
-3.35988e-19
0.992937
1.00226
0.87792
0.975002
0.954293
0.981104
1.00933
1.00837
1.00685
1.03528
1.0223
1.00599
1.00543
1.03984
5.7473e-10
1.00038
9.69638e-08
0.806736
-1.59355e-16
1.00005
-1.35e-20
1.021
1.03044
1
1.01283
1.01759
1.02091
0.970399
0.99029
0.99995
0.958819
0.999833
0.993978
0.99943
0.96696
2.77146e-06
1.00162
0.105011
1.00009
-1.08993e-20
1.00127
0.0979309
1.00938
0.999715
0.944526
1.01735
0.990053
0.954671
0.939581
1.0027
1.00689
1.00446
1.00689
1.00327
1.00752
1.00459
0.185111
1.00291
0.292496
1.00156
0.174838
1.00159
0.272847
0.984818
1
0.931859
0.982323
0.986611
1.01098
0.983028
0.997085
0.999954
0.982986
0.998335
0.998777
0.999895
0.991586
0.308303
1.00416
0.176025
1.00128
0.289313
1.00302
0.166498
1.41225
0.999984
1.38726
0.970003
1.03676
0.962607
1.07644
1.01688
1.01032
1.17137
1.00268
1.01476
1.01016
1.1424
0.0981939
1.00167
2.57634e-06
1.0034
0.0938186
1.00057
-4.65982e-17
1.03853
0.972176
0.976897
0.944375
1.053
0.990301
0.977802
1.00212
1.00236
1.04784
1.0162
1.00176
1.00229
1.04743
1.2423e-07
0.909998
1.12226e-09
1.00003
-5.24577e-17
0.912737
-2.37346e-18
0.987248
0.96689
1
1.01482
0.978961
1.04031
0.969737
0.99256
1.00159
0.971953
1.02693
0.98667
1.00297
0.975856
3.62662e-09
0.101005
5.75327e-09
0.730426
-1.31421e-14
0.0970099
-2.17006e-16
0.992556
0.962536
1.00094
1.00027
0.996543
0.957164
1.02842
1.00225
1.00035
1.00662
1.00552
1.002
1.00095
1.00637
5.09657e-12
8.85272e-07
6.44751e-12
0.031438
-5.32333e-16
-2.66816e-15
-5.59355e-16
0.939071
0.975838
0.232891
0.31519
0.237654
0.940499
0.970578
1
0.955745
1.00559
1.0113
0.932798
1.00275
1
0.999998
0.422011
1
0.435398
0.423403
1
1
0.999927
0.914307
1
0.953553
0.981841
0.999948
0.99891
0.939049
0.316148
0.969716
0.246326
0.239104
0.933799
0.970471
1
1.00335
0.926001
0.999772
0.965191
1.00202
0.986434
1
0.435045
0.421899
1
0.420297
1.00009
0.999996
1
1.00068
0.789504
0.652929
1.00073
0.789082
1
1.00527
0.940129
1.00916
1.00194
0.950113
1.00622
1.00689
1.004
0.956271
1.00172
1
0.954976
1.00221
1.00354
1.00113
1.02712
1.00309
1.00097
1.0037
1.00923
1.00012
1
0.650978
1.00048
0.788076
1.001
0.788157
1
1.00759
0.997704
1.01133
1.00736
1.00843
1.00697
1.00726
1.00363
1
0.954639
1.00219
0.954755
1.00247
1.00338
1.00127
1.00189
1.00056
1.0002
1.00189
1.00086
1.00167
0.99996
0.996546
1.0007
1.01614
0.994719
1
1
1.00104
1.00109
1.00016
1.0003
1.00116
0.999991
1.00206
0.999399
0.973185
1.0058
0.92711
1.00385
0.9258
0.997265
1.00141
1.00019
1.00198
1.00091
1.00207
1.00109
1.00141
0.998615
1.01603
0.991302
0.997596
0.996228
0.99926
0.998094
1.00022
1.001
1.0013
0.999825
1.00113
1.00006
1.00031
0.997767
0.998004
1
0.99962
0.998361
0.999574
0.998061
0.999376
0.99654
1.00213
1.00113
0.998188
1.00193
0.999512
1.00037
1.0006
1.00278
1.00202
1.00049
1.00263
1.00117
0.998948
0.997357
0.99337
0.961261
0.993369
0.977992
0.979626
0.995994
0.999978
0.9993
1
0.995915
0.999595
0.998781
0.998988
1.00068
0.985476
1.00194
0.989576
1.0022
0.996149
1.0011
1.00207
1.00038
1.00213
1.00084
1.00283
1.00044
1.00331
1.00471
1.00325
1.00261
1.00444
1.00316
1.00426
1.00036
0.991127
1.00284
0.999986
0.990222
1.00212
1.00027
1.0018
1.00268
1.00363
1.00297
1.00288
1.00339
1.00222
1.00407
1.00285
1.00589
1.0041
1.00546
1.0059
1.00296
1.00407
1.00316
1.00432
1.00291
1.0048
1.00366
1.0033
1.00054
1
0.990841
1.00063
0.990224
1.00124
0.999754
1.00218
1.00351
1.00276
1.00306
1.00328
1.0035
1.00191
1.00221
1.0032
1.00302
1.0029
1.00292
1.00304
1.00257
0.995208
0.974149
1.00261
1
0.978416
1.00219
0.997598
1.00117
1.00391
1.00679
1.00479
1.00364
1.00679
1.00135
0.998708
1.00022
1.00012
0.996905
1.00006
0.997892
0.99852
1.00232
1.00353
1.00248
1.00309
1.00291
1.00359
1.00202
0.998674
0.998309
0.983776
1.00208
0.988405
1.00221
0.992283
1.00104
1.00507
1.0037
1.00663
1.00373
1.00695
1.00113
1.01075
1.00759
1.00641
1.00375
1.00679
1.00641
1.01067
1.01013
1.01796
1.00666
1.01134
1.02069
1.00726
1.01016
1.00657
1.00402
1.00357
1.00169
1.00407
1.00392
1.00668
1.01524
1.04665
1.0106
1.03828
1.01044
1.04922
1.01507
1.01077
1.00426
1.00726
1.00649
1.00659
1.00665
1.01061
1.01001
1
0.953357
1.0074
1.028
1.00747
1.00883
1.00691
1.00232
1.00405
1.00432
1.00453
1.00443
1.00685
0.990425
1.0006
0.996487
0.999672
1.0006
0.996545
0.985063
1.00137
0.998505
1.01076
1.0112
0.996325
1.01145
1.00134
0.994007
0.999451
1.00147
1.0003
0.999561
1.00154
0.995606
0.977414
0.936935
0.999409
0.900927
0.992354
0.903426
0.989098
0.993631
1.0002
1.00033
0.996922
1.0003
0.995841
0.993969
1.00001
1.00596
0.984035
1.00993
0.991995
1.00932
1.00083
0.993827
1.00092
0.999749
1.0025
0.999776
1.00228
0.997693
0.998461
1.00018
1
1.00003
0.999968
1
0.999927
0.949172
0.982425
0.989349
0.994302
0.975876
0.989621
0.964105
0.997558
0.949822
1
0.793228
0.94498
1
0.997441
0.986677
0.998195
1.00017
0.967505
0.999988
0.95936
0.984274
1
1.00065
1.00046
1
1.00048
1.00021
0.999745
0.948453
0.995962
0.985827
0.991232
0.974541
0.992268
0.947822
0.999936
0.795037
0.9291
1
0.924762
1
0.999998
1
1
0.473567
0.687115
1
0.474623
1
1
0.970853
1
0.997592
0.978051
1
1.00004
0.970351
0.372942
0.948044
0.244598
0.377274
0.971977
0.946633
1.00173
0.978549
1
1.00591
0.999028
1.00265
1.00191
1
0.686862
1.00005
0.475848
1.0001
0.474849
1
1.0001
0.99676
0.98892
1.0008
0.986336
1.00004
1.00046
0.970609
0.248708
0.378298
0.941762
0.377581
0.971229
0.943546
0.933755
0.971884
0.245518
0.317445
0.935192
0.246102
0.970129
0.948543
0.911735
0.996299
1.04641
0.965442
0.911837
0.99607
0.998889
0.415522
1
0.435208
0.999985
0.422871
1
1.00206
1.02365
1.00058
1.01666
1.01571
1.00245
1.00185
0.935455
0.319376
0.972984
0.244809
0.244267
0.933751
0.969091
0.950407
1.00407
0.904674
0.995322
0.935314
0.997622
0.940767
0.995707
0.435238
0.421635
1
0.420687
1
0.999749
1
1.00049
0.787718
0.65219
1
1.00003
0.787084
1.00672
1.00949
1.00715
1.02876
1.00714
1.01259
1.00685
1.00298
0.953891
1.00228
1
1.00334
0.954213
1.00212
0.998566
1.06302
1.00296
1.0694
1.00244
1.10114
0.999908
1
0.6515
1.00037
0.78749