/*--------------------------------*- C++ -*----------------------------------*\
| =========                 |                                                 |
| \\      /  F ield         | OpenFOAM: The Open Source CFD Toolbox           |
|  \\    /   O peration     | Version:  5.0                                   |
|   \\  /    A nd           | Web:      www.OpenFOAM.org                      |
|    \\/     M anipulation  |                                                 |
\*---------------------------------------------------------------------------*/
FoamFile
{
    version     2.0;
    format      ascii;
    class       surfaceScalarField;
    location    "2.9";
    object      alphaPhi10;
}
// * * * * * * * * * * * * * * * * * * * * * * * * * * * * * * * * * * * * * //

dimensions      [0 3 -1 0 0 0 0];

internalField   nonuniform List<scalar> 
25543
(
2.96168e-08
2.95608e-08
3.27264e-08
2.95103e-08
3.02926e-08
3.11255e-08
3.35471e-08
5.43753e-08
-1.61533e-08
-2.25966e-08
-1.04771e-08
7.71463e-08
3.93296e-08
1.71962e-08
3.79642e-08
-1.13936e-08
6.13977e-09
3.48004e-08
2.1198e-08
2.77922e-08
2.2874e-08
-7.76691e-09
-1.46532e-08
-6.65711e-09
-6.1205e-09
1.45879e-09
-2.20348e-09
-3.46811e-09
7.99652e-09
-2.73387e-12
6.27763e-08
6.27763e-08
6.27763e-08
4.7811e-23
-1.39908e-19
3.10466e-21
7.88393e-20
-5.06963e-20
-2.04478e-19
2.96043e-19
2.71924e-28
-2.64579e-23
-1.18935e-25
1.01448e-26
-6.69518e-27
-1.48172e-29
1.48762e-28
-4.312e-29
-8.34152e-31
9.91217e-32
-1.18832e-32
-3.87704e-32
4.76547e-36
2.87867e-36
-1.13035e-34
1.09598e-39
6.53165e-40
-9.99868e-38
4.17253e-43
2.3099e-43
7.58844e-42
1.64105e-46
-3.49687e-46
6.48009e-44
6.4367e-50
2.43433e-50
4.81399e-48
2.53287e-53
3.24999e-54
2.05134e-50
9.88838e-57
-1.39099e-56
-2.78067e-54
3.87709e-60
1.69826e-60
-3.94291e-57
1.54739e-63
2.215e-64
-4.0972e-60
6.10651e-67
1.06316e-67
-2.02163e-65
2.34376e-70
-5.86707e-71
5.27463e-66
9.10617e-74
-7.4661e-75
2.45825e-70
4.48218e-77
-4.23608e-78
1.31831e-72
2.45326e-80
-7.43853e-81
-2.64436e-77
7.457e-84
-5.18858e-84
2.24522e-78
3.35171e-87
-8.45153e-89
1.02652e-83
2.61545e-90
-1.12344e-90
2.93022e-85
1.48225e-93
-5.54135e-96
4.26218e-89
1.43018e-96
5.4237e-97
-3.63091e-92
3.4524e-100
2.52236e-101
-1.43264e-96
1.03685e-102
-4.14523e-104
6.7442e-98
2.75239e-105
-1.50903e-105
1.19841e-100
4.90312e-109
6.07549e-110
-9.51782e-105
4.41108e-112
1.08391e-112
-3.56086e-107
4.9124e-115
2.44642e-116
-1.11021e-110
6.94315e-118
1.02058e-118
-4.46808e-114
7.01048e-122
-3.66952e-123
1.87962e-118
2.21918e-125
-2.80401e-126
3.58448e-126
2.05974e-128
3.86131e-130
-1.16029e-124
6.1969e-131
7.70895e-133
-1.47211e-127
6.3463e-134
-2.42539e-135
-2.24377e-129
3.09838e-136
1.74191e-137
8.63884e-133
2.30914e-140
-8.50832e-143
4.40165e-136
1.73322e-143
-1.83283e-145
-3.76346e-139
3.85177e-147
1.01137e-147
-1.8723e-142
4.83204e-150
-6.27309e-154
7.48733e-147
4.25088e-152
1.96526e-153
1.21033e-149
4.60182e-157
4.60491e-157
-5.54268e-09
3.1465e-08
-7.44662e-09
-5.47474e-09
-2.45175e-09
5.39201e-08
4.11239e-08
3.57755e-08
3.63233e-08
3.90091e-08
1.94078e-08
-2.13686e-07
4.91874e-08
4.68718e-07
-6.32674e-08
-3.60195e-08
9.06703e-08
-4.35485e-08
-6.14354e-08
8.45836e-08
-1.38067e-08
1.55696e-08
4.96934e-08
-3.88304e-09
3.80657e-08
2.29425e-08
1.51044e-08
1.67057e-08
-1.77291e-09
-1.64971e-09
-5.85669e-09
3.6405e-08
-2.50622e-08
4.37636e-08
4.51332e-08
-4.90539e-08
-5.28698e-09
-2.95949e-10
-1.60389e-09
1.8694e-09
3.39029e-09
-6.32383e-12
1.20042e-14
1.78154e-08
1.48147e-12
1.78158e-08
8.89874e-22
-1.28749e-18
4.56421e-20
1.3696e-18
-2.70433e-17
1.50583e-17
1.2886e-17
-1.35239e-18
-2.21381e-18
-1.3526e-18
2.33896e-25
-1.56472e-22
2.33331e-24
4.04151e-28
-7.56078e-26
-9.1302e-29
6.69204e-29
-8.77116e-28
-1.41509e-31
2.83874e-32
-2.37686e-31
1.41484e-33
6.62237e-37
-4.15354e-34
-4.48561e-36
1.6501e-40
-1.28084e-37
-1.1106e-39
6.33151e-44
-1.55466e-41
-5.63543e-43
2.48751e-47
-3.40054e-45
3.0659e-45
9.76922e-51
-1.04177e-48
-3.72269e-49
3.83625e-54
-1.26309e-52
6.00334e-52
1.50189e-57
2.30835e-56
-8.54675e-55
5.81533e-61
-9.48501e-60
8.35969e-59
2.2588e-64
-8.33354e-63
-2.89398e-62
8.95182e-68
-1.07502e-66
5.91052e-65
3.73224e-71
-4.6216e-70
1.39725e-67
1.49638e-74
5.35886e-74
-2.62669e-70
5.90702e-78
-7.46396e-78
3.75852e-74
2.56783e-81
3.08358e-80
3.57141e-77
1.00795e-84
-1.90148e-83
3.6398e-80
4.12079e-88
4.64183e-88
-9.97679e-86
2.02083e-91
8.99543e-92
-7.97764e-87
1.32234e-94
6.8609e-94
6.57204e-90
1.68942e-97
-3.01514e-99
5.06447e-94
3.1167e-100
2.52748e-101
-1.42467e-96
4.76306e-104
-2.83708e-102
-6.72121e-100
4.63113e-107
-1.17815e-105
2.94954e-101
1.81586e-110
1.23412e-111
2.50292e-106
2.18755e-113
1.15341e-113
6.28083e-109
5.28857e-117
-3.51681e-117
-3.38099e-112
1.0978e-119
1.05274e-121
-3.06147e-121
1.52976e-121
-1.37212e-123
-4.10039e-119
1.30916e-125
-5.52966e-126
2.5997e-121
3.31944e-129
-2.05995e-129
-1.13122e-124
2.23126e-132
-4.35612e-133
-3.23689e-127
5.44221e-136
-3.9292e-135
-6.70464e-131
1.83646e-139
-2.05388e-140
4.05985e-139
8.52885e-143
1.24836e-143
9.34471e-137
1.13092e-145
-1.08409e-146
6.22983e-141
1.11487e-148
-3.80441e-148
-4.49716e-143
1.92001e-152
-1.79434e-152
5.25288e-148
6.08858e-154
5.41002e-156
5.95171e-151
1.48652e-157
-2.91973e-154
-4.49146e-09
2.34213e-08
3.05071e-08
4.02117e-08
-4.24638e-09
8.12262e-08
3.32564e-08
5.88329e-08
3.34582e-08
-5.11721e-09
-2.37062e-08
3.99054e-08
-1.77205e-08
3.46895e-08
-3.81991e-08
6.90264e-09
3.46174e-08
2.93137e-08
2.89715e-09
-2.46185e-08
-1.3788e-08
3.47612e-09
-2.54881e-07
-3.4042e-08
-2.42263e-09
2.17932e-09
2.31229e-09
5.64789e-09
-4.92485e-09
-7.66754e-11
2.33145e-11
1.47614e-09
-1.27677e-10
1.54552e-09
2.03439e-19
-1.34975e-18
-5.74826e-09
-1.29158e-18
-4.13369e-19
6.5706e-19
1.82824e-19
5.11349e-25
-1.74234e-21
-1.7657e-23
7.38691e-20
7.41501e-20
7.33373e-20
7.42092e-20
9.81683e-26
-2.15931e-25
-1.48426e-26
7.50693e-28
-4.36331e-28
4.6339e-30
1.20628e-31
-1.3432e-30
-7.54688e-31
2.20228e-35
-1.32947e-34
-4.51703e-34
1.0696e-38
-5.00517e-38
-1.94635e-38
3.19962e-42
-8.50076e-42
-1.33644e-41
1.20194e-45
-1.86709e-45
-3.3614e-45
4.80572e-49
-7.21539e-49
-4.31105e-47
1.92878e-52
-4.3443e-52
8.75587e-50
7.70088e-56
-9.84088e-56
2.93058e-53
3.06358e-59
-4.10309e-59
9.11393e-57
1.21647e-62
2.57478e-62
3.02558e-60
4.83707e-66
-4.17331e-66
3.74109e-63
1.91562e-69
-8.74344e-70
6.15249e-68
7.50251e-73
-1.42608e-73
1.28108e-69
3.03321e-76
-5.31613e-76
5.47561e-73
1.2351e-79
-3.44983e-80
2.35236e-76
4.82505e-83
1.80349e-83
-8.65379e-79
1.82793e-86
-1.57828e-86
2.64224e-83
1.11721e-89
1.96672e-91
1.97133e-86
8.16825e-93
-1.74262e-93
4.2376e-89
1.52901e-96
-1.51182e-96
4.42624e-96
7.69966e-99
-3.26204e-98
-3.80765e-99
9.44705e-101
2.28532e-102
-6.55299e-98
5.04126e-105
1.18651e-105
-5.12709e-100
1.22401e-108
-4.8857e-109
3.22357e-104
5.6842e-112
-1.66145e-112
1.21787e-107
2.39877e-115
2.95537e-116
8.59262e-111
2.39622e-118
8.43985e-120
-1.73197e-114
1.51883e-120
5.80584e-122
-8.38956e-118
3.17491e-124
4.14901e-124
-9.52961e-120
7.46474e-128
-6.37695e-128
-5.18664e-123
9.13667e-131
2.79374e-130
-1.76185e-125
1.40507e-133
-1.89712e-133
-2.56122e-129
1.56941e-137
1.24244e-137
5.84798e-133
4.85308e-141
2.75203e-141
6.88032e-136
5.40179e-144
-1.82782e-144
5.06345e-140
2.08441e-146
-4.07417e-148
-3.91546e-142
4.11868e-150
1.1016e-150
-3.96105e-147
2.09246e-153
-1.67607e-155
1.99349e-149
-4.6565e-157
1.10457e-154
1.42188e-08
1.4756e-08
-2.91095e-07
1.3415e-10
-2.02593e-09
-4.47009e-09
7.51887e-09
4.62502e-09
7.45377e-09
6.84422e-09
-2.70788e-07
-2.93042e-07
-2.49433e-07
4.24444e-08
8.47208e-09
-1.48904e-09
-1.98622e-08
6.37775e-08
5.33788e-08
1.6398e-08
4.17004e-08
-1.44772e-09
-3.19128e-11
-7.66823e-10
-2.01143e-09
-4.94994e-09
4.6785e-09
3.0097e-08
7.54611e-09
7.42514e-09
-2.23389e-08
-1.39927e-07
-6.58425e-08
1.52785e-07
-5.14093e-08
9.75149e-10
-1.75303e-08
1.86759e-09
-4.57838e-10
1.5695e-08
-1.30357e-10
2.43186e-11
5.41852e-11
-1.87328e-11
1.71064e-10
1.08756e-15
1.00124e-19
-1.96558e-08
3.27206e-17
-5.49227e-16
1.60375e-15
-1.37498e-15
9.26354e-18
7.07826e-25
-7.92293e-21
-9.13671e-22
2.61516e-19
9.00319e-20
1.94674e-19
5.37724e-19
-2.18839e-27
-1.11917e-24
-2.62862e-26
2.65444e-27
-9.8835e-28
5.86741e-30
1.34278e-29
-1.03398e-28
-1.77243e-31
1.14686e-33
-1.85936e-31
1.68698e-33
1.00915e-37
-2.2228e-35
-3.55537e-37
3.56996e-41
-4.10619e-39
-6.90666e-40
1.41299e-44
-1.02109e-42
-4.46711e-43
5.62609e-48
-2.95856e-46
-7.06536e-47
2.23703e-51
-6.19815e-50
4.29331e-49
8.80491e-55
-5.20295e-54
2.74262e-52
3.47098e-58
-4.81745e-57
-6.33388e-56
1.36678e-61
-6.12479e-61
1.22836e-58
5.53819e-65
-3.45686e-64
6.26004e-62
2.42219e-68
9.31182e-68
-2.81876e-65
9.56404e-72
7.39062e-72
9.47959e-69
3.83743e-75
4.76011e-75
-2.90834e-71
1.53107e-78
-1.73667e-77
-5.36936e-74
1.03444e-81
3.17626e-82
-1.67232e-77
1.79323e-84
7.80074e-85
-1.6218e-80
1.99959e-88
-4.15925e-87
-3.03219e-84
1.48051e-91
-1.04304e-92
-3.47335e-88
4.56446e-94
9.72914e-95
-1.07646e-90
2.90357e-97
-1.00814e-98
-2.71492e-93
3.29683e-101
-3.57642e-101
-3.48656e-97
2.74672e-104
2.69415e-105
-2.45739e-100
5.78807e-107
-1.79112e-109
2.79031e-103
6.42114e-111
-7.25233e-112
-2.29491e-106
3.34355e-114
-5.8895e-114
3.22276e-109
1.0439e-116
-2.43649e-117
-1.27886e-112
5.18421e-119
1.31017e-119
-6.42037e-116
3.23883e-123
-1.55906e-122
7.87623e-118
2.60592e-126
-3.74689e-127
-9.64991e-122
5.9748e-129
6.25844e-131
1.85956e-125
7.14024e-133
-8.00539e-133
-6.45979e-128
8.88398e-136
-1.15748e-134
-3.61389e-132
2.65576e-138
-9.08757e-140
-1.04876e-134
3.48216e-142
-3.45546e-143
-3.35419e-139
9.6324e-146
1.79783e-144
-1.72366e-140
4.26077e-149
4.5087e-149
6.80494e-145
5.2188e-152
-4.20602e-152
3.36847e-148
-4.74779e-154
8.82324e-151
-7.06842e-09
-7.08053e-09
1.92701e-08
-3.80463e-08
-1.30468e-09
1.46299e-08
2.20402e-07
1.27445e-07
7.78871e-08
7.58571e-09
5.35834e-09
6.63871e-09
2.68218e-08
2.85044e-08
2.91118e-08
2.63689e-08
-1.82037e-08
1.95201e-08
2.50855e-08
2.74864e-08
2.04908e-08
4.05807e-08
1.66358e-08
1.20758e-08
9.13552e-09
-4.30625e-08
-3.25122e-08
-1.53679e-07
-4.66314e-08
-7.38898e-08
-1.86537e-08
4.35894e-08
-4.94515e-08
1.76247e-08
1.96468e-08
1.05166e-08
1.57743e-08
-1.0288e-09
-2.20855e-08
2.66727e-09
-6.20174e-09
2.50941e-08
-2.75695e-09
6.49971e-11
-6.72294e-11
-6.98907e-11
2.86184e-10
2.42964e-13
2.98117e-15
3.09097e-08
3.82794e-15
3.09097e-08
5.91986e-23
6.84128e-21
-1.05598e-21
5.70931e-18
5.83104e-18
6.66191e-18
5.34179e-18
1.38574e-25
9.37267e-25
-1.95954e-25
9.40628e-27
7.80035e-27
-1.24108e-29
1.95083e-28
7.14757e-29
3.59361e-29
4.11816e-32
4.59199e-32
-1.0628e-31
2.227e-36
6.91684e-36
-4.6342e-35
6.70744e-40
2.236e-39
-1.57304e-37
2.63587e-43
6.39402e-43
-1.01938e-40
1.04001e-46
6.84306e-47
-1.57435e-44
4.09878e-50
2.31591e-50
4.10311e-48
1.62662e-53
5.81182e-54
2.1116e-50
6.46719e-57
9.11733e-58
-3.9847e-53
2.5332e-60
1.05749e-60
5.61368e-58
1.02009e-63
-2.8685e-64
-7.46364e-61
3.86443e-67
7.17655e-68
-2.00133e-63
1.54423e-70
-1.06596e-71
-2.59563e-66
6.73393e-74
1.10797e-74
-2.61293e-70
3.57385e-77
5.23227e-78
-1.99993e-72
1.38578e-80
4.0841e-81
-1.56967e-77
1.09352e-83
1.29721e-84
7.34077e-79
1.97291e-86
2.85829e-87
-9.74389e-83
5.2719e-90
-6.80901e-89
-9.34741e-85
4.41282e-93
-1.16811e-92
-2.84905e-89
1.75141e-96
4.89027e-97
-3.0827e-91
2.67517e-99
-1.92069e-100
-6.75091e-95
3.18953e-103
-1.32559e-103
-2.41514e-98
1.11757e-106
2.9737e-107
1.45683e-101
1.85553e-109
4.77217e-111
4.29781e-105
7.23385e-112
1.18355e-113
-2.67961e-107
8.98994e-116
8.40058e-116
-1.95193e-110
4.93279e-119
-1.38286e-120
1.35027e-119
1.38267e-121
-3.02294e-123
-1.59431e-116
1.04449e-125
-1.0244e-125
9.18364e-121
9.17643e-129
-7.98781e-128
5.86538e-124
3.62295e-131
-4.34222e-131
2.19854e-128
4.3793e-134
4.1699e-137
-3.81457e-129
5.53752e-138
-7.67044e-139
2.31058e-133
8.22377e-141
-1.72214e-141
3.95637e-137
4.48861e-143
3.91365e-144
-7.78406e-140
5.95784e-147
3.80988e-147
1.28403e-143
4.45562e-150
1.26708e-150
-2.8949e-146
1.49595e-154
-7.28409e-149
1.78288e-08
-2.15515e-08
-3.9276e-07
1.91007e-08
1.19519e-08
-2.35382e-09
-3.87921e-07
-5.85217e-07
-3.1474e-07
4.73471e-09
1.237e-08
2.47023e-08
2.5383e-08
5.38127e-08
-2.78565e-08
1.31003e-07
2.14994e-08
2.37193e-08
2.77339e-08
2.22456e-08
2.20821e-08
7.40207e-08
-3.73374e-10
-2.25418e-08
-1.51542e-09
4.07863e-08
2.54417e-08
-1.49628e-08
5.34112e-08
4.68079e-08
4.80761e-09
3.72645e-09
-5.91721e-09
7.00908e-09
2.28487e-09
-6.38613e-09
-1.32928e-09
-1.44534e-10
2.63297e-10
4.24186e-11
2.07871e-10
-6.23359e-14
6.06529e-16
6.27763e-08
1.07093e-14
6.27763e-08
-2.68643e-23
2.28976e-21
-1.68285e-21
5.76955e-18
5.49724e-18
6.61515e-18
5.0056e-18
3.79656e-26
4.76428e-25
-1.34171e-25
7.23208e-27
5.33337e-27
5.58812e-30
1.57755e-28
8.74828e-29
-1.39e-29
3.64987e-32
1.55017e-31
-1.30883e-30
1.92633e-36
2.11016e-35
1.56379e-35
5.67423e-40
3.80385e-39
1.69849e-38
2.22527e-43
1.01056e-42
2.6054e-41
8.87328e-47
2.53495e-46
-1.14462e-44
3.54828e-50
1.14668e-49
-1.58226e-46
1.40109e-53
1.91715e-53
1.51588e-51
5.6265e-57
3.58596e-57
4.33374e-54
2.18714e-60
9.4919e-61
-2.13103e-56
8.46404e-64
-2.67034e-64
-3.72173e-60
3.52593e-67
6.25173e-68
-1.68699e-63
1.58063e-70
-1.30045e-71
-6.72576e-67
1.45611e-73
1.72691e-75
2.85941e-71
5.8741e-76
3.30071e-77
-1.2608e-72
4.09242e-80
4.92273e-81
-6.76895e-77
1.77056e-83
8.88853e-85
1.05114e-79
5.09863e-86
-1.66718e-87
-2.2258e-82
1.36298e-88
6.21768e-89
-1.07302e-84
3.57599e-92
1.84147e-92
-3.96521e-88
1.31133e-95
3.85759e-97
-1.25062e-91
3.42129e-99
1.10809e-100
-5.07145e-95
1.84109e-102
1.94992e-103
-2.87168e-97
1.11067e-105
1.20769e-106
3.46357e-101
4.08454e-109
-2.30057e-111
-1.8496e-104
2.94923e-112
-5.89591e-114
-1.10064e-107
2.1093e-115
1.1206e-116
-2.72424e-110
7.74764e-119
-8.98309e-121
-1.46817e-114
2.08052e-121
-5.92072e-123
3.03753e-117
3.109e-124
-6.22619e-126
-1.95208e-120
5.91135e-127
2.10615e-128
4.84038e-123
7.89105e-131
2.87513e-132
-4.49779e-127
2.45032e-134
-1.48261e-135
-8.97891e-130
1.07577e-137
-9.63971e-141
-3.25803e-135
8.08854e-141
-9.1949e-144
-3.43395e-137
1.4304e-144
1.16475e-145
-5.53288e-144
5.34275e-148
3.32139e-149
7.10273e-143
2.1407e-151
6.45612e-153
-3.95167e-146
1.20889e-155
2.05206e-154
6.10707e-08
-3.01813e-08
7.64667e-08
6.44521e-08
6.16492e-08
6.52646e-08
9.91143e-08
7.90255e-08
7.21634e-08
-4.28002e-08
3.50507e-08
6.66169e-08
5.12678e-08
1.70203e-08
3.3235e-08
1.82686e-07
-7.08749e-08
-1.84826e-08
-1.42638e-08
4.42056e-09
1.71697e-08
1.5247e-08
-1.01873e-08
-1.48329e-08
-1.4883e-08
-1.48845e-08
-1.43128e-08
1.75352e-08
1.71724e-08
1.73317e-08
1.76586e-07
1.86733e-07
1.8484e-07
-9.49639e-09
2.95636e-08
2.02569e-08
1.78679e-08
4.4315e-08
-3.49815e-08
-1.98323e-08
3.95386e-08
4.54223e-08
3.28084e-08
9.65306e-09
-7.75897e-08
-1.20303e-08
9.77449e-08
-5.72525e-09
1.18625e-09
1.57293e-08
-2.10458e-09
-2.92418e-09
-1.16086e-08
-2.84773e-10
-8.25577e-10
8.58659e-10
-1.21331e-10
2.76809e-11
1.10684e-13
-1.75982e-15
-3.4828e-08
-3.4828e-08
1.86092e-15
1.25755e-13
-3.30238e-13
9.03681e-14
-2.49365e-15
-1.9546e-15
-1.9847e-15
2.56757e-25
3.40911e-21
-2.10026e-22
2.56656e-19
2.55984e-19
1.92762e-19
3.17063e-19
3.09889e-26
3.73032e-25
2.02844e-26
2.48984e-27
4.63269e-28
3.48503e-30
1.21656e-29
2.17617e-30
-3.17271e-31
9.64369e-34
1.167e-33
-5.41705e-34
8.80792e-38
2.35264e-37
4.06414e-37
3.12773e-41
4.04412e-41
-5.82267e-40
1.2369e-44
9.14448e-45
1.15281e-43
4.92333e-48
2.34061e-48
4.96195e-47
1.96292e-51
7.76375e-52
-1.47596e-48
7.82076e-55
7.36581e-56
8.42844e-52
3.16981e-58
4.99816e-59
-3.44945e-55
1.31556e-61
1.81194e-62
-7.34187e-59
4.98794e-65
4.4538e-66
-6.33043e-63
2.00504e-68
2.87271e-69
-1.53973e-64
8.50706e-72
2.67238e-73
-2.03823e-68
3.98795e-75
2.26509e-76
4.92625e-72
1.26741e-78
2.78825e-81
2.83775e-78
5.3679e-82
-6.8529e-83
-2.04657e-78
6.53256e-85
-2.86676e-86
-3.1281e-81
1.44362e-87
5.7668e-89
-7.641e-84
1.09692e-91
4.70858e-93
1.34398e-86
3.48633e-95
-1.56816e-96
-5.68618e-92
1.32391e-98
-2.18281e-100
-1.72108e-95
7.5299e-102
1.64678e-104
5.63877e-101
8.93949e-105
-1.07238e-106
-7.44166e-100
6.56847e-108
-2.57741e-110
2.69708e-103
4.42719e-111
1.07209e-112
7.08988e-107
3.97856e-114
-1.03691e-116
-7.28857e-110
1.35866e-116
-2.58473e-119
-3.01886e-113
3.05857e-120
1.33296e-122
-2.30105e-116
1.15425e-123
-2.55046e-125
9.503e-119
6.37021e-127
-8.05974e-129
9.43737e-123
1.26095e-129
7.16022e-132
1.96461e-125
1.37431e-133
-8.28978e-135
1.03381e-128
1.07081e-136
-5.13778e-139
3.04764e-132
3.0649e-139
-1.06738e-142
-3.11475e-135
1.66519e-142
-2.09754e-146
-2.65751e-138
1.14837e-144
1.0458e-147
-4.18017e-142
4.92189e-149
-1.23488e-151
8.87847e-150
6.98849e-152
8.20115e-155
5.16463e-151
3.97596e-155
-1.2628e-150
-1.40655e-09
3.97375e-08
-1.6957e-07
-5.36321e-09
4.36704e-09
-9.71596e-10
-3.64408e-09
-5.49232e-10
-2.43926e-09
-1.64852e-09
1.56017e-07
-3.82508e-07
1.26912e-07
5.71446e-08
5.28977e-08
5.33562e-08
5.4886e-08
5.426e-08
2.62014e-08
-1.49071e-07
3.50768e-08
2.96981e-08
3.22648e-08
3.08367e-08
1.15968e-08
-4.30918e-08
3.42658e-08
-1.35195e-08
-2.55409e-07
2.92246e-08
6.23972e-09
6.46577e-09
5.73177e-09
5.25358e-10
-1.97768e-08
1.44853e-10
-4.06692e-10
1.72633e-09
-1.04681e-11
1.35038e-09
4.26862e-16
-1.95253e-17
4.58199e-09
4.58199e-09
4.51038e-18
5.25566e-16
2.11606e-16
7.5132e-16
-8.45344e-25
1.62786e-22
-5.1354e-23
2.07111e-21
2.64105e-21
5.05636e-21
2.88839e-21
1.09196e-25
3.95856e-26
7.72161e-27
8.4644e-28
7.84728e-28
1.05681e-30
1.64776e-31
1.91582e-31
-5.37013e-31
1.67711e-35
3.75639e-34
-1.03209e-34
9.56299e-39
1.03668e-37
1.66575e-38
2.86325e-42
1.27176e-41
-7.98354e-41
1.06655e-45
2.93917e-45
1.32344e-44
4.24909e-49
9.08783e-49
-6.9443e-47
1.70489e-52
2.25255e-52
-9.04069e-50
6.86388e-56
1.06241e-55
1.70651e-52
2.75599e-59
2.0434e-59
-2.44864e-56
1.1031e-62
6.96176e-63
1.51839e-59
4.54033e-66
1.13411e-66
-1.03575e-62
1.82005e-69
8.76309e-70
-3.54395e-65
6.93363e-73
-1.03827e-74
-8.48887e-71
2.88957e-76
-2.89086e-78
1.54601e-73
1.60563e-79
3.34596e-81
-4.33064e-76
9.62871e-83
4.67034e-84
-1.75644e-78
3.09577e-86
2.89514e-87
-1.2008e-81
1.13026e-89
-1.42715e-91
1.14688e-87
5.72924e-93
-2.76367e-95
-6.97496e-88
3.2232e-96
2.69549e-98
5.37518e-96
5.78613e-99
7.87321e-102
-2.0533e-95
4.07424e-102
1.01132e-102
-2.41436e-98
7.23333e-106
-1.26252e-106
2.32454e-100
8.78441e-109
2.82692e-112
5.5906e-105
2.27389e-111
5.29781e-113
2.17034e-107
2.7393e-115
-7.14894e-117
-1.1215e-110
3.30787e-118
-1.43517e-120
-3.88714e-113
2.46529e-121
1.45758e-123
-3.00102e-118
1.55254e-124
2.80251e-126
1.60713e-119
3.2772e-128
2.19817e-131
1.98939e-123
4.41738e-131
-5.10239e-133
-7.31191e-127
6.04871e-134
-1.19208e-135
-2.36166e-129
1.50293e-137
3.97553e-139
2.44293e-133
3.5857e-141
4.99865e-144
-1.06018e-136
1.22475e-144
2.04658e-146
-5.13652e-140
4.55983e-148
-1.09236e-149
-9.44269e-147
1.62323e-151
-1.251e-151
4.70882e-150
-1.78078e-153
-1.09247e-154
4.34406e-153
1.02287e-158
-4.84535e-153
-7.91029e-08
1.03626e-08
3.18251e-07
-7.08726e-08
-7.30445e-08
-6.33418e-08
3.6435e-08
-7.51359e-08
-1.07697e-07
2.55682e-08
5.90704e-08
1.50128e-07
3.61587e-08
1.43022e-07
2.13994e-08
-1.64007e-08
-4.43916e-08
4.18603e-08
3.0317e-08
2.54957e-08
6.28697e-08
5.52415e-08
5.90137e-08
5.64558e-08
2.78316e-08
-1.0162e-08
-4.73128e-09
-4.39541e-09
2.34439e-09
1.64171e-08
7.414e-11
7.76105e-12
-2.46897e-08
-3.72735e-11
-2.47001e-08
9.44074e-22
4.33139e-19
1.18206e-19
2.5949e-16
5.37729e-18
-2.83349e-16
1.77289e-17
-9.12256e-19
-9.65078e-19
-1.95293e-18
-9.55317e-19
4.24914e-25
7.07924e-23
-9.20558e-24
6.77779e-28
1.61728e-26
-1.94078e-28
5.33987e-29
-1.83507e-28
-3.4285e-31
1.36341e-31
-5.99967e-31
1.72731e-33
4.51893e-36
-1.57091e-34
-1.09727e-36
6.27666e-40
-2.07021e-38
-1.453e-40
2.35214e-43
-5.39069e-42
-4.74263e-43
9.25146e-47
-1.0583e-45
-4.3663e-47
3.63568e-50
-3.71861e-49
-3.03887e-49
1.42485e-53
-7.96606e-53
-6.77452e-52
5.56266e-57
-1.85829e-56
7.9845e-55
2.16154e-60
-4.48825e-60
-4.05027e-58
8.36932e-64
-2.39849e-63
-4.26181e-62
3.22685e-67
7.04441e-67
-7.52822e-65
1.23819e-70
-1.90359e-71
2.91601e-68
4.92767e-74
9.11698e-75
-2.63495e-74
2.0333e-77
6.00089e-78
-2.0637e-74
7.11155e-81
1.11236e-80
7.95714e-78
2.67065e-84
-3.34648e-84
3.01057e-82
1.00963e-87
-4.94879e-88
-2.04222e-83
3.79257e-91
-1.52373e-90
-4.94811e-88
4.04326e-94
-3.03007e-94
4.54252e-90
1.29822e-96
3.13651e-98
2.2652e-93
1.13254e-100
-1.7257e-100
-9.00719e-98
3.0473e-104
-3.65796e-103
1.14376e-100
2.79237e-107
-1.38178e-106
-1.07972e-103
8.71369e-110
-7.1171e-111
2.80455e-106
1.08689e-113
-2.2962e-113
2.97558e-109
7.6144e-117
1.31591e-115
-4.9798e-113
1.30428e-120
-2.43484e-120
5.22718e-116
1.119e-123
-6.71873e-123
1.36371e-123
3.69929e-126
2.38546e-127
7.33023e-123
3.55813e-129
-1.58171e-130
4.67836e-125
4.44784e-132
-7.65535e-133
3.00361e-128
6.50154e-136
1.27394e-135
-2.5567e-132
1.77288e-139
-2.63583e-139
6.7973e-137
7.45828e-143
-1.71579e-142
8.44557e-139
1.00871e-145
-1.57775e-145
-6.17813e-143
4.82039e-148
-1.05237e-148
2.5037e-144
4.79394e-151
-6.07399e-151
-9.89572e-148
9.09166e-154
-1.33907e-154
-1.74406e-150
-1.5421e-157
4.12178e-155
2.89883e-08
-4.58554e-08
3.19151e-08
1.37237e-07
6.93526e-08
6.68489e-08
5.05034e-08
3.87986e-08
3.65209e-08
3.84408e-08
3.7182e-08
-1.42019e-08
6.93918e-08
3.84877e-08
1.32961e-08
-1.46039e-08
-1.29964e-08
-1.35572e-08
5.68953e-09
-5.55733e-08
3.55296e-08
1.31011e-08
-4.17942e-08
1.89794e-08
2.44356e-08
2.88931e-08
-2.82177e-08
-7.39933e-09
-4.33103e-08
-9.06818e-08
-4.87537e-08
-2.32225e-08
-4.98992e-08
-1.72026e-07
2.34879e-08
6.39975e-09
-1.77888e-07
3.0426e-09
-4.05588e-09
5.3106e-09
-1.58234e-09
-4.96164e-09
1.55303e-11
-7.27528e-14
1.79729e-08
3.29171e-12
1.7973e-08
-4.86922e-23
1.29947e-21
5.4092e-20
-4.02095e-19
6.32128e-19
1.52802e-19
-4.04321e-26
-1.0949e-25
2.92422e-27
-2.40632e-30
1.66887e-28
-5.7943e-31
2.17661e-31
-4.39782e-33
1.29975e-35
3.9082e-35
2.31662e-39
3.05499e-38
8.57082e-43
8.78026e-42
3.3609e-46
-1.4829e-44
1.31753e-49
1.33622e-48
5.15887e-53
5.13322e-51
2.02635e-56
4.96513e-54
7.93692e-60
-1.00112e-56
3.05797e-63
-6.69194e-61
1.17967e-66
5.978e-64
4.5221e-70
8.57922e-67
1.75518e-73
1.18384e-71
6.93608e-77
-1.05326e-72
2.6449e-80
6.31491e-76
1.02304e-83
4.89316e-79
1.09672e-86
-3.15512e-83
2.73162e-89
-4.00505e-86
2.97115e-93
-2.68564e-90
1.81343e-96
-3.96817e-94
5.16909e-99
-5.11426e-96
1.90945e-102
-4.07578e-99
6.76137e-106
3.09491e-102
2.03175e-109
2.18931e-105
2.32223e-112
2.52197e-108
4.01819e-115
-3.9411e-110
1.66833e-118
1.9365e-114
6.03627e-121
-8.63356e-118
3.98654e-125
-1.24665e-122
1.15908e-128
-1.59944e-124
2.03823e-131
-4.16439e-127
1.40575e-133
-9.36629e-130
7.77943e-138
-2.47522e-134
5.58525e-141
1.9338e-137
7.65571e-144
3.25662e-140
2.63264e-147
-6.2616e-144
1.29656e-150
3.64956e-147
2.02787e-154
2.45753e-149
1.03057e-152
-9.05481e-10
5.6711e-09
-2.79897e-07
7.08232e-09
-4.91321e-09
3.10609e-09
7.23319e-09
6.38486e-09
7.76016e-09
8.26742e-08
8.17093e-08
7.98501e-08
9.1037e-08
-6.97544e-08
-3.3421e-09
-3.25105e-08
-4.21235e-08
2.26797e-08
2.09816e-08
2.83645e-08
-2.4111e-08
-1.12147e-08
-3.53451e-08
1.94497e-07
1.20539e-08
5.2601e-08
1.82981e-07
-5.20826e-07
1.60907e-08
3.5703e-08
-2.7326e-10
2.13652e-07
-3.62881e-08
4.66491e-09
-3.20705e-09
-3.2339e-09
3.625e-08
-4.53264e-12
-7.35654e-14
1.90715e-14
4.82284e-08
4.82265e-08
8.36521e-24
-3.36606e-19
-3.71426e-21
7.36482e-20
5.57285e-19
-8.70032e-19
3.47971e-19
1.53982e-25
-1.92638e-22
1.10901e-25
2.51527e-26
-4.81361e-26
6.48142e-30
1.39151e-27
-4.58584e-28
7.36637e-31
6.09147e-30
-1.20645e-30
-3.72573e-33
2.55125e-33
1.9862e-33
-1.17169e-35
3.83299e-37
1.19288e-36
6.3187e-38
1.96007e-40
3.66379e-40
-9.11945e-43
1.4087e-43
3.26325e-43
3.55863e-44
9.7771e-47
8.55549e-47
-2.54988e-48
6.63918e-50
4.18957e-50
-2.14943e-50
4.49893e-53
5.55184e-53
-3.37512e-54
3.05238e-56
2.2961e-56
1.06328e-56
2.06765e-59
6.18532e-60
-8.96394e-60
1.39772e-62
-5.47203e-63
1.45961e-63
9.43436e-66
-3.64379e-66
-3.6814e-66
6.36023e-69
-9.52055e-71
-8.90464e-72
4.27975e-72
-2.32671e-72
-1.70933e-72
2.8742e-75
-7.72887e-76
1.02761e-76
1.92777e-78
9.22488e-80
-7.15006e-79
1.29087e-81
-2.57753e-83
-3.75129e-83
8.62459e-85
1.74391e-87
-3.60559e-86
5.75274e-88
-1.84056e-90
3.0655e-90
3.82823e-91
2.275e-91
6.42572e-94
2.54415e-94
1.21962e-94
1.07913e-96
1.68869e-97
-1.29013e-97
-1.22512e-97
1.11974e-100
9.85378e-101
-1.10918e-100
7.41423e-104
3.86784e-105
-3.65197e-105
4.89306e-107
-5.98755e-108
3.24273e-107
3.21905e-110
-1.90807e-111
-3.35783e-111
2.11579e-113
-5.65251e-115
4.911e-114
1.38849e-116
5.74276e-117
-8.37308e-123
9.09594e-120
-1.48076e-121
8.7476e-121
5.94974e-123
4.06588e-124
-2.94227e-124
3.87955e-126
-2.11041e-128
3.1898e-128
2.52139e-129
-2.69503e-129
7.97741e-130
1.63698e-132
-4.91266e-133
9.8822e-139
1.05899e-135
3.92506e-137
-1.89355e-136
6.84828e-139
-8.31522e-140
3.4228e-139
4.42057e-142
5.88414e-143
1.23235e-142
2.84305e-145
1.84035e-147
-1.43049e-148
1.6279e-148
2.12123e-150
-7.77019e-150
2.57894e-152
1.60575e-152
-3.03722e-07
1.60028e-10
-3.03311e-07
5.34644e-09
1.71792e-08
3.45843e-08
1.13309e-08
3.04643e-08
4.0703e-09
9.48892e-09
-2.91812e-09
-5.44286e-07
1.02462e-08
-4.63293e-09
5.5739e-07
1.76028e-08
-2.64809e-09
1.48936e-09
-3.16082e-07
-5.29474e-09
-3.31083e-07
-3.28024e-07
-3.68527e-07
-1.28478e-08
3.17178e-08
-2.95182e-07
4.2292e-09
1.84691e-07
2.50351e-08
3.4386e-09
1.30231e-08
6.77588e-10
1.86679e-09
-4.5128e-08
4.70187e-11
-1.83519e-12
4.642e-14
2.62009e-12
1.07887e-12
-1.74684e-15
8.1434e-21
-6.76767e-18
-4.93483e-20
1.65315e-17
-1.13878e-17
1.56674e-17
-1.09033e-17
-5.2994e-18
-5.88502e-18
-5.29683e-18
1.67289e-24
-5.40228e-22
-3.03527e-24
-1.79085e-27
-1.15461e-24
1.873e-28
3.44914e-28
-3.07394e-26
5.43026e-31
7.93587e-31
-6.13275e-29
-1.21133e-33
6.70953e-35
-2.09747e-33
3.50212e-36
1.82174e-38
-6.16782e-37
2.73907e-40
1.28381e-41
-3.18598e-40
2.02742e-43
8.93748e-45
-1.19021e-43
-8.55633e-46
6.04788e-48
-6.2135e-47
4.44622e-50
4.06872e-51
-1.8138e-50
1.04164e-51
2.73854e-54
7.21375e-55
-2.35578e-55
1.84124e-57
-3.28431e-57
-1.3884e-58
1.23572e-60
-9.81725e-61
-2.03502e-61
8.27633e-64
-6.56649e-64
-1.18239e-64
5.54168e-67
1.29333e-66
-5.29719e-69
3.70727e-70
-2.56442e-69
1.7545e-70
2.4735e-73
-1.00061e-73
2.0179e-75
1.65025e-76
8.42493e-77
1.09054e-77
1.09957e-79
-3.87746e-80
-2.09584e-81
7.31043e-83
-4.39459e-83
-4.32403e-85
4.85326e-86
1.55008e-86
5.45989e-87
3.2218e-89
5.79416e-90
-6.1054e-90
2.1416e-92
2.05889e-93
2.2478e-93
1.4178e-95
1.48578e-96
1.8133e-96
9.37406e-99
-4.57985e-99
9.10458e-100
6.19444e-102
-7.02743e-102
1.24991e-101
4.0913e-105
-4.70116e-106
4.55076e-106
2.69906e-108
2.64584e-108
-2.96006e-108
1.77754e-111
4.2788e-112
4.47629e-112
1.16785e-114
3.30607e-115
4.3819e-116
7.6718e-118
-1.26178e-117
-7.26271e-119
5.02919e-121
1.3572e-121
9.54868e-124
3.29847e-124
-5.67822e-124
8.91213e-125
2.15886e-127
-5.69723e-127
3.62593e-127
1.41186e-130
-1.2541e-130
5.44223e-131
9.2324e-134
-9.0182e-134
-6.92037e-134
6.00895e-137
5.80066e-137
-5.31666e-137
3.90348e-140
-1.4045e-140
1.89162e-140
2.53473e-143
7.88038e-143
9.16569e-144
1.64444e-146
2.74045e-146
1.86097e-147
9.42951e-150
8.60737e-151
5.2997e-151
8.04185e-153
1.12978e-157
-1.96091e-07
1.31477e-08
9.66504e-09
3.10488e-08
4.30832e-08
1.40538e-08
-7.43887e-09
-1.24096e-08
5.80947e-07
1.44443e-07
1.38315e-07
1.50846e-07
1.21446e-07
2.36991e-07
9.86942e-08
-2.73649e-07
1.78227e-09
1.35343e-08
1.41392e-08
1.40284e-08
1.46894e-08
1.70932e-08
5.1146e-07
5.43202e-07
5.59708e-08
5.44711e-07
-3.06122e-08
-2.25442e-08
-1.8579e-07
1.15055e-08
-1.58218e-07
-1.58112e-07
-1.78057e-07
-2.03478e-08
2.5506e-09
-2.61873e-08
5.38254e-09
2.3011e-07
6.55169e-08
-2.87741e-09
-1.35973e-08
4.3067e-09
5.89726e-09
-5.94465e-08
-4.36145e-11
1.00837e-10
7.04079e-12
-9.76773e-11
-4.88038e-11
1.78607e-10
7.09737e-18
-5.5272e-18
4.87894e-19
-4.70119e-18
6.28738e-19
9.96633e-18
8.53371e-18
3.33865e-17
1.60233e-23
-7.98576e-21
1.29622e-22
-5.24263e-20
-5.31239e-20
-5.50903e-20
-5.32031e-20
1.35207e-24
-2.57165e-24
1.52008e-26
4.90712e-26
1.824e-27
-4.05463e-30
3.80737e-29
-6.63813e-29
8.44216e-31
2.80387e-33
-3.35809e-32
6.01307e-34
1.14219e-36
-7.0263e-36
-8.41501e-39
8.26103e-40
-2.71358e-39
1.58385e-43
5.63601e-43
-1.10944e-42
-6.72542e-45
3.76531e-46
-6.16391e-46
4.58946e-47
2.51049e-49
-8.82475e-50
5.89651e-50
1.66843e-52
-4.84131e-53
-5.64813e-53
1.10807e-55
-7.23973e-56
-4.68926e-57
7.33562e-59
3.95838e-59
-1.44434e-59
4.84423e-62
-2.47142e-62
-1.1949e-63
3.1948e-65
-1.11062e-66
9.79912e-66
2.09985e-68
-3.1433e-69
5.22063e-69
1.37604e-71
5.03977e-72
-1.10127e-72
9.00328e-75
9.07046e-77
8.51582e-76
5.8732e-78
2.43853e-79
7.87182e-79
3.81742e-81
4.05191e-81
-4.72055e-83
2.47903e-84
5.0568e-85
3.62321e-86
1.60666e-87
-8.02336e-88
-4.31865e-88
1.03794e-90
2.48116e-91
2.16655e-95
6.69653e-94
6.24852e-96
5.6856e-99
4.3032e-97
1.24941e-97
6.46702e-100
2.75307e-100
-3.66352e-101
4.4831e-101
1.75687e-103
2.32237e-105
-9.13364e-104
1.11855e-106
-3.1862e-107
-1.61664e-106
7.09971e-110
7.81203e-111
7.51339e-111
4.49397e-113
3.66498e-114
-2.8634e-114
2.83403e-116
9.79717e-117
-6.53588e-119
1.77881e-119
-4.23092e-120
-1.02539e-119
1.1135e-122
-1.90601e-122
2.02548e-122
6.95142e-126
3.97334e-126
3.63806e-126
4.32675e-129
-2.47151e-129
6.26111e-129
2.68308e-132
1.57299e-132
-2.13356e-132
1.65538e-135
1.35482e-135
-3.24416e-136
1.01543e-138
3.70808e-139
-5.92509e-140
6.19954e-142
-4.14324e-143
3.29956e-142
3.76511e-145
1.06835e-145
7.50988e-147
1.96528e-148
3.28726e-149
-5.47013e-149
-2.74058e-152
-9.82239e-153
-2.82242e-07
-2.81167e-07
2.93115e-08
1.19653e-08
-6.82617e-09
-1.22356e-08
-5.30737e-09
-9.54565e-09
-4.37925e-07
-1.51664e-08
1.32231e-08
2.8141e-09
4.00554e-09
-5.19953e-07
-5.88592e-08
-3.60716e-08
-2.646e-08
3.55857e-08
5.48315e-09
-1.24699e-07
7.17898e-09
1.83062e-07
-2.45008e-07
8.92661e-09
1.66818e-10
-2.34648e-08
-1.59063e-07
-3.4204e-08
-6.50134e-08
4.91497e-09
-1.87745e-08
6.70494e-09
-9.46637e-10
7.51437e-08
-2.99406e-10
-5.26384e-11
-2.11123e-10
3.68086e-10
9.3699e-11
2.07171e-10
-1.01985e-14
-5.41457e-18
-3.48223e-15
-2.07564e-17
-1.76916e-16
1.75854e-14
-1.17443e-14
1.01476e-14
6.83247e-17
-5.53811e-24
-2.01638e-20
1.92421e-23