/*--------------------------------*- C++ -*----------------------------------*\
| =========                 |                                                 |
| \\      /  F ield         | OpenFOAM: The Open Source CFD Toolbox           |
|  \\    /   O peration     | Version:  5.0                                   |
|   \\  /    A nd           | Web:      www.OpenFOAM.org                      |
|    \\/     M anipulation  |                                                 |
\*---------------------------------------------------------------------------*/
FoamFile
{
    version     2.0;
    format      ascii;
    class       volScalarField;
    location    "2.9";
    object      p;
}
// * * * * * * * * * * * * * * * * * * * * * * * * * * * * * * * * * * * * * //

dimensions      [1 -1 -2 0 0 0 0];

internalField   nonuniform List<scalar> 
8563
(
94.1228
94.9697
82.012
191.54
93.7362
106.473
97.2435
94.7363
92.1401
89.5206
86.9322
84.366
81.8218
79.3192
76.8356
74.3783
71.9378
69.5299
67.1396
64.7787
62.4189
60.082
57.773
55.4577
53.1661
50.895
48.6312
46.3649
44.1186
41.8971
39.6733
37.4746
35.3056
33.131
30.9465
28.7952
26.6991
24.6374
22.5849
20.5282
18.4995
16.5158
14.5367
12.5329
10.5547
8.62822
6.69982
4.76667
2.85526
0.95447
96.67
100.045
101.073
116.997
117.389
103.553
100.558
95.4205
92.4777
89.717
87.051
84.4368
81.8863
79.3582
76.8535
74.3964
71.9451
69.549
67.1689
64.7843
62.427
60.0853
57.7655
55.4596
53.1578
50.8818
48.6207
46.3676
44.1272
41.9015
39.6891
37.4889
35.3025
33.1196
30.9495
28.8015
26.6933
24.6214
22.5685
20.5278
18.5057
16.5202
14.54
12.5477
10.5604
8.61256
6.68566
4.76311
2.85548
0.954071
108.675
131.849
115.368
105.148
95.8859
105.24
101.897
96.2556
92.4127
89.7595
87.0878
84.4541
81.8855
79.3655
76.8639
74.389
71.9591
69.5688
67.1836
64.7829
62.4269
60.0897
57.7626
55.4566
53.1619
50.8775
48.6114
46.3737
44.1368
41.9029
39.6936
37.4881
35.2826
33.1086
30.9553
28.8155
26.6934
24.6122
22.5649
20.5312
18.5156
16.5215
14.5321
12.5493
10.5708
8.61138
6.68005
4.76432
2.85791
0.953768
98.5977
102.089
98.7725
101.167
100.982
100.118
100.295
96.1214
92.335
89.7375
87.0632
84.4658
81.8786
79.3517
76.8611
74.3923
71.9589
69.5626
67.1623
64.7874
62.4421
60.0909
57.7646
55.4585
53.1737
50.8884
48.6109
46.3804
44.1321
41.894
39.6941
37.4839
35.2773
33.1039
30.9643
28.8322
26.6988
24.6077
22.5653
20.5365
18.5216
16.5103
14.5109
12.5398
10.5785
8.61484
6.68055
4.77188
2.86445
0.949394
94.5724
98.8577
100.169
98.2507
97.9434
100.5
100.392
96.7863
92.2321
89.6013
86.9746
84.3874
81.8448
79.3269
76.8541
74.3913
71.9667
69.5511
67.1403
64.7875
62.4429
60.0894
57.7677
55.4608
53.1822
50.9034
48.6209
46.3749
44.1198
41.8879
39.6876
37.4739
35.2737
33.1017
30.9641
28.8413
26.7091
24.6111
22.5685
20.5452
18.5198
16.4941
14.4935
12.5305
10.5759
8.61681
6.68877
4.78606
2.87333
0.947419
96.5548
88.4948
102.335
101.876
103.432
100.686
100.472
96.5139
91.8813
89.3923
86.8434
84.3077
81.7967
79.3035
76.8501
74.3936
71.9704
69.5511
67.1339
64.7742
62.4368
60.0836
57.7686
55.4711
53.1876
50.9171
48.6313
46.3692
44.1108
41.8714
39.6761
37.4659
35.265
33.1036
30.9694
28.8437
26.7203
24.625
22.5729
20.5463
18.5137
16.4785
14.4793
12.5202
10.5721
8.62178
6.70528
4.81078
2.88419
0.950345
97.8477
125.81
102.443
104.554
106.218
94.6865
97.7784
94.4537
91.4506
89.169
86.7235
84.2423
81.7733
79.2925
76.8307
74.3822
71.9631
69.5547
67.1353
64.7627
62.4229
60.0823
57.7668
55.4788
53.1928
50.9143
48.6369
46.3663
44.1128
41.8874
39.6765
37.4555
35.2589
33.1096
30.9705
28.837
26.7249
24.6367
22.5739
20.5374
18.506
16.4775
14.4785
12.5202
10.5685
8.62394
6.71174
4.81074
2.8881
0.959519
95.003
99.6462
99.528
107.284
101
106.57
97.0752
94.485
91.447
89.1313
86.683
84.2145
81.755
79.2797
76.802
74.3799
71.9505
69.5414
67.1484
64.7563
62.4132
60.0775
57.765
55.4799
53.1924
50.9191
48.6381
46.3621
44.1238
41.8935
39.6722
37.4531
35.2631
33.1163
30.9689
28.8261
26.7242
24.6475
22.5797
20.5321
18.5017
16.4832
14.4907
12.5232
10.5667
8.62607
6.71022
4.79964
2.88624
0.96335
94.8603
91.6436
109.105
102.308
93.0875
103.224
98.8208
94.0478
91.6546
89.2121
86.7372
84.2505
81.7661
79.2831
76.8165
74.3817
71.933
69.5255
67.1377
64.7635
62.4062
60.0701
57.7684
55.4747
53.1938
50.918
48.635
46.3614
44.1173
41.8922
39.6615
37.4541
35.2829
33.1221
30.9623
28.8161
26.7182
24.6509
22.5834
20.5299
18.499
16.4948
14.5068
12.5239
10.5628
8.62702
6.70278
4.78878
2.87565
0.96439
91.8294
88.9643
83.5838
90.3365
103.382
96.8323
97.0416
94.2473
91.848
89.3314
86.8194
84.2919
81.7727
79.2992
76.8245
74.3709
71.9329
69.525
67.1361
64.7669
62.41
60.0738
57.7722
55.4641
53.1838
50.9141
48.6345
46.3629
44.1148
41.8936
39.6644
37.4612
35.2991
33.1302
30.9523
28.803
26.7091
24.6473
22.5863
20.5282
18.499
16.5063
14.5241
12.5252
10.5565
8.63035
6.70593
4.77713
2.86093
0.954994
93.2195
96.2552
81.1106
169.82
99.7728
95.8069
97.2357
94.7366
92.1401
89.5205
86.9323
84.366
81.8217
79.3193
76.8356
74.3781
71.9378
69.5299
67.1396
64.7785
62.4189
60.0821
57.773
55.4576
53.1661
50.895
48.631
46.3648
44.1184
41.8969
39.6732
37.4746
35.3056
33.1309
30.9465
28.7951
26.699
24.6374
22.5849
20.528
18.4994
16.5158
14.5368
12.533
10.5547
8.62826
6.69974
4.76661
2.85522
0.954542
96.5933
107.224
100.206
122.308
126.492
103.221
100.449
95.4213
92.4776
89.7168
87.051
84.4369
81.8863
79.3582
76.8534
74.3962
71.9451
69.5492
67.1689
64.7842
62.427
60.0855
57.7653
55.4595
53.1578
50.8818
48.6206
46.3675
44.1272
41.9018
39.6897
37.489
35.3025
33.1196
30.9495
28.8015
26.6933
24.6214
22.5683
20.5277
18.5058
16.5203
14.54
12.5475
10.5605
8.61258
6.68555
4.76309
2.85567
0.954023
102.983
104.868
115.728
108.741
165.635
103.266
101.93
96.2537
92.4142
89.7594
87.0879
84.4541
81.8856
79.3654
76.8639
74.389
71.9591
69.5687
67.1837
64.7828
62.4268
60.0897
57.7624
55.4565
53.1619
50.8774
48.6114
46.3737
44.1369
41.9031
39.6933
37.488
35.2827
33.1086
30.9554
28.8155
26.6933
24.6123
22.5649
20.531
18.5156
16.5216
14.532
12.5491
10.5708
8.61134
6.67986
4.76438
2.85798
0.953763
98.6687
105.155
100.595
101.529
102.493
100.027
100.315
96.1156
92.3355
89.7371
87.0632
84.4657
81.8785
79.3517
76.8611
74.3923
71.9589
69.5624
67.1623
64.7873
62.4422
60.0909
57.7645
55.4585
53.1735
50.8882
48.611
46.3805
44.1322
41.8939
39.6939
37.4839
35.2772
33.1038
30.9644
28.8322
26.6988
24.6077
22.5653
20.5364
18.5216
16.5101
14.5108
12.5398
10.5786
8.61483
6.68044
4.77184
2.86443
0.949245
94.7277
97.1549
100.79
96.9525
101.379
100.293
100.367
96.7654
92.2324
89.6013
86.9746
84.3874
81.8447
79.3269
76.8542
74.3914
71.9667
69.5511
67.14
64.7876
62.443
60.0893
57.7676
55.4609
53.182
50.9034
48.621
46.3749
44.1192
41.8878
39.6876
37.4738
35.2736
33.1017
30.9641
28.8413
26.7091
24.6111
22.5685
20.5453
18.5198
16.4942
14.4934
12.5304
10.5759
8.61679
6.6887
4.786
2.87324
0.947474
96.0637
86.9834
102.055
102.277
102.492
100.805
100.473
96.4629
91.8816
89.3925
86.8433
84.3077
81.7969
79.3035
76.8501
74.3936
71.9704
69.5512
67.1338
64.7742
62.4372
60.0834
57.7686
55.4711
53.1878
50.9172
48.6311
46.369
44.1107
41.8715
39.6761
37.4655
35.2649
33.1036
30.9694
28.8437
26.7203
24.625
22.5729
20.5463
18.5137
16.4785
14.4793
12.5202
10.572
8.62176
6.70526
4.81109
2.88391
0.950306
98.9791
130.444
98.5928
107.924
74.2594
90.5045
97.6984
94.4401
91.451
89.1688
86.7235
84.2423
81.7732
79.2925
76.8307
74.3822
71.9631
69.5545
67.1352
64.7627
62.4228
60.0823
57.7669
55.4788
53.1926
50.9143
48.6368
46.3663
44.1129
41.8873
39.6767
37.4555
35.2588
33.1096
30.9705
28.8369
26.7249
24.6366
22.5739
20.5375
18.506
16.4774
14.4785
12.5201
10.5684
8.62392
6.71206
4.81082
2.88802
0.95965
94.8901
96.6686
99.413
109.129
100.276
98.9147
97.04
94.4825
91.4477
89.1311
86.683
84.2145
81.755
79.2797
76.802
74.3798
71.9508
69.5411
67.1486
64.7562
62.4132
60.0775
57.7651
55.4798
53.1923
50.9191
48.6383
46.3621
44.1237
41.8935
39.6721
37.4531
35.2631
33.1163
30.9689
28.826
26.7241
24.6475
22.5796
20.5321
18.5014
16.4832
14.4907
12.5232
10.5666
8.62605
6.71021
4.79962
2.88618
0.96342
94.958
102.598
104.732
76.7063
91.2623
103.197
98.8643
94.048
91.6549
89.2121
86.7371
84.2505
81.7661
79.2831
76.8165
74.3819
71.9331
69.5253
67.1377
64.7635
62.4062
60.0703
57.7684
55.4746
53.1938
50.918
48.6349
46.3614
44.1174
41.8923
39.6615
37.454
35.2834
33.1221
30.9621
28.8161
26.7182
24.6508
22.5833
20.5298
18.499
16.4949
14.5068
12.5237
10.5627
8.62706
6.70273
4.78875
2.87571
0.964393
92.405
89.4117
83.7693
91.3496
94.9832
96.0145
96.9221
94.2476
91.8479
89.3314
86.8195
84.2915
81.7725
79.2991
76.8245
74.3712
71.9328
69.5245
67.1362
64.7668
62.4099
60.0738
57.7722
55.4641
53.1839
50.9141
48.6342
46.363
44.1149
41.8936
39.6642
37.4613
35.2993
33.1301
30.9518
28.8032
26.7091
24.6473
22.5863
20.5282
18.4989
16.5064
14.5241
12.5251
10.5565
8.63036
6.70581
4.7771
2.86092
0.954977
93.2852
92.5109
71.1244
109.462
100.418
96.4188
97.2277
94.7367
92.14
89.5204
86.9323
84.366
81.8216
79.3193
76.8355
74.3778
71.9377
69.5299
67.1397
64.7783
62.4188
60.082
57.7729
55.4574
53.166
50.895
48.6309
46.3648
44.1182
41.8968
39.6733
37.4746
35.3056
33.1307
30.9464
28.7951
26.6989
24.6373
22.5849
20.5279
18.4992
16.5158
14.5368
12.533
10.5547
8.62827
6.69961
4.7665
2.85511
0.954504
97.1471
103.401
108.071
131.674
115.637
103.366
100.45
95.42
92.4776
89.7166
87.0509
84.4368
81.8861
79.3581
76.8534
74.396
71.945
69.5493
67.1687
64.784
62.4276
60.0855
57.7651
55.4589
53.1578
50.8817
48.6205
46.3675
44.1273
41.9018
39.6897
37.489
35.3023
33.1195
30.9494
28.8014
26.6932
24.6219
22.5682
20.5276
18.5057
16.5203
14.5399
12.5471
10.5605
8.61255
6.68546
4.76302
2.85575
0.953832
103.581
108.93
108.147
105.964
118.691
103.537
101.92
96.2556
92.4139
89.7594
87.0877
84.454
81.8854
79.3654
76.8638
74.3889
71.959
69.5684
67.1835
64.7827
62.4266
60.0896
57.7622
55.4564
53.1619
50.8772
48.6118
46.3737
44.1369
41.9031
39.6932
37.4876
35.2827
33.1087
30.9553
28.8155
26.6932
24.6122
22.5648
20.5309
18.5155
16.5217
14.532
12.5489
10.5711
8.61127
6.67975
4.76438
2.85792
0.953659
98.8731
100.59
98.2647
99.5599
99.9908
100.078
100.307
96.1189
92.3349
89.7368
87.0631
84.4656
81.8784
79.3516
76.861
74.3922
71.9588
69.5622
67.1622
64.7871
62.4422
60.0908
57.7644
55.4584
53.1733
50.888
48.6111
46.3804
44.1321
41.8938
39.6938
37.4838
35.2772
33.1038
30.9644
28.832
26.6987
24.6078
22.5653
20.5364
18.5215
16.51
14.5106
12.5398
10.5787
8.61475
6.68034
4.77176
2.86433
0.94891
99.396
109.04
99.3376
92.5158
101.142
100.496
100.39
96.7698
92.2315
89.6016
86.9746
84.3874
81.8445
79.3268
76.8542
74.3913
71.9666
69.551
67.1399
64.7877
62.443
60.0893
57.7673
55.4609
53.1817
50.9034
48.6211
46.3748
44.1191
41.8878
39.6875
37.4738
35.2734
33.1016
30.964
28.8412
26.7091
24.611
22.5684
20.5453
18.5196
16.4942
14.4935
12.5304
10.5759
8.61672
6.68886
4.78588
2.87316
0.947376
99.6777
97.5044
101.542
102.071
99.9566
100.647
100.468
96.4658
91.8807
89.3926
86.8431
84.3076
81.797
79.3034
76.8501
74.3935
71.9703
69.5512
67.1337
64.774
62.4372
60.0833
57.7684
55.4714
53.1878
50.9171
48.631
46.3689
44.1107
41.872
39.6763
37.4653
35.2647
33.1035
30.9694
28.8436
26.7203
24.625
22.5728
20.5464
18.5133
16.4785
14.4794
12.5202
10.5718
8.62168
6.70526
4.81099
2.88348
0.950281
102.354
122.609
99.4594
103.218
98.6581
90.4178
97.6584
94.4441
91.4506
89.1689
86.7234
84.2422
81.7732
79.2924
76.8306
74.3821
71.963
69.5543
67.1352
64.7627
62.4228
60.0822
57.7669
55.4787
53.1924
50.9142
48.6367
46.3662
44.1132
41.8874
39.6766
37.4553
35.2587
33.1095
30.9705
28.8368
26.7249
24.6366
22.5738
20.5375
18.5059
16.477
14.4785
12.5201
10.5683
8.62385
6.71206
4.8105
2.88755
0.959598
95.4831
97.3871
98.7146
105.177
111.158
96.6878
97.059
94.4823
91.4474
89.1312
86.6829
84.2144
81.7549
79.2796
76.8019
74.3798
71.951
69.5408
67.1487
64.7563
62.4131
60.0775
57.7651
55.4798
53.1923
50.9191
48.6382
46.3621
44.1234
41.8934
39.672
37.453
35.2631
33.1162
30.9688
28.8262
26.7241
24.6473
22.5796
20.5322
18.5012
16.4833
14.4906
12.5231
10.5665
8.62598
6.71016
4.79957
2.88617
0.963419
94.6785
94.7964
98.6578
203.679
102.538
102.117
98.8597
94.048
91.655
89.2119
86.7371
84.2504
81.766
79.283
76.8164
74.382
71.9333
69.5251
67.1376
64.7635
62.4061
60.0702
57.7684
55.4745
53.1936
50.9179
48.6345
46.3614
44.1173
41.8924
39.6614
37.4538
35.284
33.122
30.962
28.8161
26.7182
24.6506
22.5832
20.5297
18.4991
16.495
14.5067
12.5235
10.5626
8.62704
6.70264
4.78868
2.87588
0.964299
91.9737
89.6888
83.865
85.6911
94.5209
97.7065
96.9324
94.2476
91.8478
89.3313
86.8196
84.2914
81.7722
79.2991
76.8244
74.3714
71.9328
69.5244
67.1363
64.7667
62.4096
60.0737
57.7722
55.4641
53.1838
50.914
48.6341
46.363
44.115
41.8936
39.6641
37.4614
35.2997
33.13
30.9518
28.8033
26.7091
24.6472
22.5863
20.5281
18.4989
16.5064
14.524
12.5249
10.5564
8.6304
6.70563
4.77702
2.86093
0.954908
97.9017
102.306
98.9752
95.7285
97.7868
101.461
98.9214
101.386
106.022
101.535
103.243
101.425
103.56
101.531
102.515
99.8556
99.9731
103.169
102.522
99.6048
99.9381
100.175
100.82
100.342
100.063
100.17
100.846
100.294
100.354
100.604
100.681
100.281
100.402
100.613
100.581
100.775
97.2386
98.3322
100.643
100.814
96.0242
98.336
96.939
95.4324
95.8103
90.7432
97.1811
94.6407
95.7945
97.0346
98.492
98.9247
101.282
97.068
98.4095
98.9318
98.7618
96.7626
98.626
102.908
98.7648
97.2368
98.7157
98.3807
97.9686
98.1136
97.6702
98.4172
97.5998
97.9494
97.7478
101.686
98.9109
96.2961
97.7049
99.7243
98.9211
101.43
103.635
101.53
102.272
101.415
105.076
101.53
102.519
99.5102
99.9885
103.416
102.512
98.3811
99.9395
100.185
100.878
100.134
100.297
100.157
100.777
100.326
100.372
100.575
100.648
100.398
100.347
100.536
100.625
100.819
96.528
98.4257
100.615
100.813
93.1262
98.2842
97.0801
93.6558
95.8442
90.1197
96.9276
92.2877
95.826
97.0163
98.4237
98.9346
95.223
97.0555
103.105
98.9393
98.7666
97.1942
98.7279
102.18
98.7699
97.3712
98.7292
98.4208
97.5349
97.9483
98.0233
98.4176
97.8385
97.9869
97.7072
99.9074
98.9319
97.3382
97.8155
102.219
99.005
101.407
105.773
101.531
101.381
101.364
107.739
101.532
102.51
98.6963
100.085
102.98
102.501
97.9352
99.9562
100.193
101.391
100.146
99.9394
100.152
96.8824
100.205
100.385
100.543
100.632
100.558
100.335
100.604
100.638
100.814
92.0655
98.4103
100.75
100.845
90.4311
98.3015
96.891
93.9722
95.8197
89.9685
96.8596
95.6339
95.8199
97.2285
102.084
98.9424
95.985
97.0206
104.549
98.9394
98.7708
97.2314
98.7578
105.009
98.7697
98.7104
98.6399
98.4117
98.1529
97.9387
97.7956
98.3752
97.195
98.1835
99.3576
113.976
89.7198
90.7695
94.9544
101.946
98.7326
97.9603
97.1334
97.538
101.958
97.3914
97.9575
97.1691
96.581
99.3004
97.3506
97.2213
96.591
99.3117
97.361
105.545
113.287
118.307
116.059
91.2869
121.266
109.149
104.305
102.175
107.364
104.023
102.133
106.666
104.549
97.9218
101.175
98.217
100.455
97.9318
101.198
98.2245
106.036
101.494
101.365
95.5132
105.283
96.5068
98.2616
100.432
103.343
97.499
104.92
103.305
98.3577
100.451
97.9673
100.184
97.5142
101.931
97.9785
100.151
97.5181
100.505
100.886
99.6017
101.441
100.65
100.291
99.4844
103.04
99.893
100.858
99.9331
99.9258
101.245
105.674
97.5583
100.433
98.2942
100.328
97.545
100.368
98.186
101.086
100.69
100.899
98.6997
100.369
100.685
100.146
100.298
100.272
100.856
100.932
100.212
100.837
100.303
98.7291
100.471
99.3704
100.468
98.6358
100.412
99.2312
98.9536
89.2911
128.741
103.594
98.6124
86.799
142.953
104.083
101.42
105.7
100.686
101.408
105.674
104.211
99.264
98.5473
97.2985
100.623
99.1633
98.5065
97.1759
62.7741
131.721
147.194
161.033
61.5421
222.465
154.901
92.1439
93.0969
91.1372
94.0075
93.1232
89.5606
92.1254
96.5129
96.5352
95.1984
97.7019
96.4162
96.5399
95.1838
108.926
99.7002
104.292
101.376
105.247
100.174
102.546
98.5989
97.0431
119.435
104.046
96.8257
108.96
99.2341
95.3597
98.7304
95.7728
97.0504
95.3636
98.7567
95.7816
120.563
83.6508
96.2302
91.8901
123.557
89.966
95.7407
99.7571
100.369
101.484
103.145
100.373
102.871
99.6293
96.0455
97.6503
95.8894
98.8605
96.0525
97.5018
95.8975
100.755
100.105
98.5812
92.04
98.6748
101.494
99.1992
97.657
97.9131
97.7505
97.3296
97.8976
97.8017
97.6529
96.0474
97.2202
96.3133
96.93
96.0571
97.2026
96.3236
95.3274
103.107
99.6653
100.817
91.5831
103.974
107.402
97.9923
96.7914
99.7954
95.9504
97.9036
100.022
96.901
96.5915
99.3124
97.3617
97.2135
96.5914
99.3144
97.3615
91.2119
118.422
107.983
117.706
83.5642
124.242
98.7535
104.442
101.826
106.596
102.82
104.105
101.781
104.586
97.9311
101.205
98.2217
100.447
97.9307
101.201
98.2219
98.6779
98.5869
99.5315
130.195
104.962
94.36
121.988
100.392
103.163
102.49
103.453
100.413
103.154
102.306
97.9769
100.14
97.5143
101.922
97.9763
100.132
97.5133
101.035
103.594
99.4269
100.119
100.673
100.906
99.4319
105.807
101.017
101.136
99.9202
103.159
100.643
101.44
97.5437
100.365
98.1776
100.312
97.5452
100.343
98.1736
100.263
100.7
99.9247
101.154
98.3808
100.543
99.5382
100.431
100.211
101.621
100.343
100.337
100.214
101.273
98.6213
100.561
99.2346
100.364
98.6126
100.463
99.247
97.9993
77.691
123.379
100.517
90.9075
206.076
-30.9313
104.042
101.406
108.435
100.705
104.067
101.423
107.877
99.1912
98.5782
97.1676
100.467
99.182
98.5676
97.1623
64.5504
88.2126
156.708
95.0425
70.71
88.7289
65.4589
92.6814
93.3399
91.2231
90.4448
92.5254
93.4498
93.0465
96.4045
96.5608
95.1816
97.6803
96.4024
96.5443
95.1807
111.24
115.645
102.651
95.0982
76.7614
100.731
100.049
98.5795
97.0371
110.151
98.4577
99.372
97.0798
109.507
95.3607
98.7618
95.7794
97.0491
95.362
98.7616
95.7786
126.37
86.6788
95.8812
100.091
98.7923
84.3533
101.968
99.5092
100.307
99.9782
102.56
100.542
100.252
101.405
96.0502
97.4883
95.8975
98.8669
96.0501
97.4983
95.8982
98.5065
98.4063
97.9205
93.2892
99.5771
99.2581
98.5935
97.6986
97.9329
97.4754
95.9627
97.7041
97.9381
97.4446
96.0573
97.1999
96.3243
96.9229
96.0571
97.1893
96.3244
88.4728
107.292
107.356
101.564
91.5438
106.115
101.471
98.2936
96.8457
100.673
96.8707
98.2649
100.525
96.6622
96.5908
99.3127
97.3606
97.2466
96.5807
99.2986
97.35
77.7023
122.19
103.786
126.992
90.1245
127.96
103.445
104.582
101.654
119.265
103.723
104.264
101.653
125.319
97.9306
101.199
98.2253
100.556
97.9199
101.17
98.2183
108.809
94.4075
108.976
119.19
109.053
96.0397
97.1207
100.941
103.198
102.146
103.215
100.728
103.176
103.114
97.9785
100.143
97.5175
101.888
97.9668
100.162
97.5134
100.645
101.148
99.4605
100.494
100.706
101.83
102.109
95.6564
99.1022
101.154
100.076
96.1211
99.0242
103.48
97.5474
100.348
98.1863
100.299
97.5606
100.411
98.2779
98.9082
100.813
100.027
105.064
100.104
101.99
101.282
100.443
100.227
100.224
100.682
100.417
100.252
100.265
98.6228
100.508
99.2673
100.393
98.737
100.489
99.3388
98.8839
109.039
14.0332
99.9792
98.4031
106.915
10.5369
103.896
101.413
109.024
100.662
104.047
101.423
106.302
99.1813
98.6119
97.1732
100.485
99.3048
98.6188
97.2875
190.266
106.529
201.613
108.519
102.826
105.922
76.9117
94.3205
93.8554
127.32
91.7863
93.68
94.0262
114.771
96.4146
96.5681
95.1818
97.6499
96.5112
96.5479
95.1962
96.1122
104.387
100.263
111.211
97.8166
102.809
100.103
98.5525
97.2376
101.483
95.4795
98.4619
97.2852
101.261
95.3646
98.7562
95.7813
97.0834
95.3608
98.7324
95.772
96.8398
102.909
103.322
102.912
96.2347
108.068
103.232
100.628
100.037
98.682
110.255
100.192
100.05
98.6985
96.0522
97.4841
95.8985
98.8197
96.0451
97.6431
95.8896
97.3363
97.1659
97.5247
95.514
97.5462
99.2531
105.042
97.7856
97.8859
97.9082
97.7117
97.7291
97.955
97.921
96.0567
97.2016
96.3238
97.0449
96.0467
97.2187
96.3136
98.114
97.4459
98.4698
97.823
98.3095
98.0907
97.3366
101.083
100.626
99.9434
102.095
101.09
99.2856
101.094
99.1187
99.0666
100.137
98.9542
99.0712
100.148
99.1173
97.9566
111.927
96.8336
97.2975
97.1378
97.9402
97.0127
98.1215
97.8238
97.3797
98.282
98.2455
98.1504
97.3316
101.075
103.106
97.2464
99.259
103.751
99.2862
100.268
99.1021
98.9375
98.9638
100.15
99.0202
100.152
99.0731
102.432
101.777
101.024
101.409
101.781
101.028
102.429
106.525
111.689
103.856
104.937
109.456
103.359
106.325
104.983
103.788
102.256
101.538
103.804
102.219
104.95
104.265
103.628
101.845
107.204
101.944
108.489
104.171
102.429
101.426
101.764
101.028
101.773
101.03
102.418
106.314
106.487
109.173
103.029
108.977
103.075
106.345
104.957
101.534
103.848
102.214
103.831
102.262
104.945
101.001
102.765
100.866
102.523
102.774
100.862
101.056
100.327
97.7164
99.0485
99.7012
97.5771
98.9229
100.373
100.577
100.71
99.9596
99.9627
100.708
99.9465
100.76
100.424
110.98
103.176
103.251
103.235
104.231
100.681
100.962
102.522
102.781
100.857
102.797
100.871
100.967
100.258
99.6563
97.4454
99.1259
97.4651
98.9014
100.222
100.617
100.011
100.758
99.9363
100.706
99.9474
100.639
100.551
100.433
100.252
100.191
100.474
100.266
100.598
100.41
99.4855
100.112
100.812
99.7746
100.113
100.437
100.22
100.177
100.027
100.339
100.18
100.004
100.213
104.58
100.095
101.275
101.188
101.309
100.961
104.956
101.064
100.173
100.221
100.183
101.339
100.255
100.137
100.352
100.815
99.9957
100.081
99.8688
100.095
100.43
100.157
100.352
100.153
100.053
100.24
100.035
100.104
100.554
100.32
100.456
100.36
100.3
100.461
100.64
100.589
100.321
101.115
100.609
100.331
100.979
100.588
100.575
100.541
100.898
100.658
100.512
100.857
100.562
100.685
100.276
100.211
100.758
100.2
100.969
100.36
100.535
100.435
100.284
100.417
100.314
100.602
100.478
100.609
100.626
100.168
100.96
100.339
100.962
100.562
100.53
100.812
100.468
100.857
100.654
100.857
100.503
102.164
101.276
101.019
100.757
101.235
101.017
102.192
105.697
113.912
97.0317
96.9355
112.947
97.0148
105.859
102.103
100.39
98.1325
98.3476
100.373
98.1312
102.108
104.107
100.673
101.397
105.344
101.392
105.493
104.112
102.159
100.97
101.235
101.016
101.242
101.168
102.146
106.061
96.7924
114.6
96.9713
116.086
96.9974
105.606
102.117
98.3144
100.351
98.1299
100.35
98.1384
102.104
94.8688
96.2121
95.7112
96.9937
96.1509
95.7119
94.8646
93.4541
93.7121
94.2204
94.9593
94.237
94.1636
93.5684
94.3047
95.7592
95.3178
95.8198
95.7709
95.2751
94.2932
92.255
97.8278
93.2682
91.4724
93.1959
95.0333
92.3949
94.8818
96.8832
96.0486
95.7064
96.1969
95.709
94.8976
93.2709
96.5843
120.126
94.0062
96.5896
94.1291
93.1729
94.3084
95.8661
95.7622
95.2977
95.8189
95.2975
94.3321
97.9482
97.2255
97.7152
97.0408
97.223
97.7233
98.8749
99.4019
101.827
100.318
98.5128
101.478
100.449
99.4183
98.429
98.3004
99.2819
98.9278
98.2997
99.2863
98.1777
101.248
121.126
97.0126
111.451
99.2163
109.937
98.8728
98.097
97.0969
97.2252
97.6777
97.2344
97.8621
98.2015
99.5233
98.3928
103.207
100.141
101.338
100.113
99.3668
98.4574
98.9337
98.3155
99.2913
98.3121
99.2756
99.6615
99.7207
99.9047
99.2074
98.7655
99.9304
99.2168
99.6457
98.5833
100.661
98.058
97.2312
100.84
98.0309
100.805
98.7004
97.7218
98.5891
98.6595
97.4494
98.5988
98.7258
99.9528
103.128
100.346
100.028
100.365
101.625
100.571
99.5585
98.7651
99.8892
99.2266
99.8919
99.2228
99.5268
98.6832
96.7696
102.002
98.1301
101.191
98.1726
98.6261
98.883
98.7023
97.5535
98.5999
97.7805
98.6003
98.8931
97.6822
98.0538
98.0282
98.3981
98.0616
98.003
97.6672
97.8516
99.4646
97.5835
97.9268
98.1212
97.8391
97.5857
97.7019
98.3493
97.6283
97.9901
98.2957
97.6838
97.6354
97.6473
99.0854
97.9172
97.4933
97.8959
97.6023
97.6711
97.6851
98.4089
98.0675
97.9684
98.0662
97.9824
97.6854
97.8579
97.9095
98.1419
97.5855
98.1344
97.8604
97.581
97.7146
97.9443
98.255
97.6417
98.2722
97.7205
97.6308
98.1434
97.3914
98.2463
97.7345
98.139
98.2255
97.3878
99.8511
101.724
99.6288
111.994
99.8979
101.249
99.6851
99.0071
98.9832
100.144
98.9095
99.0451
98.8756
100.135
98.1827
96.0743
96.9032
100.645
100.372
98.2528
96.9727
98.1283
97.7843
97.3626
98.236
98.2221
98.14
97.407
99.7458
99.6106
97.7521
99.5471
106.763
99.7798
102.559
99.0244
98.9151
98.8221
100.127
98.8431
100.129
98.9309
102.414
101.757
101.027
101.429
102.412
101.754
101.03
106.428
108.5
102.965
103.911
106.385
108.75
102.961
104.937
103.857
102.216
101.53
104.942
103.862
102.226
104.273
114.642
101.761
121.005
101.711
133.874
104.568
102.424
101.423
101.76
101.032
101.753
101.031
102.445
106.666
103.917
108.608
102.839
111.073
102.927
106.52
104.936
101.53
103.877
102.218
103.875
102.222
104.931
100.987
102.78
100.855
102.516
100.974
102.771
100.851
100.207
97.7288
99.0037
99.5698
100.167
99.8244
98.8615
100.749
100.819
99.9387
99.9571
100.671
100.789
100.01
100.438
103.405
103.171
102.254
103.23
102.297
100.582
101.005
102.514
102.707
100.837
102.74
100.847
101.016
101.626
99.648
100.824
98.9275
99.191
98.879
101.525
101.026
99.9568
100.816
100.064
100.77
99.9544
100.993
100.116
100.453
100.179
100.169
100.175
100.203
100.177
100.6
99.9323
100.071
100.892
100.913
103.129
100.085
100.136
100.171
99.9988
100.148
100.119
100.182
99.9991
102.752
99.9563
99.1636
101.362
100.596
101.418
105.377
100.072
100.164
100.253
100.111
100.252
100.148
99.8357
100.295
100.906
106.308
100.042
103.412
100.056
100.443
100.125
100.333
100.123
100.008
100.149
100.014
100.164
100.48
100.295
100.426
100.331
100.48
100.28
100.404
100.61
100.117
100.955
100.551
100.58
101.953
100.949
100.534
100.469
100.862
100.62
100.51
100.501
100.845
100.421
100.339
100.224
100.277
100.214
100.158
100.38
100.489
100.374
100.285
100.42
100.292
100.428
100.469
100.6
100.536
100.847
100.986
100.658
100.949
100.628
100.522
100.622
100.443
100.855
100.461
100.847
100.515
102.17
101.239
101.039
100.815
102.147
101.232
101.013
105.866
120.209
96.8765
102.854
105.708
115.751
96.8163
102.086
100.334
98.132
98.3823
102.095
100.334
98.0862
104.021
100.628
101.405
107.658
101.406
110.839
104.031
102.168
100.814
101.228
101.024
101.232
101.016
102.176
105.705
94.737
119.871
96.5173
117.363
96.5889
105.352
102.077
98.2933
100.343
98.094
100.346
98.0839
102.091
94.958
96.1538
95.7108
96.9459
94.9284
96.1035
95.71
92.5168
104.366
93.8765
92.8708
93.1212
86.7625
93.7344
94.3572
95.781
95.3167
95.792
94.3775
95.7551
95.3081
92.9027
90.2564
93.6964
89.8839
93.5519
92.5578
93.2521
94.9938
96.8369
96.0844
95.6933
96.2113
95.7303
95.0217
92.3347
92.4894
85.2004
93.4912
84.749
93.6161
92.7625
94.3717
95.8228
95.733
95.3366
95.7714
95.3882
94.367
98.033
97.2036
97.7154
97.026
97.9406
97.172
97.7264
99.2638
103.938
100.091
101.063
99.3642
101.954
100.047
99.5254
98.3186
99.3114
98.9352
98.7903
98.3264
99.3523
98.2821
95.0763
97.1855
111.443
97.1112
109.542
98.3136
97.9844
97.0289
97.1378
97.7891
97.1716
97.808
97.9569
99.3636
101.063
102.031
99.9522
101.896
100.011
99.414
98.9235
98.9374
98.3308
99.4417
98.3332
99.4086
98.8277
99.5608
99.9039
99.2291
98.7661
99.5447
99.927
99.2272
98.7475
103.029
98.1954
97.1068
98.6624
100.439
98.307
98.8409
97.5683
98.6003
98.7417
98.8677
97.6428
98.6
99.9483
102.219
100.08
98.7473
100.146
98.694
99.9897
99.5463
98.7684
99.9633
99.2209
99.9597
99.2253
99.48
99.0404
97.2377
100.876
99.2218
100.532
98.3248
99.1237
98.8151
98.7337
97.9032
98.5935
97.6058
98.5961
98.7875
97.6831
98.0656
97.9603
98.4209
97.6847
98.0616
97.9588
97.8555
98.1493
97.5918
97.6426
97.8552
98.1933
97.5925
97.7119
98.2488
97.6509
97.9483
97.7197
98.2457
97.6551
97.7084
99.1418
98.15
99.5112
98.4614
98.7275
97.7229
97.6804
98.4205
98.0508
97.9662
98.0562
97.9605
97.6783
97.8796
97.8191
98.2352
97.5887
98.2063
97.8693
97.5991
97.6995
97.9511
98.2249
97.6723
98.2381
97.6792
97.6527
98.1897
97.3838
98.2486
97.721
98.1676
98.2741
97.3571
99.9412
99.5683
99.773
99.7864
99.8596
99.6835
99.399
98.8771
98.9189
100.122
98.9512
98.9052
98.9794
100.119
98.3232
97.2363
96.8788
100.949
101.263
98.3623
96.8939
98.1632
97.7264
97.3299
98.4842
98.3248
98.1314
97.3182
100.137
104.34
110.33
99.8221
98.5101
99.3713
103.62
98.8663
98.9753
99.0523
100.105
99.0179
100.113
98.8754
102.491
101.773
101.031
101.399
102.466
101.78
101.033
106.46
108.624
103.337
108.322
106.651
108.518
103.035
104.919
103.872
102.218
101.532
104.923
103.863
102.227
104.985
102.408
101.785
114.279
101.759
115.305
104.452
102.513
101.381
101.778
101.024
101.783
101.032
102.514
106.535
110.862
110.66
102.986
108.759
103.021
106.672
104.921
101.535
103.846
102.24
103.852
102.245
104.918
101.052
102.702
100.841
102.509
101.044
102.697
100.838
100.948
105.801
98.8285
98.7773
101.022
102.711
98.7618
101.184
100.719
100.051
99.9517
100.995
100.806
99.98
101.328
102.781
103.242
118.05
103.266
113.504
101.437
101.113
102.509
102.706
100.838
102.698
100.839
101.091
100.849
98.0226
101.314
98.7387
101.015
98.7339
101.131
100.875
99.9452
100.802
99.9964
100.809
99.9745
100.88
99.7271
99.8621
100.151
100.16
99.7723
99.8585
100.121
99.926
100.505
100.034
103.129
99.8795
100.852
99.9935
100.174
100.184
100.004
100.192
100.151
100.156
99.9931
95.7382
99.7712
98.9878
100.919
99.0142
100.632
95.6374
99.6927
100.146
99.9278
100.112
100.021
100.116
99.6899
100.231
97.7327
100.888
100.084
101.955
99.979
100.111
100.261
100.247
100.157
100.016
100.148
100
100.217
100.464
100.313
100.462
100.338
100.479
100.281
100.423
100.588
100.832
100.978
100.541
100.597
100.921
100.947
100.569
100.565
100.856
100.63
100.518
100.473
100.849
100.434
100.557
100.292
100.307
100.265
100.281
100.436
100.468
100.325
100.295
100.463
100.282
100.424
100.618
100.593
100.679
101.318
101.025
100.877
100.947
100.595
100.537
100.633
100.514
100.858
100.473
100.866
100.527
102.166
101.228
101.021
100.818
102.175
101.216
101.014
104.901
110.211
96.4191
91.1742
105.126
108.852
96.3243
102.008
100.347
98.0719
98.3513
101.996
100.35
98.0568
103.894
100.672
101.439
105.667
101.431
105.864
103.863
102.167
100.821
101.226
101.039
101.217
101.016
102.167
104.897
90.6698
107.952
96.2985
108.219
96.3147
104.831
102.005
98.3026
100.357
98.0482
100.354
98.0487
101.994
95.0058
96.1972
95.7151
96.9493
95.0319
96.146
95.6844
94.373
110.665
93.9482
102.246
92.8245
111.307
94.8122
94.3378
95.7333
95.3392
95.8383
94.3533
95.7389
95.315
94.6363
89.9564
94.1251
110.996
94.107
107.484
94.7763
95.0193
97.0006
96.1639
95.7216
96.1942
95.688
95.0255
92.4907
94.7769
97.9888
93.827
93.9873
93.8586
92.872
94.3247
95.8195
95.7567
95.3374
95.7519
95.3044
94.3585
97.9574
97.1345
97.8955
97.0672
97.8287
97.1443
97.7288
99.4662
102.304
99.9672
108.235
99.4682
102.799
99.9984
99.7313
98.3369
99.5018
98.9391
100.116
98.3362
99.4698
98.5604
96.7691
97.3619