/*--------------------------------*- C++ -*----------------------------------*\
| =========                 |                                                 |
| \\      /  F ield         | OpenFOAM: The Open Source CFD Toolbox           |
|  \\    /   O peration     | Version:  5.0                                   |
|   \\  /    A nd           | Web:      www.OpenFOAM.org                      |
|    \\/     M anipulation  |                                                 |
\*---------------------------------------------------------------------------*/
FoamFile
{
    version     2.0;
    format      ascii;
    class       surfaceScalarField;
    location    "2.9";
    object      phi;
}
// * * * * * * * * * * * * * * * * * * * * * * * * * * * * * * * * * * * * * //

dimensions      [0 3 -1 0 0 0 0];

internalField   nonuniform List<scalar> 
25543
(
-1.51246e-09
-1.39345e-09
1.57049e-09
-1.45533e-09
-1.93966e-09
4.01133e-10
2.30822e-09
1.7129e-09
-5.19192e-09
6.37282e-09
-4.00847e-09
4.61347e-11
7.78444e-09
-1.09488e-08
2.1156e-09
-7.9066e-09
8.62892e-09
2.02279e-09
8.58655e-10
-2.34275e-09
2.39068e-11
1.79498e-10
3.26779e-10
-4.03435e-10
4.56126e-10
5.39732e-10
7.40883e-10
9.63945e-10
-2.82198e-09
-4.76823e-11
-8.6149e-13
3.24531e-11
1.85865e-11
1.38554e-09
-8.21744e-11
-2.66574e-11
-2.37389e-10
-2.48159e-10
-3.97163e-10
-4.10775e-10
1.39624e-09
-2.71975e-11
-5.4206e-13
1.4021e-09
-1.76911e-11
4.25563e-13
1.40296e-09
-9.50468e-12
-3.71243e-14
1.40405e-09
-5.66093e-12
-1.56631e-13
1.40504e-09
-3.40499e-12
1.44555e-14
1.40412e-09
-2.35359e-12
-1.39971e-12
1.40421e-09
-1.50505e-12
-4.45934e-14
1.4043e-09
-4.20418e-13
1.5708e-13
1.40467e-09
-5.89747e-13
-7.07537e-14
1.40526e-09
-6.21135e-13
-3.9159e-15
1.40452e-09
-1.30771e-12
1.62309e-12
1.40539e-09
-1.63547e-13
1.78047e-12
1.40521e-09
-1.44293e-13
6.08532e-14
1.40538e-09
1.92064e-13
-6.64315e-13
1.40512e-09
2.90331e-13
2.56518e-13
1.40535e-09
-3.91797e-13
1.31868e-13
1.40534e-09
2.65162e-14
4.50834e-13
1.40468e-09
-8.415e-14
1.30348e-13
1.40465e-09
8.34161e-14
1.26461e-13
1.40461e-09
-1.20459e-13
7.57764e-14
1.40449e-09
-3.81072e-13
-9.90076e-13
1.40436e-09
1.17681e-13
-3.44723e-13
1.4035e-09
-1.11389e-12
3.85187e-12
1.40359e-09
-9.40673e-13
2.82471e-12
1.40306e-09
-1.84015e-13
2.31885e-13
1.4044e-09
-2.95286e-12
1.42119e-12
1.40404e-09
1.49223e-13
-9.26359e-16
1.40324e-09
5.12139e-13
5.70339e-13
1.40262e-09
3.12876e-13
5.07378e-13
1.4024e-09
6.65113e-13
-7.8643e-13
1.40381e-09
-2.51398e-12
6.50892e-13
1.40313e-09
3.82308e-13
1.1067e-13
1.40304e-09
-3.01362e-15
9.65779e-14
1.40284e-09
-3.99247e-14
5.04631e-14
1.40282e-09
-3.25249e-13
6.93194e-14
1.40184e-09
2.70727e-12
-1.22268e-12
1.40136e-09
-1.37419e-13
2.73211e-13
1.40235e-09
-8.24267e-13
-3.9544e-13
1.40282e-09
-5.44241e-13
-4.78653e-14
1.40245e-09
2.67992e-13
1.46101e-13
1.40183e-09
-4.30948e-13
8.48424e-13
1.31242e-12
-1.1705e-12
8.61562e-10
4.12269e-10
-1.85424e-09
7.71383e-10
1.41814e-09
2.30654e-09
2.78638e-09
-1.24433e-09
-2.03234e-09
-2.45576e-10
6.52949e-10
-1.28364e-07
4.73726e-08
1.3048e-07
-5.31302e-08
8.53287e-10
2.06126e-09
-1.4276e-09
1.36665e-09
-5.53287e-09
-2.63351e-08
-2.56984e-08
5.47009e-08
2.00281e-11
3.50699e-09
-1.00439e-09
2.52991e-10
-6.77653e-09
2.03616e-09
2.86122e-09
-8.96449e-10
-4.98715e-10
-2.69386e-09
1.1402e-09
2.51771e-09
-4.65345e-10
-5.7361e-10
-3.83811e-10
5.03755e-10
3.84267e-10
6.93989e-11
-8.89928e-11
3.89009e-12
-9.862e-12
6.43241e-11
3.06407e-11
1.46036e-09
-3.83108e-12
-3.5967e-11
-2.64036e-10
-2.86302e-10
-4.2891e-10
-4.84861e-10
-1.29897e-11
-5.65245e-12
-1.99384e-11
1.4226e-09
1.33831e-11
-2.65574e-12
1.41479e-09
-9.36299e-12
-2.94757e-13
1.40989e-09
-4.22985e-12
-1.51047e-13
1.40756e-09
-3.23409e-12
9.11726e-14
1.40597e-09
-2.08828e-12
4.61428e-13
1.40539e-09
-1.50366e-12
-6.99088e-14
1.40507e-09
-9.1861e-13
-8.0146e-14
1.40454e-09
3.99862e-13
-9.7977e-14
1.40483e-09
-6.93979e-13
-1.26183e-14
1.40496e-09
-2.77062e-13
-3.31267e-13
1.40575e-09
-5.06279e-13
-1.47263e-12
1.40545e-09
3.87496e-13
-1.58541e-13
1.40528e-09
1.80747e-13
-1.09786e-13
1.40497e-09
-7.69567e-14
5.87392e-13
1.40514e-09
2.84263e-14
7.67728e-14
1.40542e-09
3.734e-13
-1.09609e-12
1.4051e-09
-1.06778e-13
3.82041e-13
1.40495e-09
-4.3484e-15
-3.08555e-14
1.40488e-09
1.63899e-14
2.71687e-14
1.40469e-09
8.70045e-14
-1.34194e-13
1.40371e-09
-9.2139e-13
1.39265e-12
1.40362e-09
2.54024e-13
-1.79239e-13
1.40392e-09
2.91069e-13
-1.83597e-12
1.40396e-09
5.5392e-13
-1.66354e-12
1.405e-09
-3.46738e-12
2.11897e-12
1.4038e-09
-2.75763e-12
8.69633e-13
1.40366e-09
2.48459e-13
-7.71468e-14
1.40372e-09
2.12378e-13
1.11219e-13
1.40373e-09
1.37883e-13
5.06201e-14
1.40351e-09
1.0648e-13
6.65026e-13
1.40216e-09
-9.85251e-13
-2.95366e-13
1.40237e-09
6.95292e-14
-3.24202e-15
1.4025e-09
-1.91269e-13
-3.51955e-14
1.40222e-09
-8.10382e-15
1.56915e-13
1.40182e-09
-5.15773e-13
5.10009e-13
1.40313e-09
5.96975e-14
1.26787e-12
1.40303e-09
-5.83711e-14
-4.29126e-14
1.40194e-09
-1.43531e-13
3.53104e-13
1.40197e-09
-1.52612e-12
9.19359e-13
1.40187e-09
4.07131e-13
-7.4585e-14
1.40219e-09
1.84146e-13
-9.60231e-13
-1.52379e-13
1.21157e-12
7.19018e-10
-2.55284e-09
-4.77065e-10
2.33585e-09
3.17982e-09
7.74421e-10
8.91163e-10
-6.47718e-09
1.63178e-09
7.19581e-10
-2.50387e-09
1.69115e-09
1.18323e-09
-1.09008e-09
2.10859e-09
-1.14696e-09
9.09214e-10
-1.54507e-09
-3.25765e-10
2.84478e-09
-3.07241e-09
-3.18085e-09
2.75048e-09
6.57999e-10
4.12641e-10
-2.06704e-10
4.80025e-10
-3.55377e-10
-3.30596e-10
-1.33909e-10
3.1777e-12
7.50686e-11
-9.94965e-11
1.55159e-10
-3.802e-11
2.13122e-10
1.76602e-13
-6.83484e-12
-3.70844e-11
-6.83518e-11
-6.68215e-11
1.4187e-09
-1.44612e-12
-2.39731e-11
-2.59742e-10
-2.63022e-10
-4.24364e-10
-4.32691e-10
1.41529e-09
-3.1325e-12
-2.61931e-12
1.41148e-09
-5.69416e-13
3.79045e-13
1.40906e-09
-1.63671e-13
-4.46308e-13
1.40775e-09
8.5017e-14
-6.59838e-13
1.40645e-09
7.19457e-14
-7.67975e-14
1.40567e-09
1.13961e-13
-4.6342e-14
1.40615e-09
3.75639e-14
7.15399e-14
1.40573e-09
7.21094e-14
-1.78808e-13
1.40549e-09
-6.57623e-13
7.69995e-13
1.40462e-09
6.81265e-13
-1.94027e-13
1.40546e-09
-4.94263e-13
1.19677e-13
1.40479e-09
1.12705e-12
-2.23141e-13
1.40511e-09
-3.83598e-13
-9.1653e-16
1.40528e-09
-1.83854e-13
2.45491e-14
1.40464e-09
-1.27896e-13
1.09241e-12
1.40472e-09
-2.55198e-13
-5.04056e-15
1.40471e-09
-1.85393e-13
9.1285e-14
1.40448e-09
5.5257e-14
8.99711e-14
1.40403e-09
-1.01907e-13
5.15218e-13
1.4044e-09
6.1253e-13
-2.02276e-12
1.40497e-09
8.90873e-13
-1.3371e-12
1.4046e-09
4.71565e-13
5.79885e-14
1.40539e-09
6.00862e-13
-9.71346e-13
1.40386e-09
-4.06969e-14
-2.01909e-12
1.4034e-09
2.6748e-13
-2.69473e-12
1.40334e-09
2.94751e-13
-1.06438e-13
1.40338e-09
-1.71746e-13
2.23371e-13
1.40338e-09
3.46554e-14
-1.58695e-14
1.40302e-09
9.17479e-14
2.55569e-13
1.4025e-09
-2.45848e-13
-3.34618e-13
1.40262e-09
-1.87609e-14
-1.32869e-13
1.40192e-09
-1.63904e-13
5.70113e-13
1.40239e-09
-1.90509e-13
-3.74353e-13
1.40247e-09
-3.88593e-12
3.20537e-12
1.40328e-09
-2.39597e-12
1.5814e-12
1.40281e-09
-1.37428e-14
3.61455e-13
1.4025e-09
-1.06599e-13
2.21304e-13
1.40191e-09
-1.15471e-13
-8.63908e-13
1.40176e-09
5.40134e-13
-1.78725e-14
1.40161e-09
2.39707e-13
7.66176e-14
-1.37634e-12
5.91711e-13
1.48579e-09
-1.48375e-09
-5.87378e-09
2.09676e-09
3.98704e-10
-1.27423e-09
-1.45857e-09
-5.14103e-09
-2.79296e-09
-3.19688e-09
1.74786e-08
-3.664e-09
4.79996e-09
9.49205e-10
3.1092e-09
2.52439e-09
-5.097e-09
2.24226e-09
7.72017e-10
1.97239e-09
-5.53699e-09
-4.63173e-10
8.98654e-10
3.1721e-10
-2.02367e-10
-3.4266e-09
-5.34094e-10
-7.20807e-10
2.46809e-09
2.21341e-09
4.97171e-09
1.22738e-09
-2.68135e-09
-2.33578e-09
-1.18195e-09
-1.51867e-10
-8.44483e-10
1.90603e-10
-1.1994e-10
9.25686e-10
-5.16443e-11
-2.37099e-11
3.01999e-11
-5.35216e-11
9.86763e-11
-3.9633e-11
2.09708e-10
-4.23574e-12
1.51044e-11
-3.73842e-11
-7.32099e-11
-6.77925e-11
-2.55639e-12
1.42824e-09
-3.64674e-12
-2.36708e-11
-2.65248e-10
-2.67105e-10
-4.32896e-10
-4.37056e-10
1.41958e-09
8.79687e-12
-3.03018e-12
1.41355e-09
5.25119e-12
4.3809e-13
1.40973e-09
3.96408e-12
-9.01871e-14
1.40768e-09
2.38196e-12
-3.37256e-14
1.40645e-09
1.58309e-12
-7.16378e-14
1.40567e-09
1.16766e-12
-6.74207e-14
1.40522e-09
7.96698e-13
-1.17553e-13
1.40507e-09
4.17559e-13
-2.16065e-14
1.40491e-09
2.39242e-13
-5.86433e-13
1.40537e-09
3.37431e-13
-8.33637e-16
1.405e-09
-6.23432e-14
2.61128e-14
1.40572e-09
1.80154e-13
2.77965e-13
1.40536e-09
1.04147e-14
-1.9785e-14
1.40535e-09
-7.87664e-14
-1.2157e-13
1.40542e-09
2.46015e-13
-4.91562e-13
1.40492e-09
5.32208e-14
1.21062e-13
1.40476e-09
-6.54555e-14
-5.05192e-14
1.40466e-09
4.63151e-14
5.87924e-15
1.40481e-09
9.13251e-13
-1.27827e-12
1.40513e-09
1.20291e-12
-1.03191e-12
1.40421e-09
-8.60367e-14
1.76829e-12
1.40403e-09
5.71932e-13
-5.5777e-14
1.40395e-09
6.55021e-13
-9.77941e-14
1.40377e-09
-5.44306e-14
6.77585e-14
1.40368e-09
8.61768e-14
1.37171e-13
1.40373e-09
-5.7407e-14
1.79851e-13
1.40341e-09
-1.33206e-13
1.60763e-13
1.40334e-09
-8.29512e-14
7.31121e-14
1.4031e-09
2.45525e-13
-3.66205e-14
1.40265e-09
-3.0327e-13
3.99466e-13
1.40231e-09
-5.21764e-13
7.33838e-13
1.40251e-09
-2.44984e-13
-2.15924e-13
1.40332e-09
-3.50112e-13
-7.39693e-13
1.40263e-09
1.82237e-13
-3.46421e-12
1.40228e-09
2.48802e-13
-2.36601e-12
1.40252e-09
1.30035e-13
-4.37688e-13
1.4026e-09
-3.92236e-14
-2.06815e-13
1.40242e-09
1.40665e-12
-1.37982e-12
1.40134e-09
1.51588e-12
7.87219e-14
1.40152e-09
5.38179e-15
2.51101e-14
-1.9343e-12
6.2829e-13
-4.28245e-09
-6.64002e-09
-2.69936e-08
2.21452e-09
-1.67407e-09
6.13025e-09
3.69683e-08
7.16035e-09
-1.29861e-08
-7.79402e-10
-2.66835e-09
3.25049e-10
5.89415e-10
-2.10128e-10
-9.21375e-10
-6.17701e-10
-4.41694e-10
-2.63852e-10
3.02442e-10
4.54163e-10
-5.10614e-11
2.21212e-09
-5.26151e-10
-4.24934e-09
2.14031e-09
-5.73805e-09
-9.24235e-09
1.32536e-08
2.14687e-09
-1.63367e-09
-2.28825e-09
3.84692e-09
2.95162e-10
-2.30397e-11
-6.34952e-10
-3.95073e-10
8.32905e-10
3.72126e-11
2.3979e-10
-2.73298e-10
-8.65229e-11
8.28203e-11
-7.64995e-11
-1.79462e-11
-7.72249e-12
1.6283e-11
8.58856e-11
-4.8664e-11
1.9159e-12
-7.42122e-13
1.73245e-11
3.01657e-11
1.43283e-09
3.98353e-11
-3.45936e-11
-2.66397e-10
-2.67577e-10
-4.51881e-10
-4.55771e-10
1.41952e-09
2.38271e-11
-1.4312e-12
1.4118e-09
1.31124e-11
8.77946e-14
1.40755e-09
8.50039e-12
-6.52017e-14
1.4069e-09
2.6939e-12
5.51508e-13
1.40622e-09
2.55376e-12
-7.08485e-14
1.40516e-09
3.71077e-12
-1.28273e-12
1.40468e-09
2.7995e-12
-1.32045e-12
1.40475e-09
5.21197e-13
1.89711e-16
1.40474e-09
6.30995e-13
-2.34086e-13
1.4047e-09
4.00383e-13
9.61382e-14
1.40548e-09
7.75335e-13
-1.52915e-12
1.40535e-09
3.98721e-13
-4.88329e-14
1.4057e-09
-4.41581e-13
1.14526e-13
1.40537e-09
2.30981e-13
9.42592e-15
1.40525e-09
-1.12018e-13
4.33647e-13
1.40523e-09
-7.65252e-15
1.10358e-14
1.40529e-09
-3.08629e-13
9.197e-14
1.40519e-09
1.20451e-13
-7.92664e-14
1.40468e-09
2.59312e-13
1.04981e-12
1.40361e-09
6.27009e-13
1.52357e-12
1.40465e-09
-2.13841e-12
8.84933e-13
1.40479e-09
4.51875e-13
-1.47605e-13
1.40368e-09
1.63004e-12
2.34533e-15
1.40368e-09
1.20246e-13
-2.99295e-13
1.40372e-09
-1.07089e-13
3.04979e-14
1.40324e-09
-3.33731e-13
6.30635e-13
1.40316e-09
-1.0555e-13
-7.07418e-14
1.40327e-09
-2.67707e-13
-4.82262e-14
1.40257e-09
1.09912e-12
-2.6685e-13
1.40269e-09
-2.80581e-13
-2.53225e-13
1.40286e-09
-1.65938e-13
-6.37504e-13
1.40289e-09
-5.52367e-13
1.84893e-13
1.40286e-09
-2.00521e-12
1.58946e-12
1.40271e-09
2.82257e-13
-2.93061e-14
1.40221e-09
1.8934e-13
4.84821e-13
1.40239e-09
-1.8429e-13
7.80568e-14
1.4028e-09
-5.6319e-13
5.63767e-14
1.40288e-09
-1.39093e-12
2.67653e-12
1.40119e-09
3.46709e-12
-2.93654e-13
1.40156e-09
-9.01323e-13
5.16632e-13
-1.73091e-13
-9.47185e-13
-2.14033e-09
-3.05241e-09
5.19571e-09
-6.44889e-11
-2.82514e-11
-3.42538e-09
-1.81333e-08
-3.2025e-08
4.84445e-08
-4.76057e-09
-3.92063e-09
4.23057e-09
2.31051e-09
9.01592e-09
2.29849e-09
-2.79513e-09
-7.00734e-09
-1.51599e-10
-2.92315e-10
-4.93736e-10
-5.74284e-10
-2.21364e-09
-1.01623e-09
-1.19608e-10
1.40509e-09
1.9444e-09
2.52749e-10
-6.94197e-11
9.75961e-10
8.01096e-11
-1.23939e-09
1.92228e-11
4.51745e-10
2.28136e-10
-9.87908e-11
-6.00313e-10
-1.47436e-10
-3.22657e-11
1.85348e-11
3.79843e-11
1.23182e-10
-7.14995e-11
-1.65781e-12
1.71573e-12
3.99698e-11
3.14717e-11
1.40093e-09
5.6168e-11
-3.20457e-11
-2.60892e-10
-2.51995e-10
-4.44829e-10
-4.27367e-10
1.40298e-09
2.34469e-11
-1.39531e-12
1.40241e-09
1.36916e-11
2.07289e-13
1.40356e-09
7.70335e-12
-1.4661e-13
1.40291e-09
4.2586e-12
-6.91601e-13
1.40311e-09
2.62146e-12
-5.67242e-14
1.4041e-09
1.74128e-12
1.18654e-12
1.40474e-09
1.15645e-12
1.19895e-12
1.40478e-09
6.86955e-13
-2.43774e-14
1.40509e-09
6.63493e-13
-1.91907e-13
1.40556e-09
8.03844e-14
-3.14237e-14
1.40487e-09
1.32783e-13
1.41344e-12
1.40546e-09
6.53185e-13
-7.98604e-13
1.40511e-09
1.01026e-14
-8.89213e-14
1.4053e-09
-5.27061e-13
5.50443e-13
1.40498e-09
3.54858e-14
1.3006e-13
1.40479e-09
5.40061e-14
6.35179e-14
1.40553e-09
1.01342e-12
-2.15028e-12
1.40549e-09
6.90023e-14
-1.01004e-14
1.40547e-09
3.27049e-13
-1.65183e-13
1.40582e-09
2.51295e-13
-1.0332e-13
1.40283e-09
5.05878e-12
-4.33406e-12
1.40306e-09
-1.03342e-12
1.12738e-12
1.40399e-09
4.43432e-14
5.34503e-13
1.40366e-09
7.63877e-14
2.40341e-13
1.4034e-09
2.54612e-13
-2.29209e-13
1.40335e-09
8.25923e-13
-1.23037e-12
1.40319e-09
6.4139e-14
-1.29259e-13
1.4028e-09
-1.77091e-13
1.74516e-13
1.40315e-09
9.98212e-14
5.31732e-13
1.4028e-09
-5.60248e-13
5.15986e-13
1.40322e-09
-9.8143e-13
2.95934e-13
1.40335e-09
-3.03661e-13
-4.83536e-13
1.40214e-09
-4.79801e-13
-4.08748e-13
1.40249e-09
-9.79091e-14
-4.62339e-14
1.40184e-09
2.99808e-13
4.6338e-13
1.40179e-09
-2.43415e-13
5.47634e-14
1.40151e-09
-2.4063e-13
-9.50508e-14
1.40133e-09
1.44136e-12
-2.68989e-12
1.40332e-09
1.14972e-12
2.94978e-13
1.40302e-09
-4.994e-13
-1.27761e-13
-8.59233e-13
2.02353e-12
-2.38434e-09
-3.42884e-09
-7.47893e-09
9.40615e-10
-1.57814e-09
1.75133e-09
1.94564e-08
1.04456e-09
-9.96881e-09
-4.51765e-10
1.04663e-08
4.55058e-09
-1.69496e-08
-1.98621e-09
1.97207e-10
-1.6059e-08
-2.64256e-09
2.61225e-09
-3.42015e-09
2.55803e-10
2.52473e-09
-1.95357e-10
2.09498e-09
3.43408e-09
8.73572e-10
2.90567e-09
1.54325e-09
-1.57229e-09
-2.0183e-09
-1.93747e-09
1.06921e-09
7.07858e-09
5.24059e-09
5.22647e-11
-1.3645e-09
9.13903e-10
-1.58785e-09
7.16146e-10
9.37356e-09
-4.00685e-09
4.22837e-10
1.40953e-09
1.00808e-09
-1.09997e-09
-3.53512e-08
-4.16935e-08
5.8278e-08
1.09384e-08
4.01808e-10
4.56601e-09
-1.66387e-10
3.92324e-10
-5.19383e-09
-2.07747e-11
-4.54974e-11
2.90605e-11
-4.91534e-11
8.63651e-11
-4.26036e-11
-4.07958e-12
1.72154e-10
4.53073e-12
6.21563e-11
-4.03362e-11
-6.79073e-11
-6.46883e-11
-6.4877e-12
-5.0665e-12
-7.66819e-12
1.3603e-09
-4.84363e-12
-1.83245e-11
-2.4347e-10
-2.41275e-10
-3.98013e-10
-3.98071e-10
1.38176e-09
4.56598e-12
-2.3178e-12
1.39192e-09
3.15707e-12
5.84524e-13
1.39732e-09
2.5997e-12
-9.48604e-14
1.40015e-09
1.6538e-12
-1.35102e-14
1.40195e-09
1.07633e-12
-4.87704e-14
1.40304e-09
1.02559e-12
-1.64377e-13
1.40394e-09
4.94571e-13
-4.4726e-14
1.40452e-09
3.38972e-13
-5.99293e-14
1.40439e-09
6.08267e-13
3.37746e-13
1.40528e-09
-5.69664e-13
-1.27102e-13
1.40535e-09
1.19524e-13
3.4994e-14
1.40515e-09
7.05191e-15
8.91103e-13
1.40529e-09
-6.38558e-14
-5.03555e-14
1.40522e-09
1.26083e-13
-6.00781e-13
1.40531e-09
-1.15209e-14
-9.19104e-14
1.40532e-09
1.30458e-13
-1.51962e-13
1.4045e-09
-4.60773e-13
2.2105e-12
1.40468e-09
-5.51296e-13
3.3314e-13
1.40514e-09
-4.66839e-13
2.19563e-13
1.40311e-09
4.97177e-12
-2.82022e-12
1.40445e-09
3.83208e-13
3.21067e-12
1.40446e-09
-3.14811e-13
-8.61481e-13
1.40398e-09
-1.50351e-13
5.43941e-13
1.40378e-09
7.32736e-14
7.66748e-14
1.40372e-09
-4.6157e-14
2.39286e-13
1.40367e-09
-1.08796e-13
8.52885e-13
1.40338e-09
8.88319e-14
1.43805e-13
1.40321e-09
-5.62096e-14
-6.81656e-14
1.4031e-09
-2.4682e-13
3.4199e-13
1.40288e-09
-5.39412e-14
-4.04188e-13
1.40286e-09
-1.26884e-12
2.03071e-13
1.40259e-09
-2.0124e-13
7.43151e-14
1.4024e-09
-2.2284e-13
-1.64523e-13
1.40208e-09
3.44544e-14
1.08201e-13
1.40206e-09
2.48132e-13
4.46557e-15
1.40193e-09
-2.34851e-13
5.78308e-14
1.40165e-09
-2.50686e-14
1.14304e-14
1.40192e-09
-7.26111e-13
1.85493e-12
1.40237e-09
6.7401e-13
-1.58457e-15
1.40254e-09
-1.44523e-13
-5.4533e-13
-1.80194e-13
-1.49165e-12
-2.18526e-09
-4.0812e-09
6.34969e-09
-4.66025e-09
3.4479e-09
-9.10973e-10
-1.18205e-10
-7.71225e-10
-3.19077e-09
1.89506e-09
-2.76612e-09
-4.31376e-09
2.82587e-09
3.17711e-09
4.82063e-11
5.13019e-10
7.12914e-10
3.15715e-09
-1.22034e-09
4.49948e-09
-2.55125e-10
-3.4222e-10
-8.44928e-10
-3.22835e-09
-1.76567e-09
-7.72038e-09
-2.62373e-09
4.13991e-09
5.38722e-09
8.16977e-10
2.3727e-09
-1.28044e-09
2.94661e-09
-1.1332e-09
-2.90562e-09
-7.89542e-11
5.95684e-11
-5.49205e-11
-1.8761e-11
9.30669e-11
-3.32423e-11
1.27894e-11
1.78336e-10
-1.02972e-11
9.13098e-12
-3.22267e-11
-6.33332e-11
-6.11563e-11
1.36714e-09
-3.70061e-11
-2.47074e-11
-2.46225e-10
-2.44707e-10
-4.1086e-10
-4.0838e-10
1.38212e-09
-8.10162e-12
-2.14308e-12
1.39087e-09
-5.83171e-12
4.32043e-13
1.3961e-09
-2.33696e-12
-8.309e-14
1.39918e-09
-1.18331e-12
-3.33635e-14
1.40118e-09
-6.65781e-13
-6.07679e-14
1.40284e-09
-6.70309e-13
2.41142e-13
1.4038e-09
-2.43702e-13
-3.49241e-14
1.40394e-09
5.20203e-13
-1.47913e-13
1.40451e-09
-8.83641e-14
2.76079e-13
1.40491e-09
1.12993e-12
-1.98735e-12
1.40541e-09
-3.02305e-13
6.876e-15
1.40532e-09
1.44468e-13
6.40016e-15
1.40526e-09
2.63496e-13
-2.50864e-13
1.40526e-09
1.13409e-12
-1.02601e-12
1.40525e-09
-9.15398e-14
3.99869e-14
1.40482e-09
-7.46991e-13
1.23511e-12
1.40469e-09
-3.02956e-13
-1.18787e-13
1.40435e-09
2.37435e-14
-3.36165e-13
1.40334e-09
9.94625e-13
-5.74226e-13
1.40476e-09
5.62207e-13
2.8718e-12
1.40464e-09
6.63024e-13
-2.95438e-13
1.40494e-09
-1.91366e-12
1.1723e-12
1.40463e-09
2.52232e-14
5.34594e-15
1.40361e-09
1.2078e-12
-2.47954e-13
1.40354e-09
-1.87826e-13
8.63436e-14
1.40353e-09
-1.2014e-13
-1.07854e-13
1.40334e-09
7.33642e-13
-5.76589e-13
1.40307e-09
-2.31137e-13
3.249e-13
1.40314e-09
-2.52017e-13
-1.76247e-13
1.40318e-09
-1.84435e-13
-2.66717e-14
1.40251e-09
-2.9309e-13
-4.03909e-13
1.40231e-09
2.17063e-13
-3.20357e-13
1.40214e-09
-2.67962e-13
1.22767e-13
1.40232e-09
-9.61297e-14
-1.34823e-13
1.40242e-09
2.0564e-13
-1.20249e-13
1.40208e-09
3.22303e-14
7.8893e-15
1.40156e-09
4.27185e-13
1.61783e-14
1.402e-09
-1.04098e-12
-1.66511e-13
1.40188e-09
4.88153e-13
2.72842e-13
1.40303e-09
-2.74593e-12
1.43794e-12
-3.10594e-13
-4.9964e-13
-5.00199e-09
-5.8497e-09
1.29815e-08
-1.09418e-09
-5.4255e-09
1.69781e-09
-5.8819e-09
-3.15969e-09
3.99432e-09
4.53282e-11
1.07832e-09
1.06002e-09
5.6846e-11
-2.92984e-09
7.3466e-10
-1.89825e-09
1.12794e-10
-1.2212e-09
8.21868e-10
2.18478e-09
1.05133e-10
-6.55067e-10
-9.42151e-10
-3.05609e-10
1.7977e-09
2.86381e-10
-1.85835e-09
4.51796e-10
-2.26697e-11
1.14284e-09
-9.24906e-11
3.2939e-11
-5.52479e-12
-3.72928e-11
1.02369e-10
1.41317e-09
1.30903e-11
-3.14916e-11
-2.58189e-10
-2.55647e-10
-4.42242e-10
-4.42057e-10
2.46582e-12
-3.03248e-12
7.16394e-12
-3.24931e-12
1.39416e-09
-1.65949e-11
-1.32173e-12
1.39515e-09
-8.54063e-12
-3.48724e-13
1.39659e-09
-6.95461e-12
-9.73515e-14
1.39876e-09
-4.21292e-12
-8.83763e-14
1.40041e-09
-2.5618e-12
-8.16144e-14
1.40195e-09
-1.96048e-12
-4.82881e-14
1.40275e-09
-1.07239e-12
-2.09191e-13
1.40373e-09
-1.36748e-12
3.32793e-13
1.40465e-09
-2.92117e-13
5.61066e-14
1.40511e-09
2.06371e-13
-6.00043e-13
1.40467e-09
-2.38748e-13
1.91992e-12
1.40481e-09
2.79412e-13
-6.34711e-13
1.40511e-09
-4.3682e-14
-5.70119e-14
1.40497e-09
3.97065e-13
2.17635e-14
1.40513e-09
-1.56803e-13
1.11504e-12
1.40487e-09
1.18552e-13
-4.68858e-15
1.40512e-09
1.80893e-14
-1.08399e-12
1.40499e-09
-3.94533e-13
1.2484e-13
1.40462e-09
-1.93142e-13
4.82059e-13
1.40487e-09
-2.92282e-14
6.54101e-13
1.40485e-09
3.29655e-13
1.28031e-13
1.40455e-09
1.44064e-13
6.87814e-13
1.40381e-09
-9.82943e-14
-1.21267e-12
1.40359e-09
1.62821e-13
-4.67721e-14
1.40432e-09
1.03068e-12
-6.82733e-13
1.40337e-09
-6.64298e-14
6.98754e-13
1.4033e-09
-8.91528e-14
-8.34412e-14
1.40326e-09
1.24931e-15
6.47227e-13
1.4032e-09
-1.38099e-13
-1.46185e-13
1.40341e-09
-3.79365e-13
-2.01609e-13
1.40291e-09
8.82267e-13
-6.8253e-13
1.40285e-09
-2.97269e-13
-3.69142e-14
1.40269e-09
-2.17104e-13
4.94938e-13
1.40232e-09
-1.68904e-13
1.76177e-13
1.40228e-09
-1.25788e-13
-1.12172e-14
1.40194e-09
4.15363e-13
6.20913e-14
1.40256e-09
-1.0672e-12
4.16218e-13
1.40287e-09
-2.50162e-13
3.21178e-13
1.40155e-09
4.3777e-13
-1.99239e-13
1.40175e-09
3.96801e-13
-1.38039e-13
1.40186e-09
1.10546e-12
-3.98747e-12
-1.6401e-12
-7.52577e-14
1.40716e-08
-1.2236e-08
3.77496e-09
-4.80153e-10
2.47257e-09
5.6591e-09
3.70149e-09
5.40726e-10
-1.57972e-09
3.28611e-10
1.53134e-09
-7.03843e-10
2.1058e-09
-1.00878e-09
2.17868e-09
-2.11144e-10
8.30529e-10
5.83683e-10
4.46222e-09
5.37861e-09
-6.64814e-10
-6.66581e-10
-6.16986e-09
-1.84427e-09
-4.25738e-10
-6.95694e-11
3.49129e-10
1.55104e-09
1.77856e-10
-2.12752e-10
-5.98813e-10
-1.3142e-09
-5.02175e-10
4.35606e-08
6.77517e-08
-1.03433e-07
-7.32969e-09
2.91313e-10
-2.98346e-10
-1.3777e-10
1.46579e-10
-1.77985e-12
-1.11428e-10
-3.80075e-12
7.29298e-13
8.74702e-11
2.70295e-11
1.3932e-09
-2.89293e-11
-2.48463e-10
-2.45731e-10
-4.24087e-10
-4.15976e-10
1.39469e-09
-5.91319e-13
1.39807e-09
1.32983e-14
1.40014e-09
1.23927e-13
1.40106e-09
3.04536e-14
1.40134e-09
-6.98239e-15
1.40326e-09
1.24668e-12
1.40416e-09
-5.38279e-14
1.40403e-09
-6.30613e-13
1.40441e-09
2.29892e-14
1.40484e-09
1.62422e-13
1.40543e-09
-1.2947e-13
1.40463e-09
-1.20918e-12
1.40491e-09
5.3355e-14
1.4053e-09
3.3485e-13
1.40495e-09
-1.53195e-13
1.40495e-09
2.26566e-14
1.40509e-09
-7.67531e-13
1.40507e-09
4.12115e-15
1.40476e-09
-3.42926e-13
1.40453e-09
-9.20389e-15
1.40487e-09
1.17891e-12
1.40464e-09
4.09943e-13
1.40424e-09
-1.88805e-12
1.40321e-09
-1.10583e-12
1.40337e-09
1.04544e-12
1.40359e-09
-3.93391e-13
1.40327e-09
1.40024e-13
1.40339e-09
-6.96354e-13
1.40337e-09
-6.02756e-13
1.40305e-09
1.03205e-14
1.40338e-09
7.41209e-13
1.40288e-09
1.36306e-13
1.40266e-09
-2.31198e-13
1.40256e-09
-9.90089e-14
1.40259e-09
-7.6825e-14
1.40239e-09
-4.23437e-14
1.40205e-09
-5.4132e-13
1.40218e-09
-2.59559e-13
1.40265e-09
-7.55815e-15
1.40314e-09
-2.15448e-13
1.40176e-09
2.63902e-12
1.30843e-13
-1.08516e-09
6.72502e-10
-1.25864e-10
1.37835e-09
-3.66248e-09
1.19242e-09
2.66072e-09
1.49747e-09
2.78457e-09
-3.55123e-09
-4.31087e-09
-5.9205e-09
3.944e-09
4.64551e-10
-3.14619e-09
-1.04603e-09
2.15984e-09
9.74571e-10
3.82995e-08
-2.9372e-09
-1.12622e-09
-3.54353e-08
-1.46276e-09
2.19105e-08
-4.4944e-09
-1.71089e-08
-1.92719e-09
1.0256e-08
-1.48848e-09
5.10694e-10
-2.45842e-10
-8.65927e-09
-2.31192e-09
1.69257e-10
5.59793e-10
1.01521e-09
-1.14941e-10
-1.21071e-10
-8.59644e-12
3.89509e-12
2.0798e-11
1.21967e-10
2.30621e-09
-1.09254e-10
2.63683e-11
-5.5543e-10
-5.70821e-10
-5.5545e-10
-5.70813e-10
2.3214e-09
-3.00153e-11
2.82559e-13
2.33281e-09
-2.1375e-11
-3.47329e-13
2.33512e-09
-1.11687e-11
-2.12148e-13
2.33757e-09
-6.72919e-12
-5.70192e-13
2.3396e-09
-4.03206e-12
-4.75564e-13
2.33841e-09
-2.92631e-12
1.31394e-12
2.33859e-09
-1.86906e-12
7.44703e-14
2.33881e-09
-1.43227e-12
1.12607e-12
2.33941e-09
-7.68164e-13
-2.76824e-14
2.34014e-09
-7.82449e-13
8.5704e-14
2.33912e-09
3.15277e-12
-1.6488e-12
2.34029e-09
-2.0652e-13
8.49144e-13
2.34011e-09
-2.44311e-14
2.60391e-14
2.34011e-09
-1.66463e-12
6.72674e-13
2.33974e-09
4.94994e-13
-1.58236e-13
2.34012e-09
-3.98401e-13
-2.53874e-14
2.34003e-09
-1.13454e-12
-4.01977e-13
2.33908e-09
-4.06219e-14
-5.31671e-14
2.3391e-09
1.40196e-13
-3.2379e-14
2.33916e-09
-2.26865e-13
4.44422e-14
2.33843e-09
-7.09856e-13
5.12615e-13
2.33827e-09
1.40261e-13
-1.66888e-13
2.33704e-09
5.51773e-12
-1.47722e-12
2.33689e-09
4.55274e-12
-2.8701e-12
2.33656e-09
-1.92358e-13
-2.19941e-13
2.33855e-09
1.26664e-12
-1.55941e-12
2.33798e-09
3.47614e-13
-1.39539e-14
2.33667e-09
1.31357e-13
-7.21895e-13
2.33546e-09
4.79599e-13
-4.60057e-13
2.33522e-09
-2.00945e-12
1.00551e-12
2.33732e-09
-7.4139e-13
-1.35914e-12
2.33656e-09
7.02334e-13
-1.18001e-13
2.33631e-09
1.92562e-13
6.07167e-14
2.33614e-09
-5.66734e-14
-6.80963e-14
2.33622e-09
-5.48429e-13
1.61407e-14
2.33453e-09
3.29447e-12
-2.36253e-12
2.33414e-09
6.84134e-14
-3.74528e-14
2.3352e-09
-9.69648e-13
-7.73048e-13
2.33605e-09
-7.87864e-13
-3.10167e-13
2.33555e-09
3.3752e-13
1.60382e-13
2.33439e-09
8.45221e-13
9.38059e-13
-5.60089e-13
-4.48708e-13
3.61447e-09
-4.21521e-09
3.54399e-09
-1.66316e-09
9.54668e-10
-5.41521e-08
8.91343e-10
-5.87685e-10
5.40638e-08
-1.17e-09
-3.14846e-11
6.19395e-09
-6.22468e-10
-1.34748e-10
-5.07158e-09
-3.33665e-10
-2.61705e-09
6.36767e-09
-7.50491e-09
9.72846e-09
-6.11297e-09
1.39615e-10
-3.56083e-09
-1.09579e-09
1.12292e-09
-3.19947e-09
6.10529e-09
6.2787e-10
-1.6843e-09
2.37743e-10
1.20474e-09
-9.57541e-10
-8.69584e-10
2.06894e-09
-8.08401e-11
-6.3648e-11
-1.16831e-11
-1.27033e-11
3.63498e-11
1.32525e-10
2.40799e-09
-9.20395e-12
3.55439e-11
-5.91789e-10
-6.66328e-10
-5.91778e-10
-6.66296e-10
-2.68677e-11
-9.19398e-12
-2.68773e-11
2.35489e-09
1.83997e-11
2.46053e-12
2.34834e-09
-1.4746e-11
1.17397e-13
2.34365e-09
-6.2768e-12
1.24567e-13
2.34169e-09
-4.15244e-12
-9.28487e-14
2.3402e-09
-9.74704e-13
-6.6843e-13
2.33983e-09
-2.22761e-12
3.39934e-14
2.33967e-09
-1.37689e-12
1.48884e-14
2.33903e-09
3.60592e-13
-8.47214e-13
2.33954e-09
-9.24863e-13
-1.47744e-14
2.33978e-09
-8.652e-13
-1.85156e-13
2.34086e-09
-6.44008e-13
1.46819e-12
2.34044e-09
2.42888e-13
-3.61827e-14
2.34009e-09
-1.83429e-14
2.93113e-13
2.33953e-09
2.15468e-14
-5.42859e-13
2.3398e-09
1.83404e-13
3.16662e-14
2.34035e-09
-3.14561e-12
9.66034e-13
2.33968e-09
-1.31667e-14
-2.62814e-13
2.33937e-09
-3.08453e-14
5.0535e-14
2.33925e-09
2.673e-14
-5.47092e-15
2.33893e-09
-4.54182e-13
1.45374e-13
2.33726e-09
4.40548e-12
-2.34588e-12
2.33715e-09
3.49686e-13
-5.64909e-13
2.33787e-09
5.54425e-13
2.10823e-12
2.33791e-09
8.38489e-13
1.72944e-12
2.33932e-09
-2.60765e-12
2.83507e-12
2.33779e-09
1.15319e-12
2.23917e-12
2.33729e-09
3.96248e-13
9.69262e-14
2.33726e-09
4.96785e-14
-4.70481e-14
2.33737e-09
2.2818e-13
-6.84295e-14
2.33701e-09
-3.91374e-13
-8.48346e-13
2.33498e-09
-6.55365e-13
1.40349e-12
2.33514e-09
2.28113e-13
8.64874e-14
2.33528e-09
-1.86039e-13
-4.62374e-15
2.33485e-09
4.95837e-13
-1.52049e-13
2.33468e-09
1.03845e-14
-4.93974e-14
2.33652e-09
7.71423e-14
2.49475e-12
2.33634e-09
4.85795e-14
3.59581e-14
2.33493e-09
-3.19845e-14
7.24819e-13
2.33484e-09
6.80408e-13
-5.42024e-13
2.33467e-09
6.11718e-13
-2.32423e-13
2.33509e-09
2.25797e-13
-7.98693e-13
-2.42345e-13
1.91642e-13
-7.73702e-09
-8.39325e-10
-4.8201e-09
-4.83873e-10
1.4488e-08
-1.95274e-09
-2.14794e-09
7.17949e-09
-1.47216e-08
2.08557e-09
1.35111e-09
-7.91325e-10
-1.2895e-09
1.92549e-08
1.31338e-08
-1.78039e-08
-2.06455e-09
-1.05743e-09
-1.26783e-09
8.82972e-11
-9.92624e-10
-3.80068e-10
8.38904e-09
2.01777e-10
-8.24769e-09
1.02957e-09
2.02091e-09
5.07921e-10
-1.88196e-08
2.06045e-08
-1.98625e-09
-2.33031e-09
-4.59442e-08
3.58358e-09
-2.46795e-09
9.31198e-10
-3.46417e-09
4.73645e-08
-1.57376e-09
6.5278e-10
-4.25406e-10
3.34273e-10
-3.91829e-10
1.40394e-09
-1.70837e-10
7.6672e-11
-4.28445e-11
1.05578e-11
-2.50026e-11
1.51454e-10
-1.54946e-10
6.25994e-10
-2.08102e-12
1.53807e-13
-8.06562e-12
-1.52224e-10
-1.60431e-10
-1.57582e-10
2.35856e-09
-7.78382e-12
2.3947e-11
-5.89435e-10
-6.00471e-10
-5.89446e-10
-6.00498e-10
2.34798e-09
-8.77226e-12
2.46846e-12
2.34619e-09
-3.17007e-12
-4.43625e-13
2.34384e-09
-2.13577e-12
3.63253e-13
2.34284e-09
-7.965e-13
6.17268e-13
2.3414e-09
-4.19891e-13
1.28628e-14
2.34055e-09
-1.3966e-13
-2.43147e-15
2.34145e-09
3.0904e-14
-9.73971e-14
2.34089e-09
-3.74209e-13
1.91266e-13
2.34067e-09
5.19193e-13
-9.39787e-14
2.33918e-09
7.15899e-13
1.58845e-13
2.34042e-09
-8.1601e-13
8.68914e-14
2.33951e-09
1.19033e-12
-4.51622e-13
2.34006e-09
-5.88418e-13
4.67812e-14
2.33991e-09
-2.82915e-13
5.59764e-13
2.33891e-09
-1.57717e-13
-1.03396e-12
2.33896e-09
-2.95306e-13
4.72333e-14
2.33899e-09
-1.45655e-13
-5.31534e-14
2.33847e-09
4.62957e-14
3.42818e-13
2.33772e-09
1.06106e-12
-5.22422e-13
2.33855e-09
-7.79128e-13
2.04511e-12
2.3394e-09
-4.09706e-12
1.9795e-12
2.33885e-09
9.98811e-13
-1.29166e-13
2.34021e-09
-2.60116e-12
8.16944e-13
2.33782e-09
1.74393e-13
-2.68739e-12
2.33675e-09
2.93254e-14
-7.81636e-13
2.33675e-09
2.7002e-13
-2.577e-13
2.33693e-09
-1.87532e-13
1.66718e-14
2.33677e-09
5.18475e-14
4.93597e-14
2.33632e-09
9.48796e-14
-2.94905e-14
2.33554e-09
-4.15896e-13
-4.11966e-14
2.3354e-09
-1.14204e-13
1.22609e-13
2.33447e-09
-1.46273e-13
1.25802e-12
2.33525e-09
-3.8145e-13
-4.71526e-13
2.33557e-09
1.51579e-12
1.21306e-12
2.33672e-09
1.5144e-12
-1.1531e-12
2.33613e-09
1.08551e-12
-2.07667e-13
2.3358e-09
6.17576e-13
-2.09345e-13
2.33465e-09
5.27859e-14
8.38396e-13
2.33429e-09
8.42361e-13
5.7634e-14
2.33424e-09
4.16412e-13
-1.03964e-13
-2.08804e-12
1.22385e-12
-1.12639e-09
-1.70486e-09
-2.50835e-09
7.46843e-11
-1.02061e-10
-3.24229e-09
-3.42176e-09
5.46358e-09
1.61646e-09
-3.13934e-10
4.35428e-09
4.55194e-09
2.35415e-09
-1.05556e-10
-5.9981e-09
-5.15671e-09
-7.16472e-10
3.16136e-09
-2.59331e-09
5.42743e-10
3.43399e-09
-3.82831e-09
5.7672e-09
-1.65689e-09
5.60221e-09
5.14926e-10
-5.90496e-09
-4.32249e-09
-1.98249e-09
1.02641e-10
-5.19829e-11
-2.01296e-10
-3.49968e-10
2.48309e-09
-2.91463e-10
-1.1893e-10
-5.92322e-11
1.4879e-10
2.12515e-10
1.08321e-10
-1.50625e-10
6.17245e-10
-2.00337e-11
7.29579e-12
-3.43181e-11
-1.2919e-10
-1.55238e-10
-1.31358e-10
-3.77603e-12
2.3791e-09
-1.45128e-11
2.32668e-11
-6.01948e-10
-6.0744e-10
-6.01971e-10
-6.07486e-10
2.35728e-09
7.66945e-12
2.86884e-12
2.35123e-09
4.30217e-12
-4.70616e-13
2.34577e-09
3.72459e-12
5.94013e-16
2.34326e-09
2.18794e-12
-3.3489e-14
2.34172e-09
1.50588e-12
1.09774e-14
2.34075e-09
1.18201e-12
2.1508e-14
2.34016e-09
8.38392e-13
7.75773e-14
2.33999e-09
1.64214e-13
-3.20525e-14
2.33962e-09
2.55536e-13
3.52897e-13
2.34044e-09
6.43194e-14
4.9593e-14
2.3399e-09
1.32672e-13
-2.35765e-13
2.34082e-09
1.85563e-13
4.30518e-13
2.34026e-09
-1.08911e-15
-5.48424e-14
2.34024e-09