/*--------------------------------*- C++ -*----------------------------------*\
| =========                 |                                                 |
| \\      /  F ield         | OpenFOAM: The Open Source CFD Toolbox           |
|  \\    /   O peration     | Version:  5.0                                   |
|   \\  /    A nd           | Web:      www.OpenFOAM.org                      |
|    \\/     M anipulation  |                                                 |
\*---------------------------------------------------------------------------*/
FoamFile
{
    version     2.0;
    format      ascii;
    class       volScalarField;
    location    "2.9";
    object      rAU;
}
// * * * * * * * * * * * * * * * * * * * * * * * * * * * * * * * * * * * * * //

dimensions      [-1 3 1 0 0 0 0];

internalField   nonuniform List<scalar> 
8563
(
8.73374e-07
8.74848e-07
8.87202e-07
5.16315e-07
8.69e-07
4.12622e-07
3.47983e-08
3.92417e-07
3.93661e-07
3.94696e-07
3.9573e-07
3.96763e-07
3.97795e-07
3.98826e-07
3.99857e-07
4.00886e-07
4.01916e-07
4.02944e-07
4.03972e-07
4.04999e-07
4.06025e-07
4.0705e-07
4.08076e-07
4.09099e-07
4.10122e-07
4.11145e-07
4.12167e-07
4.13188e-07
4.14208e-07
4.15228e-07
4.16246e-07
4.17265e-07
4.18282e-07
4.19298e-07
4.20314e-07
4.21328e-07
4.22342e-07
4.23356e-07
4.24368e-07
4.2538e-07
4.26391e-07
4.274e-07
4.28409e-07
4.29418e-07
4.30425e-07
4.31432e-07
4.32438e-07
4.33443e-07
4.34447e-07
4.36223e-07
8.89794e-07
7.1512e-07
8.15214e-07
8.59696e-07
5.9474e-07
6.91351e-07
3.59048e-08
3.92286e-07
3.93662e-07
3.94696e-07
3.9573e-07
3.96763e-07
3.97795e-07
3.98826e-07
3.99857e-07
4.00886e-07
4.01916e-07
4.02944e-07
4.03972e-07
4.04999e-07
4.06025e-07
4.0705e-07
4.08076e-07
4.09099e-07
4.10122e-07
4.11145e-07
4.12167e-07
4.13188e-07
4.14208e-07
4.15228e-07
4.16246e-07
4.17265e-07
4.18282e-07
4.19298e-07
4.20314e-07
4.21329e-07
4.22342e-07
4.23356e-07
4.24368e-07
4.2538e-07
4.26391e-07
4.274e-07
4.28409e-07
4.29418e-07
4.30425e-07
4.31432e-07
4.32438e-07
4.33443e-07
4.34447e-07
4.36223e-07
6.21896e-07
1.45437e-07
6.32028e-07
8.8421e-07
8.93475e-07
6.14183e-07
1.49854e-07
1.29779e-07
3.93454e-07
3.94697e-07
3.95731e-07
3.96763e-07
3.97795e-07
3.98827e-07
3.99857e-07
4.00886e-07
4.01916e-07
4.02944e-07
4.03972e-07
4.04999e-07
4.06025e-07
4.0705e-07
4.08076e-07
4.09099e-07
4.10122e-07
4.11145e-07
4.12167e-07
4.13188e-07
4.14208e-07
4.15228e-07
4.16246e-07
4.17265e-07
4.18282e-07
4.19298e-07
4.20314e-07
4.21329e-07
4.22342e-07
4.23356e-07
4.24368e-07
4.2538e-07
4.26391e-07
4.274e-07
4.28409e-07
4.29418e-07
4.30425e-07
4.31432e-07
4.32438e-07
4.33443e-07
4.34447e-07
4.36223e-07
9.6252e-07
8.13133e-07
8.26076e-07
8.85755e-07
8.79051e-07
5.93558e-07
7.01187e-07
1.29721e-07
3.93455e-07
3.94698e-07
3.95731e-07
3.96764e-07
3.97795e-07
3.98827e-07
3.99857e-07
4.00887e-07
4.01916e-07
4.02944e-07
4.03972e-07
4.04999e-07
4.06025e-07
4.0705e-07
4.08076e-07
4.09099e-07
4.10122e-07
4.11145e-07
4.12167e-07
4.13188e-07
4.14208e-07
4.15228e-07
4.16246e-07
4.17265e-07
4.18282e-07
4.19298e-07
4.20314e-07
4.21329e-07
4.22342e-07
4.23356e-07
4.24368e-07
4.2538e-07
4.26391e-07
4.274e-07
4.28409e-07
4.29418e-07
4.30425e-07
4.31432e-07
4.32438e-07
4.33443e-07
4.34447e-07
4.36223e-07
9.47664e-07
8.7437e-07
4.62851e-07
8.78412e-07
8.61158e-07
6.68854e-07
7.0108e-07
3.51922e-08
3.93455e-07
3.94698e-07
3.95731e-07
3.96764e-07
3.97795e-07
3.98827e-07
3.99857e-07
4.00887e-07
4.01916e-07
4.02944e-07
4.03972e-07
4.04999e-07
4.06025e-07
4.0705e-07
4.08076e-07
4.09099e-07
4.10122e-07
4.11145e-07
4.12167e-07
4.13188e-07
4.14208e-07
4.15228e-07
4.16246e-07
4.17265e-07
4.18282e-07
4.19298e-07
4.20314e-07
4.21329e-07
4.22342e-07
4.23356e-07
4.24368e-07
4.2538e-07
4.26391e-07
4.274e-07
4.28409e-07
4.29418e-07
4.30425e-07
4.31432e-07
4.32438e-07
4.33443e-07
4.34447e-07
4.36223e-07
9.60213e-07
8.86256e-07
8.54185e-07
8.82406e-07
6.09291e-07
6.83352e-07
7.0057e-07
3.5053e-08
3.93455e-07
3.94698e-07
3.95731e-07
3.96763e-07
3.97795e-07
3.98827e-07
3.99857e-07
4.00886e-07
4.01916e-07
4.02944e-07
4.03972e-07
4.04999e-07
4.06025e-07
4.0705e-07
4.08076e-07
4.09099e-07
4.10122e-07
4.11145e-07
4.12167e-07
4.13188e-07
4.14208e-07
4.15228e-07
4.16246e-07
4.17265e-07
4.18282e-07
4.19298e-07
4.20314e-07
4.21329e-07
4.22342e-07
4.23356e-07
4.24368e-07
4.2538e-07
4.26391e-07
4.274e-07
4.28409e-07
4.29418e-07
4.30425e-07
4.31432e-07
4.32438e-07
4.33443e-07
4.34447e-07
4.36223e-07
9.4957e-07
8.79641e-07
9.42006e-07
8.77691e-07
6.76951e-07
6.62266e-07
7.00592e-07
1.29681e-07
3.93454e-07
3.94697e-07
3.95731e-07
3.96763e-07
3.97795e-07
3.98826e-07
3.99857e-07
4.00886e-07
4.01916e-07
4.02944e-07
4.03972e-07
4.04999e-07
4.06025e-07
4.0705e-07
4.08076e-07
4.09099e-07
4.10122e-07
4.11145e-07
4.12167e-07
4.13188e-07
4.14208e-07
4.15228e-07
4.16246e-07
4.17265e-07
4.18282e-07
4.19298e-07
4.20314e-07
4.21329e-07
4.22342e-07
4.23356e-07
4.24368e-07
4.2538e-07
4.26391e-07
4.274e-07
4.28409e-07
4.29418e-07
4.30425e-07
4.31432e-07
4.32438e-07
4.33443e-07
4.34447e-07
4.36223e-07
9.65e-07
8.74067e-07
8.22246e-07
8.25738e-07
8.90438e-07
6.40952e-07
6.96684e-07
1.29689e-07
3.93452e-07
3.94696e-07
3.9573e-07
3.96763e-07
3.97795e-07
3.98826e-07
3.99857e-07
4.00886e-07
4.01916e-07
4.02944e-07
4.03972e-07
4.04999e-07
4.06025e-07
4.0705e-07
4.08075e-07
4.09099e-07
4.10122e-07
4.11145e-07
4.12167e-07
4.13188e-07
4.14208e-07
4.15228e-07
4.16246e-07
4.17265e-07
4.18282e-07
4.19298e-07
4.20314e-07
4.21329e-07
4.22342e-07
4.23356e-07
4.24368e-07
4.2538e-07
4.26391e-07
4.274e-07
4.28409e-07
4.29418e-07
4.30425e-07
4.31432e-07
4.32438e-07
4.33443e-07
4.34447e-07
4.36223e-07
9.60464e-07
8.78049e-07
2.9342e-07
2.75798e-07
5.39547e-07
6.49922e-07
1.14748e-07
3.92283e-07
3.9366e-07
3.94695e-07
3.9573e-07
3.96763e-07
3.97795e-07
3.98826e-07
3.99857e-07
4.00886e-07
4.01916e-07
4.02944e-07
4.03972e-07
4.04999e-07
4.06025e-07
4.0705e-07
4.08075e-07
4.09099e-07
4.10122e-07
4.11145e-07
4.12167e-07
4.13188e-07
4.14208e-07
4.15228e-07
4.16246e-07
4.17265e-07
4.18282e-07
4.19298e-07
4.20314e-07
4.21329e-07
4.22342e-07
4.23356e-07
4.24368e-07
4.2538e-07
4.26391e-07
4.274e-07
4.28409e-07
4.29418e-07
4.30425e-07
4.31432e-07
4.32438e-07
4.33443e-07
4.34447e-07
4.36223e-07
9.6051e-07
9.55256e-07
8.75639e-07
8.76979e-07
7.30741e-07
5.72629e-07
3.62346e-08
3.92416e-07
3.93661e-07
3.94696e-07
3.9573e-07
3.96763e-07
3.97795e-07
3.98826e-07
3.99857e-07
4.00886e-07
4.01916e-07
4.02944e-07
4.03972e-07
4.04999e-07
4.06025e-07
4.0705e-07
4.08076e-07
4.09099e-07
4.10122e-07
4.11145e-07
4.12167e-07
4.13188e-07
4.14208e-07
4.15228e-07
4.16246e-07
4.17265e-07
4.18282e-07
4.19298e-07
4.20314e-07
4.21329e-07
4.22342e-07
4.23356e-07
4.24368e-07
4.2538e-07
4.26391e-07
4.274e-07
4.28409e-07
4.29418e-07
4.30425e-07
4.31432e-07
4.32438e-07
4.33443e-07
4.34447e-07
4.36223e-07
9.64959e-07
9.21893e-07
6.09329e-07
3.24241e-07
6.0575e-07
6.36876e-07
5.13937e-08
5.04888e-07
5.06381e-07
5.07524e-07
5.08664e-07
5.09802e-07
5.10938e-07
5.12072e-07
5.13205e-07
5.14336e-07
5.15464e-07
5.16592e-07
5.17718e-07
5.18841e-07
5.19964e-07
5.21086e-07
5.22204e-07
5.23322e-07
5.24438e-07
5.25552e-07
5.26665e-07
5.27777e-07
5.28885e-07
5.29994e-07
5.311e-07
5.32204e-07
5.33307e-07
5.34409e-07
5.35507e-07
5.36606e-07
5.37702e-07
5.38796e-07
5.39889e-07
5.40981e-07
5.4207e-07
5.43158e-07
5.44245e-07
5.45328e-07
5.46412e-07
5.47493e-07
5.48572e-07
5.4965e-07
5.50727e-07
5.53041e-07
9.24008e-07
3.2436e-07
4.36865e-07
5.06436e-07
5.81946e-07
7.3694e-07
5.33303e-08
5.04675e-07
5.06383e-07
5.07526e-07
5.08665e-07
5.09803e-07
5.10939e-07
5.12072e-07
5.13205e-07
5.14336e-07
5.15464e-07
5.16592e-07
5.17718e-07
5.18841e-07
5.19964e-07
5.21086e-07
5.22204e-07
5.23322e-07
5.24438e-07
5.25552e-07
5.26665e-07
5.27777e-07
5.28885e-07
5.29994e-07
5.311e-07
5.32204e-07
5.33307e-07
5.34408e-07
5.35507e-07
5.36606e-07
5.37702e-07
5.38796e-07
5.39889e-07
5.40981e-07
5.4207e-07
5.43158e-07
5.44245e-07
5.45328e-07
5.46412e-07
5.47493e-07
5.48572e-07
5.4965e-07
5.50727e-07
5.53041e-07
8.94447e-07
6.30195e-07
2.47129e-07
6.38651e-07
2.6142e-07
7.10012e-07
2.0999e-07
1.84067e-07
5.06041e-07
5.07529e-07
5.08666e-07
5.09804e-07
5.10939e-07
5.12072e-07
5.13205e-07
5.14336e-07
5.15464e-07
5.16592e-07
5.17718e-07
5.18841e-07
5.19964e-07
5.21086e-07
5.22204e-07
5.23322e-07
5.24439e-07
5.25552e-07
5.26665e-07
5.27777e-07
5.28885e-07
5.29993e-07
5.311e-07
5.32204e-07
5.33307e-07
5.34409e-07
5.35507e-07
5.36606e-07
5.37702e-07
5.38796e-07
5.39889e-07
5.40981e-07
5.4207e-07
5.43158e-07
5.44245e-07
5.45328e-07
5.46412e-07
5.47493e-07
5.48572e-07
5.4965e-07
5.50727e-07
5.53041e-07
8.81593e-07
9.18066e-07
9.0244e-07
8.73806e-07
9.22509e-07
6.80112e-07
7.75635e-07
1.83954e-07
5.06043e-07
5.0753e-07
5.08667e-07
5.09804e-07
5.1094e-07
5.12073e-07
5.13205e-07
5.14336e-07
5.15464e-07
5.16592e-07
5.17718e-07
5.18842e-07
5.19964e-07
5.21086e-07
5.22204e-07
5.23322e-07
5.24438e-07
5.25552e-07
5.26665e-07
5.27777e-07
5.28885e-07
5.29993e-07
5.311e-07
5.32204e-07
5.33307e-07
5.34409e-07
5.35507e-07
5.36606e-07
5.37702e-07
5.38796e-07
5.39889e-07
5.40981e-07
5.4207e-07
5.43158e-07
5.44244e-07
5.45328e-07
5.46412e-07
5.47493e-07
5.48572e-07
5.4965e-07
5.50727e-07
5.53041e-07
8.96345e-07
8.53352e-07
5.19202e-07
5.7588e-07
6.95281e-07
6.78873e-07
7.76916e-07
5.20277e-08
5.06041e-07
5.0753e-07
5.08667e-07
5.09804e-07
5.1094e-07
5.12073e-07
5.13205e-07
5.14336e-07
5.15464e-07
5.16592e-07
5.17718e-07
5.18841e-07
5.19964e-07
5.21086e-07
5.22204e-07
5.23322e-07
5.24438e-07
5.25552e-07
5.26665e-07
5.27777e-07
5.28885e-07
5.29994e-07
5.311e-07
5.32204e-07
5.33307e-07
5.34409e-07
5.35507e-07
5.36606e-07
5.37702e-07
5.38796e-07
5.39889e-07
5.40981e-07
5.4207e-07
5.43158e-07
5.44245e-07
5.45328e-07
5.46412e-07
5.47493e-07
5.48572e-07
5.4965e-07
5.50727e-07
5.53041e-07
8.38829e-07
7.48133e-07
9.17158e-07
8.60537e-07
7.71351e-07
7.50515e-07
7.75563e-07
5.20011e-08
5.06041e-07
5.07529e-07
5.08667e-07
5.09804e-07
5.10939e-07
5.12073e-07
5.13205e-07
5.14336e-07
5.15464e-07
5.16592e-07
5.17718e-07
5.18841e-07
5.19964e-07
5.21086e-07
5.22204e-07
5.23322e-07
5.24438e-07
5.25552e-07
5.26665e-07
5.27777e-07
5.28885e-07
5.29993e-07
5.311e-07
5.32204e-07
5.33307e-07
5.34409e-07
5.35507e-07
5.36606e-07
5.37702e-07
5.38796e-07
5.39889e-07
5.40981e-07
5.4207e-07
5.43158e-07
5.44245e-07
5.45328e-07
5.46412e-07
5.47493e-07
5.48572e-07
5.4965e-07
5.50727e-07
5.53041e-07
9.00169e-07
3.63586e-07
8.56029e-07
9.02888e-07
4.00111e-07
7.39289e-07
7.73441e-07
1.83869e-07
5.06039e-07
5.07527e-07
5.08665e-07
5.09803e-07
5.10939e-07
5.12072e-07
5.13205e-07
5.14336e-07
5.15464e-07
5.16592e-07
5.17718e-07
5.18841e-07
5.19964e-07
5.21086e-07
5.22204e-07
5.23322e-07
5.24438e-07
5.25552e-07
5.26665e-07
5.27777e-07
5.28885e-07
5.29993e-07
5.311e-07
5.32204e-07
5.33307e-07
5.34409e-07
5.35507e-07
5.36606e-07
5.37702e-07
5.38796e-07
5.39889e-07
5.40981e-07
5.4207e-07
5.43158e-07
5.44245e-07
5.45328e-07
5.46412e-07
5.47493e-07
5.48572e-07
5.4965e-07
5.50727e-07
5.53041e-07
9.67708e-07
9.67456e-07
8.90627e-07
5.81313e-07
8.1525e-07
5.75745e-07
7.74393e-07
1.83946e-07
5.06034e-07
5.07525e-07
5.08664e-07
5.09802e-07
5.10939e-07
5.12072e-07
5.13205e-07
5.14336e-07
5.15464e-07
5.16592e-07
5.17718e-07
5.18841e-07
5.19964e-07
5.21086e-07
5.22204e-07
5.23322e-07
5.24438e-07
5.25552e-07
5.26665e-07
5.27777e-07
5.28885e-07
5.29994e-07
5.311e-07
5.32204e-07
5.33307e-07
5.34409e-07
5.35507e-07
5.36606e-07
5.37702e-07
5.38796e-07
5.39889e-07
5.40981e-07
5.4207e-07
5.43158e-07
5.44245e-07
5.45328e-07
5.46412e-07
5.47493e-07
5.48572e-07
5.4965e-07
5.50727e-07
5.53041e-07
9.71389e-07
9.11097e-07
2.72126e-07
4.05664e-07
4.99548e-07
6.45363e-07
1.62037e-07
5.04666e-07
5.06379e-07
5.07524e-07
5.08663e-07
5.09802e-07
5.10938e-07
5.12072e-07
5.13205e-07
5.14336e-07
5.15464e-07
5.16592e-07
5.17718e-07
5.18841e-07
5.19964e-07
5.21086e-07
5.22204e-07
5.23322e-07
5.24438e-07
5.25552e-07
5.26665e-07
5.27777e-07
5.28885e-07
5.29993e-07
5.311e-07
5.32204e-07
5.33307e-07
5.34409e-07
5.35507e-07
5.36606e-07
5.37702e-07
5.38796e-07
5.39889e-07
5.40981e-07
5.4207e-07
5.43158e-07
5.44245e-07
5.45328e-07
5.46412e-07
5.47493e-07
5.48572e-07
5.4965e-07
5.50726e-07
5.53041e-07
9.59657e-07
9.62647e-07
8.91118e-07
3.95632e-07
6.61205e-07
7.0493e-07
5.3774e-08
5.04887e-07
5.0638e-07
5.07524e-07
5.08664e-07
5.09802e-07
5.10938e-07
5.12072e-07
5.13205e-07
5.14336e-07
5.15464e-07
5.16592e-07
5.17718e-07
5.18841e-07
5.19964e-07
5.21086e-07
5.22204e-07
5.23322e-07
5.24438e-07
5.25552e-07
5.26665e-07
5.27777e-07
5.28885e-07
5.29994e-07
5.311e-07
5.32204e-07
5.33307e-07
5.34409e-07
5.35507e-07
5.36606e-07
5.37702e-07
5.38796e-07
5.39889e-07
5.40981e-07
5.4207e-07
5.43158e-07
5.44245e-07
5.45328e-07
5.46412e-07
5.47493e-07
5.48572e-07
5.4965e-07
5.50727e-07
5.53041e-07
9.57662e-07
8.52285e-07
5.82186e-07
6.51115e-07
2.1377e-07
7.35888e-07
5.12837e-08
3.92417e-07
3.93661e-07
3.94696e-07
3.9573e-07
3.96763e-07
3.97794e-07
3.98826e-07
3.99857e-07
4.00886e-07
4.01916e-07
4.02944e-07
4.03972e-07
4.04999e-07
4.06025e-07
4.0705e-07
4.08075e-07
4.09099e-07
4.10122e-07
4.11145e-07
4.12167e-07
4.13188e-07
4.14208e-07
4.15228e-07
4.16246e-07
4.17265e-07
4.18282e-07
4.19298e-07
4.20314e-07
4.21328e-07
4.22342e-07
4.23356e-07
4.24368e-07
4.25379e-07
4.26391e-07
4.274e-07
4.28409e-07
4.29418e-07
4.30425e-07
4.31432e-07
4.32438e-07
4.33443e-07
4.34447e-07
4.36223e-07
9.49179e-07
7.05562e-07
4.15381e-07
5.03545e-07
6.18201e-07
7.44166e-07
5.32971e-08
3.92286e-07
3.93662e-07
3.94696e-07
3.9573e-07
3.96763e-07
3.97795e-07
3.98826e-07
3.99857e-07
4.00886e-07
4.01916e-07
4.02944e-07
4.03972e-07
4.04999e-07
4.06025e-07
4.0705e-07
4.08075e-07
4.09099e-07
4.10122e-07
4.11145e-07
4.12167e-07
4.13188e-07
4.14208e-07
4.15228e-07
4.16246e-07
4.17265e-07
4.18282e-07
4.19298e-07
4.20314e-07
4.21328e-07
4.22342e-07
4.23356e-07
4.24368e-07
4.2538e-07
4.26391e-07
4.274e-07
4.28409e-07
4.29418e-07
4.30425e-07
4.31432e-07
4.32438e-07
4.33443e-07
4.34447e-07
4.36223e-07
9.56685e-07
8.45791e-07
7.99667e-07
9.14202e-07
7.68478e-07
7.38254e-07
2.0973e-07
1.84072e-07
3.93454e-07
3.94697e-07
3.95731e-07
3.96763e-07
3.97795e-07
3.98826e-07
3.99857e-07
4.00886e-07
4.01916e-07
4.02944e-07
4.03972e-07
4.04999e-07
4.06025e-07
4.0705e-07
4.08075e-07
4.09099e-07
4.10122e-07
4.11145e-07
4.12167e-07
4.13188e-07
4.14208e-07
4.15228e-07
4.16246e-07
4.17265e-07
4.18282e-07
4.19298e-07
4.20314e-07
4.21328e-07
4.22342e-07
4.23356e-07
4.24368e-07
4.25379e-07
4.26391e-07
4.274e-07
4.28409e-07
4.29418e-07
4.30425e-07
4.31432e-07
4.32438e-07
4.33443e-07
4.34447e-07
4.36223e-07
7.4041e-07
9.03927e-07
9.12017e-07
7.88166e-07
9.00409e-07
7.03606e-07
7.76397e-07
1.83957e-07
3.93455e-07
3.94698e-07
3.95731e-07
3.96763e-07
3.97795e-07
3.98827e-07
3.99857e-07
4.00886e-07
4.01916e-07
4.02944e-07
4.03972e-07
4.04999e-07
4.06025e-07
4.0705e-07
4.08075e-07
4.09099e-07
4.10122e-07
4.11145e-07
4.12167e-07
4.13188e-07
4.14208e-07
4.15228e-07
4.16246e-07
4.17265e-07
4.18282e-07
4.19298e-07
4.20314e-07
4.21328e-07
4.22342e-07
4.23356e-07
4.24368e-07
4.25379e-07
4.26391e-07
4.274e-07
4.28409e-07
4.29418e-07
4.30425e-07
4.31432e-07
4.32438e-07
4.33443e-07
4.34447e-07
4.36223e-07
9.06108e-07
2.92955e-07
5.28501e-07
5.88e-07
5.28329e-07
6.78866e-07
7.77445e-07
5.20278e-08
3.93455e-07
3.94698e-07
3.95731e-07
3.96764e-07
3.97795e-07
3.98827e-07
3.99857e-07
4.00886e-07
4.01916e-07
4.02944e-07
4.03972e-07
4.04999e-07
4.06025e-07
4.0705e-07
4.08075e-07
4.09099e-07
4.10122e-07
4.11145e-07
4.12167e-07
4.13188e-07
4.14208e-07
4.15228e-07
4.16246e-07
4.17265e-07
4.18282e-07
4.19298e-07
4.20314e-07
4.21328e-07
4.22342e-07
4.23356e-07
4.24368e-07
4.25379e-07
4.26391e-07
4.274e-07
4.28409e-07
4.29418e-07
4.30425e-07
4.31432e-07
4.32438e-07
4.33443e-07
4.34447e-07
4.36223e-07
8.52832e-07
3.88012e-07
8.35321e-07
9.06617e-07
7.53114e-07
6.90508e-07
7.74462e-07
5.20012e-08
3.93455e-07
3.94698e-07
3.95731e-07
3.96763e-07
3.97795e-07
3.98827e-07
3.99857e-07
4.00886e-07
4.01916e-07
4.02944e-07
4.03972e-07
4.04999e-07
4.06025e-07
4.0705e-07
4.08075e-07
4.09099e-07
4.10122e-07
4.11145e-07
4.12167e-07
4.13188e-07
4.14208e-07
4.15228e-07
4.16246e-07
4.17265e-07
4.18282e-07
4.19298e-07
4.20314e-07
4.21328e-07
4.22342e-07
4.23356e-07
4.24368e-07
4.25379e-07
4.26391e-07
4.274e-07
4.28409e-07
4.29418e-07
4.30425e-07
4.31432e-07
4.32438e-07
4.33443e-07
4.34447e-07
4.36223e-07
7.96205e-07
2.90688e-07
9.19203e-07
8.26872e-07
4.65406e-07
7.49026e-07
7.74032e-07
1.83871e-07
3.93454e-07
3.94697e-07
3.95731e-07
3.96763e-07
3.97795e-07
3.98826e-07
3.99857e-07
4.00886e-07
4.01916e-07
4.02944e-07
4.03972e-07
4.04999e-07
4.06025e-07
4.0705e-07
4.08075e-07
4.09099e-07
4.10122e-07
4.11145e-07
4.12167e-07
4.13188e-07
4.14208e-07
4.15228e-07
4.16246e-07
4.17265e-07
4.18282e-07
4.19298e-07
4.20314e-07
4.21328e-07
4.22342e-07
4.23356e-07
4.24368e-07
4.25379e-07
4.26391e-07
4.274e-07
4.28409e-07
4.29418e-07
4.30425e-07
4.31432e-07
4.32438e-07
4.33443e-07
4.34447e-07
4.36223e-07
9.66914e-07
9.61125e-07
9.25479e-07
8.72816e-07
6.41178e-07
7.21673e-07
7.74677e-07
1.83951e-07
3.93452e-07
3.94696e-07
3.9573e-07
3.96763e-07
3.97795e-07
3.98826e-07
3.99857e-07
4.00886e-07
4.01916e-07
4.02944e-07
4.03972e-07
4.04999e-07
4.06025e-07
4.0705e-07
4.08075e-07
4.09099e-07
4.10122e-07
4.11145e-07
4.12167e-07
4.13188e-07
4.14208e-07
4.15228e-07
4.16246e-07
4.17265e-07
4.18282e-07
4.19298e-07
4.20314e-07
4.21328e-07
4.22342e-07
4.23356e-07
4.24368e-07
4.25379e-07
4.26391e-07
4.274e-07
4.28409e-07
4.29418e-07
4.30425e-07
4.31432e-07
4.32438e-07
4.33443e-07
4.34447e-07
4.36223e-07
9.65291e-07
9.61161e-07
9.0002e-07
2.67225e-07
8.67241e-07
7.12562e-07
1.6212e-07
3.92283e-07
3.9366e-07
3.94695e-07
3.9573e-07
3.96763e-07
3.97795e-07
3.98826e-07
3.99857e-07
4.00886e-07
4.01916e-07
4.02944e-07
4.03972e-07
4.04999e-07
4.06025e-07
4.0705e-07
4.08075e-07
4.09099e-07
4.10122e-07
4.11145e-07
4.12167e-07
4.13188e-07
4.14208e-07
4.15228e-07
4.16246e-07
4.17265e-07
4.18282e-07
4.19298e-07
4.20314e-07
4.21328e-07
4.22342e-07
4.23356e-07
4.24368e-07
4.25379e-07
4.26391e-07
4.274e-07
4.28409e-07
4.29418e-07
4.30425e-07
4.31432e-07
4.32438e-07
4.33443e-07
4.34447e-07
4.36223e-07
9.61028e-07
9.71414e-07
8.92893e-07
4.43571e-07
5.0905e-07
7.58078e-07
5.37076e-08
3.92416e-07
3.93661e-07
3.94695e-07
3.9573e-07
3.96763e-07
3.97794e-07
3.98826e-07
3.99857e-07
4.00886e-07
4.01916e-07
4.02944e-07
4.03972e-07
4.04999e-07
4.06025e-07
4.0705e-07
4.08075e-07
4.09099e-07
4.10122e-07
4.11145e-07
4.12167e-07
4.13188e-07
4.14208e-07
4.15228e-07
4.16246e-07
4.17265e-07
4.18282e-07
4.19298e-07
4.20314e-07
4.21328e-07
4.22342e-07
4.23356e-07
4.24368e-07
4.25379e-07
4.26391e-07
4.274e-07
4.28409e-07
4.29418e-07
4.30425e-07
4.31432e-07
4.32438e-07
4.33443e-07
4.34447e-07
4.36223e-07
4.96939e-08
6.85434e-07
5.98985e-08
4.67544e-07
7.34963e-08
7.60233e-07
8.71983e-08
9.24224e-08
6.89769e-07
6.93208e-07
7.3967e-07
1.31883e-07
7.56385e-07
7.67546e-07
6.9755e-07
6.85961e-07
7.01081e-07
6.4856e-07
7.73278e-07
7.48927e-07
7.77568e-07
6.97175e-07
6.8808e-07
7.00834e-07
6.74204e-07
7.73846e-07
7.20915e-07
7.73598e-07
6.98257e-07
6.72103e-07
6.99422e-07
6.8753e-07
7.7145e-07
7.46879e-07
7.74609e-07
6.98946e-07
6.79336e-07
6.99614e-07
7.42468e-07
7.74468e-07
7.01616e-07
7.70564e-07
6.99328e-07
6.86322e-07
7.00688e-07
7.10634e-07
7.73088e-07
7.14109e-07
7.75628e-07
6.97891e-07
6.54489e-07
6.99454e-07
5.48286e-07
7.73244e-07
6.33551e-07
7.74862e-07
6.96518e-07
6.47385e-07
1.41578e-07
6.66951e-07
7.70695e-07
6.96715e-07
1.99921e-07
1.00694e-07
6.42655e-07
4.56059e-08
6.98568e-07
1.44188e-07
6.65204e-07
6.77043e-08
7.34512e-08
7.59234e-07
8.72017e-08
7.2772e-07
7.32959e-08
7.29381e-07
8.71627e-08
1.31947e-07
7.14575e-07
7.67463e-07
7.3153e-07
1.31786e-07
6.6059e-07
7.67529e-07
7.73097e-07
7.42809e-07
7.77497e-07
7.19697e-07
7.73609e-07
7.11645e-07
7.7781e-07
7.74126e-07
7.19446e-07
7.7286e-07
7.00572e-07
7.75117e-07
6.24051e-07
7.7616e-07
7.71935e-07
7.44778e-07
7.73589e-07
6.73558e-07
7.71331e-07
7.35824e-07
7.75143e-07
7.7313e-07
6.28128e-07
7.70063e-07
7.13173e-07
7.76628e-07
7.51118e-07
7.73875e-07
7.72117e-07
7.21658e-07
7.77048e-07
7.0707e-07
7.7152e-07
7.02518e-07
7.76029e-07
7.73322e-07
6.02991e-07
7.74675e-07
7.12372e-07
7.73841e-07
6.19175e-07
7.74633e-07
7.70741e-07
6.83035e-07
1.99999e-07
6.83861e-07
7.71942e-07
6.57197e-07
1.99258e-07
1.44291e-07
6.82036e-07
6.78701e-08
7.18345e-07
1.44306e-07
6.98079e-07
6.79309e-08
7.29457e-08
6.8381e-07
8.71458e-08
6.84654e-07
4.91473e-08
6.16395e-07
5.9859e-08
1.31789e-07
6.80738e-07
7.67829e-07
6.79352e-07
9.24771e-08
6.7624e-07
6.9328e-07
7.73609e-07
7.20744e-07
7.77339e-07
6.69137e-07
6.97684e-07
6.93681e-07
7.01175e-07
7.74568e-07
5.28749e-07
7.74296e-07
6.781e-07
6.98588e-07
4.60421e-07
7.00494e-07
7.7169e-07
7.38154e-07
7.74353e-07
6.81743e-07
6.99211e-07
6.83346e-07
6.99413e-07
7.75533e-07
7.39552e-07
7.73803e-07
6.26199e-07
6.99784e-07
6.86154e-07
6.99656e-07
7.70885e-07
6.50884e-07
7.74333e-07
6.88785e-07
6.99522e-07
6.77654e-07
6.99884e-07
7.74746e-07
6.28214e-07
7.74176e-07
6.89298e-07
7.0089e-07
6.5283e-07
6.99127e-07
7.71787e-07
6.19721e-07
1.99514e-07
6.8442e-07
6.96555e-07
5.99892e-07
1.40186e-07
1.44202e-07
7.06037e-07
6.76456e-08
6.9319e-07
1.0073e-07
6.48873e-07
4.54819e-08
4.00109e-07
6.20742e-07
2.139e-07
8.11322e-07
7.80503e-07
7.99699e-07
4.24823e-07
7.62119e-07
6.82562e-07
6.87003e-07
4.21093e-07
7.06638e-07
6.93947e-07
7.53624e-07
1.29566e-07
3.49908e-08
1.29566e-07
5.12487e-08
1.8383e-07
5.18484e-08
1.8383e-07
3.62731e-07
7.4213e-07
8.30434e-07
4.91621e-07
5.86854e-07
4.36911e-07
7.04717e-07
7.31001e-07
6.97412e-07
5.76737e-07
7.53413e-07
7.66441e-07
6.58939e-07
6.83531e-07
1.29566e-07
7.25957e-08
1.29509e-07
5.32899e-08
1.83833e-07
1.04951e-07
1.83718e-07
8.83197e-07
7.27865e-07
7.4352e-07
6.91042e-07
8.09872e-07
8.69404e-07
8.68337e-07
7.61619e-07
6.96777e-07
3.07215e-07
6.46646e-07
7.74034e-07
3.7604e-07
6.91455e-07
3.52934e-08
6.97024e-07
3.52814e-08
2.09819e-07
5.20166e-08
7.75046e-07
5.19911e-08
8.61113e-07
8.6008e-07
8.96658e-07
8.93816e-07
8.54673e-07
8.33133e-07
8.60931e-07
6.81835e-07
6.71322e-07
6.55774e-07
6.75623e-07
7.3479e-07
6.63373e-07
5.23238e-07
3.52901e-08
6.99813e-07
3.89596e-08
7.7647e-07
5.20111e-08
7.73189e-07
5.77062e-08
8.41171e-07
5.93044e-07
2.9203e-07
8.8977e-07
8.22315e-07
4.20032e-07
4.23662e-07
7.51306e-07
6.98787e-07
6.48348e-07
7.1028e-07
7.72068e-07
6.81087e-07
6.89496e-07
4.23476e-08
7.0055e-07
4.76996e-08
7.76757e-07
6.28881e-08
7.7629e-07
7.12346e-08
4.61281e-07
5.49652e-07
4.69309e-07
6.10473e-07
4.98057e-07
6.65119e-07
7.92521e-07
7.52249e-07
6.94267e-07
6.77979e-07
7.50159e-07
7.63999e-07
7.46648e-07
6.9118e-07
4.88145e-08
7.00323e-07
4.19381e-08
7.75751e-07
7.29924e-08
7.74775e-07
6.21508e-08
5.28445e-07
7.2695e-07
6.22561e-07
2.5721e-07
3.93958e-07
5.55871e-07
1.08959e-07
7.61574e-07
6.9634e-07
6.70587e-07
7.18611e-07
7.68378e-07
7.14229e-07
6.93583e-07
3.87972e-08
7.01076e-07
3.52892e-08
7.71352e-07
5.73463e-08
7.77371e-07
5.2009e-08
8.81886e-07
8.03552e-07
8.94308e-07
8.47495e-07
8.77624e-07
9.08123e-07
8.67446e-07
6.42963e-07
6.84163e-07
4.657e-07
5.3133e-07
7.21903e-07
3.79113e-07
6.02547e-07
3.52698e-08
2.60383e-07
3.50725e-08
7.74524e-07
5.19901e-08
3.40882e-07
5.20163e-08
5.28298e-07
2.30819e-07
3.33436e-07
6.4332e-07
5.08783e-07
2.6267e-07
6.45581e-07
6.58398e-07
6.95752e-07
4.87663e-07
7.14134e-07
7.68034e-07
5.62353e-07
5.70908e-07
1.29514e-07
3.87251e-08
1.29566e-07
1.62147e-07
1.83728e-07
5.72139e-08
1.83831e-07
6.56282e-07
8.63388e-07
8.56169e-07
3.60399e-07
7.66801e-07
8.74098e-07
9.11045e-07
7.71326e-07
6.78724e-07
6.52763e-07
6.09339e-07
7.62121e-07
6.7597e-07
6.97377e-07
1.29566e-07
3.47935e-08
1.29566e-07
5.37287e-08
1.8383e-07
5.12544e-08
1.8383e-07
8.05217e-07
7.1622e-07
7.32751e-07
2.08593e-07
5.88754e-07
4.96997e-07
6.37106e-07
7.56471e-07
7.71084e-07
4.41968e-07
7.23295e-07
7.60297e-07
4.85395e-07
7.7215e-07
1.83825e-07
5.18524e-08
1.83825e-07
5.15443e-08
1.83825e-07
5.1852e-08
1.83825e-07
5.4684e-07
4.63624e-07
5.38268e-07
6.03643e-07
5.40114e-07
5.47682e-07
6.06425e-07
6.34975e-07
7.63323e-07
6.66472e-07
7.15258e-07
6.43514e-07
7.57747e-07
6.45783e-07
1.83828e-07
1.04959e-07
1.83714e-07
5.33457e-08
1.83828e-07
1.05012e-07
1.83714e-07
4.87175e-07
8.73356e-07
9.00789e-07
4.75141e-07
4.05488e-07
8.39538e-07
7.94659e-07
7.60076e-07
7.69505e-07
4.45127e-07
7.20617e-07
7.56946e-07
7.6551e-07
5.9814e-07
5.20161e-08
7.74876e-07
5.19908e-08
2.09952e-07
5.20161e-08
7.75019e-07
5.19908e-08
9.19977e-07
9.21446e-07
9.15522e-07
8.55134e-07
9.073e-07
8.51617e-07
8.52907e-07
6.36233e-07
7.38223e-07
4.5625e-07
6.73433e-07
6.35102e-07
7.38479e-07
4.58937e-07
5.2011e-08
7.74582e-07
5.77626e-08
7.75698e-07
5.20112e-08
7.73863e-07
5.77266e-08
8.20836e-07
5.01212e-07
4.7545e-07
4.46049e-07
3.81572e-07
4.94885e-07
4.35915e-07
7.27597e-07
7.53983e-07
6.79069e-07
6.95173e-07
7.25042e-07
7.53527e-07
5.89838e-07
6.29841e-08
7.75812e-07
7.14173e-08
7.76794e-07
6.29092e-08
7.7578e-07
7.15078e-08
6.38792e-07
6.45309e-07
3.34305e-07
5.25694e-07
5.83994e-07
5.54119e-07
3.67937e-07
7.44843e-07
7.66853e-07
6.45896e-07
7.43215e-07
7.44349e-07
7.64265e-07
6.51346e-07
7.32541e-08
7.731e-07
6.22146e-08
7.74018e-07
7.31668e-08
7.73629e-07
6.2235e-08
5.05963e-07
5.07861e-07
1.04244e-07
5.5333e-07
7.52072e-07
3.99311e-07
6.89824e-07
7.38174e-07
7.4403e-07
6.19616e-07
7.20293e-07
7.38249e-07
7.37895e-07
6.16499e-07
5.741e-08
7.77291e-07
5.20089e-08
7.75099e-07
5.74439e-08
7.77186e-07
5.20088e-08
7.07138e-07
7.92743e-07
8.83247e-07
4.63225e-07
2.93653e-07
9.01845e-07
7.83475e-07
6.61487e-07
7.09798e-07
3.09341e-07
5.81112e-07
6.27995e-07
7.143e-07
3.61854e-07
5.19896e-08
3.41038e-07
5.20157e-08
7.74604e-07
5.19897e-08
3.41542e-07
5.20158e-08
4.31445e-07
3.14813e-07
4.99306e-07
5.17168e-07
8.17671e-07
7.39014e-07
3.55992e-07
6.90037e-07
7.46488e-07
5.10148e-07
6.33341e-07
6.84173e-07
7.36556e-07
4.97387e-07
1.83723e-07
5.7284e-08
1.83825e-07
1.62022e-07
1.83723e-07
5.73202e-08
1.83825e-07
8.06965e-07
8.81312e-07
8.82716e-07
7.81451e-07
8.82704e-07
6.52339e-07
8.63683e-07
7.62382e-07
7.65742e-07
7.74552e-07
6.50703e-07
7.67764e-07
7.66116e-07
7.45372e-07
1.83825e-07
5.15463e-08
1.83824e-07
5.3761e-08
1.83825e-07
5.12824e-08
1.83824e-07
5.7075e-07
7.04599e-07
4.88063e-07
1.58073e-07
6.07201e-07
6.43839e-07
6.21594e-07
7.54136e-07
7.59884e-07
7.36867e-07
7.48917e-07
7.58167e-07
7.26754e-07
7.63369e-07
1.8383e-07
5.1848e-08
1.8383e-07
3.47976e-08
1.29566e-07
3.49373e-08
1.29566e-07
7.64804e-07
5.53338e-07
6.74081e-07
5.99702e-07
6.16453e-07
6.61381e-07
6.38794e-07
6.49849e-07
7.73712e-07
6.07441e-07
7.07747e-07
6.34068e-07
7.70468e-07
5.87385e-07
1.83832e-07
1.05028e-07
1.83718e-07
3.59536e-08
1.29567e-07
7.26387e-08
1.29509e-07
7.96429e-07
9.02956e-07
7.20025e-07
7.74759e-07
7.06269e-07
8.07551e-07
7.87537e-07
7.55242e-07
7.6824e-07
7.2968e-07
7.54227e-07
7.51088e-07
7.69534e-07
7.18447e-07
5.20165e-08
7.74981e-07
5.19911e-08
1.50014e-07
3.51956e-08
6.97061e-07
3.52814e-08
9.08083e-07
9.16257e-07
8.72385e-07
8.67705e-07
8.89418e-07
8.78403e-07
7.75594e-07
6.63635e-07
7.68788e-07
4.61622e-07
7.21036e-07
6.17988e-07
7.69189e-07
4.76297e-07
5.20111e-08
7.75119e-07
5.76667e-08
7.01132e-07
3.52891e-08
7.00938e-07
3.89461e-08
5.16544e-07
5.36741e-07
3.89869e-07
6.5775e-07
8.03755e-07
3.63887e-07
3.18461e-07
7.71434e-07
7.60206e-07
6.69721e-07
7.33641e-07
7.61659e-07
7.64134e-07
6.96698e-07
6.28453e-08
7.75788e-07
7.13208e-08
7.00966e-07
4.23374e-08
7.00694e-07
4.7668e-08
7.72048e-07
6.13532e-07
5.4346e-07
7.95684e-07
8.18603e-07
8.52127e-07
7.5291e-07
7.42689e-07
7.69858e-07
5.89188e-07
6.98815e-07
7.45506e-07
7.69219e-07
6.20422e-07
7.29882e-08
7.73991e-07
6.21302e-08
7.00773e-07
4.87263e-08
7.00243e-07
4.19325e-08
6.76448e-07
7.08631e-07
4.82144e-07
7.11303e-07
7.71199e-07
7.47387e-07
7.30162e-07
7.46706e-07
7.45602e-07
6.11e-07
7.434e-07
7.47889e-07
7.52583e-07
6.19982e-07
5.73328e-08
7.76861e-07
5.20089e-08
7.00672e-07
3.87777e-08
7.00991e-07
3.52893e-08
7.22703e-07
8.40253e-07
8.22974e-07
6.72495e-07
8.63307e-07
8.27526e-07
7.65673e-07
7.5133e-07
7.31395e-07
5.86641e-07
7.33173e-07
7.36164e-07
7.47793e-07
5.98145e-07
5.199e-08
3.41763e-07
5.20163e-08
6.96689e-07
3.52582e-08
2.6229e-07
3.50726e-08
8.713e-07
6.98743e-07
7.72904e-07
8.83925e-07
7.95204e-07
8.67161e-07
7.70369e-07
6.55464e-07
7.49115e-07
5.35277e-07
6.84288e-07
6.65403e-07
7.55646e-07
5.48223e-07
1.83728e-07
5.72181e-08
1.8383e-07
1.1467e-07
1.29515e-07
3.87584e-08
1.29566e-07
8.89115e-07
3.15375e-07
8.67608e-07
5.96414e-07
8.75785e-07
3.43668e-07
5.84584e-07
7.64813e-07
7.73433e-07
7.00019e-07
7.50813e-07
7.64951e-07
7.7169e-07
6.98441e-07
1.8383e-07
5.12684e-08
1.8383e-07
3.62508e-08
1.29566e-07
3.48116e-08
1.29566e-07
4.15772e-07
4.70141e-07
4.51731e-08
7.31659e-08
6.64934e-08
3.26105e-07
5.47478e-07
7.49724e-07
3.6087e-07
6.90699e-07
7.32517e-07
4.32414e-07
7.54436e-07
6.88687e-07
7.50483e-07
5.86327e-08
6.90069e-07
8.71953e-08
8.53811e-08
7.61865e-07
6.85883e-07
7.64433e-07
3.89674e-07
7.61992e-07
4.83857e-07
5.8523e-07
7.64051e-07
7.49811e-07
4.1072e-07
7.34548e-08
5.379e-07
6.70847e-08
6.67891e-08
4.03887e-07
5.37158e-07
7.15105e-07
7.31543e-07
3.82465e-07
7.39304e-07
4.24304e-07
7.51222e-07
6.23443e-07
7.44518e-07
8.71893e-08
8.50509e-08
7.60468e-07
8.5268e-08
7.60905e-07
7.43056e-07
7.70257e-07
6.94308e-07
1.401e-07
1.3215e-07
7.66659e-07
1.95715e-07
6.96845e-07
7.64506e-07
3.32919e-07
6.96246e-07
7.29837e-07
4.90179e-07
7.65785e-07
6.96696e-07
7.71747e-07
3.7862e-07
7.00929e-07
7.67744e-07
4.71177e-07
7.75352e-07
6.98689e-07
7.06178e-07
7.20175e-07
7.58672e-07
6.66543e-07
7.57862e-07
6.66456e-07
6.79263e-07
7.66503e-07
1.31911e-07
7.64208e-07
1.95055e-07
7.6453e-07
1.95303e-07
7.62203e-07
7.5967e-07
7.3038e-07
7.02784e-07
7.56309e-07
6.21897e-07
7.59157e-07
7.57112e-07
7.69984e-07
7.6757e-07
4.67581e-07
7.7115e-07
4.6879e-07
7.74463e-07
7.68362e-07
7.6956e-07
6.99876e-07
7.00617e-07
7.73164e-07
7.73612e-07
7.77036e-07
6.98659e-07
7.6066e-07
6.48633e-07
6.95346e-07
7.68429e-07
6.82417e-07
7.63043e-07
6.96429e-07