/*--------------------------------*- C++ -*----------------------------------*\
| =========                 |                                                 |
| \\      /  F ield         | OpenFOAM: The Open Source CFD Toolbox           |
|  \\    /   O peration     | Version:  5.0                                   |
|   \\  /    A nd           | Web:      www.OpenFOAM.org                      |
|    \\/     M anipulation  |                                                 |
\*---------------------------------------------------------------------------*/
FoamFile
{
    version     2.0;
    format      ascii;
    class       volVectorField;
    location    "2.9";
    object      U;
}
// * * * * * * * * * * * * * * * * * * * * * * * * * * * * * * * * * * * * * //

dimensions      [0 1 -1 0 0 0 0];

internalField   nonuniform List<vector> 
8563
(
(-0.00249101 -0.00546289 0.000367598)
(-0.00511843 -0.00607383 1.95077e-06)
(0.00820303 -0.00813825 0.000476425)
(0.032923 0.0109757 -0.00317168)
(-0.0156127 0.00173711 -0.000602454)
(-0.000241221 0.00154573 -0.00141899)
(0.000264767 2.08728e-05 1.31803e-05)
(0.000839998 -3.06478e-05 -2.30574e-06)
(0.000816676 -1.6926e-05 -1.15958e-07)
(0.000824915 -1.03719e-05 1.19534e-07)
(0.000824306 -6.24981e-06 9.11664e-08)
(0.000823137 -4.00889e-06 5.85945e-08)
(0.000822301 -2.45654e-06 -2.32271e-08)
(0.000820652 -1.29718e-06 5.23163e-08)
(0.000818712 -8.3243e-07 4.32367e-08)
(0.000817215 -6.24903e-07 1.77791e-08)
(0.000815758 -5.25097e-07 5.34341e-08)
(0.000814525 -3.89051e-07 8.70057e-08)
(0.000812831 -3.89085e-07 9.67905e-08)
(0.000811306 -3.27667e-07 1.02313e-07)
(0.000810018 -1.2069e-07 4.44921e-08)
(0.000808416 2.0363e-08 6.47569e-08)
(0.000806817 -1.32173e-07 5.81973e-08)
(0.000805283 -7.95762e-08 4.83001e-08)
(0.000803856 5.99021e-08 6.99939e-08)
(0.000802094 6.00742e-08 6.99957e-08)
(0.000800329 2.91249e-08 5.49118e-08)
(0.000798917 2.09914e-08 5.28753e-08)
(0.000797291 1.59584e-07 6.91297e-08)
(0.000795667 -1.98333e-07 1.25811e-07)
(0.000793972 -4.68259e-07 7.69513e-08)
(0.000792176 -4.99254e-07 5.11681e-08)
(0.000790534 -3.56233e-07 8.80195e-08)
(0.00078939 8.24028e-08 9.24398e-08)
(0.000788233 1.00138e-07 4.70262e-08)
(0.000786377 1.9911e-07 5.65136e-08)
(0.000784474 2.35856e-07 4.79208e-08)
(0.000782696 3.14299e-07 3.38725e-08)
(0.00078168 5.05207e-07 9.00405e-08)
(0.000780505 1.7179e-07 1.49996e-07)
(0.000778764 2.87801e-08 3.04615e-08)
(0.000777201 6.28004e-08 6.25892e-08)
(0.000775847 -9.09551e-08 7.53387e-08)
(0.000774049 -2.36484e-07 2.00575e-08)
(0.000772171 -6.09705e-08 3.91337e-08)
(0.000770949 1.56544e-07 5.08263e-08)
(0.000769933 1.36416e-07 6.2965e-08)
(0.000768656 -5.64331e-08 4.35872e-08)
(0.000766886 -3.55391e-07 4.71631e-08)
(0.000765274 -3.0685e-07 1.11304e-08)
(0.00379041 0.00316079 -0.000201632)
(-0.00268341 -0.00705472 0.012094)
(0.0049251 -0.000398614 0.000800383)
(-0.027282 -0.00247419 -0.000621809)
(0.00233048 0.0212857 4.2943e-05)
(0.00890779 0.00755275 0.000185511)
(0.000412588 -3.64979e-05 2.59394e-05)
(0.000910509 -6.44053e-05 -1.56407e-06)
(0.000843582 -3.62823e-06 -3.42874e-07)
(0.000835802 -1.02072e-05 1.85824e-07)
(0.000830052 -4.98698e-06 4.6758e-08)
(0.000826251 -3.35218e-06 1.62797e-08)
(0.000823507 -2.09138e-06 8.99534e-08)
(0.000821234 -1.53803e-06 4.69931e-08)
(0.000819412 -9.36959e-07 4.74368e-08)
(0.00081753 -6.60582e-07 5.58705e-08)
(0.000815877 -1.4799e-07 5.38781e-08)
(0.000814427 4.15602e-08 6.65174e-08)
(0.000813142 1.3685e-07 2.22335e-08)
(0.000811726 1.20944e-07 2.36361e-08)
(0.000810025 1.78108e-07 2.05775e-08)
(0.000808299 1.2852e-08 -4.01496e-08)
(0.000806676 1.71518e-08 4.73823e-08)
(0.000805369 5.63251e-08 6.06046e-08)
(0.000803795 -1.35349e-07 6.4885e-08)
(0.000802086 -2.95699e-07 4.75127e-08)
(0.000800513 -2.50283e-07 3.62175e-08)
(0.000798978 -2.58956e-07 4.62299e-08)
(0.000797093 -5.38279e-07 6.5296e-08)
(0.000795186 -4.46289e-07 -1.24561e-07)
(0.000793857 -3.35871e-07 -1.3157e-07)
(0.000792433 -1.52854e-07 2.24681e-08)
(0.000791267 4.01048e-07 1.25991e-07)
(0.000789801 5.85796e-07 5.18783e-08)
(0.000787849 2.46657e-07 4.60925e-08)
(0.000786348 1.02261e-07 3.91771e-08)
(0.000784931 1.30065e-07 4.37714e-08)
(0.000783484 3.21292e-07 1.09009e-08)
(0.000781521 5.29218e-07 5.95509e-08)
(0.0007797 1.78323e-07 4.87227e-08)
(0.000778434 6.20525e-08 5.98983e-08)
(0.000776917 -1.99479e-07 6.89633e-08)
(0.000775245 -2.70916e-07 2.88162e-08)
(0.000774184 -4.5266e-07 6.13189e-08)
(0.000773092 -7.19598e-09 5.39036e-08)
(0.000771294 2.40313e-07 6.06666e-08)
(0.000769596 3.80475e-07 5.29339e-08)
(0.00076817 1.00179e-07 4.20405e-08)
(0.000766783 -7.38123e-08 -7.13458e-08)
(0.000765756 -1.54294e-07 1.09544e-07)
(-0.0220883 -0.00681144 0.00122565)
(-0.00706091 -0.00467184 -0.00300513)
(0.0261332 -0.0092227 0.00106232)
(0.00327329 -0.00807327 0.00051141)
(-0.0134556 -0.0157242 0.00522347)
(0.00303214 -0.00621173 -0.000191418)
(0.00152836 3.17872e-05 -2.41435e-05)
(0.000505005 -2.22517e-06 -7.52998e-07)
(0.000898466 6.93314e-06 -1.6429e-06)
(0.000823251 -5.33646e-06 -4.43145e-07)
(0.000832876 -1.88884e-06 1.78807e-07)
(0.000826756 -1.47505e-06 3.6111e-08)
(0.00082457 -9.62576e-07 4.80892e-08)
(0.000822097 -5.68449e-07 5.29977e-08)
(0.000819811 -3.26688e-07 5.47545e-08)
(0.000818203 -2.0663e-07 5.30424e-08)
(0.000816637 -3.44125e-08 4.81351e-08)
(0.00081488 3.00911e-08 6.3152e-08)
(0.000812929 -9.33191e-09 1.21082e-07)
(0.000811356 -8.068e-08 4.61364e-08)
(0.000809881 -2.09448e-07 4.17039e-08)
(0.000808213 -1.01231e-07 4.91921e-08)
(0.00080687 1.31041e-08 3.91221e-08)
(0.000805091 7.73633e-08 7.10986e-08)
(0.000803416 2.74278e-08 5.22843e-08)
(0.000801951 2.13458e-08 3.60979e-08)
(0.000800377 -3.89279e-08 1.75873e-08)
(0.000798561 -7.34822e-08 6.248e-08)
(0.000797061 -1.32196e-07 3.38669e-09)
(0.000795925 3.10543e-07 -2.46883e-08)
(0.000794343 4.33617e-07 1.82978e-07)
(0.000793098 4.38364e-07 6.73267e-08)
(0.000791455 4.39424e-07 -3.29231e-09)
(0.000789193 1.49687e-07 7.25172e-09)
(0.000787626 9.20409e-08 9.93838e-08)
(0.00078623 1.48119e-07 5.85225e-08)
(0.000784746 8.62636e-08 7.66665e-08)
(0.000783192 -1.64456e-08 5.29827e-08)
(0.000781497 -1.17616e-07 3.05672e-08)
(0.000779918 1.7551e-09 1.35869e-07)
(0.000778291 -1.35875e-08 9.51952e-08)
(0.000776786 -4.73795e-08 5.45881e-08)
(0.000775533 2.76772e-07 1.58583e-07)
(0.000774381 4.41183e-07 1.13073e-07)
(0.00077304 2.42324e-07 5.70271e-08)
(0.000771433 1.01371e-07 5.05943e-08)
(0.000769758 2.67114e-07 1.34254e-07)
(0.000768088 3.99349e-07 7.83601e-08)
(0.000766573 2.4264e-07 1.87653e-08)
(0.000765556 1.28075e-07 9.53081e-08)
(0.0070445 0.00673368 0.000200312)
(-0.000622796 0.00902165 0.000415068)
(0.00983481 -0.000969709 0.000239472)
(0.00330895 -0.0038617 0.000241782)
(0.00562065 -0.0228725 -0.00022718)
(0.00570916 -0.00199326 0.00034629)
(0.000432135 0.000168488 -1.97785e-05)
(0.000483495 5.1286e-06 -1.39687e-07)
(0.000916009 -6.57126e-06 -1.07087e-06)
(0.000825028 1.25233e-06 -5.21162e-07)
(0.000834897 1.11457e-06 1.82283e-07)
(0.000827416 1.28296e-06 3.37792e-08)
(0.000824646 7.26672e-07 6.37833e-08)
(0.000822032 5.53459e-07 5.44268e-08)
(0.000819866 5.00691e-07 5.11691e-08)
(0.000817896 4.16472e-07 4.89363e-08)
(0.000816174 -1.16981e-08 5.08603e-08)
(0.000814459 -1.774e-07 4.98089e-08)
(0.000813004 -4.27056e-07 3.88431e-08)
(0.000811476 -3.60083e-07 2.99605e-08)
(0.00081 -3.74469e-07 8.98133e-08)
(0.000808577 -2.12719e-07 5.27179e-08)
(0.000806898 -1.2183e-07 5.096e-08)
(0.000805386 -8.47355e-08 7.50767e-08)
(0.000803723 6.26712e-08 2.91306e-08)
(0.000802003 1.77949e-07 3.14145e-08)
(0.000800394 3.00733e-07 6.30907e-08)
(0.000798862 4.47025e-07 5.80014e-08)
(0.000797572 7.21821e-07 3.99315e-08)
(0.00079589 4.05057e-07 5.69949e-08)
(0.000794012 3.59864e-07 8.81717e-08)
(0.000792435 5.17281e-07 5.74936e-08)
(0.000790902 -1.28199e-08 4.60956e-08)
(0.000789365 -4.8642e-08 5.38304e-08)
(0.000787846 1.04376e-07 2.25006e-08)
(0.000786341 4.87741e-08 4.61379e-08)
(0.000784726 -1.24653e-08 4.47152e-08)
(0.000783229 4.25509e-09 3.99937e-08)
(0.000781544 -1.68883e-07 1.55364e-08)
(0.00077983 -9.57467e-08 7.03197e-08)
(0.000778372 -4.40608e-08 5.16276e-08)
(0.000777279 1.91508e-07 1.60564e-07)
(0.000775853 3.09288e-07 1.64708e-07)
(0.000774136 3.97227e-07 -3.07346e-08)
(0.000772663 7.04261e-08 3.1667e-08)
(0.000771322 1.65809e-08 4.37496e-08)
(0.000769965 4.36248e-08 7.36337e-08)
(0.000768137 3.28625e-07 5.068e-08)
(0.00076644 1.62021e-07 4.87225e-08)
(0.000765293 2.42946e-07 1.70307e-07)
(0.00644185 -0.00884382 -0.000834313)
(-0.0132916 -0.00479476 -0.000420093)
(0.0059076 0.00124487 0.00024403)
(0.00799383 -0.00502045 0.000477685)
(-0.0057691 0.00583892 -1.31589e-05)
(-0.00260868 -0.000822284 4.38028e-05)
(0.0008146 5.52394e-05 6.17318e-06)
(0.000381113 -1.51437e-05 6.46028e-06)
(0.000882515 1.14008e-05 -1.94149e-06)
(0.000832872 1.14819e-05 -3.25396e-07)
(0.000832944 6.60327e-06 1.19021e-07)
(0.000826285 4.02929e-06 5.61468e-08)
(0.000823664 2.72202e-06 1.12442e-07)
(0.000821817 1.5237e-06 5.59198e-08)
(0.00081964 7.22651e-07 3.52614e-08)
(0.000817562 3.66002e-07 2.50935e-08)
(0.000815894 2.92608e-07 5.32895e-08)
(0.000814363 1.77185e-07 3.84468e-08)
(0.000812703 2.57187e-07 2.28169e-07)
(0.000811425 3.12426e-07 3.3326e-08)
(0.000810068 2.49756e-07 6.73462e-08)
(0.000808531 2.04761e-07 1.83975e-08)
(0.000807032 1.45465e-07 8.29258e-08)
(0.000805323 1.24807e-07 1.03031e-07)
(0.000803744 5.80419e-08 7.12656e-08)
(0.000802247 -5.49821e-08 6.87502e-08)
(0.00080071 1.88091e-07 6.56866e-08)
(0.000799081 3.63082e-07 3.75504e-08)
(0.000797002 5.30664e-07 2.32237e-07)
(0.000795466 7.25916e-07 3.808e-08)
(0.000794477 3.68375e-07 7.07147e-08)
(0.000792627 7.15933e-08 4.38374e-08)
(0.000790745 2.18141e-07 5.11601e-08)
(0.000789338 1.12765e-07 5.16379e-08)
(0.000787747 9.99722e-08 6.30933e-08)
(0.000786083 -2.47091e-08 4.79118e-08)
(0.00078469 -5.91701e-08 5.57579e-08)
(0.000782998 -1.89106e-07 4.48202e-08)
(0.000781373 -1.9359e-07 4.39119e-08)
(0.000780075 -1.56321e-07 7.86992e-08)
(0.00077865 7.11284e-08 5.51475e-08)
(0.000777225 3.07264e-07 1.28834e-07)
(0.000775787 -3.60607e-08 2.41372e-08)
(0.000774079 -1.29747e-08 7.95607e-08)
(0.000772562 -1.76779e-07 4.04646e-08)
(0.000771399 -2.63805e-07 5.11497e-08)
(0.000770147 -5.52118e-07 8.5029e-09)
(0.000768234 -8.71554e-07 4.15998e-08)
(0.00076646 -3.43153e-07 6.28481e-08)
(0.000765053 4.68682e-08 5.20436e-08)
(-0.00452335 0.00125977 0.00108384)
(-0.0103544 -0.0158827 0.00044514)
(0.0233096 0.00401983 -0.000102807)
(-0.000567273 0.00476027 3.29383e-05)
(0.00108371 -0.00111339 -0.000368014)
(0.00410826 -0.00124557 0.000152793)
(0.00110661 0.000321943 1.72197e-05)
(0.000480722 1.84432e-05 1.61911e-05)
(0.000857547 4.06797e-05 -1.70814e-06)
(0.000819061 1.78796e-05 -3.05395e-07)
(0.000825581 1.05245e-05 1.57801e-07)
(0.000822564 5.7755e-06 5.73185e-08)
(0.000821513 3.61975e-06 8.06339e-08)
(0.000819532 1.98801e-06 5.16707e-08)
(0.00081842 9.94679e-07 8.76159e-08)
(0.00081736 5.12812e-07 9.07571e-08)
(0.000815939 3.63923e-07 5.31234e-08)
(0.000814414 3.16259e-07 4.87103e-08)
(0.000813172 2.15597e-07 2.57805e-08)
(0.000811465 4.00707e-07 1.077e-07)
(0.000809864 3.29684e-07 -1.7431e-07)
(0.000808445 3.01745e-07 1.17549e-07)
(0.000806797 2.05735e-07 8.35968e-08)
(0.000805276 1.49098e-07 2.55051e-08)
(0.000803499 1.79405e-07 -3.74572e-08)
(0.000802165 2.43065e-07 8.96562e-09)
(0.000800915 1.12108e-08 1.38284e-07)
(0.000799287 -1.22897e-07 1.01021e-08)
(0.000798021 4.0401e-08 3.56883e-08)
(0.000795683 -1.0206e-07 -1.0832e-07)
(0.000793192 -1.70811e-07 2.67362e-08)
(0.000792245 -2.24611e-07 1.66326e-07)
(0.000790953 -1.76422e-07 1.91129e-08)
(0.000789215 -1.1125e-07 5.61326e-08)
(0.000787673 -1.56909e-07 8.35825e-09)
(0.000786141 -1.86775e-08 4.1019e-08)
(0.000784521 7.13967e-09 6.06549e-08)
(0.000783063 -1.76077e-08 7.22587e-08)
(0.000781587 1.41392e-07 6.27594e-08)
(0.000780161 1.54181e-07 6.4473e-08)
(0.000778951 1.61099e-07 5.0427e-08)
(0.000777143 1.19339e-07 1.52664e-08)
(0.000775452 -5.07026e-09 3.27021e-08)
(0.000773961 -1.87541e-07 7.07009e-08)
(0.000772351 -1.44041e-07 4.04161e-08)
(0.000770856 -2.60459e-07 4.59659e-08)
(0.00076921 -5.63159e-07 -6.90032e-08)
(0.000768403 -7.91063e-07 -1.23672e-07)
(0.000767589 -5.0241e-07 9.05006e-08)
(0.000765664 -3.41876e-07 1.31611e-07)
(-0.000442819 -0.00629306 0.000158227)
(0.00978121 0.00450061 -0.000544169)
(-0.00647837 -0.00874799 3.13148e-05)
(-0.00349709 0.00104678 -4.92673e-05)
(0.0198324 -0.00960622 -0.000841419)
(-0.0277946 0.00150507 -0.00208698)
(4.44489e-05 0.000361579 5.1118e-05)
(0.000503571 6.38358e-05 5.23406e-06)
(0.000858578 2.21538e-05 -9.92445e-07)
(0.000795097 1.08493e-05 -5.17699e-07)
(0.000817774 6.59107e-06 1.9958e-07)
(0.000817632 3.98875e-06 3.96574e-08)
(0.000818919 2.17149e-06 5.93266e-08)
(0.00081853 1.3887e-06 5.35777e-08)
(0.000817795 9.5567e-07 5.06728e-08)
(0.000816773 6.65036e-07 5.39524e-08)
(0.000815649 4.43442e-07 5.14597e-08)
(0.000814177 2.46169e-07 5.61806e-08)
(0.000812807 1.15885e-07 9.13253e-08)
(0.000811565 -7.36102e-08 6.78733e-08)
(0.000809942 1.26262e-07 4.78202e-08)
(0.000808374 3.44521e-08 4.69768e-08)
(0.000806839 1.05933e-07 -4.44046e-08)
(0.000805289 6.47178e-08 4.8071e-08)
(0.00080386 1.25988e-07 8.21872e-08)
(0.000802036 2.14089e-07 9.70219e-08)
(0.000800253 -5.79415e-08 5.55076e-08)
(0.000799119 -2.48372e-07 8.34749e-08)
(0.00079703 -8.12262e-07 -4.94279e-08)
(0.000795204 -1.14475e-06 1.21041e-07)
(0.000794326 -6.02633e-07 -4.09215e-08)
(0.000792624 -1.49131e-07 8.7695e-08)
(0.000790889 -4.64401e-08 8.43649e-08)
(0.000789365 -7.26796e-08 7.59271e-08)
(0.000787864 -4.95971e-08 6.62002e-08)
(0.000786289 2.02329e-08 6.10899e-08)
(0.000784692 2.73376e-08 3.55567e-08)
(0.000783165 9.98913e-08 6.61579e-08)
(0.000781587 7.90592e-08 3.84834e-08)
(0.000780099 2.46223e-07 -6.08396e-08)
(0.000778605 1.96218e-08 4.55399e-08)
(0.000777017 -2.47865e-07 5.14635e-09)
(0.000775404 -1.9804e-07 6.60456e-08)
(0.000773907 -2.67156e-07 6.22246e-08)
(0.000772473 -1.10346e-07 2.52335e-08)
(0.000770878 -5.18206e-08 5.02189e-08)
(0.000769488 -4.75382e-08 -5.90238e-08)
(0.000768316 1.24378e-07 5.754e-08)
(0.000767031 -2.30814e-07 3.70741e-08)
(0.000766107 -3.2528e-07 5.49841e-08)
(-0.000569235 0.000697902 0.00042136)
(-0.00264773 -0.00500275 -0.000476415)
(-0.0104172 0.00429248 -8.82406e-05)
(-0.00662571 0.00564126 0.000905583)
(-0.00801211 0.0287826 0.00086889)
(0.0213413 -0.0254226 -0.00148165)
(0.00103279 -0.00084115 7.68805e-05)
(0.000429462 -4.05014e-05 -1.32594e-07)
(0.000851324 -2.16993e-05 -1.32384e-06)
(0.000799407 -2.11546e-06 -4.78892e-07)
(0.000816969 -1.47499e-06 1.63096e-07)
(0.000817021 -9.89698e-08 3.18719e-08)
(0.000818253 1.1569e-07 5.53277e-08)
(0.000818007 1.63115e-07 4.92858e-08)
(0.000817511 1.72668e-07 6.42035e-08)
(0.000816717 8.98405e-08 5.10916e-08)
(0.000815413 3.44669e-08 1.08736e-07)
(0.000814004 6.39229e-08 1.26248e-07)
(0.000812772 2.70272e-07 5.69138e-09)
(0.000811479 9.93469e-08 2.80996e-08)
(0.00081 -3.66528e-08 4.94201e-08)
(0.00080842 -1.19353e-08 6.03102e-08)
(0.000806835 -1.46666e-07 4.16385e-08)
(0.000805301 -9.24385e-08 5.01512e-08)
(0.000803685 -2.49695e-07 6.32927e-08)
(0.000801934 -3.20922e-07 5.17461e-08)
(0.000800337 -1.26965e-07 -8.20676e-08)
(0.000798347 -1.64159e-07 4.27322e-08)
(0.000796907 -3.44408e-07 1.49421e-07)
(0.000795951 2.125e-07 7.54746e-08)
(0.000794442 2.2958e-07 7.22826e-08)
(0.000792943 -8.91024e-09 3.40631e-08)
(0.000791049 -6.50413e-08 4.27487e-08)
(0.000789212 7.1589e-08 4.94744e-08)
(0.00078779 -1.62556e-09 4.34057e-08)
(0.000786238 -1.23003e-07 2.57024e-08)
(0.00078462 -1.25867e-07 5.97526e-08)
(0.000783127 -1.65e-07 4.27959e-08)
(0.000781768 -3.4806e-08 4.47991e-08)
(0.000780086 -4.24133e-08 2.88547e-08)
(0.000778333 -7.24615e-08 1.67584e-07)
(0.000776873 -3.3874e-08 5.18228e-08)
(0.00077543 -5.87727e-08 5.79632e-08)
(0.000774073 -8.26082e-09 4.85553e-08)
(0.000772622 -5.05329e-08 6.70442e-08)
(0.000770936 6.69914e-08 4.73984e-08)
(0.000769432 4.3241e-07 4.33697e-08)
(0.000768175 3.09197e-07 5.46885e-08)
(0.000767036 1.61599e-07 9.18656e-08)
(0.000766357 -3.19743e-08 3.36478e-08)
(0.00293554 -0.00541378 0.000461072)
(-0.0244643 -0.00517667 0.00181133)
(-0.00557305 0.000668725 -0.0014705)
(0.0211586 0.0230088 -0.000542942)
(0.00276365 -0.00331759 0.000713642)
(0.00907921 -0.00535283 0.000254134)
(0.00085956 -0.000223379 6.3124e-06)
(0.000856603 1.53619e-05 -2.66934e-06)
(0.000825026 -2.34683e-05 -1.20843e-07)
(0.000820245 -6.6254e-06 -4.01074e-08)
(0.000820298 -5.05567e-06 2.32182e-08)
(0.000819623 -2.53411e-06 2.58614e-08)
(0.000819246 -1.47439e-06 3.88831e-08)
(0.0008186 -1.04678e-06 4.6929e-08)
(0.000817702 -5.19204e-07 4.45817e-08)
(0.0008166 -1.99505e-07 1.17557e-07)
(0.000815616 -1.76541e-07 8.47314e-08)
(0.000814471 -6.43939e-08 4.24964e-08)
(0.000812851 2.53447e-08 1.04994e-07)
(0.000811182 1.69531e-07 6.93599e-08)
(0.000809803 -4.58804e-08 5.0681e-08)
(0.000808238 -1.58345e-07 2.18448e-09)
(0.00080674 -1.32329e-07 4.00944e-08)
(0.000805162 -1.87312e-07 5.55312e-08)
(0.000803577 -2.7136e-07 2.22211e-08)
(0.000802192 -2.40527e-07 6.39132e-08)
(0.000800451 -1.20347e-07 5.29536e-08)
(0.000798849 -6.22196e-08 7.742e-08)
(0.000797501 2.5421e-07 1.04451e-07)
(0.000795921 3.06621e-07 -2.26817e-08)
(0.000794048 2.68901e-07 4.35858e-08)
(0.000792254 1.38427e-07 1.04364e-07)
(0.000790989 -2.54892e-07 -3.05171e-07)
(0.000789444 -2.72175e-07 5.97613e-08)
(0.000787621 -2.42554e-07 6.31909e-08)
(0.000786135 -3.42753e-07 8.55522e-08)
(0.000784641 -2.90287e-07 5.17984e-08)
(0.00078328 -2.08639e-07 4.81634e-08)
(0.000781742 -2.7306e-07 9.5327e-08)
(0.000780052 -2.63447e-07 4.22143e-08)
(0.000778616 -1.05943e-07 6.34928e-08)
(0.000777035 -7.48193e-08 -2.41448e-08)
(0.000775437 4.82832e-08 4.07812e-08)
(0.000773918 7.54321e-08 4.0941e-08)
(0.000772568 1.05773e-07 6.7735e-08)
(0.000771481 5.77104e-08 4.13907e-09)
(0.000769789 1.96126e-07 2.06198e-08)
(0.000767975 4.0426e-07 4.25767e-08)
(0.000766604 6.86718e-07 -7.17949e-08)
(0.000765942 4.57188e-07 8.7776e-08)
(0.00363757 -0.00277796 -0.000927534)
(0.0131791 0.00289675 0.000307266)
(0.00421736 0.00265439 0.00017678)
(0.0186223 0.0223043 -0.000339293)
(0.00654159 -0.00394129 0.00374238)
(0.000599993 -0.000829858 7.39176e-05)
(0.000451394 4.79097e-05 3.70788e-05)
(0.000845211 -2.88019e-07 -2.62497e-06)
(0.000817791 -8.91004e-06 -5.16484e-08)
(0.000822463 -6.8095e-06 2.68862e-08)
(0.0008221 -5.17716e-06 6.55875e-08)
(0.000821509 -3.60733e-06 2.67463e-07)
(0.000820117 -2.37075e-06 5.12794e-08)
(0.000819204 -1.16656e-06 7.72764e-08)
(0.000818572 -7.3108e-07 5.30198e-08)
(0.000817146 -3.58543e-07 5.81939e-08)
(0.000815582 -2.38702e-07 4.90124e-08)
(0.000814256 -2.44342e-07 3.56278e-07)
(0.000813064 -1.95663e-07 7.14512e-08)
(0.000811389 -2.60915e-07 2.58336e-08)
(0.00080959 -9.66701e-08 4.29209e-08)
(0.000808313 -8.99423e-08 7.43631e-08)
(0.000806801 4.5609e-08 5.16549e-08)
(0.000805129 -2.82488e-08 4.83708e-08)
(0.000803621 1.42968e-07 5.28352e-08)
(0.000802126 1.95607e-07 5.63918e-08)
(0.000800563 6.53036e-08 1.8117e-07)
(0.000798816 9.8987e-08 4.31049e-08)
(0.000797367 1.20465e-07 4.6343e-08)
(0.000795968 -6.92091e-08 4.54119e-08)
(0.000794229 -8.27619e-08 1.10767e-07)
(0.000792288 -1.30906e-07 -1.84153e-08)
(0.000790537 -1.46764e-07 -7.54489e-08)
(0.00078923 -4.97492e-07 4.02598e-08)
(0.000787704 -1.92498e-07 3.15833e-07)
(0.000786181 -9.35466e-09 4.06287e-08)
(0.00078479 1.12695e-09 4.22256e-08)
(0.000783151 -1.42939e-07 5.21414e-08)
(0.000781703 -4.66921e-07 5.30655e-08)
(0.000780298 -1.94344e-07 5.90428e-08)
(0.000778572 -1.06629e-07 5.94527e-08)
(0.000777066 -7.74943e-08 2.76279e-08)
(0.000775618 2.54711e-08 5.82505e-08)
(0.000774144 2.51234e-07 3.53705e-08)
(0.000772599 1.31343e-07 2.08481e-08)
(0.000771047 -6.34254e-08 4.00591e-08)
(0.000769861 -2.93351e-07 3.06356e-08)
(0.000768783 5.30622e-08 3.36083e-08)
(0.000767088 2.52602e-07 1.18202e-08)
(0.000764931 2.85198e-07 6.83803e-08)
(-0.0067287 -0.0107221 0.000143683)
(0.00159092 -0.00403072 -0.00050458)
(-0.0192409 -0.0107633 -0.0311757)
(-0.0348486 -0.0276973 -0.0135295)
(-0.00788689 0.000791148 -0.00682516)
(-0.000315656 0.000269359 0.0018353)
(0.00106493 0.000188169 1.27714e-05)
(0.00139462 -3.13055e-05 3.15844e-07)
(0.00135796 -1.74998e-05 3.29968e-07)
(0.0013721 -1.10942e-05 4.56593e-07)
(0.00137174 -6.75468e-06 3.6392e-07)
(0.00137023 -4.51698e-06 3.44662e-07)
(0.00136915 -2.78638e-06 2.99462e-07)
(0.00136661 -1.38002e-06 3.6376e-07)
(0.00136348 -8.96624e-07 3.44452e-07)
(0.00136102 -7.19073e-07 3.02592e-07)
(0.00135861 -6.64736e-07 3.40329e-07)
(0.00135649 -5.05305e-07 3.70911e-07)
(0.00135364 -5.37562e-07 3.90518e-07)
(0.00135108 -4.66041e-07 3.63709e-07)
(0.0013489 -1.43032e-07 3.2674e-07)
(0.00134618 1.19789e-07 3.54755e-07)
(0.00134346 -1.43635e-07 3.28393e-07)
(0.00134092 -7.51588e-08 2.95925e-07)
(0.00133853 1.66394e-07 3.48253e-07)
(0.00133561 1.82498e-07 3.56779e-07)
(0.00133272 1.05302e-07 2.92498e-07)
(0.00133044 4.31701e-08 3.39498e-07)
(0.00132762 2.52725e-07 3.6749e-07)
(0.00132477 -4.15761e-07 4.25988e-07)
(0.00132203 -9.08099e-07 3.61138e-07)
(0.00131901 -8.74867e-07 2.48212e-07)
(0.00131634 -6.04671e-07 3.76649e-07)
(0.00131453 1.14978e-07 4.29224e-07)
(0.00131255 2.04189e-07 3.19759e-07)
(0.00130946 3.89738e-07 3.22834e-07)
(0.00130624 3.95735e-07 3.30263e-07)
(0.00130326 5.2982e-07 2.91116e-07)
(0.00130155 8.80067e-07 3.13462e-07)
(0.00129964 3.74566e-07 4.29184e-07)
(0.00129681 7.98955e-08 2.90846e-07)
(0.00129422 1.12755e-07 3.46377e-07)
(0.00129205 -2.24209e-07 3.60356e-07)
(0.00128907 -3.88118e-07 2.47335e-07)
(0.00128603 -1.48827e-07 2.98774e-07)
(0.00128395 1.45209e-07 3.09227e-07)
(0.00128212 1.48341e-07 2.96934e-07)
(0.00128005 -1.71126e-07 3.14292e-07)
(0.00127709 -5.87713e-07 3.51851e-07)
(0.00127433 -4.97865e-07 2.25483e-07)
(-0.00845417 0.00846949 -0.000420731)
(-0.00638937 -0.0131146 0.0437707)
(0.000159775 -0.00496483 -0.00488526)
(-0.0867935 0.0118021 0.00768279)
(-0.0312594 0.0282545 0.00429848)
(-0.0175294 -0.00590406 0.0016992)
(0.000923786 0.000243741 4.16524e-05)
(0.00149357 -9.79996e-05 3.70617e-07)
(0.00139264 -1.12555e-06 3.46149e-07)
(0.00138544 -1.36722e-05 5.72334e-07)
(0.00137877 -6.27749e-06 3.43439e-07)
(0.00137402 -4.32503e-06 2.77615e-07)
(0.00137036 -2.69555e-06 4.7737e-07)
(0.0013671 -2.07816e-06 3.40465e-07)
(0.00136435 -1.27863e-06 3.39693e-07)
(0.00136139 -9.33798e-07 2.78009e-07)
(0.00135872 -1.67344e-07 3.40277e-07)
(0.00135632 7.3139e-08 3.87081e-07)
(0.00135412 2.66293e-07 3.13339e-07)
(0.00135171 2.18577e-07 3.03053e-07)
(0.00134889 3.2e-07 -7.55447e-08)
(0.00134597 6.13403e-08 2.4584e-07)
(0.00134325 1.64856e-07 2.88731e-07)
(0.00134111 2.11338e-07 6.26338e-07)
(0.00133847 -1.16583e-07 3.52524e-07)
(0.00133557 -3.94293e-07 3.29271e-07)
(0.00133292 -3.49943e-07 3.00746e-07)
(0.00133037 -4.34184e-07 3.32967e-07)
(0.00132722 -1.02496e-06 2.98836e-07)
(0.00132403 -7.96709e-07 1.01304e-07)
(0.0013219 -5.91542e-07 5.17189e-08)
(0.00131959 -2.95901e-07 2.79832e-07)
(0.00131755 7.14355e-07 4.80482e-07)
(0.00131515 1.00631e-06 4.37811e-07)
(0.00131194 3.9684e-07 3.33628e-07)
(0.00130934 1.47225e-07 2.84047e-07)
(0.00130697 1.97819e-07 3.15817e-07)
(0.0013046 5.35542e-07 8.44969e-08)
(0.00130139 9.07733e-07 3.84524e-07)
(0.00129835 4.0435e-07 3.54766e-07)
(0.00129618 1.43207e-07 3.38317e-07)
(0.00129364 -2.89454e-07 3.69965e-07)
(0.00129099 -4.3773e-07 2.6172e-07)
(0.00128929 -7.69779e-07 3.51034e-07)
(0.00128737 -6.15751e-08 3.58301e-07)
(0.00128447 2.53685e-07 3.72961e-07)
(0.00128172 5.76954e-07 3.12373e-07)
(0.00127931 1.2273e-07 3.08104e-07)
(0.00127696 -1.96489e-07 7.5843e-08)
(0.00127522 -2.85675e-07 4.04101e-07)
(-0.0205161 -0.00253127 0.00193155)
(0.000130701 -0.0123963 0.00192282)
(4.46171e-06 0.00598598 -0.00425234)
(-0.0185866 -0.0362368 0.0146689)
(0.017372 -0.0252044 0.0285491)
(0.00366977 -0.0177553 0.0011136)
(0.00158574 -0.00015852 -4.00289e-05)
(0.00148478 -1.3678e-05 1.16661e-06)
(0.00148676 8.73409e-06 -2.81274e-07)
(0.00136568 -9.98323e-06 3.36723e-07)
(0.00138339 -3.69401e-06 3.44135e-07)
(0.00137469 -2.71116e-06 3.41512e-07)
(0.00137195 -1.7441e-06 3.41792e-07)
(0.00136838 -1.03572e-06 3.40979e-07)
(0.00136491 -6.0743e-07 3.40266e-07)
(0.00136241 -3.87913e-07 3.33013e-07)
(0.00135987 -1.01673e-07 3.41031e-07)
(0.00135703 1.53528e-08 2.78422e-07)
(0.00135382 -6.79719e-08 5.15714e-07)
(0.00135115 -1.41254e-07 3.33725e-07)
(0.0013487 -3.06252e-07 2.78865e-07)
(0.00134598 -1.31375e-07 3.36124e-07)
(0.00134364 8.96558e-08 3.57926e-07)
(0.00134056 2.08455e-07 3.20016e-07)
(0.00133777 6.25363e-08 3.48042e-07)
(0.00133532 7.68882e-08 3.09772e-07)
(0.00133268 -1.36837e-08 1.38263e-08)
(0.0013296 -5.92736e-08 3.22484e-07)
(0.00132717 -1.65715e-07 2.19663e-07)
(0.00132532 6.15446e-07 2.39718e-07)
(0.00132266 8.58038e-07 4.60331e-07)
(0.00132064 8.18745e-07 4.74796e-07)
(0.00131796 7.3393e-07 2.18023e-07)
(0.00131413 2.94317e-07 1.84178e-07)
(0.00131147 1.15977e-07 3.37946e-07)
(0.00130921 1.98941e-07 3.40162e-07)
(0.00130673 1.41886e-07 3.00645e-07)
(0.00130414 -1.47763e-08 3.51434e-07)
(0.00130138 -1.66316e-07 3.11233e-07)
(0.00129868 -1.21905e-08 4.32084e-07)
(0.00129594 -1.04426e-08 3.87292e-07)
(0.00129349 -1.7776e-09 3.48481e-07)
(0.00129146 5.64133e-07 4.68517e-07)
(0.00128954 7.74765e-07 3.62324e-07)
(0.00128731 5.13596e-07 1.04224e-07)
(0.00128475 2.75014e-07 3.17828e-07)
(0.00128195 4.7831e-07 4.45076e-07)
(0.00127908 6.41768e-07 3.50371e-07)
(0.00127659 3.78547e-07 2.75992e-07)
(0.00127493 2.04834e-07 3.75823e-07)
(-0.00135424 -0.00236101 -0.00088235)
(-0.00380952 -0.0242408 -0.000719327)
(0.0168791 0.0226702 0.000310207)
(0.00134529 -0.00805277 0.000482967)
(0.0141731 -0.00346153 -0.00156424)
(-0.0049211 -0.00570576 0.00181262)
(0.000959314 0.000563469 0.000140588)
(0.00142369 6.01341e-06 4.86904e-06)
(0.00151837 -1.69074e-05 3.24565e-07)
(0.00137038 -1.96998e-06 3.85935e-07)
(0.00138788 -7.05184e-07 3.46306e-07)
(0.00137647 5.4032e-07 3.40096e-07)
(0.00137246 2.08035e-07 3.41077e-07)
(0.00136852 3.04919e-07 3.4097e-07)
(0.00136516 4.44835e-07 3.40011e-07)
(0.00136202 4.56397e-07 3.39212e-07)
(0.00135923 -1.39598e-07 3.38846e-07)
(0.00135636 -3.30424e-07 3.15136e-07)
(0.00135392 -7.30158e-07 3.39536e-07)
(0.00135142 -6.10335e-07 2.99514e-07)
(0.0013489 -6.03655e-07 3.91775e-07)
(0.00134647 -3.68362e-07 3.35523e-07)
(0.00134368 -2.88208e-07 3.15022e-07)
(0.00134107 -1.81104e-07 3.43164e-07)
(0.0013383 7.76873e-08 2.80273e-07)
(0.00133547 2.91179e-07 2.75159e-07)
(0.00133275 5.135e-07 3.93246e-07)
(0.00133018 7.98573e-07 3.92881e-07)
(0.00132806 1.3565e-06 3.53283e-07)
(0.0013253 8.18715e-07 3.25247e-07)
(0.00132215 7.55102e-07 3.84972e-07)
(0.00131942 9.98254e-07 2.64989e-07)
(0.00131689 8.633e-08 3.24016e-07)
(0.00131438 -6.06298e-08 3.32182e-07)
(0.00131182 1.92579e-07 2.66726e-07)
(0.00130937 8.29744e-08 3.16729e-07)
(0.0013067 -4.09753e-08 3.12896e-07)
(0.00130422 -3.01785e-08 2.83318e-07)
(0.00130139 -3.49532e-07 1.96833e-07)
(0.00129854 -2.19354e-07 3.18878e-07)
(0.00129619 -5.88538e-08 2.86933e-07)
(0.00129435 3.63098e-07 4.58188e-07)
(0.00129196 5.95528e-07 5.81486e-07)
(0.00128922 7.22709e-07 1.71774e-07)
(0.00128674 1.5277e-07 2.75855e-07)
(0.00128442 5.73209e-08 3.20463e-07)
(0.00128218 4.04323e-08 3.64534e-07)
(0.00127918 4.8186e-07 3.02395e-07)
(0.00127641 2.89744e-07 3.52569e-07)
(0.0012745 4.10359e-07 5.47216e-07)
(0.0014283 -0.023655 -0.00562899)
(0.00822881 0.0137648 -0.00153637)
(0.0219335 -0.0152784 -0.000166938)
(0.00370763 -0.0015324 -0.00108344)
(0.00199491 -0.00279337 0.00263266)
(-0.00135708 -0.00138504 -0.000552347)
(0.000251764 7.82807e-05 0.000126494)
(0.00157161 -8.23633e-05 1.38501e-05)
(0.00146833 1.01888e-05 7.38449e-07)
(0.00138596 1.32229e-05 4.16145e-07)
(0.00138659 7.29836e-06 3.63852e-07)
(0.00137586 4.37103e-06 3.94034e-07)
(0.00137168 3.10727e-06 3.27776e-07)
(0.00136869 1.65972e-06 3.40643e-07)
(0.0013651 6.80569e-07 3.64311e-07)
(0.00136168 2.95418e-07 3.39496e-07)
(0.00135889 2.8874e-07 3.3946e-07)
(0.0013563 1.56892e-07 3.27364e-07)
(0.00135348 3.56634e-07 5.25318e-07)
(0.00135131 4.69966e-07 2.13068e-07)
(0.00134901 3.3825e-07 3.70109e-07)
(0.00134638 3.03729e-07 3.17645e-07)
(0.00134388 2.1568e-07 4.75608e-07)
(0.00134102 1.6129e-07 3.83405e-07)
(0.00133836 1.01067e-07 2.6252e-07)
(0.00133586 -1.18132e-07 3.72017e-07)
(0.00133331 2.9965e-07 3.83738e-07)
(0.00133065 5.83963e-07 3.08226e-07)
(0.00132719 8.7284e-07 5.03583e-07)
(0.00132456 1.12765e-06 3.55434e-07)
(0.00132288 5.72817e-07 3.28662e-07)
(0.00131979 8.77121e-08 3.3477e-07)
(0.00131663 3.98911e-07 4.32593e-07)
(0.00131426 2.0587e-07 3.31093e-07)
(0.00131165 2.00936e-07 3.31167e-07)
(0.00130892 -2.85478e-08 3.23372e-07)
(0.00130659 -1.12402e-07 3.50102e-07)
(0.00130376 -3.12573e-07 3.33623e-07)
(0.00130114 -3.48728e-07 3.21264e-07)
(0.00129904 -2.51153e-07 3.66885e-07)
(0.00129667 1.32928e-07 4.00235e-07)
(0.00129431 4.8111e-07 4.11127e-07)
(0.0012919 -3.51014e-08 1.87586e-07)
(0.00128898 -2.89037e-08 3.21512e-07)
(0.00128648 -3.68861e-07 3.36534e-07)
(0.0012846 -4.64004e-07 3.1997e-07)
(0.00128248 -9.35188e-07 1.02718e-07)
(0.00127939 -1.40059e-06 2.76405e-07)
(0.00127649 -5.41049e-07 3.60726e-07)
(0.00127406 9.39156e-08 3.39269e-07)
(-0.00678857 -0.00610887 0.000349356)
(-0.0051499 -0.000959049 0.00249519)
(0.0052816 0.0010099 -0.00211631)
(0.020913 0.0086938 0.00125207)
(0.00459993 0.00664915 -0.00274537)
(-0.00354456 -0.00367156 -0.00444164)
(0.000916413 0.00147319 -4.34822e-05)
(0.00134515 7.16272e-05 2.98683e-05)
(0.00143292 5.78716e-05 6.5897e-07)
(0.0013669 2.39784e-05 2.90141e-07)
(0.00137685 1.3997e-05 3.01031e-07)
(0.00137125 7.46332e-06 3.24825e-07)
(0.00136909 4.715e-06 3.81739e-07)
(0.00136549 2.50964e-06 3.39641e-07)
(0.00136346 1.17941e-06 3.67572e-07)
(0.00136154 5.67786e-07 3.83836e-07)
(0.00135906 4.21953e-07 3.39616e-07)
(0.00135645 4.04324e-07 3.54413e-07)
(0.00135431 3.04234e-07 3.05191e-07)
(0.00135139 6.18373e-07 5.10048e-07)
(0.00134869 5.04816e-07 5.03569e-08)
(0.00134631 4.83978e-07 4.36732e-07)
(0.0013435 3.40094e-07 3.39719e-07)