/*--------------------------------*- C++ -*----------------------------------*\
| =========                 |                                                 |
| \\      /  F ield         | OpenFOAM: The Open Source CFD Toolbox           |
|  \\    /   O peration     | Version:  5.0                                   |
|   \\  /    A nd           | Web:      www.OpenFOAM.org                      |
|    \\/     M anipulation  |                                                 |
\*---------------------------------------------------------------------------*/
FoamFile
{
    version     2.0;
    format      ascii;
    class       volVectorField;
    location    "2.9";
    object      U_0;
}
// * * * * * * * * * * * * * * * * * * * * * * * * * * * * * * * * * * * * * //

dimensions      [0 1 -1 0 0 0 0];

internalField   nonuniform List<vector> 
8563
(
(-0.0030398 -0.00587396 0.00048239)
(-0.00561893 -0.00400475 1.79802e-05)
(0.0149602 -0.00441439 -0.000531495)
(0.0169691 -0.000758703 0.00646377)
(-0.022051 0.0036932 -0.000281874)
(-0.00132349 -0.000195309 -0.00109195)
(0.000310808 9.38597e-05 1.26802e-05)
(0.00078382 5.78487e-05 -2.09912e-06)
(0.000789156 3.11519e-05 6.68304e-09)
(0.000806951 1.74707e-05 9.51269e-08)
(0.000812544 1.02715e-05 7.45531e-08)
(0.000814955 5.95776e-06 5.61479e-08)
(0.000816182 3.58946e-06 4.64418e-08)
(0.000815865 2.33917e-06 6.72373e-08)
(0.000814694 1.4744e-06 4.86636e-08)
(0.000813541 9.04533e-07 -4.80708e-09)
(0.000812391 4.662e-07 5.47814e-08)
(0.000810929 4.02577e-07 8.60134e-08)
(0.000809238 1.56073e-07 6.86115e-08)
(0.000807788 7.72881e-08 1.23074e-07)
(0.000806387 -4.85204e-09 3.33504e-08)
(0.000804837 7.50332e-08 2.97663e-08)
(0.000803151 -1.79355e-07 5.40377e-08)
(0.000801622 -7.83902e-08 4.79877e-08)
(0.000800154 -4.71433e-08 5.27947e-08)
(0.000798634 -1.99391e-08 7.14017e-08)
(0.000797073 6.97951e-08 5.06825e-08)
(0.000795813 2.06417e-08 4.84678e-08)
(0.0007938 1.84644e-07 4.56284e-08)
(0.000791786 -2.47457e-07 6.30098e-08)
(0.000790587 -6.85e-07 -5.91091e-08)
(0.000788876 -5.58494e-07 -1.48407e-08)
(0.000787483 -4.65535e-07 8.69254e-08)
(0.000786524 -1.71852e-07 5.51791e-08)
(0.000785134 1.16033e-07 4.30321e-08)
(0.000783479 1.99388e-07 5.83452e-08)
(0.000781502 1.30698e-07 4.43281e-09)
(0.00077973 1.82838e-07 2.39078e-08)
(0.000778441 4.0176e-07 6.37914e-08)
(0.000777343 4.51504e-07 6.55945e-08)
(0.000776122 1.00201e-07 3.1407e-08)
(0.000774691 1.00842e-07 -1.67687e-08)
(0.000773374 -4.34352e-07 -3.3401e-09)
(0.000771681 -3.13034e-07 2.42944e-07)
(0.000770218 -1.80645e-07 3.66315e-08)
(0.000768812 -1.33792e-07 4.0441e-08)
(0.000767393 -2.34777e-07 6.44128e-08)
(0.000766176 -4.55937e-07 4.85231e-08)
(0.000764484 -2.9041e-07 -2.27883e-08)
(0.000762722 -2.16785e-07 6.78334e-08)
(0.00445426 0.00414029 -3.95164e-05)
(-0.0079249 -0.0108327 0.017657)
(0.0162561 0.000714353 0.00105814)
(-0.0213588 -0.00327457 -0.000986168)
(-0.0066592 0.0283807 -0.000148741)
(0.0151447 0.0105511 0.000321874)
(0.00028715 8.72487e-06 2.62098e-05)
(0.000796484 -4.4637e-05 -1.62636e-06)
(0.000779406 9.45027e-06 -2.2893e-07)
(0.000800216 -8.79053e-08 7.54626e-08)
(0.000808586 1.74949e-06 5.41556e-08)
(0.000812541 9.78841e-07 6.15552e-08)
(0.000814195 6.97745e-07 6.46235e-08)
(0.000814512 2.74161e-07 5.01078e-08)
(0.000814174 1.65374e-07 5.00686e-08)
(0.000813155 4.00983e-08 6.20128e-08)
(0.000811979 2.62129e-07 5.17991e-08)
(0.000810751 1.60799e-07 4.89397e-08)
(0.000809422 4.10381e-07 4.37256e-08)
(0.000807947 2.06074e-07 3.10851e-08)
(0.000806294 1.92037e-07 8.59677e-08)
(0.000804461 1.3833e-07 1.56723e-08)
(0.00080303 4.65145e-07 6.32361e-08)
(0.000801855 2.7826e-07 3.34098e-08)
(0.000800191 3.11076e-08 5.73643e-08)
(0.000798591 -1.09547e-07 5.34042e-08)
(0.00079705 -2.06767e-07 3.56115e-08)
(0.000795518 -3.05688e-07 4.95128e-08)
(0.000793692 -9.16042e-07 5.6552e-08)
(0.000791698 -5.21842e-07 8.20063e-08)
(0.000790438 -4.40414e-07 1.34257e-07)
(0.000789308 -2.47105e-07 4.08152e-08)
(0.00078795 3.4091e-07 1.93964e-07)
(0.000786726 4.84577e-07 6.01297e-08)
(0.000784945 -1.36083e-09 4.41644e-08)
(0.000783121 -5.85941e-08 6.15481e-08)
(0.000781813 -8.33691e-08 4.0019e-08)
(0.000780404 1.52936e-07 5.36432e-08)
(0.000778799 3.58192e-07 2.02464e-08)
(0.000777068 5.3241e-07 7.64977e-08)
(0.000775544 2.38345e-07 5.49687e-08)
(0.000773963 3.76958e-08 6.11122e-08)
(0.000772859 -2.94755e-07 4.25332e-08)
(0.000772012 -3.60239e-07 1.20436e-07)
(0.000770431 -1.11724e-07 5.61329e-08)
(0.000768853 -1.51945e-07 5.82017e-08)
(0.000767429 3.84056e-08 6.27723e-08)
(0.000766053 -1.47041e-07 -3.4299e-10)
(0.000764457 -3.71377e-07 8.50217e-08)
(0.000763439 -2.39499e-07 2.85458e-08)
(-0.0290475 -0.00793508 0.00172085)
(0.00195576 -0.0113467 -0.00677833)
(0.0481363 0.00362215 0.00173913)
(0.00208021 -0.0105189 0.000704944)
(-0.0132659 -0.0168595 0.00531122)
(0.00376231 -0.00710988 -0.000178633)
(0.00150553 -0.00016485 -1.72597e-05)
(0.000467701 -4.19754e-05 -1.56416e-06)
(0.000854846 -1.19797e-05 -1.68951e-06)
(0.000797247 -1.43185e-05 -5.025e-07)
(0.000813825 -6.68885e-06 1.68491e-07)
(0.000813608 -4.10208e-06 2.40997e-08)
(0.000815284 -2.46806e-06 4.72234e-08)
(0.00081519 -1.46786e-06 5.19854e-08)
(0.000814397 -8.94992e-07 5.42959e-08)
(0.000813659 -5.56452e-07 5.00059e-09)
(0.00081254 -2.67483e-07 4.9431e-08)
(0.000811112 -8.92563e-08 8.95099e-08)
(0.000809293 -1.10127e-07 9.85433e-08)
(0.000807512 -3.38883e-08 4.14925e-08)
(0.000806301 -1.29123e-08 1.81693e-07)
(0.000805175 3.22631e-08 4.66545e-08)
(0.000803323 2.01857e-07 2.87774e-08)
(0.000801077 2.19281e-07 -8.30192e-08)
(0.000799668 1.71775e-07 5.28055e-08)
(0.000798337 1.3076e-07 3.18711e-08)
(0.00079683 1.26603e-08 5.89761e-08)
(0.00079493 -2.4001e-08 5.99677e-08)
(0.000793534 -7.69019e-08 -6.16262e-08)
(0.000792386 4.10415e-07 8.62228e-08)
(0.000790934 7.26255e-07 8.85902e-08)
(0.000789853 6.93845e-07 7.04284e-08)
(0.000788396 4.29053e-07 2.93429e-07)
(0.000786092 2.95265e-07 1.33629e-07)
(0.000784453 -3.35896e-08 5.98762e-08)
(0.000783376 7.89945e-08 6.04167e-08)
(0.000781765 8.34706e-08 1.93795e-07)
(0.000780279 5.64415e-09 5.53249e-08)
(0.000778912 1.05482e-07 4.52586e-08)
(0.000777189 -6.31897e-08 3.48738e-08)
(0.000775502 1.25425e-07 3.37728e-08)
(0.000774025 2.10508e-07 7.05161e-08)
(0.000772879 5.23122e-07 2.56513e-07)
(0.000771913 2.87299e-07 1.07632e-07)
(0.000770481 2.15232e-07 9.18752e-08)
(0.000769 1.82418e-07 1.15501e-07)
(0.0007674 2.77801e-07 5.90714e-08)
(0.000765664 1.42932e-07 7.56174e-08)
(0.000764374 7.54511e-08 6.05286e-08)
(0.000763484 7.17324e-08 8.90387e-08)
(0.00667656 0.00552835 4.16709e-05)
(-0.000706405 0.00894556 0.000516044)
(0.0112968 0.00242421 0.000205335)
(0.00368477 -0.00490338 0.000306388)
(0.00570563 -0.0228975 -0.000211718)
(0.00606043 -0.00173804 0.000323135)
(0.000520539 0.000141749 -1.93906e-05)
(0.0004585 -1.23622e-05 -4.90561e-07)
(0.000881988 -3.35409e-05 -1.03929e-06)
(0.000806962 -1.78516e-05 -5.85225e-07)
(0.000821365 -1.13706e-05 1.74414e-07)
(0.000817817 -6.67038e-06 1.61269e-08)
(0.000817488 -4.30178e-06 5.84991e-08)
(0.000816479 -2.60082e-06 5.28973e-08)
(0.000815313 -1.54017e-06 5.13925e-08)
(0.000813939 -8.65855e-07 4.85483e-08)
(0.000812563 -7.48431e-07 5.24931e-08)
(0.000810947 -5.81014e-07 2.67499e-08)
(0.000809491 -6.93414e-07 3.4934e-08)
(0.000808068 -4.21661e-07 2.89584e-08)
(0.000806376 -2.56264e-07 7.62051e-08)
(0.000804728 -2.60978e-07 4.99709e-08)
(0.000803262 -5.09015e-07 1.90407e-08)
(0.000801815 -2.22133e-07 -7.30513e-09)
(0.000800078 7.55753e-08 2.62881e-08)
(0.000798391 2.24529e-07 3.13039e-08)
(0.000796856 3.12218e-07 6.63974e-08)
(0.000795406 3.74866e-07 8.45241e-08)
(0.000794233 8.73903e-07 3.77114e-09)
(0.000792698 6.38186e-07 7.13814e-08)
(0.000790786 7.32712e-07 1.86607e-08)
(0.000788931 6.88505e-07 -1.35012e-08)
(0.000787448 2.05293e-07 4.67215e-08)
(0.000786146 -8.28852e-08 4.98133e-08)
(0.000784674 1.80857e-07 4.87551e-08)
(0.000783268 6.3658e-08 4.66785e-08)
(0.000781721 -4.62655e-08 7.51123e-08)
(0.000780432 -6.68369e-08 4.90138e-08)
(0.000778713 -3.35537e-07 -6.92192e-09)
(0.000777093 -2.05777e-07 2.40536e-08)
(0.000775885 2.4701e-08 4.4032e-08)
(0.000774458 1.92806e-07 4.01205e-08)
(0.000772951 5.24016e-07 1.1555e-07)
(0.000771623 4.74977e-07 -6.03082e-08)
(0.000770296 6.68218e-08 2.45899e-08)
(0.000768928 4.85217e-08 4.03484e-08)
(0.000767376 -2.6993e-09 7.21302e-08)
(0.000765798 1.01546e-07 1.68594e-08)
(0.000764365 3.11604e-07 4.15308e-08)
(0.000763255 2.40495e-07 4.41582e-08)
(0.00675609 -0.00921622 -0.000829199)
(-0.0148487 -0.00598472 -0.000508234)
(0.00773835 0.00115857 0.000255205)
(0.00554056 -0.00395019 0.000509044)
(-0.00577344 0.00489009 -5.87633e-05)
(-0.00270885 -0.000962974 5.79944e-05)
(0.000831952 8.08985e-05 7.06565e-06)
(0.000365054 -1.70201e-05 6.55229e-06)
(0.000870498 -2.74339e-05 -2.11274e-06)
(0.00082504 -1.49442e-05 -3.68922e-07)
(0.000827865 -1.03368e-05 1.12961e-07)
(0.000822479 -6.76312e-06 3.41268e-07)
(0.00082039 -4.00487e-06 2.67685e-07)
(0.000818652 -2.62366e-06 5.35307e-08)
(0.00081657 -1.74115e-06 5.18015e-08)
(0.000814651 -1.1204e-06 4.5733e-08)
(0.000812898 -6.65899e-07 5.31623e-08)
(0.000811183 -4.56818e-07 5.6822e-08)
(0.000809495 -1.58099e-07 5.58253e-08)
(0.000808061 -1.10307e-07 5.28636e-08)
(0.000806504 -1.25817e-07 6.61798e-08)
(0.000804862 1.48505e-09 7.81296e-08)
(0.000803374 7.35163e-08 4.70145e-08)
(0.00080181 4.43347e-08 9.82413e-08)
(0.000800227 7.51289e-08 6.62318e-08)
(0.000798631 6.01623e-08 6.60431e-08)
(0.000797014 1.75238e-07 5.99086e-08)
(0.000795627 2.16704e-07 9.25668e-09)
(0.000793857 2.03109e-07 1.64544e-09)
(0.000792202 5.97397e-08 5.72982e-08)
(0.00079099 -4.48655e-08 1.04915e-08)
(0.000789188 -2.83769e-07 4.52483e-08)
(0.000787428 8.36577e-08 7.18165e-08)
(0.00078606 3.11678e-08 5.22577e-08)
(0.000784635 1.52808e-07 6.56042e-08)
(0.000783091 8.20879e-09 4.8418e-08)
(0.000781603 -1.34216e-08 5.97414e-08)
(0.000779919 -4.75369e-08 5.33213e-08)
(0.00077874 -1.93891e-07 1.1425e-07)
(0.000777641 2.73867e-08 9.48064e-08)
(0.000775999 9.26639e-08 4.47355e-08)
(0.000774646 1.42352e-07 3.63692e-07)
(0.000773228 1.59168e-07 2.5803e-08)
(0.000771338 1.35384e-07 -2.99145e-08)
(0.000769946 -1.13609e-08 6.1497e-08)
(0.000768912 -1.40011e-07 4.78542e-08)
(0.000767466 -3.7327e-07 -2.75759e-08)
(0.000766057 -3.08436e-07 -1.03516e-08)
(0.000764541 -1.85967e-07 5.68646e-09)
(0.000762796 1.23342e-07 9.61334e-08)
(-0.00304548 0.0017802 0.000577359)
(-0.00577137 -0.013846 -0.000303661)
(0.0240105 0.00398009 -7.66816e-05)
(-0.000414396 0.00477856 3.37918e-05)
(0.000440458 -0.00135865 5.19508e-06)
(0.00747895 0.000544193 0.000217406)
(0.000914975 0.000292277 1.78352e-05)
(0.000462884 5.66778e-07 1.64521e-05)
(0.000873448 -4.74934e-06 -2.09841e-06)
(0.000828493 -8.85788e-06 -2.39467e-07)
(0.000831656 -5.55806e-06 1.28994e-07)
(0.000825771 -4.00611e-06 1.37947e-07)
(0.000822686 -2.37827e-06 7.33828e-08)
(0.000819322 -1.66594e-06 4.78372e-08)
(0.000817201 -1.15556e-06 1.56046e-07)
(0.000815289 -7.82236e-07 9.26925e-08)
(0.000813396 -4.97069e-07 5.28384e-08)
(0.000811583 -2.53824e-07 6.9007e-08)
(0.000809925 -7.78253e-08 2.51666e-08)
(0.000808108 5.3814e-08 1.89968e-07)
(0.000806515 1.01094e-07 1.28867e-07)
(0.000804977 1.47382e-07 7.6988e-08)
(0.000803315 1.82067e-07 1.52384e-07)
(0.000801817 9.90343e-08 7.42289e-08)
(0.000800098 4.6524e-08 6.70557e-08)
(0.000798515 5.19466e-08 4.51428e-08)
(0.00079705 -4.53413e-08 6.47242e-08)
(0.000795438 -9.02086e-08 1.87764e-08)
(0.000794034 -1.51757e-07 1.01558e-07)
(0.000792386 -2.49362e-07 2.35774e-08)
(0.000790356 -4.94663e-07 -1.21893e-08)
(0.00078909 -3.95766e-07 -2.09778e-08)
(0.000787841 -3.01262e-07 1.49318e-08)
(0.00078623 -1.62376e-07 7.03895e-08)
(0.000784644 -1.94983e-07 4.1805e-08)
(0.000783059 -5.64439e-08 4.31429e-08)
(0.000781652 1.56807e-08 5.26593e-08)
(0.000780207 1.51817e-07 1.11633e-07)
(0.000778807 3.06103e-07 1.05538e-07)
(0.000777452 8.94349e-08 6.84647e-08)
(0.000776028 1.17058e-07 6.65508e-08)
(0.000774539 2.96889e-07 2.87208e-07)
(0.000772941 -1.36561e-08 4.47881e-08)
(0.00077141 -1.34324e-07 4.0071e-08)
(0.000769953 6.61653e-08 4.31325e-08)
(0.000768479 -1.51718e-07 4.55407e-08)
(0.00076717 -4.8196e-07 -3.37675e-07)
(0.000766036 -5.15333e-07 4.94591e-08)
(0.000764905 -4.8584e-07 9.58337e-08)
(0.000763333 -1.8563e-07 1.81464e-07)
(0.00129648 -0.00669979 9.98933e-05)
(0.00146082 0.000750939 0.00158317)
(-0.003378 -0.00926312 0.000218942)
(-0.00411958 0.00136636 0.000225688)
(0.0160439 -0.00545184 -0.000920894)
(-0.0137456 -0.00203537 -0.00205584)
(0.000482218 -0.000231893 5.38127e-05)
(0.000557701 2.3806e-05 4.52413e-06)
(0.000910153 6.03951e-07 -1.12849e-06)
(0.000824174 -2.00358e-06 -5.40127e-07)
(0.00083396 -1.12015e-06 1.86091e-07)
(0.000826473 -6.7783e-07 3.54045e-08)
(0.000823329 -6.97939e-07 5.66063e-08)
(0.00082019 -3.85077e-07 5.22656e-08)
(0.000817682 -2.02157e-07 5.52908e-08)
(0.00081548 -1.00729e-07 5.36364e-08)
(0.000813562 -9.30104e-08 5.23494e-08)
(0.000811708 -1.1859e-07 2.92866e-08)
(0.000809879 -7.90789e-08 7.1328e-08)
(0.000808284 -1.02513e-07 6.48845e-08)
(0.000806619 5.87007e-08 -5.11228e-09)
(0.000804961 3.20039e-09 4.61738e-08)
(0.000803312 1.3092e-07 4.26427e-08)
(0.000801639 2.42306e-08 4.72573e-08)
(0.000800167 3.36194e-08 1.55424e-08)
(0.000798516 1.68307e-07 1.90722e-07)
(0.000796837 -3.60506e-08 4.4403e-08)
(0.000795495 -1.00216e-07 5.20011e-08)
(0.00079366 -3.81934e-07 6.07697e-08)
(0.000791776 -6.21713e-07 5.15257e-08)
(0.00079081 -1.93966e-07 1.39092e-07)
(0.000789434 4.29125e-09 1.65531e-07)
(0.000787723 -6.93105e-08 4.63198e-08)
(0.000786196 -1.1452e-07 3.44542e-08)
(0.000784769 -1.92178e-07 1.53047e-07)
(0.000783356 -7.18715e-08 6.92227e-08)
(0.000781863 -3.55174e-08 4.89189e-08)
(0.000780282 -1.74593e-09 5.10036e-08)
(0.000778661 1.14853e-07 5.48752e-08)
(0.000777404 2.5497e-07 1.52893e-08)
(0.000776258 1.56687e-08 4.56426e-08)
(0.000774482 -2.18234e-07 -3.0905e-08)
(0.000772689 -1.27599e-07 6.10897e-08)
(0.000771438 -1.10361e-07 3.11008e-08)
(0.000769925 -1.27926e-07 1.28633e-09)
(0.00076823 -2.62802e-08 4.79894e-08)
(0.000767015 -4.31538e-08 4.41174e-09)
(0.000766057 -3.34386e-07 6.90677e-08)
(0.000764962 -2.47613e-07 2.41671e-08)
(0.000763634 -3.27213e-07 7.75339e-08)
(0.000174377 0.000456806 0.000387823)
(-0.00182916 -0.0032106 -0.000435594)
(-0.00939497 0.00322107 9.5115e-06)
(-0.00632117 0.0125843 -0.000698855)
(-0.00662954 0.0230005 -0.000182686)
(0.0182286 -0.0236732 -0.00184589)
(0.00118407 -0.000495271 7.7183e-05)
(0.000496582 -5.95551e-06 6.33452e-07)
(0.00089933 -8.96805e-06 -1.4573e-06)
(0.000826351 4.70498e-06 -4.05574e-07)
(0.000833317 2.49429e-06 1.60505e-07)
(0.000826305 2.28147e-06 3.85468e-08)
(0.000823058 1.57996e-06 5.90559e-08)
(0.000819947 1.06751e-06 5.17876e-08)
(0.000817559 7.49507e-07 8.73417e-08)
(0.000815427 4.95459e-07 5.19859e-08)
(0.000813375 2.72846e-07 1.22964e-07)
(0.000811602 1.16273e-07 5.07053e-08)
(0.000809946 4.80729e-08 -1.46499e-07)
(0.000808282 6.56055e-08 3.53339e-08)
(0.000806649 -7.15664e-08 4.99211e-08)
(0.000805067 -7.89236e-08 5.58222e-08)
(0.000803341 -2.73835e-07 9.84006e-08)
(0.000801695 -1.2676e-07 5.1068e-08)
(0.000800277 -2.28708e-07 5.94493e-08)
(0.000798427 -3.25174e-07 5.40533e-08)
(0.000796715 -7.02261e-08 1.21428e-08)
(0.000795008 -1.21841e-07 2.31725e-07)
(0.000793387 -2.16711e-07 5.17882e-08)
(0.000792626 2.8788e-07 5.20671e-08)
(0.000791142 4.18648e-07 8.88731e-08)
(0.000789248 1.94333e-07 4.223e-08)
(0.000787693 2.98008e-07 4.96201e-08)
(0.000786078 1.0001e-07 4.7528e-08)
(0.000784699 6.6002e-08 4.90733e-08)
(0.000783256 -1.24087e-07 6.34686e-08)
(0.00078174 -3.24998e-07 1.99216e-08)
(0.000780395 -2.96032e-07 5.39582e-08)
(0.000779127 1.3617e-08 4.01565e-08)
(0.000777327 6.5377e-08 1.06516e-07)
(0.000775436 -9.81919e-08 4.87406e-08)
(0.000774362 -1.54566e-07 6.66175e-08)
(0.000773078 -2.381e-08 4.89658e-08)
(0.000771411 -1.25457e-07 4.70656e-08)
(0.000770059 -9.90019e-08 5.71285e-08)
(0.000768586 6.37052e-08 4.53579e-08)
(0.000766786 4.17627e-07 5.68974e-08)
(0.000765783 5.94811e-07 7.05301e-08)
(0.000764923 2.26129e-07 4.5598e-08)
(0.000764049 -3.88098e-08 1.0095e-07)
(0.00264712 -0.0057333 0.00050568)
(-0.0265104 -0.00624668 0.00206233)
(-0.00251628 0.000980811 -0.00273662)
(0.0130574 0.0119197 -0.000791217)
(0.00543928 -0.00446742 0.000387406)
(0.00292489 -0.00460685 3.71923e-05)
(0.000793939 -0.000202736 3.96941e-06)
(0.000895221 6.33052e-05 -2.12144e-06)
(0.000856948 7.78187e-06 -1.21839e-07)
(0.000838511 1.37943e-05 3.015e-08)
(0.000830934 7.8744e-06 5.0381e-08)
(0.000825334 5.58528e-06 4.09103e-08)
(0.000821812 3.58143e-06 4.75249e-08)
(0.000819152 2.13742e-06 5.20707e-08)
(0.000816967 1.3639e-06 4.60934e-08)
(0.000814884 8.73048e-07 1.12248e-07)
(0.000813088 5.60194e-07 7.71249e-08)
(0.000811428 2.62087e-07 4.4478e-08)
(0.000809816 1.91232e-07 5.2999e-08)
(0.000808135 1.6942e-07 9.84017e-08)
(0.00080644 8.48805e-08 5.15e-08)
(0.000804711 -1.11982e-07 7.86609e-08)
(0.000803255 -2.26938e-07 1.56952e-08)
(0.000801698 -2.09456e-07 5.45713e-08)
(0.000799921 -2.3338e-07 3.86889e-08)
(0.000798716 -3.3929e-07 6.29287e-08)
(0.000797093 -2.21643e-07 6.80861e-09)
(0.000795314 -1.13129e-07 2.15058e-07)
(0.000794173 7.10834e-08 6.74496e-08)
(0.000792569 3.99015e-07 4.10318e-08)
(0.000790691 1.97577e-07 2.67288e-07)
(0.000789281 1.44127e-07 4.56011e-08)
(0.000787603 2.21345e-08 8.12054e-08)
(0.000785905 -4.00615e-08 -1.70799e-08)
(0.000784489 -4.30728e-08 3.21648e-08)
(0.000782868 -2.1472e-07 1.66824e-08)
(0.00078165 -1.6523e-07 -1.42752e-08)
(0.000780706 -1.39199e-07 6.54748e-08)
(0.000779113 -4.28204e-07 8.72316e-08)
(0.000777264 -6.70672e-07 3.83583e-08)
(0.000775983 -3.33959e-07 3.59947e-08)
(0.000774577 -2.35468e-07 7.78694e-09)
(0.000772727 -1.20338e-07 2.81417e-08)
(0.000771345 7.11682e-10 4.36558e-08)
(0.000770163 1.047e-07 4.69795e-08)
(0.000768874 1.17664e-07 5.00795e-08)
(0.000767676 3.73401e-07 3.77202e-08)
(0.000765814 9.55827e-07 2.53268e-08)
(0.000764169 6.48538e-07 -4.09802e-08)
(0.000763397 3.48924e-07 8.99716e-08)
(0.00356399 -0.00270784 -0.000948761)
(0.0121512 0.00324091 0.00032397)
(0.00322344 -0.000121178 0.000339548)
(0.0214022 0.017144 -0.000338965)
(0.00561418 -0.00243315 9.59248e-05)
(0.00111422 -0.000405599 -1.63606e-05)
(0.000501356 6.86377e-05 3.50586e-05)
(0.000863628 7.60003e-05 -2.59778e-06)
(0.00082969 3.78798e-05 -1.71826e-07)
(0.000826441 2.20947e-05 3.45906e-08)
(0.000823046 1.26849e-05 8.50007e-08)
(0.000820933 7.4162e-06 4.86744e-08)
(0.000818741 4.40236e-06 6.02155e-08)
(0.000817171 2.92509e-06 -2.32193e-08)
(0.000815976 1.78085e-06 5.26596e-08)
(0.000814421 1.11253e-06 5.73829e-08)
(0.00081261 7.10525e-07 4.97503e-08)
(0.00081114 5.57765e-07 6.06261e-08)
(0.00080983 3.12785e-07 7.58931e-08)
(0.000808148 9.6167e-08 1.71686e-08)
(0.000806297 3.46987e-08 3.47469e-08)
(0.000804679 5.41903e-08 1.47697e-07)
(0.000803222 1.35639e-07 5.74263e-08)
(0.00080169 -2.84019e-08 4.82919e-08)
(0.000800118 7.55015e-08 5.59031e-08)
(0.000798445 1.58246e-07 5.09914e-08)
(0.000797 1.01158e-08 4.29023e-08)
(0.000795375 1.42872e-07 4.98174e-08)
(0.000794026 4.10607e-07 1.17501e-09)
(0.000792782 -1.54861e-07 1.05336e-07)
(0.000790821 -2.16282e-07 7.70116e-08)
(0.000789028 -2.39967e-07 5.89991e-08)
(0.000787464 -5.42949e-07 2.22845e-08)
(0.000785998 -3.39326e-07 1.43473e-07)
(0.000784483 -5.05159e-08 5.35077e-08)
(0.000783105 1.75467e-07 3.33443e-08)
(0.000781836 4.38952e-07 3.27038e-08)
(0.000780069 5.81157e-08 4.67963e-08)
(0.000778466 -3.42375e-07 4.29485e-09)
(0.000777448 -4.81444e-07 6.29439e-08)
(0.000775984 -2.81912e-07 6.33995e-08)
(0.00077463 -3.72825e-07 8.13303e-08)
(0.000773374 -1.91795e-07 6.82205e-08)
(0.000771692 1.45043e-07 2.63433e-08)
(0.000770204 7.77386e-08 -3.55413e-08)
(0.000768919 1.91436e-07 5.14018e-08)
(0.000767829 2.86265e-08 4.81391e-08)
(0.00076612 -3.3983e-08 2.70082e-08)
(0.00076415 3.19484e-07 -2.43413e-08)
(0.000762807 2.23444e-07 6.95292e-08)
(-0.00711712 -0.0103417 0.000160239)
(0.000897646 0.000931149 -0.000545582)
(-0.0211567 -0.0127898 -0.0282521)
(-0.0437137 -0.0343708 0.0321355)
(-0.0143507 0.0136619 0.00314385)
(0.00328572 -0.00486298 0.00277343)
(0.00121457 0.000437454 1.18376e-05)
(0.00132297 9.64947e-05 3.26361e-07)
(0.00132194 5.18674e-05 3.0109e-07)
(0.00134726 2.90301e-05 3.46746e-07)
(0.00135471 1.70398e-05 1.57242e-07)
(0.00135785 9.84656e-06 2.62782e-07)
(0.0013595 5.91225e-06 6.45705e-07)
(0.00135875 3.87563e-06 2.46491e-07)
(0.00135666 2.42956e-06 3.46468e-07)
(0.00135467 1.47292e-06 2.54723e-07)
(0.00135269 7.65392e-07 3.41089e-07)
(0.00135026 6.33442e-07 3.30996e-07)
(0.00134745 2.30644e-07 3.77268e-07)
(0.00134501 9.33662e-08 3.749e-07)
(0.00134271 3.66421e-09 3.37605e-07)
(0.00134011 1.85483e-07 8.70465e-08)
(0.00133729 -2.14188e-07 3.24174e-07)
(0.00133476 -8.35591e-08 2.91144e-07)
(0.00133234 5.12295e-09 2.78526e-07)
(0.00132978 6.80075e-08 3.54584e-07)
(0.00132718 1.66216e-07 2.84453e-07)
(0.00132511 3.95669e-08 3.34225e-07)
(0.0013218 2.85069e-07 3.63877e-07)
(0.00131846 -4.70221e-07 3.92993e-07)
(0.00131642 -1.17174e-06 2.36414e-07)
(0.00131355 -9.57009e-07 8.93305e-08)
(0.00131123 -7.49573e-07 3.76813e-07)
(0.00130969 -2.24946e-07 4.10879e-07)
(0.00130742 2.51297e-07 3.202e-07)
(0.00130461 3.94998e-07 3.38061e-07)
(0.00130131 2.53574e-07 3.31125e-07)
(0.00129834 3.56994e-07 2.72738e-07)
(0.00129627 7.5583e-07 2.40154e-07)
(0.00129449 7.49223e-07 3.42777e-07)
(0.00129234 1.72566e-07 2.86863e-07)
(0.0012899 1.40294e-07 2.36234e-07)
(0.00128786 -7.0321e-07 2.56257e-07)
(0.00128501 -5.06358e-07 7.19381e-07)
(0.00128247 -3.19754e-07 3.34771e-07)
(0.00128015 -2.67994e-07 3.04972e-07)
(0.00127778 -3.51352e-07 3.26044e-07)
(0.0012758 -7.05051e-07 3.16401e-07)
(0.00127294 -4.91421e-07 2.13908e-07)
(0.00126999 -3.87786e-07 3.48236e-07)
(-0.0079119 0.00753538 5.55325e-05)
(-0.0134936 -0.016959 0.00607585)
(0.0119587 -0.0058371 0.0159249)
(-0.0363432 0.00125584 -0.000337496)
(-0.0298334 0.0128562 0.00184335)
(-0.0131583 -0.00619622 0.00222345)
(0.000283425 0.000370304 4.49512e-05)
(0.00132991 -6.10137e-05 3.33208e-07)
(0.00130007 2.12756e-05 3.40879e-07)
(0.00133369 2.50879e-06 3.50634e-07)
(0.00134714 4.18611e-06 3.31368e-07)
(0.0013534 2.29069e-06 3.37783e-07)
(0.001356 1.51984e-06 3.4087e-07)
(0.00135642 6.37429e-07 3.38712e-07)
(0.00135575 3.78066e-07 3.39502e-07)
(0.00135403 1.22057e-07 3.26203e-07)
(0.00135204 4.52545e-07 3.37828e-07)
(0.00134996 2.83104e-07 3.54639e-07)
(0.00134773 6.66859e-07 3.18651e-07)
(0.00134527 3.46419e-07 3.14313e-07)
(0.00134256 3.54915e-07 3.5048e-07)
(0.00133953 2.34326e-07 3.20528e-07)
(0.00133709 7.57166e-07 3.15535e-07)
(0.00133516 4.97914e-07 2.9636e-07)
(0.00133242 1.10364e-07 3.46433e-07)
(0.00132968 -1.4538e-07 3.35743e-07)
(0.0013271 -2.93125e-07 2.99751e-07)
(0.00132458 -4.97144e-07 3.31995e-07)
(0.00132155 -1.5284e-06 3.97537e-07)
(0.00131828 -8.80225e-07 3.12284e-07)
(0.00131623 -7.2403e-07 3.64464e-07)
(0.00131433 -4.11984e-07 2.99719e-07)
(0.00131209 6.60097e-07 6.27687e-07)
(0.00131004 8.84034e-07 6.51958e-07)
(0.00130708 6.47834e-08 3.34364e-07)
(0.00130406 -6.61966e-08 3.39544e-07)
(0.00130184 -6.91332e-08 3.09099e-07)
(0.00129955 3.16962e-07 3.75531e-07)
(0.00129681 7.00079e-07 3.19371e-07)
(0.00129389 8.73425e-07 3.51662e-07)
(0.00129137 3.77936e-07 3.35375e-07)
(0.00128876 4.05693e-08 3.58836e-07)
(0.00128687 -4.39649e-07 2.74799e-07)
(0.00128544 -6.71181e-07 5.11905e-07)
(0.00128287 -2.03767e-07 3.59044e-07)
(0.00128028 -2.73894e-07 3.40468e-07)
(0.00127791 1.237e-07 4.30997e-07)
(0.00127555 -2.03514e-07 2.60325e-07)
(0.00127291 -5.7894e-07 3.64335e-07)
(0.00127118 -4.04984e-07 2.23196e-07)
(-0.0178045 -0.00150922 0.00200898)
(0.00313787 -0.0113906 0.00513313)
(-0.00296785 0.0219525 -0.00537228)
(-0.0091184 -0.0211175 0.0157471)
(0.0324345 -0.02835 -0.0613352)
(0.0064375 -0.0188355 0.000954422)
(0.00150986 -0.000554529 -3.50584e-05)
(0.00137855 -0.000111799 8.54512e-08)
(0.0014196 -1.665e-05 -2.94164e-07)
(0.00132575 -2.18898e-05 3.28273e-07)
(0.00135433 -1.00378e-05 3.38542e-07)
(0.00135445 -6.15112e-06 3.39045e-07)
(0.0013574 -3.69745e-06 3.39303e-07)
(0.0013573 -2.20457e-06 3.40162e-07)
(0.001356 -1.3429e-06 3.39523e-07)
(0.00135476 -8.32669e-07 2.72583e-07)
(0.00135289 -4.07864e-07 3.41494e-07)
(0.00135053 -1.33382e-07 3.13622e-07)
(0.00134753 -1.86933e-07 3.84328e-07)
(0.00134462 -6.05734e-08 3.22343e-07)
(0.00134256 -8.96619e-09 5.08951e-07)
(0.00134061 6.13312e-08 3.28708e-07)
(0.00133761 3.67008e-07 2.61433e-07)
(0.00133395 3.98019e-07 -2.83856e-08)
(0.00133154 2.57058e-07 3.44959e-07)
(0.00132928 2.1987e-07 3.02431e-07)
(0.00132675 5.24233e-08 3.42219e-07)
(0.00132358 6.87002e-09 3.20531e-07)
(0.00132133 -9.31452e-08 1.15175e-07)
(0.00131947 7.35669e-07 3.1954e-07)
(0.00131701 1.22429e-06 3.40776e-07)
(0.00131528 1.15587e-06 3.28418e-07)
(0.00131285 7.19106e-07 8.06147e-07)
(0.00130894 4.87255e-07 4.54661e-07)
(0.00130623 -4.85487e-08 1.03434e-07)
(0.00130444 1.02781e-07 3.24323e-07)
(0.00130179 1.40201e-07 4.51323e-07)
(0.00129929 1.14923e-08 3.52734e-07)
(0.00129696 1.1634e-07 3.32692e-07)
(0.00129408 -1.14325e-07 3.20595e-07)
(0.0012913 1.60394e-07 1.23737e-07)
(0.00128888 3.2884e-07 3.77152e-07)
(0.00128698 8.76861e-07 6.45731e-07)
(0.00128531 5.68816e-07 3.83525e-07)
(0.00128297 4.78807e-07 3.41596e-07)
(0.00128056 3.96681e-07 4.10285e-07)
(0.00127787 4.94318e-07 3.39107e-07)
(0.00127492 3.06158e-07 3.43469e-07)
(0.0012727 1.47097e-07 2.92218e-07)
(0.00127121 1.29691e-07 4.19227e-07)
(0.00112666 -0.00369839 -0.000151781)
(-0.00665077 -0.0229186 -0.000711753)
(0.0161213 0.020048 0.000362829)
(0.00180094 -0.0112561 0.000798243)
(0.013298 -0.00267324 -0.0014897)
(-0.00560257 -0.00429946 0.00154925)
(0.00102905 0.000495399 0.00012756)
(0.0013484 -4.86323e-05 3.80183e-06)
(0.00146573 -5.72444e-05 3.13614e-07)
(0.00134214 -2.99615e-05 2.44256e-07)
(0.00136679 -1.88003e-05 3.42051e-07)
(0.0013613 -1.08819e-05 3.2614e-07)
(0.00136092 -6.97066e-06 3.40755e-07)
(0.00135935 -4.17856e-06 3.40588e-07)
(0.00135746 -2.43015e-06 3.39854e-07)
(0.00135519 -1.33691e-06 3.38692e-07)
(0.00135291 -1.16486e-06 3.38816e-07)
(0.00135023 -8.90141e-07 2.86063e-07)
(0.00134782 -1.09853e-06 3.25697e-07)
(0.00134549 -6.95427e-07 3.08129e-07)
(0.00134271 -4.34544e-07 3.68268e-07)
(0.00134 -4.2416e-07 3.35431e-07)
(0.00133751 -8.10217e-07 1.94355e-07)
(0.00133502 -3.60753e-07 -1.04568e-07)
(0.00133219 9.14091e-08 2.73826e-07)
(0.00132943 3.50686e-07 2.72793e-07)
(0.00132683 5.25516e-07 4.03175e-07)
(0.00132439 6.99218e-07 3.88555e-07)
(0.00132245 1.54686e-06 2.85691e-07)
(0.00131992 1.13151e-06 5.25078e-07)
(0.00131674 1.25558e-06 3.10078e-07)
(0.00131369 1.22403e-06 -1.75594e-08)
(0.00131125 3.56021e-07 3.25108e-07)
(0.00130907 -1.12971e-07 3.25512e-07)
(0.0013066 2.9616e-07 2.73229e-07)
(0.00130429 1.07314e-07 3.12194e-07)
(0.00130173 -8.81175e-08 3.50575e-07)
(0.00129952 -1.23588e-07 3.45224e-07)
(0.00129665 -5.59501e-07 1.92225e-07)
(0.00129394 -3.4158e-07 1.87296e-07)
(0.00129193 3.74287e-08 2.6111e-07)
(0.00128966 3.75612e-07 3.10695e-07)
(0.00128717 8.7794e-07 4.42276e-07)
(0.00128494 8.22421e-07 1.48656e-07)
(0.00128265 1.55128e-07 3.38202e-07)
(0.0012803 9.87171e-08 3.20301e-07)
(0.00127779 -1.97242e-08 3.66336e-07)
(0.00127511 1.76222e-07 1.1879e-07)
(0.00127268 4.76507e-07 3.11819e-07)
(0.00127084 4.13287e-07 2.2221e-07)
(0.00261506 -0.024158 -0.00518282)
(0.00790622 0.014253 -0.00207083)
(0.0259301 -0.0168646 -0.000105728)
(0.00377744 -0.00152117 -0.00136626)
(0.00234033 -0.00254961 0.00305476)
(-0.00133226 -0.00141652 -0.000532199)
(0.000290618 0.000147289 0.00012761)
(0.0015508 -0.000115455 1.39447e-05)
(0.0014507 -4.78075e-05 7.16192e-07)
(0.00137385 -2.56564e-05 3.18078e-07)
(0.00137825 -1.74213e-05 3.66398e-07)
(0.00136928 -1.12829e-05 9.83085e-07)
(0.0013658 -6.61633e-06 5.29235e-07)
(0.00136298 -4.31605e-06 3.42159e-07)
(0.00135956 -2.8682e-06 3.02067e-07)
(0.00135634 -1.84911e-06 3.04812e-07)
(0.00135345 -1.0794e-06 3.39113e-07)
(0.00135061 -7.36228e-07 3.35602e-07)
(0.00134778 -2.28577e-07 3.12886e-07)
(0.00134545 -9.64425e-08 3.15775e-07)
(0.00134291 -1.74403e-07 3.72644e-07)
(0.00134014 1.15187e-08 6.89632e-07)
(0.0013377 1.00446e-07 3.27684e-07)
(0.00133508 5.50694e-08 3.79229e-07)
(0.00133243 1.27722e-07 2.4933e-07)
(0.00132982 3.60842e-08 3.69869e-07)
(0.00132717 2.75675e-07 3.72625e-07)
(0.00132484 3.8621e-07 2.8498e-07)
(0.00132185 4.40834e-07 2.72265e-07)
(0.0013191 2.33725e-07 5.62687e-07)
(0.00131711 2.37218e-08 3.31269e-08)
(0.00131415 -3.95327e-07 2.99339e-07)
(0.00131117 2.18916e-07 3.5455e-07)
(0.00130886 1.02966e-07 3.31497e-07)
(0.00130651 2.73994e-07 3.33953e-07)
(0.00130396 1.89756e-08 3.24678e-07)
(0.0013015 -4.94181e-08 3.32759e-07)
(0.00129871 -1.0904e-07 3.26686e-07)
(0.00129669 -3.32785e-07 4.6622e-07)
(0.00129483 1.01028e-08 3.61899e-07)
(0.00129219 1.82723e-07 3.43469e-07)
(0.00128993 3.17087e-07 7.42784e-07)
(0.00128753 2.45826e-07 2.93373e-07)
(0.0012844 1.78458e-07 3.04431e-09)
(0.00128206 -1.42114e-07 4.60609e-07)
(0.00128034 -2.96126e-07 3.1984e-07)
(0.00127796 -7.19172e-07 1.45349e-07)
(0.00127554 -6.39239e-07 -8.44719e-10)
(0.00127299 -3.31926e-07 3.16772e-07)
(0.00127011 2.04415e-07 4.37814e-07)
(-0.00721051 -0.00694388 -0.00116386)
(-0.00143027 0.0035592 -0.0025443)
(0.00410372 0.00103128 -0.00213571)
(0.0239409 0.00933902 0.00137646)
(0.00183537 0.00170023 -0.00107498)
(-0.00117598 -0.000973022 -0.00442767)
(0.000650718 0.00141716 -4.11805e-05)
(0.00134063 3.17457e-06 2.95904e-05)
(0.00145733 -7.59225e-06 6.38718e-07)
(0.00138035 -1.45194e-05 3.91309e-07)
(0.00138483 -9.1767e-06 3.06126e-07)
(0.00137485 -6.65308e-06 4.57756e-07)
(0.00136966 -3.9525e-06 3.82966e-07)
(0.00136405 -2.76929e-06 3.43045e-07)
(0.00136056 -1.948e-06 6.57331e-07)
(0.00135744 -1.3234e-06 4.06468e-07)
(0.00135431 -8.25083e-07 3.39884e-07)
(0.0013513 -4.21804e-07 3.54252e-07)
(0.00134862 -8.99619e-08 3.11508e-07)
(0.00134556 1.40205e-07 5.926e-07)
(0.00134284 1.83654e-07 4.5325e-07)
(0.00134034 2.67105e-07 3.78324e-07)
(0.00133757 3.21982e-07 4.10856e-07)