/*--------------------------------*- C++ -*----------------------------------*\
| =========                 |                                                 |
| \\      /  F ield         | OpenFOAM: The Open Source CFD Toolbox           |
|  \\    /   O peration     | Version:  5.0                                   |
|   \\  /    A nd           | Web:      www.OpenFOAM.org                      |
|    \\/     M anipulation  |                                                 |
\*---------------------------------------------------------------------------*/
FoamFile
{
    version     2.0;
    format      ascii;
    class       surfaceVectorField;
    location    "2.9";
    object      Uf;
}
// * * * * * * * * * * * * * * * * * * * * * * * * * * * * * * * * * * * * * //

dimensions      [0 1 -1 0 0 0 0];

internalField   nonuniform List<vector> 
25543
(
(-0.00362465 -0.00666459 0.000407423)
(-0.00382197 -0.00417756 0.000460166)
(-0.00261531 -0.00579887 0.000313775)
(-0.00348324 -0.00434706 -0.000226777)
(-0.00357646 -0.00580349 -0.000662686)
(-0.00280245 -0.0044405 7.99662e-05)
(-0.00552868 -0.00697036 0.000220876)
(0.00409112 -0.006328 0.000156768)
(0.000260283 -0.0155034 -0.000245896)
(0.00444231 -0.00911916 0.00127451)
(0.009582 -0.00537836 9.29509e-06)
(-0.000440252 0.00580918 -0.00219178)
(0.0742434 0.00183286 -0.000133727)
(0.0244314 0.00372923 -0.00875501)
(0.0241815 0.0252246 0.000334689)
(-0.0129542 0.00210444 -0.00158185)
(-0.020545 0.000773934 -0.00148722)
(0.0192325 -0.00917264 -0.00313315)
(0.00817294 0.0029825 0.000814236)
(-0.0222969 -0.0122026 -0.00171297)
(0.000237793 0.00255982 0.0024829)
(-0.0278048 0.00213497 -0.00748798)
(-0.0339137 0.00388848 0.000693021)
(-0.0429067 -0.00480008 0.00268858)
(-0.0135176 0.00542584 -0.00272533)
(-0.00513012 0.0035091 -0.000785789)
(0.00703654 3.2331e-05 -0.000460591)
(0.00519589 0.0114479 -0.000434854)
(-0.00208026 0.000962975 -0.002257)
(0.000452322 1.56159e-05 2.23506e-05)
(0.000276588 -1.02107e-05 1.06966e-05)
(0.000346341 4.62334e-05 2.59698e-05)
(0.000176239 1.42636e-05 5.2909e-06)
(0.000818229 -2.37891e-05 -1.21121e-06)
(0.000875254 -6.072e-05 -1.93491e-06)
(0.00111731 -3.09766e-05 -1.14656e-06)
(0.000561868 -2.70345e-05 -5.08865e-06)
(0.00058736 -4.09518e-05 -5.63435e-06)
(0.000940032 -3.02263e-05 -5.83253e-06)
(0.000972248 -5.79977e-05 -6.55707e-06)
(0.000822933 -1.365e-05 1.74983e-09)
(0.000830129 -2.00571e-05 -2.29416e-07)
(0.00108732 -1.72129e-05 1.53935e-07)
(0.000824763 -8.31151e-06 1.05355e-07)
(0.000830358 -1.30209e-05 1.52679e-07)
(0.00109851 -1.0733e-05 2.04454e-07)
(0.000823654 -5.12972e-06 7.48858e-08)
(0.000827179 -6.98189e-06 6.89622e-08)
(0.00109802 -6.50225e-06 1.81239e-07)
(0.000822684 -3.23297e-06 1.7697e-08)
(0.000824694 -4.15024e-06 3.74371e-08)
(0.00109668 -4.26294e-06 1.74766e-07)
(0.00082166 -1.87705e-06 1.45323e-08)
(0.000822904 -2.49146e-06 3.33632e-08)
(0.00109573 -2.62146e-06 1.83435e-07)
(0.000819524 -1.06488e-06 4.77779e-08)
(0.000820943 -1.71878e-06 4.96547e-08)
(0.00109363 -1.3386e-06 1.12378e-07)
(0.000817986 -7.287e-07 3.0512e-08)
(0.000819062 -1.09697e-06 4.53367e-08)
(0.0010911 -8.64527e-07 1.79438e-07)
(0.000816454 -5.75016e-07 3.56008e-08)
(0.000817373 -3.05833e-07 3.68248e-08)
(0.00108912 -6.71988e-07 1.89464e-07)
(0.000815087 -4.57096e-07 7.02145e-08)
(0.000815818 -4.2818e-07 5.36561e-08)
(0.00108718 -5.94916e-07 1.7775e-07)
(0.000813856 -3.89068e-07 9.18965e-08)
(0.000814476 -4.50097e-07 7.67615e-08)
(0.00108551 -4.47178e-07 1.80541e-07)
(0.000811862 -3.58386e-07 9.95507e-08)
(0.000812986 -9.4579e-07 5.9512e-08)
(0.00108324 -4.63324e-07 2.61784e-07)
(0.000810804 -2.24212e-07 7.34117e-08)
(0.000811516 -1.18056e-07 6.29744e-08)
(0.00108119 -3.96854e-07 2.69312e-07)
(0.000809141 -5.01862e-08 5.46213e-08)
(0.000810022 -1.03957e-07 3.25348e-08)
(0.00107946 -1.31861e-07 1.82772e-07)
(0.000807688 -5.58808e-08 6.14781e-08)
(0.000808357 1.3811e-07 1.23037e-08)
(0.0010773 7.00758e-08 1.46424e-07)
(0.000805995 -1.05883e-07 5.32503e-08)
(0.000806746 2.08372e-07 5.27898e-08)
(0.00107514 -1.37904e-07 1.92105e-07)
(0.000804589 -9.85925e-09 5.91436e-08)
(0.000805326 -2.80657e-07 5.44523e-08)
(0.0010731 -7.73675e-08 1.85265e-07)
(0.00080305 5.99881e-08 6.99948e-08)
(0.000803825 1.89582e-08 6.74395e-08)
(0.00107119 1.13148e-07 2.01163e-07)
(0.000801146 4.46045e-08 6.24562e-08)
(0.00080209 -6.00499e-08 5.87542e-08)
(0.00106885 1.21286e-07 1.84749e-07)
(0.000799614 2.50595e-08 5.38939e-08)
(0.000800421 5.94132e-08 4.55647e-08)
(0.00106653 6.72136e-08 1.839e-07)
(0.000798075 9.02656e-08 6.09999e-08)
(0.000798948 -8.56346e-08 4.95526e-08)
(0.00106468 3.20807e-08 1.81324e-07)
(0.000796494 -1.93182e-08 9.74614e-08)
(0.000797192 -2.70391e-07 6.72128e-08)
(0.00106245 2.06154e-07 1.2766e-07)
(0.000794924 -3.33254e-07 1.01389e-07)
(0.000795426 8.33433e-08 6.25154e-10)
(0.00106022 -3.07047e-07 1.5929e-07)
(0.000792936 -4.83752e-07 6.40638e-08)
(0.000793915 -7.87384e-07 -2.73095e-08)
(0.001058 -6.88179e-07 3.69015e-07)
(0.0007915 -4.27766e-07 6.9588e-08)
(0.000792305 -6.63692e-07 3.68181e-08)
(0.00105559 -6.87061e-07 3.17255e-07)
(0.000789717 -1.36984e-07 9.02289e-08)
(0.000790901 -1.29588e-07 1.07005e-07)
(0.00105343 -4.80452e-07 1.86991e-07)
(0.000788988 9.12677e-08 6.97401e-08)
(0.000789595 -2.07558e-06 7.2159e-08)
(0.00105196 9.86902e-08 2.46474e-07)
(0.000787314 1.49609e-07 5.17685e-08)
(0.000788041 1.04693e-07 4.65594e-08)
(0.00105039 1.52164e-07 1.75106e-07)
(0.000785398 2.17477e-07 5.22186e-08)
(0.000786363 3.58641e-07 4.78454e-08)
(0.00104792 2.94424e-07 2.02996e-07)
(0.000783589 2.75066e-07 4.08988e-08)
(0.000784703 2.18693e-07 4.58461e-08)
(0.00104536 3.15796e-07 1.99683e-07)
(0.000782009 4.09724e-07 6.19478e-08)
(0.00078309 4.64032e-07 2.23867e-08)
(0.00104298 4.2206e-07 1.34595e-07)
(0.000781343 3.3855e-07 1.20009e-07)
(0.0007816 -1.75069e-06 7.47957e-08)
(0.00104161 6.92637e-07 2.05973e-07)
(0.000779518 1.00307e-07 9.0247e-08)
(0.000780102 2.65738e-07 9.93591e-08)
(0.00104007 2.73178e-07 1.78965e-07)
(0.000778025 4.5785e-08 4.65204e-08)
(0.000778599 -2.09085e-09 4.51799e-08)
(0.00103779 5.43378e-08 1.7788e-07)
(0.000776479 -1.40537e-08 6.8962e-08)
(0.000777059 -2.76487e-08 6.57763e-08)
(0.00103571 8.77775e-08 1.74969e-07)
(0.00077504 -1.63697e-07 4.77066e-08)
(0.000775546 -2.24827e-07 5.20775e-08)
(0.00103395 -1.57582e-07 1.75877e-07)
(0.00077307 -1.48754e-07 2.95927e-08)
(0.000774116 1.86794e-06 4.06882e-08)
(0.00103156 -3.12301e-07 1.10879e-07)
(0.000771393 4.77536e-08 4.49782e-08)
(0.000772632 -9.46412e-08 4.65186e-08)
(0.0010291 -1.04899e-07 1.85006e-07)
(0.00077052 1.46483e-07 5.68938e-08)
(0.000771122 -5.66637e-07 5.57465e-08)
(0.00102745 1.50877e-07 1.51555e-07)
(0.00076937 4.00209e-08 5.3279e-08)
(0.000769765 -3.7345e-07 5.79494e-08)
(0.00102603 1.42379e-07 1.68696e-07)
(0.000767764 -2.05866e-07 4.53746e-08)
(0.000768413 1.83556e-07 4.28139e-08)
(0.00102435 -1.13779e-07 1.7786e-07)
(0.000766029 -3.31128e-07 2.91522e-08)
(0.000766835 -2.94632e-07 -1.20913e-08)
(0.00102199 -4.71552e-07 2.12837e-07)
(0.000765515 8.95646e-07 6.03373e-08)
(0.0010198 -4.02358e-07 1.11527e-07)
(0.0020675 -0.00992874 0.000454978)
(-0.0111612 0.00123598 0.000740335)
(0.00273138 0.004701 -0.000370497)
(-0.000681262 -0.00231261 0.00017555)
(0.00341764 -0.000397732 0.00610387)
(-0.00552464 -0.0150392 0.00660297)
(-0.0158331 0.0333402 -0.00414484)
(-0.0036623 -0.0148955 0.00552209)
(-0.02609 -0.0243259 0.00918211)
(0.0535499 -0.00293874 -0.00114576)
(-0.00235895 -0.00195364 0.00538335)
(-0.000643577 0.000947047 -0.102658)
(-0.000159593 -0.0110537 0.0378855)
(0.000274639 -0.00380165 0.104349)
(-0.000334991 -0.0176127 -0.0424901)
(-0.00137868 -0.00254797 -8.39169e-05)
(0.00492629 0.00777748 0.000979911)
(0.00870425 -0.0042629 0.000260635)
(-0.00326689 0.00293142 0.000482777)
(-0.00695953 0.00561803 -0.00442541)
(-0.000854192 -0.00576266 -0.0210611)
(0.0279049 -0.0164871 -0.0205496)
(0.00733933 -0.00780359 0.0437468)
(-0.00642983 -0.000238798 0.00193612)
(-0.00836659 0.00674275 0.000272354)
(-0.00240551 -0.00413383 -0.0029716)
(-0.0120617 0.000753947 9.87819e-06)
(-0.0324107 -0.000547773 -0.00135756)
(-0.00919913 -0.0242748 0.00775399)
(-0.00743812 -0.0341035 0.00382235)
(-0.0143005 0.0106838 -0.000938667)
(-0.00856631 0.00593442 0.000326951)
(0.0256558 0.0122557 -0.00177087)
(0.0108491 0.00320082 -0.000977747)
(0.00202228 0.0299593 0.00157493)
(-7.19634e-05 0.032185 -0.000372153)
(0.00272585 0.00681227 -1.63668e-05)
(0.00364811 -0.00463289 0.000433881)
(0.0047862 0.00402115 0.000186823)
(0.0126164 0.00456361 0.00068175)
(-0.00328668 0.00651362 5.53504e-05)
(0.000844201 -4.80519e-05 4.61853e-06)
(0.000305685 -4.6107e-05 1.47322e-05)
(0.000354586 -0.000116889 2.38166e-05)
(0.000532998 -9.69425e-06 5.14667e-05)
(0.000290549 -1.69293e-05 1.17421e-05)
(0.000862419 -3.40267e-05 -9.53674e-07)
(0.000640173 -1.13271e-05 -1.02336e-06)
(0.00120204 -8.12024e-05 -1.59791e-06)
(0.000624938 -5.66276e-05 -5.03624e-06)
(0.000677639 -6.33625e-05 -4.02475e-06)
(0.00101517 -9.30084e-05 -5.32978e-06)
(0.0011476 -0.000119792 -1.31636e-06)
(0.000596562 -3.83805e-05 -4.37093e-06)
(0.00107743 -1.67122e-05 -4.54249e-07)
(0.00097979 -5.89119e-05 -5.52248e-06)
(0.000838471 -6.91662e-06 -7.86116e-08)
(0.000871024 9.86951e-06 -9.92885e-07)
(0.00111811 -2.37689e-06 5.33785e-08)
(0.000832231 -7.59793e-06 1.16314e-07)
(0.000829526 -6.89131e-06 -1.28661e-07)
(0.00111062 -1.19397e-05 1.70459e-07)
(0.000827723 -4.16985e-06 3.15238e-08)
(0.000831464 -3.10713e-06 1.12783e-07)
(0.00110441 -5.63224e-06 1.76608e-07)
(0.000824745 -2.72198e-06 5.31046e-08)
(0.000826503 -2.37104e-06 2.61953e-08)
(0.00110014 -3.8386e-06 1.87732e-07)
(0.000822207 -1.81479e-06 6.84803e-08)
(0.000824039 -1.52801e-06 6.90213e-08)
(0.00109694 -2.39346e-06 2.05985e-07)
(0.000820264 -1.23759e-06 4.72149e-08)
(0.000821665 -1.0981e-06 4.99954e-08)
(0.00109417 -1.8081e-06 1.78957e-07)
(0.000818491 -7.98815e-07 5.16523e-08)
(0.000819612 -6.69541e-07 5.10957e-08)
(0.00109188 -1.1078e-06 1.77791e-07)
(0.000816592 -4.04369e-07 5.48746e-08)
(0.000817866 2.9088e-07 5.44565e-08)
(0.00108946 -7.9719e-07 1.76768e-07)
(0.000815179 -5.32455e-08 6.01957e-08)
(0.000816257 -5.03857e-07 5.10066e-08)
(0.0010873 -1.57667e-07 1.80676e-07)
(0.000813685 8.91897e-08 4.43826e-08)
(0.000814654 -2.0077e-07 6.48347e-08)
(0.00108537 5.73496e-08 1.64151e-07)
(0.000812573 1.28899e-07 2.29346e-08)
(0.000813036 -3.66161e-07 7.16578e-08)
(0.00108363 2.01571e-07 1.07064e-07)
(0.000810833 1.49517e-07 2.21073e-08)
(0.000811541 2.79713e-07 3.48863e-08)
(0.00108172 1.69761e-07 1.7245e-07)
(0.000809183 9.55063e-08 -9.77632e-09)
(0.000809953 1.30221e-07 3.11407e-08)
(0.00107946 2.49054e-07 1.7424e-07)
(0.000807456 1.50012e-08 3.60237e-09)
(0.000808256 -5.53381e-08 4.52124e-09)
(0.00107714 3.70961e-08 2.08982e-07)
(0.000806006 3.67322e-08 5.39913e-08)
(0.000806773 2.04016e-08 4.32522e-08)
(0.00107496 9.10041e-08 1.83089e-07)
(0.00080463 -3.94813e-08 6.27441e-08)
(0.00080523 2.67479e-07 6.58516e-08)
(0.00107324 1.33832e-07 1.2389e-07)
(0.000802912 -2.15498e-07 5.62016e-08)
(0.000803605 -7.6343e-08 5.85847e-08)
(0.00107113 -1.25966e-07 1.97713e-07)
(0.000801303 -2.72998e-07 4.18669e-08)
(0.000802019 -3.10305e-09 4.18053e-08)
(0.00106883 -3.44996e-07 1.76684e-07)
(0.000799744 -2.54618e-07 4.12221e-08)
(0.000800445 1.16737e-08 2.69024e-08)
(0.00106672 -3.00113e-07 1.78967e-07)
(0.000798119 -3.98573e-07 5.57599e-08)
(0.00079877 6.18515e-08 5.4355e-08)
(0.00106468 -3.4657e-07 1.70825e-07)
(0.000796053 -4.92298e-07 -2.96025e-08)
(0.000797077 -6.53777e-07 3.43413e-08)
(0.00106216 -7.81618e-07 2.46747e-07)
(0.000794503 -3.91097e-07 -1.28064e-07)
(0.000795555 1.79904e-07 -7.46245e-08)
(0.00105961 -6.21499e-07 1.67463e-07)
(0.000793175 -2.44391e-07 -5.45753e-08)
(0.0007941 2.05751e-07 2.57037e-08)
(0.00105788 -4.63707e-07 8.46028e-08)
(0.000791706 1.2401e-07 7.42135e-08)
(0.000792765 3.90819e-07 4.48974e-08)
(0.00105601 -2.24378e-07 9.29129e-08)
(0.000790805 4.93393e-07 8.89464e-08)
(0.000791361 -2.44182e-06 6.13495e-08)
(0.00105441 5.57701e-07 2.81508e-07)
(0.000788654 4.16279e-07 4.89863e-08)
(0.000789497 -1.93835e-06 2.9565e-08)
(0.00105248 7.96052e-07 2.18982e-07)
(0.000787097 1.74481e-07 4.26359e-08)
(0.000787737 1.74316e-07 7.27381e-08)
(0.0010499 3.21749e-07 1.71213e-07)
(0.000785667 1.16159e-07 4.14736e-08)
(0.000786289 1.48724e-07 4.88498e-08)
(0.00104784 1.24743e-07 1.80027e-07)
(0.000784207 2.25649e-07 2.73413e-08)
(0.000784839 9.63766e-08 6.0219e-08)
(0.00104595 1.63942e-07 1.76943e-07)
(0.000782624 4.25222e-07 3.52184e-08)
(0.000783338 7.42885e-08 3.19418e-08)
(0.00104404 4.28417e-07 2.07346e-07)
(0.000780425 3.53825e-07 5.41385e-08)
(0.000781509 -6.86108e-07 4.50591e-08)
(0.00104145 7.18475e-07 1.58634e-07)
(0.000779096 1.20206e-07 5.43087e-08)
(0.000779809 4.83289e-08 9.22958e-08)
(0.00103902 2.91336e-07 1.73095e-07)
(0.000777724 -6.86727e-08 6.44294e-08)
(0.000778362 -1.32703e-07 7.75467e-08)
(0.00103731 1.0263e-07 1.71211e-07)
(0.000776137 -2.35186e-07 4.88959e-08)
(0.000776852 -5.61207e-09 6.17757e-08)
(0.00103528 -2.44466e-07 1.8022e-07)
(0.000774485 -3.6176e-07 4.50626e-08)
(0.000775389 -3.56525e-07 9.36996e-08)
(0.00103312 -3.54323e-07 1.97773e-07)
(0.000773782 -2.29996e-07 5.76124e-08)
(0.000774283 4.11896e-08 8.71961e-08)
(0.00103174 -6.1122e-07 2.35436e-07)
(0.000772311 1.16521e-07 5.72841e-08)
(0.000773066 -4.02005e-08 5.54653e-08)
(0.00103023 -3.43855e-08 1.69388e-07)
(0.000770299 3.10372e-07 5.68014e-08)
(0.000771364 -9.86691e-08 5.56305e-08)
(0.00102788 2.46999e-07 1.89055e-07)
(0.000768902 2.4037e-07 4.74889e-08)
(0.000769677 -1.0472e-06 9.35938e-08)
(0.00102566 4.78715e-07 2.16997e-07)
(0.000767448 1.32099e-08 -1.46354e-08)
(0.000768129 2.78857e-07 6.02003e-08)
(0.00102374 1.11454e-07 1.66723e-07)
(0.000766226 -1.14041e-07 1.90718e-08)
(0.000766678 1.25898e-07 -2.62902e-08)
(0.00102187 -1.35151e-07 1.22385e-07)
(0.000765656 -1.03989e-07 1.02426e-07)
(0.00102049 -2.19985e-07 2.30745e-07)
(-0.0234298 -0.00862439 0.00137787)
(-0.0244932 0.00050256 0.000128894)
(-0.0152849 -0.00572224 0.000584195)
(-0.0350625 -0.00789486 0.00186643)
(0.0154733 -0.0380648 -0.00156529)
(-0.00741961 0.00216737 -0.000402713)
(0.00852431 -0.00287476 -0.00227054)
(-0.015438 -0.00591642 -0.00518073)
(0.000415767 0.0195336 -0.00298862)
(0.0215832 -0.00859676 0.000615178)
(0.0239413 -0.0202894 0.00035638)
(0.0161623 0.00739946 0.000227377)
(0.015363 0.00751082 0.000946978)
(0.0292509 -0.0130231 0.000898179)
(0.00321599 -0.00628388 0.000576487)
(0.0027363 0.0015123 0.000789479)
(0.00216721 -0.00752508 6.70528e-05)
(0.00141361 -0.00460453 0.00059994)
(3.83641e-05 -0.0150104 -6.51282e-05)
(-0.0124827 -0.00846092 0.00182483)
(-0.00729684 -0.0147314 0.00267853)
(-0.000273913 -0.00946047 0.00302359)
(-0.013753 -0.0276929 0.000548756)
(-0.00156666 -0.0113491 0.00241274)
(-0.00909363 -0.00490058 -0.00032679)
(0.00196471 -0.00872166 -9.2948e-05)
(0.0045598 -0.00303396 -8.48182e-05)
(0.0029038 -0.0042205 -0.000450639)
(0.00618711 0.00316244 -0.000264111)
(0.00127029 -0.000233791 2.93059e-05)
(0.00107122 -3.76635e-05 -1.44493e-05)
(0.00172723 0.000889745 3.40877e-05)
(0.00166974 -1.37915e-05 -7.94924e-05)
(0.0014711 -6.53434e-05 1.01024e-05)
(0.000359953 7.79929e-06 -2.77032e-06)
(0.000503921 -9.67836e-06 -3.38652e-06)
(0.000492585 5.22149e-07 2.6161e-08)
(0.000832948 -5.88305e-06 -1.29707e-06)
(0.000351095 2.38839e-05 -2.37056e-06)
(0.000647118 2.30376e-05 -3.89e-06)
(0.000632629 6.40256e-05 -2.05244e-06)
(0.000836169 8.00353e-07 -1.04322e-06)
(0.000907237 -1.06646e-06 -1.35688e-06)
(0.00119262 7.83362e-06 -1.00009e-06)
(0.000613563 -9.11349e-06 -4.39781e-06)
(0.000621311 7.1366e-06 -5.02593e-06)
(0.00100243 -2.63214e-05 -5.54961e-06)
(0.0010221 1.08568e-05 -6.40678e-06)
(0.000832526 -3.61321e-06 -1.32271e-07)
(0.00082414 -2.30557e-06 -4.82154e-07)
(0.00109446 -7.65984e-06 5.15363e-08)
(0.000828654 -1.68201e-06 1.07482e-07)
(0.000833887 -4.18278e-07 1.80545e-07)
(0.00110813 -2.79143e-06 2.03734e-07)
(0.000825623 -1.2189e-06 4.20981e-08)
(0.000827086 -1.19994e-07 3.49451e-08)
(0.00110072 -2.0931e-06 1.60955e-07)
(0.000823246 -7.65577e-07 5.05427e-08)
(0.000824608 6.22076e-08 5.59362e-08)
(0.00109826 -1.35334e-06 1.50143e-07)
(0.000820886 -4.47608e-07 5.38758e-08)
(0.000822064 5.25407e-08 5.37122e-08)
(0.00109524 -8.02086e-07 1.78791e-07)
(0.000818835 -2.66679e-07 5.38988e-08)
(0.000819839 8.30619e-08 5.29618e-08)
(0.00109236 -4.67059e-07 1.79561e-07)
(0.000817526 -1.20549e-07 5.05896e-08)
(0.000818049 2.73258e-08 5.09893e-08)
(0.00109031 -2.97271e-07 1.85385e-07)
(0.000815703 -2.17106e-09 5.56411e-08)
(0.000816405 5.23543e-08 4.94977e-08)
(0.00108825 -6.80428e-08 1.72526e-07)
(0.000813991 1.03859e-08 9.21078e-08)
(0.000814669 -4.76538e-07 5.64804e-08)
(0.00108596 2.2722e-08 2.19311e-07)
(0.000811917 -4.49945e-08 8.36213e-08)
(0.000812966 4.92718e-07 7.99626e-08)
(0.00108338 -3.86519e-08 1.70952e-07)
(0.000810844 -1.45043e-07 4.39209e-08)
(0.000811416 -3.56782e-07 3.80485e-08)
(0.00108125 -1.10967e-07 1.86282e-07)
(0.0008089 -1.55357e-07 4.54468e-08)
(0.000809941 8.11996e-07 6.57586e-08)
(0.00107929 -2.5785e-07 1.68545e-07)
(0.000807534 -4.40818e-08 4.41587e-08)
(0.000808395 -2.75838e-07 5.0955e-08)
(0.0010771 -1.16303e-07 1.7956e-07)
(0.000806085 4.52234e-08 5.51053e-08)
(0.000806884 -1.31952e-07 4.5041e-08)
(0.00107526 5.138e-08 1.80526e-07)
(0.000804182 5.24035e-08 6.16944e-08)
(0.000805238 -9.16162e-08 7.30877e-08)
(0.00107283 1.42909e-07 2.33246e-07)
(0.000802695 2.43878e-08 4.41937e-08)
(0.00080357 -1.82458e-07 4.07074e-08)
(0.00107059 4.4982e-08 1.78269e-07)
(0.000801167 -8.7815e-09 2.68455e-08)
(0.000801977 -1.32297e-07 3.37562e-08)
(0.00106864 4.91171e-08 1.82759e-07)
(0.000799514 -5.61996e-08 4.00266e-08)
(0.000800386 3.93569e-08 4.0339e-08)
(0.00106653 -2.63058e-08 1.82075e-07)
(0.000797746 -1.0283e-07 3.29427e-08)
(0.000798711 -7.24458e-08 6.02407e-08)
(0.00106408 -6.63779e-08 2.03197e-07)
(0.000796443 8.91035e-08 -1.06464e-08)
(0.000797316 4.34624e-07 2.16591e-08)
(0.00106212 -1.48956e-07 7.59696e-08)
(0.000795265 3.7206e-07 7.91121e-08)
(0.000795907 6.3093e-07 1.61533e-08)
(0.00106062 4.62994e-07 1.09739e-07)
(0.000793559 4.3599e-07 1.2517e-07)
(0.000794177 3.3334e-07 1.35575e-07)
(0.0010585 6.45827e-07 1.79405e-07)
(0.000792515 4.38894e-07 3.20283e-08)
(0.000792767 4.23938e-07 6.24102e-08)
(0.00105687 6.28555e-07 1.27666e-07)
(0.000790165 2.94601e-07 1.97806e-09)
(0.000791179 -2.86598e-08 2.14016e-08)
(0.00105471 5.86677e-07 7.46545e-08)
(0.000788428 1.20873e-07 5.33034e-08)
(0.000789279 1.88013e-07 3.05411e-08)
(0.00105166 2.22002e-07 4.06275e-08)
(0.000786918 1.20071e-07 7.89595e-08)
(0.000787736 2.06794e-07 6.09422e-08)
(0.00104955 1.04009e-07 1.6969e-07)
(0.000785473 1.17201e-07 6.75917e-08)
(0.000786285 -1.2027e-07 5.23302e-08)
(0.00104772 1.7353e-07 1.85614e-07)
(0.000784009 3.49249e-08 6.48283e-08)
(0.000784736 2.42233e-08 6.06909e-08)
(0.00104574 1.14075e-07 1.73583e-07)
(0.000782352 -6.70149e-08 4.17784e-08)
(0.000783211 6.40101e-08 4.64882e-08)
(0.00104367 -1.56109e-08 1.8681e-07)
(0.000780615 -5.79487e-08 8.32018e-08)
(0.000781521 -1.71203e-07 2.30518e-08)
(0.00104144 -1.41966e-07 1.56669e-07)
(0.000779233 -5.91385e-09 1.15538e-07)
(0.000779874 -1.30405e-08 1.03094e-07)
(0.0010393 -5.21772e-09 1.66659e-07)
(0.000777405 -3.04783e-08 7.48979e-08)
(0.000778331 -1.13717e-07 7.34114e-08)
(0.00103711 -1.20151e-08 2.01444e-07)
(0.000776231 1.14647e-07 1.0657e-07)
(0.000777032 -1.31931e-07 1.07576e-07)
(0.00103514 -2.45786e-08 1.53633e-07)
(0.000774847 3.58952e-07 1.35835e-07)
(0.000775693 -2.68613e-06 1.61646e-07)
(0.0010335 4.20453e-07 3.32604e-07)
(0.000773865 3.41784e-07 8.50588e-08)
(0.000774259 -1.65315e-06 4.11694e-08)
(0.00103196 6.07974e-07 2.5115e-07)
(0.000772189 1.71869e-07 5.38117e-08)
(0.000772852 -9.46471e-09 4.43471e-08)
(0.00103018 3.7796e-07 1.89597e-07)
(0.000770604 1.84217e-07 9.24113e-08)
(0.000771378 -7.32804e-08 4.7172e-08)
(0.00102809 1.88192e-07 1.82499e-07)
(0.000768872 3.33212e-07 1.06315e-07)
(0.000769862 -7.92344e-08 1.03944e-07)
(0.00102586 3.72712e-07 1.27866e-07)
(0.00076739 3.21019e-07 4.85718e-08)
(0.000768112 3.69954e-07 6.452e-08)
(0.00102359 5.20559e-07 1.69533e-07)
(0.000765908 1.85375e-07 5.70251e-08)
(0.000766506 1.63883e-07 3.37439e-08)
(0.00102158 3.10593e-07 1.74179e-07)
(0.000765425 -9.39269e-07 1.32808e-07)
(0.00102024 1.66454e-07 1.99711e-07)
(0.00355878 0.00825865 0.000343451)
(0.00674317 -0.0011117 -0.000317)
(0.00144463 0.000669658 -0.00117452)
(0.00502219 0.00587463 0.00052486)
(0.000954979 -0.00207496 0.000286744)
(-0.00305205 0.00825897 0.00164997)
(-0.00347575 0.00437278 -0.000131607)
(0.00357956 0.0154026 -0.000126376)
(0.00129718 0.0083733 -0.000350838)
(0.0110389 0.00957788 -0.000662815)
(0.00298633 0.00299154 0.00349621)
(0.00213738 -4.18354e-05 -0.000732444)
(-0.00100333 0.00802049 0.000959825)
(0.00226955 -0.00468614 -0.000433102)
(-0.000692683 0.0093028 0.000551155)
(-0.00149103 0.00126971 0.000504585)
(0.00352088 0.0152503 0.000326841)
(0.00535503 0.00712374 9.93165e-05)
(0.0177844 0.00230529 -0.000660819)
(0.0114719 0.00951237 0.000395302)
(0.0132358 -0.00968471 -0.000527765)
(0.00371657 0.00553348 0.000161603)
(0.00592913 -0.0107349 0.00110467)
(0.000396475 -0.00378842 0.000320614)
(0.00296788 0.00241659 0.000287245)
(0.00817479 0.0056809 8.94276e-05)
(-0.00127277 -0.000153169 3.55177e-05)
(-0.00739155 -0.0021481 0.000450499)
(0.00378367 -0.00703251 0.000493769)
(0.00143145 -0.00659626 0.000465126)
(0.0092642 -0.0147868 0.000298266)
(0.00291808 -0.0215798 -0.00032237)
(0.00304891 -0.00797486 -0.00029683)
(0.00840249 -0.0215772 -0.000466291)
(0.00281418 -0.00965412 -0.000204446)
(0.000678718 0.00180359 0.000341497)
(0.00802677 -0.00809355 8.86309e-05)
(0.00181152 0.000490141 0.000238681)
(0.00283001 -0.00142443 0.000178668)
(0.00620488 -0.00509757 0.000740614)
(0.000489907 0.000161675 -1.14794e-05)
(0.000537968 0.000281019 2.61379e-05)
(0.000206948 0.000357942 -8.83839e-06)
(0.00047046 0.000283061 -4.27809e-05)
(0.00093571 0.00078573 4.15684e-05)
(0.000375224 -2.08484e-06 5.2818e-06)
(0.00049585 6.54754e-07 -2.94268e-06)
(0.000532674 -1.25235e-05 2.54435e-06)
(0.000797706 5.94447e-06 3.08639e-06)
(0.000353933 -2.42417e-05 1.29002e-05)
(0.000693112 -2.73215e-06 1.607e-05)
(0.000641822 -3.29396e-05 3.36978e-05)
(0.00048183 7.55833e-06 3.32817e-07)
(0.000841795 -2.66074e-06 -7.96107e-07)
(0.000899262 -2.68933e-06 -1.50618e-06)
(0.00121719 -1.17393e-05 -9.80876e-07)
(0.000626569 -4.73608e-06 -4.02338e-06)
(0.000630955 9.71304e-06 -5.49218e-06)
(0.00102259 -1.13485e-05 -4.97639e-06)
(0.00103242 2.02729e-05 -6.6953e-06)
(0.000835046 1.18347e-06 -1.69555e-07)
(0.00082895 6.47464e-06 -4.23279e-07)
(0.0010977 -3.58821e-07 3.15333e-08)
(0.000829873 1.19874e-06 1.08055e-07)
(0.00083392 3.85739e-06 1.50652e-07)
(0.00111139 2.04691e-07 2.07229e-07)
(0.000826017 1.00491e-06 4.87764e-08)
(0.000826851 2.90622e-06 4.4963e-08)
(0.00110194 9.1164e-07 1.78964e-07)
(0.000823207 6.40093e-07 5.91065e-08)
(0.000824155 1.7429e-06 8.81127e-08)
(0.00109855 4.67353e-07 1.81498e-07)
(0.000820887 5.27084e-07 5.27985e-08)
(0.000821925 1.1561e-06 5.51733e-08)
(0.00109528 4.29189e-07 1.79055e-07)
(0.000818838 4.58595e-07 5.00531e-08)
(0.000819753 8.51066e-07 4.32153e-08)
(0.00109251 4.72763e-07 1.78532e-07)
(0.000816988 2.02456e-07 4.9898e-08)
(0.000817729 5.79557e-07 3.70149e-08)
(0.00108996 4.36434e-07 1.75873e-07)
(0.00081532 -9.45225e-08 5.03348e-08)
(0.000816034 3.03164e-07 5.20749e-08)
(0.0010877 -7.56481e-08 1.80294e-07)
(0.000813655 -3.02188e-07 4.43278e-08)
(0.000814411 1.73364e-07 4.41278e-08)
(0.00108541 -2.53912e-07 1.51399e-07)
(0.000812355 -3.9358e-07 3.44033e-08)
(0.000812853 2.44044e-07 1.33506e-07)
(0.00108346 -5.78607e-07 1.80626e-07)
(0.000810577 -3.67273e-07 5.98773e-08)
(0.00081145 -4.50023e-08 3.16433e-08)
(0.00108145 -4.85209e-07 1.81637e-07)
(0.000809435 -2.9362e-07 7.12715e-08)
(0.000810034 1.29794e-07 7.85798e-08)
(0.00107945 -4.89062e-07 1.93627e-07)
(0.000807676 -1.67289e-07 5.18392e-08)
(0.000808554 7.48898e-09 3.55577e-08)
(0.00107752 -2.9054e-07 1.78688e-07)
(0.000806129 -1.03289e-07 6.30145e-08)
(0.000806965 -5.65309e-08 6.69429e-08)
(0.00107529 -2.05019e-07 1.73226e-07)
(0.000804632 -1.10556e-08 5.21109e-08)
(0.000805354 1.76228e-07 8.9054e-08)
(0.00107323 -1.3292e-07 1.54115e-07)
(0.000802813 1.20292e-07 3.02722e-08)
(0.000803734 3.80511e-08 5.01981e-08)
(0.00107101 7.01793e-08 1.84644e-07)
(0.000801195 2.39322e-07 4.72476e-08)
(0.000802125 -4.67094e-08 5.00824e-08)
(0.00106874 2.34564e-07 1.75686e-07)
(0.000799618 3.73856e-07 6.05468e-08)
(0.000800552 3.2988e-08 6.43886e-08)
(0.00106657 4.07117e-07 1.77878e-07)
(0.000798186 5.8438e-07 4.89693e-08)
(0.000798972 6.49231e-07 4.77759e-08)
(0.00106452 6.22799e-07 1.13596e-07)
(0.000796857 5.63489e-07 4.84605e-08)
(0.000797287 8.53533e-07 1.36084e-07)
(0.00106282 1.03916e-06 1.25629e-07)
(0.000794835 3.82468e-07 7.25784e-08)
(0.000795678 -6.09325e-08 4.75375e-08)
(0.0010606 6.11886e-07 2.65004e-07)
(0.000793239 4.38548e-07 7.28375e-08)
(0.000794244 4.04287e-07 7.94432e-08)
(0.00105808 5.57483e-07 1.73646e-07)
(0.000791699 2.52314e-07 5.17964e-08)
(0.000792531 4.6215e-07 5.06655e-08)
(0.00105593 7.57768e-07 1.71187e-07)
(0.000790113 -3.07253e-08 4.99618e-08)
(0.000790824 -3.83314e-08 4.86279e-08)
(0.0010539 3.6755e-08 1.78862e-07)
(0.000788587 2.78429e-08 3.81704e-08)
(0.000789352 6.05741e-08 5.27342e-08)
(0.00105187 -5.46359e-08 1.82258e-07)
(0.000787139 7.65835e-08 3.43155e-08)
(0.000787797 -4.02762e-08 4.2797e-08)
(0.00104984 1.48477e-07 1.84053e-07)
(0.000785492 1.81639e-08 4.54268e-08)
(0.000786212 -9.32813e-08 4.70248e-08)
(0.00104786 6.58742e-08 1.82506e-07)
(0.000783987 -4.10771e-09 4.23552e-08)
(0.000784708 -5.79808e-08 5.02366e-08)
(0.00104571 -2.67203e-08 1.78028e-07)
(0.000782399 -8.22873e-08 2.77688e-08)
(0.000783114 1.71296e-07 4.24069e-08)
(0.00104372 -1.29617e-08 1.7221e-07)
(0.000780696 -1.32326e-07 4.29196e-08)
(0.000781459 -2.11191e-07 2.97241e-08)
(0.00104147 -2.59208e-07 1.93378e-07)
(0.000779062 -6.99117e-08 6.09765e-08)
(0.000779952 -3.62672e-07 7.45094e-08)
(0.00103919 -1.5755e-07 2.09976e-07)
(0.000777731 7.36872e-08 1.06079e-07)
(0.000778511 -1.6997e-07 5.33876e-08)
(0.00103728 -5.14573e-08 1.62171e-07)
(0.000776746 2.5038e-07 1.62636e-07)
(0.000777252 -2.4246e-07 1.44699e-07)
(0.00103582 2.77303e-07 1.35479e-07)
(0.000774936 3.53244e-07 6.70168e-08)
(0.00077582 1.2597e-07 9.44227e-08)
(0.00103391 4.52408e-07 -8.06403e-10)
(0.000773317 2.33877e-07 4.56655e-10)
(0.000774108 1.71666e-07 2.44131e-08)
(0.00103168 5.59968e-07 5.37319e-08)
(0.000772028 4.35117e-08 3.77065e-08)
(0.000772613 8.9556e-08 3.60658e-08)
(0.0010297 1.11598e-07 1.49561e-07)
(0.000770662 3.00987e-08 5.86871e-08)
(0.000771361 -2.6964e-08 4.74497e-08)
(0.00102787 3.69509e-08 1.61057e-07)
(0.000769151 1.86081e-07 6.21603e-08)
(0.000770056 9.65219e-07 4.10683e-08)
(0.00102607 4.20286e-08 1.02106e-07)
(0.000767155 2.45348e-07 4.97015e-08)
(0.000768185 1.03828e-06 4.61399e-08)
(0.00102366 4.05242e-07 1.74375e-07)
(0.00076586 2.02471e-07 1.09496e-07)
(0.00076645 3.67944e-09 5.57853e-08)
(0.00102142 2.25883e-07 1.71578e-07)
(0.000765173 -1.32004e-06 1.11175e-07)
(0.00101989 3.26653e-07 2.01482e-07)
(-0.0102574 -0.00614505 -0.000558227)
(0.000959248 -0.00497504 0.000124765)
(0.00309922 -0.0187194 -0.0053982)
(0.00530424 -0.00334198 -0.000469164)
(-0.00400974 -0.00378509 -0.000507512)
(0.0146832 -0.00259314 0.00114573)
(-0.00611269 0.00221628 0.00739264)
(0.0144267 -0.0120635 0.00143448)
(0.00169417 -0.00258006 -0.00259694)
(-0.00710124 -0.00233199 -0.000353281)
(-0.00943111 -0.0030244 -0.000534279)
(-0.0070271 -0.000972552 0.000133575)
(0.00564283 0.00683004 0.000346694)
(-0.00201095 0.00174296 6.21579e-05)
(-0.00881752 0.00455385 0.000305777)
(-0.00591244 0.00163715 -6.32782e-05)
(0.0125164 0.00527687 -0.000357683)
(0.00252289 0.00544776 -7.47836e-05)
(0.00975411 0.00400361 0.000242325)
(0.004341 5.25813e-06 0.000204856)
(0.00333274 -0.000610025 -6.36726e-05)
(0.0052739 -0.0046851 0.000436445)
(0.00381672 -0.001568 0.000348213)
(0.0101376 -0.00414386 -3.82678e-05)
(-0.00504911 -0.0063784 0.000568451)
(0.00569751 -0.00850984 -0.00458845)
(0.0124805 -0.003567 -0.00739039)
(0.0143444 -0.00554853 0.0106006)
(0.00591703 -0.00792111 0.00171742)
(-0.00264596 0.00485885 -0.00018982)
(-0.00544319 0.00378265 -9.49577e-05)
(-0.00324954 -0.00124576 0.000768843)
(-0.000702766 0.00074287 0.000188619)
(-0.000544799 -0.000274037 0.00191084)
(-0.00011693 -0.00755556 -0.000512403)
(0.00349504 -0.00470059 -0.00129201)
(-0.00165011 0.00990782 0.000720704)
(-0.00251472 -0.000441942 -8.47871e-05)
(-0.00227919 2.76178e-05 -3.16439e-05)
(-0.00259635 -0.000917276 -2.69053e-05)
(-0.000836036 -0.00102756 -7.29116e-05)
(-0.00333755 -0.000732719 6.60819e-05)
(0.000725687 -0.000415767 -8.65181e-06)
(0.000897235 0.000212706 -6.91307e-05)
(0.00073732 -9.15303e-05 8.94035e-06)
(0.00078625 0.000129713 1.30586e-05)
(0.000814431 4.2673e-05 3.88799e-05)
(0.000460724 -5.7182e-05 2.37141e-05)
(0.000448026 -2.26634e-05 6.04965e-06)
(0.000388302 -8.77866e-06 6.15405e-06)
(0.000624052 -2.76829e-05 1.3884e-05)
(0.00028544 -2.23649e-05 1.24548e-06)
(0.0008445 1.14413e-05 -1.13371e-06)
(0.000870031 2.9377e-05 -1.82481e-06)
(0.00117542 1.07948e-05 -1.53397e-06)
(0.000629285 2.45171e-05 -4.08748e-06)
(0.000632071 2.06531e-05 -4.59703e-06)
(0.00106743 4.5474e-05 -4.51916e-06)
(0.00107662 3.65907e-05 -5.24736e-06)
(0.00083501 9.04337e-06 -1.0326e-07)
(0.000825966 1.75371e-05 -3.15395e-07)
(0.00110942 1.23524e-05 1.13436e-07)
(0.000828844 5.3167e-06 8.75941e-08)
(0.000829262 9.63202e-06 1.38411e-07)
(0.00110977 6.95081e-06 1.89444e-07)
(0.000824736 3.37587e-06 8.42853e-08)
(0.000824425 6.23196e-06 5.67326e-08)
(0.00110107 4.20016e-06 1.80069e-07)
(0.000822751 2.12306e-06 8.41901e-08)
(0.000822589 1.97115e-06 9.6538e-08)
(0.00109767 2.91464e-06 2.10612e-07)
(0.000820749 1.12331e-06 4.5594e-08)
(0.000820675 1.86496e-06 5.37953e-08)
(0.00109525 1.59171e-06 1.79091e-07)
(0.000818543 5.44384e-07 3.01791e-08)