/*--------------------------------*- C++ -*----------------------------------*\
| =========                 |                                                 |
| \\      /  F ield         | OpenFOAM: The Open Source CFD Toolbox           |
|  \\    /   O peration     | Version:  5.0                                   |
|   \\  /    A nd           | Web:      www.OpenFOAM.org                      |
|    \\/     M anipulation  |                                                 |
\*---------------------------------------------------------------------------*/
FoamFile
{
    version     2.0;
    format      ascii;
    class       surfaceVectorField;
    location    "2.9";
    object      Uf_0;
}
// * * * * * * * * * * * * * * * * * * * * * * * * * * * * * * * * * * * * * //

dimensions      [0 1 -1 0 0 0 0];

internalField   nonuniform List<vector> 
25543
(
(-0.00608667 -0.0046281 0.000172852)
(-0.00608667 -0.0046281 0.000172852)
(-0.00608667 -0.0046281 0.000172852)
(-0.00386437 -0.00316661 -0.00014059)
(-0.00525891 -0.00616107 -0.000610624)
(-0.00374039 -0.00207828 0.000124968)
(-0.00608667 -0.0046281 0.000172852)
(0.0156449 -0.00251607 0.000734852)
(0.00526681 -0.010381 -0.000727647)
(0.0109271 -0.00543816 -0.000248579)
(0.00572875 -0.00337109 -0.00041126)
(0.0371384 -0.000711697 0.00495135)
(0.00724753 0.0065309 0.00455699)
(0.00329479 -0.00951772 0.00368284)
(0.0242787 -0.00537517 0.00511216)
(-0.0142008 0.000876174 -0.00133794)
(-0.0302948 0.00171521 -0.000315086)
(0.00544587 -0.0113756 0.000339582)
(-0.00131281 0.00711507 -0.000635397)
(-0.020441 -0.00504599 0.000289458)
(0.00101897 0.00849797 -0.00144697)
(-0.0234453 -0.00250514 -0.00514561)
(-0.0392501 -0.0197195 -0.000511805)
(-0.0473708 0.00773433 0.000568934)
(-0.0170577 0.00552492 -0.00091039)
(-0.00526281 0.000553839 -0.000312811)
(0.0053026 -0.000780944 -0.000270539)
(0.00977245 0.00612781 -8.18406e-05)
(-0.00434639 -0.000656536 -0.00172177)
(0.000491093 8.76442e-05 2.47618e-05)
(0.000308624 7.2951e-05 1.08602e-05)
(0.000418597 0.000161683 2.49375e-05)
(0.000205806 7.72268e-05 4.91083e-06)
(0.000783488 4.45047e-05 -1.04656e-06)
(0.000790152 8.65113e-06 -1.86274e-06)
(0.0010534 7.71718e-05 -1.069e-06)
(0.00053549 5.81232e-05 -3.94208e-06)
(0.000516355 3.95004e-05 -4.79817e-06)
(0.00092294 0.000104506 -4.27612e-06)
(0.000869663 7.30124e-05 -5.25131e-06)
(0.000801179 2.43135e-05 5.08905e-08)
(0.000784281 1.6947e-05 -1.11123e-07)
(0.00105555 4.15097e-05 1.71021e-07)
(0.000810672 1.38723e-05 8.48434e-08)
(0.000803584 8.66845e-06 8.52948e-08)
(0.00107711 2.32504e-05 2.05878e-07)
(0.000814084 8.11532e-06 6.53535e-08)
(0.000810565 5.95619e-06 6.43543e-08)
(0.00108363 1.36556e-05 1.86046e-07)
(0.000815769 4.774e-06 5.12965e-08)
(0.000813748 3.71204e-06 5.88516e-08)
(0.0010864 7.90216e-06 1.7884e-07)
(0.000816269 2.96452e-06 5.68362e-08)
(0.000815189 2.3588e-06 5.55327e-08)
(0.00108784 4.75085e-06 1.82471e-07)
(0.000815281 1.90692e-06 5.79535e-08)
(0.000815189 1.30431e-06 5.86726e-08)
(0.00108731 3.1074e-06 2.05303e-07)
(0.000814146 1.18956e-06 2.19369e-08)
(0.000814434 7.54924e-07 4.93661e-08)
(0.00108568 1.95198e-06 1.83796e-07)
(0.000812939 6.85437e-07 2.49775e-08)
(0.000813348 1.47041e-06 2.86029e-08)
(0.00108411 1.18872e-06 1.52637e-07)
(0.000811802 4.34399e-07 7.03924e-08)
(0.000812185 2.50379e-07 5.32902e-08)
(0.00108254 6.15796e-07 1.80477e-07)
(0.000809982 2.79365e-07 7.73153e-08)
(0.00081084 5.05614e-08 6.74766e-08)
(0.0010806 5.1801e-07 1.64804e-07)
(0.000808555 1.16693e-07 9.58342e-08)
(0.00080933 -3.55502e-07 5.61686e-08)
(0.00107835 1.93359e-07 2.00603e-07)
(0.000807056 3.62312e-08 7.82268e-08)
(0.000807867 5.33788e-08 7.70798e-08)
(0.0010764 8.53272e-08 1.72649e-07)
(0.00080565 3.50778e-08 3.15589e-08)
(0.000806341 7.59145e-08 5.96591e-08)
(0.00107455 -5.93914e-10 1.46072e-07)
(0.000803989 -5.21202e-08 4.18982e-08)
(0.000804649 -1.55763e-07 2.27193e-08)
(0.00107247 1.30258e-07 1.89116e-07)
(0.000802367 -1.28889e-07 5.10137e-08)
(0.000803091 4.23579e-08 5.86369e-08)
(0.00107022 -1.96771e-07 1.78038e-07)
(0.000800897 -6.27717e-08 5.03905e-08)
(0.000801739 -2.26733e-07 4.06987e-08)
(0.00106819 -8.09747e-08 1.82837e-07)
(0.000799372 -3.35455e-08 6.20953e-08)
(0.000800172 6.74595e-08 5.50795e-08)
(0.00106625 -2.10102e-08 1.85979e-07)
(0.000797891 2.49138e-08 6.10454e-08)
(0.000798612 1.30797e-07 6.2403e-08)
(0.00106421 2.40342e-08 1.77521e-07)
(0.000796351 4.52262e-08 4.95755e-08)
(0.000797062 7.58462e-08 4.3147e-08)
(0.00106213 1.18006e-07 1.72286e-07)
(0.000795077 1.02617e-07 4.70486e-08)
(0.000795665 -1.96424e-07 4.89903e-08)
(0.00106046 3.01043e-08 1.7769e-07)
(0.000792513 -3.13384e-08 5.43164e-08)
(0.000793746 8.47964e-07 5.10902e-08)
(0.0010578 2.34857e-07 2.59139e-07)
(0.000791239 -4.6616e-07 1.96953e-09)
(0.000791742 -3.8852e-07 7.2508e-08)
(0.00105512 -3.58839e-07 2.10727e-07)
(0.000789807 -6.21767e-07 -3.69819e-08)
(0.000790512 1.88677e-06 3.7574e-08)
(0.0010535 -9.28368e-07 -2.16554e-08)
(0.000788043 -5.12029e-07 3.60264e-08)
(0.000789092 9.67256e-07 1.29873e-08)
(0.00105121 -7.57752e-07 9.2596e-08)
(0.000787064 -3.18739e-07 7.10572e-08)
(0.000787717 2.65379e-07 1.40445e-07)
(0.00104936 -6.07554e-07 1.70137e-07)
(0.000785861 -2.79543e-08 4.91075e-08)
(0.000786625 1.19679e-07 5.76544e-08)
(0.00104811 -1.98399e-07 1.13002e-07)
(0.000784286 1.57697e-07 5.06862e-08)
(0.00078504 9.93501e-08 4.35982e-08)
(0.00104628 1.83665e-07 1.75852e-07)
(0.000782605 1.65054e-07 3.13974e-08)
(0.0007833 6.12396e-08 5.99466e-08)
(0.00104404 2.97193e-07 1.19575e-07)
(0.00078044 1.5676e-07 1.41673e-08)
(0.000781657 -9.90237e-08 2.22259e-08)
(0.00104141 1.92136e-07 1.16184e-07)
(0.000779204 2.92265e-07 4.38434e-08)
(0.000780067 1.21276e-07 3.87755e-08)
(0.00103903 2.69916e-07 1.61722e-07)
(0.000777712 4.26624e-07 6.46927e-08)
(0.00077862 2.64362e-07 4.20189e-08)
(0.00103736 5.78795e-07 1.84811e-07)
(0.000776859 2.75907e-07 4.85061e-08)
(0.000777205 -1.01941e-06 7.10461e-08)
(0.00103592 6.00364e-07 1.97315e-07)
(0.000775357 1.00521e-07 7.32658e-09)
(0.000775833 1.34617e-07 4.31878e-08)
(0.00103423 1.36384e-07 1.7469e-07)
(0.000774142 -1.66672e-07 -1.00565e-08)
(0.000774327 -2.09254e-08 2.21717e-08)
(0.0010323 1.20568e-07 1.57507e-07)
(0.000772424 -3.73711e-07 1.19764e-07)
(0.000773116 1.36e-06 1.95966e-08)
(0.00103062 -5.68781e-07 2.08818e-07)
(0.000770967 -2.46859e-07 1.3982e-07)
(0.000771847 -5.48163e-07 1.8169e-07)
(0.00102834 -4.09696e-07 1.91807e-07)
(0.000769531 -1.57225e-07 3.85357e-08)
(0.000770324 2.95619e-08 4.63822e-08)
(0.00102634 -2.50199e-07 1.63728e-07)
(0.000768086 -1.84269e-07 5.24232e-08)
(0.000768832 -1.13128e-07 4.93214e-08)
(0.00102448 -2.00893e-07 1.53753e-07)
(0.000766781 -3.45323e-07 5.64704e-08)
(0.000767411 -1.52018e-07 6.35926e-08)
(0.00102258 -2.93064e-07 1.86828e-07)
(0.000765388 -3.73199e-07 1.28782e-08)
(0.000766115 -3.82253e-07 2.40901e-08)
(0.00102099 -5.80494e-07 1.73753e-07)
(0.000763579 -2.53608e-07 2.25088e-08)
(0.00076447 1.32189e-06 3.11167e-08)
(0.00101871 -3.90915e-07 8.08338e-08)
(0.000763081 -4.86301e-07 4.81896e-08)
(0.00101635 -3.02286e-07 2.59662e-07)
(0.000441565 -0.00981883 0.000284979)
(-0.0118337 0.00210225 0.000934993)
(0.00325682 0.00575511 -6.03576e-05)
(0.00195624 0.00117134 0.000134452)
(-0.0152984 -0.0154925 0.00755878)
(0.00450821 -0.0173075 0.00912074)
(-0.0557079 0.0222421 -0.00203993)
(-0.0210931 -0.0155929 0.00887371)
(-0.0329318 -0.0198801 0.0129321)
(-0.0311069 -0.0130066 0.00109191)
(-0.00641189 0.00574505 0.00820886)
(-0.00937632 -0.00117967 -0.121602)
(-0.000117986 -0.0101268 -0.00109559)
(-0.0103822 0.000475861 0.199998)
(-0.00148055 -0.00901387 -0.0673858)
(0.00591474 -0.000769962 6.71726e-05)
(0.0127991 0.0114441 0.00127829)
(0.0148568 -0.00474596 0.00081064)
(0.0157594 -0.00972248 -0.000785411)
(0.00267346 0.00768115 0.0242232)
(0.00851089 -0.0108307 -0.0292379)
(0.0314096 -0.0177349 -0.0536043)
(0.0156708 -0.00334736 0.0606869)
(-0.00390898 -0.0170967 0.0029159)
(-0.00519573 0.00945381 0.000256872)
(0.00140539 -0.00294617 -0.00383549)
(-0.00985132 0.00330569 8.3064e-07)
(-0.0257334 -0.00809005 -0.00192552)
(-0.00390898 -0.0170967 0.0029159)
(-0.00390898 -0.0170967 0.0029159)
(-0.00390898 -0.0170967 0.0029159)
(-0.0184162 0.00408121 0.00012606)
(0.0179301 0.0180438 -0.00234964)
(0.00112597 0.0086736 -0.00141747)
(-0.00538665 0.0407506 0.00217812)
(-0.00794488 0.0378552 -0.00105425)
(0.00911181 0.00734011 0.000119622)
(0.00886438 0.00445699 -1.61641e-05)
(0.00583854 0.00647656 0.000261554)
(0.00552993 0.00961258 0.000621901)
(0.00194775 0.00943832 0.000101465)
(0.000710429 8.22634e-05 3.69364e-06)
(0.000204714 1.36808e-05 1.48019e-05)
(0.000212354 -0.000105871 2.47617e-05)
(0.000306557 6.28693e-05 5.37911e-05)
(0.000168184 1.07924e-05 1.22209e-05)
(0.000777235 -1.76022e-05 -9.27875e-07)
(0.000577296 -5.00357e-05 -1.58489e-06)
(0.0010632 -5.28253e-05 -9.49474e-07)
(0.000488433 -5.16403e-05 -4.24341e-06)
(0.000568143 -9.50773e-05 -4.74587e-06)
(0.000787539 -8.52362e-05 -4.05342e-06)
(0.000949012 -0.000183859 -2.3497e-06)
(0.000544653 -6.36734e-05 -4.24653e-06)
(0.000983445 -8.30731e-05 -1.22848e-06)
(0.000911056 -0.000104039 -5.1809e-06)
(0.000792222 4.68274e-06 -7.67833e-08)
(0.000817126 -2.835e-06 -9.59217e-07)
(0.00103974 1.53629e-05 1.12661e-07)
(0.000805141 8.30492e-07 6.48126e-08)
(0.000798731 -9.8338e-06 -2.13519e-07)
(0.00106695 1.21044e-06 2.02983e-07)
(0.000810936 1.36429e-06 5.78542e-08)
(0.000811206 -3.35275e-06 1.11323e-07)
(0.00107786 2.9678e-06 1.8445e-07)
(0.000813633 8.38339e-07 6.30889e-08)
(0.000813074 -1.99327e-06 4.28275e-08)
(0.00108297 1.63476e-06 2.03702e-07)
(0.000814424 4.86022e-07 5.7368e-08)
(0.00081474 -1.1103e-06 5.59234e-08)
(0.0010851 1.10879e-06 2.14139e-07)
(0.000814436 2.19785e-07 5.00882e-08)
(0.000814851 -7.19806e-07 5.10466e-08)
(0.00108546 4.55795e-07 1.81954e-07)
(0.000813766 1.02757e-07 5.60388e-08)
(0.000814285 -4.01431e-07 5.21823e-08)
(0.00108496 2.7172e-07 1.80716e-07)
(0.000812507 1.51078e-07 5.69076e-08)
(0.000813407 4.19298e-07 3.35067e-08)
(0.00108359 8.10778e-08 2.2393e-07)
(0.00081143 2.1148e-07 5.03699e-08)
(0.00081226 -3.7244e-07 5.0615e-08)
(0.00108201 3.57337e-07 1.7874e-07)
(0.000810056 2.8555e-07 4.63335e-08)
(0.000810931 4.81607e-07 6.92248e-08)
(0.00108035 2.21952e-07 1.31449e-07)
(0.000808757 3.08261e-07 3.74074e-08)
(0.000809358 -4.4374e-07 7.11344e-08)
(0.00107858 5.3862e-07 1.60744e-07)
(0.000807108 1.99058e-07 5.85177e-08)
(0.00080773 4.09391e-09 3.62888e-08)
(0.00107661 2.76247e-07 1.88164e-07)
(0.000805421 1.65192e-07 5.08313e-08)
(0.000806297 3.30605e-07 1.33831e-07)
(0.00107443 2.73476e-07 1.70391e-07)
(0.000803568 3.01685e-07 3.94466e-08)
(0.000804818 2.98766e-07 3.11634e-08)
(0.001072 1.86328e-07 1.70958e-07)
(0.000802596 3.71732e-07 4.83277e-08)
(0.000803177 1.1817e-07 4.60068e-08)
(0.00107006 6.11156e-07 1.20689e-07)
(0.000800984 1.54723e-07 4.53832e-08)
(0.000801466 -6.48431e-07 -2.48047e-08)
(0.00106851 3.88087e-07 2.11149e-07)
(0.000799371 -3.91973e-08 5.53849e-08)
(0.00079993 1.62817e-07 5.50849e-08)
(0.00106631 7.0736e-08 1.75379e-07)
(0.000797844 -1.58141e-07 4.45107e-08)
(0.000798464 -1.59249e-08 4.26376e-08)
(0.00106414 -1.27464e-07 1.84912e-07)
(0.000796276 -2.56212e-07 4.256e-08)
(0.00079694 7.98616e-08 4.72938e-08)
(0.00106208 -2.49946e-07 1.77994e-07)
(0.000794674 -6.10769e-07 5.30313e-08)
(0.000795224 -1.95208e-07 5.47402e-08)
(0.00106005 -4.01416e-07 1.81513e-07)
(0.00079268 -7.19004e-07 6.92751e-08)
(0.000793613 1.58149e-06 -2.53708e-09)
(0.00105762 -1.22222e-06 1.64676e-07)
(0.000790916 -4.81141e-07 1.08123e-07)
(0.000792042 -3.99466e-07 8.41145e-08)
(0.00105499 -7.01033e-07 1.971e-07)
(0.00078995 -3.4379e-07 8.75508e-08)
(0.000790686 -3.71459e-08 1.11424e-07)
(0.00105333 -5.82222e-07 2.62233e-07)
(0.00078863 4.68106e-08 1.17366e-07)
(0.00078958 -5.97421e-08 5.56218e-08)
(0.00105182 -3.29545e-07 2.30613e-07)
(0.000787288 4.12721e-07 1.27068e-07)
(0.000788173 5.57702e-07 2.43697e-07)
(0.00105002 5.00504e-07 1.39371e-07)
(0.000786012 2.41684e-07 5.21496e-08)
(0.000786409 7.7346e-07 9.68791e-08)
(0.00104838 6.84305e-07 1.08143e-07)
(0.000783877 -2.99685e-08 5.28535e-08)
(0.000784699 9.02596e-07 5.20203e-08)
(0.00104601 3.17113e-08 1.74253e-07)
(0.000782479 -7.09777e-08 5.07869e-08)
(0.000783249 1.68407e-07 6.09824e-08)
(0.00104359 -6.23953e-08 1.58583e-07)
(0.000781158 3.47467e-08 4.6829e-08)
(0.000781789 -2.563e-07 1.16907e-07)
(0.00104183 -7.62512e-08 1.71033e-07)
(0.000779537 2.55532e-07 3.695e-08)
(0.000780342 1.6132e-07 5.4484e-08)
(0.00103998 2.34949e-07 1.84302e-07)
(0.000778035 4.45274e-07 4.83634e-08)
(0.000778855 4.45555e-07 3.27525e-08)
(0.0010378 5.29136e-07 1.6381e-07)
(0.000776191 3.85423e-07 6.57365e-08)
(0.000777129 -3.31624e-07 5.56857e-08)
(0.00103548 7.02917e-07 1.58497e-07)
(0.000774877 1.38051e-07 5.80395e-08)
(0.000775523 4.07381e-08 4.43707e-08)
(0.00103346 3.0814e-07 1.67498e-07)
(0.000773136 -1.28479e-07 5.18256e-08)
(0.000773994 6.17017e-07 6.58141e-08)
(0.00103136 3.91326e-08 1.53514e-07)
(0.000772674 -3.27487e-07 8.14726e-08)
(0.000772869 5.08651e-07 1.49523e-07)
(0.00102987 -3.67202e-07 1.45894e-07)
(0.000771178 -2.36019e-07 8.82943e-08)
(0.000771962 2.86557e-09 1.14034e-07)
(0.00102873 -5.1571e-07 1.38236e-07)
(0.000769675 -1.31828e-07 5.7167e-08)
(0.000770456 -3.13661e-08 7.4004e-08)
(0.00102665 -1.57746e-07 1.8348e-07)
(0.000768057 -5.67987e-08 6.04863e-08)
(0.000768927 1.67868e-08 8.68513e-08)
(0.00102457 -2.12919e-07 1.80348e-07)
(0.000766774 -5.42895e-08 3.12243e-08)
(0.000767415 3.18069e-07 6.09219e-08)
(0.00102267 8.10527e-08 1.2517e-07)
(0.000765324 -2.59175e-07 4.23264e-08)
(0.000765859 -4.12355e-07 3.76372e-08)
(0.0010208 -1.75277e-07 1.77078e-07)
(0.000763723 -3.05458e-07 5.67923e-08)
(0.000764416 4.82119e-07 7.27752e-08)
(0.00101868 -4.75159e-07 2.50139e-07)
(0.000763461 6.49671e-08 5.87922e-08)
(0.00101731 -3.22242e-07 8.35345e-08)
(-0.0287389 -0.00836592 0.00178373)
(-0.0305806 -0.000293018 0.000240261)
(-0.0228498 -0.00712093 0.00106606)
(-0.0413744 -0.00757599 0.00248406)
(0.0199577 -0.0676632 -0.00105823)
(-0.011137 -0.0037073 -0.00167668)
(0.0393832 -0.00540922 -0.00167348)
(-0.00275598 -0.0112448 -0.0102844)
(0.0148172 0.0231186 -0.00497567)
(0.0365767 0.00410822 0.00134714)
(0.0474959 0.00295761 0.000141343)
(0.0362723 0.0138356 0.00168776)
(0.0393057 0.0210014 0.00174968)
(0.0334331 -0.00799583 0.000889529)
(0.00186818 -0.0106944 0.000846387)
(0.000683091 -0.00338227 0.000495948)
(0.00229739 -0.0108432 0.000169122)
(0.00121926 -0.00429092 0.000769832)
(-0.00106006 -0.0167545 -0.000565112)
(-0.0158314 -0.00623853 0.00317793)
(-0.0025037 -0.0164512 0.00230013)
(-0.000438612 -0.00353614 0.00304781)
(-0.0152886 -0.0307636 -0.000525183)
(-0.00659158 -0.0140125 0.00246876)
(-0.00952834 -0.00612079 -0.000112514)
(0.00370175 -0.0100887 -0.000357363)
(0.00460747 -0.00416478 -8.57192e-05)
(0.00425587 -0.0044961 -0.000439048)
(0.00671003 0.000986585 -0.000185541)
(0.00119826 -0.000534377 3.52371e-05)
(0.00102992 -0.000206517 -9.26711e-06)
(0.00177091 0.000585101 4.21608e-05)
(0.00163817 -0.000287682 -7.28657e-05)
(0.00142917 -0.000200806 1.40751e-05)
(0.000333914 -3.25148e-05 -3.05994e-06)
(0.000478927 -4.38918e-05 -3.6991e-06)
(0.000462731 -3.29605e-05 -6.89279e-07)
(0.000772314 -6.59746e-05 -1.99268e-06)
(0.000330747 -1.21383e-05 -2.5567e-06)
(0.000607094 -5.88966e-05 -4.31127e-06)
(0.000603169 -7.13396e-06 -2.29808e-06)
(0.000804564 -1.31487e-05 -1.0962e-06)
(0.000868417 -2.27599e-05 -1.3644e-06)
(0.00113722 -1.43149e-05 -1.05613e-06)
(0.000580907 -3.4537e-05 -4.26814e-06)
(0.000591475 -1.42474e-05 -4.79096e-06)
(0.000952336 -7.12832e-05 -5.20271e-06)
(0.00097724 -2.78607e-05 -5.9549e-06)
(0.000809841 -1.05049e-05 -1.67114e-07)
(0.000802104 -1.66169e-05 -5.43862e-07)
(0.0010615 -1.81041e-05 5.4298e-08)
(0.000812876 -5.39589e-06 9.6319e-08)
(0.000817595 -9.42371e-06 1.71453e-07)
(0.00108408 -8.36332e-06 2.00086e-07)
(0.00081471 -3.28534e-06 3.56578e-08)
(0.000815713 -5.76998e-06 2.01133e-08)
(0.00108403 -5.1266e-06 1.46086e-07)
(0.000815332 -1.96812e-06 4.96036e-08)
(0.000816386 -3.44344e-06 5.28613e-08)
(0.00108634 -3.08276e-06 1.51321e-07)
(0.000814847 -1.18152e-06 5.31403e-08)
(0.000815834 -2.11079e-06 5.24413e-08)
(0.00108624 -1.83621e-06 1.81406e-07)
(0.000813939 -7.25777e-07 2.96562e-08)
(0.000814855 -1.27246e-06 5.28442e-08)
(0.0010852 -1.11894e-06 1.81715e-07)
(0.000813278 -4.12015e-07 2.72086e-08)
(0.000813799 -8.84427e-07 2.67744e-08)
(0.00108421 -6.94561e-07 1.90189e-07)
(0.00081174 -1.78399e-07 6.94639e-08)
(0.000812551 -3.62648e-07 5.0962e-08)
(0.00108272 -3.37674e-07 1.74949e-07)
(0.000810391 -9.96884e-08 9.40251e-08)
(0.000811029 -1.3877e-06 5.81299e-08)
(0.00108082 -1.11319e-07 2.8802e-07)
(0.000808204 -7.202e-08 7.00271e-08)
(0.000809392 3.82786e-07 6.67386e-08)
(0.00107841 -1.4853e-07 1.74223e-07)
(0.000806927 -2.34037e-08 1.11571e-07)
(0.00080779 -3.2482e-07 3.52255e-08)
(0.00107607 -4.72309e-08 1.75357e-07)
(0.000805683 9.66818e-09 1.14196e-07)
(0.000806339 -1.4337e-07 1.28949e-07)
(0.00107443 -1.09392e-08 1.82508e-07)
(0.000804547 1.17033e-07 3.77188e-08)
(0.000804952 -1.90119e-07 4.83127e-08)
(0.00107289 4.67972e-08 1.74266e-07)
(0.000801981 2.10566e-07 -2.71031e-08)
(0.000803293 5.52405e-07 2.3909e-08)
(0.00107047 2.84433e-07 2.34571e-07)
(0.000800334 1.95536e-07 -1.51284e-08)
(0.000801446 -2.12938e-07 -4.51622e-08)
(0.00106751 3.0865e-07 1.543e-07)
(0.000799038 1.51274e-07 4.23416e-08)
(0.000799873 -1.58394e-07 3.95468e-08)
(0.0010656 2.14417e-07 1.76734e-07)
(0.000797587 7.1729e-08 4.54193e-08)
(0.000798364 -8.20234e-08 3.15875e-08)
(0.00106381 1.75315e-07 1.7266e-07)
(0.000795983 -5.66458e-09 5.94717e-08)
(0.000796843 2.01786e-07 6.26867e-08)
(0.00106179 3.25418e-08 1.72874e-07)
(0.000794038 -5.04431e-08 -8.10051e-10)
(0.000795168 -6.71151e-09 7.22459e-08)
(0.00105925 -8.56551e-09 1.98438e-07)
(0.000793085 1.6668e-07 1.2275e-08)
(0.000793884 -8.10828e-07 -2.89275e-08)
(0.00105743 -8.50236e-08 2.93246e-07)
(0.000791561 5.68285e-07 8.74061e-08)
(0.000792542 -1.15253e-06 7.88021e-08)
(0.00105593 5.73042e-07 2.28357e-07)
(0.000790453 7.10055e-07 7.95121e-08)
(0.00079086 -9.47129e-07 5.36254e-08)
(0.00105397 9.7527e-07 2.03095e-07)
(0.000789125 5.61491e-07 1.81894e-07)
(0.000789392 -1.87053e-06 2.84636e-08)
(0.00105257 9.24859e-07 2.8693e-07)
(0.000787411 3.6218e-07 2.13554e-07)
(0.000787922 4.3122e-07 1.70075e-07)
(0.00105062 5.7408e-07 2.02168e-07)
(0.00078498 1.30889e-07 9.67638e-08)
(0.000786119 1.11128e-07 9.17209e-08)
(0.00104752 3.9126e-07 3.04378e-07)
(0.000784059 2.26849e-08 6.01463e-08)
(0.000784564 1.07346e-07 5.43156e-08)
(0.00104534 -4.10692e-08 1.79993e-07)
(0.000782574 8.12319e-08 1.27085e-07)
(0.000783322 -9.94686e-08 5.35476e-08)
(0.00104391 9.08877e-08 1.93127e-07)
(0.000780966 4.45694e-08 1.24582e-07)
(0.000781743 -5.35645e-08 1.34454e-07)
(0.00104178 1.11836e-07 1.71011e-07)
(0.000779595 5.55476e-08 5.02933e-08)
(0.000780356 6.97043e-08 5.21693e-08)
(0.00103979 8.56824e-09 1.71275e-07)
(0.000778157 2.11722e-08 4.00678e-08)
(0.000778812 4.84387e-07 1.91683e-08)
(0.00103794 1.10911e-07 1.68305e-07)
(0.000776245 3.10885e-08 3.43234e-08)
(0.000777141 1.60086e-07 2.94637e-08)
(0.00103564 -8.87571e-08 1.78744e-07)
(0.000774815 1.67953e-07 5.21388e-08)
(0.000775693 3.58434e-08 3.89024e-08)
(0.0010334 1.4291e-07 1.71561e-07)
(0.000773312 3.66767e-07 1.63486e-07)
(0.000774241 3.49223e-07 5.53183e-08)
(0.00103145 2.69674e-07 1.97353e-07)
(0.000772468 4.05247e-07 1.82095e-07)
(0.000772915 6.49694e-07 1.86031e-07)
(0.00102993 6.99991e-07 1.08692e-07)
(0.000771275 2.51277e-07 9.97562e-08)
(0.000771768 3.59438e-07 2.36621e-08)
(0.00102861 4.28058e-07 1.24871e-07)
(0.000769684 1.9883e-07 1.03684e-07)
(0.000770389 -8.3531e-08 5.82326e-08)
(0.00102673 3.47019e-07 1.90805e-07)
(0.000768234 2.30095e-07 8.72948e-08)
(0.000768964 -6.29359e-08 7.79246e-08)
(0.00102478 2.89549e-07 1.80304e-07)
(0.000766511 2.10387e-07 6.73419e-08)
(0.000767388 1.84996e-07 6.56008e-08)
(0.00102263 3.86059e-07 2.09318e-07)
(0.000764934 1.09202e-07 6.80753e-08)
(0.000765731 -3.87889e-08 4.62384e-08)
(0.00102029 2.24545e-07 1.59062e-07)
(0.00076396 7.35923e-08 7.47793e-08)
(0.000764369 -2.28123e-07 5.10297e-08)
(0.00101854 1.11274e-07 1.83443e-07)
(0.000763369 1.20766e-07 6.65984e-08)
(0.00101735 1.00712e-07 1.58918e-07)
(0.00480624 0.00609438 0.000290226)
(0.00774791 -0.000132995 -0.000165734)
(0.00289055 0.00111073 -0.000307828)
(0.00851866 0.00584865 0.000495516)
(0.00306437 -0.00123431 0.000310617)
(-3.03451e-05 0.00887123 0.00175442)
(-0.00393478 0.00601716 -0.000284656)
(0.0106257 0.0134063 0.000708042)
(0.00124535 0.00703323 -0.000564788)
(0.010267 0.00845749 -0.000133101)
(0.00348952 0.00275952 0.000292434)
(0.00253277 -0.00135158 -0.000388961)
(0.00134429 0.00784972 0.00167327)
(0.00276368 -0.00406073 -0.000327837)
(-0.000439985 0.00921628 0.000659491)
(-0.00196903 0.000750964 0.00066111)
(0.00510608 0.0165659 0.000298629)
(0.00654863 0.00978047 6.42489e-05)
(0.0205241 0.00312114 -0.000757788)
(0.0135526 0.012219 0.000435348)
(0.0143988 -0.00732464 -0.000488631)
(0.00455744 0.00669708 0.000120609)
(0.00698545 -0.0105661 0.0010545)
(0.00121694 -0.00211186 0.00010479)
(0.00387111 0.00521208 -0.000314562)
(0.00923078 0.00612032 0.00010347)
(-0.00128213 -0.001173 5.21059e-05)
(-0.00785926 -0.00300447 0.000383063)
(0.00400618 -0.00800064 0.00057351)
(0.00202154 -0.00759521 0.000570553)
(0.00904716 -0.0147181 0.000286339)
(0.00304944 -0.0221146 -0.00034722)
(0.0032962 -0.00817857 -0.000246717)
(0.00860992 -0.0212638 -0.000452)
(0.00289768 -0.0101658 -0.00021327)
(0.000384041 0.00204018 0.000305283)
(0.0081013 -0.00827179 5.17943e-05)
(0.00252373 0.00194395 0.000216417)
(0.00445301 -0.00128206 0.000112802)
(0.00654237 -0.00478762 0.000693281)
(0.000577368 0.000175068 -1.41003e-05)
(0.000642917 0.000229582 2.82558e-05)
(0.000257059 0.0003316 -1.2393e-05)
(0.000562901 0.000249573 -4.3701e-05)
(0.00101401 0.000737358 4.41434e-05)
(0.000363456 -1.25391e-05 5.33731e-06)
(0.00047996 -1.791e-05 -2.95357e-06)
(0.000500682 -2.56554e-05 2.09924e-06)
(0.000756188 -2.39913e-05 2.78413e-06)
(0.00034111 -3.18553e-05 1.29603e-05)
(0.000679069 -2.31048e-05 1.58629e-05)
(0.000627561 -4.72359e-05 3.34754e-05)
(0.000458131 -1.33388e-05 -1.5248e-07)
(0.000819257 -2.56988e-05 -8.12333e-07)
(0.000876243 -3.36915e-05 -1.57602e-06)
(0.00117386 -4.53926e-05 -1.01134e-06)
(0.000602968 -2.68174e-05 -3.77894e-06)
(0.000605424 -1.63989e-05 -5.2856e-06)
(0.000988454 -5.0464e-05 -4.62726e-06)
(0.00099461 -2.76802e-05 -6.17352e-06)
(0.000819014 -1.46121e-05 -2.0553e-07)
(0.000816001 -1.6383e-05 -4.77074e-07)
(0.00107455 -2.39065e-05 4.75659e-08)
(0.000818622 -9.02123e-06 9.52963e-08)
(0.000824615 -1.12703e-05 1.43687e-07)
(0.00109408 -1.50854e-05 2.05253e-07)
(0.00081778 -5.48647e-06 3.73061e-08)
(0.000820148 -6.76524e-06 1.78697e-07)
(0.00108956 -8.77613e-06 1.84703e-07)
(0.000816984 -3.45158e-06 5.56991e-08)
(0.000818939 -4.49173e-06 1.63092e-07)
(0.0010892 -5.63622e-06 1.84596e-07)
(0.000815903 -2.07067e-06 5.21451e-08)
(0.000817565 -2.76176e-06 5.3214e-08)
(0.00108792 -3.38969e-06 1.81842e-07)
(0.000814648 -1.20312e-06 4.99708e-08)
(0.000815942 -1.71038e-06 5.1597e-08)
(0.00108639 -1.98516e-06 1.82034e-07)
(0.000813229 -8.07162e-07 5.052e-08)
(0.000814295 -1.04938e-06 4.71407e-08)
(0.00108457 -1.10138e-06 1.77124e-07)
(0.000811831 -6.64749e-07 3.96256e-08)
(0.00081273 -6.66623e-07 5.28277e-08)
(0.00108274 -9.56645e-07 1.84567e-07)
(0.0008101 -6.37196e-07 3.08406e-08)
(0.000811065 -3.91843e-07 4.1786e-08)
(0.00108059 -7.35577e-07 1.23293e-07)
(0.000808903 -5.57581e-07 3.19472e-08)
(0.000809493 -1.57401e-07 4.53796e-08)
(0.00107866 -8.95973e-07 1.8313e-07)
(0.000807166 -3.38989e-07 5.25742e-08)
(0.000808065 -1.64231e-07 4.0911e-08)
(0.00107678 -5.58544e-07 1.81366e-07)
(0.000805598 -2.5862e-07 6.30922e-08)
(0.00080644 -1.54571e-07 7.11925e-08)
(0.00107454 -3.45404e-07 1.78471e-07)
(0.000803856 -3.84957e-07 3.45107e-08)
(0.000804795 -7.78836e-08 6.40503e-08)
(0.00107236 -3.42569e-07 1.85132e-07)
(0.000802655 -3.6562e-07 5.87196e-09)
(0.000803318 -1.90377e-08 3.30276e-08)
(0.00107039 -6.59616e-07 1.85759e-07)
(0.000800967 -7.33262e-08 9.48615e-09)
(0.000801812 2.83077e-08 4.54681e-08)
(0.00106842 -2.91443e-07 1.71568e-07)
(0.000799189 1.50028e-07 2.87952e-08)
(0.000800152 7.37644e-08 4.62599e-08)
(0.00106614 8.34922e-08 1.80159e-07)
(0.0007976 2.6836e-07 4.88451e-08)
(0.000798511 -1.9648e-09 4.86735e-08)
(0.00106391 2.87607e-07 1.74473e-07)
(0.000796138 3.43532e-07 7.54579e-08)
(0.000796935 2.10942e-08 6.3153e-08)
(0.00106184 4.18867e-07 1.81712e-07)
(0.00079476 6.24306e-07 4.41603e-08)
(0.000795516 -5.00879e-07 4.68904e-08)
(0.0010599 5.37042e-07 1.96623e-07)
(0.000793609 7.56081e-07 3.75656e-08)
(0.000794045 -2.2422e-06 2.70829e-09)
(0.00105834 1.21038e-06 2.43013e-07)
(0.000791681 6.85434e-07 4.50293e-08)
(0.00079245 3.21209e-07 6.43398e-08)
(0.00105631 8.84845e-07 1.06802e-07)
(0.000789917 7.10615e-07 2.5848e-09)
(0.000790888 -3.70756e-07 1.45761e-08)
(0.00105376 9.94145e-07 1.55985e-07)
(0.000788045 4.46974e-07 1.66007e-08)
(0.000789059 -6.41581e-07 1.58735e-08)
(0.00105131 9.56266e-07 1.19581e-07)
(0.000786877 6.12487e-08 4.82669e-08)
(0.000787438 -6.9641e-08 5.9269e-08)
(0.00104935 2.80657e-07 1.80167e-07)
(0.000785363 4.89449e-08 4.92844e-08)
(0.000786103 1.18186e-07 5.10355e-08)
(0.00104761 -9.79282e-08 1.75293e-07)
(0.000784023 1.22276e-07 4.77171e-08)
(0.000784655 3.11306e-07 5.71797e-08)
(0.00104564 2.38509e-07 1.46139e-07)
(0.000782458 8.71334e-09 6.0891e-08)
(0.000783179 3.37923e-08 4.75483e-08)
(0.00104378 8.54858e-08 1.71675e-07)
(0.000781026 -5.6548e-08 6.20671e-08)
(0.000781662 -1.10977e-07 6.74269e-08)
(0.00104172 -6.71915e-08 1.73858e-07)
(0.000779739 -2.01145e-07 2.10546e-08)
(0.000780175 -1.60676e-07 5.11675e-08)
(0.00103998 -9.52126e-08 1.73658e-07)
(0.000777708 -2.70677e-07 8.56104e-09)
(0.000778726 2.55343e-06 5.36642e-08)
(0.00103768 -4.47519e-07 7.57616e-08)
(0.000776596 -9.05738e-08 3.40397e-08)
(0.000777367 1.39595e-07 5.943e-08)
(0.00103552 -2.73679e-07 1.43602e-07)
(0.00077516 1.08728e-07 4.20768e-08)
(0.000775942 9.57229e-08 4.43838e-08)
(0.00103391 3.10649e-08 1.67427e-07)
(0.000773702 3.5836e-07 7.78234e-08)
(0.000774552 3.17072e-07 2.01906e-07)
(0.00103206 2.84209e-07 1.76389e-07)
(0.000772224 4.99504e-07 2.76477e-08)
(0.000773089 -9.62327e-07 7.06763e-08)
(0.00103006 7.00978e-07 2.92811e-07)
(0.000770976 2.70962e-07 -1.78721e-08)
(0.00077148 -1.81432e-06 -4.51113e-08)
(0.00102828 6.48699e-07 3.13253e-07)
(0.000769619 5.76746e-08 3.24667e-08)
(0.000770121 2.01501e-07 4.30435e-08)
(0.00102647 1.10975e-07 1.45071e-07)
(0.000768261 2.2919e-08 5.62344e-08)
(0.00076892 3.86719e-08 4.41013e-08)
(0.00102461 7.36194e-08 1.58687e-07)
(0.000766422 4.94074e-08 4.45032e-08)
(0.000767421 -3.35964e-07 2.22772e-08)
(0.00102258 -1.12118e-08 2.48122e-07)
(0.000765213 2.06543e-07 2.91913e-08)
(0.000765927 -2.61161e-07 3.25389e-09)
(0.00102046 1.38884e-07 1.69009e-07)
(0.000763627 2.7606e-07 4.28441e-08)
(0.000764453 9.05335e-08 2.36086e-08)
(0.00101852 3.94056e-07 1.64135e-07)
(0.000763026 3.89463e-07 7.01458e-08)
(0.00101705 3.26891e-07 1.18846e-07)
(-0.0119741 -0.00706237 -0.00061527)
(0.00185531 -0.0049538 -0.00012592)
(0.00399522 -0.0191789 -0.00506026)
(0.00580603 -0.00483743 -0.000487779)
(-0.00598295 -0.00436798 -0.000690768)
(0.0125931 -0.00414591 0.00105402)
(-0.00664073 0.00315917 0.00787935)
(0.0155306 -0.0112019 0.00129467)
(0.00187268 -0.00339258 -0.00258289)
(-0.00716162 -0.00200477 -0.000412595)
(-0.0108761 -0.00396349 -0.000744521)
(-0.00751115 -0.00217074 0.000147352)
(0.00391666 0.00336306 -3.66901e-05)
(-0.00162865 0.0012084 1.5901e-05)
(-0.0088697 0.0032167 0.000268011)
(-0.00619846 0.000566019 -0.000103585)
(0.015076 0.00579987 -0.0004035)
(0.00387697 0.00589053 -8.38872e-05)
(0.0120851 0.0037884 0.000202964)
(0.00681247 -0.000353706 0.000214085)
(0.00424247 -0.00089517 -9.84539e-05)
(0.0054533 -0.00398984 0.00045455)
(0.00242865 -0.000329668 0.000378104)
(0.00801251 -0.00483209 0.000113152)
(-0.00693137 -0.00603985 0.000484391)
(0.002221 -0.00738686 -0.00654216)
(0.00985863 -0.00287876 -0.00862472)
(0.00968618 -0.0039418 0.0108801)
(0.00568046 -0.0083787 0.00361362)
(-0.00244334 0.00390313 -0.00017024)
(-0.00480905 0.00337485 -0.000111533)
(-0.00318209 -0.00169487 0.000653003)
(-0.000913855 0.000428805 0.000172784)
(-0.000317172 -0.000405306 0.00178734)
(-0.000886518 -0.00836712 -0.000650663)
(0.00141841 -0.00461396 -0.00118574)
(-0.0013986 0.00960753 0.000643518)
(-0.00249034 -0.000432677 -7.7285e-05)
(-0.00231154 -2.17344e-05 -1.65668e-05)
(-0.00262617 -0.00098537 -2.25629e-05)
(-0.000891751 -0.00125614 -8.38891e-05)
(-0.0034254 -0.000833333 8.18817e-05)
(0.000751473 -0.000387088 -8.60298e-06)
(0.000913818 0.000190859 -6.82996e-05)
(0.00074721 -0.000108067 8.28078e-06)
(0.000808558 0.000165627 1.40201e-05)
(0.00082457 6.21058e-05 3.99595e-05)
(0.000444632 -5.63624e-05 2.37666e-05)
(0.000424324 -2.40635e-05 5.93121e-06)
(0.000370449 -1.19384e-05 6.23433e-06)
(0.000599528 -3.33922e-05 1.38598e-05)
(0.000271035 -2.61223e-05 1.28815e-06)
(0.000834676 -2.11911e-05 -1.24112e-06)
(0.000871973 -1.48186e-05 -2.10558e-06)
(0.0011606 -3.76207e-05 -1.46445e-06)
(0.000615855 -7.72254e-06 -4.43153e-06)
(0.000616072 -1.05692e-05 -5.02552e-06)
(0.00104497 -1.024e-05 -5.04195e-06)
(0.0010505 -1.54296e-05 -5.78532e-06)
(0.000829007 -1.26412e-05 -1.28059e-07)
(0.000826766 -1.03704e-05 -3.04195e-07)
(0.00109945 -2.03003e-05 1.18234e-07)
(0.000824594 -8.55054e-06 2.27077e-07)
(0.00082976 -7.94516e-06 1.20977e-07)
(0.00110306 -1.38791e-05 1.95649e-07)
(0.00082129 -5.38444e-06 3.04488e-07)
(0.000824125 -4.63344e-06 2.39607e-07)
(0.00109588 -9.02302e-06 1.81561e-07)
(0.000819606 -3.31449e-06 1.60643e-07)
(0.000821538 -4.86391e-06 1.70534e-07)
(0.00109309 -5.3106e-06 2.14357e-07)
(0.00081757 -2.18255e-06 5.26664e-08)
(0.000818987 -2.23596e-06 5.0684e-08)
(0.00109082 -3.46985e-06 1.83274e-07)
(0.000815587 -1.43087e-06 4.87682e-08)
(0.000816886 -1.64747e-06 1.03923e-07)