/*--------------------------------*- C++ -*----------------------------------*\
| =========                 |                                                 |
| \\      /  F ield         | OpenFOAM: The Open Source CFD Toolbox           |
|  \\    /   O peration     | Version:  5.0                                   |
|   \\  /    A nd           | Web:      www.OpenFOAM.org                      |
|    \\/     M anipulation  |                                                 |
\*---------------------------------------------------------------------------*/
FoamFile
{
    version     2.0;
    format      ascii;
    class       volScalarField;
    location    "1.2";
    object      alpha.water;
}
// * * * * * * * * * * * * * * * * * * * * * * * * * * * * * * * * * * * * * //

dimensions      [0 0 0 0 0 0 0];

internalField   nonuniform List<scalar> 
7975
(
1.00596
1.02321
1.07391
0.961143
1
1
-3.78036e-20
-1.57141e-18
7.95767e-17
3.36732e-18
3.88373e-21
1.2811e-25
1.89546e-29
7.48255e-33
3.03386e-36
1.24844e-39
5.0105e-43
2.06256e-46
8.47513e-50
3.33698e-53
1.47567e-56
6.01761e-60
2.28396e-63
9.27228e-67
3.64511e-70
2.03841e-73
1.55658e-76
2.76127e-80
1.04416e-82
1.55615e-86
1.40068e-89
1.10751e-93
4.66523e-96
9.86676e-99
2.52583e-102
1.45963e-105
1.10367e-108
3.4866e-111
2.26752e-115
1.63421e-119
2.23191e-122
1.23271e-124
1.41395e-127
4.781e-130
3.82205e-134
1.34251e-136
1.53546e-140
9.51427e-145
2.55142e-145
1.04464e-146
1.01363
0.98968
1.06346
0.896374
1.03303
1.00963
-7.37994e-17
-2.65457e-18
4.33935e-19
5.03303e-20
1.69685e-21
2.45733e-24
1.16702e-28
1.67184e-32
6.54253e-36
2.68439e-39
1.20666e-42
4.92387e-46
1.95379e-49
7.60892e-53
3.11284e-56
1.26837e-59
5.5587e-63
2.76128e-66
1.01881e-69
5.81991e-73
2.32446e-76
7.23413e-80
9.54924e-83
2.47633e-86
8.25052e-90
2.29685e-92
4.44938e-96
7.94536e-99
1.3965e-102
2.26881e-105
1.23174e-108
8.30771e-113
2.61359e-114
1.64581e-117
2.76486e-121
3.19898e-124
2.24502e-128
4.40835e-132
1.05425e-134
1.17448e-137
1.74571e-140
1.8346e-144
2.04716e-145
1.0646e-146
0.981977
0.999457
0.998319
0.947293
0.825515
1.00957
0.000392401
-1.42169e-17
-1.82001e-22
7.20104e-19
1.84074e-20
7.08236e-24
4.35766e-28
1.06512e-31
4.09901e-35
1.68128e-38
6.95646e-42
2.91823e-45
1.22143e-48
4.82989e-52
2.14277e-55
8.34423e-59
3.90707e-62
1.42778e-65
6.62097e-69
3.93792e-72
2.09718e-75
4.14281e-79
3.08865e-82
7.92611e-85
9.30122e-89
1.82384e-92
1.22302e-93
1.60862e-96
1.43544e-100
3.28091e-104
2.2756e-107
2.84407e-111
3.40971e-113
4.2787e-116
6.04842e-120
1.68155e-123
4.60572e-126
5.70826e-130
7.21875e-133
6.53381e-136
1.63525e-138
8.5501e-142
3.09981e-145
5.64755e-146
1.00253
1.14647
1.03593
0.911535
0.995675
0.948115
0.57871
-1.93321e-16
-1.84557e-18
3.10483e-20
4.15145e-20
1.00179e-21
4.1503e-25
1.3069e-29
3.78716e-33
1.53029e-36
6.23687e-40
2.5916e-43
1.05858e-46
4.1904e-50
1.71694e-53
6.86056e-57
3.51648e-60
1.40428e-63
7.62684e-67
2.70263e-70
7.95639e-74
1.49944e-76
6.71897e-80
8.31394e-84
2.65796e-86
3.73857e-89
6.89272e-93
1.11347e-96
3.43559e-99
5.93141e-103
3.11636e-106
3.29394e-109
1.78278e-111
8.12828e-115
1.4279e-118
3.55468e-121
2.43475e-125
7.01262e-128
8.3403e-131
2.27327e-134
7.45562e-138
3.05532e-141
1.88911e-144
1.60767e-145
1.01844
1.00641
1.01816
0.984715
1.03032
1.03007
0.969632
-5.13745e-17
6.58898e-15
9.36186e-17
8.65886e-20
1.75995e-21
3.0283e-24
2.24246e-28
2.85257e-32
1.09407e-35
4.46572e-39
1.82576e-42
7.45359e-46
3.0407e-49
1.23237e-52
5.143e-56
2.03795e-59
8.42232e-63
3.34031e-66
1.4277e-69
5.7799e-73
2.86816e-76
1.4869e-79
8.7372e-83
8.27413e-86
1.08938e-89
3.21117e-92
4.45047e-96
9.45881e-100
7.85024e-103
3.61327e-105
1.69521e-108
1.29282e-112
4.1606e-115
5.51198e-119
9.46416e-123
3.32181e-126
2.32315e-128
6.85355e-131
2.20772e-134
2.07e-136
1.24989e-139
1.32226e-142
2.83328e-145
1.0264
1.00159
1.04779
1.01746
0.955438
1.01642
1.00004
-6.90249e-17
5.33772e-15
7.55846e-17
8.78036e-20
1.52986e-21
2.36951e-24
1.76607e-28
2.46814e-32
9.52278e-36
3.90119e-39
1.60663e-42
6.5486e-46
2.71271e-49
1.09316e-52
4.43707e-56
1.79689e-59
7.71625e-63
3.18606e-66
2.16676e-69
5.54157e-73
2.37878e-76
2.57047e-79
4.17189e-82
5.02187e-85
5.35854e-89
1.74185e-92
7.4083e-96
1.24755e-98
2.55524e-102
1.38996e-105
3.12294e-108
2.74911e-112
9.06969e-116
1.25913e-117
4.6357e-120
2.08648e-123
2.45285e-127
1.00462e-130
7.49836e-134
3.1051e-137
5.64595e-141
2.52986e-144
2.6252e-145
1.05285
0.966907
0.981101
1.0209
1.02291
1.00739
0.910668
-4.41114e-18
-1.06192e-18
2.26704e-20
3.98043e-20
1.03356e-21
4.79958e-25
1.46356e-29
4.07621e-33
1.64501e-36
6.70499e-40
2.73886e-43
1.11375e-46
4.55267e-50
2.23353e-53
7.55661e-57
3.41627e-60
1.23679e-63
8.19902e-67
2.09307e-70
7.99912e-74
5.13918e-77
2.02609e-79
2.11162e-83
3.0195e-87
6.69521e-90
7.99463e-94
1.04276e-96
4.00554e-100
1.03139e-102
1.80848e-106
8.50543e-109
5.84667e-112
6.67342e-115
4.05634e-119
4.43663e-122
1.73633e-125
1.86301e-129
1.60613e-131
2.59576e-135
3.90543e-137
7.1842e-141
4.38092e-145
1.69002e-145
1.03619
0.998272
1.00946
1.04541
1.031
0.998833
0.370149
-5.56185e-18
-1.56242e-20
7.31209e-19
1.98397e-20
8.17459e-24
4.12258e-28
1.05404e-31
4.1402e-35
1.6931e-38
6.96264e-42
2.85475e-45
1.2098e-48
5.04437e-52
1.97363e-55
9.01886e-59
3.68892e-62
1.31962e-65
5.57165e-69
4.1804e-72
4.04554e-75
1.38108e-78
2.28525e-82
8.57121e-85
1.45661e-88
3.57786e-91
2.1792e-94
3.56366e-98
2.35951e-101
7.79644e-104
1.16119e-107
1.91893e-110
1.25567e-113
1.42841e-117
3.06736e-121
2.36852e-123
4.74383e-126
1.56676e-129
9.7049e-134
2.22931e-137
1.44699e-140
4.74915e-144
2.73687e-145
3.07263e-146
0.996937
1.01195
0.981096
0.98511
0.98434
1.00837
-2.05139e-15
-8.46507e-18
-1.12439e-21
4.7346e-20
2.02993e-21
2.27593e-24
1.04348e-28
1.66194e-32
6.52825e-36
2.67133e-39
1.10435e-42
4.53573e-46
1.87082e-49
7.61392e-53
3.04125e-56
1.24569e-59
4.9684e-63
2.08505e-66
3.38237e-69
5.72956e-73
1.59567e-76
7.40982e-80
2.71578e-83
1.84988e-86
1.95712e-88
4.21927e-92
3.33188e-96
8.88944e-100
6.55855e-102
2.63542e-105
1.43409e-108
1.57969e-112
3.09702e-116
3.78692e-118
7.34302e-121
1.27317e-123
2.48498e-127
1.64338e-131
5.72059e-135
3.31603e-138
2.62665e-140
6.48267e-143
3.2334e-145
2.43836e-146
1.02723
0.994741
0.98063
1.00917
1.00898
1.00727
-1.94492e-18
-7.68076e-19
9.19805e-17
3.51186e-18
3.30788e-21
9.75953e-26
1.66136e-29
6.55547e-33
2.6744e-36
1.1091e-39
4.43458e-43
1.80635e-46
7.37021e-50
3.34358e-53
1.23131e-56
4.99836e-60
1.97622e-63
7.92707e-67
6.26725e-70
1.4886e-73
9.58875e-77
3.63265e-80
1.10885e-82
3.71583e-86
1.86938e-89
4.5303e-92
3.12979e-95
1.30214e-98
8.94421e-103
1.99402e-105
5.29856e-108
8.22252e-112
3.56091e-114
5.0523e-118
5.07768e-122
1.22409e-125
1.91616e-127
6.49619e-131
9.80228e-134
8.45129e-137
4.90327e-140
1.89054e-143
2.67704e-145
1.76922e-146
1.00874
1.03867
1.00079
1.04925
0.215582
1
5.53144e-11
1.14182e-16
1.13057e-16
9.74285e-18
4.96488e-20
1.05254e-23
1.11533e-27
7.00827e-31
5.00014e-34
3.42293e-37
2.33001e-40
1.58517e-43
1.07596e-46
7.28618e-50
4.92868e-53
3.32755e-56
2.24135e-59
1.50749e-62
1.0118e-65
6.7763e-69
4.53293e-72
3.02662e-75
2.01599e-78
1.34056e-81
8.89304e-85
5.88604e-88
3.89225e-91
2.56942e-94
1.6933e-97
1.11419e-100
7.31231e-104
4.78762e-107
3.13051e-110
2.04486e-113
1.33309e-116
8.67777e-120
5.63801e-123
3.65475e-126
2.36615e-129
1.52819e-132
9.85305e-136
6.34646e-139
4.07823e-142
4.27725e-145
1.09284
0.997925
1.07992
1.01388
1.01962
1.00349
7.86935e-10
1.5237e-16
1.04622e-17
6.50466e-19
1.42245e-20
1.62064e-23
1.27462e-27
5.27939e-31
3.90238e-34
2.75249e-37
1.91626e-40
1.33254e-43
9.24704e-47
6.39726e-50
4.4203e-53
3.04709e-56
2.09526e-59
1.43864e-62
9.85739e-66
6.7369e-69
4.59498e-72
3.12716e-75
2.12275e-78
1.43774e-81
9.71807e-85
6.55879e-88
4.42233e-91
2.97514e-94
1.99595e-97
1.33692e-100
8.93551e-104
5.95956e-107
3.96824e-110
2.63489e-113
1.74523e-116
1.15453e-119
7.62226e-123
5.02253e-126
3.3072e-129
2.17257e-132
1.42365e-135
9.31215e-139
6.07843e-142
5.07463e-145
0.988217
1.04588
1.02991
1.05447
0.790099
1.04001
0.00160304
9.93457e-14
1.68966e-16
1.44559e-19
2.6033e-20
6.29116e-23
3.10552e-26
1.08227e-29
5.54444e-33
3.93436e-36
2.84012e-39
2.00128e-42
1.4063e-45
9.89673e-49
6.93442e-52
4.8575e-55
3.39012e-58
2.36433e-61
1.64357e-64
1.14079e-67
7.90331e-71
5.46252e-74
3.76774e-77
2.60246e-80
1.78886e-83
1.22874e-86
8.42942e-90
5.76791e-93
3.93322e-96
2.68074e-99
1.82388e-102
1.23829e-105
8.39405e-109
5.67682e-112
3.82992e-115
2.57999e-118
1.73806e-121
1.16702e-124
7.82675e-128
5.24133e-131
3.50111e-134
2.33455e-137
1.55346e-140
6.39224e-144
1.01123
1.12309
0.999034
1.03096
0.983366
0.931183
0.577942
3.64892e-11
5.3587e-17
6.95873e-17
1.28404e-18
1.48222e-21
5.47952e-25
3.0535e-28
2.13449e-31
1.4913e-34
1.03122e-37
7.11315e-41
4.89606e-44
3.3629e-47
2.30552e-50
1.57658e-53
1.07504e-56
7.32008e-60
4.97006e-63
3.3673e-66
2.27749e-69
1.5366e-72
1.03536e-75
6.95775e-79
4.66437e-82
3.11976e-85
2.08193e-88
1.38683e-91
9.22001e-95
6.11951e-98
4.05286e-101
2.67798e-104
1.76593e-107
1.16202e-110
7.63002e-114
5.01125e-117
3.27953e-120
2.14125e-123
1.39429e-126
9.07138e-130
5.8891e-133
3.81688e-136
2.46812e-139
9.5081e-143
1.07597
0.991715
0.975278
0.952493
1.01923
1.02366
0.961111
2.47321e-12
4.0765e-14
9.76831e-16
1.87568e-18
3.72983e-21
2.0849e-24
8.50981e-28
5.763e-31
4.24744e-34
3.06059e-37
2.18276e-40
1.55073e-43
1.09762e-46
7.74991e-50
5.45314e-53
3.82258e-56
2.67263e-59
1.86258e-62
1.29366e-65
8.96537e-69
6.19463e-72
4.26572e-75
2.93016e-78
2.0072e-81
1.37087e-84
9.34295e-88
6.34965e-91
4.30386e-94
2.91187e-97
1.9647e-100
1.3217e-103
8.87415e-107
5.94712e-110
3.97652e-113
2.65329e-116
1.76636e-119
1.17279e-122
7.77283e-126
5.1401e-129
3.39111e-132
2.23347e-135
1.46727e-138
5.71581e-142
1.08158
1.00684
0.996477
1.00223
0.976381
1.01261
1
6.02926e-12
5.7519e-14
1.90594e-15
2.95769e-18
2.87886e-21
1.78028e-24
8.5488e-28
5.80105e-31
4.26722e-34
3.07832e-37
2.19751e-40
1.56258e-43
1.10674e-46
7.8121e-50
5.49832e-53
3.85602e-56
2.69596e-59
1.87864e-62
1.30467e-65
9.04272e-69
6.249e-72
4.30454e-75
2.9579e-78
2.02512e-81
1.38228e-84
9.42144e-88
6.40661e-91
4.34204e-94
2.93681e-97
1.98132e-100
1.33332e-103
8.95652e-107
6.00218e-110
4.01293e-113
2.67772e-116
1.78199e-119
1.18223e-122
7.82921e-126
5.17355e-129
3.40996e-132
2.24544e-135
1.47605e-138
5.75537e-142
1.01371
1.03351
0.856289
1.01343
1.0099
1.00336
0.910426
2.00389e-12
2.78746e-17
3.16457e-17
9.03166e-19
1.795e-21
6.06626e-25
3.11802e-28
2.17579e-31
1.52365e-34
1.05438e-37
7.27757e-41
5.01126e-44
3.44278e-47
2.36093e-50
1.61437e-53
1.10065e-56
7.49554e-60
5.09268e-63
3.44919e-66
2.33313e-69
1.57435e-72
1.05996e-75
7.12225e-79
4.77014e-82
3.19358e-85
2.13411e-88
1.42209e-91
9.45738e-95
6.27705e-98
4.1579e-101
2.74824e-104
1.81349e-107
1.19315e-110
7.84157e-114
5.1457e-117
3.36705e-120
2.19783e-123
1.43239e-126
9.31589e-130
6.04867e-133
3.92015e-136
2.53846e-139
9.81857e-143
1.04051
1
0.995865
1.02015
1.00238
0.999368
0.378544
2.26972e-13
2.65808e-16
2.18645e-19
2.35844e-20
3.85594e-23
2.39797e-26
9.06437e-30
4.93074e-33
3.49729e-36
2.51087e-39
1.76953e-42
1.23947e-45
8.69488e-49
6.08911e-52
4.25594e-55
2.96796e-58
2.06622e-61
1.43611e-64
9.94997e-68
6.88223e-71
4.7507e-74
3.27479e-77
2.25425e-80
1.54806e-83
1.06164e-86
7.26819e-90
4.9633e-93
3.38178e-96
2.30183e-99
1.56341e-102
1.06017e-105
7.17758e-109
4.84821e-112
3.26747e-115
2.2019e-118
1.47798e-121
9.90897e-125
6.63331e-128
4.43309e-131
2.95438e-134
1.96687e-137
1.30853e-140
5.42671e-144
1.00498
1.03031
1.02147
1
0.979656
1.00276
1.37921e-06
3.27368e-15
4.62324e-18
6.86047e-19
1.35783e-20
1.12972e-23
1.16393e-27
5.3943e-31
3.91481e-34
2.77995e-37
1.94664e-40
1.35838e-43
9.45665e-47
6.56717e-50
4.55336e-53
3.14927e-56
2.17272e-59
1.4966e-62
1.02874e-65
7.05593e-69
4.83258e-72
3.30199e-75
2.25066e-78
1.53206e-81
1.04062e-84
7.04644e-88
4.76446e-91
3.2149e-94
2.1641e-97
1.45458e-100
9.75722e-104
6.53293e-107
4.36764e-110
2.91391e-113
1.93866e-116
1.28808e-119
8.54189e-123
5.64932e-126
3.73233e-129
2.46188e-132
1.62011e-135
1.06418e-138
6.97276e-142
5.43031e-145
1.02521
1.01114
0.987353
0.982853
0.984573
1.00799
4.35059e-10
1.68352e-16
8.64913e-17
6.08487e-18
2.41723e-20
5.80048e-24
9.22042e-28
5.22625e-31
3.76112e-34
2.65471e-37
1.84123e-40
1.27399e-43
8.80479e-47
6.07185e-50
4.18019e-53
2.87117e-56
1.96797e-59
1.34745e-62
9.20601e-66
6.27584e-69
4.2735e-72
2.90439e-75
1.9695e-78
1.33396e-81
9.01608e-85
6.07717e-88
4.08926e-91
2.74696e-94
1.84182e-97
1.23357e-100
8.24485e-104
5.49787e-107
3.66107e-110
2.4336e-113
1.61482e-116
1.0701e-119
7.07774e-123
4.6702e-126
3.07711e-129
2.02393e-132
1.32868e-135
8.71295e-139
5.69861e-142
4.92907e-145
1.00894
1.02982
0.989096
1.02479
0.99192
1
2.43312e-11
-6.55415e-19
3.92209e-17
1.92001e-18
2.89116e-21
1.24594e-25
1.53751e-29
5.98551e-33
2.43203e-36
1.01641e-39
4.01043e-43
1.63524e-46
6.75023e-50
3.2878e-53
1.16818e-56
4.98329e-60
2.29994e-63
7.30798e-67
3.32069e-70
4.14533e-73
7.17661e-77
3.35913e-80
6.49438e-83
1.48981e-86
1.80243e-89
1.38041e-93
3.27602e-96
6.97767e-99
2.67034e-102
1.33008e-105
1.44767e-108
9.0933e-112
3.35661e-116
1.10717e-117
2.46181e-121
7.5593e-126
6.77182e-128
4.42438e-132
1.54653e-134
1.18178e-136
1.79925e-140
8.2492e-144
2.41249e-145
1.05649e-146
0.993641
0.996888
1.01744
0.934722
1.00633
0.996078
1.86365e-09
-3.95527e-19
-4.42694e-24
4.30342e-20
1.85106e-21
2.39654e-24
1.11046e-28
1.65392e-32
6.4651e-36
2.64486e-39
1.11017e-42
7.22553e-46
3.00037e-49
8.95296e-53
3.53148e-56
1.41597e-59
6.0466e-63
2.80594e-66
1.07251e-69
4.23572e-73
2.28344e-76
7.41395e-80
2.53782e-82
5.17271e-86
3.66861e-89
3.95946e-92
4.11204e-95
7.29145e-99
5.06155e-102
2.38537e-105
4.22692e-109
2.02652e-112
7.25211e-114
5.74296e-117
3.91506e-121
5.31197e-125
1.85231e-128
5.27562e-130
2.50245e-133
1.89509e-137
1.9454e-140
2.35159e-144
2.64001e-145
1.79936e-146
1.14383
1.05596
1.02956
1.06966
0.999174
1.03276
0.00147486
-2.7059e-18
-6.24667e-23
7.30948e-19
2.18616e-20
2.06963e-23
3.80624e-27
5.22817e-31
1.69501e-34
6.9341e-38
2.89395e-41
1.21153e-44
5.08741e-48
2.0857e-51
8.77017e-55
3.5879e-58
1.53439e-61
6.49581e-65
3.0723e-68
1.15484e-71
6.40122e-75
1.97131e-78
8.36985e-82
1.25859e-84
2.33093e-88
7.61982e-92
1.57094e-94
1.66954e-97
2.66651e-101
3.23215e-104
2.41588e-107
8.37526e-111
6.10546e-114
2.22487e-116
2.07007e-119
1.48413e-123
3.51345e-127
1.17434e-129
3.81887e-132
8.1438e-136
1.35352e-138
5.51301e-142
3.52277e-145
5.93982e-146
0.977085
1.07274
0.995313
1.10313
1.00199
0.993423
0.576985
1.75635e-11
-1.9898e-18
3.11202e-20
4.06639e-20
1.00109e-21
4.28653e-25
1.33156e-29
3.81821e-33
1.54263e-36
6.29314e-40
2.57805e-43
1.04055e-46
4.24261e-50
1.72366e-53
6.89044e-57
2.91735e-60
1.41377e-63
5.35762e-67
2.54148e-70
7.85408e-74
2.46004e-76
1.60517e-79
1.16728e-83
2.27956e-86
1.66687e-89
5.22467e-93
7.31724e-97
5.83947e-100
2.52439e-103
3.25338e-106
4.13023e-109
2.06352e-113
4.20085e-115
1.91299e-118
2.66211e-121
2.46885e-124
2.15533e-128
1.42521e-131
2.56644e-134
1.79745e-137
8.60515e-142
3.36809e-145
1.38944e-145
1.01411
1.10111
0.989285
0.986469
1.02541
1.02293
0.960771
8.64781e-13
6.79812e-15
9.6424e-17
8.56268e-20
1.72528e-21
2.97749e-24
2.21667e-28
2.8076e-32
1.07471e-35
4.39077e-39
1.79491e-42
7.36494e-46
2.98992e-49
1.21082e-52
4.9446e-56
2.01314e-59
8.25296e-63
3.57002e-66
1.70908e-69
5.51868e-73
2.15741e-76
8.73945e-80
5.73508e-83
5.41434e-86
7.85443e-90
3.01097e-92
6.35559e-96
1.50175e-98
1.96014e-102
3.71179e-105
1.60928e-108
8.89074e-111
2.52279e-114
1.97862e-118
3.19346e-120
1.36394e-123
5.08789e-127
1.3757e-130
2.23255e-134
4.13773e-136
1.92133e-139
1.18846e-142
3.84555e-145
1.07016
1.01582
0.970363
0.999384
0.990903
1.00965
1
2.46527e-12
5.48581e-15
7.69918e-17
8.71063e-20
1.64349e-21
2.69722e-24
2.01971e-28
2.68034e-32
1.02968e-35
4.21432e-39
1.72534e-42
7.04377e-46
2.98165e-49
1.17788e-52
4.95375e-56
1.97133e-59
7.90736e-63
3.21756e-66
1.39824e-69
5.50379e-73
2.0795e-76
8.29709e-80
2.23506e-82
3.97962e-85
1.95267e-88
2.79092e-92
1.43437e-95
2.25842e-99
3.43173e-102
2.00767e-105
3.64163e-108
3.16316e-112
3.94544e-114
1.79002e-117
9.56809e-122
1.39418e-123
6.97664e-127
1.1467e-130
1.194e-134
1.66393e-137
7.64477e-140
1.22083e-143
2.71178e-145
1.09626
1.05054
0.967558
1.05598
1.01861
1.0023
0.909025
7.86681e-13
-1.08452e-18
2.16508e-20
4.05135e-20
1.03313e-21
4.65627e-25
1.43745e-29
4.04306e-33
1.63166e-36
6.64912e-40
2.73662e-43
1.12296e-46
4.50208e-50
2.2552e-53
7.67058e-57
3.25006e-60
1.33047e-63
5.94191e-67
3.32361e-70
8.82998e-74
9.19841e-77
1.81768e-79
1.4726e-83
2.97579e-87
1.15275e-90
4.65077e-94
7.68993e-97
3.69994e-99
8.94936e-103
1.24313e-106
7.95494e-109
2.19103e-112
1.59809e-116
5.1061e-119
3.93179e-123
9.87629e-125
3.16486e-128
1.23406e-131
6.41585e-136
2.11817e-138
1.67934e-141
6.569e-145
1.60266e-145
1.05444
1.02207
1.00725
1.00381
0.995209
1.00079
0.379099
-2.46044e-18
-1.29302e-20
7.51724e-19
1.97715e-20
7.78767e-24
3.70144e-28
9.71653e-32
3.84422e-35
1.57096e-38
6.4511e-42
2.64651e-45
1.11554e-48
4.62573e-52
1.84262e-55
8.31807e-59
3.60965e-62
1.25538e-65
2.09412e-68
5.38025e-72
3.39665e-75
2.24496e-78
2.49813e-82
1.70484e-84
8.50082e-88
7.13901e-92
1.36437e-94
8.92512e-98
1.6503e-101
1.73325e-104
1.73352e-107
5.64763e-111
9.84756e-114
7.13815e-116
1.98103e-119
2.24658e-122
3.85405e-126
4.59016e-130
1.6751e-133
6.25359e-137
4.82561e-140
2.20076e-143
2.77112e-145
4.20999e-146
1.01513
1.0323
1.01854
1.02123
0.972951
0.991494
4.7843e-07
-1.07354e-17
-4.48673e-22
4.29159e-20
1.8999e-21
2.24555e-24
1.03039e-28
1.58733e-32
6.22606e-36
2.54697e-39
1.05133e-42
4.27838e-46
1.75712e-49
7.15403e-53
2.87037e-56
1.19151e-59
4.72502e-63
1.97359e-66
7.6688e-70
3.08366e-73
1.37164e-76
5.17201e-80
2.02826e-83
8.31018e-87
1.15435e-88
4.83373e-92
3.95449e-95
2.08535e-98
8.01693e-102
4.79511e-105
1.74039e-108
1.21207e-111
8.58014e-116
6.51753e-118
1.08048e-121
1.04752e-125
1.09036e-127
1.99386e-130
1.83837e-133
8.33261e-138
1.1126e-140
1.63332e-143
2.96998e-145
1.90496e-146
1.00281
0.979206
0.97797
0.988407
0.99779
1.00546
2.15511e-10
-7.64546e-19
6.71926e-17
2.61705e-18
2.54968e-21
7.96447e-26
1.33464e-29
5.23654e-33
2.1345e-36
8.81485e-40
3.56007e-43
1.48408e-46
5.92415e-50
2.39132e-53
9.84841e-57
4.24283e-60
1.60209e-63
6.59192e-67
3.5164e-70
1.65529e-73
1.3172e-76
2.30507e-80
1.16804e-82
3.88122e-86
3.42249e-90
5.87141e-92
1.80422e-95
1.35621e-99
4.07195e-103
3.04111e-105
1.97613e-108
2.02385e-112
3.63226e-114
1.1523e-117
4.95689e-121
1.40213e-123
2.59337e-127
5.49157e-131
1.2515e-134
9.97141e-137
7.37132e-140
3.32129e-143
2.73119e-145
2.26131e-146
-2.01795e-19
1.00389
-5.83401e-17
1.00017
2.27984e-08
1.00207
1.21571e-07
-8.92654e-16
1.002
0.22898
1.00804
4.76126e-07
0.998685
0.2304
0.45351
1.00209
0.988052
1.02764
0.455042
1
0.982042
1
0.998319
1.00031
0.932948
1
1.00839
1.00042
1.00062
1.02941
1.00007
1.02586
1.00084
1.0277
1.00046
1.00098
1.02599
1.00013
1.01186
1.00132
1.02093
1.00052
1.00002
1.01793
1.00001
1.00513
1.00071
1.01769
1.00007
1
0.999525
0.536471
1
0.996624
0.992666
0.538315
0.237598
1.04044
-1.64968e-18
1.00353
0.243075
1.03231
6.86384e-06
-3.8646e-16
0.962213
-1.68054e-21
1.00814
1.60524e-07
0.958965
1.89054e-08
4.02027e-08
1.00187
1.60209e-07
1
4.01498e-08
1.00096
1.68483e-07
6.93202e-07
1.00875
0.229893
0.999058
7.68236e-06
1.02125
0.226038
0.454251
0.997475
0.981221
1.03529
0.453253
1.00406
0.982022
1.00033
1.01335
1.00077
0.974995
1.00003
1.01508
1.00045
1.00143
1.02924
1.00105
1.02118
1.00084
1.01773
1.00077
1.00192
1.01784
1.00069
1.01058
1.00121
1.01602
1.00025
1.00108
1.01783
1.00012
1.00502
1.00088
1.01665
1.0001
0.996375
0.98967
0.538261
1.00032
0.995512
0.975198
0.538559
0.247577
1.02867
8.4287e-06
0.999995
0.264441
1.02346
6.78316e-06
2.85116e-07
0.959071
3.41561e-08
1.00594
2.91249e-07
0.960969
3.37753e-08
2.25595e-08
1.0006
1.12422e-07
1
-1.16132e-19
1.00004
-1.08978e-17
1.01143e-05
1.03954
0.22618
0.958391
0
1.07467
0.223588
0.452485
1.00373
0.982476
1.03035
0.451036
1.00308
0.988015
1.00031
1.0122
1.00065
1.00867
1
1.00996
1.00047
1.00152
1.01437
1.001
1.02473
1.00072
1.01171
1.00031
1.00168
1.00819
1.00069
1.00622
1.0007
0.998783
1
1.00156
1.01657
1.00013
1.00244
1.00066
1.01585
1
0.995664
0.979341
0.538735
1.00181
1
0.994681
0.537106
0.262727
1.0228
4.23607e-06
0.996095
0.24595
1.01951
2.20761e-20
1.8011e-07
0.963132
2.0465e-08
1.00597
-1.94483e-17
0.966664
-1.47095e-21
1.00135
0.999306
1.00284
0.501234
1.00135
0.921614
1.00355
0.610656
0.598353
1.00079
1.00016
1.00085
0.610679
0.598233
-3.17517e-17
-1.4374e-19
-7.70209e-17
2.45906e-11
1.81922e-14
1.22477e-10
1.84612e-14
0.929723
0.974898
1.01149
1
0.87924
1
1.02733
0.953494
0.996567
0.962703
1.00705
0.990249
0.986422
0.950996
-5.79723e-18
-2.06936e-19
-1.18496e-17
4.22343e-10
7.81154e-14
3.33974e-07
7.8337e-14
1.02009
1.00003
0.97494
0.777438
1.05434
1.00055
0.877873
1.0143
1.00801
1.04173
1.01547
1.00749
1.04584
1.01365
-1.3185e-16
0.33352
-2.5646e-15
0.00141115
6.83063e-11
0.345419
4.04878e-11
0.932238
1.00882
1.02162
1.02959
1
1.0336
1.02714
0.961856
0.998326
0.936196
0.974349
0.991252
0.862727
0.98587
-6.44919e-15
0.920199
-5.25736e-17
0.579051
1.43136e-08
0.915743
4.2293e-10
1.03426
1.01643
1.01347
1.01374
1.01511
1.02426
1.00979
1.01017
1.01242
1.01808
1.03173
1.01132
1.01699
1.00946
-1.82279e-17
1
-1.42879e-14
0.962129
6.66442e-10
0.997316
1.4849e-09
0.980473
0.970846
1.00782
0.972707
0.983206
0.983417
0.960604
1.00411
1.00761
1.0102
1.0123
1.00833
1.01147
1.00389
-1.76408e-14
0.964049
-7.73076e-18
1
1.93643e-09
0.957121
9.8077e-10
1.0203
1.04997
1.0382
1.02258
1.0256
1.03927
1.02474
1.00495
0.999768
1.0113
1.00766
0.999521
1.00958
1.00422
-2.75518e-17
0.546521
-2.24327e-15
0.910474
5.79633e-10
0.547844
2.04627e-08
0.973862
1.05066
0.915586
1.00413
0.980928
0.998831
0.916397
0.994646
0.998885
0.987679
0.999277
0.99928
0.981307
0.995937
-1.06854e-15
0.00376564
-5.36152e-16
0.377962
7.91342e-11
0.00774033
9.03313e-11
1.00507
0.898352
1.02142
0.972225
0.999451
0.90301
0.999923
1
1.00004
1.02621
1.00746
1
1.02834
0.99998
-1.91612e-16
-3.07133e-16
-2.60225e-16
1.33327e-06
1.3868e-12
8.12987e-09
1.29519e-12
1.0141
1.00615
1
0.998154
1.0099
1.01463
0.997424
0.709135
0.888115
1.00562
1.00858
0.883812
1.00679
0.712746
-5.55068e-17
-2.24417e-20
-1.2642e-17
1.9213e-10
3.00089e-14
2.26508e-11
3.54971e-14
0.995602
0.920253
0.999812
0.630808
1
0.902706
1.0043
0.610818
0.598028
1.00079
1.00011
0.611437
1.00094
0.597525
1.06092e-13
2.06001e-10
8.88414e-14
5.52399e-11
1.06234e-13
2.16645e-10
8.88457e-14
0.935057
1.00003
1.0302
0.960059
0.987226
0.997293
1.01312
0.929871
0.983096
0.935952
1.00069
0.942033
0.977345
0.939272
2.31568e-13
4.08516e-07
2.31552e-13
3.05993e-11
4.53507e-13
5.6881e-07
2.31561e-13
1.0556
1.00546
0.88859
0.96313
1.0511
1.00395
0.999309
1.0111
1.00845
1.05456
1.03494
1.01326
1.00865
1.0538
2.81027e-10
0.347065
1.5042e-10
0.00161047
2.80464e-10
0.345852
1.50421e-10
1.03614
1.02827
1.05156
0.996103
1.09566
1.0147
1.01907
0.903373
0.981491
0.843622
0.985907
0.938522
0.988913
0.847016
2.27371e-08
0.907955
7.93079e-10
0.577699
2.31289e-08
0.915134
8.94892e-10
1.01061
1.04561
1.01531
1.01232
1.01126
1.04636
1.01737
1.00556
1.01255
0.973359
1.01616
1.00485
1.01184
0.973358
1.37887e-09
0.994876
2.29768e-09
0.960832
1.29899e-09
0.995531
2.40967e-09
0.981019
0.985279
0.948206
0.994912
1.00559
1.00061
1.00347
1.00309
1.00973
1.00032
1.01001
1.00346
1.00966
0.998434
3.5888e-09
0.955909
1.8303e-09
1
3.59713e-09
0.957221
1.89912e-09
1.04624
1.02974
1.06604
1.02682
1.01737
1.0345
1.0585
1.00449
1.00057
1.00566
1.00205
1.00349
0.999851
1.00797
1.19665e-09
0.547677
3.32746e-08
0.907321
1.11303e-09
0.547788
3.306e-08
0.958335
0.992264
0.935416
0.993964
0.960429
0.989763
0.989797
0.980246
0.996858
0.963062
1.00011
0.996747
0.996888
0.988072
2.82116e-10
0.008324
4.34904e-10
0.379626
2.82116e-10
0.0084693
4.32529e-10
1.00117
0.939047
1.00715
0.972603
0.987403
0.992707
0.995707
0.987943
1
1
1.00173
0.996088
1
1
6.71394e-12
1.27535e-08
4.60323e-12
6.39456e-07
7.12824e-12
1.02616e-08
4.60336e-12
1.00842
1.01874
0.992696
1.00037
1.00763
1.02242
0.978792
0.713035
0.890196
1.00516
1.00713
0.712394
0.890557
1.00469
1.81587e-13
5.24211e-11
2.68138e-13
4.44363e-10
1.81598e-13
5.18476e-11
2.6883e-13
1
1.03494
1.00068
1.02442
0.999387
1.08448
1.0066
0.611774
0.597904
1.00045
1
0.612404
1.00049
0.59715
1.70136e-14
1.13284e-10
1.72814e-14
-1.21471e-20
-3.12422e-17
-1.54478e-20
-6.85844e-17
0.933508
1.01677
1.02682
1.01687
0.935881
1.02687
1.05348
0.953627
0.96229
0.975056
0.973553
0.947551
0.961359
0.993335
2.37248e-13
4.36681e-07
2.38146e-13
-1.4207e-19
-1.00412e-17
-3.76079e-18
-2.56092e-18
1.03857
1.00127
1.006
0.982665
1.04271
1.00961
1.00268
1.01433
1.01279
1.04364
1.03436
1.01481
1.01406
1.03657
7.07166e-11
0.34494
4.20279e-11
0.000402777
-1.12296e-16
0.333895
-1.78204e-15
1.06019
1.01145
1.04639
1.00557
1.06598
1.01094
1.00749
0.898789
0.995047
0.90165
1.00995
0.897642
0.991714
0.898619
1.49767e-08
0.909041
3.92243e-10
0.576711
-3.72908e-15
0.918122
-5.28462e-17
1.06878
1.0424
1.00211
0.98113
1.03609
0.994491
1.00048
1.00708
1.01197
1.01267
1.02404
1.00706
1.01241
1.01308
6.78985e-10
0.996398
1.68328e-09
0.968875
-1.55683e-17
1.00001
-1.61316e-14
1.00097
0.992761
1.00435
0.987753
0.996342
0.996369
0.999743
1.00209
1.00881
1.00994
1.00861
1.00259
1.00896
1.00204
1.96668e-09
0.955764
9.86977e-10
1.00003
-2.03491e-14
0.962695
-7.29742e-18
1.0373
1.02981
1.03213
1.00527
1.00987
1.03008
1.0363
1.00387
1.0001
1.01111
1.00305
1.0038
1.00052
1.01351
5.94246e-10
0.547768
2.02634e-08
0.909587
-2.80304e-17
0.546612
-2.2501e-15
0.977138
0.997008
0.959332
1.00387
0.99605
1.00768
0.98387
0.995015
1
0.960405
1.0011
0.990056
0.999531
0.992283
7.18947e-11
0.00779194
7.24613e-11
0.369716
-1.8536e-15
0.0037862
-2.30439e-16
0.993847
0.986336
0.995886
0.991823
1
0.954262
0.99957
0.975695
0.997611
0.92776
0.995376
0.976565
0.998202
0.925312
8.06745e-13
5.01205e-09
7.88932e-13
-2.43863e-16
-1.42489e-17
-2.39152e-16
-1.21987e-16
1.00707
1.00885
0.977971
1.00215
1.00539
1.00479
0.983262
0.719422
0.898372
1.0024
1.00514
0.718635
0.895493
1.00191
3.34456e-14
2.45283e-11
3.89237e-14
-1.20952e-18
-6.965e-17
-9.1142e-21
-2.14144e-17
0.0161049
0.00912076
-4.44741e-18
4.01636e-09
4.01636e-09
0.0135479
0.0121386
0.768428
1.00164
0.871501
1.00391
1.00196
0.870233
0.76927
0.0695198
-1.88791e-18
0.145014
2.61604e-08
2.61604e-08
0.148611
0.0656872
0.610606
1.00016
0.598507
1.001
1.0008
0.611175
0.597742
0.0173886
2.27984e-08
0.0157882
2.27984e-08
2.27984e-08
0.0192525
0.0138803
0.767994
1.00313
1.0017
0.878981
1.002
0.874148
0.768451
0.0711746
1.21571e-07
1.21571e-07
0.144513
1.21571e-07
0.144635
0.0738163
0.404704
0.272531
0.00398515
6.03324e-07
0.281883
0.00642171
0.402192
0.982917
0.858032
1
1.00076
0.893722
1
0.97993
0.610393
0.0441171
0.906673
0.227376
0.0495817
0.909561
0.61852
0.93052
1.00758
0.983354
0.966073
0.986242
0.978522
0.941497
0.434355
4.76126e-07
0.292783
0.00213257
0.287009
4.76126e-07
0.427796
0.984236
1.00977
1
1
0.986316
1
0.982392
0.613449
0.22773
0.0482011
0.909413
0.0503488
0.910013
0.624027
1.00165
1.00051
0.720375
0.453455
1.00088
0.718878
1.00092
1.00222
1.01063
1.00286
1.01728
1.10383
1.00059
1.00239
1.00045
0.886047
1.0002
0.984357
0.893452
1.00016
1.00087
1.0149
1.0454
1.00851
1.04621
1.00869
1.04179
1.01345
1.00214
0.453919
1.00035
0.719149
1.00049
0.716348
1.00164
1.00111
0.999791
1.04414
1
1.05019
1.00068
1.00044
1.00046
0.982707
0.888416
1
0.89271
1.00008
1
0.998679
0.999936
1
1
0.999941
1
0.997544
0.995397
0.907309
1.00306
1.01161
0.863799
1.00424
0.984162
0.998954
1
1.00207
1.00091
1
1.00194
0.999677
0.952794
0.989304
0.985864
0.83963
0.992556
0.841317
0.962915
0.993304
1.00008
0.999664
1
0.999836
1
0.992791
0.974321
1.00918
0.954298
1.00368
0.925654
1.00321
0.971158
0.998146
1.00132
1
1.00115
1
1.00166
0.995502
1.00454
1.00395
1.00087
1.00089
1.00393
1.00104
1.00418
1.00189
1.00531
1.01241
1.02779
1.0048
1.01109
1.00156
0.998131
1
1.0015
1.00023
0.999879
1.00105
0.99604
1.0086
1.02774
1.01195
0.991156
1.01255
1.00579
1.00547
1.00495
1.00166
1.00378
1.00132
1.00419
1.00183
1.00449
1.00347
1.02903
1.0014
1.00993
1.00628
1.01148
1.00286
1.00002
1.00067
1.00041
1.00101
1.00046
1.00135
1.00074
1.00096
1.00399
1.00031
1.00112
1.00376
1.00041
1.00108
0.999831
0.990252
1.00581
1.02027
0.996098
1.00536
0.999845
0.999038
1
1.00137
1.00026
1
1.00088
0.99791
1.00364
1.01512
1.00948
1.00043
1.0086
1.00558
1.00357
1.00138
1.00166
1.00316
1.00064
1.00375
1.00098
1.00121
0.999941
1.01924
1.00708
1.00491
1.00735
1.00597
0.998286
0.998107
1.00062
1.00005
1.0005
1.00006
1.00096
0.995839
1.00162
1.00013
1.00027
1
1.00011
1.00027
1.0015
1.01313
1.03094
1.00369
1.01795
1.03131
1.00289
1.01339
1.00406
1.00058
1.0012
1.00006
1.00069
1.00113
1.00428
1.00442
1.00676
0.999815
1.00341
1.00011
1.00644
1.00475
1.00186
1.0002
1.00045
1.00069
1.00054
1.00108
1.00179
1.0135
1.01838
1.03116
1.00241
1.03169
1.00266
1.01347
1.00407
1.00009
1.00104
1.00085
1.00105
1.001
1.004
0.999936
1
0.864096
0.999477
1
0.863213
0.999994
0.974377
0.885362
0.999445
0.997444
0.90428
0.998599
0.99619
0.99976
0.742908
1.00007
0.537473
0.742297
1
1
0.987158
0.998391
0.99866
0.958505
1
0.990457
0.991626
0.999416
0.998294
1
0.866265
1.00013
0.863969
0.999999
0.967253
0.991524
0.934873
0.998775
0.957564
0.99907
0.96794
0.998173
0.537018
0.746232
1
0.746012
1.0002
0.99856
0.664826
0.957958
0.0564473
0.240331
0.957175
0.0621761
0.664377
1.00124
1.03498
1.00015
1.0374
1.03462
1.00347
1.00017
0.589057
0.013299
0.330366
2.49777e-06
0.0170549
0.32735
0.590572
1
1.00617
1
1.0002
1
1.0198
1
0.662111
0.240735
0.956672
0.0706855
0.957135
0.066924
0.662153
1.00323
1.03595
1.02504
1.00129
1.03252
1.00562
1.00421
0.587343
6.86384e-06
0.0203097
0.33391
0.0189796
0.324543
0.587634
0.0490405
0.151048
-5.11463e-19
3.40208e-08
0.158148
3.40208e-08
0.0429132
0.635632
1.00004
0.400956
0.955824
1.00066
0.636884
0.414251
0.0195397
-1.47566e-17
7.90308e-05
3.3717e-09
3.3717e-09
0.0155617
0.000362591
0.70986
1.00929
0.887659
1.00565
0.879966
1.0063
0.712038
0.0499717
1.60524e-07
0.157919
1.60524e-07
0.162851
1.60524e-07
0.0515376
0.63457
0.953073
1.00001
0.415755
1.0005
0.636679