/*--------------------------------*- C++ -*----------------------------------*\
| =========                 |                                                 |
| \\      /  F ield         | OpenFOAM: The Open Source CFD Toolbox           |
|  \\    /   O peration     | Version:  5.0                                   |
|   \\  /    A nd           | Web:      www.OpenFOAM.org                      |
|    \\/     M anipulation  |                                                 |
\*---------------------------------------------------------------------------*/
FoamFile
{
    version     2.0;
    format      ascii;
    class       surfaceScalarField;
    location    "1.2";
    object      alphaPhi10;
}
// * * * * * * * * * * * * * * * * * * * * * * * * * * * * * * * * * * * * * //

dimensions      [0 3 -1 0 0 0 0];

internalField   nonuniform List<scalar> 
23728
(
-6.40117e-10
1.11554e-08
7.22184e-08
1.19586e-08
1.09336e-08
1.24842e-08
1.26041e-08
1.4531e-08
3.13803e-08
4.4205e-08
-3.47122e-08
2.17469e-08
1.34611e-08
1.40909e-08
1.52674e-08
2.52023e-08
1.58617e-08
-3.83566e-08
1.98525e-08
-3.80651e-10
-4.43263e-08
-4.34495e-09
-6.3568e-09
-3.0177e-09
3.77984e-08
-5.46447e-10
4.24403e-08
1.7481e-08
1.46929e-08
1.93886e-08
1.03323e-08
-1.76224e-07
-1.38365e-07
4.60805e-07
-1.66171e-07
2.84149e-09
3.34884e-11
-5.10223e-10
-3.241e-10
-1.45428e-18
7.43433e-21
-5.3246e-19
-6.3341e-19
-1.53602e-17
5.54982e-17
-3.69329e-17
2.94878e-24
2.69482e-22
1.84656e-23
1.31226e-21
4.17697e-21
1.27824e-20
-2.9596e-20
9.30988e-27
2.44765e-26
1.7219e-27
1.92031e-28
-3.02143e-28
5.78512e-30
8.83218e-33
-3.63738e-32
2.02949e-32
8.63391e-37
2.08366e-35
5.51955e-36
3.29755e-40
4.40374e-40
6.10067e-39
1.38542e-43
2.53173e-44
5.90294e-42
5.88078e-47
-8.07804e-48
-9.91176e-46
2.5044e-50
-1.95174e-50
-8.1819e-50
1.06528e-53
-2.81279e-54
-3.1533e-52
4.52777e-57
-1.16254e-57
-1.03076e-54
1.91626e-60
-1.17628e-60
-5.74819e-58
8.07969e-64
-2.17122e-64
6.39577e-62
3.41518e-67
-7.58638e-69
-1.40391e-64
1.42691e-70
1.23219e-71
-2.68166e-67
5.96811e-74
-4.85151e-75
-1.69434e-71
2.45496e-77
1.42964e-78
1.69123e-74
1.02428e-80
-3.07129e-81
3.38439e-78
4.36559e-84
-7.71892e-85
-1.28307e-80
1.99887e-87
1.31802e-88
-7.08996e-83
8.72157e-91
5.55875e-92
-3.7446e-87
7.51031e-94
-1.66791e-94
3.95018e-90
1.68731e-97
-5.04176e-98
-3.22046e-93
2.45783e-101
4.33243e-101
-2.90689e-96
5.34257e-104
5.92221e-105
-1.24849e-100
4.43495e-107
4.60026e-109
1.58774e-103
2.97258e-110
1.05518e-110
-5.53553e-105
7.86498e-114
-4.6735e-115
-7.16428e-109
7.68022e-117
7.4495e-119
-2.55068e-112
6.88213e-120
4.63311e-121
-1.43809e-115
1.34801e-122
2.00078e-123
-1.82054e-118
4.01372e-127
-2.25326e-126
4.44498e-122
1.84768e-130
-1.44231e-130
9.61061e-127
1.99206e-133
1.20134e-134
1.07804e-129
9.10101e-136
-4.23493e-138
-1.83399e-131
9.86752e-139
1.15648e-139
-7.32175e-135
2.2593e-141
6.2641e-142
-4.25169e-137
3.57139e-145
8.70538e-148
-1.43337e-140
5.94732e-148
1.19279e-149
-1.92474e-143
7.16748e-152
3.69468e-153
4.34623e-147
4.85237e-153
-6.10625e-157
1.29197e-151
3.8171e-154
5.00479e-158
-5.3813e-154
3.96468e-159
-1.4386e-157
7.09053e-09
-9.86477e-09
2.7294e-08
1.07016e-08
1.41524e-08
2.65911e-09
1.07055e-08
-1.13681e-08
-4.1409e-08
-3.16524e-08
5.14767e-08
7.08712e-09
-6.26986e-09
-2.74215e-08
-4.77662e-08
-6.92789e-09
-1.37138e-09
2.72608e-08
-3.91578e-08
8.64696e-09
7.16201e-09
-3.82004e-08
7.57644e-10
2.89428e-10
-2.69715e-10
-3.34957e-09
2.7913e-09
-2.26864e-14
2.04085e-16
5.39357e-18
-1.04989e-16
-1.64031e-13
-8.43333e-14
6.01168e-14
-1.90851e-15
-2.39309e-15
-1.61285e-15
-1.61849e-15
1.45781e-21
-3.94194e-20
2.22996e-21
-1.77177e-20
4.32806e-20
-5.51974e-20
6.52593e-20
3.31271e-28
-4.7338e-24
4.54839e-26
3.13927e-29
-1.25536e-27
-4.20841e-30
1.07577e-31
-7.85751e-31
5.85005e-34
6.82819e-36
-2.75928e-34
1.46333e-35
6.01257e-40
-2.63218e-38
3.4369e-39
2.2917e-43
-6.04205e-42
1.13027e-43
9.82198e-47
-1.54705e-45
-1.9549e-46
4.53954e-50
-3.73522e-49
-5.32231e-48
1.90699e-53
-9.69146e-53
-5.85784e-52
7.99561e-57
-2.07551e-56
2.05909e-55
3.42023e-60
-3.83873e-60
-2.36891e-57
1.45488e-63
-1.65349e-63
-3.11004e-62
6.19287e-67
-6.86662e-67
1.16018e-65
2.61724e-70
-5.23405e-71
5.4694e-68
1.11575e-73
-6.32039e-75
-2.82021e-70
4.74184e-77
1.05779e-77
-1.10478e-73
2.03576e-80
-6.43339e-84
-9.67605e-78
9.15069e-84
1.16568e-84
-3.18226e-81
3.54843e-87
4.07133e-88
4.07198e-83
1.5589e-90
-2.6709e-91
-1.80306e-87
1.28269e-93
2.86473e-94
-4.46189e-89
2.58465e-97
-4.40602e-98
3.95173e-93
1.72815e-100
5.1556e-102
-2.05462e-98
1.21693e-103
1.05083e-104
-1.85367e-99
2.20674e-107
-1.26726e-106
2.459e-102
7.52676e-111
-4.57399e-109
1.52749e-104
1.14804e-113
6.2885e-115
-9.87746e-110
5.23409e-117
-2.8347e-117
-5.55602e-112
7.60898e-120
3.46659e-121
-4.85569e-116
4.71815e-123
-6.8344e-125
-9.082e-121
4.72779e-125
-2.0745e-126
-1.72275e-121
5.64953e-130
-3.42886e-129
1.2649e-124
1.36558e-132
7.45939e-134
-1.66233e-128
6.03667e-136
1.98735e-136
3.72387e-132
2.25368e-140
-8.26673e-140
7.86024e-136
6.13243e-143
1.92526e-143
4.18044e-139
7.72265e-146
1.05053e-145
4.44364e-140
-3.03461e-148
6.70617e-151
4.72565e-144
2.91707e-151
-1.25627e-150
-2.66538e-147
3.8388e-153
-3.9816e-155
-6.06887e-151
2.95934e-154
2.57496e-157
-3.95082e-154
2.21177e-158
-3.78475e-156
-4.07396e-09
3.30476e-10
-8.18776e-10
-1.22548e-08
2.24694e-08
4.94308e-09
-1.9904e-09
2.46555e-08
2.20453e-08
2.68336e-08
1.76658e-09
2.50762e-08
-1.37127e-07
2.71493e-08
8.43647e-08
-2.07658e-08
-2.72979e-08
3.84686e-08
-1.01902e-08
1.57553e-08
-1.62034e-08
-5.52312e-08
1.20323e-10
-6.70272e-09
-4.26122e-09
-1.07532e-09
-2.09893e-09
-8.78643e-09
4.61919e-09
-5.75363e-09
-4.13168e-09
-1.99524e-08
-1.77457e-08
-1.83937e-08
-1.87303e-08
-2.32742e-08
-9.19992e-09
-1.33082e-08
-3.32603e-08
-1.70315e-09
1.17466e-08
-3.09276e-10
1.7694e-09
-1.06733e-08
1.77597e-13
-1.45462e-15
1.43481e-09
3.23538e-14
1.43504e-09
7.40676e-20
1.13424e-19
1.16648e-20
5.99197e-19
5.19689e-18
-3.41333e-19
-4.84483e-18
4.8093e-19
-3.50713e-19
4.79252e-19
-2.45473e-26
-6.47949e-22
-1.13406e-24
3.88677e-28
-1.11208e-25
1.11422e-28
3.8099e-31
-4.0295e-29
-1.4344e-32
1.07264e-35
-2.91144e-32
3.55254e-36
2.35592e-39
-2.41705e-36
1.21764e-38
9.93733e-43
-4.70799e-40
2.46315e-42
4.45543e-46
-1.25489e-43
1.09842e-44
2.02128e-49
-3.30107e-47
7.10793e-48
8.95147e-53
-1.03495e-50
2.85661e-51
3.94463e-56
-1.87965e-54
-1.43401e-53
1.83996e-59
-1.62494e-58
-1.45323e-56
7.50669e-63
-2.06641e-61
2.94232e-61
3.20198e-66
-1.60922e-65
2.06564e-63
1.39681e-69
-1.25725e-68
3.64496e-68
5.98091e-73
-4.96365e-72
3.18496e-69
4.52294e-76
4.49024e-76
1.10154e-73
6.49236e-80
-1.85704e-79
-4.28854e-76
1.10528e-82
-5.26306e-82
-2.6071e-79
2.15479e-86
-4.17056e-87
9.1494e-83
6.308e-90
3.13619e-90
-1.4859e-86
4.8739e-92
-2.9026e-92
-4.53555e-89
2.65962e-95
-7.63436e-97
6.93754e-92
7.56537e-99
-2.67274e-99
4.32601e-96
6.09222e-102
-2.53617e-101
-4.10823e-99
5.33524e-104
9.24489e-106
-4.88205e-101
5.99401e-108
3.08835e-109
-1.19485e-103
5.21292e-111
1.86403e-112
-1.14348e-107
-1.02844e-114
-1.85808e-115
-7.30959e-111
-1.04546e-117
-2.65409e-119
2.53934e-114
9.1986e-122
-1.78841e-122
-4.81553e-118
3.2089e-124
-8.02226e-126
-2.34659e-120
2.83884e-128
-2.39065e-128
-1.49106e-123
-3.27906e-131
1.96265e-130
2.99865e-126
3.53872e-133
-6.46646e-134
-4.89645e-130
-1.55845e-137
-1.23522e-136
-1.80853e-133
-8.8312e-141
-6.68231e-140
1.20743e-136
1.34165e-143
2.40876e-144
1.42538e-138
-7.11401e-147
1.62819e-146
2.29553e-142
2.26084e-149
-8.87374e-152
-4.11772e-145
-8.59275e-153
8.06291e-154
-3.2277e-149
1.12348e-153
1.25173e-157
1.09533e-152
-7.46598e-158
1.37434e-155
-5.94346e-08
-3.0082e-09
-1.09237e-08
8.80706e-09
3.88683e-09
8.09555e-09
1.24098e-08
4.39774e-08
3.59937e-09
4.16667e-08
-6.48523e-09
-5.41448e-08
7.85673e-08
-1.51645e-08
6.07198e-09
2.40361e-08
1.79348e-08
1.31282e-08
1.39827e-08
1.80028e-08
-6.12374e-09
1.23631e-08
2.73691e-08
-4.34991e-08
-2.34945e-08
-1.29213e-08
-3.38894e-08
6.7524e-08
4.86369e-09
6.23699e-09
-1.18973e-08
8.95535e-09
-6.80377e-08
-8.31956e-08
-8.69211e-08
-7.02027e-08
-1.54412e-08
-1.3267e-08
-1.57326e-08
1.21208e-09
-1.8307e-08
2.46687e-09
-6.6337e-10
1.54571e-08
1.13386e-10
1.7548e-11
-2.64156e-11
-4.72735e-11
2.7168e-12
9.10911e-17
4.90678e-19
-1.96558e-08
5.66487e-19
2.7092e-25
1.88958e-22
-3.40042e-22
2.70337e-19
2.69363e-19
2.70929e-19
2.70258e-19
-5.45329e-27
6.28817e-26
1.33788e-26
8.51966e-29
8.61548e-30
2.52064e-30
4.01846e-32
-1.43792e-31
-9.22893e-34
4.35503e-37
-1.8374e-34
4.44107e-37
3.26543e-41
-1.95677e-38
6.83014e-40
1.76769e-44
-4.21002e-42
-8.17988e-44
9.50591e-48
-1.06253e-45
-1.09758e-46
4.80191e-51
-2.836e-49
-7.79732e-50
2.32884e-54
-6.82951e-53
1.27801e-52
1.09186e-57
-2.17356e-56
1.72646e-55
4.99243e-61
-6.75852e-60
1.33243e-59
2.24909e-64
-2.17775e-63
5.82648e-62
1.00733e-67
-4.94019e-67
-1.84206e-65
4.50401e-71
1.22134e-70
9.43966e-68
1.98884e-74
5.01518e-74
2.71622e-71
8.83207e-78
9.49006e-79
2.97253e-74
3.72732e-81
-1.91125e-80
-7.1175e-77
1.32053e-84
-6.01722e-85
-2.01385e-81
1.03162e-87
1.23741e-88
-6.16071e-84
5.09761e-91
-1.26724e-90
-6.66537e-88
1.74598e-94
7.34064e-95
1.06271e-90
1.97875e-97
2.97829e-98
-1.5255e-93
9.51368e-101
-3.10415e-102
-2.37867e-96
1.03071e-104
-8.35329e-104
-5.57087e-99
1.60141e-107
1.11945e-108
-3.97586e-103
4.69802e-111
7.97839e-112
-1.06913e-106
8.33879e-114
3.18954e-115
-3.11037e-110
1.67864e-117
-2.1629e-118
-6.93998e-113
3.78085e-120
-7.99455e-121
-2.75232e-118
1.15929e-122
2.26347e-123
-1.365e-118
1.75437e-126
2.65888e-127
-3.28492e-122
1.02469e-129
-2.0447e-131
7.77534e-125
1.30365e-132
-2.35277e-134
-2.07645e-128
2.46126e-136
-1.44596e-137
4.02797e-134
3.90583e-139
-9.44997e-141
-8.05615e-136
1.58501e-142
3.09613e-143
-9.88558e-138
-5.22959e-147
4.5579e-147
6.38829e-141
3.30221e-149
1.99755e-148
-6.00057e-144
4.41201e-152
1.04108e-152
2.93668e-148
4.83327e-153
-1.29107e-155
-8.8776e-152
-2.10905e-157
-3.75258e-154
1.18124e-08
-2.06704e-08
-1.35026e-09
-3.70506e-08
-1.80355e-08
-2.42559e-08
-2.76727e-08
-7.21424e-08
-6.49654e-08
-6.43473e-08
-7.00556e-08
1.42737e-07
2.3298e-07
2.09387e-07
3.01649e-07
-5.74892e-08
-1.00953e-08
2.01048e-09
-1.78499e-08
3.69123e-09
-2.773e-09
2.26141e-08
-1.32385e-08
3.62105e-09
7.95431e-10
-4.19758e-08
2.59533e-08
1.32624e-08
-1.23681e-08
-3.76857e-08
-3.90987e-08
-4.07117e-08
-3.73451e-08
-4.95375e-10
3.3563e-09
-7.77762e-10
-4.54819e-09
1.69702e-09
-2.47545e-09
2.10712e-10
-2.67526e-10
-9.24535e-11
6.43586e-11
6.21916e-16
-6.86771e-19
-2.17123e-08
1.3958e-18
6.21984e-16
6.21631e-16
6.2044e-16
-1.68111e-18
7.56073e-24
8.194e-21
8.28035e-22
5.88611e-18
5.8856e-18
5.88902e-18
5.88565e-18
5.34665e-27
1.26459e-24
-7.77089e-26
-1.11589e-28
1.99893e-28
-9.59935e-30
5.55964e-32
-1.9948e-31
-5.52416e-33
1.17823e-35
-2.0827e-34
-1.03415e-36
1.26781e-39
-1.9696e-38
4.64534e-40
4.89277e-43
-4.35488e-42
2.15275e-42
2.10104e-46
-1.11268e-45
8.79076e-46
8.99086e-50
-2.80038e-49
9.65464e-50
3.82599e-53
-6.91816e-53
1.38236e-52
1.62102e-56
-1.49527e-56
-3.32028e-55
6.83871e-60
-1.07289e-59
2.90888e-58
2.8813e-63
-1.00533e-63
3.57783e-62
1.20357e-66
-2.73452e-67
-4.39747e-65
5.01557e-70
-4.87304e-71
9.69573e-68
2.09685e-73
-3.34072e-74
1.49936e-70
8.44857e-77
-1.00511e-77
-2.52474e-74
3.58949e-80
-5.2546e-81
-6.68065e-77
1.62349e-83
-7.35073e-85
-1.21481e-80
6.19779e-87
-2.28522e-88
1.4663e-83
-7.62044e-91
3.4173e-92
1.42871e-86
1.08531e-93
1.95602e-94
-5.67902e-90
1.1386e-96
2.08125e-97
-4.35122e-93
2.51346e-100
6.47831e-101
-3.12668e-96
1.64876e-103
9.82763e-105
-2.99259e-98
6.90028e-107
2.89776e-110
1.43455e-103
3.16175e-110
-4.24593e-112
-3.05435e-106
1.79743e-113
2.42442e-114
-3.4006e-109
-5.95008e-116
2.14366e-117
3.2057e-112
3.53419e-120
-4.1848e-121
-1.41588e-114
-6.18291e-123
1.10392e-124
5.10088e-120
4.6312e-126
7.62999e-128
2.35377e-122
1.48067e-130
-1.31843e-130
2.10627e-126
-1.76904e-132
-6.24149e-132
1.9008e-129
5.08331e-137
-2.75053e-135
-6.29642e-133
7.83169e-140
6.27985e-139
-1.21425e-135
2.40066e-142
3.04466e-142
1.02841e-136
1.42163e-145
-4.70914e-146
3.65058e-141
-3.53256e-148
1.46809e-148
4.33838e-143
5.48065e-151
1.94998e-151
9.62403e-148
-1.40517e-153
1.15833e-154
-4.79814e-150
5.23322e-158
-7.28271e-153
-1.27534e-08
-1.96658e-08
-1.75529e-08
-1.54571e-10
4.43441e-08
1.59133e-08
-1.17731e-08
-6.28386e-09
-3.62107e-08
-2.60298e-08
-4.03738e-08
-3.03886e-10
2.51221e-08
1.17312e-07
9.64897e-08
2.87158e-07
1.72236e-07
-1.03762e-09
-7.86841e-09
-5.64867e-09
-1.85317e-08
-1.00894e-08
7.18872e-08
-3.80607e-08
-1.14644e-08
-3.75971e-08
-1.04105e-07
-6.11118e-08
1.93733e-07
-4.55801e-09
2.20959e-08
-1.62437e-08
4.04617e-08
2.29793e-09
6.68296e-09
-1.15962e-08
-1.67765e-09
8.14775e-09
-4.62672e-08
-2.05686e-08
5.00374e-08
4.89728e-09
2.47912e-09
5.1208e-09
2.19507e-09
-1.47343e-08
-1.37537e-09
1.5925e-10
-2.83011e-11
4.29243e-11
2.41274e-10
-1.58572e-16
3.65933e-17
-1.82663e-08
3.6443e-17
3.2906e-17
-1.57663e-16
-1.59764e-16
-1.58856e-16
5.00054e-24
-7.45023e-22
-4.01072e-22
5.72342e-18
5.72383e-18
5.72127e-18
5.72131e-18
-1.6458e-26
-1.33291e-25
8.15747e-26
8.94897e-29
-2.666e-30
9.74719e-30
5.2443e-32
-1.19912e-31
7.86223e-33
7.11629e-36
-6.09589e-35
1.59303e-35
3.27753e-40
-6.54256e-39
7.70542e-40
1.20526e-43
-1.47212e-42
9.94553e-43
6.04971e-47
-3.58952e-46
5.64161e-46
2.92883e-50
-9.10619e-50
5.2754e-49
1.37604e-53
-1.57098e-53
-1.19218e-51
6.31874e-57
-4.77333e-57
-3.16133e-55
2.8498e-60
-1.07608e-61
4.70592e-58
1.2679e-63
-1.63005e-63
4.64241e-61
5.55938e-67
-7.28287e-68
2.88627e-64
2.41489e-70
-1.25952e-71
1.95407e-68
1.04738e-73
-3.81635e-74
1.24879e-70
4.62905e-77
-1.10345e-78
7.58076e-74
1.56966e-80
5.16084e-81
-2.10871e-79
8.40355e-84
-4.8945e-85
8.64292e-82
3.91966e-87
-1.1629e-88
2.47017e-85
2.24074e-90
1.59595e-91
3.23191e-87
2.37703e-93
6.69039e-94
1.69062e-89
3.00415e-97
1.22776e-96
3.28831e-93
4.03025e-100
-3.89795e-101
8.7257e-97
-8.88921e-104
9.24149e-105
1.56243e-99
1.05648e-106
3.26664e-108
-6.52495e-102
7.36404e-110
1.39363e-110
-1.96108e-105
1.96999e-113
-3.68932e-115
2.90297e-109
1.98852e-116
1.26779e-118
-9.12024e-112
-5.61801e-120
2.21178e-120
-1.58554e-114
4.40457e-123
-5.85037e-125
-1.71301e-120
-2.5554e-126
-1.85099e-127
8.38446e-123
1.86423e-128
2.37931e-130
-2.5586e-126
2.14379e-131
-3.14007e-133
9.23598e-130
-5.57273e-135
-1.47854e-137
-1.0368e-131
1.52391e-138
-3.49815e-141
5.76549e-134
9.17999e-143
-8.20901e-144
1.02471e-136
3.11208e-145
-2.97834e-147
2.11043e-142
3.03914e-147
4.92714e-149
-5.8981e-144
1.08553e-151
2.48824e-154
2.1672e-148
-4.52941e-153
1.0984e-156
8.77171e-150
9.41255e-158
1.16462e-154
-3.07224e-08
-1.8237e-08
-2.45116e-08
1.62276e-08
-4.96962e-08
2.44189e-08
-4.21104e-08
-3.76581e-08
1.30888e-07
-6.54086e-09
-4.3118e-09
-8.80584e-09
-3.9493e-08
-9.50985e-09
7.44994e-09
1.82732e-09
-8.59389e-08
-1.76823e-08
1.84434e-08
-7.39868e-10
-3.68271e-10
-2.57451e-09
-2.65744e-09
-1.3463e-08
-1.55992e-07
-9.22465e-08
-1.05539e-07
1.21893e-08
-1.67039e-08
3.29474e-09
-8.7033e-09
6.60306e-09
-1.02034e-08
2.66803e-09
8.27381e-10
5.33556e-10
-4.3799e-10
-5.82543e-11
6.71474e-11
-1.05821e-10
1.15676e-10
-4.501e-16
-4.56892e-18
-3.4828e-08
-3.4828e-08
-4.47907e-18
-4.50097e-16
-4.50179e-16
-4.5004e-16
3.14428e-25
1.33155e-21
1.22616e-22
2.5523e-19
2.54819e-19
2.54791e-19
2.5625e-19
4.12021e-27
1.7075e-25
-4.17932e-27
-1.6969e-29
4.66472e-29
8.21209e-31
3.43143e-32
1.69554e-32
-7.24256e-34
1.30547e-36
1.791e-36
-5.14995e-37
3.4378e-40
3.77981e-40
5.37255e-40
1.42671e-43
1.19115e-43
-1.70703e-43
5.96214e-47
2.58989e-47
-1.16333e-46
2.4805e-50
6.82766e-51
1.59646e-50
1.02817e-53
2.77356e-54
-8.18012e-54
4.25219e-57
1.48742e-58
4.41657e-56
1.75849e-60
1.29327e-61
8.7883e-59
7.18997e-64
5.15648e-65
-4.40335e-61
2.96668e-67
5.87962e-69
-8.85654e-66
1.21531e-70
1.02752e-71
-5.51071e-68
5.00353e-74
1.12182e-77
2.28682e-72
2.00762e-77
6.56164e-79
5.8021e-75
8.21337e-81
-1.22442e-83
2.28012e-78
3.35173e-84
-1.4787e-86
7.5894e-82
1.66487e-87
-7.14234e-90
-1.78703e-84
1.06159e-90
5.6911e-91
-1.49952e-86
2.99272e-94
2.43151e-97
-1.96023e-93
1.12814e-97
-2.73882e-100
6.01267e-96
5.36592e-101
-1.54199e-103
-5.21713e-97
1.68733e-104
2.32994e-107
5.62825e-101
9.11436e-108
1.05562e-109
-1.44879e-103
5.52712e-111
1.21855e-113
-1.638e-106
2.59249e-114
2.59875e-116
1.03063e-109
1.71895e-117
1.31121e-119
-6.46207e-113
2.29871e-120
7.44541e-123
6.22862e-116
2.21404e-123
2.08954e-124
-4.52226e-119
2.15669e-126
-1.87377e-129
-4.0268e-122
3.17866e-130
-4.84538e-133
-5.18514e-126
4.55787e-133
6.32478e-135
1.76242e-129
6.72001e-137
-3.17213e-138
1.31604e-131
2.95083e-140
-4.13445e-143
1.21817e-136
6.06437e-143
5.27501e-145
-2.99102e-139
6.82082e-146
-3.19643e-149
-1.59042e-141
4.36618e-148
-7.00287e-150
-3.99622e-144
9.73204e-153
-2.20761e-155
2.07416e-150
4.72843e-153
5.2275e-157
1.50644e-151
1.58873e-157
-1.91492e-153
1.07811e-08
3.3423e-08
-4.30021e-08
-1.14631e-08
-1.05055e-08
-6.08908e-09
1.06109e-09
6.29079e-09
-2.1453e-09
-8.55052e-10
3.7312e-09
-4.04691e-08
-2.22499e-08
-3.10369e-09
-2.63498e-08
1.3916e-09
-1.76536e-08
5.10917e-09
2.7473e-10
6.38201e-09
8.92302e-08
4.08079e-08
-3.8141e-07
3.10042e-08
7.84322e-08
2.15888e-08
2.84581e-08
2.15392e-08
1.08612e-08
1.36101e-08
-1.47196e-07
2.72062e-08
-2.90855e-09
-2.24227e-10
1.9436e-08
3.80904e-08
-2.07828e-08
-9.42648e-09
4.68675e-10
1.50187e-08
1.35008e-09
-1.01895e-07
1.20223e-09
6.4298e-09
-1.60561e-09
-3.19221e-09
-3.25767e-09
-1.65412e-10
-5.30176e-12
1.42447e-09
5.43734e-11
1.42175e-09
2.89312e-21
-4.46963e-21
-3.42881e-20
7.63038e-19
-1.57651e-19
1.01209e-17
-2.35248e-18
5.2409e-18
5.57944e-18
3.17096e-18
5.57222e-18
-1.14241e-26
5.04285e-26
-5.25928e-25
6.94438e-28
4.26778e-28
9.45298e-29
4.03588e-31
1.09267e-30
5.1857e-32
1.93181e-35
4.50925e-34
-2.51002e-35
5.00294e-39
4.16977e-38
-1.15634e-38
2.1031e-42
9.73966e-42
8.77284e-42
9.00914e-46
2.49081e-45
-8.75803e-45
3.84984e-49
6.49322e-49
4.31231e-48
1.65857e-52
1.48207e-52
2.40917e-50
6.90084e-56
4.15874e-56
6.8138e-54
3.00515e-59
-8.28083e-61
-7.25456e-57
1.22013e-62
3.37494e-63
1.82634e-61
4.62032e-66
6.79267e-67
2.01349e-64
2.14221e-69
1.60837e-70
-1.36893e-67
1.0156e-72
7.26563e-74
-3.12666e-70
3.64542e-76
-1.00396e-77
-1.87066e-74
1.58038e-79
-1.6261e-80
1.10376e-76
1.91043e-83
2.74743e-84
-1.91516e-79
8.97555e-86
-2.3722e-88
-2.26349e-82
3.25235e-90
3.68209e-92
3.1706e-86
1.49655e-92
2.18441e-94
-4.68134e-90
2.59157e-95
-2.6739e-98
-5.50591e-92
-2.01986e-99
-4.81349e-100
6.82931e-96
1.58524e-102
2.15107e-104
-1.24515e-98
2.02232e-105
4.24822e-107
-1.50789e-101
1.1776e-108
-5.28511e-112
-8.80342e-105
1.36199e-112
8.05049e-115
-4.38061e-108
-8.41382e-115
1.59219e-117
8.38806e-111
-1.1844e-118
7.2373e-122
2.22076e-114
7.94548e-121
1.04231e-123
5.25693e-118
1.76063e-124
1.28561e-127
-4.00192e-121
-4.3811e-128
4.67874e-131
1.16595e-124
3.67923e-131
3.10693e-134
-7.11624e-128
4.34218e-134
2.61676e-136
1.67795e-130
-3.63239e-137
-1.59158e-139
1.73573e-133
1.40696e-140
-1.26865e-143
-1.32778e-136
-3.55673e-145
5.42679e-147
-7.01286e-140
2.9467e-148
9.11317e-150
-1.01922e-143
1.00765e-149
-1.95059e-152
-9.62328e-147
-1.78621e-153
-1.3333e-154
4.66949e-150
4.04197e-154
-4.47223e-157
4.35127e-153
6.28308e-159
-3.1937e-155
-1.24989e-08
-1.10369e-09
-3.02481e-08
1.77813e-08
4.21285e-08
3.65447e-08
-6.26901e-09
4.0157e-09
-1.72767e-08
8.25865e-10
1.16263e-08
-5.1745e-09
1.37544e-07
-1.25803e-07
-1.21556e-07
7.83906e-08
2.80766e-08
-1.89327e-08
2.50349e-08
1.73431e-08
1.15472e-08
2.66523e-08
-8.63944e-08
-9.64626e-08
1.30124e-08
2.55185e-08
-2.34301e-07
-3.7066e-08
-2.68151e-07
4.35965e-08
-3.99273e-08
1.59278e-08
2.72492e-08
1.48037e-08
1.37371e-08
5.61526e-08
-7.23227e-10
1.43556e-09
-3.69445e-11
-1.93838e-09
8.83863e-10
-7.58734e-13
6.72804e-15
-2.46878e-08
1.07095e-12
-2.46878e-08
1.67242e-21
3.33128e-22
-4.60983e-21
6.10259e-21
-2.10202e-20
1.36775e-19
-1.24455e-19
1.13067e-26
9.10248e-26
-9.33142e-26
4.57272e-29
8.79935e-28
-1.46822e-30
6.98009e-32
5.11139e-31
8.17876e-34
7.03139e-36
9.92217e-35
2.80407e-36
1.11256e-39
1.78196e-38
3.02037e-39
4.44308e-43
4.44996e-42
1.20363e-42
1.86087e-46
1.14626e-45
-1.15496e-45
7.78603e-50
2.81858e-49
2.08156e-48
3.24738e-53
7.51028e-53
-7.96775e-52
1.35118e-56
1.96265e-56
-1.82256e-55
5.6034e-60
4.39925e-60
-1.50105e-57
2.31578e-63
1.27178e-63
8.55429e-61
9.54275e-67
3.30258e-67
1.3984e-64
3.92386e-70
1.11142e-70
8.72164e-70
1.60929e-73
1.17757e-74
1.2432e-71
6.96675e-77
5.40868e-78
-1.78884e-74
4.52731e-80
-1.62918e-81
-1.2759e-76
1.20633e-83
-1.05603e-85
-3.61067e-81
4.60334e-87
2.66718e-88
4.80616e-84
1.81188e-90
-5.11294e-92
-9.59327e-87
7.92773e-94
-9.17787e-95
1.59224e-90
5.38866e-97
-1.84404e-98
-3.98343e-94
2.37333e-99
1.92376e-101
-1.14978e-95
1.44785e-103
-3.70977e-105
-1.27432e-100
3.50065e-107
2.41883e-109
2.44526e-103
1.69385e-110
-3.69614e-111
1.7846e-107
3.11359e-114
-4.30129e-116
-3.17772e-109
9.66664e-117
-5.09039e-118
-4.23847e-112
7.62633e-120
4.52517e-121
-3.60769e-115
-9.72481e-124
-2.7576e-124
1.11193e-118
-6.37217e-127
-2.75511e-127
1.17963e-123
3.58243e-129
2.33901e-130
-2.88063e-125
3.91902e-132
-5.1864e-134
-5.97236e-128
6.62109e-135
7.68927e-136
-7.91434e-131
1.32268e-139
1.09646e-139
-2.26246e-134
3.66314e-142
-2.95318e-143
-9.74772e-139
-1.71693e-145
-1.76684e-146
1.2119e-141
1.52197e-148
-7.58016e-150
-5.88761e-145
1.78913e-151
-1.31542e-152
1.72096e-147
-7.79873e-154
-3.26131e-155
-3.86661e-150
4.82215e-154
-3.33664e-157
-7.00994e-153
-1.27267e-159
1.30839e-156
3.44656e-08
5.95972e-08
2.55709e-08
1.1001e-07
6.39164e-08
2.53689e-08
-1.39998e-08
1.53716e-08
1.16041e-08
4.90931e-08
1.85694e-08
-9.33135e-08
3.56176e-09
-2.43841e-08
-1.66861e-08
1.97323e-09
3.06779e-08
2.64801e-08
1.78792e-08
-5.52651e-08
-1.95146e-09
-5.10508e-09
3.02886e-09
1.77491e-09
7.95347e-10
-3.81983e-16
-4.0873e-17
-7.4474e-20
2.17159e-18
-8.43779e-18
1.95725e-17
-1.64304e-16
5.73988e-16
2.54648e-24
3.693e-24
1.49906e-21
6.65538e-22
-1.03268e-20
6.62261e-21
6.11518e-27
9.64716e-28
1.73828e-28
8.79617e-30
7.26982e-33
1.67584e-32
8.75458e-37
3.74209e-36
3.46548e-40
2.83621e-39
1.46011e-43
2.15479e-43
6.18176e-47
-1.44063e-45
2.61537e-50
6.95573e-49
1.10284e-53
-7.81853e-53
4.64391e-57
8.33344e-55
1.95404e-60
4.54718e-58
8.19811e-64
3.21109e-61
3.40363e-67
4.01394e-65
1.41028e-70
-6.4583e-68
5.84139e-74
-4.06939e-71
2.4091e-77
2.47196e-74
1.02295e-80
1.2699e-76
4.13502e-84
4.65402e-81
1.82051e-87
-3.29927e-83
9.19684e-91
-3.23881e-87
6.88559e-94
1.61498e-90
2.15228e-97
4.09509e-94
4.18001e-100
-1.80264e-96
2.92539e-103
-3.21997e-99
1.38067e-106
-2.34317e-102
1.88074e-109
-1.30157e-106
2.10623e-114
-6.89139e-111
8.03118e-117
-9.92009e-112
3.42038e-119
3.28366e-115
8.30965e-123
8.08772e-119
2.67399e-125
-1.99541e-121
1.99921e-129
-1.34586e-127
1.35456e-132
7.40746e-129
3.66548e-136
1.23252e-132
5.52889e-138
-2.69941e-134
4.4579e-142
1.38554e-137
3.37295e-145
-4.58902e-141
9.33979e-148
-3.41069e-144
1.38763e-152
-5.79657e-148
4.69261e-154
-8.1754e-151
4.02863e-154
1.9917e-153
3.55252e-156
1.4464e-08
-7.36343e-09
-4.94019e-08
-4.88339e-09
-7.07184e-09
-5.6827e-09
1.75025e-08
9.28749e-09
4.55233e-08
-1.54282e-08
1.09227e-08
5.22121e-09
9.48914e-09
9.83626e-09
8.97869e-09
-3.41329e-09
-1.85812e-09
8.51958e-09
1.31979e-07
-3.1091e-09
1.56598e-07
-1.04458e-08
-6.01245e-09
1.65172e-07
1.03664e-07
1.82142e-08
-1.49008e-08
2.96698e-09
3.79995e-09
4.17497e-10
1.54571e-09
5.87663e-11
-5.86157e-10
3.18137e-10
1.97137e-16
2.98488e-18
-7.79048e-20
5.33134e-18
-2.78778e-19
-1.9892e-16
3.15899e-16
-1.65838e-16
-9.92115e-25
4.6231e-21
-1.81512e-23
2.7736e-20
-3.16498e-20
2.89411e-20
-3.40213e-20
1.7493e-25
1.61698e-25
-1.87083e-27
2.71003e-27
-1.33156e-27
-1.09356e-29
6.39236e-31
-2.12331e-30
-5.23037e-32
5.27168e-35
-1.48887e-34
2.83928e-36
2.86705e-38
-8.06252e-38
3.16384e-40
2.19899e-41
-4.04888e-41
-4.32944e-42
1.59155e-44
-1.73677e-44
1.82818e-45
1.13773e-47
-9.83549e-48
4.84221e-48
8.11755e-51
-3.76457e-51
-1.3687e-51
5.7666e-54
-2.16574e-54
8.23222e-55
4.07591e-57
6.89928e-58
-5.12172e-60
2.86937e-60
-4.20577e-61
-4.02448e-61
2.01166e-63
5.14538e-65
1.73691e-64
1.40372e-66
-2.31299e-67
2.0677e-67
9.75995e-70
8.30667e-73
-2.4988e-71
6.75863e-73
1.25686e-73
-2.27177e-74
4.6623e-76
-9.25319e-78
-2.73704e-77
3.20566e-79
-5.90303e-80
-2.40899e-80
2.19686e-82
8.77128e-84
-8.21274e-84
1.50026e-85
7.17415e-87
6.77865e-87
1.02072e-88
6.5566e-91
4.86293e-90
6.92107e-92
-1.96576e-93
-3.24578e-94
4.67532e-95
2.49459e-95
-1.13924e-98
3.15005e-98
9.78561e-99
4.93758e-101
2.1173e-101
-3.47042e-102
-1.04925e-101
1.41831e-104
-4.87479e-105
1.18846e-105
9.47622e-108
-6.28316e-109
8.11647e-109
6.3109e-111
-2.80831e-113
2.93372e-112
4.1883e-114
5.18721e-115
9.78018e-115
2.77389e-117
-2.86536e-118
2.66369e-118
1.83376e-120
-3.12109e-122
-1.02418e-123
1.20884e-123
-1.31556e-124
1.18424e-124
7.94968e-127
4.71806e-128
6.8091e-129
5.21419e-130
-1.50289e-131
1.16731e-132
3.41221e-133
2.93211e-134
6.76112e-135
2.22667e-136
7.42551e-137
-2.49009e-140
1.44921e-139
-1.32497e-140
-4.51446e-141
9.40908e-143
-5.78309e-143
6.86841e-144
6.10062e-146
-8.612e-147
9.74254e-148
3.94844e-149
-2.73951e-150
1.50805e-150
2.11772e-152
-5.23606e-154
2.51254e-153
3.24333e-156
8.77697e-156
-5.81914e-09
-1.37282e-07
4.01992e-08
-1.52212e-07
-1.34215e-09
8.95145e-09
-6.08856e-08
4.6553e-10
-5.34551e-08
-1.83745e-08
-4.94129e-08
-8.49268e-09
1.14211e-09
-8.19263e-08
-1.07196e-10
-4.84163e-09
1.39449e-08
4.99369e-08
1.42841e-09
-2.08049e-08
1.75848e-10
-6.83905e-08
9.05566e-09
3.31036e-08
1.11513e-08
3.22095e-08
-4.08257e-08
6.29708e-09
2.43764e-09
5.47558e-09
1.0069e-09
-3.94874e-10
-1.21844e-08
1.4601e-15
2.91055e-16
2.63398e-15
7.92645e-17
-5.84463e-16
-1.41792e-13
4.63642e-14
8.44631e-14
-9.4882e-15
-9.81635e-15
-9.34665e-15
-9.31745e-15
1.00795e-20
-1.87683e-19
-1.95289e-21
-8.28351e-20
1.80293e-19
-3.65998e-20
2.72359e-19
-1.86629e-26
-2.87196e-23
-3.97149e-26
1.52281e-28
-1.26842e-26
2.23682e-30
8.88458e-31
-3.59192e-30
-3.66741e-34
5.73296e-35
-9.82248e-34
-2.32572e-36
3.98338e-39
-1.15901e-37
-2.10464e-40
4.64129e-42
-1.75632e-40
-3.84408e-42
4.35547e-45
-7.46214e-44
-1.76518e-45
3.60412e-48
-2.70004e-47
4.21276e-51
2.89614e-51
-1.63382e-50
-2.36764e-52
2.26853e-54
6.08788e-55
-1.19642e-55
1.74047e-57
-2.02046e-57
1.24369e-57
1.31274e-60
-1.11292e-60
-1.2529e-62
9.77039e-64
-5.1581e-64
2.13598e-64
7.17908e-67
2.33376e-67
-6.85739e-68
5.2316e-70
-1.10955e-69
1.39838e-70
3.78437e-73
-4.90796e-73
-6.11001e-75
2.71345e-76
5.97746e-77
2.48959e-77
1.93148e-79
1.73726e-80
-1.44365e-80
1.36593e-82
1.12794e-83
-2.9825e-84
9.60442e-86
-1.83835e-86
4.5488e-87
6.71775e-89
5.05713e-89
6.8563e-90
4.6726e-92
-1.12026e-92
3.45182e-93
3.23769e-95
-1.76548e-96
3.61866e-96
2.2357e-98
1.84758e-99
3.74737e-99
1.53742e-101
-9.98817e-102
-3.96529e-102
1.05384e-104
-2.38782e-105
-5.87883e-105
7.19415e-108
1.36265e-108
6.60623e-109
4.8917e-111
-6.61477e-112
2.44342e-112
3.31586e-114
-8.76196e-115
1.32589e-115
2.24182e-117
7.91445e-120
6.19137e-119
1.50916e-120
-7.57956e-121
3.36793e-121
1.01261e-123
-5.03705e-125
2.36677e-126
6.78053e-127
3.58238e-128
-9.46957e-129
4.5261e-130
5.26922e-131
-9.39723e-133
3.01411e-133
1.05963e-133
-3.41706e-135
2.00465e-136
1.83462e-137
2.07791e-137
1.32883e-139
8.38821e-140
-3.58816e-140
8.7795e-143
3.8884e-144
-2.10438e-144
5.78997e-146
6.98993e-147
3.47956e-147
3.819e-149
2.55078e-150
1.78364e-150
7.76792e-152
3.88348e-153
-8.54517e-154
5.19262e-157
3.25999e-157
2.07217e-08
1.39698e-08
1.03062e-08
-2.09377e-08
-4.28063e-09
1.65018e-08
4.21789e-07
-1.55161e-09
1.24014e-07
1.48656e-09
-1.93584e-09
-1.50858e-09
2.64441e-08
2.65022e-08
2.38997e-08
2.40342e-08
5.3313e-09
4.76184e-08
2.93391e-07
1.14878e-07
-1.00887e-08
3.5411e-08
-3.46081e-09
5.22503e-08
6.64654e-08
5.25661e-09
-2.86332e-09
-2.6423e-09
1.33121e-07
1.41134e-07
-3.51857e-09
5.17665e-08
3.25351e-08
4.16591e-08
2.4076e-08
-4.73323e-09
-6.60287e-09
-1.38179e-08
6.04676e-08
-1.17828e-08
7.54187e-09
-2.51777e-08
1.89478e-08
3.5279e-08
3.07596e-08
-2.00913e-09
-1.43823e-08
-5.15128e-10
4.89218e-09
-2.04969e-08
2.50527e-11
-4.69299e-14
-3.55049e-15
-1.15641e-12
-3.83825e-14
4.34475e-16
-8.92309e-20
-1.25688e-17
-1.27056e-20
1.61544e-18
6.3742e-18
2.60378e-18
6.10313e-18
-1.26501e-17
-1.34559e-17
-1.26542e-17
-4.67747e-25
-3.7926e-21
2.69779e-24
2.99011e-28
-1.78514e-24
-8.27525e-29
5.15331e-30
-8.86319e-28
-9.04405e-32
4.06989e-34
-4.61121e-31
-7.92124e-35
1.34244e-37
-1.94201e-34
-2.05453e-38
7.92777e-41
-8.22936e-38
-8.31825e-42
6.31861e-44
-3.35635e-41
9.76476e-45
5.25689e-47
-1.5255e-44
-9.61984e-49
4.13847e-50
-6.5837e-48
1.74743e-51
3.17657e-53
-1.41897e-51
7.43093e-54
2.40785e-56
-1.10846e-54
1.39812e-56
1.80579e-59
-6.09491e-58
-1.65316e-60
1.33913e-62
-1.89008e-61
4.80369e-64
9.84401e-66
-1.59558e-64
8.96869e-67
7.1786e-69
-5.12873e-68
9.0381e-70
5.19594e-72
-1.05201e-71
-1.22569e-73
3.73858e-75
1.93223e-74
-1.17365e-75
2.67648e-78
-1.21713e-77
5.7719e-79
1.90427e-81
2.14205e-81
4.40089e-83
1.34754e-84
8.49984e-85
1.93617e-86
9.50748e-88
3.10935e-88
2.75987e-89
6.68254e-91
-2.40768e-90
2.42984e-92
4.67501e-94
1.34213e-94
2.20809e-95
3.2636e-97
-5.2368e-98
6.03326e-99
2.26664e-100
7.17136e-101
1.01911e-101
1.56668e-103
2.53786e-104
-9.00685e-105
1.08086e-106
1.18486e-107
5.44848e-108
7.43757e-110
-2.29109e-110
2.39511e-110
5.10036e-113
-7.91225e-114
1.82971e-114
3.48921e-116
-9.96972e-117
-4.21918e-117
2.37917e-119
6.15751e-121
1.2283e-121
1.61656e-122
6.61731e-123
1.78458e-123
1.096e-125
1.62781e-125
-8.07077e-127
7.41257e-129
1.63384e-129
4.11658e-131
5.00667e-132
-2.61909e-131
1.59282e-133
3.37636e-135
-7.1278e-135
-3.25256e-137
2.26938e-138
1.46274e-138
4.43262e-140
1.52079e-141
5.19569e-142
-2.03805e-142
1.01727e-144
2.05585e-145
-2.04499e-146
6.78418e-148
1.60159e-148
7.21863e-149
4.77861e-151
9.93757e-154
5.02263e-153
-5.25379e-154
-9.45482e-157
1.77846e-09
4.1114e-07
1.23953e-08
2.61509e-09
-4.09758e-07
-2.13241e-08
-8.00413e-08
-1.92984e-08
-2.69487e-08
-8.65414e-09
8.19749e-08
-1.67815e-08
-7.62822e-08
1.58098e-08
-1.77608e-08
2.38218e-08
1.32456e-08
1.56656e-08
5.87143e-09
-3.0737e-07
-1.18953e-07
-2.34566e-07