/*--------------------------------*- C++ -*----------------------------------*\
| =========                 |                                                 |
| \\      /  F ield         | OpenFOAM: The Open Source CFD Toolbox           |
|  \\    /   O peration     | Version:  5.0                                   |
|   \\  /    A nd           | Web:      www.OpenFOAM.org                      |
|    \\/     M anipulation  |                                                 |
\*---------------------------------------------------------------------------*/
FoamFile
{
    version     2.0;
    format      ascii;
    class       volScalarField;
    location    "1.2";
    object      p_rgh;
}
// * * * * * * * * * * * * * * * * * * * * * * * * * * * * * * * * * * * * * //

dimensions      [1 -1 -2 0 0 0 0];

internalField   nonuniform List<scalar> 
7975
(
104.886
101.294
102.374
107.487
95.4675
100.702
96.4082
92.7625
90.3336
87.8672
85.3942
82.9156
80.4424
78.001
75.5669
73.157
70.7621
68.3979
66.0541
63.7338
61.4208
59.1275
56.8619
54.5901
52.3431
50.1127
47.8872
45.6609
43.4524
41.2706
39.0833
36.9211
34.7871
32.6455
30.4972
28.3817
26.3184
24.2906
22.2725
20.2445
18.2462
16.2928
14.3409
12.3627
10.4119
8.50876
6.60673
4.70141
2.8161
0.941656
90.6586
101.343
107.042
94.9316
129.949
99.8369
95.5681
92.5756
90.2685
87.8518
85.3971
82.9188
80.4664
78.0138
75.5702
73.1665
70.7634
68.4139
66.0779
63.739
61.4273
59.1295
56.8545
54.5905
52.3306
50.0955
47.8777
45.6632
43.4622
41.2723
39.0985
36.9354
34.7856
32.6399
30.5005
28.388
26.3138
24.2739
22.25
20.2426
18.2515
16.297
14.3491
12.3816
10.4194
8.49999
6.59846
4.7003
2.81771
0.941583
117.607
102.975
107.239
123.282
121.385
98.8994
96.1571
92.889
90.4517
87.9379
85.4548
82.9442
80.4688
78.0214
75.5806
73.1588
70.7777
68.4337
66.0933
63.7378
61.4297
59.1332
56.8475
54.5861
52.334
50.091
47.8654
45.6677
43.4681
41.2737
39.1029
36.9348
34.7663
32.6289
30.5114
28.4036
26.3138
24.2647
22.2483
20.2448
18.2597
16.2918
14.3324
12.3831
10.4312
8.49835
6.59373
4.70228
2.82097
0.941493
94.2828
93.4463
106.676
108.429
106.205
105.295
98.4624
93.946
90.5188
88.0627
85.5135
83.0076
80.4941
78.0282
75.591
73.1705
70.7823
68.4296
66.0732
63.741
61.4374
59.1325
56.8496
54.5873
52.345
50.1014
47.8648
45.6738
43.4651
41.2648
39.1035
36.9302
34.7609
32.6234
30.519
28.4207
26.3201
24.2609
22.2488
20.2508
18.264
16.2806
14.3157
12.3699
10.4366
8.49983
6.59226
4.70875
2.82721
0.936919
100.87
100.502
116.372
108.614
104.987
102.661
99.7653
94.3166
90.6839
88.1604
85.5655
83.02
80.5166
78.0385
75.6079
73.1849
70.7991
68.424
66.0554
63.7449
61.4424
59.1322
56.8559
54.591
52.3538
50.1165
47.875
45.6697
43.4523
41.2574
39.0979
36.9221
34.7577
32.6216
30.5193
28.4294
26.3301
24.2657
22.2533
20.2593
18.263
16.2687
14.2955
12.359
10.4333
8.50096
6.59917
4.72281
2.83509
0.934784
103.014
104.493
99.7965
101.412
96.1776
100.57
99.3037
94.4318
90.7058
88.1865
85.5815
83.0321
80.5247
78.0484
75.6187
73.195
70.8098
68.4295
66.0522
63.7348
61.4391
59.1295
56.8566
54.6015
52.3599
50.1294
47.8851
45.6634
43.4458
41.251
39.0915
36.9161
34.7503
32.6231
30.5224
28.4308
26.3401
24.2753
22.256
20.2601
18.2574
16.2547
14.2819
12.35
10.4286
8.50535
6.61557
4.74679
2.84478
0.937572
106.995
117.873
107.025
99.0071
99.6102
100.102
99.4958
94.2364
90.6192
88.109
85.5572
83.0228
80.5363
78.0592
75.6142
73.1944
70.8092
68.438
66.0572
63.7259
61.4278
59.1292
56.8556
54.6094
52.3655
50.1297
47.8921
45.6606
43.4468
41.2594
39.0871
36.9035
34.7432
32.6292
30.525
28.4253
26.3455
24.2892
22.2576
20.2518
18.25
16.2459
14.2781
12.3473
10.4241
8.50717
6.62179
4.74674
2.85045
0.946912
102.925
101.145
100.93
100.206
101.363
99.0856
98.2097
93.2562
90.6566
88.0667
85.5235
82.9991
80.5211
78.0492
75.59
73.1939
70.7993
68.4261
66.0726
63.72
61.4188
59.1245
56.8528
54.6102
52.363
50.1336
47.8936
45.6583
43.46
41.2673
39.0825
36.9005
34.7478
32.6363
30.5235
28.4144
26.3449
24.2988
22.2633
20.2464
18.2456
16.2592
14.2914
12.3523
10.4233
8.50967
6.62065
4.73612
2.84828
0.950606
101.044
98.5698
99.0233
100.541
99.6195
99.8857
96.7836
93.0624
90.5394
88.0022
85.4827
82.9782
80.4971
78.0304
75.5899
73.1858
70.772
68.405
66.0581
63.7259
61.4111
59.1187
56.8595
54.6072
52.3694
50.1336
47.8906
45.6583
43.4532
41.2654
39.0706
36.901
34.7659
32.6418
30.5159
28.4037
26.3405
24.3054
22.2682
20.2451
18.2439
16.2659
14.3049
12.3518
10.4187
8.51051
6.61358
4.72501
2.83756
0.951275
100.002
100.303
97.0042
101.234
99.6134
99.3365
96.5794
92.9484
90.4524
87.9268
85.4336
82.9345
80.4492
78.0099
75.5765
73.1634
70.7657
68.4006
66.0535
63.7304
61.4128
59.1192
56.8618
54.5962
52.3577
50.1303
47.892
45.6598
43.4518
41.2676
39.0745
36.9075
34.7808
32.6458
30.5044
28.3889
26.3284
24.2999
22.2712
20.2439
18.2449
16.2828
14.3239
12.3546
10.4127
8.51272
6.61303
4.71215
2.82287
0.942779
104.85
101.775
98.8273
106.782
124.342
100.697
96.4094
92.763
90.3336
87.8672
85.3942
82.9157
80.4422
78.001
75.5668
73.1567
70.7621
68.398
66.0542
63.7335
61.4207
59.1275
56.8619
54.59
52.3431
50.1127
47.887
45.6609
43.4522
41.2703
39.0832
36.9211
34.7872
32.6454
30.4972
28.3817
26.3183
24.2906
22.2724
20.2443
18.2461
16.2929
14.341
12.3628
10.4119
8.5088
6.60665
4.70139
2.81605
0.941725
112.745
100.976
110.085
90.761
106.451
99.3649
95.56
92.5758
90.2685
87.8518
85.3971
82.9188
80.4664
78.0138
75.5702
73.1663
70.7634
68.414
66.0778
63.7389
61.4274
59.1296
56.8544
54.5905
52.3307
50.0955
47.8776
45.6632
43.4622
41.2723
39.099
36.9355
34.7856
32.6399
30.5005
28.388
26.3137
24.2739
22.25
20.2426
18.2516
16.2971
14.349
12.3814
10.4194
8.49999
6.59826
4.70029
2.81791
0.941533
116.958
106.028
107.431
118.763
115.917
98.506
96.1295
92.89
90.4519
87.9379
85.4549
82.9441
80.4687
78.0213
75.5806
73.159
70.7777
68.4336
66.0933
63.7378
61.4292
59.1332
56.8474
54.5859
52.334
50.0909
47.8655
45.6677
43.4681
41.2738
39.1026
36.9347
34.7664
32.6289
30.5115
28.4036
26.3137
24.2647
22.2482
20.2448
18.2597
16.2919
14.3324
12.3829
10.4312
8.49829
6.59352
4.70234
2.82099
0.941488
100.596
91.4738
105.782
113.851
101.24
109.396
98.4923
93.9464
90.5194
88.0624
85.5135
83.0078
80.4941
78.0282
75.591
73.1705
70.7823
68.4295
66.0731
63.7409
61.4374
59.1325
56.8497
54.5874
52.3449
50.1013
47.865
45.6739
43.4653
41.2647
39.1034
36.9303
34.7608
32.6233
30.5191
28.4202
26.3198
24.2609
22.2488
20.2507
18.2642
16.2805
14.3155
12.3701
10.4368
8.49984
6.59215
4.70875
2.8272
0.936776
97.3515
102.507
98.5686
103.771
103.075
102.259
99.7557
94.3163
90.6842
88.1604
85.5656
83.02
80.5161
78.0385
75.6079
73.1848
70.799
68.424
66.0554
63.745
61.4424
59.1323
56.8558
54.591
52.3536
50.1166
47.8751
45.6696
43.4521
41.2573
39.0979
36.9221
34.7577
32.6216
30.5193
28.4294
26.3301
24.2657
22.2533
20.2597
18.2629
16.2683
14.2955
12.3589
10.4331
8.50094
6.5991
4.7228
2.83509
0.934832
105.429
104.078
103.788
102.122
97.822
99.8796
99.3322
94.4311
90.7061
88.1865
85.5814
83.0321
80.5249
78.0484
75.6187
73.1949
70.8098
68.4296
66.0521
63.7346
61.439
59.1294
56.8566
54.6015
52.36
50.1295
47.8851
45.6633
43.4458
41.2512
39.0916
36.9156
34.7501
32.6232
30.5225
28.4308
26.3402
24.2753
22.256
20.2601
18.2573
16.2543
14.2819
12.35
10.4283
8.50533
6.61554
4.74695
2.84448
0.937539
116.605
100.454
116.225
99.9202
101.359
100.01
99.6159
94.2336
90.6198
88.1088
85.5572
83.0228
80.5363
78.0592
75.6142
73.1944
70.8092
68.4379
66.0572
63.7259
61.4279
59.1292
56.8556
54.6093
52.3652
50.1297
47.8921
45.6606
43.4469
41.2595
39.0873
36.9033
34.7432
32.6292
30.525
28.4252
26.3455
24.2891
22.2576
20.2519
18.25
16.2457
14.2781
12.3473
10.4239
8.50715
6.62191
4.74682
2.85048
0.947016
103.661
101.296
100.021
99.1155
99.0505
99.0361
98.0719
93.2568
90.6567
88.0667
85.5235
82.9991
80.5211
78.0492
75.59
73.1938
70.7996
68.4258
66.0727
63.72
61.4188
59.1245
56.8529
54.6102
52.3629
50.1336
47.8936
45.6583
43.4599
41.2673
39.0824
36.9003
34.7478
32.6363
30.5235
28.4144
26.3449
24.2988
22.2633
20.2463
18.2455
16.2592
14.2914
12.3523
10.4233
8.50965
6.62065
4.73611
2.84839
0.950739
100.693
98.4927
102.719
99.8527
99.2191
99.3741
96.7914
93.0629
90.5395
88.0022
85.4827
82.9782
80.4971
78.0304
75.5899
73.186
70.7722
68.4046
66.0582
63.726
61.411
59.1188
56.8595
54.6072
52.3694
50.1336
47.8904
45.6582
43.4533
41.2654
39.0707
36.9009
34.7663
32.6419
30.5158
28.4038
26.3406
24.3053
22.2681
20.2451
18.244
16.2659
14.3048
12.3517
10.4186
8.51048
6.61353
4.72498
2.83763
0.951281
99.9286
100.673
96.9869
99.7964
100.968
99.2958
96.5807
92.9489
90.4523
87.9267
85.4336
82.9344
80.449
78.0102
75.5764
73.1636
70.7657
68.4004
66.0536
63.7303
61.4127
59.119
56.8618
54.5962
52.3577
50.1302
47.8918
45.6599
43.4518
41.2676
39.0744
36.9075
34.781
32.6455
30.5043
28.389
26.3284
24.2999
22.2712
20.2439
18.2449
16.2828
14.3239
12.3545
10.4126
8.513
6.61279
4.71213
2.8229
0.942759
104.854
101.292
100.026
103.16
120.683
100.671
96.4084
92.7629
90.3335
87.8671
85.3942
82.9158
80.4419
78.0012
75.5667
73.1564
70.7621
68.398
66.0545
63.7333
61.4204
59.1275
56.8617
54.5898
52.3431
50.1127
47.8869
45.6608
43.452
41.2703
39.0833
36.9211
34.7871
32.6452
30.4971
28.3816
26.3182
24.2906
22.2723
20.2442
18.2459
16.2929
14.341
12.3629
10.412
8.50896
6.60651
4.70135
2.81595
0.941663
113.828
100.616
107.28
81.2287
87.9542
99.5666
95.5614
92.5751
90.2684
87.8517
85.397
82.9187
80.4663
78.0137
75.5701
73.1661
70.7634
68.4141
66.0777
63.7388
61.4274
59.1296
56.8538
54.5899
52.3307
50.0953
47.8775
45.6631
43.4623
41.2725
39.0991
36.9355
34.7854
32.6398
30.5005
28.3879
26.3136
24.2743
22.2498
20.2418
18.2515
16.2972
14.3488
12.3808
10.4195
8.49999
6.59811
4.70023
2.81796
0.941343
118.101
114.61
107.79
117.657
98.9709
97.9472
96.1439
92.89
90.4532
87.9378
85.4545
82.944
80.4685
78.0213
75.5805
73.1593
70.7776
68.4333
66.0933
63.7377
61.429
59.1331
56.8473
54.5858
52.3339
50.0907
47.8655
45.6676
43.4681
41.2738
39.1025
36.9343
34.7664
32.6291
30.5115
28.4036
26.3135
24.2647
22.2482
20.2447
18.26
16.292
14.3324
12.3827
10.4313
8.49819
6.59344
4.70234
2.82095
0.941178
105.644
95.0827
101.084
119.374
99.0119
96.5083
98.4747
93.9483
90.5188
88.0622
85.5134
83.0076
80.494
78.0281
75.5909
73.1704
70.7822
68.4294
66.073
63.7408
61.4375
59.1324
56.8496
54.5874
52.3446
50.101
47.8651
45.6738
43.4652
41.2646
39.1033
36.9302
34.7608
32.6233
30.5191
28.4202
26.3197
24.2609
22.2489
20.251
18.2641
16.2804
14.3153
12.3702
10.4367
8.49978
6.59205
4.70874
2.82707
0.936443
81.0115
105.737
96.5953
97.6021
104.837
101.059
99.7406
94.3166
90.6834
88.1607
85.5655
83.0191
80.5159
78.0384
75.6079
73.1847
70.799
68.4239
66.0553
63.745
61.4424
59.1323
56.8556
54.5911
52.3533
50.1166
47.8752
45.6696
43.452
41.2571
39.0979
36.9221
34.7575
32.6216
30.5193
28.4293
26.3301
24.2657
22.2532
20.26
18.2628
16.2678
14.2955
12.3588
10.4329
8.50087
6.59925
4.72276
2.83489
0.934741
103.393
116.212
96.4762
99.8154
103.337
99.9223
99.3365
94.4314
90.7052
88.1867
85.5812
83.032
80.5249
78.0483
75.6187
73.1948
70.8097
68.4296
66.052
63.7344
61.4389
59.1288
56.8564
54.6018
52.36
50.1294
47.885
45.6632
43.4457
41.2514
39.0917
36.9154
34.75
32.624
30.5226
28.4307
26.3401
24.2752
22.2559
20.2602
18.2572
16.2539
14.2819
12.3499
10.4281
8.50526
6.61554
4.74695
2.84401
0.937514
117.915
100.443
98.3565
108.046
100.174
98.9714
99.5811
94.2327
90.6192
88.1089
85.5571
83.0227
80.5362
78.0591
75.6141
73.1943
70.8091
68.4377
66.0571
63.7259
61.4282
59.1291
56.8555
54.6093
52.3651
50.1297
47.892
45.6609
43.4471
41.2594
39.0871
36.9032
34.7431
32.6292
30.525
28.425
26.3455
24.2891
22.2575
20.2519
18.2499
16.2456
14.2781
12.3472
10.4238
8.50708
6.62206
4.74666
2.85046
0.946954
107.872
113.634
92.8733
98.9705
99.4548
98.9661
98.1105
93.2564
90.6569
88.0666
85.5234
82.999
80.521
78.0491
75.5899
73.1938
70.7998
68.4255
66.0728
63.7199
61.4187
59.1245
56.8529
54.6101
52.3628
50.1335
47.8936
45.6582
43.4596
41.2674
39.0824
36.9002
34.7477
32.6362
30.5234
28.4143
26.3448
24.2986
22.2632
20.2463
18.2454
16.2592
14.2913
12.3522
10.4231
8.50958
6.62059
4.73606
2.84835
0.950715
101.143
99.9104
101.536
100.078
99.9546
100.088
96.7347
93.0625
90.5396
88.0021
85.4826
82.9781
80.497
78.0303
75.5898
73.1861
70.7722
68.4044
66.0582
63.726
61.411
59.1187
56.8595
54.6071
52.3692
50.1335
47.8903
45.6581
43.4533
41.2655
39.0706
36.9008
34.7663
32.6419
30.5156
28.4039
26.3406
24.3051
22.268
20.245
18.244
16.2659
14.3047
12.3515
10.4185
8.51041
6.61336
4.72491
2.83779
0.951183
100.882
99.1294
97.3112
99.0073
98.433
99.2974
96.5808
92.9487
90.4523
87.9267
85.4336
82.9343
80.4488
78.0102
75.5764
73.1638
70.7656
68.3998
66.0536
63.7302
61.4126
59.1189
56.8618
54.5962
52.3576
50.13
47.8914
45.6598
43.4517
41.2674
39.074
36.9076
34.7814
32.6451
30.5041
28.3891
26.3284
24.2998
22.2711
20.2438
18.2449
16.2827
14.3238
12.3544
10.4126
8.5129
6.61262
4.71205
2.82292
0.942697
97.4597
100.304
96.5329
100.709
97.4606
100.285
96.5446
96.2609
96.7087
96.399
99.9191
96.2564
98.9107
96.3104
96.5565
100.313
98.6936
97.7373
96.4987
98.3713
98.6679
99.1022
102.459
99.9741
108.533
99.101
101.269
99.953
99.856
100.6
99.5579
102.281
99.864
100.334
99.53
99.4512
101.179
99.1468
99.9162
99.4277
99.8635
99.1524
99.3075
99.3966
99.2021
99.9958
99.3191
99.3713
99.2133
99.0507
99.9146
98.7959
99.0417
99.064
99.5834
98.7764
98.4321
101.06
97.4018
99.4264
98.2429
100.126
97.4217
97.4353
100.286
97.7061
99.3035
97.4322
100.274
97.71
97.4553
100.29
96.5243
100.671
97.4577
100.357
96.5354
96.2757
96.8316
96.2875
99.9278
96.176
97.0322
96.3114
96.481
98.9529
98.6646
98.1358
96.4557
98.0579
98.6766
99.0975
101.035
99.9265
101.94
99.1036
101.962
99.9098
99.8551
100.665
99.5795
100.88
99.8658
100.119
99.5535
99.4997
100.357
99.1597
99.9544
99.4246
99.1691
99.1594
99.3392
99.3738
99.2099
99.6383
99.3499
99.3502
99.2086
99.066
99.7266
98.7885
98.9958
99.0676
101.766
98.8262
98.1592
99.977
97.3989
99.2022
98.3532
99.8298
97.4243
97.4348
100.301
97.7103
99.2934
97.4313
100.287
97.7166
97.463
100.358
96.5438
100.649
97.4615
100.32
96.5386
96.187
97.2067
96.3387
102.765
96.2242
99.6842
96.4078
96.4575
98.0737
98.6775
98.2022
96.5297
98.1625
98.682
99.1066
102.154
99.8904
97.3941
99.1014
101.772
99.8789
99.8654
100.105
99.5826
101.278
99.8548
100.277
99.5791
99.4549
99.0699
99.1661
99.9705
99.4748
99.0897
99.1539
99.383
99.3351
99.2105
99.1436
99.3694
99.324
99.196
99.0663
100.378
98.8414
98.9513
99.0589
100.788
98.7939
98.3523
99.7838
97.4303
99.648
98.5771
99.7808
97.41
97.4353
100.278
97.7212
99.3065
97.4237
100.237
97.7131
101.995
110.08
100.109
109.883
102.158
106.848
100.259
99.2035
100.079
100.101
100.708
100.104
99.1938
100.109
94.7185
96.0796
94.5025
96.4089
94.7267
96.08
94.5108
99.2328
113.759
95.4729
100.569
104.349
113.863
95.2363
97.4514
98.544
96.0183
99.6611
98.3933
98.3125
97.2611
94.3195
95.8154
94.2504
95.5654
94.3272
95.8091
94.2581
102.87
99.1423
102.293
118.641
98.9269
99.8287
112.125
97.5312
96.9951
100.056
97.9456
97.0065
100.194
97.535
94.6174
98.1911
95.2312
96.1325
94.6257
98.0284
95.2387
118.361
106.827
105.342
109.437
102.157
106.945
104.822
101.095
100.209
116.72
104.911
99.2332
103.857
104.27
95.437
99.9986
95.6612
98.4949
95.4335
99.9398
95.668
101.835
101.399
100.468
103.774
99.9559
100.62
100.707
100.468
100.547
102.43
103.006
100.559
102.219
100.326
95.761
99.3281
95.964
99.7557
95.7695
99.3291
95.9726
100.569
102.266
105.01
97.3735
100.365
102.295
101.758
99.1732
100.051
99.4104
100.176
99.9876
99.6347
99.1538
96.127
99.1481
95.651
99.3297
96.139
99.1519
95.6594
99.8963
100.753
98.6429
99.5786
99.5652
99.7445
99.6331
99.4094
99.5722
99.7295
100.131
99.5933
99.4541
99.3982
95.684
98.5825
95.6444
99.6052
95.6969
98.5917
95.6413
98.4935
103.464
97.5226
99.0338
99.0333
98.8528
97.4408
99.0981
99.0824
100.2
99.0731
99.0605
99.3696
99.3471
95.6221
96.8447
95.2547
98.0779
95.6312
96.7799
95.2641
99.579
100.615
100.787
99.2569
99.1337
100.11
99.3026
99.9372
99.6519
101.459
99.7292
99.654
101.887
99.9195
95.0964
96.4934
94.9701
96.8087
95.1059
96.4925
94.979
99.9568
96.2987
100.712
98.8284
99.2866
95.8589
100.46
99.3551
99.2885
99.5038
99.3188
99.2516
99.5181
99.3146
94.912
96.6014
94.8662
96.5797
94.9206
96.6021
94.875
102.447
104.849
100.396
107.147
102.361
96.2357
99.9522
99.2385
100.128
100.111
100.682
99.2305
100.114
100.14
94.7255
96.0799
94.5096
96.4092
94.7254
96.0796
94.5095
93.6535
114.566
95.6519
94.0311
102.078
88.3081
96.6678
97.414
98.3679
103.225
99.4052
97.7922
98.1884
101.614
94.3258
95.8055
94.257
95.5569
94.3253
95.8199
94.2572
99.2464
99.8549
107.653
99.8671
97.2088
97.6317
105.606
97.7447
97.0127
100.662
97.9723
97.4636
96.998
100.426
94.6243
98.0134
95.2368
96.1338
94.6241
97.9914
95.2371
99.1462
106.026
109.216
100.275
106.936
105.784
106.43
102.319
101.151
104.101
97.7157
100.407
99.219
103.479
95.4312
100.276
95.6663
98.4812
95.432
100.024
95.6672
100.651
100.767
100.955
102.97
100.497
100.794
101.261
100.335
100.551
105.768
102.259
100.496
100.445
105.728
95.7676
99.3446
95.9673
99.7466
95.7672
99.3305
95.967
100.528
102.339
104.08
103.823
104.502
98.0074
102.562
99.0808
100.093
99.3428
100.224
99.0998
100.088
99.9993
96.1377
99.1741
95.6569
99.3356
96.138
99.1766
95.658
102.987
100.125
103.443
101.566
98.4064
99.9587
102.003
99.3994
99.7185
99.879
100.061
99.4919
99.5523
99.7787
95.6952
98.593
95.6391
99.5299
95.694
98.5903
95.6392
99.8897
99.1475
96.9217
99.6404
99.6644
99.56
105.796
101.526
99.1053
105.229
99.0057
102.354
99.0877
102.644
95.6299
96.7725
95.263
98.0934
95.6293
96.7674
95.2624
99.2019
99.6811
99.3251
100.08
101.253
99.8555
99.2993
99.409
99.6584
100.791
99.3161
99.6864
99.659
100.779
95.1053
96.4903
94.9779
96.7351
95.105
96.4881
94.9779
99.2194
96.1024
100.304
98.5649
99.1202
96.8325
100.183
99.3665
99.2609
99.5193
99.2818
99.3616
99.2803
99.5304
94.9194
96.6028
94.8738
96.5813
94.9192
96.6027
94.8739
102.36
97.912
100.578
117.607
102.362
102.188
100.911
99.2455
100.155
100.134
100.667
99.245
100.172
100.152
94.7264
96.0793
94.5105
96.4078
94.718
96.0793
94.5019
93.603
86.6274
94.4857
88.9035
93.2631
87.4123
96.8367
98.5002
98.2753
100.919
99.1811
97.8165
98.2912
101.054
94.3259
95.8161
94.2589
95.5668
94.3176
95.8151
94.2517
96.9241
98.1406
105.718
97.5658
96.6659
98.4783
105.561
97.6198
96.919
99.6148
98.0585
97.652
97.0399
99.4928
94.6257
98.0114
95.2391
96.1553
94.6176
98.145
95.2315
103.183
105.18
98.5953
101.326
104.161
105.413
104.931
104.865
99.653
106.324
97.6025
105.498
99.9566
107.086
95.4351
100.253
95.6698
98.4527
95.439
100.018
95.6608
108.813
100.1
100.812
108.46
105.491
103.869
100.95
100.304
100.414
102.558
101.196
100.289
100.424
102.607
95.7699
99.3239
95.9729
99.7436
95.7611
99.3226
95.9633
102.878
98.0684
95.3004
103.474
101.989
99.0799
95.4824
99.0366
100.031
102.059
99.9278
99.0566
100.042
99.5509
96.1397
99.1908
95.6613
99.3077
96.128
99.153
95.6516
98.9588
99.8573
99.5649
101.113
100.748
99.8599
99.2587
99.3838
99.5166
99.1874
99.1239
99.3733
99.4915
99.5006
95.6956
98.5911
95.6415
99.4468
95.6837
98.5821
95.6448
99.6083
98.7037
103.593
100.303
99.5386
99.3103
105.198
98.2007
99.4104
103.715
98.9444
98.2714
99.2425
94.8361
95.6301
96.7665
95.2628
98.226
95.6213
96.839
95.2532
100.164
98.7507
99.2883
101.336
100.639
96.4392
99.0499
99.7258
99.6161
100.178
99.3506
99.7043
99.6272
100.276
95.1054
96.4877
94.9791
96.7874
95.096
96.4893
94.9704
99.0337
97.2064
100.281
98.7666
99.1663
100.803
100.699
99.3372
99.3716
99.522
99.3012
99.3439
99.3436
99.5243
94.9202
96.6018
94.875
96.5799
94.9113
96.601
94.8664
98.3914
98.8235
97.1321
97.468
97.1414
98.452
98.7483
99.4139
100.291
98.8657
100.315
100.292
98.8837
99.4043
98.5889
96.9922
97.9106
96.5403
96.9988
97.8979
98.68
99.2133
100.71
100.123
100.101
100.096
99.2213
100.128
98.3716
97.4626
98.7295
97.1358
97.1369
98.3676
98.7297
99.422
100.296
100.307
99.0263
100.286
98.8742
99.4281
98.5608
96.5454
96.9917
97.8158
96.9929
97.8582
98.5425
97.5935
98.124
96.1678
96.2493
97.8355
96.1429
97.7304
96.7326
103.394
97.2341
96.8071
96.5871
97.2296
96.6845
96.7428
96.0786
97.6655
96.3767
96.0292
97.6314
96.6404
98.1592
99.7272
98.3773
93.5716
98.3901
95.2728
97.6608
98.5159
96.2372
97.8828
96.1161
97.837
96.0913
98.1007
96.8107
98.0359
97.2313
97.2319
96.9158
97.2244
96.7679
96.6768
96.3386
95.881
97.6921
95.9893
97.6515
96.5285
98.4157
98.1977
97.6863
96.5276
98.2251
97.6566
98.4103
98.7367
103.674
98.5005
102.455
120.548
98.1287
98.828
99.2235
98.3731
99.2558
98.6565
98.4048
99.2491
99.208
97.6105
100.434
97.01
99.9137
97.0217
100.377
97.4611
98.4205
96.5116
98.2236
97.7061
98.2308
97.6868
98.4074
98.7022
98.4132
100.692
98.1496
100.838
98.1155
98.6938
99.2595
98.6705
98.3678
99.2465
98.3887
99.244
99.2914
99.8059
99.4551
99.9357
99.1093
99.4468
99.9446
99.609
104.436
112.293
100.736
101.526
121.2
100.75
102.812
99.8179
99.5585
100.192
99.9864
99.5568
100.166
99.9667
102.124
110.083
99.7375
106.085
99.2393
104.789
102.278
99.8305
99.1063
99.3736
99.9288
99.4151
99.9417
99.9602
101.243
101.297
103.756
100.638
101.748
100.673
102.14
99.7812
99.9863
99.5381
100.181
99.5457
100.163
99.9808
100.107
100.237
99.7634
99.8524
100.239
99.7492
100.131
100.356
100.613
100.029
100.45
100.57
99.9312
100.418
99.832
99.5852
99.8151
99.5318
99.6034
99.8134
100.232
100.194
102.318
100.465
102.134
100.51
102.089
100.339
100.185
99.887
100.248
99.7748
100.249
99.7951
100.075
100.307
100.315
100.974
99.9156
100.85
99.9414
100.334
99.8225
99.5441
99.6143
99.819
99.6166
99.7963
99.827
99.5113
99.6571
99.1717
99.4306
99.6346
99.1621
99.4984
99.7254
99.7287
99.3542
100.056
98.6233
99.346
99.7345
98.8591
99.426
99.4166
99.1465
99.4251
99.3643
98.6499
99.1212
100.075
100.053
99.3332
99.9939
99.2896
99.1112
99.5052
99.4482
99.6402
99.1922
99.6419
99.2204
99.4851
99.7342
100.16
98.723
99.2656
98.7979
99.4406
99.8354
98.5208
99.1518
99.4184
99.349
99.4212
99.3638
99.2624
99.3501
99.4609
99.2106
99.302
99.4632
99.2149
99.3585
99.3442
99.8632
99.3822
99.3898
99.8627
99.3243
99.3471
99.4291
99.3478
99.3419
99.214
99.3697
99.3331
99.4329
99.3256
100.022
99.5337
100.323
99.5205
99.4793
99.3697
99.3723
99.2985
99.4538
99.2054
99.4624
99.2112
99.3715
99.3413
99.4133
99.8662
99.3421
99.8932
99.3346
99.345
99.4296
99.2153
99.3629
99.3205
99.3738
99.3243
99.4331
99.6082
99.2861
98.9227
99.0657
99.2864
98.955
99.6147
100.381
98.5371
100.103
99.6902
94.457
100.054
104.646
99.9064
98.5089
99.5597
98.7914
98.5267
99.5832
99.9177
101.153
99.1158
98.9753
106.807
99.2803
100.502
100.677
99.5974
99.0614
99.2851
98.9975
99.3089
98.9824
99.5902
100.502
99.7599
103.599
100.03
111.079
100.067
100.3
99.8756
98.7802
98.555
99.5821
98.5502
99.5924
99.8484
98.9911
99.0997
98.0204
98.3618
99.1148
97.787
98.9611
99.2664
100.505
99.313
100.447
100.424
99.333
99.2561
98.7076
97.6145
98.4382
97.4469
97.5266
98.4039
98.723
99.944
99.601
99.6538
100.799
99.6553
101.231
99.9497
99.0435
98.309
99.091
97.8816
99.1138
97.7771
99.0824
99.2843
100.328
99.8751
99.3221
100.156
99.4011
99.3005
98.7062
97.4529
97.5278
98.342
97.5182
98.4584
98.7111
98.4858
98.821
97.3869
97.4288
98.6985
97.3946
98.631
99.5942
99.7078
100.726
100.235
99.7197
99.5522
100.34
98.4645
97.3807
99.0187
97.7146
97.3897
98.5628
98.9329
99.371
99.341
99.2275
99.5138
99.3642
99.514
99.3604
98.4612
97.4181
98.6649
97.3889
98.8094
97.3889
98.456
99.6204
100.371
99.6992
100.332
99.714
99.611
100.475
98.4414
97.7099
97.3821
98.9669
97.3835
98.4327
98.9073
98.3638
98.7297
97.1315
97.4553
98.3634
97.1306
98.7341
99.4251
100.335
98.9975
100.312
99.4208
100.36
98.9748
98.5398
96.9854
97.7716
96.5184
98.5308
96.9834
97.7643
99.2431
100.67
100.155
100.119
100.106
99.2456
100.147
98.3639
97.4558
98.7346
97.1304
97.1303
98.3644
98.7344
99.4246
100.337
100.358
98.9686
100.369
98.9593
99.4177
98.5494
96.5247
96.9857
97.7556
96.9828
97.7593
98.5487
97.9066
97.8776
96.1729
96.236
98.681
97.62
96.0392
96.7783
98.1245
97.2339
96.8475
96.8122
98.6158
97.2409
96.8049
95.971
97.7065
96.269
96.7483
95.908
97.6964
97.8999
99.7791
98.2467
101.241
98.3431
101.485
97.688
97.5394
96.1767
97.9383
96.0355
97.977
95.962
97.7116
96.8338
96.9361
98.891
97.2264
98.7781
97.2239
96.8206
96.8311
96.2873
95.9347
97.6726
95.957
97.6984
96.7271
98.379
98.221
97.7056
96.471
98.3885
98.2168
97.6815
98.6084
100.595
98.1645
98.4707
98.6472
99.7719
98.1742
99.3757
98.369
99.247
98.6769
99.3288
98.4008
99.2455
97.5053
98.1016
96.8867
99.8585
96.9454
100.206
97.5445
98.3737
96.4612
98.1671
97.6553
98.1963
97.6672
98.3592
98.6781
98.2527
99.5794
98.3514
99.5324
98.2157
98.5263
99.4126
98.681
98.3601
99.2456
98.3944
99.2437
99.4014
99.9062
99.3526
99.9281
99.0975
99.8404
99.2627
99.9292
101.058
103.539
100.659
102.464
100.777
104.631
100.6
99.8679
99.5378
100.192
99.927
99.9954
99.5385
100.189
101.57
101.597
100.039
107.34
99.4481
102.401
101.98
99.6587
99.0998
99.24
99.8753
99.2263
99.9058
99.764
99.646
104.021
104.043
100.727
100.378
100.58
99.8807
99.9126
99.926
99.5225
100.236
99.5335
100.206
99.7971
100.092
100.218
99.7803
99.8568
100.075
100.223
99.7665
100.312
100.943
99.9307
100.291
100.3
101.09
99.955
99.8779
99.6628
99.7954
99.5562
99.8608
99.653
99.7972
100.229
104.068
100.415
102.446
100.475
102.499
100.259
100.105
99.8764
100.238
99.7762
100.306
99.807
100.092
100.334
100.174
100.682
99.9591
100.896
99.9581
100.38
99.909
99.5805
99.6597
99.8052
99.6753
99.8
99.9114
99.4949
99.6457
99.2249
99.4096
99.5029
99.6665
99.1989
99.6324
98.7829
99.2127
100.381
99.9575
99.2775
99.2346
100.108
99.4152
99.3416
99.1586
99.2363
99.4177
99.331
99.0698
100.335
100.092
99.3757
100.153
99.4923
99.058
99.4958
99.4564
99.6705
99.1917
99.6668
99.2192
99.4856
99.6424
101.122
99.5725
99.2586
99.8157
99.2583
99.7341
100.116
99.1594
99.4182
99.3174
99.4137
99.3269
100.087
99.3923
99.4617
99.207
99.3289
99.3836
99.4729
99.2159
99.3513
99.9218
99.3417
99.3508
99.3473
99.9111
99.339
99.4283
99.3587
99.3224
99.2071
99.4514
99.3644
99.3282
99.3577
102.146
99.5474
102.158
99.5733
100.826
99.3634
99.3998
99.3415
99.4683
99.2125
99.473
99.2195
99.4088
99.3835
99.3522
99.9351
99.3361
99.9244
99.3453
99.3673
99.4295
99.2073
99.3395
99.3333
99.3605
99.3308
99.4402
99.5337
99.2847
98.9995
99.0697
99.5739
99.2826
98.9933
107.242
103.938
99.9522
100.372
101.117
104.313
100.109
99.9113
98.5951
99.5748
98.8073
99.8539
98.6237
99.5872
102.281
99.0074
98.9031
99.2798
98.8996
104.368
98.6765
99.4895
99.0699
99.2771
98.9784
99.2795
98.9869
99.4555
100.091
99.2334
122.619
100.225
103.726
99.9318
100.275
99.7985
98.8198
98.558
99.5896
98.5548
99.6008
99.8688
98.379
98.9962
97.7615
98.1852
98.7336
99.0139
97.4532
99.3269
99.7586
99.3323
99.8974
99.3191
99.7752
99.343
98.6815
97.5159
98.3738
97.4079
98.7095
97.4994
98.3839
99.5283
99.2274
99.6261
100.245
99.6265
100.551
99.6576
98.6816
98.2966
99.1527
97.8885
99.1149
97.6501
99.0435
99.3256
99.8516
99.873
99.3145
99.8275
99.3379
99.3308
98.6735
97.4189
97.4888
98.3673
97.4889
98.3726
98.7201
98.4414
98.6444
97.3829
97.4287
98.4478
98.62
97.3813
99.5745
99.6884
100.295
100.309
99.5867
99.6779
100.298
98.4426
97.3769
98.9803
97.7143
98.4292
97.3759
98.9515
99.362
99.2878
99.3061
99.5204
99.2931
99.527
99.3563
98.432
97.4283
98.603
97.3815
98.6019
97.3806
98.4302
99.6019
100.287
99.6732
100.308
99.6593
99.6483
100.293
98.4373
97.7149
97.3793
98.9468
97.376
98.4285
98.9436
98.3697
98.7368
97.1343
97.4652
98.3661
97.1354
98.7391
99.4287
100.352
99.0078
100.352
99.4194
100.363
98.973
98.5507
96.9903
97.8078
96.5373
98.5509
96.993
97.8341
99.2377
100.661
100.119
100.196
100.199
99.2236
100.139
98.3884
97.4705
98.8317
97.1314
97.1403
98.4597
98.7586
99.4178
100.337
100.357
98.9572
100.364
98.9685
99.4117
98.5656
96.5397
96.9963
97.9134
97.0007
97.8615
98.6817
98.396
98.02
96.28
96.1807
97.8
98.0843
96.2177
96.8048
99.3717
97.2092
108.928
96.8403
107.179
97.2074
96.5379
95.9804
97.659
96.3559
96.5892
96.0315
97.6606
97.9549
99.3187
98.3262
101.443
98.2762
101.291
97.9057
97.7545
96.2045
98.0128
96.1456
98.0061
96.133
97.7596
96.8807
99.6066
100.077
97.3856
97.8859
97.2263
96.9607
96.6668
96.3825
96.0796
97.6187
96.0657
97.6473
96.6196
98.3744
98.1558
97.6386
96.4743
98.358
98.1626
97.6177
98.4854
99.6112
98.2653
98.1713
98.4949
99.6074
98.2581
99.427
98.3491
99.2451
98.6724
99.395
98.392
99.2417
97.6186
98.4451
97.0686
100.035
97.087
99.4524
97.629
98.3837
96.5014
98.1478
97.6848
98.1648
97.6301
98.3882
98.4193
98.0612
99.7397
98.2663
99.6104
98.233
98.604
99.4409
98.6592
98.3553
99.2387
98.3983
99.241
99.4037
98.9944
99.1489
99.8635
99.1056
101.366
99.5592
99.8789
99.8018
98.2464
100.59
101.855
99.7209
100.766
100.559
99.8225
99.5245
100.244
99.8982
99.9031
99.5404
100.251
103.655
97.0161
100.385
113.698
100.107
102.712
107.61
98.8761
99.1091
99.2218
99.8806
99.2184
99.8881
99.2066
101.686
101.535
99.4883
100.534
104.515
100.547
100.888
100.01
99.8979
99.5459
100.314
99.5509
100.25
99.902
100.076
100.226
99.8101
99.8544
100.112
100.225
99.7516
100.4
100.657
99.9861
100.186
100.341
100.636
99.943
99.9141
99.7014
99.8291
99.5481
99.9158
99.6364
99.8177
100.325
101.316
100.493
102.59
100.425
102.594
100.337
100.088
99.8523
100.225
99.7996
100.227
99.7536
100.254
100.398
100.147
102.041
100.063
100.693
99.9587
100.594
99.9326
99.5433
99.6741
99.8157
99.6303
99.8183
99.9277
99.4691
99.6691
99.2128
99.4345
99.4967
99.6685
99.1612
99.6005
98.6525
99.2282
98.9864
99.7371
98.694
99.2075
100.056
99.4224
99.3111
99.1529
100.056
99.4264
99.2944
99.0298
100.093
99.9535
99.7756
100.099
99.7446
99.0491
99.4787
99.4323
99.6697
99.1911
99.6706
99.1575
99.5495
99.6105
98.9558
98.7496
99.2556
98.6795
99.2262
99.6149
100.061
99.1529
99.4295
99.2892
99.4293
99.3312
100.054
99.4218
99.4805
99.2148
99.3533
99.4188
99.4873
99.223
99.3862
99.9753
99.3355
99.3059
99.4326
99.9095
99.3349
99.4393
99.3306
99.3341
99.2092
99.4375
99.3436
99.3324
99.3632
99.1545
99.6437
99.6162
99.4848
99.6184
99.396
99.4445
99.3675
99.5867
99.2332
99.4886
99.2338
99.4384
99.3947
99.3338
99.9928
99.3402
99.9401
99.3511
99.3927
99.457
99.2072
99.3403
99.3327
99.3509
99.3321
99.4482
99.4085
99.2771
98.9645
99.0587
99.4285
99.2752
98.9333
99.4384
95.4287
100.048
100.228
99.2758
96.8638
100.043
99.8268
98.3861
99.5925
98.8496
99.751
98.5267
99.613
98.2167
98.9352
99.1518
95.1424
99.0088
94.4685