/*--------------------------------*- C++ -*----------------------------------*\
| =========                 |                                                 |
| \\      /  F ield         | OpenFOAM: The Open Source CFD Toolbox           |
|  \\    /   O peration     | Version:  5.0                                   |
|   \\  /    A nd           | Web:      www.OpenFOAM.org                      |
|    \\/     M anipulation  |                                                 |
\*---------------------------------------------------------------------------*/
FoamFile
{
    version     2.0;
    format      ascii;
    class       surfaceScalarField;
    location    "1.2";
    object      phi;
}
// * * * * * * * * * * * * * * * * * * * * * * * * * * * * * * * * * * * * * //

dimensions      [0 3 -1 0 0 0 0];

internalField   nonuniform List<scalar> 
23728
(
-2.71541e-09
-3.15565e-11
4.66783e-09
4.05276e-10
-1.49216e-10
8.92817e-10
-1.5163e-09
4.28348e-10
-9.27113e-09
3.11267e-09
-3.03741e-09
3.80592e-09
-6.27724e-10
-1.53913e-11
1.14172e-09
1.63594e-09
3.58586e-09
-1.38023e-09
-8.67385e-10
4.14801e-10
-1.32442e-09
1.06107e-09
-3.19647e-09
1.71504e-09
1.47243e-09
1.47416e-09
2.22152e-09
-9.10965e-10
-1.54073e-09
4.42276e-10
-4.24741e-10
9.9475e-08
-1.85601e-07
1.09699e-07
-2.60412e-08
-4.10367e-10
1.13321e-10
3.07386e-12
3.17923e-10
-3.37451e-11
1.98128e-10
3.00696e-11
-1.09538e-11
-3.20737e-11
-6.55304e-11
-6.17713e-11
1.34251e-09
5.30899e-11
-3.47702e-11
-2.39787e-10
-2.34805e-10
-4.12001e-10
-4.02085e-10
1.3585e-09
2.60957e-11
-6.80107e-13
1.36941e-09
1.40255e-11
1.86653e-13
1.37581e-09
7.95711e-12
-1.03998e-13
1.38063e-09
4.81723e-12
-1.12891e-13
1.38397e-09
2.92214e-12
4.01431e-14
1.38533e-09
1.56442e-12
7.23524e-13
1.38605e-09
9.499e-13
3.51705e-14
1.38667e-09
-3.62677e-13
1.63036e-12
1.38725e-09
3.17304e-13
-1.83423e-14
1.38745e-09
1.4334e-13
-1.10462e-12
1.38773e-09
-5.51408e-13
5.10516e-13
1.38782e-09
-1.69627e-14
4.19962e-14
1.38802e-09
8.17461e-14
-4.98447e-13
1.38818e-09
3.69977e-13
-6.77513e-13
1.38791e-09
3.51763e-13
8.64263e-14
1.38789e-09
-1.62327e-13
2.21679e-13
1.38847e-09
-1.00042e-12
2.93361e-13
1.38823e-09
-1.23115e-12
-4.64587e-13
1.38837e-09
2.50438e-13
-2.49897e-13
1.38849e-09
9.5984e-14
-3.3544e-15
1.38831e-09
-3.85591e-13
-2.82412e-12
1.38867e-09
-1.86318e-13
-3.33509e-13
1.38781e-09
-1.00895e-12
3.90502e-12
1.38824e-09
-9.54368e-13
2.82284e-12
1.38809e-09
-4.11803e-13
1.78297e-13
1.38862e-09
5.27306e-15
-3.54809e-13
1.38823e-09
-1.74727e-14
-2.64266e-13
1.38818e-09
1.78668e-13
-1.08477e-14
1.38777e-09
4.71839e-13
3.72789e-15
1.38734e-09
8.66746e-13
-4.97115e-13
1.38972e-09
-4.49149e-12
1.44605e-12
1.38876e-09
6.07535e-13
1.03306e-13
1.3886e-09
1.08242e-13
3.75375e-14
1.38892e-09
-8.37075e-14
-1.79578e-13
1.38947e-09
2.08403e-12
-3.59439e-13
1.38804e-09
3.06823e-12
-1.66296e-12
1.38829e-09
-4.43181e-13
-3.45498e-13
1.38855e-09
1.88423e-13
-4.25062e-13
1.38872e-09
5.82329e-14
-3.03915e-14
1.38861e-09
2.91923e-14
1.76249e-13
1.38801e-09
-6.28085e-13
8.92096e-13
1.33362e-12
-1.22121e-12
-5.72227e-09
-6.20825e-09
1.20899e-08
3.02746e-09
3.11553e-10
1.42848e-10
-3.05358e-09
4.55757e-09
-3.41358e-09
3.13594e-10
-4.56696e-09
3.10938e-09
-4.22336e-10
-4.95167e-10
7.31084e-10
9.48078e-12
1.76911e-10
2.73225e-09
4.70538e-09
5.47735e-09
-5.74563e-10
-1.23404e-08
1.93822e-10
-2.01456e-09
4.68403e-10
-9.38045e-11
1.44614e-09
-3.23519e-11
-3.24105e-11
1.65303e-10
2.90381e-11
-2.83018e-11
-6.64996e-11
-4.89374e-11
2.9271e-12
3.59811e-12
4.5313e-12
3.10446e-12
1.29619e-09
-4.41232e-11
-2.55073e-11
-2.19081e-10
-2.15961e-10
-3.70729e-10
-3.67707e-10
1.33508e-09
-1.35088e-11
7.27032e-13
1.3579e-09
-8.97873e-12
1.91598e-13
1.37042e-09
-4.74199e-12
1.78449e-13
1.37728e-09
-2.11232e-12
8.49182e-14
1.38122e-09
-1.49767e-12
4.9741e-13
1.38392e-09
-1.09929e-12
-2.06174e-14
1.38553e-09
-6.43933e-13
-6.27779e-15
1.38606e-09
5.31974e-13
-1.41776e-12
1.38676e-09
5.58389e-14
-4.33624e-13
1.38753e-09
-6.50233e-13
3.68139e-14
1.38793e-09
-5.83944e-13
-3.51274e-13
1.38774e-09
1.06322e-13
7.45209e-14
1.38793e-09
-3.11117e-13
2.23036e-13
1.38758e-09
1.43592e-13
6.01472e-13
1.38828e-09
5.97229e-13
-9.26289e-13
1.38879e-09
6.20916e-13
-1.28257e-12
1.38852e-09
2.80384e-14
-7.44068e-13
1.38789e-09
6.05935e-14
-6.46407e-13
1.38837e-09
-2.43876e-13
2.3066e-14
1.3884e-09
1.07036e-13
-2.00698e-14
1.38763e-09
-4.99099e-13
8.91072e-13
1.38738e-09
3.90109e-14
3.23181e-14
1.38794e-09
3.23667e-13
-1.88293e-12
1.38809e-09
5.51103e-13
-1.64155e-12
1.38902e-09
-3.38364e-12
2.04578e-12
1.38924e-09
-2.53551e-12
2.33582e-12
1.38844e-09
8.56675e-13
-6.45475e-14
1.38859e-09
-1.14488e-13
1.4457e-13
1.38903e-09
2.26954e-13
-1.80274e-13
1.38938e-09
5.4563e-14
4.6258e-13
1.3872e-09
-1.11633e-12
-1.18852e-12
1.38776e-09
2.30674e-13
-1.77949e-13
1.38791e-09
-6.75926e-15
-2.70655e-14
1.38758e-09
2.62128e-13
-4.4972e-15
1.38825e-09
7.8003e-13
6.37283e-13
1.38965e-09
1.86873e-13
1.48339e-12
1.38895e-09
-3.14937e-13
5.81547e-13
1.38859e-09
-8.39311e-14
6.35453e-13
1.38845e-09
1.47407e-13
4.60122e-14
1.38829e-09
2.81311e-13
-8.77456e-14
1.38864e-09
8.39521e-14
-1.05533e-12
-1.80848e-13
1.26387e-12
7.33251e-10
2.62191e-09
-8.8956e-10
-2.44064e-09
-8.60969e-10
2.30405e-09
-3.33367e-10
1.47212e-09
-8.87099e-10
1.408e-09
-4.32846e-10
8.8192e-09
-3.43106e-08
-2.46817e-08
4.75002e-08
-8.41561e-10
-9.8613e-10
3.17478e-09
-1.45339e-09
1.06293e-10
1.99018e-09
-7.41632e-11
-1.50608e-09
-2.87414e-10
-7.08419e-10
1.65265e-11
4.23047e-10
2.03385e-09
8.54989e-10
-5.60427e-10
1.75973e-09
-2.46684e-10
-1.19646e-09
-2.49868e-09
3.50287e-11
1.14827e-09
5.50093e-10
2.81835e-10
-2.01523e-09
1.10979e-09
-1.02585e-09
6.35987e-10
-8.99484e-10
1.79557e-10
-3.23129e-11
4.31945e-12
-9.56895e-12
1.48921e-11
2.26703e-11
1.35733e-09
-1.89824e-11
-2.63353e-11
-2.30174e-10
-2.45486e-10
-3.80219e-10
-4.07931e-10
-2.22877e-11
-3.18783e-11
-3.81488e-11
1.35659e-09
-9.64742e-12
-3.07825e-12
1.3689e-09
-2.14335e-11
1.55817e-13
1.37474e-09
-1.03995e-11
-1.67245e-13
1.38005e-09
-7.7535e-12
3.45462e-13
1.38335e-09
-4.39019e-12
-3.89182e-13
1.38488e-09
-2.62088e-12
-2.28528e-15
1.38591e-09
-1.61571e-12
-5.15013e-14
1.38738e-09
-1.24936e-12
3.13258e-13
1.38782e-09
-7.26877e-13
3.50764e-13
1.38777e-09
1.32426e-13
-7.31453e-13
1.38704e-09
4.97683e-13
-3.34754e-13
1.38754e-09
-3.52931e-13
-3.31938e-14
1.38806e-09
-3.66101e-13
-4.44846e-13
1.38828e-09
-4.80318e-14
-3.61082e-15
1.38802e-09
-1.50438e-13
1.02892e-12
1.38763e-09
-3.31401e-14
1.05584e-12
1.38793e-09
-2.14945e-13
-3.46729e-14
1.38807e-09
-2.00631e-13
1.32595e-13
1.38786e-09
7.98273e-14
-1.05792e-13
1.3878e-09
-5.78526e-14
2.3904e-13
1.38815e-09
4.02315e-13
-1.23845e-12
1.3888e-09
9.74479e-13
-1.57656e-12
1.38864e-09
4.84905e-13
1.33304e-14
1.38957e-09
6.90408e-13
-1.06693e-12
1.38817e-09
1.04888e-14
-1.98464e-12
1.38793e-09
1.45093e-13
-2.43112e-12
1.38838e-09
5.10106e-13
-9.26495e-14
1.38858e-09
-1.77258e-13
-1.24603e-13
1.38868e-09
-5.01125e-14
1.76187e-13
1.38857e-09
-4.22661e-14
2.20414e-13
1.38811e-09
-3.05984e-13
-3.45248e-13
1.38806e-09
-1.68054e-13
4.5666e-13
1.38794e-09
2.00548e-13
-8.71414e-14
1.38774e-09
3.74986e-13
9.78144e-14
1.38776e-09
5.24073e-13
2.40988e-13
1.38963e-09
-1.75936e-12
8.45735e-14
1.38905e-09
4.899e-13
-2.24431e-13
1.38859e-09
2.35576e-13
1.45161e-13
1.38873e-09
5.96078e-14
-5.26468e-14
1.38836e-09
6.67837e-13
-1.74603e-14
1.38813e-09
2.70524e-13
4.86223e-14
-1.39096e-12
5.73217e-13
-9.431e-10
2.4966e-09
4.64716e-09
-2.42839e-09
-3.69114e-09
-2.78313e-09
2.89296e-09
-1.59211e-08
9.78938e-10
1.19347e-08
1.11302e-08
-8.12273e-09
1.18399e-08
1.19071e-10
-1.11756e-08
1.27283e-09
-1.04851e-09
-3.56048e-10
8.39658e-10
-1.49128e-09
2.87246e-10
-5.20807e-10
2.75756e-09
-2.36304e-09
-1.60956e-10
9.28611e-10
-8.8971e-10
5.90635e-10
-1.73117e-09
-2.10187e-09
-1.99878e-09
-2.16791e-09
1.9146e-09
1.69579e-09
1.43622e-09
2.34884e-09
3.4851e-11
2.33693e-10
-2.93812e-10
-3.11882e-11
-6.85275e-10
7.19113e-10
-7.24661e-10
7.22011e-10
-6.43667e-11
2.62352e-11
-1.51673e-11
-2.9369e-11
8.26678e-11
-1.90335e-10
1.94834e-10
-1.65539e-11
-6.92292e-12
1.3647e-09
-4.02936e-11
-2.19855e-11
-2.43985e-10
-2.51616e-10
-4.01578e-10
-4.14876e-10
1.37514e-09
-2.97539e-11
-2.07774e-12
1.3806e-09
-1.64106e-11
5.64815e-13
1.38316e-09
-9.96489e-12
-3.39682e-13
1.38511e-09
-6.27515e-12
-4.90926e-14
1.38628e-09
-3.79953e-12
2.38013e-14
1.38697e-09
-2.32237e-12
2.20966e-14
1.3873e-09
-1.43044e-12
-1.39975e-13
1.38752e-09
-9.19187e-13
-1.89241e-14
1.38757e-09
-7.06437e-13
7.95832e-13
1.38825e-09
-2.59914e-13
8.38577e-14
1.38813e-09
-2.70899e-13
4.58475e-14
1.38815e-09
-4.36126e-13
7.67414e-14
1.3883e-09
-1.58973e-13
-1.76881e-14
1.38801e-09
1.12452e-12
-9.65206e-13
1.38836e-09
5.84205e-14
-4.23267e-13
1.38805e-09
4.51772e-14
5.98447e-14
1.38804e-09
-1.01779e-13
-7.53671e-14
1.38819e-09
-1.61703e-14
-4.52092e-14
1.38839e-09
7.22829e-13
-9.68003e-13
1.38902e-09
1.27092e-12
-1.48186e-12
1.388e-09
5.32326e-13
1.46726e-12
1.38814e-09
4.7752e-13
-1.17848e-13
1.38804e-09
4.14358e-13
3.8306e-13
1.38815e-09
-9.38617e-14
9.70565e-15
1.38824e-09
1.18484e-13
-5.46768e-14
1.38858e-09
5.35535e-14
1.18636e-13
1.38845e-09
1.52827e-13
-1.87226e-13
1.38858e-09
-6.12903e-14
-1.12666e-13
1.3886e-09
-9.33677e-14
3.75388e-14
1.38825e-09
-3.87829e-13
4.43907e-13
1.38827e-09
-5.08538e-13
3.22879e-13
1.3885e-09
-1.91208e-13
1.68749e-13
1.38861e-09
1.36024e-13
1.2842e-13
1.38886e-09
5.76258e-13
-2.87593e-13
1.38806e-09
-1.36964e-12
4.08089e-13
1.38868e-09
2.79866e-13
-4.00623e-13
1.38894e-09
9.73501e-14
-1.19365e-13
1.38889e-09
1.32559e-12
-1.21813e-12
1.38767e-09
1.87355e-12
1.42723e-14
1.38804e-09
-4.49242e-14
-4.74571e-14
-1.81862e-12
5.65963e-13
9.49909e-10
7.70688e-10
5.40227e-09
-6.9319e-09
8.3978e-10
-1.06141e-09
-2.44681e-09
1.41392e-10
-2.28852e-11
7.5314e-10
3.68543e-10
-3.33378e-09
-2.29677e-08
6.45549e-09
2.12741e-08
3.42317e-09
1.37035e-09
2.55119e-10
-2.44629e-09
-2.60234e-09
1.02523e-10
4.58597e-10
-1.38202e-10
-3.73931e-10
-4.89877e-11
9.7075e-10
5.34363e-09
2.54445e-09
-1.30973e-09
-1.81688e-09
-1.58545e-09
-2.28123e-09
-1.86554e-09
2.72459e-10
-1.01873e-10
-9.90292e-11
-5.32937e-10
4.61379e-10
-1.02887e-10
-6.79351e-11
1.08134e-10
-6.98486e-11
1.32537e-10
-3.59304e-11
2.08717e-10
-1.54756e-11
-6.46037e-12
-3.54677e-11
-6.53038e-11
-6.45141e-11
1.44355e-11
1.40711e-09
-2.88057e-11
-2.43705e-11
-2.61844e-10
-2.65834e-10
-4.28233e-10
-4.38298e-10
1.39771e-09
-1.74448e-11
-2.88677e-12
1.39301e-09
-1.21574e-11
4.5808e-13
1.38996e-09
-6.86566e-12
-3.61718e-14
1.38989e-09
-6.76298e-12
5.80041e-13
1.38921e-09
-3.12343e-12
1.55394e-14
1.38853e-09
-2.16138e-12
5.24597e-13
1.38822e-09
-1.50883e-12
4.09939e-13
1.38813e-09
-8.35274e-13
1.15543e-14
1.38787e-09
-3.57773e-13
-7.30353e-14
1.38779e-09
1.43457e-13
-3.19002e-13
1.38847e-09
-1.33182e-12
4.0139e-13
1.38811e-09
-6.52894e-14
1.29459e-14
1.38818e-09
1.61417e-13
-3.77962e-13
1.38846e-09
1.6408e-13
7.01599e-13
1.38843e-09
-2.10332e-13
3.12536e-13
1.38842e-09
1.19316e-13
-4.29686e-14
1.38855e-09
-2.6676e-13
4.65904e-14
1.38859e-09
-2.30131e-14
-2.43871e-14
1.38865e-09
2.75918e-14
6.53368e-13
1.38783e-09
2.86678e-13
1.80979e-12
1.38792e-09
3.38872e-13
1.10893e-13
1.38865e-09
-2.04402e-15
-2.31682e-13
1.38807e-09
1.45108e-12
-4.46468e-13
1.3881e-09
1.19027e-13
-2.33704e-13
1.38825e-09
2.58212e-14
-4.81649e-14
1.38829e-09
-3.52187e-15
1.73804e-14
1.38822e-09
1.22092e-13
1.09137e-13
1.38823e-09
-7.04529e-14
1.06269e-14
1.38818e-09
4.25969e-14
-8.0682e-14
1.38834e-09
-1.54807e-13
-3.82008e-13
1.38869e-09
-1.23657e-13
-7.30352e-13
1.38839e-09
2.40783e-13
-1.30605e-13
1.3887e-09
5.86574e-13
-7.51579e-13
1.38896e-09
2.59342e-13
6.29842e-14
1.38816e-09
9.70694e-14
-6.62923e-13
1.38857e-09
-3.70896e-14
-8.90374e-14
1.38905e-09
-4.53464e-13
7.36325e-14
1.38916e-09
-1.36909e-12
2.59021e-12
1.38771e-09
3.51409e-12
-1.88896e-13
1.38795e-09
-7.57932e-13
4.75425e-13
-1.56885e-13
-8.70889e-13
-1.35133e-09
-3.10887e-09
-2.87184e-09
7.52301e-09
3.55058e-09
1.79546e-09
-2.4901e-09
-3.47374e-09
6.17797e-10
-1.13457e-09
1.74357e-09
-1.12168e-09
8.38457e-10
-8.66462e-09
1.20903e-08
1.05571e-08
-1.47014e-08
6.18405e-10
-4.82072e-10
2.55235e-10
3.04228e-09
1.0474e-10
9.1843e-09
1.86754e-09
3.04334e-10
-2.49531e-09
4.37825e-09
1.7638e-08
-2.82762e-08
-3.10404e-09
1.47063e-09
1.77754e-09
3.96348e-09
2.1928e-11
-1.14182e-09
-4.10298e-09
-4.63261e-09
-7.17626e-09
-9.34983e-10
-2.21722e-10
1.13752e-08
5.59267e-10
-5.67989e-10
1.48904e-10
-2.67848e-10
1.27666e-10
-1.58195e-10
-3.50407e-12
-6.04976e-12
-4.25918e-11
2.1034e-10
-4.07314e-11
2.19948e-10
-8.22384e-13
-6.31531e-12
7.24252e-12
-3.67694e-11
-7.5685e-11
-6.68675e-11
1.42386e-09
-7.39632e-12
-2.55789e-11
-2.68817e-10
-2.66998e-10
-4.42838e-10
-4.41028e-10
1.40987e-09
-2.6499e-13
-3.19465e-12
1.40059e-09
-3.2823e-12
4.17855e-13
1.39631e-09
-2.2814e-12
-2.95825e-13
1.39226e-09
-2.01237e-12
-6.88877e-13
1.39047e-09
-1.27821e-12
-3.9181e-14
1.38959e-09
-7.4095e-13
-5.21851e-13
1.38902e-09
-4.42345e-13
-4.85364e-13
1.38855e-09
-3.53779e-13
1.03306e-14
1.38872e-09
-1.84231e-13
-3.25365e-13
1.38874e-09
-2.89509e-13
4.30122e-13
1.38806e-09
-2.43778e-14
-6.04107e-13
1.38862e-09
-3.06683e-12
2.45692e-12
1.38835e-09
8.23917e-14
3.69929e-13
1.38836e-09
1.34406e-13
2.95127e-14
1.38816e-09
-5.26496e-14
5.57525e-14
1.38818e-09
6.20797e-13
-5.005e-13
1.38863e-09
5.78479e-13
-1.28836e-12
1.38879e-09
-1.25249e-13
-4.04996e-14
1.3887e-09
1.82152e-13
-5.62118e-14
1.38842e-09
8.1873e-13
-2.40603e-13
1.38733e-09
3.75604e-12
-2.31829e-12
1.38767e-09
-5.15745e-13
1.88106e-13
1.38858e-09
-8.34432e-13
1.3796e-12
1.38847e-09
1.83487e-13
5.71104e-14
1.38832e-09
1.78987e-13
4.05863e-15
1.3882e-09
6.69349e-13
-5.41022e-13
1.38829e-09
3.90315e-14
3.15912e-15
1.38833e-09
1.67647e-14
-1.18312e-13
1.38823e-09
2.2483e-13
-7.91001e-14
1.38826e-09
-6.41537e-13
4.66357e-13
1.38884e-09
-8.93087e-13
1.93684e-13
1.38863e-09
2.69355e-13
1.90404e-13
1.38845e-09
4.71358e-13
2.95147e-13
1.38852e-09
2.60512e-13
-6.06633e-14
1.388e-09
2.80935e-13
3.40086e-13
1.38791e-09
1.46427e-14
3.78844e-14
1.38768e-09
-1.38422e-13
-7.89107e-14
1.38767e-09
1.2584e-12
-2.61506e-12
1.38983e-09
1.11183e-12
2.44465e-13
1.38927e-09
-6.78624e-13
4.84197e-13
-8.61245e-13
1.90685e-12
-1.42624e-09
4.4156e-09
-6.05352e-10
-2.19303e-09
-6.57161e-11
-2.4608e-10
-2.7468e-09
-1.54508e-09
4.60366e-09
-2.03941e-10
1.53609e-10
-1.19404e-10
7.52247e-10
-5.82512e-10
2.48758e-09
8.43637e-09
1.79069e-08
2.74709e-09
1.29677e-09
1.40574e-09
2.80207e-10
-6.32023e-10
-1.26878e-09
5.80453e-10
-2.65696e-08
1.40353e-09
-7.96838e-09
-1.92611e-09
3.76126e-10
2.67214e-09
1.36541e-09
4.66194e-10
1.70108e-10
9.59946e-11
1.08808e-10
-8.41103e-10
-8.48848e-11
5.61845e-11
-2.58647e-11
-9.92819e-11
1.53847e-10
-3.69659e-11
-9.20019e-13
1.9527e-10
3.5423e-12
8.20843e-12
-3.57303e-11
-6.79481e-11
-6.54566e-11
1.40692e-09
-1.92958e-11
-2.54981e-11
-2.60203e-10
-2.54226e-10
-4.3168e-10
-4.23419e-10
1.40441e-09
3.95752e-12
-1.73046e-12
1.39978e-09
7.6212e-13
5.86375e-13
1.39608e-09
1.35128e-12
7.27829e-14
1.39335e-09
6.88893e-13
4.68754e-14
1.39163e-09
4.31711e-13
3.01924e-14
1.38975e-09
1.4189e-12
-2.63329e-13
1.38928e-09
6.67245e-14
-8.87624e-15
1.38894e-09
-1.00758e-14
1.40201e-14
1.38833e-09
5.21165e-13
-7.07347e-14
1.38887e-09
-8.39344e-13
3.80312e-14
1.38877e-09
-2.12988e-13
3.11667e-13
1.38814e-09
-1.50617e-14
-2.41008e-12
1.38832e-09
-1.58605e-13
8.12027e-14
1.38833e-09
2.1628e-13
-8.53506e-14
1.38836e-09
-2.42589e-14
-3.54943e-14
1.38833e-09
2.8715e-13
3.714e-13
1.38803e-09
-3.93207e-13
1.28858e-12
1.38831e-09
-4.83444e-13
8.22468e-14
1.38882e-09
-3.72517e-13
6.39589e-14
1.38703e-09
5.94565e-12
-3.32693e-12
1.3883e-09
6.88196e-13
1.80363e-12
1.3886e-09
-7.78579e-13
-1.88158e-14
1.38829e-09
-1.75342e-13
-3.39954e-13
1.38834e-09
5.73708e-14
8.44005e-14
1.38838e-09
7.96581e-14
6.26578e-14
1.38855e-09
-5.78342e-14
5.70891e-13
1.38851e-09
1.28881e-13
-4.08893e-14
1.38837e-09
3.51602e-14
1.26413e-13
1.38855e-09
2.58367e-14
2.6709e-14
1.38838e-09
7.90952e-15
-4.74315e-13
1.38868e-09
-1.49501e-12
3.05689e-13
1.38921e-09
-2.97561e-13
4.28174e-14
1.38795e-09
2.07315e-12
-3.31697e-13
1.3881e-09
-6.63055e-13
7.77305e-13
1.38781e-09
3.85859e-13
1.86209e-13
1.38793e-09
-3.32689e-13
2.39416e-13
1.38779e-09
-8.9427e-15
1.01813e-14
1.38825e-09
-8.41505e-13
1.64323e-12
1.38865e-09
6.72312e-13
4.50552e-14
1.38898e-09
-6.62384e-14
-9.42927e-13
-1.44086e-13
-1.44725e-12
3.78371e-09
9.63258e-09
-1.32318e-08
-2.78278e-09
5.87066e-09
-7.96184e-10
-3.2642e-09
-5.07977e-09
-2.66178e-09
-4.51804e-09
1.93726e-08
-1.37995e-08
8.86359e-09
-6.0047e-10
2.19764e-10
5.6008e-10
5.02715e-09
-6.28528e-10
-4.10399e-10
-3.83918e-10
4.94362e-09
3.35711e-10
-6.10695e-09
6.47897e-10
-2.30438e-09
7.41393e-10
1.04705e-09
6.95672e-10
-5.70432e-09
2.79782e-09
-1.52668e-10
2.36331e-09
-2.97465e-10
4.56986e-09
-1.08934e-09
-7.12796e-10
5.03923e-09
1.62272e-09
4.04497e-10
-3.60725e-09
-6.8808e-10
-1.81345e-09
-1.79383e-10
-1.6485e-10
8.2954e-11
2.31757e-10
2.95211e-11
-1.9174e-10
-9.7192e-12
1.91289e-11
1.29436e-10
5.28939e-11
1.45438e-09
4.36436e-11
-3.17485e-11
-2.67679e-10
-2.59879e-10
-4.51326e-10
-4.37876e-10
-7.11929e-12
-1.17915e-11
-1.04939e-11
-2.01111e-11
1.42032e-09
1.67492e-11
-2.01858e-12
1.4094e-09
1.51794e-11
-3.15185e-13
1.40108e-09
9.23237e-12
-1.49e-13
1.39626e-09
6.36263e-12
-1.75768e-13
1.39294e-09
4.09123e-12
-7.35322e-14
1.39088e-09
2.60706e-12
-8.93952e-14
1.3903e-09
1.8048e-12
2.18771e-13
1.38925e-09
1.16233e-12
-1.21743e-14
1.38883e-09
-8.87303e-13
1.32459e-12
1.38842e-09
5.40731e-13
4.20125e-13
1.38856e-09
-3.57161e-12
2.61656e-12
1.38863e-09
-3.68515e-14
-2.22195e-13
1.38859e-09
-1.09649e-14
4.94029e-14
1.38852e-09
1.0199e-13
-1.73479e-13
1.38832e-09
1.11043e-12
-6.84071e-13
1.38864e-09
-3.57356e-13
1.82406e-14
1.38764e-09
-1.37376e-12
2.67729e-12
1.38791e-09
-4.95521e-13
-1.55528e-13
1.38768e-09
7.01982e-15
-2.46855e-13
1.38682e-09
5.37201e-13
-3.44913e-14
1.38873e-09
6.21142e-13
3.42268e-12
1.38876e-09
7.24133e-13
-5.35615e-14
1.38918e-09
-3.28128e-12
2.0906e-12
1.38886e-09
1.48068e-13
1.15345e-14
1.38823e-09
9.20659e-13
-2.28088e-13
1.38833e-09
-1.58603e-13
1.48905e-13
1.38847e-09
5.2931e-15
-1.96672e-13
1.38857e-09
-2.93118e-13
3.26544e-13
1.38858e-09
-3.55176e-13
3.93991e-13
1.38823e-09
5.90054e-13
-2.13084e-13
1.38863e-09
-3.36572e-13
-4.66924e-14
1.38814e-09
-4.1658e-13
-5.8075e-13
1.38765e-09
6.77108e-14
1.30672e-13
1.38865e-09
7.56786e-13
3.2588e-13
1.38822e-09
2.08551e-13
-4.38562e-13
1.38854e-09
2.86742e-13
-2.19144e-13
1.38823e-09
1.40133e-13
-1.60551e-13
1.38773e-09
4.6983e-13
3.1134e-14
1.38832e-09
-1.26707e-12
-1.60935e-13
1.38823e-09
5.37426e-13
2.27559e-13
1.38939e-09
-2.68936e-12
1.4606e-12
-2.48197e-13
-4.47926e-13
-8.50038e-09
2.365e-09
1.71569e-08
-9.8335e-09
4.15509e-09
2.86254e-09
-1.05051e-09
-2.33557e-09
3.34344e-10
-2.63262e-09
1.70035e-09
4.64873e-09
1.1437e-08
-1.05999e-08
-2.12669e-08
1.15377e-08
-2.75212e-09
-6.01386e-10
-2.10488e-09
-1.83509e-09
2.501e-09
1.40705e-09
1.34228e-08
3.70155e-09
4.76947e-09
3.14554e-09
-6.53159e-09
-3.34753e-08
1.48745e-08
-1.00803e-10
1.38451e-09
-5.94587e-10
2.61879e-09
3.66694e-09
-8.44253e-10
-2.94045e-09
-5.24816e-11
-3.38838e-10
-2.28524e-10
7.23998e-10
-1.04155e-10
-5.01103e-11
1.35941e-13
-1.22332e-12
2.09247e-11
3.0273e-11
1.42245e-09
4.81867e-11
-3.45263e-11
-2.57807e-10
-2.55636e-10
-4.41891e-10
-4.37144e-10
1.40674e-09
3.25732e-11
-1.47162e-13
1.39986e-09
2.19547e-11
1.09341e-13
1.39511e-09
1.39801e-11
1.10598e-14
1.3923e-09
9.19437e-12
-1.57599e-14
1.39053e-09
5.90992e-12
-3.2892e-14
1.38956e-09
3.63108e-12
-3.20793e-14
1.38905e-09
2.30339e-12
3.39352e-14
1.3889e-09
1.58884e-12
-2.49196e-13
1.38856e-09
8.64535e-13
-1.37761e-12
1.38879e-09
5.61053e-13
-2.23345e-13
1.38791e-09
2.8651e-14
-2.69169e-12
1.38783e-09
1.52181e-13
-8.69711e-14
1.38783e-09
1.20682e-13
-1.22789e-13
1.38792e-09
2.19283e-14
1.08885e-14
1.38815e-09
1.05421e-13
7.82259e-13
1.38767e-09
1.87161e-13
-5.0336e-14
1.38865e-09
2.29146e-13
-2.57542e-12
1.38862e-09
-5.37727e-13
8.50096e-14
1.38798e-09
-5.44213e-13
1.20253e-12
1.38854e-09
-5.909e-14
5.61308e-14
1.38889e-09
1.54521e-13
1.26465e-13
1.38891e-09
1.32455e-14
6.99311e-13
1.3879e-09
-2.14488e-13
-2.04215e-12
1.38799e-09
2.18701e-13
-1.57858e-13
1.38865e-09
1.16727e-12
-8.98186e-13
1.38826e-09
1.19348e-13
1.26966e-13
1.38821e-09
1.06549e-14
5.12029e-14
1.38814e-09
1.10842e-13
-3.23622e-13
1.38816e-09
1.54527e-14
-3.85953e-13
1.38884e-09
-3.63755e-13
2.83431e-13
1.38843e-09
7.6722e-13
-6.89923e-13
1.38851e-09
-4.17326e-13
-6.6359e-14
1.38892e-09
-3.71311e-13
2.75085e-14
1.38845e-09
2.49305e-12
-1.25995e-12
1.38805e-09
1.00796e-12
-3.95095e-13
1.388e-09
2.76286e-13
6.32114e-14
1.38861e-09
-7.8694e-13
3.27798e-13
1.38895e-09
-6.62958e-14
1.93427e-13
1.38795e-09
-1.87621e-13
-7.07146e-14
1.38808e-09
5.4215e-13
-1.37419e-13
1.38828e-09
1.09716e-12
-3.98112e-12
-1.19238e-12
-1.71521e-13
1.08027e-09
9.92894e-10
7.90901e-09
5.89969e-10
-3.70765e-10
2.26752e-09
-1.92768e-10
-1.33273e-09
9.18448e-10
8.89548e-10
-7.52213e-10
8.9868e-10
9.89282e-10
-1.126e-09
-7.58797e-10
1.26535e-10
3.12298e-10
2.78784e-10
-1.79805e-11
1.95865e-10
2.86649e-10
-4.56529e-11
1.9799e-10
-7.97773e-11
-3.59209e-10
-3.37775e-11
-4.84384e-12
2.11206e-10
1.15345e-11
-1.96948e-11
-3.38508e-11
-6.58349e-11
-6.47402e-11
1.39869e-09
-3.67624e-11
-2.5421e-10
-2.54704e-10
-4.3863e-10
-4.38398e-10
1.39033e-09
-5.35361e-13
1.38743e-09
-2.80718e-13
1.38722e-09
-5.21456e-14
1.3868e-09
1.07284e-13
1.38656e-09
-1.11657e-13
1.38721e-09
-6.22245e-13
1.38797e-09
-1.20337e-13
1.38776e-09
-3.43601e-14
1.38778e-09
1.49356e-14
1.38807e-09
1.07713e-12
1.38788e-09
2.50024e-14
1.38803e-09
-7.03947e-14
1.38779e-09
6.1691e-13
1.38795e-09
5.08442e-14
1.38791e-09
9.36776e-15
1.38803e-09
6.14742e-14
1.388e-09
4.3152e-13
1.38838e-09
1.03428e-12
1.3884e-09
-6.74008e-13
1.38813e-09
3.60819e-14
1.3889e-09
2.79687e-12
1.38892e-09
1.85066e-13
1.38863e-09
-1.9424e-12
1.38774e-09
-1.17201e-12
1.38821e-09
1.11572e-12
1.38799e-09
1.69523e-13
1.38832e-09
3.82914e-13
1.38828e-09
4.74159e-14
1.38826e-09
-1.68196e-14
1.38811e-09
-1.36285e-13
1.38882e-09
7.48927e-13
1.38852e-09
1.4852e-13
1.38839e-09
-2.22649e-13
1.3894e-09
1.43538e-12
1.3883e-09
-1.43011e-13
1.3886e-09
7.49509e-15
1.38838e-09
-1.59046e-14
1.38868e-09
-3.86846e-13
1.38855e-09
-2.52117e-13
1.38922e-09
-2.11273e-13
1.38799e-09
2.66609e-12
2.25655e-13
8.6546e-09
-2.68675e-09
5.6445e-09
-7.36381e-10
-2.77643e-09
-1.82894e-09
-2.66396e-09
-1.43427e-10
8.78396e-09
-2.42013e-09
-8.86296e-10
1.59165e-10
5.38153e-11
4.13646e-10
-4.03646e-10
3.11757e-09
1.33362e-09
-9.69505e-09
3.00934e-09
-1.67933e-09
7.45045e-10
3.1086e-09
-3.94692e-09
1.91406e-09
1.90349e-07
-4.08061e-10
-7.67114e-10
8.35099e-10
-1.90865e-07
-1.71682e-09
-3.63058e-10
1.43217e-10
6.72061e-12
1.91949e-09
-1.517e-10
9.44364e-12
5.77247e-10
8.74018e-11
1.10344e-12
-1.43738e-10
-1.57934e-10
-1.49411e-10
2.23836e-09
7.7121e-11
3.49949e-11
-5.73346e-10
-5.60724e-10
-5.73346e-10
-5.6072e-10
2.26486e-09
3.84482e-11
5.45817e-13
2.28345e-09
2.10005e-11
5.97038e-14
2.29389e-09
1.21088e-11
-7.08042e-14
2.30187e-09
7.36012e-12
-4.63889e-13
2.30736e-09
4.48554e-12
-4.68737e-13
2.30938e-09
2.48257e-12
-6.94863e-13
2.31056e-09
1.50303e-12
1.33765e-13
2.3116e-09
5.88171e-13
2.38455e-12
2.31245e-09
5.41077e-13
-2.09131e-14
2.31279e-09
3.70874e-14
-3.16282e-13
2.31313e-09
1.04312e-12
-3.99397e-13
2.3134e-09
1.90962e-14
-1.26709e-13
2.31371e-09
2.43733e-13
4.74323e-13
2.31369e-09
-1.46638e-12
5.0067e-13
2.31346e-09
6.24327e-13
-9.76053e-14
2.3135e-09
5.21886e-13
-1.95727e-13
2.31418e-09
1.03838e-12
-7.27926e-13
2.31384e-09
-1.87287e-12
-3.04555e-13
2.31432e-09
5.02723e-13
-1.19579e-13
2.31453e-09
1.30661e-13
-1.01921e-14
2.31391e-09
-6.48265e-13
-7.02027e-13
2.31433e-09
-4.94277e-13
2.11789e-13
2.31321e-09
5.82706e-12
-1.53185e-12
2.31357e-09
4.35491e-12
-3.00494e-12
2.31376e-09
-5.02227e-13
-2.64402e-13
2.31468e-09
1.29283e-13
-3.64075e-13
2.31403e-09
1.11023e-13
2.0753e-13
2.31383e-09
3.65291e-13
1.36602e-14
2.31311e-09
7.97191e-13
4.83582e-14
2.31259e-09
-1.07055e-12
1.06891e-12
2.31588e-09
-6.9007e-13
-1.95737e-12
2.31478e-09
9.98625e-13
6.7379e-15
2.31446e-09
2.83763e-13
4.81393e-14
2.31496e-09
-1.30822e-13
-5.04152e-14
2.31586e-09
1.46675e-12
1.17495e-13
2.31358e-09
3.52924e-12
-2.94258e-12
2.3141e-09
-7.02407e-13
-2.09445e-13
2.31422e-09
-1.8155e-12
4.8313e-13
2.3146e-09
-2.11971e-13
-7.70787e-14
2.31446e-09
3.41922e-14
2.06425e-13
2.31335e-09
7.40356e-13
1.01529e-12
-6.17529e-13
-4.69903e-13
-2.75321e-09
-5.30401e-09
2.75471e-08
-2.1569e-08
1.71796e-09
-3.39021e-10
-6.81766e-10
-8.17049e-09
7.32982e-09
-7.95115e-09
-4.12046e-10
-5.20842e-09
3.24636e-09
9.31299e-09
1.01226e-09
2.15756e-10
-8.81186e-11
-4.06524e-09
-3.29143e-09
8.76157e-09
-1.53259e-09
1.68065e-08
-1.21039e-09
-5.37658e-09
3.50861e-09
-5.90626e-11
-1.36691e-08
-5.01455e-09
-3.46739e-10
2.5531e-10
-1.60631e-10
9.21656e-10
4.34495e-09
-1.29618e-10
-8.95241e-11
-8.74001e-11
4.90588e-10
7.28404e-11
-9.29887e-11
-1.19077e-10
-8.38474e-11
8.4227e-12
8.46177e-12
1.12206e-11
1.09234e-11
2.17085e-09
-7.12799e-11
2.55851e-11
-5.19897e-10
-5.16892e-10
-5.19828e-10
-5.16905e-10
2.22951e-09
-1.86042e-11
-8.6119e-13
2.26594e-09
-1.50067e-11
-2.10434e-13
2.28566e-09
-7.25024e-12
-1.7588e-13
2.29667e-09
-3.42921e-12
-1.02586e-13
2.303e-09
-8.70486e-13
-4.39275e-13
2.30721e-09
-1.74709e-12
1.94505e-14
2.3098e-09
-1.0631e-12
-6.98834e-15
2.31059e-09
5.44696e-13
-2.14925e-12
2.31178e-09
-9.37673e-13
-1.23016e-13
2.3129e-09
-8.44396e-13
-1.8528e-13
2.31342e-09
-9.53868e-14
3.03502e-13
2.31325e-09
2.88582e-13
1.21254e-14
2.3135e-09
5.82052e-14
2.00738e-13
2.31291e-09
3.02113e-13
-5.30907e-13
2.31396e-09
-2.10592e-12
7.97763e-13
2.31495e-09
-2.8938e-12
1.17101e-12
2.31439e-09
1.80288e-13
7.05397e-13
2.31343e-09
-2.4666e-13
-1.28067e-12
2.31395e-09
-4.90792e-14
8.57402e-14
2.31407e-09
1.27611e-14
-3.2763e-15
2.31267e-09
2.98048e-12
-1.31085e-12
2.31238e-09
-1.40064e-13
-1.16354e-14
2.31358e-09
6.22138e-13
2.14736e-12
2.3138e-09
8.50252e-13
1.6678e-12
2.31517e-09
-2.54235e-12
2.72965e-12
2.31555e-09
1.20382e-12
9.08622e-13
2.31434e-09
1.06204e-12
2.14324e-13
2.3144e-09
6.3154e-13
-1.73068e-13
2.3151e-09
-1.25156e-13
6.54011e-14
2.3155e-09
-4.29091e-13
-5.63605e-13
2.31245e-09
-9.17329e-13
2.09764e-12
2.31304e-09
4.35102e-13
-1.88188e-13
2.31321e-09
4.23511e-14
5.57695e-14
2.3128e-09
3.2765e-13
-3.24489e-14
2.31392e-09
1.18282e-12
-1.96199e-13
2.31594e-09
-4.29204e-15
3.00599e-12
2.31497e-09
1.39892e-12
-5.42101e-13
2.31456e-09
-9.70742e-14
-6.58264e-13
2.31416e-09
2.78121e-13
-4.37038e-14
2.31393e-09
4.21478e-13
-2.39757e-13
2.31442e-09
1.05212e-13
-9.11703e-13
-2.79787e-13
2.43711e-13
7.57184e-09
3.43707e-09
-2.20067e-09
-7.84031e-09
-8.21452e-10
3.89099e-09
-6.0565e-10
1.27297e-09
-4.64599e-09
2.33082e-09
1.41671e-09
1.28114e-09
-7.89829e-10
-1.43937e-09
-1.32557e-09
-2.24071e-09
-6.90547e-09
-5.48243e-08
4.09548e-08
2.16271e-08
-5.96648e-09
5.81027e-09
-2.28165e-09
1.14654e-08
-7.23511e-09
-1.79243e-09
3.2725e-09
-2.73522e-09
1.23776e-08
-5.63156e-09
-2.65281e-09
1.3765e-09
1.32057e-09
1.68572e-09
1.24724e-09
-2.48819e-09
-6.67661e-09
-1.09578e-09
3.87516e-09
-2.43026e-09
-4.88295e-09
1.61882e-09
6.77403e-10
1.14183e-09
-1.21799e-09
-8.09409e-10
5.71116e-10
-6.64952e-10
8.11126e-10
1.31011e-09
-9.44363e-11
-9.13719e-12
2.03985e-11
-2.69023e-11
-6.55389e-12
1.16631e-10
2.27606e-09
-4.25775e-11
2.58824e-11
-5.35776e-10
-5.70628e-10
-5.35831e-10
-5.70654e-10
-5.07091e-11
-4.25759e-11
-5.07198e-11
2.26548e-09
-1.45647e-11
3.53805e-12
2.28431e-09
-3.34411e-11
-2.04818e-13
2.29311e-09
-1.62339e-11
4.27319e-14
2.30123e-09
-1.08394e-11
-3.32677e-13
2.30633e-09
-6.58916e-12
2.54653e-13
2.30875e-09
-4.18787e-12
3.68483e-14
2.31033e-09
-2.6222e-12
-5.27867e-14
2.31267e-09
-1.54062e-12
6.31404e-14
2.3133e-09
-1.26004e-12
5.74895e-14
2.31337e-09
-1.42493e-12
-2.0563e-13
2.3122e-09
4.33853e-13
3.36632e-13
2.31313e-09
-6.22335e-13
-1.41478e-14
2.31366e-09
-6.48296e-13
-2.25043e-13
2.3142e-09
-1.91521e-13
-3.5169e-15
2.31359e-09
5.25988e-13
-9.51987e-13
2.31293e-09
-3.99805e-14
-1.10083e-12
2.31332e-09
-2.77941e-13
7.1903e-14
2.31356e-09
-2.12066e-13
-1.17119e-13
2.3131e-09
2.52465e-13
8.02115e-14
2.31286e-09
7.78658e-13
-2.60175e-13
2.31389e-09
-4.84534e-13
1.21783e-12
2.31481e-09
-4.21589e-12
1.60173e-12
2.31459e-09
1.02312e-12
-1.40992e-13
2.31623e-09
-2.69948e-12
8.58833e-13
2.31408e-09
2.53785e-13
-2.61022e-12
2.31334e-09
3.05326e-13
-7.67394e-13
2.31402e-09
3.93253e-13
-8.84638e-14
2.31448e-09
-1.23694e-13
1.84877e-13
2.31455e-09
1.66022e-13
-1.60232e-13
2.31443e-09
-3.65235e-14
-3.59218e-14
2.31371e-09
-5.11322e-13
-2.17558e-14
2.31333e-09
1.72236e-12
-4.3464e-13
2.31309e-09
1.76056e-13
3.37951e-14
2.31299e-09
6.46196e-13
-1.08003e-13
2.31353e-09
1.05973e-12
-1.67212e-13
2.31592e-09
-2.43828e-12
1.38206e-13
2.3152e-09
1.68161e-12
2.19419e-13
2.31463e-09
7.48435e-13
-1.18861e-13
2.31452e-09
4.11204e-13
-7.60981e-14
2.31388e-09
9.95328e-13
5.51569e-14
2.31365e-09
4.47563e-13
-5.88417e-14
-2.09248e-12
1.15361e-12
3.81666e-09
2.08318e-08
1.00129e-09
1.80511e-10
-2.56821e-08
2.88394e-09
9.90345e-09
-9.44991e-10
-5.82408e-09
7.03394e-10
-6.72107e-09
-2.52637e-09
2.25884e-08
3.431e-09
3.28701e-09
3.30956e-09
5.10983e-11
1.56158e-09
3.04991e-09
-1.11346e-08
-1.48867e-08
-1.99057e-08
1.62652e-08
-1.00938e-09
-3.30415e-09
-7.78213e-10
1.16419e-09
-4.62899e-09
1.15541e-09
-1.57321e-09
4.68748e-09
-8.04849e-10
2.35787e-09
4.48589e-10
4.1209e-09
2.12299e-09
-9.33982e-09
-1.29858e-09
-3.67518e-10
2.03427e-10
-5.58933e-10
6.15915e-10
-1.04285e-09
2.73802e-09
4.20765e-09
-1.887e-09
-4.47452e-09
4.5733e-10
2.5526e-09
-8.56067e-10
-7.1996e-11
-1.96702e-11
-2.16391e-12
-2.45999e-11
4.25797e-11
7.58504e-11
-5.65079e-10
5.71967e-10
-4.78536e-11
5.96866e-13
-2.20374e-12
2.28214e-09
-6.14158e-11
2.18737e-11
-5.61351e-10
-5.78148e-10
-5.61385e-10
-5.78188e-10
2.29128e-09
-4.67282e-11
2.12402e-12
2.30192e-09
-2.56826e-11
-5.87351e-13
2.30596e-09
-1.56945e-11
5.08437e-13