/*--------------------------------*- C++ -*----------------------------------*\
| =========                 |                                                 |
| \\      /  F ield         | OpenFOAM: The Open Source CFD Toolbox           |
|  \\    /   O peration     | Version:  5.0                                   |
|   \\  /    A nd           | Web:      www.OpenFOAM.org                      |
|    \\/     M anipulation  |                                                 |
\*---------------------------------------------------------------------------*/
FoamFile
{
    version     2.0;
    format      ascii;
    class       volScalarField;
    location    "1.2";
    object      rAU;
}
// * * * * * * * * * * * * * * * * * * * * * * * * * * * * * * * * * * * * * //

dimensions      [-1 3 1 0 0 0 0];

internalField   nonuniform List<scalar> 
7975
(
9.68894e-07
9.65375e-07
8.81066e-07
3.66262e-07
6.81157e-07
6.92556e-07
1.29268e-07
3.92419e-07
3.93663e-07
3.94697e-07
3.95731e-07
3.96763e-07
3.97795e-07
3.98826e-07
3.99857e-07
4.00886e-07
4.01916e-07
4.02944e-07
4.03972e-07
4.04999e-07
4.06025e-07
4.0705e-07
4.08075e-07
4.09099e-07
4.10122e-07
4.11145e-07
4.12167e-07
4.13188e-07
4.14208e-07
4.15228e-07
4.16246e-07
4.17265e-07
4.18282e-07
4.19298e-07
4.20314e-07
4.21328e-07
4.22342e-07
4.23356e-07
4.24368e-07
4.25379e-07
4.26391e-07
4.274e-07
4.28409e-07
4.29418e-07
4.30425e-07
4.31432e-07
4.32438e-07
4.33443e-07
4.34447e-07
4.36223e-07
8.64406e-07
8.43562e-07
8.82578e-07
2.38148e-07
5.65741e-07
6.87799e-07
1.29211e-07
3.92423e-07
3.93665e-07
3.94698e-07
3.95731e-07
3.96763e-07
3.97795e-07
3.98827e-07
3.99857e-07
4.00886e-07
4.01916e-07
4.02944e-07
4.03972e-07
4.04999e-07
4.06025e-07
4.0705e-07
4.08075e-07
4.09099e-07
4.10122e-07
4.11145e-07
4.12167e-07
4.13188e-07
4.14208e-07
4.15228e-07
4.16246e-07
4.17265e-07
4.18282e-07
4.19298e-07
4.20314e-07
4.21328e-07
4.22342e-07
4.23356e-07
4.24368e-07
4.2538e-07
4.26391e-07
4.274e-07
4.28409e-07
4.29418e-07
4.30425e-07
4.31432e-07
4.32438e-07
4.33443e-07
4.34447e-07
4.36223e-07
5.36796e-07
8.09099e-07
8.8376e-07
7.0687e-07
1.55186e-07
6.89462e-07
3.51869e-08
3.92289e-07
3.93665e-07
3.94698e-07
3.95731e-07
3.96764e-07
3.97795e-07
3.98827e-07
3.99857e-07
4.00886e-07
4.01916e-07
4.02944e-07
4.03972e-07
4.04999e-07
4.06025e-07
4.0705e-07
4.08075e-07
4.09099e-07
4.10122e-07
4.11145e-07
4.12167e-07
4.13188e-07
4.14208e-07
4.15228e-07
4.16246e-07
4.17265e-07
4.18282e-07
4.19298e-07
4.20314e-07
4.21328e-07
4.22342e-07
4.23356e-07
4.24368e-07
4.2538e-07
4.26391e-07
4.274e-07
4.28409e-07
4.29418e-07
4.30425e-07
4.31432e-07
4.32438e-07
4.33443e-07
4.34447e-07
4.36223e-07
8.70044e-07
8.5973e-07
8.62234e-07
2.55481e-07
8.72162e-07
3.62842e-07
7.80429e-08
1.2987e-07
3.93455e-07
3.94697e-07
3.95731e-07
3.96763e-07
3.97795e-07
3.98827e-07
3.99857e-07
4.00886e-07
4.01916e-07
4.02944e-07
4.03972e-07
4.04999e-07
4.06025e-07
4.0705e-07
4.08075e-07
4.09099e-07
4.10122e-07
4.11145e-07
4.12167e-07
4.13188e-07
4.14208e-07
4.15228e-07
4.16246e-07
4.17265e-07
4.18282e-07
4.19298e-07
4.20314e-07
4.21328e-07
4.22342e-07
4.23356e-07
4.24368e-07
4.25379e-07
4.26391e-07
4.274e-07
4.28409e-07
4.29418e-07
4.30425e-07
4.31432e-07
4.32438e-07
4.33443e-07
4.34447e-07
4.36223e-07
8.92355e-07
7.5878e-07
5.55213e-07
5.26095e-07
8.86287e-07
6.91545e-07
4.37069e-07
1.2972e-07
3.93453e-07
3.94696e-07
3.9573e-07
3.96763e-07
3.97795e-07
3.98826e-07
3.99857e-07
4.00886e-07
4.01916e-07
4.02944e-07
4.03972e-07
4.04999e-07
4.06025e-07
4.0705e-07
4.08075e-07
4.09099e-07
4.10122e-07
4.11145e-07
4.12167e-07
4.13188e-07
4.14208e-07
4.15228e-07
4.16246e-07
4.17265e-07
4.18282e-07
4.19298e-07
4.20314e-07
4.21328e-07
4.22342e-07
4.23356e-07
4.24368e-07
4.25379e-07
4.26391e-07
4.274e-07
4.28409e-07
4.29418e-07
4.30425e-07
4.31432e-07
4.32438e-07
4.33443e-07
4.34447e-07
4.36223e-07
8.91819e-07
8.78293e-07
7.77927e-07
9.61279e-07
7.11611e-07
6.87899e-07
6.91712e-07
1.2972e-07
3.93452e-07
3.94696e-07
3.9573e-07
3.96763e-07
3.97795e-07
3.98826e-07
3.99857e-07
4.00886e-07
4.01916e-07
4.02944e-07
4.03972e-07
4.04999e-07
4.06025e-07
4.0705e-07
4.08075e-07
4.09099e-07
4.10122e-07
4.11145e-07
4.12167e-07
4.13188e-07
4.14208e-07
4.15228e-07
4.16246e-07
4.17265e-07
4.18282e-07
4.19298e-07
4.20314e-07
4.21328e-07
4.22342e-07
4.23356e-07
4.24368e-07
4.25379e-07
4.26391e-07
4.274e-07
4.28409e-07
4.29418e-07
4.30425e-07
4.31432e-07
4.32438e-07
4.33443e-07
4.34447e-07
4.36223e-07
8.9228e-07
4.03496e-07
5.22566e-07
9.65054e-07
8.96651e-07
6.8985e-07
2.57066e-07
1.29724e-07
3.93453e-07
3.94696e-07
3.9573e-07
3.96763e-07
3.97795e-07
3.98826e-07
3.99857e-07
4.00886e-07
4.01916e-07
4.02944e-07
4.03972e-07
4.04999e-07
4.06025e-07
4.0705e-07
4.08075e-07
4.09099e-07
4.10122e-07
4.11145e-07
4.12167e-07
4.13188e-07
4.14208e-07
4.15228e-07
4.16246e-07
4.17265e-07
4.18282e-07
4.19298e-07
4.20314e-07
4.21328e-07
4.22342e-07
4.23356e-07
4.24368e-07
4.25379e-07
4.26391e-07
4.274e-07
4.28409e-07
4.29418e-07
4.30425e-07
4.31432e-07
4.32438e-07
4.33443e-07
4.34447e-07
4.36223e-07
9.5916e-07
8.91306e-07
8.48162e-07
9.62992e-07
8.95425e-07
6.82143e-07
5.42548e-08
3.92284e-07
3.93661e-07
3.94696e-07
3.9573e-07
3.96763e-07
3.97795e-07
3.98826e-07
3.99857e-07
4.00886e-07
4.01916e-07
4.02944e-07
4.03972e-07
4.04999e-07
4.06025e-07
4.0705e-07
4.08075e-07
4.09099e-07
4.10122e-07
4.11145e-07
4.12167e-07
4.13188e-07
4.14208e-07
4.15228e-07
4.16246e-07
4.17265e-07
4.18282e-07
4.19298e-07
4.20314e-07
4.21328e-07
4.22342e-07
4.23356e-07
4.24368e-07
4.25379e-07
4.26391e-07
4.274e-07
4.28409e-07
4.29418e-07
4.30425e-07
4.31432e-07
4.32438e-07
4.33443e-07
4.34447e-07
4.36223e-07
9.68293e-07
9.67598e-07
9.36558e-07
9.49514e-07
7.99698e-07
6.98627e-07
3.51675e-08
3.92418e-07
3.93662e-07
3.94696e-07
3.9573e-07
3.96763e-07
3.97795e-07
3.98826e-07
3.99857e-07
4.00886e-07
4.01916e-07
4.02944e-07
4.03972e-07
4.04999e-07
4.06025e-07
4.0705e-07
4.08075e-07
4.09099e-07
4.10122e-07
4.11145e-07
4.12167e-07
4.13188e-07
4.14208e-07
4.15228e-07
4.16246e-07
4.17265e-07
4.18282e-07
4.19298e-07
4.20314e-07
4.21328e-07
4.22342e-07
4.23356e-07
4.24368e-07
4.25379e-07
4.26391e-07
4.274e-07
4.28409e-07
4.29418e-07
4.30425e-07
4.31432e-07
4.32438e-07
4.33443e-07
4.34447e-07
4.36223e-07
9.66454e-07
9.63166e-07
9.44593e-07
8.82711e-07
8.85439e-07
6.94164e-07
1.29268e-07
3.92417e-07
3.93662e-07
3.94696e-07
3.9573e-07
3.96763e-07
3.97795e-07
3.98826e-07
3.99857e-07
4.00886e-07
4.01916e-07
4.02944e-07
4.03972e-07
4.04999e-07
4.06025e-07
4.0705e-07
4.08075e-07
4.09099e-07
4.10122e-07
4.11145e-07
4.12167e-07
4.13188e-07
4.14208e-07
4.15228e-07
4.16246e-07
4.17265e-07
4.18282e-07
4.19298e-07
4.20314e-07
4.21328e-07
4.22342e-07
4.23356e-07
4.24368e-07
4.25379e-07
4.26391e-07
4.274e-07
4.28409e-07
4.29418e-07
4.30425e-07
4.31432e-07
4.32438e-07
4.33443e-07
4.34447e-07
4.36223e-07
9.79098e-07
9.72024e-07
8.99991e-07
5.32564e-07
6.86573e-08
7.58201e-07
1.83337e-07
5.04895e-07
5.06386e-07
5.07527e-07
5.08666e-07
5.09803e-07
5.10939e-07
5.12072e-07
5.13205e-07
5.14336e-07
5.15464e-07
5.16592e-07
5.17718e-07
5.18841e-07
5.19964e-07
5.21086e-07
5.22204e-07
5.23322e-07
5.24438e-07
5.25552e-07
5.26665e-07
5.27777e-07
5.28885e-07
5.29993e-07
5.311e-07
5.32204e-07
5.33307e-07
5.34409e-07
5.35507e-07
5.36606e-07
5.37702e-07
5.38796e-07
5.39889e-07
5.40981e-07
5.4207e-07
5.43158e-07
5.44244e-07
5.45328e-07
5.46412e-07
5.47493e-07
5.48572e-07
5.4965e-07
5.50727e-07
5.53041e-07
8.63862e-07
9.17175e-07
9.16293e-07
6.87075e-07
7.12115e-07
7.51621e-07
1.83226e-07
5.04906e-07
5.06391e-07
5.0753e-07
5.08667e-07
5.09804e-07
5.1094e-07
5.12073e-07
5.13205e-07
5.14336e-07
5.15464e-07
5.16592e-07
5.17718e-07
5.18841e-07
5.19964e-07
5.21086e-07
5.22204e-07
5.23322e-07
5.24438e-07
5.25552e-07
5.26665e-07
5.27777e-07
5.28885e-07
5.29994e-07
5.311e-07
5.32204e-07
5.33307e-07
5.34408e-07
5.35507e-07
5.36606e-07
5.37702e-07
5.38796e-07
5.39889e-07
5.40981e-07
5.4207e-07
5.43158e-07
5.44245e-07
5.45328e-07
5.46412e-07
5.47493e-07
5.48572e-07
5.4965e-07
5.50727e-07
5.53041e-07
6.57976e-07
6.92598e-07
8.93836e-07
8.36635e-07
1.86924e-07
7.41767e-07
5.18997e-08
5.04682e-07
5.06391e-07
5.0753e-07
5.08667e-07
5.09804e-07
5.1094e-07
5.12073e-07
5.13205e-07
5.14336e-07
5.15464e-07
5.16592e-07
5.17718e-07
5.18841e-07
5.19964e-07
5.21086e-07
5.22204e-07
5.23322e-07
5.24438e-07
5.25552e-07
5.26665e-07
5.27777e-07
5.28885e-07
5.29993e-07
5.311e-07
5.32204e-07
5.33307e-07
5.34408e-07
5.35507e-07
5.36606e-07
5.37702e-07
5.38796e-07
5.39889e-07
5.40981e-07
5.4207e-07
5.43158e-07
5.44245e-07
5.45328e-07
5.46412e-07
5.47493e-07
5.48572e-07
5.4965e-07
5.50727e-07
5.53041e-07
4.31636e-07
6.82765e-07
7.5371e-07
5.35148e-07
8.86753e-07
4.17612e-07
1.12444e-07
1.8425e-07
5.06041e-07
5.07528e-07
5.08666e-07
5.09804e-07
5.10939e-07
5.12072e-07
5.13205e-07
5.14336e-07
5.15464e-07
5.16592e-07
5.17718e-07
5.18841e-07
5.19964e-07
5.21086e-07
5.22204e-07
5.23322e-07
5.24438e-07
5.25552e-07
5.26665e-07
5.27777e-07
5.28885e-07
5.29993e-07
5.311e-07
5.32204e-07
5.33307e-07
5.34409e-07
5.35507e-07
5.36606e-07
5.37702e-07
5.38796e-07
5.39889e-07
5.40981e-07
5.4207e-07
5.43158e-07
5.44245e-07
5.45328e-07
5.46412e-07
5.47493e-07
5.48572e-07
5.4965e-07
5.50727e-07
5.53041e-07
4.89357e-07
5.92196e-07
5.18276e-07
5.83025e-07
8.49937e-07
7.1289e-07
4.96695e-07
1.83947e-07
5.06036e-07
5.07526e-07
5.08665e-07
5.09803e-07
5.10939e-07
5.12072e-07
5.13205e-07
5.14336e-07
5.15464e-07
5.16592e-07
5.17718e-07
5.18841e-07
5.19964e-07
5.21086e-07
5.22204e-07
5.23322e-07
5.24438e-07
5.25552e-07
5.26665e-07
5.27777e-07
5.28885e-07
5.29994e-07
5.311e-07
5.32204e-07
5.33307e-07
5.34409e-07
5.35507e-07
5.36606e-07
5.37702e-07
5.38796e-07
5.39889e-07
5.40981e-07
5.4207e-07
5.43158e-07
5.44245e-07
5.45328e-07
5.46412e-07
5.47493e-07
5.48572e-07
5.4965e-07
5.50727e-07
5.53041e-07
9.06684e-07
8.18718e-07
6.07381e-07
9.34723e-07
6.65751e-07
7.47442e-07
7.65623e-07
1.83946e-07
5.06034e-07
5.07525e-07
5.08664e-07
5.09802e-07
5.10938e-07
5.12072e-07
5.13205e-07
5.14336e-07
5.15464e-07
5.16592e-07
5.17718e-07
5.18841e-07
5.19964e-07
5.21086e-07
5.22204e-07
5.23322e-07
5.24438e-07
5.25552e-07
5.26665e-07
5.27777e-07
5.28885e-07
5.29993e-07
5.311e-07
5.32204e-07
5.33307e-07
5.34409e-07
5.35507e-07
5.36606e-07
5.37702e-07
5.38796e-07
5.39889e-07
5.40981e-07
5.4207e-07
5.43158e-07
5.44245e-07
5.45328e-07
5.46412e-07
5.47493e-07
5.48572e-07
5.4965e-07
5.50727e-07
5.53041e-07
8.97613e-07
6.94121e-07
2.69223e-07
9.23407e-07
9.27739e-07
7.33427e-07
3.37815e-07
1.83947e-07
5.06036e-07
5.07526e-07
5.08664e-07
5.09802e-07
5.10939e-07
5.12072e-07
5.13205e-07
5.14336e-07
5.15464e-07
5.16592e-07
5.17718e-07
5.18841e-07
5.19964e-07
5.21086e-07
5.22204e-07
5.23322e-07
5.24438e-07
5.25552e-07
5.26665e-07
5.27777e-07
5.28885e-07
5.29993e-07
5.311e-07
5.32204e-07
5.33307e-07
5.34409e-07
5.35507e-07
5.36606e-07
5.37702e-07
5.38796e-07
5.39889e-07
5.40981e-07
5.4207e-07
5.43158e-07
5.44245e-07
5.45328e-07
5.46412e-07
5.47493e-07
5.48572e-07
5.4965e-07
5.50727e-07
5.53041e-07
9.18113e-07
7.87146e-07
8.2054e-07
9.45357e-07
8.94779e-07
7.64321e-07
8.01316e-08
5.0467e-07
5.06382e-07
5.07525e-07
5.08664e-07
5.09802e-07
5.10938e-07
5.12072e-07
5.13205e-07
5.14336e-07
5.15464e-07
5.16592e-07
5.17718e-07
5.18841e-07
5.19964e-07
5.21086e-07
5.22204e-07
5.23322e-07
5.24438e-07
5.25552e-07
5.26665e-07
5.27777e-07
5.28885e-07
5.29993e-07
5.311e-07
5.32204e-07
5.33307e-07
5.34409e-07
5.35507e-07
5.36606e-07
5.37702e-07
5.38796e-07
5.39889e-07
5.40981e-07
5.4207e-07
5.43158e-07
5.44245e-07
5.45328e-07
5.46412e-07
5.47493e-07
5.48572e-07
5.4965e-07
5.50727e-07
5.53041e-07
9.75885e-07
9.60186e-07
9.04476e-07
9.2405e-07
8.47938e-07
7.62647e-07
5.1799e-08
5.04891e-07
5.06383e-07
5.07525e-07
5.08664e-07
5.09802e-07
5.10938e-07
5.12072e-07
5.13205e-07
5.14336e-07
5.15464e-07
5.16592e-07
5.17718e-07
5.18841e-07
5.19964e-07
5.21086e-07
5.22204e-07
5.23322e-07
5.24438e-07
5.25552e-07
5.26665e-07
5.27777e-07
5.28885e-07
5.29993e-07
5.311e-07
5.32204e-07
5.33307e-07
5.34409e-07
5.35507e-07
5.36606e-07
5.37702e-07
5.38796e-07
5.39889e-07
5.40981e-07
5.4207e-07
5.43158e-07
5.44245e-07
5.45328e-07
5.46412e-07
5.47493e-07
5.48572e-07
5.4965e-07
5.50726e-07
5.53041e-07
9.73118e-07
9.46869e-07
9.58696e-07
8.09455e-07
8.86586e-07
7.6167e-07
1.83338e-07
5.04889e-07
5.06383e-07
5.07525e-07
5.08664e-07
5.09802e-07
5.10939e-07
5.12072e-07
5.13205e-07
5.14336e-07
5.15464e-07
5.16592e-07
5.17718e-07
5.18841e-07
5.19964e-07
5.21086e-07
5.22204e-07
5.23322e-07
5.24438e-07
5.25552e-07
5.26665e-07
5.27777e-07
5.28885e-07
5.29993e-07
5.311e-07
5.32204e-07
5.33307e-07
5.34409e-07
5.35507e-07
5.36606e-07
5.37702e-07
5.38796e-07
5.39889e-07
5.40981e-07
5.4207e-07
5.43158e-07
5.44244e-07
5.45328e-07
5.46412e-07
5.47493e-07
5.48572e-07
5.4965e-07
5.50726e-07
5.53041e-07
9.69619e-07
9.63403e-07
9.28848e-07
8.94389e-07
5.72505e-07
7.63116e-07
1.83342e-07
3.92419e-07
3.93663e-07
3.94697e-07
3.95731e-07
3.96763e-07
3.97795e-07
3.98826e-07
3.99857e-07
4.00886e-07
4.01916e-07
4.02944e-07
4.03972e-07
4.04999e-07
4.06025e-07
4.0705e-07
4.08075e-07
4.09099e-07
4.10122e-07
4.11145e-07
4.12167e-07
4.13188e-07
4.14208e-07
4.15228e-07
4.16246e-07
4.17265e-07
4.18282e-07
4.19298e-07
4.20314e-07
4.21328e-07
4.22342e-07
4.23356e-07
4.24368e-07
4.25379e-07
4.26391e-07
4.274e-07
4.28409e-07
4.29418e-07
4.30425e-07
4.31432e-07
4.32438e-07
4.33443e-07
4.34447e-07
4.36223e-07
8.99083e-07
8.71061e-07
9.49328e-07
7.03389e-07
8.62486e-07
6.79951e-07
1.83234e-07
3.92423e-07
3.93665e-07
3.94698e-07
3.95731e-07
3.96763e-07
3.97795e-07
3.98827e-07
3.99857e-07
4.00886e-07
4.01916e-07
4.02944e-07
4.03972e-07
4.04999e-07
4.06025e-07
4.0705e-07
4.08075e-07
4.09099e-07
4.10122e-07
4.11145e-07
4.12167e-07
4.13188e-07
4.14208e-07
4.15228e-07
4.16246e-07
4.17265e-07
4.18282e-07
4.19298e-07
4.20314e-07
4.21328e-07
4.22342e-07
4.23356e-07
4.24368e-07
4.25379e-07
4.26391e-07
4.274e-07
4.28409e-07
4.29418e-07
4.30425e-07
4.31432e-07
4.32438e-07
4.33443e-07
4.34447e-07
4.36223e-07
6.1583e-07
7.99231e-07
9.06387e-07
8.8277e-07
8.42639e-07
7.64105e-07
5.18914e-08
3.92289e-07
3.93665e-07
3.94698e-07
3.95731e-07
3.96763e-07
3.97795e-07
3.98827e-07
3.99857e-07
4.00886e-07
4.01916e-07
4.02944e-07
4.03972e-07
4.04999e-07
4.06025e-07
4.0705e-07
4.08075e-07
4.09099e-07
4.10122e-07
4.11145e-07
4.12167e-07
4.13188e-07
4.14208e-07
4.15228e-07
4.16246e-07
4.17265e-07
4.18282e-07
4.19298e-07
4.20314e-07
4.21328e-07
4.22342e-07
4.23356e-07
4.24368e-07
4.25379e-07
4.26391e-07
4.274e-07
4.28409e-07
4.29418e-07
4.30425e-07
4.31432e-07
4.32438e-07
4.33443e-07
4.34447e-07
4.36223e-07
4.60013e-07
6.28038e-07
4.67228e-07
7.2389e-07
7.90354e-07
6.52531e-07
1.12167e-07
1.84255e-07
3.93455e-07
3.94697e-07
3.95731e-07
3.96763e-07
3.97795e-07
3.98826e-07
3.99857e-07
4.00886e-07
4.01916e-07
4.02944e-07
4.03972e-07
4.04999e-07
4.06025e-07
4.0705e-07
4.08075e-07
4.09099e-07
4.10122e-07
4.11145e-07
4.12167e-07
4.13188e-07
4.14208e-07
4.15228e-07
4.16246e-07
4.17265e-07
4.18282e-07
4.19298e-07
4.20314e-07
4.21328e-07
4.22342e-07
4.23356e-07
4.24368e-07
4.25379e-07
4.26391e-07
4.274e-07
4.28409e-07
4.29418e-07
4.30425e-07
4.31432e-07
4.32438e-07
4.33443e-07
4.34447e-07
4.36223e-07
4.76077e-07
5.68024e-07
7.67229e-07
8.26794e-07
8.54089e-07
7.13969e-07
4.99353e-07
1.83952e-07
3.93453e-07
3.94696e-07
3.9573e-07
3.96763e-07
3.97795e-07
3.98826e-07
3.99857e-07
4.00886e-07
4.01916e-07
4.02944e-07
4.03972e-07
4.04999e-07
4.06025e-07
4.0705e-07
4.08075e-07
4.09099e-07
4.10122e-07
4.11145e-07
4.12167e-07
4.13188e-07
4.14208e-07
4.15228e-07
4.16246e-07
4.17265e-07
4.18282e-07
4.19298e-07
4.20314e-07
4.21328e-07
4.22342e-07
4.23356e-07
4.24368e-07
4.25379e-07
4.26391e-07
4.274e-07
4.28409e-07
4.29418e-07
4.30425e-07
4.31432e-07
4.32438e-07
4.33443e-07
4.34447e-07
4.36223e-07
9.07254e-07
7.4914e-07
5.26653e-07
7.61549e-07
4.83207e-07
7.18817e-07
7.64793e-07
1.83951e-07
3.93452e-07
3.94696e-07
3.9573e-07
3.96763e-07
3.97795e-07
3.98826e-07
3.99857e-07
4.00886e-07
4.01916e-07
4.02944e-07
4.03972e-07
4.04999e-07
4.06025e-07
4.0705e-07
4.08075e-07
4.09099e-07
4.10122e-07
4.11145e-07
4.12167e-07
4.13188e-07
4.14208e-07
4.15228e-07
4.16246e-07
4.17265e-07
4.18282e-07
4.19298e-07
4.20314e-07
4.21328e-07
4.22342e-07
4.23356e-07
4.24368e-07
4.25379e-07
4.26391e-07
4.274e-07
4.28409e-07
4.29418e-07
4.30425e-07
4.31432e-07
4.32438e-07
4.33443e-07
4.34447e-07
4.36223e-07
9.04447e-07
5.91063e-07
4.89725e-07
8.77832e-07
9.09551e-07
7.19021e-07
3.33969e-07
1.83952e-07
3.93453e-07
3.94696e-07
3.9573e-07
3.96763e-07
3.97795e-07
3.98826e-07
3.99857e-07
4.00886e-07
4.01916e-07
4.02944e-07
4.03972e-07
4.04999e-07
4.06025e-07
4.0705e-07
4.08075e-07
4.09099e-07
4.10122e-07
4.11145e-07
4.12167e-07
4.13188e-07
4.14208e-07
4.15228e-07
4.16246e-07
4.17265e-07
4.18282e-07
4.19298e-07
4.20314e-07
4.21328e-07
4.22342e-07
4.23356e-07
4.24368e-07
4.25379e-07
4.26391e-07
4.274e-07
4.28409e-07
4.29418e-07
4.30425e-07
4.31432e-07
4.32438e-07
4.33443e-07
4.34447e-07
4.36223e-07
8.55757e-07
5.26468e-07
3.3637e-07
9.02764e-07
8.8035e-07
7.61433e-07
8.0126e-08
3.92284e-07
3.93661e-07
3.94696e-07
3.9573e-07
3.96763e-07
3.97795e-07
3.98826e-07
3.99857e-07
4.00886e-07
4.01916e-07
4.02944e-07
4.03972e-07
4.04999e-07
4.06025e-07
4.0705e-07
4.08075e-07
4.09099e-07
4.10122e-07
4.11145e-07
4.12167e-07
4.13188e-07
4.14208e-07
4.15228e-07
4.16246e-07
4.17265e-07
4.18282e-07
4.19298e-07
4.20314e-07
4.21328e-07
4.22342e-07
4.23356e-07
4.24368e-07
4.25379e-07
4.26391e-07
4.274e-07
4.28409e-07
4.29418e-07
4.30425e-07
4.31432e-07
4.32438e-07
4.33443e-07
4.34447e-07
4.36223e-07
9.6336e-07
9.36195e-07
6.19572e-07
9.16643e-07
8.30427e-07
7.07973e-07
5.18037e-08
3.92418e-07
3.93662e-07
3.94696e-07
3.9573e-07
3.96763e-07
3.97795e-07
3.98826e-07
3.99857e-07
4.00886e-07
4.01916e-07
4.02944e-07
4.03972e-07
4.04999e-07
4.06025e-07
4.0705e-07
4.08075e-07
4.09099e-07
4.10122e-07
4.11145e-07
4.12167e-07
4.13188e-07
4.14208e-07
4.15228e-07
4.16246e-07
4.17265e-07
4.18282e-07
4.19298e-07
4.20314e-07
4.21328e-07
4.22342e-07
4.23356e-07
4.24368e-07
4.25379e-07
4.26391e-07
4.274e-07
4.28409e-07
4.29418e-07
4.30425e-07
4.31432e-07
4.32438e-07
4.33443e-07
4.34447e-07
4.36223e-07
9.7037e-07
8.55371e-07
7.27919e-07
8.89506e-07
8.83548e-07
7.52051e-07
1.83344e-07
3.92417e-07
3.93661e-07
3.94696e-07
3.9573e-07
3.96763e-07
3.97795e-07
3.98826e-07
3.99857e-07
4.00886e-07
4.01916e-07
4.02944e-07
4.03972e-07
4.04999e-07
4.06025e-07
4.0705e-07
4.08075e-07
4.09099e-07
4.10122e-07
4.11145e-07
4.12167e-07
4.13188e-07
4.14208e-07
4.15228e-07
4.16246e-07
4.17265e-07
4.18282e-07
4.19298e-07
4.20314e-07
4.21328e-07
4.22342e-07
4.23356e-07
4.24368e-07
4.25379e-07
4.26391e-07
4.274e-07
4.28409e-07
4.29418e-07
4.30425e-07
4.31432e-07
4.32438e-07
4.33443e-07
4.34447e-07
4.36223e-07
3.51428e-08
6.95143e-07
3.51482e-08
7.60497e-07
5.1785e-08
7.59041e-07
5.1796e-08
3.5153e-08
6.89742e-07
4.48924e-08
7.50088e-07
5.1808e-08
7.10073e-07
6.59012e-08
6.17047e-08
6.9285e-07
5.59007e-07
7.39116e-07
8.98734e-08
7.28851e-07
6.12009e-07
6.94314e-07
6.67055e-07
6.99299e-07
4.26924e-07
7.6759e-07
7.05295e-07
7.71943e-07
6.9859e-07
6.72163e-07
7.00255e-07
7.2814e-07
7.70391e-07
7.61e-07
7.73675e-07
6.99078e-07
6.66307e-07
6.99869e-07
7.52707e-07
7.74546e-07
7.41478e-07
7.71229e-07
6.99326e-07
6.70693e-07
6.9415e-07
7.61622e-07
7.73885e-07
6.77761e-07
7.68233e-07
6.8834e-07
6.58887e-07
7.16067e-08
7.64141e-07
7.33595e-07
6.23394e-07
1.03855e-07
4.54116e-08
6.76423e-07
3.51558e-08
7.61128e-07
6.70297e-08
7.03163e-07
5.18136e-08
3.51484e-08
3.99353e-07
3.51424e-08
7.67746e-07
5.17982e-08
4.78668e-07
5.17835e-08
5.17848e-08
7.62551e-07
5.17967e-08
7.59703e-07
5.17848e-08
7.62448e-07
5.17968e-08
5.18068e-08
7.12308e-07
6.59219e-08
7.34116e-07
5.18122e-08
7.48938e-07
6.56196e-08
8.98683e-08
6.92361e-07
6.05788e-07
7.58354e-07
8.96812e-08
7.1998e-07
6.09876e-07
7.67565e-07
6.90131e-07
7.70358e-07
6.16415e-07
7.662e-07
7.07045e-07
7.73194e-07
7.71012e-07
7.6252e-07
7.73073e-07
7.11464e-07
7.70593e-07
7.58587e-07
7.74488e-07
7.74842e-07
7.46769e-07
7.71287e-07
7.40545e-07
7.74623e-07
7.7277e-07
7.754e-07
7.72917e-07
6.76015e-07
7.68087e-07
6.87865e-07
7.74341e-07
6.68899e-07
7.68089e-07
7.26431e-07
6.23265e-07
1.03908e-07
7.46212e-07
7.20559e-07
5.54693e-07
1.03954e-07
6.74793e-08
6.9664e-07
5.18145e-08
7.33528e-07
6.86638e-08
7.29307e-07
5.18147e-08
5.17976e-08
4.8107e-07
5.1783e-08
7.45601e-07
5.17973e-08
4.94081e-07
5.1783e-08
5.17848e-08
7.63131e-07
5.17965e-08
6.92721e-07
3.51427e-08
6.94274e-07
3.5148e-08
5.18137e-08
7.42665e-07
6.56106e-08
4.06817e-07
3.51549e-08
6.79834e-07
4.46472e-08
8.95728e-08
7.10606e-07
6.15684e-07
6.91778e-07
6.14591e-08
6.86183e-07
5.59625e-07
7.6468e-07
7.03215e-07
7.71796e-07
6.81918e-07
6.92372e-07
6.76988e-07
6.99461e-07
7.70635e-07
7.46678e-07
7.73902e-07
6.87367e-07
6.99227e-07
6.91191e-07
6.99728e-07
7.74916e-07
7.61158e-07
7.74755e-07
6.80162e-07
6.99479e-07
6.75788e-07
7.00303e-07
7.73062e-07
6.81673e-07
7.68044e-07
6.78246e-07
6.99284e-07
6.80886e-07
6.93324e-07
7.21755e-07
5.77945e-07
1.03951e-07
6.96012e-07
6.84458e-07
6.16695e-07
7.16915e-08
6.86281e-08
7.44564e-07
5.18145e-08
6.39946e-07
4.59689e-08
6.88281e-07
3.5156e-08
5.17971e-08
5.03161e-07
5.17833e-08
6.90412e-07
3.51482e-08
4.21719e-07
3.51423e-08
6.9704e-07
7.58298e-07
6.90304e-07
1.01636e-07
7.50558e-07
3.87706e-07
7.59992e-07
1.20035e-07
8.11526e-08
6.9237e-07
7.6623e-07
7.68081e-07
8.34627e-08
1.16781e-07
1.29657e-07
1.29268e-07
1.29657e-07
1.83343e-07
1.84014e-07
1.83344e-07
1.84015e-07
6.0354e-07
4.72865e-07
8.67271e-07
6.21274e-07
6.55704e-07
5.97087e-07
8.98526e-07
4.40441e-07
6.33924e-07
4.25378e-07
7.38733e-07
6.70768e-07
5.85167e-07
3.61485e-07
1.29658e-07
3.51673e-08
1.29568e-07
1.8323e-07
1.84018e-07
5.18018e-08
1.83836e-07
6.37861e-07
6.66151e-07
6.6532e-07
1.86172e-07
6.78179e-07
5.66734e-07
2.81482e-07
7.671e-07
6.98264e-07
6.84949e-07
7.58212e-07
7.73123e-07
7.2859e-07
6.97652e-07
1.29567e-07
5.15604e-08
1.29567e-07
5.18907e-08
1.83835e-07
7.64704e-08
1.83833e-07
3.28618e-07
8.7327e-07
6.51007e-07
8.97536e-07
5.25074e-07
8.94011e-07
4.39309e-07
5.12415e-07
6.57974e-07
2.81409e-07
5.21589e-07
6.95646e-07
2.77563e-07
5.11602e-07
1.29425e-07
2.78653e-07
3.52761e-08
1.12523e-07
1.83548e-07
3.51913e-07
5.19789e-08
8.79676e-07
8.92162e-07
8.88332e-07
9.2742e-07
8.93143e-07
9.20211e-07
9.07223e-07
7.6567e-07
6.98188e-07
6.76797e-07
7.56061e-07
7.74077e-07
7.34868e-07
6.96025e-07
3.52761e-08
6.91298e-07
3.52761e-08
4.99244e-07
5.19789e-08
7.36526e-07
5.19783e-08
8.00095e-07
7.69222e-07
8.41013e-07
7.74479e-07
8.64007e-07
8.52554e-07
8.15265e-07
7.6111e-07
6.9574e-07
6.95453e-07
7.38938e-07
7.69362e-07
7.61159e-07
6.94247e-07
3.5276e-08
4.11761e-07
3.52761e-08
7.66026e-07
5.19784e-08
4.80262e-07
5.1979e-08
8.81702e-07
8.79562e-07
8.74947e-07
8.7446e-07
8.92688e-07
8.81724e-07
9.24172e-07
7.74502e-07
6.94901e-07
6.97182e-07
7.46245e-07
7.66807e-07
7.6394e-07
6.99359e-07
3.52761e-08
7.3113e-08
1.29424e-07
3.36155e-07
5.19787e-08
1.059e-07
1.83546e-07
7.77909e-07
8.7456e-07
5.96414e-07
9.09675e-07
8.21203e-07
8.94043e-07
7.03031e-07
6.99253e-07
6.8467e-07
5.5441e-07
7.5824e-07
7.65679e-07
6.33295e-07
6.43191e-07
1.29566e-07
3.53138e-08
1.29566e-07
7.99574e-08
1.83831e-07
5.22006e-08
1.83831e-07
8.82449e-07
5.48494e-07
8.81006e-07
8.4693e-07
9.20098e-07
6.81145e-07
9.26808e-07
7.67279e-07
6.98077e-07
6.70449e-07
7.68307e-07
7.71402e-07
7.1102e-07
6.9441e-07
1.29566e-07
1.29212e-07
1.29657e-07
5.1799e-08
1.83831e-07
1.83231e-07
1.84014e-07
6.70532e-07
8.78415e-07
6.94888e-07
8.84951e-07
7.55873e-07
8.83607e-07
7.29691e-07
1.52944e-07
2.2212e-07
6.90419e-07
7.68784e-07
2.93222e-07
7.47024e-07
1.08242e-07
1.29657e-07
1.29268e-07
1.29657e-07
1.83344e-07
1.84014e-07
1.83342e-07
1.84013e-07
7.15097e-07
2.99101e-07
6.97818e-07
1.29282e-07
7.43071e-07
2.76816e-07
7.49742e-07
1.2013e-07
1.16756e-07
7.63079e-07
7.58481e-07
1.20175e-07
7.5863e-07
1.16653e-07
1.84009e-07
1.83339e-07
1.8401e-07
1.83337e-07
1.84009e-07
1.83339e-07
1.8401e-07
7.05261e-07
6.15263e-07
9.01572e-07
8.20978e-07
7.96198e-07
8.79577e-07
9.15969e-07
3.90282e-07
6.07202e-07
4.30308e-07
7.59382e-07
4.12965e-07
5.6605e-07
4.40548e-07
1.84014e-07
5.1802e-08
1.83832e-07
1.83229e-07
1.84014e-07
5.18013e-08
1.83832e-07
5.80459e-07
6.67121e-07
3.0093e-07
6.30791e-07
8.7667e-07
8.11802e-07
7.44292e-07
7.51177e-07
7.60497e-07
6.85359e-07
7.50522e-07
7.61238e-07
7.58396e-07
6.94062e-07
1.8383e-07
7.66613e-08
1.83828e-07
5.19002e-08
1.83831e-07
7.65831e-08
1.83828e-07
7.80914e-07
9.17331e-07
7.63606e-07
7.75056e-07
8.55424e-07
8.7693e-07
6.41535e-07
3.4151e-07
6.04721e-07
2.32001e-07
5.42971e-07
3.93966e-07
6.32584e-07
2.47762e-07
1.83544e-07
3.46875e-07
5.19783e-08
1.12241e-07
1.83543e-07
3.51662e-07
5.19783e-08
9.16493e-07
9.12514e-07
8.91958e-07
9.19216e-07
7.92262e-07
8.62129e-07
9.23912e-07
7.50167e-07
7.59898e-07
5.70907e-07
7.1501e-07
7.49653e-07
7.58326e-07
5.07839e-07
5.19784e-08
7.21656e-07
5.19777e-08
4.94125e-07
5.19783e-08
7.20928e-07
5.19777e-08
8.28875e-07
7.80296e-07
7.60367e-07
4.47033e-07
7.02535e-07
6.98987e-07
7.22945e-07
7.61245e-07
7.71083e-07
7.42227e-07
7.29814e-07
7.56976e-07
7.67464e-07
7.33231e-07
5.19778e-08
4.76652e-07
5.19784e-08
7.64182e-07
5.19778e-08
4.78371e-07
5.19783e-08
8.62059e-07
9.13527e-07
8.47663e-07
8.69673e-07
9.10566e-07
9.2119e-07
9.11927e-07
7.53615e-07
7.63958e-07
7.26553e-07
7.06975e-07
7.565e-07
7.59936e-07
7.37922e-07
5.19782e-08
1.05932e-07
1.83542e-07
3.32345e-07
5.19783e-08
1.05934e-07
1.83543e-07
7.84509e-07
8.59167e-07
7.4903e-07
8.8904e-07
7.85779e-07
9.02121e-07
8.0249e-07
6.27999e-07
7.37547e-07
5.26639e-07
7.70671e-07
6.80626e-07
7.37348e-07
6.16175e-07
1.83825e-07
5.22327e-08
1.83826e-07
8.01972e-08
1.83825e-07
5.2238e-08
1.83826e-07
8.92394e-07
7.26175e-07
8.68818e-07
8.00578e-07
8.75649e-07
8.43237e-07
9.11137e-07
6.52601e-07
7.66689e-07
7.59931e-07
7.44116e-07
7.10628e-07
7.60243e-07
7.23503e-07
1.83826e-07
1.83227e-07
1.84009e-07
5.18032e-08
1.83826e-07
1.83227e-07
1.84009e-07
7.18739e-07
8.94288e-07
6.66479e-07
8.97918e-07
6.52859e-07
8.57319e-07
5.79985e-07
1.54191e-07
3.02328e-07
7.52225e-07
7.47772e-07
1.53836e-07
3.0584e-07
7.48431e-07
1.84008e-07
1.83337e-07
1.84007e-07
1.83338e-07
1.84009e-07
1.83337e-07
1.84007e-07
7.55189e-07
7.22456e-07
7.02117e-07
8.47302e-07
6.91658e-07
8.47404e-07
6.90662e-07
1.20368e-07
1.16681e-07
7.6536e-07
7.66853e-07
1.20395e-07
7.65246e-07
1.16582e-07
1.84014e-07
1.83344e-07
1.84015e-07
1.29268e-07
1.29657e-07
1.29268e-07
1.29658e-07
7.55746e-07
9.13037e-07
9.14987e-07
8.93813e-07
6.43544e-07
8.72548e-07
8.93422e-07
4.44619e-07
5.03682e-07
5.7905e-07
6.10272e-07
4.25883e-07
4.99655e-07
6.48106e-07
1.84018e-07
5.18013e-08
1.83836e-07
1.29211e-07
1.29658e-07
3.51669e-08
1.29568e-07
9.15685e-07
9.03785e-07
8.79505e-07
8.15785e-07
8.73943e-07
8.97222e-07
8.9646e-07
7.51718e-07
7.59927e-07
7.56225e-07
7.70617e-07
7.51471e-07
7.60382e-07
7.19735e-07
1.83835e-07
7.63972e-08
1.83833e-07
3.519e-08
1.29567e-07
5.15754e-08
1.29567e-07
7.52093e-07
7.04561e-07
3.43237e-07
6.92767e-07
6.70926e-07
6.9627e-07
6.74039e-07
3.38342e-07
6.79931e-07
3.16266e-07
7.15212e-07
3.14085e-07
6.7739e-07
3.17371e-07
1.83546e-07
3.48202e-07
5.19788e-08
7.77195e-08
1.29424e-07
2.74829e-07
3.52761e-08
9.10986e-07
9.18904e-07
8.75477e-07
8.20554e-07
8.62693e-07
8.52005e-07
8.77713e-07
7.60544e-07
7.61378e-07
6.54148e-07
7.34445e-07
7.62446e-07
7.63919e-07
6.7433e-07
5.19788e-08
7.35699e-07
5.19781e-08
4.34319e-07
3.52761e-08
6.91274e-07
3.52761e-08
5.56832e-07
5.85216e-07
5.82132e-07
5.45738e-07
6.29658e-07
6.38432e-07
6.8103e-07
7.67689e-07
7.65718e-07
7.07698e-07
7.25222e-07
7.65872e-07
7.65951e-07
7.26104e-07
5.19783e-08
4.79926e-07
5.19788e-08
6.91711e-07
3.5276e-08
4.06777e-07
3.52761e-08
9.05029e-07
8.7229e-07
8.77973e-07
8.93432e-07
8.80655e-07
8.72507e-07
8.73663e-07
7.63205e-07
7.54826e-07
7.45384e-07
7.3954e-07
7.56325e-07
7.6091e-07
7.56099e-07
5.19788e-08
1.05905e-07
1.83545e-07
2.55586e-07
3.52761e-08
7.31277e-08
1.29424e-07
7.43356e-07
8.67088e-07
6.92917e-07
6.89599e-07
6.37805e-07
6.74743e-07
5.06342e-07
7.12644e-07
7.58211e-07
5.41937e-07
7.65549e-07
6.99907e-07
7.57751e-07
5.97798e-07
1.8383e-07
5.2203e-08
1.83831e-07
5.42603e-08
1.29566e-07
3.53115e-08
1.29566e-07
8.94879e-07
8.38552e-07
9.03642e-07
8.37416e-07
8.80987e-07
7.21663e-07
8.86672e-07
5.76054e-07
7.41332e-07
3.85323e-07
7.04993e-07
5.80935e-07
7.41546e-07
3.65504e-07
1.83831e-07
1.83232e-07
1.84014e-07
3.51676e-08
1.29566e-07
1.29212e-07
1.29657e-07
7.15564e-07
8.956e-07
5.73025e-07
8.95435e-07
6.92246e-07
6.91758e-07
5.17758e-07
1.57073e-07
3.15172e-07
7.65527e-07
7.59434e-07
1.56482e-07
3.11424e-07
7.64254e-07
1.84014e-07
1.83342e-07
1.84013e-07
1.29268e-07
1.29657e-07
1.29268e-07
1.29657e-07
5.25094e-08
3.54305e-08
3.5143e-08
5.17919e-08
5.17923e-08
3.55807e-08
5.23085e-08
1.82132e-07
6.93177e-07
2.02671e-07
7.62247e-07
7.6587e-07
2.75204e-07
1.29849e-07
5.53011e-08
3.5145e-08
4.07481e-08
5.18038e-08
5.17967e-08
5.99531e-08
3.74719e-08
1.20053e-07
7.63454e-07
1.16799e-07
7.65648e-07
7.68088e-07
1.20147e-07
1.16755e-07
5.25957e-08
5.17909e-08
5.24875e-08
5.17854e-08
5.17913e-08
5.26608e-08
5.24115e-08
1.81986e-07
7.56965e-07
7.59347e-07
2.81195e-07
7.6421e-07
2.78807e-07
1.81808e-07
5.54349e-08
5.18022e-08
5.17899e-08
5.99266e-08
5.17957e-08
5.98809e-08
5.5551e-08
8.39579e-08
4.74661e-08
3.53058e-08
5.18147e-08
7.01116e-08
5.20305e-08
5.68323e-08
6.11203e-07
1.93822e-07
6.96187e-07
7.61931e-07
3.3067e-07
7.69032e-07
5.05815e-07
1.20791e-07
3.67114e-08
2.52318e-07
6.57752e-08
5.42362e-08
3.37912e-07
8.47649e-08
4.13185e-07
7.5492e-07
6.20311e-07
4.92486e-07
6.34296e-07
5.77215e-07
4.12525e-07
8.57163e-08
5.18138e-08
7.10406e-08
5.1912e-08
7.06781e-08
5.19342e-08
8.58329e-08
6.15709e-07
6.68249e-07
7.14679e-07
7.63826e-07
5.06734e-07
7.67138e-07
6.08075e-07
1.21326e-07
6.58081e-08
5.41906e-08
3.39213e-07
5.43002e-08
3.39535e-07
1.23438e-07
7.68561e-07
6.90978e-07
1.10957e-07
8.97472e-08
7.63093e-07
1.56799e-07
6.94706e-07
7.5356e-07
6.817e-07
6.96699e-07
7.42733e-07