/*--------------------------------*- C++ -*----------------------------------*\
| =========                 |                                                 |
| \\      /  F ield         | OpenFOAM: The Open Source CFD Toolbox           |
|  \\    /   O peration     | Version:  5.0                                   |
|   \\  /    A nd           | Web:      www.OpenFOAM.org                      |
|    \\/     M anipulation  |                                                 |
\*---------------------------------------------------------------------------*/
FoamFile
{
    version     2.0;
    format      ascii;
    class       volVectorField;
    location    "1.2";
    object      U;
}
// * * * * * * * * * * * * * * * * * * * * * * * * * * * * * * * * * * * * * //

dimensions      [0 1 -1 0 0 0 0];

internalField   nonuniform List<vector> 
7975
(
(-0.00231972 0.0039991 0.000108347)
(0.000125386 -0.00381531 -0.000746259)
(-0.00712649 0.0195438 -0.000236705)
(0.010167 0.00784377 -0.000676288)
(0.0196319 0.00133642 0.007185)
(0.00155238 -1.20885e-06 0.000273843)
(0.000437025 8.26972e-05 -1.84086e-06)
(0.000795998 5.23406e-05 -2.6469e-06)
(0.000795637 2.81911e-05 -4.9433e-08)
(0.000804038 1.57731e-05 5.19349e-08)
(0.000806807 9.24386e-06 9.6448e-08)
(0.000808441 5.39599e-06 5.34601e-08)
(0.000809327 3.24968e-06 -1.52394e-09)
(0.000809062 2.1169e-06 7.04518e-08)
(0.000807977 1.33843e-06 5.14365e-08)
(0.000806819 8.0238e-07 5.53744e-08)
(0.000805613 3.78823e-07 5.28432e-08)
(0.000804287 1.80099e-07 4.71948e-08)
(0.000802829 4.84642e-08 5.3227e-08)
(0.000801407 4.35555e-08 1.62239e-07)
(0.000799998 -1.24042e-08 7.8602e-08)
(0.000798513 7.08086e-08 6.43617e-08)
(0.000796949 -7.07535e-08 5.9305e-08)
(0.000795357 -4.38049e-09 4.87246e-08)
(0.000794022 2.15492e-07 5.85239e-08)
(0.000792565 3.66028e-07 5.69831e-08)
(0.000791025 2.28408e-07 5.16772e-08)
(0.00078972 1.62353e-07 5.06091e-08)
(0.000788103 3.6183e-07 7.75142e-08)
(0.000786654 -3.41401e-08 2.0975e-07)
(0.000785096 -4.19486e-07 8.16719e-08)
(0.000783408 -5.35104e-07 3.91846e-08)
(0.000782021 -4.60044e-07 8.0377e-08)
(0.000780762 -2.72934e-07 3.76488e-08)
(0.000779322 6.72719e-08 3.80095e-08)
(0.000777698 4.45945e-08 4.63561e-08)
(0.000776144 9.77029e-08 3.49791e-08)
(0.000774354 2.55977e-07 4.32197e-08)
(0.000773551 6.58111e-07 7.2956e-08)
(0.000772604 2.15087e-07 1.60028e-07)
(0.000770756 1.71819e-08 2.80323e-08)
(0.000769327 -3.51053e-09 7.46474e-08)
(0.000768332 -5.3482e-07 8.23251e-08)
(0.000766557 -4.78308e-07 5.67662e-09)
(0.000764767 -2.33933e-07 2.31426e-08)
(0.000763592 -1.27213e-07 2.66041e-08)
(0.000762255 -1.11346e-07 5.70894e-08)
(0.000760988 -1.67256e-07 3.35576e-08)
(0.000759329 -3.98988e-07 4.75263e-08)
(0.000757765 -2.94758e-07 1.51867e-08)
(-0.00907119 -0.0102626 0.0012154)
(0.000328282 0.00150051 -0.000379844)
(-0.0114788 -0.00848193 -0.000477025)
(0.00140566 0.00782006 2.52798e-05)
(-0.0110653 -0.0234763 -0.00830741)
(0.0132921 -0.0043203 0.000362572)
(0.000364258 8.41631e-05 1.51843e-06)
(0.000761638 4.78609e-06 -1.70109e-06)
(0.000774602 1.32032e-06 1.71106e-07)
(0.000794248 9.50149e-07 1.51082e-07)
(0.000802085 7.88429e-07 9.19314e-08)
(0.00080606 4.63893e-07 7.06814e-08)
(0.000807514 3.43532e-07 6.81287e-08)
(0.000807805 1.44936e-07 5.26141e-08)
(0.000807505 6.58666e-08 5.11842e-08)
(0.0008065 -4.94652e-09 3.83904e-08)
(0.000805258 2.08694e-07 4.26491e-08)
(0.00080418 3.06386e-07 7.72349e-08)
(0.000802947 4.28016e-07 4.01801e-08)
(0.00080144 2.25658e-07 2.64415e-08)
(0.000799932 1.83542e-07 9.14857e-08)
(0.000798313 1.39402e-07 6.22267e-08)
(0.000796829 2.49105e-07 9.86018e-08)
(0.000795775 2.41082e-07 5.00307e-08)
(0.000794335 1.78633e-07 -3.0499e-08)
(0.000792486 2.80339e-08 3.19362e-08)
(0.000790911 5.80789e-08 3.47127e-08)
(0.000789664 -6.94982e-08 4.71067e-08)
(0.000787917 -3.62636e-07 4.615e-08)
(0.000786008 -2.72355e-07 5.41989e-08)
(0.000784757 -2.84289e-07 -1.39933e-07)
(0.000783457 -1.57687e-07 1.87136e-08)
(0.000782263 2.94513e-07 1.25405e-07)
(0.000781219 2.91185e-07 8.83186e-08)
(0.000779532 3.48214e-08 4.59565e-08)
(0.000777824 1.03439e-07 4.69276e-08)
(0.000776578 1.90922e-07 8.04925e-08)
(0.000775463 3.93786e-07 1.2306e-08)
(0.000773425 7.5627e-07 6.31996e-10)
(0.000771462 3.43224e-07 1.19403e-07)
(0.000770339 1.6227e-07 6.24529e-08)
(0.000768809 3.95228e-08 6.72587e-08)
(0.000767437 -2.25776e-07 7.45379e-08)
(0.000766752 -7.20321e-07 9.59109e-08)
(0.000765485 -2.07377e-07 6.49872e-08)
(0.000763742 -1.29005e-07 6.5744e-08)
(0.000762241 -4.77041e-08 1.00359e-07)
(0.000760732 -7.90551e-08 4.81692e-08)
(0.000759364 -1.67488e-07 -7.49912e-08)
(0.000758357 -1.79838e-07 1.1052e-07)
(0.0150728 -0.0139498 -0.000713373)
(0.0115626 -0.00410113 -0.000616427)
(0.000318313 0.000611647 0.000386048)
(-0.00402558 0.00532038 0.000208567)
(-0.00332265 0.00469423 -0.000921673)
(0.00944651 -0.00902278 0.000161387)
(0.000229866 -7.124e-05 6.5677e-06)
(0.000839676 -6.53293e-05 -1.42042e-06)
(0.000791235 -6.89689e-06 -5.39012e-07)
(0.000803409 -1.16936e-05 9.41284e-08)
(0.000806217 -5.63003e-06 8.00634e-08)
(0.000807893 -3.69683e-06 1.29783e-07)
(0.000808933 -2.32821e-06 1.59074e-07)
(0.000808718 -1.45388e-06 5.21761e-08)
(0.000807792 -9.05676e-07 5.1714e-08)
(0.000806999 -6.15658e-07 -1.68398e-07)
(0.000806002 -2.97523e-07 6.08928e-08)
(0.000804561 -1.24379e-07 3.59327e-08)
(0.000802727 -1.7988e-07 7.72776e-08)
(0.0008011 -5.38879e-08 4.17468e-08)
(0.000799888 9.51118e-09 2.40108e-07)
(0.000798592 5.39064e-08 4.7951e-08)
(0.000797074 2.57543e-07 3.46585e-08)
(0.000795265 2.12282e-07 7.93854e-08)
(0.000793753 4.33049e-08 4.93555e-08)
(0.000792413 -3.52411e-08 3.34369e-08)
(0.000790903 -1.5097e-08 4.06706e-08)
(0.000789196 -1.34002e-08 5.48443e-08)
(0.000787852 -1.3888e-07 1.54378e-08)
(0.000786756 3.31375e-07 3.16811e-08)
(0.000785242 4.46463e-07 2.07909e-07)
(0.000784132 4.76107e-07 6.68143e-08)
(0.00078258 4.54255e-07 -2.52334e-09)
(0.000780434 2.86368e-07 1.31872e-08)
(0.000779085 -1.63497e-08 8.94891e-08)
(0.000777892 7.06789e-08 4.88839e-08)
(0.000776505 5.08816e-08 6.08773e-08)
(0.000775057 -5.85971e-08 4.96053e-08)
(0.000773483 -2.73163e-07 2.60238e-08)
(0.000771859 -5.38456e-09 4.91512e-08)
(0.000770375 1.06997e-07 3.62092e-08)
(0.000768843 1.81233e-07 6.25735e-08)
(0.000767386 5.30193e-07 9.32934e-08)
(0.000766584 6.34767e-07 1.46677e-07)
(0.00076551 2.31472e-07 6.34676e-08)
(0.000763793 1.86204e-07 3.95154e-08)
(0.000762319 2.62401e-07 1.37927e-07)
(0.00076084 4.04129e-07 7.86577e-08)
(0.000759209 2.2471e-07 5.77547e-08)
(0.000758197 1.2797e-07 1.16892e-07)
(0.00628383 0.027773 0.000968676)
(-0.0328968 0.0147864 0.00476133)
(-0.0304905 0.00275655 -0.000702263)
(-0.00436491 -0.00478758 0.00100883)
(0.0305538 -0.00166683 7.81299e-07)
(0.00867172 -0.00904051 0.000224546)
(0.000662333 -0.000265079 -3.14772e-06)
(0.000419213 -4.83928e-05 -1.16012e-06)
(0.00085753 -1.62723e-05 -1.07392e-06)
(0.000796053 -1.9135e-05 -3.99458e-07)
(0.00081215 -9.95138e-06 1.89239e-07)
(0.000810226 -6.14903e-06 -1.24153e-07)
(0.000810343 -3.95249e-06 6.0947e-08)
(0.000809599 -2.43722e-06 5.67945e-08)
(0.000808563 -1.44236e-06 5.27809e-08)
(0.000807267 -8.15662e-07 4.69772e-08)
(0.000805876 -7.01505e-07 4.84244e-08)
(0.000804331 -5.88039e-07 5.37151e-08)
(0.000803037 -6.29786e-07 6.17426e-08)
(0.000801679 -4.20698e-07 2.86643e-08)
(0.000800067 -2.0852e-07 6.91765e-08)
(0.000798623 -1.76979e-07 4.95183e-08)
(0.000797025 -2.70542e-07 1.73898e-08)
(0.000795506 -1.24146e-07 6.08444e-08)
(0.000794025 5.84219e-08 2.69259e-08)
(0.000792413 1.7376e-07 3.0276e-08)
(0.000790938 2.64967e-07 6.14471e-08)
(0.00078951 4.14993e-07 5.53289e-08)
(0.000788346 7.439e-07 -3.44749e-08)
(0.000786737 5.58837e-07 3.72316e-08)
(0.000784933 3.46858e-07 7.05601e-08)
(0.000783461 4.74998e-07 -1.44667e-09)
(0.000782021 -4.42237e-09 4.33006e-08)
(0.000780629 -1.44667e-08 4.82163e-08)
(0.000779261 1.25196e-07 6.46081e-08)
(0.000777908 8.90681e-08 2.95702e-07)
(0.000776416 -2.66509e-09 1.86168e-07)
(0.000775059 -8.09485e-08 5.23215e-08)
(0.000773492 -2.13921e-07 2.07724e-08)
(0.000771937 -1.7705e-07 2.86669e-08)
(0.000770572 6.57392e-09 -4.96733e-08)
(0.000769336 1.12133e-07 8.9359e-08)
(0.000768001 3.39979e-07 1.73639e-07)
(0.000766373 6.50163e-07 -1.04724e-07)
(0.000764921 2.25149e-07 -5.58623e-08)
(0.000763778 1.49224e-07 4.4539e-08)
(0.000762511 2.44338e-07 7.80193e-08)
(0.000760682 3.76261e-07 4.04149e-08)
(0.000759014 2.03337e-07 4.97333e-08)
(0.000757916 2.55354e-07 1.65974e-07)
(0.00393878 0.00965368 -1.19088e-05)
(0.00584204 0.0015512 0.00122273)
(-0.0436929 -0.00419048 -0.00166672)
(-0.00349886 -0.00398118 -0.00044398)
(0.0113511 -0.00592206 0.00011888)
(-0.00243545 -0.00632625 7.19818e-05)
(0.00161408 0.00103759 3.66102e-05)
(0.000481044 -4.49741e-05 -1.26871e-06)
(0.000905249 -3.04687e-05 -1.00583e-06)
(0.000811309 -2.00391e-05 -6.76034e-07)
(0.000822543 -1.1577e-05 1.79047e-07)
(0.000815446 -7.34632e-06 9.91975e-08)
(0.000813608 -4.18991e-06 2.96094e-07)
(0.000811877 -2.67307e-06 5.24907e-08)
(0.000809832 -1.74672e-06 4.18515e-08)
(0.000807933 -1.15197e-06 5.82161e-08)
(0.000806292 -7.36021e-07 5.04211e-08)
(0.000804655 -5.61215e-07 4.65501e-08)
(0.00080294 -2.3607e-07 5.1288e-08)
(0.00080163 -1.30108e-07 1.01175e-07)
(0.000800195 -1.9512e-07 6.37852e-08)
(0.000798518 -4.54584e-08 5.76921e-08)
(0.000797142 -5.8169e-08 6.11259e-08)
(0.000795678 2.40798e-08 9.1572e-08)
(0.000794126 1.68249e-08 6.78368e-08)
(0.00079267 -3.75944e-08 6.50233e-08)
(0.000791201 1.63266e-07 6.7027e-08)
(0.000789788 2.8255e-07 4.75855e-08)
(0.000788025 3.98949e-07 2.39435e-08)
(0.000786252 2.15786e-07 5.39764e-08)
(0.000785131 9.20812e-08 5.52731e-08)
(0.000783688 -1.17127e-07 2.21626e-08)
(0.000781965 1.50098e-07 3.79692e-08)
(0.000780594 1.37612e-07 4.87741e-08)
(0.000779214 2.17445e-07 4.72494e-08)
(0.000777731 8.39224e-08 5.0639e-08)
(0.000776292 6.12759e-08 5.29198e-08)
(0.000774794 8.56874e-09 6.98501e-08)
(0.000773365 -9.45177e-08 4.21993e-08)
(0.000772136 -9.51712e-08 -1.84766e-07)
(0.000770736 6.70923e-08 5.98241e-08)
(0.000769257 1.28809e-07 4.11082e-07)
(0.000768054 2.50456e-08 1.73723e-08)
(0.000766437 -1.36574e-08 1.66086e-08)
(0.000764881 -6.11645e-08 1.93565e-07)
(0.000763816 -1.71484e-07 5.0495e-08)
(0.000762601 -4.98286e-07 5.88538e-09)
(0.000760787 -8.51329e-07 3.56753e-08)
(0.000759051 -2.72073e-07 7.4036e-08)
(0.000757626 4.90221e-08 5.20586e-08)
(-0.0140237 -0.0103341 0.000719723)
(0.00214183 -0.0144231 0.000437514)
(-0.00804039 0.00363548 0.000598566)
(0.00694318 -0.00778194 0.00010113)
(0.000985417 0.00449556 0.00113185)
(0.00333943 -0.00682937 7.47008e-05)
(0.00285682 9.45174e-05 0.000112057)
(0.00051351 -7.84554e-06 -1.46564e-06)
(0.000915542 -1.05399e-05 -1.13391e-06)
(0.000819764 -6.56254e-06 -6.7953e-07)
(0.000828117 -5.47965e-06 1.75634e-07)
(0.00081952 -3.83895e-06 8.01828e-09)
(0.000816222 -2.30875e-06 6.97913e-08)
(0.000812675 -1.59866e-06 4.26348e-08)
(0.000810479 -1.03554e-06 3.59826e-08)
(0.00080854 -7.86111e-07 8.59969e-08)
(0.000806622 -5.21566e-07 5.08787e-08)
(0.00080496 -3.28088e-07 5.83713e-08)
(0.000803578 -2.76268e-07 3.92878e-08)
(0.000801731 3.82654e-08 1.93349e-07)
(0.000800174 8.92009e-08 1.07418e-07)
(0.000798795 7.88974e-08 1.04721e-07)
(0.000797113 1.36096e-07 6.96485e-08)
(0.0007956 7.10171e-08 3.08019e-08)
(0.000793948 6.86669e-08 4.98411e-08)
(0.000792596 8.20436e-08 5.67228e-10)
(0.000791337 -7.4299e-08 3.86324e-08)
(0.000789802 -1.61432e-07 -1.63256e-10)
(0.00078826 -4.76741e-08 2.70213e-08)
(0.000786351 -3.09524e-07 -7.20608e-08)
(0.000784516 -2.01357e-07 3.63819e-08)
(0.000783532 -1.96804e-07 1.93789e-07)
(0.000782339 -1.81886e-07 1.44239e-08)
(0.000780711 -8.09049e-08 -2.00141e-07)
(0.000779192 -8.44743e-08 -2.86258e-08)
(0.000777711 -4.71245e-09 4.44785e-08)
(0.000776322 4.5361e-08 5.22706e-08)
(0.000774864 6.24405e-08 5.42214e-08)
(0.000773364 1.79515e-07 6.16505e-08)
(0.000772139 1.73653e-07 5.83108e-08)
(0.000770851 1.53319e-07 3.25034e-08)
(0.000769282 3.7945e-07 2.59021e-07)
(0.000767822 1.99838e-07 3.29017e-08)
(0.000766267 -3.63737e-08 6.39258e-08)
(0.000764724 -5.60775e-08 1.67713e-07)
(0.000763235 -2.00541e-07 4.55819e-08)
(0.000761665 -5.30013e-07 -6.91746e-08)
(0.00076097 -7.42419e-07 -4.20638e-08)
(0.000760141 -5.11627e-07 1.09995e-07)
(0.000758195 -3.34234e-07 1.28743e-07)
(-0.00904525 0.0107812 -0.00141034)
(-0.00759449 -0.00479263 0.0014733)
(-0.00410263 -0.000776251 0.000435779)
(0.00272853 0.00760779 -0.000408287)
(0.00574852 0.00944348 5.60969e-05)
(-0.000971035 -0.00284268 -0.000241848)
(0.00138221 -0.000400342 -2.79227e-05)
(0.000494535 5.56181e-06 1.9307e-07)
(0.000881825 -1.14664e-05 -1.31649e-06)
(0.000817608 1.63531e-06 -4.16801e-07)
(0.000825981 -1.08728e-06 1.78645e-07)
(0.000819435 -3.90644e-07 3.87343e-08)
(0.000816425 -6.07411e-07 5.39731e-08)
(0.00081348 -3.57789e-07 4.83219e-08)
(0.000810856 -2.83147e-07 4.13096e-08)
(0.000808581 -9.78331e-08 5.12287e-08)
(0.000806869 -7.77903e-08 5.13297e-08)
(0.000804964 2.43131e-08 3.76055e-08)
(0.000803399 -6.07073e-08 4.85566e-08)
(0.000802086 -1.51349e-07 5.41845e-08)
(0.000800245 6.49359e-08 -5.39637e-08)
(0.000798575 -8.41886e-09 4.90076e-08)
(0.000797132 6.47297e-08 4.25004e-08)
(0.000795593 2.36583e-08 4.74e-08)
(0.000794139 1.50018e-07 6.95869e-08)
(0.000792491 8.47839e-08 7.55015e-08)
(0.000790898 -1.5184e-07 6.1121e-08)
(0.000789823 -3.30542e-07 4.56442e-08)
(0.000787843 -8.84914e-07 -5.92714e-08)
(0.000786063 -8.03542e-07 1.16813e-08)
(0.000785275 -4.41193e-07 9.20667e-09)
(0.000783716 -2.57504e-08 1.19203e-07)
(0.000782112 -2.63432e-08 4.01402e-08)
(0.000780718 -8.77145e-08 5.41353e-08)
(0.00077931 -9.83637e-08 7.11875e-08)
(0.000777894 -9.50516e-09 5.18616e-08)
(0.000776376 3.40301e-08 5.1832e-08)
(0.000774961 1.00563e-07 9.02518e-08)
(0.000773503 7.6642e-08 7.09488e-08)
(0.000772101 2.47861e-07 -5.61354e-08)
(0.000770992 1.58095e-08 4.45587e-08)
(0.000769314 -2.2436e-07 -3.22237e-08)
(0.000767534 -1.42221e-07 5.83139e-08)
(0.000766117 -2.36715e-07 5.68165e-08)
(0.000764677 -8.49334e-08 1.57215e-08)
(0.000763226 -1.96808e-08 5.04253e-08)
(0.000761928 -2.20452e-08 7.5989e-08)
(0.000760815 1.54102e-07 3.28505e-08)
(0.000759571 -2.49166e-07 -4.80054e-10)
(0.000758682 -3.09172e-07 4.17688e-08)
(-0.000252553 0.0136729 -5.14961e-05)
(0.00742828 0.00894492 0.000535216)
(0.00907228 -0.00923671 -0.000547258)
(-0.00908829 0.00456422 0.000367936)
(-0.0141823 -0.00216093 -0.000249328)
(0.00160906 0.00369417 6.13951e-05)
(0.000477047 0.000165879 5.98011e-05)
(0.000897079 3.87577e-05 -2.14025e-06)
(0.0008417 -3.67808e-06 -3.19891e-07)
(0.000832771 6.61383e-06 -2.10096e-11)
(0.000825572 3.39874e-06 2.05326e-08)
(0.000820118 2.69151e-06 3.18601e-08)
(0.000816261 1.73305e-06 4.34965e-08)
(0.00081308 1.10263e-06 4.51207e-08)
(0.000810803 6.02021e-07 5.57013e-08)
(0.000808796 4.777e-07 4.92176e-08)
(0.000806773 3.92555e-07 1.4142e-07)
(0.00080498 2.77389e-07 1.52683e-07)
(0.000803358 4.76714e-07 1.46901e-07)
(0.000801888 1.89629e-07 3.37409e-08)
(0.000800352 -4.89112e-08 4.95606e-08)
(0.000798794 -7.47945e-08 6.01463e-08)
(0.000797153 -2.20603e-07 3.2821e-08)
(0.000795706 -1.84131e-07 4.78747e-08)
(0.000794024 -4.32567e-07 1.0247e-07)
(0.000792219 -3.47924e-07 5.29606e-08)
(0.000790819 -1.39383e-07 3.81366e-08)
(0.000788889 -2.32041e-07 6.09824e-08)
(0.000787674 -4.32147e-07 1.60765e-07)
(0.000786912 1.52947e-07 6.76148e-08)
(0.000785492 3.08262e-07 9.16056e-08)
(0.000784053 3.37747e-08 1.40549e-07)
(0.000782262 2.45547e-08 4.35445e-08)
(0.000780622 8.46115e-08 5.23771e-08)
(0.000779291 8.07261e-08 4.17423e-08)
(0.000777877 -4.10734e-08 6.66152e-08)
(0.000776459 -8.36532e-08 5.97359e-08)
(0.000774917 -1.83782e-07 3.78658e-08)
(0.000773546 -6.03761e-08 4.25558e-08)
(0.000772062 -5.05313e-08 8.15835e-08)
(0.000770261 -1.19284e-07 1.94011e-08)
(0.000769086 -1.91288e-07 6.76133e-08)
(0.000767808 -5.61314e-08 2.92022e-08)
(0.00076634 -9.17825e-08 4.4872e-08)
(0.000764997 -3.66597e-08 6.04827e-08)
(0.000763314 7.89194e-08 4.69615e-08)
(0.000761883 4.30579e-07 4.40345e-08)
(0.000760687 3.2996e-07 5.21941e-08)
(0.000759571 1.88129e-07 -4.76027e-08)
(0.000758892 -1.83374e-09 -5.16633e-09)
(-0.00169029 0.00193642 0.000358243)
(-0.00867432 0.00706226 -0.000522267)
(-0.00435667 0.00286493 0.000117271)
(0.00777477 0.000596912 -0.00027431)
(0.00716619 -0.00492311 -0.000475928)
(-0.000551659 0.00604994 1.92335e-05)
(0.000383767 -1.51876e-05 6.61386e-06)
(0.000859741 3.11815e-05 -2.40944e-06)
(0.000831173 2.07153e-05 5.87341e-08)
(0.000826358 1.43229e-05 7.07205e-08)
(0.000821031 9.05053e-06 4.95279e-08)
(0.000817325 6.03782e-06 4.42834e-08)
(0.000814419 3.87586e-06 4.48861e-08)
(0.000812054 2.36783e-06 4.86729e-08)
(0.000810066 1.59712e-06 5.27649e-08)
(0.000808314 1.06308e-06 1.02866e-07)
(0.000806614 7.3251e-07 5.78638e-08)
(0.000805066 4.81183e-07 2.17453e-07)
(0.000803286 4.28193e-07 -1.06891e-08)
(0.000801428 2.91789e-07 7.6745e-08)
(0.000799915 1.33077e-07 4.69799e-08)
(0.000798362 -7.08377e-08 7.1058e-08)
(0.000796997 -1.93351e-07 2.17764e-08)
(0.000795332 -2.5564e-07 5.3487e-08)
(0.000793938 -4.2564e-07 -7.65556e-09)
(0.00079286 -3.77977e-07 6.27686e-08)
(0.000791045 -2.24738e-07 3.06473e-08)
(0.00078946 -1.00962e-07 8.42209e-08)
(0.000788325 2.63015e-07 1.03289e-07)
(0.000786988 2.90522e-07 2.52047e-08)
(0.000785125 3.22135e-07 5.18829e-09)
(0.000783359 2.01875e-07 8.9513e-08)
(0.000782175 -1.17965e-07 -1.56745e-07)
(0.000780787 -6.33312e-08 1.63195e-09)
(0.000779153 -1.70004e-07 2.96747e-08)
(0.000777689 -1.89691e-07 1.65212e-08)
(0.000776199 -2.4389e-07 5.24846e-08)
(0.000774991 -3.06511e-07 5.368e-08)
(0.00077367 -3.67072e-07 8.03958e-08)
(0.000772028 -3.62392e-07 4.02738e-08)
(0.000770817 -2.07081e-07 5.91587e-08)
(0.000769395 -8.21713e-08 1.656e-08)
(0.00076766 1.21803e-07 7.22866e-08)
(0.000766142 9.39133e-08 4.06438e-08)
(0.000764891 1.48559e-07 6.48725e-08)
(0.000763808 1.32174e-07 5.01965e-08)
(0.000762239 3.69276e-07 3.64766e-08)
(0.000760509 4.60354e-07 4.01505e-08)
(0.000759155 6.95517e-07 -7.33745e-08)
(0.000758446 4.26939e-07 8.44974e-08)
(-0.00451071 0.00130918 -3.92975e-05)
(0.00649452 0.000493886 0.000357817)
(-0.00031015 0.00182165 -1.2523e-05)
(0.000539945 0.00587952 0.00028313)
(-0.000278908 -0.00155019 -3.29574e-05)
(0.00149587 -0.00276218 -3.83979e-05)
(0.000472863 1.7658e-05 -2.2192e-06)
(0.0008406 4.6329e-05 -2.78893e-06)
(0.000820137 2.897e-05 -1.2671e-07)
(0.000818052 1.81318e-05 1.68069e-08)
(0.000815125 1.1244e-05 6.99709e-08)
(0.000813593 6.83261e-06 4.30228e-08)
(0.000811637 4.18468e-06 4.818e-08)
(0.000810209 2.78831e-06 -1.50073e-07)
(0.000809158 1.81002e-06 4.99357e-08)
(0.000807705 1.12902e-06 7.07257e-08)
(0.000806039 6.21822e-07 4.83336e-08)
(0.000804595 3.32353e-07 2.46665e-07)
(0.000803118 1.32385e-09 7.1267e-08)
(0.000801517 -3.28544e-08 5.56243e-08)
(0.000799898 -1.53114e-08 2.40312e-08)
(0.000798387 3.3474e-08 1.38033e-07)
(0.000796924 1.05944e-07 5.548e-08)
(0.000795419 -3.82158e-09 4.11411e-08)
(0.000793875 1.26846e-07 5.93314e-08)
(0.000792473 6.40872e-08 7.03027e-08)
(0.000791168 -1.09364e-07 1.47594e-07)
(0.0007895 4.79774e-08 5.01835e-08)
(0.000788163 9.85568e-08 1.16264e-07)
(0.000786984 -1.29905e-07 4.80078e-08)
(0.000785379 -1.69474e-07 1.30185e-07)
(0.000783502 -1.54282e-07 -7.71503e-09)
(0.000781931 -1.32759e-07 -7.76458e-08)
(0.000780558 -2.80425e-07 2.00348e-07)
(0.000779135 -1.56269e-07 4.37882e-08)
(0.000777787 -1.46722e-07 6.76528e-08)
(0.000776315 -1.49964e-07 5.82662e-08)
(0.000774766 -1.91497e-07 4.67645e-08)
(0.00077348 -6.61489e-07 5.91029e-08)
(0.000772265 -2.89296e-07 6.00294e-08)
(0.000770614 -2.02879e-07 5.92245e-08)
(0.000769498 -3.39818e-07 7.57315e-08)
(0.000768029 -2.5791e-07 3.88408e-08)
(0.000766372 1.98314e-07 3.0443e-08)
(0.000765044 7.49653e-08 3.60548e-08)
(0.000763587 1.01402e-07 -1.40116e-07)
(0.000762289 -9.71992e-08 9.02922e-08)
(0.000761089 1.15254e-07 3.49388e-08)
(0.000759515 2.87649e-07 -1.40938e-08)
(0.000757492 2.60552e-07 6.95211e-08)
(0.00280071 -0.00163306 0.000376138)
(0.00360389 0.00148086 0.000137141)
(-0.00938356 -0.00214246 -0.00132328)
(0.0278941 0.0161489 -0.0016358)
(-0.0119306 0.00776164 -0.153271)
(0.00141426 -0.00050166 0.00150365)
(0.00129083 0.000245475 -7.03907e-07)
(0.00132658 8.20056e-05 3.31047e-07)
(0.00132636 4.43265e-05 3.27945e-07)
(0.00134072 2.48539e-05 3.50037e-07)
(0.00134529 1.46083e-05 3.62488e-07)
(0.00134792 8.49725e-06 2.56926e-07)
(0.00134936 5.1086e-06 2.5961e-07)
(0.00134882 3.39257e-06 2.39229e-07)
(0.00134692 2.13227e-06 3.34387e-07)
(0.00134498 1.29989e-06 3.71819e-07)
(0.00134294 6.07964e-07 3.38101e-07)
(0.00134069 2.96304e-07 3.24492e-07)
(0.00133822 7.86952e-08 2.09108e-07)
(0.00133586 2.68183e-08 4.22711e-07)
(0.00133354 1.19991e-08 5.1019e-07)
(0.00133097 1.93083e-07 3.39862e-07)
(0.00132835 -3.19312e-08 4.16293e-07)
(0.00132577 4.11223e-08 2.90059e-07)
(0.00132349 4.23249e-07 3.3031e-07)
(0.00132099 6.84808e-07 3.28671e-07)
(0.00131851 4.5912e-07 2.76113e-07)
(0.00131642 2.70825e-07 3.32455e-07)
(0.00131363 5.64512e-07 4.0233e-07)
(0.00131107 -1.69761e-07 5.28252e-07)
(0.00130851 -8.36539e-07 3.62819e-07)
(0.00130568 -9.3164e-07 2.29627e-07)
(0.00130339 -7.59319e-07 3.4239e-07)
(0.00130144 -4.27758e-07 2.73263e-07)
(0.00129905 1.48631e-07 3.14942e-07)
(0.00129631 1.22318e-07 3.22419e-07)
(0.00129367 1.73372e-07 3.09346e-07)
(0.00129072 4.19947e-07 3.12362e-07)
(0.00128926 1.06859e-06 2.83308e-07)
(0.00128765 4.2929e-07 4.56271e-07)
(0.00128468 5.42076e-08 2.8568e-07)
(0.00128226 4.19861e-09 3.49515e-07)
(0.00128061 -8.28143e-07 3.64545e-07)
(0.00127767 -7.21456e-07 2.16813e-07)
(0.00127473 -3.94187e-07 2.80399e-07)
(0.00127272 -2.38519e-07 1.94474e-07)
(0.00127043 -1.87941e-07 2.98374e-07)
(0.00126837 -3.25392e-07 3.37698e-07)
(0.00126558 -6.57328e-07 3.51819e-07)
(0.00126289 -4.83798e-07 2.43275e-07)
(-0.00575932 -0.0176792 0.00496633)
(-0.00267743 -0.00436415 -0.00144553)
(-0.0140723 0.0184436 0.0012188)
(-0.00597464 -0.00579251 0.00329375)
(0.0332753 0.00760782 -0.0141921)
(-0.0057082 0.0145018 0.00374155)
(0.0010876 0.000224933 2.36562e-05)
(0.00127835 4.2558e-06 3.28033e-07)
(0.00129518 6.01567e-07 3.17936e-07)
(0.00132604 8.55098e-07 3.30691e-07)
(0.00133816 9.73549e-07 3.34526e-07)
(0.00134431 6.47522e-07 3.357e-07)
(0.00134652 5.25359e-07 3.385e-07)
(0.00134684 1.88453e-07 3.36132e-07)
(0.00134622 8.54135e-08 3.36371e-07)
(0.00134448 -4.00733e-08 2.20896e-07)
(0.00134239 3.00732e-07 3.21599e-07)
(0.00134055 4.35243e-07 3.97811e-07)
(0.00133841 6.54168e-07 3.09048e-07)
(0.00133589 3.69203e-07 3.06622e-07)
(0.0013334 3.40446e-07 3.91343e-07)
(0.00133068 2.39755e-07 3.65625e-07)
(0.00132817 5.06122e-07 6.06548e-07)
(0.00132643 4.80859e-07 5.71162e-07)
(0.00132404 3.4631e-07 1.50679e-07)
(0.00132094 1.01301e-07 3.66204e-07)
(0.00131825 1.58812e-07 3.05306e-07)
(0.00131614 -1.40104e-07 3.28548e-07)
(0.00131321 -7.63262e-07 3.19306e-07)
(0.00131001 -5.38996e-07 2.18568e-07)
(0.00130805 -5.07988e-07 3.50569e-08)
(0.00130595 -2.95046e-07 2.69416e-07)
(0.0013039 5.74546e-07 4.72779e-07)
(0.00130212 6.07668e-07 4.28296e-07)
(0.00129934 1.24677e-07 3.33893e-07)
(0.00129647 1.84318e-07 3.16611e-07)
(0.00129433 3.24534e-07 3.56132e-07)
(0.00129243 6.4621e-07 1.15586e-07)
(0.00128913 1.21601e-06 3.33509e-07)
(0.00128591 6.35095e-07 9.12633e-07)
(0.00128394 2.64297e-07 3.36202e-07)
(0.0012814 4.11645e-09 3.65915e-07)
(0.00127915 -4.41128e-07 3.02213e-07)
(0.00127794 -1.16506e-06 4.88476e-07)
(0.00127579 -3.57398e-07 3.56553e-07)
(0.00127298 -2.72668e-07 3.34322e-07)
(0.00127049 -5.22639e-08 3.58439e-07)
(0.00126793 -1.31061e-07 3.10616e-07)
(0.00126564 -3.18029e-07 8.43248e-08)
(0.00126394 -3.20451e-07 4.04968e-07)
(-0.0456887 -0.0623813 -0.00661366)
(0.0304897 0.0178159 -0.00185587)
(0.0215072 0.000499963 0.00210237)
(-0.00843277 0.00296074 0.00159124)
(0.0268934 0.0224258 -0.00124421)
(-0.0270368 0.0074652 0.00110684)
(0.000925939 -0.000264665 2.18453e-06)
(0.00140928 -0.000104672 3.69021e-07)
(0.00132286 -9.59116e-06 -1.98863e-07)
(0.00134127 -1.83858e-05 3.33915e-07)
(0.00134507 -8.81791e-06 5.68228e-07)
(0.00134738 -5.82679e-06 3.92308e-07)
(0.0013488 -3.673e-06 5.39059e-07)
(0.00134828 -2.31619e-06 3.38543e-07)
(0.00134664 -1.44823e-06 3.33922e-07)
(0.00134525 -1.00385e-06 -2.45953e-07)
(0.00134353 -4.96845e-07 3.47661e-07)
(0.00134113 -2.52288e-07 2.417e-07)
(0.00133814 -3.7285e-07 3.57389e-07)
(0.00133546 -1.3931e-07 3.23241e-07)
(0.00133337 -4.02006e-08 5.09666e-07)
(0.00133117 6.85731e-08 3.31725e-07)
(0.00132864 4.16383e-07 3.20866e-07)
(0.00132556 3.91453e-07 2.96223e-07)
(0.00132301 5.71308e-08 3.42614e-07)
(0.00132075 -4.55125e-08 3.06578e-07)
(0.00131821 -3.5274e-08 2.58494e-07)
(0.00131527 3.47899e-09 3.20512e-07)
(0.00131313 -2.13758e-07 1.96603e-07)
(0.0013114 6.40771e-07 2.67443e-07)
(0.00130883 8.8442e-07 4.87293e-07)
(0.00130703 8.7712e-07 4.7476e-07)
(0.00130452 7.70728e-07 2.17732e-07)
(0.00130087 5.13932e-07 1.88016e-07)
(0.00129852 -5.48985e-09 3.66612e-07)
(0.00129656 1.20311e-07 3.36409e-07)
(0.00129425 1.05297e-07 2.8181e-07)
(0.00129183 -7.22641e-08 3.46277e-07)
(0.00128924 -3.87726e-07 3.07274e-07)
(0.00128645 -3.04495e-08 3.43848e-07)
(0.00128389 1.40832e-07 1.38832e-07)
(0.00128138 2.78934e-07 3.66328e-07)
(0.00127916 9.34958e-07 3.32053e-07)
(0.00127778 1.03692e-06 3.54599e-07)
(0.00127586 4.62981e-07 2.63306e-07)
(0.00127311 3.71208e-07 3.04858e-07)
(0.00127061 4.49392e-07 4.20952e-07)
(0.00126804 6.43049e-07 3.47764e-07)
(0.00126535 3.56701e-07 3.29504e-07)
(0.00126369 2.04678e-07 5.02799e-07)
(0.0165611 -0.00723899 -0.0207617)
(-0.0527631 0.0246308 -0.00551407)
(0.0053055 0.00250407 -0.007968)
(-0.0196715 -0.0083328 0.00345281)
(-0.00175574 -0.0074084 -0.00144039)
(0.0317427 0.0306507 -0.00216842)
(0.000570651 -0.000172628 2.61049e-05)
(0.00125093 -0.000132914 3.90766e-07)
(0.00142968 -2.37815e-05 3.00524e-07)
(0.00132742 -2.99497e-05 2.69144e-07)
(0.00135398 -1.55463e-05 3.38213e-07)
(0.0013508 -9.67603e-06 1.58375e-07)
(0.00135095 -6.25863e-06 3.38133e-07)
(0.00134965 -3.86093e-06 3.37706e-07)
(0.00134788 -2.25889e-06 3.36736e-07)
(0.00134568 -1.24084e-06 3.33965e-07)
(0.00134333 -1.08876e-06 3.36919e-07)
(0.00134071 -8.86792e-07 3.36117e-07)
(0.00133855 -9.84169e-07 3.5292e-07)
(0.00133631 -6.6345e-07 3.07198e-07)
(0.00133366 -3.9005e-07 3.06105e-07)
(0.00133125 -3.19664e-07 3.32864e-07)
(0.00132857 -5.01871e-07 2.8891e-07)
(0.00132597 -2.44245e-07 3.72515e-07)
(0.00132349 5.47641e-08 2.73211e-07)
(0.00132083 2.71182e-07 2.70109e-07)
(0.00131832 4.47679e-07 3.91872e-07)
(0.00131591 7.55052e-07 3.60493e-07)
(0.001314 1.40212e-06 2.64452e-07)
(0.00131138 1.06421e-06 3.03873e-07)
(0.00130834 7.45621e-07 3.647e-07)
(0.0013058 9.52539e-07 2.80496e-07)
(0.00130344 1.06066e-07 3.1876e-07)
(0.00130115 -9.04956e-09 3.23823e-07)
(0.00129885 2.1738e-07 3.21925e-07)
(0.0012966 1.54281e-07 6.08968e-07)
(0.00129409 -1.06007e-08 4.8207e-07)
(0.00129181 -1.35722e-07 3.39234e-07)
(0.00128919 -4.01825e-07 1.91685e-07)
(0.00128657 -3.72474e-07 1.16928e-07)
(0.00128432 1.88069e-08 1.45729e-07)
(0.00128239 3.18746e-07 3.6224e-07)
(0.00128009 6.78225e-07 5.89399e-07)
(0.00127735 1.05948e-06 -3.37323e-08)
(0.00127495 3.7754e-07 2.20007e-07)
(0.00127296 2.34473e-07 3.24193e-07)
(0.00127083 3.26089e-07 3.73368e-07)
(0.00126781 5.40155e-07 3.19479e-07)
(0.00126509 3.35953e-07 3.74432e-07)
(0.00126324 4.24156e-07 5.41051e-07)
(0.00736433 0.0153282 -0.00611757)
(0.0012357 -0.00193544 -0.0020095)
(-0.00321557 0.00802672 0.00063052)
(0.0159748 0.00099989 0.00291961)
(-0.0423819 -0.0326408 -0.000987428)
(-0.00167858 0.00940433 0.00141622)
(0.000854997 3.96056e-05 -0.00015748)
(0.0014297 -0.000134393 -4.62404e-09)
(0.00150715 -4.89758e-05 5.89665e-07)
(0.00135152 -3.22046e-05 4.16249e-07)
(0.00137056 -1.85159e-05 3.6435e-07)
(0.00135907 -1.17435e-05 9.59139e-07)
(0.00135612 -6.66768e-06 5.59672e-07)
(0.00135331 -4.27484e-06 3.39565e-07)
(0.00134993 -2.83194e-06 3.36581e-07)
(0.00134672 -1.86836e-06 3.35322e-07)
(0.00134398 -1.18277e-06 3.36159e-07)
(0.00134127 -9.0635e-07 3.2889e-07)
(0.00133842 -3.51632e-07 3.05951e-07)
(0.00133621 -1.68211e-07 3.5575e-07)
(0.00133381 -2.87413e-07 3.66985e-07)
(0.00133104 -6.1383e-08 3.28157e-07)
(0.00132874 -8.66794e-08 4.13942e-07)
(0.00132626 1.43071e-08 3.69122e-07)
(0.00132366 5.00003e-08 2.55366e-07)
(0.00132124 -1.051e-07 3.66823e-07)
(0.00131881 2.47079e-07 3.83304e-07)
(0.00131646 4.56576e-07 3.14052e-07)
(0.00131351 6.83185e-07 2.85828e-07)
(0.00131056 3.89367e-07 3.34712e-07)
(0.00130867 1.94003e-07 3.55372e-07)
(0.00130622 -1.67179e-07 2.62066e-07)
(0.00130331 3.08291e-07 3.08069e-07)
(0.00130101 2.32037e-07 3.22685e-07)
(0.00129872 3.7214e-07 2.97711e-07)
(0.00129627 1.19366e-07 3.25849e-07)
(0.00129389 5.94749e-08 3.49491e-07)
(0.00129134 -2.51443e-08 3.03355e-07)
(0.00128894 -1.84549e-07 3.10443e-07)
(0.00128698 -1.55425e-07 -1.77788e-07)
(0.00128475 1.46908e-07 3.30428e-07)
(0.0012822 2.82948e-07 1.07819e-06)
(0.00128007 2.22123e-08 1.73214e-07)
(0.0012774 -4.01136e-08 2.11784e-07)
(0.00127482 -1.80082e-07 6.57677e-07)
(0.00127304 -3.29454e-07 3.18939e-07)
(0.00127099 -8.66566e-07 9.83248e-08)
(0.00126805 -1.37734e-06 3.07133e-07)
(0.00126519 -4.55814e-07 4.62368e-07)
(0.00126274 9.14411e-08 3.28885e-07)
(-0.000276123 -0.0171838 -0.000143284)
(0.019269 -0.018063 -0.0017406)
(-0.00878676 -0.0167083 -0.00665527)
(0.00818911 -0.00661675 0.00213855)
(0.0124687 0.00125536 0.000869255)
(-0.00736344 -0.00178763 -0.000352236)
(0.000244307 0.00137065 -3.48058e-05)
(0.00153491 -3.20072e-05 4.03517e-08)
(0.00152513 -1.75509e-05 5.62428e-07)
(0.0013656 -1.07182e-05 3.64647e-07)
(0.00137971 -8.87163e-06 3.03589e-07)
(0.00136571 -6.19103e-06 3.07075e-07)
(0.00136034 -3.70134e-06 3.81364e-07)
(0.00135448 -2.563e-06 3.38052e-07)
(0.00135091 -1.69418e-06 3.71336e-07)
(0.00134776 -1.28153e-06 3.87502e-07)
(0.00134455 -8.26458e-07 3.36373e-07)
(0.00134176 -5.05894e-07 3.65102e-07)
(0.00133948 -4.24148e-07 3.30586e-07)
(0.0013364 8.93581e-08 6.28513e-07)
(0.0013338 1.82798e-07 4.20975e-07)
(0.00133151 1.66528e-07 6.8761e-07)