/*--------------------------------*- C++ -*----------------------------------*\
| =========                 |                                                 |
| \\      /  F ield         | OpenFOAM: The Open Source CFD Toolbox           |
|  \\    /   O peration     | Version:  5.0                                   |
|   \\  /    A nd           | Web:      www.OpenFOAM.org                      |
|    \\/     M anipulation  |                                                 |
\*---------------------------------------------------------------------------*/
FoamFile
{
    version     2.0;
    format      ascii;
    class       volVectorField;
    location    "1.2";
    object      U_0;
}
// * * * * * * * * * * * * * * * * * * * * * * * * * * * * * * * * * * * * * //

dimensions      [0 1 -1 0 0 0 0];

internalField   nonuniform List<vector> 
7975
(
(-0.0027143 0.00296291 0.000119136)
(-0.000811179 -0.00365535 -0.000766831)
(-0.00825721 0.0204373 -0.000172183)
(0.00896103 0.00454256 -0.000663013)
(0.0229489 0.000141972 -0.000600558)
(0.000701072 -2.39952e-05 0.000251551)
(0.000413097 7.85367e-05 -1.76101e-06)
(0.000798028 4.86684e-05 -2.43113e-06)
(0.000799081 2.86743e-05 -8.34012e-08)
(0.000807667 1.70153e-05 7.63425e-08)
(0.000809615 1.04102e-05 6.56239e-08)
(0.000810558 6.1745e-06 7.03631e-08)
(0.000811019 3.80051e-06 -9.65995e-10)
(0.000810116 2.72046e-06 5.26464e-08)
(0.000808475 1.6864e-06 3.52546e-08)
(0.000807307 1.11595e-06 1.95593e-08)
(0.00080602 5.59196e-07 5.28672e-08)
(0.000804429 2.76026e-07 3.13018e-08)
(0.000802668 5.79477e-08 6.90661e-08)
(0.000801395 -1.96135e-07 9.68075e-08)
(0.000800176 -7.1763e-08 5.79237e-08)
(0.000798386 4.10511e-08 1.50145e-08)
(0.000796758 -1.40486e-07 3.66075e-08)
(0.000795308 -6.34771e-08 4.9469e-08)
(0.00079366 1.09624e-07 1.4271e-08)
(0.000791876 2.58531e-07 6.02838e-08)
(0.00079069 3.84087e-07 6.4493e-08)
(0.000789593 1.4393e-07 5.01205e-08)
(0.000787588 3.43667e-07 6.77343e-08)
(0.000785738 -2.96691e-07 4.50218e-08)
(0.000784362 -6.79258e-07 -5.31339e-08)
(0.00078266 -5.89751e-07 -1.46258e-08)
(0.00078126 -4.91821e-07 8.49385e-08)
(0.000780281 -2.95101e-07 6.3152e-08)
(0.000778817 -5.27498e-08 4.50285e-08)
(0.00077716 -2.94651e-09 4.56455e-08)
(0.000775596 1.25118e-08 4.74802e-08)
(0.000774062 6.78718e-08 2.97187e-08)
(0.000772492 3.24025e-07 -1.84843e-07)
(0.00077131 4.31069e-07 6.77209e-08)
(0.000770163 5.94721e-08 3.10374e-08)
(0.000768551 2.03333e-08 7.39915e-08)
(0.000767272 -2.06309e-07 8.82765e-08)
(0.000765705 -2.46476e-07 2.46176e-07)
(0.000764101 -1.7159e-07 3.50485e-08)
(0.000762674 -8.29353e-08 4.6974e-08)
(0.000761351 -3.60402e-08 6.85142e-08)
(0.000760162 -4.10709e-07 8.452e-08)
(0.000758486 -3.35035e-07 -1.96486e-08)
(0.000756772 -2.24001e-07 6.33064e-08)
(-0.00871182 -0.00652377 0.000910285)
(0.00267846 0.00281749 -0.000649571)
(-0.0163265 -0.00689808 1.86807e-05)
(0.000924424 0.00538256 -0.000477264)
(0.00182792 -0.0230032 -0.00976822)
(0.0126891 -0.00640214 0.000441675)
(0.000395649 5.44908e-05 1.76603e-06)
(0.000788713 9.66059e-06 -2.00765e-06)
(0.000785578 6.36247e-06 5.48927e-08)
(0.000799598 4.80914e-06 1.19251e-07)
(0.000804861 3.52884e-06 7.4397e-08)
(0.000807703 2.36269e-06 6.75776e-08)
(0.000808816 1.61034e-06 5.92656e-08)
(0.000808732 8.32374e-07 4.90863e-08)
(0.000808101 5.89503e-07 4.99975e-08)
(0.000806874 3.7475e-07 2.6593e-08)
(0.000805446 3.57503e-07 5.26923e-08)
(0.000804285 3.60043e-07 7.94714e-08)
(0.000802906 4.60449e-07 5.0021e-08)
(0.000801405 4.28733e-07 2.70671e-08)
(0.000799807 3.31624e-07 9.64934e-08)
(0.000798057 1.88132e-07 -4.87221e-09)
(0.000796649 4.78642e-07 7.19572e-08)
(0.000795551 3.16758e-07 3.11809e-08)
(0.000794014 7.93652e-08 5.75274e-08)
(0.000792429 3.48357e-08 6.31012e-08)
(0.000790625 1.46377e-07 2.16172e-08)
(0.000789117 -1.82703e-07 4.59314e-08)
(0.000787177 -8.70533e-07 -6.13052e-09)
(0.000785095 -5.08083e-07 7.62476e-08)
(0.000784184 -4.24557e-07 1.3381e-07)
(0.000783023 -2.34226e-07 2.78437e-08)
(0.000781636 3.90488e-07 1.97899e-07)
(0.000780406 5.96432e-07 3.73233e-08)
(0.000778901 2.12207e-07 4.89594e-08)
(0.000777186 1.19518e-07 8.85491e-08)
(0.000775761 1.45014e-07 5.13436e-08)
(0.000774339 1.99987e-07 5.66752e-08)
(0.000772807 3.04923e-07 4.19736e-08)
(0.000771121 5.28917e-07 6.95806e-08)
(0.000769606 1.34241e-07 6.33831e-08)
(0.00076821 -2.80141e-07 6.17685e-08)
(0.000766827 -6.27931e-07 2.36554e-08)
(0.000765705 -3.94536e-07 9.14471e-08)
(0.000764343 -1.12671e-07 5.66365e-08)
(0.000762946 -9.22799e-08 5.14312e-08)
(0.000761352 3.73565e-08 1.8096e-08)
(0.000759813 -1.03021e-07 4.79708e-08)
(0.000758408 -2.89278e-07 8.3349e-08)
(0.000757441 -2.2388e-07 3.00507e-08)
(0.01467 -0.0164824 -0.00111582)
(0.0126531 -0.00381676 -0.000650827)
(0.00256696 -0.000204438 0.000973628)
(-0.00426927 -0.00434765 -0.000394824)
(-0.00133455 0.00443165 -0.000735036)
(0.00944993 -0.00797842 7.5288e-05)
(0.000257196 -4.0019e-05 7.42322e-06)
(0.000850219 -3.40507e-05 -1.45945e-06)
(0.000793219 7.94995e-06 -5.7126e-07)
(0.000804189 -3.50606e-06 6.9694e-08)
(0.000806588 -1.00414e-06 4.86968e-08)
(0.000808176 -8.40394e-07 6.43865e-08)
(0.000809115 -5.97552e-07 5.72728e-08)
(0.000808845 -4.97858e-07 5.13557e-08)
(0.000807907 -3.17834e-07 5.3173e-08)
(0.000807019 -2.90467e-07 6.52683e-08)
(0.000806003 -1.09992e-07 5.60015e-08)
(0.000804558 -5.80442e-08 3.42636e-08)
(0.000802754 -1.64347e-07 -3.27179e-08)
(0.000801233 -5.53026e-08 4.36447e-08)
(0.000799874 -1.1136e-07 5.17111e-08)
(0.000798567 8.10121e-08 4.73457e-08)
(0.000796916 2.70052e-07 7.48285e-09)
(0.000794806 2.65267e-07 -8.52371e-08)
(0.000793305 7.98182e-08 4.76805e-08)
(0.000791958 -1.27266e-08 3.40679e-08)
(0.000790418 -2.57949e-07 4.693e-08)
(0.000788325 -1.49328e-07 6.23673e-08)
(0.000787185 -3.0499e-07 -7.74957e-08)
(0.0007863 4.52295e-07 5.58855e-08)
(0.000784708 7.60047e-07 8.5614e-08)
(0.000783679 7.36279e-07 7.45204e-08)
(0.000782296 5.07496e-07 2.93089e-07)
(0.000780054 4.54726e-07 1.45752e-07)
(0.000778218 1.6807e-07 8.9634e-08)
(0.000777074 1.42715e-07 4.47487e-08)
(0.000775695 1.01988e-07 7.07376e-08)
(0.000774259 3.94146e-09 4.90256e-08)
(0.0007729 3.12337e-08 3.82693e-08)
(0.000771093 -1.34602e-07 6.6428e-08)
(0.00076915 -3.02609e-08 9.03535e-08)
(0.0007676 -1.01439e-07 6.76826e-08)
(0.000767133 4.96451e-07 2.56625e-07)
(0.000766352 2.15048e-07 8.19701e-08)
(0.000764483 9.46506e-08 7.69651e-08)
(0.000762862 7.1247e-08 3.76145e-08)
(0.000761339 1.51137e-07 3.18957e-08)
(0.000759755 1.19554e-07 7.52994e-08)
(0.000758341 1.0418e-07 6.49751e-08)
(0.000757411 7.34775e-08 7.01515e-08)
(0.00494909 0.0303774 0.000654203)
(-0.0285216 0.0138768 0.00556852)
(-0.0352828 -0.000301405 -8.59755e-05)
(-0.00580194 -0.00326941 0.000908194)
(0.0276977 -0.000823826 -0.00019878)
(0.00919358 -0.00970337 9.87179e-05)
(0.000628328 -0.000235437 -4.54758e-06)
(0.000395366 -2.71044e-05 -7.94417e-07)
(0.000842733 -4.97373e-06 -1.00797e-06)
(0.000788619 -1.30985e-05 -1.29094e-07)
(0.000808258 -6.62163e-06 2.01932e-07)
(0.000808248 -4.29889e-06 1.57765e-08)
(0.000809268 -2.92069e-06 6.05017e-08)
(0.000809097 -1.798e-06 5.86005e-08)
(0.00080837 -9.22376e-07 5.28174e-08)
(0.00080714 -4.37552e-07 4.71864e-08)
(0.000805741 -4.4595e-07 4.90893e-08)
(0.00080422 -4.1766e-07 1.2594e-07)
(0.000802912 -4.41205e-07 5.42211e-08)
(0.000801474 -2.40449e-07 3.01227e-08)
(0.000799979 -2.67816e-07 7.58017e-08)
(0.000798534 -2.37062e-07 5.25513e-08)
(0.000796879 -3.93352e-07 1.13637e-08)
(0.000795312 -1.88605e-07 4.16139e-08)
(0.000793666 3.73734e-08 2.73551e-08)
(0.000792007 1.97409e-07 3.08853e-08)
(0.000790455 2.75738e-07 6.40894e-08)
(0.000789059 4.10977e-07 8.49294e-08)
(0.000787928 1.06694e-06 7.20787e-08)
(0.000786423 7.73435e-07 2.59976e-08)
(0.000784533 8.10494e-07 1.92146e-08)
(0.000782701 7.8262e-07 2.31557e-10)
(0.00078128 2.55495e-07 4.65621e-08)
(0.000779979 -7.09623e-08 4.98944e-08)
(0.000778509 1.24638e-07 4.50563e-08)
(0.000777102 1.32985e-07 4.52121e-08)
(0.000775587 3.21009e-08 3.7004e-08)
(0.000774251 9.14455e-09 5.2884e-08)
(0.000772634 -2.615e-07 2.01161e-08)
(0.000771044 -2.91059e-07 3.85474e-08)
(0.000769647 4.46465e-09 3.36444e-08)
(0.000768867 5.01734e-07 2.30557e-08)
(0.00076722 7.64508e-07 4.6795e-08)
(0.000765199 3.41612e-07 1.23519e-08)
(0.00076416 5.05904e-09 4.60362e-08)
(0.000763014 -2.63659e-08 5.89777e-08)
(0.00076141 -6.75942e-09 8.01829e-08)
(0.000759752 5.31434e-08 4.93899e-08)
(0.000758347 2.41456e-07 4.21759e-08)
(0.000757219 2.23372e-07 4.48898e-08)
(0.00454735 0.0133031 -4.26022e-05)
(0.00818589 0.000811537 0.00100563)
(-0.0332776 -0.00142459 -0.00194464)
(-0.00679241 -0.00133843 -0.00094617)
(0.0082189 -0.00594661 9.16059e-05)
(-0.00288541 -0.00633508 0.000113265)
(0.00152098 0.000993415 2.95085e-05)
(0.000455718 -5.15774e-05 -8.32251e-07)
(0.000889075 -3.38253e-05 -9.52878e-07)
(0.000802138 -2.15651e-05 -6.21673e-07)
(0.000817664 -1.22094e-05 1.92999e-07)
(0.000812848 -7.65993e-06 4.64821e-09)
(0.000812271 -4.35428e-06 1.11406e-07)
(0.000811362 -2.80487e-06 5.51377e-08)
(0.000809618 -2.00502e-06 2.0853e-08)
(0.000807621 -1.34963e-06 -1.22864e-08)
(0.000806032 -7.80757e-07 5.18768e-08)
(0.000804567 -5.53966e-07 3.85322e-08)
(0.000802978 -2.274e-07 1.52275e-07)
(0.000801452 -1.48878e-07 9.52893e-08)
(0.000799881 -1.7006e-07 6.74261e-08)
(0.000798413 2.41811e-08 3.74341e-07)
(0.000796979 3.33674e-08 4.31637e-08)
(0.000795346 5.51335e-08 3.82498e-08)
(0.000793788 1.15125e-07 7.71261e-08)
(0.000792255 2.13759e-08 6.57166e-08)
(0.000790682 1.24972e-07 6.78208e-08)
(0.000789308 1.64502e-07 2.62593e-08)
(0.000787631 1.8912e-07 5.59313e-11)
(0.000785971 1.02874e-07 3.07019e-08)
(0.000784711 1.09171e-07 5.19305e-08)
(0.00078298 -1.97327e-07 4.30278e-08)
(0.000781225 1.42838e-07 8.1394e-08)
(0.000779889 8.41691e-08 5.07934e-08)
(0.000778472 1.80089e-07 6.02822e-08)
(0.000776957 6.21956e-08 4.70024e-08)
(0.00077554 4.64478e-08 5.25912e-08)
(0.000773893 -1.25932e-08 5.97612e-08)
(0.000772526 -6.29044e-08 9.01475e-08)
(0.000771427 8.5954e-08 9.02513e-08)
(0.00077014 2.26398e-07 5.24557e-08)
(0.000768547 4.73806e-07 1.55392e-07)
(0.000766928 3.67368e-08 5.17162e-08)
(0.0007654 9.28911e-08 -2.60802e-07)
(0.000764021 2.40987e-08 5.83504e-08)
(0.000762847 -1.33971e-07 4.67192e-08)
(0.000761438 -4.35332e-07 -3.5634e-08)
(0.000760064 -3.68576e-07 3.67692e-08)
(0.000758548 -2.99902e-07 1.28336e-07)
(0.000756833 9.4566e-08 9.33588e-08)
(-0.0147152 -0.0108947 0.000572012)
(0.000373109 -0.012458 0.00108271)
(-0.00877416 0.00326401 0.000466566)
(0.00694997 -0.00842811 0.00015531)
(0.00148756 0.00476094 0.000931473)
(0.00353315 -0.00750899 7.24155e-05)
(0.00281094 -4.53021e-06 0.000111809)
(0.000508821 -3.00382e-05 -1.1507e-06)
(0.000910887 -2.27313e-05 -1.14368e-06)
(0.000815757 -1.31601e-05 -6.20519e-07)
(0.000825726 -9.09088e-06 1.81077e-07)
(0.000818117 -5.8765e-06 3.93535e-08)
(0.000815369 -3.49221e-06 7.32564e-08)
(0.000812053 -2.3473e-06 4.85728e-08)
(0.000810203 -1.70574e-06 1.2155e-07)
(0.00080868 -1.17573e-06 9.17729e-08)
(0.000806742 -6.56313e-07 5.26697e-08)
(0.000804915 -3.22396e-07 7.02117e-08)
(0.00080342 -2.46171e-07 2.78769e-08)
(0.000801546 1.40346e-08 6.18431e-08)
(0.000800196 2.52081e-07 -1.65105e-07)
(0.000798789 1.76505e-07 7.25706e-08)
(0.000796917 1.11071e-07 1.63566e-07)
(0.000795414 -7.62529e-09 6.07852e-08)
(0.000793624 -4.6897e-08 6.13485e-08)
(0.000792018 -1.50894e-09 5.97367e-08)
(0.000790633 -8.37102e-08 4.06989e-08)
(0.000789137 -2.10794e-07 3.17903e-08)
(0.000787849 -1.67061e-07 7.82103e-08)
(0.00078632 -3.43141e-07 7.57199e-08)
(0.000784157 -5.12723e-07 6.19927e-09)
(0.000782742 -3.82602e-07 -8.81175e-09)
(0.000781631 -2.79091e-07 1.5337e-08)
(0.000780023 -1.3994e-07 5.49225e-08)
(0.00077848 -1.42455e-07 6.09888e-08)
(0.000776934 -1.8816e-08 4.85595e-08)
(0.000775494 4.88911e-08 5.06386e-08)
(0.000774115 6.67155e-08 1.05396e-07)
(0.000772758 2.53002e-07 1.13201e-07)
(0.000771406 1.53179e-07 6.80794e-08)
(0.000770131 1.96883e-07 3.73827e-08)
(0.000768628 9.58065e-08 -1.85535e-08)
(0.000766743 8.33804e-08 2.24279e-08)
(0.000765184 -2.62339e-08 5.14527e-08)
(0.000763878 2.13867e-08 4.75124e-08)
(0.000762443 -1.4818e-07 4.70913e-08)
(0.000761121 -4.65937e-07 -3.49812e-07)
(0.000759925 -5.10292e-07 3.28138e-08)
(0.000758927 -4.33711e-07 9.86454e-08)
(0.000757475 -1.68331e-07 1.85823e-07)
(-0.00764071 0.00978429 -0.00119172)
(-0.00891049 -0.0017201 0.0016685)
(-0.00768285 0.00424618 0.000403419)
(0.00245426 0.00738031 -0.000342225)
(0.00602717 0.00888072 3.41743e-05)
(-0.00087598 -0.00286505 -0.000229695)
(0.00140032 -0.000416701 -2.90955e-05)
(0.00050145 -1.16757e-05 4.06564e-07)
(0.000886305 -2.32841e-05 -1.32633e-06)
(0.000819162 -5.36513e-06 -4.12748e-07)
(0.000826793 -5.23402e-06 1.77308e-07)
(0.000819865 -2.8533e-06 3.94234e-08)
(0.000816695 -2.06621e-06 5.61182e-08)
(0.000813603 -1.1579e-06 5.11604e-08)
(0.00081109 -5.27103e-07 5.25941e-08)
(0.000808938 -2.1782e-07 5.5007e-08)
(0.000807101 -9.9105e-08 5.14179e-08)
(0.000805082 1.01974e-07 4.02276e-08)
(0.000803399 1.77257e-07 4.91617e-08)
(0.000802074 5.90876e-08 2.23298e-08)
(0.000800082 2.77084e-07 9.3517e-08)
(0.000798235 2.0332e-08 4.76134e-08)
(0.000796748 8.55031e-09 4.29598e-08)
(0.000795147 -9.03974e-08 5.71141e-08)
(0.000793795 -1.31234e-07 -3.72585e-09)
(0.000792209 1.49742e-07 1.78471e-07)
(0.000790421 -4.35644e-08 5.10582e-08)
(0.000789205 -3.85026e-08 7.27264e-08)
(0.000787468 -3.93898e-07 2.97062e-08)
(0.000785543 -6.39788e-07 1.21171e-08)
(0.000784666 -4.60626e-07 1.24965e-07)
(0.000783276 -8.25121e-08 6.32488e-08)
(0.000781531 -1.00709e-07 4.49091e-08)
(0.000780063 -9.80677e-08 -1.75348e-08)
(0.000778624 -1.0662e-07 1.50667e-07)
(0.000777197 1.25929e-08 5.14704e-08)
(0.000775646 7.00877e-08 4.84532e-08)
(0.000774148 1.07569e-07 5.91708e-08)
(0.000772633 1.71343e-07 4.87154e-08)
(0.000771356 3.08911e-07 1.14173e-08)
(0.000770067 3.25345e-08 4.31641e-08)
(0.000768404 -1.97423e-07 8.80562e-09)
(0.000766775 -2.41149e-07 1.93131e-08)
(0.000765322 -1.25565e-07 5.11916e-08)
(0.000763869 -6.89838e-08 9.75847e-09)
(0.00076224 3.13348e-08 4.94795e-08)
(0.000760989 1.60895e-08 8.14226e-09)
(0.000760109 -2.3009e-07 6.52495e-08)
(0.000758984 -1.16681e-07 2.11869e-07)
(0.000757584 -2.95459e-07 3.63659e-10)
(9.29349e-05 0.0132661 -3.9093e-06)
(0.00737918 0.00748884 0.000580112)
(0.0085244 -0.00797348 -0.000585443)
(-0.00896514 0.00466158 0.000343331)
(-0.0139693 -0.00222083 -0.000257011)
(0.00184173 0.00441117 5.91084e-05)
(0.00050016 0.000166465 5.72039e-05)
(0.000911751 3.21476e-05 -2.09916e-06)
(0.000851332 -1.01923e-05 -3.1594e-07)
(0.000838368 2.26732e-06 1.49687e-08)
(0.000828849 5.06844e-07 2.32808e-08)
(0.000822072 8.23361e-07 3.52348e-08)
(0.000817483 5.37483e-07 4.68961e-08)
(0.000813974 3.62443e-07 4.73506e-08)
(0.000811375 2.44452e-07 5.19616e-08)
(0.000809212 1.98347e-07 5.03789e-08)
(0.000807139 7.94529e-08 1.13707e-07)
(0.000805259 1.78684e-08 5.74465e-08)
(0.000803365 2.05957e-07 8.29703e-08)
(0.00080167 1.08479e-07 3.35409e-08)
(0.000800146 -1.47677e-07 4.98389e-08)
(0.000798452 -4.18127e-08 5.48491e-08)
(0.000796779 -1.88752e-07 4.34894e-08)
(0.00079524 -1.02651e-07 5.14008e-08)
(0.000793924 -2.59399e-07 4.35984e-08)
(0.000792128 -3.68143e-07 3.19254e-08)
(0.000790398 -8.11276e-08 3.13589e-08)
(0.000788702 2.13677e-08 1.82549e-07)
(0.000787102 -1.75431e-07 5.32077e-08)
(0.000786243 2.99028e-07 6.88603e-08)
(0.000784858 4.08345e-07 9.00175e-08)
(0.000783194 1.55074e-07 3.66612e-08)
(0.000781613 2.97345e-07 4.97849e-08)
(0.000780017 1.31765e-07 5.16813e-08)
(0.00077862 1.09965e-07 4.37944e-08)
(0.000777156 -4.70329e-08 3.76172e-08)
(0.000775613 -6.74511e-08 2.01424e-08)
(0.000774241 -1.09054e-07 3.4847e-08)
(0.000773008 8.93931e-08 3.98905e-08)
(0.000771231 1.41863e-07 6.95621e-08)
(0.000769497 -7.59669e-08 1.58756e-08)
(0.000768287 -1.43295e-07 4.78433e-08)
(0.000766835 -1.94506e-07 -6.59303e-08)
(0.000765401 -1.80395e-07 4.97921e-08)
(0.000764075 -3.65219e-08 5.31291e-08)
(0.00076255 1.08661e-07 4.51026e-08)
(0.000760795 4.96245e-07 5.96266e-08)
(0.000759761 6.52198e-07 6.95981e-08)
(0.000758854 2.22069e-07 1.95755e-10)
(0.000757989 -4.24373e-08 1.02248e-07)
(-0.00194266 0.00150422 0.000364633)
(-0.00907844 0.0066968 -0.000503281)
(-0.00438759 0.00291426 0.000144967)
(0.00742372 0.000504421 -0.000271124)
(0.0074682 -0.00489072 -0.000475601)
(-0.000455388 0.00595736 -5.15618e-07)
(0.000397058 -1.55756e-05 6.59173e-06)
(0.000874787 3.40642e-05 -2.45651e-06)
(0.000840498 2.06129e-05 5.04839e-08)
(0.000832445 1.342e-05 7.07279e-08)
(0.000824942 8.03741e-06 4.88218e-08)
(0.000819875 5.17914e-06 4.52185e-08)
(0.000816099 3.21755e-06 4.61083e-08)
(0.000813224 1.74017e-06 5.18475e-08)
(0.000810876 1.16355e-06 5.23226e-08)
(0.000808726 7.41963e-07 1.29181e-07)
(0.000806872 4.30657e-07 5.26538e-08)
(0.000805237 2.3401e-07 7.02805e-08)
(0.00080351 1.56542e-07 5.44989e-08)
(0.000801631 3.41229e-07 7.28765e-08)
(0.000799895 7.60989e-08 4.90476e-08)
(0.000798185 -1.66576e-07 5.32937e-08)
(0.000796674 -1.71484e-07 2.57281e-08)
(0.000795062 -1.66526e-07 5.4357e-08)
(0.000793466 -1.73334e-07 6.88045e-08)
(0.000792435 -4.16921e-07 6.28331e-08)
(0.00079091 -2.07545e-07 2.79621e-08)
(0.000789089 -1.20601e-07 4.94045e-08)
(0.000787815 1.66102e-07 1.0666e-07)
(0.000786271 3.81311e-07 5.10499e-08)
(0.000784484 2.70666e-07 1.58719e-07)
(0.000783135 1.3331e-07 6.3007e-08)
(0.000781501 -5.7804e-08 8.97219e-08)
(0.000779827 -1.45726e-07 6.01766e-08)
(0.000778401 -1.88789e-07 3.10689e-08)
(0.000776976 -2.14557e-07 8.08111e-08)
(0.00077557 -2.31035e-07 6.78303e-08)
(0.000774344 -1.66789e-07 5.0611e-08)
(0.000772947 -4.63698e-07 8.10497e-08)
(0.000771149 -6.91332e-07 3.6701e-08)
(0.000769711 -2.88144e-07 4.82244e-08)
(0.000768257 -1.95278e-07 -2.23549e-08)
(0.000766731 -8.57305e-08 5.10365e-08)
(0.000765521 6.41025e-08 4.6879e-08)
(0.000764231 1.21824e-07 4.49763e-08)
(0.000762905 1.14325e-07 2.00304e-08)
(0.000761666 3.04146e-07 3.41679e-08)
(0.000759763 8.89821e-07 2.58014e-08)
(0.000758115 6.47437e-07 -4.69543e-08)
(0.000757356 3.51416e-07 9.03018e-08)
(-0.0045166 0.00174995 -7.69026e-06)
(0.00626209 0.000849112 0.000317294)
(-0.00106908 0.00205811 1.42037e-05)
(-7.30091e-05 0.00531756 0.000305411)
(0.000239272 -0.00191396 9.64405e-05)
(0.00156676 -0.00269913 -5.49139e-05)
(0.000486629 3.94503e-05 -2.30668e-06)
(0.000846138 5.21352e-05 -2.63972e-06)
(0.000825009 3.13818e-05 -1.3241e-07)
(0.000822514 1.9181e-05 3.52442e-08)
(0.000818461 1.16769e-05 7.0417e-08)
(0.000815994 6.98936e-06 7.15211e-08)
(0.000813151 4.2651e-06 5.03624e-08)
(0.000811386 2.95049e-06 5.98386e-08)
(0.000810115 1.79416e-06 5.23173e-08)
(0.000808288 1.04019e-06 5.01098e-08)
(0.000806499 6.65306e-07 5.08939e-08)
(0.000804913 3.62145e-07 3.89197e-08)
(0.000803496 2.09703e-08 7.10195e-08)
(0.000801567 -3.10798e-07 -3.64656e-09)
(0.000799511 -1.68212e-07 2.53721e-08)
(0.000798144 -8.57617e-08 6.32388e-08)
(0.000796781 -7.60922e-09 5.83174e-08)
(0.00079524 -1.7877e-08 4.72459e-08)
(0.000793614 1.89558e-07 -7.10712e-08)
(0.000792089 1.37407e-07 -9.39071e-08)
(0.000790772 -2.57277e-07 5.8046e-08)
(0.00078917 -3.88486e-08 4.54086e-08)
(0.000787728 1.46081e-07 -6.68326e-08)
(0.000786371 -2.21237e-07 2.99677e-08)
(0.000784545 -2.8156e-07 8.63022e-08)
(0.000782783 -3.20866e-07 3.69001e-08)
(0.000781264 -6.64237e-07 1.84081e-08)
(0.000779855 -5.17294e-07 2.63432e-08)
(0.000778535 -3.04354e-07 3.84024e-08)
(0.000777105 -1.86654e-07 6.80407e-08)
(0.000775674 -1.58555e-07 5.92564e-08)
(0.000773952 -1.66793e-07 4.55518e-08)
(0.000772356 -3.85817e-07 1.24288e-08)
(0.000771454 -5.329e-07 6.54479e-08)
(0.000770121 -2.59622e-07 6.20469e-08)
(0.000768542 -1.74104e-07 3.27038e-08)
(0.00076716 -2.54516e-08 4.33393e-08)
(0.000765659 2.59552e-07 2.57814e-08)
(0.000764137 1.22747e-07 -8.92203e-09)
(0.000762775 1.58165e-07 2.42711e-08)
(0.00076176 -6.09047e-08 3.70655e-09)
(0.000760184 -9.20284e-08 4.56736e-08)
(0.000758167 2.59464e-07 -1.9229e-08)
(0.000756744 2.11277e-07 6.68711e-08)
(0.00215246 -0.00151326 0.000368788)
(0.00334483 0.00170041 5.96722e-05)
(-0.0102028 -0.00129861 -0.00121422)
(0.0389349 0.0212828 -0.000616838)
(-0.0106238 0.00431326 -0.24152)
(0.000307361 -0.000574517 0.00150002)
(0.00121681 0.000202556 -5.98981e-07)
(0.00132679 6.5981e-05 3.39184e-07)
(0.00133005 3.84931e-05 3.30723e-07)
(0.0013456 2.26021e-05 4.02412e-07)
(0.00134933 1.37941e-05 1.92459e-07)
(0.00135112 8.07779e-06 3.39164e-07)
(0.001352 4.94675e-06 2.61999e-07)
(0.00135062 3.6312e-06 3.65559e-07)
(0.00134798 2.25341e-06 2.40712e-07)
(0.00134603 1.51037e-06 2.88527e-07)
(0.00134388 7.26206e-07 3.39224e-07)
(0.00134128 3.91857e-07 3.19746e-07)
(0.0013384 6.77495e-08 3.14972e-07)
(0.00133622 -3.07292e-07 3.73539e-07)
(0.00133415 -7.67564e-08 3.23178e-07)
(0.00133118 1.51376e-07 1.87335e-08)
(0.00132849 -1.04246e-07 3.54944e-07)
(0.00132612 -3.43993e-08 2.89701e-07)
(0.00132342 2.99542e-07 2.69078e-07)
(0.0013205 5.58893e-07 3.42738e-07)
(0.00131848 6.74866e-07 2.81475e-07)
(0.00131667 2.43917e-07 3.32096e-07)
(0.00131334 5.32006e-07 3.5949e-07)
(0.00131025 -5.20911e-07 3.49095e-07)
(0.00130797 -1.15812e-06 2.44115e-07)
(0.00130511 -1.00064e-06 9.90065e-08)
(0.00130279 -7.91447e-07 3.71951e-07)
(0.00130123 -4.15517e-07 3.31975e-07)
(0.00129884 1.95866e-09 3.16955e-07)
(0.00129604 6.41169e-08 3.21706e-07)
(0.00129338 5.9601e-08 3.17091e-07)
(0.00129075 1.66105e-07 2.78122e-07)
(0.00128828 6.07247e-07 -8.94422e-08)
(0.00128637 6.99695e-07 3.48926e-07)
(0.00128433 1.0453e-07 2.83754e-07)
(0.00128167 3.49697e-08 3.54077e-07)
(0.00127966 -4.02546e-07 3.74532e-07)
(0.00127697 -4.13896e-07 7.23714e-07)
(0.00127426 -3.07926e-07 3.309e-07)
(0.00127194 -1.98311e-07 3.46994e-07)
(0.00126967 -1.02062e-07 3.16914e-07)
(0.0012677 -6.4746e-07 5.53532e-07)
(0.0012649 -5.61968e-07 2.14542e-07)
(0.00126201 -4.03112e-07 3.36914e-07)
(-0.00507514 -0.0151199 0.0040565)
(-0.00068013 -0.00126042 -0.00239726)
(-0.0169655 0.0181675 0.0022819)
(-0.00648739 -0.0132945 -0.00430134)
(0.0267704 -0.000847479 -0.020566)
(-0.00607436 0.0103022 0.00493834)
(0.00116739 9.74698e-05 2.70363e-05)
(0.00132338 -3.59638e-07 3.37333e-07)
(0.0013149 1.33764e-06 3.26533e-07)
(0.00133634 2.63731e-06 3.34814e-07)
(0.0013439 2.67666e-06 3.35613e-07)
(0.00134788 2.0368e-06 3.375e-07)
(0.00134925 1.52199e-06 3.38686e-07)
(0.00134883 6.89654e-07 3.36995e-07)
(0.00134762 5.25158e-07 3.36815e-07)
(0.00134551 3.21823e-07 2.54595e-07)
(0.00134314 3.78813e-07 3.36793e-07)
(0.00134115 3.99672e-07 3.98991e-07)
(0.00133875 6.03176e-07 3.24656e-07)
(0.00133624 5.86936e-07 3.05381e-07)
(0.00133363 4.92941e-07 3.92531e-07)
(0.00133077 2.93075e-07 2.91706e-07)
(0.00132835 8.1304e-07 2.9996e-07)
(0.00132652 5.67006e-07 2.95079e-07)
(0.00132402 2.15728e-07 3.17515e-07)
(0.00132127 1.06998e-07 3.98906e-07)
(0.00131828 2.66315e-07 3.04787e-07)
(0.0013158 -2.95924e-07 3.29258e-07)
(0.00131264 -1.45288e-06 3.46668e-07)
(0.00130927 -8.36203e-07 3.52172e-07)
(0.00130772 -6.87891e-07 3.61822e-07)
(0.00130578 -3.82986e-07 2.82839e-07)
(0.00130351 7.41713e-07 6.32252e-07)
(0.00130146 1.0505e-06 5.48144e-07)
(0.00129891 3.7076e-07 3.30554e-07)
(0.00129603 2.10806e-07 3.61827e-07)
(0.00129367 2.58594e-07 3.16918e-07)
(0.00129135 3.83294e-07 3.6719e-07)
(0.00128874 6.13792e-07 3.453e-07)
(0.00128591 8.7776e-07 3.07228e-07)
(0.0012834 2.24169e-07 3.22608e-07)
(0.00128103 -4.19797e-07 3.57708e-07)
(0.00127877 -9.57253e-07 2.44674e-07)
(0.001277 -7.54478e-07 3.18506e-07)
(0.0012747 -2.32947e-07 3.5475e-07)
(0.00127233 -2.1771e-07 2.92174e-07)
(0.00126975 6.91122e-08 2.63223e-07)
(0.00126719 -1.5931e-07 3.16393e-07)
(0.0012648 -4.70962e-07 3.58601e-07)
(0.00126315 -3.88034e-07 2.24641e-07)
(-0.0553956 -0.0608106 -0.00331415)
(0.0360418 0.0195686 -0.000619139)
(0.0224331 0.000252026 0.00311036)
(-0.00459427 -0.0108489 -0.00256324)
(0.0208892 0.0224294 -0.000711652)
(-0.0275102 0.00787875 0.00136885)
(0.00111069 -0.000163197 4.75308e-06)
(0.00143947 -6.52265e-05 4.16301e-07)
(0.00133417 9.03124e-06 1.91196e-07)
(0.00134743 -8.22536e-06 3.38973e-07)
(0.00134866 -3.16644e-06 3.64918e-07)
(0.00134972 -2.34711e-06 3.37994e-07)
(0.00135034 -1.57517e-06 3.47215e-07)
(0.00134938 -1.1776e-06 3.38135e-07)
(0.00134753 -7.51893e-07 3.37821e-07)
(0.00134585 -6.32928e-07 3.3735e-07)
(0.00134399 -2.96994e-07 3.38821e-07)
(0.00134156 -2.27847e-07 2.30923e-07)
(0.00133863 -4.13342e-07 2.19375e-07)
(0.00133608 -1.78098e-07 3.23579e-07)
(0.00133378 -2.24245e-07 2.83291e-07)
(0.00133157 9.34375e-08 3.31573e-07)
(0.00132883 4.03829e-07 3.65747e-07)
(0.00132537 4.48616e-07 -2.09296e-07)
(0.00132284 9.15482e-08 3.26667e-07)
(0.00132056 -2.46121e-08 3.09934e-07)
(0.00131798 -3.61718e-07 3.43464e-07)
(0.00131453 -1.73098e-07 3.24177e-07)
(0.00131267 -4.05528e-07 5.1674e-08)
(0.00131121 8.07264e-07 2.91847e-07)
(0.00130854 1.27955e-06 3.2955e-07)
(0.0013069 1.22317e-06 3.26595e-07)
(0.00130458 8.36012e-07 8.03532e-07)
(0.00130076 7.22192e-07 4.76648e-07)
(0.00129778 2.36353e-07 3.73839e-07)
(0.0012959 1.99078e-07 3.35695e-07)
(0.00129359 1.68276e-07 2.94353e-07)
(0.00129119 1.32857e-08 3.41664e-07)
(0.00128889 2.88685e-08 3.20107e-07)
(0.00128588 -1.95099e-07 3.8788e-07)
(0.0012827 -3.50829e-08 4.12668e-07)
(0.00128019 -1.00249e-07 3.53997e-07)
(0.00127925 8.78674e-07 5.16057e-07)
(0.00127788 4.85537e-07 2.78303e-07)
(0.00127493 2.8631e-07 3.51988e-07)
(0.00127232 2.23366e-07 3.04078e-07)
(0.00126975 3.22146e-07 3.03284e-07)
(0.00126702 2.73246e-07 3.4303e-07)
(0.00126462 1.86658e-07 3.3485e-07)
(0.00126308 1.33006e-07 3.02122e-07)
(0.0171921 -0.00847231 -0.018404)
(-0.0430556 0.0332779 0.00244571)
(0.0062524 -0.00311744 -0.0055643)
(-0.0338102 -0.0122895 0.00831365)
(-0.00416999 -0.00510938 -0.00114403)
(0.0348 0.0297414 -0.000911217)
(0.000503524 -9.12862e-06 2.65308e-05)
(0.00122167 -7.07009e-05 6.62573e-07)
(0.00141605 -4.65563e-06 3.03781e-07)
(0.00132153 -1.97749e-05 6.01715e-07)
(0.00135138 -9.94511e-06 3.402e-07)
(0.00134994 -6.58272e-06 3.23498e-07)
(0.00135076 -4.52366e-06 3.37861e-07)
(0.00134989 -2.79069e-06 3.38411e-07)
(0.00134832 -1.44016e-06 3.37508e-07)
(0.00134609 -6.82496e-07 3.36075e-07)
(0.00134365 -6.93993e-07 3.37652e-07)
(0.00134101 -6.05893e-07 5.54192e-07)
(0.00133882 -6.66747e-07 3.12922e-07)
(0.00133648 -4.07141e-07 3.01192e-07)
(0.00133398 -4.45463e-07 3.55856e-07)
(0.00133155 -3.70875e-07 3.3611e-07)
(0.00132879 -6.60639e-07 2.88659e-07)
(0.00132613 -3.19391e-07 2.40796e-07)
(0.00132343 2.61258e-08 2.73245e-07)
(0.0013207 2.99795e-07 2.70385e-07)
(0.00131809 4.61726e-07 3.91108e-07)
(0.00131574 7.47449e-07 4.22209e-07)
(0.00131386 1.83555e-06 3.41052e-07)
(0.00131137 1.34512e-06 4.77454e-07)
(0.00130823 1.37042e-06 3.10995e-07)
(0.00130522 1.35985e-06 3.08827e-07)
(0.00130288 4.25068e-07 3.24158e-07)
(0.00130071 -9.80983e-08 3.26837e-07)
(0.00129825 2.17413e-07 3.2946e-07)
(0.00129595 2.09936e-07 3.12116e-07)
(0.00129344 4.01837e-08 3.04054e-07)
(0.00129118 -1.01238e-08 3.30404e-07)
(0.00128848 -4.54242e-07 2.3983e-07)
(0.00128583 -5.02635e-07 3.03228e-07)
(0.00128352 1.46945e-08 2.49832e-07)
(0.00128217 8.10925e-07 2.8227e-07)
(0.0012795 1.21933e-06 3.63604e-07)
(0.00127625 6.26301e-07 2.21207e-07)
(0.00127437 7.28134e-08 2.74333e-07)
(0.00127237 -5.45398e-09 3.96598e-07)
(0.00126981 -2.10721e-08 3.82292e-07)
(0.00126702 1.08976e-07 3.26583e-07)
(0.00126462 3.88808e-07 3.17924e-07)
(0.00126275 3.89713e-07 2.25084e-07)
(0.0127293 0.0189576 0.00472378)
(0.00355457 -0.00445418 0.00206687)
(0.00368301 0.0112583 -0.00168549)
(0.0124585 -0.000809509 0.00305023)
(-0.0451018 -0.03806 -0.000952714)
(-0.0025272 0.00857027 0.0017241)
(0.000676947 2.19843e-05 -0.00016388)
(0.00137927 -0.000124266 5.79105e-07)
(0.00148736 -4.75654e-05 5.84197e-07)
(0.00134084 -3.07548e-05 4.18371e-07)
(0.00136528 -1.72295e-05 3.60231e-07)
(0.00135658 -1.08593e-05 3.79008e-07)
(0.00135513 -6.10003e-06 3.23166e-07)
(0.00135327 -3.97388e-06 3.38759e-07)
(0.00135018 -2.87613e-06 3.0335e-07)
(0.0013468 -1.94168e-06 1.31059e-07)
(0.00134409 -1.12058e-06 3.35779e-07)
(0.0013416 -8.10558e-07 3.20945e-07)
(0.00133889 -2.65149e-07 4.49516e-07)
(0.00133637 -1.46675e-07 3.56252e-07)
(0.00133383 -2.45515e-07 3.68288e-07)
(0.00133131 4.16086e-08 9.0765e-07)
(0.0013289 4.21663e-08 3.40634e-07)
(0.00132623 5.96082e-08 2.93535e-07)
(0.00132362 1.778e-07 2.75953e-07)
(0.0013211 -3.17026e-08 3.67689e-07)
(0.00131853 1.96824e-07 3.83497e-07)
(0.00131623 3.02538e-07 2.9808e-07)
(0.00131341 4.01309e-07 4.82337e-07)
(0.00131062 2.54002e-07 3.12405e-07)
(0.00130854 2.23183e-07 3.48332e-07)
(0.00130571 -2.90211e-07 3.19011e-07)
(0.00130275 2.95128e-07 3.44905e-07)
(0.0013005 1.70162e-07 3.2594e-07)
(0.00129817 3.22352e-07 3.27078e-07)
(0.00129567 1.0393e-07 3.20207e-07)
(0.00129332 4.24728e-08 3.48595e-07)
(0.00129057 -5.71227e-08 3.24221e-07)
(0.00128828 -1.39422e-07 4.14524e-07)
(0.00128647 8.54306e-08 3.17298e-07)
(0.00128434 3.51614e-07 3.17025e-07)
(0.00128169 7.20914e-07 5.31627e-07)
(0.00127901 4.76645e-08 2.98119e-07)
(0.00127644 9.1452e-08 -3.66915e-07)
(0.00127414 -8.90875e-08 3.52683e-07)
(0.0012722 -2.83467e-07 3.17122e-07)
(0.00126989 -8.04263e-07 1.2566e-07)
(0.00126753 -7.40899e-07 2.65331e-07)
(0.00126496 -4.94378e-07 4.54564e-07)
(0.00126211 1.60124e-07 4.20413e-07)
(0.000100405 -0.0142718 -0.000591202)
(0.011475 -0.0163704 -0.000562812)
(-0.0072343 -0.0165551 -0.00497645)
(0.0084755 -0.00629124 0.00213559)
(0.0109441 0.0011546 0.000196897)
(-0.00822817 -0.0018551 -0.000568321)
(0.000192949 0.00132042 -3.86248e-05)
(0.00151875 -6.50213e-05 1.03079e-07)
(0.00151755 -2.88087e-05 5.6291e-07)
(0.00135962 -1.62659e-05 3.95191e-07)
(0.00137638 -1.15752e-05 3.03602e-07)
(0.00136393 -7.55245e-06 3.46817e-07)
(0.00135942 -4.41739e-06 3.81045e-07)
(0.00135395 -3.02496e-06 3.40867e-07)
(0.00135088 -2.248e-06 6.81894e-07)
(0.0013483 -1.57952e-06 4.01941e-07)
(0.00134508 -8.64817e-07 3.37599e-07)
(0.00134208 -4.00196e-07 3.76827e-07)
(0.00133965 -3.33649e-07 2.93659e-07)
(0.00133651 1.02797e-07 3.83713e-07)
(0.00133421 4.39246e-07 2.68954e-09)
(0.00133191 2.91832e-07 3.14249e-07)