/*--------------------------------*- C++ -*----------------------------------*\
| =========                 |                                                 |
| \\      /  F ield         | OpenFOAM: The Open Source CFD Toolbox           |
|  \\    /   O peration     | Version:  5.0                                   |
|   \\  /    A nd           | Web:      www.OpenFOAM.org                      |
|    \\/     M anipulation  |                                                 |
\*---------------------------------------------------------------------------*/
FoamFile
{
    version     2.0;
    format      ascii;
    class       surfaceVectorField;
    location    "1.2";
    object      Uf;
}
// * * * * * * * * * * * * * * * * * * * * * * * * * * * * * * * * * * * * * //

dimensions      [0 1 -1 0 0 0 0];

internalField   nonuniform List<vector> 
23728
(
(-0.001626 9.31939e-05 -0.000318814)
(-0.0068207 -9.46066e-05 0.000846384)
(0.000240497 0.00118302 0.000233431)
(-0.0098973 0.00121421 -0.000200687)
(-0.00689618 -0.000447351 0.00262709)
(-0.0104918 0.00267489 0.00017599)
(-0.00362461 0.011754 -0.000406631)
(0.00026065 0.00128163 -0.000501983)
(0.00186466 -0.00116722 -0.000463246)
(0.00744065 -0.00564056 0.000502905)
(-0.00726073 0.00605399 -0.000324762)
(0.0090978 0.000540917 0.00132262)
(0.00117529 -0.00187691 -0.000139208)
(0.00025193 -4.60512e-05 -0.00101096)
(0.000595136 0.00341377 0.000395705)
(0.00390452 0.0134604 -0.000559034)
(0.000275601 0.0107076 0.000445598)
(-0.00857234 0.0152679 -0.000276667)
(0.00827724 0.00768813 -0.000752086)
(0.00395411 0.00313361 -0.000517231)
(0.0226557 0.013035 -0.00105813)
(0.00619315 0.0126513 0.000437628)
(0.0161478 -0.0095069 0.00457826)
(0.0163328 0.00787165 0.00367669)
(0.0140209 -0.000224795 0.00281834)
(0.0140383 -0.00203254 0.00302831)
(0.0211464 0.00144492 0.00240718)
(0.00867586 -0.00133139 0.0023432)
(0.0146736 0.00306454 0.00126983)
(-0.00421215 0.00403609 0.00148462)
(0.00404515 0.00441261 0.00103172)
(0.0141809 0.00538441 0.0795533)
(-0.00469172 0.00322051 -0.148429)
(0.0144667 0.00506508 0.0877299)
(0.0103317 0.0155887 -0.0208248)
(0.00390052 0.00205805 0.000166743)
(0.00107701 4.85197e-05 0.000137854)
(0.000208548 3.65056e-05 0.000167673)
(0.00136599 -0.0015717 0.000254325)
(0.000320112 9.72943e-05 -1.57931e-06)
(0.000469393 7.12712e-05 -2.95863e-06)
(0.000420004 8.90797e-05 -1.66206e-06)
(0.000722676 0.000137094 -2.13004e-06)
(0.000304256 8.40483e-05 -1.12463e-06)
(0.000621629 0.00021621 2.89912e-06)
(0.00058597 0.000180716 3.53379e-06)
(0.000792819 4.02698e-05 -1.34859e-06)
(0.000778818 3.9229e-05 -2.17399e-06)
(0.00106129 6.71731e-05 -1.56154e-06)
(0.000567544 5.7345e-05 -3.50445e-06)
(0.000555751 5.34164e-05 -3.46984e-06)
(0.000975151 0.000109713 -3.61176e-06)
(0.00095168 9.81746e-05 -3.64798e-06)
(0.000800687 2.19841e-05 1.23436e-09)
(0.000785119 1.92446e-05 6.08364e-08)
(0.001061 3.62588e-05 1.42651e-07)
(0.000805538 1.25095e-05 7.41842e-08)
(0.000799143 1.0323e-05 1.01508e-07)
(0.00107238 2.03135e-05 1.88152e-07)
(0.000807715 7.32055e-06 7.49611e-08)
(0.000804446 5.84508e-06 9.41897e-08)
(0.00107605 1.19261e-05 1.74231e-07)
(0.000808965 4.32319e-06 2.5977e-08)
(0.00080725 3.53169e-06 6.20707e-08)
(0.00107818 6.94662e-06 1.73872e-07)
(0.000809338 2.68348e-06 3.44522e-08)
(0.000808421 2.13815e-06 3.33024e-08)
(0.00107934 4.17914e-06 1.81988e-07)
(0.000808556 1.72779e-06 6.09472e-08)
(0.000808433 1.14247e-06 6.1533e-08)
(0.00107894 2.75474e-06 2.1609e-07)
(0.00080741 1.07049e-06 5.34048e-08)
(0.000807741 6.92347e-07 5.13104e-08)
(0.00107745 1.73535e-06 1.81153e-07)
(0.000806205 5.9067e-07 5.41092e-08)
(0.00080666 -2.63829e-07 4.68824e-08)
(0.0010759 1.05114e-06 2.60924e-07)
(0.000804981 2.79493e-07 5.00199e-08)
(0.000805435 2.30375e-07 4.77461e-08)
(0.00107427 4.93394e-07 1.78218e-07)
(0.000803545 1.14303e-07 5.021e-08)
(0.000804234 1.03869e-07 6.22149e-08)
(0.00107249 2.38201e-07 1.23339e-07)
(0.000802157 4.60106e-08 1.07716e-07)
(0.000802888 -3.98801e-07 4.67036e-08)
(0.00107052 6.35797e-08 2.04036e-07)
(0.000800665 1.55846e-08 1.20434e-07)
(0.000801423 -1.22445e-08 9.43404e-08)
(0.00106863 3.51869e-08 1.80294e-07)
(0.000799243 2.91889e-08 7.14841e-08)
(0.000799965 5.88949e-08 8.50438e-08)
(0.00106677 -2.0258e-10 1.52694e-07)
(0.000797802 5.01586e-11 6.18341e-08)
(0.000798413 2.66043e-07 6.32942e-08)
(0.00106474 1.31946e-07 1.4367e-07)
(0.000796126 -3.75776e-08 5.40165e-08)
(0.000796889 2.52462e-07 7.89534e-08)
(0.00106265 -5.13423e-08 1.81518e-07)
(0.000794594 1.05521e-07 5.36227e-08)
(0.000795566 -1.1628e-07 4.93777e-08)
(0.00106056 1.83709e-08 1.87668e-07)
(0.00079341 2.90736e-07 5.77537e-08)
(0.000794179 -7.15269e-07 1.40124e-08)
(0.00105876 3.1937e-07 1.91216e-07)
(0.000791767 2.9724e-07 5.4331e-08)
(0.000792526 -8.78559e-07 4.44597e-08)
(0.00105678 5.25418e-07 1.52988e-07)
(0.000790347 1.95391e-07 5.11433e-08)
(0.000790968 1.78374e-07 4.31949e-08)
(0.00105477 3.43764e-07 1.63124e-07)
(0.000788915 2.6206e-07 6.40574e-08)
(0.000789692 6.82351e-08 4.88579e-08)
(0.00105307 2.16589e-07 1.75432e-07)
(0.000787323 1.63907e-07 1.43611e-07)
(0.00078801 -2.73598e-07 6.18321e-08)
(0.00105087 4.63171e-07 3.40259e-08)
(0.000786039 -2.26752e-07 1.45731e-07)
(0.000786331 -1.31953e-07 1.31974e-07)
(0.00104886 -1.01951e-07 1.5796e-07)
(0.000784076 -4.77277e-07 6.04349e-08)
(0.000784926 -7.1321e-07 -2.91305e-08)
(0.00104681 -6.28012e-07 3.69806e-07)
(0.000782844 -4.97586e-07 5.97744e-08)
(0.000783432 -6.73354e-07 2.89491e-08)
(0.00104454 -7.33372e-07 3.1532e-07)
(0.000781288 -3.66518e-07 5.90196e-08)
(0.000782142 -2.90002e-07 1.02891e-07)
(0.00104271 -6.09682e-07 1.82526e-07)
(0.000780124 -1.02884e-07 3.78291e-08)
(0.00078099 3.70646e-09 6.29837e-08)
(0.0010411 -3.50346e-07 1.55863e-07)
(0.000778445 5.59367e-08 4.21815e-08)
(0.000779427 -1.22587e-08 4.1983e-08)
(0.00103919 1.07952e-07 1.60071e-07)
(0.000776965 7.11404e-08 4.06694e-08)
(0.000777761 1.25118e-07 4.66418e-08)
(0.001037 8.34561e-08 1.72119e-07)
(0.000775291 1.76815e-07 3.90981e-08)
(0.000776361 3.29804e-07 5.77358e-08)
(0.00103491 1.35537e-07 1.72757e-07)
(0.00077361 4.56982e-07 5.80832e-08)
(0.000774909 6.04706e-07 2.77628e-08)
(0.00103254 3.37962e-07 1.4732e-07)
(0.000773499 4.36667e-07 1.16479e-07)
(0.000773488 -3.12778e-06 3.6794e-08)
(0.0010314 8.63352e-07 2.44032e-07)
(0.000771532 1.16165e-07 9.40507e-08)
(0.000772033 4.2229e-07 1.39716e-07)
(0.00103013 3.22188e-07 1.76939e-07)
(0.000770019 6.83886e-09 5.13326e-08)
(0.000770548 7.50986e-08 4.52426e-08)
(0.00102772 3.56948e-08 1.73249e-07)
(0.000768778 -2.69084e-07 7.84851e-08)
(0.000769068 -5.79692e-08 7.0953e-08)
(0.0010258 3.44039e-10 1.61816e-07)
(0.000767664 -5.06573e-07 4.40126e-08)
(0.000767885 1.44057e-06 7.84315e-08)
(0.00102447 -6.81481e-07 1.52859e-07)
(0.000765462 -3.56158e-07 1.44069e-08)
(0.000766654 2.117e-06 5.07937e-08)
(0.00102211 -5.99882e-07 8.72889e-08)
(0.000764196 -1.8059e-07 2.48728e-08)
(0.000765126 -3.05221e-07 4.40649e-08)
(0.00101975 -3.1406e-07 1.52513e-07)
(0.00076294 -1.19282e-07 4.18421e-08)
(0.000763667 1.2953e-07 4.61741e-08)
(0.00101816 -1.82866e-07 1.48525e-07)
(0.000761639 -1.39292e-07 4.53271e-08)
(0.000762248 3.99585e-08 7.8724e-08)
(0.00101634 -1.49644e-07 1.67956e-07)
(0.00076019 -2.83086e-07 4.05398e-08)
(0.00076086 1.99947e-08 4.08634e-08)
(0.00101468 -2.46324e-07 1.77756e-07)
(0.000758476 -3.46889e-07 3.13614e-08)
(0.000759346 -4.29411e-07 -1.37324e-08)
(0.00101245 -5.28158e-07 2.13431e-07)
(0.000758061 9.10111e-07 6.28534e-08)
(0.00101033 -3.89278e-07 1.07412e-07)
(-0.013718 -0.00761172 0.000439443)
(-0.00664596 -0.0186123 0.000130334)
(-0.00912779 -0.0104241 0.00241642)
(-0.00725139 -0.00173122 -0.00036752)
(0.000745066 0.000994801 -0.000106693)
(0.00335238 0.000427404 -0.000181236)
(0.000321729 0.000776289 -0.000610486)
(-0.00190056 -0.0136092 0.000325438)
(-0.00815436 -0.00635677 -0.000639437)
(-0.00831394 0.00093641 -0.000205158)
(-0.0181954 -0.00481094 -0.000914604)
(-0.00743276 -0.00399493 -0.000156248)
(0.00403025 0.00380126 -0.00025667)
(-0.00727636 0.00590396 -0.000102695)
(-0.00684469 0.0117372 0.000584357)
(9.26644e-05 0.00416025 0.000567491)
(-0.0155858 0.00210934 0.00178472)
(-0.0031556 -0.0325122 -0.00488109)
(-0.0448131 -0.0545296 -0.00196794)
(0.0521164 -0.00898193 -0.00491418)
(0.0214336 -0.00683697 -0.00331098)
(-0.00846289 -0.0253275 -0.00986936)
(0.00641562 -0.00230185 0.000248196)
(0.0191483 -0.00350551 0.000394101)
(0.00445082 -0.00191403 0.000315743)
(0.00781335 -0.00111403 9.92971e-05)
(0.0138921 -0.0116613 0.00115721)
(0.000306896 7.31413e-05 1.04919e-05)
(0.00038362 9.60142e-05 1.75864e-08)
(0.000391631 5.92658e-05 -1.33962e-06)
(0.000604777 0.00013257 5.85577e-06)
(0.000268476 5.77149e-05 2.08686e-05)
(0.000630823 0.000153249 2.91937e-05)
(0.000464227 0.000133019 4.45952e-05)
(0.000225658 3.46933e-05 2.53165e-06)
(0.000363788 4.26413e-05 1.09309e-05)
(0.000416655 5.3683e-05 -1.30173e-06)
(0.000232283 3.67833e-05 -5.92284e-07)
(0.000765467 3.05378e-06 -7.65298e-07)
(0.000800657 -3.26034e-05 -1.56075e-06)
(0.00101999 4.52095e-06 -1.10528e-06)
(0.000518534 2.45124e-05 -3.31604e-06)
(0.000511151 -1.06328e-05 -3.54736e-06)
(0.000877466 5.06023e-05 -3.44806e-06)
(0.000870313 -2.81676e-05 -3.71537e-06)
(0.000786886 1.1353e-06 1.61097e-07)
(0.000782919 -9.96225e-06 -1.83953e-07)
(0.00103489 9.60945e-07 2.08661e-07)
(0.000798764 8.69315e-07 1.21516e-07)
(0.000798829 -6.60849e-06 1.22605e-07)
(0.00106014 9.02624e-07 1.86359e-07)
(0.000804552 6.26214e-07 8.13099e-08)
(0.000804151 -3.48334e-06 8.59974e-08)
(0.00107012 8.80989e-07 1.87366e-07)
(0.000806998 4.03732e-07 6.94054e-08)
(0.000806976 -1.54862e-06 1.00232e-07)
(0.00107518 5.55708e-07 1.83264e-07)
(0.000807729 2.44266e-07 6.03739e-08)
(0.000808224 -1.09586e-06 1.13601e-07)
(0.00107702 4.34446e-07 2.04463e-07)
(0.000807733 1.05414e-07 5.18994e-08)
(0.000808261 -8.02791e-07 5.23951e-08)
(0.00107732 1.66694e-07 1.78613e-07)
(0.000807105 3.04715e-08 4.47894e-08)
(0.000807648 -4.69339e-07 5.14491e-08)
(0.00107686 7.564e-08 1.78984e-07)
(0.000805849 1.01839e-07 4.0519e-08)
(0.00080675 3.86984e-07 -6.50039e-08)
(0.00107549 -2.25099e-08 1.0845e-07)
(0.000804698 2.57525e-07 5.99364e-08)
(0.00080563 4.05413e-08 5.17709e-08)
(0.00107382 2.54713e-07 1.57379e-07)
(0.00080359 3.67182e-07 5.87135e-08)
(0.00080437 -4.71184e-07 5.65838e-08)
(0.00107237 3.70815e-07 1.8039e-07)
(0.000802269 3.2687e-07 3.3313e-08)
(0.000802837 -4.22332e-07 5.87289e-08)
(0.00107068 5.41092e-07 1.60972e-07)
(0.000800621 2.04607e-07 5.89531e-08)
(0.00080127 7.67483e-08 3.40941e-08)
(0.00106867 2.97431e-07 1.81926e-07)
(0.000799194 1.61479e-07 7.68608e-08)
(0.00079991 -2.24147e-07 1.65797e-07)
(0.00106667 2.61994e-07 1.88752e-07)
(0.000797458 1.94236e-07 8.04084e-08)
(0.000798453 1.03254e-07 5.50888e-08)
(0.0010645 1.89578e-07 2.07579e-07)
(0.000796333 2.45095e-07 7.4324e-08)
(0.000796951 4.28633e-07 6.66302e-08)
(0.0010625 3.77614e-07 1.30858e-07)
(0.000795111 2.09867e-07 9.77868e-09)
(0.00079552 4.44782e-07 6.47081e-08)
(0.0010611 3.6097e-07 1.12544e-07)
(0.000793441 1.03357e-07 7.08701e-10)
(0.000794044 2.00465e-08 9.42823e-09)
(0.00105919 2.62471e-07 1.39416e-07)
(0.000791572 4.30517e-08 3.3324e-08)
(0.000792449 4.32399e-08 3.26866e-08)
(0.00105672 6.46673e-08 1.43887e-07)
(0.000790347 -5.68945e-09 4.09077e-08)
(0.000790907 -1.73701e-07 3.76916e-08)
(0.00105458 1.08445e-07 1.76741e-07)
(0.000788861 -2.16021e-07 4.66285e-08)
(0.00078943 7.60922e-08 5.09755e-08)
(0.0010529 -1.04801e-07 1.74567e-07)
(0.000786934 -3.1751e-07 5.01732e-08)
(0.000787885 -3.54138e-07 3.07939e-08)
(0.00105056 -5.62949e-07 2.19735e-07)
(0.000785311 -2.7832e-07 -4.28365e-08)
(0.000786382 2.76282e-08 4.294e-08)
(0.00104801 -4.05675e-07 1.76109e-07)
(0.000784148 -2.21008e-07 -6.06346e-08)
(0.000785 2.28794e-07 3.39882e-08)
(0.0010464 -3.96138e-07 8.03415e-08)
(0.000782756 6.83421e-08 7.20426e-08)
(0.000783794 3.8883e-07 4.27639e-08)
(0.0010447 -2.26366e-07 9.21265e-08)
(0.000781815 2.92849e-07 1.06868e-07)
(0.000782421 -2.38285e-06 6.14408e-08)
(0.00104308 4.34529e-07 2.75962e-07)
(0.000780471 1.63043e-07 6.71442e-08)
(0.000780827 -1.78222e-06 5.07529e-08)
(0.00104167 4.49426e-07 2.90489e-07)
(0.000778562 6.91197e-08 4.64419e-08)
(0.000779308 6.01035e-07 6.77228e-08)
(0.00103944 7.97494e-08 1.70098e-07)
(0.000777198 1.47167e-07 6.37048e-08)
(0.000777858 -8.01738e-08 4.79057e-08)
(0.00103715 1.43878e-07 1.79913e-07)
(0.000775992 2.92323e-07 4.64098e-08)
(0.000776541 1.58636e-07 7.06849e-08)
(0.00103545 2.57728e-07 1.63648e-07)
(0.000774748 5.74972e-07 6.47079e-09)
(0.00077526 3.80672e-08 3.09556e-08)
(0.00103395 5.19998e-07 1.95539e-07)
(0.000772099 5.49811e-07 5.99991e-08)
(0.000773454 -7.77386e-07 1.33279e-08)
(0.00103128 9.86138e-07 1.12282e-07)
(0.00077098 2.52775e-07 9.09367e-08)
(0.00077166 1.60339e-07 8.42771e-08)
(0.00102869 4.89159e-07 1.62636e-07)
(0.000769637 1.00915e-07 6.48551e-08)
(0.000770357 -4.68959e-09 4.93311e-08)
(0.00102714 2.13283e-07 1.69922e-07)
(0.000768032 -9.30856e-08 7.08972e-08)
(0.000768826 1.81529e-07 6.49161e-08)
(0.0010251 2.18196e-08 1.70455e-07)
(0.000766988 -4.72972e-07 8.52211e-08)
(0.000767412 5.39191e-07 8.39156e-08)
(0.00102329 -3.33452e-07 2.02498e-07)
(0.000766351 -4.63928e-07 8.04538e-08)
(0.000766668 1.28937e-07 1.21294e-07)
(0.00102235 -9.42689e-07 2.44646e-07)
(0.000764558 -1.68203e-07 6.53655e-08)
(0.000765497 -2.16899e-07 6.42274e-08)
(0.00102064 -2.82387e-07 1.99013e-07)
(0.000762959 -8.83668e-08 8.30461e-08)
(0.000763767 -5.76978e-08 5.26297e-08)
(0.00101836 -2.00836e-07 2.01585e-07)
(0.000761491 -6.33748e-08 7.42719e-08)
(0.00076228 1.01148e-07 1.19143e-07)
(0.00101637 -4.9984e-08 1.7178e-07)
(0.000760014 -1.23258e-07 -1.33923e-08)
(0.000760786 1.92679e-07 6.34134e-08)
(0.00101433 -1.05058e-07 1.64499e-07)
(0.000758817 -1.73661e-07 1.77363e-08)
(0.000759286 5.73967e-08 -8.61825e-09)
(0.0010125 -2.42758e-07 1.16068e-07)
(0.000758277 -1.23417e-07 1.13706e-07)
(0.00101115 -2.50145e-07 2.31803e-07)
(0.00864165 -0.00879511 -0.000793827)
(0.0251571 -0.0026934 0.000184718)
(0.0344137 -0.01067 -0.00135389)
(0.0227518 -0.0224242 -0.00195081)
(0.0082488 -0.00914967 0.000501115)
(0.00551248 0.00194817 -0.000177872)
(0.011221 -0.000997439 -0.00076301)
(-0.0141041 -0.0406002 0.00068108)
(0.00849915 -0.0180983 0.00137349)
(-0.0134898 -0.012828 5.10853e-06)
(0.00896954 0.00129509 -0.000299527)
(0.0151621 -0.00241619 0.00705428)
(0.0117329 -0.0084354 -0.0274383)
(0.0163032 -0.00526588 -0.0197374)
(0.0149648 0.0035 0.0379888)
(-0.00201098 0.00638855 -0.000323616)
(0.000219471 -0.00294465 9.85828e-05)
(0.00678708 -0.00227527 0.000635312)
(-0.00241538 0.0043399 0.000226378)
(-0.000254086 0.00430579 0.000327445)
(-0.00474795 0.00874405 -0.000416431)
(-0.00436921 0.00147857 -1.5192e-05)
(0.0118537 0.0179572 -0.00337393)
(0.0239914 -0.00342688 -0.000983105)
(0.00868344 -0.00844567 -0.00175845)
(-0.000171528 0.000196961 0.00309352)
(0.00236171 0.00504239 0.00130377)
(0.0194019 0.00667803 0.0032137)
(0.00814367 0.0130033 -0.00181683)
(-0.00535638 0.0110967 -0.00346489)
(0.0167817 0.00753959 0.00144297)
(0.0124836 0.00294093 -0.00565188)
(-0.0052307 0.0142608 0.000616683)
(-0.00721411 0.029779 0.0037389)
(0.0147872 -0.000416822 -0.000734478)
(-0.0109359 0.00740141 0.00152071)
(0.00523555 0.000711198 -0.000129476)
(3.72493e-05 0.00335367 8.21399e-05)
(-0.0038185 0.00887533 -0.00161181)
(0.00562741 -0.01318 6.38273e-05)
(0.00975064 -0.00299109 -0.000547906)
(0.00604237 -0.00506249 0.000188855)
(0.00252119 -0.0106824 -0.000432003)
(0.0026261 -0.00360925 0.000143724)
(0.000306526 -0.000131481 2.56189e-05)
(0.00020561 -5.1196e-05 3.3825e-06)
(0.000312128 -0.000113415 2.05758e-05)
(0.000379592 -0.000107893 1.19273e-05)
(0.000214946 -4.18971e-05 2.50245e-06)
(0.000801573 -3.61227e-05 -9.79859e-07)
(0.000559368 -5.61241e-05 -1.24689e-06)
(0.00112448 -8.50008e-05 -1.12926e-06)
(0.00054479 -7.60786e-05 -4.19784e-06)
(0.000581031 -6.36588e-05 -4.99931e-06)
(0.000899926 -0.000142289 -4.33523e-06)
(0.000965518 -0.000110181 -3.11854e-06)
(0.00055809 -6.58533e-05 -3.76223e-06)
(0.000929108 -9.42526e-05 -6.3374e-07)
(0.000926355 -0.000112718 -4.67562e-06)
(0.00079956 -9.29444e-06 -2.22546e-07)
(0.000824383 -7.11461e-06 -8.06465e-07)
(0.00105705 -8.24403e-06 2.20856e-08)
(0.000805238 -8.66279e-06 8.70982e-08)
(0.000799731 -1.57754e-05 -1.52665e-07)
(0.00107234 -1.50397e-05 1.86604e-07)
(0.000807086 -4.66374e-06 1.04915e-07)
(0.000809184 -7.6392e-06 1.34651e-07)
(0.00107564 -7.22397e-06 1.71002e-07)
(0.000808621 -3.01274e-06 1.44424e-07)
(0.00080906 -5.68438e-06 2.81491e-09)
(0.00107764 -4.76181e-06 1.967e-07)
(0.000808974 -1.89118e-06 1.05642e-07)
(0.000809638 -3.21234e-06 1.1001e-07)
(0.00107886 -3.0006e-06 1.60442e-07)
(0.000808295 -1.17986e-06 5.19452e-08)
(0.000809158 -1.91398e-06 5.44853e-08)
(0.0010785 -1.88503e-06 1.79725e-07)
(0.000807326 -7.60714e-07 -5.83065e-08)
(0.000808177 -1.17763e-06 5.22474e-08)
(0.00107721 -1.17695e-06 1.76781e-07)
(0.000806617 -4.56642e-07 -5.37898e-08)
(0.000807133 -9.08848e-07 -6.07105e-08)
(0.00107612 -8.09755e-07 1.95107e-07)
(0.00080531 -2.10979e-07 4.84167e-08)
(0.000805939 -5.27742e-07 5.46586e-08)
(0.00107477 -3.97184e-07 1.96756e-07)
(0.000803731 -1.52121e-07 5.65985e-08)
(0.000804446 9.59611e-08 4.48239e-08)
(0.00107285 -1.88334e-07 1.42056e-07)
(0.000801755 -1.16904e-07 5.95179e-08)
(0.000802882 3.59945e-07 6.95101e-08)
(0.00107043 -2.76365e-07 1.61757e-07)
(0.000800504 -2.21985e-08 1.40896e-07)
(0.000801389 -2.54762e-07 3.52055e-08)
(0.00106828 -9.65988e-08 1.76476e-07)
(0.000799268 3.17017e-08 1.4406e-07)
(0.000799978 -2.63762e-07 1.54642e-07)
(0.00106663 -1.53447e-08 1.55352e-07)
(0.000797861 1.55692e-07 4.13069e-08)
(0.000798608 -3.45387e-08 4.87346e-08)
(0.00106488 6.12398e-08 1.77389e-07)
(0.000796185 2.3492e-07 5.70149e-08)
(0.00079705 -1.0797e-07 2.60241e-08)
(0.00106286 3.36963e-07 2.28678e-07)
(0.000794447 1.2782e-07 6.43752e-08)
(0.000795386 -2.37393e-08 7.01149e-08)
(0.00106041 3.01868e-07 2.29351e-07)
(0.0007931 4.04437e-09 4.13987e-08)
(0.000793889 -1.53679e-07 3.81407e-08)
(0.00105838 5.02179e-08 1.74752e-07)
(0.000791673 -2.51722e-08 3.70526e-08)
(0.000792413 -1.43171e-07 3.18565e-08)
(0.00105658 -4.03768e-08 1.82815e-07)
(0.000790055 -1.42488e-08 4.77552e-08)
(0.00079092 5.6857e-08 5.10589e-08)
(0.00105455 -2.51855e-08 1.70294e-07)
(0.000788523 -7.612e-08 3.51473e-08)
(0.000789353 -4.11274e-08 5.50866e-08)
(0.00105223 -4.96059e-09 1.87412e-07)
(0.000787229 9.61736e-08 2.35569e-08)
(0.000788099 2.85465e-07 -9.51853e-09)
(0.00105049 -1.76319e-07 1.13247e-07)
(0.000786114 3.88901e-07 1.19767e-07)
(0.000786747 6.90141e-07 3.44564e-08)
(0.00104908 4.86073e-07 9.58434e-08)
(0.00078454 4.6128e-07 1.37384e-07)
(0.000785087 3.4277e-07 1.39235e-07)
(0.00104703 6.65441e-07 1.75259e-07)
(0.000783593 4.65184e-07 3.21563e-08)
(0.000783797 4.87117e-07 3.26838e-08)
(0.00104558 6.76614e-07 1.21004e-07)
(0.000781336 3.70338e-07 5.32947e-09)
(0.000782301 7.38649e-09 2.03886e-08)
(0.00104355 6.12492e-07 7.45191e-08)
(0.000779737 1.35056e-07 5.13262e-08)
(0.000780531 1.01987e-07 3.07018e-08)
(0.00104065 4.0015e-07 5.19728e-08)
(0.00077853 2.71511e-08 6.91928e-08)
(0.000779173 3.57885e-07 7.70486e-08)
(0.0010388 -1.09198e-08 1.68588e-07)
(0.000777189 6.07833e-08 5.48788e-08)
(0.0007779 -1.24131e-07 1.72293e-07)
(0.00103722 9.54948e-08 1.66468e-07)
(0.000775801 -3.84079e-09 5.52431e-08)
(0.00077646 -3.50274e-08 1.23523e-07)
(0.00103538 7.80893e-08 1.81458e-07)
(0.000774294 -1.65847e-07 3.78182e-08)
(0.000775058 -2.9488e-08 5.09634e-08)
(0.00103344 -6.54306e-08 1.83347e-07)
(0.000772604 -1.39315e-07 3.7584e-08)
(0.000773488 -2.13081e-07 2.33981e-08)
(0.00103136 -3.30445e-07 1.54459e-07)
(0.000771144 5.07888e-08 4.26822e-08)
(0.000771898 -1.16813e-07 3.89091e-08)
(0.00102915 -1.7917e-08 1.94445e-07)
(0.000769654 1.44103e-07 4.93873e-08)
(0.000770474 1.39141e-07 -6.73201e-09)
(0.00102713 1.23915e-07 1.66917e-07)
(0.000768122 3.55659e-07 7.79287e-08)
(0.000769089 2.59686e-07 7.59663e-08)
(0.00102511 2.30083e-07 1.75572e-07)
(0.000766718 5.82464e-07 1.19977e-07)
(0.000767693 3.62263e-07 1.33466e-07)
(0.00102327 7.32575e-07 1.8268e-07)
(0.000766337 4.33181e-07 1.05085e-07)
(0.000766479 -1.21391e-06 2.09765e-08)
(0.00102218 8.35842e-07 1.74677e-07)
(0.000764615 2.08845e-07 5.14951e-08)
(0.000765215 3.37397e-07 3.80262e-09)
(0.00102068 3.47227e-07 1.58722e-07)
(0.00076296 2.24291e-07 8.8706e-08)
(0.000763785 1.61945e-07 4.20272e-08)
(0.00101845 2.78706e-07 1.77085e-07)
(0.000761643 3.33244e-07 1.08301e-07)
(0.000762415 4.09019e-08 1.07973e-07)
(0.00101646 3.55897e-07 1.66863e-07)
(0.000760054 3.14447e-07 6.82093e-08)
(0.000760761 4.57422e-07 5.95363e-08)
(0.00101444 5.23589e-07 1.68031e-07)
(0.000758541 1.76354e-07 8.73146e-08)
(0.000759112 1.84953e-07 5.3744e-08)
(0.00101228 2.90705e-07 1.71229e-07)
(0.000758056 -9.49243e-07 1.41433e-07)
(0.00101094 1.66324e-07 1.97235e-07)
(-0.00225707 0.030083 0.00102843)
(0.00720706 0.00748482 0.00325281)
(0.00952514 0.0179094 0.000929916)
(-0.0276645 0.0291278 0.000804104)
(-0.0103675 0.0442592 -0.00134282)
(-0.00136913 0.033379 0.000327247)
(0.0156866 -0.0346848 0.00164622)
(-0.0380875 0.00341703 0.00223665)
(-0.0297799 0.002929 0.00161574)
(-0.0284931 0.00244524 0.00238378)
(-0.0266591 0.0235926 0.00293309)
(-0.0110087 0.0243034 0.00192587)
(-0.0283026 -0.00259967 -0.000513985)
(-0.0183987 0.000355554 -0.000424141)
(-0.0249584 0.0104291 -0.00223647)
(-0.0151849 -0.00380074 -0.000445573)
(-0.0100207 0.00985926 -0.00128736)
(-0.00340236 -0.000923719 -0.000330218)
(0.00801471 0.00177212 -0.00149154)
(-0.0142476 0.00479187 -0.000650055)
(-0.00274111 -0.00451552 0.00111807)
(-0.00431902 0.00620967 0.000369713)
(-0.00755808 -0.00610916 0.00220496)
(0.0238525 -0.0281749 0.000291285)
(-0.00153331 -0.000495737 0.000457229)
(0.0190282 -0.0110499 0.000394867)
(0.0216026 -0.00264617 -0.000264768)
(0.0258793 -0.000899854 0.000120246)
(0.0164874 -0.00421566 0.000238844)
(0.0200178 0.00270449 -0.000748221)
(0.019036 -0.000944125 0.000309207)
(0.0206468 0.00140732 -0.00169898)
(0.0182303 -0.00554491 0.00337607)
(0.0161363 0.00249214 0.000453552)
(0.0136707 0.00341604 0.00143414)
(0.0223522 -0.0038088 0.00108111)
(0.0131935 -0.00041457 -0.00010116)
(0.0290775 -0.00278049 0.00163672)
(0.0231703 0.00349463 -4.33137e-05)
(0.00380695 0.000370395 -0.000205677)
(0.0065135 -0.0032116 -8.76594e-05)
(0.00683156 -0.00902899 5.39689e-05)
(0.00978138 -0.00860617 -0.000672654)
(0.0137847 -0.0202051 0.000578074)
(0.000610593 -0.000963228 7.46341e-05)
(0.000583514 -0.000310951 2.22518e-05)
(0.000879616 -0.000179769 -4.77596e-07)
(0.000725074 -0.000255235 -2.34535e-05)
(0.000783801 -0.000170029 8.43343e-06)
(0.000450497 -5.80522e-05 4.53125e-08)
(0.000460677 -5.19327e-05 -3.21142e-06)
(0.000447268 -4.89439e-05 -3.99227e-07)
(0.000696519 -7.70828e-05 -1.32606e-06)
(0.000804345 -1.77032e-05 -7.36799e-07)
(0.00088139 -2.97151e-05 -1.03987e-06)
(0.00114361 -2.00269e-05 -9.08864e-07)
(0.000576342 -4.24116e-05 -3.6473e-06)
(0.000594368 -3.61954e-05 -4.83452e-06)
(0.000948608 -8.81974e-05 -4.56088e-06)
(0.000980022 -7.5281e-05 -6.15126e-06)
(0.000808905 -1.45447e-05 -1.05206e-07)
(0.000803681 -2.18993e-05 -5.37746e-07)
(0.00106174 -2.45423e-05 7.31571e-08)
(0.000810527 -8.05082e-06 3.25943e-08)
(0.000817346 -1.20548e-05 1.84143e-07)
(0.00108306 -1.27488e-05 2.08842e-07)
(0.000810448 -5.05112e-06 -3.16331e-08)
(0.000812836 -7.30563e-06 -1.24777e-08)
(0.00108052 -7.91253e-06 1.62922e-07)
(0.000810008 -3.19511e-06 5.88714e-08)
(0.000811975 -4.59158e-06 1.78521e-07)
(0.00108065 -5.10556e-06 1.77743e-07)
(0.000809111 -1.93995e-06 5.47883e-08)
(0.000810738 -2.77473e-06 5.46426e-08)
(0.00107962 -3.14908e-06 1.81217e-07)
(0.000807943 -1.12911e-06 4.988e-08)
(0.000809197 -1.69269e-06 4.73162e-08)
(0.00107822 -1.85063e-06 1.80629e-07)
(0.000806568 -7.58602e-07 4.77006e-08)
(0.0008076 -1.04057e-06 5.25967e-08)
(0.00107647 -1.02825e-06 1.72503e-07)
(0.000805134 -6.44791e-07 5.10689e-08)
(0.000806084 -6.67366e-07 4.94228e-08)
(0.00107461 -8.95131e-07 1.78244e-07)
(0.00080361 -6.08906e-07 5.77275e-08)
(0.000804493 -5.11911e-07 5.01326e-08)
(0.00107252 -7.37416e-07 2.18367e-07)
(0.000802455 -5.25276e-07 4.52088e-08)
(0.000802988 -1.8798e-07 5.65153e-08)
(0.0010708 -8.06977e-07 1.82748e-07)
(0.000800845 -3.14643e-07 4.89139e-08)
(0.000801654 -1.95548e-07 6.49199e-08)
(0.001069 -5.42074e-07 1.80548e-07)
(0.000799317 -1.92755e-07 5.93505e-08)
(0.000800131 -3.14212e-07 6.64808e-08)
(0.00106686 -2.99285e-07 1.8147e-07)
(0.000797871 -2.23746e-07 3.34592e-08)
(0.000798571 -1.14314e-07 5.36052e-08)
(0.00106494 -2.48322e-07 1.76694e-07)
(0.000796179 -1.97367e-07 3.91102e-08)
(0.000797084 8.0707e-07 3.92578e-08)
(0.0010628 -3.86207e-07 1.28962e-07)
(0.000794861 -3.2891e-08 4.38905e-08)
(0.000795592 4.18485e-08 7.62082e-08)
(0.00106074 -1.84196e-07 1.5545e-07)
(0.000793172 1.16072e-07 2.86004e-08)
(0.000794075 3.23002e-08 4.73813e-08)
(0.00105876 5.6593e-08 1.7954e-07)
(0.000791658 2.19349e-07 4.58566e-08)
(0.000792541 -7.26302e-08 4.76497e-08)
(0.00105662 2.22471e-07 1.72423e-07)
(0.000790244 3.39956e-07 5.83889e-08)
(0.00079107 -1.15173e-08 6.4237e-08)
(0.00105463 3.56323e-07 1.73335e-07)
(0.00078886 5.79395e-07 1.04412e-08)
(0.000789649 5.13859e-07 5.14572e-08)
(0.00105271 5.85023e-07 1.27139e-07)
(0.000787722 6.51397e-07 1.36707e-09)
(0.000788186 9.01785e-07 -5.2657e-09)
(0.00105117 1.07301e-06 1.0119e-07)
(0.000785663 4.52881e-07 5.38906e-08)
(0.000786494 3.77002e-07 4.5604e-08)
(0.00104906 8.11522e-07 2.48031e-07)
(0.00078426 4.10908e-07 3.4568e-08)
(0.000785032 3.3755e-07 6.29166e-08)
(0.00104663 5.46239e-07 1.68634e-07)
(0.00078273 2.35363e-07 2.09199e-08)
(0.000783575 2.9235e-07 1.0358e-08)
(0.00104463 7.13769e-07 1.93345e-07)
(0.000781321 -9.44296e-09 4.57577e-08)
(0.000781993 -6.60998e-08 4.06349e-08)
(0.00104273 5.08216e-08 1.741e-07)
(0.000779908 5.5343e-08 5.64097e-08)
(0.000780612 8.32831e-08 4.84952e-08)
(0.00104089 -1.17581e-08 1.70834e-07)
(0.000778644 1.07138e-07 1.80119e-07)
(0.000779237 3.75726e-08 5.59288e-08)
(0.00103905 1.71288e-07 1.79194e-07)
(0.000777117 4.32158e-08 2.40952e-07)
(0.000777819 1.07022e-07 1.7317e-07)
(0.00103726 1.21675e-07 1.63342e-07)
(0.000775743 -4.17946e-08 1.19266e-07)
(0.000776354 -4.28404e-08 1.19544e-07)
(0.00103525 -6.63292e-09 1.66995e-07)
(0.000774312 -1.47414e-07 3.65518e-08)
(0.000774926 -6.51402e-08 6.10858e-08)
(0.00103343 -1.08335e-07 1.74202e-07)
(0.000772679 -1.95491e-07 2.47184e-08)
(0.000773429 -2.70076e-07 3.14858e-08)
(0.00103134 -3.07873e-07 1.93913e-07)
(0.000771261 -8.52662e-08 -1.04911e-08)
(0.000772036 -3.53479e-07 -7.80496e-08)
(0.00102925 -2.74762e-07 1.87772e-07)
(0.000769962 5.93374e-08 1.98215e-08)
(0.000770654 -1.32661e-07 5.0754e-09)
(0.00102745 1.26904e-08 1.79764e-07)
(0.000768607 2.26021e-07 1.31486e-07)
(0.000769297 9.41995e-08 2.50221e-07)
(0.00102586 2.1544e-07 1.77227e-07)
(0.000767323 4.95023e-07 3.45002e-08)
(0.000768027 3.98335e-07 9.55057e-08)
(0.00102404 5.09102e-07 1.5638e-07)
(0.000765475 4.37721e-07 -8.03007e-08)
(0.000766405 -9.45016e-07 -4.40577e-08)
(0.00102186 8.54821e-07 1.908e-07)
(0.00076441 1.87198e-07 -5.67703e-09)
(0.000764901 1.92745e-07 6.88515e-08)
(0.00101993 3.01345e-07 1.49788e-07)
(0.000763153 1.96767e-07 6.1274e-08)
(0.000763797 6.69227e-08 4.7517e-08)
(0.00101837 1.91848e-07 1.63845e-07)
(0.000761732 3.10279e-07 5.92228e-08)
(0.000762556 9.09596e-07 4.19523e-08)
(0.00101667 2.85214e-07 1.08623e-07)
(0.000759677 2.89825e-07 4.50727e-08)
(0.000760734 1.28325e-06 3.80451e-08)
(0.00101425 4.58208e-07 1.69586e-07)
(0.000758491 2.29337e-07 1.07836e-07)
(0.000759033 -3.07139e-08 6.18846e-08)
(0.00101205 2.69645e-07 1.66386e-07)
(0.000757771 -1.2411e-06 1.09017e-07)
(0.00101058 3.39755e-07 1.96812e-07)
(0.00603454 -0.00284783 0.00276252)
(0.00184816 -0.00639673 9.02842e-05)
(-0.00650021 0.016196 0.000657207)
(0.00357084 0.00688752 -0.00138562)
(0.00311918 0.00251264 3.29968e-05)
(-0.0104105 0.00317576 -0.000153562)
(0.00586063 -0.010452 0.000705276)
(0.00135897 -0.00970423 0.0014227)
(-0.000219812 -0.00661078 -0.000194034)
(0.0072079 -0.00646228 -0.000155675)
(0.00353005 -0.00588356 0.000659405)
(0.00861001 0.00174586 -0.00266542)
(0.00821493 0.00556048 -0.0183674)
(0.00626339 -0.000206439 0.0051632)
(0.0130156 0.0043117 0.0170147)
(-0.0327315 -0.00458116 0.000221962)
(-0.031231 -0.0163714 -0.00115982)
(-0.017707 0.00304788 -0.00069021)
(-0.0408501 -0.00318723 -0.00195828)
(-0.024878 -0.00214178 -0.0022273)
(0.000547062 -0.0012224 4.12881e-05)
(-0.00437628 -0.0112787 0.000247992)
(-0.00131948 -0.00171032 -0.00034927)
(0.00253222 -0.00445844 0.000513608)
(-0.00811856 -0.00275899 -3.95532e-05)
(0.0120013 -0.0028872 -0.000205719)
(0.0127116 -0.00725488 0.000306593)
(-0.0101116 0.00756768 -0.000639036)
(0.00371909 -0.0167868 -0.000261545)
(0.0173036 -0.00857572 0.000144046)
(0.0150995 -0.010562 0.000247313)
(0.021726 -0.0217565 0.00129975)
(0.0177671 -0.0136685 -0.000996049)
(0.0017998 -0.00323576 0.000261873)
(0.000968293 -0.00708035 0.00021887)
(-0.000940581 -0.00323067 4.71598e-05)
(-0.00206686 -0.00632923 -6.13519e-05)
(-0.00293848 -0.00478864 0.000368856)
(0.000976003 0.000844836 3.11925e-05)
(0.00169192 0.000805195 1.17104e-05)
(0.00154929 0.00128165 9.92416e-05)
(0.00149848 0.00112455 -5.57901e-05)
(0.00125671 0.000464337 3.38532e-05)
(0.00034017 -3.29456e-05 -2.84695e-06)
(0.000493503 -4.14036e-05 -3.55376e-06)
(0.000495138 -4.57557e-05 -4.87632e-07)
(0.000797771 -7.49036e-05 -1.22513e-06)
(0.000335789 -4.26765e-05 -2.71167e-06)
(0.000618261 -6.42657e-05 -2.51277e-06)
(0.000610784 -9.07028e-05 -1.01412e-06)
(0.000478183 -4.26806e-05 -4.53519e-07)
(0.000829341 -2.52556e-05 -8.40984e-07)
(0.000910396 -2.12431e-05 -1.06987e-06)
(0.0012062 -3.97223e-05 -1.01769e-06)
(0.000618529 -3.53794e-05 -4.05548e-06)
(0.000627954 -2.97681e-05 -5.27668e-06)
(0.00101157 -6.90022e-05 -4.94173e-06)
(0.00103535 -5.75202e-05 -6.57213e-06)
(0.000822184 -1.58094e-05 -2.48633e-07)
(0.000815536 -1.28396e-05 -6.77782e-07)
(0.00108142 -2.61218e-05 3.59874e-08)
(0.000817815 -9.46234e-06 1.39135e-07)