/*--------------------------------*- C++ -*----------------------------------*\
| =========                 |                                                 |
| \\      /  F ield         | OpenFOAM: The Open Source CFD Toolbox           |
|  \\    /   O peration     | Version:  5.0                                   |
|   \\  /    A nd           | Web:      www.OpenFOAM.org                      |
|    \\/     M anipulation  |                                                 |
\*---------------------------------------------------------------------------*/
FoamFile
{
    version     2.0;
    format      ascii;
    class       surfaceVectorField;
    location    "1.2";
    object      Uf_0;
}
// * * * * * * * * * * * * * * * * * * * * * * * * * * * * * * * * * * * * * //

dimensions      [0 1 -1 0 0 0 0];

internalField   nonuniform List<vector> 
23728
(
(-0.00251659 -0.000345119 -0.0003237)
(-0.00671265 0.000495989 0.000646569)
(-0.000280919 0.000724827 0.000240961)
(-0.00961399 0.00168433 -0.000215057)
(-0.0066039 0.000612412 0.00236263)
(-0.00986493 0.0025404 0.000359351)
(-0.00447378 0.0124029 -0.000370487)
(0.00151525 0.000943878 -0.000688658)
(0.00126685 -0.000977469 -0.000512699)
(0.00754102 -0.0044141 0.000525797)
(-0.0076134 0.0068561 -0.000194717)
(0.00908624 0.000820104 0.00128196)
(0.0022612 -0.000475662 -5.52606e-05)
(0.00160973 0.000226019 -0.001483)
(0.00165258 0.00319522 0.000621765)
(0.00133884 0.0143571 -0.000550381)
(-0.000596041 0.0121539 0.000500179)
(-0.00912321 0.0162763 -0.00016169)
(0.00617013 0.00578783 -0.000759201)
(0.00316711 4.08773e-05 -0.000431205)
(0.0207125 0.00878923 -0.00103406)
(0.00447971 0.00899375 0.000317217)
(0.0154619 -0.00629223 2.00282e-05)
(0.0204521 0.00752028 0.00141915)
(0.019883 -0.000294758 -2.19967e-05)
(0.0181073 -0.002322 0.000377693)
(0.0246885 0.000514795 -0.000130762)
(0.00941557 -0.00227533 -0.000531869)
(0.0166959 0.00743473 -0.00210421)
(-0.00578725 0.00393084 -0.00194254)
(0.00197309 0.00987438 -0.00270683)
(0.0258806 0.000283991 0.0290021)
(0.0177217 -0.0094373 -0.201767)
(0.0107191 0.000648859 0.0269863)
(0.00716195 0.0144693 0.14033)
(0.00299697 0.00206524 0.000282523)
(0.000783817 4.21847e-05 0.000122658)
(-0.000227143 -0.000544977 0.000151852)
(0.00051749 -0.00169208 0.000269835)
(0.000285098 9.49416e-05 -1.39731e-06)
(0.000452371 6.90034e-05 -2.9597e-06)
(0.000405396 6.77334e-05 -1.80884e-06)
(0.000682179 0.000121084 -1.89551e-06)
(0.000286413 6.86003e-05 -1.23577e-06)
(0.000545827 0.000204874 3.02928e-06)
(0.000548867 0.000136522 3.07658e-06)
(0.000795563 3.86746e-05 -1.25765e-06)
(0.00079337 3.36212e-05 -2.21939e-06)
(0.00106241 5.73247e-05 -1.52313e-06)
(0.000561728 5.58713e-05 -3.4858e-06)
(0.000559253 4.4622e-05 -3.49217e-06)
(0.000958653 9.76919e-05 -3.44432e-06)
(0.000955143 6.93209e-05 -3.59351e-06)
(0.000804345 2.28467e-05 -3.55548e-09)
(0.000792329 2.01504e-05 -1.42543e-08)
(0.00106457 3.35837e-05 1.5508e-07)
(0.000808694 1.37138e-05 7.0985e-08)
(0.000803632 1.24074e-05 9.77966e-08)
(0.00107663 1.98087e-05 1.95473e-07)
(0.000810098 8.29303e-06 6.79927e-08)
(0.000807238 7.73977e-06 7.00104e-08)
(0.00107947 1.21021e-05 1.81412e-07)
(0.000810804 4.98789e-06 3.47102e-08)
(0.000809131 4.85882e-06 6.89704e-08)
(0.00108084 7.12614e-06 1.75295e-07)
(0.000810853 3.26066e-06 2.58315e-08)
(0.000809918 3.06232e-06 2.91498e-08)
(0.00108151 4.37363e-06 1.84671e-07)
(0.000809154 2.2036e-06 4.39534e-08)
(0.000809424 1.55705e-06 5.08663e-08)
(0.00108037 3.17583e-06 1.56652e-07)
(0.000807866 1.40127e-06 2.74095e-08)
(0.000808288 1.16265e-06 4.26261e-08)
(0.00107823 1.96991e-06 1.84811e-07)
(0.000806715 8.37663e-07 3.62079e-08)
(0.000807091 3.23498e-07 2.30762e-08)
(0.00107667 1.31316e-06 2.0656e-07)
(0.000805261 4.17657e-07 4.2088e-08)
(0.000805733 5.30394e-07 5.27798e-08)
(0.00107495 6.42701e-07 1.79317e-07)
(0.000803544 1.67022e-07 5.01779e-08)
(0.000804357 2.37929e-07 5.53866e-08)
(0.00107285 3.33941e-07 2.14671e-07)
(0.000801879 -6.9053e-08 8.29324e-08)
(0.000802787 -2.65586e-07 5.95436e-08)
(0.00107053 6.28486e-08 2.17197e-07)
(0.000800928 -1.33969e-07 7.73718e-08)
(0.0008014 3.39847e-07 6.19373e-08)
(0.00106881 -2.51714e-07 2.59371e-07)
(0.000799286 -1.5374e-08 3.6476e-08)
(0.000799992 1.81786e-07 7.72085e-08)
(0.00106717 -7.42597e-08 2.03126e-07)
(0.000797542 -4.96883e-08 2.58076e-08)
(0.000798222 -2.55082e-09 5.07116e-09)
(0.00106478 9.62134e-08 1.83567e-07)
(0.000796024 -1.01994e-07 4.30362e-08)
(0.000796704 7.14827e-08 5.42823e-08)
(0.00106263 -1.22366e-07 1.59589e-07)
(0.000794537 2.30458e-08 3.18756e-08)
(0.000795429 -2.35381e-07 4.03249e-08)
(0.00106071 -4.89382e-08 1.86135e-07)
(0.000792749 1.84054e-07 3.72701e-08)
(0.000793837 1.39896e-07 3.58992e-08)
(0.00105854 2.04583e-07 2.1735e-07)
(0.000791117 3.21289e-07 6.23877e-08)
(0.000792152 4.15697e-07 6.16925e-08)
(0.00105619 4.08712e-07 1.78009e-07)
(0.000790311 2.64046e-07 5.7309e-08)
(0.000790658 -9.84355e-07 4.30551e-08)
(0.00105459 5.29476e-07 1.82776e-07)
(0.00078863 2.43767e-07 5.89246e-08)
(0.000789355 1.63066e-07 4.80259e-08)
(0.00105313 1.93924e-07 1.75804e-07)
(0.000786577 2.35888e-08 5.63816e-08)
(0.000787383 -1.14749e-07 3.08019e-08)
(0.00105046 4.37837e-07 2.48453e-07)
(0.000785025 -4.87914e-07 -4.04063e-09)
(0.000785416 -7.40949e-09 6.06347e-08)
(0.00104799 -4.08801e-07 1.97784e-07)
(0.000783597 -6.34518e-07 -3.38859e-08)
(0.000784273 1.79471e-06 4.03382e-08)
(0.00104616 -9.18687e-07 -1.69466e-08)
(0.000781823 -5.40801e-07 3.51407e-08)
(0.000782842 9.74946e-07 6.60894e-09)
(0.00104389 -7.95193e-07 9.23015e-08)
(0.000780835 -3.93492e-07 7.40486e-08)
(0.000781448 2.29872e-07 1.41419e-07)
(0.00104203 -6.41634e-07 1.64087e-07)
(0.000779585 -1.73963e-07 5.40931e-08)
(0.000780344 -3.03763e-08 5.02376e-08)
(0.00104076 -3.55309e-07 1.275e-07)
(0.000777958 -2.78559e-08 4.53369e-08)
(0.000778859 1.05621e-08 4.69939e-08)
(0.00103883 -2.53955e-08 1.74199e-07)
(0.000776377 4.78023e-09 4.65626e-08)
(0.000777173 1.90842e-07 6.70973e-08)
(0.0010366 3.05852e-08 1.69303e-07)
(0.000774818 4.01832e-08 3.86022e-08)
(0.000775679 1.15582e-07 4.94119e-08)
(0.00103449 3.60564e-08 1.73755e-07)
(0.000773386 1.95909e-07 -7.75292e-08)
(0.000774201 7.37344e-08 4.31969e-08)
(0.00103241 1.16989e-07 1.65194e-07)
(0.000771657 3.77531e-07 -5.86004e-08)
(0.00077265 2.99045e-07 -7.14349e-08)
(0.00103039 4.65636e-07 1.8633e-07)
(0.000770894 2.45328e-07 4.93848e-08)
(0.000771215 -1.29803e-06 6.86507e-08)
(0.00102884 5.65382e-07 2.01615e-07)
(0.000769374 3.99087e-08 5.25079e-08)
(0.000769884 1.15799e-07 4.72103e-08)
(0.00102724 8.20008e-08 1.7336e-07)
(0.000767858 -9.29529e-08 8.11318e-08)
(0.000768381 -2.46997e-08 6.788e-08)
(0.00102511 2.76515e-08 1.71266e-07)
(0.000766511 -2.26386e-07 1.67202e-07)
(0.00076705 -3.6843e-07 5.59659e-08)
(0.00102347 -3.04427e-07 1.76578e-07)
(0.000764907 -2.09045e-07 1.40645e-07)
(0.000765705 -4.20067e-07 1.68812e-07)
(0.00102134 -3.30186e-07 1.93496e-07)
(0.00076338 -1.27276e-07 4.10094e-08)
(0.000764222 2.00448e-07 4.58425e-08)
(0.00101918 -2.39758e-07 1.63425e-07)
(0.000761945 -5.94949e-08 5.77408e-08)
(0.00076281 1.29971e-07 4.92026e-08)
(0.00101731 -1.40623e-07 1.46839e-07)
(0.000760831 -2.23317e-07 7.65146e-08)
(0.000761352 -1.02828e-06 4.33051e-08)
(0.00101551 -6.90511e-08 2.11801e-07)
(0.00075934 -3.72883e-07 3.24515e-08)
(0.000759987 -2.47648e-07 6.62454e-08)
(0.00101393 -5.29085e-07 1.69131e-07)
(0.000757623 -2.79535e-07 2.18163e-08)
(0.000758447 1.27118e-06 3.18502e-08)
(0.00101169 -4.48502e-07 8.53831e-08)
(0.000757107 -4.60922e-07 4.66785e-08)
(0.00100939 -3.13557e-07 2.57185e-07)
(-0.0135305 -0.0050985 0.00027462)
(-0.0078688 -0.0122313 0.000226943)
(-0.00863025 -0.00675378 0.00201463)
(-0.00715381 -0.000428955 -0.000515818)
(0.00401226 0.00248407 -0.000177603)
(0.00437169 0.00293177 -0.000373282)
(0.00274931 0.00249822 -0.00106504)
(-0.00463067 -0.0113064 0.000595611)
(-0.0174525 -0.00395362 -0.000465848)
(-0.00965109 0.00106708 0.000186831)
(-0.0206837 -0.00293052 -5.92051e-05)
(-0.00824989 -0.00237222 0.000159649)
(-0.00437778 0.00325115 -0.000643111)
(-0.00774156 0.00403292 -0.00042028)
(-0.00602194 0.00792143 -0.000807455)
(0.0030311 -0.0031524 0.00131933)
(-0.0277005 0.00681473 0.0027213)
(0.00387691 -0.0374556 -0.00629861)
(-0.0455516 -0.0385815 -0.00268666)
(0.0755741 -0.0129504 -0.00497155)
(0.0204049 -0.00346063 -0.00359491)
(0.00519264 -0.0278537 -0.0124608)
(0.00606751 -0.00264272 0.000284221)
(0.0187225 -0.00501958 0.000405445)
(0.00431049 -0.00322731 0.000362886)
(0.00756972 -0.00459231 -0.000118933)
(0.0137759 -0.0138174 0.00134448)
(0.000328051 4.11271e-05 1.09434e-05)
(0.000396672 6.58111e-05 -4.53211e-08)
(0.00041557 3.80418e-05 -1.34051e-06)
(0.000653878 7.16388e-05 6.41874e-06)
(0.00030066 2.71152e-05 2.27947e-05)
(0.000672058 7.69165e-05 3.02171e-05)
(0.000532953 5.77278e-05 5.03375e-05)
(0.000261386 2.31367e-05 2.52095e-06)
(0.0004448 1.82515e-05 1.09594e-05)
(0.000478959 3.14021e-05 -1.55069e-06)
(0.000260761 2.53245e-05 -7.05802e-07)
(0.000781937 8.01207e-06 -9.76715e-07)
(0.000819466 -1.02517e-05 -1.73355e-06)
(0.00105605 4.65047e-06 -1.2793e-06)
(0.000539801 1.76174e-05 -3.59216e-06)
(0.000540626 -4.71578e-06 -4.09839e-06)
(0.000915792 2.00831e-05 -3.54172e-06)
(0.00092836 -3.13186e-05 -4.35201e-06)
(0.000794358 5.58606e-06 8.70611e-08)
(0.000789398 2.61734e-06 -2.58184e-07)
(0.00105024 3.85006e-06 1.75761e-07)
(0.000802638 4.1692e-06 9.68312e-08)
(0.000801893 -1.49128e-07 9.44724e-08)
(0.00106797 3.72323e-06 1.91361e-07)
(0.000806584 2.94595e-06 7.09884e-08)
(0.000805725 7.04538e-07 6.15469e-08)
(0.00107438 3.10275e-06 1.84399e-07)
(0.000808453 1.98663e-06 6.3423e-08)
(0.00080794 4.26336e-07 6.59821e-08)
(0.00107779 2.19974e-06 1.83921e-07)
(0.000808929 1.22148e-06 5.41776e-08)
(0.000808965 3.85826e-07 5.82692e-08)
(0.00107903 1.56616e-06 1.83336e-07)
(0.000808431 7.10978e-07 4.95417e-08)
(0.000808788 1.85563e-07 5.0221e-08)
(0.00107878 7.61014e-07 1.77756e-07)
(0.00080764 4.82161e-07 3.8299e-08)
(0.000808004 1.31987e-07 5.15852e-08)
(0.00107786 5.5733e-07 1.79962e-07)
(0.00080609 3.66129e-07 3.96384e-08)
(0.000806946 6.66226e-07 4.59307e-08)
(0.00107619 3.48287e-07 1.5105e-07)
(0.000804836 3.58773e-07 6.60776e-08)
(0.000805724 9.84678e-08 5.43469e-08)
(0.00107429 3.68158e-07 1.79096e-07)
(0.000803649 4.1023e-07 6.47509e-08)
(0.000804421 -2.6864e-07 5.68675e-08)
(0.00107272 3.79857e-07 1.7856e-07)
(0.00080217 4.44596e-07 3.85477e-08)
(0.00080283 -3.76442e-07 8.65155e-09)
(0.00107083 5.31813e-07 1.76706e-07)
(0.000800643 3.80194e-07 6.17691e-08)
(0.000801319 2.44709e-07 3.53559e-08)
(0.00106882 5.07835e-07 1.8012e-07)
(0.000798924 2.59901e-07 4.58268e-08)
(0.000799841 6.84754e-08 7.41022e-08)
(0.00106672 4.12282e-07 1.98372e-07)
(0.000797218 3.33341e-07 3.35302e-08)
(0.000798312 2.29249e-07 2.12368e-08)
(0.00106441 2.40603e-07 1.73754e-07)
(0.000796202 3.97726e-07 5.15755e-08)
(0.000796783 -2.09132e-06 3.972e-08)
(0.0010625 6.45841e-07 2.80768e-07)
(0.000794808 1.98099e-07 4.435e-08)
(0.000795178 -9.14925e-07 -2.70281e-08)
(0.00106104 4.41882e-07 2.10681e-07)
(0.000793132 5.71076e-08 6.03134e-08)
(0.00079366 7.21404e-08 5.2604e-08)
(0.00105902 1.47547e-07 1.92991e-07)
(0.000791712 9.05887e-08 4.23658e-08)
(0.000792193 -3.99597e-08 4.85846e-08)
(0.00105685 7.09171e-08 1.98078e-07)
(0.000789629 -1.8111e-08 3.37704e-08)
(0.000790522 -1.97462e-07 3.42736e-08)
(0.00105445 2.06346e-07 1.69284e-07)
(0.000788506 -5.26509e-07 1.99086e-08)
(0.000788721 -3.62801e-07 5.41493e-08)
(0.00105246 -2.39313e-07 1.77566e-07)
(0.000785816 -6.89365e-07 3.50456e-08)
(0.000787181 3.36972e-06 -4.18131e-08)
(0.00104991 -1.16171e-06 3.32231e-08)
(0.000784641 -4.66333e-07 1.0502e-07)
(0.000785698 -3.91966e-07 6.60666e-08)
(0.00104718 -6.72143e-07 1.72628e-07)
(0.000783654 -3.29421e-07 8.08437e-08)
(0.000784446 -3.2474e-08 1.09712e-07)
(0.00104595 -5.56224e-07 2.58474e-07)
(0.000782359 7.80328e-08 1.12844e-07)
(0.000783351 -6.0344e-08 5.11821e-08)
(0.0010444 -3.08606e-07 2.30039e-07)
(0.000780938 4.93428e-07 1.17636e-07)
(0.000781966 6.67663e-07 2.45494e-07)
(0.00104257 5.66101e-07 1.36897e-07)
(0.000779757 4.0438e-07 4.31395e-08)
(0.00078023 1.08777e-06 9.15376e-08)
(0.00104093 8.23466e-07 6.75452e-08)
(0.000778018 1.65877e-07 6.87481e-08)
(0.000778559 3.33336e-07 6.92967e-08)
(0.0010389 2.91484e-07 1.73962e-07)
(0.000776442 1.32262e-07 6.99521e-08)
(0.00077713 -3.25974e-08 6.66489e-08)
(0.00103661 1.65162e-07 1.98576e-07)
(0.000775091 1.72492e-07 5.40086e-08)
(0.000775728 -1.50252e-07 6.10406e-08)
(0.00103472 2.01804e-07 1.81842e-07)
(0.000773499 2.52439e-07 4.93267e-08)
(0.000774299 1.12508e-07 5.28504e-08)
(0.00103285 2.91641e-07 1.81886e-07)
(0.000772093 4.16885e-07 5.57728e-08)
(0.000772854 3.62779e-07 4.01215e-08)
(0.00103077 4.59357e-07 1.63687e-07)
(0.00077022 3.3164e-07 6.64828e-08)
(0.000771107 -6.31404e-07 6.80043e-08)
(0.00102851 7.03339e-07 1.6245e-07)
(0.000768986 -7.28865e-08 6.2576e-08)
(0.000769378 -9.83682e-08 7.68683e-08)
(0.0010265 1.79205e-07 1.68642e-07)
(0.000767473 -4.53983e-07 4.27178e-08)
(0.000767905 2.3953e-07 6.47255e-08)
(0.00102462 -3.49969e-07 1.59515e-07)
(0.000766284 -5.11269e-07 5.75409e-08)
(0.00076698 -8.27444e-07 1.4014e-07)
(0.0010228 -7.92592e-07 1.82763e-07)
(0.000764993 -2.53646e-07 7.40471e-08)
(0.000766029 -9.66202e-08 8.67086e-08)
(0.00102135 -5.74507e-07 1.35566e-07)
(0.000763673 -1.02478e-07 5.40346e-08)
(0.000764413 3.56014e-09 6.68008e-08)
(0.00101952 -1.72809e-07 1.76093e-07)
(0.000762227 -2.74815e-08 3.47687e-08)
(0.000762904 2.28564e-09 4.45228e-08)
(0.00101764 -1.54995e-07 1.8287e-07)
(0.00076045 -3.28108e-08 3.30289e-08)
(0.000761346 -2.5571e-08 2.49959e-08)
(0.00101555 5.32344e-08 1.30838e-07)
(0.000759196 -1.96121e-07 6.56545e-08)
(0.000759784 -4.98899e-07 6.16351e-08)
(0.0010135 -1.31165e-07 1.74841e-07)
(0.000757742 -2.56589e-07 5.67079e-08)
(0.000758375 3.43577e-07 7.4162e-08)
(0.00101161 -3.8012e-07 2.42776e-07)
(0.000757426 1.29717e-07 5.01011e-08)
(0.0010103 -3.05957e-07 8.38221e-08)
(0.00743807 -0.0148625 -0.000896014)
(0.026096 -0.00303871 -0.000241857)
(0.0364603 -0.0104239 -0.00150323)
(0.0200097 -0.0262473 -0.00245028)
(0.00978584 -0.0111222 0.000610107)
(0.00614729 0.00125597 -0.000285857)
(0.0172791 -0.0151768 -0.00119949)
(-0.0133129 -0.0387366 -3.35735e-05)
(0.0107564 -0.0188652 0.00155246)
(-0.0179952 -0.00764047 -0.00190617)
(0.009359 0.00753735 -0.00037391)
(0.0143211 -0.00203804 0.0185772)
(0.00926317 -0.00743046 -0.036983)
(0.0150043 -0.0079962 -0.0213733)
(0.0145763 0.00254602 0.0429055)
(-0.012863 0.00719138 -0.00280181)
(0.00219567 -0.00234389 0.000406843)
(0.00826106 -0.00280325 0.00190308)
(-0.000204377 0.00271016 0.000664304)
(0.00583467 0.00306321 0.000529671)
(-0.00657872 0.00913517 0.00128473)
(-0.00319323 -0.010329 -0.00124114)
(0.0109064 0.0104424 0.000547672)
(0.0114532 -0.00370757 -0.00114368)
(-0.0075838 -0.00674661 -0.00110243)
(-0.00289654 -0.00487437 0.000822084)
(0.00107156 0.00191802 0.000809608)
(0.0168895 -0.0094712 -0.00200725)
(0.025073 -0.0238018 -0.00113413)
(0.0012202 -0.0334089 -3.37205e-05)
(0.00645936 -0.00321463 -0.000164917)
(0.0134455 0.00733976 0.00119264)
(0.00812472 -0.0119548 -0.000354436)
(0.0138292 0.0016979 0.00405652)
(0.0146346 6.38365e-05 -0.000177147)
(-0.0101254 0.0083067 0.000694271)
(0.00431826 0.00120579 -0.000152703)
(0.000690173 0.00338418 0.000189036)
(-0.00152122 0.00893388 -0.00143633)
(0.00586355 -0.0128401 3.87976e-05)
(0.009612 -0.00224814 -0.000652975)
(0.00632072 -0.00447891 0.000156762)
(0.00351065 -0.00900693 -0.000351634)
(0.00289175 -0.0034689 1.8689e-05)
(0.000347029 -0.000102001 3.02532e-05)
(0.000238455 -2.33069e-05 4.05002e-06)
(0.000339352 -7.62272e-05 2.17494e-05)
(0.000433104 -5.89997e-05 1.32016e-05)
(0.000232912 -1.36229e-05 2.88035e-06)
(0.000806588 -1.30573e-05 -1.0155e-06)
(0.000546984 -2.91658e-05 -1.0161e-06)
(0.00114484 -4.96386e-05 -1.04875e-06)
(0.000558276 -3.96547e-05 -4.57023e-06)
(0.000578973 -2.12854e-05 -5.06392e-06)
(0.000937841 -8.55126e-05 -4.64534e-06)
(0.000975736 -3.43994e-05 -3.18963e-06)
(0.000550059 -4.36773e-05 -3.59373e-06)
(0.000911984 -4.70466e-05 -4.44171e-07)
(0.000915139 -7.50565e-05 -4.58599e-06)
(0.000801121 2.22382e-06 -2.50888e-07)
(0.000817976 9.6748e-06 -7.89613e-07)
(0.0010637 8.49059e-06 2.41698e-08)
(0.000805997 -2.25551e-06 5.91988e-08)
(0.000796404 -8.19335e-06 -2.97001e-08)
(0.00107581 -5.86571e-06 1.73975e-07)
(0.000807501 -9.22293e-07 5.65391e-08)
(0.000807423 -3.05396e-06 1.25314e-07)
(0.00107762 -2.08529e-06 1.69134e-07)
(0.000808968 -7.19012e-07 6.08308e-08)
(0.000808212 -3.81158e-06 4.00815e-08)
(0.00107895 -1.59375e-06 2.05122e-07)
(0.000809134 -5.47721e-07 5.43152e-08)
(0.000809191 -2.06753e-06 5.88872e-08)
(0.00107973 -1.08636e-06 1.94851e-07)
(0.000808462 -4.07875e-07 5.2264e-08)
(0.000808971 -9.81496e-07 5.49781e-08)
(0.00107911 -8.37729e-07 1.78998e-07)
(0.000807407 -3.04155e-07 5.92187e-08)
(0.000808138 -5.52913e-07 5.29952e-08)
(0.00107772 -5.34864e-07 1.79168e-07)
(0.0008066 -2.00258e-07 6.06364e-08)
(0.00080708 -6.27964e-07 5.62274e-08)
(0.00107644 -4.61697e-07 2.00083e-07)
(0.000805365 -8.40264e-08 4.51361e-08)
(0.000805872 -4.24465e-07 5.25454e-08)
(0.00107499 -2.03493e-07 1.83882e-07)
(0.000803694 -1.11178e-07 7.83634e-10)
(0.000804389 1.46603e-07 8.01018e-08)
(0.00107306 -1.42946e-07 1.56691e-07)
(0.00080184 -1.09842e-07 5.45112e-09)
(0.000802833 4.77538e-07 1.07516e-08)
(0.00107069 -2.88844e-07 1.42388e-07)
(0.000800653 -8.33223e-08 4.76766e-08)
(0.000801353 -2.51425e-07 3.68837e-08)
(0.00106866 -1.167e-07 1.78427e-07)
(0.000799108 -1.52047e-08 4.95291e-08)
(0.000799927 1.92889e-07 6.37564e-08)
(0.00106683 -1.67803e-07 1.66796e-07)
(0.000797958 1.75502e-07 2.74207e-08)
(0.00079855 -2.80791e-07 4.99485e-08)
(0.00106507 8.72248e-08 1.76945e-07)
(0.000795759 2.6766e-07 -3.88624e-08)
(0.000796897 1.96413e-07 9.42328e-09)
(0.00106287 3.36941e-07 7.3802e-08)
(0.000793985 1.72572e-07 -1.87994e-08)
(0.000795059 -1.48099e-07 -2.18116e-08)
(0.00106009 3.56941e-07 1.42845e-07)
(0.000792664 3.35605e-08 4.08764e-08)
(0.000793485 -1.87609e-07 3.75178e-08)
(0.00105807 8.56832e-08 1.75288e-07)
(0.000791199 -1.35299e-07 4.04969e-08)
(0.000791982 -1.40608e-07 3.24766e-08)
(0.00105626 -1.86694e-08 1.77152e-07)
(0.000789521 -2.03656e-07 5.46462e-08)
(0.000790436 3.1175e-08 5.55097e-08)
(0.0010542 -3.09833e-07 1.72928e-07)
(0.000787379 -2.27135e-07 -7.54208e-09)
(0.000788692 -2.11781e-08 7.36484e-08)
(0.00105143 -1.61213e-07 2.06055e-07)
(0.000787037 7.35331e-08 -1.08261e-08)
(0.000787557 -9.771e-07 -2.70849e-09)
(0.00104993 -3.55259e-07 3.78268e-07)
(0.000785364 6.06122e-07 7.07451e-08)
(0.000786361 -1.21166e-06 4.09416e-08)
(0.00104876 6.29779e-07 2.47412e-07)
(0.000784242 7.48167e-07 8.00689e-08)
(0.00078462 -8.65544e-07 5.24143e-08)
(0.00104662 1.0198e-06 2.0008e-07)
(0.000782987 6.21924e-07 1.83771e-07)
(0.00078319 -2.01926e-06 3.7376e-08)
(0.00104529 9.79724e-07 2.91954e-07)
(0.000781343 4.81119e-07 2.19444e-07)
(0.000781788 4.67371e-07 1.69826e-07)
(0.00104344 6.71754e-07 2.02126e-07)
(0.000778938 3.11443e-07 1.17702e-07)
(0.000780017 3.22801e-08 9.78231e-08)
(0.00104041 5.88459e-07 3.30874e-07)
(0.000777647 1.55396e-07 6.71983e-08)
(0.000778363 1.17618e-07 6.73451e-08)
(0.001038 2.02212e-07 1.724e-07)
(0.00077643 1.22357e-07 5.77391e-08)
(0.000777088 -2.97612e-08 4.49804e-08)
(0.00103648 1.70896e-07 1.50427e-07)
(0.000774944 5.29798e-08 5.9885e-08)
(0.000775641 1.94001e-09 5.38708e-08)
(0.00103464 1.35132e-07 1.6404e-07)
(0.000773581 1.75834e-08 4.36491e-08)
(0.000774255 5.62206e-08 5.09548e-08)
(0.00103272 8.61357e-09 1.68197e-07)
(0.000772107 -5.16585e-08 5.23443e-08)
(0.000772767 4.23154e-07 2.91927e-08)
(0.0010309 3.00511e-08 1.69969e-07)
(0.000770077 -8.24475e-08 7.83871e-08)
(0.000771069 9.91763e-07 5.24877e-08)
(0.00102848 -1.6485e-07 1.078e-07)
(0.000768321 -6.5839e-08 7.90216e-08)
(0.000769398 -1.73286e-07 6.1999e-08)
(0.00102593 -3.26719e-08 2.05576e-07)
(0.000767067 1.97414e-07 1.62125e-07)
(0.000768234 1.23972e-08 4.53691e-08)
(0.0010239 -1.00844e-07 1.71551e-07)
(0.000767163 3.55793e-07 1.69325e-07)
(0.000767176 -2.32138e-06 1.5171e-07)
(0.00102319 6.87563e-07 1.41491e-07)
(0.000765353 1.54868e-07 7.94684e-08)
(0.000765776 2.53211e-07 4.7161e-08)
(0.00102212 3.50293e-07 1.807e-07)
(0.000763642 8.29524e-08 5.72958e-08)
(0.000764321 3.52553e-07 6.15007e-08)
(0.00101971 1.9048e-07 1.72006e-07)
(0.000762038 1.1118e-07 3.4756e-08)
(0.000762938 3.28324e-07 4.82961e-08)
(0.00101759 1.47306e-07 1.6414e-07)
(0.000760601 1.3535e-07 5.3591e-08)
(0.000761374 6.24341e-08 5.60393e-08)
(0.00101554 2.36642e-07 1.66609e-07)
(0.000758975 1.11869e-07 7.01388e-08)
(0.000759753 -6.41119e-08 6.23447e-08)
(0.00101339 1.964e-07 1.58632e-07)
(0.00075787 8.88332e-08 6.75625e-08)
(0.000758344 -1.71353e-07 5.35755e-08)
(0.00101148 1.45419e-07 1.80695e-07)
(0.000757315 1.16174e-07 5.75206e-08)
(0.00101024 1.03242e-07 1.59716e-07)
(-0.00213176 0.0301633 0.000525243)
(0.00568413 0.00279339 0.00327138)
(0.00703812 0.0154373 0.00109116)
(-0.0392332 0.0322 0.00131195)
(-0.00949663 0.041417 -0.00317285)
(-0.0115107 0.0238363 0.00264392)
(0.0192811 -0.0338177 -0.0049598)
(-0.0306796 0.00165561 0.00286595)
(-0.0271176 -0.00281132 0.00188116)
(-0.0267022 0.00409105 0.00283629)
(-0.0259551 0.0219157 0.0029933)
(-0.00330824 0.0337131 0.00191019)
(-0.0263064 -0.00543522 3.2088e-05)
(-0.0137994 0.00338735 -0.000172751)
(-0.0300386 0.0059123 -0.000927698)
(-0.0167292 -0.00665224 -0.000122959)
(-0.0369701 0.02437 -0.00328883)
(-0.0286036 0.00260426 -0.00204214)
(-0.0150462 -0.00027256 -0.00845949)
(-0.0124715 0.0138261 -0.000764091)
(-0.00302857 -0.000484462 0.00152793)
(-0.00588362 0.00589574 0.000223744)
(-0.00835876 -0.00433604 0.00198032)
(0.0151456 -0.0229808 0.000193332)
(-0.00354827 0.000574076 0.000377146)
(0.0219376 -0.0143694 0.000538665)
(0.0198997 -0.00263586 -0.000389534)
(0.0225812 0.000309972 -7.43249e-05)
(0.0159736 -0.00100264 0.000646927)
(0.0169517 0.0024453 -0.000858327)
(0.0227747 0.00357825 0.000561779)
(0.017855 0.00166605 -0.00148439)
(0.0154323 -0.00411699 0.00322336)
(0.0152917 0.0035308 0.000279289)
(0.013659 0.00640134 0.00140736)
(0.0214643 -0.00314998 0.00114247)
(0.0117793 -0.000576682 -0.00015507)
(0.0287563 -0.0105038 0.00265495)
(0.0197848 0.000789029 -2.09122e-05)
(0.00405522 0.00186837 -0.000330567)
(0.00674067 -0.00432931 -0.000138836)
(0.00642321 -0.00893432 -2.61108e-06)
(0.0110601 -0.00802914 -0.00073648)
(0.0151543 -0.0227557 0.000693631)
(0.000570524 -0.000851613 7.16166e-05)
(0.000560948 -0.000272747 2.24142e-05)
(0.000842397 -0.000156832 -3.68497e-06)
(0.000677262 -0.000199271 -2.36553e-05)
(0.000758329 -0.000140684 7.68901e-06)
(0.000425454 -2.96815e-05 3.98566e-07)
(0.000440146 -3.30344e-05 -2.89263e-06)
(0.00042162 -3.46144e-05 -5.51032e-08)
(0.000669116 -4.18948e-05 -8.55732e-07)
(0.000794544 -9.0348e-06 -5.68674e-07)
(0.000865904 -2.69814e-05 -9.80422e-07)
(0.00112939 -4.81468e-06 -8.09368e-07)
(0.000559668 -2.76392e-05 -3.44376e-06)
(0.000575906 -2.8534e-05 -4.73003e-06)
(0.00092953 -5.91692e-05 -4.43625e-06)
(0.000954861 -5.75135e-05 -6.11779e-06)
(0.000803763 -9.86114e-06 3.63645e-08)
(0.000795378 -2.02547e-05 -3.75384e-07)
(0.00105507 -1.64367e-05 7.53123e-08)
(0.000807999 -5.46064e-06 1.08884e-07)
(0.000812961 -1.09907e-05 1.97465e-07)
(0.00107982 -8.28337e-06 2.21677e-07)
(0.000809052 -3.61002e-06 3.81318e-08)
(0.000810548 -6.79945e-06 1.02124e-08)
(0.00107909 -5.44081e-06 1.55187e-07)
(0.000809296 -2.35953e-06 5.95514e-08)
(0.00081077 -4.2605e-06 8.59538e-08)
(0.00108002 -3.72218e-06 1.70722e-07)
(0.000808849 -1.36033e-06 5.57099e-08)
(0.000810229 -2.49196e-06 5.68691e-08)
(0.0010795 -2.29434e-06 1.8354e-07)
(0.000807834 -6.80042e-07 5.00028e-08)
(0.000808994 -1.33091e-06 3.68352e-08)
(0.00107835 -1.18127e-06 1.82187e-07)
(0.000806437 -4.41749e-07 4.81375e-08)
(0.000807381 -7.74721e-07 1.745e-08)
(0.00107661 -5.60024e-07 1.71946e-07)
(0.000805009 -4.31809e-07 8.75022e-08)
(0.000805886 -6.15575e-07 5.0483e-08)
(0.0010747 -5.69971e-07 1.77676e-07)
(0.000803533 -4.29429e-07 9.0092e-08)
(0.000804394 -3.89857e-07 8.2236e-08)
(0.00107261 -5.11776e-07 2.05594e-07)
(0.000802281 -3.40859e-07 4.21758e-08)
(0.000802945 -7.38135e-08 1.03248e-07)
(0.00107087 -5.53976e-07 1.87469e-07)
(0.000800621 -2.54128e-07 5.29549e-08)
(0.000801463 -1.86373e-07 6.2706e-08)
(0.00106898 -3.23795e-07 1.80552e-07)
(0.000799352 -2.52444e-07 6.41803e-08)
(0.00079993 -7.95624e-08 7.16139e-08)
(0.00106698 -3.5664e-07 1.7035e-07)
(0.000797653 -3.15182e-07 3.19641e-08)
(0.000798473 -1.63671e-07 2.13446e-07)
(0.00106504 -3.03968e-07 1.81099e-07)
(0.000796109 -2.91011e-07 2.6484e-08)
(0.000796929 -1.58932e-07 2.72637e-08)
(0.00106283 -5.26996e-07 2.00848e-07)
(0.000794531 -7.56516e-08 3.44868e-08)
(0.000795329 -2.13319e-08 3.99319e-08)
(0.00106072 -2.53998e-07 1.70414e-07)
(0.000792795 1.17366e-07 2.91197e-08)
(0.000793727 -3.87105e-09 5.22406e-08)
(0.00105855 3.17496e-08 1.80661e-07)
(0.000791221 2.36561e-07 4.74821e-08)
(0.000792131 -5.03029e-08 4.8301e-08)
(0.00105636 2.48602e-07 1.73293e-07)
(0.000789729 3.43336e-07 7.45061e-08)
(0.000790568 -3.08868e-08 6.59551e-08)
(0.00105427 3.68732e-07 1.77005e-07)
(0.000788472 7.38857e-07 7.85061e-08)
(0.000789183 -5.2163e-07 5.55944e-08)
(0.0010524 5.79213e-07 1.87517e-07)
(0.000787281 9.20236e-07 4.90454e-08)
(0.000787779 -1.8908e-06 3.60673e-08)
(0.0010509 1.45125e-06 2.1119e-07)
(0.000785457 7.91959e-07 2.26072e-08)
(0.000786197 2.96201e-08 2.83498e-08)
(0.00104889 1.05928e-06 1.15217e-07)
(0.000783637 7.96561e-07 9.72607e-09)
(0.000784622 -1.72656e-07 3.55725e-08)
(0.00104638 1.09046e-06 1.53854e-07)
(0.000781872 5.1914e-07 2.33896e-08)
(0.00078284 -4.63311e-07 2.16297e-08)
(0.00104396 1.07123e-06 8.80101e-08)
(0.000780704 9.23175e-08 4.82277e-08)
(0.000781252 4.50483e-09 6.3978e-08)
(0.00104208 3.40281e-07 1.78387e-07)
(0.000779202 2.68071e-08 4.74761e-08)
(0.000779934 3.80253e-08 5.03439e-08)
(0.00104034 -8.45303e-08 1.75131e-07)
(0.000777853 1.2881e-07 4.51342e-08)
(0.00077849 3.62183e-07 5.26692e-08)
(0.00103838 1.71025e-07 1.44759e-07)
(0.000776303 8.25586e-08 4.11093e-08)
(0.00077703 -8.77657e-09 4.61072e-08)
(0.00103653 1.7146e-07 1.78879e-07)
(0.000774901 2.06263e-08 4.49415e-08)
(0.000775564 -2.88945e-08 4.47976e-08)
(0.00103451 3.61423e-08 1.69601e-07)
(0.000773532 -1.26136e-07 3.65051e-08)
(0.000774072 -2.57379e-08 5.63226e-08)
(0.00103272 -4.89642e-10 1.70569e-07)
(0.000771746 -2.76275e-07 2.93289e-08)
(0.00077258 1.6118e-06 5.51318e-08)
(0.00103055 -3.57871e-07 1.1696e-07)
(0.000770407 -1.43343e-07 3.60966e-08)
(0.000771236 7.07387e-07 6.43994e-08)
(0.00102843 -3.96847e-07 1.82853e-07)
(0.000769014 2.53023e-07 2.83517e-08)
(0.000769894 2.35027e-07 4.305e-08)
(0.00102658 9.57956e-09 1.38162e-07)
(0.000768543 6.33081e-07 3.49217e-08)
(0.000768707 -2.50651e-07 8.92239e-08)
(0.00102552 6.56329e-07 1.03565e-07)
(0.000765819 5.53125e-07 2.95788e-08)
(0.000767074 -1.03897e-06 4.92556e-08)
(0.00102336 9.91919e-07 1.95638e-07)
(0.000764707 1.73387e-07 2.91889e-08)
(0.000765299 4.58123e-07 -1.24225e-07)
(0.00102073 4.83956e-07 1.27875e-07)
(0.000763614 -1.06486e-08 5.2505e-08)
(0.00076409 1.34566e-07 5.21933e-08)
(0.00101926 3.89362e-08 1.57068e-07)
(0.000762391 -1.65657e-08 6.95771e-08)
(0.000762931 2.65383e-08 5.28484e-08)
(0.00101769 -1.591e-08 1.75161e-07)
(0.000760342 2.31829e-08 6.47911e-08)
(0.000761424 -4.63463e-07 2.22745e-08)
(0.00101561 -1.39158e-08 2.67089e-07)
(0.000759214 1.47271e-07 4.5784e-08)
(0.000759908 -3.30624e-07 4.30795e-08)
(0.00101338 8.10599e-08 1.64389e-07)
(0.000757591 2.32417e-07 4.35324e-08)
(0.000758448 1.09146e-07 8.52558e-08)
(0.00101148 3.15132e-07 1.69874e-07)
(0.000757026 3.5777e-07 6.91243e-08)
(0.00100999 3.06542e-07 1.20139e-07)
(0.00548326 0.00207876 0.00292298)
(0.00254428 -0.00278117 0.00014772)
(-0.0065527 0.0221959 0.000770091)
(0.00507589 0.0104778 -0.0015151)
(0.0035857 0.00220262 0.000506304)
(-0.00876383 0.00486787 -0.000400287)
(0.00724277 -0.00903024 0.000671609)
(0.00154364 -0.00817808 0.00169262)
(0.000334448 -0.00558382 -0.000208975)
(0.00838516 -0.00633233 -0.000334118)
(0.00416969 -0.00686582 0.000820223)
(0.0112967 0.00158098 8.63911e-05)
(0.00585968 -0.00118888 -0.0129286)
(0.00814395 -0.00449536 5.2929e-05)
(0.00727456 0.00243185 0.0147178)
(-0.0305427 -0.00252496 -0.000176217)
(-0.0196237 -0.0140359 -0.00138294)
(-0.0124576 0.00721748 -0.000843548)
(-0.0305939 -0.00119753 -0.00282322)
(-0.0138148 -0.000459991 -0.0018687)
(0.00229156 0.00364419 -9.2017e-05)
(-0.0178794 -0.00157976 0.00143871)
(0.00129773 -0.00078463 -0.000594462)
(-0.00786428 -0.00494048 0.000312139)
(-0.0105599 0.00125391 -0.00103209)
(0.0101603 -0.00283282 -0.000244341)
(0.0121679 -0.00717955 0.000256767)
(-0.0124623 0.00620552 -0.000825286)
(0.00251024 -0.0158509 -0.000364639)
(0.0115054 -0.00784578 0.000459784)
(0.0128077 -0.0122919 0.000499033)
(0.0188988 -0.0234724 0.00251371)
(0.0170662 -0.0179732 -0.000375895)
(0.000743426 -0.0024137 0.000333994)
(0.000976885 -0.00702781 0.00022466)
(-0.00137951 -0.00326141 6.66253e-05)
(-0.00231902 -0.00677497 -4.87004e-05)
(-0.00323236 -0.00479257 0.000491901)
(0.000849886 0.0008019 2.75389e-05)
(0.00159507 0.000780922 3.90391e-06)
(0.00146689 0.0012307 9.24987e-05)
(0.00138471 0.00108659 -6.03536e-05)
(0.00120602 0.000438638 2.94634e-05)
(0.000319269 -3.56928e-05 -2.57056e-06)
(0.000468842 -4.6719e-05 -3.24949e-06)
(0.000473826 -5.92441e-05 -1.40008e-07)
(0.000762935 -7.71241e-05 -5.73126e-07)
(0.000317066 -4.83803e-05 -2.44701e-06)
(0.000580098 -6.11128e-05 -2.13949e-06)
(0.000576496 -9.47755e-05 -6.58601e-07)
(0.000451796 -4.23218e-05 -7.40202e-08)
(0.000817195 -2.76972e-05 -7.8733e-07)
(0.000899981 -3.20488e-05 -1.04828e-06)
(0.00118822 -4.06954e-05 -9.02151e-07)
(0.000599351 -3.91833e-05 -3.93234e-06)
(0.000613318 -3.84872e-05 -5.15274e-06)
(0.00098337 -6.81249e-05 -4.92425e-06)
(0.00101104 -6.63487e-05 -6.5733e-06)
(0.00081571 -1.68888e-05 -2.1447e-07)
(0.000808947 -1.84049e-05 -6.21096e-07)
(0.00107149 -2.616e-05 3.87851e-08)
(0.000814358 -9.9354e-06 9.88544e-08)