/*--------------------------------*- C++ -*----------------------------------*\
| =========                 |                                                 |
| \\      /  F ield         | OpenFOAM: The Open Source CFD Toolbox           |
|  \\    /   O peration     | Version:  5.0                                   |
|   \\  /    A nd           | Web:      www.OpenFOAM.org                      |
|    \\/     M anipulation  |                                                 |
\*---------------------------------------------------------------------------*/
FoamFile
{
    version     2.0;
    format      ascii;
    class       volScalarField;
    location    "2.4";
    object      alpha.water;
}
// * * * * * * * * * * * * * * * * * * * * * * * * * * * * * * * * * * * * * //

dimensions      [0 0 0 0 0 0 0];

internalField   nonuniform List<scalar> 
8710
(
1.02487
1.00515
0.942351
1.02158
1.02156
1.00251
-2.97018e-18
-3.00605e-19
8.07793e-31
9.02389e-18
5.26611e-19
1.16943e-21
8.08767e-26
8.22116e-30
3.05587e-33
1.292e-36
5.20715e-40
2.21216e-43
9.52079e-47
3.64581e-50
1.81848e-53
7.67032e-57
4.59425e-60
1.11983e-63
8.22172e-67
6.96297e-70
2.73165e-73
4.71847e-77
1.25322e-79
1.34067e-83
3.00769e-86
4.30815e-90
8.81147e-93
4.6017e-95
1.40562e-98
7.37161e-102
4.45138e-105
1.44713e-107
1.31891e-111
1.05966e-115
3.05779e-118
8.53626e-121
6.15153e-124
2.47724e-126
3.165e-130
5.70039e-133
1.27688e-136
7.84163e-141
1.5708e-142
3.04118e-145
1.01542
1.00457
0.985813
1.02306
1.00632
0.995683
-3.00875e-17
-6.51816e-19
0
7.073e-19
4.67526e-20
1.52339e-22
3.00627e-26
2.86195e-30
8.99496e-34
3.6402e-37
1.52399e-40
6.44928e-44
2.76271e-47
1.09917e-50
4.63957e-54
1.92066e-57
1.02185e-60
4.88171e-64
1.89355e-67
1.2115e-70
5.2661e-74
1.38814e-77
6.55699e-81
5.24795e-84
4.18691e-87
9.62266e-90
9.62292e-94
1.56407e-96
5.61435e-100
4.51235e-103
2.9394e-106
1.94767e-110
7.3058e-112
5.92185e-115
8.60862e-119
1.02339e-121
8.58877e-126
1.79644e-129
3.6527e-132
8.58986e-135
4.68663e-138
1.18206e-141
5.11553e-145
1.12393e-145
1.00824
1.05384
0.987913
1.01558
1.02419
1.00724
0.490389
-1.29957e-17
1.72308e-16
1.62469e-16
1.40054e-18
1.95684e-21
7.8227e-24
2.66997e-27
2.1404e-31
6.52856e-35
2.67376e-38
1.11094e-41
4.61237e-45
1.90698e-48
7.88957e-52
3.2479e-55
1.33765e-58
5.49324e-62
2.25792e-65
9.49886e-69
3.86944e-72
1.5273e-75
6.90753e-79
3.50555e-82
1.08048e-85
4.22806e-89
1.82486e-91
1.05835e-94
1.79895e-98
9.97181e-102
4.01375e-105
6.53578e-109
5.11409e-111
4.63577e-114
9.49092e-118
2.70288e-121
6.04949e-124
8.20345e-128
1.02733e-130
8.51371e-134
1.75136e-136
9.36514e-140
1.95528e-143
2.73193e-145
1.00936
0.996362
0.988311
1.02057
1.00523
0.999391
1
-1.99833e-16
-1.09189e-18
4.33376e-17
3.98815e-18
1.74147e-20
9.19031e-24
3.02436e-27
5.33263e-31
1.6821e-34
6.92482e-38
2.99415e-41
1.2539e-44
5.28661e-48
2.25099e-51
9.42243e-55
4.92691e-58
2.05988e-61
1.01879e-64
3.55523e-68
1.27591e-71
1.98441e-74
4.25754e-78
1.1364e-81
3.45523e-84
4.42321e-87
7.13414e-91
1.82515e-94
5.94864e-97
1.0975e-100
3.62016e-104
4.53369e-107
3.38208e-109
1.60351e-112
1.77899e-116
9.21591e-119
1.28562e-122
1.49551e-125
1.53568e-128
5.43205e-132
1.66679e-135
5.37325e-139
4.09132e-142
1.27328e-144
0.957636
1.03236
0.985964
1.02866
1.12618
1.0343
1.00102
-1.33062e-19
-1.06293e-19
-3.29741e-25
2.19347e-17
5.24632e-19
2.22945e-22
7.80366e-27
2.03048e-30
8.02152e-34
3.23096e-37
1.35113e-40
5.6643e-44
2.51331e-47
9.72507e-51
4.72648e-54
1.6639e-57
7.5148e-61
3.31802e-64
2.30748e-67
9.74594e-71
5.90832e-74
1.71872e-76
2.58914e-80
4.35379e-83
3.84066e-87
1.94804e-89
2.50032e-93
2.48537e-97
3.3783e-100
1.58188e-102
6.3365e-106
2.95856e-110
2.71477e-112
2.84646e-116
2.67116e-120
9.25451e-124
5.15928e-126
3.75612e-128
1.19889e-131
8.85328e-134
4.17875e-137
4.97012e-140
8.40783e-144
1.06103
1.0508
0.94685
0.985636
0.970748
1.00452
1.00128
-2.33119e-18
-5.19149e-20
5.44591e-23
1.70778e-17
4.49521e-19
2.23891e-22
7.17002e-27
1.77493e-30
6.95232e-34
2.86643e-37
1.29743e-40
5.2056e-44
2.86178e-47
9.18852e-51
3.71969e-54
1.51316e-57
8.58367e-61
2.71732e-64
2.52587e-66
3.42757e-70
4.75881e-74
1.45472e-76
5.7455e-79
3.45008e-82
1.66106e-85
8.4943e-90
5.35914e-93
8.25326e-96
1.32351e-99
1.08391e-102
1.5217e-105
1.21805e-109
2.42013e-113
9.87802e-115
3.34664e-117
1.44997e-120
1.61908e-124
5.37032e-128
5.68001e-131
3.82699e-135
1.01907e-138
1.3049e-141
3.87771e-145
0.994004
1.03719
0.965757
0.984116
1.05875
1.01349
1.00206
-2.98282e-17
-1.14872e-18
3.81087e-17
3.75402e-18
1.68663e-20
1.0004e-23
3.63413e-27
6.24661e-31
1.90864e-34
7.82469e-38
3.33178e-41
1.41464e-44
6.0026e-48
2.77294e-51
1.07719e-54
4.80001e-58
1.93967e-61
1.09378e-64
3.42303e-68
1.38657e-71
7.68638e-75
1.79202e-77
3.00848e-81
6.20526e-85
4.88762e-88
1.22629e-91
1.36336e-94
4.17781e-98
7.73933e-101
2.40575e-104
9.24162e-107
7.21365e-110
9.97837e-113
9.91127e-117
8.96227e-120
1.60072e-123
2.86888e-127
2.30507e-129
6.95025e-133
5.95272e-135
1.62375e-138
1.12093e-142
2.48231e-144
1.05628
1.04494
1.03854
0.968733
0.964461
0.998915
1
-5.57162e-18
2.14889e-16
1.57714e-16
2.12166e-18
2.35996e-21
8.07496e-24
2.64509e-27
2.21657e-31
6.86165e-35
2.81333e-38
1.16925e-41
4.85496e-45
2.01416e-48
8.31044e-52
3.43996e-55
1.4179e-58
5.78861e-62
2.37051e-65
1.00372e-68
4.47399e-72
1.67752e-75
6.60756e-79
4.5561e-82
1.17407e-85
8.66568e-89
5.78458e-92
1.29164e-95
6.49643e-99
1.18193e-101
1.79687e-105
3.74175e-108
2.45205e-111
2.23188e-115
4.91219e-119
3.42045e-121
1.34438e-123
3.32814e-127
2.70108e-131
5.13888e-135
1.85136e-138
7.16918e-142
4.34458e-145
1.86684e-145
1.01096
1.03456
1.00906
1.00942
1.00029
1.00693
0.349253
-3.87525e-19
-3.4268e-23
9.94948e-19
5.82899e-20
1.3729e-22
2.2239e-26
2.58431e-30
8.39295e-34
3.42804e-37
1.43401e-40
6.00518e-44
2.52423e-47
1.05202e-50
4.32777e-54
1.82111e-57
7.51507e-61
3.15206e-64
3.10897e-67
6.70093e-71
2.40024e-74
1.06795e-77
4.19256e-81
1.79498e-84
2.29492e-86
1.11708e-89
9.35336e-94
2.12066e-97
1.46335e-99
3.79907e-103
3.88609e-106
2.77684e-110
6.37942e-114
5.3671e-116
1.2587e-118
1.94869e-121
3.46667e-125
3.40574e-129
1.04409e-132
4.51419e-136
5.47337e-138
1.20943e-140
1.37944e-143
2.50647e-145
1.08287
0.971699
0.927214
1.20223
0.954969
0.991604
-7.90739e-16
-1.68599e-19
-7.40592e-25
7.73898e-18
6.42273e-19
2.83218e-21
4.13195e-25
2.65768e-29
8.87598e-33
3.66163e-36
1.49336e-39
6.14753e-43
2.5347e-46
1.11904e-49
4.26834e-53
1.74304e-56
6.98124e-60
2.81382e-63
1.27813e-66
4.77099e-70
2.05216e-73
1.00244e-76
5.16797e-79
1.40496e-82
1.46062e-86
7.56591e-89
6.60232e-92
3.14331e-95
1.83e-99
2.36781e-102
5.41127e-105
1.27462e-108
7.15175e-111
9.69862e-115
1.18335e-118
2.36985e-122
4.04112e-124
1.20266e-127
1.86566e-130
1.77221e-133
8.45399e-137
4.23305e-140
1.69661e-143
2.70137e-145
1.00154
1.04038
0.949586
1.05125
1.01378
0.999293
3.67892e-08
2.79333e-14
5.46161e-17
1.5251e-17
1.84383e-18
2.97702e-20
3.54548e-23
3.94467e-27
1.24153e-30
9.10683e-34
6.46547e-37
4.47109e-40
3.08372e-43
2.12329e-46
1.46026e-49
1.00211e-52
6.85943e-56
4.68842e-59
3.19728e-62
2.17534e-65
1.47838e-68
1.00257e-71
6.78058e-75
4.57736e-78
3.08233e-81
2.07069e-84
1.3895e-87
9.30463e-91
6.22196e-94
4.15286e-97
2.76404e-100
1.83473e-103
1.21625e-106
8.05254e-110
5.32015e-113
3.50863e-116
2.30914e-119
1.51627e-122
9.94218e-126
6.50079e-129
4.2431e-132
2.76623e-135
1.79922e-138
6.94821e-142
1.09573
0.956512
0.980899
1.0311
1.0176
0.990424
9.19451e-07
9.5785e-14
8.12748e-17
1.15739e-17
5.03172e-19
2.40806e-21
1.02243e-24
1.56195e-28
8.69138e-32
6.41066e-35
4.58002e-38
3.21694e-41
2.25586e-44
1.57787e-47
1.10264e-50
7.6839e-54
5.34351e-57
3.71336e-60
2.57327e-63
1.77865e-66
1.22755e-69
8.45053e-73
5.80343e-76
3.97835e-79
2.73198e-82
1.86465e-85
1.26838e-88
8.63143e-92
5.86507e-95
3.97481e-98
2.68983e-101
1.81335e-104
1.22174e-107
8.20813e-111
5.5036e-114
3.68198e-117
2.46032e-120
1.64321e-123
1.09236e-126
7.25645e-130
4.80934e-133
3.18242e-136
2.10119e-139
8.25742e-143
1.03296
1.06501
0.99909
1.03277
1.03823
1.00685
0.491612
4.84836e-13
1.38832e-15
1.38547e-15
3.8646e-17
2.0169e-20
1.66061e-24
8.06499e-28
5.34432e-31
3.88536e-34
2.83464e-37
2.04162e-40
1.46289e-43
1.04606e-46
7.46643e-50
5.31855e-53
3.77774e-56
2.67773e-59
1.89155e-62
1.33293e-65
9.37554e-69
6.57423e-72
4.59824e-75
3.21458e-78
2.24042e-81
1.55798e-84
1.08164e-87
7.48621e-91
5.16052e-94
3.55323e-97
2.44146e-100
1.67296e-103
1.14405e-106
7.80142e-110
5.30436e-113
3.59942e-116
2.43984e-119
1.6497e-122
1.11339e-125
7.49736e-129
5.03425e-132
3.37272e-135
2.25391e-138
8.91904e-142
1.00724
0.991496
0.99159
1.02612
1.00661
0.99757
1.00026
3.21084e-10
4.13843e-16
2.55616e-17
2.50402e-17
5.48054e-19
5.42372e-22
5.8637e-26
1.9915e-29
1.4672e-32
1.05744e-35
7.41298e-39
5.18359e-42
3.62245e-45
2.52846e-48
1.76119e-51
1.22363e-54
8.50471e-58
5.88456e-61
4.0674e-64
2.80901e-67
1.9359e-70
1.33321e-73
9.14749e-77
6.26808e-80
4.28731e-83
2.9253e-86
1.99322e-89
1.35602e-92
9.2078e-96
6.24113e-99
4.22125e-102
2.84894e-105
1.9193e-108
1.29015e-111
8.68495e-115
5.81677e-118
3.88907e-121
2.59227e-124
1.72706e-127
1.14815e-130
7.61996e-134
5.04584e-137
1.97929e-140
1.04319
1.09824
0.985237
1.0181
1.12144
1.02986
1.0016
1.3158e-08
1.71909e-14
2.59311e-16
2.46268e-16
1.32687e-17
2.87055e-20
2.49615e-24
5.11565e-28
3.67281e-31
2.59018e-34
1.77864e-37
1.21805e-40
8.33078e-44
5.69258e-47
3.88278e-50
2.64207e-53
1.79603e-56
1.21829e-59
8.24547e-63
5.57657e-66
3.76377e-69
2.53428e-72
1.7038e-75
1.14354e-78
7.65853e-82
5.12343e-85
3.4193e-88
2.27789e-91
1.51588e-94
1.00672e-97
6.67055e-101
4.41385e-104
2.91708e-107
1.92457e-110
1.26807e-113
8.33737e-117
5.47003e-120
3.58442e-123
2.34463e-126
1.53062e-129
9.9796e-133
6.49464e-136
2.50855e-139
1.065
1.04341
0.995179
1.00449
0.985387
1.00071
1.00191
3.201e-08
1.41861e-14
4.69914e-16
4.5484e-16
2.47626e-17
5.28653e-20
4.5241e-24
9.35055e-28
6.71148e-31
4.73509e-34
3.25201e-37
2.22747e-40
1.52325e-43
1.03999e-46
7.08966e-50
4.82296e-53
3.27547e-56
2.21977e-59
1.50089e-62
1.01449e-65
6.84323e-69
4.60539e-72
3.09456e-75
2.07345e-78
1.38609e-81
9.26341e-85
6.17906e-88
4.11105e-91
2.73157e-94
1.81133e-97
1.1988e-100
7.92492e-104
5.22897e-107
3.44397e-110
2.2651e-113
1.48642e-116
9.72878e-120
6.35865e-123
4.14856e-126
2.70088e-129
1.7572e-132
1.14178e-135
4.40557e-139
0.993899
1.0404
0.885963
1.00265
1.02431
1.01269
1.00314
1.71992e-09
5.13663e-16
1.71084e-17
1.64277e-17
4.22551e-19
3.65716e-22
3.48365e-26
1.28813e-29
9.46077e-33
6.79555e-36
4.78298e-39
3.34945e-42
2.35063e-45
1.65183e-48
1.15748e-51
8.06051e-55
5.63605e-58
3.95052e-61
2.72366e-64
1.89008e-67
1.31016e-70
9.06373e-74
6.27327e-77
4.31163e-80
2.96593e-83
2.03872e-86
1.39763e-89
9.58932e-93
6.53365e-96
4.4521e-99
3.03299e-102
2.062e-105
1.39321e-108
9.42245e-112
6.36468e-115
4.28645e-118
2.88019e-121
1.93115e-124
1.29241e-127
8.65972e-131
5.75935e-134
3.83754e-137
1.54266e-140
1.03734
1.08807
1
0.992237
0.996699
1
1.00014
1.58584e-11
1.64131e-15
1.64308e-15
6.17265e-17
5.47041e-20
2.92126e-24
1.18116e-27
8.31881e-31
5.96025e-34
4.23909e-37
2.99317e-40
2.10734e-43
1.48158e-46
1.04068e-49
7.29672e-53
5.10518e-56
3.5672e-59
2.48808e-62
1.73139e-65
1.20263e-68
8.3358e-72
5.76535e-75
3.98441e-78
2.74993e-81
1.89361e-84
1.30139e-87
8.91999e-91
6.09976e-94
4.16636e-97
2.83948e-100
1.93075e-103
1.31122e-106
8.88296e-110
6.00156e-113
4.04901e-116
2.72588e-119
1.83067e-122
1.2275e-125
8.21366e-129
5.47918e-132
3.65027e-135
2.42959e-138
9.57901e-142
1.11004
1.05784
0.768193
1.01877
1.00855
1.00205
0.358312
1.69213e-13
1.74708e-16
7.90958e-18
2.31398e-19
5.9239e-22
2.04706e-25
5.2547e-29
3.28765e-32
2.45019e-35
1.78381e-38
1.27686e-41
9.11102e-45
6.48824e-48
4.61131e-51
3.26831e-54
2.31097e-57
1.63007e-60
1.14833e-63
8.05744e-67
5.6432e-70
3.94499e-73
2.74932e-76
1.91339e-79
1.32788e-82
9.18632e-86
6.34327e-89
4.3697e-92
3.00523e-95
2.05971e-98
1.40948e-101
9.62881e-105
6.55706e-108
4.45807e-111
3.02358e-114
2.04524e-117
1.38101e-120
9.29956e-124
6.25515e-127
4.19529e-130
2.80766e-133
1.87702e-136
1.25218e-139
4.96353e-143
1.1609
1.03959
1.09366
1.10317
0.996209
0.999953
1.03893e-06
2.23831e-14
2.69247e-17
1.01021e-17
1.03783e-18
1.43567e-20
1.6422e-23
2.10481e-27
6.82669e-31
4.98929e-34
3.57172e-37
2.48471e-40
1.72306e-43
1.19284e-46
8.24423e-50
5.68372e-53
3.90921e-56
2.68497e-59
1.83985e-62
1.25756e-65
8.58206e-69
5.84535e-72
3.97241e-75
2.69478e-78
1.82368e-81
1.23087e-84
8.28875e-88
5.57276e-91
3.73868e-94
2.50484e-97
1.6742e-100
1.11627e-103
7.42776e-107
4.93542e-110
3.27274e-113
2.16623e-116
1.43083e-119
9.42835e-123
6.20107e-126
4.07015e-129
2.66604e-132
1.74471e-135
1.13858e-138
4.40992e-142
0.997749
1.0285
0.997699
1.00167
0.988708
0.997974
2.30044e-08
-2.83438e-19
-1.69313e-36
4.11295e-18
2.90024e-19
9.04552e-22
9.44987e-26
7.60244e-30
2.6868e-33
1.1679e-36
4.52577e-40
1.90821e-43
8.37779e-47
5.31935e-50
1.53278e-53
7.13445e-57
2.60972e-60
9.13393e-64
8.0704e-67
7.01454e-70
1.82311e-73
6.05254e-77
1.47011e-79
2.68961e-83
1.19224e-86
2.50129e-90
6.32871e-93
2.64135e-95
1.20247e-98
3.35892e-102
5.08882e-105
3.31099e-108
1.48267e-112
4.24673e-114
2.52223e-117
8.46041e-122
5.41845e-125
9.6797e-129
6.12786e-131
5.22948e-133
1.40495e-136
4.66086e-140
5.27565e-143
3.33973e-145
1.052
0.997647
1.04364
1.02574
0.997584
0.999609
8.26734e-07
-1.82573e-19
1.61559e-30
8.35989e-19
5.74598e-20
1.89569e-22
3.5721e-26
3.37145e-30
1.05617e-33
4.25255e-37
1.77701e-40
7.4851e-44
3.15659e-47
1.27781e-50
5.57244e-54
2.23577e-57
1.27272e-60
6.02775e-64
2.18381e-67
8.59957e-71
5.51392e-74
1.53507e-77
4.30893e-80
9.29802e-84
1.60031e-86
1.5651e-89
1.19722e-92
2.19385e-96
1.61717e-99
5.80206e-103
1.38028e-106
3.97914e-110
2.29452e-111
2.28234e-114
1.85293e-118
2.46135e-122
7.72351e-126
1.85411e-127
9.74423e-131
8.39659e-135
8.74608e-138
9.1792e-142
1.76022e-144
1.76982e-145
1.03425
1.00203
0.943788
1.02516
1.03415
1.00707
0.49151
3.74777e-12
1.2873e-16
1.61528e-16
1.40019e-18
2.21176e-21
9.36664e-24
3.31616e-27
2.59201e-31
7.82067e-35
3.20082e-38
1.33e-41
5.52147e-45
2.28281e-48
9.44371e-52
3.88703e-55
1.60501e-58
6.61493e-62
2.74475e-65
1.10411e-68
4.6829e-72
1.83172e-75
7.51724e-79
4.08143e-82
1.28921e-85
5.04295e-89
2.42767e-92
2.18538e-95
7.23354e-99
9.2677e-102
4.15362e-105
1.01195e-108
7.51436e-112
1.73253e-114
2.33698e-117
2.65265e-121
3.67039e-125
1.23484e-127
5.46106e-130
1.18685e-133
1.88116e-136
8.04553e-140
2.89574e-143
2.98838e-145
1.03042
0.999302
0.983929
1.01723
1.01377
0.999195
1.00015
1.5118e-10
-1.16111e-18
4.46638e-17
4.12674e-18
1.79464e-20
9.12834e-24
2.9748e-27
5.28992e-31
1.67149e-34
6.8812e-38
2.93603e-41
1.24346e-44
5.27258e-48
2.22862e-51
9.33565e-55
4.04999e-58
2.03791e-61
7.37654e-65
3.24888e-68
1.25094e-71
3.22984e-74
1.51345e-77
1.67725e-81
3.13638e-84
1.72747e-87
4.15475e-91
1.0536e-94
1.01756e-97
3.27869e-101
4.89105e-104
6.60191e-107
6.17648e-111
7.99734e-113
4.21764e-116
2.47709e-119
4.49587e-122
4.52608e-126
2.81205e-129
8.27117e-132
3.95059e-135
2.38537e-139
5.59784e-143
2.88858e-145
1.03751
0.974621
1
1.00222
1.12154
1.02786
1.00151
7.49139e-09
-1.02275e-19
-1.19359e-25
2.2652e-17
5.38938e-19
2.26768e-22
7.86624e-27
2.05833e-30
7.98102e-34
3.26649e-37
1.35966e-40
5.85514e-44
2.3894e-47
9.62784e-51
4.05258e-54
1.72975e-57
7.65491e-61
3.41551e-64
8.02081e-67
6.99409e-71
2.16354e-74
1.21385e-77
1.58772e-80
1.98063e-83
1.51579e-87
1.58725e-89
2.36947e-93
5.21033e-96
3.23931e-100
1.6029e-102
6.37391e-106
5.05321e-108
1.07558e-111
8.7092e-116
1.28136e-117
3.462e-121
2.25634e-124
5.61063e-128
8.98799e-132
1.84226e-133
5.54747e-137
3.90993e-140
6.01352e-143
1.04511
1.03357
1.00408
1.0453
0.958641
0.995625
1.00164
1.97337e-08
-5.22751e-20
-8.57428e-24
1.75178e-17
4.59539e-19
2.27757e-22
7.53291e-27
1.86201e-30
7.25702e-34
2.99355e-37
1.25755e-40
5.2962e-44
3.78899e-47
9.90373e-51
6.50901e-54
2.15569e-57
6.67561e-61
4.89416e-64
1.20075e-67
7.21358e-71
2.17182e-74
7.80208e-78
3.06596e-79
2.34087e-82
1.47627e-85
1.3059e-89
1.05094e-92
1.23502e-96
1.68822e-99
1.23145e-102
1.88601e-105
1.43531e-109
3.28811e-111
1.17964e-114
4.62413e-119
1.07819e-120
3.86674e-124
5.85343e-128
5.06559e-132
1.19272e-134
6.46673e-137
1.14178e-140
6.43828e-145
1.0113
1.09708
0.858345
0.988422
0.991099
1.01117
1.00309
8.46688e-10
-1.11474e-18
3.69531e-17
3.64031e-18
1.6496e-20
9.99992e-24
3.62756e-27
6.21317e-31
1.90091e-34
7.79533e-38
3.32991e-41
1.41178e-44
5.9815e-48
2.7742e-51
1.08449e-54
4.64567e-58
1.98397e-61
9.03915e-65
5.3481e-68
1.52966e-71
7.41164e-75
1.46981e-77
3.0445e-81
5.98102e-85
7.43236e-88
1.00309e-91
1.03359e-94
3.48353e-97
1.07623e-100
1.62501e-104
8.54879e-107
2.34156e-110
2.03846e-114
5.39448e-117
6.8318e-121
1.58487e-122
5.01401e-126
1.18156e-129
1.23992e-133
3.7662e-137
1.59909e-140
5.37012e-143
4.4077e-144
1.00358
0.860882
1.04469
1.00373
0.944695
0.991545
1.00009
5.94152e-12
1.80764e-16
1.67448e-16
1.67076e-18
2.20627e-21
8.04462e-24
2.63544e-27
2.19587e-31
6.79893e-35
2.78798e-38
1.15888e-41
4.81368e-45
1.9943e-48
8.24037e-52
3.41022e-55
1.40967e-58
5.74299e-62
2.47625e-65
9.93684e-69
4.43977e-72
2.11369e-75
6.80027e-79
6.2365e-82
1.27188e-85
4.81723e-89
4.00076e-92
1.9256e-95
4.31223e-99
2.77188e-102
5.64142e-105
1.13418e-108
1.80022e-111
1.69038e-113
6.02439e-117
4.74058e-120
5.32839e-124
8.14367e-128
4.03256e-131
1.12052e-134
4.26955e-138
1.67803e-141
7.55013e-145
2.39533e-145
1.16972
1
1.02835
1.01976
1.0107
1.00062
0.356495
-4.18017e-19
-8.53648e-23
9.5943e-19
5.47148e-20
1.24097e-22
2.01851e-26
2.41034e-30
7.80193e-34
3.18404e-37
1.33277e-40
5.54946e-44
2.32544e-47
9.77808e-51
4.00866e-54
1.70117e-57
6.98082e-61
2.95402e-64
1.20629e-67
4.97628e-71
2.05941e-74
9.01083e-78
3.43218e-81
2.30838e-84
1.45877e-86
5.2143e-90
5.16062e-93
2.90352e-96
1.6739e-99
7.0452e-103
2.1232e-106
1.93447e-109
1.80844e-113
9.82585e-116
1.93968e-119
2.2051e-123
2.70133e-125
3.04689e-128
3.6673e-131
3.46992e-135
2.42924e-138
2.62811e-141
1.48246e-143
2.45775e-145
1.23947
1.06716
0.885615
1.07571
0.985237
0.999278
6.95456e-07
-1.79295e-19
-1.71963e-24
5.59968e-18
4.69467e-19
2.10199e-21
3.1624e-25
2.02411e-29
6.7199e-33
2.77013e-36
1.1327e-39
4.73989e-43
1.92485e-46
7.79668e-50
3.24689e-53
1.34556e-56
5.33853e-60
2.18778e-63
1.08838e-66
4.93773e-70
2.79232e-73
7.85573e-77
7.75801e-80
4.84897e-83
6.23005e-87
9.47014e-89
3.37489e-92
2.00719e-96
1.25204e-99
4.58603e-102
9.2387e-105
3.3494e-109
7.25113e-111
2.88325e-114
1.19636e-117
2.60574e-120
8.09583e-124
4.1982e-127
2.54049e-131
2.09936e-133
1.66856e-136
7.16622e-140
2.38895e-143
2.72335e-145
0.0536395
0.995802
0.0903184
1.00131
0.0594969
0.99633
0.096253
0.22696
1.00753
0.873635
0.990437
0.237922
1.00681
0.872256
1
1.00082
1.00007
1.007
1
1.0007
1.00034
1
1.00349
1.00138
0.998157
1
1.00016
1.00133
1.00233
1.02377
1.00245
1.03985
1.00227
1.01927
1.00229
1.00208
0.979165
1.00498
1.00149
1.00238
0.959598
1.00504
1.00335
0.95464
1.00182
1.01418
1.00645
1
1.00133
1.00012
1.0101
1
0.99982
1
1.01032
0.999964
0.988734
0.993501
0.475566
1.00647
0.984849
0.996733
0.476929
0.269976
1.00783
0.0315875
1.00293
0.27615
1.00825
0.0314931
0.059215
0.99541
0.0973201
0.998133
0.0589827
0.999284
0.0966093
0.237963
1.00701
0.871166
0.999397
0.238394
1.00682
0.871851
1
1.00094
1.00102
1.00721
1
1.00157
1.00045
1.00057
1
1.00172
0.998742
1.00004
0.999984
1.00131
1.00289
1.00914
1.00279
1.02734
1.0024
0.984085
1.00208
1.00246
0.967706
1.00527
0.998922
1.00153
0.988069
1.0049
1.00616
1
1.00196
1.01037
1.00603
1
1.00135
1.00046
1.01033
0.999964
0.998285
1.00005
1.00778
0.999977
0.984441
0.995091
0.476748
1.00052
0.98555
1.00148
0.476648
0.278129
1.00785
0.0324252
0.999518
0.280067
1.00789
0.0366574
0.05836
0.999996
0.0955233
0.998491
0.0533463
0.998859
0.090598
0.238394
1.00702
0.871809
1.0026
0.234793
1.00748
0.874103
1
1.00234
1.00097
1.00679
1
1.00364
1.00011
1.00043
0.994134
1.00163
1
0.999984
0.992059
1.00155
1.00284
1.00045
1.00248
1.03303
1.00242
1.01972
1.00213
1.00178
0.994651
1.00525
1
1.00151
0.998803
1.00517
1.00624
1.00041
1.00185
1.01062
1.00468
1.0029
1.00178
1.00042
1.00603
0.999985
0.996157
1.00016
1.00676
1
0.985544
1.00376
0.47639
1.00125
0.988407
1.00325
0.474917
0.280109
1.00951
0.036611
0.999975
0.271666
1.00973
0.0297431
0.999775
1.01134
0.887808
1.02891
0.990045
0.997732
0.897186
1
1.00018
0.997538
1.00184
0.998297
1
1.00033
-1.50195e-17
-1.12425e-17
-2.13146e-17
2.31253e-08
1.06094e-11
5.37528e-08
1.061e-11
1.00401
1.04382
1.01635
1.01053
1.00012
1.033
1.01614
0.999998
1
0.991283
0.996914
1
0.992607
0.999896
-1.18305e-17
0.17045
-1.997e-16
7.057e-07
3.66609e-11
0.177837
1.88322e-11
1.00936
1.0202
1.00433
1.00704
1.00498
1.02681
1.00321
1.00272
1.00492
1.00401
1.00731
1.00468
1.00447
1.00254
-9.32437e-15
1
2.1684e-22
0.491526
1.42725e-10
1.00001
4.34447e-09
0.999464
1.04878
0.998163
1.00496
0.997448
1.04265
0.998943
0.976516
0.999966
1
0.999806
0.999001
0.999756
0.976817
-1.48266e-41
1.00096
1.00732e-05
1.00088
1.29011e-07
1.00169
4.50443e-05
1.06652
0.973558
1.01909
1.12464
1.07967
1.00427
1.01309
1.00212
1.01133
1.03292
1.04797
1.00789
1.03274
1.00232
0.00432301
1.00138
0.0273789
1.00207
0.00947462
1.00191
0.0344753
0.981128
1.00694
0.991691
0.947365
0.966903
1.00238
0.965245
1.0012
1.00988
0.995701
1.00322
1.01002
0.995966
1.0013
0.0345217
1.00208
0.00448158
1.00213
0.0416029
1.00272
0.00979537
1.06311
1.06139
1.00742
1.0108
1.06294
1.06578
0.988633
1.01475
1.00912
1.03537
1.01257
1.0091
1.03498
1.01537
3.54738e-05
1.00019
-1.59641e-15
1.00348
0.000147092
1.0006
1.42015e-07
0.94803
1.04881
0.986375
1.03532
0.998323
1.06839
0.996162
0.992367
1.00009
0.99995
0.999288
1.00107
1.00006
0.993696
-1.84201e-15
0.618419
-4.71049e-14
1.00017
5.22012e-09
0.616541
1.44221e-10
0.988266
0.912529
0.912136
1.01175
0.975332
0.982428
0.981704
1.00106
1.00311
1.00691
1.0138
1.00262
0.997587
1.0018
-9.79159e-16
0.000910953
-1.26712e-16
0.357592
4.7554e-11
0.00271086
6.30702e-11
0.916324
1.00524
0.994671
1.00077
0.974833
0.969672
0.984078
1.00145
1
1.01423
0.992322
1.00001
1.01506
1.00184
-1.88548e-17
-4.76549e-19
-2.09834e-17
9.21466e-07
8.76495e-12
3.45197e-08
4.77385e-12
0.984618
0.979515
0.925768
1.00148
0.989816
0.97163
0.979164
1
1.00004
0.99677
0.999191
1
0.996914
1.00012
4.1353e-11
8.29797e-08
4.1136e-11
3.6656e-08
4.14355e-11
8.35196e-08
4.1136e-11
0.998891
1.03722
1.01572
0.987106
0.993615
1.02891
1.01657
1
1
0.998082
0.995388
1
1
0.9994
1.455e-10
0.179043
7.35107e-11
1.02321e-06
1.45616e-10
0.178618
7.35107e-11
1.00868
1.01619
0.998915
1.05588
1.00767
1.04496
1.00355
1.00324
1.00466
1.00476
1.00681
1.00349
1.00484
1.00474
2.88601e-10
1.00014
8.12385e-09
0.491489
2.83136e-10
1.00001
8.12095e-09
0.982628
1.04462
0.994367
1.00392
0.95888
1.02839
0.997546
0.982128
0.997631
0.948477
0.998232
0.974268
0.994438
0.946722
2.0376e-07
1.00182
4.25066e-05
1.0008
2.0914e-07
1.00171
2.58723e-05
1.08075
1.00079
1.01266
1.1222
1.08502
0.997
1.00097
1.00083
1.00589
1.02819
1.03211
1.00106
1.00528
1.02578
0.0102434
1.00231
0.0354219
1.00214
0.0102141
1.00184
0.0354618
0.973776
1.00098
0.995217
0.905583
0.963252
0.928453
0.973288
1.00071
1.00365
0.993383
1
1.00092
1.00134
0.996326
0.0424811
1.00343
0.0104826
1.00181
0.0425652
1.00287
0.0104993
1.05597
1.04577
1.02363
0.913105
1.0642
1.04189
1.01702
1.01861
1.00886
1.03496
1.01298
1.01751
1.00899
1.02728
0.00016354
1.00114
2.25322e-07
1.00311
0.000164869
1.00068
2.21582e-07
1.01077
1.03179
1.00086
0.965856
1.00319
1.04523
1.0088
0.992541
1.00025
1.00766
0.99928
0.992965
1
1.00882
9.67249e-09
0.617497
3.3007e-10
1.00027
9.76229e-09
0.619268
3.40967e-10
0.992444
0.969475
0.975967
1.00399
0.987567
0.970066
0.984675
1.0013
1.00244
0.996224
1.00061
1.00112
1.0024
0.997229
1.87002e-10
0.00299637
3.07087e-10
0.356767
1.87002e-10
0.00299065
3.06576e-10
0.996473
1.00005
0.991963
0.993925
0.974606
1.00048
1.00016
1.00086
1
1.01406
1.0007
1.00131
1.00038
1.00667
3.49441e-11
5.23028e-08
1.84033e-11
8.69159e-07
3.50043e-11
5.47193e-08
1.84033e-11
0.983197
0.971231
0.989745
0.984277
0.980796
0.961433
0.980137
0.999992
1
0.996507
0.997983
0.999996
0.997159
1
1.06281e-11
5.40671e-08
1.06287e-11
-2.65638e-18
-1.47376e-17
-1.01649e-17
-2.1502e-17
0.998085
1.02029
1.016
1.00806
0.99971
1.01475
1.01511
1.00048
1.00113
1
0.999713
1.00091
1.0018
0.998827
3.72711e-11
0.177993
1.90643e-11
-4.15522e-17
-6.26992e-18
0.170048
-2.2438e-16
1.00945
1.02098
1.00468
1.04201
1.01075
1.02046
1.0066
1.00295
1.00466
1.00408
1.00718
1.00338
1.00508
1.00412
2.0622e-10
1.00007
4.38805e-09
0.490171
-3.14692e-15
1
0
0.938594
1.01587
0.997746
1.0177
0.944681
1.02393
1.00735
0.9891
0.996445
0.937829
0.999537
0.98688
0.992808
0.933913
1.31481e-07
1.00177
3.83391e-05
1.00001
0
1.00078
9.09511e-06
1.08625
0.98376
1.00544
1.09149
1.08258
0.971086
1.01012
1.00015
1.00736
1.01444
1.03032
1.00105
1.00738
1.00838
0.0094215
1.00224
0.0346377
1.0011
0.00430449
1.0013
0.0273632
1
0.999539
0.966129
0.964832
1
0.944568
0.975952
1
0.999478
0.992839
0.999828
1
1.00002
0.985514
0.0414358
1.0033
0.00977629
1.00111
0.0341743
1.00206
0.00449481
1.06207
1
0.981651
0.985923
1.0131
0.810999
1
1.02016
1.00876
1.02724
1.01139
1.01971
1.00888
1.02779
0.000147347
1.00112
1.39808e-07
1.0024
3.51801e-05
1.00017
-1.40065e-15
1.01032
1.00168
1.00864
0.901404
0.983581
1.01891
1.01268
0.993822
0.999033
0.989641
0.986021
0.994101
0.998815
0.987643
5.30176e-09
0.6189
1.42527e-10
1
-3.14748e-16
0.616456
-2.97803e-14
0.976835
0.99954
1.0076
1.03164
0.95891
1.00885
1.00928
1.00154
1.00278
0.998682
1.00075
1.00169
1.00303
0.999176
4.98974e-11
0.00270228
6.738e-11
0.349538
-1.26396e-15
0.000899483
-1.15369e-16
0.966479
1.00126
1.01567
0.980077
0.940069
1.00072
1.00687
1
1.00005
0.985841
0.999308
0.999858
1.00003
0.982375
8.84885e-12
3.46589e-08
4.74305e-12
-5.88427e-16
-2.37128e-18
-3.34691e-19
-1.67457e-17
0.660867
0.746684
0.0220857
0.056268
0.0251575
0.660198
0.746577
1
0.996352
1
0.996593
0.996519
1
1
0.792668
0.0774412
0.80877
0.09289
0.0799367
0.809601
0.791928
1
1.0017
1.00054
0.997687
0.99706
1
1.00034
0.660301
0.057755
0.746224
0.028521
0.0266949
0.661481
0.746092
1
0.994906
0.995641
1
0.994838
1
1
0.791977
0.0946396
0.0830554
0.809944
0.0815552
0.808927
0.793108
0.985191
0.925303
0.37708
0.230637
0.924257
0.382714
0.988068
1.00078
1.00228
1.00241
1.0071
1.00218
1.00266
1.00111
1
0.671644
1.00058
0.872789
0.671896
1.00068
1.00002
1.00001
0.995275
1
0.999021
1
0.995985
1
0.984252
0.233803
0.920312
0.386408
0.922129
0.38466
0.983856
1.0011
1.00711
1.0024
1.00274
1.00254
1.00302
1.00077
1
0.871136
0.672131
1.00068
0.671822
1.00118
1
1.0012
1.00113
1.00009
1
1.00128
1.00026
1.00162
1.00087
0.995192
1.0003
1.00052
0.995636
1.00039
1.00122
1.00088
1.00046
1.00022
1.0002
1.00063
1.00014
1.00192
1.00334
1.00693
1.00478
1.00474
1.00457
1.00437
1.00317
1.00186
1
1.00132
1.00055
1.00179
1.00128
1.00131
1.00133
1.00071
0.99573
1.00002
0.995706
1.00066
1.00105
1.00136
1.00095
1.00095
1.00021
1.00124
1.00078
1.00108
0.999718
0.998021
1.00007
0.999973
0.998538
1.00009
1.00009
1.002
0.99976
1.00448
1.00015
0.999573
1.00197
1.00376
1.00149
1.00029
1.00359
1.00225
1.00045
1.00318
1.00199
0.977559
0.999446
0.995992
0.983329
0.998367
0.999754
0.974888
0.999299
1.00055
0.998918
1.00002
0.999605
1.00025
0.99819
1.00053
0.999291
1
1.00149
0.997549
1.00131
1.00002
1.0015
1.00218
1.00046
1.00238
1.00103
1.00308
1.00105
1.00334
1.00543
1.00315
1.00249
1.00477
1.00311
1.00445
1.00104
1.003
1.00476
1.02241
1.00057
1.00387
1.00132
1.003
1.00253
1.00355
1.00247
1.00273
1.00325
1.0034
1.0019
1.03304
1.00685
1.03036
1.00534
1.03204
1.00138
1.00339
1.00294
1.00401
1.0029
1.0045
1.0035
1.00302
1.00077
1.02406
1.0027
1.00355
1.00141
1.00409
1.0007
1.00298
1.00286
1.00261
1.00284
1.0032
1.00319
1.00251
1.00346
1.00343
1.00256
1.00223
1.00373
1.00258
1.00378
1
0.994342
0.999148
0.963995
0.9823
1.00091
1.00042
1.00768
1.00517
1.00853
1.00489
1.0052
1.00852
1.00767
1.00127
1.00246
1.00603
0.996877
1.00858
0.995451
1.00122
1.00344
1.00262
1.0038
1.00264
1.00409
1.00306
1.00305
0.99943
0.959964
0.958782
1.00219
0.960861
1.00243
1.00001
1.00784
1.00508
1.00509
1.00828
1.00534
1.00863
1.00758
1.00792
1.00866
1.00438
1.0027
1.00803
1.00453
1.0074
1.00313
1.00391
1.00081
0.966495
0.998992
1.00117
1.0025
1.00444
1.00341
1.00193
1.00146
1.00337
1.00194
1.00459
1.01541
1.0149
1.00919
1.02972
1.0089
1.03519
1.01581
1.00817
1.00358
1.00875
1.00478
1.0073
1.00506
1.00798
1.00455
0.98902
0.999103
1.00134
1.00025
1.00155
1.00501
1.00485
1.00194
1.00334
1.00216
1.00385
1.0022
1.00453
0.995526
0.999308
0.999614
1.00015
1
0.999894
0.990907
0.946775
0.999956
1.00076
1.01017
0.999177
1
0.946009
0.97801
0.998357
0.988559
0.999999
0.992241
0.99319
0.979168
0.993441
0.998968
1.00038
1.00247
1.00088
1.00075
0.994218
0.994601
1.00044
1.00018
0.99924
1.00035
0.999642
0.988351
0.947014
1.0106
0.999749
1.00039
0.999196
1.00023
0.947577
0.967748
0.999981
0.996184
0.983473
0.995768
0.988132
0.983838
1.00025
1
0.882697
0.986592
1
0.883928
1.0004
0.998981
0.919452
0.999394
0.994024
0.927212
0.999997
1
1
0.705034
1
0.476165
0.705724
1
1.00002
1.00122
1.01406
1.00246
0.995259
1.00258
0.999878
1.00108
1.00058
0.98614
1.00017
0.88197
1.00006
0.88208
1.00067
0.997542
0.992549
0.992856
1.00043
0.956082
0.99982
0.999535
1
0.476145
0.705706
1.00003
0.70543
1
1.00008
0.818284
0.959673
0.107044
0.27121
0.959814
0.112222
0.819555
1.00258
1.00895
1.00432
1.00792
1.00837
1.00334
1.00197
0.789587
0.0829575
0.684813
0.0300686
0.0843452
0.786917
0.691459
1.00072
0.980829
1.00028
1.0209
0.999788
1.02063
1.0008
0.817114
0.271392
0.957597
0.117052
0.960019
0.114744
0.817037
1.00336
1.00771
1.00762
1.0014
1.00904
1.00424
1.00195
0.786816
0.0300519
0.0937357
0.693588
0.0877915
0.782905
0.692274
0.66078
0.747767
0.0295135
0.0597634
0.661034
0.0302111
0.747103
0.999996
0.994875
1
0.997327
0.999999
0.99621
0.999999
0.792296
0.0840739
0.809507
0.0979918
0.792532
0.0848404
0.809198
0.999996
0.9984
1
0.997094
0.996889
0.999991
1
0.660727
0.0597513
0.747864
0.0293958
0.0301348
0.661202
0.747536
0.999989
0.996779
0.99826
1
0.995856
1
0.999991
0.792078
0.0977112
0.0841575
0.810003
0.0848843
0.809446
0.792705
0.982914
0.920646
0.3876
0.238675
0.983296
0.920119
0.388024
1.00076
1.00275
1.00308
1.00675
1.00107
1.00271