/*--------------------------------*- C++ -*----------------------------------*\
| =========                 |                                                 |
| \\      /  F ield         | OpenFOAM: The Open Source CFD Toolbox           |
|  \\    /   O peration     | Version:  5.0                                   |
|   \\  /    A nd           | Web:      www.OpenFOAM.org                      |
|    \\/     M anipulation  |                                                 |
\*---------------------------------------------------------------------------*/
FoamFile
{
    version     2.0;
    format      ascii;
    class       surfaceScalarField;
    location    "2.4";
    object      alphaPhi10;
}
// * * * * * * * * * * * * * * * * * * * * * * * * * * * * * * * * * * * * * //

dimensions      [0 3 -1 0 0 0 0];

internalField   nonuniform List<scalar> 
25861
(
5.20792e-08
4.75986e-08
4.67331e-08
4.76404e-08
2.38929e-08
4.79748e-10
5.70375e-08
2.0058e-08
5.14908e-09
-1.90691e-08
1.72149e-08
1.50716e-08
4.9549e-08
4.78633e-08
5.27486e-08
6.18078e-09
-6.70197e-09
1.37929e-08
3.16343e-08
-5.63703e-09
3.32034e-10
-1.06803e-09
8.83288e-09
5.1394e-14
-1.73048e-18
1.44413e-16
9.88794e-16
5.5897e-14
-1.37477e-13
2.91117e-14
4.71833e-23
2.15268e-22
-2.82864e-21
-7.47095e-20
6.9782e-20
-5.1521e-19
5.06487e-19
1.27228e-26
7.22764e-25
-1.04309e-25
5.48734e-27
-3.21834e-27
-6.30952e-30
3.81824e-29
-2.28934e-29
-9.92368e-32
4.47345e-33
-1.22138e-32
-4.39683e-33
3.14508e-37
-1.21817e-36
2.41192e-36
1.03022e-40
-2.91051e-40
-2.65952e-39
3.95238e-44
-6.33796e-44
1.66214e-42
1.51796e-47
-1.23629e-47
-9.9794e-46
5.78821e-51
-3.53356e-51
5.19304e-49
2.20978e-54
-1.27892e-54
1.45347e-51
8.36162e-58
-1.91955e-58
1.38486e-54
3.16403e-61
-4.93743e-62
2.99145e-59
1.22331e-64
-4.14021e-65
-7.59409e-61
4.80514e-68
3.28938e-69
9.43935e-65
1.90762e-71
-6.76335e-72
9.97697e-68
6.80908e-75
6.11844e-77
1.62145e-72
3.52726e-78
-1.09877e-78
3.87282e-74
1.95839e-81
-1.04791e-81
-1.59985e-76
6.41892e-85
5.30067e-86
3.08415e-80
3.45144e-88
-4.6466e-90
-7.37856e-84
3.8984e-91
5.54299e-92
-1.38826e-86
8.64238e-95
-7.72001e-96
-5.39122e-90
7.66458e-98
2.40444e-98
3.84202e-93
2.23409e-101
1.65732e-102
-1.4327e-96
7.14174e-104
-9.58014e-106
6.44922e-99
2.59834e-106
-6.05193e-107
5.79127e-102
2.99116e-110
-1.9826e-111
1.40007e-105
1.71889e-113
1.34045e-117
1.56883e-108
2.50004e-116
7.19864e-120
1.35677e-111
6.01587e-119
6.95312e-120
-9.33711e-116
3.87996e-123
-1.21261e-123
9.12496e-120
1.4795e-126
-2.1621e-127
1.1708e-126
2.10493e-129
3.73713e-131
-5.64755e-125
3.45832e-132
-1.64595e-134
-3.81854e-128
4.24815e-135
6.92745e-136
-2.30967e-131
1.29459e-137
3.10139e-138
1.01217e-136
1.4567e-141
-4.45082e-143
-4.44172e-139
1.68221e-144
-1.83076e-145
-5.8127e-141
2.75989e-148
-1.04874e-149
2.28323e-143
2.72471e-151
-6.27655e-154
1.7728e-147
4.07167e-153
1.03111e-154
-7.65719e-150
8.53828e-158
-1.1315e-158
5.24559e-08
-1.21895e-08
-2.69155e-07
2.22045e-09
2.79578e-09
2.58964e-09
3.25407e-09
-2.89618e-07
-2.71198e-07
-2.71045e-07
9.79796e-09
-8.25099e-09
-4.01673e-08
9.8139e-08
-1.63936e-07
4.57226e-08
1.92911e-08
1.46664e-08
1.31243e-08
1.84655e-08
2.11885e-09
-1.62092e-09
-1.95372e-08
-1.75771e-08
-2.67121e-09
-5.19972e-08
5.89126e-09
-1.53529e-08
-2.71242e-08
-2.20941e-07
1.00769e-08
-1.08492e-08
3.95008e-08
-2.31993e-08
-2.30396e-08
-2.33473e-08
-2.31218e-08
3.45867e-08
2.81171e-08
3.55855e-08
-6.63303e-08
-1.74972e-09
-2.31423e-09
-2.74293e-09
6.87925e-10
4.67564e-09
2.22677e-14
3.77852e-15
1.78158e-08
4.61696e-15
1.78158e-08
8.67483e-22
-1.35142e-18
-2.85309e-21
-3.18247e-19
5.8424e-20
1.1913e-19
2.63177e-18
-1.35009e-18
-2.17009e-18
-1.35073e-18
-1.33109e-26
-1.53933e-22
1.72956e-25
8.42234e-28
-4.40669e-26
-2.44175e-29
1.87539e-30
-2.52356e-29
-8.98034e-32
8.26679e-34
-8.75394e-32
8.49529e-34
6.90736e-38
-2.28499e-34
4.51977e-37
2.02803e-41
-2.63326e-38
1.9136e-40
7.93286e-45
-4.31494e-42
5.89371e-44
3.17261e-48
-1.123e-45
-1.7084e-46
1.26653e-51
-2.59679e-49
5.98887e-50
5.05871e-55
-9.20417e-53
1.34553e-52
2.01364e-58
1.2817e-58
-5.42595e-55
7.93112e-62
6.63966e-61
2.10863e-59
3.13688e-65
-2.48951e-63
-5.3643e-62
1.2646e-68
-1.91957e-67
6.79031e-66
5.36588e-72
-1.13677e-70
-4.81207e-68
2.20874e-75
1.28099e-73
-2.33854e-71
9.36896e-79
-5.77102e-78
-8.44563e-75
4.43462e-82
-5.72926e-82
-6.81458e-78
1.74093e-85
-1.45369e-83
-9.89693e-81
6.52286e-89
7.1996e-88
2.12034e-84
3.17318e-92
2.46046e-92
-4.20129e-87
1.83596e-95
2.30543e-94
9.37463e-91
2.09705e-98
-1.0125e-100
-1.70045e-94
3.04762e-101
1.75297e-102
-3.46283e-97
3.85383e-105
-2.32821e-104
2.36638e-100
2.21145e-108
6.37343e-109
3.21365e-102
1.24629e-111
3.70509e-112
-2.70682e-110
1.05244e-114
2.44e-115
7.82151e-110
4.76977e-118
-3.28205e-118
-3.06266e-113
1.03337e-120
8.06848e-123
-8.74367e-121
1.43815e-122
-1.25942e-124
-2.50642e-119
1.15268e-126
-1.69969e-127
6.66156e-122
3.33931e-130
3.10363e-131
3.33208e-126
2.36443e-133
3.76686e-134
3.5425e-129
4.11916e-137
-6.09266e-138
7.98182e-136
1.6663e-140
-3.06514e-142
4.21734e-139
1.85815e-143
5.5048e-144
3.79039e-138
2.89988e-146
-1.34624e-147
-1.08541e-142
1.01868e-149
-4.16594e-150
-2.24812e-144
1.58165e-153
-1.60706e-152
-1.47198e-147
1.87728e-153
9.16898e-157
1.88825e-152
1.16182e-157
-2.003e-154
6.01252e-08
1.32233e-08
-1.89639e-07
1.25804e-08
1.33042e-08
1.29783e-08
2.40538e-08
-2.46095e-08
1.84068e-07
-2.17007e-08
-2.46199e-08
-2.12354e-08
-1.38029e-08
6.76158e-09
1.02534e-07
3.62041e-08
1.11753e-08
1.49587e-08
7.05079e-07
5.73609e-07
6.88967e-07
-3.47851e-08
-6.74113e-10
-1.70195e-07
8.27484e-08
-1.27593e-08
4.68177e-08
-5.22086e-09
-5.37166e-09
-2.88845e-09
-2.23454e-08
-7.8256e-09
-2.04616e-10
-1.91165e-07
-1.92519e-10
2.31993e-09
2.78798e-09
7.1412e-09
-9.48691e-09
-1.63849e-10
4.43919e-14
1.44641e-09
1.37737e-11
1.44083e-09
8.39463e-20
-1.352e-18
-5.74826e-09
-1.29312e-18
6.15642e-25
-8.80607e-22
-1.77119e-23
7.38167e-20
7.40194e-20
7.32686e-20
7.32343e-20
1.15311e-25
-1.35266e-25
-1.31988e-26
-3.47299e-29
-8.07023e-29
-1.56888e-30
1.91781e-32
1.78415e-31
-2.02189e-33
4.98384e-35
3.9688e-34
2.92294e-36
5.10808e-39
7.43917e-38
7.19351e-40
1.34661e-42
1.33512e-41
3.13495e-43
5.27822e-46
3.31579e-45
-2.04234e-46
2.12457e-49
8.27333e-49
-9.46218e-50
8.52377e-53
2.73028e-52
-1.07339e-51
3.40501e-56
5.38652e-56
-1.00169e-54
1.35501e-59
7.89773e-60
4.54496e-59
5.37353e-63
4.20462e-63
-3.10525e-61
2.12381e-66
-1.88617e-68
-1.08621e-64
8.34582e-70
-1.04524e-69
-1.12525e-68
3.27269e-73
1.04557e-73
-3.99222e-71
1.28014e-76
1.71928e-76
-1.20826e-74
5.01434e-80
1.96287e-81
-1.83693e-77
1.93511e-83
-3.71411e-84
-6.48467e-80
7.49556e-87
-3.36624e-87
-1.04061e-86
3.08847e-90
-3.38049e-90
5.44829e-87
1.23799e-93
-8.94557e-94
5.31971e-90
4.42441e-97
-3.33398e-97
4.4219e-96
3.83141e-100
-3.32361e-99
-3.9901e-99
9.23768e-103
1.18542e-103
-1.04985e-99
2.08659e-106
1.7864e-107
-1.12295e-101
6.54067e-110
-8.58276e-111
1.40847e-105
2.73783e-113
-1.18656e-113
2.84732e-109
9.79386e-117
6.59902e-118
-2.10054e-112
9.8157e-120
-4.1669e-121
-4.72812e-116
3.68536e-122
1.45507e-123
-9.43032e-119
9.85277e-126
2.63875e-124
4.49662e-121
2.27781e-129
-1.72813e-129
1.14555e-124
1.8866e-132
-1.83056e-132
-3.09267e-128
1.84574e-135
-3.32371e-134
-4.88799e-131
3.4367e-139
-7.59794e-138
1.67091e-135
3.04042e-142
1.51869e-142
7.5909e-137
3.56095e-145
2.97879e-144
2.49212e-140
6.84003e-148
1.02351e-148
-2.92302e-144
1.70055e-151
4.24495e-152
-9.67125e-147
1.50755e-153
-3.53827e-157
3.02355e-150
-3.23968e-157
1.10496e-154
1.28408e-08
1.35505e-08
4.76354e-08
4.74747e-08
4.71249e-08
4.71305e-08
4.78045e-09
7.91533e-09
2.7771e-10
-2.71399e-10
2.73144e-08
-3.20514e-08
1.61951e-07
-2.13513e-09
9.82734e-11
1.10921e-08
2.46736e-08
-5.62132e-08
-2.28825e-08
-1.19572e-07
-5.91045e-08
1.72822e-07
-3.48911e-08
2.34397e-09
-1.61031e-08
3.29259e-09
-1.43374e-09
1.25193e-08
-1.89857e-10
-1.12e-10
2.00321e-10
-2.4721e-12
2.04511e-10
9.88272e-17
4.92473e-19
-1.96558e-08
1.32904e-18
2.52594e-16
-4.78123e-17
6.85169e-17
1.6218e-18
-8.94518e-25
2.42265e-22
-3.75212e-22
2.6835e-19
2.65429e-19
2.59269e-19
2.82358e-19
3.69657e-26
1.47617e-25
1.08812e-26
4.06907e-28
2.08156e-27
4.68666e-30
1.42111e-31
3.86796e-30
-7.11511e-32
2.66582e-35
5.54399e-34
2.61837e-35
7.55662e-39
1.90645e-37
1.61244e-38
2.60963e-42
2.48514e-41
9.18624e-42
1.07706e-45
6.36426e-45
1.66729e-44
4.6004e-49
-7.40573e-49
-1.95909e-47
1.96062e-52
7.21547e-52
-5.56024e-52
8.28088e-56
3.39848e-55
-3.0805e-54
3.48282e-59
-7.86245e-59
4.40863e-57
1.45921e-62
2.86074e-63
6.82942e-60
6.20488e-66
-1.5671e-67
-2.13375e-63
2.69674e-69
1.6821e-69
-8.88551e-66
1.14476e-72
2.59849e-72
3.26862e-69
4.87318e-76
1.29548e-76
1.92794e-72
1.93548e-79
1.16004e-80
-2.57599e-75
9.56384e-83
-2.19346e-83
-4.89222e-80
6.83876e-86
3.02126e-86
-3.67843e-82
1.79401e-89
-1.63435e-88
-5.19215e-85
1.05485e-92
-5.37584e-94
-1.50116e-88
1.80705e-95
1.66816e-96
-3.11374e-92
1.15355e-98
8.84062e-100
-1.75596e-94
2.22928e-102
-1.32969e-101
-3.47642e-97
1.48931e-105
1.09396e-106
-9.48356e-102
2.21843e-108
-1.33342e-109
3.78363e-104
3.33478e-112
-2.26091e-113
-4.74328e-108
1.71102e-115
2.55022e-115
-7.31205e-111
5.41458e-118
-2.29869e-120
-6.46486e-115
2.77678e-120
5.01911e-121
-5.22652e-117
2.52913e-124
-2.02527e-125
5.0482e-119
1.73564e-127
-7.67928e-129
-3.18786e-124
4.84957e-130
2.20944e-131
-2.71949e-126
5.12313e-134
-4.78956e-135
4.37408e-134
5.3174e-137
-1.17741e-138
3.81494e-133
3.79792e-140
-8.00973e-141
6.49818e-136
1.21327e-143
1.5347e-144
4.86644e-139
5.08887e-147
2.76356e-146
-1.75642e-141
2.24797e-150
1.51929e-150
-2.6364e-146
3.96052e-153
3.52277e-153
1.66528e-149
-1.22989e-155
-1.84764e-153
8.01107e-10
4.80068e-08
5.36511e-08
4.17207e-08
-8.97488e-08
3.76508e-07
-3.22472e-08
-2.93928e-08
-1.105e-08
-1.1446e-08
-1.11796e-08
-1.08652e-08
-8.2103e-08
-5.27836e-09
-2.03303e-08
-8.18717e-08
-2.88441e-08
-6.41764e-09
-1.09549e-08
-1.1449e-08
-9.07977e-09
-1.12311e-08
-3.14351e-08
-3.21144e-08
-3.15497e-08
-3.21001e-08
-9.00658e-09
2.15073e-08
2.91034e-09
1.36503e-08
2.81696e-09
4.75657e-08
-1.88729e-07
8.4367e-08
-8.05801e-09
-2.03369e-08
-9.99269e-09
-7.54426e-08
-5.60508e-08
5.55261e-08
4.60625e-08
-4.77179e-08
-1.53727e-09
-1.76681e-08
1.95118e-09
-6.70517e-09
2.2349e-08
-2.59794e-09
-6.19007e-11
2.44805e-13
-9.02619e-11
2.07073e-10
3.68361e-15
-1.3662e-18
-2.17123e-08
1.90469e-16
1.12758e-14
-3.6742e-15
-9.12721e-15
-3.35041e-17
5.88051e-23
8.31069e-21
4.91996e-22
5.89976e-18
5.863e-18
6.00158e-18
5.7805e-18
1.49427e-25
1.41389e-24
-1.14303e-25
1.43728e-26
5.29365e-27
1.78712e-29
1.65444e-29
1.88904e-29
8.17609e-30
3.84424e-34
3.78713e-33
6.75128e-33
7.45556e-38
6.13282e-37
5.5125e-37
2.80522e-41
1.81125e-40
-1.91981e-39
1.08559e-44
3.14651e-44
1.15937e-42
4.19544e-48
8.91736e-48
1.16869e-46
1.62152e-51
2.50381e-51
2.33259e-49
6.27631e-55
4.9357e-55
7.5615e-52
2.42566e-58
2.26752e-58
-3.17379e-55
9.33961e-62
5.21961e-62
-8.63538e-59
3.61456e-65
-6.12114e-66
1.83324e-61
1.36458e-68
4.83996e-69
3.58629e-65
5.28518e-72
-1.50358e-74
3.02362e-68
2.16484e-75
-3.79794e-76
1.05356e-71
9.81976e-79
7.32858e-79
-1.87341e-74
4.10519e-82
1.38829e-82
-1.06155e-77
3.72238e-85
-2.91182e-86
1.25507e-80
5.99658e-88
-1.16933e-91
7.03037e-84
1.27121e-91
-1.23695e-90
-1.9597e-86
1.11969e-94
-5.39371e-95
5.65104e-91
4.19762e-98
9.60693e-99
2.66481e-93
1.03052e-100
-5.19481e-104
-4.98163e-96
7.79935e-105
-1.56449e-105
5.40558e-100
2.76591e-108
1.95943e-108
-5.95508e-104
3.40097e-111
4.4032e-112
-1.80708e-106
6.93907e-114
7.73958e-115
-2.00978e-109
1.26391e-117
-1.69151e-118
-3.97458e-112
6.40728e-121
2.02233e-122
5.25568e-120
1.3089e-123
3.72088e-125
-1.48155e-119
1.11826e-127
-2.83786e-127
-1.01124e-122
3.28489e-131
-4.37319e-129
1.9436e-129
1.80392e-134
-1.86809e-132
-6.24356e-133
5.34696e-137
2.35042e-136
1.2859e-132
1.48964e-139
7.21923e-140
1.47817e-134
1.24464e-142
-4.31353e-144
3.26302e-138
6.66476e-145
6.76531e-146
1.61453e-140
1.26077e-148
4.33338e-149
1.51723e-144
1.20013e-151
3.76874e-152
-3.96934e-148
2.56501e-156
-1.42841e-150
9.77078e-09
5.09583e-08
3.50855e-08
5.13793e-08
4.74187e-08
-2.49057e-09
-5.48672e-08
-2.18209e-08
-2.09715e-08
-2.15346e-08
-2.14119e-08
1.89536e-08
1.90344e-08
2.18649e-08
2.03961e-08
4.78396e-08
4.76938e-08
4.82733e-08
1.862e-08
3.64795e-08
1.92948e-08
2.72286e-08
1.38484e-08
6.56624e-08
-2.6417e-09
5.1355e-08
5.18663e-08
-3.29552e-10
2.8494e-08
-1.7862e-08
-7.90214e-09
2.23723e-08
-1.87168e-09
2.93971e-08
2.92357e-08
2.80587e-08
3.63145e-09
8.82003e-10
5.91785e-09
2.82241e-09
-1.2789e-08
-1.05096e-09
1.11853e-11
6.75369e-11
-1.1976e-11
2.4279e-11
-1.01726e-14
3.5671e-17
-1.82663e-08
3.75831e-16
-1.12134e-16
3.07409e-14
-2.88792e-14
7.56473e-15
-2.75897e-23
-9.28339e-22
-8.59769e-22
5.75898e-18
5.70611e-18
5.81931e-18
5.60383e-18
6.93231e-26
-5.65103e-26
4.31694e-26
9.04852e-27
2.27908e-27
2.81802e-29
1.53074e-29
-9.91087e-31
4.16833e-30
3.76116e-34
5.69861e-34
3.24228e-33
6.60896e-38
1.57731e-37
4.56542e-37
2.45864e-41
3.77371e-41
2.11556e-39
9.44305e-45
8.65335e-45
-3.12746e-42
3.64195e-48
2.59852e-48
8.83068e-47
1.40789e-51
2.11457e-51
-4.95841e-48
5.47238e-55
2.18884e-55
6.72876e-52
2.1536e-58
1.28291e-58
3.57094e-55
7.98808e-62
2.56041e-62
-9.99194e-58
3.01543e-65
8.63506e-66
3.76508e-61
1.17551e-68
2.00013e-69
-3.55467e-65
4.7084e-72
3.75668e-72
-1.26893e-67
4.87162e-75
-2.14329e-77
-6.36153e-71
1.90542e-77
1.30619e-78
-1.17775e-73
9.80929e-82
1.99894e-83
-1.15474e-77
4.70749e-85
-4.46369e-87
1.86765e-81
1.25055e-87
-6.40464e-89
1.03434e-84
3.16717e-90
1.21037e-90
-4.18104e-86
8.00961e-94
4.34942e-94
-2.61277e-90
3.00268e-97
8.57172e-100
-1.01756e-93
7.05295e-101
2.52524e-102
-1.54623e-96
3.87196e-104
1.20248e-105
-3.8637e-99
2.35381e-107
1.67883e-108
-1.57082e-103
7.25709e-111
-1.25952e-111
5.51023e-106
5.88834e-114
-6.44976e-115
-1.46894e-108
4.17093e-117
5.07561e-118
-7.88307e-112
7.98965e-121
-1.25378e-122
-1.61768e-120
1.54047e-123
-3.60516e-125
-1.75139e-119
1.7151e-125
1.37822e-129
-7.8774e-123
1.78061e-128
-6.73722e-131
-3.20872e-125
2.47553e-132
-5.89107e-136
-6.41741e-129
5.78629e-136
4.33102e-137
2.69878e-131
2.44505e-139
-7.27282e-141
8.37539e-134
1.38648e-142
-2.97936e-145
1.65605e-138
3.06794e-146
3.12062e-147
-5.89721e-144
1.06703e-149
-5.41474e-152
2.11373e-146
-1.01629e-153
4.49837e-154
2.51128e-148
5.65154e-157
1.17355e-154
2.53302e-09
5.24682e-08
4.52368e-08
6.88962e-08
-9.36762e-09
-8.26347e-09
-5.28088e-09
2.7214e-08
-2.31716e-08
-3.10325e-07
-3.04869e-09
4.98673e-08
-6.06139e-08
-2.87238e-08
-3.02361e-08
5.61864e-09
-2.96023e-08
-1.08435e-09
5.7213e-08
9.81862e-09
-2.06868e-08
5.99365e-09
3.77832e-08
-3.62885e-09
-8.59876e-09
-6.60139e-08
3.32863e-08
9.37925e-11
1.15025e-08
-2.3095e-09
-3.82686e-09
-5.39535e-09
-4.40761e-10
-4.26106e-10
5.01564e-10
-2.23526e-10
2.43228e-10
9.43548e-16
3.48202e-17
-3.4828e-08
-3.4828e-08
-1.18133e-17
-9.769e-17
-2.2187e-15
-1.98237e-15
-1.21314e-24
1.47981e-21
8.24104e-23
2.54304e-19
2.53335e-19
2.66385e-19
2.4661e-19
5.88031e-26
1.77697e-25
-5.00538e-27
3.45297e-28
7.29158e-29
2.33972e-30
1.27648e-31
1.99368e-31
4.12371e-32
2.62964e-35
2.4475e-34
5.56733e-35
8.13812e-39
5.89304e-38
1.789e-38
2.71921e-42
7.86652e-42
6.31703e-42
1.11269e-45
1.36182e-45
2.14575e-45
4.75785e-49
4.00482e-49
4.64457e-48
2.03512e-52
1.12059e-52
-2.45624e-50
8.66372e-56
-2.33741e-57
3.38871e-53
3.69992e-59
1.13198e-59
-3.18856e-57
1.57339e-62
-2.43388e-65
-1.1954e-59
6.55722e-66
1.09287e-67
3.69795e-64
2.75524e-69
9.7714e-70
2.37897e-66
1.17583e-72
4.4597e-74
5.64023e-70
5.09051e-76
8.52144e-77
-5.00474e-73
1.98028e-79
-2.50964e-81
2.43277e-78
8.30866e-83
1.95358e-84
-3.96364e-80
5.5212e-86
-2.38209e-87
1.38587e-82
6.11799e-89
-7.44655e-91
2.87372e-85
1.02206e-92
-8.04909e-94
-1.65666e-89
3.91616e-96
6.32003e-98
-5.68883e-92
1.8119e-99
1.36491e-102
-1.72144e-95
7.31314e-103
1.3828e-105
5.63531e-101
4.12213e-106
-2.88444e-107
2.83935e-101
2.21579e-109
-3.15756e-111
-9.23521e-105
2.13894e-112
7.57517e-114
1.09707e-107
1.67251e-115
-1.11241e-117
-1.05105e-111
4.58639e-118
-4.53539e-120
-1.13957e-114
2.59977e-121
3.89737e-123
-5.99375e-118
2.55794e-124
-5.79742e-127
-7.21091e-121
4.05215e-128
-1.55964e-131
-6.87766e-124
2.05398e-131
2.84709e-133
4.66608e-126
5.38504e-135
-5.66554e-136
6.82011e-130
4.62523e-138
4.91824e-140
1.21886e-136
1.1975e-140
6.72242e-143
-2.04016e-136
9.05454e-144
2.48813e-147
-2.3201e-139
4.87623e-146
-2.35338e-148
-1.18719e-142
2.88903e-150
-4.2025e-153
2.6663e-150
4.52798e-153
1.02597e-154
5.14628e-151
2.93171e-156
-2.80948e-152
-1.35568e-08
6.02791e-08
9.11762e-08
2.80468e-08
2.63627e-08
1.4849e-08
6.50021e-08
-2.45602e-07
-1.01995e-08
1.36871e-07
4.40662e-08
-3.92597e-07
3.02011e-08
1.48875e-07
1.80408e-08
1.50562e-08
5.63516e-08
6.50493e-10
5.88494e-08
-2.68601e-08
4.76733e-08
-2.25928e-08
-2.34247e-07
3.86183e-08
3.48266e-08
3.96047e-08
3.58529e-08
3.25527e-09
5.29066e-09
2.53569e-09
1.3308e-09
-1.3233e-08
7.32191e-12
-2.43182e-10
1.58995e-09
-2.48251e-12
1.45265e-09
4.72075e-16
3.40196e-18
4.58199e-09
4.58199e-09
4.31858e-18
4.72835e-16
4.75407e-16
4.7306e-16
-6.67214e-25
5.3641e-23
-4.71942e-23
2.59547e-21
2.64874e-21
2.47763e-21
3.26921e-21
6.533e-26
7.96289e-27
1.73435e-27
1.16307e-28
2.56983e-29
2.0586e-30
6.16639e-32
1.09454e-32
4.57024e-33
4.16502e-35
2.35279e-34
2.99665e-36
4.67937e-39
2.74134e-38
2.35152e-39
1.20148e-42
4.66374e-42
-1.46741e-42
4.66814e-46
1.01137e-45
-3.94516e-47
1.87664e-49
5.49968e-49
-2.75379e-48
7.54602e-53
5.68717e-53
-1.87595e-51
3.02409e-56
4.51214e-56
-2.49196e-54
1.20833e-59
4.56791e-60
2.10041e-58
4.81112e-63
2.59236e-63
-2.02516e-61
1.91028e-66
8.00045e-67
-5.47118e-65
7.54342e-70
3.33486e-71
2.40946e-67
2.96348e-73
-6.0527e-76
-4.82139e-72
1.16484e-76
1.4277e-78
-1.60523e-74
4.62262e-80
3.47701e-81
-1.19908e-77
1.83205e-83
1.37905e-84
4.98733e-81
6.92855e-87
-1.3905e-87
4.31135e-84
2.90394e-90
-2.25156e-91
-6.21633e-90
1.32592e-93
5.23169e-96
-8.96974e-90
4.75553e-97
-5.06902e-98
7.48593e-96
2.73786e-100
1.485e-101
-1.22612e-96
1.2653e-103
2.19962e-104
-1.17963e-99
4.12145e-107
-1.09005e-107
2.49182e-102
2.91356e-110
8.49913e-114
5.13214e-106
2.97205e-113
9.58591e-115
1.32309e-109
9.38675e-117
1.14483e-119
2.34119e-113
1.46423e-119
2.5299e-121
-1.16801e-114
4.72057e-123
5.87895e-125
-4.73298e-119
9.28282e-127
1.02448e-128
1.02279e-122
7.78139e-130
-1.16048e-131
3.59796e-127
3.0675e-132
1.31642e-134
2.36074e-128
6.60552e-135
6.35528e-136
-6.36116e-131
6.3623e-139
-8.98727e-143
-2.59499e-135
1.58755e-142
1.27161e-144
-1.21891e-137
5.45614e-146
1.37672e-147
-1.13186e-142
2.97785e-149
-1.09906e-150
-9.61639e-147
5.30379e-153
-1.09731e-152
4.6704e-150
2.05443e-153
-1.80558e-155
4.35373e-153
4.96764e-159
-2.94643e-153
6.88548e-08
4.4074e-08
4.36947e-08
1.48853e-08
3.9526e-08
5.96483e-08
-4.43941e-08
-3.22866e-08
-5.39397e-08
2.69159e-08
1.08165e-07
6.34269e-08
6.23819e-08
6.92139e-08
4.26169e-09
-3.31565e-08
-3.09715e-08
5.33048e-08
5.20668e-08
5.4823e-08
4.9496e-08
4.83161e-08
1.56811e-08
7.31563e-09
8.56299e-09
1.58045e-08
8.21909e-09
-1.47864e-07
-1.17319e-07
1.69373e-09
5.27566e-08
5.38528e-08
4.97212e-08
-8.05125e-09
-1.25263e-08
-3.01892e-09
8.67948e-10
2.22995e-08
-1.07091e-10
1.64385e-11
-2.46908e-08
4.54028e-11
-2.46878e-08
9.38362e-22
-8.78793e-21
-1.10601e-20
-1.97723e-18
-8.77457e-20
9.40777e-19
7.81289e-19
-8.22552e-19
-9.58061e-19
-1.88502e-18
-9.58031e-19
-4.28508e-26
-2.69605e-24
5.51149e-26
1.10365e-27
-9.78712e-28
-6.74926e-29
4.07111e-30
-8.68544e-29
2.30661e-31
5.38662e-34
-1.55826e-31
3.95611e-34
5.21423e-38
-1.89093e-35
4.16146e-38
1.58349e-41
-3.59123e-39
4.54241e-41
6.18012e-45
-9.20601e-43
6.59118e-44
2.47776e-48
-2.77955e-46
1.20073e-46
9.95374e-52
-5.56856e-50
-6.4229e-50
3.99555e-55
-1.59428e-53
-1.09089e-53
1.60315e-58
-4.55267e-57
-3.96825e-56
6.39945e-62
-2.16719e-60
-2.19258e-59
2.54968e-65
-6.87027e-65
-1.31872e-62
1.0164e-68
-3.60063e-68
-6.35851e-66
4.03566e-72
-4.08752e-72
-3.53023e-69
1.83494e-75
4.58823e-76
1.03109e-72
9.71757e-79
-1.47733e-79
-1.21814e-75
2.93437e-82
-2.9993e-83
-5.85926e-79
1.13552e-85
1.82561e-85
2.99533e-82
4.53293e-89
-5.93133e-89
-1.01642e-84
1.77135e-92
-8.71852e-91
2.24178e-88
3.58679e-95
-4.22183e-95
5.73321e-92
2.46719e-97
1.44752e-99
-5.20454e-94
1.91831e-101
-2.14669e-101
-9.16964e-99
4.17656e-105
-2.43226e-104
-6.75136e-101
3.248e-108
-5.61315e-108
-1.42117e-105
8.61822e-111
-6.32262e-112
-1.44529e-107
1.27921e-114
8.64809e-115
6.25021e-110
8.84571e-118
-1.63709e-119
-2.88852e-113
1.50668e-121
-1.32607e-121
5.7999e-117
1.18713e-124
-3.9688e-124
1.20331e-123
4.20234e-127
2.67802e-128
-7.02687e-124
6.56253e-130
-4.4131e-131
-1.30515e-126
5.65995e-133
1.79922e-133
-3.02145e-129
7.63129e-137
2.38536e-137
2.82751e-132
2.13956e-140
-1.29801e-141
-9.73608e-139
7.53635e-144
-5.01265e-143
5.4971e-141
9.6411e-147
4.79162e-148
-4.98589e-144
5.03317e-149
-2.26622e-149
6.06933e-145
5.60675e-152
-4.30749e-152
-1.11994e-148
1.86645e-153
-1.98254e-155
-5.03726e-151
-2.68209e-157
4.12489e-155
2.0694e-08
5.47948e-09
5.79177e-08
5.72129e-08
5.18101e-08
5.82772e-08
1.78424e-07
1.04106e-07
-1.36853e-07
-3.8895e-08
2.24162e-08
1.43553e-08
2.04496e-08
-1.97234e-08
2.57581e-09
-2.62904e-08
-3.04913e-09
7.32297e-08
5.08826e-08
-2.77581e-08
8.82485e-09
4.21398e-08
5.73407e-08
5.17578e-08
5.45544e-08
-2.91343e-08
-8.58475e-08
3.38316e-09
-5.88597e-09
-9.18605e-08
2.77857e-09
-3.64284e-09
5.19226e-09
1.04511e-09
-7.72222e-09
-6.52808e-13
4.92458e-15
1.79728e-08
8.63456e-14
1.7973e-08
-2.09635e-23
-2.18895e-21
-1.40686e-19
-8.70971e-20
-2.89897e-21
2.22914e-19
-6.60265e-26
-4.85786e-26
5.63807e-27
8.58626e-30
6.63832e-29
-1.15394e-31
1.88862e-32
-8.18315e-33
9.65427e-37
-8.44777e-36
2.6656e-40
1.98648e-39
1.01267e-43
3.53618e-44
3.8832e-47
1.25835e-45
1.47989e-50
-5.1131e-49
5.61597e-54
3.80048e-52
2.13095e-57
-3.07115e-55
8.0483e-61
4.74579e-59
2.98129e-64
-3.33771e-61
1.10279e-67
-1.45544e-64
4.03158e-71
-5.4541e-68
1.47878e-74
-6.55595e-74
5.41625e-78
1.30197e-74
1.90338e-81
1.5232e-77
7.03456e-85
1.65894e-80
8.70696e-88
-8.74584e-84
2.51451e-90
-4.84317e-87
2.49779e-94
-1.15823e-90
1.53303e-97
-3.96957e-94
4.2951e-100
-7.68571e-97
1.65306e-103
-6.9499e-100
5.4709e-107
-9.13438e-103
1.37011e-110
3.63264e-107
1.26484e-113
7.5244e-109
1.67152e-116
7.209e-112
1.16176e-119
-7.92326e-116
4.18106e-122
-6.47112e-119
2.3654e-126
8.0294e-128
6.75189e-130
-1.05874e-125
7.29059e-133
1.37988e-132
3.6207e-135
1.57367e-131
4.50144e-139
4.50216e-136
6.84183e-142
-1.55863e-137
4.51535e-145
5.82668e-141
1.92195e-148
-8.12752e-145
8.85295e-152
1.4077e-148
3.2355e-154
1.35081e-149
1.03972e-153
1.75004e-07
1.70935e-07
-7.74077e-08
-2.78014e-07
-2.22075e-07
-1.07138e-07
-1.78481e-07
4.64702e-08
-1.21136e-09
5.64979e-08
-1.73462e-09
3.92797e-08
1.84875e-07
2.05835e-07
4.75807e-08
1.11191e-08
2.83168e-09
-2.28306e-08
1.04054e-07
1.01931e-07
5.16941e-08
6.85186e-08
-1.75713e-07
-1.84346e-08
7.96769e-09
-1.74461e-07
6.32747e-10
-2.69725e-08
-1.11924e-09
9.4139e-11
-1.18318e-09
2.96473e-08
5.17069e-15
-2.6356e-15
3.54127e-17
2.28456e-15
6.53057e-16
7.50798e-14
-1.03933e-13
1.84703e-14
1.57466e-22
1.65e-21
3.02719e-21
-7.64073e-19
6.40769e-19
-7.32846e-19
6.48259e-19
2.44078e-25
2.81051e-24
1.20881e-25
8.84287e-27
-1.13702e-26
5.26371e-30
3.72374e-28
-2.95928e-28
1.02667e-30
1.17897e-30
-7.68449e-31
1.72063e-33
1.76302e-34
-2.23492e-34
-6.96802e-38
3.95307e-38
-3.75745e-38
1.14933e-38
2.60276e-41
-5.35486e-42
2.1819e-42
1.78427e-44
-9.34011e-45
4.88877e-45
1.17702e-47
-5.13657e-49
5.06555e-49
7.72426e-51
-1.82085e-51
5.54094e-52
5.05622e-54
3.47908e-54
-2.33007e-54
3.30433e-57
5.28127e-58
3.94086e-58
2.15229e-60
-8.45677e-61
1.53379e-61
1.39727e-63
-4.41716e-64
4.73335e-64
9.05449e-67
3.45232e-67
4.61757e-67
5.84636e-70
4.63374e-70
-2.46283e-71
3.76255e-73
1.08673e-73
3.17572e-74
2.41931e-76
3.94501e-77
2.17779e-76
1.54984e-79
2.52166e-80
1.00432e-80
9.88876e-83
-4.60994e-84
1.93947e-83
6.2772e-86
-1.50454e-86
-1.87076e-86
3.97622e-89
-2.23968e-90
-1.88354e-90
2.50765e-92
2.13297e-92
6.42645e-94
1.57569e-95
7.47035e-96
1.07921e-96
9.86502e-99
-3.96627e-99
-1.57807e-99
6.14928e-102
5.02433e-102
-8.79037e-102
3.81675e-105
-9.7047e-107
-8.91924e-107
2.35417e-108
-4.20167e-109
1.18085e-108
1.44292e-111
6.8391e-112
-1.72149e-111
8.79464e-115
-2.08677e-116
6.22997e-116
5.33688e-118
5.77477e-118
-1.79342e-123
3.21547e-121
-3.17819e-123
1.6629e-122
1.92168e-124
2.98193e-126
4.39869e-124
1.13832e-127
-1.72328e-129
2.00819e-129
6.67545e-131
1.99041e-131
1.17754e-133
3.85692e-134
2.18437e-134
-7.44259e-140
2.19847e-137
-1.08039e-138
1.7117e-137
1.22895e-140
2.21172e-141
-3.74729e-140
6.67971e-144
6.89052e-144
-1.04829e-143
3.50378e-147
-3.71343e-148
-6.32646e-148
7.32029e-151
2.68105e-151
-6.35335e-150
6.5266e-154
2.7891e-154
7.84748e-09
-2.6764e-07
-2.68243e-07
5.13879e-08
4.37532e-08
2.36918e-08
3.91091e-07
1.25578e-08
-1.73392e-08
-1.08899e-08
1.54114e-08
-1.83948e-08
-7.46113e-09
2.42411e-08
6.30733e-09
3.01596e-09
4.05264e-08
-6.64122e-09
4.49683e-09
4.38748e-08
-1.14898e-07
-3.3188e-09
9.92737e-10
-5.85786e-09
-1.72982e-08
3.33736e-09
1.4507e-08
-1.98224e-08
4.99898e-08
4.14557e-08
2.4619e-08
-2.40166e-09
6.24697e-09
8.13024e-09
8.51164e-09
1.01226e-08
-3.15012e-07
2.35866e-09
2.17567e-08
-1.71482e-08
-2.37867e-07
1.54368e-08
2.42624e-09
6.21145e-09
7.17527e-10
2.05409e-09
-2.66843e-08
1.71013e-13
-6.17371e-15
1.72905e-14
-1.27183e-14
1.54237e-14
3.91339e-15
8.03924e-21
-6.65867e-18
3.06728e-21
-1.3967e-18
7.42655e-18
-2.09831e-18
7.85347e-18
-5.29474e-18
-5.7761e-18
-5.29236e-18
7.51292e-25
-5.02146e-22
-8.64057e-26
-1.98722e-27
-7.38719e-25
3.88377e-29
3.13373e-29
-1.95757e-27
3.65708e-31
3.19648e-32
-5.58753e-32
1.01113e-35
4.62466e-36
-1.42058e-35
4.24959e-37
2.12227e-39
-9.15955e-39
9.74055e-41
1.51232e-42
-3.68823e-42
-1.12821e-44
1.0502e-45
-1.09199e-45
-3.70814e-46
7.10943e-49
-8.08402e-49
4.63823e-50
4.79816e-52
-3.77112e-52
2.24359e-52
3.23717e-55
-2.01412e-55
-1.48204e-55
2.17981e-58
-3.28303e-59
-6.50133e-60
1.46489e-61
-1.01823e-61
4.24598e-62
9.81817e-65
6.65023e-66
1.62284e-65
6.57933e-68
-6.37238e-68
1.61693e-68
4.40294e-71
4.23012e-72
-1.39518e-72
2.93815e-74
-3.29942e-75
7.19391e-75
1.95475e-77
-2.56686e-78
-7.01846e-79
1.29982e-80
-1.38244e-80
1.84226e-80
8.62503e-84
2.27686e-86
-1.1493e-84
5.7145e-87
-2.4579e-87
-4.36246e-88
3.77581e-90
3.59194e-90
-4.68234e-91
2.49523e-93
6.46146e-95
3.48516e-94
1.64449e-96
2.59527e-98
2.44496e-97
1.08222e-99
-1.81639e-100
4.42561e-100
7.11642e-103
-4.04783e-103
4.8716e-103
4.6685e-106
1.26127e-106
-3.04543e-107
3.05529e-109
9.27449e-110
-7.79353e-110
1.99646e-112
2.22339e-114
4.4747e-113
1.30197e-115
1.73812e-117
3.44985e-117
8.47028e-119
-4.18986e-119
2.61904e-119
5.49658e-122
5.87703e-123
9.61529e-124
3.56632e-125
-9.59217e-126
2.45122e-127
2.30903e-128
1.93684e-129
-3.77299e-129
1.49433e-131
-1.64162e-133
-3.42928e-135
9.66989e-135
-1.18225e-135
6.4766e-136
6.22089e-138
9.47053e-138
-4.50046e-138
3.99938e-141
-5.74125e-142
6.16281e-142
2.5702e-144
1.07684e-144
5.78731e-145
1.6483e-147
4.7487e-148
5.50501e-148
9.85214e-151
1.06477e-150
3.5365e-151
6.03829e-155
2.06492e-157
-1.25378e-08
1.00734e-08
5.31185e-08
9.36696e-09
9.2298e-09
9.2037e-09
1.324e-08
1.30122e-08
1.32325e-08
1.33924e-08
4.91359e-09
-3.24182e-08
-1.68012e-07
-6.41888e-09
6.22465e-09
-1.51006e-08
5.66978e-08
2.45579e-08
3.33828e-08
1.73388e-07
1.02321e-07
1.6125e-07
2.12121e-08
1.48993e-08
-7.3685e-10
1.4051e-08
2.13857e-08
-1.40866e-08
3.9492e-08
2.09136e-08
2.34825e-08
-1.55734e-07
-5.65879e-09
2.05669e-08
2.58465e-08
-3.1821e-08
-3.28397e-09
-4.3267e-08
2.07483e-09
-3.23761e-09
1.03769e-08
1.09214e-08
-4.65571e-08
-2.74336e-08
-2.51954e-08
1.40181e-08
1.9334e-07
4.97487e-08
-2.79074e-10
-1.84276e-08
6.18308e-09
7.10024e-09
-4.44425e-08
-1.10052e-10
-1.26961e-11
1.93363e-11
-2.22813e-11
5.03142e-12
8.78223e-12
6.66296e-18
-5.50347e-18
2.19402e-18
-4.69259e-18
6.32658e-19
1.05859e-17
7.87195e-18
3.21886e-17
1.57987e-23
-5.22092e-21
1.297e-22
-5.24963e-20
-5.5009e-20
-5.51615e-20
-5.51895e-20
1.72444e-24
-1.85264e-24
1.39487e-26
2.50118e-27
1.40817e-27
8.12631e-31
8.66648e-32
-1.43958e-30
3.99714e-34
3.07645e-35
-3.44478e-34
-2.95411e-36
2.20329e-38
-9.47598e-38
-2.35028e-40
1.49104e-41
-3.69786e-41
-1.80162e-43
1.00786e-44
-1.93834e-44
-3.52781e-46
6.79438e-48
-7.33415e-48
-6.63158e-50
4.57054e-51
-9.72684e-52
3.10295e-51
3.07445e-54
3.04149e-54
5.90848e-55
2.0725e-57
-9.37117e-58
-4.11441e-59
1.39757e-60
-1.04896e-60
7.76588e-61
9.42998e-64
-3.72932e-64
2.81466e-65
6.36107e-67
5.43046e-67
2.30424e-67
4.29174e-70
-4.15902e-72
6.60929e-71
2.89405e-73
1.45793e-74
1.67704e-74
1.95258e-76
-8.50277e-77
-1.5974e-78
1.31643e-79
-2.2696e-80
7.62697e-80
8.86901e-83
5.929e-83
1.60421e-86
5.98393e-86
3.04558e-86
-5.07264e-87
4.03827e-89
-3.88683e-90
3.41555e-90
2.72146e-92
3.77496e-93
2.19781e-95
1.83498e-95
1.28146e-96
5.92325e-99
1.23467e-98
3.78506e-99
6.46688e-100
8.28572e-102
5.69124e-103
1.30268e-102
5.55988e-105
4.75756e-106
-3.99042e-106
3.7283e-108
-9.58238e-109
-1.37264e-109
2.49554e-111
-1.05434e-112
6.47497e-113
1.66879e-114
-1.57872e-115
3.50939e-115
1.11364e-117
2.43404e-118
1.84381e-119
7.4154e-121
-7.79381e-122
7.00759e-121
4.93158e-124
6.52048e-125
-1.29141e-125
3.27526e-127
1.09892e-127
3.1866e-128
2.17507e-130
-2.94068e-130
1.59138e-133
1.44206e-133
-5.15446e-134
-8.21714e-135
9.54171e-137
8.52712e-137
2.26384e-137
6.29766e-140
3.41688e-140
-8.06856e-141
4.14854e-143
2.54484e-143
2.97929e-143
2.72609e-146
4.13289e-147
8.7965e-147
1.65952e-149
4.81905e-150
-1.09777e-149
-1.01865e-152
2.65503e-154
1.50653e-08
-2.2392e-07
8.5145e-09
-2.18502e-07
7.40482e-08
-4.22664e-09
8.94229e-08
-3.19658e-07
-2.61371e-08
-3.68952e-08
-3.10254e-07
-1.24601e-08
-2.90738e-08
4.04566e-09
1.20507e-08
2.46926e-09
1.18545e-08
8.62247e-09
1.51194e-08
6.54993e-09
1.55412e-08
-1.93934e-08
4.25169e-08
-2.29005e-07
-1.20723e-07
1.92619e-08
1.75951e-08
5.44284e-09
-4.08961e-09
-1.27088e-08
-1.95997e-08
-1.74508e-08
-3.16246e-07
6.10097e-09
3.335e-09
-1.60257e-08
-1.18249e-07
-2.10064e-08
-5.12366e-08
3.07027e-09
-1.86969e-08
8.17132e-09
6.22605e-10