/*--------------------------------*- C++ -*----------------------------------*\
| =========                 |                                                 |
| \\      /  F ield         | OpenFOAM: The Open Source CFD Toolbox           |
|  \\    /   O peration     | Version:  5.0                                   |
|   \\  /    A nd           | Web:      www.OpenFOAM.org                      |
|    \\/     M anipulation  |                                                 |
\*---------------------------------------------------------------------------*/
FoamFile
{
    version     2.0;
    format      ascii;
    class       volScalarField;
    location    "2.4";
    object      p;
}
// * * * * * * * * * * * * * * * * * * * * * * * * * * * * * * * * * * * * * //

dimensions      [1 -1 -2 0 0 0 0];

internalField   nonuniform List<scalar> 
8710
(
107.348
108.633
118.923
99.5532
99.3114
96.4394
94.4517
91.4224
89.0591
86.6204
84.1753
81.7239
79.2757
76.8561
74.4512
72.0677
69.6986
67.3602
65.0404
62.7471
60.4591
58.1923
55.9546
53.7108
51.4929
49.295
47.0958
44.8971
42.7175
40.5682
38.4116
36.2809
34.1796
32.0703
29.955
27.8716
25.8425
23.8486
21.8637
19.8717
17.9079
15.9898
14.0741
12.1302
10.2152
8.34744
6.48093
4.61215
2.76314
0.923794
97.3614
94.8053
98.0185
97.1004
95.8459
97.0618
95.3759
91.7755
89.2458
86.7489
84.2583
81.7755
79.3297
76.8898
74.4653
72.0836
69.7033
67.3782
65.0667
62.753
60.4662
58.1959
55.9482
53.7103
51.4774
49.2676
47.0815
44.8987
42.7299
40.5701
38.4272
36.2959
34.178
32.0652
29.9598
27.8789
25.8378
23.8322
21.844
19.8707
17.9137
15.9936
14.0821
12.15
10.2229
8.34007
6.47263
4.61088
2.76276
0.923617
101.04
98.8697
96.9854
97.8183
100.623
96.9643
96.176
92.6687
89.3234
86.8548
84.3305
81.8145
79.3409
76.9052
74.4807
72.0788
69.7192
67.3986
65.0838
62.7523
60.4684
58.1981
55.9357
53.7042
51.4814
49.267
47.0703
44.9031
42.7346
40.571
38.4316
36.2952
34.1586
32.0532
29.9676
27.8939
25.8382
23.8231
21.8413
19.8725
17.9224
15.9912
14.0666
12.1519
10.2368
8.33876
6.46982
4.61364
2.76898
0.92429
98.6206
98.999
97.7452
97.8977
97.6518
97.5897
97.1708
93.0979
89.5212
86.9927
84.4023
81.8815
79.3693
76.9136
74.4919
72.0907
69.7255
67.3958
65.0633
62.7563
60.4791
58.1994
55.9446
53.7076
51.4916
49.2751
47.0697
44.9099
42.7322
40.5632
38.432
36.2906
34.1527
32.0474
29.9754
27.9104
25.8435
23.8186
21.8414
19.8777
17.9266
15.9786
14.0491
12.1394
10.2417
8.34102
6.46965
4.62106
2.77428
0.919168
83.5261
94.911
96.122
100.828
101.796
100.174
97.6177
93.1178
89.5096
87.0064
84.4078
81.8693
79.3774
76.9151
74.501
72.1011
69.7392
67.3883
65.0442
62.7569
60.4825
58.1993
55.9486
53.7106
51.501
49.2919
47.0803
44.9049
42.7193
40.5567
38.4255
36.2809
34.1494
32.0454
29.9759
27.9195
25.8537
23.8226
21.8452
19.8865
17.9258
15.966
14.0285
12.1281
10.2387
8.34148
6.47537
4.63543
2.7827
0.917116
108.517
94.2399
102.395
105.927
102.235
99.037
97.9056
93.1284
89.447
86.9683
84.378
81.8506
79.366
76.9144
74.5117
72.1103
69.7481
67.3918
65.0404
62.7496
60.4791
58.1948
55.9495
53.7216
51.5078
49.31
47.0928
44.9008
42.7123
40.5429
38.4156
36.2738
34.141
32.0468
29.9792
27.9213
25.8649
23.8349
21.8488
19.8872
17.9192
15.9522
14.0149
12.1184
10.232
8.34528
6.49124
4.6576
2.79287
0.920043
99.9955
96.6612
92.1569
86.3394
104.4
97.7221
98.0156
93.2799
89.3254
86.8413
84.3125
81.8118
79.3577
76.9119
74.4972
72.1031
69.7437
67.3988
65.0431
62.7387
60.4668
58.1948
55.949
53.7313
51.5155
49.306
47.0984
44.8969
42.7152
40.5584
38.4162
36.2635
34.1348
32.0535
29.9825
27.9159
25.87
23.8468
21.8505
19.8793
17.9122
15.9434
14.0105
12.1155
10.2278
8.3465
6.49674
4.65722
2.79661
0.929084
101.314
99.1062
102.363
175.966
93.0737
96.6286
96.7922
92.411
89.0174
86.6647
84.2038
81.7488
79.32
76.8883
74.4629
72.0973
69.7292
67.3828
65.054
62.7307
60.4567
58.1902
55.9473
53.7324
51.5147
49.3119
47.1006
44.8953
42.7236
40.5627
38.4119
36.2609
34.1391
32.0601
29.9805
27.9051
25.8701
23.8597
21.8569
19.8741
17.9079
15.9559
14.0225
12.1198
10.2264
8.34866
6.49539
4.64675
2.79535
0.933171
110.703
115.347
120.692
107.52
100.173
96.5461
95.3524
91.2905
88.9735
86.5835
84.1579
81.7221
79.2928
76.8682
74.4611
72.0891
69.7056
67.3658
65.0472
62.7385
60.4499
58.1839
55.9519
53.728
51.5178
49.3118
47.0976
44.8934
42.7189
40.5623
38.3988
36.2607
34.1577
32.0651
29.9736
27.8951
25.8644
23.8634
21.861
19.8726
17.9065
15.9638
14.0397
12.1204
10.2224
8.34896
6.488
4.63488
2.78208
0.934
94.4955
103.773
112.575
134.856
100.517
96.0539
94.4164
91.2388
88.9564
86.5538
84.141
81.6996
79.2592
76.8598
74.4542
72.0692
69.6987
67.3595
65.0396
62.7422
60.4522
58.1854
55.955
53.7171
51.5068
49.3089
47.0993
44.8958
42.7164
40.5635
38.4027
36.2678
34.1737
32.0726
29.9628
27.8815
25.8539
23.8585
21.8639
19.8712
17.907
15.9791
14.0533
12.121
10.2141
8.3506
6.48771
4.6228
2.76922
0.923996
105.225
109.449
117.229
104.287
98.8477
96.2658
94.4458
91.4231
89.059
86.6204
84.1754
81.7239
79.2755
76.8562
74.4512
72.0675
69.6986
67.3603
65.0406
62.7469
60.459
58.1923
55.9545
53.7107
51.4928
49.295
47.0957
44.8971
42.7173
40.5679
38.4116
36.281
34.1796
32.0703
29.955
27.8715
25.8424
23.8486
21.8637
19.8716
17.9077
15.9899
14.0742
12.1303
10.2152
8.34761
6.48084
4.61214
2.7631
0.923873
106.304
106.117
98.2549
97.243
97.2975
97.738
95.356
91.7758
89.2457
86.7487
84.2583
81.7754
79.3297
76.8898
74.4652
72.0833
69.7033
67.3783
65.0667
62.7529
60.4665
58.1959
55.9483
53.7103
51.4775
49.2676
47.0814
44.8986
42.7299
40.5701
38.4277
36.296
34.178
32.0652
29.9598
27.8789
25.8378
23.8322
21.844
19.8701
17.9138
15.9937
14.082
12.1497
10.2229
8.34008
6.47255
4.61088
2.76292
0.92357
100.169
98.7829
96.9938
97.763
97.3136
96.933
96.1496
92.6675
89.3249
86.8547
84.3306
81.8144
79.3409
76.9052
74.4807
72.0788
69.7192
67.3985
65.0838
62.7523
60.4679
58.1981
55.9355
53.7041
51.4814
49.2668
47.0703
44.9031
42.7345
40.5712
38.4313
36.2951
34.1587
32.0533
29.9677
27.8939
25.8381
23.8231
21.8413
19.8724
17.9225
15.9915
14.0666
12.1517
10.2368
8.33872
6.46975
4.61367
2.76902
0.924279
98.5791
98.6691
97.5169
98.3095
97.5662
97.7616
97.1736
93.0977
89.5217
86.9923
84.4023
81.8813
79.3693
76.9136
74.4919
72.0907
69.7255
67.3957
65.0633
62.7562
60.4791
58.1994
55.9447
53.7077
51.4911
49.275
47.0698
44.91
42.7323
40.563
38.4319
36.2905
34.1527
32.0474
29.9755
27.9104
25.8435
23.8187
21.8414
19.8776
17.9266
15.9785
14.049
12.1395
10.2418
8.34104
6.46956
4.62102
2.77427
0.919053
108.879
113.025
96.779
100.938
101.443
98.2646
97.5838
93.1102
89.5099
87.0064
84.4079
81.8692
79.3771
76.9151
74.5012
72.1011
69.7392
67.3883
65.0439
62.7572
60.4825
58.1993
55.9482
53.7107
51.5008
49.2919
47.0804
44.9049
42.7188
40.5566
38.4255
36.2809
34.1488
32.0454
29.976
27.9195
25.8537
23.8226
21.8452
19.8869
17.9257
15.9656
14.0285
12.128
10.2388
8.34147
6.47529
4.63536
2.78269
0.917167
107.804
93.7922
97.6108
99.9274
106.128
98.8824
97.8593
93.1189
89.4473
86.9683
84.3779
81.8505
79.3662
76.9144
74.5117
72.1103
69.7481
67.3919
65.0403
62.7496
60.4791
58.1947
55.9493
53.7215
51.5078
49.3101
47.0928
44.9006
42.7123
40.5431
38.4155
36.2733
34.1408
32.0467
29.9793
27.9213
25.8649
23.8349
21.8488
19.8872
17.9192
15.9518
14.015
12.1184
10.2319
8.34526
6.49122
4.65772
2.7926
0.920007
100.504
96.3989
95.445
87.0734
102.42
97.6735
97.9542
93.2751
89.3259
86.8412
84.3125
81.8118
79.3577
76.9119
74.4972
72.103
69.7437
67.3987
65.0431
62.7388
60.4667
58.1948
55.949
53.7312
51.5154
49.3059
47.0983
44.8969
42.7153
40.5583
38.4165
36.2634
34.1348
32.0535
29.9825
27.9158
25.87
23.8468
21.8504
19.8794
17.9121
15.9432
14.0104
12.1155
10.2276
8.34648
6.49684
4.65733
2.79653
0.929205
101.902
124.69
94.508
120.705
91.9973
96.6585
96.766
92.4079
89.0181
86.6646
84.2038
81.7488
79.32
76.8882
74.4628
72.0973
69.7295
67.3827
65.0542
62.7306
60.4567
58.1903
55.9473
53.7324
51.5147
49.3119
47.1009
44.8949
42.7235
40.5627
38.4118
36.2607
34.1391
32.06
29.9805
27.9051
25.8701
23.8597
21.8569
19.8741
17.9078
15.9559
14.0225
12.1198
10.2263
8.34864
6.49538
4.64673
2.79538
0.933143
114.647
110.584
142.251
103.969
101.557
95.6631
95.2694
91.2909
88.9735
86.5835
84.1578
81.7221
79.293
76.8681
74.4611
72.0893
69.7057
67.3653
65.0473
62.7385
60.4499
58.1839
55.9519
53.728
51.5178
49.3118
47.0975
44.8933
42.7189
40.5624
38.3988
36.2606
34.1581
32.065
29.9735
27.895
25.8646
23.8633
21.8609
19.8726
17.9065
15.9638
14.0396
12.1203
10.2223
8.3489
6.4879
4.63485
2.78215
0.933997
124.389
102.472
127.701
116.637
93.0162
94.4448
94.4067
91.2393
88.9563
86.5538
84.1411
81.6995
79.2589
76.8599
74.4542
72.0694
69.6987
67.3595
65.0396
62.7421
60.4521
58.1854
55.955
53.7171
51.507
49.309
47.0993
44.8958
42.7164
40.5635
38.4026
36.2679
34.1738
32.0725
29.9627
27.8817
25.854
23.8585
21.8639
19.8712
17.907
15.979
14.0533
12.1208
10.2141
8.35062
6.48749
4.62279
2.76928
0.923985
50.0134
107.433
96.8692
98.1274
98.8917
96.2766
94.4481
91.4228
89.059
86.6203
84.1755
81.7239
79.2753
76.8564
74.4511
72.0673
69.6985
67.3606
65.0407
62.7467
60.4587
58.1923
55.9544
53.7105
51.4928
49.2949
47.0955
44.897
42.7172
40.5679
38.4117
36.281
34.1795
32.0701
29.9549
27.8715
25.8424
23.8486
21.8637
19.8714
17.9076
15.9899
14.0743
12.1304
10.2152
8.34762
6.4807
4.61207
2.76301
0.923855
106.277
104.985
95.604
97.0224
98.1272
97.1628
95.3665
91.775
89.2457
86.7485
84.2582
81.7754
79.3296
76.8897
74.4652
72.0831
69.7032
67.3783
65.0666
62.7527
60.4665
58.196
55.9481
53.7097
51.4777
49.2674
47.0813
44.8986
42.73
40.5701
38.4278
36.296
34.1779
32.0652
29.9597
27.8788
25.8377
23.8327
21.8438
19.87
17.9137
15.9938
14.0819
12.1492
10.223
8.34015
6.47216
4.61084
2.76299
0.923386
100.236
97.0478
97.5886
97.3877
96.7227
96.9317
96.15
92.6689
89.3248
86.8547
84.3304
81.8144
79.3408
76.9051
74.4806
72.0787
69.7195
67.3983
65.0837
62.7522
60.4677
58.1981
55.9354
53.704
51.4814
49.2667
47.0703
44.903
42.7345
40.5711
38.4312
36.2947
34.1587
32.0534
29.9678
27.8938
25.8379
23.8231
21.8412
19.8723
17.9225
15.9916
14.066
12.1515
10.2368
8.33864
6.46965
4.61392
2.76898
0.923953
97.8181
98.5209
97.4915
96.751
97.5289
97.6434
97.1742
93.0995
89.5211
86.9919
84.4022
81.8812
79.3692
76.9135
74.4918
72.0906
69.7254
67.3954
65.0632
62.756
60.4791
58.1993
55.9446
53.7077
51.4909
49.2745
47.0699
44.91
42.7322
40.563
38.4318
36.2904
34.1526
32.0473
29.9754
27.9103
25.8434
23.8187
21.8414
19.8775
17.9266
15.9784
14.0487
12.1397
10.2418
8.34076
6.46946
4.62094
2.77415
0.918727
102.454
102.522
99.7938
100.639
100.512
98.1864
97.5997
93.1137
89.5091
87.0068
84.4078
81.8691
79.3769
76.915
74.5012
72.101
69.7391
67.3882
65.0438
62.7571
60.4825
58.1992
55.9482
53.7108
51.5005
49.2919
47.0805
44.9048
42.7187
40.5564
38.4265
36.2808
34.1487
32.0453
29.976
27.9195
25.854
23.8225
21.8452
19.8871
17.9256
15.9651
14.0287
12.128
10.2385
8.3414
6.47542
4.63526
2.78247
0.917062
96.4212
93.8513
96.8109
109.522
98.1986
99.7558
97.8593
93.1233
89.4465
86.9685
84.3777
81.8504
79.3663
76.9143
74.5116
72.1102
69.748
67.392
65.0402
62.7494
60.4792
58.1941
55.9492
53.7214
51.5079
49.31
47.0927
44.9004
42.7122
40.543
38.4157
36.2731
34.1407
32.0476
29.9794
27.9212
25.8649
23.8348
21.8487
19.8873
17.9191
15.9513
14.0149
12.1184
10.2317
8.34519
6.49124
4.65771
2.79217
0.919982
99.3292
102.572
98.4556
143.491
101.308
97.7486
97.9696
93.2751
89.3254
86.8412
84.3124
81.8117
79.3576
76.9118
74.4971
72.103
69.7436
67.3985
65.043
62.7388
60.4669
58.1947
55.9489
53.7312
51.5153
49.3059
47.0982
44.8972
42.7155
40.5583
38.4165
36.2632
34.1347
32.0535
29.9821
27.9157
25.87
23.8467
21.8503
19.8794
17.912
15.9431
14.0103
12.1155
10.2275
8.34641
6.49703
4.65702
2.79604
0.929199
94.2399
118.398
101.052
98.3653
97.0784
96.5748
96.7852
92.4082
89.0177
86.6646
84.2037
81.7487
79.3199
76.8882
74.4628
72.0972
69.7297
67.3823
65.0543
62.7306
60.4566
58.1904
55.9474
53.7323
51.5147
49.3119
47.1008
44.8948
42.7234
40.5626
38.4118
36.2606
34.1391
32.06
29.9803
27.9051
25.87
23.8596
21.8568
19.8742
17.9077
15.9559
14.0225
12.1197
10.2262
8.34857
6.49533
4.64668
2.79536
0.933111
111.748
103.644
99.4651
105.347
94.4391
95.7158
95.2665
91.2907
88.9739
86.5835
84.1578
81.7221
79.2932
76.8681
74.461
72.0894
69.7058
67.3652
65.0473
62.7385
60.4498
58.1842
55.9519
53.7279
51.5175
49.3117
47.0971
44.8932
42.7193
40.5624
38.3987
36.2605
34.1589
32.065
29.9734
27.895
25.8645
23.8631
21.8608
19.8725
17.9066
15.9638
14.0395
12.1201
10.2222
8.34881
6.4878
4.63478
2.78231
0.933908
125.531
127.167
126.131
96.3258
92.4617
94.7654
94.3956
91.2391
88.9564
86.5537
84.1411
81.6993
79.2587
76.8599
74.4541
72.0696
69.6986
67.3586
65.0401
62.742
60.452
58.1853
55.9549
53.7171
51.5069
49.3089
47.0993
44.8958
42.7163
40.5635
38.4022
36.268
34.1743
32.0724
29.9627
27.8819
25.8541
23.8584
21.8638
19.8711
17.907
15.9789
14.0532
12.1207
10.2141
8.35057
6.48733
4.62265
2.76927
0.923916
95.5698
97.0651
96.2806
96.3082
95.4978
97.0618
96.1487
96.5168
97.0908
96.6871
97.7262
96.405
97.0919
96.7163
96.943
97.3951
97.1997
96.9233
96.9555
97.3748
97.167
97.2275
98.401
97.6955
97.6668
97.2452
98.0999
97.7264
97.7477
100.184
97.7968
98.1403
97.7718
99.9716
97.7373
97.9442
101.127
97.8501
98.9025
97.8911
100.148
97.848
98.0604
99.4451
97.0374
97.7208
98.1602
96.7574
97.0189
96.7695
95.2458
96.0191
96.5917
96.799
95.2884
96.0288
95.9867
95.4934
95.2316
95.68
95.9908
95.2426
95.1993
95.3512
95.679
95.2417
95.4243
95.2538
95.6993
95.1598
95.4821
97.0683
96.1363
96.2658
95.4814
96.985
96.1398
96.3879
97.0881
96.7181
97.1565
96.3589
97.0775
96.7196
96.9546
97.363
97.2358
96.9416
96.9503
97.3511
97.1436
97.2702
98.0721
97.5913
97.6494
97.2669
98.1736
97.6068
97.7122
99.9413
97.7567
98.2719
97.7177
102.797
97.7876
97.9054
98.9906
97.8865
98.8347
97.9084
99.0055
97.8376
98.0587
96.7069
97.0139
97.7579
97.9485
97.3854
96.9987
96.7734
95.277
96.0298
96.5062
96.7814
95.1588
96.0456
95.9963
95.2883
95.1962
95.7242
96.0038
95.1149
95.2047
95.2621
95.6648
95.1403
94.7453
95.2686
95.6599
95.1634
95.4926
97.213
96.1527
96.2983
95.5682
97.0598
96.2766
96.3719
97.0677
96.7147
97.6426
96.5134
97.075
96.6877
96.9479
97.3626
97.2536
96.9588
96.9317
97.5391
97.2109
97.2938
97.9521
97.526
97.6496
97.2429
98.1219
97.6067
97.7809
99.8272
97.8235
98.2459
97.7088
101.229
97.7737
97.9084
98.9408
97.8772
98.6571
97.9046
99.3181
97.8607
98.0307
97.3524
96.9948
97.8392
97.9582
97.4931
96.9901
96.8201
95.2195
96.0419
95.6231
96.7637
95.086
96.0385
96.0014
95.2882
95.2135
95.7185
95.9852
95.1756
95.2378
95.2757
95.8132
95.1732
94.7991
95.3552
95.8348
95.2512
97.4629
98.4514
98.6737
99.9665
96.7662
97.2538
97.4554
96.4011
96.1385
96.563
96.344
96.6552
96.3901
96.1453
93.2369
94.7687
93.4955
94.4481
93.2454
94.7647
93.504
97.0707
98.8154
96.9955
96.1338
96.8741
97.7686
96.994
96.6918
96.7498
97.1078
97.3016
96.7561
96.8458
96.668
93.6958
96.0771
93.9451
95.3556
93.705
95.9569
93.954
97.2889
97.465
97.3459
102.095
97.4648
96.8854
97.2743
97.135
97.0672
97.1751
96.9691
97.0558
97.1482
97.1607
94.1703
96.9725
94.0385
96.1573
93.7802
96.9447
94.0453
98.6667
99.1622
97.7462
97.64
98.4996
98.6364
97.7821
97.2971
97.6157
99.5362
97.659
97.489
99.5157
97.414
94.1407
97.8075
94.9116
97.1775
94.144
97.6069
94.9311
101.429
110.359
98.3823
101.521
100.483
100.765
98.3142
98.1255
98.2413
99.4105
101.882
97.7506
99.3704
98.1387
94.7784
97.6981
95.0448
97.6333
94.7241
97.6521
94.9466
102.177
103.311
102.195
102.917
101.286
103.403
102.153
98.7459
98.5158
99.7391
98.9135
98.5353
99.7171
98.745
95.1133
97.8478
94.7602
97.9267
95.0183
97.7939
94.7001
101.246
92.7241
98.7318
101.071
101.212
92.3783
100.496
98.1697
98.3974
98.7036
97.7556
98.3941
98.6401
98.1558
94.9572
97.0889
93.8594
98.0403
94.9787
97.0937
93.863
100.389
94.9083
95.3968
99.1497
95.7593
97.0031
94.5915
96.1572
96.6673
96.1378
96.6133
96.6937
96.096
96.12
93.7163
95.4874
93.1472
96.7711
93.7232
95.484
93.1547
95.7005
109.25
102.574
101.911
96.8265
105.066
96.2526
95.702
95.8562
97.0922
96.8758
95.8067
96.0771
95.8086
93.1328
94.4704
92.986
95.2759
93.1404
94.4475
92.9947
100.449
105.689
93.7147
94.0142
94.6373
100.354
94.8073
95.8778
95.1741
97.1402
96.0449
95.1716
97.0181
95.8739
92.9967
94.1678
93.0711
94.4152
93.0056
94.1632
93.0789
97.112
97.0597
96.9687
98.852
97.1186
97.0911
96.7572
96.3912
96.1418
96.4588
96.2582
96.392
96.454
96.1416
93.2443
94.7619
93.5029
94.4458
93.2442
94.7622
93.5027
96.8652
97.8119
97.0033
99.9341
97.5741
97.7695
97.0355
96.7422
96.7388
96.9907
97.0677
96.7221
96.7601
96.9744
93.7043
95.9484
93.9534
95.3646
93.7039
95.9421
93.9533
97.0384
97.1892
97.8293
100.505
97.0078
102.068
97.2297
97.1491
97.0468
97.1813
96.9339
97.1796
97.0551
97.1927
93.7762
96.9388
94.0421
96.1431
93.7623
96.9302
94.0418
98.5699
98.78
97.9576
97.7873
98.7121
98.2498
97.7074
98.2206
97.6298
99.7481
97.6828
98.6446
97.6464
99.7745
94.1408
97.5701
94.9297
97.1736
94.1412
97.6075
94.9333
100.592
101.315
98.2122
100.835
100.903
101.93
98.0996
98.1059
97.8701
98.9402
98.1522
98.1063
97.8688
98.7885
94.7208
97.7155
94.9401
97.6218
94.72
97.6871
94.9401
101.889
99.3388
101.943
110.104
106.427
111.53
99.0153
98.6845
98.3683
99.5785
98.8592
98.6988
98.3379
99.8301
95.0112
97.8133
94.6953
97.8599
95.0122
97.8101
94.6951
101.805
95.4989
102.184
124.443
101.453
110.577
101.186
98.0815
98.3812
99.1386
97.6831
98.05
98.3734
98.4052
94.9764
97.0935
93.8586
97.9719
94.9747
97.0941
93.8588
96.1042
92.4274
94.6017
95.6711
96.1211
92.5589
94.6914
96.1483
96.544
96.9881
96.4959
96.0872
96.5384
97.4092
93.7199
95.4804
93.1525
96.7787
93.7201
95.5349
93.1517
96.5675
100.873
96.2457
94.6963
95.7636
101.09
96.2511
95.7261
95.7918
95.9398
95.7392
95.7223
95.7843
95.6829
93.1387
94.447
92.9939
95.2531
93.1388
94.4478
92.9938
96.6764
95.3202
93.5254
92.5897
93.2444
82.8792
93.5371
95.8568
95.1607
97.0891
94.7078
95.8813
95.1622
96.8543
93.0049
94.1582
93.078
94.3943
93.0048
94.1593
93.0778
96.7936
97.104
98.311
99.2848
97.0141
98.0911
97.6026
96.3956
96.1417
96.4811
96.2736
96.3937
96.4433
96.1431
93.2452
94.7649
93.5036
94.4518
93.2366
94.7686
93.495
96.923
97.7113
96.9953
98.2382
97.0077
98.1569
97.0031
96.7928
96.7522
97.0562
97.1637
96.8162
96.7722
97.0079
93.7039
95.9513
93.9545
95.3703
93.6939
96.0678
93.9463
97.0136
97.9221
97.2492
96.1395
97.0861
97.9581
97.3583
97.1146
97.0424
97.2142
96.9534
97.1448
97.0406
97.2105
93.7583
96.9411
94.0452
96.1672
94.1623
96.9529
94.0384
99.564
99.5583
97.6943
97.8103
98.8555
99.0216
98.1651
98.3923
97.7294
100.224
97.6411
98.3338
98.0337
100.47
94.1444
97.6052
94.9335
97.1688
94.1409
97.7284
94.912
101.142
101.125
97.8565
101.744
100.99
103.294
98.5908
97.9751
97.9239
98.4248
98.0674
98.0842
97.921
98.4356
94.7225
97.7271
94.9467
97.6157
94.7774
97.715
95.0404
98.5104
108.326
100.334
98.37
97.1339
98.9411
99.4349
98.7711
98.4649
98.5446
98.6639
98.7548
98.2959
97.5505
95.0183
97.8299
94.6999
97.8928
95.1164
97.8813
94.7594
100.859
106.911
99.0898
99.6621
102.299
111.653
97.0949
98.1458
98.3353
98.509
97.7784
98.1523
98.3327
98.5852
94.9761
97.0965
93.8628
97.9358
94.9554
97.0879
93.8593
96.6355
92.7633
94.6769
99.65
97.0368
91.377
95.0397
95.9112
96.5921
96.4043
98.6122
95.9244
96.6419
97.1045
93.7232
95.5246
93.1536
96.8046
93.7158
95.507
93.1447
95.6523
101.227
96.2455
96.4754
97.5922
99.3253
96.3893
95.7791
95.7792
95.6971
95.7089
95.8148
95.791
95.6944
93.1404
94.4486
92.9946
95.3481
93.1324
94.4712
92.986
93.3918
81.5608
95.5687
92.9926
95.9798
96.8987
94.7102
95.791
95.1604
96.3369
94.7691
95.7961
95.1684
96.2641
93.0052
94.1623
93.0791
94.4163
92.9961
94.1666
93.0713
96.5935
96.2561
95.741
95.5204
95.6677
96.5834
96.2718
96.7362
96.819
96.8686
97.1269
96.8269
96.876
96.7322
96.6968
96.0341
96.7678
96.2117
95.9796
96.7832
96.6833
96.3972
96.3355
96.143
96.4422
96.4437
96.3943
96.1442
96.6018
95.4992
96.2926
95.6337
95.6389
96.6021
96.2843
96.7322
97.0511
96.7487
96.8729
96.7465
96.8759
96.7285
96.7075
96.1678
95.9329
96.8078
95.9466
96.7986
96.7132
96.4767
96.5767
96.5547
96.415
96.5902
96.4649
96.4902
96.9222
97.0788
96.9445
97.0644
97.0826
96.9268
96.9221
96.6979
96.6438
96.7638
96.698
96.6744
96.7672
96.6877
96.7077
96.778
96.7297
97.0006
96.7445
96.8678
96.7126
96.4908
96.3866
96.6108
96.4457
96.5922
96.4558
96.4952
96.9068
97.0743
97.0701
96.9396
97.0712
96.9604
96.9255
96.6954
96.7105
96.6999
96.7624
96.6936
96.7675
96.6918
97.2487
96.9601
97.0791
96.9527
96.9552
97.0892
97.2029
97.0864
97.3356
97.3564
97.4089
97.2451
97.3565
97.0823
97.5013
97.1128
97.3092
97.182
97.116
97.3238
97.7286
97.1625
96.9282
97.0599
97.1718
97.0741
97.159
97.14
97.1595
96.9541
96.9607
97.0803
97.0146
97.0951
97.1235
97.0729
97.3742
97.2549
97.3982
97.2462
97.4284
97.0668
97.3478
97.228
97.1124
97.3066
97.1253
97.3963
97.4092
97.5725
97.3883
97.4464
97.2355
97.2871
97.4561
97.5843
97.7304
100.308
98.2106
98.0639
100.317
97.7605
98.0061
97.4914
97.429
97.6423
97.75
97.4033
97.5623
97.5746
97.6331
97.5282
97.6095
99.4855
97.4713
99.512
98.5019
97.5547
97.3249
97.3126
97.441
97.3642
97.5068
97.6962
97.7296
98.2133
100.475
97.7947
100.43
97.8014
97.7029
97.4896
97.7215
97.3812
97.5702
97.5648
97.5636
97.4842
97.867
97.8212
97.7694
97.7341
97.7066
97.7715
98.0379
98.0369
99.0021
98.4923
99.9505
99.0671
98.4512
98.0745
97.9768
97.881
98.1419
97.7944
97.8519
98.0949
98.044
98.1144
97.9964
97.9528
99.0897
98.0931
99.2656
98.1076
97.8639
97.8331
97.7176
97.761
97.7068
97.8759
97.8778
98.0394
100.222
99.0329
98.3997
98.9251
98.4628
98.0325
97.9776
97.8998
97.8086
98.1011
98.0078
98.0981
97.9745
98.3095
98.192
97.9575
97.9147
98.1634
97.9563
98.3626
98.348
98.6374
98.6058
98.9159
96.6236
98.4002
98.3455
98.1163
98.0002
98.0293
97.8546
98.0008
98.0307
98.1193
98.7449
98.9029
98.4094
99.7546
98.4623
99.7032
98.7333
98.3066
97.9634
98.1726
97.9396
98.2498
97.9993
98.3069
98.4172
100.061
96.952
98.4877
96.9709
98.5214
98.4044
98.152
97.8485
98.0004
98.0044
98.0094
98.0567
98.1044
97.7443
98.1639
97.4515
98.1727
98.0972
97.4356
97.7796
97.2834
97.7068
97.2032
97.0567
97.425
97.1923
97.3872
97.3406
97.4219
97.1037
97.0276
97.4415
97.1041
97.3312
98.1045
97.7925
98.3986
98.7417
98.3944
98.6801
98.0837
97.7636
97.9581
98.2899
97.4286
98.3237
97.4841
97.7614
97.3082
96.8685
97.316
97.1788
97.367
97.1942
97.4132
97.353
97.0246
97.4442
97.0994
97.5
97.1063
97.3301
96.7791
96.7142
96.4265
96.7702
96.6192
96.4442
96.2136
98.7722
95.1237
95.6468
95.2519
95.1179
95.6549
98.8862
95.0182
96.4951
96.0965
96.0362
96.5068
96.8839
95.1691
96.084
96.6655
96.5479
95.9727
96.6308
95.9956
96.1438
96.4553
96.8358
96.6301
96.4242
96.6543
96.4283
96.7927
98.7559
95.3041
95.1716
95.6519
95.1125
95.6429
98.6448
97.9219
96.031
96.4331
96.1156
96.4068
95.2516
98.7081
95.6651
95.8486
95.7141
95.9812
95.8555
95.7459
95.6544
95.5196
99.1339
95.3206
95.4647
97.4698
95.2889
95.58
95.4471
95.5014
95.3791
95.2138
95.5131
95.3899
95.4382
95.688
96.9633
95.7995
96.2097
95.8088
96.0141
95.7137
95.6634
95.9857
95.8459
95.7548
95.849
95.7492
95.6595
95.6136
95.7246
96.8167
95.2927
96.897
95.2734
95.4917
95.4442
95.203
95.535
95.3976
95.5249
95.3941
95.4405
95.697
95.2898
95.5915
95.3092
95.3061
95.4403
95.666
95.5555
95.7558
95.6071
95.6669
95.6831
95.542
95.5907
95.7511
95.6527
95.9771
95.2158
95.5815
95.7033
95.9092
95.8827
99.1723
95.166
98.3479
95.1602
98.3236
95.8798
95.7241
95.2829
95.3029
95.4057
95.317
95.4028
95.7314
95.5391
95.6519
95.5498
95.5963
95.7258
95.536
95.5894
95.7175
95.1912
95.4727
95.9534
95.4861
95.7117
95.924
96.6043
96.298
95.6272
95.4812
96.6031
95.6291
96.2988
96.7292
96.7611
96.8721
97.0093
96.7273
96.7187
96.8764
96.7185
95.9209
96.8105
96.1371
96.7163
95.9202
96.8101
96.3926
96.2575
96.1418
96.4598
96.4527
96.3938
96.142
96.6041
95.4811
96.2986
95.6286
95.6292
96.6005
96.2991
96.7339
97.0601
96.9866
96.889
96.7505
96.8819
96.7409
96.7236
96.1381
95.9162
96.804
95.9173
96.8059
96.7306
96.5009
96.6179
96.4346
96.3738
96.4991
96.6281
96.43
96.9649
97.0672
96.9639
97.0915
96.9347
97.0586
96.9584
96.6913
96.7048
96.7622
96.7197
96.6892
96.7062
96.7653
96.7462
97.1591
96.7542
97.0458
96.7637
97.0312
96.7659
96.4962
96.3634
96.6428
96.4454
96.6372
96.4346
96.4915
96.9548
97.0802
97.0527
96.9707
97.0563
96.9695
96.9691
96.6912
96.7203
96.7068
96.761
96.7073
96.7666
96.6906
97.0944
96.9686
97.0769
96.9526
97.1321
96.9481
97.073
97.0483
97.2178
97.3531
97.3583
97.0529
97.179
97.3597
97.3674
97.1057
97.3068
97.1798
97.4845
97.1016
97.2912
97.1561
96.912
97.0314
97.1944
97.0468
97.1791
97.1347
97.1767
96.952
96.8856
97.0641
96.9477
97.0734
97.0843
97.0553
97.3589
97.1592
97.3743
97.167
97.3675
97.023
97.4644
97.2835
97.0931
97.3248
97.1093
97.3064
97.4878
97.5651
97.3047
97.4417
97.1837
97.5914
97.3066
97.4572
97.9095
104.776
97.7966
98.1238
97.6649
105.079
97.9107
97.4847
97.4217
97.6074
97.593
97.4821
97.3942
97.5488
98.2332
97.6942
98.1579
100.159
98.2231
99.9
98.3118
97.6117
97.2578
97.3156
97.4309
97.3062
97.4427
97.6293
97.6362
98.191
96.7738
97.8384
99.1191
97.8973
97.585
97.4914
97.7211
97.4263
97.5597
97.3924
97.6218
97.5866
97.8951
97.7214
97.7848
97.7039
97.8812
97.7215
97.7215
98.0512
98.7682
98.2849
99.9613
98.0253
98.5196
98.3787
97.994
97.8312
98.1039
97.7423
97.9715
97.8186
98.1137
98.0898
98.1335
97.8113
98.4968
97.9901
98.6326
98.0908
97.8976
97.7128
97.7386
97.7267
97.7271
97.7413
97.9034
98.0845
102.377
98.4787
98.3648
98.2873
98.3162
98.0932
97.9713
97.7193
97.8019
98.1512
97.8343
98.1181
97.9771
98.2998
98.1422
97.9686
97.9019
98.307
98.141
97.9332
98.4439
96.8279
98.4343
99.1199
98.4267
110.545
98.4676
98.0906
98.0071
98.0156
97.8839
98.0855
97.9926
98.0124
98.7387
98.8432
98.3088
101.263
98.3201
99.8458
98.7408
98.295
97.9014
98.1676
97.942
98.146
97.9573
98.2824
98.5443
99.1001
103.914
98.3167
103.387
98.6411
98.4917
98.1399
97.8594
97.9937
98.0222
97.9998
98.0145
98.2162
97.75
98.1693
97.4422
97.9023
97.7564
98.1237
97.4523
97.2971
97.5193
97.1844
97.6506
97.3361
97.3147
97.1983
97.3199
97.4561
97.1142
96.9736
97.3574
97.4195
97.1104
98.1713
97.6648
98.347
98.5171
98.3786
98.3033
98.169
97.7805
97.8325
98.0952
97.4378
98.3413
97.4447
97.7749
97.276
98.8478
97.3821
97.1893
97.2542
97.1947
97.3397
97.3421
96.9948
97.3928
97.1191
97.459
97.1112
97.3097
95.7752
96.6348
96.4115
96.757
96.8271
96.6202
96.4265
98.0884
95.0694
95.5794
95.2922
98.6109
95.6241
95.7875
99.4001
96.4313
96.1132
96.0313
96.2781
96.337
95.5098
95.9684
96.4694
96.5423
96.1342
96.552
96.1252
95.9518
95.7398
96.7576
96.6235
96.4302
96.611
96.4225
97.0005
98.5194
95.1912
94.793
95.755
96.0654
95.4463
96.3977
98.4038
96.0356
96.3392
97.0828
96.3339
95.5453
98.7991
95.6677
95.8488
95.7593
95.9995
95.6609
95.8542
95.7596
95.492
96.6458
95.3071
95.1616
95.5962
96.6673
95.3081
95.443
95.54
95.3994
95.194
95.441
95.537
95.3978
95.7542
95.726
95.8
95.6934
95.7971
95.6784
95.7715
95.6721
96.0023
95.8695
95.7534
95.8624
95.7595
95.6741
95.5112
95.1298
96.1896
95.2625
96.1649
95.2716
95.5965
95.4429
95.1983
95.5316
95.395
95.533
95.3955
95.4422
95.6999
95.305
95.4373
95.2621
95.7413
95.3037
95.3972
95.5494
95.6322
95.5916
95.656
95.5536
95.4423
95.593
95.7683
95.5354
95.9626
95.1417
95.7677
95.5641
95.9607
95.8236
94.7338
95.1558
96.4658
95.1593
96.659
95.8058
95.7017
95.272
95.3133
95.4218
95.3114
95.3837
95.7038
95.5378
95.6326
95.4468
95.6047
95.3775
95.5342
95.5992
95.695
95.1476
95.4842
95.9659
95.4976
95.6948
95.9586
96.5969
96.293
95.6371
95.5012
96.5967
95.641
96.2876
96.7504
96.751
96.8996
97.0801
96.7447
96.7665
96.9117
96.7235
95.929
96.8052
96.1713
96.729
95.9457
96.7993
96.3986
96.2709
96.1397
96.5118
96.46
96.3903
96.1452
96.5913
95.525
96.2624
95.7436
95.6691
96.5818
96.2773
96.7538
97.0504
96.695
96.9009
96.8088
96.9117
96.7453
96.7097
96.2129
96.0302
96.7717
95.9774
96.7876
96.6919
96.4774
96.6331
96.4558
96.4071
96.4887
96.6147
96.4383
96.9929
97.0505
96.9729
97.0607
97.0081
97.0437
96.9768
96.6982
96.7029
96.7591
96.7074
96.6924
96.6917
96.7634
96.8094
97.1664
96.7977
97.2858
96.7962
97.0008
96.818
96.4711
96.4549
96.5814
96.5718
96.6091
96.4437
96.5131
97.0417
97.065
97.0667
96.9684
97.0393
96.9708
97.0438
96.7018
96.6995
96.6408
96.7669
96.6691
96.7684
96.6947
97.1625
96.8996
97.0722
96.9447
97.0531
96.8866
97.0676
96.9735
97.1533
97.357
97.3886
97.0112
97.1478
97.347
97.4613
97.0999
97.3449
97.1947
97.5416
97.1077
97.3108
97.1276
96.9441
97.08
97.2078
97.0389
97.2095
97.2073
97.2308
96.9418
96.9602
97.062
96.8938
97.0688
97.1674
96.9545
97.3805
97.171
97.3467
97.1587
97.3445
97.0216
97.484
97.1913
97.1177
97.333
97.1146
97.3146
97.4852
97.6559
97.3022
97.4691
97.2385
97.65
97.491
97.437
97.5466
97.2045
97.833
98.3565
97.5594
93.4051
97.8592
97.5057
97.448
97.5768
97.6006
97.5416
97.4023
97.5746
98.4659
97.6457
97.9509
100.603
97.964
100.585
98.5209
98.0928
97.2357
97.4861
97.5536
97.4237
97.6384
97.8829
97.7205
98.2168
93.5805
97.8996
93.2074
97.9169
97.7482
97.5038
97.6535
97.4079
97.5958
97.415
97.5815
97.5125
97.9175
97.7319
97.7371
97.7046
97.9051
97.7276
97.7302
98.121
98.5005
98.3362
99.85
98.0925
98.4339
98.3116
97.9671
97.8413
98.1347
97.7669
97.9738
97.8149
98.1551
97.9723
98.0979
97.9111
99.0634
97.8311
98.9964
98.014
97.9185
97.7014
97.7356
97.7553
97.7319
97.7272
97.9877
98.0839
99.9206
103.303
98.5138
98.9388
98.3184
98.0722
97.9739
97.768
97.8704
98.1524
97.8154
98.1437
97.9666
98.2971
98.1566
97.9683
97.911
98.2949
98.1438
97.9335
98.536
102.638
98.2649
99.4417
98.5194
102.67
98.2832
98.2162
98.0187
98.0117
97.9065
98.1657
98.0124
98.0135
98.7742
98.6592
98.3075
98.833
98.2871
98.5139
98.8589
98.2817
97.9249
98.156
97.9752
98.1403
97.9344
98.2776
98.5412
99.3757
101.527
98.3564
101.579
98.3075
98.5535
98.2444
97.86
98.0182
98.0427
98.0215
98.0196
98.2471
97.7674
98.0983
97.4578
97.8031
97.7951
97.9418
97.4464
97.3444
97.3259
97.1875
97.2986
97.3168
97.2312
97.1579
97.3123
97.4342
97.1322
97.0129
97.3111
97.3824
97.1343
98.1947
97.8472
98.3278
98.7697
98.3218
98.3639
98.1683
97.8058
98.2145
97.9566
97.4594
97.9758
97.4465
97.8302
97.3936
97.261
97.3387
97.2011
97.3934
97.144
97.5166
97.3157
96.9949
97.418
97.1406
97.3831
97.1299
97.3293
96.9825
96.6258
96.4308
96.7656
96.3774
96.61
96.4279
94.7763
95.0668
95.5825
95.5068
94.654
95.0018
95.8125
95.7444
96.3431
96.2673
96.0432
98.6428
96.3532
96.0207
96.2688
95.4466
96.571