/*--------------------------------*- C++ -*----------------------------------*\
| =========                 |                                                 |
| \\      /  F ield         | OpenFOAM: The Open Source CFD Toolbox           |
|  \\    /   O peration     | Version:  5.0                                   |
|   \\  /    A nd           | Web:      www.OpenFOAM.org                      |
|    \\/     M anipulation  |                                                 |
\*---------------------------------------------------------------------------*/
FoamFile
{
    version     2.0;
    format      ascii;
    class       surfaceScalarField;
    location    "2.4";
    object      phi;
}
// * * * * * * * * * * * * * * * * * * * * * * * * * * * * * * * * * * * * * //

dimensions      [0 3 -1 0 0 0 0];

internalField   nonuniform List<scalar> 
25861
(
5.12024e-10
-5.03362e-10
5.14765e-09
-6.85555e-10
-1.85678e-09
-5.10259e-09
7.36278e-09
5.2041e-09
2.81537e-09
-7.90832e-09
-1.56877e-09
-7.78651e-10
2.09851e-10
-3.83197e-10
1.0355e-08
-1.55528e-09
-7.94905e-10
1.3258e-09
4.23115e-10
1.66784e-10
1.14885e-11
-1.547e-10
-2.30822e-10
-3.88244e-11
1.85228e-10
-1.28268e-11
3.34463e-11
-3.76489e-11
-6.45102e-11
-6.66462e-11
1.35373e-09
-3.34859e-11
-2.74452e-11
-2.38899e-10
-2.42434e-10
-4.02016e-10
-4.0776e-10
1.35703e-09
-2.4536e-12
-9.87372e-13
1.36391e-09
-5.76093e-12
4.86638e-13
1.36697e-09
-2.57171e-12
-7.48485e-17
1.37009e-09
-1.61755e-12
-5.84098e-14
1.37256e-09
-8.98384e-13
9.54304e-14
1.37222e-09
-9.38046e-13
-3.20918e-13
1.37282e-09
-5.10917e-13
8.66322e-14
1.37308e-09
1.19901e-12
-6.99275e-13
1.37352e-09
-2.38209e-13
2.3758e-15
1.37384e-09
-3.71602e-13
3.86922e-13
1.37318e-09
9.27536e-13
-5.37904e-13
1.3732e-09
-1.58686e-13
8.74176e-14
1.37302e-09
-2.48164e-14
3.76183e-14
1.37288e-09
2.41359e-13
-3.56993e-13
1.3726e-09
-8.86497e-13
1.00161e-12
1.37209e-09
5.30863e-14
3.91309e-13
1.37208e-09
-1.22251e-12
9.1553e-13
1.3731e-09
-3.11225e-12
7.51081e-13
1.37257e-09
7.95844e-13
-4.28808e-13
1.3723e-09
1.3365e-13
1.15392e-13
1.37132e-09
1.45249e-12
-3.03859e-12
1.37178e-09
-2.75296e-13
-7.28566e-13
1.37074e-09
-1.09139e-12
3.95429e-12
1.37083e-09
-1.04384e-12
2.91071e-12
1.37059e-09
-4.19635e-13
2.0846e-13
1.37096e-09
-2.14433e-14
-1.9622e-13
1.37064e-09
-7.37236e-14
-2.65077e-13
1.37003e-09
-9.09643e-14
1.14925e-12
1.36934e-09
2.00055e-13
7.46699e-13
1.36899e-09
7.12013e-13
-6.10296e-13
1.37086e-09
-3.51319e-12
1.05932e-12
1.36995e-09
4.54305e-13
1.88374e-13
1.36953e-09
1.5033e-14
3.50725e-13
1.36963e-09
-8.16296e-14
-4.50689e-13
1.37058e-09
2.43434e-12
-5.89817e-13
1.36892e-09
3.21059e-12
-1.60781e-12
1.36908e-09
-4.66332e-13
-7.35864e-16
1.36917e-09
6.76656e-15
-2.07683e-13
1.36903e-09
4.81501e-14
4.26521e-14
1.36897e-09
-3.26852e-14
1.31203e-13
1.36853e-09
-3.80114e-13
5.9176e-13
1.25509e-12
-1.15757e-12
1.78469e-08
1.4173e-09
1.86827e-09
1.61665e-09
2.66915e-09
1.95587e-09
3.16292e-09
-2.43035e-08
-3.02164e-09
-1.82434e-09
5.45214e-09
-7.08839e-09
3.46078e-08
-1.223e-08
-2.92612e-08
3.09042e-08
-6.53435e-10
-1.20806e-09
-9.83822e-10
-1.69229e-09
8.94844e-09
-1.20106e-10
-3.99605e-09
-9.0083e-10
1.43464e-10
-1.26596e-09
2.64318e-09
9.20134e-10
9.75749e-10
8.23672e-09
9.9501e-11
-1.58325e-09
2.80556e-10
-3.3666e-12
1.18096e-10
-1.3435e-10
3.8639e-11
-2.31258e-09
-1.66434e-09
-6.68024e-10
5.56505e-09
-4.70601e-11
5.4867e-11
-2.61819e-11
3.95699e-11
-2.11946e-11
-4.71793e-11
2.01515e-12
-9.54703e-13
1.88369e-11
2.72819e-11
1.38293e-09
-5.03141e-12
-3.31357e-11
-2.50313e-10
-2.47287e-10
-4.27617e-10
-4.18247e-10
-1.07583e-11
-6.77723e-12
-1.72783e-11
1.36702e-09
1.50354e-11
-1.65012e-12
1.36918e-09
-7.61892e-12
-3.58257e-13
1.36992e-09
-3.33843e-12
-5.08793e-14
1.3713e-09
-3.06817e-12
-8.63726e-15
1.37228e-09
-1.98682e-12
3.888e-14
1.37277e-09
-1.50748e-12
-1.07577e-14
1.37311e-09
-9.4677e-13
1.61587e-14
1.37321e-09
-4.35309e-14
1.04007e-12
1.37324e-09
-2.1535e-13
-1.53746e-13
1.37352e-09
-7.3123e-13
-3.28906e-14
1.37392e-09
2.16383e-12
-1.76472e-12
1.37346e-09
1.47953e-13
2.34336e-14
1.37318e-09
3.80886e-13
-2.69936e-13
1.37272e-09
6.88437e-14
4.8225e-13
1.37318e-09
1.13912e-12
-2.63825e-12
1.37352e-09
7.32183e-13
-1.17642e-12
1.37334e-09
-1.6756e-13
-1.04038e-12
1.37112e-09
-3.67465e-13
-6.86215e-13
1.3718e-09
-2.01089e-13
1.57943e-13
1.3716e-09
1.4545e-13
1.84992e-14
1.37121e-09
-4.1873e-13
2.10124e-12
1.37052e-09
-3.31422e-13
5.88397e-13
1.37084e-09
2.56338e-13
-1.83055e-12
1.37081e-09
5.06158e-13
-1.67478e-12
1.37144e-09
-3.15993e-12
1.9588e-12
1.37133e-09
-2.37335e-12
2.31771e-12
1.37076e-09
3.27562e-13
2.26602e-14
1.37061e-09
-5.43653e-14
-2.07292e-14
1.37067e-09
1.43561e-13
-1.41507e-13
1.37064e-09
1.10372e-13
5.11515e-13
1.36865e-09
-9.7928e-13
-6.73632e-13
1.36914e-09
2.6938e-13
-4.14777e-13
1.36908e-09
-7.22096e-14
4.27522e-14
1.36833e-09
7.31806e-13
-1.57189e-13
1.36911e-09
8.948e-13
6.67012e-13
1.37049e-09
1.23457e-13
1.62858e-12
1.36934e-09
2.81406e-13
3.37828e-13
1.36922e-09
-1.24497e-13
1.96833e-13
1.36917e-09
3.36247e-14
2.08777e-14
1.36907e-09
1.96175e-13
-1.68687e-13
1.36886e-09
-3.02592e-13
1.12927e-13
-2.85739e-13
1.20074e-12
-8.93703e-09
2.32097e-09
3.25328e-09
1.72553e-09
2.43826e-09
2.00519e-09
1.57705e-08
-9.73631e-10
-1.86762e-08
-3.94389e-09
3.61447e-10
-8.56376e-09
-2.85473e-09
-4.15802e-10
-1.32497e-08
-5.10532e-10
-6.05854e-10
-5.16825e-10
2.01977e-08
1.24353e-09
1.23625e-08
-6.87905e-10
4.51274e-10
-4.21572e-10
-1.61847e-09
1.76842e-09
-1.05233e-09
-6.85397e-10
7.98825e-10
-4.31879e-10
2.18658e-09
1.87305e-09
2.10356e-09
-6.8511e-09
-3.54468e-11
-6.98648e-11
-6.57284e-11
6.64158e-11
1.04624e-10
-1.16e-10
1.66151e-11
5.62533e-13
3.65483e-11
6.22739e-11
-1.89475e-10
1.93616e-10
-7.49866e-12
-1.67899e-12
1.35016e-09
-2.09072e-11
-2.19339e-11
-2.41633e-10
-2.46802e-10
-3.97185e-10
-4.06686e-10
1.36321e-09
-1.889e-11
-1.83801e-12
1.36851e-09
-9.40945e-12
7.08646e-13
1.37179e-09
-6.43262e-12
1.82236e-14
1.37311e-09
-3.42223e-12
3.86582e-14
1.37355e-09
-2.05076e-12
2.44688e-14
1.37366e-09
-1.19372e-12
4.56585e-14
1.37451e-09
-1.01904e-12
3.3886e-14
1.37424e-09
-4.29984e-13
3.7983e-13
1.37357e-09
4.3457e-14
-2.14667e-13
1.37302e-09
6.18512e-13
1.97186e-12
1.37337e-09
-4.36871e-13
9.8764e-14
1.37345e-09
1.19904e-13
3.49574e-14
1.37393e-09
-4.63994e-13
-9.61048e-14
1.37265e-09
-1.10715e-12
3.37541e-12
1.37231e-09
1.03291e-13
8.07313e-13
1.37206e-09
1.1089e-12
-1.19016e-12
1.37183e-09
-2.48546e-13
-4.76136e-14
1.3712e-09
-1.16251e-13
3.87517e-13
1.37106e-09
-2.19186e-13
3.37402e-13
1.3714e-09
2.78291e-13
-1.19891e-12
1.37199e-09
7.18949e-13
-1.79656e-12
1.3716e-09
4.40764e-13
4.35501e-14
1.37229e-09
6.14551e-13
-9.48878e-13
1.37077e-09
1.51593e-14
-1.81158e-12
1.37044e-09
1.36395e-13
-2.32963e-12
1.37045e-09
2.7787e-13
-9.51371e-14
1.37033e-09
-1.54222e-13
7.62108e-14
1.37031e-09
5.7575e-14
-2.42592e-14
1.36998e-09
5.30276e-14
2.54198e-13
1.36945e-09
-2.52332e-13
-3.16595e-13
1.36923e-09
1.16953e-12
-7.866e-13
1.36886e-09
1.83092e-13
3.95926e-15
1.36875e-09
-1.74837e-13
9.19696e-13
1.36876e-09
6.09023e-13
1.87737e-13
1.3702e-09
-1.41917e-12
3.21113e-14
1.36992e-09
4.68892e-13
2.2881e-14
1.36939e-09
2.55994e-13
9.19079e-14
1.3691e-09
3.79559e-13
-9.87263e-14
1.36861e-09
5.35537e-13
1.12764e-13
1.3687e-09
3.74585e-13
-7.9142e-13
-1.84792e-12
7.87208e-13
1.9013e-09
1.44029e-09
1.10248e-10
-5.09865e-11
-4.65336e-10
-4.23582e-10
4.12271e-09
1.00272e-09
-4.32305e-09
-1.77602e-09
1.15349e-09
-6.25577e-10
7.87728e-10
-1.73145e-09
-2.96593e-09
2.50118e-09
3.92846e-10
5.23177e-10
-1.8416e-09
-1.42294e-09
-7.10706e-10
5.13862e-09
-1.16337e-09
1.57272e-10
3.2913e-11
4.93713e-11
-1.83936e-10
-5.56212e-11
-2.05088e-11
-1.19627e-11
1.96528e-12
-5e-11
8.05063e-11
-3.36239e-11
2.02957e-10
-1.08346e-11
-4.83637e-12
-3.6018e-11
-6.29447e-11
-6.80573e-11
1.33583e-11
1.38765e-09
-7.46665e-12
-2.72794e-11
-2.55376e-10
-2.62336e-10
-4.20027e-10
-4.3609e-10
1.3822e-09
-1.05345e-11
-2.96041e-12
1.37858e-09
-6.12255e-12
2.62986e-13
1.37588e-09
-3.43874e-12
-3.59113e-13
1.37527e-09
-2.89557e-12
1.69556e-14
1.37485e-09
-1.71652e-12
1.66322e-15
1.37446e-09
-9.07229e-13
1.52769e-14
1.37392e-09
-5.77648e-13
6.47411e-15
1.37404e-09
-5.76922e-13
-7.2872e-14
1.37373e-09
-2.46124e-14
2.7092e-13
1.374e-09
5.16126e-14
1.74444e-13
1.37356e-09
-1.96924e-13
6.41491e-14
1.37342e-09
-1.78727e-13
2.94886e-13
1.37294e-09
-1.05454e-13
-3.39125e-14
1.37293e-09
-2.7138e-13
-9.81669e-13
1.37298e-09
6.49628e-14
-1.60314e-13
1.37287e-09
-1.72638e-13
1.22862e-12
1.37193e-09
1.93317e-12
-1.40648e-12
1.37178e-09
-1.9552e-13
6.52947e-14
1.3718e-09
7.55349e-13
-1.15363e-12
1.37222e-09
1.24452e-12
-1.55021e-12
1.37131e-09
-2.40681e-14
1.49529e-12
1.37107e-09
5.69347e-13
-5.22929e-14
1.37092e-09
6.04971e-13
1.35827e-14
1.37074e-09
-8.49141e-14
1.23298e-13
1.37067e-09
8.572e-14
-2.20322e-14
1.37071e-09
-3.3759e-13
4.2633e-13
1.37038e-09
-7.00708e-14
1.04157e-13
1.37025e-09
1.42696e-13
-8.2097e-14
1.37008e-09
2.31921e-13
-1.35328e-13
1.36959e-09
-3.79162e-13
4.88826e-13
1.36938e-09
-5.72707e-13
1.84404e-12
1.36951e-09
-2.24974e-13
1.72445e-13
1.36944e-09
1.63625e-13
-3.64441e-13
1.36955e-09
6.10707e-13
-1.94408e-13
1.36875e-09
-1.17733e-12
4.75776e-13
1.36937e-09
-2.84244e-13
7.15554e-14
1.36948e-09
1.54421e-13
-7.0162e-14
1.36952e-09
1.64488e-12
-1.34698e-12
1.36832e-09
1.71978e-12
-2.14463e-14
1.3686e-09
5.19684e-14
1.59583e-14
-2.01408e-12
4.40139e-13
4.97343e-10
9.0659e-10
1.32758e-10
-1.51173e-09
2.88948e-10
4.61829e-09
1.3041e-09
-3.08976e-09
-1.33427e-09
-8.66394e-10
-7.23784e-10
-1.97134e-10
1.41307e-09
-1.24909e-09
-7.70273e-09
1.68532e-10
6.31064e-09
4.79395e-09
-1.77732e-10
-5.17219e-10
3.37705e-10
4.44203e-10
-1.51903e-09
-9.39419e-10
-1.00167e-09
-3.61135e-10
-1.0199e-09
3.17682e-09
1.2622e-09
1.89899e-11
3.57912e-09
7.78877e-09
-8.81805e-09
-7.11186e-09
1.04432e-09
1.51382e-11
6.50069e-11
4.7473e-10
-1.22998e-09
9.56845e-10
-1.12842e-09
9.2683e-10
2.36486e-10
-1.14422e-09
2.28503e-10
-8.03338e-11
7.59567e-10
-8.15755e-11
-1.35361e-11
-2.94494e-11
2.54296e-12
1.22018e-10
-4.0718e-11
2.02903e-10
2.64421e-12
3.07147e-11
-4.01706e-11
-7.38626e-11
-7.09205e-11
-1.05903e-11
1.38596e-09
-1.2364e-11
-2.003e-11
-2.59196e-10
-2.60374e-10
-4.19499e-10
-4.21987e-10
1.38348e-09
-5.04876e-12
-3.08736e-12
1.38036e-09
-3.78317e-12
7.05948e-13
1.37785e-09
-1.23367e-12
2.3286e-13
1.37743e-09
-3.14254e-12
5.91868e-13
1.37659e-09
-9.70455e-13
1.84995e-14
1.37498e-09
1.28996e-12
-6.68635e-13
1.37448e-09
-9.40002e-13
7.71393e-13
1.37406e-09
-2.38934e-13
-1.26775e-14
1.37374e-09
1.04374e-13
8.67591e-14
1.37369e-09
-2.46164e-13
2.20629e-13
1.37366e-09
2.44691e-13
-5.44514e-13
1.37322e-09
1.8995e-13
-6.91927e-14
1.37332e-09
-7.53383e-13
3.91187e-13
1.37326e-09
1.99035e-13
-5.609e-13
1.37294e-09
-1.87653e-13
4.06868e-13
1.37268e-09
-5.73058e-13
5.06462e-13
1.37257e-09
-3.55979e-13
2.23762e-12
1.37232e-09
8.87086e-14
-2.02575e-13
1.37187e-09
3.54682e-15
1.03776e-12
1.3708e-09
3.25592e-13
1.83043e-12
1.37173e-09
-1.98635e-12
8.70305e-13
1.37176e-09
3.23064e-13
5.97763e-14
1.37067e-09
1.63316e-12
-9.51929e-14
1.37069e-09
2.35193e-13
-4.88534e-13
1.37056e-09
-9.92136e-15
8.22053e-14
1.37035e-09
-4.56966e-14
-2.27363e-13
1.37016e-09
2.02468e-14
-3.95569e-14
1.36997e-09
2.94945e-13
-9.1917e-14
1.36956e-09
3.90659e-13
1.22088e-13
1.36963e-09
-2.13766e-13
-3.60435e-13
1.36981e-09
-9.55225e-14
-7.66966e-13
1.36953e-09
3.4157e-13
-3.90243e-13
1.36963e-09
5.59628e-13
-5.92361e-13
1.36976e-09
3.05844e-13
8.66579e-14
1.36883e-09
4.5265e-15
-3.3504e-13
1.3693e-09
-5.04712e-13
-3.16598e-13
1.36961e-09
-2.08189e-13
-2.71026e-16
1.36955e-09
-1.31406e-12
2.96915e-12
1.36834e-09
3.03814e-12
-1.36475e-13
1.3686e-09
-8.07267e-13
5.72057e-13
-1.78677e-13
-9.23544e-13
-3.42313e-10
2.35836e-09
-2.33857e-09
3.47487e-10
-9.08655e-10
1.4922e-09
7.44074e-09
4.89809e-10
8.72253e-10
-1.00513e-10
1.0143e-10
-2.7343e-09
-1.9853e-09
-1.90721e-09
-2.17682e-09
-3.35185e-10
-4.61552e-10
2.13114e-10
-1.44263e-10
8.07926e-10
-1.81789e-10
-9.76267e-10
4.94393e-10
1.16325e-09
-6.35052e-10
-5.42055e-11
2.56083e-10
-7.30074e-10
-7.52341e-10
-6.19039e-10
2.3479e-09
2.25529e-10
1.71431e-09
4.01274e-10
-8.89262e-10
-2.42837e-09
2.70646e-10
-8.60965e-10
4.98504e-10
-4.20196e-10
5.12011e-10
-1.44952e-10
7.0637e-11
-2.77082e-11
-2.46677e-11
1.26691e-10
-4.54988e-11
2.08392e-10
-8.40962e-12
4.16657e-11
1.9055e-12
-4.48601e-11
-7.62727e-11
-7.69221e-11
1.39589e-09
-5.19919e-12
-2.01123e-11
-2.63256e-10
-2.63826e-10
-4.25546e-10
-4.30352e-10
1.38987e-09
4.29881e-12
-3.42885e-12
1.38351e-09
1.81989e-12
6.66234e-13
1.3808e-09
1.64521e-12
-2.39693e-13
1.37742e-09
7.15612e-13
-5.56306e-13
1.37581e-09
5.66389e-13
-1.74361e-15
1.37573e-09
5.8209e-13
7.07146e-13
1.37516e-09
2.92487e-13
-7.44377e-13
1.37461e-09
1.6725e-13
5.51695e-14
1.37433e-09
1.23922e-12
-9.62748e-13
1.3741e-09
2.57505e-14
-1.62178e-13
1.37333e-09
2.22712e-13
6.51112e-13
1.37372e-09
5.1576e-13
-8.62816e-13
1.37301e-09
4.98192e-14
-2.41337e-13
1.37304e-09
1.57088e-13
-1.44034e-13
1.37245e-09
5.65515e-13
-3.22046e-13
1.37168e-09
-1.95836e-13
2.29874e-13
1.37315e-09
1.24184e-12
-3.22369e-12
1.37278e-09
1.619e-14
2.75712e-13
1.37263e-09
-6.05766e-15
-3.35707e-15
1.37288e-09
-1.16132e-13
3.20749e-14
1.37023e-09
4.41689e-12
-3.91231e-12
1.37022e-09
-1.09038e-12
1.26102e-12
1.37107e-09
3.94595e-14
5.90113e-13
1.37085e-09
8.44868e-14
2.154e-13
1.37057e-09
1.37663e-13
-5.94577e-15
1.37021e-09
7.1271e-13
-5.44084e-13
1.37005e-09
-2.37646e-15
3.94968e-14
1.3699e-09
2.01e-14
2.93685e-13
1.36998e-09
1.12688e-13
6.65936e-14
1.36971e-09
-5.18727e-13
4.57892e-13
1.37008e-09
-7.77368e-13
1.99261e-13
1.36968e-09
2.49574e-13
3.88193e-13
1.36942e-09
5.21269e-13
1.9795e-13
1.36932e-09
3.5225e-13
-2.86773e-14
1.36883e-09
3.82206e-13
3.84949e-14
1.36843e-09
-2.9207e-14
-1.47768e-13
1.36828e-09
-9.5151e-14
-2.37445e-14
1.36834e-09
1.42957e-12
-2.84465e-12
1.37006e-09
1.09234e-12
1.90132e-13
1.36987e-09
-4.60936e-13
-1.82231e-13
-8.31913e-13
1.93493e-12
-1.18215e-09
1.21312e-09
-3.22466e-09
4.89111e-09
-4.09747e-10
-1.62951e-09
5.32811e-10
4.13033e-09
-5.238e-10
-2.44866e-09
-7.33835e-11
-1.08449e-09
-2.98753e-09
9.56896e-09
2.36542e-09
-1.06617e-08
1.71487e-09
-4.34118e-09
-2.19787e-09
-5.18041e-09
1.10137e-08
7.05743e-10
-3.82979e-09
8.3979e-09
6.11639e-09
-9.77566e-09
-9.08852e-10
-5.68571e-10
-5.60276e-10
-1.03169e-10
4.14181e-11
1.1906e-09
-1.61918e-10
9.84584e-12
2.93136e-11
-1.54897e-10
2.77655e-10
-4.59862e-11
1.31952e-11
2.08646e-10
1.40752e-11
1.69406e-11
-4.07382e-11
-8.98714e-11
-7.62609e-11
1.4068e-09
2.88944e-11
-2.67891e-11
-2.70941e-10
-2.60265e-10
-4.51907e-10
-4.31042e-10
1.39331e-09
2.0659e-11
-2.97278e-12
1.38428e-09
1.04641e-11
2.98796e-13
1.38005e-09
5.94871e-12
-1.52474e-13
1.3775e-09
3.21111e-12
-8.74432e-15
1.37615e-09
1.83734e-12
3.55904e-16
1.37529e-09
1.5785e-12
-2.21245e-13
1.37483e-09
6.65383e-13
6.93134e-15
1.37439e-09
4.88807e-13
2.61621e-14
1.37399e-09
3.07042e-13
1.22698e-12
1.3741e-09
-2.30427e-13
2.56085e-14
1.37401e-09
4.17476e-13
-2.4636e-13
1.37326e-09
2.84255e-14
1.09065e-12
1.37314e-09
-9.62608e-16
2.4139e-14
1.37287e-09
1.46652e-13
1.20793e-13
1.37291e-09
3.63417e-15
3.68462e-13
1.37297e-09
2.10053e-13
-6.25921e-13
1.37185e-09
-4.80577e-13
2.67716e-12
1.37193e-09
-1.76235e-13
-5.26183e-14
1.37194e-09
-3.36462e-13
1.56645e-13
1.37043e-09
3.16458e-12
-1.92635e-12
1.37167e-09
1.98379e-13
2.81787e-12
1.37166e-09
-2.75504e-13
-9.60782e-13
1.3711e-09
-9.04272e-14
5.29051e-13
1.37082e-09
9.99887e-14
1.13864e-13
1.37064e-09
-9.0588e-15
1.78678e-13
1.37063e-09
-5.51151e-14
6.30623e-13
1.3704e-09
9.86942e-14
-7.60545e-16
1.37034e-09
-1.01272e-13
4.39348e-14
1.36987e-09
-4.79512e-13
9.34736e-13
1.36971e-09
-1.08055e-13
-3.7323e-13
1.36995e-09
-1.49769e-12
3.67163e-13
1.37025e-09
-9.72475e-14
-5.53458e-14
1.36903e-09
1.42869e-12
2.15689e-13
1.36887e-09
-5.41874e-13
9.71641e-13
1.3686e-09
4.21578e-13
1.49845e-13
1.36857e-09
-2.59975e-13
1.88307e-13
1.36837e-09
2.8336e-14
1.92232e-14
1.36879e-09
-7.11525e-13
1.67847e-12
1.36914e-09
6.38539e-13
6.98862e-14
1.36939e-09
-2.00294e-13
-5.31629e-13
-2.11463e-13
-1.41615e-12
-5.61122e-09
3.97256e-09
4.36524e-09
-2.53561e-09
1.60581e-09
-4.13924e-09
3.18753e-09
-9.88972e-09
9.23562e-09
-3.05282e-09
6.16891e-09
-5.86098e-09
-6.54138e-10
3.39902e-09
5.16711e-09
3.00637e-09
1.88342e-09
-1.24658e-08
2.40898e-09
1.81788e-09
9.43802e-10
-4.35479e-09
8.12958e-09
-1.65771e-09
-2.82776e-09
-2.77286e-10
-1.77367e-09
6.65532e-10
-4.28617e-11
4.17777e-11
-1.97654e-10
-4.66795e-10
-5.38383e-11
5.91735e-12
-1.50501e-11
-3.60958e-11
9.90668e-11
-3.37697e-11
-1.8889e-11
1.82183e-10
1.28584e-11
1.20505e-11
-3.30079e-11
-6.16969e-11
-5.97283e-11
1.3616e-09
-1.681e-12
-2.14894e-11
-2.50375e-10
-2.42848e-10
-4.14543e-10
-4.01808e-10
1.37047e-09
1.35867e-11
-1.87687e-12
1.37372e-09
6.44734e-12
6.92828e-13
1.37487e-09
4.79307e-12
-5.98401e-14
1.37473e-09
3.2667e-12
1.02152e-14
1.37447e-09
1.99982e-12
1.76214e-14
1.37486e-09
1.27691e-12
-1.7223e-13
1.37471e-09
6.97595e-13
3.0778e-14
1.37428e-09
1.12017e-12
-2.95612e-13
1.37426e-09
5.2792e-13
-3.04618e-13
1.37326e-09
5.40612e-13
1.02966e-13
1.3736e-09
-3.09987e-13
2.50485e-13
1.37346e-09
8.10695e-14
-5.29303e-14
1.37315e-09
1.22479e-13
3.32592e-14
1.37289e-09
-4.68073e-13
7.19389e-13
1.37283e-09
-1.61523e-13
6.22536e-14
1.37218e-09
-7.3442e-14
7.72797e-13
1.37208e-09
-4.04879e-13
-1.37292e-13
1.37153e-09
4.80502e-14
1.70509e-13
1.37115e-09
6.83542e-14
-1.86607e-13
1.3718e-09
2.95231e-13
2.04877e-12
1.37138e-09
6.62346e-13
-1.94951e-13
1.37218e-09
-3.46467e-12
2.22364e-12
1.37173e-09
2.56605e-13
-4.53609e-14
1.37068e-09
1.19627e-12
-2.05081e-13
1.37048e-09
-3.50253e-14
7.9345e-14
1.37046e-09
-1.25674e-13
-5.53313e-14
1.37027e-09
6.91988e-13
-5.41277e-13
1.36997e-09
-2.4588e-13
3.16082e-13
1.37014e-09
5.00087e-13
-1.27476e-12
1.37017e-09
-2.31125e-13
-3.3546e-14
1.36946e-09
-3.74958e-13
-5.21938e-13
1.36892e-09
7.63038e-14
2.65393e-13
1.36978e-09
6.19595e-13
-1.552e-13
1.36891e-09
1.65364e-12
-1.40642e-12
1.36923e-09
1.91958e-13
-1.68154e-13
1.36882e-09
7.90894e-14
-2.91454e-15
1.3683e-09
4.51422e-13
4.14799e-14
1.36881e-09
-1.12554e-12
-1.41282e-13
1.36853e-09
6.42664e-13
2.40581e-13
1.3699e-09
-3.49916e-12
1.90949e-12
-3.09547e-13
-5.65574e-13
9.22609e-10
-9.28439e-10
-1.14183e-08
1.16151e-08
-6.33816e-09
-4.97056e-09
1.26538e-09
-1.10859e-09
1.11519e-08
-9.60267e-11
2.32071e-09
3.10892e-09
-8.75242e-09
3.41882e-09
-2.52614e-11
-8.5441e-10
5.35274e-10
4.75868e-10
-1.31471e-10
-5.28295e-10
1.58421e-09
5.53928e-11
3.512e-11
2.91602e-10
1.9487e-10
2.36196e-10
9.6846e-09
-2.03838e-08
8.58836e-09
-3.20653e-10
8.54599e-10
-4.26239e-10
1.34574e-10
2.20571e-10
7.35217e-11
6.39944e-11
-1.28806e-10
-2.29278e-10
-1.38356e-10
-1.25891e-11
1.54841e-11
8.93257e-11
4.61356e-11
1.37162e-09
3.4831e-11
-3.22839e-11
-2.42846e-10
-2.41176e-10
-4.16293e-10
-4.12576e-10
-8.77875e-12
-1.44257e-11
-1.44013e-11
-2.36738e-11
1.3653e-09
6.04116e-12
-1.44765e-12
1.37011e-09
8.93529e-12
-2.1565e-13
1.37159e-09
4.99374e-12
-1.00464e-13
1.37261e-09
3.51747e-12
1.92961e-13
1.37297e-09
2.21713e-12
6.18841e-13
1.37376e-09
1.11421e-12
1.81527e-14
1.37352e-09
9.07574e-13
5.14088e-13
1.37355e-09
3.45053e-13
2.31892e-13
1.37384e-09
2.30889e-13
5.08169e-13
1.3739e-09
2.27126e-13
1.31895e-13
1.37404e-09
2.51333e-13
2.29862e-14
1.37332e-09
2.24747e-13
5.18787e-14
1.37314e-09
-7.5459e-15
1.20318e-13
1.3729e-09
-1.3364e-13
3.48391e-13
1.37286e-09
-4.02769e-15
-5.77374e-13
1.37237e-09
1.55842e-13
1.45657e-14
1.37267e-09
7.79425e-14
-6.19634e-13
1.37263e-09
-6.2512e-13
1.02475e-13
1.3721e-09
8.66872e-13
-4.55727e-13
1.37207e-09
-1.47096e-13
8.66076e-14
1.37214e-09
-8.04186e-13
8.64655e-13
1.37189e-09
1.50367e-13
6.08853e-13
1.37068e-09
-2.11537e-13
-2.1999e-12
1.37062e-09
1.34507e-13
2.66889e-14
1.37127e-09
1.04727e-12
-6.57433e-13
1.37022e-09
-4.92388e-15
8.67722e-13
1.3702e-09
2.52151e-15
-2.43775e-13
1.37015e-09
9.03252e-15
5.87343e-13
1.37001e-09
-6.36899e-14
-1.73454e-13
1.37035e-09
-4.32453e-13
4.63017e-13
1.36981e-09
8.81017e-13
-6.88394e-13
1.36971e-09
-3.4288e-13
-4.26968e-14
1.36992e-09
-2.96702e-13
5.72033e-14
1.36911e-09
2.48572e-12
-1.15848e-12
1.36929e-09
1.01062e-12
3.80768e-13
1.36882e-09
5.30307e-13
5.53435e-14
1.36945e-09
-1.2542e-12
6.3029e-13
1.36951e-09
1.70529e-14
3.19508e-13
1.36849e-09
-2.12803e-13
5.93448e-14
1.36875e-09
4.74592e-13
-1.20279e-13
1.36828e-09
8.8951e-13
-3.94693e-12
-2.16195e-12
7.29548e-14
1.75697e-09
2.81349e-09
4.00231e-10
-2.3414e-09
-3.25729e-09
5.22787e-10
1.7068e-07
2.92376e-08
-1.10701e-07
-8.89278e-08
1.53972e-09
1.44049e-09
1.70756e-09
-3.55357e-09
-1.1342e-09
-1.41348e-11
6.68493e-10
-7.02869e-10
4.90476e-10
-4.41965e-10
-4.36759e-09
-2.52068e-09
7.40233e-10
1.06396e-09
5.08408e-09
2.95384e-11
-5.11534e-10
1.28096e-09
5.50119e-10
-1.34908e-09
3.32239e-10
2.38906e-10
-1.66352e-11
-2.2092e-10
-3.3359e-10
-3.91439e-11
2.98399e-13
-9.29136e-13
1.29185e-11
2.68561e-11
1.35031e-09
-2.87295e-11
-2.42829e-10
-2.33982e-10
-4.1772e-10
-3.93959e-10
1.35672e-09
-3.6962e-13
1.36389e-09
-1.08374e-14
1.36816e-09
5.2488e-14
1.37008e-09
-1.06819e-14
1.37102e-09
-5.67218e-13
1.37317e-09
3.6213e-13
1.3738e-09
-1.21922e-13
1.37361e-09
-4.5762e-13
1.37352e-09
-1.37165e-13
1.37346e-09
-3.16695e-13
1.37337e-09
3.12198e-13
1.37335e-09
-3.15501e-14
1.37308e-09
8.9388e-14
1.373e-09
-1.56165e-13
1.37266e-09
1.19316e-13
1.3725e-09
7.28044e-15
1.37224e-09
2.64715e-13
1.37244e-09
1.1668e-13
1.37247e-09
6.25193e-13
1.37202e-09
-7.16429e-14
1.37213e-09
1.25805e-12
1.37182e-09
6.33413e-13
1.37135e-09
-1.9501e-12
1.37028e-09
-1.12475e-12
1.37038e-09
1.03297e-12
1.37044e-09
-5.65225e-13
1.3701e-09
6.55692e-13
1.37036e-09
-1.03345e-12
1.37026e-09
-5.44309e-13
1.36981e-09
-3.49862e-14
1.37024e-09
7.45477e-13
1.36977e-09
1.32449e-13
1.36979e-09
-5.17766e-13
1.37086e-09
1.61824e-12
1.36874e-09
1.38519e-13
1.36928e-09
-1.44191e-13
1.36879e-09
-6.14521e-13
1.36908e-09
-2.99868e-13
1.36913e-09
-3.13998e-13
1.36971e-09
-2.37896e-13
1.36856e-09
2.2202e-12
-2.71457e-14
-1.48431e-09
-1.39041e-09
-1.02226e-08
2.72812e-08
-8.15975e-09
4.79153e-08
-5.68633e-08
1.02001e-08
-4.49208e-10
3.78098e-09
-5.93074e-10
-1.24262e-08
4.45261e-10
-1.11348e-09
-3.52754e-08
2.66183e-08
3.30511e-09
3.60604e-09
5.46292e-10
2.96595e-09
-1.96308e-09
-8.40563e-09
-5.74711e-10
3.27336e-09
-7.68208e-11
-7.06349e-10
-3.99859e-09
2.27686e-10
-2.05292e-10
1.86358e-10
-5.36147e-11
-1.22946e-10
-1.23283e-10
-3.4358e-11
5.63282e-10
-3.12321e-11
-9.62854e-14
-1.22144e-10
-1.25036e-10
-1.2374e-10
2.26802e-09
-4.37889e-11
2.7668e-11
-5.63305e-10
-5.70378e-10
-5.63312e-10
-5.70382e-10
2.26656e-09
4.36359e-12
9.22709e-13
2.27701e-09
-4.79536e-12
-1.58632e-13
2.28097e-09
-1.30746e-12
-9.46548e-14
2.28548e-09
-8.76042e-13
-4.82411e-13
2.28905e-09
-3.75244e-13
-4.34219e-13
2.28854e-09
-7.62133e-13
6.81038e-13
2.28921e-09
-3.67568e-13
1.90729e-13
2.28962e-09
-1.47097e-12
1.09653e-12
2.2902e-09
-2.1342e-13
-1.99205e-14
2.29053e-09
-4.0951e-13
9.04748e-13
2.28949e-09
3.86245e-13
-1.81922e-13
2.28958e-09
-1.68111e-13
7.06216e-14
2.28929e-09
1.09299e-13
-9.49577e-14
2.28889e-09
-7.9308e-13
4.80286e-13
2.28861e-09
6.71395e-13
3.34269e-13
2.2879e-09
1.10047e-12
-2.36859e-13
2.28783e-09
1.88428e-12
-6.91084e-13
2.28923e-09
-2.8765e-12
2.65284e-13
2.28865e-09
-6.57256e-13
5.17174e-13
2.28828e-09
1.58963e-13
1.18397e-13
2.28659e-09
-1.22519e-12
1.89747e-13
2.28706e-09
-6.31429e-13
-4.31842e-13
2.28565e-09
5.70695e-12
-1.50924e-12
2.28558e-09
4.4714e-12
-2.85193e-12
2.2856e-09
-5.16539e-13
-2.43458e-13
2.2863e-09
1.05e-13
-2.79113e-13
2.28574e-09
1.45761e-14
1.53478e-13
2.28472e-09
-8.62662e-15
-5.72106e-14
2.28349e-09
1.02077e-12
-7.05215e-13
2.28308e-09
-1.51004e-12
8.47301e-13
2.2857e-09
-6.11013e-13
-1.78273e-12
2.28467e-09
9.03815e-13
-1.16531e-13
2.28392e-09
1.68801e-13
7.62307e-13
2.28413e-09
-2.01667e-13
-1.69883e-13
2.28561e-09
1.70919e-12
-4.58906e-13
2.28307e-09
3.68378e-12
-2.9633e-12
2.28339e-09
-7.44665e-13
-3.07185e-14
2.2833e-09
-5.68177e-13
2.94107e-13
2.28323e-09
-2.89666e-15
-2.05059e-14
2.28313e-09
-9.80761e-14
1.88779e-13
2.28224e-09
5.70713e-13
7.15925e-13
-6.25093e-13
-4.33747e-13
-1.17572e-10
6.1306e-10
-9.39222e-11
2.0749e-09
7.65561e-09
6.0877e-09
2.77322e-08
-9.0399e-10
-5.96391e-09
-8.42202e-09
6.18908e-10
-1.30171e-08
8.78833e-11
9.27994e-10
-1.44491e-09
-5.52686e-10
-1.85199e-09
3.98949e-10
-2.16759e-09
1.01429e-08
-5.63832e-09
5.6569e-09
1.49813e-09
5.23409e-09
3.80666e-09
7.26614e-10
-7.57835e-11
-1.58251e-09
1.59343e-10
-5.92725e-10
2.91138e-09
2.07055e-10
-1.99622e-09
-2.51773e-10
-4.13494e-10
1.4492e-09
-8.14459e-09
-4.12468e-10
1.6642e-09
2.35374e-09
4.46331e-09
2.10031e-11
-2.56717e-10
-1.16082e-10
1.73732e-12
1.86394e-10
1.63665e-10
-1.44359e-10
-2.1648e-11
6.34372e-12
-1.73788e-12
8.20761e-12
1.53194e-10
2.30824e-09
-8.10522e-12
3.28539e-11
-5.96059e-10
-5.83279e-10
-5.96039e-10
-5.83302e-10
-2.15776e-11
-8.14251e-12
-2.15771e-11
2.27989e-09
2.92913e-11
1.62175e-12
2.28296e-09
-8.59879e-12
2.31913e-13
2.28427e-09
-2.95047e-12
1.14437e-13
2.28648e-09
-3.29679e-12
3.48672e-14
2.28808e-09
-2.11264e-12
3.67464e-15
2.2889e-09
-1.80094e-12
1.3625e-14
2.28949e-09
-1.16079e-12
1.72192e-14
2.2896e-09
4.48575e-14
-8.18556e-13
2.28976e-09
-1.04893e-12
2.77759e-13
2.29e-09
-9.47412e-13
8.24862e-16
2.29059e-09
-1.11033e-12
-1.15492e-12
2.28987e-09
2.51933e-13
9.30024e-15
2.28963e-09
-3.07178e-13
5.53493e-14
2.28875e-09
4.27061e-13
-1.95864e-13
2.28941e-09
-4.57361e-12
1.60066e-12
2.29014e-09
-2.1956e-12
1.02732e-12
2.2896e-09
-1.07276e-13
1.13455e-12
2.28635e-09
-3.82645e-13
-3.00744e-13
2.28724e-09
-1.62254e-12
-1.26382e-13
2.28707e-09
-1.28577e-14
1.50148e-15
2.28614e-09
3.30299e-12
-1.85655e-12
2.28516e-09
1.21536e-12
-6.33993e-13
2.28602e-09
4.99378e-13
2.16592e-12
2.28598e-09
7.6246e-13
1.73251e-12
2.2869e-09
-2.42447e-12
2.60663e-12
2.28681e-09
1.28881e-12
9.04862e-13
2.28584e-09
6.9508e-13
-9.34077e-15
2.28549e-09
-3.48607e-14
5.60485e-14
2.28568e-09
2.58015e-13
1.43824e-13
2.28552e-09
-3.79821e-13
-7.31062e-13
2.28281e-09
-7.15725e-13
1.87581e-12
2.28304e-09
3.95896e-13
-3.81913e-13
2.28304e-09
-4.58383e-14
4.084e-14
2.28205e-09
5.7141e-13
-1.44354e-13
2.28331e-09
1.21651e-12
-2.83382e-13
2.2853e-09
-2.66604e-14
3.19084e-12
2.28373e-09
1.57496e-12
-5.56117e-13
2.28353e-09
-1.18777e-13
-1.61043e-13
2.28345e-09
1.636e-13
-1.59968e-13
2.28321e-09
3.10424e-13
-3.99277e-13
2.28294e-09
1.12197e-12
-2.08913e-13
-4.17444e-13
2.27767e-13
-4.32617e-09
1.85528e-09
2.26968e-09
1.08107e-09
9.5325e-10
8.6544e-10
7.54998e-10
6.28156e-10
7.56665e-10
9.14834e-10
-9.01792e-10
5.07492e-09
-4.5294e-09
-2.76172e-09
2.4146e-09
3.37453e-09
-1.53747e-09
-1.54569e-09
-8.63786e-09
9.24528e-09
-1.65559e-08
-1.40206e-09
-3.64849e-09
-1.17567e-10
-3.61335e-09
2.1374e-09
-9.21401e-10
2.24045e-09
-1.48518e-08
1.44677e-09
7.08071e-10
2.19682e-09
6.47676e-10
-1.38816e-09
-6.97135e-10
-2.60959e-09
-3.36562e-09
3.06343e-09
-2.26942e-10
-8.9467e-10
9.83637e-11
-9.83219e-10
1.32048e-08
-2.68234e-09
1.59396e-09
1.83396e-10
-1.0853e-08
-1.18466e-09
-3.54256e-10
-4.10754e-10
2.22889e-10
4.38347e-10
1.28843e-09
-6.98568e-11
-4.69465e-11
-2.54691e-11
-1.51328e-11
2.4954e-11
1.32451e-10
-1.36593e-10
5.70692e-10
-1.76054e-11
-9.12722e-13
-2.95221e-12
-1.36768e-10
-1.41824e-10
-1.42144e-10
2.25382e-09
-2.70991e-11
2.24095e-11
-5.54457e-10
-5.66465e-10
-5.54455e-10
-5.66486e-10
2.26882e-09
-2.7421e-11
1.85354e-12
2.28041e-09
-1.32961e-11
-6.83604e-13
2.28607e-09
-9.09423e-12
-3.4227e-15
2.28874e-09
-4.91302e-12
-9.98663e-15
2.28971e-09
-2.9408e-12
1.37155e-14
2.29009e-09
-1.68919e-12
-9.03965e-15
2.2914e-09
-1.42221e-12
-2.7849e-14
2.29103e-09
-2.79168e-13
-2.68036e-13
2.29027e-09
-5.42574e-14
-6.1595e-13
2.28926e-09
6.2618e-13
9.5979e-13
2.28996e-09
-6.85021e-13
1.71606e-14
2.28989e-09
-1.07684e-12
5.46167e-13
2.29072e-09
-7.58928e-13
-8.37341e-14
2.28876e-09
1.72283e-12
-1.31108e-12
2.28821e-09
-1.67803e-13
-1.02323e-12
2.28761e-09
-8.05595e-13
-2.54055e-13
2.28718e-09
-4.55647e-13
8.70871e-14
2.28613e-09
-2.33947e-13
-3.09172e-13
2.28583e-09
5.45629e-13
-2.81735e-13
2.28684e-09
-4.97641e-13
1.23343e-12
2.28773e-09
-3.73612e-12
1.90531e-12
2.28714e-09
9.21744e-13
-1.35836e-13
2.28839e-09
-2.59283e-12
8.15528e-13
2.28607e-09
2.36847e-13
-2.48869e-12
2.28518e-09
2.7609e-13
-7.51235e-13
2.28526e-09
1.92935e-13
1.08548e-14
2.28521e-09
-1.77817e-13
-2.97632e-14
2.28505e-09
7.33733e-14
3.0975e-14
2.28463e-09
2.88726e-14
-1.7117e-14
2.28381e-09
-4.43082e-13
-2.30307e-14
2.28316e-09
-1.74973e-13
1.86678e-13
2.28259e-09
3.32456e-13
-2.33563e-14
2.28262e-09
8.68135e-13
3.87001e-13
2.28315e-09
1.14351e-12
-4.46678e-13
2.28496e-09
-2.19165e-12
2.22772e-13
2.28458e-09
1.66176e-12
1.74435e-13
2.28392e-09
8.19197e-13
-2.98164e-13
2.2832e-09
5.90904e-13
1.05568e-13
2.2824e-09
8.18465e-13
3.44116e-13
2.28262e-09
5.72027e-13
-5.07656e-13
-2.47205e-12
1.42806e-12
6.51646e-09
1.25307e-09
-7.70026e-09
2.39365e-09
-7.57881e-10
-1.36542e-09
1.41036e-08
-2.6606e-09
-4.24478e-09
3.16677e-11
3.48943e-09
-5.17858e-09
-6.43042e-10
3.54055e-10
4.10277e-10
2.3165e-10
1.56078e-10
6.03539e-10
-9.96738e-11
3.13761e-11
6.13213e-10
-4.96571e-10
5.41504e-09
-6.89284e-09
3.59617e-09
1.46353e-10
1.50606e-10
3.56937e-10
5.2915e-10
-1.38285e-09
-2.03018e-10
-5.10907e-10
-6.62105e-09
-6.0916e-10
1.10215e-09
3.42515e-09
6.15645e-09
-3.45355e-09
4.47192e-10
-1.58824e-10
-1.25222e-10
2.75924e-10
-2.10774e-11
-4.17994e-10
-1.35403e-10
5.77517e-11
-2.38277e-11
3.96767e-11
-3.72551e-11
9.90576e-11
-1.4329e-10
5.95777e-10
-2.77902e-11
-1.63988e-13
-2.13143e-12
-1.51644e-10
-1.48772e-10
-1.58366e-10
3.63803e-11
2.31443e-09
-1.36123e-11
2.7303e-11
-5.85128e-10
-6.06146e-10
-5.85159e-10
-6.06185e-10
2.29876e-09
-1.77164e-11
2.85403e-12
2.29603e-09
-1.02417e-11
-2.04995e-13
2.29235e-09
-6.33671e-12
4.06191e-13
2.29194e-09
-4.70611e-12
5.07877e-14
2.29162e-09
-2.82979e-12
3.22558e-14
2.29123e-09
-1.5324e-12
4.96952e-14
2.29054e-09
-9.64604e-13
2.51199e-14
2.29074e-09
-9.02486e-13
1.15072e-13
2.29021e-09
-1.54832e-13
6.36287e-13