/*--------------------------------*- C++ -*----------------------------------*\
| =========                 |                                                 |
| \\      /  F ield         | OpenFOAM: The Open Source CFD Toolbox           |
|  \\    /   O peration     | Version:  5.0                                   |
|   \\  /    A nd           | Web:      www.OpenFOAM.org                      |
|    \\/     M anipulation  |                                                 |
\*---------------------------------------------------------------------------*/
FoamFile
{
    version     2.0;
    format      ascii;
    class       volScalarField;
    location    "2.4";
    object      rAU;
}
// * * * * * * * * * * * * * * * * * * * * * * * * * * * * * * * * * * * * * //

dimensions      [-1 3 1 0 0 0 0];

internalField   nonuniform List<scalar> 
8710
(
8.4515e-07
8.78228e-07
6.82869e-07
8.64167e-07
8.91492e-07
6.94515e-07
1.29278e-07
3.9242e-07
3.93663e-07
3.94697e-07
3.95731e-07
3.96764e-07
3.97795e-07
3.98827e-07
3.99857e-07
4.00887e-07
4.01916e-07
4.02944e-07
4.03972e-07
4.04999e-07
4.06025e-07
4.07051e-07
4.08076e-07
4.091e-07
4.10123e-07
4.11146e-07
4.12167e-07
4.13188e-07
4.14209e-07
4.15228e-07
4.16247e-07
4.17265e-07
4.18282e-07
4.19298e-07
4.20314e-07
4.21329e-07
4.22343e-07
4.23356e-07
4.24368e-07
4.2538e-07
4.26391e-07
4.27401e-07
4.2841e-07
4.29418e-07
4.30426e-07
4.31432e-07
4.32438e-07
4.33443e-07
4.34447e-07
4.36223e-07
9.63434e-07
9.52339e-07
9.50602e-07
9.68771e-07
8.88409e-07
6.46705e-07
3.51129e-08
3.92286e-07
3.93663e-07
3.94697e-07
3.95731e-07
3.96763e-07
3.97795e-07
3.98827e-07
3.99857e-07
4.00887e-07
4.01916e-07
4.02944e-07
4.03972e-07
4.04999e-07
4.06025e-07
4.07051e-07
4.08076e-07
4.091e-07
4.10123e-07
4.11146e-07
4.12167e-07
4.13188e-07
4.14209e-07
4.15228e-07
4.16247e-07
4.17265e-07
4.18282e-07
4.19298e-07
4.20314e-07
4.21329e-07
4.22343e-07
4.23356e-07
4.24368e-07
4.2538e-07
4.26391e-07
4.27401e-07
4.2841e-07
4.29418e-07
4.30426e-07
4.31432e-07
4.32438e-07
4.33443e-07
4.34447e-07
4.36223e-07
9.69348e-07
9.59185e-07
9.07769e-07
9.67237e-07
8.91711e-07
6.90995e-07
6.5803e-08
1.2987e-07
3.93454e-07
3.94698e-07
3.95731e-07
3.96764e-07
3.97795e-07
3.98827e-07
3.99857e-07
4.00887e-07
4.01916e-07
4.02944e-07
4.03972e-07
4.04999e-07
4.06025e-07
4.07051e-07
4.08076e-07
4.091e-07
4.10123e-07
4.11146e-07
4.12167e-07
4.13188e-07
4.14209e-07
4.15228e-07
4.16247e-07
4.17265e-07
4.18282e-07
4.19298e-07
4.20314e-07
4.21329e-07
4.22343e-07
4.23356e-07
4.24368e-07
4.2538e-07
4.26391e-07
4.27401e-07
4.2841e-07
4.29418e-07
4.30426e-07
4.31432e-07
4.32438e-07
4.33443e-07
4.34447e-07
4.36223e-07
8.64072e-07
8.67558e-07
8.20015e-07
8.91691e-07
8.71069e-07
6.79661e-07
6.97184e-07
1.2972e-07
3.93454e-07
3.94697e-07
3.95731e-07
3.96763e-07
3.97795e-07
3.98827e-07
3.99857e-07
4.00887e-07
4.01916e-07
4.02944e-07
4.03972e-07
4.04999e-07
4.06025e-07
4.07051e-07
4.08076e-07
4.091e-07
4.10123e-07
4.11146e-07
4.12167e-07
4.13188e-07
4.14209e-07
4.15228e-07
4.16247e-07
4.17265e-07
4.18282e-07
4.19298e-07
4.20314e-07
4.21329e-07
4.22343e-07
4.23356e-07
4.24368e-07
4.2538e-07
4.26391e-07
4.27401e-07
4.2841e-07
4.29418e-07
4.30426e-07
4.31432e-07
4.32438e-07
4.33443e-07
4.34447e-07
4.36223e-07
2.75911e-07
8.36241e-07
8.19537e-07
8.55313e-07
6.16476e-07
6.74683e-07
7.01061e-07
1.29722e-07
3.93454e-07
3.94697e-07
3.95731e-07
3.96764e-07
3.97795e-07
3.98827e-07
3.99857e-07
4.00887e-07
4.01916e-07
4.02944e-07
4.03972e-07
4.04999e-07
4.06025e-07
4.07051e-07
4.08076e-07
4.091e-07
4.10123e-07
4.11146e-07
4.12167e-07
4.13188e-07
4.14209e-07
4.15228e-07
4.16247e-07
4.17265e-07
4.18282e-07
4.19298e-07
4.20314e-07
4.21329e-07
4.22343e-07
4.23356e-07
4.24368e-07
4.2538e-07
4.26391e-07
4.27401e-07
4.2841e-07
4.29418e-07
4.30426e-07
4.31432e-07
4.32438e-07
4.33443e-07
4.34447e-07
4.36223e-07
5.91245e-07
8.59003e-07
3.28168e-07
4.90067e-07
7.38765e-07
6.89723e-07
7.0098e-07
1.29727e-07
3.93455e-07
3.94698e-07
3.95731e-07
3.96764e-07
3.97795e-07
3.98827e-07
3.99857e-07
4.00887e-07
4.01916e-07
4.02944e-07
4.03972e-07
4.04999e-07
4.06025e-07
4.07051e-07
4.08076e-07
4.091e-07
4.10123e-07
4.11146e-07
4.12167e-07
4.13188e-07
4.14209e-07
4.15228e-07
4.16247e-07
4.17265e-07
4.18282e-07
4.19298e-07
4.20314e-07
4.21329e-07
4.22343e-07
4.23356e-07
4.24368e-07
4.2538e-07
4.26391e-07
4.27401e-07
4.2841e-07
4.29418e-07
4.30426e-07
4.31432e-07
4.32438e-07
4.33443e-07
4.34447e-07
4.36223e-07
8.48347e-07
8.81567e-07
7.31237e-07
8.15562e-07
8.78995e-07
6.92011e-07
6.99866e-07
1.29724e-07
3.93454e-07
3.94697e-07
3.95731e-07
3.96764e-07
3.97795e-07
3.98827e-07
3.99857e-07
4.00887e-07
4.01916e-07
4.02944e-07
4.03972e-07
4.04999e-07
4.06025e-07
4.07051e-07
4.08076e-07
4.091e-07
4.10123e-07
4.11146e-07
4.12167e-07
4.13188e-07
4.14209e-07
4.15228e-07
4.16247e-07
4.17265e-07
4.18282e-07
4.19298e-07
4.20314e-07
4.21329e-07
4.22343e-07
4.23356e-07
4.24368e-07
4.2538e-07
4.26391e-07
4.27401e-07
4.2841e-07
4.29418e-07
4.30426e-07
4.31432e-07
4.32438e-07
4.33443e-07
4.34447e-07
4.36223e-07
8.6055e-07
8.71081e-07
8.53043e-07
2.4546e-07
7.45821e-07
6.76069e-07
6.91523e-07
1.2969e-07
3.93455e-07
3.94698e-07
3.95731e-07
3.96764e-07
3.97795e-07
3.98827e-07
3.99857e-07
4.00887e-07
4.01916e-07
4.02944e-07
4.03972e-07
4.04999e-07
4.06025e-07
4.07051e-07
4.08076e-07
4.091e-07
4.10123e-07
4.11146e-07
4.12167e-07
4.13188e-07
4.14209e-07
4.15228e-07
4.16247e-07
4.17265e-07
4.18282e-07
4.19298e-07
4.20314e-07
4.21329e-07
4.22343e-07
4.23356e-07
4.24368e-07
4.2538e-07
4.26391e-07
4.27401e-07
4.2841e-07
4.29418e-07
4.30426e-07
4.31432e-07
4.32438e-07
4.33443e-07
4.34447e-07
4.36223e-07
8.70893e-07
8.6449e-07
5.07641e-07
6.16461e-07
8.29083e-07
6.83695e-07
5.26975e-08
3.92287e-07
3.93663e-07
3.94698e-07
3.95731e-07
3.96764e-07
3.97795e-07
3.98827e-07
3.99857e-07
4.00887e-07
4.01916e-07
4.02944e-07
4.03972e-07
4.04999e-07
4.06025e-07
4.07051e-07
4.08076e-07
4.091e-07
4.10123e-07
4.11146e-07
4.12167e-07
4.13188e-07
4.14209e-07
4.15228e-07
4.16247e-07
4.17265e-07
4.18282e-07
4.19298e-07
4.20314e-07
4.21329e-07
4.22343e-07
4.23356e-07
4.24368e-07
4.2538e-07
4.26391e-07
4.27401e-07
4.2841e-07
4.29418e-07
4.30426e-07
4.31432e-07
4.32438e-07
4.33443e-07
4.34447e-07
4.36223e-07
6.88701e-07
7.72737e-07
2.84047e-07
5.40777e-07
3.8348e-07
5.99383e-07
3.5097e-08
3.92421e-07
3.93664e-07
3.94698e-07
3.95731e-07
3.96764e-07
3.97795e-07
3.98827e-07
3.99857e-07
4.00887e-07
4.01916e-07
4.02944e-07
4.03972e-07
4.04999e-07
4.06025e-07
4.07051e-07
4.08076e-07
4.091e-07
4.10123e-07
4.11146e-07
4.12167e-07
4.13188e-07
4.14209e-07
4.15228e-07
4.16247e-07
4.17265e-07
4.18282e-07
4.19298e-07
4.20314e-07
4.21329e-07
4.22343e-07
4.23356e-07
4.24368e-07
4.2538e-07
4.26391e-07
4.27401e-07
4.2841e-07
4.29418e-07
4.30426e-07
4.31432e-07
4.32438e-07
4.33443e-07
4.34447e-07
4.36223e-07
7.46634e-07
8.98164e-07
7.19463e-07
8.57306e-07
9.274e-07
7.43326e-07
1.83365e-07
5.04898e-07
5.06388e-07
5.07529e-07
5.08667e-07
5.09804e-07
5.1094e-07
5.12073e-07
5.13206e-07
5.14337e-07
5.15465e-07
5.16593e-07
5.17719e-07
5.18842e-07
5.19965e-07
5.21086e-07
5.22205e-07
5.23323e-07
5.24439e-07
5.25553e-07
5.26666e-07
5.27777e-07
5.28886e-07
5.29994e-07
5.31101e-07
5.32204e-07
5.33308e-07
5.34409e-07
5.35508e-07
5.36606e-07
5.37703e-07
5.38797e-07
5.3989e-07
5.40982e-07
5.42071e-07
5.43159e-07
5.44245e-07
5.45329e-07
5.46412e-07
5.47494e-07
5.48573e-07
5.49651e-07
5.50727e-07
5.53042e-07
8.73212e-07
7.56515e-07
9.48813e-07
9.67368e-07
9.12801e-07
6.76983e-07
5.18382e-08
5.04674e-07
5.06386e-07
5.07528e-07
5.08667e-07
5.09804e-07
5.1094e-07
5.12073e-07
5.13206e-07
5.14337e-07
5.15465e-07
5.16593e-07
5.17719e-07
5.18842e-07
5.19965e-07
5.21086e-07
5.22205e-07
5.23323e-07
5.24439e-07
5.25553e-07
5.26666e-07
5.27778e-07
5.28886e-07
5.29994e-07
5.31101e-07
5.32205e-07
5.33308e-07
5.34409e-07
5.35508e-07
5.36606e-07
5.37703e-07
5.38797e-07
5.3989e-07
5.40982e-07
5.42071e-07
5.43159e-07
5.44245e-07
5.45329e-07
5.46412e-07
5.47494e-07
5.48573e-07
5.49651e-07
5.50727e-07
5.53042e-07
9.678e-07
9.55451e-07
8.92129e-07
9.6946e-07
8.98083e-07
7.22339e-07
9.56855e-08
1.84067e-07
5.06041e-07
5.07529e-07
5.08667e-07
5.09804e-07
5.1094e-07
5.12073e-07
5.13206e-07
5.14337e-07
5.15465e-07
5.16593e-07
5.17719e-07
5.18842e-07
5.19965e-07
5.21086e-07
5.22205e-07
5.23323e-07
5.24439e-07
5.25553e-07
5.26666e-07
5.27778e-07
5.28886e-07
5.29994e-07
5.31101e-07
5.32205e-07
5.33308e-07
5.34409e-07
5.35508e-07
5.36606e-07
5.37703e-07
5.38797e-07
5.3989e-07
5.40982e-07
5.42071e-07
5.43159e-07
5.44245e-07
5.45329e-07
5.46412e-07
5.47494e-07
5.48573e-07
5.49651e-07
5.50727e-07
5.53042e-07
9.22566e-07
8.61931e-07
8.86317e-07
9.09007e-07
9.29754e-07
6.94447e-07
7.71865e-07
1.83948e-07
5.06038e-07
5.07528e-07
5.08667e-07
5.09804e-07
5.1094e-07
5.12073e-07
5.13206e-07
5.14337e-07
5.15465e-07
5.16593e-07
5.17719e-07
5.18842e-07
5.19965e-07
5.21086e-07
5.22205e-07
5.23323e-07
5.24439e-07
5.25553e-07
5.26666e-07
5.27777e-07
5.28886e-07
5.29994e-07
5.31101e-07
5.32205e-07
5.33308e-07
5.34409e-07
5.35508e-07
5.36606e-07
5.37703e-07
5.38797e-07
5.3989e-07
5.40982e-07
5.42071e-07
5.43159e-07
5.44245e-07
5.45329e-07
5.46412e-07
5.47494e-07
5.48573e-07
5.49651e-07
5.50727e-07
5.53042e-07
5.21056e-07
8.97501e-07
7.98056e-07
5.32724e-07
5.19653e-07
6.73539e-07
7.77475e-07
1.83956e-07
5.0604e-07
5.07529e-07
5.08667e-07
5.09804e-07
5.1094e-07
5.12073e-07
5.13206e-07
5.14337e-07
5.15465e-07
5.16593e-07
5.17719e-07
5.18842e-07
5.19965e-07
5.21086e-07
5.22205e-07
5.23323e-07
5.24439e-07
5.25553e-07
5.26666e-07
5.27777e-07
5.28886e-07
5.29994e-07
5.31101e-07
5.32205e-07
5.33308e-07
5.34409e-07
5.35508e-07
5.36606e-07
5.37703e-07
5.38797e-07
5.3989e-07
5.40982e-07
5.42071e-07
5.43159e-07
5.44245e-07
5.45329e-07
5.46412e-07
5.47494e-07
5.48573e-07
5.49651e-07
5.50727e-07
5.53042e-07
4.93278e-07
9.17222e-07
8.01838e-07
8.81418e-07
5.25138e-07
7.14679e-07
7.74234e-07
1.83968e-07
5.06041e-07
5.07529e-07
5.08667e-07
5.09804e-07
5.1094e-07
5.12073e-07
5.13206e-07
5.14337e-07
5.15465e-07
5.16593e-07
5.17719e-07
5.18842e-07
5.19965e-07
5.21086e-07
5.22205e-07
5.23323e-07
5.24439e-07
5.25553e-07
5.26666e-07
5.27777e-07
5.28886e-07
5.29994e-07
5.31101e-07
5.32205e-07
5.33308e-07
5.34409e-07
5.35508e-07
5.36606e-07
5.37703e-07
5.38797e-07
5.3989e-07
5.40982e-07
5.42071e-07
5.43159e-07
5.44245e-07
5.45329e-07
5.46412e-07
5.47494e-07
5.48573e-07
5.49651e-07
5.50727e-07
5.53042e-07
8.37678e-07
8.77969e-07
2.89625e-07
6.22807e-07
7.57678e-07
7.30078e-07
7.73582e-07
1.83946e-07
5.0604e-07
5.07529e-07
5.08667e-07
5.09804e-07
5.1094e-07
5.12073e-07
5.13206e-07
5.14337e-07
5.15465e-07
5.16593e-07
5.17719e-07
5.18842e-07
5.19965e-07
5.21086e-07
5.22205e-07
5.23323e-07
5.24439e-07
5.25553e-07
5.26666e-07
5.27777e-07
5.28886e-07
5.29994e-07
5.31101e-07
5.32205e-07
5.33308e-07
5.34409e-07
5.35508e-07
5.36606e-07
5.37703e-07
5.38797e-07
5.3989e-07
5.40982e-07
5.42071e-07
5.43159e-07
5.44245e-07
5.45329e-07
5.46412e-07
5.47494e-07
5.48573e-07
5.49651e-07
5.50727e-07
5.53042e-07
8.15478e-07
2.99033e-07
2.36246e-07
3.99386e-07
8.90957e-07
7.48798e-07
7.67382e-07
1.83949e-07
5.06042e-07
5.0753e-07
5.08667e-07
5.09805e-07
5.1094e-07
5.12073e-07
5.13206e-07
5.14337e-07
5.15465e-07
5.16593e-07
5.17719e-07
5.18842e-07
5.19965e-07
5.21086e-07
5.22205e-07
5.23323e-07
5.24439e-07
5.25553e-07
5.26666e-07
5.27778e-07
5.28886e-07
5.29994e-07
5.31101e-07
5.32205e-07
5.33308e-07
5.34409e-07
5.35508e-07
5.36606e-07
5.37703e-07
5.38797e-07
5.3989e-07
5.40982e-07
5.42071e-07
5.43159e-07
5.44245e-07
5.45329e-07
5.46412e-07
5.47494e-07
5.48573e-07
5.49651e-07
5.50727e-07
5.53042e-07
5.25148e-07
7.56197e-07
2.09452e-07
4.7469e-07
5.91964e-07
6.68719e-07
7.78286e-08
5.04677e-07
5.06387e-07
5.07529e-07
5.08667e-07
5.09804e-07
5.1094e-07
5.12073e-07
5.13206e-07
5.14337e-07
5.15465e-07
5.16593e-07
5.17719e-07
5.18842e-07
5.19965e-07
5.21086e-07
5.22205e-07
5.23323e-07
5.24439e-07
5.25553e-07
5.26666e-07
5.27777e-07
5.28886e-07
5.29994e-07
5.31101e-07
5.32205e-07
5.33308e-07
5.34409e-07
5.35508e-07
5.36606e-07
5.37703e-07
5.38797e-07
5.3989e-07
5.40982e-07
5.42071e-07
5.43159e-07
5.44245e-07
5.45329e-07
5.46412e-07
5.47494e-07
5.48573e-07
5.49651e-07
5.50727e-07
5.53042e-07
5.98719e-07
8.88326e-07
6.0322e-07
4.0994e-07
8.50031e-07
7.40126e-07
5.18042e-08
5.049e-07
5.06388e-07
5.07529e-07
5.08667e-07
5.09804e-07
5.1094e-07
5.12073e-07
5.13206e-07
5.14337e-07
5.15465e-07
5.16593e-07
5.17719e-07
5.18842e-07
5.19965e-07
5.21086e-07
5.22205e-07
5.23323e-07
5.24439e-07
5.25553e-07
5.26666e-07
5.27777e-07
5.28886e-07
5.29994e-07
5.31101e-07
5.32205e-07
5.33308e-07
5.34409e-07
5.35508e-07
5.36606e-07
5.37703e-07
5.38797e-07
5.3989e-07
5.40982e-07
5.42071e-07
5.43159e-07
5.44245e-07
5.45329e-07
5.46412e-07
5.47494e-07
5.48573e-07
5.49651e-07
5.50727e-07
5.53042e-07
3.20099e-07
8.45039e-07
9.26105e-07
8.84967e-07
8.89588e-07
7.14745e-07
1.83367e-07
3.9242e-07
3.93663e-07
3.94697e-07
3.95731e-07
3.96763e-07
3.97795e-07
3.98827e-07
3.99857e-07
4.00887e-07
4.01916e-07
4.02944e-07
4.03972e-07
4.04999e-07
4.06025e-07
4.07051e-07
4.08076e-07
4.091e-07
4.10123e-07
4.11146e-07
4.12167e-07
4.13188e-07
4.14209e-07
4.15228e-07
4.16247e-07
4.17265e-07
4.18282e-07
4.19298e-07
4.20314e-07
4.21329e-07
4.22343e-07
4.23356e-07
4.24368e-07
4.2538e-07
4.26391e-07
4.27401e-07
4.2841e-07
4.29418e-07
4.30426e-07
4.31432e-07
4.32438e-07
4.33443e-07
4.34447e-07
4.36223e-07
9.06804e-07
7.0997e-07
9.04459e-07
9.6911e-07
9.14871e-07
7.66076e-07
5.1838e-08
3.92286e-07
3.93663e-07
3.94697e-07
3.95731e-07
3.96763e-07
3.97795e-07
3.98827e-07
3.99857e-07
4.00887e-07
4.01916e-07
4.02944e-07
4.03972e-07
4.04999e-07
4.06025e-07
4.07051e-07
4.08076e-07
4.091e-07
4.10123e-07
4.11146e-07
4.12167e-07
4.13188e-07
4.14209e-07
4.15228e-07
4.16247e-07
4.17265e-07
4.18282e-07
4.19298e-07
4.20314e-07
4.21329e-07
4.22343e-07
4.23356e-07
4.24368e-07
4.2538e-07
4.26391e-07
4.27401e-07
4.2841e-07
4.29418e-07
4.30426e-07
4.31432e-07
4.32438e-07
4.33443e-07
4.34447e-07
4.36223e-07
9.63649e-07
8.2591e-07
7.11333e-07
9.6238e-07
8.74794e-07
7.50552e-07
9.56458e-08
1.84071e-07
3.93454e-07
3.94698e-07
3.95731e-07
3.96764e-07
3.97795e-07
3.98827e-07
3.99857e-07
4.00887e-07
4.01916e-07
4.02944e-07
4.03972e-07
4.04999e-07
4.06025e-07
4.07051e-07
4.08076e-07
4.091e-07
4.10123e-07
4.11146e-07
4.12167e-07
4.13188e-07
4.14209e-07
4.15228e-07
4.16247e-07
4.17265e-07
4.18282e-07
4.19298e-07
4.20314e-07
4.21329e-07
4.22343e-07
4.23356e-07
4.24368e-07
4.2538e-07
4.26391e-07
4.27401e-07
4.2841e-07
4.29418e-07
4.30426e-07
4.31432e-07
4.32438e-07
4.33443e-07
4.34447e-07
4.36223e-07
9.26749e-07
8.93387e-07
8.53434e-07
9.1126e-07
9.12638e-07
7.02065e-07
7.72306e-07
1.83953e-07
3.93454e-07
3.94697e-07
3.95731e-07
3.96763e-07
3.97795e-07
3.98827e-07
3.99857e-07
4.00887e-07
4.01916e-07
4.02944e-07
4.03972e-07
4.04999e-07
4.06025e-07
4.07051e-07
4.08076e-07
4.091e-07
4.10123e-07
4.11146e-07
4.12167e-07
4.13188e-07
4.14209e-07
4.15228e-07
4.16247e-07
4.17265e-07
4.18282e-07
4.19298e-07
4.20314e-07
4.21329e-07
4.22343e-07
4.23356e-07
4.24368e-07
4.2538e-07
4.26391e-07
4.27401e-07
4.2841e-07
4.29418e-07
4.30426e-07
4.31432e-07
4.32438e-07
4.33443e-07
4.34447e-07
4.36223e-07
9.56529e-07
8.34389e-07
4.87036e-07
5.41621e-07
5.2607e-07
6.75631e-07
7.77786e-07
1.83959e-07
3.93454e-07
3.94697e-07
3.95731e-07
3.96763e-07
3.97795e-07
3.98827e-07
3.99857e-07
4.00887e-07
4.01916e-07
4.02944e-07
4.03972e-07
4.04999e-07
4.06025e-07
4.07051e-07
4.08076e-07
4.091e-07
4.10123e-07
4.11146e-07
4.12167e-07
4.13188e-07
4.14209e-07
4.15228e-07
4.16247e-07
4.17265e-07
4.18282e-07
4.19298e-07
4.20314e-07
4.21329e-07
4.22343e-07
4.23356e-07
4.24368e-07
4.2538e-07
4.26391e-07
4.27401e-07
4.2841e-07
4.29418e-07
4.30426e-07
4.31432e-07
4.32438e-07
4.33443e-07
4.34447e-07
4.36223e-07
9.54582e-07
9.21135e-07
8.74131e-07
9.06315e-07
3.81704e-07
6.6287e-07
7.75125e-07
1.8397e-07
3.93455e-07
3.94698e-07
3.95731e-07
3.96764e-07
3.97795e-07
3.98827e-07
3.99857e-07
4.00887e-07
4.01916e-07
4.02944e-07
4.03972e-07
4.04999e-07
4.06025e-07
4.07051e-07
4.08076e-07
4.091e-07
4.10123e-07
4.11146e-07
4.12167e-07
4.13188e-07
4.14209e-07
4.15228e-07
4.16247e-07
4.17265e-07
4.18282e-07
4.19298e-07
4.20314e-07
4.21329e-07
4.22343e-07
4.23356e-07
4.24368e-07
4.2538e-07
4.26391e-07
4.27401e-07
4.2841e-07
4.29418e-07
4.30426e-07
4.31432e-07
4.32438e-07
4.33443e-07
4.34447e-07
4.36223e-07
8.6627e-07
8.64325e-07
2.1713e-07
2.36346e-07
4.50518e-07
7.17245e-07
7.73534e-07
1.83951e-07
3.93454e-07
3.94697e-07
3.95731e-07
3.96764e-07
3.97795e-07
3.98827e-07
3.99857e-07
4.00887e-07
4.01916e-07
4.02944e-07
4.03972e-07
4.04999e-07
4.06025e-07
4.07051e-07
4.08076e-07
4.091e-07
4.10123e-07
4.11146e-07
4.12167e-07
4.13188e-07
4.14209e-07
4.15228e-07
4.16247e-07
4.17265e-07
4.18282e-07
4.19298e-07
4.20314e-07
4.21329e-07
4.22343e-07
4.23356e-07
4.24368e-07
4.2538e-07
4.26391e-07
4.27401e-07
4.2841e-07
4.29418e-07
4.30426e-07
4.31432e-07
4.32438e-07
4.33443e-07
4.34447e-07
4.36223e-07
4.21961e-07
2.18759e-07
6.77439e-07
8.34127e-07
4.24504e-07
6.76426e-07
7.68125e-07
1.83954e-07
3.93455e-07
3.94698e-07
3.95731e-07
3.96764e-07
3.97795e-07
3.98827e-07
3.99857e-07
4.00887e-07
4.01916e-07
4.02944e-07
4.03972e-07
4.04999e-07
4.06025e-07
4.07051e-07
4.08076e-07
4.091e-07
4.10123e-07
4.11146e-07
4.12167e-07
4.13188e-07
4.14209e-07
4.15228e-07
4.16247e-07
4.17265e-07
4.18282e-07
4.19298e-07
4.20314e-07
4.21329e-07
4.22343e-07
4.23356e-07
4.24368e-07
4.2538e-07
4.26391e-07
4.27401e-07
4.2841e-07
4.29418e-07
4.30426e-07
4.31432e-07
4.32438e-07
4.33443e-07
4.34447e-07
4.36223e-07
4.61409e-07
4.57472e-07
6.29957e-07
6.92601e-07
8.79967e-07
6.94084e-07
7.76052e-08
3.92287e-07
3.93663e-07
3.94698e-07
3.95731e-07
3.96764e-07
3.97795e-07
3.98827e-07
3.99857e-07
4.00887e-07
4.01916e-07
4.02944e-07
4.03972e-07
4.04999e-07
4.06025e-07
4.07051e-07
4.08076e-07
4.091e-07
4.10123e-07
4.11146e-07
4.12167e-07
4.13188e-07
4.14209e-07
4.15228e-07
4.16247e-07
4.17265e-07
4.18282e-07
4.19298e-07
4.20314e-07
4.21329e-07
4.22343e-07
4.23356e-07
4.24368e-07
4.2538e-07
4.26391e-07
4.27401e-07
4.2841e-07
4.29418e-07
4.30426e-07
4.31432e-07
4.32438e-07
4.33443e-07
4.34447e-07
4.36223e-07
4.22852e-07
6.69656e-07
3.11527e-07
5.65467e-07
8.24645e-07
7.37452e-07
5.18055e-08
3.92421e-07
3.93664e-07
3.94697e-07
3.95731e-07
3.96764e-07
3.97795e-07
3.98827e-07
3.99857e-07
4.00887e-07
4.01916e-07
4.02944e-07
4.03972e-07
4.04999e-07
4.06025e-07
4.07051e-07
4.08076e-07
4.091e-07
4.10123e-07
4.11146e-07
4.12167e-07
4.13188e-07
4.14209e-07
4.15228e-07
4.16247e-07
4.17265e-07
4.18282e-07
4.19298e-07
4.20314e-07
4.21329e-07
4.22343e-07
4.23356e-07
4.24368e-07
4.2538e-07
4.26391e-07
4.27401e-07
4.2841e-07
4.29418e-07
4.30426e-07
4.31432e-07
4.32438e-07
4.33443e-07
4.34447e-07
4.36223e-07
3.70727e-08
6.45493e-07
3.84921e-08
7.49705e-07
5.48614e-08
7.14297e-07
5.69639e-08
4.48293e-08
6.89622e-07
2.05372e-07
6.7797e-07
6.64719e-08
7.18513e-07
2.76065e-07
6.91565e-07
6.90873e-07
7.00543e-07
7.30578e-07
7.66285e-07
7.58928e-07
7.75948e-07
7.0053e-07
6.83368e-07
7.00985e-07
7.0904e-07
7.75626e-07
7.02772e-07
7.73319e-07
6.9879e-07
6.74235e-07
7.00076e-07
6.90509e-07
7.74176e-07
7.45815e-07
7.77267e-07
6.99474e-07
4.76801e-07
7.00153e-07
7.30141e-07
7.71757e-07
5.00105e-07
7.7417e-07
6.99351e-07
3.79753e-07
7.01286e-07
7.57151e-07
7.72905e-07
6.77376e-07
7.7666e-07
7.00978e-07
6.50808e-07
6.94575e-07
7.38453e-07
7.75973e-07
6.29047e-07
7.67188e-07
5.67185e-07
6.10627e-07
6.40682e-08
6.9152e-07
6.33317e-07
6.61509e-07
9.32162e-08
4.72705e-08
6.9272e-07
3.62488e-08
7.11972e-07
6.9697e-08
6.96354e-07
5.34106e-08
5.48858e-08
7.20424e-07
5.70296e-08
7.24903e-07
5.48646e-08
7.48916e-07
5.69948e-08
6.65712e-08
7.30208e-07
2.75874e-07
7.34923e-07
6.66068e-08
7.22024e-07
2.76045e-07
7.66105e-07
7.59906e-07
7.75777e-07
7.37612e-07
7.6597e-07
7.47471e-07
7.7575e-07
7.75443e-07
6.93605e-07
7.72068e-07
6.99547e-07
7.75032e-07
7.14747e-07
7.75467e-07
7.74694e-07
7.47868e-07
7.75088e-07
6.64662e-07
7.7297e-07
6.45504e-07
7.76865e-07
7.70261e-07
5.39558e-07
7.73362e-07
6.77581e-07
7.70492e-07
6.39161e-07
7.73596e-07
7.71595e-07
6.93351e-07
7.77644e-07
6.71134e-07
7.7281e-07
6.59338e-07
7.76259e-07
7.7568e-07
6.19323e-07
7.67916e-07
7.13695e-07
7.75761e-07
6.49154e-07
7.65832e-07
6.30062e-07
6.58383e-07
9.32338e-08
6.6503e-07
6.35833e-07
7.10506e-07
9.31863e-08
6.98993e-08
7.03454e-07
5.34893e-08
7.34241e-07
7.01186e-08
7.09067e-07
5.367e-08
5.48173e-08
7.18665e-07
5.69239e-08
6.70493e-07
3.70608e-08
6.78405e-07
3.85014e-08
6.65955e-08
7.26055e-07
2.76397e-07
6.92229e-07
4.52644e-08
6.82579e-07
2.05954e-07
7.65944e-07
7.61445e-07
7.75713e-07
6.72585e-07
6.91579e-07
6.9014e-07
7.00596e-07
7.74271e-07
6.72794e-07
7.74638e-07
6.81187e-07
6.98396e-07
5.75632e-07
7.0088e-07
7.72558e-07
7.09126e-07
7.75807e-07
6.84703e-07
6.99548e-07
6.81868e-07
7.0022e-07
7.71756e-07
6.75308e-07
7.73741e-07
6.65666e-07
7.00242e-07
6.72109e-07
7.00244e-07
7.71011e-07
6.77579e-07
7.75214e-07
6.7856e-07
6.99722e-07
6.83283e-07
7.0014e-07
7.75521e-07
6.73607e-07
7.67164e-07
6.35943e-07
7.00907e-07
6.67615e-07
6.94161e-07
6.38109e-07
7.22383e-07
9.31488e-08
6.8223e-07
5.65057e-07
6.81723e-07
6.39967e-08
7.00307e-08
7.11642e-07
5.36522e-08
6.9054e-07
4.73974e-08
6.67905e-07
3.62096e-08
8.87293e-07
8.77898e-07
5.37486e-07
8.92556e-07
8.96979e-07
9.02985e-07
6.6316e-07
7.66729e-07
6.9612e-07
6.67436e-07
7.51927e-07
7.48677e-07
6.94531e-07
7.6978e-07
1.29658e-07
1.2923e-07
1.29657e-07
1.83367e-07
1.84016e-07
1.8327e-07
1.84016e-07
8.97662e-07
8.77549e-07
8.71141e-07
8.53142e-07
9.12536e-07
8.92502e-07
8.7325e-07
7.30178e-07
6.96758e-07
5.80667e-07
7.24295e-07
7.70805e-07
6.60513e-07
6.81217e-07
1.29566e-07
4.20175e-08
1.29566e-07
5.1838e-08
1.83832e-07
6.2162e-08
1.83715e-07
9.00677e-07
8.95102e-07
8.71414e-07
8.85693e-07
9.13061e-07
8.99402e-07
8.99477e-07
7.72494e-07
6.96458e-07
6.33066e-07
7.6032e-07
7.71176e-07
6.62206e-07
6.97087e-07
1.17847e-07
6.9143e-07
3.52763e-08
9.56586e-08
5.20154e-08
7.67758e-07
5.19799e-08
8.63838e-07
8.57088e-07
8.86708e-07
8.70912e-07
8.3788e-07
8.08205e-07
8.64418e-07
5.75761e-07
6.95375e-07
6.81962e-07
7.40166e-07
7.63167e-07
7.33131e-07
4.81961e-07
3.52784e-08
6.99645e-07
3.52927e-08
7.71771e-07
5.19845e-08
7.74266e-07
5.20157e-08
6.29611e-07
4.57259e-07
6.09187e-07
5.29212e-07
4.48285e-07
4.23658e-07
5.88234e-07
7.64165e-07
6.95045e-07
6.5856e-07
6.90691e-07
7.67773e-07
6.92757e-07
6.93347e-07
3.54561e-08
7.01111e-07
3.62662e-08
7.7713e-07
5.2483e-08
7.77066e-07
5.37561e-08
7.80947e-07
9.00474e-07
8.2271e-07
7.14825e-07
6.9638e-07
8.80084e-07
8.02602e-07
7.64531e-07
6.9329e-07
6.45179e-07
7.33653e-07
7.60021e-07
7.14965e-07
6.96672e-07
3.65186e-08
7.0041e-07
3.54639e-08
7.75153e-07
5.41235e-08
7.75149e-07
5.24997e-08
8.7606e-07
8.71592e-07
8.5476e-07
8.68176e-07
8.99685e-07
8.87314e-07
8.94436e-07
7.72668e-07
6.97069e-07
6.89569e-07
7.75556e-07
7.72235e-07
7.58911e-07
6.97568e-07
3.52941e-08
6.97115e-07
3.52782e-08
7.71137e-07
5.20213e-08
7.72156e-07
5.1984e-08
7.03391e-07
8.0023e-07
8.42742e-07
8.38206e-07
8.5523e-07
8.64639e-07
8.91135e-07
6.97565e-07
6.97364e-07
7.00151e-07
7.10072e-07
7.70475e-07
7.1926e-07
6.20516e-07
3.52648e-08
8.51593e-08
3.50725e-08
7.67823e-07
5.198e-08
1.21982e-07
5.20167e-08
8.14407e-07
2.84066e-07
5.95077e-07
5.71895e-07
8.12804e-07
4.02621e-07
7.88861e-07
7.65284e-07
6.95621e-07
6.84193e-07
7.28416e-07
7.63912e-07
7.29962e-07
6.9738e-07
1.29508e-07
3.52079e-08
1.29567e-07
7.77189e-08
1.83716e-07
5.19531e-08
1.83833e-07
2.6036e-07
5.66015e-07
8.35467e-07
7.80701e-07
8.23383e-07
8.42177e-07
8.86289e-07
7.68915e-07
6.96613e-07
6.89909e-07
6.64034e-07
7.69218e-07
7.29344e-07
6.95354e-07
1.29567e-07
1.29224e-07
1.29658e-07
5.18037e-08
1.83833e-07
1.83259e-07
1.84017e-07
8.78006e-07
8.54211e-07
7.04124e-07
8.86686e-07
8.6879e-07
8.22782e-07
8.152e-07
7.67005e-07
7.67025e-07
7.29938e-07
7.36436e-07
7.6788e-07
7.31297e-07
7.67001e-07
1.84011e-07
1.83268e-07
1.84011e-07
1.83365e-07
1.84012e-07
1.83268e-07
1.84011e-07
9.07542e-07
9.11709e-07
9.14162e-07
8.44628e-07
9.11457e-07
8.38652e-07
8.95263e-07
6.7268e-07
7.72148e-07
6.96217e-07
7.06974e-07
6.71386e-07
7.67008e-07
6.89535e-07
1.83827e-07
6.22336e-08
1.8371e-07
5.1838e-08
1.83827e-07
6.22256e-08
1.8371e-07
8.55419e-07
9.08064e-07
9.12041e-07
9.24568e-07
9.12613e-07
8.65182e-07
9.2686e-07
7.66534e-07
7.61639e-07
7.05559e-07
6.96211e-07
7.71636e-07
7.62479e-07
6.9964e-07
5.20151e-08
7.67927e-07
5.19794e-08
9.56774e-08
5.20156e-08
7.6781e-07
5.19795e-08
8.55701e-07
9.22726e-07
9.02622e-07
8.73485e-07
7.79816e-07
8.66585e-07
8.48397e-07
5.58459e-07
7.30785e-07
4.52057e-07
6.75032e-07
5.40445e-07
7.11817e-07
4.20765e-07
5.1984e-08
7.74562e-07
5.20152e-08
7.72147e-07
5.19841e-08
7.72978e-07
5.20145e-08
4.62271e-07
5.0058e-07
6.13206e-07
5.32078e-07
3.81031e-07
4.67991e-07
7.19258e-07
7.43484e-07
7.60531e-07
6.83929e-07
6.62412e-07
7.44298e-07
7.64649e-07
6.3086e-07
5.25226e-08
7.76143e-07
5.38118e-08
7.77381e-07
5.25219e-08
7.75958e-07
5.38148e-08
5.39996e-07
7.15961e-07
5.50571e-07
3.17542e-07
5.47853e-07
3.52628e-07
4.97046e-07
7.55369e-07
7.46663e-07
6.86388e-07
7.0727e-07
7.56378e-07
7.4324e-07
6.34015e-07
5.41827e-08
7.74039e-07
5.25369e-08
7.74564e-07
5.41818e-08
7.73733e-07
5.25372e-08
8.31365e-07
8.45527e-07
7.99422e-07
3.93713e-07
6.41387e-07
3.78561e-07
8.03799e-07
7.57873e-07
7.62509e-07
6.46498e-07
6.58463e-07
7.61003e-07
7.62328e-07
6.88275e-07
5.20216e-08
7.71988e-07
5.19837e-08
7.75689e-07
5.20218e-08
7.72015e-07
5.19837e-08
8.83125e-07
8.06032e-07
9.20235e-07
7.38784e-07
8.90364e-07
9.17857e-07
8.36435e-07
6.87228e-07
7.63867e-07
6.08552e-07
7.31054e-07
6.90328e-07
7.64048e-07
5.70462e-07
5.19795e-08
1.22034e-07
5.20162e-08
7.6775e-07
5.19795e-08
1.22524e-07
5.20162e-08
8.51631e-07
3.68395e-07
7.88959e-07
8.48626e-07
8.50862e-07
5.72252e-07
8.10508e-07
7.50213e-07
7.44921e-07
7.22516e-07
6.33094e-07
7.49176e-07
7.37031e-07
7.31115e-07
1.8371e-07
5.19678e-08
1.83829e-07
7.77045e-08
1.83711e-07
5.19675e-08
1.83829e-07
8.24416e-07
8.09618e-07
8.71871e-07
8.42977e-07
8.44873e-07
4.42745e-07
8.92137e-07
7.65285e-07
7.61478e-07
7.5097e-07
6.95394e-07
7.67134e-07
7.59451e-07
7.7263e-07
1.83829e-07
1.83259e-07
1.84012e-07
5.18056e-08
1.83829e-07
1.83259e-07
1.84012e-07
8.66285e-07
8.2248e-07
8.57486e-07
8.05869e-07
8.08014e-07
7.19071e-07
8.01153e-07
7.6843e-07
7.65205e-07
7.41418e-07
7.32539e-07
7.66803e-07
7.42611e-07
7.6529e-07
1.84016e-07
1.8327e-07
1.84015e-07
1.29278e-07
1.29658e-07
1.2923e-07
1.29658e-07
8.77523e-07
8.97522e-07
9.14868e-07
8.922e-07
8.85968e-07
8.80472e-07
8.73201e-07
7.02422e-07
7.66205e-07
6.67913e-07
7.6765e-07
6.85097e-07
7.67332e-07
6.6912e-07
1.83832e-07
6.21441e-08
1.83715e-07
3.51671e-08
1.29567e-07
4.19947e-08
1.29567e-07
8.79361e-07
9.26914e-07
8.84977e-07
8.79003e-07
8.79981e-07
8.79031e-07
8.86466e-07
7.67871e-07
7.68226e-07
7.43318e-07
7.55767e-07
7.69314e-07
7.66661e-07
7.18581e-07
5.20163e-08
7.67475e-07
5.19798e-08
6.57886e-08
1.17847e-07
6.91442e-07
3.52763e-08
7.38098e-07
9.15752e-07
8.79829e-07
8.71149e-07
6.65088e-07
8.81223e-07
8.67862e-07
6.37054e-07
7.2118e-07
3.94584e-07
7.18602e-07
6.15766e-07
7.05422e-07
3.88053e-07
5.19844e-08
7.74881e-07
5.20153e-08
6.97203e-07
3.52774e-08
7.00722e-07
3.52927e-08
6.09601e-07
4.74639e-07
5.84433e-07
6.32743e-07
6.09428e-07
4.02471e-07
6.14555e-07
7.5844e-07
7.6706e-07
6.5166e-07
7.31128e-07
7.62035e-07
7.6771e-07
6.79431e-07
5.24815e-08
7.76547e-07
5.37578e-08
7.00976e-07
3.54559e-08
7.01178e-07
3.62639e-08
3.95361e-07
4.09579e-07
4.6755e-07
3.75336e-07
6.58021e-07
3.17445e-07
4.55581e-07
7.66431e-07
7.55707e-07
5.95322e-07
6.88244e-07
7.62709e-07
7.61284e-07
6.13868e-07
5.41249e-08
7.74227e-07
5.24991e-08
7.01049e-07
3.65082e-08
7.00433e-07
3.5464e-08
6.46454e-07
3.476e-07
5.16526e-07
4.8649e-07
6.48937e-07
1.50634e-07
5.83818e-07
7.57011e-07
7.68661e-07
7.16e-07
7.17923e-07
7.57092e-07
7.66835e-07
7.1218e-07
5.20213e-08
7.72393e-07
5.1984e-08
7.00046e-07
3.52941e-08
6.97113e-07
3.52782e-08
8.75397e-07
8.93585e-07
8.79587e-07
2.30847e-07
4.93596e-07
8.80285e-07
8.66585e-07
7.17598e-07
7.60633e-07
5.77064e-07
6.44739e-07
7.07997e-07
7.63615e-07
5.71649e-07
5.19799e-08
1.22356e-07
5.20167e-08
6.91382e-07
3.52532e-08
8.47882e-08
3.50726e-08
8.32413e-07
5.69706e-07
8.8801e-07
8.83648e-07
7.28749e-07
8.38773e-07
8.69562e-07
7.59813e-07
7.4717e-07
7.1295e-07
6.80697e-07
7.61554e-07
7.55096e-07
7.098e-07
1.83715e-07
5.19528e-08
1.83833e-07
5.27094e-08
1.29509e-07
3.51982e-08
1.29567e-07
8.00732e-07
3.93009e-07
9.0891e-07
8.05205e-07
6.70033e-07
8.25211e-07
8.80219e-07
7.65719e-07
7.65495e-07
6.18114e-07
7.43768e-07
7.63809e-07
7.65051e-07
5.77683e-07
1.83833e-07
1.83259e-07
1.84017e-07
3.51365e-08
1.29567e-07
1.29224e-07
1.29658e-07
1.3473e-07
1.20434e-07
3.59408e-08
5.47055e-08
5.30764e-08
9.40778e-08
1.69996e-07
7.696e-07
6.51571e-07
6.97094e-07
7.26115e-07
7.32388e-07
7.7202e-07
6.95961e-07
1.97762e-07
3.79781e-08
1.51145e-07
5.67703e-08
5.60173e-08
2.10622e-07
1.41321e-07
7.66562e-07
7.54834e-07
7.67584e-07
7.31224e-07
7.47826e-07
7.67104e-07
7.67778e-07
1.34791e-07
5.48037e-08
1.70029e-07
5.32504e-08
5.3177e-08
1.34888e-07
1.6987e-07
7.70489e-07
7.11986e-07
7.0571e-07
7.72067e-07
7.00602e-07
7.71483e-07
7.70377e-07
1.97839e-07
5.68812e-08
5.61931e-08
2.10895e-07
5.61187e-08
2.10721e-07
1.98e-07
6.38111e-07
2.87672e-07
5.48189e-08
6.59773e-08
3.72853e-07
8.04374e-08
5.60316e-07
7.68027e-07
6.9633e-07
6.93917e-07
7.49823e-07
7.57008e-07
7.68465e-07
6.97925e-07
7.70361e-07
9.69005e-08
6.97773e-07
2.77337e-07
1.38501e-07
7.72523e-07
6.95616e-07
7.09645e-07
7.18669e-07
7.70005e-07
6.66783e-07
7.67668e-07
6.61878e-07
6.92417e-07
6.27584e-07
6.62534e-08
3.65018e-07
8.09514e-08
3.68484e-07
8.0764e-08
6.21629e-07
7.64845e-07
6.80302e-07
7.48322e-07
7.66853e-07
7.45866e-07
7.67159e-07
7.63353e-07
7.69806e-07
2.76298e-07
1.38576e-07
7.72376e-07
1.38533e-07
7.71882e-07
7.70749e-07
7.71436e-07
7.00161e-07
6.96951e-07
7.66116e-07
7.74418e-07
7.7199e-07
6.98345e-07
7.72973e-07
6.39847e-07
7.004e-07
7.69135e-07