/*--------------------------------*- C++ -*----------------------------------*\
| =========                 |                                                 |
| \\      /  F ield         | OpenFOAM: The Open Source CFD Toolbox           |
|  \\    /   O peration     | Version:  5.0                                   |
|   \\  /    A nd           | Web:      www.OpenFOAM.org                      |
|    \\/     M anipulation  |                                                 |
\*---------------------------------------------------------------------------*/
FoamFile
{
    version     2.0;
    format      ascii;
    class       volVectorField;
    location    "2.4";
    object      U;
}
// * * * * * * * * * * * * * * * * * * * * * * * * * * * * * * * * * * * * * //

dimensions      [0 1 -1 0 0 0 0];

internalField   nonuniform List<vector> 
8710
(
(0.00296505 0.010634 0.000223494)
(-0.0143919 -0.00360114 -0.000404048)
(0.00570065 -0.0011604 -0.000670997)
(-0.000292169 0.00883041 0.000862532)
(-0.00271332 -0.00830366 0.000187789)
(-0.000413727 -0.0028166 -9.0635e-05)
(0.000479412 -2.80147e-05 1.76712e-06)
(0.000829282 -1.28402e-05 -1.55809e-06)
(0.000792943 -3.50933e-06 -2.61386e-07)
(0.00080218 -2.07643e-06 1.19992e-07)
(0.000802321 -6.0885e-07 9.77284e-08)
(0.000802622 -3.28067e-07 7.45547e-08)
(0.000802839 -1.87707e-08 2.3819e-09)
(0.000801848 3.4637e-07 4.72388e-08)
(0.000800269 2.19994e-07 5.19194e-08)
(0.000799 6.67605e-08 -1.17123e-08)
(0.000797655 -5.26109e-08 5.65508e-08)
(0.000796389 -6.85072e-08 9.30481e-09)
(0.000794687 -9.36894e-08 4.58322e-08)
(0.000792959 5.29486e-08 5.31388e-08)
(0.000791462 6.10133e-08 1.03838e-07)
(0.000789787 1.41875e-07 6.80805e-08)
(0.00078817 2.96526e-08 2.98193e-08)
(0.000786465 1.1832e-07 5.4827e-08)
(0.000784743 4.01778e-07 7.99963e-08)
(0.000783597 7.25504e-07 1.0299e-07)
(0.000782266 3.37343e-07 5.241e-08)
(0.000780592 1.5815e-07 5.27545e-08)
(0.000778686 1.64395e-07 2.76901e-08)
(0.000777038 -1.12575e-07 1.95845e-07)
(0.000775501 -4.65333e-07 8.26234e-08)
(0.000773674 -5.29527e-07 -4.01624e-08)
(0.000772182 -4.23932e-07 8.76898e-08)
(0.000770868 -1.53959e-07 4.29289e-08)
(0.000769442 5.71313e-08 3.94619e-08)
(0.00076771 2.12252e-07 6.984e-08)
(0.000765895 2.25312e-07 5.10104e-08)
(0.00076408 3.0822e-07 3.04129e-08)
(0.000763196 5.99833e-07 1.00218e-07)
(0.000762134 1.66092e-07 7.96812e-08)
(0.000760249 1.10163e-08 3.67965e-08)
(0.000758674 -5.94798e-08 6.95181e-08)
(0.00075777 -7.94949e-07 7.83219e-08)
(0.00075609 -6.02359e-07 7.60328e-09)
(0.000754209 -3.27497e-07 3.47871e-08)
(0.000752985 -2.23795e-07 -5.92379e-08)
(0.000751521 -1.66149e-07 4.80968e-08)
(0.000750201 -1.89133e-07 6.32795e-08)
(0.000748636 -3.43498e-07 4.13529e-08)
(0.000747089 -3.40841e-07 3.59237e-09)
(0.00574694 -0.00107194 -0.00068939)
(0.0102061 0.0016705 0.000353227)
(-0.000586172 -0.0022764 -3.34434e-06)
(0.0090548 0.00310697 0.000302828)
(-0.00289004 0.00515739 0.000621681)
(-2.26889e-05 0.000914838 1.20239e-06)
(0.000344768 -1.37025e-05 7.38969e-06)
(0.000838508 -2.98489e-05 -2.31439e-06)
(0.000807368 9.42685e-06 -2.32577e-07)
(0.000805253 -3.91198e-06 1.15589e-07)
(0.000804919 -1.58331e-06 3.09292e-08)
(0.000803824 -1.52886e-06 4.11401e-08)
(0.000803047 -9.80805e-07 4.90701e-08)
(0.000801881 -9.17617e-07 4.72803e-08)
(0.000800571 -5.48988e-07 5.01847e-08)
(0.000799124 -3.91238e-07 6.66381e-08)
(0.000797624 7.3897e-09 4.93153e-08)
(0.000796163 1.34528e-07 8.62756e-08)
(0.000794831 8.55003e-08 9.64953e-09)
(0.000793284 2.92817e-08 2.66051e-08)
(0.000791547 1.01294e-07 -6.24833e-08)
(0.00078981 1.25871e-07 6.27072e-08)
(0.000788227 4.92613e-07 -1.60507e-08)
(0.000787045 4.19336e-07 5.26371e-08)
(0.000785686 5.16971e-07 -3.20703e-08)
(0.000783339 5.21356e-07 2.83983e-08)
(0.000781363 2.16519e-07 3.08302e-08)
(0.000780192 -7.91899e-08 5.26025e-08)
(0.000778499 -5.06958e-07 7.3195e-08)
(0.000776598 -3.53664e-07 7.43006e-08)
(0.000775134 -3.37006e-07 -1.29832e-07)
(0.000773765 -2.05481e-07 1.03419e-08)
(0.000772448 2.71998e-07 1.22662e-07)
(0.00077123 2.91874e-07 1.02728e-07)
(0.000769543 8.49706e-08 4.97364e-08)
(0.000767847 6.33695e-08 3.47086e-08)
(0.000766419 1.21638e-07 4.34656e-08)
(0.000765101 3.53083e-07 1.19862e-08)
(0.000763027 6.54322e-07 1.41287e-08)
(0.000761135 2.82813e-07 4.00242e-07)
(0.000759953 9.60207e-08 4.13306e-08)
(0.00075825 -2.962e-08 6.36957e-08)
(0.000756814 -2.11263e-07 7.76063e-08)
(0.000756196 -7.3832e-07 8.63609e-08)
(0.000754811 -3.00335e-07 5.74767e-08)
(0.000752999 -2.10096e-07 4.9994e-08)
(0.000751635 -7.0888e-08 8.20335e-08)
(0.00075021 -9.91148e-08 4.47825e-08)
(0.000748692 -2.15589e-07 -5.37076e-08)
(0.000747566 -2.18235e-07 1.06343e-07)
(-0.0156813 0.00392012 0.000175157)
(0.0083862 -0.00885056 -0.00087708)
(0.00503002 0.00192296 0.000828028)
(-0.0067313 -0.00199107 -9.53072e-06)
(0.00237465 -0.000604459 -0.000721198)
(-0.000815573 0.000261237 2.18335e-05)
(0.000535575 -0.000105968 2.36594e-05)
(0.000423553 -1.37047e-05 -7.23977e-07)
(0.00084658 -3.02091e-06 -1.54325e-06)
(0.000788492 -9.96921e-06 -4.24509e-07)
(0.000805288 -4.73029e-06 2.02429e-07)
(0.000803368 -3.07802e-06 4.89945e-08)
(0.000803601 -2.00968e-06 6.26387e-08)
(0.000802388 -1.32338e-06 5.48984e-08)
(0.000800928 -8.34208e-07 5.72166e-08)
(0.000799696 -5.2535e-07 5.82511e-08)
(0.000798313 -3.67333e-07 -4.65415e-08)
(0.000796486 -1.69491e-07 4.56058e-08)
(0.000794555 -1.49581e-07 1.75972e-07)
(0.000792977 -1.12197e-07 4.94643e-08)
(0.000791581 -9.70457e-08 2.16068e-07)
(0.000790273 -4.05749e-08 4.71741e-08)
(0.000788533 1.37648e-08 9.4481e-08)
(0.00078649 1.45691e-08 6.87357e-08)
(0.000784866 -2.21214e-07 3.80393e-08)
(0.000783217 -2.98441e-07 9.47338e-08)
(0.000781514 -7.2184e-08 6.65086e-08)
(0.00077969 -7.51212e-08 5.92999e-08)
(0.000778346 -1.26141e-07 1.81691e-08)
(0.000777255 2.0965e-07 1.4435e-08)
(0.00077569 3.96939e-07 2.21665e-07)
(0.000774436 4.21126e-07 6.87018e-08)
(0.000772803 4.37464e-07 3.68595e-09)
(0.000770632 3.03358e-07 1.78417e-08)
(0.000769154 9.02468e-08 9.00436e-08)
(0.000767754 1.20074e-07 5.48304e-08)
(0.000766256 8.62998e-08 5.50411e-08)
(0.000764743 -2.39757e-08 5.12816e-08)
(0.000763104 -1.7535e-07 2.88675e-08)
(0.000761434 6.66365e-08 1.01337e-07)
(0.000759857 1.10063e-07 6.73282e-08)
(0.000758291 1.5486e-07 -1.24779e-07)
(0.000756888 5.24169e-07 1.32007e-07)
(0.000755982 5.88238e-07 1.48335e-07)
(0.000754873 1.39575e-07 8.31795e-08)
(0.000753273 1.71808e-07 4.5365e-08)
(0.000751662 2.39718e-07 3.94082e-08)
(0.000750022 3.40453e-07 5.29471e-08)
(0.000748493 1.28968e-07 3.60723e-08)
(0.000747629 1.18011e-07 1.23856e-07)
(0.00411105 0.0110926 0.000262726)
(0.00440723 0.00211823 -0.000789423)
(0.00278449 -0.00343456 0.000254163)
(0.00826409 0.00250546 0.000225792)
(-0.000657334 0.00219281 0.000479654)
(0.000892915 -0.00323434 8.29783e-06)
(0.000942166 -0.000143366 0.000100114)
(0.000442606 -5.08471e-05 -1.30175e-06)
(0.000881348 -1.48527e-05 -1.59176e-06)
(0.000803249 -1.17775e-05 -5.06206e-07)
(0.000813564 -6.31538e-06 1.30842e-07)
(0.000807241 -3.77038e-06 -5.25965e-08)
(0.000805251 -2.47381e-06 5.30064e-08)
(0.000803358 -1.4565e-06 5.28183e-08)
(0.000801574 -7.45125e-07 5.14024e-08)
(0.000799711 -4.34822e-07 5.17807e-08)
(0.000798072 -5.03149e-07 5.15451e-08)
(0.000796437 -5.10744e-07 5.18308e-08)
(0.000794904 -5.22495e-07 4.44726e-08)
(0.000793351 -3.3204e-07 3.17287e-08)
(0.000791638 -2.72776e-07 6.53473e-08)
(0.00078995 -2.98508e-07 5.1545e-08)
(0.000788296 -5.25811e-07 -2.06009e-09)
(0.000786753 -3.12898e-07 6.73186e-08)
(0.000785296 -2.16769e-07 2.17175e-07)
(0.000783527 -5.94586e-08 6.52944e-08)
(0.000781643 1.03678e-07 6.28287e-08)
(0.000780126 3.5326e-07 5.55926e-08)
(0.000778854 6.7261e-07 2.78646e-08)
(0.000777249 3.85751e-07 4.91291e-08)
(0.000775394 3.54112e-07 6.99004e-08)
(0.000773811 5.01696e-07 4.8991e-08)
(0.000772297 1.21381e-09 4.82705e-08)
(0.000770794 -1.0313e-08 5.00206e-08)
(0.000769313 8.11134e-08 1.21412e-08)
(0.000767842 3.44154e-08 8.34037e-08)
(0.000766238 -3.76711e-09 5.19614e-08)
(0.000764774 -6.29336e-08 4.09347e-08)
(0.00076314 -2.09707e-07 1.98148e-08)
(0.000761492 -1.70726e-07 8.36161e-08)
(0.000760062 -6.42967e-09 6.21309e-08)
(0.000758765 1.46197e-07 8.88156e-08)
(0.000757353 3.6e-07 9.97073e-08)
(0.00075571 6.19528e-07 -1.0083e-07)
(0.000754286 2.20299e-07 6.11942e-08)
(0.000753121 1.20747e-07 7.26191e-08)
(0.000751843 1.41321e-07 7.31753e-08)
(0.000750069 2.93711e-07 4.93302e-08)
(0.00074841 2.07446e-07 4.82472e-08)
(0.000747257 2.79375e-07 1.48408e-07)
(0.00107735 0.00682803 -0.000554183)
(0.00308884 -0.0109814 -1.10704e-05)
(-0.0140493 0.00241522 0.000772021)
(-0.00354241 0.00166421 -0.00147156)
(0.00922277 -0.0108113 0.00039422)
(0.00867288 0.000449578 0.000316699)
(0.00114818 0.000126893 1.88813e-05)
(0.000493062 3.34623e-05 1.24995e-06)
(0.000901325 -4.078e-06 -6.7203e-07)
(0.000799241 -6.14989e-06 -6.45719e-07)
(0.000815362 -3.60268e-06 2.30222e-07)
(0.000808206 -2.74433e-06 4.68179e-08)
(0.000806515 -1.42014e-06 2.10562e-07)
(0.000804562 -1.02563e-06 5.65933e-08)
(0.000802212 -8.39071e-07 -7.34448e-09)
(0.000800003 -5.44809e-07 7.60472e-08)
(0.000798221 -2.23231e-07 5.24807e-08)
(0.000796465 -1.53967e-07 5.74455e-08)
(0.000794781 3.20793e-08 2.18721e-07)
(0.000793293 6.30792e-08 1.02358e-08)
(0.000791627 -5.17621e-08 6.44068e-08)
(0.000789961 6.28594e-08 3.21524e-08)
(0.000788519 6.38464e-08 2.89077e-07)
(0.000786881 7.409e-08 1.05377e-07)
(0.000785185 4.68397e-08 9.34498e-08)
(0.000783619 -4.14037e-07 1.14368e-07)
(0.000782028 -2.83122e-10 6.50252e-08)
(0.000780397 1.95344e-07 5.79454e-08)
(0.000778381 4.10129e-07 2.40847e-07)
(0.00077685 5.88039e-07 4.95669e-08)
(0.000775829 3.04849e-07 -4.78134e-08)
(0.00077399 3.23568e-08 4.16315e-08)
(0.000772159 2.01207e-07 4.44901e-07)
(0.00077073 1.4555e-07 5.30439e-08)
(0.00076921 1.81521e-07 4.52275e-08)
(0.000767648 2.52019e-08 4.84564e-08)
(0.000766134 -4.40747e-08 1.16765e-08)
(0.000764487 -1.14546e-07 5.23161e-08)
(0.000762971 -1.5714e-07 4.27433e-08)
(0.000761689 -1.33812e-07 -1.73048e-07)
(0.000760253 5.82461e-08 6.08194e-08)
(0.000758746 1.22506e-07 4.07131e-07)
(0.000757475 6.3062e-08 1.06973e-08)
(0.000755803 3.88696e-08 5.80845e-08)
(0.000754247 3.04352e-08 5.98908e-08)
(0.000753173 -1.2912e-07 4.88976e-08)
(0.000751877 -4.4009e-07 1.78431e-08)
(0.000750103 -7.71389e-07 4.75454e-08)
(0.000748469 -2.95463e-07 7.37751e-08)
(0.000747023 3.59509e-08 5.01415e-08)
(0.0166886 0.0105469 -0.00096884)
(0.0295219 0.0116548 0.000634774)
(-0.00700334 0.000201566 -0.000304001)
(-0.00205613 0.00615367 -0.000238091)
(-0.00491214 0.00797177 -0.000652743)
(0.00794655 -0.00595881 0.000170922)
(0.00119246 -0.00064686 -6.89257e-06)
(0.000533611 -8.14672e-06 2.13723e-06)
(0.000910251 -1.1565e-05 -7.72989e-07)
(0.000804088 -2.67237e-06 -5.87871e-07)
(0.000817876 -1.48694e-06 2.33144e-07)
(0.000810003 -5.95012e-07 3.44457e-08)
(0.000807422 -7.75588e-08 7.20553e-09)
(0.000804098 -1.59477e-07 5.2544e-08)
(0.000802184 -2.96062e-07 7.42196e-08)
(0.000800487 -2.19442e-07 4.44094e-08)
(0.000798564 -1.39491e-07 5.4633e-08)
(0.000796758 -5.12145e-08 4.12794e-08)
(0.000795176 -3.4677e-08 2.44257e-08)
(0.000793246 1.10621e-07 9.22231e-08)
(0.000791637 1.71283e-07 2.12432e-08)
(0.000790094 1.79909e-07 1.68415e-07)
(0.00078831 1.48848e-07 1.10461e-07)
(0.000786731 2.76374e-08 7.27873e-08)
(0.000784686 3.0772e-08 6.7975e-08)
(0.000783469 1.57247e-07 -1.54836e-08)
(0.000782406 -7.15744e-08 6.87827e-08)
(0.000780637 -1.69541e-07 1.48004e-08)
(0.000779341 -1.12366e-07 3.35011e-08)
(0.000777114 -2.14025e-07 -5.44677e-08)
(0.000774697 -2.54164e-07 2.15986e-08)
(0.000773679 -2.55958e-07 1.85016e-07)
(0.000772438 -1.82268e-07 1.94873e-08)
(0.000770767 -1.11879e-07 -1.05464e-07)
(0.000769161 -1.28095e-07 -3.3953e-08)
(0.000767559 -3.71845e-08 4.69294e-08)
(0.000766064 -1.38e-08 4.84969e-08)
(0.000764634 8.60932e-08 5.24182e-08)
(0.000763118 1.73391e-07 6.3552e-08)
(0.000761762 1.72687e-07 5.86174e-08)
(0.000760382 1.94229e-07 5.39651e-08)
(0.00075877 3.92133e-07 2.58893e-07)
(0.000757247 2.57571e-07 -1.80156e-09)
(0.00075567 1.95665e-09 5.62071e-08)
(0.000754077 1.38102e-08 3.09774e-08)
(0.000752536 -1.52504e-07 4.63192e-08)
(0.000751044 -4.75376e-07 -7.57666e-08)
(0.000750254 -6.51491e-07 -1.18169e-08)
(0.00074942 -4.52221e-07 8.78421e-08)
(0.000747582 -3.29365e-07 1.28163e-07)
(0.00178911 -0.0101317 0.000544199)
(0.0089191 0.000385637 -0.000190161)
(0.011629 -0.0026513 -0.00123383)
(-0.000982161 -0.0062912 0.000966408)
(0.0174901 0.0202114 -0.000469134)
(-0.000876744 0.00858881 0.000491447)
(0.00139977 0.000129876 -2.56847e-05)
(0.000520996 -2.93409e-06 -1.16276e-07)
(0.00089909 1.29008e-05 -1.78099e-06)
(0.00081186 1.04353e-05 -5.10269e-07)
(0.000818002 4.86444e-06 1.41288e-07)
(0.000809993 2.96335e-06 9.72288e-09)
(0.000807074 1.46428e-06 5.50102e-08)
(0.000804297 9.16666e-07 5.34035e-08)
(0.000802143 6.06393e-07 5.06713e-08)
(0.000800203 4.05049e-07 5.53427e-08)
(0.000798434 2.98834e-07 5.33387e-08)
(0.000796598 2.20032e-07 7.7621e-08)
(0.000794983 2.48197e-07 5.04142e-08)
(0.000793549 -4.6194e-08 5.39835e-08)
(0.000791711 1.26141e-07 3.67685e-08)
(0.000789931 -1.31102e-08 5.03896e-08)
(0.000788327 7.10206e-08 1.31364e-08)
(0.000786732 -5.32087e-09 6.28083e-08)
(0.000785346 7.70026e-08 1.80294e-08)
(0.00078349 3.08026e-07 1.12258e-07)
(0.00078162 -4.91827e-08 7.44556e-08)
(0.000780347 -2.74348e-07 4.74638e-08)
(0.000778328 -6.57965e-07 -2.873e-08)
(0.000776676 -9.99176e-07 1.23005e-07)
(0.000775779 -6.37165e-07 -7.90986e-08)
(0.000774084 -1.405e-07 8.95455e-08)
(0.000772342 -3.72369e-08 4.2189e-08)
(0.0007708 -8.891e-08 6.43589e-08)
(0.000769304 -1.24055e-07 9.57618e-08)
(0.000767792 -3.60869e-08 5.69001e-08)
(0.000766288 9.9574e-10 5.17198e-08)
(0.00076472 7.53467e-09 6.81542e-08)
(0.000763078 3.38022e-08 5.28742e-08)
(0.000761714 2.21037e-07 -5.10112e-08)
(0.000760526 7.06408e-09 4.3323e-08)
(0.000758823 -1.86981e-07 -1.73218e-08)
(0.000756987 -6.47251e-08 8.4399e-08)
(0.000755498 -1.82987e-07 5.54824e-08)
(0.000754055 -6.71732e-08 1.45517e-08)
(0.000752564 1.66716e-08 5.02068e-08)
(0.000751257 1.16436e-08 7.95722e-08)
(0.000750137 1.44524e-07 3.73065e-08)
(0.000748881 -2.41262e-07 3.71807e-08)
(0.000747998 -3.23253e-07 4.585e-08)
(0.0130968 0.0239352 -0.00247249)
(-0.0200958 -0.00567647 -0.00112032)
(-0.00337732 0.00373631 0.00295625)
(-0.0216368 -0.00322635 -0.00927123)
(0.00927683 -0.0131621 0.00141408)
(-0.000763269 -0.00839672 -0.000182829)
(0.00118672 -0.000166569 0.000113325)
(0.000459336 4.48115e-05 8.84079e-07)
(0.000855199 1.19936e-05 -1.02188e-06)
(0.000794112 1.40867e-05 -4.05828e-07)
(0.000808511 6.72723e-06 1.97299e-07)
(0.000805743 4.28391e-06 5.06016e-08)
(0.000804858 2.51625e-06 6.35897e-08)
(0.000803023 1.48778e-06 5.55865e-08)
(0.000801543 9.59307e-07 5.50793e-08)
(0.000800101 5.63907e-07 5.55096e-08)
(0.000798331 2.41076e-07 1.05141e-07)
(0.000796693 1.22844e-07 8.85389e-08)
(0.000794842 1.37725e-07 8.53077e-08)
(0.000793093 1.20124e-07 7.80511e-08)
(0.000791679 -8.45055e-08 5.0227e-08)
(0.000790024 -6.42887e-08 5.03434e-08)
(0.000788319 -1.70961e-07 5.82806e-08)
(0.000786738 -1.06166e-07 5.17251e-08)
(0.000785077 -2.86264e-07 6.70445e-08)
(0.00078331 -3.85796e-07 5.0652e-08)
(0.000781677 -1.28216e-07 -1.87145e-07)
(0.000779878 -9.56994e-08 2.54527e-07)
(0.000778441 -1.87483e-07 1.12322e-07)
(0.000777146 3.59246e-07 4.48026e-08)
(0.000775775 4.09074e-07 9.79264e-08)
(0.000774431 8.53489e-08 1.16347e-07)
(0.000772503 1.38964e-08 4.41576e-08)
(0.000770659 1.30671e-07 4.99169e-08)
(0.000769228 3.96251e-08 6.23243e-08)
(0.000767716 -9.42641e-08 3.27447e-08)
(0.000766119 -1.14394e-07 5.72767e-08)
(0.000764675 -2.42917e-07 1.63689e-08)
(0.000763383 -6.63106e-08 4.46683e-08)
(0.000761728 -4.85117e-08 2.98549e-08)
(0.000759872 -1.36494e-07 2.34021e-08)
(0.000758681 -2.03558e-07 5.50832e-08)
(0.000757254 -2.0067e-07 1.43068e-08)
(0.000755668 -8.61469e-08 4.58225e-08)
(0.000754328 -5.20261e-08 7.27771e-08)
(0.000752635 1.1849e-07 4.71898e-08)
(0.000751205 4.64136e-07 4.29988e-08)
(0.000749939 3.53112e-07 5.18277e-08)
(0.000748845 2.72388e-07 6.71802e-09)
(0.000748286 -3.93161e-08 5.86492e-08)
(0.00672163 -0.0205615 0.00312694)
(-0.0295192 0.00239429 0.000262897)
(0.00416793 0.0229522 -0.00416216)
(0.0116781 -0.00102861 0.000162825)
(0.00171523 0.0051231 4.74636e-05)
(-0.000345126 -0.00376406 -0.000169048)
(0.000398913 0.0001532 4.30954e-05)
(0.000824984 3.95459e-05 -2.37002e-06)
(0.000804201 -2.0496e-06 -2.10195e-07)
(0.000805081 7.76119e-06 -2.86243e-09)
(0.00080569 4.07741e-06 3.85151e-08)
(0.0008047 3.18708e-06 -1.10724e-08)
(0.00080356 1.98431e-06 -1.77069e-07)
(0.00080234 1.08598e-06 5.42778e-08)
(0.000800981 8.46891e-07 6.37543e-08)
(0.000799301 5.98351e-07 1.14995e-07)
(0.00079788 3.44341e-07 1.03051e-07)
(0.000796467 1.71932e-07 2.29768e-07)
(0.000794979 -3.70063e-08 1.60787e-08)
(0.000793271 4.23629e-08 8.51672e-08)
(0.000791481 -3.83463e-08 5.9441e-08)
(0.000789824 -1.51049e-07 4.09817e-08)
(0.000788276 -1.78284e-07 4.1064e-08)
(0.00078659 -2.01659e-07 5.66095e-08)
(0.000784999 -3.04406e-07 3.33659e-08)
(0.00078369 -3.21052e-07 6.26089e-08)
(0.000781985 -2.15693e-07 2.78892e-08)
(0.000780274 -4.02503e-09 5.05141e-08)
(0.000778896 2.09581e-07 6.69719e-08)
(0.00077742 3.14062e-07 -1.30395e-08)
(0.000775434 4.0071e-07 -1.64642e-08)
(0.000773587 2.16545e-07 1.05688e-07)
(0.000772398 -1.77503e-07 -3.11622e-07)
(0.000770831 -2.06039e-07 6.4727e-08)
(0.000769023 -2.04844e-07 4.3056e-08)
(0.0007676 -3.21441e-07 8.55793e-08)
(0.000766104 -2.68533e-07 -3.55133e-08)
(0.000764781 -1.77233e-07 5.93843e-08)
(0.000763322 -3.01145e-07 8.90717e-08)
(0.000761626 -3.19953e-07 4.16746e-08)
(0.000760333 -1.86389e-07 5.96241e-08)
(0.000758745 -3.09042e-08 2.0582e-08)
(0.000757135 2.72443e-07 5.31177e-08)
(0.000755686 1.58239e-07 3.99937e-08)
(0.000754311 2.24661e-07 7.34539e-08)
(0.000753208 1.64435e-07 5.26818e-08)
(0.000751548 3.54878e-07 5.65263e-08)
(0.000749894 4.75545e-07 3.87527e-08)
(0.000748389 7.51255e-07 -7.4511e-08)
(0.000747704 5.10131e-07 8.89169e-08)
(0.00494241 -0.00642382 0.00616907)
(0.00651182 0.00865351 7.64155e-05)
(-0.00665095 0.00167835 -0.000113933)
(0.0203822 0.0215983 0.00177999)
(0.0118631 0.00481556 -0.000474542)
(-0.00348396 -0.00247869 -8.60344e-05)
(0.000312949 -1.08102e-05 4.83633e-06)
(0.000816653 1.32032e-05 -1.95708e-06)
(0.000794096 4.93287e-06 -1.1362e-07)
(0.000801647 4.27389e-06 9.0398e-08)
(0.000802749 2.65841e-06 1.01371e-07)
(0.0008031 1.61035e-06 4.69071e-08)
(0.000802213 1.01593e-06 1.70189e-07)
(0.00080159 1.04582e-06 7.39388e-08)
(0.000800926 6.30869e-07 5.4198e-08)
(0.000799467 4.81596e-07 6.50021e-08)
(0.000797795 3.94175e-07 4.66463e-08)
(0.000796215 3.04587e-07 1.25778e-07)
(0.00079468 3.33947e-07 3.6625e-08)
(0.000793091 7.20129e-08 7.6095e-08)
(0.000791437 8.47043e-08 2.77878e-08)
(0.000789851 5.70164e-08 6.03613e-08)
(0.000788258 5.53113e-08 5.92333e-08)
(0.000786583 -2.79091e-08 4.56178e-08)
(0.000784931 -4.47101e-08 -3.10031e-08)
(0.000783424 -2.33348e-07 -6.32617e-08)
(0.000782076 -1.20406e-07 5.35776e-08)
(0.000780411 -8.82929e-09 4.77456e-08)
(0.000778837 1.34197e-07 8.39784e-08)
(0.000777383 -1.77309e-07 5.58824e-08)
(0.000775651 -1.72015e-07 1.32032e-07)
(0.000773708 -1.25606e-07 -1.04018e-08)
(0.000771976 -1.0484e-07 -7.3017e-08)
(0.000770627 -3.00353e-07 3.19394e-08)
(0.000769086 -7.76145e-08 4.84916e-08)
(0.000767639 3.36638e-08 -1.9129e-08)
(0.000766301 1.03228e-08 -1.5585e-08)
(0.000764636 -1.33325e-07 5.04639e-08)
(0.000763208 -5.51695e-07 5.58732e-08)
(0.000761874 -2.36263e-07 6.00078e-08)
(0.000760236 -1.47326e-07 5.74296e-08)
(0.000759255 -3.05152e-07 7.81641e-08)
(0.00075749 -2.05638e-07 3.8266e-08)
(0.000755607 2.02982e-07 1.30646e-07)
(0.000754335 1.18251e-07 1.67594e-08)
(0.000752795 1.23363e-07 4.36014e-08)
(0.000751589 -5.9193e-08 7.17712e-08)
(0.000750429 1.03783e-07 3.39523e-08)
(0.000748873 1.87976e-07 -3.7227e-08)
(0.000746713 3.07541e-07 6.18102e-08)
(-0.018149 -0.00997717 0.00306088)
(0.0016768 -0.0107307 -0.00234362)
(-0.00529737 -0.0200501 -0.0062971)
(-0.00261523 0.00106832 0.000236755)
(0.00929007 -0.00233395 -8.82207e-05)
(0.00155794 -0.00035263 -0.000151089)
(0.00138857 -6.192e-05 4.46079e-06)
(0.00138911 -1.44869e-05 3.61703e-07)
(0.00132556 -1.52947e-06 3.29062e-07)
(0.00133965 -7.59584e-07 3.48349e-07)
(0.0013391 6.46314e-07 3.81225e-07)
(0.00133908 4.6587e-07 3.41383e-07)
(0.00133909 5.58672e-07 2.60076e-07)
(0.00133729 8.97675e-07 1.81354e-07)
(0.00133457 5.78529e-07 3.43752e-07)
(0.00133234 2.74736e-07 2.98245e-07)
(0.00133004 1.36274e-08 3.35649e-07)
(0.00132784 -2.40265e-09 1.10209e-08)
(0.00132496 -1.08244e-07 3.29518e-07)
(0.00132211 8.34908e-08 2.86107e-07)
(0.00131964 1.17509e-07 5.07858e-07)
(0.00131679 3.24079e-07 3.64787e-07)
(0.00131411 1.3722e-07 2.95211e-07)
(0.00131136 2.37066e-07 2.90074e-07)
(0.0013085 7.19621e-07 3.40866e-07)
(0.0013065 1.21421e-06 3.75668e-07)
(0.00130428 5.91251e-07 2.85144e-07)
(0.00130161 2.56161e-07 3.35627e-07)
(0.00129842 2.79739e-07 2.97486e-07)
(0.00129557 -2.69232e-07 4.97141e-07)
(0.00129303 -9.04451e-07 3.58405e-07)
(0.00129 -9.19235e-07 1.41625e-07)
(0.00128757 -7.03636e-07 3.7477e-07)
(0.00128553 -2.31613e-07 2.7663e-07)
(0.00128317 1.47897e-07 3.09713e-07)
(0.00128027 3.98248e-07 3.26825e-07)
(0.00127722 3.77637e-07 3.10685e-07)
(0.0012742 5.12139e-07 2.51147e-07)
(0.00127265 9.99116e-07 3.04691e-07)
(0.00127089 3.85999e-07 4.18026e-07)
(0.00126785 4.78079e-08 3.1082e-07)
(0.00126521 -8.64764e-08 3.34862e-07)
(0.00126372 -1.22578e-06 3.379e-07)
(0.00126094 -9.1836e-07 2.09641e-07)
(0.00125787 -5.28462e-07 3.15969e-07)
(0.00125578 -3.82803e-07 1.89586e-07)
(0.00125332 -2.85459e-07 2.90963e-07)
(0.00125117 -3.63377e-07 3.24132e-07)
(0.00124851 -5.78803e-07 3.34463e-07)
(0.00124586 -5.46612e-07 2.00045e-07)
(-0.000350317 0.000827621 0.000209917)
(0.0226594 0.0104038 0.00649556)
(-0.00537506 -0.00956565 -0.000224563)
(-0.00439442 0.0018798 0.000614014)
(0.00225165 0.00230419 0.00141743)
(-0.000845765 0.00153211 6.63346e-05)
(0.00146597 -5.27664e-05 1.27635e-05)
(0.00139844 -4.07756e-05 3.59954e-07)
(0.00134646 2.10359e-05 3.95764e-07)
(0.00134277 -3.05971e-06 6.05929e-07)
(0.00134215 -5.01822e-07 3.37448e-07)
(0.0013403 -1.18616e-06 3.36034e-07)
(0.00133898 -7.78549e-07 3.36434e-07)
(0.00133702 -9.66992e-07 3.33061e-07)
(0.00133484 -5.91252e-07 3.35006e-07)
(0.00133242 -4.58121e-07 2.74762e-07)
(0.00132994 7.3507e-08 3.36145e-07)
(0.00132747 1.99798e-07 3.69748e-07)
(0.00132516 1.584e-07 2.40728e-07)
(0.00132257 7.5508e-08 3.0177e-07)
(0.00131976 2.19511e-07 1.58451e-07)
(0.00131689 2.27388e-07 2.99333e-07)
(0.00131419 8.67575e-07 2.97817e-07)
(0.00131224 7.51333e-07 5.76589e-07)
(0.00130996 9.05175e-07 9.51968e-08)
(0.00130609 8.70081e-07 3.93894e-07)
(0.00130285 3.7589e-07 3.11888e-07)
(0.00130089 -1.69881e-07 3.26156e-07)
(0.00129803 -9.87425e-07 3.18473e-07)
(0.00129481 -6.894e-07 3.35562e-07)
(0.00129252 -5.96142e-07 4.48805e-08)
(0.00129034 -3.64657e-07 2.65804e-07)
(0.00128811 5.29125e-07 4.61933e-07)
(0.00128607 5.981e-07 4.40873e-07)
(0.00128327 1.84471e-07 3.26661e-07)
(0.00128041 1.16606e-07 3.09516e-07)
(0.00127802 2.06741e-07 3.1157e-07)
(0.00127584 5.84489e-07 1.02585e-07)
(0.0012725 1.07552e-06 3.37701e-07)
(0.00126934 5.46561e-07 7.37628e-07)
(0.00126725 1.66198e-07 3.04035e-07)
(0.0012645 -8.96294e-08 3.54885e-07)
(0.00126216 -3.97026e-07 2.96392e-07)
(0.00126106 -1.17348e-06 4.21017e-07)
(0.00125874 -4.75122e-07 3.45092e-07)
(0.00125582 -3.79052e-07 2.72358e-07)
(0.00125355 -7.70194e-08 4.87205e-07)
(0.00125115 -1.64014e-07 3.00677e-07)
(0.00124862 -3.88356e-07 1.09705e-07)
(0.00124675 -3.73038e-07 3.9508e-07)
(-0.00482222 0.00387969 0.000258968)
(-0.00274937 0.0123852 -0.00100133)
(-0.00305289 0.00712814 -0.00345912)
(0.00559614 -0.00542325 4.50018e-05)
(0.00271739 0.00184406 -0.00262165)
(0.00248166 0.00426327 0.00109065)
(0.00118254 0.000310153 3.11581e-05)
(0.00126954 -2.62074e-05 4.84421e-07)
(0.001409 -6.01768e-07 -3.10237e-07)
(0.00131287 -1.37407e-05 3.28479e-07)
(0.00134141 -6.10025e-06 3.36336e-07)
(0.00133871 -4.0243e-06 3.35196e-07)
(0.00133936 -2.65415e-06 3.35531e-07)
(0.00133752 -1.77092e-06 3.3602e-07)
(0.0013352 -1.12789e-06 3.35237e-07)
(0.00133318 -7.33116e-07 3.32938e-07)
(0.00133087 -5.29437e-07 -4.0112e-08)
(0.00132795 -2.8168e-07 2.63158e-07)
(0.0013248 -2.83895e-07 5.68372e-07)
(0.00132218 -2.07662e-07 3.24797e-07)
(0.00131982 -1.60213e-07 4.93768e-07)
(0.0013176 -8.28931e-08 3.2341e-07)
(0.00131476 2.0006e-08 3.56887e-07)
(0.0013114 4.98671e-08 2.96246e-07)
(0.00130864 -4.09049e-07 2.86223e-07)
(0.00130583 -4.84132e-07 3.8943e-07)
(0.00130298 -1.17256e-07 3.4233e-07)
(0.00129991 -9.61046e-08 3.18238e-07)
(0.00129778 -2.05622e-07 1.92994e-07)
(0.00129607 4.28252e-07 2.63878e-07)
(0.00129344 7.88443e-07 4.98494e-07)
(0.00129141 7.828e-07 4.73292e-07)
(0.00128877 7.29748e-07 2.21514e-07)
(0.00128509 5.21435e-07 1.87742e-07)
(0.00128256 1.27221e-07 3.64796e-07)
(0.00128029 1.69227e-07 3.32005e-07)
(0.0012778 1.47936e-07 2.76024e-07)
(0.00127528 -2.32065e-08 3.43633e-07)
(0.0012726 -2.45234e-07 3.0477e-07)
(0.00126975 5.83268e-08 4.07157e-07)
(0.00126706 1.57525e-07 3.51682e-07)
(0.00126451 2.54582e-07 3.46398e-08)
(0.00126237 9.27581e-07 7.28359e-07)
(0.00126085 9.80497e-07 3.55392e-07)
(0.00125887 3.49602e-07 3.44525e-07)
(0.00125628 3.67809e-07 2.99555e-07)
(0.00125359 4.58896e-07 3.09762e-07)
(0.00125079 5.60707e-07 1.31218e-07)
(0.00124826 2.213e-07 2.82054e-07)
(0.00124681 1.87412e-07 5.17437e-07)
(0.0127723 0.00336001 -0.00114575)
(0.00169178 0.00837928 0.00174733)
(0.00431814 0.000281515 -0.00102821)
(0.0139854 0.00564702 -0.00132434)
(0.00670662 0.0028781 0.00154448)
(0.00242087 0.00603406 -0.000398766)
(0.001041 -0.000284151 -3.8049e-05)
(0.00131701 -0.000142669 3.3127e-07)
(0.00146497 -2.28727e-05 3.00934e-07)
(0.00133614 -1.83909e-05 4.47109e-07)
(0.00135434 -9.77043e-06 3.40314e-07)
(0.00134463 -5.82972e-06 2.95471e-07)
(0.00134181 -3.82108e-06 3.36908e-07)
(0.00133894 -2.23747e-06 3.36185e-07)
(0.00133615 -1.1379e-06 3.36249e-07)
(0.00133318 -6.37038e-07 3.34087e-07)
(0.00133051 -7.47259e-07 3.34215e-07)
(0.00132778 -7.46675e-07 3.10154e-07)
(0.00132525 -8.21138e-07 2.97764e-07)
(0.00132273 -5.59117e-07 3.01488e-07)
(0.00131992 -4.84109e-07 3.37664e-07)
(0.00131712 -5.03764e-07 3.27505e-07)
(0.00131436 -8.68165e-07 2.6712e-07)
(0.0013117 -5.54375e-07 3.90848e-07)
(0.00130929 -4.39393e-07 4.92067e-07)
(0.00130646 -1.58825e-07 4.53176e-07)
(0.00130334 1.64969e-07 3.93444e-07)
(0.00130078 6.42019e-07 3.60359e-07)
(0.00129868 1.29793e-06 3.45425e-07)
(0.00129605 7.91812e-07 3.04793e-07)
(0.00129296 7.35342e-07 3.51686e-07)
(0.00129025 9.73246e-07 2.51323e-07)
(0.00128777 1.35982e-07 3.18212e-07)
(0.00128531 -1.21487e-08 3.21262e-07)
(0.00128283 1.44987e-07 2.47938e-07)
(0.00128043 5.45926e-08 3.36311e-07)
(0.00127778 -3.13228e-08 3.07511e-07)
(0.00127534 -1.37908e-07 2.77081e-07)
(0.0012726 -4.17356e-07 1.96392e-07)
(0.00126985 -3.67722e-07 3.17446e-07)
(0.0012675 -8.12151e-10 3.25344e-07)
(0.00126546 3.60206e-07 3.53332e-07)
(0.00126306 6.98065e-07 5.49582e-07)
(0.00126033 1.01866e-06 -4.15334e-08)
(0.00125797 3.55435e-07 3.32256e-07)
(0.00125595 1.91017e-07 4.89148e-07)
(0.00125379 1.70256e-07 3.62892e-07)
(0.00125085 4.2732e-07 2.92067e-07)
(0.00124815 3.39687e-07 3.51336e-07)
(0.00124624 4.5625e-07 5.16161e-07)
(0.0430892 0.0122695 -0.00411077)
(0.00104144 -0.0135946 -0.00260384)
(-0.0143054 0.00909953 0.00153358)
(-0.00475872 -0.00219043 -0.000837618)
(-0.00784835 -0.0212773 0.00452696)
(-0.0151951 0.000666912 0.00109555)
(0.000730502 0.000219104 -7.0761e-05)
(0.00142848 0.000103234 5.28953e-06)
(0.00149684 -8.2485e-06 5.16266e-07)
(0.00132935 -1.10767e-05 4.10761e-07)
(0.00135722 -6.55796e-06 3.58787e-07)
(0.00134621 -4.90893e-06 3.48984e-07)
(0.00134388 -2.57215e-06 4.42016e-07)
(0.0013409 -1.81924e-06 3.36545e-07)
(0.00133721 -1.43129e-06 2.66335e-07)
(0.00133367 -9.27042e-07 3.82461e-07)
(0.00133073 -3.9002e-07 3.34756e-07)
(0.00132786 -2.78502e-07 3.33574e-07)
(0.00132504 6.76371e-08 5.11643e-07)
(0.00132261 1.42659e-07 2.64553e-07)
(0.0013199 -7.77056e-08 3.59888e-07)
(0.00131712 1.0523e-07 3.07668e-07)
(0.0013147 1.00576e-07 5.9375e-07)
(0.00131194 1.03451e-07 3.78048e-07)
(0.00130914 1.20301e-07 2.72628e-07)
(0.00130659 -6.50516e-07 4.27332e-07)
(0.00130398 8.42345e-09 3.71567e-07)
(0.00130131 3.22357e-07 3.20113e-07)
(0.00129796 6.86964e-07 4.96562e-07)
(0.00129536 9.32894e-07 3.17861e-07)
(0.00129365 4.88993e-07 -4.8567e-07)
(0.00129065 4.23253e-08 3.18724e-07)
(0.00128753 3.7914e-07 7.92977e-07)
(0.0012851 2.46369e-07 3.22318e-07)
(0.00128265 3.19017e-07 2.7464e-07)
(0.00128007 4.48593e-08 3.1674e-07)
(0.00127756 -9.24828e-08 5.63684e-08)
(0.0012748 -2.05175e-07 3.1685e-07)
(0.00127231 -2.92849e-07 3.0775e-07)
(0.00127027 -2.29355e-07 -8.21591e-08)
(0.00126797 1.1456e-07 3.22846e-07)
(0.00126538 2.661e-07 1.06136e-06)
(0.00126318 8.68902e-08 1.41558e-07)
(0.00126041 3.50409e-08 2.46896e-07)
(0.00125783 -6.95756e-08 4.80342e-07)
(0.00125605 -2.7617e-07 3.14341e-07)
(0.00125388 -7.91719e-07 1.24719e-07)
(0.001251 -1.26175e-06 2.70531e-07)
(0.00124828 -4.78147e-07 4.6686e-07)
(0.00124582 7.62326e-08 3.35732e-07)
(0.0123298 0.0120493 -0.0180207)
(0.00680878 -0.0171274 0.000560367)
(-0.00309277 0.00773123 -0.00128793)
(0.0192013 0.00248258 0.00178041)
(-0.00706497 0.0197451 0.000751214)
(0.0136149 -0.00386955 0.00264792)
(0.00314513 -0.00224645 -0.000164728)
(0.00149695 -3.45152e-05 5.83376e-06)
(0.00151255 -2.37987e-05 5.10434e-07)
(0.00133869 -7.18217e-06 3.51922e-07)
(0.00136214 -4.17787e-06 2.99725e-07)
(0.00134967 -2.03128e-06 3.28578e-07)
(0.00134571 -7.67718e-07 2.59438e-07)
(0.00134039 -6.37875e-07 3.35263e-07)
(0.00133728 -6.83411e-07 3.39699e-07)
(0.00133449 -4.8951e-07 2.9812e-07)
(0.00133133 -2.96856e-07 3.34126e-07)
(0.00132835 -1.05823e-07 3.33377e-07)
(0.00132578 -7.51977e-08 2.94033e-07)
(0.00132255 2.27483e-07 4.79687e-07)
(0.00131987 3.10196e-07 2.53733e-07)
(0.00131734 3.17807e-07 7.44048e-07)