/*--------------------------------*- C++ -*----------------------------------*\
| =========                 |                                                 |
| \\      /  F ield         | OpenFOAM: The Open Source CFD Toolbox           |
|  \\    /   O peration     | Version:  5.0                                   |
|   \\  /    A nd           | Web:      www.OpenFOAM.org                      |
|    \\/     M anipulation  |                                                 |
\*---------------------------------------------------------------------------*/
FoamFile
{
    version     2.0;
    format      ascii;
    class       volVectorField;
    location    "2.4";
    object      U_0;
}
// * * * * * * * * * * * * * * * * * * * * * * * * * * * * * * * * * * * * * //

dimensions      [0 1 -1 0 0 0 0];

internalField   nonuniform List<vector> 
8710
(
(0.00156552 0.00832157 0.000841775)
(-0.0142828 -0.00222143 -0.000445449)
(0.00390029 0.00434754 0.000195431)
(0.000766943 -0.00446591 -9.30172e-05)
(-0.00315716 -0.00867877 0.000114463)
(-0.000461877 -0.00258925 -8.84266e-05)
(0.000501227 2.67223e-05 1.95037e-06)
(0.00084765 2.90208e-05 -1.66506e-06)
(0.000803628 2.24647e-05 -2.31182e-07)
(0.000810005 1.40632e-05 1.13003e-07)
(0.00080764 9.38958e-06 9.70286e-08)
(0.000806158 5.88202e-06 5.68796e-08)
(0.000804952 3.77186e-06 2.08079e-09)
(0.000803477 2.4239e-06 8.40355e-08)
(0.000801709 1.59424e-06 5.28381e-08)
(0.000800002 1.03136e-06 6.75086e-08)
(0.000798498 5.38202e-07 5.36228e-08)
(0.000796873 4.31299e-07 5.90961e-08)
(0.000794898 1.00193e-07 7.49384e-08)
(0.00079324 7.37129e-08 9.74463e-08)
(0.000791835 2.41688e-08 7.33444e-08)
(0.000790138 1.93825e-07 5.29728e-08)
(0.000788675 1.22034e-07 7.01979e-09)
(0.000787224 4.09796e-08 5.18073e-08)
(0.000785511 1.98372e-07 2.9535e-09)
(0.000783961 1.95263e-07 7.78797e-08)
(0.000782509 1.7388e-07 6.49948e-08)
(0.00078113 8.26118e-08 4.79408e-08)
(0.000779318 3.29005e-07 6.15968e-08)
(0.000777408 -2.29414e-07 6.62699e-08)
(0.000775973 -7.01548e-07 -6.02314e-08)
(0.000774313 -5.6849e-07 1.37353e-08)
(0.000772908 -4.7931e-07 8.66724e-08)
(0.000771923 -2.49356e-07 5.89647e-08)
(0.000770478 1.89923e-08 4.43899e-08)
(0.000768843 1.04923e-07 4.38225e-08)
(0.000767105 7.8325e-08 7.89736e-08)
(0.000765438 1.35222e-07 2.96594e-08)
(0.000764044 3.53719e-07 6.02987e-08)
(0.000762868 4.21542e-07 1.49989e-07)
(0.000761604 5.80012e-08 3.1421e-08)
(0.000760011 -3.87939e-08 8.08776e-08)
(0.000758787 -2.6345e-07 9.32026e-08)
(0.000757347 -2.43851e-07 2.33894e-07)
(0.000755774 -1.14705e-07 3.85103e-08)
(0.000754251 -3.84635e-09 6.61206e-09)
(0.000752888 -1.92503e-07 3.73624e-08)
(0.000751743 -4.55915e-07 1.8729e-07)
(0.000750064 -3.82454e-07 -2.25171e-08)
(0.000748325 -2.16374e-07 7.30892e-08)
(0.00562109 -0.000505407 -0.00045199)
(0.0106508 0.00126168 0.000266203)
(-0.000116137 -0.00241235 1.0753e-05)
(0.00914732 0.0034161 0.000309685)
(-0.00291246 0.00514229 0.000590482)
(-4.2596e-05 0.00101969 4.25757e-06)
(0.000337805 5.80593e-06 7.55964e-06)
(0.00082771 1.16179e-05 -2.20002e-06)
(0.000801913 3.60946e-05 -2.147e-07)
(0.00080238 1.30106e-05 -1.18606e-08)
(0.000803407 9.14602e-06 3.09306e-08)
(0.000803078 5.29592e-06 4.06231e-08)
(0.000802695 3.31848e-06 4.82914e-08)
(0.00080183 1.96049e-06 4.83334e-08)
(0.000800762 1.14977e-06 4.99703e-08)
(0.000799369 6.65287e-07 5.71718e-08)
(0.000797922 5.29042e-07 4.01034e-08)
(0.000796365 3.24734e-07 2.88161e-08)
(0.000794981 2.79859e-07 1.15274e-07)
(0.00079354 1.86317e-07 2.73564e-08)
(0.000791878 2.20845e-07 1.13934e-07)
(0.000790298 1.79935e-07 6.17125e-08)
(0.00078854 4.30754e-07 1.79648e-07)
(0.000787196 3.56474e-07 2.49263e-08)
(0.000785743 4.23733e-07 5.57429e-08)
(0.000783907 2.37508e-07 4.07531e-08)
(0.000782315 1.03595e-08 6.4571e-08)
(0.000781071 -2.87369e-07 4.7844e-08)
(0.000779034 -9.84732e-07 3.75257e-09)
(0.000776824 -6.77858e-07 -2.77788e-08)
(0.000775807 -4.82656e-07 1.3391e-07)
(0.000774708 -2.5739e-07 5.21571e-08)
(0.000773299 3.37235e-07 1.9119e-07)
(0.000772072 5.40971e-07 1.48536e-07)
(0.000770447 1.28461e-07 4.78495e-08)
(0.000768683 8.783e-08 3.3329e-08)
(0.000767342 5.8188e-08 5.87811e-08)
(0.000765939 1.72157e-07 5.61339e-08)
(0.000764344 3.21469e-07 3.88448e-08)
(0.000762634 4.83473e-07 1.91688e-08)
(0.000761096 1.3526e-07 5.05641e-08)
(0.000759735 -1.30486e-07 6.7087e-08)
(0.000758403 -4.96047e-07 2.50201e-08)
(0.00075725 -2.76018e-07 7.59249e-08)
(0.000755884 -2.31764e-08 5.3173e-08)
(0.000754246 -4.35286e-08 6.38591e-08)
(0.000752902 2.14996e-07 5.95564e-08)
(0.000751593 -6.48991e-08 5.12303e-08)
(0.000750028 -2.64411e-07 9.19744e-08)
(0.000749081 -2.19497e-07 2.88827e-08)
(-0.0158609 0.00404078 0.000193717)
(0.00819064 -0.00862885 -0.000887779)
(0.00509762 0.00210256 0.000908215)
(-0.00640965 -0.00188617 1.63224e-05)
(0.0018327 -0.000558974 -0.000639482)
(-0.000808247 0.000350423 1.33702e-05)
(0.000517806 -8.82974e-05 2.34628e-05)
(0.000410433 6.66427e-06 -1.39855e-07)
(0.000829132 1.62359e-05 -1.49286e-06)
(0.000776336 2.21736e-06 -4.23422e-07)
(0.000797952 2.98032e-06 2.02905e-07)
(0.000798845 1.73284e-06 4.88853e-08)
(0.000800768 1.00465e-06 6.10614e-08)
(0.000800758 5.89985e-07 5.38818e-08)
(0.000800086 3.3504e-07 5.54441e-08)
(0.000799224 1.58843e-07 5.52324e-08)
(0.000798071 8.04926e-08 5.28412e-08)
(0.000796561 3.13902e-08 9.38168e-08)
(0.000794724 3.03668e-08 1.10998e-07)
(0.000793165 -3.0699e-08 4.48341e-08)
(0.000791825 -6.61191e-09 1.07765e-08)
(0.000790397 -2.80268e-08 4.66519e-08)
(0.000788893 -4.49177e-08 4.07839e-08)
(0.00078721 -3.48488e-08 -7.8708e-08)
(0.000785358 -4.40468e-07 1.24968e-07)
(0.000783441 -3.12258e-07 9.61888e-09)
(0.000781852 -2.29619e-07 5.68001e-08)
(0.000779889 -1.78934e-07 5.88603e-08)
(0.000778835 -3.43993e-07 -9.73993e-08)
(0.000778041 3.02432e-07 7.31616e-08)
(0.000776503 6.53997e-07 8.19698e-08)
(0.000775339 6.34494e-07 6.67411e-08)
(0.000773904 4.18109e-07 2.88945e-07)
(0.000771659 3.52146e-07 1.45793e-07)
(0.000769908 4.29625e-08 9.04104e-08)
(0.000768754 1.05384e-07 5.43258e-08)
(0.000767209 9.74801e-08 5.4221e-08)
(0.000765764 8.91536e-10 4.69356e-08)
(0.00076443 5.0953e-08 4.32219e-08)
(0.000762632 -1.2292e-07 5.54576e-08)
(0.000760835 1.58352e-08 6.76283e-08)
(0.000759223 9.62394e-09 2.09624e-08)
(0.000758609 5.29019e-07 3.98885e-08)
(0.000757941 2.51666e-07 8.06304e-08)
(0.000756068 1.15536e-07 8.47465e-08)
(0.00075455 1.67348e-07 8.46517e-08)
(0.000752862 4.72227e-07 2.73555e-08)
(0.000751144 1.99233e-07 7.62184e-08)
(0.000749877 1.6157e-07 5.10103e-08)
(0.000748927 8.22943e-08 6.80915e-08)
(0.00479008 0.0105786 0.000223168)
(0.0032655 0.00214377 -0.000756236)
(0.00350716 -0.00366869 0.000303758)
(0.00878821 0.00274035 0.000234153)
(-0.000638678 0.00212052 0.000492434)
(0.000911355 -0.00320165 -1.09753e-05)
(0.000887443 -8.52707e-05 9.78214e-05)
(0.000417763 -4.31237e-05 -9.81466e-07)
(0.000854011 -9.27946e-06 -1.52174e-06)
(0.000785876 -8.38227e-06 -4.9767e-07)
(0.000802804 -4.38286e-06 1.37499e-07)
(0.000800608 -2.76618e-06 -3.65018e-07)
(0.000801267 -1.79835e-06 5.21574e-08)
(0.000800994 -1.02132e-06 5.24457e-08)
(0.000800225 -5.45292e-07 5.38552e-08)
(0.000799053 -2.35885e-07 5.18678e-08)
(0.000797765 -2.83967e-07 4.72386e-08)
(0.000796305 -3.71129e-07 8.55711e-08)
(0.000794906 -4.51666e-07 3.63949e-08)
(0.000793496 -3.50716e-07 2.98401e-08)
(0.000791882 -2.35976e-07 -5.85506e-08)
(0.000790251 -2.19031e-07 5.11673e-08)
(0.000788532 -3.61072e-07 1.43873e-08)
(0.000786703 -3.59582e-07 5.93102e-08)
(0.000785399 -4.71327e-07 -8.75715e-09)
(0.000784173 -2.85227e-07 6.9922e-08)
(0.000782483 3.36244e-08 6.22808e-08)
(0.000780929 2.87301e-07 9.20072e-08)
(0.000779635 9.93918e-07 -9.26948e-09)
(0.000778069 6.76987e-07 4.98744e-08)
(0.000776217 7.15969e-07 2.4012e-08)
(0.000774408 6.56452e-07 -9.8192e-08)
(0.000772943 1.87471e-07 4.62509e-08)
(0.000771601 -1.26333e-07 4.80357e-08)
(0.000770137 9.22539e-08 5.27744e-08)
(0.000768751 2.62205e-08 2.94718e-07)
(0.000767211 -5.7081e-08 1.45651e-07)
(0.00076588 -1.18178e-07 5.37213e-08)
(0.000764189 -3.72676e-07 2.03072e-09)
(0.00076259 -3.34151e-07 -1.0346e-07)
(0.000761261 -7.5792e-09 5.65951e-08)
(0.000760375 3.28954e-07 2.00275e-08)
(0.000758702 6.75613e-07 5.53376e-08)
(0.000756729 3.12107e-07 1.40919e-08)
(0.000755775 -1.58567e-08 5.85749e-08)
(0.000754689 -6.68238e-08 6.09012e-08)
(0.000752939 -1.86285e-07 8.56738e-08)
(0.000751203 4.18436e-08 1.92492e-08)
(0.000749878 2.03454e-07 4.15263e-08)
(0.000748776 2.14984e-07 5.14184e-08)
(0.015136 0.00289716 -0.00391186)
(0.00383017 -0.0131173 1.10247e-05)
(-0.0123444 0.00206868 0.000780704)
(-0.00351948 0.00214674 -0.00148551)
(0.00762679 -0.0107917 0.000201763)
(0.0096211 0.000127596 0.000357519)
(0.00107222 0.00015976 1.89888e-05)
(0.000459994 2.47386e-05 1.27085e-06)
(0.000870531 -1.60517e-05 -5.71186e-07)
(0.000782466 -1.34651e-05 -6.48399e-07)
(0.000805025 -8.41405e-06 2.4146e-07)
(0.000802106 -5.75359e-06 1.39392e-07)
(0.000802968 -3.28757e-06 1.01771e-07)
(0.000802335 -2.11021e-06 5.6236e-08)
(0.000801074 -1.33336e-06 5.53019e-08)
(0.000799554 -8.59674e-07 2.36547e-08)
(0.000797904 -4.23044e-07 4.88676e-08)
(0.000796354 -2.51919e-07 5.28765e-08)
(0.000794752 2.79486e-08 4.51714e-08)
(0.000793438 1.50915e-07 9.43801e-08)
(0.000791993 -1.01949e-07 6.38206e-08)
(0.000790245 3.4638e-08 5.46961e-08)
(0.00078872 1.55652e-08 9.04445e-08)
(0.000787076 1.12978e-07 1.00611e-07)
(0.000785455 3.23217e-07 1.31783e-07)
(0.000784074 9.44568e-08 2.91784e-08)
(0.000782567 1.37676e-07 6.77858e-08)
(0.000781085 1.35881e-07 2.86112e-08)
(0.000779316 1.43546e-07 6.14239e-09)
(0.000777686 6.32426e-08 3.44623e-08)
(0.00077647 -3.80795e-09 6.22597e-08)
(0.000774673 -2.35138e-07 4.48834e-08)
(0.000772922 1.06002e-07 3.27126e-08)
(0.000771539 5.29444e-08 4.94728e-08)
(0.000770099 1.68875e-07 6.36361e-08)
(0.000768567 4.10461e-08 4.86152e-08)
(0.000767029 6.43207e-09 5.03501e-08)
(0.000765372 -2.21443e-08 5.11949e-08)
(0.000764162 -1.45037e-07 1.07295e-07)
(0.00076309 3.73824e-08 7.30019e-08)
(0.000761664 1.31093e-07 5.76776e-08)
(0.000760074 4.01436e-07 1.53403e-07)
(0.000758583 5.2904e-08 5.78665e-08)
(0.000757073 6.89637e-08 -7.47016e-08)
(0.000755592 -1.05142e-08 4.72594e-08)
(0.000754336 -1.99219e-07 4.70323e-08)
(0.000752997 -5.25313e-07 -4.55723e-08)
(0.000751631 -3.95155e-07 -2.94954e-10)
(0.000750087 -2.28526e-07 9.83326e-08)
(0.000748407 9.41132e-08 8.88386e-08)
(0.0141139 0.00683511 -0.00103312)
(0.0267891 0.0118633 0.000565854)
(-0.00769479 -0.000669971 -0.000386141)
(-0.00125093 0.0082613 -0.000270553)
(-0.00567508 0.00833154 -0.00125143)
(0.00690653 -0.00570547 0.000155717)
(0.00109522 -0.000677818 -7.27899e-06)
(0.000499977 -3.99697e-05 1.98974e-06)
(0.000888182 -3.89219e-05 -7.3744e-07)
(0.000795619 -1.90581e-05 -5.83315e-07)
(0.000812507 -1.16419e-05 2.30924e-07)
(0.000807055 -6.75039e-06 4.26124e-08)
(0.000805847 -3.86784e-06 5.43283e-08)
(0.000803452 -2.42067e-06 5.01433e-08)
(0.000801798 -1.52314e-06 6.34278e-08)
(0.000800197 -1.00967e-06 6.79582e-08)
(0.000798528 -5.96406e-07 5.35974e-08)
(0.00079687 -2.11239e-07 6.16589e-08)
(0.000795409 -1.23111e-07 3.20998e-08)
(0.000793333 2.27908e-07 1.65096e-07)
(0.000791736 2.70378e-07 -9.88145e-08)
(0.000790398 1.88617e-07 7.71606e-08)
(0.00078863 2.07088e-07 6.21804e-08)
(0.000787087 1.56562e-07 -7.64731e-10)
(0.000785375 1.93809e-07 6.82218e-08)
(0.00078394 2.30587e-07 3.8442e-08)
(0.000782535 2.95912e-08 1.5718e-07)
(0.000780935 -1.09281e-07 1.58862e-08)
(0.000779542 -1.23879e-07 4.45666e-08)
(0.000777883 -2.12721e-07 -6.78159e-08)
(0.000775843 -4.51915e-07 -1.09587e-08)
(0.000774544 -3.61965e-07 -2.03434e-08)
(0.000773302 -2.75919e-07 1.29382e-08)
(0.000771677 -1.37692e-07 5.49338e-08)
(0.000770121 -1.33952e-07 6.01499e-08)
(0.000768547 -2.08359e-08 5.22182e-08)
(0.000767132 4.1018e-08 5.24962e-08)
(0.000765692 1.84229e-07 4.98069e-08)
(0.000764265 3.39967e-07 1.17913e-07)
(0.000762936 1.83436e-07 7.03189e-08)
(0.000761716 1.92098e-07 9.60848e-08)
(0.000760275 1.36398e-07 -1.72866e-08)
(0.000758285 1.011e-07 1.18066e-09)
(0.00075665 -5.21303e-08 5.47063e-08)
(0.000755441 -5.01586e-08 3.76814e-08)
(0.000754048 -1.95562e-07 4.56057e-08)
(0.000752698 -5.09586e-07 -3.45994e-07)
(0.000751577 -5.85865e-07 3.06835e-08)
(0.000750491 -4.92307e-07 9.57147e-08)
(0.000748944 -1.78521e-07 1.80392e-07)
(0.000840023 -0.0134644 0.000341516)
(0.00895504 0.00157743 -0.000217367)
(0.0118903 -0.00413906 -0.00177441)
(-0.000475152 -0.0103978 0.000177991)
(0.0209351 0.0204194 -0.000336179)
(-0.000967508 0.00879503 0.000488942)
(0.00136767 2.3906e-05 -2.61308e-05)
(0.000515306 -4.24841e-05 -4.73277e-07)
(0.000900404 -1.91681e-05 -1.8474e-06)
(0.000816578 -8.97148e-06 -5.39211e-07)
(0.000820479 -6.79809e-06 1.31837e-07)
(0.000811865 -4.10132e-06 1.25479e-08)
(0.000808403 -2.8316e-06 5.12455e-08)
(0.00080528 -1.71955e-06 4.9586e-08)
(0.000802846 -1.06229e-06 4.78755e-08)
(0.000800718 -5.72294e-07 5.28037e-08)
(0.000798905 -3.09246e-07 5.0435e-08)
(0.000796947 -1.43519e-07 5.69979e-08)
(0.000795301 1.36987e-08 6.26258e-08)
(0.000793928 -2.05399e-07 5.91095e-08)
(0.000791941 1.6257e-07 -5.75617e-09)
(0.000790163 6.17384e-08 5.07094e-08)
(0.000788679 1.93195e-07 1.42552e-08)
(0.000787058 9.77066e-08 5.14029e-08)
(0.000785546 1.54108e-07 1.42275e-07)
(0.000783868 3.07356e-07 1.91572e-07)
(0.000782142 6.70087e-08 5.51854e-08)
(0.000780894 1.45784e-08 6.61369e-08)
(0.000779188 -3.05897e-07 7.8572e-08)
(0.000777279 -6.15804e-07 2.51282e-08)
(0.000776287 -2.2506e-07 1.47385e-07)
(0.000774897 5.2137e-09 1.73001e-07)
(0.000773205 -5.14343e-08 4.72339e-08)
(0.000771718 -8.85797e-08 4.80703e-08)
(0.000770246 -1.36348e-07 1.22812e-07)
(0.000768786 -1.97399e-08 5.84969e-08)
(0.000767285 6.32201e-08 4.84801e-08)
(0.000765744 8.04551e-08 6.78974e-08)
(0.00076416 1.79937e-07 4.66992e-08)
(0.000762904 3.30793e-07 9.00024e-09)
(0.000761603 7.23642e-08 4.84076e-08)
(0.000759959 -2.12864e-07 2.52233e-09)
(0.000758346 -3.08828e-07 -1.5165e-08)
(0.000756884 -1.30698e-07 5.04443e-08)
(0.000755414 -7.34625e-08 9.97799e-09)
(0.000753765 -7.86372e-09 4.90557e-08)
(0.000752514 -2.87949e-08 1.5112e-08)
(0.000751658 -2.67403e-07 6.9608e-08)
(0.000750606 -2.18374e-07 2.06407e-08)
(0.000749244 -3.10887e-07 5.86426e-08)
(0.0105467 0.0278582 -0.0021009)
(-0.0171463 -0.00255721 -0.000891828)
(-0.006433 0.000301615 8.24285e-05)
(-0.00894419 0.00833753 -0.0119006)
(0.00387025 -0.0138625 0.000620421)
(-0.000559984 -0.00861819 -0.000175008)
(0.00133646 -0.000323244 0.000117629)
(0.000486505 1.58321e-05 5.56564e-07)
(0.000877991 -8.87877e-06 -1.12076e-06)
(0.000811215 7.16524e-07 -3.99183e-07)
(0.000818604 -1.40177e-06 1.84183e-07)
(0.000812023 -7.25808e-07 4.41808e-08)
(0.000808831 -5.42319e-07 5.95192e-08)
(0.000805669 -3.87726e-07 5.21182e-08)
(0.000803235 -2.68682e-07 6.08273e-08)
(0.000801139 -1.58687e-07 5.11451e-08)
(0.000799064 -2.59567e-07 1.04382e-07)
(0.000797273 -2.46811e-07 2.19336e-07)
(0.000795332 -5.58287e-08 5.6272e-08)
(0.000793519 -5.00908e-08 5.08958e-08)
(0.00079207 -2.25092e-07 4.69364e-08)
(0.000790435 -7.3983e-08 6.30509e-08)
(0.000788674 -2.07947e-07 4.99399e-08)
(0.000787037 -9.46798e-08 4.92495e-08)
(0.000785636 -1.81833e-07 7.67652e-08)
(0.00078383 -2.33697e-07 4.65399e-08)
(0.000782168 1.82801e-08 -7.32709e-09)
(0.00078047 1.29311e-07 5.23901e-08)
(0.000778758 -3.81724e-08 4.85507e-08)
(0.000777989 4.44628e-07 -7.32353e-08)
(0.000776623 4.82085e-07 8.72846e-08)
(0.000774762 2.22278e-07 3.41612e-08)
(0.000773186 3.09204e-07 4.87965e-08)
(0.000771572 1.05465e-07 4.62967e-08)
(0.000770208 6.5721e-08 4.8736e-08)
(0.000768798 -6.98601e-08 6.6729e-08)
(0.000767257 -1.8715e-07 1.59113e-08)
(0.000765838 -1.71997e-07 5.09337e-08)
(0.000764576 8.03479e-08 4.0249e-08)
(0.0007628 1.48649e-07 1.26014e-07)
(0.000761036 -6.10666e-08 1.52287e-08)
(0.0007598 -1.17406e-07 4.92182e-08)
(0.00075839 -1.81389e-07 1.47773e-08)
(0.000756946 -1.33322e-07 4.93062e-08)
(0.000755595 -6.38977e-08 5.45336e-08)
(0.000754105 8.08634e-08 4.49553e-08)
(0.000752374 4.95509e-07 6.03645e-08)
(0.000751342 6.25044e-07 6.81934e-08)
(0.000750445 1.90147e-07 -1.9915e-10)
(0.000749604 -4.8194e-08 -1.1551e-08)
(0.0126235 -0.0210805 0.00381101)
(-0.0371903 0.0014516 0.00079925)
(-0.00655505 0.032046 -0.0038119)
(0.0145384 -0.0016511 0.000123812)
(0.00131052 0.0066604 0.000811666)
(-0.000204756 -0.00372573 -0.000178552)
(0.00043491 0.000158388 4.50666e-05)
(0.000878972 4.41704e-05 -2.52081e-06)
(0.000838286 -3.28407e-06 -2.84994e-07)
(0.000825833 6.15629e-06 3.16655e-08)
(0.000818646 2.8423e-06 3.6323e-08)
(0.000812926 2.24006e-06 4.2385e-08)
(0.000808818 1.34267e-06 6.66585e-08)
(0.000805617 8.15881e-07 4.97751e-08)
(0.00080313 4.66366e-07 5.19083e-08)
(0.000800728 2.41769e-07 1.05184e-07)
(0.000798794 1.13597e-07 9.73564e-08)
(0.000797201 -6.72504e-08 5.89094e-08)
(0.000795546 -1.72208e-07 2.53457e-08)
(0.000793717 1.147e-08 7.78127e-08)
(0.000791912 -7.81779e-08 5.32169e-08)
(0.000790186 -2.62175e-07 6.12552e-08)
(0.000788654 -2.85877e-07 2.23195e-08)
(0.000787093 -2.16816e-07 5.34281e-08)
(0.000785374 -2.3523e-07 2.63786e-08)
(0.00078412 -2.84818e-07 5.95811e-08)
(0.000782597 -1.48946e-07 2.45093e-08)
(0.000780824 -5.41368e-08 4.61892e-08)
(0.000779582 1.77338e-07 7.58737e-08)
(0.000777927 4.79544e-07 3.26197e-08)
(0.000776006 2.76419e-07 3.16259e-08)
(0.000774678 1.63919e-07 4.77605e-08)
(0.000773058 6.63318e-09 7.84301e-08)
(0.000771413 -6.71541e-08 -2.14359e-08)
(0.000770027 -9.44826e-08 1.46997e-07)
(0.000768471 -2.31614e-07 2.19037e-08)
(0.000767159 -2.45457e-07 3.11935e-08)
(0.000766079 -1.94424e-07 4.57578e-08)
(0.000764561 -4.39571e-07 8.26384e-08)
(0.000762727 -6.66797e-07 3.68232e-08)
(0.000761272 -2.77293e-07 4.66423e-08)
(0.00075981 -1.59402e-07 -2.07244e-08)
(0.000758328 -9.64462e-09 4.61415e-08)
(0.000757032 5.39195e-08 4.21989e-08)
(0.000755682 8.31465e-08 5.57724e-08)
(0.000754463 4.35807e-08 -1.00552e-08)
(0.000753191 2.74383e-07 4.1654e-08)
(0.000751272 9.19241e-07 2.72925e-08)
(0.000749763 6.67784e-07 -4.74952e-08)
(0.000749063 3.50854e-07 8.91789e-08)
(0.00136096 -0.0180966 0.013301)
(0.0112718 0.00876684 0.00083728)
(-0.00525651 -0.00133559 -7.13806e-05)
(0.0147841 0.017124 0.00288304)
(0.00331222 0.00452102 -0.00100513)
(-0.00341672 -0.00253353 -7.44429e-05)
(0.000343365 7.90407e-06 4.72951e-06)
(0.000858913 4.13832e-05 -2.0865e-06)
(0.000820798 2.08841e-05 -1.07748e-07)
(0.000818783 1.37115e-05 7.85058e-08)
(0.000813673 8.28052e-06 8.63139e-08)
(0.000810128 4.94648e-06 4.50899e-08)
(0.000807036 2.89003e-06 6.25858e-08)
(0.000804564 1.86924e-06 4.76517e-08)
(0.000802512 1.18735e-06 5.37287e-08)
(0.000800695 7.38951e-07 7.39446e-08)
(0.000798676 6.10897e-07 4.59629e-08)
(0.000796915 5.04444e-07 9.69114e-08)
(0.00079543 3.50746e-07 7.42668e-08)
(0.000793636 -1.34181e-08 6.18367e-08)
(0.000791729 -3.01545e-08 8.94524e-08)
(0.000790177 -7.55379e-08 1.16755e-07)
(0.000788733 -6.88232e-08 5.56671e-08)
(0.000787103 -5.87744e-08 4.79437e-08)
(0.000785554 3.56171e-08 4.4238e-08)
(0.000783941 5.08286e-08 4.60256e-08)
(0.000782459 -9.18553e-08 1.16056e-07)
(0.000780879 -1.99623e-08 4.97297e-08)
(0.000779424 1.52865e-07 -8.74792e-08)
(0.00077811 -2.31036e-07 1.36456e-07)
(0.000776226 -2.63483e-07 8.81908e-08)
(0.000774425 -2.59375e-07 6.00559e-08)
(0.000772897 -5.57991e-07 2.23833e-08)
(0.000771448 -3.82412e-07 1.30002e-07)
(0.000770005 -1.52484e-07 1.19285e-07)
(0.000768611 -2.33544e-08 6.12026e-08)
(0.000767306 1.45025e-07 9.60277e-08)
(0.000765597 -6.62104e-08 4.75542e-08)
(0.000763989 -3.69107e-07 8.90094e-09)
(0.000763007 -4.81407e-07 6.49038e-08)
(0.000761673 -2.58712e-07 6.15972e-08)
(0.000760136 -2.17459e-07 1.81882e-08)
(0.000758657 -9.92769e-08 4.33853e-08)
(0.000757061 1.49363e-07 6.13778e-08)
(0.000755581 1.53089e-07 -3.2273e-08)
(0.000754342 2.25051e-07 4.72527e-08)
(0.000753465 -1.46331e-08 5.34372e-09)
(0.000751828 -1.61229e-08 1.80184e-08)
(0.000749721 3.63117e-07 -3.77453e-08)
(0.000748335 2.31229e-07 6.70763e-08)
(-0.0117912 -0.00146363 0.00147311)
(0.0061154 -0.00923576 -0.00296565)
(-0.00582918 -0.0100498 -0.000968053)
(0.000682559 0.0108753 -0.00155541)
(0.00745074 -0.00179411 -0.000216442)
(0.00148891 0.000155448 -0.000144013)
(0.00146286 6.39793e-05 4.69762e-06)
(0.00141975 4.18116e-05 3.78066e-07)
(0.00134321 3.3295e-05 3.25674e-07)
(0.00135239 2.08856e-05 3.61081e-07)
(0.00134787 1.40563e-05 3.84532e-07)
(0.00134511 8.79082e-06 2.54108e-07)
(0.00134301 5.6412e-06 2.64408e-07)
(0.00134045 3.68098e-06 3.70631e-07)
(0.00133743 2.41261e-06 3.38684e-07)
(0.00133459 1.56919e-06 6.05907e-07)
(0.00133206 8.09931e-07 3.39221e-07)
(0.00132935 6.92155e-07 2.61495e-07)
(0.00132611 1.81925e-07 3.92276e-07)
(0.00132338 9.51126e-08 3.50191e-07)
(0.00132106 5.23748e-08 3.72691e-07)
(0.00131821 3.73584e-07 2.27077e-07)
(0.00131573 2.66339e-07 2.48808e-07)
(0.00131332 1.28688e-07 2.86792e-07)
(0.0013105 4.43249e-07 2.2396e-07)
(0.00130797 4.92549e-07 3.49185e-07)
(0.0013056 3.76596e-07 2.85506e-07)
(0.00130333 1.57457e-07 3.28666e-07)
(0.00130027 5.05629e-07 3.43421e-07)
(0.00129709 -4.31961e-07 3.48342e-07)
(0.00129472 -1.18755e-06 2.32602e-07)
(0.00129192 -9.64315e-07 1.84541e-07)
(0.00128959 -7.66887e-07 3.71276e-07)
(0.00128802 -3.30642e-07 3.35144e-07)
(0.00128567 1.05232e-07 3.15684e-07)
(0.0012829 2.56829e-07 3.01817e-07)
(0.00127995 1.77029e-07 3.8002e-07)
(0.00127713 2.83846e-07 2.79275e-07)
(0.00127493 6.73274e-07 2.23708e-07)
(0.00127302 6.90699e-07 4.34311e-07)
(0.00127081 1.13666e-07 2.88843e-07)
(0.00126816 -5.09603e-08 3.5534e-07)
(0.00126626 -5.34203e-07 3.70116e-07)
(0.00126379 -4.46698e-07 6.80873e-07)
(0.00126111 -2.53863e-07 3.25643e-07)
(0.00125865 -9.47774e-08 3.07976e-07)
(0.00125633 -3.05462e-07 2.86674e-07)
(0.00125441 -7.10198e-07 4.76389e-07)
(0.00125159 -6.18349e-07 2.16166e-07)
(0.00124868 -3.88783e-07 3.5107e-07)
(-0.00115208 -0.000995676 -0.000743986)
(0.0254465 0.0106243 0.00643354)
(-0.00504784 -0.00973299 -0.000291069)
(-0.0045189 0.0027141 0.000615769)
(0.00259004 0.00198763 0.0012646)
(-0.000855171 0.00153196 9.61842e-05)
(0.00143437 4.72032e-05 1.29215e-05)
(0.00138667 1.78471e-05 3.50023e-07)
(0.0013416 5.85232e-05 3.90262e-07)
(0.00134079 2.05771e-05 3.40212e-07)
(0.00134155 1.44178e-05 3.36132e-07)
(0.00134047 8.27109e-06 3.36044e-07)
(0.00133954 5.16244e-06 3.38985e-07)
(0.0013379 2.99495e-06 3.27334e-07)
(0.00133601 1.7417e-06 3.35344e-07)
(0.00133365 9.78941e-07 2.70118e-07)
(0.00133125 7.65617e-07 3.21135e-07)
(0.00132867 4.05624e-07 9.97712e-08)
(0.00132621 4.06408e-07 4.77398e-07)
(0.00132377 2.90169e-07 3.03616e-07)
(0.00132109 3.8518e-07 4.2052e-07)
(0.00131847 3.04343e-07 3.53575e-07)
(0.00131555 7.84962e-07 8.11041e-07)
(0.00131338 6.53503e-07 3.02296e-07)
(0.001311 7.8552e-07 3.14503e-07)
(0.00130783 4.76206e-07 3.44744e-07)
(0.00130511 9.41866e-08 4.82304e-07)
(0.00130305 -4.45892e-07 3.27703e-07)
(0.00129975 -1.6265e-06 3.81293e-07)
(0.00129619 -1.10098e-06 1.6002e-07)
(0.00129448 -7.83869e-07 3.58112e-07)
(0.00129264 -4.29752e-07 3.07133e-07)
(0.00129034 6.50718e-07 6.17733e-07)
(0.00128827 9.65308e-07 7.20184e-07)
(0.00128555 2.5322e-07 3.32856e-07)
(0.00128263 1.55126e-07 3.09681e-07)
(0.00128037 1.20699e-07 3.28472e-07)
(0.00127808 3.4362e-07 3.65904e-07)
(0.00127536 6.3292e-07 3.44881e-07)
(0.0012725 7.889e-07 3.64409e-07)
(0.00126998 2.12324e-07 2.86903e-07)
(0.00126762 -2.21621e-07 3.61141e-07)
(0.00126543 -7.77717e-07 2.40695e-07)
(0.00126363 -5.86259e-07 3.2585e-07)
(0.00126136 -1.01833e-07 3.5087e-07)
(0.00125868 -1.58037e-07 3.15677e-07)
(0.00125643 2.91633e-07 2.85531e-07)
(0.00125418 -1.30937e-07 3.22021e-07)
(0.00125157 -4.48781e-07 3.64683e-07)
(0.00124994 -3.81781e-07 2.21248e-07)
(-0.00517502 0.00422645 0.000307327)
(-0.00269521 0.0125241 -0.00100036)
(-0.00262775 0.00690583 -0.00342139)
(0.00467559 -0.00541616 3.51188e-05)
(0.00264323 0.00181788 -0.0025371)
(0.00237291 0.0042785 0.000982123)
(0.00112649 0.000380874 3.06948e-05)
(0.00124838 2.62132e-05 1.02019e-06)
(0.0013866 2.74876e-05 -2.18707e-07)
(0.00129736 3.90001e-06 3.24207e-07)
(0.00133244 4.99961e-06 3.34836e-07)
(0.00133351 2.8401e-06 3.33838e-07)
(0.0013364 1.64916e-06 3.34948e-07)
(0.00133617 9.43309e-07 3.35952e-07)
(0.00133491 5.25119e-07 3.35217e-07)
(0.00133337 2.21845e-07 3.34914e-07)
(0.00133134 8.73071e-08 3.34553e-07)
(0.0013289 -3.47162e-08 4.58132e-07)
(0.00132596 -9.66174e-08 3.8977e-07)
(0.00132335 -1.09105e-07 3.22646e-07)
(0.00132107 -6.35033e-08 2.24157e-07)
(0.0013187 -6.40113e-08 3.26882e-07)
(0.00131616 -7.16288e-08 3.2783e-07)
(0.00131332 -1.62189e-08 -1.26079e-07)
(0.00131027 -7.23017e-07 4.62222e-07)
(0.0013071 -5.00531e-07 2.69076e-07)
(0.00130444 -3.37611e-07 3.11879e-07)
(0.00130118 -2.3328e-07 3.199e-07)
(0.00129946 -4.87341e-07 1.65501e-08)
(0.00129815 5.58802e-07 2.97536e-07)
(0.00129556 1.10547e-06 3.26465e-07)
(0.00129371 1.05136e-06 3.2329e-07)
(0.00129133 6.97901e-07 7.94812e-07)
(0.00128752 5.65846e-07 4.71942e-07)
(0.00128465 6.7211e-08 3.65387e-07)
(0.00128273 1.6715e-07 3.33551e-07)
(0.00128018 1.70824e-07 2.77953e-07)
(0.00127777 1.09993e-08 3.38639e-07)
(0.00127548 5.82766e-08 3.24985e-07)
(0.00127249 -1.69004e-07 3.51201e-07)
(0.00126954 2.07526e-08 3.48998e-07)
(0.00126692 4.71795e-08 2.83883e-07)
(0.00126581 9.33414e-07 2.92851e-07)
(0.00126464 5.49432e-07 2.73958e-07)
(0.00126165 3.30512e-07 3.46656e-07)
(0.00125914 3.60213e-07 3.53879e-07)
(0.00125637 7.50688e-07 3.0672e-07)
(0.00125348 3.697e-07 3.30708e-07)
(0.00125129 2.50964e-07 2.83425e-07)
(0.00124972 1.37216e-07 2.94652e-07)
(0.0121914 0.00305616 -0.00148474)
(0.00185666 0.00738877 0.00170215)
(0.00434742 9.68602e-05 -0.000915199)
(0.0135677 0.00584225 -0.00116252)
(0.00625074 0.00276994 0.0014377)
(0.00230438 0.00628168 -0.000568447)
(0.000978925 -0.000208643 -3.76072e-05)
(0.00125813 -0.000123488 5.91393e-07)
(0.00142815 -1.38917e-05 2.95295e-07)
(0.00131286 -1.28366e-05 3.03814e-07)
(0.00134025 -6.54561e-06 3.34147e-07)
(0.00133629 -4.08324e-06 -1.13662e-07)
(0.00133717 -2.66668e-06 3.33763e-07)
(0.0013365 -1.503e-06 3.35571e-07)
(0.00133511 -7.76552e-07 3.38189e-07)
(0.0013331 -3.18581e-07 3.33415e-07)
(0.00133094 -4.10886e-07 3.32916e-07)
(0.00132844 -4.93939e-07 3.45413e-07)
(0.00132613 -6.97575e-07 3.24852e-07)
(0.00132381 -5.70425e-07 2.98325e-07)
(0.00132115 -4.24381e-07 1.65901e-07)
(0.00131846 -3.99084e-07 3.32626e-07)
(0.00131561 -6.63124e-07 2.92426e-07)
(0.00131257 -6.04975e-07 3.7215e-07)
(0.0013104 -7.79631e-07 1.77439e-07)
(0.00130832 -4.55606e-07 3.32994e-07)
(0.00130545 7.63038e-08 3.93311e-07)
(0.00130286 5.51973e-07 4.21374e-07)
(0.00130074 1.70977e-06 2.74479e-07)
(0.00129817 1.17483e-06 4.83327e-07)
(0.00129509 1.22772e-06 3.08054e-07)
(0.00129212 1.18013e-06 -1.3774e-07)
(0.00128973 3.27239e-07 3.1907e-07)
(0.00128748 -1.79137e-07 3.19577e-07)
(0.00128505 1.59457e-07 2.56895e-07)
(0.00128276 4.38557e-08 6.05468e-07)
(0.00128018 -9.91667e-08 4.28963e-07)
(0.00127794 -2.11991e-07 3.28817e-07)
(0.00127513 -6.24918e-07 2.04181e-07)
(0.00127245 -5.46864e-07 -7.43719e-08)
(0.00127025 5.23101e-09 2.95462e-07)
(0.00126876 5.83037e-07 2.79113e-07)
(0.00126605 1.12507e-06 3.78387e-07)
(0.00126287 6.10493e-07 2.17662e-07)
(0.00126112 4.05566e-08 3.25587e-07)
(0.0012592 -5.55638e-08 3.47747e-07)
(0.00125643 -2.49907e-07 3.88266e-07)
(0.00125355 1.02216e-07 1.0587e-07)
(0.00125128 3.39668e-07 3.09615e-07)
(0.00124945 3.77047e-07 2.39941e-07)
(0.0553589 0.0152487 -0.0106356)
(0.00144565 -0.0119229 -0.00271428)
(-0.0133338 0.0088849 0.000724281)
(-0.0089742 -0.00442826 -0.001154)
(-0.0115825 -0.031935 0.00566896)
(-0.0165988 0.00143166 0.00105262)
(0.000685624 0.000274333 -7.06319e-05)
(0.00134758 8.23964e-05 5.14994e-06)
(0.00145422 -2.37654e-05 4.85428e-07)
(0.00130654 -2.03747e-05 4.08316e-07)
(0.00134347 -1.2691e-05 3.56797e-07)
(0.00133841 -8.70124e-06 4.51733e-07)
(0.00133966 -4.95812e-06 3.14212e-07)
(0.00133855 -3.19041e-06 3.35793e-07)
(0.0013364 -2.03467e-06 3.4268e-07)
(0.00133384 -1.30125e-06 2.05507e-07)
(0.00133113 -6.35713e-07 3.33375e-07)
(0.00132854 -3.98545e-07 3.30073e-07)
(0.00132587 7.87358e-08 2.97858e-07)
(0.0013237 2.73788e-07 3.33415e-07)
(0.00132129 -1.40736e-07 3.5997e-07)
(0.00131841 6.64275e-08 5.30936e-07)
(0.00131591 3.47449e-08 3.64077e-07)
(0.00131318 1.51389e-07 3.74342e-07)
(0.00131046 5.06277e-07 3.21121e-07)
(0.00130817 3.10741e-08 3.35649e-07)
(0.0013057 2.02375e-07 3.77124e-07)
(0.00130322 2.41485e-07 2.95568e-07)
(0.00130023 3.35558e-07 2.68567e-07)
(0.00129753 2.30761e-07 3.08316e-07)
(0.00129556 7.74208e-08 3.36168e-07)
(0.00129258 -3.18844e-07 2.99457e-07)
(0.00128962 2.51217e-07 3.02012e-07)
(0.00128731 1.2495e-07 3.21928e-07)
(0.00128493 2.9637e-07 3.19411e-07)
(0.00128241 4.44502e-08 3.21113e-07)
(0.00127986 -3.74214e-08 3.47305e-07)
(0.00127711 -8.26105e-08 3.21426e-07)
(0.00127507 -2.73347e-07 4.45048e-07)
(0.00127328 5.32385e-09 3.19887e-07)
(0.00127095 2.21575e-07 3.2995e-07)
(0.00126832 6.26602e-07 5.28587e-07)
(0.00126584 8.14278e-08 2.96577e-07)
(0.00126328 7.04979e-08 -1.83514e-07)
(0.00126081 -1.26009e-07 3.22002e-07)
(0.00125878 -3.65607e-07 3.13279e-07)
(0.00125656 -9.16784e-07 1.09222e-07)
(0.00125422 -7.63869e-07 5.20742e-09)
(0.00125162 -3.87979e-07 4.07316e-07)
(0.00124883 1.64569e-07 4.17125e-07)
(-0.000191254 -0.00550332 -0.0094512)
(0.00392165 -0.0172081 0.000479831)
(-0.00226786 0.00794067 -0.00164681)
(0.0219224 0.00174991 0.00176592)
(-0.000167096 0.0172692 0.00115593)
(0.012941 -0.00304474 0.00269719)
(0.00308664 -0.00221003 -0.000160257)
(0.0014102 -0.000110028 5.82179e-06)
(0.00148081 -6.08837e-05 5.07168e-07)
(0.00132702 -2.92722e-05 3.87779e-07)
(0.00135494 -1.78685e-05 2.98718e-07)
(0.00134601 -1.03261e-05 3.18892e-07)
(0.0013441 -5.87202e-06 1.85085e-07)
(0.00134018 -3.67386e-06 3.35143e-07)
(0.00133749 -2.32034e-06 4.00842e-07)
(0.00133486 -1.53214e-06 3.48876e-07)
(0.00133207 -8.94153e-07 3.34407e-07)
(0.00132934 -3.07198e-07 3.6599e-07)
(0.00132697 -1.71347e-07 3.14493e-07)
(0.00132354 3.92908e-07 5.17422e-07)
(0.00132089 4.5213e-07 1.99565e-07)
(0.00131868 3.35192e-07 3.36051e-07)