/*--------------------------------*- C++ -*----------------------------------*\
| =========                 |                                                 |
| \\      /  F ield         | OpenFOAM: The Open Source CFD Toolbox           |
|  \\    /   O peration     | Version:  5.0                                   |
|   \\  /    A nd           | Web:      www.OpenFOAM.org                      |
|    \\/     M anipulation  |                                                 |
\*---------------------------------------------------------------------------*/
FoamFile
{
    version     2.0;
    format      ascii;
    class       surfaceVectorField;
    location    "2.4";
    object      Uf;
}
// * * * * * * * * * * * * * * * * * * * * * * * * * * * * * * * * * * * * * //

dimensions      [0 1 -1 0 0 0 0];

internalField   nonuniform List<vector> 
25861
(
(0.00123258 0.00698376 0.00123934)
(0.00362289 -0.00150908 -0.000336096)
(0.0018628 0.00119562 0.00102934)
(-0.00164234 -0.00456991 -0.000485514)
(-0.0073626 -0.00555553 -0.000545092)
(-0.0127555 -0.000644902 -0.00102124)
(-0.0176354 -0.000132653 0.0009375)
(0.0124262 0.00403051 -0.000390805)
(0.00803718 0.00840688 -0.000760233)
(0.00149234 -0.00267019 -0.00158102)
(0.00375004 -0.00335026 -0.000606937)
(0.00185762 0.00902598 0.000393849)
(0.000501256 0.0014567 0.000282649)
(-0.00152298 -0.00114198 0.000562918)
(-0.00138433 -0.00993864 0.00207019)
(-0.00369957 -0.00250653 -4.79975e-05)
(-0.00100653 -0.0023642 -0.000126997)
(-0.00119287 -0.00816833 0.000264968)
(-0.00100742 -0.00710993 -5.34611e-05)
(-0.00158528 -0.000780118 -0.000158093)
(0.000109111 -0.00187321 -7.36776e-06)
(0.000642996 -0.00183723 -5.85609e-05)
(2.83389e-05 -0.0036702 -0.000184601)
(0.000368294 -3.25185e-05 1.85085e-05)
(0.000438836 -2.37984e-05 -1.79669e-06)
(0.000504315 -3.79987e-05 2.64148e-06)
(0.000779412 -4.02512e-05 6.7516e-06)
(0.000357144 -4.06683e-05 2.25377e-05)
(0.000611952 -8.49183e-05 4.51005e-05)
(0.000632214 -7.52979e-05 5.43879e-05)
(0.000799446 -8.17628e-06 -9.0995e-07)
(0.000833895 -2.47433e-05 -1.93624e-06)
(0.0011092 -1.36635e-05 -1.1873e-06)
(0.000565441 -1.73359e-05 -4.1723e-06)
(0.000573808 -1.80116e-05 -4.48878e-06)
(0.000951516 -2.90395e-05 -4.06451e-06)
(0.000965111 -2.92701e-05 -4.17623e-06)
(0.000799822 -2.79312e-06 -7.07591e-08)
(0.000800156 -1.80944e-06 -2.46981e-07)
(0.00105925 -2.5194e-06 1.26997e-07)
(0.0008023 -1.34288e-06 1.08864e-07)
(0.000803716 -4.24013e-06 1.17791e-07)
(0.00107092 -1.41801e-06 2.02907e-07)
(0.000802527 -4.68504e-07 8.61453e-08)
(0.00080362 -1.88911e-06 6.43288e-08)
(0.00107071 1.87326e-08 1.78538e-07)
(0.000802785 -1.73469e-07 3.84801e-08)
(0.000803223 -1.18589e-06 5.78474e-08)
(0.00107085 6.89014e-08 1.75376e-07)
(0.000802665 1.6374e-07 2.48031e-08)
(0.000802943 -6.57355e-07 2.5726e-08)
(0.00107096 2.69951e-07 1.83355e-07)
(0.000800905 2.83203e-07 4.95783e-08)
(0.000801865 -6.85038e-07 4.72595e-08)
(0.00106957 6.22022e-07 1.62305e-07)
(0.0007997 1.43402e-07 2.01138e-08)
(0.00080042 -3.72388e-07 5.10521e-08)
(0.00106742 3.99262e-07 1.82057e-07)
(0.000798305 7.09412e-09 2.24082e-08)
(0.000799062 8.72217e-07 2.74629e-08)
(0.00106567 1.70748e-07 1.42737e-07)
(0.000797014 -6.05565e-08 3.29354e-08)
(0.00079764 -1.72949e-07 5.29331e-08)
(0.00106385 -1.94917e-08 1.77516e-07)
(0.000795662 -8.10942e-08 2.75626e-08)
(0.000796276 -2.69277e-07 4.77902e-08)
(0.00106211 -3.54549e-08 1.96188e-07)
(0.000793746 -2.03939e-08 4.94843e-08)
(0.000794759 6.70831e-07 2.77409e-08)
(0.00105982 -1.00967e-07 1.4983e-07)
(0.00079223 5.69797e-08 7.84801e-08)
(0.000793121 -1.14547e-07 3.9872e-08)
(0.00105753 6.82197e-08 1.80714e-07)
(0.000790607 1.01431e-07 8.59647e-08)
(0.000791505 -1.78792e-08 2.06771e-08)
(0.00105555 8.92613e-08 1.7763e-07)
(0.000789009 8.57816e-08 4.8956e-08)
(0.000789799 1.73556e-07 6.53938e-08)
(0.00105329 2.32977e-07 1.57786e-07)
(0.000787341 7.39724e-08 4.23191e-08)
(0.000788199 -6.36241e-07 6.88431e-09)
(0.00105114 8.34361e-08 2.25358e-07)
(0.000785548 2.60004e-07 6.74076e-08)
(0.000786755 3.80274e-08 5.3732e-08)
(0.00104891 1.77693e-07 1.94209e-07)
(0.000784046 5.6359e-07 9.14895e-08)
(0.000785214 -8.74053e-07 2.3963e-08)
(0.00104662 5.607e-07 2.20301e-07)
(0.000783139 5.31485e-07 7.7708e-08)
(0.000783468 -2.22092e-06 6.56942e-08)
(0.00104505 9.69858e-07 2.11816e-07)
(0.000781348 2.47775e-07 5.25822e-08)
(0.000781815 5.6684e-07 4.16201e-08)
(0.00104327 4.64297e-07 1.52265e-07)
(0.000779714 1.61272e-07 4.02263e-08)
(0.000780392 9.50116e-08 5.26785e-08)
(0.0010411 2.07155e-07 1.79373e-07)
(0.000777686 2.59539e-08 1.11741e-07)
(0.000778592 1.03062e-06 5.04425e-08)
(0.00103855 2.22067e-07 2.12494e-08)
(0.000776477 -2.88898e-07 1.39252e-07)
(0.000776818 -1.94969e-07 1.35073e-07)
(0.00103631 -1.90903e-07 1.36117e-07)
(0.000774431 -4.9742e-07 2.12498e-08)
(0.000775317 -7.71482e-07 -2.36044e-08)
(0.00103426 -6.84892e-07 3.70178e-07)
(0.000773023 -4.76746e-07 2.37437e-08)
(0.00077372 -7.36481e-07 -1.49103e-08)
(0.00103184 -7.24381e-07 3.17594e-07)
(0.00077144 -2.88987e-07 6.53164e-08)
(0.000772315 -2.95517e-07 1.05176e-07)
(0.00102988 -5.63784e-07 1.81897e-07)
(0.000770202 -4.84468e-08 4.11959e-08)
(0.000771049 -1.50726e-08 7.28284e-08)
(0.0010282 -1.92786e-07 1.61641e-07)
(0.000768582 1.34668e-07 5.46462e-08)
(0.000769493 -5.17237e-08 4.45992e-08)
(0.00102631 1.02514e-07 1.57883e-07)
(0.000766807 2.1878e-07 6.04281e-08)
(0.000767778 -6.37005e-08 5.22743e-08)
(0.00102399 3.0525e-07 2.27957e-07)
(0.000764995 2.66753e-07 4.07149e-08)
(0.000766157 1.39833e-07 4.7238e-08)
(0.00102155 3.01475e-07 2.07679e-07)
(0.000763379 4.53981e-07 6.53045e-08)
(0.000764591 4.96753e-07 2.11996e-08)
(0.00101914 4.10179e-07 1.39427e-07)
(0.000763004 3.8303e-07 8.99526e-08)
(0.000763111 -2.44651e-06 5.71732e-08)
(0.00101792 7.99475e-07 2.2245e-07)
(0.000761084 8.85781e-08 5.82455e-08)
(0.000761635 3.15782e-07 2.39962e-07)
(0.00101651 2.76046e-07 1.78922e-07)
(0.000759443 -2.42209e-08 5.31523e-08)
(0.000760101 1.04299e-08 3.90636e-08)
(0.00101405 2.94121e-08 1.86629e-07)
(0.000758099 -4.27102e-07 7.39186e-08)
(0.000758462 -5.65302e-08 6.66069e-08)
(0.00101194 -7.29781e-08 1.45954e-07)
(0.000757226 -6.98683e-07 4.29734e-08)
(0.000757292 1.68272e-06 7.79641e-08)
(0.00101074 -1.01036e-06 1.39051e-07)
(0.000754918 -4.6497e-07 2.1191e-08)
(0.000756143 2.21522e-06 4.69821e-08)
(0.00100851 -7.60359e-07 8.77792e-08)
(0.000753624 -2.75662e-07 -1.2211e-08)
(0.00075451 -3.21165e-07 4.61319e-08)
(0.00100604 -4.27979e-07 1.67469e-07)
(0.000752292 -1.94981e-07 -5.58696e-09)
(0.000752992 4.65163e-09 -4.62198e-09)
(0.00100438 -3.03299e-07 1.57097e-07)
(0.000750836 -1.77638e-07 5.56858e-08)
(0.000751578 3.30398e-08 6.50652e-08)
(0.00100242 -2.25804e-07 1.69286e-07)
(0.000749439 -2.66292e-07 5.23195e-08)
(0.000750206 -2.23871e-08 5.4031e-08)
(0.00100069 -2.76255e-07 1.73175e-07)
(0.000747832 -3.4217e-07 2.24784e-08)
(0.000748664 -2.59877e-07 -6.17737e-09)
(0.000998573 -4.61151e-07 1.961e-07)
(0.000747328 8.5652e-07 5.49675e-08)
(0.000996474 -4.43727e-07 1.08283e-07)
(0.0106868 0.000298825 -0.000168255)
(-0.00496718 0.00106192 -0.000257117)
(0.00168143 0.000194621 0.000373934)
(0.00476946 -0.00484672 -0.000826921)
(0.00342368 -0.00799678 -5.41386e-05)
(0.0046977 -0.00586372 0.00178882)
(0.00894004 -0.00947614 6.25676e-05)
(0.00308827 -0.00122051 -0.00486019)
(-0.000178425 -0.00216964 -0.000604357)
(0.00102937 -0.00273494 -0.000364696)
(0.00325825 -0.000302297 0.000175)
(0.00929616 -0.00530039 -0.000261927)
(0.0185091 0.00749354 0.00692464)
(0.00778918 0.00407316 -0.00244471)
(0.000923514 0.0116331 -0.00585209)
(0.00953171 -0.00250326 0.00618243)
(0.00317986 0.00195509 -0.000339682)
(-0.00676389 0.00361215 0.000305628)
(0.000237503 0.00294362 0.000511093)
(-0.010762 0.00506 -0.000231397)
(0.00533705 0.000414393 0.000149691)
(0.00222193 -8.9631e-05 0.000412342)
(-0.0029806 -0.00592102 -0.000200299)
(0.00672042 0.00268994 -0.000567428)
(0.00541556 -0.000428108 0.000614289)
(0.0020894 0.00378023 -0.00149206)
(0.000831322 -0.00788749 0.00142423)
(0.00219079 0.00447361 0.000515349)
(0.00116175 0.000726725 0.000146649)
(0.0023302 0.00249339 0.000412224)
(0.000236907 -0.00424004 0.000338952)
(-0.00376963 0.0113322 0.00108515)
(0.000667991 0.00737151 0.000904972)
(0.0011824 1.00329e-05 0.000276479)
(-1.50941e-05 -0.000351708 0.000196951)
(0.00268133 0.000400382 -2.07802e-05)
(0.000915938 -0.000115073 -0.000123592)
(-0.00109489 0.00687807 8.99493e-05)
(-0.00395794 -0.00259091 0.00020089)
(-0.00377436 -0.00198683 0.000489354)
(-0.00658878 0.0103025 0.00111207)
(-0.000872918 0.000558892 -4.68003e-05)
(-0.000521508 -0.00283791 -7.62089e-05)
(-0.000248651 0.00106065 1.98114e-05)
(0.000316504 0.000469937 0.000112886)
(0.000177396 0.000197365 -1.69424e-05)
(0.000447551 -7.81503e-05 2.88777e-05)
(0.000406251 -2.38844e-05 6.09841e-06)
(0.000364028 -1.13155e-05 1.07479e-05)
(0.000561986 -2.24045e-05 1.50906e-05)
(0.000258666 -1.77375e-05 1.9717e-06)
(0.000816691 -1.02175e-05 -1.27382e-06)
(0.000561871 -1.48761e-05 -1.25411e-06)
(0.00111847 -3.53123e-05 -1.47028e-06)
(0.000592456 -2.04733e-05 -4.63656e-06)
(0.000585296 -2.29874e-05 -4.68801e-06)
(0.00101211 -2.72548e-05 -5.10963e-06)
(0.000989933 -3.39918e-05 -4.59464e-06)
(0.000552907 -3.17875e-05 -4.00158e-06)
(0.000936874 -2.00378e-05 -5.02293e-07)
(0.000915232 -5.10519e-05 -4.84088e-06)
(0.000805713 2.75962e-06 -5.85508e-08)
(0.000826974 1.1088e-05 -8.87913e-07)
(0.00107692 1.52314e-05 9.68007e-08)
(0.000805397 -2.74803e-06 7.32731e-08)
(0.000796873 -5.60765e-06 -1.5446e-07)
(0.00107401 -3.48584e-06 1.61178e-07)
(0.000804257 -1.5561e-06 3.6033e-08)
(0.000805103 -2.45233e-06 1.16679e-07)
(0.00107353 -1.04257e-06 1.76468e-07)
(0.000803499 -1.25492e-06 4.51038e-08)
(0.000803596 -2.24939e-06 4.50673e-08)
(0.00107206 -1.35751e-06 1.78066e-07)
(0.000802501 -9.49221e-07 4.81755e-08)
(0.000803324 -1.45377e-06 5.58544e-08)
(0.00107101 -8.79677e-07 1.80535e-07)
(0.00080123 -7.33362e-07 4.8732e-08)
(0.000802134 -1.10089e-06 5.10893e-08)
(0.00106945 -9.42305e-07 1.77793e-07)
(0.000799868 -4.70139e-07 5.84088e-08)
(0.000800749 -6.90065e-07 5.37007e-08)
(0.00106771 -5.7012e-07 1.78581e-07)
(0.00079838 -1.91989e-07 5.79795e-08)
(0.00079941 -3.16665e-08 6.24446e-08)
(0.00106577 -4.2468e-07 2.29721e-07)
(0.000796851 7.09381e-08 6.77895e-08)
(0.000797968 -1.56352e-07 1.38692e-09)
(0.00106378 4.04484e-08 1.69698e-07)
(0.000795475 1.10022e-07 4.79749e-08)
(0.000796324 -5.29877e-07 6.59407e-08)
(0.00106181 1.67163e-07 1.75148e-07)
(0.000794174 5.74e-08 1.81246e-08)
(0.000794693 1.56497e-06 9.28109e-08)
(0.00105999 1.2195e-07 8.85183e-08)
(0.000792378 6.52763e-08 -1.79248e-08)
(0.000793131 1.06799e-07 3.80347e-08)
(0.00105793 5.23949e-08 1.77581e-07)
(0.000790698 1.13579e-07 9.19387e-11)
(0.000791564 2.74413e-07 7.67924e-08)
(0.00105565 1.60403e-07 1.62269e-07)
(0.000788918 3.09183e-07 2.33409e-08)
(0.000790042 4.95041e-08 5.49406e-08)
(0.00105335 1.76629e-07 1.99759e-07)
(0.000787672 4.55986e-07 1.82823e-08)
(0.00078838 8.17553e-07 3.92152e-08)
(0.00105121 6.80094e-07 4.33765e-08)
(0.000786364 4.68138e-07 1.02969e-08)
(0.000786768 5.24487e-07 6.06864e-08)
(0.00104964 5.85334e-07 1.15944e-07)
(0.000784766 5.19163e-07 -1.84558e-09)
(0.000785276 -1.198e-07 2.98454e-09)
(0.00104782 7.11073e-07 1.22705e-07)
(0.000782006 3.68985e-07 2.96139e-08)
(0.000783278 -2.62225e-07 6.1566e-08)
(0.00104472 6.95719e-07 1.39896e-07)
(0.000780909 6.87111e-08 4.17129e-08)
(0.000781438 -1.43226e-07 4.86694e-08)
(0.00104211 2.96204e-07 1.81408e-07)
(0.00077932 -2.93007e-07 6.28955e-08)
(0.000779941 1.034e-07 5.59512e-08)
(0.00104054 -1.24535e-07 1.74435e-07)
(0.000777624 -4.30335e-07 7.37476e-08)
(0.000778422 -2.97112e-07 4.5682e-08)
(0.00103826 -7.47192e-07 2.78192e-07)
(0.000775766 -3.45338e-07 -2.77338e-08)
(0.000776927 -2.34718e-07 4.43678e-08)
(0.0010357 -5.21532e-07 2.01865e-07)
(0.000774488 -2.71264e-07 -5.97672e-08)
(0.000775412 1.812e-07 4.59162e-08)
(0.00103383 -4.66574e-07 8.0863e-08)
(0.000773015 3.31839e-08 6.64842e-08)
(0.0007741 3.57119e-07 3.95219e-08)
(0.00103205 -2.85069e-07 8.83552e-08)
(0.00077192 2.81933e-07 1.12698e-07)
(0.000772625 -2.2253e-06 6.31739e-08)
(0.00103028 4.00562e-07 2.69481e-07)
(0.00077041 1.88454e-07 7.62404e-08)
(0.000770931 -1.66824e-06 6.02848e-08)
(0.00102865 4.44987e-07 2.87413e-07)
(0.000768651 7.41734e-08 4.22249e-08)
(0.000769349 2.29814e-07 6.989e-08)
(0.00102641 1.34721e-07 1.72287e-07)
(0.000767132 9.24949e-08 3.90857e-08)
(0.000767801 -3.8071e-08 4.47695e-08)
(0.00102413 8.99875e-08 1.69481e-07)
(0.000765739 2.37325e-07 2.77308e-08)
(0.000766337 1.00346e-07 4.92533e-08)
(0.00102222 1.6419e-07 1.6338e-07)
(0.000764294 5.03656e-07 1.30571e-08)
(0.000764922 7.70035e-08 3.16339e-08)
(0.00102047 4.68786e-07 1.95739e-07)
(0.000761775 4.68625e-07 2.07126e-07)
(0.000763065 -6.8195e-07 2.14981e-08)
(0.00101776 8.64923e-07 1.35776e-07)
(0.000760634 1.89446e-07 2.20842e-07)
(0.000761284 1.87243e-07 2.5079e-07)
(0.00101524 4.14687e-07 1.48552e-07)
(0.000759194 3.32197e-08 5.25097e-08)
(0.000759905 -5.00991e-08 5.43294e-08)
(0.0010136 1.31109e-07 1.71156e-07)
(0.000757378 -1.20414e-07 7.06489e-08)
(0.00075827 5.06791e-07 -3.05417e-08)
(0.00101137 -5.96247e-08 1.60534e-07)
(0.000756416 -4.74711e-07 8.19823e-08)
(0.000756851 6.18526e-07 1.04807e-07)
(0.00100949 -3.04145e-07 2.01683e-07)
(0.000755787 -5.19394e-07 7.19232e-08)
(0.000756089 8.51818e-08 1.17348e-07)
(0.00100863 -9.559e-07 2.49618e-07)
(0.000753767 -2.55229e-07 5.37365e-08)
(0.000754842 1.93806e-07 7.03281e-08)
(0.00100678 -3.87729e-07 1.8452e-07)
(0.000752318 -1.40513e-07 6.60089e-08)
(0.000753136 -8.55843e-08 4.76795e-08)
(0.00100441 -2.94574e-07 1.77326e-07)
(0.000750913 -8.49971e-08 6.34137e-08)
(0.000751649 2.30727e-08 6.07209e-08)
(0.0010026 -7.39537e-08 1.68227e-07)
(0.000749492 -1.57334e-07 -4.44758e-09)
(0.000750116 1.34367e-07 4.88648e-08)
(0.00100068 -1.31565e-07 1.58179e-07)
(0.000748009 -2.16912e-07 2.62932e-08)
(0.000748592 -2.06877e-07 -8.81766e-09)
(0.000998655 -3.01973e-07 1.72172e-07)
(0.000747597 -1.94999e-07 1.15099e-07)
(0.000997158 -2.95636e-07 2.26313e-07)
(-0.00535152 -0.00246309 -0.000350786)
(-0.0024864 0.00695827 0.000233536)
(-0.0102517 0.0038999 0.000160955)
(-0.000976861 0.00516969 -0.000180186)
(0.00184803 0.00730991 0.000178057)
(0.00410694 0.00600755 0.000167358)
(0.00942462 -0.00346559 -2.48093e-05)
(0.00573356 -0.00291312 -0.000818642)
(0.00281841 0.00176731 -0.000933338)
(0.00870408 -0.0117924 -0.000370095)
(0.00421255 0.00108146 -0.000581799)
(-0.00722103 -0.0256059 -0.000380186)
(-0.00170262 -3.34081e-05 0.000409387)
(0.003533 -0.00124161 0.000445451)
(-0.00035928 0.00539359 -0.00265)
(0.00321353 -0.00152347 0.000107883)
(-0.00204151 -0.00180912 0.000174593)
(-0.00384094 -0.00154225 0.000650476)
(0.00283676 0.00377631 0.00404001)
(-0.00238946 0.00416909 0.000248308)
(0.0041371 0.00582001 0.00247319)
(-0.00163787 -0.00106687 -0.000483869)
(0.00326563 0.00134486 0.000147351)
(-0.00056758 -0.00370716 -2.11733e-05)
(-0.00385351 0.00515369 -2.1161e-05)
(0.00421054 0.00210589 -0.00147826)
(-0.00250555 0.00353942 -0.000144624)
(0.000624086 -0.00204122 0.000200155)
(-0.00466194 0.00238061 -7.57778e-05)
(0.00112426 -0.0012862 0.000158891)
(-0.00114201 -0.00650331 -0.000182086)
(0.00445368 -0.00053005 -0.000367695)
(-0.000196329 0.00625639 -0.000374089)
(0.00751516 0.00177565 -0.00136911)
(-0.000850242 0.000420971 -4.8073e-05)
(0.000664061 2.21843e-05 1.31213e-05)
(-0.00062447 0.000421661 -1.91019e-05)
(0.000112119 0.000788763 -1.9192e-05)
(-0.000592764 0.000468028 8.36465e-05)
(0.0011004 0.000273716 6.54375e-05)
(0.000496312 -0.00019693 3.30814e-05)
(0.000743116 6.66739e-06 1.23826e-05)
(0.000697839 -4.01823e-05 2.92613e-05)
(0.000590487 -7.17092e-05 1.80546e-05)
(0.000448461 -1.62393e-05 -9.60717e-07)
(0.0004578 -1.95017e-05 -2.94374e-06)
(0.000431988 -2.21708e-05 -4.83527e-08)
(0.000704805 -1.85768e-05 -2.76925e-07)
(0.000795774 -6.49393e-06 -9.84062e-07)
(0.000863964 -1.54183e-05 -1.5675e-06)
(0.00112779 -1.81134e-06 -9.08919e-07)
(0.000570786 -1.7876e-05 -3.74502e-06)
(0.000582996 -1.25464e-05 -4.86122e-06)
(0.000938232 -3.62036e-05 -4.5845e-06)
(0.000960674 -2.43693e-05 -6.17975e-06)
(0.000801891 -7.35061e-06 -1.11142e-07)
(0.000795871 -1.39033e-05 -4.65357e-07)
(0.00105068 -1.18549e-05 8.3301e-08)
(0.00080343 -3.90443e-06 1.25737e-07)
(0.000809426 -6.91193e-06 1.66636e-07)
(0.00107335 -5.41527e-06 2.14414e-07)
(0.000803783 -2.54403e-06 5.58144e-08)
(0.000805304 -4.716e-06 -1.80099e-09)
(0.00107104 -3.55116e-06 1.79239e-07)
(0.000802989 -1.66664e-06 5.87698e-08)
(0.000804426 -2.50407e-06 5.78226e-08)
(0.00107148 -2.33192e-06 1.80602e-07)
(0.000801682 -1.07887e-06 5.60571e-08)
(0.000802873 -1.49763e-06 5.38583e-08)
(0.00106995 -1.54715e-06 1.79638e-07)
(0.000800194 -6.79829e-07 5.77337e-08)
(0.000801251 -8.7006e-07 5.43095e-08)
(0.00106806 -9.81051e-07 1.80116e-07)
(0.000799135 -4.46367e-07 5.87173e-09)
(0.000799703 -7.413e-07 5.50159e-08)
(0.00106644 -6.29233e-07 1.79522e-07)
(0.000797433 -2.68444e-07 -4.82697e-10)
(0.000798192 -3.12186e-07 2.50183e-09)
(0.00106459 -4.48385e-07 1.96512e-07)
(0.000795505 -1.59539e-07 1.10768e-07)
(0.000796462 3.14906e-08 4.87183e-08)
(0.00106222 -2.25585e-07 1.66126e-07)
(0.000793652 -1.30895e-07 1.12739e-07)
(0.00079473 4.47333e-07 1.10222e-07)
(0.00105968 -2.16738e-07 2.75294e-07)
(0.000792328 -1.04624e-07 1.3274e-07)
(0.000793164 -3.15354e-07 4.05965e-08)
(0.00105758 -1.59929e-07 1.8129e-07)
(0.000790856 -6.88194e-08 1.31648e-07)
(0.00079161 8.63862e-08 1.40708e-07)
(0.0010557 -1.28629e-07 1.77522e-07)
(0.000789616 -1.34137e-08 7.082e-08)
(0.000790111 -3.33649e-07 4.93595e-08)
(0.00105394 -6.1734e-08 1.70938e-07)
(0.000787369 1.41668e-08 8.16124e-08)
(0.000788415 -7.94603e-07 4.62105e-08)
(0.00105165 1.68854e-08 3.44133e-07)
(0.000785675 -1.03285e-07 5.33924e-08)
(0.000786622 7.39906e-08 6.80271e-08)
(0.00104894 3.22181e-08 2.15015e-07)
(0.000784037 -2.59815e-07 6.63775e-08)
(0.000785081 7.92827e-07 1.27607e-07)
(0.00104675 -3.15131e-07 1.15038e-07)
(0.000782412 -1.85348e-07 8.06256e-08)
(0.000783372 -1.77364e-07 8.00141e-08)
(0.00104452 -3.91286e-07 1.71793e-07)
(0.000780568 -7.36521e-08 6.29054e-08)
(0.000781579 -8.28001e-08 6.46686e-08)
(0.00104225 -9.47199e-08 1.9291e-07)
(0.000779012 -1.00623e-07 3.8741e-08)
(0.000779908 -1.55819e-07 5.74462e-08)
(0.0010398 -8.56129e-08 1.90256e-07)
(0.000777732 4.17017e-08 1.63027e-08)
(0.0007786 1.97463e-07 2.30168e-08)
(0.00103806 -1.65882e-07 1.13152e-07)
(0.000776598 3.03265e-07 1.18017e-07)
(0.000777252 5.09171e-07 3.17821e-08)
(0.00103666 3.18951e-07 8.27763e-08)
(0.000774916 4.09029e-07 1.45207e-07)
(0.000775542 3.11567e-07 1.45783e-07)
(0.00103456 5.92691e-07 1.74691e-07)
(0.000773846 4.29292e-07 3.62041e-08)
(0.000774123 4.33596e-07 5.88464e-08)
(0.00103292 6.01963e-07 1.24796e-07)
(0.000771542 3.70432e-07 1.07616e-08)
(0.00077255 1.06756e-08 2.59782e-08)
(0.00103079 5.83606e-07 8.10472e-08)
(0.000769912 1.96835e-07 5.39314e-08)
(0.000770713 9.5873e-08 3.39311e-08)
(0.00102786 4.12396e-07 5.49144e-08)
(0.000768473 1.05156e-07 7.24425e-08)
(0.000769234 1.94951e-07 5.10924e-08)
(0.00102586 1.08734e-07 1.66305e-07)
(0.000766976 1.03192e-07 5.49357e-08)
(0.000767798 -1.07998e-07 6.91171e-08)
(0.00102402 1.4465e-07 1.74311e-07)
(0.000765535 3.11792e-08 5.31619e-08)
(0.000766247 4.02435e-08 5.35013e-08)
(0.00102203 1.17118e-07 1.6921e-07)
(0.00076393 -9.96392e-08 4.0078e-08)
(0.000764758 3.6996e-08 4.61081e-08)
(0.00102001 -2.35911e-08 1.82797e-07)
(0.000762219 -5.4394e-08 6.50912e-08)
(0.000763122 -1.75718e-07 2.43412e-08)
(0.00101785 -2.10292e-07 1.53642e-07)
(0.000760681 8.83431e-08 8.43379e-08)
(0.000761463 8.1293e-07 9.24766e-08)
(0.00101559 6.24816e-08 1.3002e-07)
(0.000759072 1.32454e-07 -2.86959e-08)
(0.00075996 1.27029e-07 6.47296e-08)
(0.00101346 1.33794e-07 1.69192e-07)
(0.000757613 3.39458e-07 3.57436e-09)
(0.000758528 -1.21078e-07 -1.79818e-08)
(0.0010114 2.04721e-07 2.14383e-07)
(0.000756223 5.56194e-07 1.40168e-07)
(0.00075712 4.20984e-07 1.15857e-07)
(0.00100963 7.25875e-07 1.77742e-07)
(0.000755622 3.63975e-07 1.15767e-07)
(0.000755846 -9.7919e-07 2.37525e-08)
(0.00100842 7.84368e-07 1.69759e-07)
(0.000754084 1.55686e-07 6.4278e-08)
(0.00075458 3.22928e-07 7.21868e-08)
(0.00100687 2.44588e-07 1.68788e-07)
(0.000752412 2.05752e-07 4.23875e-08)
(0.000753197 1.75981e-07 5.89921e-08)
(0.00100478 2.69808e-07 1.72142e-07)
(0.000750874 2.9007e-07 4.61756e-08)
(0.000751752 2.60447e-07 5.62918e-08)
(0.00100262 3.49307e-07 1.62251e-07)
(0.000749239 2.34743e-07 4.45123e-08)
(0.000750045 3.66806e-07 5.11387e-08)
(0.0010004 4.5058e-07 1.72205e-07)
(0.000747923 1.23491e-07 7.99508e-08)
(0.000748452 2.56097e-07 4.21597e-08)
(0.000998376 1.75134e-07 1.26908e-07)
(0.000747443 -1.26109e-06 1.36132e-07)
(0.000997217 1.52712e-07 2.05646e-07)
(0.00455839 0.00963638 -4.48306e-05)
(0.00736187 0.00966758 0.000288576)
(0.000509074 0.0013218 0.000544379)
(-0.00270209 -0.000611567 0.000909813)
(0.00187463 -0.00558093 0.0021144)
(-0.00336322 -0.00507903 2.77074e-06)
(0.00986305 -0.00510205 -0.000465853)
(0.00261966 0.00300015 -0.00037075)
(0.0032665 0.00339565 -0.00086405)
(0.00425393 0.0051502 -0.000573568)
(0.00275461 -0.00431953 1.57279e-07)
(-0.00130995 -0.00186801 0.000234715)
(-0.00139641 -0.00301553 0.000157377)
(0.00413892 -0.00787992 6.87189e-05)
(0.00707579 -0.00135079 -1.32778e-05)
(0.00596215 -0.000139239 0.000266661)
(0.00882881 0.00117073 7.14581e-05)
(0.00231841 0.00348857 0.000104794)
(-0.00171232 0.00547728 0.000226337)
(-0.00338364 0.000906799 0.000228275)
(0.000808037 -0.00211378 0.000253761)
(0.00112412 0.0042518 0.00102746)
(0.00276992 -0.0002964 0.000392297)
(0.000193841 -0.00186779 -1.73545e-05)
(-0.000312836 -0.00228225 -5.20775e-06)
(0.000468943 -0.00185027 -1.96152e-05)
(0.00238228 -0.00218445 -0.000127619)
(0.00131454 -0.00430411 -4.44228e-05)
(0.00019455 7.39409e-05 2.89207e-05)
(0.00103838 0.000141787 9.88553e-05)
(0.00102145 2.32934e-05 8.39671e-05)
(0.000928793 -0.000204193 -3.99432e-05)
(0.000763482 -0.000116883 5.17196e-05)
(0.000318333 -3.56422e-05 -1.00233e-06)
(0.000479885 -3.87996e-05 -3.22632e-06)
(0.0004662 -3.20339e-05 -7.7706e-07)
(0.00073437 -8.19835e-05 -9.05728e-07)
(0.000340998 -3.17138e-05 -2.26637e-07)
(0.000595926 -6.33158e-05 3.63727e-06)
(0.000644329 -5.24352e-05 4.89115e-06)
(0.000441514 -3.94957e-05 -3.37241e-07)
(0.00081787 -1.33156e-05 -1.04916e-06)
(0.000891337 -5.50638e-06 -1.13189e-06)
(0.00117316 -1.88627e-05 -1.16864e-06)
(0.00060325 -2.27874e-05 -3.757e-06)
(0.000619692 -1.45993e-05 -4.85935e-06)
(0.00099219 -4.3823e-05 -4.68783e-06)
(0.00103013 -2.55131e-05 -6.24298e-06)
(0.000813056 -9.04733e-06 -1.87786e-07)
(0.000801245 -7.75353e-06 -5.75962e-07)
(0.00106969 -1.50842e-05 3.03512e-08)
(0.000809342 -5.0433e-06 3.91527e-08)
(0.000814463 -4.49746e-06 1.80532e-07)
(0.00108395 -8.04291e-06 1.93898e-07)
(0.00080618 -3.12231e-06 1.8776e-10)
(0.000807724 -2.52107e-06 -2.88929e-09)
(0.00107593 -4.80005e-06 1.61187e-07)
(0.000804249 -1.96532e-06 5.29124e-08)
(0.000805883 -2.11871e-06 1.31784e-07)
(0.00107353 -3.14744e-06 1.79859e-07)
(0.000802442 -1.10093e-06 5.21106e-08)
(0.00080396 -1.25354e-06 5.47058e-08)
(0.00107115 -1.84699e-06 1.78697e-07)
(0.000800659 -5.90024e-07 5.15915e-08)
(0.000801893 -6.61246e-07 2.2029e-08)
(0.00106886 -9.41513e-07 1.78729e-07)
(0.000798793 -4.68975e-07 5.16629e-08)
(0.000799857 -4.2021e-07 6.39139e-08)
(0.00106644 -5.3593e-07 1.78153e-07)
(0.000797317 -5.06945e-07 5.16879e-08)
(0.000798146 -4.18869e-07 5.20129e-08)
(0.00106429 -6.25204e-07 1.73827e-07)
(0.000795597 -5.16617e-07 4.81529e-08)
(0.000796451 -1.78351e-08 5.46382e-08)
(0.00106211 -6.28709e-07 1.90387e-07)
(0.000794218 -4.27298e-07 3.81027e-08)
(0.000794843 3.73283e-08 1.31597e-07)
(0.00106008 -6.71816e-07 1.8549e-07)
(0.000792437 -3.02417e-07 4.85326e-08)
(0.000793322 -1.42149e-07 2.09822e-08)
(0.00105804 -4.45578e-07 1.79636e-07)
(0.000790837 -2.85638e-07 5.84483e-08)
(0.000791632 -1.28766e-07 6.4877e-08)
(0.00105578 -3.78442e-07 1.90531e-07)
(0.000789048 -4.12123e-07 2.4751e-08)
(0.000789955 -7.58299e-08 4.18487e-08)
(0.00105354 -4.01136e-07 1.73981e-07)
(0.000787533 -4.19388e-07 3.26182e-08)
(0.000788408 -1.9477e-07 1.43508e-07)
(0.00105133 -6.96988e-07 1.26225e-07)
(0.000786055 -2.64849e-07 1.42223e-07)
(0.000786817 4.65349e-08 8.63478e-08)
(0.00104923 -4.33637e-07 1.66681e-07)
(0.000784496 -1.38139e-07 1.41259e-07)
(0.000785241 -1.2343e-07 1.55312e-07)
(0.00104729 -3.28081e-07 2.36067e-07)
(0.000782469 2.2084e-08 6.40619e-08)
(0.000783573 1.37952e-06 8.98313e-08)
(0.00104499 -1.09142e-07 1.03929e-07)
(0.000780901 2.2843e-07 5.92118e-08)
(0.000781836 -1.3926e-07 6.39269e-08)
(0.00104249 1.34324e-07 1.76839e-07)
(0.000779431 5.12884e-07 4.1733e-08)
(0.000780261 5.36978e-07 5.6769e-08)
(0.00104045 4.97639e-07 1.15814e-07)
(0.000778196 5.29226e-07 3.84935e-08)
(0.000778617 8.83058e-07 1.34356e-07)
(0.00103877 9.85272e-07 9.57041e-08)
(0.000776213 3.69937e-07 5.95115e-08)
(0.00077705 -1.70454e-08 4.9348e-08)
(0.00103665 5.88782e-07 2.47367e-07)
(0.000774618 4.27881e-07 5.9449e-08)
(0.000775611 4.0246e-07 1.10435e-08)
(0.00103418 5.44727e-07 1.69834e-07)
(0.000773072 2.51533e-07 4.86309e-08)
(0.000773901 4.26837e-07 4.53112e-08)
(0.00103203 7.37471e-07 1.72771e-07)
(0.000771524 -4.54777e-09 4.91453e-08)
(0.000772228 -5.97987e-08 2.46586e-07)
(0.00103003 6.85978e-08 1.77666e-07)
(0.000770037 3.53859e-08 3.10868e-08)
(0.000770762 6.02531e-08 5.15322e-08)
(0.00102805 -1.12308e-08 1.70326e-07)
(0.000768622 5.77716e-08 4.77614e-08)
(0.000769261 -2.3685e-07 2.86843e-08)
(0.00102607 1.1305e-07 1.92414e-07)
(0.000767007 1.53301e-08 6.76875e-08)
(0.000767745 -4.90692e-08 6.59301e-08)
(0.00102414 4.4504e-08 1.75727e-07)
(0.000765501 -3.33412e-08 4.64498e-08)
(0.000766186 9.97408e-08 3.1819e-08)
(0.00102201 -1.7545e-08 1.66315e-07)
(0.000763983 -1.36298e-07 3.0378e-08)
(0.00076463 1.61805e-07 4.66254e-08)
(0.00102006 -1.00421e-07 1.63328e-07)
(0.000762298 -1.90223e-07 5.17056e-08)
(0.000763056 -2.6404e-07 3.1279e-08)
(0.00101787 -3.13531e-07 1.93917e-07)
(0.000760767 -8.86032e-08 7.28768e-08)
(0.000761591 -3.98082e-07 -4.47162e-08)
(0.00101567 -2.69224e-07 2.61565e-07)
(0.000759432 6.98602e-08 7.54692e-08)
(0.000760158 -1.56087e-07 6.14752e-08)
(0.00101378 -3.62091e-09 1.7767e-07)
(0.000757994 2.53065e-07 9.42598e-08)
(0.000758755 1.13313e-07 2.47973e-07)
(0.00101211 2.53201e-07 1.50295e-07)
(0.000756655 4.89724e-07 -5.30598e-10)
(0.000757414 4.22148e-07 5.52023e-08)
(0.00101021 5.29032e-07 1.58732e-07)
(0.000754825 4.19975e-07 -1.98428e-08)
(0.000755757 -8.12324e-07 -2.13728e-08)
(0.00100802 8.19095e-07 1.91876e-07)
(0.00075378 1.70538e-07 6.69049e-08)
(0.000754267 -1.9576e-07 6.05425e-08)
(0.00100613 2.87867e-07 1.71098e-07)
(0.000752461 1.31031e-07 7.28971e-08)
(0.000753147 1.06156e-07 6.07583e-08)
(0.00100453 1.55882e-07 1.63998e-07)
(0.000751105 2.17493e-07 6.12564e-08)
(0.00075186 1.12869e-06 4.55092e-08)
(0.00100282 1.55788e-07 9.98708e-08)
(0.000749079 2.50591e-07 4.87889e-08)
(0.000750086 1.17793e-06 4.84378e-08)
(0.00100046 3.60515e-07 1.65504e-07)
(0.000747869 2.43399e-07 9.83122e-08)
(0.000748439 3.55299e-08 6.10111e-08)
(0.000998278 2.73566e-07 1.67261e-07)
(0.00074714 -1.37449e-06 9.92746e-08)
(0.000996749 3.67813e-07 1.88215e-07)
(0.00158484 -0.00596547 -0.000594453)
(0.00868985 -0.0031186 -0.00214797)
(0.00166651 0.00159239 7.23611e-05)
(-9.72643e-05 0.0132241 -0.00120899)
(0.000690908 -0.00650312 -0.000123652)
(0.00176934 -0.0159824 0.000923498)
(0.00196046 -0.0039019 1.84263e-05)
(0.00740063 -0.00714279 -0.000464524)
(0.00527804 -0.0159721 -0.00104775)
(0.0103186 -0.0103702 -0.00236073)
(0.0070817 -0.00866039 0.00159525)
(0.0043946 -0.00235906 0.000528867)
(-0.00337785 0.000194454 0.000261035)
(-0.00972684 0.00372987 0.000493644)
(-0.0178344 -0.00240989 -0.00616163)
(-0.00809623 -0.000277215 0.000134107)
(-0.00843119 0.00429338 0.00504614)
(-0.0126988 0.00659483 0.00383283)
(0.00160696 -0.00212335 0.000383902)
(0.000465673 -0.00617847 0.000445548)
(-0.00253994 0.00403274 0.000682413)
(-0.00250559 0.00530509 0.000380724)
(-0.0145115 0.00303094 -0.000353277)
(-0.00898197 0.001497 -0.00212665)
(-0.00956735 0.00920788 0.000215889)
(-0.00344855 0.00191131 0.000277361)
(0.0097327 0.000720969 -0.000604257)
(0.00756833 -0.00297658 -0.000771273)
(-0.0050015 0.00376151 -0.000701284)
(0.00292556 -5.65923e-05 -0.000777218)
(-0.00408281 -0.00151112 0.00286201)
(-0.000855389 0.00341482 0.00622888)
(-0.00893256 -0.00419885 -0.00705285)
(-0.00194989 -0.0010598 -0.00568777)
(-0.00996566 0.000753262 -1.77283e-05)
(-0.00014446 0.000855472 -0.000680235)
(-0.000620345 0.00338507 0.000571766)
(0.00690631 -0.00564901 0.000272103)
(0.0117141 -0.00974622 0.000246127)
(0.00910779 -0.0189282 1.10818e-05)
(-0.00453031 -0.0134276 0.000525295)
(0.00868292 -0.010056 0.000741616)
(0.00554216 -0.00280854 0.000211347)
(0.0108758 0.0025475 -0.000678178)
(0.00217197 0.000738904 0.000351915)
(0.00264172 -0.000954055 0.000385684)
(-0.00556129 0.00186095 0.000607214)
(0.000773839 -4.90832e-06 -1.66374e-05)
(0.00126865 0.000160436 -6.13243e-05)
(0.00101511 -0.000349047 1.30918e-05)
(0.00122574 0.000125372 2.09081e-06)
(0.00115714 1.12277e-05 7.46801e-05)
(0.000385495 2.72393e-05 1.31912e-05)
(0.000479761 1.44471e-05 -2.34103e-06)
(0.000510679 7.81796e-06 2.50017e-06)
(0.000805932 5.64351e-05 6.20812e-06)
(0.000380314 1.67212e-06 1.7319e-05)
(0.000699291 6.47431e-05 3.26717e-05)
(0.000671437 5.1217e-06 4.2798e-05)
(0.000491428 3.13117e-05 4.98794e-07)
(0.000816873 -5.1136e-06 -6.58879e-07)
(0.000905788 -9.11803e-06 -7.22509e-07)
(0.00119908 -6.16325e-06 -8.01854e-07)
(0.000612273 -4.40479e-06 -4.06439e-06)
(0.000615057 -6.62653e-06 -5.37324e-06)
(0.000990941 -7.53182e-06 -5.02613e-06)
(0.000996818 -1.42764e-05 -6.81515e-06)
(0.000813811 -4.8767e-06 -2.07892e-07)
(0.000801665 -3.71597e-06 -6.16795e-07)
(0.00106429 -8.61331e-06 2.31028e-08)
(0.000810385 -3.17364e-06 1.3855e-07)
(0.000816619 -2.77902e-06 2.31683e-07)
(0.00108629 -5.08032e-06 2.16436e-07)
(0.000807334 -2.08245e-06 1.28664e-07)