/*--------------------------------*- C++ -*----------------------------------*\
| =========                 |                                                 |
| \\      /  F ield         | OpenFOAM: The Open Source CFD Toolbox           |
|  \\    /   O peration     | Version:  5.0                                   |
|   \\  /    A nd           | Web:      www.OpenFOAM.org                      |
|    \\/     M anipulation  |                                                 |
\*---------------------------------------------------------------------------*/
FoamFile
{
    version     2.0;
    format      ascii;
    class       surfaceVectorField;
    location    "2.4";
    object      Uf_0;
}
// * * * * * * * * * * * * * * * * * * * * * * * * * * * * * * * * * * * * * //

dimensions      [0 1 -1 0 0 0 0];

internalField   nonuniform List<vector> 
25861
(
(0.00345448 -0.00446129 0.00113392)
(0.0014118 -0.0164599 0.000244338)
(0.000601095 0.00171574 0.00211862)
(-0.0032903 -0.00357694 -0.000602482)
(-0.00506226 -0.00443947 -0.000116471)
(-0.0123961 -0.000495043 -0.00111256)
(-0.0175097 -0.00973529 0.000513711)
(0.00439234 0.00879324 -0.000169774)
(0.00693637 0.00429808 -0.000280123)
(-0.000343522 0.00325616 0.000362449)
(0.00846602 -0.000293997 -0.000279356)
(0.00416155 0.00438945 -0.000318339)
(0.000769863 -0.00582657 -0.000371678)
(-0.000548222 -0.000905993 8.28448e-05)
(-1.0652e-05 -0.0122603 0.00034704)
(-0.00437301 -0.00254934 -7.62086e-05)
(-0.00115286 -0.0025926 -0.000165477)
(-0.00188766 -0.00829709 0.000137334)
(-0.00180203 -0.00793275 -0.000267151)
(-0.00164173 -0.000532053 -0.000151741)
(0.000136971 -0.0016572 -4.09617e-06)
(0.000557109 -0.0016432 -5.47114e-05)
(-3.88959e-05 -0.00345786 -0.000185677)
(0.000382631 1.23798e-05 1.8296e-05)
(0.000452865 2.32165e-05 -1.73855e-06)
(0.000517564 1.24341e-05 2.88984e-06)
(0.000818891 4.02808e-05 7.06903e-06)
(0.000364196 1.58893e-06 2.26158e-05)
(0.000637971 -4.45638e-06 4.46175e-05)
(0.000643286 6.94204e-07 5.46248e-05)
(0.000812677 2.57438e-05 -9.48357e-07)
(0.00083768 1.79759e-05 -1.93254e-06)
(0.0011337 3.54162e-05 -1.1853e-06)
(0.00058085 2.28127e-05 -4.26375e-06)
(0.000581204 2.233e-05 -4.52352e-06)
(0.000979021 3.51e-05 -4.28427e-06)
(0.000977881 3.82258e-05 -4.41101e-06)
(0.000809242 1.82654e-05 -5.91459e-08)
(0.00080277 2.62562e-05 -2.22941e-07)
(0.00107342 2.78799e-05 1.25986e-07)
(0.000808761 1.17272e-05 1.05019e-07)
(0.000806193 1.3433e-05 5.05713e-08)
(0.0010812 1.74744e-05 2.06012e-07)
(0.000806884 7.63637e-06 7.69607e-08)
(0.000805523 9.22501e-06 6.39796e-08)
(0.00107775 1.1723e-05 1.80389e-07)
(0.00080559 4.82729e-06 2.94891e-08)
(0.000804618 5.78884e-06 4.87514e-08)
(0.00107563 7.33642e-06 1.8083e-07)
(0.000804231 3.0981e-06 4.30448e-08)
(0.000803824 3.69871e-06 2.51861e-08)
(0.00107398 4.70653e-06 1.86287e-07)
(0.00080265 2.00921e-06 6.84419e-08)
(0.000802654 2.32044e-06 6.61844e-08)
(0.00107196 3.05244e-06 1.76057e-07)
(0.000800817 1.31289e-06 6.0171e-08)
(0.000801236 1.39613e-06 5.14042e-08)
(0.00106957 2.00343e-06 1.80874e-07)
(0.000799222 7.84859e-07 6.05679e-08)
(0.000799686 1.50811e-06 6.23402e-08)
(0.0010673 1.30027e-06 1.56601e-07)
(0.000797747 4.84767e-07 5.63586e-08)
(0.00079821 4.92517e-07 4.68631e-08)
(0.00106528 6.74066e-07 1.80237e-07)
(0.00079593 2.65799e-07 6.70147e-08)
(0.000796619 -5.92169e-08 4.39561e-08)
(0.00106311 5.61727e-07 1.30466e-07)
(0.000793947 8.69574e-08 8.61887e-08)
(0.000794939 6.28903e-07 9.51063e-08)
(0.0010605 1.41059e-07 1.9586e-07)
(0.000792587 4.89488e-08 8.53992e-08)
(0.00079339 -1.84211e-10 6.24013e-08)
(0.00105831 8.44127e-08 1.55402e-07)
(0.000790981 1.0897e-07 6.31619e-08)
(0.000791856 8.16027e-08 9.36393e-08)
(0.00105645 3.82718e-08 2.25255e-07)
(0.000789348 1.57941e-07 3.00036e-08)
(0.000790218 -3.35646e-07 5.73426e-08)
(0.00105417 2.83704e-07 1.96432e-07)
(0.000788028 8.15195e-08 2.94064e-08)
(0.000788608 6.5957e-07 9.33339e-08)
(0.0010522 1.94186e-07 1.03893e-07)
(0.000786351 1.19651e-07 2.73882e-08)
(0.00078721 -7.91705e-08 3.83668e-08)
(0.00105027 8.48337e-08 1.91957e-07)
(0.000784731 1.96818e-07 4.04047e-08)
(0.000785627 3.06717e-07 2.93482e-08)
(0.001048 3.20811e-07 1.85491e-07)
(0.000783216 1.84575e-07 7.14393e-08)
(0.000783934 2.26215e-07 5.93164e-08)
(0.00104596 3.43906e-07 1.8086e-07)
(0.000781806 1.2826e-07 5.64705e-08)
(0.000782412 -6.78097e-07 6.47829e-08)
(0.00104405 2.75238e-07 2.05542e-07)
(0.000780307 2.05769e-07 5.47666e-08)
(0.0007811 -2.46685e-08 4.78924e-08)
(0.00104223 1.20034e-07 1.72537e-07)
(0.000778323 4.98832e-08 6.39326e-08)
(0.000779176 -2.4076e-07 3.26747e-08)
(0.00103979 4.17317e-07 2.54443e-07)
(0.00077662 -4.65407e-07 3.03915e-09)
(0.000777116 -1.21805e-08 1.92455e-08)
(0.00103725 -3.30688e-07 2.0429e-07)
(0.000775237 -6.3504e-07 -2.32597e-08)
(0.00077589 1.86768e-06 3.68392e-08)
(0.00103535 -9.44551e-07 -2.92839e-08)
(0.000773482 -5.23914e-07 5.01924e-08)
(0.00077451 9.76202e-07 3.29462e-08)
(0.00103312 -7.66402e-07 8.78402e-08)
(0.000772475 -3.64369e-07 7.28228e-08)
(0.000773104 2.26817e-07 1.38931e-07)
(0.00103125 -6.23098e-07 1.67622e-07)
(0.00077124 -1.15224e-07 5.16795e-08)
(0.000771998 3.98487e-08 1.03751e-07)
(0.00102997 -2.89999e-07 1.16413e-07)
(0.00076961 6.19445e-08 4.41063e-08)
(0.000770462 7.80658e-08 4.61197e-08)
(0.00102807 6.21121e-08 1.73989e-07)
(0.000768047 9.16283e-08 6.13926e-08)
(0.000768763 -3.43708e-08 3.85758e-08)
(0.00102587 1.80876e-07 1.16974e-07)
(0.000766184 1.06765e-07 5.43242e-08)
(0.000767223 2.08707e-08 6.88773e-08)
(0.00102353 1.27677e-07 1.36528e-07)
(0.000764838 2.44437e-07 4.49743e-08)
(0.000765688 1.10625e-07 4.28967e-08)
(0.00102129 2.09534e-07 1.6199e-07)
(0.000763281 3.8762e-07 1.0513e-07)
(0.000764194 2.72328e-07 4.95717e-08)
(0.00101949 5.13497e-07 1.8141e-07)
(0.000762351 2.39828e-07 9.07232e-08)
(0.000762751 -7.68416e-07 8.45787e-08)
(0.00101794 5.5612e-07 1.81924e-07)
(0.000760815 9.6186e-09 5.61417e-08)
(0.00076135 9.00345e-08 4.09926e-08)
(0.00101621 8.58336e-08 1.74651e-07)
(0.000759373 -1.51088e-07 8.70382e-08)
(0.000759873 -7.80509e-08 7.39823e-08)
(0.00101408 -4.48771e-08 1.79729e-07)
(0.00075804 -2.53654e-07 1.63527e-07)
(0.000758595 -3.8906e-07 5.91114e-08)
(0.00101252 -3.98827e-07 1.77939e-07)
(0.000756622 -1.79298e-07 1.36232e-07)
(0.000757298 -3.24922e-07 1.5491e-07)
(0.00101057 -3.45274e-07 1.65984e-07)
(0.000754995 -5.92927e-08 2.2566e-08)
(0.000755829 1.84488e-07 4.58416e-08)
(0.00100844 -1.84284e-07 1.66471e-07)
(0.000753495 -9.81457e-08 2.19825e-08)
(0.000754249 9.72788e-08 3.52356e-08)
(0.00100645 -4.93118e-08 1.42801e-07)
(0.000752367 -3.24169e-07 1.12303e-07)
(0.000752895 -3.01588e-08 4.84594e-08)
(0.00100461 -2.48982e-07 1.42874e-07)
(0.00075096 -4.19196e-07 8.24184e-08)
(0.000751668 -3.03594e-07 1.1926e-07)
(0.00100307 -5.83057e-07 1.63222e-07)
(0.000749161 -2.99439e-07 2.52715e-08)
(0.000750046 1.41665e-06 3.47286e-08)
(0.00100083 -5.00402e-07 7.49351e-08)
(0.000748703 -4.68732e-07 5.0986e-08)
(0.000998505 -3.02579e-07 2.53934e-07)
(0.0111754 0.000377845 -9.3013e-05)
(-0.00511991 0.000904944 -0.000129137)
(0.001105 -0.000832301 -0.000744846)
(0.00271242 -0.00326525 -0.000386063)
(0.00453859 -0.000487922 -0.00071356)
(0.00269055 -0.00476744 0.00106854)
(0.00687586 -0.000521 -0.00222938)
(0.00226959 -0.00114221 -0.00240992)
(-6.61488e-05 -0.00220575 -0.000399083)
(0.000610433 -0.00298806 -0.000747021)
(0.00344553 -0.000574722 0.00013852)
(0.00942072 -0.00503126 -0.000310788)
(0.0205157 0.00750437 0.00670683)
(0.00712863 0.00275961 -0.00256089)
(0.000245371 0.0114605 -0.00552113)
(0.0100334 -0.00216047 0.0060913)
(0.00632244 0.000624444 0.000230406)
(-0.00634139 0.00353001 6.90835e-05)
(-0.000154299 0.00433939 0.00166768)
(-0.0116997 0.00324857 -0.000658256)
(0.00551471 0.000500911 0.000160169)
(0.00249074 -9.2603e-05 0.000459484)
(-0.00258197 -0.00607267 -0.000245659)
(0.00660959 0.00202611 -0.0005002)
(0.00410761 3.4306e-05 0.000491672)
(0.00162493 0.00264359 -0.00145425)
(-0.000204363 -0.00931969 0.00116625)
(0.00221081 0.00456664 0.000496841)
(0.00136883 0.000809599 0.000163004)
(0.00231422 0.0030651 0.000425076)
(0.000142504 -0.00402353 0.000345149)
(-0.00448739 0.0122972 0.00112965)
(0.000736171 0.0079321 0.000954352)
(0.00180685 -0.000299372 0.0002757)
(0.000737548 -0.000369721 0.000221809)
(0.00290187 7.51447e-05 3.21033e-05)
(0.00135432 -0.000158293 -6.30518e-05)
(-0.00103052 0.00692949 7.25327e-05)
(-0.00392423 -0.00259321 0.000190841)
(-0.00394865 -0.00186135 0.000476688)
(-0.00705336 0.0109415 0.0011059)
(-0.000910599 0.000696673 -4.58723e-05)
(-0.000411177 -0.00276453 -7.04665e-05)
(-0.000276629 0.00114693 2.17751e-05)
(0.000307522 0.00055228 0.000119377)
(0.000196003 0.000316842 -1.56908e-06)
(0.00043772 -5.7551e-05 2.89279e-05)
(0.00040317 2.77789e-06 6.31619e-06)
(0.000355633 7.00291e-06 1.07623e-05)
(0.000550065 1.25804e-05 1.54495e-05)
(0.000251268 1.58582e-06 2.2391e-06)
(0.000809225 2.38522e-05 -1.20769e-06)
(0.000549526 1.39088e-05 -8.26577e-07)
(0.00110719 1.47325e-05 -1.31661e-06)
(0.000582339 1.61774e-05 -4.45162e-06)
(0.000572883 6.27843e-06 -4.45558e-06)
(0.000999391 3.44037e-05 -4.90487e-06)
(0.000971374 1.02083e-05 -4.39155e-06)
(0.000538048 -8.65586e-06 -3.81369e-06)
(0.00092008 2.46905e-05 -4.6675e-08)
(0.000890609 -1.59087e-05 -4.7319e-06)
(0.000801901 2.45564e-05 -1.13313e-07)
(0.000815522 3.44835e-05 -8.53777e-07)
(0.00107175 4.73089e-05 1.008e-07)
(0.000803388 1.1079e-05 9.52799e-09)
(0.000789358 9.66139e-06 -2.17642e-07)
(0.00107158 1.67938e-05 1.67858e-07)
(0.00080326 7.2216e-06 3.57752e-08)
(0.000800679 7.33648e-06 1.16918e-07)
(0.00107248 1.17819e-05 1.76852e-07)
(0.000803008 4.30752e-06 4.4456e-08)
(0.000800962 4.00628e-06 4.47542e-08)
(0.00107177 6.7835e-06 1.79903e-07)
(0.0008023 2.63971e-06 4.83124e-08)
(0.000801731 2.44813e-06 5.46764e-08)
(0.00107111 4.24046e-06 1.82832e-07)
(0.000801341 1.55526e-06 4.91516e-08)
(0.000801294 1.40582e-06 5.11076e-08)
(0.00106986 2.47772e-06 1.8174e-07)
(0.000800128 9.07605e-07 5.35699e-08)
(0.000800424 8.27227e-07 5.27072e-08)
(0.00106838 1.44573e-06 1.80192e-07)
(0.000798625 5.97187e-07 4.86404e-08)
(0.000799297 8.24917e-07 5.62021e-08)
(0.00106651 8.22114e-07 2.1349e-07)
(0.000797181 4.26921e-07 3.44616e-08)
(0.000797997 5.74308e-07 4.64723e-08)
(0.00106459 6.4733e-07 1.56175e-07)
(0.000795521 3.02304e-07 7.20312e-08)
(0.000796463 -5.55592e-08 6.13165e-08)
(0.00106252 3.65179e-07 1.80414e-07)
(0.000794472 2.33103e-07 7.13294e-08)
(0.000794853 4.31204e-07 1.13136e-07)
(0.0010606 3.43134e-07 1.42037e-07)
(0.000792614 2.03575e-07 7.06314e-08)
(0.000793353 2.53772e-07 3.60952e-08)
(0.00105865 2.38243e-07 1.81157e-07)
(0.000791123 2.00396e-07 8.78317e-08)
(0.000791852 -9.32265e-07 6.23554e-08)
(0.00105649 3.03012e-07 2.37577e-07)
(0.000789426 3.05304e-07 1.20661e-07)
(0.000790348 2.87231e-08 5.41822e-08)
(0.00105438 2.42139e-07 1.60269e-07)
(0.000787787 3.93626e-07 1.02312e-07)
(0.000788716 -8.64031e-07 1.10216e-07)
(0.00105204 6.07858e-07 2.87045e-07)
(0.000786561 3.90093e-07 4.03297e-08)
(0.000787203 -8.54225e-07 -2.68909e-08)
(0.00105029 5.04988e-07 1.9937e-07)
(0.000784757 3.30651e-07 4.82504e-08)
(0.000785551 2.93068e-07 9.03556e-08)
(0.00104837 6.04627e-07 1.97148e-07)
(0.00078313 1.2397e-07 5.26582e-08)
(0.000783674 4.32832e-07 2.5186e-08)
(0.00104587 3.56857e-07 1.66572e-07)
(0.000781632 -1.38458e-07 5.62101e-08)
(0.000782084 -5.53627e-07 6.06855e-08)
(0.00104371 5.2273e-08 1.61285e-07)
(0.000780339 -6.3594e-07 2.58052e-08)
(0.00078048 -3.74569e-07 5.33521e-08)
(0.00104206 -3.66631e-07 1.77086e-07)
(0.000777678 -8.31343e-07 -1.20082e-08)
(0.000778934 3.02449e-06 -4.68234e-08)
(0.00103939 -1.30562e-06 4.31591e-08)
(0.000776238 -5.80288e-07 5.30401e-08)
(0.000777433 2.24403e-07 2.26914e-08)
(0.00103651 -8.89417e-07 1.49222e-07)
(0.000775347 -3.70058e-07 9.30463e-08)
(0.000776155 -1.34763e-07 1.0794e-07)
(0.00103514 -6.33262e-07 2.59575e-07)
(0.000774014 3.98294e-08 1.21652e-07)
(0.000775023 -4.10147e-08 5.94491e-08)
(0.00103367 -3.43571e-07 2.29351e-07)
(0.00077261 4.39071e-07 1.6987e-07)
(0.000773602 5.93091e-07 2.40067e-07)
(0.00103182 4.93977e-07 1.37842e-07)
(0.000771409 3.34781e-07 9.82087e-08)
(0.000771865 9.53232e-07 1.47165e-07)
(0.00103017 7.5314e-07 8.12409e-08)
(0.000769464 1.08152e-07 4.05915e-08)
(0.000770177 6.53531e-07 6.91299e-08)
(0.001028 1.90841e-07 1.71837e-07)
(0.000768002 7.30136e-08 4.60511e-08)
(0.000768719 -1.63355e-08 4.38274e-08)
(0.00102565 1.21478e-07 1.68778e-07)
(0.000766694 1.15155e-07 5.74579e-08)
(0.000767275 -1.72648e-07 5.6501e-08)
(0.00102386 8.94434e-08 1.70484e-07)
(0.000765072 2.46789e-07 4.7492e-08)
(0.000765851 1.70276e-07 5.15348e-08)
(0.00102201 2.57888e-07 1.80912e-07)
(0.000763606 4.02446e-07 2.90098e-08)
(0.000764387 4.0453e-07 4.10333e-08)
(0.00101985 4.77194e-07 1.62054e-07)
(0.000761736 3.0942e-07 3.48616e-08)
(0.000762633 -6.13607e-07 3.73132e-08)
(0.00101757 6.36186e-07 1.97057e-07)
(0.000760443 2.42754e-09 5.8823e-08)
(0.000760966 -5.58695e-08 5.90962e-08)
(0.00101554 1.73792e-07 1.67214e-07)
(0.000759083 -3.13211e-07 4.606e-08)
(0.000759479 -1.58785e-07 4.40247e-08)
(0.00101368 -1.76054e-07 1.68782e-07)
(0.000757823 -3.86066e-07 5.04647e-08)
(0.000758506 -7.71311e-07 3.24543e-08)
(0.00101192 -6.36882e-07 1.81995e-07)
(0.00075655 -1.49636e-07 6.45525e-08)
(0.000757596 -9.51951e-09 7.82777e-08)
(0.00101044 -4.31138e-07 1.33065e-07)
(0.000755166 -3.33494e-08 5.85144e-08)
(0.000755976 6.9352e-08 6.89598e-08)
(0.00100862 -6.25046e-08 1.74719e-07)
(0.00075338 8.56941e-08 6.17084e-08)
(0.000754398 1.53482e-07 7.42554e-08)
(0.00100646 -1.00783e-07 1.99151e-07)
(0.000752398 7.5091e-08 5.53946e-08)
(0.000752882 -1.06003e-06 4.3456e-08)
(0.00100466 2.53314e-07 2.05507e-07)
(0.000750766 -1.64625e-07 7.15961e-08)
(0.000751369 -2.93118e-08 6.37244e-08)
(0.00100289 -9.7918e-08 1.70078e-07)
(0.000749428 -2.41961e-07 6.04381e-08)
(0.000749953 2.25747e-07 7.14923e-08)
(0.0010008 -3.56596e-07 2.50712e-07)
(0.000749004 2.208e-07 4.84871e-08)
(0.00099951 -3.00639e-07 8.34922e-08)
(-0.00553671 -0.00229193 -0.000346851)
(-0.00209359 0.00661558 0.000213351)
(-0.010518 0.00413362 0.000195488)
(-0.000630004 0.00474194 -0.000110851)
(0.00271913 0.00698539 -4.07678e-07)
(0.00447598 0.00532865 0.000230342)
(0.00928322 -0.00326493 9.91966e-06)
(0.00490721 -0.0027579 -0.000800084)
(0.00274771 0.00194762 -0.00092058)
(0.00872527 -0.0118251 -0.000436456)
(0.00422721 0.00107808 -0.000519548)
(-0.00681501 -0.0256297 -0.000542493)
(-0.00143346 0.000108855 0.000462416)
(0.00403731 -0.00136199 0.000505244)
(-5.32763e-05 0.00530521 -0.00264367)
(0.00323476 -0.000833943 0.000133145)
(-0.00231294 -0.00186653 0.000203926)
(-0.00316646 5.57942e-05 0.000596812)
(0.00237245 0.00339371 0.00367527)
(-0.00242074 0.00414072 0.00024107)
(0.00356267 0.00533383 0.00255862)
(-0.00184924 -0.00100157 -0.000420783)
(0.00372226 0.0014461 0.000161543)
(-0.000867026 -0.00365116 -8.51062e-06)
(-0.00364139 0.00500153 -2.5344e-07)
(0.0045876 0.00228309 -0.00143101)
(-0.00242851 0.00362165 -0.000109431)
(0.000747884 -0.00198975 0.000209744)
(-0.0042472 0.00266818 -4.29793e-05)
(0.00131049 -0.00137705 0.000153269)
(-0.00157607 -0.006397 -0.000138295)
(0.00392393 -0.000498217 -0.000330245)
(-0.000429055 0.0061634 -0.000324015)
(0.00745607 0.00190507 -0.00132894)
(-0.000845476 0.000416312 -4.6683e-05)
(0.000547727 8.76935e-05 5.02734e-06)
(-0.000603063 0.00051293 -2.285e-05)
(0.000209733 0.000994825 -3.1577e-05)
(-0.000635644 0.000534145 5.78634e-05)
(0.00109202 0.000319761 6.3035e-05)
(0.000481561 -0.000180139 3.26036e-05)
(0.000722504 2.7875e-05 1.11077e-05)
(0.000670372 -9.94657e-06 2.96872e-05)
(0.00057352 -5.73389e-05 1.77894e-05)
(0.000431267 4.33854e-06 -4.67403e-07)
(0.000440399 -9.47621e-07 -2.53003e-06)
(0.00041556 -5.82146e-06 3.66304e-07)
(0.000688349 1.30729e-05 5.80752e-07)
(0.0007809 9.22892e-06 -9.58314e-07)
(0.000841571 -3.45896e-06 -1.5073e-06)
(0.00110787 2.18617e-05 -7.87068e-07)
(0.000555115 -2.97984e-07 -3.57842e-06)
(0.000564054 2.15115e-06 -4.75364e-06)
(0.00091349 -6.74753e-06 -4.49684e-06)
(0.000929778 -7.34483e-07 -6.12989e-06)
(0.000792563 2.59871e-06 -1.10361e-07)
(0.000781106 -5.60524e-06 -4.60546e-07)
(0.00103685 3.05868e-06 8.07969e-08)
(0.000797836 2.35678e-06 1.25921e-07)
(0.000800378 -1.86258e-06 1.70202e-07)
(0.0010652 3.98997e-06 2.14938e-07)
(0.000800202 1.36886e-06 5.49714e-08)
(0.000799727 -1.06223e-06 -1.58066e-07)
(0.00106618 2.28647e-06 1.80644e-07)
(0.000800857 7.97385e-07 5.74728e-08)
(0.000801018 -4.8456e-07 5.66094e-08)
(0.00106858 1.3269e-06 1.81386e-07)
(0.000800513 4.62554e-07 5.46627e-08)
(0.000800876 -2.67753e-07 5.31638e-08)
(0.00106846 7.66647e-07 1.81077e-07)
(0.000799629 2.4697e-07 5.53383e-08)
(0.000800156 -1.66954e-07 5.46497e-08)
(0.0010675 4.3008e-07 1.81146e-07)
(0.000798733 1.1968e-07 5.40372e-08)
(0.000799138 -1.17167e-07 5.35501e-08)
(0.0010663 1.90344e-07 1.79143e-07)
(0.000797399 5.59493e-08 7.33224e-08)
(0.000797918 -3.5502e-07 5.00399e-08)
(0.00106471 8.38999e-08 2.16327e-07)
(0.00079567 3.08787e-08 1.02405e-07)
(0.000796433 7.1336e-08 8.9694e-08)
(0.00106273 -1.66298e-09 1.7795e-07)
(0.000793781 -1.56256e-10 7.79268e-08)
(0.000794815 4.42434e-07 7.36965e-08)
(0.00106034 -3.31252e-08 2.00179e-07)
(0.000792577 -1.86593e-08 2.78108e-08)
(0.000793331 -2.82611e-07 3.73371e-08)
(0.00105826 -6.99021e-08 1.79199e-07)
(0.000791081 -1.73159e-08 2.87085e-08)
(0.000791854 -3.56918e-07 -2.3887e-08)
(0.00105645 -3.50576e-08 1.2768e-07)
(0.000789679 -3.64695e-08 4.37188e-08)
(0.000790324 -1.56271e-07 4.89096e-08)
(0.00105455 -4.6019e-08 1.72825e-07)
(0.000788042 -3.98849e-08 -1.89431e-08)
(0.000788712 7.01704e-08 2.75856e-08)
(0.00105253 -5.82733e-08 1.15743e-07)
(0.000786377 -2.37594e-07 2.30978e-08)
(0.000786957 -2.714e-07 -9.69893e-09)
(0.00105026 -2.55339e-08 1.42791e-07)
(0.000784313 -3.76383e-07 6.73119e-08)
(0.000785379 -1.22878e-06 5.81056e-08)
(0.00104781 -5.81742e-07 3.25339e-07)
(0.000782633 -2.70951e-07 3.3202e-08)
(0.000783807 1.16685e-06 3.97704e-08)
(0.00104527 -4.06395e-07 1.34278e-07)
(0.000780994 -2.04285e-07 5.78298e-08)
(0.000782168 -1.78661e-07 5.95404e-08)
(0.00104315 -2.83615e-07 1.5604e-07)
(0.000779023 -2.61438e-07 -1.92448e-08)
(0.000780409 -7.5861e-08 7.54337e-08)
(0.00104054 -2.06107e-07 1.91032e-07)
(0.000778702 -2.08825e-08 -1.21457e-08)
(0.000779235 -1.32694e-06 -5.33344e-08)
(0.00103915 -4.15667e-07 3.73775e-07)
(0.000777175 4.78159e-07 7.75643e-08)
(0.000778055 -9.99172e-07 6.1518e-08)
(0.00103809 4.30617e-07 2.60041e-07)
(0.000775973 6.44249e-07 7.43578e-08)
(0.00077636 -8.80829e-07 5.29909e-08)
(0.00103603 8.79732e-07 1.98179e-07)
(0.0007746 5.26335e-07 1.77808e-07)
(0.000774873 -1.6802e-06 -1.57255e-08)
(0.00103453 8.42927e-07 2.77025e-07)
(0.000772958 3.85138e-07 2.17391e-07)
(0.000773423 3.84044e-07 1.67598e-07)
(0.00103262 5.58005e-07 1.9989e-07)
(0.000770534 1.97602e-07 1.1811e-07)
(0.00077163 -6.60181e-08 9.69143e-08)
(0.00102959 4.58996e-07 3.27417e-07)
(0.000769414 7.41635e-08 7.23737e-08)
(0.000770023 1.4507e-07 7.15924e-08)
(0.00102728 5.50868e-08 1.75502e-07)
(0.000768003 1.01433e-07 5.42734e-08)
(0.000768752 -1.58089e-07 1.74522e-07)
(0.00102574 1.36267e-07 1.75669e-07)
(0.000766425 4.92008e-08 5.05794e-08)
(0.00076721 -9.2534e-09 9.99359e-08)
(0.0010237 1.34152e-07 1.69107e-07)
(0.000765103 2.59145e-08 4.50793e-08)
(0.000765822 1.48596e-08 5.03285e-08)
(0.00102177 5.94542e-09 1.69436e-07)
(0.000763662 -3.59567e-08 4.93379e-08)
(0.00076431 4.36174e-07 2.26263e-08)
(0.00101996 5.46148e-08 1.66979e-07)
(0.000761625 -5.35639e-08 6.15411e-08)
(0.000762611 -5.74827e-07 -2.4001e-08)
(0.00101756 -1.45962e-07 2.20453e-07)
(0.000760095 1.27305e-08 4.43025e-08)
(0.000761048 8.63615e-08 6.21117e-08)
(0.00101519 1.82939e-08 1.67742e-07)
(0.000758543 2.69242e-07 3.04225e-08)
(0.000759799 2.32069e-07 2.04949e-08)
(0.00101307 2.84017e-08 1.52078e-07)
(0.000758677 3.90385e-07 6.02532e-08)
(0.000758655 -2.3779e-06 4.76131e-08)
(0.00101221 7.31216e-07 1.44541e-07)
(0.000756976 1.83622e-07 8.26878e-08)
(0.000757335 2.3061e-07 4.73611e-08)
(0.00101129 4.00549e-07 1.77359e-07)
(0.000755201 1.41434e-07 8.46991e-08)
(0.000755921 4.70774e-07 7.16607e-08)
(0.00100886 2.23024e-07 1.72676e-07)
(0.000753849 3.19741e-07 5.60123e-08)
(0.000754619 3.44906e-07 7.27764e-08)
(0.00100685 2.63781e-07 1.49874e-07)
(0.000751835 3.35772e-07 5.17795e-08)
(0.0007529 -1.5492e-07 5.65146e-08)
(0.00100461 6.11458e-07 1.58501e-07)
(0.000750547 1.80407e-07 6.36182e-08)
(0.000751174 -4.90326e-08 4.77338e-08)
(0.00100231 2.84466e-07 1.60118e-07)
(0.000749349 1.21944e-07 5.95483e-08)
(0.000749878 -2.45472e-07 4.62683e-08)
(0.00100058 2.06267e-07 1.85312e-07)
(0.000748852 1.38954e-07 5.97549e-08)
(0.000999323 1.09755e-07 1.56498e-07)
(0.0051206 0.00902178 -1.69195e-05)
(0.0083996 0.00914502 0.000217943)
(-0.000310035 0.000763751 -2.89696e-05)
(-0.00403116 -0.00136597 0.00123248)
(0.00117157 -0.0058486 0.00285659)
(-0.00350396 -0.00343951 -0.000165111)
(0.00920469 -0.00502502 -0.00049575)
(0.00208362 0.00262746 -0.000325198)
(0.00275552 0.00348021 -0.000779041)
(0.00419139 0.00480524 -0.000509603)
(0.0027502 -0.00361824 2.52978e-05)
(-0.000304878 -0.00205965 0.000236944)
(-0.00125555 -0.00318652 0.000231688)
(0.00496571 -0.00793267 4.63967e-05)
(0.00761392 -0.000414765 -1.01992e-05)
(0.00621989 6.23556e-05 0.000271636)
(0.00899431 0.00162779 8.95733e-05)
(0.00281112 0.00391505 0.000104439)
(-0.00166474 0.0053786 0.000241944)
(-0.00342772 0.000873462 0.000230592)
(0.00107954 -0.00241053 0.000202383)
(0.00124194 0.00441643 0.0010405)
(0.00272237 -0.000248357 0.000399413)
(0.000166669 -0.00180761 -2.68694e-05)
(-0.00041232 -0.00225859 -2.06771e-05)
(0.000486872 -0.00193918 -5.53182e-06)
(0.00219311 -0.00153388 -0.000120066)
(0.00138043 -0.00427184 -9.40534e-05)
(0.000138147 0.000135751 2.77826e-05)
(0.000987439 0.000204104 9.61992e-05)
(0.000966538 7.97652e-05 8.16339e-05)
(0.000858917 -0.000142144 -4.07375e-05)
(0.000721155 -7.97817e-05 4.94373e-05)
(0.000300713 -3.03716e-05 -7.86785e-07)
(0.000454204 -3.14707e-05 -2.95738e-06)
(0.000439603 -2.78338e-05 -5.31484e-07)
(0.000697466 -7.01265e-05 -4.77212e-07)
(0.000322525 -2.78056e-05 -2.55561e-09)
(0.000562287 -5.43415e-05 3.95469e-06)
(0.000609454 -4.72572e-05 5.3008e-06)
(0.000419225 -2.83568e-05 -5.45011e-08)
(0.000796379 -8.83101e-06 -1.00987e-06)
(0.000862271 -8.75144e-06 -1.04646e-06)
(0.00114108 -1.15856e-05 -1.07885e-06)
(0.000578116 -1.63064e-05 -3.59666e-06)
(0.000594318 -1.2094e-05 -4.69859e-06)
(0.00095298 -3.21607e-05 -4.5605e-06)
(0.000989615 -2.19365e-05 -6.08773e-06)
(0.000799548 -6.38322e-06 -1.80189e-07)
(0.000784171 -9.50579e-06 -5.73035e-07)
(0.00104937 -1.06094e-05 2.98088e-08)
(0.000800987 -3.57478e-06 -1.13678e-07)
(0.000803915 -5.95553e-06 1.8948e-07)
(0.00107153 -5.46424e-06 1.93411e-07)
(0.00080108 -2.28242e-06 -1.56498e-07)
(0.000801357 -3.10435e-06 -1.12813e-07)
(0.00106845 -3.42471e-06 1.6788e-07)
(0.000801236 -1.40996e-06 5.23015e-08)
(0.000802117 -2.7417e-06 7.69643e-08)
(0.00106922 -2.23251e-06 1.77816e-07)
(0.000800658 -7.83385e-07 5.31502e-08)
(0.000801665 -1.62457e-06 5.43409e-08)
(0.00106875 -1.26216e-06 1.79491e-07)
(0.000799711 -3.90639e-07 5.28618e-08)
(0.000800649 -1.11001e-06 5.45786e-08)
(0.00106767 -6.60922e-07 1.83131e-07)
(0.00079838 -2.59918e-07 4.95539e-08)
(0.000799303 -5.10689e-07 3.77613e-08)
(0.00106608 -2.77233e-07 1.78815e-07)
(0.000797086 -3.27534e-07 6.63987e-08)
(0.000797835 -6.18435e-07 4.80531e-08)
(0.00106435 -3.47426e-07 1.67071e-07)
(0.00079557 -4.11384e-07 6.09909e-08)
(0.000796329 -1.28334e-07 6.92238e-08)
(0.00106237 -4.32534e-07 1.82041e-07)
(0.000794246 -4.01207e-07 3.31185e-08)
(0.000794829 -8.54734e-08 4.07831e-08)
(0.00106052 -5.7462e-07 1.88632e-07)
(0.000792688 -2.93364e-07 -1.43411e-08)
(0.000793467 -3.55306e-07 6.21101e-08)
(0.00105866 -4.6057e-07 1.77723e-07)
(0.00079107 -2.27506e-07 -3.70922e-09)
(0.000791938 -2.08186e-07 2.635e-09)
(0.00105652 -3.30178e-07 1.67925e-07)
(0.0007894 -2.90029e-07 3.27832e-08)
(0.000790248 -9.18251e-08 5.29317e-08)
(0.00105436 -3.09057e-07 1.7872e-07)
(0.00078763 -3.60327e-07 3.68416e-08)
(0.000788626 5.2222e-07 5.24159e-08)
(0.00105207 -5.12098e-07 1.60893e-07)
(0.000785909 -4.15437e-07 2.52873e-08)
(0.00078689 4.58668e-08 7.99605e-08)
(0.00104964 -4.82278e-07 1.66215e-07)
(0.000784891 -3.78306e-07 3.05699e-08)
(0.000785427 1.9373e-07 6.15131e-08)
(0.0010479 -6.25479e-07 2.794e-08)
(0.000783325 -1.25852e-07 6.61026e-08)
(0.000784123 -1.18515e-07 4.95502e-08)
(0.00104625 -3.70417e-07 2.65792e-07)
(0.0007817 1.60423e-07 7.71393e-08)
(0.000782525 -1.05797e-07 6.50333e-08)
(0.00104397 5.49641e-08 1.76145e-07)
(0.00078024 6.40498e-07 4.13849e-08)
(0.000781007 -5.86322e-07 6.03092e-08)
(0.00104189 4.19637e-07 2.03016e-07)
(0.000778955 8.35502e-07 2.02931e-08)
(0.000779475 -2.04184e-06 -1.56355e-09)
(0.00104019 1.35185e-06 2.02473e-07)
(0.000777091 6.96472e-07 3.69473e-08)
(0.000777878 3.14312e-07 4.21683e-08)
(0.00103812 9.25908e-07 1.10696e-07)
(0.000775366 6.8622e-07 -3.70708e-08)
(0.000776343 -3.75198e-07 4.31358e-08)
(0.00103565 9.71844e-07 1.55838e-07)
(0.000773546 4.22035e-07 -2.59932e-08)
(0.00077454 -5.97981e-07 -2.66543e-08)
(0.00103326 9.18291e-07 1.23771e-07)
(0.000772351 3.06184e-08 4.71431e-08)
(0.000772932 -5.75616e-08 3.94818e-08)
(0.00103133 2.57355e-07 1.76594e-07)
(0.000770808 -1.70735e-08 5.04043e-08)
(0.00077157 1.12884e-08 4.87543e-08)
(0.00102954 -1.52735e-07 1.71107e-07)
(0.000769505 5.92475e-08 1.73708e-07)
(0.000770118 9.54034e-08 5.82053e-08)
(0.00102759 1.25855e-07 1.59136e-07)
(0.000767942 -1.54173e-08 2.20207e-07)
(0.000768659 5.6501e-08 1.71666e-07)
(0.00102575 3.50381e-08 1.6378e-07)
(0.00076652 -8.76201e-08 9.97003e-08)
(0.00076712 -2.98662e-08 9.80004e-08)
(0.00102369 -7.81238e-08 1.68323e-07)
(0.000765155 -2.45388e-07 2.7884e-08)
(0.000765626 -1.64435e-07 5.24581e-08)
(0.00102191 -1.65085e-07 1.74999e-07)
(0.000763224 -3.5342e-07 -5.06982e-08)
(0.000764176 2.18372e-06 5.46628e-08)
(0.00101966 -4.98797e-07 8.7734e-08)
(0.000762048 -1.70916e-07 -2.3457e-08)
(0.00076284 7.29954e-07 -1.52289e-08)
(0.00101752 -4.40508e-07 5.20322e-08)
(0.000760592 1.60636e-07 3.83169e-08)
(0.000761463 1.47392e-07 5.71364e-08)
(0.00101576 -1.17409e-09 1.66916e-07)
(0.000759977 5.0223e-07 3.76771e-08)
(0.000760224 -4.07953e-09 8.67153e-08)
(0.00101457 4.55996e-07 1.12815e-07)
(0.000757359 4.93916e-07 3.47211e-08)
(0.000758642 -1.24728e-06 5.66021e-08)
(0.00101238 9.00342e-07 1.95434e-07)
(0.000756237 1.48176e-07 3.63266e-08)
(0.000756901 4.39971e-07 -3.03049e-08)
(0.0010098 4.613e-07 1.27065e-07)
(0.000755303 -4.13324e-08 5.97377e-08)
(0.000755683 -1.40795e-08 5.29172e-08)
(0.00100845 1.235e-08 1.60667e-07)
(0.000754026 -1.26536e-07 7.32837e-08)
(0.000754513 -4.2307e-08 5.39668e-08)
(0.00100694 -6.11938e-08 1.85102e-07)
(0.000751781 -7.22556e-08 5.24716e-08)
(0.000752968 -6.32826e-07 2.00507e-08)
(0.00100469 -2.18096e-07 2.80384e-07)
(0.000750694 1.22624e-07 3.03843e-08)
(0.000751417 -3.87542e-07 9.47711e-09)
(0.00100238 7.20296e-08 1.65036e-07)
(0.000749167 2.09217e-07 4.64708e-08)
(0.000749983 -1.02599e-08 6.99294e-08)
(0.00100058 2.71561e-07 1.63626e-07)
(0.000748592 3.21009e-07 7.01285e-08)
(0.000999116 2.96016e-07 1.2757e-07)
(0.00783741 -0.0219663 -0.00209914)
(0.0311833 -0.00220136 -0.00421196)
(0.0112865 0.00149457 -0.00188691)
(0.0136059 0.00786483 -0.00414423)
(0.00103577 -0.00742696 -0.000115493)
(0.00468443 -0.0170616 0.000879765)
(0.00236596 -0.00577967 5.84326e-05)
(0.0069535 -0.00686214 -0.000176128)
(0.00220361 -0.0205038 -0.00128551)
(0.00815231 -0.0118804 -0.00250105)
(0.00844998 -0.0105398 0.00159038)
(0.00560874 -0.00327619 0.00063736)
(-0.00256299 0.000165368 0.000261663)
(-0.00823064 0.00340483 0.000475417)
(-0.017779 -0.00277161 -0.00724264)
(-0.00645998 -0.000603259 -0.000357585)
(-0.00808087 0.0038447 0.00577901)
(-0.012249 0.00795255 0.00452325)
(0.00310559 -0.00236799 0.00040984)
(0.000608789 -0.00501415 0.000476263)
(-0.00121508 0.00395601 0.000706284)
(-0.00155522 0.00540882 0.000394923)
(-0.0134105 0.00260774 -0.000285842)
(-0.00840648 0.00106175 -0.0021995)
(-0.00881847 0.00923983 0.000244051)
(-0.0026268 0.00195301 0.000301484)
(0.0101447 0.000994985 -0.000585767)
(0.00746007 -0.00272222 -0.000868976)
(-0.00504361 0.00383192 -0.000696908)
(0.00284046 0.000513967 -0.000770258)
(-0.00317821 -0.000793676 0.00290834)
(-0.0004422 0.00371092 0.00616281)
(-0.00893048 -0.0022228 -0.00625618)
(-0.00244424 -0.000698343 -0.00612518)
(-0.00987355 0.000948915 1.02621e-05)
(0.00124592 0.00121699 -0.000626263)
(-0.000501024 0.00395461 0.000554266)
(0.00601711 -0.00602386 0.000105286)
(0.0102967 -0.00972445 5.65315e-05)
(0.00824061 -0.0184292 -0.000222043)
(-0.00538533 -0.0125038 0.000474909)
(0.010006 -0.0129336 0.000608163)
(0.00625043 -0.00395595 0.000237498)
(0.0120669 0.00280477 -0.000721914)
(0.0029388 0.000615995 0.000370674)
(0.00278624 -0.000996425 0.000413405)
(-0.00589725 0.00190116 0.000568453)
(0.00069816 3.766e-05 -1.66464e-05)
(0.0011903 0.000209013 -6.48696e-05)
(0.000931537 -0.000305064 1.29889e-05)
(0.00115832 0.000164845 1.71046e-06)
(0.00108965 4.1759e-05 7.2618e-05)
(0.000362044 2.00884e-05 1.30473e-05)
(0.000451366 7.09082e-06 -2.20905e-06)
(0.000476336 -5.56216e-06 2.50842e-06)
(0.000756052 4.35095e-05 6.36722e-06)
(0.000355235 -7.24476e-06 1.73911e-05)
(0.000657525 5.00164e-05 3.23442e-05)
(0.00062717 -1.41414e-05 4.30903e-05)
(0.000460719 2.68624e-05 5.94675e-07)
(0.000795253 -1.47588e-05 -6.0978e-07)
(0.000879356 -3.01464e-05 -6.54313e-07)
(0.00116238 -1.99085e-05 -6.78399e-07)
(0.000584296 -1.23877e-05 -3.86892e-06)
(0.000588686 -1.96909e-05 -5.19349e-06)
(0.000948459 -1.90739e-05 -4.80179e-06)
(0.000956248 -3.58283e-05 -6.48965e-06)
(0.00080077 -1.09404e-05 -2.03615e-07)
(0.000789042 -1.64472e-05 -6.15857e-07)
(0.0010445 -1.69199e-05 3.50619e-08)
(0.000802459 -7.08425e-06 1.90443e-07)
(0.000808766 -1.07891e-05 2.36192e-07)
(0.00107425 -1.05525e-05 2.21915e-07)
(0.000802823 -4.52098e-06 1.20588e-07)
(0.00080458 -5.77358e-06 9.10022e-08)
(0.00107026 -7.22741e-06 1.87275e-07)