/*--------------------------------*- C++ -*----------------------------------*\
| =========                 |                                                 |
| \\      /  F ield         | OpenFOAM: The Open Source CFD Toolbox           |
|  \\    /   O peration     | Version:  5.0                                   |
|   \\  /    A nd           | Web:      www.OpenFOAM.org                      |
|    \\/     M anipulation  |                                                 |
\*---------------------------------------------------------------------------*/
FoamFile
{
    version     2.0;
    format      ascii;
    class       volScalarField;
    location    "2.7";
    object      alpha.water;
}
// * * * * * * * * * * * * * * * * * * * * * * * * * * * * * * * * * * * * * //

dimensions      [0 0 0 0 0 0 0];

internalField   nonuniform List<scalar> 
7562
(
1.05219
1.03866
1.00965
1.02153
1.01226
0.999542
-8.91471e-17
-1.2041e-18
-1.94007e-22
9.11459e-18
8.29279e-19
4.28146e-21
7.8438e-25
4.89232e-29
1.57016e-32
6.65414e-36
2.69252e-39
1.15878e-42
4.88369e-46
1.92895e-49
9.59246e-53
3.66996e-56
1.78353e-59
6.00194e-63
3.04906e-66
3.35401e-69
7.89544e-73
2.10905e-76
8.79442e-79
2.41776e-82
2.05118e-85
1.727e-89
6.48933e-92
2.35837e-94
7.14529e-98
4.25748e-101
3.5179e-104
7.35224e-107
6.9378e-111
6.58028e-115
5.2707e-118
2.88484e-120
3.3716e-123
1.27713e-125
1.52248e-129
3.04424e-132
5.4055e-136
4.711e-140
9.43787e-142
5.27895e-145
1.04362
1.01072
0.992798
1.01059
0.999447
1.00552
0.000929628
-4.8625e-18
-1.14774e-21
9.88182e-19
7.63584e-20
3.13662e-22
9.30367e-26
8.56992e-30
2.51789e-33
1.01995e-36
4.29974e-40
1.83462e-43
7.89171e-47
3.1798e-50
1.35341e-53
5.80415e-57
3.01006e-60
1.50303e-63
6.03336e-67
3.72863e-70
1.61118e-73
5.31988e-77
3.69201e-80
2.1642e-83
1.53439e-86
3.50195e-89
4.25719e-93
8.98796e-96
1.98538e-99
1.73222e-102
9.63527e-106
7.49837e-110
2.87469e-111
2.2081e-114
3.39413e-118
3.24054e-121
3.69505e-125
6.98082e-129
1.1792e-131
2.10056e-134
2.08339e-137
2.98308e-141
1.00061e-144
2.13191e-145
1.01303
1.01139
1.03299
1.05095
1.00723
1.00238
0.690741
-2.3812e-17
-1.90989e-19
1.64494e-16
6.26184e-18
7.89835e-21
8.71955e-24
4.42834e-27
5.38748e-31
1.50306e-34
6.13733e-38
2.59098e-41
1.09446e-44
4.5768e-48
1.93149e-51
8.04641e-55
3.40946e-58
1.39885e-61
5.79182e-65
2.79196e-68
1.07733e-71
4.14035e-75
2.02246e-78
1.03613e-81
3.03848e-85
1.20052e-88
1.24558e-90
5.78887e-94
6.98948e-98
4.47278e-101
1.89527e-104
2.49772e-108
3.07473e-110
2.56315e-113
4.99514e-117
2.2786e-120
1.06819e-122
9.72941e-127
3.38928e-130
1.57878e-133
1.09588e-135
4.68839e-139
6.39643e-143
2.77002e-145
1.00235
1.01127
0.95764
1.0624
0.993477
0.998701
1.00001
-5.24139e-15
-4.02457e-18
-1.69111e-23
4.26652e-18
1.26076e-19
8.27206e-23
5.52221e-27
1.20049e-30
4.20488e-34
1.74073e-37
7.67733e-41
3.17031e-44
1.33286e-47
5.78161e-51
2.39179e-54
1.63391e-57
6.99504e-61
3.84608e-64
9.51987e-68
3.46614e-71
1.05727e-73
2.18953e-77
4.22889e-81
1.77032e-83
2.83368e-86
2.15572e-90
9.18482e-94
3.12409e-96
6.09643e-100
2.62948e-103
2.55343e-106
1.77101e-108
6.44406e-112
8.5965e-116
3.4234e-118
5.50441e-122
5.63684e-125
1.0463e-127
3.64542e-131
7.84159e-135
2.92613e-138
1.94547e-141
5.78887e-144
1.00344
0.98456
1.01034
0.984986
0.993571
1.01706
1.00138
-1.36314e-16
-2.44582e-19
-2.60064e-21
2.20556e-17
1.22587e-18
2.44291e-21
1.43581e-25
1.59136e-29
6.18753e-33
2.48059e-36
1.03339e-39
4.24835e-43
1.83869e-46
7.21403e-50
3.9274e-53
1.24081e-56
5.33382e-60
2.29874e-63
4.71462e-66
8.89876e-70
5.0942e-73
1.273e-75
2.28706e-79
4.3326e-82
3.33925e-86
1.5909e-88
1.88061e-92
3.26773e-96
2.09009e-99
2.13558e-101
1.06995e-104
2.62506e-109
4.28008e-111
5.24347e-115
3.68336e-118
3.69434e-121
4.87602e-124
5.3244e-127
1.18054e-130
9.51965e-133
3.68465e-136
4.17152e-139
8.71347e-143
1.00164
1.01554
0.9301
1.00769
1
0.980744
1.00163
-6.93386e-16
-3.26817e-18
-7.52918e-22
1.71945e-17
9.9604e-19
2.13928e-21
1.36421e-25
1.40274e-29
5.31392e-33
2.19262e-36
1.02494e-39
3.97524e-43
2.18812e-46
7.07398e-50
2.80972e-53
1.19935e-56
7.71244e-60
1.93878e-63
2.48969e-65
4.92637e-69
4.33438e-73
1.25065e-75
6.57351e-78
3.68008e-81
1.73585e-84
1.11815e-88
6.68175e-92
1.67524e-94
1.66804e-98
1.57482e-101
2.24052e-104
1.20401e-108
5.74556e-111
1.02303e-113
3.15672e-116
1.06512e-119
1.88475e-123
3.84581e-127
6.03927e-130
3.1626e-134
8.43119e-138
1.5967e-140
1.3973e-144
1.02972
1.0676
0.751858
0.999095
0.991941
1.01758
1.00266
-7.07394e-19
-1.93844e-18
-7.78353e-24
4.05569e-18
1.13743e-19
7.06484e-23
5.93825e-27
1.28896e-30
4.36802e-34
1.80082e-37
7.71086e-41
3.32252e-44
1.41661e-47
7.79251e-51
2.57825e-54
1.23399e-57
4.75977e-61
3.90543e-64
8.66152e-68
3.40267e-71
3.00585e-74
8.99774e-77
9.95403e-81
1.81581e-84
9.2455e-88
3.1093e-91
5.37992e-94
1.61372e-97
7.40931e-100
1.24028e-103
5.30315e-106
3.28909e-109
1.83744e-112
3.00429e-116
6.22084e-119
2.41229e-122
1.5712e-126
1.21884e-128
2.33987e-132
3.14759e-134
6.75329e-138
4.04028e-142
1.24654e-143
1.02474
0.98404
1.01583
0.996412
1.01541
1.00111
1
-1.19716e-15
-5.84018e-19
1.66237e-16
6.29088e-18
8.60526e-21
9.08723e-24
4.27057e-27
5.38931e-31
1.54908e-34
6.33912e-38
2.67522e-41
1.12933e-44
4.79865e-48
1.99191e-51
8.53441e-55
3.62113e-58
1.44932e-61
6.00809e-65
2.81615e-68
1.5033e-71
4.44099e-75
1.7766e-78
9.41641e-82
3.20573e-85
3.86176e-88
4.17851e-91
8.82132e-95
2.73414e-98
1.0359e-100
8.98647e-105
2.1307e-107
1.52669e-110
1.94242e-113
8.18151e-118
3.691e-120
4.74521e-123
2.17578e-126
2.30828e-130
2.71515e-134
9.7008e-138
3.77106e-141
1.54084e-144
2.67888e-145
1.01849
1.0338
0.992217
1
1.00701
0.997226
0.597442
-7.40743e-18
-9.78339e-20
7.35114e-22
7.61056e-20
1.38452e-21
3.14516e-25
1.15482e-29
3.48485e-33
1.42674e-36
5.97002e-40
2.49364e-43
1.04364e-46
4.33722e-50
1.78666e-53
7.46613e-57
3.07102e-60
1.28718e-63
1.06675e-66
2.54926e-70
9.41899e-74
4.09565e-77
1.65842e-80
9.05821e-84
7.95895e-86
2.76079e-89
2.85882e-93
6.77766e-97
4.33553e-99
1.31214e-102
1.23211e-105
9.83196e-110
2.30682e-113
2.19777e-115
3.08274e-118
5.86475e-121
1.18515e-124
1.17066e-128
3.64508e-132
1.27522e-135
1.6295e-137
4.03774e-140
4.64331e-143
2.72906e-145
1.05067
1.02559
1.03219
1.04284
1.01515
0.999473
0.00387573
-1.64622e-18
-8.68376e-22
7.82126e-18
9.03181e-19
7.60287e-21
2.63729e-24
1.40479e-28
3.92912e-32
1.61582e-35
6.6612e-39
2.77306e-42
1.15031e-45
5.0891e-49
1.99207e-52
8.18128e-56
3.31739e-59
1.35487e-62
7.15035e-66
2.41218e-69
9.51334e-73
5.19536e-76
2.06475e-78
5.11569e-82
5.46028e-86
3.32468e-88
2.81998e-91
1.32388e-94
2.49691e-98
9.47715e-102
3.60431e-104
4.66468e-108
3.4292e-110
5.66074e-114
6.80285e-118
3.86763e-121
2.6735e-123
7.06174e-127
7.36557e-130
9.78808e-133
4.92422e-136
2.11125e-139
8.74539e-143
3.00331e-145
1.03918
0.976584
0.996461
0.999973
0.898749
0.988796
4.74134e-07
3.30207e-16
1.76419e-17
1.71875e-17
2.37858e-18
5.59381e-20
1.31252e-22
2.66627e-26
5.47767e-30
3.7241e-33
2.71914e-36
1.9117e-39
1.33404e-42
9.29508e-46
6.46923e-49
4.49242e-52
3.1112e-55
2.15107e-58
1.4837e-61
1.02089e-64
7.01484e-68
4.80925e-71
3.28802e-74
2.24346e-77
1.52673e-80
1.03644e-83
7.02711e-87
4.75423e-90
3.21158e-93
2.16522e-96
1.4555e-99
9.75694e-103
6.53109e-106
4.36612e-109
2.91257e-112
1.9393e-115
1.28835e-118
8.53867e-122
5.64968e-125
3.72807e-128
2.45572e-131
1.61545e-134
1.06015e-137
4.12479e-141
1.04527
1.00751
0.972114
0.877685
1.00083
1.00714
0.00325244
2.03548e-13
2.24278e-16
6.01801e-18
6.55925e-19
4.72172e-21
3.49189e-24
5.83426e-28
2.61669e-31
1.93729e-34
1.41496e-37
1.00512e-40
7.11892e-44
5.02816e-47
3.54812e-50
2.49579e-53
1.75165e-56
1.22836e-59
8.58551e-63
5.98368e-66
4.16464e-69
2.88949e-72
1.99985e-75
1.38123e-78
9.57316e-82
6.58005e-85
4.5014e-88
3.08375e-91
2.11008e-94
1.43947e-97
9.80581e-101
6.65017e-104
4.50822e-107
3.04699e-110
2.05588e-113
1.38306e-116
9.29578e-120
6.25033e-123
4.17286e-126
2.78648e-129
1.85667e-132
1.23501e-135
8.19619e-139
3.23015e-142
1.02838
1.01772
1.02512
1.06295
1.01766
1.00143
0.690157
1.05775e-12
1.36927e-15
1.44438e-15
1.21581e-16
5.4336e-19
8.32947e-23
9.76706e-27
6.5767e-30
4.71951e-33
3.28653e-36
2.27941e-39
1.57776e-42
1.09022e-45
7.52606e-49
5.18904e-52
3.5713e-55
2.45494e-58
1.68312e-61
1.15226e-64
7.88047e-68
5.37775e-71
3.66408e-74
2.49675e-77
1.69829e-80
1.1534e-83
7.82673e-87
5.29875e-90
3.57605e-93
2.41269e-96
1.62543e-99
1.09288e-102
7.33898e-106
4.91772e-109
3.28824e-112
2.19587e-115
1.46492e-118
9.75759e-122
6.49172e-125
4.3116e-128
2.85713e-131
1.8902e-134
1.24797e-137
4.8854e-141
1.02887
1.03835
0.944485
1.09727
1.08258
0.982069
1.00039
8.22067e-10
1.0921e-14
3.59722e-17
2.67278e-17
1.78809e-18
6.58299e-21
1.01642e-24
1.46163e-28
9.97932e-32
7.20741e-35
5.02422e-38
3.48701e-41
2.41852e-44
1.67541e-47
1.15811e-50
7.98449e-54
5.51303e-57
3.78295e-60
2.59491e-63
1.77967e-66
1.21786e-69
8.33331e-73
5.67034e-76
3.85776e-79
2.62098e-82
1.77588e-85
1.20188e-88
8.12748e-92
5.47976e-95
3.69068e-98
2.481e-101
1.66389e-104
1.11426e-107
7.44837e-111
4.98709e-114
3.32117e-117
2.21012e-120
1.46389e-123
9.70147e-127
6.41619e-130
4.23774e-133
2.793e-136
1.09156e-139
0.997826
1.03868
1.00678
0.978794
1.00539
1.01808
1.00185
1.10454e-07
5.49253e-14
3.00794e-16
2.6086e-16
2.55871e-17
1.8746e-19
6.15161e-23
5.64407e-27
3.20298e-30
2.34202e-33
1.6305e-36
1.12391e-39
7.73742e-43
5.3218e-46
3.65311e-49
2.50121e-52
1.7106e-55
1.16715e-58
7.9441e-62
5.40356e-65
3.66726e-68
2.4824e-71
1.67753e-74
1.13159e-77
7.61587e-81
5.11927e-84
3.43218e-87
2.29656e-90
1.53486e-93
1.0235e-96
6.80875e-100
4.52281e-103
3.00013e-106
1.98635e-109
1.31327e-112
8.66289e-116
5.70155e-119
3.74749e-122
2.45843e-125
1.60929e-128
1.05203e-131
6.86381e-135
2.65689e-138
1.03383
0.943834
0.998474
1.00158
0.976567
0.994431
1.00235
8.62466e-07
6.37295e-14
5.255e-16
4.78986e-16
4.88745e-17
3.66592e-19
1.19372e-22
1.06995e-26
6.0686e-30
4.4387e-33
3.08987e-36
2.12994e-39
1.46603e-42
1.0075e-45
6.91271e-49
4.73245e-52
3.2341e-55
2.20512e-58
1.49999e-61
1.01993e-64
6.92014e-68
4.68403e-71
3.16527e-74
2.13271e-77
1.43354e-80
9.63217e-84
6.45892e-87
4.31951e-90
2.88479e-93
1.92257e-96
1.27879e-99
8.49539e-103
5.63209e-106
3.72656e-109
2.46212e-112
1.62301e-115
1.06712e-118
7.00608e-122
4.59069e-125
3.00143e-128
1.96094e-131
1.27943e-134
4.95384e-138
1.03827
1.06356
0.859495
0.98645
0.989843
1.01633
1.00419
3.01591e-08
1.42277e-14
2.97522e-17
1.78983e-17
1.2241e-18
4.81929e-21
7.94149e-25
1.08999e-28
7.3265e-32
5.24597e-35
3.64542e-38
2.51847e-41
1.74319e-44
1.21005e-47
8.35484e-51
5.73844e-54
3.95658e-57
2.74894e-60
1.86127e-63
1.27381e-66
8.71496e-70
5.95387e-73
4.06795e-76
2.76002e-79
1.87553e-82
1.27347e-85
8.62585e-89
5.85769e-92
3.94007e-95
2.6546e-98
1.79024e-101
1.20368e-104
8.04531e-108
5.38568e-111
3.60184e-114
2.4026e-117
1.60016e-120
1.06292e-123
7.05164e-127
4.7016e-130
3.09137e-133
2.04324e-136
8.34402e-140
1.02816
0.983468
1.03104
1.02286
1.02523
1.00976
1
1.46018e-10
1.54535e-15
1.70812e-15
1.62708e-16
9.12847e-19
1.81589e-22
1.79275e-26
1.15128e-29
8.30739e-33
5.76673e-36
3.98359e-39
2.74736e-42
1.89143e-45
1.30079e-48
8.92904e-52
6.11691e-55
4.18524e-58
2.85863e-61
1.94839e-64
1.32594e-67
9.00616e-71
6.10552e-74
4.13584e-77
2.79938e-80
1.89095e-83
1.27516e-86
8.57865e-90
5.76018e-93
3.86444e-96
2.58772e-99
1.72944e-102
1.15486e-105
7.69437e-109
5.11635e-112
3.39744e-115
2.25221e-118
1.49019e-121
9.84807e-125
6.49624e-128
4.27364e-131
2.80891e-134
1.84492e-137
7.18882e-141
1.03966
1.04051
1.00184
0.989317
1.00732
1.03231
0.599202
1.91646e-12
2.13246e-15
1.91009e-18
3.51935e-19
4.28326e-21
1.8325e-24
2.07438e-28
1.16025e-31
8.63673e-35
6.24791e-38
4.44212e-41
3.15001e-44
2.23079e-47
1.57809e-50
1.11394e-53
7.84902e-57
5.51912e-60
3.88043e-63
2.71608e-66
1.89809e-69
1.32501e-72
9.22694e-76
6.41353e-79
4.45211e-82
3.07696e-85
2.12552e-88
1.4637e-91
1.00696e-94
6.90888e-98
4.73179e-101
3.23515e-104
2.20561e-107
1.5015e-110
1.0199e-113
6.9104e-117
4.67406e-120
3.154e-123
2.12531e-126
1.42898e-129
9.58059e-133
6.42083e-136
4.29552e-139
1.69983e-142
1.05926
1.02124
1.03748
1.0431
1.0043
1.01319
0.00878796
2.44083e-15
7.41021e-18
1.14797e-17
1.43527e-18
2.77582e-20
5.55587e-23
1.13763e-26
2.6212e-30
1.79602e-33
1.31744e-36
9.3112e-40
6.52918e-43
4.571e-46
3.19496e-49
2.22739e-52
1.54888e-55
1.07541e-58
7.44838e-62
5.14609e-65
3.54902e-68
2.44252e-71
1.67711e-74
1.14923e-77
7.85548e-81
5.35496e-84
3.64166e-87
2.47236e-90
1.67474e-93
1.13282e-96
7.64358e-100
5.14401e-103
3.45468e-106
2.31673e-109
1.55022e-112
1.03531e-115
6.89949e-119
4.58716e-122
3.04395e-125
2.01539e-128
1.33154e-131
8.78902e-135
5.78485e-138
2.25602e-141
1.04676
0.966223
0.930402
0.922002
0.992823
0.999974
4.31115e-07
-9.75141e-19
-1.65628e-22
4.21263e-18
4.27553e-19
2.72117e-21
6.82115e-25
4.04262e-29
1.21907e-32
5.2999e-36
2.07195e-39
8.85316e-43
3.74176e-46
2.42725e-49
7.68617e-53
3.30867e-56
1.31371e-59
4.55669e-63
5.83547e-66
4.10056e-69
5.64834e-73
4.55709e-76
7.6795e-79
1.22515e-82
2.57919e-86
7.86078e-90
3.9465e-92
1.11381e-94
5.26573e-98
1.72095e-101
3.54023e-104
1.83089e-107
9.05821e-112
2.34992e-113
1.11357e-116
6.02358e-121
2.42487e-123
1.32418e-127
7.78834e-130
3.02369e-132
7.49153e-136
2.72281e-139
2.59604e-142
8.16603e-145
1.04711
0.972976
0.998628
1.00627
0.988923
1.00298
0.00290874
-3.73073e-18
-1.44773e-21
1.11264e-18
9.12535e-20
3.98066e-22
1.18074e-25
1.04985e-29
3.06491e-33
1.23805e-36
5.20093e-40
2.20547e-43
9.3959e-47
3.8207e-50
1.67995e-53
6.96955e-57
3.53171e-60
1.59681e-63
7.06059e-67
2.5223e-70
1.72953e-73
5.78157e-77
1.78855e-79
2.9073e-83
5.7832e-86
5.83652e-89
4.64923e-92
8.8659e-96
5.86096e-99
3.07448e-102
6.67309e-106
1.27762e-109
8.50329e-111
1.00755e-113
9.04394e-118
2.15288e-121
8.75576e-125
7.95167e-127
2.91552e-130
3.44579e-134
3.36553e-137
3.46381e-141
5.51004e-144
2.60241e-145
1.03651
1.03773
1.03751
1.05103
1.01123
1.00453
0.690625
3.77926e-13
-1.94563e-19
1.63235e-16
6.31927e-18
8.39844e-21
1.04153e-23
5.54848e-27
6.62686e-31
1.81116e-34
7.37962e-38
3.11514e-41
1.31473e-44
5.50099e-48
2.3153e-51
9.63873e-55
4.21902e-58
1.73988e-61
7.8238e-65
2.92815e-68
1.28603e-71
4.98142e-75
2.04756e-78
1.68594e-81
3.70385e-85
1.4369e-88
6.26265e-92
1.18306e-94
2.69832e-98
3.81143e-101
1.87096e-104
6.54423e-108
4.80699e-111
1.16493e-113
9.85665e-117
1.07979e-120
2.72325e-124
2.13926e-126
1.47156e-129
4.12592e-133
1.1042e-135
3.95958e-139
1.26913e-142
5.0739e-145
1.05947
1.03781
1
1.01887
0.995861
0.989593
1.00038
4.34663e-10
-4.10202e-18
-1.57158e-23
4.41691e-18
1.3006e-19
8.45209e-23
5.4959e-27
1.20165e-30
4.22144e-34
1.75135e-37
7.49174e-41
3.16458e-44
1.35067e-47
5.70105e-51
2.38068e-54
1.04232e-57
7.21823e-61
1.93835e-64
9.2804e-68
3.33847e-71
1.79839e-73
9.36487e-77
6.28726e-81
1.55079e-83
8.0228e-87
8.46789e-91
4.55433e-94
1.57976e-96
3.2643e-100
2.37831e-103
4.02614e-106
2.41127e-110
4.8113e-112
1.74148e-115
2.02458e-118
2.21318e-121
7.0577e-125
6.73269e-128
3.60018e-131
2.11498e-134
1.0477e-138
2.35877e-142
3.51528e-145
1.04546
1.05834
0.655694
1.00223
1.01118
1.02103
1.0018
7.00287e-08
-2.32738e-19
-2.53292e-21
2.2771e-17
1.26357e-18
2.51058e-21
1.46763e-25
1.63169e-29
6.199e-33
2.53579e-36
1.05015e-39
4.72831e-43
1.83461e-46
7.29619e-50
3.14537e-53
1.35407e-56
5.36687e-60
2.39825e-63
7.90034e-66
8.56348e-70
1.75769e-73
9.60716e-77
2.90303e-79
2.64122e-82
1.1502e-86
1.66061e-88
3.36641e-92
3.98626e-95
2.81986e-99
2.40241e-101
7.81665e-105
4.48681e-107
1.06886e-110
6.68206e-115
1.09685e-116
3.20841e-120
1.04282e-123
6.92025e-127
8.09742e-131
2.03137e-132
5.5434e-136
2.46861e-139
6.16365e-142
1.04149
0.924195
0.999204
1.00981
1.00488
0.987683
1.00157
6.84889e-07
-3.18684e-18
-7.37787e-22
1.76334e-17
1.01974e-18
2.18286e-21
1.39035e-25
1.43745e-29
5.45054e-33
2.24924e-36
9.41795e-40
3.88508e-43
3.16029e-46
8.01348e-50
4.69187e-53
1.60497e-56
6.07508e-60
2.76549e-63
8.26102e-67
5.05194e-70
1.56344e-73
5.4889e-77
2.85761e-78
2.42993e-81
1.13233e-84
9.26833e-89
1.16521e-91
9.59621e-96
1.83019e-98
1.73159e-101
2.35375e-104
1.08168e-108
1.40984e-110
8.77998e-114
1.04141e-117
8.7773e-120
4.26245e-123
7.23206e-127
4.56106e-131
5.86464e-134
7.4636e-136
2.06036e-139
5.26133e-144
1.02563
1.03527
0.912955
1.00016
0.996719
1.01405
1.00368
1.84567e-08
-1.91869e-18
-7.73498e-24
3.93178e-18
1.10564e-19
6.92317e-23
5.90916e-27
1.27768e-30
4.32814e-34
1.78451e-37
7.75298e-41
3.29216e-44
1.39964e-47
7.69431e-51
2.64904e-54
1.16873e-57
5.13245e-61
3.21554e-64
2.40554e-67
4.38571e-71
1.64236e-74
7.13531e-77
1.40772e-80
1.75199e-84
6.98707e-87
5.74151e-91
4.69531e-94
1.75832e-96
4.7044e-100
6.36767e-104
4.20328e-106
1.01781e-109
2.14624e-112
2.93905e-116
1.22687e-119
7.1048e-122
2.7437e-125
5.93607e-129
5.2827e-133
1.61733e-136
6.40489e-140
7.6316e-143
2.31962e-143
0.989229
1.01322
1.04446
1.01262
0.971385
1.01237
1
7.0803e-11
-7.74224e-19
1.75388e-16
6.14454e-18
7.43076e-21
8.9703e-24
4.39171e-27
5.39712e-31
1.53556e-34
6.28325e-38
2.64998e-41
1.12092e-44
4.72181e-48
1.97322e-51
8.40546e-55
3.59953e-58
1.43486e-61
7.58539e-65
2.74529e-68
1.55889e-71
9.49115e-75
1.9436e-78
1.88139e-81
3.72921e-85
1.54619e-88
2.7318e-91
1.33492e-94
2.3467e-98
2.63754e-101
2.95837e-104
7.30754e-108
1.38379e-110
3.51147e-113
1.45365e-116
3.59521e-119
3.49868e-123
3.68553e-127
5.3723e-130
4.64771e-134
1.62923e-137
6.40246e-141
2.57426e-144
2.7254e-145
1.03928
1.02389
0.981701
0.958982
0.982013
1.05265
0.599118
-4.76099e-18
-8.52735e-20
7.70969e-22
7.17317e-20
1.30269e-21
2.91792e-25
1.07281e-29
3.24224e-33
1.32705e-36
5.55057e-40
2.30948e-43
9.64582e-47
4.02711e-50
1.65822e-53
7.04074e-57
2.85845e-60
1.20538e-63
4.88916e-67
2.00639e-70
8.24336e-74
3.58082e-77
1.39097e-80
6.60876e-84
5.1392e-86
1.61618e-89
1.5752e-92
9.39829e-96
5.33728e-99
2.84734e-102
8.61459e-106
5.90651e-109
5.73563e-113
3.47718e-115
6.04213e-119
1.25134e-122
5.09317e-125
1.14094e-127
8.18141e-131
9.58062e-135
8.77491e-138
9.65362e-141
5.10139e-143
2.74021e-145
1.05617
1.03185
1.0368
1.04462
0.987342
1.0094
0.00793771
-7.58656e-19
-5.26923e-22
5.68116e-18
6.56741e-19
5.58389e-21
1.96986e-24
1.05345e-28
2.93259e-32
1.20389e-35
4.9791e-39
2.09426e-42
8.61018e-46
3.53961e-49
1.50817e-52
6.15792e-56
2.49085e-59
1.02962e-62
5.09795e-66
1.912e-69
9.28048e-73
3.17153e-76
4.45727e-79
2.35719e-82
2.97388e-86
4.03239e-88
1.28429e-91
1.01316e-95
5.76217e-99
2.42433e-101
3.02449e-104
3.05927e-108
3.50099e-110
9.86354e-114
3.85185e-117
1.10583e-119
4.08001e-123
7.57914e-127
1.44608e-130
1.02692e-132
7.4928e-136
3.55908e-139
1.32503e-142
2.78003e-145
0.165305
1.01737
0.274306
0.995368
0.174772
1.01532
0.285061
0.488171
1.02151
0.996644
1.00598
0.490211
1.02136
0.992284
1
1.00589
1.00014
1.00218
1
0.993841
1.00042
0.999956
1.00169
1.00137
0.98435
0.999942
1.00114
1.00134
1.00252
1.00019
1.00272
1.01787
1.00231
0.99862
1.0026
1.00268
1.00384
1.00501
0.979595
1.00307
1.00261
1.00515
1.00375
1.01321
1.00152
1.0165
1.00659
1.01353
1.00095
0.999943
1.00815
1
1.01057
0.999445
1.01402
1
1
0.994305
0.689178
1.01734
1
0.977319
0.688348
0.531315
0.981368
0.123386
1.02188
0.532626
1.00209
0.13459
0.175405
1.01874
0.286962
0.991364
0.173951
1.0071
0.284737
0.490361
1.02005
0.99189
1.0065
0.490327
1.01672
0.991372
1.00004
0.979666
1.00136
1.00415
1
0.999956
1.00057
1.00007
1.00156
1.00165
0.993802
0.999905
1.00228
1.00118
1.00279
0.997977
1.00332
1.01931
1.00236
0.996901
1.00223
1.00301
1.00039
1.00543
0.996192
1.00144
0.996087
1.00506
1.00637
1.01217
1.00145
1.01589
1.00582
1.012
1.00093
0.999906
1.01897
1
1.01185
0.999644
1.025
1
1.00004
0.978169
0.688011
1.05407
1
0.979273
0.688026
0.533477
1.0068
0.133052
1.01671
0.533663
1.01556
0.122711
0.173083
1.00255
0.279348
0.99445
0.162272
0.993109
0.274918
0.490395
1.01528
0.991959
1.00778
0.488325
1.01575
0.996562
1.00001
0.989877
1.00121
1.00515
1
1.00016
1.00021
1.0001
1.00235
1.00167
0.995005
1
1.00358
1.00164
1.00286
0.99887
1.00248
1.02043
1.00255
0.99882
1.00207
1.00143
0.997148
1.00533
0.993091
1.00138
1.00009
1.00518
1.00573
1.01054
1.00143
1.01081
1.00483
1.01065
1.00148
1.00012
1.02423
1.00008
1.01145
1.00008
1.02663
1.00002
1.00004
0.996937
0.68852
1.05525
1
1.00055
0.688696
0.534055
1.01603
0.118383
0.999921
0.532676
1.00866
0.114349
0.995346
0.973169
1.00645
1.00137
1.01329
0.967329
1
1
1
1.00026
0.999262
1
1
0.999998
-3.86668e-18
-1.88613e-15
-6.48118e-18
3.8234e-07
8.94543e-14
6.73173e-07
8.90017e-14
1.00636
1.03021
1.04812
0.993247
1.01168
1.01781
1.04039
1.00106
1.00152
1.00896
1.00613
1.00205
1.00742
1.00247
-6.46882e-16
0.378751
-9.94242e-16
0.00294501
8.0938e-11
0.388026
5.77268e-11
1.00483
1.07928
0.980842
1.04386
1.01682
0.785195
0.782615
0.99693
1.00286
0.99075
1.00263
1.00218
0.998277
0.995848
-4.57562e-18
1.00002
5.19365e-42
0.690348
3.89573e-10
1.00016
4.04721e-08
1.01281
1.01911
1.00452
1.17256
1.03381
1.06324
0.947877
0.989613
0.9996
0.980458
0.979134
0.997713
1.00071
0.984869
-3.89537e-15
1.00155
0.0313613
1.00074
3.76093e-07
1.00185
0.0389277
1.01398
0.995792
0.953513
1.00117
1.01231
0.98245
0.970132
1.00418
1.00838
1.00612
1.01738
1.00832
1.00582
1.00413
0.0736517
1.00173
0.145415
1.00232
0.0816414
1.0021
0.153851
0.901645
0.999614
0.999918
0.980709
0.877625
0.932055
0.972302
1.00096
1.00005
0.999848
0.979041
1
1
1.00212
0.16026
1.00282
0.069444
1.00254
0.170945
1.00316
0.0767074
1.04107
1.00438
1.02297
0.999909
1.02382
0.998876
1.02586
1.01754
1.01024
1.02955
1.01627
1.0104
1.02855
1.01692
0.0300229
1.00043
-3.65881e-14
1.00417
0.0371452
1.00078
4.88807e-07
0.982808
1.00197
1.04004
1.02399
1.00338
1.01705
1.02311
0.996717
1.00029
0.958728
1.0021
1.00041
0.966766
0.998048
-3.80655e-14
0.799174
-1.22051e-19
1.00015
5.22106e-08
0.800659
6.47459e-10
0.983273
0.991838
0.965078
1.00794
1.04453
0.908525
0.999835
0.997541
1.00105
0.971247
0.997608
1.00076
0.991172
0.998776
-2.99356e-17
0.0355148
-2.47898e-16
0.599329
7.20812e-10
0.0408944
1.08957e-09
0.956842
1.0225
0.988072
1.00802
1.05541
1.00115
0.9635
1
0.996768
1.0038
0.999998
0.995887
1.04651
0.996476
-2.67123e-17
-3.3437e-17
-4.89462e-18
0.0082399
7.44758e-13
1.80029e-07
1.13897e-12
1.04104
0.998694
1.01012
0.980607
0.899389
0.99558
1.00196
0.999572
0.999996
0.964656
0.967288
0.99991
0.958664
0.999993
5.63838e-13
8.17262e-07
4.782e-13
5.5407e-07
4.78177e-13
9.52243e-07
4.78213e-13
1.02766
1.04389
1.02088
0.995266
1.02872
1.00102
0.997738
0.999588
1.00258
1.00615
1.01122
1.00032
1.00259
1.00986
3.74134e-10
0.388841
2.16907e-10
0.00325444
3.74482e-10
0.38916
2.16907e-10
1.02412
1.00292
0.944834
1.00612
1.03161
1.0162
1.00274
1
1.00306
0.99862
1.00185
0.999964
1.00356
1.00003
9.20752e-10
1.00074
6.54054e-08
0.690184
9.22934e-10
1.0002
6.52229e-08
1
1.03602
0.93228
1.00014
0.97928
1.05863
0.992516
0.979319
0.991791
1.0017
0.987372
0.979696
0.995408
0.979666
5.47222e-07
1.0018
0.0400848
1.00067
5.61847e-07
1.00168
0.0394245
1.00865
0.961747
0.983821
0.996451
1.00968
0.870964
0.979926
1.00439
1.008
1.00609
1.02049
1.00432
1.00779
1.00229
0.0821613
1.00269
0.156273
1.00226
0.0822241
1.00204
0.156205
0.87888
0.958977
0.986626
1.01433
0.955631
0.984843
0.97851
1
1
0.984693
0.990008
0.999932
1.00003
0.983782
0.172284
1.00391
0.0778731
1.00162
0.172112
1.00316
0.0775166
1.02323
0.952177
1.01609
0.99198
1.01801
0.93806
1.01605
1.0168
1.00994
1.02684
1.01644
1.01734
1.01051
1.02706
0.0376847
1.00148
7.1852e-07
1.00365
0.0379604
1.00087
7.13303e-07
1.01369
1.02601
1.03569
1.00806
1.0139
1.02309
1.003
1.00172
1.00018
1.01548
1.0109
1.00017
1.00019
1.01941
8.59894e-08
0.80072
1.33285e-09
1.00025
8.6115e-08
0.79998
1.44239e-09
1.07841
0.972065
1.00247
1.00411
1.10141
0.935951
0.999678
0.999831
1.00372
0.947114
1.04393
1
1.00383
0.974534
2.19594e-09
0.0414558
3.80874e-09
0.599074
2.19594e-09
0.0413592
3.81114e-09
1.03911
1.03268
0.943851
0.987636
0.982683
0.978547
1.0118
1.00156
0.999747
1.05866
1.04105
1.00277
0.999313
1.0595
3.56654e-12
2.54737e-07
6.21411e-12
0.00855974
3.56654e-12
3.66849e-07
5.88305e-12
0.99965
0.985236
1
0.998453
1.00522
0.949354
0.927611
1
1
0.994475
1.00326
1
0.992636
1.0002
1.21784e-13
9.42893e-07
1.21294e-13
-1.71234e-16
-5.02698e-18
-6.02651e-16
-9.19816e-18
1.023
1.02611
0.982096
0.987835
1.02528
1.01366
0.965254
0.992087
1.00241
0.985972
0.981908
0.990113
1.00067
0.984893
8.22611e-11
0.38791
5.79496e-11
0.00093109
-4.50799e-16
0.378168
-6.38632e-16
1.00442
1.02798
1.01978
1.00497
1.00584
1.00964
1.01083
1.00398
1.00343
1.00003
1.00487
1.00383
1.00378
0.999311
3.78747e-10
1.00062
4.05854e-08
0.690713
-5.09822e-18
1.00002
0
0.965352
1.02481
1.00207
1.00322
0.95259
1.02734
1.00248
0.987296
0.996402
0.981005
0.989898
0.99299
0.997522
0.952519
3.84081e-07
1.00165
0.0388176
1.00005
-6.79487e-15
1.00117
0.031461
1.00949
0.899169
0.993243
0.997607
1.0137
0.929984
0.974427
1.0037
1.00792
1.00691
1.01981
1.00399
1.00847
1.00933
0.0809164
1.00261
0.156073
1.00142
0.0735327
1.0015
0.145132
0.990492
0.976223
0.98726
0.980558
0.991995
0.986252
0.974717
0.999137
1.00018
0.986967
0.988973
0.999335
1.00014
0.972795
0.169862
1.00385
0.0769602
1.00121
0.159285
1.00272
0.0694552
1.01146
0.937396
1.01788
0.999109
1.0077
0.937212
1.009
1.01624
1.00977
1.02579
1.01455
1.01694
1.01011
1.02387
0.0363681
1.00139
4.8438e-07
1.00308
0.0298205
1.00038
-3.58987e-14
1.02
1.01571
1.03229
0.95247
1.02099
0.938285
1.01777
1.00154
1.00058
1.01801
1.01196
1.00155
1.00079
1.01791
5.23478e-08
0.800288
7.89562e-10
1.00001
-3.62026e-14
0.799706
-8.57091e-20
1.09846
1.03173
1.00534
0.987697
1.07815
1.08029
1.0185
0.998103
1.00207
1.00188
1.06738
0.999853
1.00174
1.00106
7.22737e-10
0.0408238
1.10587e-09
0.597014
-4.05532e-17
0.0354651
-1.0483e-16
1.00405
0.976193
1.04901
1
1.00419
0.983745
1.00501
1.00006
0.999854
1.01578
1.01999
1.00053
0.999991
1.0032
7.40531e-13
3.12494e-07
8.39982e-13
0.00375739
-1.19014e-17
-1.72364e-17
-7.00803e-18
0.845404
0.891299
0.116419
0.168177
0.118259
0.846588
0.890842
1.00288
1.01486
1.00668
1.01663
1.01426
1.00767
1.00262
0.932483
0.209646
0.971503
0.279618
0.220297
0.968588
0.940266
1
1
0.999998
0.999994
1.00035
1
0.999998
0.842989
0.170215
0.887098
0.123639
0.120963
0.840197
0.889638
1.00241
1.01748
1.01347
1.00634
1.01325
1.00715
1.0023
0.930327
0.281605
0.228471
0.9662
0.223443
0.967609
0.927414
1.00026
1.00009
0.66008
0.489009
1.00013
0.661631
1.00041
1.01012
1.02565
1.00925
1.02197
1.02544
1.00897
1.01039
1.00258
0.858447
1.00106
0.994598
0.85989
1.00123
1.00263
1.00109
1.00698
1.0024
1.00755
1.00228
1.01027
1.00087
1.00053
0.489133
1.00008
0.661885
1.00015
0.660324
1.00021
1.00966
1.02166
1.02512
1.00861
1.02502
1.00873
1.00981
1.00279
0.993538
0.860904
1.00122
0.859981
1.00144
1.00272
1.0013
1.00176
1.00038
1
1.00164
1.00071
1.00151
1.00008
1.00229
1.00043
1.00048
0.989611
1.00037
1.0041
1.0014
1.00077
1.00025
1.0003
1.00115
1.00014
1.00255
0.995883
1.00242
1.00346
1.00072
1.0021
0.998614
0.997659
1.00165
1.00001
1.00184
1.00051
1.00193
1.00092
1.00183
0.99781
0.989909
0.954965
1
0.956276
1.0001
0.997769
1.00133
1.00137
1.00133
1.00026
1.00158
1.00038
1.00127
0.997733
0.998107
1.00001
0.99968
0.998353
0.999995
0.998787
0.999648
0.999941
1.00352
1.00126
1.00009
1.00287
1.00081
1.00138
1.00055
1.00324
1.00215
1.00064
1.00301
1.00207
0.998117
1.01699
0.993717
1.09063
0.992085
1.0817
0.988915
0.997238
1.00003
0.998352
1
0.998708
0.999948
0.998709
0.998775
1.00168
0.982257
1.00266
0.986911
1.0028
0.99887
1.0012
1.00198
1.00056
1.00243
1.00084
1.00282
1.00077
1.00338
1.00492
1.00326
1.00257
1.00446
1.00325
1.00443
1.00045
1
1.00372
0.99973
1
1.00328
1.00038
1.00169
1.00268
1.00382
1.00275
1.00283
1.0037
1.00244
1.00431
1.01752
1.00811
1.00586
1.00812
1.00556
1.00419
1.00368
1.00281
1.00422
1.00296
1.00449
1.00347
1.00321
1.00044
0.998362
0.999975
1.00277
0.999938
1.00291
1.00052
1.00187
1.00325
1.00278
1.00365
1.00323
1.00389
1.00178
1.00303
1.00347
1.00286
1.00284
1.00322
1.00287
1.0037
0.999433
0.989686
1.00323
1.0044
0.976004
1.00317
0.999272
1.00307
1.00488
1.00707
1.00489
1.00448
1.00697
1.00347
0.998886
0.999458
1
0.984074
1.00001
0.985533
0.999787
1.00277
1.00328
1.00276
1.00276
1.00296
1.00327
1.00247
0.99735
1.00733
0.970421
1.0034
0.970449
1.00315
0.996808
1.00303
1.00505
1.0044
1.00683
1.00453
1.00694
1.00306
1.00973
1.00775
1.0054
1.00331
1.00656
1.00543
1.01005
1.00838
1.01986
1.00354
1.01305
1.02001
1.004
1.00828
1.00558
1.00362
1.0022
1.00112
1.00353
1.00215
1.00565
1.01778
1.01608
1.01044
1.02748
1.01026
1.02695
1.01773
1.00921
1.00403
1.00731
1.0057
1.00651
1.0058
1.00886
1.00835
1.01338
1.02029
1.00417
1.02023
1.00404
1.00815
1.0059
1.00153
1.00338
1.00213
1.00387
1.00219
1.0056
0.989403
0.999993
0.998552
0.999595
0.998998
0.996761
0.983516
0.995236
0.931844
1.00718
1.00726
0.953849
1.0033
0.997327
0.982222
0.999288
0.99612
1
0.999665
0.9971
0.989178
0.998391
1.00589
1.0003
1.02148
1.00035
0.998461
1.00003
0.991729
0.999922
1
0.99819
0.999621
0.997767
0.982225
1.0019
1.01199
1.02561
1.00675
1.01482
1.00753
1.00163
0.982123
1
1
0.998337
0.999844
0.999049
0.982155
1
1.00009
0.998506
1
1.00011
0.995485
1.00004
0.999943
0.984884
0.999974
0.996582
0.996019
0.999976
0.999331
0.999996
0.886715
1
0.688826
0.889848
0.999999
1
0.998661
1.00434
1.00321
0.927248
1.0021
0.945294
0.998956
1
1.00003
1.00021
0.99301
1.00026
0.994284
1
0.985582
0.991633
0.862723
0.995135
0.89068
0.999475
0.958622
0.999971
0.688429
0.885929
0.999999
0.888854
0.999998
0.999958
0.961632
1
0.262071
0.531485
1
0.269127
0.965779
0.999998
0.887609
1
1.00735
0.89817
1
1
0.878351
0.213883
0.826942
0.130538
0.241387
0.894918
0.823921
1
1.02945
1.00017
1.05204
0.997026
1.06452
1.00043
0.958154
0.531908
1
0.276175
1.00008
0.27503
0.958748
0.999082
1.0192
0.95785
1
0.924104
0.998829
1
0.8982
0.1333
0.223743
0.824888
0.227471
0.901264
0.824596
0.836572
0.886358
0.12669
0.17699
0.837342
0.125597
0.884754
1.0012
1.01307
1.00675
1.01451
1.00138
1.01043
1.00584
0.92692
0.228583
0.964973
0.286218
0.927613
0.229541
0.965575
0.998554
0.98964
0.999998
0.986505
0.989669
0.999445
0.999996
0.84589
0.17699
0.885959
0.114606
0.115954
0.843781
0.883963
1.0012
1.01155
1.00418
1.00424
1.00715
1.0055
1.00148
0.921774
0.285833
0.238196
0.96711
0.235419
0.966011
0.91964
1
1.00006
0.660891
0.490456
1.00028
1.00003
0.660973
1.01021
1.02168
1.00861
1.0211