/*--------------------------------*- C++ -*----------------------------------*\
| =========                 |                                                 |
| \\      /  F ield         | OpenFOAM: The Open Source CFD Toolbox           |
|  \\    /   O peration     | Version:  5.0                                   |
|   \\  /    A nd           | Web:      www.OpenFOAM.org                      |
|    \\/     M anipulation  |                                                 |
\*---------------------------------------------------------------------------*/
FoamFile
{
    version     2.0;
    format      ascii;
    class       surfaceScalarField;
    location    "2.7";
    object      alphaPhi10;
}
// * * * * * * * * * * * * * * * * * * * * * * * * * * * * * * * * * * * * * //

dimensions      [0 3 -1 0 0 0 0];

internalField   nonuniform List<scalar> 
22429
(
3.59426e-08
-1.10006e-09
1.85504e-07
-1.09502e-08
1.5717e-08
-5.30596e-09
-2.1635e-07
-6.17046e-08
-3.61249e-08
6.1459e-08
-1.77496e-08
-6.0369e-08
1.52016e-07
1.79132e-07
3.69882e-08
5.75951e-09
4.13888e-08
2.91568e-08
9.85213e-08
6.43577e-08
8.06815e-09
1.53263e-09
-2.14136e-08
7.81142e-08
1.39816e-08
-4.95814e-09
5.09838e-10
-7.46176e-10
7.8395e-09
-2.73456e-12
6.27763e-08
6.27763e-08
6.27763e-08
5.27638e-23
-1.57533e-20
3.10992e-21
6.82783e-20
-6.31918e-20
-2.46654e-19
2.37199e-19
7.64863e-27
-1.70129e-24
-1.11024e-25
1.11663e-26
-3.92172e-27
-2.32537e-30
1.01399e-28
-4.33278e-29
-3.67942e-33
3.65879e-32
-3.27065e-32
-7.26983e-33
1.93226e-36
-4.16929e-36
3.25604e-36
5.6747e-40
-7.45045e-40
-1.52032e-38
2.37148e-43
-1.93944e-43
7.30058e-42
1.00863e-46
-4.08115e-47
3.96281e-45
4.27955e-50
-8.46765e-51
1.60539e-48
1.82135e-53
-2.74289e-54
1.3741e-50
7.72801e-57
-4.57577e-57
-2.98577e-54
3.28931e-60
1.89602e-61
-1.72023e-58
1.41015e-63
7.38066e-65
-4.15986e-60
5.98424e-67
3.71556e-68
3.56532e-65
2.54667e-70
-6.60988e-72
-1.81883e-67
1.06829e-73
-3.47209e-75
5.71504e-71
4.86439e-77
-5.86612e-78
8.08932e-73
2.40618e-80
4.22958e-81
-3.90897e-76
8.89254e-84
-2.80677e-86
2.13448e-80
4.70328e-87
-7.82383e-89
-2.51846e-83
4.51872e-90
-9.60788e-91
2.01183e-85
1.29249e-93
-1.54642e-95
4.26217e-89
6.66825e-97
2.32977e-97
-3.85777e-92
2.86788e-100
1.02461e-101
-1.43266e-96
5.93208e-103
-1.65956e-104
1.86789e-99
1.06884e-105
-5.29292e-106
-8.98746e-103
2.20547e-109
2.01199e-110
-2.0362e-106
1.58694e-112
2.96339e-113
-2.55153e-107
1.85604e-115
3.97378e-117
1.93781e-111
2.51034e-118
1.93392e-119
-4.91573e-114
2.98589e-122
2.25157e-123
1.87934e-118
1.07789e-125
-1.26607e-126
1.56702e-126
8.80149e-129
-4.69463e-131
-1.22402e-124
1.89305e-131
-2.30722e-133
-7.00195e-127
2.67418e-134
-4.9061e-135
-5.76216e-130
6.75525e-137
3.21329e-137
-1.21446e-132
9.26599e-141
-1.05525e-142
-8.71971e-138
1.06969e-143
-5.86587e-145
-2.52312e-139
1.89995e-147
3.11086e-148
-9.38347e-143
1.97901e-150
-5.17491e-154
7.48729e-147
1.57677e-152
4.60919e-154
-5.38344e-149
1.89185e-157
1.60637e-157
3.93264e-08
-1.29052e-08
-2.44685e-07
-8.8763e-09
-1.22615e-08
-2.98729e-08
1.62656e-08
-1.13915e-08
2.04232e-08
-1.27637e-07
5.11645e-09
6.12413e-08
-8.07211e-09
-1.29222e-08
-1.40407e-08
-3.80626e-08
-3.53975e-08
-4.76773e-07
4.52932e-08
-2.10361e-08
4.86466e-08
-2.43398e-08
-3.338e-08
-3.25387e-08
-2.92469e-08
-1.99372e-07
-2.43277e-07
-2.11247e-07
-3.20095e-08
-3.55995e-08
-3.74182e-08
1.79904e-08
-5.49129e-09
2.5677e-08
-5.66698e-09
-1.7918e-09
-7.14052e-09
-1.39056e-09
1.34487e-09
7.05392e-09
5.64579e-12
5.85081e-15
1.78157e-08
3.6821e-14
1.78158e-08
8.68398e-22
-1.27362e-18
1.3894e-20
-2.71901e-20
-3.20747e-19
1.58619e-18
1.14252e-18
-1.35e-18
-2.18509e-18
-1.35054e-18
-5.38348e-26
-1.53196e-22
-5.92077e-25
1.07753e-27
-6.30467e-26
-6.46631e-29
5.42942e-30
-2.26637e-28
-5.10592e-32
2.16966e-33
-1.10839e-31
3.06927e-34
1.96558e-37
-3.88657e-34
-4.89703e-37
5.68492e-41
-8.94898e-38
-9.62308e-41
2.33619e-44
-1.05576e-41
9.46897e-44
9.94707e-48
-2.483e-45
-8.35447e-46
4.24956e-51
-7.94531e-49
2.28684e-49
1.81793e-54
-9.23657e-53
4.27904e-52
7.75866e-58
1.98576e-56
-6.45982e-56
3.2952e-61
-6.31667e-60
-3.83133e-59
1.40696e-64
-7.67352e-63
-8.64637e-62
6.08622e-68
-7.15459e-67
-1.05217e-66
2.70179e-71
-3.21301e-70
4.45637e-70
1.18488e-74
-3.29625e-74
-1.34407e-72
5.236e-78
-1.43309e-78
-4.35914e-75
2.43782e-81
4.59951e-81
2.33057e-77
1.0465e-84
-1.63565e-83
-2.83472e-80
4.61641e-88
-1.37809e-88
-1.50604e-84
2.30946e-91
9.67919e-92
-7.97766e-87
1.1517e-94
5.9011e-94
6.57247e-90
1.02383e-97
-3.3281e-99
-1.09995e-93
1.26097e-100
1.12755e-101
-2.38967e-96
2.80413e-104
-5.63093e-103
-6.72126e-100
2.43461e-107
-1.72623e-108
9.34126e-102
7.88201e-111
3.12654e-111
1.1146e-106
5.7531e-114
-2.9543e-114
-8.33788e-109
2.35865e-117
2.42941e-118
1.49806e-115
4.6928e-120
9.48165e-122
-8.72331e-121
5.98578e-122
4.7312e-124
1.29285e-118
4.84518e-126
-1.28283e-126
1.4177e-121
1.51024e-129
-1.74361e-130
-7.8894e-125
8.93536e-133
-1.57329e-133
-3.46079e-128
2.3416e-136
-4.05518e-136
-5.0223e-132
9.4896e-140
1.54317e-140
4.83044e-139
6.61518e-143
4.96795e-144
2.05237e-137
9.39438e-146
-2.31546e-147
6.22983e-141
5.81895e-149
-3.3635e-149
-2.62424e-143
1.2664e-152
-2.02479e-152
-9.45628e-148
1.9994e-153
4.65195e-156
5.95171e-151
1.30807e-157
-1.8856e-153
6.97543e-08
7.8649e-09
-2.23418e-07
4.57251e-09
-1.98663e-08
1.52058e-07
8.86638e-09
5.91468e-09
-7.3398e-09
5.03995e-09
-1.11967e-08
4.32956e-08
-2.60206e-08
5.59264e-08
6.03272e-08
-2.65755e-08
-2.47702e-08
-9.35334e-09
-2.43714e-07
-3.12572e-08
1.69582e-08
1.35317e-08
9.53801e-09
1.22186e-08
-2.74761e-09
1.81547e-10
2.14239e-09
5.98817e-09
-2.95215e-09
1.56344e-12
1.68629e-11
1.41032e-09
-1.01063e-10
1.47245e-09
1.59723e-19
-1.35207e-18
-5.74826e-09
-1.29911e-18
-8.59651e-20
3.03313e-19
1.75272e-19
5.26059e-25
-1.02474e-21
-1.88093e-23
7.38637e-20
7.37142e-20
7.31115e-20
7.41699e-20
1.21814e-25
-1.44488e-25
-1.43829e-26
3.01785e-28
-1.51976e-28
1.771e-30
3.78219e-32
-7.04091e-32
-3.83747e-32
2.6061e-35
3.93398e-34
1.33985e-35
9.55152e-39
6.74869e-38
1.16603e-39
2.61758e-42
1.39827e-41
7.92813e-42
1.05421e-45
3.74315e-45
-1.67479e-45
4.48952e-49
9.75141e-49
-8.10762e-48
1.92015e-52
-1.29228e-52
-1.32786e-50
8.19586e-56
4.78852e-56
-1.77601e-54
3.49488e-59
-3.14942e-60
2.18937e-57
1.49039e-62
-1.1729e-62
1.54515e-60
6.35463e-66
-1.80099e-66
-4.03439e-64
2.70606e-69
8.45611e-70
1.3408e-66
1.14764e-72
-4.20447e-73
2.35721e-70
4.92465e-76
2.26302e-77
1.33209e-73
2.13041e-79
7.39214e-80
-3.17406e-76
8.94521e-83
1.71108e-83
-5.06086e-79
3.80052e-86
-9.58698e-87
2.64174e-83
1.68215e-89
-2.73795e-90
-8.71652e-86
7.24376e-93
-2.61597e-93
-1.76575e-89
2.93591e-96
-1.21603e-96
4.54055e-96
2.99837e-99
-1.29042e-98
-3.71329e-99
1.21992e-101
7.9492e-103
-1.02293e-97
1.32422e-105
1.50738e-106
-5.36481e-101
4.65543e-109
1.33095e-109
-4.58784e-104
2.32274e-112
-1.25477e-112
-3.24826e-107
9.32624e-116
1.72599e-116
-2.31686e-111
7.90325e-119
3.99896e-120
-1.56872e-114
2.9564e-121
5.73552e-122
-3.07944e-117
6.23468e-125
3.77101e-124
-2.84154e-120
2.02533e-128
-1.02621e-128
-3.82263e-124
2.46065e-131
-6.96516e-132
-3.11514e-126
5.17946e-134
-4.96781e-134
6.9018e-130
4.36925e-138
2.29535e-137
3.15337e-133
1.69515e-141
-3.17248e-141
4.91124e-136
2.4118e-144
6.61302e-144
5.06343e-140
7.59244e-147
3.53102e-148
-3.62855e-142
1.05077e-150
3.01281e-151
-6.53808e-146
1.75933e-153
-3.8397e-155
1.99349e-149
-4.1902e-157
1.10517e-154
5.78042e-09
1.26377e-08
-2.8322e-07
5.44422e-08
1.50008e-08
-3.38851e-07
-2.92147e-08
8.99618e-09
5.01845e-08
3.70127e-07
-2.66492e-07
-2.00838e-08
-4.34501e-10
6.30056e-08
6.00865e-08
3.82564e-09
3.38035e-08
-3.98837e-09
-1.84927e-08
1.06548e-07
-1.21767e-07
-5.28114e-08
1.65973e-07
6.98684e-08
6.33476e-08
5.14109e-08
5.61733e-08
-3.74259e-08
-3.87481e-08
3.84347e-08
3.46235e-08
-3.04042e-08
3.08202e-09
-1.86561e-08
3.72137e-09
-1.93011e-09
1.42946e-08
-2.76544e-10
-3.79893e-11
1.62955e-10
-3.71643e-12
2.55796e-10
-1.85405e-16
3.97191e-19
-1.96558e-08
2.80331e-19
4.81902e-16
-9.65713e-16
1.17862e-15
4.48821e-18
1.01646e-24
-5.37409e-21
-6.9829e-22
2.66567e-19
2.38385e-19
2.49583e-19
3.27054e-19
6.04975e-27
-7.9896e-25
2.20064e-26
2.7512e-27
5.14327e-28
5.54768e-30
5.32937e-30
-4.61197e-29
-4.31132e-31
1.89109e-34
-6.04714e-32
2.05532e-33
3.54918e-38
-6.07611e-36
3.97617e-38
1.43884e-41
-1.38217e-39
-1.32304e-41
6.15758e-45
-3.7174e-43
-2.00407e-44
2.6588e-48
-9.42994e-47
-4.85947e-47
1.14672e-51
-2.40093e-50
-8.84458e-49
4.91651e-55
-2.29069e-54
-3.47418e-52
2.10461e-58
3.65079e-58
5.07025e-56
9.00206e-62
-3.10235e-61
-8.96414e-59
3.91852e-65
-1.38803e-64
-1.71011e-62
1.77025e-68
-3.23107e-68
3.46049e-65
7.68951e-72
-1.07948e-71
-5.31248e-68
3.33909e-75
5.18939e-76
-1.81622e-71
1.34411e-78
-3.48053e-78
1.32537e-75
6.96311e-82
-1.15985e-83
-4.44286e-78
5.86382e-85
3.35307e-85
-7.6543e-81
1.40922e-88
-1.96901e-87
-7.03406e-85
7.86939e-92
1.65643e-92
-6.21522e-88
1.31931e-94
1.96624e-95
-1.6941e-90
8.76031e-98
-2.55308e-99
-2.90532e-93
1.43982e-101
-1.4822e-101
-3.48658e-97
1.03937e-104
2.44389e-105
-1.30554e-100
1.40047e-107
3.34424e-108
-4.08382e-103
2.7578e-111
-8.33693e-114
-4.26736e-106
1.42764e-114
3.68208e-114
3.87246e-110
3.33662e-117
-1.43241e-117
2.272e-113
1.34615e-119
3.94423e-120
-1.54422e-115
1.43651e-123
-3.85672e-124
-2.08408e-118
9.02883e-127
9.31963e-128
2.32748e-122
1.64065e-129
-2.95996e-130
-3.12614e-125
2.75297e-133
-3.41382e-134
-4.03007e-129
3.18049e-136
2.51119e-136
-2.04125e-131
3.75062e-139
2.87063e-140
-1.73701e-134
1.00315e-142
-4.70972e-144
-3.11977e-138
4.15129e-146
1.58413e-145
-1.72087e-140
1.85431e-149
9.45439e-150
-9.25497e-146
1.77031e-152
-4.25773e-152
-1.66103e-148
-1.38311e-154
-4.08363e-151
2.10978e-09
-1.49064e-09
7.54799e-08
-1.17547e-07
8.22122e-09
-1.05832e-07
1.2993e-07
6.04366e-07
1.19601e-07
5.73401e-08
2.23754e-08
1.68654e-08
-5.57697e-08
-4.35133e-08
3.69913e-08
-1.96124e-08
2.07993e-08
3.2502e-08
1.75426e-08
-1.09521e-10
-2.36124e-08
-5.52564e-08
-4.13173e-08
-1.60231e-07
-7.40991e-08
-5.76238e-08
5.71527e-08
4.69905e-08
-5.07903e-08
-1.66524e-09
-1.63245e-08
1.94887e-09
-6.56158e-09
2.10323e-08
-2.66936e-09
-6.70203e-11
3.30293e-11
-1.0269e-10
2.63201e-10
2.85688e-14
-8.51421e-18
2.6515e-15
2.55999e-13
-1.61997e-13
-1.22735e-13
1.16384e-15
-2.17123e-08
-2.17123e-08
-2.17123e-08
-2.17123e-08
5.94881e-23
8.57536e-21
-4.42561e-22
5.99326e-18
5.82875e-18
6.40234e-18
5.31765e-18
1.29623e-25
1.32917e-24
-1.17657e-25
1.56806e-26
7.70554e-27
1.83693e-30
9.89741e-29
5.70489e-29
6.05311e-30
9.74783e-33
1.88515e-32
-4.22289e-32
7.69806e-37
2.29577e-36
-1.11828e-35
2.89157e-40
8.05943e-40
-4.03398e-38
1.2322e-43
2.50566e-43
-3.36951e-41
5.2503e-47
2.61483e-47
-3.93851e-45
2.23661e-50
5.64848e-51
-3.73329e-48
9.51966e-54
2.66821e-54
3.36377e-51
4.04717e-57
-5.912e-58
-5.31718e-54
1.72569e-60
-3.49884e-61
3.17563e-58
7.38928e-64
1.20619e-64
-8.49341e-61
3.08502e-67
1.6189e-68
-7.54278e-64
1.30487e-70
5.26669e-73
-1.02786e-67
6.08309e-74
3.20621e-75
-5.61709e-71
3.46596e-77
1.06271e-77
-6.05304e-73
1.17727e-80
3.81855e-81
-1.98941e-76
6.7753e-84
-1.5809e-85
3.20001e-80
5.96121e-87
1.08106e-87
-1.09067e-82
2.05223e-90
-1.74081e-89
-2.47926e-85
1.59012e-93
-1.66235e-93
-6.70426e-89
5.90375e-97
1.81844e-97
-5.71672e-92
7.33111e-100
-7.96116e-101
-1.51471e-95
1.1347e-103
-4.01526e-105
-7.31211e-100
4.45359e-107
-1.53076e-107
1.5283e-102
5.2537e-110
1.58165e-110
-6.31234e-106
1.67135e-112
1.00791e-113
-7.28614e-108
2.5811e-116
5.88603e-117
-8.35192e-111
1.31891e-119
4.84729e-121
7.95556e-120
3.40154e-122
7.58921e-124
-5.76221e-118
2.87512e-126
-2.82893e-126
2.61122e-121
1.86205e-129
-1.15458e-127
5.8654e-124
1.77017e-132
-1.64554e-131
-6.2891e-127
1.71274e-135
4.22037e-136
4.42578e-130
1.31322e-138
3.66188e-139
-1.40491e-133
1.85293e-141
-2.42135e-142
-2.30097e-137
7.75646e-144
9.76546e-145
-3.20362e-139
1.40642e-147
9.648e-148
-7.49434e-143
1.15226e-150
2.97366e-151
-6.29694e-146
2.86335e-155
-1.69333e-149
3.43843e-08
-2.27832e-09
-3.39753e-07
4.18391e-08
1.94838e-09
-8.18584e-08
7.08648e-08
2.53779e-08
3.98359e-08
-5.44476e-08
3.42085e-08
-4.82291e-08
-6.69282e-09
3.60536e-07
-4.20167e-07
4.7964e-08
-4.40119e-08
1.34267e-07
2.23387e-08
8.65231e-08
-3.75014e-09
-2.60699e-08
-4.25722e-09
3.84885e-08
2.90201e-08
-9.3319e-09
5.31777e-08
5.17423e-08
-9.12021e-09
3.4877e-09
-4.59379e-09
6.18983e-09
2.22249e-09
-6.72687e-09
-1.17789e-09
-1.2161e-10
2.04194e-10
4.48162e-11
9.04128e-11
-5.41423e-14
2.5055e-16
6.27763e-08
2.96726e-15
6.27763e-08
-2.71498e-23
2.2203e-21
-3.8878e-21
5.7697e-18
5.44622e-18
6.63158e-18
5.04118e-18
6.55674e-26
5.224e-25
-1.59701e-25
9.57327e-27
4.08643e-27
2.18255e-29
7.71461e-29
2.91885e-29
-9.93978e-30
8.97184e-33
1.79744e-32
-1.81993e-32
6.73032e-37
1.81416e-36
-1.77193e-35
2.48378e-40
4.20088e-40
-7.43431e-39
1.05737e-43
1.35584e-43
2.56155e-42
4.52738e-47
2.52412e-47
-1.96646e-45
1.94105e-50
1.40685e-50
-2.75275e-47
8.3234e-54
2.40063e-54
-1.64071e-52
3.5884e-57
8.89279e-58
-1.44161e-53
1.50166e-60
-6.64503e-61
5.86863e-58
6.35762e-64
2.16696e-64
1.82097e-60
2.73878e-67
8.15806e-68
-1.37234e-63
1.18308e-70
7.21002e-72
-5.03783e-67
8.34117e-74
3.75486e-77
-7.80462e-71
2.7661e-76
2.45555e-78
-5.07615e-73
1.9731e-80
3.01868e-82
-1.55622e-76
8.59879e-84
1.16514e-85
-2.67869e-79
1.59612e-86
2.1101e-88
-1.93046e-82
4.48516e-89
1.60433e-89
-7.33514e-85
1.03116e-92
5.56562e-93
-3.39229e-88
4.16679e-96
2.32077e-97
-1.57117e-91
1.23304e-99
8.16592e-101
-4.24984e-95
7.93208e-103
5.55522e-104
-6.69776e-98
6.8473e-106
1.1738e-106
-3.1955e-101
1.59082e-109
-1.3847e-110
-4.80617e-106
1.12802e-112
-3.43062e-114
-2.73401e-108
7.93251e-116
1.27118e-116
-1.34604e-110
2.61067e-119
-6.61129e-121
-1.46817e-114
4.11641e-122
-2.89473e-124
-1.53965e-118
7.75441e-125
-1.43085e-126
-3.75864e-120
1.53046e-127
-6.15917e-129
-6.11394e-123
2.54213e-131
2.8016e-132
-1.60727e-126
8.12519e-135
-1.49743e-135
3.37204e-130
3.7409e-138
1.88258e-140
1.07881e-133
2.29194e-141
-2.04662e-144
-7.06847e-137
5.67256e-145
7.01552e-146
-5.62754e-144
2.53196e-148
1.1697e-149
2.94474e-144
1.21036e-151
7.42996e-153
-3.1386e-146
5.32587e-156
1.66876e-154
7.9471e-08
-2.90532e-08
1.71241e-07
3.41193e-08
5.59202e-08
2.96879e-08
3.33041e-09
-2.4091e-08
-2.82284e-07
-6.51224e-08
-1.64414e-08
3.48241e-08
-1.81933e-08
3.40045e-08
3.66184e-09
4.57749e-08
3.84186e-08
-7.04781e-08
-9.42416e-09
4.57464e-08
-1.65525e-08
-1.22748e-08
-3.35607e-08
2.40631e-08
4.14205e-08
4.71153e-08
3.33684e-08
3.33741e-11
1.53573e-08
-2.90642e-09
-3.14015e-09
-9.00604e-09
-2.91999e-10
-6.60268e-10
6.93688e-10
-1.48554e-10
6.17712e-11
2.56927e-14
-1.01641e-15
-3.4828e-08
-3.4828e-08
3.68785e-16
6.23243e-15
-3.59885e-14
1.2303e-15
5.40348e-27
1.51653e-21
-1.06116e-22
2.43952e-19
2.53086e-19
2.89231e-19
2.37796e-19
3.35862e-26
1.83221e-25
-2.73638e-26
2.60862e-27
2.42999e-28
4.96163e-30
4.57589e-30
4.66429e-31
1.06467e-31
1.55621e-34
4.35438e-34
-4.50054e-34
3.16133e-38
1.19824e-37
7.58328e-38
1.27357e-41
1.72815e-41
-1.40677e-40
5.44008e-45
3.76366e-45
-1.5044e-45
2.35298e-48
1.05498e-48
-1.97096e-47
1.01795e-51
2.30773e-52
-3.67268e-49
4.39841e-55
3.42462e-56
-1.50807e-52
1.92165e-58
1.35398e-59
-9.77846e-56
8.40765e-62
-2.78002e-63
-4.97042e-58
3.54187e-65
2.09983e-66
-1.67883e-62
1.52461e-68
3.15636e-69
-1.70559e-65
6.73657e-72
1.95571e-73
-1.24739e-68
3.09456e-75
2.41494e-76
-9.47982e-72
1.20072e-78
5.18999e-81
2.45786e-78
5.28125e-82
-3.1189e-83
-3.96087e-80
3.64862e-85
-1.52969e-86
-1.50741e-81
4.03923e-88
2.93509e-89
-5.01927e-84
6.53895e-92
-2.80145e-93
-1.65311e-89
2.56673e-95
-1.4964e-96
-5.6873e-92
1.08381e-98
-2.60482e-102
-1.72134e-95
5.04657e-102
9.32687e-104
5.61874e-101
2.89958e-105
-7.86963e-107
2.29715e-101
2.04351e-108
-1.09282e-110
-7.53146e-104
3.20067e-111
6.47693e-113
4.90505e-107
1.23596e-114
-1.68135e-117
1.01569e-110
2.91953e-117
5.62319e-119
-1.51832e-112
8.8386e-121
-7.0272e-124
-4.38101e-116
3.84213e-124
-5.06282e-125
2.64079e-119
1.96932e-127
-2.23133e-129
3.00247e-123
2.01071e-130
3.03608e-132
1.9072e-125
5.53598e-134
3.13394e-135
3.19666e-129
3.33582e-137
4.10419e-139
3.73069e-133
6.75938e-140
-3.11368e-142
-3.88163e-135
5.43195e-143
2.11285e-146
-1.19376e-138
3.25121e-145
-6.08681e-148
-2.41206e-141
1.59332e-149
-6.38329e-152
4.50264e-150
2.33117e-152
1.00753e-154
5.1525e-151
9.9997e-156
-1.20576e-150
-1.49927e-08
4.07333e-08
-1.50906e-07
1.14442e-07
2.4588e-08
5.86069e-07
3.26462e-08
2.64963e-08
-1.19018e-08
2.5293e-08
-5.55615e-08
-4.45628e-08
3.10046e-08
-5.91143e-07
4.82725e-08
-5.9639e-07
1.18034e-07
3.63886e-08
-3.29215e-07
2.4801e-08
1.93515e-08
1.92124e-08
-1.0233e-07
8.05035e-09
2.83397e-08
2.94987e-08
2.29428e-08
2.60972e-08
-1.74898e-08
4.15303e-08
-2.02076e-08
-2.45603e-07
3.91804e-08
3.3598e-09
3.3114e-09
2.61131e-09
1.24742e-09
-1.13918e-08
1.45965e-10
-2.59297e-10
1.53043e-09
6.16215e-12
1.38119e-09
4.4482e-16
1.74658e-18
4.58199e-09
4.58199e-09
4.45611e-18
4.71151e-16
5.06383e-16
4.72688e-16
-8.24385e-25
7.2348e-23
-4.7602e-23
2.54379e-21
2.64371e-21
2.46258e-21
3.18432e-21
1.21767e-25
1.13167e-26
6.10397e-27
4.23222e-28
9.57002e-29
4.92993e-30
8.16325e-32
2.6617e-32
1.37513e-31
2.06394e-35
3.24506e-34
1.91981e-35
8.45285e-39
6.59585e-38
4.44469e-39
2.32699e-42
8.13072e-42
1.1965e-41
9.34376e-46
2.07583e-45
-1.79317e-45
3.9961e-49
7.64751e-49
-1.48616e-47
1.72003e-52
1.56028e-52
-1.55404e-50
7.41678e-56
1.10562e-55
-6.28294e-53
3.19518e-59
4.03694e-60
4.20767e-57
1.37461e-62
5.79248e-63
-3.59724e-60
5.94096e-66
1.10925e-66
-3.13806e-63
2.55091e-69
2.17115e-70
-4.28007e-66
1.08641e-72
-1.46345e-74
-4.92852e-71
4.69101e-76
-1.82119e-78
1.54647e-73
2.09567e-79
8.71179e-81
-5.47285e-76
9.22301e-83
3.42202e-84
-7.51848e-79
3.73147e-86
-2.86842e-87
5.38273e-83
1.6084e-89
2.58955e-91
1.14398e-87
7.0133e-93
-7.15916e-95
-4.12402e-89
3.28534e-96
-1.80503e-97
7.92295e-96
2.31908e-99
2.28969e-101
-5.25593e-95
1.31689e-102
3.44032e-103
-5.08796e-98
4.14956e-106
-5.049e-107
4.19335e-101
2.97035e-109
-2.44436e-112
-9.73352e-105
3.72649e-112
-1.33301e-113
3.43505e-107
7.11277e-116
1.16248e-117
-1.69255e-111
7.94893e-119
-1.34617e-121
1.82253e-113
6.17811e-122
2.35583e-124
-3.46552e-117
4.31338e-125
4.32702e-128
-9.75109e-121
1.20563e-128
1.15409e-131
2.93106e-124
2.02535e-131
-4.69599e-133
1.51937e-126
1.38498e-134
-1.60424e-135
-6.01896e-130
4.93065e-138
-1.31187e-139
-3.09878e-133
1.50682e-141
1.20447e-143
-3.86225e-136
5.43747e-145
1.46457e-146
6.31114e-142
2.27657e-148
-6.46243e-150
-9.48348e-147
8.53597e-152
-4.9075e-152
4.70507e-150
-7.03365e-154
-3.13423e-155
4.38702e-153
1.29528e-158
-2.9464e-153
-6.10155e-08
1.00114e-08
3.0412e-07
1.27907e-07
2.58434e-08
-6.64403e-08
7.78866e-08
9.75308e-08
3.19327e-08
3.67625e-08
3.84013e-08
4.25492e-08
-7.72725e-08
1.92102e-09
-3.6556e-08
-2.06758e-08
5.57663e-08
4.48257e-08
6.2059e-08
5.91389e-08
4.89728e-08
5.56516e-08
3.54007e-08
-8.8917e-09
-1.11972e-08
-2.84573e-09
2.63943e-09
1.98649e-08
-6.69785e-11
1.96221e-11
-2.46729e-08
1.10297e-11
-2.46715e-08
1.00619e-21
4.56699e-19
4.06755e-20
7.59288e-20
3.45621e-18
-2.3829e-17
1.93623e-17
-8.32086e-19
-9.56197e-19
-1.81204e-18
-9.49144e-19
4.49978e-25
7.96186e-23
7.15238e-25
4.92386e-28
1.28229e-26
-1.63852e-27
5.53053e-29
-1.8318e-28
-4.30971e-31
3.46948e-32
-5.37146e-31
-5.09867e-34
7.0889e-37
-1.12233e-34
-9.89762e-37
1.94636e-40
-1.67057e-38
-5.81676e-41
8.23151e-44
-4.06239e-42
-1.04407e-43
3.52431e-47
-1.16564e-45
4.3806e-46
1.50695e-50
-2.33163e-49
1.26544e-49
6.43003e-54
-6.13614e-53
-3.4127e-52
2.738e-57
-2.20575e-56
-4.20527e-56
1.1625e-60
-3.92717e-60
-1.24827e-58
4.92579e-64
-1.6008e-63
-5.10273e-62
2.08343e-67
2.94424e-67
-1.31898e-65
8.79126e-71
-5.1245e-71
-1.32052e-68
3.77891e-74
1.76071e-74
-4.42587e-72
1.65668e-77
7.48366e-78
-2.83099e-74
6.67152e-81
4.35386e-81
8.55162e-79
2.78517e-84
-8.83511e-85
3.0017e-82
1.16611e-87
-3.10146e-88
-2.23551e-84
4.89122e-91
-1.14086e-90
-4.94805e-88
3.14643e-94
-2.5031e-94
8.55235e-91
7.19355e-97
-2.83492e-99
-3.73917e-93
8.53064e-101
-5.03283e-101
-2.34031e-98
2.79212e-104
-2.72441e-103
1.14365e-100
1.70351e-107
-4.06157e-107
-2.25589e-104
2.88304e-110
-8.45366e-111
-7.2092e-106
5.81408e-114
-6.31048e-114
2.18742e-109
3.32353e-117
-2.65532e-116
1.40615e-113
8.29061e-121
-9.46958e-121
1.20265e-116
6.32143e-124
-1.52245e-123
1.2906e-123
1.73161e-126
1.01768e-127
-2.02857e-122
1.55939e-129
-5.72407e-130
1.86778e-125
1.99661e-132
6.29844e-134
-2.59177e-128
2.99582e-136
-1.55948e-136
5.00155e-132
9.16665e-140
-6.0199e-140
6.79661e-137
3.62239e-143
2.0359e-144
-3.28645e-139
3.75014e-146
-2.40936e-146
-4.9845e-144
1.7002e-148
-1.14902e-148
-9.49093e-145
2.06434e-151
-2.04358e-151
-2.31576e-147
6.95009e-154
-6.21039e-155
-4.68389e-150
-9.2634e-158
4.12007e-155
2.03316e-08
-2.30889e-08
4.25378e-08
1.80506e-07
4.0868e-08
4.61298e-08
3.77765e-08
-3.78394e-08
6.33593e-08
3.55202e-08
3.65161e-08
2.17713e-08
-4.81246e-08
6.42116e-08
5.91403e-08
-6.28729e-09
-2.82153e-08
-8.45753e-08
4.49995e-08
5.82883e-08
-5.32337e-09
2.42641e-09
-1.56862e-09
4.38468e-09
-1.62404e-09
-5.89399e-09
2.42323e-11
1.19415e-13
1.79728e-08
3.49704e-13
1.7973e-08
-5.74258e-23
1.87805e-21
-7.68584e-20
-4.02154e-19
6.68593e-19
2.70538e-19
-5.68819e-26
-1.06669e-25
3.97907e-27
-5.49073e-30
1.30694e-28
-7.57518e-31
1.00439e-31
-6.47887e-33
5.18492e-36
1.11553e-35
1.25883e-39
1.68921e-38
5.16793e-43
4.96655e-42
2.19158e-46
2.77351e-45
9.29448e-50
2.88042e-49
3.94583e-53
1.27575e-51
1.67846e-56
2.61265e-54
7.14226e-60
-3.07984e-57
3.01457e-63
-2.44778e-60
1.27474e-66
1.88587e-63
5.38048e-70
5.02912e-68
2.29353e-73
1.18357e-71
9.82796e-77
-1.24172e-73
4.0859e-80
-1.90001e-76
1.73223e-83
2.0125e-80
1.00991e-86
-2.71524e-83
1.16035e-89
-4.07589e-86
2.23173e-93
-1.51976e-89
1.24683e-96
-3.96889e-94
2.46722e-99
-1.8387e-95
8.66148e-103
-5.56798e-99
3.36069e-106
-4.0406e-102
1.17647e-109
6.8609e-106
1.01315e-112
4.91061e-108
1.86245e-115
-1.88371e-110
7.01958e-119
3.23529e-115
2.54299e-121
-1.67933e-117
1.72209e-125
-1.2469e-122
5.98363e-129
-1.59944e-124
6.17979e-132
4.37763e-128
1.66531e-134
2.09212e-130
2.74937e-138
-6.04033e-134
3.13566e-141
-1.54241e-137
3.15116e-144
-4.16046e-140
1.21574e-147
4.93133e-143
5.84527e-151
-6.94457e-147
1.02952e-154
2.45753e-149
3.49722e-153
2.19148e-09
-9.2658e-10
-2.39786e-07
2.4507e-08
-1.77945e-08
2.34932e-08
-8.39447e-08
-4.38982e-08
3.98299e-08
1.85737e-07
2.07276e-07
2.57642e-08
2.18005e-08
-1.77143e-08
9.73909e-08
9.36668e-08
-6.52878e-08
2.79254e-07
-3.1194e-07
1.79652e-10
3.5069e-08
-5.9117e-10
3.78581e-08
-2.11149e-08
8.91136e-10
-6.27238e-11
-1.13646e-09
2.23224e-08
-4.74415e-12
-9.74214e-14
1.93955e-14
4.82284e-08
4.82265e-08
1.36862e-22
-5.59107e-20
-3.66849e-21
-9.64782e-20
5.97245e-19
-1.02016e-18
4.0885e-19
1.57961e-25
-1.39432e-23
1.07212e-25
3.0831e-26
-1.61841e-26
3.22732e-30
1.0643e-27
-4.06319e-28
3.164e-31
3.46141e-30
-1.57755e-30
-4.9066e-33
1.0785e-33
-8.4407e-34
1.51259e-35
1.85711e-37
-1.80165e-37
6.36268e-38
1.16118e-40
-5.09445e-41
5.08119e-42
8.78775e-44
2.76727e-44
2.47627e-44
6.36487e-47
1.66165e-49
1.15107e-48
4.55643e-50
8.27921e-51
-1.35418e-50
3.26111e-53
-1.43408e-53
1.53166e-55
2.33313e-56
5.242e-57
-7.66891e-58
1.66653e-59
1.44958e-60
2.80909e-60
1.18748e-62
2.13941e-63
-3.49974e-64
8.45121e-66
-1.3767e-66
5.90863e-67
6.00301e-69
-1.99345e-70
2.11823e-70
4.25499e-72
-3.26134e-73
1.13614e-73
3.0105e-75
-2.36606e-76
4.51174e-77
2.12528e-78
4.39711e-79
4.85535e-81
1.49715e-81
-2.41188e-83
-2.00679e-83
1.05197e-84
2.79045e-86
1.98232e-86
7.37585e-88
-2.618e-90
-4.73451e-89
5.15842e-91
2.69451e-91
6.42569e-94
3.60112e-94
1.46455e-94
1.07913e-96
2.50926e-97
-3.51855e-98
-1.62698e-98
1.74495e-100
1.43754e-101
-2.17403e-101
1.21076e-103
4.16981e-105
8.0552e-105
8.37713e-107
6.87389e-108
1.55344e-107
5.77978e-110
2.44719e-111
8.10778e-111
3.98122e-113
-2.36253e-115
-3.51543e-115
2.73612e-116
2.41463e-117
-5.26731e-123
1.8761e-119
-1.56402e-121
1.22142e-120
1.28393e-122
2.20403e-124
-2.2352e-124
8.76341e-126
-1.09762e-127
2.00601e-127
5.96832e-129
6.60065e-130
9.9333e-130
4.05216e-132
2.1716e-132
-1.36926e-138
2.7445e-135
-1.65365e-137
1.14278e-136
1.85456e-138
-7.64291e-140
2.41361e-139
1.25164e-141
-3.26379e-143
3.1101e-143
8.42264e-145
-1.59195e-147
3.23647e-146
5.58068e-148
-1.95132e-151
-2.69012e-150
6.58244e-152
4.8654e-152
5.03434e-09
1.06573e-08
5.72895e-08
1.22228e-08
1.82193e-08
2.05016e-07
1.69043e-08
2.07161e-08
2.00959e-08
1.36984e-08
1.41179e-08
6.74795e-09
4.55381e-09
2.66103e-07
5.26846e-07
2.00897e-07
-8.99429e-10
-1.34654e-08
2.46661e-08
8.68003e-08
7.26855e-09
-1.56107e-08
-2.34104e-07
-2.12059e-07
1.55114e-07
-1.975e-07
-3.67194e-09
6.26095e-09
-3.26171e-09
4.56509e-09
-3.8661e-08
6.82362e-09
3.7241e-09
9.17514e-09
4.46479e-10
2.51642e-09
-2.30318e-08
1.61021e-11
-1.64028e-13
1.00167e-13
-1.12467e-13
1.30774e-13
1.20146e-15
8.23718e-21
-6.70869e-18
-1.57792e-20
6.77763e-19
5.17106e-18
-2.14069e-20
5.58104e-18
-5.29878e-18
-5.82613e-18
-5.2964e-18
-9.54453e-25
-4.98817e-22
1.32873e-25
-2.19041e-27
-9.83707e-25
1.09987e-28
1.09063e-28
-1.23935e-26
6.1515e-31
9.31401e-32
-3.87578e-30
1.27931e-33
1.73609e-35
-1.83947e-34
1.21183e-36
6.55316e-39
-7.91614e-38
3.26305e-41
4.86037e-42
-3.66438e-41
2.16642e-43
3.64959e-45
-1.10545e-44
6.72577e-46
2.65128e-48
-8.92365e-48
-6.03583e-50
1.91465e-51
-4.21221e-51
-6.51905e-52
1.38203e-54
-1.08959e-54
-3.81363e-55
9.96706e-58
-3.90007e-58
-2.06184e-59
7.17515e-61
9.11282e-62
8.16863e-62
5.15397e-64
-1.29816e-64
4.0367e-65
3.69918e-67
-3.14948e-67
-7.48319e-68
2.64978e-70
-5.70658e-71
-7.67039e-71
1.89189e-73
8.7952e-75
4.13779e-76
1.3493e-76
1.89054e-77
-2.13853e-77
9.60216e-80
-1.68086e-81
2.78596e-80
6.81417e-83
-1.70828e-83
-1.00939e-84
4.82463e-86
1.00481e-86
3.05795e-87
3.40785e-89
-5.61752e-91
-3.507e-91
2.40511e-92
1.08015e-93
2.18502e-93
1.69282e-95
1.01875e-96
2.28071e-96
1.18889e-98
-6.56811e-99
1.40263e-99
8.33253e-102
-5.72081e-102
8.81813e-102
5.8247e-105
1.38025e-105
2.79426e-106
4.06183e-108
-6.05989e-110
5.89124e-109
2.82581e-111
5.56377e-114
2.46243e-112
1.96134e-114
3.44725e-116
2.81276e-116
1.35783e-117
-2.55283e-118
1.38587e-118
9.37132e-121
7.78626e-122
9.60976e-124
6.45782e-124
-2.17405e-124
8.30924e-125
4.43783e-127
-1.30495e-127
1.051e-127
3.04237e-130
-2.58268e-131
7.0589e-132
2.08421e-133
-3.61823e-135
7.57082e-134
1.42288e-136
-3.34178e-138
-1.97704e-137
9.68799e-140
5.32625e-142
-3.27663e-141
6.58073e-143
1.13068e-143
1.94898e-143
4.45911e-146
5.20659e-147
1.06264e-147
2.96673e-149
1.60409e-150
5.29971e-151
6.19216e-154
1.29495e-157
-1.43133e-09
1.04072e-08
-6.17348e-09
3.47056e-08
-1.32683e-08
2.45827e-07
3.31355e-08
2.86777e-08
2.9756e-08
-1.35745e-08
-1.39171e-08
-1.34154e-08
1.24023e-08
3.99745e-07
5.05782e-07
3.68304e-08
5.8933e-09
-1.94956e-08
-1.97668e-08
2.03809e-09
-1.68207e-07
-7.73482e-08
-1.55167e-07
-2.01368e-07
-7.24916e-08
-1.2102e-07
2.17419e-08
-2.23615e-08
-2.43342e-08
1.35525e-07
6.36987e-09
1.16278e-08
1.11398e-08
1.14554e-08
1.14662e-08
3.16734e-08
-3.03259e-09
-1.89771e-08
4.98786e-09
6.79538e-09
-2.15186e-08
-1.79268e-11
9.04455e-11
7.50007e-12
-9.76846e-11
-5.40617e-11
4.59642e-11
7.24542e-18
-5.4954e-18
1.20425e-18
-4.70758e-18
6.41152e-19
9.71723e-18
8.61647e-18
3.22659e-17
1.62458e-23
-6.04062e-21
1.30831e-22
-5.28696e-20
-5.35569e-20
-5.5535e-20
-5.37145e-20
1.54685e-24
-1.90313e-24
1.51845e-26
2.54966e-26
5.62837e-27
-1.04489e-30
7.25316e-30
-4.50268e-31
7.14632e-32
6.39121e-34
-5.47205e-33
-1.66356e-36
4.12484e-37
-5.48908e-37
-2.97966e-39
3.11092e-40
-1.97035e-40
-6.20494e-42
2.23442e-43
-8.73563e-44
-2.53741e-45
1.59467e-46
-7.98532e-47
6.35448e-48
1.1363e-49
-1.63057e-50
5.75875e-51
8.07173e-53
1.91615e-53
-2.50056e-54
5.72516e-56
-1.90538e-56
4.50257e-58
4.05119e-59
6.65136e-60
-1.25412e-60
2.8605e-62
-8.63048e-63
-9.91833e-64
2.0154e-65
-4.39897e-66
2.426e-66
1.41569e-68
2.55925e-69
1.66222e-69
9.91721e-72
2.02195e-72
9.47467e-73
6.93684e-75
7.45708e-76
5.86525e-76
4.84065e-78
-3.82935e-80
2.89777e-79
3.36783e-81
2.34123e-81
-4.71998e-83
2.3413e-84
4.87392e-85
3.62281e-86
1.6249e-87
-3.68361e-88
-2.05946e-88
1.12478e-90
1.85572e-91
2.1792e-95
7.7776e-94
-1.50895e-95
5.63509e-99
5.35963e-97
1.46781e-97
6.46613e-100
3.6809e-100
3.62426e-101
-8.09281e-102
2.52502e-103
3.60843e-104
1.97401e-104
1.72862e-106
-7.39868e-108
8.27578e-108
1.18028e-109
8.14042e-111
8.58361e-112
8.04579e-113
-2.54642e-114
2.17449e-114
5.47067e-116
1.04061e-116
1.07351e-117
3.7088e-119
6.50616e-120
-6.28576e-120
2.51023e-122
9.45557e-124
9.15495e-124
1.69535e-125
1.86876e-127
5.29114e-127
1.14327e-128
-6.80472e-129
7.72695e-131
7.69994e-132
-1.0007e-132
-6.09352e-134
5.1711e-135
2.99198e-135
-1.82626e-136
3.4635e-138
1.31746e-138
-5.92509e-140
2.31565e-141
4.53227e-142
4.25506e-142
1.54402e-144
2.72637e-145
4.03077e-146
1.0194e-147
3.85835e-149
-1.74226e-149
-2.83001e-151
4.61035e-152
-1.57978e-08
1.08143e-09
4.20436e-07
-1.24844e-08
-1.71734e-08
-1.28956e-08
-1.39074e-08
-1.65704e-08
-1.82679e-08
-3.0188e-08
-5.80455e-07
-4.77433e-08
-4.47341e-08
1.03021e-07
-4.21062e-07
-2.11579e-08
7.47255e-09
4.1457e-08
5.61356e-08
1.05275e-07
1.06937e-07
-2.39044e-07
1.40385e-08
-1.36559e-08
8.57833e-09
-2.4373e-08
-1.72432e-08
-5.03389e-08
4.10275e-09
-1.62239e-08
7.74634e-09
1.14926e-09
5.66577e-08
-4.39975e-10
6.4717e-11
-3.54244e-10
5.49243e-10
-8.03613e-11
3.66354e-10
-4.4739e-16
-9.67992e-18
-8.88842e-16
-1.23826e-17
-5.45635e-18
1.9747e-15
-4.93061e-16
2.01765e-15
4.88533e-17
-2.68498e-23
-1.24238e-20
1.55055e-22
1.73015e-18
1.8443e-18
1.71909e-18
1.81863e-18
1.79665e-25
-2.76251e-24
-2.36275e-26
2.31397e-26
7.22663e-27
-1.92167e-30
2.75329e-28
-6.42333e-28
1.88066e-31
7.55643e-32
-3.4215e-30
-8.83195e-34
8.00875e-36
-1.01944e-33
-1.53346e-37
5.19257e-39
-2.74097e-37
-2.00704e-41
3.90755e-42
-1.22529e-40
-5.5652e-44
2.80872e-45
-5.27315e-44
1.03392e-46
2.00292e-48
-2.56911e-47
-9.12897e-51
1.42711e-51
-1.0852e-50
7.16334e-53
1.01506e-54
-1.46954e-54
-1.08578e-55
7.20387e-58
-1.32185e-57
-2.0144e-59
5.09851e-61
-8.09177e-61
-1.57455e-62
3.60134e-64
-9.70015e-64
3.90577e-65
2.53796e-67
-3.06437e-67
2.29429e-68
1.78407e-70
1.05568e-71