/*--------------------------------*- C++ -*----------------------------------*\
| =========                 |                                                 |
| \\      /  F ield         | OpenFOAM: The Open Source CFD Toolbox           |
|  \\    /   O peration     | Version:  5.0                                   |
|   \\  /    A nd           | Web:      www.OpenFOAM.org                      |
|    \\/     M anipulation  |                                                 |
\*---------------------------------------------------------------------------*/
FoamFile
{
    version     2.0;
    format      ascii;
    class       volScalarField;
    location    "2.7";
    object      p;
}
// * * * * * * * * * * * * * * * * * * * * * * * * * * * * * * * * * * * * * //

dimensions      [1 -1 -2 0 0 0 0];

internalField   nonuniform List<scalar> 
7562
(
104.231
103.501
104.546
104.155
92.8509
105.978
100.693
96.113
93.4319
90.7923
88.185
85.5975
83.0285
80.4991
77.9871
75.5004
73.0273
70.5882
68.1711
65.7792
63.3946
61.0302
58.6965
56.3536
54.0352
51.7378
49.4452
47.1501
44.8747
42.6241
40.3697
38.1402
35.9401
33.7327
31.5162
29.3331
27.2034
25.108
23.02
20.9286
18.8643
16.8441
14.8259
12.7826
10.7677
8.79993
6.83489
4.86312
2.91331
0.973799
105.13
104.918
103.923
105.539
103.05
103.352
100.278
95.6491
93.1148
90.5992
88.0669
85.5241
83.0048
80.4822
77.9686
75.4928
73.0188
70.5959
68.1889
65.7813
63.3991
61.0333
58.688
56.3542
54.0265
51.7229
49.4339
47.1523
44.8834
42.6283
40.386
38.1554
35.938
33.7247
31.5188
29.3399
27.1991
25.0933
23.0058
20.9288
18.8711
16.8502
14.8337
12.8026
10.7751
8.78993
6.82155
4.86062
2.91362
0.973415
106.878
106.562
99.8701
100.511
102.39
99.2765
98.7257
95.6351
92.6783
90.4095
87.9651
85.4571
82.9522
80.4592
77.9615
75.4766
73.0311
70.6221
68.2105
65.7817
63.4008
61.0351
58.678
56.348
54.0274
51.7166
49.4241
47.1584
44.892
42.6283
40.39
38.1543
35.9179
33.7126
31.5286
29.3545
27.1978
25.0834
23.0016
20.932
18.8804
16.8477
14.8209
12.8014
10.7856
8.78801
6.81797
4.8621
2.91669
0.973445
107.884
106.219
108.885
108.679
144.37
102.192
97.788
95.4702
92.6639
90.4359
87.9755
85.4934
82.9618
80.456
77.9654
75.4842
73.0315
70.6111
68.1867
65.7847
63.4126
61.0362
58.6844
56.3521
54.0419
51.7292
49.4234
47.1644
44.8881
42.6204
40.3908
38.1503
35.9126
33.7074
31.536
29.3713
27.2044
25.0794
23.0016
20.9383
18.8857
16.8393
14.8024
12.7944
10.7938
8.79075
6.81721
4.86949
2.923
0.968709
107.234
108.083
101.189
113.408
101.416
99.0706
99.1585
95.941
93.0237
90.6257
88.0837
85.5388
83.0034
80.4779
77.9874
75.5012
73.0507
70.6081
68.169
65.7852
63.4171
61.0359
58.6891
56.3555
54.0499
51.7436
49.4334
47.1601
44.8761
42.6163
40.385
38.1404
35.9091
33.7062
31.5374
29.3803
27.2146
25.0832
23.005
20.9452
18.884
16.8218
14.7831
12.7811
10.7895
8.79193
6.82564
4.88328
2.93147
0.966643
107.755
107.474
112.55
105.701
101.304
100.419
100.693
97.3615
93.4738
90.8926
88.2389
85.6304
83.0622
80.5193
78.0225
75.5274
73.0688
70.6166
68.1695
65.7857
63.4228
61.0362
58.6912
56.366
54.0545
51.757
49.4435
47.1532
44.8665
42.5978
40.3739
38.1329
35.9011
33.7078
31.5401
29.3821
27.2249
25.0942
23.0079
20.9456
18.8757
16.8029
14.7683
12.772
10.7848
8.79636
6.84109
4.90816
2.94232
0.969929
103.991
104.54
125.065
112.628
104.963
103.824
102.716
97.645
93.7863
91.0787
88.3678
85.7157
83.1297
80.5641
78.0377
75.5373
73.0748
70.6289
68.1748
65.7708
63.3947
61.0311
58.6887
56.3738
54.061
51.7549
49.4495
47.15
44.8688
42.6143
40.3732
38.1222
35.8946
33.7141
31.5435
29.3766
27.2299
25.1059
23.0089
20.9374
18.8693
16.8031
14.766
12.7694
10.7803
8.79798
6.84754
4.90751
2.9461
0.9784
103.307
102.686
100.349
104.51
105.411
105.118
103.337
98.045
93.9118
91.1627
88.4162
85.7483
83.1506
80.5761
78.024
75.5444
73.0689
70.6197
68.1908
65.7655
63.3914
61.0273
58.6871
56.375
54.0602
51.7594
49.4504
47.1473
44.8788
42.6187
40.369
38.1192
35.8982
33.7204
31.5414
29.3659
27.2291
25.1188
23.0148
20.9301
18.8639
16.8083
14.7788
12.7739
10.7793
8.80021
6.8462
4.89668
2.94426
0.982761
104.111
102.936
101.843
106.436
103.52
106.057
103.347
96.8822
93.9237
91.1325
88.4078
85.7478
83.1402
80.5666
78.0309
75.5401
73.0464
70.5999
68.1788
65.772
63.3847
61.0206
58.6915
56.3701
54.0617
51.7581
49.4476
47.1455
44.8726
42.6181
40.3567
38.1197
35.9182
33.7255
31.5342
29.3548
27.2256
25.1223
23.0189
20.9293
18.8615
16.8189
14.7944
12.7738
10.7747
8.80114
6.83838
4.88547
2.93361
0.98348
103.883
103.938
102.428
103.166
108.426
101.956
101.158
96.5229
93.7286
90.9853
88.3162
85.6781
83.0769
80.5381
78.0111
75.5152
73.0369
70.5939
68.1716
65.7757
63.3869
61.0235
58.6952
56.3593
54.0503
51.7533
49.447
47.1475
44.8706
42.62
40.3604
38.1269
35.9339
33.7329
31.5222
29.3402
27.213
25.117
23.0214
20.9281
18.8626
16.8338
14.8125
12.7761
10.7685
8.80366
6.83939
4.87307
2.91829
0.974309
104.372
102.585
102.926
103.66
95.5117
106.089
100.675
96.1137
93.4319
90.7923
88.1851
85.5975
83.0283
80.4994
77.9871
75.4999
73.0272
70.5883
68.1712
65.7789
63.3945
61.0303
58.6965
56.3534
54.0352
51.7379
49.4451
47.1501
44.8745
42.6239
40.3696
38.1402
35.9401
33.7326
31.5162
29.3331
27.2033
25.108
23.02
20.9286
18.8642
16.8442
14.826
12.7827
10.7677
8.79992
6.8348
4.8631
2.91327
0.973885
105.087
104.862
104
108.095
103.432
103.276
100.251
95.6493
93.1147
90.5992
88.0669
85.5241
83.0047
80.4821
77.9686
75.4927
73.0188
70.5961
68.1888
65.7812
63.3992
61.0334
58.6876
56.3541
54.0267
51.7229
49.4338
47.1523
44.8834
42.6284
40.3865
38.1555
35.938
33.7246
31.5188
29.3398
27.199
25.0933
23.0058
20.9289
18.8711
16.8503
14.8337
12.8024
10.7752
8.78992
6.82147
4.8606
2.91381
0.973366
106.247
106.262
100.287
100.928
101.172
99.3882
98.7755
95.6344
92.6797
90.4093
87.9651
85.4571
82.9521
80.4592
77.9615
75.4766
73.0311
70.6219
68.2106
65.7816
63.4006
61.0351
58.6779
56.348
54.0274
51.7166
49.4241
47.1584
44.8921
42.6284
40.3898
38.1542
35.918
33.7126
31.5287
29.3545
27.1977
25.0834
23.0016
20.9319
18.8805
16.8478
14.8209
12.8013
10.7856
8.78786
6.81794
4.86217
2.91671
0.973426
106.745
106.201
110.094
112.361
111.277
96.4359
97.7894
95.4683
92.6644
90.4354
87.9755
85.4933
82.9618
80.456
77.9653
75.4841
73.0314
70.611
68.1867
65.7846
63.413
61.0362
58.6844
56.3522
54.0418
51.729
49.4236
47.1645
44.8882
42.6203
40.3906
38.1502
35.9126
33.7073
31.5361
29.3713
27.2043
25.0794
23.0016
20.9383
18.8857
16.8393
14.8023
12.7945
10.7938
8.79073
6.8171
4.8695
2.92298
0.968585
107.463
106.658
100.371
115.935
105.359
99.0859
99.1456
95.9319
93.0239
90.6257
88.0837
85.5388
83.0029
80.4779
77.9875
75.5013
73.0507
70.6081
68.169
65.7853
63.4172
61.0358
58.6888
56.3556
54.0497
51.7436
49.4335
47.1601
44.8756
42.6162
40.3849
38.1404
35.909
33.7062
31.5374
29.3803
27.2146
25.0831
23.005
20.9452
18.884
16.8217
14.7831
12.7811
10.7894
8.79191
6.82559
4.88318
2.93146
0.966689
106.388
107.124
109.697
106.863
102.429
100.475
100.676
97.3425
93.4741
90.8926
88.2388
85.6302
83.0624
80.5192
78.0225
75.5273
73.0687
70.6167
68.1694
65.7857
63.423
61.0361
58.6911
56.3661
54.0545
51.7571
49.4434
47.1531
44.8665
42.5979
40.3739
38.1324
35.901
33.7078
31.5401
29.3821
27.2249
25.0942
23.0079
20.9457
18.8757
16.8029
14.7683
12.7721
10.7846
8.79634
6.84106
4.90817
2.94204
0.969904
104.345
103.962
116.508
105.203
104.717
103.705
102.682
97.6339
93.787
91.0785
88.3678
85.7156
83.1296
80.5641
78.0377
75.5373
73.0748
70.6288
68.1748
65.7708
63.3948
61.0311
58.6888
56.3738
54.0609
51.7549
49.4495
47.1501
44.8689
42.6142
40.3736
38.122
35.8945
33.7141
31.5435
29.3765
27.2298
25.1058
23.0089
20.9375
18.8692
16.8029
14.766
12.7694
10.7802
8.79797
6.84783
4.90757
2.946
0.978502
103.472
103.398
100.704
104.118
106.118
104.679
103.304
98.0418
93.9125
91.1626
88.4162
85.7482
83.1506
80.5761
78.0241
75.5444
73.0692
70.6195
68.191
65.7655
63.3914
61.0274
58.6872
56.3749
54.0601
51.7594
49.4508
47.147
44.8786
42.6187
40.3689
38.1192
35.8983
33.7204
31.5414
29.3659
27.2291
25.1188
23.0148
20.9301
18.8636
16.8084
14.7788
12.7739
10.7792
8.80019
6.8462
4.89666
2.94433
0.982769
103.38
103.239
102.629
105.751
103.271
106.285
103.373
96.8829
93.9239
91.1325
88.4077
85.7478
83.1402
80.5666
78.0308
75.5403
73.0465
70.5998
68.1788
65.7721
63.3847
61.0206
58.6916
56.3701
54.0617
51.7581
49.4475
47.1455
44.8726
42.6182
40.3567
38.1196
35.9186
33.7254
31.5341
29.3549
27.2256
25.1222
23.0188
20.9292
18.8615
16.8189
14.7944
12.7736
10.7747
8.8011
6.83835
4.88544
2.93368
0.983484
103.86
104.104
102.499
103.173
108.528
105.616
101.085
96.5235
93.7286
90.9853
88.3163
85.6781
83.0767
80.5384
78.0111
75.5154
73.0369
70.5936
68.1717
65.7756
63.3868
61.0234
58.6952
56.3593
54.0504
51.7533
49.4469
47.1475
44.8706
42.62
40.3602
38.1269
35.934
33.7328
31.5222
29.3403
27.213
25.117
23.0214
20.928
18.8626
16.8337
14.8124
12.776
10.7684
8.80368
6.83916
4.87305
2.91834
0.974292
104.139
104.246
110.145
107.067
96.8484
106.073
100.683
96.1134
93.4318
90.7922
88.1851
85.5975
83.0281
80.4997
77.987
75.4997
73.0272
70.5883
68.1713
65.7787
63.3944
61.0304
58.6964
56.3532
54.0353
51.7379
49.4449
47.1501
44.8743
42.6236
40.3697
38.1402
35.9401
33.7325
31.516
29.333
27.2032
25.1081
23.0199
20.9284
18.864
16.8442
14.8261
12.7828
10.7677
8.79984
6.83466
4.86302
2.91317
0.973888
105.153
106.463
104.849
105.063
104.477
103.281
100.249
95.6486
93.1147
90.5992
88.0668
85.524
83.0047
80.482
77.9685
75.4919
73.0187
70.5961
68.1886
65.781
63.3992
61.0334
58.6873
56.354
54.0267
51.7228
49.4336
47.1522
44.8835
42.6288
40.3865
38.1554
35.9379
33.7239
31.5187
29.3397
27.1989
25.0937
23.0056
20.9288
18.8711
16.8503
14.8334
12.8019
10.7752
8.78991
6.82131
4.86053
2.91387
0.973165
106.635
107.126
102.115
100.294
101.766
99.3227
98.7683
95.6358
92.6796
90.4094
87.965
85.4571
82.952
80.4591
77.9614
75.4765
73.031
70.6217
68.2105
65.7815
63.4004
61.035
58.6778
56.3485
54.0273
51.7165
49.4241
47.1583
44.8921
42.6284
40.3897
38.1538
35.918
33.7127
31.5287
29.3545
27.1975
25.0833
23.0015
20.9317
18.8805
16.8479
14.8209
12.8011
10.7856
8.78774
6.81785
4.86216
2.91667
0.9733
108.196
105.981
106.921
105.702
105.825
93.7169
97.7888
95.4706
92.6638
90.4352
87.9754
85.4932
82.9617
80.4559
77.9653
75.484
73.0313
70.6108
68.1866
65.7845
63.4131
61.0361
58.6844
56.3527
54.0418
51.7288
49.4237
47.1644
44.8881
42.6202
40.3905
38.1502
35.9125
33.7073
31.5361
29.3712
27.2042
25.0794
23.0017
20.9382
18.8856
16.8391
14.8021
12.7945
10.7938
8.79065
6.817
4.86948
2.9229
0.96825
109.619
106.841
217.691
110.581
115.059
99.2063
99.1374
95.935
93.0232
90.626
88.0836
85.5388
83.0027
80.4778
77.9876
75.5013
73.0506
70.608
68.1689
65.7854
63.4172
61.0357
58.6884
56.3557
54.0494
51.7436
49.4336
47.16
44.8754
42.6162
40.3847
38.1403
35.9088
33.7061
31.5374
29.3802
27.2145
25.0831
23.0049
20.9451
18.8839
16.8217
14.7832
12.781
10.7894
8.79184
6.82575
4.88306
2.93124
0.966597
106.789
110.309
109.753
106.694
108.141
101.967
100.657
97.3457
93.4733
90.8928
88.2386
85.63
83.0625
80.5192
78.0224
75.5273
73.0686
70.6167
68.1692
65.7855
63.4231
61.036
58.691
56.3661
54.0546
51.757
49.4433
47.1529
44.8664
42.5985
40.3742
38.1322
35.9008
33.7077
31.54
29.382
27.2248
25.0941
23.0078
20.9457
18.8754
16.8029
14.7683
12.772
10.7844
8.79626
6.84105
4.90818
2.94161
0.969873
104.122
103.318
107.638
103.646
103.907
103.526
102.635
97.6367
93.7863
91.0785
88.3677
85.7155
83.1295
80.564
78.0376
75.5372
73.0747
70.6286
68.1747
65.7708
63.395
61.031
58.6887
56.3737
54.0607
51.7548
49.4493
47.1503
44.8693
42.6143
40.3734
38.1219
35.8945
33.714
31.5434
29.3763
27.2298
25.1058
23.0088
20.9374
18.8692
16.8025
14.7659
12.7693
10.78
8.79789
6.84788
4.90733
2.94574
0.978641
105.183
103.057
102.102
102.929
105.591
104.738
103.324
98.0419
93.9121
91.1626
88.416
85.7481
83.1505
80.576
78.0241
75.5443
73.0694
70.6192
68.1911
65.7654
63.3913
61.0274
58.6874
56.3749
54.0601
51.7594
49.4507
47.1469
44.8786
42.6187
40.3688
38.1192
35.8982
33.7203
31.5413
29.366
27.229
25.1187
23.0147
20.9301
18.8635
16.8084
14.7788
12.7738
10.7791
8.80012
6.84614
4.89661
2.94429
0.982792
103.356
103.409
101.389
105.369
105.35
107.477
103.371
96.8823
93.9239
91.1324
88.4076
85.7477
83.1401
80.5665
78.0308
75.5404
73.0466
70.5995
68.1788
65.7721
63.3846
61.0206
58.6915
56.37
54.0615
51.7581
49.4473
47.1454
44.8729
42.6183
40.3566
38.1195
35.9189
33.7254
31.534
29.3548
27.2255
25.122
23.0187
20.9292
18.8616
16.8191
14.7943
12.7734
10.7746
8.80102
6.83824
4.88537
2.93385
0.983388
103.751
104.295
102.367
102.866
109.859
103.557
101.088
96.5232
93.7285
90.9852
88.3163
85.678
83.0764
80.5383
78.011
75.5157
73.0368
70.5928
68.1718
65.7755
63.3864
61.0233
58.6951
56.3592
54.0504
51.7532
49.4468
47.1475
44.8708
42.6199
40.3601
38.1272
35.9344
33.7327
31.5221
29.3404
27.213
25.1169
23.0214
20.928
18.8626
16.8337
14.8124
12.7759
10.7684
8.80362
6.83899
4.87297
2.91836
0.974223
102.262
104.74
101.851
106.039
102.124
104.947
101.705
101.512
100.997
99.839
103.439
101.45
100.963
99.8385
99.1415
95.5058
97.4234
99.2652
99.1472
94.7852
97.3906
97.3688
98.3573
98.5096
95.9528
97.3242
98.2903
98.5309
98.97
101.199
100.117
99.087
99.0076
101.147
100.082
100.671
103.478
102.221
102.418
100.681
103.214
102.224
102.834
104.463
103.601
103.727
103.095
104.519
103.567
103.752
105.844
103.749
104.702
103.795
105.422
103.755
103.856
100.854
102.021
106.034
103.86
101.75
102.053
102.874
110.044
102.093
104.647
102.888
106.391
101.881
102.134
105.766
101.699
106.097
102.173
104.454
101.645
101.443
100.815
99.842
103.315
101.435
100.585
99.8334
99.1446
98.6387
97.475
99.2935
99.1388
97.5423
97.3662
97.337
98.221
98.4192
94.5285
97.3455
98.1134
98.5331
98.9463
101.243
100.178
99.2015
98.9928
100.046
100.082
100.673
103.293
102.311
101.457
100.675
103.568
102.204
103.022
104.396
103.551
103.692
102.782
104.441
103.565
103.708
107.094
103.754
104.742
103.757
104.484
103.756
103.858
101.582
102.066
107.532
103.862
101.539
102.076
102.89
104.921
101.857
103.534
102.863
104.057
101.799
102.169
104.462
101.623
109.522
102.311
105.243
101.804
101.437
100.708
99.8267
101.144
101.504
100.689
99.8304
99.1374
94.8857
97.498
99.3738
99.1304
92.8346
97.4232
97.3566
98.0765
98.3932
93.3611
97.3411
98.0188
98.4669
99.0106
99.2783
100.088
99.0174
98.96
99.1548
100.087
100.676
103.358
102.269
101.243
100.693
103.449
102.218
102.742
104.717
103.553
103.417
102.627
104.571
103.556
103.766
104.422
103.756
104.765
103.731
105.072
103.75
103.866
102.143
102.076
107.837
103.864
100.065
102.044
102.873
104.113
101.885
103.166
102.868
103.608
101.993
89.0969
103.09
103.592
92.3693
90.2655
103.283
103.18
101.271
103.604
105.205
105.953
105.21
101.274
103.613
98.4212
100.311
98.1854
100.678
98.4306
100.287
98.1947
104.495
101.116
102.973
102.981
104.569
100.857
102.189
102.01
102.062
102.391
103.271
102.011
102.491
102.171
97.8745
99.4077
97.4613
100.255
97.8835
99.3192
97.4697
100.038
194.459
96.5162
104.967
98.8214
185.877
91.74
98.1466
99.2095
99.3449
99.2758
99.2436
98.0285
98.3295
96.8354
97.7735
96.1261
98.7722
96.8435
97.7436
96.1282
122.661
103.495
107.008
138.347
114.218
101.929
102.537
97.8957
97.0162
118.946
105.356
96.6626
115.486
98.7831
96.166
98.9516
96.9238
97.7942
96.1651
98.839
96.8113
99.2231
104.345
99.6133
105.003
99.2236
103.074
99.5445
99.2591
98.8166
98.8294
99.0612
98.8081
98.804
99.2611
97.4413
100.19
98.7679
99.2103
97.3502
100.136
98.6449
113.446
102.743
109.361
102.193
109.396
108.057
104.832
100.926
101.015
101.402
100.568
101.014
101.397
101.131
99.175
102.109
99.5865
100.742
99.0613
102.08
99.4852
106.03
107.034
104.82
105.512
104.405
106.557
105.07
103.695
103.254
104.596
103.735
103.253
104.416
103.716
99.5884
103.331
99.6723
102.676
99.4831
103.332
99.6759
107.611
108.74
106.955
105.921
105.721
107.53
105.362
104.618
104.327
108.125
104.95
104.326
106.575
104.382
99.6211
103.38
99.4283
103.31
99.6254
103.435
99.441
111.483
80.8025
101.107
103.483
112.163
95.4443
100.312
101.517
104.988
102.456
106.015
105.049
105.714
101.437
99.295
101.258
98.9063
103.369
99.3013
101.176
98.9152
110.657
108.949
104.56
108.142
120.555
103.977
106.902
103.642
103.794
112.14
101.986
103.902
105.714
103.718
98.7977
100.681
98.5831
101.091
98.8068
100.656
98.5923
90.1523
103.071
104.417
100.136
121.859
102.815
104.101
101.275
103.65
107.609
112.893
101.267
109.52
103.695
98.4301
100.284
98.194
100.68
98.43
100.292
98.1938
104.732
103.58
102.067
104.166
103.782
102.417
101.953
101.952
102.004
102.343
104.378
101.964
102.013
102.525
97.8823
99.3164
97.4685
100.249
97.8816
99.3108
97.4682
99.7461
111.184
93.1331
101.558
100.914
118.135
86.3684
98.0914
99.155
98.3719
99.3076
98.0972
99.1524
98.276
96.8423
97.7337
96.1245
98.7722
96.842
97.7247
96.1239
83.1957
98.2033
105.437
105.551
84.0214
101.333
94.764
97.1827
96.7361
91.1867
94.5269
97.0342
96.2649
91.3464
96.1659
98.8355
96.8071
97.7882
96.1669
98.8309
96.8041
99.3345
102.83
99.1738
95.2158
99.386
112.837
105.521
99.2687
98.7936
98.8107
99.3429
99.2614
98.7878
99.8535
97.3405
100.227
98.6338
99.1463
97.3392
100.182
98.6387
111.216
104.37
103.289
107.799
99.117
104.413
102.484
101.098
100.994
101.058
100.566
101.084
100.994
101.051
99.0616
102.126
99.4768
100.654
99.0587
102.136
99.4743
104.388
106.647
105.035
104.379
104.31
106.851
105.037
103.709
103.268
104.362
103.709
103.698
103.267
104.375
99.4726
103.332
99.673
102.626
99.4718
103.332
99.6727
105.713
108.768
105.512
105.616
105.718
108.284
110.642
104.562
104.327
105.47
104.689
104.468
104.329
105.874
99.6206
103.438
99.4381
103.317
99.6212
103.433
99.4376
112.985
94.4103
100.785
102.622
114.471
117.078
100.273
101.708
105.275
104.116
106.624
101.579
105.323
105.168
99.2979
101.17
98.9134
103.374
99.2977
101.168
98.9132
113.975
105.737
105.174
109.393
117.597
101.001
103.627
103.562
103.688
107.118
108.283
103.738
103.605
107.597
98.8059
100.657
98.5917
101.084
98.8057
100.683
98.5918
120.553
101.942
104.462
94.4308
123.581
97.3447
110.919
101.481
103.912
102.445
106.273
101.405
102.779
103.939
98.4304
100.309
98.1943
100.694
98.4208
100.302
98.1847
101.819
100.117
101.953
104.518
102.027
101.022
103.533
101.728
101.966
104.371
110.892
102.256
102.321
104.761
97.8821
99.3089
97.4701
100.275
97.8725
99.4018
97.4624
100.002
117.937
86.1903
102.419
99.819
118.992
85.7943
98.062
99.1535
98.2436
99.3418
98.0584
99.202
98.3368
96.8435
97.737
96.1279
98.7189
96.8352
97.7527
96.1256
84.6244
99.7687
94.9784
105.252
86.159
99.6839
95.0857
96.2047
96.2126
100.913
93.589
96.2837
96.161
91.6571
96.1678
98.82
96.8126
97.7863
96.1681
98.8884
96.9118
99.4576
105.035
101.327
108.225
99.688
110.548
89.4771
99.2169
98.7745
98.7643
98.9875
99.2243
98.7599
98.6302
97.347
100.245
98.6531
99.1612
97.4434
100.211
98.7597
99.0152
104.236
103.449
104.767
99.1377
105.229
104.166
101.114
101
101.51
101.523
101.118
100.996
103.775
99.0677
102.181
99.4842
100.673
99.1806
102.175
99.584
104.237
106.929
105.075
104.097
104.513
106.873
105.32
103.679
103.233
104.252
103.571
103.745
103.261
104.202
99.4772
103.336
99.6744
102.598
99.587
103.332
99.6718
105.923
108.055
108.185
107.344
106.009
114.961
106.909
104.516
104.321
105.717
104.731
104.51
104.314
105.698
99.6255
103.428
99.4402
103.348
99.6212
103.385
99.4276
114.324
111.763
100.046
105.347
114.926
114.742
98.7257
102.51
105.374
104.524
111.771
102.074
105.404
104.51
99.301
101.172
98.9148
103.348
99.2947
101.259
98.9061
108.959
104.718
109.22
110.017
108.896
104.202
105.018
103.517
103.578
105.467
104.025
103.51
103.572
105.385
98.8063
100.689
98.5926
101.15
98.797
100.682
98.5834
100.87
103.031
100.726
102.17
100.674
100.871
103.063
103.036
105.594
103.249
104.6
105.487
103.276
103.027
102.302
102.398
102.019
101.738
102.113
101.993
102.437
101.264
106.178
103.629
105.256
105.294
101.268
103.62
100.861
102.12
103.088
100.604
100.628
100.869
103.079
103.03
104.579
105.505
103.231
105.486
103.241
103.035
102.342
101.709
102.193
102.017
102.135
102.005
102.401
101.365
101.62
101.299
101.483
101.633
101.307
101.353
100.861
101.605
100.259
101.014
101.589
100.241
100.87
100.407
100.245
99.8429
99.8266
100.27
99.8395
100.4
102.016
103.392
101.997
102.33
102.012
102.848
102.009
101.366
101.463
101.64
101.316
101.638
101.311
101.36
100.881
100.987
101.568
100.255
101.558
100.244
100.903
100.405
99.8293
100.284
99.8395
100.282
99.8483
100.401
98.3335
99.0616
98.5362
99.15
99.0871
98.5427
98.3161
96.2851
100.32
95.8913
94.5224
98.2992
95.8721
96.9498
97.3471
97.8634
96.7963
97.4024
97.8122
96.8058
97.5445
98.2476
99.2662
99.1803
98.3746
99.2682
98.0471
98.1309
98.2996
99.1492
99.0594
98.5398
99.0765
98.5481
98.2947
96.553
95.2772
100.204
95.8287
99.3705
95.8601
96.5358
97.3679
97.531
97.7917
96.784
97.8616
96.7983
97.3875
97.2349
96.6927
97.5535
97.3956
96.6586
97.5655
97.31
97.7564
100.264
98.3515
98.3466
100.207
98.2793
97.914
97.7813
98.047
98.2672
98.5859
98.036
98.2185
97.8907
100.437
107.711
96.1243
120.936
96.6419
117.295
97.2486
97.3917
97.3393
96.6408
97.5587
96.705
97.5709
96.9782
97.8631
98.2866
102.498
98.2806
101.187
98.2793
97.8232
97.779
98.5244
98.0106
98.2324
98.0812
98.2155
97.7707
99.2475
98.8674
99.303
98.972
98.816
99.3018
99.42
99.5011
98.4066
100.301
101.166
98.3862
100.231
99.5079
99.5249
99.6482
100.145
100.113
99.6279
100.146
99.6104
99.2626
99.072
98.7988
98.7994
98.801
98.8027
99.2609
99.241
99.015
98.8243
99.2977
98.8127
99.3554
99.2453
99.5008
101.204
98.3084
100.237
98.3486
100.24
99.495
99.4865
100.213
99.6122
100.121
99.7698
100.178
99.5064
101.097
100.827
101.113
100.648
100.79
101.113
101.21
101.982
104.227
102.609
103.437
102.065
102.606
101.977
101.821
101.762
102.496
102.231
101.684
102.485
101.851
101.285
103.734
100.997
101.202
101.011
100.945
101.06
101.102
100.759
100.802
101.08
100.799
101.228
101.104
101.995
104.145
103.617
102.601
103.611
102.598
102.095
101.821
102.212
101.689
102.49
101.68
102.487
101.822
103.183
103.166
103.044
102.913
103.081
103.042
103.224
103.82
104.511
104.14
104.468
104.509
104.115
103.82
103.517
103.375
103.759
103.576
103.39
103.758
103.514
103.724
103.756
103.255
104.376
103.245
104.38
103.721
103.192
102.749
102.934
103.03
103.09
103.041
103.245
103.822
104.489
104.574
104.112
104.551
104.115
103.835
103.536
103.575
103.388
103.757
103.417
103.755
103.512
104.419
104.013
104.05
103.73
104.098
104.117
104.848
105.2
111.271
105.031
105.998
107.041
105.6
104.778
104.606
103.818
104.003
103.757
103.816
103.889
105.969
104.322
104.676
104.322
106.429
104.321
106.348
104.45
105.204
103.722
103.959
103.866
103.96
103.881
105.588
104.579
105.441
110.599
104.281
106.902
104.313
104.58
104.657
103.757
103.816
103.975
103.815
104.121
104.643
102.876
104.124
102.859
103.866
104.127
102.83
102.874
101.215
108.666
101.683
101.14
110.544
101.692
101.143
102.604
102.95
102.176
102.029
102.999
102.182
102.59
101.382
105.895
105.144
110.186
105.011
104.425
101.45
102.88
103.862
104.127
102.847
104.137
102.837
102.884
101.015
100.504
111.028
101.725
110.253
101.633
100.994
102.62
102.039
102.93
102.184
102.989
102.182
102.665
102.536
102.784
102.882
102.876
102.793
102.703
102.65
103.055
107.337
103.129
105.993
104.932
103.051
103.133
103.519
103.114
102.698
101.869
103.085
102.729
102.763
103.647
105.497
103.807
107.433
103.554
109.311
103.68
102.564
102.883
102.807
102.642
102.8
102.695
102.591
103.124
110.098
104.396
103.095
104.477
103.127
103.118
102.514
101.857
101.924
102.773
101.972
102.568
102.79
100.945
103.077
100.642
102.163
100.941
100.586
103.067
103.067
105.527
103.223
104.545
103.049
105.495
103.177
102.408
102.174
102.022
101.675
102.409
102.162
102.011
101.273
106.054
103.854
102.747
102.787
101.303
103.773
100.985
102.183
103.058
100.812
100.684
100.839
103.059
103.078
104.491
105.62
103.017
105.597
103.146
103.103
102.457
101.665
102.351
101.999
102.226
102.005
102.558
101.362
101.639
101.32
101.435
101.359
101.637
101.321
100.96
101.267
100.265
100.95
100.928
101.292
100.248
100.393
100.28
99.836
99.8405
100.399
100.279
99.8388
101.802
103.505
101.986
102.553
102.018
102.429
101.929
101.363
101.434
101.635
101.325
101.637
101.324
101.36
100.95
100.728
101.208
100.249
101.205
100.254
100.965
100.393
99.8378
100.283
99.8345
100.289
99.8439
100.396
98.2783
99.0781
98.5333
99.142
98.2891
99.0635
98.5306
96.5834
97.9187
95.7907
96.2903
96.5829
98.5561
95.6411
97.4222
97.803
96.8033
97.3911
97.4295
97.8266
96.7889
98.0572
99.2598
99.1741
98.2867
99.1571
98.2608
98.0473
98.2858
99.1407
99.0133
98.5201
99.0413
98.5257
98.2763
96.5178
96.1081
97.5939
96.4722
97.595
95.4992
96.5393
97.4304
97.4845
97.8053
96.8171
97.8996
96.7928
97.398
97.0158
96.6257
97.5512
97.3285
96.9731
96.7393
97.5461
97.814
98.5867
98.2709
98.1629
97.7953
98.2883
98.2651
97.7971
98.0257
98.253
98.4305
97.7744
98.0334
98.2329
95.3733
94.4804
96.4008
96.2228
96.2908
96.238
95.3347
97.002
97.3363
96.6924
97.5035
96.7732
97.5276
96.9986
97.7929
98.1304
98.217
98.242
98.3029
98.2523
97.7797
97.7828
98.5704
98.0456
98.2341
98.0248
98.2528
97.8302
99.2437
98.8332
99.3061
98.9787
99.2487
98.8171
99.2799
99.4735
99.297
100.227
100.927
99.4955
99.5129
100.218
99.5169
99.6314
100.119
100.062
99.5086
99.6081
100.114
99.2445
99.2376
98.8027
98.9341
98.7908
98.6823
99.2389
99.248
99.0001
98.8232
99.2885
98.8216
99.3036
99.2442
99.4295
104.962
98.6927
100.262
101.129
100.227
99.4002
99.5221
100.061
99.5997
100.117
99.6282
100.115
99.5279
101.141
100.8
101.068
100.67
101.117
100.78
101.08
102.384
102.751
102.609
103.319
102.106
102.798
102.574
101.822
101.684
102.49
102.266
101.878
101.688
102.48
101.125
100.769
101.005
100.686
100.997
100.992
101.11
101.135
100.669
100.76
101.082
100.769
101.077
101.14
102.241
103.314
102.953
102.556
102.83
102.559
104.192
101.833
102.203
101.702
102.475
101.689
102.478
101.909
103.223
102.947
103.061
102.786
103.219
102.894
103.042
103.816
104.416
104.112
104.39
103.86
104.43
104.141
103.523
103.396
103.746
103.568
103.523
103.385
103.748
103.705
103.665
103.253
104.334
103.236
104.323
103.708
103.241
102.679
102.847
103.03
103.111
103.053
103.255
103.817
104.395
104.434
104.137
104.46
104.13
103.791
103.526
103.55
103.362
103.758
103.392
103.756
103.519
104.554
103.98
103.928
103.684
105.512
103.978
103.955
104.801
106.341
104.467
106.589
104.78
106.338
104.522
104.658
103.814
103.985
103.753
104.641
103.814
104.004
104.533
105.082
104.323
105.714
104.342
105.711
104.509
104.656
103.701
103.988
103.96
103.979
103.957
104.564
104.866
111.5
108.422
104.412
106.859
104.446
104.869
104.616
103.754
103.815
103.943
103.819
104.029
104.588
102.916
104.137
102.854
103.858
102.895
104.15
102.857
107.841
111.35
101.997
101.399
114.605
111.084
102.049
102.868
102.894
102.188
102.078
102.758
102.954
102.191
101.83
107.271
105.336
105.393
105.353
105.365
101.98
102.94
103.859
104.171
102.855
104.161
102.857
102.944
106.339
101.376
111.445
101.989
111.278
102.138
106.779
102.93
102.079
103.04
102.204
103
102.195
102.974
102.61
102.808
102.658
102.877
102.638
102.805
102.567
103.038
104.323
103.062
103.773
103.056
104.116
103.049
102.636
101.892
102.701
101.842
102.621
101.87
102.656
103.577
106.605
103.582
105.569
103.592
106.069
103.499
102.645
102.866
102.811
102.593
102.806
102.546
102.709
103.089
104.536
104.272
103.042
104.179
103.111
103.043
102.634
101.783
101.84
102.546
101.852
102.627
102.548
100.961
103.088
100.674
102.17
100.812
100.698
103.082
103.094
105.788
102.883
104.576
103.104
106.196
102.856
102.36
102.039
101.997
101.688
102.311
102.125
102.04
101.531
113.242
103.971
106.341
118.846
101.544
104.015
100.961
102.203
103.069
100.675
100.659
100.958
103.057
103.069
105.235
106.485
102.882
106.928
102.874
103.024
102.369
101.744
102.248
102.01
102.175
102.05
102.383
101.363
101.633
101.32
101.447
101.354
101.629
101.328
100.747
101.319
100.193
100.683
100.88
101.314
100.163
100.404
100.27
99.8373
99.8179
100.398
100.258
99.8287
102.485
101.333
101.999
101.965
102.024
102.162
102.118
101.371
101.469
101.603
101.307
101.621
101.34
101.352
100.727
100.684
101.315
100.19
101.315
100.135
100.76
100.409
99.8159
100.243
99.8506
100.251
99.8232
100.41
98.2776
99.0172
98.52
99.1368
98.3246
99.0108
98.5208
96.6319
97.5742
96.4879
95.8553
96.5909
97.5769
96.2002
97.3582
97.8178
96.8113
97.4093
97.3575
97.822
96.7826
98.0877
99.3517
99.1725
98.7126
99.2014
98.1828
98.0775
98.3627
99.1366
99.024
98.5194
99.0176
98.5231
98.3644
96.5411
92.5861
101.723
96.2917
97.3367
96.1635
96.5873
97.3124
97.4039
97.8562
96.7751
97.8387
96.7709
97.2914
96.9988
96.656
97.561
97.34
97.0046
96.69
97.5135
97.7759
98.2027
98.2379
98.0143
97.7835
97.6864
98.2361
97.8313
98.0714
98.2484
98.446
97.8333
98.0421
98.2501
95.3794
93.1874
96.1104
94.04
96.0141
92.0663
95.9097
97.0005
97.3397
96.6306
97.5783
96.6365
97.6195
97.0012
97.7424
98.0214
97.7814
98.239
97.64
98.2367
97.8309
97.8308
98.5071
98.0309
98.2621
98.0311
98.2529
97.856
99.2442
98.8218
99.3052
98.9593
99.246
98.8289
99.2947
99.356
98.7813
100.261
99.2112
99.3771
98.8305
100.295
99.5241
99.6367
100.117
100.078
99.524
99.6137
100.123
99.2186
99.0464
98.8176
98.8869
98.7891
98.6354
99.2314
99.2451
98.955
98.8224
99.3283
98.8227
99.2956
99.3564
99.3486
99.1861
99.2362
100.395
98.7814
100.272
99.3387
99.5731
100.081
99.668
100.135
99.6156
100.146
99.551
101.13
100.761
101.097
100.696
101.151
100.764
101.076
102.766
104.544
102.571
103.419
103.108
104.764
102.558
101.819
101.723
102.471
102.245
101.943
101.73
102.468
101.258
101.805
101.006
103.145
100.961
103.245
101.697
101.125
100.697
100.765
101.108
100.768
101.077
101.179
102.744
103.366
105.124
102.584
105.135
102.562
103.394
101.819
102.216
101.756
102.47
101.741
102.472
101.902
103.23
102.849
103.034
102.717
103.24
102.821
103.048
103.817
104.377
104.146
104.532
103.795
104.258
104.093
103.535
103.381
103.769
103.569
103.531
103.349
103.763
103.681
103.529
103.226
104.509
103.21
104.154
103.679
103.287
102.846
102.86
103.06
102.886
103.063
103.267
103.832
104.766
104.65
104.164
104.155
104.213
103.909
103.537
103.556
103.375
103.767
103.36
103.765
103.555
103.708
103.995
104.01
103.746
104.689
103.989
104.04
104.954
106.533
104.384
105.003
104.875
106.511
104.38
105.85
103.816
103.967
103.756
106.365
103.82
103.978
104.443
104.745
104.352
106.359
104.293
105.642
104.537
103.751