/*--------------------------------*- C++ -*----------------------------------*\
| =========                 |                                                 |
| \\      /  F ield         | OpenFOAM: The Open Source CFD Toolbox           |
|  \\    /   O peration     | Version:  5.0                                   |
|   \\  /    A nd           | Web:      www.OpenFOAM.org                      |
|    \\/     M anipulation  |                                                 |
\*---------------------------------------------------------------------------*/
FoamFile
{
    version     2.0;
    format      ascii;
    class       surfaceScalarField;
    location    "2.7";
    object      phi;
}
// * * * * * * * * * * * * * * * * * * * * * * * * * * * * * * * * * * * * * //

dimensions      [0 3 -1 0 0 0 0];

internalField   nonuniform List<scalar> 
22429
(
1.15549e-09
-1.71246e-09
2.21661e-09
-3.03563e-09
-2.85361e-09
-1.66605e-08
8.0822e-09
2.86182e-09
8.43095e-09
-1.90897e-09
1.2021e-09
-7.77861e-10
1.23791e-08
4.69408e-09
-1.18781e-08
-9.16782e-10
-1.75218e-09
-2.77864e-09
-3.34401e-09
1.89887e-10
2.2647e-09
3.59263e-09
-4.12402e-09
6.62504e-09
-4.82179e-09
7.51218e-10
4.29916e-10
5.63492e-10
-1.82021e-09
-3.97622e-11
1.39609e-12
1.16886e-11
2.7216e-11
1.39461e-09
3.08317e-11
-3.1509e-11
-2.43464e-10
-2.49752e-10
-4.07305e-10
-4.2298e-10
1.40409e-09
3.77954e-11
1.3111e-13
1.41595e-09
2.07026e-11
2.58406e-13
1.42244e-09
1.44028e-11
5.14982e-14
1.42764e-09
9.13418e-12
-2.14957e-14
1.43121e-09
5.90972e-12
1.46233e-14
1.43227e-09
3.44289e-12
-1.17469e-12
1.43361e-09
2.37683e-12
-2.75525e-14
1.43488e-09
9.57242e-13
1.954e-13
1.43523e-09
1.02409e-12
1.55777e-14
1.4354e-09
7.15037e-13
2.57283e-13
1.43573e-09
3.43783e-13
1.73517e-15
1.43582e-09
1.83735e-13
-1.69926e-13
1.4361e-09
1.64919e-13
4.22052e-13
1.43588e-09
1.75562e-13
2.06929e-15
1.43619e-09
-3.04571e-13
-1.3085e-13
1.43628e-09
-1.84994e-13
3.42552e-14
1.43645e-09
-8.44001e-13
1.07139e-12
1.43639e-09
2.87659e-13
2.29606e-13
1.43645e-09
2.07436e-13
-2.63697e-14
1.43651e-09
-4.28447e-14
-2.93081e-14
1.43651e-09
-3.89637e-13
-1.19754e-12
1.43676e-09
-3.45141e-14
-4.46097e-13
1.43605e-09
-1.17957e-12
3.85903e-12
1.43643e-09
-1.07364e-12
2.84416e-12
1.43634e-09
-3.79782e-13
1.6834e-13
1.43722e-09
-8.64816e-13
1.41744e-13
1.43689e-09
2.81209e-14
-9.2704e-14
1.43676e-09
4.45882e-13
-1.8678e-13
1.43663e-09
1.23693e-13
7.65166e-14
1.43674e-09
4.24193e-13
-6.1967e-13
1.43795e-09
-1.34727e-12
-1.85987e-13
1.43745e-09
2.47527e-13
7.97464e-14
1.43756e-09
-1.24848e-13
-6.92359e-15
1.43783e-09
-3.25101e-13
-4.8486e-14
1.43841e-09
-9.4867e-13
1.41926e-14
1.43672e-09
4.41301e-12
-2.31271e-12
1.43712e-09
-4.65466e-13
4.59464e-14
1.43729e-09
3.17661e-13
-5.03074e-13
1.43813e-09
-9.36245e-13
2.83033e-13
1.43779e-09
2.08983e-13
1.50863e-13
1.43726e-09
-4.61935e-13
7.46117e-13
1.26306e-12
-1.13714e-12
-1.09631e-09
6.1888e-10
1.53856e-10
5.2113e-09
1.97944e-09
-1.11406e-08
7.21113e-09
-1.4614e-09
1.63502e-08
-1.72219e-08
-4.87338e-09
1.27428e-08
3.31182e-10
-6.59812e-09
-6.69543e-11
8.42464e-10
-4.65598e-10
1.87871e-08
-1.93408e-10
8.9768e-10
2.09926e-09
-3.26211e-09
-2.03113e-09
-2.85523e-09
-2.1185e-09
7.78042e-09
-1.38208e-08
1.2304e-09
3.24721e-09
-5.52462e-10
-2.37408e-09
-6.35242e-10
1.33321e-09
6.21929e-10
-4.77429e-10
-2.23025e-10
-5.84237e-10
5.4725e-10
1.26013e-10
1.33999e-10
-6.22633e-11
2.08238e-12
-1.53794e-12
3.06503e-11
3.10686e-11
1.41049e-09
1.15649e-11
-3.28039e-11
-2.54843e-10
-2.53064e-10
-4.34275e-10
-4.31211e-10
1.3806e-12
1.45539e-11
-1.01187e-12
1.39861e-09
5.20698e-11
-2.41698e-12
1.40866e-09
1.11127e-11
-4.75425e-13
1.41641e-09
6.78619e-12
-1.27405e-13
1.42288e-09
2.73714e-12
-7.51335e-14
1.42727e-09
1.53264e-12
-3.15941e-14
1.43044e-09
2.63046e-13
-1.40659e-14
1.43275e-09
2.74916e-14
1.76863e-14
1.43344e-09
4.49387e-13
-2.12656e-13
1.43488e-09
-4.40913e-13
1.49264e-14
1.43527e-09
4.84065e-13
-1.71763e-13
1.43533e-09
4.35567e-13
-1.5636e-13
1.43554e-09
2.62779e-14
-5.98316e-14
1.43559e-09
-4.10869e-13
5.39779e-13
1.43576e-09
4.54642e-14
-3.48999e-14
1.43629e-09
7.82083e-13
-1.60239e-12
1.43647e-09
-9.33459e-13
5.8913e-13
1.4364e-09
1.31601e-13
-8.7752e-13
1.43624e-09
-2.1692e-13
6.8825e-13
1.43644e-09
4.76551e-14
-6.56093e-15
1.43649e-09
5.29048e-14
-1.10054e-13
1.43579e-09
-8.49762e-13
1.19013e-12
1.43576e-09
-2.50016e-13
2.87709e-13
1.43628e-09
2.91846e-13
-1.9511e-12
1.43651e-09
5.42265e-13
-1.8006e-12
1.43758e-09
-3.53735e-12
2.13564e-12
1.43756e-09
-2.40114e-12
1.60914e-12
1.43684e-09
8.12567e-13
-1.6968e-14
1.43722e-09
2.36599e-14
8.47013e-14
1.4375e-09
-6.89719e-14
-3.85475e-14
1.4375e-09
1.79064e-13
2.97367e-13
1.43659e-09
-7.40158e-13
3.50346e-13
1.43685e-09
8.09862e-14
-4.48786e-14
1.437e-09
-1.94907e-13
-4.38264e-14
1.43691e-09
-1.23126e-13
-6.36727e-14
1.43668e-09
-1.38412e-13
-5.51348e-13
1.43856e-09
3.64359e-13
2.20988e-12
1.43806e-09
-1.65394e-14
7.51228e-14
1.43796e-09
-7.10105e-14
5.21683e-13
1.43724e-09
-4.30725e-15
-1.93804e-13
1.43738e-09
1.65711e-13
-8.2094e-14
1.43771e-09
8.16773e-14
-8.58224e-13
-2.03379e-13
1.19038e-12
-2.01157e-09
5.802e-10
3.43918e-09
-1.36156e-09
4.1668e-11
2.14183e-09
1.21602e-09
-3.64155e-09
1.57166e-09
-7.92724e-10
-4.33554e-09
2.30536e-09
-1.10068e-08
-7.9859e-10
-1.83716e-09
1.3177e-08
-2.7311e-09
3.44206e-09
-5.61327e-09
-7.71735e-11
4.28856e-09
-1.04095e-09
-4.00288e-10
2.13217e-09
-3.50583e-10
-9.88878e-10
1.95522e-10
2.71221e-10
8.72718e-10
-3.79715e-11
7.00869e-12
2.67648e-11
-1.01383e-10
1.05581e-10
-2.9772e-11
1.83707e-10
1.04359e-12
-4.26357e-12
-3.01909e-11
-5.37659e-11
-5.51923e-11
1.35158e-09
-2.72199e-11
-1.96768e-11
-2.36003e-10
-2.36661e-10
-3.87735e-10
-3.9221e-10
1.3875e-09
-2.27521e-11
-1.99058e-12
1.4073e-09
-1.36195e-11
6.51156e-13
1.4191e-09
-9.23202e-12
1.98821e-13
1.42619e-09
-5.70599e-12
1.38878e-13
1.43001e-09
-3.5898e-12
1.79341e-14
1.43225e-09
-2.25602e-12
1.85899e-14
1.43408e-09
-1.49983e-12
1.02148e-13
1.43445e-09
-6.73214e-13
-1.64427e-13
1.43565e-09
-2.17884e-12
1.45238e-12
1.43539e-09
6.11696e-13
8.18648e-14
1.43586e-09
-4.97816e-13
5.78176e-14
1.43595e-09
-9.70445e-13
4.76266e-13
1.43649e-09
-4.8048e-13
-1.13556e-14
1.43618e-09
1.83492e-13
9.30149e-13
1.43578e-09
-5.323e-13
2.08465e-14
1.4357e-09
7.46481e-13
-5.13904e-13
1.43576e-09
-1.0079e-13
-1.47835e-13
1.43593e-09
1.61021e-14
-1.09589e-13
1.43583e-09
-9.01214e-14
2.75153e-13
1.4364e-09
4.75478e-13
-1.85183e-12
1.43716e-09
7.44396e-13
-1.71678e-12
1.43704e-09
4.22824e-13
3.16424e-14
1.43804e-09
5.85197e-13
-1.0034e-12
1.43666e-09
-1.37367e-14
-2.0894e-12
1.43651e-09
1.10991e-13
-2.31438e-12
1.43691e-09
6.85104e-13
-2.25145e-13
1.43711e-09
-1.49472e-13
2.09835e-14
1.43706e-09
9.72159e-14
-7.03603e-14
1.43701e-09
2.99506e-14
2.51145e-13
1.43683e-09
-1.94721e-13
-3.18602e-13
1.43691e-09
-1.61662e-13
2.02594e-13
1.43682e-09
-4.86197e-14
-7.74257e-15
1.43714e-09
-2.94902e-13
-1.07495e-13
1.43736e-09
-2.42318e-12
2.10167e-12
1.43823e-09
-1.59756e-12
1.12883e-12
1.43797e-09
-5.05333e-14
3.15398e-13
1.43779e-09
8.43967e-15
1.31749e-13
1.4377e-09
1.49896e-13
-4.74685e-14
1.43738e-09
5.57955e-13
-5.73807e-14
1.43717e-09
2.58687e-13
4.48046e-14
-1.68669e-12
7.5042e-13
3.6755e-09
1.40983e-09
-3.11614e-09
2.78473e-09
1.01717e-09
-8.39005e-09
-5.72282e-10
1.62812e-09
2.44853e-09
4.55653e-09
-2.12115e-09
2.36653e-09
-1.71726e-10
-3.71334e-10
1.48672e-09
1.84114e-09
1.0417e-09
-5.70696e-09
-2.24738e-09
1.66812e-09
7.6284e-09
8.57692e-10
-4.38995e-09
5.11005e-10
1.66943e-09
-1.7021e-09
6.69958e-10
-2.82359e-09
1.79292e-09
-1.43266e-09
1.23962e-09
1.22372e-09
4.37884e-10
-2.45184e-09
1.08817e-09
-4.11292e-10
1.33707e-09
-4.11015e-11
-2.11896e-11
2.1832e-11
-5.77026e-11
9.81618e-11
-3.21365e-11
1.88165e-10
-1.07333e-11
1.36139e-12
-3.28844e-11
-6.21182e-11
-6.19512e-11
1.02977e-11
1.37619e-09
-8.2667e-11
-2.19015e-11
-2.46763e-10
-2.42265e-10
-4.09568e-10
-4.00218e-10
1.40325e-09
-4.71993e-11
-2.53931e-12
1.41714e-09
-2.80573e-11
6.08121e-13
1.42499e-09
-1.68403e-11
-2.07216e-13
1.42954e-09
-1.03135e-11
5.81698e-14
1.4322e-09
-6.2911e-12
2.26671e-14
1.43365e-09
-3.73202e-12
2.37194e-15
1.43439e-09
-2.25099e-12
-7.1455e-15
1.43507e-09
-1.51104e-12
1.38474e-13
1.43512e-09
-9.77113e-13
-1.26144e-12
1.43617e-09
-3.17327e-13
-1.28892e-13
1.43593e-09
-3.01396e-13
5.02401e-14
1.43637e-09
-4.50799e-13
-9.56996e-13
1.43618e-09
-1.98352e-13
-7.57679e-14
1.43592e-09
-3.53063e-13
8.07194e-13
1.4361e-09
4.86968e-14
-7.44739e-13
1.43632e-09
8.0519e-14
4.74387e-13
1.4364e-09
-7.79371e-14
-7.43575e-14
1.4364e-09
1.41479e-15
4.73177e-14
1.43654e-09
7.28355e-13
-9.22072e-13
1.43717e-09
1.14161e-12
-1.26599e-12
1.43643e-09
2.02803e-13
1.32005e-12
1.43649e-09
5.05546e-13
-9.52398e-14
1.43665e-09
6.45617e-13
-1.73935e-13
1.4367e-09
-3.96905e-14
1.85848e-14
1.43672e-09
2.2045e-13
-8.19923e-14
1.43712e-09
4.37771e-13
-1.05167e-13
1.43704e-09
-4.38942e-14
2.83273e-14
1.43708e-09
1.24933e-13
-2.19783e-14
1.43714e-09
1.14979e-13
-9.4621e-14
1.43683e-09
-2.39348e-13
3.97842e-13
1.43698e-09
1.137e-12
-1.40526e-12
1.43677e-09
1.89927e-13
2.35031e-14
1.43815e-09
-5.43518e-13
-1.09821e-12
1.43748e-09
5.34807e-13
-2.24624e-12
1.43756e-09
7.98e-13
-2.44473e-12
1.43793e-09
3.17617e-13
-7.09932e-13
1.43802e-09
1.2601e-13
-1.79251e-13
1.43796e-09
1.84975e-12
-1.62214e-12
1.43692e-09
1.57748e-12
4.22921e-14
1.43717e-09
2.67217e-14
-5.96826e-15
-2.0002e-12
5.20146e-13
-6.53037e-10
3.86642e-10
3.06531e-09
-1.76564e-10
7.20473e-09
-2.83839e-08
4.39459e-09
1.15246e-08
4.02087e-09
2.60914e-10
-2.31878e-10
1.75594e-09
-3.81415e-09
-2.0273e-09
6.53034e-09
-8.65287e-10
2.46132e-09
8.31833e-10
3.56715e-09
-8.73693e-10
-6.58242e-10
1.05823e-08
1.3935e-09
-1.73018e-08
-7.03299e-10
-3.91163e-10
1.57645e-09
1.5686e-10
-6.38851e-10
5.39138e-11
-1.66786e-10
2.88262e-11
1.19041e-12
8.28553e-11
-5.01827e-11
-2.14106e-11
-1.17467e-11
-1.15132e-11
9.48532e-11
-4.91961e-11
2.08618e-10
4.93997e-11
-4.7154e-11
-7.72132e-11
-7.84928e-11
2.56845e-11
-5.12192e-12
-8.53995e-12
-1.11119e-11
-6.87208e-12
1.43827e-09
-7.62879e-11
-2.65041e-11
-2.58842e-10
-2.71824e-10
-4.25237e-10
-4.62218e-10
1.43801e-09
-4.46489e-11
-2.23371e-12
1.43672e-09
-2.72106e-11
4.75181e-13
1.43632e-09
-1.64836e-11
6.46598e-14
1.43684e-09
-1.09101e-11
7.10344e-14
1.43689e-09
-6.38249e-12
2.13559e-14
1.43624e-09
-2.09634e-12
-1.01132e-12
1.43581e-09
-7.17493e-13
-1.12772e-12
1.43589e-09
-1.68476e-12
7.81335e-14
1.43595e-09
-1.03993e-12
-6.9516e-15
1.43596e-09
-5.11605e-13
1.77469e-13
1.43607e-09
-5.53596e-13
1.46383e-13
1.43648e-09
-8.3444e-13
-2.06253e-14
1.43633e-09
-1.43267e-13
1.04178e-13
1.43639e-09
-1.66517e-13
-2.3422e-13
1.43639e-09
-1.24681e-13
1.92427e-13
1.43657e-09
-2.11875e-13
1.40185e-13
1.43672e-09
-2.63571e-13
6.825e-14
1.43667e-09
3.66795e-13
-2.87651e-13
1.43648e-09
8.51802e-14
8.69493e-13
1.43545e-09
6.76671e-13
1.52975e-12
1.43712e-09
-2.10255e-12
6.75191e-13
1.43736e-09
6.12762e-13
-3.02487e-13
1.43644e-09
1.65876e-12
-4.86546e-14
1.43651e-09
4.65626e-14
-1.13284e-13
1.43672e-09
6.35598e-14
6.94488e-16
1.43685e-09
4.47303e-14
3.07059e-13
1.43675e-09
1.67095e-13
-5.73876e-14
1.43693e-09
-1.09015e-13
9.4463e-14
1.43679e-09
3.86681e-13
-8.48776e-14
1.43704e-09
-1.27835e-13
-3.1301e-13
1.43725e-09
-3.21222e-14
1.00914e-12
1.43745e-09
-5.13052e-13
5.40602e-13
1.43776e-09
-3.60063e-12
2.79231e-12
1.43786e-09
4.86961e-13
-1.30712e-14
1.43735e-09
1.918e-13
1.15163e-12
1.43756e-09
-4.58009e-14
1.78807e-13
1.43805e-09
-3.33891e-13
-7.33286e-15
1.43844e-09
-1.21282e-12
2.69911e-12
1.43668e-09
3.87763e-12
-5.21961e-13
1.43709e-09
-8.8636e-13
5.04879e-13
-2.26175e-13
-9.10186e-13
1.30624e-09
9.09539e-11
3.78668e-10
9.27157e-10
1.6744e-09
2.964e-09
2.43752e-09
2.70678e-09
5.80527e-09
1.9054e-09
4.20779e-10
-1.19678e-09
-3.88166e-09
-1.61401e-09
-3.63792e-09
2.6588e-10
-2.66923e-09
3.54598e-09
-2.15405e-10
3.0123e-09
4.01267e-10
-1.07871e-09
-6.64717e-10
-1.67014e-09
-5.55312e-10
-3.25777e-10
-1.8363e-11
1.51409e-10
7.48041e-10
-2.60319e-10
-9.93658e-10
-5.41186e-11
-1.30736e-10
1.43883e-09
-1.04094e-10
2.76785e-11
-4.07379e-11
3.4704e-11
8.24497e-11
-4.80098e-11
2.38576e-12
-1.97024e-12
1.73634e-11
3.02309e-11
1.48893e-09
-3.17768e-11
-2.97345e-11
-2.82531e-10
-2.79747e-10
-4.79427e-10
-4.61991e-10
1.46877e-09
-2.17008e-11
-2.78972e-12
1.45515e-09
-1.40444e-11
4.40413e-13
1.44783e-09
-8.93196e-12
-2.51004e-13
1.44271e-09
-5.68472e-12
-1.32208e-13
1.43983e-09
-3.52885e-12
-4.03215e-16
1.43873e-09
-2.04733e-12
1.0246e-12
1.43798e-09
-1.1013e-12
1.10387e-12
1.43711e-09
-7.46456e-13
-8.2736e-14
1.43678e-09
-1.08889e-12
3.71403e-13
1.4363e-09
-1.489e-13
1.08219e-13
1.43516e-09
7.81616e-13
-1.97537e-13
1.43761e-09
-7.36113e-12
4.08798e-12
1.43679e-09
8.46831e-13
-1.63339e-13
1.43653e-09
4.2558e-13
-3.16207e-13
1.43629e-09
5.96404e-14
8.13303e-14
1.43603e-09
-6.45687e-14
1.29919e-13
1.43694e-09
9.50478e-13
-2.09681e-12
1.4371e-09
4.34093e-14
1.9962e-13
1.43729e-09
2.61077e-13
-3.33007e-13
1.43792e-09
2.00522e-13
-1.1986e-13
1.43494e-09
4.65779e-12
-3.73532e-12
1.43559e-09
-9.4787e-13
9.4587e-13
1.43668e-09
7.98004e-14
5.36453e-13
1.43669e-09
1.41796e-13
-5.96244e-14
1.43682e-09
2.92041e-13
-3.06337e-13
1.43668e-09
1.0589e-12
-8.25788e-13
1.43686e-09
2.65265e-14
1.06171e-14
1.43688e-09
5.1722e-14
-1.35948e-13
1.43707e-09
1.74451e-13
7.02724e-14
1.43711e-09
-5.74857e-13
4.56284e-13
1.43791e-09
-5.36794e-13
-2.56248e-13
1.43818e-09
-8.80539e-14
-6.42207e-13
1.43661e-09
-5.50709e-13
-1.44116e-12
1.43726e-09
3.96407e-14
-1.64167e-13
1.43698e-09
2.51858e-13
2.52843e-13
1.43692e-09
-2.53546e-14
6.14229e-14
1.43682e-09
-1.49449e-13
-5.80942e-14
1.43663e-09
1.49433e-12
-2.49366e-12
1.43884e-09
1.20187e-12
4.79055e-13
1.4385e-09
-4.59202e-13
-6.99402e-14
-7.57597e-13
1.71836e-12
-9.75291e-10
-2.11389e-09
-4.85202e-10
1.52665e-09
1.8058e-09
1.72196e-09
-3.97108e-09
7.11737e-10
3.95854e-09
4.65962e-10
6.85791e-10
4.38785e-10
-1.72188e-10
-1.41835e-09
1.47317e-09
3.93323e-09
3.73686e-09
-8.83952e-09
-3.03749e-10
2.6674e-10
-3.27369e-11
4.92267e-11
2.51771e-09
-3.11874e-09
-2.80528e-11
3.66449e-10
-2.05943e-11
-2.27953e-10
2.19252e-10
-3.64284e-11
3.34115e-10
-2.88985e-10
-1.27346e-10
6.64984e-11
-4.76147e-11
-7.52961e-11
1.83759e-10
-4.71554e-11
5.88927e-12
2.12444e-10
-1.15257e-11
5.20429e-11
-4.6861e-11
-8.11937e-11
-8.36409e-11
1.50708e-09
8.34733e-12
-2.80518e-11
-2.81658e-10
-2.90634e-10
-4.63125e-10
-4.8375e-10
1.4804e-09
7.80175e-12
-2.90176e-12
1.46308e-09
2.75227e-12
4.47694e-13
1.45272e-09
1.50792e-12
-1.34405e-13
1.4464e-09
5.91202e-13
-3.75037e-15
1.44258e-09
2.76254e-13
-2.29456e-14
1.4399e-09
6.38142e-13
-3.98229e-14
1.43861e-09
1.45374e-13
1.90039e-14
1.43772e-09
1.25424e-13
-4.93605e-15
1.43686e-09
9.65409e-14
-3.34084e-13
1.43739e-09
-7.49202e-13
6.2936e-14
1.43809e-09
1.55343e-13
-6.98734e-14
1.4353e-09
-5.99232e-13
-3.97013e-12
1.43613e-09
-5.27594e-14
8.37567e-14
1.43623e-09
1.58768e-13
1.74714e-13
1.43644e-09
2.52434e-14
-1.47354e-13
1.43661e-09
2.0076e-13
-4.13548e-13
1.43593e-09
-4.1967e-13
2.07002e-12
1.43634e-09
-3.82126e-13
4.94342e-14
1.43684e-09
-3.26168e-13
1.21095e-13
1.4352e-09
4.57137e-12
-2.68791e-12
1.4368e-09
-3.80912e-13
3.47971e-12
1.43691e-09
-3.41182e-13
-6.79305e-13
1.43671e-09
-7.44748e-14
3.99e-13
1.43666e-09
1.53505e-13
8.24323e-14
1.43678e-09
2.75075e-14
1.9562e-13
1.43715e-09
-2.38275e-14
7.60067e-13
1.4372e-09
9.71308e-14
-6.77942e-14
1.4373e-09
1.03163e-14
-1.36713e-14
1.43701e-09
1.33663e-12
-8.22161e-13
1.43697e-09
-5.923e-14
-4.30688e-13
1.43743e-09
-1.81856e-12
8.72148e-13
1.43748e-09
-1.40805e-13
4.4899e-14
1.43745e-09
-2.61909e-13
-2.18439e-13
1.43714e-09
3.46402e-13
3.57959e-14
1.4369e-09
4.20365e-13
1.0227e-13
1.43699e-09
-3.12831e-13
2.33397e-13
1.43688e-09
3.49894e-15
-1.96258e-14
1.43733e-09
-8.71541e-13
1.93294e-12
1.43784e-09
6.84626e-13
3.12364e-14
1.43806e-09
-1.16269e-13
-5.52568e-13
-2.26956e-13
-1.17394e-12
-5.12118e-09
-7.56143e-09
1.19577e-08
-3.85104e-09
1.26817e-09
-2.60947e-11
-2.65486e-09
-3.19126e-09
-1.79587e-09
-8.96627e-10
-3.80422e-09
-5.15184e-09
-1.58501e-09
8.4431e-09
7.18539e-09
9.39001e-10
-3.11955e-09
6.91365e-10
-2.90932e-09
1.48646e-09
5.90287e-10
6.6476e-10
-1.80269e-09
-1.38768e-09
1.5447e-10
1.48828e-09
-2.32888e-10
5.25462e-10
-1.33819e-09
1.81266e-09
1.22362e-09
-1.38077e-09
-3.17324e-10
-2.86053e-10
-1.16783e-10
2.48896e-10
8.14981e-10
-6.61041e-10
-1.04203e-10
2.99657e-11
-4.4525e-11
7.60509e-12
1.11157e-10
-4.17682e-11
-7.45161e-12
2.15619e-10
1.50943e-11
1.32635e-11
-4.13463e-11
-7.75157e-11
-7.58955e-11
1.48987e-09
2.19609e-11
-2.76718e-11
-2.81711e-10
-2.74176e-10
-4.67478e-10
-4.5249e-10
1.47203e-09
2.78433e-11
-2.35441e-12
1.45932e-09
1.48792e-11
4.57097e-13
1.45098e-09
9.84001e-12
-8.62337e-14
1.44542e-09
6.0909e-12
-1.96656e-16
1.44188e-09
3.79001e-12
-1.72702e-14
1.4401e-09
2.23099e-12
1.48831e-13
1.43864e-09
1.58722e-12
-2.68134e-15
1.43754e-09
1.82167e-12
-6.15179e-13
1.43714e-09
1.36489e-13
3.45167e-13
1.43685e-09
1.61101e-12
-2.07824e-12
1.43703e-09
-1.07368e-14
-1.22754e-14
1.43647e-09
-4.60554e-15
-3.30494e-14
1.43627e-09
2.56906e-13
-9.99927e-14
1.43628e-09
-3.86415e-13
5.50409e-13
1.4364e-09
-8.5037e-14
1.4094e-14
1.43609e-09
-7.325e-13
1.27064e-12
1.43615e-09
-2.60269e-13
-1.94889e-13
1.43579e-09
5.34569e-14
-5.04971e-14
1.43544e-09
4.80656e-14
1.36526e-14
1.43678e-09
5.88076e-13
2.68024e-12
1.43665e-09
6.50353e-13
-8.57812e-13
1.4376e-09
-3.08257e-12
1.83426e-12
1.43744e-09
1.44337e-13
-1.70742e-14
1.4365e-09
1.47162e-12
-3.32659e-13
1.43664e-09
-8.40506e-14
1.97667e-14
1.43692e-09
-3.29463e-13
7.35063e-14
1.43718e-09
-2.26695e-13
1.10759e-13
1.43681e-09
2.41573e-13
1.91784e-13
1.43735e-09
-2.04139e-13
1.04396e-12
1.43764e-09
-1.98555e-13
-1.04374e-13
1.43693e-09
-4.04603e-13
-6.52918e-13
1.43698e-09
2.35647e-13
-3.79929e-13
1.4368e-09
-1.2222e-13
7.65611e-14
1.43724e-09
4.71765e-14
-1.07436e-13
1.43761e-09
2.78016e-13
-1.87286e-13
1.43732e-09
1.65218e-13
-1.61164e-13
1.43679e-09
5.40002e-13
2.08325e-14
1.43742e-09
-1.2728e-12
-2.10728e-13
1.43734e-09
5.45907e-13
2.36404e-13
1.43846e-09
-2.74932e-12
1.52361e-12
-2.99423e-13
-5.92646e-13
-4.92088e-10
-5.20322e-09
-4.77214e-10
-3.04667e-10
-3.57105e-09
5.14805e-09
-2.15911e-09
1.6955e-10
1.4933e-09
-2.16091e-09
-1.07432e-09
9.23833e-10
2.00673e-09
7.83973e-10
-3.10891e-10
7.58137e-10
-5.75261e-10
-6.55958e-10
4.79838e-11
-3.70837e-10
-2.00834e-09
-6.88112e-10
3.01931e-09
4.57658e-10
-5.89151e-10
7.28875e-10
5.95549e-11
-6.56937e-10
-1.56827e-10
-5.37748e-12
3.86921e-11
1.91307e-11
1.04381e-10
1.49413e-09
1.12037e-10
-4.32029e-11
-2.6279e-10
-2.66111e-10
-4.49865e-10
-4.61161e-10
-2.13176e-11
-2.41645e-11
-3.70379e-11
-4.05147e-11
1.46577e-09
4.98055e-11
2.68186e-13
1.45703e-09
3.67283e-11
-3.46054e-13
1.44943e-09
2.23241e-11
-1.8104e-15
1.44472e-09
1.45286e-11
-7.87291e-14
1.44157e-09
9.16396e-12
7.40693e-15
1.43972e-09
5.62344e-12
-2.81072e-14
1.43833e-09
3.71252e-12
-1.20493e-13
1.43763e-09
1.81244e-12
4.50821e-13
1.43741e-09
1.45787e-12
5.56134e-13
1.43694e-09
1.05499e-12
-4.55027e-13
1.43637e-09
2.11187e-13
1.95795e-12
1.43614e-09
3.79939e-13
-1.60308e-13
1.43609e-09
7.44393e-14
-2.35084e-14
1.43597e-09
6.55915e-13
-2.73464e-13
1.43623e-09
-1.3304e-13
-4.92516e-13
1.43604e-09
1.72678e-13
-5.22407e-14
1.43639e-09
1.7578e-13
-1.23563e-12
1.43637e-09
-2.76976e-13
6.94046e-14
1.43648e-09
-7.9649e-14
5.16887e-14
1.43672e-09
-4.85432e-14
-1.1253e-13
1.43693e-09
2.88718e-13
1.25132e-13
1.43695e-09
1.1667e-13
5.55239e-13
1.43613e-09
-2.53994e-13
-1.96718e-12
1.43616e-09
3.3965e-14
1.30469e-13
1.43735e-09
1.115e-12
-7.86659e-13
1.43644e-09
-3.54959e-14
9.05528e-13
1.4368e-09
1.45016e-13
-7.87996e-13
1.43664e-09
1.40383e-13
-1.5369e-13
1.43719e-09
-4.00124e-13
1.35822e-13
1.43757e-09
-3.3743e-13
-1.91681e-13
1.43723e-09
9.32341e-13
-7.42057e-13
1.43731e-09
-3.38396e-13
-1.00244e-13
1.43741e-09
-3.37439e-13
5.06815e-13
1.43706e-09
1.24561e-12
-9.74886e-13
1.43732e-09
-1.30364e-13
-4.46412e-14
1.43715e-09
4.15007e-13
6.98455e-14
1.43772e-09
-6.715e-13
2.93398e-13
1.43819e-09
-1.10295e-13
2.12096e-13
1.43688e-09
7.74618e-13
-7.25862e-13
1.43711e-09
4.83015e-13
-1.45514e-13
1.43734e-09
1.18416e-12
-4.1556e-12
-1.45943e-12
-1.26872e-13
4.88149e-09
-8.96659e-09
1.06155e-09
2.87816e-10
8.14014e-10
2.15207e-09
1.3252e-09
-5.47696e-10
8.30616e-11
8.51951e-10
6.74228e-10
-3.32417e-10
-5.07296e-12
-3.23688e-10
-1.59709e-10
8.20887e-10
4.06223e-10
8.17048e-10
-1.67878e-10
-2.15389e-10
-8.40004e-10
-3.56199e-10
1.24343e-09
-7.71421e-10
1.00664e-10
-2.16473e-10
-8.23652e-11
-2.3141e-12
2.13146e-12
5.33076e-11
2.92403e-11
1.42919e-09
-3.5352e-11
-2.56222e-10
-2.45428e-10
-4.38011e-10
-4.12829e-10
1.43102e-09
1.29581e-13
1.4347e-09
-9.48504e-14
1.43582e-09
4.33294e-14
1.43581e-09
8.36896e-14
1.43547e-09
-9.48961e-14
1.43635e-09
1.34432e-12
1.4363e-09
-6.01703e-15
1.43622e-09
-5.8008e-13
1.43619e-09
5.08892e-14
1.43641e-09
-3.40986e-13
1.43596e-09
-2.8262e-14
1.43602e-09
2.21208e-13
1.43564e-09
-4.05769e-13
1.43607e-09
2.90865e-13
1.43607e-09
3.50032e-14
1.43632e-09
3.14156e-14
1.43636e-09
-2.08349e-13
1.43651e-09
-8.21023e-13
1.43623e-09
4.36281e-14
1.43629e-09
-1.31071e-14
1.4369e-09
1.35357e-12
1.43697e-09
3.76734e-13
1.43673e-09
-1.88826e-12
1.43598e-09
-1.2529e-12
1.43646e-09
1.04793e-12
1.43695e-09
-5.64405e-13
1.43685e-09
7.5481e-13
1.43694e-09
3.75716e-14
1.43706e-09
-4.69237e-13
1.43692e-09
-2.74988e-15
1.43755e-09
7.44589e-13
1.43736e-09
1.22212e-13
1.43742e-09
-2.64377e-13
1.43782e-09
1.0446e-12
1.43737e-09
7.64145e-13
1.43749e-09
-4.27304e-14
1.43727e-09
-3.62423e-13
1.43755e-09
-3.05172e-13
1.43776e-09
4.24594e-13
1.43848e-09
-2.17792e-13
1.43711e-09
2.83051e-12
1.93899e-13
4.82177e-09
-6.82147e-09
-7.08812e-09
3.4768e-09
4.86153e-09
6.3866e-09
-1.42072e-09
2.20711e-09
-9.99602e-09
-1.59032e-09
-6.4234e-10
4.90189e-09
-2.83782e-10
1.50063e-09
-5.8218e-10
6.97391e-10
-6.84143e-10
-5.3746e-10
-2.86172e-08
-2.87716e-10
8.43436e-10
-1.85826e-09
2.96162e-08
7.42351e-09
1.07529e-09
2.17935e-10
5.08018e-10
-8.35699e-09
-1.23319e-10
-9.75131e-12
4.19598e-12
-5.1964e-12
1.36813e-10
2.31733e-09
3.2299e-11
3.14109e-11
-5.66276e-10
-5.87057e-10
-5.66301e-10
-5.87108e-10
2.33565e-09
5.21286e-11
-2.06027e-13
2.35767e-09
2.69242e-11
-1.72875e-13
2.36965e-09
1.92651e-11
-2.15835e-13
2.37897e-09
1.22282e-11
-2.35151e-13
2.38525e-09
7.95718e-12
-1.79006e-13
2.38744e-09
4.59274e-12
1.52279e-12
2.38973e-09
3.17567e-12
-2.64491e-14
2.39163e-09
1.61135e-12
7.10455e-14
2.39236e-09
1.37492e-12
-2.35038e-15
2.39269e-09
8.80898e-13
-1.39347e-13
2.39324e-09
1.09162e-13
2.44673e-13
2.39347e-09
2.31643e-13
-4.97435e-13
2.39388e-09
2.5342e-13
-4.71679e-13
2.39345e-09
3.24362e-13
3.4927e-14
2.39389e-09
-1.00141e-12
2.372e-13
2.39412e-09
-8.26755e-14
-1.41688e-13
2.39437e-09
5.31316e-13
9.78181e-13
2.39427e-09
-1.72459e-12
-2.00227e-13
2.39442e-09
3.10646e-13
-5.86196e-14
2.39466e-09
-1.17125e-13
-5.03325e-14
2.39411e-09
-7.27632e-13
4.93652e-13
2.39451e-09
-1.89791e-15
-3.87566e-13
2.39355e-09
5.67439e-12
-1.57841e-12
2.39386e-09
4.63913e-12
-3.02549e-12
2.39419e-09
-4.73683e-13
-2.79137e-13
2.39544e-09
4.10109e-13
-5.02762e-13
2.39491e-09
1.18767e-13
2.52754e-13
2.39463e-09
2.08003e-13
1.24969e-13
2.39425e-09
3.52858e-13
-1.38458e-13
2.39439e-09
-1.56169e-12
7.76918e-13
2.3962e-09
-1.05462e-12
-1.30147e-12
2.3957e-09
5.20078e-13
-1.18871e-13
2.39569e-09
-4.34434e-14
3.07036e-14
2.39609e-09
-4.54566e-13
6.98825e-14
2.3971e-09
1.35431e-12
1.82252e-14
2.39444e-09
4.59623e-12
-3.79962e-12
2.39512e-09
-7.29096e-13
5.93862e-14
2.39519e-09
-1.25662e-12
4.4234e-13
2.39641e-09
-4.57952e-13
-4.83964e-13
2.39596e-09
2.40474e-13
2.12108e-13
2.39491e-09
6.70461e-13
8.58832e-13
-5.8286e-13
-4.01967e-13
3.20758e-09
-3.46653e-09
-3.90851e-09
1.35002e-09
4.45079e-09
-8.95582e-09
-2.28589e-09
-2.13882e-09
-2.87118e-09
-2.71256e-09
1.29415e-10
2.53719e-09
3.17978e-09
-1.31323e-08
-4.94488e-10
1.30112e-08
-1.0888e-09
2.6779e-09
4.22009e-09
1.18919e-08
-7.87327e-10
-1.49996e-09
-3.12796e-09
1.08511e-09
2.31179e-08
1.93127e-08
3.44664e-10
8.20345e-10
-6.68585e-10
-9.71447e-10
-1.88376e-08
-2.86982e-10
2.75235e-10
9.98501e-10
-1.02852e-09
2.29968e-10
-1.88205e-10
-1.61129e-10
-4.64596e-11
1.42929e-11
1.08528e-12
3.01043e-11
1.62106e-10
2.35714e-09
1.55268e-11
3.27855e-11
-6.05273e-10
-6.0184e-10
-6.05226e-10
-6.01816e-10
-3.66618e-12
1.55179e-11
-3.66903e-12
2.33479e-09
6.9839e-11
2.24356e-12
2.35029e-09
1.05275e-11
4.38916e-13
2.36267e-09
6.67986e-12
1.01998e-13
2.37288e-09
1.8414e-12
8.18255e-14
2.37984e-09
8.6068e-13
6.47018e-14
2.38492e-09
-5.16938e-13
-3.67053e-14
2.38853e-09
-5.22539e-13
5.25626e-14
2.38975e-09
1.30577e-13
4.18502e-15
2.39193e-09
-8.80065e-13
5.04292e-14
2.39263e-09
-3.88969e-13
3.83992e-13
2.39268e-09
-6.49823e-14
-4.19291e-14
2.39304e-09
-2.844e-14
-1.53252e-13
2.39317e-09
4.40975e-13
2.45553e-13
2.39335e-09
6.38439e-14
6.98617e-14
2.394e-09
-2.6513e-12
-5.59811e-13
2.39457e-09
1.0341e-12
-1.05287e-12
2.39427e-09
2.25921e-13
-2.08379e-13
2.39387e-09
2.00977e-14
-5.93921e-13
2.3942e-09
4.67335e-14
2.42857e-15
2.39427e-09
-2.79924e-13
6.08779e-14
2.3931e-09
4.07216e-12
-2.34867e-12
2.39293e-09
-3.7013e-13
9.1259e-13
2.39409e-09
5.28068e-13
2.13724e-12
2.39441e-09
8.0878e-13
1.81111e-12
2.39595e-09
-2.6992e-12
2.92641e-12
2.39599e-09
1.19632e-12
8.93565e-13
2.39486e-09
1.14216e-12
1.98299e-13
2.39527e-09
8.42354e-14
-9.1857e-14
2.39574e-09
-6.26508e-15
-3.8339e-14
2.39569e-09
-4.44253e-13
-6.72156e-13
2.39427e-09
-4.907e-13
1.31604e-12
2.39447e-09
2.35976e-13
1.34156e-13
2.39471e-09
-2.23801e-13
-1.19267e-14
2.39446e-09
-2.08615e-13
2.4821e-14
2.39442e-09
2.69868e-13
6.50075e-13
2.39705e-09
3.00407e-13
3.95231e-12
2.39641e-09
8.46772e-14
-3.68744e-14
2.39625e-09
-8.43156e-15
-5.1446e-13
2.39523e-09
8.57035e-14
3.1856e-13
2.39531e-09
3.51966e-13
-2.42959e-13
2.39577e-09
9.28451e-14
-7.17824e-13
-3.09386e-13
1.8288e-13
-3.60394e-11
-2.48858e-09
4.99764e-09
-2.65263e-09
-2.77887e-10
6.17816e-09
1.72507e-09
7.45639e-10
2.01145e-09
-5.31887e-10
-8.67702e-10
2.2683e-10
-3.16529e-10
-1.88122e-09
-5.49455e-09
-2.42277e-09
7.46248e-09
-4.39267e-09
1.35663e-09
5.86566e-09
-1.91705e-09
-1.62358e-08
-2.58927e-08
2.66713e-08
3.22099e-09
1.13236e-08
1.72583e-08
1.09782e-09
6.52305e-09
-1.14039e-08
-7.08298e-09
-2.21139e-09
-1.10311e-09
-1.65946e-09
-1.41837e-09
-1.83223e-09
-5.04244e-10
-6.54843e-11
-3.34373e-10
1.05734e-09
1.67899e-09
-1.10674e-10
1.00845e-10
-8.50955e-11
6.34025e-11
-5.87688e-11
9.02907e-11
-1.28367e-10
5.57236e-10
-7.38138e-12
-1.30151e-12
-1.94655e-12
-1.32014e-10
-1.33387e-10
-1.3731e-10
2.27128e-09
-4.8658e-11
1.99006e-11
-5.44832e-10
-5.51271e-10
-5.44839e-10
-5.51295e-10
2.31815e-09
-4.00999e-11
1.89805e-12
2.35021e-09
-2.40069e-11
-6.36785e-13
2.36806e-09
-1.56211e-11
-1.59929e-13
2.37906e-09
-9.87301e-12
-1.50231e-13
2.38478e-09
-6.26786e-12
3.12115e-15
2.38816e-09
-3.92578e-12
-1.45692e-14
2.39099e-09
-2.59453e-12
-4.35227e-14
2.39156e-09
-1.82572e-12
1.76128e-13
2.39326e-09
-9.00335e-13
2.47798e-13
2.39271e-09
4.51422e-13
1.07149e-13
2.39356e-09
-9.63621e-13
1.58334e-13
2.39369e-09
2.5438e-13
5.46048e-13
2.39458e-09
-7.94899e-13
-4.89747e-15
2.39399e-09
-1.03222e-12
-6.64152e-14
2.39336e-09
5.94304e-13
1.14604e-12
2.39307e-09
-1.19114e-12
1.24736e-12
2.39316e-09
-3.49763e-14
-1.11639e-13
2.39326e-09
-6.54774e-14
-2.38244e-14
2.39301e-09
6.03888e-13
-2.81602e-13
2.39418e-09
-6.99701e-13
1.83475e-12
2.39538e-09
-3.69048e-12
4.9445e-13
2.39522e-09
9.33569e-13
-1.16025e-13
2.39689e-09
-2.54745e-12
7.84473e-13
2.39472e-09
2.17238e-13
-2.72968e-12
2.39418e-09
2.63203e-13
-7.3091e-13
2.3948e-09
4.48553e-13
-3.70999e-14
2.39518e-09
-1.49225e-13
-1.8021e-14
2.39504e-09
8.92362e-14
8.32361e-14
2.395e-09
-8.91654e-14
4.17995e-14
2.39465e-09
-3.54748e-13
-2.83142e-15
2.39442e-09
-3.21543e-13
1.08713e-12
2.39432e-09
-3.65562e-14
-2.97068e-16
2.39488e-09
-4.6666e-13
-3.29811e-13
2.3955e-09
1.03682e-12
7.90878e-13
2.39666e-09
1.08451e-12
-7.43672e-13
2.39638e-09
1.06691e-12
-3.20395e-13
2.39614e-09
6.538e-13
-2.36835e-13
2.39576e-09
3.6146e-13
9.66234e-14
2.39516e-09
8.53844e-13
6.6361e-14
2.39497e-09
4.32966e-13
-8.69676e-14
-2.33571e-12
1.4289e-12
-1.83641e-09
-2.63187e-09
4.39556e-09
6.12912e-10
-3.35774e-09
-2.86475e-10
-6.83823e-10
-2.68806e-09
-7.12332e-09
1.53411e-09
4.66768e-09
-1.67216e-09
-2.10682e-09
-3.32953e-09
9.06769e-10
-1.84279e-09
-1.5153e-09
-2.00316e-09
3.02364e-09
-2.26422e-10
2.56403e-09
-1.13393e-08
3.73439e-10
7.11059e-09
-7.13611e-09
8.62004e-10
1.01294e-08
1.14329e-09
-6.19779e-10
2.59642e-10
-4.29874e-10
5.25656e-10
-8.78938e-10
-2.33957e-10
1.07024e-11
-1.21046e-10
1.85384e-10
2.26816e-11
1.36235e-10
-1.42974e-10
5.70512e-10
-3.7035e-11
-1.40717e-12
-1.03189e-11
-1.28116e-10
-1.49477e-10
-1.32685e-10
3.15017e-11
2.3165e-09
-1.30416e-10
2.17842e-11
-5.75659e-10
-5.63454e-10
-5.75691e-10
-5.635e-10
2.34614e-09
-7.46383e-11
2.49246e-12
2.36781e-09
-4.44262e-11
-5.49746e-13
2.37846e-09
-2.6662e-11
2.16685e-13
2.38492e-09
-1.63021e-11
9.49221e-15
2.38861e-09
-9.97596e-12
-8.15552e-15
2.39061e-09
-5.96133e-12
-7.40911e-15
2.39157e-09
-3.60715e-12
-3.67608e-15
2.39244e-09
-2.41368e-12
-1.72411e-13
2.39245e-09
-1.5207e-12
-6.71137e-13
2.3941e-09
-1.42418e-12
9.5726e-14
2.39372e-09
-6.14311e-13
9.23243e-14
2.39446e-09
-6.98144e-13
-7.24797e-13
2.39408e-09
-3.98235e-13
-6.66631e-14
2.39363e-09
-5.46356e-13
8.13518e-13
2.39369e-09
-5.56756e-13
3.98251e-13
2.39427e-09
8.80662e-14
-1.32605e-12
2.39422e-09
-1.67043e-13
1.71661e-13
2.39418e-09
9.2182e-14
5.77081e-15
2.39441e-09
-1.39392e-12
9.18586e-13
2.39545e-09
-4.19892e-12
1.28556e-12
2.39432e-09
1.38443e-13
-1.28856e-12
2.39425e-09
9.29967e-13
7.54282e-14
2.39424e-09
-1.00831e-12
-1.60273e-12
2.39459e-09
1.21999e-13
-1.27978e-13
2.39453e-09
3.79313e-13
-2.37961e-14
2.39516e-09
6.77573e-13
-8.57895e-13
2.39509e-09
-2.26045e-14
8.33849e-14
2.39511e-09
1.48968e-14
1.40358e-13
2.3951e-09
-1.13084e-13
4.07388e-14
2.39455e-09
-4.38535e-13
1.13279e-12
2.39473e-09
-4.28535e-13
-1.38386e-12
2.39455e-09
3.19212e-13
-5.67983e-14
2.39659e-09
-3.69003e-12
1.70826e-13
2.39559e-09