/*--------------------------------*- C++ -*----------------------------------*\
| =========                 |                                                 |
| \\      /  F ield         | OpenFOAM: The Open Source CFD Toolbox           |
|  \\    /   O peration     | Version:  5.0                                   |
|   \\  /    A nd           | Web:      www.OpenFOAM.org                      |
|    \\/     M anipulation  |                                                 |
\*---------------------------------------------------------------------------*/
FoamFile
{
    version     2.0;
    format      ascii;
    class       volScalarField;
    location    "2.7";
    object      rAU;
}
// * * * * * * * * * * * * * * * * * * * * * * * * * * * * * * * * * * * * * //

dimensions      [-1 3 1 0 0 0 0];

internalField   nonuniform List<scalar> 
7562
(
9.58598e-07
9.61296e-07
9.50069e-07
8.50621e-07
8.75124e-07
6.90667e-07
3.4793e-08
3.9242e-07
3.93663e-07
3.94696e-07
3.9573e-07
3.96762e-07
3.97794e-07
3.98826e-07
3.99856e-07
4.00885e-07
4.01915e-07
4.02943e-07
4.03971e-07
4.04998e-07
4.06024e-07
4.07049e-07
4.08074e-07
4.09098e-07
4.10121e-07
4.11144e-07
4.12166e-07
4.13187e-07
4.14207e-07
4.15227e-07
4.16245e-07
4.17264e-07
4.18281e-07
4.19297e-07
4.20313e-07
4.21327e-07
4.22341e-07
4.23355e-07
4.24367e-07
4.25378e-07
4.2639e-07
4.27399e-07
4.28408e-07
4.29417e-07
4.30424e-07
4.31431e-07
4.32437e-07
4.33442e-07
4.34445e-07
4.36221e-07
9.65308e-07
9.7148e-07
9.52672e-07
9.50183e-07
8.81379e-07
6.92709e-07
3.51424e-08
3.92286e-07
3.93662e-07
3.94697e-07
3.9573e-07
3.96762e-07
3.97794e-07
3.98826e-07
3.99856e-07
4.00885e-07
4.01915e-07
4.02943e-07
4.03971e-07
4.04998e-07
4.06024e-07
4.07049e-07
4.08074e-07
4.09098e-07
4.10121e-07
4.11144e-07
4.12166e-07
4.13187e-07
4.14207e-07
4.15227e-07
4.16245e-07
4.17264e-07
4.1828e-07
4.19297e-07
4.20313e-07
4.21327e-07
4.22341e-07
4.23355e-07
4.24367e-07
4.25378e-07
4.2639e-07
4.27399e-07
4.28408e-07
4.29417e-07
4.30424e-07
4.31431e-07
4.32437e-07
4.33442e-07
4.34445e-07
4.36221e-07
9.69414e-07
9.67454e-07
8.85402e-07
8.67036e-07
8.86443e-07
6.91994e-07
1.02059e-07
1.29779e-07
3.93454e-07
3.94697e-07
3.9573e-07
3.96762e-07
3.97794e-07
3.98825e-07
3.99856e-07
4.00885e-07
4.01915e-07
4.02943e-07
4.03971e-07
4.04998e-07
4.06024e-07
4.07049e-07
4.08074e-07
4.09098e-07
4.10121e-07
4.11144e-07
4.12166e-07
4.13187e-07
4.14207e-07
4.15227e-07
4.16245e-07
4.17264e-07
4.1828e-07
4.19297e-07
4.20313e-07
4.21327e-07
4.22341e-07
4.23355e-07
4.24367e-07
4.25378e-07
4.2639e-07
4.27399e-07
4.28408e-07
4.29417e-07
4.30424e-07
4.31431e-07
4.32437e-07
4.33442e-07
4.34445e-07
4.36221e-07
9.72057e-07
9.55137e-07
7.17962e-07
8.00249e-07
5.88845e-07
6.23226e-07
6.99919e-07
1.2972e-07
3.93453e-07
3.94696e-07
3.9573e-07
3.96762e-07
3.97794e-07
3.98825e-07
3.99856e-07
4.00885e-07
4.01915e-07
4.02943e-07
4.03971e-07
4.04998e-07
4.06024e-07
4.07049e-07
4.08074e-07
4.09098e-07
4.10121e-07
4.11144e-07
4.12166e-07
4.13187e-07
4.14207e-07
4.15227e-07
4.16245e-07
4.17264e-07
4.18281e-07
4.19297e-07
4.20313e-07
4.21327e-07
4.22341e-07
4.23355e-07
4.24367e-07
4.25378e-07
4.2639e-07
4.27399e-07
4.28408e-07
4.29417e-07
4.30424e-07
4.31431e-07
4.32437e-07
4.33442e-07
4.34446e-07
4.36221e-07
9.7015e-07
9.22988e-07
8.67409e-07
7.67818e-07
5.69656e-07
6.80881e-07
7.01065e-07
1.29682e-07
3.93451e-07
3.94695e-07
3.95729e-07
3.96762e-07
3.97794e-07
3.98825e-07
3.99856e-07
4.00885e-07
4.01915e-07
4.02943e-07
4.03971e-07
4.04998e-07
4.06024e-07
4.07049e-07
4.08074e-07
4.09098e-07
4.10121e-07
4.11144e-07
4.12166e-07
4.13187e-07
4.14207e-07
4.15227e-07
4.16245e-07
4.17264e-07
4.18281e-07
4.19297e-07
4.20313e-07
4.21327e-07
4.22341e-07
4.23355e-07
4.24367e-07
4.25378e-07
4.2639e-07
4.27399e-07
4.28408e-07
4.29417e-07
4.30424e-07
4.31431e-07
4.32437e-07
4.33442e-07
4.34445e-07
4.36221e-07
9.72226e-07
9.46672e-07
6.31395e-07
8.80739e-07
6.08877e-07
5.06639e-07
7.0102e-07
3.5048e-08
3.93451e-07
3.94695e-07
3.95729e-07
3.96762e-07
3.97794e-07
3.98825e-07
3.99856e-07
4.00885e-07
4.01915e-07
4.02943e-07
4.03971e-07
4.04998e-07
4.06024e-07
4.07049e-07
4.08074e-07
4.09098e-07
4.10121e-07
4.11144e-07
4.12166e-07
4.13187e-07
4.14207e-07
4.15227e-07
4.16245e-07
4.17264e-07
4.18281e-07
4.19297e-07
4.20313e-07
4.21327e-07
4.22341e-07
4.23355e-07
4.24367e-07
4.25378e-07
4.26389e-07
4.27399e-07
4.28408e-07
4.29417e-07
4.30424e-07
4.31431e-07
4.32437e-07
4.33442e-07
4.34445e-07
4.36221e-07
9.59355e-07
8.9204e-07
1.3895e-07
8.78715e-07
8.41746e-07
6.86323e-07
7.00358e-07
1.29728e-07
3.93451e-07
3.94695e-07
3.95729e-07
3.96762e-07
3.97794e-07
3.98825e-07
3.99856e-07
4.00885e-07
4.01915e-07
4.02943e-07
4.03971e-07
4.04998e-07
4.06024e-07
4.07049e-07
4.08074e-07
4.09098e-07
4.10121e-07
4.11144e-07
4.12166e-07
4.13187e-07
4.14207e-07
4.15227e-07
4.16245e-07
4.17264e-07
4.18281e-07
4.19297e-07
4.20313e-07
4.21327e-07
4.22341e-07
4.23355e-07
4.24367e-07
4.25378e-07
4.2639e-07
4.27399e-07
4.28408e-07
4.29417e-07
4.30424e-07
4.31431e-07
4.32437e-07
4.33442e-07
4.34445e-07
4.36221e-07
9.68361e-07
9.23312e-07
8.72382e-07
8.6146e-07
8.86664e-07
6.89772e-07
6.9475e-07
1.29689e-07
3.93452e-07
3.94695e-07
3.95729e-07
3.96762e-07
3.97794e-07
3.98825e-07
3.99856e-07
4.00885e-07
4.01915e-07
4.02943e-07
4.0397e-07
4.04998e-07
4.06024e-07
4.07049e-07
4.08074e-07
4.09098e-07
4.10121e-07
4.11144e-07
4.12166e-07
4.13187e-07
4.14207e-07
4.15227e-07
4.16245e-07
4.17264e-07
4.18281e-07
4.19297e-07
4.20313e-07
4.21327e-07
4.22341e-07
4.23355e-07
4.24367e-07
4.25378e-07
4.2639e-07
4.27399e-07
4.28408e-07
4.29417e-07
4.30424e-07
4.31431e-07
4.32437e-07
4.33442e-07
4.34445e-07
4.36221e-07
9.63255e-07
9.58539e-07
8.47529e-07
6.19406e-07
5.39619e-07
6.5238e-07
8.12833e-08
3.92285e-07
3.93662e-07
3.94696e-07
3.95729e-07
3.96762e-07
3.97794e-07
3.98825e-07
3.99856e-07
4.00885e-07
4.01915e-07
4.02943e-07
4.03971e-07
4.04998e-07
4.06024e-07
4.07049e-07
4.08074e-07
4.09098e-07
4.10121e-07
4.11144e-07
4.12166e-07
4.13187e-07
4.14207e-07
4.15227e-07
4.16245e-07
4.17264e-07
4.18281e-07
4.19297e-07
4.20313e-07
4.21327e-07
4.22341e-07
4.23355e-07
4.24367e-07
4.25378e-07
4.2639e-07
4.27399e-07
4.28408e-07
4.29417e-07
4.30424e-07
4.31431e-07
4.32437e-07
4.33442e-07
4.34445e-07
4.36221e-07
9.63781e-07
9.60553e-07
8.74966e-07
5.99268e-07
6.26601e-07
6.90018e-07
3.52493e-08
3.9242e-07
3.93662e-07
3.94696e-07
3.9573e-07
3.96762e-07
3.97794e-07
3.98825e-07
3.99856e-07
4.00885e-07
4.01915e-07
4.02943e-07
4.03971e-07
4.04998e-07
4.06024e-07
4.07049e-07
4.08074e-07
4.09098e-07
4.10121e-07
4.11144e-07
4.12166e-07
4.13187e-07
4.14207e-07
4.15227e-07
4.16245e-07
4.17264e-07
4.18281e-07
4.19297e-07
4.20313e-07
4.21327e-07
4.22341e-07
4.23355e-07
4.24367e-07
4.25378e-07
4.2639e-07
4.27399e-07
4.28408e-07
4.29417e-07
4.30424e-07
4.31431e-07
4.32437e-07
4.33442e-07
4.34445e-07
4.36221e-07
9.7243e-07
8.64759e-07
8.04026e-07
8.25382e-07
4.41798e-07
6.27621e-07
5.13824e-08
5.04898e-07
5.06386e-07
5.07526e-07
5.08664e-07
5.09801e-07
5.10937e-07
5.1207e-07
5.13202e-07
5.14333e-07
5.15461e-07
5.16589e-07
5.17715e-07
5.18839e-07
5.19961e-07
5.21083e-07
5.22201e-07
5.23319e-07
5.24435e-07
5.25549e-07
5.26662e-07
5.27774e-07
5.28882e-07
5.29991e-07
5.31097e-07
5.32201e-07
5.33304e-07
5.34406e-07
5.35504e-07
5.36603e-07
5.37699e-07
5.38793e-07
5.39886e-07
5.40978e-07
5.42067e-07
5.43155e-07
5.44241e-07
5.45325e-07
5.46409e-07
5.4749e-07
5.48569e-07
5.49647e-07
5.50724e-07
5.53038e-07
9.66506e-07
9.38923e-07
8.17796e-07
6.85151e-07
7.86886e-07
7.46792e-07
5.19795e-08
5.04675e-07
5.06385e-07
5.07526e-07
5.08664e-07
5.09801e-07
5.10937e-07
5.1207e-07
5.13202e-07
5.14333e-07
5.15461e-07
5.16589e-07
5.17715e-07
5.18839e-07
5.19961e-07
5.21083e-07
5.22201e-07
5.23319e-07
5.24435e-07
5.25549e-07
5.26662e-07
5.27774e-07
5.28882e-07
5.29991e-07
5.31097e-07
5.32201e-07
5.33304e-07
5.34405e-07
5.35504e-07
5.36603e-07
5.37699e-07
5.38793e-07
5.39886e-07
5.40978e-07
5.42067e-07
5.43155e-07
5.44242e-07
5.45325e-07
5.46409e-07
5.4749e-07
5.48569e-07
5.49647e-07
5.50724e-07
5.53038e-07
9.71793e-07
9.69214e-07
7.87803e-07
9.07435e-07
8.94888e-07
7.4266e-07
1.45273e-07
1.84068e-07
5.0604e-07
5.07527e-07
5.08664e-07
5.09801e-07
5.10937e-07
5.1207e-07
5.13202e-07
5.14333e-07
5.15461e-07
5.16589e-07
5.17715e-07
5.18839e-07
5.19961e-07
5.21083e-07
5.22201e-07
5.23319e-07
5.24436e-07
5.25549e-07
5.26662e-07
5.27774e-07
5.28882e-07
5.2999e-07
5.31097e-07
5.32201e-07
5.33304e-07
5.34406e-07
5.35504e-07
5.36603e-07
5.37699e-07
5.38793e-07
5.39886e-07
5.40978e-07
5.42067e-07
5.43155e-07
5.44241e-07
5.45325e-07
5.46409e-07
5.4749e-07
5.48569e-07
5.49647e-07
5.50724e-07
5.53038e-07
9.59542e-07
8.67624e-07
3.3568e-07
5.4572e-07
6.26784e-07
5.9926e-07
7.74608e-07
1.83948e-07
5.06036e-07
5.07524e-07
5.08663e-07
5.098e-07
5.10936e-07
5.12069e-07
5.13202e-07
5.14333e-07
5.15461e-07
5.16589e-07
5.17715e-07
5.18839e-07
5.19961e-07
5.21083e-07
5.22201e-07
5.23319e-07
5.24435e-07
5.25549e-07
5.26662e-07
5.27774e-07
5.28882e-07
5.2999e-07
5.31097e-07
5.32201e-07
5.33304e-07
5.34406e-07
5.35504e-07
5.36603e-07
5.37699e-07
5.38793e-07
5.39886e-07
5.40978e-07
5.42067e-07
5.43155e-07
5.44241e-07
5.45325e-07
5.46409e-07
5.4749e-07
5.48569e-07
5.49647e-07
5.50724e-07
5.53038e-07
9.78895e-07
8.72498e-07
8.58839e-07
2.82717e-07
5.26428e-07
6.89258e-07
7.77103e-07
1.83874e-07
5.06031e-07
5.07522e-07
5.08662e-07
5.098e-07
5.10936e-07
5.12069e-07
5.13202e-07
5.14333e-07
5.15461e-07
5.16589e-07
5.17715e-07
5.18839e-07
5.19961e-07
5.21083e-07
5.22201e-07
5.23319e-07
5.24436e-07
5.25549e-07
5.26662e-07
5.27774e-07
5.28882e-07
5.29991e-07
5.31097e-07
5.32201e-07
5.33304e-07
5.34406e-07
5.35504e-07
5.36603e-07
5.37699e-07
5.38793e-07
5.39886e-07
5.40978e-07
5.42067e-07
5.43155e-07
5.44241e-07
5.45325e-07
5.46409e-07
5.4749e-07
5.48569e-07
5.49647e-07
5.50724e-07
5.53038e-07
9.66569e-07
7.77083e-07
8.73342e-07
8.6614e-07
8.35899e-07
6.27835e-07
7.76267e-07
5.19883e-08
5.06031e-07
5.07522e-07
5.08661e-07
5.098e-07
5.10936e-07
5.12069e-07
5.13202e-07
5.14333e-07
5.15461e-07
5.16589e-07
5.17715e-07
5.18839e-07
5.19961e-07
5.21083e-07
5.22201e-07
5.23319e-07
5.24436e-07
5.25549e-07
5.26662e-07
5.27774e-07
5.28882e-07
5.2999e-07
5.31097e-07
5.32201e-07
5.33304e-07
5.34406e-07
5.35504e-07
5.36603e-07
5.37699e-07
5.38793e-07
5.39886e-07
5.40978e-07
5.42067e-07
5.43155e-07
5.44242e-07
5.45325e-07
5.46409e-07
5.4749e-07
5.48569e-07
5.49647e-07
5.50724e-07
5.53038e-07
9.65142e-07
8.87346e-07
2.56626e-07
8.94905e-07
9.00693e-07
7.34192e-07
7.73198e-07
1.83959e-07
5.06032e-07
5.07522e-07
5.08662e-07
5.098e-07
5.10936e-07
5.12069e-07
5.13202e-07
5.14333e-07
5.15461e-07
5.16589e-07
5.17715e-07
5.18838e-07
5.19961e-07
5.21083e-07
5.22201e-07
5.23319e-07
5.24435e-07
5.25549e-07
5.26662e-07
5.27774e-07
5.28882e-07
5.2999e-07
5.31097e-07
5.32201e-07
5.33304e-07
5.34406e-07
5.35504e-07
5.36603e-07
5.37699e-07
5.38793e-07
5.39886e-07
5.40978e-07
5.42067e-07
5.43155e-07
5.44242e-07
5.45325e-07
5.46409e-07
5.4749e-07
5.48569e-07
5.49647e-07
5.50724e-07
5.53038e-07
9.68265e-07
8.49117e-07
8.55321e-07
9.18138e-07
9.25125e-07
7.30576e-07
7.71628e-07
1.83945e-07
5.06034e-07
5.07523e-07
5.08662e-07
5.098e-07
5.10936e-07
5.12069e-07
5.13202e-07
5.14333e-07
5.15461e-07
5.16589e-07
5.17715e-07
5.18839e-07
5.19961e-07
5.21083e-07
5.22201e-07
5.23319e-07
5.24435e-07
5.25549e-07
5.26662e-07
5.27774e-07
5.28882e-07
5.29991e-07
5.31097e-07
5.32201e-07
5.33304e-07
5.34406e-07
5.35504e-07
5.36603e-07
5.37699e-07
5.38793e-07
5.39886e-07
5.40978e-07
5.42067e-07
5.43155e-07
5.44242e-07
5.45325e-07
5.46409e-07
5.4749e-07
5.48569e-07
5.49647e-07
5.50724e-07
5.53038e-07
9.72347e-07
9.71516e-07
9.02313e-07
4.35425e-07
5.7553e-07
6.7219e-07
1.17426e-07
5.04671e-07
5.06383e-07
5.07524e-07
5.08662e-07
5.098e-07
5.10936e-07
5.12069e-07
5.13202e-07
5.14333e-07
5.15461e-07
5.16589e-07
5.17715e-07
5.18839e-07
5.19961e-07
5.21083e-07
5.22201e-07
5.23319e-07
5.24435e-07
5.25549e-07
5.26662e-07
5.27774e-07
5.28882e-07
5.2999e-07
5.31097e-07
5.32201e-07
5.33304e-07
5.34406e-07
5.35504e-07
5.36603e-07
5.37699e-07
5.38793e-07
5.39886e-07
5.40978e-07
5.42067e-07
5.43155e-07
5.44242e-07
5.45325e-07
5.46409e-07
5.4749e-07
5.48569e-07
5.49647e-07
5.50723e-07
5.53038e-07
9.6522e-07
9.6781e-07
8.98614e-07
4.13164e-07
5.74033e-07
7.46598e-07
5.22519e-08
5.04896e-07
5.06385e-07
5.07525e-07
5.08663e-07
5.09801e-07
5.10936e-07
5.12069e-07
5.13202e-07
5.14333e-07
5.15461e-07
5.16589e-07
5.17715e-07
5.18839e-07
5.19961e-07
5.21083e-07
5.22201e-07
5.23319e-07
5.24436e-07
5.25549e-07
5.26662e-07
5.27774e-07
5.28882e-07
5.29991e-07
5.31097e-07
5.32201e-07
5.33304e-07
5.34406e-07
5.35504e-07
5.36603e-07
5.37699e-07
5.38793e-07
5.39886e-07
5.40978e-07
5.42067e-07
5.43155e-07
5.44241e-07
5.45325e-07
5.46409e-07
5.4749e-07
5.48569e-07
5.49647e-07
5.50723e-07
5.53038e-07
9.54357e-07
7.8441e-07
3.67808e-07
3.26754e-07
6.13111e-07
7.07325e-07
5.12724e-08
3.9242e-07
3.93663e-07
3.94696e-07
3.9573e-07
3.96762e-07
3.97794e-07
3.98825e-07
3.99856e-07
4.00885e-07
4.01915e-07
4.02943e-07
4.0397e-07
4.04998e-07
4.06024e-07
4.07049e-07
4.08074e-07
4.09098e-07
4.10121e-07
4.11144e-07
4.12166e-07
4.13187e-07
4.14207e-07
4.15227e-07
4.16245e-07
4.17263e-07
4.1828e-07
4.19297e-07
4.20313e-07
4.21327e-07
4.22341e-07
4.23355e-07
4.24367e-07
4.25378e-07
4.26389e-07
4.27399e-07
4.28408e-07
4.29417e-07
4.30424e-07
4.31431e-07
4.32437e-07
4.33442e-07
4.34445e-07
4.36221e-07
9.64651e-07
8.27296e-07
3.86851e-07
8.31639e-07
8.60924e-07
6.97327e-07
5.19617e-08
3.92286e-07
3.93662e-07
3.94697e-07
3.9573e-07
3.96762e-07
3.97794e-07
3.98825e-07
3.99856e-07
4.00885e-07
4.01915e-07
4.02943e-07
4.03971e-07
4.04998e-07
4.06024e-07
4.07049e-07
4.08074e-07
4.09098e-07
4.10121e-07
4.11144e-07
4.12166e-07
4.13187e-07
4.14207e-07
4.15227e-07
4.16245e-07
4.17263e-07
4.1828e-07
4.19297e-07
4.20313e-07
4.21327e-07
4.22341e-07
4.23355e-07
4.24367e-07
4.25378e-07
4.26389e-07
4.27399e-07
4.28408e-07
4.29417e-07
4.30424e-07
4.31431e-07
4.32437e-07
4.33442e-07
4.34445e-07
4.36221e-07
9.65886e-07
9.6491e-07
8.00711e-07
7.22551e-07
8.71217e-07
7.65113e-07
1.45379e-07
1.84072e-07
3.93454e-07
3.94697e-07
3.9573e-07
3.96762e-07
3.97794e-07
3.98825e-07
3.99856e-07
4.00885e-07
4.01915e-07
4.02943e-07
4.0397e-07
4.04998e-07
4.06024e-07
4.07049e-07
4.08074e-07
4.09098e-07
4.10121e-07
4.11144e-07
4.12166e-07
4.13187e-07
4.14207e-07
4.15227e-07
4.16245e-07
4.17263e-07
4.1828e-07
4.19297e-07
4.20313e-07
4.21327e-07
4.22341e-07
4.23355e-07
4.24367e-07
4.25378e-07
4.26389e-07
4.27399e-07
4.28408e-07
4.29417e-07
4.30424e-07
4.31431e-07
4.32437e-07
4.33442e-07
4.34445e-07
4.36221e-07
9.62747e-07
9.16786e-07
6.05841e-07
6.58882e-07
8.80276e-07
6.43928e-07
7.7458e-07
1.83953e-07
3.93453e-07
3.94696e-07
3.9573e-07
3.96762e-07
3.97794e-07
3.98825e-07
3.99856e-07
4.00885e-07
4.01915e-07
4.02943e-07
4.0397e-07
4.04998e-07
4.06024e-07
4.07049e-07
4.08074e-07
4.09098e-07
4.10121e-07
4.11144e-07
4.12166e-07
4.13187e-07
4.14207e-07
4.15227e-07
4.16245e-07
4.17263e-07
4.1828e-07
4.19297e-07
4.20313e-07
4.21327e-07
4.22341e-07
4.23355e-07
4.24367e-07
4.25378e-07
4.26389e-07
4.27399e-07
4.28408e-07
4.29417e-07
4.30424e-07
4.31431e-07
4.32437e-07
4.33442e-07
4.34445e-07
4.36221e-07
9.63856e-07
8.4987e-07
1.91278e-07
7.09869e-07
4.73896e-07
6.9452e-07
7.76824e-07
1.83877e-07
3.93451e-07
3.94695e-07
3.95729e-07
3.96762e-07
3.97794e-07
3.98825e-07
3.99856e-07
4.00885e-07
4.01915e-07
4.02943e-07
4.0397e-07
4.04998e-07
4.06024e-07
4.07049e-07
4.08074e-07
4.09098e-07
4.10121e-07
4.11144e-07
4.12166e-07
4.13187e-07
4.14207e-07
4.15227e-07
4.16245e-07
4.17263e-07
4.1828e-07
4.19297e-07
4.20313e-07
4.21327e-07
4.22341e-07
4.23355e-07
4.24367e-07
4.25378e-07
4.26389e-07
4.27399e-07
4.28408e-07
4.29417e-07
4.30424e-07
4.31431e-07
4.32437e-07
4.33441e-07
4.34445e-07
4.36221e-07
9.61928e-07
7.29586e-07
8.74242e-07
8.92457e-07
6.84239e-07
6.0249e-07
7.75849e-07
5.19884e-08
3.93451e-07
3.94695e-07
3.95729e-07
3.96762e-07
3.97794e-07
3.98825e-07
3.99856e-07
4.00885e-07
4.01915e-07
4.02943e-07
4.0397e-07
4.04998e-07
4.06024e-07
4.07049e-07
4.08074e-07
4.09098e-07
4.10121e-07
4.11144e-07
4.12166e-07
4.13187e-07
4.14207e-07
4.15227e-07
4.16245e-07
4.17264e-07
4.1828e-07
4.19297e-07
4.20313e-07
4.21327e-07
4.22341e-07
4.23355e-07
4.24367e-07
4.25378e-07
4.26389e-07
4.27399e-07
4.28408e-07
4.29417e-07
4.30424e-07
4.31431e-07
4.32437e-07
4.33441e-07
4.34445e-07
4.36221e-07
9.67747e-07
8.8042e-07
2.86158e-07
8.03053e-07
9.03404e-07
7.20877e-07
7.73736e-07
1.83962e-07
3.93451e-07
3.94695e-07
3.95729e-07
3.96762e-07
3.97794e-07
3.98825e-07
3.99856e-07
4.00885e-07
4.01915e-07
4.02943e-07
4.0397e-07
4.04998e-07
4.06024e-07
4.07049e-07
4.08074e-07
4.09098e-07
4.10121e-07
4.11144e-07
4.12166e-07
4.13187e-07
4.14207e-07
4.15227e-07
4.16245e-07
4.17263e-07
4.1828e-07
4.19297e-07
4.20313e-07
4.21327e-07
4.22341e-07
4.23355e-07
4.24367e-07
4.25378e-07
4.26389e-07
4.27399e-07
4.28408e-07
4.29417e-07
4.30424e-07
4.31431e-07
4.32437e-07
4.33442e-07
4.34445e-07
4.36221e-07
9.56028e-07
9.17608e-07
9.08375e-07
9.02387e-07
8.21362e-07
7.36501e-07
7.71693e-07
1.83951e-07
3.93452e-07
3.94695e-07
3.95729e-07
3.96762e-07
3.97794e-07
3.98825e-07
3.99856e-07
4.00885e-07
4.01915e-07
4.02943e-07
4.0397e-07
4.04998e-07
4.06024e-07
4.07049e-07
4.08074e-07
4.09098e-07
4.10121e-07
4.11144e-07
4.12166e-07
4.13187e-07
4.14207e-07
4.15227e-07
4.16245e-07
4.17263e-07
4.1828e-07
4.19297e-07
4.20313e-07
4.21327e-07
4.22341e-07
4.23355e-07
4.24367e-07
4.25378e-07
4.26389e-07
4.27399e-07
4.28408e-07
4.29417e-07
4.30424e-07
4.31431e-07
4.32437e-07
4.33442e-07
4.34445e-07
4.36221e-07
9.62612e-07
9.64457e-07
9.28546e-07
7.39202e-07
7.70379e-07
7.17189e-07
1.17329e-07
3.92285e-07
3.93662e-07
3.94696e-07
3.95729e-07
3.96762e-07
3.97794e-07
3.98825e-07
3.99856e-07
4.00885e-07
4.01915e-07
4.02943e-07
4.0397e-07
4.04998e-07
4.06024e-07
4.07049e-07
4.08074e-07
4.09098e-07
4.10121e-07
4.11144e-07
4.12166e-07
4.13187e-07
4.14207e-07
4.15227e-07
4.16245e-07
4.17264e-07
4.1828e-07
4.19297e-07
4.20313e-07
4.21327e-07
4.22341e-07
4.23355e-07
4.24367e-07
4.25378e-07
4.26389e-07
4.27399e-07
4.28408e-07
4.29417e-07
4.30424e-07
4.31431e-07
4.32437e-07
4.33442e-07
4.34445e-07
4.36221e-07
9.63639e-07
9.68368e-07
8.89205e-07
4.36748e-07
4.48883e-07
7.51953e-07
5.22078e-08
3.92419e-07
3.93662e-07
3.94696e-07
3.9573e-07
3.96762e-07
3.97794e-07
3.98825e-07
3.99856e-07
4.00885e-07
4.01915e-07
4.02943e-07
4.0397e-07
4.04998e-07
4.06024e-07
4.07049e-07
4.08074e-07
4.09098e-07
4.10121e-07
4.11144e-07
4.12166e-07
4.13187e-07
4.14207e-07
4.15227e-07
4.16245e-07
4.17263e-07
4.1828e-07
4.19297e-07
4.20313e-07
4.21327e-07
4.22341e-07
4.23355e-07
4.24367e-07
4.25378e-07
4.26389e-07
4.27399e-07
4.28408e-07
4.29417e-07
4.30424e-07
4.31431e-07
4.32437e-07
4.33442e-07
4.34445e-07
4.36221e-07
4.1706e-08
6.82061e-07
4.75791e-08
7.07956e-07
6.1802e-08
7.19161e-07
7.05173e-08
6.54918e-08
6.831e-07
6.45414e-07
7.62427e-07
9.53199e-08
7.39053e-07
6.92494e-07
6.9632e-07
6.87497e-07
7.00767e-07
7.47733e-07
7.70384e-07
6.28451e-07
7.76335e-07
6.99332e-07
6.79567e-07
7.00998e-07
6.27075e-07
7.73594e-07
6.89606e-07
7.7378e-07
6.98704e-07
6.72564e-07
7.00012e-07
6.94456e-07
7.7395e-07
7.46685e-07
7.77001e-07
6.99446e-07
6.79223e-07
7.00061e-07
6.23872e-07
7.76025e-07
7.29861e-07
7.74107e-07
6.99566e-07
6.88377e-07
7.01259e-07
7.62027e-07
7.73869e-07
7.06772e-07
7.76282e-07
6.99589e-07
6.51733e-07
6.97852e-07
7.3615e-07
7.73059e-07
6.08957e-07
7.70079e-07
6.94484e-07
6.21174e-07
1.01565e-07
6.94635e-07
7.68718e-07
5.63708e-07
1.44456e-07
7.0879e-08
5.32716e-07
3.98607e-08
7.64218e-07
1.02839e-07
6.71247e-07
5.91824e-08
6.1929e-08
7.19654e-07
7.06637e-08
6.8431e-07
6.18436e-08
7.16368e-07
7.0436e-08
9.53832e-08
7.31445e-07
6.86812e-07
7.27318e-07
9.5391e-08
6.91494e-07
6.83253e-07
7.70949e-07
6.01063e-07
7.76092e-07
7.62991e-07
7.71511e-07
6.62625e-07
7.75929e-07
7.74619e-07
6.82938e-07
7.7288e-07
6.38445e-07
7.74485e-07
7.03013e-07
7.76232e-07
7.74019e-07
7.54922e-07
7.75353e-07
6.87217e-07
7.72924e-07
7.25101e-07
7.7602e-07
7.74685e-07
7.27294e-07
7.73701e-07
6.3528e-07
7.78065e-07
7.19573e-07
7.76286e-07
7.72458e-07
7.11847e-07
7.7589e-07
6.76725e-07
7.74041e-07
6.82484e-07
7.76124e-07
7.73457e-07
6.00555e-07
7.70142e-07
7.43675e-07
7.73897e-07
6.29754e-07
7.71175e-07
7.68558e-07
5.38308e-07
1.44355e-07
6.78792e-07
7.68219e-07
5.95478e-07
1.44408e-07
1.02939e-07
6.90914e-07
5.91419e-08
7.48149e-07
1.03063e-07
7.10163e-07
5.84879e-08
6.17256e-08
6.99766e-07
7.0092e-08
6.34008e-07
4.1568e-08
6.16297e-07
4.75643e-08
9.53473e-08
7.15892e-07
6.89677e-07
6.82378e-07
6.55134e-08
6.87986e-07
6.44479e-07
7.71505e-07
6.43749e-07
7.75011e-07
6.77592e-07
6.96166e-07
6.9169e-07
7.00626e-07
7.75058e-07
6.94424e-07
7.74881e-07
6.21926e-07
6.98818e-07
6.56209e-07
7.00897e-07
7.72873e-07
7.38839e-07
7.75354e-07
6.84262e-07
6.99534e-07
6.74264e-07
6.99904e-07
7.77047e-07
7.22558e-07
7.75849e-07
5.986e-07
7.00223e-07
6.85765e-07
7.00294e-07
7.72543e-07
6.97901e-07
7.75923e-07
6.75784e-07
6.99856e-07
6.83229e-07
7.00142e-07
7.74258e-07
6.62169e-07
7.72144e-07
6.80595e-07
7.01066e-07
6.64934e-07
6.981e-07
7.68485e-07
6.20106e-07
1.4449e-07
6.75974e-07
6.94478e-07
6.79317e-07
1.01436e-07
1.03042e-07
7.11553e-07
5.83008e-08
6.97579e-07
7.10799e-08
6.61764e-07
3.94709e-08
8.66999e-07
7.57731e-07
8.89211e-07
8.16684e-07
7.17787e-07
7.67559e-07
8.64605e-07
7.67273e-07
6.97092e-07
6.98345e-07
7.55009e-07
7.76245e-07
6.96545e-07
7.67931e-07
1.29567e-07
3.49778e-08
1.29567e-07
5.12368e-08
1.83833e-07
5.18051e-08
1.83833e-07
8.90493e-07
8.81449e-07
8.6033e-07
8.68214e-07
8.70193e-07
9.15703e-07
8.65439e-07
7.27121e-07
6.98323e-07
6.68851e-07
7.52341e-07
7.69391e-07
7.14425e-07
6.80594e-07
1.29566e-07
5.5001e-08
1.29508e-07
5.19627e-08
1.83832e-07
8.11717e-08
1.83715e-07
8.98294e-07
5.36629e-07
4.94006e-07
8.5878e-07
8.98293e-07
1.88294e-07
2.70686e-07
7.35014e-07
6.97523e-07
5.5697e-07
7.69229e-07
7.71932e-07
6.31663e-07
6.49599e-07
3.52934e-08
6.94974e-07
3.52782e-08
1.45326e-07
5.20169e-08
7.72035e-07
5.19844e-08
5.80295e-07
8.65427e-07
8.39627e-07
5.02286e-07
5.79022e-07
8.07625e-07
7.4983e-07
6.67486e-07
6.84799e-07
5.20678e-07
6.32469e-07
7.32159e-07
6.83813e-07
5.43704e-07
3.52843e-08
6.99554e-07
3.64122e-08
7.74516e-07
5.19975e-08
7.72981e-07
5.39888e-08
6.36172e-07
5.80646e-07
3.43638e-07
4.93267e-07
4.59023e-07
3.63419e-07
4.66111e-07
7.542e-07
6.98042e-07
6.63582e-07
7.04725e-07
7.70128e-07
7.03069e-07
6.9027e-07
3.79797e-08
7.00951e-07
4.09617e-08
7.76946e-07
5.63034e-08
7.77268e-07
6.07413e-08
2.26575e-07
5.92642e-07
6.16488e-07
7.60908e-07
3.10645e-07
7.12644e-07
7.7235e-07
7.60378e-07
6.96306e-07
6.94724e-07
6.2527e-07
7.65599e-07
7.2483e-07
6.95266e-07
4.16382e-08
7.00478e-07
3.78227e-08
7.764e-07
6.18076e-08
7.75796e-07
5.60541e-08
8.8154e-07
8.94413e-07
8.68851e-07
8.87436e-07
9.08372e-07
8.53287e-07
9.07881e-07
7.69121e-07
6.97201e-07
6.92331e-07
7.65836e-07
7.73535e-07
7.46619e-07
6.96524e-07
3.63594e-08
6.99628e-07
3.52835e-08
7.71911e-07
5.38798e-08
7.75397e-07
5.19952e-08
8.12667e-07
7.90635e-07
8.94874e-07
8.72211e-07
8.77188e-07
8.85402e-07
8.91542e-07
7.36005e-07
6.982e-07
3.98943e-07
7.23238e-07
7.72509e-07
5.3576e-07
6.68334e-07
3.52667e-08
1.4559e-07
3.50725e-08
7.72056e-07
5.19833e-08
2.04137e-07
5.2016e-08
4.94638e-07
5.27239e-07
3.85762e-07
6.41609e-07
6.76082e-07
3.17819e-07
6.65736e-07
7.33617e-07
6.95416e-07
4.6584e-07
7.16219e-07
7.66429e-07
5.44636e-07
6.75998e-07
1.2951e-07
3.64253e-08
1.29567e-07
1.17379e-07
1.83719e-07
5.38823e-08
1.83832e-07
3.82396e-07
5.2935e-07
8.00537e-07
4.75453e-07
6.56993e-07
7.09512e-07
7.92556e-07
7.58654e-07
6.57734e-07
6.79411e-07
7.66196e-07
7.34603e-07
7.42422e-07
6.57904e-07
1.29567e-07
3.47891e-08
1.29567e-07
5.2222e-08
1.83832e-07
5.12453e-08
1.83833e-07
7.26826e-07
6.46006e-07
7.14889e-07
4.07589e-07
2.94191e-07
5.26368e-07
4.53183e-07
7.4692e-07
7.63054e-07
5.44665e-07
5.84874e-07
7.53943e-07
5.18072e-07
7.65434e-07
1.83829e-07
5.18056e-08
1.83828e-07
5.15321e-08
1.83829e-07
5.18044e-08
1.83828e-07
7.40086e-07
9.10356e-07
9.06694e-07
6.44041e-07
7.9801e-07
8.33376e-07
8.78447e-07
6.51158e-07
7.62165e-07
6.81538e-07
7.20772e-07
6.64505e-07
7.62405e-07
6.69865e-07
1.83827e-07
8.13267e-08
1.8371e-07
5.19795e-08
1.83827e-07
8.13531e-08
1.8371e-07
8.51285e-07
3.26154e-07
7.12985e-07
9.29671e-07
9.12222e-07
7.8559e-07
8.73856e-07
7.69099e-07
7.69776e-07
6.93431e-07
7.15729e-07
7.64029e-07
7.66947e-07
6.9332e-07
5.20164e-08
7.71648e-07
5.1984e-08
1.45326e-07
5.20165e-08
7.71764e-07
5.19841e-08
7.57627e-07
9.19047e-07
7.58616e-07
8.24636e-07
8.26963e-07
8.47178e-07
7.85322e-07
5.91718e-07
6.99103e-07
6.48515e-07
5.87461e-07
6.0591e-07
7.122e-07
5.70512e-07
5.1997e-08
7.73687e-07
5.40519e-08
7.74062e-07
5.19972e-08
7.73178e-07
5.40283e-08
7.09229e-07
3.5409e-07
5.19386e-07
5.92452e-07
7.99927e-07
2.43298e-07
6.43598e-07
7.28971e-07
7.53458e-07
6.98607e-07
7.06956e-07
7.29308e-07
7.52163e-07
6.01028e-07
5.63643e-08
7.76894e-07
6.08242e-08
7.76343e-07
5.63457e-08
7.76691e-07
6.08672e-08
6.30043e-07
7.7784e-07
8.11375e-07
8.04485e-07
7.4814e-07
8.32181e-07
8.56227e-07
7.46597e-07
7.57456e-07
6.33288e-07
6.37248e-07
7.51027e-07
7.54008e-07
6.36474e-07
6.19258e-08
7.74088e-07
5.60982e-08
7.75514e-07
6.18871e-08
7.74624e-07
5.6103e-08
8.70791e-07
7.97423e-07
7.96517e-07
8.40521e-07
8.99527e-07
7.36562e-07
9.05168e-07
7.65981e-07
7.69673e-07
6.40572e-07
6.59289e-07
7.60962e-07
7.67938e-07
6.85506e-07
5.39392e-08
7.75232e-07
5.19948e-08
7.7667e-07
5.39424e-08
7.74982e-07
5.19947e-08
8.75367e-07
8.07631e-07
9.13258e-07
8.77428e-07
8.86471e-07
9.26272e-07
8.25987e-07
7.56773e-07
7.67775e-07
6.11963e-07
7.25509e-07
7.61123e-07
7.66558e-07
5.73861e-07
5.19829e-08
2.04085e-07
5.20154e-08
7.71316e-07
5.19829e-08
2.03763e-07
5.20154e-08
7.07807e-07
3.13171e-07
5.51782e-07
5.14838e-07
6.19606e-07
3.81206e-07
4.27539e-07
7.53913e-07
7.56455e-07
4.3105e-07
6.50301e-07
7.45223e-07
7.45921e-07
5.0703e-07
1.83714e-07
5.39263e-08
1.83827e-07
1.17395e-07
1.83714e-07
5.39233e-08
1.83827e-07
6.18819e-07
5.98596e-07
4.584e-07
4.55667e-07
5.89911e-07
4.80777e-07
7.59107e-07
7.59888e-07
7.61419e-07
7.51322e-07
7.31934e-07
7.63685e-07
7.60001e-07
7.32684e-07
1.83827e-07
5.15377e-08
1.83828e-07
5.22425e-08
1.83827e-07
5.12708e-08
1.83829e-07
4.68507e-07
4.35616e-07
5.76159e-07
7.49763e-07
7.73819e-07
3.20693e-07
2.72486e-07
7.65151e-07
7.66741e-07
6.73508e-07
7.36807e-07
7.52503e-07
7.10536e-07
7.65888e-07
1.83833e-07
5.18035e-08
1.83832e-07
3.47924e-08
1.29567e-07
3.49247e-08
1.29567e-07
8.81654e-07
8.96385e-07
8.51474e-07
8.17432e-07
8.82917e-07
8.83749e-07
7.37402e-07
6.4142e-07
7.68095e-07
5.85972e-07
6.40835e-07
6.11546e-07
7.67647e-07
5.91674e-07
1.83832e-07
8.11624e-08
1.83715e-07
3.51962e-08
1.29567e-07
5.49499e-08
1.29508e-07
8.87487e-07
8.91807e-07
8.71719e-07
8.8019e-07
8.79953e-07
8.87711e-07
8.8273e-07
7.65728e-07
7.73273e-07
7.40224e-07
7.69714e-07
7.67277e-07
7.69593e-07
7.10803e-07
5.20169e-08
7.71942e-07
5.19843e-08
1.02076e-07
3.51956e-08
6.95013e-07
3.52783e-08
7.82934e-07
9.21081e-07
8.99616e-07
8.55572e-07
6.9533e-07
8.74874e-07
8.89945e-07
6.5212e-07
7.32972e-07
5.20176e-07
6.50629e-07
6.56249e-07
7.35787e-07
4.58514e-07
5.19974e-08
7.74336e-07
5.39719e-08
6.99913e-07
3.52834e-08
7.00834e-07
3.64105e-08
8.88155e-07
2.65798e-07
5.62646e-07
7.41455e-07
8.70522e-07
2.60265e-07
7.15763e-07
7.76811e-07
7.55158e-07
6.63996e-07
7.47013e-07
7.62758e-07
7.59562e-07
6.78207e-07
5.62944e-08
7.7678e-07
6.07767e-08
7.00929e-07
3.79775e-08
7.01056e-07
4.09431e-08
8.62928e-07
8.64501e-07
8.51787e-07
7.4883e-07
8.48833e-07
7.99658e-07
7.63113e-07
7.53944e-07
7.59226e-07
5.65287e-07
6.24888e-07
7.49334e-07
7.64797e-07
5.47816e-07
6.18082e-08
7.75276e-07
5.60428e-08
7.01248e-07
4.15988e-08
7.00473e-07
3.78215e-08
8.74728e-07
6.72585e-07
8.51535e-07
8.89961e-07
8.79644e-07
6.45749e-07
8.64683e-07
7.69457e-07
7.6887e-07
7.32513e-07
7.26948e-07
7.69086e-07
7.70329e-07
7.47778e-07
5.38656e-08
7.75196e-07
5.19953e-08
7.0049e-07
3.63523e-08
6.99623e-07
3.52836e-08
9.14748e-07
8.65672e-07
8.66292e-07
7.12878e-07
8.76167e-07
6.79107e-07
8.61381e-07
7.66466e-07
7.70084e-07
6.22929e-07
7.24482e-07
7.61151e-07
7.71238e-07
6.17859e-07
5.19833e-08
2.03731e-07
5.2016e-08
6.947e-07
3.5255e-08
1.45842e-07
3.50725e-08
6.44118e-07
7.77689e-07
6.82526e-07
8.1963e-07
8.16711e-07
8.90401e-07
8.37375e-07
7.35143e-07
7.45907e-07
6.27134e-07
7.28644e-07
7.38873e-07
7.47909e-07
6.82646e-07
1.83719e-07
5.3878e-08
1.83832e-07
8.12093e-08
1.2951e-07
3.64139e-08
1.29567e-07
8.41347e-07
7.29211e-07
9.20055e-07
7.79412e-07
8.90668e-07
8.05084e-07
8.89472e-07
7.64457e-07
7.72745e-07
7.06108e-07
7.45361e-07
7.63592e-07
7.67647e-07
6.93397e-07
1.83832e-07
5.12572e-08
1.83833e-07
3.5284e-08
1.29567e-07
3.4807e-08
1.29567e-07
2.43849e-07
2.27544e-07
3.95295e-08
6.14102e-08
5.8241e-08
1.78526e-07
3.04446e-07
7.62141e-07
6.74653e-07
6.97335e-07
7.39671e-07
7.27287e-07
7.70896e-07
6.95164e-07
3.99005e-07
4.397e-08
4.476e-07
7.0004e-08
6.50427e-08
5.35226e-07
3.22241e-07
7.63842e-07
7.50441e-07
7.61528e-07
6.7579e-07
7.72401e-07
7.61674e-07
7.6294e-07
2.41512e-07
6.16066e-08
2.98981e-07
5.85567e-08
5.83919e-08
2.38637e-07
3.02079e-07
7.56334e-07
7.28139e-07
6.45702e-07
7.61181e-07
6.66967e-07
7.65248e-07
7.51316e-07
3.88227e-07
7.02844e-08
6.57113e-08
5.1997e-07
6.5462e-08
5.26578e-07
3.8292e-07
7.68664e-07
6.91614e-07
9.41266e-08
9.51412e-08
7.65025e-07
1.34884e-07
6.94657e-07
7.66725e-07
6.94553e-07
6.92822e-07
7.47726e-07
7.58032e-07
7.65294e-07
6.96062e-07
7.73901e-07
1.89775e-07
6.99733e-07
7.1347e-07
2.60357e-07
7.74984e-07
6.98311e-07
7.04342e-07
7.69144e-07
7.61654e-07
6.69257e-07
7.62331e-07
6.84603e-07
6.86467e-07
7.67618e-07
9.52287e-08
7.6478e-07
1.3497e-07
7.64764e-07
1.34921e-07
7.66625e-07
7.64609e-07
6.90461e-07
7.61268e-07
7.62664e-07
7.52031e-07
7.62436e-07
7.6431e-07
7.72932e-07
7.01376e-07
2.6132e-07
7.75064e-07
2.61132e-07
7.74401e-07
7.72982e-07
7.72203e-07
7.00748e-07
6.99635e-07
7.71e-07
7.74351e-07
7.75441e-07
6.98852e-07