/*--------------------------------*- C++ -*----------------------------------*\
| =========                 |                                                 |
| \\      /  F ield         | OpenFOAM: The Open Source CFD Toolbox           |
|  \\    /   O peration     | Version:  5.0                                   |
|   \\  /    A nd           | Web:      www.OpenFOAM.org                      |
|    \\/     M anipulation  |                                                 |
\*---------------------------------------------------------------------------*/
FoamFile
{
    version     2.0;
    format      ascii;
    class       volVectorField;
    location    "2.7";
    object      U;
}
// * * * * * * * * * * * * * * * * * * * * * * * * * * * * * * * * * * * * * //

dimensions      [0 1 -1 0 0 0 0];

internalField   nonuniform List<vector> 
7562
(
(0.000716197 -0.0017769 0.000200447)
(0.000100266 -0.00371526 -0.000272118)
(-0.00278771 -0.000892436 1.12224e-05)
(-0.00880399 -0.00438049 0.000267308)
(0.0143869 -0.0093225 0.00114399)
(-0.00130586 0.00662453 -0.000468905)
(0.000312138 2.21746e-05 4.26692e-06)
(0.000835202 3.36058e-05 -1.94814e-06)
(0.000823049 2.77209e-05 -2.25902e-09)
(0.000831196 1.91431e-05 1.02657e-07)
(0.000834289 1.31597e-05 1.2211e-07)
(0.000835938 8.51264e-06 8.02897e-08)
(0.000836952 5.52885e-06 1.8664e-09)
(0.000836575 3.6886e-06 -1.21824e-07)
(0.000835536 2.29071e-06 5.17533e-08)
(0.000834713 1.5122e-06 1.90558e-07)
(0.000833558 8.24432e-07 5.47558e-08)
(0.000832081 5.78997e-07 8.55895e-08)
(0.000830595 3.05137e-07 6.82468e-08)
(0.000829133 1.33313e-07 1.61213e-07)
(0.000827682 3.53547e-08 5.12077e-08)
(0.000826065 7.29855e-08 6.3871e-08)
(0.000824495 -4.59416e-08 3.77683e-08)
(0.000823059 -5.04475e-09 4.67834e-08)
(0.00082158 7.07116e-08 4.93537e-08)
(0.000820038 9.57392e-08 4.42469e-08)
(0.000818432 -1.76106e-08 5.2456e-08)
(0.000817027 2.52363e-08 4.9471e-08)
(0.000815422 1.65339e-07 1.15888e-07)
(0.000813916 -1.61254e-07 1.77048e-07)
(0.000812341 -4.93968e-07 8.12131e-08)
(0.000810615 -5.44307e-07 4.90378e-08)
(0.000809192 -4.41529e-07 8.27189e-08)
(0.000807994 -1.52116e-07 5.53697e-08)
(0.000806612 4.70001e-09 4.38519e-08)
(0.000804943 -3.08801e-08 4.44175e-08)
(0.000803376 1.41866e-08 4.12691e-08)
(0.000801798 1.13352e-07 3.244e-08)
(0.00080075 3.33306e-07 5.28557e-08)
(0.000799528 5.6788e-08 5.16389e-08)
(0.000797873 -8.73765e-08 2.83018e-08)
(0.000796427 -1.09017e-07 7.79344e-08)
(0.000795394 -3.98636e-07 9.28464e-08)
(0.000793509 -5.33402e-07 -1.12906e-08)
(0.000791616 -2.59454e-07 3.54631e-08)
(0.000790417 -1.15094e-07 1.52476e-08)
(0.000789196 3.30955e-08 5.79294e-08)
(0.000788012 -1.34502e-07 6.36482e-08)
(0.000786243 -3.96037e-07 4.41336e-08)
(0.000784619 -3.0862e-07 1.89848e-09)
(-0.00328859 -0.000126414 0.000106314)
(0.00237616 0.000809611 -0.000296014)
(0.00360909 0.0016849 0.000729383)
(0.00522814 0.00481428 0.000555052)
(-0.000273214 0.00440169 -5.38199e-05)
(0.00516801 0.00268244 2.39786e-05)
(0.000397199 -2.56096e-05 1.32018e-05)
(0.00085437 2.15097e-05 -2.49035e-06)
(0.000824406 3.64698e-05 -2.70476e-07)
(0.000826046 1.24363e-05 -2.94517e-08)
(0.000830324 8.27725e-06 2.68063e-08)
(0.000832725 4.40716e-06 3.72747e-08)
(0.000834315 2.54069e-06 4.5491e-08)
(0.000834831 1.34348e-06 4.97669e-08)
(0.000834853 8.72067e-07 5.2101e-08)
(0.000834025 5.13165e-07 1.00875e-07)
(0.000833006 3.93608e-07 5.50068e-08)
(0.000831994 1.42056e-07 7.12374e-08)
(0.000830455 2.78505e-07 4.18506e-08)
(0.000828917 1.4327e-07 2.3018e-08)
(0.00082744 1.89582e-07 1.00253e-07)
(0.000825883 8.66947e-08 6.3503e-08)
(0.000824469 3.16334e-07 3.15109e-07)
(0.000823189 2.87434e-07 3.03331e-08)
(0.000821645 1.86576e-07 -3.04347e-08)
(0.000819939 -2.04466e-08 6.90915e-08)
(0.000818403 -1.44569e-07 3.55552e-08)
(0.000816994 -2.28328e-07 4.71731e-08)
(0.000815241 -5.23361e-07 5.93108e-08)
(0.000813378 -4.41468e-07 -6.61349e-08)
(0.000812081 -3.70164e-07 -1.41327e-07)
(0.000810771 -2.16229e-07 1.81705e-08)
(0.000809586 3.13642e-07 1.31889e-07)
(0.000808463 3.35652e-07 1.6731e-07)
(0.000806657 9.56395e-08 4.959e-08)
(0.000805011 1.31076e-07 4.70704e-08)
(0.000803746 2.08241e-07 4.45516e-08)
(0.000802391 3.048e-07 1.12896e-08)
(0.000800584 4.29814e-07 3.94695e-08)
(0.000798858 1.44753e-07 9.55838e-08)
(0.000797578 -3.38102e-09 6.1351e-08)
(0.000796104 -1.6264e-07 6.42283e-08)
(0.000794451 -2.79835e-07 3.41611e-08)
(0.000793584 -6.51813e-07 1.01507e-07)
(0.000792506 -1.58787e-07 5.98653e-08)
(0.000790829 -6.74617e-08 6.83501e-08)
(0.000789182 1.44618e-07 3.97788e-08)
(0.000787545 -1.00305e-08 5.23425e-08)
(0.000786207 -1.26003e-07 -7.07171e-08)
(0.00078516 -1.86028e-07 1.11104e-07)
(-5.0349e-05 0.000734647 2.7187e-05)
(-0.0024514 0.0025695 2.49403e-06)
(-0.00826001 -0.012827 0.000343047)
(0.0172854 -0.00568366 0.00136099)
(0.00384458 0.0326903 -0.000334787)
(0.00485343 0.00476702 0.000309367)
(0.000895658 7.04574e-05 -2.73932e-05)
(0.000414972 2.22309e-05 -7.06017e-07)
(0.000839227 1.38634e-05 -1.41771e-06)
(0.000796014 -3.44573e-06 -4.78993e-07)
(0.000824225 -2.14518e-06 2.12054e-07)
(0.000828751 -2.35607e-06 6.54948e-08)
(0.000833116 -1.81702e-06 7.79874e-08)
(0.000834486 -1.29646e-06 5.55781e-08)
(0.000834497 -8.90935e-07 5.46669e-08)
(0.000834114 -7.26082e-07 5.7723e-08)
(0.000833093 -4.79539e-07 4.58452e-08)
(0.000831936 -4.41093e-07 9.61629e-08)
(0.000830595 -5.56129e-07 1.1266e-07)
(0.00082902 -2.82743e-07 5.06254e-08)
(0.00082761 -2.37292e-07 5.58019e-08)
(0.000826221 -4.32254e-08 5.00884e-08)
(0.000824744 7.85578e-08 4.85905e-08)
(0.000822893 3.21384e-09 -5.98454e-08)
(0.000821193 -1.6689e-07 7.09384e-08)
(0.000819623 -1.26005e-07 3.57174e-08)
(0.000818174 -9.78275e-08 6.12728e-08)
(0.000816557 -9.21869e-08 5.87268e-08)
(0.00081516 -1.68654e-07 6.42266e-09)
(0.000814113 2.47895e-07 3.00656e-08)
(0.000812627 4.08825e-07 1.42526e-07)
(0.00081147 4.28084e-07 6.75421e-08)
(0.000809881 4.5441e-07 -1.77181e-09)
(0.000807719 2.79797e-07 2.21278e-08)
(0.000806354 1.16838e-08 8.90371e-08)
(0.000805082 1.43901e-07 5.36883e-08)
(0.000803591 1.00534e-07 5.34292e-08)
(0.000802071 -4.04172e-10 5.32982e-08)
(0.000800546 -1.04767e-07 3.24243e-08)
(0.000798984 -3.62639e-08 1.04345e-07)
(0.000797488 1.60174e-08 6.94693e-08)
(0.000796083 -1.16169e-07 6.18234e-08)
(0.000794786 2.57312e-07 1.20581e-07)
(0.000793664 4.35458e-07 9.30303e-08)
(0.00079235 1.7248e-07 9.23271e-08)
(0.000790798 1.53808e-07 1.14614e-07)
(0.000789269 1.48629e-07 4.79155e-08)
(0.000787674 3.60948e-07 7.86341e-08)
(0.000786029 2.17258e-07 5.90493e-08)
(0.000785006 1.34474e-07 1.03603e-07)
(-0.000928188 3.77885e-05 -0.000270627)
(0.00412186 -0.00280525 -2.65255e-05)
(0.00406449 0.00180372 0.00114314)
(0.0182761 0.00769383 0.000908897)
(-0.0191281 0.0325607 0.000213631)
(0.011666 -0.00750996 0.000631125)
(0.00106346 0.000301638 4.50611e-05)
(0.000393938 -2.95248e-05 -1.88636e-06)
(0.000863067 -4.70501e-05 -1.00541e-06)
(0.000806091 -2.79776e-05 -6.37887e-07)
(0.000831737 -1.66572e-05 1.93472e-07)
(0.000833171 -1.00036e-05 -7.38635e-09)
(0.000835666 -6.23426e-06 6.06816e-08)
(0.000836007 -3.81955e-06 5.36538e-08)
(0.000835579 -2.25919e-06 5.05157e-08)
(0.000834547 -1.32749e-06 5.0468e-08)
(0.000833368 -1.0346e-06 7.88473e-08)
(0.000831904 -6.30287e-07 4.68775e-09)
(0.000830656 -6.36819e-07 3.25399e-08)
(0.000829319 -4.89513e-07 3.17045e-08)
(0.000827742 -4.4761e-07 -1.42929e-07)
(0.000826278 -2.82769e-07 4.85468e-08)
(0.000824527 -3.92347e-07 2.61422e-08)
(0.000822882 -3.1137e-07 8.06849e-10)
(0.000821483 -1.87612e-07 1.79008e-08)
(0.000820026 1.87569e-08 3.02003e-08)
(0.000818446 2.4895e-07 6.4133e-08)
(0.000816906 3.89715e-07 6.00657e-08)
(0.000815666 6.61134e-07 3.65689e-08)
(0.000814097 3.1605e-07 3.77098e-08)
(0.000812302 3.2426e-07 8.58688e-08)
(0.000810824 5.14604e-07 5.56944e-08)
(0.000809397 3.49755e-09 4.52311e-08)
(0.000807908 -1.00594e-08 4.82003e-08)
(0.000806486 1.02103e-07 5.75034e-08)
(0.000805122 6.28807e-08 6.81421e-08)
(0.000803565 -2.7812e-08 4.34003e-08)
(0.000802135 -3.14185e-08 5.26435e-08)
(0.00080054 -1.25115e-07 2.03856e-08)
(0.000799009 -8.26917e-08 6.04163e-09)
(0.000797478 3.10335e-08 5.90245e-08)
(0.000796405 1.63814e-07 3.0632e-08)
(0.000795138 3.341e-07 1.86083e-07)
(0.000793475 4.54515e-07 -3.27903e-08)
(0.000792151 2.01672e-07 2.57142e-08)
(0.000790797 1.25979e-07 4.51002e-08)
(0.000789438 1.62972e-07 6.93268e-08)
(0.000787629 3.81954e-07 4.36742e-08)
(0.00078592 1.83139e-07 4.5534e-08)
(0.00078472 2.66276e-07 1.57277e-07)
(-0.00028569 0.00194893 0.00017708)
(0.000269613 0.00480525 3.58163e-05)
(-0.0047476 -0.00677173 0.000559961)
(0.00556394 0.00807782 -0.00523171)
(0.0132295 0.00261392 0.000162243)
(0.000403017 -0.000661198 -9.77753e-06)
(0.000763842 9.50344e-05 2.18675e-06)
(0.000557459 -0.000104252 3.58923e-06)
(0.000908462 -6.28237e-05 -1.37747e-06)
(0.000834443 -3.62132e-05 -5.94454e-07)
(0.000846855 -2.15424e-05 1.72743e-07)
(0.000841877 -1.30255e-05 6.15957e-08)
(0.000840903 -7.7426e-06 2.95963e-07)
(0.00083949 -4.84305e-06 5.23064e-08)
(0.000837633 -3.14502e-06 1.45331e-08)
(0.000835658 -1.99647e-06 -9.0393e-09)
(0.000833973 -1.14574e-06 5.32478e-08)
(0.00083244 -7.40808e-07 5.13621e-08)
(0.000830776 -3.0698e-07 6.20889e-08)
(0.000829261 -2.61928e-07 9.95622e-08)
(0.000827872 -5.49197e-07 6.99532e-08)
(0.000826293 -1.86556e-07 4.8356e-08)
(0.000824711 -7.36489e-08 2.79151e-07)
(0.000823152 6.47112e-08 1.01762e-07)
(0.000821608 1.69511e-07 7.73397e-08)
(0.000820169 -1.55759e-08 7.1209e-08)
(0.000818635 1.86077e-07 6.11475e-08)
(0.000817067 3.24485e-07 3.87605e-08)
(0.000815061 5.22861e-07 2.39609e-07)
(0.000813685 7.26221e-07 3.30107e-08)
(0.000812869 3.41375e-07 8.76778e-08)
(0.000811065 6.06453e-08 4.24588e-08)
(0.000809222 2.04898e-07 7.89002e-08)
(0.00080784 1.15669e-07 5.15843e-08)
(0.000806445 2.0528e-07 5.71386e-08)
(0.000804919 5.49356e-08 4.77868e-08)
(0.000803473 2.28427e-08 6.27811e-08)
(0.000801951 -1.64743e-08 4.92501e-08)
(0.000800484 -5.03339e-08 4.41903e-08)
(0.00079918 1.05359e-08 7.3849e-08)
(0.000797796 2.274e-07 5.7097e-08)
(0.000796459 6.36645e-07 1.6332e-07)
(0.000795146 1.72906e-07 -8.14095e-09)
(0.000793495 1.92073e-07 7.50725e-08)
(0.000791937 -5.37984e-09 5.01297e-08)
(0.000790748 -1.60131e-07 5.01963e-08)
(0.000789588 -4.58993e-07 1.0834e-08)
(0.000787698 -8.40106e-07 -2.42541e-08)
(0.000785878 -3.1832e-07 7.38375e-08)
(0.000784447 2.64244e-08 5.31555e-08)
(0.00165414 -0.00103258 0.000138894)
(0.00124323 0.00813112 -0.000390822)
(0.00246954 -0.000187418 0.000302206)
(-0.009001 -0.00624951 -0.000210366)
(-0.00102913 0.00549979 0.000528281)
(0.00738096 0.00130668 0.000544158)
(0.000714903 -0.000346721 1.21908e-05)
(0.000377601 -2.6522e-05 6.25191e-06)
(0.000946783 -4.02405e-05 -1.5334e-06)
(0.000858094 -2.55757e-05 -5.09244e-07)
(0.000860892 -1.55887e-05 1.73706e-07)
(0.000850525 -9.62775e-06 1.4065e-07)
(0.000845957 -5.76741e-06 8.69791e-08)
(0.000841792 -3.66693e-06 4.6672e-08)
(0.000839161 -2.35016e-06 8.4604e-08)
(0.000837061 -1.55252e-06 8.72876e-08)
(0.000834947 -8.8391e-07 4.89452e-08)
(0.000832957 -4.55879e-07 6.37339e-08)
(0.000831257 -3.13835e-07 3.65163e-08)
(0.000829018 8.36126e-08 4.77158e-08)
(0.000827837 5.82669e-07 -6.18674e-08)
(0.000826874 2.2656e-07 4.06099e-08)
(0.000824841 2.24018e-07 4.77867e-08)
(0.000823186 1.54475e-07 6.50973e-08)
(0.000821383 1.78642e-07 6.36299e-08)
(0.000820046 2.36794e-07 -2.25268e-08)
(0.00081887 -2.68017e-09 6.42071e-08)
(0.000817324 -8.99344e-08 6.32756e-09)
(0.000816164 4.71162e-08 3.51262e-08)
(0.000813867 -3.14873e-08 -1.08406e-07)
(0.000811468 -1.31364e-07 5.19729e-09)
(0.000810651 -2.13711e-07 1.62508e-07)
(0.000809465 -1.73457e-07 1.40264e-08)
(0.000807906 -9.4611e-08 5.45247e-08)
(0.000806409 -1.23083e-07 2.49689e-08)
(0.000804893 -2.60722e-08 4.55164e-08)
(0.000803476 5.45368e-08 5.30488e-08)
(0.000802044 1.46336e-07 5.1687e-08)
(0.000800574 2.11937e-07 6.34805e-08)
(0.000799356 1.7094e-07 5.59882e-08)
(0.000798259 2.09101e-07 4.33233e-08)
(0.000796334 2.4988e-07 -2.05028e-08)
(0.00079458 1.61158e-07 4.52791e-08)
(0.000793252 -2.42009e-08 -1.17456e-08)
(0.000791711 -8.48184e-08 4.00279e-08)
(0.000790233 -2.00786e-07 4.71533e-08)
(0.000788592 -5.1262e-07 -6.11918e-08)
(0.000787809 -7.74522e-07 7.37518e-08)
(0.000787004 -4.83131e-07 9.33343e-08)
(0.000785085 -3.27819e-07 1.2849e-07)
(-0.000685583 0.000790935 -0.000115397)
(-0.00567321 0.000891934 0.000577923)
(-0.00649729 0.000268418 -0.000371844)
(0.000352332 0.00671607 -0.000466351)
(0.0021961 -0.000464728 0.000215651)
(-0.000925352 0.00393919 -0.000176919)
(0.00116323 -0.000830643 2.59467e-05)
(0.000578954 -3.80521e-05 3.19941e-06)
(0.00096874 -5.74504e-06 -1.49252e-06)
(0.000865393 -4.4337e-06 -6.04824e-07)
(0.000866891 -3.75423e-06 1.69612e-07)
(0.000854211 -2.54686e-06 1.42344e-08)
(0.000848391 -1.87481e-06 5.28281e-08)
(0.000843784 -1.14817e-06 4.89943e-08)
(0.000840291 -6.94661e-07 4.80779e-08)
(0.0008375 -3.36378e-07 5.35441e-08)
(0.00083535 -2.0707e-07 5.173e-08)
(0.000833156 -1.01833e-07 3.77699e-08)
(0.000831452 1.0702e-08 5.23104e-08)
(0.000830381 3.19949e-08 6.63899e-08)
(0.000828048 6.39118e-07 -9.27049e-08)
(0.000825843 2.53053e-07 4.95236e-08)
(0.000824619 1.67789e-07 2.03436e-08)
(0.000823094 9.42801e-08 4.71874e-08)
(0.000821709 1.14004e-07 1.64039e-08)
(0.000819941 2.11839e-07 9.52507e-08)
(0.000818227 -4.90799e-08 5.75847e-08)
(0.00081713 -2.89473e-07 4.703e-08)
(0.000815136 -7.73976e-07 -5.21981e-08)
(0.000813464 -1.12814e-06 1.13318e-07)
(0.000812644 -6.25905e-07 -7.58786e-08)
(0.000811016 -1.23317e-07 1.30253e-07)
(0.000809373 3.6859e-09 2.86319e-08)
(0.000807905 -5.43966e-08 7.65648e-08)
(0.000806532 -1.10896e-07 7.79981e-08)
(0.000805142 -2.52081e-08 6.91501e-08)
(0.000803689 3.63331e-08 4.91193e-08)
(0.000802147 4.19991e-09 7.16803e-08)
(0.000800513 6.90976e-08 3.80107e-08)
(0.000799175 2.68957e-07 1.48346e-09)
(0.000797893 -2.52753e-08 4.6581e-08)
(0.000796398 -3.24918e-07 4.11097e-09)
(0.000794803 -2.39298e-07 6.66744e-08)
(0.000793187 -2.67836e-07 5.47703e-08)
(0.000791717 -9.20099e-08 1.62473e-08)
(0.000790216 -1.36035e-08 5.09992e-08)
(0.000788875 -3.50377e-08 -6.00602e-08)
(0.00078774 1.71349e-07 6.04613e-08)
(0.000786446 -2.07702e-07 1.13948e-08)
(0.000785459 -3.00739e-07 4.2936e-08)
(-0.00520593 -0.00357778 0.00050185)
(-0.00218563 0.00231338 0.000350586)
(-0.0113962 -0.00474583 -0.000316072)
(1.21045e-05 0.0053619 -0.000446654)
(0.00186165 0.00400902 -0.000324017)
(0.00119924 0.00939313 -0.000183519)
(0.00147791 -0.000307106 0.000135537)
(0.000546312 4.02934e-05 8.10849e-07)
(0.000944041 1.20168e-05 -1.48596e-06)
(0.000860367 1.45384e-05 -4.74052e-07)
(0.000863231 7.12823e-06 1.63809e-07)
(0.000852868 4.53077e-06 3.32348e-08)
(0.000847703 2.68802e-06 5.69508e-08)
(0.000843267 1.64285e-06 5.16222e-08)
(0.000840175 9.94321e-07 8.74467e-08)
(0.000837671 6.74993e-07 5.27256e-08)
(0.00083524 4.47927e-07 9.62801e-08)
(0.000833229 3.75806e-07 7.33025e-08)
(0.000831425 4.63181e-07 4.23517e-08)
(0.000829802 1.96642e-07 3.77208e-08)
(0.000828112 -3.30185e-07 4.48586e-08)
(0.000826283 -4.85926e-08 5.97205e-08)
(0.000824642 -1.5201e-07 3.84443e-08)
(0.000823118 -8.43175e-08 4.97277e-08)
(0.000821529 -2.28138e-07 6.47671e-08)
(0.000819841 -3.00237e-07 5.47511e-08)
(0.000818244 -1.46343e-07 -1.8809e-07)
(0.000816421 -9.74702e-08 1.50338e-07)
(0.000815122 -2.6518e-07 1.1266e-07)
(0.000814058 2.9293e-07 5.73606e-08)
(0.000812729 3.2978e-07 9.06804e-08)
(0.00081144 5.81753e-08 2.80524e-08)
(0.000809552 -3.8387e-08 4.04035e-08)
(0.000807764 1.40209e-07 4.91189e-08)
(0.000806446 6.02263e-08 4.98482e-08)
(0.000805077 -4.18972e-08 4.5159e-08)
(0.000803513 -1.4927e-07 5.86708e-08)
(0.000802085 -2.17405e-07 4.58319e-08)
(0.000800904 -3.03721e-08 4.47072e-08)
(0.000799238 3.02592e-08 3.20738e-08)
(0.000797517 -3.03376e-08 1.51238e-07)
(0.000796069 -4.48094e-08 5.157e-08)
(0.000794654 -1.27727e-07 5.83383e-08)
(0.000793438 -1.00023e-07 4.99408e-08)
(0.000792031 -3.0088e-08 6.08628e-08)
(0.000790305 9.05764e-08 4.81419e-08)
(0.000788825 4.84525e-07 4.28804e-08)
(0.000787594 3.40934e-07 5.38364e-08)
(0.000786423 1.6336e-07 -2.36555e-08)
(0.000785719 -2.94105e-08 6.88287e-08)
(0.00104088 -0.00800419 -0.000108367)
(-0.00172312 0.000424457 0.000243328)
(-0.00243916 0.00395981 0.000369681)
(-0.00287232 -0.0154837 0.000165112)
(-0.00538851 -0.00323926 0.000789876)
(0.0117081 0.00215534 -0.000165196)
(0.00087084 0.000303353 2.38607e-05)
(0.00087349 9.81352e-05 -3.01525e-06)
(0.000875776 2.69459e-05 2.25723e-07)
(0.000859236 2.49434e-05 9.49275e-09)
(0.000854277 1.42821e-05 7.44081e-08)
(0.000848602 9.41576e-06 4.87034e-08)
(0.000844745 5.90558e-06 5.51201e-08)
(0.000841645 3.59908e-06 5.38009e-08)
(0.000839068 2.4399e-06 4.95826e-08)
(0.000836809 1.54673e-06 1.25063e-07)
(0.00083497 1.00792e-06 1.0911e-07)
(0.000833171 7.04737e-07 3.62519e-08)
(0.000831225 5.4727e-07 9.95095e-08)
(0.000829388 3.79363e-07 7.82349e-08)
(0.000827742 1.12017e-07 5.23317e-08)
(0.000826067 -9.62575e-08 6.3866e-08)
(0.000824576 -1.26757e-07 2.00887e-08)
(0.000823001 -1.5716e-07 5.40056e-08)
(0.000821442 -1.87336e-07 1.91623e-08)
(0.000820046 -1.65997e-07 6.2645e-08)
(0.000818482 -2.15592e-08 2.18383e-08)
(0.000816984 3.19392e-08 4.66658e-08)
(0.000815624 2.54431e-07 6.75004e-08)
(0.000814207 3.15276e-07 -2.1642e-08)
(0.000812348 3.69673e-07 1.80967e-08)
(0.000810553 1.78895e-07 5.12441e-08)
(0.000809475 -2.21465e-07 -2.2104e-07)
(0.000808028 -1.88954e-07 6.57333e-08)
(0.000806304 -1.10768e-07 2.65239e-08)
(0.00080488 -1.42748e-07 6.98694e-08)
(0.000803471 -1.73897e-07 6.59421e-08)
(0.000802296 -1.00674e-07 4.91128e-08)
(0.000800823 -2.47303e-07 1.03864e-07)
(0.000799175 -3.00017e-07 3.96555e-08)
(0.0007978 -1.30765e-07 6.52226e-08)
(0.000796278 -8.65409e-08 8.50357e-09)
(0.000794735 2.07717e-07 4.54421e-08)
(0.000793311 1.73708e-07 4.351e-08)
(0.000791956 1.84364e-07 6.36882e-08)
(0.000790858 1.35021e-07 4.9327e-08)
(0.000789185 3.12306e-07 1.60252e-08)
(0.000787336 4.42312e-07 4.03688e-08)
(0.000785982 7.048e-07 -7.43701e-08)
(0.000785289 4.48461e-07 8.82106e-08)
(0.00332055 0.00173797 -0.000434744)
(0.00303365 -0.00471309 4.89759e-05)
(0.000792404 0.00138028 0.000104165)
(-0.00104542 0.000274193 0.000184394)
(-0.00930304 -0.0125239 -2.62609e-05)
(-0.00866091 -0.00757851 0.000416275)
(0.000439758 1.8547e-05 2.2579e-05)
(0.000846023 6.86384e-05 -2.45266e-06)
(0.000842754 3.91209e-05 1.09725e-08)
(0.000844344 2.65834e-05 5.54735e-08)
(0.000843681 1.68404e-05 1.02722e-07)
(0.000842313 1.06934e-05 8.45066e-08)
(0.000840378 6.77295e-06 5.84528e-08)
(0.0008389 4.50015e-06 -1.51053e-07)
(0.000837588 2.74296e-06 5.47627e-08)
(0.000835866 1.69185e-06 5.7944e-08)
(0.000834178 1.07698e-06 5.24566e-08)
(0.000832647 5.68305e-07 3.98178e-07)
(0.000831014 2.08968e-07 7.19394e-08)
(0.000829256 6.59883e-08 7.71676e-08)
(0.000827517 5.54403e-09 3.85019e-08)
(0.000825985 1.8107e-08 1.2789e-07)
(0.000824568 4.00393e-09 5.76872e-08)
(0.000823044 -4.62215e-08 4.95465e-08)
(0.000821521 5.05324e-08 -1.42227e-08)
(0.000820051 6.51319e-08 3.15371e-08)
(0.000818493 4.46421e-08 3.17333e-08)
(0.000816766 2.60174e-08 4.04535e-08)
(0.000815474 8.0291e-08 3.35714e-08)
(0.0008142 -1.36025e-07 4.36344e-08)
(0.000812556 -1.52511e-07 1.14886e-07)
(0.000810701 -1.42839e-07 -2.85068e-08)
(0.000809093 -1.05296e-07 -5.65569e-08)
(0.000807904 -3.71191e-07 3.46875e-08)
(0.000806506 -1.34885e-07 7.19507e-08)
(0.000804999 -1.25987e-07 6.74051e-08)
(0.000803567 -8.56962e-08 4.26856e-08)
(0.000801994 -2.02312e-07 5.05989e-08)
(0.000800657 -4.86264e-07 5.12127e-08)
(0.000799386 -2.63261e-07 5.97056e-08)
(0.000797786 -2.06416e-07 5.668e-08)
(0.000796492 -2.06244e-07 7.27709e-08)
(0.000794979 -8.76953e-08 6.73003e-08)
(0.000793407 3.21523e-07 2.47309e-08)
(0.000791981 7.20214e-08 2.5634e-08)
(0.000790462 5.16924e-08 4.57604e-08)
(0.000789204 -2.79495e-07 8.81532e-08)
(0.00078808 6.16645e-08 3.37162e-08)
(0.000786416 2.62635e-07 -3.17854e-08)
(0.000784281 2.76982e-07 7.17708e-08)
(0.0183208 -0.00357949 -7.84392e-05)
(0.00306236 0.00719377 -0.00336886)
(0.00376508 -0.000765536 0.000358147)
(-0.00229609 0.00216366 -9.89822e-05)
(0.00322375 -0.0198675 0.0196062)
(-0.0108028 0.00692773 -0.00640427)
(0.00125221 0.000103658 2.70946e-06)
(0.00138505 4.32635e-05 3.2327e-07)
(0.00136789 3.81878e-05 3.40014e-07)
(0.00138345 2.6755e-05 3.50978e-07)
(0.00138953 1.86764e-05 3.85469e-07)
(0.0013928 1.21268e-05 3.61994e-07)
(0.00139479 7.91082e-06 2.78348e-07)
(0.00139437 5.33702e-06 -8.49365e-08)
(0.00139277 3.31482e-06 3.49675e-07)
(0.00139135 2.19106e-06 4.85346e-07)
(0.00138941 1.16931e-06 3.51249e-07)
(0.001387 8.16902e-07 3.80172e-07)
(0.00138453 4.28987e-07 4.07406e-07)
(0.00138212 1.50812e-07 4.23509e-07)
(0.00137971 6.9893e-08 3.32274e-07)
(0.00137697 1.94021e-07 3.51464e-07)
(0.00137432 2.19762e-08 3.17653e-07)
(0.00137192 4.86889e-08 2.97748e-07)
(0.00136948 2.28536e-07 2.83894e-07)
(0.00136689 2.82939e-07 2.78822e-07)
(0.00136423 4.25735e-08 2.95695e-07)
(0.00136195 5.60507e-08 3.429e-07)
(0.00135915 2.7483e-07 4.31391e-07)
(0.00135648 -3.30622e-07 6.28144e-07)
(0.00135391 -9.36439e-07 3.71017e-07)
(0.001351 -9.35484e-07 2.50051e-07)
(0.00134868 -7.37316e-07 3.50333e-07)
(0.00134676 -2.43774e-07 2.93632e-07)
(0.00134441 4.70404e-08 3.32495e-07)
(0.0013416 1.86196e-09 3.32093e-07)
(0.00133893 3.76866e-08 3.20366e-07)
(0.00133623 2.18539e-07 2.45307e-07)
(0.00133443 6.25071e-07 2.89054e-07)
(0.00133243 2.03046e-07 3.18618e-07)
(0.00132971 -9.10481e-08 2.95269e-07)
(0.00132722 -1.39107e-07 3.67036e-07)
(0.00132552 -6.59988e-07 3.81468e-07)
(0.00132242 -8.25703e-07 1.86895e-07)
(0.0013193 -4.43124e-07 3.08884e-07)
(0.00131726 -2.49723e-07 3.26672e-07)
(0.00131511 -5.35836e-09 2.94988e-07)
(0.00131314 -2.81131e-07 3.38532e-07)
(0.00131017 -6.4284e-07 3.54233e-07)
(0.00130738 -5.00841e-07 1.94261e-07)
(0.00494376 -0.00526209 -0.000126599)
(-0.000421068 0.00458025 -0.000716879)
(0.00372424 0.0100734 0.00341147)
(-0.00533632 0.000985745 0.00415128)
(-0.0137501 -0.0115376 -0.016527)
(-0.0198993 -0.00135523 0.000281268)
(0.0015253 -0.000131046 3.21491e-05)
(0.00142696 1.92173e-05 3.71384e-07)
(0.00137638 5.13546e-05 3.91491e-07)
(0.00137852 1.51671e-05 3.61076e-07)
(0.00138522 1.04238e-05 3.41992e-07)
(0.00138888 5.2876e-06 3.47611e-07)
(0.00139126 2.97472e-06 3.49625e-07)
(0.00139195 1.48343e-06 3.46064e-07)
(0.00139186 9.5895e-07 3.50439e-07)
(0.00139042 5.18164e-07 7.51209e-07)
(0.00138867 4.88242e-07 3.50812e-07)
(0.00138695 1.74229e-07 4.19642e-07)
(0.00138438 4.4209e-07 3.17742e-07)
(0.0013818 2.25228e-07 3.09344e-07)
(0.00137936 3.08643e-07 4.11264e-07)
(0.00137674 1.46441e-07 3.81265e-07)
(0.00137429 5.6271e-07 7.14759e-07)
(0.00137217 5.3367e-07 3.09606e-07)
(0.00136962 3.90051e-07 2.00353e-07)
(0.00136668 2.65915e-08 3.55054e-07)
(0.00136408 -1.88409e-07 3.08068e-07)
(0.00136174 -3.95545e-07 3.39218e-07)
(0.0013588 -1.02104e-06 3.02231e-07)
(0.00135565 -8.15116e-07 -8.64083e-08)
(0.00135355 -6.52348e-07 4.67007e-08)
(0.00135143 -3.92138e-07 2.82084e-07)
(0.00134937 5.85121e-07 4.98526e-07)
(0.00134746 6.18728e-07 8.72598e-07)
(0.00134448 1.93129e-07 3.44111e-07)
(0.00134169 2.2434e-07 3.29192e-07)
(0.00133952 3.43027e-07 3.22857e-07)
(0.00133726 5.19735e-07 1.24363e-07)
(0.00133425 7.7272e-07 3.6321e-07)
(0.00133133 3.62472e-07 3.56539e-07)
(0.00132914 2.67043e-08 3.46594e-07)
(0.00132665 -2.67823e-07 3.76906e-07)
(0.00132395 -4.73053e-07 3.80382e-07)
(0.00132249 -1.07597e-06 4.11717e-07)
(0.0013206 -2.94836e-07 3.67722e-07)
(0.00131785 -1.88061e-07 3.43531e-07)
(0.00131517 2.04744e-07 3.02127e-07)
(0.00131244 -4.92141e-08 3.17278e-07)
(0.00131014 -2.72495e-07 9.33911e-08)
(0.00130837 -3.3283e-07 4.15014e-07)
(0.00272059 -1.79089e-05 0.000274576)
(-0.00222273 0.00358364 0.000204416)
(-0.0132547 -0.0125252 0.000344368)
(0.017476 -0.0152325 0.0032756)
(0.0188941 -0.000586075 -0.00307404)
(-0.00556296 0.00789641 0.00154373)
(0.000819554 0.00111886 -6.38197e-05)
(0.00127163 3.38281e-05 3.51747e-07)
(0.00140872 1.66141e-05 -3.24009e-07)
(0.00133246 -9.35718e-06 3.3025e-07)
(0.00137715 -5.69836e-06 3.44992e-07)
(0.00138347 -5.17554e-06 3.51118e-07)
(0.00139003 -3.78533e-06 4.00023e-07)
(0.00139185 -2.61343e-06 3.49155e-07)
(0.00139156 -1.75813e-06 3.48399e-07)
(0.00139076 -1.35844e-06 3.48921e-07)
(0.00138898 -8.81174e-07 3.48014e-07)
(0.00138694 -7.76598e-07 3.31111e-07)
(0.00138459 -9.57988e-07 3.8896e-07)
(0.00138195 -4.93963e-07 3.46574e-07)
(0.00137961 -4.14253e-07 3.17879e-07)
(0.00137729 -9.30674e-08 3.42852e-07)
(0.0013748 1.24341e-07 3.49744e-07)
(0.0013717 4.90232e-08 -1.61441e-07)
(0.00136884 -2.98084e-07 4.06952e-07)
(0.00136617 -1.9741e-07 3.17321e-07)
(0.0013637 -1.34075e-07 3.53093e-07)
(0.00136092 -1.11013e-07 3.34556e-07)
(0.00135864 -2.3801e-07 2.21333e-07)
(0.00135695 4.87146e-07 3.25784e-07)
(0.00135445 8.1252e-07 4.1784e-07)
(0.00135255 7.9968e-07 4.82921e-07)
(0.00134994 7.57595e-07 2.24419e-07)
(0.00134627 4.8906e-07 2.06246e-07)
(0.00134391 1.92913e-08 3.75136e-07)
(0.00134179 2.08351e-07 3.4614e-07)
(0.0013393 1.6377e-07 2.91365e-07)
(0.00133676 1.24118e-08 3.57877e-07)
(0.00133422 -1.6491e-07 3.21099e-07)
(0.00133149 -7.28516e-08 4.50139e-07)
(0.00132892 2.39481e-08 3.68035e-07)
(0.0013266 -1.53667e-07 3.68563e-07)
(0.00132452 4.94109e-07 4.46909e-07)
(0.00132265 7.53572e-07 2.96358e-07)
(0.00132042 3.99498e-07 3.50703e-07)
(0.00131788 3.39932e-07 4.19347e-07)
(0.00131529 3.01996e-07 3.24394e-07)
(0.00131254 5.78954e-07 3.58276e-07)
(0.00130982 3.43676e-07 3.39884e-07)
(0.00130813 2.13605e-07 3.89129e-07)
(-0.00149878 -0.00440688 6.78157e-05)
(-0.00760607 -0.003498 -0.00195411)
(0.0173013 -0.0296168 -1.85943e-05)
(0.0279984 0.00579245 0.00189487)
(-0.118909 0.00436848 0.00814275)
(-0.00209215 0.00603147 -0.000834365)
(0.00170821 0.00170848 1.29175e-05)
(0.0012252 -9.08799e-05 1.15885e-06)
(0.00145166 -7.79163e-05 3.11971e-07)
(0.00135076 -4.6313e-05 3.57404e-07)
(0.00139054 -2.75712e-05 3.4951e-07)
(0.00139133 -1.65033e-05 3.27554e-07)
(0.00139451 -1.02823e-05 3.50226e-07)
(0.00139451 -6.30411e-06 3.49517e-07)
(0.00139345 -3.73516e-06 3.48211e-07)
(0.00139153 -2.19057e-06 3.47375e-07)
(0.00138941 -1.71293e-06 3.60821e-07)
(0.00138686 -1.0546e-06 2.39832e-07)
(0.00138474 -1.07369e-06 3.37505e-07)
(0.00138249 -8.39813e-07 3.1723e-07)
(0.00137986 -7.32239e-07 2.69297e-08)
(0.00137741 -4.74272e-07 3.41176e-07)
(0.00137446 -6.59165e-07 2.47548e-07)
(0.00137164 -5.2415e-07 -1.19689e-08)
(0.00136931 -3.41783e-07 2.98911e-07)
(0.00136689 4.92318e-09 2.88258e-07)
(0.00136419 4.0631e-07 4.07619e-07)
(0.00136161 7.02014e-07 3.96841e-07)
(0.00135955 1.26822e-06 3.61567e-07)
(0.00135696 7.14691e-07 3.17669e-07)
(0.00135393 7.15611e-07 3.89145e-07)
(0.00135135 9.98199e-07 2.72043e-07)
(0.00134897 1.16326e-07 3.30462e-07)
(0.00134653 1.22015e-08 3.34081e-07)
(0.00134413 1.97981e-07 3.00724e-07)
(0.00134187 1.09383e-07 3.40939e-07)
(0.00133927 -4.69165e-08 3.20679e-07)
(0.00133685 -7.72409e-08 3.42749e-07)
(0.00133415 -2.80422e-07 2.01124e-07)
(0.00133157 -2.1704e-07 2.31708e-07)
(0.00132904 6.51641e-08 3.41011e-07)
(0.00132724 3.4466e-07 2.95035e-07)
(0.00132508 6.52166e-07 6.06046e-07)
(0.00132236 7.94716e-07 1.37622e-07)
(0.00132007 3.56984e-07 3.52676e-07)
(0.00131772 2.14866e-07 3.29563e-07)
(0.00131546 2.32925e-07 3.51748e-07)
(0.00131249 5.58123e-07 3.30547e-07)
(0.00130968 3.12796e-07 3.35129e-07)
(0.00130768 4.41406e-07 5.39398e-07)
(0.00491602 0.00145549 7.49752e-05)
(-0.00645364 -0.00938111 -0.00631428)
(-0.00569839 -0.0114037 0.00290925)
(0.0139335 0.0105489 -0.00310611)
(0.000791744 -0.0309162 -0.00495366)
(-0.00105747 -0.000212509 -0.00101611)
(0.000279786 0.00147823 2.79845e-05)
(0.00152941 -0.000287983 6.61506e-06)
(0.00152312 -9.77223e-05 6.20092e-07)
(0.00139612 -5.63046e-05 4.27427e-07)
(0.00141468 -3.35026e-05 3.73656e-07)
(0.00140524 -2.02821e-05 3.60678e-07)
(0.00140287 -1.19945e-05 5.66535e-07)
(0.00140009 -7.51437e-06 3.51213e-07)
(0.00139674 -4.88083e-06 2.56379e-07)
(0.00139331 -3.09791e-06 2.30238e-07)
(0.00139041 -1.7797e-06 3.47422e-07)
(0.00138775 -1.15243e-06 3.43879e-07)
(0.00138487 -4.37587e-07 3.27369e-07)
(0.00138239 -3.10661e-07 3.56281e-07)
(0.00138007 -7.68187e-07 3.76309e-07)
(0.00137738 -2.6505e-07 3.39859e-07)
(0.00137474 -1.22023e-07 8.25656e-07)
(0.00137211 7.8524e-08 3.9061e-07)
(0.0013695 2.82553e-07 2.80732e-07)
(0.0013671 -7.34231e-08 3.74978e-07)
(0.00136457 2.79477e-07 3.83938e-07)
(0.00136199 5.11601e-07 3.13907e-07)
(0.00135864 8.49961e-07 5.13088e-07)
(0.00135625 1.12138e-06 3.37499e-07)
(0.00135479 5.38463e-07 2.8359e-07)
(0.00135179 7.48646e-08 3.39371e-07)
(0.0013487 3.86709e-07 3.64818e-07)
(0.00134637 2.20478e-07 3.38366e-07)
(0.00134403 3.64122e-07 3.2749e-07)
(0.00134148 9.5569e-08 3.29714e-07)
(0.00133906 9.85087e-09 3.57596e-07)
(0.00133647 -6.09769e-08 3.40698e-07)
(0.00133405 -1.23488e-07 3.23942e-07)
(0.00133193 -4.41903e-09 3.80216e-07)
(0.00132962 3.63694e-07 3.30388e-07)
(0.00132733 9.81827e-07 4.65658e-07)
(0.00132507 2.79454e-07 1.18993e-07)
(0.00132227 2.7032e-07 3.28086e-07)
(0.00131969 -1.17006e-07 3.52974e-07)
(0.00131773 -3.09554e-07 3.28298e-07)
(0.00131572 -7.90742e-07 1.1607e-07)
(0.00131264 -1.3353e-06 2.70375e-07)
(0.00130967 -5.06241e-07 4.80184e-07)
(0.00130719 6.4048e-08 3.35893e-07)
(0.00906326 0.000436227 -0.000134531)
(0.00519168 0.00586389 0.00116636)
(0.00473973 0.00313235 0.00121962)
(0.00149593 0.0109649 7.76353e-05)
(0.00141613 -0.00545109 0.0010595)
(-0.000825242 0.00521845 0.00130173)
(-0.000216606 -0.00035496 -5.15129e-05)
(0.00168776 -0.000105002 1.72882e-05)
(0.00157997 -5.77685e-05 6.08059e-07)
(0.00143166 -3.69326e-05 4.1054e-07)
(0.00143582 -2.25095e-05 3.2061e-07)
(0.00141838 -1.39375e-05 5.16735e-07)
(0.00141057 -8.29357e-06 4.12485e-07)
(0.00140346 -5.28803e-06 3.51037e-07)
(0.00139901 -3.3815e-06 3.55261e-07)
(0.00139543 -2.25719e-06 3.91049e-07)
(0.00139186 -1.28284e-06 3.48282e-07)
(0.00138855 -6.56158e-07 3.76573e-07)
(0.00138579 -4.50776e-07 3.34812e-07)
(0.00138207 2.15365e-07 4.06279e-07)
(0.00137992 8.83778e-07 1.14239e-07)