/*--------------------------------*- C++ -*----------------------------------*\
| =========                 |                                                 |
| \\      /  F ield         | OpenFOAM: The Open Source CFD Toolbox           |
|  \\    /   O peration     | Version:  5.0                                   |
|   \\  /    A nd           | Web:      www.OpenFOAM.org                      |
|    \\/     M anipulation  |                                                 |
\*---------------------------------------------------------------------------*/
FoamFile
{
    version     2.0;
    format      ascii;
    class       volVectorField;
    location    "2.7";
    object      U_0;
}
// * * * * * * * * * * * * * * * * * * * * * * * * * * * * * * * * * * * * * //

dimensions      [0 1 -1 0 0 0 0];

internalField   nonuniform List<vector> 
7562
(
(0.000651232 -0.00166766 0.000199016)
(0.000509916 -0.00357962 -0.000295981)
(-0.00252863 -0.000755804 4.6152e-05)
(-0.00936183 -0.00366847 0.000258317)
(0.0119432 -0.00973716 -0.000190675)
(0.00195753 0.00780108 -0.000340124)
(0.000256029 1.50413e-05 4.16713e-06)
(0.000769701 -3.79202e-05 -1.96861e-06)
(0.000790237 -1.80625e-05 1.39607e-07)
(0.000814918 -1.00489e-05 1.41874e-07)
(0.000826356 -5.19672e-06 1.31334e-07)
(0.000832615 -2.93169e-06 6.96289e-08)
(0.000836154 -1.61313e-06 6.68536e-09)
(0.00083743 -8.44855e-07 7.78849e-08)
(0.000837327 -4.77947e-07 5.64768e-08)
(0.000836656 -3.48471e-07 2.70112e-08)
(0.000835666 -3.37173e-07 5.58287e-08)
(0.000834381 -2.08428e-07 6.64717e-08)
(0.000832927 -2.57763e-07 7.2467e-08)
(0.000831721 -3.64673e-07 6.96588e-08)
(0.000830401 -2.29427e-07 2.72059e-08)
(0.000828763 -1.68402e-08 7.47387e-08)
(0.00082703 -7.13762e-08 5.6952e-08)
(0.000825347 1.30238e-08 4.8768e-08)
(0.00082392 2.22686e-07 2.65138e-08)
(0.000822475 2.57195e-07 9.85309e-08)
(0.000820853 6.41925e-08 5.50048e-08)
(0.000819531 6.25701e-08 5.2039e-08)
(0.000817457 2.50866e-07 6.28908e-08)
(0.000815404 -1.32063e-07 5.58255e-08)
(0.000814142 -6.36279e-07 -4.91929e-08)
(0.00081242 -5.5153e-07 -1.04625e-08)
(0.000811088 -5.35095e-07 8.2157e-08)
(0.000809858 -3.38815e-07 7.78926e-08)
(0.000808175 -1.1542e-07 4.62687e-08)
(0.000806611 -7.22888e-08 4.95682e-08)
(0.000804947 -5.44417e-08 6.88153e-08)
(0.000803244 6.30436e-08 4.53512e-08)
(0.000801736 3.43908e-07 -3.41049e-08)
(0.000800515 3.71338e-07 7.56377e-08)
(0.000799184 7.79396e-08 3.073e-08)
(0.000797443 7.64436e-08 7.46538e-08)
(0.000796238 -4.03312e-07 8.6218e-08)
(0.000794705 -3.89588e-07 2.55023e-07)
(0.000792931 -2.24029e-07 4.80293e-08)
(0.000791535 -1.66305e-07 -1.61846e-07)
(0.000790098 -1.36038e-07 5.67438e-08)
(0.000788782 -4.18409e-07 1.70459e-07)
(0.000787035 -2.75737e-07 -1.1343e-08)
(0.00078517 -2.15965e-07 8.41442e-08)
(-0.0034029 3.71823e-05 0.000100759)
(0.00245873 0.00130372 -0.000282214)
(0.00377879 0.00179096 0.000760732)
(0.00455884 0.0046152 0.000361307)
(-0.000323592 0.00393397 -0.000195948)
(0.00473303 0.00231785 1.214e-05)
(0.00035552 -0.000103278 1.26767e-05)
(0.00085804 -8.66348e-05 -2.70636e-06)
(0.000831219 -2.38658e-05 -2.56663e-07)
(0.000833143 -2.34791e-05 3.06198e-08)
(0.000836658 -1.32103e-05 -3.17639e-09)
(0.000838132 -8.73836e-06 3.49216e-08)
(0.000838759 -5.51583e-06 4.18904e-08)
(0.000838657 -3.51284e-06 5.10298e-08)
(0.000838279 -2.21406e-06 5.27871e-08)
(0.000837183 -1.46049e-06 5.26766e-08)
(0.000835929 -5.88364e-07 5.85989e-08)
(0.000834773 -1.6845e-07 8.26455e-08)
(0.000833373 1.94989e-07 4.76247e-08)
(0.000831828 9.36352e-08 2.68988e-08)
(0.000830292 5.12725e-08 9.30434e-08)
(0.000828596 1.98648e-09 7.05998e-08)
(0.00082699 1.52729e-07 1.14301e-07)
(0.000825737 2.35733e-07 5.60474e-08)
(0.000824104 2.30667e-07 7.94725e-08)
(0.000822208 7.57651e-09 1.43766e-07)
(0.000820617 -1.47603e-07 3.75277e-08)
(0.000819193 -3.03162e-07 5.14649e-08)
(0.000817407 -9.83582e-07 5.02124e-08)
(0.000815255 -6.79899e-07 6.36644e-08)
(0.000813876 -4.95274e-07 1.33279e-07)
(0.00081275 -2.94015e-07 3.71648e-08)
(0.000811284 2.71342e-07 2.29863e-07)
(0.000809982 2.90838e-07 4.3536e-08)
(0.000808364 1.27239e-07 4.76536e-08)
(0.000806672 1.09071e-07 8.57292e-08)
(0.000805207 7.2619e-08 4.52368e-08)
(0.000803683 1.73035e-07 5.69021e-08)
(0.000801992 3.5677e-07 2.86945e-08)
(0.000800251 5.12848e-07 4.14999e-07)
(0.000798812 1.39408e-07 6.23473e-08)
(0.000797173 -1.35793e-07 5.92059e-08)
(0.000795616 -3.44835e-07 7.37833e-08)
(0.00079456 -4.42546e-07 1.19074e-07)
(0.00079315 -1.82962e-07 6.32067e-08)
(0.000791588 -1.51363e-07 5.51901e-08)
(0.000790077 -5.17766e-08 7.16161e-08)
(0.000788571 -1.89247e-07 4.87894e-08)
(0.000786977 -3.80619e-07 8.18836e-08)
(0.000785972 -2.56873e-07 2.74071e-08)
(-0.000138213 0.000759425 2.61625e-05)
(-0.00295992 0.00276653 -2.14674e-05)
(-0.00738888 -0.0126847 0.00026988)
(0.0196593 -0.00388604 0.00184413)
(0.00192537 0.0167051 0.000397679)
(0.00526412 0.0043586 0.000352606)
(0.000930523 -8.89595e-05 -2.17077e-05)
(0.000471725 -4.97673e-05 -1.3965e-06)
(0.000894448 -3.00958e-05 -1.67768e-06)
(0.000828391 -2.91918e-05 -5.05845e-07)
(0.000844812 -1.73222e-05 1.88567e-07)
(0.000842253 -1.14677e-05 1.03113e-07)
(0.000842701 -7.40085e-06 7.04955e-08)
(0.000841568 -4.65712e-06 5.41911e-08)
(0.0008399 -2.93389e-06 5.57072e-08)
(0.000838693 -1.884e-06 6.14323e-08)
(0.000837283 -1.14037e-06 4.11467e-08)
(0.00083536 -7.19869e-07 5.20208e-08)
(0.000833254 -5.80545e-07 1.04331e-07)
(0.00083154 -3.20413e-07 8.14875e-08)
(0.000830286 -1.85314e-07 9.62663e-08)
(0.000828887 -1.03636e-07 5.18257e-08)
(0.000827319 7.00073e-08 5.20476e-08)
(0.000825442 3.62167e-09 7.55332e-08)
(0.000823632 -1.98638e-07 7.66617e-08)
(0.000822001 -1.36767e-07 9.51748e-08)
(0.000820466 -1.33442e-07 6.68176e-08)
(0.00081849 -1.25082e-07 6.6271e-08)
(0.000816991 -1.57471e-07 -6.23164e-08)
(0.00081602 2.67024e-07 2.90001e-08)
(0.000814629 6.68875e-07 9.60959e-08)
(0.000813379 6.63544e-07 7.14072e-08)
(0.000811818 4.3185e-07 3.09554e-07)
(0.000809675 3.61564e-07 1.17602e-07)
(0.000807945 7.82384e-08 9.73406e-08)
(0.000806541 1.43875e-07 5.62046e-08)
(0.000805026 8.38562e-08 5.65228e-08)
(0.000803596 1.37936e-08 4.42181e-08)
(0.000802158 8.51955e-09 4.73196e-08)
(0.00080024 -4.07245e-08 1.04423e-08)
(0.000798371 3.39254e-08 6.70819e-08)
(0.000796839 -1.96671e-08 7.68487e-08)
(0.000795858 2.60293e-07 2.51674e-07)
(0.000794911 2.46519e-07 7.54234e-08)
(0.000793299 1.46777e-07 9.38001e-08)
(0.0007917 1.17696e-07 5.5412e-08)
(0.000790052 1.45138e-07 1.15468e-07)
(0.000788372 8.81162e-08 7.80494e-08)
(0.000786957 7.67574e-08 6.65575e-08)
(0.000785965 8.10614e-08 8.29393e-08)
(-0.00105524 6.16702e-05 -0.000266087)
(0.00431402 -0.00275242 -3.69668e-05)
(0.00446942 0.00286195 0.00111176)
(0.023909 0.00840061 0.000749175)
(-0.022795 0.0156972 0.00321438)
(0.00330393 -0.00119996 -0.000312353)
(0.00144915 0.000302037 4.86752e-05)
(0.000497114 -3.95745e-05 -1.60737e-06)
(0.000939252 -4.97036e-05 -1.28411e-06)
(0.000849235 -3.01155e-05 -6.06131e-07)
(0.000858898 -1.82444e-05 1.74463e-07)
(0.000850589 -1.08692e-05 -1.76018e-07)
(0.00084731 -6.81836e-06 5.64093e-08)
(0.000844266 -4.2257e-06 5.46484e-08)
(0.000841762 -2.59473e-06 5.2371e-08)
(0.000839435 -1.54523e-06 5.13531e-08)
(0.000837391 -1.24977e-06 8.18803e-08)
(0.000835477 -9.575e-07 4.26746e-08)
(0.000833875 -8.39526e-07 3.65463e-08)
(0.000832325 -7.51505e-07 3.51134e-08)
(0.000830564 -3.15003e-07 6.91649e-08)
(0.000828915 -2.34657e-07 5.16851e-08)
(0.000827123 -3.27562e-07 1.80795e-08)
(0.000825402 -2.37612e-07 7.73017e-08)
(0.000823928 -1.07312e-07 7.13209e-08)
(0.000822291 7.84387e-08 2.69122e-08)
(0.000820632 2.19795e-07 6.47141e-08)
(0.000819164 3.37861e-07 7.83416e-08)
(0.000817896 8.93708e-07 1.61994e-08)
(0.000816285 8.02099e-07 2.61747e-08)
(0.000814366 7.69917e-07 2.07475e-08)
(0.000812448 7.19935e-07 -1.16832e-08)
(0.000810902 2.44893e-07 4.88048e-08)
(0.000809538 2.82753e-08 5.17764e-08)
(0.000808091 1.79594e-07 6.01066e-08)
(0.000806679 9.03507e-08 2.02859e-07)
(0.000805044 3.5165e-08 6.98485e-08)
(0.000803589 -3.15501e-08 4.56883e-08)
(0.000801924 -2.79557e-07 1.8559e-08)
(0.000800283 -2.70969e-07 -8.56475e-08)
(0.000798838 8.09428e-08 5.90071e-08)
(0.000797455 2.98547e-07 7.04997e-08)
(0.000795946 6.54338e-07 1.40198e-07)
(0.000794415 4.15693e-07 -4.08406e-08)
(0.000792986 1.63521e-07 -7.8129e-08)
(0.000791583 7.70505e-08 4.17546e-08)
(0.000790037 9.25317e-08 6.30477e-08)
(0.000788484 1.36724e-07 5.20666e-08)
(0.000786965 2.78119e-07 4.44739e-08)
(0.000785775 2.32158e-07 5.28875e-08)
(-0.000389149 0.00197312 0.000162258)
(-0.000654427 0.00531859 0.000140249)
(-0.00514146 -0.00717878 0.000165245)
(0.00697377 0.00956641 -0.00548771)
(0.0163996 0.000854222 0.00028638)
(0.000227847 -0.000597856 -1.6065e-05)
(0.00091038 0.000302894 1.39256e-06)
(0.000635427 -6.85005e-05 3.87645e-06)
(0.000962243 -2.68972e-05 -1.442e-06)
(0.000868148 -1.56386e-05 -5.56514e-07)
(0.000869023 -9.59809e-06 1.72504e-07)
(0.000856625 -6.04085e-06 3.65092e-07)
(0.000851059 -3.39198e-06 1.11045e-07)
(0.00084688 -2.16163e-06 5.31553e-08)
(0.00084327 -1.39289e-06 3.53895e-08)
(0.000840386 -8.66167e-07 5.07007e-08)
(0.000838025 -4.68031e-07 5.3448e-08)
(0.000835879 -2.66086e-07 4.99246e-08)
(0.000833516 4.60188e-08 1.42534e-07)
(0.0008322 4.07491e-07 1.00952e-07)
(0.000830935 9.92465e-08 6.82008e-08)
(0.000828875 9.89052e-08 7.71093e-08)
(0.000827319 -1.30239e-08 7.89158e-08)
(0.00082572 9.14376e-08 1.04402e-07)
(0.000824029 1.32282e-07 6.97099e-08)
(0.00082241 3.96068e-08 6.85426e-08)
(0.000820788 1.35296e-07 6.70297e-08)
(0.000819327 1.47837e-07 1.94951e-08)
(0.000817565 1.57605e-07 6.58896e-09)
(0.000815857 6.4828e-08 4.12159e-08)
(0.000814518 2.64199e-08 -5.81449e-08)
(0.000812717 -2.41096e-07 4.63301e-08)
(0.00081095 1.46925e-07 4.06765e-08)
(0.000809592 1.12706e-07 5.25954e-08)
(0.000808022 2.31543e-07 6.87233e-08)
(0.00080636 7.74552e-08 5.12493e-08)
(0.000804873 2.30524e-08 4.35471e-08)
(0.000803204 -1.41296e-08 4.64252e-08)
(0.00080186 -8.06448e-08 9.48081e-08)
(0.000800692 4.97877e-08 -1.68628e-07)
(0.000799083 1.48572e-07 6.38266e-08)
(0.000797553 2.26715e-07 3.59982e-07)
(0.000796 2.47853e-07 4.56227e-08)
(0.000794293 1.84009e-07 -1.03844e-07)
(0.000792873 9.17969e-09 4.86494e-08)
(0.00079161 -1.03386e-07 4.83801e-08)
(0.000790126 -3.01139e-07 -1.41307e-08)
(0.000788604 -2.84984e-07 -2.83461e-07)
(0.000787069 -1.879e-07 1.03265e-07)
(0.000785329 1.16591e-07 9.18218e-08)
(0.00153574 -0.00125792 0.000158372)
(0.000383865 0.00735447 -0.000301214)
(0.00185126 -8.64915e-05 0.000305615)
(-0.00993894 -0.00771514 -0.000284578)
(-0.0022466 0.00669073 0.000613098)
(0.00646131 0.00136026 0.000521815)
(0.000730621 -7.47078e-05 1.25796e-05)
(0.000398221 2.88888e-06 6.16755e-06)
(0.000962897 1.10883e-05 -1.56802e-06)
(0.000871145 5.97181e-06 -5.28211e-07)
(0.000871016 3.74868e-06 1.73812e-07)
(0.000858421 2.20287e-06 2.45765e-08)
(0.000852204 1.6288e-06 7.24652e-08)
(0.000846791 9.27197e-07 4.66751e-08)
(0.000843398 6.44854e-07 1.09423e-07)
(0.000840602 2.95266e-07 1.02499e-07)
(0.000838148 1.96601e-07 5.33825e-08)
(0.000836123 1.91617e-07 8.23307e-08)
(0.000834718 1.20725e-07 7.83209e-08)
(0.000832391 6.02922e-07 3.8689e-08)
(0.000830178 2.97471e-07 2.02176e-08)
(0.000828775 2.4783e-07 5.08815e-08)
(0.000827114 2.68226e-07 8.25891e-08)
(0.000825583 1.31992e-07 6.88477e-08)
(0.000823864 8.93423e-08 7.25934e-08)
(0.000822294 6.69256e-08 6.5642e-08)
(0.000820767 -6.54267e-08 1.54442e-07)
(0.00081919 -1.89135e-07 2.21886e-08)
(0.00081779 -1.77286e-07 1.03343e-07)
(0.000816119 -2.77176e-07 3.99556e-08)
(0.000813983 -4.93159e-07 -1.29467e-08)
(0.000812598 -3.69822e-07 -1.69103e-08)
(0.000811344 -2.64629e-07 1.07654e-08)
(0.000809641 -1.24364e-07 7.55312e-08)
(0.000808045 -1.6944e-07 -1.74366e-09)
(0.000806417 -1.16491e-08 4.60662e-08)
(0.000804929 4.55646e-08 5.47261e-08)
(0.00080346 1.37047e-07 5.67386e-08)
(0.000802005 2.68485e-07 1.16748e-07)
(0.00080057 1.26228e-07 6.66218e-08)
(0.000799058 9.71946e-08 6.93693e-08)
(0.000797577 3.04922e-07 2.08792e-07)
(0.000795891 4.35684e-08 4.32141e-08)
(0.000794117 -1.14104e-08 -4.0375e-10)
(0.000792627 -2.74871e-08 4.19501e-08)
(0.000791198 -1.65089e-07 4.80318e-08)
(0.000789814 -5.1135e-07 -3.33776e-07)
(0.000788628 -5.38465e-07 5.798e-08)
(0.000787468 -4.65919e-07 9.85104e-08)
(0.000785864 -1.98486e-07 1.92188e-07)
(-0.00110568 0.00055773 -0.000117645)
(-0.00632862 -0.00029489 0.000498789)
(-0.00615006 -0.00627533 -0.00467813)
(0.00396692 0.00641707 3.84494e-05)
(0.00183778 7.28668e-05 0.000223959)
(-0.00117653 0.0042987 -0.000166558)
(0.00110011 -0.000617733 2.77782e-05)
(0.000560047 9.91927e-06 3.01804e-06)
(0.000952686 3.97284e-05 -1.4188e-06)
(0.000858931 2.53271e-05 -6.03686e-07)
(0.000864343 1.51934e-05 1.73727e-07)
(0.000853992 9.4561e-06 -2.59444e-08)
(0.000849475 5.54229e-06 5.46434e-08)
(0.000845656 3.45763e-06 5.01589e-08)
(0.000842485 1.99847e-06 4.74581e-08)
(0.000839829 1.31518e-06 5.55259e-08)
(0.000837898 8.27064e-07 5.42963e-08)
(0.000835785 5.83803e-07 4.38215e-08)
(0.00083403 4.13586e-07 5.3489e-08)
(0.00083242 -2.08054e-07 5.91664e-08)
(0.000830489 1.11185e-07 5.17814e-08)
(0.000828836 6.91047e-08 5.19807e-08)
(0.000827172 1.70702e-07 3.23709e-08)
(0.000825495 6.88672e-08 4.78286e-08)
(0.000823946 8.95852e-08 1.18699e-07)
(0.000822216 1.9272e-07 1.90301e-07)
(0.000820468 -1.87227e-08 5.61167e-08)
(0.000819188 -6.45019e-08 7.14193e-08)
(0.000817457 -4.03589e-07 7.53198e-08)
(0.000815466 -7.28294e-07 1.02926e-08)
(0.000814406 -3.46769e-07 1.52954e-07)
(0.000813007 -3.98976e-08 9.36007e-08)
(0.000811259 -8.65907e-08 5.09757e-08)
(0.000809713 -9.17145e-08 3.89622e-08)
(0.000808164 -1.01744e-07 1.56755e-07)
(0.000806629 6.73638e-09 5.731e-08)
(0.000805059 1.84141e-08 4.39652e-08)
(0.000803482 6.1272e-08 6.38166e-08)
(0.000801846 1.11002e-07 5.17693e-08)
(0.000800477 1.5082e-07 3.80876e-08)
(0.000799305 -4.9657e-08 4.52397e-08)
(0.000797485 -2.75302e-07 -2.99044e-08)
(0.000795605 -2.91701e-07 4.39003e-08)
(0.000794204 -2.25076e-07 5.27499e-08)
(0.000792682 -1.02108e-07 7.56122e-09)
(0.000791008 -7.76399e-09 5.08074e-08)
(0.000789663 -4.83157e-09 -5.31005e-08)
(0.000788665 -2.84849e-07 7.1159e-08)
(0.000787504 -2.16413e-07 2.0679e-08)
(0.000786158 -3.05586e-07 8.39422e-08)
(-0.00537479 -0.0036347 0.000507012)
(-0.00217464 0.00213233 0.000330288)
(-0.0100006 -0.00193147 -0.000199529)
(-0.000213386 0.00744459 -0.000633097)
(0.00245567 0.00372589 -0.000325223)
(0.0010924 0.00926166 -0.000161985)
(0.00137832 -0.000169912 0.000133546)
(0.000507857 7.03358e-05 5.12753e-07)
(0.000908666 4.22422e-05 -1.40961e-06)
(0.000840136 3.43456e-05 -5.03075e-07)
(0.0008511 1.98377e-05 1.67091e-07)
(0.000846315 1.25812e-05 3.55327e-08)
(0.000844682 7.72813e-06 5.93193e-08)
(0.000842348 4.77816e-06 5.57019e-08)
(0.000840712 2.8724e-06 2.91426e-07)
(0.000839133 1.81534e-06 5.78747e-08)
(0.00083723 1.13863e-06 1.27349e-07)
(0.000835604 6.45314e-07 9.30409e-08)
(0.000833728 5.26523e-07 9.37465e-08)
(0.000832013 2.49314e-07 4.3992e-08)
(0.000830525 7.24314e-08 5.28042e-08)
(0.000828849 -3.23909e-10 6.25336e-08)
(0.000827113 -1.81374e-07 3.72394e-08)
(0.000825481 -1.03727e-07 5.26079e-08)
(0.000824018 -2.51523e-07 5.89199e-08)
(0.000822158 -3.567e-07 3.57206e-08)
(0.000820445 -1.29007e-07 8.8777e-09)
(0.000818711 2.05881e-08 4.92009e-08)
(0.000816965 -1.70968e-07 3.21536e-08)
(0.000816196 3.1019e-07 4.92263e-08)
(0.000814848 4.2876e-07 9.1779e-08)
(0.000812925 1.9878e-07 7.32963e-08)
(0.00081128 2.9125e-07 5.24245e-08)
(0.000809623 9.66698e-08 4.70726e-08)
(0.000808169 5.49481e-08 4.81696e-08)
(0.000806568 -7.39429e-08 4.94731e-08)
(0.000804998 -9.98705e-08 5.6939e-08)
(0.000803576 -1.51719e-07 8.92753e-09)
(0.000802116 8.09078e-08 4.47871e-08)
(0.000800369 1.26985e-07 1.05544e-07)
(0.000798526 -1.06754e-07 4.946e-08)
(0.000797277 -3.42767e-07 7.12248e-08)
(0.000795956 -1.36384e-07 5.95619e-08)
(0.000794356 -2.08963e-07 5.31844e-08)
(0.0007929 -4.48227e-08 5.84372e-08)
(0.00079132 1.08993e-07 4.7063e-08)
(0.000789468 4.83539e-07 6.27906e-08)
(0.000788366 6.3854e-07 7.09875e-08)
(0.00078745 2.22293e-07 -1.2154e-08)
(0.000786515 -1.24863e-08 8.88511e-08)
(0.000987124 -0.00802748 -0.000106506)
(-0.00205143 0.000631858 0.00025459)
(-0.00231447 0.00385357 0.000336213)
(-0.00430244 -0.0199797 -0.000353273)
(-0.00140607 -0.00784541 0.00132959)
(0.0131278 0.00194914 -6.49107e-05)
(0.000813077 0.000289155 2.42504e-05)
(0.000807997 0.000109281 -3.16321e-06)
(0.000829769 3.52469e-05 1.98038e-07)
(0.000830795 2.95467e-05 1.25401e-08)
(0.000837008 1.69236e-05 7.42238e-08)
(0.00083878 1.09841e-05 5.20845e-08)
(0.000839675 6.86367e-06 5.9002e-08)
(0.000839559 4.20597e-06 5.6635e-08)
(0.000838764 2.80626e-06 4.90203e-08)
(0.000837651 1.78345e-06 1.18984e-07)
(0.000836429 1.11851e-06 9.74996e-08)
(0.000835016 6.1058e-07 1.0695e-07)
(0.000833533 3.78703e-07 5.14957e-08)
(0.000831851 4.8565e-07 8.91158e-08)
(0.000830177 2.0431e-07 5.3099e-08)
(0.000828521 -4.75332e-08 7.78306e-08)
(0.000827044 -1.56309e-07 6.04636e-08)
(0.00082541 -1.7695e-07 5.48115e-08)
(0.000823633 -2.45916e-07 3.94569e-08)
(0.000822372 -3.52754e-07 6.62823e-08)
(0.000820942 -4.73232e-08 2.7573e-08)
(0.000819138 -2.08225e-08 4.98495e-08)
(0.000817819 1.52588e-07 9.63772e-08)
(0.000816214 5.28505e-07 3.74833e-08)
(0.000814264 2.87754e-07 2.23869e-07)
(0.000812832 1.6898e-07 6.40465e-08)
(0.00081113 4.29099e-08 8.148e-08)
(0.000809417 -4.374e-08 -1.85238e-08)
(0.000807951 -9.26174e-08 1.18829e-07)
(0.000806436 -1.55778e-07 6.94941e-08)
(0.000804963 -7.08809e-08 4.35068e-09)
(0.000803709 -1.2398e-07 6.44122e-08)
(0.000802194 -3.82785e-07 9.26758e-08)
(0.000800242 -5.31221e-07 3.79967e-08)
(0.000798719 -2.1078e-07 3.82167e-08)
(0.00079745 -8.18967e-09 1.81104e-08)
(0.000795774 1.86868e-07 4.90779e-08)
(0.00079432 1.84136e-07 5.10962e-08)
(0.00079308 1.7018e-07 4.75017e-08)
(0.000791667 1.59759e-07 4.11853e-09)
(0.000790322 2.96872e-07 6.3629e-08)
(0.000788335 9.00126e-07 2.76351e-08)
(0.000786688 6.03293e-07 -3.36283e-08)
(0.000785893 3.23898e-07 9.21992e-08)
(0.00329831 0.00198742 -0.000436238)
(0.00265722 -0.00489982 5.97033e-05)
(0.00118692 0.00120544 0.000135675)
(-0.00168373 -0.000359625 0.000258897)
(-0.0031719 -0.00743942 -0.000490365)
(-0.00709031 -0.00663404 0.000933398)
(0.000407656 2.97335e-05 2.16977e-05)
(0.00077456 4.486e-05 -2.26259e-06)
(0.000796389 2.04763e-05 8.68765e-08)
(0.000817059 1.32812e-05 1.00762e-07)
(0.000827769 7.86834e-06 1.20303e-07)
(0.000833663 4.8234e-06 3.03436e-07)
(0.000836159 2.97726e-06 6.50102e-08)
(0.000837245 2.03318e-06 3.75146e-08)
(0.000837664 1.29154e-06 5.52702e-08)
(0.00083701 8.95124e-07 6.35043e-08)
(0.000835756 5.02905e-07 5.09867e-08)
(0.000834675 2.89019e-07 1.10787e-07)
(0.000833568 -2.71134e-09 7.61388e-08)
(0.000831793 -1.94366e-07 -3.23869e-09)
(0.000829857 -1.06171e-07 4.47379e-08)
(0.000828399 -1.48354e-08 4.94537e-08)
(0.000826953 8.79807e-08 5.72538e-08)
(0.000825371 -2.63863e-08 5.09722e-08)
(0.000823801 3.88254e-08 5.8455e-08)
(0.000822409 2.03759e-07 2.58426e-08)
(0.000820862 1.22242e-07 3.35143e-08)
(0.000818961 1.33848e-07 -3.39803e-09)
(0.00081765 4.38128e-07 -7.22986e-09)
(0.000816362 -1.55214e-07 9.74962e-08)
(0.000814396 -2.10244e-07 7.69765e-08)
(0.000812618 -2.54877e-07 6.17905e-08)
(0.000811015 -5.42856e-07 3.01632e-08)
(0.000809455 -2.9142e-07 1.43369e-07)
(0.00080803 -1.92341e-07 2.54003e-07)
(0.000806596 -1.1383e-07 6.92916e-08)
(0.000805039 -5.34781e-08 3.23587e-08)
(0.000803188 -1.26813e-07 4.81832e-08)
(0.00080161 -4.26607e-07 2.09208e-09)
(0.000800587 -4.95092e-07 6.45446e-08)
(0.000799182 -2.10791e-07 6.35367e-08)
(0.000797774 -1.24909e-07 2.81822e-08)
(0.000796196 -2.16688e-07 7.31337e-08)
(0.000794333 2.47226e-07 2.68285e-08)
(0.000792868 9.17504e-08 -3.66504e-08)
(0.000791476 1.30408e-07 4.58583e-08)
(0.000790389 -1.29439e-08 1.16084e-08)
(0.000788743 -4.75515e-08 3.07602e-08)
(0.000786717 3.46127e-07 -1.75153e-08)
(0.00078536 2.35688e-07 7.34845e-08)
(0.0175134 -0.00347569 -7.43364e-05)
(0.0043445 0.00786623 -0.00360239)
(0.00351108 -0.00118264 0.000533768)
(-0.00319306 0.00317695 -7.94067e-05)
(-0.0151186 -0.0147114 -0.00166365)
(-0.00447996 0.00610543 -0.00518396)
(0.0010669 6.87214e-05 -1.58647e-06)
(0.00130332 -5.40983e-05 3.20955e-07)
(0.00132672 -2.39875e-05 3.30698e-07)
(0.00136324 -1.2924e-05 3.49617e-07)
(0.00137965 -6.28308e-06 3.24133e-07)
(0.00138864 -3.45315e-06 2.57761e-07)
(0.00139376 -1.80039e-06 2.73346e-07)
(0.00139539 -8.25377e-07 3.43487e-07)
(0.0013949 -4.36286e-07 3.60343e-07)
(0.00139366 -3.29263e-07 3.09506e-07)
(0.00139191 -3.99908e-07 3.50922e-07)
(0.00138973 -2.22472e-07 3.43084e-07)
(0.00138729 -3.03562e-07 4.02487e-07)
(0.00138521 -4.83414e-07 3.64848e-07)
(0.00138296 -2.6661e-07 3.36753e-07)
(0.00138018 9.29754e-08 3.73616e-07)
(0.00137732 -2.73994e-08 3.36586e-07)
(0.00137459 7.07721e-08 3.02386e-07)
(0.00137222 4.31532e-07 3.01578e-07)
(0.00136975 5.00971e-07 3.8854e-07)
(0.00136702 1.53663e-07 2.97762e-07)
(0.00136486 1.14085e-07 3.53523e-07)
(0.00136142 3.98675e-07 4.00538e-07)
(0.00135801 -2.78498e-07 3.82382e-07)
(0.00135587 -1.09354e-06 2.55948e-07)
(0.00135295 -9.39601e-07 1.08032e-07)
(0.00135072 -8.43785e-07 3.56675e-07)
(0.00134878 -4.80106e-07 3.35159e-07)
(0.00134602 -1.07577e-07 3.30843e-07)
(0.00134334 -4.04401e-08 3.35135e-07)
(0.00134052 -4.79405e-08 3.58265e-07)
(0.00133762 1.70421e-07 3.16377e-07)
(0.00133523 6.76661e-07 1.40152e-07)
(0.00133326 6.61219e-07 3.55753e-07)
(0.00133093 1.3503e-07 2.9664e-07)
(0.00132805 1.12323e-07 3.59285e-07)
(0.00132614 -6.56059e-07 3.44121e-07)
(0.00132347 -6.3193e-07 7.42262e-07)
(0.00132047 -3.92496e-07 3.61461e-07)
(0.0013182 -3.22769e-07 1.00436e-07)
(0.00131579 -2.50791e-07 3.09553e-07)
(0.0013136 -6.62424e-07 4.68604e-07)
(0.00131066 -4.78956e-07 2.3886e-07)
(0.00130756 -3.87967e-07 3.81418e-07)
(0.00500902 -0.00510833 -0.000122039)
(-0.000998134 0.00517921 -0.000715494)
(0.00390388 0.0104696 0.00426155)
(-0.00294117 -0.00074168 0.00444679)
(-0.0124385 -0.00869031 -0.0119041)
(-0.0203087 -0.00172131 0.000263966)
(0.00139019 -0.000436973 3.10903e-05)
(0.00143517 -0.000123616 3.74104e-07)
(0.00138752 -2.80972e-05 4.03082e-07)
(0.00138918 -3.22614e-05 5.3795e-07)
(0.00139428 -1.79578e-05 3.10317e-07)
(0.00139634 -1.20816e-05 3.49804e-07)
(0.00139721 -7.66938e-06 3.57282e-07)
(0.00139692 -4.94784e-06 3.49745e-07)
(0.0013962 -3.11666e-06 3.50145e-07)
(0.00139434 -2.07458e-06 3.2259e-07)
(0.00139225 -7.88897e-07 3.50044e-07)
(0.00139032 -1.98169e-07 4.12269e-07)
(0.00138793 3.54196e-07 3.22636e-07)
(0.00138533 1.81773e-07 3.13113e-07)
(0.0013828 1.38601e-07 3.893e-07)
(0.00137995 5.13384e-08 3.74136e-07)
(0.00137725 3.65653e-07 4.01371e-07)
(0.00137521 4.83285e-07 5.85611e-07)
(0.0013725 4.58605e-07 3.76502e-07)
(0.00136929 6.58362e-08 5.1251e-07)
(0.00136662 -1.90712e-07 3.10755e-07)
(0.00136425 -4.95225e-07 3.41921e-07)
(0.00136127 -1.63022e-06 4.02221e-07)
(0.00135774 -1.11557e-06 2.7971e-07)
(0.00135549 -8.03932e-07 3.73763e-07)
(0.00135359 -4.78859e-07 3.05181e-07)
(0.00135117 5.76311e-07 7.07632e-07)
(0.001349 5.922e-07 3.07523e-07)
(0.00134627 2.34105e-07 3.20488e-07)
(0.0013434 2.0032e-07 3.807e-07)
(0.00134096 1.68461e-07 3.24552e-07)
(0.0013385 3.55394e-07 3.77313e-07)
(0.00133565 7.16511e-07 3.34346e-07)
(0.00133264 8.53938e-07 7.49742e-07)
(0.00133021 2.22058e-07 3.50203e-07)
(0.00132755 -2.2547e-07 3.67222e-07)
(0.00132497 -5.46479e-07 3.12345e-07)
(0.00132323 -8.19648e-07 3.81059e-07)
(0.0013209 -3.25163e-07 3.66417e-07)
(0.00131828 -2.89588e-07 2.6955e-07)
(0.00131581 -4.07571e-08 3.26591e-07)
(0.0013133 -2.89599e-07 2.83335e-07)
(0.00131062 -6.01112e-07 3.69536e-07)
(0.0013089 -4.32632e-07 2.22236e-07)
(0.00271207 0.000122099 0.00028849)
(-0.0027199 0.00360807 0.000158826)
(-0.0150544 -0.0150592 -2.55422e-05)
(0.0150048 -0.0105685 0.00497178)
(0.017576 0.00386297 -0.000234457)
(-0.00664176 0.00700914 0.00164885)
(0.000978866 0.000716973 -5.71196e-05)
(0.00139869 -0.000117259 1.28144e-07)
(0.00148412 -4.03487e-05 -2.06261e-07)
(0.00137613 -4.26263e-05 3.43852e-07)
(0.00140487 -2.52313e-05 3.52659e-07)
(0.0014015 -1.6871e-05 3.93838e-07)
(0.00140269 -1.09286e-05 3.60835e-07)
(0.00140108 -6.90343e-06 3.52551e-07)
(0.00139849 -4.35446e-06 3.50803e-07)
(0.00139657 -2.80536e-06 3.49236e-07)
(0.00139426 -1.69066e-06 3.48369e-07)
(0.00139116 -1.08706e-06 2.90573e-07)
(0.00138776 -9.48107e-07 3.86787e-07)
(0.00138494 -5.16418e-07 3.82574e-07)
(0.0013828 -3.04677e-07 3.50241e-07)
(0.00138046 -1.60343e-07 3.43775e-07)
(0.00137786 1.47903e-07 3.56011e-07)
(0.0013747 7.33086e-08 3.06059e-07)
(0.0013717 -3.35575e-07 3.69293e-07)
(0.00136893 -2.06685e-07 3.95009e-07)
(0.00136632 -1.79139e-07 3.42843e-07)
(0.00136307 -1.5405e-07 3.40774e-07)
(0.00136065 -2.23527e-07 1.12147e-07)
(0.00135906 5.04389e-07 3.0787e-07)
(0.00135667 1.13394e-06 3.49021e-07)
(0.00135468 1.1081e-06 3.38452e-07)
(0.00135206 7.20631e-07 8.31574e-07)
(0.00134835 5.96034e-07 4.28886e-07)
(0.00134553 1.0576e-07 3.80552e-07)
(0.00134325 2.14597e-07 3.4866e-07)
(0.00134071 1.41181e-07 2.91112e-07)
(0.0013383 2.55744e-08 3.2689e-07)
(0.00133584 -3.52847e-08 3.44404e-07)
(0.00133264 -1.19948e-07 3.00972e-07)
(0.00132958 4.61262e-08 3.68006e-07)
(0.00132709 -2.24477e-08 3.92686e-07)
(0.0013254 4.89661e-07 7.79968e-07)
(0.00132376 5.03939e-07 3.34176e-07)
(0.00132114 3.67122e-07 3.26623e-07)
(0.00131856 3.09728e-07 3.24792e-07)
(0.00131579 3.40224e-07 4.12022e-07)
(0.0013129 2.35504e-07 3.56833e-07)
(0.0013105 1.53523e-07 3.48425e-07)
(0.00130885 1.42474e-07 3.7856e-07)
(-0.00151874 -0.00439877 8.65763e-05)
(-0.00775106 -0.00346174 -0.00214077)
(0.0121129 -0.0125961 0.00585766)
(0.0267985 0.00958441 0.00339053)
(-0.0932249 -0.0187739 0.0189143)
(0.00147264 0.00490245 -0.00358327)
(0.00214088 0.00173584 1.5714e-05)
(0.00145319 -0.000107926 1.46039e-06)
(0.00155408 -7.96753e-05 3.41017e-07)
(0.00140822 -4.78656e-05 2.98025e-07)
(0.00142656 -2.88226e-05 3.57244e-07)
(0.00141428 -1.70589e-05 1.35412e-07)
(0.00140972 -1.07062e-05 3.52663e-07)
(0.00140517 -6.60647e-06 3.52771e-07)
(0.00140134 -4.02316e-06 3.50847e-07)
(0.00139768 -2.37213e-06 3.48988e-07)
(0.00139441 -1.93708e-06 3.02927e-07)
(0.00139126 -1.45705e-06 2.96468e-07)
(0.00138865 -1.30883e-06 3.37444e-07)
(0.00138614 -1.14873e-06 3.19698e-07)
(0.00138324 -5.31526e-07 3.74517e-07)
(0.00138052 -3.96204e-07 3.4457e-07)
(0.00137754 -5.85593e-07 2.7443e-07)
(0.0013746 -4.33934e-07 3.88228e-07)
(0.00137215 -2.43694e-07 7.03183e-07)
(0.00136949 4.84663e-08 3.14037e-07)
(0.00136669 3.54785e-07 4.06724e-07)
(0.0013642 6.26965e-07 4.1908e-07)
(0.0013621 1.56546e-06 3.15978e-07)
(0.00135943 1.37846e-06 5.14001e-07)
(0.00135623 1.29995e-06 3.17402e-07)
(0.00135307 1.26122e-06 2.60093e-09)
(0.00135052 3.97459e-07 3.35268e-07)
(0.00134823 4.81411e-08 3.38583e-07)
(0.00134579 3.09752e-07 3.70359e-07)
(0.00134344 1.47615e-07 5.07818e-07)
(0.00134073 3.84106e-08 3.40688e-07)
(0.00133828 -8.00005e-08 2.76002e-07)
(0.00133547 -4.88559e-07 2.40439e-07)
(0.00133274 -4.80489e-07 1.10912e-08)
(0.00133034 1.29783e-07 3.448e-07)
(0.0013281 5.33825e-07 3.37703e-07)
(0.00132562 1.06802e-06 4.81913e-07)
(0.00132307 7.31224e-07 1.79671e-07)
(0.00132065 3.00288e-07 1.95077e-07)
(0.00131824 1.50455e-07 3.28178e-07)
(0.00131571 1.16365e-07 3.53812e-07)
(0.00131306 2.08389e-07 3.35918e-07)
(0.0013105 4.39256e-07 3.22851e-07)
(0.00130853 4.009e-07 2.47687e-07)
(0.00498274 0.00141821 2.31714e-05)
(-0.00498585 -0.00891804 -0.00576358)
(-0.0069118 -0.0117064 0.00127061)
(0.0335646 0.0182494 7.32042e-05)
(-0.00111865 -0.0485061 -0.00349894)
(-0.000791041 0.000166147 -0.00123277)
(0.000435334 0.00178666 3.20374e-05)
(0.00170943 -0.000211994 6.88148e-06)
(0.00159431 -4.77446e-05 6.49406e-07)
(0.0014404 -2.75385e-05 4.37882e-07)
(0.00144361 -1.67386e-05 3.82806e-07)
(0.00142428 -1.04478e-05 7.88016e-07)
(0.00141583 -5.86232e-06 3.46452e-07)
(0.00140948 -3.73062e-06 3.531e-07)
(0.00140381 -2.41715e-06 3.39732e-07)
(0.00139919 -1.51635e-06 3.4197e-07)
(0.00139541 -8.34253e-07 3.49201e-07)
(0.00139195 -4.96308e-07 3.48331e-07)
(0.00138816 4.97259e-08 4.40815e-07)
(0.00138591 5.77992e-07 3.46106e-07)
(0.00138374 1.1249e-07 3.80388e-07)
(0.0013804 1.1897e-07 3.48151e-07)
(0.00137781 -4.32861e-08 4.00935e-07)
(0.00137513 9.92476e-08 3.91323e-07)
(0.0013723 2.2073e-07 2.61148e-07)
(0.00136968 -8.76772e-09 3.495e-07)
(0.00136704 2.09028e-07 3.90159e-07)
(0.00136457 2.68355e-07 3.086e-07)
(0.00136158 3.56543e-07 2.83318e-07)
(0.00135871 2.12036e-07 5.20576e-07)
(0.00135651 1.05324e-07 -4.59916e-07)
(0.00135354 -3.47885e-07 3.0694e-07)
(0.00135054 2.99292e-07 3.19864e-07)
(0.00134823 2.11602e-07 3.39195e-07)
(0.00134565 3.8438e-07 3.40368e-07)
(0.00134291 1.07174e-07 3.37559e-07)
(0.00134043 2.64603e-10 2.48533e-07)
(0.00133764 -6.09025e-08 3.32065e-07)
(0.00133535 -1.63088e-07 4.27855e-07)
(0.00133341 5.40339e-08 6.23776e-08)
(0.00133085 2.60205e-07 3.43474e-07)
(0.00132826 4.56562e-07 7.05667e-07)
(0.00132564 3.81155e-07 3.22003e-07)
(0.00132279 2.60509e-07 8.93539e-09)
(0.0013204 -9.59754e-08 3.45703e-07)
(0.00131833 -2.40677e-07 3.2878e-07)
(0.00131586 -6.15609e-07 1.79584e-07)
(0.0013133 -6.08201e-07 -8.50562e-08)
(0.00131073 -3.35985e-07 4.29193e-07)
(0.00130781 1.93673e-07 4.25256e-07)
(0.00877704 0.000106183 -0.000100804)
(0.00558899 0.0054288 0.000453105)
(0.00508598 0.00499289 0.000999016)
(0.00172422 0.00984778 -0.000461675)
(0.000956026 -0.00178507 0.000546418)
(0.000176026 0.00495445 0.00121144)
(-0.000215132 -2.56558e-06 -4.98719e-05)
(0.00174005 -1.61203e-06 1.72458e-05)
(0.00159917 1.24024e-05 6.15157e-07)
(0.00144747 6.11721e-06 3.79745e-07)
(0.00144813 3.84349e-06 3.21518e-07)
(0.00142801 2.1371e-06 3.39649e-07)
(0.00141819 1.77724e-06 3.93011e-07)
(0.00140952 9.49483e-07 3.53034e-07)
(0.00140414 6.75698e-07 4.28755e-07)
(0.00139968 2.32566e-07 4.13462e-07)
(0.0013957 1.70058e-07 3.49992e-07)
(0.00139237 2.06999e-07 3.87718e-07)
(0.00139 1.13126e-07 3.62662e-07)
(0.00138622 8.66941e-07 3.81191e-07)
(0.00138267 4.58383e-07 3.20168e-07)
(0.00138033 3.90411e-07 3.28215e-07)