/*--------------------------------*- C++ -*----------------------------------*\
| =========                 |                                                 |
| \\      /  F ield         | OpenFOAM: The Open Source CFD Toolbox           |
|  \\    /   O peration     | Version:  5.0                                   |
|   \\  /    A nd           | Web:      www.OpenFOAM.org                      |
|    \\/     M anipulation  |                                                 |
\*---------------------------------------------------------------------------*/
FoamFile
{
    version     2.0;
    format      ascii;
    class       surfaceVectorField;
    location    "2.7";
    object      Uf;
}
// * * * * * * * * * * * * * * * * * * * * * * * * * * * * * * * * * * * * * //

dimensions      [0 1 -1 0 0 0 0];

internalField   nonuniform List<vector> 
22429
(
(0.00069191 -0.00274575 -3.57568e-05)
(-0.00128619 -0.00128306 0.00015338)
(0.00951851 -0.00267819 0.000112418)
(-0.00181412 -0.00230431 -0.000130495)
(0.00123821 -0.0021338 -0.000284066)
(0.00207545 0.00355851 -0.00333176)
(-0.00380969 -0.00845998 0.00161581)
(0.00101914 0.00399814 0.000572534)
(0.00105787 0.00228725 0.00168637)
(-0.0045542 -0.00321729 0.000181908)
(0.000410687 0.000897087 0.000370303)
(0.00158153 -0.000807823 -0.000155309)
(-0.00613473 0.000346209 0.0024748)
(0.00130289 -0.00200275 0.000939032)
(-0.00114464 0.0093081 -0.00237581)
(-0.00218716 0.00433853 -0.000397394)
(-0.00418015 0.000163447 0.000268525)
(-0.00662897 0.00530159 -0.000835087)
(-0.00797138 -0.000270453 -0.000392945)
(-0.00417481 0.00056589 -0.000167265)
(-0.00766275 -0.00184438 0.00045215)
(0.00855235 -0.00447566 0.00167392)
(0.00754215 -0.0122656 0.000112389)
(0.0109205 -0.0114982 0.00132546)
(0.0114805 -0.00273925 2.76635e-05)
(-0.00714029 0.00453924 0.000433302)
(0.00408333 0.00292334 -0.000212442)
(-0.00285526 0.00669211 -0.000491159)
(0.000650778 0.0076116 -0.0014557)
(0.000377191 7.48731e-05 2.07183e-05)
(0.000246722 1.65471e-05 2.64729e-06)
(0.000521953 3.88003e-05 9.372e-06)
(0.000258036 2.01196e-05 7.99583e-07)
(0.000823587 3.06643e-05 -9.75521e-07)
(0.000844786 2.27821e-05 -2.21925e-06)
(0.00111013 3.84346e-05 -1.39034e-06)
(0.000576246 1.99093e-05 -4.4585e-06)
(0.000591129 1.07691e-05 -4.3204e-06)
(0.000964035 2.34613e-05 -4.94066e-06)
(0.00100113 -3.56758e-06 -4.7627e-06)
(0.000827556 2.34334e-05 5.0182e-08)
(0.000823727 2.78727e-05 -1.36367e-07)
(0.00109547 3.29544e-05 1.88951e-07)
(0.000832909 1.61524e-05 1.12381e-07)
(0.000828621 1.52374e-05 3.66029e-08)
(0.00110732 2.29491e-05 1.97566e-07)
(0.000835093 1.08369e-05 1.01207e-07)
(0.000832307 1.05799e-05 7.44583e-08)
(0.00111191 1.59181e-05 1.87986e-07)
(0.000836509 7.02123e-06 4.10908e-08)
(0.000834332 6.69661e-06 5.87822e-08)
(0.00111437 1.03197e-05 1.84468e-07)
(0.000836966 4.60902e-06 -5.99589e-08)
(0.000835634 4.32419e-06 2.36787e-08)
(0.00111587 6.71983e-06 1.86802e-07)
(0.000835953 2.98989e-06 -3.50637e-08)
(0.000835703 2.51428e-06 -3.60287e-08)
(0.00111547 4.51281e-06 1.27271e-07)
(0.000835112 1.90158e-06 1.21133e-07)
(0.000835195 1.73238e-06 5.19272e-08)
(0.00111415 2.80277e-06 1.84129e-07)
(0.000834231 1.16843e-06 1.22679e-07)
(0.000834369 6.96345e-07 1.45716e-07)
(0.00111303 1.85163e-06 1.95368e-07)
(0.00083282 7.01754e-07 7.01677e-08)
(0.000833282 7.43529e-07 5.48813e-08)
(0.00111148 9.96872e-07 1.86119e-07)
(0.000831314 4.42111e-07 7.69209e-08)
(0.000832038 5.18143e-07 7.84134e-08)
(0.00110954 6.97949e-07 1.97602e-07)
(0.0008299 2.19253e-07 1.14715e-07)
(0.000830525 2.48638e-07 5.50487e-08)
(0.00110756 3.67062e-07 1.84773e-07)
(0.000828356 8.43494e-08 1.06228e-07)
(0.000829025 1.32628e-07 9.21153e-08)
(0.00110563 1.42062e-07 1.75867e-07)
(0.000826929 5.41641e-08 5.75374e-08)
(0.000827561 1.18818e-07 7.57302e-08)
(0.0011037 5.26238e-08 2.04868e-07)
(0.000825221 1.35409e-08 5.08238e-08)
(0.000825974 1.26243e-07 6.3687e-08)
(0.00110152 1.33503e-07 1.83782e-07)
(0.000823815 -2.54997e-08 4.22744e-08)
(0.000824482 -2.18592e-07 1.76439e-07)
(0.00109941 -1.19827e-08 1.76784e-07)
(0.0008223 3.28214e-08 4.80681e-08)
(0.000823124 -1.32517e-07 3.85583e-08)
(0.00109749 2.18221e-08 1.84445e-07)
(0.000820827 8.32214e-08 4.68011e-08)
(0.000821612 -6.03433e-07 9.4595e-09)
(0.00109553 1.49624e-07 2.36249e-07)
(0.000819236 3.90822e-08 4.83501e-08)
(0.000819988 2.05275e-07 5.66692e-08)
(0.00109347 1.89339e-07 1.93816e-07)
(0.000817712 3.80604e-09 5.0964e-08)
(0.000818418 1.47747e-07 4.40056e-08)
(0.00109133 1.24814e-08 1.80388e-07)
(0.000816197 9.52654e-08 8.26693e-08)
(0.00081701 -3.04584e-08 4.83221e-08)
(0.00108949 4.06435e-08 1.80207e-07)
(0.000814655 2.09372e-09 1.46459e-07)
(0.000815332 -2.76469e-07 8.75996e-08)
(0.00108729 2.20084e-07 1.21428e-07)
(0.000813261 -3.27559e-07 1.29146e-07)
(0.000813647 -2.44434e-08 5.54567e-08)
(0.0010852 -2.45938e-07 1.5838e-07)
(0.000811329 -5.19129e-07 6.51305e-08)
(0.000812211 -8.33814e-07 -3.00568e-08)
(0.00108313 -7.15203e-07 3.73563e-07)
(0.000810018 -4.92934e-07 6.58731e-08)
(0.000810693 -7.57507e-07 3.36042e-08)
(0.00108081 -7.39896e-07 3.22433e-07)
(0.000808446 -2.96868e-07 6.90486e-08)
(0.000809389 -2.67452e-07 1.07304e-07)
(0.00107893 -5.89422e-07 1.88059e-07)
(0.000807428 -7.37324e-08 4.96126e-08)
(0.000808228 -6.07884e-07 1.1134e-07)
(0.00107738 -1.97945e-07 1.8674e-07)
(0.000805733 -1.30845e-08 4.41346e-08)
(0.000806635 1.97294e-08 4.6721e-08)
(0.00107551 2.58702e-08 1.74706e-07)
(0.000804158 -8.35373e-09 4.28438e-08)
(0.000804977 3.12242e-07 4.5744e-08)
(0.00107327 -1.45091e-08 1.69361e-07)
(0.000802585 6.3754e-08 3.68559e-08)
(0.000803561 8.64587e-08 4.29103e-08)
(0.00107115 2.59366e-08 1.82441e-07)
(0.000801157 2.23295e-07 4.26447e-08)
(0.000802094 2.95949e-07 2.18648e-08)
(0.00106902 1.65946e-07 1.47275e-07)
(0.000800343 1.9509e-07 5.22475e-08)
(0.000800667 -9.38208e-07 4.61626e-08)
(0.00106759 4.79188e-07 1.68454e-07)
(0.000798585 -1.5272e-08 3.9974e-08)
(0.000799193 1.72053e-07 7.36113e-08)
(0.00106598 1.29917e-07 1.81739e-07)
(0.000797169 -9.81934e-08 5.31105e-08)
(0.000797726 -8.66198e-08 4.48264e-08)
(0.00106379 -8.92123e-08 1.77041e-07)
(0.000795846 -2.53782e-07 8.53881e-08)
(0.000796266 -2.25139e-07 7.10814e-08)
(0.00106183 -1.24062e-07 1.7437e-07)
(0.000794703 -4.65999e-07 4.07939e-08)
(0.000794922 -6.55763e-07 6.35037e-08)
(0.00106046 -5.29312e-07 1.77541e-07)
(0.00079231 -3.9647e-07 1.20791e-08)
(0.000793547 3.04485e-06 4.5108e-08)
(0.00105796 -6.79553e-07 6.078e-08)
(0.000791078 -1.87296e-07 2.53584e-08)
(0.000792061 -3.20569e-07 4.76642e-08)
(0.00105546 -3.51289e-07 1.78031e-07)
(0.000789718 -4.10217e-08 3.6582e-08)
(0.000790623 2.18374e-07 4.17988e-08)
(0.00105384 -1.82408e-07 1.50574e-07)
(0.000788737 -5.06776e-08 6.0788e-08)
(0.000789189 -6.42436e-07 4.88541e-08)
(0.00105215 1.38686e-08 1.89598e-07)
(0.000787112 -2.6523e-07 5.38939e-08)
(0.000787778 1.43139e-07 5.79953e-08)
(0.00105057 -2.07816e-07 1.82464e-07)
(0.000785387 -3.52342e-07 2.30225e-08)
(0.000786225 -3.15817e-07 -1.32917e-08)
(0.0010482 -5.19439e-07 2.12094e-07)
(0.000784889 8.61962e-07 5.65014e-08)
(0.001046 -4.04731e-07 1.17563e-07)
(-0.000656473 0.000341442 -9.47831e-05)
(-0.00166947 0.000463696 6.67503e-05)
(0.000827581 -0.00269425 7.83081e-06)
(0.00311432 0.00124711 0.000216514)
(-3.76187e-05 0.00148014 -0.00014676)
(0.000977555 0.00269493 -0.000556867)
(0.00430088 0.00324907 0.000642247)
(-0.00430364 -0.00436383 0.000471826)
(0.00368574 0.00727803 0.00327066)
(0.00689525 0.00311293 -0.00344323)
(0.00194275 0.00869378 -0.000974352)
(0.0127536 -0.00233476 0.00255068)
(0.00945385 0.000988276 -0.000821824)
(-0.00971752 -0.0197024 0.000572003)
(0.00353784 -0.000199797 -0.00240051)
(0.00200587 0.00453928 0.000149228)
(0.0132663 -0.00138754 0.00109234)
(-0.001816 0.00226155 0.00375711)
(-0.000460496 0.00101283 0.000258971)
(0.00213733 -0.00122293 0.000444416)
(0.00499825 0.000207221 0.000285043)
(0.00204563 0.00972154 -0.000216208)
(0.00164832 0.00604903 0.000400181)
(-0.00373407 0.00850898 -0.000653997)
(-0.00192414 0.00630922 0.000459031)
(-5.52795e-05 -0.00346905 0.00155607)
(0.0214543 0.00541788 -0.00276059)
(0.0160423 -0.011597 0.000248755)
(-0.00539711 0.00967072 0.000167339)
(0.0159268 -0.00164641 0.00289065)
(-0.000303249 -0.00707039 0.00189241)
(0.000212084 0.00188933 -0.000486518)
(0.00317086 0.00402207 -7.2633e-05)
(-0.00233482 0.00184974 2.85055e-05)
(-0.000380517 7.90566e-05 -9.54841e-05)
(0.00495743 0.00264868 0.000153574)
(0.00555314 0.00300257 -1.5807e-05)
(0.00519892 0.00166227 5.61588e-05)
(0.00254441 0.00149655 0.000107353)
(0.00601355 0.00341956 0.000107445)
(0.000590641 -0.000111028 3.49315e-05)
(0.000378887 -2.46812e-05 1.14624e-05)
(0.000473486 -1.82283e-05 2.65882e-05)
(0.000629751 -4.27885e-05 2.45413e-05)
(0.00029458 -1.0901e-05 5.16928e-06)
(0.000832968 2.89873e-05 -1.38077e-06)
(0.000561438 3.41932e-05 -1.30079e-06)
(0.00114067 2.03635e-05 -1.44999e-06)
(0.000603178 1.03444e-05 -4.62488e-06)
(0.000598969 3.12794e-05 -4.70062e-06)
(0.00102787 -2.57856e-06 -4.65352e-06)
(0.00102062 4.38926e-05 -3.50579e-06)
(0.000542413 4.07923e-06 -4.2161e-06)
(0.00094029 4.30306e-05 -8.61775e-07)
(0.000893842 -2.98978e-06 -5.11137e-06)
(0.000824327 2.4457e-05 -1.50003e-07)
(0.000831816 3.83996e-05 -8.44091e-07)
(0.00110039 4.39122e-05 6.23664e-08)
(0.000828626 1.03574e-05 -1.33188e-09)
(0.00081103 8.17909e-06 -2.54222e-07)
(0.00110228 1.38017e-05 1.60034e-07)
(0.000831552 6.34284e-06 3.20388e-08)
(0.000827274 4.98496e-06 1.1943e-07)
(0.00110777 9.35051e-06 1.78351e-07)
(0.000833721 3.47423e-06 4.13815e-08)
(0.000830738 2.0067e-06 5.13847e-08)
(0.0011108 4.84738e-06 1.81192e-07)
(0.000834663 1.94228e-06 4.76283e-08)
(0.000833715 1.12145e-06 6.17392e-08)
(0.00111279 2.7577e-06 1.83978e-07)
(0.000834888 1.10785e-06 5.09336e-08)
(0.000834658 1.92098e-07 5.26725e-08)
(0.00111339 1.41345e-06 1.84954e-07)
(0.000834611 6.92674e-07 7.64801e-08)
(0.000834675 2.00376e-08 5.33839e-08)
(0.00111336 9.15509e-07 1.86259e-07)
(0.000833398 4.53405e-07 7.79483e-08)
(0.000834069 3.26906e-07 7.92989e-08)
(0.00111222 5.15664e-07 1.7483e-07)
(0.000832616 2.67872e-07 6.31195e-08)
(0.00083305 -3.2012e-07 5.0426e-08)
(0.00111084 4.40925e-07 1.85979e-07)
(0.000831237 2.10258e-07 5.65487e-08)
(0.000831965 3.50771e-07 8.37001e-08)
(0.00110947 1.58142e-07 1.76139e-07)
(0.000829668 2.10909e-07 3.24374e-08)
(0.000830525 3.1502e-07 7.72552e-08)
(0.00110741 3.60297e-07 1.76843e-07)
(0.000828197 1.66419e-07 6.1623e-08)
(0.000828969 1.89687e-08 3.68217e-08)
(0.00110536 1.84249e-07 1.81327e-07)
(0.000826633 1.38155e-07 8.18837e-08)
(0.000827525 -2.96015e-07 7.80273e-08)
(0.0011034 2.49113e-07 2.10705e-07)
(0.00082515 2.01478e-07 1.89266e-07)
(0.000826052 3.26924e-08 5.67957e-08)
(0.00110131 1.16568e-07 1.81899e-07)
(0.000823876 3.01888e-07 1.72766e-07)
(0.000824606 5.61304e-07 1.8185e-07)
(0.00109938 4.39522e-07 1.03202e-07)
(0.000822408 2.37021e-07 -4.11039e-11)
(0.000823041 -6.68667e-07 -1.47561e-08)
(0.00109768 4.10552e-07 2.1222e-07)
(0.000820798 8.30976e-08 1.93126e-08)
(0.000821419 9.40901e-08 2.02519e-08)
(0.00109563 2.88314e-07 1.3882e-07)
(0.000819148 -8.2488e-08 5.23287e-08)
(0.000819781 -1.54796e-07 5.24044e-08)
(0.00109331 3.07249e-09 2.16722e-07)
(0.000817707 -1.86435e-07 4.13623e-08)
(0.000818288 3.39424e-08 4.8414e-08)
(0.00109124 -1.66489e-07 1.81364e-07)
(0.000816185 -3.75798e-07 5.324e-08)
(0.000816776 3.761e-08 5.29499e-08)
(0.00108937 -3.11937e-07 1.76149e-07)
(0.000814249 -4.82428e-07 -3.3923e-09)
(0.000815201 -6.02953e-07 3.28667e-08)
(0.00108702 -7.72203e-07 2.40767e-07)
(0.000812696 -4.05827e-07 -1.03719e-07)
(0.000813746 -1.77065e-07 -1.80347e-08)
(0.00108451 -6.28292e-07 1.94957e-07)
(0.00081146 -2.9322e-07 -6.16031e-08)
(0.000812354 2.06301e-07 5.99586e-10)
(0.00108282 -5.11256e-07 8.30043e-08)
(0.000810063 4.86238e-08 7.5012e-08)
(0.000811121 3.82595e-07 4.28563e-08)
(0.0010811 -3.04183e-07 9.02433e-08)
(0.000809146 3.24644e-07 1.49594e-07)
(0.000809733 -2.49109e-06 6.50587e-08)
(0.00107948 4.49382e-07 2.86515e-07)
(0.000807616 2.15683e-07 1.08468e-07)
(0.000808091 -1.68777e-06 9.47189e-08)
(0.00107796 4.7719e-07 2.60207e-07)
(0.000805703 1.13352e-07 4.83306e-08)
(0.000806506 5.70089e-07 6.93136e-08)
(0.00107557 1.44384e-07 1.78503e-07)
(0.000804418 1.69646e-07 4.58114e-08)
(0.000805047 1.65685e-08 5.03793e-08)
(0.00107335 1.77708e-07 1.82948e-07)
(0.000803075 2.56506e-07 2.79258e-08)
(0.000803669 -4.82097e-08 4.89904e-08)
(0.00107163 2.75634e-07 1.76767e-07)
(0.00080158 3.67288e-07 2.53752e-08)
(0.000802231 1.24929e-07 3.22939e-08)
(0.00106983 4.12267e-07 1.93262e-07)
(0.000799587 2.87327e-07 6.75179e-08)
(0.000800565 -5.1543e-07 3.59469e-08)
(0.00106742 6.01267e-07 1.95242e-07)
(0.000798248 7.07086e-08 7.84727e-08)
(0.000798921 5.62926e-08 9.99642e-08)
(0.00106509 2.53612e-07 1.7536e-07)
(0.000796859 -8.29862e-08 6.27892e-08)
(0.000797533 -1.35227e-07 6.54101e-08)
(0.00106336 1.16617e-08 1.75124e-07)
(0.000795336 -2.2122e-07 4.91993e-08)
(0.000796094 -8.52671e-08 6.30259e-08)
(0.00106138 -2.15231e-07 1.73536e-07)
(0.000793748 -4.65767e-07 6.78235e-08)
(0.000794618 -9.56768e-08 7.7371e-08)
(0.0010592 -3.76444e-07 1.49054e-07)
(0.000793321 -4.05375e-07 8.06923e-08)
(0.000793624 2.51398e-07 9.72684e-08)
(0.00105804 -8.63893e-07 2.86922e-07)
(0.000791595 -1.13138e-07 6.41064e-08)
(0.000792428 -1.13908e-08 7.60962e-08)
(0.00105655 -2.26811e-07 1.79672e-07)
(0.000790085 3.85456e-08 5.40688e-08)
(0.000790814 -4.88157e-08 9.14821e-08)
(0.00105434 -1.27761e-07 2.01895e-07)
(0.000788247 6.73171e-08 4.60587e-08)
(0.000789226 -2.95557e-09 4.38472e-08)
(0.00105218 1.74681e-07 1.6576e-07)
(0.000786888 -6.7999e-08 -9.1686e-09)
(0.00078761 1.13501e-07 6.54883e-08)
(0.00104999 -2.96223e-08 1.70719e-07)
(0.000785632 -1.56006e-07 2.0166e-08)
(0.000786118 5.58414e-08 -5.83389e-09)
(0.00104817 -1.99249e-07 1.31872e-07)
(0.000785083 -1.38793e-07 1.07354e-07)
(0.00104677 -2.59429e-07 2.34067e-07)
(-0.00120453 0.00165177 1.48446e-05)
(-0.000489269 0.000434715 -0.00012172)
(0.00133511 0.000358369 0.000172181)
(-0.00325471 -0.00769254 0.000229479)
(0.000835231 3.11575e-05 -1.20157e-05)
(-0.00233706 0.00307657 0.000106702)
(0.00290681 -0.00134175 -0.000156671)
(-0.00870489 -0.0173494 0.000329635)
(0.00375695 0.00105889 -0.00110513)
(-0.00189549 -0.00607525 -0.000611549)
(-0.00133029 -0.0129462 5.33707e-05)
(-0.0123204 -0.0200713 0.000459893)
(0.0262588 -0.00250254 -0.00011871)
(-0.00190058 0.00247014 0.000687712)
(-0.0107529 -0.00547498 4.54234e-05)
(0.0192808 -0.00728173 0.00263613)
(-0.000275918 0.0081228 -0.000111978)
(0.00818648 0.0211451 -0.000180515)
(-0.00203113 0.0260164 -0.00112243)
(0.000183746 0.0216534 -0.0001806)
(-0.0145533 0.0510085 0.0220606)
(0.0292951 -0.0123867 -0.00448655)
(0.0385524 -0.00476264 -0.00487119)
(0.00201175 0.0253632 0.00526838)
(0.00217945 0.00416357 8.94632e-05)
(0.00939923 0.00637873 0.000194647)
(0.00185796 0.00325047 0.000157341)
(0.00504259 0.00322106 0.00036782)
(0.00570746 0.00491728 0.000698229)
(0.000360204 0.000334385 4.99005e-05)
(0.000678041 -8.307e-05 7.66645e-06)
(0.00109879 0.000317228 -8.15129e-06)
(0.000956114 0.000237187 -8.10343e-05)
(0.00100102 -1.614e-06 2.95151e-06)
(0.000281865 9.10674e-06 -1.93055e-06)
(0.000434369 1.38189e-05 -3.02327e-06)
(0.000401091 3.08551e-06 1.32546e-08)
(0.000699111 2.76912e-05 -7.94145e-07)
(0.000285831 2.04862e-05 -2.38722e-06)
(0.000509026 2.87603e-06 -3.01969e-06)
(0.000522531 3.3844e-05 -3.15662e-06)
(0.000796612 5.21165e-06 -9.48503e-07)
(0.000851147 -2.00737e-05 -1.21156e-06)
(0.00112397 1.52387e-05 -7.96699e-07)
(0.000557487 8.22445e-06 -3.85909e-06)
(0.000559041 1.77003e-06 -4.70876e-06)
(0.000915908 2.50201e-06 -4.75455e-06)
(0.00092648 -8.73394e-06 -5.83351e-06)
(0.000816176 -2.79567e-06 -1.33583e-07)
(0.000801052 -1.67459e-05 -5.5844e-07)
(0.00106424 -6.40145e-06 7.7932e-08)
(0.000826204 -2.25059e-06 1.38798e-07)
(0.000827981 -1.00045e-05 2.02763e-07)
(0.00110069 -3.92177e-06 2.16098e-07)
(0.000831503 -2.08664e-06 7.17391e-08)
(0.000830961 -6.76834e-06 2.90542e-08)
(0.00110611 -3.76581e-06 1.94109e-07)
(0.000834032 -1.55683e-06 6.67864e-08)
(0.000834391 -4.17512e-06 6.93345e-08)
(0.00111157 -2.80118e-06 1.92298e-07)
(0.000834635 -1.09376e-06 5.51226e-08)
(0.000835246 -2.62157e-06 5.4616e-08)
(0.00111317 -1.95494e-06 1.86518e-07)
(0.000834322 -8.08535e-07 5.61944e-08)
(0.000835038 -1.64433e-06 5.25913e-08)
(0.00111303 -1.32453e-06 1.86249e-07)
(0.000833765 -6.0285e-07 5.1786e-08)
(0.000834331 -1.09105e-06 5.40955e-08)
(0.00111244 -1.04226e-06 1.90607e-07)
(0.000832371 -4.60322e-07 7.09959e-08)
(0.000833231 -4.88781e-07 6.23463e-08)
(0.00111104 -6.80357e-07 1.77044e-07)
(0.00083146 -4.98593e-07 1.04409e-07)
(0.00083192 -1.57887e-06 5.04253e-08)
(0.00110944 -6.08845e-07 2.5734e-07)
(0.000829705 -4.1948e-07 8.16526e-08)
(0.000830626 4.42404e-07 7.25999e-08)
(0.00110759 -7.57058e-07 1.88784e-07)
(0.000828378 -2.60025e-07 5.32128e-08)
(0.00082917 -3.59348e-07 4.11649e-08)
(0.00110549 -3.88354e-07 1.87231e-07)
(0.000826841 -1.4029e-07 5.29461e-08)
(0.000827676 -6.99168e-07 -4.35633e-08)
(0.00110361 -3.25773e-07 2.07564e-07)
(0.000825572 1.76467e-08 4.93397e-08)
(0.000826249 -3.45504e-07 4.93176e-08)
(0.00110175 -6.81464e-08 1.8315e-07)
(0.000823811 4.08978e-08 -5.61019e-09)
(0.000824635 1.31693e-07 3.73663e-08)
(0.00109977 1.0145e-07 2.29894e-07)
(0.00082201 -8.1811e-08 5.52569e-09)
(0.000822888 -3.81304e-07 -2.95193e-08)
(0.0010973 2.61185e-08 1.83743e-07)
(0.000820399 -1.46454e-07 5.33335e-08)
(0.000821338 5.33709e-07 4.44196e-08)
(0.00109502 -2.32487e-07 1.56899e-07)
(0.000818873 -1.11921e-07 4.84911e-08)
(0.000819825 -7.19243e-08 3.29589e-08)
(0.0010929 -1.61707e-07 1.74849e-07)
(0.000817419 -9.50081e-08 6.00002e-08)
(0.00081831 1.14687e-08 6.27029e-08)
(0.00109094 -1.15951e-07 1.76162e-07)
(0.000815814 -1.30408e-07 3.2583e-08)
(0.000816732 -6.40674e-08 5.93963e-08)
(0.00108874 -1.016e-07 1.95305e-07)
(0.000814591 3.95548e-08 1.82404e-08)
(0.000815413 3.37377e-07 2.14958e-08)
(0.0010869 -2.03332e-07 8.86485e-08)
(0.000813487 3.28335e-07 8.6278e-08)
(0.000814105 5.27192e-07 3.38877e-08)
(0.00108553 3.67521e-07 9.49018e-08)
(0.000811887 4.18452e-07 1.05046e-07)
(0.000812464 2.98886e-07 1.14197e-07)
(0.00108354 6.10673e-07 1.82262e-07)
(0.000810927 4.41243e-07 3.2896e-08)
(0.000811147 4.12886e-07 6.16182e-08)
(0.00108201 6.13882e-07 1.30255e-07)
(0.000808626 3.67131e-07 1.01743e-08)
(0.000809639 -9.67373e-09 2.17296e-08)
(0.00107991 6.06003e-07 7.53346e-08)
(0.000807027 1.45782e-07 5.5572e-08)
(0.000807813 7.8016e-08 3.51641e-08)
(0.00107699 3.84428e-07 6.38698e-08)
(0.000805742 7.77716e-08 7.13682e-08)
(0.00080642 4.80662e-07 7.32703e-08)
(0.00107513 1.54876e-08 1.68021e-07)
(0.000804353 1.22224e-07 5.35588e-08)
(0.000805102 -1.04672e-07 6.09152e-08)
(0.00107344 1.76126e-07 1.79776e-07)
(0.000802828 5.00808e-08 5.33637e-08)
(0.000803578 6.79515e-08 4.84147e-08)
(0.00107144 1.32152e-07 1.75145e-07)
(0.000801305 -5.25694e-08 4.28645e-08)
(0.000802103 2.08958e-08 5.29709e-08)
(0.00106942 6.0038e-09 1.90883e-07)
(0.00079972 -7.0526e-08 6.83734e-08)
(0.000800543 -1.35599e-07 2.6405e-08)
(0.00106738 -1.34838e-07 1.61789e-07)
(0.000798286 -1.01313e-08 8.69123e-08)
(0.000798996 -1.1237e-07 5.51931e-08)
(0.00106524 -5.45577e-08 1.87758e-07)
(0.000796756 -5.00552e-08 6.56475e-08)
(0.000797483 -3.37325e-08 6.42469e-08)
(0.0010632 1.99828e-08 1.76902e-07)
(0.000795465 7.05144e-08 9.11931e-08)
(0.000796244 -2.04226e-07 4.62277e-08)
(0.00106134 -1.34918e-07 1.71339e-07)
(0.000794121 3.46358e-07 1.0681e-07)
(0.000794962 -1.67501e-06 1.53332e-07)
(0.00105965 3.75711e-07 2.8178e-07)
(0.000793138 3.04009e-07 9.26788e-08)
(0.000793569 -1.10227e-06 3.012e-08)
(0.00105816 5.94515e-07 2.32889e-07)
(0.000791546 1.63147e-07 1.03467e-07)
(0.000792251 -3.48025e-08 5.90207e-08)
(0.00105638 2.85989e-07 1.91658e-07)
(0.000789993 1.51219e-07 8.1275e-08)
(0.000790797 5.80179e-09 7.98571e-08)
(0.00105434 2.4687e-07 1.82399e-07)
(0.000788502 2.54756e-07 6.32702e-08)
(0.000789354 1.02856e-07 5.86212e-08)
(0.00105228 2.25313e-07 1.73094e-07)
(0.00078689 2.89125e-07 6.88447e-08)
(0.000787651 3.82161e-07 6.11542e-08)
(0.00105011 4.69951e-07 1.71974e-07)
(0.000785341 1.75879e-07 8.13193e-08)
(0.000785974 1.7686e-07 5.22917e-08)
(0.00104793 2.80467e-07 1.76982e-07)
(0.000784863 -1.15106e-06 1.3044e-07)
(0.00104657 1.7404e-07 2.12036e-07)
(0.0022009 -0.00138326 -0.000148617)
(-0.000606939 0.00105632 -4.67733e-05)
(-0.00121348 -0.00218454 -0.00015601)
(0.00665672 0.000266721 0.000753078)
(0.00219574 0.000760594 4.64541e-06)
(-0.00369786 -0.00326715 -0.00167863)
(-0.001368 0.00415718 0.000407463)
(0.00389192 -0.00718298 -0.00081759)
(0.00585306 0.0100018 -0.000511138)
(0.00615134 -0.00427865 0.000912331)
(0.00267818 -0.00858034 -0.000423783)
(0.00265499 -0.00348278 0.000473749)
(0.00483196 0.000512784 0.000453416)
(-0.000884738 0.00477914 0.000512791)
(0.00105328 0.00443944 0.00088387)
(0.00433646 -0.00378479 0.000368467)
(0.00553055 0.0031044 0.00133837)
(0.013615 0.0077242 0.00038939)
(-0.0102576 0.00669748 -0.000180622)
(0.0260978 0.00919914 0.00133623)
(0.00949197 0.00905581 0.00610149)
(0.0236332 0.0164045 0.000687897)
(0.00109257 0.0168563 -0.00351071)
(0.0048703 0.0198234 -0.000316149)
(0.0159157 0.00170001 0.000142914)
(-0.0162166 -0.0224806 0.00253762)
(0.00639892 -0.00645476 0.00304911)
(-0.0189898 0.0335992 -0.00120703)
(-0.0170754 -0.000122646 0.000454188)
(-0.0136389 0.00988778 -0.000522049)
(-0.00649365 0.0147507 0.000361394)
(-0.0035968 0.0484456 0.000978476)
(0.00536015 -0.00520038 0.000559847)
(0.0233046 -0.00806397 -0.000258585)
(0.0103389 -0.00393777 0.000432101)
(0.00834718 -0.00488456 -0.00016011)
(0.0118779 -0.00589586 0.00106988)
(0.000389896 0.000375789 1.49187e-05)
(0.00092657 0.000251149 7.33734e-05)
(0.000398021 0.000258762 2.29106e-05)
(0.00132561 0.000607034 -4.60847e-05)
(0.000930762 0.00033668 2.40943e-05)
(0.000304251 -2.53487e-05 1.12063e-06)
(0.000444907 -3.00444e-05 -3.69247e-06)
(0.000419461 -3.17343e-05 4.90963e-07)
(0.00066887 -4.99012e-05 3.27955e-07)
(0.000311331 -2.78446e-05 5.17652e-06)
(0.000588101 -5.06312e-05 7.11848e-06)
(0.00058652 -5.0025e-05 1.77373e-05)
(0.000390574 -3.04465e-05 -5.76916e-07)
(0.000811117 -3.7517e-05 -8.21709e-07)
(0.000885764 -6.09638e-05 -1.19144e-06)
(0.00115736 -6.24832e-05 -9.02377e-07)
(0.000582903 -3.60569e-05 -3.78674e-06)
(0.000572279 -4.91072e-05 -4.83464e-06)
(0.000967483 -6.47643e-05 -4.57439e-06)
(0.000945397 -9.12529e-05 -5.74311e-06)
(0.000825443 -2.23193e-05 -2.22344e-07)
(0.000820267 -3.47394e-05 -6.16171e-07)
(0.00107842 -3.71453e-05 5.28621e-08)
(0.00083198 -1.33315e-05 9.30754e-08)
(0.000839296 -2.06102e-05 1.83107e-07)
(0.00111114 -2.21142e-05 2.15688e-07)
(0.000834955 -8.11953e-06 2.66366e-08)
(0.000837524 -1.23463e-05 2.71047e-08)
(0.00111225 -1.32535e-05 1.74829e-07)
(0.000835989 -5.0273e-06 5.71689e-08)
(0.000838285 -7.5465e-06 1.78322e-07)
(0.00111509 -8.25829e-06 1.88849e-07)
(0.000835915 -3.03962e-06 5.20853e-08)
(0.000837748 -4.59427e-06 5.29801e-08)
(0.00111526 -5.06183e-06 1.87103e-07)
(0.000835139 -1.79349e-06 5.04919e-08)
(0.000836606 -2.72013e-06 3.25244e-08)
(0.00111452 -2.99717e-06 1.85686e-07)
(0.000833947 -1.18109e-06 6.46531e-08)
(0.000835103 -1.63748e-06 2.07144e-08)
(0.00111304 -1.75903e-06 1.85242e-07)
(0.000832729 -8.32511e-07 4.17795e-08)
(0.00083367 -1.09708e-06 6.60475e-08)
(0.00111139 -1.37377e-06 1.92248e-07)
(0.000831151 -6.33552e-07 1.86094e-08)
(0.000832172 -7.08053e-07 2.80249e-08)
(0.00110938 -8.42444e-07 1.2164e-07)
(0.000830158 -5.6319e-07 3.21223e-08)
(0.000830716 -2.29504e-07 4.73144e-08)
(0.0011077 -8.55256e-07 1.78264e-07)
(0.000828419 -4.68568e-07 -5.55841e-08)
(0.00082929 -2.17562e-07 6.56333e-08)
(0.0011059 -6.64663e-07 1.86921e-07)
(0.000827086 -3.65216e-07 -4.72215e-08)
(0.000827807 -3.24783e-07 -3.64877e-08)
(0.0011038 -5.89925e-07 1.35933e-07)
(0.000825389 -3.3754e-07 3.73481e-08)
(0.000826286 -1.42631e-07 4.84514e-08)
(0.00110185 -3.7852e-07 1.79944e-07)
(0.000823663 -3.51871e-07 1.34786e-08)
(0.000824619 -2.53394e-07 1.52646e-07)
(0.00109949 -5.25756e-07 2.237e-07)
(0.000822198 -2.4951e-07 9.35112e-09)
(0.000823017 3.48831e-08 5.12842e-08)
(0.00109726 -4.1776e-07 1.45457e-07)
(0.000820754 -8.44602e-08 2.40486e-08)
(0.000821546 5.75684e-08 4.76202e-08)
(0.0010954 -2.64697e-07 2.06377e-07)
(0.000819238 1.33817e-07 4.71613e-08)
(0.000820097 -5.56164e-08 5.07047e-08)
(0.00109346 1.184e-08 1.78616e-07)
(0.000817684 3.1931e-07 6.21e-08)
(0.00081854 1.00768e-09 6.26403e-08)
(0.00109132 3.2763e-07 1.8407e-07)
(0.000816213 5.25382e-07 4.8321e-08)
(0.000816987 5.17788e-07 4.94131e-08)
(0.00108926 5.45865e-07 1.3553e-07)
(0.000815031 4.88646e-07 3.71392e-08)
(0.000815363 8.10034e-07 1.38089e-07)
(0.00108761 9.64677e-07 1.18059e-07)
(0.000813077 3.20154e-07 6.17817e-08)
(0.000813891 1.43628e-07 3.53603e-08)
(0.00108553 5.15371e-07 2.46743e-07)
(0.000811576 4.19402e-07 7.07863e-08)
(0.000812585 3.57361e-07 8.67733e-08)
(0.00108312 5.19935e-07 1.75848e-07)
(0.000810139 2.59131e-07 5.04644e-08)
(0.000810944 4.55515e-07 4.90766e-08)
(0.00108109 7.56401e-07 1.71575e-07)
(0.000808651 -3.27882e-09 4.67152e-08)
(0.000809309 -2.79511e-08 6.20656e-08)
(0.00107919 5.99116e-08 1.80614e-07)
(0.000807147 4.60041e-08 5.28504e-08)
(0.000807874 1.54956e-07 4.98923e-08)
(0.00107722 1.07102e-09 1.75527e-07)
(0.000805863 8.24978e-08 6.28211e-08)
(0.000806466 3.07136e-07 5.7321e-08)
(0.00107531 1.50042e-07 1.74049e-07)
(0.000804313 1.75485e-08 5.5775e-08)
(0.00080502 -3.07383e-08 5.79644e-08)
(0.00107349 8.61319e-08 1.80153e-07)
(0.000802839 -2.96147e-08 4.80204e-08)
(0.000803519 8.73248e-08 5.30907e-08)
(0.00107142 -3.73642e-08 1.7756e-07)
(0.000801378 -7.82523e-08 3.65196e-08)
(0.000802043 8.02181e-08 5.09468e-08)
(0.00106949 -5.43297e-08 1.73607e-07)
(0.000799722 -1.0391e-07 1.32159e-08)
(0.000800512 -1.66677e-07 3.2288e-08)
(0.00106734 -2.02768e-07 1.97605e-07)
(0.000798325 -2.58467e-08 3.25249e-08)
(0.000799095 7.90313e-07 3.99453e-08)
(0.00106529 -1.49866e-07 1.07374e-07)
(0.000796727 9.74034e-08 4.48326e-08)
(0.000797637 1.31772e-07 5.80607e-08)
(0.00106326 4.80989e-08 1.78474e-07)
(0.000796026 2.48931e-07 1.08334e-07)
(0.000796432 -3.76397e-07 9.6976e-08)
(0.00106182 2.54237e-07 1.21883e-07)
(0.000794187 3.94289e-07 7.668e-08)
(0.000795142 3.69682e-07 8.89711e-08)
(0.00106011 4.93133e-07 6.44611e-08)
(0.000792772 3.28132e-07 -3.54699e-09)
(0.000793485 5.50597e-07 2.11411e-08)
(0.00105792 6.24616e-07 5.41715e-08)
(0.000791523 1.63837e-07 3.54043e-08)
(0.000792044 2.18744e-07 3.7922e-08)
(0.00105611 2.79328e-07 1.40346e-07)
(0.000790121 1.4447e-07 5.72098e-08)
(0.000790772 8.66245e-08 4.76483e-08)
(0.00105426 1.70422e-07 1.66835e-07)
(0.000788644 2.72429e-07 5.65044e-08)
(0.000789513 1.26927e-06 4.00804e-08)
(0.00105245 1.97948e-07 9.4389e-08)
(0.000786634 2.82577e-07 4.46038e-08)
(0.000787663 1.08047e-06 9.71007e-09)
(0.00105006 4.70039e-07 1.76949e-07)
(0.000785337 2.24695e-07 1.01389e-07)
(0.000785899 1.82692e-08 5.96857e-08)
(0.0010478 2.47967e-07 1.74422e-07)
(0.000784584 -1.36501e-06 1.05216e-07)
(0.0010462 3.53841e-07 2.00461e-07)
(-0.00039104 0.00337662 0.000106472)
(0.000684226 0.000289692 0.000157987)
(0.00231516 0.00170221 0.000153652)
(-0.000422065 -0.00291103 0.000385168)
(0.000756419 0.00538739 -0.000177503)
(-0.00421297 -0.00465373 -0.00567747)
(-0.00469089 -0.00130829 0.000878137)
(0.00226922 0.00621452 0.00230529)
(-7.53044e-05 0.00344292 0.000804162)
(0.000623699 0.00206127 -0.000203142)
(-0.00055429 0.00105334 0.00129571)
(0.00419747 0.0105188 0.000100804)
(-0.00910759 -0.00529714 0.000209306)
(-0.00245869 -0.00605364 0.00011863)
(-0.00399714 -0.0037978 0.0013053)
(-0.00335277 0.0025838 0.000592281)
(-0.00587194 0.00212566 -0.00268948)
(0.0019787 0.00492136 -0.000968343)
(0.00473842 0.0106306 -0.0021371)
(-0.000825551 0.00260372 -0.00173193)
(-0.00192725 0.005182 -0.00052658)
(-0.00862383 0.011289 0.00846234)
(-0.000165219 -0.000192066 0.00111442)
(0.00397426 0.00269993 -0.0138365)
(0.0134182 0.00836886 8.50895e-05)
(0.00372536 0.0023308 0.00121412)
(0.0150075 0.00894799 0.000492904)
(0.0169193 0.00186655 -0.000211239)
(0.0090383 0.00278192 -0.000510485)
(0.00293764 -0.000640288 0.000185883)
(0.00158529 0.00251937 8.29784e-05)
(0.000273993 -0.000343101 4.28514e-05)
(0.000871572 1.41375e-05 5.13588e-06)
(-0.000272418 -0.000697264 6.62518e-05)
(0.000476042 -0.000240075 -1.75551e-05)
(0.0008607 0.000253768 -7.72067e-05)
(0.000607234 -0.000139226 3.07866e-06)
(0.00070398 0.000293452 -9.17465e-06)
(0.00089953 1.90257e-05 5.80713e-05)
(0.000465762 -0.0001063 2.43351e-05)
(0.000493277 -7.36503e-05 -1.52186e-06)
(0.000877901 -0.00016652 9.94988e-06)
(0.000446428 -9.55209e-05 2.78364e-05)
(0.000731013 -0.000166743 5.66347e-05)
(0.000743127 -0.00014945 6.35916e-05)
(0.000501222 -7.59396e-05 3.22876e-06)
(0.000419507 -6.05878e-05 3.90099e-06)
(0.000754396 -0.000101009 1.28178e-05)
(0.000621824 -0.000131386 -8.27679e-07)
(0.000347259 -8.1264e-05 -1.00313e-06)
(0.000847707 -4.95228e-05 -9.86092e-07)
(0.000927622 -5.62595e-05 -1.45544e-06)
(0.00121579 -8.0273e-05 -1.12278e-06)
(0.000611437 -4.96377e-05 -4.86511e-06)
(0.000642103 -3.89623e-05 -5.09483e-06)
(0.0010045 -8.16223e-05 -5.06865e-06)
(0.00109185 -5.49255e-05 -6.07305e-06)
(0.000845887 -2.88802e-05 -2.10981e-07)
(0.000846269 -3.28623e-05 -5.51849e-07)
(0.00111528 -4.62589e-05 7.4288e-08)
(0.000843477 -1.72853e-05 1.17187e-07)
(0.000853874 -1.99882e-05 1.73224e-07)
(0.00113077 -2.75225e-05 2.12314e-07)
(0.000841595 -1.03849e-05 1.78741e-07)
(0.000846201 -1.20847e-05 1.01123e-07)
(0.00112356 -1.66538e-05 1.90305e-07)
(0.000840258 -6.2933e-06 1.74174e-07)
(0.00084343 -7.98302e-06 1.91471e-07)
(0.00112189 -9.86853e-06 1.90626e-07)
(0.000838651 -3.99431e-06 3.34258e-08)
(0.000840641 -4.66102e-06 4.94892e-08)
(0.00111979 -6.17871e-06 1.87793e-07)
(0.000836646 -2.57093e-06 2.75071e-09)
(0.000838397 -1.52795e-06 4.95685e-08)
(0.00111719 -4.01293e-06 1.35445e-07)
(0.000834775 -1.57125e-06 2.20942e-08)
(0.00083636 -5.2194e-07 3.91242e-08)
(0.00111449 -2.54719e-06 1.29455e-07)
(0.000833205 -9.43341e-07 5.23053e-08)