/*--------------------------------*- C++ -*----------------------------------*\
| =========                 |                                                 |
| \\      /  F ield         | OpenFOAM: The Open Source CFD Toolbox           |
|  \\    /   O peration     | Version:  5.0                                   |
|   \\  /    A nd           | Web:      www.OpenFOAM.org                      |
|    \\/     M anipulation  |                                                 |
\*---------------------------------------------------------------------------*/
FoamFile
{
    version     2.0;
    format      ascii;
    class       surfaceVectorField;
    location    "2.7";
    object      Uf_0;
}
// * * * * * * * * * * * * * * * * * * * * * * * * * * * * * * * * * * * * * //

dimensions      [0 1 -1 0 0 0 0];

internalField   nonuniform List<vector> 
22429
(
(0.000817972 -0.00262332 -4.84004e-05)
(-0.00137583 -0.00116775 0.000149888)
(0.00908232 -0.00257167 0.000110479)
(-0.00124309 -0.00216818 -0.000124971)
(0.00148432 -0.0017264 -0.000289097)
(0.00306686 0.00405208 -0.00353695)
(-0.00322306 -0.00861282 0.00164361)
(0.000689991 0.00442198 0.000607209)
(0.00118133 0.00282258 0.00158284)
(-0.00484877 -0.00269715 0.000187564)
(0.000625082 0.00131949 0.000403442)
(0.00149855 -0.0010404 -0.000335512)
(-0.00550477 0.000309907 0.00260269)
(0.000796335 -0.00173738 0.000823563)
(-0.00102148 0.00935712 -0.00209445)
(-0.00146872 0.00511967 -0.000410563)
(-0.00422576 0.00057155 0.000276318)
(-0.00673559 0.00590619 -0.000844766)
(-0.00851471 0.000281756 -0.000308427)
(-0.00436409 0.000930171 -0.000190378)
(-0.00800053 -0.0012164 0.000426543)
(0.0145178 -0.00465635 0.000393763)
(0.00663243 -0.008511 -0.000484034)
(0.00888669 -0.0125524 -0.000239703)
(0.00579133 -0.00275024 -0.000547386)
(-0.00510984 0.00534122 0.000124566)
(0.00406117 0.00318184 -0.000148696)
(-0.000122282 0.00744912 -0.000397994)
(0.00469349 0.0088119 -0.0011926)
(0.000307828 5.25412e-05 1.93634e-05)
(0.000190912 4.59435e-06 2.91204e-06)
(0.000424034 2.58347e-05 9.04783e-06)
(0.000199468 1.0292e-05 8.13623e-07)
(0.000779563 -2.79946e-05 -9.14846e-07)
(0.00081387 -7.44392e-05 -2.33748e-06)
(0.00103651 -4.60093e-05 -1.07685e-06)
(0.000504378 -3.15426e-05 -3.73858e-06)
(0.000524907 -6.36017e-05 -4.02684e-06)
(0.000861203 -5.18082e-05 -4.02396e-06)
(0.000902337 -0.000119938 -4.27541e-06)
(0.000805288 -1.4057e-05 1.4074e-07)
(0.000810728 -3.08789e-05 -5.8528e-08)
(0.00105848 -2.1025e-05 1.96007e-07)
(0.000821863 -7.62359e-06 1.36606e-07)
(0.00082403 -2.04696e-05 8.62471e-08)
(0.00108908 -1.14864e-05 2.11059e-07)
(0.000830053 -4.06458e-06 1.00491e-07)
(0.000831507 -1.11507e-05 6.40787e-08)
(0.001103 -5.7399e-06 1.9926e-07)
(0.000834762 -2.27263e-06 3.81674e-08)
(0.000835374 -6.46698e-06 5.22753e-08)
(0.00111063 -3.19242e-06 1.858e-07)
(0.000837067 -1.22912e-06 4.22736e-08)
(0.000837457 -3.70272e-06 2.42879e-08)
(0.00111496 -1.70676e-06 1.90818e-07)
(0.000837511 -6.6146e-07 6.71843e-08)
(0.000838044 -2.43995e-06 6.44574e-08)
(0.00111641 -8.35116e-07 2.22231e-07)
(0.000837075 -4.1323e-07 4.17487e-08)
(0.000837803 -1.53443e-06 5.46319e-08)
(0.00111611 -4.57116e-07 1.94934e-07)
(0.000836166 -3.42824e-07 4.14153e-08)
(0.00083692 7.29606e-08 3.98439e-08)
(0.00111516 -3.38867e-07 1.56179e-07)
(0.000835117 -2.72821e-07 6.11485e-08)
(0.000835797 -6.00625e-07 5.72138e-08)
(0.00111379 -3.68541e-07 1.84944e-07)
(0.000833597 -2.33087e-07 6.94684e-08)
(0.000834577 -5.25258e-07 7.45586e-08)
(0.00111206 -2.1545e-07 1.48245e-07)
(0.000832301 -3.11201e-07 7.10634e-08)
(0.00083315 -5.47423e-07 6.00459e-08)
(0.00111011 -2.80662e-07 1.88869e-07)
(0.000831117 -2.97072e-07 4.84391e-08)
(0.000831775 2.27438e-08 4.82788e-08)
(0.00110846 -4.24044e-07 2.27723e-07)
(0.000829597 -1.23168e-07 5.09647e-08)
(0.000830347 1.96282e-08 6.01246e-08)
(0.00110668 -2.48019e-07 1.31862e-07)
(0.000827941 -4.40995e-08 6.58482e-08)
(0.000828679 1.18059e-07 7.26692e-08)
(0.00110447 3.80676e-08 1.67505e-07)
(0.000826148 -2.91896e-08 5.28613e-08)
(0.00082701 1.74083e-07 8.56266e-08)
(0.00110217 -4.93878e-08 1.91083e-07)
(0.00082458 1.17822e-07 3.76445e-08)
(0.000825542 -1.11187e-07 5.24077e-08)
(0.00109997 4.1898e-08 1.87169e-07)
(0.000823218 2.39935e-07 6.25109e-08)
(0.000824012 4.82615e-07 5.29932e-08)
(0.00109807 3.27109e-07 1.31971e-07)
(0.000821704 1.60724e-07 7.67747e-08)
(0.000822342 -1.12091e-06 1.21149e-07)
(0.00109611 3.79083e-07 2.19583e-07)
(0.000820106 6.33816e-08 5.35224e-08)
(0.000820735 1.77841e-07 4.62662e-08)
(0.00109394 1.08928e-07 1.82827e-07)
(0.000818745 1.56688e-07 5.74632e-08)
(0.000819362 -1.41675e-07 5.17519e-08)
(0.00109219 8.83277e-08 1.86612e-07)
(0.00081617 5.94617e-08 5.93593e-08)
(0.000817432 7.50666e-07 5.65516e-08)
(0.00108944 3.24771e-07 2.69579e-07)
(0.000814814 -3.84092e-07 3.33283e-09)
(0.000815329 -3.09963e-07 5.97449e-08)
(0.00108671 -2.0528e-07 2.09886e-07)
(0.000813341 -5.93918e-07 -2.98337e-08)
(0.000814009 1.78195e-06 4.20428e-08)
(0.001085 -8.6491e-07 -6.13286e-09)
(0.000811625 -5.43315e-07 3.58328e-08)
(0.000812585 8.07367e-07 1.33512e-08)
(0.00108269 -7.45566e-07 1.00879e-07)
(0.000810633 -4.36986e-07 8.00255e-08)
(0.000811186 1.63222e-07 1.5601e-07)
(0.00108091 -6.8944e-07 1.74897e-07)
(0.000808935 -2.27152e-07 6.20856e-08)
(0.00080992 -1.21546e-07 6.07143e-08)
(0.00107932 -4.09461e-07 1.75405e-07)
(0.000807383 -9.38609e-08 4.79179e-08)
(0.00080827 -1.25155e-07 4.69612e-08)
(0.0010771 -1.11498e-07 1.81826e-07)
(0.000805827 -6.3368e-08 5.91887e-08)
(0.000806642 1.75385e-08 6.76487e-08)
(0.00107498 -5.63644e-08 1.80024e-07)
(0.000804048 4.2827e-09 5.70869e-08)
(0.000805077 1.51663e-07 5.7026e-08)
(0.00107273 -5.11911e-08 1.923e-07)
(0.000802573 2.03432e-07 5.63544e-09)
(0.000803464 9.04914e-08 5.11266e-08)
(0.00107043 1.16732e-07 1.69405e-07)
(0.000800953 3.57619e-07 2.07494e-08)
(0.000801864 2.1255e-07 -2.70524e-09)
(0.00106848 5.10285e-07 1.93568e-07)
(0.000799964 2.24684e-07 5.31908e-08)
(0.000800383 -8.93473e-07 2.45318e-07)
(0.00106689 5.16278e-07 1.95817e-07)
(0.000798351 7.71918e-08 5.26851e-08)
(0.000798998 1.47e-07 4.65387e-08)
(0.00106506 1.06485e-07 1.78895e-07)
(0.000796714 -1.63361e-07 8.04341e-08)
(0.000797308 9.85105e-08 6.69298e-08)
(0.00106275 9.43833e-08 1.72398e-07)
(0.000795575 -3.96452e-07 1.70595e-07)
(0.000795927 9.02094e-07 8.00007e-08)
(0.00106119 -5.29685e-07 1.95658e-07)
(0.000793805 -3.06834e-07 1.51558e-07)
(0.000794632 -4.1623e-07 1.87048e-07)
(0.00105909 -5.10759e-07 1.9322e-07)
(0.000792185 -1.95176e-07 -5.68763e-08)
(0.00079304 7.07024e-08 5.5618e-08)
(0.0010567 -3.08263e-07 1.86018e-07)
(0.000790835 -1.51176e-07 -5.25845e-08)
(0.000791561 8.96543e-08 -5.3328e-08)
(0.00105487 -2.44537e-07 1.6052e-07)
(0.000789434 -2.77181e-07 1.13584e-07)
(0.000790087 -7.51558e-08 6.41799e-08)
(0.00105294 -1.93415e-07 1.70439e-07)
(0.000787982 -3.47095e-07 7.95855e-08)
(0.000788677 -3.00133e-07 1.09624e-07)
(0.00105119 -5.40417e-07 1.73988e-07)
(0.000786072 -2.4586e-07 3.63861e-08)
(0.000787006 1.05776e-06 3.52703e-08)
(0.00104885 -3.77346e-07 1.06713e-07)
(0.000785571 -5.13364e-07 5.57756e-08)
(0.00104637 -3.01966e-07 2.71269e-07)
(-0.000657655 0.000670239 -9.06634e-05)
(-0.00177055 0.000519381 6.34609e-05)
(0.000803056 -0.00253557 1.19053e-05)
(0.00308945 0.00154726 0.000239086)
(-0.000250599 0.0017879 -0.00015184)
(0.000730304 0.00324147 -0.000548264)
(0.00460769 0.00361227 0.000614991)
(-0.00366632 -0.00537233 0.000433497)
(0.00386202 0.00757758 0.00414739)
(0.00813909 0.00329555 -0.00425234)
(0.0019051 0.00780846 -0.0012684)
(0.0117051 -0.00249198 0.00293181)
(0.0106973 -0.000482233 -0.000930323)
(-0.00780785 -0.0186444 0.000558701)
(0.00346286 -0.00105607 -0.00291881)
(0.000947544 0.00476521 -8.67836e-06)
(0.0120869 0.0033294 0.000799243)
(0.000608383 0.0015785 0.00353293)
(-7.36305e-05 -0.000266417 0.000381018)
(0.000646169 0.000709126 -0.000382778)
(0.00607246 0.00219939 0.000623861)
(0.00186983 0.0118617 0.00020315)
(7.23505e-05 0.00635551 0.000244218)
(-0.00223553 0.00956995 2.06466e-05)
(-0.00239499 0.00652643 0.000111212)
(0.00041651 -0.00147215 3.25597e-05)
(0.0163058 0.00600955 -0.00265189)
(0.0151885 -0.00635866 0.00118978)
(0.0281563 0.00828362 -0.000305021)
(0.0139514 0.00615763 0.00258743)
(0.00257239 -0.00114073 -0.000137821)
(0.000499027 0.00138589 -0.000486671)
(0.00411701 0.00369396 -5.06162e-05)
(-0.00294079 0.00105756 0.000100358)
(-0.00082902 4.13496e-05 -0.000244502)
(0.00459578 0.00213324 0.000162428)
(0.00507569 0.0026967 4.10053e-05)
(0.00473446 0.00125329 4.64165e-05)
(0.00205005 0.000747512 8.85794e-05)
(0.00564644 0.00315814 0.000122085)
(0.000532123 -0.00020664 3.43855e-05)
(0.00033219 -9.56849e-05 1.11874e-05)
(0.000440465 -0.000102757 2.621e-05)
(0.000563383 -0.000171002 2.34839e-05)
(0.000259413 -8.22982e-05 5.07883e-06)
(0.000839188 -5.52606e-05 -1.48191e-06)
(0.000600496 -5.80137e-05 -1.83312e-06)
(0.0011466 -0.000105125 -1.65836e-06)
(0.000587618 -9.3783e-05 -4.66324e-06)
(0.000612515 -8.14272e-05 -5.11531e-06)
(0.00100352 -0.000162603 -4.69252e-06)
(0.00104544 -0.000132793 -3.9934e-06)
(0.000572046 -7.24798e-05 -4.73818e-06)
(0.00101337 -8.84107e-05 -1.43224e-06)
(0.000948243 -0.000112209 -5.66847e-06)
(0.000831702 -2.36725e-05 -1.13069e-07)
(0.000862833 -2.22947e-05 -9.67174e-07)
(0.00110937 -2.59815e-05 9.6414e-08)
(0.000835442 -1.83464e-05 1.37272e-08)
(0.000830767 -2.69036e-05 -2.37612e-07)
(0.00111116 -2.78703e-05 1.63999e-07)
(0.000837497 -1.09751e-05 1.58664e-08)
(0.000840735 -1.5783e-05 9.26951e-08)
(0.00111547 -1.55841e-05 1.85198e-07)
(0.000838652 -7.12762e-06 3.84049e-08)
(0.000840192 -9.9162e-06 6.90173e-08)
(0.00111724 -1.041e-05 1.81484e-07)
(0.000838695 -4.51466e-06 4.64586e-08)
(0.00084073 -5.81225e-06 5.6193e-08)
(0.00111799 -6.59261e-06 1.85288e-07)
(0.000838554 -2.86366e-06 5.19082e-08)
(0.000840112 -4.37954e-06 5.26104e-08)
(0.00111779 -4.23034e-06 1.88612e-07)
(0.000837835 -1.8374e-06 5.27319e-08)
(0.00083909 -2.74806e-06 5.42472e-08)
(0.00111724 -2.66536e-06 1.87508e-07)
(0.000836506 -1.02457e-06 5.56368e-08)
(0.000837938 -1.03183e-06 5.70544e-08)
(0.00111576 -1.76754e-06 2.32183e-07)
(0.000835372 -3.78475e-07 7.06183e-08)
(0.000836606 -1.32609e-06 4.98728e-08)
(0.00111409 -6.88631e-07 1.89821e-07)
(0.000834074 1.32112e-08 6.51408e-08)
(0.000835066 -9.95218e-07 6.73332e-08)
(0.00111255 -1.83309e-07 1.87188e-07)
(0.000832643 1.44329e-07 3.72651e-08)
(0.000833313 -7.64272e-07 7.59781e-08)
(0.00111065 2.74593e-07 1.81918e-07)
(0.000831041 7.24606e-08 5.99605e-08)
(0.000831684 3.91234e-09 5.41931e-08)
(0.00110858 1.37704e-07 1.83512e-07)
(0.000829478 2.66374e-08 8.18252e-08)
(0.000830289 -1.64345e-07 9.46549e-08)
(0.00110654 9.49369e-08 1.91775e-07)
(0.000827731 7.73339e-08 9.24435e-08)
(0.000828742 4.08105e-09 6.12127e-08)
(0.00110427 2.66624e-08 2.03306e-07)
(0.00082637 1.94218e-07 8.51836e-08)
(0.000827155 -1.36922e-06 8.31744e-08)
(0.00110212 2.59192e-07 2.693e-07)
(0.000824986 2.33201e-07 6.77562e-08)
(0.00082559 3.61046e-07 6.57903e-08)
(0.00110047 3.59509e-07 1.3097e-07)
(0.00082313 1.19157e-07 1.11609e-07)
(0.000823868 -8.45751e-08 7.80671e-08)
(0.0010983 3.44636e-07 2.44953e-07)
(0.000821371 -6.99885e-08 9.06639e-08)
(0.000822105 -1.18114e-07 1.19471e-07)
(0.00109575 3.67064e-08 1.26788e-07)
(0.000819911 -2.25358e-07 4.44941e-08)
(0.000820541 -1.18524e-08 5.21727e-08)
(0.00109362 -1.69158e-07 1.84106e-07)
(0.000818379 -6.43264e-07 5.08388e-08)
(0.000818841 -2.60951e-07 5.88679e-08)
(0.00109172 -3.99193e-07 1.85839e-07)
(0.000816357 -8.31788e-07 5.69363e-08)
(0.000817199 1.65882e-06 -6.05201e-09)
(0.00108934 -1.3069e-06 1.56704e-07)
(0.000814362 -5.87615e-07 9.84605e-08)
(0.000815637 4.68219e-07 4.63322e-08)
(0.0010865 -8.97736e-07 1.63565e-07)
(0.000813415 -3.94676e-07 8.52368e-08)
(0.000814252 -1.61469e-07 1.14687e-07)
(0.00108468 -6.49603e-07 2.63633e-07)
(0.000812017 -1.14252e-08 1.33484e-07)
(0.000813064 -1.12163e-07 5.4286e-08)
(0.00108317 -3.86437e-07 2.31307e-07)
(0.000810589 2.81087e-07 1.36728e-07)
(0.000811551 5.04093e-07 2.69708e-07)
(0.00108123 4.23827e-07 1.44782e-07)
(0.000809248 2.09064e-07 4.55942e-08)
(0.000809829 7.08419e-07 8.05688e-08)
(0.00107949 4.41519e-07 1.0241e-07)
(0.000807469 1.18158e-07 6.66855e-08)
(0.000808155 2.03681e-07 7.24971e-08)
(0.00107732 1.80672e-07 1.77092e-07)
(0.000805962 9.08506e-08 6.54893e-08)
(0.000806607 2.6223e-08 7.09669e-08)
(0.00107504 1.54695e-07 1.75843e-07)
(0.000804462 1.22811e-07 5.10676e-08)
(0.000805116 1.24456e-07 5.08798e-08)
(0.00107309 1.2054e-07 1.78019e-07)
(0.000802792 2.64874e-07 4.28026e-08)
(0.00080364 1.41168e-07 5.05601e-08)
(0.00107109 2.64215e-07 1.87851e-07)
(0.000801169 4.34785e-07 2.21787e-07)
(0.000802075 4.37238e-07 3.8007e-08)
(0.00106882 5.36641e-07 1.71314e-07)
(0.000799455 3.26185e-07 2.38727e-07)
(0.000800245 -7.03534e-07 2.1272e-07)
(0.00106644 6.83393e-07 1.82281e-07)
(0.000798126 1.84954e-09 6.07771e-08)
(0.000798592 -1.01535e-07 6.47146e-08)
(0.00106451 1.80733e-07 1.79572e-07)
(0.000796226 -2.40282e-07 6.64924e-08)
(0.000797006 8.16629e-07 6.80273e-08)
(0.00106236 -1.80631e-07 1.61535e-07)
(0.000795156 -3.93675e-07 9.64215e-08)
(0.000795737 -1.70545e-07 1.62729e-07)
(0.00106029 -4.45657e-07 2.16464e-07)
(0.000793853 -3.12793e-07 9.11487e-08)
(0.000794735 -2.58217e-07 9.72485e-08)
(0.0010589 -6.31097e-07 1.48881e-07)
(0.000792389 -1.67167e-07 5.91997e-08)
(0.000793224 -1.6689e-07 7.85034e-08)
(0.00105703 -2.54062e-07 1.92488e-07)
(0.000790837 -1.01585e-07 6.34006e-08)
(0.000791644 -8.43306e-08 5.53011e-08)
(0.00105493 -2.20475e-07 1.96293e-07)
(0.000789284 -1.20491e-07 6.02062e-08)
(0.000790065 -8.73142e-08 9.3542e-08)
(0.00105294 -4.62668e-08 1.85128e-07)
(0.000787836 -2.84904e-07 6.53315e-08)
(0.000788472 -3.75227e-07 6.34194e-08)
(0.00105093 -2.39423e-07 1.80496e-07)
(0.000786264 -3.18765e-07 5.46536e-08)
(0.000786967 2.43835e-07 7.42205e-08)
(0.0010488 -4.90866e-07 2.46368e-07)
(0.000785969 1.06067e-07 5.51732e-08)
(0.00104743 -3.44753e-07 8.18175e-08)
(-0.00132013 0.00176264 2.35549e-06)
(-0.000596728 0.000531661 -0.000119962)
(0.00128692 0.000440762 0.000179071)
(-0.00301932 -0.00753204 0.000172721)
(0.000677049 0.000309166 -2.92171e-05)
(-0.00283991 0.0031873 5.6858e-05)
(0.00280535 -0.000662988 -0.000185816)
(-0.00737286 -0.0159952 0.000297897)
(0.00430329 0.00202941 -0.00136501)
(-0.00124493 -0.0055451 -0.000734673)
(-0.000489775 -0.0123482 9.17743e-07)
(-0.010495 -0.0190336 0.000317662)
(0.030659 -0.00114484 3.35422e-05)
(-0.00603511 0.033341 0.00231965)
(-0.011074 -0.00398831 0.000329926)
(0.0202808 -0.00632866 0.00356907)
(-0.00181631 0.000183856 0.000397172)
(-0.00136575 0.0136349 -7.10951e-05)
(-0.00477091 0.0121075 0.000656764)
(0.0191612 -0.0118474 -0.00449769)
(-0.0340021 0.0474198 0.0140396)
(0.0127704 0.0138469 -1.47402e-05)
(-0.0165288 0.0027292 0.00819764)
(-0.00672639 0.000199088 0.00159272)
(0.0024412 0.00400177 0.000112095)
(0.0100739 0.00642814 2.89309e-05)
(0.00182064 0.00262853 0.000181983)
(0.00621262 0.00274758 0.000428527)
(0.00599955 0.00453811 0.000779147)
(0.000412117 3.05816e-05 5.54914e-05)
(0.000700639 -0.000216436 1.08715e-05)
(0.00116516 0.000119131 3.98349e-07)
(0.001018 2.98964e-06 -7.50389e-05)
(0.00103365 -0.000120641 6.05852e-06)
(0.000319674 -5.1141e-05 -2.47802e-06)
(0.000485695 -5.15357e-05 -3.71245e-06)
(0.000474051 -6.11351e-05 -3.98227e-07)
(0.000781379 -7.38227e-05 -1.90713e-06)
(0.00033602 -3.54615e-05 -2.84607e-06)
(0.000575322 -0.000102308 -3.59649e-06)
(0.00061039 -6.11639e-05 -3.84994e-06)
(0.000837626 -2.96439e-05 -1.09196e-06)
(0.00091685 -4.57302e-05 -1.4809e-06)
(0.00118929 -3.52222e-05 -1.02261e-06)
(0.000602363 -4.55714e-05 -4.39589e-06)
(0.000619123 -3.85562e-05 -4.99458e-06)
(0.000984509 -8.35034e-05 -5.32638e-06)
(0.0010184 -6.95304e-05 -6.24972e-06)
(0.000841637 -2.3259e-05 -1.58753e-07)
(0.000838813 -3.24239e-05 -5.55988e-07)
(0.00110226 -3.59091e-05 7.5513e-08)
(0.000842428 -1.43959e-05 1.45854e-07)
(0.000851855 -1.92889e-05 1.81515e-07)
(0.00112484 -2.12768e-05 2.16038e-07)
(0.000842663 -9.43493e-06 8.68096e-08)
(0.000846421 -1.25627e-05 -3.64525e-08)
(0.00112188 -1.41694e-05 2.04665e-07)
(0.000842219 -6.02943e-06 6.23459e-08)
(0.000845006 -7.52546e-06 6.34524e-08)
(0.00112269 -9.16472e-06 1.99054e-07)
(0.00084072 -3.79578e-06 5.49489e-08)
(0.000842917 -4.6264e-06 5.44197e-08)
(0.00112132 -5.78027e-06 1.88081e-07)
(0.000839149 -2.40911e-06 5.85688e-08)
(0.000840831 -2.91804e-06 5.40391e-08)
(0.0011192 -3.64417e-06 1.88233e-07)
(0.00083815 -1.5123e-06 5.12928e-08)
(0.000839064 -1.95876e-06 5.63927e-08)
(0.00111763 -2.34468e-06 1.91453e-07)
(0.000836312 -9.30187e-07 4.6582e-08)
(0.000837337 -8.74067e-07 6.15135e-08)
(0.00111577 -1.41551e-06 1.69443e-07)
(0.000834367 -6.5023e-07 7.81677e-08)
(0.000835419 -6.25005e-07 4.73477e-08)
(0.00111326 -9.03462e-07 1.85068e-07)
(0.000832197 -4.50521e-07 9.29132e-08)
(0.000833565 -2.13716e-08 7.04389e-08)
(0.00111051 -7.64326e-07 1.79497e-07)
(0.000830958 -2.52885e-07 8.88746e-08)
(0.000831933 -5.25628e-07 5.83005e-08)
(0.00110824 -4.18415e-07 1.87402e-07)
(0.000829598 -1.44488e-07 7.40531e-08)
(0.000830425 1.07305e-07 8.27156e-08)
(0.00110654 -2.44995e-07 1.42669e-07)
(0.000828134 -1.68423e-08 5.19366e-08)
(0.000828901 -1.95143e-07 5.17554e-08)
(0.00110467 -1.3199e-07 1.84596e-07)
(0.000826408 3.6825e-08 6.37866e-08)
(0.000827221 -3.22642e-07 3.50635e-08)
(0.00110259 1.08955e-07 1.20778e-07)
(0.000824511 -9.74758e-08 7.60972e-08)
(0.000825422 2.04419e-07 7.64174e-08)
(0.00110007 3.84651e-08 2.19553e-07)
(0.000822771 -1.67712e-07 8.59153e-08)
(0.00082378 -4.46299e-07 7.39913e-08)
(0.00109766 -2.67106e-07 2.20424e-07)
(0.000821253 -1.35105e-07 8.10007e-08)
(0.000822146 -1.91015e-07 6.10435e-08)
(0.00109547 -1.71726e-07 1.80984e-07)
(0.000819602 -1.29264e-07 6.65444e-08)
(0.000820549 7.4838e-08 6.57659e-08)
(0.00109339 -1.5629e-07 1.81522e-07)
(0.000817521 -1.41272e-07 1.99759e-09)
(0.000818827 -1.04707e-07 7.23063e-08)
(0.00109078 -1.39566e-07 2.14629e-07)
(0.000816561 5.47096e-08 -1.66725e-08)
(0.000817444 -9.29105e-07 -2.30585e-08)
(0.00108882 -1.90499e-07 3.09527e-07)
(0.000815333 4.67886e-07 6.25375e-08)
(0.000816153 -1.3977e-06 2.75874e-08)
(0.00108754 3.85706e-07 2.82641e-07)
(0.000814029 6.6621e-07 8.37554e-08)
(0.000814497 -8.53921e-07 5.84217e-08)
(0.00108565 9.01409e-07 2.0667e-07)
(0.000812606 5.47733e-07 1.90443e-07)
(0.000812914 -1.8492e-06 2.9862e-08)
(0.00108403 8.8582e-07 2.91571e-07)
(0.000810809 3.96718e-07 2.13608e-07)
(0.00081136 4.71822e-07 1.7918e-07)
(0.00108194 5.7624e-07 2.04009e-07)
(0.000808736 2.19946e-07 1.07474e-07)
(0.000809606 8.58556e-08 8.4689e-08)
(0.00107901 4.78799e-07 2.70808e-07)
(0.000807244 1.11047e-07 7.6779e-08)
(0.000808018 1.3595e-07 7.87236e-08)
(0.00107674 9.1999e-08 1.79751e-07)
(0.000805766 1.13875e-07 5.63637e-08)
(0.00080661 -1.0557e-07 1.29532e-07)
(0.0010749 1.79236e-07 1.8325e-07)
(0.0008043 4.88358e-08 5.03724e-08)
(0.000805035 6.37884e-08 6.31857e-08)
(0.00107287 1.12518e-07 1.77376e-07)
(0.000802878 1.11574e-08 4.57684e-08)
(0.000803593 1.1029e-07 4.49532e-08)
(0.00107095 1.9684e-08 1.7148e-07)
(0.000801325 -1.60949e-08 2.88866e-08)
(0.000802041 5.38638e-07 3.29393e-08)
(0.001069 -1.33826e-08 1.73961e-07)
(0.000799196 -3.41108e-09 3.87533e-08)
(0.000800262 7.35713e-07 -3.76026e-08)
(0.00106644 -8.0336e-08 1.29768e-07)
(0.000797635 7.13744e-09 7.19638e-08)
(0.000798605 -2.06718e-08 6.30445e-08)
(0.00106398 4.00258e-08 1.76676e-07)
(0.000796146 1.2027e-07 1.64234e-07)
(0.000797147 4.84723e-07 7.36742e-08)
(0.00106196 -2.10574e-08 2.00265e-07)
(0.000795571 2.53408e-07 1.63576e-07)
(0.000795902 8.90644e-07 1.95936e-07)
(0.00106063 3.74977e-07 1.73566e-08)
(0.000794131 1.96664e-07 8.46089e-08)
(0.000794663 5.15692e-07 1.72914e-08)
(0.00105933 3.75229e-07 1.16639e-07)
(0.000792482 1.32241e-07 7.46119e-08)
(0.000793142 -5.8946e-08 7.83556e-09)
(0.00105722 2.56949e-07 1.84208e-07)
(0.000790841 1.31413e-07 8.54308e-08)
(0.000791641 -9.69962e-08 4.85833e-08)
(0.00105513 2.13712e-07 1.92682e-07)
(0.000789223 1.16636e-07 9.67643e-08)
(0.000790045 2.15117e-07 8.92578e-08)
(0.00105292 2.42681e-07 1.68127e-07)
(0.000787613 8.24385e-08 7.23052e-08)
(0.000788428 -6.14371e-08 6.5058e-08)
(0.00105063 1.6181e-07 1.66904e-07)
(0.000786449 7.89087e-08 7.47459e-08)
(0.000786961 -2.32917e-07 5.55157e-08)
(0.00104873 1.1514e-07 1.84346e-07)
(0.00078587 1.36125e-07 6.79134e-08)
(0.00104741 1.11768e-07 1.63055e-07)
(0.00222921 -0.0013449 -0.000151565)
(-0.000722196 0.00100461 -5.19147e-05)
(-0.00128698 -0.00216855 -0.00014847)
(0.00667872 0.000989669 0.000728685)
(0.0018298 0.00110316 5.16413e-05)
(-0.00373048 -0.00322537 -0.00190584)
(0.000277407 0.00312057 0.000762938)
(0.0044351 -0.00560924 -0.000555914)
(0.00587696 0.00859856 0.000167619)
(0.00535731 -0.00386191 0.00129108)
(0.00315054 -0.00827687 -0.000301224)
(0.0026823 -0.0033758 4.71063e-06)
(0.00543937 0.00220183 0.00042186)
(-0.000738783 0.00473787 0.000689009)
(0.000776464 0.00507583 0.00113746)
(0.00470042 -0.00208832 0.000428643)
(0.0067038 0.00493369 0.00107814)
(0.0137179 0.00750691 0.000504715)
(-0.00894917 0.00617068 -0.000217554)
(0.0369289 0.00999642 0.00357702)
(0.0117857 0.0106619 0.00542021)
(0.0398866 0.0151777 -0.00536857)
(-0.00627099 0.0139399 -0.0012522)
(0.014248 0.0283682 0.00113587)
(0.0374964 -0.00415105 0.00451583)
(-0.0248985 -0.0350209 -0.00414892)
(0.00367544 -0.0179445 8.21977e-05)
(-0.0259296 0.0410127 -0.000790465)
(0.0049718 -0.00739271 0.000935895)
(-0.0354826 -0.00594138 0.000967119)
(-0.0278844 -0.0176314 0.00290474)
(-0.0156084 0.0269762 0.00733958)
(0.00121304 -0.00274354 5.342e-05)
(0.00441217 -0.00292847 -0.000481452)
(0.00742861 -0.000464897 -9.97778e-05)
(0.00558021 0.00470918 -3.43536e-05)
(0.00340534 0.000624213 -0.000755904)
(0.00080603 0.000393815 1.58263e-05)
(0.00129631 0.000205249 7.8639e-05)
(0.000758581 0.000327314 2.46425e-05)
(0.0017303 0.000617191 -4.27786e-05)
(0.00121617 0.000334417 2.93794e-05)
(0.000386896 -3.29924e-05 8.85567e-07)
(0.000525387 -4.06559e-05 -3.7335e-06)
(0.00052117 -2.71581e-05 7.48986e-07)
(0.000817586 -6.29844e-05 3.62012e-07)
(0.000388741 -2.85089e-05 5.44352e-06)
(0.000727444 -6.0559e-05 6.81619e-06)
(0.000713877 -4.4711e-05 1.83099e-05)
(0.000486746 -5.81884e-05 -5.03664e-07)
(0.000866024 -3.99128e-05 -9.45229e-07)
(0.000950748 -4.04923e-05 -1.36305e-06)
(0.00124667 -6.46894e-05 -1.15279e-06)
(0.000654903 -4.43916e-05 -4.13938e-06)
(0.000643355 -4.30948e-05 -5.1547e-06)
(0.00107501 -7.81376e-05 -5.13737e-06)
(0.0010502 -7.83128e-05 -6.32839e-06)
(0.000859072 -2.41819e-05 -2.15962e-07)
(0.000858691 -2.36546e-05 -5.81322e-07)
(0.00112873 -3.89906e-05 3.5896e-08)
(0.000853346 -1.4558e-05 -7.20594e-10)
(0.000863961 -1.46004e-05 1.73484e-07)
(0.00114273 -2.35335e-05 2.12968e-07)
(0.000848871 -8.84443e-06 -5.98423e-08)
(0.000853607 -8.85943e-06 9.4537e-08)
(0.00113244 -1.3964e-05 1.72551e-07)
(0.000845636 -5.52245e-06 5.55291e-08)
(0.000849184 -5.57739e-06 8.37269e-08)
(0.00112851 -8.76227e-06 1.86017e-07)
(0.000842935 -3.41048e-06 5.351e-08)
(0.000845573 -3.40968e-06 5.39018e-08)
(0.00112472 -5.41609e-06 1.89789e-07)
(0.000840569 -2.07015e-06 5.18622e-08)
(0.000842516 -2.09842e-06 4.38802e-08)
(0.00112155 -3.30895e-06 1.88022e-07)
(0.000838337 -1.39755e-06 6.66118e-08)
(0.000839911 -1.27605e-06 5.10269e-08)
(0.00111856 -1.95868e-06 1.86572e-07)
(0.000836428 -1.10368e-06 6.22838e-08)
(0.000837708 -7.79956e-07 6.76642e-08)
(0.0011159 -1.59343e-06 2.00312e-07)
(0.000834613 -8.98532e-07 3.96114e-08)
(0.000835678 -3.90374e-07 4.62996e-08)
(0.00111337 -1.20728e-06 1.833e-07)
(0.000833155 -7.9553e-07 3.58301e-08)
(0.000833696 -1.31559e-07 8.95401e-08)
(0.00111126 -1.07418e-06 1.76994e-07)
(0.00083143 -5.33324e-07 5.21337e-08)
(0.000832263 -4.70101e-07 6.80329e-08)
(0.00110923 -9.50116e-07 1.89064e-07)
(0.000829719 -2.74843e-07 6.04278e-08)
(0.000830749 -2.26024e-07 6.86828e-08)
(0.0011069 -4.23265e-07 2.1509e-07)
(0.000828052 -2.81095e-07 3.48877e-08)
(0.000828895 -1.1671e-07 6.43972e-08)
(0.00110472 -3.15431e-07 1.82942e-07)
(0.000826181 -2.82601e-07 4.76812e-08)
(0.000827221 9.36061e-07 4.84976e-08)
(0.00110233 -4.56578e-07 1.18626e-07)
(0.000824721 -1.72483e-07 7.43122e-08)
(0.000825561 9.9861e-08 9.0852e-08)
(0.0011 -3.35773e-07 1.77838e-07)
(0.00082311 -1.4466e-08 4.91236e-08)
(0.000823979 9.67022e-08 7.05154e-08)
(0.00109804 -1.75503e-07 1.45842e-07)
(0.000821421 1.49094e-07 4.58071e-08)
(0.000822351 -7.02611e-08 4.77274e-08)
(0.00109589 6.34525e-08 1.8244e-07)
(0.000819894 2.78809e-07 7.15257e-08)
(0.00082071 -7.01926e-09 6.58719e-08)
(0.00109366 2.8729e-07 1.82487e-07)
(0.000818506 6.15697e-07 4.72803e-08)
(0.000819245 -3.39783e-07 4.89183e-08)
(0.00109168 4.82413e-07 1.81275e-07)
(0.000817192 8.47918e-07 2.11855e-08)
(0.000817731 -1.96203e-06 1.13942e-08)
(0.00109 1.22959e-06 2.31259e-07)
(0.000815282 7.86013e-07 2.3462e-08)
(0.000816071 2.89762e-08 3.36953e-08)
(0.00108786 1.09028e-06 1.10331e-07)
(0.000813469 7.44934e-07 4.53727e-09)
(0.000814442 -2.42861e-07 -1.86987e-08)
(0.0010853 1.03494e-06 1.59528e-07)
(0.000811527 4.82488e-07 1.85513e-08)
(0.000812583 -5.21659e-07 1.73235e-08)
(0.00108276 9.90578e-07 1.20287e-07)
(0.000810301 1.36618e-07 5.02901e-08)
(0.000810926 -1.11177e-08 4.47406e-08)
(0.00108071 3.21176e-07 1.85267e-07)
(0.000808738 1.03911e-07 5.59402e-08)
(0.000809565 1.05763e-07 5.21859e-08)
(0.00107889 3.82082e-08 1.79734e-07)
(0.000807477 1.34986e-07 1.31461e-07)
(0.000808056 -1.92246e-08 6.4415e-08)
(0.00107694 2.44673e-07 1.65442e-07)
(0.000805818 6.27665e-08 1.36375e-07)
(0.000806519 1.06671e-07 1.27054e-07)
(0.00107506 1.18983e-07 1.74902e-07)
(0.000804296 1.81782e-09 5.77722e-08)
(0.000804959 2.19691e-08 5.66978e-08)
(0.00107289 3.67878e-08 1.80991e-07)
(0.000802821 -1.55515e-07 3.21279e-08)
(0.000803397 -1.22038e-07 4.60568e-08)
(0.00107093 -5.57753e-08 1.90643e-07)
(0.000801047 -2.75264e-07 -3.35281e-08)
(0.000801892 1.72629e-06 5.66836e-08)
(0.0010687 -3.84058e-07 1.15756e-07)
(0.000799568 -9.50676e-08 -1.33425e-08)
(0.000800488 -2.95707e-07 -1.27138e-07)
(0.00106651 -3.75729e-07 2.4907e-07)
(0.000798163 1.89712e-07 6.47517e-08)
(0.000798961 -1.55612e-07 6.14169e-08)
(0.00106459 1.05363e-07 1.7825e-07)
(0.000796698 4.76388e-07 1.05338e-07)
(0.000797504 3.28827e-07 2.15241e-07)
(0.00106278 4.16186e-07 1.85344e-07)
(0.000795172 5.35053e-07 4.97067e-08)
(0.000795973 -1.28857e-06 9.29105e-08)
(0.00106078 8.61178e-07 3.37823e-07)
(0.000793642 2.89646e-07 -5.94791e-08)
(0.000794354 -1.1315e-06 -7.2342e-08)
(0.00105875 5.73459e-07 3.00222e-07)
(0.000792329 1.20299e-07 -1.82055e-08)
(0.000792929 2.38159e-07 -1.47398e-08)
(0.00105682 2.31904e-07 1.39934e-07)
(0.000790867 8.47887e-08 5.23979e-08)
(0.000791596 1.21124e-07 4.50674e-08)
(0.00105491 1.13753e-07 1.59604e-07)
(0.000789141 1.14621e-07 5.75588e-08)
(0.000790081 -1.56173e-07 2.44585e-08)
(0.00105288 1.04448e-07 2.27058e-07)
(0.000787849 2.074e-07 4.82714e-08)
(0.000788544 -1.91002e-07 -1.15697e-07)
(0.00105077 1.72557e-07 1.70271e-07)
(0.000786195 2.55145e-07 4.86794e-08)
(0.000787017 8.49009e-08 7.38694e-08)
(0.00104873 3.58687e-07 1.71019e-07)
(0.000785552 3.62145e-07 7.23546e-08)
(0.00104715 3.16529e-07 1.31905e-07)
(-0.000206326 0.0036453 0.000151257)
(0.000573293 0.000355946 0.000160315)
(0.00229679 0.00169566 0.000130342)
(-0.00322775 -0.00301114 0.000156909)
(-0.000135281 0.00547667 -8.04822e-05)
(-0.00354227 -0.0041739 -0.00498589)
(-0.00538842 -0.00142975 0.000742579)
(0.0018364 0.00637939 0.00202997)
(-0.000927732 0.00341946 0.00120745)
(-0.000324003 0.00314873 -0.00015027)
(-0.00256875 0.00122874 0.000538829)
(0.00332237 0.0118418 0.000203821)
(-0.00707308 -0.00506004 0.000109501)
(-0.00263974 -0.00385173 -6.51908e-05)
(-0.00395748 -0.00399816 0.000528046)
(-0.00402898 -0.000773051 0.0006642)
(-0.00676667 0.00331049 -0.00271629)
(0.00957981 0.0190249 0.000841023)
(0.00791708 0.0130592 -0.00225401)
(-0.00176379 0.00408904 -0.0020403)
(-0.000939468 0.0039319 0.000616765)
(-0.00984383 0.0133837 0.0105543)
(-0.00535879 0.00318022 0.00316004)
(0.00504637 0.0014853 -0.0222169)
(0.0159059 0.00339803 0.00051171)
(0.00982639 -0.00311856 -0.000493298)
(0.0105585 0.00899778 0.000298135)
(0.0175318 0.000299185 -4.1583e-05)
(0.0119566 0.002333 0.000146956)
(0.00261549 -0.00105116 0.000163707)
(0.00181809 0.00211705 8.67117e-05)
(0.000198322 -0.000179546 4.01937e-05)
(0.00107466 0.00013353 -6.86406e-06)
(-0.000462605 -0.000519759 5.64917e-05)
(0.000630258 -2.46185e-05 -1.71e-05)
(0.0010244 0.000426995 -7.65799e-05)
(0.000749168 8.06207e-05 2.5311e-06)
(0.000858887 0.000534535 -1.16879e-05)
(0.00104625 0.000217898 5.8286e-05)
(0.00052438 -7.71261e-05 2.38547e-05)
(0.00055429 -3.91512e-05 -1.53532e-06)
(0.000993103 -0.000115957 1.03208e-05)
(0.000499366 -6.36198e-05 2.775e-05)
(0.000825102 -0.000116894 5.61946e-05)
(0.000827893 -9.44559e-05 6.40356e-05)
(0.000590326 -4.79621e-05 3.4909e-06)
(0.000463189 -3.1435e-05 4.02214e-06)
(0.000825568 -5.22785e-05 1.2879e-05)
(0.000691367 -8.74567e-05 -9.5204e-07)
(0.000393157 -5.49309e-05 -1.00827e-06)
(0.00088923 -2.12698e-05 -9.994e-07)
(0.00096257 -7.5266e-06 -1.50501e-06)
(0.00127828 -3.73209e-05 -1.32143e-06)
(0.000667104 -1.54978e-05 -5.11199e-06)
(0.00068473 1.68775e-06 -5.12459e-06)
(0.0010883 -2.74449e-05 -5.64127e-06)
(0.00115695 1.11062e-05 -5.96304e-06)
(0.000872774 -1.26194e-05 -1.92124e-07)
(0.000869646 -3.41636e-06 -5.42363e-07)
(0.00115427 -2.15886e-05 6.48503e-08)
(0.000861364 -7.82005e-06 2.68767e-07)
(0.000870019 -2.84904e-06 1.73158e-07)
(0.00115632 -1.31684e-05 2.15708e-07)
(0.000853509 -4.71685e-06 2.3811e-07)
(0.000857523 -1.08133e-06 1.94834e-07)
(0.00114045 -8.24431e-06 1.82169e-07)
(0.000848859 -2.77701e-06 8.21093e-08)
(0.000851631 -2.50249e-06 9.17549e-08)
(0.00113344 -4.62715e-06 2.2932e-07)
(0.000844919 -1.77739e-06 4.42753e-08)
(0.000846835 -6.31269e-07 4.99152e-08)
(0.00112818 -2.94613e-06 1.8842e-07)
(0.000841736 -1.12961e-06 4.30426e-08)
(0.000843334 -5.05732e-07 7.24064e-08)
(0.00112354 -1.90502e-06 2.05033e-07)
(0.000839165 -6.67163e-07 5.20739e-08)
(0.000840494 -3.60994e-07 7.65996e-08)