/*--------------------------------*- C++ -*----------------------------------*\
| =========                 |                                                 |
| \\      /  F ield         | OpenFOAM: The Open Source CFD Toolbox           |
|  \\    /   O peration     | Version:  5.0                                   |
|   \\  /    A nd           | Web:      www.OpenFOAM.org                      |
|    \\/     M anipulation  |                                                 |
\*---------------------------------------------------------------------------*/
FoamFile
{
    version     2.0;
    format      ascii;
    class       surfaceScalarField;
    location    "1.4";
    object      alphaPhi10;
}
// * * * * * * * * * * * * * * * * * * * * * * * * * * * * * * * * * * * * * //

dimensions      [0 3 -1 0 0 0 0];

internalField   nonuniform List<scalar> 
23698
(
-1.97006e-09
8.25473e-09
5.66911e-08
2.63613e-09
1.72589e-08
1.23582e-08
-1.36481e-09
-1.5872e-09
-1.71889e-09
2.8286e-09
-2.34494e-09
-9.26215e-09
-4.62687e-09
-3.47638e-09
2.50672e-08
2.04675e-08
1.78463e-08
2.17731e-08
-1.76387e-08
1.48613e-08
5.91928e-09
1.29084e-09
3.51599e-09
-4.11921e-09
-1.42359e-08
-4.89268e-09
4.08644e-08
-1.69892e-09
4.50736e-08
1.42382e-08
2.87555e-08
1.65397e-08
1.2497e-08
2.90871e-09
6.77018e-11
-2.76396e-10
-6.53174e-10
-4.47122e-17
1.44147e-20
5.00845e-19
-8.92804e-19
-1.06953e-17
-4.8226e-17
1.0578e-16
4.93667e-24
1.53197e-22
6.25221e-23
2.64553e-21
5.29076e-21
1.94021e-20
-3.86285e-20
6.64428e-27
-1.12829e-26
3.17932e-27
4.99072e-28
-6.82385e-28
1.79966e-29
5.44717e-32
-5.25405e-31
9.45422e-32
3.5047e-36
-9.05493e-35
5.35983e-35
1.192e-39
-2.17948e-38
1.57933e-38
4.92672e-43
-5.4275e-42
9.30744e-43
2.05226e-46
-1.34522e-45
-5.24644e-46
8.54606e-50
-2.94679e-49
2.04444e-48
3.54911e-53
-8.56527e-53
9.96676e-52
1.47113e-56
-2.13107e-56
3.83051e-54
6.07226e-60
-1.00471e-61
1.89651e-57
2.49784e-63
-1.22366e-63
-3.06059e-62
1.03205e-66
-2.61074e-68
-5.25204e-66
4.23964e-70
-2.3265e-71
-2.31773e-69
1.73362e-73
-9.95311e-74
-1.92213e-70
6.96834e-77
-2.50896e-78
1.69157e-74
2.8444e-80
-1.02209e-80
3.39358e-78
1.22832e-83
-5.29942e-84
5.77499e-80
5.65564e-87
-1.38889e-87
-1.36427e-82
2.58505e-90
-1.47026e-92
-1.40901e-86
2.6718e-93
2.19913e-94
3.05905e-89
4.94297e-97
-1.02097e-97
-4.38146e-93
1.99199e-100
1.24726e-100
8.32791e-96
1.1635e-103
1.44891e-104
-1.24824e-100
1.57194e-106
-3.69182e-109
2.39415e-102
2.27657e-109
-4.88646e-110
-1.39614e-105
3.5754e-113
3.98003e-114
-8.53279e-108
1.90653e-116
-1.58943e-118
-1.20548e-111
2.9839e-119
2.27302e-120
9.34631e-115
8.82162e-122
8.33454e-123
-4.46953e-118
4.65019e-126
-9.95579e-126
4.4453e-122
1.61314e-129
-3.57994e-130
9.61284e-127
1.53209e-132
1.21088e-133
-2.30788e-128
3.52561e-135
1.67413e-137
-4.84483e-131
5.24144e-138
1.02277e-138
-4.33398e-135
1.02883e-140
3.54646e-141
-8.47452e-137
1.49081e-144
-1.42158e-147
9.31787e-141
1.81789e-147
-2.46117e-148
1.93987e-143
3.05183e-151
1.41521e-152
-4.72213e-146
2.94675e-153
1.28871e-156
-9.09852e-151
6.26133e-154
3.5999e-157
-9.53532e-153
6.89865e-159
-1.38712e-157
9.12634e-09
-2.05538e-09
5.86869e-08
4.6686e-08
1.71302e-08
-2.01515e-08
3.82915e-08
3.34854e-08
-2.5497e-08
-8.37537e-09
4.70259e-08
-4.01852e-08
-2.98244e-08
-2.11855e-08
-2.31718e-08
-3.09977e-08
-2.89685e-09
-1.20782e-08
2.59491e-08
-3.79938e-08
7.48015e-09
6.7297e-09
-2.22076e-08
7.72627e-11
-8.79531e-10
-8.62289e-10
-1.62024e-09
3.47481e-09
-2.59188e-14
2.54637e-16
6.09994e-18
-4.65444e-16
-1.5686e-13
-8.61802e-14
6.3889e-14
-3.04785e-15
-6.67462e-15
-1.69381e-15
-1.672e-15
1.43394e-21
-1.94369e-19
2.57701e-21
1.04072e-20
4.88111e-20
-3.32894e-20
1.65538e-19
5.04391e-28
-4.59045e-23
5.23236e-26
2.61147e-29
-8.63655e-27
-4.40494e-30
1.76806e-31
-4.65277e-30
5.70089e-33
1.88102e-35
-1.4021e-33
1.34481e-35
1.66554e-39
-6.65329e-38
-1.7172e-40
5.73439e-43
-1.5318e-41
2.21065e-42
2.39926e-46
-3.82277e-45
1.04351e-45
1.0413e-49
-9.42748e-49
-3.10507e-48
4.32879e-53
-2.33084e-52
1.27598e-51
1.79508e-56
-4.00867e-56
1.51765e-55
7.48255e-60
6.84854e-60
-1.05274e-57
3.10291e-63
-5.73261e-63
1.99824e-61
1.2869e-66
-3.42168e-67
4.14798e-64
5.33401e-70
-1.09814e-70
1.23491e-67
2.23177e-73
5.94627e-75
-9.47336e-70
9.34952e-77
-2.48432e-77
-8.34181e-74
4.04256e-80
-1.26794e-81
-4.58222e-77
1.7919e-83
1.11961e-84
-2.55982e-80
6.84603e-87
-4.44192e-87
-4.45209e-83
3.07794e-90
-5.79085e-91
-8.09812e-87
2.18887e-93
6.08339e-94
-1.03438e-88
5.73219e-97
1.17672e-97
1.04333e-92
3.9552e-100
-1.52818e-101
-1.00909e-97
2.94307e-103
2.4865e-104
-5.14148e-99
6.07871e-107
-5.56043e-106
2.45902e-102
3.02885e-110
-3.42714e-108
1.66268e-104
2.83357e-113
6.67079e-114
1.4745e-110
2.55512e-116
-1.16957e-116
-1.26587e-111
1.17778e-119
-5.17693e-122
1.72574e-115
1.31117e-122
9.89956e-126
-9.07993e-121
1.60645e-124
-5.75457e-126
-4.96465e-121
7.48597e-129
-4.5087e-129
-2.02622e-125
3.92247e-132
7.7508e-133
-2.54381e-128
2.34122e-135
7.50442e-136
-9.01548e-132
3.55131e-139
-1.03188e-139
7.86141e-136
1.79464e-142
1.6955e-143
4.18082e-139
1.38934e-145
2.00797e-145
9.09247e-140
-2.36125e-148
-1.01692e-149
1.14141e-143
3.09306e-151
-1.50403e-150
3.92138e-146
-5.13039e-154
-2.29505e-154
-6.22752e-150
3.62546e-154
7.33961e-157
-9.33699e-153
2.14453e-158
-7.56264e-156
-3.33469e-09
-3.49744e-09
-2.73464e-09
-4.51809e-09
-4.60581e-08
8.98111e-10
6.19294e-09
6.63896e-09
-1.15359e-08
1.73928e-08
-1.11392e-09
-1.17516e-07
-1.84984e-08
7.43758e-08
-7.44884e-09
-3.20797e-09
-5.29336e-08
-1.38506e-08
-2.02579e-08
-9.72817e-09
7.63295e-10
-2.36999e-08
-2.67525e-08
-4.40883e-08
-2.5503e-09
-1.84333e-08
1.21429e-08
3.06178e-10
-6.25093e-09
1.56115e-09
3.65439e-09
1.53997e-09
1.12465e-12
5.38695e-14
1.43387e-09
9.27367e-13
1.43504e-09
7.40995e-20
5.22795e-19
-1.19021e-19
1.54718e-18
2.02719e-17
1.82187e-18
-3.00361e-17
4.81591e-19
6.22054e-18
5.00828e-19
2.0917e-25
-6.50396e-22
-9.98012e-24
1.93756e-28
-1.12237e-25
-6.5144e-28
2.67712e-29
-3.97722e-29
-2.84849e-31
2.32182e-33
-2.91143e-33
-9.40041e-35
7.61765e-38
3.21176e-36
2.0934e-38
2.67399e-41
-1.0128e-40
1.02713e-41
1.08106e-44
-1.85771e-44
2.31942e-44
4.36942e-48
-4.37059e-48
1.30488e-47
1.76015e-51
-3.77587e-51
-3.30866e-51
7.07513e-55
3.85778e-54
5.41066e-54
2.85197e-58
9.37881e-58
-1.29277e-56
1.13692e-61
-3.08758e-61
7.61306e-61
4.54089e-65
5.81666e-65
1.78042e-63
1.81556e-68
-4.57125e-68
1.87778e-67
7.22728e-72
-1.6927e-71
-1.66664e-69
3.06855e-75
-3.45383e-75
-6.60981e-73
1.09865e-78
2.47637e-78
-1.01413e-75
5.2096e-82
-1.77025e-81
7.73168e-80
1.8352e-85
-2.94744e-85
-5.45634e-82
6.94895e-89
-7.78127e-89
-1.48404e-86
7.49467e-92
-1.2625e-91
-7.4524e-89
3.74534e-95
-1.03547e-95
-9.3963e-92
1.15918e-98
-1.78875e-98
4.3267e-96
1.01262e-101
-1.0047e-100
-4.10762e-99
9.30392e-104
1.70036e-105
-1.61198e-100
1.50884e-107
4.25722e-110
-2.36074e-103
6.39149e-111
-1.24251e-113
-7.7605e-107
-5.72384e-115
-1.03207e-115
2.73733e-111
-8.7499e-118
-5.51846e-119
4.29845e-114
2.21485e-121
3.01411e-122
-5.32291e-118
7.74714e-124
-2.30164e-125
-5.17257e-120
1.71936e-127
5.05033e-126
-1.45477e-122
1.02031e-132
2.62269e-130
6.56932e-126
3.75276e-133
-3.02355e-133
-2.19322e-129
6.84229e-138
-3.12316e-136
-6.04421e-133
-4.5584e-141
-1.75866e-139
2.95648e-136
1.63374e-143
4.08307e-144
2.92621e-138
-6.7335e-148
3.59201e-146
3.40529e-142
3.80711e-149
-1.67876e-150
-2.01584e-145
-6.61434e-153
1.31815e-153
-1.76099e-148
1.70331e-153
9.62045e-158
2.03932e-151
-3.9827e-158
3.67176e-155
9.61478e-09
1.06499e-08
7.87413e-09
3.69955e-09
-3.03077e-08
-1.25156e-08
1.0192e-08
-2.74706e-08
-1.18291e-08
-2.498e-08
-2.7854e-08
-2.50059e-08
-1.6626e-08
3.62386e-08
6.03778e-08
1.78627e-08
1.2412e-08
1.09186e-08
1.86584e-08
6.31426e-09
1.02459e-07
-5.61289e-08
1.85267e-07
3.8047e-09
1.30648e-08
1.32921e-08
3.31404e-09
8.93199e-10
-2.05403e-08
-7.634e-08
-2.73527e-08
1.23381e-07
1.78968e-08
5.50174e-10
-2.75789e-08
-2.05716e-09
7.28277e-10
-1.54879e-08
2.31536e-09
1.33028e-10
1.27255e-08
-1.29465e-10
-3.24652e-11
9.84091e-11
-8.95878e-13
1.58775e-11
9.30431e-17
4.98853e-19
-1.96558e-08
-1.2233e-18
2.68151e-25
1.91705e-22
-3.42977e-22
2.70883e-19
2.69357e-19
2.70627e-19
2.69985e-19
-5.34993e-27
8.5636e-26
1.33436e-26
6.31632e-29
2.29504e-29
2.50472e-30
8.36665e-32
-1.21285e-32
-1.21746e-33
6.14842e-36
-7.35543e-35
8.99956e-37
5.01315e-40
-6.47259e-39
8.27191e-40
1.90531e-43
-1.3723e-42
-1.70834e-43
8.03256e-47
-3.06027e-46
-1.28426e-47
3.37517e-50
-9.78671e-50
-1.73839e-49
1.41185e-53
-7.39007e-54
-4.03047e-52
5.87595e-57
-7.27992e-57
2.53247e-55
2.43303e-60
-3.26607e-60
3.22184e-59
1.00473e-63
-1.09056e-63
-5.25853e-63
4.14974e-67
-3.18989e-67
4.2207e-65
1.71846e-70
2.50755e-70
-4.13896e-69
7.10563e-74
3.99052e-74
7.64316e-72
2.94594e-77
6.2715e-78
4.27633e-74
1.18754e-80
-1.5906e-80
-1.317e-76
4.7006e-84
-1.39419e-84
-2.89504e-81
2.56828e-87
8.78002e-89
-5.84817e-84
1.11858e-90
-1.74545e-90
3.26632e-88
4.34637e-94
1.44046e-94
2.01304e-90
4.14511e-97
4.8336e-98
-2.09392e-93
2.58616e-100
-9.01286e-102
-3.27222e-96
5.44958e-104
-2.6815e-103
-1.89967e-98
3.99839e-107
1.98768e-108
-7.59293e-103
3.64123e-110
6.87273e-111
-5.36018e-106
1.31329e-113
-5.42261e-115
-1.76645e-109
4.04523e-117
-4.26636e-118
1.77373e-113
8.88648e-120
-7.48606e-121
-3.47164e-116
3.08961e-122
6.65053e-123
-2.12626e-118
3.80874e-126
1.62702e-126
5.11424e-121
2.22538e-129
1.66864e-130
1.61667e-124
3.13497e-132
-1.35282e-133
1.28064e-128
6.05663e-136
-2.12769e-137
4.03012e-134
9.09384e-139
-2.09104e-140
7.81306e-135
5.23944e-142
8.37075e-143
-1.44159e-137
9.90198e-146
7.47066e-149
1.25267e-140
8.64882e-149
3.61289e-148
-2.97002e-143
6.97706e-152
2.9972e-152
4.87846e-149
2.91676e-153
-4.23476e-155
-9.37703e-152
-1.99851e-157
1.57602e-153
-8.79802e-08
-4.61615e-08
1.47051e-07
-2.85666e-08
-1.80175e-08
-3.13951e-08
3.4615e-09
-2.01938e-08
2.79805e-09
-7.64756e-08
-2.39449e-08
-4.99543e-09
2.25601e-08
1.682e-09
-1.57722e-08
1.4615e-08
3.39806e-08
-1.38698e-08
1.63689e-08
-1.27719e-08
-1.36924e-08
-1.27063e-08
-5.11504e-08
3.5439e-08
2.55544e-08
-2.8983e-08
-2.31049e-08
-1.44968e-09
2.12533e-09
-1.15252e-09
-3.90355e-09
3.60176e-09
-2.41529e-09
3.17537e-11
-1.90917e-10
-1.09588e-10
1.41614e-10
6.22682e-16
-6.8692e-19
-2.17123e-08
1.32059e-18
6.23267e-16
6.25475e-16
6.14568e-16
-1.72204e-18
2.50124e-24
8.19599e-21
8.28483e-22
5.88607e-18
5.88551e-18
5.88839e-18
5.88457e-18
2.35053e-25
1.28626e-24
-7.36042e-26
-1.10259e-28
2.26232e-28
-9.28847e-30
2.13535e-32
-5.71944e-32
-4.74451e-33
1.85454e-35
-4.42942e-35
2.31467e-36
2.03414e-39
1.55941e-39
9.92348e-40
6.94233e-43
8.16456e-43
-2.62634e-43
2.92363e-46
3.58907e-46
-2.81832e-45
1.23719e-49
7.84178e-51
3.54574e-49
5.20955e-53
1.28149e-53
3.91159e-52
2.18428e-56
4.44543e-57
-5.49821e-55
9.11952e-60
-5.69726e-61
1.88315e-57
3.80091e-63
7.56626e-64
9.79736e-62
1.57316e-66
-6.53754e-67
1.11988e-64
6.49255e-70
1.13678e-70
8.04314e-68
2.68588e-73
-2.68508e-74
1.41307e-70
1.08229e-76
1.034e-79
-4.98383e-74
4.55663e-80
-2.29221e-81
-2.18607e-76
2.01135e-83
-1.7522e-84
-8.90686e-81
7.86112e-87
1.32589e-88
2.11831e-83
-4.07318e-92
-1.0233e-92
3.06363e-86
1.45573e-93
3.00488e-94
-7.03457e-90
1.33131e-96
3.27163e-97
-3.84382e-93
3.72904e-100
1.05054e-100
-3.12668e-96
3.7336e-103
1.47719e-104
-7.73774e-98
9.51816e-107
-3.62016e-108
7.61986e-103
4.11917e-110
-1.02928e-112
-1.90596e-106
2.55295e-113
1.76352e-114
-5.53292e-109
-4.84012e-116
1.49751e-117
2.99619e-112
8.22729e-120
3.41443e-120
-1.96151e-114
-4.97086e-123
1.39355e-126
5.1014e-120
5.21162e-126
1.00658e-127
1.04734e-121
3.55571e-130
-4.57667e-130
-1.92502e-126
-1.69662e-132
-1.52122e-131
1.9009e-129
9.30808e-137
-6.3538e-135
-6.29629e-133
1.39076e-139
4.12163e-139
4.76632e-136
3.46363e-142
1.05641e-141
2.5512e-136
4.7436e-145
-8.5736e-146
7.58804e-141
2.27485e-147
3.22879e-148
6.99963e-143
1.04805e-150
3.57735e-151
5.16545e-147
-1.00151e-153
2.64905e-154
-7.21631e-150
6.05141e-158
-1.47142e-152
-2.86333e-08
-6.97724e-09
2.82849e-09
-1.04258e-08
4.58795e-08
-3.55322e-09
1.41902e-08
1.43261e-08
1.83361e-08
1.76632e-08
-8.04515e-09
-7.93022e-09
-7.77988e-09
-9.17479e-09
4.5648e-08
3.91405e-08
4.7503e-08
-8.82596e-10
-7.0126e-09
-1.18045e-08
-5.13213e-09
4.32505e-08
-5.50838e-08
1.04861e-07
-1.2267e-08
1.65164e-07
1.96422e-09
2.42832e-08
2.65908e-10
-5.37832e-09
-5.30747e-09
3.44528e-08
2.57183e-08
2.96972e-08
-4.29776e-08
-4.29161e-08
-4.69921e-08
-4.63161e-08
-5.62198e-09
-1.68803e-10
1.35461e-08
2.003e-09
-5.48243e-09
-1.938e-09
-4.00542e-08
-7.91151e-09
-4.39214e-09
4.88047e-08
4.38156e-09
2.52434e-09
5.35748e-09
3.12433e-09
-1.54001e-08
-1.27225e-09
1.89004e-10
-3.03541e-11
3.11839e-11
1.22263e-10
-1.54233e-16
3.65926e-17
-1.82663e-08
3.62885e-17
3.28214e-17
-1.54662e-16
-1.59605e-16
-1.66186e-16
3.32316e-25
-7.44952e-22
-3.9925e-22
5.7233e-18
5.72379e-18
5.72064e-18
5.72075e-18
1.31338e-25
-1.24625e-25
8.61687e-26
9.23962e-29
2.60518e-29
1.01269e-29
2.32162e-32
-4.38291e-32
9.6835e-33
1.171e-35
3.94927e-36
1.83591e-35
8.7333e-40
2.99052e-39
1.15416e-39
2.66186e-43
5.50923e-43
8.39473e-43
1.18772e-46
1.78216e-46
-8.73002e-46
5.32131e-50
4.46479e-50
7.35355e-49
2.35455e-53
4.87919e-53
-8.71079e-53
1.03056e-56
5.73154e-57
-5.49625e-55
4.46755e-60
3.72052e-60
2.20375e-57
1.92003e-63
1.45547e-63
-5.03823e-61
8.17427e-67
2.43192e-68
3.30065e-64
3.46401e-70
4.4955e-71
2.35534e-68
1.46694e-73
-2.46663e-74
7.20071e-71
6.47979e-77
-1.89641e-77
1.91908e-73
2.47227e-80
1.30519e-80
-6.39741e-77
1.13541e-83
-5.67114e-85
1.40156e-80
5.29357e-87
-1.43836e-88
-6.97196e-84
3.3466e-90
-7.92966e-92
3.6388e-87
3.76678e-93
1.88996e-93
8.13936e-90
1.52166e-96
2.36086e-96
-5.31703e-93
5.86009e-100
-7.01907e-101
3.6236e-96
-1.92375e-104
8.65311e-105
1.56245e-99
1.52906e-106
4.23066e-108
-1.45193e-101
1.11067e-109
2.1801e-110
-8.4268e-106
3.01194e-113
-2.71793e-114
1.15792e-108
2.81743e-116
-1.9065e-117
-5.22529e-112
2.12258e-120
3.30969e-120
-2.81657e-114
5.76487e-123
-9.11451e-125
-1.71284e-120
-1.68526e-127
-1.76679e-127
1.60623e-122
4.23672e-128
4.08204e-130
-2.91367e-125
5.67031e-131
8.15201e-133
-1.27275e-127
-6.661e-136
-5.93538e-138
-3.317e-131
2.75235e-138
6.39458e-140
6.66106e-134
6.16533e-142
-1.03272e-142
2.89959e-136
5.96571e-145
-6.73904e-147
-5.04056e-143
3.11191e-147
7.47858e-149
-5.89812e-144
1.35107e-151
-1.7481e-153
2.31063e-147
-5.53188e-153
3.42719e-156
1.7874e-149
1.08658e-157
1.16452e-154
1.58888e-08
-3.79163e-09
5.09626e-09
1.50614e-09
-4.80886e-08
3.8167e-08
-6.90206e-09
-1.86964e-08
2.31386e-08
-7.61615e-09
-9.05678e-09
-1.151e-08
-2.39597e-08
-1.62478e-08
-1.42426e-08
2.2811e-09
2.69167e-08
-3.44274e-08
-1.083e-09
-1.27969e-08
-7.92803e-09
-7.98468e-09
-8.27872e-09
-2.3572e-08
5.10751e-08
-6.8188e-08
-6.38802e-08
-1.39676e-08
-1.39372e-08
-1.50913e-08
-1.1466e-08
1.54369e-08
-1.7357e-08
-3.06319e-09
1.05844e-08
8.33449e-09
1.49953e-08
1.37311e-08
6.14865e-09
-8.79676e-09
2.41868e-09
3.11189e-10
3.96116e-10
-4.99494e-10
4.68964e-11
-6.66556e-11
-4.07679e-11
1.79484e-10
-4.49572e-16
-4.5777e-18
-3.4828e-08
-3.4828e-08
-4.47836e-18
-4.50134e-16
-4.49282e-16
-4.51661e-16
3.15686e-25
1.31822e-21
1.20663e-22
2.55229e-19
2.54148e-19
2.54818e-19
2.56798e-19
4.06928e-27
1.70706e-25
-4.23462e-27
-3.83734e-29
4.73663e-29
8.36395e-31
7.79373e-32
6.33944e-32
-3.30263e-34
7.93741e-36
4.02979e-35
3.78537e-38
8.37563e-40
3.01848e-39
9.28606e-40
3.20352e-43
7.60264e-43
-7.37178e-44
1.32024e-46
1.88929e-46
7.20981e-48
5.43031e-50
4.66461e-50
9.61794e-50
2.22794e-53
7.87989e-54
1.13549e-51
9.11998e-57
1.82784e-57
2.72188e-55
3.73043e-60
5.42575e-61
-8.56962e-59
1.51588e-63
2.37332e-64
-2.78207e-61
6.16634e-67
1.75297e-68
7.43593e-65
2.5005e-70
2.86984e-72
-1.57683e-68
1.01884e-73
5.10277e-76
2.46408e-72
4.10589e-77
2.68048e-78
-5.83483e-75
1.64354e-80
1.01246e-83
2.28577e-78
6.6346e-84
-3.63963e-86
5.63632e-82
3.22396e-87
-4.34909e-89
8.27561e-86
1.95885e-90
7.60493e-91
-9.74893e-87
5.66123e-94
2.84962e-95
-1.74385e-93
2.192e-97
8.20468e-100
6.08269e-96
1.02658e-100
-1.52342e-103
-7.0921e-97
3.42277e-104
3.57822e-106
5.62829e-101
1.6127e-107
1.17167e-109
-2.39146e-103
9.03261e-111
8.78906e-113
-2.22904e-106
5.30776e-114
1.88896e-116
2.56619e-109
4.09532e-117
-8.49492e-120
-2.34029e-113
8.53387e-120
6.11809e-122
1.32666e-115
5.29384e-123
4.67503e-124
-6.02402e-119
4.60582e-126
-3.12398e-129
-4.84627e-122
7.23601e-130
-5.43218e-133
-2.18639e-125
6.26685e-133
8.62898e-135
4.89388e-128
1.38551e-136
1.13922e-137
1.66889e-131
1.07856e-139
-1.92847e-142
1.21817e-136
3.63461e-142
2.45781e-144
-4.57674e-138
1.8177e-145
-2.44276e-149
-3.53865e-141
1.14751e-147
-2.67187e-151
-4.21067e-144
5.10282e-152
-4.58134e-155
2.0807e-150
1.50439e-153
2.39214e-157
1.50644e-151
2.61927e-157
-6.97548e-154
-8.62086e-10
-2.22783e-08
-1.50161e-08
2.63695e-09
1.09356e-09
-1.52524e-09
-1.93805e-10
-5.66319e-09
-6.184e-09
-3.72007e-09
-1.52391e-08
4.9391e-08
-5.45084e-08
-5.2132e-09
-1.54813e-08
-1.42241e-08
-4.61806e-09
-6.59848e-08
-6.59147e-08
-5.54752e-08
-5.51318e-08
-1.27019e-08
-5.12147e-09
-1.01033e-08
9.71783e-08
-3.70334e-07
2.94431e-08
7.91512e-08
2.00805e-08
2.63454e-08
1.98813e-08
7.99183e-08
7.84201e-08
7.96019e-08
3.03043e-08
2.97692e-08
2.93326e-08
2.9953e-08
1.16265e-08
2.05024e-08
-1.35142e-07
2.24281e-08
-4.34379e-09
-5.49332e-09
1.80909e-08
3.98503e-08
-2.40295e-08
-1.29816e-08
-7.50729e-10
1.9423e-08
4.34662e-09
-1.02093e-07
1.11213e-09
6.94009e-09
-1.28724e-09
-4.08021e-09
-3.11251e-09
-5.85876e-11
-9.45536e-12
1.43131e-09
-1.42845e-12
1.44294e-09
2.90451e-21
1.73024e-20
-1.51005e-19
-2.13721e-17
-5.74742e-19
3.62945e-17
-2.39909e-18
4.76265e-18
5.56916e-18
2.03485e-19
5.54714e-18
-7.79789e-26
-5.02296e-25
9.22197e-25
1.17832e-28
-4.04878e-28
-1.34165e-29
2.16446e-29
3.12271e-31
-7.5836e-33
3.13598e-33
5.11094e-34
-1.91479e-35
7.71754e-38
5.1329e-38
-2.01658e-38
2.59815e-41
9.71123e-42
4.05341e-42
1.04995e-44
2.31091e-45
-3.26725e-44
4.24557e-48
6.27836e-49
1.53172e-48
1.71558e-51
1.09006e-52
-1.19938e-50
6.90345e-55
2.55717e-56
-4.3333e-54
2.78607e-58
1.31128e-59
-1.99956e-56
1.11435e-61
3.21047e-63
-5.42542e-60
4.41555e-65
8.45237e-67
6.84011e-64
1.7877e-68
-2.7163e-71
-4.86749e-67
7.258e-72
5.4514e-74
3.02217e-69
2.83406e-75
-8.66829e-78
-3.67686e-74
1.13855e-78
-1.29891e-80
1.10669e-76
4.14275e-82
1.12152e-83
-2.78615e-79
2.48545e-85
3.00689e-88
-5.24753e-83
6.42761e-89
-5.84806e-91
-1.12398e-85
4.07091e-92
2.92359e-94
-4.67584e-90
3.87706e-95
-3.07979e-98
-9.16117e-92
2.62988e-99
-1.25265e-99
6.83229e-96
4.45385e-102
7.77332e-104
-1.43653e-98
3.10444e-105
1.22479e-106
4.10066e-102
1.60164e-108
3.83028e-111
-3.60993e-104
4.55181e-112
-6.65567e-114
-8.627e-108
-5.46957e-115
4.50009e-117
6.7038e-111
-3.9709e-119
8.78474e-121
2.22076e-114
8.8239e-121
6.51117e-124
-6.5315e-117
2.16577e-124
4.48158e-127
-1.16097e-121
-3.56221e-128
3.09335e-130
1.16596e-124
4.51256e-131
-4.98256e-135
-7.11621e-128
7.25664e-134
6.28729e-136
6.40279e-130
-2.77464e-137
1.07776e-138
1.3655e-132
1.7902e-140
4.53789e-144
-1.45911e-136
4.77787e-145
4.23244e-147
7.50723e-141
5.94954e-148
1.9504e-149
-1.01922e-143
1.01917e-149
-1.37557e-152
-9.62324e-147
-1.75555e-153
-3.36367e-154
4.6695e-150
4.14553e-154
-9.56076e-157
4.35144e-153
6.71729e-159
-4.7626e-155
3.71883e-08
-5.96443e-09
-1.83223e-08
-2.69755e-09
1.73622e-08
-1.25073e-09
-7.83179e-09
-3.99228e-08
1.45382e-08
1.86265e-08
1.68301e-08
-2.52977e-09
-2.77689e-11
1.6924e-09
2.8589e-10
3.03066e-08
3.2936e-08
4.97068e-10
1.64744e-09
4.7118e-08
2.82441e-08
2.93925e-08
2.89392e-08
3.20471e-08
3.43088e-08
3.57715e-08
1.19505e-08
2.60814e-08
-1.52322e-07
-9.66699e-08
1.1662e-08
2.48722e-08
4.50284e-08
-4.07581e-08
1.7544e-08
1.25849e-08
1.10784e-08
1.23883e-08
1.03179e-08
2.58688e-08
1.55472e-08
1.58785e-08
5.49192e-08
-3.32404e-10
1.6659e-09
2.57192e-11
-2.79685e-09
1.056e-09
-1.32451e-12
-1.08716e-15
-2.46878e-08
1.06518e-12
-2.46878e-08
1.67348e-21
2.96656e-22
-4.49325e-21
5.76235e-21
-4.86395e-20
1.4452e-19
-8.26569e-20
1.14917e-26
8.86849e-26
-9.18162e-26
5.90976e-29
9.37473e-28
-1.34523e-30
1.34285e-31
5.87532e-31
4.30484e-33
1.79702e-35
6.95042e-35
1.37491e-35
2.07517e-39
1.30487e-38
3.20721e-39
7.56448e-43
2.8897e-42
3.77378e-42
3.12874e-46
7.14086e-46
1.77351e-45
1.29891e-49
1.81284e-49
4.15091e-48
5.38222e-53
3.33598e-53
-3.7902e-51
2.22467e-56
7.81128e-57
-5.71692e-55
9.17203e-60
2.82762e-60
-1.25106e-57
3.76523e-63
7.77104e-64
1.91528e-60
1.54156e-66
2.92152e-67
2.22177e-64
6.29659e-70
5.03744e-71
2.62533e-67
2.56335e-73
-1.0261e-74
3.92498e-71
1.12409e-76
4.80827e-78
7.67368e-76
6.68757e-80
-1.63267e-81
-1.05008e-76
1.9016e-83
-8.3368e-86
-3.87322e-81
7.31435e-87
9.59229e-88
4.80565e-84
2.8932e-90
-1.66923e-91
-4.30262e-87
1.22223e-93
-7.15213e-94
1.37379e-89
1.1344e-96
-9.1183e-101
-1.19173e-94
5.98552e-99
1.47442e-101
-1.79584e-95
3.45825e-103
3.94779e-105
-1.27424e-100
8.67723e-107
-1.27299e-107
3.80935e-105
5.8683e-110
-1.16585e-110
1.78515e-107
1.24243e-112
5.09501e-114
-2.80483e-108
2.19858e-116
3.04777e-117
-4.23847e-112
1.58762e-119
-2.08665e-119
-1.0801e-114
8.56691e-124
-3.44625e-124
-6.66586e-119
9.39206e-127
9.38272e-127
1.17986e-123
9.77532e-129
7.22149e-130
-3.72915e-125
1.08773e-131
-5.70743e-135
-8.1249e-128
1.29172e-134
1.66345e-135
-7.71497e-131
9.88071e-139
3.40591e-139
1.60914e-136
6.12649e-142
-3.738e-143
-9.7477e-139
-7.90176e-146
-1.12239e-145
1.21192e-141
2.21316e-148
-4.10948e-149
-5.88751e-145
4.52142e-151
1.93386e-152
7.0783e-147
-9.44484e-155
-1.30242e-154
-5.20809e-150
6.39834e-154
-4.28203e-157
-1.01513e-152
-2.33982e-158
3.05892e-156
5.11902e-08
6.20779e-08
-1.98137e-08
9.04809e-09
-9.70531e-09
-3.66626e-09
2.25793e-08
1.13942e-07
1.67691e-08
2.30238e-08
1.83049e-08
4.31802e-08
3.96018e-08
4.08023e-08
3.94093e-08
-7.62935e-09
2.39592e-08
2.37693e-08
-9.04007e-09
4.87285e-08
2.23225e-08
-9.58708e-08
6.44278e-08
2.87602e-09
1.94232e-08
-2.19336e-08
-1.66506e-08
-5.6942e-08
-2.04931e-09
-5.07342e-09
2.6743e-09
1.81344e-09
1.18351e-09
-4.79697e-16
-9.1669e-17
-3.50398e-20
3.829e-18
5.3347e-18
-6.55625e-17
1.57523e-16
4.70337e-16
2.54658e-24
6.97199e-24
1.13866e-21
6.54931e-22
-6.37916e-21
3.06717e-21
-1.03602e-27
4.9294e-28
4.10898e-28
1.26186e-29
4.61878e-32
1.19176e-32
3.22489e-36
1.79872e-35
1.12407e-39
-3.52369e-39
4.6422e-43
-2.4677e-42
1.92926e-46
-1.30924e-45
8.01304e-50
1.49898e-48
3.31537e-53
-2.02243e-52
1.37071e-56
2.24313e-54
5.67247e-60
-2.39377e-57
2.34029e-63
-2.47505e-61
9.52379e-67
1.48394e-64
3.88503e-70
1.15387e-67
1.58037e-73
-1.02006e-70
6.49953e-77
2.47205e-74
2.73885e-80
2.74374e-76
1.08565e-83
1.20674e-80
4.58615e-87
-1.07358e-82
2.28966e-90
-4.60432e-87
1.60992e-93
-1.02781e-89
4.64507e-97
-3.24614e-93
6.12513e-100
-1.80262e-96
8.29897e-103
-5.7539e-99
3.15151e-106
-3.42884e-102
2.47927e-109
-1.54436e-105
1.99318e-113
-6.76314e-109
2.10468e-116
-1.05947e-111
4.39125e-119
1.3599e-115
2.07349e-122
3.55463e-120
7.66004e-125
-3.39884e-121
4.84196e-129
-1.34416e-127
2.19094e-132
3.19454e-128
1.23973e-135
1.23259e-132
9.49407e-138
-9.18221e-134
9.84914e-142
2.60916e-137
1.25814e-144
-1.01991e-140
1.61144e-147
-2.15169e-144
3.10024e-151
7.71579e-147
-2.89869e-154
-2.0625e-150
4.42524e-154
1.35392e-152
4.63689e-156
-2.11437e-09
2.7537e-09
-6.24314e-08
9.2766e-09
-6.46938e-09
6.58244e-09
-8.07979e-09
-7.06269e-10
-5.99575e-09
4.52425e-08
1.16695e-08
-4.24453e-08
5.3077e-08
5.70867e-08
-3.39941e-09
6.79982e-08
1.26467e-09
-3.51328e-09
-6.00425e-10
-2.69255e-09
-1.74644e-09
-2.10621e-08
-4.1802e-08
2.05364e-07
2.30779e-07
5.04674e-07
5.43909e-07
-1.10851e-07
7.72206e-09
-1.21819e-07
1.01961e-08
-1.61984e-07
-4.06164e-08
-1.51602e-08
-4.51418e-08
1.59624e-08
6.38566e-09
2.38852e-09
1.40404e-09
1.40295e-10
-4.27765e-10
-1.84097e-09
-6.64058e-17
5.50745e-18
-6.69055e-19
-2.32424e-18
6.74632e-19
1.32875e-16
3.25871e-17
2.63606e-16
5.07386e-23
3.96031e-21
-6.01755e-23
3.52457e-20
-3.61289e-20
3.64905e-20
-3.98576e-20
1.60738e-25
-1.75621e-26
-3.05143e-27
4.9657e-27
-3.28133e-27
-1.93062e-29
3.14571e-30
-1.04933e-29
-8.38478e-32
2.39629e-34
-4.09089e-33
2.01975e-36
9.34445e-38
-8.61818e-37
-2.3242e-39
7.08088e-41
-3.48929e-40
-4.80312e-42
5.07393e-44
-1.48402e-43
-4.46878e-46
3.5443e-47
-6.87789e-47
9.82768e-48
2.4715e-50
-2.86879e-50
-1.27471e-51
1.71706e-53
-1.1657e-53
-2.04031e-54
1.18761e-56
-1.52854e-57
1.1438e-57
8.19271e-60
-2.05752e-60
2.96159e-61
5.639e-63
1.42484e-64
1.35433e-65
3.86489e-66
-3.74932e-67
-2.79948e-67
2.64171e-69
-8.38681e-71
4.85948e-71
1.79985e-72
1.29605e-74
-2.32026e-74
1.22221e-75
2.44924e-77
-3.84022e-77
8.28016e-79
-1.46055e-79
1.17028e-79
5.59343e-82
2.83622e-84
4.2044e-83
3.76648e-85
-2.33107e-87
8.88473e-87
2.52749e-88
-2.08646e-89
4.79848e-89
1.69118e-91
-1.12222e-93
-1.48837e-94
1.12789e-94
6.7334e-95
-2.8286e-97
7.50408e-98
3.48979e-98
4.93547e-101
4.98153e-101
-7.27839e-102
-1.63228e-101
3.29977e-104
-1.25886e-104
3.5983e-105
2.18021e-107
1.99396e-108
5.66178e-108
1.43533e-110
1.8133e-111
1.56986e-111
9.41506e-114
1.84711e-114
2.20465e-114
6.16343e-117
-3.52583e-118
9.81785e-119
4.02852e-120
2.80109e-121
-1.02568e-123
2.62545e-123
-1.39961e-124
2.52377e-124
1.70609e-126
1.90707e-127
9.24214e-128
1.10556e-129
-1.19564e-131
3.08361e-132
7.15032e-133
1.29912e-133
9.81143e-135
4.60913e-136
1.97806e-136
-2.49521e-140
2.96102e-139
8.49305e-142
1.10981e-140
1.89743e-142
-3.10274e-143
-2.81387e-144
1.21502e-145
-5.06087e-146
-7.71621e-148
7.75931e-149
-6.17423e-152
3.0581e-150
4.40792e-152
-2.17457e-155
1.18793e-152
6.73704e-156
1.48525e-155
-1.83867e-07
8.71757e-09
-1.29997e-07
-8.07569e-09
1.55419e-08
-2.21473e-08
1.33369e-07
1.05117e-08
4.9569e-09
-6.11066e-10
1.14028e-10
6.45171e-10
2.02749e-09
-9.36141e-08
-2.32071e-09
-5.99897e-09
-1.23515e-08
-1.19169e-08
2.383e-07
3.66066e-09
-1.24754e-07
6.63499e-09
-1.27279e-07
1.03213e-08
-1.15304e-07
-3.42418e-07
3.58103e-09
1.89749e-08
1.46566e-09
1.03972e-08
-2.59739e-08
2.19043e-09
3.80214e-09
6.25036e-09
2.48995e-09
1.59891e-09
-1.48468e-08
-2.60196e-15
2.3102e-15
3.31862e-15
6.84994e-17
-2.78884e-15
-1.22717e-13
4.78281e-14
1.21845e-13
-2.78542e-14
-2.97159e-14
-9.54547e-15
-9.50414e-15
9.88774e-21
-8.34008e-19
-2.3496e-21
-6.75126e-21
4.70004e-19
2.35568e-20
5.62478e-19
-2.42208e-26
-3.69516e-22
-4.66069e-26
8.09329e-28
-1.27211e-25
2.18786e-30
1.73601e-30
-1.57844e-29
-5.66253e-33
2.86645e-34
-6.63708e-33
-8.42993e-36
3.93891e-38
-2.02171e-36
4.90606e-39
2.73678e-41
-8.61757e-40
-3.64091e-42
2.11589e-44
-3.46516e-43
-1.96898e-45
1.53744e-47
-1.40638e-46
4.79472e-48
1.10565e-50
-6.28338e-50
5.41475e-52
7.91113e-54
-2.44252e-53
-8.71972e-55
5.62088e-57
-2.18996e-57
2.0364e-57
3.97659e-60
-5.77833e-60
2.16401e-61
2.80018e-63
4.30802e-64
-6.94896e-64
1.96146e-66
4.20637e-68
-1.35537e-67
1.36973e-69
-3.44476e-69
6.16738e-70
9.53021e-73
-5.26405e-73
1.20421e-75
6.59908e-76
5.75417e-77
6.78438e-77
4.55113e-79
4.44246e-81
-1.78643e-80
3.1279e-82
-8.33398e-83
1.82349e-83
2.14215e-85
-5.22161e-86
1.03265e-86
1.46215e-88
5.90125e-89
-1.30174e-89
9.93678e-92
-2.81894e-92
4.37205e-92
6.73824e-95
-2.5674e-96
7.34216e-96
4.56083e-98
2.75042e-99
7.33941e-99
3.07854e-101
-2.22055e-101
8.73326e-102
2.07089e-104
-7.49662e-105
1.01141e-104
1.38871e-107
3.18765e-108
2.09214e-108
9.2873e-111
-1.84848e-111
1.09213e-111
6.19493e-114
-2.3892e-115
1.83127e-115
4.12304e-117
1.93762e-119
1.18689e-118
2.73321e-120
-1.21331e-120
8.75402e-121
1.80623e-123
9.902e-125
2.36539e-126
1.19146e-126
1.13634e-127
-1.46174e-127
7.83674e-130
8.11115e-131
-9.39754e-133
5.14416e-133
1.44822e-133
-3.41711e-135
3.37369e-136
-1.48415e-137
5.21718e-137
2.20476e-139
2.10947e-139
-1.47477e-139
1.43623e-142
-4.69311e-144
-3.77434e-144
9.33816e-146
-5.97757e-146
6.80043e-146
6.06759e-149
8.4667e-150
7.20012e-150
9.10715e-152
1.45756e-152
4.78305e-153
1.58562e-156
3.18522e-157
7.81795e-09
6.67848e-08
5.31187e-08
-3.15963e-08
-9.2911e-10
1.00375e-08
1.04707e-08
5.8482e-09
-4.27703e-09
-6.32358e-08
-1.1743e-08
2.16016e-07
1.34456e-08
6.38084e-09
-3.22499e-08
2.31222e-09
1.1689e-08
-1.49951e-08
1.18621e-07
-1.12341e-08
5.25923e-08
1.67847e-07
-1.26685e-08
-4.19963e-08
-3.10303e-08
-9.15599e-09
2.17135e-08
-3.74448e-09
2.01335e-07
1.83428e-08
2.59089e-09
-1.65424e-08
2.20604e-09
1.51942e-09
-8.95868e-09
8.32086e-11
-2.04976e-12
1.40729e-13
-5.84738e-12
8.80831e-13
3.10179e-14
-8.35998e-20
-8.80975e-18
1.81346e-19
6.64395e-18
-1.05137e-17
7.54221e-18
-9.12048e-18
-1.26645e-17
-4.72713e-18
-1.26224e-17
4.41984e-24
-3.833e-21
1.19192e-23
4.9195e-27
-1.79598e-24
8.37661e-28
-4.39629e-31
-8.08883e-28
1.7965e-31
3.4112e-33
-3.80313e-31
1.67225e-34
1.75256e-36
-1.83973e-34
7.26136e-38
1.14426e-39
-7.72316e-38
6.38439e-42
7.81427e-43
-3.1215e-41
5.40334e-45
5.34299e-46
-1.43085e-44
-1.77095e-48
3.63844e-49
-6.17103e-48
-7.16804e-51
2.46964e-52
-1.10966e-51
-8.03502e-53
1.67472e-55
-1.10119e-54
1.60494e-56
1.13496e-58
-5.99543e-58
-9.6144e-62
7.6786e-62
-2.58484e-61
1.81666e-62
5.18923e-65
-1.79771e-64
1.49502e-66
3.50046e-68
-3.43434e-68
-1.36904e-69
2.35717e-71
-3.1542e-71
2.6742e-72
1.58477e-74
2.57391e-74
-2.57786e-76
1.065e-77
-1.79242e-77
1.82072e-78
7.14243e-81
-1.85322e-81
4.7412e-82
4.78058e-84
2.82352e-84
1.93405e-86
3.20099e-87
9.82081e-88
-2.19081e-89
2.14208e-90
-3.14545e-90
7.688e-93
1.43051e-93
3.63521e-94
2.20803e-95
9.55388e-97
-1.28371e-97
6.03281e-99
6.36259e-100
1.65258e-100
4.48004e-101
4.22543e-103
3.39288e-104
-1.13407e-104
2.80645e-106
6.57003e-107
3.53237e-108
1.86202e-109
-3.64471e-110
2.44512e-110
1.23318e-112
-1.27862e-113
5.97581e-114
8.16012e-116
2.74334e-117
-1.09871e-116
5.38948e-119
-2.76392e-120
7.9385e-121
3.55096e-122
-1.62522e-122
9.81116e-123
2.33661e-125
2.52306e-125
1.62222e-126
1.53597e-128
1.17326e-129
4.11642e-131
1.00956e-131
-3.66574e-131
1.59281e-133
6.62996e-135
-1.01994e-134
-1.38224e-136
4.34492e-138
3.28157e-138
-2.16719e-140
2.84151e-141
9.4224e-142
-3.91963e-142
1.85522e-144
6.95969e-147
2.08309e-145
1.20888e-147
2.33653e-148
1.21059e-148
8.00512e-151
1.4135e-151
-2.68326e-152
-4.0654e-154
-1.61458e-154
4.74677e-09
3.73142e-08
2.70656e-08
-3.32069e-07
4.02986e-07
8.07331e-08
3.57664e-09
2.58134e-09
5.12511e-09
2.50469e-09
4.55256e-08
4.275e-08