/*--------------------------------*- C++ -*----------------------------------*\
| =========                 |                                                 |
| \\      /  F ield         | OpenFOAM: The Open Source CFD Toolbox           |
|  \\    /   O peration     | Version:  5.0                                   |
|   \\  /    A nd           | Web:      www.OpenFOAM.org                      |
|    \\/     M anipulation  |                                                 |
\*---------------------------------------------------------------------------*/
FoamFile
{
    version     2.0;
    format      ascii;
    class       volScalarField;
    location    "1.4";
    object      alpha.water;
}
// * * * * * * * * * * * * * * * * * * * * * * * * * * * * * * * * * * * * * //

dimensions      [0 0 0 0 0 0 0];

internalField   nonuniform List<scalar> 
7933
(
1.00867
1.0307
0.940759
0.812467
0.960521
1
-2.29558e-21
-1.0671e-18
7.84267e-17
5.05248e-18
1.27909e-20
9.55821e-25
8.39786e-29
3.10274e-32
1.26573e-35
5.23439e-39
2.12438e-42
8.80293e-46
3.66428e-49
1.44348e-52
6.32252e-56
2.64172e-59
1.12157e-62
3.95882e-66
1.58641e-69
8.17241e-73
7.75303e-76
1.1998e-79
4.95572e-82
5.14159e-86
6.23299e-89
5.32076e-93
1.85092e-95
5.80782e-98
1.2369e-101
3.17815e-105
3.22188e-108
1.60812e-110
1.57644e-114
9.51229e-119
1.45623e-121
6.06677e-124
8.26205e-127
2.38776e-129
2.4267e-133
5.31072e-136
8.72598e-140
5.69679e-144
4.16738e-145
2.26347e-146
1.05973
1.06023
1.10632
0.997349
0.991979
0.970557
-1.04195e-18
-6.60558e-17
-4.0744e-20
6.91155e-20
2.76316e-21
5.1937e-24
4.82474e-28
5.12533e-32
1.88395e-35
7.75827e-39
3.31029e-42
1.36902e-45
5.65603e-49
2.24056e-52
9.24016e-56
3.78364e-59
1.72784e-62
7.83127e-66
3.625e-69
2.23368e-72
6.93857e-76
2.23264e-79
3.13094e-82
8.01648e-86
5.03959e-89
8.61413e-92
9.80949e-96
1.49131e-98
4.42925e-102
8.57545e-105
3.11078e-108
2.08962e-112
7.90226e-114
4.9721e-117
8.7461e-121
9.9931e-124
6.86516e-128
1.32419e-131
2.27429e-134
3.34529e-137
3.72156e-140
9.79482e-144
2.63136e-145
1.88604e-146
0.87846
1.11506
0.955747
1.01119
0.993228
1.00677
0.0107818
-1.27308e-16
-2.19348e-19
-2.97037e-38
2.67933e-20
2.51325e-22
1.37662e-26
6.19148e-31
2.31338e-34
9.38304e-38
3.82316e-41
1.56681e-44
6.44299e-48
2.55548e-51
1.05491e-54
4.23027e-58
1.79008e-61
6.89872e-65
2.8902e-68
1.49442e-71
7.62041e-75
1.89002e-78
1.17939e-81
1.92303e-84
2.68876e-88
6.57506e-92
3.04592e-93
4.60898e-96
4.35907e-100
1.20903e-103
5.25303e-107
7.84642e-111
8.49972e-113
9.70849e-116
1.79776e-119
4.84723e-123
1.17297e-125
1.53849e-129
1.64482e-132
1.6027e-135
5.02098e-138
1.81498e-141
5.81135e-145
9.04244e-146
0.984593
0.985202
1.00061
0.994147
0.998828
1.00413
0.730526
-2.72318e-15
-4.20627e-19
2.00872e-19
4.40149e-20
1.50695e-21
2.13619e-24
9.68619e-29
1.41897e-32
5.5826e-36
2.28721e-39
9.46294e-43
3.85466e-46
1.56055e-49
6.38202e-53
2.58218e-56
1.18641e-59
4.83738e-63
2.39382e-66
8.41144e-70
2.95629e-73
3.56582e-76
1.70612e-79
2.64331e-83
6.23449e-86
8.87172e-89
1.97753e-92
3.08581e-96
1.06177e-98
1.65059e-102
7.13557e-106
7.85781e-109
4.57583e-111
2.00993e-114
3.39999e-118
8.64945e-121
8.71279e-125
1.91262e-127
2.20651e-130
5.87105e-134
2.26437e-137
9.61283e-141
6.21109e-144
2.49074e-145
1.08166
1.01095
0.984808
0.941581
1.11421
1.00871
1
-1.67031e-17
-1.17734e-18
2.53619e-16
4.62534e-19
1.84166e-21
4.10435e-24
6.36106e-28
6.78602e-32
2.42823e-35
9.99351e-39
4.13276e-42
1.70611e-45
7.04057e-49
2.88792e-52
1.20589e-55
4.86835e-59
2.02526e-62
8.15747e-66
3.69447e-69
1.43929e-72
7.24506e-76
3.53303e-79
1.90695e-82
1.65375e-85
2.50324e-89
7.73229e-92
1.14023e-95
2.12061e-99
1.71898e-102
6.36191e-105
3.97884e-108
3.04349e-112
6.7412e-115
1.08796e-118
2.0512e-122
7.31858e-126
3.69523e-128
1.3389e-130
4.45444e-134
4.48105e-136
2.80689e-139
3.01378e-142
3.05128e-145
1.0804
1.01543
1.01651
1.02119
1.08227
0.99966
1.00029
-1.074e-15
-1.72492e-18
2.01044e-16
6.41956e-19
1.60505e-21
3.22321e-24
4.76838e-28
5.55678e-32
2.01881e-35
8.33845e-39
3.47455e-42
1.43161e-45
5.99018e-49
2.44269e-52
1.00213e-55
4.10416e-59
1.75593e-62
7.16476e-66
5.24676e-69
1.3118e-72
5.48118e-76
5.37286e-79
7.61167e-82
9.74549e-85
1.11755e-88
2.8098e-92
1.55089e-95
2.56307e-98
5.54466e-102
3.28063e-105
5.86508e-108
6.07829e-112
1.52531e-115
2.70402e-117
1.03067e-119
4.71261e-123
5.81416e-127
2.0931e-130
1.78464e-133
4.2608e-137
9.99559e-141
5.27724e-144
2.72559e-145
0.711538
0.960146
0.950102
1.02057
1.02959
1.03693
0.994677
-4.15774e-16
8.27037e-18
1.72296e-19
4.18577e-20
1.56913e-21
2.40729e-24
1.13075e-28
1.55671e-32
6.09514e-36
2.49553e-39
1.02248e-42
4.19081e-46
1.7107e-49
7.65773e-53
2.8541e-56
1.22469e-59
4.71394e-63
2.6133e-66
7.92024e-70
3.09401e-73
1.64575e-76
4.26291e-79
6.44895e-83
1.1477e-86
1.62747e-89
2.61212e-93
2.11536e-96
7.09822e-100
1.77762e-102
4.84499e-106
2.0626e-108
1.4832e-111
1.67784e-114
1.2877e-118
9.63956e-122
4.13285e-125
4.54476e-129
5.70381e-131
8.48486e-135
1.10067e-136
2.9899e-140
1.3226e-144
2.65308e-145
0.999124
0.988588
0.969632
1.02954
1.0287
1.00053
0.565529
-1.16736e-18
-5.03202e-20
-6.31088e-33
2.76877e-20
2.80164e-22
1.75176e-26
7.08435e-31
2.62538e-34
1.0618e-37
4.30562e-41
1.74372e-44
7.12809e-48
2.91367e-51
1.15669e-54
4.83426e-58
1.98165e-61
7.50425e-65
3.02653e-68
1.73788e-71
1.26711e-74
3.4253e-78
9.51484e-82
2.51906e-84
3.91983e-88
8.59087e-91
5.22331e-94
8.91068e-98
6.99584e-101
1.75697e-103
2.31967e-107
3.96443e-110
3.12174e-113
2.67647e-117
6.00878e-121
6.51095e-123
8.68392e-126
3.92528e-129
2.58426e-133
5.78416e-137
2.79963e-140
1.01755e-143
2.75454e-145
4.00238e-146
1.06569
1.10854
1.00486
0.97841
0.992641
1.00296
8.10527e-06
-3.79636e-20
-2.59346e-22
7.22868e-20
3.25637e-21
5.32081e-24
4.25245e-28
5.0685e-32
1.89886e-35
7.80834e-39
3.24285e-42
1.33986e-45
5.54608e-49
2.27207e-52
9.18475e-56
3.81543e-59
1.52623e-62
6.40532e-66
8.36925e-69
1.52978e-72
4.73772e-76
2.07214e-79
8.49084e-83
4.16216e-86
5.19024e-88
1.41912e-91
9.85257e-96
2.60552e-99
2.28151e-101
4.84404e-105
4.54384e-108
3.81453e-112
8.03813e-116
1.06018e-117
2.09951e-120
3.38164e-123
5.86262e-127
4.40648e-131
1.3677e-134
6.44485e-138
5.36255e-140
1.76294e-142
4.52476e-145
3.72375e-146
1.02223
0.997219
0.979555
1
1.00457
1.00714
-8.97068e-22
-2.32234e-19
9.1211e-17
5.46368e-18
1.20704e-20
7.81528e-25
7.54351e-29
2.82289e-32
1.15644e-35
4.79004e-39
1.94004e-42
7.95093e-46
3.26281e-49
1.46817e-52
5.42332e-56
2.2133e-59
8.89905e-63
3.55764e-66
2.46294e-69
6.97032e-73
3.47244e-76
1.50899e-79
3.29682e-82
8.57493e-86
2.69909e-89
1.25176e-91
9.71565e-95
4.21851e-98
2.79267e-102
4.30705e-105
8.9552e-108
1.78638e-111
1.07803e-113
1.59802e-117
1.61928e-121
3.62416e-125
5.99684e-127
1.78435e-130
3.13759e-133
3.13915e-136
1.78199e-139
6.66029e-143
2.83331e-145
2.7793e-146
0.993571
1.10437
1
1.00889
1.01174
1.00023
1.60987e-10
1.49521e-16
5.95245e-17
1.14972e-17
1.20912e-19
5.84754e-23
5.06617e-27
2.49933e-30
1.83645e-33
1.28064e-36
8.80096e-40
6.04532e-43
4.14403e-46
2.83353e-49
1.93541e-52
1.3193e-55
8.97088e-59
6.09091e-62
4.12635e-65
2.78933e-68
1.88324e-71
1.26895e-74
8.52872e-78
5.72201e-81
3.82922e-84
2.55677e-87
1.70526e-90
1.1353e-93
7.54602e-97
5.00711e-100
3.31323e-103
2.18662e-106
1.44112e-109
9.48786e-113
6.23347e-116
4.08863e-119
2.67616e-122
1.74771e-125
1.13971e-128
7.41304e-132
4.81275e-135
3.1212e-138
2.01954e-141
1.04778e-144
1.08745
0.996207
1.06124
1.09447
0.993374
0.993323
4.44284e-09
1.33366e-15
1.31798e-18
9.11922e-19
2.48739e-20
4.59355e-23
6.50814e-27
1.55065e-30
1.11408e-33
7.99633e-37
5.5762e-40
3.87918e-43
2.69505e-46
1.8677e-49
1.29257e-52
8.92527e-56
6.14888e-59
4.23043e-62
2.90485e-65
1.98943e-68
1.36003e-71
9.27677e-75
6.31195e-78
4.2866e-81
2.90526e-84
1.96562e-87
1.32857e-90
8.96157e-94
6.02947e-97
4.04921e-100
2.71355e-103
1.81457e-106
1.21159e-109
8.06713e-113
5.35824e-116
3.5543e-119
2.35289e-122
1.55479e-125
1.02644e-128
6.76082e-132
4.44164e-135
2.91347e-138
1.90683e-141
1.01226e-144
1.00095
0.695912
1.00472
1.20848
0.816949
1.02072
0.0168276
1.16241e-12
1.55935e-15
1.13646e-18
4.52598e-20
1.93751e-22
7.29998e-26
2.34419e-29
1.35197e-32
9.53323e-36
6.83452e-39
4.81721e-42
3.38125e-45
2.3727e-48
1.66085e-51
1.16161e-54
8.09993e-58
5.6429e-61
3.91884e-64
2.71766e-67
1.88143e-70
1.29934e-73
8.95598e-77
6.18158e-80
4.24739e-83
2.91572e-86
1.99934e-89
1.36744e-92
9.32068e-96
6.34993e-99
4.31836e-102
2.93044e-105
1.98555e-108
1.34221e-111
9.05059e-115
6.09399e-118
4.10438e-121
2.75438e-124
1.84594e-127
1.23543e-130
8.24784e-134
5.49619e-137
3.65481e-140
1.46724e-143
0.95756
1.01793
0.977169
1.01372
0.987705
0.985367
0.731969
2.4675e-11
8.7375e-16
7.32872e-17
3.47969e-18
7.23885e-21
1.20273e-24
4.78291e-28
3.42739e-31
2.47819e-34
1.75438e-37
1.2361e-40
8.68836e-44
6.09061e-47
4.25925e-50
2.96954e-53
2.0634e-56
1.43102e-59
9.892e-63
6.81993e-66
4.69257e-69
3.21925e-72
2.20464e-75
1.50563e-78
1.0253e-81
6.96333e-85
4.7173e-88
3.1889e-91
2.15096e-94
1.44785e-97
9.72312e-101
6.51275e-104
4.35247e-107
2.90203e-110
1.93e-113
1.28333e-116
8.50478e-120
5.62048e-123
3.70431e-126
2.43856e-129
1.60145e-132
1.04973e-135
6.8637e-139
2.66465e-142
1.03943
0.877129
0.937878
0.971477
1.02568
1.02688
1.00001
2.87599e-11
1.43101e-15
1.77819e-15
1.92833e-17
5.97547e-21
2.90969e-24
1.30057e-27
8.5806e-31
6.4567e-34
4.75813e-37
3.4516e-40
2.49182e-43
1.79178e-46
1.28468e-49
9.17523e-53
6.52551e-56
4.62706e-59
3.26914e-62
2.30107e-65
1.61562e-68
1.13062e-71
7.88288e-75
5.48083e-78
3.79917e-81
2.62492e-84
1.80933e-87
1.24334e-90
8.51896e-94
5.82509e-97
3.97139e-100
2.699e-103
1.83027e-106
1.23858e-109
8.3609e-113
5.63099e-116
3.78318e-119
2.53454e-122
1.6946e-125
1.13031e-128
7.52017e-132
4.99394e-135
3.30733e-138
1.29708e-141
1.20294
0.996479
0.998129
1.01157
1.04469
1.00239
1.00048
6.72287e-11
2.68548e-15
3.08578e-15
3.64804e-17
7.23497e-21
2.44471e-24
1.32074e-27
8.9723e-31
6.69653e-34
4.92044e-37
3.56486e-40
2.57072e-43
1.84636e-46
1.32124e-49
9.42423e-53
6.69637e-56
4.74225e-59
3.34636e-62
2.35272e-65
1.6506e-68
1.15433e-71
8.04465e-75
5.59134e-78
3.87129e-81
2.67163e-84
1.84068e-87
1.26499e-90
8.66298e-94
5.91934e-97
4.03359e-100
2.74108e-103
1.85911e-106
1.25773e-109
8.48731e-113
5.71509e-116
3.83746e-119
2.56827e-122
1.71546e-125
1.14317e-128
7.59735e-132
5.04349e-135
3.34186e-138
1.3117e-141
1.10083
1.10862
0.963712
1.03262
1.01794
1.03242
0.986591
3.34059e-12
9.72445e-16
3.6229e-17
1.70946e-18
5.16721e-21
1.38284e-24
4.78144e-28
3.34536e-31
2.43543e-34
1.73e-37
1.22163e-40
8.60369e-44
6.04174e-47
4.232e-50
2.95432e-53
2.0551e-56
1.42706e-59
9.88295e-63
6.81816e-66
4.69588e-69
3.22499e-72
2.20891e-75
1.50934e-78
1.02763e-81
6.99078e-85
4.74548e-88
3.21113e-91
2.16762e-94
1.46008e-97
9.81151e-101
6.57666e-104
4.39986e-107
2.93431e-110
1.95412e-113
1.29905e-116
8.60925e-120
5.68998e-123
3.75381e-126
2.47078e-129
1.62298e-132
1.06411e-135
6.96878e-139
2.71608e-142
0.957597
1.0077
0.975177
1.01777
1.00073
1
0.565358
8.69559e-13
1.03571e-15
7.38933e-19
4.32541e-20
1.41274e-22
5.19906e-26
2.0082e-29
1.2114e-32
8.54112e-36
6.0963e-39
4.29414e-42
3.00675e-45
2.1057e-48
1.47299e-51
1.0284e-54
7.16466e-58
4.98359e-61
3.46106e-64
2.39682e-67
1.65697e-70
1.14323e-73
7.87732e-77
5.42042e-80
3.72134e-83
2.55128e-86
1.7462e-89
1.19212e-92
8.1206e-96
5.52623e-99
3.75259e-102
2.54404e-105
1.72184e-108
1.16266e-111
7.83304e-115
5.27749e-118
3.54075e-121
2.37276e-124
1.58766e-127
1.06051e-130
7.06382e-134
4.7e-137
3.12497e-140
1.25828e-143
0.72405
1.06909
0.987996
1.00636
0.989445
0.999605
4.99739e-05
3.73454e-15
3.9949e-18
1.05096e-18
1.90505e-20
2.69442e-23
4.14432e-27
1.31449e-30
9.53331e-34
6.87771e-37
4.83547e-40
3.38741e-43
2.36848e-46
1.65195e-49
1.15033e-52
7.99057e-56
5.53663e-59
3.83021e-62
2.64409e-65
1.82119e-68
1.2526e-71
8.59476e-75
5.88249e-78
4.02085e-81
2.74205e-84
1.86422e-87
1.26548e-90
8.57241e-94
5.79293e-97
3.90851e-100
2.63158e-103
1.7683e-106
1.18637e-109
7.94287e-113
5.30277e-116
3.53505e-119
2.35191e-122
1.56055e-125
1.03424e-128
6.84235e-132
4.51635e-135
2.9754e-138
1.95528e-141
1.03387e-144
1.04621
0.986693
0.977349
0.990583
1.00458
1.00774
4.7856e-10
1.32968e-16
1.93262e-17
7.0287e-18
6.59239e-20
2.5546e-23
2.80826e-27
1.45599e-30
1.06461e-33
7.55247e-37
5.25944e-40
3.65373e-43
2.53492e-46
1.75467e-49
1.21263e-52
8.3606e-56
5.75181e-59
3.95239e-62
2.71002e-65
1.85375e-68
1.26655e-71
8.63672e-75
5.87628e-78
3.99233e-81
2.70652e-84
1.8298e-87
1.23478e-90
8.31773e-94
5.59165e-97
3.75492e-100
2.51592e-103
1.68191e-106
1.12268e-109
7.47946e-113
4.97371e-116
3.30268e-119
2.18862e-122
1.44686e-125
9.54995e-129
6.29188e-132
4.13697e-135
2.71699e-138
1.77975e-141
9.63096e-145
0.995957
0.982028
0.988889
1.04797
1.0134
1.00116
7.92996e-11
-8.9848e-19
3.77326e-17
2.74802e-18
8.14494e-21
7.62536e-25
6.11596e-29
2.20561e-32
9.00986e-36
3.8001e-39
1.51219e-42
6.26901e-46
2.62347e-49
1.36817e-52
4.74119e-56
1.91557e-59
8.4085e-63
2.87846e-66
1.22969e-69
3.88565e-72
4.16023e-76
1.70947e-79
2.70501e-82
5.77988e-86
2.4673e-89
4.22168e-93
7.85134e-96
3.23032e-98
1.17506e-101
2.11076e-105
1.20087e-107
3.48371e-111
1.54441e-115
4.97324e-117
1.71907e-120
5.37711e-125
2.82721e-127
2.75733e-131
6.32585e-134
4.47892e-136
9.04948e-140
4.58243e-143
2.95732e-145
2.11267e-146
1.03158
0.979395
0.893335
1.02402
0.949792
1
5.21467e-09
-7.87384e-17
-3.25537e-20
6.25705e-20
2.87932e-21
5.60869e-24
4.89145e-28
5.19784e-32
1.91917e-35
7.88878e-39
3.27874e-42
1.63613e-45
6.94873e-49
2.48109e-52
1.01242e-55
4.1418e-59
1.86307e-62
7.26351e-66
3.6651e-69
1.17932e-72
7.78419e-76
2.24964e-79
7.20591e-82
1.37754e-85
1.71321e-88
1.43123e-91
1.26567e-94
2.77326e-98
1.69443e-101
9.13995e-105
1.11764e-108
5.22919e-112
2.25702e-113
1.79873e-116
1.23129e-120
1.55319e-124
5.41502e-128
1.66933e-129
8.62696e-133
4.93373e-137
6.97329e-140
6.87672e-144
2.85367e-145
2.73927e-146
1.06569
1.08867
1.00651
1.02702
1.0841
1.02834
0.0163123
-2.1188e-16
-2.06595e-19
-7.05463e-38
3.03841e-20
3.01377e-22
2.24726e-26
1.3528e-30
4.59821e-34
1.87376e-37
7.75811e-41
3.22159e-44
1.34207e-47
5.46846e-51
2.28688e-54
9.2773e-58
3.8999e-61
1.7226e-64
7.65646e-68
2.85081e-71
1.45147e-74
4.72343e-78
1.95267e-81
2.8124e-84
5.12122e-88
1.62858e-91
2.58428e-94
2.24372e-97
5.40378e-101
5.03384e-104
5.6054e-107
1.72622e-110
1.33092e-113
4.72125e-116
5.18041e-119
3.64162e-123
6.84098e-127
2.66022e-129
9.84055e-132
1.69566e-135
3.3875e-138
1.32814e-141
7.1279e-145
9.20917e-146
1.07891
1.05002
0.990061
0.998776
0.993853
0.997315
0.73248
8.94038e-13
7.08026e-17
2.03223e-19
4.31482e-20
1.4848e-21
2.14429e-24
9.91239e-29
1.43064e-32
5.62154e-36
2.30375e-39
9.45175e-43
3.85384e-46
1.57333e-49
6.41448e-53
2.5947e-56
1.07601e-59
4.89637e-63
1.84482e-66
8.00255e-70
2.93127e-73
5.73405e-76
3.6731e-79
3.62917e-83
5.36827e-86
4.14635e-89
1.52539e-92
2.53255e-96
3.53005e-99
7.28436e-103
6.55409e-106
9.62356e-109
7.15706e-113
1.06186e-114
4.21673e-118
7.3427e-121
6.57042e-124
5.5799e-128
3.41242e-131
9.34465e-134
5.21791e-137
2.6362e-141
6.2859e-145
2.24669e-145
1.01442
0.972105
0.983938
0.999694
0.961731
1.03519
1.00005
1.12361e-11
-7.24196e-19
2.61936e-16
4.43832e-19
1.80551e-21
4.01364e-24
6.252e-28
6.6724e-32
2.38353e-35
9.81687e-39
4.05936e-42
1.68178e-45
6.91267e-49
2.83501e-52
1.1669e-55
4.80769e-59
1.97716e-62
8.42288e-66
4.26705e-69
1.36508e-72
5.41988e-76
2.2005e-79
1.23591e-82
1.16126e-85
1.97422e-89
5.95237e-92
1.46981e-95
1.87819e-98
3.4612e-102
7.67675e-105
3.68449e-108
1.9162e-110
5.00639e-114
4.57782e-118
7.06711e-120
3.08024e-123
1.22033e-126
2.77936e-130
5.00414e-134
9.64758e-136
4.77381e-139
2.74151e-142
5.64121e-145
1.00607
1.02634
1.00091
0.958841
1.02171
1.0063
1.00048
2.91747e-11
-1.99032e-18
2.05832e-16
6.46501e-19
1.72305e-21
3.67716e-24
5.59009e-28
6.19922e-32
2.23212e-35
9.20852e-39
3.81262e-42
1.57515e-45
6.7027e-49
2.69272e-52
1.13718e-55
4.58907e-59
1.8614e-62
7.82697e-66
3.20125e-69
1.31722e-72
5.1089e-76
2.05865e-79
4.17071e-82
7.57356e-85
3.89215e-88
5.06431e-92
2.9359e-95
4.94306e-99
7.24104e-102
3.69326e-105
6.44402e-108
6.87156e-112
8.45909e-114
4.05229e-117
2.39684e-121
3.12521e-123
1.39253e-126
2.69616e-130
2.78658e-134
2.7635e-137
1.74889e-139
3.0293e-143
2.73655e-145
1.06405
1.08259
0.998605
1.03664
1.00839
1.02081
0.987806
1.31151e-12
8.1652e-18
1.71724e-19
4.25489e-20
1.58815e-21
2.39172e-24
1.10375e-28
1.54162e-32
6.04295e-36
2.47387e-39
1.01777e-42
4.16213e-46
1.69228e-49
7.5432e-53
2.8587e-56
1.18327e-59
4.88807e-63
2.06548e-66
1.1304e-69
3.31165e-73
1.89916e-76
3.82712e-79
4.85643e-83
1.09186e-86
4.18977e-90
1.6844e-93
1.9218e-96
7.87054e-99
1.75721e-102
2.76742e-106
1.55313e-108
4.86368e-112
3.81112e-116
1.03305e-118
1.11474e-122
2.1708e-124
1.06562e-127
2.97131e-131
1.99522e-135
2.5657e-138
1.9793e-141
1.84516e-144
2.51818e-145
0.867693
0.978849
0.987856
1.00544
1.00401
0.997675
0.56541
-1.15473e-18
-4.32079e-20
-1.26218e-32
2.77503e-20
2.8076e-22
1.75322e-26
6.95407e-31
2.57922e-34
1.04299e-37
4.22563e-41
1.71007e-44
7.01448e-48
2.83346e-51
1.13316e-54
4.71328e-58
1.98215e-61
7.38077e-65
5.88967e-68
1.97339e-71
1.17562e-74
8.03778e-78
1.09317e-81
3.67606e-84
1.29631e-87
1.75114e-91
3.22283e-94
2.11566e-97
3.4802e-101
2.22993e-104
5.65605e-107
1.48628e-110
2.39811e-113
1.75371e-115
5.41138e-119
5.31265e-122
7.1857e-126
9.68577e-130
3.81713e-133
1.30777e-136
7.58015e-140
3.38352e-143
2.80004e-145
5.24375e-146
1.0524
1.07807
0.992876
1.0098
0.985488
0.986668
4.16361e-05
-4.34848e-20
-2.57378e-22
6.38027e-20
2.98775e-21
5.25441e-24
4.36272e-28
4.93912e-32
1.83929e-35
7.55961e-39
3.14019e-42
1.28683e-45
5.30044e-49
2.18389e-52
8.81829e-56
3.69554e-59
1.46955e-62
6.12936e-66
2.41615e-69
9.77207e-73
4.08775e-76
1.66501e-79
6.47516e-83
2.62217e-86
3.1147e-88
1.19076e-91
1.0064e-94
6.06597e-98
2.94906e-101
9.87434e-105
3.39242e-108
3.34665e-111
2.4812e-115
1.81335e-117
3.02574e-121
2.82037e-125
3.08434e-127
5.49448e-130
5.65566e-133
2.87277e-137
2.42224e-140
4.18676e-143
4.37846e-145
3.09286e-146
1.05398
0.97463
0.996353
0.993189
1.00258
1.0092
2.50343e-10
-2.25499e-19
6.5693e-17
4.03563e-18
8.92023e-21
5.93365e-25
5.77773e-29
2.15443e-32
8.82054e-36
3.64748e-39
1.48469e-42
6.20393e-46
2.4919e-49
1.0119e-52
4.18622e-56
1.77609e-59
6.86148e-63
2.79014e-66
1.75842e-69
5.68291e-73
3.41784e-76
8.66033e-80
3.76016e-82
1.35242e-85
1.08347e-89
1.59974e-91
5.17655e-95
3.37656e-99
9.63823e-103
1.08635e-104
5.49235e-108
4.00427e-112
1.09536e-113
4.454e-117
1.73592e-120
4.13747e-123
8.661e-127
1.41687e-130
3.82494e-134
3.4653e-136
2.53515e-139
1.10359e-142
2.92918e-145
3.30761e-146
-2.51323e-18
0.996672
-8.13447e-18
1.00016
7.6587e-08
0.999452
1.65659e-07
0.000207629
1.00764
0.322001
0.979939
3.81182e-06
1.01084
0.323873
0.576537
0.990224
1
1.01503
0.578972
0.997892
1
1
0.995573
1.00022
0.982787
1
1
1.00001
1.00082
1.00847
1.00052
1.00259
1.00071
1.01178
1.00095
1.00143
1.01248
1.00019
1.00598
1.00184
1.00707
1.00055
1.00019
1.01183
1.00012
1.02932
1.00111
1.01311
1.00031
1.00001
0.994886
0.603162
1
1.00002
0.993523
0.610646
0.388677
1.01563
0.00154242
0.999477
0.390483
1.01468
0.0056678
-4.29632e-18
1
-1.13266e-20
1.00802
2.00826e-07
1
5.31907e-08
1.23933e-07
1
3.13652e-07
1.00125
1.25659e-07
1
3.46103e-07
3.89482e-06
1.01375
0.314991
0.998262
0.000923278
1.03219
0.31509
0.580067
1
1.00008
1.02349
0.578929
0.99734
1.00001
1.00022
1.00661
0.999998
0.996313
1
1.00885
1.00011
1.001
1.01313
1.00147
1.03918
1.00071
1.02275
1.00113
1.0023
0.997146
1.00087
1.00156
1.00165
1.01571
1.00041
1.00151
1.00715
1.00066
1.02481
1.00137
1.00039
1.00039
1.00045
0.969513
0.613109
0.992043
1.00014
0.997278
0.624295
0.390542
1.01458
0.00525951
0.995753
0.396278
1.01431
0.00382689
3.71909e-07
1.00002
8.9761e-08
1.00857
3.90688e-07
1
9.40585e-08
7.80448e-08
1
1.82954e-07
1.00023
-2.80916e-18
1
-2.5077e-17
0.000678878
1.02791
0.317426
0.985515
0.000269772
1.01947
0.318568
0.578497
1.00111
1.00008
1.02617
0.574122
0.997892
1
1.0002
1.00803
1
0.999704
1
1.00582
1.00013
1.00094
1.02048
1.00138
1.01889
1.00086
1.02228
1.00067
1.00209
1.01466
1.00078
1.00443
1.00136
1.02419
1.00001
1.00183
0.997815
1.00068
1.01993
1.00087
0.985822
1.00008
1.00036
0.988534
0.626547
0.999302
1
1
0.63331
0.395168
1.01418
0.00334035
0.988728
0.389694
1.01438
0.00217126
2.49707e-07
1.00005
5.81376e-08
1.00923
-1.21189e-17
1.00001
-1.60928e-20
0.994881
1.00228
0.984934
0.998918
0.993179
1.00189
1.00054
0.775315
0.764502
1.00021
1
1
0.773714
0.76494
-4.66802e-17
-9.0885e-21
-5.63129e-17
7.78004e-11
2.99216e-14
1.65989e-10
3.01144e-14
0.915599
0.893678
0.989875
0.995467
0.961553
1.00388
0.915903
0.979197
0.997932
0.977682
0.9158
0.990874
0.958649
0.981025
-9.97831e-17
-3.82729e-18
-3.25233e-17
3.40153e-09
5.13708e-13
8.75416e-07
5.12072e-13
0.992091
0.985546
1
0.812512
1.02366
0.991984
1.00246
1.0049
1.00864
0.963596
1.01021
1.00896
0.978161
1.00813
-9.69864e-16
0.551813
-1.77982e-14
0.016313
6.32867e-10
0.553397
5.15336e-10
1.01041
1.03823
0.987022
1.00025
0.995458
1.06338
0.97368
0.926599
0.987694
0.919659
0.998253
0.994631
0.928586
0.953102
-4.68183e-15
0.99304
-3.6541e-16
0.7324
6.54579e-08
0.986652
1.39955e-09
1.00775
0.98818
0.990573
1.05705
1.00505
0.999422
0.958439
1.00982
1.01026
1.01529
1.01042
1.01004
1.01519
1.00972
-4.43164e-17
1.00006
-4.54123e-20
1
8.86825e-09
1.00019
2.29847e-08
0.99227
1.04098
0.989013
1.02833
0.999077
1.03272
1.00686
1.00171
1.00511
0.995802
0.995152
1.00419
0.987871
1.00305
-1.7061e-15
1
-1.22803e-15
1.00061
2.37295e-08
1
9.31349e-09
1.04071
1.01897
1.03379
1.03183
1.02094
1.00778
1.03956
1.01243
1.01005
1.02969
1.03461
1.0106
1.02582
1.01051
-1.51035e-16
0.70152
-4.97383e-14
0.989806
9.41761e-10
0.702048
2.36398e-10
1.00423
1.03189
0.943402
1
0.998895
1.00038
0.955748
0.996991
0.998642
0.99921
1.00059
0.9991
1.00074
0.995965
-7.23521e-17
0.021405
-1.0644e-16
0.566338
3.5499e-10
0.0282534
6.00626e-10
0.996576
0.918797
1.00036
0.987885
0.995458
0.921936
0.993554
1.0005
1.00001
1.00727
1.00111
1.00005
1.00275
1.00034
-7.92821e-19
-1.94696e-18
-6.55802e-18
4.64155e-05
2.62714e-12
1.30636e-08
1.59053e-12
1.00238
0.981034
0.998089
1.00013
1.00367
0.980251
0.99794
0.841067
0.985685
1.00361
1.00415
0.984102
1.00472
0.843177
-6.72361e-17
-9.70907e-21
-5.0627e-17
2.01031e-10
3.09496e-14
5.39811e-11
3.06984e-14
0.995475
0.988913
1.00424
1.01436
1.00052
1.01189
1.00246
0.767555
0.763865
1.00243
1.0006
0.76777
1.00297
0.76245
1.87796e-13
4.00483e-10
1.87815e-13
1.63242e-10
1.87795e-13
4.41694e-10
1.87815e-13
0.973212
1.01316
0.915984
0.992149
1.01147
1.02043
1.00936
0.965743
0.993086
0.933655
0.933659
0.968437
0.992784
0.933276
2.07894e-12
1.86365e-06
2.06954e-12
4.18593e-09
2.07918e-12
1.70139e-06
2.07742e-12
1.03176
0.954011
1.00176
1.04576
1.00154
0.9579
1.00715
1.00328
1.00926
0.973742
1.02889
1.00279
1.00975
0.964612
2.85269e-09
0.553214
1.70056e-09
0.0170899
2.78005e-09
0.553
1.70056e-09
0.976222
1.05318
0.983274
0.976565
0.980172
1.06896
1.00761
0.922169
0.999146
0.90497
0.998599
0.921468
1
0.90497
7.87951e-10
0.981638
2.51946e-09
0.732792
7.10483e-10
0.985209
2.6929e-09
1.00848
1.0479
1.01144
1.00839
1.0138
1.01884
0.986973
1.00727
1.00992
1.00908
1.04642
1.00745
1.0096
1.00597
1.67365e-08
1.00031
3.94788e-08
1
1.67425e-08
1.00015
3.93622e-08
0.909878
0.9957
0.998818
1.03142
0.895326
1
0.954383
1.00272
1.00667
1.00503
0.994543
1.0034
1.00584
1.00857
4.05442e-08
1.00001
1.72218e-08
1.00058
4.05294e-08
1.00002
1.72063e-08
1.04309
1.00735
1.03966
1.00974
1.02116
1.02078
1.02895
1.00873
1.0122
1.02236
1.02738
1.00945
1.01165
1.0241
1.82517e-09
0.700874
4.59134e-10
0.987234
1.75556e-09
0.701273
4.55812e-10
0.998151
0.997083
0.982098
0.997865
0.96753
0.994977
0.997278
0.983923
0.999376
0.984304
0.99724
0.990336
0.999706
0.980567
1.09276e-09
0.0288495
1.52425e-09
0.565708
1.09276e-09
0.0266333
1.10074e-09
0.987904
0.95141
0.994331
0.999963
0.996586
0.996207
0.996599
0.997384
1
0.993479
0.998231
0.999673
0.998975
0.994074
1.1255e-11
1.98904e-08
5.98243e-12
6.2258e-05
1.13676e-11
1.87536e-08
5.98243e-12
0.999757
0.992771
0.997805
1.00603
1.00014
0.995846
0.996989
0.846224
0.980362
1.00419
1.00462
0.845116
0.981746
1.00406
1.96087e-13
1.17011e-10
2.85305e-13
5.0303e-10
1.96086e-13
1.22597e-10
2.78884e-13
1.00151
1.03058
1.01897
1.01627
1.00404
1.02082
0.995338
0.770263
0.761302
1.00364
1.0013
0.769584
1.00378
0.760341
3.21729e-14
1.83243e-10
3.23346e-14
-3.48972e-21
-3.47685e-17
-9.98875e-21
-4.60578e-17
1.03286
1.09887
1.00384
0.917798
1.0183
1.07863
1.03568
0.977296
0.992527
0.978808
1.0368
0.975571
0.993326
1.0065
7.45558e-13
1.17428e-06
7.45039e-13
-5.70472e-18
-1.099e-16
-4.25184e-19
-2.45034e-17
1.02786
0.999443
0.991875
1.07135
1.02094
1.0118
0.985866
1.01693
1.0111
0.954497
1.02343
1.01388
1.01187
0.997289
7.83157e-10
0.552914
5.20512e-10
0.0111549
-1.58903e-15
0.55113
-3.6381e-14
0.990707
1.06906
1.01414
0.962536
0.99193
1.06142
1.01467
0.98612
0.995182
0.957322
0.998706
0.942959
0.992536
0.96013
3.47947e-10
0.982326
1.25514e-09
0.731075
-5.50359e-18
0.991657
-1.14185e-15
1.0084
0.981932
0.994901
0.916645
1.0422
1.05368
1.01369
1.00838
1.01186
1.01495
1.03069
1.00787
1.01401
1.01158
8.86415e-09
1.00034
2.29466e-08
1
-5.98973e-17
1.00011
-6.77086e-21
0.908154
0.993072
0.957697
1.06557
0.946546
0.983279
0.958133
1.00109
1.00633
1.05758
0.999745
1.00117
1.00608
1.00565
2.37275e-08
1.00004
9.29695e-09
1.00027
-2.21155e-16
1
-1.26297e-15
1.01931
1.01656
1.00005
1.01234
1.03146
1.01912
0.966692
1.00891
1.0104
1.0253
1.01962
1.00819
1.01053
1.02055
9.31163e-10
0.70068
2.33287e-10
0.994114
-1.86901e-16
0.701136
-4.8358e-14
0.986531
0.999748
0.915328
1.00051
0.964231
0.995886
0.978232
0.982868
0.998665
0.975648
0.996029
0.983564
0.999841
0.978431
3.42799e-10
0.0244811
5.69636e-10
0.565208
-8.28996e-17
0.0202395
-9.91108e-17
0.98203
0.996151
0.99657
0.994874
0.983019
0.959767
0.998002
0.995393
0.995636
0.99334
0.993989
0.996334
0.996421
0.992574
2.29216e-12
1.15627e-08
1.40554e-12
1.82946e-05
-7.87728e-19
-2.46193e-18
-6.73843e-18
1.00049
0.989396
0.996406
1.00516
1.00321
0.97773
0.998248
0.851497
0.979174
1.00557
1.01042
0.850455
0.980028
1.00285
3.75252e-14
5.90073e-11
3.72391e-14
-1.77399e-21
-7.35333e-17
-1.06566e-20
-5.73925e-17
0.0655245
0.058873
-1.20345e-19
1.66934e-08
1.66934e-08
0.0643274
0.0613696
0.888249
1.00104
0.947235
0.99661
1.00065
0.94984
0.890063
0.157489
-3.16361e-17
0.246667
4.76152e-08
4.76152e-08
0.244455
0.153679
0.769625
1.00003
0.763994
1.00219
1.00127
0.768173
0.764227
0.071056
7.6587e-08
0.0653496
7.6587e-08
7.6587e-08
0.0748453
0.0629424
0.882556
0.996287
1.0019
0.943674
1.00111
0.947968
0.88033
0.163856
1.65659e-07
1.65659e-07
0.251777
1.65659e-07
0.245157
0.168275
0.528742
0.427571
0.0126907
2.16096e-06
0.432666
0.0165494
0.526849
0.973585
0.907118
1.0006
1.00374
0.937437
1.00044
0.974513
0.719363
0.0763823
0.970974
0.326072
0.074265
0.968913
0.712848
0.975462
0.933234
0.99199
0.940157
0.990825
0.96054
0.971998
0.535172
3.81182e-06
0.437578
0.0164546
0.440841
0.0144265
0.539723
0.973814
1.00782
0.980846
0.999943
0.963217
1.00007
0.978741
0.721308
0.327359
0.080869
0.971989
0.0743221
0.968668
0.711756
1.0047
1.0012
0.884289
0.577008
1.00132
0.883359
1.0036
1.00386
0.992347
0.998353
0.985461
0.995347
0.998241
1.00428
1.00285
0.986249
1.00019
1
0.987666
1.00006
1.00251
1.00694
1.01285
1.00931
0.997201
1.00905
1
1.0056
1.00585
0.576804
1.00096
0.87819
1.00148
0.879292
1.00664
1.00403
0.979926
0.989264
0.999726
0.990988
0.998168
1.00254
1.00286
1
0.982655
1.00035
0.986476
1.00049
1.0027
0.989675
0.998268
1
1
0.998168
0.999999
0.988971
0.972162
0.986234
1.0008
0.997938
0.939154
1.00119
0.960265
0.997989
1
1.0008
1.00051
1
1.00009
0.999191
0.926063
0.978608
0.9995
0.923154
0.989419
0.976616
0.925919
0.992097
1.00012
0.99917
0.999998
0.998186
1
0.994819
0.985607
1.00203
0.945816
1.00165
0.939155
1.00213
0.994928
0.999393
1.00068
1
1
1
1.00043
0.999937
1.00456
1.00345
1.00128
1.00093
1.00338
1.00126
1.00487
1.00431
1.00234
1.00956
1.01011
1.00098
1.00866
1.00403
1.00178
1.00007
1.00262
1.00063
1.00031
1.00297
1.0012
1.00849
1.01115
1.00941
1.00424
1.00974
1.02581
1.00759
1.0045
1.00135
1.00386
1.00139
1.00349
1.00181
1.00415
1.0043
1.00856
0.993583
1.00785
0.996267
1.00803
1.00329
1.00257
1.0012
1.00105
1.00288
1.00099
1.00301
1.00265
1.00118
1.00429
1.00045
1.00167
1.00397
1.00052
1.00155
1.00636
1.02395
1.00514
1.0131
1.02893
1.00495
1.00673
0.999659
0.999909
1.00114
1.00032
0.999867
1.00092
0.999071
1.00496
1.00197
1.00684
1.00536
1.00541
1.00782
1.00391
1.00154
1.00209
1.00382
1.00072
1.00412
1.00113
1.00126
1.00375
1.01192
1.03348
1.00478
1.03386
1.00491
1.00387
0.999408
1.00061
0.999602
1.00086
1
1.00107
0.999092
1.00308
1.0014
1.00065
1
1.00181
1.00075
1.00284
1.01058
1.02199
1.00242
1.01309
1.02205
1.00233
1.0104
1.00358
1.00083
1.00091
1.00027
1.00128
1.00063
1.00396
1.00709
1.03195
1.0116
1.00897
1.01192
1.0059
1.0083
1.00335
1
1.00262
1.00118
1.00225
1.00151
1.00369
1.01003
1.01022
1.01738
1.0022
1.01989
1.0021
1.01031
1.00369
1.0007
1.00158
1.00047
1.00171
1.00083
1.00369
0.999259
0.999956
0.964878
1.00004
0.999834
0.965944
0.999589
0.972666
0.873869
0.996042
0.996052
0.874839
0.9943
0.979794
0.999374
0.758185
0.999521
0.604678
0.753952
0.998734
0.999441
0.989979
1
0.999686
0.980864
0.999605
0.987731
0.98954
0.999051
1.00045
0.999828
0.964077
0.999972
0.965415
0.999116
0.964474
0.98716
0.916759
0.999302
0.879004
0.994922
0.960075
0.999046
0.607418
0.75029
0.998447
0.757135
0.998415
0.999062
0.800344
1
0.129802
0.389302
1
0.133529
0.800051
1.00532
1.01225
1.00156
1.01543
1.01214
1.00523
1.00299
0.729946
0.0487347
0.498373
0.00451277
0.0559846
0.491887
0.736669
1
1
1.00012
0.995103
1.00003
0.99897
1.00022
0.800389
0.389494
1
0.136643
1.00004
0.133699
0.801687
1.00649
1.015
1.01122
1.00423
1.01128
1.00531
1.0066
0.725683
0.0055257
0.0615434
0.496001
0.0600348
0.492274
0.7265
0.127176
0.287835
-3.49763e-20
4.65397e-08
0.291332
4.65397e-08
0.122993
0.769861
1.00024
0.651155
1
1.00045
0.769764
0.651716
0.0719736
-3.6207e-19
0.0199194
1.09581e-08
1.09581e-08
0.0692604
0.0235448
0.843316
1.00369
0.981177
1.00375
0.982376
1.00395
0.845283
0.126528
2.00826e-07
0.295544
2.00826e-07
0.293984
2.00826e-07
0.127405