/*--------------------------------*- C++ -*----------------------------------*\
| =========                 |                                                 |
| \\      /  F ield         | OpenFOAM: The Open Source CFD Toolbox           |
|  \\    /   O peration     | Version:  5.0                                   |
|   \\  /    A nd           | Web:      www.OpenFOAM.org                      |
|    \\/     M anipulation  |                                                 |
\*---------------------------------------------------------------------------*/
FoamFile
{
    version     2.0;
    format      ascii;
    class       volScalarField;
    location    "1.4";
    object      p;
}
// * * * * * * * * * * * * * * * * * * * * * * * * * * * * * * * * * * * * * //

dimensions      [1 -1 -2 0 0 0 0];

internalField   nonuniform List<scalar> 
7933
(
105.018
101.342
83.0364
111.915
102.327
99.5252
96.6868
93.0486
90.4036
87.7908
85.2324
82.7053
80.2052
77.748
75.3148
72.9085
70.5184
68.1599
65.8268
63.519
61.2194
58.9327
56.6776
54.4161
52.1792
49.9599
47.7434
45.5255
43.3252
41.1528
38.9742
36.8204
34.6952
32.5616
30.42
28.3107
26.2532
24.2321
22.2198
20.1977
18.2048
16.257
14.3111
12.3364
10.3905
8.49349
6.59622
4.69341
2.81169
0.939872
99.5159
104.596
14.1434
139.473
106.305
101.709
97.1629
93.4183
90.6316
87.9455
85.3359
82.7706
80.2684
77.7876
75.3324
72.9264
70.5237
68.1774
65.846
63.5228
61.2221
58.936
56.672
54.4165
52.1666
49.9408
47.7333
45.5284
43.3375
41.1536
38.9898
36.8353
34.6936
32.5548
30.4219
28.3165
26.2486
24.215
22.1973
20.195
18.2095
16.2607
14.3179
12.3551
10.3962
8.48126
6.58362
4.69006
2.81052
0.93947
135.208
154.16
89.1944
132.823
85.2274
102.85
98.2303
93.6043
90.7334
87.9979
85.3769
82.7844
80.2635
77.793
75.3419
72.9179
70.5423
68.2059
65.8775
63.5255
61.2245
58.9379
56.6576
54.4104
52.1697
49.9367
47.7206
45.5333
43.3435
41.1593
38.9953
36.8347
34.6733
32.5433
30.4347
28.3331
26.2497
24.2063
22.1953
20.1961
18.2159
16.2555
14.3021
12.3573
10.4109
8.48044
6.57866
4.69247
2.8162
0.939573
102.833
98.1915
97.8472
103.161
96.5579
102.752
99.4485
94.2475
90.4866
87.9395
85.3293
82.7866
80.2524
77.7771
75.3377
72.9208
70.5403
68.1974
65.8503
63.5276
61.2354
58.9394
56.6682
54.4135
52.1811
49.9479
47.7206
45.5391
43.34
41.1488
38.9957
36.8303
34.6684
32.5381
30.4406
28.3496
26.2558
24.2028
22.1977
20.2074
18.2259
16.2459
14.2852
12.3443
10.4153
8.48266
6.57899
4.69933
2.82194
0.935353
81.1493
92.2042
86.2912
95.0893
101.123
97.0233
98.6215
93.9672
90.2707
87.791
85.2301
82.7046
80.2172
77.751
75.3286
72.9181
70.547
68.1847
65.8271
63.5259
61.237
58.9388
56.6725
54.417
52.1895
49.9615
47.7306
45.5351
43.3272
41.1413
38.9902
36.8224
34.6659
32.5372
30.4422
28.3589
26.266
24.206
22.2008
20.2131
18.2232
16.2329
14.2646
12.3332
10.4125
8.48389
6.58586
4.71378
2.82971
0.933069
124.874
92.2973
93.4257
93.8506
110.721
98.8579
97.9939
93.4844
90.0018
87.6167
85.114
82.6316
80.1705
77.7293
75.3288
72.9241
70.5522
68.1856
65.8222
63.5185
61.2331
58.9327
56.6713
54.4266
52.1955
49.9765
47.7413
45.5293
43.3209
41.1343
38.9842
36.8165
34.6581
32.5387
30.4454
28.361
26.2773
24.2206
22.2053
20.2146
18.2175
16.2201
14.2518
12.324
10.4068
8.48786
6.60207
4.7371
2.83918
0.935833
166.842
117.857
102.891
96.5784
94.5976
98.0731
97.7316
93.0267
89.7339
87.4213
85.0103
82.5711
80.1499
77.719
75.3087
72.9117
70.5452
68.1906
65.8225
63.5049
61.2185
58.932
56.6703
54.4349
52.2011
49.9743
47.7472
45.5259
43.3228
41.1439
38.9779
36.8032
34.6511
32.5451
30.4482
28.3553
26.2823
24.2324
22.2069
20.2065
18.2098
16.2105
14.2468
12.3211
10.4021
8.48927
6.60797
4.73726
2.84513
0.945013
97.1203
103.911
100.806
97.4398
99.7105
97.1971
96.0655
91.8965
89.6898
87.3483
84.9623
82.5404
80.131
77.7059
75.2787
72.9087
70.5333
68.1761
65.8328
63.4969
61.2087
58.9269
56.6672
54.4357
52.1995
49.9793
47.7492
45.5242
43.3327
41.1491
38.9743
36.8003
34.6553
32.5518
30.4469
28.3447
26.282
24.2442
22.2128
20.2011
18.2051
16.2234
14.2603
12.3257
10.4007
8.49139
6.60637
4.72629
2.84348
0.949004
140.324
102.427
97.8377
98.4488
97.073
96.7768
94.9073
92.0387
89.7901
87.4198
85.0086
82.5751
80.1423
77.7101
75.2939
72.9085
70.5136
68.1607
65.8304
63.5059
61.2012
58.9194
56.6725
54.4318
52.2046
49.9791
47.7462
45.522
43.3269
41.1481
38.9623
36.8011
34.6741
32.5577
30.4394
28.3344
26.2798
24.2474
22.2165
20.199
18.2033
16.2309
14.2757
12.3261
10.397
8.49255
6.599
4.71458
2.83007
0.949836
101.641
94.9956
97.2384
96.3528
98.551
98.4014
95.7358
92.5184
90.0886
87.5899
85.1132
82.6268
80.1539
77.7306
75.305
72.9038
70.5157
68.1631
65.8268
63.5117
61.2015
58.9232
56.6764
54.4215
52.193
49.9755
47.747
45.524
43.3242
41.1501
38.966
36.8076
34.689
32.5616
30.4255
28.3172
26.2613
24.2405
22.2187
20.1972
18.2034
16.2456
14.29
12.3273
10.3901
8.49567
6.60219
4.7039
2.81752
0.940209
104.415
120.385
82.7424
104.516
99.0701
99.5209
96.6868
93.0493
90.4036
87.7908
85.2326
82.7053
80.205
77.7481
75.3147
72.908
70.5184
68.1599
65.8269
63.5187
61.2193
58.9328
56.6775
54.416
52.1791
49.9599
47.7433
45.5255
43.325
41.1527
38.9742
36.8206
34.6952
32.5614
30.4199
28.3106
26.2532
24.2321
22.2198
20.1976
18.2046
16.2571
14.3112
12.3365
10.3906
8.49352
6.59614
4.69339
2.81166
0.939934
102.065
107.559
13.7702
161.906
105.503
110.223
97.1553
93.4188
90.6315
87.9456
85.3359
82.7706
80.2684
77.7876
75.3324
72.9262
70.5237
68.1776
65.8458
63.5227
61.2222
58.9361
56.672
54.4165
52.1667
49.9409
47.7332
45.5284
43.3374
41.1536
38.9903
36.8354
34.6935
32.5548
30.4219
28.3165
26.2485
24.215
22.1973
20.1949
18.2095
16.2608
14.3178
12.3549
10.3962
8.48126
6.58339
4.69006
2.81073
0.939424
110.028
130.757
90.3918
129.642
111.963
102.445
98.0846
93.6053
90.7341
87.9978
85.3768
82.7844
80.2635
77.793
75.3419
72.9179
70.5423
68.2058
65.8775
63.5255
61.2244
58.9379
56.6574
54.4104
52.1698
49.9367
47.7206
45.5333
43.3435
41.1594
38.995
36.8346
34.6734
32.5433
30.4348
28.3331
26.2495
24.2063
22.1953
20.1961
18.216
16.2556
14.3019
12.3571
10.4109
8.48039
6.57851
4.69251
2.81619
0.939572
102.788
89.8211
95.8799
103.87
96.9463
100.055
99.4837
94.247
90.4872
87.9387
85.3293
82.7866
80.2524
77.777
75.3377
72.9208
70.5403
68.1971
65.8502
63.5275
61.2354
58.9394
56.6682
54.4136
52.1806
49.9477
47.7208
45.5392
43.3402
41.1487
38.9956
36.8303
34.6684
32.5381
30.4407
28.3496
26.2556
24.2028
22.1977
20.2074
18.2259
16.2458
14.2851
12.3444
10.4154
8.4827
6.57889
4.6994
2.82193
0.935202
65.5375
117.436
93.7106
93.6473
95.7328
100.058
98.653
93.9673
90.271
87.791
85.2301
82.7042
80.2168
77.751
75.3287
72.9181
70.547
68.1847
65.8271
63.526
61.2371
58.9387
56.6721
54.4171
52.1893
49.9615
47.7307
45.5351
43.327
41.141
38.9902
36.8224
34.6658
32.5371
30.4422
28.3589
26.2659
24.206
22.2009
20.2134
18.2231
16.2326
14.2645
12.3331
10.4124
8.48387
6.58578
4.71378
2.82969
0.933115
107.687
90.7162
93.4424
93.7729
96.7618
98.6158
97.9984
93.4839
90.002
87.6166
85.1139
82.6316
80.1707
77.7292
75.3288
72.924
70.5522
68.1857
65.8221
63.5185
61.2332
58.9325
56.6712
54.4266
52.1955
49.9766
47.7412
45.5292
43.3209
41.1343
38.9842
36.816
34.658
32.5387
30.4455
28.3609
26.2773
24.2206
22.2053
20.2146
18.2174
16.2197
14.2518
12.324
10.4067
8.48784
6.60204
4.73713
2.839
0.9358
123.482
116.513
99.0558
96.813
94.6955
97.7466
97.6732
93.0237
89.7344
87.4212
85.0103
82.5711
80.1499
77.719
75.3087
72.9117
70.5452
68.1905
65.8225
63.5049
61.2184
58.932
56.6703
54.4349
52.2007
49.9743
47.7472
45.5259
43.3229
41.1438
38.978
36.803
34.6511
32.5451
30.4481
28.3552
26.2823
24.2323
22.2069
20.2066
18.2098
16.2104
14.2468
12.3211
10.402
8.48925
6.60805
4.73736
2.84511
0.945132
112.614
102.61
101.87
96.8963
97.1422
97.2034
96.0466
91.8969
89.6898
87.3483
84.9623
82.5404
80.131
77.7059
75.2787
72.9086
70.5335
68.1759
65.8329
63.4969
61.2087
58.9269
56.6673
54.4357
52.1994
49.9794
47.7496
45.5238
43.3326
41.1491
38.9742
36.8002
34.6553
32.5518
30.4469
28.3446
26.282
24.2442
22.2128
20.201
18.205
16.2234
14.2603
12.3257
10.4006
8.49137
6.60636
4.72628
2.8434
0.949072
109.097
95.8412
97.8798
97.1439
97.1903
96.4111
94.9219
92.0391
89.7903
87.4198
85.0086
82.5752
80.1423
77.7101
75.2938
72.9087
70.5138
68.1606
65.8304
63.5059
61.2012
58.9193
56.6725
54.4317
52.2046
49.9791
47.746
45.522
43.3268
41.1482
38.9623
36.801
34.6744
32.5578
30.4394
28.3345
26.2798
24.2473
22.2164
20.199
18.2034
16.2309
14.2757
12.326
10.3969
8.49251
6.59895
4.71454
2.83013
0.949835
100.59
94.7136
95.9019
96.9275
98.3021
98.5133
95.7356
92.5189
90.0885
87.5899
85.1133
82.6267
80.1539
77.7306
75.305
72.9041
70.5157
68.1631
65.8269
63.5116
61.2014
58.9232
56.6764
54.4215
52.193
49.9755
47.7469
45.524
43.3242
41.15
38.9658
36.8076
34.6891
32.5613
30.4255
28.3173
26.2614
24.2405
22.2187
20.1972
18.2034
16.2455
14.29
12.3271
10.3901
8.49569
6.60206
4.70391
2.81758
0.940195
104.286
103.819
82.601
104.645
99.0089
99.5092
96.6864
93.049
90.4035
87.7907
85.2326
82.7054
80.2047
77.748
75.3147
72.9077
70.5183
68.1599
65.8273
63.5185
61.2192
58.9329
56.6774
54.4158
52.1791
49.9599
47.7431
45.5255
43.3248
41.1526
38.9742
36.8206
34.6952
32.5612
30.4198
28.3106
26.253
24.232
22.2198
20.1975
18.2045
16.2571
14.3112
12.3365
10.3905
8.49348
6.59599
4.69332
2.81157
0.939869
109.588
107.623
23.5387
84.0521
105.661
104.918
97.1616
93.4178
90.6314
87.9455
85.3358
82.7705
80.2683
77.7875
75.3323
72.9259
70.5236
68.1775
65.8455
63.5226
61.2223
58.9361
56.6719
54.4159
52.1668
49.9409
47.7329
45.5283
43.3375
41.154
38.9903
36.8354
34.6934
32.5543
30.4218
28.3164
26.2485
24.2155
22.1971
20.1948
18.2095
16.2608
14.3177
12.3542
10.3963
8.48137
6.58301
4.69
2.81084
0.939246
112.559
106.782
109.478
97.6405
101.775
103.134
98.1017
93.6053
90.7345
87.9978
85.3768
82.7843
80.2634
77.7929
75.3418
72.9178
70.5422
68.2056
65.8775
63.5254
61.2242
58.9378
56.6573
54.4104
52.1698
49.9365
47.7206
45.5332
43.3435
41.1595
38.9949
36.8343
34.6735
32.5434
30.4349
28.3331
26.2493
24.2063
22.1952
20.1959
18.216
16.2557
14.3015
12.3569
10.4109
8.48031
6.57842
4.69246
2.81613
0.93927
95.3742
98.787
114.354
99.7239
107.984
100.781
99.4901
94.2476
90.4865
87.9386
85.3292
82.7865
80.2523
77.777
75.3376
72.9207
70.5402
68.1969
65.8502
63.5273
61.2354
58.9393
56.6681
54.4138
52.1804
49.9475
47.7209
45.5391
43.3401
41.1486
38.9954
36.8303
34.6683
32.538
30.4406
28.3495
26.2555
24.2027
22.1977
20.2074
18.2258
16.2457
14.2848
12.3445
10.4154
8.48268
6.57879
4.69937
2.82179
0.934865
72.6012
91.785
85.2933
95.2986
102.18
100.099
98.6449
93.9673
90.2702
87.7913
85.2301
82.7041
80.2166
77.7509
75.3287
72.9181
70.5469
68.1846
65.8269
63.526
61.2371
58.9387
56.672
54.4172
52.189
49.9615
47.7308
45.535
43.3269
41.1409
38.9902
36.8224
34.6657
32.5371
30.4422
28.3588
26.2658
24.2059
22.2008
20.2136
18.223
16.2321
14.2647
12.3331
10.412
8.4838
6.58592
4.71375
2.82948
0.933023
98.3865
85.3766
93.0611
94.0465
96.1373
98.3313
98.0052
93.4841
90.0012
87.6168
85.1137
82.6316
80.1708
77.7292
75.3287
72.9239
70.5521
68.1858
65.822
63.5183
61.2333
58.9322
56.671
54.4271
52.1955
49.9765
47.7411
45.529
43.3209
41.135
38.9844
36.8158
34.6578
32.5396
30.4456
28.3608
26.2773
24.2205
22.2053
20.2147
18.2173
16.2193
14.2519
12.324
10.4065
8.48776
6.60205
4.73717
2.83799
0.935762
86.3451
123.167
100.72
96.7964
95.0502
97.2801
97.6843
93.0229
89.7339
87.4212
85.0102
82.571
80.1498
77.7189
75.3086
72.9116
70.5451
68.1902
65.8224
63.505
61.2185
58.9319
56.6702
54.4348
52.2006
49.9743
47.7471
45.5261
43.3232
41.1438
38.9778
36.8028
34.651
32.545
30.4481
28.3551
26.2822
24.2323
22.2068
20.2066
18.2097
16.2102
14.2467
12.321
10.4018
8.48918
6.60837
4.73709
2.84503
0.945132
223.087
106.49
96.0776
98.1391
97.6142
97.0439
96.0799
91.8967
89.69
87.3482
84.9622
82.5403
80.1309
77.7058
75.2786
72.9086
70.5337
68.1756
65.833
63.4969
61.2086
58.9269
56.6674
54.4356
52.1993
49.9794
47.7495
45.5237
43.3323
41.1491
38.9742
36.8001
34.6552
32.5517
30.4466
28.3445
26.2819
24.2441
22.2127
20.201
18.2049
16.2234
14.2603
12.3256
10.4005
8.4913
6.60631
4.72623
2.84341
0.949071
99.991
98.3313
99.5581
97.3011
98.5027
98.8324
94.9007
92.0389
89.7904
87.4196
85.0085
82.5751
80.1421
77.71
75.2938
72.9088
70.5139
68.1604
65.8306
63.5059
61.2012
58.9192
56.6724
54.4316
52.2044
49.9791
47.7459
45.5219
43.3267
41.1483
38.9622
36.8009
34.6751
32.5578
30.4393
28.3344
26.2799
24.2471
22.2163
20.1989
18.2034
16.2309
14.2756
12.3258
10.3968
8.49244
6.59885
4.71447
2.83026
0.949745
100.961
95.2994
97.1751
92.5708
98.3541
97.9713
95.7358
92.5187
90.0885
87.5898
85.1134
82.6265
80.1537
77.7306
75.3049
72.9043
70.5156
68.1631
65.827
63.5115
61.2012
58.9231
56.6764
54.4214
52.193
49.9753
47.7466
45.5241
43.3241
41.1499
38.9653
36.8078
34.6895
32.5609
30.4254
28.3174
26.2614
24.2404
22.2186
20.1971
18.2034
16.2454
14.2899
12.327
10.3901
8.49567
6.60188
4.70362
2.81757
0.940125
97.4334
101.902
98.8397
99.5241
97.4342
101.846
98.8418
97.8149
104.421
99.7789
105.241
97.6728
104.097
99.6601
100.174
99.3757
99.8804
102.303
100.201
101.697
99.886
99.8424
98.6972
98.7855
100.783
99.8504
98.5188
98.7797
98.5554
96.3447
97.7737
99.9967
98.5577
95.822
97.7574
97.9707
97.7036
97.6476
99.2177
97.9311
97.3853
97.6294
97.3391
97.1601
96.9087
97.7528
97.3197
96.9257
96.9117
96.997
95.6042
95.5045
97.2029
97.0072
95.4966
95.5734
95.969
98.2118
95.9763
96.4303
95.8797
98.0882
95.9428
96.416
99.0976
97.3707
98.5809
96.4028
99.106
97.3713
97.4294
101.903
98.8299
99.5092
97.4311
101.901
98.8612
97.7033
104.088
99.5882
104.867
97.7823
104.728
99.6218
100.203
101.712
99.8824
103.234
100.209
101.603
99.8922
99.848
98.4655
98.7774
100.895
99.8546
98.7644
98.7842
98.5143
95.713
97.7863
100.203
98.5535
95.5399
97.7668
97.9961
97.2834
97.7332
98.1375
97.9543
103.227
97.6278
97.4105
97.1071
96.907
97.2432
97.3369
96.838
96.9049
97.0049
103.174
95.5724
98.0864
97.0002
97.6707
95.5223
95.8702
98.0737
95.9182
96.1956
95.8776
98.0493
95.9216
96.4094
99.1103
97.3664
97.9371
96.4214
99.0987
97.3678
97.4364
101.911
98.8442
99.4989
97.4367
101.76
98.8344
97.8065
103.863
99.6871
102.047
97.7953
104.161
99.7637
100.225
101.678
99.8958
102.689
100.2
99.7023
99.8856
99.8591
98.7089
98.7843
100.811
99.8535
98.8061
98.7795
98.5285
94.6355
97.7963
99.4461
98.536
109.32
97.8071
97.9735
102.692
97.6988
99.1787
97.9885
104.286
97.6144
97.4397
96.8139
96.9091
97.4224
97.3607
97.1647
96.9038
97.0043
96.2885
95.4491
97.2053
96.9949
95.1446
95.4315
95.8732
98.0471
95.9295
97.4096
95.9496
98.0707
95.9601
96.4274
99.0949
97.3731
97.9821
96.4221
99.1252
97.3717
99.4292
103.403
102.307
99.0679
99.9249
103.478
101.011
100.004
99.3791
100.447
99.5324
100.445
99.9648
99.4042
95.0081
97.2432
95.4443
96.6871
95.0167
97.2433
95.4531
107.281
105.351
103.362
105.181
103.073
85.8362
109.287
102.075
101.652
108.187
109.802
101.391
104.222
102.117
95.5836
98.4372
95.8934
97.1578
95.5923
98.4106
95.9031
102.114
96.4658
98.8905
114.834
101.863
97.0072
98.7866
100.746
101.544
101.037
102.375
101.55
98.1393
100.973
95.8652
99.1597
95.9921
98.1097
95.8742
99.1179
96
98.1503
102.058
99.3905
96.6869
96.8217
100.746
98.7611
100.426
101.192
101.663
101.693
100.396
99.775
104.351
95.8939
99.0268
95.4946
99.4818
94.8049
98.9916
95.5025
97.1203
94.2648
101.236
95.7736
97.3234
93.2538
104.176
98.1763
98.3168
96.5898
97.2858
98.2886
96.6093
98.16
95.5077
97.8853
94.6783
98.6518
95.5179
97.892
94.6835
95.9949
92.5168
98.9745
106.912
100.553
90.5338
96.8752
98.1985
97.9441
99.5518
99.6477
98.0898
100.931
97.9452
94.6118
97.652
94.5741
97.9989
94.616
97.6798
94.5846
96.9238
96.9042
97.2468
94.7956
97.3725
97.1055
97.7662
98.1606
97.3845
98.8069
97.6192
97.3438
98.0745
97.8006
94.2728
96.7174
94.0563
97.7267
94.2819
96.7513
93.6643
97.4697
100.288
95.2844
97.2012
97.043
97.2078
93.9496
96.883
97.1056
98.1893
97.2004
97.0338
98.4247
96.7083
93.6082
94.7825
93.5725
96.0432
93.6143
94.6297
93.5798
97.0819
100.661
98.118
97.3862
97.0013
100.347
97.9819
96.8592
96.7813
98.2719
96.4271
96.7774
97.3608
96.8494
93.5823
95.0418
93.8714
94.9315
93.5899
95.0376
93.8792
98.097
96.6771
99.0047
98.8006
98.235
96.7495
99.0727
98.1034
97.8502
98.4794
98.4234
97.8754
98.4956
98.0845
94.2264
96.1727
94.6183
95.7357
94.2345
96.1728
94.6265
99.2751
105.607
101.038
99.162
99.4211
102.622
100.972
99.9799
99.4116
100.473
99.5116
99.9879
100.497
99.4148
95.0157
97.2444
95.4522
96.6867
95.0155
97.2451
95.452
102.943
84.8344
108.836
105.41
102.766
73.6271
106.186
101.961
101.394
104.069
110.098
101.93
101.392
104.303
95.5911
98.4607
95.9027
97.1579
95.5905
98.4408
95.9026
103.608
102.023
98.5336
101.375
101.999
101.178
99.3456
101.03
101.594
103.794
103.664
101.089
101.619
103.837
95.8726
99.11
95.9973
98.091
95.8724
99.1073
95.9972
96.9009
100.312
97.8131
106.451
109.195
101.336
97.3307
100.989
100.281
103.198
100.85
101.067
100.386
103
94.8194
99.1385
95.5004
99.4938
94.8629
99.0367
95.5012
96.9809
101.792
96.6422
95.8038
96.9892
96.6336
95.6629
98.0898
98.3035
96.6231
103.69
98.0584
98.2982
96.8674
95.5159
97.8919
94.6793
98.6509
95.5159
97.887
94.6792
100.234
95.2908
98.5388
95.8574
102.986
95.8827
96.7588
97.6188
97.9118
99.6267
101.097
97.5564
97.9422
99.0462
94.6122
97.6856
94.5824
98.0009
94.6127
97.6914
94.5824
97.8467
97.1972
97.752
94.8813
95.4443
96.483
97.3583
96.8904
97.3985
97.2228
97.327
97.0723
97.3595
97.2784
94.2796
96.7567
93.6626
97.6838
94.2787
96.7651
93.6617
97.0281
97.2722
98.1312
97.5171
99.1177
97.4983
100.599
97.1099
97.1001
98.1857
97.0505
96.9657
97.1004
97.8871
93.6095
94.612
93.5806
96.0861
93.6067
94.5461
93.5818
96.9444
100.09
97.9016
98.727
96.9434
100.114
97.7151
96.8708
96.7596
97.5567
96.3076
96.8687
96.6835
97.3837
93.5888
95.0341
93.8784
94.892
93.5886
95.0341
93.8784
98.1824
96.7328
99.0786
98.4941
98.2102
96.7418
99.2122
98.0994
97.8603
98.4927
98.8448
98.1069
97.8978
98.5022
94.2334
96.1728
94.6254
95.7359
94.2332
96.1727
94.6254
99.4823
104.729
103.788
99.014
99.654
103.938
102.177
99.9734
99.4037
100.506
99.5078
99.9654
100.538
99.4002
95.0164
97.2447
95.4526
96.6865
95.0076
97.2441
95.4436
105.868
92.9664
106.121
108.859
104.307
91.4277
108.797
102.474
101.397
104.191
118.727
102.347
101.391
105.917
95.591
98.4278
95.9036
97.1636
95.5815
98.4251
95.8945
101.881
99.514
99.0608
100.447
101.226
100.515
99.5455
101.306
101.7
102.687
103.19
101.212
101.721
102.284
95.8737
99.1136
95.9998
98.2223
95.8648
99.1421
95.9913
110.78
101.689
98.8975
101.203
108.847
99.8905
99.2139
100.194
100.047
100.334
100.707
100.109
99.9943
100.319
94.8748
99.1055
95.504
99.4527
94.8671
99.0278
95.4945
96.924
98.8648
95.5605
110.152
100.083
101.131
96.5193
98.1734
98.2638
100.565
100.014
98.1376
98.7553
99.4881
95.5177
97.887
94.6836
98.6145
95.507
97.8803
94.6777
100.368
95.1828
96.5961
105.37
103.104
112.656
96.5314
97.8682
97.8221
104.036
99.7405
97.8308
97.8398
103.675
94.6169
97.69
94.5845
97.9977
94.613
97.6636
94.5738
95.678
96.3078
97.2576
94.7519
95.0061
96.5852
100.109
96.9349
97.3241
96.7829
97.466
96.8967
97.3447
96.7702
94.2809
96.7593
93.6629
97.6923
94.272
96.7191
94.0586
100.354
97.2997
97.301
97.5107
100.394
97.1949
75.0952
96.9599
97.1362
98.2772
96.9631
96.7871
97.3019
97.9385
93.6098
94.5442
93.5815
96.0664
93.6059
94.6258
93.5725
97.1931
100.115
97.7148
97.6573
97.1009
97.1267
97.7965
96.8858
96.8551
97.3998
98.383
96.8965
96.6757
97.3746
93.5895
95.037
93.8795
94.9156
93.5818
95.0397
93.8719
98.2155
96.4717
99.3097
98.2367
98.0677
91.2423
99.3912
98.0769
97.8421
98.6733
98.1279
98.0165
97.8284
98.5256
94.2341
96.1724
94.6265
95.736
94.2258
96.1722
94.6184
99.3608
98.7869
98.0592
97.4421
98.0688
99.4249
98.7171
100.427
101.113
101.14
101.875
101.112
101.21
100.45
99.5581
97.9833
100.028
98.866
97.9882
99.9787
99.6841
99.986
99.5292
99.4068
100.448
100.429
100.007
99.4101
99.2883
97.4361
98.6862
98.0599
98.0612
99.3247
98.6917
100.494
101.904
101.175
101.086
101.123
101.162
100.625
99.6065
98.8646
97.9674
99.9198
97.9669
99.9297
99.7487
100.707
98.4392
99.7288
97.7506
98.4359
99.6764
100.734
101.666
108.481
101.38
104.801
103.135
101.377
101.628
101.046
100.015
101.156
99.7655
99.9712
101.177
100.997
101.989
103.864
101.369
103.985
101.382
104.285
101.942
100.647
97.6805
98.7159
99.6198
98.7128
99.6452
100.681
101.684
104.167
103.893
101.375
103.347
101.366
101.535
101.157
99.7886
99.6182
101.108
99.9367
101.19
100.742
100.858
101.186
100.508
100.178
101.206
100.499
100.883
100.106
102.126
99.904
100.16
102.653
99.909
100.206
100.167
100.164
100.115
99.8919
100.205
100.123
100.138
100.979
102.33
101.593
104.164
101.571
105.153
100.793
100.865
100.195
101.206
100.471
101.215
100.469
100.861
100.06
102.041
101.828
99.7614
101.635
99.9338
100.018
100.174
99.8921
100.16
100.142
100.184
100.137
100.175
99.6221
99.9167
99.6269
99.8518
99.923
99.6458
99.6783
99.7318
108.505
98.5284
98.3649
100.738
98.5067
101.905
99.6792
99.3656
98.7505
98.797
99.3666
98.6622
99.6118
100.566
102.158
100.286
97.9583
100.528
116.217
100.513
99.6061
99.853
99.8621
99.6542
99.9189
99.653
99.759
99.8133
98.4645
100.548
98.4996
100.845
98.5276
100.394
99.537
98.8238
99.3686
98.6535
99.3658
98.6649
99.7
98.2252
98.4609
98.1937
98.5496
98.465
98.1958
98.2576
97.0309
97.4806
97.9868
96.2117
97.2522
97.8101
96.9829
97.9086
98.0357
97.8988
97.7552
97.9973
97.8858
98.0064
98.0679
97.2732
98.3201
97.5347
98.2829
100.321
98.0462
98.2275
98.6569
98.4437
98.1781
98.4556
98.2094
98.2401
97.0408
96.1938
98.447
97.8267
97.575
97.813
97.3678
97.9219
97.7638
98.0223
97.8825
98.017
97.8936
97.9295
98.1469
98.0993
97.6646
97.9385
98.0574
97.6547
98.1444
97.8964
99.6352
97.8654
97.8101
98.9408
97.857
97.9434
98.3068
97.7379
97.7888
97.628
97.7294
97.7888
98.2963
98.0631
97.8916
97.9745
99.6165
97.8128
100.016
97.6955
98.1162
97.9605
98.0715
97.636
98.0683
97.7007
98.0912
98.016
97.5488
99.6852
97.8669
99.8866
97.8656
97.9911
98.2533
97.6308
97.8397
97.7856
97.7589
97.7875
98.3017
97.1879
97.4752
97.1585
97.3362
97.4286
97.158
97.2068
97.0902
97.1035
96.7802
97.2353
97.1144
96.778
97.0823
97.1909
97.2475
96.9743
96.9176
97.2645
96.9528
97.1978
97.5458
97.5179
97.3624
99.8361
97.3844
100.878
97.1916
97.1932
97.3286
97.4549
97.1461
97.4264
97.1574
97.2409
97.0408
96.9925
96.8564
96.7787
96.905
96.7671
97.0858
97.1854
96.9165
97.2576
96.945
97.272
96.9606
97.1927
96.7986
97.1005
96.6037
97.0076
97.1
96.6302
96.8123
97.2921
103.632
95.6342
95.6895
103.467
95.8046
98.5607
97.18
96.1084
96.2845
95.5232
96.0726
96.2985
97.1821
96.9567
97.211
97.0984
98.2422
97.0846
97.6139
96.9658
96.7969
97.0108
97.1081
96.6011
97.1007
96.6347
96.7948
97.2019
95.0677
102.264
97.1644
102.857
95.8036
97.8211
97.1618
95.5525
96.3677
96.2661
96.0122
96.2981
97.1369
96.5276
96.6249
96.0632
95.9385
96.6403
95.9815
96.5115
97.2834
97.9233
97.6264
98.1564
97.8965
97.6249
97.302
97.0511
96.2502
97.1685
95.9633
96.0404
97.1346
97.1829
96.8598
96.4159
96.794
97.1909
96.7837
97.2651
96.8722
96.545
95.9074
96.6441
95.975
96.6469
95.945
96.5402
97.3131
98.1095
97.8395
97.5984
97.8376
97.6246
97.3161
97.1045
95.962
96.064
97.0955
96.0617
97.1325
97.115
97.8548
97.7505
96.6537
96.4127
97.7064
96.6563
97.9177
97.9743
98.2279
99.3302
99.1062
98.2461
97.946
99.3413
97.721
96.7206
98.7209
97.379
96.7271
97.8028
98.6082
98.1174
98.5665
97.8504
98.4877
97.8715
98.4862
98.1329
97.7968
96.4007
97.678
96.655
97.6944
96.6519
97.7712
97.9929
99.1014
98.2475
99.3604
98.253
98.0104
99.354
97.6873
97.3736
96.7184
98.5681
96.7197
97.6627
98.5736
99.3323
98.6753
98.0595
97.429
99.3303
98.0619
98.6722
100.751
101.165
101.304
101.885
100.531
101.193
101.127
99.7565
97.9964
100.129
98.8602
99.5203
98.0067
99.9273
99.9878
99.5064
99.4146
100.505
100.508
99.9745
99.4162
99.3226
97.4292
98.6834
98.0651
98.0639
99.3187
98.6778
100.509
101.896
101.25
101.133
101.214
101.13
100.594
99.5367
98.8802
97.946
100.002
97.9739
99.9564
99.5796
100.659
98.8025
99.6
97.7379
100.688
98.8488
99.626
101.709
103.769
101.389
103.832
101.508
103.836
101.429
100.898
99.4824
101.116
99.679
100.587
99.9161
101.238
102.165
104.884
101.414
103.839
101.414
104.154
102.059
101.033
97.7606
98.9962
99.5237
98.9205
99.72
100.692
102.258
105.269
106.162
101.494
104.192
101.46
102.289
101.17
99.6097
99.9386
101.163
100.03
101.201
100.887
100.816
101.205
100.493
100.194
100.838
101.204
100.491
100.131
102.745
99.7622
104.373
99.8211
105.106
99.9492
100.336
100.15
100.166
99.886
100.182
100.138
100.168
101.008
103.634
101.677
104.787
101.667
104.386
101.041
100.788
100.192
101.158
100.426
101.183
100.479
100.76
99.5564
101.227
98.2458
99.8979
98.0007
99.8814
99.5851
100.447
99.8909
100.129
100.176
100.129
100.178
100.371
100.192
99.8887
99.663
99.8491
99.9019
99.9133
99.6745
100.83
99.7161
98.5313
98.8178
100.191
100.375
98.5052
99.2232
99.37
98.6503
98.7822
99.3357
99.3746
98.7027
100.833
100.922
100.307
102.429
100.403
100.095
100.656
100.499
99.8507
99.9528
99.6482
99.9319
99.6686
99.685
99.9894
98.8162
99.7173
98.5063
106.454
98.4969
100.132
99.163
98.7986
99.3596
98.6928
99.3717
98.6722
99.3269
98.2476
98.503
98.2167
98.5355
98.2385
98.4719
98.1857
98.0948
96.6312
97.8336
95.6521
98.2255
96.5473
97.8545
97.9665
98.0433
97.886
97.7515
98.0124
98.0489
97.9008
98.1044
99.1134
98.2299
97.1455
98.2575
96.5671
98.1055
98.2455
98.5756
98.4776
98.1923
98.4783
98.217
98.2493
98.0194
95.5593
96.3653
98.1114
96.409
97.934
97.9702
97.9679
97.7993
98.0574
97.9036
98.0797
97.9039
97.9723
98.1073
98.0719
97.6948
97.9474
98.1148
98.0776
97.65
97.9084
99.8165
97.9654
98.8789
97.9975
98.0386
98.3362
98.3245
97.7366
97.7926
97.6294
98.2814
97.7021
97.8136
97.6989
100.518
97.8483
113.65
97.84
99.1996
97.7373
98.1008
97.9745
98.0771
97.6344
98.0821
97.6928
98.088
97.9138
97.4457
107.896
98.5731
98.4165
97.7926
97.9546
98.3189
97.6033
97.8342
97.8373
97.732
97.8087
98.3176
97.2141
97.4508
97.1464
97.3302
97.2137
97.4652
97.1509
97.0408
97.0245
96.7448
98.5625
97.0131
96.9398
96.7588
97.2199
97.2536
96.9402
96.9032
97.2218
97.2628
96.9558
96.8932
97.3547
97.3483
98.1255
97.3679
97.7598
96.9341
97.2188
97.4594
97.4536
97.1434
97.4548
97.1534
97.2169
97.0868
96.8727
97.0899
96.7663
97.1265
96.7579
97.0792
97.1951
96.9031
97.2384
96.9531
97.2604
96.951
97.214
96.7884
97.0982
96.5364
97.002
96.7946
97.0938
96.544
97.2336
102.155
98.8247
98.0655
97.3225
102.286
97.9337
97.1508
95.6019
96.2338
95.5715
96.9504
96.1099
96.2338
96.9
97.3485
97.1055
97.8111
97.1035
98.1191
96.8274
96.7979
97.0012
97.0932
96.598
97.0893
96.5914
96.7918
97.1046
98.0265
106.354
96.1552
107.233
100.012
98.1238
96.967
95.5791
96.0776
96.1861
96.3095
96.2287
97.2011
96.4869
96.6407
95.9305
95.8904
96.5193
96.6354
95.9087
97.3292
97.7519
97.5935
98.0585
97.3257
97.7976
97.6112
97.1426
96.0685
97.1069
95.9063
97.1529
96.0525
97.1575
96.8896
96.243
96.6167
97.5212
96.6259
97.7476
96.8943
96.5206
95.9029
96.622
95.9584
96.6349
95.9731
96.5128
97.3307
98.061
97.6896
97.5837
97.7127
97.6045
97.3523
97.1316
95.9152
96.0362
97.1379
96.015
97.1416
97.1871
97.7848
97.6464
96.6531
96.4187
97.7782
97.6189
96.6556
97.9544
98.2541
99.3641
99.1066
97.9888
98.2712
99.3704
97.6828
96.7144
98.5627
97.3656
97.6618
96.7153
98.5652
98.1118
97.9729
97.8471
98.5426
97.8618
98.5191
98.0625
97.7858
96.4217
97.6107
96.6571
97.6125
96.6567
97.7824
97.9095
99.1017
98.3176
99.3738
98.2987
97.8693
99.3755
97.7156
97.3661
96.7197
98.5699
96.7177
97.7411
98.5666
99.2993
98.691
98.0676
97.4379
99.3193
98.0652
98.695
100.801
102.575
101.238
104.121
100.838
101.919
101.335
99.647
97.9356
100.071
98.8504
99.6382
97.9345
100.048
99.9627
99.5014
99.3762
100.55
100.537
100.043
99.3842
99.2819
97.4446
98.805
98.0634
98.0703
99.4271
98.7092
100.555
101.815
101.503
101.161
101.542
101.272
100.432
99.6625
98.8576
97.9555
100.071
97.9511
100.064
99.7347
100.935
99.0506
99.8225
97.8121
101.19
99.0634
99.6514
102.386
104.192
101.538
103.863
102.34
104.204
101.551
100.894
99.8919
101.175
99.7138
100.821
99.8726
101.186
102.372
101.349
101.382
102.655
101.383
103.196
102.339
100.864
97.8125
99.0847
99.6943
99.0312
99.5929
100.726
102.416
104.388
104.782
101.614
103.992
101.573
102.461
100.926
99.7355
100.096
101.154
99.9041
101.179
100.911
100.795
101.153
100.395
100.227
100.762
101.169
100.406
99.5932
98.5046
99.8936
100.142
99.6785
98.6376
99.8391
100.328
100.106
100.191
99.8979
100.301
100.145
100.173
101.41
102.669
101.825
104.466
101.745
102.209
101.528
100.794
100.211
101.16
100.435
101.176
100.396
100.808
99.6394
99.7474
98.8761
99.8405
98.8759
99.8341
99.6304
100.316
99.8983
100.139
100.172
100.183
100.171
100.292
99.3584
99.9526
99.6425
99.8605
99.457
99.9657
99.6612
104.609
98.76
98.5293
98.7263
99.5285
100.345
98.5418
99.578
99.3617
98.7003
98.7852
99.3062
99.374
98.7009
100.77
100.756
100.087
99.9509
100.235
100.61
100.51
99.4099
99.8601
99.9674
99.6566
99.969
99.669
99.4215
98.7194
99.1066
99.2097
98.5358
99.5043
98.5125
97.5129
99.3992
98.793
99.3765
98.7152
99.3797
98.7041
99.4013
98.2349
98.476
98.2414
98.5318
98.2396
98.48
98.1988
98.4189
100.527
98.1254
99.6207
98.131
100.005
98.1833
97.9775
98.0884
97.9148
97.7754
97.9754
98.0577
97.899
98.1925
100.322
98.8555
102.085
99.112
106.122
98.2651
98.3055
98.5453
98.5042
98.1983
98.576
98.1954
98.2776
98.5798
115.039
110.013
98.4172
118.839
98.2724
98.8584
97.9779
97.7802
98.1085
97.9242
98.0623
97.9143
98.0062
98.1212
98.0809
97.7095
97.9407
98.0964
98.0736
97.6473
98.0457
112.347
97.6922
110.457
98.0096
102.477
97.9166
98.2119
97.7509
97.8084
97.6176
98.2342
97.7565
97.8101
97.9067
99.3554
97.8858
107.022
97.8615
103.684
97.909
98.1397
97.9462
98.0716
97.6871
98.073
97.6491
98.1443
98.0424
102.15
111.244
98.0179
102.416
98.0867
98.1567
98.2571
97.615
97.7703
97.8355
97.7752
97.8194
98.2144
97.208
97.4575
97.1481
97.2862
97.2137
97.4774
97.146
97.1178
97.1141
96.8077
96.8757
97.1167
96.9223
96.7894
97.2158
97.2299
96.9627
96.9092
97.2194
97.2393
96.967
96.9481
97.4053
97.4431
96.9132
97.269
96.8298
96.9341
97.2114
97.4123
97.4672
97.1615
97.4446
97.1561
97.2498
97.1282
97.4574
97.296
96.7897
96.929
96.7871
97.134
97.2235
96.9113
97.2395
96.9585
97.2472
96.9556
97.226
96.7892
97.0913
96.4963
97.0079
96.7872
97.1016
96.4366
97.7966
107.293
96.7474
95.4482
97.7764
109.451
93.195
97.3516
95.7239
96.1557
95.4632
96.9224
96.5084
96.1581
97.1397
96.9704