/*--------------------------------*- C++ -*----------------------------------*\
| =========                 |                                                 |
| \\      /  F ield         | OpenFOAM: The Open Source CFD Toolbox           |
|  \\    /   O peration     | Version:  5.0                                   |
|   \\  /    A nd           | Web:      www.OpenFOAM.org                      |
|    \\/     M anipulation  |                                                 |
\*---------------------------------------------------------------------------*/
FoamFile
{
    version     2.0;
    format      ascii;
    class       surfaceScalarField;
    location    "1.4";
    object      phi;
}
// * * * * * * * * * * * * * * * * * * * * * * * * * * * * * * * * * * * * * //

dimensions      [0 3 -1 0 0 0 0];

internalField   nonuniform List<scalar> 
23698
(
1.41229e-09
1.46882e-09
-4.78081e-09
-2.63151e-09
3.12454e-09
-1.67065e-09
2.10491e-09
1.79206e-09
1.74876e-09
5.78123e-09
1.28566e-09
-5.84761e-09
-5.14013e-09
8.49412e-09
-3.97671e-10
-1.61302e-10
-4.25387e-10
-1.67957e-09
3.88517e-10
-2.81396e-09
-3.76632e-10
4.43451e-09
-5.00623e-11
5.79513e-10
-5.30317e-09
4.11403e-10
4.16568e-10
1.02854e-09
1.15178e-09
-3.81621e-11
7.11029e-10
2.73084e-10
1.40535e-09
-1.21971e-10
9.5791e-11
-6.36206e-11
3.03143e-11
-3.39841e-11
2.00072e-10
-1.6373e-11
-3.19591e-12
-3.60388e-11
-6.48264e-11
-6.67201e-11
1.37071e-09
-9.78586e-11
-3.43835e-11
-2.45975e-10
-2.51087e-10
-4.15783e-10
-4.22301e-10
1.37037e-09
-6.19162e-11
-1.12867e-12
1.37153e-09
-4.07588e-11
2.4232e-13
1.37193e-09
-2.60049e-11
-1.22196e-13
1.37325e-09
-1.64691e-11
-1.22813e-13
1.3747e-09
-1.03826e-11
6.3353e-14
1.37373e-09
-6.98842e-12
-4.58038e-13
1.37409e-09
-4.32731e-12
8.82072e-14
1.37443e-09
-1.94762e-12
-5.85015e-15
1.37499e-09
-1.72627e-12
-3.59155e-15
1.37447e-09
-9.64348e-13
-1.50451e-13
1.37394e-09
1.37422e-12
-6.00855e-13
1.37386e-09
-3.61272e-13
-1.58015e-13
1.37546e-09
1.70359e-13
-3.94935e-13
1.37503e-09
2.39787e-14
-2.26052e-13
1.37486e-09
-5.38887e-13
5.20375e-13
1.37484e-09
-1.37162e-13
5.59732e-14
1.3753e-09
-1.27337e-12
6.60524e-13
1.37553e-09
-1.9643e-12
1.74783e-13
1.3756e-09
-7.38258e-13
7.26917e-13
1.37577e-09
-7.15113e-15
-4.73106e-14
1.37534e-09
9.61733e-13
-2.96772e-12
1.37574e-09
-1.32005e-13
-3.06347e-13
1.37501e-09
-1.06491e-12
3.82811e-12
1.37534e-09
-1.00168e-12
2.90878e-12
1.37533e-09
-3.52387e-13
8.34724e-14
1.37636e-09
-3.07168e-12
2.08153e-12
1.37609e-09
2.10826e-13
1.14352e-13
1.37584e-09
7.22917e-14
-3.21552e-13
1.3753e-09
5.3806e-13
-4.5858e-14
1.37503e-09
7.43593e-13
-5.36292e-13
1.3775e-09
-4.4148e-12
1.35415e-12
1.37659e-09
7.00948e-13
1.12192e-13
1.37631e-09
1.92661e-13
1.34093e-13
1.37657e-09
-3.80036e-14
-2.37486e-13
1.37769e-09
2.41781e-12
-2.18476e-13
1.37605e-09
3.33218e-12
-1.63093e-12
1.37599e-09
-1.89066e-13
-9.92495e-14
1.37648e-09
-3.63351e-13
-2.85616e-13
1.3771e-09
-7.90377e-13
7.27965e-14
1.37685e-09
2.03106e-13
1.23317e-13
1.37635e-09
-2.46326e-13
5.92062e-13
1.28692e-12
-1.1531e-12
-5.22369e-09
-2.79619e-09
9.6796e-09
-1.87972e-09
5.39796e-10
1.67136e-09
-2.56783e-09
2.23639e-09
-1.03747e-10
1.79487e-09
3.06469e-08
-2.11921e-08
-1.1146e-08
-8.14854e-09
2.48429e-10
3.98289e-09
5.83747e-09
-1.92026e-09
3.99511e-11
-8.95034e-10
-5.29942e-11
-5.8943e-10
1.49751e-09
6.02041e-11
-8.72899e-10
2.51164e-10
-2.24351e-10
7.85881e-10
-1.88296e-11
1.17285e-11
1.89012e-10
9.94117e-12
-4.52793e-11
-2.12906e-11
-8.34138e-11
-6.71918e-12
-1.24018e-11
-1.49262e-11
-7.82159e-12
1.42249e-09
-1.00828e-10
-3.52908e-11
-2.45245e-10
-2.71067e-10
-4.03955e-10
-4.63959e-10
1.40507e-09
-4.40811e-11
-3.96499e-13
1.39543e-09
-3.11685e-11
7.90672e-14
1.38806e-09
-1.85863e-11
-2.57126e-14
1.38333e-09
-1.17035e-11
-1.56443e-14
1.38029e-09
-7.328e-12
-3.3849e-15
1.37809e-09
-4.7513e-12
-2.11289e-14
1.37675e-09
-2.9666e-12
-1.81162e-14
1.37644e-09
-1.84042e-12
2.11647e-13
1.37603e-09
-1.24116e-12
-5.97504e-14
1.37586e-09
1.5212e-13
-9.27638e-13
1.37423e-09
2.17309e-12
8.55327e-13
1.37466e-09
-8.11496e-13
4.87561e-14
1.37473e-09
1.535e-13
-2.62513e-14
1.37473e-09
8.87217e-14
-3.32079e-14
1.37549e-09
1.26709e-12
-2.53622e-12
1.37568e-09
6.56966e-13
-9.49586e-13
1.37551e-09
-1.14983e-13
-9.46134e-13
1.37468e-09
2.28315e-14
-1.10736e-12
1.37541e-09
-7.27698e-13
-6.93501e-13
1.37543e-09
6.42818e-14
-4.72063e-14
1.37538e-09
-5.91376e-13
1.65677e-12
1.3743e-09
1.77343e-13
8.22299e-13
1.37514e-09
1.43464e-13
-1.99044e-12
1.37548e-09
5.10849e-13
-1.79102e-12
1.37674e-09
-4.02058e-12
2.45899e-12
1.37666e-09
-3.54262e-12
6.10848e-13
1.3758e-09
1.22497e-12
-9.87109e-14
1.37622e-09
-2.30503e-13
-6.09045e-14
1.3767e-09
1.03211e-13
9.04029e-15
1.37709e-09
7.34037e-14
3.35892e-13
1.3751e-09
-1.28199e-12
-1.09141e-12
1.37556e-09
3.62006e-13
-7.71831e-14
1.37567e-09
1.94092e-13
-5.99294e-14
1.3754e-09
2.85443e-13
-1.39533e-14
1.37624e-09
9.05572e-13
7.07911e-13
1.37793e-09
1.18047e-13
1.55493e-12
1.37689e-09
5.26439e-13
3.57211e-13
1.3765e-09
-1.62867e-13
2.11414e-13
1.37663e-09
-1.74851e-12
8.52793e-13
1.37661e-09
2.8454e-13
-4.7785e-14
1.37652e-09
1.3104e-12
-1.45348e-12
-1.9999e-13
1.18219e-12
6.92908e-10
-5.42755e-10
1.10058e-09
-1.22578e-09
-4.47892e-10
-1.3088e-09
9.78571e-09
8.07809e-11
-8.10978e-09
-1.08956e-08
-5.02549e-11
7.29573e-09
-6.60617e-09
1.02563e-08
1.10615e-08
4.29812e-09
-1.12401e-08
-1.67937e-09
-1.6578e-09
5.64156e-10
5.32007e-10
-1.8786e-09
-7.56979e-10
2.02193e-09
-3.22552e-09
-1.81955e-10
2.14253e-09
2.60193e-10
1.06263e-09
2.11343e-10
9.09681e-10
-2.44385e-09
-9.49549e-11
1.86493e-12
-1.37117e-11
7.48168e-11
3.19848e-11
1.50187e-09
-1.03452e-11
-3.71684e-11
-2.70089e-10
-2.82767e-10
-4.56155e-10
-4.86998e-10
-1.58399e-11
-1.71281e-11
-2.61973e-11
1.44297e-09
1.61684e-11
-1.31292e-12
1.41812e-09
-5.97424e-12
-3.11131e-13
1.40129e-09
-1.6213e-12
-1.1524e-13
1.39132e-09
-1.64323e-12
-7.13972e-14
1.38519e-09
-1.15096e-12
-3.6084e-14
1.38124e-09
-7.80725e-13
-1.83601e-14
1.37872e-09
-4.42254e-13
-9.78295e-15
1.37721e-09
-3.14228e-13
-6.19593e-15
1.37634e-09
-3.85806e-13
2.94217e-14
1.37534e-09
-5.31549e-13
1.69805e-12
1.3759e-09
1.18241e-12
4.54655e-13
1.37551e-09
-3.22896e-13
-6.78891e-14
1.37551e-09
6.40333e-13
-4.62173e-13
1.37623e-09
-5.30644e-13
-6.69396e-14
1.37457e-09
2.05792e-13
2.75891e-12
1.37471e-09
-5.54387e-14
6.09917e-13
1.3748e-09
1.15074e-12
-1.3153e-12
1.37499e-09
-4.81662e-13
3.58249e-13
1.37458e-09
-4.34506e-14
-2.31086e-13
1.37463e-09
-1.00535e-13
1.65128e-13
1.37498e-09
4.08814e-13
-1.29482e-12
1.37641e-09
1.11637e-12
-2.31213e-12
1.37612e-09
4.91717e-13
-9.79173e-15
1.3771e-09
6.51039e-13
-1.06276e-12
1.37558e-09
-8.37293e-14
-2.35813e-12
1.37517e-09
3.61648e-14
-3.10503e-12
1.37615e-09
1.52485e-13
1.41741e-13
1.37619e-09
-1.33726e-13
-7.78477e-14
1.37642e-09
-6.30294e-15
-6.80739e-14
1.37635e-09
-6.95659e-14
2.64961e-13
1.37611e-09
-5.28458e-13
-4.55112e-13
1.37596e-09
1.91633e-12
-1.36189e-12
1.37539e-09
7.14081e-13
1.00355e-13
1.37549e-09
-4.25304e-14
2.68505e-13
1.37577e-09
5.13314e-13
1.43249e-13
1.37752e-09
-1.72991e-12
1.39807e-13
1.37754e-09
4.98642e-13
3.14936e-14
1.37713e-09
5.6543e-14
2.18195e-13
1.37643e-09
-3.1374e-14
-1.00235e-12
1.37616e-09
6.1136e-13
-4.08129e-14
1.37634e-09
3.2515e-13
8.13738e-13
-1.04902e-12
4.01508e-13
1.35941e-08
3.41999e-09
-1.27968e-08
-4.0263e-09
3.22272e-09
-3.56412e-09
3.4957e-09
-2.48609e-09
-2.26053e-09
2.99371e-10
3.81558e-10
9.11379e-10
5.959e-10
-5.34499e-09
-6.01586e-09
-8.07565e-10
-1.76798e-10
-1.00816e-10
3.31721e-10
-1.79328e-08
-6.31213e-09
-5.9188e-09
4.16819e-08
4.90536e-10
-6.8954e-10
-1.95888e-09
1.2521e-09
9.05792e-10
-2.77803e-09
2.94624e-09
-3.08446e-09
9.1004e-09
-1.98565e-09
-1.96391e-09
-1.45956e-09
-7.75025e-10
5.75274e-11
5.18286e-10
9.32707e-11
7.21665e-11
-7.41249e-10
-1.20344e-10
1.28178e-11
4.25037e-12
-2.92952e-11
1.32571e-10
-2.30555e-10
2.19336e-10
-1.58986e-12
2.46813e-12
1.43939e-09
3.46391e-11
-2.6195e-11
-2.67238e-10
-2.70557e-10
-4.43283e-10
-4.50578e-10
1.41746e-09
1.84927e-11
-2.53325e-12
1.40217e-09
1.31905e-11
4.77604e-13
1.39213e-09
8.37594e-12
3.05831e-14
1.38584e-09
5.13044e-12
1.94756e-14
1.38175e-09
3.33058e-12
-1.82737e-14
1.37899e-09
2.3321e-12
-2.77553e-14
1.37717e-09
1.55279e-12
-4.36659e-14
1.37614e-09
6.59902e-13
3.62294e-16
1.37554e-09
9.23076e-13
-8.39313e-13
1.3759e-09
7.43921e-13
1.12618e-13
1.37527e-09
2.15827e-13
1.10545e-13
1.37546e-09
6.95349e-14
4.1011e-13
1.37506e-09
-1.61695e-13
6.20667e-14
1.37539e-09
1.02993e-12
-1.11287e-12
1.37537e-09
4.07551e-14
-4.07293e-14
1.37537e-09
-2.89495e-14
1.21666e-12
1.37515e-09
8.1982e-13
-1.03373e-12
1.37527e-09
-1.02495e-13
-1.87211e-14
1.37543e-09
6.36658e-13
-8.43364e-13
1.37616e-09
1.2401e-12
-1.51155e-12
1.37534e-09
5.74169e-13
1.41622e-12
1.37553e-09
4.8923e-13
-1.2601e-13
1.3755e-09
3.92995e-13
3.38795e-13
1.37566e-09
-1.83433e-13
-5.637e-15
1.3758e-09
7.90368e-14
-1.24479e-13
1.37606e-09
3.70697e-13
-4.12562e-13
1.37603e-09
-9.40131e-14
4.21031e-14
1.37627e-09
-1.33276e-13
-5.64516e-14
1.37618e-09
1.27874e-13
-5.24959e-14
1.37565e-09
-3.00727e-13
3.52653e-13
1.37611e-09
-2.08259e-13
1.70693e-12
1.37676e-09
2.35924e-13
-1.25121e-13
1.37658e-09
2.03191e-13
-2.4585e-14
1.37675e-09
6.1059e-13
-2.28663e-13
1.37609e-09
-1.44733e-12
4.12711e-13
1.37686e-09
2.66907e-13
-5.12908e-13
1.37707e-09
5.03965e-14
-1.75708e-13
1.37698e-09
1.47554e-12
-1.39569e-12
1.3757e-09
1.89979e-12
8.12738e-15
1.37613e-09
-5.07642e-14
-4.52341e-14
-1.73255e-12
7.03086e-13
5.44961e-10
-6.50655e-09
6.39621e-09
-2.4365e-10
2.21139e-09
-1.31937e-12
5.57846e-10
-2.97413e-09
2.06212e-10
-2.23514e-10
1.91575e-10
-2.42057e-10
1.71032e-09
-1.43632e-09
4.64919e-09
-6.17846e-10
-9.43699e-11
-1.85284e-10
-3.69475e-09
-1.70851e-10
-3.64978e-11
1.50402e-10
-9.81924e-10
1.52942e-09
2.95589e-09
7.96125e-09
-1.14646e-08
6.47245e-11
5.52287e-11
-3.28005e-10
-5.39152e-10
7.47206e-10
-1.17065e-10
-9.85158e-11
4.75961e-11
-3.76864e-11
2.05672e-10
-4.026e-11
2.23925e-10
1.46597e-11
-1.0391e-11
-3.7478e-11
-7.56358e-11
-6.9856e-11
-4.96453e-12
1.4292e-09
6.28156e-11
-2.65139e-11
-2.71797e-10
-2.65292e-10
-4.52299e-10
-4.4148e-10
1.4084e-09
4.18895e-11
-2.61694e-12
1.39534e-09
2.58083e-11
4.32243e-13
1.38699e-09
1.69341e-11
-2.04086e-13
1.38334e-09
8.35101e-12
4.41364e-13
1.38057e-09
6.09885e-12
6.17574e-16
1.37776e-09
5.9073e-12
-7.73671e-13
1.37609e-09
4.17054e-12
-9.4078e-13
1.37554e-09
1.27486e-12
-5.64257e-14
1.37518e-09
1.22265e-12
8.12733e-14
1.37498e-09
8.07101e-13
1.59221e-13
1.37536e-09
6.40771e-13
-7.74797e-13
1.37504e-09
4.79907e-13
-5.73142e-14
1.37529e-09
-6.67966e-13
2.84354e-13
1.3756e-09
5.26452e-13
2.29376e-13
1.37544e-09
7.93516e-15
2.23875e-13
1.37542e-09
2.56125e-13
-2.16172e-13
1.37562e-09
-2.44297e-13
9.0193e-13
1.37568e-09
-8.23065e-14
-3.01135e-14
1.37575e-09
1.22558e-13
4.89509e-13
1.37504e-09
2.15323e-13
1.79556e-12
1.37524e-09
3.90019e-13
3.23772e-14
1.376e-09
-8.31421e-14
-1.34654e-13
1.37541e-09
1.66675e-12
-6.19727e-13
1.37556e-09
1.33231e-13
-4.13135e-13
1.37575e-09
-2.30377e-14
-3.45484e-14
1.37592e-09
-6.03038e-15
2.68849e-13
1.37596e-09
-6.81867e-14
-6.46189e-15
1.37614e-09
-3.23502e-13
5.87199e-14
1.37555e-09
6.70324e-13
1.0147e-13
1.37595e-09
-3.3477e-13
-3.14833e-13
1.37628e-09
-1.35212e-13
-3.58046e-13
1.37636e-09
2.61095e-13
-5.72113e-14
1.37668e-09
4.62843e-13
-5.42349e-13
1.37702e-09
2.37e-13
7.89945e-14
1.3762e-09
-3.96922e-13
-2.02997e-13
1.37674e-09
1.08904e-13
-3.53202e-13
1.37718e-09
-4.26789e-13
6.30534e-14
1.37721e-09
-1.3668e-12
2.83543e-12
1.37587e-09
3.28134e-12
-2.93765e-14
1.37607e-09
-7.45905e-13
5.06001e-13
-1.53301e-13
-8.26158e-13
1.30197e-09
3.01443e-09
-7.79721e-09
3.50577e-09
3.77165e-10
7.23239e-10
-4.79918e-10
6.81814e-10
-7.47744e-10
-1.76543e-09
-5.74516e-10
2.00368e-10
-2.75301e-10
-8.01366e-10
3.4012e-11
1.16222e-09
1.04301e-10
2.5691e-09
-1.70824e-09
-7.236e-10
-3.83829e-08
1.77228e-09
-3.17533e-08
6.95827e-08
2.29724e-09
1.5112e-09
-3.86066e-10
-9.48385e-10
-2.23241e-10
-1.92805e-10
-7.74892e-10
-6.84487e-10
-5.60109e-10
4.7502e-10
2.39909e-10
1.11293e-10
-5.27654e-10
-3.37012e-10
-3.83207e-09
-1.47953e-09
4.40593e-09
-1.91736e-10
1.0974e-09
-4.42023e-10
-5.90767e-10
8.49828e-10
1.39116e-09
-1.20819e-09
-1.61512e-11
-3.96164e-11
5.90073e-11
1.86707e-11
-2.19103e-11
-1.06592e-10
1.221e-11
8.71951e-12
-2.80109e-11
1.13673e-10
-3.46774e-11
2.08751e-10
1.45691e-11
-7.82903e-12
-1.47058e-11
-3.47354e-11
-6.56455e-11
-6.57275e-11
1.39018e-09
7.54165e-11
-2.55085e-11
-2.58471e-10
-2.58259e-10
-4.29833e-10
-4.30727e-10
1.38361e-09
5.10488e-11
-2.62159e-12
1.37925e-09
2.97463e-11
3.98887e-13
1.37792e-09
1.85069e-11
-2.37368e-13
1.37562e-09
1.11046e-11
-4.38001e-13
1.37477e-09
6.98777e-12
-2.05765e-14
1.37529e-09
4.61986e-12
7.64007e-13
1.3756e-09
2.94913e-12
9.07635e-13
1.37516e-09
1.73501e-12
-7.04941e-15
1.37502e-09
2.11843e-12
-7.34705e-13
1.37525e-09
7.72437e-13
-1.66844e-13
1.37466e-09
9.34657e-13
3.14148e-13
1.3756e-09
1.10375e-12
-1.53332e-12
1.37497e-09
3.74468e-13
-3.79281e-13
1.37523e-09
3.05188e-13
-4.18516e-15
1.37495e-09
3.36313e-13
-1.25004e-14
1.37487e-09
4.61864e-14
3.3379e-13
1.37584e-09
1.01642e-12
-2.18536e-12
1.37587e-09
-3.22958e-14
-3.79202e-14
1.37588e-09
1.63374e-13
-3.70055e-15
1.37582e-09
5.40463e-13
-2.06476e-13
1.37455e-09
4.33384e-12
-2.62568e-12
1.37495e-09
-3.99777e-13
-2.49489e-14
1.376e-09
-7.75365e-13
1.45077e-12
1.37583e-09
1.45334e-13
2.16934e-13
1.37575e-09
1.85641e-13
-7.30574e-14
1.37564e-09
8.71586e-13
-7.07667e-13
1.37572e-09
2.192e-14
-1.13163e-13
1.3757e-09
-1.3195e-13
-1.2416e-13
1.37638e-09
2.13134e-13
-1.69606e-13
1.37623e-09
-5.56173e-13
4.28661e-13
1.37671e-09
-6.94732e-13
1.25985e-13
1.3766e-09
3.0714e-13
1.08223e-13
1.37651e-09
5.39696e-13
5.24272e-14
1.37647e-09
4.0676e-13
-9.62951e-14
1.37597e-09
3.04236e-13
-1.58755e-13
1.37599e-09
-4.19919e-13
5.35846e-13
1.37581e-09
-1.31742e-13
-9.45001e-14
1.37581e-09
1.47171e-12
-2.8124e-12
1.37788e-09
1.11673e-12
1.02016e-13
1.37737e-09
-7.43652e-13
5.25508e-13
-8.47553e-13
1.83608e-12
2.45524e-10
6.31816e-10
-4.94363e-11
-8.02947e-10
1.30126e-09
-3.40025e-09
7.75722e-10
-1.67337e-10
1.49061e-09
-8.27e-11
5.32777e-10
-1.08483e-09
-1.07127e-09
1.70603e-09
1.13223e-10
4.05151e-09
7.09092e-09
-1.19794e-09
-4.28029e-10
-2.00645e-09
-7.69949e-10
-2.54698e-10
-7.70859e-09
-2.72437e-09
3.36315e-09
-8.02809e-09
-1.07848e-09
1.35947e-09
3.11734e-09
1.86372e-09
3.23674e-09
5.03786e-10
-8.06522e-10
-1.95933e-09
9.20723e-10
3.57825e-10
8.03237e-10
2.93483e-10
-6.71675e-10
1.05524e-10
-1.70547e-10
-6.09569e-11
7.97655e-10
-1.62628e-10
3.29023e-11
-7.46251e-11
4.83804e-11
1.55971e-10
-3.34435e-11
-2.23355e-11
1.80114e-10
2.26652e-11
8.45224e-12
-3.26922e-11
-6.23186e-11
-6.04413e-11
1.32914e-09
3.43815e-11
-2.27703e-11
-2.41569e-10
-2.3348e-10
-4.02257e-10
-3.88048e-10
1.34785e-09
3.41797e-11
-1.86974e-12
1.35844e-09
1.86618e-11
4.76824e-13
1.36487e-09
1.21126e-11
-3.59602e-14
1.36858e-09
7.40192e-12
1.53129e-14
1.37088e-09
4.69122e-12
8.3662e-15
1.37246e-09
3.01807e-12
3.00777e-14
1.37338e-09
2.03127e-12
-1.10193e-15
1.37384e-09
1.28025e-12
1.1727e-14
1.37446e-09
7.35453e-13
7.73592e-13
1.37501e-09
1.25711e-13
1.20976e-13
1.37526e-09
7.10493e-13
-1.14896e-15
1.37453e-09
2.67895e-13
1.59485e-12
1.37485e-09
6.36274e-14
2.26992e-14
1.37508e-09
4.09328e-13
-2.9683e-13
1.37532e-09
8.39316e-14
5.13564e-14
1.37543e-09
3.00901e-13
-3.2538e-13
1.37486e-09
-4.25619e-13
2.05884e-12
1.37514e-09
-1.84981e-13
-8.62787e-14
1.37556e-09
-3.59444e-13
1.53588e-13
1.37426e-09
4.2224e-12
-2.32776e-12
1.37583e-09
5.90877e-13
2.22203e-12
1.37595e-09
-4.92989e-13
3.54899e-14
1.37565e-09
-7.79235e-14
-3.44388e-13
1.37572e-09
8.16394e-14
5.48078e-14
1.37586e-09
9.47004e-14
2.50761e-15
1.37609e-09
1.47073e-13
5.53561e-13
1.37609e-09
6.7801e-14
7.91222e-15
1.37611e-09
-5.4744e-14
-3.82058e-14
1.37619e-09
-3.30236e-13
5.12085e-13
1.37619e-09
-4.04596e-14
-4.59935e-13
1.37655e-09
-1.32437e-12
3.14076e-13
1.37717e-09
-2.39393e-13
-3.07157e-14
1.37613e-09
1.46459e-12
1.6221e-13
1.37605e-09
5.60143e-13
-3.70778e-14
1.37594e-09
3.20393e-13
1.29927e-13
1.37595e-09
-2.85702e-13
-1.17102e-13
1.37583e-09
-6.43616e-15
1.37e-14
1.37628e-09
-7.05384e-13
1.75574e-12
1.37671e-09
6.65074e-13
3.41176e-14
1.37716e-09
-1.16886e-14
-1.17679e-12
-2.0636e-13
-1.2985e-12
-3.08728e-09
-6.02811e-10
3.46085e-09
-9.40324e-10
-1.06848e-09
-1.31259e-09
2.38088e-09
7.16798e-10
4.96123e-10
1.47795e-10
-5.54101e-09
8.6271e-09
-7.53728e-09
-1.4944e-10
7.39318e-10
5.09652e-10
2.66082e-10
1.24365e-09
1.0432e-09
1.12099e-09
1.35571e-09
-1.01713e-09
1.03051e-10
-7.63882e-10
5.52871e-09
-4.95705e-09
-7.50235e-11
-1.60726e-10
4.54203e-10
-4.94119e-10
1.05086e-11
-2.66656e-10
-7.0991e-10
-5.20923e-10
2.82976e-10
4.56905e-10
4.30616e-10
2.04852e-11
-3.06632e-09
2.68499e-09
2.12809e-09
1.48886e-09
-1.06863e-09
2.17071e-09
-1.7578e-09
1.49029e-09
8.71233e-10
-8.89975e-10
-7.28157e-10
-1.00299e-09
1.10846e-09
-2.44366e-09
1.68928e-10
-2.09755e-10
2.26113e-10
-1.69171e-10
-1.61163e-11
-6.54992e-11
-1.87947e-11
1.98065e-11
-6.28298e-12
7.07704e-11
1.2548e-09
6.97323e-12
-2.29844e-11
-2.06572e-10
-2.05172e-10
-3.48563e-10
-3.39595e-10
-2.43946e-11
-2.50799e-11
-4.40106e-11
-4.54006e-11
1.29586e-09
-6.02937e-12
-6.46826e-13
1.32839e-09
1.4352e-12
2.02562e-13
1.34616e-09
7.70136e-13
1.09696e-13
1.35718e-09
1.0608e-12
2.83941e-14
1.36378e-09
7.81105e-13
2.95234e-14
1.368e-09
4.84635e-13
3.30757e-15
1.37059e-09
4.49905e-13
-8.32137e-15
1.37215e-09
4.66231e-13
1.01778e-14
1.37332e-09
-1.21418e-12
1.34389e-12
1.37435e-09
-5.38594e-13
2.58302e-13
1.37396e-09
4.95674e-13
4.78917e-14
1.37468e-09
-3.11541e-13
3.28615e-13
1.37484e-09
1.04251e-13
2.36887e-14
1.37498e-09
-3.20324e-13
2.82183e-13
1.37494e-09
6.9897e-13
-2.17076e-13
1.37531e-09
-2.3359e-13
-1.74171e-14
1.37466e-09
-1.11873e-12
2.10604e-12
1.37488e-09
-3.97023e-13
-1.98591e-13
1.3746e-09
5.99154e-14
8.28104e-14
1.37438e-09
9.5745e-14
-1.85198e-13
1.37574e-09
4.05009e-13
2.51118e-12
1.37576e-09
7.35405e-13
-1.18927e-13
1.37654e-09
-3.42416e-12
2.21189e-12
1.37626e-09
1.73006e-13
8.49704e-14
1.37555e-09
1.09555e-12
-2.42075e-13
1.37566e-09
-4.5412e-14
7.88887e-14
1.37599e-09
-1.89679e-13
6.41692e-14
1.37607e-09
-3.82105e-13
4.32832e-13
1.37592e-09
-1.46512e-13
2.91044e-13
1.37634e-09
-2.05098e-13
-4.93048e-13
1.37658e-09
-1.78286e-13
-4.60836e-14
1.37614e-09
-3.03302e-13
-5.40112e-13
1.37566e-09
9.76274e-14
1.89824e-13
1.37658e-09
7.16147e-13
-1.29497e-13
1.37625e-09
8.96641e-13
3.16981e-14
1.37658e-09
2.04615e-13
-1.84051e-13
1.37629e-09
3.74512e-14
-2.77478e-15
1.37583e-09
4.76258e-13
8.39869e-15
1.3763e-09
-9.75288e-13
-1.86206e-13
1.37611e-09
6.12314e-13
2.62705e-13
1.37768e-09
-3.53793e-12
1.96589e-12
-2.83913e-13
-4.90118e-13
-1.81552e-09
3.81196e-09
-3.73212e-09
1.76064e-09
1.7166e-09
5.68159e-09
-7.53815e-09
-2.79349e-10
1.31633e-09
7.25303e-10
2.39874e-09
-9.00537e-10
6.66342e-10
-5.74402e-10
-3.21247e-09
5.48836e-10
5.11132e-10
-3.10491e-09
-1.48043e-09
2.95643e-09
1.4506e-11
-3.87585e-11
-5.6651e-11
4.88183e-11
7.12633e-10
-1.11588e-10
2.12617e-09
-2.65182e-10
2.79925e-09
2.62429e-09
2.51277e-09
1.43385e-09
4.45009e-10
-5.7744e-10
6.80491e-11
-7.53503e-10
-2.95782e-09
-1.00854e-09
-3.76193e-09
-4.46316e-10
8.14821e-10
9.25978e-10
8.31682e-10
1.31222e-10
-2.12585e-10
-1.22889e-10
-1.53606e-11
2.19609e-10
-3.2826e-11
2.01173e-12
-3.64511e-12
1.27684e-11
2.1691e-11
1.25957e-09
-7.70832e-11
-2.55181e-11
-2.13952e-10
-2.12885e-10
-3.65045e-10
-3.58103e-10
1.30084e-09
-4.71644e-11
-1.07903e-13
1.32883e-09
-2.64104e-11
-1.39181e-13
1.34594e-09
-1.61943e-11
-1.54694e-13
1.35668e-09
-9.67217e-12
-2.68148e-15
1.36331e-09
-6.07252e-12
2.21675e-13
1.3678e-09
-4.0049e-12
2.03701e-14
1.37052e-09
-2.23187e-12
-2.94163e-14
1.37195e-09
-7.89035e-13
-1.61381e-13
1.37328e-09
-1.19375e-12
-1.33166e-12
1.3738e-09
-7.74035e-13
-2.64414e-13
1.37459e-09
-1.26722e-13
-1.3986e-13
1.37444e-09
-1.03979e-13
-4.28349e-14
1.37452e-09
1.19505e-13
-6.68165e-14
1.37434e-09
-4.14405e-13
3.06874e-13
1.37472e-09
-1.09772e-13
4.60942e-13
1.37448e-09
7.86197e-14
-3.88924e-14
1.3754e-09
1.81108e-13
-2.17266e-12
1.37547e-09
-4.93777e-13
6.58673e-14
1.37526e-09
-4.09058e-13
7.30942e-13
1.37551e-09
-8.33388e-14
-2.58619e-14
1.37597e-09
-7.72711e-13
7.76389e-13
1.376e-09
1.31457e-13
6.25169e-13
1.37508e-09
-2.59578e-13
-2.18447e-12
1.37522e-09
2.6225e-13
-1.80964e-13
1.37598e-09
1.21291e-12
-8.19007e-13
1.37561e-09
1.80102e-13
2.03509e-13
1.37569e-09
3.74948e-13
-5.89105e-13
1.37537e-09
4.59998e-13
-4.68356e-13
1.37656e-09
-1.71548e-12
4.41467e-13
1.37661e-09
-2.3867e-13
2.95265e-14
1.37624e-09
1.00554e-12
-7.60595e-13
1.37635e-09
-2.8833e-13
-7.20762e-14
1.37672e-09
-2.28686e-13
2.9377e-15
1.37626e-09
2.27587e-12
-1.06451e-12
1.37632e-09
9.51693e-13
-7.68373e-14
1.37606e-09
4.69773e-13
2.46752e-14
1.37674e-09
-1.08155e-12
4.68255e-13
1.37712e-09
-1.79624e-13
3.02911e-13
1.37598e-09
4.30787e-13
-2.4054e-13
1.3764e-09
3.1918e-13
-1.18096e-13
1.37605e-09
8.52531e-13
-4.02314e-12
-1.97635e-12
-6.15272e-16
1.69327e-08
-1.63151e-08
7.94856e-11
1.12563e-09
-6.68951e-10
-9.44558e-10
1.51344e-09
3.28696e-10
-2.44021e-09
2.23156e-09
-9.2516e-10
3.0184e-09
1.10105e-09
7.10322e-09
1.70456e-09
-4.34959e-10
1.38305e-09
1.07225e-09
-5.06864e-10
1.7203e-12
9.70672e-10
-1.32672e-09
8.91464e-11
1.03996e-09
4.4874e-10
1.10224e-10
-1.01076e-09
-5.88167e-10
2.1525e-10
8.79082e-12
-1.64808e-10
-7.62406e-11
1.70055e-11
-3.19279e-11
3.04668e-11
1.87592e-10
-2.52981e-11
-1.00935e-11
-3.06364e-11
-6.1112e-11
-5.89905e-11
1.31894e-09
-3.177e-11
-2.3276e-10
-2.35683e-10
-3.97363e-10
-4.01736e-10
1.33592e-09
-7.23104e-13
1.34865e-09
2.33433e-13
1.35795e-09
2.40588e-13
1.36335e-09
2.04257e-13
1.36648e-09
-3.08798e-13
1.37051e-09
4.17906e-13
1.37222e-09
-3.15094e-14
1.37321e-09
-1.279e-13
1.3733e-09
-6.29158e-14
1.37423e-09
-2.41198e-14
1.37487e-09
-9.58383e-13
1.37535e-09
7.93982e-14
1.37373e-09
4.30122e-13
1.37451e-09
-4.93796e-13
1.37463e-09
3.64293e-14
1.37487e-09
3.13776e-14
1.37495e-09
3.47136e-13
1.37534e-09
7.96793e-13
1.37555e-09
-5.7902e-13
1.37543e-09
5.30592e-14
1.37586e-09
1.34933e-12
1.37601e-09
1.54071e-13
1.37573e-09
-1.87012e-12
1.37503e-09
-1.14375e-12
1.37558e-09
1.08011e-12
1.3758e-09
5.77514e-14
1.37577e-09
4.8728e-13
1.37643e-09
4.35727e-13
1.37565e-09
-7.67278e-13
1.37567e-09
-5.79455e-14
1.3766e-09
7.84003e-13
1.37639e-09
1.34238e-13
1.37657e-09
-3.4903e-13
1.37771e-09
1.25361e-12
1.3758e-09
-3.64488e-13
1.3764e-09
-1.22779e-13
1.37612e-09
-3.81373e-13
1.37644e-09
-2.83281e-13
1.37696e-09
6.0325e-14
1.37749e-09
-2.57669e-13
1.3763e-09
2.22837e-12
5.78834e-14
-9.11983e-10
-1.95657e-09
1.34541e-08
-4.0152e-09
-4.82271e-09
-3.2403e-09
-3.59587e-09
-6.77319e-09
1.44422e-09
-2.06729e-11
1.31413e-10
-1.64378e-08
1.15146e-08
-1.97693e-08
-3.71778e-09
1.46261e-08
8.73652e-10
-3.52811e-10
2.59198e-09
3.22563e-09
1.0296e-09
-2.97055e-09
5.41568e-09
-1.83451e-09
-3.68672e-09
1.43222e-09
1.83472e-09
-1.65855e-10
4.07643e-10
4.9098e-09
-5.2204e-10
-4.34315e-09
-6.65636e-10
-4.1631e-10
-7.84129e-10
-4.93347e-10
2.518e-09
2.16141e-10
-5.20905e-11
1.46139e-10
-2.07202e-10
-2.97871e-10
-1.47217e-10
-2.03799e-12
5.82955e-10
-3.28705e-11
3.53953e-12
-1.47794e-10
-1.52222e-10
-1.5348e-10
2.26842e-09
-1.57545e-10
3.44971e-11
-5.76207e-10
-5.83662e-10
-5.76205e-10
-5.83669e-10
2.27236e-09
-9.97299e-11
1.00504e-12
2.27907e-09
-6.57136e-11
8.96871e-16
2.28218e-09
-4.18925e-11
-2.67726e-14
2.28593e-09
-2.65253e-11
-5.09957e-13
2.28912e-09
-1.67365e-11
-4.32473e-13
2.28837e-09
-1.11622e-11
5.77169e-13
2.28926e-09
-6.93357e-12
1.7595e-13
2.28985e-09
-4.65564e-12
1.00296e-12
2.29085e-09
-2.80916e-12
-1.84947e-14
2.29023e-09
-1.81721e-12
-7.7369e-14
2.28936e-09
-1.22728e-12
-1.16927e-13
2.28943e-09
-6.09982e-13
-5.33488e-13
2.29167e-09
1.84264e-13
2.87827e-13
2.29094e-09
5.63486e-14
2.46746e-13
2.29083e-09
3.16486e-13
1.14962e-13
2.29087e-09
-2.00993e-14
-6.95719e-14
2.29143e-09
1.23886e-12
-5.44977e-13
2.29173e-09
-2.45791e-12
5.98666e-13
2.29204e-09
5.73732e-13
3.00967e-13
2.29234e-09
-1.53535e-14
-9.61637e-14
2.29131e-09
-1.14179e-12
1.48996e-13
2.29187e-09
-4.1566e-13
2.25105e-13
2.29084e-09
6.00459e-12
-1.66586e-12
2.29113e-09
4.78345e-12
-2.98615e-12
2.29153e-09
-5.9491e-13
-2.62343e-13
2.29314e-09
5.028e-13
6.93481e-13
2.2927e-09
4.21905e-13
1.12001e-13
2.29212e-09
6.00976e-13
1.04955e-13
2.29123e-09
7.90296e-13
3.74543e-14
2.29092e-09
-1.16806e-12
6.81463e-13
2.29434e-09
-5.15217e-13
-2.19879e-12
2.29337e-09
1.15028e-12
-1.33835e-13
2.29282e-09
3.79084e-13
-1.15651e-13
2.29326e-09
-8.30974e-14
-7.64562e-14
2.29494e-09
1.70779e-12
-8.60448e-14
2.29244e-09
3.84844e-12
-2.9672e-12
2.29252e-09
-3.68569e-13
-1.67977e-13
2.2929e-09
-1.0678e-12
2.65138e-13
2.29394e-09
-1.02517e-12
-9.32113e-14
2.2936e-09
2.23721e-13
1.9058e-13
2.2926e-09
7.12263e-13
7.15949e-13
-5.49709e-13
-4.58046e-13
-1.80778e-08
1.05436e-09
-5.54675e-09
2.12212e-08
-2.49213e-09
-9.74086e-10
2.96475e-09
1.61267e-09
-2.55342e-09
-1.78044e-10
8.2836e-10
2.72177e-10
5.19783e-10
-8.75792e-08
1.15623e-08
2.11125e-10
-8.39986e-09
-4.87035e-09
8.9076e-08
-9.9342e-11
-3.85877e-09
-5.91564e-09
8.80113e-09
1.34251e-10
9.3829e-10
-3.71141e-09
1.49645e-09
-1.7128e-09
1.79899e-09
-1.76711e-09
3.89588e-09
-4.86359e-09
1.53957e-09
-8.00961e-10
1.57886e-09
-7.32948e-10
3.27907e-09
-6.84376e-11
3.69909e-11
4.08304e-11
5.46786e-10
-1.03264e-10
-1.27616e-10
-8.18153e-11
-1.20252e-10
-2.77242e-11
-2.82186e-11
-3.43459e-11
-3.2935e-11
2.35124e-09
-1.78463e-10
3.50273e-11
-5.60632e-10
-6.39627e-10
-5.6067e-10
-6.39645e-10
2.32858e-09
-7.77394e-11
3.21881e-13
2.31775e-09
-5.46772e-11
-7.22241e-14
2.30839e-09
-3.25249e-11
1.85811e-14
2.30229e-09
-2.04151e-11
1.26929e-14
2.29829e-09
-1.27525e-11
3.11839e-14
2.29531e-09
-8.2398e-12
4.01787e-14
2.29353e-09
-5.15446e-12
1.93814e-15
2.29313e-09
-3.23593e-12
-7.819e-13
2.29259e-09
-2.29663e-12
6.47142e-15
2.29225e-09
-3.54207e-12
1.18989e-12
2.29003e-09
1.10808e-12
7.92023e-13
2.2906e-09
-1.09149e-12
2.27449e-14
2.29071e-09
1.38814e-13
-1.90816e-14
2.29064e-09
1.59415e-13
5.11204e-15
2.29174e-09
-5.24282e-12
2.00161e-12
2.29222e-09
-2.08356e-12
7.19252e-13
2.29177e-09
-5.82119e-14
8.98609e-13
2.29051e-09
-2.24339e-13
-1.98131e-12
2.29143e-09
-6.28067e-13
-3.06287e-13
2.29161e-09
-1.60274e-13
3.26443e-14
2.29112e-09
3.09272e-12
-1.9617e-12
2.28969e-09
-8.31826e-14
2.04122e-12
2.29126e-09
3.66282e-13
2.20157e-12
2.2918e-09
7.86973e-13
1.79893e-12
2.29362e-09
-2.98069e-12
3.14934e-12
2.2935e-09
1.21872e-12
1.46508e-13
2.29222e-09
1.31406e-12
4.06655e-13
2.29268e-09
1.65943e-13
4.50438e-14
2.29346e-09
2.26089e-13
-8.86914e-14
2.2939e-09
-4.78039e-13
-6.76801e-13
2.29109e-09
-9.55059e-13
2.26804e-12
2.29157e-09
5.83406e-13
1.1421e-13
2.29168e-09
2.94361e-13
9.93065e-15
2.29133e-09
3.72424e-13
-3.01694e-14
2.29271e-09
1.28806e-12
-1.8037e-13
2.29511e-09
-6.423e-14
3.13881e-12
2.29371e-09
2.09034e-12
-6.3922e-13
2.29322e-09
-1.55051e-13
-1.59415e-13
2.29325e-09
-1.2776e-12
1.10446e-12
2.29317e-09
4.56186e-13
-1.64363e-13
2.29309e-09
6.35793e-13
-1.27983e-12
-3.0223e-13
2.2904e-13
2.40771e-11
1.33986e-08
3.61627e-09
-1.927e-08
2.37854e-09
8.95156e-11
7.45467e-09
1.71482e-09
4.90398e-10
-2.68996e-09
-7.05944e-09
4.10367e-08
-3.21361e-10
2.69968e-09
-3.4969e-08
-2.37564e-09
-6.07381e-09
-1.24363e-09
-3.78039e-08
9.57879e-10
4.4142e-08
-2.70711e-10
-5.77744e-09
-3.62156e-09
-9.60438e-10
-5.3973e-10
8.47297e-10
1.82457e-09
2.44987e-09
5.67424e-09
8.0934e-10
2.21243e-10
-1.59434e-10
-1.6293e-09
-4.91608e-09
-8.20833e-11
-1.05856e-10
7.50443e-12
-9.74519e-12
5.04459e-11
1.39734e-10
2.49089e-09
-2.67833e-11
3.88411e-11
-6.34231e-10
-6.72982e-10
-6.34235e-10
-6.7271e-10
-3.88693e-11
-2.65957e-11
-3.88635e-11
2.39671e-09
1.37725e-11
1.41059e-12
2.35779e-09
-1.63506e-11
3.20826e-13
2.33179e-09
-6.71696e-12
1.23973e-13
2.31634e-09
-5.09548e-12
8.25487e-14
2.30689e-09
-3.37661e-12
5.53902e-14
2.30079e-09
-2.19423e-12
2.81568e-14
2.29692e-09
-1.29359e-12
2.74678e-16
2.29456e-09
-8.43848e-13
-2.4947e-14
2.29318e-09
-8.27658e-13
-1.11178e-14
2.29192e-09
3.9695e-13
-9.28912e-13
2.29238e-09
1.24965e-12
-8.80338e-14
2.29198e-09
-6.83866e-13
-1.6283e-14
2.29194e-09
-1.28495e-12
1.06927e-12
2.293e-09
-8.99275e-13
4.85679e-15
2.29054e-09
1.95738e-12
-1.89681e-12
2.29065e-09
-6.77817e-13
-8.16996e-13
2.29054e-09
-8.48177e-13
-3.25312e-13
2.29083e-09
-6.68924e-13
6.18372e-13
2.29007e-09
-5.28602e-14
5.93612e-14
2.28999e-09
3.78734e-13
-1.8133e-13
2.29106e-09
-3.90762e-13
1.24032e-12
2.29307e-09
-3.86754e-12
-4.18236e-13
2.2927e-09
1.01633e-12
-1.5693e-13
2.29438e-09
-2.66923e-12
8.39992e-13
2.29204e-09
1.20498e-13
-2.9962e-12
2.29115e-09
1.36394e-13
-9.99118e-13
2.29253e-09
7.02765e-13
-5.01284e-13
2.29277e-09
-1.36324e-13
1.074e-13
2.29294e-09
1.8701e-14
9.11682e-14
2.29291e-09
-6.53246e-14
-1.0632e-14
2.29244e-09
-8.04619e-13
-2.39017e-14
2.29199e-09
-1.15695e-12
9.39093e-13
2.29115e-09
9.70086e-13
3.52393e-13
2.29146e-09
3.67772e-13
5.11173e-14
2.29234e-09
9.92959e-13
-3.56834e-13
2.29463e-09
-2.38803e-12
2.37741e-13
2.29467e-09
1.85848e-12
2.89764e-13
2.2942e-09
7.95129e-13
-2.17923e-13
2.29291e-09
1.43732e-13
-1.09587e-12
2.29238e-09
9.05764e-13
6.49963e-14
2.29269e-09
5.05142e-13
6.51768e-13
-1.84743e-12
9.46139e-13
-1.3792e-09
2.60859e-08
-2.5482e-08
-3.29365e-08
2.6927e-08
-2.12713e-09
-6.03317e-10
-2.52042e-09
1.36083e-09
1.51962e-09
1.68982e-09
1.64294e-09
3.79598e-09
2.64223e-09
-1.22457e-09
2.93594e-08
9.7154e-11
-9.88038e-10
-2.47249e-09
-2.4768e-08
2.17848e-09
1.06584e-08
4.71254e-10
-1.71046e-09
-7.37679e-09
-4.22086e-09
4.15408e-10
1.0256e-08
1.64087e-09
-9.81519e-11
-1.16278e-08
-5.86304e-10
-1.5679e-08
-2.17967e-09
-1.15046e-10
-3.75173e-09
5.42396e-10
-2.26328e-08
3.00523e-08
-6.89472e-09
2.06587e-08
4.78331e-09
-1.96543e-10
-2.23326e-10
1.31649e-09
1.67127e-09
-7.3512e-09
-1.36852e-10
7.72147e-11
2.47411e-11
-4.72788e-12
-8.28888e-11
1.22513e-10
-1.6231e-10
6.53619e-10
-1.4752e-11
2.42577e-11
-1.99228e-11
-1.67537e-10
-1.66951e-10
-1.73181e-10
2.40503e-09
4.83109e-11
2.62564e-11
-6.18182e-10
-6.27798e-10