/*--------------------------------*- C++ -*----------------------------------*\
| =========                 |                                                 |
| \\      /  F ield         | OpenFOAM: The Open Source CFD Toolbox           |
|  \\    /   O peration     | Version:  5.0                                   |
|   \\  /    A nd           | Web:      www.OpenFOAM.org                      |
|    \\/     M anipulation  |                                                 |
\*---------------------------------------------------------------------------*/
FoamFile
{
    version     2.0;
    format      ascii;
    class       volScalarField;
    location    "1.4";
    object      rAU;
}
// * * * * * * * * * * * * * * * * * * * * * * * * * * * * * * * * * * * * * //

dimensions      [-1 3 1 0 0 0 0];

internalField   nonuniform List<scalar> 
7933
(
9.67536e-07
8.92361e-07
6.56683e-07
1.53105e-07
7.33049e-07
6.95021e-07
1.29269e-07
3.9242e-07
3.93663e-07
3.94697e-07
3.95731e-07
3.96763e-07
3.97795e-07
3.98827e-07
3.99857e-07
4.00887e-07
4.01916e-07
4.02944e-07
4.03972e-07
4.04999e-07
4.06025e-07
4.07051e-07
4.08076e-07
4.091e-07
4.10123e-07
4.11146e-07
4.12167e-07
4.13188e-07
4.14209e-07
4.15228e-07
4.16247e-07
4.17265e-07
4.18282e-07
4.19298e-07
4.20314e-07
4.21329e-07
4.22343e-07
4.23356e-07
4.24368e-07
4.2538e-07
4.26391e-07
4.27401e-07
4.2841e-07
4.29418e-07
4.30426e-07
4.31432e-07
4.32438e-07
4.33443e-07
4.34447e-07
4.36223e-07
8.75792e-07
8.72531e-07
5.74057e-07
6.53684e-07
5.98719e-07
4.02622e-07
1.29213e-07
3.92419e-07
3.93663e-07
3.94697e-07
3.95731e-07
3.96763e-07
3.97795e-07
3.98827e-07
3.99857e-07
4.00887e-07
4.01916e-07
4.02944e-07
4.03972e-07
4.04999e-07
4.06025e-07
4.07051e-07
4.08076e-07
4.091e-07
4.10123e-07
4.11146e-07
4.12167e-07
4.13188e-07
4.14209e-07
4.15228e-07
4.16247e-07
4.17265e-07
4.18282e-07
4.19298e-07
4.20314e-07
4.21329e-07
4.22343e-07
4.23356e-07
4.24368e-07
4.2538e-07
4.26391e-07
4.27401e-07
4.2841e-07
4.29418e-07
4.30426e-07
4.31432e-07
4.32438e-07
4.33443e-07
4.34447e-07
4.36223e-07
2.36751e-07
5.85802e-07
7.03054e-07
8.9032e-07
6.28145e-07
6.90348e-07
3.55556e-08
3.92284e-07
3.93662e-07
3.94696e-07
3.9573e-07
3.96763e-07
3.97795e-07
3.98827e-07
3.99857e-07
4.00887e-07
4.01916e-07
4.02944e-07
4.03972e-07
4.04999e-07
4.06025e-07
4.07051e-07
4.08076e-07
4.091e-07
4.10123e-07
4.11146e-07
4.12167e-07
4.13188e-07
4.14209e-07
4.15228e-07
4.16247e-07
4.17265e-07
4.18282e-07
4.19298e-07
4.20314e-07
4.21329e-07
4.22343e-07
4.23356e-07
4.24369e-07
4.2538e-07
4.26391e-07
4.27401e-07
4.2841e-07
4.29418e-07
4.30426e-07
4.31432e-07
4.32438e-07
4.33443e-07
4.34447e-07
4.36223e-07
7.40651e-07
8.33995e-07
8.10447e-07
6.02397e-07
8.70158e-07
6.85426e-07
1.14723e-07
1.29869e-07
3.93453e-07
3.94696e-07
3.9573e-07
3.96763e-07
3.97795e-07
3.98827e-07
3.99857e-07
4.00887e-07
4.01916e-07
4.02944e-07
4.03972e-07
4.04999e-07
4.06025e-07
4.07051e-07
4.08076e-07
4.091e-07
4.10123e-07
4.11146e-07
4.12167e-07
4.13188e-07
4.14209e-07
4.15228e-07
4.16247e-07
4.17265e-07
4.18282e-07
4.19298e-07
4.20314e-07
4.21329e-07
4.22343e-07
4.23356e-07
4.24369e-07
4.2538e-07
4.26391e-07
4.27401e-07
4.2841e-07
4.29418e-07
4.30426e-07
4.31432e-07
4.32438e-07
4.33443e-07
4.34447e-07
4.36223e-07
8.62488e-07
6.96488e-07
5.25568e-07
6.71308e-07
8.71688e-07
6.92541e-07
6.92422e-07
1.2972e-07
3.93452e-07
3.94696e-07
3.9573e-07
3.96763e-07
3.97795e-07
3.98827e-07
3.99857e-07
4.00887e-07
4.01916e-07
4.02944e-07
4.03972e-07
4.04999e-07
4.06025e-07
4.07051e-07
4.08076e-07
4.091e-07
4.10123e-07
4.11146e-07
4.12167e-07
4.13188e-07
4.14209e-07
4.15228e-07
4.16247e-07
4.17265e-07
4.18282e-07
4.19298e-07
4.20314e-07
4.21329e-07
4.22343e-07
4.23356e-07
4.24369e-07
4.2538e-07
4.26391e-07
4.27401e-07
4.2841e-07
4.29418e-07
4.30426e-07
4.31432e-07
4.32438e-07
4.33443e-07
4.34447e-07
4.36223e-07
6.74588e-07
7.79655e-07
8.56574e-07
8.93713e-07
6.57491e-07
6.75057e-07
6.95223e-07
1.2972e-07
3.93452e-07
3.94696e-07
3.9573e-07
3.96763e-07
3.97795e-07
3.98827e-07
3.99857e-07
4.00887e-07
4.01916e-07
4.02944e-07
4.03972e-07
4.04999e-07
4.06025e-07
4.07051e-07
4.08076e-07
4.091e-07
4.10123e-07
4.11146e-07
4.12167e-07
4.13188e-07
4.14209e-07
4.15228e-07
4.16247e-07
4.17265e-07
4.18282e-07
4.19298e-07
4.20314e-07
4.21329e-07
4.22343e-07
4.23356e-07
4.24369e-07
4.2538e-07
4.26391e-07
4.27401e-07
4.2841e-07
4.29418e-07
4.30426e-07
4.31432e-07
4.32438e-07
4.33443e-07
4.34447e-07
4.36223e-07
1.19758e-07
4.08454e-07
3.66792e-07
9.63162e-07
8.84167e-07
6.89996e-07
6.18107e-07
1.29724e-07
3.93454e-07
3.94697e-07
3.95731e-07
3.96763e-07
3.97795e-07
3.98827e-07
3.99857e-07
4.00887e-07
4.01916e-07
4.02944e-07
4.03972e-07
4.04999e-07
4.06025e-07
4.07051e-07
4.08076e-07
4.091e-07
4.10123e-07
4.11146e-07
4.12167e-07
4.13188e-07
4.14209e-07
4.15228e-07
4.16247e-07
4.17265e-07
4.18282e-07
4.19298e-07
4.20314e-07
4.21329e-07
4.22343e-07
4.23356e-07
4.24369e-07
4.2538e-07
4.26391e-07
4.27401e-07
4.2841e-07
4.29418e-07
4.30426e-07
4.31432e-07
4.32438e-07
4.33443e-07
4.34447e-07
4.36223e-07
8.60599e-07
8.3732e-07
6.89191e-07
9.65949e-07
8.9454e-07
6.94945e-07
7.59091e-08
3.92289e-07
3.93665e-07
3.94698e-07
3.95731e-07
3.96764e-07
3.97795e-07
3.98827e-07
3.99857e-07
4.00887e-07
4.01916e-07
4.02945e-07
4.03972e-07
4.04999e-07
4.06025e-07
4.07051e-07
4.08076e-07
4.091e-07
4.10123e-07
4.11146e-07
4.12167e-07
4.13188e-07
4.14209e-07
4.15228e-07
4.16247e-07
4.17265e-07
4.18282e-07
4.19298e-07
4.20314e-07
4.21329e-07
4.22343e-07
4.23356e-07
4.24369e-07
4.2538e-07
4.26391e-07
4.27401e-07
4.2841e-07
4.29418e-07
4.30426e-07
4.31432e-07
4.32438e-07
4.33443e-07
4.34447e-07
4.36223e-07
4.78732e-07
8.65672e-07
8.51065e-07
9.4437e-07
8.4279e-07
6.98368e-07
3.51744e-08
3.92423e-07
3.93665e-07
3.94698e-07
3.95732e-07
3.96764e-07
3.97796e-07
3.98827e-07
3.99857e-07
4.00887e-07
4.01916e-07
4.02945e-07
4.03972e-07
4.04999e-07
4.06025e-07
4.07051e-07
4.08076e-07
4.091e-07
4.10123e-07
4.11146e-07
4.12167e-07
4.13188e-07
4.14209e-07
4.15228e-07
4.16247e-07
4.17265e-07
4.18282e-07
4.19298e-07
4.20314e-07
4.21329e-07
4.22343e-07
4.23356e-07
4.24369e-07
4.2538e-07
4.26391e-07
4.27401e-07
4.2841e-07
4.29418e-07
4.30426e-07
4.31432e-07
4.32438e-07
4.33443e-07
4.34447e-07
4.36223e-07
9.66115e-07
9.55012e-07
8.07102e-07
8.77046e-07
8.97448e-07
6.96512e-07
1.29269e-07
3.92422e-07
3.93664e-07
3.94698e-07
3.95731e-07
3.96764e-07
3.97795e-07
3.98827e-07
3.99857e-07
4.00887e-07
4.01916e-07
4.02945e-07
4.03972e-07
4.04999e-07
4.06025e-07
4.07051e-07
4.08076e-07
4.091e-07
4.10123e-07
4.11146e-07
4.12167e-07
4.13188e-07
4.14209e-07
4.15228e-07
4.16247e-07
4.17265e-07
4.18282e-07
4.19298e-07
4.20314e-07
4.21329e-07
4.22343e-07
4.23356e-07
4.24369e-07
4.2538e-07
4.26391e-07
4.27401e-07
4.2841e-07
4.29418e-07
4.30426e-07
4.31432e-07
4.32438e-07
4.33443e-07
4.34447e-07
4.36223e-07
9.76959e-07
8.84429e-07
8.54284e-07
7.13709e-07
9.23157e-07
7.67767e-07
1.83343e-07
5.04898e-07
5.06388e-07
5.07529e-07
5.08667e-07
5.09804e-07
5.1094e-07
5.12073e-07
5.13206e-07
5.14337e-07
5.15465e-07
5.16593e-07
5.17719e-07
5.18843e-07
5.19965e-07
5.21087e-07
5.22205e-07
5.23323e-07
5.24439e-07
5.25553e-07
5.26666e-07
5.27778e-07
5.28886e-07
5.29995e-07
5.31101e-07
5.32205e-07
5.33308e-07
5.3441e-07
5.35508e-07
5.36607e-07
5.37703e-07
5.38797e-07
5.3989e-07
5.40982e-07
5.42071e-07
5.43159e-07
5.44246e-07
5.45329e-07
5.46413e-07
5.47494e-07
5.48573e-07
5.49651e-07
5.50728e-07
5.53042e-07
8.98841e-07
8.71805e-07
4.16739e-07
5.67488e-07
6.89956e-07
5.62623e-07
1.83231e-07
5.04895e-07
5.06385e-07
5.07527e-07
5.08666e-07
5.09804e-07
5.1094e-07
5.12073e-07
5.13206e-07
5.14337e-07
5.15465e-07
5.16593e-07
5.17719e-07
5.18842e-07
5.19965e-07
5.21087e-07
5.22205e-07
5.23323e-07
5.24439e-07
5.25553e-07
5.26666e-07
5.27778e-07
5.28886e-07
5.29995e-07
5.31101e-07
5.32205e-07
5.33308e-07
5.3441e-07
5.35508e-07
5.36607e-07
5.37703e-07
5.38797e-07
5.3989e-07
5.40982e-07
5.42071e-07
5.43159e-07
5.44246e-07
5.45329e-07
5.46413e-07
5.47494e-07
5.48573e-07
5.49651e-07
5.50728e-07
5.53042e-07
6.28292e-07
1.61508e-07
5.01699e-07
4.19803e-07
2.29838e-07
7.25592e-07
5.26598e-08
5.04667e-07
5.06383e-07
5.07525e-07
5.08665e-07
5.09803e-07
5.10939e-07
5.12073e-07
5.13206e-07
5.14337e-07
5.15465e-07
5.16593e-07
5.17719e-07
5.18842e-07
5.19965e-07
5.21087e-07
5.22205e-07
5.23323e-07
5.2444e-07
5.25553e-07
5.26666e-07
5.27778e-07
5.28886e-07
5.29994e-07
5.31101e-07
5.32205e-07
5.33308e-07
5.3441e-07
5.35509e-07
5.36607e-07
5.37703e-07
5.38797e-07
5.3989e-07
5.40982e-07
5.42071e-07
5.43159e-07
5.44246e-07
5.4533e-07
5.46413e-07
5.47494e-07
5.48573e-07
5.49651e-07
5.50728e-07
5.53042e-07
5.73917e-07
4.95923e-07
4.60375e-07
6.81705e-07
8.17205e-07
6.3686e-07
1.63205e-07
1.84063e-07
5.06036e-07
5.07526e-07
5.08665e-07
5.09803e-07
5.10939e-07
5.12073e-07
5.13206e-07
5.14337e-07
5.15465e-07
5.16593e-07
5.17719e-07
5.18842e-07
5.19965e-07
5.21087e-07
5.22205e-07
5.23323e-07
5.24439e-07
5.25553e-07
5.26666e-07
5.27778e-07
5.28886e-07
5.29994e-07
5.31101e-07
5.32205e-07
5.33308e-07
5.3441e-07
5.35508e-07
5.36607e-07
5.37703e-07
5.38797e-07
5.3989e-07
5.40982e-07
5.42071e-07
5.43159e-07
5.44246e-07
5.45329e-07
5.46413e-07
5.47494e-07
5.48573e-07
5.49651e-07
5.50728e-07
5.53042e-07
3.61883e-07
3.0449e-07
3.66171e-07
6.91869e-07
8.32318e-07
7.15821e-07
7.67277e-07
1.83946e-07
5.06034e-07
5.07525e-07
5.08665e-07
5.09803e-07
5.10939e-07
5.12073e-07
5.13206e-07
5.14337e-07
5.15465e-07
5.16593e-07
5.17719e-07
5.18842e-07
5.19965e-07
5.21087e-07
5.22205e-07
5.23323e-07
5.2444e-07
5.25553e-07
5.26666e-07
5.27778e-07
5.28886e-07
5.29995e-07
5.31101e-07
5.32205e-07
5.33308e-07
5.3441e-07
5.35509e-07
5.36607e-07
5.37703e-07
5.38797e-07
5.3989e-07
5.40982e-07
5.42071e-07
5.43159e-07
5.44246e-07
5.45329e-07
5.46413e-07
5.47494e-07
5.48573e-07
5.49651e-07
5.50728e-07
5.53042e-07
7.16122e-07
8.4083e-07
8.93906e-07
9.42865e-07
9.04203e-07
7.32968e-07
7.69497e-07
1.83947e-07
5.06034e-07
5.07525e-07
5.08665e-07
5.09803e-07
5.10939e-07
5.12073e-07
5.13206e-07
5.14337e-07
5.15465e-07
5.16593e-07
5.17719e-07
5.18842e-07
5.19965e-07
5.21087e-07
5.22205e-07
5.23323e-07
5.2444e-07
5.25553e-07
5.26666e-07
5.27778e-07
5.28886e-07
5.29995e-07
5.31101e-07
5.32205e-07
5.33308e-07
5.3441e-07
5.35509e-07
5.36607e-07
5.37703e-07
5.38797e-07
5.3989e-07
5.40982e-07
5.42071e-07
5.43159e-07
5.44246e-07
5.4533e-07
5.46413e-07
5.47494e-07
5.48573e-07
5.49651e-07
5.50728e-07
5.53042e-07
5.3966e-07
5.9288e-07
5.02469e-07
9.35476e-07
9.28529e-07
7.07428e-07
6.46137e-07
1.83946e-07
5.06039e-07
5.07527e-07
5.08666e-07
5.09804e-07
5.1094e-07
5.12073e-07
5.13206e-07
5.14337e-07
5.15465e-07
5.16593e-07
5.17719e-07
5.18842e-07
5.19965e-07
5.21087e-07
5.22205e-07
5.23323e-07
5.24439e-07
5.25553e-07
5.26666e-07
5.27778e-07
5.28886e-07
5.29995e-07
5.31101e-07
5.32205e-07
5.33308e-07
5.3441e-07
5.35509e-07
5.36607e-07
5.37703e-07
5.38797e-07
5.3989e-07
5.40982e-07
5.42071e-07
5.43159e-07
5.44246e-07
5.4533e-07
5.46413e-07
5.47494e-07
5.48573e-07
5.49651e-07
5.50728e-07
5.53042e-07
3.5039e-07
8.26106e-07
7.57801e-07
9.54315e-07
9.07286e-07
7.51352e-07
1.09641e-07
5.04682e-07
5.06391e-07
5.0753e-07
5.08668e-07
5.09805e-07
5.1094e-07
5.12074e-07
5.13206e-07
5.14337e-07
5.15465e-07
5.16593e-07
5.17719e-07
5.18842e-07
5.19965e-07
5.21087e-07
5.22205e-07
5.23323e-07
5.24439e-07
5.25553e-07
5.26666e-07
5.27778e-07
5.28886e-07
5.29995e-07
5.31101e-07
5.32205e-07
5.33308e-07
5.3441e-07
5.35509e-07
5.36607e-07
5.37703e-07
5.38797e-07
5.3989e-07
5.40982e-07
5.42071e-07
5.43159e-07
5.44246e-07
5.4533e-07
5.46413e-07
5.47494e-07
5.48573e-07
5.49651e-07
5.50728e-07
5.53042e-07
1.67933e-07
8.83242e-07
9.46191e-07
9.68766e-07
9.01587e-07
7.64349e-07
5.18175e-08
5.04906e-07
5.06392e-07
5.07532e-07
5.08669e-07
5.09805e-07
5.10941e-07
5.12074e-07
5.13206e-07
5.14337e-07
5.15465e-07
5.16593e-07
5.17719e-07
5.18843e-07
5.19965e-07
5.21087e-07
5.22205e-07
5.23323e-07
5.24439e-07
5.25553e-07
5.26666e-07
5.27778e-07
5.28886e-07
5.29995e-07
5.31101e-07
5.32205e-07
5.33308e-07
5.3441e-07
5.35509e-07
5.36607e-07
5.37703e-07
5.38797e-07
5.3989e-07
5.40982e-07
5.42071e-07
5.43159e-07
5.44246e-07
5.4533e-07
5.46413e-07
5.47494e-07
5.48573e-07
5.49651e-07
5.50728e-07
5.53042e-07
9.69693e-07
9.57705e-07
9.43379e-07
9.38811e-07
9.28077e-07
7.68606e-07
1.83342e-07
5.04901e-07
5.0639e-07
5.0753e-07
5.08668e-07
5.09805e-07
5.10941e-07
5.12074e-07
5.13206e-07
5.14337e-07
5.15465e-07
5.16593e-07
5.17719e-07
5.18842e-07
5.19965e-07
5.21087e-07
5.22205e-07
5.23323e-07
5.2444e-07
5.25553e-07
5.26666e-07
5.27778e-07
5.28886e-07
5.29995e-07
5.31101e-07
5.32205e-07
5.33308e-07
5.3441e-07
5.35508e-07
5.36607e-07
5.37703e-07
5.38797e-07
5.3989e-07
5.40982e-07
5.42071e-07
5.43159e-07
5.44246e-07
5.4533e-07
5.46413e-07
5.47494e-07
5.48573e-07
5.49651e-07
5.50728e-07
5.53042e-07
9.6214e-07
8.68936e-07
8.77145e-07
9.22554e-07
9.22037e-07
7.70613e-07
1.83347e-07
3.9242e-07
3.93663e-07
3.94697e-07
3.95731e-07
3.96763e-07
3.97795e-07
3.98827e-07
3.99857e-07
4.00887e-07
4.01916e-07
4.02944e-07
4.03972e-07
4.04999e-07
4.06025e-07
4.07051e-07
4.08076e-07
4.091e-07
4.10123e-07
4.11146e-07
4.12167e-07
4.13188e-07
4.14209e-07
4.15228e-07
4.16247e-07
4.17265e-07
4.18282e-07
4.19298e-07
4.20314e-07
4.21329e-07
4.22343e-07
4.23356e-07
4.24368e-07
4.2538e-07
4.26391e-07
4.27401e-07
4.2841e-07
4.29418e-07
4.30426e-07
4.31432e-07
4.32438e-07
4.33443e-07
4.34447e-07
4.36223e-07
9.16145e-07
8.34793e-07
6.73606e-07
8.56105e-07
7.44591e-07
7.50592e-07
1.83234e-07
3.92419e-07
3.93662e-07
3.94697e-07
3.95731e-07
3.96763e-07
3.97795e-07
3.98827e-07
3.99857e-07
4.00887e-07
4.01916e-07
4.02944e-07
4.03972e-07
4.04999e-07
4.06025e-07
4.07051e-07
4.08076e-07
4.091e-07
4.10123e-07
4.11146e-07
4.12167e-07
4.13188e-07
4.14209e-07
4.15228e-07
4.16247e-07
4.17265e-07
4.18282e-07
4.19298e-07
4.20314e-07
4.21329e-07
4.22343e-07
4.23356e-07
4.24368e-07
4.2538e-07
4.26391e-07
4.27401e-07
4.2841e-07
4.29418e-07
4.30426e-07
4.31432e-07
4.32438e-07
4.33443e-07
4.34447e-07
4.36223e-07
8.58992e-07
6.79719e-07
7.3938e-07
8.50892e-07
8.76815e-07
7.58308e-07
5.26222e-08
3.92284e-07
3.93662e-07
3.94696e-07
3.9573e-07
3.96763e-07
3.97795e-07
3.98827e-07
3.99857e-07
4.00887e-07
4.01916e-07
4.02944e-07
4.03972e-07
4.04999e-07
4.06025e-07
4.07051e-07
4.08076e-07
4.091e-07
4.10123e-07
4.11146e-07
4.12167e-07
4.13188e-07
4.14209e-07
4.15228e-07
4.16247e-07
4.17265e-07
4.18282e-07
4.19298e-07
4.20314e-07
4.21329e-07
4.22343e-07
4.23356e-07
4.24368e-07
4.2538e-07
4.26391e-07
4.27401e-07
4.2841e-07
4.29418e-07
4.30426e-07
4.31432e-07
4.32438e-07
4.33443e-07
4.34447e-07
4.36223e-07
5.82636e-07
8.27812e-07
4.3995e-07
8.86827e-07
6.17807e-07
7.08338e-07
1.63316e-07
1.84069e-07
3.93453e-07
3.94696e-07
3.9573e-07
3.96763e-07
3.97795e-07
3.98827e-07
3.99857e-07
4.00887e-07
4.01916e-07
4.02944e-07
4.03972e-07
4.04999e-07
4.06025e-07
4.07051e-07
4.08076e-07
4.091e-07
4.10123e-07
4.11146e-07
4.12167e-07
4.13188e-07
4.14209e-07
4.15228e-07
4.16247e-07
4.17265e-07
4.18282e-07
4.19298e-07
4.20314e-07
4.21329e-07
4.22343e-07
4.23356e-07
4.24368e-07
4.2538e-07
4.26391e-07
4.27401e-07
4.2841e-07
4.29418e-07
4.30426e-07
4.31432e-07
4.32438e-07
4.33443e-07
4.34447e-07
4.36223e-07
4.99288e-07
8.00686e-07
8.15321e-07
8.98698e-07
7.54516e-07
6.99986e-07
7.6726e-07
1.83951e-07
3.93452e-07
3.94696e-07
3.9573e-07
3.96763e-07
3.97795e-07
3.98827e-07
3.99857e-07
4.00887e-07
4.01916e-07
4.02944e-07
4.03972e-07
4.04999e-07
4.06025e-07
4.07051e-07
4.08076e-07
4.091e-07
4.10123e-07
4.11146e-07
4.12167e-07
4.13188e-07
4.14209e-07
4.15228e-07
4.16247e-07
4.17265e-07
4.18282e-07
4.19298e-07
4.20314e-07
4.21329e-07
4.22343e-07
4.23356e-07
4.24368e-07
4.2538e-07
4.26391e-07
4.27401e-07
4.2841e-07
4.29418e-07
4.30426e-07
4.31432e-07
4.32438e-07
4.33443e-07
4.34447e-07
4.36223e-07
9.05647e-07
9.21434e-07
8.81205e-07
7.99545e-07
8.57611e-07
7.28796e-07
7.69025e-07
1.83952e-07
3.93452e-07
3.94696e-07
3.9573e-07
3.96763e-07
3.97795e-07
3.98827e-07
3.99857e-07
4.00887e-07
4.01916e-07
4.02944e-07
4.03972e-07
4.04999e-07
4.06025e-07
4.07051e-07
4.08076e-07
4.091e-07
4.10123e-07
4.11146e-07
4.12167e-07
4.13188e-07
4.14209e-07
4.15228e-07
4.16247e-07
4.17265e-07
4.18282e-07
4.19298e-07
4.20314e-07
4.21329e-07
4.22343e-07
4.23356e-07
4.24368e-07
4.2538e-07
4.26391e-07
4.27401e-07
4.2841e-07
4.29418e-07
4.30426e-07
4.31432e-07
4.32438e-07
4.33443e-07
4.34447e-07
4.36223e-07
4.61731e-07
7.03888e-07
7.79119e-07
8.77238e-07
9.07179e-07
7.05398e-07
6.47974e-07
1.83952e-07
3.93454e-07
3.94697e-07
3.95731e-07
3.96763e-07
3.97795e-07
3.98827e-07
3.99857e-07
4.00887e-07
4.01916e-07
4.02944e-07
4.03972e-07
4.04999e-07
4.06025e-07
4.07051e-07
4.08076e-07
4.091e-07
4.10123e-07
4.11146e-07
4.12167e-07
4.13188e-07
4.14209e-07
4.15228e-07
4.16247e-07
4.17265e-07
4.18282e-07
4.19298e-07
4.20314e-07
4.21329e-07
4.22343e-07
4.23356e-07
4.24368e-07
4.2538e-07
4.26391e-07
4.27401e-07
4.2841e-07
4.29418e-07
4.30426e-07
4.31432e-07
4.32438e-07
4.33443e-07
4.34447e-07
4.36223e-07
4.03282e-07
8.70568e-07
3.18256e-07
9.12298e-07
9.02918e-07
7.05288e-07
1.09584e-07
3.92289e-07
3.93665e-07
3.94698e-07
3.95731e-07
3.96764e-07
3.97795e-07
3.98827e-07
3.99857e-07
4.00887e-07
4.01916e-07
4.02944e-07
4.03972e-07
4.04999e-07
4.06025e-07
4.07051e-07
4.08076e-07
4.091e-07
4.10123e-07
4.11146e-07
4.12167e-07
4.13188e-07
4.14209e-07
4.15228e-07
4.16247e-07
4.17265e-07
4.18282e-07
4.19298e-07
4.20314e-07
4.21329e-07
4.22343e-07
4.23356e-07
4.24368e-07
4.2538e-07
4.26391e-07
4.27401e-07
4.2841e-07
4.29418e-07
4.30426e-07
4.31432e-07
4.32438e-07
4.33443e-07
4.34447e-07
4.36223e-07
9.56382e-07
8.75934e-07
9.14715e-07
9.68133e-07
8.8669e-07
6.66612e-07
5.18188e-08
3.92423e-07
3.93665e-07
3.94698e-07
3.95732e-07
3.96764e-07
3.97795e-07
3.98827e-07
3.99857e-07
4.00887e-07
4.01916e-07
4.02944e-07
4.03972e-07
4.04999e-07
4.06025e-07
4.07051e-07
4.08076e-07
4.091e-07
4.10123e-07
4.11146e-07
4.12167e-07
4.13188e-07
4.14209e-07
4.15228e-07
4.16247e-07
4.17265e-07
4.18282e-07
4.19298e-07
4.20314e-07
4.21329e-07
4.22343e-07
4.23356e-07
4.24368e-07
4.2538e-07
4.26391e-07
4.27401e-07
4.2841e-07
4.29418e-07
4.30426e-07
4.31432e-07
4.32438e-07
4.33443e-07
4.34447e-07
4.36223e-07
9.6455e-07
9.39322e-07
8.15098e-07
8.83681e-07
8.89154e-07
7.63627e-07
1.83347e-07
3.92422e-07
3.93664e-07
3.94698e-07
3.95731e-07
3.96764e-07
3.97795e-07
3.98827e-07
3.99857e-07
4.00887e-07
4.01916e-07
4.02944e-07
4.03972e-07
4.04999e-07
4.06025e-07
4.07051e-07
4.08076e-07
4.091e-07
4.10123e-07
4.11146e-07
4.12167e-07
4.13188e-07
4.14209e-07
4.15228e-07
4.16247e-07
4.17265e-07
4.18282e-07
4.19298e-07
4.20314e-07
4.21329e-07
4.22343e-07
4.23356e-07
4.24368e-07
4.2538e-07
4.26391e-07
4.27401e-07
4.2841e-07
4.29418e-07
4.30426e-07
4.31432e-07
4.32438e-07
4.33443e-07
4.34447e-07
4.36223e-07
3.51449e-08
6.53219e-07
3.51522e-08
7.65535e-07
5.17904e-08
7.38533e-07
5.18072e-08
3.51654e-08
6.87863e-07
5.06621e-08
5.37815e-07
5.18208e-08
7.22328e-07
7.40533e-08
7.76211e-08
5.77273e-07
6.93459e-07
7.22921e-07
1.12449e-07
6.94587e-07
7.6639e-07
6.96237e-07
6.36413e-07
7.00741e-07
5.99105e-07
7.69579e-07
7.01133e-07
7.72762e-07
6.99056e-07
6.70995e-07
7.00619e-07
7.23081e-07
7.71908e-07
7.30844e-07
7.76927e-07
6.9918e-07
6.74005e-07
7.01035e-07
7.35836e-07
7.76151e-07
7.40922e-07
7.73632e-07
7.00288e-07
6.72212e-07
6.96647e-07
7.30274e-07
7.73456e-07
6.76753e-07
7.71471e-07
6.9387e-07
6.19514e-07
8.22159e-08
7.59535e-07
7.68039e-07
6.06801e-07
1.20104e-07
5.56953e-08
6.79613e-07
3.52314e-08
7.6399e-07
8.14027e-08
7.17353e-07
5.20976e-08
3.51539e-08
6.9393e-07
3.51433e-08
7.73179e-07
5.18106e-08
7.64002e-07
5.1787e-08
5.17905e-08
7.49456e-07
5.18073e-08
7.69163e-07
5.17906e-08
7.55408e-07
5.18062e-08
5.18314e-08
7.11316e-07
7.34087e-08
6.36651e-07
5.18624e-08
7.45374e-07
7.33109e-08
1.12711e-07
7.48584e-07
7.66664e-07
7.51993e-07
1.12502e-07
7.4681e-07
7.67665e-07
7.69574e-07
6.91909e-07
7.72264e-07
7.11373e-07
7.68927e-07
7.30279e-07
7.73719e-07
7.73185e-07
7.28791e-07
7.76291e-07
6.99181e-07
7.72979e-07
7.26223e-07
7.78172e-07
7.76449e-07
7.19358e-07
7.72809e-07
7.44903e-07
7.75571e-07
7.26005e-07
7.75833e-07
7.72935e-07
6.72122e-07
7.70842e-07
6.77016e-07
7.73568e-07
6.57778e-07
7.7096e-07
7.68004e-07
5.73246e-07
1.20878e-07
6.85225e-07
7.65356e-07
6.98338e-07
1.23704e-07
8.16447e-08
7.13513e-07
5.2081e-08
6.87706e-07
8.21446e-08
7.52119e-07
5.20134e-08
5.181e-08
7.59953e-07
5.1787e-08
7.56781e-07
5.18095e-08
7.48502e-07
5.17869e-08
5.17904e-08
7.32426e-07
5.18066e-08
6.95507e-07
3.51447e-08
6.96766e-07
3.51519e-08
5.18515e-08
7.49729e-07
7.34973e-08
5.50428e-07
3.51688e-08
6.89619e-07
5.03689e-08
1.12343e-07
7.48337e-07
7.6815e-07
6.87117e-07
7.7276e-08
6.68863e-07
6.93534e-07
7.68814e-07
7.26826e-07
7.72684e-07
6.85271e-07
6.94245e-07
6.72262e-07
7.00712e-07
7.72799e-07
7.36908e-07
7.76823e-07
6.87599e-07
6.99833e-07
6.60413e-07
7.00055e-07
7.75988e-07
7.21693e-07
7.75825e-07
6.82881e-07
6.99465e-07
6.80642e-07
7.01349e-07
7.7311e-07
6.37822e-07
7.7015e-07
6.72475e-07
7.00081e-07
5.38214e-07
6.95736e-07
7.65346e-07
6.49412e-07
1.24721e-07
6.81142e-07
6.93874e-07
6.79112e-07
8.80285e-08
8.19688e-08
7.6685e-07
5.199e-08
5.7325e-07
5.5798e-08
6.97504e-07
3.52365e-08
5.18095e-08
7.60149e-07
5.17868e-08
6.92325e-07
3.51538e-08
6.88282e-07
3.51432e-08
6.36625e-07
8.74045e-07
8.33554e-07
8.56492e-07
7.09181e-07
9.15207e-07
9.07713e-07
1.85311e-07
1.27805e-07
6.93213e-07
7.72391e-07
7.63669e-07
1.32176e-07
1.79885e-07
1.29658e-07
1.29269e-07
1.29658e-07
1.83347e-07
1.84016e-07
1.83347e-07
1.84016e-07
6.07816e-07
2.50731e-07
5.28367e-07
4.99986e-07
7.58393e-07
5.56811e-07
3.61302e-07
5.89203e-07
6.49526e-07
4.65701e-07
3.92416e-07
6.84522e-07
5.05539e-07
5.07961e-07
1.29658e-07
3.51711e-08
1.29566e-07
1.83236e-07
1.84017e-07
5.18081e-08
1.8383e-07
5.69251e-07
8.25204e-07
8.8598e-07
2.26828e-07
6.35177e-07
8.19406e-07
9.10885e-07
7.64704e-07
6.9606e-07
4.09216e-07
7.55522e-07
7.71906e-07
5.49364e-07
6.95324e-07
1.29566e-07
7.38582e-08
1.29567e-07
5.26225e-08
1.83831e-07
1.07023e-07
1.83715e-07
8.72821e-07
8.64037e-07
8.16525e-07
8.83846e-07
8.3297e-07
8.75927e-07
8.16413e-07
3.98571e-07
5.76939e-07
2.77517e-07
6.89768e-07
6.88082e-07
4.01902e-07
3.53818e-07
1.17852e-07
6.10314e-07
3.52761e-08
1.6308e-07
5.20132e-08
6.40204e-07
5.19786e-08
8.94863e-07
8.28863e-07
8.24633e-07
9.22287e-07
9.0269e-07
8.90894e-07
8.36532e-07
7.68515e-07
6.96438e-07
6.79992e-07
7.51341e-07
7.70786e-07
7.45496e-07
6.97284e-07
3.5276e-08
6.9478e-07
3.52764e-08
7.67527e-07
5.19784e-08
7.69535e-07
5.198e-08
5.88632e-07
6.68151e-07
5.79323e-07
5.10449e-07
6.48265e-07
7.96342e-07
6.625e-07
7.58655e-07
6.9584e-07
6.2659e-07
7.23536e-07
7.6994e-07
6.93857e-07
6.94453e-07
3.52766e-08
6.92203e-07
3.5276e-08
7.698e-07
5.19805e-08
7.66834e-07
5.19786e-08
8.74963e-07
8.84523e-07
8.8012e-07
8.72517e-07
8.86512e-07
9.0262e-07
9.22381e-07
7.7179e-07
6.98216e-07
6.97679e-07
7.44431e-07
7.70619e-07
7.65676e-07
6.97659e-07
3.52761e-08
1.05262e-07
1.17856e-07
6.52666e-07
5.19787e-08
1.49662e-07
5.20163e-08
8.92448e-07
8.82203e-07
6.80465e-07
9.07738e-07
9.0611e-07
9.04621e-07
7.93752e-07
7.16788e-07
6.8255e-07
6.83792e-07
7.66215e-07
7.63514e-07
7.19672e-07
6.47979e-07
1.29568e-07
3.59303e-08
1.29567e-07
1.0964e-07
1.83719e-07
5.32192e-08
1.83835e-07
8.67136e-07
5.91414e-07
8.84907e-07
8.85685e-07
8.99526e-07
7.2051e-07
9.13022e-07
7.65509e-07
6.98788e-07
6.73724e-07
7.68455e-07
7.70768e-07
7.14438e-07
6.94597e-07
1.29567e-07
1.29217e-07
1.29658e-07
5.18169e-08
1.83835e-07
1.83247e-07
1.84019e-07
8.97083e-07
7.93367e-07
6.73254e-07
9.07969e-07
9.17553e-07
8.46745e-07
7.40618e-07
2.4041e-07
5.41207e-07
6.83397e-07
7.67198e-07
6.22313e-07
7.28503e-07
1.75304e-07
1.29658e-07
1.29269e-07
1.29658e-07
1.83347e-07
1.84017e-07
1.83347e-07
1.84017e-07
7.23914e-07
8.83064e-07
9.20884e-07
8.86918e-07
7.73476e-07
8.54964e-07
9.31537e-07
1.81745e-07
1.79244e-07
7.53509e-07
7.68507e-07
1.81906e-07
7.52372e-07
1.7866e-07
1.84012e-07
1.83342e-07
1.84011e-07
1.83343e-07
1.84012e-07
1.83343e-07
1.84011e-07
8.21863e-07
7.16253e-07
3.29581e-07
5.8153e-07
8.97182e-07
5.17774e-07
8.44155e-07
5.1603e-07
6.83131e-07
3.9323e-07
4.63247e-07
5.32204e-07
6.78904e-07
3.88927e-07
1.84012e-07
5.18064e-08
1.83825e-07
1.83228e-07
1.84012e-07
5.1808e-08
1.83825e-07
5.66076e-07
7.856e-07
9.29898e-07
7.30278e-07
7.98883e-07
7.79673e-07
9.12715e-07
7.61108e-07
7.68617e-07
5.3705e-07
7.37522e-07
7.57023e-07
7.66143e-07
4.83589e-07
1.83825e-07
1.07041e-07
1.8371e-07
5.26687e-08
1.83825e-07
1.06989e-07
1.8371e-07
7.1183e-07
8.47143e-07
7.5115e-07
4.39944e-07
4.43255e-07
5.8222e-07
3.63153e-07
3.59844e-07
7.56791e-07
3.24877e-07
6.97759e-07
3.63301e-07
7.57833e-07
3.31296e-07
5.20129e-08
6.29308e-07
5.1978e-08
1.63396e-07
5.20143e-08
6.31318e-07
5.19781e-08
9.21825e-07
9.22404e-07
8.29924e-07
8.82001e-07
7.87213e-07
8.64902e-07
8.95311e-07
7.59507e-07
7.6129e-07
7.36016e-07
7.11287e-07
7.58801e-07
7.55817e-07
6.35184e-07
5.19778e-08
7.69538e-07
5.19796e-08
7.67451e-07
5.19778e-08
7.69125e-07
5.19796e-08
6.89782e-07
7.90275e-07
7.75343e-07
9.10146e-07
6.33e-07
8.96172e-07
8.09982e-07
7.3699e-07
7.58133e-07
7.65621e-07
7.03011e-07
7.36843e-07
7.61837e-07
7.47933e-07
5.19801e-08
7.6544e-07
5.1978e-08
7.68739e-07
5.19801e-08
7.65519e-07
5.1978e-08
8.67714e-07
9.2281e-07
8.44026e-07
8.66364e-07
9.07045e-07
9.2604e-07
9.1151e-07
7.53282e-07
7.66337e-07
7.28807e-07
6.94255e-07
7.5561e-07
7.65765e-07
7.39819e-07
5.19781e-08
1.4967e-07
5.20159e-08
6.42345e-07
5.19781e-08
1.4955e-07
5.2016e-08
8.52101e-07
8.72902e-07
8.27423e-07
9.02899e-07
7.77292e-07
9.20178e-07
7.52917e-07
6.43133e-07
7.66269e-07
5.82718e-07
7.37505e-07
6.59772e-07
7.6568e-07
5.72424e-07
1.83714e-07
5.32585e-08
1.8383e-07
1.09608e-07
1.83716e-07
5.31438e-08
1.8383e-07
8.81355e-07
7.57436e-07
8.61025e-07
8.68608e-07
8.70855e-07
8.65535e-07
9.1212e-07
7.38499e-07
7.61171e-07
7.02786e-07
7.31019e-07
7.53289e-07
7.50922e-07
7.0826e-07
1.83831e-07
1.83245e-07
1.84015e-07
5.18201e-08
1.83831e-07
1.83244e-07
1.84015e-07
9.25546e-07
8.8656e-07
7.16251e-07
9.16244e-07
9.11603e-07
8.59204e-07
7.18466e-07
2.44256e-07
5.99587e-07
7.59121e-07
7.35022e-07
2.43481e-07
5.986e-07
7.54564e-07
1.84012e-07
1.83343e-07
1.84012e-07
1.83342e-07
1.84012e-07
1.83343e-07
1.84012e-07
7.73718e-07
9.15234e-07
9.11818e-07
8.81094e-07
6.97387e-07
8.73427e-07
8.80626e-07
1.83897e-07
1.77773e-07
7.60847e-07
7.71178e-07
1.82855e-07
7.60651e-07
1.77816e-07
1.84016e-07
1.83347e-07
1.84016e-07
1.29269e-07
1.29658e-07
1.29269e-07
1.29658e-07
9.14284e-07
7.58032e-07
9.02611e-07
6.18231e-07
8.8313e-07
8.76433e-07
8.96303e-07
5.69514e-07
6.85292e-07
5.23283e-07
7.28849e-07
5.55027e-07
6.93424e-07
6.64905e-07
1.84017e-07
5.18085e-08
1.8383e-07
1.29212e-07
1.29658e-07
3.5171e-08
1.29566e-07
8.91811e-07
8.72942e-07
8.51356e-07
8.77487e-07
8.74586e-07
8.82004e-07
8.25239e-07
7.6792e-07
7.68348e-07
5.03495e-07
7.74193e-07
7.69754e-07
7.67466e-07
6.1367e-07
1.83831e-07
1.06935e-07
1.83715e-07
3.55692e-08
1.29566e-07
7.37614e-08
1.29509e-07
5.1249e-07
6.54881e-07
7.11489e-07
6.59746e-07
5.82797e-07
7.919e-07
6.72474e-07
5.59235e-07
7.22742e-07
4.69828e-07
7.10206e-07
4.35124e-07
6.97135e-07
4.6958e-07
5.20152e-08
6.3174e-07
5.19786e-08
1.14932e-07
3.52923e-08
5.95741e-07
3.52761e-08
9.20341e-07
8.0048e-07
8.83807e-07
2.78207e-07
8.482e-07
6.60501e-07
8.66927e-07
7.53837e-07
7.56842e-07
6.74352e-07
7.19722e-07
7.53013e-07
7.60117e-07
6.74467e-07
5.19784e-08
7.69412e-07
5.19799e-08
6.92373e-07
3.52761e-08
6.94805e-07
3.52765e-08
6.85862e-07
8.31913e-07
7.88e-07
6.38806e-07
6.5112e-07
5.01892e-07
7.06663e-07
7.68726e-07
7.67943e-07
6.82939e-07
7.17683e-07
7.66472e-07
7.67328e-07
6.74577e-07
5.19804e-08
7.6591e-07
5.19785e-08
6.95243e-07
3.52767e-08
6.92212e-07
3.52761e-08
9.12675e-07
8.60133e-07
8.46856e-07
8.95019e-07
8.8265e-07
8.85511e-07
7.57927e-07
7.64974e-07
7.67399e-07
7.57556e-07
7.17904e-07
7.61468e-07
7.68142e-07
7.62798e-07
5.19786e-08
1.49531e-07
5.20164e-08
6.13255e-07
3.52761e-08
1.05159e-07
1.17856e-07
5.07133e-07
8.97895e-07
3.01699e-07
8.90219e-07
4.18592e-07
8.80179e-07
4.74437e-07
6.18404e-07
7.55535e-07
5.55109e-07
7.19684e-07
6.24226e-07
7.56045e-07
5.71695e-07
1.83721e-07
5.30275e-08
1.83835e-07
7.58639e-08
1.29568e-07
3.58732e-08
1.29568e-07
8.62785e-07
8.74782e-07
9.08957e-07
8.59142e-07
8.049e-07
7.49514e-07
8.82859e-07
7.22704e-07
7.25707e-07
6.84842e-07
6.7372e-07
7.30433e-07
7.25867e-07
6.40946e-07
1.83835e-07
1.83246e-07
1.84019e-07
3.51745e-08
1.29568e-07
1.29218e-07
1.29659e-07
8.76912e-07
8.56145e-07
7.04545e-07
8.97256e-07
6.93206e-07
4.66627e-07
6.67674e-07
2.4978e-07
5.90512e-07
7.56227e-07
7.56221e-07
2.48629e-07
5.93152e-07
7.59715e-07
1.84017e-07
1.83347e-07
1.84017e-07
1.29269e-07
1.29658e-07
1.29269e-07
1.29658e-07
5.51772e-08
3.72052e-08
3.51451e-08
5.17967e-08
5.17971e-08
3.74059e-08
5.48708e-08
2.9793e-07
6.96815e-07
3.48855e-07
7.26247e-07
7.73046e-07
4.46559e-07
2.25152e-07
6.06997e-08
3.51485e-08
4.58342e-08
5.18125e-08
5.18046e-08
6.71015e-08
4.11414e-08
1.83573e-07
7.71386e-07
1.79529e-07
7.54034e-07
7.58484e-07
1.82248e-07
1.79703e-07
5.5397e-08
5.1796e-08
5.50723e-08
5.17915e-08
5.17969e-08
5.5573e-08
5.49802e-08
2.9166e-07
7.30928e-07
7.6204e-07
4.25696e-07
7.7041e-07
4.40605e-07
2.91383e-07
6.10472e-08
5.18121e-08
5.17992e-08
6.76e-08
5.18045e-08
6.72189e-08
6.11305e-08
1.02249e-07
5.91589e-08
3.56144e-08
5.18324e-08
8.67741e-08
5.25739e-08
7.02745e-08
5.62148e-07
2.6094e-07
6.92357e-07
7.52369e-07
4.03374e-07
7.56796e-07
4.6866e-07
1.56503e-07
3.78795e-08
4.44932e-07
7.43493e-08
5.56841e-08
5.35316e-07
1.0889e-07
5.67436e-07
4.1576e-07
6.82103e-07
4.19809e-07
6.75405e-07
4.6321e-07
5.47084e-07
1.03154e-07
5.18287e-08
8.74708e-08
5.26118e-08
8.73734e-08
5.25942e-08
1.04162e-07
5.6703e-07
7.21303e-07
5.55314e-07
7.50308e-07
4.92562e-07
7.49512e-07
5.82648e-07
1.56549e-07
7.44236e-08
5.60726e-08
5.50393e-07
5.57476e-08
5.34589e-07
1.53701e-07
7.66008e-07
6.92047e-07
2.179e-07
1.12044e-07
7.63633e-07
2.91063e-07
6.93881e-07
7.66656e-07
6.08126e-07
6.77369e-07
6.34954e-07
6.78012e-07
7.53985e-07