/*--------------------------------*- C++ -*----------------------------------*\
| =========                 |                                                 |
| \\      /  F ield         | OpenFOAM: The Open Source CFD Toolbox           |
|  \\    /   O peration     | Version:  5.0                                   |
|   \\  /    A nd           | Web:      www.OpenFOAM.org                      |
|    \\/     M anipulation  |                                                 |
\*---------------------------------------------------------------------------*/
FoamFile
{
    version     2.0;
    format      ascii;
    class       volVectorField;
    location    "1.4";
    object      U;
}
// * * * * * * * * * * * * * * * * * * * * * * * * * * * * * * * * * * * * * //

dimensions      [0 1 -1 0 0 0 0];

internalField   nonuniform List<vector> 
7933
(
(0.00480896 0.0110961 -0.000539602)
(0.00765547 0.00219658 -4.33887e-05)
(-0.00318226 -0.00806373 0.000613887)
(9.05667e-05 0.00202266 0.00164185)
(0.00892233 0.00229724 -0.000371914)
(0.00102002 -0.000800855 9.98394e-05)
(0.000464758 -6.28667e-05 -1.02937e-06)
(0.000830643 -6.99496e-05 -2.21787e-06)
(0.000805263 -4.60624e-05 -1.14259e-07)
(0.000808327 -3.00859e-05 8.33082e-08)
(0.000806182 -1.91705e-05 9.30194e-08)
(0.000805115 -1.23393e-05 6.13754e-08)
(0.000804452 -7.77919e-06 -8.05587e-10)
(0.000802944 -4.54311e-06 7.87218e-08)
(0.0008011 -2.86797e-06 4.85351e-08)
(0.000799777 -1.87484e-06 2.02009e-07)
(0.000798491 -1.14601e-06 5.16385e-08)
(0.00079702 -4.93688e-07 8.05561e-08)
(0.000795082 -1.00174e-07 2.09221e-09)
(0.00079331 -3.21955e-07 1.60974e-07)
(0.000792373 -4.98355e-07 7.58013e-08)
(0.000791161 -1.95601e-07 5.68577e-08)
(0.000789408 -1.89709e-07 2.40167e-08)
(0.000787891 -4.95455e-09 4.4729e-08)
(0.000786506 2.12534e-07 6.95654e-08)
(0.000785193 3.83416e-07 7.30338e-08)
(0.000783779 1.83613e-07 6.37743e-08)
(0.000782463 1.11967e-07 4.73862e-08)
(0.000780816 2.18625e-07 1.28511e-07)
(0.000779306 4.91176e-08 9.073e-08)
(0.000777827 -4.12845e-07 7.46299e-08)
(0.00077615 -4.88496e-07 -5.31875e-08)
(0.000774775 -4.11336e-07 7.94983e-08)
(0.000773722 -1.01223e-07 1.04485e-07)
(0.000772504 9.85813e-08 8.38736e-08)
(0.000770854 1.07844e-07 6.82835e-08)
(0.000769189 -1.04893e-08 3.08311e-08)
(0.000767431 2.49246e-07 3.66419e-08)
(0.000766721 6.76874e-07 1.06097e-07)
(0.000765836 2.57131e-07 6.07637e-08)
(0.000763971 5.41113e-08 2.88722e-08)
(0.000762476 -6.69356e-08 7.29846e-08)
(0.000761656 -7.36904e-07 8.74975e-08)
(0.000760024 -5.42026e-07 5.37469e-09)
(0.000758076 -1.87478e-07 3.30214e-08)
(0.000756864 -3.86504e-08 5.45579e-08)
(0.000755757 1.15689e-08 5.60155e-08)
(0.0007546 -1.07214e-07 6.37729e-08)
(0.000752918 -3.04861e-07 4.09798e-08)
(0.000751359 -3.1951e-07 1.81371e-08)
(-0.013498 0.000565136 0.00101786)
(0.00846123 -0.0150182 0.000197534)
(-0.105027 -0.0657631 0.0126776)
(0.0804827 -0.0211095 0.00266356)
(0.00703618 -0.00363481 0.000390527)
(0.00490206 -0.000732616 0.000444703)
(0.000469073 -9.29116e-05 9.54132e-07)
(0.000863842 -7.48145e-05 -2.14578e-06)
(0.000831164 -4.37594e-05 4.13845e-08)
(0.000825087 -2.82818e-05 9.20616e-08)
(0.000817831 -1.75542e-05 5.78872e-08)
(0.00081269 -1.09528e-05 5.43374e-08)
(0.000808848 -6.87034e-06 5.19245e-08)
(0.000805747 -4.59472e-06 4.61114e-08)
(0.000803118 -2.854e-06 4.85439e-08)
(0.000801106 -1.83245e-06 4.71124e-08)
(0.000799373 -1.18796e-06 4.94351e-08)
(0.000797685 -9.23296e-07 6.07838e-08)
(0.000795567 -7.63243e-07 1.0265e-07)
(0.00079367 -2.62761e-07 2.39585e-08)
(0.000792354 1.52472e-07 8.48552e-08)
(0.000790815 4.24678e-08 6.09841e-08)
(0.000789506 4.66056e-07 -1.60149e-08)
(0.00078834 3.05463e-07 5.26575e-08)
(0.000786869 3.23566e-07 -3.23808e-08)
(0.000784985 1.61929e-07 1.7207e-08)
(0.000783443 9.78548e-08 9.93233e-08)
(0.000782293 -1.4326e-07 4.76959e-08)
(0.000780784 -5.41135e-07 6.4613e-08)
(0.000778842 -5.1157e-07 4.30203e-08)
(0.000777407 -3.75047e-07 -1.40492e-07)
(0.000776286 -1.96752e-07 -1.9848e-09)
(0.000775273 3.67239e-07 1.36163e-07)
(0.000774241 4.02411e-07 9.97287e-08)
(0.000772429 1.98127e-08 4.41272e-08)
(0.000770824 6.70312e-08 3.53247e-08)
(0.00076968 1.45979e-07 5.48161e-08)
(0.000768593 3.97647e-07 3.54849e-09)
(0.00076663 7.87166e-07 2.62933e-09)
(0.000764708 4.12246e-07 1.98135e-08)
(0.000763557 2.5674e-07 5.86958e-08)
(0.000762036 5.91263e-08 6.72003e-08)
(0.000760743 -1.60529e-07 8.03308e-08)
(0.000760216 -7.14616e-07 1.07659e-07)
(0.000758947 -2.36544e-07 5.62029e-08)
(0.000757085 1.53476e-08 4.37764e-08)
(0.000755675 2.82162e-07 1.65231e-07)
(0.000754315 5.1679e-08 5.05573e-08)
(0.000752856 -1.27908e-07 -9.6875e-08)
(0.000751746 -1.56674e-07 1.06426e-07)
(-0.00429164 -0.00551244 0.000461859)
(0.058664 -0.000759469 -0.00363172)
(-0.0203902 0.00175049 0.000776392)
(-0.0266257 0.000522856 0.00540976)
(-0.030329 0.00399528 0.00119322)
(-0.00242395 0.00727525 -0.000512645)
(0.000493878 -7.66884e-05 3.04113e-05)
(0.000920809 -7.68985e-05 -2.56848e-06)
(0.000863589 -1.11972e-05 -4.20903e-07)
(0.000841381 -1.50775e-05 1.29736e-08)
(0.00082803 -8.12751e-06 3.90683e-08)
(0.000818584 -5.37943e-06 3.80909e-08)
(0.00081247 -3.38468e-06 4.44709e-08)
(0.000808009 -2.17507e-06 4.83871e-08)
(0.000804581 -1.36257e-06 4.94692e-08)
(0.000801878 -8.46145e-07 5.05598e-08)
(0.00079964 -7.2063e-07 5.17821e-08)
(0.00079756 -6.82646e-07 5.7829e-08)
(0.000795914 -8.55762e-07 1.28434e-07)
(0.000794457 -3.66568e-07 4.09232e-08)
(0.000792755 -2.90549e-07 5.6827e-08)
(0.000791551 -8.07818e-08 4.42082e-08)
(0.000789734 -2.52197e-08 7.21718e-08)
(0.000787709 -1.22421e-09 5.78036e-08)
(0.000786324 -1.79106e-07 3.66318e-08)
(0.000784908 -1.39039e-07 4.56269e-08)
(0.000783397 -4.98982e-08 5.14952e-08)
(0.000781667 -5.19703e-08 5.2605e-08)
(0.000780359 -1.6156e-07 1.45696e-08)
(0.000779519 1.27511e-07 2.15953e-09)
(0.000778224 3.76096e-07 2.117e-07)
(0.000777079 4.37117e-07 6.55124e-08)
(0.000775523 4.40317e-07 -1.49431e-08)
(0.000773284 2.00948e-07 -1.57514e-09)
(0.000772082 -4.95678e-08 9.69154e-08)
(0.00077101 6.10677e-08 5.15927e-08)
(0.000769601 2.49946e-08 1.17431e-07)
(0.000768229 -7.86301e-08 5.06693e-08)
(0.000766735 -3.20734e-07 2.31842e-08)
(0.00076517 -1.71584e-07 8.73429e-09)
(0.000763528 -5.91261e-08 6.51976e-08)
(0.000761955 1.52601e-07 6.66176e-08)
(0.000760692 5.224e-07 1.88831e-07)
(0.000759933 6.07364e-07 1.45962e-07)
(0.000758992 1.30386e-07 8.31114e-08)
(0.000757513 1.51978e-07 4.38964e-08)
(0.000755803 2.86598e-07 1.13241e-07)
(0.000754088 3.94284e-07 8.15554e-08)
(0.000752662 1.42995e-07 7.53646e-08)
(0.000751713 9.42997e-08 1.11325e-07)
(0.0149945 0.00600033 -0.00150294)
(-0.00776696 -0.00257636 0.000972953)
(0.0062022 0.0080599 0.00283017)
(0.00267563 0.0148162 -0.00067019)
(0.0136544 -0.00179913 0.000369191)
(-0.00347274 0.000514191 -0.000174044)
(0.00120919 -5.02656e-05 8.51146e-06)
(0.000493637 -1.339e-05 -1.31072e-06)
(0.000915419 1.97463e-05 -1.26503e-06)
(0.000829122 4.26698e-06 -2.68873e-07)
(0.0008301 4.16941e-06 1.64537e-07)
(0.000818705 2.35451e-06 2.54805e-08)
(0.000812908 1.31643e-06 5.29591e-08)
(0.000808309 9.00045e-07 4.71709e-08)
(0.000804801 7.61722e-07 4.50855e-08)
(0.000801922 5.24772e-07 4.52039e-08)
(0.000799587 2.37363e-07 4.87143e-08)
(0.000797524 7.06691e-08 6.20569e-08)
(0.000795969 3.84891e-08 4.90998e-08)
(0.000794382 -2.3508e-07 3.21783e-08)
(0.000792714 -2.13877e-07 6.09352e-08)
(0.000791148 -3.10432e-07 5.18083e-08)
(0.000789606 -6.27837e-07 2.15676e-08)
(0.000788149 -2.96858e-07 4.86105e-08)
(0.000786697 -1.78109e-07 2.1216e-07)
(0.000785148 -1.92454e-08 6.16996e-08)
(0.000783552 1.08895e-07 5.93458e-08)
(0.000782155 3.53874e-07 5.83552e-08)
(0.000781008 7.30245e-07 -3.20237e-08)
(0.000779512 6.56041e-07 3.81723e-08)
(0.000777789 3.52528e-07 6.95468e-08)
(0.000776361 4.61108e-07 3.62276e-09)
(0.000774974 -7.28875e-08 4.25755e-08)
(0.000773627 -6.22687e-08 4.57558e-08)
(0.000772254 1.49823e-07 1.67464e-08)
(0.000770917 5.69372e-08 4.95869e-08)
(0.000769506 9.72281e-09 1.41515e-07)
(0.000768161 -2.51491e-08 4.6587e-08)
(0.000766515 -2.68987e-07 1.56887e-08)
(0.000765035 -3.01935e-07 -1.33287e-08)
(0.000763962 -2.07554e-07 5.54822e-08)
(0.00076276 2.95337e-08 4.73556e-08)
(0.000761308 3.02234e-07 1.01856e-07)
(0.000759721 6.3096e-07 -1.07838e-07)
(0.000758374 2.38898e-07 4.97003e-08)
(0.000757278 9.97202e-08 3.49109e-08)
(0.000755975 6.79916e-08 7.87026e-08)
(0.000754133 3.07097e-07 -8.37028e-09)
(0.000752478 2.15203e-07 4.98769e-08)
(0.000751449 2.34715e-07 1.7182e-07)
(-0.000901985 -0.0100811 0.00111286)
(-0.0122051 0.00641547 -0.00168999)
(-0.00409474 -0.00203854 0.000573105)
(0.0019059 2.47361e-05 1.36506e-05)
(0.0127533 0.0141732 0.000630034)
(-0.00171631 -0.00456543 0.000164125)
(0.00263552 0.00097985 0.000112921)
(0.000513028 3.23244e-05 -2.08554e-06)
(0.000914677 3.48362e-05 -1.19093e-06)
(0.000821818 2.2078e-05 -6.58666e-07)
(0.000825683 1.45577e-05 1.6853e-07)
(0.000815042 9.11756e-06 2.15794e-07)
(0.000810668 5.99574e-06 2.19393e-07)
(0.000807326 3.5792e-06 4.7933e-08)
(0.000804118 1.95816e-06 2.78717e-08)
(0.000801225 1.12139e-06 2.33525e-08)
(0.000799074 8.05944e-07 4.63107e-08)
(0.000797313 5.53172e-07 5.13374e-08)
(0.000795534 4.59141e-07 6.11438e-08)
(0.000794144 3.51553e-07 6.38651e-08)
(0.000792664 1.25826e-07 6.35157e-08)
(0.000791037 2.21554e-07 4.10712e-08)
(0.000789755 1.84028e-07 2.61585e-07)
(0.000788275 1.27697e-07 9.85225e-08)
(0.000786673 1.19981e-07 1.09102e-07)
(0.000785268 -1.5906e-07 7.87752e-08)
(0.000783862 1.21404e-07 6.78709e-08)
(0.000782438 2.21117e-07 5.65489e-08)
(0.000780731 3.76561e-07 2.41785e-08)
(0.000779038 2.5806e-07 1.43511e-07)
(0.000777974 1.08478e-07 5.62531e-08)
(0.000776542 -1.35702e-07 1.80272e-08)
(0.000774865 1.29893e-07 3.16002e-08)
(0.000773561 7.58677e-08 4.88086e-08)
(0.000772231 1.24622e-07 5.25528e-08)
(0.000770834 -1.37299e-08 4.81264e-08)
(0.000769498 -7.6376e-08 6.34603e-08)
(0.000767882 -2.10201e-07 5.00395e-08)
(0.000766391 -1.72489e-07 4.38325e-08)
(0.000765248 -4.14636e-08 -9.12531e-08)
(0.000763942 1.27093e-07 5.66973e-08)
(0.000762591 1.04532e-07 4.06843e-07)
(0.00076144 4.52793e-08 2.65321e-08)
(0.00075985 7.69756e-09 5.03889e-08)
(0.000758325 -4.86477e-08 1.76109e-07)
(0.000757298 -1.91804e-07 4.99354e-08)
(0.000756061 -5.14688e-07 1.22149e-08)
(0.000754271 -8.53143e-07 3.79647e-08)
(0.000752566 -2.69702e-07 6.31203e-08)
(0.000751153 5.66175e-08 5.31561e-08)
(0.0356171 0.00774087 -0.00288146)
(-0.00219622 0.00302053 0.00461603)
(0.00663913 -0.00162862 -1.46854e-05)
(0.0136742 0.00456962 -3.67657e-06)
(0.00806969 0.00946577 -0.000107981)
(-0.00246947 0.00139368 -0.000101461)
(0.00157311 -2.49607e-05 0.000143145)
(0.000453415 3.7997e-05 -2.03121e-06)
(0.000883676 5.55521e-05 -1.27188e-06)
(0.000803969 3.58608e-05 -5.76223e-07)
(0.000813828 2.16667e-05 1.65685e-07)
(0.000807956 1.33889e-05 2.01505e-08)
(0.000805956 8.46381e-06 -4.81658e-08)
(0.000803244 5.06636e-06 4.38452e-08)
(0.000801719 2.83967e-06 7.33289e-08)
(0.000800476 1.66062e-06 7.61371e-08)
(0.000798873 1.07719e-06 4.86761e-08)
(0.000797088 6.81989e-07 2.36355e-08)
(0.000795714 4.99942e-07 2.09318e-08)
(0.000793963 5.93761e-07 5.77614e-08)
(0.00079255 5.40038e-07 1.82233e-09)
(0.00079122 4.12602e-07 1.89639e-07)
(0.000789488 3.28847e-07 5.49351e-08)
(0.000788068 1.80909e-07 -1.95089e-09)
(0.000786339 1.61079e-07 6.95055e-08)
(0.000785149 2.28234e-07 1.27788e-09)
(0.000784027 -1.1936e-08 3.90218e-08)
(0.000782472 -1.46446e-07 8.75497e-09)
(0.000781051 -1.33123e-07 3.17467e-08)
(0.000779174 -3.72874e-07 -8.35636e-08)
(0.000777296 -2.26567e-07 2.56322e-08)
(0.000776386 -2.14774e-07 1.93405e-07)
(0.000775238 -1.92942e-07 1.84224e-08)
(0.000773618 -1.14552e-07 -1.40136e-07)
(0.000772141 -1.25696e-07 -3.31491e-08)
(0.000770665 -5.77905e-08 4.00203e-08)
(0.000769261 -5.8665e-08 3.96878e-08)
(0.000768043 -6.7122e-08 5.412e-08)
(0.000766727 1.11896e-07 6.2211e-08)
(0.00076541 1.43932e-07 5.58282e-08)
(0.000764144 1.89927e-07 6.08862e-08)
(0.000762657 4.08401e-07 2.64368e-07)
(0.000761186 2.90995e-07 3.72247e-08)
(0.000759604 7.92507e-09 5.31775e-08)
(0.000758126 1.99172e-08 8.21078e-08)
(0.000756698 -1.66527e-07 4.56971e-08)
(0.000755153 -5.11577e-07 -7.28936e-08)
(0.000754443 -7.2864e-07 4.94752e-08)
(0.000753616 -5.23834e-07 1.9633e-07)
(0.000751716 -3.25473e-07 1.26297e-07)
(0.00565433 0.00435027 -6.66958e-05)
(0.0130469 -0.00335907 0.000538661)
(0.00550767 -0.0143295 -0.000356389)
(0.000633268 -0.000191296 0.000179638)
(-0.0008704 -0.00722868 0.000349481)
(-0.00107992 0.00448562 0.000289454)
(0.00171825 -0.000974836 0.000157933)
(0.000448472 7.0791e-05 1.83878e-07)
(0.000825426 4.30694e-05 -1.28728e-06)
(0.000778848 3.36087e-05 -4.27789e-07)
(0.000797418 1.89369e-05 1.69097e-07)
(0.000798432 1.19587e-05 3.84861e-08)
(0.0008002 7.11528e-06 5.46801e-08)
(0.000800256 4.52558e-06 5.16631e-08)
(0.000799837 3.03794e-06 5.45673e-08)
(0.000799009 1.97612e-06 5.2505e-08)
(0.000797842 1.17054e-06 5.16168e-08)
(0.000796586 7.70411e-07 8.87761e-08)
(0.000795418 6.71194e-07 6.0979e-08)
(0.00079419 2.74322e-07 4.66182e-08)
(0.000792433 4.1955e-07 4.49836e-08)
(0.00079077 1.35138e-07 4.68988e-08)
(0.000789463 2.04169e-07 3.59629e-08)
(0.000788063 9.36358e-08 5.11324e-08)
(0.00078673 1.80356e-07 1.25183e-07)
(0.000785051 2.23722e-07 9.30151e-08)
(0.000783393 -8.99508e-08 4.14724e-08)
(0.000782288 -3.1716e-07 4.56233e-08)
(0.000780451 -7.42993e-07 -3.80625e-08)
(0.000778925 -7.91777e-07 1.08289e-07)
(0.000778175 -4.71696e-07 3.20839e-08)
(0.000776588 -2.81302e-08 1.22625e-07)
(0.000774993 -3.41796e-08 4.21722e-08)
(0.000773648 -1.03778e-07 6.90839e-08)
(0.000772303 -1.41581e-07 5.09674e-08)
(0.000770919 -2.73475e-08 6.44924e-08)
(0.000769487 3.56832e-08 4.88903e-08)
(0.000768095 8.59198e-08 5.57293e-08)
(0.000766654 5.85492e-08 7.06103e-08)
(0.000765345 2.18989e-07 -5.56747e-08)
(0.000764271 2.61268e-08 4.27887e-08)
(0.000762715 -2.07447e-07 -1.91558e-08)
(0.000760938 -1.65759e-07 6.29765e-08)
(0.00075951 -2.26807e-07 5.4196e-08)
(0.000758108 -6.25649e-08 3.37861e-08)
(0.000756636 -1.36074e-09 4.9684e-08)
(0.000755363 -8.13457e-09 7.15366e-08)
(0.000754261 1.33266e-07 3.32182e-08)
(0.00075308 -3.15417e-07 4.23367e-09)
(0.000752213 -3.25159e-07 5.22313e-08)
(-0.00908904 0.0172127 0.00142447)
(0.0147848 0.00981731 0.00080446)
(0.00693742 -0.00222783 -0.000557999)
(-0.00359193 0.00467016 0.00016977)
(-0.00713345 0.00556138 -0.00028395)
(0.00212918 -0.00260731 2.06666e-05)
(0.000556343 0.000249743 6.9754e-06)
(0.00073958 6.23204e-05 -1.79816e-06)
(0.00075028 1.00739e-05 -7.62972e-08)
(0.000773618 1.38255e-05 7.12484e-08)
(0.000786572 7.57754e-06 6.83675e-08)
(0.000793063 5.13993e-06 5.3927e-08)
(0.000796592 3.2338e-06 5.6174e-08)
(0.000798102 2.06614e-06 5.11471e-08)
(0.000798503 1.39707e-06 4.91025e-08)
(0.000798123 9.6687e-07 5.05716e-08)
(0.000797354 6.3686e-07 1.46293e-07)
(0.000796456 5.37023e-07 7.7137e-08)
(0.000795089 4.26113e-07 9.23515e-08)
(0.000793645 2.96205e-07 3.40148e-08)
(0.000792374 6.96573e-08 4.92033e-08)
(0.000790948 1.36307e-07 7.61483e-08)
(0.000789435 -3.74761e-08 3.7509e-08)
(0.000788037 -5.5485e-08 4.68328e-08)
(0.0007865 -3.12832e-07 8.78929e-08)
(0.000784811 -3.33153e-07 4.60422e-08)
(0.000783351 -1.22006e-07 -1.98527e-07)
(0.000781658 -9.6222e-08 2.69585e-07)
(0.000780463 -2.38176e-07 1.3896e-07)
(0.000779519 3.06756e-07 6.39536e-08)
(0.000778255 3.59673e-07 9.52717e-08)
(0.000776936 4.60266e-08 5.04797e-08)
(0.000775145 1.21201e-09 4.21416e-08)
(0.000773485 5.80971e-08 4.94853e-08)
(0.000772237 1.78878e-08 6.43314e-08)
(0.000770887 -1.03309e-07 6.66601e-08)
(0.000769402 -2.56774e-07 5.93724e-08)
(0.000768071 -1.79768e-07 9.87023e-09)
(0.000766893 -2.98835e-08 4.3419e-08)
(0.000765369 -2.61848e-08 8.0113e-08)
(0.000763611 -9.60548e-08 2.09426e-08)
(0.000762419 -1.99103e-07 5.53422e-08)
(0.000761164 -1.75311e-07 5.83096e-08)
(0.000759736 -1.03723e-07 4.60977e-08)
(0.000758409 -8.9819e-08 6.38238e-08)
(0.000756767 6.453e-08 4.59831e-08)
(0.000755322 4.44701e-07 4.04911e-08)
(0.000754061 3.28061e-07 5.3403e-08)
(0.000753052 2.72335e-07 1.04834e-07)
(0.000752514 -4.49606e-08 3.52113e-08)
(0.00631012 0.0189931 -0.00304881)
(-0.0237466 -0.027443 5.14848e-05)
(-0.0124262 -0.00678784 9.76282e-05)
(0.00777011 0.000537765 -0.000122249)
(0.00338562 0.00436175 6.45148e-05)
(0.000540885 -0.00157254 0.000147223)
(0.000248848 -4.36014e-05 4.72873e-06)
(0.000742351 -3.48072e-05 -1.9536e-06)
(0.00075332 -2.03231e-05 5.29609e-08)
(0.000775529 -1.05222e-05 9.86708e-08)
(0.000786435 -6.19659e-06 6.13972e-08)
(0.000792924 -3.35755e-06 -3.72998e-08)
(0.000796307 -1.94714e-06 4.58924e-08)
(0.000797927 -1.3866e-06 5.561e-08)
(0.000798442 -7.65552e-07 5.20856e-08)
(0.000798045 -3.76522e-07 1.09153e-07)
(0.000797296 -1.09845e-07 -8.42078e-09)
(0.000796315 -1.47249e-07 3.11481e-08)
(0.000795112 -1.74399e-07 2.14927e-08)
(0.000793741 6.2649e-08 7.7798e-08)
(0.000792231 2.43528e-07 4.44515e-08)
(0.000790636 -8.03103e-08 7.1927e-08)
(0.000789223 -1.73268e-07 5.33666e-08)
(0.000787721 -2.15154e-07 5.22794e-08)
(0.000786386 -3.33764e-07 -1.58903e-09)
(0.000785292 -3.0904e-07 6.07862e-08)
(0.000783691 -1.65168e-07 2.15489e-08)
(0.000782145 3.60468e-08 4.57739e-08)
(0.000780954 3.09366e-07 5.20434e-08)
(0.000779671 3.57088e-07 -1.9958e-08)
(0.000777847 3.99966e-07 -1.3743e-09)
(0.000776138 2.15212e-07 1.24845e-07)
(0.000775008 -1.24695e-07 -2.76929e-07)
(0.000773668 -7.18147e-08 2.88101e-09)
(0.000772102 -3.2054e-08 3.20803e-08)
(0.000770577 -1.27834e-07 4.52439e-08)
(0.000769393 2.61876e-08 7.55351e-08)
(0.000768379 -4.63341e-08 5.23193e-08)
(0.000766846 -2.422e-07 8.52945e-08)
(0.000765262 -2.63073e-07 4.03653e-08)
(0.000764056 -1.48205e-07 5.76706e-08)
(0.000762618 1.72499e-08 2.3981e-08)
(0.000761059 3.34984e-07 4.09607e-08)
(0.000759619 1.53772e-07 3.85096e-08)
(0.000758319 1.68305e-07 6.82712e-08)
(0.000757303 7.98378e-08 5.13788e-08)
(0.00075569 2.24655e-07 2.54179e-08)
(0.000754042 4.32808e-07 4.55391e-08)
(0.000752613 7.46986e-07 -7.393e-08)
(0.000751925 4.93752e-07 8.7832e-08)
(0.00106666 -0.00886012 -0.000568091)
(0.0120358 -0.00300911 0.000184926)
(-0.00109614 0.00215796 0.000224304)
(-0.000316478 -0.00305518 2.11e-05)
(0.00156544 -0.00349301 -2.25603e-05)
(-0.00134112 -0.00226914 6.28019e-05)
(0.000422448 -9.55207e-05 -1.77758e-06)
(0.000787634 -6.70778e-05 -2.33269e-06)
(0.000780633 -4.20078e-05 -7.12205e-08)
(0.000791257 -2.56706e-05 6.56195e-08)
(0.000795506 -1.58594e-05 8.24346e-08)
(0.000798359 -9.93047e-06 6.85218e-08)
(0.000799044 -6.1437e-06 9.3497e-08)
(0.000799572 -3.43782e-06 7.69335e-08)
(0.000799761 -2.14446e-06 5.59673e-08)
(0.000798939 -1.31981e-06 6.40326e-08)
(0.000797638 -7.63449e-07 4.48996e-08)
(0.000796373 -3.66385e-07 8.57196e-08)
(0.00079535 -2.01302e-07 4.54381e-08)
(0.000794166 -3.92125e-07 5.0767e-08)
(0.000792194 -5.4829e-07 1.779e-08)
(0.000790428 -2.80944e-07 4.16044e-08)
(0.000789268 -1.2959e-07 5.64405e-08)
(0.000787839 -1.34028e-07 4.77924e-08)
(0.000786386 6.29652e-09 5.50233e-08)
(0.000785025 -3.77644e-08 6.4686e-08)
(0.000783785 -7.28081e-08 1.18873e-07)
(0.000782252 3.20541e-08 3.44985e-08)
(0.000780863 1.82189e-07 8.62117e-08)
(0.00077963 -7.83526e-08 4.19103e-08)
(0.000778075 -1.10587e-07 1.36305e-07)
(0.000776279 -9.56086e-08 -1.15137e-08)
(0.000774786 -1.02622e-07 -4.39048e-08)
(0.000773602 -2.83688e-07 1.99309e-07)
(0.000772169 -6.18271e-08 7.19546e-08)
(0.000770961 3.71307e-08 3.56066e-08)
(0.000769505 1.59737e-07 3.56875e-08)
(0.000767737 -1.25608e-07 4.76427e-08)
(0.000766624 -6.00192e-07 5.95381e-08)
(0.000765489 -2.28058e-07 5.97628e-08)
(0.000763964 -1.43059e-07 5.02292e-08)
(0.000763023 -2.97958e-07 6.94373e-08)
(0.000761334 -2.57389e-07 2.8197e-08)
(0.000759526 1.79455e-07 8.01386e-08)
(0.000758316 6.75475e-08 2.48205e-08)
(0.000756835 -1.3071e-08 4.41766e-08)
(0.000755759 -2.83278e-07 2.49353e-08)
(0.000754708 4.18037e-08 4.99401e-08)
(0.000753113 1.64203e-07 -3.96644e-08)
(0.000750968 2.92393e-07 6.45576e-08)
(-0.000217168 -0.000282755 0.000291179)
(-0.0025541 -0.0148404 -0.00439806)
(-0.0101443 -0.00380918 0.00265669)
(-0.00957992 0.00502419 -0.0003398)
(-0.00828632 -0.000912025 -0.000763856)
(0.00116361 -0.00318149 -0.000240081)
(0.00136493 -0.000144029 6.98084e-07)
(0.00137027 -0.000106944 3.46902e-07)
(0.00133353 -7.12251e-05 3.15566e-07)
(0.00134194 -4.6852e-05 3.45237e-07)
(0.00134037 -2.9963e-05 3.79954e-07)
(0.00133977 -1.93605e-05 2.91702e-07)
(0.00133935 -1.22471e-05 2.5878e-07)
(0.00133731 -7.1853e-06 3.49009e-07)
(0.00133456 -4.53491e-06 3.43063e-07)
(0.00133245 -2.97901e-06 5.06242e-07)
(0.00133034 -1.83868e-06 3.35363e-07)
(0.00132798 -8.35361e-07 3.33104e-07)
(0.00132482 -2.51384e-07 1.39385e-07)
(0.00132192 -5.65232e-07 4.05649e-07)
(0.00132031 -7.3708e-07 3.50202e-07)
(0.00131816 -2.27501e-07 3.05453e-07)
(0.00131528 -2.10499e-07 2.90684e-07)
(0.00131282 5.3059e-08 2.85603e-07)
(0.00131048 4.29998e-07 3.39142e-07)
(0.00130821 7.16649e-07 3.28304e-07)
(0.00130588 3.87246e-07 2.99578e-07)
(0.00130376 1.999e-07 3.26276e-07)
(0.00130092 3.68835e-07 4.21933e-07)
(0.00129828 -4.2988e-08 3.87542e-07)
(0.00129585 -8.26307e-07 3.50637e-07)
(0.00129303 -8.57034e-07 1.26488e-07)
(0.00129078 -6.81575e-07 3.36494e-07)
(0.00128913 -1.49124e-07 3.73675e-07)
(0.00128707 2.0445e-07 3.64598e-07)
(0.00128427 2.46088e-07 3.31647e-07)
(0.00128145 2.478e-08 3.05317e-07)
(0.00127855 4.23419e-07 2.7825e-07)
(0.00127723 1.10304e-06 3.01268e-07)
(0.00127573 4.83951e-07 3.15499e-07)
(0.00127274 1.10055e-07 2.80842e-07)
(0.00127021 -9.06569e-08 3.44122e-07)
(0.00126882 -1.13376e-06 3.59551e-07)
(0.00126611 -8.23518e-07 2.0934e-07)
(0.00126296 -3.30375e-07 3.21084e-07)
(0.00126088 -1.29933e-07 3.29601e-07)
(0.00125892 -2.83651e-08 2.86056e-07)
(0.00125703 -2.54857e-07 3.24655e-07)
(0.00125419 -5.24481e-07 3.35118e-07)
(0.00125152 -5.17666e-07 2.45625e-07)
(-0.0137604 -0.0130231 0.00425461)
(-0.00451529 -0.0228521 -0.00129362)
(-0.126765 -0.0698243 0.0690711)
(0.0730435 0.00589328 0.000907142)
(0.0217054 -0.0267479 0.00297918)
(0.013084 -0.00879005 0.00322947)
(0.00132794 -0.000279001 -1.52016e-05)
(0.00142315 -0.000126632 3.65734e-07)
(0.0013752 -7.39404e-05 3.89075e-07)
(0.00136898 -4.7573e-05 3.53935e-07)
(0.00135923 -2.9459e-05 3.39752e-07)
(0.00135205 -1.83335e-05 3.38153e-07)
(0.00134648 -1.1475e-05 3.37591e-07)
(0.00134183 -7.63582e-06 3.35461e-07)
(0.00133778 -4.76007e-06 3.34249e-07)
(0.00133459 -3.07743e-06 2.53821e-07)
(0.00133179 -1.98253e-06 3.32812e-07)
(0.001329 -1.52554e-06 3.82267e-07)
(0.00132559 -1.21478e-06 4.65358e-07)
(0.00132254 -4.28168e-07 3.02829e-07)
(0.0013203 2.18216e-07 3.73827e-07)
(0.00131771 6.62708e-08 3.67364e-07)
(0.00131547 7.98557e-07 3.16616e-07)
(0.00131352 5.66915e-07 5.76185e-07)
(0.00131107 6.01013e-07 1.20784e-07)
(0.00130792 3.17432e-07 2.58987e-07)
(0.0013053 2.16627e-07 4.55562e-07)
(0.00130335 -2.49065e-07 3.25673e-07)
(0.00130076 -1.03208e-06 3.26776e-07)
(0.00129749 -8.88206e-07 5.95254e-08)
(0.00129527 -6.41994e-07 3.65611e-08)
(0.00129344 -3.48872e-07 2.58213e-07)
(0.00129167 6.76578e-07 4.93678e-07)
(0.00128988 7.53527e-07 6.20099e-07)
(0.0012869 1.00439e-07 3.34377e-07)
(0.00128419 1.22266e-07 3.11816e-07)
(0.00128222 2.65519e-07 3.19837e-07)
(0.00128036 6.53208e-07 7.02904e-08)
(0.00127716 1.26478e-06 3.38179e-07)
(0.001274 7.25054e-07 3.00539e-07)
(0.00127201 3.87534e-07 3.31849e-07)
(0.00126947 3.0206e-08 3.62551e-07)
(0.00126733 -3.29901e-07 3.02814e-07)
(0.00126636 -1.14479e-06 5.3541e-07)
(0.00126421 -3.82504e-07 3.44844e-07)
(0.00126123 -6.74315e-08 2.47406e-07)
(0.00125889 4.42215e-07 5.80754e-07)
(0.00125655 6.25965e-08 3.11453e-07)
(0.00125413 -2.5352e-07 2.50869e-08)
(0.00125228 -2.82799e-07 3.93152e-07)
(0.0303684 0.0148191 -0.0131756)
(-0.0369746 -0.00959517 -0.0035604)
(-0.0542434 -0.0245061 -0.0280705)
(-0.0360404 -0.00560888 0.02129)
(0.00682533 0.0126131 0.00217854)
(-0.0145226 -0.0239658 -0.00440607)
(0.00116745 -0.000109664 6.60255e-05)
(0.00152712 -0.000137514 4.54268e-07)
(0.00143249 -2.51898e-05 2.41874e-07)
(0.00139804 -2.86901e-05 3.50425e-07)
(0.00137723 -1.56898e-05 3.45142e-07)
(0.00136243 -1.0232e-05 3.4104e-07)
(0.00135284 -6.40638e-06 3.38546e-07)
(0.00134578 -4.08972e-06 3.37183e-07)
(0.00134031 -2.56717e-06 3.3517e-07)
(0.00133595 -1.60046e-06 3.32539e-07)
(0.0013323 -1.29791e-06 3.34244e-07)
(0.00132896 -1.15901e-06 2.43042e-07)
(0.0013262 -1.40362e-06 3.79261e-07)
(0.00132372 -6.37067e-07 3.19394e-07)
(0.00132093 -5.10848e-07 3.09115e-07)
(0.00131888 -1.58449e-07 3.27188e-07)
(0.0013159 -4.94901e-08 3.3659e-07)
(0.00131257 1.69617e-08 3.27415e-07)
(0.00131016 -3.26947e-07 2.89504e-07)
(0.00130772 -2.05861e-07 3.35687e-07)
(0.00130517 -8.96357e-08 3.36644e-07)
(0.00130221 -6.21208e-08 3.19493e-07)
(0.00130013 -2.64751e-07 1.94753e-07)
(0.00129878 3.28289e-07 1.61625e-07)
(0.00129653 7.7532e-07 4.87828e-07)
(0.00129468 8.1319e-07 4.62273e-07)
(0.00129216 7.37438e-07 1.93131e-07)
(0.0012884 3.65353e-07 1.66352e-07)
(0.00128628 -6.46524e-08 3.57758e-07)
(0.00128448 9.0376e-08 3.32276e-07)
(0.00128211 7.05011e-08 3.5507e-07)
(0.0012798 -9.57179e-08 3.4518e-07)
(0.00127732 -4.4596e-07 3.01617e-07)
(0.00127463 -2.42587e-07 3.37961e-07)
(0.00127187 -7.01601e-08 3.66446e-07)
(0.00126932 2.57971e-07 3.72175e-07)
(0.00126736 9.31135e-07 7.11455e-07)
(0.00126605 1.00771e-06 3.5295e-07)
(0.00126432 3.36229e-07 3.49097e-07)
(0.00126191 3.42214e-07 3.07013e-07)
(0.00125908 5.11281e-07 4.29712e-07)
(0.00125616 6.36057e-07 3.30085e-07)
(0.00125377 2.49882e-07 3.64716e-07)
(0.00125219 1.56554e-07 4.88836e-07)
(-0.00712485 -0.00482303 -0.00790643)
(-0.000852859 -0.0330166 -0.0260376)
(-0.0696751 -0.0208755 -0.00793851)
(-0.00833119 -0.0150206 -0.0100555)
(0.00152106 -0.00784704 0.00435576)
(0.00654031 0.0147658 -0.00485027)
(0.00101844 -0.000153754 -6.47863e-05)
(0.00150544 -6.02148e-05 4.88902e-06)
(0.00152518 2.49873e-05 3.26183e-07)
(0.00138122 2.29901e-06 5.5504e-07)
(0.00138257 3.92949e-06 3.47204e-07)
(0.00136381 2.05228e-06 3.41092e-07)
(0.00135426 1.04062e-06 3.38996e-07)
(0.00134669 7.72151e-07 3.37254e-07)
(0.00134093 7.8476e-07 3.34697e-07)
(0.00133621 5.67842e-07 3.33255e-07)
(0.00133236 2.21442e-07 3.33698e-07)
(0.00132888 3.0061e-08 3.05037e-07)
(0.00132626 -5.80064e-08 3.38558e-07)
(0.00132366 -4.71497e-07 3.0838e-07)
(0.00132091 -4.00163e-07 3.23323e-07)
(0.00131829 -5.30733e-07 3.32264e-07)
(0.00131569 -1.0145e-06 2.96818e-07)
(0.00131317 -5.23631e-07 2.39943e-07)
(0.00131079 -3.66837e-07 4.91731e-07)
(0.00130822 -8.81718e-08 2.84662e-07)
(0.00130548 1.72417e-07 3.90136e-07)
(0.00130313 6.43378e-07 3.68337e-07)
(0.00130124 1.36633e-06 2.64376e-07)
(0.00129878 1.20897e-06 2.99377e-07)
(0.00129586 7.51742e-07 3.59744e-07)
(0.00129338 9.32311e-07 2.83681e-07)
(0.0012911 6.67768e-09 3.15345e-07)
(0.00128887 -7.03061e-08 3.16374e-07)
(0.00128655 2.50359e-07 2.57853e-07)
(0.00128436 9.59617e-08 3.10681e-07)
(0.00128198 5.63028e-09 4.22288e-07)
(0.00127971 -6.64677e-08 3.37265e-07)
(0.00127698 -4.90202e-07 1.87779e-07)
(0.00127447 -5.32825e-07 1.93999e-07)
(0.00127263 -2.81752e-07 3.12918e-07)
(0.00127072 1.84852e-07 3.13467e-07)
(0.00126826 5.98508e-07 5.56045e-07)
(0.00126561 1.0324e-06 -5.17674e-08)
(0.00126337 3.89798e-07 3.4963e-07)
(0.00126145 1.66748e-07 3.38499e-07)
(0.00125925 6.04539e-08 3.73041e-07)
(0.00125622 4.37537e-07 2.56213e-07)
(0.00125352 3.45362e-07 3.69562e-07)
(0.00125178 3.931e-07 5.48166e-07)
(-0.063542 -0.0282655 -0.0372483)
(-0.0220271 -0.000998139 -0.0103032)
(-0.010572 -0.0105309 0.00990651)
(-0.00452541 0.000584046 -0.00147162)
(-0.00565105 -0.00126112 0.00236525)
(-0.00775203 0.0106799 -0.000140045)
(0.000256154 0.000729996 -5.81717e-05)
(0.001551 8.38896e-05 -4.06128e-07)
(0.00152827 5.19765e-05 6.29481e-07)
(0.00137162 3.25689e-05 4.07585e-07)
(0.00137703 2.15248e-05 3.63474e-07)
(0.00135889 1.34275e-05 6.01254e-07)
(0.00135128 8.86683e-06 4.72911e-07)
(0.00134549 5.2801e-06 3.37267e-07)
(0.00134007 2.88757e-06 3.23687e-07)
(0.00133526 1.65451e-06 3.35435e-07)
(0.00133163 1.19156e-06 3.32253e-07)
(0.00132861 8.02425e-07 3.32404e-07)
(0.00132558 7.09629e-07 3.26395e-07)
(0.00132329 5.97587e-07 3.02909e-07)
(0.00132086 1.88602e-07 3.59893e-07)
(0.00131812 3.48751e-07 2.79997e-07)
(0.00131592 2.73254e-07 5.73402e-07)
(0.00131339 1.76707e-07 3.74043e-07)
(0.00131071 2.16051e-07 2.99167e-07)
(0.0013084 -3.1281e-07 3.88787e-07)
(0.00130609 1.76418e-07 3.79952e-07)
(0.00130369 3.56945e-07 3.26607e-07)
(0.00130083 6.45611e-07 2.81135e-07)
(0.001298 4.5147e-07 4.47046e-07)
(0.00129617 2.2882e-07 3.51588e-07)
(0.00129374 -1.94183e-07 2.58841e-07)
(0.0012909 2.78877e-07 2.92152e-07)
(0.0012887 1.45868e-07 3.19929e-07)
(0.00128649 2.40257e-07 2.99399e-07)
(0.00128417 -1.2242e-08 3.19902e-07)
(0.00128191 -1.53096e-07 3.32022e-07)
(0.00127918 -3.44251e-07 3.22658e-07)
(0.00127674 -3.10945e-07 3.18788e-07)
(0.00127489 -9.68178e-08 -2.28673e-08)
(0.00127276 2.16363e-07 3.24256e-07)
(0.00127042 2.49259e-07 1.07616e-06)
(0.00126841 7.55328e-08 1.47085e-07)
(0.00126578 -4.11168e-09 2.45779e-07)
(0.00126323 -1.75376e-07 7.05236e-07)
(0.0012615 -3.66538e-07 3.165e-07)
(0.00125942 -8.98507e-07 1.09217e-07)
(0.00125651 -1.37453e-06 3.16466e-07)
(0.0012537 -4.54001e-07 4.45336e-07)
(0.00125127 1.01334e-07 3.29765e-07)
(-0.0111448 0.00543882 -0.00463771)
(-0.0142571 -0.0263507 0.000198584)
(-0.016963 0.00413271 0.00109078)
(0.000514306 -0.00801586 0.00217919)
(-0.0161491 0.0158558 -0.00109127)
(-0.00868414 -0.0116181 -2.42267e-05)
(0.00112363 -0.000808045 -7.13057e-05)
(0.00137333 0.000106378 -1.93008e-07)
(0.00147913 8.85758e-05 5.81663e-07)
(0.00134365 5.70988e-05 3.84076e-07)
(0.00135856 3.43726e-05 2.97724e-07)
(0.00134793 2.11976e-05 3.11408e-07)
(0.00134404 1.3395e-05 2.43092e-07)
(0.0013392 8.02378e-06 3.33967e-07)
(0.00133639 4.52261e-06 3.35989e-07)
(0.00133408 2.65673e-06 3.49074e-07)
(0.00133129 1.71732e-06 3.32094e-07)
(0.00132828 1.09127e-06 2.46856e-07)
(0.001326 8.07882e-07 2.90862e-07)
(0.00132301 1.01869e-06 4.20942e-07)
(0.00132059 9.0592e-07 1.98846e-07)
(0.00131839 6.83533e-07 5.70157e-07)