/*--------------------------------*- C++ -*----------------------------------*\
| =========                 |                                                 |
| \\      /  F ield         | OpenFOAM: The Open Source CFD Toolbox           |
|  \\    /   O peration     | Version:  5.0                                   |
|   \\  /    A nd           | Web:      www.OpenFOAM.org                      |
|    \\/     M anipulation  |                                                 |
\*---------------------------------------------------------------------------*/
FoamFile
{
    version     2.0;
    format      ascii;
    class       volVectorField;
    location    "1.4";
    object      U_0;
}
// * * * * * * * * * * * * * * * * * * * * * * * * * * * * * * * * * * * * * //

dimensions      [0 1 -1 0 0 0 0];

internalField   nonuniform List<vector> 
7933
(
(0.00444756 0.0106505 -0.000517413)
(0.00195436 0.00326844 0.000982761)
(0.00204172 -0.00592441 -0.000223017)
(-0.000746272 0.00178508 0.00171819)
(0.0092125 0.00362906 -0.00045125)
(0.00116007 -0.000392785 0.000113027)
(0.000423086 3.08038e-06 -1.18682e-06)
(0.000770367 -3.85019e-05 -1.92352e-06)
(0.000768498 -2.89341e-05 -8.94236e-08)
(0.000784706 -2.03206e-05 1.12272e-07)
(0.000790705 -1.34231e-05 1.03523e-07)
(0.000794534 -8.86027e-06 7.57779e-08)
(0.000796574 -5.71958e-06 1.07878e-10)
(0.000797153 -3.60037e-06 4.66582e-08)
(0.000796758 -2.28639e-06 4.55059e-08)
(0.000795836 -1.64445e-06 3.59476e-08)
(0.000794717 -1.09482e-06 5.2897e-08)
(0.000793682 -8.2627e-07 4.20274e-08)
(0.000792007 -7.76875e-07 1.15704e-07)
(0.000790481 -5.83734e-07 9.13172e-08)
(0.000789307 -2.81437e-07 4.72191e-08)
(0.000787626 -1.65925e-07 8.22488e-08)
(0.000786195 -2.16977e-08 1.15556e-08)
(0.000784842 2.04413e-08 4.53097e-08)
(0.000783223 1.81092e-07 6.87573e-09)
(0.000781583 3.02656e-07 7.01106e-08)
(0.000780258 3.58633e-07 9.02532e-09)
(0.000779045 1.68937e-07 5.17016e-08)
(0.000777139 3.9826e-07 9.18173e-08)
(0.000775269 -2.74497e-07 5.00162e-08)
(0.000773922 -6.82353e-07 -6.19614e-08)
(0.000772249 -5.3694e-07 1.25921e-08)
(0.000770839 -4.30882e-07 8.74852e-08)
(0.000769973 -7.62955e-08 3.09139e-08)
(0.000768675 2.4847e-08 4.61337e-08)
(0.000766872 1.32789e-07 7.14888e-08)
(0.000765193 2.11131e-08 5.19201e-08)
(0.000763741 1.08043e-07 2.16198e-08)
(0.000762261 3.27361e-07 5.6323e-08)
(0.00076114 4.04865e-07 7.47028e-08)
(0.000759944 6.15781e-08 3.30225e-08)
(0.000758328 1.16991e-08 7.3147e-08)
(0.000757082 -2.5799e-07 8.95274e-08)
(0.000755639 -2.59369e-07 2.29064e-07)
(0.000754138 -1.6176e-07 3.99911e-08)
(0.000752643 -1.06574e-07 2.94659e-08)
(0.000751245 -2.69586e-07 6.32344e-08)
(0.0007501 -5.24387e-07 1.80876e-07)
(0.00074842 -3.72799e-07 -1.52335e-08)
(0.000746726 -2.18089e-07 6.03022e-08)
(-0.0125384 0.000909842 0.000939116)
(0.00995326 -0.0164831 -2.14935e-05)
(-0.106763 -0.0832489 0.011684)
(0.0241753 -0.0115275 -9.56178e-05)
(0.00575978 -0.000701732 0.000345499)
(0.0052665 -0.000642835 0.000612768)
(0.000372289 -8.67113e-05 8.47185e-07)
(0.000791756 -8.92741e-05 -1.99121e-06)
(0.000788947 -5.30065e-05 4.3743e-08)
(0.000799189 -3.36581e-05 1.72299e-07)
(0.000801233 -2.0733e-05 6.83296e-08)
(0.000801518 -1.28511e-05 6.02183e-08)
(0.000800873 -7.97798e-06 5.56052e-08)
(0.000799765 -5.05893e-06 5.03507e-08)
(0.000798375 -3.23367e-06 5.06581e-08)
(0.000796974 -2.10041e-06 5.39801e-08)
(0.000795463 -1.27367e-06 5.07109e-08)
(0.000793762 -7.72947e-07 5.04816e-08)
(0.000792487 -4.57931e-07 -1.13323e-08)
(0.000791192 -1.92388e-07 2.63498e-08)
(0.000789411 -1.33688e-07 8.41711e-08)
(0.000787818 -3.66724e-08 6.23751e-08)
(0.000786292 2.62965e-07 1.84726e-07)
(0.00078487 2.55622e-07 2.89533e-08)
(0.000783419 3.05754e-07 5.84833e-08)
(0.000781808 1.17693e-07 1.68448e-07)
(0.000780135 8.68547e-08 8.34757e-08)
(0.00077879 -2.12581e-07 4.51217e-08)
(0.000776801 -9.13629e-07 -1.37805e-08)
(0.000774665 -5.62734e-07 7.62828e-08)
(0.000773786 -4.27817e-07 1.34997e-07)
(0.000772715 -2.39498e-07 5.7133e-08)
(0.000771448 4.0989e-07 1.99326e-07)
(0.000770026 6.10926e-07 4.50799e-08)
(0.000768352 2.46136e-07 4.55753e-08)
(0.000766818 1.11755e-07 3.18231e-08)
(0.000765475 1.8675e-07 3.70791e-08)
(0.000764101 2.21653e-07 5.66201e-08)
(0.000762568 3.37974e-07 4.092e-08)
(0.000760896 4.47445e-07 2.39155e-09)
(0.000759433 5.27005e-08 6.25635e-08)
(0.000758026 -2.9793e-07 6.13462e-08)
(0.000756653 -5.74244e-07 3.44535e-08)
(0.000755574 -3.27032e-07 1.00377e-07)
(0.0007542 -4.90719e-08 5.24814e-08)
(0.000752681 -1.28669e-07 5.61007e-08)
(0.000751292 1.14682e-07 1.0279e-08)
(0.000749924 -7.35739e-08 5.46062e-08)
(0.000748436 -2.61494e-07 9.09973e-08)
(0.000747464 -1.98413e-07 3.30501e-08)
(-0.00753503 -0.00544998 0.000449673)
(0.00300044 0.00482339 0.0012304)
(-0.0198445 0.000415751 -0.000969147)
(-0.0292943 -0.00142133 -6.10517e-06)
(-0.0164465 0.00547582 -0.000701194)
(-0.0017551 0.00508826 -0.000560751)
(0.000460021 -0.000120159 3.00792e-05)
(0.000888572 -0.000130975 -2.17696e-06)
(0.000838136 -4.15551e-05 -1.9637e-07)
(0.000825357 -3.26728e-05 2.90653e-08)
(0.000816905 -1.86036e-05 4.364e-08)
(0.000810594 -1.16429e-05 4.1711e-08)
(0.000806386 -7.16475e-06 4.72879e-08)
(0.000803128 -4.46213e-06 4.96283e-08)
(0.000800485 -2.8017e-06 5.08934e-08)
(0.000798305 -1.7202e-06 5.24282e-08)
(0.000796388 -1.11769e-06 5.3286e-08)
(0.000794709 -6.20826e-07 1.15895e-07)
(0.000792737 -4.03199e-07 1.11233e-07)
(0.000790888 -3.16984e-07 4.15551e-08)
(0.000789502 -3.05781e-07 2.49793e-07)
(0.00078812 -1.19158e-07 4.86765e-08)
(0.000786558 -1.39393e-07 3.89928e-08)
(0.000784892 -9.09006e-08 -2.84919e-09)
(0.000783048 -3.26662e-07 1.0884e-07)
(0.000781307 -7.22766e-08 8.51749e-08)
(0.000779844 -2.93188e-07 5.93853e-08)
(0.000777797 -2.11592e-07 6.34854e-08)
(0.000776706 -3.85981e-07 -9.03772e-08)
(0.000775882 3.77896e-07 1.60027e-08)
(0.00077433 7.32832e-07 8.40823e-08)
(0.000773297 6.91281e-07 7.45614e-08)
(0.0007719 4.39486e-07 2.92746e-07)
(0.000769765 2.82086e-07 1.2476e-07)
(0.000768048 1.3331e-07 9.75149e-08)
(0.000766797 1.80955e-07 5.36656e-08)
(0.000765328 1.5418e-07 5.94245e-08)
(0.000763927 5.19855e-08 4.63135e-08)
(0.000762539 1.22848e-07 3.97845e-08)
(0.00076078 3.41528e-08 3.06842e-08)
(0.000759011 1.01778e-07 6.31149e-08)
(0.000757546 2.2753e-08 6.49116e-08)
(0.00075705 5.55659e-07 5.16724e-08)
(0.000756298 2.54905e-07 8.17302e-08)
(0.000754389 1.21483e-07 7.71164e-08)
(0.000752849 1.81289e-07 7.29644e-08)
(0.000751315 3.70955e-07 6.842e-08)
(0.00074963 1.93706e-07 5.30811e-08)
(0.000748269 1.71162e-07 3.96282e-08)
(0.000747299 7.48493e-08 6.85461e-08)
(0.0122032 0.000476197 -0.00150484)
(-0.00800495 -0.00855803 0.000346846)
(0.00445721 0.00538461 0.0025863)
(0.00351054 0.0136148 -0.00059007)
(0.0143686 -0.00120788 0.000430498)
(-0.00247351 0.00094079 -0.000121827)
(0.00120162 -0.000134676 7.67056e-06)
(0.000496016 -5.0069e-05 -9.36878e-07)
(0.000917332 -1.33788e-05 -1.3834e-06)
(0.000828164 -1.63791e-05 -3.57205e-07)
(0.000827713 -8.51607e-06 1.54416e-07)
(0.00081593 -5.55486e-06 1.90694e-08)
(0.00080992 -3.46836e-06 5.31116e-08)
(0.000805262 -2.10808e-06 4.97064e-08)
(0.00080183 -1.28701e-06 5.01548e-08)
(0.000799097 -7.90301e-07 5.01552e-08)
(0.000796849 -5.28942e-07 4.9024e-08)
(0.000794663 -4.53961e-07 -2.89771e-08)
(0.000792872 -5.72194e-07 3.42473e-08)
(0.000791318 -6.29608e-07 3.18437e-08)
(0.000789661 -2.98709e-07 -8.6905e-08)
(0.000788028 -2.66736e-07 4.83253e-08)
(0.000786328 -3.24595e-07 3.29619e-08)
(0.000784637 -3.136e-07 6.71847e-08)
(0.000783444 -3.88982e-07 4.95959e-09)
(0.000781851 -2.36173e-07 9.14384e-08)
(0.000779962 4.57927e-08 6.12702e-08)
(0.000778675 2.87732e-07 7.9975e-08)
(0.000777537 9.83889e-07 7.26442e-08)
(0.000776061 7.52162e-07 2.442e-08)
(0.000774172 8.06718e-07 1.97496e-08)
(0.000772343 7.90071e-07 2.79994e-09)
(0.000770933 2.54888e-07 4.66511e-08)
(0.000769641 -2.93267e-08 4.86774e-08)
(0.000768224 1.23085e-07 5.27044e-08)
(0.000766844 7.91005e-08 8.12866e-08)
(0.000765314 5.62113e-08 3.91723e-08)
(0.000764061 -2.97943e-08 4.93514e-08)
(0.000762545 -3.03798e-07 4.69703e-09)
(0.000760869 -2.41469e-07 -4.39949e-09)
(0.000759418 6.02442e-08 6.06884e-08)
(0.000758591 4.1972e-07 2.95355e-08)
(0.00075694 6.36552e-07 6.34705e-08)
(0.000755027 3.06397e-07 1.17735e-08)
(0.000754104 -2.11624e-08 5.33521e-08)
(0.00075299 -2.35593e-08 6.73291e-08)
(0.000751304 -1.28692e-07 9.26355e-08)
(0.000749672 1.64818e-08 4.03894e-08)
(0.000748284 1.95612e-07 3.92653e-08)
(0.000747157 2.09204e-07 4.25461e-08)
(-0.00310423 -0.00827135 0.00102669)
(-0.00705836 0.00310225 -0.000270379)
(-0.000331996 -0.00246935 -0.000253618)
(0.00239301 0.000864744 -3.67347e-05)
(0.0131858 0.0142027 0.00072179)
(-0.00117348 -0.00485959 0.000212738)
(0.00270693 0.000874538 0.000112105)
(0.00054682 1.07179e-05 -1.42209e-06)
(0.000935944 1.25677e-05 -1.29835e-06)
(0.000831496 7.07545e-06 -6.11081e-07)
(0.000830545 4.83756e-06 1.64407e-07)
(0.000816969 2.9313e-06 -2.06016e-08)
(0.000810736 2.00814e-06 8.9792e-08)
(0.00080588 1.1986e-06 4.83719e-08)
(0.000802148 7.65352e-07 5.56154e-08)
(0.000799262 4.87554e-07 5.10065e-08)
(0.000796815 3.33765e-07 4.82691e-08)
(0.00079466 2.1722e-07 4.88907e-08)
(0.000792522 2.5924e-07 1.30617e-07)
(0.000791234 4.20739e-07 -1.19889e-08)
(0.00078996 -2.09811e-08 6.44282e-08)
(0.000788092 1.05684e-07 5.43914e-08)
(0.000786503 4.487e-08 4.67137e-08)
(0.000784816 1.12551e-07 9.93703e-08)
(0.000783148 2.55598e-07 9.08786e-08)
(0.000781852 -1.35427e-07 1.59032e-08)
(0.000780498 8.63445e-08 6.95165e-08)
(0.000778965 1.21246e-07 3.3965e-08)
(0.000777279 1.75129e-07 -1.32876e-09)
(0.000775652 9.81219e-08 4.47744e-09)
(0.000774369 1.94962e-07 4.97181e-08)
(0.000772601 -1.9265e-07 4.22192e-08)
(0.000770872 1.37087e-07 7.28792e-08)
(0.000769598 7.33847e-08 5.01795e-08)
(0.000768183 1.71007e-07 5.82296e-08)
(0.000766712 1.07504e-08 4.71309e-08)
(0.000765192 -3.77274e-08 -1.95134e-09)
(0.000763478 -2.14713e-08 5.49604e-08)
(0.000762277 -1.43602e-07 1.06048e-07)
(0.000761237 -5.26767e-08 8.22395e-08)
(0.000759837 1.45769e-07 4.68354e-08)
(0.000758263 4.48113e-07 1.52987e-07)
(0.000756904 1.12281e-07 5.78694e-08)
(0.000755473 9.73697e-08 -1.14393e-07)
(0.000753975 -1.6801e-08 4.61302e-08)
(0.000752714 -2.07542e-07 4.51458e-08)
(0.000751364 -4.90746e-07 -4.78441e-08)
(0.000750035 -4.05874e-07 4.18404e-08)
(0.000748504 -3.33635e-07 6.45902e-08)
(0.000746795 8.87903e-08 9.41464e-08)
(0.0310063 0.00137468 -0.00297853)
(-0.00285935 -0.000885298 0.00420828)
(0.00981368 -0.00250675 -5.73625e-05)
(0.0147282 0.00510813 -6.2987e-06)
(0.00780458 0.00856999 8.6461e-05)
(-0.00244659 0.00220864 -5.07238e-05)
(0.0016248 -3.06474e-05 0.000141746)
(0.000487078 3.06841e-05 -1.52455e-06)
(0.000911905 4.70076e-05 -1.3517e-06)
(0.000818836 2.97902e-05 -5.76355e-07)
(0.000822522 1.74913e-05 1.65767e-07)
(0.000812386 1.07141e-05 1.18934e-07)
(0.00080775 6.6437e-06 -1.70476e-08)
(0.000803706 4.03142e-06 4.59e-08)
(0.00080094 2.47316e-06 5.61953e-08)
(0.000798557 1.53465e-06 5.56046e-08)
(0.00079651 9.49435e-07 4.9404e-08)
(0.000794569 6.3724e-07 3.23275e-08)
(0.000793125 4.67781e-07 2.63484e-08)
(0.000790966 8.0278e-07 5.97483e-08)
(0.000789266 6.26839e-07 -7.26966e-08)
(0.00078811 3.61376e-07 7.21072e-08)
(0.000786336 2.45815e-07 7.39964e-08)
(0.000784899 1.35555e-07 6.65145e-08)
(0.000783134 1.00386e-07 6.43075e-08)
(0.000781639 2.23245e-07 4.98424e-08)
(0.000780283 -2.571e-08 4.10222e-08)
(0.000778785 -2.00842e-07 1.68834e-08)
(0.000777506 -1.97422e-07 1.00887e-07)
(0.000776084 -3.87821e-07 3.56503e-08)
(0.000773808 -7.27886e-07 -6.69528e-09)
(0.000772269 -4.8062e-07 -1.08865e-08)
(0.000771265 -3.2499e-07 1.60498e-08)
(0.000769681 -1.6356e-07 5.38575e-08)
(0.000768145 -1.84025e-07 5.85488e-08)
(0.000766582 -5.40949e-08 4.27687e-08)
(0.000765274 -3.89261e-08 3.474e-08)
(0.00076393 1.57067e-07 8.67051e-08)
(0.000762507 3.21297e-07 1.16506e-07)
(0.000761231 1.98672e-07 6.9931e-08)
(0.000760043 2.15275e-07 2.54709e-08)
(0.000758548 1.83316e-07 -2.73823e-08)
(0.0007565 1.97394e-07 3.37375e-08)
(0.000754866 7.11107e-09 5.95654e-08)
(0.000753724 2.56748e-08 2.34689e-07)
(0.000752401 -1.79169e-07 4.82262e-08)
(0.000751061 -4.89711e-07 -3.4299e-07)
(0.000749872 -5.35427e-07 5.27293e-08)
(0.000748904 -4.49493e-07 2.43755e-07)
(0.000747462 -1.73189e-07 1.7531e-07)
(0.0084285 -0.00127444 -0.00140557)
(-0.0281049 -0.000619273 -0.0011663)
(0.00161753 -0.0118797 4.5979e-05)
(0.000270583 0.00020728 0.000174991)
(-0.0012919 -0.00708839 0.000332619)
(-0.000727103 0.00426767 0.000307345)
(0.00181306 -0.00100815 0.000145095)
(0.000478397 7.47382e-05 3.47434e-07)
(0.000852988 4.81207e-05 -1.30254e-06)
(0.000794044 3.69304e-05 -4.27202e-07)
(0.000806565 2.10831e-05 1.69287e-07)
(0.000803329 1.32683e-05 3.88974e-08)
(0.000802333 8.03969e-06 5.51057e-08)
(0.000800637 5.05769e-06 5.09467e-08)
(0.000799009 3.16416e-06 5.13549e-08)
(0.000797346 1.97803e-06 4.9791e-08)
(0.000795686 1.24451e-06 5.04388e-08)
(0.000794053 7.87819e-07 7.56366e-08)
(0.000792724 4.43372e-07 1.34804e-07)
(0.000791428 8.33964e-08 5.85782e-08)
(0.000789403 4.64737e-07 -3.03703e-08)
(0.000787612 1.86913e-07 4.66497e-08)
(0.000786219 2.39827e-07 4.36252e-08)
(0.000784632 8.32824e-08 5.59184e-08)
(0.000783256 2.42689e-08 3.82674e-09)
(0.000781693 2.59994e-07 1.93068e-07)
(0.000779968 1.55828e-08 6.47786e-08)
(0.000778752 -2.65539e-08 6.78205e-08)
(0.000777048 -4.09478e-07 7.25644e-08)
(0.000774993 -7.80064e-07 2.16305e-08)
(0.000774258 -6.11136e-07 1.40787e-07)
(0.00077311 -1.60305e-07 6.39007e-08)
(0.000771271 -1.5239e-07 2.69767e-08)
(0.000769777 -1.41047e-07 3.5794e-08)
(0.000768321 -1.40583e-07 3.3224e-08)
(0.000766895 -8.8604e-09 1.19311e-07)
(0.000765456 7.1504e-08 5.17149e-08)
(0.000763928 9.39775e-08 5.29575e-08)
(0.000762327 1.5695e-07 4.68611e-08)
(0.000761103 2.81057e-07 1.08909e-08)
(0.000759816 -1.21124e-08 4.32492e-08)
(0.000758239 -3.01905e-07 5.18827e-09)
(0.000756683 -3.89624e-07 3.5986e-08)
(0.000755258 -1.75816e-07 4.93017e-08)
(0.000753743 -1.13427e-07 9.28747e-09)
(0.000752072 -2.1948e-08 4.87098e-08)
(0.000750923 -4.58012e-08 1.77956e-08)
(0.00075009 -2.79519e-07 6.62455e-08)
(0.000748966 -1.46916e-07 1.80092e-07)
(0.000747572 -3.08496e-07 7.64357e-08)
(-0.00819658 0.0177719 -0.000362114)
(0.0148798 0.00973724 0.00152856)
(0.0070928 -0.00260843 -0.000546127)
(-0.00372512 0.00488399 0.000166434)
(-0.00684137 0.00567449 -0.000261162)
(0.0022692 -0.00222405 2.8502e-05)
(0.000575816 0.0002738 9.51496e-06)
(0.000770909 9.33575e-05 -2.03367e-06)
(0.00077008 2.95868e-05 -2.09169e-07)
(0.000784854 2.6691e-05 3.92455e-08)
(0.000792757 1.5881e-05 5.48488e-08)
(0.00079597 1.04455e-05 4.71371e-08)
(0.000797416 6.63083e-06 5.13838e-08)
(0.000797568 4.22224e-06 4.96341e-08)
(0.000797063 2.68413e-06 4.92311e-08)
(0.00079614 1.64982e-06 5.17183e-08)
(0.000795011 1.11069e-06 9.24847e-08)
(0.00079356 8.25726e-07 1.45892e-07)
(0.00079224 8.63458e-07 1.13905e-07)
(0.00079099 3.95481e-07 3.56562e-08)
(0.000789393 1.10618e-08 4.62996e-08)
(0.000787827 9.4075e-08 5.10987e-08)
(0.000786206 -4.16221e-08 4.23387e-08)
(0.000784629 7.50403e-09 4.95727e-08)
(0.000783353 -9.13322e-08 4.31525e-08)
(0.000781628 -2.43175e-07 4.91062e-08)
(0.000779924 1.01208e-08 -9.82567e-09)
(0.000778256 9.91106e-08 4.99948e-08)
(0.000776569 -8.27286e-08 4.70549e-08)
(0.000775838 3.91968e-07 6.37145e-08)
(0.000774587 5.99536e-07 9.26954e-08)
(0.000772845 2.31059e-07 1.10967e-07)
(0.00077129 2.88472e-07 4.99635e-08)
(0.000769698 8.8378e-08 4.28934e-08)
(0.000768311 3.94858e-08 3.87959e-08)
(0.000766848 -8.82635e-08 2.35303e-08)
(0.000765403 -9.74037e-08 4.76878e-08)
(0.000764036 -2.32144e-07 5.02112e-08)
(0.00076274 4.41992e-08 3.86066e-08)
(0.000761019 1.03332e-07 6.79089e-08)
(0.000759314 -7.70048e-08 1.52603e-08)
(0.000758077 -1.12878e-07 4.84546e-08)
(0.000756661 -1.6589e-07 5.47089e-08)
(0.000755213 -1.46017e-07 5.03265e-08)
(0.000753918 -9.92269e-08 5.94898e-08)
(0.000752486 7.85991e-08 4.55553e-08)
(0.00075074 4.39665e-07 5.46037e-08)
(0.000749748 5.4507e-07 6.89402e-08)
(0.000748876 1.30577e-07 5.23206e-08)
(0.000748029 -6.78596e-08 1.00114e-07)
(0.00810735 0.00506923 -0.00266043)
(-0.0246974 -0.0258041 0.000136451)
(-0.0126736 -0.00693692 7.77282e-05)
(0.00795006 0.000377624 -0.000115702)
(0.0035122 0.00463233 7.85268e-05)
(0.000421121 -0.00140817 0.000156629)
(0.000254017 -2.09514e-05 5.73553e-06)
(0.000750244 1.2398e-05 -2.09568e-06)
(0.000757357 1.01562e-05 -2.60789e-08)
(0.000776667 8.98794e-06 9.52173e-08)
(0.000786096 6.10596e-06 5.46803e-08)
(0.000791665 4.30347e-06 4.31112e-08)
(0.000794489 2.83649e-06 -4.66409e-08)
(0.000795662 1.8062e-06 4.95533e-08)
(0.000795767 1.15857e-06 5.01753e-08)
(0.000795363 8.99058e-07 1.19037e-07)
(0.000794645 6.34231e-07 8.65823e-08)
(0.000793736 4.42057e-07 1.44506e-07)
(0.000792181 4.77463e-07 2.59545e-08)
(0.000790359 3.96582e-07 7.89408e-08)
(0.000789025 1.43462e-07 5.0971e-08)
(0.000787546 -7.51497e-09 -2.43368e-08)
(0.000786111 -1.23606e-07 -1.78576e-08)
(0.000784572 -1.25374e-07 5.19842e-08)
(0.000782944 -1.34297e-07 5.59376e-08)
(0.000781822 -3.54946e-07 6.23253e-08)
(0.000780397 -1.67372e-07 2.96755e-08)
(0.000778637 -5.20372e-08 4.4242e-08)
(0.000777414 2.22069e-07 -2.8927e-07)
(0.000775844 5.78542e-07 3.25625e-08)
(0.000774054 3.65695e-07 1.39381e-07)
(0.000772718 1.98614e-07 6.56726e-08)
(0.000771092 6.69992e-09 7.7027e-08)
(0.000769465 -1.38128e-07 6.21713e-08)
(0.0007681 -1.88581e-07 1.35732e-07)
(0.000766724 -3.15633e-07 7.82313e-08)
(0.000765278 -2.09069e-07 7.00908e-08)
(0.000764106 -2.32535e-07 5.6359e-08)
(0.000762747 -4.63557e-07 8.41455e-08)
(0.000760951 -6.67398e-07 3.83879e-08)
(0.000759547 -2.97012e-07 4.56196e-08)
(0.00075813 -1.8066e-07 -1.62421e-08)
(0.000756643 -2.03267e-08 4.4143e-08)
(0.000755343 8.291e-08 4.16331e-08)
(0.000754024 1.70506e-07 5.06578e-08)
(0.000752745 1.54774e-07 1.30751e-08)
(0.000751504 4.35178e-07 5.44183e-08)
(0.000749701 1.01607e-06 2.79417e-08)
(0.000748199 6.82187e-07 -5.84692e-08)
(0.000747491 3.62946e-07 8.98708e-08)
(0.000197013 -0.00739361 -0.000662333)
(0.0116046 -0.00464765 0.00045694)
(-0.00146195 0.00157651 0.000319893)
(-0.000233072 -0.00287233 -1.54503e-05)
(0.00193017 -0.00365299 -2.69756e-06)
(-0.00149437 -0.00210663 6.85494e-05)
(0.000403742 -5.84966e-05 -2.47152e-06)
(0.000766276 -1.54078e-05 -2.31141e-06)
(0.000765614 -1.05647e-05 -1.75652e-07)
(0.000779657 -6.44355e-06 4.82418e-08)
(0.000786809 -4.12333e-06 8.1559e-08)
(0.000791824 -2.75356e-06 1.25031e-07)
(0.000794256 -1.8282e-06 3.4777e-07)
(0.000795446 -1.08666e-06 6.70942e-08)
(0.000795914 -6.36604e-07 5.81446e-08)
(0.000795474 -2.93754e-07 5.62753e-08)
(0.000794433 -2.57507e-07 4.59905e-08)
(0.000793359 -2.36058e-07 3.42255e-07)
(0.000792179 -3.01115e-07 3.79329e-08)
(0.000790569 -3.76264e-07 1.92173e-09)
(0.000788887 -2.05504e-07 1.56034e-08)
(0.000787493 -1.52043e-07 7.53651e-08)
(0.00078606 -1.42563e-07 5.63684e-08)
(0.000784618 -8.50813e-08 4.6559e-08)
(0.000783069 7.41746e-08 -6.50142e-08)
(0.000781589 1.3841e-07 -6.54337e-08)
(0.000780305 -1.17058e-07 5.23644e-08)
(0.000778743 2.65799e-08 4.74172e-08)
(0.000777356 2.09891e-07 -8.09055e-08)
(0.000776014 -1.93574e-07 2.63339e-08)
(0.000774109 -2.50551e-07 9.03647e-08)
(0.000772395 -3.01013e-07 5.93664e-08)
(0.00077087 -6.2826e-07 2.66285e-08)
(0.000769455 -5.06418e-07 2.78995e-08)
(0.000768091 -2.24682e-07 2.53138e-07)
(0.000766824 -4.84969e-08 1.65755e-08)
(0.000765508 -1.06631e-07 5.70877e-08)
(0.000763721 -1.16782e-07 4.67685e-08)
(0.0007622 -3.99673e-07 1.15794e-08)
(0.000761231 -5.07979e-07 6.29738e-08)
(0.000759925 -2.51215e-07 6.15658e-08)
(0.000758424 -1.92227e-07 2.94668e-08)
(0.000756991 -9.38127e-08 3.81048e-08)
(0.00075545 1.59541e-07 4.24904e-08)
(0.000754007 1.43786e-07 -3.06776e-08)
(0.000752814 2.52799e-07 4.91818e-08)
(0.000751812 6.40553e-08 1.76911e-08)
(0.00075005 4.74493e-08 1.74997e-08)
(0.000748045 3.84798e-07 -3.2293e-08)
(0.000746727 2.30257e-07 6.66454e-08)
(-0.000151362 0.000194581 0.000304034)
(-0.00774904 -0.0160692 -0.00787254)
(-0.0058924 -0.00874883 -0.00167526)
(-0.0130175 0.00458394 -0.000469745)
(-0.00801296 0.000144498 -0.00102632)
(0.00131593 -0.00270658 -0.000252804)
(0.00124292 4.97064e-05 4.06962e-07)
(0.00127874 -5.56224e-05 3.2112e-07)
(0.00127866 -4.27035e-05 3.1657e-07)
(0.0013074 -3.03359e-05 3.37972e-07)
(0.0013182 -2.01431e-05 3.77494e-07)
(0.00132495 -1.33825e-05 3.49132e-07)
(0.0013286 -8.67927e-06 2.55169e-07)
(0.00132962 -5.40875e-06 9.82347e-08)
(0.00132895 -3.43287e-06 3.3151e-07)
(0.00132749 -2.4564e-06 2.86978e-07)
(0.00132567 -1.64812e-06 3.3341e-07)
(0.00132392 -1.23261e-06 9.10858e-08)
(0.00132112 -1.12914e-06 4.60127e-07)
(0.00131857 -8.87446e-07 3.65406e-07)
(0.00131666 -4.27055e-07 3.15293e-07)
(0.00131387 -1.78689e-07 3.59766e-07)
(0.00131142 2.73624e-08 2.49865e-07)
(0.00130918 8.78722e-08 2.84938e-07)
(0.00130653 4.01854e-07 2.32111e-07)
(0.00130382 6.30331e-07 3.53561e-07)
(0.00130161 6.1492e-07 2.01831e-07)
(0.00129963 2.72783e-07 3.34562e-07)
(0.00129644 6.07459e-07 3.96463e-07)
(0.00129332 -4.78113e-07 3.58291e-07)
(0.00129109 -1.1588e-06 2.30275e-07)
(0.00128827 -9.20401e-07 1.79562e-07)
(0.00128595 -7.0475e-07 3.66248e-07)
(0.00128454 -1.03628e-07 2.79669e-07)
(0.0012824 9.93136e-08 3.14034e-07)
(0.0012794 2.9098e-07 3.18578e-07)
(0.00127654 8.60407e-08 3.19838e-07)
(0.00127404 2.45418e-07 2.66861e-07)
(0.0012717 6.31702e-07 2.11501e-07)
(0.00126987 6.65026e-07 3.421e-07)
(0.00126778 1.13539e-07 2.80319e-07)
(0.0012651 1.38555e-08 3.49627e-07)
(0.00126317 -5.04265e-07 3.67072e-07)
(0.00126068 -4.48573e-07 6.71258e-07)
(0.00125811 -3.04207e-07 3.26128e-07)
(0.00125567 -2.28906e-07 2.42568e-07)
(0.00125335 -4.06293e-07 2.94203e-07)
(0.00125146 -8.0128e-07 4.673e-07)
(0.00124862 -6.02854e-07 2.25689e-07)
(0.00124578 -3.93758e-07 3.25078e-07)
(-0.013171 -0.0116046 0.00378451)
(-0.00256827 -0.0234105 -0.00237486)
(-0.0900098 -0.0618103 0.113031)
(0.0282767 0.0117905 0.000207707)
(0.0145338 -0.0182528 0.00276731)
(0.0139138 -0.00763864 0.00388829)
(0.0010604 -0.00026007 -1.88316e-05)
(0.00131476 -0.00014555 3.5424e-07)
(0.00131184 -8.55109e-05 3.30654e-07)
(0.0013304 -5.39856e-05 4.59174e-07)
(0.0013348 -3.31103e-05 3.35872e-07)
(0.00133592 -2.04473e-05 3.3529e-07)
(0.00133526 -1.26705e-05 3.35095e-07)
(0.00133367 -8.06338e-06 3.32684e-07)
(0.00133152 -5.14297e-06 3.33339e-07)
(0.00132928 -3.33659e-06 2.74735e-07)
(0.00132685 -2.04036e-06 3.31232e-07)
(0.0013241 -1.27454e-06 1.39657e-07)
(0.00132187 -7.77587e-07 2.19754e-07)
(0.00131965 -3.10018e-07 3.00266e-07)
(0.00131679 -1.42305e-07 3.77062e-07)
(0.00131415 -3.84918e-08 3.70246e-07)
(0.0013116 5.28776e-07 8.5685e-07)
(0.00130931 4.99234e-07 3.03968e-07)
(0.00130691 5.8832e-07 3.13561e-07)
(0.00130409 2.63071e-07 5.68671e-07)
(0.00130129 2.15215e-07 3.87129e-07)
(0.0012991 -3.33879e-07 3.25467e-07)
(0.00129586 -1.52093e-06 3.30832e-07)
(0.00129239 -9.31405e-07 3.622e-07)
(0.00129088 -7.02963e-07 3.58471e-07)
(0.00128908 -4.05052e-07 3.11571e-07)
(0.00128698 7.5643e-07 6.35807e-07)
(0.00128467 1.04394e-06 3.03778e-07)
(0.00128188 4.05436e-07 3.17114e-07)
(0.00127927 1.78532e-07 3.08286e-07)
(0.00127703 3.01592e-07 2.98924e-07)
(0.00127477 4.08715e-07 3.67408e-07)
(0.00127214 6.49798e-07 3.467e-07)
(0.00126934 7.56219e-07 3.27796e-07)
(0.00126694 1.05003e-07 3.28816e-07)
(0.00126454 -4.44382e-07 3.52425e-07)
(0.0012623 -8.82752e-07 2.50771e-07)
(0.00126059 -6.50954e-07 3.06261e-07)
(0.00125831 -1.24224e-07 3.50922e-07)
(0.0012558 -2.49209e-07 3.19601e-07)
(0.00125348 2.21899e-07 2.13374e-07)
(0.00125116 -1.1255e-07 3.16093e-07)
(0.00124866 -4.27872e-07 3.66421e-07)
(0.001247 -3.47669e-07 2.30281e-07)
(0.0268203 0.0118122 -0.00666593)
(-0.0351612 -0.029882 0.00449782)
(-0.0570718 -0.0332103 0.0172563)
(-0.0256033 -0.000661769 0.00338187)
(0.0259283 0.0159699 -0.013541)
(-0.0153448 -0.0228584 -0.00572306)
(0.00100506 -0.000291304 6.15153e-05)
(0.00147425 -0.00021272 7.37917e-07)
(0.00139312 -6.86594e-05 4.87112e-07)
(0.0013734 -5.37652e-05 3.47809e-07)
(0.00136043 -3.05801e-05 3.443e-07)
(0.00135069 -1.91124e-05 3.38116e-07)
(0.00134419 -1.17624e-05 3.35919e-07)
(0.0013391 -7.33017e-06 3.35419e-07)
(0.0013349 -4.6067e-06 3.34405e-07)
(0.0013314 -2.85e-06 3.32516e-07)
(0.00132827 -1.87216e-06 3.34579e-07)
(0.00132551 -1.10695e-06 3.69702e-07)
(0.00132233 -8.00018e-07 3.70321e-07)
(0.00131937 -5.80453e-07 3.2158e-07)
(0.001317 -5.4494e-07 5.16504e-07)
(0.0013147 -2.10773e-07 3.29139e-07)
(0.00131209 -2.11427e-07 3.44585e-07)
(0.00130925 -1.01504e-07 1.93324e-07)
(0.00130622 -5.45413e-07 4.32538e-07)
(0.00130335 -1.28238e-07 3.6433e-07)
(0.00130087 -4.01033e-07 3.18478e-07)
(0.00129746 -2.65816e-07 3.22523e-07)
(0.0012957 -5.34739e-07 3.27217e-08)
(0.00129435 6.76376e-07 2.40255e-07)
(0.00129175 1.22976e-06 3.25104e-07)
(0.00129009 1.14681e-06 3.25175e-07)
(0.00128775 7.32147e-07 7.95056e-07)
(0.0012841 4.74573e-07 4.32414e-07)
(0.00128131 1.79381e-07 3.62073e-07)
(0.00127927 2.50376e-07 3.2961e-07)
(0.00127683 2.32106e-07 2.87858e-07)
(0.00127447 7.55825e-08 3.36942e-07)
(0.00127213 1.48599e-07 3.19816e-07)
(0.00126919 4.72487e-08 3.05883e-07)
(0.00126627 1.51548e-07 3.51378e-07)
(0.00126387 9.0009e-08 3.44189e-07)
(0.00126292 9.76768e-07 2.60286e-07)
(0.00126164 5.54912e-07 2.74654e-07)
(0.00125861 3.38292e-07 3.43059e-07)
(0.0012561 3.88661e-07 3.56006e-07)
(0.00125352 6.30169e-07 4.06754e-07)
(0.00125065 3.76547e-07 1.97146e-07)
(0.00124834 2.75412e-07 3.04075e-07)
(0.00124675 1.31805e-07 2.98716e-07)
(-0.0109726 -0.0226444 -0.00590527)
(-0.0119657 -0.0161278 -0.0314571)
(-0.0564791 -0.0155672 -0.0144258)
(-0.00677341 -0.0150584 -0.00561562)
(-0.000375744 -0.00672426 0.00469292)
(0.00750991 0.00924862 -0.00418182)
(0.000989582 -0.000375997 -6.77022e-05)
(0.00153751 -0.000143614 6.03765e-06)
(0.00152471 -2.39586e-05 3.23802e-07)
(0.00137845 -2.82902e-05 4.12878e-07)
(0.00137843 -1.49408e-05 3.46201e-07)
(0.00135963 -9.75267e-06 3.32756e-07)
(0.0013501 -6.12188e-06 3.37123e-07)
(0.00134268 -3.72514e-06 3.36038e-07)
(0.00133716 -2.25188e-06 3.34392e-07)
(0.00133273 -1.37596e-06 3.33364e-07)
(0.00132905 -9.20586e-07 3.32994e-07)
(0.00132545 -7.49744e-07 1.75621e-07)
(0.00132254 -9.14916e-07 3.22434e-07)
(0.00131998 -1.02446e-06 3.01356e-07)
(0.00131726 -5.40461e-07 1.24065e-07)
(0.00131457 -4.80111e-07 3.26719e-07)
(0.00131174 -6.27283e-07 3.15593e-07)
(0.0013089 -5.45327e-07 3.5432e-07)
(0.00130688 -6.54039e-07 2.07316e-07)
(0.00130427 -3.80061e-07 3.33411e-07)
(0.00130112 8.399e-08 3.90572e-07)
(0.00129893 5.53447e-07 4.04061e-07)
(0.00129704 1.70538e-06 3.35263e-07)
(0.00129459 1.31522e-06 4.63672e-07)
(0.00129146 1.36072e-06 3.06649e-07)
(0.00128845 1.36755e-06 3.04873e-07)
(0.00128613 4.19347e-07 3.19992e-07)
(0.00128398 -3.67354e-08 3.17893e-07)
(0.0012816 2.09791e-07 2.71651e-07)
(0.00127934 1.21608e-07 3.35082e-07)
(0.00127681 6.52714e-08 2.975e-07)
(0.00127467 -7.38671e-08 3.35188e-07)
(0.00127211 -5.23545e-07 2.06765e-07)
(0.00126935 -4.27805e-07 1.24754e-07)
(0.00126699 9.1606e-08 3.21854e-07)
(0.00126556 6.86656e-07 3.02647e-07)
(0.00126287 1.04801e-06 3.89176e-07)
(0.00125978 5.95718e-07 2.17424e-07)
(0.00125809 3.30305e-08 3.3321e-07)
(0.00125616 4.23133e-09 5.35646e-07)
(0.00125346 -1.93436e-07 3.99734e-07)
(0.00125071 6.5267e-08 2.90508e-07)
(0.00124835 3.2526e-07 3.10178e-07)
(0.00124649 3.69767e-07 2.18567e-07)
(-0.102468 -0.0384175 -0.0320149)
(-0.0106918 -0.00463947 -0.00235439)
(0.00744178 -0.0147813 0.00632375)
(-0.00565951 0.00152415 -0.0014932)
(-0.00558498 -0.00191912 0.0027652)
(-0.00772615 0.0113273 2.85271e-05)
(0.000313458 0.000475148 -5.96308e-05)
(0.00161929 2.55509e-05 4.26767e-07)
(0.00155655 1.68998e-05 6.43616e-07)
(0.00138475 8.88343e-06 3.91312e-07)
(0.00138378 6.16938e-06 3.64301e-07)
(0.00136182 3.63328e-06 3.57281e-07)
(0.00135179 2.56451e-06 3.43941e-07)
(0.00134398 1.49544e-06 3.35975e-07)
(0.00133787 9.25602e-07 3.56058e-07)
(0.00133308 5.84087e-07 3.52726e-07)
(0.00132906 4.23075e-07 3.32534e-07)
(0.00132552 2.72229e-07 3.30016e-07)
(0.001322 3.9289e-07 4.02664e-07)
(0.00131984 6.62536e-07 1.5351e-07)
(0.00131769 -2.04977e-08 3.57341e-07)
(0.0013146 1.7358e-07 3.26151e-07)
(0.00131201 8.04775e-08 3.13945e-07)
(0.00130922 1.5493e-07 3.74799e-07)
(0.00130644 4.08533e-07 2.7506e-07)
(0.00130428 -2.84824e-07 3.08704e-07)
(0.00130203 1.278e-07 3.79267e-07)
(0.00129948 2.22283e-07 3.22923e-07)
(0.00129664 3.72934e-07 4.5971e-07)
(0.00129391 2.45595e-07 3.1481e-07)
(0.0012918 3.4258e-07 3.37616e-07)
(0.00128891 -2.85865e-07 3.14827e-07)
(0.00128599 2.87388e-07 3.30737e-07)
(0.00128384 1.51791e-07 3.22081e-07)
(0.00128151 3.06321e-07 3.11714e-07)
(0.00127909 1.89983e-08 3.16668e-07)
(0.00127658 -9.40117e-08 3.73183e-08)
(0.00127374 -8.50099e-08 3.18055e-07)
(0.00127169 -2.6171e-07 4.4546e-07)
(0.00126996 -1.12658e-07 3.12239e-07)
(0.00126767 2.36835e-07 3.12007e-07)
(0.00126506 6.85981e-07 5.29518e-07)
(0.0012628 1.72863e-07 2.83329e-07)
(0.00126036 1.13204e-07 -1.84788e-07)
(0.00125787 -1.11306e-07 3.11455e-07)
(0.00125582 -3.83666e-07 3.14429e-07)
(0.00125359 -8.82806e-07 9.51466e-08)
(0.0012513 -7.91873e-07 3.09753e-07)
(0.00124871 -5.31715e-07 3.78989e-07)
(0.00124588 1.53085e-07 4.19512e-07)
(-0.0193314 0.00466999 -0.0121882)
(-0.0116745 -0.0283497 0.000580549)
(-0.0164876 0.00384487 0.000824173)
(0.00118426 -0.00772121 0.002107)
(-0.0107045 0.0127036 -0.000551283)
(-0.00565684 -0.0111596 0.000840976)
(0.00115167 -0.000860821 -7.1734e-05)
(0.00144922 7.2792e-05 2.06761e-07)
(0.00151982 7.16384e-05 5.9092e-07)
(0.00136572 4.55039e-05 3.04965e-07)
(0.00137186 2.66199e-05 3.02172e-07)
(0.00135512 1.62913e-05 4.67789e-07)
(0.00134743 1.01283e-05 2.57603e-07)
(0.00134063 6.12493e-06 3.34227e-07)
(0.00133603 3.7205e-06 3.63357e-07)
(0.0013321 2.29837e-06 3.37648e-07)
(0.00132866 1.43039e-06 3.32439e-07)
(0.00132541 9.62912e-07 2.73389e-07)
(0.00132302 7.19581e-07 3.05642e-07)
(0.00131946 1.2737e-06 4.36533e-07)
(0.00131665 9.97084e-07 2.42661e-07)
(0.0013147 6.03696e-07 3.51605e-07)
(0.00131172 4.22977e-07 3.20668e-07)