/*--------------------------------*- C++ -*----------------------------------*\
| =========                 |                                                 |
| \\      /  F ield         | OpenFOAM: The Open Source CFD Toolbox           |
|  \\    /   O peration     | Version:  5.0                                   |
|   \\  /    A nd           | Web:      www.OpenFOAM.org                      |
|    \\/     M anipulation  |                                                 |
\*---------------------------------------------------------------------------*/
FoamFile
{
    version     2.0;
    format      ascii;
    class       surfaceVectorField;
    location    "1.4";
    object      Uf;
}
// * * * * * * * * * * * * * * * * * * * * * * * * * * * * * * * * * * * * * //

dimensions      [0 1 -1 0 0 0 0];

internalField   nonuniform List<vector> 
23698
(
(0.00338273 0.00516441 -0.000208867)
(-0.00739565 0.00440352 0.000498703)
(0.00229592 0.00540668 -0.000238658)
(-6.81319e-05 -0.00788403 -0.000388166)
(-0.00667033 0.00936738 0.00166878)
(0.0128373 -0.00500527 -0.000677449)
(0.00504169 0.00553726 0.000360847)
(0.00429236 0.00521525 0.000463491)
(0.00418864 0.00579353 0.000316261)
(0.0138358 0.00179997 0.000585197)
(0.00537014 0.00384672 0.000383992)
(0.00803975 0.00223472 -0.00116846)
(0.00481231 -0.0153487 -0.000238614)
(-0.00595828 -0.012236 0.00169776)
(-0.00380007 0.00556523 -0.000361726)
(-0.00154918 0.00792829 -0.0021189)
(-0.00406595 0.0120284 -0.000646696)
(-0.0160456 0.0184759 -0.000478433)
(-0.000928726 -0.00332862 0.000941368)
(0.0268529 0.00446667 0.000180467)
(-0.00358845 0.000822027 0.000930621)
(-0.00137416 0.00200029 0.00354637)
(-0.00219074 -0.000596902 0.000844177)
(0.00364738 0.00172358 -0.00022109)
(0.00566081 0.00230978 -0.00105979)
(0.00392516 0.00497319 0.00262541)
(0.00396278 0.0089065 -0.000143142)
(0.00978927 0.00134742 0.000803677)
(0.0109581 0.0187016 -6.75145e-05)
(0.000363449 -0.00645111 -3.19058e-05)
(-0.00677171 -0.00372979 -0.000359857)
(-0.0026008 0.00107322 0.000490565)
(-0.0133843 0.000836973 -0.00152725)
(0.00115933 -0.000880047 0.000101736)
(0.000910185 -0.000446646 5.53543e-05)
(0.000522883 -0.000755567 7.60953e-05)
(0.0014625 -0.00121422 2.43119e-05)
(0.000322378 -4.57211e-05 -3.26941e-07)
(0.000474 -6.01976e-05 -2.74269e-06)
(0.000476356 -4.85041e-05 -1.68874e-06)
(0.000766279 -9.22477e-05 -5.7538e-07)
(0.000341871 -3.55063e-05 -9.87751e-07)
(0.000614951 -7.87893e-05 4.82554e-06)
(0.000632915 -5.11723e-05 3.31439e-06)
(0.000809476 -5.80099e-05 -1.16641e-06)
(0.000847243 -7.23093e-05 -2.18182e-06)
(0.00110046 -8.84467e-05 -1.53567e-06)
(0.000582189 -6.1667e-05 -3.65965e-06)
(0.000594288 -5.1159e-05 -4.09857e-06)
(0.000984102 -0.000101958 -3.90174e-06)
(0.000999528 -8.15322e-05 -4.36288e-06)
(0.000807683 -3.80768e-05 -1.55079e-08)
(0.000818214 -4.56609e-05 -3.64374e-08)
(0.0010694 -5.86438e-05 1.21621e-07)
(0.00080678 -2.463e-05 8.81622e-08)
(0.000816707 -2.99992e-05 8.76849e-08)
(0.00107513 -3.84689e-05 1.91395e-07)
(0.000805436 -1.5756e-05 7.72026e-08)
(0.000812007 -1.91025e-05 7.54533e-08)
(0.00107328 -2.45668e-05 1.72859e-07)
(0.000804641 -1.006e-05 3.0295e-08)
(0.000808902 -1.20741e-05 5.78564e-08)
(0.00107244 -1.58499e-05 1.72421e-07)
(0.000803919 -6.16167e-06 3.89452e-08)
(0.00080665 -7.59702e-06 2.55595e-08)
(0.0010719 -1.00131e-05 1.81907e-07)
(0.000801788 -3.70581e-06 6.36333e-08)
(0.000804345 -5.10352e-06 6.24166e-08)
(0.00107013 -5.86421e-06 1.55542e-07)
(0.000800442 -2.37156e-06 1.25247e-07)
(0.000802109 -3.15402e-06 4.85395e-08)
(0.00106783 -3.70144e-06 1.82204e-07)
(0.000799089 -1.51055e-06 1.26848e-07)
(0.000800441 -1.41679e-06 1.24561e-07)
(0.00106611 -2.42692e-06 1.77482e-07)
(0.000797866 -8.19956e-07 6.60926e-08)
(0.000798932 -1.25334e-06 5.05368e-08)
(0.00106441 -1.49235e-06 1.77311e-07)
(0.000796024 -2.96994e-07 4.13368e-08)
(0.000797352 -6.98803e-07 7.067e-08)
(0.0010625 -6.64524e-07 1.69384e-07)
(0.000794187 -2.11029e-07 8.15078e-08)
(0.000795325 9.93891e-07 5.23712e-08)
(0.00105995 -1.75779e-07 1.46704e-07)
(0.000792609 -4.10127e-07 1.18401e-07)
(0.00079349 -2.60784e-07 9.24665e-08)
(0.00105762 -4.43594e-07 1.68457e-07)
(0.000792012 -3.47026e-07 6.63325e-08)
(0.000792364 1.22737e-07 8.03282e-08)
(0.00105634 -6.17717e-07 1.56134e-07)
(0.000790247 -1.92656e-07 4.04425e-08)
(0.000790988 1.72426e-08 5.89209e-08)
(0.00105466 -2.11551e-07 1.64562e-07)
(0.00078864 -9.7361e-08 3.43695e-08)
(0.000789457 -3.86761e-07 4.00094e-09)
(0.00105235 -2.00104e-07 2.01497e-07)
(0.000787125 1.03755e-07 5.71432e-08)
(0.000788115 -9.82534e-08 4.86932e-08)
(0.00105036 2.40522e-08 1.77683e-07)
(0.000785888 2.97948e-07 7.1299e-08)
(0.000786687 -9.10421e-07 1.85923e-08)
(0.00104849 3.21266e-07 2.07862e-07)
(0.000784521 2.83546e-07 6.84055e-08)
(0.000785089 -1.40174e-06 4.51204e-08)
(0.0010467 5.50033e-07 1.83277e-07)
(0.000783077 1.47801e-07 5.55829e-08)
(0.000783611 -5.25825e-07 8.15488e-08)
(0.00104483 2.8543e-07 2.1031e-07)
(0.000781686 1.65279e-07 8.79359e-08)
(0.000782378 -5.08375e-09 4.75411e-08)
(0.00104311 1.55933e-07 1.71574e-07)
(0.000779968 1.33898e-07 1.09627e-07)
(0.0007808 6.82403e-07 9.65621e-08)
(0.00104087 2.9373e-07 2.51789e-08)
(0.000778724 -1.81791e-07 8.26825e-08)
(0.000779074 -9.34881e-08 6.68751e-08)
(0.00103879 3.06476e-09 1.57642e-07)
(0.000776841 -4.50658e-07 1.07413e-08)
(0.000777617 -7.52762e-07 -3.29313e-08)
(0.00103684 -6.19576e-07 3.64298e-07)
(0.000775566 -4.49928e-07 1.31346e-08)
(0.000776218 -7.06732e-07 -2.75862e-08)
(0.00103459 -6.72765e-07 3.17957e-07)
(0.000774106 -2.56328e-07 9.19879e-08)
(0.000775024 -2.4816e-07 1.07831e-07)
(0.00103278 -5.46455e-07 1.76131e-07)
(0.000773235 -1.35203e-09 9.41827e-08)
(0.000773981 -2.1591e-06 1.02107e-07)
(0.00103142 -1.25174e-07 2.76066e-07)
(0.000771639 1.03211e-07 7.60809e-08)
(0.000772467 1.47913e-07 6.40004e-08)
(0.00102979 1.51516e-07 1.77435e-07)
(0.000770061 4.86956e-08 4.95631e-08)
(0.000770839 5.06244e-08 5.18041e-08)
(0.00102756 1.76966e-07 1.55012e-07)
(0.000768327 1.19338e-07 3.37356e-08)
(0.000769435 3.7609e-07 4.28236e-08)
(0.00102532 7.14533e-09 1.68679e-07)
(0.000766743 4.62994e-07 7.13589e-08)
(0.000768012 5.18786e-07 2.00952e-08)
(0.00102299 3.36332e-07 1.43769e-07)
(0.0007667 4.67067e-07 8.34375e-08)
(0.000766676 -3.07438e-06 5.43633e-08)
(0.00102198 8.89956e-07 2.37866e-07)
(0.000764771 1.55653e-07 4.48228e-08)
(0.000765272 4.87221e-07 4.02886e-08)
(0.00102078 3.70541e-07 1.75825e-07)
(0.000763202 -6.39351e-09 5.09216e-08)
(0.000763764 1.33668e-07 4.3784e-08)
(0.00101835 8.20829e-08 1.76515e-07)
(0.000761939 -4.01817e-07 8.02389e-08)
(0.000762256 -2.63183e-08 7.00925e-08)
(0.00101634 -7.87963e-08 1.57347e-07)
(0.000761152 -6.39495e-07 4.64487e-08)
(0.000761199 1.6713e-06 8.39142e-08)
(0.00101524 -9.3533e-07 1.58367e-07)
(0.000758851 -3.64806e-07 1.91938e-08)
(0.00076012 2.29911e-06 5.65166e-08)
(0.00101307 -6.82772e-07 8.73824e-08)
(0.000757428 -1.13087e-07 4.37864e-08)
(0.000758512 -1.3021e-07 4.46122e-08)
(0.00101052 -2.58927e-07 1.63289e-07)
(0.000756308 -1.35484e-08 5.52864e-08)
(0.000756975 -2.49783e-07 4.91671e-08)
(0.00100887 -8.42914e-08 1.53948e-07)
(0.000755265 -4.78045e-08 5.9893e-08)
(0.000755716 -5.42345e-07 1.10623e-07)
(0.00100734 -8.39815e-09 1.71613e-07)
(0.000753753 -2.06008e-07 5.23798e-08)
(0.000754457 1.39114e-07 5.71651e-08)
(0.00100581 -1.81036e-07 1.73634e-07)
(0.000752104 -3.12184e-07 2.95619e-08)
(0.000752887 -1.68409e-07 -2.79476e-08)
(0.00100355 -4.14671e-07 1.96946e-07)
(0.000751552 8.78243e-07 6.22815e-08)
(0.00100144 -4.18588e-07 1.09335e-07)
(-0.0125229 -0.00729329 0.000370758)
(-0.00289925 -0.00838298 0.000637196)
(-0.012954 3.56814e-05 0.0019342)
(-0.00449918 -0.00876371 -0.000340659)
(0.013585 0.00161508 0.00132202)
(0.0117829 -0.0182697 0.000335143)
(0.00615049 -0.015085 -5.7542e-05)
(0.00577302 -0.00669133 0.000504453)
(-0.0657494 0.00123945 0.00808803)
(-0.0171621 -0.0446702 0.0081335)
(-0.118605 -0.0750191 0.0245039)
(-0.202509 -0.0189565 0.00322964)
(-0.0496945 -0.133161 0.00502406)
(0.0777595 -0.0150696 -0.00314994)
(0.0386301 -0.00296206 -0.000957817)
(0.0925042 -0.0212663 0.00318954)
(0.0556831 -0.0121462 0.00210698)
(0.0457487 -0.0228956 -0.00303381)
(0.00414826 -0.000475396 0.000236929)
(0.00852413 -0.00332238 -0.0005398)
(-0.000503169 -0.00199431 0.000310222)
(0.00334324 -0.00701388 -0.000203969)
(0.00775265 -0.000957758 0.00119796)
(0.00333094 -0.000714992 0.000311075)
(0.00829686 0.000801464 0.00026261)
(0.00238735 -0.000827354 0.000382554)
(0.00875726 -0.00266443 0.000287165)
(0.00224652 0.00137994 0.00062862)
(0.000178621 -8.35582e-05 1.18673e-05)
(0.000478513 -3.47452e-05 -6.96992e-07)
(0.000447801 -7.37955e-05 -1.92721e-06)
(0.000758068 -0.000155432 2.05044e-06)
(0.000429527 -0.000200758 1.92548e-05)
(0.000201966 -0.000158111 1.56352e-05)
(0.000791273 -0.0004566 4.84695e-05)
(0.000394783 -7.96385e-05 -2.99402e-07)
(0.000787829 -0.000146974 3.17585e-06)
(0.000641172 -0.000176833 -5.78822e-07)
(0.000341601 -9.26743e-05 -1.5848e-06)
(0.000840052 -5.92921e-05 -1.05256e-06)
(0.000892326 -7.45036e-05 -2.35713e-06)
(0.0011435 -0.000100723 -1.57386e-06)
(0.000580462 -6.13884e-05 -3.95354e-06)
(0.000641579 -6.23622e-05 -4.82079e-06)
(0.000956107 -0.000110804 -4.24593e-06)
(0.00109813 -0.000119 -5.43974e-06)
(0.000828138 -3.60231e-05 6.67148e-08)
(0.000847377 -3.25082e-05 -1.89759e-07)
(0.00110318 -5.88499e-05 1.63854e-07)
(0.00082084 -2.29197e-05 7.498e-08)
(0.000833234 -2.29405e-05 5.25176e-08)
(0.00109703 -3.79274e-05 1.86884e-07)
(0.000814906 -1.42546e-05 5.61128e-08)
(0.00082293 -1.3653e-05 4.84777e-08)
(0.00108853 -2.35066e-05 1.80227e-07)
(0.000810545 -8.91224e-06 5.31313e-08)
(0.000815637 -8.58026e-06 4.62141e-08)
(0.00108237 -1.46431e-05 1.79432e-07)
(0.000807189 -5.7329e-06 4.90189e-08)
(0.000810659 -5.36195e-06 4.81977e-08)
(0.00107766 -9.17265e-06 1.79531e-07)
(0.00080433 -3.72464e-06 4.73273e-08)
(0.000806878 -3.46979e-06 4.72493e-08)
(0.00107379 -6.11527e-06 1.77998e-07)
(0.00080199 -2.34339e-06 4.78284e-08)
(0.00080385 -2.16224e-06 4.90066e-08)
(0.00107045 -3.80704e-06 1.77324e-07)
(0.000800255 -1.51031e-06 4.82734e-08)
(0.000801492 -1.33882e-06 4.88361e-08)
(0.00106785 -2.45494e-06 1.88646e-07)
(0.000798468 -1.05567e-06 5.51076e-08)
(0.000799506 -9.01132e-07 5.06086e-08)
(0.00106558 -1.58525e-06 1.74698e-07)
(0.000796832 -8.43295e-07 8.17102e-08)
(0.000797622 1.10232e-07 5.93064e-08)
(0.00106334 -1.22442e-06 1.30665e-07)
(0.000794353 -5.13083e-07 6.3317e-08)
(0.000795741 1.57167e-06 1.15542e-07)
(0.00106058 -9.89011e-07 2.19618e-07)
(0.000793071 -5.52114e-08 5.43971e-08)
(0.000794064 -5.85776e-07 3.24409e-08)
(0.0010581 -3.45465e-07 1.78876e-07)
(0.000791591 9.74874e-08 7.29235e-08)
(0.000792555 1.1059e-07 7.08411e-08)
(0.00105633 1.85344e-07 1.74566e-07)
(0.000790073 2.54194e-07 2.24969e-08)
(0.000791183 6.3798e-08 5.25961e-08)
(0.00105426 5.43693e-08 1.74138e-07)
(0.000789 3.85785e-07 1.83104e-08)
(0.00078962 9.09398e-07 2.80785e-08)
(0.00105249 6.32306e-07 4.8691e-08)
(0.000787606 3.14511e-07 1.01519e-08)
(0.000788024 4.70606e-07 5.52305e-08)
(0.00105093 4.36189e-07 1.275e-07)
(0.000786007 2.42773e-07 -7.59477e-09)
(0.000786596 -8.2209e-08 2.12551e-09)
(0.00104897 4.62289e-07 1.27609e-07)
(0.000784036 1.29902e-07 5.82521e-08)
(0.000784947 1.62927e-08 3.1417e-08)
(0.00104645 2.3968e-07 1.19128e-07)
(0.000782965 -2.26646e-08 7.35178e-08)
(0.00078342 -5.18303e-07 7.54093e-08)
(0.00104437 1.57241e-07 1.39212e-07)
(0.000781496 -3.42135e-07 5.61518e-08)
(0.00078198 4.5698e-08 5.01505e-08)
(0.00104282 -1.96163e-07 1.7153e-07)
(0.000779989 -5.26357e-07 5.382e-08)
(0.000780572 -4.19614e-07 3.95913e-08)
(0.00104077 -7.86609e-07 2.56387e-07)
(0.000777909 -4.4333e-07 -4.87072e-08)
(0.00077918 1.25597e-07 2.25899e-08)
(0.00103816 -6.99888e-07 2.13969e-07)
(0.000776916 -2.85927e-07 -7.12604e-08)
(0.000777816 1.01412e-07 3.56039e-08)
(0.00103634 -5.08521e-07 7.32869e-08)
(0.000775644 8.51552e-08 6.70677e-08)
(0.000776682 3.60429e-07 3.17638e-08)
(0.00103486 -2.72812e-07 8.30124e-08)
(0.000774904 3.84819e-07 1.17952e-07)
(0.000775398 -2.8314e-06 6.06101e-08)
(0.00103347 5.21909e-07 2.95022e-07)
(0.000773405 2.11172e-07 7.19366e-08)
(0.000773763 -2.49013e-06 4.90768e-08)
(0.00103206 5.77969e-07 2.02638e-07)
(0.000771478 4.34146e-08 3.97274e-08)
(0.000772256 8.5943e-07 7.05213e-08)
(0.00102966 6.01259e-08 1.66761e-07)
(0.000770275 1.06493e-07 4.50674e-08)
(0.000770917 -1.61416e-07 4.34587e-08)
(0.00102751 9.46488e-08 1.68035e-07)
(0.000769108 2.71774e-07 2.91903e-08)
(0.00076964 7.21419e-08 8.61233e-08)
(0.00102595 2.05749e-07 1.71529e-07)
(0.000767894 5.92346e-07 3.08905e-09)
(0.000768411 5.12118e-08 2.71089e-08)
(0.00102448 5.25427e-07 1.87626e-07)
(0.000765363 5.99764e-07 1.12188e-08)
(0.000766683 -8.92748e-07 1.29068e-08)
(0.0010219 1.02597e-06 1.15575e-07)
(0.000764203 3.34517e-07 3.92486e-08)
(0.000764939 2.51626e-07 1.42739e-08)
(0.00101936 5.6865e-07 1.66118e-07)
(0.000762847 1.57964e-07 6.29467e-08)
(0.000763542 1.34661e-07 6.19467e-08)
(0.00101778 3.22137e-07 1.66719e-07)
(0.000761292 -5.06674e-08 7.37635e-08)
(0.000761996 1.97675e-07 6.6909e-08)
(0.00101575 4.46662e-08 1.68425e-07)
(0.000760355 -4.37487e-07 9.39905e-08)
(0.000760717 6.25972e-07 1.34581e-07)
(0.00101404 -2.45215e-07 2.04486e-07)
(0.00075989 -4.75653e-07 8.19386e-08)
(0.000760075 8.14492e-08 1.26811e-07)
(0.00101329 -9.29701e-07 2.46712e-07)
(0.000757922 -1.10637e-07 4.99916e-08)
(0.00075897 3.62561e-07 6.96571e-08)
(0.00101158 -3.09524e-07 1.86288e-07)
(0.000756321 1.48714e-07 1.04485e-07)
(0.000757299 -1.11962e-07 4.38364e-08)
(0.00100916 -2.60419e-08 1.78848e-07)
(0.000755006 1.66956e-07 1.07912e-07)
(0.000755739 -1.1998e-06 1.39236e-07)
(0.00100728 3.62189e-07 2.10604e-07)
(0.00075362 -3.8087e-08 -2.31364e-08)
(0.000754201 1.9489e-07 6.60564e-08)
(0.00100543 5.71378e-08 1.65016e-07)
(0.000752196 -1.42287e-07 4.74456e-09)
(0.000752759 8.95898e-07 -1.07552e-08)
(0.00100349 -1.90714e-07 9.46584e-08)
(0.000751729 -1.36481e-07 1.08876e-07)
(0.00100201 -2.19736e-07 2.26195e-07)
(-0.000294613 -0.00831121 0.000393418)
(-0.0052097 -0.00704252 -0.000534557)
(-0.011361 -0.0072954 0.000879645)
(-0.011163 -0.0147029 0.000541044)
(0.0453456 0.0053616 -0.00160565)
(0.0125394 -0.0401714 -0.00142815)
(0.0937352 -0.00576391 0.00799648)
(0.044583 0.000967006 -0.00164833)
(0.0437979 -0.00848655 -0.00648364)
(-0.0260157 -0.00462109 0.000943495)
(-0.0112158 -0.000150064 0.000313224)
(-0.0253002 0.0001797 0.00145656)
(-0.00825761 0.0197264 0.000278129)
(-0.0245171 -0.00857666 -0.00401049)
(-0.0263894 -0.00523681 0.00323915)
(-0.00897282 0.012809 0.00249612)
(-0.0279547 -0.00292757 -0.0022496)
(-0.0242481 0.00500476 0.00208767)
(-0.0158108 -0.00924706 -0.00166732)
(0.00538743 0.0132 0.00232731)
(0.005085 0.0134857 0.00335329)
(-0.0179077 0.0047955 0.000373013)
(-0.0217981 0.00900762 0.0011123)
(-0.0192564 -0.00232927 0.00144835)
(-0.0307032 0.00648075 -0.000258362)
(-0.00426204 -0.00216516 -5.55122e-05)
(-0.0172874 0.00334147 0.00171263)
(0.00512512 -0.00309009 -0.000202763)
(-0.0101003 0.00296066 -0.000410787)
(0.00200668 0.00226846 -0.000285851)
(0.00110253 0.0108035 0.000227344)
(-0.00134797 -0.000777057 -0.00195455)
(0.000900758 -0.000131884 1.91147e-05)
(0.000395365 -2.21039e-05 1.88266e-05)
(0.00044865 -0.000162517 3.62715e-05)
(0.000693608 -9.00311e-05 5.98655e-05)
(0.000303303 -4.31004e-05 1.41494e-05)
(0.000886932 -4.40586e-05 -1.49505e-06)
(0.000636028 -3.05871e-05 -1.72998e-06)
(0.00122397 -0.000107206 -1.65432e-06)
(0.000639264 -5.82588e-05 -4.59434e-06)
(0.000669271 -5.34869e-05 -4.83207e-06)
(0.00107966 -0.000110836 -4.04489e-06)
(0.00115266 -9.04567e-05 -7.89855e-07)
(0.000615602 -4.6802e-05 -4.73053e-06)
(0.00108104 -5.06416e-05 9.66396e-07)
(0.00102677 -7.74051e-05 -5.98678e-06)
(0.000850476 -1.31367e-05 -2.04036e-07)
(0.000889504 1.19236e-05 -8.42964e-07)
(0.00114804 -1.81935e-05 1.25502e-07)
(0.000834186 -1.16036e-05 2.60167e-08)
(0.000835251 -4.39714e-06 -1.2795e-07)
(0.00111971 -2.18838e-05 1.71155e-07)
(0.000822674 -6.75392e-06 3.85797e-08)
(0.000829065 -1.19096e-06 1.01803e-07)
(0.00110263 -1.19087e-05 1.78102e-07)
(0.000815228 -4.38238e-06 4.12799e-08)
(0.000818644 -1.20471e-06 3.17857e-08)
(0.00109051 -7.80574e-06 1.78e-07)
(0.000810055 -2.78007e-06 4.64284e-08)
(0.000812689 -8.42163e-07 4.8715e-08)
(0.00108265 -4.89553e-06 1.78728e-07)
(0.000806172 -1.76895e-06 4.8928e-08)
(0.000808159 -5.7015e-07 4.7779e-08)
(0.00107689 -3.13239e-06 1.78654e-07)
(0.00080314 -1.10444e-06 5.00143e-08)
(0.000804691 -3.22343e-07 4.72773e-08)
(0.00107244 -1.96487e-06 1.78073e-07)
(0.000800701 -7.83408e-07 5.11708e-08)
(0.0008019 -2.28585e-07 4.78818e-08)
(0.00106892 -1.2233e-06 1.77932e-07)
(0.000798646 -7.01644e-07 5.48046e-08)
(0.000799613 -2.80111e-07 5.02482e-08)
(0.00106597 -1.00927e-06 1.79221e-07)
(0.000796532 -7.69176e-07 9.31201e-08)
(0.000797542 -3.8518e-07 5.9943e-08)
(0.00106326 -9.20829e-07 2.61935e-07)
(0.000795321 -6.11243e-07 8.46926e-08)
(0.000795941 8.55166e-07 8.87668e-08)
(0.00106106 -1.12969e-06 1.99664e-07)
(0.000793563 -3.28571e-07 4.88726e-08)
(0.000794419 -2.33082e-07 3.65508e-08)
(0.00105909 -5.01818e-07 1.73208e-07)
(0.000792043 -1.85699e-07 5.05196e-08)
(0.000792735 4.61335e-07 5.88811e-08)
(0.00105684 -4.00698e-07 1.52855e-07)
(0.000790937 -5.30096e-08 5.81855e-08)
(0.000791349 -3.81575e-07 4.80082e-08)
(0.00105522 -1.19615e-07 1.7261e-07)
(0.00078847 -1.32258e-08 6.499e-08)
(0.00078967 1.47697e-07 4.68697e-08)
(0.00105282 -3.73549e-08 3.13503e-07)
(0.000787047 -9.01369e-08 4.72211e-08)
(0.000787929 -3.97125e-08 5.3207e-08)
(0.00105014 7.86872e-09 2.05344e-07)
(0.000785599 -1.59079e-07 4.11279e-08)
(0.00078651 8.22743e-07 1.24396e-07)
(0.00104824 -2.53026e-07 1.09029e-07)
(0.000784213 -9.44827e-08 4.85601e-08)
(0.000785028 -3.43717e-07 5.36632e-08)
(0.00104632 -1.7245e-07 1.92386e-07)
(0.000782496 -5.09339e-08 5.20499e-08)
(0.000783474 -3.09477e-08 5.54205e-08)
(0.00104429 -6.97669e-08 1.62319e-07)
(0.000781041 -1.06748e-07 3.35933e-08)
(0.000781911 -7.14704e-08 5.54801e-08)
(0.00104194 -5.70455e-08 1.81999e-07)
(0.000779761 -1.70698e-08 8.36652e-09)
(0.000780684 2.90076e-07 -8.72705e-09)
(0.00104025 -2.13156e-07 1.0872e-07)
(0.000779099 2.51765e-07 1.06897e-07)
(0.000779515 7.90629e-07 2.01659e-08)
(0.00103915 2.279e-07 5.74116e-08)
(0.000777471 4.06597e-07 1.38629e-07)
(0.000778007 3.47585e-07 1.40624e-07)
(0.00103738 5.75708e-07 1.72493e-07)
(0.000776561 4.38717e-07 2.52972e-08)
(0.00077672 4.59341e-07 3.45676e-08)
(0.00103588 6.25154e-07 1.19595e-07)
(0.000774249 3.2067e-07 -8.26122e-09)
(0.000775248 -5.89643e-08 1.38162e-08)
(0.00103384 5.88877e-07 5.4228e-08)
(0.000772565 7.57291e-08 4.76548e-08)
(0.000773456 2.54205e-08 2.20904e-08)
(0.00103084 2.8315e-07 1.66414e-08)
(0.000771674 5.7327e-09 7.42611e-08)
(0.000772168 1.06982e-07 5.68309e-08)
(0.00102918 -5.71101e-08 1.78703e-07)
(0.000770256 4.30367e-08 8.45014e-08)
(0.000770963 -9.36456e-08 5.05898e-08)
(0.00102774 7.57218e-08 1.67227e-07)
(0.000768951 -2.68017e-08 8.40603e-08)
(0.000769553 -4.4056e-09 1.29473e-07)
(0.00102586 4.77478e-08 1.67658e-07)
(0.000767483 -1.99644e-07 3.6931e-08)
(0.000768195 -4.85343e-08 4.86282e-08)
(0.00102401 -8.7174e-08 1.84002e-07)
(0.000765922 -2.46182e-07 1.59615e-08)
(0.000766625 -3.68007e-07 1.94365e-08)
(0.00102203 -3.83347e-07 1.47412e-07)
(0.000764423 -1.15372e-07 3.69572e-08)
(0.000765103 1.33202e-06 -2.29721e-09)
(0.0010199 -2.07086e-07 1.01973e-07)
(0.00076269 4.67048e-08 6.59074e-08)
(0.000763745 4.95431e-07 6.03399e-08)
(0.0010177 -6.46431e-08 1.74719e-07)
(0.00076134 3.37444e-07 1.27706e-07)
(0.000762358 -2.94532e-08 5.69866e-08)
(0.00101564 2.05286e-07 1.82529e-07)
(0.000760096 5.64869e-07 1.67403e-07)
(0.000761 3.54826e-07 1.45344e-07)
(0.00101403 7.26767e-07 1.76251e-07)
(0.000759658 3.68948e-07 1.14547e-07)
(0.000759827 -1.19359e-06 1.90625e-08)
(0.00101299 8.07535e-07 1.75907e-07)
(0.00075828 1.41178e-07 6.35099e-08)
(0.000758683 3.43417e-07 6.64058e-08)
(0.00101165 2.33308e-07 1.70015e-07)
(0.000756664 2.19267e-07 7.85583e-08)
(0.000757395 3.88701e-08 3.94036e-08)
(0.00100971 2.47096e-07 1.79279e-07)
(0.000754899 3.40424e-07 9.74032e-08)
(0.000755889 -2.15284e-08 9.5972e-08)
(0.00100744 3.98939e-07 1.17873e-07)
(0.000753374 2.68678e-07 7.8461e-08)
(0.00075411 4.1874e-07 3.65926e-08)
(0.00100512 5.1517e-07 1.65312e-07)
(0.000752101 1.18655e-07 9.33396e-08)
(0.00075257 2.223e-07 6.26207e-08)
(0.00100321 1.96439e-07 2.07973e-07)
(0.000751581 -7.15893e-07 1.41573e-07)
(0.00100195 1.25427e-07 1.87151e-07)
(0.0326014 0.0244259 0.00202758)
(0.0251509 0.0102531 -0.00282598)
(0.0151412 0.00152644 -0.00255725)
(0.00938539 0.0120709 -0.000507062)
(0.00771224 -0.00483896 0.000215204)
(-0.0291931 -0.0106639 -0.00182122)
(-0.0101306 -0.00673001 0.000698064)
(0.0517957 0.0297603 -0.00397398)
(0.00541445 0.0201452 0.00331275)
(0.0534816 -0.00358329 -0.00997038)
(0.0467522 -0.00456601 0.00364813)
(0.0498643 -0.010905 0.00821513)
(0.00618969 0.00177939 0.00192822)
(0.00208034 0.0159605 0.00134012)
(0.0143805 0.000476651 0.00115381)
(-0.0077032 0.00171903 0.00274191)
(-0.0016863 0.00211787 0.000635559)
(-0.000961235 0.0079422 0.000449975)
(0.00317382 0.00137931 0.00130116)
(-0.00603051 0.00118902 -0.014342)
(0.0357968 -0.000589626 -0.00504505)
(0.0190034 0.00503042 -0.00473189)
(0.00487464 0.0157161 0.0333348)
(-0.00468106 0.00903899 0.000124223)
(0.00467713 0.0082215 -0.000585963)
(0.00426849 0.016083 -0.00156639)
(0.00216428 0.014929 -8.39571e-05)
(0.00863924 0.00995508 6.77753e-05)
(0.011413 0.0082624 0.000213773)
(0.00700982 -0.00383306 0.000461964)
(0.0042742 -0.00917378 -0.000184377)
(0.00547017 0.000169426 0.0018199)
(0.018911 -0.013491 -0.000616592)
(0.0187039 -0.0018264 -0.000488151)
(0.0139005 -0.00503439 -0.00103833)
(0.00738119 0.00469694 -0.00188668)
(-0.000580393 -0.000683204 -0.000169233)
(-0.00492628 -0.00161368 6.4522e-05)
(0.000885832 -0.000627757 -5.98293e-05)
(-0.00177477 0.000857059 0.00014036)
(-0.000311658 -0.00640954 -0.000592836)
(0.0011416 -7.7821e-05 6.77336e-05)
(0.000956989 -0.000151922 2.0791e-05)
(0.00136073 5.03772e-05 -1.19527e-05)
(0.00129411 -4.07355e-05 -2.33679e-05)
(0.00125698 -7.94567e-05 2.13407e-05)
(0.000545693 -3.99533e-05 -1.45249e-07)
(0.000518611 -1.84347e-05 -3.71766e-06)
(0.000512628 -4.70063e-06 -4.29408e-07)
(0.000827397 -2.805e-05 5.62449e-07)
(0.000848364 1.20092e-05 -7.67112e-07)
(0.000915048 2.55451e-05 -1.22798e-06)
(0.0012203 2.23668e-05 -1.10657e-06)
(0.000631271 -9.07715e-06 -4.29671e-06)
(0.00063911 8.26146e-06 -5.07766e-06)
(0.00104712 -3.71679e-05 -5.55323e-06)
(0.00106436 4.48571e-06 -6.34435e-06)
(0.000833799 4.21821e-06 -5.22387e-08)
(0.00082547 1.36109e-05 -4.6377e-07)
(0.00110517 3.28299e-06 5.76251e-08)
(0.000823194 3.26226e-06 9.50316e-08)
(0.000827892 9.6894e-06 1.66533e-07)
(0.00110633 4.04945e-06 2.08361e-07)
(0.000815705 1.83564e-06 3.92153e-08)
(0.000816873 6.14072e-06 1.20637e-07)
(0.00109126 2.20339e-06 1.83223e-07)
(0.000810435 1.10831e-06 5.00659e-08)
(0.000811788 3.75399e-06 1.36176e-07)
(0.00108358 1.17853e-06 1.81661e-07)
(0.000806468 8.30906e-07 4.61285e-08)
(0.000807817 2.43226e-06 4.75519e-08)
(0.0010775 8.36098e-07 1.7876e-07)
(0.000803298 6.43285e-07 4.51447e-08)
(0.000804459 1.69978e-06 3.64786e-08)
(0.00107287 7.73241e-07 1.77244e-07)
(0.00080068 3.81114e-07 4.69585e-08)
(0.000801574 1.12958e-06 3.42782e-08)
(0.00106906 5.46307e-07 1.76083e-07)
(0.000798531 1.54043e-07 5.53835e-08)
(0.000799331 4.79116e-07 4.75125e-08)
(0.00106597 2.29403e-07 1.77769e-07)
(0.000796648 5.45843e-08 5.55804e-08)
(0.000797418 6.68896e-07 5.66972e-08)
(0.0010632 5.0365e-08 1.35058e-07)
(0.000795315 -9.82515e-08 4.06418e-08)
(0.000795751 5.38034e-07 5.51218e-08)
(0.00106111 -9.75864e-09 1.82571e-07)
(0.000793426 -2.24482e-07 4.65522e-08)
(0.000794263 1.55794e-07 4.80217e-08)
(0.00105902 -3.53289e-07 1.82119e-07)
(0.000792014 -2.62139e-07 5.63732e-08)
(0.000792689 5.00972e-08 6.22255e-08)
(0.00105681 -3.0702e-07 1.96464e-07)
(0.000790266 -4.69084e-07 3.66928e-08)
(0.000791093 -1.16272e-07 4.64398e-08)
(0.00105472 -4.20583e-07 1.78978e-07)
(0.00078894 -4.624e-07 3.50847e-08)
(0.00078968 7.39184e-07 1.41577e-07)
(0.00105265 -8.21167e-07 1.19885e-07)
(0.000787425 -2.37502e-07 1.30359e-07)
(0.000788212 2.91942e-08 7.35665e-08)
(0.00105066 -4.10245e-07 1.72899e-07)
(0.000785927 -9.87023e-08 1.36954e-07)
(0.000786685 -2.0698e-08 1.60631e-07)
(0.00104874 -2.72473e-07 2.35711e-07)
(0.000784305 4.48045e-08 6.0523e-08)
(0.000785208 5.85028e-07 7.02374e-08)
(0.00104668 -5.37087e-08 1.22848e-07)
(0.000782889 2.31346e-07 5.88507e-08)
(0.000783707 -7.30019e-08 6.36083e-08)
(0.00104451 1.40656e-07 1.72975e-07)
(0.000781494 5.42e-07 1.318e-08)
(0.000782297 4.52601e-07 5.7452e-08)
(0.00104264 4.98626e-07 1.31693e-07)
(0.000780431 6.93155e-07 3.06326e-09)
(0.000780869 8.79918e-07 -3.9226e-09)
(0.00104112 1.04829e-06 9.80303e-08)
(0.000778496 5.04332e-07 5.38547e-08)
(0.000779275 4.06635e-07 9.08417e-08)
(0.00103915 9.32508e-07 2.43829e-07)
(0.000777134 4.06801e-07 3.65951e-08)
(0.000777881 3.45827e-07 6.29e-08)
(0.00103683 5.52134e-07 1.6659e-07)
(0.000775659 1.94194e-07 2.3093e-08)
(0.000776452 2.77278e-07 1.0825e-08)
(0.00103487 6.9671e-07 1.89505e-07)
(0.000774296 -6.75798e-08 4.41652e-08)
(0.00077492 -1.29178e-07 3.70878e-08)
(0.00103304 -3.31049e-08 1.71719e-07)
(0.000772924 4.3744e-08 3.12557e-08)
(0.000773594 5.55554e-08 4.72822e-08)
(0.00103125 -6.62874e-08 1.65737e-07)
(0.000771619 1.03395e-07 3.31616e-08)
(0.000772242 2.60077e-07 3.46496e-08)
(0.0010294 2.00091e-07 1.51025e-07)
(0.000770167 3.33374e-08 9.55368e-08)
(0.000770875 -6.58355e-08 4.88566e-08)
(0.00102764 7.64495e-08 1.73207e-07)
(0.000768865 -7.70771e-09 9.40659e-08)
(0.000769502 -9.31568e-08 1.02488e-07)
(0.00102574 7.67655e-09 1.6822e-07)
(0.000767384 -1.4703e-07 3.11427e-08)
(0.000768021 8.92141e-08 4.83133e-08)
(0.00102394 -4.58084e-08 1.68117e-07)
(0.000765666 -2.85456e-07 1.18449e-09)
(0.000766453 -2.0942e-07 2.97606e-08)
(0.00102175 -3.79595e-07 1.87754e-07)
(0.000764507 -2.54759e-07 2.10661e-08)
(0.000765142 -1.44758e-07 -5.22909e-08)
(0.00101975 -4.1738e-07 2.55391e-07)
(0.000763452 -8.90466e-08 5.14201e-08)
(0.000763952 1.63685e-07 5.60897e-08)
(0.0010183 -2.44653e-07 1.63545e-07)
(0.000761945 1.65842e-07 7.45974e-08)
(0.000762675 1.40714e-07 2.27099e-07)
(0.00101674 1.07193e-07 1.68058e-07)
(0.000760635 4.66546e-07 -2.95865e-09)
(0.000761374 4.22067e-07 6.4194e-08)
(0.00101479 4.50371e-07 1.57782e-07)
(0.000758871 4.34989e-07 -2.90927e-08)
(0.000759786 -9.98615e-07 -2.87243e-08)
(0.00101267 8.31679e-07 1.89498e-07)
(0.000757906 1.6933e-07 4.23079e-08)
(0.00075835 1.8382e-07 1.12905e-07)
(0.00101087 3.14348e-07 1.42665e-07)
(0.000756631 8.38607e-08 5.68001e-08)
(0.000757288 3.46447e-08 4.24231e-08)
(0.00100936 1.33234e-07 1.59526e-07)
(0.000755197 1.87508e-07 3.51794e-08)
(0.000756018 1.0125e-06 4.54587e-08)
(0.00100761 6.42227e-08 9.8235e-08)
(0.000753118 2.61164e-07 2.07444e-08)
(0.000754202 1.30122e-06 1.47972e-08)
(0.00100518 3.72317e-07 1.67768e-07)
(0.000751982 2.24956e-07 1.1083e-07)
(0.000752522 -3.47066e-08 5.64986e-08)
(0.001003 2.80283e-07 1.64989e-07)
(0.000751301 -1.18236e-06 1.12488e-07)
(0.00100161 3.13908e-07 2.02173e-07)
(0.00130756 -0.0230775 0.000239542)
(-0.00277476 -0.0195067 0.000510746)
(-0.00551108 0.00328266 0.00127836)
(0.0172027 0.000730464 -0.00151808)
(-0.021187 -0.00775329 -0.00132764)
(-0.0250098 1.57938e-05 -0.00266513)
(-0.0112839 0.00667783 -0.000694691)
(-0.00914469 0.00485097 -0.00237893)
(0.00197046 0.00890904 -0.00103655)
(0.00213718 0.001209 6.82063e-05)
(-0.000670767 -0.00228873 0.000724159)
(0.000488533 -0.00289183 0.000295227)
(-0.00147845 -0.00277774 0.00136773)
(-0.0137268 -0.00238216 -0.000168018)
(0.0110799 -0.006191 -0.000147604)
(-0.00437933 -0.00184126 0.000143925)
(-0.000250209 -0.00181392 -1.88886e-05)
(-0.0020993 0.00220917 -0.000228371)
(0.00881452 -0.00194389 6.39922e-05)
(0.00132275 0.00203641 -0.000250245)
(0.0021983 0.000435121 -0.000869359)
(0.00868739 -0.00179248 -0.000471771)
(0.00382369 0.00292043 -5.39558e-05)
(0.00363939 0.00586968 0.000366042)
(0.00845694 0.00879139 0.000617002)
(0.0128442 0.0119229 0.00159276)
(0.0272968 0.000878782 0.000149208)
(-0.000738577 -0.000768677 0.000218467)
(-0.000524946 -0.00385457 0.000135663)
(-0.00311574 -0.00193373 6.06167e-05)
(-0.00152025 -0.00640304 2.14468e-05)
(-0.0021154 -0.00233708 0.000597488)
(0.0011105 0.000946587 4.27743e-05)
(0.00243184 0.00116765 6.08586e-05)
(0.00227071 0.000564129 0.000118222)
(0.0023008 0.0013111 -3.00317e-05)
(0.00195031 0.000499786 8.891e-05)
(0.00038116 3.11978e-05 -3.15049e-06)
(0.000529461 3.03135e-05 -4.08033e-06)
(0.000491195 4.33433e-05 -1.11214e-06)
(0.000858428 5.0199e-05 -2.00594e-06)
(0.000354821 4.79945e-05 -2.53798e-06)
(0.000716079 6.06676e-05 -3.84925e-06)
(0.000661358 0.000106597 2.85636e-08)
(0.000522323 1.46783e-05 -8.16816e-07)
(0.000842359 2.84592e-05 -9.24884e-07)
(0.000899177 4.63242e-05 -1.23141e-06)
(0.00122147 4.34063e-05 -1.12232e-06)
(0.00064204 3.04795e-05 -4.25271e-06)
(0.000626673 3.87396e-05 -4.98683e-06)
(0.00106842 5.07863e-05 -5.10486e-06)
(0.00104287 7.12556e-05 -6.14945e-06)
(0.00082847 1.83191e-05 -2.45203e-07)
(0.000812894 3.08313e-05 -6.17444e-07)
(0.00109672 2.73235e-05 5.20303e-08)
(0.000819179 1.18385e-05 1.92154e-07)
(0.000819756 1.89581e-05 1.67107e-07)
(0.00110136 1.80412e-05 2.05264e-07)
(0.000812689 7.55716e-06 2.17593e-07)
(0.000811499 1.24151e-05 1.17972e-07)
(0.00108696 1.12725e-05 1.70775e-07)
(0.00080897 4.78786e-06 1.33691e-07)
(0.000808312 6.1105e-06 8.56135e-08)
(0.00108097 7.43128e-06 2.02321e-07)
(0.000805781 2.76894e-06 3.79056e-08)
(0.000805285 4.45388e-06 4.58891e-08)
(0.00107641 4.42965e-06 1.79522e-07)
(0.000802582 1.53991e-06 2.56129e-08)
(0.000802918 4.30561e-06 5.06003e-08)
(0.00107209 2.42286e-06 1.3982e-07)
(0.00080005 9.63718e-07 3.48279e-08)
(0.000800851 3.03386e-06 4.97448e-08)
(0.00106824 1.38795e-06 1.3109e-07)
(0.000798185 6.79599e-07 4.88232e-08)
(0.000798974 9.25601e-07 4.74934e-08)
(0.00106535 9.9875e-07 1.74826e-07)