/*--------------------------------*- C++ -*----------------------------------*\
| =========                 |                                                 |
| \\      /  F ield         | OpenFOAM: The Open Source CFD Toolbox           |
|  \\    /   O peration     | Version:  5.0                                   |
|   \\  /    A nd           | Web:      www.OpenFOAM.org                      |
|    \\/     M anipulation  |                                                 |
\*---------------------------------------------------------------------------*/
FoamFile
{
    version     2.0;
    format      ascii;
    class       surfaceVectorField;
    location    "1.4";
    object      Uf_0;
}
// * * * * * * * * * * * * * * * * * * * * * * * * * * * * * * * * * * * * * //

dimensions      [0 1 -1 0 0 0 0];

internalField   nonuniform List<vector> 
23698
(
(0.0035144 0.00696071 0.000232424)
(-0.00687643 0.00422927 0.000453606)
(0.00214812 0.00542256 -0.000218223)
(0.000739457 -0.0083536 -0.000447723)
(-0.00693339 0.0093975 0.00153248)
(0.0132291 -0.00380631 -0.000986666)
(0.0035144 0.00696071 0.000232424)
(0.0035144 0.00696071 0.000232424)
(0.0035144 0.00696071 0.000232424)
(0.0035144 0.00696071 0.000232424)
(0.0035144 0.00696071 0.000232424)
(0.0035144 0.00696071 0.000232424)
(-0.00125701 -0.0111354 0.000339087)
(-0.00050729 -0.00720519 0.000628099)
(0.00714206 0.00357069 -0.000430527)
(0.00994307 0.00435706 -0.000686427)
(-0.00106965 -0.0051783 0.00163031)
(-0.00395214 0.000733791 0.000184418)
(0.00189837 -0.00285877 0.000179087)
(0.0270358 0.0028375 0.000632327)
(-0.00405294 0.000658401 0.00100115)
(-0.00279163 0.0017511 0.00369722)
(-0.00221756 -0.00164027 0.000943516)
(0.00454649 0.00415718 -0.000102141)
(0.00568292 0.00368503 -0.00120011)
(0.00420027 0.00592504 0.00248391)
(0.00381448 0.00861071 -0.000178611)
(0.0101502 0.00207126 0.00074541)
(0.0106314 0.0177965 -9.6148e-05)
(-0.000112573 -0.00658998 -6.16965e-05)
(-0.0057528 -0.00339569 -0.000409273)
(-0.00273781 0.000587973 0.000355525)
(-0.0112511 0.000655579 -0.00153393)
(0.00147453 -0.000486266 0.000108328)
(0.000939829 -0.0001868 6.23007e-05)
(0.000560078 -0.000215568 8.54584e-05)
(0.0015584 -0.000761673 4.62433e-05)
(0.000300737 3.13606e-06 -5.02098e-07)
(0.000434962 -6.32326e-06 -2.71971e-06)
(0.000415769 1.04467e-05 -1.52485e-06)
(0.000697408 1.68289e-05 -8.26058e-07)
(0.000305223 1.7438e-05 -8.6285e-07)
(0.00057733 1.6496e-05 4.28442e-06)
(0.000559888 5.27342e-05 3.54022e-06)
(0.00076292 -3.37196e-05 -1.00677e-06)
(0.000781062 -6.06692e-05 -1.95736e-06)
(0.00102455 -4.70621e-05 -1.33159e-06)
(0.000538213 -2.3315e-05 -3.42798e-06)
(0.00053331 -2.20132e-05 -3.71649e-06)
(0.000911204 -2.58215e-05 -3.57099e-06)
(0.00089235 -2.83255e-05 -3.93989e-06)
(0.000778315 -2.46288e-05 1.13914e-08)
(0.000778723 -4.0593e-05 -2.28403e-08)
(0.00102358 -3.58188e-05 1.3375e-07)
(0.00078779 -1.6873e-05 1.07899e-07)
(0.000791947 -2.74581e-05 1.42286e-07)
(0.00104605 -2.53282e-05 1.93886e-07)
(0.000792814 -1.11424e-05 8.96552e-08)
(0.000795969 -1.77094e-05 8.59265e-08)
(0.00105445 -1.67831e-05 1.75788e-07)
(0.000795698 -7.29043e-06 3.79552e-08)
(0.000798026 -1.12817e-05 6.79981e-08)
(0.00105974 -1.11214e-05 1.78091e-07)
(0.000796956 -4.66032e-06 2.33755e-08)
(0.000798723 -7.10115e-06 2.78565e-08)
(0.00106258 -7.19942e-06 1.81382e-07)
(0.00079705 -2.94359e-06 4.60822e-08)
(0.000798459 -4.58429e-06 4.85045e-08)
(0.00106338 -4.50456e-06 1.77111e-07)
(0.000796358 -1.96552e-06 4.07283e-08)
(0.000797567 -2.97066e-06 4.8082e-08)
(0.00106285 -2.85963e-06 1.70489e-07)
(0.000795247 -1.36972e-06 4.44196e-08)
(0.000796405 -1.15737e-06 4.49639e-08)
(0.00106166 -2.05042e-06 1.65532e-07)
(0.000794172 -9.60587e-07 4.7464e-08)
(0.00079509 -1.33739e-06 5.1804e-08)
(0.00106019 -1.37147e-06 1.77217e-07)
(0.000793025 -8.01581e-07 7.8854e-08)
(0.000793722 -8.95905e-07 4.62545e-08)
(0.0010588 -1.02944e-06 1.76565e-07)
(0.000791032 -6.80335e-07 1.03515e-07)
(0.000792247 -1.60217e-06 5.2186e-08)
(0.00105656 -9.53006e-07 3.13824e-07)
(0.000790042 -4.32634e-07 6.92753e-08)
(0.000790836 -4.25287e-07 5.88335e-08)
(0.00105452 -7.3559e-07 2.1685e-07)
(0.000788416 -2.23699e-07 6.47284e-08)
(0.000789359 -3.0214e-07 6.56951e-08)
(0.00105298 -3.54246e-07 1.80468e-07)
(0.000786868 -9.38343e-08 4.69135e-08)
(0.000787722 4.96026e-08 7.2312e-08)
(0.00105075 -1.72307e-07 1.8696e-07)
(0.000785576 -6.34952e-10 2.84273e-08)
(0.000786244 5.31178e-07 9.8141e-08)
(0.00104881 2.83236e-09 9.52277e-08)
(0.000784046 1.00741e-07 2.60988e-08)
(0.000784856 -8.0074e-08 3.71315e-08)
(0.00104701 5.41568e-08 1.77308e-07)
(0.000782393 2.41855e-07 3.84831e-08)
(0.000783321 2.92186e-07 3.26795e-08)
(0.00104487 2.91473e-07 1.93972e-07)
(0.00078084 3.30635e-07 3.95777e-08)
(0.000781695 3.87772e-07 1.19279e-07)
(0.0010427 4.66493e-07 1.81359e-07)
(0.000779717 2.63815e-07 3.03567e-08)
(0.000780196 7.22455e-07 4.62505e-08)
(0.00104094 4.86776e-07 8.25276e-08)
(0.00077817 2.83562e-07 7.17531e-08)
(0.000778918 1.01337e-07 4.84116e-08)
(0.00103934 2.2086e-07 1.79284e-07)
(0.000776121 6.19875e-08 7.09234e-08)
(0.00077697 -1.69437e-07 3.90184e-08)
(0.00103679 5.0286e-07 2.62008e-07)
(0.00077455 -4.78361e-07 -5.95496e-09)
(0.000774967 8.22e-09 6.31495e-08)
(0.00103429 -3.76305e-07 1.91251e-07)
(0.000773189 -6.09669e-07 -2.46963e-08)
(0.000773854 1.88837e-06 3.65176e-08)
(0.0010325 -9.20576e-07 -3.17899e-08)
(0.000771413 -4.83928e-07 5.00269e-08)
(0.000772482 1.0125e-06 3.48625e-08)
(0.00103026 -7.2867e-07 8.90813e-08)
(0.000770412 -2.53644e-07 5.92084e-08)
(0.000771144 2.51389e-07 1.43405e-07)
(0.00102839 -5.67816e-07 1.69019e-07)
(0.000769406 -2.574e-08 3.85214e-08)
(0.00077 4.2932e-07 3.79969e-08)
(0.00102726 -8.99619e-08 6.83726e-08)
(0.000767804 7.8801e-08 5.88073e-08)
(0.000768513 7.71814e-08 4.58545e-08)
(0.00102554 6.20803e-08 1.76075e-07)
(0.000765937 7.69682e-08 6.17075e-08)
(0.000766845 -7.53945e-08 5.16559e-08)
(0.00102314 2.11884e-07 2.32905e-07)
(0.000764495 6.45647e-08 3.67746e-08)
(0.000765334 9.73554e-08 4.44996e-08)
(0.00102087 5.35768e-08 1.72331e-07)
(0.00076308 2.17668e-07 3.8966e-08)
(0.000763921 1.84846e-07 3.91199e-08)
(0.00101889 1.76731e-07 1.59962e-07)
(0.000761494 3.66101e-07 6.55101e-08)
(0.000762414 3.1425e-07 4.86215e-08)
(0.00101698 4.79531e-07 1.79446e-07)
(0.000760693 2.33274e-07 5.38691e-08)
(0.000761018 -1.06699e-06 3.85472e-08)
(0.00101551 5.34945e-07 1.89471e-07)
(0.000759142 3.66463e-08 5.30786e-08)
(0.000759688 8.53615e-08 4.7793e-08)
(0.00101386 8.75586e-08 1.79561e-07)
(0.000757666 -1.23104e-07 8.13347e-08)
(0.000758177 -3.30443e-08 6.72466e-08)
(0.00101172 1.27773e-08 1.68674e-07)
(0.000756341 -2.58679e-07 1.59274e-07)
(0.000756868 -3.86986e-07 6.19905e-08)
(0.00101013 -3.81127e-07 1.75571e-07)
(0.00075492 -2.1058e-07 1.34556e-07)
(0.000755606 -3.66747e-07 1.6472e-07)
(0.00100816 -3.53971e-07 1.6891e-07)
(0.000753408 -1.34176e-07 3.47301e-08)
(0.000754169 6.77658e-08 4.62362e-08)
(0.00100612 -2.32984e-07 1.71688e-07)
(0.00075189 -1.88055e-07 4.6345e-08)
(0.000752662 -7.23146e-08 4.27833e-08)
(0.00100416 -1.6774e-07 1.56668e-07)
(0.000750687 -3.96947e-07 1.22037e-07)
(0.000751269 -1.18915e-07 3.67567e-08)
(0.0010023 -3.3794e-07 1.70658e-07)
(0.000749326 -4.48616e-07 8.28508e-08)
(0.000750012 -3.92564e-07 1.17741e-07)
(0.00100078 -6.62834e-07 1.64862e-07)
(0.000747521 -2.95467e-07 2.25228e-08)
(0.000748428 1.09114e-06 3.78819e-08)
(0.000998521 -4.87826e-07 9.0392e-08)
(0.000747095 -4.54032e-07 4.66761e-08)
(0.000996255 -3.05923e-07 2.45461e-07)
(-0.0115165 -0.00654466 0.000281851)
(-0.001724 -0.00747505 0.000635484)
(-0.0125811 0.000486938 0.00177812)
(-0.00334264 -0.00946242 -5.16602e-05)
(0.0128895 0.00207182 0.000540326)
(0.0135445 -0.0196286 0.00021339)
(0.00719357 -0.0152407 -0.000217251)
(0.00728696 -0.00791713 0.000313258)
(-0.0726941 -0.0284646 0.00808971)
(-0.00993819 -0.0563026 0.00776038)
(-0.12674 -0.0895331 0.0232937)
(-0.203518 -0.0256298 0.000149969)
(-0.0427203 -0.134518 0.000882713)
(0.0380446 -0.00593733 -0.00169157)
(0.018086 -0.0191733 -0.000173215)
(0.0191664 -0.0120521 -0.000898171)
(0.0279902 -0.00628871 0.000128075)
(0.0175536 0.00677448 -0.00186842)
(0.00380001 -0.00034532 0.000312655)
(0.00839426 7.43937e-05 -0.000147413)
(-0.00218806 6.1522e-06 0.000375013)
(0.00164591 -0.0029326 -0.000159674)
(0.00578704 0.00294828 0.001063)
(0.00314984 -0.000631658 0.000393704)
(0.0097764 0.000593649 0.000315753)
(0.00157322 -0.000733048 0.000412907)
(0.00896962 -0.00314432 0.000386071)
(0.00274633 0.00162244 0.000859612)
(0.000111411 -7.09422e-05 9.50808e-06)
(0.000390371 -1.09564e-05 -5.07845e-07)
(0.000366015 -7.32368e-05 -1.70504e-06)
(0.000602216 -0.000145088 1.71315e-06)
(0.00035094 -0.000189871 1.88867e-05)
(7.51715e-05 -0.000130534 5.35138e-06)
(0.000637845 -0.000431651 4.76611e-05)
(0.00033093 -8.02044e-05 -3.66854e-07)
(0.00067396 -0.000148309 2.26055e-06)
(0.000544646 -0.000181744 -2.98103e-07)
(0.000283745 -9.45906e-05 -1.37137e-06)
(0.000785773 -7.11463e-05 -9.74068e-07)
(0.000840164 -0.00011273 -2.08409e-06)
(0.00105326 -0.000117412 -1.2446e-06)
(0.000512961 -6.95953e-05 -3.54403e-06)
(0.000576208 -8.84382e-05 -4.42475e-06)
(0.000841318 -0.000121879 -3.81993e-06)
(0.000984819 -0.000167155 -5.04766e-06)
(0.000795521 -4.33355e-05 1.08e-07)
(0.000813542 -5.48817e-05 -7.63135e-08)
(0.00105039 -6.92587e-05 1.84212e-07)
(0.000800359 -2.71976e-05 1.20331e-07)
(0.000812273 -3.5729e-05 1.00682e-07)
(0.00106479 -4.38218e-05 1.92589e-07)
(0.000801456 -1.67933e-05 6.42753e-08)
(0.000809069 -2.12117e-05 5.59848e-08)
(0.00106802 -2.69216e-05 1.85678e-07)
(0.000801217 -1.04153e-05 5.79125e-08)
(0.000806056 -1.30633e-05 5.09647e-08)
(0.00106872 -1.66492e-05 1.81877e-07)
(0.000800324 -6.51893e-06 5.29788e-08)
(0.000803629 -8.03675e-06 5.14466e-08)
(0.00106807 -1.03243e-05 1.8075e-07)
(0.000799085 -4.1466e-06 5.05044e-08)
(0.000801446 -5.03839e-06 4.99895e-08)
(0.00106672 -6.56116e-06 1.78336e-07)
(0.000797626 -2.66722e-06 5.23186e-08)
(0.00079943 -3.13978e-06 5.07758e-08)
(0.00106495 -4.18832e-06 1.78218e-07)
(0.000796287 -1.68717e-06 5.2346e-08)
(0.00079764 -1.87858e-06 5.32042e-08)
(0.00106313 -2.7185e-06 2.06386e-07)
(0.000794583 -1.02339e-06 5.05963e-08)
(0.000795926 -1.18669e-06 5.19984e-08)
(0.00106116 -1.65702e-06 1.77978e-07)
(0.000792958 -6.1549e-07 1.95846e-08)
(0.000794236 -1.33812e-06 8.31881e-08)
(0.00105893 -1.02374e-06 2.12324e-07)
(0.000792029 -3.25202e-07 7.50266e-09)
(0.000792612 -6.5972e-07 4.99504e-08)
(0.00105718 -6.17759e-07 5.67223e-08)
(0.000790308 -1.63047e-07 5.52512e-08)
(0.00079104 -2.30662e-07 3.39524e-08)
(0.00105542 -2.51203e-07 1.77047e-07)
(0.000788512 -8.51956e-08 7.32766e-08)
(0.000789456 -3.63786e-08 1.66982e-07)
(0.0010531 -1.37996e-07 1.78654e-07)
(0.000787139 1.13099e-07 1.23531e-07)
(0.000787969 -1.89786e-07 5.55258e-08)
(0.00105098 -3.75821e-08 1.77284e-07)
(0.000785502 2.59295e-07 1.06865e-07)
(0.000786425 -9.20726e-07 1.1186e-07)
(0.00104895 3.9587e-07 2.84942e-07)
(0.000784194 2.8068e-07 4.37136e-08)
(0.000784881 -8.27768e-07 1.3052e-08)
(0.00104709 3.77428e-07 2.07359e-07)
(0.000782539 2.11753e-07 1.13448e-07)
(0.000783234 1.4662e-07 8.36615e-08)
(0.00104516 4.47037e-07 1.96052e-07)
(0.000781114 1.02279e-07 1.25975e-07)
(0.000781557 -5.56716e-08 1.26811e-07)
(0.00104295 1.90382e-07 1.9693e-07)
(0.000779265 -6.28156e-08 6.43047e-08)
(0.00077999 -2.07916e-07 7.14305e-08)
(0.00104071 1.51035e-07 2.68566e-07)
(0.000778153 -5.62994e-07 1.56799e-08)
(0.000778294 -3.85173e-07 5.43035e-08)
(0.00103894 -2.7323e-07 1.73083e-07)
(0.00077541 -7.38237e-07 3.1237e-08)
(0.000776753 3.48948e-06 -5.20789e-08)
(0.00103633 -1.21728e-06 2.48295e-08)
(0.000774207 -4.95297e-07 1.0563e-07)
(0.000775274 -3.52658e-07 4.61427e-08)
(0.00103353 -7.4707e-07 1.72525e-07)
(0.000773315 -3.33687e-07 9.6077e-08)
(0.000774058 -7.16891e-08 1.09539e-07)
(0.00103233 -5.6539e-07 2.58672e-07)
(0.000772078 8.50945e-08 1.28207e-07)
(0.000773006 -7.11108e-08 6.58472e-08)
(0.0010309 -3.22275e-07 2.27505e-07)
(0.000770806 5.10377e-07 1.22227e-07)
(0.000771674 5.50564e-07 2.46036e-07)
(0.00102921 5.8316e-07 1.32777e-07)
(0.00076913 4.28588e-07 4.53275e-08)
(0.000769895 7.17593e-07 8.49199e-08)
(0.00102735 8.27432e-07 1.69878e-07)
(0.000767592 1.78967e-07 3.87014e-08)
(0.0007682 2.10652e-07 7.15451e-08)
(0.00102512 3.25787e-07 1.68856e-07)
(0.000766117 1.49241e-07 3.44503e-08)
(0.000766807 6.82602e-08 4.27443e-08)
(0.00102305 1.45143e-07 1.62751e-07)
(0.000764842 2.04196e-07 4.68466e-08)
(0.000765402 5.25416e-08 4.82518e-08)
(0.00102125 2.44171e-07 1.58674e-07)
(0.000763262 2.79796e-07 4.87725e-08)
(0.000764014 2.14299e-07 5.14668e-08)
(0.00101944 3.15184e-07 1.8101e-07)
(0.000761857 3.92693e-07 2.16617e-08)
(0.000762554 4.03677e-07 4.03522e-08)
(0.00101736 4.93886e-07 1.61299e-07)
(0.000760015 2.50134e-07 3.24682e-08)
(0.000760838 -5.3777e-07 1.65379e-08)
(0.00101512 6.01832e-07 1.69222e-07)
(0.000758826 -1.22561e-07 6.1955e-08)
(0.000759222 -1.84928e-07 6.28392e-08)
(0.00101318 7.88517e-08 1.68272e-07)
(0.000757275 -4.36045e-07 4.7904e-08)
(0.000757786 3.17249e-07 6.31289e-08)
(0.00101128 -3.71156e-07 1.56328e-07)
(0.00075614 -4.50676e-07 6.74054e-08)
(0.000756852 -9.0472e-07 4.3063e-08)
(0.00100948 -7.28498e-07 1.81853e-07)
(0.000754875 -1.88094e-07 7.64367e-08)
(0.000755936 -4.10468e-08 9.10538e-08)
(0.00100808 -4.88993e-07 1.32814e-07)
(0.000753495 -8.88583e-08 5.42905e-08)
(0.000754295 3.39732e-08 6.47989e-08)
(0.00100625 -8.66478e-08 1.69387e-07)
(0.000751892 -7.03063e-09 3.31969e-08)
(0.000752765 8.00484e-08 6.45326e-08)
(0.00100424 -1.88939e-07 1.76446e-07)
(0.000750665 2.05828e-08 3.24358e-08)
(0.000751304 4.46056e-07 3.93495e-08)
(0.00100239 1.68291e-07 1.12306e-07)
(0.000749182 -1.67505e-07 7.27962e-08)
(0.000749777 -3.45484e-07 5.38436e-08)
(0.00100054 -9.30622e-08 1.73547e-07)
(0.000747812 -2.29963e-07 6.20325e-08)
(0.000748353 -4.43934e-08 6.53127e-08)
(0.000998549 -3.44683e-07 2.49952e-07)
(0.000747381 1.36459e-07 5.07981e-08)
(0.000997232 -2.73041e-07 9.08847e-08)
(-0.00199321 -0.00938353 0.0004104)
(-0.012165 -0.00587677 -0.00064472)
(-0.0135142 -0.00688142 0.00120209)
(-0.011719 -0.0119183 0.000391372)
(0.00941309 0.0175027 0.00116627)
(0.0354527 -0.0591575 0.00356201)
(0.0035144 0.00696071 0.000232424)
(0.0035144 0.00696071 0.000232424)
(0.0354527 -0.0591575 0.00356201)
(-0.013262 -0.00555443 -2.81565e-05)
(-0.0120889 0.00339649 -0.000288484)
(-0.0270791 -0.00101192 -0.00110512)
(-0.0035305 0.0172337 -0.00224105)
(-0.0375359 -0.00792868 -0.00487832)
(-0.0194097 -0.00647464 0.00045973)
(-0.0102997 0.00220382 -0.000394681)
(-0.0283097 -0.00362454 -0.000186191)
(-0.0273231 0.0048913 0.00133312)
(-0.0430102 -0.00469617 -0.00841993)
(0.0146971 0.0166888 0.00282418)
(0.012125 0.021124 0.0091293)
(-0.0440115 0.00613527 -0.00370207)
(-0.012154 0.00277991 -0.000380489)
(-0.023647 -0.0016829 -0.00026255)
(0.00376223 0.004878 -0.000194857)
(0.00262691 0.00897529 -0.00104983)
(-0.000720694 0.00455699 -0.00271824)
(0.00616383 -0.00343765 -0.000174092)
(-0.0135903 0.00115655 -0.000549374)
(0.0021559 0.000886892 -0.000299434)
(0.00175539 0.00894728 0.000122557)
(-0.000401833 -0.00286737 -0.00215914)
(0.000853083 -0.000204669 1.64535e-05)
(0.000351367 -5.45852e-05 1.8389e-05)
(0.000427856 -0.000207416 3.65705e-05)
(0.000633264 -0.000163968 5.9203e-05)
(0.000273408 -7.78631e-05 1.41922e-05)
(0.0008564 -8.62798e-05 -1.18699e-06)
(0.000626868 -7.69386e-05 -1.35024e-06)
(0.00118141 -0.000171847 -1.2096e-06)
(0.000607772 -0.000104123 -4.34307e-06)
(0.000649526 -0.000111587 -4.30723e-06)
(0.00101937 -0.000184434 -4.12708e-06)
(0.00111024 -0.000204186 -2.40998e-07)
(0.000606489 -8.72227e-05 -4.69794e-06)
(0.00107455 -0.000121522 1.09663e-06)
(0.00101725 -0.000138914 -6.4026e-06)
(0.000830791 -3.71154e-05 -8.36893e-08)
(0.000877734 -2.37503e-05 -7.89887e-07)
(0.00111563 -5.51073e-05 1.02247e-07)
(0.000820898 -2.56405e-05 3.63503e-08)
(0.000826761 -2.54231e-05 -1.6407e-07)
(0.00109938 -4.3219e-05 1.797e-07)
(0.000813328 -1.51244e-05 4.26759e-08)
(0.000822309 -1.38416e-05 9.90282e-08)
(0.00108867 -2.45919e-05 1.80561e-07)
(0.000808311 -9.40453e-06 4.44986e-08)
(0.000813262 -8.87159e-06 3.03902e-08)
(0.00108064 -1.53776e-05 1.79744e-07)
(0.000804632 -5.81388e-06 4.84577e-08)
(0.000808153 -5.48814e-06 5.01998e-08)
(0.00107529 -9.46355e-06 1.79305e-07)
(0.000801726 -3.63218e-06 5.02607e-08)
(0.000804195 -3.42357e-06 4.96673e-08)
(0.00107111 -5.89615e-06 1.78613e-07)
(0.000799327 -2.26112e-06 5.16606e-08)
(0.000801158 -2.14318e-06 5.05241e-08)
(0.00106769 -3.7042e-06 1.78618e-07)
(0.000797319 -1.41904e-06 5.2857e-08)
(0.000798701 -1.36808e-06 5.12917e-08)
(0.00106485 -2.2851e-06 1.79033e-07)
(0.000795514 -8.69338e-07 8.45802e-08)
(0.000796618 -9.10198e-07 5.1155e-08)
(0.00106233 -1.49492e-06 1.78077e-07)
(0.000793867 -5.12048e-07 1.13565e-07)
(0.000794686 -2.74411e-06 4.34587e-08)
(0.00106011 -8.6389e-07 2.80771e-07)
(0.000791623 -3.60105e-07 7.64053e-08)
(0.000792805 2.04569e-07 7.27402e-08)
(0.00105754 -6.01608e-07 1.75748e-07)
(0.0007902 -3.11384e-07 1.45641e-07)
(0.000791103 -4.07138e-07 3.66994e-08)
(0.00105513 -4.48718e-07 1.76973e-07)
(0.00078884 -2.12499e-07 1.49267e-07)
(0.000789582 -4.93235e-07 8.1444e-08)
(0.00105325 -4.2536e-07 1.91059e-07)
(0.00078733 -1.29272e-07 4.38362e-08)
(0.000788074 -2.63008e-07 4.85009e-08)
(0.00105141 -1.64965e-07 1.77609e-07)
(0.000785735 -1.15155e-07 1.80785e-08)
(0.000786443 -3.47692e-07 3.59774e-08)
(0.00104932 -1.7541e-07 1.40141e-07)
(0.000784056 -2.08744e-07 5.29775e-08)
(0.000784765 -3.84828e-07 3.21678e-08)
(0.00104707 -9.62025e-08 1.56661e-07)
(0.000782058 -1.9951e-07 9.70111e-08)
(0.000783246 -9.28484e-07 5.68997e-08)
(0.00104464 -4.36037e-07 2.90924e-07)
(0.000780587 -1.82697e-07 7.22841e-08)
(0.000781579 9.4346e-08 8.83066e-08)
(0.00104233 -1.00257e-07 1.59418e-07)
(0.000778977 -2.52403e-07 6.14347e-08)
(0.000779903 -5.07409e-09 6.03277e-08)
(0.00104036 -3.47111e-07 1.68071e-07)
(0.000776886 -2.98759e-07 -1.34216e-08)
(0.000778236 -1.34548e-07 7.17302e-08)
(0.00103763 -2.38704e-07 2.07206e-07)
(0.000776575 -4.16252e-09 -3.7204e-08)
(0.000777121 -8.56925e-07 -8.86652e-09)
(0.0010362 -4.6036e-07 3.74626e-07)
(0.000774982 5.55308e-07 5.00318e-08)
(0.000775971 -1.21521e-06 2.02113e-08)
(0.00103512 5.27136e-07 2.42575e-07)
(0.00077385 7.12063e-07 7.93234e-08)
(0.000774251 -8.70167e-07 5.1916e-08)
(0.00103304 9.81298e-07 1.97629e-07)
(0.000772617 5.65423e-07 1.8362e-07)
(0.00077282 -2.05827e-06 3.86807e-08)
(0.0010317 9.19045e-07 2.91312e-07)
(0.000770944 3.60811e-07 2.08779e-07)
(0.000771416 4.61067e-07 1.69698e-07)
(0.00102983 5.85817e-07 1.96005e-07)
(0.000768767 2.07721e-07 1.11142e-07)
(0.000769703 1.09285e-08 8.67186e-08)
(0.00102693 3.78329e-07 2.85148e-07)
(0.000767435 1.57125e-07 7.55971e-08)
(0.000768136 -3.91995e-08 7.51097e-08)
(0.00102468 1.56346e-07 1.77793e-07)
(0.000766083 1.67571e-07 5.65442e-08)
(0.00076682 -8.49901e-08 6.74761e-08)
(0.00102303 2.15666e-07 1.7293e-07)
(0.000764583 1.03099e-07 5.2871e-08)
(0.000765321 -2.27612e-09 4.92984e-08)
(0.00102108 1.93143e-07 1.79546e-07)
(0.000763264 8.74059e-08 4.305e-08)
(0.000763994 9.4624e-08 4.78324e-08)
(0.0010192 6.3784e-08 1.68355e-07)
(0.000761721 7.85143e-08 3.52358e-08)
(0.000762542 5.98159e-07 2.22408e-08)
(0.00101734 1.35723e-07 1.66103e-07)
(0.000759857 6.79549e-08 4.68946e-08)
(0.000760825 -1.24511e-07 1.31424e-08)
(0.00101498 4.07008e-08 1.79464e-07)
(0.000758246 6.22776e-08 6.4013e-08)
(0.000759214 1.33395e-07 6.19016e-08)
(0.00101264 1.26663e-07 1.63921e-07)
(0.000757024 2.89124e-07 5.8294e-08)
(0.000758068 1.22846e-07 4.72235e-08)
(0.00101071 5.6381e-08 1.65923e-07)
(0.000757055 4.05329e-07 6.66967e-08)
(0.000756995 -2.23732e-06 5.75714e-08)
(0.00100998 7.66213e-07 1.35408e-07)
(0.000755325 1.88214e-07 7.9424e-08)
(0.000755663 2.51867e-07 4.67518e-08)
(0.00100897 4.04909e-07 1.77299e-07)
(0.000753499 1.51377e-07 7.5041e-08)
(0.000754247 6.76309e-07 6.52342e-08)
(0.0010065 2.29887e-07 1.6081e-07)
(0.000752153 2.76093e-07 7.06929e-08)
(0.000752919 -1.30857e-07 7.01468e-08)
(0.00100448 2.84975e-07 1.7955e-07)
(0.000750416 2.82358e-07 6.07529e-08)
(0.00075131 1.90461e-07 8.05278e-08)
(0.00100242 5.00562e-07 2.18559e-07)
(0.00074894 1.82437e-07 4.63567e-08)
(0.000749651 -8.37399e-08 4.67353e-08)
(0.00100014 2.85126e-07 1.57197e-07)
(0.000747745 1.2302e-07 5.40828e-08)
(0.000748277 -2.91466e-07 3.94468e-08)
(0.000998304 2.23287e-07 1.68941e-07)
(0.000747228 9.90192e-08 5.55461e-08)
(0.000997024 1.03327e-07 1.57632e-07)
(0.0329976 0.0130231 0.0018884)
(0.0165275 0.000537097 -0.00131235)
(0.0151056 -0.00429182 -0.00220598)
(0.0115066 0.00811837 -0.00112719)
(0.00742669 -0.00987448 -0.0003879)
(-0.0208871 -0.0138474 -0.00173652)
(-0.00878353 -0.00816551 -0.000371018)
(0.0255517 -0.00790533 -0.00014464)
(-0.00175723 0.00851167 0.00286837)
(0.0255517 -0.00790533 -0.00014464)
(0.0255517 -0.00790533 -0.00014464)
(0.0255517 -0.00790533 -0.00014464)
(0.00615677 -0.00278507 0.0018812)
(6.19482e-05 0.0151642 0.00148924)
(0.0174873 -0.00290591 0.00074054)
(-0.0127387 -0.000789362 0.000933533)
(-0.00605469 6.28368e-05 0.000556826)
(-0.00520022 0.00607014 0.000186248)
(-0.00103069 -0.000491247 0.000822199)
(-0.00488123 0.000256742 -0.0241848)
(0.0346428 -0.00201037 -0.00952146)
(0.0113021 0.00330579 0.0035808)
(0.00123489 0.0128656 0.0428826)
(-6.51821e-05 0.00957424 -0.000291831)
(0.00523863 0.00680015 -0.000654466)
(0.0050348 0.0139586 -0.00105702)
(0.000549659 0.0135882 -0.00015127)
(0.00711377 0.00889582 4.2707e-05)
(0.0118242 0.00833026 0.00020947)
(0.00789159 -0.00356397 0.000465138)
(0.00439006 -0.00895297 -0.000161126)
(0.00605835 0.000763748 0.00199077)
(0.0201028 -0.0145753 -0.000353434)
(0.021657 -0.00197417 -0.000368221)
(0.0195811 -0.00472068 -0.00145436)
(0.00971292 0.00443981 -0.00148231)
(0.000248106 -0.000366297 -0.000173447)
(-0.00345157 -0.00134703 8.04374e-05)
(0.00107358 -0.000623858 -2.5515e-05)
(-0.00115738 0.000906757 0.000191605)
(0.00117555 -0.00643625 -0.000466486)
(0.0011183 -0.000229018 6.77749e-05)
(0.000944944 -0.000224616 1.9433e-05)
(0.00136903 -4.35897e-05 -1.12664e-05)
(0.00129281 -0.000167556 -2.35726e-05)
(0.00125313 -0.000138222 1.99093e-05)
(0.000549726 -7.87714e-05 2.24365e-06)
(0.000520918 -5.2354e-05 -3.60376e-06)
(0.000525738 -4.02214e-05 -8.07974e-08)
(0.000831778 -8.25252e-05 -2.51773e-08)
(0.000848132 -1.48784e-05 -8.70473e-07)
(0.000926638 -4.00154e-06 -1.34088e-06)
(0.00122102 -1.86687e-05 -1.09568e-06)
(0.000632589 -4.08915e-05 -4.43409e-06)
(0.000647255 -2.04187e-05 -5.05592e-06)
(0.00104754 -8.99674e-05 -6.13911e-06)
(0.00107381 -4.3259e-05 -6.49951e-06)
(0.000831785 -1.24489e-05 -1.01478e-07)
(0.00082983 -5.38173e-06 -4.84143e-07)
(0.00110331 -2.23346e-05 6.16818e-08)
(0.000820521 -7.03595e-06 8.6765e-08)
(0.000829129 -2.24827e-06 1.59412e-07)
(0.00110307 -1.17284e-05 2.07398e-07)
(0.000812754 -4.51195e-06 3.60849e-08)
(0.00081645 -1.27173e-06 -7.66119e-10)
(0.00108778 -7.65377e-06 1.81173e-07)
(0.000807378 -2.78844e-06 5.14095e-08)
(0.000810328 -8.42614e-07 7.14518e-08)
(0.00108001 -4.79511e-06 1.80512e-07)
(0.00080341 -1.69768e-06 4.99305e-08)
(0.000805571 -4.90903e-07 4.90391e-08)
(0.00107397 -2.91661e-06 1.79016e-07)
(0.000800398 -1.03874e-06 5.0155e-08)
(0.000801989 -3.81812e-07 5.28851e-08)
(0.0010695 -1.76944e-06 1.78562e-07)
(0.000797905 -6.59664e-07 4.95898e-08)
(0.000799179 -2.34294e-07 5.05809e-08)
(0.00106591 -1.08313e-06 1.77847e-07)
(0.000795796 -4.91463e-07 1.0036e-08)
(0.000796832 -2.26191e-07 4.86466e-08)
(0.00106295 -7.24764e-07 1.76111e-07)
(0.000793639 -5.13058e-07 2.62491e-09)
(0.000794662 -4.70188e-08 9.95678e-09)
(0.00106006 -6.01853e-07 4.16525e-08)
(0.000792156 -6.00892e-07 3.30459e-08)
(0.000792697 1.36198e-08 8.24321e-08)
(0.0010577 -7.43555e-07 1.82998e-07)
(0.000790455 -4.64212e-07 -2.75116e-08)
(0.000791276 -2.59026e-07 9.92741e-09)
(0.00105565 -8.27032e-07 1.78496e-07)
(0.000788865 -2.82727e-07 -1.93115e-08)
(0.00078981 -2.11437e-07 -1.12384e-08)
(0.00105346 -4.19585e-07 1.59761e-07)
(0.000787163 -2.95656e-07 4.0646e-08)
(0.00078806 -2.19043e-08 5.13583e-08)
(0.0010513 -3.73423e-07 1.72444e-07)
(0.000785479 -3.19099e-07 5.00679e-08)
(0.000786416 -1.94693e-07 3.98378e-08)
(0.00104903 -4.75939e-07 1.77114e-07)
(0.000783919 -3.51279e-07 3.6082e-08)
(0.000784726 5.68503e-08 8.32775e-08)
(0.00104677 -4.29463e-07 1.46357e-07)
(0.000782894 -3.12602e-07 4.81852e-08)
(0.000783296 4.31324e-08 4.79191e-08)
(0.00104516 -5.2151e-07 6.27537e-08)
(0.000780714 -9.52349e-08 7.63591e-08)
(0.000781851 -5.58271e-07 5.36708e-08)
(0.00104306 -3.08117e-07 2.77824e-07)
(0.000779343 1.66724e-07 7.06196e-08)
(0.00078023 -1.91081e-07 6.53934e-08)
(0.00104054 6.48914e-08 1.74301e-07)
(0.00077807 6.357e-07 7.63107e-08)
(0.00077882 -4.76239e-07 5.697e-08)
(0.0010388 4.20589e-07 1.77012e-07)
(0.000776913 8.68062e-07 4.85397e-08)
(0.000777408 -1.80983e-06 3.56577e-08)
(0.00103729 1.34464e-06 2.10152e-07)
(0.000775096 7.79431e-07 2.20855e-08)
(0.000775857 1.14013e-08 1.44487e-08)
(0.00103532 1.03369e-06 1.14772e-07)
(0.000773276 7.98397e-07 1.12774e-08)
(0.000774271 -1.61126e-07 3.47339e-08)
(0.00103282 1.08372e-06 1.51887e-07)
(0.000771519 5.22563e-07 2.47186e-08)
(0.000772472 -4.56019e-07 2.25096e-08)
(0.0010304 1.07881e-06 8.32058e-08)
(0.000770361 1.12825e-07 4.76639e-08)
(0.000770902 3.6559e-09 5.97651e-08)
(0.00102853 3.37118e-07 1.76391e-07)
(0.000768877 4.68553e-08 5.06903e-08)
(0.00076962 4.97378e-08 4.94284e-08)
(0.00102681 -3.3031e-08 1.70472e-07)
(0.000767605 1.011e-07 6.69911e-08)
(0.000768203 3.74176e-08 5.5467e-08)
(0.00102491 1.66438e-07 1.49241e-07)
(0.000766027 6.76594e-08 6.0236e-08)
(0.000766778 6.46882e-08 6.42088e-08)
(0.00102309 1.00354e-07 1.71498e-07)
(0.000764642 1.32218e-08 4.42603e-08)
(0.000765253 -1.4225e-08 1.86105e-08)
(0.00102106 6.07414e-08 1.66202e-07)
(0.000763415 -1.66754e-07 2.70311e-08)
(0.00076377 -1.40433e-07 5.21559e-08)
(0.00101937 -5.18307e-08 1.6836e-07)
(0.000761659 -2.72643e-07 1.50173e-10)
(0.000762411 2.11614e-06 5.53724e-08)
(0.00101733 -4.13672e-07 9.01296e-08)
(0.000760156 -9.06591e-08 2.81344e-08)
(0.000761053 1.06651e-06 3.892e-08)
(0.00101511 -3.34637e-07 9.11341e-08)
(0.000758794 2.39927e-07 4.51167e-08)
(0.000759627 3.46678e-08 5.37619e-08)
(0.0010132 7.59251e-08 1.71516e-07)
(0.000758211 5.28103e-07 4.64978e-08)
(0.000758427 -3.16902e-07 9.12611e-08)
(0.00101208 5.53188e-07 1.26141e-07)
(0.000755619 4.71525e-07 3.76299e-08)
(0.000756922 -1.19552e-06 6.06699e-08)
(0.00100991 8.42282e-07 2.00742e-07)
(0.000754572 1.42667e-07 3.25564e-08)
(0.00075525 4.08894e-07 -5.131e-08)
(0.00100741 4.51057e-07 1.25249e-07)
(0.000753621 -2.23605e-08 6.03385e-08)
(0.00075404 2.85132e-07 4.97411e-08)
(0.0010061 5.93404e-09 1.56427e-07)
(0.000752304 -7.61094e-08 7.99785e-08)
(0.000752852 -3.35138e-08 5.62374e-08)
(0.00100457 -9.66397e-09 1.54399e-07)
(0.000750242 -5.6127e-08 6.65205e-08)
(0.000751334 -5.58605e-07 2.23957e-08)
(0.00100238 -1.61064e-07 2.84164e-07)
(0.000749156 1.0602e-07 3.98276e-08)
(0.000749854 -3.8686e-07 4.11149e-08)
(0.00100019 4.08744e-08 1.62887e-07)
(0.000747518 2.02406e-07 4.09052e-08)
(0.000748394 7.84346e-08 5.19278e-08)
(0.000998317 2.60436e-07 1.64266e-07)
(0.000746976 3.47783e-07 6.83462e-08)
(0.000996824 2.89486e-07 1.16736e-07)
(-0.00265322 -0.0180551 0.000802003)
(-0.0114838 -0.0198755 0.000716943)
(-0.00583697 0.00956002 0.00187572)
(0.00887377 0.00436355 -4.65814e-05)
(-0.0114715 -0.00721555 1.43478e-05)
(-0.015962 0.00699736 -0.00145355)
(-0.00664155 -0.0047784 -0.000404617)
(-0.0053498 0.00105376 -0.000268631)
(0.0011667 0.00661697 -0.000297202)
(-0.00130164 0.00110135 -0.000276268)
(0.00239745 -0.00554897 0.000222958)
(0.00214479 -0.00123119 -6.26548e-05)
(0.0020871 -0.00267105 -0.000206809)
(-0.00228299 -0.00514593 -0.000167017)
(0.0125241 -0.00531583 -0.000109093)
(-0.00389703 -0.00106516 0.000127559)
(0.000435547 -0.00131427 -0.000135211)
(-0.000330697 0.00205111 -8.66703e-05)
(0.00890194 -0.0013815 0.00012533)
(0.00121695 0.0033239 -0.000282182)
(0.00488523 -0.000478944 -0.000650474)
(0.00786098 0.000942844 -0.00062932)
(0.00379868 0.00280081 -1.54795e-05)
(0.00349967 0.00590952 0.000400396)
(0.00889854 0.00850836 0.000665477)
(0.012648 0.0113223 0.00169742)
(0.0282724 0.00134881 0.000260485)
(-0.000227859 -0.00103501 0.000240718)
(0.000798166 -0.00403389 0.000157294)
(-0.00269509 -0.00212499 9.29671e-05)
(-0.00107242 -0.00694805 4.74273e-05)
(-0.00155316 -0.00282929 0.000692202)
(0.00119566 0.000838684 4.23951e-05)
(0.00249774 0.00104955 6.00258e-05)
(0.00235066 0.000465109 0.000117113)
(0.00239108 0.00118413 -2.8034e-05)
(0.00199653 0.000437658 8.85906e-05)
(0.000409655 1.59145e-05 -2.87465e-06)
(0.000550103 9.72594e-06 -3.72648e-06)
(0.00052591 2.52828e-05 -5.39848e-07)
(0.000905547 1.59073e-05 -1.16634e-06)
(0.000383668 3.49475e-05 -2.28986e-06)
(0.000758999 3.47266e-05 -3.39894e-06)
(0.000705708 8.49915e-05 4.84182e-07)
(0.00055114 -1.03787e-05 -3.23403e-07)
(0.000855401 9.82249e-06 -9.54828e-07)
(0.000923924 3.11686e-05 -1.32502e-06)
(0.00124625 1.47338e-05 -1.14422e-06)
(0.000660638 1.00113e-05 -4.2795e-06)
(0.000648777 2.23875e-05 -5.07207e-06)
(0.00109447 1.47732e-05 -5.33399e-06)
(0.00107342 4.23717e-05 -6.44713e-06)
(0.000835465 5.95687e-06 -2.23464e-07)
(0.000825166 1.95699e-05 -5.93718e-07)
(0.00110812 7.97944e-06 3.40282e-08)
(0.000822108 3.88474e-06 7.19329e-08)
(0.000826534 1.20268e-05 1.65087e-07)
(0.00110716 5.50347e-06 2.03769e-07)
(0.000813693 2.46987e-06 3.45772e-08)
(0.000814678 7.53499e-06 4.91663e-08)
(0.00108939 3.28229e-06 1.5487e-07)
(0.00080812 1.6035e-06 6.90887e-08)
(0.000809243 3.23859e-06 3.63722e-08)
(0.00108126 2.28633e-06 2.36329e-07)
(0.00080385 9.82045e-07 5.19925e-08)
(0.000804793 2.82669e-06 4.71359e-08)
(0.00107493 1.34702e-06 1.78592e-07)
(0.000800628 6.26498e-07 5.33117e-08)
(0.000801544 1.68722e-06 5.59053e-08)
(0.00107001 8.45477e-07 1.75462e-07)
(0.000798038 4.10685e-07 4.96383e-08)
(0.000798909 1.04733e-06 5.33056e-08)
(0.00106617 5.3582e-07 1.76055e-07)
(0.000795663 2.75512e-07 4.85798e-08)
(0.000796662 7.71243e-07 4.88366e-08)