/*--------------------------------*- C++ -*----------------------------------*\
| =========                 |                                                 |
| \\      /  F ield         | OpenFOAM: The Open Source CFD Toolbox           |
|  \\    /   O peration     | Version:  5.0                                   |
|   \\  /    A nd           | Web:      www.OpenFOAM.org                      |
|    \\/     M anipulation  |                                                 |
\*---------------------------------------------------------------------------*/
FoamFile
{
    version     2.0;
    format      ascii;
    class       volScalarField;
    location    "1.5";
    object      alpha.water;
}
// * * * * * * * * * * * * * * * * * * * * * * * * * * * * * * * * * * * * * //

dimensions      [0 0 0 0 0 0 0];

internalField   nonuniform List<scalar> 
7891
(
0.987566
1.02572
0.907882
0.894257
0.980608
1
-2.15023e-18
-3.32394e-19
7.77346e-17
5.86917e-18
2.00555e-20
2.16234e-24
1.58588e-28
5.56866e-32
2.26875e-35
9.39992e-39
3.81925e-42
1.58729e-45
6.53658e-49
2.60151e-52
1.15369e-55
4.69426e-59
2.05381e-62
7.17294e-66
2.87312e-69
1.34026e-72
1.29328e-75
2.27235e-79
7.65123e-82
1.40044e-85
1.00894e-88
1.18375e-92
3.97326e-95
1.24431e-97
2.18876e-101
8.70062e-105
9.95667e-108
3.01544e-110
3.05949e-114
2.02642e-118
9.68005e-121
1.38439e-123
1.56706e-126
4.71279e-129
4.78349e-133
1.06766e-135
1.48164e-139
1.10661e-143
5.7843e-145
3.18782e-146
1.04716
1.03712
1.10546
1.09476
1.02239
0.940188
-1.07451e-17
-9.06354e-17
2.32257e-18
1.5721e-19
3.56647e-21
6.69736e-24
8.08011e-28
8.21962e-32
2.92028e-35
1.20188e-38
5.07491e-42
2.10719e-45
8.82137e-49
3.48825e-52
1.44159e-55
5.91767e-59
2.90352e-62
1.22001e-65
6.0128e-69
3.78553e-72
1.04972e-75
3.61725e-79
4.3423e-82
1.59023e-85
6.76537e-89
1.141e-91
1.57626e-95
2.20101e-98
7.20618e-102
1.5569e-104
5.63097e-108
3.42811e-112
1.3219e-113
8.22506e-117
1.3059e-120
1.63253e-123
1.14734e-127
2.23812e-131
4.26696e-134
5.09137e-137
5.88704e-140
1.12107e-143
2.73262e-145
2.34038e-146
1.10219
1.05889
1.06111
1.02501
1.02241
1.00167
0.0257461
-1.36356e-16
-4.46221e-20
-1.15514e-37
2.81414e-20
5.32045e-22
1.01971e-25
2.62562e-30
8.16081e-34
3.29069e-37
1.33413e-40
5.41203e-44
2.19672e-47
8.78969e-51
3.56526e-54
1.43063e-57
5.80638e-61
2.29641e-64
9.28949e-68
4.51515e-71
2.01916e-74
6.00373e-78
3.14058e-81
3.68177e-84
5.84152e-88
1.75642e-91
4.62488e-93
6.90075e-96
7.171e-100
1.78782e-103
7.8098e-107
1.30317e-110
1.32871e-112
1.49854e-115
2.97783e-119
6.3535e-123
1.77959e-125
2.24935e-129
2.63559e-132
1.71244e-135
6.55993e-138
2.75076e-141
8.17444e-145
1.14418e-145
0.97909
1.03628
0.991014
1.01047
1.00663
0.995357
0.806962
-3.93552e-17
1.91922e-15
9.40963e-18
4.55182e-20
1.58185e-21
3.29334e-24
2.32659e-28
2.573e-32
9.77579e-36
4.00531e-39
1.65821e-42
6.75111e-46
2.74099e-49
1.12097e-52
4.5446e-56
2.05917e-59
8.43351e-63
4.17959e-66
1.39177e-69
5.1747e-73
5.37881e-76
2.49099e-79
4.55587e-83
9.56527e-86
1.31209e-88
2.75842e-92
5.64597e-96
1.4684e-98
2.61353e-102
1.04473e-105
1.10299e-108
6.9956e-111
2.98994e-114
4.52975e-118
1.54828e-120
1.49715e-124
3.07336e-127
3.35446e-130
1.15141e-133
2.87195e-137
1.5875e-140
1.04756e-143
2.69682e-145
1.08933
0.991039
0.985181
1.00103
1.057
1.01074
1.00008
-1.26254e-16
-1.8102e-18
2.53584e-16
3.17744e-18
2.21135e-21
4.26983e-24
8.79569e-28
9.67555e-32
3.35141e-35
1.38056e-38
5.73329e-42
2.37567e-45
9.84104e-49
4.05288e-52
1.69465e-55
6.87388e-59
2.85406e-62
1.15801e-65
5.76125e-69
2.06216e-72
1.11552e-75
5.52628e-79
2.88268e-82
2.37603e-85
3.57452e-89
1.23492e-91
1.82879e-95
3.10411e-99
2.35749e-102
1.07546e-104
4.99008e-108
4.29753e-112
9.64619e-115
1.44802e-118
2.89438e-122
1.04108e-125
4.41003e-128
2.18196e-130
6.64375e-134
6.66279e-136
4.13078e-139
4.37933e-142
3.22191e-145
1.0156
1.03316
1.01622
0.998027
1.02149
0.991094
1.00042
-4.52212e-19
-1.74042e-18
2.01124e-16
2.78249e-18
1.98803e-21
3.35509e-24
6.52884e-28
7.80275e-32
2.75371e-35
1.139e-38
4.76451e-42
1.97157e-45
8.3061e-49
3.38996e-52
1.39481e-55
5.7321e-59
2.46662e-62
9.96908e-66
8.0921e-69
1.88764e-72
7.85425e-76
7.86879e-79
1.09846e-81
1.42716e-84
1.60535e-88
3.64874e-92
2.10217e-95
3.65821e-98
1.00325e-101
4.27586e-105
9.51609e-108
9.01562e-112
2.13878e-115
3.90557e-117
1.41878e-119
6.99026e-123
8.63347e-127
2.93397e-130
2.68408e-133
5.24139e-137
1.31788e-140
6.64095e-144
2.73108e-145
1.04637
1.00775
0.989565
1.03285
1.02618
1.02309
1
-1.12975e-16
1.86678e-15
8.35351e-18
4.3041e-20
1.64346e-21
3.72376e-24
2.7573e-28
2.86014e-32
1.07867e-35
4.41725e-39
1.81106e-42
7.42176e-46
3.03306e-49
1.32358e-52
5.0655e-56
2.13903e-59
8.34818e-63
4.47749e-66
1.4025e-69
5.50765e-73
2.83276e-76
6.1623e-79
9.85468e-83
1.98434e-86
2.42216e-89
4.27646e-93
4.04958e-96
1.19e-99
2.07497e-102
7.93666e-106
2.64554e-108
2.27566e-111
2.71719e-114
2.14408e-118
1.78263e-121
7.22736e-125
7.12005e-129
8.70736e-131
1.54772e-134
1.70101e-136
4.901e-140
2.34363e-144
2.90323e-145
1.05543
1.01707
0.971303
1.04458
1.04382
1.00054
0.625902
-2.08938e-18
5.16986e-29
-2.64033e-37
2.9244e-20
5.71327e-22
1.1503e-25
2.98864e-30
9.17512e-34
3.69641e-37
1.49587e-40
6.04552e-44
2.44795e-47
9.90812e-51
3.96315e-54
1.61288e-57
6.54516e-61
2.55238e-64
1.02064e-67
4.97022e-71
2.82207e-74
8.16975e-78
2.81733e-81
4.56248e-84
7.82521e-88
1.46354e-90
8.33693e-94
1.57107e-97
1.15841e-100
2.26066e-103
3.47198e-107
6.89784e-110
4.82564e-113
3.82926e-117
8.69961e-121
9.90044e-123
1.1075e-125
5.82828e-129
3.79108e-133
8.73064e-137
3.90648e-140
1.4559e-143
2.76574e-145
4.49212e-146
0.999122
0.996517
0.998743
0.975057
0.908926
0.999883
0.00146863
-1.09222e-19
1.26699e-17
1.14837e-19
4.1349e-21
7.36365e-24
7.36252e-28
8.23636e-32
2.99975e-35
1.23342e-38
5.1267e-42
2.12084e-45
8.80001e-49
3.60165e-52
1.46142e-55
6.07254e-59
2.43558e-62
1.02306e-65
1.23209e-68
2.35466e-72
7.50968e-76
3.33222e-79
1.32913e-82
6.38526e-86
8.00095e-88
2.36241e-91
1.58412e-95
4.2708e-99
3.65313e-101
1.27257e-104
6.79387e-108
6.04532e-112
1.32768e-115
1.48428e-117
3.46339e-120
4.90095e-123
9.19577e-127
6.95967e-131
2.10486e-134
1.12239e-137
1.15286e-139
2.6823e-142
5.72596e-145
4.57964e-146
1.05446
0.987422
0.920251
0.992469
1.09075
1.02003
-1.95772e-18
-3.93998e-18
8.92195e-17
6.41804e-18
1.9393e-20
1.82851e-24
1.44405e-28
5.15697e-32
2.11091e-35
8.75369e-39
3.54689e-42
1.45287e-45
5.98387e-49
2.66298e-52
1.00098e-55
4.06756e-59
1.63056e-62
6.54358e-66
3.93117e-69
1.2773e-72
6.11514e-76
2.76065e-79
7.47904e-82
1.44192e-85
1.25509e-88
2.27996e-91
1.8788e-94
7.65661e-98
5.09127e-102
2.14911e-104
1.76081e-107
2.75122e-111
1.91374e-113
2.88249e-117
2.97831e-121
6.24181e-125
1.04111e-126
3.15597e-130
5.89384e-133
5.17372e-136
2.33463e-139
1.21693e-142
3.02141e-145
3.34468e-146
1.03126
1.05238
0.920408
1.06759
1.01448
1
2.36802e-10
1.24398e-16
3.30468e-17
1.19072e-17
1.92015e-19
1.32597e-22
1.07462e-26
4.49579e-30
3.32284e-33
2.33082e-36
1.60403e-39
1.10309e-42
7.57162e-46
5.18453e-49
3.54595e-52
2.42045e-55
1.64808e-58
1.1205e-61
7.60095e-65
5.14487e-68
3.47828e-71
2.34679e-74
1.5793e-77
1.0609e-80
7.10853e-84
4.75207e-87
3.17312e-90
2.11503e-93
1.40754e-96
9.35084e-100
6.19453e-103
4.09258e-106
2.7002e-109
1.77967e-112
1.17047e-115
7.68493e-119
5.03503e-122
3.29156e-125
2.14866e-128
1.39889e-131
9.09056e-135
5.90092e-138
3.8216e-141
1.74121e-144
1.11598
0.807326
1.05011
0.836576
1.0029
0.97462
3.76991e-10
6.88897e-16
3.09355e-16
1.83277e-18
2.76728e-20
6.4438e-23
1.23621e-26
2.55088e-30
1.76315e-33
1.27568e-36
8.91661e-40
6.2058e-43
4.3147e-46
2.99255e-49
2.07267e-52
1.4323e-55
9.87583e-59
6.79966e-62
4.67256e-65
3.20235e-68
2.19083e-71
1.49546e-74
1.01825e-77
6.9205e-81
4.69395e-84
3.17802e-87
2.14947e-90
1.45085e-93
9.7685e-97
6.56435e-100
4.40203e-103
2.94553e-106
1.968e-109
1.31119e-112
8.71456e-116
5.78412e-119
3.83129e-122
2.5334e-125
1.67345e-128
1.10289e-131
7.24968e-135
4.75804e-138
3.11582e-141
1.48219e-144
1.06373
0.778523
0.999997
1.06624
1.02344
1.00822
0.0335932
8.79901e-13
1.56218e-15
2.19337e-18
7.17116e-20
2.72794e-22
1.13507e-25
3.7895e-29
2.26599e-32
1.59378e-35
1.13309e-38
7.94788e-42
5.55346e-45
3.87944e-48
2.70407e-51
1.88336e-54
1.30805e-57
9.07871e-61
6.28136e-64
4.34085e-67
2.99493e-70
2.06158e-73
1.41656e-76
9.74623e-80
6.67833e-83
4.5719e-86
3.12661e-89
2.13295e-92
1.45025e-95
9.85681e-99
6.68775e-102
4.52822e-105
3.06149e-108
2.06524e-111
1.38978e-114
9.33949e-118
6.27868e-121
4.20581e-124
2.81361e-127
1.87982e-130
1.25293e-133
8.33579e-137
5.5343e-140
2.20521e-143
0.893914
0.973662
0.953845
1.03302
1.01946
0.967341
0.808918
1.83691e-12
1.01633e-14
1.33169e-16
3.65271e-18
1.2369e-20
2.51859e-24
6.63314e-28
4.70223e-31
3.43805e-34
2.445e-37
1.72851e-40
1.21932e-43
8.57907e-47
6.0216e-50
4.21364e-53
2.93849e-56
2.04536e-59
1.41896e-62
9.81777e-66
6.78002e-69
4.66761e-72
3.20758e-75
2.19836e-78
1.50226e-81
1.02372e-84
6.95878e-88
4.71999e-91
3.1942e-94
2.15717e-97
1.45333e-100
9.76581e-104
6.54706e-107
4.37883e-110
2.92105e-113
1.94814e-116
1.29497e-119
8.58313e-123
5.67382e-126
3.74589e-129
2.46695e-132
1.62154e-135
1.06316e-138
4.13566e-142
1
0.745478
0.96197
1.00273
0.998379
1.02154
1.00008
5.85459e-11
1.23529e-15
1.80413e-15
5.17264e-17
3.23424e-20
3.98774e-24
1.83393e-27
1.23651e-30
9.20174e-34
6.74698e-37
4.87535e-40
3.50767e-43
2.51564e-46
1.80012e-49
1.2838e-52
9.12153e-56
6.46415e-59
4.56606e-62
3.21422e-65
2.2577e-68
1.58097e-71
1.1032e-74
7.67799e-78
5.32835e-81
3.68618e-84
2.54446e-87
1.75112e-90
1.20172e-93
8.23075e-97
5.62117e-100
3.82695e-103
2.59993e-106
1.76272e-109
1.19217e-112
8.04468e-116
5.41514e-119
3.63478e-122
2.43493e-125
1.62727e-128
1.08476e-131
7.21758e-135
4.78927e-138
1.88133e-141
0.990889
0.971769
1.10504
0.953961
1.00134
0.983671
1.00075
1.34888e-10
2.595e-15
3.13065e-15
9.40852e-17
5.84468e-20
4.19798e-24
2.10962e-27
1.48103e-30
1.08314e-33
7.84065e-37
5.61584e-40
4.00835e-43
2.85301e-46
2.02558e-49
1.43472e-52
1.01324e-55
7.13794e-59
5.01379e-62
3.51101e-65
2.45498e-68
1.71197e-71
1.19019e-74
8.25544e-78
5.70626e-81
3.93267e-84
2.70664e-87
1.85859e-90
1.27208e-93
8.6889e-97
5.91987e-100
4.02302e-103
2.729e-106
1.84677e-109
1.24672e-112
8.3995e-116
5.64343e-119
3.77967e-122
2.52659e-125
1.68513e-128
1.12093e-131
7.44841e-135
4.94038e-138
1.94075e-141
0.97849
1
0.823986
1.00857
1.03194
1.02228
1.0006
1.03724e-11
9.63884e-15
8.66905e-17
1.79987e-18
7.44023e-21
2.43117e-24
6.32467e-28
4.31614e-31
3.18669e-34
2.28254e-37
1.62163e-40
1.14895e-43
8.11666e-47
5.71848e-50
4.01486e-53
2.80836e-56
1.96063e-59
1.36512e-62
9.46542e-66
6.55195e-69
4.52186e-72
3.1121e-75
2.13654e-78
1.46136e-81
9.98617e-85
6.80886e-88
4.6274e-91
3.13695e-94
2.12173e-97
1.4316e-100
9.63438e-104
6.47072e-107
4.33197e-110
2.8958e-113
1.93217e-116
1.28516e-119
8.52374e-123
5.64275e-126
3.72674e-129
2.45612e-132
1.61562e-135
1.06146e-138
4.14723e-142
1.04168
0.938195
0.967953
1.01309
0.980129
0.996192
0.626275
1.72854e-12
2.88404e-15
2.30658e-18
7.15413e-20
2.09878e-22
8.37214e-26
3.35412e-29
2.09897e-32
1.4748e-35
1.04356e-38
7.31102e-42
5.09567e-45
3.55025e-48
2.47137e-51
1.71724e-54
1.1908e-57
8.24611e-61
5.70202e-64
3.93262e-67
2.70791e-70
1.86108e-73
1.27741e-76
8.75861e-80
5.99305e-83
4.09502e-86
2.79372e-89
1.90131e-92
1.29126e-95
8.76159e-99
5.93296e-102
4.01105e-105
2.70775e-108
1.8238e-111
1.22569e-114
8.2377e-118
5.51464e-121
3.68703e-124
2.46168e-127
1.64084e-130
1.09067e-133
7.24227e-137
4.80579e-140
1.91747e-143
1.01571
1.0275
0.977983
1.0056
1.13601
0.996763
0.0044119
1.27734e-15
1.00349e-17
1.58332e-18
2.24918e-20
3.58535e-23
6.94466e-27
2.00387e-30
1.42249e-33
1.03309e-36
7.27976e-40
5.10539e-43
3.57451e-46
2.49653e-49
1.74079e-52
1.21083e-55
8.40104e-59
5.81959e-62
4.02276e-65
2.77418e-68
1.91039e-71
1.31246e-74
8.99372e-78
6.15465e-81
4.20223e-84
2.86024e-87
1.9438e-90
1.3182e-93
8.91761e-97
6.02316e-100
4.05978e-103
2.73092e-106
1.83407e-109
1.22916e-112
8.21411e-116
5.48113e-119
3.65009e-122
2.42418e-125
1.60803e-128
1.06473e-131
7.03375e-135
4.63774e-138
3.05023e-141
1.46135e-144
1.03674
1.00864
0.933467
1
1
1.00857
3.16587e-10
1.07272e-16
7.52122e-18
7.16008e-18
1.766e-19
9.73977e-23
6.01831e-27
2.7617e-30
2.03286e-33
1.43535e-36
9.94584e-40
6.87755e-43
4.75029e-46
3.27405e-49
2.25316e-52
1.54726e-55
1.06032e-58
7.25899e-62
4.9594e-65
3.38066e-68
2.30211e-71
1.56474e-74
1.06131e-77
7.18874e-81
4.85919e-84
3.27593e-87
2.20461e-90
1.48124e-93
9.933e-97
6.65409e-100
4.44781e-103
2.96657e-106
1.97572e-109
1.31346e-112
8.7163e-116
5.77628e-119
3.82025e-122
2.52061e-125
1.66057e-128
1.09204e-131
7.1676e-135
4.69941e-138
3.07331e-141
1.4638e-144
0.989679
1.00948
0.991968
0.979307
1.03104
1.00094
1.34088e-10
-2.63602e-19
3.71512e-17
3.14168e-18
1.22942e-20
1.60867e-24
1.11311e-28
3.80779e-32
1.55323e-35
6.57637e-39
2.61374e-42
1.08161e-45
4.56798e-49
2.31022e-52
8.34305e-56
3.39064e-59
1.3931e-62
5.01666e-66
2.09017e-69
8.18846e-72
8.09006e-76
2.92653e-79
4.89291e-82
9.19516e-86
1.6821e-88
7.97642e-93
9.78595e-96
4.58792e-98
2.23915e-101
4.00234e-105
2.27818e-107
6.60187e-111
2.99743e-115
9.18007e-117
3.52021e-120
1.22677e-124
3.16138e-127
4.43091e-131
1.35732e-133
8.934e-136
1.58512e-139
9.09689e-143
3.38438e-145
2.75444e-146
1.07909
1.01152
1.04781
1.11255
0.979216
1.00211
1.12618e-09
-9.29598e-17
1.91679e-17
1.2136e-19
3.45348e-21
7.56198e-24
8.59146e-28
8.49622e-32
3.02787e-35
1.24392e-38
5.15946e-42
2.42389e-45
1.03552e-48
3.83901e-52
1.57945e-55
6.44043e-59
3.1543e-62
1.11716e-65
6.07271e-69
1.8423e-72
1.24054e-75
3.67381e-79
1.08641e-81
2.38375e-85
2.27263e-88
2.08773e-91
1.97846e-94
5.52603e-98
2.6579e-101
1.23301e-104
1.88292e-108
9.31417e-112
3.72504e-113
3.06859e-116
2.25703e-120
2.66665e-124
9.24465e-128
2.79877e-129
1.46684e-132
1.19028e-136
1.01404e-139
1.08163e-143
2.99051e-145
3.2612e-146
1.0888
1.0564
1
1.05429
1.03576
1.01226
0.0321765
-1.71742e-16
-1.42435e-34
4.8669e-24
3.17282e-20
6.19144e-22
1.31694e-25
3.873e-30
1.17955e-33
4.77239e-37
1.95382e-40
8.012e-44
3.28252e-47
1.32919e-50
5.47886e-54
2.20325e-57
9.03428e-61
3.8889e-64
1.70999e-67
6.2649e-71
2.93106e-74
1.01351e-77
4.1042e-81
4.88121e-84
9.31321e-88
3.09777e-91
4.73529e-94
2.83704e-97
8.2959e-101
1.03608e-103
8.95551e-107
2.46361e-110
2.03986e-113
7.12934e-116
7.57469e-119
5.62346e-123
9.85207e-127
3.69851e-129
1.52824e-131
2.50243e-135
5.79472e-138
2.08149e-141
9.76884e-145
1.16085e-145
0.907444
1.00832
1.01253
0.978755
1.00241
0.995731
0.809229
6.48129e-13
1.98403e-15
1.05063e-17
4.46605e-20
1.54631e-21
3.27671e-24
2.36728e-28
2.587e-32
9.8104e-36
4.02023e-39
1.6499e-42
6.73705e-46
2.75396e-49
1.12247e-52
4.55281e-56
1.8738e-59
8.46886e-63
3.16804e-66
1.33476e-69
5.09628e-73
8.67498e-76
5.28944e-79
6.0283e-83
8.08845e-86
6.41349e-89
1.96277e-92
3.98937e-96
6.00676e-99
1.13944e-102
8.34985e-106
1.52198e-108
1.20196e-112
1.41534e-114
6.01509e-118
9.65819e-121
1.00879e-123
8.20344e-128
4.85704e-131
1.44403e-133
8.86471e-137
4.50076e-141
9.89766e-145
2.53113e-145
0.916218
0.942002
0.919573
0.998995
0.978046
1.03114
1.00009
2.37486e-11
-1.80598e-18
2.61889e-16
3.25033e-18
2.17602e-21
4.17481e-24
8.62559e-28
9.50813e-32
3.28824e-35
1.35568e-38
5.62792e-42
2.34125e-45
9.65861e-49
3.97584e-52
1.64152e-55
6.77558e-59
2.79038e-62
1.19366e-65
6.33583e-69
1.95928e-72
7.78978e-76
3.1692e-79
1.90888e-82
1.6232e-85
2.85899e-89
7.10016e-92
1.9681e-95
2.45313e-98
4.29119e-102
1.16148e-104
4.70799e-108
2.74036e-110
7.5054e-114
7.30459e-118
9.31999e-120
4.40749e-123
1.89529e-126
3.94683e-130
7.16817e-134
1.38568e-135
7.16351e-139
4.08703e-142
7.09924e-145
1.00826
1.01781
1.00343
0.904731
1.01687
0.984658
1.00075
6.17734e-11
-1.74671e-18
2.0592e-16
2.83913e-18
2.11316e-21
3.82494e-24
7.68889e-28
8.77327e-32
3.06265e-35
1.26507e-38
5.25857e-42
2.18118e-45
9.37491e-49
3.7615e-52
1.59775e-55
6.45772e-59
2.61896e-62
1.10661e-65
4.4954e-69
1.86199e-72
7.3048e-76
2.94976e-79
6.05517e-82
1.10411e-84
5.70122e-88
8.23429e-92
4.12837e-95
7.00145e-99
1.27944e-101
5.48487e-105
1.0527e-107
1.0039e-111
1.22675e-113
5.84909e-117
3.64422e-121
4.44213e-123
1.99299e-126
3.93923e-130
4.19597e-134
3.27902e-137
2.65207e-139
4.88559e-143
2.74704e-145
1.04613
1.02029
0.665746
0.999996
1.03322
1.01985
1.0005
4.26697e-12
1.8921e-15
8.42474e-18
4.37477e-20
1.66438e-21
3.71924e-24
2.70672e-28
2.83732e-32
1.0719e-35
4.38911e-39
1.80473e-42
7.38297e-46
3.00833e-49
1.30289e-52
5.06452e-56
2.07593e-59
8.62393e-63
3.54581e-66
1.92798e-69
5.86678e-73
2.88731e-76
5.52567e-79
7.88881e-83
1.88541e-86
7.23043e-90
2.89575e-93
3.40118e-96
1.14547e-98
2.33754e-102
4.41287e-106
2.86876e-108
7.83638e-112
5.83937e-116
1.57584e-118
1.71753e-122
3.01686e-124
1.51349e-127
4.99011e-131
3.37006e-135
2.95448e-138
2.18347e-141
2.35156e-144
2.96007e-145
1.02511
0.951485
0.958364
1.0012
1.00624
0.999704
0.626297
-2.30647e-18
5.16984e-29
2.52432e-32
2.92892e-20
5.72426e-22
1.15436e-25
2.97858e-30
9.13134e-34
3.67918e-37
1.48868e-40
6.01386e-44
2.44116e-47
9.82061e-51
3.93931e-54
1.60062e-57
6.60744e-61
2.5396e-64
1.38378e-67
5.24168e-71
2.7608e-74
1.66627e-77
3.09887e-81
6.6009e-84
1.81498e-87
3.30083e-91
5.6227e-94
3.15011e-97
7.06637e-101
3.96154e-104
8.65946e-107
1.98123e-110
3.59384e-113
3.06495e-115
8.81756e-119
8.57349e-122
1.1776e-125
1.45194e-129
5.38566e-133
1.93293e-136
1.00303e-139
4.39489e-143
2.81939e-145
5.85549e-146
1.03952
1.04199
0.996887
0.97981
1.05479
1
0.00403983
-9.56483e-20
6.91137e-18
1.04358e-19
3.77829e-21
7.14602e-24
7.55095e-28
8.07055e-32
2.91498e-35
1.19779e-38
4.9757e-42
2.04246e-45
8.43598e-49
3.48271e-52
1.40924e-55
5.88638e-59
2.35291e-62
9.80125e-66
3.97526e-69
1.57342e-72
6.50551e-76
2.79956e-79
1.04591e-82
4.22187e-86
4.73722e-88
1.82452e-91
1.6451e-94
9.43923e-98
4.34589e-101
2.09186e-104
5.02497e-108
5.24231e-111
4.07592e-115
2.70899e-117
4.75727e-121
4.54237e-125
3.92397e-127
8.08265e-130
9.46714e-133
5.55387e-137
4.31652e-140
5.46816e-143
5.72024e-145
3.8953e-146
1.04726
0.988781
1.03252
1.00266
0.984561
1.01283
3.36362e-10
-6.50742e-19
6.32903e-17
4.72049e-18
1.42728e-20
1.36621e-24
1.09137e-28
3.88597e-32
1.58954e-35
6.57359e-39
2.6796e-42
1.12378e-45
4.52306e-49
1.83067e-52
7.66322e-56
3.18062e-59
1.24466e-62
5.06267e-66
3.65011e-69
9.62546e-73
6.4625e-76
1.55807e-79
5.86445e-82
2.42635e-85
1.92426e-89
2.97637e-91
8.57398e-95
6.66292e-99
4.54143e-102
2.10327e-104
9.22866e-108
6.92732e-112
1.95037e-113
8.07805e-117
3.21761e-120
6.58487e-123
1.71211e-126
4.65891e-130
5.4563e-134
5.51015e-136
4.18729e-139
1.982e-142
3.12689e-145
3.92506e-146
-2.41895e-16
1
2.5583e-05
1
1.24805e-07
0.99286
2.28219e-07
0.000313565
1.01155
0.396264
0.945308
0.000404583
1
0.408699
0.647839
1.01535
1
1.01001
0.648568
1.00982
1.00002
1
0.998377
1.00021
0.974275
1
1.00111
1
1.00097
1.00625
1.00069
1.01938
1.00061
1.00647
1.00116
1.00166
1.00397
1.00031
0.992445
1.00193
1.00229
1.00078
1.00053
1.00748
1.0002
1.02333
1.00153
1.00439
1.00053
1.00001
0.989042
0.667967
0.995577
1.00005
0.976039
0.674259
0.502261
1.00201
0.00721345
0.997135
0.505007
0.979372
0.0125313
-1.55953e-18
0.999992
-7.93402e-19
1.02152
1.19455e-07
1
1.83595e-07
1.8333e-07
0.999659
5.40167e-05
1.00007
2.0244e-07
0.998405
2.90781e-07
0.00039649
1
0.408402
0.90963
4.10391e-08
1
0.399064
0.649452
1.01064
1.00035
1.01227
0.651713
0.999442
1.00002
1.00022
0.999237
1.00009
0.986783
1
0.993221
1.00004
1.00111
1.00701
1.00177
1.0309
1.00067
1.01187
1.00124
1.00263
1.00001
1.00125
0.985903
1.00188
1.0016
1.00069
1.00221
1.00315
1.00087
1.02053
1.00201
1.00022
1.00063
1.00035
0.983189
0.675343
0.998525
1.00026
0.981656
0.675182
0.504876
0.990272
0.0126961
1.00152
0.504834
1.00474
0.0123032
1.43762e-07
1.00002
2.56407e-07
1.0139
2.18886e-07
1.00002
2.52619e-07
1.32157e-07
0.999998
1.57278e-07
1.00034
-5.87381e-17
0.999876
-3.15802e-18
0.0011975
0.995821
0.398571
1.00074
0.000225709
1.00239
0.396493
0.652045
1.00026
1.00034
1.01345
0.65131
1
1
1.00019
1.00106
1.0001
0.999782
1
1.00532
1.00011
1.00108
1.01405
1.00173
1.03443
1.00084
1.01093
1.00088
1.0024
1.00258
1.00106
0.98463
1.00161
1.00401
1.00011
1.00214
0.998857
1.00087
1.01964
1.00122
0.997374
1.00013
1.00033
0.982448
0.676939
1.0039
1
0.996005
0.676507
0.504496
1.01138
0.0123911
0.989835
0.5019
1.00515
0.00804832
1.95856e-07
1
1.67574e-07
1.01354
-1.0842e-22
1
-1.25527e-18
0.962483
0.988447
0.978056
1.00492
0.985679
0.9983
0.984341
0.825326
0.822311
0.999965
0.999259
0.999976
0.826853
0.828496
-6.29922e-17
-1.7476e-19
-5.44253e-17
1.26544e-10
4.06242e-14
2.16407e-10
4.07538e-14
0.904674
0.995266
0.986931
1.01596
0.959871
1.01005
1.00161
0.964464
0.963592
0.88583
0.952916
0.960093
0.961385
0.961427
-1.60707e-17
4.74879e-05
-4.29165e-19
4.36551e-09
6.11812e-13
0.000231317
6.1174e-13
0.946984
0.934887
1.03258
1.02719
0.933841
0.992073
1.02216
0.993077
1.00764
0.935429
1.00318
1.00766
0.966982
0.996154
-2.01982e-15
0.617639
-8.70118e-15
0.0329356
5.48443e-10
0.619182
9.64438e-10
1
1.0127
1.00493
1.0275
0.994872
1.0147
1.00293
0.930276
0.986305
0.904482
0.994068
0.989802
0.90556
0.945972
-3.35149e-16
1.00001
-3.66177e-17
0.809114
4.47317e-10
1.00004
2.48024e-09
1.0252
1.0234
0.998086
1.02964
1.02745
1.03745
0.998611
1.00874
1.00976
1.01283
1.01198
1.00983
1.01211
1.00907
-2.45154e-17
1.00012
-1.67273e-20
1.00024
2.11963e-08
1.00029
5.01123e-08
0.969788
0.967551
0.97125
1.01911
0.974256
0.967968
0.987786
1.00059
1.0013
0.993089
0.989472
1.00145
0.992607
1.00141
1.61163e-21
1.00003
-4.33681e-22
1.00103
5.34583e-08
1.00008
2.59416e-08
1.03294
1.01975
1.02298
1.02989
1.02296
1.0187
1.02098
1.01225
1.01232
1.02346
1.02307
1.0128
1.0247
1.0113
-9.61919e-17
0.776166
-6.73533e-19
1.0005
3.21358e-09
0.776815
5.70127e-10
1.01139
1.06283
0.970258
1.0296
1.00068
1.09252
0.96807
0.996608
0.998927
1.00054
1.00022
0.999561
0.999782
0.995585
-7.64232e-15
0.0398063
-9.60501e-17
0.627302
1.09192e-09
0.0467769
1.51458e-09
1.00282
0.982775
1
1.01275
0.897034
1.01139
0.6177
1.00133
1.00008
1.00859
0.993539
1.00019
1.01412
1.00088
-5.02183e-20
-2.1684e-22
5.108e-39
0.0040409
4.08822e-13
8.89106e-10
4.4312e-13
1.04878
1.01494
0.996735
1.03421
0.997433
0.99987
1
0.89121
1
0.958676
1.03475
1
0.927837
0.89165
-6.83274e-17
-8.83519e-19
-8.21497e-17
1.02297e-10
3.69604e-14
1.98278e-10
3.69684e-14
0.977144
0.99329
1.00891
1.03054
0.999433
0.993912
0.978597
0.830719
0.822954
1.00034
1
0.823509
1
0.82452
1.72164e-13
2.4589e-10
1.72169e-13
2.61536e-10
1.72164e-13
3.54171e-10
1.72165e-13
1.04067
1.02992
1.0077
1.00303
1.04372
1.08045
1.08434
0.910622
0.971741
0.864514
1
0.921706
0.96172
0.854446
1.33724e-12
0.000228216
7.60334e-13
4.34684e-11
1.43152e-12
0.000185743
7.60333e-13
0.977443
0.983892
1.02868
1.02562
0.985387
0.976147
1.26776
1.00256
1.00687
0.982959
1.00984
0.996678
1.00721
0.994691
1.83527e-09
0.618741
3.00779e-09
0.0327667
2.91612e-09
0.618902
3.00779e-09
0.979263
1.01211
1.00708
1.00791
0.891309
1.01203
1.00139
0.92511
0.991602
0.95771
0.97268
0.935833
0.994789
0.910081
8.97968e-10
1.00009
4.9656e-09
0.8098
8.93322e-10
1.00002
4.94158e-09
1.01541
1.0063
1.00367
0.980176
1.04421
0.999944
1.00686
1.00828
1.01191
1.01417
1.02414
1.00902
1.01194
1.01259
3.74314e-08
1.00069
8.29332e-08
1.00027
3.74886e-08
1.00027
8.2782e-08
0.95266
0.995297
0.98317
0.980003
0.952441
1.02194
0.979056
0.999888
1.00225
0.971376
0.989754
0.999833
1.00331
0.972833
8.841e-08
1.0004
4.50421e-08
1.00104
8.84553e-08
1.00009
4.50405e-08
1.02116
1.03289
1.01864
1.03321
1.02358
1.01138
1.01207
1.0107
1.0132
1.01992
1.02184
1.01157
1.01374
1.01934
6.49984e-09
0.775759
1.15632e-09
1.00044
6.49844e-09
0.776347
1.13564e-09
0.985606
1.0262
0.968063
0.98271
0.955324
0.979472
0.968188
0.986816
0.998922
0.988354
0.998108
0.993708
0.999415
0.969434
3.23791e-09
0.0466955
5.54498e-09
0.62664
3.23791e-09
0.0426534
5.53149e-09
0.971604
1.00831
0.999368
1.34498
0.915995
1.04251
1.07562
1.00021
0.999568
0.992127
1.00328
1
0.999314
0.99391
1.94855e-12
1.21204e-09
3.13996e-12
0.00444402
1.94855e-12
1.28811e-09
3.32376e-12
0.774104
0.896718
0.999871
0.890092
1.01945
0.709194
0.997798
0.888251
0.999701
0.997694
1.0029
0.882069
0.999711
0.99349
1.68432e-13
3.48387e-10
1.68402e-13
4.69382e-10
2.13978e-13
3.43063e-10
1.68433e-13
1.00575
1.02587
1.01563
1.04596
1.00769
1.03049
1.00744
0.831878
0.824076
1.00118
1.00056
0.832185
1.00064
0.82556
3.4019e-14
2.83059e-10
3.40254e-14
-9.35336e-19
-8.27012e-17
-2.61775e-22
-7.02942e-17
1.04092
1.0475
1.01431
1.00706
1.03818
1.04999
1.01379
0.943548
0.992635
0.856978
0.998641
0.922037
0.988633
0.906361
3.06598e-13
0.000162556
3.05947e-13
-4.07811e-20
-5.01657e-20
4.03138e-05
-5.36454e-19
0.99571
0.924109
1
1.03849
1.00991
0.922306
0.903986
1.00963
1.00678
1.00338
1.01198
1.00897
1.00721
1.00611
1.40293e-09
0.618433
9.64112e-10
0.0262272
-1.04838e-15
0.616992
-8.58831e-15
0.935015
1.02128
1.00538
1.00001
1
1.03344
1.00887
0.977651
0.99505
0.936534
0.999693
0.947342
1
0.950853
4.31868e-10
1.0001
2.42949e-09
0.807962
-3.38794e-16
1.00001
-3.13102e-17
1.03481
0.959341
1.00872
0.990668
1.03344
1.00298
1.00453
1.00988
1.01347
1.01455
1.03302
1.00874
1.01241
1.01694
2.12985e-08
1.0007
5.00898e-08
1.00006
-1.75987e-17
1.00017
-1.65111e-20
0.952331
0.994605
0.976518
1.0149
0.948564
0.994077
0.956929
0.997405
1.00323
0.952241
0.983199
1
1.00407
0.952387
5.35852e-08
1.00042
2.59821e-08
1.00041
-3.40535e-21
1.00001
-4.33681e-22
1.02027
1.00943
1.00469
1.01741
1.02093
1.01049
0.981833
1.00966
1.01268
1.01997
1.01963
1.00971
1.01282
1.01977
3.36969e-09
0.775758
5.56919e-10
1
-1.02416e-16
0.775972
-8.05861e-19
0.943522
0.994587
0.97712
0.989179
0.936142
1
0.982332
0.989651
0.999878
0.984115
1.00177
0.989374
1
0.988886
1.09904e-09
0.0407336
1.60006e-09
0.625563
-7.86882e-15
0.0318328
-9.81393e-17
0.981358
1.01404
1.08961
1.00885
0.977369
0.969697
0.999936
0.999773
0.995883
0.996521
0.997941
0.999894
0.99677
0.988918
4.30028e-13
1.04721e-09
5.73444e-13
0.00148062
-4.35315e-20
2.1684e-22
-3.22991e-32
1.01339
0.691757
0.995675
1
1.2048
1
1
0.893484
0.999373
1.08824
1.11936
0.893154
1
1.16025
1.24514e-13
1.8074e-10
4.19176e-14
-4.19404e-19
-5.07879e-17
-8.39453e-19
-6.01052e-17
0.108442
0.101182
-5.1934e-17
3.35882e-08
3.35882e-08
0.103785
0.0977922
0.903382
1
0.969613
0.998786
0.99995
0.969753
0.897848
0.226808
-1.26094e-21
0.312134
2.7389e-05
4.44628e-08
0.312526
0.231354
0.825445
0.999202
0.824638
1.00048
1
0.823507
0.828597
0.109582
1.24805e-07
0.105126
1.24805e-07
1.24805e-07
0.114341
0.0980298
0.923739
0.993139
1
0.974477
0.995752
0.976349
0.908188
0.205192
2.28219e-07
2.28219e-07
0.308388
2.28219e-07
0.30541
0.224382
0.505367
0.384262
0.0193886
0.000279461
0.390487
0.0238502
0.52395
0.976512
0.923947
0.99956
1.00143
0.937361
0.998898
0.976159
0.780513
0.108104
1
0.401557
0.109625
0.997366
0.777572
0.968919
0.993141
0.956004
0.882629
0.95744
0.976228
0.93244
0.509327
0.000577637
0.410397
0.0207658
0.401747
0.0274317
0.552416
0.978359
0.999662
0.953492
0.999933
0.976402
0.999057
0.979105
0.780539
0.404204
0.111998
0.993891
0.110264
0.995979
0.780061
1.00013
1.00137
0.920776
0.647073
1.00176
0.92634
1.00147
1.00378
1.00787
1.00183
1.01177
1.00087
1.00081
1.00477
1.0029
1.00004
1.00019
1.00001
1
1.00013
1.00318
0.995903
1.00584
1.00734
0.966211
1.00735
0.942153
0.996941
1.00181
0.647491
1.00171
0.920283
1.00194
0.91888
1.00149
1.00389
1.01625
1.00225
1.00022
1.00861
1.00102
1.00034
1.00326
1.00032
1.00014
1.00008
1.0009
1.00035
1.00232
0.987667
0.997986
1
1
0.997584
0.999957
0.98663
0.960112
0.975295
1.00096
0.997879
0.908264
1.00055
0.962167
0.997938
1
1.00064
1.00031
1
1.00008
0.998787
0.915704
0.986658
0.99359
0.926537
0.996925
0.90576
0.92145
0.995416
1.00006
0.998781
0.999981
0.998143
1
0.988311
0.961109
1.00265
0.908022
1.00069
0.906536
1.00097
0.956642
0.999991
1.00046
1
1
1.00003
1.00019
0.99958
1.00454
1.00368
1.00129
1.00091
1.00401
1.00142
1.00503
1.00455
1.00222
1.00753
1.00666
1.00327
1.0063
1.00451
1.00227
1.00037
1.00276
1.00077
1.00049
1.00299
1.0022
1.00834
1.01704
1.01108
1.01408
1.0105
1.01463
1.00814
1.00489
1.00136
1.00423
1.00144
1.00445
1.00203
1.00474
1.00506
1.0066
1.01491
1.00546
1.00833
1.00562
1.00526
1.00298
1.00155
1.00112
1.00297
1.00129
1.00318
1.00278
1.00127
1.00389
1.00057
1.00192
1.00376
1.00061
1.00186
1.008
1.00162
1.00536
1.00553
1.00084
1.00613
1.00686
1.00292
0.999941
1.00138
1.0005
1.0002
1.00176
1.00089
1.00051
0.985494
1.00165
0.985753
1.00146
0.990156
1.0001
1.00162
1.00247
1.00361
1.0007
1.004
1.00133
1.0013
1.0035
1
1
1.0043
1
1.00347
1.0049
1.00182
1.00105
1.00019
1.00198
1.00047
1.00203
1.00231
1.00423
1.00369
1.00109
1.00002
1.0036
1.00103
1.0043
1.00923
1.01556
1.00212
1.00655
1.01433
1.00165
1.00915
1.00368
1.00107
1.00085
1.00041
1.00169
1.00075
1.00393
1.01134
1.02236
1.01391
1.0201
1.01312
1.01896
1.01205
1.00438
1.00012
1.00294
1.00149
1.00304
1.00162
1.00437
1.00903
1.00553
1.01343
1.00175
1.01374
1.00167
1.00909
1.00389
1.0009
1.00189
1.00063
1.00214
1.00092
1.00384
0.999259
0.999896
0.999408
1.00004
0.99977
0.99875
0.999107
0.998258
0.844114
0.997112
0.969468
0.848752
0.998234
1
0.999997
0.786638
1
0.670037
0.787526
1
1
0.986481
0.999901
0.998742
0.968764
0.999712
0.978036
0.984888
0.998927
1.00041
0.999827
0.995624
0.999917
0.997422
0.999765
0.982725
0.979034
0.96136
0.994119
0.873719
0.990266
0.976937
0.999183
0.670541
0.79175
1
0.788983
1
0.999422
0.884723
1
0.179338
0.50346
1
0.181697
0.88323
1.00329
1.01451
1.00229
0.990666
1.01551
1.00226
1.00296
0.808751
0.0808038
0.577381
0.0109036
0.0841174
0.57492
0.810413
1.00082
1.00013
0.999995
1.00005
1.00004
1.0009
1.00102
0.883593
0.503463
1
0.185879
1.00018
0.183713
0.88372
1.00317
1.00569
1
0.999622
1.00795
1
1.00443
0.799913
0.0116677
0.0939039
0.574283
0.090968
0.575134
0.798952
0.167225
0.378958
-3.50842e-16
4.71075e-08
0.375132
4.71075e-08
0.169434
0.811561
0.999393
0.739332
1
0.999949
0.813561
0.738645
0.106595
-3.99447e-16
0.0490597
4.58696e-08
4.58696e-08
0.102248
0.0521748
0.892975
1.03566
0.999864
0.957143
1
0.96503
0.876407
0.169936
1.19455e-07
0.373013
1.19455e-07
0.374457
1.19455e-07
0.186341
0.814342
1.00005
0.999435
0.73832
0.999883
0.814314
0.738343
0.107067
1.83595e-07
1.83595e-07
0.0556684
1.83595e-07
0.109234
0.0532172
0.108039