/*--------------------------------*- C++ -*----------------------------------*\
| =========                 |                                                 |
| \\      /  F ield         | OpenFOAM: The Open Source CFD Toolbox           |
|  \\    /   O peration     | Version:  5.0                                   |
|   \\  /    A nd           | Web:      www.OpenFOAM.org                      |
|    \\/     M anipulation  |                                                 |
\*---------------------------------------------------------------------------*/
FoamFile
{
    version     2.0;
    format      ascii;
    class       surfaceScalarField;
    location    "1.5";
    object      alphaPhi10;
}
// * * * * * * * * * * * * * * * * * * * * * * * * * * * * * * * * * * * * * //

dimensions      [0 3 -1 0 0 0 0];

internalField   nonuniform List<scalar> 
23578
(
-6.21629e-09
-5.33478e-09
3.61068e-09
1.75602e-12
-3.22482e-09
-5.17239e-09
-4.12801e-09
5.02631e-09
3.5516e-08
2.92681e-08
2.62862e-08
2.23452e-08
2.32989e-08
1.97287e-09
1.82394e-08
6.03686e-09
6.76583e-11
-1.29199e-09
2.29211e-08
-4.73949e-09
-1.96899e-08
1.45197e-08
2.55469e-08
1.51695e-08
8.92155e-09
2.66579e-09
2.01917e-10
-1.67506e-10
-5.96719e-10
-2.3947e-16
1.23366e-20
5.97401e-18
-4.12341e-18
-8.67908e-17
-1.97627e-16
5.24034e-16
5.17381e-24
4.26588e-22
5.98928e-23
2.05796e-21
5.23194e-21
2.07346e-20
-3.96198e-20
4.68369e-28
7.55462e-27
3.36908e-27
6.15362e-28
-7.48658e-28
2.04614e-29
1.03973e-31
-4.23345e-31
1.71129e-31
5.79098e-36
9.88006e-35
8.47845e-35
1.75548e-39
1.19595e-38
1.40558e-38
7.03403e-43
3.03665e-42
1.55878e-41
2.85813e-46
7.71523e-46
2.08109e-45
1.16338e-49
1.25333e-49
1.07462e-47
4.72249e-53
4.60649e-53
2.52284e-51
1.91517e-56
1.00356e-56
-7.83393e-55
7.72374e-60
4.86168e-60
9.55457e-57
3.10969e-63
6.89696e-64
3.28269e-61
1.25611e-66
3.96855e-67
2.02912e-63
5.0424e-70
1.03986e-70
1.48339e-66
2.018e-73
6.12217e-74
-1.23974e-69
7.85647e-77
7.50178e-78
1.69216e-74
3.11292e-80
-1.47272e-80
3.40178e-78
1.34689e-83
-7.96184e-84
5.54244e-80
6.45737e-87
1.39516e-87
-3.14115e-82
2.97616e-90
2.33314e-91
-2.4418e-86
3.26972e-93
-1.34766e-93
1.01163e-88
6.4822e-97
-3.50119e-99
-3.22365e-93
2.4974e-100
1.71499e-100
-6.85425e-96
1.50641e-103
3.01999e-104
-4.49683e-99
2.87434e-106
-7.79913e-108
2.73726e-101
5.43131e-109
-3.70278e-110
-5.52379e-105
6.65164e-113
1.25919e-113
-1.52741e-107
3.99518e-116
1.59289e-117
-4.23023e-112
6.32926e-119
2.47716e-120
1.3183e-114
1.23874e-121
7.51802e-123
-3.72059e-118
9.28015e-126
-7.48431e-126
4.44511e-122
3.99514e-129
-1.14604e-129
9.6141e-127
5.49266e-132
2.48587e-133
5.74077e-128
5.4553e-135
-1.13545e-136
-7.93983e-132
9.80287e-138
1.39978e-138
3.59486e-134
2.08519e-140
8.94997e-141
-6.29616e-138
2.88112e-144
-1.15028e-145
2.70799e-140
3.66393e-147
4.41808e-148
-2.50903e-143
5.32649e-151
5.00961e-153
-5.95701e-146
3.23226e-153
1.27811e-156
-9.09847e-151
8.44127e-154
5.84968e-157
-9.21261e-153
9.84178e-159
-1.35422e-157
4.57442e-09
2.94779e-10
1.43509e-08
-1.06567e-07
-1.73631e-07
1.91489e-07
-8.25512e-09
5.63211e-09
6.4258e-08
4.38314e-08
6.2149e-08
6.12508e-08
6.35333e-08
6.21242e-08
-2.12927e-07
-6.47898e-08
2.44471e-07
-1.14003e-07
-1.88913e-08
-7.0828e-09
2.15397e-11
-6.24249e-09
-5.1798e-09
-8.5213e-09
-3.15873e-08
1.35778e-09
-2.13141e-08
-5.88322e-09
2.33076e-08
-1.77143e-08
-3.54538e-09
-4.15189e-09
-1.16481e-08
-1.19519e-09
-2.02521e-09
-2.19815e-09
-1.68466e-09
7.55073e-09
-3.48226e-14
2.168e-17
6.85801e-18
-4.77672e-17
-1.42741e-13
-8.8285e-14
5.57971e-14
-2.02093e-15
-3.00276e-15
-1.63208e-15
-1.63623e-15
1.44868e-21
1.90088e-19
2.91953e-21
-3.23973e-20
3.81731e-20
-2.53613e-19
4.25884e-20
-4.85193e-27
2.33404e-23
5.595e-26
9.93523e-29
8.59958e-27
-3.0664e-30
1.97289e-31
6.75092e-31
1.35082e-32
2.29088e-35
-1.3567e-33
3.86465e-35
2.14869e-39
-7.11663e-38
1.03253e-38
6.82695e-43
-9.20826e-42
4.35335e-42
2.79744e-46
-2.30845e-45
1.32078e-45
1.19328e-49
-8.72833e-50
-4.58309e-48
4.91078e-53
-2.03136e-52
1.27844e-51
2.01989e-56
-2.4788e-56
6.77341e-54
8.3417e-60
-1.09727e-59
-2.88706e-57
3.41637e-63
-6.39405e-63
3.77109e-61
1.40014e-66
-1.67502e-66
-9.57723e-65
5.76607e-70
9.97564e-71
4.26263e-67
2.4059e-73
-4.09106e-73
-4.01233e-70
9.99596e-77
-8.58977e-77
-6.35558e-74
4.40573e-80
-5.0674e-81
-6.0149e-77
1.97414e-83
-2.20735e-83
4.05314e-81
7.20008e-87
1.54884e-87
-4.5341e-83
3.30306e-90
-1.10633e-90
5.47671e-87
2.44248e-93
9.37405e-94
-2.38023e-88
6.81355e-97
4.44473e-97
9.07649e-93
4.50066e-100
5.91327e-102
-1.44294e-96
3.58648e-103
5.08671e-104
-3.82169e-99
8.04198e-107
-5.71422e-106
3.49753e-102
4.712e-110
-8.53943e-108
1.39696e-104
4.20187e-113
8.97263e-114
-8.79998e-110
4.85389e-116
-8.44527e-117
3.2455e-113
1.59625e-119
-1.86974e-120
4.07207e-115
2.08903e-122
3.31566e-124
-9.08182e-121
2.70565e-124
-1.30362e-126
3.82984e-122
1.36495e-128
-7.2991e-129
1.11696e-124
5.93334e-132
6.95907e-133
2.13291e-127
4.04131e-135
1.01837e-135
-9.36197e-132
6.17373e-139
-1.83593e-139
7.86199e-136
2.68941e-142
5.0499e-143
4.18143e-139
1.90154e-145
1.97866e-145
1.65743e-139
-1.65311e-148
-1.4834e-149
3.02192e-144
3.5417e-151
3.96134e-151
2.45812e-146
-1.97549e-153
-2.85039e-154
-6.22752e-150
3.93479e-154
7.34004e-157
-2.70506e-152
2.99156e-158
-4.34027e-156
-8.24395e-09
-3.64678e-08
-1.24818e-08
-1.26661e-08
-1.97266e-08
-2.12232e-08
-8.12445e-09
-3.51282e-08
3.028e-08
-3.69671e-09
-1.20723e-09
7.00746e-08
6.03068e-08
2.03058e-08
-6.95394e-08
-1.5135e-08
4.87109e-08
3.00513e-10
1.27077e-08
1.58674e-08
2.40931e-08
-7.83232e-09
-4.23813e-09
-8.86961e-11
-1.32451e-08
-7.55207e-09
-7.9872e-09
-8.5883e-09
-2.15966e-08
1.91757e-08
-8.82386e-09
-1.45659e-07
-5.10124e-08
-1.19074e-09
-4.60344e-09
3.0324e-10
4.42484e-09
2.30503e-09
1.19552e-11
1.15682e-13
1.43315e-09
2.73745e-12
1.43504e-09
7.40251e-20
6.7629e-19
3.82734e-19
3.22195e-18
4.81682e-18
1.02253e-17
-2.49812e-17
4.84747e-19
6.18566e-18
4.97243e-19
1.93432e-25
-6.70176e-22
-1.39633e-24
-1.50055e-28
-1.13564e-25
2.50835e-27
2.54612e-29
-4.3864e-29
3.82186e-31
1.08432e-32
-7.0014e-32
7.87403e-34
1.96192e-37
-6.96235e-35
1.60552e-37
4.67191e-41
-5.02288e-39
-1.27407e-41
1.81734e-44
-1.15125e-42
1.60764e-44
7.14781e-48
-2.88369e-46
-2.13973e-48
2.80602e-51
-7.83007e-50
-3.25049e-51
1.0985e-54
-3.07553e-53
-8.75285e-53
4.29926e-58
-1.54298e-60
-3.36035e-56
1.66659e-61
-1.47994e-60
2.91085e-60
6.45465e-65
-3.6397e-64
-1.8646e-63
2.49317e-68
-1.11276e-67
1.10156e-66
9.57162e-72
-4.75157e-71
-1.66952e-69
3.85319e-75
-1.99019e-74
-1.45074e-72
1.35591e-78
5.6013e-79
-1.01402e-75
6.04466e-82
6.74195e-82
-2.44342e-78
2.065e-85
-4.59579e-85
-8.70717e-82
7.40891e-89
-1.50606e-88
-1.4844e-86
7.66562e-92
-2.26428e-91
-1.29184e-89
3.83752e-95
-3.83647e-95
8.09606e-93
1.12797e-98
-1.97726e-98
4.3263e-96
1.18825e-101
-1.47417e-100
-4.10766e-99
9.35038e-104
2.8117e-105
-4.52829e-101
2.18186e-107
8.08963e-109
-2.67464e-103
7.19603e-111
-7.74378e-115
-1.40571e-106
-2.88826e-115
2.25113e-115
-5.67026e-111
-7.66335e-118
-1.08285e-118
3.39734e-114
3.1856e-121
1.91311e-121
7.71941e-118
1.17721e-123
6.4816e-125
-2.23304e-120
2.98446e-127
6.87676e-126
1.41343e-123
2.4961e-131
2.37592e-130
9.77417e-126
3.895e-133
-3.04546e-133
-1.90237e-129
3.17628e-137
-4.89057e-136
-5.45065e-133
-1.33294e-141
-2.31727e-139
3.01198e-136
1.80001e-143
4.28076e-144
4.30577e-138
1.1481e-147
5.5119e-146
3.40529e-142
4.86037e-149
1.97691e-150
4.58784e-145
-4.96666e-153
1.79879e-153
-1.46351e-148
1.63991e-153
-2.26526e-158
6.60415e-151
-2.8974e-158
9.23849e-155
1.601e-08
3.59732e-09
-1.62727e-09
-1.14079e-08
-2.48633e-08
-7.84921e-09
1.21916e-08
-2.08095e-08
-1.21017e-07
-2.59998e-08
4.85175e-08
-1.28593e-07
4.54607e-08
6.39738e-08
-3.09099e-09
6.72324e-08
-3.75899e-09
-6.19867e-09
-3.31763e-08
1.52939e-08
-7.27446e-09
-2.05665e-09
-1.41882e-09
-7.87503e-08
-1.05121e-07
1.61537e-07
8.07111e-08
-3.28674e-08
-3.46014e-08
-2.9808e-08
-3.31862e-08
-1.84145e-08
-1.10102e-07
-2.89425e-08
1.4249e-07
-1.75054e-08
3.01792e-09
-1.67788e-08
3.38683e-09
-3.33725e-10
1.11913e-08
-6.74651e-11
4.85236e-11
-9.71505e-12
-3.38916e-11
4.95368e-11
9.32314e-17
4.9615e-19
-1.96558e-08
-1.24713e-18
9.3152e-17
9.35788e-17
9.29178e-17
1.49271e-24
1.90238e-22
-3.43089e-22
2.70531e-19
2.69361e-19
2.70716e-19
2.70024e-19
-5.30117e-27
2.86353e-26
1.30491e-26
5.72142e-29
-2.70616e-28
2.50561e-30
8.55592e-32
-2.15869e-31
-1.66561e-32
1.21311e-35
-3.21459e-34
-1.07598e-37
8.38179e-40
-4.96197e-38
9.73179e-40
2.89057e-43
-9.16258e-42
5.07315e-44
1.18827e-46
-2.28629e-45
2.65565e-46
4.89196e-50
-6.32757e-49
1.02092e-49
2.00511e-53
-1.38133e-52
-1.46122e-51
8.17761e-57
-3.91356e-56
7.88224e-56
3.31871e-60
-1.27634e-59
2.34836e-59
1.34219e-63
-3.81793e-63
7.04016e-62
5.43148e-67
-9.65788e-67
1.01097e-64
2.20432e-70
2.05617e-70
4.28163e-70
8.95055e-74
5.21645e-75
-2.63092e-71
3.63535e-77
-1.77324e-78
4.08513e-74
1.41844e-80
-1.51866e-80
-1.31689e-76
5.61452e-84
-2.65048e-84
-5.43533e-81
3.02468e-87
2.02156e-89
-9.21349e-84
1.27245e-90
-1.85633e-90
-4.68775e-87
5.11274e-94
1.40549e-94
2.32528e-90
5.41107e-97
6.11082e-98
-2.5488e-93
3.59718e-100
-8.03977e-102
-4.13168e-96
7.58649e-104
-3.82833e-103
-2.54892e-98
5.21583e-107
2.01385e-108
-1.22618e-102
4.42004e-110
8.45647e-111
1.54449e-106
1.57444e-113
4.62045e-115
-2.97991e-109
5.27292e-117
1.19404e-118
1.05514e-112
1.26554e-119
-1.07884e-120
8.68889e-116
5.08667e-122
9.87325e-123
-2.1882e-118
5.58524e-126
1.74117e-126
5.10492e-121
3.54752e-129
-1.01354e-130
2.0581e-124
6.54915e-132
5.52354e-134
-1.87335e-128
9.77649e-136
-2.5186e-137
4.02923e-134
1.39732e-138
-2.60545e-140
8.59444e-135
8.4925e-142
1.00732e-142
-1.42503e-137
2.0738e-145
1.29903e-146
1.27839e-140
1.23875e-148
3.92442e-148
-3.75388e-143
9.16899e-152
4.60137e-152
-1.62689e-148
1.90451e-153
-5.61892e-155
-6.41204e-152
-2.21209e-157
3.30261e-153
-9.82994e-08
-3.74172e-08
1.30623e-07
-2.15373e-08
-2.88183e-08
-2.1635e-08
-3.05469e-08
-1.97476e-08
-3.42382e-08
1.94059e-09
-1.45438e-08
3.33358e-09
-7.32237e-08
-2.13228e-08
-2.78125e-09
1.0691e-08
5.91498e-09
-2.30699e-08
-1.68866e-08
4.01207e-09
-5.08482e-09
3.57239e-08
-3.30479e-08
3.92255e-08
1.88137e-08
-7.47161e-08
-1.98681e-09
-1.74413e-09
2.55531e-09
-1.62369e-10
-3.01096e-09
1.58516e-09
-2.47143e-09
2.27258e-10
-2.71574e-10
-1.07122e-10
8.02465e-11
6.18962e-16
-6.87788e-19
-2.17123e-08
1.83671e-18
6.20961e-16
6.1661e-16
6.29513e-16
-1.51287e-18
2.51929e-24
8.19316e-21
8.28062e-22
5.88588e-18
5.88518e-18
5.88742e-18
5.88611e-18
2.28336e-25
1.23433e-24
-7.89581e-26
-5.567e-29
-1.25075e-29
-8.18116e-30
1.43269e-32
-2.41328e-31
1.20735e-32
1.73379e-35
-2.62714e-34
-4.69208e-36
2.4971e-39
-4.13336e-38
1.00874e-39
8.27209e-43
-7.4106e-42
4.55584e-43
3.45466e-46
-1.84254e-45
-2.01462e-45
1.45537e-49
-5.05664e-49
-9.72792e-50
6.09895e-53
-1.31975e-52
2.55992e-52
2.54252e-56
-3.02413e-56
-1.14156e-54
1.05473e-59
-2.81233e-59
2.43416e-57
4.36418e-63
-2.44182e-63
2.46073e-61
1.79249e-66
-1.09185e-66
2.82697e-64
7.33291e-70
-7.49181e-71
8.05401e-68
3.00358e-73
-7.58241e-74
1.41322e-70
1.2092e-76
-1.73412e-77
-4.983e-74
5.07306e-80
-8.24719e-81
-2.44363e-76
2.19968e-83
-3.4538e-84
-5.39743e-81
8.775e-87
6.78014e-89
1.822e-83
3.65544e-91
-9.98813e-92
4.13699e-86
1.67918e-93
2.48919e-94
-6.4737e-90
1.44383e-96
4.89113e-97
-5.42928e-93
4.59374e-100
1.03621e-100
-3.12666e-96
5.80673e-103
2.6292e-104
-9.6551e-98
1.13193e-106
-1.28987e-107
1.31311e-102
4.68984e-110
1.03407e-110
-2.99425e-106
3.37642e-113
2.62577e-114
-5.40653e-109
-2.48993e-116
2.70126e-117
-8.38598e-112
1.04803e-119
-2.33062e-120
-2.97466e-114
-3.89936e-123
2.38739e-124
5.1016e-120
5.88018e-126
1.9438e-127
3.08593e-121
5.07389e-130
-8.17155e-130
-1.92503e-126
-1.64394e-132
-1.84133e-131
1.90091e-129
1.2989e-136
-8.51887e-135
-6.29624e-133
2.25971e-139
-3.42224e-140
-3.02792e-134
5.63964e-142
1.53419e-141
4.31807e-136
7.91483e-145
-1.27969e-145
8.6687e-141
4.76099e-147
5.39829e-148
5.35927e-143
1.47133e-150
7.99693e-151
-1.94639e-147
-6.69687e-154
3.59808e-154
-8.43368e-150
6.2555e-158
-1.82616e-152
-1.91144e-08
-2.09015e-09
-3.66827e-09
-5.27246e-09
4.48922e-08
1.00268e-08
-2.16115e-09
1.64846e-08
4.52704e-08
3.765e-08
4.74303e-08
8.9221e-10
-2.32754e-08
1.84397e-07
2.53196e-09
2.95715e-08
1.08608e-09
-7.25847e-09
-6.17331e-09
-4.54218e-08
-4.53899e-08
-5.14779e-08
-4.84353e-08
-8.95517e-09
6.30964e-10
6.44175e-09
5.20223e-09
2.02146e-09
-2.01913e-09
2.45175e-09
-2.03995e-09
7.3173e-09
-6.23972e-08
-2.57234e-08
4.20087e-08
-3.24822e-08
4.45718e-09
1.94569e-09
5.80246e-09
3.23871e-09
-1.54646e-08
-1.30683e-09
1.86355e-10
-3.18714e-11
6.51931e-11
1.2694e-10
-1.8336e-16
3.65889e-17
-1.82663e-08
3.70909e-17
3.34617e-17
-1.37869e-16
-2.4531e-16
-6.91274e-17
3.59493e-25
-7.46145e-22
-4.01384e-22
5.72273e-18
5.72341e-18
5.72239e-18
5.71989e-18
1.40128e-25
-1.5043e-25
7.95872e-26
1.44466e-28
-1.05483e-28
1.12609e-29
2.0885e-32
-1.35607e-31
-8.2164e-34
1.11639e-35
-1.02848e-34
4.45525e-35
1.28057e-39
-1.42132e-38
3.7438e-39
3.93794e-43
-2.77378e-42
2.42102e-43
1.70595e-46
-6.79523e-46
-1.9187e-45
7.46326e-50
-1.76603e-49
9.5991e-49
3.23e-53
-1.83938e-53
9.16348e-53
1.38493e-56
-9.30725e-57
-9.41212e-55
5.88116e-60
1.02764e-60
-2.44842e-57
2.47894e-63
-9.8916e-63
2.26663e-60
1.03582e-66
6.74588e-68
3.63452e-64
4.31324e-70
6.41288e-71
-9.33575e-68
1.79381e-73
-2.7736e-74
4.36425e-71
7.92862e-77
-2.05387e-77
1.91906e-73
3.23398e-80
1.50035e-80
-1.67921e-76
1.34407e-83
-8.76993e-85
2.71426e-80
6.27151e-87
-2.86956e-88
-6.41233e-84
4.30326e-90
3.1821e-91
-7.31634e-87
5.1133e-93
1.93389e-93
-1.01387e-90
2.66752e-96
3.32593e-96
-1.74914e-92
7.40547e-100
-1.01214e-100
5.60244e-96
3.65719e-104
1.00549e-104
1.56247e-99
1.91156e-106
5.87832e-108
-2.20091e-101
1.47469e-109
2.56567e-110
-1.75815e-105
4.12167e-113
-1.65778e-114
8.1229e-109
3.71582e-116
-3.27343e-117
-2.21588e-111
1.5708e-119
3.92309e-120
-4.06335e-114
7.24373e-123
-4.37724e-124
-1.7129e-120
1.93789e-126
-4.44846e-127
1.89773e-122
5.97064e-128
9.05664e-130
-3.45034e-125
7.80372e-131
7.55834e-133
-1.38223e-127
3.57395e-135
-2.38993e-139
-4.11207e-131
3.71388e-138
5.05264e-140
1.18638e-133
1.0334e-141
-1.15666e-142
4.17655e-136
8.36398e-145
-1.04538e-146
-2.74055e-141
3.1693e-147
8.29355e-149
-5.89807e-144
1.56088e-151
4.98875e-153
2.31064e-147
-5.57102e-153
7.44245e-156
1.89552e-149
1.19563e-157
1.16456e-154
-1.18502e-08
-1.01794e-08
-3.9351e-09
-7.79813e-09
-2.44771e-08
5.01493e-08
-3.76846e-09
6.15948e-10
4.62346e-08
-1.0043e-08
-1.35361e-08
-1.44367e-08
6.07851e-09
-3.46793e-08
-1.84516e-08
-1.5455e-08
-6.69849e-09
-1.14245e-09
-1.1144e-08
1.62343e-08
-1.79779e-08
-2.19752e-09
9.80188e-09
-1.63581e-08
6.29332e-09
-8.80894e-09
2.68893e-09
4.7675e-10
-1.83262e-10
-4.90954e-10
-1.00895e-11
-4.21037e-13
-1.30435e-10
2.87316e-10
-4.49359e-16
-4.49126e-18
-3.4828e-08
-3.4828e-08
-4.47356e-18
-4.49778e-16
-4.50972e-16
-4.50636e-16
1.79228e-24
1.32053e-21
1.20339e-22
2.55217e-19
2.53954e-19
2.54718e-19
2.56756e-19
4.12902e-27
1.70473e-25
-4.37229e-27
-4.51208e-29
4.72271e-29
8.5488e-31
8.92113e-32
3.92565e-32
1.20119e-33
1.61214e-35
2.56239e-35
2.72047e-37
1.3295e-39
2.35614e-39
1.23111e-39
4.76961e-43
6.86281e-43
2.75036e-43
1.94977e-46
1.62952e-46
7.78011e-47
7.95201e-50
4.64829e-50
2.21434e-49
3.22784e-53
1.37599e-53
1.18779e-51
1.3051e-56
3.82623e-57
7.17786e-56
5.26702e-60
5.79358e-61
-1.02126e-58
2.10933e-63
-2.36457e-64
-7.30932e-61
8.43736e-67
-1.12053e-68
8.73603e-65
3.36277e-70
5.3058e-72
8.80721e-68
1.34745e-73
-1.66708e-76
7.08638e-72
5.35895e-77
4.7633e-78
-7.15136e-75
2.09192e-80
6.4148e-85
2.29144e-78
8.281e-84
-8.35784e-86
5.63828e-82
4.02817e-87
-1.00541e-88
-1.62724e-84
2.47265e-90
2.0267e-90
-1.97371e-86
6.82714e-94
1.96443e-95
-1.72881e-93
2.62477e-97
9.73007e-100
6.13415e-96
1.2303e-100
-1.03997e-102
-1.05204e-96
4.1387e-104
3.46717e-106
5.62825e-101
2.05047e-107
1.68628e-109
-4.2796e-103
1.03189e-110
-1.19019e-112
-2.88168e-106
5.30538e-114
-1.2606e-116
3.97734e-109
5.47819e-117
-1.0685e-119
-1.14214e-112
1.10158e-119
1.31009e-120
-4.27892e-115
8.44892e-123
4.27371e-124
-6.34325e-119
7.27556e-126
-8.24297e-129
-4.35283e-122
1.13763e-129
1.71819e-133
-5.92856e-125
8.43615e-133
7.77392e-135
1.21566e-127
2.12817e-136
1.40897e-137
2.20381e-131
1.64243e-139
-1.05129e-142
1.21816e-136
5.45295e-142
3.33684e-144
4.27417e-138
2.76285e-145
-1.58489e-149
-4.89132e-141
1.62687e-147
-1.89692e-149
-3.65392e-144
8.49518e-152
-6.21865e-155
2.08681e-150
1.00733e-153
-1.11599e-157
1.5065e-151
3.01254e-157
-7.30777e-154
-2.05705e-08
-7.85754e-09
-1.04623e-09
9.01422e-10
-7.57936e-09
-6.37532e-08
-1.10922e-08
-4.18193e-08
-3.50392e-09
-6.38419e-09
-3.24634e-09
-2.13768e-08
7.59967e-08
1.22468e-08
7.50554e-08
9.22361e-08
3.10061e-08
2.65083e-08
8.02499e-08
2.02478e-08
2.25793e-08
2.1217e-08
-3.46919e-07
-3.9443e-07
-4.0297e-07
-3.29004e-07
2.08243e-08
-5.5037e-10
1.20843e-08
-3.81193e-09
-3.46953e-09
-5.13625e-09
-3.45228e-09
-1.54181e-09
1.18562e-09
2.61127e-08
-9.62964e-08
9.31173e-09
1.37416e-08
1.05927e-08
1.34001e-08
3.09644e-09
3.1359e-09
3.83478e-09
3.14849e-09
1.56185e-09
8.18577e-09
-1.47279e-09
-4.54886e-09
-4.1518e-09
-8.63397e-11
-8.814e-12
1.43318e-09
-6.75448e-12
1.44468e-09
2.96451e-21
3.58902e-19
-4.35513e-19
-2.18763e-17
1.08701e-19
3.10869e-17
2.08929e-18
5.27517e-18
5.57709e-18
2.03834e-19
5.54646e-18
-6.79046e-26
8.2979e-23
-9.27673e-24
3.75196e-28
9.8801e-27
-7.29609e-28
2.51832e-29
4.4889e-30
-1.63909e-31
9.01666e-33
8.67657e-33
-8.01826e-35
2.78837e-37
3.08308e-37
-1.38981e-38
7.61272e-41
6.12605e-41
3.04648e-42
3.02652e-44
1.63516e-44
-2.44841e-44
1.2059e-47
4.15401e-48
-4.78825e-49
4.78108e-51
1.18472e-51
2.5924e-50
1.88634e-54
2.84949e-55
1.32504e-53
7.42671e-58
-2.31052e-59
-5.42959e-57
2.90534e-61
2.31767e-64
-6.46829e-60
1.12858e-64
2.06517e-66
-1.72638e-63
4.4095e-68
9.72742e-70
-3.05262e-66
1.71974e-71
2.28713e-73
2.18369e-69
6.57645e-75
3.0973e-78
2.76858e-73
2.54333e-78
-2.3693e-80
1.11927e-76
9.42854e-82
2.76489e-83
-4.94804e-79
4.44848e-85
2.11522e-87
-1.99674e-82
1.3503e-88
-8.31128e-91
-1.12382e-85
6.8026e-92
4.89794e-94
-4.63979e-90
4.95452e-95
-9.95079e-98
-1.82834e-91
6.82732e-99
-1.77628e-99
6.83469e-96
6.77847e-102
9.42205e-104
-5.51216e-98
3.96119e-105
1.73334e-106
3.15934e-101
1.93718e-108
1.57072e-110
-8.53611e-104
6.64042e-112
-1.21469e-114
-3.88041e-107
-4.84724e-115
4.82551e-117
-7.11764e-111
2.50365e-119
4.55609e-120
1.2411e-113
9.78091e-121
9.10041e-124
4.44264e-117
2.44651e-124
4.25438e-127
-8.0223e-121
-2.97246e-128
2.85668e-130
1.16596e-124
5.16907e-131
-2.87946e-133
-7.11615e-128
9.46135e-134
1.87702e-136
3.66765e-130
-2.13615e-137
3.46285e-138
1.23496e-133
2.12023e-140
6.30544e-143
-1.95197e-136
1.21321e-144
5.25102e-147
7.50724e-141
8.59625e-148
2.83373e-149
-1.21265e-143
1.02907e-149
-5.76272e-152
-9.62321e-147
-1.71707e-153
-5.0771e-154
4.6695e-150
4.37742e-154
-1.05852e-156
4.35145e-153
9.44486e-159
-4.76259e-155
7.39789e-10
-1.66303e-08
-1.22751e-08
2.10689e-08
2.04877e-08
2.07881e-08
2.1423e-08
3.57527e-08
2.64072e-08
8.53307e-08
1.56444e-08
1.18433e-08
-9.77571e-09
1.52151e-08
3.35127e-08
3.09297e-08
4.90076e-08
3.01517e-08
3.81781e-09
1.2936e-08
4.24426e-08
1.68312e-08
1.69444e-08
2.12132e-08
-1.94399e-09
-2.58974e-09
3.20428e-08
5.69326e-09
1.4718e-09
-3.48542e-10
-1.03789e-08
-1.19356e-09
2.43931e-09
5.43994e-10
-2.01666e-09
-1.57497e-10
5.69662e-12
-1.89238e-13
-2.46878e-08
1.12809e-12
-2.46878e-08
1.53261e-21
4.61381e-21
-8.92754e-21
-3.05095e-20
3.4469e-20
-2.17853e-19
5.82524e-19
2.32837e-26
1.19264e-25
-2.03683e-25
8.98211e-29
1.47643e-27
-2.31455e-29
1.53188e-31
1.44151e-30
3.74345e-33
2.64576e-35
3.48431e-34
1.16591e-35
3.19151e-39
6.73621e-38
3.33654e-39
1.13317e-42
1.6743e-41
5.53311e-42
4.64425e-46
4.25095e-45
2.09953e-45
1.90858e-49
1.07104e-48
2.64016e-48
7.81496e-53
2.62563e-52
3.22658e-51
3.18834e-56
6.62661e-56
-1.61081e-54
1.29559e-59
1.76064e-59
-2.17336e-57
5.23736e-63
3.74097e-63
9.73467e-61
2.11009e-66
1.02309e-66
4.51131e-65
8.47621e-70
3.72026e-70
3.09914e-67
3.39012e-73
5.52861e-74
4.25969e-72
1.46813e-76
3.08578e-77
2.68947e-74
8.30467e-80
5.03161e-81
-3.05667e-76
2.39174e-83
2.39597e-84
1.26446e-80
9.08245e-87
1.93669e-87
4.80627e-84
3.55069e-90
-9.35157e-92
-1.6595e-86
1.46335e-93
-3.3431e-94
-5.30004e-90
1.58677e-96
-1.5504e-98
-4.47506e-93
8.78853e-99
1.02322e-101
-2.3024e-95
5.12202e-103
-2.22319e-104
-1.27434e-100
1.25304e-106
-5.47455e-107
3.82555e-105
8.97843e-110
-3.98073e-110
3.51062e-107
2.21786e-112
-2.78081e-114
-2.17128e-108
4.02764e-116
-1.51719e-116
-7.07936e-111
2.01043e-119
-3.07572e-121
-1.14388e-114
2.62032e-123
-1.77715e-123
1.40947e-118
2.12378e-126
-3.47151e-127
1.18006e-123
1.33634e-128
7.40554e-130
-5.27527e-125
1.80691e-131
-2.6816e-133
-8.52913e-128
1.67757e-134
2.32325e-135
-1.32763e-130
1.75063e-138
1.55625e-138
-2.98331e-134
8.18872e-142
-9.77859e-143
-9.74772e-139
-5.66269e-148
-3.60398e-145
1.21194e-141
3.32037e-148
-8.47165e-149
-5.28482e-145
9.89908e-151
-3.47164e-152
1.07775e-146
2.50252e-154
-2.00986e-154
-3.98589e-150
7.8433e-154
-4.43255e-157
-1.16289e-152
-1.59869e-158
3.05667e-156
5.37772e-08
6.77742e-08
1.54873e-08
5.36804e-08
1.73512e-08
1.9043e-08
2.20143e-08
-1.55376e-08
2.83637e-08
1.50927e-08
-8.99389e-09
6.97894e-08
6.23159e-08
-1.13457e-08
-2.24362e-09
4.47692e-08
-1.05218e-08
-3.80651e-08
-3.62811e-09
9.41982e-09
-6.18278e-08
-1.77215e-09
-9.21047e-09
5.64481e-09
1.42413e-09
1.75766e-09
1.99486e-16
-3.1634e-15
-2.07451e-18
1.62079e-17
6.14301e-18
-3.34697e-16
-8.21951e-16
3.9143e-15
3.57752e-24
2.39194e-23
1.54962e-21
6.07935e-22
-3.07867e-21
3.69235e-21
2.20616e-28
1.2652e-27
6.55751e-28
6.17013e-30
9.62376e-32
3.22431e-32
5.82107e-36
7.66802e-36
1.8699e-39
-3.5864e-39
7.55233e-43
1.1899e-42
3.07438e-46
-2.77223e-45
1.24951e-49
1.19734e-48
5.05398e-53
-3.38311e-52
2.03993e-56
-1.15314e-54
8.24396e-60
-2.20475e-58
3.31857e-63
-1.6074e-60
1.31644e-66
7.2944e-64
5.22751e-70
5.45457e-68
2.06675e-73
-1.6265e-70
8.23831e-77
2.47251e-74
3.34023e-80
1.07967e-75
1.30112e-83
1.83586e-80
5.38135e-87
-1.5523e-82
3.05285e-90
-1.68953e-86
2.99271e-93
1.26519e-89
7.10716e-97
-8.09941e-93
9.15714e-100
2.80214e-96
9.86399e-103
-1.31585e-98
5.42331e-106
-3.74541e-102
3.13338e-109
-5.14642e-105
6.1661e-113
-1.91533e-108
1.17283e-115
-9.54351e-111
5.37149e-119
1.63416e-114
3.60417e-122
1.32428e-118
1.38567e-124
-3.20208e-121
8.21655e-129
-1.34035e-127
3.17511e-132
2.34268e-128
2.15597e-135
1.23279e-132
1.35154e-137
-5.70349e-134
1.63776e-141
-1.52299e-137
2.34236e-144
-2.49878e-140
2.06809e-147
1.00298e-143
4.87811e-151
6.61411e-147
-1.75784e-154
-2.25972e-150
4.81088e-154
3.61931e-152
8.64496e-156
5.57974e-08
6.14748e-08
5.64578e-08
-1.7623e-09
5.1894e-08
-2.7471e-09
-1.49664e-09
1.76251e-08
7.28265e-09
7.83081e-09
8.24717e-09
7.72073e-09
8.50583e-08
-2.86692e-09
6.01812e-08
-4.00608e-09
-4.05615e-09
-1.51723e-08
-1.58778e-08
1.26898e-09
2.51449e-07
3.71291e-09
-2.81695e-09
3.27807e-08
-1.35058e-09
-1.06696e-07
-1.78367e-08
1.07841e-08
-1.91236e-07
1.08462e-09
2.26951e-09
8.68923e-10
5.28108e-10
-4.10778e-10
-1.60284e-09
-1.34004e-15
1.05129e-17
-5.7457e-19
6.8155e-17
2.83097e-18
7.29264e-16
-1.0379e-15
1.85344e-15
5.49572e-23
4.94643e-21
-5.45269e-23
3.79235e-20
-3.87745e-20
3.91988e-20
-4.37669e-20
1.38863e-25
1.40437e-26
-3.18486e-27
6.55732e-27
-2.92435e-27
-2.1829e-29
7.13124e-30
-9.22795e-30
-9.44195e-32
5.29379e-34
9.48693e-35
1.69207e-36
1.58037e-37
-1.05829e-38
-2.23754e-39
1.16031e-40
-9.65868e-41
9.5022e-42
8.16862e-44
-3.45683e-44
1.98902e-45
5.58528e-47
-8.19693e-48
7.00626e-48
3.81113e-50
-5.71194e-51
-1.10876e-51
2.59348e-53
-3.67948e-54
-1.63504e-54
1.75748e-56
-1.0178e-56
-3.95232e-57
1.18798e-59
9.62481e-61
1.29101e-60
8.00432e-63
1.80081e-64
1.39242e-64
5.37072e-66
-9.2093e-67
5.10373e-67
3.59361e-69
-6.1467e-70
4.82095e-70
2.39564e-72
1.05781e-73
-2.3199e-74
1.59088e-75
1.43096e-76
-3.84045e-77
1.05361e-78
-1.8182e-79
2.09833e-79
6.95437e-82
-1.03925e-83
6.28731e-83
4.57256e-85
2.66529e-86
4.22054e-86
2.9947e-88
-1.92714e-89
-1.95109e-90
1.95402e-91
2.22864e-92
-2.59321e-92
1.26995e-94
6.56543e-95
-3.04127e-96
8.23048e-98
3.27932e-98
4.93217e-101
5.31817e-101
-1.42676e-101
-2.12821e-101
3.42448e-104
-1.1642e-104
2.78301e-105
2.19737e-107
2.62921e-108
9.87185e-108
1.40351e-110
5.52143e-112
2.48273e-111
8.92159e-114
2.12107e-114
3.00419e-114
5.64918e-117
-4.25021e-118
3.1252e-118
3.56318e-120
9.25303e-123
-1.02595e-123
2.23722e-123
-3.14505e-124
2.15582e-124
1.39834e-126
1.24423e-127
1.06631e-127
8.69014e-130
-3.43237e-131
3.60414e-131
5.37565e-133
9.74848e-134
2.26698e-134
3.30351e-136
2.54118e-136
-2.50766e-140
2.01588e-139
-3.12234e-140
4.23364e-140
1.22076e-142
-6.64461e-143
8.71343e-143
7.354e-146
-6.66112e-146
-3.06359e-146
4.39289e-149
3.0164e-150
4.61973e-150
1.95904e-152
-1.64106e-153
1.45086e-152
3.78412e-156
8.65791e-156
-9.12809e-08
8.36204e-09
1.25196e-09
6.25304e-08
-4.55309e-09
1.80802e-07
1.16058e-08
4.91486e-09
9.66365e-09
2.82202e-07
-2.71909e-08
-1.65902e-07
-2.58933e-08
-1.61066e-08
-1.44684e-08
-1.99928e-08
3.47176e-07
-2.44416e-09
-2.1395e-07
3.91935e-09
-1.63372e-07
1.02163e-08
3.31733e-08
-3.16954e-07
2.02594e-09
1.29585e-08
-1.25287e-08
-2.10008e-07
1.63131e-08
-3.06235e-07
-3.15781e-07
-3.01882e-07
1.00736e-08
1.66972e-08
1.2787e-08
-2.32129e-08
1.72234e-09
4.24384e-09
-1.57365e-09
-2.76631e-09
1.70177e-08
-1.02958e-13
-7.42278e-17
2.70223e-15
6.44848e-17
-2.5008e-15
-3.59081e-13
3.1729e-14
1.33618e-12
-2.80394e-14
-3.02229e-14
-9.40553e-15
-9.3671e-15
1.04148e-20
1.41834e-18
-2.66447e-21
-4.12452e-19
-1.72846e-19
-3.97067e-19
-1.69383e-19
1.31302e-26
1.39367e-22
-4.98191e-26
1.87665e-29
9.17729e-26
1.19224e-30
1.78583e-30
5.36764e-29
-1.17599e-32
4.49329e-34
1.1228e-33
-2.44285e-35
5.64759e-38
2.15283e-36
-7.75133e-40
3.40628e-41
9.00702e-40
-4.28148e-42
2.63852e-44
3.36644e-43
-1.87822e-45
1.90776e-47
1.26838e-46
7.98519e-48
1.35734e-50
4.46094e-50
1.36193e-51
9.62313e-54
2.02293e-53
-9.34591e-54
6.77885e-57
2.72844e-57
2.54317e-57
4.7505e-60
1.13411e-60
1.65842e-61
3.31211e-63
1.76164e-63
-1.72731e-64
2.29654e-66
7.55806e-67
-1.1079e-67
1.58627e-69
5.99891e-70
5.19684e-70
1.09143e-72
1.92447e-73
-1.78997e-74
7.47037e-76
3.64903e-78
1.01304e-76
5.09032e-79
-2.54981e-80
-1.78663e-80
3.45444e-82
1.13414e-82
6.89211e-83
2.33532e-85
-2.38089e-86
8.68134e-87
1.57216e-88
2.91569e-89
-9.79979e-91
1.05462e-91
1.11575e-92
2.18631e-93
7.05551e-95
1.5821e-96
1.39338e-96
4.7086e-98
4.6496e-99
4.50384e-99
3.1323e-101
-9.39093e-102
2.06921e-101
2.0762e-104
3.18282e-105
1.28595e-104
1.3715e-107
1.83606e-108
4.09722e-108
9.0312e-111
-2.23738e-111
1.11212e-111
5.92966e-114
-8.5437e-115
9.52477e-115
3.88142e-117
3.89379e-118
2.21309e-118
2.53036e-120
-1.01905e-120
3.7632e-121
1.64306e-123
9.02718e-125
2.36078e-126
1.06445e-126
2.82427e-127
-5.27643e-127
6.87215e-130
7.29904e-131
-9.39851e-133
4.42333e-133
1.88796e-133
-3.41708e-135
2.84303e-136
3.7868e-137
6.28888e-137
1.82044e-139
8.50611e-140
-2.10522e-139
1.16083e-142
-8.20148e-144
2.54843e-143
7.37186e-146
5.15015e-146
1.87174e-146
4.67834e-149
7.36859e-150
7.20011e-150
8.06194e-152
2.70082e-152
8.26794e-153
2.28369e-156
3.15574e-157
-9.0702e-08
2.95031e-08
-2.96461e-09
-1.09676e-07
-1.07593e-07
-9.9665e-08
-9.93263e-08
4.69793e-09
3.41518e-09
-5.38551e-09
5.34255e-09
1.5386e-09
3.1535e-11
-1.45915e-08
3.28046e-08
3.74028e-08
3.19516e-08
7.96364e-08
5.69075e-09
-1.08697e-09
1.2788e-08
7.71044e-09
1.41271e-08
-2.06465e-08
-1.11401e-08
1.28529e-07
-1.32875e-08
2.16407e-07
-2.03327e-08
-2.2345e-08
-2.23559e-08
-3.27596e-09
-4.2851e-09
-4.33678e-09
-4.11218e-09
6.2334e-08
-2.04581e-08
-2.6516e-08
1.32065e-08
1.81297e-07
2.23263e-08
1.04354e-08
-9.79109e-11
-1.0623e-08
1.38398e-09
2.74832e-09
-5.14386e-09
1.29892e-10
-4.45843e-12
2.72448e-13
-5.74906e-12
2.95819e-12
-2.81807e-15
-9.7317e-20
-8.84753e-18
-3.16362e-19
1.6864e-17
-1.77164e-17
1.7875e-17
-1.66533e-17
-1.26688e-17
-4.76404e-18
-1.26267e-17
-7.28745e-24
-3.94047e-21
1.50019e-25
-1.20862e-27
-1.81686e-24
-2.46491e-27
-2.9273e-30
-8.66796e-28
-7.72317e-31
1.01887e-33
-7.81497e-31
-9.46973e-34
-9.44332e-38
-2.6501e-34
-1.49993e-37
-1.11246e-40
-9.91333e-38
-3.80228e-41
-4.89218e-44
-4.09701e-41
-9.37915e-45
-1.35768e-47
-1.86878e-44
-9.51288e-48
2.6195e-51
-8.20869e-48
7.01562e-52
9.18507e-54
-1.76368e-51
-1.20733e-52
1.13282e-56
-1.1827e-54
-3.63562e-56
1.10716e-59
-7.52763e-58
-2.30513e-60
9.71898e-63
-2.98134e-61
2.81273e-62
8.02398e-66
-1.98672e-64
2.62324e-66
6.3542e-69
-5.1699e-68
-1.50081e-69
4.8896e-72
-2.00583e-71
3.66502e-72
3.68145e-75
1.69049e-74
-1.20215e-75
2.7268e-78
-2.39199e-77
1.48274e-78
1.99167e-81
-4.44135e-81
6.95003e-82
1.43709e-84
-2.94833e-85
1.93402e-86
1.02759e-87
5.00573e-89
-6.48869e-89
7.3003e-91
-3.5321e-90
6.08213e-91
5.13958e-94
1.71232e-94
2.20798e-95
3.60146e-97
-1.29301e-97
6.03275e-99
2.50489e-100
7.62041e-101
1.05793e-100
1.72997e-103
-4.40937e-105
-1.8852e-104
1.1901e-106
4.00034e-107
2.37041e-107
8.15537e-110
-4.76927e-110
3.7978e-110
5.55996e-113
-5.31545e-113
5.55936e-114
3.77738e-116
2.58825e-116
-1.42824e-116
2.55585e-119
1.90678e-120
5.70244e-121
1.72039e-122
1.00139e-121
-5.10674e-124
1.15479e-125
1.03017e-125
8.11867e-127
7.73059e-129
3.95787e-129
4.11647e-131
5.16554e-132
-3.11582e-131
1.5928e-133
3.44071e-135
-8.21345e-135
2.30435e-137
2.28286e-138
1.33286e-138
-1.48723e-138
1.50949e-141
4.05315e-142
-3.91963e-142
9.95879e-145
1.52668e-145
5.45724e-145
6.54687e-148
1.4421e-148
1.3638e-148
4.31698e-151
4.01921e-151
-2.4158e-151
-4.06394e-154
-2.417e-154
8.31369e-09
-1.06546e-07
-4.64534e-09
-9.47245e-09
1.75601e-07
-1.91805e-08
4.01116e-08
-1.83688e-08
-2.62702e-08
-4.86151e-09
-4.93664e-08
-1.46573e-08
-4.37181e-08
-3.18017e-08
-1.61476e-07
-1.38021e-07
-2.7668e-08
-2.24912e-09
1.39906e-07
1.64819e-08
1.60004e-08
-1.46157e-07
1.81491e-08
-1.54721e-07
5.01015e-09
-6.78196e-09
-8.18346e-09
-1.72151e-08
-4.86665e-08
-2.4921e-07
1.39484e-07
-6.2454e-08
-1.72933e-08
-1.6677e-08
-1.69605e-08
-4.56219e-08
1.72091e-09
-1.64415e-08
5.81379e-09
1.87406e-09
5.47881e-08
-1.20602e-10
6.35272e-11
2.49087e-12