/*--------------------------------*- C++ -*----------------------------------*\
| =========                 |                                                 |
| \\      /  F ield         | OpenFOAM: The Open Source CFD Toolbox           |
|  \\    /   O peration     | Version:  5.0                                   |
|   \\  /    A nd           | Web:      www.OpenFOAM.org                      |
|    \\/     M anipulation  |                                                 |
\*---------------------------------------------------------------------------*/
FoamFile
{
    version     2.0;
    format      ascii;
    class       volScalarField;
    location    "1.5";
    object      p_rgh;
}
// * * * * * * * * * * * * * * * * * * * * * * * * * * * * * * * * * * * * * //

dimensions      [1 -1 -2 0 0 0 0];

internalField   nonuniform List<scalar> 
7891
(
89.5994
90.6599
89.026
116.868
101.387
94.2269
88.4835
85.6556
83.5936
81.4092
79.1859
76.924
74.6449
72.3831
70.1228
67.8812
65.6467
63.4428
61.2553
59.0938
56.9388
54.8012
52.6929
50.5771
48.486
46.4131
44.342
42.2696
40.2155
38.1879
36.1563
34.1486
32.1688
30.179
28.1836
26.2197
24.3079
22.43
20.5616
18.6863
16.8389
15.0356
13.2347
11.4039
9.60276
7.84811
6.09495
4.33599
2.59793
0.868815
98.4928
99.8125
101.09
85.4908
85.5658
76.8607
88.7072
86.2171
83.9607
81.644
79.3348
77.0149
74.7224
72.428
70.1433
67.8969
65.6529
63.4626
61.2807
59.0998
56.9439
54.8046
52.6853
50.5768
48.4724
46.3918
44.3289
42.2712
40.2257
38.1914
36.1703
34.1609
32.1643
30.1736
28.1858
26.2255
24.3039
22.4151
20.5437
18.6854
16.8449
15.0401
13.2416
11.424
9.61062
7.83815
6.08247
4.33321
2.59681
0.868257
102.628
91.943
201.852
89.6958
88.3395
92.9686
91.6129
87.0569
84.4323
81.925
79.515
77.1157
74.7704
72.4653
70.1727
67.9024
65.6765
63.4867
61.3045
59.1029
56.9496
54.8079
52.6749
50.572
48.4767
46.3886
44.3195
42.2768
40.232
38.1924
36.175
34.1604
32.1449
30.1598
28.1964
26.2404
24.3019
22.405
20.5403
18.6873
16.853
15.0349
13.2251
11.424
9.62038
7.83606
6.07903
4.33546
2.60231
0.868367
96.9238
77.1432
113.553
92.1741
90.0397
96.1398
92.6491
87.8292
84.4847
82.0873
79.6202
77.2156
74.8235
72.4918
70.1963
67.9227
65.6856
63.4853
61.284
59.1076
56.9602
54.81
52.6831
50.5749
48.4881
46.4013
44.3191
42.2829
40.229
38.1831
36.1758
34.156
32.1397
30.1548
28.2029
26.257
24.3087
22.4007
20.5404
18.6933
16.8557
15.0225
13.2075
11.4113
9.62639
7.83802
6.07819
4.34236
2.60809
0.864257
111.011
201.835
104.285
120.072
96.5755
93.0178
92.4623
88.1184
84.6791
82.2027
79.6929
77.2446
74.8561
72.5086
70.216
67.9386
65.7025
63.4809
61.2659
59.1098
56.9647
54.8104
52.6894
50.5792
48.497
46.4144
44.3289
42.2787
40.2162
38.1755
36.1701
34.1479
32.1372
30.1532
28.2028
26.2658
24.3183
22.4059
20.544
18.7007
16.855
15.0107
13.1871
11.3999
9.62299
7.83919
6.08562
4.35618
2.61584
0.861942
111.912
116.377
105.148
90.8166
94.9075
94.1569
93.4233
88.6178
84.8098
82.2543
79.7076
77.2484
74.8585
72.5125
70.2246
67.9465
65.7109
63.4832
61.2612
59.1
56.9645
54.8056
52.6889
50.5892
48.5034
46.4298
44.3396
42.2726
40.2097
38.169
36.1642
34.142
32.1289
30.1553
28.2079
26.2679
24.329
22.4154
20.5471
18.7016
16.8494
14.9969
13.1733
11.3907
9.61817
7.84348
6.10159
4.38081
2.62578
0.864785
106.125
81.0334
57.9456
89.7868
97.7442
96.2044
94.5152
88.8126
84.6927
82.1185
79.6234
77.1929
74.8359
72.5008
70.2052
67.935
65.7024
63.4853
61.2605
59.0851
56.9398
54.8018
52.6855
50.5963
48.5079
46.4265
44.3453
42.2695
40.2107
38.1774
36.158
34.1286
32.1217
30.1604
28.2091
26.2617
24.334
22.4297
20.5491
18.6937
16.8418
14.9874
13.1683
11.3877
9.61358
7.84512
6.10786
4.38048
2.63086
0.873843
104.13
123.264
116.557
96.5359
98.1195
96.2925
93.6144
86.9294
84.3068
81.8231
79.4335
77.0741
74.7625
72.4545
70.1556
67.9204
65.6826
63.4677
61.2701
59.0782
56.9336
54.7975
52.684
50.5976
48.5068
46.4322
44.3476
42.2682
40.2237
38.1851
36.1548
34.126
32.1264
30.1683
28.208
26.2509
24.3338
22.4412
20.5551
18.6886
16.8377
15.0006
13.1819
11.3926
9.61245
7.84743
6.1065
4.36928
2.62914
0.877722
96.431
95.7259
93.5298
92.0512
113.68
96.1869
89.3048
85.264
83.4807
81.4074
79.2117
76.9566
74.6852
72.406
70.14
67.9034
65.6566
63.4498
61.262
59.085
56.9266
54.7909
52.6887
50.5937
48.5133
46.4323
44.3448
42.2662
40.2161
38.183
36.1427
34.1268
32.145
30.1728
28.2003
26.2398
24.3283
22.4442
20.559
18.687
16.8363
15.0085
13.1976
11.3933
9.60887
7.84836
6.09888
4.3576
2.6162
0.878312
94.6982
91.7531
89.3873
98.652
104.127
65.8203
85.3027
84.9236
83.2788
81.2661
79.1235
76.8896
74.624
72.3798
70.124
67.8821
65.6471
63.442
61.2561
59.0889
56.9272
54.792
52.6915
50.5822
48.4986
46.4276
44.3453
42.2684
40.2151
38.1848
36.146
34.1332
32.1607
30.1803
28.1894
26.227
24.3175
22.4399
20.5622
18.6858
16.8374
15.0255
13.2154
11.3954
9.60157
7.85123
6.10029
4.34646
2.60339
0.869402
98.8521
98.8682
93.1125
131.654
98.9919
94.1922
88.4834
85.6562
83.5935
81.4092
79.186
76.924
74.6447
72.3833
70.1228
67.8806
65.6467
63.4428
61.2554
59.0936
56.9387
54.8012
52.693
50.577
48.486
46.4131
44.3419
42.2696
40.2152
38.1877
36.1562
34.1486
32.1689
30.1788
28.1836
26.2196
24.3078
22.4299
20.5616
18.6863
16.8388
15.0356
13.2349
11.404
9.60276
7.84815
6.09487
4.33598
2.5979
0.868886
100.279
162.652
97.0427
147.423
95.9914
85.3226
88.6735
86.2175
83.9607
81.644
79.3348
77.0148
74.7224
72.428
70.1433
67.8968
65.6529
63.4626
61.2804
59.0997
56.944
54.8046
52.6852
50.5767
48.4725
46.3919
44.3288
42.2712
40.2257
38.1914
36.1709
34.161
32.1642
30.1732
28.1857
26.2255
24.3039
22.4151
20.5436
18.6851
16.8449
15.0402
13.2415
11.4238
9.61069
7.83814
6.08238
4.33318
2.59681
0.86821
100.4
176.521
88.3676
91.0141
88.142
92.7804
91.4513
87.058
84.4324
81.925
79.515
77.1157
74.7704
72.4652
70.1727
67.9024
65.6765
63.4866
61.3048
59.1028
56.9495
54.8078
52.6748
50.5718
48.4767
46.3886
44.3196
42.2768
40.232
38.1925
36.1747
34.1603
32.145
30.1599
28.1964
26.2404
24.3016
22.405
20.5403
18.6873
16.853
15.035
13.225
11.4238
9.62038
7.83593
6.07887
4.33553
2.60231
0.868368
78.9898
101.709
112.559
86.4418
88.8643
97.8295
92.6934
87.8296
84.4851
82.0869
79.6202
77.2156
74.8234
72.4917
70.1963
67.9227
65.6856
63.4852
61.2839
59.1075
56.9602
54.8099
52.6831
50.5751
48.4876
46.4011
44.3192
42.2829
40.2292
38.1829
36.1756
34.156
32.1396
30.1548
28.203
26.2569
24.3086
22.4007
20.5404
18.6932
16.8557
15.0225
13.2074
11.4115
9.62644
7.83801
6.07808
4.34232
2.60808
0.864105
110.534
277.256
110.709
122.82
94.2311
92.9634
92.4765
88.1179
84.6793
82.2027
79.693
77.2446
74.8557
72.5086
70.2161
67.9386
65.7025
63.4809
61.2659
59.1097
56.9648
54.8104
52.6893
50.5793
48.4968
46.4145
44.329
42.2787
40.216
38.1755
36.1702
34.1479
32.1366
30.1532
28.2028
26.2658
24.3183
22.4058
20.5441
18.7011
16.8549
15.0103
13.1871
11.3999
9.62298
7.83917
6.08556
4.35612
2.61577
0.861991
117.31
99.2945
98.6779
90.316
94.5748
94.3021
93.4271
88.6175
84.8101
82.2542
79.7075
77.2482
74.8585
72.5125
70.2244
67.9464
65.7109
63.4833
61.2611
59.0999
56.9644
54.8056
52.6886
50.5892
48.5034
46.4299
44.3395
42.2725
40.2097
38.1692
36.1642
34.1415
32.1288
30.1553
28.208
26.2679
24.329
22.4154
20.5471
18.7016
16.8493
14.9965
13.1734
11.3908
9.61804
7.84346
6.10156
4.38083
2.62549
0.864754
113.441
64.0681
51.857
89.7754
97.5327
96.1314
94.5359
88.8104
84.6934
82.1183
79.6234
77.1928
74.8359
72.5008
70.2052
67.935
65.7024
63.4852
61.2604
59.0852
56.9399
54.8018
52.6855
50.5963
48.5076
46.4265
44.3452
42.2695
40.2107
38.1774
36.1581
34.1283
32.1217
30.1604
28.2091
26.2617
24.334
22.4297
20.549
18.6938
16.8418
14.9873
13.1683
11.3877
9.61346
7.84511
6.10796
4.38057
2.63089
0.873945
103.227
104.695
103.881
97.3658
96.9147
96.4662
93.6192
86.9302
84.3068
81.823
79.4334
77.074
74.7625
72.4545
70.1556
67.9204
65.6829
63.4675
61.2701
59.0782
56.9336
54.7975
52.684
50.5975
48.5067
46.4322
44.348
42.2681
40.2235
38.1851
36.1547
34.126
32.1264
30.1683
28.208
26.2509
24.3338
22.4411
20.555
18.6885
16.8376
15.0006
13.1819
11.3926
9.61236
7.84741
6.1065
4.36927
2.62922
0.877773
95.7297
94.3703
95.5576
91.4014
128.83
95.4716
89.2595
85.2642
83.4809
81.4074
79.2117
76.9565
74.6852
72.406
70.14
67.9037
65.6566
63.4491
61.2621
59.0851
56.9265
54.7909
52.6887
50.5937
48.5133
46.4323
44.3446
42.2662
40.2162
38.1831
36.1428
34.1267
32.1454
30.1727
28.2001
26.2399
24.3284
22.4441
20.5589
18.6869
16.8364
15.0085
13.1976
11.3932
9.60883
7.84841
6.09883
4.35758
2.61626
0.878315
94.8123
92.5259
88.7109
98.9737
99.354
64.957
85.3032
84.9241
83.2787
81.2661
79.1236
76.8896
74.624
72.3801
70.124
67.8824
65.6471
63.442
61.2562
59.0888
56.9272
54.7919
52.6915
50.5822
48.4986
46.4275
44.3451
42.2684
40.215
38.1848
36.1458
34.1332
32.1608
30.1802
28.1893
26.2271
24.3175
22.4398
20.5622
18.6858
16.8374
15.0255
13.2154
11.3953
9.60154
7.85124
6.10019
4.34645
2.60347
0.869387
90.9687
90.3299
89.5858
105.629
99.125
94.155
88.4838
85.656
83.5935
81.4091
79.1861
76.9242
74.6445
72.3833
70.1227
67.8804
65.6467
63.4428
61.2554
59.0934
56.9384
54.8012
52.6928
50.5768
48.486
46.4131
44.3417
42.2695
40.2151
38.1873
36.1563
34.1486
32.1688
30.1786
28.1835
26.2196
24.3077
22.4299
20.5616
18.6861
16.8387
15.0356
13.2349
11.4041
9.60281
7.84806
6.09472
4.33591
2.59781
0.868853
102.628
83.5701
92.2588
87.0829
99.3298
107.502
88.6832
86.2167
83.9606
81.6439
79.3347
77.0148
74.7223
72.4279
70.1432
67.8964
65.6528
63.4627
61.2802
59.0995
56.9441
54.8046
52.685
50.5761
48.4726
46.3919
44.3288
42.2711
40.2258
38.1914
36.1709
34.161
32.1641
30.1731
28.1857
26.2254
24.3038
22.4155
20.5435
18.6851
16.845
15.0403
13.2414
11.4229
9.61072
7.83814
6.08226
4.33312
2.59678
0.868025
95.5245
92.6558
80.8274
91.1957
87.1965
92.8233
91.4453
87.0579
84.4332
81.9249
79.5149
77.1156
74.7702
72.4652
70.1726
67.9023
65.6764
63.4861
61.3048
59.1027
56.9493
54.8078
52.6747
50.5717
48.4768
46.3884
44.3195
42.2767
40.232
38.1924
36.1746
34.16
32.1451
30.16
28.1963
26.2404
24.3015
22.405
20.5402
18.6872
16.8533
15.0351
13.2245
11.4236
9.62033
7.83582
6.07878
4.33553
2.60225
0.868072
70.5293
123.735
107.748
97.239
95.427
97.3681
92.6868
87.8312
84.4846
82.0866
79.6201
77.2155
74.8233
72.4917
70.1962
67.9227
65.6855
63.485
61.2839
59.1074
56.9603
54.8099
52.683
50.5751
48.4874
46.4009
44.3193
42.2829
40.2291
38.1828
36.1755
34.1559
32.1396
30.1547
28.203
26.2568
24.3085
22.4008
20.5404
18.6932
16.8557
15.0223
13.2072
11.4116
9.62643
7.83793
6.07799
4.34223
2.60795
0.863771
76.0017
80.5975
122.049
89.2404
97.0432
93.3865
92.472
88.1184
84.6786
82.2031
79.6929
77.2446
74.8555
72.5085
70.216
67.9386
65.7024
63.4808
61.2657
59.1098
56.9648
54.8103
52.6892
50.5793
48.4965
46.4145
44.3291
42.2786
40.2159
38.1754
36.1702
34.1479
32.1365
30.1531
28.2028
26.2657
24.3187
22.4058
20.544
18.7013
16.8548
15.0099
13.1872
11.3999
9.62292
7.83911
6.08572
4.35605
2.61568
0.861904
110.861
99.2695
91.7501
92.5242
92.3982
93.8663
93.4338
88.6179
84.8093
82.2544
79.7073
77.2482
74.8585
72.5124
70.2244
67.9463
65.7108
63.4833
61.2609
59.0996
56.9645
54.8054
52.6885
50.5893
48.5036
46.4299
44.3394
42.2725
40.2097
38.1696
36.1644
34.1414
32.1286
30.1552
28.2081
26.2678
24.329
22.4153
20.547
18.7017
16.8492
14.9961
13.1733
11.3907
9.61784
7.84339
6.10157
4.38083
2.62504
0.864726
102.888
56.513
84.6708
94.4148
97.6147
96.0676
94.5299
88.8092
84.6927
82.1184
79.6233
77.1927
74.8358
72.5007
70.2051
67.9349
65.7023
63.485
61.2604
59.0851
56.9399
54.8017
52.6854
50.5962
48.5074
46.4264
44.3451
42.2697
40.211
38.1774
36.1579
34.1282
32.1216
30.1603
28.2088
26.2615
24.334
22.4296
20.549
18.6938
16.8417
14.9871
13.1683
11.3876
9.61332
7.84504
6.1082
4.38031
2.63086
0.873894
103.471
107.058
106.705
97.5256
95.4461
96.0599
93.6295
86.9297
84.307
81.823
79.4334
77.0739
74.7624
72.4544
70.1555
67.9203
65.6831
63.4672
61.2702
59.0781
56.9335
54.7975
52.6841
50.5975
48.5066
46.4323
44.3479
42.268
40.2235
38.1851
36.1546
34.1256
32.1264
30.1682
28.2079
26.2508
24.3338
22.4408
20.555
18.6886
16.8375
15.0006
13.1819
11.3926
9.61225
7.84735
6.10645
4.36922
2.62919
0.87778
96.8458
95.0361
93.6887
99.0334
102.435
95.0369
89.2682
85.2642
83.4811
81.4073
79.2117
76.9565
74.6851
72.4059
70.1399
67.9038
65.6573
63.4489
61.2621
59.0851
56.9265
54.7908
52.6887
50.5936
48.5131
46.4322
44.3446
42.2661
40.2166
38.1832
36.1427
34.1266
32.1454
30.1727
28.2
26.24
24.3284
22.4439
20.5588
18.6869
16.8364
15.0085
13.1975
11.393
9.60873
7.84836
6.09872
4.35751
2.61628
0.878227
94.442
91.8534
91.9877
101.604
114.351
64.5147
85.3047
84.924
83.2786
81.266
79.1235
76.8895
74.6238
72.3802
70.1239
67.8826
65.647
63.4417
61.2562
59.0887
56.927
54.7918
52.6915
50.5821
48.4985
46.4274
44.3449
42.2684
40.2149
38.1848
36.1457
34.1331
32.1613
30.1801
28.1892
26.2273
24.3175
22.4398
20.5621
18.6857
16.8373
15.0254
13.2154
11.3952
9.60151
7.8512
6.1
4.34629
2.60346
0.869324
89.129
92.9456
90.4684
94.2057
89.1316
93.6928
90.4983
90.1523
94.748
92.2865
86.4154
90.1336
93.1706
92.2944
93.1187
95.7265
93.5124
92.9839
93.1781
94.7658
93.5132
93.136
91.0064
92.0353
95.7681
93.1454
91.1465
92.0238
92.3929
93.7399
93.1531
92.9135
92.4207
93.7603
93.1338
93.5524
95.8252
94.509
94.7886
93.5254
95.5257
94.4806
94.746
96.3275
94.9182
96.294
94.795
96.1458
94.9239
94.8132
98.1554
93.0894
96.6452
94.8211
95.3506
93.1903
91.2013
76.2998
84.3571
95.4104
91.1559
76.8192
84.2785
81.5669
91.0096
87.8566
64.1033
81.5903
91.0101
87.8543
89.1216
93.432
90.4688
94.153
89.127
93.9298
90.5121
90.2648
93.1647
92.2563
112.505
89.8888
93.0989
92.1588
93.1839
94.3726
93.5083
92.7786
93.1645
93.7708
93.5156
93.1444
91.0478
91.9794
97.0258
93.1551
91.853
92.0126
92.3744
93.7141
93.1736
93.4017
92.4136
93.5936
93.148
93.5882
95.8464
94.5806
93.8375
93.5272
95.7187
94.4942
95.0352
96.1308
94.9199
96.0537
94.7008
96.0448
94.9198
94.8188
96.8967
93.1944
96.0957
94.8179
96.3996
93.0423
91.1455
74.2133
84.2624
95.1314
91.1506
72.1772
84.2601
81.5659
91.0184
87.8484
64.5387
81.5375
91.0116
87.848
89.1313
94.1393
90.502
94.1283
89.135
94.4974
90.5044
90.2042
94.0408
92.1717
105.569
90.0875
93.2723
92.2585
93.1598
93.0082
93.52
92.9188
93.145
92.9413
93.5101
93.1616
90.722
91.9939
98.253
93.1647
91.2334
92.0012
92.4194
93.6621
93.195
93.4446
92.3976
95.1194
93.1889
93.557
95.7043
94.5319
93.8984
93.5663
95.7245
94.5024
94.749
96.0439
94.9232
96.098
94.5167
96.1799
94.915
94.8205
96.4495
93.0509
96.3243
94.813
96.6873
93.0001
91.165
72.0296
84.2679
95.5916
91.1987
70.4609
84.3196
81.548
91.0014
87.8538
79.0131
81.5312
90.9935
87.8583
98.548
104.444
96.5361
99.0292
96.8785
103.993
96.0115
93.0439
92.2644
94.6327
94.2217
94.6228
93.0398
92.2369
87.013
89.2001
87.7198
88.4835
87.0209
89.2009
87.7283
100.4
93.9581
93.9786
81.3063
95.4803
92.8443
92.6946
97.4822
92.95
126.529
74.6342
92.9167
114.901
97.2832
87.9624
90.7997
88.5122
88.6928
87.9707
90.7216
88.5209
91.4014
96.3545
104.844
88.2955
92.5764
91.2805
105.855
94.332
93.6525
100.202
92.7884
93.6541
96.4073
94.1892
89.0686
92.7633
89.4409
91.4661
89.0775
92.7284
89.4484
80.9264
87.552
89.3255
89.763
80.2212
87.6364
89.3958
90.1984
93.5914
92.3471
95.9969
93.0418
92.1792
92.417
89.2207
92.399
89.3199
92.6875
89.2328
92.4302
89.3302
91.9069
91.9366
93.2745
94.1447
91.7648
93.2523
93.2433
92.2102
92.1355
92.213
92.8175
92.1308
92.308
92.2543
89.2042
93.0785
89.5968
92.4776
89.209
93.0833
89.6009
94.6129
97.7567
97.0798
94.6812
94.903
97.7242
96.3081
94.067
93.7278
94.7577
94.0438
93.7189
94.6867
94.154
89.7606
94.2614
90.2026
93.4279
89.7647
94.2777
90.21
97.7919
97.0384
96.9817
97.4835
96.8796
97.0763
96.7827
95.7278
95.5791
96.3713
96.2019
95.5404
96.6055
95.7002
90.4798
94.4333
89.9113
94.5331
90.492
94.4769
89.9253
98.4365
112.047
112.603
96.7916
97.452
121.408
98.5556
96.3906
95.7786
98.8064
96.2335
95.7599
98.7135
96.2105
89.8376
90.7233
88.7626
93.6151
89.8447
90.4841
88.772
110.694
115.013
105.64
129.818
118.882
115.809
103.615
92.1467
94.1476
93.9693
96.5281
94.1492
94.7357
92.2019
87.3354
85.1625
85.2796
89.2628
87.3429
85.1558
85.285
77.3156
105.823
91.6537
101.788
94.8004
105.007
91.7848
85.3415
74.3479
93.6137
66.1023
74.2992
96.2504
85.2774
85.1601
87.1603
86.1613
85.3018
85.1657
87.1609
86.168
96.794
103.698
98.0772
99.1449
96.9215
103.314
97.8347
93.0318
92.2835
94.6099
94.1758
93.1665
94.6137
92.2506
87.0196
89.2005
87.7274
88.4836
87.0195
89.2006
87.7272
96.0443
93.0644
92.7494
95.5961
96.5044
102.197
106.241
95.284
95.0626
90.216
93.0818
94.1793
93.8899
91.5085
87.9697
90.7293
88.5198
88.6685
87.969
90.8084
88.5198
91.8233
89.9266
107.514
87.7435
91.6029
89.9436
164.473
93.9814
93.6023
94.4977
92.6685
93.9382
93.6204
96.0592
89.0754
92.7231
89.4452
91.4347
89.0751
92.7163
89.4451
79.8015
87.7035
89.6337
95.1199
131.136
87.9519
89.4841
94.4511
93.8876
101.596
96.4793
94.4319
93.3971
97.9983
89.2312
92.4288
89.3282
92.6961
89.2316
92.4415
89.3283
93.5276
92.2882
93.1946
94.8314
95.1864
92.1748
93.3461
92.2357
92.2201
92.1347
93.0305
92.2902
92.22
92.5341
89.2052
93.083
89.5965
92.4749
89.2049
93.0778
89.5961
95.1342
97.4992
95.6379
98.3798
95.2182
102.102
95.2144
94.1156
93.673
95.0684
93.9079
94.118
93.7103
94.9292
89.7612
94.2815
90.2061
93.4296
89.7614
94.287
90.2062
96.9715
99.4427
96.7303
97.7067
96.961
96.3105
96.6615
95.6279
95.5742
96.1898
96.1015
95.6716
95.597
96.1822
90.4897
94.4799
89.923
94.5325
90.4904
94.4829
89.9233
97.3103
102.636
98.6648
96.3815
97.3921
101.384
98.8223
95.7443
95.7674
100.084
96.2541
97.0038
95.7041
98.1169
89.8419
90.465
88.7708
93.6307
89.8422
90.5527
88.77
107.413
115.855
102.641
113.819
103.775
117.609
90.7543
92.0974
94.1529
93.761
95.31
92.0948
94.1471
93.6085
87.3428
85.1543
85.2832
89.2642
87.3427
85.158
85.2834
96.2677
111.012
91.7836
115.286
56.0239
120.507
92.1698
85.4294
74.2356
86.7057
65.9258
85.4439
74.1911
86.1845
85.164
87.1619
86.1668
85.3047
85.1639
87.1612
86.1667
97.156
103.102
95.4009
100.392
97.3232
103.486
94.6121
93.0758
92.2397
94.5971
94.1414
93.0669
94.6028
92.2266
87.0206
89.2009
87.7279
88.4833
87.0126
89.2007
87.7193
96.2199
96.2481
93.7522
97.7677
96.3112
96.1041
93.8274
94.3502
97.2107
94.0187
106.168
94.0443
96.8813
93.9937
87.9694
90.7999
88.5215
88.7004
87.9606
90.7896
88.5134
91.1514
90.6407
81.7964
87.3581
91.8938
95.4325
32.9652
93.9645
93.5669
92.5034
92.8441
93.9675
93.5781
92.3108
89.0771
92.7254
89.4481
91.5644
89.0684
92.7451
89.4407
124.972
87.6105
92.2751
95.1007
126.03
88.7032
92.3132
92.2993
93.9927
90.9617
98.0471
92.4081
94.7739
90.1201
89.233
92.4289
89.3305
92.6515
89.2212
92.4019
89.3195
93.7705
101.791
94.5256
95.2035
93.6804
101.007
94.4484
92.5359
92.4462
92.0754
93.2716
92.2498
92.2976
92.3673
89.2085
93.0785
89.6005
92.4581
89.2027
93.0727
89.5953
95.1874
97.2855
95.2423
92.2969
95.4385
97.3219
97.0752
94.0868
93.7178
98.9059
93.9895
94.1519
93.7237
98.7428
89.7656
94.2886
90.2099
93.4277
89.7613
94.2743
90.2022
96.7576
96.4756
96.6268
98.802
96.7349
96.3685
98.6114
95.702
95.5716
96.1529
96.0822
95.7
95.5713
96.1362
90.4925
94.478
89.9256
94.4983
90.479
94.4341
89.9119
97.4143
99.156
98.6728
94.1338
98.2352
99.041
98.9953
95.5293
95.7566
96.4223
96.1196
95.5242
95.781
96.4817
89.8453
90.5746
88.7703
93.6258
89.8378
90.7306
88.761
100.216
108.808
88.3231
105.032
99.9275
108.675
78.6562
92.1425
94.3767
94.4103
94.9557
92.1325
94.1326
93.3917
87.3427
85.1619
85.2854
89.3041
87.335
85.1636
85.2802
53.7745
126.308
92.2496
113.071
56.762
124.543
92.7594
85.4699
74.3322
87.0525
104.68
85.5554
74.3961
111.636
85.1655
87.1596
86.1681
85.3043
85.1597
87.1593
86.1616
92.0298
91.3985
89.9085
89.1488
89.915
92.1313
91.3939
93.0378
94.7143
93.163
92.7234
94.7032
93.1839
93.2423
91.8269
90.3692
91.579
90.4893
90.4259
91.5648
92.0343
93.0571
94.2173
92.2433
94.6084
94.6092
93.1357
92.2473
92.0052
89.1433
91.2825
89.896
89.905
92.0129
91.3633
94.2319
93.5133
94.7379
93.2728
95.1004
93.3108
93.5206
92.9333
90.5109
90.4059
91.5394
90.4596
91.5858
92.1927
94.8611
91.3398
91.2746
90.1438
91.1501
91.3672
94.2108
93.8486
95.9033
93.306
93.0267
93.4432
93.3083
93.8253
93.2936
92.0641
93.3027
92.2124
91.9867
93.2781
93.3514
98.1969
88.5955
93.2574
89.2617
93.0591
120.636
94.1722
94.4107
90.0782
91.5361
90.8427
91.3251
91.4708
91.6619
93.8537
93.229
94.8462
93.2878
96.0705
93.2904
93.8079
93.3077
92.2218
91.8859
93.2757
91.9452
93.2683
93.3685
94.0597
93.757
93.5281
93.1247
93.7765
93.6373
94.0437
96.7259
96.0761
94.3615
95.3531
96.4249
94.2794
96.9368
94.6649
94.3904
93.9671
93.5231
94.4046
93.9664
94.6786
93.9923
92.709
93.626
94.6951
93.6271
97.0189
93.9373
94.0254
93.1535
93.777
93.5039
93.7861
93.5177
94.0095
96.7045
95.7084
96.1454
94.2638
96.0987
94.2705
96.6934
94.7374
93.5215
94.4056
93.9862
94.4128
93.9673
94.6715
91.5507
93.0448
92.4371
93.1433
93.084
92.4545
91.6404
91.838
106.579
91.2701
91.0447
95.5279
91.2734
91.8784
91.6698
92.0096
91.8816
92.0496
92.0086
91.8206
91.6129
94.7268
95.5977
93.5829
91.2033
94.2075
92.1313
92.546
93.5171
93.1465
93.0252
92.4523
93.0062
92.4622
91.7508
91.7353
91.3357
95.667
91.2634
96.1455
91.2684
91.8589
91.642
92.0949
92.0073
91.8363
92.0079
91.8188
91.6058
92.4778
92.2452
92.4912
92.3937
92.2179
92.4768
92.479
93.1353
94.0591
93.6709
93.7403
93.8735
93.4356
93.1448
92.9345
92.9096
93.3603
93.1388
92.8881
93.346
92.944
92.2447
92.8621
92.1445
92.1277
92.1197
92.2868
92.2767
92.4315
92.4787
92.2314
92.4758
92.2615
92.5336
92.4321
93.1451
93.7458
93.9233
93.4614
93.8858
93.4482
93.148
92.9379
93.1554
92.8986
93.3521
92.9046
93.3643
92.9248
93.9637
93.6817
93.7949
93.5187
93.6746
93.7901
94.0432
95.1946
95.2063
95.0957
96.0629
95.1261
95.2452
94.9714
94.6666
94.199
94.8956
94.4814
94.1614
94.8462
94.7763
94.068
94.8742
93.7069
94.5647
93.7207
94.5578
94.0996
93.9378
93.5815
93.6915
93.7529
93.7225
93.8826
93.9164
95.1221
95.8119
95.0684
95.112
95.0656
95.2288
94.7425
94.3878
94.5029
94.1412
94.8514
94.2014
94.8553
94.4888
95.2013
95.1093
94.7988
94.8185
95.1006
94.8005
95.2015
95.7441
96.3533
95.7578
96.1972
96.1978
95.7427
95.7459
95.4011
95.0181
95.3604
94.9273
95.0279
95.356
95.3976
95.6698
96.2104
95.6231
96.1726
95.5433
96.3447
95.7359
95.2078
94.7803
95.1118
94.7892
95.1055
94.7939
95.2144
95.738
96.1588
96.1806
95.7408
96.1924
95.7422
95.7405
95.3925
94.9281
95.0255
95.345
95.0398
95.3714
95.395
95.1899
95.3297
94.582
94.825
95.3344
94.5982
95.1972
96.6408
82.5546
93.9807
97.749
81.2363
94.1961
96.9448
95.8399
93.813
94.1829
93.1186
93.8238
94.1962
95.8327
97.0489
96.2039
95.8038
101.796
95.7971
98.3162
97.6172
95.2052
94.8259
95.3225
94.5835
95.3196
94.5914
95.2004
95.9774
95.1534
108.51
95.3893
79.557
95.8262
96.8401
95.7867
93.1569
93.8625
94.1703
93.8221
94.1879
95.7413
89.8941
92.3766
89.3826
91.1828
92.3945
89.2862
89.8865
80.7919
88.1896
82.7924
75.3786
88.4912
82.8147
80.8114
81.3854
83.3749
84.3709
84.2735
83.2323
84.4075
81.4098
92.0677
95.5082
94.1566
94.0442
94.1336
93.6338
92.0855
89.883
91.1656
92.389
89.2232
92.3929
89.2425
89.8811
80.7804
75.5574
87.8283
82.9221
88.3656
82.8395
80.9097
81.3823
84.2692
83.1654
84.4558
83.1854
84.4359
81.4519
88.1888
77.907
85.5846
81.5836
77.837
85.597
88.0038
86.0822
87.8287
88.5695
91.0095
87.8317
86.1289
88.5754
87.2891
86.0495
89.9715
87.8631
86.0544
87.3468
89.8983
85.3827
66.8152
74.2518
86.6319
74.2555
86.5445
85.7169
88.0947
81.5964
77.9767
85.5439
77.8648
85.5774
88.5913
86.0673
91.0042
87.8377
88.5978
87.8372
86.1077
88.5852
87.2491
87.8573
86.0454
89.8662
86.0489
87.1908
89.8777
91.9311
91.3059
89.8923
89.1247
92.0286
89.9075
91.2957
93.2484
94.7568
93.29
93.7288
93.5578
94.7676
93.2414
91.8274
90.371
91.6017
90.4891
92.269
90.4097
91.3955
93.0848
94.1637
92.2496
94.5872
94.6062
93.0707
92.248
92.0216
89.1268
91.2921
89.9168
89.9188
91.9756
91.2917
93.2419
93.7217
94.7339
93.3672
94.7644
93.336
93.2691
91.793
90.5176
90.4131
91.4076
90.4233
91.3647
91.8659
94.1434
92.6356
90.7267
90.0021
92.1715
91.0784
91.4186
93.8794
94.0904
93.2951
93.1639
93.7007
94.148
93.2913
93.3033
91.7613
93.262
92.1421
93.1926
91.8405
93.2411
95.9572
121.423
93.77
98.0056
102.27
97.6122
94.1895
95.5852
89.6334
91.3445
90.6849
102.684
91.6993
92.3854
94.3916
93.2853
95.0124
93.2906
94.5104
93.2903
94.1578
93.7508
92.1656
91.848
93.294
92.0721
93.289
93.4625
93.9977
93.7719
93.5063
93.176
94.0028
93.7659
93.5035
96.5954
96.8129
94.2213
94.1565
96.6153
97.3936
94.1747
94.7767
94.4046
93.9811
93.51
94.7212
94.4063
93.9501
93.8743
92.8426
93.57
92.8282
93.5827
95.8474
93.9476
93.9885
93.1668
93.7265
93.4902
93.7455
93.4969
93.9703
96.5497
94.4853
114.285
94.1181
126.132
94.1276
96.7023
94.9951
93.5144
94.3886
93.9458
94.3963
93.9457
95.0293
91.7527
93.152
92.4481
93.1466
92.2126
93.105
92.4552
92.7009
95.5497
91.2624
91.092
91.5581
95.4636
91.2665
91.579
92.0092
91.8304
92.0122
91.6015
92.0107
91.8496
93.5843
96.9326
93.8028
91.261
93.9771
91.7479
92.438
91.8348
93.1496
93.1294
92.4172
93.1198
92.4399
91.7875
91.2552
91.4311
110.905
91.3194
94.8337
91.3047
91.5749
91.5425
92.0825
91.9976
91.8372
92.0082
91.8275
92.7215
92.4245
92.2379
92.4994
92.4053
92.4643
92.2373
92.4742
93.1759
94.0027
93.4662
93.6739
93.1898
94.1341
93.4777
92.9303
92.9236
93.3449
93.1212
92.9382
92.9071
93.3528
92.24
93.7909
92.2948
92.8012
92.245
92.5804
92.251
92.4402
92.4116
92.2464
92.4701
92.2407
92.5133
92.4388
93.1212
93.6272
93.9974
93.4929
94.199
93.4815
93.0995
92.9377
93.1943
92.9237
93.3456
92.9715
93.3553
92.9331
93.9278
93.6623
93.8339
93.5061
93.9205
93.671
93.799
94.7815
95.1708
95.172
95.7278
94.7797
95.1611
95.1618
94.4401
94.1788
94.8829
94.4945
94.466
94.142
94.8573
94.1531
93.9315
93.7301
94.5668
93.6907
94.9232
94.1441
93.9095
93.5517
93.6825
93.7561
93.7074
93.8135
93.9038
94.76
95.756
95.2626
95.1196
95.272
95.1016
94.7799
94.4523
94.5083
94.3108
94.8505
94.143
94.8726
94.4578
95.2293
95.0945
94.7962
94.695
95.2335
95.1024
94.8021
95.7527
96.1607
95.7388
96.1103
95.7446
96.177
95.7353
95.4016
95.0197
95.3438
94.9174
95.3997
95.0258
95.3454
95.6588
96.0842
95.5562
96.1473
95.5624
96.1685
95.688
95.2482
94.8109
95.0258
94.7992
95.1361
94.81
95.244
95.7517
96.0601
96.2243
95.7358
96.2241
95.734
95.7618
95.4136
94.9178
94.9977
95.3512
95.0224
95.3472
95.4093
95.2289
95.3225
94.5963
94.8191
95.224
95.3231
94.6072
96.5848
111.603
96.3176
97.6843
97.4247
111.301
94.3722
95.7482
93.9546
94.1601
93.1503
95.7857
93.7545
94.1678
95.3798
96.2166
95.7595
96.3329
95.7599
96.1789
95.5263
95.2239
94.8183
95.3298
94.6017
95.3246
94.5981
95.2286
97.7716
96.5259
111.388
97.9332
111.696
94.4683
97.1722
95.7299
93.0824
93.7637
94.164
93.8554
94.1764
95.7095
89.8572
92.3907
89.2109
91.1458
89.8792
92.3952
89.2177
81.1636
86.9552
83.0275
73.0901
81.0146
86.218
83.1361
81.439
83.1306
84.4523
84.2516
81.5107
83.2209
84.4671
92.0997
95.3741
94.0028
93.5439
94.0973
93.6377
92.1123
89.8446
91.1473
92.3992
89.2325
92.3973
89.2286
89.8333
81.2646
72.4186
85.993
83.1689
85.8738
83.1923
81.4165
81.3835
84.2536
83.3133
84.4678
83.2815
84.4892
81.3079
87.7234
77.978
85.5502
81.5456
88.0173
77.9969
85.582
86.0594
87.8673
88.6112
91.0194
86.117
87.9382
88.6211
87.1211
86.0371
89.8609
87.8464
87.1298
86.035
89.8686
85.8277
65.0145
74.2683
88.5532
74.212
86.9629
86.0689
87.5548
81.535
77.9484
85.6341
77.9681
85.6101
87.4994
85.9377
91.0158
88.334
88.6396
88.0939
85.8625
88.6314
87.1492
87.8461
86.0374
89.8714
86.0354
87.1608
89.8729
91.9948
91.3041
89.9159
89.135
91.9932
89.9148
91.2965
93.2491
94.7152
93.3822
94.3286
93.2583
94.7169
93.3957
91.9034
90.4068
91.4717
90.5036
91.901
90.407
91.471
93.0864
94.131
92.2163
94.609
94.6109
93.0661
92.2318
92.0063
89.1437
91.3922
89.9101
89.9205
92.0723
91.3212
93.2489
94.4409
94.7054
93.433
94.7113
93.4228
93.2449
91.9266
90.5137
90.4105
91.5146
90.4186
91.4791
91.9572
92.3796
92.5655
90.6961
90.1962
92.3308
92.2165
91.3146
94.166
94.9905
93.2973
93.2343
94.1626
95.027
93.329
93.4209
91.8371
93.2932
92.1905
93.5021
91.9163
93.3046
96.7479
105.821
97.1948
95.937
97.1183
94.7411
96.5688
93.8227
90.1035
91.9829
91.3156
92.04
91.2723
93.7971
94.1697
93.164
94.0922
93.3351
94.2515
93.2538
94.2188
93.423
92.2197
92.0265
93.2954
91.9423
93.3115
93.4252
93.9737
93.7253
93.4954
93.1549
93.9631
93.7389
93.492
95.0979
97.8721
94.0321
92.2865
95.5458
95.2608
94.0394
95.1507
94.3841
93.9727
93.5212
95.0394
94.3927
93.9488
94.0394
92.8733
93.6537
92.8184
93.5788
92.1534
94.1966
93.9792
93.1567
93.7296
93.4668
93.7461
93.485
93.9763
95.1699
95.1685
96.1609
93.9706
93.4044
93.9691
95.1351
95.2478
93.5217
94.3778
93.9511
94.3891
93.9512
95.1152
91.6471
93.1345
92.4128
93.1656
91.6799
93.1414
92.4312
90.6308
87.3471
91.2899
91.2425
91.509
87.8025
91.361
91.2204
92.0028
91.8557
92.0033
91.4567
92.0179
91.8504
92.5165
98.0448
94.6748
93.1024
94.1354
90.0516
91.7619
92.6596
93.1667
93.1803
92.4311
93.1508
92.448
92.0224
90.6358
91.2355
88.8072
91.3494
88.1862
91.2997
91.0083
91.2663
92.0129
92.0267
91.8666
92.0259
91.8551
91.2639
92.405
92.2451
92.5147
92.3989
92.4072
92.2515
92.4966
93.29
93.8533
93.4922
94.1809
93.2862
93.793
93.5185
92.9398
93.0077
93.3555
93.156
92.9363
92.9222
93.3487
92.9999
93.3825
92.2977
93.5232
92.3399
95.5714
92.5179
92.509
92.398
92.2517
92.4869
92.2564
92.4844
92.4709
93.4717
94.6639
94.5591
93.9433
93.8136
93.5989
93.3479
92.9406
93.159
92.98
93.3533
92.9246
93.3551
92.9424
93.9109
93.7019
93.8773
93.5121
93.9178
93.6795
93.7744
94.7567
95.2414
95.1714
95.7041
94.7506
95.0878
95.1652
94.4532
94.1711
94.8471
94.4836
94.458
94.0925
94.8362
94.1187
93.8861
93.7069
97.0972
93.7073
97.8785
94.1344
93.9194
93.5182
93.6791
93.8066
93.6724
93.7753
93.9293
94.7705
95.7102
98.6654
95.2238
95.2646
95.1645
94.9761
94.4601
94.4845
94.1324
94.8966
94.1099
94.8231
94.5047
95.2377
95.0485
94.8123
94.4998
95.253
95.0534
94.7944
95.764
96.214
95.7196
96.0555
95.7644
96.2292
95.7167
95.407
94.9919
95.3537
94.9224
95.4096
94.9937
95.3521
95.7043
96.0957
95.5708
96.129
95.5597
96.1283
95.7053
95.2424
94.6698
95.0488
94.8194
95.0458
94.8022
95.2775
95.771
96.1617
96.2225
95.7329
96.2171
95.7175
95.7653
95.4083
94.9223
95.0023
95.3527
95.0007
95.3522
95.4157
95.2307
95.3163
94.6003
94.8231
95.2269
95.3267
94.6102
97.3979
111.032
98.6844
96.2872
97.3073
110.8
97.5251
95.7107
93.7701
94.1801
93.0284
95.7028
93.786
94.2068
95.546
96.1814
95.878
96.8693
95.7039