/*--------------------------------*- C++ -*----------------------------------*\
| =========                 |                                                 |
| \\      /  F ield         | OpenFOAM: The Open Source CFD Toolbox           |
|  \\    /   O peration     | Version:  5.0                                   |
|   \\  /    A nd           | Web:      www.OpenFOAM.org                      |
|    \\/     M anipulation  |                                                 |
\*---------------------------------------------------------------------------*/
FoamFile
{
    version     2.0;
    format      ascii;
    class       surfaceScalarField;
    location    "1.5";
    object      phi;
}
// * * * * * * * * * * * * * * * * * * * * * * * * * * * * * * * * * * * * * //

dimensions      [0 3 -1 0 0 0 0];

internalField   nonuniform List<scalar> 
23578
(
-3.49675e-09
-3.0975e-09
5.79137e-09
1.58029e-09
-7.67e-11
-3.1774e-09
1.92749e-10
-1.7593e-09
-2.60652e-09
6.04937e-10
2.85939e-09
1.86934e-10
1.19403e-09
1.2395e-10
-8.52658e-10
3.47479e-10
2.7633e-09
-2.25516e-09
3.43022e-09
-7.96208e-11
-9.60238e-10
3.14743e-11
-1.60101e-09
4.64307e-10
-1.20711e-09
-2.12776e-10
1.81564e-10
-4.01512e-11
1.30193e-11
-4.22263e-11
1.96949e-10
-9.43069e-12
-2.35533e-13
-3.75217e-11
-8.20071e-11
-7.03439e-11
1.27292e-09
-1.13845e-10
-2.90632e-11
-2.30761e-10
-2.33669e-10
-3.92239e-10
-3.92761e-10
1.28748e-09
-7.11841e-11
-2.31004e-12
1.30313e-09
-4.46154e-11
2.74403e-13
1.31454e-09
-2.73962e-11
-1.41441e-13
1.32346e-09
-1.68251e-11
-3.36258e-14
1.32959e-09
-1.03309e-11
1.39935e-13
1.33208e-09
-6.58417e-12
-8.28038e-14
1.33402e-09
-3.934e-12
1.19416e-13
1.33593e-09
-2.91231e-12
4.25384e-14
1.33679e-09
-1.47261e-12
4.33232e-14
1.3374e-09
-9.60241e-13
5.10041e-14
1.33694e-09
5.25952e-13
-1.0583e-12
1.33714e-09
-4.694e-13
-4.73622e-14
1.3379e-09
-1.64933e-14
3.24965e-13
1.33776e-09
5.42282e-14
4.66404e-13
1.33764e-09
3.01946e-13
-2.00485e-13
1.33752e-09
-5.74673e-14
2.06841e-14
1.3379e-09
-1.52872e-12
8.56412e-13
1.33828e-09
-2.44172e-12
5.9287e-13
1.33821e-09
-2.61936e-13
6.56351e-13
1.33821e-09
1.47984e-13
8.90188e-14
1.33809e-09
-4.42931e-13
-2.83975e-12
1.33821e-09
1.49761e-13
-3.60075e-13
1.33748e-09
-8.50203e-13
3.69676e-12
1.33796e-09
-6.5235e-13
2.79932e-12
1.33818e-09
-6.98894e-13
6.82746e-14
1.33892e-09
-2.53086e-12
1.8743e-12
1.33871e-09
3.41815e-13
-1.03839e-14
1.3385e-09
9.22268e-14
4.61678e-13
1.33835e-09
3.14175e-13
4.22307e-14
1.33792e-09
4.50438e-13
-5.27341e-13
1.33979e-09
-2.93869e-12
6.96922e-13
1.33911e-09
4.64809e-13
1.09158e-13
1.33907e-09
6.95654e-14
1.25339e-16
1.33919e-09
-1.27985e-13
-1.84374e-13
1.34053e-09
2.17838e-12
-1.23311e-13
1.33884e-09
3.77534e-12
-1.2258e-12
1.33911e-09
-4.9965e-13
6.84864e-15
1.33926e-09
3.19459e-13
-8.97483e-13
1.33976e-09
-6.37396e-13
2.84784e-14
1.3395e-09
2.30166e-13
1.42676e-13
1.33902e-09
-2.86656e-13
6.0745e-13
1.29413e-12
-1.15502e-12
-2.97507e-10
5.46629e-10
3.00793e-09
1.23935e-08
-7.75293e-08
5.54034e-08
6.66757e-09
-6.18204e-09
4.79522e-09
1.64702e-09
9.38203e-11
-1.00791e-09
3.49113e-10
3.92137e-10
4.10499e-08
-1.29609e-07
1.00792e-07
-1.23246e-08
2.78211e-09
1.20935e-09
-9.96778e-10
6.56993e-10
-3.65166e-09
-2.81788e-09
-3.74077e-09
1.14334e-08
-3.06441e-09
-1.81036e-09
1.56656e-10
-5.37793e-10
-3.24935e-10
-2.00266e-09
2.70872e-09
-7.59601e-10
-6.06593e-10
-1.00466e-09
-8.59556e-10
3.23041e-09
-3.8192e-11
2.70538e-12
1.52457e-10
1.84936e-10
-6.92521e-11
-5.9168e-11
-1.00203e-10
-1.29091e-11
-2.35377e-11
-2.38435e-11
-1.29942e-11
1.31851e-09
-1.6161e-10
-2.22131e-11
-2.17295e-10
-2.52729e-10
-3.45546e-10
-4.33029e-10
1.32325e-09
-7.51504e-11
-9.07922e-13
1.32885e-09
-5.09067e-11
5.54086e-13
1.33179e-09
-3.05468e-11
9.20965e-14
1.33404e-09
-1.92984e-11
9.67142e-14
1.33558e-09
-1.20477e-11
5.8107e-14
1.33646e-09
-7.59632e-12
1.66736e-14
1.33717e-09
-4.76299e-12
1.90035e-14
1.33717e-09
-2.7549e-12
-2.47493e-13
1.33736e-09
-1.73976e-12
-6.30695e-15
1.33823e-09
-1.92535e-12
2.47475e-14
1.33764e-09
-2.16414e-12
3.21578e-12
1.33767e-09
-5.42667e-13
-8.69165e-15
1.33766e-09
-1.21115e-13
7.07814e-14
1.33778e-09
-1.42877e-13
4.97349e-14
1.33815e-09
7.65997e-13
-8.48901e-13
1.33849e-09
4.93223e-13
-8.99602e-13
1.33832e-09
-2.66059e-13
-1.08726e-12
1.33746e-09
-5.36951e-13
-1.02725e-12
1.33779e-09
4.54114e-14
-6.16939e-13
1.33799e-09
1.09455e-14
-2.42576e-14
1.33728e-09
-5.55223e-13
8.60833e-13
1.33743e-09
1.49112e-13
-8.79838e-14
1.33796e-09
2.9028e-13
-1.61204e-12
1.33827e-09
5.50243e-13
-1.4551e-12
1.33895e-09
-3.52856e-12
2.22514e-12
1.3392e-09
-4.39526e-12
1.68423e-12
1.33842e-09
1.12851e-12
6.95883e-14
1.33867e-09
-9.19302e-15
-7.45416e-14
1.33936e-09
-1.88198e-13
-1.15518e-13
1.33948e-09
1.98892e-13
2.0977e-13
1.33795e-09
-8.61202e-13
-4.80203e-13
1.33834e-09
2.80669e-13
-1.39929e-13
1.33849e-09
-2.38602e-14
9.08032e-15
1.33817e-09
2.69439e-13
-2.07806e-14
1.33879e-09
9.15196e-13
6.98526e-13
1.34047e-09
3.33345e-13
1.81811e-12
1.34001e-09
-6.85477e-14
7.26255e-14
1.3398e-09
-7.11437e-14
6.34879e-13
1.33915e-09
-1.16167e-14
5.4266e-14
1.33931e-09
1.4189e-13
-4.88991e-14
1.33929e-09
8.06029e-13
-1.06081e-12
-2.14727e-13
1.21611e-12
3.11216e-09
3.64443e-09
-1.12969e-09
-1.36633e-09
-2.62123e-09
-1.23663e-09
-2.11755e-10
-4.17876e-09
3.23099e-09
-1.07947e-09
3.74197e-09
-7.25788e-09
6.01567e-08
1.02034e-07
-1.56635e-07
6.10279e-09
5.6366e-09
4.23532e-09
-2.09857e-08
5.01091e-09
6.75564e-09
1.81099e-10
-1.86882e-09
5.1565e-09
-9.79105e-09
6.02093e-10
-1.22127e-10
-9.13315e-10
-3.47094e-09
4.82357e-09
3.08637e-09
-1.81848e-09
-2.62052e-09
-4.36173e-10
1.56058e-09
-5.28536e-10
9.41173e-10
-1.53705e-09
-1.13419e-10
1.10253e-11
-2.05093e-11
8.71988e-11
3.57045e-11
1.45851e-09
-1.22277e-11
-4.01738e-11
-2.6935e-10
-2.82364e-10
-4.56946e-10
-4.88114e-10
-1.89872e-11
-2.13506e-11
-3.06504e-11
1.3915e-09
-5.26746e-12
-2.98778e-12
1.36716e-09
-2.66052e-11
-7.21367e-14
1.35341e-09
-1.68339e-11
-7.95856e-14
1.34731e-09
-1.41684e-11
8.63275e-13
1.3437e-09
-8.86444e-12
3.02931e-13
1.34137e-09
-5.37119e-12
-3.69661e-15
1.33999e-09
-3.49316e-12
5.86594e-15
1.33937e-09
-2.31741e-12
9.89927e-14
1.33908e-09
-1.57914e-12
4.83747e-14
1.33835e-09
-3.09056e-12
1.82226e-12
1.3382e-09
4.5458e-13
-2.53315e-12
1.33814e-09
-5.60166e-13
2.97698e-14
1.33836e-09
-1.52963e-13
-2.34856e-13
1.33866e-09
-4.71295e-13
-1.05237e-15
1.33775e-09
-5.626e-14
1.71413e-12
1.33762e-09
-4.40696e-13
1.05882e-12
1.33757e-09
1.05833e-12
-1.26996e-12
1.33734e-09
6.45524e-13
-9.36857e-13
1.33753e-09
6.33571e-14
-1.7776e-13
1.33753e-09
-1.12818e-13
1.58434e-13
1.33789e-09
3.88751e-13
-1.26324e-12
1.33874e-09
1.00175e-12
-1.64494e-12
1.33861e-09
4.80499e-13
-9.21126e-15
1.33963e-09
6.56683e-13
-1.05754e-12
1.33831e-09
-5.97287e-14
-2.07683e-12
1.33785e-09
8.19289e-14
-3.95274e-12
1.33869e-09
6.54843e-13
-2.92394e-13
1.33884e-09
-1.55411e-13
7.79876e-14
1.3388e-09
4.57831e-14
-1.26287e-13
1.33879e-09
5.01386e-14
2.37995e-13
1.33861e-09
-2.59297e-13
-3.50221e-13
1.33857e-09
-1.69177e-13
5.54612e-13
1.3385e-09
1.59504e-13
-4.93003e-14
1.33839e-09
-9.13141e-14
5.29931e-13
1.33862e-09
6.14404e-13
1.23883e-13
1.34046e-09
-1.57077e-12
1.16972e-13
1.33985e-09
3.77796e-13
2.04527e-13
1.33956e-09
9.97006e-14
1.5302e-13
1.33944e-09
2.41927e-13
-9.92238e-14
1.33902e-09
6.1186e-13
-2.41618e-14
1.33916e-09
3.2339e-13
3.52584e-13
-9.988e-13
3.79505e-13
4.45769e-10
-8.74485e-09
-1.41025e-09
9.73429e-09
-1.16992e-08
-2.67709e-09
7.67722e-10
3.11292e-09
-1.22584e-07
4.94002e-08
4.49889e-08
3.86556e-08
1.65111e-09
3.1146e-09
9.1792e-10
-2.28762e-09
-3.39603e-09
-4.33836e-09
5.95571e-09
1.47366e-09
-5.07876e-09
-2.42565e-09
-1.61148e-09
-1.61891e-08
3.14545e-08
2.32054e-08
-2.61187e-08
-2.08958e-09
-2.84264e-09
1.29089e-09
-2.6809e-09
4.89873e-09
1.27111e-09
-2.96003e-09
-1.17309e-09
-2.03672e-09
6.97886e-10
9.36583e-10
2.95558e-10
-2.15846e-10
-1.71417e-09
-9.93725e-11
2.31931e-12
1.32202e-11
-5.0853e-11
1.34686e-10
-3.47298e-11
2.03451e-10
-1.10458e-11
-6.76951e-12
-3.54373e-11
-6.26423e-11
-6.50616e-11
1.37824e-09
-1.72421e-11
-2.15024e-11
-2.50548e-10
-2.55629e-10
-4.1318e-10
-4.25447e-10
1.36815e-09
-1.39859e-11
-2.62327e-12
1.35964e-09
-8.8871e-12
4.64032e-13
1.3521e-09
-5.6773e-12
-1.05589e-12
1.34731e-09
-3.91229e-12
-2.73265e-13
1.34419e-09
-2.39027e-12
3.49643e-14
1.34202e-09
-1.43564e-12
7.80358e-15
1.34048e-09
-8.61399e-13
7.77635e-16
1.3397e-09
-9.69874e-13
8.869e-14
1.33858e-09
-2.83407e-13
-1.75919e-12
1.33882e-09
4.86524e-14
1.1083e-13
1.33841e-09
-3.06444e-14
-1.72863e-13
1.33836e-09
-3.09499e-13
1.59755e-13
1.33816e-09
-3.03085e-13
6.9286e-15
1.33798e-09
1.09991e-12
-9.95059e-13
1.33808e-09
-3.90795e-14
-5.07827e-13
1.33801e-09
-7.53333e-14
1.20862e-12
1.33796e-09
7.47495e-13
-4.02137e-14
1.33799e-09
-5.39269e-14
1.12446e-13
1.33819e-09
6.78512e-13
-9.54068e-13
1.33884e-09
1.24252e-12
-1.46169e-12
1.33791e-09
5.34042e-13
1.4538e-12
1.33809e-09
4.90554e-13
-1.35164e-13
1.3381e-09
4.05165e-13
3.15192e-13
1.33825e-09
-2.08699e-13
6.10812e-14
1.33838e-09
1.26927e-14
1.08759e-14
1.33872e-09
4.01953e-13
-1.25242e-14
1.33865e-09
5.96135e-14
-6.41326e-14
1.3389e-09
-1.01582e-13
-3.51875e-14
1.33885e-09
1.12976e-13
5.99068e-14
1.33859e-09
-3.56478e-13
4.329e-13
1.33884e-09
-4.07975e-13
5.66654e-14
1.3391e-09
-1.17363e-13
8.03845e-14
1.33919e-09
1.31176e-13
-2.53299e-13
1.3395e-09
6.247e-13
-2.61278e-13
1.33891e-09
-1.39662e-12
4.65589e-13
1.33953e-09
2.51277e-13
-4.52182e-13
1.33971e-09
1.01757e-13
-1.50109e-13
1.33977e-09
1.60504e-12
-1.39054e-12
1.33852e-09
1.90917e-12
-2.17492e-14
1.33892e-09
-3.15029e-14
-3.17593e-14
-1.74139e-12
7.40275e-13
-5.76402e-09
-2.88529e-09
8.3536e-09
-7.08153e-10
-6.30373e-10
1.01499e-09
8.10261e-10
5.69823e-09
2.23451e-09
7.14467e-09
-1.63837e-08
1.3061e-09
1.51294e-10
1.11552e-09
1.17331e-09
-3.19522e-09
7.55098e-10
-1.67821e-09
2.1647e-09
2.70092e-09
2.81806e-09
-6.00547e-09
1.96674e-09
-3.66827e-10
-4.51314e-10
-1.89656e-09
7.47962e-10
-1.44069e-11
-2.1645e-10
4.0807e-10
-2.67132e-11
-1.50499e-10
-8.85509e-11
-1.23364e-11
1.92157e-11
-4.62729e-11
1.27944e-10
-3.30127e-11
2.03218e-10
-1.29151e-11
-7.31369e-12
-3.36649e-11
-6.18712e-11
-6.33424e-11
8.90216e-12
1.38944e-09
-1.06521e-11
-2.55175e-11
-2.557e-10
-2.59077e-10
-4.23509e-10
-4.32253e-10
1.37615e-09
1.2168e-12
-1.98125e-12
1.36461e-09
2.13489e-12
4.2689e-13
1.35548e-09
3.13869e-12
2.1167e-13
1.35008e-09
2.42165e-12
-1.03687e-12
1.34626e-09
1.30269e-12
2.31527e-14
1.34299e-09
1.82621e-12
-8.81596e-14
1.34104e-09
1.01594e-12
-5.94119e-15
1.33966e-09
4.20014e-13
-9.29048e-14
1.33894e-09
3.73242e-13
-7.21808e-15
1.33832e-09
5.02381e-13
1.07124e-13
1.33852e-09
-3.49368e-12
3.21207e-12
1.3382e-09
-8.65611e-14
5.76493e-14
1.33815e-09
-4.77213e-13
1.9314e-13
1.33843e-09
3.66952e-13
4.38622e-13
1.33824e-09
-6.83509e-14
2.09289e-13
1.33815e-09
2.02576e-13
-1.78185e-13
1.33838e-09
-2.68895e-13
7.95367e-13
1.33845e-09
-7.14184e-14
-2.83752e-14
1.33849e-09
1.3704e-13
5.43913e-13
1.33771e-09
2.37734e-13
1.82921e-12
1.33783e-09
3.27712e-13
1.36442e-13
1.33858e-09
-8.28703e-14
-1.17256e-13
1.33793e-09
1.60018e-12
-4.85273e-13
1.3383e-09
1.5564e-13
-6.65632e-13
1.3385e-09
-1.56612e-13
4.86028e-14
1.33833e-09
2.47466e-13
3.9079e-13
1.33847e-09
-9.31692e-14
8.89273e-14
1.33834e-09
-2.48174e-13
3.52442e-13
1.33856e-09
3.32974e-14
-6.73043e-14
1.33885e-09
-2.22319e-13
-3.57268e-13
1.33922e-09
-9.20522e-14
-6.16289e-13
1.33901e-09
2.75676e-13
-1.19014e-13
1.33935e-09
5.75752e-13
-7.17559e-13
1.33963e-09
3.32689e-13
6.28025e-14
1.33903e-09
-5.65655e-13
-1.79593e-13
1.33932e-09
-8.03591e-17
3.64757e-15
1.33985e-09
-4.37381e-13
4.5164e-14
1.34011e-09
-1.29763e-12
2.67137e-12
1.33849e-09
3.82097e-12
-2.71566e-13
1.33881e-09
-7.99436e-13
4.71788e-13
-1.5958e-13
-8.48502e-13
3.104e-09
9.71018e-10
-1.3514e-09
-2.53265e-09
-2.89485e-10
-2.78174e-09
2.52282e-09
-4.63893e-09
-5.46886e-10
-1.06668e-11
-2.36834e-10
5.98174e-09
-2.15596e-10
1.16435e-08
-3.3371e-10
1.56574e-09
-2.48817e-10
-3.06249e-10
2.08384e-12
-2.25024e-09
-2.18366e-09
-3.39964e-09
-4.2735e-09
-1.29534e-09
-6.87721e-10
4.34767e-09
1.66447e-09
-3.68707e-09
-2.34252e-10
3.30358e-10
-4.38111e-10
-5.17633e-10
-3.60403e-09
2.63853e-10
7.81332e-09
-3.95551e-09
1.35226e-10
-4.50028e-10
4.11953e-10
9.09357e-11
-1.88088e-10
-1.01191e-10
1.88447e-11
-1.71873e-11
1.40867e-12
9.81246e-11
-3.62446e-11
2.16634e-10
-7.77174e-12
-9.28163e-12
1.06001e-11
-3.62328e-11
-6.89867e-11
-6.87166e-11
1.40548e-09
2.70788e-11
-2.84281e-11
-2.64231e-10
-2.66199e-10
-4.39856e-10
-4.44512e-10
1.38195e-09
2.68819e-11
-2.21057e-12
1.36538e-09
1.82622e-11
3.50465e-13
1.35582e-09
1.27885e-11
-1.93346e-13
1.34883e-09
8.33955e-12
9.72016e-13
1.34453e-09
5.47438e-12
3.09963e-14
1.34252e-09
3.60618e-12
1.32115e-13
1.34106e-09
2.38847e-12
8.03463e-15
1.33982e-09
1.53515e-12
4.6603e-14
1.33904e-09
1.04484e-12
3.92582e-14
1.3388e-09
6.93524e-13
-1.48183e-14
1.3373e-09
9.60392e-13
-2.99886e-12
1.33927e-09
-5.08121e-12
2.98235e-12
1.33816e-09
7.1759e-13
-1.14425e-13
1.33827e-09
5.43682e-13
-3.01657e-13
1.33783e-09
3.61993e-13
1.97495e-15
1.33764e-09
1.58549e-13
2.37708e-13
1.33868e-09
1.15747e-12
-2.45117e-12
1.33868e-09
-6.32485e-15
-3.74646e-14
1.33853e-09
1.71592e-13
1.46462e-13
1.33834e-09
7.95268e-13
-3.24427e-13
1.33719e-09
3.9406e-12
-2.41128e-12
1.33756e-09
-4.28216e-13
3.94209e-14
1.33862e-09
-8.67848e-13
1.46964e-12
1.33835e-09
1.51326e-13
3.4648e-13
1.33824e-09
2.79985e-13
-2.53734e-13
1.33845e-09
8.87412e-13
-7.80008e-13
1.33852e-09
6.93189e-14
-1.57937e-13
1.3388e-09
-2.86677e-13
-1.70243e-13
1.33872e-09
1.53947e-13
3.44081e-14
1.33881e-09
-6.28736e-13
3.93798e-13
1.33936e-09
-7.10263e-13
1.34585e-13
1.33923e-09
3.02354e-13
1.66882e-13
1.3392e-09
4.60096e-13
2.05241e-13
1.33921e-09
4.38688e-13
-6.50095e-14
1.33868e-09
2.6474e-13
-2.48641e-13
1.33867e-09
-1.60112e-13
2.14015e-13
1.3385e-09
-1.34658e-13
-1.01543e-13
1.33839e-09
1.43432e-12
-2.59155e-12
1.34069e-09
1.25156e-12
3.00482e-13
1.34022e-09
-6.19967e-13
3.04351e-13
-8.2752e-13
1.84122e-12
-1.00779e-09
3.7978e-09
-7.28273e-10
-1.87076e-09
-1.06463e-10
5.27672e-11
-7.64406e-09
-1.70601e-09
9.40388e-09
3.53075e-09
-1.80369e-09
-5.40334e-10
1.21561e-08
-1.33428e-08
-4.17521e-09
-5.34567e-10
-5.1703e-09
2.59025e-10
9.62105e-09
3.62416e-09
-9.94779e-10
-1.76269e-09
3.4968e-10
-1.21637e-09
-4.32901e-10
1.28112e-11
1.47479e-10
1.14856e-11
2.61124e-10
-1.59445e-10
2.16873e-11
-3.84837e-11
-4.17778e-11
2.18019e-10
-4.24087e-11
5.5036e-13
2.14631e-10
1.72085e-11
4.66856e-12
-4.02955e-11
-7.95099e-11
-7.48445e-11
1.39762e-09
7.00103e-11
-2.95285e-11
-2.68396e-10
-2.59715e-10
-4.49614e-10
-4.33322e-10
1.37058e-09
5.5752e-11
-1.93582e-12
1.35617e-09
3.22928e-11
2.75491e-13
1.34846e-09
2.04663e-11
-7.63162e-14
1.34417e-09
1.25197e-11
2.89166e-15
1.34175e-09
7.79182e-12
4.33871e-15
1.34036e-09
4.873e-12
3.88381e-14
1.33956e-09
3.07246e-12
3.18558e-14
1.33907e-09
1.92789e-12
1.54108e-14
1.33861e-09
1.63459e-12
-1.97226e-13
1.3387e-09
9.23729e-13
-3.80108e-13
1.33905e-09
5.57796e-13
-1.56568e-16
1.33711e-09
-2.27173e-13
-2.9502e-12
1.33777e-09
1.65692e-13
-1.39227e-13
1.33788e-09
2.46557e-13
1.71872e-13
1.33814e-09
4.87551e-14
3.84011e-14
1.33827e-09
2.42517e-13
-2.01323e-13
1.33753e-09
-5.02884e-13
2.41012e-12
1.33788e-09
-2.33689e-13
-9.41035e-14
1.33849e-09
-4.40093e-13
4.04062e-14
1.33686e-09
5.70743e-12
-3.23993e-12
1.33833e-09
6.35335e-13
1.88919e-12
1.33846e-09
-5.4576e-13
3.76709e-14
1.33825e-09
-2.44814e-13
-3.44948e-13
1.33841e-09
-1.86667e-14
7.89497e-14
1.33843e-09
1.95769e-13
1.41843e-13
1.3387e-09
-1.68138e-13
8.50914e-13
1.33877e-09
4.43602e-14
3.74217e-14
1.33873e-09
-4.96622e-14
-1.24013e-13
1.3389e-09
1.28507e-12
-1.23051e-12
1.33884e-09
-8.4327e-14
-4.16512e-13
1.33929e-09
-1.43558e-12
3.41721e-13
1.33988e-09
-1.12448e-13
-1.01941e-13
1.33886e-09
1.20805e-12
3.22801e-13
1.33865e-09
6.91659e-13
1.82371e-14
1.33853e-09
3.21363e-13
1.15659e-13
1.33865e-09
-3.04021e-13
5.85936e-14
1.33855e-09
-1.35135e-14
1.53128e-14
1.33905e-09
-8.48954e-13
1.81392e-12
1.33958e-09
7.03569e-13
4.31595e-14
1.33984e-09
-3.26442e-14
-8.35032e-13
-1.90692e-13
-1.32418e-12
-8.85164e-10
-4.36604e-09
2.15136e-09
3.29082e-09
-1.66892e-10
-1.00393e-09
2.15804e-09
4.97319e-09
-5.06387e-09
3.61926e-09
-5.33143e-09
-1.30294e-08
5.2825e-08
-8.40241e-08
4.50481e-08
6.52126e-09
2.47938e-09
-2.30302e-09
-2.12485e-09
-5.03087e-11
-3.36406e-09
2.16974e-10
-7.62297e-08
1.18051e-08
-1.80202e-09
6.48485e-08
-2.53601e-09
2.4806e-09
1.30479e-08
-3.52905e-09
-2.49432e-09
-2.87709e-09
-3.02116e-09
-1.07087e-09
1.88378e-09
4.83966e-09
5.01365e-09
-4.1983e-09
-7.49847e-10
-3.62304e-09
-1.40745e-09
-7.46689e-10
-6.74439e-10
1.60402e-10
-4.9769e-10
5.73651e-10
1.87459e-10
1.16138e-10
-2.99676e-10
-5.7757e-10
-1.0129e-10
-1.24035e-11
2.32609e-11
-9.65965e-12
1.00092e-10
1.39648e-09
2.5792e-10
-3.92089e-11
-2.67067e-10
-2.64191e-10
-4.47392e-10
-4.45371e-10
-3.63195e-11
-3.77507e-11
-5.74686e-11
-5.96313e-11
1.34935e-09
1.19956e-10
-2.94902e-12
1.33913e-09
6.62851e-11
-4.40852e-13
1.33573e-09
3.57395e-11
-1.61734e-13
1.33562e-09
2.05283e-11
-6.18897e-14
1.33608e-09
1.19179e-11
3.34183e-14
1.33674e-09
7.01092e-12
1.16292e-14
1.33727e-09
4.2259e-12
2.44899e-14
1.33765e-09
2.59603e-12
1.33499e-14
1.33759e-09
2.03476e-12
-1.26537e-13
1.33787e-09
1.13412e-12
1.5105e-13
1.33774e-09
-8.73781e-13
1.86927e-12
1.33832e-09
-6.28954e-14
-1.84816e-14
1.33798e-09
6.66438e-14
1.3838e-14
1.33787e-09
1.12291e-13
1.30587e-13
1.33789e-09
5.95844e-13
-3.83952e-13
1.33816e-09
-2.41058e-13
9.00426e-15
1.33743e-09
-1.2797e-12
2.2615e-12
1.33756e-09
-4.40811e-13
-1.81144e-13
1.33721e-09
4.58801e-14
1.01084e-13
1.33673e-09
5.17837e-14
2.33103e-14
1.3385e-09
4.70885e-13
3.50472e-12
1.33845e-09
7.88168e-13
-4.98542e-14
1.33923e-09
-3.35632e-12
2.08795e-12
1.33889e-09
1.21445e-13
3.94773e-14
1.33817e-09
1.06946e-12
-2.94624e-13
1.33842e-09
7.40718e-14
-5.44558e-14
1.33869e-09
-3.18841e-14
-3.39368e-13
1.33872e-09
-2.84504e-13
3.77588e-13
1.33858e-09
2.50686e-13
-8.4289e-14
1.33903e-09
-2.18106e-13
1.1241e-12
1.33927e-09
-2.21586e-13
-3.20907e-14
1.33882e-09
-3.66746e-13
-5.53171e-13
1.33844e-09
6.25964e-14
2.71974e-13
1.33938e-09
5.84111e-13
-2.61526e-13
1.33881e-09
1.77857e-12
-4.549e-13
1.33921e-09
1.54355e-13
-1.84758e-13
1.33895e-09
1.03853e-14
-8.0256e-15
1.33848e-09
4.68874e-13
1.65556e-14
1.33914e-09
-1.27017e-12
-2.02818e-13
1.33899e-09
6.22192e-13
2.55443e-13
1.34037e-09
-3.37602e-12
1.97783e-12
-2.35317e-13
-5.26581e-13
4.14455e-09
-6.44766e-09
1.08224e-08
-1.63105e-09
-2.24578e-09
-1.92395e-09
-1.32963e-09
1.26721e-09
-4.23601e-09
5.25481e-10
5.58693e-10
6.86463e-10
1.51006e-09
2.51479e-10
9.74636e-10
2.14678e-09
4.5976e-10
-3.65248e-10
1.83798e-09
-1.09182e-09
8.86306e-10
-1.02787e-09
-8.79171e-10
2.8447e-09
-2.42451e-10
-6.95206e-10
3.1779e-09
-1.53121e-10
5.06023e-10
-2.49681e-10
-3.28112e-09
8.57581e-11
-1.13683e-09
3.17341e-10
3.57089e-10
3.76641e-10
-6.10777e-11
-2.05723e-11
1.90761e-11
3.8989e-11
2.35849e-11
1.13416e-09
3.13185e-11
-1.43213e-11
-1.97961e-10
-1.34397e-10
-3.41176e-10
-2.19755e-10
1.23176e-09
1.99567e-11
2.24601e-12
1.28128e-09
1.55092e-11
1.11849e-12
1.30646e-09
9.97838e-12
4.45562e-13
1.31993e-09
6.74101e-12
1.93885e-13
1.32742e-09
4.26893e-12
4.0719e-14
1.33184e-09
2.41339e-12
6.30526e-14
1.33437e-09
1.50376e-12
9.27206e-14
1.33546e-09
1.18852e-12
2.28111e-13
1.33675e-09
3.93929e-13
2.77537e-13
1.33755e-09
3.49767e-13
-8.63016e-14
1.33766e-09
3.19421e-13
-1.36479e-12
1.33754e-09
-2.87105e-13
2.89686e-13
1.33751e-09
7.60703e-14
-1.35921e-14
1.33749e-09
-7.03689e-14
1.7264e-13
1.33756e-09
3.518e-14
4.70919e-13
1.3371e-09
2.50465e-13
-3.42426e-14
1.33835e-09
1.44441e-13
-2.67447e-12
1.33822e-09
-3.69135e-13
7.39968e-14
1.33792e-09
-3.45958e-13
7.19408e-13
1.33819e-09
-1.0154e-13
-8.75928e-14
1.33853e-09
1.60161e-13
1.91757e-14
1.33859e-09
1.19005e-13
6.59939e-13
1.33775e-09
-3.27479e-13
-2.12885e-12
1.33792e-09
1.46538e-13
-1.33121e-13
1.33886e-09
9.42021e-13
-7.42291e-13
1.3382e-09
-1.45636e-14
8.20828e-13
1.33832e-09
-1.46014e-14
-5.97811e-14
1.33849e-09
4.40842e-15
-3.82687e-13
1.33872e-09
-1.3402e-14
1.01335e-13
1.33917e-09
-5.08318e-13
-8.58026e-14
1.33888e-09
8.96357e-13
-7.5095e-13
1.33903e-09
-3.88552e-13
-6.61062e-14
1.3395e-09
-3.67884e-13
3.10985e-14
1.33908e-09
2.26049e-12
-1.19984e-12
1.33886e-09
1.89855e-12
1.55817e-13
1.3387e-09
3.28503e-13
3.39894e-14
1.33955e-09
-1.38088e-12
5.89951e-13
1.33989e-09
-1.46968e-13
3.12599e-13
1.33872e-09
-1.79087e-14
-5.62048e-14
1.33908e-09
3.94325e-13
-1.08942e-13
1.33889e-09
9.14117e-13
-4.08657e-12
-1.63695e-12
-6.61231e-14
5.95782e-09
-7.28699e-10
8.43477e-10
-2.29179e-09
1.83634e-09
-5.99302e-10
3.96618e-09
-5.8585e-09
-2.58648e-09
1.00228e-08
-7.34371e-10
6.56932e-10
3.63118e-10
-3.96927e-10
-6.2406e-10
9.37034e-13
-2.95661e-09
5.89176e-10
-4.16216e-09
2.9541e-09
3.57549e-09
-7.27882e-11
-6.9247e-09
2.01143e-09
-1.46598e-09
6.45204e-09
2.47745e-11
1.25507e-11
8.2037e-11
-7.65789e-11
-1.03172e-11
-2.37265e-11
4.62999e-11
-5.50391e-11
1.15358e-09
-2.63284e-11
-1.58566e-10
-1.97289e-10
-2.72464e-10
-3.4839e-10
1.23228e-09
-1.81417e-13
1.27613e-09
-4.39072e-15
1.30184e-09
7.31577e-14
1.31604e-09
1.78692e-13
1.32413e-09
-6.58312e-14
1.3302e-09
2.44962e-13
1.33349e-09
-1.64073e-13
1.3355e-09
-7.43446e-14
1.33631e-09
-4.15118e-14
1.33684e-09
-4.95767e-14
1.33776e-09
2.4762e-13
1.33796e-09
-2.86412e-13
1.33716e-09
-2.96423e-13
1.33747e-09
-8.30137e-13
1.3375e-09
-4.31431e-15
1.3378e-09
8.21375e-14
1.33754e-09
7.1591e-13
1.33796e-09
7.28178e-13
1.33803e-09
-6.85625e-13
1.33783e-09
-4.95048e-14
1.33869e-09
2.80757e-12
1.33867e-09
3.58469e-13
1.33836e-09
-1.97889e-12
1.33742e-09
-1.39678e-12
1.33792e-09
1.02776e-12
1.33853e-09
-5.42096e-13
1.33848e-09
9.91518e-14
1.33874e-09
-4.24376e-13
1.33864e-09
6.25753e-14
1.33863e-09
1.77518e-13
1.3393e-09
7.76028e-13
1.33903e-09
1.46517e-13
1.33899e-09
-2.03146e-13
1.34023e-09
1.35895e-12
1.33903e-09
-1.62546e-13
1.33931e-09
-7.06541e-13
1.33886e-09
-5.97003e-13
1.33932e-09
-9.19264e-14
1.33961e-09
-1.32831e-13
1.3402e-09
-2.55589e-13
1.33895e-09
2.36782e-12
1.37565e-13
-4.00692e-09
1.74376e-09
-4.15228e-09
2.49247e-10
7.99957e-09
-3.76817e-10
-3.41472e-09
-3.49441e-09
-4.56933e-13
-5.78394e-10
-1.05646e-09
-3.61918e-10
1.78868e-08
-5.1971e-09
1.75162e-09
-1.12897e-08
5.13208e-10
5.00752e-10
-3.23753e-09
-7.01825e-10
-9.44763e-10
1.98203e-09
5.41102e-10
-4.05942e-09
-6.37201e-10
2.17788e-09
1.809e-09
-7.76089e-10
-2.8497e-09
9.1346e-10
-3.84775e-11
-3.73164e-10
4.13791e-10
-2.98295e-10
1.19631e-11
-1.7322e-10
3.0484e-12
5.82205e-10
-1.13097e-11
-9.67267e-12
-1.56084e-10
-1.77853e-10
-1.65089e-10
2.13559e-09
-1.83422e-10
2.94324e-11
-5.47939e-10
-5.47665e-10
-5.47945e-10
-5.47672e-10
2.15461e-09
-1.15588e-10
2.34214e-12
2.18071e-09
-7.24974e-11
1.6745e-14
2.19857e-09
-4.45592e-11
8.82759e-14
2.21277e-09
-2.73595e-11
-3.8035e-13
2.22251e-09
-1.67589e-11
-7.14975e-14
2.22644e-09
-1.07143e-11
1.86504e-13
2.22959e-09
-6.43839e-12
1.36701e-13
2.23231e-09
-3.87611e-12
-2.12363e-13
2.23383e-09
-2.45731e-12
3.53327e-14
2.23463e-09
-1.82118e-12
1.19883e-13
2.23397e-09
-1.81771e-12
5.48561e-13
2.23443e-09
-7.21082e-13
-3.64262e-13
2.23558e-09
-7.54145e-15
1.47815e-12
2.23522e-09
-2.50079e-13
5.44515e-13
2.23517e-09
-5.12807e-13
1.40113e-13
2.23511e-09
7.65604e-14
-4.38254e-14
2.2356e-09
1.41872e-12
-7.03532e-13
2.23615e-09
-2.78308e-12
1.11855e-12
2.23627e-09
8.99057e-13
3.395e-13
2.23641e-09
1.8472e-13
1.7099e-13
2.23582e-09
-7.56861e-13
-5.05791e-13
2.23607e-09
3.00667e-13
-3.93892e-13
2.23508e-09
5.16133e-12
-1.21889e-12
2.2356e-09
4.16294e-12
-3.00766e-12
2.23634e-09
-9.12794e-13
-4.25724e-13
2.23768e-09
5.70155e-13
5.00885e-13
2.23736e-09
5.90728e-13
-1.94745e-15
2.2369e-09
2.95055e-13
1.28866e-12
2.23651e-09
9.21245e-13
-5.1613e-14
2.23603e-09
-1.25879e-12
7.44211e-13
2.23876e-09
-7.24736e-13
-1.71371e-12
2.23812e-09
8.85566e-13
-2.02899e-13
2.23793e-09
2.47724e-13
2.48627e-14
2.23822e-09
-1.91466e-13
1.13282e-13
2.24024e-09
1.59717e-12
-1.07683e-13
2.23776e-09
4.2973e-12
-3.24224e-12
2.23829e-09
-7.86035e-13
-1.70842e-14
2.23827e-09
-1.6057e-12
7.30612e-13
2.23911e-09
-1.16488e-12
2.26224e-13
2.23879e-09
2.45371e-13
1.96776e-13
2.23781e-09
6.90506e-13
7.49834e-13
-5.49294e-13
-4.31384e-13
-9.07408e-09
-1.59947e-09
-4.51483e-09
1.53082e-08
2.66489e-11
1.40184e-07
-2.88908e-12
5.34962e-09
-1.93649e-10
1.01196e-09
-1.46349e-07
-6.88411e-09
1.30984e-09
1.82895e-09
-1.2645e-09
-1.3559e-09
6.36572e-09
-1.86632e-09
-3.23388e-08
1.61604e-09
3.13431e-09
2.72016e-08
2.2531e-09
3.67988e-09
2.11795e-09
6.10629e-09
-3.7904e-09
4.29824e-09
-1.26146e-09
9.15089e-09
8.8624e-09
-1.10574e-08
-1.03115e-08
-2.78629e-09
-5.00726e-09
-1.44198e-08
1.59626e-09
2.05886e-09
-8.66831e-10
-1.59143e-09
1.32229e-08
-7.47598e-11
-3.49693e-10
3.09224e-11
4.65402e-10
1.60894e-10
-1.8874e-11
-1.96623e-11
1.61825e-11
-5.15807e-11
-5.35672e-11
-5.36555e-11
-5.16092e-11
2.21139e-09
-2.60773e-10
2.22257e-11
-4.86857e-10
-6.02545e-10
-4.86689e-10
-6.02641e-10
2.21296e-09
-1.19254e-10
8.91838e-13
2.22276e-09
-8.14744e-11
-5.41733e-13
2.22684e-09
-4.87514e-11
-7.22405e-14
2.23012e-09
-3.07309e-11
-7.53143e-14
2.23231e-09
-1.91309e-11
-1.28408e-14
2.23354e-09
-1.21679e-11
-6.87666e-15
2.23452e-09
-7.62086e-12
-3.75952e-15
2.2346e-09
-4.69952e-12
3.03391e-13
2.23495e-09
-3.04241e-12
5.70724e-14
2.23598e-09
-2.92765e-12
-5.02393e-14
2.23505e-09
2.00189e-13
2.00146e-12
2.23518e-09
-1.00968e-12
4.95422e-14
2.23532e-09
-1.88266e-13
3.27305e-14
2.23538e-09
-2.20904e-13
-8.54252e-14
2.23591e-09
-2.83659e-12
9.15085e-13
2.23665e-09
-2.2364e-12
6.67629e-13
2.23624e-09
-2.84571e-13
1.05847e-12
2.2349e-09
-1.52597e-13
-2.27617e-12
2.2354e-09
7.58269e-14
-2.25419e-13
2.23576e-09
-7.19583e-14
-3.55952e-14
2.23454e-09
2.94519e-12
-1.51327e-12
2.23477e-09
2.49283e-13
-1.3635e-13
2.23601e-09
5.79432e-13
1.86821e-12
2.23655e-09
8.52086e-13
1.46119e-12
2.23771e-09
-2.66679e-12
2.97335e-12
2.23783e-09
1.52281e-12
7.81481e-13
2.23684e-09
1.13612e-12
6.82579e-13
2.23712e-09
3.16536e-14
6.74241e-14
2.23821e-09
-6.78336e-14
-5.02062e-14
2.23841e-09
-4.30122e-13
-6.52603e-13
2.23622e-09
-5.84703e-13
1.71848e-12
2.23661e-09
4.59658e-13
4.14537e-14
2.23687e-09
9.07271e-14
4.77906e-14
2.23649e-09
3.46578e-13
-5.10511e-14
2.23761e-09
1.40324e-12
-1.0652e-13
2.24008e-09
3.0145e-13
3.44445e-12
2.23943e-09
-7.60932e-15
2.90097e-14
2.2392e-09
-2.17348e-14
-6.479e-13
2.23832e-09
1.02207e-13
-2.71329e-13
2.23846e-09
3.46647e-13
-2.44537e-13
2.23843e-09
1.07524e-12
-1.39358e-12
-3.27287e-13
2.40878e-13
-1.53961e-09
9.52618e-09
-1.51811e-08
3.07704e-09
1.935e-09
3.35883e-10
1.83282e-09
-1.49136e-09
1.198e-09
1.38379e-10
7.76404e-10
3.21078e-10
-8.27702e-10
-2.0723e-09
-1.48256e-09
6.80933e-09
-2.74786e-09
4.75994e-08
2.14147e-09
-5.60056e-09
-4.61421e-08
3.5892e-10
1.6429e-09
1.33886e-09
-7.60291e-09
-2.44528e-08
-1.93482e-09
2.27453e-08
3.91011e-10
3.81719e-10
-7.39246e-10
2.3141e-09
1.96593e-09
3.03176e-09
2.56094e-09
-3.04529e-09
6.33283e-10
1.06536e-09
2.64712e-09
-1.88389e-09
5.83422e-10
2.49829e-09
-4.34703e-10
-3.39389e-11
-1.12973e-11
-3.22661e-10
-1.6957e-09
-1.09273e-10
-1.22159e-10
3.9875e-11
-4.35173e-11
8.5383e-11
1.49691e-10
2.44041e-09
-3.20252e-11
4.06182e-11
-6.37596e-10
-6.78148e-10
-6.37545e-10
-6.78095e-10
-4.33742e-11
-3.20192e-11
-4.33813e-11
2.3267e-09
-1.19618e-11
3.20331e-12
2.28535e-09
-4.05723e-11
1.16303e-13
2.26225e-09
-2.60986e-11
1.23001e-13
2.25159e-09
-1.86371e-11
-8.19722e-13
2.24546e-09
-1.26193e-11
-3.24244e-13
2.24148e-09
-8.46063e-12
3.20995e-14
2.23912e-09
-5.48156e-12
8.47744e-15
2.23801e-09
-3.59421e-12
-8.98592e-14
2.23738e-09
-2.52095e-12
-5.25283e-15
2.23648e-09
-6.44721e-13
2.84928e-13
2.23616e-09
3.25843e-13
-2.45877e-12
2.23611e-09
-9.88298e-13
-5.07028e-14
2.23626e-09
-1.13957e-12
4.89916e-13
2.23682e-09
-8.06246e-13
-2.3543e-14
2.23552e-09
1.36481e-12
-1.21404e-12
2.23523e-09
1.05058e-14
-8.99979e-13
2.2349e-09
-9.00354e-13
-3.04376e-13
2.23468e-09
-9.30941e-13
1.09752e-13
2.23482e-09
-4.00101e-14
-1.29328e-13
2.23473e-09
4.36082e-13
-1.76447e-13
2.23582e-09
-5.08089e-13
1.20921e-12
2.23708e-09
-4.1589e-12
1.63281e-12
2.23693e-09
1.016e-12
-1.6225e-13
2.23874e-09
-2.71413e-12
8.48628e-13
2.23672e-09
1.34968e-13
-2.69641e-12
2.23585e-09
6.45325e-14
-1.46184e-12
2.23703e-09
6.30851e-13
-8.04325e-13
2.23749e-09
-1.55166e-13
-2.32989e-14
2.23733e-09
5.39235e-14
7.60721e-14
2.23745e-09
-2.44289e-13
9.07728e-14
2.23715e-09
-4.60148e-13
-2.10282e-14
2.23687e-09
2.02176e-12
-5.85904e-13
2.2367e-09
1.90136e-13
1.61277e-13
2.2368e-09
7.90866e-13
1.20427e-13
2.23764e-09
1.15204e-12
-3.50182e-13
2.24007e-09
-2.21485e-12
3.05881e-13
2.23935e-09
1.27482e-12
-2.67635e-13
2.23903e-09
7.32436e-13
-2.14569e-13
2.23857e-09
4.34162e-13
8.90599e-14
2.2379e-09
9.31471e-13
1.02611e-13
2.23816e-09
5.09265e-13
6.85766e-13
-1.80966e-12
9.14356e-13
-1.12655e-09
-5.72104e-08
-1.60841e-08
-2.08822e-09
7.66558e-08
-1.37736e-09
1.14785e-07
4.47881e-09
-3.39163e-09
-2.28214e-09
-1.12213e-07
-4.8098e-10
-1.03096e-08
8.58758e-10
8.34584e-10
1.49001e-08
-5.80285e-09
1.62181e-09
1.44371e-08
1.17882e-09
5.23475e-10
-1.57018e-08
-2.05946e-09
-2.67031e-09
-2.72075e-09
2.41823e-09
1.22555e-09
-7.79831e-10
9.62955e-09
1.15533e-08
-1.98868e-08
2.67277e-09
-7.03183e-10
-5.03996e-11
-6.87075e-10
7.40343e-09
-1.4765e-09
3.87944e-10
-7.29687e-10
3.25229e-10
-5.9104e-09
-1.5152e-10
8.92494e-11
-2.13155e-12
3.04573e-11
-6.62334e-11
1.00178e-10
-1.46122e-10
6.09757e-10
-3.42438e-11
3.48588e-12
-3.37068e-12
-1.5202e-10
-1.51603e-10
-1.57919e-10
2.31177e-09
-2.11103e-11
2.1578e-11
-5.78391e-10
-5.94504e-10
-5.7842e-10
-5.94541e-10
2.28518e-09
-1.93682e-11
2.55567e-12
2.27193e-09
-1.21908e-11
-4.25595e-13
2.25912e-09
-8.23935e-12
1.12111e-12
2.25115e-09
-5.48728e-12
3.26878e-13
2.24591e-09
-3.39573e-12
-1.54164e-14
2.24232e-09
-2.09212e-12
-6.4925e-16
2.23978e-09
-1.25266e-12
1.36497e-14
2.23843e-09
-1.13571e-12
-1.1774e-13
2.23665e-09
-3.4047e-13
-4.27385e-13
2.23709e-09
3.48838e-14
-1.62046e-13
2.23647e-09
-3.68617e-13
-2.78786e-13