/*--------------------------------*- C++ -*----------------------------------*\
| =========                 |                                                 |
| \\      /  F ield         | OpenFOAM: The Open Source CFD Toolbox           |
|  \\    /   O peration     | Version:  5.0                                   |
|   \\  /    A nd           | Web:      www.OpenFOAM.org                      |
|    \\/     M anipulation  |                                                 |
\*---------------------------------------------------------------------------*/
FoamFile
{
    version     2.0;
    format      ascii;
    class       volScalarField;
    location    "1.5";
    object      rAU;
}
// * * * * * * * * * * * * * * * * * * * * * * * * * * * * * * * * * * * * * //

dimensions      [-1 3 1 0 0 0 0];

internalField   nonuniform List<scalar> 
7891
(
8.26594e-07
8.96964e-07
5.96807e-07
2.53081e-07
8.11138e-07
6.94289e-07
1.29269e-07
3.92424e-07
3.93666e-07
3.94699e-07
3.95732e-07
3.96764e-07
3.97796e-07
3.98827e-07
3.99858e-07
4.00887e-07
4.01917e-07
4.02945e-07
4.03972e-07
4.05e-07
4.06026e-07
4.07051e-07
4.08076e-07
4.091e-07
4.10123e-07
4.11146e-07
4.12168e-07
4.13188e-07
4.14209e-07
4.15228e-07
4.16247e-07
4.17265e-07
4.18282e-07
4.19298e-07
4.20314e-07
4.21329e-07
4.22343e-07
4.23356e-07
4.24369e-07
4.2538e-07
4.26391e-07
4.27401e-07
4.2841e-07
4.29419e-07
4.30426e-07
4.31432e-07
4.32439e-07
4.33443e-07
4.34447e-07
4.36223e-07
8.16613e-07
6.92193e-07
6.85588e-07
6.42003e-07
5.9707e-07
3.30748e-07
1.29212e-07
3.92423e-07
3.93665e-07
3.94698e-07
3.95732e-07
3.96764e-07
3.97796e-07
3.98827e-07
3.99858e-07
4.00887e-07
4.01917e-07
4.02945e-07
4.03972e-07
4.05e-07
4.06026e-07
4.07051e-07
4.08076e-07
4.091e-07
4.10123e-07
4.11146e-07
4.12168e-07
4.13188e-07
4.14209e-07
4.15228e-07
4.16247e-07
4.17265e-07
4.18282e-07
4.19298e-07
4.20314e-07
4.21329e-07
4.22343e-07
4.23356e-07
4.24369e-07
4.2538e-07
4.26391e-07
4.27401e-07
4.2841e-07
4.29419e-07
4.30426e-07
4.31432e-07
4.32439e-07
4.33443e-07
4.34447e-07
4.36223e-07
8.85159e-07
7.3875e-07
5.69702e-07
8.82049e-07
8.90535e-07
6.90517e-07
3.60845e-08
3.92285e-07
3.93663e-07
3.94697e-07
3.95731e-07
3.96764e-07
3.97795e-07
3.98827e-07
3.99857e-07
4.00887e-07
4.01917e-07
4.02945e-07
4.03972e-07
4.05e-07
4.06026e-07
4.07051e-07
4.08076e-07
4.091e-07
4.10123e-07
4.11146e-07
4.12168e-07
4.13188e-07
4.14209e-07
4.15228e-07
4.16247e-07
4.17265e-07
4.18282e-07
4.19298e-07
4.20314e-07
4.21329e-07
4.22343e-07
4.23356e-07
4.24369e-07
4.2538e-07
4.26391e-07
4.27401e-07
4.2841e-07
4.29419e-07
4.30426e-07
4.31432e-07
4.32439e-07
4.33443e-07
4.34447e-07
4.36223e-07
4.06343e-07
7.90094e-07
4.70015e-07
8.3453e-07
8.7856e-07
6.30913e-07
1.50223e-07
1.29778e-07
3.93453e-07
3.94696e-07
3.95731e-07
3.96763e-07
3.97795e-07
3.98827e-07
3.99857e-07
4.00887e-07
4.01917e-07
4.02945e-07
4.03972e-07
4.05e-07
4.06026e-07
4.07051e-07
4.08076e-07
4.091e-07
4.10123e-07
4.11146e-07
4.12168e-07
4.13188e-07
4.14209e-07
4.15228e-07
4.16247e-07
4.17265e-07
4.18282e-07
4.19298e-07
4.20314e-07
4.21329e-07
4.22343e-07
4.23356e-07
4.24369e-07
4.2538e-07
4.26391e-07
4.27401e-07
4.2841e-07
4.29419e-07
4.30426e-07
4.31432e-07
4.32439e-07
4.33443e-07
4.34447e-07
4.36223e-07
8.59439e-07
5.83028e-07
5.30694e-07
6.78866e-07
8.85455e-07
6.96563e-07
6.94412e-07
1.2972e-07
3.93452e-07
3.94696e-07
3.9573e-07
3.96763e-07
3.97795e-07
3.98827e-07
3.99857e-07
4.00887e-07
4.01916e-07
4.02945e-07
4.03972e-07
4.05e-07
4.06026e-07
4.07051e-07
4.08076e-07
4.091e-07
4.10123e-07
4.11146e-07
4.12168e-07
4.13188e-07
4.14209e-07
4.15228e-07
4.16247e-07
4.17265e-07
4.18282e-07
4.19298e-07
4.20314e-07
4.21329e-07
4.22343e-07
4.23356e-07
4.24369e-07
4.2538e-07
4.26391e-07
4.27401e-07
4.2841e-07
4.29419e-07
4.30426e-07
4.31432e-07
4.32438e-07
4.33443e-07
4.34447e-07
4.36223e-07
8.99239e-07
8.62925e-07
8.51992e-07
8.56797e-07
8.85984e-07
5.87708e-07
6.9648e-07
1.2972e-07
3.93452e-07
3.94696e-07
3.9573e-07
3.96763e-07
3.97795e-07
3.98827e-07
3.99857e-07
4.00887e-07
4.01916e-07
4.02945e-07
4.03972e-07
4.05e-07
4.06026e-07
4.07051e-07
4.08076e-07
4.091e-07
4.10123e-07
4.11146e-07
4.12168e-07
4.13188e-07
4.14209e-07
4.15228e-07
4.16247e-07
4.17265e-07
4.18282e-07
4.19298e-07
4.20314e-07
4.21329e-07
4.22343e-07
4.23356e-07
4.24369e-07
4.2538e-07
4.26391e-07
4.27401e-07
4.2841e-07
4.29419e-07
4.30426e-07
4.31432e-07
4.32439e-07
4.33443e-07
4.34447e-07
4.36223e-07
8.93688e-07
6.26969e-07
4.98559e-07
8.92272e-07
8.91792e-07
6.91201e-07
6.92071e-07
1.29724e-07
3.93451e-07
3.94696e-07
3.9573e-07
3.96763e-07
3.97795e-07
3.98827e-07
3.99857e-07
4.00887e-07
4.01916e-07
4.02945e-07
4.03972e-07
4.05e-07
4.06026e-07
4.07051e-07
4.08076e-07
4.091e-07
4.10123e-07
4.11146e-07
4.12168e-07
4.13188e-07
4.14209e-07
4.15228e-07
4.16247e-07
4.17265e-07
4.18282e-07
4.19298e-07
4.20314e-07
4.21329e-07
4.22343e-07
4.23356e-07
4.24369e-07
4.2538e-07
4.26391e-07
4.27401e-07
4.2841e-07
4.29419e-07
4.30426e-07
4.31432e-07
4.32439e-07
4.33443e-07
4.34447e-07
4.36223e-07
8.89371e-07
7.47301e-07
7.06836e-07
8.80813e-07
8.83271e-07
6.90527e-07
8.66248e-08
3.9228e-07
3.9366e-07
3.94696e-07
3.9573e-07
3.96763e-07
3.97795e-07
3.98827e-07
3.99857e-07
4.00887e-07
4.01917e-07
4.02945e-07
4.03972e-07
4.05e-07
4.06026e-07
4.07051e-07
4.08076e-07
4.091e-07
4.10123e-07
4.11146e-07
4.12168e-07
4.13188e-07
4.14209e-07
4.15228e-07
4.16247e-07
4.17265e-07
4.18282e-07
4.19298e-07
4.20314e-07
4.21329e-07
4.22343e-07
4.23356e-07
4.24369e-07
4.2538e-07
4.26391e-07
4.27401e-07
4.2841e-07
4.29419e-07
4.30426e-07
4.31432e-07
4.32439e-07
4.33443e-07
4.34447e-07
4.36223e-07
9.69675e-07
9.61961e-07
8.76599e-07
4.64067e-07
2.01207e-07
6.83886e-07
3.52343e-08
3.92421e-07
3.93664e-07
3.94697e-07
3.95731e-07
3.96764e-07
3.97795e-07
3.98827e-07
3.99857e-07
4.00887e-07
4.01917e-07
4.02945e-07
4.03972e-07
4.05e-07
4.06026e-07
4.07051e-07
4.08076e-07
4.091e-07
4.10123e-07
4.11146e-07
4.12168e-07
4.13188e-07
4.14209e-07
4.15228e-07
4.16247e-07
4.17265e-07
4.18282e-07
4.19298e-07
4.20314e-07
4.21329e-07
4.22343e-07
4.23356e-07
4.24369e-07
4.2538e-07
4.26391e-07
4.27401e-07
4.2841e-07
4.29419e-07
4.30426e-07
4.31432e-07
4.32439e-07
4.33443e-07
4.34447e-07
4.36223e-07
9.59893e-07
9.54162e-07
6.04012e-07
5.26628e-07
6.68077e-07
6.60366e-07
1.2927e-07
3.92425e-07
3.93666e-07
3.94699e-07
3.95732e-07
3.96764e-07
3.97796e-07
3.98827e-07
3.99858e-07
4.00887e-07
4.01917e-07
4.02945e-07
4.03972e-07
4.05e-07
4.06026e-07
4.07051e-07
4.08076e-07
4.091e-07
4.10123e-07
4.11146e-07
4.12168e-07
4.13188e-07
4.14209e-07
4.15228e-07
4.16247e-07
4.17265e-07
4.18282e-07
4.19298e-07
4.20314e-07
4.21329e-07
4.22343e-07
4.23356e-07
4.24369e-07
4.2538e-07
4.26391e-07
4.27401e-07
4.2841e-07
4.29419e-07
4.30426e-07
4.31432e-07
4.32439e-07
4.33443e-07
4.34447e-07
4.36223e-07
8.6875e-07
9.00549e-07
7.10632e-07
4.81476e-07
9.28218e-07
7.69723e-07
1.83344e-07
5.04907e-07
5.06394e-07
5.07533e-07
5.0867e-07
5.09806e-07
5.10942e-07
5.12075e-07
5.13207e-07
5.14338e-07
5.15466e-07
5.16594e-07
5.1772e-07
5.18843e-07
5.19966e-07
5.21087e-07
5.22206e-07
5.23324e-07
5.2444e-07
5.25554e-07
5.26667e-07
5.27778e-07
5.28887e-07
5.29995e-07
5.31101e-07
5.32205e-07
5.33309e-07
5.3441e-07
5.35509e-07
5.36607e-07
5.37704e-07
5.38798e-07
5.39891e-07
5.40982e-07
5.42071e-07
5.4316e-07
5.44246e-07
5.4533e-07
5.46413e-07
5.47495e-07
5.48574e-07
5.49652e-07
5.50728e-07
5.53043e-07
6.43209e-07
1.85119e-07
5.22805e-07
2.07673e-07
9.13014e-07
5.22726e-07
1.83229e-07
5.04904e-07
5.06391e-07
5.07531e-07
5.08669e-07
5.09806e-07
5.10941e-07
5.12074e-07
5.13207e-07
5.14338e-07
5.15466e-07
5.16594e-07
5.1772e-07
5.18843e-07
5.19966e-07
5.21087e-07
5.22206e-07
5.23324e-07
5.2444e-07
5.25554e-07
5.26667e-07
5.27778e-07
5.28887e-07
5.29995e-07
5.31102e-07
5.32205e-07
5.33308e-07
5.3441e-07
5.35509e-07
5.36607e-07
5.37704e-07
5.38798e-07
5.39891e-07
5.40982e-07
5.42071e-07
5.4316e-07
5.44246e-07
5.4533e-07
5.46413e-07
5.47495e-07
5.48574e-07
5.49652e-07
5.50728e-07
5.53043e-07
9.08234e-07
2.58259e-07
3.94503e-07
8.57018e-07
8.84674e-07
7.52112e-07
5.35106e-08
5.0467e-07
5.06385e-07
5.07527e-07
5.08666e-07
5.09804e-07
5.1094e-07
5.12074e-07
5.13206e-07
5.14337e-07
5.15466e-07
5.16594e-07
5.1772e-07
5.18843e-07
5.19966e-07
5.21087e-07
5.22206e-07
5.23324e-07
5.2444e-07
5.25554e-07
5.26667e-07
5.27778e-07
5.28887e-07
5.29995e-07
5.31102e-07
5.32205e-07
5.33308e-07
5.3441e-07
5.35509e-07
5.36607e-07
5.37704e-07
5.38798e-07
5.39891e-07
5.40982e-07
5.42071e-07
5.4316e-07
5.44246e-07
5.4533e-07
5.46413e-07
5.47495e-07
5.48574e-07
5.49652e-07
5.50728e-07
5.53043e-07
2.30687e-07
4.75221e-07
4.06857e-07
5.57501e-07
9.1054e-07
5.32663e-07
2.10749e-07
1.84064e-07
5.06037e-07
5.07526e-07
5.08666e-07
5.09804e-07
5.1094e-07
5.12073e-07
5.13206e-07
5.14337e-07
5.15466e-07
5.16594e-07
5.1772e-07
5.18843e-07
5.19966e-07
5.21087e-07
5.22206e-07
5.23324e-07
5.2444e-07
5.25554e-07
5.26667e-07
5.27778e-07
5.28887e-07
5.29995e-07
5.31102e-07
5.32205e-07
5.33309e-07
5.3441e-07
5.35509e-07
5.36607e-07
5.37704e-07
5.38798e-07
5.39891e-07
5.40982e-07
5.42071e-07
5.4316e-07
5.44246e-07
5.4533e-07
5.46413e-07
5.47495e-07
5.48574e-07
5.49652e-07
5.50728e-07
5.53043e-07
3.66176e-07
2.47546e-07
5.68848e-07
3.92255e-07
8.12703e-07
7.22688e-07
7.68396e-07
1.83947e-07
5.06034e-07
5.07525e-07
5.08665e-07
5.09803e-07
5.1094e-07
5.12073e-07
5.13206e-07
5.14337e-07
5.15466e-07
5.16594e-07
5.1772e-07
5.18843e-07
5.19966e-07
5.21087e-07
5.22206e-07
5.23324e-07
5.2444e-07
5.25554e-07
5.26667e-07
5.27778e-07
5.28887e-07
5.29995e-07
5.31102e-07
5.32205e-07
5.33309e-07
5.3441e-07
5.35509e-07
5.36607e-07
5.37704e-07
5.38798e-07
5.39891e-07
5.40982e-07
5.42071e-07
5.43159e-07
5.44246e-07
5.4533e-07
5.46413e-07
5.47495e-07
5.48573e-07
5.49652e-07
5.50728e-07
5.53043e-07
9.14144e-07
5.14413e-07
5.77344e-07
8.21259e-07
8.85438e-07
6.36718e-07
7.70899e-07
1.83946e-07
5.06033e-07
5.07525e-07
5.08665e-07
5.09803e-07
5.1094e-07
5.12073e-07
5.13206e-07
5.14337e-07
5.15466e-07
5.16593e-07
5.1772e-07
5.18843e-07
5.19966e-07
5.21087e-07
5.22206e-07
5.23324e-07
5.2444e-07
5.25554e-07
5.26667e-07
5.27778e-07
5.28887e-07
5.29995e-07
5.31102e-07
5.32205e-07
5.33309e-07
5.3441e-07
5.35509e-07
5.36607e-07
5.37704e-07
5.38798e-07
5.39891e-07
5.40982e-07
5.42071e-07
5.4316e-07
5.44246e-07
5.4533e-07
5.46413e-07
5.47495e-07
5.48573e-07
5.49652e-07
5.50728e-07
5.53043e-07
8.71036e-07
4.0913e-07
1.61214e-07
9.1055e-07
9.23968e-07
7.10504e-07
7.62517e-07
1.83944e-07
5.06033e-07
5.07524e-07
5.08664e-07
5.09803e-07
5.1094e-07
5.12073e-07
5.13206e-07
5.14337e-07
5.15466e-07
5.16593e-07
5.1772e-07
5.18843e-07
5.19966e-07
5.21087e-07
5.22206e-07
5.23324e-07
5.2444e-07
5.25554e-07
5.26667e-07
5.27778e-07
5.28887e-07
5.29995e-07
5.31102e-07
5.32205e-07
5.33309e-07
5.3441e-07
5.35509e-07
5.36607e-07
5.37704e-07
5.38798e-07
5.39891e-07
5.40982e-07
5.42071e-07
5.43159e-07
5.44246e-07
5.4533e-07
5.46413e-07
5.47495e-07
5.48574e-07
5.49652e-07
5.50728e-07
5.53043e-07
9.68343e-07
6.69389e-07
6.72074e-07
9.64498e-07
8.59711e-07
7.25271e-07
1.24607e-07
5.04659e-07
5.0638e-07
5.07524e-07
5.08665e-07
5.09803e-07
5.1094e-07
5.12073e-07
5.13206e-07
5.14337e-07
5.15466e-07
5.16594e-07
5.1772e-07
5.18843e-07
5.19966e-07
5.21087e-07
5.22206e-07
5.23324e-07
5.2444e-07
5.25554e-07
5.26667e-07
5.27778e-07
5.28887e-07
5.29995e-07
5.31102e-07
5.32205e-07
5.33309e-07
5.3441e-07
5.35509e-07
5.36607e-07
5.37704e-07
5.38798e-07
5.39891e-07
5.40982e-07
5.42071e-07
5.43159e-07
5.44246e-07
5.4533e-07
5.46413e-07
5.47495e-07
5.48574e-07
5.49652e-07
5.50728e-07
5.53043e-07
9.77268e-07
9.73632e-07
8.32712e-07
9.25582e-07
5.13163e-07
7.37289e-07
5.2037e-08
5.04901e-07
5.06389e-07
5.07529e-07
5.08667e-07
5.09805e-07
5.10941e-07
5.12074e-07
5.13207e-07
5.14338e-07
5.15466e-07
5.16594e-07
5.1772e-07
5.18843e-07
5.19966e-07
5.21087e-07
5.22206e-07
5.23324e-07
5.2444e-07
5.25554e-07
5.26667e-07
5.27778e-07
5.28887e-07
5.29995e-07
5.31102e-07
5.32205e-07
5.33309e-07
5.3441e-07
5.35509e-07
5.36607e-07
5.37704e-07
5.38798e-07
5.39891e-07
5.40982e-07
5.42071e-07
5.43159e-07
5.44246e-07
5.4533e-07
5.46413e-07
5.47495e-07
5.48574e-07
5.49652e-07
5.50728e-07
5.53043e-07
9.70942e-07
9.65206e-07
7.29513e-07
3.49061e-07
5.10909e-07
6.96751e-07
1.83349e-07
5.04909e-07
5.06394e-07
5.07533e-07
5.0867e-07
5.09806e-07
5.10942e-07
5.12075e-07
5.13207e-07
5.14338e-07
5.15466e-07
5.16594e-07
5.1772e-07
5.18843e-07
5.19966e-07
5.21087e-07
5.22206e-07
5.23324e-07
5.2444e-07
5.25554e-07
5.26667e-07
5.27778e-07
5.28887e-07
5.29995e-07
5.31102e-07
5.32205e-07
5.33309e-07
5.3441e-07
5.35509e-07
5.36607e-07
5.37704e-07
5.38798e-07
5.39891e-07
5.40982e-07
5.42071e-07
5.43159e-07
5.44246e-07
5.4533e-07
5.46413e-07
5.47495e-07
5.48574e-07
5.49652e-07
5.50728e-07
5.53043e-07
9.47789e-07
9.16943e-07
8.1163e-07
8.7556e-07
9.11669e-07
7.71603e-07
1.83348e-07
3.92424e-07
3.93666e-07
3.94699e-07
3.95732e-07
3.96764e-07
3.97796e-07
3.98827e-07
3.99858e-07
4.00887e-07
4.01917e-07
4.02945e-07
4.03972e-07
4.05e-07
4.06026e-07
4.07051e-07
4.08076e-07
4.091e-07
4.10123e-07
4.11146e-07
4.12168e-07
4.13188e-07
4.14209e-07
4.15228e-07
4.16247e-07
4.17265e-07
4.18282e-07
4.19298e-07
4.20314e-07
4.21329e-07
4.22343e-07
4.23356e-07
4.24369e-07
4.2538e-07
4.26391e-07
4.27401e-07
4.2841e-07
4.29419e-07
4.30426e-07
4.31432e-07
4.32438e-07
4.33443e-07
4.34447e-07
4.36223e-07
9.14153e-07
9.50004e-07
9.09539e-07
7.59425e-07
8.78491e-07
5.52304e-07
1.83239e-07
3.92423e-07
3.93665e-07
3.94698e-07
3.95732e-07
3.96764e-07
3.97796e-07
3.98827e-07
3.99857e-07
4.00887e-07
4.01917e-07
4.02945e-07
4.03972e-07
4.05e-07
4.06026e-07
4.07051e-07
4.08076e-07
4.091e-07
4.10123e-07
4.11146e-07
4.12168e-07
4.13188e-07
4.14209e-07
4.15228e-07
4.16247e-07
4.17265e-07
4.18282e-07
4.19298e-07
4.20314e-07
4.21329e-07
4.22343e-07
4.23356e-07
4.24369e-07
4.2538e-07
4.26391e-07
4.27401e-07
4.2841e-07
4.29419e-07
4.30426e-07
4.31432e-07
4.32439e-07
4.33443e-07
4.34447e-07
4.36223e-07
6.22535e-07
8.78218e-07
7.64412e-07
8.47337e-07
8.64853e-07
7.56089e-07
5.34239e-08
3.92285e-07
3.93663e-07
3.94697e-07
3.95731e-07
3.96764e-07
3.97795e-07
3.98827e-07
3.99857e-07
4.00887e-07
4.01916e-07
4.02945e-07
4.03972e-07
4.05e-07
4.06026e-07
4.07051e-07
4.08076e-07
4.091e-07
4.10123e-07
4.11146e-07
4.12168e-07
4.13188e-07
4.14209e-07
4.15228e-07
4.16247e-07
4.17265e-07
4.18282e-07
4.19298e-07
4.20314e-07
4.21329e-07
4.22343e-07
4.23356e-07
4.24369e-07
4.2538e-07
4.26391e-07
4.27401e-07
4.2841e-07
4.29419e-07
4.30426e-07
4.31432e-07
4.32439e-07
4.33443e-07
4.34447e-07
4.36223e-07
2.52699e-07
6.78212e-07
7.97135e-07
6.9799e-07
7.1132e-07
6.71091e-07
2.10836e-07
1.84069e-07
3.93453e-07
3.94696e-07
3.95731e-07
3.96763e-07
3.97795e-07
3.98827e-07
3.99857e-07
4.00887e-07
4.01916e-07
4.02945e-07
4.03972e-07
4.05e-07
4.06026e-07
4.07051e-07
4.08076e-07
4.091e-07
4.10123e-07
4.11146e-07
4.12168e-07
4.13188e-07
4.14209e-07
4.15228e-07
4.16247e-07
4.17265e-07
4.18282e-07
4.19298e-07
4.20314e-07
4.21329e-07
4.22343e-07
4.23356e-07
4.24369e-07
4.2538e-07
4.26391e-07
4.27401e-07
4.2841e-07
4.29419e-07
4.30426e-07
4.31432e-07
4.32438e-07
4.33443e-07
4.34447e-07
4.36223e-07
6.60149e-07
6.31111e-07
4.10567e-07
8.03796e-07
4.78487e-07
7.18226e-07
7.68905e-07
1.83952e-07
3.93452e-07
3.94696e-07
3.9573e-07
3.96763e-07
3.97795e-07
3.98827e-07
3.99857e-07
4.00887e-07
4.01916e-07
4.02945e-07
4.03972e-07
4.05e-07
4.06026e-07
4.07051e-07
4.08076e-07
4.091e-07
4.10123e-07
4.11146e-07
4.12168e-07
4.13188e-07
4.14209e-07
4.15228e-07
4.16247e-07
4.17265e-07
4.18282e-07
4.19298e-07
4.20314e-07
4.21329e-07
4.22343e-07
4.23356e-07
4.24369e-07
4.2538e-07
4.26391e-07
4.27401e-07
4.2841e-07
4.29419e-07
4.30426e-07
4.31432e-07
4.32438e-07
4.33443e-07
4.34447e-07
4.36223e-07
9.63979e-07
9.28724e-07
8.44268e-07
7.35462e-07
8.99138e-07
5.99257e-07
7.70166e-07
1.83951e-07
3.93452e-07
3.94696e-07
3.9573e-07
3.96763e-07
3.97795e-07
3.98827e-07
3.99857e-07
4.00887e-07
4.01916e-07
4.02945e-07
4.03972e-07
4.05e-07
4.06026e-07
4.07051e-07
4.08076e-07
4.091e-07
4.10123e-07
4.11146e-07
4.12168e-07
4.13188e-07
4.14209e-07
4.15228e-07
4.16247e-07
4.17265e-07
4.18282e-07
4.19298e-07
4.20314e-07
4.21329e-07
4.22343e-07
4.23356e-07
4.24369e-07
4.2538e-07
4.26391e-07
4.27401e-07
4.2841e-07
4.29419e-07
4.30426e-07
4.31432e-07
4.32438e-07
4.33443e-07
4.34447e-07
4.36223e-07
9.5188e-07
7.68945e-07
1.16972e-07
9.42965e-07
9.04323e-07
7.0985e-07
7.62526e-07
1.83949e-07
3.93451e-07
3.94696e-07
3.9573e-07
3.96763e-07
3.97795e-07
3.98827e-07
3.99857e-07
4.00887e-07
4.01916e-07
4.02945e-07
4.03972e-07
4.05e-07
4.06026e-07
4.07051e-07
4.08076e-07
4.091e-07
4.10123e-07
4.11146e-07
4.12168e-07
4.13188e-07
4.14209e-07
4.15228e-07
4.16247e-07
4.17265e-07
4.18282e-07
4.19298e-07
4.20314e-07
4.21329e-07
4.22343e-07
4.23356e-07
4.24369e-07
4.2538e-07
4.26391e-07
4.27401e-07
4.2841e-07
4.29419e-07
4.30426e-07
4.31432e-07
4.32439e-07
4.33443e-07
4.34447e-07
4.36223e-07
9.66063e-07
8.37969e-07
8.40425e-07
9.71629e-07
9.00368e-07
7.28968e-07
1.24507e-07
3.9228e-07
3.9366e-07
3.94696e-07
3.9573e-07
3.96763e-07
3.97795e-07
3.98827e-07
3.99857e-07
4.00887e-07
4.01916e-07
4.02945e-07
4.03972e-07
4.05e-07
4.06026e-07
4.07051e-07
4.08076e-07
4.091e-07
4.10123e-07
4.11146e-07
4.12168e-07
4.13188e-07
4.14209e-07
4.15228e-07
4.16247e-07
4.17265e-07
4.18282e-07
4.19298e-07
4.20314e-07
4.21329e-07
4.22343e-07
4.23356e-07
4.24369e-07
4.2538e-07
4.26391e-07
4.27401e-07
4.2841e-07
4.29419e-07
4.30426e-07
4.31432e-07
4.32438e-07
4.33443e-07
4.34447e-07
4.36223e-07
9.6429e-07
9.66323e-07
9.59079e-07
8.85339e-07
8.60652e-07
7.50122e-07
5.20163e-08
3.92421e-07
3.93664e-07
3.94697e-07
3.95731e-07
3.96764e-07
3.97795e-07
3.98827e-07
3.99857e-07
4.00887e-07
4.01916e-07
4.02945e-07
4.03972e-07
4.05e-07
4.06026e-07
4.07051e-07
4.08076e-07
4.091e-07
4.10123e-07
4.11146e-07
4.12168e-07
4.13188e-07
4.14209e-07
4.15228e-07
4.16247e-07
4.17265e-07
4.18282e-07
4.19298e-07
4.20314e-07
4.21329e-07
4.22343e-07
4.23356e-07
4.24369e-07
4.2538e-07
4.26391e-07
4.27401e-07
4.2841e-07
4.29419e-07
4.30426e-07
4.31432e-07
4.32438e-07
4.33443e-07
4.34447e-07
4.36223e-07
9.63475e-07
9.59904e-07
9.56878e-07
8.0584e-07
3.56368e-07
7.17838e-07
1.8335e-07
3.92425e-07
3.93666e-07
3.94699e-07
3.95732e-07
3.96764e-07
3.97796e-07
3.98827e-07
3.99857e-07
4.00887e-07
4.01917e-07
4.02945e-07
4.03972e-07
4.05e-07
4.06026e-07
4.07051e-07
4.08076e-07
4.091e-07
4.10123e-07
4.11146e-07
4.12168e-07
4.13188e-07
4.14209e-07
4.15228e-07
4.16247e-07
4.17265e-07
4.18282e-07
4.19298e-07
4.20314e-07
4.21329e-07
4.22343e-07
4.23356e-07
4.24369e-07
4.2538e-07
4.26391e-07
4.27401e-07
4.2841e-07
4.29419e-07
4.30426e-07
4.31432e-07
4.32438e-07
4.33443e-07
4.34447e-07
4.36223e-07
3.51465e-08
6.9073e-07
3.51559e-08
7.65921e-07
5.17931e-08
7.16634e-07
5.18129e-08
3.51676e-08
6.87356e-07
5.64048e-08
4.85836e-07
5.18383e-08
6.93918e-07
8.35041e-08
9.12024e-08
6.81508e-07
6.94923e-07
7.49529e-07
1.30934e-07
7.59773e-07
7.69647e-07
6.97656e-07
6.63293e-07
7.01374e-07
5.66191e-07
7.69641e-07
7.19953e-07
7.73399e-07
6.98883e-07
6.67707e-07
7.0025e-07
7.36772e-07
7.73462e-07
7.26459e-07
7.76509e-07
6.99298e-07
6.71392e-07
7.009e-07
6.47059e-07
7.76406e-07
7.46411e-07
7.76109e-07
7.00472e-07
6.69595e-07
6.9746e-07
7.35452e-07
7.72085e-07
6.73443e-07
7.72694e-07
6.94997e-07
5.3626e-07
9.60532e-08
7.24942e-07
7.67809e-07
5.52975e-07
1.39011e-07
6.71593e-08
6.56164e-07
3.54299e-08
7.45154e-07
9.77373e-08
6.21038e-07
5.24434e-08
3.51576e-08
6.93531e-07
3.51444e-08
7.07615e-07
5.18176e-08
7.63124e-07
5.17895e-08
5.17934e-08
7.46985e-07
5.18144e-08
7.70566e-07
5.17936e-08
7.51231e-07
5.1812e-08
5.18283e-08
6.95215e-07
8.34671e-08
3.60805e-07
5.18344e-08
7.45496e-07
8.2449e-08
1.31219e-07
7.44269e-07
7.69659e-07
7.47567e-07
1.3191e-07
7.55684e-07
7.6986e-07
7.6987e-07
7.13338e-07
7.72564e-07
6.08309e-07
7.68782e-07
6.86465e-07
7.75758e-07
7.7357e-07
7.1838e-07
7.75537e-07
7.13338e-07
7.72704e-07
6.87879e-07
7.77768e-07
7.76344e-07
7.62148e-07
7.75117e-07
6.17221e-07
7.75655e-07
7.72492e-07
7.77591e-07
7.69997e-07
6.71642e-07
7.72183e-07
6.82206e-07
7.70845e-07
6.66782e-07
7.71931e-07
7.66223e-07
5.51819e-07
1.39543e-07
7.16119e-07
7.65492e-07
5.67387e-07
1.39712e-07
9.78154e-08
6.28166e-07
5.24516e-08
7.48871e-07
9.77697e-08
7.21318e-07
5.24393e-08
5.18172e-08
7.57437e-07
5.17896e-08
7.1336e-07
5.18178e-08
7.50283e-07
5.17898e-08
5.17934e-08
7.5839e-07
5.18122e-08
6.96836e-07
3.51462e-08
6.93596e-07
3.51542e-08
5.18579e-08
7.44149e-07
8.24023e-08
6.87873e-07
3.51678e-08
6.94835e-07
5.63592e-08
1.31994e-07
7.50195e-07
7.70169e-07
6.90033e-07
9.20717e-08
6.88328e-07
6.94742e-07
7.68956e-07
7.04299e-07
7.74424e-07
6.82868e-07
6.95648e-07
6.68254e-07
7.01037e-07
7.73014e-07
7.04885e-07
7.76847e-07
6.91471e-07
6.99665e-07
6.81737e-07
6.99772e-07
7.75961e-07
7.60521e-07
7.76751e-07
5.31173e-07
6.99505e-07
6.87594e-07
7.01203e-07
7.69074e-07
6.68592e-07
7.7184e-07
6.73105e-07
6.99975e-07
6.51767e-07
6.97017e-07
7.66627e-07
5.96639e-07
1.39844e-07
6.88569e-07
6.94959e-07
6.27222e-07
9.81607e-08
9.76732e-08
7.34817e-07
5.24304e-08
5.87853e-07
6.71195e-08
6.97136e-07
3.54478e-08
5.18179e-08
7.61486e-07
5.17896e-08
6.84224e-07
3.51577e-08
6.87267e-07
3.51444e-08
7.49926e-07
8.18828e-07
7.94739e-07
8.83714e-07
8.51245e-07
9.01089e-07
8.7796e-07
2.24441e-07
1.60407e-07
6.95901e-07
7.67569e-07
7.71656e-07
1.62788e-07
2.25455e-07
1.29658e-07
1.29269e-07
1.29658e-07
1.83348e-07
1.84018e-07
1.8335e-07
1.84018e-07
5.87703e-07
8.48086e-07
8.28035e-07
5.39762e-07
7.73244e-07
8.91571e-07
8.674e-07
5.10576e-07
4.06331e-07
2.38702e-07
4.74112e-07
4.86945e-07
4.37125e-07
4.02846e-07
1.29659e-07
3.51763e-08
1.29567e-07
1.83232e-07
1.8402e-07
5.18284e-08
1.83832e-07
6.71349e-07
6.73318e-07
8.71091e-07
9.00526e-07
7.64005e-07
8.18911e-07
9.06968e-07
7.16448e-07
6.97094e-07
3.15248e-07
7.45654e-07
7.687e-07
4.27096e-07
6.42915e-07
1.29566e-07
8.50037e-08
1.2951e-07
5.34654e-08
1.83831e-07
1.22481e-07
1.83718e-07
8.60312e-07
8.82923e-07
8.83315e-07
8.98807e-07
8.29172e-07
8.90094e-07
8.78038e-07
3.89496e-07
5.58439e-07
2.47243e-07
6.85244e-07
6.78018e-07
3.24889e-07
3.36118e-07
3.52933e-08
6.91544e-07
3.52761e-08
2.10451e-07
5.20162e-08
7.62525e-07
5.19787e-08
8.91299e-07
8.84027e-07
8.8898e-07
9.01581e-07
9.02121e-07
9.05003e-07
9.08945e-07
7.69302e-07
6.97311e-07
6.81934e-07
7.63633e-07
7.70632e-07
7.4507e-07
6.96738e-07
3.52763e-08
6.95952e-07
3.52772e-08
7.68486e-07
5.19799e-08
7.70799e-07
5.19817e-08
7.52747e-07
7.46929e-07
7.60375e-07
8.65522e-07
8.05122e-07
8.40198e-07
8.59736e-07
7.53872e-07
6.9483e-07
6.12087e-07
6.43621e-07
7.66934e-07
6.80927e-07
6.92216e-07
3.52775e-08
6.94125e-07
3.52762e-08
7.71223e-07
5.19823e-08
7.68545e-07
5.19792e-08
8.8079e-07
8.87658e-07
8.7759e-07
8.71792e-07
8.92528e-07
9.02852e-07
9.25127e-07
7.71749e-07
6.96938e-07
6.98385e-07
7.50951e-07
7.67153e-07
7.70639e-07
6.98415e-07
3.5276e-08
1.33559e-07
3.52932e-08
7.60963e-07
5.19781e-08
1.8732e-07
5.20156e-08
8.76048e-07
6.27297e-07
3.97309e-07
8.86493e-07
9.00909e-07
7.952e-07
6.95952e-07
7.07141e-07
6.86388e-07
6.89552e-07
7.56899e-07
7.67384e-07
6.96519e-07
6.44592e-07
1.29509e-07
3.65912e-08
1.29565e-07
1.24586e-07
1.83715e-07
5.41859e-08
1.83825e-07
6.04929e-07
4.90489e-07
3.58191e-07
3.35089e-07
3.66253e-07
5.79146e-07
1.53186e-07
7.49741e-07
6.97768e-07
6.61431e-07
7.34617e-07
7.72328e-07
7.2611e-07
6.867e-07
1.29566e-07
1.29222e-07
1.29659e-07
5.20166e-08
1.83829e-07
1.83256e-07
1.8402e-07
6.42519e-07
8.8848e-07
6.51032e-07
5.7678e-07
3.956e-07
7.67598e-07
7.34398e-07
3.04698e-07
6.76463e-07
3.64318e-07
7.18151e-07
7.35714e-07
4.22608e-07
2.27826e-07
1.29659e-07
1.29269e-07
1.29658e-07
1.83352e-07
1.84021e-07
1.83348e-07
1.84019e-07
8.70729e-07
8.86075e-07
8.75186e-07
8.87582e-07
9.04648e-07
8.5426e-07
8.91063e-07
2.28244e-07
2.22498e-07
7.67431e-07
7.70426e-07
2.24014e-07
7.66801e-07
2.22795e-07
1.84014e-07
1.83347e-07
1.84014e-07
1.83344e-07
1.84014e-07
1.83346e-07
1.84014e-07
8.51778e-07
9.13958e-07
9.2543e-07
8.37487e-07
8.95383e-07
8.22966e-07
8.87536e-07
3.44567e-07
5.01511e-07
2.65969e-07
4.96427e-07
3.65156e-07
4.50012e-07
2.47845e-07
1.84016e-07
5.18281e-08
1.83827e-07
1.83231e-07
1.84016e-07
5.18229e-08
1.83827e-07
7.83371e-07
7.46896e-07
7.52849e-07
9.12093e-07
8.58381e-07
3.75715e-07
3.7304e-07
7.50063e-07
7.67005e-07
5.89342e-07
7.47766e-07
7.37626e-07
7.64291e-07
6.39526e-07
1.83826e-07
1.22529e-07
1.83713e-07
5.34792e-08
1.83826e-07
1.22474e-07
1.83713e-07
6.68249e-07
9.24769e-07
9.01151e-07
5.29296e-07
2.83447e-07
9.13743e-07
6.98302e-07
3.76752e-07
6.93321e-07
3.86054e-07
5.28271e-07
3.80526e-07
7.09534e-07
3.62325e-07
5.20157e-08
7.64169e-07
5.19781e-08
2.11149e-07
5.20157e-08
7.6267e-07
5.19782e-08
9.21181e-07
9.31598e-07
8.69584e-07
6.92523e-07
7.90408e-07
7.11934e-07
8.8536e-07
7.5064e-07
7.53934e-07
7.31712e-07
7.2577e-07
7.51288e-07
7.54857e-07
6.34168e-07
5.19795e-08
7.70919e-07
5.19813e-08
7.68736e-07
5.19795e-08
7.70588e-07
5.19813e-08
7.63019e-07
8.88519e-07
8.07846e-07
8.75714e-07
7.36049e-07
8.95124e-07
8.53497e-07
7.42943e-07
7.56085e-07
5.61796e-07
6.19305e-07
7.39955e-07
7.52541e-07
5.44445e-07
5.19819e-08
7.67043e-07
5.19787e-08
7.69862e-07
5.19819e-08
7.67341e-07
5.19787e-08
8.75422e-07
9.13253e-07
8.49143e-07
8.61213e-07
9.15307e-07
9.25612e-07
9.14478e-07
7.60329e-07
7.63274e-07
7.31627e-07
6.961e-07
7.61473e-07
7.63453e-07
7.43159e-07
5.19774e-08
1.8739e-07
5.20149e-08
7.64704e-07
5.19775e-08
1.8732e-07
5.2015e-08
8.36124e-07
8.45512e-07
7.95464e-07
8.56705e-07
7.7697e-07
8.85631e-07
7.94198e-07
6.70867e-07
7.58831e-07
5.77244e-07
7.40826e-07
6.70296e-07
7.62166e-07
5.76123e-07
1.8371e-07
5.41839e-08
1.83819e-07
1.24559e-07
1.83709e-07
5.39774e-08
1.83819e-07
4.31344e-07
5.54047e-07
2.87474e-07
6.18962e-07
3.87173e-07
7.29178e-07
5.66556e-07
7.56184e-07
7.59498e-07
7.06161e-07
7.36842e-07
7.57686e-07
7.57285e-07
6.8417e-07
1.83824e-07
1.83253e-07
1.84016e-07
5.20365e-08
1.83824e-07
1.83252e-07
1.84016e-07
2.15372e-07
3.0092e-07
7.11781e-07
2.18868e-07
5.31464e-07
1.43069e-07
7.20517e-07
2.99211e-07
7.33633e-07
6.43596e-07
6.91108e-07
2.8887e-07
7.35893e-07
7.18146e-07
1.84017e-07
1.83343e-07
1.84015e-07
1.83347e-07
1.84017e-07
1.83344e-07
1.84015e-07
9.25348e-07
9.11902e-07
8.9397e-07
8.73625e-07
8.95838e-07
8.73174e-07
8.99194e-07
2.30689e-07
2.23323e-07
7.71707e-07
7.71994e-07
2.30723e-07
7.70687e-07
2.24291e-07
1.84018e-07
1.8335e-07
1.84018e-07
1.29269e-07
1.29658e-07
1.2927e-07
1.29658e-07
9.01819e-07
8.85452e-07
9.06181e-07
8.83109e-07
8.73852e-07
8.62485e-07
8.90808e-07
4.26724e-07
6.08889e-07
2.6055e-07
7.27896e-07
3.77466e-07
6.63885e-07
3.44697e-07
1.8402e-07
5.18224e-08
1.83832e-07
1.29214e-07
1.29659e-07
3.5176e-08
1.29567e-07
8.65512e-07
3.26437e-07
3.20903e-07
8.70025e-07
8.80026e-07
2.6278e-07
4.53954e-07
7.66487e-07
7.67327e-07
7.4322e-07
7.71876e-07
7.65726e-07
7.69974e-07
7.23277e-07
1.83831e-07
1.22391e-07
1.83718e-07
3.6096e-08
1.29567e-07
8.48883e-08
1.2951e-07
3.76613e-07
9.00025e-07
6.86496e-07
6.58245e-07
6.06421e-07
8.10399e-07
6.76278e-07
5.505e-07
7.2875e-07
3.98739e-07
7.01999e-07
4.55133e-07
7.52602e-07
4.24517e-07
5.20162e-08
7.64016e-07
5.19787e-08
1.5086e-07
3.52924e-08
6.92096e-07
3.52761e-08
8.88792e-07
4.08614e-07
7.08697e-07
5.75984e-07
8.52438e-07
6.31671e-07
8.23414e-07
7.66609e-07
7.61447e-07
6.72883e-07
7.46742e-07
7.64388e-07
7.62885e-07
6.74824e-07
5.19799e-08
7.70589e-07
5.19817e-08
6.94349e-07
3.52764e-08
6.95984e-07
3.52773e-08
7.71488e-07
9.04052e-07
8.30483e-07
8.82228e-07
6.87393e-07
8.62974e-07
7.08759e-07
7.4953e-07
7.62975e-07
4.45155e-07
5.88904e-07
7.55359e-07
7.66788e-07
4.59839e-07
5.19822e-08
7.67859e-07
5.19792e-08
6.96461e-07
3.52775e-08
6.9418e-07
3.52763e-08
9.2118e-07
8.6524e-07
8.64325e-07
8.95042e-07
8.90716e-07
8.95882e-07
8.104e-07
7.6068e-07
7.6254e-07
7.507e-07
7.24905e-07
7.58466e-07
7.64958e-07
7.56602e-07
5.19781e-08
1.87304e-07
5.20155e-08
6.92052e-07
3.5276e-08
1.33495e-07
3.52933e-08
7.32885e-07
8.83707e-07
8.04721e-07
8.52715e-07
6.51444e-07
8.90895e-07
7.90674e-07
6.74222e-07
7.62114e-07
6.14152e-07
7.34529e-07
6.70779e-07
7.63758e-07
6.28683e-07
1.83715e-07
5.38643e-08
1.83825e-07
8.65596e-08
1.29509e-07
3.62914e-08
1.29565e-07
7.78774e-07
7.50388e-07
4.95313e-07
8.90628e-07
7.86613e-07
7.80477e-07
7.95371e-07
7.54008e-07
7.36016e-07
6.84542e-07
7.37331e-07
7.54659e-07
7.41154e-07
6.34307e-07
1.83829e-07
1.83255e-07
1.8402e-07
3.52343e-08
1.29566e-07
1.29223e-07
1.29659e-07
6.63428e-07
1.46584e-07
7.08116e-07
7.25202e-07
7.36338e-07
5.76078e-07
6.77001e-07
3.05749e-07
7.55379e-07
7.3702e-07
6.94361e-07
3.07427e-07
7.46449e-07
7.16787e-07
1.84021e-07
1.83348e-07
1.84019e-07
1.2927e-07
1.29659e-07
1.29269e-07
1.29659e-07
5.75217e-08
3.88198e-08
3.51466e-08
5.17994e-08
5.18007e-08
3.89862e-08
5.69903e-08
3.34164e-07
6.96052e-07
4.39494e-07
7.46373e-07
7.61442e-07
5.43249e-07
2.38514e-07
6.5291e-08
3.51517e-08
4.99016e-08
5.18199e-08
5.18106e-08
7.28448e-08
4.49502e-08
2.23634e-07
7.65996e-07
2.23764e-07
7.68926e-07
7.70948e-07
2.22814e-07
2.25949e-07
5.76939e-08
5.17983e-08
5.72833e-08
5.17951e-08
5.18002e-08
5.78714e-08
5.7051e-08
3.50487e-07
7.18046e-07
7.49381e-07
5.61211e-07
7.4989e-07
5.59477e-07
3.44367e-07
6.4755e-08
5.18179e-08
5.18038e-08
7.26578e-08
5.18072e-08
7.25865e-08
6.50926e-08
9.87447e-08
5.53604e-08
3.58493e-08
5.18399e-08
8.15127e-08
5.29986e-08
6.94405e-08
5.7903e-07
2.90586e-07
6.89472e-07
7.42692e-07
4.29244e-07
7.60117e-07
4.80035e-07
1.8926e-07
3.91774e-08
6.83769e-07
8.27001e-08
5.76879e-08
7.38427e-07
1.34188e-07
4.83072e-07
5.22507e-07
4.8274e-07
3.19136e-07
4.73513e-07
4.41748e-07
4.12804e-07
1.00189e-07
5.18449e-08
8.29969e-08
5.28211e-08
8.26338e-08
5.30586e-08
1.05432e-07
5.82586e-07
6.63733e-07
5.01683e-07
7.60791e-07
4.88557e-07
7.56682e-07
5.90268e-07
1.89451e-07
8.31633e-08
5.78787e-08
7.05145e-07
5.7756e-08
7.18361e-07
1.88411e-07
7.71933e-07
6.95478e-07
2.8008e-07
1.30597e-07
7.67705e-07
3.70068e-07
6.98161e-07
7.72858e-07
6.94052e-07
6.97575e-07
7.64403e-07
7.16348e-07
7.68055e-07
6.98479e-07
7.73333e-07
6.90734e-07
6.99688e-07