/*--------------------------------*- C++ -*----------------------------------*\
| =========                 |                                                 |
| \\      /  F ield         | OpenFOAM: The Open Source CFD Toolbox           |
|  \\    /   O peration     | Version:  5.0                                   |
|   \\  /    A nd           | Web:      www.OpenFOAM.org                      |
|    \\/     M anipulation  |                                                 |
\*---------------------------------------------------------------------------*/
FoamFile
{
    version     2.0;
    format      ascii;
    class       volVectorField;
    location    "1.5";
    object      U;
}
// * * * * * * * * * * * * * * * * * * * * * * * * * * * * * * * * * * * * * //

dimensions      [0 1 -1 0 0 0 0];

internalField   nonuniform List<vector> 
7891
(
(-0.00502617 -0.00380077 0.000642412)
(0.00025202 -0.00643597 -0.000134988)
(0.00233883 0.00277948 -4.0825e-05)
(0.003645 -0.00599614 0.000163078)
(0.0110872 0.00676769 -5.15846e-05)
(0.0018545 -0.00182462 8.81361e-05)
(0.000486219 -7.9177e-05 -1.27486e-06)
(0.000786286 -8.12851e-05 -2.01047e-06)
(0.00074792 -4.97544e-05 -3.11771e-07)
(0.000764393 -2.85117e-05 1.12813e-07)
(0.000769202 -1.66337e-05 9.16195e-08)
(0.0007738 -9.96828e-06 6.58521e-08)
(0.000776772 -5.93632e-06 9.12884e-09)
(0.000777668 -3.25999e-06 -1.36402e-08)
(0.000777291 -1.91934e-06 5.27913e-08)
(0.000776941 -1.08382e-06 2.35688e-07)
(0.000776239 -7.46238e-07 5.58611e-08)
(0.000775201 -4.86127e-07 7.92629e-08)
(0.000773656 -1.46806e-07 4.80468e-08)
(0.00077206 -2.39942e-07 1.48165e-07)
(0.000770963 -3.14958e-07 1.09468e-07)
(0.000769622 -1.36691e-07 8.51477e-08)
(0.000768036 -1.03168e-07 -1.29018e-10)
(0.000766525 2.53401e-08 4.38215e-08)
(0.000765131 2.12325e-07 7.42777e-08)
(0.000763891 4.47327e-07 8.29705e-08)
(0.000762523 2.71632e-07 6.04334e-08)
(0.000761135 1.83625e-07 5.16361e-08)
(0.000759583 3.41077e-07 1.56974e-07)
(0.000758134 -7.9815e-08 2.06394e-07)
(0.000756593 -4.01141e-07 7.27257e-08)
(0.000755005 -4.61151e-07 1.44345e-08)
(0.000753788 -2.57634e-07 7.96985e-08)
(0.000752754 1.07542e-08 1.1519e-07)
(0.000751504 1.62478e-07 4.32546e-08)
(0.000749919 1.29727e-07 8.92357e-08)
(0.000748425 7.93645e-08 3.21749e-08)
(0.000746773 2.48911e-07 3.24222e-08)
(0.000745873 5.36395e-07 7.69792e-08)
(0.00074492 1.57368e-07 8.05222e-08)
(0.000743244 -1.29306e-08 2.53622e-08)
(0.000741805 -4.56872e-08 7.92787e-08)
(0.000741042 -6.36237e-07 9.0033e-08)
(0.000739499 -6.24354e-07 1.39512e-08)
(0.000737669 -3.45523e-07 2.69944e-08)
(0.000736507 -1.20185e-07 4.64113e-08)
(0.000735286 4.84696e-08 4.92009e-08)
(0.000734127 -1.1904e-07 6.09698e-08)
(0.000732502 -3.18376e-07 3.72383e-08)
(0.000730972 -3.01848e-07 8.75256e-09)
(0.00266478 -0.0101169 -0.000633606)
(-0.0110338 -0.016742 0.00826386)
(-0.0164407 -0.0450059 -0.00136496)
(0.0054797 0.000873892 0.00448923)
(0.00047411 -0.0166254 0.00141515)
(-0.00356486 -0.00609579 0.00125501)
(0.00047495 -0.000148936 8.58781e-06)
(0.000820162 -0.000105691 -9.68367e-07)
(0.000770881 -5.95584e-05 -1.17984e-07)
(0.000782534 -3.74972e-05 2.10706e-07)
(0.000781647 -2.27534e-05 8.75731e-08)
(0.000781843 -1.40442e-05 7.95361e-08)
(0.000781393 -8.63394e-06 6.54452e-08)
(0.000780564 -5.54645e-06 5.48478e-08)
(0.000779503 -3.3941e-06 5.27425e-08)
(0.000778183 -2.07325e-06 4.91154e-08)
(0.000776718 -1.27228e-06 5.19513e-08)
(0.000775574 -8.02476e-07 8.10159e-08)
(0.000774119 -5.95736e-07 1.40394e-07)
(0.000772422 -2.83445e-07 2.41453e-08)
(0.00077101 -3.1274e-08 9.3846e-08)
(0.000769552 -1.51525e-08 6.59907e-08)
(0.000768163 2.85908e-07 2.96068e-08)
(0.000766974 2.64748e-07 6.19953e-08)
(0.000765604 3.25605e-07 -4.87151e-08)
(0.00076375 2.19388e-07 1.84655e-08)
(0.000762117 1.73248e-08 1.3548e-08)
(0.000760951 -1.15976e-07 4.70082e-08)
(0.000759318 -4.07387e-07 4.39888e-08)
(0.000757602 -3.34479e-07 7.07799e-08)
(0.000756487 -2.52039e-07 -1.17385e-07)
(0.000755299 -5.06959e-08 1.61247e-08)
(0.000754152 4.77793e-07 1.26729e-07)
(0.000753056 4.94305e-07 3.11876e-07)
(0.000751431 1.38049e-07 5.00824e-08)
(0.000749835 1.67749e-07 3.60457e-08)
(0.000748737 2.48947e-07 4.87505e-08)
(0.000747674 3.41838e-07 2.47967e-09)
(0.000745798 6.23824e-07 6.20868e-08)
(0.000744038 3.0717e-07 1.70091e-07)
(0.000742911 1.66542e-07 -5.93593e-09)
(0.000741428 4.98373e-08 6.50846e-08)
(0.000740094 -1.03674e-07 7.65046e-08)
(0.000739529 -6.59399e-07 1.15996e-07)
(0.000738458 -1.37198e-07 5.58092e-08)
(0.000736871 -7.48246e-08 6.65974e-08)
(0.00073532 9.34113e-08 3.44693e-08)
(0.00073381 -3.0493e-08 4.97685e-08)
(0.000732477 -1.73322e-07 2.35371e-08)
(0.00073142 -1.69803e-07 1.04665e-07)
(0.00119036 -0.0148236 -0.000101698)
(-0.00680735 0.0117259 -0.000614545)
(-0.000438455 -0.0110695 -0.00399545)
(-0.00943649 0.00726012 -0.00106099)
(0.0149783 0.0131363 -0.000492792)
(-0.0147917 0.012682 -0.000505493)
(0.000530526 -0.000178407 3.54702e-05)
(0.000907753 -9.45865e-05 -2.54229e-06)
(0.000833257 -2.91887e-05 -4.88203e-07)
(0.000810737 -2.9013e-05 2.40403e-08)
(0.000798724 -1.77311e-05 3.81948e-08)
(0.000791573 -1.17382e-05 6.45571e-08)
(0.00078747 -7.57985e-06 6.61693e-08)
(0.000784265 -4.93982e-06 5.15821e-08)
(0.000781663 -3.17908e-06 5.22597e-08)
(0.000779612 -2.08826e-06 5.53651e-08)
(0.000777839 -1.34658e-06 5.49246e-08)
(0.000776054 -7.79026e-07 9.14182e-08)
(0.00077431 -8.06345e-07 -5.33692e-08)
(0.000772768 -4.53344e-07 4.34752e-08)
(0.000771299 -3.14879e-07 5.48758e-08)
(0.000770017 -1.49115e-07 4.73011e-08)
(0.000768384 -6.02865e-08 5.49215e-08)
(0.000766571 -5.84194e-08 7.17769e-08)
(0.000765071 -2.59715e-07 3.20823e-08)
(0.000763503 -2.6055e-07 1.18282e-08)
(0.000762103 -1.63458e-07 5.85684e-08)
(0.000760607 -8.58355e-08 5.45633e-08)
(0.000759313 -1.52177e-07 9.77875e-09)
(0.000758333 3.42191e-07 1.96116e-08)
(0.00075695 4.3515e-07 2.47568e-07)
(0.000755918 4.53294e-07 5.71477e-08)
(0.000754467 3.91374e-07 -6.91283e-09)
(0.000752325 2.52429e-07 -2.14155e-08)
(0.000751093 1.6993e-08 1.0052e-07)
(0.000750056 1.29699e-07 5.16871e-08)
(0.00074864 1.39843e-07 1.75156e-07)
(0.000747238 2.63065e-08 5.08084e-08)
(0.000745826 -1.48503e-07 2.78024e-08)
(0.000744345 2.90784e-08 5.71085e-08)
(0.000742921 1.21727e-07 2.83446e-08)
(0.000741468 2.19369e-07 7.13673e-08)
(0.000740159 5.58357e-07 1.89324e-07)
(0.000739461 6.88769e-07 1.40389e-07)
(0.000738403 2.85218e-07 8.83097e-08)
(0.000736796 2.07134e-07 9.50117e-08)
(0.000735343 1.69598e-07 1.03338e-07)
(0.000733795 3.60946e-07 7.65985e-08)
(0.000732334 1.35168e-07 6.21971e-08)
(0.000731398 8.99617e-08 1.08433e-07)
(-0.0659997 -0.00949154 0.00453879)
(-0.0318406 -0.0142773 -0.00121466)
(-0.0429913 -0.0052921 -0.00113335)
(0.0237162 -0.0255021 0.00074787)
(0.000745091 -0.0183631 -0.000393419)
(-0.00275494 -0.00606445 -0.000671616)
(0.0013265 1.79917e-05 1.33094e-06)
(0.000474505 -3.06815e-05 -9.94706e-07)
(0.000872704 -2.93627e-06 -1.16844e-06)
(0.000797147 -1.29884e-05 -4.65238e-07)
(0.000803405 -8.68707e-06 1.6866e-07)
(0.000794634 -6.26332e-06 6.09991e-09)
(0.000789957 -4.37962e-06 4.9869e-08)
(0.000786107 -2.88569e-06 5.236e-08)
(0.000783094 -1.73015e-06 4.96414e-08)
(0.000780491 -1.04516e-06 4.99785e-08)
(0.000778367 -7.0023e-07 5.18053e-08)
(0.000776258 -5.38701e-07 4.74045e-09)
(0.000774532 -4.26088e-07 3.93239e-08)
(0.000773041 -4.19504e-07 2.38303e-08)
(0.000771393 -3.19023e-07 7.72227e-08)
(0.000769872 -3.24706e-07 5.03395e-08)
(0.000768277 -5.20183e-07 1.67616e-08)
(0.000766726 -3.05988e-07 5.76998e-08)
(0.000765352 -2.02513e-07 2.17069e-07)
(0.000763873 -6.93942e-08 5.99421e-08)
(0.000762336 1.93439e-07 6.44345e-08)
(0.000760966 3.67969e-07 5.73926e-08)
(0.000759852 7.20133e-07 -3.98516e-08)
(0.000758333 5.71859e-07 3.73217e-08)
(0.000756621 3.49481e-07 1.04389e-07)
(0.000755239 4.67507e-07 3.04674e-08)
(0.000753897 -6.00015e-08 4.4589e-08)
(0.000752586 -5.3505e-08 4.9783e-08)
(0.000751276 1.7894e-07 6.08647e-08)
(0.000749988 5.42858e-08 1.0121e-07)
(0.000748608 -2.4531e-08 3.46405e-08)
(0.000747313 -1.09115e-07 3.98982e-08)
(0.000745802 -2.10929e-07 1.73576e-08)
(0.000744376 -1.56374e-07 5.56543e-08)
(0.000743149 1.58768e-08 5.17085e-08)
(0.000741971 1.47795e-07 4.10203e-08)
(0.000740677 3.72107e-07 1.63959e-07)
(0.000739183 6.33009e-07 -1.05726e-07)
(0.000737852 2.21648e-07 4.85463e-08)
(0.000736723 1.38902e-07 4.33795e-08)
(0.00073551 1.74886e-07 7.28869e-08)
(0.000733764 3.79075e-07 4.8484e-08)
(0.000732134 2.32868e-07 4.75766e-08)
(0.000731138 2.37278e-07 1.71349e-07)
(-0.00950654 -0.000552556 -0.00181852)
(-0.0208945 0.0332497 -0.00725832)
(0.00421334 0.00667883 -0.00150068)
(0.00708159 0.042714 -0.00257895)
(-0.00101207 -0.00316667 0.00023582)
(0.00290957 -0.00379902 -5.89518e-05)
(0.00167577 0.000272868 0.000136182)
(0.000440426 -3.05729e-05 -1.54108e-06)
(0.000878422 -1.31776e-05 -1.29177e-06)
(0.000803304 -5.97283e-06 -5.03893e-07)
(0.000807196 -2.83304e-06 1.58729e-07)
(0.000797004 -1.67647e-06 3.26357e-08)
(0.000791725 -6.79949e-07 2.50964e-07)
(0.000787599 -3.91167e-07 4.92527e-08)
(0.000783977 -3.4548e-07 3.22026e-10)
(0.000780908 -2.19495e-07 4.22019e-08)
(0.000778477 -4.45199e-08 4.48903e-08)
(0.0007764 -6.82517e-08 4.89471e-08)
(0.000774462 8.15757e-08 6.21456e-08)
(0.000772905 1.00648e-07 1.60974e-07)
(0.000771421 -2.46144e-07 6.78809e-08)
(0.000769769 3.81762e-08 5.34564e-08)
(0.000768411 8.30217e-09 7.31466e-08)
(0.000766972 6.56637e-08 9.86298e-08)
(0.000765369 9.45198e-08 1.00449e-07)
(0.000763999 -1.56977e-07 7.71908e-08)
(0.000762648 1.25008e-07 6.80753e-08)
(0.00076126 2.54609e-07 2.33449e-08)
(0.000759562 3.7637e-07 2.10683e-08)
(0.000757862 2.19541e-07 1.06616e-08)
(0.000756813 8.69016e-08 5.86563e-08)
(0.000755401 -1.46162e-07 2.2933e-08)
(0.000753813 1.25929e-07 4.24047e-07)
(0.000752623 6.0945e-08 5.07691e-08)
(0.000751227 7.36128e-08 5.97108e-08)
(0.000749801 -1.93826e-08 5.03148e-08)
(0.000748436 -4.94528e-08 -2.43727e-08)
(0.000747007 -5.73378e-08 7.73217e-08)
(0.000745769 -1.10839e-07 4.28744e-08)
(0.00074463 -6.46676e-08 -1.37447e-07)
(0.0007433 9.21802e-08 6.17896e-08)
(0.000741911 1.40734e-07 3.99976e-07)
(0.000740761 8.2825e-08 1.55236e-08)
(0.000739268 6.126e-08 7.49779e-08)
(0.000737783 -3.29761e-08 4.06527e-08)
(0.000736737 -1.67723e-07 4.79121e-08)
(0.000735641 -4.70023e-07 4.45019e-09)
(0.000733866 -8.6634e-07 3.34496e-09)
(0.00073215 -2.84732e-07 5.00712e-08)
(0.000730813 5.63018e-08 5.03216e-08)
(0.00197212 -0.00618008 -7.67646e-05)
(-0.0129855 0.00720369 0.0017059)
(-0.000364653 -0.0135347 0.00200911)
(0.00727341 0.00740049 -0.000788724)
(-0.00720206 0.0039725 0.000543241)
(0.00469926 -0.000396809 -6.39099e-05)
(0.0013438 -0.000260843 0.000146748)
(0.000465405 -2.53948e-05 -2.06023e-06)
(0.000890997 5.79071e-06 -1.49745e-06)
(0.000809932 9.31439e-06 -4.58161e-07)
(0.000808779 7.55161e-06 1.44895e-07)
(0.000797327 5.54655e-06 3.99101e-08)
(0.000791565 4.01394e-06 1.16578e-07)
(0.000786525 2.60934e-06 4.24732e-08)
(0.00078331 1.55568e-06 1.40817e-07)
(0.000780869 9.70223e-07 1.12627e-07)
(0.000778557 6.545e-07 4.85557e-08)
(0.000776416 5.14579e-07 5.80508e-08)
(0.000774743 4.4408e-07 2.38182e-08)
(0.000772631 5.58887e-07 1.306e-07)
(0.000771315 7.05651e-07 1.20986e-07)
(0.00077019 4.01891e-07 5.01109e-08)
(0.000768311 3.50407e-07 1.76541e-07)
(0.000766833 1.89152e-07 4.44769e-08)
(0.000765074 1.7257e-07 4.78464e-08)
(0.00076391 2.73288e-07 -3.95305e-08)
(0.00076285 7.21119e-09 4.19581e-08)
(0.000761278 -1.38567e-07 -4.81109e-09)
(0.000759805 -6.96602e-08 2.4771e-08)
(0.000757969 -3.36639e-07 -9.19073e-08)
(0.000756163 -2.03959e-07 2.73131e-08)
(0.000755287 -2.13338e-07 1.84872e-07)
(0.000754155 -1.71601e-07 2.11728e-08)
(0.000752519 -9.9757e-08 4.08667e-08)
(0.000751175 -1.64954e-07 -1.78305e-08)
(0.000749834 -4.33352e-08 4.05333e-08)
(0.000748561 -9.70176e-09 4.45217e-08)
(0.000747238 8.79699e-08 5.23142e-08)
(0.000745794 1.89367e-07 6.00563e-08)
(0.00074463 1.62314e-07 5.84999e-08)
(0.000743405 1.6748e-07 7.64052e-08)
(0.000741958 3.92408e-07 2.60475e-07)
(0.000740577 2.90097e-07 3.01723e-08)
(0.000739039 1.83729e-08 5.23319e-08)
(0.000737567 -3.80142e-08 4.21571e-08)
(0.00073618 -1.85032e-07 4.29896e-08)
(0.000734641 -5.22119e-07 -6.70075e-08)
(0.000734 -7.71763e-07 6.9058e-08)
(0.000733289 -5.03128e-07 1.07025e-07)
(0.000731425 -3.20173e-07 1.2431e-07)
(0.00896821 0.00259125 7.28694e-06)
(-0.0586369 -0.0317906 0.00216665)
(-0.114634 0.00792299 0.00318886)
(-0.00886563 -0.00248807 0.00106883)
(0.00144812 -0.0100175 -7.08491e-05)
(0.00106927 0.00310306 7.59739e-05)
(0.0026571 -0.000434148 0.000171823)
(0.000541281 2.22754e-05 -2.56099e-07)
(0.000882231 3.41229e-05 -1.60315e-06)
(0.000805134 3.09697e-05 -4.56362e-07)
(0.000802408 1.9042e-05 1.22395e-07)
(0.000792528 1.26797e-05 1.62745e-08)
(0.000788018 7.89733e-06 4.36585e-08)
(0.000784502 5.06297e-06 4.4843e-08)
(0.000781914 3.3242e-06 4.95985e-08)
(0.000779773 2.13313e-06 5.08207e-08)
(0.000777903 1.34089e-06 5.0477e-08)
(0.000776134 8.48603e-07 5.34828e-08)
(0.000774513 5.95202e-07 2.64058e-08)
(0.000773229 2.95791e-07 2.698e-08)
(0.000771221 6.68075e-07 -4.70142e-08)
(0.000769322 2.61399e-07 4.27318e-08)
(0.000768143 2.45281e-07 4.07401e-08)
(0.000766748 1.25183e-07 5.19114e-08)
(0.000765473 2.04726e-07 1.28078e-07)
(0.000763791 2.49118e-07 1.03799e-07)
(0.000762133 -1.00915e-07 5.89272e-08)
(0.000761165 -3.71998e-07 4.31164e-08)
(0.000759317 -8.87067e-07 -5.75739e-08)
(0.000757698 -8.47648e-07 5.70006e-08)
(0.000756971 -5.37462e-07 2.98561e-08)
(0.000755445 -6.43248e-08 1.53009e-07)
(0.000753957 -7.34527e-08 4.09048e-08)
(0.000752633 -1.24327e-07 6.97912e-08)
(0.000751299 -8.5765e-08 9.14285e-08)
(0.000749996 -1.10397e-08 6.30813e-08)
(0.0007486 2.99174e-08 4.7207e-08)
(0.000747255 -4.64478e-08 5.65819e-08)
(0.000745861 2.59895e-08 3.59193e-08)
(0.000744601 2.09452e-07 -5.70141e-08)
(0.000743587 1.59856e-08 4.03902e-08)
(0.000742062 -1.79957e-07 -1.6191e-08)
(0.000740293 -9.93128e-08 5.67987e-08)
(0.000738858 -2.2282e-07 5.23586e-08)
(0.00073753 -6.82003e-08 1.66694e-08)
(0.000736134 -1.50448e-08 4.84264e-08)
(0.000734912 -3.27216e-08 7.06517e-08)
(0.000733895 1.65068e-07 3.97234e-08)
(0.000732724 -2.59442e-07 2.11922e-09)
(0.000731841 -3.12248e-07 4.06799e-08)
(-0.00656601 0.00699811 0.00014003)
(-0.0109657 0.0330829 0.00287913)
(0.00321019 -0.00295498 -0.00090857)
(-0.0186339 0.00810752 0.000216132)
(0.0364867 -0.00938451 0.000765236)
(-8.98834e-05 -0.00850917 -0.000208952)
(0.000845098 0.000218149 1.16167e-05)
(0.000876146 0.000192217 -2.95701e-06)
(0.00080202 7.65009e-05 -5.23656e-07)
(0.000790982 4.86178e-05 -7.6025e-08)
(0.000785756 2.67935e-05 -6.51131e-09)
(0.000783295 1.59941e-05 9.92533e-08)
(0.000781978 9.50375e-06 4.09014e-08)
(0.000780767 5.74415e-06 4.37377e-08)
(0.00077962 3.51458e-06 4.67636e-08)
(0.000778372 2.18415e-06 4.74864e-08)
(0.00077694 1.24199e-06 1.10257e-07)
(0.000775477 7.37155e-07 6.53517e-08)
(0.000774048 5.06815e-07 9.77103e-08)
(0.000772719 2.82751e-07 3.42647e-08)
(0.000771269 -1.28761e-07 4.54469e-08)
(0.000769659 4.35098e-08 6.75759e-08)
(0.000768139 -7.41881e-08 3.99272e-08)
(0.000766782 -8.0869e-08 4.81113e-08)
(0.000765228 -3.98647e-07 9.21002e-08)
(0.000763528 -3.85353e-07 3.53389e-08)
(0.000762074 -1.57149e-07 -2.47144e-07)
(0.000760299 -1.47014e-07 4.40937e-08)
(0.000759217 -3.56309e-07 1.31361e-07)
(0.000758412 1.86242e-07 6.80051e-08)
(0.000757147 2.57679e-07 9.45579e-08)
(0.00075587 -1.50243e-08 7.6552e-08)
(0.000754082 -3.69256e-08 4.05486e-08)
(0.000752505 6.13896e-08 4.70675e-08)
(0.000751318 3.8275e-08 4.2171e-08)
(0.000749979 -1.12119e-07 6.09138e-08)
(0.000748517 -1.27524e-07 1.99682e-08)
(0.000747233 -1.77219e-07 6.36554e-08)
(0.000746113 -5.5733e-08 4.29926e-08)
(0.000744617 -5.12099e-08 5.85145e-08)
(0.000742918 -1.38211e-07 2.15644e-08)
(0.000741815 -2.24703e-07 4.94965e-08)
(0.000740525 -1.74355e-07 4.41153e-08)
(0.000739079 -1.23648e-07 4.41134e-08)
(0.000737828 -9.62335e-08 6.64198e-08)
(0.000736225 7.67317e-08 4.47288e-08)
(0.000734867 4.74426e-07 4.03387e-08)
(0.000733718 3.48748e-07 5.23131e-08)
(0.000732701 2.35167e-07 -2.2399e-08)
(0.000732137 -3.04864e-08 4.31234e-08)
(-6.06553e-05 8.39357e-06 0.000388518)
(0.00627781 -0.00539331 -0.000122769)
(-9.8337e-05 -0.00326814 9.92594e-06)
(-0.000772657 0.00157336 0.00109173)
(0.00819015 -0.0100633 -0.00188864)
(0.00912128 0.00209688 0.000433744)
(0.000343795 0.00021998 1.6624e-05)
(0.000630292 0.000112516 -1.17324e-06)
(0.000699973 5.8023e-05 2.42537e-07)
(0.000742665 3.25272e-05 2.02622e-07)
(0.00076141 1.81563e-05 9.94836e-08)
(0.000770789 1.07034e-05 6.18935e-08)
(0.000775128 6.29886e-06 5.59943e-08)
(0.000776969 3.52803e-06 5.61392e-08)
(0.000777435 2.11971e-06 5.41409e-08)
(0.000776914 1.25846e-06 1.15418e-07)
(0.000776082 7.96447e-07 2.37549e-08)
(0.000775207 4.84802e-07 3.93557e-07)
(0.000773941 2.76373e-07 2.86883e-08)
(0.000772432 2.96846e-07 8.8048e-08)
(0.000770921 2.07905e-07 4.88045e-08)
(0.000769391 -1.37692e-08 7.87835e-08)
(0.000767988 -9.01289e-08 -3.52929e-09)
(0.000766344 -1.57767e-07 5.27231e-08)
(0.000765095 -2.51856e-07 -1.02203e-08)
(0.000764096 -2.78918e-07 6.31179e-08)
(0.000762433 -1.32268e-07 2.18037e-08)
(0.000760918 1.9599e-08 4.50241e-08)
(0.000759734 3.21797e-07 4.96488e-08)
(0.000758464 3.65731e-07 -9.27999e-09)
(0.000756718 4.16551e-07 3.15599e-09)
(0.000755075 2.18345e-07 8.1298e-08)
(0.000754053 -1.86216e-07 -1.46629e-07)
(0.000752727 -1.99801e-07 6.14363e-08)
(0.000751083 -1.67319e-07 3.98431e-08)
(0.00074979 -2.29004e-07 9.15138e-09)
(0.000748521 -1.99672e-07 -9.48834e-09)
(0.000747346 -1.71432e-07 4.56475e-08)
(0.000746019 -3.03043e-07 9.96432e-08)
(0.000744499 -3.31231e-07 3.96325e-08)
(0.000743371 -2.16962e-07 5.79822e-08)
(0.000742019 -1.34458e-07 1.89527e-08)
(0.000740421 9.43674e-08 4.40563e-08)
(0.000738957 9.71446e-08 3.71645e-08)
(0.000737781 1.61481e-07 7.16615e-08)
(0.000736846 9.58191e-08 3.38537e-09)
(0.00073525 2.84677e-07 2.21176e-08)
(0.000733593 4.59366e-07 3.66379e-08)
(0.00073225 7.27382e-07 -7.17009e-08)
(0.000731581 4.67833e-07 8.44184e-08)
(0.00248394 -0.0083156 -0.000330956)
(0.00597846 -0.00201127 -0.000195253)
(-0.00544205 -0.000906222 0.00100205)
(-0.00716001 -0.00796466 0.000343631)
(-0.0251815 0.0445459 0.00206221)
(0.0574798 -0.00934634 0.00199641)
(3.09601e-05 -0.000205861 -3.85712e-06)
(0.000650681 -4.63158e-05 -1.66991e-06)
(0.000703683 -2.02389e-05 -7.55849e-08)
(0.000740885 -7.4477e-06 1.28257e-07)
(0.000758322 -2.90414e-06 1.16606e-07)
(0.000768386 -1.23288e-06 9.27202e-08)
(0.000772957 -5.04058e-07 1.071e-07)
(0.000775513 7.86669e-08 -1.61148e-07)
(0.000776766 5.3997e-08 6.38822e-08)
(0.000776707 -3.59513e-08 7.20615e-08)
(0.000775965 7.60194e-08 4.83606e-08)
(0.000774821 8.94443e-08 6.91311e-08)
(0.000773809 7.09293e-08 8.17384e-08)
(0.000772631 -1.3869e-07 6.46614e-08)
(0.000770879 -2.26594e-07 1.75597e-08)
(0.000769287 -1.05543e-07 1.48236e-07)
(0.000767961 -4.19431e-08 5.53952e-08)
(0.000766582 -6.70441e-08 4.95164e-08)
(0.000765079 1.02985e-07 6.4968e-08)
(0.00076368 -3.79295e-08 6.51476e-08)
(0.000762449 -6.08259e-08 1.85752e-07)
(0.000760867 3.35878e-08 4.57339e-08)
(0.000759647 1.13223e-07 1.26351e-07)
(0.000758528 -8.69831e-08 4.76532e-08)
(0.00075696 -1.51161e-07 8.79481e-08)
(0.000755115 -1.88449e-07 2.07199e-08)
(0.00075356 -2.09265e-07 -6.6963e-08)
(0.000752531 -4.02432e-07 3.91015e-08)
(0.000751284 -1.90309e-07 3.82571e-08)
(0.000749941 -6.65807e-08 -1.37107e-08)
(0.000748591 -8.71909e-08 5.52962e-08)
(0.000747106 -1.43474e-07 5.39661e-08)
(0.000745916 -5.46529e-07 5.63834e-08)
(0.000744727 -2.619e-07 5.83883e-08)
(0.000743166 -2.11688e-07 5.9243e-08)
(0.000742205 -3.65337e-07 7.39743e-08)
(0.000740815 -3.84175e-07 3.78767e-08)
(0.000739162 1.31664e-07 1.97187e-08)
(0.000737825 4.97971e-08 1.52201e-08)
(0.000736377 4.42227e-08 4.63931e-08)
(0.000735317 -2.20605e-07 2.02752e-08)
(0.000734266 7.4433e-08 3.41725e-08)
(0.000732697 2.08415e-07 -6.22954e-08)
(0.000730647 2.83184e-07 6.43673e-08)
(0.00321028 -0.0194003 0.000389135)
(0.0127497 -0.00965819 0.000120062)
(0.0076946 0.00145788 -0.00193221)
(-0.000808066 -0.0216975 0.000379739)
(0.00183282 0.00618891 -0.000473934)
(0.00447302 -0.00596821 2.07322e-05)
(0.0014422 -0.000172146 -1.92149e-06)
(0.0013156 -0.000130259 3.34726e-07)
(0.00125237 -8.07808e-05 2.95271e-07)
(0.00127941 -4.67018e-05 3.30715e-07)
(0.00128687 -2.74101e-05 3.63276e-07)
(0.001294 -1.65147e-05 2.34588e-07)
(0.00129862 -9.8847e-06 2.60964e-07)
(0.00129989 -5.43196e-06 2.43059e-07)
(0.00129914 -3.23438e-06 3.3495e-07)
(0.0012984 -1.86175e-06 5.12203e-07)
(0.00129711 -1.25813e-06 3.29962e-07)
(0.00129533 -7.60682e-07 3.57599e-07)
(0.00129271 -2.72306e-07 3.42583e-07)
(0.00129011 -4.38817e-07 3.85309e-07)
(0.00128829 -4.83018e-07 5.35781e-07)
(0.00128597 -1.34845e-07 3.76029e-07)
(0.00128333 -7.94248e-08 2.94214e-07)
(0.00128089 9.7699e-08 2.77266e-07)
(0.00127855 4.35316e-07 3.33396e-07)
(0.00127642 8.13749e-07 3.81475e-07)
(0.00127418 4.8715e-07 2.89211e-07)
(0.00127197 2.97223e-07 3.28693e-07)
(0.0012693 5.26112e-07 4.2918e-07)
(0.00126678 -2.17753e-07 7.53935e-07)
(0.00126429 -7.93719e-07 3.52385e-07)
(0.00126162 -8.05935e-07 1.89928e-07)
(0.00125961 -4.23255e-07 3.23839e-07)
(0.00125802 7.87452e-08 4.071e-07)
(0.00125597 3.2361e-07 3.05113e-07)
(0.00125329 2.82558e-07 3.71883e-07)
(0.00125072 1.76969e-07 2.97336e-07)
(0.00124798 4.41643e-07 2.62638e-07)
(0.00124645 9.28515e-07 2.82941e-07)
(0.00124489 3.61278e-07 4.48778e-07)
(0.00124218 2.00823e-08 2.73291e-07)
(0.00123976 -6.21654e-08 3.32739e-07)
(0.00123848 -9.93114e-07 3.5367e-07)
(0.00123592 -9.46753e-07 2.07091e-07)
(0.00123297 -5.50771e-07 2.61931e-07)
(0.00123098 -2.54581e-07 3.08489e-07)
(0.00122886 2.23982e-08 2.85641e-07)
(0.00122697 -2.70768e-07 3.17948e-07)
(0.00122423 -5.34762e-07 3.23982e-07)
(0.0012216 -4.9693e-07 2.15095e-07)
(-0.0326049 0.0106551 0.010358)
(-0.0165684 0.00944383 -0.111572)
(-0.0148917 -0.0238025 0.00517131)
(0.0380928 0.0191504 0.0218672)
(0.0405209 -0.00783325 -0.00123499)
(-0.0152407 -0.0240994 0.0115212)
(0.00130817 -0.000449461 6.58142e-05)
(0.00137239 -0.000173465 3.1553e-07)
(0.00129004 -9.72243e-05 3.27116e-07)
(0.00130903 -6.10674e-05 3.27376e-07)
(0.00130721 -3.70019e-05 3.27477e-07)
(0.00130717 -2.27895e-05 3.27652e-07)
(0.00130615 -1.40043e-05 3.28055e-07)
(0.00130458 -9.01736e-06 3.25934e-07)
(0.00130268 -5.5356e-06 3.26403e-07)
(0.00130044 -3.43906e-06 3.27833e-07)
(0.00129802 -2.11093e-06 3.27195e-07)
(0.001296 -1.39388e-06 3.59187e-07)
(0.00129346 -9.91167e-07 4.66126e-07)
(0.00129066 -4.43683e-07 2.94048e-07)
(0.00128837 -2.02127e-08 3.67096e-07)
(0.00128593 -1.78442e-08 3.34067e-07)
(0.00128355 5.14054e-07 2.72873e-07)
(0.00128159 5.08077e-07 6.23477e-07)
(0.00127931 6.04711e-07 6.43079e-08)
(0.0012762 3.90391e-07 2.45727e-07)
(0.00127348 7.61133e-08 2.81456e-07)
(0.00127154 -2.15509e-07 3.16369e-07)
(0.0012688 -8.38103e-07 2.92694e-07)
(0.0012659 -6.29772e-07 3.42324e-07)
(0.00126415 -4.6728e-07 5.15749e-08)
(0.00126227 -1.42728e-07 2.65433e-07)
(0.00126036 8.34303e-07 4.73797e-07)
(0.00125846 8.97908e-07 6.44081e-07)
(0.00125574 2.77113e-07 3.37872e-07)
(0.00125312 2.64899e-07 2.94985e-07)
(0.00125124 4.03435e-07 3.0347e-07)
(0.00124946 5.75458e-07 7.83409e-08)
(0.00124641 1.05043e-06 3.8682e-07)
(0.00124349 5.95201e-07 4.68525e-07)
(0.00124155 2.80998e-07 1.49689e-07)
(0.0012391 2.77505e-08 3.54032e-07)
(0.00123693 -2.45864e-07 2.96193e-07)
(0.00123595 -1.06719e-06 6.946e-07)
(0.00123408 -2.61662e-07 3.47499e-07)
(0.0012315 -2.07828e-07 3.2139e-07)
(0.001229 1.40214e-07 2.75219e-07)
(0.00122649 -7.47227e-08 2.95146e-07)
(0.00122423 -3.35164e-07 2.33321e-07)
(0.00122246 -3.08523e-07 3.9148e-07)
(-0.0188204 0.0154538 0.00260038)
(-0.0107708 -0.0144089 0.00337632)
(0.0516464 0.0155869 -0.0419863)
(-0.0184679 0.0205529 -0.00526743)
(0.00187944 0.0052561 0.000389509)
(-0.00248921 -0.00269995 -0.00164893)
(0.00125494 -0.000503352 8.63497e-05)
(0.00151872 -0.000157067 3.71456e-07)
(0.00139283 -4.69961e-05 1.40388e-07)
(0.00135524 -4.67281e-05 3.40033e-07)
(0.00133505 -2.83804e-05 3.44166e-07)
(0.00132295 -1.87761e-05 3.3229e-07)
(0.00131596 -1.21079e-05 4.0327e-07)
(0.00131055 -7.88301e-06 3.29019e-07)
(0.00130616 -5.0699e-06 3.27338e-07)
(0.00130271 -3.3251e-06 3.25373e-07)
(0.00129969 -2.17171e-06 3.26754e-07)
(0.00129675 -1.32197e-06 4.40544e-07)
(0.00129391 -1.36223e-06 1.3818e-07)
(0.00129133 -7.50508e-07 3.1271e-07)
(0.00128882 -5.10026e-07 2.86655e-07)
(0.00128663 -2.50764e-07 3.19803e-07)
(0.00128399 -9.28815e-08 3.06632e-07)
(0.00128099 -6.32892e-08 2.8396e-07)
(0.0012784 -4.47089e-07 2.70676e-07)
(0.00127575 -3.81243e-07 2.77188e-07)
(0.00127342 -2.41055e-07 3.23289e-07)
(0.00127083 -1.06543e-07 3.0971e-07)
(0.00126879 -2.31384e-07 1.85197e-07)
(0.00126725 6.39523e-07 2.50559e-07)
(0.0012649 8.68517e-07 5.24549e-07)
(0.00126324 8.43219e-07 4.63661e-07)
(0.0012609 6.58309e-07 2.01753e-07)
(0.00125732 4.02975e-07 1.29249e-07)
(0.00125518 2.79934e-08 2.86603e-07)
(0.00125345 1.85382e-07 3.13823e-07)
(0.00125111 2.21121e-07 4.17244e-07)
(0.00124878 5.04159e-08 3.40293e-07)
(0.00124647 -2.22695e-07 2.97804e-07)
(0.00124392 1.48234e-08 3.54028e-07)
(0.00124147 1.46642e-07 1.10291e-07)
(0.00123911 3.20355e-07 3.72937e-07)
(0.00123711 9.74223e-07 7.23076e-07)
(0.00123591 1.11654e-06 3.43549e-07)
(0.00123405 5.46325e-07 3.12993e-07)
(0.00123148 4.18607e-07 3.79313e-07)
(0.00122903 3.42687e-07 3.79013e-07)
(0.00122638 5.87148e-07 3.38347e-07)
(0.00122395 2.28819e-07 3.44752e-07)
(0.0012224 1.52377e-07 4.79692e-07)
(-0.140032 0.00482575 0.0542646)
(-0.0619346 -0.0558948 -0.103538)
(-0.0378419 -0.00554913 0.0098528)
(0.00511014 -0.0427877 -0.0111187)
(0.00286498 0.00246608 0.00120132)
(-0.00568695 0.0135023 -0.00533205)
(0.000872414 0.000111104 -6.44479e-05)
(0.00142994 -9.69688e-05 7.63643e-07)
(0.00146027 -2.01042e-06 3.17662e-07)
(0.00133281 -1.94066e-05 3.30553e-07)
(0.00134242 -1.29677e-05 3.37075e-07)
(0.00132768 -9.47092e-06 3.30675e-07)
(0.00131987 -6.67659e-06 3.28548e-07)
(0.00131344 -4.40484e-06 3.29389e-07)
(0.00130842 -2.6222e-06 3.27279e-07)
(0.00130409 -1.56548e-06 3.26223e-07)
(0.00130054 -1.06006e-06 3.24771e-07)
(0.00129703 -7.76891e-07 2.31297e-07)
(0.00129418 -6.54838e-07 3.18165e-07)
(0.00129173 -6.73489e-07 2.78694e-07)
(0.001289 -5.41714e-07 3.44558e-07)
(0.00128645 -5.24656e-07 3.22141e-07)
(0.00128378 -8.44215e-07 2.92526e-07)
(0.00128115 -5.32219e-07 3.65493e-07)
(0.00127892 -3.99901e-07 4.85739e-07)
(0.00127647 -1.54449e-07 2.81344e-07)
(0.00127382 3.13905e-07 3.88994e-07)
(0.00127155 6.66136e-07 3.64783e-07)
(0.00126973 1.35509e-06 2.46741e-07)
(0.00126727 1.07507e-06 2.91397e-07)
(0.0012644 7.47759e-07 3.95596e-07)
(0.001262 9.40411e-07 3.12509e-07)
(0.00125981 5.29707e-08 3.0949e-07)
(0.00125767 -6.34568e-08 3.16941e-07)
(0.00125547 2.82684e-07 3.1511e-07)
(0.00125336 8.32075e-08 3.68684e-07)
(0.00125107 -6.53256e-08 2.91684e-07)
(0.0012489 -1.90621e-07 2.53479e-07)
(0.00124637 -4.23786e-07 1.87049e-07)
(0.00124395 -3.52903e-07 3.06266e-07)
(0.00124193 1.124e-08 2.53188e-07)
(0.00124013 3.5882e-07 3.80344e-07)
(0.00123792 7.10878e-07 5.92814e-07)
(0.0012354 1.03797e-06 -5.67971e-08)
(0.0012332 3.66808e-07 3.08721e-07)
(0.00123124 2.25252e-07 3.07761e-07)
(0.00122921 2.30064e-07 3.51533e-07)
(0.00122634 5.48103e-07 2.83461e-07)
(0.00122367 3.76288e-07 3.61089e-07)
(0.00122199 3.99499e-07 5.43913e-07)
(0.0109536 -0.0176655 -0.0165528)
(-0.0374196 0.0219441 -0.0586277)
(-0.00202659 0.0384889 -0.0132561)
(-0.0116365 -0.00449576 -0.0211546)
(-0.00439437 0.00629591 -0.00229705)
(0.0081157 0.00495082 -0.00104959)
(0.00100833 0.000127704 -0.000127053)
(0.00132792 -7.845e-05 2.23093e-08)
(0.00146667 -1.65034e-05 6.05106e-07)
(0.00134108 -6.94219e-06 4.13282e-07)
(0.00134757 -2.98909e-06 3.56913e-07)
(0.00133089 -1.77409e-06 3.89711e-07)
(0.00132234 -5.08365e-07 4.92719e-07)
(0.00131565 -3.10132e-07 3.3027e-07)
(0.00130973 -3.84632e-07 3.0402e-07)
(0.00130467 -2.63856e-07 3.42043e-07)
(0.00130068 -1.91963e-08 3.25797e-07)
(0.00129726 -8.02221e-08 3.21925e-07)
(0.00129404 1.6367e-07 3.1292e-07)
(0.00129148 1.98334e-07 4.37938e-07)
(0.00128901 -3.34438e-07 3.56534e-07)
(0.00128626 6.0057e-08 2.9058e-07)
(0.00128398 2.25474e-08 3.52508e-07)
(0.00128156 8.86428e-08 3.66195e-07)
(0.00127888 1.87546e-07 2.7956e-07)
(0.00127665 -3.09412e-07 3.73301e-07)
(0.00127444 1.82731e-07 3.71513e-07)
(0.00127213 4.06903e-07 2.86891e-07)
(0.00126929 6.44379e-07 2.87375e-07)
(0.00126648 3.91458e-07 3.05144e-07)
(0.00126472 1.85038e-07 3.42402e-07)
(0.00126237 -2.21529e-07 2.57125e-07)
(0.00125964 2.64069e-07 7.53912e-07)
(0.0012576 1.2624e-07 3.16239e-07)
(0.00125536 1.48154e-07 2.9664e-07)
(0.00125301 -3.726e-08 3.13642e-07)
(0.00125077 -1.21284e-07 -4.12769e-08)
(0.00124834 -1.39215e-07 2.77433e-07)
(0.00124627 -2.26309e-07 3.04114e-07)
(0.00124447 -1.23967e-07 -8.80211e-08)
(0.00124236 1.90568e-07 3.24594e-07)
(0.00123998 3.11774e-07 1.02542e-06)
(0.00123795 1.14792e-07 1.9051e-07)
(0.00123547 7.85122e-08 2.51663e-07)
(0.00123303 -1.53047e-07 3.16141e-07)
(0.00123131 -3.25644e-07 3.06395e-07)
(0.00122943 -8.18496e-07 8.71303e-08)
(0.00122656 -1.38753e-06 2.767e-07)
(0.00122375 -4.73766e-07 3.48363e-07)
(0.00122143 1.01229e-07 3.20985e-07)
(-0.000466996 -0.00321468 -0.000848132)
(-0.0172891 0.00277519 0.0315436)
(-0.00740755 0.018681 0.0524558)
(0.00724814 -0.00575313 -0.000139596)
(0.00431336 -0.00858513 0.00345796)
(-0.000532506 0.00695454 -2.23433e-05)
(0.00131918 -0.00106964 -6.40167e-05)
(0.00138424 -6.25847e-05 -1.30507e-07)
(0.00148225 1.33143e-05 5.73099e-07)
(0.0013494 1.72116e-05 4.01284e-07)
(0.00134888 1.33928e-05 2.98001e-07)
(0.00133078 9.63737e-06 3.43424e-07)
(0.0013217 6.89815e-06 4.02658e-07)
(0.0013136 4.45035e-06 3.29337e-07)
(0.00130848 2.63725e-06 4.28903e-07)
(0.00130455 1.62115e-06 4.31631e-07)
(0.00130077 1.0856e-06 3.26319e-07)
(0.00129726 8.21565e-07 3.57878e-07)
(0.00129453 7.24828e-07 2.94417e-07)
(0.00129111 9.00272e-07 5.4156e-07)
(0.00128882 1.08458e-06 3.45832e-07)
(0.0012869 6.38337e-07 3.19674e-07)