/*--------------------------------*- C++ -*----------------------------------*\
| =========                 |                                                 |
| \\      /  F ield         | OpenFOAM: The Open Source CFD Toolbox           |
|  \\    /   O peration     | Version:  5.0                                   |
|   \\  /    A nd           | Web:      www.OpenFOAM.org                      |
|    \\/     M anipulation  |                                                 |
\*---------------------------------------------------------------------------*/
FoamFile
{
    version     2.0;
    format      ascii;
    class       volVectorField;
    location    "1.5";
    object      U_0;
}
// * * * * * * * * * * * * * * * * * * * * * * * * * * * * * * * * * * * * * //

dimensions      [0 1 -1 0 0 0 0];

internalField   nonuniform List<vector> 
7891
(
(-0.00488813 -0.00422836 0.000646985)
(-9.92743e-05 -0.00312703 -0.000396278)
(0.000277459 0.00440675 -0.000422693)
(0.00956686 -0.010003 0.00268032)
(0.00938486 0.00771037 -0.000208267)
(0.000668118 -0.00065682 5.57311e-05)
(0.000515509 0.000129032 4.62359e-07)
(0.000849493 -1.1963e-05 -1.85535e-06)
(0.000802588 -1.81298e-05 -1.30555e-07)
(0.000809694 -1.3732e-05 1.23386e-07)
(0.000806069 -9.33311e-06 1.1076e-07)
(0.00080468 -6.17954e-06 8.73257e-08)
(0.000803804 -3.90658e-06 1.43457e-08)
(0.000802197 -2.12137e-06 6.10977e-08)
(0.000800284 -1.38226e-06 5.15769e-08)
(0.000798796 -9.99584e-07 -2.43782e-09)
(0.000797375 -5.77598e-07 5.30923e-08)
(0.000795778 -1.25908e-07 6.12813e-08)
(0.000793711 -2.68195e-07 5.27373e-08)
(0.00079237 -4.53265e-07 8.24343e-08)
(0.000791322 -3.78806e-07 1.3256e-08)
(0.000789743 -8.97062e-08 3.15737e-08)
(0.00078816 -6.01384e-08 6.0142e-08)
(0.000786717 2.45743e-08 4.4073e-08)
(0.000785213 2.0042e-07 1.13054e-08)
(0.000783661 2.96933e-07 1.12287e-08)
(0.000782327 2.20898e-07 2.94381e-08)
(0.000781141 1.24718e-07 4.58656e-08)
(0.000779363 3.33164e-07 8.53918e-08)
(0.000777756 -1.80793e-07 6.87054e-08)
(0.000776517 -6.06738e-07 -6.54882e-08)
(0.000774852 -4.8363e-07 -2.06065e-08)
(0.000773464 -2.68569e-07 8.19042e-08)
(0.000772785 1.08162e-07 5.35818e-09)
(0.000771705 1.31384e-07 3.94549e-08)
(0.000769989 7.95227e-08 5.21181e-08)
(0.000768384 7.61803e-08 3.61771e-08)
(0.000766965 1.83668e-07 5.198e-09)
(0.000765682 3.90096e-07 -1.06834e-08)
(0.000764708 4.24463e-07 1.38585e-07)
(0.000763587 1.00938e-07 2.71244e-08)
(0.000762081 -1.26885e-08 5.97464e-08)
(0.000760921 -2.65598e-07 8.75652e-08)
(0.000759638 -3.16046e-07 2.33254e-07)
(0.000758211 -1.11256e-07 3.61474e-08)
(0.000756778 -9.91289e-08 3.18911e-08)
(0.000755444 -1.06331e-07 5.23776e-08)
(0.000754297 -4.77405e-07 1.79032e-07)
(0.000752614 -3.51925e-07 -9.60109e-09)
(0.000750821 -2.30261e-07 6.41539e-08)
(-0.0041244 -0.0105582 0.00138621)
(-0.00943744 -0.0146365 -0.00104211)
(-0.0168477 -0.0305942 -0.00139505)
(-0.0117659 -0.0167688 0.00426409)
(0.0498119 -0.00239623 0.00163966)
(-0.00213857 -0.00147828 0.000215064)
(0.000468061 -0.000108464 9.39216e-06)
(0.000844174 -5.06111e-05 -8.10606e-07)
(0.000800355 -2.45606e-05 -3.26646e-08)
(0.000812828 -1.57926e-05 2.11043e-07)
(0.000810013 -9.4846e-06 8.86723e-08)
(0.000807919 -5.87072e-06 7.59185e-08)
(0.000805561 -3.67887e-06 6.25495e-08)
(0.000803324 -2.63262e-06 5.37041e-08)
(0.000801209 -1.66336e-06 5.40133e-08)
(0.000799484 -1.20354e-06 6.66607e-08)
(0.000797959 -7.55803e-07 4.97505e-08)
(0.000796031 -7.56803e-07 3.34671e-09)
(0.000794129 -3.02006e-07 -7.71154e-09)
(0.000792573 4.60508e-08 2.9075e-08)
(0.000791246 1.60943e-07 1.04309e-07)
(0.000789827 8.76059e-09 -2.88255e-09)
(0.000788206 1.47247e-07 6.81509e-08)
(0.000786868 2.32401e-07 2.53387e-08)
(0.000785398 3.08411e-07 5.41431e-08)
(0.000783753 6.65995e-08 1.77468e-07)
(0.000782218 -1.80828e-08 8.22042e-08)
(0.000780997 -2.20116e-07 4.62064e-08)
(0.000779139 -8.6481e-07 3.17843e-09)
(0.000777102 -4.62896e-07 7.4887e-08)
(0.000776241 -4.61959e-07 1.41323e-07)
(0.000775398 -2.4399e-07 5.47939e-08)
(0.000774345 3.83703e-07 1.93559e-07)
(0.000772884 6.8041e-07 8.26104e-08)
(0.000771208 2.36516e-07 4.14145e-08)
(0.000769896 1.02343e-07 5.96079e-08)
(0.000768652 1.04206e-07 8.47722e-08)
(0.000767386 2.09911e-07 5.36269e-08)
(0.000765962 3.78216e-07 1.471e-08)
(0.000764459 5.36434e-07 7.16253e-09)
(0.000763098 2.06993e-07 5.07575e-08)
(0.000761722 -2.19461e-07 5.80862e-08)
(0.000760507 -5.44953e-07 2.6107e-08)
(0.000759587 -3.1504e-07 -2.10142e-08)
(0.000758249 -1.68022e-07 5.37389e-08)
(0.000756803 -1.76429e-07 4.90018e-08)
(0.000755459 -3.48269e-08 5.81001e-08)
(0.00075403 -1.71124e-07 4.44264e-08)
(0.00075259 -3.54265e-07 -1.00139e-08)
(0.000751684 -2.37499e-07 2.66764e-08)
(-0.00311578 -0.01147 0.000299577)
(-0.00893834 0.00792023 -0.00142672)
(-0.00592602 -0.00902416 0.00795226)
(-0.00684143 0.0107361 -0.000680579)
(0.014308 0.0142439 -0.000741346)
(-0.01438 0.0129559 -0.000520164)
(0.000520238 -0.000152869 3.60962e-05)
(0.000916757 -6.14758e-05 -3.11296e-06)
(0.000845989 -1.1504e-06 -8.72183e-07)
(0.000828828 -8.83329e-06 -6.99229e-08)
(0.000818646 -4.08691e-06 4.39657e-08)
(0.00081204 -2.93849e-06 2.94852e-08)
(0.000807915 -1.93883e-06 4.03973e-08)
(0.000804755 -1.32513e-06 5.0381e-08)
(0.000802095 -8.59956e-07 5.26032e-08)
(0.000799946 -5.27655e-07 5.39975e-08)
(0.000797945 -4.85091e-07 5.62359e-08)
(0.000796353 -4.67667e-07 8.8705e-08)
(0.000794719 -4.12002e-07 9.36638e-08)
(0.00079295 -1.42251e-07 3.90672e-08)
(0.000791275 -2.5346e-08 2.0433e-07)
(0.000789725 -2.31445e-08 4.74492e-08)
(0.000788438 -3.33828e-08 4.01995e-08)
(0.000786915 -6.91722e-08 -1.36346e-07)
(0.000785002 -3.39815e-07 1.11381e-07)
(0.000783251 -3.05629e-08 7.85445e-08)
(0.000781968 -1.88892e-07 6.64857e-08)
(0.000780085 -1.64386e-07 6.26966e-08)
(0.000779064 -2.86156e-07 -1.2032e-07)
(0.000778265 3.8639e-07 -1.72354e-08)
(0.000776795 7.86521e-07 8.0069e-08)
(0.00077591 7.36874e-07 6.67057e-08)
(0.000774617 4.11009e-07 2.92108e-07)
(0.000772597 1.60867e-07 1.08624e-07)
(0.000770979 8.08176e-08 3.09034e-08)
(0.000769822 1.26215e-07 4.99706e-08)
(0.000768517 9.9204e-08 5.3069e-08)
(0.000767305 9.29018e-09 5.24901e-08)
(0.000766086 2.50489e-08 4.51998e-08)
(0.00076449 -1.08902e-07 8.83377e-08)
(0.00076264 -1.92039e-07 5.58378e-08)
(0.000761142 -1.64011e-07 5.66784e-08)
(0.000760805 4.72188e-07 4.65142e-08)
(0.000760112 1.94943e-07 7.83941e-08)
(0.000758388 2.92545e-08 5.30959e-08)
(0.000756946 1.04999e-07 4.88337e-08)
(0.000755452 1.8785e-07 2.97469e-08)
(0.000753899 1.18328e-07 7.57998e-08)
(0.000752537 1.4455e-07 3.66007e-08)
(0.000751559 7.96076e-08 6.90411e-08)
(-0.0378831 0.00166544 0.00317814)
(-0.016388 -0.00817792 -0.00150366)
(-0.0878705 0.0091259 -0.00119801)
(0.0107894 -0.00167572 -0.00121494)
(-0.00104921 -0.02017 -0.000323435)
(0.000397997 -0.00817393 -0.000293832)
(0.00128298 -8.18162e-05 2.38099e-06)
(0.00047899 -1.71373e-05 -1.31651e-06)
(0.000883227 2.1757e-05 -1.13836e-06)
(0.000809396 4.52979e-06 -5.25294e-07)
(0.000817519 3.22747e-06 1.72186e-07)
(0.000810688 1.4132e-06 4.73043e-09)
(0.000807631 5.23147e-07 4.86727e-08)
(0.000804707 2.97736e-07 4.94293e-08)
(0.000802227 3.40601e-07 4.76796e-08)
(0.000799966 2.84819e-07 4.8282e-08)
(0.000798044 9.12542e-08 5.05815e-08)
(0.00079613 1.2094e-07 4.29829e-08)
(0.000794541 -1.3832e-07 6.77047e-08)
(0.000793061 -2.5115e-07 3.2186e-08)
(0.000791397 -2.13329e-07 6.17042e-08)
(0.000789818 -1.10112e-07 4.895e-08)
(0.000788149 -1.76193e-07 -1.15071e-08)
(0.000786486 -2.63088e-07 7.91621e-08)
(0.000785448 -3.74443e-07 -4.09103e-09)
(0.000783943 -2.0695e-07 7.19145e-08)
(0.000782052 1.28819e-07 6.18253e-08)
(0.000780876 3.21841e-07 8.60744e-08)
(0.000779827 1.01887e-06 7.31037e-08)
(0.00077844 7.39414e-07 2.46098e-08)
(0.000776674 8.30107e-07 4.45752e-09)
(0.000774924 7.84875e-07 -1.32018e-07)
(0.000773621 2.34736e-07 4.41877e-08)
(0.00077247 -7.34589e-08 5.41142e-08)
(0.000771163 6.42882e-08 4.75536e-08)
(0.000769919 2.98265e-08 3.73554e-08)
(0.000768505 7.74956e-09 3.43715e-08)
(0.000767293 -5.30727e-08 5.0075e-08)
(0.000765815 -3.89319e-07 -1.34235e-10)
(0.000764189 -3.69143e-07 3.33787e-08)
(0.00076303 -1.17714e-07 6.08019e-08)
(0.00076255 4.46108e-07 3.80178e-08)
(0.000760952 7.08499e-07 3.96453e-08)
(0.000759029 3.1499e-07 9.7777e-09)
(0.000758133 5.58174e-08 3.28005e-08)
(0.000756998 1.21544e-08 3.98135e-08)
(0.000755473 -4.69283e-09 7.20868e-08)
(0.000753974 7.93569e-08 1.30078e-08)
(0.000752538 2.29353e-07 3.65967e-08)
(0.000751404 2.22046e-07 4.19319e-08)
(-0.0146586 0.00224262 -0.000659932)
(-0.0133711 0.00833696 -0.000480913)
(-0.00422811 0.000348319 -0.00103849)
(0.00797776 0.0166481 -0.00341329)
(-0.000357567 -0.00262225 0.000180681)
(0.00294965 -0.00336184 -4.35729e-05)
(0.00178994 0.000406175 0.000138549)
(0.000442057 2.00846e-06 -2.01276e-06)
(0.000873707 1.20827e-05 -1.24042e-06)
(0.000805409 8.51253e-06 -6.20224e-07)
(0.000814789 5.69615e-06 1.69224e-07)
(0.00080869 3.48483e-06 2.59404e-07)
(0.000806543 2.46293e-06 1.16446e-07)
(0.000804542 1.37982e-06 4.91433e-08)
(0.000802088 5.90405e-07 -2.93082e-09)
(0.00079964 2.58627e-07 2.97211e-08)
(0.000797743 2.38551e-07 4.55632e-08)
(0.000796068 1.31749e-07 4.79589e-08)
(0.000794256 1.47607e-07 1.52847e-07)
(0.00079286 1.24048e-07 4.8166e-08)
(0.000791454 1.44481e-08 6.42048e-08)
(0.000789774 3.04112e-08 1.48499e-07)
(0.00078825 1.49497e-08 2.32047e-08)
(0.000786671 1.23073e-07 9.75495e-08)
(0.000785075 3.11191e-07 8.86372e-08)
(0.000783881 -1.41252e-07 1.58942e-08)
(0.000782628 7.88812e-08 6.72513e-08)
(0.000781193 1.27317e-07 6.04054e-09)
(0.000779578 1.54016e-07 6.35857e-09)
(0.000778021 8.36645e-08 3.53303e-08)
(0.000776843 1.4571e-07 5.66353e-08)
(0.00077516 -2.42759e-07 4.16949e-08)
(0.000773541 8.74329e-08 2.91231e-08)
(0.000772382 2.0008e-08 4.65038e-08)
(0.000771107 1.04277e-07 5.9178e-08)
(0.000769751 -4.54799e-08 5.45466e-08)
(0.000768413 -1.25486e-07 3.23e-08)
(0.00076681 -9.66472e-08 5.1569e-08)
(0.000765694 -1.3953e-07 1.07183e-07)
(0.000764832 3.51506e-08 8.14169e-08)
(0.000763659 3.12855e-07 4.89888e-08)
(0.000762172 5.28804e-07 1.50228e-07)
(0.000760636 8.70394e-08 5.43101e-08)
(0.000759293 1.57479e-07 3.38175e-08)
(0.000758007 4.88044e-08 5.58991e-08)
(0.00075687 -1.32719e-07 4.54307e-08)
(0.000755535 -3.74279e-07 -3.16019e-08)
(0.000754191 -3.54334e-07 -1.30129e-07)
(0.000752709 -3.09843e-07 5.75502e-09)
(0.000750997 9.37923e-08 9.35127e-08)
(0.000677377 -0.00567843 -0.000126314)
(-0.011055 0.0100661 -0.000465024)
(-0.00683671 0.00828084 0.000258682)
(0.00759855 0.00798579 -0.00117499)
(-0.00654603 0.00569844 0.000583268)
(0.00496238 -0.000219693 -6.25932e-05)
(0.00126243 -6.70034e-05 0.000145958)
(0.00043129 2.5979e-06 -2.34113e-06)
(0.000864206 1.48729e-05 -1.33675e-06)
(0.000801284 1.17501e-05 -5.04488e-07)
(0.000811212 7.6885e-06 1.66897e-07)
(0.000806633 5.05856e-06 1.58746e-08)
(0.000804993 3.51593e-06 3.34256e-08)
(0.000802362 2.1072e-06 4.21506e-08)
(0.000800825 1.07846e-06 6.34509e-08)
(0.000799527 5.4822e-07 8.18766e-08)
(0.000797886 3.41564e-07 4.81759e-08)
(0.000796016 1.555e-07 4.06292e-08)
(0.000794531 2.68016e-07 2.4196e-08)
(0.000792894 3.40077e-07 7.08159e-08)
(0.00079128 2.35722e-07 -7.5897e-08)
(0.000789819 1.43485e-07 9.10592e-08)
(0.000788264 1.02295e-07 6.93506e-08)
(0.000786855 6.43294e-08 5.58076e-08)
(0.000785117 5.28392e-08 2.05852e-08)
(0.000783652 2.2211e-07 4.58282e-08)
(0.000782388 -1.93246e-08 5.48822e-08)
(0.000780968 -1.89807e-07 6.1265e-08)
(0.00077977 -2.06034e-07 7.86473e-08)
(0.000778427 -4.07974e-07 7.96953e-08)
(0.000776265 -6.7172e-07 -3.82755e-09)
(0.000774849 -4.95445e-07 -1.3196e-08)
(0.000773949 -3.58755e-07 1.3884e-08)
(0.00077249 -2.15448e-07 1.30556e-08)
(0.000771081 -2.28667e-07 6.11113e-08)
(0.000769631 -8.04663e-08 4.13431e-08)
(0.000768442 -1.66038e-08 7.25853e-08)
(0.000767277 1.53892e-07 7.78695e-08)
(0.00076598 3.4423e-07 1.14734e-07)
(0.000764754 1.8948e-07 6.76998e-08)
(0.000763646 1.95494e-07 1.92041e-08)
(0.000762266 6.5547e-08 -1.55177e-08)
(0.000760487 7.73862e-08 1.82195e-08)
(0.000758982 1.04596e-08 4.96655e-08)
(0.000757771 3.02015e-08 3.57231e-08)
(0.000756472 -1.50389e-07 4.55084e-08)
(0.0007552 -4.9385e-07 -3.26454e-07)
(0.000754058 -5.23206e-07 5.87763e-08)
(0.000753099 -4.56655e-07 1.22099e-07)
(0.000751673 -1.68747e-07 1.79291e-07)
(0.00910661 0.000446947 -0.00013384)
(-0.0145003 -0.00554188 -0.0052245)
(-0.128528 0.00017833 0.00336117)
(-0.00320025 -0.00313904 0.000934573)
(-0.000771411 -0.0094845 -6.71561e-05)
(0.00077006 0.00329952 7.92016e-05)
(0.00245066 -0.000369259 0.000161074)
(0.000479503 1.45713e-05 -5.45572e-07)
(0.000850583 9.86098e-06 -1.40757e-06)
(0.000796067 1.36961e-05 -4.68489e-07)
(0.000806344 7.52204e-06 1.46951e-07)
(0.000803421 5.27751e-06 4.75521e-09)
(0.000802819 3.15727e-06 4.68591e-08)
(0.000801473 2.15853e-06 4.67767e-08)
(0.000800127 1.56529e-06 5.05247e-08)
(0.000798711 1.05923e-06 5.231e-08)
(0.000797248 5.08048e-07 5.50791e-08)
(0.000795974 2.61798e-07 7.72156e-08)
(0.000794484 1.16162e-07 3.53129e-08)
(0.000792817 1.00766e-07 5.74522e-08)
(0.000791206 2.16684e-07 4.89391e-08)
(0.000789605 1.59299e-07 4.86051e-08)
(0.000788149 2.24395e-07 -4.24733e-08)
(0.000786607 6.27115e-08 5.3369e-08)
(0.000785271 -2.42982e-09 4.82699e-09)
(0.00078379 2.57227e-07 1.88824e-07)
(0.000782113 7.85694e-09 5.31669e-08)
(0.000780961 -4.19573e-08 6.80264e-08)
(0.000779309 -4.2526e-07 2.95627e-08)
(0.000777443 -7.45667e-07 4.05356e-08)
(0.000776739 -6.8327e-07 1.27741e-07)
(0.000775556 -1.94843e-07 6.26974e-08)
(0.000773894 -1.9246e-07 4.33391e-08)
(0.000772548 -1.76676e-07 3.38364e-08)
(0.000771278 -1.9601e-07 1.2487e-07)
(0.000770018 -5.63013e-08 1.06112e-07)
(0.000768706 7.07137e-08 4.94555e-08)
(0.00076726 9.52605e-08 7.17298e-08)
(0.000765737 1.55155e-07 4.42181e-08)
(0.000764644 3.19972e-07 6.55405e-09)
(0.000763503 4.64846e-08 4.30953e-08)
(0.000762023 -2.07303e-07 4.1917e-09)
(0.000760567 -2.61843e-07 5.97522e-08)
(0.000759233 -1.49768e-07 4.93421e-08)
(0.000757807 -9.07722e-08 1.25419e-09)
(0.000756217 -6.80348e-10 4.77397e-08)
(0.000755073 -2.15195e-08 9.78729e-09)
(0.000754243 -3.01082e-07 6.94354e-08)
(0.000753161 -1.49771e-07 2.17824e-07)
(0.000751777 -3.12547e-07 4.88139e-10)
(-0.00480427 0.00692076 -0.000438882)
(-0.00648169 -0.00971425 -0.000297026)
(0.000913467 -0.00310171 0.000192621)
(-0.0172426 0.00925529 0.00059845)
(0.0339798 -0.00854022 0.000649833)
(-8.16751e-05 -0.00877971 -0.000224944)
(0.000725232 0.000185354 8.20804e-06)
(0.000825802 7.21079e-05 -3.09648e-06)
(0.000790615 1.21171e-05 -4.45093e-07)
(0.000798309 1.24162e-05 -8.74624e-08)
(0.000800565 5.96921e-06 -7.45192e-09)
(0.0008011 3.86276e-06 2.40778e-08)
(0.000801043 2.3378e-06 4.23223e-08)
(0.000800339 1.4818e-06 4.50146e-08)
(0.000799429 1.00392e-06 4.85405e-08)
(0.000798191 7.47247e-07 4.96392e-08)
(0.00079688 6.36026e-07 1.30122e-07)
(0.000795521 5.43906e-07 7.39667e-08)
(0.000794327 3.09299e-07 -1.70065e-07)
(0.000793017 2.53301e-07 3.15986e-08)
(0.000791352 8.6689e-08 4.62221e-08)
(0.000789826 1.23993e-07 5.05319e-08)
(0.000788143 -2.17975e-09 2.79767e-08)
(0.000786571 3.46345e-08 4.8903e-08)
(0.000785359 -4.22243e-08 4.08353e-08)
(0.000783664 -2.35284e-07 4.87796e-08)
(0.000782013 3.88501e-09 -4.2915e-09)
(0.000780429 7.46194e-08 5.45145e-08)
(0.000778895 -1.40878e-07 2.70224e-08)
(0.000778111 3.19821e-07 7.04391e-08)
(0.000776958 4.49949e-07 8.68538e-08)
(0.000775466 1.54911e-07 7.67085e-08)
(0.000773974 2.62125e-07 4.73938e-08)
(0.000772487 7.02129e-08 4.56191e-08)
(0.000771233 7.10349e-08 4.87163e-08)
(0.000769966 -2.15724e-07 2.79288e-08)
(0.000768632 -2.22932e-07 5.73491e-08)
(0.000767382 -2.79734e-07 -7.25788e-09)
(0.00076626 3.6942e-08 3.71011e-08)
(0.000764617 1.3589e-07 7.60982e-08)
(0.000762986 -3.79105e-08 1.25518e-08)
(0.000761882 -8.12688e-08 4.66631e-08)
(0.000760561 -1.16681e-07 5.23884e-08)
(0.000759197 -1.15911e-07 4.88522e-08)
(0.000757959 -6.5826e-08 5.57925e-08)
(0.000756559 9.54688e-08 4.43587e-08)
(0.000754825 4.89932e-07 5.59903e-08)
(0.0007539 5.60267e-07 6.96887e-08)
(0.000753094 1.08486e-07 1.78631e-09)
(0.000752249 -8.04364e-08 9.68483e-08)
(-0.000174056 -0.00101258 0.000389142)
(0.00568502 -0.0070179 -0.000173165)
(-0.000474045 -0.0041173 4.79163e-05)
(0.00200782 0.00233493 0.00113073)
(0.0157123 -0.0183527 -0.00662247)
(0.00588148 0.000815966 0.000401836)
(0.000278564 6.74832e-05 1.67333e-05)
(0.000742984 -7.2882e-06 -1.61266e-06)
(0.000765448 -2.60731e-06 1.98539e-07)
(0.000788141 3.56537e-07 2.17387e-07)
(0.000795501 2.02371e-07 1.09288e-07)
(0.000798792 3.55871e-07 1.62689e-08)
(0.000799787 2.2529e-07 5.63458e-08)
(0.000799771 -9.18194e-08 5.67012e-08)
(0.000799187 8.65306e-08 5.49427e-08)
(0.000798237 2.09389e-07 1.30864e-07)
(0.000796984 3.16091e-07 7.17449e-08)
(0.000795558 2.0003e-07 1.11513e-09)
(0.000794116 4.16429e-07 6.93273e-08)
(0.000792536 3.70703e-07 8.02397e-08)
(0.000791043 1.7302e-07 4.79164e-08)
(0.000789494 -7.68599e-08 2.49322e-08)
(0.000788038 -1.45824e-07 2.04487e-08)
(0.000786559 -1.41187e-07 5.08849e-08)
(0.000784936 -1.69366e-07 6.22856e-08)
(0.00078385 -3.82345e-07 6.39482e-08)
(0.000782502 -1.18744e-07 2.91607e-08)
(0.000780781 -4.56914e-08 4.43232e-08)
(0.000779615 2.24234e-07 8.94031e-08)
(0.00077818 4.56405e-07 4.29876e-08)
(0.00077653 3.57777e-07 1.54394e-07)
(0.000775319 1.84358e-07 6.06047e-08)
(0.000773787 -3.74127e-08 8.45917e-08)
(0.000772308 -1.12361e-07 -2.00947e-08)
(0.000770921 -1.20468e-07 2.50775e-08)
(0.000769651 -1.03957e-07 1.33173e-07)
(0.000768629 -1.20612e-07 7.22283e-08)
(0.000767586 -1.91572e-07 5.24238e-08)
(0.000766257 -4.3077e-07 8.28163e-08)
(0.000764551 -6.70684e-07 3.49849e-08)
(0.000763232 -2.68238e-07 4.55975e-08)
(0.000761926 -1.44802e-07 -1.65452e-08)
(0.000760525 -3.17862e-08 4.24992e-08)
(0.000759298 1.13392e-07 4.06777e-08)
(0.000758072 1.2397e-07 5.30051e-08)
(0.00075691 1.2753e-07 5.02393e-08)
(0.000755651 3.14279e-07 2.57789e-08)
(0.000753763 1.01449e-06 2.90293e-08)
(0.00075236 6.66988e-07 -1.03841e-07)
(0.000751739 3.69407e-07 9.16666e-08)
(0.00232359 -0.00895722 -0.000335443)
(0.0048465 -0.00274345 -0.000209941)
(-0.00504174 -0.00154582 0.000819379)
(-0.00696667 -0.014953 0.000846247)
(-0.0305178 0.0310657 -0.00048657)
(0.0722184 -0.00259839 0.00351709)
(0.000552308 -0.000203088 -1.62226e-06)
(0.000856373 -4.29011e-05 -2.20538e-06)
(0.000801635 -2.46115e-05 1.86554e-07)
(0.000801633 -1.29044e-05 1.44673e-07)
(0.000800453 -7.40003e-06 1.32775e-07)
(0.000801064 -4.4636e-06 2.896e-07)
(0.000800445 -2.69792e-06 3.86894e-07)
(0.000800144 -1.25409e-06 7.94917e-08)
(0.000799792 -7.59609e-07 7.02328e-08)
(0.000798469 -3.76743e-07 4.77991e-08)
(0.000796862 -3.13039e-07 4.93907e-08)
(0.000795641 -6.35421e-08 9.38788e-08)
(0.000794536 -1.36989e-07 6.4294e-08)
(0.00079271 -3.88279e-07 -7.97051e-09)
(0.000790791 -2.70024e-07 6.95587e-08)
(0.000789428 -1.66126e-07 7.31891e-08)
(0.000788064 -7.11704e-08 5.46253e-08)
(0.000786544 -6.8277e-08 4.79156e-08)
(0.000785061 5.54179e-08 -6.72321e-08)
(0.000783731 1.53525e-07 -4.13962e-08)
(0.000782437 -9.52961e-08 6.36801e-08)
(0.000780858 1.34631e-08 4.54369e-08)
(0.000779522 1.92851e-07 -8.36302e-08)
(0.000778275 -1.88365e-07 9.03739e-08)
(0.000776616 -1.46377e-07 6.65961e-08)
(0.000774971 -2.00351e-07 4.23459e-08)
(0.000773603 -5.21809e-07 2.39201e-08)
(0.000772385 -4.61716e-07 1.61162e-07)
(0.000771245 -1.43172e-07 3.94594e-08)
(0.000769967 1.64021e-07 -2.52372e-08)
(0.000768524 1.2758e-07 3.74082e-08)
(0.000766997 -3.09966e-08 4.87091e-08)
(0.000765665 -3.7007e-07 1.00844e-08)
(0.000764824 -4.92661e-07 6.43535e-08)
(0.000763646 -2.46862e-07 6.31074e-08)
(0.000762179 -2.10926e-07 2.24313e-08)
(0.000760884 -1.24252e-07 8.89527e-08)
(0.000759391 1.05501e-07 3.79747e-08)
(0.000757975 1.4783e-07 -3.10888e-08)
(0.000756795 2.19195e-07 3.41099e-08)
(0.000755929 4.34379e-08 3.99927e-08)
(0.000754334 5.47067e-08 1.67406e-08)
(0.000752273 4.73081e-07 -5.52875e-08)
(0.000750959 2.64637e-07 6.61543e-08)
(0.00341035 -0.0204205 0.000400753)
(0.011327 -0.00812828 -0.000851343)
(0.0099693 0.00602892 -0.00547367)
(0.0047618 -0.0307046 0.0238676)
(0.00319285 0.00672959 -0.000511875)
(0.00302585 -0.00460882 -8.68842e-05)
(0.00143698 0.000189077 -9.52538e-07)
(0.00138768 -5.09122e-05 3.35846e-07)
(0.00131864 -4.50326e-05 3.15434e-07)
(0.00133577 -3.04132e-05 3.43297e-07)
(0.00133366 -1.95627e-05 3.78357e-07)
(0.00133373 -1.25512e-05 3.30753e-07)
(0.00133376 -7.82577e-06 2.59121e-07)
(0.00133201 -4.31403e-06 2.78111e-07)
(0.00132938 -2.75249e-06 3.42811e-07)
(0.00132725 -1.88885e-06 2.65774e-07)
(0.00132508 -1.12336e-06 3.34425e-07)
(0.00132255 -3.4127e-07 3.17994e-07)
(0.00131926 -4.85953e-07 1.65794e-07)
(0.00131701 -7.30038e-07 3.42379e-07)
(0.00131523 -5.6509e-07 2.17899e-07)
(0.00131259 -6.44523e-08 1.65459e-07)
(0.00130995 -1.54722e-08 3.34863e-07)
(0.00130758 9.40077e-08 2.83158e-07)
(0.00130509 4.43219e-07 2.43889e-07)
(0.00130254 6.38857e-07 2.86483e-07)
(0.00130034 4.34089e-07 2.3517e-07)
(0.00129839 2.12274e-07 3.24391e-07)
(0.00129538 5.03367e-07 3.83236e-07)
(0.00129262 -3.59545e-07 3.67077e-07)
(0.00129054 -1.04586e-06 2.40657e-07)
(0.00128775 -8.33591e-07 9.94011e-08)
(0.00128548 -4.36176e-07 3.66136e-07)
(0.00128436 1.84269e-07 2.21768e-07)
(0.00128253 2.92741e-07 3.08622e-07)
(0.00127967 2.47881e-07 3.13837e-07)
(0.00127689 2.18264e-07 3.17253e-07)
(0.0012744 3.75718e-07 2.42163e-07)
(0.0012724 7.53565e-07 1.51446e-07)
(0.00127082 7.08432e-07 4.19409e-07)
(0.0012688 1.83172e-07 2.79367e-07)
(0.00126627 -1.46524e-08 2.445e-07)
(0.00126446 -5.22456e-07 3.64028e-07)
(0.0012622 -5.41539e-07 6.88343e-07)
(0.00125974 -2.39754e-07 3.30078e-07)
(0.00125741 -2.47882e-07 1.47731e-07)
(0.00125513 -2.22731e-07 2.90378e-07)
(0.00125323 -7.54609e-07 4.69088e-07)
(0.0012504 -5.93644e-07 2.18728e-07)
(0.00124742 -4.18157e-07 3.40765e-07)
(-0.0310104 0.00701005 0.00770665)
(-0.0192814 -0.00175253 0.0936771)
(-0.0225155 -0.0318558 0.00593097)
(0.0502266 0.00925358 0.00670778)
(0.0223863 -0.00711716 -0.00219736)
(-0.013808 -0.0262761 0.00116918)
(0.00131404 -0.000423849 7.46036e-05)
(0.00140661 -0.000113493 3.40628e-07)
(0.00132998 -5.8488e-05 4.06669e-07)
(0.00134925 -3.67012e-05 3.3815e-07)
(0.00134474 -2.19971e-05 3.37821e-07)
(0.00134165 -1.34804e-05 3.37071e-07)
(0.00133812 -8.34824e-06 3.36298e-07)
(0.00133471 -5.70162e-06 3.34189e-07)
(0.00133144 -3.5699e-06 3.3368e-07)
(0.00132867 -2.47516e-06 2.79933e-07)
(0.00132617 -1.54135e-06 3.30043e-07)
(0.00132311 -1.39338e-06 6.62719e-08)
(0.00131998 -6.22149e-07 2.46283e-07)
(0.00131737 -2.9944e-08 3.00224e-07)
(0.00131516 2.34914e-07 3.47083e-07)
(0.00131276 1.30811e-08 1.06564e-07)
(0.00131005 3.32222e-07 3.09544e-07)
(0.0013079 4.5946e-07 2.92232e-07)
(0.0013055 5.93963e-07 3.17385e-07)
(0.00130263 1.95333e-07 5.75845e-07)
(0.0013 3.34928e-08 4.94159e-07)
(0.00129796 -3.57374e-07 3.24641e-07)
(0.00129494 -1.46186e-06 3.64132e-07)
(0.00129165 -8.05496e-07 3.52975e-07)
(0.00129017 -7.51866e-07 3.60303e-07)
(0.00128871 -3.99834e-07 3.02774e-07)
(0.0012869 7.26243e-07 6.28514e-07)
(0.00128452 1.15618e-06 3.92158e-07)
(0.00128176 3.98606e-07 3.06483e-07)
(0.00127947 1.68757e-07 3.39601e-07)
(0.00127736 1.79157e-07 3.60092e-07)
(0.00127529 4.03538e-07 3.74378e-07)
(0.0012728 7.42678e-07 3.13868e-07)
(0.00127023 8.93662e-07 3.39304e-07)
(0.00126797 3.25699e-07 3.22863e-07)
(0.00126562 -3.34053e-07 3.51469e-07)
(0.00126359 -8.45192e-07 2.42216e-07)
(0.00126213 -6.40342e-07 1.8676e-07)
(0.00125988 -3.06625e-07 3.46218e-07)
(0.00125743 -3.43444e-07 2.54109e-07)
(0.00125525 -2.07704e-08 3.51701e-07)
(0.00125285 -2.62162e-07 2.52485e-07)
(0.00125041 -5.65994e-07 1.62576e-07)
(0.00124885 -4.0754e-07 2.16085e-07)
(-0.0210639 0.00611008 0.00240316)
(-0.00409729 -0.00393619 -0.00419255)
(0.0633975 0.0223964 -0.0616227)
(-0.0161305 0.0143121 -0.00313571)
(0.00133268 0.00656527 -0.000882682)
(-0.0012071 -0.00199628 -0.00188529)
(0.00131413 -0.000498826 8.33401e-05)
(0.00153887 -0.000122465 4.46038e-07)
(0.00141429 -1.53786e-05 -3.03591e-08)
(0.00138189 -2.34252e-05 3.40294e-07)
(0.00136299 -1.24358e-05 4.37886e-07)
(0.00135098 -8.4472e-06 3.40077e-07)
(0.00134359 -5.45178e-06 3.48171e-07)
(0.00133805 -3.59294e-06 3.36175e-07)
(0.00133346 -2.304e-06 3.34442e-07)
(0.00132981 -1.45292e-06 3.31882e-07)
(0.00132645 -1.14726e-06 3.33234e-07)
(0.00132372 -9.94634e-07 3.14458e-07)
(0.00132098 -8.80818e-07 3.76688e-07)
(0.00131809 -3.66506e-07 3.18702e-07)
(0.00131528 -1.46065e-07 4.67436e-07)
(0.00131271 -8.81763e-08 3.25051e-07)
(0.00131051 -6.30467e-08 3.36981e-07)
(0.0013079 -7.13043e-08 -2.8429e-07)
(0.00130476 -5.76507e-07 4.43162e-07)
(0.00130184 -9.04618e-08 3.60101e-07)
(0.00129964 -2.81944e-07 3.02254e-07)
(0.00129652 -2.05907e-07 3.16437e-07)
(0.00129483 -3.82318e-07 -8.13933e-09)
(0.00129352 6.93665e-07 2.13505e-07)
(0.00129105 1.30274e-06 3.25749e-07)
(0.0012896 1.20053e-06 3.12661e-07)
(0.00128742 6.76062e-07 7.97622e-07)
(0.00128394 2.97778e-07 4.10567e-07)
(0.00128129 1.10725e-07 -7.47657e-08)
(0.00127939 1.69166e-07 3.27362e-07)
(0.00127719 1.5633e-07 2.75504e-07)
(0.0012751 2.13754e-08 3.4489e-07)
(0.00127301 2.04132e-10 3.29014e-07)
(0.00127029 -1.57955e-07 4.07934e-07)
(0.00126726 -2.72146e-07 3.72498e-07)
(0.00126481 -1.85718e-07 3.36791e-07)
(0.00126408 8.53817e-07 2.70534e-07)
(0.00126288 4.80734e-07 2.71118e-07)
(0.00126012 2.11909e-07 1.65375e-07)
(0.00125777 3.04949e-07 3.05084e-07)
(0.00125524 4.12895e-07 3.00358e-07)
(0.00125255 2.82638e-07 3.38339e-07)
(0.00125023 2.54826e-07 2.97159e-07)
(0.00124864 1.42218e-07 2.98674e-07)
(-0.115919 0.0154559 0.0390841)
(-0.0567567 -0.0489031 -0.0369329)
(-0.0346975 0.0192834 -0.00306769)
(0.0235636 -0.0160673 0.000252608)
(-0.000793757 0.000232866 0.00122579)
(-0.0017062 0.00868734 -0.00182711)
(0.000847408 -0.000264493 -6.37404e-05)
(0.00146604 -7.79084e-05 4.75315e-07)
(0.00148158 2.92151e-05 3.16578e-07)
(0.0013534 2.61492e-06 2.81683e-07)
(0.00136372 2.00131e-06 3.42938e-07)
(0.00135053 1.57051e-07 3.08425e-07)
(0.00134428 -5.54055e-07 3.09462e-07)
(0.00133871 -4.23777e-07 3.36087e-07)
(0.00133416 -3.58856e-08 3.33705e-07)
(0.00133014 9.93674e-08 3.32195e-07)
(0.00132676 -8.1152e-08 3.32028e-07)
(0.00132346 5.2142e-08 3.06041e-07)
(0.00132077 -2.96531e-07 3.6101e-07)
(0.00131829 -4.67686e-07 3.08198e-07)
(0.00131551 -4.21071e-07 3.22152e-07)
(0.00131286 -2.38871e-07 3.28767e-07)
(0.00131008 -3.96795e-07 2.65924e-07)
(0.00130726 -4.66943e-07 3.92248e-07)
(0.00130548 -6.33397e-07 1.87697e-07)
(0.001303 -3.41332e-07 3.06521e-07)
(0.00129986 2.2572e-07 3.91501e-07)
(0.00129783 5.99548e-07 4.26315e-07)
(0.00129607 1.7532e-06 3.41074e-07)
(0.00129375 1.30234e-06 4.6561e-07)
(0.0012908 1.3934e-06 2.95622e-07)
(0.00128792 1.3566e-06 1.28293e-07)
(0.00128577 3.90486e-07 3.17778e-07)
(0.00128381 -1.00711e-07 3.31277e-07)
(0.00128159 1.31639e-07 3.33256e-07)
(0.00127953 4.73231e-08 3.02031e-07)
(0.00127718 -1.45563e-08 2.99239e-07)
(0.00127509 -1.16443e-07 3.30063e-07)
(0.00127258 -6.55441e-07 2.0172e-07)
(0.00126989 -6.19264e-07 2.21995e-07)
(0.00126794 -1.66073e-07 2.96657e-07)
(0.00126702 7.28841e-07 3.63929e-07)
(0.00126442 1.15907e-06 3.61468e-07)
(0.00126132 6.16404e-07 2.07348e-07)
(0.00125965 1.46169e-07 2.07831e-07)
(0.00125768 6.00408e-08 3.13252e-07)
(0.00125521 -1.73819e-08 3.64208e-07)
(0.00125265 1.4013e-07 6.44306e-08)
(0.00125023 3.69093e-07 3.06042e-07)
(0.00124836 3.90154e-07 2.18032e-07)
(0.0172451 -0.0278153 -0.070789)
(-0.0171541 0.00721994 -0.00493109)
(-0.0104636 0.0332801 -0.010286)
(0.0160936 -0.00461075 -0.0258472)
(-0.00526281 0.00833778 -0.00229528)
(0.00813653 0.00612782 -0.00104351)
(0.00112875 0.000233163 -0.000121694)
(0.00135475 3.41956e-06 -2.42627e-07)
(0.00146655 2.01158e-05 5.87521e-07)
(0.00134747 1.37643e-05 3.81811e-07)
(0.00136002 9.10031e-06 3.63706e-07)
(0.00134785 5.47855e-06 9.37622e-07)
(0.00134292 3.85989e-06 3.28311e-07)
(0.00133873 2.14747e-06 3.35453e-07)
(0.00133413 9.17505e-07 3.06513e-07)
(0.00132977 4.10506e-07 3.17708e-07)
(0.00132639 3.8253e-07 3.31502e-07)
(0.00132345 2.08031e-07 3.30981e-07)
(0.00132033 2.74462e-07 4.40081e-07)
(0.00131794 2.40272e-07 3.01815e-07)
(0.00131557 2.10443e-08 3.62293e-07)
(0.00131275 5.71939e-08 4.45874e-07)
(0.00131023 3.09416e-08 3.3583e-07)
(0.00130761 1.62628e-07 3.73104e-07)
(0.00130492 4.88408e-07 2.73413e-07)
(0.00130291 -2.80152e-07 3.15758e-07)
(0.00130082 1.2385e-07 3.76946e-07)
(0.00129842 2.41261e-07 2.85016e-07)
(0.00129569 3.46385e-07 5.54047e-07)
(0.00129305 2.26739e-07 4.97753e-07)
(0.0012911 2.65051e-07 3.34824e-07)
(0.00128834 -3.53237e-07 3.13359e-07)
(0.00128559 2.11417e-07 2.95414e-07)
(0.00128361 7.17681e-08 3.17618e-07)
(0.00128148 1.92489e-07 3.16825e-07)
(0.00127921 -6.99751e-08 3.27289e-07)
(0.00127698 -2.22609e-07 2.89205e-07)
(0.00127431 -1.99917e-07 3.18402e-07)
(0.00127238 -2.67091e-07 4.48176e-07)
(0.0012709 3.37831e-09 3.11186e-07)
(0.00126894 4.68753e-07 3.10556e-07)
(0.00126646 7.94946e-07 5.23979e-07)
(0.00126394 1.24752e-07 2.97406e-07)
(0.0012616 1.90654e-07 -3.24521e-08)
(0.00125942 -4.95499e-08 3.72335e-07)
(0.00125756 -2.84337e-07 3.13394e-07)
(0.00125534 -7.20436e-07 1.31588e-07)
(0.00125303 -7.11291e-07 8.35239e-08)
(0.00125054 -5.01832e-07 3.1729e-07)
(0.00124769 1.59612e-07 4.20326e-07)
(-0.00252121 -0.00398849 0.000454894)
(-0.0118563 -0.00419595 0.000457799)
(-0.000736113 0.0120188 0.00190547)
(0.00292951 -0.00857574 0.000643798)
(0.00461552 -0.00751376 0.00385214)
(-0.000869793 0.00725341 3.85232e-06)
(0.0012549 -0.000858214 -6.21021e-05)
(0.00131751 1.86011e-05 -3.43473e-07)
(0.00144911 3.01739e-05 5.5138e-07)
(0.00133945 2.32574e-05 3.99009e-07)
(0.00135335 1.52775e-05 2.99537e-07)
(0.00134398 1.00004e-05 3.18542e-07)
(0.00134012 6.86856e-06 1.28646e-07)
(0.00133503 4.16483e-06 3.32446e-07)
(0.00133199 2.24879e-06 3.6394e-07)
(0.00132948 1.20972e-06 3.52299e-07)
(0.00132651 7.60303e-07 3.3147e-07)
(0.00132332 4.03127e-07 3.39407e-07)
(0.00132081 5.1235e-07 2.92906e-07)
(0.00131797 6.30885e-07 3.76338e-07)
(0.00131528 4.59847e-07 1.83278e-07)
(0.00131288 2.94642e-07 3.36738e-07)