/*--------------------------------*- C++ -*----------------------------------*\
| =========                 |                                                 |
| \\      /  F ield         | OpenFOAM: The Open Source CFD Toolbox           |
|  \\    /   O peration     | Version:  5.0                                   |
|   \\  /    A nd           | Web:      www.OpenFOAM.org                      |
|    \\/     M anipulation  |                                                 |
\*---------------------------------------------------------------------------*/
FoamFile
{
    version     2.0;
    format      ascii;
    class       surfaceVectorField;
    location    "1.5";
    object      Uf;
}
// * * * * * * * * * * * * * * * * * * * * * * * * * * * * * * * * * * * * * //

dimensions      [0 1 -1 0 0 0 0];

internalField   nonuniform List<vector> 
23578
(
(-0.00838275 -0.00322991 0.000267248)
(-0.00453422 -0.00928631 0.000547073)
(-0.00255512 -0.00821207 0.00115768)
(-0.00378514 -0.00454688 -0.000130004)
(-0.000183778 -0.00195172 -6.25135e-05)
(0.0057626 -0.00950684 -0.00011592)
(0.003832 -0.00523762 3.88564e-05)
(-0.00723574 -0.00525337 0.00124813)
(0.00387586 0.00720054 -0.000520809)
(0.00577494 -0.000116603 -0.000898816)
(0.027304 0.00703892 -0.00241084)
(0.00181011 0.00812681 0.00618393)
(0.011417 0.004284 0.0028588)
(-0.000296295 0.00265596 -1.44665e-05)
(0.0081367 -0.0205258 0.00225671)
(0.00331538 -0.00760619 0.000330145)
(0.00319499 -0.0181756 0.00221005)
(0.00585904 -0.0268886 0.000715372)
(0.00815952 0.00331177 0.000106587)
(0.0246281 -0.000236807 0.00039389)
(0.00964461 0.00848754 -0.000191175)
(-0.000299755 -0.013021 0.00157031)
(0.0152477 -0.0321499 -0.000638502)
(-0.00442197 -0.0164555 0.00535845)
(0.0114963 -0.0365952 -0.00116471)
(0.00202243 -0.00126423 0.000149186)
(0.00172499 -0.00129387 5.22969e-05)
(0.000783636 -0.000476841 0.00011182)
(0.00100739 -0.00275245 1.04589e-05)
(0.000400566 -7.65569e-05 -1.26391e-06)
(0.000466601 -8.10242e-05 -2.80519e-06)
(0.000485503 -2.79379e-05 -1.35907e-06)
(0.000806015 -0.000112636 1.97858e-08)
(0.000355937 -4.09412e-05 7.46129e-07)
(0.00077793 -0.000134252 5.79869e-06)
(0.000667291 -4.7357e-05 7.90014e-06)
(0.000751726 -6.55249e-05 -1.1614e-06)
(0.000803224 -8.41216e-05 -1.48942e-06)
(0.00105094 -0.000105772 -1.27791e-06)
(0.000546181 -8.23429e-05 -3.52719e-06)
(0.000553062 -6.09515e-05 -4.05703e-06)
(0.000928375 -0.000139218 -3.79309e-06)
(0.000929612 -9.82821e-05 -4.57819e-06)
(0.000758827 -3.91365e-05 -9.95485e-08)
(0.0007594 -5.24957e-05 -2.14878e-07)
(0.00100015 -6.52676e-05 5.10221e-08)
(0.00076655 -2.25746e-05 1.0222e-07)
(0.000773464 -3.28376e-05 1.6176e-07)
(0.0010219 -3.76067e-05 1.84122e-07)
(0.000771747 -1.33021e-05 7.874e-08)
(0.000775424 -2.01245e-05 8.95963e-08)
(0.00102803 -2.20219e-05 1.64353e-07)
(0.000775465 -7.95295e-06 3.74997e-08)
(0.000777822 -1.23351e-05 7.26941e-08)
(0.0010339 -1.32415e-05 1.70463e-07)
(0.000777538 -4.59859e-06 -2.25198e-09)
(0.000779083 -7.55921e-06 3.7287e-08)
(0.00103769 -7.91051e-06 1.80032e-07)
(0.000777476 -2.58988e-06 1.95648e-08)
(0.000779116 -4.8083e-06 2.06038e-08)
(0.00103878 -4.34598e-06 1.69076e-07)
(0.0007771 -1.50172e-06 1.4421e-07)
(0.000778397 -2.86735e-06 5.27669e-08)
(0.00103822 -2.57686e-06 1.78834e-07)
(0.000776701 -9.15086e-07 1.45803e-07)
(0.000777562 -2.11856e-06 1.42402e-07)
(0.00103767 -1.47279e-06 1.75158e-07)
(0.0007757 -6.16225e-07 6.75582e-08)
(0.000776478 -1.06917e-06 5.39062e-08)
(0.00103667 -1.00219e-06 1.75032e-07)
(0.000774558 -3.16521e-07 6.36599e-08)
(0.000775387 -6.95827e-07 8.01394e-08)
(0.00103527 -6.23405e-07 1.74922e-07)
(0.000772797 -1.93359e-07 9.809e-08)
(0.000773887 3.8039e-07 9.42206e-08)
(0.00103318 -2.09556e-07 1.19368e-07)
(0.000771427 -2.77438e-07 1.28823e-07)
(0.000772241 -3.38835e-07 8.61554e-08)
(0.00103109 -3.3938e-07 1.69566e-07)
(0.000770387 -2.25853e-07 9.73116e-08)
(0.000770987 -1.18828e-08 1.01657e-07)
(0.00102963 -3.98988e-07 1.87681e-07)
(0.00076883 -1.19935e-07 4.2523e-08)
(0.000769587 3.89944e-08 7.55692e-08)
(0.0010278 -1.35768e-07 1.94705e-07)
(0.000767287 -3.89344e-08 2.18393e-08)
(0.000768099 2.16707e-07 1.47389e-08)
(0.00102568 -9.12964e-08 1.61009e-07)
(0.000765759 1.18803e-07 5.90448e-08)
(0.00076675 -4.11657e-08 5.29084e-08)
(0.00102371 6.15196e-08 1.71481e-07)
(0.000764517 3.29789e-07 7.86227e-08)
(0.000765367 -1.09298e-06 1.27813e-08)
(0.00102184 3.23821e-07 2.13213e-07)
(0.000763275 3.59508e-07 7.17055e-08)
(0.000763821 -1.74243e-06 5.0718e-08)
(0.00102016 6.30538e-07 1.99754e-07)
(0.000761792 2.27643e-07 5.60361e-08)
(0.00076232 -1.86564e-07 3.69907e-08)
(0.00101835 3.79391e-07 2.02373e-07)
(0.000760346 2.62326e-07 1.04288e-07)
(0.000761043 1.05202e-07 4.93221e-08)
(0.00101655 2.40424e-07 1.73961e-07)
(0.000758841 1.30697e-07 1.81676e-07)
(0.000759451 -3.14284e-07 1.00481e-07)
(0.00101444 4.33595e-07 2.71708e-08)
(0.00075748 -2.40427e-07 1.39581e-07)
(0.000757868 1.06063e-07 1.38587e-07)
(0.00101246 -1.48784e-07 1.50571e-07)
(0.000755637 -4.31137e-07 4.35892e-08)
(0.00075654 -6.00992e-07 -2.23297e-08)
(0.00101044 -5.97429e-07 3.53329e-07)
(0.00075449 -3.59424e-07 4.70563e-08)
(0.000755152 -4.60266e-07 1.52796e-08)
(0.00100831 -6.33543e-07 3.08102e-07)
(0.000753197 -1.23482e-07 9.74388e-08)
(0.00075397 -4.92179e-07 1.03214e-07)
(0.0010067 -3.40444e-07 1.71029e-07)
(0.000752203 8.65926e-08 7.92337e-08)
(0.000752905 -1.77895e-06 2.13533e-07)
(0.00100539 4.47497e-08 2.61363e-07)
(0.000750676 1.46108e-07 6.6238e-08)
(0.000751468 2.39814e-07 4.66685e-08)
(0.00100374 2.43044e-07 1.66854e-07)
(0.000749161 1.04554e-07 6.07142e-08)
(0.000749877 6.45846e-08 6.26407e-08)
(0.00100161 2.06143e-07 1.89851e-07)
(0.000747682 1.64111e-07 3.22985e-08)
(0.000748581 2.19601e-07 4.04627e-08)
(0.000999574 1.28167e-07 1.6879e-07)
(0.000746052 3.92608e-07 5.46938e-08)
(0.000747223 3.14259e-07 1.7451e-08)
(0.000997377 3.45277e-07 1.39946e-07)
(0.00074571 3.4694e-07 7.87501e-08)
(0.000745836 -2.04644e-06 6.9533e-08)
(0.00099616 7.32455e-07 2.00707e-07)
(0.000743952 7.22449e-08 5.29507e-08)
(0.000744479 3.23083e-07 1.25307e-07)
(0.000994906 2.59323e-07 1.71358e-07)
(0.00074255 -2.93039e-08 5.23122e-08)
(0.000743078 4.82646e-08 9.71314e-09)
(0.000992714 3.57583e-09 1.65541e-07)
(0.00074125 -3.40871e-07 8.46542e-08)
(0.000741616 -8.86324e-08 7.21817e-08)
(0.000990784 -5.39263e-08 1.55747e-07)
(0.000740623 -6.30297e-07 5.20038e-08)
(0.000740568 1.5058e-06 8.32688e-08)
(0.000989759 -8.14675e-07 1.58877e-07)
(0.000738332 -4.84981e-07 2.04708e-08)
(0.000739514 2.60488e-06 6.49736e-08)
(0.00098771 -7.85554e-07 1.03411e-07)
(0.000737124 -2.32889e-07 3.66999e-08)
(0.000738064 -3.44112e-07 4.14018e-08)
(0.000985317 -4.48147e-07 1.64398e-07)
(0.000735859 -3.58836e-08 4.78057e-08)
(0.000736689 2.1961e-07 5.65044e-08)
(0.000983743 -1.87383e-07 1.19165e-07)
(0.000734787 -3.52596e-08 5.50835e-08)
(0.000735303 -4.37372e-07 4.18351e-08)
(0.000982074 3.54339e-08 1.65185e-07)
(0.000733304 -2.18678e-07 4.91077e-08)
(0.000733969 1.57648e-07 5.53691e-08)
(0.000980549 -1.94904e-07 1.70395e-07)
(0.000731704 -3.10115e-07 2.29998e-08)
(0.000732489 -1.95982e-07 3.03877e-08)
(0.000978366 -4.26569e-07 1.93515e-07)
(0.000731196 8.83166e-07 5.67085e-08)
(0.000976284 -3.99389e-07 1.05044e-07)
(-0.000712245 -0.0115093 0.000265277)
(0.000927602 0.0016388 0.000858092)
(-0.000688749 -0.00901778 -9.09364e-05)
(-0.00451598 0.0147019 0.00991115)
(0.0371426 -0.0100789 -0.0619996)
(-0.00502534 -0.0137052 0.0443075)
(-0.0139208 0.00816954 0.00533112)
(0.00787782 -0.0184968 0.00519735)
(-0.0114856 -0.0148212 0.00472223)
(0.000119672 -0.00492793 0.00408351)
(0.000902211 0.000888002 0.0010634)
(-0.00963936 -0.0101557 0.00191781)
(0.00334089 -0.00961261 -0.000141253)
(0.00376334 -0.00020179 0.00253566)
(-0.00841076 -0.0120727 0.0328283)
(-0.0154671 -0.0230454 -0.103654)
(-0.015267 -0.022007 0.0806053)
(-0.00834317 -0.0196735 -0.00985709)
(-0.0165639 -0.0332376 -6.42791e-05)
(-0.0115635 -0.0212961 -4.8642e-05)
(-0.0186949 -0.0315312 -0.000798023)
(0.00627387 -0.0244406 -0.0011753)
(-0.0136713 -0.0436261 -0.00177845)
(0.0268903 0.000530152 0.000322188)
(0.00738229 0.0446018 7.90753e-05)
(0.0276902 0.0135135 0.00914499)
(-0.0292167 0.00602648 0.00253939)
(0.0247408 -0.0215853 0.00399228)
(0.0130391 -0.00186411 0.00122322)
(0.00512184 -0.014827 0.00331739)
(-0.00309337 -0.0135187 -0.000115772)
(0.00346085 -0.0238305 0.000135536)
(-0.0321355 -0.0204931 0.00216474)
(-0.00380181 0.00902112 0.000595081)
(0.00576564 -0.0041363 0.000970387)
(-0.00954208 -0.00498331 0.000536797)
(-0.000430924 -0.0102082 0.000330076)
(-0.00426177 -0.012346 0.00258336)
(0.000362296 -9.96026e-05 2.47431e-05)
(0.000479869 -8.01453e-06 3.57227e-06)
(0.000361208 -0.000103695 1.58155e-06)
(0.000762982 -0.000248772 3.70375e-05)
(0.000656937 -0.000214623 1.28879e-05)
(0.000561275 -0.00015829 8.14263e-05)
(0.000950535 -0.000386221 8.08353e-05)
(0.000383469 -0.000153004 2.27537e-06)
(0.0007243 -0.000278946 6.74969e-06)
(0.000613861 -0.000282477 1.47497e-06)
(0.000332548 -0.000153962 7.41536e-07)
(0.000778648 -8.26321e-05 -5.43315e-07)
(0.000863957 -0.000119416 -1.75533e-06)
(0.00109627 -0.000139578 -9.27852e-07)
(0.000514307 -7.41926e-05 -4.1745e-06)
(0.000598175 -0.000101397 -3.96632e-06)
(0.000817859 -0.000123631 -4.2166e-06)
(0.00102492 -0.000187189 -4.35717e-06)
(0.000779911 -4.85314e-05 4.63071e-08)
(0.000802069 -5.54207e-05 -3.03094e-07)
(0.00103046 -7.83914e-05 1.26175e-07)
(0.000781678 -3.01277e-05 1.4916e-07)
(0.000796636 -3.74681e-05 1.17373e-07)
(0.00104578 -4.92823e-05 2.02088e-07)
(0.00078187 -1.84002e-05 8.35559e-08)
(0.000790186 -2.24389e-05 6.28839e-08)
(0.00104443 -2.98777e-05 1.78763e-07)
(0.000781667 -1.134e-05 7.24929e-08)
(0.000786708 -1.41484e-05 7.20466e-08)
(0.00104451 -1.84168e-05 1.78746e-07)
(0.000781043 -7.0907e-06 6.01482e-08)
(0.000784432 -8.81536e-06 6.58073e-08)
(0.00104377 -1.13191e-05 1.76954e-07)
(0.000780036 -4.47062e-06 5.37955e-08)
(0.000782414 -5.54746e-06 5.32149e-08)
(0.00104257 -7.2819e-06 1.74682e-07)
(0.000778934 -2.73389e-06 5.09295e-08)
(0.000780583 -3.47157e-06 5.25011e-08)
(0.00104109 -4.46485e-06 1.74292e-07)
(0.000777422 -1.67289e-06 5.05329e-08)
(0.000778898 -2.00405e-06 5.22402e-08)
(0.00103931 -2.75615e-06 1.6093e-07)
(0.000776028 -1.03745e-06 6.64789e-08)
(0.000777279 -1.26314e-06 5.34379e-08)
(0.00103737 -1.6916e-06 1.72666e-07)
(0.000775035 -6.99139e-07 1.10696e-07)
(0.000775814 -1.39518e-06 8.62171e-08)
(0.00103579 -1.09818e-06 1.73696e-07)
(0.000773201 -4.3964e-07 8.22885e-08)
(0.000774214 -1.56519e-06 4.35126e-08)
(0.00103379 -7.93451e-07 3.33173e-07)
(0.000771731 -1.574e-07 5.89845e-08)
(0.000772595 -3.91723e-07 3.38103e-08)
(0.00103154 -3.63564e-07 1.71575e-07)
(0.000770248 -2.32158e-08 7.99228e-08)
(0.000771155 -8.72589e-08 7.43609e-08)
(0.00102969 -2.57433e-08 1.74982e-07)
(0.000768839 1.3533e-07 4.78046e-08)
(0.000769785 -1.0274e-07 5.66459e-08)
(0.00102774 -1.64984e-08 1.73863e-07)
(0.000767579 2.75332e-07 4.57959e-08)
(0.000768273 5.49758e-07 4.22642e-08)
(0.00102586 3.99981e-07 1.28616e-07)
(0.000766311 2.95167e-07 6.65772e-09)
(0.000766773 3.53312e-07 6.68861e-08)
(0.00102428 3.86413e-07 1.25563e-07)
(0.000764753 2.72514e-07 -1.51355e-08)
(0.000765338 -1.90224e-07 -8.31639e-09)
(0.00102246 4.65158e-07 1.16132e-07)
(0.000762807 1.18389e-07 1.60075e-08)
(0.000763627 -3.83171e-07 1.51469e-08)
(0.00101998 3.0489e-07 1.18719e-07)
(0.000761552 -4.93046e-08 3.02728e-08)
(0.00076211 3.23443e-08 3.60582e-08)
(0.0010178 4.67191e-08 1.38616e-07)
(0.000760221 -2.61635e-07 4.5499e-08)
(0.000760779 7.78119e-09 5.07857e-08)
(0.00101624 -1.65742e-07 1.68246e-07)
(0.000758384 -3.70944e-07 5.73801e-08)
(0.000759316 -3.93961e-07 2.68838e-08)
(0.00101406 -6.22745e-07 2.12136e-07)
(0.000757034 -2.93272e-07 -2.32731e-08)
(0.000757967 1.05603e-07 4.51957e-08)
(0.00101175 -4.82125e-07 1.64057e-07)
(0.000755907 -1.51399e-07 -5.06512e-08)
(0.000756719 2.05193e-07 6.50915e-08)
(0.00101032 -3.59659e-07 8.78686e-08)
(0.000754665 2.13466e-07 7.14093e-08)
(0.000755608 3.88224e-07 3.66362e-08)
(0.00100879 -9.67122e-08 9.54599e-08)
(0.000753629 4.86046e-07 2.19273e-07)
(0.000754309 -2.4849e-06 5.99079e-08)
(0.00100726 6.56048e-07 2.78965e-07)
(0.000752359 3.16232e-07 1.8102e-07)
(0.000752691 -3.08945e-06 1.4523e-07)
(0.00100576 6.96106e-07 2.51922e-07)
(0.000750513 1.52894e-07 4.30662e-08)
(0.000751262 7.91752e-07 7.53014e-08)
(0.00100359 2.07581e-07 1.70828e-07)
(0.000749255 2.08335e-07 4.23962e-08)
(0.000749945 -6.43769e-09 4.38664e-08)
(0.00100148 2.16324e-07 1.63019e-07)
(0.000748246 2.95378e-07 2.56223e-08)
(0.000748689 -1.31545e-07 1.11953e-07)
(0.000999986 3.26191e-07 1.60972e-07)
(0.000746918 4.82787e-07 3.2274e-08)
(0.000747456 1.38762e-07 2.6644e-08)
(0.000998565 4.58648e-07 1.76999e-07)
(0.000744685 4.65546e-07 1.16072e-07)
(0.000745812 -5.99723e-07 4.49446e-08)
(0.000996105 8.37128e-07 1.41841e-07)
(0.000743523 2.36878e-07 8.21048e-08)
(0.000744191 1.9509e-07 1.136e-07)
(0.000993762 4.51185e-07 1.58713e-07)
(0.00074223 1.08208e-07 2.95634e-08)
(0.000742916 -1.65542e-08 1.12043e-08)
(0.00099223 2.2377e-07 1.65908e-07)
(0.000740687 -2.68947e-08 7.07929e-08)
(0.000741448 1.86592e-07 6.82259e-08)
(0.000990264 3.87939e-08 1.6384e-07)
(0.000739665 -3.81451e-07 9.62443e-08)
(0.000740127 6.32624e-07 1.32914e-07)
(0.000988514 -1.74769e-07 1.99761e-07)
(0.000739227 -3.98378e-07 8.59118e-08)
(0.000739495 2.29999e-07 1.28193e-07)
(0.000987738 -8.63294e-07 2.55611e-07)
(0.000737619 -1.06021e-07 6.12016e-08)
(0.000738431 -4.72091e-08 7.20594e-08)
(0.000986271 -1.9943e-07 1.67845e-07)
(0.000736153 9.26766e-09 5.05382e-08)
(0.000736834 -4.89072e-08 8.08045e-08)
(0.000984183 -1.41326e-07 1.95856e-07)
(0.00073445 3.1478e-08 4.21165e-08)
(0.000735332 -7.97123e-09 6.89034e-08)
(0.000982161 1.16812e-07 1.66489e-07)
(0.000733199 -1.01886e-07 3.66568e-08)
(0.000733802 9.71846e-08 6.31835e-08)
(0.000980148 -5.26079e-08 1.6075e-07)
(0.000731854 -1.71563e-07 6.40885e-08)
(0.000732405 5.51069e-07 4.28671e-08)
(0.000978351 -2.54243e-07 1.101e-07)
(0.000731409 -1.46538e-07 1.06549e-07)
(0.000976941 -2.39163e-07 2.23711e-07)
(0.00746275 -0.00682877 0.00026085)
(-0.0106228 -0.0214395 0.000727757)
(0.000190393 0.0033868 0.00112405)
(0.00858121 -0.0163814 0.00122761)
(-0.00551335 -0.0314408 -6.39833e-05)
(-0.00050677 -0.0148313 -0.00218791)
(-7.27737e-06 -0.00253909 0.000300015)
(0.00999106 0.0125029 0.000758149)
(-0.0077389 0.00644418 2.66003e-05)
(-0.00257788 0.00808788 0.00128096)
(-0.00649662 0.011196 -0.00410387)
(-0.00754787 -0.00810386 -0.00580501)
(-0.00685192 0.00308557 0.0481088)
(0.00221485 -0.0121446 0.0815999)
(0.00807276 -0.0138646 -0.125266)
(0.00964649 -0.0729094 -0.000391396)
(-0.0538957 -0.00589436 -0.00158067)
(-0.00564817 0.0505989 0.000201311)
(0.00593456 -0.0174076 -0.0167827)
(0.0478827 -0.00541484 -0.000972159)
(-0.0161168 0.00256412 0.000456356)
(-0.00341622 -0.00215928 0.00142358)
(-0.00445753 -0.00406167 -0.000896865)
(-0.0108719 0.0153671 -0.00128367)
(-0.0113147 0.00843019 -0.00195851)
(-0.00653407 -0.00717807 0.00446333)
(-0.00752385 0.00145566 -0.000310398)
(-0.0145955 0.0108848 4.62257e-05)
(0.00573277 0.0103232 -0.00033771)
(0.0114751 0.00689448 0.000434288)
(0.00955331 0.00917945 0.000413528)
(0.00707214 0.00255839 -0.000362977)
(0.00623934 -0.00112839 -0.000608601)
(-0.00807801 0.00518005 -0.000214442)
(-0.0148332 0.00867075 0.000127443)
(-0.00502182 0.00622829 -0.000245577)
(-0.00830127 0.0111775 -0.000153797)
(-0.0183699 0.00965315 -0.00123012)
(0.00107591 -0.000167416 1.32018e-05)
(0.00044017 -0.000130676 2.51586e-05)
(0.000477518 -0.000243085 4.06219e-05)
(0.000715684 -0.000264978 6.97687e-05)
(0.000338579 -0.000129693 1.68174e-05)
(0.000861322 -6.18983e-05 -1.51559e-06)
(0.000618921 -3.61527e-05 -1.51057e-06)
(0.00121323 -0.000125827 -1.80638e-06)
(0.000637516 -9.89553e-05 -4.58122e-06)
(0.000668317 -7.33548e-05 -4.20936e-06)
(0.00108153 -0.000189381 -3.63197e-06)
(0.0011553 -0.000131318 -1.44354e-06)
(0.000584218 -5.61013e-05 -4.55282e-06)
(0.00104297 -6.3126e-05 -8.47139e-07)
(0.000962508 -9.05625e-05 -5.57342e-06)
(0.00082014 -2.91009e-05 -2.32165e-07)
(0.00085298 -3.88456e-06 -8.2832e-07)
(0.00111304 -3.80924e-05 3.59329e-08)
(0.000804209 -2.33739e-05 3.11152e-08)
(0.000803942 -1.95819e-05 -2.20599e-07)
(0.00108299 -3.78706e-05 1.76981e-07)
(0.000794565 -1.47356e-05 5.13717e-08)
(0.000801065 -1.23658e-05 1.03427e-07)
(0.00106689 -2.30557e-05 1.73924e-07)
(0.000789437 -9.65971e-06 6.5363e-08)
(0.000793104 -1.03874e-05 3.53285e-08)
(0.00105726 -1.52572e-05 2.19198e-07)
(0.000785792 -6.26027e-06 5.88781e-08)
(0.000788714 -6.48618e-06 5.80192e-08)
(0.00105171 -9.84387e-06 1.9052e-07)
(0.000782901 -4.05973e-06 5.19208e-08)
(0.000785186 -3.92249e-06 5.1971e-08)
(0.00104741 -6.41142e-06 1.7447e-07)
(0.00078058 -2.63384e-06 5.38119e-08)
(0.000782378 -2.54603e-06 5.09505e-08)
(0.00104391 -4.12449e-06 1.74105e-07)
(0.000778701 -1.71754e-06 5.51449e-08)
(0.000780052 -1.6858e-06 5.26718e-08)
(0.00104116 -2.70668e-06 1.78563e-07)
(0.000777026 -1.06289e-06 7.31655e-08)
(0.000778103 -1.14652e-06 5.33649e-08)
(0.00103876 -1.75914e-06 1.75633e-07)
(0.000775105 -7.92681e-07 1.90478e-08)
(0.000776156 -2.23954e-06 4.80793e-08)
(0.0010364 -1.0505e-06 2.63674e-07)
(0.000773526 -6.29901e-07 -4.96255e-09)
(0.000774421 3.28771e-07 -7.02265e-09)
(0.00103411 -1.08429e-06 4.57798e-08)
(0.000772001 -3.84134e-07 4.91737e-08)
(0.000772905 -4.04354e-07 3.36528e-08)
(0.00103205 -6.01926e-07 1.73583e-07)
(0.000770651 -2.32024e-07 5.10897e-08)
(0.000771346 -1.10204e-07 6.60493e-08)
(0.00103006 -4.12453e-07 1.59762e-07)
(0.000769346 -1.04715e-07 5.11101e-08)
(0.000769945 -3.38899e-07 4.88203e-08)
(0.00102833 -1.9994e-07 1.71421e-07)
(0.000767353 -5.93532e-08 6.33466e-08)
(0.00076833 -4.0378e-08 3.58416e-08)
(0.00102618 -7.6584e-08 2.56823e-07)
(0.000765814 -1.59035e-07 5.19359e-08)
(0.000766649 -3.15685e-07 6.47384e-08)
(0.00102378 -6.08543e-08 2.23401e-07)
(0.000764326 -2.60133e-07 2.19585e-08)
(0.000765212 7.5667e-07 1.24576e-07)
(0.00102174 -3.53402e-07 1.06877e-07)
(0.000762741 -2.12019e-07 3.51909e-08)
(0.000763688 4.6065e-07 3.58852e-08)
(0.00101963 -3.20896e-07 1.2318e-07)
(0.000761401 -1.24659e-07 5.65665e-08)
(0.000762219 4.51261e-08 6.15014e-08)
(0.00101776 -2.02256e-07 1.60569e-07)
(0.000759959 -1.18996e-07 3.21781e-08)
(0.000760786 -8.02027e-08 5.5978e-08)
(0.00101572 -9.61892e-08 1.77293e-07)
(0.000758728 9.49296e-08 1.46936e-08)
(0.000759582 2.7584e-07 -1.50364e-08)
(0.00101405 -1.9178e-07 1.05931e-07)
(0.000757775 3.88656e-07 1.33554e-07)
(0.000758333 7.09457e-07 2.84666e-08)
(0.00101279 4.90857e-07 8.6383e-08)
(0.000756279 4.44219e-07 1.52388e-07)
(0.000756786 3.39656e-07 1.75979e-07)
(0.00101093 6.51833e-07 1.68111e-07)
(0.000755429 4.22344e-07 2.51275e-08)
(0.000755578 4.63323e-07 4.38075e-08)
(0.00100958 6.48257e-07 1.15471e-07)
(0.000753269 3.21923e-07 -1.41619e-08)
(0.000754182 -4.20625e-08 1.88381e-08)
(0.00100769 5.24842e-07 6.39379e-08)
(0.000751603 1.34748e-07 3.95334e-08)
(0.000752456 5.75883e-08 1.41838e-08)
(0.00100482 3.27702e-07 -3.00829e-08)
(0.000750669 7.33282e-08 7.61114e-08)
(0.000751185 4.59431e-07 8.06926e-08)
(0.00100314 2.24932e-08 1.52653e-07)
(0.000749349 1.34769e-07 1.13402e-07)
(0.000750022 -1.08831e-07 7.64484e-08)
(0.00100175 1.57541e-07 1.70691e-07)
(0.000747935 8.30922e-08 1.13002e-07)
(0.000748624 3.20013e-08 1.04898e-07)
(0.000999874 1.80482e-07 1.60415e-07)
(0.000746535 -6.10711e-08 3.93089e-08)
(0.000747276 3.49804e-08 4.53533e-08)
(0.000998011 3.83612e-08 1.78318e-07)
(0.000745051 -5.97397e-08 4.24509e-08)
(0.000745814 -1.80569e-07 2.258e-08)
(0.000996146 -1.85599e-07 1.48347e-07)
(0.00074365 7.53883e-08 4.2731e-08)
(0.00074436 -1.17593e-07 5.63814e-08)
(0.000994135 2.19509e-08 1.93503e-07)
(0.000742236 1.70533e-07 4.98493e-08)
(0.000743035 1.10664e-07 4.00265e-08)
(0.000992197 1.34184e-07 1.62984e-07)
(0.000740808 3.88811e-07 1.30328e-07)
(0.000741719 -6.32369e-08 5.61938e-08)
(0.000990287 2.69862e-07 1.91379e-07)
(0.000739571 6.23543e-07 1.64864e-07)
(0.000740418 4.24703e-07 1.76642e-07)
(0.000988635 7.6629e-07 1.71049e-07)
(0.000739223 4.87056e-07 1.14357e-07)
(0.000739322 -1.08379e-06 1.73319e-08)
(0.000987685 9.02656e-07 1.70545e-07)
(0.000737534 2.46188e-07 9.16597e-08)
(0.000738128 2.6019e-07 6.8428e-08)
(0.000986225 4.15772e-07 1.74433e-07)
(0.000736025 1.88372e-07 9.91734e-08)
(0.00073676 6.85385e-08 6.91956e-08)
(0.00098414 3.12871e-07 1.71756e-07)
(0.00073461 2.65243e-07 8.99721e-08)
(0.000735426 1.66007e-07 8.81122e-08)
(0.000982186 2.56143e-07 1.58818e-07)
(0.00073304 2.48091e-07 6.94e-08)
(0.00073378 4.19082e-07 6.25412e-08)
(0.000980086 4.74047e-07 1.61976e-07)
(0.000731783 1.12572e-07 8.53079e-08)
(0.000732234 2.21096e-07 5.48869e-08)
(0.000978141 1.81994e-07 1.80734e-07)
(0.000731268 -6.81619e-07 1.39891e-07)
(0.000976898 1.21169e-07 1.81873e-07)
(-0.0503855 -0.00534686 0.00367034)
(-0.0839204 0.00548814 -0.00411458)
(-0.0289649 -0.0169155 0.00142993)
(-0.0854832 -0.00453124 0.00778087)
(-0.0280023 -0.00597029 -0.00208687)
(-0.0157135 -0.0080099 -0.00535296)
(-0.00183885 -0.0051944 -0.00626132)
(-0.0190133 -0.00931391 -0.00440392)
(-0.0274276 -0.0330612 -0.0980368)
(-0.0194934 -0.0232049 0.0395054)
(-0.0338375 -0.0191118 0.0359764)
(-0.0332048 -0.0244838 0.0309115)
(-0.0246715 -0.0197257 -6.99339e-05)
(-0.029781 -0.00274817 -0.00175676)
(-0.0114853 0.0109663 -0.00047296)
(-0.042739 0.00137602 -0.00183147)
(-0.0324561 0.00369824 -0.000522531)
(0.0413999 -0.0268508 0.00334104)
(0.0141988 -0.011859 0.00111938)
(0.00570445 -0.00439171 -0.000379241)
(0.0484654 -0.0324819 0.00815226)
(0.0231474 -0.00360732 -0.00385931)
(0.015378 -0.00492661 -0.00970536)
(0.0149881 -0.0270532 -0.0129458)
(0.0282284 -0.0349329 0.0251576)
(0.0340099 -0.0353043 0.018561)
(0.016249 -0.0180177 -0.0208867)
(-0.010855 -0.0249144 0.00020348)
(0.0456964 -0.0338896 -0.00990253)
(0.0344762 0.0153847 -0.00350711)
(0.0204579 -0.0319542 -0.00281089)
(0.00243669 -0.0145698 0.000463214)
(0.00302337 -0.00868935 -2.11194e-05)
(-0.00022205 -0.00880368 -0.000145199)
(-0.00119451 -0.00685389 -0.000234636)
(0.00484934 -0.00828609 0.000536238)
(-0.00398333 -0.00828819 -0.000222672)
(-0.00890218 -0.00371397 -0.000320254)
(0.0028069 -0.00238299 -0.000230501)
(-0.00166312 -0.00256342 -0.000405867)
(-0.00183947 -0.00423185 -0.00137101)
(0.000942664 -0.000359834 3.78376e-05)
(0.00109077 -2.74895e-05 1.49562e-05)
(0.00148528 0.000156692 -3.79446e-05)
(0.00139308 7.09114e-05 -4.06036e-05)
(0.00127703 -4.79872e-05 2.0202e-05)
(0.000328803 -4.2885e-05 -2.58096e-06)
(0.000481052 -3.28894e-05 -3.40293e-06)
(0.000472786 -3.26585e-05 -3.99908e-07)
(0.000792541 -5.21659e-05 -1.28738e-06)
(0.000335501 -2.60077e-05 -2.46212e-06)
(0.000593063 -0.000102527 -4.09951e-06)
(0.000615967 -5.80432e-05 -3.13926e-06)
(0.000812322 -7.96069e-06 -8.16952e-07)
(0.000875563 -1.27154e-05 -1.2301e-06)
(0.00116649 -2.47334e-06 -8.80902e-07)
(0.000591846 -2.43816e-05 -4.09551e-06)
(0.000603848 -1.21535e-05 -4.673e-06)
(0.000976014 -5.67128e-05 -5.11633e-06)
(0.00100499 -2.59727e-05 -5.9506e-06)
(0.000804794 -1.08384e-05 -1.48393e-07)
(0.000800226 -1.02938e-05 -4.84566e-07)
(0.00106498 -1.61975e-05 4.64215e-08)
(0.000798221 -7.47559e-06 8.74065e-08)
(0.0008053 -6.52823e-06 1.63695e-07)
(0.00107291 -1.08274e-05 2.0211e-07)
(0.000792245 -5.32178e-06 2.79773e-08)
(0.000795819 -4.16225e-06 1.93678e-08)
(0.00106116 -7.86712e-06 1.23888e-07)
(0.000787901 -3.6329e-06 5.11141e-08)
(0.000790841 -2.86265e-06 1.50417e-07)
(0.00105492 -5.52811e-06 1.62244e-07)
(0.000784544 -2.3081e-06 5.10011e-08)
(0.000786853 -1.74557e-06 5.08063e-08)
(0.00104978 -3.64526e-06 1.76798e-07)
(0.000781762 -1.38777e-06 4.98099e-08)
(0.000783536 -1.04639e-06 2.49817e-08)
(0.00104576 -2.17617e-06 1.74509e-07)
(0.000779348 -8.72753e-07 5.08916e-08)
(0.0007807 -6.26624e-07 4.60902e-08)
(0.00104229 -1.30532e-06 1.73841e-07)
(0.000777389 -6.19492e-07 2.82805e-08)
(0.000778422 -7.04168e-07 4.83478e-08)
(0.00103945 -8.80143e-07 1.77764e-07)
(0.000775241 -4.82413e-07 2.20266e-08)
(0.000776329 -2.05367e-07 2.68438e-08)
(0.00103664 -6.57796e-07 8.46413e-08)
(0.000773882 -4.22797e-07 3.15796e-08)
(0.000774497 3.51874e-08 5.07347e-08)
(0.00103436 -5.40463e-07 1.78021e-07)
(0.000772158 -3.6928e-07 5.0518e-08)
(0.000772973 -2.21206e-08 9.24022e-08)
(0.00103239 -5.46496e-07 1.63507e-07)
(0.000770652 -3.21863e-07 6.37854e-08)
(0.000771407 -2.22982e-07 7.25518e-08)
(0.00103019 -4.30369e-07 1.79515e-07)
(0.000769058 -4.22413e-07 3.35559e-08)
(0.000769821 -2.17942e-07 5.1898e-08)
(0.00102816 -4.24681e-07 1.71793e-07)
(0.000767483 -4.1312e-07 3.72242e-08)
(0.000768344 7.89409e-07 4.49541e-08)
(0.00102603 -6.82199e-07 1.21338e-07)
(0.000766077 -2.54267e-07 1.37359e-07)
(0.000766849 -2.79939e-08 7.81648e-08)
(0.00102394 -4.19103e-07 1.45094e-07)
(0.000764577 -1.35975e-07 1.38531e-07)
(0.000765361 -5.38608e-08 1.58759e-07)
(0.00102213 -3.01207e-07 2.30872e-07)
(0.000763096 6.19806e-08 6.21876e-08)
(0.000763936 5.33417e-07 6.85665e-08)
(0.00102017 -1.11922e-07 1.68103e-07)
(0.000761667 2.80677e-07 6.09147e-08)
(0.000762492 -3.84095e-08 6.62549e-08)
(0.00101808 2.53672e-07 1.75133e-07)
(0.000760336 5.43995e-07 8.78584e-09)
(0.000761113 4.82355e-07 4.03688e-08)
(0.00101626 5.17053e-07 1.21758e-07)
(0.000759268 6.46019e-07 -1.27712e-09)
(0.000759707 8.81633e-07 -9.39165e-09)
(0.00101479 1.03761e-06 9.61321e-08)
(0.000757308 4.60705e-07 7.0845e-08)
(0.000758098 3.78217e-07 2.39916e-08)
(0.0010128 8.23465e-07 2.41322e-07)
(0.000755986 4.08475e-07 6.744e-08)
(0.000756717 3.46763e-07 8.15228e-08)
(0.00101051 5.4862e-07 1.61744e-07)
(0.000754564 2.03835e-07 3.7526e-08)
(0.00075532 2.85864e-07 2.67002e-08)
(0.00100862 7.03959e-07 1.83947e-07)
(0.000753238 -5.67543e-08 4.71852e-08)
(0.000753855 -1.46971e-07 2.34318e-07)
(0.00100685 -3.51538e-09 1.70695e-07)
(0.0007519 6.26811e-08 5.53221e-08)
(0.000752604 8.92179e-09 5.02761e-08)
(0.00100513 -5.84809e-08 1.68149e-07)
(0.000750684 1.16632e-07 8.10309e-08)
(0.000751252 2.82006e-07 6.02877e-08)
(0.00100337 2.30812e-07 1.66686e-07)
(0.000749242 1.48897e-08 6.79354e-08)
(0.000749894 4.17461e-08 7.57622e-08)
(0.00100167 6.87467e-08 1.63572e-07)
(0.00074799 -6.68098e-08 3.72685e-08)
(0.000748522 -7.10034e-08 5.1339e-09)
(0.000999837 -4.49283e-08 1.64963e-07)
(0.000746571 -1.60006e-07 2.86314e-08)
(0.00074716 7.88202e-08 5.861e-08)
(0.000998107 -1.49868e-07 1.6943e-07)
(0.00074504 -1.8366e-07 3.65e-08)
(0.000745785 -2.48244e-07 3.0116e-08)
(0.000996085 -3.17358e-07 1.87493e-07)
(0.000743799 -7.02753e-08 5.3682e-08)
(0.000744503 -2.83579e-07 -4.08963e-08)
(0.000994162 -2.54638e-07 1.6861e-07)
(0.000742568 8.18156e-08 4.6366e-08)
(0.000743225 -8.14268e-08 5.6749e-08)
(0.00099254 1.35584e-08 1.69525e-07)
(0.00074125 2.59917e-07 1.02471e-07)
(0.000741941 9.08418e-08 2.20498e-07)
(0.000991051 2.53307e-07 1.52345e-07)
(0.000740053 5.02518e-07 2.91581e-08)
(0.000740719 4.3182e-07 8.97413e-08)
(0.0009893 5.41492e-07 1.51902e-07)
(0.000738366 4.27392e-07 -2.86133e-08)
(0.000739226 -9.63629e-07 -1.53738e-08)
(0.000987293 8.3549e-07 1.87911e-07)
(0.000737355 1.80288e-07 4.59637e-08)
(0.000737817 1.73056e-07 4.45995e-08)
(0.000985528 2.94228e-07 1.41481e-07)
(0.000736106 1.56889e-07 5.81287e-08)
(0.00073673 6.99522e-08 4.56458e-08)
(0.000983979 1.82077e-07 1.56573e-07)
(0.000734791 2.7695e-07 6.06892e-08)
(0.000735576 1.10135e-06 3.86685e-08)
(0.000982358 2.02475e-07 9.4281e-08)
(0.000732765 3.05994e-07 4.80304e-08)
(0.000733815 1.30765e-06 2.59145e-08)
(0.000980052 4.63589e-07 1.62091e-07)
(0.00073165 2.35072e-07 1.09444e-07)
(0.000732142 -2.1538e-08 4.88239e-08)
(0.000977904 3.04578e-07 1.61478e-07)
(0.000730976 -1.18839e-06 1.10836e-07)
(0.000976563 3.18388e-07 1.99856e-07)
(-0.0138186 -0.00254225 0.000312923)
(-0.00735204 -0.00865011 -0.00242905)
(-0.0126316 -0.00541708 0.00166911)
(0.00449458 0.00849407 -0.0013185)
(0.0110508 0.00755861 0.000347778)
(-0.00922334 -0.0121731 -0.00254251)
(0.00727246 -0.00971451 0.000840895)
(-0.0545938 0.0206509 -0.00401759)
(-0.0137918 -0.0267487 -0.00800263)
(-0.0165625 0.085527 -0.000636431)
(-0.0228996 0.0358618 -0.0131036)
(0.0124881 0.0215514 -0.00466323)
(-0.00144663 -0.00376075 -0.000282825)
(0.00407861 -0.013327 -0.000173794)
(0.00273169 0.0140174 -0.0001037)
(0.000524976 0.00148729 -0.00255531)
(0.00721425 0.0038251 -0.000457615)
(-0.00348015 0.0200095 -0.00367783)
(-0.0206572 0.0185073 -0.00123861)
(0.0257553 0.0176173 -0.00118063)
(0.00574657 0.0336002 -2.37413e-05)
(0.00220086 0.0289498 -0.00480268)
(-0.00110063 -0.00584947 0.000169421)
(-0.000871798 -0.00242499 0.000176089)
(0.00332069 -0.00134229 0.000184801)
(-0.00143686 0.00122057 -0.0003793)
(-0.00178086 -3.02659e-05 -4.76423e-05)
(-0.000775241 0.000171099 8.13071e-05)
(0.00205734 -0.00309351 -1.07041e-07)
(0.00387642 -0.00245222 -3.84918e-05)
(0.00137624 -0.00031725 -5.9916e-05)
(0.00336712 -0.00286959 -0.000120207)
(0.000840009 0.000196526 7.64773e-05)
(0.00202579 0.000146216 3.99653e-05)
(0.00147456 0.000227753 0.000141368)
(0.00147738 0.000321125 -3.69369e-05)
(0.00121335 8.96383e-05 8.01737e-05)
(0.000312546 -1.35755e-05 -2.0053e-06)
(0.000480501 -2.49911e-05 -3.43795e-06)
(0.00044582 -3.81851e-05 -9.30516e-07)
(0.000735724 -4.7044e-05 -1.40092e-06)
(0.000318721 -3.11605e-05 -2.09366e-06)
(0.000585763 -1.98136e-05 1.59083e-06)
(0.000599692 -6.53038e-05 2.16703e-06)
(0.000455746 -2.63204e-05 -6.73097e-07)
(0.000818922 -9.57638e-06 -8.9796e-07)
(0.00088471 -7.85556e-06 -1.39461e-06)
(0.00117255 -1.48405e-05 -1.08065e-06)
(0.000604015 -1.73329e-05 -3.77542e-06)
(0.000611992 -1.80602e-05 -4.75196e-06)
(0.00100041 -3.13777e-05 -4.58722e-06)
(0.00102107 -3.25277e-05 -5.90368e-06)
(0.000809499 -4.40345e-06 -1.7269e-07)
(0.000806618 8.95588e-07 -4.81027e-07)
(0.00107219 -6.45751e-06 7.97254e-08)
(0.00080114 -2.25494e-06 9.57031e-08)
(0.000807987 1.56824e-06 1.51812e-07)
(0.00107738 -2.91106e-06 2.00998e-07)
(0.00079423 -1.17837e-06 1.41764e-07)
(0.000797166 2.30109e-06 3.62729e-08)
(0.00106395 -1.72528e-06 1.8773e-07)
(0.000789522 -5.35605e-07 1.50141e-07)