/*--------------------------------*- C++ -*----------------------------------*\
| =========                 |                                                 |
| \\      /  F ield         | OpenFOAM: The Open Source CFD Toolbox           |
|  \\    /   O peration     | Version:  5.0                                   |
|   \\  /    A nd           | Web:      www.OpenFOAM.org                      |
|    \\/     M anipulation  |                                                 |
\*---------------------------------------------------------------------------*/
FoamFile
{
    version     2.0;
    format      ascii;
    class       surfaceVectorField;
    location    "1.5";
    object      Uf_0;
}
// * * * * * * * * * * * * * * * * * * * * * * * * * * * * * * * * * * * * * //

dimensions      [0 1 -1 0 0 0 0];

internalField   nonuniform List<vector> 
23578
(
(-0.00817966 -0.00271567 0.000306873)
(-0.00321714 -0.0097942 0.000533913)
(-0.00232976 -0.00846889 0.0011604)
(-0.00392916 -0.00216469 -0.000223075)
(0.00123319 -0.000231001 -0.000136933)
(0.00459208 -0.00356489 -0.000189427)
(0.00302926 -0.0020844 -0.000488369)
(-0.0116146 0.000590167 0.00217913)
(0.00321183 0.0100719 -0.00139833)
(-0.000962272 -0.00710303 -0.00102801)
(0.0352487 0.000468125 -0.0017631)
(0.00134465 -0.00146117 0.000537362)
(0.00705234 -0.00331719 -0.000168274)
(-0.00435264 0.0035356 -0.00014116)
(0.0237929 -0.0117699 0.00200374)
(0.00184894 -0.013297 0.00213823)
(0.00867624 -0.0152758 0.00623955)
(-0.00965736 -0.0559966 -0.00100362)
(0.0069256 0.0041094 2.68279e-05)
(0.0194699 0.00148399 9.68836e-06)
(0.00858779 0.00931137 -0.000574843)
(0.00066477 -0.00538336 0.000399865)
(-0.00502687 -0.0199364 -0.000354438)
(0.00230571 -0.00450945 0.00102849)
(-0.00586078 -0.020736 -0.00114299)
(0.000505576 -0.000268232 0.00012729)
(0.000855304 -0.000324797 2.38561e-05)
(-0.000490602 2.74854e-05 8.31535e-05)
(-0.000274043 -0.00151203 -8.58544e-06)
(0.000420825 0.000114087 -1.41032e-06)
(0.000496885 8.68543e-05 -2.02752e-06)
(0.000478476 0.000123547 -1.29924e-08)
(0.000827561 0.000157845 1.96642e-06)
(0.000331979 0.000122675 1.57871e-06)
(0.000768274 0.000187191 4.80173e-06)
(0.000587173 0.000211958 9.36384e-06)
(0.000809769 -1.50454e-05 -9.93234e-07)
(0.000846834 -1.67454e-05 -1.33298e-06)
(0.00111859 -3.14376e-05 -1.21754e-06)
(0.000606185 2.58057e-05 -3.61661e-06)
(0.000581324 1.52741e-05 -4.09146e-06)
(0.000990791 2.05949e-05 -4.27036e-06)
(0.000955128 -5.28487e-07 -4.73737e-06)
(0.000808755 -1.59316e-05 -3.626e-09)
(0.000801471 -1.49409e-05 -8.16098e-08)
(0.00106061 -3.15812e-05 6.56686e-08)
(0.000806903 -1.15333e-05 1.17075e-07)
(0.000811261 -1.18514e-05 1.67215e-07)
(0.00107273 -2.20726e-05 1.90524e-07)
(0.000805059 -7.75684e-06 9.90465e-08)
(0.000808041 -8.28223e-06 9.9716e-08)
(0.00106986 -1.44479e-05 1.66439e-07)
(0.000803974 -5.04343e-06 5.08476e-08)
(0.0008063 -5.51398e-06 8.16221e-08)
(0.00106921 -9.36539e-06 1.69539e-07)
(0.000803149 -3.01427e-06 3.77141e-08)
(0.000804683 -3.61813e-06 3.84476e-08)
(0.00106878 -5.86617e-06 1.88826e-07)
(0.000800973 -1.75194e-06 5.63388e-08)
(0.000802761 -2.6109e-06 5.74009e-08)
(0.0010671 -3.2177e-06 1.59872e-07)
(0.000799594 -1.19098e-06 2.45783e-08)
(0.000800746 -1.68094e-06 5.27951e-08)
(0.00106483 -2.06737e-06 1.80068e-07)
(0.000797937 -7.88659e-07 2.53183e-08)
(0.00079914 3.9376e-07 3.21115e-08)
(0.00106302 -1.44422e-06 1.39495e-07)
(0.000796741 -3.51826e-07 5.71855e-08)
(0.000797667 -7.64492e-07 5.14214e-08)
(0.00106123 -8.50481e-07 1.76938e-07)
(0.000794686 -1.97029e-07 5.70107e-08)
(0.000795904 -3.90456e-07 3.2314e-08)
(0.00105917 -2.33589e-07 1.42407e-07)
(0.000792852 -3.607e-07 6.7581e-08)
(0.00079392 -9.10789e-07 2.25129e-08)
(0.00105649 -3.77074e-07 2.46611e-07)
(0.000791951 -4.16047e-07 4.78562e-08)
(0.000792472 -1.0386e-07 5.57546e-08)
(0.00105469 -5.91652e-07 2.32137e-07)
(0.000790557 -2.34302e-07 2.24119e-08)
(0.000791284 -1.1789e-07 5.87827e-08)
(0.00105328 -4.71948e-07 1.25911e-07)
(0.000788935 -7.4927e-08 4.58533e-08)
(0.000789785 8.46546e-08 1.43456e-08)
(0.00105117 -7.70793e-08 1.67717e-07)
(0.000787435 -1.77956e-08 5.21101e-08)
(0.000788183 -4.95412e-07 6.41465e-08)
(0.00104906 -3.78053e-08 2.04587e-07)
(0.000785972 1.12469e-07 2.76944e-08)
(0.000786792 -1.14111e-07 3.47059e-08)
(0.00104715 5.9291e-08 1.76658e-07)
(0.000784444 2.48661e-07 1.12671e-08)
(0.000785305 2.58549e-07 3.27243e-08)
(0.00104515 3.21819e-07 1.89957e-07)
(0.000782925 2.58927e-07 2.03305e-08)
(0.000783707 2.68032e-07 9.43481e-08)
(0.0010431 4.67895e-07 1.94719e-07)
(0.00078177 1.72823e-07 3.76493e-08)
(0.000782272 4.14219e-07 5.58212e-08)
(0.00104133 3.27493e-07 1.2828e-07)
(0.000780322 2.28908e-07 6.56224e-08)
(0.000781069 6.72919e-08 4.6036e-08)
(0.00103976 1.68496e-07 1.70231e-07)
(0.000778431 7.62667e-08 7.70512e-08)
(0.000779251 -1.20781e-07 4.42851e-08)
(0.00103737 4.18266e-07 2.40483e-07)
(0.000777194 -3.93699e-07 1.62967e-09)
(0.000777429 -2.50933e-07 7.17962e-08)
(0.00103519 -2.70169e-07 2.07894e-07)
(0.000775728 -5.45204e-07 -4.30544e-08)
(0.000776379 2.23687e-06 3.79173e-08)
(0.00103353 -8.263e-07 -2.42653e-08)
(0.000774081 -3.76133e-07 3.06328e-08)
(0.000775125 1.22156e-06 1.70937e-08)
(0.0010313 -6.58611e-07 8.27929e-08)
(0.000773015 -8.02623e-08 4.36432e-08)
(0.000773904 3.46997e-07 1.37731e-07)
(0.00102947 -3.52373e-07 1.60383e-07)
(0.000772431 1.19769e-07 2.24012e-08)
(0.000772835 7.5122e-07 4.39843e-08)
(0.00102857 1.46215e-07 1.21459e-08)
(0.000770817 1.05461e-07 4.57845e-08)
(0.000771456 1.95821e-07 4.04347e-08)
(0.00102712 2.12062e-07 1.62532e-07)
(0.00076914 7.7852e-08 4.41501e-08)
(0.000769943 1.95831e-08 5.5863e-08)
(0.00102483 1.63702e-07 2.01972e-07)
(0.000767663 1.29908e-07 2.06924e-08)
(0.000768518 2.2702e-07 6.04746e-08)
(0.00102264 1.47222e-07 1.58432e-07)
(0.000766418 2.8685e-07 -2.74026e-09)
(0.000767175 1.97798e-07 2.94124e-08)
(0.00102068 2.79693e-07 1.53761e-07)
(0.00076499 4.07274e-07 6.39275e-08)
(0.000765822 2.84707e-07 2.0133e-09)
(0.00101904 5.71831e-07 1.81237e-07)
(0.000764296 2.6275e-07 8.28717e-08)
(0.000764583 -9.39156e-07 7.28736e-08)
(0.00101776 5.66447e-07 1.83543e-07)
(0.000762831 4.41421e-08 4.34304e-08)
(0.000763343 2.0088e-07 3.89409e-08)
(0.00101619 1.42055e-07 1.68828e-07)
(0.000761486 -1.39104e-07 7.36515e-08)
(0.000761901 4.38405e-08 5.89163e-08)
(0.00101418 -1.36705e-08 1.69593e-07)
(0.000760205 -2.90814e-07 1.60387e-07)
(0.000760714 -3.50668e-07 5.68361e-08)
(0.00101269 -3.94027e-07 1.7376e-07)
(0.000759048 -2.13683e-07 1.34731e-07)
(0.000759612 -2.85083e-07 1.0612e-07)
(0.00101092 -4.28792e-07 1.68278e-07)
(0.000757429 -1.05194e-07 3.40199e-08)
(0.00075823 1.63152e-07 4.49432e-08)
(0.00100897 -1.75505e-07 1.64696e-07)
(0.000756107 -1.02729e-07 4.21312e-08)
(0.00075679 6.94354e-08 4.04464e-08)
(0.00100709 -1.73505e-07 1.76405e-07)
(0.000754867 -2.91811e-07 1.15685e-07)
(0.000755451 -1.26476e-07 5.52389e-08)
(0.00100529 -1.64531e-07 1.67957e-07)
(0.000753565 -4.14684e-07 8.47439e-08)
(0.000754164 -3.26569e-07 1.11729e-07)
(0.00100376 -6.16007e-07 1.60583e-07)
(0.000751643 -2.91111e-07 2.72652e-08)
(0.000752602 1.12496e-06 -9.80749e-09)
(0.00100151 -4.72784e-07 1.15595e-07)
(0.000751253 -5.07193e-07 4.54152e-08)
(0.000999122 -3.24209e-07 2.56132e-07)
(-0.0010793 -0.0135005 -0.000120915)
(-0.00375932 0.000982693 0.00168367)
(-0.00283528 -0.0090673 0.000903523)
(-0.00662287 0.0187826 0.00922137)
(0.0330433 -0.0106917 -0.0667651)
(-0.0147743 -0.0167624 0.0555158)
(-0.0174495 0.00668206 -0.000134683)
(0.00823308 -0.0119452 -0.00247271)
(-0.00528032 -0.0155399 -0.00131929)
(-7.7004e-05 -0.00817401 -0.000512344)
(-0.0144469 -0.00212193 -0.00402209)
(-0.0247552 -0.011356 -0.00252493)
(-0.0190563 -0.011427 -0.00570541)
(-0.00825379 -0.00190058 -0.00125951)
(-0.0120158 -0.0130744 -0.0667881)
(-0.014628 -0.0252019 0.0752104)
(-0.0271189 -0.0201482 -0.045935)
(-0.0121333 -0.0268348 0.0423079)
(-0.0190673 -0.0296508 0.000663624)
(-0.0121106 -0.0142683 0.000198149)
(-0.016156 -0.0159293 -0.000915847)
(-0.00294494 -0.0184013 -0.00187616)
(-0.0141045 -0.0274398 -0.000377737)
(0.00828118 -0.00541611 0.000647467)
(-0.0111501 0.0331329 0.00112947)
(0.0288563 -0.00389979 0.00753566)
(-0.0353443 -0.000689248 0.000599673)
(0.0175846 -0.0246606 0.00315414)
(0.0430596 -0.000773749 0.00116899)
(0.0468559 0.00354666 -0.00107139)
(0.0196509 -0.012344 0.000899013)
(0.00943578 -0.00401872 0.00102317)
(0.0264471 -0.00410464 0.00250316)
(-0.00327037 0.00331061 0.000194243)
(0.00210751 -0.00128602 0.000341716)
(-0.00390282 -0.00270299 0.000121253)
(-0.000388582 0.00134919 0.000395663)
(-0.00290944 -0.00792321 0.00063789)
(0.000349313 -9.65505e-05 2.56754e-05)
(0.000454752 3.961e-05 4.45191e-06)
(0.000365579 -5.95401e-05 1.73548e-06)
(0.000760541 -0.000209592 3.79033e-05)
(0.000658568 -0.000197673 9.71237e-06)
(0.0005506 -0.000189509 8.81017e-05)
(0.000951612 -0.000384685 7.36753e-05)
(0.000371236 -0.000129492 2.4834e-06)
(0.000702929 -0.000257083 6.39231e-06)
(0.000604154 -0.000260107 9.20643e-07)
(0.000326172 -0.000130533 7.8248e-07)
(0.000806392 -3.75901e-05 -4.21763e-07)
(0.000880466 -7.27073e-05 -1.96179e-06)
(0.00112539 -8.2052e-05 -8.44598e-07)
(0.000529084 -2.39423e-05 -4.42961e-06)
(0.000602477 -5.61268e-05 -4.06721e-06)
(0.000839002 -6.65271e-05 -4.30711e-06)
(0.00103332 -0.000135131 -4.29274e-06)
(0.000810907 -2.0178e-05 8.91495e-08)
(0.000823172 -2.20343e-05 -4.52424e-07)
(0.00106517 -4.15243e-05 1.3811e-07)
(0.000811205 -1.26396e-05 1.49878e-07)
(0.000820828 -1.47704e-05 7.05603e-08)
(0.00108104 -2.62469e-05 2.16339e-07)
(0.000809042 -7.67825e-06 8.22975e-08)
(0.000814329 -7.68429e-06 6.6319e-08)
(0.00107737 -1.57409e-05 1.85967e-07)
(0.000806677 -4.77515e-06 6.92362e-08)
(0.00080998 -4.63802e-06 5.27018e-08)
(0.00107478 -9.67555e-06 1.83312e-07)
(0.00080441 -3.15592e-06 5.81282e-08)
(0.000806738 -2.83656e-06 5.14734e-08)
(0.00107184 -6.01355e-06 1.80574e-07)
(0.000802223 -2.14815e-06 5.38587e-08)
(0.00080404 -1.91737e-06 5.20426e-08)
(0.00106902 -4.16712e-06 1.79108e-07)
(0.000800209 -1.43352e-06 6.0335e-08)
(0.000801652 -1.20174e-06 5.33083e-08)
(0.00106633 -2.61663e-06 1.7866e-07)
(0.000798781 -9.79743e-07 5.82083e-08)
(0.000799715 -6.24204e-07 6.03291e-08)
(0.00106408 -1.83935e-06 2.31558e-07)
(0.000797069 -7.56303e-07 2.65561e-08)
(0.000797952 -5.73707e-07 5.29932e-08)
(0.00106207 -1.14858e-06 1.73568e-07)
(0.000794935 -5.29478e-07 -2.18064e-09)
(0.000796192 7.57364e-07 4.60259e-08)
(0.00105957 -1.07509e-06 1.4487e-07)
(0.000793388 -1.28034e-07 1.06758e-08)
(0.000794424 2.08847e-06 4.29761e-08)
(0.00105705 -4.62078e-07 -3.28983e-08)
(0.000791835 1.03478e-07 6.66802e-08)
(0.000792762 -1.49527e-07 3.40711e-08)
(0.00105497 8.05336e-09 1.78909e-07)
(0.000790609 8.4876e-08 5.07306e-08)
(0.000791261 -6.64434e-07 1.5432e-07)
(0.0010532 1.97929e-07 1.85904e-07)
(0.000789 7.79819e-08 3.26228e-08)
(0.000789776 5.15221e-08 2.22833e-08)
(0.00105129 1.09208e-08 1.84306e-07)
(0.000787521 1.89811e-07 4.67516e-08)
(0.000788322 -3.90764e-07 5.41752e-08)
(0.00104913 2.39735e-07 1.64106e-07)
(0.000786158 2.70394e-07 3.97364e-08)
(0.000786891 -6.26086e-07 -5.55036e-08)
(0.00104738 3.45931e-07 1.97765e-07)
(0.000784517 1.87543e-07 1.15786e-07)
(0.0007852 1.89075e-07 8.27621e-08)
(0.00104545 4.51187e-07 1.92201e-07)
(0.000783035 2.42717e-08 1.29851e-07)
(0.000783502 2.89662e-08 1.28006e-07)
(0.00104319 1.30966e-07 1.90997e-07)
(0.000781508 -1.19068e-07 6.4211e-08)
(0.000782093 -2.83902e-08 7.43449e-08)
(0.00104111 7.70497e-09 2.10285e-07)
(0.000780355 -5.42361e-07 2.46992e-08)
(0.000780541 -3.29966e-07 5.44515e-08)
(0.00103948 -2.88745e-07 1.75361e-07)
(0.000777879 -6.63916e-07 3.90214e-08)
(0.000779101 2.98937e-06 -5.85708e-08)
(0.00103704 -1.16333e-06 4.5636e-08)
(0.00077658 -4.62428e-07 1.08094e-07)
(0.000777684 -4.14119e-07 2.88258e-08)
(0.00103438 -6.34196e-07 1.73419e-07)
(0.000775887 -3.53009e-07 9.80719e-08)
(0.000776518 -1.39523e-08 1.10696e-07)
(0.00103321 -6.06912e-07 2.68457e-07)
(0.000774857 6.97581e-08 1.24155e-07)
(0.000775654 -8.0135e-08 6.07498e-08)
(0.00103206 -3.21912e-07 2.3197e-07)
(0.000773777 5.3201e-07 1.38102e-07)
(0.000774481 5.75091e-07 2.42833e-07)
(0.00103062 5.54973e-07 1.28492e-07)
(0.000771904 4.58532e-07 6.20189e-08)
(0.000772741 5.41399e-07 9.56171e-08)
(0.0010287 9.18294e-07 2.30836e-07)
(0.000770553 1.6945e-07 5.05084e-08)
(0.000771093 2.28357e-07 3.61589e-08)
(0.00102648 3.17561e-07 1.67582e-07)
(0.000769289 1.03274e-07 7.21861e-08)
(0.000769859 -1.51876e-08 5.47892e-08)
(0.00102468 1.3555e-07 1.64965e-07)
(0.000768037 1.57042e-07 6.92044e-08)
(0.000768584 1.07145e-07 6.89206e-08)
(0.00102301 1.41682e-07 1.70476e-07)
(0.000766618 2.94037e-07 3.41745e-08)
(0.000767345 1.37625e-07 5.30585e-08)
(0.00102134 3.06724e-07 1.81461e-07)
(0.000765295 4.57301e-07 1.09374e-08)
(0.000766024 4.46411e-07 2.99549e-08)
(0.00101938 5.60447e-07 1.56904e-07)
(0.000763707 3.71765e-07 2.89533e-08)
(0.000764475 -7.81784e-07 4.77501e-08)
(0.00101734 7.15048e-07 1.81155e-07)
(0.000762449 -6.16815e-09 5.44207e-08)
(0.000762869 -7.38092e-08 5.32976e-08)
(0.00101554 2.66346e-07 1.82463e-07)
(0.000761063 -3.82157e-07 4.21015e-08)
(0.000761432 3.28876e-07 5.73823e-08)
(0.00101367 -2.76757e-07 1.53385e-07)
(0.000760061 -4.30032e-07 2.5536e-09)
(0.000760656 -9.12111e-07 3.63106e-08)
(0.00101205 -6.95072e-07 1.79559e-07)
(0.000758947 -2.41554e-07 1.63509e-08)
(0.000759849 -1.17174e-07 2.86899e-08)
(0.00101086 -4.77691e-07 1.36617e-07)
(0.000757524 -1.72224e-07 5.13711e-08)
(0.000758318 1.15425e-07 5.34174e-08)
(0.00100906 -2.37324e-07 1.7959e-07)
(0.000756147 -1.0565e-07 5.35496e-08)
(0.000756874 -9.24553e-08 4.89178e-08)
(0.00100712 -2.59936e-07 1.83181e-07)
(0.000754714 -1.02955e-07 5.12653e-08)
(0.000755455 -6.78764e-08 4.39235e-08)
(0.00100535 -2.77986e-08 1.71639e-07)
(0.000753335 -2.62667e-07 1.72145e-08)
(0.000753965 -3.4325e-07 6.01131e-08)
(0.00100344 -2.16643e-07 1.71486e-07)
(0.000751983 -2.959e-07 8.32567e-09)
(0.000752564 -1.53753e-07 1.32934e-08)
(0.0010015 -4.60129e-07 2.60553e-07)
(0.000751621 1.29055e-07 4.78587e-08)
(0.00100027 -3.2252e-07 8.02415e-08)
(0.00214092 -0.00549811 0.000505919)
(-0.013572 -0.0152622 0.00140129)
(-0.00325501 0.00922639 0.00114035)
(0.00636489 -0.00557799 0.00490293)
(0.000865818 -0.0323753 -0.000222459)
(0.00316879 -0.0212918 -0.0033081)
(-0.00078309 0.00361684 0.00156735)
(0.00848263 0.00248532 -0.00266502)
(-0.0106894 0.00419577 -0.000342268)
(0.00195208 0.00431876 -0.000328902)
(-0.00742244 0.00827057 -0.000998367)
(-0.00951352 -0.00137367 -0.00144287)
(-0.00951352 -0.00137367 -0.00144287)
(-0.00951352 -0.00137367 -0.00144287)
(-0.00951352 -0.00137367 -0.00144287)
(0.0175854 -0.0088657 0.00156771)
(-0.00575993 -0.00415182 0.00437438)
(-0.00817966 -0.00271567 0.000306873)
(-0.00575993 -0.00415182 0.00437438)
(-0.00817966 -0.00271567 0.000306873)
(-0.0132643 0.00486195 -0.000428874)
(-0.00377647 0.00626923 0.000409561)
(-0.00284142 -0.000902777 -0.000645318)
(-0.00879954 0.0102173 7.24759e-05)
(-0.00805597 0.0101457 -0.000997386)
(-0.00847421 0.00132501 0.00105103)
(-0.0017099 0.00971245 -0.000244756)
(-0.00897995 0.0162112 -0.000268516)
(0.0036676 0.00776137 -0.000376352)
(0.0122609 0.00847497 0.000244775)
(0.010618 0.0130891 0.00038945)
(0.00675511 0.0023474 -0.000958935)
(0.00511047 0.000846633 -0.000669266)
(-0.00790873 0.00494485 -0.000202596)
(-0.0143107 0.00953802 7.59691e-05)
(-0.00451135 0.0065146 -0.000251477)
(-0.00825538 0.0120711 -0.000210492)
(-0.0182604 0.0102084 -0.00130514)
(0.00106518 -0.000124077 1.59025e-05)
(0.000431108 -0.000111061 2.56644e-05)
(0.000462799 -0.000210273 4.20843e-05)
(0.000703817 -0.000231605 6.89224e-05)
(0.00032732 -0.000109472 1.71989e-05)
(0.000870874 -3.1323e-05 -1.99294e-06)
(0.000624912 -2.17013e-05 -1.91533e-06)
(0.00122782 -9.19704e-05 -1.58987e-06)
(0.000631192 -6.89113e-05 -5.33451e-06)
(0.000655343 -4.93934e-05 -5.00044e-06)
(0.00107374 -0.000153759 -4.24581e-06)
(0.00113378 -0.000103016 -2.47947e-06)
(0.000591357 -4.18155e-05 -4.81415e-06)
(0.00106239 -4.46243e-05 -1.26649e-06)
(0.000982148 -7.20503e-05 -5.72796e-06)
(0.000836864 -4.99058e-06 -4.71184e-07)
(0.000864608 2.0148e-05 -1.00527e-06)
(0.00113014 -8.26449e-06 6.65218e-08)
(0.000823548 -6.46088e-06 -1.29972e-08)
(0.000819112 1.49433e-07 -2.97608e-07)
(0.00110536 -1.61292e-05 1.61039e-07)
(0.000815065 -3.51289e-06 3.67278e-08)
(0.000818083 1.02575e-06 1.08076e-07)
(0.00109082 -8.26136e-06 1.71725e-07)
(0.00080989 -2.43882e-06 3.49395e-08)
(0.000811364 -1.00235e-07 1.71078e-08)
(0.00108151 -5.69284e-06 1.73199e-07)
(0.000806288 -1.63208e-06 4.53876e-08)
(0.000807773 -3.41028e-07 4.4535e-08)
(0.00107575 -3.6953e-06 1.77578e-07)
(0.000803394 -1.09262e-06 5.14918e-08)
(0.000804731 -3.44087e-07 4.99051e-08)
(0.0010714 -2.45904e-06 1.79399e-07)
(0.00080097 -6.93859e-07 5.33001e-08)
(0.000802161 -2.19216e-07 5.01414e-08)
(0.00106778 -1.58198e-06 1.79302e-07)
(0.000798968 -5.0638e-07 5.51163e-08)
(0.000799956 -1.45893e-07 5.11397e-08)
(0.00106488 -9.90288e-07 1.78065e-07)
(0.000797005 -4.76382e-07 7.24652e-08)
(0.000797994 -1.75391e-07 5.34087e-08)
(0.0010622 -8.16178e-07 1.80966e-07)
(0.000795722 -4.39844e-07 9.11836e-08)
(0.000796241 -2.61634e-07 6.58439e-08)
(0.00106003 -7.31151e-07 2.21126e-07)
(0.0007937 -2.7717e-07 6.63742e-08)
(0.00079463 6.62874e-07 8.06842e-08)
(0.00105785 -6.4641e-07 3.14173e-07)
(0.000792192 -8.38172e-08 1.21672e-07)
(0.000793006 -1.66117e-07 3.56266e-08)
(0.00105552 -2.54378e-07 1.73158e-07)
(0.000790405 -2.42456e-08 1.25915e-07)
(0.000791336 -4.76782e-07 1.33017e-07)
(0.00105328 -8.57056e-08 1.83767e-07)
(0.000789073 -2.8262e-08 4.38255e-08)
(0.000789771 -1.57516e-07 4.81996e-08)
(0.00105122 -5.56603e-08 1.72564e-07)
(0.000787724 -5.12718e-08 -4.80451e-08)
(0.000788293 -2.60472e-07 1.43462e-08)
(0.00104947 -4.82147e-08 1.51045e-07)
(0.000786059 -2.04451e-07 -1.25218e-08)
(0.000786701 1.99081e-07 -2.85919e-08)
(0.00104741 -7.02383e-08 1.30788e-07)
(0.000783972 -1.85238e-07 9.4968e-08)
(0.000785225 -9.57724e-07 5.3645e-08)
(0.00104488 -4.58161e-07 3.06494e-07)
(0.000782618 -1.09702e-07 7.2517e-08)
(0.000783597 -2.67975e-07 7.52295e-08)
(0.00104255 -6.05124e-08 1.83824e-07)
(0.000781197 -1.76643e-07 6.45918e-08)
(0.00078201 6.01122e-08 6.41555e-08)
(0.00104081 -2.35418e-07 1.63695e-07)
(0.000779188 -2.25252e-07 -2.87828e-08)
(0.000780481 -1.01871e-07 7.43855e-08)
(0.0010383 -1.85146e-07 2.06602e-07)
(0.000778993 5.00113e-08 -6.87939e-08)
(0.000779445 -1.14473e-06 -2.36081e-08)
(0.00103694 -3.34237e-07 3.55175e-07)
(0.000777349 5.86393e-07 3.14015e-08)
(0.000778353 -1.09079e-06 3.68719e-09)
(0.00103589 5.40027e-07 2.40156e-07)
(0.000776413 7.61706e-07 7.33895e-08)
(0.000776734 -9.95937e-07 4.22633e-08)
(0.00103392 1.04463e-06 2.00212e-07)
(0.000775279 5.73993e-07 1.79372e-07)
(0.000775417 -1.9335e-06 -3.26564e-08)
(0.00103276 9.68704e-07 2.80317e-07)
(0.000773716 2.85977e-07 2.00395e-07)
(0.000774119 4.29456e-07 1.68148e-07)
(0.00103102 5.43536e-07 1.97919e-07)
(0.000771648 1.20855e-07 6.97757e-08)
(0.000772534 1.75142e-07 8.1369e-08)
(0.00102827 2.29322e-07 2.5914e-07)
(0.00077042 1.03509e-07 4.0434e-08)
(0.000771071 6.01854e-08 3.92285e-08)
(0.00102614 9.57713e-08 1.70972e-07)
(0.000769156 1.12714e-07 5.15193e-08)
(0.000769871 -1.15378e-07 4.3663e-08)
(0.00102461 1.47691e-07 1.69681e-07)
(0.00076789 5.4261e-08 5.27797e-08)
(0.000768511 7.09163e-08 4.37203e-08)
(0.00102285 1.27767e-07 1.65686e-07)
(0.000766709 1.71671e-08 4.88461e-08)
(0.000767299 4.15102e-08 5.12826e-08)
(0.0010212 1.53328e-08 1.62694e-07)
(0.000765366 -4.19059e-08 6.67621e-08)
(0.00076595 5.52262e-07 2.25328e-08)
(0.00101955 1.26265e-08 1.62702e-07)
(0.000763597 -1.50458e-07 7.20928e-08)
(0.000764339 7.00283e-07 6.08582e-08)
(0.00101739 -1.33428e-07 1.02142e-07)
(0.000761768 -1.78029e-07 5.6258e-08)
(0.000762835 7.73729e-07 5.83199e-08)
(0.00101495 -2.32093e-07 1.53016e-07)
(0.000760725 1.53991e-07 5.15979e-08)
(0.000761846 2.23987e-07 4.73481e-08)
(0.00101298 -1.74864e-07 1.50486e-07)
(0.000760845 3.33608e-07 6.24492e-08)
(0.000760879 -2.359e-06 4.30798e-08)
(0.00101244 6.63002e-07 1.42205e-07)
(0.000759184 1.12124e-07 6.57488e-08)
(0.000759571 2.17568e-07 4.40859e-08)
(0.00101149 3.37839e-07 1.74044e-07)
(0.000757635 6.7115e-08 5.09655e-08)
(0.000758261 3.74603e-07 4.29482e-08)
(0.00100925 1.20582e-07 1.6872e-07)
(0.000756189 1.46412e-07 3.92933e-08)
(0.000756972 -1.44607e-07 4.43236e-08)
(0.00100736 2.04974e-07 1.81608e-07)
(0.000754667 1.53099e-07 5.27664e-08)
(0.000755462 2.33821e-07 5.09169e-08)
(0.00100534 3.00373e-07 1.61976e-07)
(0.000753213 1.31435e-07 5.62062e-08)
(0.000753937 -6.45209e-08 4.44038e-08)
(0.00100322 2.00483e-07 1.56691e-07)
(0.000752005 1.12089e-07 5.2816e-08)
(0.000752538 -3.56511e-07 3.65987e-08)
(0.00100139 1.99688e-07 1.68703e-07)
(0.000751481 1.03484e-07 5.54865e-08)
(0.0010001 1.10913e-07 1.5765e-07)
(-0.0319007 0.00249678 0.0024215)
(-0.0602345 0.00724426 -0.00348868)
(-0.0223253 -0.00519092 0.00203675)
(-0.0503484 0.00572148 0.00554969)
(-0.0107653 -0.000419014 -0.000809061)
(-0.00466408 0.00706605 -0.0028494)
(3.46961e-05 -0.00340136 -0.00801538)
(-0.0111473 -0.0142232 -0.00103684)
(-0.0148374 -0.0181403 -0.000521712)
(-0.0148374 -0.0181403 -0.000521712)
(-0.0148374 -0.0181403 -0.000521712)
(-0.0148374 -0.0181403 -0.000521712)
(-0.0371087 -0.025818 0.000168973)
(-0.0454617 0.00853033 -0.000834639)
(-0.0314402 0.0323316 8.70728e-05)
(-0.0711224 0.0189408 -0.00166104)
(-0.072165 0.0116074 -0.00590145)
(0.0118555 -0.00605521 0.00176444)
(0.0121029 -0.000841839 0.000642996)
(1.58616e-05 0.00255878 -0.000194703)
(0.0182611 -0.0122357 0.0056408)
(-0.00695202 -0.00474452 -0.00177068)
(-0.000873837 -0.0103532 -0.00346994)
(0.0171372 -0.00497858 -0.00129622)
(0.0140059 -0.00152135 0.00686371)
(0.0159328 -0.00318837 -0.00844531)
(0.0147361 -0.00274963 0.00292874)
(0.00559528 -0.00574948 0.00156324)
(0.00559528 -0.00574948 0.00156324)
(0.00559528 -0.00574948 0.00156324)
(0.00559528 -0.00574948 0.00156324)
(0.00293939 -0.0184405 0.000598406)
(-0.000179015 -0.0109232 -0.000350019)
(0.000431312 -0.00871161 -8.83554e-05)
(-0.00315998 -0.00745304 -0.00014416)
(0.00589695 -0.0100856 0.00109379)
(-0.00351542 -0.00777394 -0.000212472)
(-0.00264227 -0.00600733 -0.000319458)
(0.00254206 -0.0040219 -2.33915e-05)
(0.000886085 -0.00542296 -0.000222838)
(0.00192721 -0.00667363 -0.000594575)
(0.000883306 -0.000621144 3.94373e-05)
(0.00103804 -9.60123e-05 1.50425e-05)
(0.00148593 4.43678e-05 -3.54133e-05)
(0.00134102 -8.94011e-05 -4.107e-05)
(0.00125824 -0.00010292 2.12104e-05)
(0.000328252 -3.48259e-05 -2.68119e-06)
(0.000487732 -1.92877e-05 -3.62235e-06)
(0.000480617 -1.57969e-05 -7.59101e-07)
(0.000807095 -3.57577e-05 -1.53473e-06)
(0.000339227 -1.80575e-05 -2.62234e-06)
(0.00059864 -9.13041e-05 -4.15095e-06)
(0.000629904 -4.58975e-05 -3.32972e-06)
(0.000823981 1.31462e-05 -8.31928e-07)
(0.000878467 1.37239e-05 -1.18939e-06)
(0.0011824 2.54861e-05 -9.91101e-07)
(0.000598088 -7.04606e-06 -4.15661e-06)
(0.000609907 7.91421e-06 -4.80609e-06)
(0.000994727 -3.54085e-05 -5.07062e-06)
(0.00102301 3.89426e-06 -5.89272e-06)
(0.000818183 3.87885e-06 -1.76668e-07)
(0.000807402 7.1238e-06 -5.72759e-07)
(0.0010814 3.57236e-06 5.92124e-08)
(0.000813382 2.32063e-06 8.84854e-08)
(0.000816154 4.58603e-06 1.70705e-07)
(0.00109062 2.61439e-06 2.08595e-07)
(0.000809327 9.68318e-07 2.66944e-08)
(0.000809689 2.97112e-06 1.32067e-07)
(0.00108061 7.85125e-07 1.76985e-07)
(0.000806175 4.10478e-07 4.90508e-08)
(0.000807087 1.48133e-06 8.25595e-08)
(0.00107596 -1.5454e-08 1.84546e-07)
(0.000803484 3.19162e-07 4.85547e-08)
(0.000804624 9.61569e-07 4.92863e-08)
(0.00107171 -6.30206e-08 1.79972e-07)
(0.000801099 3.12719e-07 4.79807e-08)
(0.000802158 7.14614e-07 2.23744e-08)
(0.00106819 1.52358e-07 1.79164e-07)
(0.000798957 1.88068e-07 4.94314e-08)
(0.000799803 5.04605e-07 3.90015e-08)
(0.00106505 1.92093e-07 1.78364e-07)
(0.000797154 1.06092e-07 4.67834e-08)
(0.000797893 5.93225e-08 4.80723e-08)
(0.0010624 5.05102e-09 1.78778e-07)
(0.000795226 -8.64817e-09 5.53398e-08)
(0.000796099 3.01531e-07 4.54709e-08)
(0.00105979 8.6541e-08 1.67824e-07)
(0.000793892 -1.94717e-07 4.99511e-08)
(0.000794399 2.81464e-07 1.10276e-07)
(0.00105766 -2.17425e-07 1.82838e-07)
(0.000792185 -2.32246e-07 4.69404e-08)
(0.00079296 -7.49989e-08 4.0176e-08)
(0.00105568 -3.59418e-07 1.83205e-07)
(0.000790632 -1.61737e-07 5.53291e-08)
(0.000791426 -7.59763e-08 6.29545e-08)
(0.00105345 -3.172e-07 1.48827e-07)
(0.00078897 -1.43142e-07 1.87311e-08)
(0.000789796 -3.36454e-11 9.87243e-08)
(0.00105134 -1.74492e-07 1.75853e-07)
(0.000787314 -2.19627e-07 3.3813e-08)
(0.000788199 -9.37752e-08 5.84881e-09)
(0.00104911 -2.86494e-07 1.75346e-07)
(0.000785815 -3.18748e-07 3.75488e-08)
(0.000786578 8.30014e-08 8.83558e-08)
(0.00104687 -3.65016e-07 1.82065e-07)
(0.00078499 -2.90723e-07 3.38997e-08)
(0.000785261 9.69053e-08 4.22731e-08)
(0.00104546 -5.0392e-07 4.22073e-08)
(0.000782787 -3.9119e-08 6.68715e-08)
(0.000783912 -5.90619e-07 4.39043e-08)
(0.00104347 -2.74141e-07 2.60077e-07)
(0.000781465 2.25299e-07 7.3946e-08)
(0.00078234 -1.80748e-07 6.45383e-08)
(0.00104095 1.77269e-07 1.78079e-07)
(0.000780343 6.70245e-07 7.95911e-08)
(0.000781034 -6.36801e-07 4.60575e-08)
(0.00103935 4.60694e-07 1.82284e-07)
(0.00077922 8.79186e-07 4.88644e-08)
(0.000779703 -2.0464e-06 3.97311e-08)
(0.00103795 1.38604e-06 2.09217e-07)
(0.000777552 7.84746e-07 1.45368e-08)
(0.00077823 2.05907e-08 2.997e-08)
(0.0010361 1.02087e-06 1.15976e-07)
(0.000775814 8.07498e-07 -6.3759e-08)
(0.000776759 -1.82525e-07 3.05464e-08)
(0.00103374 1.11175e-06 1.44133e-07)
(0.000774145 5.09892e-07 -4.3943e-08)
(0.000775042 -4.5424e-07 -4.51618e-08)
(0.00103142 1.07074e-06 9.13752e-08)
(0.000773118 8.06868e-08 4.91494e-08)
(0.000773581 -4.10156e-08 3.66554e-08)
(0.0010297 3.12611e-07 1.73399e-07)
(0.000771771 -4.60685e-09 5.08349e-08)
(0.000772426 3.79745e-09 5.0309e-08)
(0.00102814 -8.70851e-08 1.81223e-07)
(0.000770591 4.70627e-08 4.24561e-08)
(0.000771135 4.40624e-08 5.33658e-08)
(0.00102638 9.79635e-08 1.55851e-07)
(0.000769191 1.87914e-08 3.58639e-08)
(0.000769835 -1.63675e-09 4.5951e-08)
(0.00102472 3.85748e-08 1.66548e-07)
(0.000767847 -2.26521e-08 4.22208e-08)
(0.000768459 7.15823e-08 3.33358e-08)
(0.00102284 -3.40338e-09 1.70069e-07)
(0.000766669 -2.21144e-07 2.49782e-08)
(0.000767051 -1.65574e-07 5.0822e-08)
(0.00102119 -8.47579e-08 1.70287e-07)
(0.000764946 -3.79234e-07 1.6617e-08)
(0.000765754 2.22861e-06 5.35243e-08)
(0.0010192 -5.2238e-07 8.4083e-08)
(0.000763545 -2.43468e-07 4.70861e-08)
(0.00076451 9.28515e-07 5.73978e-08)
(0.00101704 -4.94204e-07 1.59157e-07)
(0.000762645 1.6411e-07 4.94134e-08)
(0.000763345 3.27386e-07 5.48954e-08)
(0.00101548 -1.41894e-07 1.62597e-07)
(0.000762234 5.77263e-07 3.88313e-08)
(0.000762361 -1.88501e-07 9.41229e-08)
(0.00101479 5.87474e-07 1.15745e-07)
(0.000759604 5.11805e-07 2.47161e-08)
(0.000760794 -1.04065e-06 4.69777e-08)
(0.00101269 9.33782e-07 1.90918e-07)
(0.000758593 1.85443e-07 2.12856e-08)
(0.000759161 4.71434e-07 2.17976e-08)
(0.00101017 4.65697e-07 1.20911e-07)
(0.00075765 3.39926e-08 3.63059e-08)
(0.00075807 2.1536e-07 4.43498e-08)
(0.00100889 1.00993e-07 1.44066e-07)
(0.00075632 3.73338e-09 5.59452e-08)
(0.000756934 6.00472e-08 4.26221e-08)
(0.00100734 3.60976e-08 1.52345e-07)
(0.000754562 3.73192e-08 4.25563e-08)
(0.000755504 -3.29218e-07 2.02424e-08)
(0.00100534 -1.10374e-08 2.46535e-07)
(0.000753416 1.54332e-07 2.47987e-08)
(0.000754083 -2.89689e-07 -5.85604e-08)
(0.00100331 1.09743e-07 1.65378e-07)
(0.000751767 2.257e-07 3.92635e-08)
(0.000752624 1.08729e-07 2.11759e-08)
(0.00100138 2.99223e-07 1.60172e-07)
(0.0007512 3.64902e-07 6.77223e-08)
(0.000999881 3.061e-07 1.16536e-07)
(-0.0282578 0.000718449 8.14663e-05)
(-0.0105481 -0.00728292 -0.0020966)
(-0.0196562 -0.00453559 0.00263814)
(-0.0039906 0.00943117 -0.00068854)
(0.000803376 0.00481394 0.00129227)
(-0.0196593 -0.0177181 -0.00127021)
(-0.00272189 -0.01095 0.00246259)
(-0.0151111 0.0052882 -7.11775e-05)
(-0.0065608 0.00102286 -0.00171899)
(-0.0100002 0.0145846 -0.000202848)
(-0.0185966 0.0120143 -0.0016117)
(-0.00666574 0.006014 -0.000654701)
(-0.00942158 -0.0114178 3.07919e-05)
(-0.00243323 -0.0166272 -0.000199709)
(-0.00235545 0.00697583 -5.79574e-05)
(-0.0090245 -0.00647328 -0.00214416)
(-0.00268206 -0.000233519 -0.000536021)
(0.00545224 -0.00603404 -0.000828393)
(-0.0172441 0.00593045 -0.00184416)
(0.027653 0.00685448 -0.000821387)
(0.00678345 0.0190496 -0.000966568)
(0.00529721 0.00744571 -0.00544639)
(0.000777132 -0.00471046 0.000163702)
(-0.000655655 -0.00188523 0.000170659)
(0.00339424 -0.00154392 7.84961e-05)
(-0.000733944 0.00179066 -0.000206053)
(-0.000575226 0.000508952 -0.000376283)
(-0.000544711 0.000640528 9.84035e-05)
(0.00213943 -0.00262368 2.47039e-05)
(0.00391464 -0.00200398 -2.87835e-05)
(0.00125266 6.24046e-05 -4.92673e-05)
(0.00344233 -0.00248587 -0.000110467)
(0.000936633 0.000354791 7.74147e-05)
(0.00215844 0.000262896 4.44498e-05)
(0.00155424 0.000402633 0.000143607)
(0.00160769 0.000447191 -3.81575e-05)
(0.00127792 0.000177185 8.29577e-05)
(0.000315731 1.14029e-05 -2.2197e-06)
(0.000480483 3.13317e-06 -3.75059e-06)
(0.000439865 -2.94799e-06 -1.30999e-06)
(0.00074527 2.86527e-06 -1.66626e-06)
(0.000317413 -4.43309e-06 -2.24121e-06)
(0.000596908 2.65165e-05 1.25454e-06)
(0.000601806 -1.44946e-05 2.07966e-06)
(0.000462151 2.34815e-07 -1.10723e-06)
(0.000818405 1.02982e-05 -9.30425e-07)
(0.000868956 1.29147e-05 -1.28859e-06)
(0.00117013 1.60993e-05 -1.11686e-06)
(0.000600216 6.86502e-06 -3.86138e-06)
(0.000601091 6.0432e-06 -4.79191e-06)
(0.00100416 9.25391e-06 -4.51784e-06)
(0.00101009 9.87364e-06 -5.7954e-06)
(0.000814741 7.1048e-06 -2.25629e-07)
(0.000803346 1.1093e-05 -5.62356e-07)
(0.00107644 1.11384e-05 8.21557e-08)
(0.000811089 4.59085e-06 2.14299e-07)
(0.000813001 6.72943e-06 1.68061e-07)
(0.0010874 7.39823e-06 2.06796e-07)
(0.000807695 2.97405e-06 1.87948e-07)
(0.000807662 5.08523e-06 1.37639e-07)
(0.00107827 4.48169e-06 1.84991e-07)
(0.000805664 1.92155e-06 8.28057e-08)
(0.000805768 1.28393e-06 7.4936e-08)