/*--------------------------------*- C++ -*----------------------------------*\
| =========                 |                                                 |
| \\      /  F ield         | OpenFOAM: The Open Source CFD Toolbox           |
|  \\    /   O peration     | Version:  5.0                                   |
|   \\  /    A nd           | Web:      www.OpenFOAM.org                      |
|    \\/     M anipulation  |                                                 |
\*---------------------------------------------------------------------------*/
FoamFile
{
    version     2.0;
    format      ascii;
    class       surfaceScalarField;
    location    "3.7";
    object      alphaPhi10;
}
// * * * * * * * * * * * * * * * * * * * * * * * * * * * * * * * * * * * * * //

dimensions      [0 3 -1 0 0 0 0];

internalField   nonuniform List<scalar> 
26428
(
1.6868e-09
-3.89577e-10
-2.7952e-09
-3.0897e-08
-3.91373e-08
-5.54722e-09
4.56369e-07
8.73042e-08
-2.33334e-07
-1.04128e-07
3.25306e-08
1.70058e-08
-4.95818e-08
-3.28233e-08
5.44557e-08
1.70306e-09
7.26049e-10
1.37461e-09
1.86715e-08
-9.6419e-09
1.29463e-08
-1.91039e-08
-8.27281e-09
-3.39175e-09
-1.62351e-09
1.67285e-08
-4.12706e-11
6.27752e-08
6.27854e-08
6.27763e-08
1.93694e-22
1.98929e-18
-7.05445e-20
-2.13715e-19
6.97847e-18
-2.08962e-17
1.00359e-17
1.74994e-18
4.03209e-18
1.75538e-18
6.9102e-26
1.64335e-22
1.02048e-24
1.08199e-26
5.42722e-26
5.76642e-29
3.40755e-28
1.10319e-28
2.23011e-31
1.67773e-30
2.54241e-30
-6.02966e-32
2.98331e-34
4.09246e-33
-1.88032e-33
3.0946e-38
6.19134e-37
-9.10958e-37
1.06525e-41
1.07772e-40
1.79864e-40
4.41686e-45
3.21152e-44
-5.63683e-43
1.84369e-48
7.00554e-48
9.8078e-47
7.72116e-52
1.77186e-51
5.6623e-49
3.21231e-55
5.8689e-55
-2.54395e-52
1.3353e-58
1.06695e-58
-3.16481e-55
5.6228e-62
2.5718e-62
-9.19843e-61
2.34854e-65
1.06594e-65
-1.026e-61
9.72809e-69
6.91732e-70
-1.21872e-64
4.08556e-72
4.97143e-73
4.60936e-69
2.23895e-75
4.40849e-77
3.73465e-71
1.44953e-78
-1.30107e-79
8.00929e-75
4.04416e-82
-1.58473e-83
-8.94607e-78
2.44924e-85
3.61529e-87
-5.55769e-81
3.00153e-88
-5.4722e-89
2.87837e-83
8.99419e-92
-2.58915e-94
6.4059e-88
8.71437e-95
5.00855e-95
9.70129e-91
2.04961e-98
2.09837e-99
-1.57658e-94
3.6278e-101
3.98754e-103
-5.59282e-97
9.27075e-104
-4.41924e-104
1.99935e-99
1.74024e-107
3.53165e-109
-3.03813e-103
9.50144e-111
1.47481e-111
3.46253e-106
1.33583e-113
1.11581e-115
-8.40228e-110
3.98553e-116
4.79737e-117
-2.75237e-112
3.17893e-120
-6.28694e-121
1.8921e-118
1.01761e-123
-7.93043e-125
3.30512e-125
8.87446e-127
7.41163e-128
-6.98665e-123
1.7176e-129
1.53714e-130
-1.02781e-125
2.48912e-132
5.11256e-133
2.1293e-127
4.51637e-135
1.68064e-135
-2.79787e-131
7.54985e-139
-4.13017e-140
-2.74967e-135
5.35005e-142
2.46774e-142
-4.46421e-137
1.1351e-145
6.82805e-148
-2.77996e-141
2.06628e-148
-2.78215e-152
6.0511e-147
2.3554e-150
9.58698e-152
-1.88423e-147
2.60522e-155
3.07236e-155
-1.07938e-08
1.16681e-08
8.19136e-09
1.16646e-09
4.00412e-09
5.08446e-08
8.47568e-08
2.4119e-08
5.8158e-08
-1.37776e-08
-1.3852e-08
3.2189e-09
-1.12259e-08
1.81332e-08
5.80035e-08
-9.98511e-08
8.16092e-09
1.74174e-08
-9.55253e-09
-8.73789e-09
-6.23594e-09
-3.36758e-09
1.1738e-08
9.46649e-09
1.12212e-08
5.26556e-09
1.14734e-08
1.35077e-09
1.15161e-07
-6.04249e-08
-7.46789e-08
9.77811e-08
2.36453e-08
2.38354e-08
2.45029e-08
2.25845e-08
-6.41e-09
1.17625e-08
-7.18546e-09
-6.58356e-10
1.52034e-09
3.29483e-11
-3.86233e-11
1.78415e-08
1.12703e-10
1.78055e-08
-1.8082e-18
1.73968e-18
2.76599e-08
2.38012e-18
3.02847e-24
-5.23005e-23
1.58049e-23
7.17017e-22
6.87627e-22
3.2317e-21
9.17026e-22
3.43404e-27
9.11717e-26
2.30615e-26
1.02631e-28
6.8083e-27
3.26051e-30
3.30614e-31
4.95003e-29
4.0985e-32
2.69639e-34
3.46538e-33
1.88635e-34
1.73623e-38
4.58063e-37
6.56197e-38
4.49968e-42
1.00545e-40
1.43579e-41
1.81393e-45
2.56339e-44
-6.15322e-44
7.50702e-49
7.45003e-48
-7.33235e-48
3.10693e-52
2.36827e-51
-5.97828e-52
1.28452e-55
4.90681e-55
-8.49011e-53
5.27511e-59
1.30826e-58
4.65097e-57
2.16921e-62
1.61693e-62
6.69008e-61
8.99115e-66
8.71426e-66
-1.48559e-63
3.7643e-69
3.67502e-69
-1.42977e-65
1.54241e-72
4.53586e-74
1.09066e-69
6.31384e-76
9.18056e-77
-6.06663e-74
2.76589e-79
1.44723e-79
1.73614e-75
1.2223e-82
-9.82544e-84
-5.37949e-79
4.7682e-86
6.87885e-87
-2.73646e-82
2.10125e-89
8.61605e-90
-7.10273e-85
9.53345e-93
2.22514e-91
4.64877e-88
7.30593e-96
4.07449e-97
3.01725e-94
1.00571e-98
5.0768e-100
-8.68377e-95
2.04091e-102
-6.36883e-100
-2.516e-99
2.16609e-105
-1.01511e-102
9.87196e-100
8.12065e-109
5.08911e-109
-6.38414e-105
6.78399e-112
-3.33801e-113
7.31589e-107
1.98359e-115
-3.56636e-114
-1.97133e-110
5.17624e-118
6.10017e-120
1.24496e-119
7.62975e-120
-3.52899e-121
-8.05716e-117
5.60136e-124
-3.53547e-124
2.12682e-119
1.66723e-127
-4.18089e-127
-3.2387e-123
1.23805e-130
4.04991e-131
-7.603e-126
2.77809e-134
7.95631e-134
-2.90111e-129
1.05401e-137
2.78472e-138
2.94182e-138
5.60787e-141
2.97214e-141
8.72178e-136
2.90694e-144
9.64838e-146
-8.38821e-139
9.79814e-148
-2.19108e-146
-5.11118e-143
3.68603e-151
-7.80387e-150
1.90538e-147
4.52371e-153
3.7989e-155
5.95237e-151
8.82649e-158
-4.396e-152
-2.63065e-09
1.67917e-08
-1.18552e-08
-5.19373e-09
7.80946e-08
-2.68965e-08
7.69142e-08
6.46162e-08
6.44978e-08
6.55686e-08
6.27999e-08
-7.97053e-08
-2.02959e-08
2.28345e-08
-7.85672e-09
2.02235e-08
1.43578e-08
1.62923e-08
-5.62376e-09
6.22336e-09
-4.21493e-08
1.97644e-09
1.18761e-07
-4.13854e-08
-4.1118e-08
-4.55253e-08
-4.22714e-08
-5.10413e-08
-4.82047e-08
-5.07397e-08
-4.99996e-08
-6.27064e-08
-8.92752e-08
5.47623e-09
7.89488e-09
-8.89608e-08
2.77955e-10
-1.24805e-08
3.99413e-09
4.81439e-09
6.17259e-09
5.73344e-10
9.39416e-11
1.05423e-09
-1.05617e-10
1.33625e-09
1.14054e-16
-1.15036e-18
-5.74826e-09
-9.27276e-18
-3.22607e-16
5.82005e-16
-6.50497e-16
-4.51343e-18
1.83905e-23
-1.47172e-21
5.76701e-22
8.0368e-20
9.32707e-20
1.16226e-19
4.51763e-21
-6.90311e-26
-1.12154e-25
2.51398e-26
1.36459e-26
-7.75875e-28
6.87063e-29
3.24271e-29
1.25171e-29
3.70675e-29
1.38126e-33
3.33781e-32
7.16655e-32
1.82663e-37
4.94138e-36
4.72916e-36
7.07134e-41
1.08876e-39
2.92161e-39
2.9089e-44
3.15188e-43
-1.58594e-42
1.20812e-47
7.75372e-47
5.60115e-46
5.07574e-51
7.83015e-51
-1.04032e-47
2.12145e-54
4.89549e-54
1.21322e-50
8.7422e-58
1.54002e-57
-4.57264e-55
3.66993e-61
4.28216e-61
5.39253e-58
1.54256e-64
1.0532e-64
2.2894e-63
6.68473e-68
1.1198e-67
3.71771e-64
2.72028e-71
3.1028e-73
-1.79942e-67
1.24157e-74
-5.27441e-75
-1.0926e-70
5.94139e-78
-5.78895e-79
2.61848e-73
2.53532e-81
1.16074e-81
2.23873e-77
1.61874e-84
-2.22356e-85
2.67718e-83
3.88146e-87
-1.22802e-88
-7.9825e-84
1.98993e-90
-8.52538e-92
5.23196e-87
3.05515e-94
-1.86149e-94
5.92745e-95
1.15533e-96
-7.1014e-97
2.98534e-98
3.03361e-98
3.16167e-100
-2.33457e-95
2.08562e-102
4.22297e-104
-4.42457e-98
3.21355e-106
7.58185e-107
-1.89011e-102
1.40552e-109
-1.13902e-110
3.95376e-105
5.38223e-113
1.87375e-114
-1.26041e-108
4.63352e-116
-3.38174e-117
-2.3433e-113
2.16591e-118
5.98269e-120
-8.14239e-115
2.79993e-122
1.18144e-122
1.704e-117
1.3511e-125
-4.91245e-126
-5.1325e-121
8.67876e-129
5.33298e-128
-1.00496e-123
5.09075e-132
1.96556e-132
7.27081e-127
1.37036e-135
-8.85452e-136
-3.48476e-131
4.78489e-139
-8.63496e-139
2.14395e-135
5.24837e-142
-3.02489e-142
5.06555e-140
2.10116e-144
8.0066e-146
-1.59396e-140
7.15839e-148
1.50063e-148
-5.82268e-144
9.64148e-152
-2.47536e-153
1.99454e-149
-9.76472e-155
1.16664e-154
2.21987e-08
1.92125e-08
1.85894e-08
1.34633e-08
-1.76938e-09
1.20689e-08
4.86679e-08
1.60367e-08
1.65019e-08
3.04266e-08
3.15987e-08
6.45796e-08
5.82589e-08
1.30085e-08
5.29134e-08
7.0961e-09
9.55077e-09
-2.73078e-08
2.20398e-08
2.57138e-08
2.49792e-08
2.27012e-08
9.61159e-09
-9.47298e-08
1.15381e-08
1.58223e-08
-8.25028e-08
8.64445e-10
-1.2359e-08
3.44295e-09
1.83559e-09
6.60769e-09
-1.35915e-10
5.06665e-10
-3.37851e-10
9.53999e-11
-2.78354e-11
7.189e-14
-5.11362e-16
2.3357e-08
8.71393e-16
2.3357e-08
-1.74641e-22
-3.42151e-20
3.18954e-21
3.44654e-19
5.32871e-21
3.21543e-19
4.34168e-19
4.57314e-27
-5.86294e-24
-4.54442e-26
1.30914e-27
-9.44904e-27
9.83687e-30
1.03377e-28
-8.19008e-28
9.18152e-30
1.23051e-31
-5.46728e-30
2.75287e-32
7.74735e-36
-1.97345e-33
9.87799e-35
1.4366e-39
-2.27991e-37
5.55485e-38
5.57457e-43
-5.36023e-41
3.36222e-41
2.30692e-46
-1.38943e-44
-1.39202e-44
9.59082e-50
-3.01953e-48
-1.34295e-46
3.92291e-53
-1.31896e-51
-1.30994e-51
1.61858e-56
-1.71231e-55
-8.21964e-54
6.68129e-60
-5.39656e-59
4.28472e-57
2.89269e-63
-2.22011e-62
-4.34662e-60
1.37426e-66
-8.84495e-67
1.53249e-62
5.53778e-70
2.73114e-69
3.16592e-67
2.40792e-73
-7.05049e-74
-1.78451e-69
9.79434e-77
-9.42598e-78
-7.93427e-73
7.34906e-80
-3.59487e-81
2.02462e-76
1.68089e-82
1.87749e-83
-9.17221e-79
1.81707e-86
-4.00459e-85
4.34933e-83
1.35865e-89
7.07032e-91
3.04044e-85
4.5006e-92
1.13499e-93
-1.27216e-88
1.09415e-95
-5.67718e-96
-3.86123e-92
2.48068e-99
-5.17171e-98
-2.49948e-94
2.2623e-102
-9.09697e-104
-3.02558e-98
4.51398e-105
1.01273e-105
-6.79378e-102
6.2244e-109
2.70991e-110
-4.26107e-104
3.81289e-112
-2.24534e-111
-2.59188e-107
8.13131e-115
-1.09264e-114
8.67002e-111
2.45767e-117
5.24417e-118
-7.65349e-114
5.55123e-121
6.56666e-121
-2.19643e-116
2.60192e-124
-6.11998e-125
-7.40263e-120
3.86885e-127
-1.08669e-127
7.4288e-124
1.10968e-130
-7.2859e-132
8.18703e-126
1.2457e-133
-8.2812e-134
-5.01897e-129
1.43099e-136
-5.58504e-137
-1.35217e-132
3.44157e-140
-3.01518e-141
-3.50945e-136
9.24249e-144
4.91068e-144
-5.23953e-140
5.09843e-147
2.83794e-147
-2.04815e-142
5.7873e-150
4.71472e-151
-5.03842e-147
-5.88223e-152
-4.63085e-149
-1.40445e-08
2.65916e-08
1.67374e-07
3.16044e-08
-5.73785e-09
-5.90295e-10
1.26295e-08
-2.8775e-09
1.1813e-08
1.22638e-08
-1.34713e-08
-1.7606e-08
1.0352e-08
1.69357e-08
2.31356e-08
2.27156e-08
1.15952e-08
9.99764e-09
1.00478e-08
9.83321e-09
-1.27709e-08
-2.78394e-08
1.35085e-08
1.75523e-08
-2.67207e-08
2.19183e-08
3.67963e-09
9.52504e-09
-5.35918e-09
1.27402e-08
-8.54965e-08
-9.8606e-08
1.42563e-08
1.79685e-08
-9.78895e-08
-4.59848e-10
-2.98363e-08
5.81528e-09
-3.64169e-09
2.65703e-08
-3.12762e-09
3.75102e-10
-8.12599e-10
2.98937e-11
3.53714e-10
-4.75287e-10
1.02283e-09
4.73217e-10
2.47282e-10
2.03405e-10
2.3392e-10
1.61364e-10
3.07048e-10
1.7674e-10
-9.49818e-11
9.39589e-13
3.09087e-08
1.15376e-11
3.09097e-08
5.35995e-23
-3.45808e-20
4.29125e-21
4.86112e-18
6.57401e-18
4.1092e-18
8.01004e-18
1.59531e-25
-9.69414e-24
-1.61445e-25
5.51302e-27
-4.9713e-27
1.74102e-29
7.81873e-28
-9.48186e-28
7.99235e-29
1.73231e-30
-7.46867e-30
-2.55849e-30
1.76534e-34
-3.05135e-33
2.4573e-33
2.33184e-38
-3.75057e-37
-4.91603e-36
8.59165e-42
-9.12733e-41
-3.58299e-39
3.52149e-45
-2.55444e-44
1.82426e-43
1.4579e-48
-6.61024e-48
5.26003e-46
6.10867e-52
-1.68905e-51
1.29565e-49
2.58645e-55
-8.71569e-55
-6.08141e-52
1.07935e-58
-1.06096e-58
2.37652e-55
4.75206e-62
-6.03373e-62
1.5873e-58
1.88724e-65
-5.05905e-66
-1.72832e-61
8.27354e-69
-3.06596e-69
7.86841e-65
3.48049e-72
-1.03024e-72
1.03821e-68
1.70536e-75
6.92649e-76
4.10697e-71
7.87329e-79
1.00938e-79
7.06764e-76
1.09452e-81
7.03608e-85
4.18103e-77
2.55839e-84
-5.11766e-87
-1.4548e-80
6.4502e-88
-9.0211e-88
-8.09592e-83
4.32602e-91
-2.03484e-91
-7.05607e-87
2.15458e-94
-5.10095e-97
-1.6242e-90
3.75654e-97
-2.62075e-99
-1.22816e-92
4.10822e-101
-1.27348e-101
-9.62053e-98
1.52912e-104
-2.55985e-104
-2.38286e-100
1.98303e-107
3.80202e-108
-4.1776e-103
5.66796e-110
-1.55254e-111
-2.12189e-105
8.75165e-114
-7.28852e-114
-3.78301e-108
2.97843e-117
4.25727e-118
4.81405e-118
1.81211e-120
1.81881e-121
2.60082e-115
5.10258e-124
8.89025e-124
2.51247e-118
1.23713e-126
-6.13397e-126
2.77768e-122
8.42066e-129
7.43108e-129
2.17846e-125
2.51923e-132
-1.99758e-133
-1.95376e-127
7.17884e-136
-1.23166e-136
3.91501e-131
1.09401e-138
-1.7706e-139
-4.4611e-135
6.41388e-141
5.39092e-142
-1.34059e-137
8.88458e-145
5.12802e-145
-3.11248e-141
6.12281e-148
1.92482e-148
-3.73283e-144
1.73172e-152
-1.15028e-146
-1.31901e-08
-2.5029e-08
-4.11548e-07
9.48784e-09
1.13623e-08
2.24446e-08
-2.6654e-08
-2.60661e-08
-2.44658e-08
-9.66587e-09
-3.05525e-09
9.2614e-08
-9.32707e-09
1.58761e-08
-5.80019e-09
1.50146e-08
2.76487e-09
1.20161e-08
-3.13172e-08
4.45096e-08
1.36958e-08
1.8299e-08
4.72859e-08
3.00746e-08
-8.009e-09
3.88566e-08
2.22254e-08
-8.77287e-09
1.27412e-09
3.08561e-08
-5.05161e-10
-6.67917e-10
-3.02605e-08
-8.88374e-10
1.05801e-09
-1.40407e-09
6.96393e-11
-6.11349e-11
-1.19385e-09
8.68208e-10
2.79524e-11
3.10997e-11
1.03538e-10
6.84466e-11
-1.49822e-10
1.7572e-13
6.27771e-08
1.72595e-11
6.27763e-08
-2.25303e-23
-2.28508e-20
-4.72384e-22
4.693e-18
6.16803e-18
3.35367e-18
8.65494e-18
7.16149e-26
-4.33782e-24
-9.38533e-25
8.95171e-27
-2.72477e-27
9.11596e-31
5.95527e-28
-5.55998e-28
7.84122e-30
1.43107e-30
-4.86785e-30
-6.26435e-30
1.4926e-34
-2.39057e-33
8.68473e-33
1.97114e-38
-2.95141e-37
-3.01739e-36
7.28701e-42
-7.2676e-41
-1.81549e-39
3.08831e-45
-1.94728e-44
1.23543e-42
1.34418e-48
-6.06647e-48
-2.41227e-45
5.52265e-52
-1.59154e-51
1.89963e-48
2.38011e-55
-2.43978e-55
-4.49254e-51
9.45112e-59
-7.26339e-59
1.05694e-54
3.89817e-62
-2.57607e-62
-4.65029e-58
1.90223e-65
-2.62404e-66
-1.30424e-61
1.15876e-68
-3.03319e-69
-5.83559e-65
1.10672e-71
-3.16162e-73
8.83839e-68
4.48273e-74
1.54177e-75
-4.53621e-71
3.8846e-78
3.02964e-79
7.44025e-75
1.9531e-81
4.25385e-84
-9.59661e-78
6.06602e-84
-9.46625e-86
-1.20223e-80
1.11798e-86
4.95606e-87
-3.84809e-83
3.94638e-90
2.40744e-90
-4.67568e-86
8.18871e-94
1.47821e-96
-1.08539e-89
2.95063e-97
1.40598e-98
-1.18835e-93
1.99678e-100
1.56875e-101
-3.21353e-95
1.575e-103
2.87408e-104
-9.654e-99
4.35953e-107
-6.99223e-108
6.70114e-102
4.6658e-110
-7.38669e-111
-5.93411e-105
4.33406e-113
2.74003e-114
-5.83177e-108
1.01399e-116
-1.54112e-119
1.08645e-112
1.59642e-119
-3.63716e-121
-1.54156e-116
2.75043e-122
-6.15828e-124
1.39881e-118
7.29343e-125
3.46215e-126
-9.9917e-121
9.58744e-129
-5.94848e-130
7.7455e-124
3.03709e-132
-7.89166e-134
-3.58588e-127
1.56745e-135
5.61806e-138
3.46706e-131
1.32632e-138
-5.55903e-142
-1.31586e-134
2.35237e-142
1.21574e-143
5.38455e-143
8.63065e-146
6.8817e-148
1.46834e-141
3.29883e-149
1.26843e-150
-9.22004e-146
1.4558e-153
1.03557e-152
1.97794e-08
1.95752e-08
1.66409e-08
4.10213e-08
1.04175e-07
9.80476e-09
1.88588e-08
9.90606e-08
4.93886e-09
1.67209e-08
4.11686e-08
-3.81024e-09
2.34634e-08
-1.68775e-08
-4.96005e-08
-2.396e-08
-3.00006e-08
2.06335e-08
-1.82136e-08
-1.79989e-08
-1.88596e-08
4.09136e-08
1.30757e-08
1.96796e-08
4.36645e-09
-1.40112e-07
-1.32459e-08
-1.47819e-07
1.06915e-07
5.94258e-10
2.33058e-08
-1.60558e-09
-4.85138e-09
-2.01157e-08
-6.83451e-10
-4.58613e-10
6.98952e-10
-1.65609e-10
2.62599e-10
-3.21802e-11
-7.68671e-13
2.21646e-08
3.12523e-12
2.21645e-08
-2.75364e-22
3.08568e-21
-4.00516e-21
5.75654e-19
-1.28679e-20
-1.55183e-19
5.98481e-19
-5.81891e-27
2.73413e-25
-1.0234e-25
3.25377e-27
-9.59443e-28
-8.52091e-30
1.06797e-28
-6.85822e-29
-1.26258e-30
1.18697e-31
-9.7276e-32
2.01382e-32
7.22604e-36
-1.44107e-35
7.75727e-36
1.45315e-39
-2.687e-39
4.12424e-38
5.75602e-43
-7.00922e-43
4.06758e-42
2.38811e-46
-1.8981e-46
7.59014e-45
9.92501e-50
-5.20024e-50
-8.65449e-48
4.11045e-53
-9.78328e-54
-2.06918e-50
1.75233e-56
-3.91756e-57
-1.84341e-54
7.65852e-60
-1.13782e-60
-6.79997e-56
2.99842e-63
-3.02195e-64
-2.36629e-60
1.24949e-66
-2.95881e-67
1.8847e-63
5.39387e-70
-1.52663e-71
-6.21713e-67
2.53113e-73
5.22337e-75
-2.79008e-70
8.94758e-77
-2.21609e-78
1.62097e-77
4.1569e-80
-4.21971e-81
-6.2092e-76
5.46221e-83
-1.36245e-84
-1.23343e-79
1.148e-85
2.10451e-87
-2.98432e-82
1.13892e-89
-4.74868e-92
6.48616e-86
4.66006e-93
-3.95556e-94
-5.39954e-92
3.26285e-96
-3.21609e-98
1.79116e-91
9.32906e-100
1.14131e-101
6.70445e-101
7.93946e-103
3.16294e-104
1.20511e-99
5.36353e-106
-4.93592e-108
-1.47668e-101
3.80201e-109
4.48956e-110
6.59054e-104
3.42333e-112
3.99882e-115
-2.27312e-108
1.11567e-114
-6.86975e-117
-1.75086e-110
2.94966e-118
5.95783e-120
-2.62701e-114
7.19074e-122
-4.61529e-122
-1.63993e-117
6.68232e-125
3.95202e-126
-1.8193e-120
8.06542e-128
-2.42001e-129
-8.62836e-123
2.53501e-131
-2.01314e-133
-4.79956e-126
1.94e-134
-1.27483e-137
-2.58288e-130
1.76508e-137
-9.72988e-140
-8.43674e-133
1.77237e-140
4.23551e-143
-3.33958e-136
1.18552e-142
1.21693e-145
-2.1752e-139
6.13437e-147
-5.32905e-149
9.10482e-148
6.98675e-150
-1.85281e-153
7.28924e-151
3.24546e-153
-3.95651e-149
4.05046e-08
2.84793e-08
-2.15082e-07
-1.19104e-08
-1.42634e-08
-1.528e-08
-1.1244e-08
5.09887e-08
4.01061e-08
3.43129e-08
-2.91313e-08
1.98538e-08
1.38122e-08
1.16881e-07
3.53991e-08
6.00445e-08
2.24408e-08
5.93591e-08
5.30594e-08
5.62408e-08
5.47545e-08
-1.87216e-07
-2.9146e-08
3.88652e-08
-4.70029e-08
-4.37205e-10
-2.45805e-08
-4.82279e-09
-3.64003e-08
-1.72018e-08
-6.25159e-09
-1.27678e-07
-1.96067e-09
-1.98147e-07
-9.50081e-08
3.31095e-09
2.59318e-08
-1.07108e-09
-1.93827e-09
-2.51594e-08
5.37446e-10
-1.71831e-10
1.19391e-09
1.4382e-11
1.23094e-09
-1.46176e-14
9.27524e-16
4.58199e-09
4.58199e-09
-1.87975e-16
-1.63583e-15
3.72918e-14
-1.9236e-14
1.8135e-17
5.08008e-16
5.1167e-16
-4.30571e-23
-2.56762e-22
5.9401e-23
1.49995e-22
-1.13749e-21
3.71792e-20
-2.35066e-20
3.79418e-26
-5.02066e-26
-4.77611e-27
1.03621e-26
3.46098e-28
7.16687e-30
4.15888e-29
-2.80076e-29
1.05658e-29
2.03679e-33
-2.20155e-33
1.23139e-32
2.5252e-37
-2.22991e-37
2.79342e-36
9.85222e-41
-3.55982e-41
-2.12001e-39
4.07877e-44
-1.02935e-44
-1.3554e-42
1.69564e-47
-4.28052e-48
-1.68075e-44
7.06668e-51
-9.48586e-52
-1.26565e-47
2.99656e-54
-4.37489e-55
-8.30186e-51
1.2635e-57
5.54125e-60
-7.69961e-54
5.15211e-61
-2.09959e-62
1.50501e-57
2.27513e-64
-1.33754e-65
2.16326e-61
9.68596e-68
-3.55499e-70
-4.24577e-63
3.68596e-71
-6.49099e-73
2.53729e-68
2.17327e-74
-2.10841e-76
-7.71084e-72
3.17766e-77
1.08692e-78
-1.12398e-73
1.0404e-80
5.84433e-82
-1.38896e-76
2.41096e-84
-6.18986e-86
9.41639e-81
2.77586e-87
6.09305e-90
1.50602e-87
1.54312e-89
-3.10537e-93
-4.24748e-86
1.08238e-93
-1.3023e-95
4.07654e-91
1.04384e-96
2.28291e-98
-1.36576e-92
6.39294e-100
1.72716e-100
7.80808e-97
1.62316e-103
-1.12503e-104
2.06569e-98
1.64723e-106
4.6223e-109
-1.09117e-102
3.2303e-109
-1.70577e-111
1.15971e-104
5.31319e-113
7.94924e-115
1.52152e-108
8.58041e-116
-7.88515e-119
-1.63001e-111
9.6315e-119
3.37212e-121
-1.23546e-114
2.20778e-121
3.2215e-123
-3.07045e-118
2.05425e-125
-9.63653e-127
-2.01559e-121
1.26871e-128
1.09791e-129
-1.12502e-123
8.92969e-132
9.17718e-133
-2.1691e-126
4.10999e-135
-1.70338e-136
1.57839e-130
1.28313e-138
1.43472e-140
-1.8735e-133
4.26549e-142
1.82508e-143
-1.07669e-138
1.64432e-145
-8.12796e-148
3.91322e-146
6.37098e-149
-6.78806e-150
1.57023e-149
2.29089e-152
-5.93894e-153
1.40117e-152
2.0509e-157
-4.41862e-151
-5.06659e-08
2.37198e-08
1.42498e-07
8.07012e-08
2.88642e-08
1.38655e-07
8.69257e-08
1.73621e-07
8.24262e-08
2.15244e-08
3.02138e-08
3.16617e-08
2.99699e-08
8.75657e-08
1.0753e-07
9.08146e-08
2.65227e-08
3.12626e-08
2.73014e-08
1.03309e-08
1.19807e-08
7.03268e-09
1.24504e-07
3.61751e-09
-3.34419e-08
4.87908e-08
2.00478e-08
-1.458e-08
6.22019e-08
1.51316e-08
3.0648e-08
2.11416e-08
5.90929e-09
-6.75438e-09
6.09914e-09
-6.00978e-09
2.01113e-09
4.08531e-09
-3.67854e-10
5.81056e-10
-2.50725e-08
1.66177e-10
-2.46847e-08
2.50298e-16
2.73603e-18
3.22594e-08
3.22594e-08
-9.52383e-19
2.53067e-16
2.54288e-16
2.52621e-16
2.94918e-24
-2.87141e-22
2.01032e-23
8.72783e-22
-5.25418e-23
-2.05084e-21
2.38489e-21
1.51283e-26
-2.42395e-27
-4.27472e-26
2.2359e-29
-3.08088e-28
1.33974e-30
1.1317e-31
-3.92208e-31
-1.76579e-32
2.68416e-34
1.48575e-33
6.05292e-36
3.23094e-38
2.79917e-37
4.26214e-39
7.55724e-42
3.84043e-41
3.35022e-42
3.04466e-45
1.47712e-44
-4.22838e-44
1.27659e-48
2.15673e-48
-6.47476e-47
5.33463e-52
1.24252e-51
-1.24052e-50
2.2202e-55
2.073e-55
-4.95654e-53
9.19725e-59
-6.18242e-59
5.48895e-57
3.79595e-62
2.47369e-63
-2.64356e-61
1.56209e-65
-1.05385e-65
-3.89164e-64
6.40664e-69
1.1636e-69
-2.23442e-67
2.67811e-72
6.59302e-73
1.0282e-70
1.12919e-75
2.32895e-76
-1.02801e-72
4.43895e-79
1.78271e-79
-7.30326e-78
1.79845e-82
-2.50413e-82
7.29673e-80
7.31643e-86
3.54925e-87
-6.99498e-83
2.97847e-89
-4.55931e-89
1.65987e-85
1.99258e-92
-2.06378e-93
-4.74262e-90
2.86702e-95
1.99121e-96
-2.10218e-91
4.07384e-99
-1.38016e-98
-4.87071e-96
1.44725e-102
-3.0339e-101
-4.85955e-98
1.12345e-105
-1.83699e-106
-1.08048e-103
2.52022e-108
-1.37346e-111
-3.38458e-104
4.05547e-112
-6.66742e-112
-1.28473e-107
1.66854e-115
-3.6108e-114
6.97325e-111
4.96466e-119
-4.92804e-119
1.5873e-114
4.01504e-122
-8.07154e-121
8.63756e-123
1.16412e-124
-3.58369e-127
-1.22651e-120
1.52241e-127
-5.73384e-128
-3.7535e-124
2.11382e-130
1.52818e-130
-3.76501e-126
3.36397e-134
-4.36507e-134
-1.96797e-129
1.42704e-137
-2.38548e-137
-8.2804e-133
1.17546e-140
-2.0718e-141
-2.64184e-136
6.43085e-144
-5.98879e-144
-5.78499e-140
1.85431e-146
1.16366e-147
-6.40604e-143
1.64644e-149
-1.77013e-149
-7.12938e-146
1.65374e-152
-3.76375e-153
-1.00696e-148
-6.30375e-157
4.12172e-155
5.54808e-08
-8.30171e-08
1.69435e-07
-7.53681e-08
9.87669e-09
4.43171e-08
5.11853e-08
4.61168e-08
2.81564e-08
4.56143e-08
5.36593e-08
6.22841e-09
1.41768e-08
3.90161e-08
8.19705e-08
4.83827e-08
3.62145e-08
7.91826e-09
1.95581e-08
-1.14628e-09
7.41078e-08
-1.66629e-07
-8.40664e-08
4.09629e-07
-1.54121e-08
2.21146e-08
-6.81556e-08
-2.69468e-07
1.20087e-08
-6.73207e-08
-1.66254e-07
-1.47748e-08
-1.46501e-08
-1.51682e-08
-1.55065e-08
3.58246e-10
3.93623e-09
6.00487e-09
1.76889e-09
-1.41488e-08
-2.56085e-10
1.51543e-11
1.79783e-08
1.4573e-11
1.79824e-08
3.17313e-22
-2.47423e-19
-8.54293e-19
4.68899e-18
-1.04739e-17
1.23885e-17
-2.34102e-18
-1.72043e-18
-8.40887e-18
-1.73358e-18
-1.55795e-24
-5.39665e-24
6.34376e-27
-7.90441e-28
-1.87997e-28
-7.67714e-30
2.33518e-30
-1.92367e-31
5.88033e-34
-6.41256e-34
5.63019e-38
5.74468e-37
1.84128e-41
-2.48101e-41
7.63006e-45
-1.71102e-43
3.19484e-48
1.98373e-47
1.33401e-51
9.05222e-50
5.57359e-55
-9.15009e-53
2.32165e-58
-8.12518e-56
9.5505e-62
-5.83451e-59
3.93453e-65
2.41365e-62
1.61463e-68
1.50106e-66
6.63605e-72
4.10305e-70
2.7338e-75
2.70185e-72
1.24617e-78
9.57667e-75
6.48277e-82
2.59461e-78
3.55137e-85
-3.10827e-81
4.86445e-88
-1.83663e-84
1.18375e-91
4.57077e-88
9.3798e-95
-2.67202e-91
8.24536e-98
-5.95293e-94
4.10968e-101
9.10493e-98
2.09372e-104
-9.293e-101
6.30418e-108
-1.40264e-103
6.71084e-111
8.68475e-107
7.85452e-114
-5.33808e-110
4.85781e-117
1.46663e-112
2.07778e-119
-6.04363e-116
1.51462e-123
-3.83012e-121
4.0073e-127
-1.82188e-125
5.06755e-130
3.16988e-125
2.59981e-132
-2.85153e-128
2.63631e-136
-9.58569e-132
1.95949e-139
7.10494e-135
3.14427e-142
-2.98811e-138
6.08834e-146
1.56783e-141
5.93919e-149
-4.56276e-146
1.04388e-152
2.45781e-149
3.95368e-151
6.14096e-08
5.91251e-08
-8.3695e-08
-1.29737e-07
-2.55888e-09
-4.39602e-07
2.51757e-08
4.19804e-08
3.02574e-07
2.16909e-08
1.01234e-08
3.52566e-08
4.7812e-09
2.41227e-10
6.16953e-09
-2.26527e-09
1.10504e-08
-2.47278e-08
3.4152e-08
1.56338e-07
-6.56878e-08
1.5933e-07
-5.73121e-07
9.54804e-09
1.61846e-08
1.09619e-08
3.64878e-08
-6.72154e-08
-2.12032e-09
-6.81323e-09
1.17504e-09
7.66712e-08
-1.51401e-10
-5.23917e-12
-2.08941e-11
4.82313e-08
4.82266e-08
-5.0462e-22
8.44467e-18
6.85983e-20
-3.03011e-17
2.71913e-17
-3.25076e-17
2.60482e-17
5.15928e-18
8.54885e-18
5.15953e-18
-2.20899e-24
8.4982e-22
-8.85009e-25
8.77359e-27
3.91326e-24
-2.13875e-29
3.04048e-27
2.84064e-27
-8.87997e-34
4.5335e-29
3.47114e-29
-1.50838e-33
8.12855e-32
9.89449e-32
1.51109e-33
1.58151e-35
5.2868e-35
8.56841e-37
4.65893e-39
1.26241e-38
2.34459e-40
3.30443e-42
3.65611e-42
1.40547e-42
2.45942e-45
1.65631e-45
5.89715e-49
1.76112e-48
4.47979e-49
3.69279e-49
1.2479e-51
2.02545e-51
-9.68349e-52
8.83838e-55
-5.94917e-57
-8.03787e-56
6.24821e-58
4.71947e-59
-5.41351e-59
4.40253e-61
2.35619e-61
-5.8306e-62
3.09842e-64
1.6126e-64
6.7268e-65
2.17515e-67
9.97876e-69
-6.82959e-70
1.52269e-70
5.79807e-72
2.29708e-71
1.06405e-73
1.48975e-74
7.75268e-75
7.41865e-77
1.54706e-77
2.48258e-77
5.16072e-80
1.77095e-81
7.27231e-81
3.58166e-83
-5.18185e-84
-1.8675e-84
2.48118e-86
-1.07237e-88
-3.63794e-87
1.71441e-89
6.1027e-90
5.33971e-91
1.18311e-92
4.18143e-93
3.83116e-95
8.15437e-96
1.57306e-96
-1.32866e-96
5.61291e-99
3.76542e-99
-3.65507e-99
3.85659e-102
4.29994e-103
1.33898e-103
2.64355e-105
4.4551e-106
-1.39935e-105
1.80768e-108
1.42954e-109
6.73286e-109
1.23486e-111
-1.28982e-113
-5.80205e-113
8.43127e-115
1.41086e-115
-8.87029e-121
5.74697e-118
-5.13528e-120
3.72278e-119
3.91164e-121
4.46641e-122
4.71515e-123
2.65785e-124
2.90345e-125
1.07797e-126
1.80338e-127
8.59884e-129
2.78217e-127
1.22096e-130
5.07377e-131
4.1017e-132
8.24994e-134
4.87835e-136
1.74292e-134
5.56484e-137
3.78156e-138
3.74475e-137
3.7514e-140
-3.70347e-142
1.42359e-143
2.5232e-143
-9.71083e-146
6.19633e-145
1.60355e-146
-3.5709e-150
8.07084e-148
1.86741e-150
1.38859e-150
5.84463e-09
-4.08618e-07
-4.07342e-07
-1.34303e-08
-3.95958e-07
3.37164e-08
9.09067e-09
1.45767e-08
-3.18502e-09
1.20013e-08
1.43542e-08
1.25312e-08
-1.56739e-08
-1.76354e-08
-1.92893e-08
-1.98463e-08
4.97008e-09
6.02687e-09
7.29181e-09
6.80615e-09
3.58543e-09
-1.14807e-07
1.461e-08
-1.86217e-07
2.74226e-09
-1.01604e-07
-1.9268e-07
5.13532e-09
1.46222e-09
1.139e-08
5.77645e-09
1.7773e-08
2.14167e-07
6.03833e-09
2.11497e-08
1.22736e-08
1.55405e-08
-9.72103e-08
4.84764e-08
3.77339e-09
5.5703e-08
-5.60305e-09
2.73357e-09
-1.04467e-07
3.5346e-10
3.16446e-12
-6.36209e-11
2.89986e-11
2.62056e-12
-5.16863e-11
2.07874e-17
4.94707e-18
2.63468e-18
5.11528e-18
1.16283e-18
5.88476e-23
4.92691e-23
-1.12484e-23
-1.30913e-20
-1.80791e-20
-1.36803e-20
-1.80778e-20
1.28924e-24
1.80594e-24
-1.73782e-26
4.75957e-28
1.55995e-25
-1.82268e-30
1.61291e-30
4.44897e-27
-2.22685e-32
2.48142e-33
4.41897e-30
-1.52467e-34
6.78378e-37
2.2448e-34
-5.95925e-38
2.65365e-40
8.58062e-38
-8.60089e-42
1.97137e-43
3.67073e-41
-3.84101e-44
1.48599e-46
1.70684e-44
-2.0551e-47
1.06898e-49
1.13776e-47
-3.00906e-50
7.65376e-53
6.86813e-51
1.02992e-53
5.4753e-56
1.29159e-54
1.47418e-58
3.9072e-59
-6.94153e-60
-1.01657e-59
2.7784e-62
1.39535e-61
1.1122e-63
1.97119e-65
-5.4907e-65
9.64407e-66
1.39251e-68
-1.95226e-68
-3.28546e-69
9.80766e-72
8.07048e-72
5.12556e-73
6.89933e-75
2.61157e-74
-3.06525e-77
4.83944e-78
7.40981e-81
9.4316e-79
3.38307e-81
-1.26885e-80
1.63576e-82
2.35762e-84
8.14407e-85
-1.03938e-85
1.64014e-87
1.16648e-86
-4.5005e-88
1.1403e-90
8.91881e-92
7.3455e-93
7.90617e-94
1.16147e-94
5.99434e-95
5.47289e-97
-3.33505e-96
9.68727e-98
3.77958e-100
-3.13809e-99
-2.22553e-101
2.60176e-103
1.35964e-103
1.04439e-104
1.78889e-106
2.30533e-106
-4.82091e-107
1.22802e-109
-2.70382e-109
3.35482e-110
8.41404e-113
-2.95855e-113
1.40363e-114
5.75058e-116
-1.31366e-115
1.93839e-116
3.92206e-119
6.42215e-120
2.66922e-124
2.67425e-122
-1.06846e-121
1.8046e-123
1.81903e-125
-1.46449e-127
3.15435e-126
1.23549e-128
3.02147e-128
7.35313e-129
8.38961e-132
-1.31539e-131
9.10939e-133
5.67637e-135
2.38672e-136
-9.65297e-136
3.8342e-138
1.36371e-139
6.08728e-139
2.58643e-141
-1.00106e-140
4.73509e-142
1.73986e-144
7.73353e-146
1.86067e-147
1.10505e-147
1.1679e-148
5.29942e-151
1.50871e-150
-1.26276e-157
-2.93857e-07
6.68534e-09
4.99768e-09
6.68041e-09
2.77197e-08
-6.36877e-08
2.8844e-08
1.46064e-08
2.81362e-08
1.14922e-08
8.66313e-09
6.29341e-07
4.6009e-08
2.57118e-08
4.4717e-08
-3.4827e-08
2.45308e-08
-3.81201e-08
-3.66493e-08
1.85724e-07
-4.37442e-07
-3.30025e-08
-4.31393e-08
-1.75434e-07
-2.40412e-08
-3.18697e-08
-1.88197e-08
-3.6344e-08
-1.09219e-09
4.6203e-08
1.09027e-09
-1.75933e-08
3.46152e-09
5.12676e-09
-3.83684e-08
8.90163e-10
-3.60243e-10
2.35903e-10
-6.17795e-10
3.12003e-10
-2.27401e-10
1.51809e-15
-7.58972e-18
2.25075e-15
4.91086e-19
1.4959e-17
-2.38175e-15
1.69194e-15
-2.45766e-15
-4.73984e-17
-7.46229e-24
-4.51053e-21
-4.53876e-22
1.50319e-20
-1.0368e-19
1.22765e-20
-9.34749e-20
-1.58066e-25
-6.12216e-25
-2.08791e-26
5.39289e-25
-6.17345e-27
-3.96028e-29
5.39832e-27
3.57803e-28
-2.44981e-29
2.05172e-30
6.54098e-30
-5.62227e-32
1.79154e-34
2.86519e-33
-2.9559e-36
9.63673e-38
8.22887e-37
4.2117e-40
7.1539e-41
3.51936e-40
-2.95446e-43
5.04167e-44
1.61358e-43
-5.26537e-45
3.50249e-47
8.50057e-47
-8.94351e-48
2.42637e-50
2.78658e-50
-2.10013e-50
1.67857e-53
1.16078e-53
3.5404e-55
1.15801e-56
1.36109e-57
-2.62873e-57
7.96765e-60
1.88016e-60
4.02333e-61
5.467e-63
3.55039e-64
-1.2685e-63
3.73918e-66
4.79414e-67
4.24788e-67
2.55152e-69
-7.6508e-70
-4.90069e-70
1.73845e-72
-1.87864e-73
-8.56973e-74
1.18104e-75
1.66211e-76
1.69675e-76
7.99707e-79
6.14681e-79
-4.76911e-83
5.41129e-82
1.0136e-82
-1.90581e-83
3.65552e-85
-1.3459e-85
2.99353e-86
2.46296e-88
5.79849e-89
-4.01051e-95
1.65808e-91
-6.43926e-93
-2.99977e-98
1.1125e-94
3.15258e-95
1.01552e-96
7.43793e-98
7.02693e-99
-1.56957e-98
4.97264e-101
2.57233e-102
7.52728e-104
3.31989e-104
4.81991e-106
-2.76459e-105
2.21035e-107
2.03086e-109
2.54958e-108
1.47009e-110
-2.22755e-111
-4.12877e-112
9.75924e-114
5.57424e-115
9.3176e-116
6.46136e-117
4.50176e-117
-2.86229e-118
4.27431e-120
4.28351e-121
4.33036e-121
2.82326e-123
9.96229e-124
-1.63972e-124
1.86224e-126
-1.2523e-126
1.06396e-126
1.22787e-129
-4.20083e-130
-1.05493e-130
8.08207e-133
1.78021e-133
-1.04015e-133
5.30876e-136
1.32599e-136
-5.92717e-140
3.48027e-139
4.51739e-140
9.30998e-141
2.27674e-142
3.53107e-143
1.19825e-143
1.43053e-145
7.98318e-148
2.31641e-147
-2.20323e-149
4.37858e-150
-3.82214e-07
-3.90083e-07
7.65045e-08
-3.37673e-07
6.15142e-10
-4.5467e-07
-1.15194e-08
-2.31067e-08
-1.55959e-08
1.16585e-07
-3.07112e-08
3.32844e-08
2.19018e-09
1.16051e-07
-3.99944e-08
-9.46611e-07
-5.60406e-08
-9.73522e-09
-1.12532e-08
1.91751e-07
1.42646e-08
2.1343e-07
2.11853e-07
2.89113e-08
1.37793e-08
-3.87392e-08
1.93026e-09
-4.73385e-08
-1.61873e-08
-4.43864e-08
4.42234e-09
-2.92752e-08
8.22303e-09
-1.38234e-10
6.41401e-08
-4.90238e-10
-1.04823e-10
3.84381e-10
3.4653e-11
1.51754e-10
1.29617e-10
1.70739e-13
7.09681e-15
-1.98327e-14
2.77992e-14
-1.84471e-14
8.68334e-15
-1.11503e-21
-1.06478e-19
-4.0665e-21
1.84722e-18