/*--------------------------------*- C++ -*----------------------------------*\
| =========                 |                                                 |
| \\      /  F ield         | OpenFOAM: The Open Source CFD Toolbox           |
|  \\    /   O peration     | Version:  5.0                                   |
|   \\  /    A nd           | Web:      www.OpenFOAM.org                      |
|    \\/     M anipulation  |                                                 |
\*---------------------------------------------------------------------------*/
FoamFile
{
    version     2.0;
    format      ascii;
    class       volScalarField;
    location    "3.7";
    object      alpha.water;
}
// * * * * * * * * * * * * * * * * * * * * * * * * * * * * * * * * * * * * * //

dimensions      [0 0 0 0 0 0 0];

internalField   nonuniform List<scalar> 
8864
(
1.07553
1.06809
0.995104
1.03674
1.00942
1.01864
0.120368
-2.87226e-17
-1.29247e-29
9.36661e-18
1.89333e-18
4.56111e-20
8.17549e-23
9.35352e-27
1.22142e-30
4.66219e-34
1.93867e-37
8.50716e-41
3.69746e-44
1.49313e-47
7.13231e-51
3.055e-54
1.34756e-57
5.02661e-61
3.27913e-64
4.33251e-67
8.74163e-71
2.30404e-74
8.00155e-77
1.78139e-80
3.062e-83
3.84448e-87
4.41862e-90
1.88345e-92
6.95409e-96
3.85607e-99
1.54249e-102
7.16789e-105
1.27447e-108
1.07418e-112
9.99911e-116
3.26692e-118
4.67488e-121
1.10513e-123
2.09978e-127
2.0473e-130
2.4375e-134
4.06361e-138
1.22598e-139
7.03928e-143
1.03726
1.03045
1.11443
1.03352
0.999094
1.04064
0.475425
-7.96993e-17
5.64122e-15
1.37485e-16
1.88041e-19
6.12512e-21
3.24275e-23
8.97012e-27
5.96087e-31
1.87917e-34
7.81663e-38
3.30327e-41
1.40802e-44
5.78907e-48
2.439e-51
1.03447e-54
4.95253e-58
2.14151e-61
8.11195e-65
4.06049e-68
2.52843e-71
7.43208e-75
3.49317e-78
2.11631e-81
9.39103e-85
2.72071e-87
2.97058e-91
8.52871e-94
2.59863e-97
2.78163e-100
9.19151e-104
8.2756e-108
3.38556e-109
2.64543e-112
3.54793e-116
4.3052e-119
5.69644e-123
9.6115e-127
1.09024e-129
8.38764e-133
1.55734e-136
4.93977e-140
1.82745e-143
3.03276e-144
1.09104
1.02071
1.06662
1.07064
0.942263
1.00254
1
-2.2341e-21
-4.53928e-19
-3.17729e-21
1.93515e-17
6.68816e-19
6.07055e-22
3.04721e-26
6.55771e-30
2.48058e-33
1.0577e-36
4.71633e-40
2.35516e-43
8.58902e-47
4.35927e-50
1.67843e-53
1.03576e-56
3.35153e-60
1.91319e-63
1.22854e-66
7.17014e-70
1.08651e-73
5.90889e-76
7.83473e-79
7.33089e-83
1.02099e-86
7.56856e-88
8.23137e-91
6.79827e-95
3.21412e-98
1.12365e-101
1.26926e-105
2.03337e-107
1.16789e-110
4.95051e-114
2.12238e-117
2.55376e-120
3.58351e-124
7.25331e-128
1.548e-131
2.53818e-133
3.11691e-136
1.63878e-140
1.92438e-144
1.02137
0.94818
1.00706
1.02872
1.0052
0.999378
1.00011
-1.57821e-17
-2.75967e-20
-3.38034e-21
4.52128e-18
6.17893e-19
7.28291e-21
4.17028e-24
2.34192e-28
5.69042e-32
2.32616e-35
1.07382e-38
4.18301e-42
1.74683e-45
7.81905e-49
3.1312e-52
2.56e-55
9.55491e-59
4.51184e-62
1.96963e-65
4.84078e-69
2.83691e-71
6.5419e-75
8.18196e-79
5.95325e-81
4.87753e-84
5.43691e-88
2.17826e-91
9.60855e-94
1.78212e-97
8.26403e-101
1.00624e-103
4.16061e-106
2.6164e-109
3.729e-113
9.86898e-116
3.58878e-119
2.86234e-122
4.29765e-125
1.73567e-128
9.79913e-133
8.35842e-136
8.18652e-139
2.45766e-141
1.0332
1.05988
0.946567
1
0.968344
1.00451
1.00173
0.114914
-1.62285e-19
-7.70265e-22
2.20791e-17
3.84652e-18
6.82391e-20
7.19944e-23
5.31054e-27
9.81042e-31
3.70178e-34
1.59375e-37
6.61386e-41
3.53285e-44
1.22092e-47
8.13037e-51
2.26178e-54
1.44646e-57
4.73543e-61
3.79523e-64
1.51561e-67
1.40926e-70
5.24498e-73
1.96334e-76
1.77683e-79
2.35334e-83
8.56083e-86
1.04558e-89
1.15449e-93
1.33352e-96
9.02537e-99
3.62418e-102
2.08266e-106
5.59255e-109
1.66742e-112
3.78199e-116
7.80344e-118
8.51824e-121
3.43211e-124
5.81893e-128
6.44561e-130
3.00128e-133
2.62268e-136
3.37706e-140
1.03493
0.995649
1.01018
1.03131
0.998061
1
1.00171
0.217901
-2.45958e-19
-4.22922e-23
1.73122e-17
3.02642e-18
5.41177e-20
5.87838e-23
4.37402e-27
7.61026e-31
3.02006e-34
1.85159e-37
6.14181e-41
3.49648e-44
1.13365e-47
4.5792e-51
1.9546e-54
2.93951e-57
6.76181e-61
5.6953e-63
1.89053e-66
1.49254e-70
6.90239e-73
2.08961e-75
1.70277e-78
2.61287e-82
3.03734e-86
2.29755e-89
4.62583e-92
7.34204e-96
7.65063e-99
1.38784e-101
7.91301e-106
2.93503e-108
3.77964e-111
1.34918e-113
4.92529e-117
7.91847e-121
1.82377e-124
3.93585e-127
3.23602e-131
6.64642e-135
2.41306e-138
6.28476e-142
1.02436
0.926955
0.976024
0.996492
1.08424
1.01465
1.00363
0.0399026
-1.11861e-20
-1.03025e-22
4.28202e-18
5.79376e-19
6.69156e-21
3.69478e-24
2.06194e-28
5.07872e-32
2.07456e-35
8.8665e-39
3.82406e-42
1.60525e-45
1.08452e-48
3.02373e-52
1.53853e-55
5.51735e-59
4.96292e-62
1.09514e-65
3.97697e-69
5.7697e-72
2.36533e-74
4.01068e-78
4.72505e-82
9.44153e-85
9.63789e-89
1.81807e-91
1.4182e-94
1.68494e-97
3.51201e-101
1.80322e-103
1.3945e-106
1.36639e-110
1.16292e-113
2.19477e-116
7.84906e-120
4.43829e-123
6.40058e-126
7.20697e-130
1.05982e-131
3.16795e-135
1.54558e-139
4.02205e-141
1.03556
0.949981
1.02961
1.00771
1.00003
1.03459
1.00118
-1.25395e-15
-2.14427e-18
-1.98751e-21
1.8588e-17
7.24376e-19
7.86114e-22
3.76879e-26
7.38226e-30
2.79624e-33
1.19031e-36
5.13947e-40
2.4152e-43
1.32819e-46
4.27327e-50
2.46015e-53
1.40062e-56
3.28136e-60
1.3093e-63
5.45757e-66
4.33851e-69
3.87537e-73
7.96712e-77
1.37282e-78
2.70875e-82
2.81267e-85
2.67952e-88
4.53803e-92
1.81572e-95
7.7655e-98
6.75028e-102
1.96998e-104
1.4569e-107
4.90017e-110
5.12234e-114
2.93725e-117
2.37589e-120
1.64581e-123
2.75852e-127
2.40231e-131
8.11473e-135
3.16156e-138
1.24142e-141
7.33543e-145
1.01063
1.01596
1.01104
0.999059
1.00139
0.989479
1
-8.66146e-22
2.67841e-16
1.29487e-16
2.52799e-18
6.36e-21
3.06931e-23
1.55695e-26
1.22189e-30
3.37736e-34
1.39783e-37
5.91772e-41
2.50656e-44
1.05619e-47
4.43412e-51
1.86897e-54
7.81691e-58
3.28294e-61
1.7852e-64
5.86691e-68
2.3922e-71
1.00411e-74
4.35406e-78
1.81066e-81
6.44457e-84
1.14501e-87
2.27774e-91
7.49241e-95
4.30623e-97
1.41024e-100
6.81335e-104
7.837e-108
2.17032e-111
1.60339e-113
2.75308e-116
5.61839e-119
1.51497e-122
1.68379e-126
3.56337e-129
5.87309e-133
2.88811e-135
3.63238e-138
5.51306e-141
7.35506e-145
1.02228
0.958192
0.986666
1.06961
0.995981
1.04441
0.489061
-3.09974e-18
2.16721e-34
6.59981e-18
1.8187e-18
5.08687e-20
1.23784e-22
1.99155e-26
2.24928e-30
8.03358e-34
3.37233e-37
1.43651e-40
6.13315e-44
2.75241e-47
1.11047e-50
4.69657e-54
1.97129e-57
8.22858e-61
3.65852e-64
1.52956e-67
1.60266e-70
3.70536e-74
1.14296e-76
3.5068e-80
2.47579e-83
2.663e-86
1.43807e-89
9.46371e-93
9.48008e-97
1.15887e-99
2.41492e-102
3.92156e-106
2.74998e-108
7.30483e-112
5.26903e-116
2.16139e-119
2.60599e-121
1.20102e-124
3.16611e-128
8.48201e-131
1.0903e-134
1.99821e-137
2.07406e-141
1.61221e-144
1.08512
1.10949
0.958271
1.01729
0.999564
1.03092
0.124103
3.99509e-13
4.38126e-16
1.52214e-17
4.81621e-18
2.88865e-19
2.91333e-21
3.00014e-24
5.06332e-28
1.90519e-31
1.41225e-34
1.05414e-37
7.6124e-41
5.45917e-44
3.91438e-47
2.80147e-50
1.9993e-53
1.424e-56
1.01178e-59
7.17011e-63
5.07269e-66
3.58036e-69
2.51983e-72
1.7696e-75
1.23938e-78
8.65696e-82
6.03772e-85
4.20179e-88
2.91895e-91
2.02339e-94
1.39841e-97
9.63635e-101
6.62945e-104
4.55429e-107
3.12152e-110
2.13512e-113
1.45684e-116
9.91552e-120
6.73589e-123
4.56383e-126
3.08492e-129
2.08292e-132
1.40293e-135
5.58219e-139
0.986184
1.05403
1.02321
1.03844
1
1.02485
0.478045
4.82347e-11
9.9927e-14
7.53562e-15
2.55454e-17
5.8049e-20
2.2441e-22
1.49958e-25
2.8467e-29
1.46911e-32
1.11176e-35
8.15895e-39
5.85646e-42
4.18837e-45
2.99555e-48
2.13696e-51
1.5261e-54
1.08356e-57
7.66324e-61
5.41662e-64
3.82382e-67
2.69119e-70
1.88725e-73
1.32155e-76
9.26456e-80
6.46083e-83
4.49205e-86
3.12147e-89
2.16025e-92
1.49375e-95
1.0312e-98
7.08906e-102
4.86969e-105
3.33522e-108
2.28062e-111
1.55481e-114
1.05892e-117
7.21058e-121
4.88016e-124
3.30133e-127
2.23113e-130
1.50217e-133
1.0098e-136
4.023e-140
1.08425
0.995177
0.907899
1.02636
1.07485
1.01197
1.00017
3.68959e-10
8.88551e-15
3.26711e-16
3.18883e-16
2.71475e-17
1.41791e-19
3.31341e-23
3.97343e-27
2.48509e-30
1.83546e-33
1.29943e-36
9.10807e-40
6.37633e-43
4.45869e-46
3.11238e-49
2.16763e-52
1.50715e-55
1.04505e-58
7.23217e-62
4.99871e-65
3.44573e-68
2.37031e-71
1.62988e-74
1.11849e-77
7.66151e-81
5.24151e-84
3.57624e-87
2.43144e-90
1.65203e-93
1.1206e-96
7.5835e-100
5.12408e-103
3.45349e-106
2.32227e-109
1.55913e-112
1.04513e-115
6.99451e-119
4.67455e-122
3.11809e-125
2.07489e-128
1.37775e-131
9.12802e-135
3.58322e-138
0.999332
0.909883
1.03794
1.05087
1.08729
0.999309
1.00088
7.84853e-07
2.59429e-14
5.73117e-17
3.52029e-17
6.39793e-18
1.94592e-19
5.43792e-22
1.2122e-25
2.29306e-29
1.52485e-32
1.12964e-35
8.05417e-39
5.69286e-42
4.0205e-45
2.83362e-48
1.99133e-51
1.39875e-54
9.78973e-58
6.83952e-61
4.77047e-64
3.32246e-67
2.31242e-70
1.60017e-73
1.10644e-76
7.63775e-80
5.25736e-83
3.61299e-86
2.47971e-89
1.69729e-92
1.15982e-95
7.9087e-99
5.37884e-102
3.65104e-105
2.47424e-108
1.67955e-111
1.13278e-114
7.64247e-118
5.12026e-121
3.43449e-124
2.29873e-127
1.53624e-130
1.02426e-133
4.04349e-137
1.03219
1.02282
0.894502
1.63328
0.875959
1.00635
1.00181
0.121758
2.19036e-13
5.37419e-16
2.89922e-16
7.55361e-17
3.88779e-18
2.06119e-20
7.61547e-24
1.01706e-27
5.79944e-31
4.33308e-34
3.10086e-37
2.1858e-40
1.53974e-43
1.0831e-46
7.59803e-50
5.32292e-53
3.72012e-56
2.59368e-59
1.80577e-62
1.25451e-65
8.69216e-69
6.01121e-72
4.14894e-75
2.85642e-78
1.96394e-81
1.34668e-84
9.21415e-88
6.29603e-91
4.29197e-94
2.91819e-97
1.98101e-100
1.34252e-103
9.0816e-107
6.13382e-110
4.13231e-113
2.77705e-116
1.86323e-119
1.24778e-122
8.33638e-126
5.56101e-129
3.70205e-132
1.45826e-135
1.04639
1.0074
1.00165
0.989184
0.997311
0.995337
1.0025
0.229761
1.7487e-13
7.48565e-16
5.25484e-16
1.47564e-16
8.35075e-18
4.73005e-20
1.79835e-23
2.28993e-27
1.28537e-30
9.60345e-34
6.86739e-37
4.83428e-40
3.39935e-43
2.38758e-46
1.67306e-49
1.17007e-52
8.16421e-56
5.68216e-59
3.95161e-62
2.74198e-65
1.89793e-68
1.31136e-71
9.03347e-75
6.20725e-78
4.26291e-81
2.92156e-84
1.99657e-87
1.36232e-90
9.27512e-94
6.30136e-97
4.27513e-100
2.89408e-103
1.9551e-106
1.31874e-109
8.87396e-113
5.95567e-116
3.99058e-119
2.66798e-122
1.77956e-125
1.18599e-128
7.893e-132
3.10905e-135
1.03067
1.00245
1.04483
0.976723
1.0704
1.04554
1.00411
0.0478153
2.26289e-14
4.35771e-17
2.56793e-17
4.38908e-18
1.25245e-19
3.3937e-22
7.82987e-26
1.55544e-29
1.01803e-32
7.4998e-36
5.31922e-39
3.75469e-42
2.65898e-45
1.88397e-48
1.31639e-51
9.28657e-55
6.52053e-58
4.52649e-61
3.15431e-64
2.19808e-67
1.52916e-70
1.06914e-73
7.34555e-77
5.06961e-80
3.49879e-83
2.40777e-86
1.6691e-89
1.13487e-92
7.75017e-96
5.31467e-99
3.63114e-102
2.45019e-105
1.66024e-108
1.12494e-111
7.59612e-115
5.12864e-118
3.44314e-121
2.30995e-124
1.56735e-127
1.03684e-130
6.92393e-134
2.94444e-137
1.0615
1.00095
1.02305
0.993061
0.783722
1.03997
1.00134
3.46013e-08
1.52377e-14
3.9809e-16
3.86105e-16
3.60078e-17
2.21698e-19
6.19828e-23
6.83438e-27
4.07344e-30
3.01944e-33
2.14165e-36
1.50134e-39
1.05133e-42
7.35479e-46
5.13402e-49
3.57539e-52
2.48625e-55
1.72546e-58
1.19459e-61
8.25556e-65
5.69259e-68
3.91647e-71
2.69215e-74
1.84839e-77
1.26615e-80
8.6562e-84
5.90259e-87
4.01601e-90
2.72935e-93
1.85094e-96
1.25244e-99
8.46565e-103
5.70902e-106
3.84028e-109
2.57917e-112
1.72892e-115
1.15639e-118
7.72376e-122
5.14807e-125
3.42158e-128
2.27128e-131
1.50641e-134
5.91871e-138
1.0506
1.03528
1.00073
1.01367
1.01021
1.00291
1
2.74334e-11
2.87183e-15
6.74904e-15
3.00632e-16
3.05924e-19
7.48069e-23
2.29653e-26
9.22035e-30
6.04624e-33
4.43324e-36
3.13337e-39
2.19515e-42
1.55378e-45
1.10887e-48
7.90081e-52
5.62532e-55
3.97769e-58
2.90814e-61
2.0318e-64
1.40952e-67
9.93427e-71
7.05295e-74
4.90071e-77
3.50321e-80
2.40517e-83
1.69388e-86
1.16356e-89
8.06518e-93
5.60185e-96
3.87444e-99
2.66948e-102
1.83586e-105
1.2637e-108
8.65788e-112
5.93105e-115
4.06513e-118
2.75655e-121
1.88018e-124
1.28871e-127
8.64715e-131
5.83136e-134
3.94142e-137
1.57829e-140
1.1415
1.06364
1.0679
1.00898
1.01204
1.04944
0.491063
5.80287e-13
9.87589e-16
3.30396e-18
2.59454e-18
1.5229e-19
1.05742e-21
9.33796e-25
1.74294e-28
7.08435e-32
5.28098e-35
3.96378e-38
2.87886e-41
2.07594e-44
1.49581e-47
1.07541e-50
7.70953e-54
5.51725e-57
3.93807e-60
2.80297e-63
1.99121e-66
1.41147e-69
9.98178e-73
7.04112e-76
4.95353e-79
3.47524e-82
2.43169e-85
1.69833e-88
1.18332e-91
8.23116e-95
5.71047e-98
3.95036e-101
2.72661e-104
1.87896e-107
1.29176e-110
8.86135e-114
6.06515e-117
4.14101e-120
2.82166e-123
1.91776e-126
1.30052e-129
8.80902e-133
5.94923e-136
2.37226e-139
1.04272
1.02409
0.948987
0.977149
0.992836
1.02347
0.127307
-2.34921e-17
1.29247e-29
4.54911e-18
9.26291e-19
2.284e-20
4.65777e-23
6.27538e-27
7.7623e-31
2.99731e-34
1.20167e-37
5.18024e-41
2.40918e-44
1.44163e-47
4.82205e-51
2.15285e-54
1.09104e-57
3.3656e-61
2.93488e-64
4.71164e-67
9.60989e-71
3.15924e-74
2.40796e-77
7.3135e-81
6.01969e-83
2.9371e-86
5.27813e-90
1.46169e-92
6.67209e-96
3.04062e-99
2.2455e-102
2.18302e-105
1.52155e-109
2.341e-111
1.1466e-114
8.2276e-119
3.92264e-121
6.16155e-125
2.82715e-128
1.82399e-130
3.24715e-134
3.3467e-137
4.46155e-140
7.49744e-143
1.05593
1.00634
1.02412
1.0198
0.900054
1.00762
0.477538
2.27543e-11
5.4338e-15
1.38147e-16
2.06713e-19
7.21125e-21
3.97746e-23
1.12774e-26
7.34143e-31
2.29789e-34
9.54941e-38
4.03409e-41
1.70505e-44
7.06816e-48
3.024e-51
1.25854e-54
5.84869e-58
2.23209e-61
9.69731e-65
4.07856e-68
2.47709e-71
8.10557e-75
1.57626e-77
3.77574e-81
3.96545e-84
4.78005e-87
4.2202e-90
6.90903e-94
5.6857e-97
3.31605e-100
5.17791e-104
1.2844e-107
9.32512e-109
1.3566e-111
1.33505e-115
2.6543e-119
1.31546e-122
6.71674e-125
1.82422e-128
2.62062e-132
5.36463e-135
5.63332e-139
1.1605e-142
3.03444e-145
1.02774
1.05148
1.02878
1.06008
0.794082
1.00066
1.00021
1.84186e-10
-4.66388e-19
-3.3509e-21
1.92982e-17
6.70034e-19
6.1693e-22
3.30375e-26
7.18787e-30
2.68401e-33
1.14196e-36
5.31486e-40
2.49955e-43
9.12578e-47
5.02533e-50
1.7197e-53
1.24261e-56
6.52647e-60
3.28709e-63
8.95701e-67
1.07688e-69
1.5934e-73
6.04614e-77
7.83186e-79
1.465e-82
1.05019e-86
4.88187e-90
7.45967e-92
2.27516e-95
3.18669e-98
1.43796e-101
4.39217e-105
4.38413e-108
2.23774e-111
7.84431e-114
7.62029e-118
3.24389e-121
7.29252e-124
1.64294e-127
1.53571e-131
4.213e-133
3.59123e-136
7.63127e-140
1.94709e-142
1.03407
0.999918
1.00289
1.01796
0.903335
1.00515
1.00083
6.24965e-07
-2.88244e-20
-3.08756e-21
4.67418e-18
6.3886e-19
7.53336e-21
4.31142e-24
2.41858e-28
5.87293e-32
2.40464e-35
1.03261e-38
4.35845e-42
1.831e-45
7.78102e-49
3.16344e-52
1.70189e-55
9.89742e-59
3.37066e-62
1.84993e-65
4.59742e-69
4.88875e-71
2.87041e-74
1.80621e-78
5.38861e-81
4.85111e-84
4.48294e-88
1.11388e-91
2.17064e-94
4.35893e-98
8.65072e-101
9.55783e-104
5.87684e-108
9.64052e-110
5.15806e-113
9.73734e-116
9.15948e-119
5.57467e-122
4.18435e-125
1.6581e-128
1.12754e-131
6.53232e-136
1.51082e-139
5.90421e-143
1.00709
1.04055
0.960214
0.994946
1.00277
1.00024
1.00176
0.121969
-1.73143e-19
-8.33371e-22
2.2773e-17
3.984e-18
7.11209e-20
7.52043e-23
5.5408e-27
9.81535e-31
3.83405e-34
1.62419e-37
7.65394e-41
2.96228e-44
1.19921e-47
5.23415e-51
2.39459e-54
1.52954e-57
6.26693e-61
9.26855e-64
1.46018e-67
3.54478e-71
2.09553e-74
1.24069e-76
1.26632e-79
6.22601e-84
7.19444e-86
1.94147e-89
2.63161e-92
2.70291e-96
1.07341e-98
3.39571e-102
1.28644e-104
5.80149e-108
5.70993e-112
3.58606e-114
1.45115e-117
3.00978e-121
2.20273e-124
4.10642e-128
9.82196e-130
4.40175e-133
1.71318e-136
3.69787e-139
0.98981
1.0307
0.996066
0.985464
0.993652
0.984843
1.00225
0.232164
-2.91235e-19
-4.81746e-23
1.77264e-17
3.10878e-18
5.56242e-20
6.04779e-23
4.49604e-27
7.85953e-31
3.11383e-34
1.361e-37
5.78749e-41
7.95299e-44
1.48396e-47
1.34694e-50
3.72227e-54
1.11067e-57
8.75074e-61
1.93209e-64
1.16107e-67
3.2816e-71
1.17931e-74
1.14094e-75
1.28906e-78
7.09528e-82
4.98424e-86
4.98918e-89
6.63946e-93
1.20506e-95
8.07061e-99
1.50514e-101
1.00108e-105
6.23088e-108
4.37855e-111
7.72993e-115
2.92796e-117
1.65452e-120
5.91006e-124
3.12586e-128
9.91691e-132
4.69849e-133
2.29286e-136
7.23654e-141
1.02678
1.04003
1.01229
1.01564
0.988403
1.05232
1.0038
0.0473152
-1.32364e-20
-1.10406e-22
4.16083e-18
5.62543e-19
6.48709e-21
3.57938e-24
1.99875e-28
4.9279e-32
2.01263e-35
8.79842e-39
3.69795e-42
1.5474e-45
1.04178e-48
3.18261e-52
1.3007e-55
7.44144e-59
2.93628e-62
2.71085e-65
5.88491e-69
2.10531e-72
1.97367e-74
8.25782e-78
5.04017e-82
4.14585e-85
1.00961e-88
2.44091e-91
5.21261e-94
1.39178e-97
1.76122e-101
1.48908e-103
2.74537e-107
4.182e-111
8.75943e-114
5.82316e-117
1.1424e-119
4.2272e-123
3.42253e-126
1.55984e-130
3.64676e-134
1.41828e-137
8.83148e-141
7.61812e-141
1.06607
1.03038
1.0212
1.01015
0.953998
1.02104
1.00112
2.16298e-08
-2.20888e-18
-1.96094e-21
1.86529e-17
7.35094e-19
8.08857e-22
3.83855e-26
7.48607e-30
2.82003e-33
1.20405e-36
5.12995e-40
2.61034e-43
1.16534e-46
4.26063e-50
2.4218e-53
1.74014e-56
3.3578e-60
5.29148e-63
8.34389e-67
2.68725e-69
3.66702e-72
2.41885e-76
8.92222e-80
2.32647e-83
9.39667e-86
2.16693e-88
7.03444e-92
1.45686e-95
3.3055e-98
2.54889e-101
7.90642e-105
1.1887e-107
9.15214e-111
2.94589e-114
1.66477e-116
6.24647e-120
9.09155e-124
2.67526e-127
3.64714e-131
1.28696e-134
5.03011e-138
1.97936e-141
9.75489e-145
1.07122
1.09226
0.989384
0.998889
1.00056
0.992375
1.00001
1.21885e-11
1.93163e-16
1.39343e-16
2.85737e-18
6.1218e-21
2.80084e-23
1.39866e-26
1.11544e-30
3.1033e-34
1.28477e-37
5.43432e-41
2.30085e-44
9.72122e-48
4.07812e-51
1.71914e-54
7.18979e-58
3.02451e-61
1.26411e-64
6.30396e-68
2.33647e-71
9.26891e-75
3.76659e-78
1.7101e-81
4.264e-84
7.5297e-88
9.49971e-91
7.16996e-94
4.66547e-97
1.43719e-100
4.1456e-104
4.76131e-107
5.19831e-111
2.46723e-113
4.17968e-117
6.25124e-121
9.04992e-123
8.28678e-126
2.21514e-129
3.96339e-133
1.07508e-135
1.03856e-138
6.09322e-141
1.64595e-144
1.05223
0.979871
1.08136
0.993134
1.01397
1.04977
0.491025
-3.15353e-18
-1.29246e-29
4.49982e-18
1.32807e-18
3.59399e-20
8.65658e-23
1.41579e-26
1.61394e-30
5.76047e-34
2.42254e-37
1.0449e-40
4.41814e-44
1.86992e-47
7.992e-51
3.48242e-54
1.42183e-57
6.06506e-61
2.932e-64
1.25373e-67
5.79729e-71
2.1979e-74
3.48476e-77
2.2257e-80
2.46099e-84
3.05718e-86
1.27168e-89
9.97234e-94
4.11191e-97
1.57833e-99
8.86169e-103
1.31818e-106
2.79022e-108
1.61967e-111
4.14795e-115
1.08874e-117
3.09523e-121
4.93732e-125
9.24955e-128
9.27918e-131
4.48827e-134
3.3807e-137
2.69871e-141
6.71151e-145
0.835564
1.03106
0.963274
1.02673
0.837827
1.05902
0.962235
1.0006
0.990572
1.00036
1.02974
1.00002
1.00021
1.00069
1.00096
0.943785
1.00201
1.00548
1.00153
0.934578
1.00276
1.00026
1.00115
1.00166
1
1.00082
1
1.00129
1.00388
1
1.00307
1.00547
1.00376
1
1.00255
1.0026
1.02103
1.00521
1
1.00203
1.02109
1.00502
1.00497
1.05175
1.00339
1.04405
1.00605
1.0382
1.00319
1.00427
1
1.00113
1.04295
1.00395
1.00208
1.00106
1.00018
1.01967
1
0.994456
1.00035
1.03903
1
1
1.00054
0.893966
1.04899
1.00004
1
0.894466
0.838536
1.08156
0.961886
1.02915
0.836278
1.05944
0.963707
1.00008
0.987466
1.00097
1.00747
1.00005
0.987808
1.00127
1.00192
0.93299
1.00302
0.974457
1.00156
1.02079
1.00247
1.00129
1.0049
1.00149
1.00573
1.00118
1.00532
1.00123
1.00443
1
1.00319
1.00061
1.00378
0.983569
1.00226
1.0023
1.02014
1.00551
0.996659
1.00207
1.01717
1.00514
1.0064
1.03725
1.00389
1.05427
1.00584
1.02167
1.00329
1.00415
1
1.00136
1.03011
1.00402
0.986721
1.00108
1.00076
1.04021
1.00035
1.00725
1.00043
1.00364
1
1.00023
0.999999
0.902786
1.05188
1.00006
1.00043
0.896472
0.835193
1.04597
0.964065
1.00077
0.837077
0.999325
0.964431
1.00021
1
1.00144
0.993303
1.0005
1.01149
1.00137
1.00184
1.00606
1.00309
1.0039
1.0014
0.999618
1.00187
1.00157
1.00714
1.0015
1.01164
1.00049
1.07551
1.00166
1.00427
0.985367
1.00294
1.00067
1.00382
1
1.00244
1.00238
1.01622
1.00535
0.990856
1.0022
1.01647
1.00521
1.00609
1.01974
1.00386
1.02809
1.00556
1.021
1.00332
1.00429
0.991993
1.00139
1.02513
1.00469
0.991905
1.0011
1.00077
1.00125
1.00029
0.986185
1.00027
1.00394
1
1.00026
1.00083
0.896241
1.0497
1
0.9991
0.896174
1.02886
1.01291
1.03086
0.999861
0.998336
1.02015
1.38414
1.00806
1.00944
1.02208
1.02511
1.02231
1.00795
1.00917
-5.55998e-16
0.26128
-7.66002e-16
0.124358
1.33421e-10
0.267295
1.33417e-10
0.984884
1.04486
0.914029
1
0.788392
1.00337
0.757392
1.00787
1.0172
1.02106
1.04402
1.01585
1.01517
1.00851
-3.82595e-15
1
-2.65996e-16
0.478095
1.78113e-08
0.994942
1.07482e-09
0.982091
0.977165
0.78325
1.05263
1
0.953371
0.764143
1.00401
1.00203
1.01741
1.00787
1.00273
1.02265
1.00252
-4.9017e-19
1.00071
0.0455272
1.00042
1.60644e-07
1.00131
0.0524465
0.928439
0.895055
1.02143
1.06687
0.90346
0.588703
1.01558
1.00082
1.00106
1.00044
0.985714
1
1.00651
0.992533
0.211998
1.00178
0.732792
1.00084
0.219107
1.0015
0.732877
1.00698
1.00168
1
0.934405
1
0.987404
0.996527
1.00362
1.00437
0.999702
1.00816
1.00499
1.00011
1.00392
0.841907
1.00171
0.935466
1.00202
0.840409
1.00212
0.92695
0.981091
1.0161
1.0196
0.994425
0.834951
1.03165
1.03581
0.998471
0.999905
0.973312
1
1
0.982101
0.999684
0.939979
1.00254
0.831548
1.00259
0.930292
1.00304
0.827855
1.01883
0.999543
1
1.07608
1.02321
0.982114
1.02516
1.00946
1.02026
0.961845
1.004
1.0183
0.952855
1.00777
0.705002
1.00181
0.205054
1.004
0.70549
1.00171
0.211977
1.00678
1.00988
0.981085
0.933418
1.04303
1.00145
0.929895
1.01902
1.02215
1.04016
1.04488
1.02089
1.05181
1.02082
0.0525445
1.00012
-2.56849e-18
1.00164
0.0594623
1.00014
2.77158e-07
0.863397
1.01771
1.01757
1.00729
0.95707
1.05668
1.04502
0.983054
1.00009
0.94631
0.985616
1.00074
0.984878
0.98451
-3.40725e-19
0.631048
-1.27252e-17
1.00005
8.64258e-09
0.631871
1.85687e-10
1.00878
0.886254
0.92031
1.00865
1.03819
0.958136
0.992749
1.00329
1.01496
1.01631
1.04454
1.01282
1.01423
1.00393
-2.29841e-16
0.145788
-4.66805e-17
0.491097
2.53724e-10
0.150239
2.53723e-10
1.00933
0.893479
1.24748
0.988133
1.00046
0.882359
1.11335
1.0057
1.00645
1.02118
1.02871
1.00699
1.01835
1.00358
5.1249e-10
0.26842
5.12487e-10
0.126606
5.1249e-10
0.266509
5.12489e-10
0.911767
1.02411
0.708699
0.77454
0.892986
1.05216
0.748984
1.01049
1.01378
1.03166
1.01947
1.01188
1.01254
1.03635
2.99006e-08
0.994226
2.06046e-09
0.47799
3.02489e-08
0.993727
2.04459e-09
0.987185
0.979902
1.02724
0.928264
0.865636
1.12916
1.11832
0.943689
0.999749
0.913303
1.03592
0.935731
0.997455
0.909447
2.46271e-07
1.00176
0.0527983
1.00057
2.46982e-07
1.00119
0.0529226
0.818067
0.710762
1
0.923312
0.959073
1.23055
0.882293
1.01009
1.00003
1.07369
1.00706
1.00885
1.0003
1.07518
0.218696
1.00159
0.732689
1.00092
0.218787
1.00137
0.733351
1
1
0.984672
1.01005
0.969165
0.986756
0.967628
1.00236
1.00453
0.997757
1.00609
1.00304
1.00443
0.985524
0.841877
1.00243
0.928096
1.00197
0.842168
1.00238
0.927883
0.788741
1.0265
1.03503
0.998312
0.999411
1.03273
1.00971
0.998414
1
0.988512
0.985086
0.998915
0.999521
0.99236
0.933158
1.00305
0.829399
1.00276
0.932053
1.00325
0.829099
1.02405
1.01014
1.0645
1.0377
1.03564
1.01558
1.10486
1.01311
1.01803
1
1.04783
1.01214
1.01847
1.00075
0.704556
1.00215
0.213522
1.00371
0.705386
1.00171
0.212536
1.12999
0.932385
0.955862
0.951075
1.00959
0.91075
0.921559
1.01165
1.02056
1.02517
1.03885
1.01457
1.01939
1.00882
0.0601413
1.0005
4.33027e-07
1.00147
0.0604103
1.00009
4.32121e-07
0.986721
1.13128
1.07033
0.995774
0.989614
1.11401
1.03108
0.993535
1.00251
0.925341
1.00289
0.995209
1.00301
0.901557
1.55963e-08
0.631112
4.84052e-10
1.00003
1.56217e-08
0.631627
4.77819e-10
1.04161
0.988799
0.986337
1.02307
1.0544
0.988355
0.993461
1.00308
1.01059
1.01331
1.05267
1.00321
1.00981
1.01305
9.49579e-10
0.141669
9.49579e-10
0.491375
9.49579e-10
0.14817
9.49579e-10
1.00089
1.00085
1.12194
0.998671
0.970642
0.9871
0.872294
1.00287
1.00346
0.980885
1.0237
1.00267
0.973244
1.00278
1.31066e-10
0.265549
1.31063e-10
0.11973
-4.78977e-16
0.260338
-7.52662e-16
0.800425
0.958958
1
0.9097
0.966743
1.05435
1.06876
1.0044
1.01012
1.00652
1.0002
1.00426
1.00908
1.00115
1.82797e-08
0.99428
1.09651e-09
0.474951
-3.78748e-15
0.999196
-2.45727e-16
1
1.03544
1.06988
1.01683
1.00007
0.995849
0.943176
0.979588
0.997754
0.980717
1.00363
0.979577
1.00104
0.987291
1.60975e-07
1.00167
0.0521283
1.00004
-5.96058e-19
1.00077
0.0454489
1.10109
1.21832
0.98596
1.0585
1.01747
1.28259
1.20044
1.00617
1.00394
1.02322
0.990835
1.00174
1.00498
1.04069
0.217865
1.00151
0.732216
1.0002
0.21147
1.00152
0.733159
0.965952
0.984087
0.991324
1.01686
1.03372
1
0.92603
1.0015
1.00291
0.98573
0.99289
1.00005
1.00373
0.990029
0.840897
1.00226
0.926191
1.0016
0.842181
1.00148
0.935879
0.970494
1.02747
1.01407
1.00069
0.878391
1.02967
1.01033
0.999081
0.998793
0.985751
0.96999
0.99986
1.00001
0.9872
0.93078
1.00287
0.82881
1.00182
0.940185
1.00262
0.831485
1.02548
0.992586
1.05499
1.03841
1.02226
1.00278
1.07776
1.01321
1.01861
1.02524
1.04063
1.01336
1.01923
1.02492
0.704329
1.00212
0.213058
1.00382
0.704456
1.00178
0.205809
1.12532
0.968138
0.988437
0.993389
1.06124
0.980764
0.915965
1.00428
1.02022
0.978355
0.987114
1.00516
1.01615
0.967105
0.0590668
1.00045
2.80978e-07
1.00106
0.0523988
1.00009
-3.02866e-18
0.964033
1.05449
1.00701
0.99597
0.777458
1.03488
0.977367
0.990422
1
0.904807
1.01618
0.994909
1.00961
0.910065
8.65759e-09
0.631295
1.95171e-10
1
-4.08079e-19
0.630693
-1.24229e-17
1.05539
0.989005
0.995503
1.00461
1.04896
1.00257
0.996656
1.00335
1.01148
1.01386
1.05032
1.00323
1.0135
1.02001
2.52205e-10
0.148203
2.52205e-10
0.489324
-1.93453e-16
0.144248
-4.88319e-17
1.00259
1.00079
0.848428
0.835107
0.846147
1.00205
1.00081
1.01952
1.04372
1.01856
1.03844
1.06372
1.01797
1.01989
1.00177
0.876335
1.0034
0.96263
0.873795
1.00344
1.00083
1.00788
1.03182
1.00579
1.01902
1.02181
1.00752
1.00861
1.00265
0.835315
1.00046
0.847093
0.845266
1.00227
1.00091
1.01969
1.06948
1.11344
1.01521
1.07792
1.018
1.01329
1.00233
0.962677
0.872345
1.00314
0.871571
1.00349
1.00199
1.00575
1.00549
1.0002
1.00043
1.00548
1.00031
1.00619
1.00478
1.01136
0.998254
0.98282
1.01559
0.994733
1.00357
1.00074
1.00032
0.999727
1.0004
1.00038
0.999496
1.00158
1.01181
1.03734
1.01442
1.02704
1.01603
1.02833
1.01122
1.00614
1.0002
1.00535
1.00051
1.00574
1.00052
1.00565
1.00102
0.99679
1.02508
1.00312
1.06864
1.00132
1.0006
1.00037
1.0009
1.00042
1.00094
1.00056
1.0009
1.00015
1.00129
1.00156
1.00216
1.00116
1.00195
1.00192
1.00226
0.99167
0.979012
1
0.938303
0.885836
1
0.991784
1.00093
1.0052
1.00258
1.00214
1.00465
1.00289
1.00247
1.00033
1.00511
1.00077
0.979858
1.00236
0.999789
1
1.00063
1.00185
1.00262
1.0017
1.00289
1.00213
0.999901
0.991033
0.950659
0.932809
1
0.884548
1
0.982038
1.00088
1.00274
1.00502
1.00287
1.00469
1.00303
1.00106
0.998928
1.00039
1.00001
1.00048
1.00062
1.00001
0.999302
0.97672
0.876187
0.999693
0.994506
0.89608
0.999642
0.989283
1
1.00034
1.00143
1.00144
1.00017
1.00134
1
1.00616
0.995758
1
1.0719
1
1.04454
1.01023
0.999157
1.00104
1.00078
1.0001
1.00093
1.00018
1.00005
0.982452
1.00055
1
0.99989
0.958241
1.00004
0.98587
0.999672
1.00152
1.0001
1.00133
1.00039
1.00142
0.998994
1.00367
1.00422
1.00499
1.00392
1.00409
1.00486
1.00416
1.00027
1
1.00007
1
1.00001
1.00029
1.00069
1.0019
1.00376
1.0013
1.00284
1.00378
1.00092
1.00244
1.0037
1.00575
1.00462
1
1.00463
1.00052
1.00349
1.0042
1.00435
1.00399
1.00477
1.00429
1.00497
1.00374
1.00064
1.00004
1
1.00017
1.00007
1.0005
1.00033
1.00226
1.00322
1.0035
1.00103
1.00415
1.00123
1.00169
1.00026
1.00085
1.00304
1.00234
1.00064
1.00289
1.00049
1.00481
1.01294
1.0094
1.02036
1.01182
1.01031
1.00412
1.00267
1.0043
1.00603
1.0051
1.00394
1.00596
1.00262
0.999021
0.99984
1.00001
0.988514
1.00002
0.989377
0.997993
1.00039
1.00252
1.00059
1.00273
1.00085
1.00311
1
1.00521
1.02139
1.01099
1.01041
1.01245
1.01016
1.00523
1.00305
1.00544
1.0037
1.00588
1.00412
1.00611
1.00292
1.00736
1.00897
1.00545
1.00412
1.00866
1.0053
1.00761
1.00007
0.892164
1.01265
1.06436
0.941551
1.01668
1.00185
1.00318
1.00364
1.00685
1.00325
1.00355
1.00678
1.00337
1.01055
1.02689
1.01903
0.982202
1.01941
0.962665
1.01091
1.00734
1.00433
1.0083
1.00546
1.00767
1.00546
1.00724
1.00514
1.02052
0.985042
1.01543
0.994823
1.01315
1.00304
1.00504
1.0038
1.00362
1.00657
1.00419
1.0068
1.00443
1.01028
1.01102
1.00285
1.0042
1.0115
1.00288
1.01074
1.01308
1.01367
1.00302
1
1.01058
1.00306
1.01373
1.0078
1.0013
1.00393
1.00111
1.00148
1.00371
1.00761
1.01703
1.03911
1.02032
1.06716
1.01926
1.04152
1.01623
1.00976
1.00428
1.01223
1.00341
1.01191
1.00323
1.00941
1.01431
1.00147
1.01206
1.00333
1.01013
1.00332
1.01528
1.00795
1.00142
1.00151
1.00387
1.00169
1.00388
1.00764
0.999306
1.00084
1
1.00032
1.00093
1.00003
0.999564
0.976355
0.978929
0.998345
1.01464
0.995364
0.99621
0.953636
0.991887
1
0.999332
1
1
0.999124
0.98718
0.984169
0.982343
1.00077
0.949133
1.00059
0.967661
0.987641
0.999521
1.0008
1.00072
1
1.00098
1.00028
0.999425
0.930296
1.05506
0.993764
1.00048
1.01059
0.999543
0.928763
0.984194
1.00043
1
0.998361
1
0.999451
0.980315
1.00068
1.00237
0.968414
1.00001
1.00238
0.966617
1.00065
1.00339
0.995536
1.0049
0.995658
0.995982
1.00392
1.00423
1.00119
0.925408
1.00056
0.889901
0.922827
1.00104
1.00133
1.00341
1.04907
1.01154
1.01312
1.01225
1.01354
1.00302
1.00104
1.0002
1.00159
0.963655
1.00219
0.964642
1.00084
1.00349
1.00184
1
1.00031
1.00184
1.00174
1.00317
1.00147
0.885033
0.919833
1.00062
0.919788
1.00123
1.00202
1.00099
1.00049
0.849127
0.838957
1.0017
0.851427
1.00023
1.00828
1.16324
1.01454
1.07903
1.01056
1.16093
1.0131
1.00058
0.873952
1.00263
0.962841
1.0012
0.872927
1.00192
1.00482
1.02865
1.00317
1
1.0111
1.00409
1.00416
1.00061
0.838262
1.0006
0.852896
0.85269
1.00033
1.00045
1.00489
1.09899
1.03105
1.0098
1.08965
1.01122
1.0021
1.00033
0.963537
0.868828
1.0014
0.869957
1.00164
1.00005
1.00528
1.00541
1.00102
1.00004
1.00564
1.00523
1.00109
0.996714
1.00676
1.00175
0.990204
1
1.00787
1.00137
1.0003
1.00085
1.00123
1.00096
1.00037
1.00086
1.00107
1.00987
1.00539
1.01128
1.02658
1.01208
1.03409
1.00841
1.00537
1.00005
1.00512
1.00145
1.00522
1.00144
1.00523
0.996173
0.976041
0.964727
1.00396
1.00221
1.00141
1.00006
1.00067
1.0013
1.00099
1.00249
1.00111
1.00145
1.00094
0.996831
1.00297
1.00181
1.00163
0.999622
1.0028
1.00118
0.978095
0.935751
0.999977
0.970533
0.981491