/*--------------------------------*- C++ -*----------------------------------*\
| =========                 |                                                 |
| \\      /  F ield         | OpenFOAM: The Open Source CFD Toolbox           |
|  \\    /   O peration     | Version:  5.0                                   |
|   \\  /    A nd           | Web:      www.OpenFOAM.org                      |
|    \\/     M anipulation  |                                                 |
\*---------------------------------------------------------------------------*/
FoamFile
{
    version     2.0;
    format      ascii;
    class       volScalarField;
    location    "3.7";
    object      p;
}
// * * * * * * * * * * * * * * * * * * * * * * * * * * * * * * * * * * * * * //

dimensions      [1 -1 -2 0 0 0 0];

internalField   nonuniform List<scalar> 
8864
(
106.096
92.6477
106.431
94.6476
86.4269
94.9267
95.7486
92.6069
90.1332
87.6299
85.135
82.6477
80.171
77.7329
75.3066
72.9019
70.5162
68.1612
65.8264
63.5175
61.2134
58.9281
56.675
54.4095
52.1692
49.9479
47.7317
45.5131
43.3135
41.1387
38.96
36.8051
34.6784
32.545
30.4011
28.2914
26.2345
24.2126
22.1999
20.1786
18.1864
16.2386
14.295
12.3226
10.3781
8.48198
6.58853
4.6873
2.80786
0.938708
122.266
100.115
116.295
91.8191
92.4902
98.3697
97.2224
93.7557
90.2439
87.771
85.2206
82.7046
80.2299
77.7669
75.322
72.9227
70.5227
68.1789
65.8548
63.5243
61.2217
58.9327
56.6643
54.4096
52.1592
49.933
47.7205
45.5148
43.3206
41.1403
38.9735
36.8177
34.6748
32.5343
30.4018
28.297
26.23
24.1961
22.1788
20.1769
18.1914
16.2416
14.2971
12.3387
10.3846
8.47092
6.57439
4.68392
2.80809
0.938362
107.622
98.5176
100.798
96.7121
105.067
106.961
97.7641
94.0631
90.407
87.8676
85.2894
82.7361
80.2357
77.7784
75.335
72.9154
70.5418
68.2078
65.8739
63.5235
61.2211
58.9341
56.6561
54.404
52.1615
49.9275
47.7106
45.5213
43.3318
41.1445
38.9785
36.817
34.6551
32.5239
30.4153
28.313
26.2286
24.1864
22.1763
20.1781
18.1999
16.2398
14.2873
12.3377
10.3944
8.46831
6.56883
4.68524
2.8107
0.938217
100.609
105.195
102.135
106.494
95.2286
98.4334
97.6233
94.576
90.4692
87.9231
85.318
82.7807
80.2495
77.7772
75.3397
72.9229
70.5409
68.1951
65.8461
63.5251
61.2305
58.9337
56.6593
54.4058
52.1727
49.9378
47.7096
45.5271
43.3256
41.133
38.9785
36.8115
34.6494
32.5186
30.4207
28.3298
26.2364
24.1835
22.1771
20.1842
18.2051
16.2284
14.2658
12.3297
10.4017
8.47109
6.56948
4.69257
2.81709
0.933525
94.9257
93.7163
112.194
184.639
107.118
99.0452
97.8794
95.2752
90.4614
87.9084
85.2985
82.7486
80.2414
77.7688
75.344
72.9287
70.5526
68.1872
65.8278
63.5302
61.2346
58.933
56.6633
54.4085
52.1812
49.9525
47.7194
45.5216
43.3132
41.1247
38.9725
36.8033
34.6465
32.5176
30.4222
28.3393
26.2472
24.1889
22.1836
20.1981
18.2073
16.2172
14.2498
12.3211
10.3995
8.47316
6.57734
4.70734
2.82593
0.931665
95.9262
100.449
101.381
95.4745
93.8487
101.242
97.4446
95.6864
90.2909
87.8035
85.231
82.7043
80.2205
77.7593
75.3443
72.9328
70.5572
68.1856
65.8193
63.51
61.2292
58.9279
56.6645
54.4187
52.1861
49.9657
47.7298
45.517
43.3066
41.1171
38.9648
36.7983
34.6401
32.5202
30.4264
28.3412
26.2563
24.1989
22.1859
20.1975
18.1997
16.2004
14.2348
12.3123
10.3953
8.47765
6.59378
4.7313
2.83658
0.934573
98.198
104.982
105.298
89.5363
106.539
99.4765
96.9807
94.3349
90.0485
87.6289
85.1417
82.655
80.2038
77.7531
75.3297
72.9246
70.5528
68.194
65.8199
63.501
61.2132
58.9269
56.6651
54.428
52.193
49.965
47.7365
45.5136
43.3088
41.1297
38.9642
36.7878
34.6337
32.5267
30.4295
28.336
26.2626
24.2131
22.1879
20.188
18.1917
16.1978
14.2341
12.3091
10.3908
8.4795
6.59993
4.73098
2.8405
0.943727
103.28
104.786
101.777
97.9202
110.809
100.385
96.3619
93.1276
89.8985
87.5371
85.0675
82.6089
80.1744
77.7338
75.2968
72.9208
70.5424
68.182
65.8401
63.4954
61.2055
58.9229
56.6612
54.4288
52.1926
49.9686
47.7375
45.5109
43.319
41.1349
38.9594
36.7841
34.6371
32.5329
30.4271
28.3248
26.2628
24.2235
22.1927
20.1804
18.1864
16.2028
14.2438
12.3102
10.3887
8.48113
6.59801
4.71991
2.83859
0.947402
107.411
102.088
104.206
97.6521
98.7632
98.5587
96.9944
92.9835
89.7751
87.4749
85.0364
82.598
80.1586
77.7214
75.3018
72.9152
70.5148
68.1605
65.8279
63.5062
61.1994
58.9158
56.6665
54.4242
52.1939
49.969
47.7345
45.5092
43.3122
41.133
38.9466
36.7841
34.6567
32.5383
30.4206
28.315
26.2595
24.2277
22.1971
20.1799
18.1847
16.2149
14.2606
12.3125
10.3847
8.48262
6.59092
4.70906
2.82773
0.948323
106.322
113.156
108.947
80.4373
98.6941
95.2111
95.9959
92.1757
89.8952
87.4903
85.0578
82.6001
80.1418
77.721
75.2996
72.8996
70.5138
68.159
65.8225
63.5084
61.2021
58.9191
56.6712
54.414
52.1833
49.9642
47.7352
45.5111
43.31
41.1338
38.9496
36.7908
34.6724
32.5452
30.4076
28.2984
26.2412
24.2204
22.1989
20.1785
18.1859
16.2306
14.2799
12.3142
10.3786
8.48576
6.59395
4.69759
2.81343
0.939359
106.775
120.912
105.067
89.9196
87.2545
94.5916
95.6183
92.6077
90.133
87.63
85.1351
82.6477
80.1708
77.733
75.3066
72.9017
70.5162
68.1612
65.8265
63.5173
61.2133
58.9282
56.675
54.4094
52.1692
49.9479
47.7316
45.5131
43.3131
41.1387
38.96
36.805
34.6784
32.5449
30.4011
28.2913
26.2343
24.2126
22.1999
20.1785
18.1863
16.2386
14.2951
12.3227
10.3781
8.4822
6.58845
4.68729
2.80782
0.938787
137.872
107.324
90.7371
92.2237
88.2845
98.5545
97.1885
93.7551
90.2444
87.7708
85.2206
82.7046
80.2299
77.7669
75.3219
72.9225
70.5226
68.1791
65.8548
63.5242
61.2218
58.9328
56.6642
54.4095
52.1593
49.933
47.7204
45.5148
43.3206
41.1404
38.974
36.8178
34.6747
32.5343
30.4018
28.297
26.23
24.1961
22.1787
20.1769
18.1914
16.2416
14.2971
12.3384
10.3847
8.47092
6.57428
4.68399
2.80828
0.938314
106.992
111.851
132.546
99.4737
100.402
106.647
97.7518
94.0629
90.4084
87.8674
85.2895
82.736
80.2357
77.7783
75.3349
72.9154
70.5417
68.2077
65.874
63.5235
61.221
58.9341
56.6559
54.4041
52.1615
49.9274
47.7106
45.5213
43.3319
41.1446
38.9783
36.8169
34.6552
32.5239
30.4154
28.313
26.2285
24.1864
22.1762
20.178
18.2
16.2398
14.2872
12.3376
10.3944
8.46814
6.56864
4.68528
2.81071
0.938197
102.713
105.714
104.136
102.895
95.6393
97.8662
97.6095
94.5655
90.4697
87.9223
85.3181
82.7807
80.2495
77.7772
75.3397
72.9229
70.5409
68.195
65.846
63.525
61.2306
58.9337
56.6593
54.4059
52.1725
49.9376
47.7098
45.5272
43.3257
41.1329
38.9784
36.8115
34.6493
32.5186
30.4207
28.3297
26.2363
24.1835
22.1771
20.1843
18.2053
16.2283
14.2656
12.3299
10.4018
8.47108
6.56938
4.69253
2.81707
0.933388
94.91
95.848
94.1247
153.63
124.671
98.9903
97.8707
95.1512
90.4617
87.9084
85.2986
82.7486
80.2409
77.7688
75.3441
72.9288
70.5526
68.1872
65.8277
63.5302
61.2347
58.9328
56.6633
54.4086
52.181
49.9526
47.7195
45.5215
43.3126
41.1246
38.9724
36.8033
34.6464
32.5176
30.4222
28.3393
26.2473
24.1888
22.1836
20.1982
18.2073
16.2172
14.2498
12.3212
10.3995
8.47314
6.57727
4.70728
2.82592
0.931715
96.4534
94.0321
89.2352
90.8969
93.6804
99.5083
97.3803
95.6083
90.2912
87.8036
85.2309
82.704
80.2206
77.7592
75.3443
72.9327
70.5572
68.1857
65.8192
63.51
61.2291
58.9279
56.6644
54.4186
52.1862
49.9658
47.7298
45.5169
43.3066
41.1174
38.9648
36.7982
34.6399
32.5202
30.4264
28.3411
26.2563
24.1988
22.1859
20.1975
18.1995
16.2004
14.2348
12.3123
10.3952
8.47764
6.59375
4.73133
2.8363
0.934538
99.5426
100.223
92.0823
89.8524
96.3951
98.242
96.9943
94.2055
90.049
87.6288
85.1417
82.655
80.2037
77.7531
75.3296
72.9246
70.5528
68.1938
65.8199
63.5011
61.2133
58.9268
56.6651
54.428
52.1929
49.9649
47.7365
45.5136
43.3088
41.1297
38.9645
36.7878
34.6337
32.5267
30.4295
28.3357
26.2626
24.2131
22.1879
20.188
18.1917
16.1976
14.2341
12.309
10.3907
8.47948
6.60024
4.73104
2.84042
0.943849
102.347
101.669
100.455
95.9286
117.498
98.8929
96.3035
93.1174
89.8991
87.5369
85.0675
82.6089
80.1744
77.7338
75.2968
72.9208
70.5427
68.1817
65.8404
63.4953
61.2055
58.9229
56.6613
54.4287
52.1926
49.9688
47.7375
45.5107
43.3189
41.1349
38.9593
36.7841
34.6371
32.5329
30.4271
28.3248
26.2628
24.2234
22.1926
20.1803
18.1863
16.2029
14.2438
12.3102
10.3886
8.48111
6.598
4.71989
2.83857
0.947417
105.821
101.816
100.113
101.853
100.131
97.9363
97.0062
92.9805
89.7757
87.4747
85.0364
82.598
80.1586
77.7213
75.3018
72.9154
70.515
68.1604
65.828
63.5063
61.1994
58.9158
56.6666
54.4241
52.1939
49.9689
47.7344
45.5091
43.3122
41.1331
38.9466
36.784
34.6571
32.5382
30.4206
28.315
26.2594
24.2276
22.197
20.1798
18.1848
16.215
14.2606
12.3123
10.3847
8.48258
6.5908
4.70903
2.82779
0.948327
121.986
111.59
107.263
152.699
97.0019
95.7726
95.9374
92.1762
89.895
87.4903
85.0578
82.5998
80.1416
77.7212
75.2996
72.8999
70.5137
68.1587
65.8225
63.5083
61.202
58.9191
56.6712
54.414
52.1834
49.9641
47.7349
45.5111
43.31
41.1337
38.9494
36.7908
34.6725
32.5451
30.4076
28.2985
26.2412
24.2204
22.1989
20.1785
18.1859
16.2305
14.28
12.3141
10.3786
8.48574
6.59381
4.69757
2.81342
0.939341
104.724
97.0043
106.322
87.7772
87.8276
94.1161
95.6398
92.6073
90.1331
87.6297
85.1351
82.6478
80.1707
77.7329
75.3066
72.9014
70.5161
68.1612
65.8266
63.5171
61.2132
58.9281
56.6749
54.4092
52.1692
49.9478
47.7314
45.513
43.313
41.1386
38.96
36.8051
34.6784
32.5448
30.401
28.2913
26.2342
24.2126
22.1998
20.1784
18.1862
16.2387
14.2951
12.3228
10.3781
8.48212
6.58834
4.68721
2.80771
0.938762
120.78
100.373
88.5351
91.7531
64.6474
98.7393
97.1954
93.7556
90.2438
87.7709
85.2205
82.7045
80.2298
77.7668
75.3219
72.9223
70.5225
68.1791
65.8545
63.524
61.2218
58.9328
56.664
54.4095
52.1592
49.9329
47.7202
45.5147
43.3207
41.1403
38.974
36.8178
34.6746
32.5342
30.4017
28.2969
26.2299
24.1965
22.1786
20.177
18.1914
16.2424
14.2969
12.3376
10.3848
8.47091
6.57419
4.68393
2.80835
0.938125
104.611
94.6227
94.7366
103.234
160.714
97.4669
97.7447
94.0637
90.4083
87.8675
85.2893
82.7359
80.2356
77.7783
75.3349
72.9153
70.5417
68.2074
65.874
63.5233
61.2207
58.934
56.6558
54.4045
52.1614
49.9273
47.711
45.5212
43.3319
41.1446
38.9782
36.8165
34.6552
32.524
30.4155
28.3129
26.2283
24.1864
22.1762
20.1779
18.2
16.2399
14.2873
12.3372
10.3943
8.46803
6.56852
4.68525
2.81068
0.938055
99.6403
99.0521
99.6781
119.975
131.224
98.4538
97.6048
94.5678
90.4691
87.9221
85.3179
82.7806
80.2494
77.7771
75.3396
72.9228
70.5408
68.1948
65.8459
63.5248
61.2306
58.9336
56.6592
54.4059
52.1722
49.9374
47.7099
45.5271
43.3256
41.1328
38.9783
36.8114
34.6493
32.5185
30.4207
28.3296
26.2362
24.1835
22.1772
20.1843
18.2053
16.2281
14.2655
12.3298
10.4018
8.471
6.56928
4.69245
2.81699
0.933058
95.8702
92.8243
85.1514
81.814
114.832
98.9553
97.868
95.1668
90.4608
87.9087
85.2985
82.7486
80.2407
77.7687
75.344
72.9287
70.5525
68.1871
65.8276
63.5302
61.2347
58.9323
56.6632
54.4086
52.1807
49.9526
47.7196
45.5215
43.3125
41.1246
38.9721
36.8033
34.6463
32.5175
30.4222
28.3392
26.2473
24.1888
22.1836
20.1983
18.2071
16.2171
14.2498
12.3212
10.3994
8.47307
6.57741
4.70717
2.82591
0.931627
98.9267
94.5163
89.25
91.4255
93.5459
100.489
97.3953
95.6144
90.2903
87.8038
85.2307
82.7039
80.2206
77.7592
75.3443
72.9327
70.5571
68.1858
65.8191
63.5098
61.229
58.9279
56.6642
54.4191
52.1862
49.9657
47.7297
45.5167
43.3065
41.1176
38.965
36.798
34.6397
32.5201
30.4263
28.341
26.2562
24.1988
22.1858
20.1975
18.1992
16.1999
14.2347
12.3123
10.395
8.47756
6.59377
4.73131
2.83588
0.934516
99.5723
100.192
98.3587
93.6944
101.33
98.4854
96.9335
94.2129
90.0485
87.6288
85.1416
82.6551
80.2037
77.753
75.3297
72.9245
70.5527
68.1937
65.8198
63.501
61.2134
58.9268
56.665
54.4279
52.1927
49.9649
47.7364
45.5138
43.3092
41.1298
38.9644
36.7876
34.6336
32.5266
30.4294
28.3355
26.2625
24.2131
22.1878
20.188
18.1916
16.1974
14.234
12.3091
10.3905
8.47941
6.60028
4.73082
2.83991
0.943797
102.584
101.764
96.7725
94.2519
84.2064
96.9861
96.334
93.1207
89.8988
87.537
85.0674
82.6088
80.1743
77.7337
75.2967
72.9207
70.5429
68.1814
65.8405
63.4953
61.2054
58.9228
56.6615
54.4287
52.1924
49.9689
47.7374
45.5106
43.3186
41.1349
38.9593
36.784
34.6371
32.5328
30.4271
28.3249
26.2627
24.2233
22.1926
20.1802
18.1862
16.2029
14.2438
12.3101
10.3885
8.48104
6.59794
4.71985
2.83855
0.94742
106.748
102.157
101.7
96.7419
98.686
99.3776
97.0057
92.9805
89.7755
87.4746
85.0363
82.5979
80.1585
77.7212
75.3017
72.9156
70.515
68.1602
65.828
63.5063
61.1993
58.9158
56.6665
54.4241
52.1936
49.9688
47.7343
45.509
43.3127
41.1332
38.9464
36.7839
34.6571
32.5382
30.4204
28.315
26.2594
24.2275
22.1969
20.1798
18.1848
16.215
14.2605
12.3121
10.3847
8.48251
6.5907
4.70896
2.82796
0.948234
106.255
101.025
112.04
138.591
95.1776
95.7105
95.9429
92.176
89.8951
87.4902
85.0579
82.5996
80.1413
77.7212
75.2995
72.9001
70.5136
68.1586
65.823
63.5082
61.2018
58.919
56.6711
54.414
52.1834
49.964
47.7348
45.5111
43.3102
41.1336
38.9491
36.7908
34.6729
32.545
30.4076
28.2986
26.2411
24.2203
22.1988
20.1784
18.1858
16.2305
14.2799
12.3139
10.3787
8.48564
6.59361
4.69749
2.81344
0.939275
95.4484
102.699
98.0063
94.1819
95.4892
103.013
98.0398
96.9947
100.111
97.6736
98.6321
97.0146
100.347
97.7134
97.8485
98.0722
97.5552
106.369
97.8259
100.928
97.5358
97.821
100.13
97.7912
97.718
97.7866
99.5751
97.7802
98.3821
99.6322
97.8651
98.9815
98.4033
99.5779
97.8714
97.7887
96.0441
96.6603
100.312
97.7727
96.0953
96.6628
96.8131
101.678
96.2513
98.1736
97.0459
98.0796
96.2653
96.1663
96.9875
96.5055
98.4832
96.1641
97.0654
96.4981
97.1539
97.0295
95.8536
97.567
97.1389
97.684
95.8582
95.7988
93.7584
95.3951
95.7378
95.8177
93.1062
95.2864
95.4905
104.007
98.0525
94.2266
95.5045
103.686
98.0565
97.0186
98.9759
97.7082
98.7202
97.0213
98.122
97.7114
97.8665
101.268
97.5837
106.588
97.8455
103.462
97.5246
97.791
99.8851
97.7488
98.3174
97.7712
100.363
97.7667
98.4056
99.5341
97.8344
98.9403
98.3985
100.878
97.8902
97.718
96.0187
96.7233
101.167
97.7554
96.1252
96.6412
97.1696
98.1936
96.2466
98.9318
96.8753
95.7897
96.2364
96.1551
96.7578
96.4968
96.8688
96.1604
96.5335
96.4883
97.1358
97.8672
95.8584
98.6622
97.1354
97.3781
95.8667
95.8209
93.0961
95.469
95.9511
95.8155
93.0707
95.4207
95.5086
103.671
98.0514
95.0014
95.4611
104.952
98.0182
97.0209
96.7437
97.7217
97.8797
97.0019
111.454
97.7192
97.857
98.5975
97.6225
97.6906
97.8556
98.3896
97.6038
97.8613
100.483
97.7403
102.373
97.8619
102.525
97.7525
98.3979
100.208
97.8262
99.0854
98.3864
100.019
97.905
97.7678
96.1541
96.6682
102.53
97.7756
96.2165
96.6498
96.9541
96.1937
96.2788
98.6369
96.7211
96.1064
96.2527
96.1642
96.7044
96.5284
97.5579
96.1743
104.244
96.5037
97.2013
97.6991
95.8703
98.8295
97.1481
97.7274
95.8688
95.814
93.0952
95.4168
95.679
95.7956
93.0617
95.3915
89.0936
92.955
96.4254
86.6013
91.3008
93.544
192.037
96.2071
94.3586
96.1307
93.8592
96.1605
96.2079
94.3214
94.4281
98.709
95.2328
95.6287
94.4384
98.5924
95.2434
94.2648
92.6733
172.187
87.167
136.242
94.7919
137.313
99.0607
96.9335
95.8556
98.9369
96.8336
96.8892
98.9437
95.3792
97.9348
95.2355
97.1905
95.377
97.9308
95.2445
118.506
91.759
149.329
92.5748
121.404
99.0803
115.838
100.179
98.888
102.483
106.862
98.9981
103.697
99.9406
95.2394
97.4097
95.6176
97.7578
95.2432
97.3409
95.5007
94.2061
120.373
105.675
93.9769
93.7608
178.211
106.08
97.4758
98.1573
101.897
99.8454
98.0487
100.899
98.8122
96.0566
97.9132
96.9766
97.6068
95.9702
97.8596
97.0032
99.4438
90.6301
101.764
105.296
99.2369
95.0163
100.967
98.4622
98.6558
100.408
99.7483
98.6915
100.4
98.4916
97.1955
97.72
97.0521
97.8816
97.2299
97.6927
97.0628
129.274
92.6741
94.5415
94.6838
138.132
91.7366
95.9132
97.167
99.145
98.3507
101.117
99.1365
96.5928
97.2122
96.9614
96.979
96.5322
97.3919
96.9911
96.9517
96.5624
95.0865
91.3281
104.078
97.1566
96.4811
100.079
103.514
96.725
97.1459
98.9727
101.321
97.0301
101.127
96.9069
96.2966
96.5173
95.2362
96.9577
96.3324
96.5192
95.1308
92.6533
108.32
126.488
110.823
92.8644
109.5
121.319
95.6359
96.2702
99.6547
99.0619
96.1184
98.1032
95.9057
94.9161
96.5146
94.1611
96.3336
94.787
96.5103
94.1625
109.899
100.799
104.483
99.39
105.269
100.589
104.015
97.9742
97.9916
99.4726
98.7098
97.977
105.62
97.7418
94.1609
96.2934
93.8529
97.0062
94.1662
96.3249
93.8627
93.3299
89.7919
102.746
96.7739
94.5774
88.2455
93.4196
94.7328
95.3572
95.259
95.2387
95.1455
95.0373
94.7729
93.9872
95.5672
94.0462
95.9455
93.9947
95.3255
94.0552
92.5473
97.6124
139.994
87.9399
93.1232
92.3595
130.394
96.0848
94.2613
96.4974
94.1886
96.1427
96.1645
94.3303
94.4377
98.5935
95.2427
95.6143
94.4372
98.6016
95.2421
104.626
87.8063
124.579
107.583
111.719
75.4527
125.41
99.2452
96.7291
95.6842
98.3059
99.3265
96.7371
97.4347
95.3751
97.9399
95.2419
97.1918
95.3747
97.9383
95.2423
120.909
92.3387
115.376
112.417
133.342
90.2882
113.542
109.205
98.7993
109.809
114.658
111.928
99.2112
111.682
95.2396
97.3853
95.4883
97.743
95.2397
97.3562
95.4887
124.158
133.557
105.596
124.754
101.658
133.538
128.042
98.0681
98.0561
102.285
98.1596
97.9985
98.036
103.093
95.9476
97.868
97.0066
97.6137
95.9451
97.8624
97.0109
99.4585
95.296
100.396
116.238
101.602
93.2901
101.919
98.4075
98.5736
100.03
98.9515
98.3959
98.5522
99.868
97.2368
97.7169
97.0567
97.8779
97.2367
97.708
97.0615
157.248
91.2503
95.712
93.4019
104.611
91.9336
95.2182
97.213
99.146
96.4564
101.878
97.1626
99.1214
97.4962
96.9891
96.9557
96.5673
97.4318
96.9603
96.9854
96.5602
97.1655
100.712
105.641
94.108
99.9112
99.5624
111.42
96.6486
96.9362
97.8449
98.3428
96.5943
96.9349
97.784
96.3329
96.5255
95.1206
96.9124
96.3344
96.5274
95.1173
93.0953
110.334
123.504
84.1453
94.908
90.2982
121.875
95.1761
96.1993
98.6036
99.1395
95.3567
96.0674
98.5989
94.7764
96.5074
94.158
96.3158
94.7778
96.5062
94.1574
104.981
125.775
101.313
97.8541
104.693
115.875
98.2065
97.7535
97.8206
100.182
97.986
98.0172
97.8322
102.839
94.1624
96.328
93.8611
97.0063
94.1623
96.3358
93.8611
94.601
90.9786
92.9747
96.8772
94.9302
86.352
90.9574
94.733
95.1641
95.0919
96.3417
94.7402
95.273
95.0873
93.9922
95.44
94.0556
95.9337
93.9919
95.4086
94.0561
93.496
91.2603
129.199
78.3076
98.5063
90.3149
124.584
96.1217
94.3644
97.1707
94.1457
96.1613
99.9535
94.2719
94.4377
98.6093
95.2423
95.7419
94.4276
98.7109
95.2319
145.19
100.895
98.9211
65.0968
101.386
79.2679
99.0187
99.1445
96.6424
97.2338
97.8893
99.1566
96.6658
98.4345
95.3758
97.9335
95.2454
97.2266
95.3775
97.938
95.2366
92.6852
93.5965
104.057
79.4275
92.647
92.0904
104.126
97.6078
99.1226
100.466
97.5659
97.5782
98.4075
98.7171
95.2439
97.3973
95.5
97.7459
95.24
97.4165
95.6154
124.463
134.299
125.816
124.499
121.384
119.439
120.26
98.0938
98.1759
105.064
103.036
98.0893
98.1732
99.5452
95.9635
97.869
97.0041
97.6403
96.0633
97.8809
96.978
102.921
94.037
106.243
115.857
102.562
87.7911
98.2392
98.5798
98.5414
99.666
101
98.5825
98.5359
99.5004
97.2278
97.6928
97.0712
97.8716
97.1959
97.7446
97.0512
92.2086
91.6843
94.9368
93.3334
99.7755
91.6618
95.2907
97.2107
98.6059
96.8058
105.352
97.2567
98.7559
96.6987
96.9664
96.9576
96.5564
97.4224
96.9627
96.9733
96.5316
99.2014
94.5151
99.9007
101.363
99.3462
93.9749
101.181
96.7965
96.9913
98.4411
98.2754
96.7927
96.9725
98.3982
96.3273
96.5382
95.134
96.9275
96.2951
96.5197
95.2255
103.501
90.646
97.3589
82.6486
100.207
94.0701
99.4331
95.7133
96.3578
91.0519
99.1574
95.5761
96.795
91.3505
94.7858
96.5084
94.1617
96.3599
94.9139
96.5106
94.1595
104.955
111.639
98.0089
101.885
130.708
114.762
98.8078
97.714
99.6739
101.134
102.64
98.0404
101.455
99.8619
94.1663
96.3384
93.8629
96.9937
94.1604
96.299
93.8531
95.0536
86.5837
90.9925
96.3817
94.9778
86.0014
91.1291
94.7641
95.2156
95.0726
95.6896
94.7548
95.2284
95.1759
93.9942
95.4254
94.0569
95.9901
93.9865
95.5153
94.048
96.4542
95.0152
96.7556
95.4775
96.773
96.45
95.0162
97.1971
100.655
100.186
101.514
97.2567
100.14
97.2246
96.997
96.5751
99.141
98.0214
96.5636
99.1465
97.0091
96.2026
94.7902
94.2623
96.4034
96.1793
96.1786
94.274
96.4544
95.4946
95.0174
96.7839
96.7992
96.4458
95.0175
97.2522
104.055
97.5237
100.156
97.2993
100.164
97.0612
97.0164
98.0297
96.5944
99.149
96.5915
99.1547
97.0124
98.575
97.0941
98.4871
97.0059
97.0976
98.5014
98.5878
99.0841
98.1126
96.2089
100.723
97.2912
96.7991
98.9045
98.7137
97.8965
98.4531
97.6695
97.9004
98.4982
98.8539
99.2213
98.2905
96.6818
95.4771
96.85
95.3182
99.1433
98.5836
97.0107
97.1031
98.5049
97.1127
98.5024
98.5443
99.0077
99.7614
100.179
96.0783
116.653
95.4436
99.0227
98.7302
97.7347
97.8971
98.4584
97.8992
98.4553
98.7843
97.9923
98.937
97.9805
97.8185
98.8766
97.9586
98.1666
99.7404
126.087
96.7925
98.2474
111.884
96.8264
99.8704
98.296
98.1474
97.4663
97.5391
98.0708
97.4399
98.4641
99.7177
106.718
98.7904
101.564
98.8525
101.79
99.8191
97.9597
97.8594
98.8328
97.94
98.8732
97.9844
97.9426
99.5566
98.737
96.1711
96.9136
112.846
96.8991
99.258
98.2947
97.5383
98.0063
97.4291
98.0562
97.4781
98.2353
97.1602
97.9848
97.6144
97.7848
97.9604
97.6247
97.0904
100.865
106.311
98.545
100.736
101.591
98.544
100.268
97.9895
97.9333
98.2746
97.7779
97.9249
98.2675
97.9972
97.6922
97.4641
98.0585
101.462
98.0557
100.55
98.2419
97.1301
97.7979
97.986
97.6238
97.9864
97.6352
97.3932
99.0418
99.3457
100.232
98.5063
100.499
98.5222
98.5151
97.9682
97.7748
97.9046
98.2642
97.9289
98.2594
97.9423
98.4151
98.512
98.0569
98.3814
98.5054
98.0345
98.4066
99.0474
99.424
98.7155
99.6149
99.4169
98.6783
99.0499
98.5548
98.2989
98.2467
97.8428
98.2976
98.2551
98.5982
98.4569
98.8601
98.5876
100.35
98.59
100.439
98.4229
98.4275
98.4519
98.4961
98.0294
98.5182
98.0345
98.3171
99.0033
99.6032
99.3772
98.646
99.3956
98.7381
98.9916
98.5357
97.8763
98.2838
98.2187
98.4041
98.2104
98.5809
97.2923
98.1366
97.181
97.7506
98.1423
97.1766
97.3054
96.5746
95.9625
96.4629
96.0576
95.9289
96.4233
96.642
96.8756
97.0104
96.6898
96.6674
96.9525
96.6901
96.8854
97.1314
100.791
99.1337
96.5062
99.1371
96.5365
97.2648
97.2904
97.7475
98.1433
97.1875
98.1412
97.1829
97.3163
96.6022
96.1066
95.9421
96.4092
95.9321
96.4039
96.6105
96.8739
96.6951
96.976
96.6946
96.9433
96.6991
96.8693
96.4433
96.8267
96.4518
96.9446
96.7997
96.4569
96.4784
95.9209
105.819
97.1492
103.889
96.6349
97.3274
95.6454
96.5409
96.307
97.0119
96.2614
96.3349
97.0098
96.4958
96.7245
98.0715
96.9186
97.8274
96.924
98.1083
96.6924
96.4526
96.8646
96.8004
96.4283
96.9072
96.4307
96.4741
95.7576
103.075
96.437
96.952
97.7667
96.7202
95.2599
96.5741
96.2839
96.3307
97.011
96.4272
97.014
96.3758
95.9417
96.6252
95.9755
96.1665
96.5846
95.9786
96.0029
96.1544
91.0011
97.9124
96.9984
90.8551
97.91
96.0895
96.7272
96.4887
96.967
96.5065
96.4785
96.9805
96.7163
95.6117
97.5703
96.1963
105.45
96.3084
95.9922
95.5535
95.9181
96.1698
96.5904
95.9541
96.5813
95.9588
95.92
96.0037
97.0103
90.8563
97.9115
91.0646
97.9062
96.0178
96.7406
96.5395
96.4799
96.9479
96.4876
96.9641
96.6882
96.9303
97.4538
96.6033
97.1335
97.4578
96.6018
96.9339
102.887
100.907
96.2386
97.9055
98.24
96.4186
99.4792
97.9951
96.5067
96.4142
95.8598
96.5066
96.4051
97.1505
97.7411
99.5408
97.941
99.7299
97.9724
99.6502
97.5014
96.9356
97.2264
97.4762
96.605
97.4608
96.6059
96.9321
98.3191
99.9303
98.6604
96.2015
100.696
96.1232
99.2765
96.6854
95.8599
96.4885
96.415
96.4952
96.4263
96.7492
95.2262
95.5952
95.2808
95.8089
95.5968
95.2745
95.2239
93.8794
92.9128
94.3374
94.45
92.8384
93.9919
94.1847
94.77
95.1457
94.908
95.3798
95.1273
94.768
94.9042
94.7398
95.7465
95.1235
95.1069
95.1403
95.0861
94.7422
95.2312
95.8147
95.545
95.2863
95.5735
95.2785
95.2274
93.8821
93.4543
92.9287
94.0778
93.1977
93.8039
94.1381
94.7749
95.6061
95.1748
94.8833
95.1629
94.7693
94.9335
96.4378
95.0178
96.7858
95.4997
96.439
96.8071
95.0209
97.3825
114.933
100.184
104.024
97.178
113.009
100.166
97.031
96.6168
99.1408
98.0569
97.0125
96.6219
99.1479
96.0409
94.1804
94.3392
95.591
95.6541
96.0222
94.3063
96.4398
95.5024
95.0222
96.8447
96.8361
96.4426
95.0211
97.2484
110.566
111.993
100.094
111.493
100.135
97.0455
97.0558
98.0589
96.6208
99.1778
96.6174
99.158
97.0749
98.5799
97.1136
98.5079
97.0197
98.5516
97.122
98.5121
99.0928
100.663
95.6546
98.6965
98.9357
100.635
95.7323
98.7669
97.8921
98.4773
97.7066
98.7538
97.8875
98.4826
99.2502
99.0896
96.6758
96.5521
96.7339
96.6713
99.1942
98.6043
97.0206
97.1423
98.5188
97.1319
98.5165
98.641
99.059
100.944
101.541
95.6323
100.862
95.7377
98.3759
98.7418
97.7165
97.8774
98.4984
97.8836
98.4806
98.7468
97.8004
98.8533
97.9516
97.8253
97.8816
98.8258
98.0198
100.279
96.1837
96.8966
99.0324
99.2895
96.5334
97.236
98.297
98.1148
97.422
97.5582
98.278
98.0629
97.4325
100.823
102.402
98.8952
100.434
98.939
95.7048
97.2774
97.7539
97.8468
98.7175
97.9543
98.7553
97.9565
98.1931
99.2337
98.9479
117.181
96.8856
94.9263
96.856
99.0952
98.3121
97.5831
98.0686
97.4388
98.0176
97.4315
98.3104
97.4306
97.9682
97.6228
97.7883
97.3376
97.9756
97.629
99.0839
100.365
98.4781
100.791
98.9563
100.712
98.4358
98.13
97.9013
98.2516
97.7628
97.9999
97.9325
98.2205
98.2258
98.5339
98.1335
102.391
98.0824
101.853
97.7165
97.5574
97.8225
97.9716
97.5767
97.9616
97.6023
97.0542
98.4126
100.615
103.116
98.3384
101.705
98.3469
97.5362
97.9108
97.7637
97.8848
98.2133
97.8949
98.2147
98.0199
98.2995
98.5035
98.0341
98.3873
98.3125
98.4842
98.0278
99.0004
99.3692
98.6334
99.4941
99.0043
99.2687
98.6573
98.5299
98.3032
98.2069
97.8281
98.5331
98.2944
98.207
98.3893
98.8968
98.4952
99.7505
98.5093
99.8787
98.4191
98.2906
98.4185
98.4954
98.036
98.492
98.0422
98.2785
98.9846
99.2664
98.9378
98.6533
100.513
98.6522
98.9869
98.5583
97.8927
98.2716
98.2085
98.3187
98.212
98.5244
97.3195
98.1574
97.1797
97.769
97.2941
98.149
97.1797
96.6388
95.9733
96.4073
96.2508
96.6287
95.911
96.434
96.8739
96.9496
96.6926
96.713
96.8851
96.9603
96.6965
97.1649
101.754
99.2533
96.5469
99.2335
96.3777
97.167
97.2963
97.7557
98.1448
97.2121
98.1846
97.1763
97.2971
96.6477
96.6019
95.9189
96.4539
96.0592
96.4183
96.642
96.8859
96.6451
96.9747
96.69
96.9316
96.6995
96.8748
96.5021
96.8075
96.5388
97.0031
96.4933
96.7766
96.5115
95.6465
96.8218
96.7228
96.641
95.3584
96.337
96.7912
96.2945
96.3339
97.0047
96.237
96.2575
96.2856
97.0075
96.6973
100.788
96.9602
98.3164
96.9385
98.1679
96.7527
96.519
96.8585
96.7226
96.4133
96.9094
96.4206
96.5407
95.5039
97.4659
95.8408
96.8665
96.499
96.8396
95.576
96.2644
96.2654
96.3091
97.0062
96.346
97.0059
96.2389
95.8628
96.6059
95.9642
96.1748
95.9067
96.5768
95.9648
96.4901
91.2533
98.1684
96.7235
95.9906
93.1929
97.8398
96.6621
96.4796
96.9711
96.5196
96.6688
96.4836
96.9608
95.5051
111.002
96.0453
110.519
96.0728
98.7858
95.5294
95.8238
96.1646
96.5216
95.9654
96.5532
95.9658
95.7966
95.8168
96.7171
91.4425
97.7679
91.0113
97.6897
95.7955
96.6498
96.5054
96.4844
96.9561
96.4934
96.9585
96.6353
96.9287
97.4355
96.6091
97.1564
96.9342
97.4359
96.6112
96.6446
100.764
96.1183
101.461
96.9254
98.0672
95.7927
96.505
96.4911
96.3969
95.8609
97.3463
96.4608
96.459
98.0457
98.2757
98.4048
100.941
97.9693
102.259
98.2309
96.931
97.1509
97.5534
96.614
97.4435
96.6136
96.9413
98.0663
97.0972
97.9408
96.6992
98.572
98.4316
99.6699
96.8283
95.8645
96.4927
96.4781
96.4506
96.4963
95.7062
95.2267
95.5545
95.2958
95.8197
95.2302
95.5711
95.3032
93.7305
92.9105
94.1037
93.0985
93.8068
92.8799
94.1499
94.7716
95.1797
94.8941
95.472
94.766
95.1929
94.8986
94.7325
95.9837
95.2316
95.0061
95.1951
95.1064
94.7436
95.227
95.8176
95.5375
95.3009
95.5663
95.3029
95.227
94.5576
93.1032
92.9054
94.0986
92.8882
94.2424
94.0786
94.7678
95.4084
95.2008
94.8928
95.1936
94.7692
94.8873
96.4347
95.0243
96.8626
95.4995
96.4376
96.8474
95.0267
98.339
111.965
100.036
103.765
97.0758
112.293
99.8935
97.0702
96.639
99.1914
98.0453
97.0764
96.6352
99.1977
96.1339
93.7731
94.1193
92.724
93.4252
96.3117
94.1967
96.433
95.4778
95.0266
96.7675
96.7971
96.4343
95.0288
97.5018
105.435
106.836
99.8944
112.886
99.8698
97.5287
97.0715
98.0369
96.5915
99.2033
96.5878
99.2017
97.0872
98.6725
97.149
98.5195
97.0189
98.6529
97.1526
98.5187
97.7597
103.169
95.7967
117.019
98.1711
93.7332
95.8663
98.7507
97.8712
98.5329
97.7181
98.7323
97.867
98.5705
99.5678
97.9051
96.8284
97.327
96.7203
97.0635
99.7339
98.6886
97.0158
97.1847
98.5
97.1542
98.5161
98.7542
97.4726
107.684
94.76
96.1559
94.255
96.2104
97.4886
98.7362
97.7184
97.8632
98.6584
97.8667
98.6235
98.8299
97.8078
98.6874
97.9937
97.8321
97.808
98.6912
97.9709
99.0963
105.982
96.9194
98.543
99.0721
105.511
96.9345
98.3708
98.1846
97.442
97.5328
98.3275
98.1242
97.4539
97.5117
97.8361
98.6416
98.5859
98.3434
98.8781
97.8103
97.655
97.8336
98.694
98.0221
98.7027
98.0432
97.8187
99.1268
98.3047
107.273
96.976
110.203
96.9354
99.0536
98.3189
97.5311
98.1083
97.466
98.114
97.4621
98.3115
97.2382
98.1149
97.5944
97.7907
97.2239
98.092
97.5829
97.3526
100.239
98.2329
100.624
97.7112
100.601
98.1653
98.0101
97.9492
98.2158
97.7648
98.0054
97.8937
98.1923
97.501
100.292
99.1854
97.4743
98.1954
97.2645
97.4213
97.2882
97.7896
98.0437
97.5905
98.0464
97.6002
97.6438
97.235
103.076
101.518
98.5751
100.322
97.9288
97.5484
97.9744
97.7501
97.8944
98.1676
97.8941
98.1645
98.0108
98.2824
98.5005
98.0475
98.3572
98.2792
98.5265
98.0449
99.0004
98.9564
98.6689
99.3833
98.9761
99.0264
98.6708
98.6039
98.2771
98.2345
97.8303
98.5532
98.2735
98.2246
98.4268
99.1645
98.4059
99.6163
98.4289
99.3971
98.5221
98.2832
98.3707
98.4776
98.0489
98.497
98.0495
98.3079
99.0398
99.7502
99.0917
98.6901
99.0751
98.6745
99.0143
98.6163
97.8819
98.2703
98.2206
98.2636
98.2203
98.6053
97.3073
98.1258
97.1788
97.7684
97.3029
98.1176
97.1796
96.6107
95.9733
96.423
96.1869
96.6253
95.909
96.4099
96.8656
96.958
96.6911
96.6564
96.8763
96.9672
96.6843
97.2362
101.259
98.7799
97.4837
98.7689
96.9317
97.2018
97.3048
97.7783
98.1305
97.1836
98.1177
97.1846
97.3066
96.582
96.2218
95.9378
96.4867
95.8961
96.3953
96.657
96.8673
96.651
96.9994
96.682
96.9592
96.6822
96.9394
96.5581
96.759
96.5021
96.853
96.5595
96.8079
96.4941
95.6827
97.3862
96.847
96.0428
95.6619
96.1635
96.8528
96.275
96.3056
96.9988
96.2626
96.2755
96.2996
96.9964
96.7972
98.1803
97.0622
98.4289
96.972
98.4097
96.7941
96.5676
96.8729
96.7691
96.4483
96.7904
96.4485
96.5683
95.6971
96.146
96.2328
96.7972
96.2034
96.8119
95.6857
96.284
96.2432
96.3404
96.9962
96.3075
96.9926
96.3564
95.7782
96.4992
95.9775
96.1805
95.783
96.4741
95.9628
95.8272
92.1745
97.4944
105.495
95.8245
92.2943
97.6859
96.6507
96.4945
96.9164
96.5057
96.6338
96.4872
96.9264
95.3289
103.444
96.2315
95.4141