/*--------------------------------*- C++ -*----------------------------------*\
| =========                 |                                                 |
| \\      /  F ield         | OpenFOAM: The Open Source CFD Toolbox           |
|  \\    /   O peration     | Version:  5.0                                   |
|   \\  /    A nd           | Web:      www.OpenFOAM.org                      |
|    \\/     M anipulation  |                                                 |
\*---------------------------------------------------------------------------*/
FoamFile
{
    version     2.0;
    format      ascii;
    class       surfaceScalarField;
    location    "3.7";
    object      phi;
}
// * * * * * * * * * * * * * * * * * * * * * * * * * * * * * * * * * * * * * //

dimensions      [0 3 -1 0 0 0 0];

internalField   nonuniform List<scalar> 
26428
(
-7.0287e-09
-4.16522e-09
9.64313e-09
-1.41744e-09
2.61988e-11
-9.40129e-12
-5.28914e-08
4.98475e-08
6.09921e-08
-5.91712e-08
-2.38919e-09
-1.97352e-09
-4.04699e-09
4.66302e-09
6.77472e-10
1.95356e-09
-4.48416e-10
-2.51841e-09
2.79147e-10
-1.8606e-10
1.77864e-09
-3.37442e-09
1.27444e-10
5.58784e-10
-6.97304e-10
-7.4633e-10
-1.19471e-10
-1.19416e-11
9.4683e-11
3.19077e-11
1.5369e-09
-9.94107e-12
-3.17464e-11
-2.75216e-10
-3.01191e-10
-4.5972e-10
-5.08595e-10
-1.4853e-11
-7.62834e-12
-1.84347e-11
1.46327e-09
3.19794e-11
-3.08399e-12
1.43639e-09
3.73037e-12
-2.69696e-13
1.4193e-09
4.15864e-12
-4.772e-13
1.41072e-09
1.82937e-12
3.35682e-14
1.4055e-09
9.01618e-13
4.80291e-14
1.40198e-09
4.26973e-13
-1.0875e-12
1.40049e-09
2.00909e-13
-8.62243e-14
1.39862e-09
2.20351e-12
-1.17308e-12
1.39821e-09
-1.41622e-13
-7.72198e-14
1.3981e-09
-1.36871e-14
-1.49525e-14
1.39759e-09
-1.06419e-12
1.55046e-12
1.39772e-09
-1.79532e-13
-5.16395e-13
1.39796e-09
-1.07829e-13
5.95414e-13
1.39752e-09
1.12653e-13
-2.78241e-15
1.39833e-09
-1.38152e-12
1.08125e-13
1.39834e-09
-1.47119e-13
3.39464e-14
1.39852e-09
-2.40375e-13
1.28253e-14
1.39828e-09
1.05625e-13
-5.11274e-13
1.39826e-09
1.37097e-13
-9.66801e-14
1.39841e-09
-3.46192e-14
-1.40394e-14
1.39847e-09
-2.38121e-13
-9.38054e-13
1.39875e-09
2.54028e-13
1.67159e-13
1.39815e-09
-8.56432e-13
3.8263e-12
1.39862e-09
-7.73434e-13
2.87642e-12
1.39838e-09
-1.55431e-13
1.7173e-13
1.39974e-09
-2.55508e-12
1.25666e-12
1.39921e-09
3.17171e-13
-9.69887e-14
1.39907e-09
9.39516e-14
2.45004e-13
1.39871e-09
1.61501e-13
-2.04605e-14
1.39843e-09
8.44582e-13
-7.35298e-13
1.40067e-09
-3.80283e-12
9.88076e-13
1.39984e-09
5.90727e-13
4.39603e-14
1.39979e-09
1.67887e-13
-4.02106e-16
1.39972e-09
1.00882e-13
1.80202e-14
1.40067e-09
-1.9595e-13
3.06967e-12
1.39928e-09
3.41191e-12
-1.63171e-12
1.39931e-09
-3.03989e-13
1.03023e-13
1.39944e-09
4.8663e-13
-6.25335e-13
1.4005e-09
-9.83501e-13
-2.65816e-13
1.40017e-09
2.44954e-13
1.33297e-13
1.39959e-09
-4.4037e-13
8.30004e-13
1.32131e-12
-1.17147e-12
1.87876e-09
4.82494e-09
1.07253e-09
-7.58525e-09
-5.60231e-09
-2.99945e-10
4.20891e-09
1.73337e-09
-4.00239e-11
3.03834e-09
1.54315e-09
4.42803e-09
-1.01193e-08
1.10978e-09
2.1756e-09
9.72507e-09
-4.46599e-09
2.78552e-09
-2.54798e-09
-2.28136e-09
-1.13456e-09
-3.18797e-10
-8.43641e-10
-2.24163e-09
-8.5222e-10
-4.63056e-09
-6.12184e-09
3.90537e-10
5.85259e-09
-6.0289e-08
4.28223e-09
5.66862e-08
-8.80501e-12
1.87791e-09
2.52735e-09
-5.67286e-10
-7.87496e-10
-8.39744e-11
9.19286e-11
-1.65249e-10
9.44791e-10
-1.12177e-10
6.3258e-12
-1.7012e-11
6.44405e-11
5.84232e-11
-2.33808e-10
2.26106e-10
4.47619e-12
-6.71503e-12
1.4449e-09
5.03076e-11
-2.82495e-11
-2.68622e-10
-2.69558e-10
-4.49102e-10
-4.47693e-10
1.42649e-09
2.46375e-11
-2.46491e-12
1.41509e-09
1.52476e-11
3.60618e-13
1.40819e-09
8.9493e-12
-1.57093e-13
1.40381e-09
5.41217e-12
-7.90625e-14
1.40114e-09
3.22229e-12
-6.36301e-14
1.39943e-09
2.00315e-12
-2.98374e-14
1.39914e-09
1.45159e-12
1.10375e-12
1.39831e-09
8.10182e-13
-6.21116e-14
1.39733e-09
1.12408e-12
-9.28225e-14
1.39822e-09
-5.93485e-13
-1.28707e-12
1.39775e-09
3.72586e-13
-1.70487e-14
1.39812e-09
2.81176e-14
-4.35813e-13
1.39808e-09
2.70824e-13
-5.05486e-14
1.39775e-09
-6.06654e-13
-3.72671e-13
1.39811e-09
-1.0394e-12
6.02162e-13
1.39821e-09
9.65114e-14
-3.60571e-13
1.39834e-09
1.1856e-13
-6.94321e-14
1.39853e-09
6.53809e-14
-3.30003e-14
1.39864e-09
1.11434e-13
-1.79681e-13
1.39794e-09
-1.09759e-12
1.63265e-12
1.39783e-09
4.71202e-13
-3.2623e-14
1.39842e-09
2.09977e-13
-1.5753e-12
1.39879e-09
5.40009e-13
-1.6092e-12
1.40012e-09
-3.48e-12
2.06541e-12
1.39973e-09
-3.2208e-12
1.13372e-12
1.39885e-09
1.2826e-12
-1.86267e-14
1.39931e-09
-1.40149e-13
-1.62508e-13
1.39994e-09
-2.992e-13
-9.64573e-14
1.40028e-09
1.39761e-13
4.2315e-13
1.39837e-09
-1.01435e-12
-8.17548e-13
1.39895e-09
3.59897e-13
-2.96062e-13
1.39933e-09
-6.94127e-14
-9.35912e-14
1.39927e-09
3.54053e-13
-1.4793e-13
1.39894e-09
1.42447e-13
3.5275e-14
1.40049e-09
4.11092e-13
1.49178e-12
1.40018e-09
2.44717e-13
-2.05219e-13
1.39997e-09
6.82508e-14
6.47948e-13
1.39968e-09
-1.65371e-12
9.88345e-13
1.3996e-09
3.85156e-13
-4.83051e-14
1.39996e-09
1.59175e-13
-9.45094e-13
-1.72481e-13
1.22946e-12
-2.11692e-09
-7.30924e-09
9.5276e-09
8.95227e-11
2.62335e-09
-6.13872e-09
2.47191e-09
6.21954e-10
6.69621e-10
1.75797e-09
-1.76372e-09
-1.05019e-07
1.15223e-08
2.72057e-08
6.60467e-08
-3.52023e-09
-3.09869e-09
-8.72935e-11
6.22165e-09
4.84559e-10
-3.66627e-09
4.3534e-09
9.5982e-09
-3.8745e-09
-1.20941e-09
-1.1083e-09
-1.33966e-09
-1.92016e-09
4.1035e-10
-1.50279e-09
2.59155e-10
1.81181e-09
2.27583e-09
-3.58631e-10
-2.48575e-09
-1.24326e-09
1.35182e-12
-1.08431e-09
1.08244e-09
-4.35971e-10
4.36487e-10
-6.53511e-11
-8.07572e-11
-3.80184e-12
9.51403e-11
5.47698e-11
-3.55119e-11
2.13704e-10
1.31025e-11
-7.50665e-12
-3.70488e-11
-6.64203e-11
-6.98805e-11
-1.04388e-11
1.40814e-09
4.53987e-11
-2.59358e-11
-2.63737e-10
-2.56522e-10
-4.36511e-10
-4.20509e-10
1.40665e-09
2.88209e-11
-2.63333e-12
1.40363e-09
1.79152e-11
4.2691e-13
1.40162e-09
1.11759e-11
-1.45785e-13
1.40014e-09
6.97705e-12
-1.62891e-14
1.39904e-09
4.4246e-12
-4.39441e-14
1.39829e-09
2.82724e-12
-1.87554e-14
1.39798e-09
1.88451e-12
-5.56232e-14
1.39765e-09
1.11939e-12
8.44488e-14
1.3983e-09
-1.62779e-12
2.17376e-12
1.39772e-09
4.30981e-13
-3.81136e-13
1.39797e-09
2.34603e-13
-4.16705e-14
1.39776e-09
2.7277e-13
3.33281e-14
1.39813e-09
7.82452e-14
-1.01292e-13
1.39775e-09
3.04199e-13
-4.56254e-13
1.39735e-09
-9.68035e-14
-4.75506e-13
1.39772e-09
-1.89112e-13
-7.81391e-15
1.39802e-09
-1.1408e-13
1.30546e-14
1.39797e-09
2.69315e-13
-8.64026e-14
1.39777e-09
-1.67238e-14
4.11136e-13
1.39836e-09
7.97405e-13
-2.41016e-12
1.39955e-09
1.23582e-12
-1.87997e-12
1.39923e-09
5.72363e-13
3.90247e-14
1.40016e-09
7.8361e-13
-1.1005e-12
1.39879e-09
2.3736e-14
-2.05802e-12
1.3983e-09
5.90529e-14
-2.72358e-12
1.3995e-09
2.20712e-13
-6.18496e-14
1.39958e-09
-1.81147e-13
2.84673e-14
1.39946e-09
-5.7866e-14
-5.71713e-14
1.3995e-09
-1.28895e-13
2.93633e-13
1.3993e-09
-3.98065e-13
-3.62094e-13
1.39906e-09
1.09259e-12
-4.42455e-13
1.39897e-09
-1.83615e-13
2.5872e-13
1.39898e-09
-2.35078e-13
6.25552e-13
1.39977e-09
-1.66192e-12
1.05886e-12
1.4003e-09
6.45803e-13
-7.25395e-13
1.4003e-09
-9.34902e-15
2.84717e-13
1.40029e-09
-2.85844e-14
1.32251e-13
1.39963e-09
-5.64649e-14
-9.15114e-13
1.39951e-09
5.49703e-13
-2.89782e-14
1.39937e-09
2.47759e-13
6.3235e-14
-1.60725e-12
7.12354e-13
2.22652e-09
1.38717e-09
-3.01131e-09
-4.1141e-10
2.59929e-10
1.15754e-09
-3.146e-10
1.30911e-10
-1.23378e-09
7.05295e-10
-1.94367e-09
3.19653e-09
-6.39889e-11
-1.89416e-09
2.03726e-09
1.45156e-09
6.19251e-10
-1.97201e-09
-2.22775e-09
8.00171e-10
5.61748e-10
-1.27017e-09
9.80081e-10
-1.14576e-09
-8.62891e-11
1.07803e-10
1.4415e-10
-2.2005e-10
-9.91362e-10
1.35466e-09
5.50404e-10
-6.93649e-10
-1.43929e-10
-8.1454e-11
8.1873e-11
4.4492e-11
9.90182e-11
-4.05153e-11
-1.85927e-13
-2.1027e-15
1.41264e-11
2.65769e-11
1.37527e-09
2.84876e-11
-2.57454e-11
-2.57462e-10
-2.449e-10
-4.30035e-10
-4.00185e-10
1.38804e-09
1.82894e-11
-2.15321e-12
1.39208e-09
1.34084e-11
5.51319e-13
1.39445e-09
8.96908e-12
-8.9319e-14
1.39554e-09
5.92791e-12
2.73146e-14
1.39621e-09
3.83981e-12
-2.12621e-14
1.39662e-09
2.50324e-12
-1.91389e-14
1.39693e-09
1.67742e-12
-3.00405e-14
1.39718e-09
1.02597e-12
-8.6443e-14
1.39712e-09
5.19153e-13
-2.02387e-12
1.39731e-09
-4.34895e-13
7.44003e-13
1.39763e-09
-6.24417e-14
5.04273e-14
1.39776e-09
-3.16893e-14
2.4259e-13
1.39786e-09
5.38965e-14
-1.17614e-14
1.39784e-09
-9.96491e-14
4.98225e-13
1.39816e-09
2.41324e-13
-5.8107e-13
1.39793e-09
5.49816e-14
5.68993e-14
1.39802e-09
-2.16132e-14
-1.02628e-13
1.39823e-09
7.49639e-14
6.31799e-14
1.39868e-09
9.15123e-13
-1.30474e-12
1.39931e-09
1.20071e-12
-9.6146e-13
1.39854e-09
1.74453e-13
1.90791e-12
1.39875e-09
5.2259e-13
-8.03493e-14
1.39856e-09
-1.07685e-12
2.12421e-12
1.3988e-09
-1.37491e-13
-8.48334e-16
1.39899e-09
3.99369e-14
-1.03438e-13
1.39919e-09
3.77076e-13
-2.89551e-13
1.39916e-09
-6.93895e-14
-9.5312e-15
1.39948e-09
-2.71371e-13
-3.81203e-14
1.39964e-09
-7.01696e-14
-1.66524e-13
1.39946e-09
-7.48965e-13
5.97859e-13
1.39901e-09
2.1005e-12
-5.04393e-13
1.39959e-09
-4.60554e-13
-2.52592e-13
1.4002e-09
-9.82306e-13
1.85756e-13
1.39971e-09
-1.57109e-13
-9.73211e-13
1.39953e-09
-4.26152e-15
8.65439e-13
1.39998e-09
-4.11842e-14
-3.87352e-13
1.40022e-09
-7.33054e-14
-1.62697e-13
1.40017e-09
1.34591e-12
-1.33077e-12
1.39905e-09
1.64409e-12
3.60196e-14
1.39933e-09
-1.00882e-14
-2.56001e-15
-1.9689e-12
5.20468e-13
1.45141e-09
7.85713e-09
6.31381e-10
-3.3405e-09
3.13921e-09
-6.96877e-09
-1.92903e-10
-1.03546e-09
3.50147e-11
-1.87631e-10
2.13251e-09
7.92641e-09
-7.3731e-10
-1.82328e-09
-8.24858e-10
-2.19416e-09
-1.19507e-09
-6.76959e-10
-5.27716e-10
-6.28186e-10
1.24428e-10
1.1189e-09
5.6252e-10
1.01058e-09
-2.81644e-09
1.81207e-09
9.87692e-10
3.17293e-09
-8.55888e-09
2.58619e-09
-1.01024e-09
4.02096e-09
9.72189e-10
8.95074e-11
-4.07241e-09
1.86013e-10
-6.36443e-10
2.46582e-10
1.95178e-10
8.66943e-12
-1.401e-10
-7.79852e-11
1.79632e-10
7.75763e-11
1.15811e-10
-1.65942e-10
1.5074e-10
-1.46233e-10
-5.75735e-11
-1.0435e-10
1.51757e-11
4.7532e-11
6.40863e-11
4.16308e-11
-1.37316e-10
5.51644e-12
-4.22396e-12
9.97257e-11
3.62975e-11
1.37476e-09
2.05345e-11
-2.23735e-11
-2.5506e-10
-2.55262e-10
-4.15835e-10
-4.18243e-10
1.38175e-09
1.36369e-11
-2.23393e-12
1.38607e-09
8.68704e-12
4.93569e-13
1.3899e-09
5.29262e-12
-6.50306e-14
1.39245e-09
3.74823e-12
-2.96092e-13
1.39428e-09
2.11773e-12
-4.42896e-14
1.3953e-09
2.02138e-12
-4.70446e-13
1.39586e-09
1.907e-12
-7.13998e-13
1.39644e-09
4.50293e-13
5.83691e-14
1.39669e-09
4.71922e-13
-1.32045e-13
1.39611e-09
4.66986e-13
-2.53168e-13
1.39812e-09
-2.5403e-12
5.41142e-13
1.39763e-09
4.61866e-13
6.18488e-14
1.3981e-09
-4.496e-13
1.02285e-13
1.39794e-09
2.25743e-13
-8.45582e-14
1.398e-09
-8.29655e-14
3.31588e-13
1.39826e-09
-1.82325e-13
5.67533e-14
1.39853e-09
-2.44578e-13
3.25131e-14
1.39875e-09
-1.94542e-14
-5.15122e-14
1.39865e-09
8.91317e-14
1.00332e-12
1.39827e-09
3.0129e-13
1.35441e-12
1.39837e-09
5.05505e-13
-3.58922e-13
1.39917e-09
1.45932e-13
-3.42364e-13
1.3985e-09
-6.09905e-13
2.78563e-13
1.39863e-09
-3.1161e-14
-1.69009e-13
1.39895e-09
-1.45503e-13
-5.90965e-14
1.39896e-09
2.536e-13
1.85988e-13
1.39899e-09
-3.443e-14
-8.84824e-16
1.399e-09
-1.35711e-13
-7.54047e-14
1.39877e-09
3.0226e-13
-7.89305e-14
1.39881e-09
-2.3445e-13
-5.00004e-13
1.39986e-09
-8.68296e-15
1.11733e-12
1.39967e-09
-4.78018e-13
2.54434e-13
1.39976e-09
-2.18483e-12
1.16051e-12
1.40006e-09
5.0632e-13
-9.23072e-13
1.40009e-09
1.00006e-13
-9.61676e-14
1.40011e-09
-1.18052e-13
8.78851e-14
1.40052e-09
-4.88036e-13
3.1316e-14
1.40052e-09
-1.37755e-12
2.75003e-12
1.39908e-09
3.29501e-12
-1.98256e-13
1.39939e-09
-8.69601e-13
5.66782e-13
-1.66703e-13
-9.63533e-13
-4.75775e-09
4.4828e-10
1.6036e-08
-2.73193e-09
-3.60596e-09
-2.0834e-10
1.20429e-09
8.53068e-10
2.00832e-09
4.09983e-10
4.15489e-10
-8.72429e-09
3.14106e-09
6.31747e-10
-1.34339e-10
5.47981e-10
-2.56551e-09
1.52014e-09
1.54653e-09
5.97138e-10
2.76522e-11
7.71438e-10
-2.94276e-09
1.10895e-10
4.01123e-10
5.38779e-11
-8.58041e-10
2.92146e-10
2.27693e-11
-1.21242e-09
-1.68274e-12
3.46438e-10
8.44897e-10
-7.80833e-11
-9.14595e-11
1.27708e-10
5.1332e-11
-6.24501e-11
-2.03936e-10
-1.12621e-10
6.80449e-11
9.75081e-11
1.29708e-10
7.4248e-11
-1.33855e-10
-1.02019e-12
4.89353e-12
8.0587e-11
4.93942e-11
1.36028e-09
3.74622e-12
-2.22534e-11
-2.51555e-10
-2.48897e-10
-4.12707e-10
-4.08041e-10
1.37357e-09
3.65262e-12
-3.199e-12
1.38113e-09
7.21959e-13
4.97655e-13
1.38652e-09
1.11419e-13
-1.23178e-13
1.39024e-09
-1.13216e-13
2.11367e-13
1.39257e-09
-1.76097e-13
3.99224e-14
1.39435e-09
-1.22036e-13
4.34035e-13
1.39576e-09
-1.27192e-13
6.92933e-13
1.39658e-09
-1.95289e-13
-1.05661e-13
1.39693e-09
5.65113e-13
-3.73145e-13
1.39773e-09
-5.53643e-14
-2.1024e-13
1.39616e-09
-6.86162e-14
-8.36944e-13
1.39782e-09
-5.48504e-12
4.35515e-12
1.39765e-09
-7.4441e-14
-1.27639e-13
1.39787e-09
-1.2695e-15
7.61184e-14
1.39775e-09
1.63369e-13
-4.76062e-14
1.3979e-09
-9.82425e-14
-1.59108e-13
1.39865e-09
7.49106e-13
-1.67272e-12
1.39876e-09
-3.04049e-14
-2.07208e-14
1.399e-09
8.58752e-14
-1.56848e-13
1.39912e-09
3.87287e-13
-1.3187e-13
1.39766e-09
4.84577e-12
-2.80197e-12
1.39777e-09
-9.68126e-13
1.07981e-12
1.39897e-09
-2.72703e-13
-1.46529e-12
1.39891e-09
1.1325e-13
-1.20056e-14
1.3989e-09
2.38912e-13
-3.01541e-13
1.3989e-09
1.01539e-12
-6.91166e-13
1.39905e-09
-3.5308e-14
-8.32621e-14
1.39912e-09
-1.97953e-13
6.23297e-14
1.39924e-09
4.84594e-14
1.9594e-13
1.39905e-09
-5.56418e-13
5.70898e-13
1.40008e-09
-7.90195e-13
-1.99918e-13
1.40018e-09
-4.84019e-13
-4.14601e-14
1.39969e-09
4.32101e-14
-1.69465e-12
1.39938e-09
-4.30895e-15
8.68438e-13
1.39957e-09
-2.26635e-16
-5.91165e-14
1.39933e-09
-3.1654e-15
1.62096e-13
1.39908e-09
-1.08764e-13
-9.8418e-14
1.39905e-09
1.29582e-12
-2.62001e-12
1.40106e-09
1.14959e-12
1.46118e-13
1.40078e-09
-4.79749e-13
-9.13695e-14
-8.49988e-13
2.00051e-12
1.61548e-09
-1.15592e-09
1.79691e-10
-6.21896e-10
-9.06389e-10
-1.80602e-09
-7.45757e-10
4.08007e-09
1.50643e-09
-2.21907e-10
-8.586e-10
-4.7189e-10
4.59642e-11
3.28865e-10
-5.79421e-10
-1.75791e-09
-2.51074e-09
4.50327e-09
-1.25577e-10
1.37563e-10
3.94586e-12
8.92872e-10
-2.07602e-09
1.1736e-09
6.78065e-09
-2.86021e-08
4.24531e-08
-4.30292e-08
2.24075e-08
1.10374e-11
-9.30794e-11
7.53242e-10
4.92103e-10
-1.1633e-09
3.06232e-11
-4.02605e-11
2.01824e-11
-6.38315e-11
5.32867e-11
-1.10502e-10
-6.97863e-12
3.8979e-12
8.36328e-11
2.99503e-11
1.34494e-09
-2.65314e-11
-2.29608e-11
-2.39891e-10
-2.45831e-10
-3.94407e-10
-4.11531e-10
1.36771e-09
-1.73727e-11
-1.65421e-12
1.37873e-09
-1.08165e-11
5.99103e-13
1.38571e-09
-6.88187e-12
9.11199e-14
1.39008e-09
-4.45064e-12
3.52296e-14
1.39282e-09
-2.85145e-12
1.98538e-15
1.39438e-09
-1.82103e-12
2.12691e-13
1.39559e-09
-1.23734e-12
-3.68696e-14
1.39646e-09
-9.91675e-13
-4.9895e-16
1.39746e-09
-8.94441e-13
5.19061e-13
1.39715e-09
7.19354e-13
-3.92927e-13
1.39754e-09
-5.31888e-13
1.43614e-13
1.39699e-09
-4.26105e-13
-4.44053e-12
1.39733e-09
-2.93522e-13
-5.46762e-14
1.398e-09
-2.05658e-12
1.46462e-12
1.39822e-09
-1.05915e-14
2.71364e-14
1.3982e-09
1.20469e-13
-1.23785e-13
1.39776e-09
-3.17255e-13
1.58311e-12
1.39823e-09
-5.24647e-13
9.49954e-14
1.39869e-09
-3.41293e-13
4.91863e-14
1.39715e-09
4.67841e-12
-2.67452e-12
1.39882e-09
4.88119e-13
2.75911e-12
1.39903e-09
-2.71138e-13
-8.33296e-13
1.39891e-09
-7.87227e-14
6.37766e-15
1.39885e-09
1.83254e-13
5.98004e-14
1.39892e-09
4.03238e-14
2.05039e-13
1.39924e-09
4.4828e-14
7.18168e-13
1.39938e-09
2.28363e-13
-3.36511e-13
1.39927e-09
-2.91305e-14
9.51911e-15
1.39949e-09
-6.72259e-14
-4.33605e-14
1.39944e-09
8.93797e-14
-5.3729e-13
1.39976e-09
5.35268e-13
-1.5912e-12
1.39946e-09
1.51291e-13
-2.88864e-13
1.39949e-09
1.25302e-13
-5.84145e-14
1.39944e-09
3.09565e-13
-2.29028e-13
1.39946e-09
1.54315e-14
8.68082e-15
1.39951e-09
-6.10174e-14
4.10847e-14
1.39931e-09
1.45705e-13
-2.72164e-14
1.39965e-09
-7.62334e-13
1.73826e-12
1.40008e-09
7.03488e-13
3.1047e-14
1.40029e-09
-1.09968e-13
-5.6694e-13
-1.63901e-13
-1.45742e-12
4.32266e-09
3.45705e-09
-1.89868e-08
1.52884e-09
1.85707e-09
8.08198e-10
1.83473e-09
1.79484e-09
3.70206e-09
1.07022e-09
-2.48713e-09
3.1674e-10
6.98375e-10
5.79466e-09
-1.82356e-10
5.92008e-10
2.66854e-09
1.30577e-09
-4.38396e-09
-3.20792e-09
3.35898e-09
5.53874e-10
1.00606e-09
-1.71099e-09
9.86727e-10
2.83958e-09
6.16943e-09
1.88965e-09
1.5142e-09
1.89607e-09
1.47168e-09
4.90684e-10
-1.61769e-08
-1.88548e-08
1.77735e-08
-2.95019e-10
8.60251e-10
4.81175e-10
-5.17856e-11
-9.94622e-10
-1.27405e-10
1.09616e-10
-8.82302e-11
7.87588e-12
9.8143e-11
-4.13619e-11
-5.45162e-14
1.81129e-10
-8.17337e-12
5.17258e-11
-3.94187e-11
-7.25912e-11
-6.96234e-11
3.88646e-13
-9.55489e-13
-1.06498e-12
1.37472e-09
-3.82478e-11
-2.44383e-11
-2.4848e-10
-2.54953e-10
-4.08652e-10
-4.26447e-10
1.38233e-09
-2.21793e-11
-2.74311e-12
1.38713e-09
-1.58833e-11
3.27846e-13
1.39075e-09
-1.03272e-11
-1.05285e-13
1.39304e-09
-6.70179e-12
2.72485e-14
1.39452e-09
-4.22373e-12
-4.39113e-14
1.39565e-09
-2.77792e-12
-1.02698e-13
1.39604e-09
-1.5823e-12
2.1174e-14
1.39674e-09
-3.17676e-12
1.54082e-12
1.39707e-09
-1.43319e-12
2.76586e-13
1.39804e-09
-2.76144e-12
2.57655e-12
1.39757e-09
4.48687e-13
-4.395e-13
1.39765e-09
-4.10925e-13
-2.63764e-14
1.3981e-09
-8.17092e-13
1.43027e-13
1.39773e-09
-6.07977e-13
-1.00857e-12
1.39803e-09
-2.09102e-13
-2.09153e-14
1.39797e-09
1.06978e-13
1.49016e-13
1.39784e-09
-4.37322e-13
3.22922e-13
1.39764e-09
5.44456e-14
-3.0812e-13
1.39726e-09
8.41244e-14
4.06333e-14
1.39871e-09
5.52891e-13
2.75237e-12
1.39878e-09
8.20312e-13
-3.2778e-13
1.39973e-09
-3.10306e-12
1.95271e-12
1.3996e-09
2.18826e-13
-9.25669e-14
1.39869e-09
1.1646e-12
1.79083e-15
1.3989e-09
-2.40942e-13
1.45705e-13
1.39913e-09
-1.10193e-13
-2.54757e-16
1.39902e-09
5.86571e-13
-1.85947e-13
1.39938e-09
-3.70507e-13
4.65132e-14
1.3996e-09
-2.34326e-13
1.51135e-14
1.40003e-09
-1.92301e-13
-9.54586e-14
1.39936e-09
-4.13969e-13
1.67415e-12
1.39962e-09
1.13139e-13
-1.64808e-13
1.39928e-09
5.32804e-13
-2.14186e-14
1.39956e-09
-7.04815e-14
1.37608e-13
1.3995e-09
5.77475e-15
1.12359e-13
1.39943e-09
7.82046e-14
-3.95269e-14
1.39905e-09
5.20355e-13
3.1414e-14
1.39957e-09
-1.04075e-12
-2.20004e-13
1.39953e-09
5.05937e-13
2.59453e-13
1.40074e-09
-2.83437e-12
1.52363e-12
-2.74216e-13
-5.16995e-13
3.46288e-09
4.34108e-09
-2.95807e-09
7.65553e-10
1.19658e-09
-1.60018e-08
2.05963e-08
2.47611e-08
-2.61159e-08
-5.15316e-10
-1.34879e-09
-1.40131e-09
-1.26787e-09
3.7664e-10
1.84223e-09
-6.32391e-10
-8.78896e-10
2.14987e-09
-6.32436e-11
-1.56882e-09
5.53826e-09
3.07507e-09
-6.27898e-09
-1.56962e-09
-1.53474e-09
-4.00538e-10
9.8153e-09
-6.3104e-09
5.9292e-10
9.09867e-10
1.77288e-10
-1.34196e-09
-3.38111e-10
-2.04152e-10
7.81441e-10
-2.54908e-10
2.56312e-10
-5.78693e-10
-1.468e-10
6.57874e-11
-1.09635e-13
-5.53348e-11
1.36457e-10
-3.49938e-11
-1.68936e-12
1.83992e-10
1.63759e-12
1.20863e-11
-3.3599e-11
-6.56059e-11
-6.18276e-11
1.38192e-09
-6.99111e-11
-2.32277e-11
-2.51744e-10
-2.46264e-10
-4.19649e-10
-4.09353e-10
1.39089e-09
-2.88448e-11
-2.26698e-12
1.39461e-09
-1.99754e-11
4.19144e-13
1.39623e-09
-1.17251e-11
-1.55955e-13
1.39692e-09
-7.2991e-12
-3.62882e-14
1.39729e-09
-4.50962e-12
-2.64517e-14
1.39729e-09
-2.61036e-12
-1.054e-13
1.39786e-09
-2.30487e-12
2.20779e-13
1.39748e-09
-1.09321e-12
-1.63973e-12
1.39723e-09
-5.16678e-13
-6.07057e-13
1.39723e-09
-5.42649e-13
-2.1525e-12
1.39781e-09
-7.25657e-13
6.62115e-13
1.39768e-09
-1.48267e-13
-6.46083e-14
1.39753e-09
-4.1706e-13
-1.79387e-13
1.39791e-09
-3.85138e-13
-5.25353e-13
1.3978e-09
2.61925e-14
-5.73961e-14
1.39809e-09
6.31747e-14
-1.73298e-13
1.39836e-09
-2.7608e-13
-3.47725e-13
1.3983e-09
-1.76619e-13
3.63318e-13
1.39866e-09
-6.82463e-14
-1.30106e-13
1.39892e-09
3.10937e-13
5.55301e-14
1.39901e-09
2.38768e-13
5.76089e-13
1.39822e-09
-1.71854e-13
-2.07036e-12
1.39826e-09
3.02829e-13
-4.66622e-14
1.39944e-09
1.43327e-12
-1.37819e-12
1.39862e-09
1.03652e-13
5.46168e-13
1.39897e-09
2.72393e-13
-6.58763e-13
1.39878e-09
3.85777e-13
4.62599e-13
1.39975e-09
-1.85168e-12
5.69754e-13
1.39983e-09
-3.03229e-13
5.74274e-14
1.39954e-09
8.1817e-13
-6.70886e-13
1.39962e-09
-3.47592e-13
-8.61421e-14
1.39971e-09
-3.776e-13
4.51725e-13
1.39966e-09
2.6743e-12
-2.04218e-12
1.39948e-09
5.29002e-13
-3.80228e-13
1.39929e-09
3.0504e-13
-7.75601e-14
1.39987e-09
3.23129e-13
-7.83179e-13
1.4004e-09
-2.14972e-13
2.31504e-13
1.39918e-09
4.66688e-13
-2.66328e-13
1.39946e-09
3.70383e-13
-1.29898e-13
1.39956e-09
1.04998e-12
-3.97633e-12
-1.48458e-12
-1.06904e-13
4.298e-09
5.16131e-08
-8.73784e-08
-6.74904e-08
9.4457e-08
3.74361e-09
3.28416e-09
5.43498e-09
-8.9744e-10
-4.67367e-10
6.85936e-09
-1.74842e-09
3.03129e-09
-7.90106e-09
1.09704e-08
-4.35221e-09
-4.45963e-09
-4.42078e-09
-3.3192e-09
-2.55486e-09
-5.15638e-09
-2.74574e-08
-8.02054e-08
1.27574e-07
-1.144e-09
-1.07657e-09
1.18314e-08
6.21918e-09
4.38145e-09
-8.25395e-09
-1.26589e-08
5.09658e-10
5.11226e-10
-7.56032e-11
-2.4369e-10
9.28447e-10
9.30898e-10
-2.70419e-10
-1.63786e-10
-1.42514e-09
-1.60693e-10
-2.97518e-12
1.25524e-11
9.2262e-11
5.88538e-11
1.44634e-09
-2.42416e-11
-2.53216e-10
-2.49618e-10
-4.27277e-10
-4.19172e-10
6.01492e-12
4.40462e-13
1.03619e-11
7.99819e-13
1.42189e-09
-6.98285e-13
1.41628e-09
2.40247e-13
1.40944e-09
3.74352e-13
1.40474e-09
-1.80721e-13
1.40188e-09
-3.35526e-14
1.40063e-09
1.06449e-12
1.39954e-09
-7.62556e-15
1.39843e-09
-2.0562e-13
1.39808e-09
3.06191e-14
1.39786e-09
-4.34409e-15
1.39783e-09
-3.24693e-13
1.39768e-09
1.50395e-13
1.39746e-09
-4.98837e-13
1.39763e-09
-7.87825e-14
1.39782e-09
6.34052e-14
1.39809e-09
3.77432e-14
1.3982e-09
1.70781e-13
1.39822e-09
5.35372e-13
1.39838e-09
-1.78841e-13
1.39841e-09
-1.66448e-14
1.39902e-09
1.00368e-12
1.39891e-09
-1.65357e-13
1.39881e-09
-2.25323e-12
1.39801e-09
-1.29601e-12
1.39859e-09
1.25594e-12
1.39922e-09
-4.14588e-13
1.3992e-09
7.75479e-13
1.39972e-09
-1.72749e-13
1.39885e-09
-6.06708e-13
1.39891e-09
-4.75834e-14
1.39975e-09
6.89559e-13
1.39956e-09
1.67971e-13
1.39943e-09
-2.40518e-13
1.40022e-09
1.94589e-12
1.39979e-09
-2.75797e-12
1.3998e-09
-6.93347e-15
1.39953e-09
8.31497e-13
1.39969e-09
-2.93725e-13
1.4002e-09
1.9239e-13
1.40078e-09
-2.14035e-13
1.39945e-09
2.59517e-12
1.75689e-13
4.36954e-09
-3.26228e-09
1.07411e-08
-9.32374e-09
-2.69232e-09
6.20648e-08
6.35665e-09
2.53464e-10
-6.84584e-08
-3.9344e-09
1.34862e-09
-2.14993e-09
9.5034e-09
-2.0527e-09
-5.66647e-10
-3.01646e-09
-2.40478e-10
-1.4222e-09
2.88188e-09
-3.30257e-09
1.66933e-09
1.40972e-09
1.06407e-08
-2.18389e-09
2.22404e-09
2.23229e-09
-1.11093e-08
-6.17578e-10
-9.53136e-10
2.51594e-10
1.45457e-12
1.26476e-09
-6.38105e-11
-9.00932e-11
-4.87892e-11
4.54971e-11
1.30544e-10
2.57753e-09
-9.35939e-12
3.27085e-11
-6.46009e-10
-7.08011e-10
-6.45864e-10
-7.07869e-10
-2.37629e-11
-9.35633e-12
-2.37557e-11
2.44538e-09
6.26299e-11
3.02193e-12
2.39885e-09
1.29154e-11
3.22789e-13
2.36921e-09
1.08004e-11
3.62841e-13
2.35426e-09
5.58112e-12
1.33102e-13
2.3455e-09
3.21127e-12
-3.79854e-14
2.33935e-09
1.73612e-12
9.20887e-13
2.33651e-09
9.49816e-13
2.13634e-14
2.3336e-09
-1.90994e-13
1.02039e-12
2.33277e-09
3.13659e-14
1.8688e-14
2.33251e-09
-9.90662e-16
2.00822e-14
2.33165e-09
2.83595e-12
-1.09272e-12
2.33183e-09
-1.37875e-13
4.84471e-13
2.33218e-09
3.04584e-14
-6.22682e-13
2.33146e-09
2.66277e-13
2.54545e-14
2.33257e-09
-1.55027e-12
8.88846e-14
2.33272e-09
-5.6407e-14
-9.56414e-14
2.33287e-09
4.10566e-13
2.28908e-14
2.33252e-09
1.95099e-13
4.74143e-13
2.33259e-09
1.90199e-13
7.15597e-14
2.33296e-09
-1.32089e-13
-3.87658e-14
2.33252e-09
-5.59715e-13
5.1168e-13
2.33301e-09
3.14347e-13
-9.92672e-14
2.33218e-09
4.90244e-12
-1.08313e-12
2.33261e-09
4.46235e-12
-3.05063e-12
2.33275e-09
-1.69304e-13
-2.8011e-13
2.33473e-09
1.06262e-12
-1.0552e-12
2.33398e-09
5.09192e-13
2.9243e-13
2.33362e-09
5.73692e-13
-3.33583e-13
2.33295e-09
5.52948e-13
-6.46056e-14
2.33264e-09
-1.40323e-12
7.51489e-13
2.3358e-09
-6.23568e-13
-2.18521e-12
2.33492e-09
9.8643e-13
-1.08843e-13
2.3347e-09
3.65817e-13
1.74132e-14
2.33471e-09
1.26884e-13
-1.00966e-13
2.33613e-09
-3.96069e-13
1.26067e-12
2.33394e-09
3.84312e-12
-2.87873e-12
2.33412e-09
-1.90948e-14
-2.51566e-13
2.33417e-09
-1.42543e-12
6.85865e-13
2.33577e-09
-1.38688e-12
-7.33591e-13
2.33532e-09
2.75059e-13
1.70784e-13
2.33422e-09
8.07116e-13
9.22958e-13
-5.71009e-13
-4.40257e-13
3.59554e-09
1.29556e-10
-1.22841e-10
-1.90899e-08
1.60953e-08
1.26675e-08
-1.18682e-08
-1.44989e-09
3.96104e-09
-3.18078e-09
-1.1483e-09
-3.3042e-09
1.95052e-09
1.14766e-09
2.63527e-09
9.44338e-10
-2.15194e-10
1.69211e-10
-9.74425e-10
-1.33458e-09
-2.73437e-10
7.16006e-09
-2.44798e-10
9.39777e-10
-1.56836e-09
-6.01324e-09
-9.49953e-09
-1.49511e-09
-4.7996e-09
3.8223e-09
1.13944e-09
1.08325e-08
5.08992e-08
-1.68063e-09
5.01459e-10
-1.7028e-09
-3.78388e-09
-4.42334e-08
-1.14275e-09
-4.02234e-10
2.79734e-09
-1.80526e-09
-6.60065e-10
1.21297e-09
-8.55622e-11
-5.3356e-11
-1.55713e-11
-1.19724e-11
2.14445e-11
1.45017e-10
-7.00943e-10
6.70184e-10
2.23923e-11
-5.53176e-13
-4.39435e-13
2.41402e-09
9.20549e-11
2.81479e-11
-6.26212e-10
-6.23666e-10
-6.26211e-10
-6.23683e-10
2.3764e-09
4.57639e-11
2.41425e-12
2.35979e-09
2.82977e-11
-3.93715e-13
2.3485e-09
1.67152e-11
1.30116e-13
2.34159e-09
1.0125e-11
5.49759e-14
2.33732e-09
6.03019e-12
4.2852e-14
2.33468e-09
3.70615e-12
-9.93267e-15
2.33402e-09
2.70595e-12
-9.86464e-13
2.33279e-09
1.34669e-12
-3.09737e-15
2.33136e-09
1.04699e-12
4.41419e-13
2.33248e-09
-6.09773e-13
1.19045e-12
2.3319e-09
7.14493e-13
-1.33959e-13
2.3324e-09
-7.68511e-13
1.74307e-14
2.33222e-09
5.17302e-13
3.57843e-14
2.33168e-09
-1.36809e-12
1.53977e-13
2.33241e-09
1.00669e-12
-1.02723e-12
2.33242e-09
6.36714e-14
1.46718e-13
2.33252e-09
1.65355e-13
3.32579e-14
2.33279e-09
7.42281e-14
-1.84333e-14
2.33292e-09
-3.91797e-13
1.19082e-13
2.33179e-09
5.01909e-12
-2.64537e-12
2.33154e-09
8.54322e-13
-1.51452e-13
2.33279e-09
4.37542e-13
1.81632e-12
2.33336e-09
8.23041e-13
1.62347e-12
2.33528e-09
-2.65444e-12
2.79537e-12
2.33474e-09
9.77996e-13
1.90997e-12
2.33344e-09
1.8431e-12
1.04436e-13
2.33398e-09
-1.33987e-13
1.54717e-13
2.33492e-09
-2.61068e-13
-8.62053e-14
2.33534e-09
-5.60896e-13
-7.04855e-13
2.33262e-09
-7.99996e-13
2.20861e-12
2.33329e-09
6.15178e-13
-4.73561e-13
2.33381e-09
-4.47829e-14
-9.89139e-14
2.33371e-09
1.27801e-13
5.13488e-14
2.33358e-09
-4.70996e-14
-9.78024e-14
2.33576e-09
3.95281e-13
2.83579e-12
2.33529e-09
-1.24107e-14
3.25546e-13
2.33508e-09
1.81492e-13
-6.89841e-13
2.33459e-09
6.57326e-13
-5.28111e-13
2.33448e-09
6.00017e-13
-2.23032e-13
2.33494e-09
2.00531e-13
-7.8225e-13
-2.65445e-13
2.10822e-13
-1.58559e-08
5.16868e-10
2.63535e-10
-1.87592e-09
1.75591e-08
-1.06515e-08
-2.88588e-10
1.1682e-09
-2.83597e-09
-2.90453e-09
1.55124e-08
-1.61427e-08
3.12132e-09
-2.67313e-09
-1.53005e-09
1.82734e-08
-1.04891e-09
-1.70325e-09
2.94125e-09
8.01414e-09
-1.28566e-08
3.52352e-09
8.0912e-11
2.40177e-09
3.97509e-10
1.13473e-09
7.56074e-11
-3.49391e-09
-5.15698e-10
-5.27614e-10
-4.9461e-10
1.74237e-10
4.49131e-10
1.00827e-09
-6.09417e-10
1.78653e-11
-1.9843e-10
8.35697e-12
-8.43822e-11
1.56796e-10
9.97937e-11
-1.52023e-10
6.27143e-10
4.06588e-11
4.96259e-13
-1.45916e-12
-1.55725e-10
-1.57776e-10
-1.61586e-10
-3.97288e-11
2.34815e-09
7.71729e-11
2.61329e-11
-6.06801e-10
-5.85784e-10
-6.06804e-10
-5.85808e-10
2.33997e-09
4.89303e-11
2.54087e-12
2.33885e-09
3.04665e-11
-4.56239e-13
2.33641e-09
1.90358e-11
1.32367e-13
2.33478e-09
1.18804e-11
1.26813e-15
2.33339e-09
7.49873e-12
1.57602e-14
2.33244e-09
4.78801e-12
-1.01094e-14
2.33204e-09
3.16552e-12
3.35285e-14
2.33166e-09
2.03177e-12
-6.58751e-14
2.33269e-09
2.77953e-12
-4.42082e-13
2.3317e-09
6.76402e-14
8.53741e-14
2.33218e-09
2.25781e-13
1.24343e-13
2.33185e-09
-4.47036e-13
2.01459e-13
2.33247e-09
-5.31284e-14
1.1615e-14
2.3317e-09
-5.41302e-13
-3.49341e-13
2.33112e-09
7.97494e-15
1.26974e-12
2.33155e-09
-2.25135e-13
1.65681e-14
2.33203e-09
-6.31979e-14
-6.99379e-14
2.33182e-09
1.08558e-13
2.63265e-13
2.33144e-09
1.06196e-12
-4.87943e-13
2.33266e-09
-8.13073e-13
2.37509e-12
2.33432e-09
-4.29146e-12
1.77267e-12
2.33398e-09
1.13348e-12
-1.49137e-13
2.33558e-09
-2.57939e-12
8.70801e-13
2.33344e-09
2.60608e-13
-2.66892e-12
2.33247e-09
1.88598e-13
-8.10257e-13
2.33417e-09
3.41045e-13
-1.03772e-13
2.33443e-09
-2.03128e-13
-1.92384e-14
2.33419e-09
-7.59449e-14
1.40584e-13
2.3343e-09
-2.1954e-13
-1.66007e-14
2.33393e-09
-6.65649e-13
-4.20577e-15
2.33337e-09
-5.12861e-13
1.36265e-12
2.33323e-09
2.19675e-13
2.44032e-13
2.3334e-09
3.94054e-13
2.85257e-13
2.33471e-09
1.26385e-12
-1.47781e-12
2.33554e-09
-1.8195e-12
7.45882e-13
2.33562e-09
5.14318e-13
-2.56789e-13
2.33567e-09
5.30682e-13
-2.10106e-13
2.33444e-09
7.45769e-14
9.34373e-13
2.33412e-09
8.3919e-13
9.05411e-14
2.33408e-09
4.15963e-13
-9.79918e-14
-2.2363e-12
1.36356e-12
5.15678e-09
3.0328e-09
-5.86141e-09
5.31145e-10
-2.25168e-09
-7.44115e-09
-2.84733e-09
-3.71783e-09
-6.40666e-11
1.39473e-08
1.23086e-10
-4.11899e-09
-4.55228e-09
1.42745e-08
6.41322e-09
-1.02499e-08
-1.76661e-09
-6.24866e-10
-4.41288e-10
-1.25763e-08
1.62003e-08
-6.11147e-11
-2.49415e-09
-1.31649e-08
-5.74187e-10
1.3187e-09
-7.35411e-09
-8.34258e-10
2.06088e-08
-1.54544e-11
5.40628e-11
4.27517e-10
1.63104e-09
-5.49789e-10
-1.54737e-09
-5.74952e-10
-1.72454e-10
-1.38418e-10
3.88535e-10
1.8748e-10
3.09808e-10
-1.42751e-10
-1.63397e-11
-5.72091e-13
2.57603e-12
8.8527e-12
1.48234e-10
2.29206e-09
4.43535e-11
2.53752e-11
-5.97216e-10
-5.57814e-10
-5.97234e-10
-5.57895e-10
2.3086e-09
2.85374e-11
1.90005e-12
2.31927e-09
2.10451e-11
-5.13588e-13
2.3242e-09
1.41142e-11
6.33895e-14
2.32697e-09
9.32044e-12
-2.56474e-14
2.32858e-09
6.02867e-12
-7.33136e-15
2.32957e-09
3.92958e-12
-4.32743e-15
2.33024e-09
2.61544e-12
4.80736e-15
2.3307e-09
1.59074e-12
4.80297e-14
2.33059e-09
1.07339e-12
-5.17605e-14
2.33118e-09
-3.66766e-14
4.12206e-13
2.3316e-09
-1.98573e-13
2.06819e-13
2.33187e-09
-7.05466e-14
-2.43738e-13
2.33194e-09
4.50514e-14
-1.93861e-14
2.33204e-09
-1.67061e-13