/*--------------------------------*- C++ -*----------------------------------*\
| =========                 |                                                 |
| \\      /  F ield         | OpenFOAM: The Open Source CFD Toolbox           |
|  \\    /   O peration     | Version:  5.0                                   |
|   \\  /    A nd           | Web:      www.OpenFOAM.org                      |
|    \\/     M anipulation  |                                                 |
\*---------------------------------------------------------------------------*/
FoamFile
{
    version     2.0;
    format      ascii;
    class       volScalarField;
    location    "3.7";
    object      rAU;
}
// * * * * * * * * * * * * * * * * * * * * * * * * * * * * * * * * * * * * * //

dimensions      [-1 3 1 0 0 0 0];

internalField   nonuniform List<scalar> 
8864
(
8.75102e-07
7.52716e-07
8.42838e-07
8.71326e-07
8.94141e-07
6.88213e-07
3.92779e-08
3.92283e-07
3.93661e-07
3.94696e-07
3.9573e-07
3.96762e-07
3.97794e-07
3.98826e-07
3.99856e-07
4.00886e-07
4.01916e-07
4.02944e-07
4.03971e-07
4.04999e-07
4.06025e-07
4.0705e-07
4.08075e-07
4.09099e-07
4.10122e-07
4.11145e-07
4.12167e-07
4.13187e-07
4.14208e-07
4.15227e-07
4.16246e-07
4.17264e-07
4.18281e-07
4.19297e-07
4.20313e-07
4.21328e-07
4.22342e-07
4.23356e-07
4.24368e-07
4.25379e-07
4.2639e-07
4.274e-07
4.28409e-07
4.29418e-07
4.30425e-07
4.31431e-07
4.32438e-07
4.33442e-07
4.34446e-07
4.36222e-07
8.8816e-07
8.59211e-07
6.73429e-07
8.7859e-07
7.97575e-07
6.82152e-07
6.38964e-08
1.29776e-07
3.93452e-07
3.94696e-07
3.9573e-07
3.96762e-07
3.97794e-07
3.98826e-07
3.99856e-07
4.00886e-07
4.01916e-07
4.02944e-07
4.03971e-07
4.04999e-07
4.06025e-07
4.0705e-07
4.08075e-07
4.09099e-07
4.10122e-07
4.11145e-07
4.12167e-07
4.13187e-07
4.14208e-07
4.15227e-07
4.16246e-07
4.17264e-07
4.18281e-07
4.19297e-07
4.20313e-07
4.21328e-07
4.22342e-07
4.23356e-07
4.24368e-07
4.25379e-07
4.2639e-07
4.274e-07
4.28409e-07
4.29418e-07
4.30425e-07
4.31431e-07
4.32438e-07
4.33442e-07
4.34446e-07
4.36222e-07
8.82405e-07
7.86076e-07
6.5201e-07
8.60662e-07
3.64764e-07
6.83526e-07
6.94506e-07
1.2972e-07
3.93452e-07
3.94696e-07
3.9573e-07
3.96763e-07
3.97794e-07
3.98826e-07
3.99856e-07
4.00886e-07
4.01916e-07
4.02944e-07
4.03971e-07
4.04999e-07
4.06025e-07
4.0705e-07
4.08075e-07
4.09099e-07
4.10122e-07
4.11145e-07
4.12167e-07
4.13187e-07
4.14208e-07
4.15227e-07
4.16246e-07
4.17264e-07
4.18281e-07
4.19297e-07
4.20313e-07
4.21328e-07
4.22342e-07
4.23356e-07
4.24368e-07
4.25379e-07
4.2639e-07
4.274e-07
4.28409e-07
4.29418e-07
4.30425e-07
4.31431e-07
4.32438e-07
4.33442e-07
4.34446e-07
4.36222e-07
8.86437e-07
3.21047e-07
8.69944e-07
8.73569e-07
6.59861e-07
6.49975e-07
7.01053e-07
3.52238e-08
3.93453e-07
3.94696e-07
3.9573e-07
3.96763e-07
3.97794e-07
3.98826e-07
3.99856e-07
4.00886e-07
4.01916e-07
4.02944e-07
4.03971e-07
4.04999e-07
4.06025e-07
4.0705e-07
4.08075e-07
4.09099e-07
4.10122e-07
4.11145e-07
4.12167e-07
4.13187e-07
4.14208e-07
4.15227e-07
4.16246e-07
4.17264e-07
4.18281e-07
4.19298e-07
4.20313e-07
4.21328e-07
4.22342e-07
4.23356e-07
4.24368e-07
4.25379e-07
4.2639e-07
4.274e-07
4.28409e-07
4.29418e-07
4.30425e-07
4.31431e-07
4.32438e-07
4.33442e-07
4.34446e-07
4.36222e-07
9.61e-07
8.77094e-07
3.35606e-07
3.14225e-07
3.91476e-07
6.74449e-07
9.02754e-07
3.95094e-08
3.93454e-07
3.94697e-07
3.9573e-07
3.96763e-07
3.97795e-07
3.98826e-07
3.99856e-07
4.00886e-07
4.01916e-07
4.02944e-07
4.03971e-07
4.04999e-07
4.06025e-07
4.0705e-07
4.08075e-07
4.09099e-07
4.10122e-07
4.11145e-07
4.12167e-07
4.13187e-07
4.14208e-07
4.15227e-07
4.16246e-07
4.17264e-07
4.18281e-07
4.19298e-07
4.20313e-07
4.21328e-07
4.22342e-07
4.23356e-07
4.24368e-07
4.25379e-07
4.2639e-07
4.274e-07
4.28409e-07
4.29418e-07
4.30425e-07
4.31431e-07
4.32438e-07
4.33442e-07
4.34446e-07
4.36222e-07
9.67187e-07
8.57294e-07
6.5511e-07
6.1454e-07
6.19926e-07
6.69249e-07
9.03097e-07
4.41608e-08
3.93454e-07
3.94697e-07
3.95731e-07
3.96763e-07
3.97795e-07
3.98826e-07
3.99857e-07
4.00886e-07
4.01916e-07
4.02944e-07
4.03971e-07
4.04999e-07
4.06025e-07
4.0705e-07
4.08075e-07
4.09099e-07
4.10122e-07
4.11145e-07
4.12167e-07
4.13187e-07
4.14208e-07
4.15227e-07
4.16246e-07
4.17264e-07
4.18281e-07
4.19298e-07
4.20313e-07
4.21328e-07
4.22342e-07
4.23356e-07
4.24368e-07
4.25379e-07
4.2639e-07
4.274e-07
4.28409e-07
4.29418e-07
4.30425e-07
4.31431e-07
4.32438e-07
4.33442e-07
4.34446e-07
4.36222e-07
8.84808e-07
2.64591e-07
4.46851e-07
8.46339e-07
8.07839e-07
6.80884e-07
7.00433e-07
3.6636e-08
3.93455e-07
3.94697e-07
3.95731e-07
3.96763e-07
3.97795e-07
3.98826e-07
3.99857e-07
4.00886e-07
4.01916e-07
4.02944e-07
4.03971e-07
4.04999e-07
4.06025e-07
4.0705e-07
4.08075e-07
4.09099e-07
4.10122e-07
4.11145e-07
4.12167e-07
4.13187e-07
4.14208e-07
4.15227e-07
4.16246e-07
4.17264e-07
4.18281e-07
4.19298e-07
4.20313e-07
4.21328e-07
4.22342e-07
4.23356e-07
4.24368e-07
4.25379e-07
4.2639e-07
4.274e-07
4.28409e-07
4.29418e-07
4.30425e-07
4.31431e-07
4.32438e-07
4.33442e-07
4.34446e-07
4.36222e-07
9.61278e-07
6.91505e-07
8.61111e-07
8.76043e-07
8.18785e-07
6.73966e-07
6.99416e-07
1.29638e-07
3.93454e-07
3.94697e-07
3.95731e-07
3.96763e-07
3.97795e-07
3.98826e-07
3.99856e-07
4.00886e-07
4.01916e-07
4.02944e-07
4.03971e-07
4.04999e-07
4.06025e-07
4.0705e-07
4.08075e-07
4.09099e-07
4.10122e-07
4.11145e-07
4.12167e-07
4.13187e-07
4.14208e-07
4.15227e-07
4.16246e-07
4.17264e-07
4.18281e-07
4.19298e-07
4.20314e-07
4.21328e-07
4.22342e-07
4.23356e-07
4.24368e-07
4.25379e-07
4.2639e-07
4.274e-07
4.28409e-07
4.29418e-07
4.30425e-07
4.31431e-07
4.32438e-07
4.33442e-07
4.34446e-07
4.36222e-07
9.6757e-07
9.41047e-07
8.49809e-07
8.72851e-07
6.06659e-07
5.69158e-07
6.93898e-07
1.29503e-07
3.93453e-07
3.94697e-07
3.9573e-07
3.96763e-07
3.97794e-07
3.98826e-07
3.99856e-07
4.00886e-07
4.01916e-07
4.02944e-07
4.03971e-07
4.04999e-07
4.06025e-07
4.0705e-07
4.08075e-07
4.09099e-07
4.10122e-07
4.11145e-07
4.12167e-07
4.13187e-07
4.14208e-07
4.15227e-07
4.16246e-07
4.17264e-07
4.18281e-07
4.19298e-07
4.20313e-07
4.21328e-07
4.22342e-07
4.23356e-07
4.24368e-07
4.25379e-07
4.2639e-07
4.274e-07
4.28409e-07
4.29418e-07
4.30425e-07
4.31431e-07
4.32438e-07
4.33442e-07
4.34446e-07
4.36222e-07
9.45622e-07
7.28283e-07
8.19014e-07
7.24701e-07
8.70536e-07
6.81351e-07
6.54249e-08
3.92286e-07
3.93661e-07
3.94696e-07
3.9573e-07
3.96763e-07
3.97794e-07
3.98826e-07
3.99856e-07
4.00886e-07
4.01916e-07
4.02944e-07
4.03971e-07
4.04999e-07
4.06025e-07
4.0705e-07
4.08075e-07
4.09099e-07
4.10122e-07
4.11145e-07
4.12167e-07
4.13187e-07
4.14208e-07
4.15227e-07
4.16246e-07
4.17264e-07
4.18281e-07
4.19298e-07
4.20313e-07
4.21328e-07
4.22342e-07
4.23356e-07
4.24368e-07
4.25379e-07
4.2639e-07
4.274e-07
4.28409e-07
4.29418e-07
4.30425e-07
4.31431e-07
4.32438e-07
4.33442e-07
4.34446e-07
4.36222e-07
8.97671e-07
6.77569e-07
8.02238e-07
8.22913e-07
7.38679e-07
7.02493e-07
5.81108e-08
5.04665e-07
5.06379e-07
5.07524e-07
5.08663e-07
5.09801e-07
5.10938e-07
5.12071e-07
5.13204e-07
5.14335e-07
5.15463e-07
5.16591e-07
5.17717e-07
5.1884e-07
5.19963e-07
5.21085e-07
5.22203e-07
5.23321e-07
5.24437e-07
5.25551e-07
5.26664e-07
5.27776e-07
5.28884e-07
5.29993e-07
5.31099e-07
5.32203e-07
5.33306e-07
5.34408e-07
5.35506e-07
5.36605e-07
5.37701e-07
5.38795e-07
5.39888e-07
5.4098e-07
5.42069e-07
5.43157e-07
5.44244e-07
5.45327e-07
5.46411e-07
5.47492e-07
5.48571e-07
5.49649e-07
5.50726e-07
5.5304e-07
9.02558e-07
8.97717e-07
7.58256e-07
9.07848e-07
4.62445e-07
6.82439e-07
9.35204e-08
1.84247e-07
5.06033e-07
5.07524e-07
5.08663e-07
5.09801e-07
5.10938e-07
5.12071e-07
5.13204e-07
5.14335e-07
5.15463e-07
5.16591e-07
5.17717e-07
5.1884e-07
5.19963e-07
5.21085e-07
5.22203e-07
5.23321e-07
5.24437e-07
5.25551e-07
5.26664e-07
5.27776e-07
5.28884e-07
5.29993e-07
5.31099e-07
5.32203e-07
5.33306e-07
5.34407e-07
5.35506e-07
5.36605e-07
5.37701e-07
5.38795e-07
5.39888e-07
5.4098e-07
5.42069e-07
5.43157e-07
5.44244e-07
5.45327e-07
5.46411e-07
5.47492e-07
5.48571e-07
5.49649e-07
5.50726e-07
5.5304e-07
8.96956e-07
6.68606e-07
2.92608e-07
8.82909e-07
6.83224e-07
7.15708e-07
7.7005e-07
1.83946e-07
5.06035e-07
5.07525e-07
5.08664e-07
5.09802e-07
5.10938e-07
5.12071e-07
5.13204e-07
5.14335e-07
5.15463e-07
5.16591e-07
5.17717e-07
5.1884e-07
5.19963e-07
5.21085e-07
5.22203e-07
5.23321e-07
5.24438e-07
5.25551e-07
5.26664e-07
5.27776e-07
5.28884e-07
5.29992e-07
5.31099e-07
5.32203e-07
5.33306e-07
5.34408e-07
5.35506e-07
5.36605e-07
5.37701e-07
5.38795e-07
5.39888e-07
5.4098e-07
5.42069e-07
5.43157e-07
5.44244e-07
5.45327e-07
5.46411e-07
5.47492e-07
5.48571e-07
5.49649e-07
5.50726e-07
5.5304e-07
9.22319e-07
3.14977e-07
8.94283e-07
4.37922e-07
7.24762e-07
6.9849e-07
7.73935e-07
5.20305e-08
5.06037e-07
5.07526e-07
5.08665e-07
5.09802e-07
5.10938e-07
5.12071e-07
5.13204e-07
5.14335e-07
5.15463e-07
5.16591e-07
5.17717e-07
5.1884e-07
5.19963e-07
5.21085e-07
5.22203e-07
5.23321e-07
5.24437e-07
5.25551e-07
5.26664e-07
5.27776e-07
5.28884e-07
5.29992e-07
5.31099e-07
5.32203e-07
5.33306e-07
5.34408e-07
5.35506e-07
5.36605e-07
5.37701e-07
5.38795e-07
5.39888e-07
5.4098e-07
5.42069e-07
5.43157e-07
5.44244e-07
5.45327e-07
5.46411e-07
5.47492e-07
5.48571e-07
5.49649e-07
5.50726e-07
5.5304e-07
9.73882e-07
9.00041e-07
6.67765e-07
3.0165e-07
2.13247e-07
6.62627e-07
9.30781e-07
5.87458e-08
5.06039e-07
5.07527e-07
5.08665e-07
5.09803e-07
5.10938e-07
5.12071e-07
5.13204e-07
5.14335e-07
5.15463e-07
5.16591e-07
5.17717e-07
5.1884e-07
5.19963e-07
5.21085e-07
5.22203e-07
5.23321e-07
5.24437e-07
5.25551e-07
5.26664e-07
5.27776e-07
5.28884e-07
5.29993e-07
5.31099e-07
5.32203e-07
5.33306e-07
5.34408e-07
5.35506e-07
5.36605e-07
5.37701e-07
5.38795e-07
5.39888e-07
5.4098e-07
5.42069e-07
5.43157e-07
5.44244e-07
5.45327e-07
5.46411e-07
5.47492e-07
5.48571e-07
5.49649e-07
5.50726e-07
5.5304e-07
9.62997e-07
9.71873e-07
8.99691e-07
8.42976e-07
6.80229e-07
6.53508e-07
9.31438e-07
6.63891e-08
5.06041e-07
5.07528e-07
5.08666e-07
5.09803e-07
5.10939e-07
5.12072e-07
5.13204e-07
5.14335e-07
5.15463e-07
5.16591e-07
5.17717e-07
5.1884e-07
5.19963e-07
5.21085e-07
5.22203e-07
5.23321e-07
5.24437e-07
5.25551e-07
5.26664e-07
5.27776e-07
5.28884e-07
5.29992e-07
5.31099e-07
5.32203e-07
5.33306e-07
5.34408e-07
5.35506e-07
5.36605e-07
5.37701e-07
5.38795e-07
5.39888e-07
5.4098e-07
5.42069e-07
5.43157e-07
5.44244e-07
5.45328e-07
5.46411e-07
5.47492e-07
5.48571e-07
5.49649e-07
5.50726e-07
5.5304e-07
9.59808e-07
8.87854e-07
6.99953e-07
7.05805e-07
5.01477e-07
7.25497e-07
7.72043e-07
5.44649e-08
5.06041e-07
5.07529e-07
5.08666e-07
5.09803e-07
5.10939e-07
5.12072e-07
5.13204e-07
5.14335e-07
5.15463e-07
5.16591e-07
5.17717e-07
5.1884e-07
5.19963e-07
5.21085e-07
5.22203e-07
5.23321e-07
5.24437e-07
5.25551e-07
5.26664e-07
5.27776e-07
5.28884e-07
5.29992e-07
5.31099e-07
5.32203e-07
5.33306e-07
5.34408e-07
5.35506e-07
5.36605e-07
5.37701e-07
5.38795e-07
5.39888e-07
5.4098e-07
5.42069e-07
5.43157e-07
5.44244e-07
5.45328e-07
5.46411e-07
5.47492e-07
5.48571e-07
5.49649e-07
5.50726e-07
5.5304e-07
9.57836e-07
8.8756e-07
8.19309e-07
5.81261e-07
2.18779e-07
7.17515e-07
7.75573e-07
1.83849e-07
5.06038e-07
5.07527e-07
5.08665e-07
5.09803e-07
5.10938e-07
5.12071e-07
5.13204e-07
5.14335e-07
5.15463e-07
5.16591e-07
5.17717e-07
5.1884e-07
5.19963e-07
5.21085e-07
5.22203e-07
5.23321e-07
5.24437e-07
5.25551e-07
5.26664e-07
5.27776e-07
5.28884e-07
5.29992e-07
5.31099e-07
5.32203e-07
5.33306e-07
5.34408e-07
5.35506e-07
5.36605e-07
5.37701e-07
5.38795e-07
5.39888e-07
5.4098e-07
5.42069e-07
5.43157e-07
5.44244e-07
5.45328e-07
5.46411e-07
5.47492e-07
5.48571e-07
5.49649e-07
5.50726e-07
5.5304e-07
9.64628e-07
8.95317e-07
3.88602e-07
8.70172e-07
5.60285e-07
7.05521e-07
7.66075e-07
1.83949e-07
5.06037e-07
5.07526e-07
5.08664e-07
5.09802e-07
5.10938e-07
5.12071e-07
5.13204e-07
5.14335e-07
5.15463e-07
5.16591e-07
5.17717e-07
5.1884e-07
5.19963e-07
5.21085e-07
5.22203e-07
5.23321e-07
5.24437e-07
5.25551e-07
5.26664e-07
5.27776e-07
5.28884e-07
5.29992e-07
5.31099e-07
5.32203e-07
5.33306e-07
5.34408e-07
5.35506e-07
5.36605e-07
5.37701e-07
5.38795e-07
5.39888e-07
5.4098e-07
5.42069e-07
5.43157e-07
5.44244e-07
5.45328e-07
5.46411e-07
5.47492e-07
5.48571e-07
5.49649e-07
5.50725e-07
5.5304e-07
8.58573e-07
8.50366e-07
6.33586e-07
2.75599e-07
7.32691e-07
7.37701e-07
9.56113e-08
5.04673e-07
5.06382e-07
5.07525e-07
5.08663e-07
5.09802e-07
5.10938e-07
5.12071e-07
5.13204e-07
5.14335e-07
5.15463e-07
5.16591e-07
5.17717e-07
5.1884e-07
5.19963e-07
5.21085e-07
5.22203e-07
5.23321e-07
5.24437e-07
5.25551e-07
5.26664e-07
5.27776e-07
5.28884e-07
5.29993e-07
5.31099e-07
5.32203e-07
5.33306e-07
5.34408e-07
5.35506e-07
5.36605e-07
5.37701e-07
5.38795e-07
5.39888e-07
5.4098e-07
5.42069e-07
5.43157e-07
5.44244e-07
5.45327e-07
5.46411e-07
5.47492e-07
5.48571e-07
5.49649e-07
5.50726e-07
5.5304e-07
9.53841e-07
9.44589e-07
8.06498e-07
6.12953e-07
7.8071e-07
7.05624e-07
5.81175e-08
3.92282e-07
3.9366e-07
3.94696e-07
3.9573e-07
3.96762e-07
3.97794e-07
3.98826e-07
3.99856e-07
4.00886e-07
4.01915e-07
4.02944e-07
4.03971e-07
4.04999e-07
4.06025e-07
4.0705e-07
4.08075e-07
4.09099e-07
4.10122e-07
4.11145e-07
4.12167e-07
4.13187e-07
4.14208e-07
4.15227e-07
4.16246e-07
4.17264e-07
4.18281e-07
4.19297e-07
4.20313e-07
4.21328e-07
4.22342e-07
4.23355e-07
4.24368e-07
4.25379e-07
4.2639e-07
4.274e-07
4.28409e-07
4.29418e-07
4.30425e-07
4.31431e-07
4.32438e-07
4.33442e-07
4.34446e-07
4.36222e-07
9.56033e-07
8.82431e-07
9.2613e-07
8.87055e-07
2.61273e-07
6.97972e-07
9.34186e-08
1.84252e-07
3.93452e-07
3.94696e-07
3.9573e-07
3.96762e-07
3.97794e-07
3.98826e-07
3.99856e-07
4.00886e-07
4.01915e-07
4.02944e-07
4.03971e-07
4.04999e-07
4.06025e-07
4.0705e-07
4.08075e-07
4.09099e-07
4.10122e-07
4.11145e-07
4.12167e-07
4.13187e-07
4.14208e-07
4.15227e-07
4.16246e-07
4.17264e-07
4.18281e-07
4.19297e-07
4.20313e-07
4.21328e-07
4.22342e-07
4.23355e-07
4.24368e-07
4.25379e-07
4.2639e-07
4.274e-07
4.28409e-07
4.29418e-07
4.30425e-07
4.31431e-07
4.32438e-07
4.33442e-07
4.34446e-07
4.36222e-07
9.61294e-07
9.2549e-07
9.4232e-07
9.09962e-07
2.50129e-07
6.61116e-07
7.70849e-07
1.83952e-07
3.93452e-07
3.94696e-07
3.9573e-07
3.96762e-07
3.97794e-07
3.98826e-07
3.99856e-07
4.00886e-07
4.01915e-07
4.02944e-07
4.03971e-07
4.04999e-07
4.06025e-07
4.0705e-07
4.08075e-07
4.09099e-07
4.10122e-07
4.11145e-07
4.12167e-07
4.13187e-07
4.14208e-07
4.15227e-07
4.16246e-07
4.17264e-07
4.18281e-07
4.19297e-07
4.20313e-07
4.21328e-07
4.22342e-07
4.23355e-07
4.24368e-07
4.25379e-07
4.2639e-07
4.274e-07
4.28409e-07
4.29418e-07
4.30425e-07
4.31431e-07
4.32438e-07
4.33442e-07
4.34446e-07
4.36222e-07
9.28626e-07
9.53174e-07
9.49451e-07
8.79623e-07
3.39908e-07
7.1642e-07
7.75377e-07
5.20306e-08
3.93453e-07
3.94696e-07
3.9573e-07
3.96763e-07
3.97794e-07
3.98826e-07
3.99856e-07
4.00886e-07
4.01916e-07
4.02944e-07
4.03971e-07
4.04999e-07
4.06025e-07
4.0705e-07
4.08075e-07
4.09099e-07
4.10122e-07
4.11145e-07
4.12167e-07
4.13187e-07
4.14208e-07
4.15227e-07
4.16246e-07
4.17264e-07
4.18281e-07
4.19297e-07
4.20313e-07
4.21328e-07
4.22342e-07
4.23355e-07
4.24368e-07
4.25379e-07
4.2639e-07
4.274e-07
4.28409e-07
4.29418e-07
4.30425e-07
4.31431e-07
4.32438e-07
4.33442e-07
4.34446e-07
4.36222e-07
9.71994e-07
9.46767e-07
8.91039e-07
5.57391e-07
6.04979e-07
6.49367e-07
9.31337e-07
5.86554e-08
3.93454e-07
3.94697e-07
3.9573e-07
3.96763e-07
3.97795e-07
3.98826e-07
3.99856e-07
4.00886e-07
4.01916e-07
4.02944e-07
4.03971e-07
4.04999e-07
4.06025e-07
4.0705e-07
4.08075e-07
4.09099e-07
4.10122e-07
4.11145e-07
4.12167e-07
4.13187e-07
4.14208e-07
4.15227e-07
4.16246e-07
4.17264e-07
4.18281e-07
4.19297e-07
4.20313e-07
4.21328e-07
4.22342e-07
4.23355e-07
4.24368e-07
4.25379e-07
4.2639e-07
4.274e-07
4.28409e-07
4.29418e-07
4.30425e-07
4.31431e-07
4.32437e-07
4.33442e-07
4.34446e-07
4.36222e-07
9.57334e-07
9.57655e-07
8.96096e-07
8.2215e-07
7.86326e-07
5.88943e-07
9.31984e-07
6.62662e-08
3.93454e-07
3.94697e-07
3.95731e-07
3.96763e-07
3.97795e-07
3.98826e-07
3.99856e-07
4.00886e-07
4.01916e-07
4.02944e-07
4.03971e-07
4.04999e-07
4.06025e-07
4.0705e-07
4.08075e-07
4.09099e-07
4.10122e-07
4.11145e-07
4.12167e-07
4.13187e-07
4.14208e-07
4.15227e-07
4.16246e-07
4.17264e-07
4.18281e-07
4.19297e-07
4.20313e-07
4.21328e-07
4.22342e-07
4.23355e-07
4.24368e-07
4.25379e-07
4.2639e-07
4.274e-07
4.28409e-07
4.29418e-07
4.30425e-07
4.31431e-07
4.32438e-07
4.33442e-07
4.34446e-07
4.36222e-07
9.68984e-07
8.95817e-07
5.91285e-07
7.48766e-07
6.34053e-07
7.17775e-07
7.7301e-07
5.44064e-08
3.93455e-07
3.94697e-07
3.95731e-07
3.96763e-07
3.97795e-07
3.98826e-07
3.99856e-07
4.00886e-07
4.01916e-07
4.02944e-07
4.03971e-07
4.04999e-07
4.06025e-07
4.0705e-07
4.08075e-07
4.09099e-07
4.10122e-07
4.11145e-07
4.12167e-07
4.13187e-07
4.14208e-07
4.15227e-07
4.16246e-07
4.17264e-07
4.18281e-07
4.19297e-07
4.20313e-07
4.21328e-07
4.22342e-07
4.23355e-07
4.24368e-07
4.25379e-07
4.2639e-07
4.274e-07
4.28409e-07
4.29418e-07
4.30425e-07
4.31431e-07
4.32438e-07
4.33442e-07
4.34446e-07
4.36222e-07
9.6173e-07
9.12049e-07
5.84306e-07
6.33205e-07
5.02468e-07
6.99151e-07
7.75625e-07
1.83851e-07
3.93454e-07
3.94697e-07
3.95731e-07
3.96763e-07
3.97795e-07
3.98826e-07
3.99856e-07
4.00886e-07
4.01916e-07
4.02944e-07
4.03971e-07
4.04999e-07
4.06025e-07
4.0705e-07
4.08075e-07
4.09099e-07
4.10122e-07
4.11145e-07
4.12167e-07
4.13187e-07
4.14208e-07
4.15227e-07
4.16246e-07
4.17264e-07
4.18281e-07
4.19297e-07
4.20313e-07
4.21328e-07
4.22342e-07
4.23355e-07
4.24368e-07
4.25379e-07
4.2639e-07
4.274e-07
4.28409e-07
4.29418e-07
4.30425e-07
4.31431e-07
4.32438e-07
4.33442e-07
4.34446e-07
4.36222e-07
9.55072e-07
8.80736e-07
6.23837e-07
8.02209e-07
6.09573e-07
6.94533e-07
7.66541e-07
1.83953e-07
3.93453e-07
3.94697e-07
3.9573e-07
3.96763e-07
3.97794e-07
3.98826e-07
3.99856e-07
4.00886e-07
4.01915e-07
4.02944e-07
4.03971e-07
4.04999e-07
4.06025e-07
4.0705e-07
4.08075e-07
4.09099e-07
4.10122e-07
4.11145e-07
4.12167e-07
4.13187e-07
4.14208e-07
4.15227e-07
4.16246e-07
4.17264e-07
4.18281e-07
4.19297e-07
4.20313e-07
4.21328e-07
4.22342e-07
4.23355e-07
4.24368e-07
4.25379e-07
4.2639e-07
4.274e-07
4.28409e-07
4.29418e-07
4.30425e-07
4.31431e-07
4.32438e-07
4.33442e-07
4.34446e-07
4.36222e-07
9.3808e-07
7.44207e-07
7.58984e-07
3.92374e-07
5.06551e-07
7.55824e-07
9.55747e-08
3.92286e-07
3.93661e-07
3.94696e-07
3.9573e-07
3.96762e-07
3.97794e-07
3.98826e-07
3.99856e-07
4.00886e-07
4.01915e-07
4.02944e-07
4.03971e-07
4.04999e-07
4.06025e-07
4.0705e-07
4.08075e-07
4.09099e-07
4.10122e-07
4.11145e-07
4.12167e-07
4.13187e-07
4.14208e-07
4.15227e-07
4.16246e-07
4.17264e-07
4.18281e-07
4.19297e-07
4.20313e-07
4.21328e-07
4.22342e-07
4.23355e-07
4.24368e-07
4.25379e-07
4.2639e-07
4.274e-07
4.28409e-07
4.29418e-07
4.30425e-07
4.31431e-07
4.32438e-07
4.33442e-07
4.34446e-07
4.36222e-07
1.69691e-07
6.79943e-07
4.0867e-07
7.13072e-07
2.35957e-07
7.35464e-07
5.01617e-07
6.91714e-07
5.76443e-07
7.01025e-07
7.01133e-07
7.63706e-07
7.00436e-07
7.75046e-07
7.00792e-07
3.31587e-07
7.00293e-07
7.27707e-07
7.74626e-07
3.88446e-07
7.76011e-07
7.00072e-07
6.72139e-07
7.00738e-07
6.93581e-07
7.71799e-07
7.17472e-07
7.72292e-07
6.9769e-07
6.73626e-07
7.0053e-07
6.72235e-07
7.7129e-07
7.60698e-07
7.77186e-07
7.0018e-07
6.80682e-07
7.0005e-07
6.94594e-07
7.76078e-07
7.17146e-07
7.74322e-07
6.98865e-07
6.81603e-07
7.00941e-07
7.0786e-07
7.73264e-07
6.79796e-07
7.74793e-07
7.00603e-07
6.60929e-07
7.00221e-07
7.24464e-07
7.74109e-07
5.84968e-07
7.74193e-07
6.99822e-07
6.74129e-07
6.94493e-07
6.68299e-07
7.72942e-07
7.29098e-07
7.67945e-07
6.92386e-07
6.67421e-07
2.30717e-07
7.47811e-07
7.62193e-07
6.40535e-07
3.10618e-07
2.37068e-07
7.26488e-07
5.01555e-07
7.10703e-07
2.35097e-07
6.86784e-07
5.08976e-07
7.63651e-07
6.34078e-07
7.73914e-07
6.73106e-07
7.64186e-07
5.68669e-07
7.72413e-07
7.74676e-07
3.97765e-07
7.7538e-07
5.87058e-07
7.74091e-07
6.42821e-07
7.75469e-07
7.71686e-07
7.11551e-07
7.69988e-07
7.34296e-07
7.72813e-07
7.36451e-07
7.71985e-07
7.71823e-07
7.70624e-07
7.7569e-07
6.56473e-07
7.7096e-07
6.28823e-07
7.77504e-07
7.74104e-07
7.13427e-07
7.73342e-07
6.77259e-07
7.78327e-07
7.28201e-07
7.74885e-07
7.71701e-07
6.69981e-07
7.7603e-07
7.16722e-07
7.73157e-07
6.52124e-07
7.74836e-07
7.74309e-07
5.841e-07
7.73851e-07
7.22392e-07
7.75286e-07
5.51666e-07
7.74141e-07
7.72917e-07
7.16553e-07
7.6802e-07
6.79788e-07
7.72718e-07
7.42199e-07
7.67685e-07
7.6151e-07
6.46202e-07
3.22505e-07
7.46833e-07
7.64737e-07
6.43648e-07
3.16123e-07
2.34017e-07
6.62321e-07
5.1074e-07
6.82701e-07
1.70883e-07
6.67407e-07
4.14813e-07
7.64299e-07
6.59806e-07
7.73169e-07
6.07635e-07
6.91241e-07
6.70097e-07
7.00529e-07
7.74565e-07
6.87542e-07
7.76082e-07
6.64333e-07
7.00606e-07
6.87726e-07
7.00371e-07
7.72758e-07
7.46389e-07
7.71011e-07
6.7939e-07
6.99126e-07
6.70452e-07
7.01227e-07
7.71021e-07
6.24739e-07
7.76336e-07
6.73664e-07
6.98387e-07
6.79178e-07
7.0017e-07
7.77031e-07
7.2883e-07
7.74634e-07
5.61534e-07
7.00605e-07
6.80507e-07
7.00269e-07
7.70854e-07
6.76996e-07
7.73486e-07
6.77073e-07
6.9966e-07
6.85818e-07
6.99276e-07
7.75687e-07
5.4553e-07
7.74924e-07
6.35871e-07
7.00643e-07
5.50479e-07
7.00423e-07
7.73044e-07
7.23256e-07
7.67461e-07
5.3938e-07
6.99785e-07
6.84385e-07
6.94299e-07
7.65554e-07
6.46029e-07
3.14186e-07
6.89674e-07
6.92468e-07
6.45196e-07
2.35173e-07
8.88237e-07
8.89856e-07
7.24708e-07
8.35992e-07
7.86818e-07
7.89986e-07
6.80194e-07
7.65084e-07
6.97951e-07
6.74317e-07
7.40213e-07
7.37518e-07
6.95815e-07
7.71504e-07
1.29566e-07
4.64899e-08
1.29565e-07
5.79322e-08
1.83829e-07
6.90412e-08
1.83827e-07
6.82143e-07
5.63805e-07
2.0311e-07
5.13544e-07
2.19754e-07
6.00478e-07
1.32117e-07
7.3327e-07
6.90183e-07
6.46526e-07
7.33951e-07
7.54094e-07
6.71291e-07
6.82595e-07
1.29421e-07
6.85679e-07
3.51617e-08
9.34746e-08
1.83537e-07
7.15406e-07
5.19786e-08
4.98009e-07
4.4871e-07
1.27225e-07
5.74138e-07
6.04911e-07
4.07575e-07
1.83907e-07
7.57098e-07
6.94218e-07
6.49336e-07
7.42844e-07
7.62963e-07
6.9566e-07
6.92598e-07
3.52776e-08
6.98882e-07
3.69211e-08
7.70014e-07
5.19826e-08
7.77139e-07
5.46939e-08
2.85279e-07
1.6616e-07
6.31321e-07
6.67949e-07
2.48398e-07
1.32149e-07
4.12016e-07
7.48533e-07
6.9305e-07
6.71324e-07
6.66157e-07
7.559e-07
7.29861e-07
6.25018e-07
4.41877e-08
7.002e-07
1.15813e-07
7.7439e-07
6.52795e-08
7.71633e-07
1.63929e-07
6.50733e-07
6.15732e-07
6.34554e-07
2.44128e-07
3.67508e-07
3.83784e-07
5.68788e-07
7.53707e-07
6.95011e-07
6.58893e-07
6.98422e-07
7.6451e-07
6.95933e-07
6.90278e-07
1.75339e-07
9.03301e-07
3.13569e-07
9.32067e-07
2.40314e-07
9.32654e-07
3.85647e-07
4.69246e-07
8.91339e-07
8.82433e-07
5.47671e-07
2.30348e-07
9.06722e-07
9.15748e-07
7.60982e-07
6.97305e-07
4.66118e-07
7.21819e-07
7.68164e-07
5.97699e-07
6.91083e-07
3.2585e-07
9.02857e-07
1.67133e-07
9.32072e-07
3.95519e-07
9.30859e-07
2.28143e-07
7.7661e-07
7.76006e-07
6.84472e-07
3.9837e-07
6.34043e-07
4.9625e-07
7.47952e-07
7.53861e-07
6.93885e-07
3.94187e-07
7.34005e-07
7.65274e-07
4.74931e-07
6.9143e-07
1.06554e-07
7.01104e-07
4.38397e-08
7.69399e-07
1.51468e-07
7.76506e-07
6.48047e-08
8.06714e-07
5.64422e-07
4.46069e-07
2.86819e-07
6.91746e-07
6.13407e-07
3.18543e-07
7.61935e-07
6.9597e-07
6.9451e-07
7.10396e-07
7.67571e-07
6.98001e-07
6.93458e-07
3.71691e-08
6.96128e-07
3.50588e-08
7.75819e-07
5.50786e-08
7.71392e-07
5.19867e-08
1.91385e-07
8.4728e-07
8.56377e-07
4.58256e-07
3.89127e-07
9.02598e-07
8.07224e-07
6.22548e-07
6.9213e-07
3.63496e-07
6.12835e-07
7.5179e-07
5.24526e-07
5.36796e-07
3.5209e-08
8.77037e-08
3.52267e-08
7.66069e-07
5.198e-08
1.25983e-07
5.20169e-08
8.65312e-07
2.21179e-07
2.81122e-07
6.28351e-07
6.1344e-07
3.57343e-07
6.02497e-07
7.73549e-07
6.93943e-07
6.62899e-07
7.28301e-07
7.62725e-07
6.89942e-07
6.99226e-07
1.29509e-07
4.03859e-08
1.29567e-07
9.55469e-08
1.83717e-07
5.95451e-08
1.83832e-07
5.24825e-07
3.22925e-07
6.82776e-07
8.82201e-07
7.70446e-07
2.23942e-07
5.39053e-07
7.31524e-07
7.71012e-07
6.98481e-07
7.04055e-07
7.39839e-07
7.21645e-07
7.71187e-07
1.83824e-07
6.91242e-08
1.83821e-07
5.84361e-08
1.83824e-07
6.89875e-08
1.83821e-07
3.11166e-07
4.48034e-07
1.50484e-07
2.00926e-07
2.97869e-07
6.39009e-07
1.61052e-07
6.78464e-07
7.347e-07
6.21555e-07
6.64197e-07
6.78746e-07
7.32419e-07
5.98291e-07
1.83532e-07
7.08319e-07
5.1978e-08
9.34905e-08
1.83533e-07
7.03417e-07
5.1978e-08
3.73287e-07
4.69624e-07
3.22506e-07
2.8537e-07
2.86654e-07
3.15017e-07
7.42861e-07
4.65134e-07
7.39959e-07
3.68796e-07
6.89595e-07
4.64178e-07
7.34877e-07
3.6977e-07
5.19822e-08
7.77521e-07
5.47523e-08
7.7097e-07
5.19821e-08
7.7732e-07
5.47473e-08
1.98937e-07
1.44895e-07
4.7563e-07
3.30897e-07
3.99194e-07
4.5955e-07
1.96626e-07
7.35491e-07
7.25686e-07
6.78004e-07
7.34317e-07
7.41014e-07
7.309e-07
6.53374e-07
6.53208e-08
7.73687e-07
1.63797e-07
7.74894e-07
6.5297e-08
7.71499e-07
1.63866e-07
5.73719e-07
5.69049e-07
6.49963e-07
5.44204e-07
3.12949e-07
4.19538e-07
5.38642e-07
7.24174e-07
7.39812e-07
6.547e-07
6.55511e-07
7.25615e-07
7.36989e-07
5.67088e-07
2.40306e-07
9.32026e-07
3.8211e-07
9.31535e-07
2.40594e-07
9.31864e-07
3.8142e-07
2.14888e-07
9.01112e-07
8.44563e-07
5.45738e-07
5.15466e-07
9.05698e-07
9.10646e-07
7.56835e-07
7.46647e-07
6.3202e-07
6.40207e-07
7.57106e-07
7.33744e-07
6.11324e-07
3.93754e-07
9.31172e-07
2.28094e-07
9.3126e-07
3.92033e-07
9.30381e-07
2.28008e-07
6.47778e-07
5.44199e-07
5.76613e-07
6.07276e-07
6.99935e-07
2.83807e-07
6.51971e-07
7.41889e-07
7.58381e-07
5.99911e-07
7.16535e-07
7.43403e-07
7.54336e-07
6.1928e-07
1.51516e-07
7.76393e-07
6.48712e-08
7.74537e-07
1.51431e-07
7.76643e-07
6.48716e-08
5.13096e-07
2.92155e-07
3.72108e-07
3.60057e-07
8.13037e-07
3.29969e-07
2.73786e-07
7.62304e-07
7.50047e-07
5.32238e-07
7.25953e-07
7.53955e-07
7.49533e-07
4.76937e-07
5.51425e-08
7.71178e-07
5.19864e-08
7.75451e-07
5.51397e-08
7.71314e-07
5.19864e-08
5.36211e-07
3.16667e-07
5.34879e-07
6.5815e-07
4.94857e-07
7.17521e-07
5.06007e-07
7.05392e-07
7.13843e-07
3.65503e-07
6.90082e-07
6.86081e-07
7.06967e-07
3.31464e-07
5.19796e-08
1.26004e-07
5.20164e-08
7.66373e-07
5.19796e-08
1.26011e-07
5.20164e-08
6.76499e-07
4.26982e-07
5.66371e-07
5.35672e-07
4.60928e-07
4.48516e-07
5.69191e-07
7.57866e-07
7.64832e-07
7.2534e-07
7.35202e-07
7.67806e-07
7.67308e-07
6.86922e-07
1.83712e-07
5.95481e-08
1.83826e-07
9.56233e-08
1.83712e-07
5.94192e-08
1.83827e-07
7.99266e-07
3.91186e-07
6.21643e-07
6.3732e-07
4.44011e-07
5.44639e-07
1.94581e-07
7.42654e-07
7.70581e-07
6.01777e-07
7.41727e-07
7.35996e-07
5.60422e-07
7.73954e-07
1.83829e-07
6.88832e-08
1.83827e-07
3.92499e-08
1.29566e-07
4.63272e-08
1.29565e-07
2.35677e-07
5.11492e-07
6.2928e-07
2.46861e-07
3.95224e-07
8.76843e-07
8.61744e-07
7.0378e-07
7.25798e-07
6.39981e-07
7.01365e-07
6.82607e-07
7.31067e-07
6.59684e-07
1.83537e-07
7.10848e-07
5.19785e-08
6.4028e-08
1.29421e-07
6.75572e-07
3.51618e-08
7.3545e-07
5.93097e-07
7.99104e-07
7.28693e-07
8.61439e-07
8.56327e-07
6.78847e-07
6.26222e-07
7.50871e-07
6.20865e-07
7.29139e-07
5.92082e-07
7.61353e-07
6.16759e-07
5.19825e-08
7.77029e-07
5.46877e-08
6.95665e-07
3.51799e-08
6.98917e-07
3.69171e-08
5.29725e-07
4.76516e-07
3.3991e-07
6.50293e-07
6.8042e-07
6.08592e-07
6.30324e-07
7.42034e-07
7.5102e-07
6.42758e-07
6.97561e-07
7.41238e-07
7.60949e-07
6.83148e-07
6.52482e-08
7.74243e-07
1.63837e-07
7.01006e-07
4.41675e-08
7.01463e-07
1.15915e-07
4.64533e-07
3.81914e-07
4.64274e-07
6.47116e-07
6.11855e-07
6.42737e-07
2.7782e-07
7.7333e-07
7.48506e-07
5.85328e-07
6.84125e-07
7.63047e-07
7.5495e-07
6.33269e-07
2.40766e-07
9.32373e-07
3.83722e-07
9.0272e-07
1.75567e-07
9.03279e-07
3.1466e-07
6.46692e-07
9.02655e-07
8.93147e-07
6.14051e-07
2.05356e-07
8.60421e-07
8.51701e-07
7.6742e-07
7.48759e-07
5.7384e-07
5.53526e-07
7.69135e-07
7.66762e-07
5.91284e-07
3.96012e-07
9.31763e-07
2.2856e-07
9.03053e-07
3.26428e-07
9.0253e-07
1.67071e-07
8.33228e-07
6.76545e-07
8.34084e-07
8.79243e-07
8.85772e-07
8.79934e-07
8.59161e-07
7.5705e-07
7.58024e-07
6.53423e-07
6.96864e-07
7.56365e-07
7.5969e-07
7.52977e-07
1.51461e-07
7.75975e-07
6.4805e-08
7.00674e-07
1.06427e-07
7.0102e-07
4.38665e-08
8.26486e-07
4.13616e-07
6.39837e-07
6.0766e-07
8.45556e-07
4.80657e-07
2.51763e-07
7.51505e-07
7.65047e-07
4.1894e-07
6.33175e-07
7.54421e-07
7.64696e-07
4.82273e-07
5.50743e-08
7.71345e-07
5.19867e-08
6.99261e-07
3.71504e-08
6.95019e-07
3.50589e-08
4.69629e-07
4.80529e-07
4.58037e-07
5.32595e-07
1.41376e-07
6.61821e-07
4.54732e-07
6.83601e-07
7.37608e-07
3.26595e-07
6.69296e-07
6.89567e-07
7.54265e-07
3.43122e-07
5.198e-08
1.25988e-07
5.20168e-08
6.93884e-07
3.51417e-08
8.75798e-08
3.52278e-08
4.86324e-07
3.76532e-07
5.9552e-07
6.26869e-07
6.5392e-07
5.61815e-07
5.87318e-07
7.67347e-07
7.70924e-07
6.67518e-07
7.4272e-07
7.59797e-07
7.67935e-07
6.80956e-07
1.83717e-07
5.94349e-08
1.83832e-07
6.55948e-08
1.29509e-07
4.03046e-08
1.29567e-07
7.71461e-07
6.97931e-07
1.79985e-07
2.33896e-07
2.45338e-07
6.96889e-07
7.72643e-07
7.47702e-07
6.52747e-07
6.90996e-07
7.44978e-07
6.64402e-07
7.58367e-07
6.80356e-07
7.62835e-07
2.08224e-07
6.98182e-07
5.04475e-07
2.79195e-07
7.71648e-07
6.93694e-07
7.5573e-07
7.3049e-07
7.74434e-07
7.29405e-07
7.21844e-07
7.48538e-07
7.72513e-07
7.70271e-07
2.34487e-07
7.71282e-07
2.45887e-07
2.44674e-07
7.68823e-07
7.71898e-07
7.41028e-07
7.34064e-07
6.42815e-07
7.58961e-07
6.501e-07
7.52934e-07
7.38083e-07
7.57192e-07
5.03071e-07
2.77299e-07
7.64538e-07
2.77027e-07
7.68086e-07
7.51446e-07
7.67484e-07
6.97242e-07
6.94509e-07
7.65253e-07
7.7149e-07
7.68109e-07
6.96954e-07
7.57528e-07
6.50572e-07
6.63273e-07
6.60553e-07
6.87078e-07
7.34633e-07
6.94123e-07
7.73288e-07
6.98846e-07
6.96358e-07
7.77018e-07
7.73906e-07
7.72635e-07
6.99377e-07
7.15938e-07
7.10609e-07
7.30865e-07
6.41241e-07
7.37813e-07
6.54942e-07
6.9934e-07
7.64028e-07
7.64191e-07
7.69306e-07
7.66808e-07
7.69421e-07
7.67678e-07
7.61577e-07
7.4879e-07
6.99702e-07
6.70655e-07
7.55185e-07
6.66031e-07
7.4766e-07
7.48055e-07
7.74056e-07
7.75967e-07
7.70489e-07
7.73745e-07
7.72157e-07
7.73495e-07
7.74637e-07
7.72504e-07
7.00275e-07
7.0075e-07
7.76397e-07
7.74437e-07
7.75173e-07
6.99658e-07
6.66868e-07
4.00011e-07
6.93397e-07
4.1762e-07
3.27416e-07