/*--------------------------------*- C++ -*----------------------------------*\
| =========                 |                                                 |
| \\      /  F ield         | OpenFOAM: The Open Source CFD Toolbox           |
|  \\    /   O peration     | Version:  5.0                                   |
|   \\  /    A nd           | Web:      www.OpenFOAM.org                      |
|    \\/     M anipulation  |                                                 |
\*---------------------------------------------------------------------------*/
FoamFile
{
    version     2.0;
    format      ascii;
    class       volVectorField;
    location    "3.7";
    object      U;
}
// * * * * * * * * * * * * * * * * * * * * * * * * * * * * * * * * * * * * * //

dimensions      [0 1 -1 0 0 0 0];

internalField   nonuniform List<vector> 
8864
(
(-0.00917967 -0.0101863 -0.000671086)
(0.0102111 -0.00294648 -0.00546929)
(-0.015194 -0.00922522 4.08228e-06)
(-0.00020622 -0.00406329 -0.00016293)
(0.00427815 -0.00803573 -1.00598e-05)
(0.00335191 -0.00936433 -0.000361285)
(0.00040167 -0.000125368 4.02485e-05)
(0.000982936 -7.34603e-05 -1.66038e-06)
(0.000872719 -1.75593e-06 -5.50872e-07)
(0.000852737 -7.27936e-06 4.05051e-08)
(0.000838293 -2.91489e-06 8.08809e-08)
(0.000829362 -1.94709e-06 5.22265e-08)
(0.000824101 -1.04314e-06 -1.79222e-08)
(0.000819982 -5.45716e-07 6.88329e-08)
(0.000816952 -4.39339e-07 4.57816e-08)
(0.000814439 -4.94506e-07 -1.69948e-08)
(0.000812179 -2.97381e-07 5.11146e-08)
(0.000810542 -2.16571e-07 8.66206e-08)
(0.000808765 -3.86548e-07 9.45011e-08)
(0.000807074 -2.82658e-07 1.21743e-07)
(0.000805716 -2.84999e-07 5.74764e-08)
(0.00080405 -8.17832e-08 7.69133e-08)
(0.000802603 1.8489e-08 6.00554e-08)
(0.000801365 -4.60232e-08 4.57723e-08)
(0.000799879 -2.11949e-09 5.32621e-08)
(0.000798324 -1.8227e-09 5.223e-08)
(0.000796694 2.52711e-08 3.90582e-08)
(0.000795326 2.90587e-08 4.82804e-08)
(0.000793816 1.6599e-07 1.50141e-07)
(0.000792379 -1.47438e-07 6.56515e-08)
(0.000790874 -4.45852e-07 7.6371e-08)
(0.000789256 -4.94125e-07 3.6042e-08)
(0.000787831 -3.38063e-07 8.05719e-08)
(0.000786783 7.12574e-08 7.31126e-08)
(0.000785543 1.85332e-07 4.15835e-08)
(0.000783822 8.49653e-08 1.10854e-07)
(0.000782243 -6.49071e-08 6.82286e-08)
(0.0007805 2.09939e-07 2.26775e-08)
(0.000779689 6.21454e-07 7.11451e-08)
(0.000778733 2.28449e-07 1.01542e-07)
(0.000776946 6.35934e-08 2.58446e-08)
(0.000775414 1.10534e-07 6.62276e-08)
(0.000774401 -1.8104e-07 5.40695e-08)
(0.000772761 -3.33034e-07 7.47022e-09)
(0.000770909 -1.6244e-07 3.21666e-08)
(0.00076958 -5.14063e-08 -6.31014e-08)
(0.000768481 7.39819e-08 5.26543e-08)
(0.000767411 -9.3381e-08 6.40815e-08)
(0.000765646 -3.69518e-07 4.5809e-08)
(0.000764057 -3.04741e-07 6.42813e-09)
(0.00896456 -0.000303671 -0.000330868)
(-0.00140642 -0.0145914 2.04276e-05)
(0.0241294 -0.0134087 -0.00521277)
(0.00675184 -0.0153112 0.00110439)
(-0.0133959 0.0180155 0.00122855)
(0.00620216 0.00379881 0.000222248)
(0.00047922 -0.000139586 3.35396e-05)
(0.000508377 -4.22615e-07 -1.24212e-06)
(0.000915899 3.68851e-05 -1.31905e-06)
(0.000833745 1.25018e-05 -4.15887e-07)
(0.000836703 8.39199e-06 1.57081e-07)
(0.000827329 4.6223e-06 2.57354e-08)
(0.000822977 2.72324e-06 4.79497e-08)
(0.000819265 1.48675e-06 4.46942e-08)
(0.000816429 8.90207e-07 5.08143e-08)
(0.000814293 3.64718e-07 6.54168e-08)
(0.00081245 2.78211e-07 2.48596e-08)
(0.000810288 1.04797e-07 7.65845e-08)
(0.000808722 2.06692e-07 4.41319e-08)
(0.000807313 2.12774e-07 2.74852e-08)
(0.000805723 3.17456e-07 8.47362e-08)
(0.000804314 1.86897e-07 6.10267e-08)
(0.000802584 4.39272e-07 3.21373e-08)
(0.000801102 2.62043e-07 2.37839e-08)
(0.000799747 2.1426e-08 5.07101e-08)
(0.000798242 -1.75419e-07 4.56642e-08)
(0.00079682 -2.05815e-07 3.3403e-08)
(0.00079544 -2.38279e-07 4.36838e-08)
(0.000793753 -5.25128e-07 6.94007e-08)
(0.000791915 -4.45782e-07 7.65613e-08)
(0.000790645 -2.88505e-07 -1.12092e-07)
(0.000789429 -1.04288e-07 2.05218e-08)
(0.000788431 3.91502e-07 1.25567e-07)
(0.000787301 4.73924e-07 1.03059e-07)
(0.000785361 1.76334e-08 4.31061e-08)
(0.000783746 1.41023e-07 3.98885e-08)
(0.000782633 2.53771e-07 4.28879e-08)
(0.000781545 4.1054e-07 4.07983e-09)
(0.000779573 7.3998e-07 9.66958e-09)
(0.000777673 3.8337e-07 2.31707e-09)
(0.0007766 1.78206e-07 5.80964e-08)
(0.00077524 1.61792e-08 -1.73905e-08)
(0.000773636 -1.36209e-07 6.75553e-09)
(0.000772661 -4.37122e-07 9.55742e-08)
(0.000771564 -8.99907e-08 3.805e-08)
(0.000769965 4.21243e-08 6.84625e-08)
(0.000768451 3.70578e-07 5.25485e-08)
(0.000766911 8.13024e-08 -1.21108e-08)
(0.000765553 -8.4141e-08 -7.17578e-08)
(0.000764546 -1.64727e-07 1.09805e-07)
(-0.00364037 -0.0147739 0.00094118)
(-0.0152992 0.0127882 -0.00405495)
(-0.00224538 0.0313824 0.00185125)
(-0.00833928 0.0406149 0.000258109)
(-0.0125982 -0.0188752 -0.000731052)
(0.00716383 -0.00377792 -0.000102741)
(0.000625532 0.000406745 0.000161949)
(0.000469016 4.16649e-05 -1.92837e-06)
(0.000893199 3.66945e-05 -1.78587e-06)
(0.00081679 2.16316e-05 -5.90835e-07)
(0.000828342 1.30953e-05 1.65162e-07)
(0.000822215 7.90676e-06 2.0992e-08)
(0.000820147 4.8246e-06 5.2738e-08)
(0.000817671 2.97814e-06 4.9209e-08)
(0.000815538 1.87529e-06 5.13229e-08)
(0.000813668 1.26816e-06 5.13959e-08)
(0.000811851 7.4918e-07 5.5695e-08)
(0.000810451 5.0976e-07 7.25109e-08)
(0.000808898 4.56009e-07 9.9634e-08)
(0.00080721 2.576e-07 4.11122e-08)
(0.000805681 2.28708e-07 3.69098e-08)
(0.000804199 1.53414e-07 4.46639e-08)
(0.000802694 7.06518e-08 8.05989e-08)
(0.00080084 1.62059e-07 -8.1432e-08)
(0.000799331 1.15623e-07 5.11102e-08)
(0.000798041 8.19197e-08 3.3203e-08)
(0.000796617 -1.18093e-08 1.29483e-08)
(0.000794931 -6.34972e-08 5.83852e-08)
(0.000793561 -1.35175e-07 -3.02566e-09)
(0.00079268 2.81391e-07 2.11616e-08)
(0.000791304 4.47267e-07 1.51084e-07)
(0.000790106 5.06124e-07 5.31597e-08)
(0.000788552 4.44165e-07 -5.6027e-09)
(0.000786312 1.46542e-07 9.71928e-09)
(0.000785124 -7.30025e-08 9.26371e-08)
(0.000784116 6.24758e-08 5.20858e-08)
(0.000782577 2.87613e-08 5.17466e-08)
(0.000781103 -7.4971e-08 5.19501e-08)
(0.000779651 -2.68444e-07 2.49344e-08)
(0.000778027 3.3319e-08 2.84504e-08)
(0.000776485 1.66923e-08 3.73174e-08)
(0.000775021 5.421e-08 4.36446e-08)
(0.000773837 3.20193e-07 7.25209e-08)
(0.000772822 5.0015e-07 9.53995e-08)
(0.000771511 2.36962e-07 9.54943e-08)
(0.000770156 2.0892e-07 1.22277e-07)
(0.00076853 2.52781e-07 1.39776e-07)
(0.000766843 4.04465e-07 8.11071e-08)
(0.000765344 2.40624e-07 5.88768e-08)
(0.000764365 1.36485e-07 1.03699e-07)
(0.00651156 -0.00609107 4.72197e-06)
(-0.00405148 -0.000274187 -0.000668125)
(0.0065168 -0.00807519 -9.63866e-05)
(-0.00632617 -0.00512826 -7.96505e-05)
(0.00915176 -0.0154438 0.000941007)
(0.0185674 -0.00139335 -0.000180264)
(0.000924146 0.000859665 1.36286e-05)
(0.000324624 -8.28489e-06 5.5527e-06)
(0.000858587 2.65297e-05 -1.51688e-06)
(0.000804013 1.73832e-05 -5.69973e-08)
(0.000819446 1.16886e-05 1.73932e-07)
(0.00081693 7.6216e-06 3.23875e-08)
(0.000816779 4.86849e-06 5.90503e-08)
(0.000815556 3.14333e-06 5.15861e-08)
(0.000814278 2.06869e-06 5.09421e-08)
(0.000812877 1.40301e-06 5.02319e-08)
(0.000811497 8.82194e-07 4.83253e-08)
(0.000809919 6.86064e-07 -1.31449e-08)
(0.000808405 2.54005e-07 5.46104e-08)
(0.000807028 -1.2638e-07 3.19565e-08)
(0.000805592 -6.61535e-08 7.83742e-08)
(0.000804116 -7.83398e-08 5.11858e-08)
(0.000802594 -1.33562e-07 2.89531e-08)
(0.000801157 -5.84789e-08 5.70309e-08)
(0.000799645 8.96378e-08 2.6147e-08)
(0.000798082 2.2102e-07 2.90312e-08)
(0.000796638 3.20249e-07 6.30436e-08)
(0.000795286 4.83318e-07 5.507e-08)
(0.000794182 7.95572e-07 3.85489e-08)
(0.00079264 6.93537e-07 6.00182e-08)
(0.000790921 3.99353e-07 1.18862e-08)
(0.00078942 5.10094e-07 -1.15479e-08)
(0.000787978 -5.01718e-09 4.23369e-08)
(0.000786653 -3.60438e-08 4.61937e-08)
(0.000785255 2.06915e-07 5.51574e-08)
(0.000783873 3.04036e-08 4.11779e-08)
(0.000782462 -9.03208e-08 3.64076e-08)
(0.000781174 -1.73497e-07 4.04862e-08)
(0.000779709 -3.82191e-07 2.42578e-08)
(0.00077803 -5.27993e-07 -5.7153e-08)
(0.000776626 -2.79544e-07 -6.04548e-08)
(0.000775617 -1.31871e-07 7.75781e-08)
(0.00077419 5.26411e-08 1.66441e-07)
(0.000772553 1.21484e-07 -6.38638e-08)
(0.000771196 4.22475e-08 -1.13836e-08)
(0.000769982 1.58227e-08 4.40312e-08)
(0.000768692 2.3456e-08 7.59275e-08)
(0.000766894 2.8605e-07 4.99303e-08)
(0.000765214 1.55912e-07 4.47283e-08)
(0.000764074 2.50007e-07 1.624e-07)
(0.00332922 0.00662898 -2.52401e-05)
(0.000756284 0.0184061 0.000912776)
(7.7945e-05 0.0092612 -0.00129507)
(0.00366525 0.0210139 -0.00579512)
(-0.00472825 0.00378068 -0.00194421)
(0.00442841 0.0040072 -9.85325e-06)
(0.000478772 0.000513121 2.66402e-05)
(0.000476318 -5.9011e-05 4.29537e-05)
(0.000876561 1.71715e-05 -9.00764e-07)
(0.000798214 1.10187e-05 -6.04205e-07)
(0.000816085 7.96909e-06 1.88534e-07)
(0.000813652 5.24331e-06 -6.5785e-09)
(0.000814523 3.48461e-06 2.76045e-07)
(0.000814154 2.20821e-06 5.15698e-08)
(0.000813351 1.36118e-06 5.24362e-08)
(0.000812177 8.38976e-07 1.61245e-08)
(0.000810948 5.99895e-07 5.15986e-08)
(0.000809662 4.21079e-07 4.55404e-08)
(0.000807881 4.19092e-07 5.57217e-08)
(0.00080681 5.56136e-07 9.98968e-08)
(0.000805742 1.26838e-07 6.86622e-08)
(0.000804117 1.99922e-07 2.26848e-07)
(0.000802721 1.4465e-07 3.65939e-08)
(0.00080112 1.37275e-07 9.04336e-08)
(0.00079968 6.73939e-08 7.16785e-08)
(0.000798327 -6.51287e-09 6.55061e-08)
(0.000796942 2.00154e-07 6.61855e-08)
(0.000795519 3.03907e-07 3.59836e-08)
(0.000793817 4.13468e-07 2.36152e-07)
(0.000792177 3.52291e-07 4.92097e-09)
(0.000791068 1.57608e-07 8.4171e-08)
(0.000789596 -1.7157e-07 3.58389e-08)
(0.000787866 7.51973e-08 3.05033e-08)
(0.000786575 1.54993e-08 4.74753e-08)
(0.000785207 4.56741e-08 4.75338e-08)
(0.000783743 -5.45991e-08 4.65501e-08)
(0.000782323 -8.20775e-08 4.95736e-08)
(0.00078074 -1.52177e-07 6.66073e-08)
(0.00077921 -2.4665e-07 4.00576e-08)
(0.000778158 -3.81974e-07 1.0372e-07)
(0.000776982 -6.80506e-08 5.60504e-08)
(0.000775436 5.27538e-08 6.93949e-08)
(0.000774152 -7.90224e-08 2.16623e-08)
(0.000772807 -1.45405e-07 7.15111e-08)
(0.000771378 -1.62163e-07 4.23039e-08)
(0.000770132 -2.52179e-07 4.81257e-08)
(0.000768867 -5.51061e-07 1.09547e-08)
(0.000767007 -8.73737e-07 4.34787e-08)
(0.000765293 -3.38232e-07 6.02623e-08)
(0.000763861 3.7899e-08 4.99758e-08)
(-0.00226785 0.00754361 0.000416754)
(-0.00815836 -0.0102178 -0.00138344)
(0.00773479 0.00166095 -0.00114297)
(-0.00642176 -0.00200496 -0.00141703)
(-0.00386722 -0.00939709 8.47251e-05)
(0.00678777 0.00271298 0.000367039)
(0.000980757 9.08579e-05 -7.80607e-06)
(0.000475342 3.40338e-05 3.62592e-05)
(0.000861969 1.08354e-05 -9.93088e-07)
(0.00079243 7.48337e-06 -5.98513e-07)
(0.000812209 3.84401e-06 1.90463e-07)
(0.000811309 2.23057e-06 1.37195e-07)
(0.000812975 1.32711e-06 8.9286e-08)
(0.000812894 7.36187e-07 5.11331e-08)
(0.000812562 3.99376e-07 6.83862e-08)
(0.000811923 1.70877e-07 7.18786e-08)
(0.000810974 1.28272e-07 4.91552e-08)
(0.000809692 1.1321e-07 3.89551e-08)
(0.000808572 2.87208e-07 1.88065e-08)
(0.000806661 5.87324e-07 3.73372e-08)
(0.000805145 4.15526e-07 1.72236e-07)
(0.000804138 2.66387e-07 2.40144e-08)
(0.000802515 8.06213e-08 5.4951e-08)
(0.00080106 8.20687e-08 1.33285e-08)
(0.000799466 1.62243e-07 5.26825e-08)
(0.000798248 1.65532e-07 -5.78025e-09)
(0.000797025 -4.59642e-08 3.88996e-08)
(0.00079555 -1.82605e-07 8.10064e-09)
(0.00079424 -1.08115e-07 3.58278e-08)
(0.000792318 -4.39163e-07 -1.0828e-07)
(0.000790265 -3.11153e-07 9.47621e-09)
(0.000789315 -3.30092e-07 -1.18137e-08)
(0.000788212 -2.65865e-07 1.41882e-08)
(0.000786615 -1.67846e-07 5.55117e-08)
(0.000785167 -2.20685e-07 3.15773e-08)
(0.000783713 -1.27509e-07 4.26811e-08)
(0.000782341 -7.06151e-08 5.85294e-08)
(0.00078097 -2.49345e-09 5.11876e-08)
(0.000779424 1.81366e-07 6.86018e-08)
(0.000778255 3.29231e-07 6.81326e-08)
(0.00077717 2.87233e-07 1.24483e-07)
(0.000775604 2.36632e-07 7.06844e-09)
(0.000773943 2.0739e-07 1.84731e-08)
(0.000772451 2.96244e-08 5.82951e-08)
(0.000771065 -7.88587e-08 4.06974e-08)
(0.0007695 -2.00077e-07 4.50561e-08)
(0.00076792 -5.23365e-07 -6.75165e-08)
(0.000767164 -7.22795e-07 6.83706e-08)
(0.000766355 -4.79925e-07 9.11557e-08)
(0.00076445 -3.29867e-07 1.31688e-07)
(-0.000334478 -0.00181736 5.20563e-06)
(-0.00287461 -4.03001e-05 0.00163021)
(-0.0185418 -8.67049e-06 -0.000918766)
(-0.000964929 -0.00617607 -8.18773e-05)
(-0.0165583 0.000834908 -0.000171484)
(0.00480795 0.0056361 -0.000285187)
(-0.000341441 0.000661423 5.17894e-05)
(0.000458666 6.78117e-05 3.48198e-05)
(0.000834575 -9.81494e-06 -1.4245e-06)
(0.000789648 -5.89752e-06 -3.8014e-07)
(0.000809517 -4.17902e-06 1.87089e-07)
(0.000810507 -2.75901e-06 -3.37568e-08)
(0.000812658 -1.89312e-06 6.2651e-08)
(0.000812997 -1.22988e-06 5.50023e-08)
(0.000812647 -8.05436e-07 3.33848e-08)
(0.00081184 -4.98707e-07 5.28486e-08)
(0.000810878 -4.75365e-07 5.4931e-08)
(0.000809861 -4.24206e-07 6.3962e-08)
(0.000808473 -4.13989e-07 4.65793e-08)
(0.000806968 -3.64747e-07 6.32788e-08)
(0.000805338 4.80351e-08 -7.37635e-08)
(0.000803696 -9.10807e-08 4.60929e-08)
(0.000802489 8.22301e-08 8.41472e-08)
(0.000801221 2.00972e-10 5.18931e-08)
(0.000799783 7.9112e-08 2.6398e-09)
(0.000798066 1.58668e-07 9.02507e-08)
(0.000796507 -9.71357e-08 4.92101e-08)
(0.000795443 -2.92959e-07 4.33417e-08)
(0.000793499 -7.7009e-07 -4.66955e-08)
(0.000791927 -9.09426e-07 1.11587e-07)
(0.000791208 -5.92374e-07 -9.32385e-08)
(0.000789656 -7.12329e-08 7.49245e-08)
(0.000788072 1.62154e-08 3.79432e-08)
(0.000786634 -4.9237e-08 7.52629e-08)
(0.000785259 -5.75017e-08 7.94419e-08)
(0.000783932 3.0849e-08 2.01969e-07)
(0.00078248 -6.09102e-09 5.0252e-08)
(0.000781055 5.31871e-08 4.85053e-08)
(0.000779624 1.16826e-07 3.91604e-08)
(0.000778289 4.38519e-07 8.94751e-09)
(0.000776864 1.70113e-07 2.90526e-08)
(0.000775335 1.02886e-07 -7.51715e-09)
(0.000773893 -4.27572e-08 6.41575e-08)
(0.000772449 2.68463e-08 4.46615e-08)
(0.000771092 1.33387e-08 1.29752e-08)
(0.000769579 3.3428e-08 4.84002e-08)
(0.000768218 2.63799e-08 -6.99265e-08)
(0.000767067 1.6087e-07 5.13227e-08)
(0.000765793 -2.15621e-07 3.97707e-08)
(0.000764871 -3.1878e-07 4.75843e-08)
(0.0108512 -0.00295764 -0.000584493)
(0.0057173 0.00389693 0.000502032)
(0.00214311 0.0080118 0.000291352)
(0.000702639 0.0055064 0.000324833)
(-0.00428855 0.00855529 -0.00739608)
(-0.00540493 0.000787061 -0.000510012)
(0.000523113 -0.00119644 -1.37983e-05)
(0.000492632 -7.44633e-06 3.70841e-06)
(0.00086873 -2.34411e-05 -1.42245e-06)
(0.000799533 -1.5496e-05 -5.82522e-07)
(0.000816185 -1.02918e-05 1.51272e-07)
(0.000814202 -6.64904e-06 3.56289e-08)
(0.000814909 -4.28751e-06 5.68696e-08)
(0.000814269 -2.74769e-06 5.01044e-08)
(0.000813485 -1.74182e-06 5.05128e-08)
(0.000812342 -1.09684e-06 5.36835e-08)
(0.000811071 -5.65701e-07 1.49453e-07)
(0.000809771 -3.34777e-07 1.4812e-07)
(0.000808649 -4.01434e-07 3.742e-10)
(0.00080724 -4.10937e-07 2.7532e-08)
(0.000805488 -3.55041e-07 4.77777e-08)
(0.00080418 -1.51168e-07 7.27181e-08)
(0.00080263 -1.56216e-07 -1.86323e-09)
(0.000801055 -1.1789e-07 4.70013e-08)
(0.000799663 -2.79331e-07 5.70991e-08)
(0.000798027 -3.0765e-07 -1.21782e-07)
(0.000796461 -1.17759e-07 3.80987e-08)
(0.000794712 -9.52382e-08 1.65741e-07)
(0.000793475 -2.35892e-07 1.48196e-07)
(0.000792546 3.35134e-07 7.31283e-08)
(0.000791317 3.73633e-07 9.14202e-08)
(0.000790078 9.11925e-08 3.52925e-08)
(0.00078824 -2.33448e-08 4.77563e-08)
(0.000786524 1.29069e-07 4.92657e-08)
(0.000785268 6.04285e-08 4.2322e-08)
(0.000783778 -1.69779e-08 3.56434e-08)
(0.000782369 -1.58515e-07 5.6585e-08)
(0.000781124 -5.67835e-08 5.03689e-08)
(0.000779904 5.72235e-08 4.20239e-08)
(0.00077832 8.15241e-08 8.7759e-08)
(0.000776749 4.14464e-09 1.90262e-08)
(0.000775337 9.56041e-08 4.51465e-08)
(0.000773848 1.19378e-07 5.53868e-08)
(0.000772521 1.30938e-07 4.88069e-08)
(0.000771074 8.93666e-08 4.40761e-08)
(0.000769516 1.29261e-07 4.70003e-08)
(0.00076808 4.73434e-07 4.09325e-08)
(0.000766863 3.27568e-07 5.32572e-08)
(0.000765764 1.83929e-07 5.41001e-08)
(0.000765116 -2.38294e-08 6.89934e-08)
(0.00678477 0.00673199 0.000549466)
(-0.00433698 0.00763448 0.000325216)
(0.00545039 0.00481518 -0.00074151)
(0.0090229 0.000397768 0.0010087)
(-0.00164589 -0.0116404 -0.000111939)
(-0.00891045 0.00237417 -5.71898e-05)
(0.00184593 -0.000372248 0.000116379)
(0.000458257 1.55784e-05 7.71452e-07)
(0.000863867 -4.22522e-05 -1.26551e-06)
(0.00080618 -1.94729e-05 -3.35581e-07)
(0.000820664 -1.39706e-05 1.76863e-07)
(0.000818069 -8.44399e-06 3.88206e-08)
(0.000817571 -5.37296e-06 5.90043e-08)
(0.000816201 -3.41076e-06 5.39929e-08)
(0.000814725 -1.9917e-06 5.06931e-08)
(0.000813319 -1.11392e-06 1.14802e-07)
(0.000811835 -5.7633e-07 4.32547e-08)
(0.00081007 -2.90063e-07 1.21768e-08)
(0.00080838 -7.45641e-08 -5.80437e-09)
(0.000807029 -1.66331e-07 1.02049e-07)
(0.000805665 -1.18581e-07 4.87052e-08)
(0.000803947 -1.80472e-07 6.23287e-08)
(0.000802532 -3.16021e-07 6.75033e-09)
(0.000801069 -2.53512e-07 5.21586e-08)
(0.000799549 -2.6001e-07 4.25863e-08)
(0.000798271 -2.32252e-07 3.0816e-08)
(0.000796775 -1.1648e-07 1.55165e-08)
(0.000795297 2.34899e-08 4.42868e-08)
(0.000794037 3.25806e-07 3.71707e-08)
(0.000792687 4.23183e-07 -2.67228e-08)
(0.000790901 4.33351e-07 -6.249e-09)
(0.000789158 2.30804e-07 6.62282e-08)
(0.000788118 -1.97515e-07 -1.58435e-07)
(0.000786738 -1.84062e-07 5.44172e-08)
(0.000785076 -1.00501e-07 2.69389e-08)
(0.000783659 -1.23691e-07 7.87234e-08)
(0.000782431 1.24314e-07 6.82375e-08)
(0.000781325 -3.59773e-08 4.45689e-08)
(0.000779797 -2.23186e-07 9.89726e-08)
(0.000778222 -3.18313e-07 3.77577e-08)
(0.000776881 -1.82348e-07 2.53243e-08)
(0.000775479 -3.20384e-07 -1.80201e-09)
(0.000773936 -1.73733e-08 5.57518e-08)
(0.000772411 -4.85574e-08 3.3453e-08)
(0.000771089 7.43023e-08 4.83936e-08)
(0.000770057 6.1238e-08 4.93151e-08)
(0.000768463 1.97918e-07 6.17567e-08)
(0.000766702 4.01783e-07 3.99112e-08)
(0.000765353 6.82747e-07 -7.25459e-08)
(0.000764668 4.49137e-07 8.66046e-08)
(0.0128998 -0.00094846 -5.18177e-07)
(0.00358214 0.00463944 0.00062078)
(0.0127108 -0.010324 0.00205999)
(-0.00304411 -7.25633e-05 0.00287663)
(-0.0157807 0.00304843 -0.000470776)
(-0.00686871 -0.00719921 -0.000672894)
(0.000514543 9.14096e-05 4.57871e-05)
(0.00088665 -4.269e-05 -1.50413e-06)
(0.000839492 -5.08489e-05 -1.52475e-07)
(0.000835252 -2.18723e-05 8.05461e-08)
(0.000830067 -1.36328e-05 1.15893e-07)
(0.00082501 -7.82545e-06 1.8344e-07)
(0.000821237 -4.63134e-06 5.62848e-08)
(0.000818518 -2.61858e-06 -5.06239e-08)
(0.000816369 -1.61645e-06 5.20219e-08)
(0.000814118 -8.41772e-07 6.79624e-08)
(0.000812104 -7.22977e-07 4.87607e-08)
(0.0008104 -5.69293e-07 1.97107e-07)
(0.000808804 -3.46472e-07 3.75404e-09)
(0.000807185 -2.62781e-07 6.00489e-08)
(0.000805472 -3.11787e-07 2.37189e-08)
(0.000803935 -2.23777e-07 6.25644e-08)
(0.00080254 -2.30115e-07 5.84652e-08)
(0.000801128 -1.67743e-07 4.8797e-08)
(0.000799693 6.02419e-09 6.6823e-08)
(0.000798209 9.65161e-08 5.66204e-08)
(0.000796782 4.92891e-08 1.43716e-07)
(0.000795265 3.28039e-08 4.9803e-08)
(0.000793972 7.35625e-08 3.83679e-08)
(0.000792677 -1.43727e-07 3.28661e-08)
(0.000791074 -1.73329e-07 1.19277e-07)
(0.000789289 -1.66907e-07 7.57386e-09)
(0.000787722 -9.7275e-08 1.45397e-09)
(0.000786647 -3.99103e-07 3.70151e-08)
(0.000785345 -6.42924e-08 7.20445e-08)
(0.00078406 -2.69396e-08 6.05496e-08)
(0.000782478 6.56794e-08 3.32738e-08)
(0.00078069 -1.77767e-07 4.46234e-08)
(0.000779553 -5.96379e-07 5.6403e-08)
(0.000778373 -2.66133e-07 5.9316e-08)
(0.000776749 -1.90041e-07 5.2713e-08)
(0.000775545 -2.16544e-07 9.69293e-08)
(0.000774189 -2.432e-07 -1.55234e-08)
(0.000772636 1.55076e-07 2.971e-08)
(0.00077121 3.72352e-08 2.10496e-08)
(0.000769669 1.28692e-08 5.23163e-08)
(0.000768502 -3.44103e-07 2.95688e-08)
(0.000767464 2.78748e-08 3.26617e-08)
(0.000765809 2.24225e-07 5.84744e-09)
(0.000763705 2.68417e-07 6.91062e-08)
(-0.0218827 0.00151443 0.000913178)
(0.021723 -0.0165238 -0.0674466)
(-0.0166169 -0.00780537 -0.00116421)
(0.0092526 -0.0308031 -0.000178042)
(0.0260723 0.0330462 -0.0100093)
(0.00627072 -0.00919197 0.000861709)
(0.000958536 -0.000621995 5.67089e-05)
(0.00164549 -0.000108252 4.79752e-07)
(0.00145962 5.09576e-06 3.63563e-07)
(0.00142451 -7.23733e-06 5.00247e-07)
(0.00139959 -1.9525e-06 3.73883e-07)
(0.00138421 -1.52864e-06 3.19256e-07)
(0.00137526 -7.1727e-07 3.15357e-07)
(0.0013683 -2.6168e-07 3.53529e-07)
(0.00136306 -3.0968e-07 3.41618e-07)
(0.00135883 -5.15638e-07 2.57885e-07)
(0.00135507 -3.11889e-07 3.40462e-07)
(0.00135229 -2.3755e-07 3.69115e-07)
(0.00134929 -5.2084e-07 3.95758e-07)
(0.00134646 -4.06797e-07 3.82014e-07)
(0.00134417 -3.73347e-07 3.33193e-07)
(0.00134137 -1.09447e-08 3.522e-07)
(0.0013389 1.24351e-07 3.29926e-07)
(0.00133681 -1.34488e-08 2.9035e-07)
(0.00133432 8.62594e-08 2.97456e-07)
(0.0013317 8.91099e-08 3.4608e-07)
(0.00132902 8.1629e-08 2.78914e-07)
(0.00132681 3.86247e-08 3.34736e-07)
(0.00132416 2.35591e-07 4.75861e-07)
(0.00132162 -3.32233e-07 3.39035e-07)
(0.00131917 -8.81823e-07 3.72906e-07)
(0.00131641 -8.80124e-07 2.27068e-07)
(0.00131409 -5.97199e-07 3.44329e-07)
(0.00131242 9.02888e-08 3.02234e-07)
(0.00131031 3.14519e-07 3.25168e-07)
(0.00130744 1.78707e-07 3.65069e-07)
(0.00130475 -6.45102e-08 3.55019e-07)
(0.00130185 3.66558e-07 2.53054e-07)
(0.00130039 1.02759e-06 2.80164e-07)
(0.00129879 4.41014e-07 3.71165e-07)
(0.0012959 1.16353e-07 2.86592e-07)
(0.00129334 1.4338e-07 2.80276e-07)
(0.00129166 -3.46906e-07 3.63706e-07)
(0.0012889 -5.09622e-07 2.20507e-07)
(0.00128588 -2.81237e-07 2.91994e-07)
(0.00128365 -1.55634e-07 2.05521e-07)
(0.00128172 5.56748e-08 2.7167e-07)
(0.00127994 -2.31482e-07 3.30005e-07)
(0.00127697 -6.09156e-07 3.50648e-07)
(0.00127425 -4.96305e-07 2.11791e-07)
(0.00105841 -0.00475161 -0.00351237)
(0.00240405 0.0221195 0.00197104)
(0.00428009 -0.0126187 -0.00653671)
(0.00253628 0.00680245 0.00205348)
(-0.0193913 -0.0233972 -0.0380266)
(-0.0335836 -0.00214084 0.000206707)
(0.00113512 -5.3355e-06 3.15151e-05)
(0.00153204 2.38643e-05 7.71659e-08)
(0.00152585 6.87886e-05 4.25238e-07)
(0.00138949 2.53136e-05 4.28558e-07)
(0.00139482 1.6639e-05 3.46251e-07)
(0.00137965 9.33283e-06 3.44297e-07)
(0.00137263 5.55881e-06 3.42797e-07)
(0.0013666 3.08183e-06 3.40426e-07)
(0.00136199 1.84798e-06 3.39636e-07)
(0.00135844 8.73052e-07 2.80288e-07)
(0.00135537 6.22529e-07 3.20028e-07)
(0.00135185 2.85314e-07 4.11703e-07)
(0.0013492 4.2367e-07 4.01633e-07)
(0.0013468 3.95343e-07 3.01722e-07)
(0.00134418 5.53838e-07 3.50007e-07)
(0.00134176 3.28371e-07 3.72874e-07)
(0.00133884 7.60182e-07 2.77175e-07)
(0.00133641 4.78939e-07 3.10945e-07)
(0.00133414 8.84171e-08 3.41691e-07)
(0.00133155 -2.40026e-07 3.25707e-07)
(0.00132913 -3.01409e-07 2.97789e-07)
(0.00132681 -4.15511e-07 3.30177e-07)
(0.00132399 -1.01125e-06 2.94428e-07)
(0.0013209 -7.93999e-07 3.42156e-07)
(0.00131885 -5.44341e-07 7.89975e-08)
(0.00131688 -2.36205e-07 2.68656e-07)
(0.00131512 6.95925e-07 4.78633e-07)
(0.00131319 8.34083e-07 4.42145e-07)
(0.00131003 8.87007e-08 3.34871e-07)
(0.00130731 2.36009e-07 3.2099e-07)
(0.00130536 4.12464e-07 3.11515e-07)
(0.00130349 6.72636e-07 7.17532e-08)
(0.00130028 1.20529e-06 3.56596e-07)
(0.00129714 6.95361e-07 3.42118e-07)
(0.00129525 2.92681e-07 3.33922e-07)
(0.00129295 3.59525e-09 -2.55081e-07)
(0.00129039 -2.69412e-07 2.33353e-07)
(0.00128878 -7.64917e-07 6.2034e-07)
(0.00128684 -1.98113e-07 2.31265e-07)
(0.00128422 -1.8809e-08 3.35003e-07)
(0.00128174 5.62641e-07 3.14894e-07)
(0.00127917 9.42189e-08 2.43448e-07)
(0.00127687 -2.08671e-07 8.33743e-08)
(0.00127515 -2.98223e-07 4.04049e-07)
(0.000697195 -0.00418211 0.00274957)
(-0.0165874 -0.0214029 0.00942885)
(-0.0182839 -0.0495724 0.0130677)
(-0.0293716 0.00496884 0.00256754)
(-0.010893 -0.0303209 -0.00270197)
(-0.0101172 0.00038468 -0.000300558)
(0.000432999 -0.000499021 0.000168614)
(0.00139483 0.000142638 6.21403e-07)
(0.00148361 6.46657e-05 -2.78641e-07)
(0.0013588 3.82186e-05 3.36831e-07)
(0.00137945 2.31453e-05 3.44189e-07)
(0.00137026 1.39887e-05 3.42316e-07)
(0.00136739 8.52493e-06 3.41438e-07)
(0.00136363 5.25555e-06 3.40595e-07)
(0.00136028 3.29436e-06 3.39643e-07)
(0.00135729 2.18509e-06 3.38199e-07)
(0.00135433 1.29419e-06 3.38645e-07)
(0.00135203 8.51712e-07 2.71454e-07)
(0.00134943 6.65958e-07 3.649e-07)
(0.00134662 3.82844e-07 3.30451e-07)
(0.00134409 3.13622e-07 2.84854e-07)
(0.00134163 2.05191e-07 3.3203e-07)
(0.00133908 8.47753e-08 3.99807e-07)
(0.00133596 2.87872e-07 -1.6151e-07)
(0.00133342 1.62257e-07 3.44795e-07)
(0.00133122 1.42696e-07 3.067e-07)
(0.0013288 9.89312e-09 1.48728e-08)
(0.00132593 -5.523e-08 3.18565e-07)
(0.0013237 -1.73897e-07 2.16616e-07)
(0.00132221 5.49295e-07 2.41994e-07)
(0.00131987 8.74839e-07 4.32243e-07)
(0.00131796 9.11243e-07 4.70342e-07)
(0.00131542 7.39796e-07 2.1726e-07)
(0.00131165 2.87105e-07 1.85891e-07)
(0.00130956 -1.01278e-07 3.6947e-07)
(0.00130784 8.69233e-08 3.37665e-07)
(0.00130529 5.85393e-08 2.85638e-07)
(0.00130284 -9.37978e-08 3.51138e-07)
(0.00130042 -3.91858e-07 3.10653e-07)
(0.00129764 2.55761e-08 3.53635e-07)
(0.00129503 8.65806e-09 2.91791e-07)
(0.00129263 1.1887e-07 2.77103e-07)
(0.0012907 6.08599e-07 3.28283e-07)
(0.001289 8.55242e-07 4.04575e-07)
(0.00128682 4.7976e-07 3.19866e-07)
(0.0012846 4.20658e-07 4.19503e-07)
(0.00128186 4.56278e-07 4.59685e-07)
(0.00127897 6.52185e-07 3.39374e-07)
(0.00127649 3.74957e-07 3.31924e-07)
(0.00127488 2.15126e-07 3.86653e-07)
(0.00880548 0.00931697 -0.000833548)
(0.0217213 0.0221084 0.00921583)
(-0.0183521 -0.0147076 0.00317981)
(-0.00900101 0.00322604 0.00839018)
(-0.0505206 -0.00270627 0.0125561)
(0.00344213 0.00702345 -0.000530741)
(0.00372176 0.00313419 0.00015246)
(0.00149369 -3.0347e-05 1.09234e-05)
(0.00142601 4.32686e-05 2.67677e-07)
(0.00133728 2.84595e-05 6.46133e-07)
(0.0013644 1.91744e-05 3.42596e-07)
(0.00136129 1.25306e-05 3.39462e-07)
(0.00136167 7.97563e-06 3.40127e-07)
(0.00136003 5.15222e-06 3.39637e-07)
(0.00135813 3.39648e-06 3.38903e-07)
(0.00135593 2.29299e-06 3.38158e-07)
(0.00135369 1.43173e-06 3.37771e-07)
(0.00135106 1.10886e-06 2.27e-07)
(0.00134861 3.82542e-07 3.65569e-07)
(0.00134636 -1.75032e-07 3.11067e-07)
(0.00134395 -1.29494e-07 3.33341e-07)
(0.00134147 -1.48596e-07 3.35482e-07)
(0.00133894 -2.91166e-07 2.69649e-07)
(0.0013365 -1.30224e-07 3.4559e-07)
(0.00133395 1.07035e-07 2.76614e-07)
(0.00133136 3.44933e-07 2.72081e-07)
(0.00132888 5.31177e-07 3.94822e-07)
(0.00132658 8.42949e-07 3.86507e-07)
(0.00132474 1.45806e-06 3.2865e-07)
(0.0013222 1.23681e-06 3.23997e-07)
(0.00131929 8.29781e-07 3.19233e-07)
(0.00131671 9.9746e-07 2.27894e-07)
(0.00131433 1.0366e-07 3.21079e-07)
(0.00131214 -3.0305e-08 3.22515e-07)
(0.00130977 3.40306e-07 3.08645e-07)
(0.0013075 5.91597e-08 3.10157e-07)
(0.00130513 -1.26797e-07 3.06758e-07)
(0.00130293 -2.76984e-07 3.0061e-07)
(0.00130043 -6.59723e-07 2.11475e-07)
(0.00129765 -8.67306e-07 1.21477e-07)
(0.00129536 -4.06271e-07 1.37056e-07)
(0.00129369 -1.13137e-07 4.9221e-07)
(0.0012913 1.81806e-07 5.03563e-07)
(0.00128861 2.73472e-07 1.67419e-07)
(0.00128629 9.70975e-08 2.76397e-07)
(0.00128419 3.63858e-08 3.209e-07)
(0.00128202 -1.34159e-09 3.70712e-07)
(0.00127906 4.12439e-07 2.99687e-07)
(0.00127631 2.72396e-07 3.29045e-07)
(0.00127442 4.16812e-07 5.36566e-07)
(0.00492573 -0.00241031 0.000173589)
(0.000985282 0.0128515 0.00185323)
(0.00244531 0.0172078 -0.00173216)
(0.00446717 0.0241281 -0.00863322)
(-0.00265914 -0.0174378 -0.000560364)
(0.00745859 -0.00444774 0.00107642)
(-0.000209627 0.00132 3.55665e-05)
(0.00113809 4.5329e-05 6.28532e-05)
(0.00145758 2.45813e-05 7.53685e-07)
(0.00132875 1.57709e-05 4.37091e-07)
(0.0013595 1.16669e-05 3.42144e-07)
(0.00135622 7.69897e-06 3.64242e-07)
(0.00135815 5.20932e-06 5.33263e-07)
(0.00135789 3.28026e-06 3.38928e-07)
(0.0013567 1.99822e-06 3.63722e-07)
(0.00135482 1.22181e-06 3.26259e-07)
(0.00135284 8.74654e-07 3.37917e-07)
(0.00135072 5.88882e-07 3.34274e-07)
(0.00134782 6.43698e-07 3.1257e-07)
(0.00134598 8.26688e-07 3.64551e-07)
(0.00134412 1.97849e-07 3.71721e-07)
(0.00134143 3.07287e-07 7.43685e-07)
(0.00133911 2.38676e-07 3.08194e-07)
(0.00133646 1.9139e-07 3.88085e-07)
(0.00133402 1.15946e-07 2.66864e-07)
(0.00133174 -4.80057e-08 3.68794e-07)
(0.00132942 3.09548e-07 3.85255e-07)
(0.00132708 4.97713e-07 3.05406e-07)
(0.00132418 7.07907e-07 5.08637e-07)
(0.00132141 5.89826e-07 2.90947e-07)
(0.00131956 2.82251e-07 2.70054e-07)
(0.00131704 -2.64048e-07 2.8709e-07)
(0.00131413 1.99433e-07 3.06416e-07)
(0.00131195 7.00964e-08 3.25194e-07)
(0.00130967 1.17938e-07 2.91971e-07)
(0.00130725 -8.31491e-08 3.2538e-07)
(0.00130487 -1.83661e-07 3.49701e-07)
(0.00130217 -2.89281e-07 3.09622e-07)
(0.00129968 -4.23744e-07 3.03393e-07)
(0.00129796 -5.89602e-07 2.42814e-07)
(0.00129597 -7.37273e-08 3.63107e-07)
(0.00129337 8.10104e-08 3.5168e-07)
(0.00129118 -1.21893e-07 2.36214e-07)
(0.00128889 -2.34226e-07 3.57112e-07)
(0.00128652 -3.43432e-07 3.25002e-07)
(0.00128448 -4.56016e-07 3.19893e-07)
(0.00128233 -9.44623e-07 1.11599e-07)
(0.00127931 -1.39649e-06 2.80133e-07)
(0.00127649 -5.38286e-07 3.33414e-07)
(0.00127402 8.03885e-08 3.25935e-07)
(0.00942312 0.00436579 0.00103406)
(-0.00443678 0.00598258 -0.000496905)
(-0.000895666 0.00305766 -0.00129888)
(0.0162178 0.00420485 -0.00349097)
(0.00935993 -0.000160555 0.000886004)
(0.000718796 0.00174064 0.00214427)
(0.00213176 0.00195519 6.44924e-05)
(0.00110394 6.47369e-05 4.82884e-05)
(0.00143635 1.24522e-05 6.34074e-07)
(0.00132106 8.81401e-06 3.106e-07)
(0.00135432 4.09279e-06 2.9767e-07)
(0.00135322 2.22793e-06 4.79037e-07)
(0.00135614 1.31524e-06 3.9152e-07)
(0.00135602 6.57583e-07 3.39515e-07)
(0.00135556 2.95736e-07 3.57589e-07)
(0.00135453 5.71136e-08 3.51494e-07)
(0.0013529 7.25484e-08 3.37823e-07)
(0.00135077 9.84535e-08 3.35684e-07)
(0.0013489 3.75515e-07 2.97169e-07)
(0.0013458 8.61696e-07 4.12425e-07)
(0.0013433 6.36719e-07 5.28576e-07)
(0.00134152 4.27243e-07 3.13663e-07)
(0.0013388 1.76696e-07 3.12175e-07)
(0.00133635 1.38477e-07 -1.08512e-08)