/*--------------------------------*- C++ -*----------------------------------*\
| =========                 |                                                 |
| \\      /  F ield         | OpenFOAM: The Open Source CFD Toolbox           |
|  \\    /   O peration     | Version:  5.0                                   |
|   \\  /    A nd           | Web:      www.OpenFOAM.org                      |
|    \\/     M anipulation  |                                                 |
\*---------------------------------------------------------------------------*/
FoamFile
{
    version     2.0;
    format      ascii;
    class       volVectorField;
    location    "3.7";
    object      U_0;
}
// * * * * * * * * * * * * * * * * * * * * * * * * * * * * * * * * * * * * * //

dimensions      [0 1 -1 0 0 0 0];

internalField   nonuniform List<vector> 
8864
(
(-0.0077387 -0.0095482 -0.00116862)
(0.0183594 -0.00336794 -0.0080315)
(-0.0193676 -0.0123687 -0.000484358)
(-0.00173108 -0.0078059 -0.000557864)
(0.00389633 -0.00619809 7.79185e-05)
(0.00564619 -0.00900568 -0.000295479)
(0.000498435 -9.04598e-05 4.24369e-05)
(0.00106733 -2.77737e-05 -1.50017e-06)
(0.000930362 3.07193e-05 -5.79309e-07)
(0.000889995 1.28076e-05 4.19512e-08)
(0.000863673 9.58228e-06 4.31731e-08)
(0.00084749 5.72241e-06 5.88413e-08)
(0.000838142 3.63031e-06 6.01747e-08)
(0.000831603 2.41046e-06 6.37541e-08)
(0.000826596 1.54033e-06 4.82285e-08)
(0.000823065 9.04874e-07 1.90527e-08)
(0.000820356 5.38271e-07 5.4538e-08)
(0.000818159 2.75647e-07 9.37138e-08)
(0.000816114 1.21825e-07 9.53761e-08)
(0.000814293 3.78417e-09 1.07082e-07)
(0.000812672 3.64023e-09 8.19042e-08)
(0.000811021 1.16111e-07 1.82015e-08)
(0.000809339 9.54264e-08 5.28248e-08)
(0.000807728 1.21316e-08 4.58778e-08)
(0.000806179 5.59604e-08 6.32256e-08)
(0.000804563 7.32745e-09 3.00663e-08)
(0.000802999 -2.38525e-08 4.89026e-08)
(0.000801714 -5.72153e-08 5.13978e-08)
(0.000799799 1.15041e-08 2.65677e-08)
(0.000797927 -3.01151e-07 1.9417e-07)
(0.000796656 -7.34107e-07 -6.49235e-08)
(0.000794875 -6.25574e-07 -1.70763e-08)
(0.000793543 -5.4439e-07 8.53291e-08)
(0.000792541 -2.26808e-07 5.4837e-08)
(0.000791077 -5.83151e-08 4.82721e-08)
(0.000789499 1.9715e-08 5.47615e-08)
(0.0007879 1.10401e-07 3.12587e-08)
(0.000786312 1.75224e-07 4.33921e-08)
(0.00078482 3.68017e-07 -9.74199e-08)
(0.000783695 4.21978e-07 6.68224e-08)
(0.000782486 1.58526e-08 3.22191e-08)
(0.000780991 -1.30401e-07 6.81747e-08)
(0.000779704 -4.59389e-07 -3.37945e-08)
(0.000778067 -2.66506e-07 2.37927e-07)
(0.000776524 -1.24068e-07 3.92124e-08)
(0.000775133 -1.78237e-07 4.28856e-08)
(0.000773796 -2.65808e-07 7.37803e-08)
(0.000772568 -4.81629e-07 1.80111e-07)
(0.00077086 -3.03055e-07 -2.09834e-08)
(0.000769089 -2.205e-07 7.41836e-08)
(0.00548515 0.000582237 0.000181907)
(-0.00406402 -0.0163558 0.00105222)
(0.0328564 -0.0145429 -0.00549287)
(0.00124023 -0.0140268 0.00100087)
(-0.0126969 0.0250652 0.00187859)
(0.00861924 0.00245903 0.000546799)
(0.000529727 -0.000115898 3.09478e-05)
(0.000558453 5.54259e-05 -8.69677e-07)
(0.000944609 8.92355e-05 -1.20238e-06)
(0.000852496 4.4422e-05 -2.58407e-07)
(0.000850945 2.79506e-05 1.6165e-07)
(0.00083881 1.67021e-05 3.41457e-08)
(0.000832789 1.02755e-05 4.91724e-08)
(0.000828089 6.11609e-06 4.68078e-08)
(0.000824738 3.73515e-06 5.17247e-08)
(0.000822006 2.34876e-06 3.91507e-08)
(0.000819648 1.58361e-06 -1.15178e-07)
(0.00081766 1.18255e-06 8.8434e-08)
(0.000816001 9.66994e-07 9.46318e-08)
(0.000814304 6.10676e-07 2.41598e-08)
(0.000812576 4.60294e-07 5.6565e-08)
(0.000810856 3.05892e-07 6.45609e-08)
(0.00080904 3.30396e-07 5.83071e-08)
(0.000807528 2.08016e-07 6.18589e-08)
(0.000806091 -4.29375e-08 5.98921e-08)
(0.000804509 -1.78453e-07 4.77016e-08)
(0.000802964 -2.53794e-07 3.53216e-08)
(0.000801411 -3.26395e-07 4.90048e-08)
(0.000799674 -8.66214e-07 6.85086e-08)
(0.000797736 -5.23552e-07 5.65302e-08)
(0.000796462 -5.4878e-07 1.45084e-07)
(0.000795419 -3.27156e-07 3.15036e-08)
(0.000794085 2.98339e-07 2.02891e-07)
(0.000792692 4.3238e-07 2.78685e-07)
(0.000791068 1.80787e-07 4.88151e-08)
(0.000789553 1.47082e-07 8.72957e-08)
(0.00078811 1.26333e-07 4.3578e-08)
(0.000786627 1.93368e-07 5.38872e-08)
(0.000785147 3.35515e-07 4.07716e-08)
(0.000783425 5.02718e-07 1.3169e-07)
(0.000781866 1.59277e-07 5.92643e-08)
(0.000780472 -8.37488e-08 8.71391e-08)
(0.000779262 -3.90907e-07 6.66878e-08)
(0.000778268 -4.81371e-07 -1.21894e-08)
(0.000776728 -2.25736e-07 5.70667e-08)
(0.00077513 -1.57536e-07 5.28112e-08)
(0.000773779 3.21279e-08 5.95828e-08)
(0.000772415 -1.45848e-07 4.38021e-08)
(0.000770832 -3.68588e-07 8.58997e-08)
(0.000769808 -2.34874e-07 3.04416e-08)
(-0.00351182 -0.0197049 0.000942062)
(-0.0242964 0.0165989 -0.000145996)
(-0.00943123 0.0335602 0.00256429)
(-0.0123072 0.0421768 0.000994422)
(-0.0268775 -0.00505026 0.00122109)
(0.000463537 -0.0032472 -0.000385314)
(0.000531985 0.000473582 0.000157033)
(0.000470454 0.000105031 -1.41975e-06)
(0.000884412 8.77928e-05 -1.60231e-06)
(0.000813013 5.27565e-05 -5.41006e-07)
(0.000828894 3.20853e-05 1.8285e-07)
(0.000825319 1.95136e-05 3.23006e-08)
(0.000824866 1.19017e-05 5.68799e-08)
(0.000823401 7.32743e-06 5.31388e-08)
(0.000821872 4.52753e-06 5.46271e-08)
(0.000820367 2.80123e-06 5.25501e-08)
(0.000818893 1.75202e-06 4.60548e-08)
(0.000817384 1.15125e-06 5.81775e-08)
(0.000815397 5.75643e-07 8.163e-08)
(0.000813657 3.82001e-07 4.68584e-08)
(0.000812289 1.51249e-07 6.61508e-08)
(0.000810855 5.46077e-08 4.84512e-08)
(0.000809214 -9.77946e-08 7.93056e-08)
(0.000807259 1.13458e-07 8.63654e-08)
(0.000805695 9.63663e-08 5.18083e-08)
(0.0008043 7.00069e-08 3.58621e-08)
(0.000802816 -2.4529e-08 6.14568e-08)
(0.000800953 -4.32494e-08 6.08944e-08)
(0.000799558 -6.29518e-08 -3.74384e-08)
(0.00079833 3.89068e-07 3.05573e-08)
(0.000796906 7.62438e-07 8.64649e-08)
(0.000795935 6.82646e-07 6.524e-08)
(0.000794491 4.19167e-07 3.00043e-07)
(0.00079239 3.00288e-07 1.17456e-07)
(0.000790718 1.18738e-07 9.18424e-08)
(0.000789429 1.51753e-07 5.36566e-08)
(0.000787956 7.32902e-08 6.28763e-08)
(0.000786571 1.72859e-08 5.49082e-08)
(0.000785203 -9.44427e-09 4.16958e-08)
(0.000783471 -1.59024e-07 3.58569e-08)
(0.000781751 -5.04773e-08 4.24264e-08)
(0.000780304 2.24772e-08 -5.4627e-08)
(0.00077921 3.64012e-07 1.47368e-07)
(0.000778277 2.77257e-07 1.03989e-07)
(0.000776932 8.62904e-08 4.5964e-08)
(0.000775456 1.4469e-07 5.44738e-08)
(0.000773812 2.76368e-07 6.05139e-08)
(0.000772067 1.39753e-07 5.9285e-08)
(0.000770755 7.65429e-08 6.78799e-08)
(0.000769841 6.99586e-08 8.25529e-08)
(0.0070244 -0.00762819 -7.63934e-05)
(-0.00356076 0.0007449 -0.00040762)
(0.0083602 -0.00952254 5.97223e-06)
(-0.0125617 -0.00239459 -0.000262634)
(0.0191065 -0.0166203 -0.000731681)
(0.024608 -0.000255676 -0.00012717)
(0.000844903 0.000908667 1.43148e-05)
(0.00030439 2.24071e-05 5.77449e-06)
(0.000819288 5.70953e-05 -1.48354e-06)
(0.000782645 3.59098e-05 -2.31186e-07)
(0.000809301 2.29135e-05 1.76217e-07)
(0.000813526 1.45479e-05 3.86e-08)
(0.000817523 8.93414e-06 6.33473e-08)
(0.000818851 5.66875e-06 5.49758e-08)
(0.000819068 3.61019e-06 5.25372e-08)
(0.000818529 2.28581e-06 5.20352e-08)
(0.000817581 1.34328e-06 4.84681e-08)
(0.000816187 7.46783e-07 4.31832e-08)
(0.000815039 2.844e-07 7.35175e-08)
(0.000813774 2.56218e-07 3.0354e-08)
(0.000812167 7.60628e-08 7.9719e-08)
(0.000810546 -6.9685e-08 5.28717e-08)
(0.000809113 -2.64733e-07 -3.69833e-09)
(0.00080777 -1.16879e-07 4.14024e-08)
(0.000806035 8.28159e-08 2.7032e-08)
(0.000804357 2.20036e-07 3.11838e-08)
(0.000802822 2.85765e-07 6.3447e-08)
(0.000801363 3.46977e-07 8.33802e-08)
(0.000800213 8.35658e-07 1.88624e-08)
(0.000798765 6.35464e-07 8.95584e-08)
(0.000796824 7.84275e-07 1.76503e-08)
(0.000794985 7.33651e-07 -6.92863e-08)
(0.000793603 2.47248e-07 4.7653e-08)
(0.000792315 -4.30143e-09 4.79766e-08)
(0.000790882 1.62011e-07 2.51767e-08)
(0.000789496 8.93301e-08 4.71908e-08)
(0.000787942 1.31511e-07 4.05735e-08)
(0.000786524 9.57919e-09 4.81066e-08)
(0.000784926 -3.01101e-07 1.81495e-08)
(0.000783374 -3.03789e-07 2.71701e-08)
(0.000782093 -4.09989e-08 8.74266e-08)
(0.000780988 1.51535e-07 1.04373e-07)
(0.000779577 1.93655e-07 7.40316e-08)
(0.000777917 2.44304e-07 -1.21729e-08)
(0.000776559 1.65085e-08 2.95434e-08)
(0.000775365 -1.05861e-08 4.23547e-08)
(0.00077377 -5.83015e-08 8.02998e-08)
(0.000772164 6.78774e-08 2.07564e-08)
(0.000770742 2.8249e-07 4.41203e-08)
(0.000769625 2.31799e-07 4.81792e-08)
(0.00250253 0.00633646 2.32825e-05)
(-0.000812042 0.0173351 0.000591396)
(-0.00278514 0.00283359 0.000174003)
(-0.0601346 -0.0157344 0.00340865)
(0.00946783 0.00800036 0.00157703)
(0.00466707 0.00437647 -2.66534e-05)
(0.000308767 0.000544999 2.82208e-05)
(0.000445735 -5.02141e-05 4.4308e-05)
(0.000827503 1.50056e-05 -1.09929e-06)
(0.000770274 9.6644e-06 -5.90265e-07)
(0.000802172 7.18422e-06 1.7511e-07)
(0.000807828 4.67891e-06 7.61329e-08)
(0.000813754 3.34689e-06 1.10938e-07)
(0.000816738 2.05931e-06 5.4093e-08)
(0.000817637 1.22458e-06 5.39328e-08)
(0.000817529 7.36465e-07 5.86456e-08)
(0.000816966 4.76474e-07 5.20123e-08)
(0.000816059 2.51782e-07 4.971e-08)
(0.000814783 3.40198e-07 1.72476e-07)
(0.000813397 1.61793e-07 5.525e-08)
(0.000811883 8.9828e-08 6.59531e-08)
(0.000810432 1.72075e-07 2.76282e-08)
(0.000809157 2.03031e-07 8.06651e-08)
(0.000807696 1.0564e-07 1.82285e-08)
(0.000806116 4.95309e-08 6.59856e-08)
(0.000804552 6.56785e-08 6.60656e-08)
(0.000802971 1.78732e-07 6.8858e-08)
(0.000801634 2.25082e-07 8.93637e-09)
(0.000799912 2.48926e-07 -1.01723e-09)
(0.000798258 1.22084e-07 8.33971e-08)
(0.000797021 4.30759e-08 -6.43e-08)
(0.000795258 -1.90196e-07 3.33547e-08)
(0.000793565 1.52385e-07 3.92618e-08)
(0.000792282 6.49373e-08 5.22107e-08)
(0.000790834 1.17951e-07 4.67608e-08)
(0.00078939 -6.00439e-08 4.86768e-08)
(0.000787856 -2.29341e-07 5.15005e-08)
(0.000786031 -1.85384e-07 6.4396e-08)
(0.000784814 -1.50099e-07 9.62882e-08)
(0.000783799 1.36239e-08 8.41224e-08)
(0.00078232 1.20537e-07 5.74019e-08)
(0.000780596 1.38997e-07 6.81454e-08)
(0.000779323 1.58747e-07 3.89162e-08)
(0.000778053 1.40515e-07 7.26022e-08)
(0.000776612 2.56922e-08 3.76145e-08)
(0.000775362 -1.57199e-07 4.71558e-08)
(0.00077391 -4.17234e-07 -3.45009e-08)
(0.000772493 -3.34077e-07 -7.81239e-09)
(0.000770954 -2.02898e-07 1.51857e-07)
(0.0007692 1.182e-07 9.36988e-08)
(-0.0020348 0.00794282 0.000392779)
(-0.00960687 -0.0104543 -0.00108128)
(0.00759923 0.00406225 -0.00108575)
(-0.00783644 0.00225639 -0.00134484)
(-0.00386743 -0.0102815 0.000144216)
(-0.00636933 0.00160879 -0.0004624)
(0.000871424 -7.53321e-05 -1.00074e-05)
(0.000449729 1.35962e-05 3.8613e-05)
(0.000827809 -2.24699e-05 -1.12982e-06)
(0.000772869 -1.25427e-05 -5.13276e-07)
(0.000803093 -8.3165e-06 1.82513e-07)
(0.000808741 -5.32541e-06 2.48492e-08)
(0.000814255 -3.12611e-06 -2.51507e-08)
(0.000816202 -2.05825e-06 4.81204e-08)
(0.000817418 -1.33163e-06 1.41337e-07)
(0.000817596 -9.0527e-07 9.71447e-08)
(0.000816977 -5.45904e-07 5.34174e-08)
(0.000816018 -2.98008e-07 6.39756e-08)
(0.000814927 -2.74189e-07 4.0719e-08)
(0.000813461 -8.27334e-08 6.46633e-08)
(0.000812179 8.14719e-08 -2.5249e-08)
(0.000810687 1.71831e-07 9.40444e-08)
(0.00080903 2.29973e-07 5.47392e-08)
(0.000807578 1.3232e-07 6.92419e-08)
(0.000805985 1.37437e-07 6.62105e-08)
(0.000804518 7.18616e-08 6.33135e-08)
(0.00080302 -2.85621e-08 4.01116e-08)
(0.000801448 -1.31321e-07 1.98632e-08)
(0.000800081 -1.49429e-07 1.12678e-07)
(0.000798505 -2.44472e-07 7.55072e-08)
(0.000796432 -4.29665e-07 -1.44106e-08)
(0.00079512 -2.77783e-07 1.76317e-07)
(0.000793922 -2.37329e-07 1.83053e-08)
(0.00079227 -1.30726e-07 8.12956e-08)
(0.000790725 -2.13364e-07 1.19301e-08)
(0.000789062 -1.54137e-07 4.5001e-08)
(0.000787786 -1.72602e-07 6.02302e-08)
(0.000786625 3.75251e-08 4.68423e-08)
(0.000785177 2.51202e-07 1.03678e-07)
(0.000783713 1.49915e-07 7.10827e-08)
(0.00078225 1.39385e-07 2.30119e-08)
(0.000781036 2.07601e-07 2.51257e-08)
(0.00077958 2.90548e-07 -2.55687e-09)
(0.000777752 5.04775e-08 6.31617e-08)
(0.000776189 3.19563e-08 3.85602e-08)
(0.000774815 -1.32553e-07 4.85797e-08)
(0.000773553 -4.53833e-07 -3.2778e-07)
(0.000772435 -5.09226e-07 6.0663e-08)
(0.000771308 -4.69253e-07 9.88176e-08)
(0.00076973 -1.68642e-07 1.88612e-07)
(-0.000408312 -0.00117898 3.17603e-05)
(-0.00252458 0.00124314 0.00203994)
(-0.0277897 -0.00141801 -0.00121241)
(-0.00221219 -0.00534664 -8.15376e-05)
(-0.0174156 0.00560172 0.000984221)
(0.00585109 0.00250283 -0.000358537)
(-0.000387864 0.000554709 4.23934e-05)
(0.000447802 3.64569e-05 3.53944e-05)
(0.000829865 -5.86347e-05 -1.47357e-06)
(0.000788214 -3.59962e-05 -3.49726e-07)
(0.000811226 -2.28574e-05 1.9032e-07)
(0.000814341 -1.42789e-05 4.81616e-08)
(0.000817856 -9.21781e-06 6.20032e-08)
(0.000818993 -5.72453e-06 5.48994e-08)
(0.000819087 -3.5965e-06 6.21313e-08)
(0.000818517 -2.17208e-06 5.37463e-08)
(0.000817729 -1.31393e-06 5.22844e-08)
(0.000816401 -7.5245e-07 4.86335e-08)
(0.000815053 -4.15735e-07 1.3652e-07)
(0.000813841 -3.32871e-07 4.8812e-08)
(0.0008122 -1.33786e-07 4.04448e-08)
(0.000810615 -1.49414e-07 4.79374e-08)
(0.000809106 1.03621e-07 4.20194e-08)
(0.000807578 2.11951e-08 5.39279e-08)
(0.000806039 1.10354e-07 5.8297e-09)
(0.000804344 1.4983e-07 1.82891e-07)
(0.000802718 -4.04977e-08 4.98913e-08)
(0.000801485 -8.37242e-08 7.02122e-08)
(0.000799773 -3.85878e-07 6.88899e-08)
(0.000797911 -6.7466e-07 5.21378e-08)
(0.000796983 -3.36251e-07 1.55395e-07)
(0.000795502 -1.46567e-08 1.79689e-07)
(0.000793751 -7.3007e-08 4.21327e-08)
(0.000792315 -7.48845e-08 3.15166e-08)
(0.000790806 -6.82854e-08 1.69166e-07)
(0.000789442 9.45314e-08 1.14644e-07)
(0.000788096 1.97465e-07 5.32711e-08)
(0.000786561 1.48438e-07 5.89804e-08)
(0.000784953 1.81984e-07 6.29886e-08)
(0.000783658 2.72369e-07 2.52552e-08)
(0.000782392 1.43104e-07 6.75536e-08)
(0.000780784 1.36815e-07 -5.13472e-09)
(0.000779126 -1.24884e-07 4.72313e-08)
(0.00077773 -1.49378e-07 5.45667e-08)
(0.000776385 -4.58706e-08 1.3893e-08)
(0.000774757 3.06698e-08 4.92093e-08)
(0.000773443 5.95571e-09 -4.86444e-08)
(0.000772478 -2.94749e-07 6.76021e-08)
(0.000771388 -2.26139e-07 2.4227e-08)
(0.000769996 -3.37123e-07 4.13742e-08)
(0.0105625 -0.0024561 -0.000581604)
(0.00577391 0.00427229 0.000485146)
(0.00112084 0.0117155 0.000325545)
(0.00162561 0.00661099 0.000524423)
(-0.00643843 0.00673454 -0.00643273)
(-0.00529323 -0.000308559 -0.000397329)
(0.000674455 -0.00138185 -1.3161e-05)
(0.000512248 -6.01408e-05 3.47913e-06)
(0.00089435 -6.86039e-05 -1.50901e-06)
(0.000817688 -4.43958e-05 -6.01629e-07)
(0.000830316 -2.85289e-05 1.43055e-07)
(0.000825841 -1.80187e-05 1.93243e-08)
(0.00082498 -1.13666e-05 5.61268e-08)
(0.00082325 -7.15072e-06 4.88224e-08)
(0.000821871 -4.51382e-06 4.96293e-08)
(0.000820457 -2.81445e-06 5.36455e-08)
(0.000818756 -1.7976e-06 1.13551e-07)
(0.000817143 -1.15938e-06 5.4203e-08)
(0.000815452 -6.2385e-07 8.28858e-08)
(0.000813814 -4.27783e-07 2.74377e-08)
(0.000812409 -3.78613e-07 5.21801e-08)
(0.000810983 -2.58548e-07 5.68124e-08)
(0.000809243 -3.47077e-07 2.9101e-08)
(0.000807586 -1.79786e-07 4.95388e-08)
(0.000806145 -3.25026e-07 6.70478e-08)
(0.000804329 -2.92625e-07 1.30149e-08)
(0.000802728 -9.59908e-08 4.1768e-08)
(0.000801019 3.70182e-08 4.81095e-08)
(0.000799347 -1.52069e-07 5.03772e-08)
(0.000798573 3.30353e-07 5.623e-08)
(0.000797261 3.90173e-07 8.99612e-08)
(0.000795451 1.17448e-07 4.67177e-08)
(0.000793847 2.45833e-07 4.88986e-08)
(0.000792277 1.0089e-07 4.01347e-08)
(0.000790937 1.02854e-07 5.82564e-08)
(0.000789394 6.88867e-08 1.6519e-08)
(0.000787854 8.52554e-09 5.54072e-08)
(0.000786605 -5.7813e-08 3.98438e-08)
(0.00078533 1.49359e-07 4.19604e-08)
(0.000783664 2.14756e-07 2.62347e-08)
(0.000782079 4.20375e-08 7.22094e-08)
(0.0007807 4.42458e-08 4.68168e-08)
(0.000779222 7.85908e-08 4.949e-08)
(0.000777852 7.96381e-08 4.64456e-08)
(0.000776414 1.11121e-07 4.59809e-08)
(0.00077488 1.71471e-07 4.68848e-08)
(0.000773147 4.78746e-07 5.76419e-08)
(0.000772147 6.28901e-07 7.12548e-08)
(0.000771264 2.29362e-07 3.48105e-08)
(0.000770432 -5.5203e-08 9.5388e-08)
(0.00639124 0.00720629 0.000674213)
(-0.00544952 0.00912036 0.00073365)
(0.00541045 0.00410064 -0.000794713)
(0.00862891 0.00348759 0.000962895)
(-0.00407801 -0.0193992 -0.000381796)
(-0.00950137 0.00264752 -6.50432e-05)
(0.00171309 -0.000352017 0.00011352)
(0.00049092 -2.2139e-05 7.38177e-07)
(0.000908619 -7.48016e-05 -1.33151e-06)
(0.000838413 -3.92329e-05 -4.05304e-07)
(0.000844291 -2.59945e-05 1.69504e-07)
(0.000835851 -1.56361e-05 3.28516e-08)
(0.000831476 -9.66109e-06 5.41746e-08)
(0.00082758 -6.07267e-06 5.2942e-08)
(0.000824521 -3.69594e-06 4.7342e-08)
(0.000821921 -2.27049e-06 9.07282e-08)
(0.000819803 -1.45284e-06 6.95833e-08)
(0.000817871 -9.2623e-07 6.95315e-08)
(0.00081597 -6.21931e-07 -8.72623e-09)
(0.00081415 -2.14706e-07 8.57348e-08)
(0.000812413 -1.10932e-07 5.03355e-08)
(0.000810657 -1.93379e-07 6.08634e-08)
(0.000809207 -3.04284e-07 7.41635e-08)
(0.000807608 -2.52425e-07 5.45532e-08)
(0.000805901 -3.12211e-07 3.63647e-08)
(0.000804633 -2.92843e-07 -9.48937e-08)
(0.000803132 -8.98525e-08 4.82825e-08)
(0.000801416 -4.08926e-08 4.87133e-08)
(0.000800139 1.88399e-07 9.74853e-08)
(0.000798587 4.6466e-07 3.81926e-08)
(0.000796714 2.64845e-07 9.46239e-08)
(0.000795319 1.47781e-07 5.89397e-08)
(0.000793729 4.58455e-08 7.39137e-08)
(0.000792135 -6.35324e-08 -1.96923e-08)
(0.000790766 -1.10088e-07 1.11197e-07)
(0.000789325 -2.05955e-07 2.05094e-08)
(0.000787939 -1.51816e-07 -4.94228e-08)
(0.000786737 -1.55563e-07 4.32959e-08)
(0.000785293 -3.90457e-07 8.83571e-08)
(0.000783523 -5.48947e-07 3.63119e-08)
(0.000782178 -2.29016e-07 -4.419e-09)
(0.00078083 -1.67888e-07 1.5812e-08)
(0.00077917 6.15142e-08 6.18359e-08)
(0.000777771 -1.88793e-09 3.90548e-08)
(0.000776499 5.79557e-08 6.4661e-08)
(0.000775215 1.60076e-07 1.37836e-08)
(0.000774012 4.00719e-07 2.68642e-08)
(0.000772163 9.70701e-07 2.73299e-08)
(0.000770532 6.55549e-07 -3.98176e-08)
(0.000769776 3.69464e-07 9.17215e-08)
(0.0130456 -0.00108211 -0.000240715)
(0.00681447 0.00396217 0.000703365)
(0.0124442 -0.00630323 0.00218103)
(-0.0117782 0.000476905 -0.00931657)
(-0.00937717 0.00171049 0.000622487)
(-0.00667167 -0.00805492 -0.000648767)
(0.00058477 1.71719e-05 5.18886e-05)
(0.000989245 -5.17242e-05 -1.84242e-06)
(0.000906111 -5.53109e-05 -2.97858e-07)
(0.00087902 -2.33944e-05 6.11924e-08)
(0.000859888 -1.40187e-05 9.35435e-08)
(0.000846304 -7.90589e-06 3.6536e-08)
(0.00083696 -4.71696e-06 4.56843e-08)
(0.000830721 -2.57587e-06 3.68762e-08)
(0.000826632 -1.49989e-06 5.35148e-08)
(0.000823265 -9.1485e-07 8.58247e-08)
(0.000820439 -5.83395e-07 5.13556e-08)
(0.000818183 -4.71947e-07 5.18257e-08)
(0.000816342 -3.53355e-07 6.82163e-08)
(0.000814452 -3.56377e-07 -2.14069e-08)
(0.000812436 -2.39216e-07 6.10413e-08)
(0.000810742 -1.4949e-07 1.12872e-07)
(0.000809171 5.14408e-08 5.87726e-08)
(0.000807578 -4.36708e-08 4.95688e-08)
(0.000806097 1.4771e-07 5.57627e-08)
(0.000804609 1.7918e-07 -8.01898e-09)
(0.000803045 9.25819e-08 5.04797e-08)
(0.000801367 7.372e-08 3.23824e-08)
(0.000799978 3.32054e-07 3.49118e-09)
(0.000798665 -1.97794e-07 3.56421e-08)
(0.000796863 -1.96003e-07 8.66985e-08)
(0.000795177 -2.4616e-07 3.4305e-08)
(0.000793583 -5.5409e-07 4.32655e-08)
(0.000792083 -3.98243e-07 1.3102e-07)
(0.00079076 -2.32288e-07 2.68411e-07)
(0.000789343 -1.51162e-07 6.34856e-08)
(0.000787917 -9.3768e-08 2.54315e-08)
(0.000786307 -1.82659e-07 5.71583e-08)
(0.000784841 -4.34974e-07 9.8593e-09)
(0.000783868 -5.636e-07 6.39797e-08)
(0.000782558 -2.997e-07 5.9532e-08)
(0.000781065 -3.19633e-07 3.36979e-08)
(0.000779431 -1.71887e-07 8.47509e-08)
(0.000777847 1.06951e-07 3.35424e-08)
(0.000776616 6.615e-08 2.09897e-08)
(0.000775306 1.29203e-07 2.23373e-08)
(0.000774155 1.26106e-09 1.38341e-08)
(0.000772459 -4.17036e-08 2.85405e-08)
(0.000770498 3.25989e-07 -2.23476e-08)
(0.000769155 2.2692e-07 6.96818e-08)
(-0.0210362 0.00275581 1.8055e-05)
(0.00657483 -0.0113916 -0.167618)
(-0.0234741 -0.0105792 -0.0022754)
(0.00801652 -0.0268441 -0.00227256)
(0.0162182 0.0244373 -0.0105784)
(0.0063507 -0.00854841 0.001456)
(0.00134893 -0.000378228 5.84625e-05)
(0.00174341 -3.27652e-05 5.01081e-07)
(0.00152695 5.43693e-05 3.80438e-07)
(0.00146839 2.2746e-05 4.05165e-07)
(0.0014299 1.64482e-05 1.69806e-07)
(0.0014063 9.67782e-06 3.59358e-07)
(0.00139285 6.07026e-06 6.67604e-07)
(0.00138323 4.01597e-06 1.62587e-07)
(0.00137568 2.54009e-06 3.50737e-07)
(0.00137034 1.49283e-06 2.79086e-07)
(0.00136615 8.81572e-07 3.43539e-07)
(0.00136268 5.09047e-07 3.48231e-07)
(0.00135935 2.16825e-07 3.95588e-07)
(0.00135636 6.01097e-09 3.64808e-07)
(0.00135374 1.72005e-08 4.52313e-07)
(0.00135097 2.58895e-07 6.95892e-08)
(0.00134818 2.23016e-07 3.25139e-07)
(0.00134556 6.25563e-08 2.96196e-07)
(0.00134298 1.55205e-07 2.97429e-07)
(0.00134027 1.00529e-07 2.90281e-07)
(0.00133765 2.34387e-08 2.90986e-07)
(0.00133552 -7.19882e-08 3.45065e-07)
(0.00133234 4.0898e-08 3.95486e-07)
(0.00132918 -5.31242e-07 5.05026e-07)
(0.001327 -1.24039e-06 2.45666e-07)
(0.00132404 -1.05575e-06 9.24735e-08)
(0.00132181 -8.66919e-07 3.75307e-07)
(0.00132019 -3.02305e-07 3.4474e-07)
(0.00131776 -2.63538e-08 3.25338e-07)
(0.00131505 8.35399e-08 3.27221e-07)
(0.00131234 1.47949e-07 3.15715e-07)
(0.00130962 3.08744e-07 3.01412e-07)
(0.00130725 6.81266e-07 4.76706e-08)
(0.00130542 6.93796e-07 3.40939e-07)
(0.00130328 4.9053e-08 2.89458e-07)
(0.00130074 -1.68975e-07 3.44755e-07)
(0.00129872 -7.22199e-07 2.1072e-07)
(0.00129595 -4.28155e-07 7.10716e-07)
(0.00129331 -2.30028e-07 3.42347e-07)
(0.001291 -3.21045e-07 2.68806e-07)
(0.00128875 -3.89046e-07 3.22834e-07)
(0.00128675 -7.36618e-07 4.76141e-07)
(0.00128386 -5.08391e-07 2.17253e-07)
(0.00128089 -3.95071e-07 3.57625e-07)
(-0.000944005 -0.00378317 -0.0010744)
(0.00532269 0.0179745 0.00549969)
(-0.00466094 -0.00577932 -0.0124932)
(0.00331567 0.00714099 0.00180612)
(-0.0438763 -0.00763518 -0.0360396)
(-0.0468979 -0.00347131 0.000624607)
(0.00129371 2.93923e-05 3.18321e-05)
(0.0016027 0.000153272 -1.34418e-08)
(0.00155189 0.000136314 4.46333e-07)
(0.00140755 6.61483e-05 5.63441e-07)
(0.00140977 4.15294e-05 3.36771e-07)
(0.00139269 2.46461e-05 3.4839e-07)
(0.00138449 1.51148e-05 3.48361e-07)
(0.00137777 8.91108e-06 3.42647e-07)
(0.00137287 5.42479e-06 3.43552e-07)
(0.00136873 3.39617e-06 2.98941e-07)
(0.00136511 2.27863e-06 1.46381e-07)
(0.00136195 1.64734e-06 3.75925e-07)
(0.00135916 1.38447e-06 3.88561e-07)
(0.00135639 8.93111e-07 2.9959e-07)
(0.0013536 7.25793e-07 1.82844e-07)
(0.00135076 4.7381e-07 3.71104e-07)
(0.00134773 6.03454e-07 3.02724e-07)
(0.00134525 4.07694e-07 6.75501e-07)
(0.00134285 -2.71136e-09 3.4656e-07)
(0.00134015 -2.45769e-07 3.28767e-07)
(0.00133755 -3.67688e-07 3.02068e-07)
(0.00133498 -5.35892e-07 3.34224e-07)
(0.00133207 -1.46239e-06 4.13159e-07)
(0.00132885 -9.10418e-07 2.09393e-07)
(0.00132675 -8.86005e-07 3.73915e-07)
(0.00132497 -5.25095e-07 2.87025e-07)
(0.00132277 5.99442e-07 6.43903e-07)
(0.00132046 7.91134e-07 7.2284e-07)
(0.0013177 3.06748e-07 3.36085e-07)
(0.0013151 2.46903e-07 3.78196e-07)
(0.0013127 2.44507e-07 3.18859e-07)
(0.0013103 3.78602e-07 3.72858e-07)
(0.00130773 6.7329e-07 3.57831e-07)
(0.00130482 8.49145e-07 9.23633e-07)
(0.00130226 2.62433e-07 3.4276e-07)
(0.00129991 -1.37714e-07 3.89475e-07)
(0.00129785 -5.97852e-07 3.05232e-07)
(0.00129621 -8.38021e-07 1.96951e-07)
(0.00129369 -3.77962e-07 2.92305e-07)
(0.00129106 -2.94574e-07 2.75704e-07)
(0.00128879 1.15454e-07 4.36689e-07)
(0.00128645 -2.13676e-07 3.16945e-07)
(0.00128383 -5.76312e-07 3.66364e-07)
(0.00128209 -3.97687e-07 2.27739e-07)
(0.00228925 -0.0036845 0.00198357)
(-0.0286506 -0.0165763 0.0310909)
(-0.031509 -0.0752557 0.0202563)
(-0.0297252 0.00595725 0.00580399)
(-0.00976071 -0.0125368 0.00353773)
(-0.0242177 0.00408589 -0.0051337)
(0.000265402 -0.000611575 0.000151815)
(0.00136319 0.00026077 9.6204e-07)
(0.00146413 0.000122796 -1.17139e-07)
(0.00134947 7.36074e-05 3.36571e-07)
(0.0013779 4.47647e-05 3.44792e-07)
(0.00137321 2.71984e-05 3.43761e-07)
(0.00137314 1.65547e-05 3.44944e-07)
(0.0013711 1.0179e-05 3.43542e-07)
(0.00136878 6.2824e-06 3.42912e-07)
(0.0013664 3.87292e-06 3.41892e-07)
(0.00136396 2.41384e-06 3.31718e-07)
(0.00136156 1.55318e-06 2.79848e-07)
(0.00135841 6.88105e-07 3.61545e-07)
(0.00135553 4.75209e-07 3.38056e-07)
(0.00135321 1.51269e-07 3.18019e-07)
(0.00135082 4.11099e-08 3.37516e-07)
(0.00134809 -1.60945e-07 3.93341e-07)
(0.0013448 2.01177e-07 3.03778e-07)
(0.00134216 1.26508e-07 3.37657e-07)
(0.00133981 1.21361e-07 3.11703e-07)
(0.00133729 -1.10765e-08 3.48711e-07)
(0.00133416 -2.90947e-08 3.22592e-07)
(0.00133188 -8.26377e-08 1.5946e-07)
(0.00132991 6.91516e-07 2.69784e-07)
(0.00132749 1.27031e-06 3.87876e-07)
(0.00132589 1.13828e-06 3.22e-07)
(0.00132345 7.00378e-07 8.13312e-07)
(0.00131982 4.78289e-07 4.26423e-07)
(0.00131707 1.45005e-07 3.75497e-07)
(0.00131497 2.01102e-07 3.39949e-07)
(0.0013125 1.21813e-07 2.9197e-07)
(0.00131015 3.28907e-08 3.42043e-07)
(0.00130783 -4.19072e-08 3.30222e-07)
(0.0013049 -2.21875e-07 3.10839e-07)
(0.00130204 -5.80271e-08 2.77641e-07)
(0.00129967 8.75076e-08 2.09979e-07)
(0.00129785 6.56584e-07 5.90942e-07)
(0.00129623 5.75689e-07 2.94041e-07)
(0.00129399 2.87918e-07 8.65164e-08)
(0.00129162 3.42851e-07 3.16894e-07)
(0.00128885 4.90296e-07 3.4086e-07)
(0.00128588 2.98656e-07 2.31364e-07)
(0.00128364 1.47511e-07 3.43363e-07)
(0.0012821 1.2559e-07 3.48747e-07)
(0.00649697 0.00550263 -0.0010704)
(0.0143382 0.0142656 0.00828823)
(-0.0143031 -0.0153858 0.00440869)
(-0.0157161 0.0143426 0.000392737)
(-0.00826378 -0.00290461 0.0112841)
(0.0176663 0.00500935 0.00328943)
(0.00363875 0.00317546 0.000153369)
(0.00140045 2.36462e-05 1.13432e-05)
(0.00137528 7.17728e-05 2.80294e-07)
(0.00130992 4.59039e-05 4.07482e-07)
(0.00135174 2.97529e-05 3.39106e-07)
(0.00135741 1.90943e-05 3.39726e-07)
(0.00136321 1.17211e-05 3.4059e-07)
(0.00136493 7.49146e-06 3.41941e-07)
(0.00136498 4.8216e-06 3.41504e-07)
(0.00136389 3.07587e-06 3.41278e-07)
(0.00136221 1.78842e-06 3.4038e-07)
(0.0013598 1.02973e-06 2.89848e-07)
(0.00135782 3.26927e-07 3.71637e-07)
(0.00135572 2.74707e-07 3.07184e-07)
(0.00135306 1.34744e-08 3.56135e-07)
(0.00135037 -1.80121e-07 3.35703e-07)
(0.00134793 -4.82861e-07 2.51971e-07)
(0.00134561 -2.36324e-07 2.16906e-07)
(0.00134275 9.08016e-08 2.79023e-07)
(0.00133997 3.38313e-07 2.75161e-07)
(0.00133736 4.80144e-07 4.01266e-07)
(0.00133489 6.55903e-07 3.90067e-07)
(0.00133297 1.49301e-06 3.0073e-07)
(0.00133053 1.16221e-06 5.32395e-07)
(0.0013273 1.33381e-06 4.25546e-07)
(0.00132425 1.28911e-06 -3.11427e-09)
(0.00132194 4.09925e-07 3.27127e-07)
(0.00131977 -1.3e-09 3.22149e-07)
(0.00131735 2.70861e-07 2.41584e-07)
(0.00131507 1.35606e-07 3.13547e-07)
(0.00131249 1.65432e-07 3.11135e-07)
(0.00131009 -3.35686e-08 3.36454e-07)
(0.00130741 -5.41858e-07 2.39771e-07)
(0.0013048 -5.59249e-07 2.06372e-07)
(0.00130265 -7.13166e-08 3.87968e-07)
(0.0013008 2.94719e-07 4.0475e-07)
(0.00129845 4.10287e-07 3.91384e-07)
(0.00129574 4.45407e-07 1.57869e-07)
(0.0012934 6.99235e-08 2.84126e-07)
(0.00129131 5.67939e-09 3.22195e-07)
(0.00128873 -1.1003e-07 3.82476e-07)
(0.00128602 1.22053e-07 1.13286e-07)
(0.0012836 4.43701e-07 3.1369e-07)
(0.00128175 3.97579e-07 2.31143e-07)
(0.00508447 -0.00262713 0.00023489)
(-0.00129861 0.00799379 0.000893149)
(0.00977343 0.0172154 -0.00614809)
(-0.0596852 -0.0140605 0.0104387)
(0.0221094 -0.0275856 0.00985968)
(0.00756221 -0.00459483 0.00158562)
(-0.000397212 0.00135227 3.58314e-05)
(0.00102381 2.96512e-05 6.24689e-05)
(0.00140146 1.40669e-05 6.04244e-07)
(0.00129714 9.16027e-06 4.03709e-07)
(0.00134446 7.57828e-06 3.57544e-07)
(0.00135071 5.00536e-06 8.50332e-07)
(0.00135866 3.81515e-06 3.28634e-07)
(0.00136248 2.31517e-06 3.40842e-07)
(0.00136326 1.32007e-06 3.05144e-07)
(0.00136261 7.65997e-07 3.59059e-07)
(0.0013614 5.08075e-07 3.41095e-07)
(0.00135973 2.1603e-07 3.29918e-07)
(0.00135746 4.4868e-07 4.73183e-07)
(0.00135514 2.12288e-07 3.23987e-07)
(0.00135264 7.26827e-08 3.71504e-07)
(0.0013502 2.47165e-07 2.97952e-07)
(0.00134802 3.07521e-07 3.55142e-07)
(0.00134552 1.51901e-07 2.76819e-07)
(0.00134288 8.97626e-08 2.51592e-07)
(0.00134029 4.94382e-08 3.72174e-07)
(0.00133768 2.77746e-07 3.88088e-07)
(0.00133541 3.88719e-07 2.88117e-07)
(0.0013325 4.93632e-07 2.70891e-07)
(0.00132969 2.94686e-07 5.3758e-07)
(0.00132764 1.26409e-07 -5.03324e-07)
(0.00132473 -2.71804e-07 3.11089e-07)
(0.00132183 3.00986e-07 3.13377e-07)
(0.00131964 1.43796e-07 3.34782e-07)
(0.00131724 2.23365e-07 3.00182e-07)
(0.00131484 -8.59708e-08 3.29551e-07)
(0.00131229 -3.75284e-07 3.40964e-07)
(0.00130927 -3.31982e-07 3.28369e-07)
(0.00130718 -2.88776e-07 4.26053e-07)
(0.0013055 -7.32497e-08 2.93782e-07)
(0.00130311 1.43819e-07 3.26586e-07)
(0.00130027 1.70609e-07 4.05336e-07)
(0.00129803 1.83289e-07 2.77232e-07)
(0.0012958 1.32406e-07 3.5055e-07)
(0.00129344 -1.02234e-07 3.39488e-07)
(0.00129139 -3.36341e-07 3.21774e-07)
(0.001289 -7.9264e-07 1.33061e-07)
(0.00128658 -6.8638e-07 1.42634e-08)
(0.00128397 -3.60853e-07 5.10424e-07)
(0.00128106 1.9578e-07 4.24318e-07)
(0.00918805 0.00493073 0.00103004)
(-0.00517785 0.0062377 -0.000656881)
(-0.000418754 0.00549692 -0.00104599)
(0.0171621 0.00261085 -0.00338409)
(0.00547115 0.00098575 -0.000181193)
(0.00367544 6.9001e-06 -0.00450763)
(0.00203187 0.00180152 6.29311e-05)
(0.00101176 -1.19261e-05 4.84271e-05)
(0.00140157 -3.25543e-05 5.67146e-07)
(0.00130187 -1.86595e-05 3.80787e-07)
(0.00134663 -1.27663e-05 2.95925e-07)
(0.00135276 -8.32936e-06 3.18882e-07)
(0.00135988 -4.92917e-06 2.39832e-07)
(0.00136183 -3.2902e-06 3.41232e-07)
(0.00136306 -2.17729e-06 5.79962e-07)
(0.00136288 -1.48621e-06 4.37119e-07)
(0.00136153 -8.86895e-07 3.41487e-07)
(0.00135972 -4.85746e-07 3.36634e-07)
(0.00135782 -3.97577e-07 3.22921e-07)
(0.00135525 -5.20505e-08 3.49397e-07)
(0.0013531 2.20393e-07 2.44403e-07)
(0.00135067 3.18096e-07 6.27912e-07)
(0.00134781 3.72318e-07 3.08369e-07)
(0.00134534 2.10455e-07 3.46188e-07)
(0.00134262 2.39164e-07 3.77808e-07)