/*--------------------------------*- C++ -*----------------------------------*\
| =========                 |                                                 |
| \\      /  F ield         | OpenFOAM: The Open Source CFD Toolbox           |
|  \\    /   O peration     | Version:  5.0                                   |
|   \\  /    A nd           | Web:      www.OpenFOAM.org                      |
|    \\/     M anipulation  |                                                 |
\*---------------------------------------------------------------------------*/
FoamFile
{
    version     2.0;
    format      ascii;
    class       surfaceVectorField;
    location    "3.7";
    object      Uf;
}
// * * * * * * * * * * * * * * * * * * * * * * * * * * * * * * * * * * * * * //

dimensions      [0 1 -1 0 0 0 0];

internalField   nonuniform List<vector> 
26428
(
(-0.0168553 -0.00637342 -0.000823967)
(-0.00213577 -0.0124873 -0.000642312)
(-0.0073726 -0.00868643 0.00192737)
(0.00339506 -0.00275345 -0.0032381)
(5.92424e-05 -0.00184657 -0.000866393)
(0.00591818 -2.81288e-05 -0.00139297)
(0.0339774 0.00734576 -0.0422962)
(0.0264739 -0.0100303 0.039867)
(0.0144873 0.00941677 0.0487787)
(-0.0202573 -0.0118079 -0.0473229)
(-0.00570577 -0.00494458 -6.24368e-05)
(-0.00914328 -0.00589307 0.000113466)
(-0.0166877 -0.0104937 -0.000810519)
(-0.0111466 -0.00498453 0.00185966)
(-0.00161624 -0.00236305 -0.00013756)
(0.00465493 -0.0037995 -0.000257207)
(0.00070813 -0.00133634 0.000580837)
(0.00176765 -0.0117106 -0.000503368)
(0.000665168 -0.0104158 0.000286657)
(-0.00609396 -0.000553377 0.00021279)
(0.00786 0.000866838 0.000356259)
(0.00803432 -0.00578497 -0.000178347)
(-0.00121135 -0.0105086 -4.43036e-05)
(0.00530807 -0.00438166 -6.36546e-05)
(0.00175864 -0.00828127 -0.000184655)
(0.00338378 -0.0130117 -0.000596728)
(0.00113332 -0.000167053 4.84828e-06)
(0.000477638 -0.000141536 4.5123e-05)
(0.000515312 -0.000240158 7.57448e-05)
(0.000302599 -0.000102517 2.09693e-05)
(0.000907618 -3.76199e-05 -1.10581e-06)
(0.000666563 -2.93921e-05 -1.38154e-06)
(0.00131422 -9.08562e-05 -1.36818e-06)
(0.000651398 -9.61502e-05 -5.15916e-06)
(0.000712877 -7.27922e-05 -6.34586e-06)
(0.0010881 -0.000180565 -5.60158e-06)
(0.00120378 -0.000125718 -6.04521e-06)
(0.000643764 -4.3886e-05 -4.15662e-06)
(0.00112157 -2.25542e-05 -7.84041e-07)
(0.00106681 -5.44689e-05 -4.99736e-06)
(0.000862439 -4.51674e-06 -2.5528e-07)
(0.000894309 2.35836e-05 -9.3496e-07)
(0.00116617 1.66992e-06 3.99677e-08)
(0.000844938 -5.09784e-06 6.06864e-08)
(0.000843241 2.74561e-06 -1.87691e-07)
(0.00113862 -7.25834e-06 1.76381e-07)
(0.000833249 -2.43115e-06 6.65584e-08)
(0.000837498 3.05483e-06 1.18981e-07)
(0.00111894 -2.4337e-06 1.62724e-07)
(0.000826592 -1.49526e-06 1.71636e-08)
(0.000828346 1.34118e-06 3.89809e-08)
(0.00110678 -1.73786e-06 1.85958e-07)
(0.000821931 -7.94508e-07 2.54412e-08)
(0.000823539 6.59721e-07 1.50138e-08)
(0.00109968 -8.80204e-07 1.85774e-07)
(0.000818274 -4.92545e-07 5.73109e-08)
(0.000819624 3.11811e-07 5.67635e-08)
(0.00109414 -4.03698e-07 1.28073e-07)
(0.000815819 -4.66914e-07 1.44035e-08)
(0.000816691 1.46435e-07 4.82979e-08)
(0.00109001 -3.74509e-07 1.77175e-07)
(0.00081315 -3.95975e-07 1.70489e-08)
(0.000814366 1.60294e-06 2.4211e-08)
(0.00108663 -5.05072e-07 1.22542e-07)
(0.000811342 -2.56989e-07 6.88619e-08)
(0.000812315 -1.02823e-07 3.79871e-08)
(0.00108363 -3.04635e-07 1.76833e-07)
(0.00080971 -3.01532e-07 9.05596e-08)
(0.000810415 -9.91817e-09 8.16025e-08)
(0.00108141 -2.27061e-07 1.79308e-07)
(0.000807855 -3.3462e-07 1.08118e-07)
(0.000808743 -7.69662e-07 6.93165e-08)
(0.00107903 -4.53694e-07 2.57451e-07)
(0.000806374 -2.83828e-07 8.96202e-08)
(0.000807193 -1.29595e-07 7.46143e-08)
(0.00107677 -3.44728e-07 1.53731e-07)
(0.000804969 -1.83424e-07 6.71918e-08)
(0.000805719 -7.76865e-08 7.11063e-08)
(0.00107495 -3.29173e-07 2.08749e-07)
(0.000803172 -3.16631e-08 6.8487e-08)
(0.000804182 8.10068e-08 6.897e-08)
(0.00107271 -4.6364e-08 1.78736e-07)
(0.000802099 -1.37569e-08 5.29161e-08)
(0.000802594 -9.91519e-07 4.60963e-08)
(0.00107075 7.142e-08 1.83954e-07)
(0.000800575 -2.40783e-08 4.9516e-08)
(0.000801233 -1.05386e-07 3.47781e-08)
(0.00106909 -2.9736e-08 1.797e-07)
(0.000799154 -1.97114e-09 5.27462e-08)
(0.000799813 -1.7186e-07 5.19861e-08)
(0.0010671 4.20699e-08 1.7858e-07)
(0.000797497 1.17199e-08 4.56462e-08)
(0.000798283 7.53746e-08 4.89471e-08)
(0.00106501 4.36436e-08 1.52027e-07)
(0.000795976 2.71643e-08 4.36678e-08)
(0.000796757 9.76478e-08 3.62306e-08)
(0.00106286 5.34501e-08 1.72132e-07)
(0.000794554 9.75026e-08 9.91944e-08)
(0.000795383 -2.46108e-08 4.59821e-08)
(0.00106107 3.38417e-08 1.76231e-07)
(0.000793084 9.32499e-09 1.07909e-07)
(0.000793784 -1.6896e-07 1.09771e-07)
(0.00105899 2.00791e-07 1.29684e-07)
(0.000791745 -2.96598e-07 7.10096e-08)
(0.000792147 1.79907e-07 7.11064e-08)
(0.001057 -2.39836e-07 1.84348e-07)
(0.000789916 -4.69981e-07 5.62128e-08)
(0.000790759 -6.05395e-07 -1.78604e-08)
(0.00105502 -6.63837e-07 3.6724e-07)
(0.000788696 -4.16119e-07 5.83e-08)
(0.000789342 -5.45697e-07 2.82819e-08)
(0.00105283 -6.87125e-07 3.19381e-07)
(0.000787081 -1.33467e-07 7.68434e-08)
(0.000788131 -1.09459e-07 1.0307e-07)
(0.00105096 -4.67631e-07 1.83571e-07)
(0.000786372 1.28277e-07 5.7353e-08)
(0.000787042 -1.79598e-06 8.80857e-08)
(0.0010496 8.07731e-08 2.37854e-07)
(0.000784601 1.35164e-07 7.62082e-08)
(0.000785452 2.22524e-07 4.23448e-08)
(0.00104793 2.49925e-07 1.69893e-07)
(0.00078306 1.00524e-08 8.95481e-08)
(0.000783784 6.57924e-08 7.53715e-08)
(0.00104563 1.31836e-07 1.86348e-07)
(0.000781401 7.24732e-08 4.54601e-08)
(0.000782438 1.12885e-07 5.55583e-08)
(0.0010435 -6.47086e-08 1.7298e-07)
(0.000779793 4.15633e-07 4.69038e-08)
(0.000781022 5.89243e-07 1.33787e-08)
(0.00104118 2.88248e-07 1.36851e-07)
(0.000779594 4.25012e-07 8.63387e-08)
(0.000779631 -2.64821e-06 4.04073e-08)
(0.00104004 8.24523e-07 2.22571e-07)
(0.000777691 1.46047e-07 6.37048e-08)
(0.000778203 4.10607e-07 5.19294e-08)
(0.00103876 3.34731e-07 1.75411e-07)
(0.000776223 8.70565e-08 4.60299e-08)
(0.000776773 1.16481e-07 4.19705e-08)
(0.00103642 8.99731e-08 1.72803e-07)
(0.000774754 -3.52079e-08 6.01504e-08)
(0.000775327 6.98626e-08 2.44186e-08)
(0.00103438 1.26957e-07 1.73124e-07)
(0.000773849 -2.57013e-07 3.0777e-08)
(0.000774018 -1.3545e-07 3.04125e-08)
(0.00103303 -2.63973e-07 3.25741e-07)
(0.000771659 -2.47763e-07 1.98146e-08)
(0.000772711 2.35412e-06 5.15222e-08)
(0.00103083 -4.21328e-07 9.03059e-08)
(0.000770263 -1.0694e-07 -1.54528e-08)
(0.000771236 -2.09359e-07 3.51083e-08)
(0.00102839 -2.21839e-07 1.76379e-07)
(0.000768921 1.12686e-08 -5.24121e-09)
(0.000769773 3.34531e-07 2.68058e-09)
(0.00102661 -1.0352e-07 1.39921e-07)
(0.0007681 -9.67404e-09 5.83662e-08)
(0.000768466 -6.74863e-07 5.26014e-08)
(0.0010251 6.48284e-08 1.57645e-07)
(0.000766515 -2.31408e-07 5.4948e-08)
(0.000767161 1.67776e-07 2.59854e-08)
(0.00102367 -1.62432e-07 1.77107e-07)
(0.000764803 -3.3714e-07 2.61245e-08)
(0.0007656 -3.01074e-07 -1.29744e-08)
(0.00102131 -4.89337e-07 2.11804e-07)
(0.000764301 9.01713e-07 5.81166e-08)
(0.00101915 -4.00524e-07 1.1137e-07)
(0.00693635 -0.00563252 -0.000472203)
(0.011568 -0.00342355 -7.15169e-05)
(0.00427547 0.00321545 6.65317e-05)
(0.00929364 -0.00033698 -0.00151577)
(-0.0134052 -0.0112664 2.25766e-05)
(-0.0359972 -0.00089744 -0.00103629)
(-0.00570116 -0.0158184 0.000841027)
(0.000109449 -0.00518627 0.00135189)
(9.58657e-05 -0.0105661 0.000121151)
(0.0150554 -0.0362987 -0.00340089)
(-0.0147552 -0.0115855 -0.00346941)
(0.0423174 -0.0231091 0.00029645)
(-0.00193536 -0.0207922 -0.00809285)
(0.00334201 0.0132585 -0.000572043)
(0.00518698 -0.00766171 0.000463711)
(-0.00334274 -0.0112 0.00194409)
(0.0426179 -0.0164865 -0.00161366)
(0.00418716 -0.00830123 0.00121449)
(0.0162263 -0.03038 9.20142e-05)
(0.0124759 -0.027198 -0.000570943)
(0.0115134 -0.0135216 0.00230144)
(0.00643378 -0.00379981 0.00114279)
(0.00805066 -0.0129876 -0.00271836)
(0.0213913 -0.0123674 -0.000890284)
(0.00813252 -0.0063231 -0.00217886)
(-0.014931 0.0137722 0.000832095)
(-0.0145813 0.00629335 -0.00480025)
(-0.000929851 0.00899859 0.000511436)
(-0.0048762 0.00434699 0.00468003)
(-0.0325132 -0.00444453 -0.048217)
(-0.0174848 0.00129059 0.00342312)
(-0.00349381 -0.0154513 0.0453328)
(0.00291606 -0.000104728 -0.00632681)
(-0.00452277 0.0223461 0.00514217)
(0.00722929 0.0300705 0.00938725)
(-0.00813784 -0.00674814 -0.00176827)
(0.00596204 0.00935241 -0.000138525)
(0.000798173 0.000721835 -0.0034697)
(0.000873987 0.000280984 0.000193908)
(0.00822883 -0.00196252 -4.21293e-05)
(0.00965018 0.00359337 0.000756053)
(0.00106413 -0.000838525 9.34212e-05)
(0.000518771 -7.4976e-05 4.69229e-05)
(0.00080383 -0.000201634 4.17529e-05)
(0.000638511 -0.000128478 5.15647e-05)
(0.000553994 -9.41086e-05 2.19743e-05)
(0.000553391 8.20701e-07 -5.15597e-07)
(0.00053462 -8.98962e-06 -3.49179e-06)
(0.000509667 1.32345e-05 -4.42711e-07)
(0.000849634 6.59556e-06 -1.27173e-06)
(0.000851612 2.46975e-05 -8.67615e-07)
(0.000904549 3.71e-05 -1.55246e-06)
(0.00122088 5.28369e-05 -1.2092e-06)
(0.00063454 5.82691e-07 -4.04343e-06)
(0.000636749 2.12799e-05 -5.12882e-06)
(0.00106087 -7.27467e-06 -4.88437e-06)
(0.00105754 4.10701e-05 -6.43457e-06)
(0.00083911 1.04476e-05 -1.29497e-07)
(0.000825268 1.81336e-05 -5.03361e-07)
(0.00111162 1.89077e-05 6.21172e-08)
(0.000830775 6.50776e-06 9.14297e-08)
(0.000832522 1.12005e-05 1.61122e-07)
(0.00111576 1.25155e-05 2.04084e-07)
(0.00082511 3.67308e-06 3.6839e-08)
(0.000824772 6.56107e-06 2.33637e-08)
(0.00110349 6.97756e-06 1.75876e-07)
(0.000820944 2.1052e-06 4.63225e-08)
(0.000821562 3.96012e-06 5.03439e-08)
(0.0010978 4.14102e-06 1.79106e-07)
(0.000817785 1.18858e-06 4.77533e-08)
(0.000818468 2.35318e-06 4.69516e-08)
(0.00109293 2.28429e-06 1.79065e-07)
(0.000815201 6.27547e-07 5.81132e-08)
(0.000815984 1.46002e-06 5.10686e-08)
(0.00108921 1.36909e-06 1.79861e-07)
(0.000813452 3.21478e-07 4.51447e-08)
(0.000813981 1.05596e-06 5.84064e-08)
(0.00108637 6.18885e-07 2.36339e-07)
(0.000811399 1.91532e-07 5.07137e-08)
(0.00081215 5.88225e-07 4.02773e-08)
(0.00108391 4.5037e-07 1.77636e-07)
(0.000809267 1.55728e-07 6.03634e-08)
(0.000810369 8.14548e-07 7.45477e-08)
(0.00108107 1.95055e-07 1.75357e-07)
(0.000808217 2.09732e-07 3.58112e-08)
(0.00080881 -4.29232e-07 7.18829e-08)
(0.00107896 3.15181e-07 1.15563e-07)
(0.000806392 2.65098e-07 5.61015e-08)
(0.000807261 2.68951e-07 3.42987e-08)
(0.00107706 3.04059e-07 1.78747e-07)
(0.000805059 2.52197e-07 7.28852e-08)
(0.000805702 2.02577e-08 6.0823e-08)
(0.00107495 4.35647e-07 1.57188e-07)
(0.000803494 3.13044e-07 4.65866e-08)
(0.000804256 1.94744e-07 5.28453e-08)
(0.00107304 2.57634e-07 1.76401e-07)
(0.000801768 3.50686e-07 2.79619e-08)
(0.000802639 -4.35397e-07 5.63681e-08)
(0.00107071 5.99727e-07 1.59908e-07)
(0.000800448 1.41773e-07 3.72427e-08)
(0.000800971 -7.44556e-07 -2.8824e-08)
(0.00106875 3.70491e-07 2.08056e-07)
(0.000798979 -7.69652e-08 4.81879e-08)
(0.000799539 6.90025e-08 5.09101e-08)
(0.00106694 5.49215e-08 1.59884e-07)
(0.000797534 -1.90612e-07 3.95355e-08)
(0.000798141 8.46051e-08 3.94336e-08)
(0.00106489 -2.07723e-07 1.741e-07)
(0.000796126 -2.22042e-07 3.85418e-08)
(0.000796719 4.65676e-08 2.31757e-08)
(0.00106298 -2.53612e-07 1.75336e-07)
(0.00079468 -3.81658e-07 5.65382e-08)
(0.000795186 7.92185e-08 5.10345e-08)
(0.00106113 -3.26895e-07 1.67959e-07)
(0.000792782 -4.85467e-07 7.29799e-08)
(0.000793657 -7.78801e-07 3.31875e-08)
(0.00105887 -7.6819e-07 2.58199e-07)
(0.000791227 -3.67168e-07 -1.77356e-08)
(0.000792298 3.33713e-07 4.88614e-08)
(0.00105641 -6.1989e-07 1.74261e-07)
(0.000790067 -1.96425e-07 -4.58059e-08)
(0.000790975 1.48429e-07 1.94961e-08)
(0.00105475 -4.16423e-07 9.71139e-08)
(0.00078879 1.43529e-07 7.30281e-08)
(0.000789767 3.81003e-07 3.68407e-08)
(0.00105316 -1.70246e-07 9.51539e-08)
(0.000788062 4.327e-07 1.14317e-07)
(0.000788492 -2.45071e-06 5.99823e-08)
(0.00105178 5.43714e-07 2.78391e-07)
(0.000786363 2.4585e-07 7.30918e-08)
(0.000786807 -2.26392e-06 5.6389e-08)
(0.00105025 6.54004e-07 2.31815e-07)
(0.000784401 7.93091e-08 4.14978e-08)
(0.000785243 8.99862e-07 6.78716e-08)
(0.00104769 5.31671e-08 1.73772e-07)
(0.000783199 1.9738e-07 4.13877e-08)
(0.000783931 -9.81437e-08 4.59871e-08)
(0.00104553 1.88516e-07 1.65955e-07)
(0.000782087 3.32132e-07 2.34899e-08)
(0.000782605 -2.09133e-07 4.73173e-08)
(0.001044 3.33118e-07 1.69264e-07)
(0.000780824 5.75209e-07 6.87384e-09)
(0.000781324 9.75078e-08 2.8015e-08)
(0.00104252 5.41588e-07 1.94998e-07)
(0.000778313 5.61731e-07 5.99446e-09)
(0.000779612 -7.0637e-07 1.7302e-08)
(0.00103993 9.72633e-07 1.3227e-07)
(0.000777194 2.8082e-07 3.01981e-08)
(0.00077785 2.50161e-07 1.53837e-08)
(0.00103741 5.39366e-07 1.58185e-07)
(0.000775968 9.72177e-08 2.03646e-08)
(0.000776543 -4.81587e-08 4.77069e-08)
(0.00103592 2.35444e-07 1.68061e-07)
(0.000774505 -5.99915e-08 -5.32121e-09)
(0.000775131 2.45189e-07 1.3127e-08)
(0.00103409 9.88722e-09 1.6478e-07)
(0.000772895 -2.86619e-07 5.11512e-08)
(0.000773736 9.84655e-08 3.96382e-08)
(0.00103201 -2.0281e-07 1.73852e-07)
(0.000772327 -2.6361e-07 6.68209e-08)
(0.000772741 2.83642e-07 9.54869e-08)
(0.00103072 -6.0102e-07 2.46462e-07)
(0.00077074 -2.39534e-08 5.32516e-08)
(0.000771538 1.68538e-07 6.67721e-08)
(0.0010292 -1.44052e-07 1.61101e-07)
(0.000769217 2.06301e-07 6.0508e-08)
(0.00077006 4.69186e-08 9.53697e-08)
(0.00102709 1.16577e-08 2.03665e-07)
(0.000767647 2.25985e-07 2.02287e-08)
(0.00076849 -1.13475e-06 9.61623e-08)
(0.0010251 4.6661e-07 2.20352e-07)
(0.000766207 -1.39413e-09 -4.19252e-08)
(0.000766877 2.63805e-07 3.44981e-08)
(0.00102304 8.77607e-08 1.67921e-07)
(0.000765006 -1.24422e-07 1.8996e-08)
(0.000765449 1.08825e-07 -6.4405e-09)
(0.00102121 -1.46406e-07 1.23032e-07)
(0.000764455 -1.17708e-07 1.06752e-07)
(0.00101985 -2.31475e-07 2.31533e-07)
(-0.00507378 -0.000727006 0.000437111)
(0.00226178 -0.0219131 -5.93273e-05)
(-0.00553773 -0.0125302 0.00190442)
(-0.00202699 -0.000268389 0.000702556)
(-0.00351146 0.00784913 -0.00217528)
(-0.0429436 0.0183672 -0.00307398)
(-0.00592075 0.0130541 -0.0020696)
(0.00595198 0.0611423 -0.000229775)
(0.00640355 0.0301488 -0.00140258)
(0.0168067 0.0759133 -0.00486454)
(-0.0168858 0.0393714 -0.00118539)
(0.010411 0.0124447 -0.0839864)
(-0.0149113 -0.00774477 0.0092135)
(-0.0248847 0.0282029 0.0217553)
(0.00656772 0.00412463 0.0528204)
(0.0336595 -0.00500905 8.83002e-05)
(-0.00255381 0.0370197 -0.00175562)
(-0.000841997 -0.00301104 -0.00196475)
(0.00412904 0.0187954 0.00497586)
(0.00258299 0.00578898 0.00120684)
(-0.0282265 0.0437135 -0.00520511)
(-0.0075041 0.0129737 0.000327507)
(-0.0195211 0.027889 0.00191738)
(0.00924335 0.0124397 0.00112769)
(-0.0184384 0.0144184 -0.00843057)
(0.0066951 0.0132101 -0.000681115)
(0.0120538 0.0159659 -0.00119413)
(-0.0183049 0.015232 0.000116037)
(0.00390775 0.0267334 -0.00106998)
(-0.0143183 0.0211583 0.00208349)
(0.00247336 0.0138237 0.00070071)
(-0.0273814 -0.0215595 -0.000165396)
(-0.0216746 -0.0129235 0.000641817)
(-0.00341471 -0.0173727 -0.000265193)
(-0.019918 -0.0295791 -0.00447353)
(-0.00935342 -0.0182504 -0.000994704)
(0.023156 -1.60544e-05 0.00101575)
(0.0103063 0.0004458 0.000283772)
(0.0102832 -0.00232827 9.2391e-05)
(0.0215499 -0.00517765 1.49849e-05)
(0.0119111 -0.00309151 0.000349636)
(0.000619932 -0.00010893 9.28383e-05)
(0.00112652 0.000957169 0.000129629)
(0.00087662 -4.5061e-05 0.000112619)
(0.000480126 0.000280098 7.61088e-05)
(0.000519566 0.000176253 7.4039e-05)
(0.000336208 1.99735e-05 -1.51826e-06)
(0.000505296 3.22132e-05 -3.62607e-06)
(0.000473198 3.87392e-05 3.96014e-07)
(0.000778343 7.48385e-05 -1.43594e-06)
(0.000350758 1.59744e-05 8.99569e-08)
(0.000628831 3.31554e-05 2.59993e-06)
(0.000661591 2.42217e-05 5.64045e-06)
(0.000489987 3.08637e-05 -7.85834e-07)
(0.000829944 2.91655e-05 -1.18855e-06)
(0.000875893 3.34799e-05 -1.65137e-06)
(0.0011884 5.06801e-05 -1.09892e-06)
(0.000623 2.74038e-05 -3.92784e-06)
(0.000605956 3.26779e-05 -5.25274e-06)
(0.00103113 5.3279e-05 -4.78608e-06)
(0.000993327 6.40751e-05 -6.30025e-06)
(0.000827443 1.73648e-05 -2.1296e-07)
(0.000810401 2.12127e-05 -3.23916e-07)
(0.00108779 2.99251e-05 4.97229e-08)
(0.000824048 1.05019e-05 9.31005e-08)
(0.000823894 1.316e-05 1.69547e-07)
(0.0011039 1.81203e-05 2.0542e-07)
(0.000821263 6.36618e-06 3.68598e-08)
(0.000819572 8.19345e-06 2.66897e-08)
(0.00109624 1.09477e-05 1.75234e-07)
(0.000818793 3.90167e-06 5.09741e-08)
(0.000818463 5.10516e-06 5.58941e-08)
(0.00109377 6.67476e-06 1.81572e-07)
(0.000816557 2.42689e-06 5.02656e-08)
(0.000816613 3.2312e-06 5.03976e-08)
(0.00109065 4.11684e-06 1.79669e-07)
(0.00081454 1.57182e-06 5.13594e-08)
(0.000814908 2.06067e-06 5.11325e-08)
(0.00108791 2.58482e-06 1.80199e-07)
(0.00081278 1.00875e-06 5.35447e-08)
(0.000813273 1.37089e-06 5.08139e-08)
(0.00108548 1.72662e-06 1.78222e-07)
(0.000811017 6.29509e-07 6.41002e-08)
(0.000811674 8.12723e-07 5.20101e-08)
(0.00108309 1.02168e-06 1.84828e-07)
(0.000809827 4.82893e-07 8.60681e-08)
(0.000810185 -1.17956e-06 2.9683e-08)
(0.00108124 6.80736e-07 2.88715e-07)
(0.000807933 3.56836e-07 7.03825e-08)
(0.000808652 3.11703e-07 7.71222e-08)
(0.00107916 5.60983e-07 1.60894e-07)
(0.000806521 2.43158e-07 3.90117e-08)
(0.000807119 1.69348e-07 3.65344e-08)
(0.00107692 3.20222e-07 1.77492e-07)
(0.000804855 1.91073e-07 4.07856e-08)
(0.000805637 1.9652e-07 5.7642e-08)
(0.00107488 2.71165e-07 1.80635e-07)
(0.000803522 1.12046e-07 6.26256e-08)
(0.000804158 5.62645e-08 4.79249e-08)
(0.00107291 1.79302e-07 1.73844e-07)
(0.000801765 1.16341e-07 -3.90759e-10)
(0.000802644 2.18324e-07 5.4776e-08)
(0.00107089 7.77136e-08 1.55758e-07)
(0.000800011 1.38849e-07 -1.5182e-08)
(0.000800998 -6.93435e-08 -1.22006e-08)
(0.0010684 2.24966e-07 1.54114e-07)
(0.000798697 9.87769e-08 4.21594e-08)
(0.000799488 -1.35209e-07 3.86286e-08)
(0.00106638 1.3894e-07 1.77428e-07)
(0.000797347 3.507e-08 2.30789e-08)
(0.000798062 -8.14081e-08 3.11171e-08)
(0.00106463 1.12308e-07 1.7818e-07)
(0.000795812 -3.76451e-08 3.56596e-08)
(0.000796628 1.91819e-07 3.7996e-08)
(0.00106271 -9.58115e-10 1.72621e-07)
(0.000794187 -9.93246e-08 2.76895e-08)
(0.000795109 -1.18889e-08 5.67276e-08)
(0.00106043 -5.93636e-08 1.97383e-07)
(0.000793021 7.30425e-08 9.06414e-09)
(0.000793872 5.65803e-07 1.77616e-08)
(0.00105863 -1.54536e-07 5.60183e-08)
(0.000792201 3.64303e-07 8.61024e-08)
(0.00079266 8.7523e-07 4.05899e-08)
(0.00105745 4.15343e-07 8.20666e-08)
(0.000790524 4.76686e-07 1.02137e-07)
(0.000791113 4.04592e-07 8.14852e-08)
(0.00105559 6.61053e-07 1.77971e-07)
(0.000789563 4.75154e-07 2.37877e-08)
(0.000789763 5.52876e-07 2.08059e-08)
(0.00105403 7.08684e-07 1.20735e-07)
(0.000787311 2.954e-07 2.0559e-09)
(0.000788265 1.67155e-08 1.83671e-08)
(0.00105199 5.9198e-07 7.22546e-08)
(0.000785564 3.68042e-08 5.11652e-08)
(0.000786483 4.15086e-08 2.79565e-08)
(0.00104898 2.16824e-07 3.87392e-08)
(0.000784764 -5.28445e-09 7.23678e-08)
(0.00078519 1.5485e-07 7.38972e-08)
(0.00104734 -8.71402e-08 1.71552e-07)
(0.000783347 4.56238e-08 5.19163e-08)
(0.000783994 -1.26853e-07 4.66319e-08)
(0.00104598 7.46996e-08 1.75579e-07)
(0.00078182 -2.30887e-08 5.18483e-08)
(0.000782519 -4.04469e-08 4.40771e-08)
(0.00104393 4.36503e-08 1.71217e-07)
(0.000780387 -1.71678e-07 3.84465e-08)
(0.000781139 -8.99264e-08 4.62182e-08)
(0.00104197 -8.43844e-08 1.8843e-07)
(0.000778832 -1.17609e-07 2.66919e-08)
(0.00077968 -2.77204e-07 2.45961e-08)
(0.00104003 -3.30151e-07 1.55061e-07)
(0.000777258 2.50082e-08 3.28825e-08)
(0.000778029 7.59449e-07 -1.43513e-08)
(0.00103783 2.94475e-08 1.50936e-07)
(0.000775768 3.54453e-08 4.048e-08)
(0.000776556 -1.27392e-07 -1.15687e-08)
(0.00103576 1.26752e-08 1.85649e-07)
(0.000774344 1.8716e-07 5.80783e-08)
(0.000775319 -1.62797e-07 6.06113e-08)
(0.00103383 8.65399e-08 2.0341e-07)
(0.000773353 4.10144e-07 8.39567e-08)
(0.000774013 -1.14879e-06 1.19481e-07)
(0.00103227 4.64396e-07 2.25074e-07)
(0.000772222 3.68597e-07 9.54469e-08)
(0.000772687 4.45586e-07 1.57679e-08)
(0.00103091 6.77696e-07 1.35635e-07)
(0.000770807 2.22945e-07 1.08882e-07)
(0.000771354 -6.43872e-09 4.20554e-08)
(0.00102916 3.58361e-07 1.85592e-07)
(0.000769391 2.30844e-07 1.31024e-07)
(0.000770069 -1.96501e-08 8.3154e-08)
(0.00102738 3.14789e-07 1.77928e-07)
(0.000767621 3.286e-07 1.10451e-07)
(0.000768611 -3.87453e-08 1.07852e-07)
(0.0010252 3.5453e-07 1.25196e-07)
(0.000766157 3.2257e-07 6.99953e-08)
(0.000766868 3.76509e-07 6.55187e-08)
(0.00102291 5.28325e-07 1.68865e-07)
(0.000764684 1.88571e-07 8.1281e-08)
(0.000765279 1.69389e-07 5.18026e-08)
(0.00102092 3.07791e-07 1.734e-07)
(0.000764219 -1.09685e-06 1.33049e-07)
(0.00101962 1.75806e-07 2.0564e-07)
(0.00733775 -0.0066751 -0.000527556)
(0.00332632 -0.00485363 0.000107164)
(0.00215133 -0.00902791 -0.000256184)
(0.00568823 -0.00543274 -8.17803e-05)
(5.77773e-05 -0.00311154 -0.000543956)
(-0.0110902 -0.00138863 -0.000368431)
(-0.00301474 0.00185293 -0.000572407)
(0.00031659 0.0015671 -0.000656879)
(-0.000974295 0.0025368 -0.000986743)
(0.00168561 -0.0051458 0.000335827)
(0.00436266 -0.00580392 0.000121181)
(-0.00161156 -0.00848833 0.00063896)
(0.000152961 -0.00665766 -7.80365e-05)
(-0.00101219 0.0056561 0.000127822)
(-0.00486027 -0.00367186 0.000338732)
(-0.00649754 -0.00432585 0.000158627)
(0.00150466 -0.0209063 0.00729333)
(-0.00613637 -0.000928643 -0.000394783)
(0.0052676 -0.0265618 -0.00260244)
(0.00694658 0.00953952 -0.00171566)
(-0.00574623 0.00669486 0.00492831)
(0.0231948 -0.0151395 0.000974631)
(0.00324376 -0.0116624 0.000814964)
(0.010912 -0.0225268 0.00552197)
(-0.000824357 -0.0146425 -0.000743097)
(0.0073402 0.00128279 0.00141401)
(0.00168928 -0.0210498 0.000115359)
(0.0231633 0.00261334 0.00051696)
(0.00942285 0.0105982 -0.000260059)
(0.0128689 -0.00243535 1.95521e-05)
(-0.00659476 0.00653668 -0.00123213)
(0.0248203 -0.0101587 -0.000553604)
(0.00136534 0.00131532 4.08231e-06)
(0.000954403 0.000965428 2.61065e-05)
(0.000426496 0.000970394 1.06964e-05)
(0.00152983 0.00126324 3.56529e-05)
(0.000938896 0.000773919 2.77538e-05)
(0.000383577 -7.23525e-05 2.54973e-05)
(0.000375542 2.19935e-06 4.6086e-06)
(0.000333 -2.48732e-08 5.53097e-06)
(0.000544487 -1.3281e-05 1.13226e-05)
(0.000251481 -1.00538e-05 1.04311e-06)
(0.000810571 2.19579e-05 -7.87175e-07)
(0.000867574 2.10086e-05 -1.20882e-06)
(0.0011423 3.48991e-05 -1.09708e-06)
(0.000608178 2.40121e-05 -4.4496e-06)
(0.000578504 9.82939e-06 -4.91324e-06)
(0.00101583 4.67306e-05 -5.30422e-06)
(0.000945318 1.19729e-05 -5.38607e-06)
(0.000816493 1.45368e-05 5.84296e-08)
(0.000801113 1.34613e-05 -3.30601e-07)
(0.00107065 2.29213e-05 7.08698e-08)
(0.000817265 9.65574e-06 1.03183e-07)
(0.000817766 9.84948e-06 1.81233e-07)
(0.00109192 1.54315e-05 2.09644e-07)
(0.000817062 6.24549e-06 4.57145e-08)
(0.000815291 6.57557e-06 1.29045e-08)
(0.00108911 1.00761e-05 1.76871e-07)
(0.000816106 4.00619e-06 5.53194e-08)
(0.000815651 4.33749e-06 1.67548e-07)
(0.00108922 6.42206e-06 1.82994e-07)
(0.000814908 2.60618e-06 5.12642e-08)
(0.000814855 2.80414e-06 5.15779e-08)
(0.00108779 4.14778e-06 1.80327e-07)
(0.000813566 1.73596e-06 5.05871e-08)
(0.000813814 1.82452e-06 5.16892e-08)
(0.00108621 2.73258e-06 1.79896e-07)
(0.000812166 1.14269e-06 4.92789e-08)
(0.000812527 1.22024e-06 3.31782e-08)
(0.0010844 1.848e-06 1.79322e-07)
(0.000810739 7.84161e-07 1.76001e-08)
(0.000811223 7.44895e-07 4.9962e-08)
(0.0010826 1.15696e-06 1.76201e-07)
(0.000809144 4.70104e-07 2.07219e-08)
(0.000809791 3.76198e-07 1.61978e-08)
(0.00108049 8.97464e-07 7.87082e-08)
(0.000807694 6.38739e-08 4.32871e-08)
(0.000808143 -3.14534e-07 5.5166e-08)
(0.00107851 3.18274e-07 2.17041e-07)
(0.000806321 -9.62763e-08 5.51579e-08)
(0.000806919 -4.50734e-08 6.59266e-08)
(0.0010767 -1.50706e-07 1.8206e-07)
(0.000804851 -7.22447e-08 6.47844e-08)
(0.000805667 -2.28309e-08 7.35182e-08)
(0.00107477 -9.78237e-08 1.91079e-07)
(0.00080337 -1.05942e-07 4.0073e-08)
(0.000804116 3.87559e-08 1.39017e-07)
(0.0010728 -1.13468e-07 1.78301e-07)
(0.000801821 -9.60326e-08 4.29875e-08)
(0.000802658 -7.15184e-08 3.27735e-08)
(0.00107077 -2.12364e-07 2.03462e-07)
(0.000800474 1.55559e-08 4.15939e-08)
(0.000801139 1.72868e-07 7.37322e-08)
(0.00106883 -9.43513e-08 1.48907e-07)
(0.000798819 1.55308e-07 2.75886e-08)
(0.000799663 3.931e-08 4.89127e-08)
(0.0010668 9.83365e-08 1.80734e-07)
(0.000797349 2.70619e-07 4.6032e-08)
(0.000798205 -1.54233e-08 4.72686e-08)
(0.00106472 2.82977e-07 1.72411e-07)
(0.000795955 4.01758e-07 5.9058e-08)
(0.00079679 5.33931e-08 6.46145e-08)
(0.00106276 4.25713e-07 1.80109e-07)
(0.000794703 6.39396e-07 4.6812e-08)
(0.000795403 6.50561e-07 4.55268e-08)
(0.00106093 6.63134e-07 1.11674e-07)
(0.00079356 7.44571e-07 4.92801e-08)
(0.000794 8.51968e-07 1.3735e-07)
(0.00105946 1.12681e-06 1.28592e-07)
(0.000791628 5.46491e-07 3.59598e-08)
(0.000792409 1.2355e-07 3.24696e-08)
(0.00105742 9.65174e-07 2.71456e-07)
(0.000790253 4.54706e-07 1.72815e-10)
(0.000790994 3.69409e-07 4.80286e-08)
(0.00105511 6.14567e-07 1.71921e-07)
(0.000788661 2.52619e-07 1.5386e-08)
(0.000789508 -7.59772e-07 1.21455e-08)
(0.00105306 7.53777e-07 2.81809e-07)
(0.000787315 -2.05256e-08 4.42647e-08)
(0.000787922 -9.68248e-08 3.64201e-08)
(0.00105116 4.93216e-08 1.74975e-07)
(0.000785949 8.53979e-08 5.06741e-08)
(0.000786614 2.80719e-08 4.68345e-08)
(0.0010494 -3.31744e-08 1.69815e-07)
(0.000784594 1.18687e-07 4.81698e-08)
(0.000785231 2.64552e-07 5.13456e-08)
(0.00104752 2.73611e-07 1.60196e-07)
(0.000783112 -2.99398e-08 3.87935e-08)
(0.000783808 -4.85921e-08 4.3864e-08)
(0.00104569 4.47817e-08 1.73631e-07)
(0.00078183 -1.31896e-07 3.84463e-08)
(0.000782392 -1.89682e-07 4.29906e-08)
(0.0010438 -1.08559e-07 1.72147e-07)
(0.00078047 -2.77812e-07 3.23745e-08)
(0.000780957 -4.89555e-08 5.35468e-08)
(0.00104205 -2.25241e-07 1.65436e-07)
(0.000778919 -4.55069e-07 -1.6435e-08)
(0.00077946 -5.21563e-07 3.21577e-08)
(0.00104007 -5.20957e-07 2.03065e-07)
(0.000777226 -4.03806e-07 -5.88034e-08)
(0.000778094 1.46004e-06 2.32835e-08)
(0.00103784 -6.97649e-07 1.4784e-07)
(0.000776111 -2.0573e-07 8.54039e-09)
(0.000776804 -3.19533e-07 -2.20222e-09)
(0.00103599 -3.42907e-07 1.60122e-07)
(0.000775017 -3.96435e-08 1.21996e-07)
(0.000775527 -6.80267e-07 7.34865e-08)
(0.00103466 -1.22504e-07 1.81558e-07)
(0.000773318 8.7052e-08 5.1324e-08)
(0.000774171 -1.086e-07 9.40517e-08)
(0.00103275 1.17223e-07 1.2355e-07)
(0.000771798 8.18778e-08 -3.76317e-08)
(0.00077268 -2.94033e-09 3.82363e-09)
(0.00103058 1.97478e-07 2.15121e-07)
(0.000770632 2.90391e-08 1.63153e-08)
(0.000771287 -2.83638e-08 1.54601e-08)
(0.00102874 6.96725e-08 1.51918e-07)
(0.000769349 1.96382e-08 5.99745e-08)
(0.000770057 -5.03933e-08 4.60784e-08)
(0.00102709 2.61043e-08 1.63132e-07)
(0.000767915 1.54713e-07 6.29329e-08)
(0.00076878 9.23545e-07 4.34411e-08)
(0.00102536 1.10572e-08 1.0444e-07)
(0.000765906 2.21001e-07 4.73301e-08)
(0.000766951 1.12609e-06 4.67045e-08)
(0.00102298 3.49245e-07 1.72127e-07)
(0.000764659 2.02945e-07 1.03546e-07)
(0.000765253 -6.8971e-09 5.24953e-08)
(0.00102076 2.14154e-07 1.70084e-07)
(0.000763967 -1.34365e-06 1.06188e-07)
(0.00101925 3.33409e-07 1.95983e-07)
(0.00347642 0.0144786 0.000599965)
(0.000530688 0.00588696 0.000195757)
(0.00412748 0.00210933 3.22573e-05)
(-0.0080012 -0.000813159 0.000198414)
(0.00751907 0.033774 0.00112851)
(-0.0166917 0.0251581 0.00186422)
(-0.000362859 0.000578324 -0.00035314)
(0.00828817 0.00310224 1.48018e-05)
(0.0042892 -0.000104974 -0.000898381)
(-0.00113699 0.000562143 -0.000971053)
(-0.00796502 0.00638052 0.000611546)
(0.00430785 0.0328808 0.00158511)
(0.012881 0.00882614 -0.00144116)
(-0.0174524 0.0103099 -0.000311101)
(-0.00789147 0.00410241 0.000874222)
(-0.020992 0.00716405 0.00223888)
(-0.0114378 0.0014373 0.000123922)
(0.0105345 0.008101 0.00153528)
(0.00978618 0.00631645 -0.00495064)
(0.0147817 0.00751652 0.00451016)
(0.000788136 -0.00148652 -0.000750463)
(-0.0106987 0.00501067 -0.000941423)
(0.00537605 0.0080054 8.83121e-05)
(-0.000870244 0.0120733 -0.000287615)
(-0.00171096 0.0107389 -0.00225248)
(-0.0172921 0.0129392 -0.003084)
(-0.00498914 -0.0117764 -0.00185404)
(-0.0447737 0.0378314 -0.00025058)
(0.00056328 0.0231718 -0.00684481)
(0.0246748 -0.00879618 0.00230062)
(0.00995313 0.0120213 -0.00296889)
(-0.0382949 0.00183138 -0.000976736)
(0.0092486 -0.00823834 -0.00128438)
(-0.000474521 0.00106509 -0.00158908)
(-0.00130364 -0.01183 -0.00325688)
(0.00942535 -0.00220912 -5.37467e-05)
(0.00604935 0.00682074 0.000287104)
(0.00234248 0.00124047 5.79181e-06)
(0.00210935 0.00231796 6.39521e-07)
(0.00594778 0.00358488 7.20876e-06)
(0.00132902 3.07417e-05 -2.98909e-05)
(3.99239e-05 0.000924314 -8.20697e-05)
(0.000793248 0.000532149 1.61842e-05)
(0.000187054 0.000759265 1.55254e-05)
(-0.00109861 0.000355355 3.79212e-05)
(0.00157415 -3.74812e-05 -6.9357e-05)
(-0.00142994 0.000377264 4.56687e-05)
(3.94836e-05 0.00173301 6.72579e-05)
(0.000582001 0.000682161 5.66331e-06)
(0.000686813 0.00123625 2.39801e-05)
(0.000143771 0.000753069 -1.11966e-05)
(0.000450737 0.000561214 6.86703e-05)
(0.000607248 0.00112968 -2.09348e-05)
(0.000394768 0.000411115 5.80017e-05)
(0.00130003 8.6857e-06 1.65107e-05)
(0.000464812 -6.52547e-05 3.98324e-05)
(0.000478763 -4.99658e-05 4.39753e-05)
(0.00063418 -5.27577e-05 7.97837e-05)
(0.000343541 -3.2782e-05 2.16109e-05)
(0.000810273 1.40961e-05 -7.52533e-07)
(0.000869265 1.51434e-05 -9.46926e-07)
(0.00116707 2.08764e-05 -9.24356e-07)
(0.000602503 4.51478e-06 -4.78828e-06)
(0.00060298 1.61722e-05 -4.84746e-06)
(0.000982286 2.28035e-06 -5.03272e-06)
(0.000987974 2.7544e-05 -2.71139e-06)
(0.000812794 9.49441e-06 -2.07965e-07)
(0.000795322 1.0037e-05 -6.01359e-07)
(0.00106348 1.33948e-05 6.56389e-08)
(0.000813739 6.60664e-06 9.10098e-08)
(0.000814147 6.38127e-06 1.89499e-07)
(0.00108779 9.81802e-06 2.06068e-07)
(0.000814393 4.36425e-06 1.34687e-07)
(0.00081248 3.88022e-06 6.53082e-08)
(0.00108494 6.47114e-06 1.7739e-07)
(0.000814296 2.84662e-06 1.63844e-07)
(0.000813749 2.74261e-06 1.82665e-07)
(0.00108633 4.34696e-06 1.66342e-07)
(0.000813781 1.78484e-06 5.20029e-08)
(0.000813524 1.54654e-06 5.13514e-08)