/*--------------------------------*- C++ -*----------------------------------*\
| =========                 |                                                 |
| \\      /  F ield         | OpenFOAM: The Open Source CFD Toolbox           |
|  \\    /   O peration     | Version:  5.0                                   |
|   \\  /    A nd           | Web:      www.OpenFOAM.org                      |
|    \\/     M anipulation  |                                                 |
\*---------------------------------------------------------------------------*/
FoamFile
{
    version     2.0;
    format      ascii;
    class       surfaceVectorField;
    location    "3.7";
    object      Uf_0;
}
// * * * * * * * * * * * * * * * * * * * * * * * * * * * * * * * * * * * * * //

dimensions      [0 1 -1 0 0 0 0];

internalField   nonuniform List<vector> 
26428
(
(-0.0146728 -0.00586791 -0.000907662)
(-0.00196572 -0.010707 -0.000901132)
(-0.00675219 -0.00773939 0.00157676)
(-0.00462634 -0.00277758 -0.00433609)
(0.0206916 -0.00353599 0.000159696)
(0.00840439 0.00795644 -0.00050448)
(0.029609 -0.00103238 -0.147316)
(0.0352482 -0.0141815 0.10928)
(0.0133638 0.00680014 0.108703)
(-0.0256001 -0.014968 -0.0865905)
(-0.0100721 -0.00377702 -0.000247432)
(-0.0113984 -0.00800002 -0.000310804)
(-0.0206142 -0.0128854 -0.00104708)
(-0.0159048 -0.00803493 0.00397857)
(-0.00433082 -0.00149353 -0.000279061)
(0.00400393 -0.00444108 -0.000465949)
(-0.000133338 -0.000639527 0.000368239)
(4.93078e-05 -0.0136905 -0.00115911)
(-3.77753e-06 -0.00957774 0.000365424)
(-0.00635216 -0.000131232 0.000301407)
(0.00678566 0.000953359 0.000427825)
(0.00830679 -0.00363632 -0.000144324)
(0.00176691 -0.0103234 1.88347e-05)
(0.00662933 -0.00401759 -2.23191e-05)
(0.00425849 -0.00780181 -5.98928e-05)
(0.00582308 -0.0125234 -0.000476831)
(0.00125859 -9.73594e-05 1.08757e-05)
(0.000554137 -9.12581e-05 4.60009e-05)
(0.000665325 -0.000168267 7.70761e-05)
(0.000385604 -6.91149e-05 2.16012e-05)
(0.000978088 1.46325e-06 -1.03989e-06)
(0.000728077 2.1958e-05 -1.07984e-06)
(0.00140537 -3.02694e-05 -1.63137e-06)
(0.000744323 -5.70286e-05 -5.35398e-06)
(0.000786502 -2.8029e-05 -6.08124e-06)
(0.00123035 -0.000103493 -5.95914e-06)
(0.00130385 -4.10887e-05 -6.03209e-06)
(0.000694083 1.70807e-06 -4.17121e-06)
(0.00119732 6.08194e-05 -8.63948e-07)
(0.00112332 1.8231e-05 -5.08044e-06)
(0.00090712 2.17664e-05 -2.68781e-07)
(0.000937486 6.90494e-05 -8.90847e-07)
(0.00122865 4.25443e-05 5.77841e-08)
(0.000874915 1.11955e-05 4.2562e-08)
(0.000871245 3.0615e-05 -1.08228e-07)
(0.00117919 1.77768e-05 1.77377e-07)
(0.000854115 7.65297e-06 5.10046e-08)
(0.000857309 2.02227e-05 1.02412e-07)
(0.00114679 1.30152e-05 1.73906e-07)
(0.000842064 4.6767e-06 5.95078e-08)
(0.00084315 1.1991e-05 4.64935e-08)
(0.0011269 7.70012e-06 1.76065e-07)
(0.00083454 3.02058e-06 6.19638e-08)
(0.000835466 7.08218e-06 5.46736e-08)
(0.0011155 4.85029e-06 1.93978e-07)
(0.000828826 1.97553e-06 5.59938e-08)
(0.000829846 4.42718e-06 5.5281e-08)
(0.00110742 3.21321e-06 2.21659e-07)
(0.00082462 1.2227e-06 3.36453e-08)
(0.000825667 2.75701e-06 4.99766e-08)
(0.00110114 2.04021e-06 1.8535e-07)
(0.000821627 7.21632e-07 3.67896e-08)
(0.000822536 1.91957e-06 2.91017e-08)
(0.0010967 1.19885e-06 1.9103e-07)
(0.000819154 4.07001e-07 7.41196e-08)
(0.000820002 1.09894e-06 -3.03198e-08)
(0.00109325 7.09921e-07 1.80621e-07)
(0.000817146 1.98761e-07 9.45447e-08)
(0.000817909 5.48579e-07 9.10739e-08)
(0.00109042 3.92347e-07 1.81556e-07)
(0.000815125 6.28237e-08 1.01227e-07)
(0.000816058 -4.98051e-08 9.50039e-08)
(0.00108773 1.69325e-07 2.30492e-07)
(0.000813533 3.71222e-09 9.44969e-08)
(0.000814299 3.66012e-07 6.56206e-08)
(0.00108533 4.89757e-09 2.87684e-07)
(0.000811754 5.98576e-08 5.0063e-08)
(0.000812624 2.69982e-07 6.92346e-08)
(0.0010832 1.04204e-08 1.55421e-07)
(0.000810286 1.05772e-07 3.55076e-08)
(0.000810939 -3.9234e-08 4.13812e-08)
(0.001081 1.87503e-07 1.61477e-07)
(0.000808438 5.37923e-08 4.93524e-08)
(0.000809189 3.02209e-07 5.5566e-08)
(0.00107876 1.59221e-07 1.83694e-07)
(0.000807002 3.4039e-08 5.45489e-08)
(0.000807628 -1.90356e-07 5.38683e-08)
(0.00107665 3.7344e-08 1.8283e-07)
(0.000805331 3.16516e-08 4.66512e-08)
(0.000806135 3.65206e-08 6.15589e-08)
(0.00107458 1.05583e-07 2.15932e-07)
(0.000803806 -8.25759e-09 3.94815e-08)
(0.000804536 6.84162e-08 3.88839e-08)
(0.00107241 5.39284e-08 1.95731e-07)
(0.000802278 -4.05286e-08 5.01498e-08)
(0.000802981 1.90343e-08 4.21121e-08)
(0.00107033 -2.06892e-10 1.71174e-07)
(0.000800975 -2.28664e-08 3.89867e-08)
(0.000801562 -2.5588e-07 5.02013e-08)
(0.00106862 -6.46018e-08 1.82767e-07)
(0.000798623 -1.44774e-07 1.10342e-07)
(0.000799737 1.1678e-06 4.75382e-08)
(0.00106607 2.62011e-08 2.03713e-07)
(0.000797378 -5.17561e-07 6.46638e-08)
(0.000797832 -5.26414e-07 1.2535e-07)
(0.00106355 -4.16196e-07 1.70494e-07)
(0.00079581 -6.79858e-07 -4.10074e-08)
(0.000796559 2.22592e-06 4.00804e-08)
(0.00106183 -9.87249e-07 -2.34658e-08)
(0.000794067 -5.84994e-07 3.41104e-08)
(0.000795147 1.0588e-06 7.21365e-09)
(0.00105946 -8.40662e-07 8.95222e-08)
(0.000793128 -3.85649e-07 7.00878e-08)
(0.000793814 2.08474e-07 1.4411e-07)
(0.00105768 -7.05654e-07 1.66867e-07)
(0.00079181 -1.42588e-07 5.15556e-08)
(0.000792616 1.70623e-07 1.66761e-07)
(0.00105636 -2.64557e-07 1.14314e-07)
(0.000790269 -1.93122e-08 5.15158e-08)
(0.000791073 -3.54366e-08 4.85436e-08)
(0.00105442 -4.23344e-08 1.76738e-07)
(0.000788732 6.5044e-08 4.30138e-08)
(0.000789526 2.29252e-08 7.10286e-08)
(0.00105228 5.16275e-08 1.88697e-07)
(0.000787063 1.42802e-07 3.73235e-08)
(0.000788005 1.22682e-08 3.74184e-08)
(0.00105012 1.29175e-07 1.689e-07)
(0.000785665 2.7159e-07 -2.69921e-08)
(0.00078647 1.0464e-07 4.86396e-08)
(0.00104797 2.41984e-07 1.65505e-07)
(0.000784037 3.94989e-07 -1.53241e-08)
(0.000784983 3.00732e-07 -2.83242e-08)
(0.00104604 5.24641e-07 1.87611e-07)
(0.000783253 2.18978e-07 4.95261e-08)
(0.00078356 -1.13012e-06 9.92563e-08)
(0.00104456 5.57887e-07 1.92484e-07)
(0.000781682 -5.72518e-08 5.01914e-08)
(0.000782176 1.07354e-07 4.57417e-08)
(0.00104288 3.24528e-08 1.75793e-07)
(0.000780418 -2.94845e-07 1.72058e-08)
(0.000780731 -4.76295e-08 7.76569e-08)
(0.00104087 -1.49688e-07 1.54388e-07)
(0.000778818 -3.62977e-07 1.02024e-07)
(0.000779483 1.0883e-06 1.64467e-08)
(0.00103921 -5.90794e-07 8.42682e-08)
(0.000777336 -1.95309e-07 1.386e-07)
(0.000778168 -4.97147e-07 1.12869e-07)
(0.00103701 -3.47331e-07 1.90026e-07)
(0.000775777 -1.51144e-07 4.10484e-08)
(0.000776626 6.02119e-08 4.81395e-08)
(0.00103491 -1.77048e-07 1.70195e-07)
(0.000774496 -2.22009e-07 5.83283e-08)
(0.000775131 2.28286e-09 4.78484e-08)
(0.00103307 -2.49641e-07 1.61462e-07)
(0.000773166 -3.73685e-07 1.2693e-07)
(0.000773788 -1.39848e-07 6.66816e-08)
(0.00103127 -3.27427e-07 1.86623e-07)
(0.000771783 -3.92369e-07 7.95945e-08)
(0.000772492 -3.8044e-07 1.11957e-07)
(0.00102966 -6.09123e-07 1.70267e-07)
(0.00076994 -2.6179e-07 2.65856e-08)
(0.000770846 1.26652e-06 3.24582e-08)
(0.00102736 -4.05723e-07 8.44917e-08)
(0.000769448 -4.80634e-07 5.23126e-08)
(0.00102499 -3.07785e-07 2.59913e-07)
(0.00464621 -0.00132914 -0.000225868)
(0.00641274 -0.00112829 0.000199191)
(0.0033482 0.000995143 0.000458934)
(0.00583731 0.000458083 -0.00065102)
(-0.0176306 -0.0106696 -0.000661157)
(-0.0889795 -0.0313418 -0.00464723)
(-0.00747067 -0.0172293 0.00276452)
(-0.0028073 -0.00230988 0.00403738)
(-0.00777035 -0.00959504 0.000649248)
(0.0207612 -0.0451999 -0.00370767)
(-0.0153823 -0.0113552 -0.00445292)
(0.0598781 -0.0184258 0.00126288)
(0.00848064 -0.0242059 -0.0113309)
(0.0165941 0.0300039 0.000339684)
(0.000204019 -0.00641907 5.64039e-05)
(-0.00680237 -0.00966653 0.00180819)
(0.0346415 -0.0113579 -0.00104541)
(0.00135232 -0.00756145 0.00114761)
(-0.00194455 -0.0253001 -3.26517e-05)
(-0.000895051 -0.027129 0.00125442)
(-0.000123484 -0.00740415 0.00147584)
(-0.000908536 -0.00442726 0.00166971)
(0.0050243 -0.00940173 -0.00214912)
(0.0155761 -0.00807674 -0.000799488)
(0.00468063 -0.00301926 -0.00165188)
(-0.0146488 0.00836442 0.00120174)
(-0.0157943 0.00993218 -0.00314193)
(0.00556671 0.0131229 0.000469324)
(-0.00294679 0.00746519 -0.00512368)
(-0.0317057 0.00833865 -0.0434375)
(-0.0195283 0.00930454 0.0135565)
(-0.00456716 -0.0176198 0.0383409)
(-0.00827702 0.0186071 0.00222907)
(0.000650402 0.0252781 0.00568683)
(0.00903225 0.0311316 0.0111174)
(-0.0128852 0.0154304 0.00038687)
(0.00790442 0.0100928 8.5969e-05)
(0.00582745 -9.51577e-05 -0.0023702)
(0.00101723 -0.00089223 0.000385194)
(0.0114594 -0.00517468 2.34665e-05)
(0.0121639 0.00202376 0.00143351)
(0.00111044 -0.000850272 9.05797e-05)
(0.000546628 -5.25843e-05 4.11807e-05)
(0.00085655 -0.000150933 3.7774e-05)
(0.000724451 -9.98247e-05 4.95904e-05)
(0.000601075 -6.98156e-05 1.99075e-05)
(0.000611902 5.85323e-05 -2.26729e-07)
(0.00057673 4.15757e-05 -3.35824e-06)
(0.00054783 8.28694e-05 -1.67998e-08)
(0.000910385 8.89753e-05 -1.12166e-06)
(0.000872839 6.68361e-05 -7.3055e-07)
(0.00091451 9.40326e-05 -1.40235e-06)
(0.00124825 0.000112775 -1.297e-06)
(0.000669157 4.82199e-05 -4.07257e-06)
(0.000658521 7.4626e-05 -5.09396e-06)
(0.00110036 6.95887e-05 -4.982e-06)
(0.00107911 0.000124079 -6.522e-06)
(0.000854828 3.6189e-05 -4.84472e-08)
(0.000832754 5.29654e-05 -3.99706e-07)
(0.00113002 5.52852e-05 5.55473e-08)
(0.000843135 2.23282e-05 9.79186e-08)
(0.00083992 3.24788e-05 1.7225e-07)
(0.00113036 3.474e-05 2.07381e-07)
(0.000835474 1.34898e-05 4.16566e-08)
(0.000832065 1.9646e-05 3.32232e-08)
(0.00111575 2.06741e-05 1.76648e-07)
(0.000830073 8.19647e-06 4.79905e-08)
(0.000828827 1.19602e-05 5.30261e-08)
(0.00110864 1.26952e-05 1.73378e-07)
(0.000826241 4.926e-06 4.92655e-08)
(0.000825745 7.27269e-06 4.99733e-08)
(0.00110293 7.51359e-06 1.77963e-07)
(0.000823268 3.04218e-06 4.54397e-08)
(0.000823305 4.47316e-06 5.31759e-08)
(0.0010988 4.57997e-06 1.81659e-07)
(0.00082078 1.96631e-06 -3.79886e-08)
(0.000821186 2.85003e-06 4.58504e-08)
(0.00109537 2.87246e-06 1.93969e-07)
(0.000818529 1.38315e-06 -1.34046e-08)
(0.00081927 1.72326e-06 -3.45615e-08)
(0.00109238 1.93112e-06 1.94679e-07)
(0.000816803 1.07481e-06 9.15319e-08)
(0.000817522 7.41704e-07 7.33058e-08)
(0.00108981 1.41495e-06 1.79193e-07)
(0.000815218 7.88892e-07 5.94071e-08)
(0.000815699 3.45235e-07 8.81309e-08)
(0.00108758 1.17573e-06 1.53207e-07)
(0.000813396 5.35509e-07 4.03572e-08)
(0.00081398 7.22531e-07 3.55091e-08)
(0.00108534 7.51894e-07 1.76464e-07)
(0.000811729 3.83118e-07 6.05617e-08)
(0.000812432 5.69898e-07 6.13579e-08)
(0.00108309 5.93044e-07 1.67037e-07)
(0.000809947 3.1814e-07 6.1435e-08)
(0.000810856 8.92678e-08 5.65061e-08)
(0.00108081 3.89851e-07 1.89061e-07)
(0.000808225 2.69226e-07 6.00824e-08)
(0.000809127 5.0828e-07 6.88063e-08)
(0.00107839 4.66926e-07 1.78616e-07)
(0.000806828 8.25792e-08 6.08758e-08)
(0.000807394 4.59264e-07 7.41121e-08)
(0.00107639 3.07855e-07 1.19436e-07)
(0.00080529 -1.10673e-07 5.37988e-08)
(0.000805893 3.84269e-08 5.58502e-08)
(0.00107447 -2.28244e-08 1.77109e-07)
(0.00080375 -2.16111e-07 4.15136e-08)
(0.000804404 8.00412e-08 4.17819e-08)
(0.00107233 -2.12111e-07 1.76939e-07)
(0.000802192 -2.90083e-07 4.2161e-08)
(0.00080289 3.33506e-08 4.83892e-08)
(0.00107026 -3.10741e-07 1.78507e-07)
(0.000800568 -5.96219e-07 5.87536e-08)
(0.000801182 -1.7835e-07 5.49496e-08)
(0.00106819 -4.31143e-07 1.80187e-07)
(0.000798733 -6.94937e-07 6.25213e-08)
(0.000799616 1.47784e-06 1.55351e-08)
(0.00106587 -1.1643e-06 1.82728e-07)
(0.000796928 -5.36162e-07 1.00793e-07)
(0.000798033 -2.47701e-07 4.35437e-08)
(0.00106329 -7.16985e-07 1.826e-07)
(0.000796019 -4.38003e-07 8.83118e-08)
(0.000796684 1.19485e-08 1.15775e-07)
(0.0010616 -7.17393e-07 2.80233e-07)
(0.000794767 -1.45064e-08 1.1717e-07)
(0.000795677 -1.27365e-07 4.83718e-08)
(0.0010602 -4.26125e-07 2.38511e-07)
(0.000793401 3.65339e-07 2.40776e-07)
(0.000794288 5.23725e-07 2.51467e-07)
(0.00105843 4.48891e-07 1.42529e-07)
(0.000791868 3.06623e-07 1.63786e-07)
(0.000792541 6.65744e-07 1.9807e-07)
(0.00105658 6.11757e-07 1.4502e-07)
(0.000790285 1.6394e-07 6.80494e-08)
(0.000790893 1.48513e-07 7.03288e-08)
(0.00105438 2.43768e-07 1.72119e-07)
(0.000788885 1.36711e-07 6.54437e-08)
(0.000789491 2.30185e-08 7.04762e-08)
(0.00105233 1.96993e-07 1.69285e-07)
(0.000787347 1.5984e-07 4.8731e-08)
(0.000788033 9.60988e-08 5.32271e-08)
(0.00105041 1.8542e-07 1.76128e-07)
(0.000785824 2.64419e-07 4.73314e-08)
(0.000786599 7.81098e-08 5.43977e-08)
(0.00104846 2.85985e-07 1.83158e-07)
(0.000784429 4.1909e-07 8.62168e-08)
(0.000785175 3.59113e-07 4.12337e-08)
(0.00104644 5.04402e-07 1.65887e-07)
(0.000782506 3.3105e-07 9.54884e-08)
(0.000783448 -6.9604e-07 8.37735e-08)
(0.00104412 6.75931e-07 1.86572e-07)
(0.000781235 3.78014e-08 7.31974e-08)
(0.000781808 -6.29503e-08 5.08454e-08)
(0.00104206 2.10855e-07 1.71761e-07)
(0.00077975 -2.37281e-07 7.69166e-08)
(0.000780388 -1.35832e-07 1.6256e-08)
(0.00104019 -1.10731e-07 1.8524e-07)
(0.00077886 -4.36125e-07 2.72613e-08)
(0.000779236 1.54439e-07 1.07028e-07)
(0.00103855 -4.9438e-07 1.92851e-07)
(0.000777532 -3.53593e-07 2.2428e-08)
(0.000778273 -2.28177e-07 4.59e-08)
(0.00103724 -6.59696e-07 1.4555e-07)
(0.000775911 -1.91647e-07 5.49396e-08)
(0.00077683 -2.61863e-07 5.15154e-08)
(0.00103521 -3.01849e-07 2.1498e-07)
(0.00077439 -6.27329e-08 5.6196e-08)
(0.000775293 -4.06999e-08 5.36425e-08)
(0.0010331 -2.26055e-07 1.85664e-07)
(0.000773131 -5.68332e-08 5.16949e-08)
(0.000773795 2.93923e-07 6.00484e-08)
(0.00103129 7.37909e-08 1.2705e-07)
(0.00077169 -2.57184e-07 6.48445e-08)
(0.000772241 -4.14243e-07 5.15435e-08)
(0.00102943 -1.79762e-07 1.7767e-07)
(0.000770105 -3.01751e-07 5.81791e-08)
(0.000770794 4.14347e-07 7.68898e-08)
(0.00102733 -4.7245e-07 2.50495e-07)
(0.000769824 7.44738e-08 5.64973e-08)
(0.00102595 -3.16281e-07 8.65767e-08)
(-0.00584206 -0.00492579 0.000473692)
(0.00151238 -0.026404 -8.99442e-05)
(-0.00548085 -0.0161314 0.00201797)
(-0.00115028 -0.00401758 0.000839011)
(-0.00898218 0.000320713 -0.000600971)
(-0.0490946 0.0280129 0.000558457)
(-0.00826228 0.013225 -7.95185e-05)
(-0.00590493 0.070755 0.000683469)
(-0.00353905 0.0423011 -0.000764392)
(0.0111985 0.0767189 -0.00442035)
(-0.0284271 0.0375351 5.71452e-05)
(-0.00696975 0.0158139 -0.081867)
(-0.0252465 0.00827937 0.0140734)
(-0.0368382 0.0315122 0.053788)
(-0.00793083 0.00615774 0.0209208)
(0.0318182 0.000180047 0.000938827)
(-0.0100663 0.0464108 -0.00249662)
(-0.0126554 0.00641067 -0.00178799)
(-0.0042916 0.023042 0.00654302)
(-0.00384069 0.00423168 0.00163501)
(-0.044779 0.0388299 -0.00236348)
(-0.0107645 0.0144285 0.000875928)
(-0.024006 0.0277536 0.00314677)
(0.0100882 0.0176996 0.00152483)
(-0.0280688 0.0112275 -0.00463087)
(-0.00407877 0.0504121 -0.00529635)
(-0.00361335 0.0213244 -0.00785319)
(-0.0275656 0.0161711 -0.000182941)
(-0.0102533 0.0257504 -0.00292269)
(-0.0193879 0.0242017 0.002188)
(-0.00137417 0.0164177 0.000761496)
(-0.032421 -0.0082041 -0.00105794)
(-0.0127068 -0.00540416 0.00112158)
(-0.0445878 -0.0204229 -0.00409366)
(-0.0260063 -0.00725768 0.000760735)
(-0.023776 -0.000485449 0.00261306)
(0.0155789 0.00294286 0.000897589)
(-0.00362462 -0.00996108 0.00195876)
(0.00817989 -0.0012031 -8.23092e-05)
(0.0284703 -0.00664154 0.00124338)
(0.0045482 -0.00301903 -0.00034801)
(0.000522753 -3.42739e-07 8.87143e-05)
(0.00106031 0.00110023 0.000126772)
(0.000776788 -8.66374e-05 0.000108773)
(0.000345728 0.00027554 7.93326e-05)
(0.000531831 0.000246699 7.12121e-05)
(0.000339208 6.81826e-05 -1.29168e-06)
(0.00050147 8.87476e-05 -3.3467e-06)
(0.000464124 9.83644e-05 6.32696e-07)
(0.000770212 0.000160284 -8.84214e-07)
(0.000351886 6.10643e-05 3.20323e-07)
(0.00062105 0.000113479 3.05527e-06)
(0.000652019 9.55451e-05 6.06156e-06)
(0.000503831 9.8e-05 -2.91836e-07)
(0.000823188 7.02804e-05 -1.07183e-06)
(0.00085185 7.97642e-05 -1.54292e-06)
(0.00117427 0.000105294 -1.02451e-06)
(0.000619295 7.75715e-05 -3.84639e-06)
(0.000594381 8.09945e-05 -5.18005e-06)
(0.00101503 0.000125712 -4.76986e-06)
(0.000967182 0.000129748 -6.25934e-06)
(0.000826014 4.24243e-05 -1.79196e-07)
(0.000797829 4.92703e-05 -3.86096e-07)
(0.00108124 6.3182e-05 5.32757e-08)
(0.000825971 2.58015e-05 1.076e-07)
(0.000819098 3.01205e-05 1.79533e-07)
(0.0011034 3.8425e-05 2.09874e-07)
(0.000825232 1.57089e-05 4.45862e-08)
(0.000819422 1.86425e-05 3.54503e-08)
(0.00109926 2.3356e-05 1.76305e-07)
(0.000824071 9.6153e-06 5.501e-08)
(0.000821194 1.13738e-05 6.01136e-08)
(0.001099 1.42282e-05 1.84257e-07)
(0.000822626 5.92793e-06 5.38827e-08)
(0.000821126 7.07368e-06 5.40573e-08)
(0.00109725 8.75321e-06 1.82034e-07)
(0.000821074 3.66466e-06 5.3589e-08)
(0.00082047 4.38034e-06 5.35822e-08)
(0.00109532 5.40496e-06 1.8379e-07)
(0.000819611 2.2768e-06 4.93035e-08)
(0.000819448 2.7195e-06 5.22927e-08)
(0.00109338 3.33707e-06 1.78741e-07)
(0.000818209 1.45173e-06 5.21142e-08)
(0.000818237 1.51881e-06 4.72614e-08)
(0.00109143 2.08293e-06 1.78709e-07)
(0.000816468 8.6354e-07 6.99e-08)
(0.000816786 1.05058e-06 5.06803e-08)
(0.00108947 1.35222e-06 1.72377e-07)
(0.000814314 4.78853e-07 6.42498e-08)
(0.000815218 1.1002e-06 7.75737e-08)
(0.0010869 6.31874e-07 1.77448e-07)
(0.000813054 2.66662e-07 5.65015e-08)
(0.000813716 2.51612e-07 3.86062e-08)
(0.0010846 4.28605e-07 1.85175e-07)
(0.000811531 1.02944e-07 5.73038e-08)
(0.000812228 5.25566e-07 7.29349e-08)
(0.00108275 1.51259e-07 1.78338e-07)
(0.000810129 -2.15691e-08 6.38735e-08)
(0.0008107 -1.30043e-07 5.06614e-08)
(0.00108084 4.78588e-08 1.80322e-07)
(0.000808197 7.79798e-09 8.28344e-08)
(0.000809164 -6.07308e-07 3.78036e-08)
(0.00107865 -1.2937e-07 2.88977e-07)
(0.000806428 1.04915e-07 6.90924e-08)
(0.000807515 -1.11893e-07 6.38839e-08)
(0.00107603 1.57318e-07 2.37064e-07)
(0.000805005 8.31908e-08 4.38378e-08)
(0.000805865 -1.64585e-07 3.94202e-08)
(0.00107393 1.11437e-07 1.81458e-07)
(0.000803559 2.27539e-08 4.86554e-08)
(0.000804329 -9.58165e-08 3.3523e-08)
(0.00107206 9.56841e-08 1.8176e-07)
(0.000801984 -3.38863e-08 6.11757e-08)
(0.000802819 6.13845e-08 6.24519e-08)
(0.00107005 -1.78027e-08 1.79019e-07)
(0.000800075 -5.30975e-08 1.17435e-08)
(0.000801158 -5.78128e-08 7.21373e-08)
(0.00106755 -3.6172e-08 2.02234e-07)
(0.000799092 1.62987e-07 -3.45129e-09)
(0.000799885 -6.45057e-07 -9.28803e-09)
(0.00106572 -7.27948e-08 2.79101e-07)
(0.000797463 5.75694e-07 5.85023e-08)
(0.000798547 -9.70844e-07 6.00579e-08)
(0.00106412 5.40292e-07 2.37895e-07)
(0.000796497 7.22554e-07 7.58558e-08)
(0.000796865 -1.22235e-06 5.20576e-08)
(0.0010622 1.01637e-06 2.15933e-07)
(0.00079523 5.50947e-07 1.82605e-07)
(0.00079546 -1.91347e-06 -2.02317e-09)
(0.00106091 9.10464e-07 2.82413e-07)
(0.000793523 3.59746e-07 2.08778e-07)
(0.000794047 4.48058e-07 1.73848e-07)
(0.00105897 5.59772e-07 2.00559e-07)
(0.000791444 2.09541e-07 1.04653e-07)
(0.000792352 7.04943e-08 8.27162e-08)
(0.0010561 3.89288e-07 2.71126e-07)
(0.000790094 1.3524e-07 7.27555e-08)
(0.0007908 -5.26172e-08 5.85095e-08)
(0.0010539 1.31871e-07 1.78764e-07)
(0.000788683 1.12534e-07 5.8265e-08)
(0.000789462 -7.36104e-08 5.04237e-08)
(0.0010522 1.76427e-07 1.77141e-07)
(0.000787241 4.52967e-08 5.88935e-08)
(0.000787949 1.14054e-07 5.17249e-08)
(0.00105023 9.75516e-08 1.72281e-07)
(0.000785901 3.92493e-09 4.83041e-08)
(0.000786547 -5.72063e-08 5.15074e-08)
(0.00104836 2.50883e-08 1.74548e-07)
(0.000784401 -8.42111e-08 3.87773e-08)
(0.000785065 5.00373e-07 2.99227e-08)
(0.00104652 -2.56757e-08 1.69281e-07)
(0.000782571 -1.04767e-07 3.91407e-08)
(0.000783423 -5.34116e-07 3.15135e-08)
(0.00104419 -1.90449e-07 1.97927e-07)
(0.000781005 -1.40113e-08 -6.08535e-09)
(0.000781922 1.10922e-06 6.49265e-08)
(0.0010419 -5.42522e-08 1.01502e-07)
(0.000779682 1.93192e-07 4.63394e-08)
(0.000780646 1.70515e-07 2.48727e-08)
(0.00103999 5.49924e-08 1.42151e-07)
(0.000778762 3.20648e-07 1.25685e-07)
(0.000779394 6.6566e-07 1.107e-07)
(0.00103853 5.10298e-07 9.10697e-08)
(0.000777709 1.81803e-07 7.49856e-08)
(0.000778097 -1.70764e-06 4.59082e-08)
(0.00103725 4.26473e-07 2.47314e-07)
(0.000776157 1.15481e-07 5.02176e-08)
(0.000776746 -8.97154e-08 3.77537e-08)
(0.00103546 1.87104e-07 1.72775e-07)
(0.000774651 2.10509e-07 5.7493e-08)
(0.00077541 -1.0547e-07 4.84142e-08)
(0.00103354 2.4377e-07 1.85965e-07)
(0.000772922 2.08081e-07 5.98996e-08)
(0.000773791 1.92424e-07 7.04069e-08)
(0.00103133 3.83332e-07 2.08882e-07)
(0.000771332 1.08158e-07 6.35811e-08)
(0.000772116 -5.38055e-08 4.00207e-08)
(0.00102898 2.19205e-07 1.62369e-07)
(0.00077032 7.32518e-08 7.52142e-08)
(0.000770748 -2.31058e-07 5.60001e-08)
(0.0010272 1.12027e-07 1.83064e-07)
(0.000769733 1.27171e-07 6.53661e-08)
(0.00102597 9.77743e-08 1.60313e-07)
(0.00678049 -0.00818745 -0.000599172)
(0.00494931 -0.00604307 0.000434887)
(0.00233426 -0.0103871 -0.000247976)
(0.00633045 -0.00659259 -0.000227172)
(-0.000263169 0.000829028 -0.000623728)
(-0.00969678 -0.000990068 5.22884e-05)
(-0.00318907 0.00276108 -0.000446056)
(0.000470679 0.000671626 -0.000596512)
(-0.000452962 0.00368791 -0.000532731)
(0.00368276 -0.00324145 0.000217556)
(0.00859665 -0.00873549 -0.000253394)
(-0.00123969 -0.0108225 0.00110315)
(0.00387855 -0.00623998 -0.00015033)
(0.000160056 0.00750089 0.000152281)
(-0.00486358 0.000323429 8.00971e-05)
(-0.0108918 -0.00720082 0.0002474)
(-0.0117021 -0.0117322 0.000448274)
(-0.0129954 0.0014816 -0.000414961)
(-0.00111905 0.00752748 -0.000313046)
(-0.00111905 0.00752748 -0.000313046)
(-0.00111905 0.00752748 -0.000313046)
(-0.00111905 0.00752748 -0.000313046)
(0.0116837 -0.0177395 0.000288145)
(0.0160108 -0.0181041 -0.000108742)
(0.00942218 -0.0152249 -0.00103709)
(0.0144237 -0.00458123 -0.00128975)
(0.0127913 -0.0282953 -0.000331296)
(0.0297096 0.00283224 0.0005008)
(0.0194092 0.0110861 -0.000277128)
(0.0143291 -0.00179462 5.56025e-05)
(-0.00276759 0.0087833 -0.00101618)
(0.0314723 -0.00921425 2.74984e-05)
(0.00127581 0.00137049 4.5364e-06)
(0.000892748 0.00103461 2.51429e-05)
(0.000363391 0.00102147 9.79958e-06)
(0.00145264 0.00129133 3.56644e-05)
(0.000863723 0.00083374 2.84185e-05)
(0.000363329 -4.18863e-05 2.63681e-05)
(0.000355524 4.23092e-05 4.7447e-06)
(0.00031278 3.11347e-05 5.86435e-06)
(0.000508267 3.05529e-05 1.19695e-05)
(0.000230739 1.79624e-05 1.29236e-06)
(0.000782085 4.6506e-05 -8.57566e-07)
(0.000823395 3.85022e-05 -1.29141e-06)
(0.00109728 6.4434e-05 -9.01211e-07)
(0.000573594 5.9876e-05 -4.20446e-06)
(0.000534392 3.62139e-05 -4.79099e-06)
(0.000962273 9.32265e-05 -4.95656e-06)
(0.000880856 4.10383e-05 -5.20993e-06)
(0.000801895 2.94138e-05 -2.75509e-08)
(0.000776459 2.38792e-05 -4.10725e-07)
(0.00104628 4.09069e-05 8.4322e-08)
(0.000811169 1.87321e-05 1.07431e-07)
(0.000805736 1.60493e-05 1.75664e-07)
(0.00108052 2.63332e-05 2.13489e-07)
(0.000816122 1.17419e-05 5.09696e-08)
(0.000810677 1.043e-05 5.73665e-08)
(0.00108547 1.68211e-05 1.8238e-07)
(0.000818396 7.30198e-06 5.91629e-08)
(0.000815638 6.4778e-06 8.71425e-08)
(0.00109037 1.03276e-05 1.85081e-07)
(0.000819106 4.6398e-06 5.37569e-08)
(0.000817794 4.1491e-06 5.45344e-08)
(0.00109189 6.58011e-06 1.84065e-07)
(0.000818886 2.94822e-06 5.22863e-08)
(0.000818353 2.63079e-06 5.3235e-08)
(0.00109202 4.21589e-06 1.83198e-07)
(0.000818114 1.8147e-06 5.02522e-08)
(0.000818029 1.66269e-06 5.53404e-08)
(0.00109121 2.68084e-06 1.83158e-07)
(0.000816931 1.04513e-06 4.58265e-08)
(0.000817274 1.03719e-06 5.02402e-08)
(0.0010899 1.56585e-06 1.78838e-07)
(0.000815519 5.15666e-07 5.83454e-08)
(0.000816123 6.11488e-07 4.64466e-08)
(0.00108799 8.88255e-07 1.95655e-07)
(0.00081456 2.70314e-07 5.19427e-08)
(0.000814911 2.90058e-07 1.22997e-07)
(0.00108643 3.05664e-07 1.82337e-07)
(0.000812909 1.66169e-07 5.50286e-08)
(0.000813586 2.66642e-07 4.2802e-08)
(0.00108475 2.65463e-07 1.85305e-07)
(0.000811423 3.21222e-09 6.62996e-08)
(0.000812025 1.92483e-07 7.28361e-08)
(0.00108261 4.47686e-08 1.95237e-07)
(0.000809675 -1.67178e-07 2.45957e-08)
(0.000810489 9.85811e-08 4.02499e-08)
(0.00108046 -1.24903e-07 1.79176e-07)
(0.000808561 -1.90829e-07 1.88449e-08)
(0.000809135 4.82045e-07 3.84834e-08)
(0.00107852 -3.73797e-07 6.42047e-08)
(0.000806926 -1.70631e-08 3.42195e-08)
(0.000807733 7.53332e-08 2.98155e-08)
(0.00107669 -1.76601e-07 1.72483e-07)
(0.000805153 1.51404e-07 2.91072e-08)
(0.000806076 4.68628e-08 4.65088e-08)
(0.00107439 8.68088e-08 1.83054e-07)
(0.000803569 2.5289e-07 4.73103e-08)
(0.000804455 -3.78565e-09 4.86247e-08)
(0.00107217 2.79175e-07 1.75089e-07)
(0.0008021 3.16361e-07 7.34105e-08)
(0.000802897 -6.21246e-09 6.61525e-08)
(0.00107009 3.82955e-07 1.76425e-07)
(0.000800719 5.9124e-07 5.11315e-08)
(0.000801499 -4.86867e-07 4.61583e-08)
(0.00106813 5.0144e-07 1.94513e-07)
(0.00079962 7.35593e-07 5.41993e-08)
(0.000800062 -2.22562e-06 8.92257e-09)
(0.00106659 1.16433e-06 2.51135e-07)
(0.000797783 7.09846e-07 5.36157e-08)
(0.000798511 3.48636e-07 8.64777e-08)
(0.00106465 8.98836e-07 1.12084e-07)
(0.000795894 7.58971e-07 -2.58044e-08)
(0.000796922 -2.69416e-07 -2.33249e-08)
(0.00106206 1.05904e-06 1.42917e-07)
(0.000794192 4.90526e-07 -1.0835e-08)
(0.000795121 2.27211e-07 -1.79658e-08)
(0.00105962 1.01138e-06 4.24903e-08)
(0.00079303 1.21513e-07 4.78148e-08)
(0.000793584 -2.09945e-08 4.34574e-08)
(0.00105777 3.28587e-07 1.80026e-07)
(0.000791554 7.8829e-08 3.65802e-08)
(0.000792298 1.19784e-07 5.00936e-08)
(0.00105604 -2.80071e-09 1.71719e-07)
(0.000790245 1.25682e-07 3.61803e-08)
(0.000790858 -2.91734e-07 3.59687e-08)
(0.00105412 2.16436e-07 1.77864e-07)
(0.000788688 1.10414e-07 4.38832e-08)
(0.000789443 5.82332e-08 4.79338e-08)
(0.00105228 1.12468e-07 1.73881e-07)
(0.000787215 7.05643e-08 4.43389e-08)
(0.000787899 1.3348e-07 4.6037e-08)
(0.00105022 1.48472e-07 1.74918e-07)
(0.000785787 -1.45713e-07 3.31327e-08)
(0.000786278 -5.15623e-08 5.62513e-08)
(0.00104831 -1.19947e-08 1.72303e-07)
(0.000784068 -3.02445e-07 2.26584e-08)
(0.00078487 1.68787e-06 5.72189e-08)
(0.00104617 -4.2148e-07 1.13865e-07)
(0.000782759 -1.72434e-07 5.72891e-08)
(0.000783586 -1.61618e-07 5.56463e-08)
(0.00104409 -4.31519e-07 1.35823e-07)
(0.000781482 5.52384e-08 9.58969e-08)
(0.000782207 -6.85159e-08 7.24143e-08)
(0.00104237 -5.61577e-08 2.44893e-07)
(0.000780413 1.72588e-07 8.92067e-08)
(0.000780792 3.23053e-07 8.62589e-08)
(0.00104089 2.23127e-07 1.30343e-07)
(0.000778696 2.18972e-07 3.09426e-08)
(0.00077945 -9.99349e-08 5.64739e-08)
(0.00103901 3.01971e-07 2.55527e-07)
(0.000777144 1.30441e-07 8.67885e-09)
(0.000777985 -4.82545e-07 3.02146e-08)
(0.00103683 3.44856e-07 9.64706e-08)
(0.000776016 2.96538e-09 3.5947e-08)
(0.000776586 7.27435e-08 3.35789e-08)
(0.00103498 4.3216e-08 1.35012e-07)
(0.000774696 -3.44365e-08 6.13214e-08)
(0.000775363 -1.841e-08 4.47552e-08)
(0.00103334 -2.45335e-09 1.57984e-07)
(0.000772778 4.76873e-09 5.05372e-08)
(0.00077384 -4.39052e-07 2.28995e-08)
(0.00103125 -8.41658e-08 2.64752e-07)
(0.000771591 1.75151e-07 3.24348e-08)
(0.000772328 -2.97294e-07 6.47202e-09)
(0.00102909 9.49652e-08 1.697e-07)
(0.000770005 2.57152e-07 4.61491e-08)
(0.000770848 5.84853e-08 9.79888e-08)
(0.00102717 3.63095e-07 1.67072e-07)
(0.000769413 3.72558e-07 7.0939e-08)
(0.00102569 3.14689e-07 1.23325e-07)
(0.00151058 0.0136673 0.000401941)
(0.000233865 0.00591057 0.000208031)
(0.00379351 0.00185467 6.1965e-05)
(-0.00931741 -0.000206166 0.000207878)
(0.00546699 0.0367467 0.000695789)
(-0.0146695 0.0213798 0.00150408)
(-0.000736408 -3.08905e-05 -0.000271944)
(0.00848806 0.00290419 -0.000581362)
(0.00414332 -0.00050025 -0.000763322)
(-0.00245965 -0.000501019 -0.000721806)
(-0.00905619 0.00807312 0.000445817)
(0.00287456 0.0346485 0.00102895)
(0.00614542 0.00327268 -0.000173981)
(-0.0266222 0.0121609 -1.32241e-05)
(-0.00980303 0.00322726 0.00059552)
(-0.012624 0.00370014 0.000994258)
(-0.0129168 0.00182767 0.000290568)
(0.0019191 0.000400861 0.00165936)
(0.00374488 0.00280769 0.000418911)
(0.00140688 0.0023501 0.0049991)
(0.00108761 0.000888783 -5.49186e-05)
(-0.00256355 -0.00177387 -0.000234689)
(-0.00617986 0.00545115 2.43504e-05)
(-0.00145099 0.00301524 2.67565e-05)
(-0.00550865 0.0026841 0.000160157)
(-0.00839033 -0.0054917 0.00140388)
(-0.0249055 -0.0180281 0.00152259)
(-0.0146728 -0.00586791 -0.000907662)
(-0.0249055 -0.0180281 0.00152259)
(-0.0146728 -0.00586791 -0.000907662)
(0.00780138 0.0229531 -0.00345812)
(0.0119021 -0.0166494 -0.00258861)
(0.00828101 -0.00635674 0.000510517)
(0.0220494 -0.00174801 0.00184064)
(0.00794129 -0.00528725 0.00196432)
(0.00974608 -0.000902475 7.80805e-05)
(0.00599391 0.00791238 0.000404246)
(0.00257931 0.00137866 -2.34579e-06)
(0.00175008 0.0030528 2.6264e-05)
(0.00682456 0.00405325 2.11502e-05)
(0.00121437 9.71683e-05 -3.17218e-05)
(-0.000140548 0.000984653 -7.94214e-05)
(0.000602 0.000515361 1.66863e-05)
(9.2259e-06 0.000789233 1.84064e-05)
(-0.00126728 0.000423962 3.63034e-05)
(0.00142831 3.01264e-05 -6.90668e-05)
(-0.0016309 0.000426606 3.5877e-05)
(-0.000121004 0.00177141 6.86093e-05)
(0.000423457 0.000754738 6.85898e-06)
(0.000549705 0.00128518 2.69909e-05)
(7.39267e-05 0.000761153 -8.4404e-06)
(0.000279321 0.000593387 6.90567e-05)
(0.000467732 0.00116491 -2.03147e-05)
(0.000238645 0.000438149 6.07983e-05)
(0.00127695 2.82478e-05 1.56776e-05)
(0.000436199 -5.31339e-05 4.09444e-05)
(0.000445876 -4.39085e-05 4.51882e-05)
(0.000577945 -4.27892e-05 8.16969e-05)
(0.000302658 -2.48981e-05 2.24611e-05)
(0.000773846 1.23359e-05 -8.44861e-07)
(0.000827656 -5.45246e-06 -1.11456e-06)
(0.00111448 1.45362e-05 -6.3471e-07)
(0.000550399 9.20265e-06 -4.80638e-06)
(0.000549369 9.37643e-06 -4.93575e-06)
(0.000908497 3.42867e-06 -4.94948e-06)
(0.000913689 1.04171e-05 -2.73e-06)
(0.000793521 8.42471e-06 -2.07703e-07)
(0.000771571 -8.0971e-07 -5.51771e-07)
(0.00103371 9.41233e-06 4.7453e-08)
(0.000805004 5.93198e-06 1.25638e-07)
(0.000802632 -7.64547e-07 1.78812e-07)
(0.00107332 7.38125e-06 2.1268e-07)
(0.00081141 4.01312e-06 9.35297e-08)
(0.000808284 4.13052e-07 5.04911e-08)
(0.00107927 4.84214e-06 1.81521e-07)
(0.000815715 2.70331e-06 8.25246e-08)
(0.000814004 -1.43017e-06 4.28935e-08)
(0.00108621 3.58102e-06 2.17379e-07)
(0.000817413 1.64208e-06 5.40129e-08)
(0.00081647 -2.97024e-10 5.11067e-08)
(0.00108961 2.18724e-06 1.83419e-07)