/*--------------------------------*- C++ -*----------------------------------*\
| =========                 |                                                 |
| \\      /  F ield         | OpenFOAM: The Open Source CFD Toolbox           |
|  \\    /   O peration     | Version:  5.0                                   |
|   \\  /    A nd           | Web:      www.OpenFOAM.org                      |
|    \\/     M anipulation  |                                                 |
\*---------------------------------------------------------------------------*/
FoamFile
{
    version     2.0;
    format      ascii;
    class       volScalarField;
    location    "0.8";
    object      alpha.water;
}
// * * * * * * * * * * * * * * * * * * * * * * * * * * * * * * * * * * * * * //

dimensions      [0 0 0 0 0 0 0];

internalField   nonuniform List<scalar> 
9585
(
0.894715
1.0529
0.984283
1.10147
1.02342
0.884338
-2.72557e-17
8.95537e-17
7.95242e-17
6.02595e-20
9.10957e-25
1.97668e-28
7.63638e-32
3.14863e-35
1.25455e-38
5.49818e-42
2.03987e-45
9.48355e-49
3.96752e-52
1.39105e-55
9.73044e-59
3.17065e-62
1.52101e-65
3.68837e-69
1.65121e-72
2.98575e-75
7.93169e-79
1.30382e-82
4.4394e-84
9.95536e-88
3.01184e-91
8.53472e-95
5.80656e-98
2.01295e-100
4.50567e-104
9.25547e-107
2.5536e-110
7.40805e-113
6.68109e-117
1.17772e-120
2.28791e-123
3.30508e-126
3.13026e-129
1.14335e-131
1.36743e-135
2.64805e-138
2.84754e-142
2.86684e-145
4.11485e-146
1.38003e-147
0.979889
1.01771
1.03797
1
1.07155
1.00143
-8.76286e-16
-8.99187e-18
-6.60603e-22
2.4188e-20
3.88555e-22
6.57906e-26
3.56271e-30
1.26716e-33
5.13717e-37
2.15668e-40
1.87917e-43
6.53227e-47
1.73502e-50
6.37881e-54
2.62701e-57
1.06493e-60
5.61571e-64
2.89967e-67
9.45948e-71
7.74748e-74
2.90717e-77
6.76199e-81
1.74245e-83
3.19366e-87
1.1129e-90
4.48173e-93
1.04067e-96
6.8901e-100
1.50037e-103
4.09995e-106
2.41597e-109
9.03162e-114
3.84645e-115
2.62275e-118
2.90035e-122
4.30165e-125
2.6217e-129
4.00131e-133
1.40555e-135
1.41976e-138
1.11902e-141
3.74743e-145
4.70508e-146
2.2036e-147
1.02133
0.881089
1.00169
1.06751
0.732725
1.01926
-1.48174e-16
-1.65594e-17
-5.59881e-21
6.64425e-20
1.16782e-21
9.26142e-25
1.0602e-28
1.55176e-32
5.69558e-36
2.36048e-39
9.90642e-43
4.23008e-46
1.77104e-49
6.78889e-53
3.21502e-56
1.17946e-59
5.79509e-63
1.87297e-66
8.89944e-70
7.23079e-73
2.84911e-76
6.41726e-80
7.60634e-83
1.59117e-85
9.30044e-90
3.0129e-93
1.7171e-94
1.81315e-97
1.41797e-101
6.4877e-105
3.97746e-108
3.44139e-112
6.91678e-114
8.03818e-117
1.26422e-120
3.60393e-124
8.35454e-127
7.61527e-131
2.01694e-133
4.03216e-137
5.19395e-139
2.07371e-142
2.77378e-145
2.12154e-146
1.00368
1.00249
1.03298
0.831284
1.01928
0.998113
0.190182
-5.56036e-17
-2.14999e-19
-4.4983e-22
4.00678e-21
4.04372e-23
4.85957e-27
4.12171e-31
1.51701e-34
6.0879e-38
2.44868e-41
1.03797e-44
4.01643e-48
1.58364e-51
6.51649e-55
2.54541e-58
1.61419e-61
4.87237e-65
6.18883e-68
1.06362e-71
3.54606e-75
1.01373e-77
6.0124e-81
2.86455e-85
1.76107e-87
2.2478e-90
6.87614e-94
7.56043e-98
3.14413e-100
6.52466e-104
1.55473e-107
2.55523e-110
1.19356e-112
2.5662e-116
5.89477e-120
2.06161e-122
1.67433e-126
4.16839e-129
4.37744e-132
1.87447e-135
2.16863e-139
2.17969e-142
3.80754e-145
2.64268e-146
0.833014
1.01949
1.0091
0.992023
1.0266
1.06096
0.741328
-3.63231e-16
-2.27168e-18
-8.35438e-22
6.19746e-20
7.57975e-22
1.02689e-25
7.98424e-30
2.91748e-33
1.18333e-36
4.74082e-40
1.91838e-43
7.73928e-47
3.13024e-50
1.24571e-53
5.42593e-57
2.01714e-60
9.26289e-64
3.2109e-67
1.39945e-70
6.04444e-74
3.23363e-77
1.80883e-80
1.84256e-83
1.87472e-86
1.69307e-90
4.23546e-93
3.83354e-97
1.11571e-100
1.67604e-103
1.29288e-105
4.44286e-109
2.32495e-113
1.39008e-115
1.75368e-119
1.591e-123
6.34466e-127
1.11928e-128
1.40382e-131
3.09043e-135
4.44217e-137
1.84185e-140
2.2451e-143
2.45979e-145
0.840502
1.00993
0.963059
1.02652
0.972846
1.03289
0.8558
-5.15928e-17
-1.05939e-20
6.41339e-21
6.62142e-20
8.28203e-22
1.05786e-25
8.16456e-30
3.03038e-33
1.22426e-36
4.94323e-40
2.02391e-43
8.08838e-47
3.41869e-50
1.32882e-53
5.28536e-57
2.10551e-60
9.56084e-64
4.41126e-67
2.3489e-70
6.85624e-74
3.98085e-77
5.16029e-80
1.1676e-82
1.24368e-85
8.92367e-90
7.14554e-93
1.18225e-96
2.46969e-99
5.37524e-103
2.47802e-106
4.21465e-109
2.72973e-113
4.47647e-116
2.47869e-118
8.67336e-121
3.24085e-124
3.46709e-128
7.73637e-132
1.33553e-134
2.28932e-137
1.66404e-141
1.1857e-144
1.46515e-145
0.85596
1.01998
0.979148
0.990768
1.0173
0.921121
0.658679
-1.09193e-16
-6.81509e-19
5.04869e-32
4.97418e-21
4.99304e-23
5.52523e-27
5.03505e-31
1.86864e-34
7.49081e-38
3.00648e-41
1.22522e-44
4.90376e-48
1.97072e-51
1.05542e-54
3.18113e-58
1.54055e-61
5.46151e-65
3.97104e-68
8.1635e-72
3.53788e-75
1.30587e-78
7.99911e-81
7.37337e-85
1.05045e-88
4.27646e-91
3.35664e-95
9.8711e-98
8.26999e-101
4.84982e-104
1.08361e-107
3.12758e-110
3.92962e-113
4.44909e-116
2.13328e-120
4.09136e-123
5.18555e-126
1.78089e-130
2.05484e-132
2.82914e-136
5.88035e-139
1.78665e-143
2.74988e-145
2.53921e-146
1.01389
0.959466
1.00296
1.01421
1.02393
1.00511
0.094445
-6.63051e-17
-2.1015e-20
9.28859e-20
1.27961e-21
6.61641e-25
7.12577e-29
1.25521e-32
4.7159e-36
1.94343e-39
8.08612e-43
3.3113e-46
1.44864e-49
5.80622e-53
2.30326e-56
1.08301e-59
4.50625e-63
1.42245e-66
8.47238e-70
5.7331e-73
7.19961e-76
3.36694e-79
2.35208e-83
1.6043e-85
2.10724e-89
5.0601e-92
4.20595e-95
5.17323e-99
2.73701e-102
1.06736e-104
1.73676e-108
5.47932e-111
2.27516e-114
7.09548e-118
1.01356e-121
3.86795e-124
3.71572e-127
2.55954e-130
1.35697e-134
4.4101e-138
7.35475e-141
1.71116e-144
2.34792e-145
1.38239e-146
1.03513
0.993963
1.07955
1.0304
0.950731
0.983913
-1.36635e-17
-1.23581e-17
-2.06461e-22
2.67279e-20
3.80343e-22
6.19229e-26
4.03181e-30
1.38048e-33
5.58698e-37
2.26961e-40
9.42666e-44
3.88092e-47
1.62557e-50
6.43944e-54
2.52951e-57
1.07398e-60
4.14404e-64
1.80866e-67
5.72251e-70
6.03721e-74
1.49369e-77
9.65952e-81
2.60062e-84
4.76398e-87
3.10915e-89
4.21163e-93
6.56043e-97
9.4028e-101
1.12252e-102
4.64675e-106
3.36918e-109
3.60143e-113
3.27557e-117
5.91707e-119
1.03134e-121
1.94872e-124
3.83062e-128
2.31859e-132
1.72491e-135
1.6426e-138
6.69996e-141
1.05218e-143
1.96556e-145
6.35861e-147
1.02631
1.01805
0.997239
0.837382
1.04151
1.00143
-8.15153e-24
2.21428e-15
8.60587e-17
5.22607e-20
2.34888e-23
2.61985e-27
4.47292e-31
1.69031e-34
7.01162e-38
3.16776e-41
1.19905e-44
5.0694e-48
2.15476e-51
1.42866e-54
3.72938e-58
1.75337e-61
5.82873e-65
2.87277e-68
2.69928e-71
4.50572e-75
8.64654e-78
2.93723e-81
3.89197e-84
4.63386e-87
4.64581e-90
2.69582e-93
1.94453e-96
1.83645e-99
2.06985e-103
2.00781e-106
6.42252e-109
6.72172e-113
4.72794e-115
8.71758e-119
4.28911e-123
1.25901e-126
2.64662e-128
1.13577e-131
5.88908e-135
9.15171e-138
2.12621e-141
2.27411e-144
1.15788e-145
3.36835e-147
1.04077
1.06272
0.960013
1.01497
1.01652
0.862371
1.86506e-13
5.97517e-17
1.12615e-16
2.74036e-18
1.24921e-21
4.68759e-26
2.21785e-29
1.60216e-32
1.09361e-35
7.39464e-39
4.99803e-42
3.37853e-45
2.28144e-48
1.53886e-51
1.03815e-54
6.99285e-58
4.70633e-61
3.16629e-64
2.12818e-67
1.42884e-70
9.59362e-74
6.43351e-77
4.30887e-80
2.88451e-83
1.92977e-86
1.28799e-89
8.60075e-93
5.73962e-96
3.82689e-99
2.55052e-102
1.69696e-105
1.12742e-108
7.48694e-112
4.97131e-115
3.29689e-118
2.18505e-121
1.44742e-124
9.5614e-128
6.31605e-131
4.1656e-134
2.74399e-137
1.80706e-140
1.18621e-143
2.76621e-145
0.936219
1.04085
1.04394
1
1.09812
1.00367
4.88017e-10
1.14909e-14
1.2304e-17
3.60769e-19
8.14778e-22
2.69817e-25
1.53158e-28
1.02056e-31
7.04447e-35
4.86206e-38
3.34755e-41
2.30293e-44
1.58003e-47
1.07923e-50
7.3797e-54
5.03312e-57
3.42473e-60
2.32585e-63
1.57731e-66
1.0675e-69
7.2112e-73
4.86375e-76
3.27324e-79
2.19378e-82
1.47115e-85
9.85599e-89
6.59851e-92
4.40345e-95
2.93085e-98
1.95042e-101
1.29558e-104
8.59104e-108
5.68667e-111
3.75474e-114
2.47335e-117
1.62847e-120
1.07044e-123
7.01911e-127
4.60516e-130
3.01409e-133
1.96952e-136
1.28274e-139
8.34902e-143
3.04371e-145
1.03129
0.995783
1.03493
1.06979
0.999909
1.01856
6.851e-07
2.23908e-14
1.55321e-17
9.06409e-19
5.59771e-21
2.36618e-23
1.39763e-26
2.35527e-30
1.2322e-33
9.09906e-37
6.48354e-40
4.54494e-43
3.1835e-46
2.22772e-49
1.55697e-52
1.0868e-55
7.57108e-59
5.26964e-62
3.65898e-65
2.53696e-68
1.75692e-71
1.21418e-74
8.37572e-78
5.77934e-81
3.97969e-84
2.7359e-87
1.87903e-90
1.28734e-93
8.79329e-97
6.00318e-100
4.09315e-103
2.78493e-106
1.89225e-109
1.28294e-112
8.67902e-116
5.86368e-119
3.95637e-122
2.66547e-125
1.79389e-128
1.20489e-131
8.07313e-135
5.40041e-138
3.60513e-141
1.69186e-144
1.02096
1.03507
1
1.00009
1.00395
1.00513
0.197358
4.75519e-12
5.54687e-15
4.15994e-18
8.52808e-20
1.00237e-22
4.4051e-26
2.79248e-29
1.89637e-32
1.28411e-35
8.67487e-39
5.85299e-42
3.94678e-45
2.65891e-48
1.78903e-51
1.20166e-54
8.05164e-58
5.39499e-61
3.60515e-64
2.40785e-67
1.606e-70
1.06988e-73
7.13453e-77
4.72529e-80
3.1324e-83
2.07517e-86
1.37046e-89
9.04496e-93
5.96838e-96
3.9257e-99
2.58122e-102
1.69487e-105
1.1105e-108
7.26809e-112
4.74997e-115
3.11554e-118
2.02798e-121
1.32125e-124
8.56471e-128
5.56133e-131
3.60521e-134
2.33455e-137
1.50896e-140
6.06911e-144
0.945794
1.05408
1.04829
1
1.07948
1.05882
0.741755
3.45332e-11
4.40425e-14
4.27493e-17
8.87683e-19
1.46279e-21
7.34521e-25
4.26577e-28
2.86617e-31
1.96636e-34
1.34016e-37
9.10943e-41
6.18056e-44
4.18542e-47
2.83261e-50
1.91382e-53
1.29044e-56
8.69385e-60
5.84667e-63
3.92473e-66
2.63239e-69
1.76255e-72
1.17774e-75
7.86002e-79
5.23709e-82
3.48304e-85
2.31429e-88
1.53506e-91
1.01655e-94
6.72567e-98
4.44148e-101
2.92732e-104
1.92728e-107
1.26764e-110
8.32544e-114
5.46092e-117
3.5765e-120
2.33796e-123
1.52672e-126
9.95442e-130
6.47955e-133
4.2138e-136
2.7352e-139
1.05657e-142
0.999951
0.892141
1.03031
1.04083
1.02182
1.0203
0.851771
5.15617e-11
5.40644e-14
5.45725e-17
9.1416e-19
1.47979e-21
7.51919e-25
4.40423e-28
2.95824e-31
2.02703e-34
1.38085e-37
9.37961e-41
6.35982e-44
4.30353e-47
2.9082e-50
1.96298e-53
1.32265e-56
8.89977e-60
5.97835e-63
4.00845e-66
2.68612e-69
1.79698e-72
1.20001e-75
8.00485e-79
5.32603e-82
3.53752e-85
2.34874e-88
1.55762e-91
1.03056e-94
6.81155e-98
4.49495e-101
2.96169e-104
1.94974e-107
1.28149e-110
8.41062e-114
5.51383e-117
3.60804e-120
2.35558e-123
1.53632e-126
1.00047e-129
6.50323e-133
4.22649e-136
2.74358e-139
1.06056e-142
1.24633
1.04842
1.03071
0.974799
1.05001
0.979425
0.660664
4.1116e-12
4.74637e-15
3.55854e-18
1.01251e-19
1.22738e-22
5.46418e-26
3.3481e-29
2.26091e-32
1.53102e-35
1.03154e-38
6.94551e-42
4.66675e-45
3.13282e-48
2.10189e-51
1.40714e-54
9.39494e-58
6.27618e-61
4.18168e-64
2.78201e-67
1.84985e-70
1.22807e-73
8.14108e-77
5.39312e-80
3.56059e-83
2.35292e-86
1.55287e-89
1.02307e-92
6.73673e-96
4.42272e-99
2.90222e-102
1.90287e-105
1.24605e-108
8.13564e-112
5.31265e-115
3.46652e-118
2.25701e-121
1.46703e-124
9.52673e-128
6.17781e-131
4.00631e-134
2.59001e-137
1.67563e-140
6.77068e-144
1.04469
0.976394
1.02728
0.989178
1.01986
0.999415
0.102965
3.61258e-14
3.30265e-17
1.14404e-18
5.18853e-21
1.8689e-23
1.05118e-26
1.99197e-30
1.08333e-33
7.93132e-37
5.62127e-40
3.92784e-43
2.74202e-46
1.91268e-49
1.3332e-52
9.27844e-56
6.44608e-59
4.4746e-62
3.10121e-65
2.14524e-68
1.48198e-71
1.0222e-74
7.03949e-78
4.84391e-81
3.32978e-84
2.28512e-87
1.56578e-90
1.07072e-93
7.30809e-97
4.98369e-100
3.39247e-103
2.30493e-106
1.56462e-109
1.05993e-112
7.16461e-116
4.83748e-119
3.26042e-122
2.19312e-125
1.4734e-128
9.88122e-132
6.6097e-135
4.41668e-138
2.94864e-141
1.43414e-144
1.04668
1.51764
1.30129
1.16201
1.02141
0.992075
3.34364e-08
2.39275e-15
7.71157e-18
3.8727e-19
6.75985e-22
4.04027e-25
2.13385e-28
1.18631e-31
8.02309e-35
5.58645e-38
3.8519e-41
2.64799e-44
1.81734e-47
1.24503e-50
8.52197e-54
5.82248e-57
3.97074e-60
2.70483e-63
1.84038e-66
1.24962e-69
8.47757e-73
5.74151e-76
3.88143e-79
2.62092e-82
1.76765e-85
1.18836e-88
7.98402e-92
5.35445e-95
3.58418e-98
2.39686e-101
1.6002e-104
1.06673e-107
7.10364e-111
4.72247e-114
3.13153e-117
2.07471e-120
1.37256e-123
9.05587e-127
5.97198e-130
3.93392e-133
2.58467e-136
1.69608e-139
1.11011e-142
3.15144e-145
1.03961
0.929336
0.965048
1.04816
0.959251
1.00046
6.59717e-12
3.09195e-16
8.86626e-17
1.16346e-18
2.27539e-21
9.89924e-25
1.33133e-28
7.13119e-32
5.21224e-35
3.64367e-38
2.51474e-41
1.73538e-44
1.19635e-47
8.23236e-51
5.65736e-54
3.87978e-57
2.6564e-60
1.81742e-63
1.24107e-66
8.45979e-70
5.76245e-73
3.91794e-76
2.65814e-79
1.80245e-82
1.21983e-85
8.2345e-89
5.5517e-92
3.73726e-95
2.51159e-98
1.6862e-101
1.13016e-104
7.55978e-108
5.05048e-111
3.36848e-114
2.24293e-117
1.49185e-120
9.90547e-124
6.56163e-127
4.34137e-130
2.86766e-133
1.89097e-136
1.24559e-139
8.18331e-143
3.037e-145
0.957943
1.06643
0.952576
1
1.07448
0.888807
3.1494e-13
-2.43021e-20
3.90754e-17
2.99224e-19
1.34782e-23
4.63676e-28
1.70474e-31
6.92574e-35
2.77095e-38
1.17684e-41
4.4408e-45
1.81846e-48
7.51954e-52
3.9675e-55
1.37706e-58
6.57504e-62
3.5413e-65
1.19801e-68
4.03904e-72
5.66811e-75
2.22573e-78
6.91609e-82
1.45472e-84
4.26941e-88
7.98573e-91
1.26084e-94
1.03005e-97
2.18957e-100
5.75396e-104
4.30157e-107
3.80928e-110
1.52186e-113
8.576e-117
2.44069e-119
2.69862e-123
3.10361e-127
1.05624e-129
4.04862e-133
4.34752e-136
2.70664e-138
3.91977e-142
4.95502e-145
4.59173e-146
1.86447e-147
0.976477
0.954196
1.04061
1.08041
1.06519
1.00393
1.95199e-10
-1.06654e-17
-3.706e-22
2.42111e-20
3.95843e-22
7.12773e-26
3.96231e-30
1.33665e-33
5.37284e-37
2.17502e-40
1.1508e-43
2.90152e-46
9.12635e-50
1.15768e-53
4.18245e-57
1.64118e-60
7.40714e-64
2.83624e-67
1.22564e-70
5.54988e-74
2.30805e-77
8.98064e-81
4.96904e-83
6.63145e-87
4.40918e-90
5.72927e-93
3.18377e-96
7.76904e-100
5.78837e-103
3.97862e-106
7.37224e-110
2.72301e-113
1.05607e-114
5.55886e-118
3.39148e-122
5.73186e-126
2.63411e-129
7.1815e-131
2.47111e-134
2.58069e-138
3.30474e-141
5.07235e-145
1.09017e-145
4.24161e-147
1.00047
1.05662
1.04529
1.03321
0.959391
1.02074
4.58035e-07
-1.20862e-17
-5.81938e-21
9.01263e-20
3.56462e-21
8.76709e-24
1.42283e-27
1.24587e-31
4.19109e-35
1.72753e-38
7.18818e-42
3.00192e-45
1.25247e-48
5.1322e-52
2.16949e-55
8.80643e-59
3.80106e-62
1.56826e-65
7.86651e-69
2.80998e-72
1.75848e-75
5.00008e-79
2.60941e-82
3.25957e-85
7.26531e-89
2.63255e-92
1.19864e-94
4.00257e-98
8.44671e-102
1.05882e-104
5.56007e-108
2.18571e-111
1.33497e-114
3.76981e-117
3.43144e-120
3.65327e-124
1.6332e-127
3.90037e-130
7.07481e-133
6.64502e-137
2.39718e-139
1.176e-142
2.88592e-145
2.826e-146
1.01527
1.00349
1.00486
0.948426
0.717056
1.01259
0.196055
-5.80096e-17
-2.06652e-19
-4.88163e-22
4.1508e-21
4.19431e-23
4.9856e-27
4.26041e-31
1.57241e-34
6.31154e-38
2.53836e-41
1.03114e-44
4.10417e-48
1.66198e-51
6.64027e-55
2.61659e-58
1.16567e-61
5.60276e-65
1.95112e-68
1.02774e-71
2.88219e-75
1.6278e-77
1.12968e-80
4.37659e-85
1.42396e-87
8.01295e-91
4.78882e-94
6.21838e-98
3.64551e-101
2.16631e-104
1.70035e-107
2.77125e-110
1.19383e-114
2.22797e-116
3.91896e-120
1.60027e-122
1.551e-125
1.87886e-129
1.22365e-132
1.76045e-135
1.43478e-138
5.69093e-143
2.74725e-145
3.30105e-146
1.00754
1.01758
0.927708
0.918686
1.04534
1.03866
0.742066
-3.01706e-16
-2.26554e-18
-8.38247e-22
6.19661e-20
7.57011e-22
9.97868e-26
7.67457e-30
2.86419e-33
1.15565e-36
4.65234e-40
1.87992e-43
7.75849e-47
3.0834e-50
1.21666e-53
4.94909e-57
2.01115e-60
8.35874e-64
4.504e-67
1.85226e-70
5.79862e-74
2.10156e-77
9.39009e-81
1.10458e-83
1.0143e-86
9.0356e-91
3.91967e-93
9.22303e-97
3.70432e-99
2.70309e-103
7.64659e-106
3.00621e-109
2.0271e-111
4.4068e-115
3.28435e-119
6.06348e-121
1.29702e-124
7.68606e-128
1.74969e-131
2.31042e-135
7.16509e-137
3.01453e-140
2.04472e-143
2.64047e-145
1.02504
0.999042
0.857755
0.997295
0.973138
1.0025
0.851473
9.67693e-11
1.40149e-17
7.33478e-21
6.60393e-20
8.18701e-22
1.02887e-25
8.07267e-30
3.00516e-33
1.21466e-36
4.90225e-40
1.9848e-43
7.96088e-47
3.55774e-50
1.30356e-53
6.07137e-57
2.1884e-60
8.4121e-64
3.30508e-67
1.96659e-70
6.03783e-74
2.11693e-77
8.39772e-81
6.76457e-83
1.01797e-85
4.46515e-89
1.19036e-92
2.76505e-96
2.49879e-100
1.12092e-102
5.51607e-106
8.69867e-109
2.75206e-113
7.1754e-115
2.58677e-118
8.8272e-123
2.54398e-124
1.08007e-127
2.50636e-131
1.39151e-135
1.13403e-138
1.38701e-140
2.79805e-144
1.60342e-145
0.995416
1.0628
0.982042
1.00308
0.986475
1.00104
0.660379
-1.48305e-16
-6.60981e-19
-4.22453e-37
4.79618e-21
4.85475e-23
5.55309e-27
4.91664e-31
1.81433e-34
7.27212e-38
2.91846e-41
1.19075e-44
4.72962e-48
1.90563e-51
1.15087e-54
3.24535e-58
1.35496e-61
5.84978e-65
2.91976e-68
8.04635e-72
3.77085e-75
1.40604e-77
8.47802e-81
4.32951e-85
1.33222e-88
5.01878e-92
1.94477e-95
4.26577e-98
2.52293e-100
4.67816e-104
6.98137e-108
8.1533e-110
1.57664e-113
4.09819e-117
3.14181e-120
2.59308e-124
1.47446e-126
9.08196e-130
7.97968e-133
4.69582e-137
1.83738e-138
8.45706e-142
3.47379e-145
4.51283e-146
1.01052
0.839476
1.06921
0.997973
0.991468
0.987799
0.100648
-3.25531e-17
-2.90366e-20
9.16102e-20
1.19656e-21
5.13733e-25
5.31561e-29
1.02552e-32
3.89737e-36
1.60394e-39
6.69496e-43
2.77625e-46
1.26711e-49
5.17977e-53
2.04195e-56
9.27865e-60
4.46505e-63
1.44457e-66
4.10461e-69
6.54223e-73
2.73081e-76
1.34047e-79
5.79937e-83
6.15813e-85
1.02035e-88
1.50039e-92
3.79647e-95
1.90528e-98
2.69901e-102
3.67286e-105
3.9935e-108
1.17303e-111
1.94821e-114
1.28732e-116
2.23655e-120
4.5236e-123
1.46184e-126
9.44795e-131
4.26241e-134
1.92507e-137
2.95337e-140
1.25401e-143
2.73329e-145
2.43851e-146
1.01479
0.998076
1.04824
1.01746
1.05484
0.997202
1.81057e-08
-1.25453e-17
-1.62011e-22
2.58529e-20
3.62421e-22
5.59106e-26
3.64876e-30
1.28373e-33
5.20299e-37
2.11205e-40
8.76578e-44
3.51507e-47
1.45907e-50
5.9152e-54
2.31895e-57
1.00428e-60
3.84859e-64
1.65711e-67
6.18539e-71
2.51991e-74
1.75481e-77
4.72207e-81
1.82639e-84
8.92784e-88
1.77978e-89
5.23728e-93
3.93396e-96
2.62753e-99
1.17804e-102
6.04116e-106
2.91721e-109
1.77992e-112
1.22096e-116
1.02126e-118
1.46168e-122
1.58067e-126
1.44983e-128
2.7034e-131
5.5377e-135
1.32727e-138
2.75815e-141
1.23361e-144
1.17125e-145
4.99726e-147
1.01491
0.948909
0.986706
1.03889
0.970959
1.00024
3.17678e-12
1.18432e-15
6.55728e-17
5.28957e-20
2.85562e-23
2.91652e-27
5.00562e-31
1.89155e-34
7.80381e-38
3.37825e-41
1.35255e-44
6.1868e-48
2.43674e-51
1.00249e-54
4.42112e-58
1.96252e-61
7.23098e-65
3.32065e-68
2.19771e-71
6.13314e-75
1.2677e-77
1.79409e-81
2.16498e-83
5.70345e-87
4.79106e-91
6.20039e-93
3.11437e-96
2.64055e-100
1.15515e-103
5.43037e-106
2.70682e-109
3.35818e-113
4.8381e-115
1.43144e-118
6.24415e-122
1.87604e-124
4.80674e-128
1.22394e-131
4.9713e-135
1.37806e-137
6.69062e-141
5.19083e-144
1.80083e-145
5.84116e-147
-5.8005e-22
1.00004
-9.08254e-18
0.86926
1.49458e-10
1
9.14176e-09
-1.40197e-19
1.03667
0.0754342
1.00335
2.643e-07
1.0034
0.0793676
0.191401
1.02291
0.797863
1.01932
0.195422
1.02598
0.796644
0.911452
1.02918
1.00004
0.99987
0.911725
1.04184
1.00015
1
1.04522
1.00003
1.06802
1.00003
1.03031
1.00017
1.00006
1.04122
1.00001
1.01835
1.00025
1
1.00012
1
1.0283
0.924635
0.932533
1.00032
1.03094
0.922766
0.815604
1.05731
0.189557
1.00366
0.817206
1.01668
0.196526
0.0763655
1
-6.93871e-21
0.996307
0.0829064
1
9.37104e-08
4.33681e-22
0.818055
-6.33128e-22
1.00106
3.7887e-09
0.816647
1.48993e-10
2.17196e-10
1.00023
1.61228e-08
0.894139
3.92445e-10
1.00296
1.67375e-08
3.67815e-07
1.00139
0.0790957
1.00176
3.25456e-07
0.988002
0.0787779
0.193891
1.02603
0.795599
1.02626
0.19751
1.03196
0.794927
0.911323
1.04905
1.00018
1.01683
0.912072
1.04009
1.0002
1.00029
1.02133
1.00109
1.05121
1.00005
1.00492
1.00015
1.0012
0.910621
1.00066
1.01606
1.0002
0.97482
1.00011
1.00123
1.03084
0.922584
1
1.00043
1.02965
0.922127
0.817167
1.00661
0.198808
0.99677
0.817675
0.991508
0.194768
0.0845165
1
1.33125e-07
0.998163
0.0873577
0.999992
1.44353e-07
6.19501e-09
0.829092
2.84947e-10
1.00105
6.41414e-09
0.843124
3.03596e-10
3.54857e-10
1.00403
1.05834e-08
0.879424
-2.5474e-22
1.00447
-9.14337e-18
1.97667e-07
0.994103
0.0805664
1.00523
-8.50734e-20
0.982965
0.0777796
0.194495
1.03477
0.79594
1.01791
0.18636
1.05418
0.799288
0.911927
1.03642
1.00019
1.02864
0.911254
1.03737
1.00004
1.00026
1
1.00114
1.05461
1.00001
0.999201
1.00009
1.00115
0.976913
1.00062
0.982588
1.00001
0.992515
1.00004
1.00127
1.02903
0.921835
1.00943
1.00017
1.03225
0.923041
0.818409
0.995371
0.194333
1.00499
0.816549
0.982054
0.193713
0.0881648
0.999986
1.01215e-07
0.995053
0.0819297
0.999994
0
3.84352e-09
0.828611
1.9335e-10
1.00043
0
0.842735
-2.01615e-22
1.0006
0.968014
1.00774
1.01761
0.999888
0.825231
1.00292
0.208252
0.155523
0.947818
0.880164
0.945471
0.204521
0.160551
-5.71316e-20
-1.34126e-16
-5.6126e-19
1.34118e-13
2.53905e-15
8.31705e-12
1.11829e-15
1.02077
1
1.0365
1.09085
1.01099
0.949338
0.999968
0.999983
0.882079
0.979766
1.00187
0.882093
0.978815
1
-1.06695e-16
-1.10238e-14
-7.83666e-17
2.60602e-10
5.25359e-12
2.6108e-08
3.67419e-12
1.00055
1
1.01817
0.839684
1.02635
1.06559
1.01907
1.00217
1.00109
1.02186
1.00667
1.00135
1.03586
1.00416
-2.24406e-17
0.0782525
-7.08306e-16
5.78019e-07
1.3679e-11
0.084846
8.02893e-12
0.93761
1.04469
1.01038
0.99675
0.984181
1.10734
1.02001
0.980071
0.999802
0.913458
0.995062
0.998725
0.954283
0.996746
-1.12417e-15
0.649062
-2.0568e-15
0.196432
3.01588e-09
0.648714
1.99118e-09
1.02066
0.985104
1.05641
0.998895
1.0183
0.999303
0.856562
1
1.01701
1.06889
1.06442
1.00652
1.05638
1
-4.40144e-19
0.850453
-8.28134e-15
0.742464
2.30146e-08
0.848583
1.32667e-08
1.04138
1.01527
1.09865
1.02569
1.07082
1.04885
1.09438
0.995847
1.00901
0.975608
1.02954
1.00841
0.988138
0.997662
-4.07187e-16
0.759812
-1.32036e-17
0.85457
2.55515e-08
0.761264
1.83647e-13
0.979773
1.0229
1.07655
1.00175
0.98351
1.03823
1.0687
0.995665
0.997425
1.00211
0.928885
0.995918
1.00187
0.996044
-3.05107e-14
0.200886
-1.08035e-15
0.660461
1.79534e-09
0.208206
1.79529e-09
1.02967
1.15467
1.08341
1.01031
1.00318
1.24419
1.02653
0.999689
1.00003
0.984947
1.00034
1.00006
0.996964
0.999998
-1.86478e-15
-1.86148e-16
-1.31294e-17
0.102189
1.34491e-11
7.08542e-07
1.8687e-11
0.87121
0.919425
0.994923
0.964944
0.876985
0.699511
0.999436
1.00088
1
1.03384
0.991078
1
1.02503
1.00164
-1.02668e-16
-1.64914e-20
-1.23944e-17
2.53464e-08
3.11645e-12
8.6339e-11
3.74939e-12
1.00872
0.998439
1
0.947425
1.00961
0.99904
0.999782
0.42406
0.598553
1.00246
1.00154
0.598917
1.0033
0.424758
-1.62573e-20
-5.45866e-19
-6.92115e-21
3.13205e-12
1.49265e-15
1.31371e-13
3.0336e-15
0.999799
0.82577
1.00136
1.10044
0.994376
0.992593
0.998409
0.217122
0.181141
0.941887
0.848213
0.217298
0.940783
0.195762
1.36909e-14
1.88617e-11
6.70878e-15
4.62536e-13
1.48052e-14
1.95576e-11
6.70519e-15
1.01192
0.971054
0.947987
1.11798
0.98696
0.985496
0.980589
1.00007
0.884733
0.999422
1.00274
1
0.882223
1.00266
2.4819e-11
4.46281e-08
1.48421e-11
4.34965e-10
2.5393e-11
3.93633e-08
1.48418e-11
1.03944
1.10801
1.09183
1.00558
1.15516
1.37201
1.00523
1.00201
1.00024
1.07525
1.03122
1.00039
1
1.073
6.09309e-11
0.0860899
3.30455e-11
5.30367e-07
6.09633e-11
0.0862144
3.30455e-11
0.969172
1.0636
1.04554
0.824275
0.984711
1.00412
1.08145
0.960185
0.996322
0.943187
1.00046
0.972279
0.998245
0.937679
1.06256e-08
0.646785
6.19657e-09
0.196449
1.06102e-08
0.648322
6.19657e-09
1.04188
0.863139
1.00463
1.09451
0.969983
1
1.01995
1
1.00598
0.953473
1.06489
0.975438
1.00601
0.953474
5.99051e-08
0.846103
5.99051e-08
0.742149
5.99051e-08
0.847962
5.99051e-08
1.07565
1.04812
1.0691
1.01455
1.04802
1.02765
1.00499
0.990643
1.00632
0.996153
1.01678
0.999041
1.0031
0.996418
1.21821e-09
0.759891
9.774e-08
0.853743
1.21779e-09
0.760917
9.70205e-08
1.0393
1.01153
1.06608
1.02337
1.02838
1.00615
1.04559
1.00223
0.997632
1.00633
0.996766
1.00121
1.00043
1.01243
5.20669e-09
0.208873
7.7399e-09
0.659145
5.20669e-09
0.209762
7.29702e-09
0.979751
1.18643
0.917299
0.991194
1.02215
0.986969
0.996429
0.982034
0.999539
0.905539
1.00616
0.986001
0.998133
0.906956
5.37447e-11
8.75013e-07
9.32316e-11
0.102168
5.37473e-11
1.09114e-06
9.2201e-11
0.967679
0.619916
0.999014
1.05502
0.912829
0.892527
0.999705
0.998
0.999242
0.965646
0.991214
0.996932
0.999661
0.990912
9.66349e-12
1.65099e-10
9.02096e-12
3.00817e-08
9.66229e-12
1.77659e-10
9.91115e-12
1.01041
1.00795
0.998783
0.96954
1.00776
0.957838
0.999671
0.425555
0.596725
1.00186
1.00028
0.427017
0.596544
1.00238
2.57287e-15
3.2444e-13
5.37962e-15
6.83062e-12
2.57287e-15
3.45333e-13
5.41887e-15
0.996415
0.831363
0.997969
1.10733
1
1.1123
0.999312
0.210191
0.152225
0.949765
0.879817
0.208612
0.947054
0.159864
2.74811e-15
9.61139e-12
1.17921e-15
-7.4427e-17
-2.08702e-19
-1.50492e-16
-4.57101e-18
0.995317
0.967639
0.883784
1.09549
0.994524
0.990672
0.997291
1
0.887765
1.00792
1.00457
1
0.882226
1.00864
4.19087e-12
1.99872e-08
2.7999e-12
-6.12793e-16
-6.56651e-17
-5.09296e-15
-6.55212e-17
1.15931
1.08083
1
1.06085
1.03786
0.940204
0.99196
1.00659
1
1.06981
1.0204
1.01271
1
1.07017
1.38282e-11
0.0843304
8.09563e-12
-3.67876e-16
-4.77185e-17
0.0762264
-4.27022e-16
0.985471
1.00441
0.984325
1.04022
1.03099
1.00003
1.00441
0.999803
0.999883
0.943959
1.03673
0.993931
1.00032
0.986479
3.09809e-09
0.646577
2.04203e-09
0.189831
-9.10468e-16
0.64747
-2.43107e-15
0.836077
1
2.04811
1.0559
1.03353
1.00109
0.962405
1.01144
1.01239
1.00625
1.13129
1.01263
1.01306
1.04459
2.32104e-08
0.845746
1.29415e-08
0.741213
-5.34093e-19
0.849454
-7.80688e-15
1.05587
1.05306
0.961782
0.958828
1.03265
1.03653
0.956077
0.984189
0.999923
0.899011
0.968054
0.986581
0.998233
0.899104
2.59886e-08
0.759718
1.98301e-13
0.854471
-2.53145e-18
0.758891
-7.33948e-18
1.03594
0.989871
1.03332
1.00873
1.00281
0.971571
1.00983
1.00876
1.00537
1.01758
1.00857
1.00669
1.00736
1.0215
1.75448e-09
0.209654
1.75446e-09
0.659367
-2.80641e-14
0.202502
-5.72634e-16
0.986085
0.995829
0.995915
0.979639
0.964826
0.999992
0.973835
0.89771
0.993484
0.915841
0.992255
0.976834
0.995385
0.869908
1.39949e-11
8.16646e-07
1.95246e-11
0.0928746
-2.26731e-15
-1.49621e-16
-1.42256e-17
0.991277
1.16033
0.998137
1.04597
0.95468
1.05125
0.996994
0.999721
0.999966
0.998781
0.999882
0.999584
0.999966
0.999984
2.23677e-12
9.14651e-11
2.71447e-12
-8.61915e-18
-8.70769e-17
-2.71725e-21
-1.149e-17
1.00008
0.970179
0.999839
0.975852
1.00256
1.07068
1
0.427652
0.596681
1.00089
1.00057
0.428196
0.59606
1.00033
9.71614e-16
1.69517e-13
1.99641e-15
-3.1283e-24
-2.47413e-20
-9.87715e-19
-1.26294e-20
1.08159e-07
-2.72417e-16
-1.37566e-20
2.62515e-11
2.62498e-11
-6.73969e-19
9.74269e-08
0.503834
1.00268
0.635978
1
1.00259
0.635937
0.502688
0.00208511
-1.32022e-17
0.0171809
1.69652e-09
1.6964e-09
0.0196543
0.00135487
0.21056
0.875869
0.173049
0.942818
0.944959
0.213763
0.165301
1.88688e-07
1.49459e-10
1.38544e-07
1.49455e-10
1.49455e-10
2.39256e-07
1.4493e-07
0.504376
1
1.00195
0.637119
1.00224
0.635976
0.505178
0.00281096
9.14176e-09
9.14169e-09
0.0216657
9.14173e-09
0.0205352
0.00389778
0.358039
0.12583
-2.80717e-15
6.29548e-08
0.127288
6.29548e-08
0.35854
0.998189
0.983948
1
1.04614
0.97061
1
0.99995
0.479497
0.0057901
0.734629
0.0793531
0.00693092
0.729503
0.479857
0.999948
1.00364
0.879805
0.982966
0.880303
0.978727
0.999983
0.359223
2.643e-07
0.130436
2.643e-07
0.128787
2.643e-07
0.361101
0.991318
1.00734
0.987155
0.997616
0.997196
0.999029
0.987436
0.493937
0.0804414
0.000804846
0.732707
0.000773434
0.727717
0.497905
1.00009
0.899903
0.399382
0.191766
0.90163
0.400592
1.00014
0.998442
0.99212
1.01286
1.02249
0.978738
1.01271
0.999946
1.0001
0.623227
1.00127
0.796701
0.626977
1.00162
1.00014
1.00005
1.02134
1.00059
1.06587
1.00003
1.0484
1.00002
0.999906
0.189018
0.90015
0.403578
0.903612
0.401895
0.999662
0.996882
1.02309
0.974186
1.01283
0.977033
1.01235
0.998795
1.00018
0.795744
0.623013
1.00168
0.627163
1.00173
1.00047
0.999713
1
0.993212
0.912001
1
0.990745
1
1.00217
1.00838
1.00898
1.03282
1.0021
1.00915
1.00119
1.00109
1.00002
1.00161
1.00012
1.00011
1.00176
1.00093
0.957876
0.996527
0.998911
0.95994
0.998187
0.958169
0.958145
0.999439
0.911372
1
0.987965
1.00001
0.988523
1
1.00246
1.03106
1.00579
1.00951
1.0024
1.00954
1.00618
1.00133
1.00083
1.00012
1.00169
1.00032
1.0018
1.00163
0.99992
1.00052
1.00006
1.00001
1.00017
1.00002
1.0006
0.975642
0.932671
1.00624
1.049
0.956444
1.00388
0.9805
0.999865
1.00006
1.00028
1.00008
1.00003
1.00048
1.00003
0.999717
1.05939
1.00703
1.00075
1.00516
1.0337
0.982995
0.99984
1.00031
1.00035
1.00005
1.0004
1.00042
0.999367
0.987936
1.03794
0.934752
1.00073
0.923419
1.00104
0.980057
1
1.00115
1
1.00046
1.00048
1.00056
0.998917
1.00095
1.00128
1.00022
1.00011
1.00147
1.00027
1.0014
0.979127
1.00479
1.00968
1.02752
1.01185
1.00895
0.985748
0.996141
1
1.00042
1.00007
1
1.00069
0.996735
0.996564
1.03773
1.00635
0.979518
1.00871
0.979138
0.99569
1.00133
1.00129
1.00134
1.00034
1.00173
1.0013
1.00023
0.963296
1.00695
0.985437
1
0.97928
1.00753
0.959135
0.996607
1.00074
1
1.00003
1.00006
1.00108
0.995925
1.00002
1.00003
1
1.00006
1.0002
1
1.00018
1.01129
1.02909
1.00934
1.02941
1.02514
1.00912
1.01295
1.00259
1.00001
1.00058
0.923475
1.00001
1.00076
1.00208
0.999164
0.9297
0.996779
1.00139
0.996939
1.00255
1.00115
1.00048
1.00073
1.0011
1.00013
1.00063
1.00053
1.00038
1.00973
1.0276
1.01349
1.00687
1.01672
1.00875
1.008
1.00303
0.922602
1.00001
1.00111
1.00005
1.00097
1.0034
1.00026
1
0.631015
0.816724
1.00004
0.631583
1.00045
1
0.991022
1.00304
1.04943
0.978899
1.00017
0.99873
1
0.522718
0.929671
0.191386
0.524571
0.930699
1.00022
0.998543
1.0057
1.00079
0.914327
1.00096
0.980497
0.994459
1.00024
0.816183
1.00008
0.62982
1.00012
0.629375
1
1
1.03328
0.924379
1
0.986155
1
0.994893
1.00038
0.19283
0.525203
0.928415
0.523294
0.930502
1
0.498369
0.794623
0.00252421
0.0795975
0.789733
0.00465082
0.497093
0.998324
1.00042
0.812558
1
1.00042
0.812745
1
0.288835
-1.29185e-19
0.0927765
3.01343e-08
3.01343e-08
0.0945912
0.286643
1.00003
0.999905
0.999752
0.965639
1
0.99059
0.998631
0.497332
0.0835374
0.791824
0.00643249
0.788143
0.00616335
0.501366
0.995496
1
0.999901
0.814505
1
0.813848
0.993636
0.292992
9.37104e-08
9.37104e-08
0.0952897
9.37104e-08
0.093381
0.296644
0.000315559
0.0142283
-7.62035e-21
7.68527e-10
0.0162355
7.68527e-10
0.000137219
0.178862
0.90362
0.137478
0.813997
0.907477
0.18133
0.145709