/*--------------------------------*- C++ -*----------------------------------*\
| =========                 |                                                 |
| \\      /  F ield         | OpenFOAM: The Open Source CFD Toolbox           |
|  \\    /   O peration     | Version:  5.0                                   |
|   \\  /    A nd           | Web:      www.OpenFOAM.org                      |
|    \\/     M anipulation  |                                                 |
\*---------------------------------------------------------------------------*/
FoamFile
{
    version     2.0;
    format      ascii;
    class       surfaceScalarField;
    location    "0.8";
    object      alphaPhi10;
}
// * * * * * * * * * * * * * * * * * * * * * * * * * * * * * * * * * * * * * //

dimensions      [0 3 -1 0 0 0 0];

internalField   nonuniform List<scalar> 
28732
(
-2.18932e-08
1.47421e-08
-1.32897e-08
1.20575e-08
-1.04393e-08
1.39392e-09
-8.14952e-09
-8.01387e-09
-1.39825e-08
-1.40952e-08
-6.51388e-09
1.52271e-08
-2.14855e-08
-2.46104e-09
-2.90519e-08
-1.36205e-08
1.02295e-08
-1.3436e-08
-5.53787e-08
2.15483e-09
2.15729e-11
3.32491e-11
-2.84926e-10
-5.73499e-20
4.0794e-21
3.34882e-19
2.54129e-20
-4.65803e-20
3.30359e-19
-5.9002e-19
3.22203e-24
7.11282e-23
7.58789e-25
6.3805e-24
-9.91402e-23
1.37035e-22
-1.04657e-20
4.6497e-26
2.23118e-26
-2.94677e-28
1.08077e-31
2.96962e-30
5.08209e-31
1.68472e-35
3.94615e-33
-3.59712e-34
6.56287e-39
3.01036e-37
-1.63626e-37
2.5958e-42
6.48932e-41
-6.56787e-41
1.02247e-45
1.67098e-44
-2.0562e-43
4.01526e-49
2.63793e-48
-2.45441e-47
1.57449e-52
1.98027e-51
2.20892e-50
6.14552e-56
-1.13693e-55
9.53034e-54
2.41098e-59
-6.51931e-59
-5.70262e-56
9.37426e-63
8.67022e-62
-2.55531e-59
3.66515e-66
-2.02097e-65
-6.22168e-64
1.99107e-69
-2.4635e-69
4.18253e-66
5.63563e-73
-2.81712e-72
-9.90944e-71
5.99512e-76
1.83438e-76
-6.13271e-72
3.34104e-80
-9.61125e-80
7.80775e-76
2.82281e-83
2.45504e-83
-2.00033e-79
-5.51706e-86
-9.49664e-86
6.50348e-82
7.07992e-89
1.18341e-89
3.45607e-85
1.36504e-93
-1.21931e-94
-3.24758e-89
1.90084e-94
3.91648e-96
-1.74868e-91
-4.08819e-99
-3.35662e-100
1.42501e-95
-5.54645e-101
5.40958e-103
-5.68716e-98
2.02737e-104
2.95362e-105
-1.00111e-100
3.89523e-108
3.0811e-110
1.98927e-105
-8.76522e-111
-1.21079e-112
1.71729e-107
-2.26723e-114
-5.26695e-119
-2.23874e-110
1.92415e-117
2.11239e-119
-2.24667e-113
-8.91542e-121
3.61357e-123
-1.7065e-116
2.33398e-124
2.50652e-125
-2.97177e-120
-7.81119e-127
-5.12944e-128
9.26829e-124
-2.49845e-130
-6.2214e-132
9.60994e-127
-1.61201e-133
8.79135e-136
2.55828e-130
1.75739e-136
-1.44212e-139
-9.421e-133
1.2505e-140
4.76143e-141
-5.69654e-136
1.1934e-142
1.73289e-143
-8.62311e-141
6.50968e-147
-3.86895e-148
-2.53526e-142
1.46129e-149
-3.83882e-151
-1.70464e-145
9.38029e-153
2.19613e-154
-1.12132e-148
9.90885e-154
-1.19293e-157
3.64529e-152
5.23878e-155
5.15252e-158
-1.99647e-155
6.96738e-160
-1.47104e-157
-6.69573e-09
-1.12133e-08
-2.15025e-09
5.61272e-08
1.022e-08
6.77481e-09
-1.27853e-08
-4.18116e-09
-7.33139e-09
-3.54752e-08
-7.0735e-09
2.63619e-08
-1.61132e-08
8.97091e-08
-3.97929e-08
-5.24426e-08
-3.90312e-08
1.54046e-08
1.71788e-08
1.99569e-08
-1.66034e-08
-1.20483e-08
-3.71e-09
-1.39906e-08
-1.07303e-08
-1.73486e-08
-3.28858e-08
1.41726e-09
4.41527e-10
1.49811e-09
-3.03952e-10
-4.55309e-09
1.94858e-16
3.23208e-18
5.83474e-18
-1.54405e-15
7.68677e-19
3.08242e-16
2.65494e-16
1.02851e-15
1.45062e-21
-6.33382e-21
1.75019e-22
-1.59764e-21
6.03714e-20
3.79253e-20
-9.21733e-20
9.05362e-28
-4.82571e-25
2.15774e-26
1.89483e-29
-7.04497e-29
2.4673e-30
5.72009e-33
3.73046e-32
1.57238e-33
1.75942e-37
5.8648e-36
1.86353e-38
5.27951e-41
-1.65646e-41
-1.46923e-39
2.13119e-44
-1.31068e-43
-3.43002e-43
8.4695e-48
-5.65161e-48
1.55702e-46
6.39919e-51
1.71695e-50
7.20282e-50
2.16469e-54
1.75309e-54
-1.68414e-52
6.49239e-58
1.93449e-57
6.40038e-55
2.55828e-61
2.52584e-60
1.76768e-58
1.02896e-64
2.12157e-65
5.59116e-63
4.30811e-68
-8.01929e-68
-3.93621e-65
1.69384e-71
1.11512e-71
-1.13943e-68
7.079e-75
-1.81456e-74
3.29332e-71
2.92585e-78
-2.56051e-78
1.26772e-75
1.54609e-81
6.0653e-82
6.08848e-78
1.1021e-84
7.17626e-85
-2.60654e-81
2.14472e-88
3.11065e-88
1.13746e-84
9.48758e-92
-2.73628e-91
5.28547e-88
5.71229e-94
-8.23364e-95
-1.66909e-90
-9.86908e-99
-4.72501e-98
4.29009e-94
3.87258e-101
-9.73388e-102
1.23489e-97
2.5397e-104
-1.01546e-105
-1.1597e-99
-7.09677e-108
-5.82934e-107
1.66385e-103
-8.00549e-111
-2.16787e-109
1.49448e-106
4.18496e-114
3.33721e-115
3.68011e-110
-2.00858e-117
1.95542e-118
-1.43349e-112
5.09652e-120
-8.75684e-121
3.04321e-116
6.30846e-124
7.54403e-126
-9.08407e-121
5.22947e-126
-1.34653e-127
-1.93474e-122
-2.5021e-129
-1.12463e-129
3.19755e-126
1.48234e-133
2.75563e-133
-7.3643e-129
-1.8282e-136
-2.22166e-137
6.67104e-132
-1.57564e-139
1.34564e-140
7.85979e-136
-8.48008e-144
9.36509e-144
1.54684e-139
3.9673e-146
3.73414e-146
6.88615e-141
-3.56679e-148
1.51024e-150
1.04175e-144
2.52198e-151
-8.40103e-151
-2.78909e-147
1.80559e-153
-2.92019e-155
-2.94984e-151
5.87825e-155
1.28255e-157
8.86575e-154
6.12458e-160
5.01677e-157
-1.38098e-08
-1.00917e-08
-1.08481e-08
-9.28039e-09
1.77731e-09
1.05386e-08
4.97442e-09
3.16606e-09
-2.33356e-08
6.11686e-09
4.96915e-08
8.57639e-09
-6.65947e-08
-7.12845e-09
7.80119e-09
9.12576e-09
8.87479e-09
-4.4945e-08
-1.32095e-08
8.51409e-09
1.38058e-08
1.27573e-08
1.96932e-08
1.48012e-08
-6.33678e-09
2.19987e-07
-6.00439e-09
2.08498e-09
1.66794e-09
-7.74107e-09
-1.30632e-08
-8.53388e-09
-9.55493e-09
3.52017e-10
7.18206e-09
6.88395e-10
6.28212e-10
-8.41521e-09
-1.28165e-11
-3.16427e-17
1.43501e-09
-1.80218e-15
1.43504e-09
7.48691e-20
8.98078e-19
-3.77531e-21
3.2992e-20
1.60499e-19
-1.32065e-18
1.54052e-19
5.60575e-27
1.17932e-22
-3.45615e-25
2.45116e-29
4.73585e-27
-1.55861e-30
2.62386e-32
1.38997e-30
-2.52821e-32
2.34933e-36
5.45292e-34
-2.50921e-36
5.95099e-40
1.0599e-37
4.83484e-39
2.18203e-43
2.45868e-41
3.56009e-43
8.75539e-47
6.18997e-45
2.66198e-45
3.73955e-50
1.58952e-48
-3.33695e-48
1.45658e-53
3.76707e-52
-1.51737e-51
5.67675e-57
5.2973e-56
2.63859e-54
3.38181e-60
1.96234e-59
7.10144e-57
8.94934e-64
7.0752e-63
3.77723e-61
3.05642e-67
2.17752e-66
-9.0879e-64
1.39751e-70
4.62161e-70
2.32353e-67
5.48706e-74
6.24817e-74
6.17285e-70
2.20116e-76
4.48027e-77
-1.76659e-73
-3.64284e-80
-9.47277e-81
2.23444e-76
6.54654e-83
-4.13981e-84
1.24361e-79
2.36589e-87
9.59365e-88
-4.35419e-83
-1.49707e-90
-1.03616e-90
-1.48602e-86
4.45377e-92
-6.6409e-94
-4.01148e-89
2.34127e-95
1.09784e-98
1.02186e-92
6.8075e-99
-1.89008e-101
4.32589e-96
4.21174e-102
-1.54904e-102
-4.10838e-99
9.97701e-105
1.33621e-106
-6.64647e-102
1.55771e-108
7.04471e-111
-5.49599e-105
4.60723e-111
-3.26996e-113
-7.77603e-108
-1.27886e-114
1.11252e-117
1.06931e-111
-1.15753e-117
1.7737e-120
9.15753e-115
1.04569e-122
-1.00235e-124
-4.26487e-118
3.69499e-125
-4.79109e-126
-6.28916e-121
-7.26942e-128
-6.74256e-129
-4.63345e-124
-5.1865e-131
3.96389e-132
2.24108e-127
3.40979e-133
-5.93456e-135
-2.90968e-130
-3.0901e-137
-4.72879e-138
1.00602e-133
-1.169e-140
-5.54429e-142
6.74853e-137
1.18397e-143
1.17781e-145
2.89298e-139
-1.01599e-146
5.40112e-148
-1.73652e-143
1.97779e-149
3.24117e-151
-8.67696e-146
-1.00568e-152
8.70923e-155
-2.35178e-150
4.68702e-154
-1.43146e-160
5.89443e-153
-2.49006e-158
1.21454e-155
-7.29048e-10
2.99693e-08
4.88747e-09
1.47736e-09
2.61792e-09
1.03956e-08
-6.03466e-09
-5.61212e-09
-6.24432e-09
-5.23956e-09
1.6747e-09
3.40969e-09
4.47302e-08
2.8502e-09
-2.08559e-08
-2.25452e-08
-1.93911e-08
-2.63073e-08
6.74623e-09
-1.29154e-08
1.38018e-08
7.50589e-09
-5.31932e-09
1.1889e-08
1.71846e-08
-3.03886e-09
1.04265e-09
-1.35107e-08
-3.53782e-09
-6.85716e-09
-1.69091e-08
3.73018e-09
1.19667e-08
-1.02544e-08
7.69973e-09
-1.61269e-08
3.99923e-10
-8.45188e-09
1.59488e-09
6.0569e-10
5.85043e-09
-1.14953e-10
1.64639e-12
-4.97878e-12
3.44015e-11
6.97288e-16
2.72596e-19
6.11011e-18
4.29451e-19
1.51916e-17
3.28286e-17
8.93951e-17
-1.43333e-16
5.87202e-25
2.87307e-21
-3.71236e-24
-5.48969e-29
4.97265e-25
7.37136e-27
2.60769e-30
1.12983e-28
5.34803e-31
2.82092e-34
8.51354e-32
1.95749e-34
4.4714e-39
1.47121e-35
-5.32647e-38
2.96013e-43
3.13236e-39
-5.0196e-41
1.93542e-47
7.98609e-43
-1.79506e-44
-2.27781e-50
2.01926e-46
-8.34911e-48
-1.97614e-53
5.36974e-50
-9.54346e-51
-1.1952e-56
1.25881e-53
4.05355e-54
-6.79076e-60
3.05781e-57
-1.5278e-57
-3.52385e-63
9.03706e-61
3.39337e-61
-1.6556e-66
1.17949e-64
1.27751e-62
-7.71059e-70
3.30603e-68
1.96628e-66
-3.1002e-73
5.14768e-72
5.68637e-69
-1.09778e-76
-2.64038e-77
1.208e-72
1.01295e-80
2.15235e-79
-4.47056e-76
-2.00997e-83
5.75876e-82
-2.04106e-78
-4.05969e-85
-2.55391e-87
3.17246e-82
5.56104e-90
2.96591e-89
2.13503e-85
1.41172e-91
-8.85739e-92
-5.06105e-89
2.91244e-96
4.96749e-98
-4.26307e-93
9.65892e-99
5.16116e-100
3.11991e-95
-2.49791e-101
1.78332e-103
-7.21983e-98
-1.93197e-104
-2.40819e-106
-1.5705e-100
7.68605e-109
-3.40821e-111
-3.52278e-104
-9.78383e-111
1.62159e-112
5.3962e-107
4.99747e-114
-2.01541e-116
-1.07368e-110
-1.64601e-118
-1.84546e-118
-9.15526e-114
3.62824e-121
-6.87834e-122
2.80318e-117
3.85683e-124
2.17229e-124
-1.096e-120
2.76981e-128
-1.50446e-127
5.05675e-123
5.57062e-131
-2.45676e-132
3.42536e-126
1.2673e-134
7.54674e-136
1.78205e-129
-1.37768e-138
-1.70006e-138
4.0271e-134
1.35754e-140
-2.23081e-141
-2.66764e-137
-7.7072e-143
3.49052e-145
2.99275e-139
-7.20607e-146
-6.51095e-148
1.57292e-142
2.87513e-150
1.35051e-150
-1.52955e-145
3.03882e-152
1.3347e-154
7.81314e-150
7.20998e-154
-1.40337e-156
6.38183e-153
-1.84226e-157
1.97456e-154
1.43099e-08
-3.68297e-09
-7.09658e-09
1.89355e-09
-1.19764e-08
-3.59474e-08
-1.1694e-10
-1.12949e-08
1.40324e-07
8.99088e-08
9.51302e-08
1.78976e-07
-1.44046e-08
-5.03604e-09
6.98438e-09
1.45478e-08
1.25839e-08
1.39747e-08
-3.55861e-09
-1.33375e-08
-1.76138e-09
-3.30942e-09
-2.83701e-09
3.4581e-09
-2.43189e-09
-8.66384e-10
4.85705e-08
-8.82631e-08
-3.36918e-09
2.03804e-08
2.48882e-08
2.11749e-08
1.95039e-08
-1.28967e-09
-1.62669e-09
-1.75887e-09
-2.8222e-09
6.96609e-09
-2.62556e-09
-1.53278e-11
5.34039e-11
-1.02821e-10
6.5106e-11
5.88445e-18
3.51985e-17
-3.20764e-18
5.47042e-16
-1.78275e-15
3.78616e-15
-2.58213e-15
3.65176e-17
3.66187e-17
3.66226e-17
1.23703e-24
7.45e-21
-1.41592e-22
9.99692e-28
1.21181e-24
-7.14417e-26
3.78788e-29
2.05353e-28
-9.83619e-30
7.89911e-33
7.78702e-32
-5.06536e-33
2.44173e-37
1.64449e-35
-1.63319e-36
6.59859e-41
3.64666e-39
-2.55273e-40
2.46532e-44
7.68208e-43
8.72807e-43
9.3223e-48
1.91815e-46
1.36491e-45
3.51139e-51
5.7692e-50
1.09542e-49
1.30945e-54
1.22983e-53
2.42102e-52
4.87985e-58
1.95428e-57
-3.76705e-56
1.77945e-61
1.43756e-60
4.5664e-58
7.18874e-65
1.55768e-64
3.5734e-62
2.2516e-68
1.50344e-67
-7.2021e-65
7.65146e-72
8.74743e-72
1.32712e-68
3.73225e-75
4.81205e-75
1.81102e-72
-1.2212e-78
2.02451e-78
5.29629e-75
2.89214e-82
6.37465e-82
2.5654e-77
1.45655e-84
6.63441e-86
2.20147e-81
8.17075e-90
2.37431e-89
1.10289e-83
-3.37513e-90
2.84688e-93
4.97288e-87
-7.54894e-95
1.29694e-95
-1.48286e-90
6.1596e-97
2.63809e-98
3.98838e-94
1.35156e-101
-6.19542e-103
-2.9862e-96
-2.43334e-104
-3.90556e-106
-1.50942e-99
2.43114e-107
4.47937e-109
1.35213e-103
1.34387e-110
9.76821e-112
1.41877e-106
6.76317e-114
2.4551e-115
-1.52215e-109
-7.01737e-116
6.21927e-118
2.88982e-112
-4.1673e-121
4.50261e-122
-3.83546e-115
-7.77708e-123
1.51175e-125
5.10052e-120
3.56829e-126
3.03753e-128
-1.10226e-122
-1.46154e-130
-9.87446e-132
2.10621e-126
-1.88396e-132
-1.1004e-132
1.90063e-129
-1.21945e-137
-3.77599e-136
-6.29665e-133
2.55646e-142
6.28172e-140
-1.13177e-134
1.2589e-142
1.59722e-143
1.09514e-137
-1.21649e-145
1.51425e-147
-3.54908e-142
-1.73703e-147
4.87538e-149
2.79804e-144
1.74103e-151
4.3477e-152
1.12018e-147
7.99986e-154
1.82316e-155
6.2588e-151
3.63088e-158
-2.06647e-153
1.50905e-08
2.94326e-09
-3.12506e-09
-1.02735e-09
-2.81783e-08
1.35204e-08
-5.67301e-08
-7.06461e-09
1.90953e-08
4.81688e-09
5.43486e-09
-2.08222e-08
5.56241e-08
8.78343e-09
-5.82308e-09
-1.1297e-08
5.47321e-09
-1.34046e-08
-3.10866e-08
2.64228e-08
1.73069e-08
-1.82949e-08
-2.39583e-08
1.29183e-08
4.81202e-09
3.00497e-10
4.64624e-09
7.18207e-09
-1.67885e-08
-9.40305e-10
-1.69124e-10
1.83909e-10
-1.01228e-10
6.75897e-11
-1.628e-16
3.67286e-17
-1.82663e-08
3.66162e-17
-7.9334e-25
-1.29035e-21
-3.97891e-22
5.72315e-18
5.7225e-18
5.72252e-18
5.7225e-18
-1.8339e-26
-3.03055e-25
9.98692e-26
1.17256e-28
-2.9727e-29
9.71821e-30
1.7244e-32
-9.17835e-33
1.18972e-32
-1.35629e-36
-3.24447e-36
1.758e-35
-5.7893e-40
-9.3995e-40
4.87785e-40
-2.34392e-43
-2.65258e-43
2.69954e-47
-9.44273e-47
-7.26973e-47
1.37378e-45
-3.78904e-50
-1.68449e-50
1.43388e-49
-1.51707e-53
-1.75401e-54
-7.63382e-52
-6.06731e-57
-8.75453e-58
7.51025e-56
-2.41861e-60
-6.29899e-61
8.62847e-58
-9.63136e-64
-1.76153e-64
3.88712e-61
-3.84617e-67
-5.07718e-68
2.46367e-64
-1.53842e-70
-1.40762e-71
1.86245e-68
-6.10469e-74
-1.41882e-74
6.16874e-71
-2.4088e-77
1.86495e-79
4.64571e-74
-1.45088e-80
5.2046e-82
2.64798e-77
-3.75507e-84
-5.38481e-87
8.08946e-81
-1.30977e-87
-9.9919e-90
7.61839e-84
-5.18509e-91
-9.21674e-93
8.82521e-87
3.63723e-94
-2.16491e-95
2.28856e-89
-9.97969e-97
1.58321e-97
1.68723e-92
8.43951e-101
6.53583e-103
7.75059e-97
-2.21112e-103
6.98977e-106
1.17116e-99
3.2887e-107
6.43747e-109
-1.56296e-102
2.6665e-110
1.13012e-111
7.34599e-106
4.24113e-114
-1.99472e-115
8.3052e-110
8.82317e-117
3.7132e-119
-1.58926e-112
-1.66312e-119
6.21867e-122
-2.44951e-115
2.40443e-123
-1.29671e-125
-1.71314e-120
-4.84054e-126
-2.02385e-128
4.05823e-123
2.86315e-129
3.4278e-131
1.92677e-125
-2.09862e-132
-7.82042e-134
1.28551e-127
-9.43323e-135
-6.39279e-139
4.47875e-131
4.46797e-139
7.83331e-141
8.39248e-135
-4.11448e-142
-2.42408e-144
1.1241e-137
6.46833e-146
-1.28492e-148
2.20577e-141
2.97538e-147
5.09689e-149
-5.89811e-144
7.20924e-152
5.24031e-154
-1.33309e-148
-2.72893e-153
-3.10663e-157
6.28181e-150
5.31758e-158
1.16368e-154
2.2028e-10
-4.85648e-09
-9.30599e-09
2.45149e-08
1.1253e-08
-1.47075e-09
1.74648e-09
-1.54154e-08
-2.36827e-09
-1.27415e-08
-1.20644e-08
-4.11643e-09
-1.06362e-09
-1.69113e-08
-1.57787e-07
4.61895e-08
1.63642e-07
4.64015e-08
1.4177e-09
8.70965e-09
6.49716e-10
-1.82433e-08
-2.29309e-08
-2.3982e-08
-1.91043e-08
-6.78721e-08
-3.38153e-07
-1.1417e-07
2.20188e-07
6.25125e-09
-7.99965e-09
-1.44146e-08
-4.30169e-09
-1.91779e-08
1.46203e-08
1.17239e-08
2.24822e-09
6.68533e-08
9.62628e-09
1.1564e-08
9.75975e-09
1.19076e-08
1.63139e-08
1.41948e-08
1.50716e-08
9.23104e-09
-8.96978e-09
1.99623e-09
-4.46618e-10
-1.32938e-09
-2.84477e-10
-1.45992e-11
-1.67304e-11
-7.24682e-11
6.8685e-12
2.54253e-19
-8.92106e-19
1.93117e-18
7.52064e-17
1.13031e-17
-1.10804e-16
1.86976e-17
-3.3367e-18
-3.69673e-18
-3.54238e-18
-3.6981e-18
3.15073e-25
-6.63769e-23
1.81735e-23
-1.14309e-27
9.73305e-27
1.54894e-27
2.55781e-30
2.45985e-30
8.9759e-31
2.02638e-34
-3.0306e-34
3.3108e-34
-7.46623e-38
-5.21079e-38
2.03669e-37
-3.21276e-41
-1.13518e-41
1.06368e-40
-1.31457e-44
-2.88237e-45
6.27406e-44
-5.34648e-48
-7.30096e-49
1.24829e-47
-2.16475e-51
-1.85191e-52
2.81983e-50
-8.74015e-55
-5.94906e-56
-4.2441e-53
-3.52257e-58
-2.13093e-59
7.83295e-58
-1.4127e-61
-4.71116e-63
5.39798e-60
-6.30439e-65
-1.08436e-66
6.65295e-62
-2.26917e-68
-3.35225e-70
6.45837e-66
-9.08903e-72
-2.23379e-74
-7.46107e-70
-3.49721e-75
-3.49468e-77
1.59531e-72
-2.02344e-78
-1.36611e-80
5.96566e-75
-6.01243e-82
-2.22594e-84
-2.07186e-79
-2.39364e-85
9.91805e-89
-3.88608e-83
-7.776e-89
3.36349e-91
3.98438e-86
-2.54286e-91
4.21525e-94
1.37108e-87
7.11829e-96
1.60043e-99
-2.04374e-93
-8.25304e-99
-5.70324e-101
5.92499e-96
-6.35224e-102
9.40737e-105
-2.55147e-98
-4.06389e-105
-7.88305e-109
1.73646e-102
-6.33963e-109
-4.30673e-111
9.54027e-104
4.65412e-112
4.46671e-115
-1.73232e-107
-1.27261e-114
4.44661e-117
5.32379e-111
-4.18208e-118
2.29452e-121
-2.33455e-114
-2.15269e-120
4.99778e-124
2.2187e-116
1.82561e-124
1.35592e-126
1.70168e-120
5.7287e-127
-3.92305e-130
7.5835e-123
-5.95812e-133
-9.91141e-134
-7.19172e-127
2.84957e-133
4.66041e-136
1.69584e-129
1.22162e-137
4.91978e-139
-5.46937e-134
-1.19691e-140
-1.58964e-143
1.21817e-136
-1.26328e-143
1.52264e-145
4.67239e-139
1.29473e-147
3.61958e-150
-2.08924e-143
6.87754e-150
9.22335e-154
4.50681e-145
-8.20209e-153
5.19202e-156
2.07099e-150
3.41976e-154
-3.55183e-158
4.45928e-152
1.77751e-158
8.27338e-154
2.67923e-08
4.36903e-08
8.57047e-09
4.64414e-09
1.12932e-08
3.61487e-09
-4.32625e-08
-4.98036e-08
-5.22117e-08
-4.46115e-08
-6.78263e-09
-1.45847e-08
-7.18727e-09
-3.66015e-09
-1.80983e-08
5.09457e-08
-2.03397e-07
1.24086e-08
4.36874e-08
3.87518e-08
4.52515e-08
4.75251e-08
2.19253e-08
2.25393e-08
2.2504e-08
2.21132e-08
6.05485e-09
-2.16826e-08
-2.81852e-08
-1.2426e-08
7.58875e-09
6.61865e-09
1.80567e-09
-1.56295e-08
-2.19507e-08
-3.08273e-10
5.56067e-10
3.18301e-09
-5.61013e-10
-2.24898e-09
-1.13336e-09
-5.14566e-11
2.25607e-12
1.42082e-09
3.44989e-11
1.42175e-09
4.29308e-21
-1.66821e-20
8.10195e-21
2.17691e-19
1.46503e-19
-1.06307e-18
-2.01185e-19
-9.93429e-27
-1.14596e-24
3.26914e-25
4.24134e-29
-1.24879e-28
4.10822e-29
1.69246e-32
-1.06671e-31
4.69259e-33
1.05915e-37
-1.89824e-35
5.69409e-36
-3.36259e-40
-3.13236e-39
-7.09733e-39
-1.56565e-43
-7.3521e-43
-5.23641e-42
-6.74081e-47
-2.13393e-46
2.17917e-45
-2.77617e-50
-4.89371e-50
1.56251e-48
-9.14511e-54
-1.35248e-53
4.85403e-51
-4.91312e-57
-3.61085e-57
2.79533e-54
-1.08557e-60
-3.64257e-60
-2.20461e-57
-8.46472e-64
-2.04141e-64
2.07326e-61
-8.31022e-67
-2.98565e-68
6.23058e-64
-1.37664e-70
-1.70317e-71
1.08188e-67
7.08632e-74
-9.1591e-75
9.22115e-71
-2.47285e-77
-7.00061e-78
3.59891e-74
-4.96312e-81
-5.77932e-81
1.10319e-76
-5.38052e-83
2.11139e-86
1.49433e-80
5.67763e-86
-1.89085e-89
-3.5658e-83
-9.70585e-90
-4.39329e-92
6.75091e-86
8.90767e-93
8.36714e-95
-4.6846e-90
2.15203e-95
8.71832e-98
2.75439e-93
-3.58462e-99
-3.00233e-101
6.82858e-96
4.1282e-104
1.14495e-104
1.64162e-99
1.49539e-105
9.67669e-108
1.95482e-106
9.72497e-109
5.57776e-113
3.88507e-105
-5.19703e-113
-9.08537e-116
4.67445e-109
-1.10504e-114
-1.91885e-118
2.43489e-111
-1.75132e-118
4.15371e-121
-5.80913e-115
7.43303e-121
-9.56307e-125
4.29784e-118
1.52215e-124
-2.34902e-129
-1.12071e-122
-5.02203e-128
-8.77887e-131
1.16594e-124
3.14016e-131
2.12465e-134
-9.56122e-128
2.71927e-134
3.62286e-137
-8.4718e-131
-5.12834e-137
4.78443e-140
4.04328e-134
1.10715e-140
-2.7143e-144
-8.00075e-138
-1.2056e-144
6.27168e-148
-3.24738e-141
-4.07927e-149
1.75477e-150
-1.00834e-143
9.93919e-150
-8.55039e-153
-9.62333e-147
-5.75043e-154
-2.06388e-155
4.66948e-150
2.70752e-154
-2.52005e-157
4.35123e-153
6.36834e-160
-1.50538e-155
3.37319e-09
6.5259e-09
-2.73597e-08
-1.92429e-08
-1.76111e-09
-6.01773e-09
1.39313e-08
1.92931e-07
4.35423e-09
-3.0296e-07
2.31879e-07
7.41753e-10
7.595e-10
-3.94324e-09
-4.3278e-09
2.4123e-08
1.7002e-08
-1.17495e-08
-2.35614e-08
-5.34814e-09
1.01225e-10
-7.24894e-09
1.45022e-07
3.38057e-09
2.71457e-08
7.21082e-09
4.62196e-09
5.21044e-09
2.70992e-08
2.80611e-08
2.97165e-08
9.38392e-09
-7.95622e-09
-2.76301e-08
-3.05952e-08
1.17727e-08
-8.87878e-11
-6.43763e-10
1.03116e-09
-2.71516e-09
2.48232e-09
-5.06994e-13
5.53436e-15
-2.63973e-17
-1.49139e-15
1.24721e-15
-1.9307e-14
7.82673e-13
-8.96291e-14
1.4512e-14
1.988e-15
2.04894e-15
1.67348e-21
7.05579e-23
-3.18551e-21
2.12499e-20
-1.07688e-20
4.68094e-20
-7.29798e-20
5.66992e-27
7.76312e-27
-6.67842e-26
2.21052e-29
-6.9408e-31
-1.6549e-30
3.68737e-33
-1.36524e-32
-3.46917e-33
5.424e-37
-1.34229e-36
-1.69282e-36
1.97574e-40
-2.88304e-40
-7.05172e-40
7.79954e-44
-7.906e-44
5.58955e-44
3.07782e-47
-2.08933e-47
-3.78158e-46
1.21219e-50
-7.82994e-51
1.98747e-50
4.75938e-54
-1.33455e-54
-3.26877e-52
1.8643e-57
-2.48947e-58
-2.65562e-55
7.26282e-61
-1.53352e-61
-4.54538e-58
2.82604e-64
-3.26505e-65
-9.10047e-62
1.09443e-67
-6.5961e-69
4.15e-65
4.22611e-71
5.35363e-73
-2.3445e-68
1.62549e-74
-5.51835e-76
-1.10241e-71
6.88443e-78
2.91517e-79
9.18342e-75
1.61491e-80
-1.05024e-82
-5.19163e-77
1.27041e-84
6.38739e-87
-6.55972e-82
2.22223e-88
-1.26815e-89
3.84546e-84
1.09432e-92
1.10767e-93
-1.73311e-87
5.17731e-95
-5.48377e-96
4.47264e-91
-9.25079e-99
-3.62437e-100
1.70384e-94
7.31843e-100
3.42249e-102
-2.25207e-96
1.0227e-104
-1.03176e-105
7.90667e-101
-9.1179e-108
-2.2322e-108
5.38574e-103
-8.91935e-111
2.78484e-112
1.78455e-107
-3.63765e-113
-8.67895e-116
-7.40135e-110
8.86787e-118
-4.23602e-120
1.88337e-113
3.95471e-120
-2.90491e-121
-1.78676e-115
-2.22612e-123
-1.04084e-124
1.74487e-119
-1.60719e-126
-5.47783e-128
1.17935e-123
6.29523e-130
2.5306e-131
-1.17019e-125
4.09369e-133
-7.81298e-135
-1.48615e-128
2.93355e-135
8.65668e-137
-1.24686e-132
-4.67385e-139
1.46448e-140
-4.31236e-137
1.84132e-142
-3.30975e-144
-9.74775e-139
-2.45751e-145
-3.79338e-147
1.21191e-141
9.24302e-149
2.44744e-152
-5.88763e-145
-1.94175e-152
2.11516e-154
8.20641e-148
2.07597e-153
-3.48759e-156
7.00102e-152
2.48934e-154
-1.98811e-157
-5.45887e-154
-4.11821e-159
-1.77697e-157
4.86094e-09
3.99227e-09
1.0856e-08
2.73719e-09
4.86052e-08
-2.86275e-08
6.70667e-09
4.96565e-08
1.64928e-08
1.91136e-08
1.5459e-08
1.21518e-08
6.36865e-08
-1.07908e-07
1.66456e-08
-3.55263e-09
2.09845e-08
2.70524e-08
2.85492e-08
1.98643e-08
-2.38032e-08
2.12912e-08
-1.53512e-08
-1.45184e-08
3.62028e-08
-1.91773e-09
-7.53258e-09
1.51652e-08
8.45668e-09
-3.03194e-09
-7.34563e-08
-2.87647e-08
-4.04197e-08
-3.21727e-08
-3.16183e-08
9.56652e-08
-2.43353e-07
-2.18189e-08
2.74887e-07
-3.24189e-09
-3.8975e-09
-3.5965e-09
2.43247e-10
-5.08909e-09
3.08507e-09
6.44806e-10
-2.98114e-10
2.50092e-18
-3.90415e-19
-3.52777e-21
3.448e-20
-2.83883e-19
1.2098e-18
-1.42101e-17
1.12305e-17
3.6821e-24
-3.15433e-25
-1.03919e-22
-2.90237e-25
-2.57253e-21
8.75351e-24
3.99916e-27
-5.47989e-28
3.73982e-31
6.34561e-31
5.88701e-35
5.8152e-34
1.53852e-38
4.3379e-37
5.66928e-42
-5.12714e-40
2.25211e-45
-3.36758e-43
8.97101e-49
6.0772e-47
3.55484e-52
-1.13724e-49
1.38643e-55
3.59073e-53
5.43377e-59
-1.34654e-55
2.18831e-62
-3.88338e-59
8.99936e-66
-3.54395e-62
3.28174e-69
-6.61462e-65
9.39301e-73
-1.64925e-68
4.69616e-76
-1.95497e-72
-1.90425e-79
1.69369e-75
-8.69435e-83
1.36485e-77
-2.65023e-86
-1.00727e-83
6.51045e-89
-1.11775e-84
6.48712e-92
-1.61935e-88
3.76649e-95
3.05514e-91
2.4347e-98
-1.60095e-94
2.80064e-100
-9.21197e-97
8.85584e-104
-2.02412e-100
5.3467e-107
-4.20239e-103
1.59906e-109
1.55364e-106
-9.36437e-114
3.47477e-110
-7.38069e-117
-1.4019e-112
1.69631e-119
-7.08745e-116
1.10817e-123
1.07718e-119
1.08153e-125
-1.02362e-123
4.44461e-130
-1.34613e-127
8.28932e-133
-1.01459e-129
-9.17174e-137
1.23243e-132
3.91566e-138
-1.70998e-135
1.75198e-142
1.59086e-138
-2.33151e-146
-3.20143e-142
7.05646e-148
3.7592e-145
-1.06785e-151
1.26204e-147
1.80774e-153
1.90268e-151
1.47445e-154
9.34529e-154
4.40437e-158
-1.26038e-08
2.02072e-09
2.66698e-08
-6.10079e-08
1.37504e-07
-1.63407e-07
6.02037e-08
-3.50691e-08
-2.53629e-08
-1.2423e-08
5.71841e-08
-3.89581e-09
8.696e-09
8.91328e-08
1.30248e-07
6.20421e-08
1.1216e-07
1.12255e-08
-1.7577e-07
1.07176e-08
1.23395e-08
-1.34522e-07
-8.99353e-08
-3.77052e-09
-1.75957e-08
-4.424e-09
-1.22034e-07
9.70473e-10
7.55552e-10
5.40042e-11
-2.34176e-10
-2.83407e-10
1.03458e-18
1.48248e-20
1.94908e-19
8.94394e-18
-7.1564e-20
-4.1968e-18
3.55055e-18
-4.00157e-18
1.157e-24
2.63117e-21
-1.49175e-24
8.15806e-22
-5.16725e-21
1.1077e-21
-4.70275e-21
7.37311e-26
-9.07414e-26
1.03589e-28
1.61716e-28
-4.0658e-29
-1.91521e-30
5.0944e-33
-2.00856e-32
-4.80896e-34
1.87918e-36
5.27791e-36
-7.10858e-38
1.33395e-39
1.70986e-39
4.96651e-42
8.75992e-43
9.10041e-43
-1.99946e-44
5.67431e-46
3.14638e-46
-4.54984e-47
3.66841e-49
8.20815e-50
-6.93276e-50
2.36762e-52
8.64386e-54
-3.09758e-54
1.52343e-55
-1.76509e-56
6.46566e-57
9.77006e-59
6.1867e-59
1.75685e-59
6.25069e-62
-1.58941e-62
-1.05681e-62
3.98559e-65
1.77109e-66
4.26047e-66
2.53181e-68
-3.72788e-69
1.48155e-68
1.60358e-71
-2.23766e-71
9.53263e-72
1.01103e-74
3.87888e-75
4.75862e-76
6.34444e-78
-4.08948e-80
2.06047e-79
3.96586e-81
3.96091e-82
1.33823e-83
2.46732e-84
-3.68439e-85
-3.91378e-85
1.52649e-87
1.56711e-89
3.68436e-89
9.38556e-91
-3.53432e-91
6.37768e-92
5.73775e-94
-2.06004e-94
7.36263e-96
3.48332e-97
2.04056e-97
-4.73063e-98
2.09754e-100
6.37961e-101
4.93887e-101
1.2538e-103
-5.74453e-104
-2.36792e-105
7.43462e-107
-2.88407e-107
-3.45139e-107
4.35995e-110
2.16538e-112
1.62888e-110
2.52694e-113
4.05973e-114
-4.06906e-114
1.43816e-116
-2.57699e-117
2.85693e-116
8.04117e-120
-1.29096e-120
1.67877e-120
4.4009e-123
2.00002e-125
-1.02374e-123
2.32883e-126
1.43439e-127
2.63271e-127
1.17243e-129
4.50819e-130
7.16962e-130
5.46145e-133
-5.96867e-134
-3.35293e-133
2.20975e-136
7.8978e-136
-3.17132e-136
5.74596e-140
1.02007e-139
-2.48776e-140
-1.64615e-143
-3.02511e-142
1.2611e-142
-4.44421e-146
-4.64115e-145
8.68156e-146
-5.03882e-149
7.2673e-149
5.75006e-149
-1.31022e-152
-2.01927e-152
-3.09383e-152
-4.13211e-153
2.12499e-155
3.05896e-156
9.79337e-158
-1.09628e-157
-2.00005e-08
-1.13649e-08
5.09989e-08
-1.58831e-07
-8.43113e-09
-6.83852e-10
-6.88424e-09
-6.6825e-09
1.53338e-08
5.93502e-09
4.40441e-07
1.99247e-07
-3.69155e-07
1.96877e-07
-1.50161e-10
7.35779e-09
5.98455e-08
1.21246e-09
-6.01286e-08
2.25031e-08
4.48082e-09
1.44669e-08
-1.71649e-09
-9.58128e-09
2.17453e-09
-8.4731e-09
-5.05446e-09
1.55198e-08
-6.61765e-08
-1.55343e-08
-1.83991e-08
1.45752e-08
1.40986e-07
-9.12374e-09
2.54163e-09
2.68785e-09
-6.50957e-09
-1.1536e-07
1.42985e-08
2.47795e-09
-1.32271e-09
2.42643e-09
-2.92682e-10
-1.7442e-08
1.49422e-15
-7.32093e-18
1.14668e-17
1.0832e-16
-1.04531e-14
-3.87692e-17
4.60428e-15
1.14593e-16
2.96847e-15
1.01296e-20
-1.1958e-20
-2.58142e-22
7.60954e-20
-4.66022e-20
6.81311e-20
-1.98755e-20
1.31016e-26
-4.49059e-24
-1.53161e-26
2.90841e-30
-7.10488e-28
-3.32582e-30
7.67799e-33
-1.64271e-31
-1.49374e-33
3.36031e-36
9.74729e-34
6.67565e-38
2.53457e-39
2.52987e-37
1.52242e-39
1.89797e-42
-2.98465e-42
4.46877e-43
1.39353e-45
-1.5427e-45
5.24164e-47
1.01328e-48
-1.55408e-49
-3.22675e-49
7.32659e-52
5.04938e-52
4.04006e-53
5.2423e-55
3.03048e-54
-1.38481e-55
3.7265e-58
2.18385e-57
6.80912e-59
2.62254e-61
5.38537e-63
1.76605e-62
1.8354e-64
-2.17192e-64
-2.21194e-69
1.27393e-67
1.7073e-67
9.83287e-69
8.79968e-71
-2.78596e-70
-3.25189e-71
6.05057e-74
-1.86987e-73
2.12097e-75
4.13253e-77
2.07418e-77
3.73189e-78
2.80512e-80
1.72769e-80
-7.67601e-82
1.89432e-83
3.98247e-84
-2.96403e-84
1.27349e-86
-2.31533e-86
6.45003e-88
8.52387e-90
3.86008e-89
2.43881e-91
5.67265e-93
-1.69544e-92
3.89226e-94
3.76508e-96
-5.24666e-96
4.13974e-97
2.49243e-99
1.02866e-99
1.55541e-100
1.64453e-102
-7.79451e-102
4.06487e-103
1.08063e-105
1.34455e-105
-6.22843e-106
7.07558e-109
1.35742e-109
-1.48586e-110
4.62131e-112
-9.94776e-112
3.42123e-113
3.00845e-115
-6.92259e-115
-1.79675e-118
1.95398e-118
9.53283e-119
1.37989e-119
1.2643e-121
-5.10857e-121
2.9523e-122
8.15866e-125
-4.73204e-125
2.36989e-126
5.25556e-128
1.45242e-128
-6.60336e-130
3.37544e-131
3.24502e-131
-9.62925e-133
2.16473e-134
1.16493e-133
-3.23984e-135
1.38623e-137
3.06014e-137
2.34656e-138
8.84775e-141
1.11795e-140
-6.87868e-141
5.62683e-144
1.11772e-143
-3.64707e-145
3.57166e-147
-1.84331e-147
2.76151e-147
2.36775e-150
-5.09819e-150
1.3917e-151
5.43727e-152
3.50871e-153
1.71122e-154
-4.57318e-157
3.36288e-157
-2.00141e-09
5.90059e-08
-7.63214e-09
3.04228e-08
5.77564e-08
6.11357e-08
5.76638e-08
5.11527e-08
4.92293e-08
2.13533e-08
7.45964e-08
1.769e-07
9.83859e-09
6.7576e-09
1.82622e-08
5.74692e-09
-1.93073e-07
4.84409e-09
-4.84329e-08
-7.26484e-09
9.34221e-08
1.59046e-08
-1.88557e-08
2.1981e-08
1.80544e-08
2.17648e-08
-4.31705e-08
-5.48333e-09
2.87665e-09
-7.66095e-10
-2.62328e-09
1.0014e-08
7.00919e-09
1.25192e-08
8.23421e-09
-2.85781e-07
-5.11683e-08
-4.59656e-08
2.08761e-09
-9.96459e-09
-7.45987e-09
1.09162e-07
2.54499e-09
-5.24326e-08
3.15665e-08
-8.63132e-12
-3.59623e-09
-3.72421e-10
3.7946e-09
-3.23516e-08
-4.45187e-11
-3.65629e-14
1.51112e-14
-5.73838e-14
-6.85868e-15
7.31781e-16
-8.19772e-20
4.7051e-18
4.37416e-21
-8.71327e-19
-2.33988e-18
6.13461e-20
-1.84895e-18
4.03573e-26
1.56914e-21
8.39999e-26
2.30104e-28
7.45798e-26
1.50711e-29
4.89808e-31
3.34805e-29
-1.8084e-32
2.46166e-34
1.87615e-32
-1.24274e-35
8.00511e-38
7.62317e-36
6.4001e-40
3.74099e-41
2.87657e-39
2.05252e-42
2.61865e-44
1.21352e-42
1.21469e-44
1.82097e-47
5.20326e-46
1.81548e-48
1.23363e-50
2.19921e-49
-2.94416e-51
8.32891e-54
1.09866e-52
-5.15364e-54
5.61185e-57
3.9185e-56
-3.99223e-57
3.76692e-60
1.85055e-59
4.67327e-62
2.51629e-63
6.00076e-63
-1.18719e-64
1.6748e-66
3.78305e-66
2.65508e-67
1.10978e-69
1.16491e-69
-2.33826e-70
7.31853e-73
6.6407e-74
-1.41497e-73
4.79892e-76
8.84627e-76
6.77382e-77
3.13405e-79
-7.29256e-80
6.31401e-80
2.03506e-82
1.17519e-82
1.07924e-83
1.31424e-85
3.38934e-86
1.93672e-86
8.45935e-89
2.16084e-89
2.76041e-89
5.4177e-92
3.85962e-92
5.45859e-93
3.45051e-95
6.52446e-96
2.20808e-95
2.19011e-98
-5.89124e-99
8.10722e-99
1.37857e-101
2.10079e-102
6.48143e-103
8.60346e-105
-1.60638e-105
-7.74143e-105
5.35106e-108
1.81193e-108
-3.42788e-109
3.30987e-111
-2.9644e-111
5.33064e-111
2.03084e-114
1.06344e-114
2.61621e-114
1.23688e-117
-5.69232e-118
-1.21095e-117
7.47343e-121
9.72788e-122
-2.29904e-121
4.47332e-124
-8.16671e-124
1.76007e-123
2.64679e-127
7.77418e-127
-6.00453e-127
1.54728e-130
1.28944e-130
3.31495e-131
8.94166e-134
3.69418e-133
1.59283e-133
5.10136e-137
6.21556e-137
7.12444e-137
2.82244e-140
1.18834e-140
-1.72362e-139
1.49823e-143
7.48769e-144
-4.05675e-143
7.54283e-147
2.23623e-146
5.17574e-146
3.24759e-150
8.48624e-150
1.58995e-149
3.54781e-152
1.61405e-152
2.02435e-152
-7.66641e-156
6.2659e-156
3.41968e-08
-4.16911e-09
5.33571e-08
-1.52887e-10
-8.2429e-09
-7.29579e-09
-3.45067e-09
3.83883e-09
-2.60807e-08
-4.2568e-08
-4.43006e-09
5.10025e-10
-1.14485e-12
1.30743e-07
-1.5087e-08
1.14248e-07
5.28927e-10
-1.12806e-09
-6.81686e-10
-3.16683e-09
-3.714e-10
8.23038e-09
1.67072e-08
3.67936e-09
1.29299e-08
-2.58892e-07
2.20373e-08
-1.84827e-07
-5.71159e-08
-5.38624e-09
3.0848e-09
-6.95011e-09
1.09116e-08