/*--------------------------------*- C++ -*----------------------------------*\
| =========                 |                                                 |
| \\      /  F ield         | OpenFOAM: The Open Source CFD Toolbox           |
|  \\    /   O peration     | Version:  5.0                                   |
|   \\  /    A nd           | Web:      www.OpenFOAM.org                      |
|    \\/     M anipulation  |                                                 |
\*---------------------------------------------------------------------------*/
FoamFile
{
    version     2.0;
    format      ascii;
    class       volScalarField;
    location    "0.8";
    object      p_rgh;
}
// * * * * * * * * * * * * * * * * * * * * * * * * * * * * * * * * * * * * * //

dimensions      [1 -1 -2 0 0 0 0];

internalField   nonuniform List<scalar> 
9585
(
112
93.2767
87.416
86.5188
84.7008
91.0222
91.475
88.9104
86.7417
84.4429
82.1018
79.7307
77.3558
75.0098
72.6652
70.3435
68.0323
65.7536
63.4941
61.2552
59.0246
56.8133
54.6292
52.4365
50.2681
48.12
45.9753
43.8272
41.6971
39.5956
37.4889
35.4062
33.3527
31.2889
29.221
27.1856
25.2015
23.256
21.3184
19.3737
17.4576
15.587
13.7189
11.8224
9.95514
8.13487
6.31669
4.49439
2.69047
0.899985
104.411
97.8524
92.9056
93.7511
119.442
97.2167
92.1098
89.3303
86.9945
84.6107
82.2097
79.7986
77.4198
75.044
72.6801
70.3567
68.0364
65.7688
63.5117
61.2599
59.0308
56.8145
54.6185
52.4368
50.2593
48.1031
45.9629
43.8303
41.711
39.5992
37.5042
35.4215
33.3509
31.2843
29.2243
27.1925
25.1996
23.2408
21.2995
19.3725
17.4629
15.591
13.7267
11.8422
9.96365
8.12718
6.30895
4.49314
2.69415
0.900312
105.699
93.2209
97.7339
99.3496
93.2273
100.299
93.5542
89.9958
87.3879
84.8182
82.3405
79.8643
77.4455
75.0671
72.701
70.3571
68.0588
65.7984
63.5403
61.2631
59.035
56.8198
54.6145
52.4341
50.2582
48.0981
45.9534
43.8357
41.7161
39.6018
37.509
35.4194
33.3311
31.2736
29.2364
27.2084
25.1982
23.231
21.2961
19.3739
17.4691
15.586
13.71
11.8425
9.97346
8.1235
6.29977
4.49378
2.69721
0.900398
102.787
111.066
103.32
99.9665
115.678
99.9849
96.095
90.4964
87.6339
84.9849
82.431
79.946
77.4822
75.0804
72.7156
70.3718
68.0632
65.7912
63.518
61.2672
59.0453
56.821
54.6197
52.4375
50.2788
48.1117
45.9539
43.8423
41.713
39.5919
37.5097
35.4154
33.3258
31.2681
29.2436
27.2254
25.2058
23.2278
21.2973
19.3814
17.4789
15.576
13.6932
11.8305
9.97916
8.12512
6.29936
4.5008
2.70298
0.895432
108.64
100.599
92.9426
97.3984
86.3504
93.5903
97.0205
90.4396
87.5767
84.9637
82.4231
79.9264
77.4862
75.0813
72.7282
70.384
68.0786
65.786
63.4993
61.2706
59.0503
56.8221
54.6241
52.4397
50.2832
48.1253
45.9634
43.8371
41.6998
39.5844
37.5045
35.4085
33.3233
31.2663
29.2442
27.2344
25.216
23.2326
21.3016
19.3895
17.4759
15.5633
13.6727
11.82
9.9768
8.12777
6.31134
4.51545
2.71093
0.89337
100.404
103.694
108.425
107.937
113.019
98.0336
96.407
91.0048
87.2241
84.8244
82.3485
79.8877
77.4683
75.0738
72.7261
70.3853
68.0836
65.7858
63.4922
61.2589
59.048
56.8154
54.6244
52.4495
50.2881
48.1374
45.9738
43.832
41.6938
39.5774
37.4987
35.4019
33.3154
31.2677
29.2466
27.2355
25.2255
23.2421
21.3044
19.3903
17.4699
15.5499
13.6596
11.8098
9.97203
8.13237
6.32556
4.54054
2.72083
0.896288
138.26
88.0864
112.803
100.792
90.8041
102.688
95.2718
89.7177
87.204
84.7112
82.2814
79.8439
77.4534
75.0675
72.7122
70.3777
68.0777
65.7914
63.4935
61.2447
59.0266
56.813
54.6216
52.457
50.2935
48.1385
45.9802
43.8292
41.6956
39.5875
37.4936
35.389
33.3085
31.274
29.2504
27.2305
25.2314
23.2562
21.3059
19.3819
17.4622
15.5405
13.6551
11.8076
9.9675
8.13382
6.332
4.54
2.72651
0.905411
105.511
132.329
102.16
96.3886
100.039
93.8136
94.1941
89.5177
87.0759
84.6089
82.1951
79.7855
77.4142
75.041
72.6745
70.3704
68.0633
65.7765
63.5073
61.238
59.0193
56.8085
54.6192
52.4571
50.2889
48.1408
45.9811
43.8249
41.7043
39.5909
37.4858
35.3854
33.3137
31.2808
29.248
27.219
25.2304
23.267
21.3118
19.3764
17.4574
15.5531
13.6674
11.8116
9.96583
8.13579
6.33034
4.52877
2.72414
0.909981
107.107
103.807
134.604
91.9473
99.3613
101.176
92.6555
89.1644
86.8699
84.492
82.1231
79.7468
77.3795
75.016
72.6722
70.3613
68.0357
65.7535
63.4929
61.2444
59.0111
56.799
54.6233
52.4539
50.2997
48.1419
45.9784
43.8242
41.6989
39.5902
37.4746
35.383
33.3252
31.2841
29.2397
27.2086
25.2258
23.2705
21.3158
19.3746
17.4557
15.5604
13.683
11.812
9.96172
8.13688
6.32295
4.51724
2.71201
0.91104
104.739
102.355
105.495
109.132
86.6725
91.5417
91.4329
88.8112
86.6943
84.3968
82.073
79.7096
77.3386
74.9995
72.6613
70.3399
68.0305
65.7498
63.4878
61.2482
59.0144
56.8051
54.628
52.4423
50.2823
48.1357
45.978
43.8254
41.6954
39.5914
37.4781
35.3911
33.3453
31.2909
29.2291
27.1945
25.2166
23.2663
21.3186
19.3731
17.4559
15.5755
13.6975
11.813
9.95458
8.13848
6.3226
4.50553
2.7001
0.900351
103.403
96.9546
88.9107
96.3324
84.2549
90.812
91.4786
88.9111
86.7415
84.4429
82.1019
79.7307
77.3556
75.0098
72.6652
70.3429
68.0323
65.7537
63.4942
61.2549
59.0246
56.8133
54.6293
52.4363
50.2681
48.12
45.9752
43.8272
41.6968
39.5956
37.4889
35.4062
33.3527
31.2889
29.221
27.1856
25.2015
23.256
21.3184
19.3737
17.4575
15.5871
13.719
11.8225
9.9551
8.13491
6.31662
4.49437
2.69049
0.90007
108.167
99.6288
92.6004
97.9813
118.26
97.228
92.112
89.3304
86.9944
84.6107
82.2097
79.7985
77.4198
75.0439
72.6801
70.3566
68.0364
65.7688
63.5116
61.2598
59.0309
56.8145
54.6184
52.4365
50.2593
48.103
45.9627
43.8302
41.711
39.5992
37.5047
35.4216
33.3509
31.2842
29.2243
27.1924
25.1996
23.2409
21.2993
19.3725
17.4629
15.591
13.7266
11.842
9.96371
8.12718
6.30889
4.49309
2.69415
0.90026
103.866
90.6682
100.853
103.465
87.7062
97.7663
93.5502
89.9968
87.3882
84.8182
82.3405
79.8643
77.4455
75.0671
72.701
70.3571
68.0588
65.7984
63.5404
61.263
59.0348
56.8197
54.6144
52.434
50.2581
48.0981
45.9534
43.8356
41.716
39.6019
37.5087
35.4193
33.3311
31.2736
29.2365
27.2084
25.1981
23.231
21.2961
19.3737
17.4692
15.5861
13.7099
11.8424
9.9735
8.12345
6.2997
4.4939
2.69722
0.900389
102.59
109.546
104.119
89.866
104.369
99.9426
95.923
90.4979
87.6338
84.9846
82.431
79.9464
77.4822
75.0804
72.7156
70.3718
68.0632
65.7911
63.5179
61.2671
59.0454
56.821
54.6197
52.4376
50.2788
48.1115
45.954
43.8424
41.7132
39.5917
37.5096
35.4154
33.3258
31.268
29.2436
27.2253
25.2055
23.2278
21.2973
19.3815
17.4789
15.576
13.693
11.8306
9.97922
8.12511
6.2993
4.50079
2.70298
0.8953
124.659
106.116
105.5
104.318
93.2155
93.5751
97.0673
90.4397
87.5766
84.9638
82.4231
79.9264
77.4858
75.0813
72.7282
70.384
68.0786
65.7859
63.4993
61.2707
59.0504
56.8216
54.6241
52.4398
50.2828
48.1253
45.9636
43.8371
41.6996
39.5842
37.5046
35.4085
33.323
31.2663
29.2442
27.2343
25.2159
23.2326
21.3017
19.3899
17.4759
15.563
13.6727
11.82
9.97681
8.12775
6.31129
4.51535
2.71092
0.893418
102.129
116.536
135.478
100.199
110.14
97.3353
96.4394
91.0018
87.224
84.8247
82.3483
79.8876
77.4685
75.0737
72.726
70.3852
68.0836
65.7859
63.4921
61.2588
59.0479
56.8154
54.6243
52.4496
50.2883
48.1374
45.9737
43.8319
41.6938
39.5775
37.4987
35.4016
33.3153
31.2677
29.2466
27.2355
25.2256
23.2421
21.3044
19.3903
17.4698
15.5494
13.6596
11.8098
9.97192
8.13235
6.32552
4.54056
2.72035
0.896254
131.681
94.4553
106.22
103.883
100.269
102.909
95.3348
89.7176
87.2039
84.7112
82.2814
79.8439
77.4534
75.0675
72.7122
70.3776
68.0777
65.7913
63.4935
61.2447
59.0266
56.8129
54.6216
52.457
50.2934
48.1385
45.9801
43.8292
41.6957
39.5874
37.4937
35.3889
33.3084
31.2741
29.2503
27.2302
25.2313
23.2561
21.3059
19.382
17.4622
15.5403
13.6551
11.8076
9.96738
8.1338
6.3321
4.54009
2.72653
0.90553
106.185
111.866
100.068
94.8097
100.747
94.2474
93.9779
89.5183
87.0761
84.6089
82.1951
79.7854
77.4142
75.0409
72.6745
70.3704
68.0636
65.7763
63.5073
61.238
59.0193
56.8085
54.6192
52.4571
50.2888
48.1408
45.9811
43.8248
41.7042
39.591
37.4857
35.3853
33.3137
31.2807
29.248
27.219
25.2304
23.267
21.3118
19.3764
17.4573
15.5531
13.6674
11.8116
9.96574
8.13577
6.33033
4.52875
2.72415
0.909964
109.552
255.15
185.785
103.074
99.3686
100.024
92.649
89.165
86.8699
84.492
82.1231
79.7467
77.3795
75.016
72.6721
70.3615
68.0358
65.7534
63.493
61.2445
59.0111
56.799
54.6234
52.4539
50.2997
48.1419
45.9782
43.8242
41.6988
39.5904
37.4747
35.3829
33.325
31.2841
29.2396
27.2087
25.2259
23.2704
21.3157
19.3745
17.4557
15.5604
13.683
11.8119
9.96169
8.13684
6.3229
4.5172
2.71203
0.911035
103.557
111.092
101.459
93.5272
96.2268
91.5317
91.4346
88.8118
86.6941
84.3967
82.0731
79.7095
77.3385
74.9995
72.6613
70.3402
68.0305
65.7498
63.4879
61.2481
59.0143
56.8051
54.628
52.4423
50.2824
48.1357
45.978
43.8254
41.6954
39.5914
37.478
35.3911
33.3453
31.2909
29.2289
27.1946
25.2166
23.2663
21.3186
19.373
17.4559
15.5754
13.6975
11.8128
9.95455
8.13857
6.32247
4.50553
2.70021
0.900343
102.117
100.961
82.524
97.6267
86.9885
91.5293
91.4777
88.9108
86.7416
84.4428
82.102
79.7307
77.3553
75.0098
72.6651
70.3426
68.0322
65.7537
63.4942
61.2547
59.0245
56.8132
54.6292
52.4361
50.2681
48.12
45.9751
43.8272
41.6967
39.5955
37.4889
35.4062
33.3527
31.2887
29.2209
27.1855
25.2013
23.256
21.3183
19.3734
17.4573
15.5871
13.7191
11.8225
9.95508
8.13509
6.31649
4.4943
2.69044
0.900072
106.344
96.1903
92.457
84.3951
80.7283
97.1513
92.1115
89.3298
86.9944
84.6107
82.2097
79.7985
77.4197
75.0439
72.68
70.3561
68.0363
65.7688
63.5114
61.2597
59.0309
56.8146
54.6183
52.4363
50.2593
48.1029
45.9624
43.8302
41.7111
39.5993
37.5048
35.4215
33.3507
31.2841
29.2243
27.1924
25.1995
23.2413
21.2991
19.3725
17.4629
15.5913
13.7265
11.8416
9.96375
8.12727
6.30873
4.49299
2.69411
0.900063
104.721
98.7752
100.857
104.307
97.9763
98.3631
93.5377
89.9967
87.3887
84.8181
82.3404
79.8642
77.4454
75.067
72.7009
70.357
68.0587
65.798
63.5404
61.2629
59.0346
56.8197
54.6143
52.4338
50.258
48.0979
45.9533
43.8356
41.716
39.6019
37.5086
35.4192
33.3312
31.2737
29.2365
27.2084
25.1979
23.231
21.296
19.3735
17.4692
15.5862
13.7095
11.8421
9.97349
8.12334
6.29962
4.49388
2.69717
0.900074
101.846
108.451
105.475
92.7408
150.541
99.4214
95.9342
90.4981
87.6338
84.9843
82.4309
79.9465
77.4821
75.0803
72.7155
70.3717
68.0631
65.7909
63.5179
61.2669
59.0455
56.821
54.6199
52.4377
50.2787
48.1113
45.9541
43.8423
41.7131
39.5916
37.5095
35.4153
33.3257
31.268
29.2435
27.2252
25.2054
23.2279
21.2974
19.3815
17.4789
15.5758
13.6928
11.8308
9.9792
8.12504
6.29913
4.50075
2.70285
0.894977
98.9262
105.604
121.437
108.956
91.0836
100.069
97.0601
90.4388
87.5764
84.964
82.4231
79.9262
77.4856
75.0812
72.7283
70.384
68.0785
65.7858
63.4991
61.2707
59.0504
56.8215
54.624
52.4398
50.2826
48.1253
45.9636
43.837
41.6995
39.5841
37.5046
35.4084
33.3229
31.2662
29.2441
27.2343
25.2158
23.2325
21.3016
19.3901
17.4756
15.5625
13.6728
11.82
9.97679
8.12768
6.31148
4.51525
2.71069
0.893327
95.9811
86.3479
165.453
99.7405
110.721
97.6687
96.4541
91.0033
87.2237
84.8247
82.3481
79.8875
77.4685
75.0737
72.726
70.3852
68.0835
65.7859
63.492
61.2585
59.048
56.8153
54.6241
52.4496
50.2884
48.1373
45.9736
43.8319
41.6938
39.5782
37.4988
35.4014
33.3151
31.2685
29.2465
27.2354
25.2256
23.2421
21.3044
19.3904
17.4697
15.549
13.6596
11.8098
9.97175
8.13228
6.32551
4.54055
2.71991
0.896229
91.9297
92.4907
98.7549
98.3421
100.371
90.9098
95.3151
89.7165
87.2039
84.7111
82.2813
79.8438
77.4533
75.0674
72.7121
70.3776
68.0777
65.7911
63.4934
61.2448
59.0267
56.8129
54.6215
52.457
50.2932
48.1385
45.98
43.8292
41.696
39.5874
37.4935
35.3887
33.3083
31.2741
29.25
27.2301
25.2313
23.2561
21.3058
19.382
17.4621
15.5402
13.655
11.8075
9.96724
8.13373
6.3322
4.53989
2.7265
0.905488
102.34
105.026
102.466
97.3969
99.5498
95.094
93.9924
89.5179
87.0762
84.6088
82.1952
79.7854
77.4141
75.0409
72.6744
70.3703
68.0638
65.7761
63.5074
61.238
59.0192
56.8085
54.6194
52.457
50.2887
48.1408
45.981
43.8245
41.7039
39.591
37.4857
35.3852
33.3136
31.2807
29.2478
27.2189
25.2304
23.2668
21.3118
19.3764
17.4572
15.5531
13.6673
11.8115
9.96563
8.1357
6.33028
4.52871
2.72413
0.909829
107.084
111.215
121.564
108.603
99.0811
99.7022
92.6502
89.1645
86.8701
84.4919
82.123
79.7467
77.3794
75.0159
72.6721
70.3617
68.0363
65.7532
63.4931
61.2445
59.011
56.7989
54.6233
52.4538
50.2996
48.1418
45.9782
43.8243
41.6988
39.5904
37.4745
35.3828
33.3248
31.2841
29.2394
27.2087
25.2259
23.2702
21.3156
19.3745
17.4558
15.5604
13.6829
11.8117
9.96159
8.13677
6.32276
4.51714
2.71212
0.910949
105.475
116.385
113.954
94.618
92.7682
91.5222
91.4336
88.8115
86.6942
84.3967
82.0731
79.7093
77.3382
74.9994
72.6612
70.3404
68.0304
65.7496
63.4879
61.248
59.0141
56.805
54.6279
52.4422
50.2824
48.1356
45.9777
43.8255
41.6953
39.5911
37.4777
35.3912
33.3452
31.2907
29.2287
27.1947
25.2167
23.2662
21.3186
19.373
17.4558
15.5753
13.6974
11.8127
9.9545
8.13851
6.32229
4.50525
2.70019
0.900274
91.7028
95.3291
92.4405
90.8166
91.6951
95.342
92.4432
92.8115
93.4267
93.0284
97.2323
92.8111
93.5808
92.9874
94.0072
97.9006
96.7935
97.7877
93.9195
97.5569
96.8339
97.7635
98.2453
97.6235
99.5645
97.8209
97.975
97.6152
96.9789
104.219
96.4442
94.5066
96.9862
103.893
96.445
96.4227
93.4749
95.4493
97.3822
96.4196
90.1064
95.4701
95.0727
94.3649
94.7599
100.895
95.0851
94.4579
94.7826
95.7287
102.216
95.204
93.7701
95.7762
99.4099
95.024
95.1207
93.2441
92.8376
100.298
95.0652
93.2025
92.8465
92.1673
89.9117
91.6346
91.5316
92.1703
89.7868
91.6369
91.6868
95.3387
92.4393
92.2013
91.7085
95.3078
92.4399
92.8151
93.5907
92.989
97.112
92.8249
91.9115
92.9351
93.8996
97.3431
96.8314
98.5047
93.9059
98.2685
96.8436
97.8222
99.2956
97.5974
99.2973
97.8281
98.3386
97.5795
96.9861
103.933
96.444
96.1369
96.9787
105.74
96.4498
96.4213
89.87
95.4795
97.6681
96.4276
109.831
95.4956
95.0932
94.4058
94.7904
90.6613
95.0812
94.1822
94.7969
95.7789
99.4093
95.0391
93.4858
95.7776
100.002
95.0321
95.0003
93.1868
92.846
99.9945
95.0098
93.1642
92.8491
92.167
89.6751
91.6383
91.5324
92.1621
90.0781
91.6443
91.7197
95.3228
92.443
91.09
91.7065
95.2593
92.443
92.8342
91.2897
92.9418
97.1977
92.815
93.9963
93.0448
93.9138
97.3522
96.8249
98.9613
94.0272
97.6416
96.793
97.8267
98.6564
97.5682
99.2858
97.7659
99.6377
97.5404
96.9772
107.212
96.4626
110.037
96.9648
114.709
96.4596
96.4378
109.911
95.5015
97.2502
96.4343
100.496
95.5017
95.0788
94.24
94.7911
91.7693
95.0827
94.3926
94.7566
95.7735
100.02
95.0862
94.9872
95.7198
99.5217
95.3442
95.0186
93.1625
92.8498
102.563
95.1255
93.164
92.8416
92.1648
90.1343
91.6447
91.5535
92.1608
89.9675
91.6361
90.8908
104.217
95.9775
84.3808
90.9043
146.968
95.3233
92.724
92.192
92.1791
90.9514
92.1448
92.8031
92.0282
90.3407
91.7972
90.5571
91.4767
90.3476
91.798
90.5644
100.353
79.4235
100.012
118.237
99.797
85.3894
103.27
93.908
95.5018
94.0734
97.206
95.5015
94.1566
93.8809
90.777
92.8122
91.123
92.111
90.7844
92.8162
91.131
103.835
92.6846
104.998
87.7176
106.344
93.7587
104.015
96.4661
94.4643
102.745
101.919
94.4819
100.361
96.755
91.9385
95.1665
92.3171
93.557
91.9476
95.0138
92.3259
111.775
105.286
100.617
116.705
106.157
124.398
96.4287
101.838
98.7864
108.631
100.176
98.7027
100.437
104.922
92.8755
97.2956
92.6606
95.9369
92.8845
97.3006
92.6664
97.3213
74.9113
96.5107
86.1215
97.8691
85.1025
103.24
99.5251
97.6041
96.9398
93.4179
96.2824
94.5628
99.5075
92.5875
96.4751
92.2851
97.0652
92.592
96.5029
92.2847
103.822
90.8866
102.26
110.467
93.8907
91.5565
102.1
97.9229
96.721
88.9125
97.7118
96.6472
90.0855
97.9363
92.9106
95.7666
91.9397
96.4345
91.4596
95.8087
91.9325
95.3886
97.5287
94.8246
92.0589
95.0424
99.0247
94.1026
94.8116
95.2598
95.7081
101.072
95.2735
95.7121
94.7438
91.5622
94.2482
91.9174
95.32
91.5675
94.1192
91.9264
96.4388
113.168
117.488
97.1106
92.9903
117.297
115.001
94.5593
95.3412
99.9798
94.2584
95.3426
101.71
94.6313
91.6606
93.3453
91.5417
93.995
91.6691
93.3322
91.5504
140.469
51.3685
93.3277
98.8762
96.0858
92.5049
93.6195
96.8848
98.0874
101.002
100.488
98.1141
99.2297
96.8621
91.4
92.0629
90.8471
92.6517
91.4085
92.0626
90.855
91.6823
92.6509
91.345
99.6235
91.6673
90.4897
91.3085
92.2178
92.3498
91.4153
91.5466
92.3644
91.4345
92.2277
90.47
91.3148
90.2731
91.4338
90.4769
91.3159
90.2797
90.94
157.474
95.1052
88.8054
91.2888
239.257
94.9889
92.6653
91.767
92.1386
92.0717
92.6769
92.148
93.1689
90.3465
91.799
90.5635
91.4796
90.3464
91.7988
90.5633
99.8053
81.4455
93.4461
95.895
101.653
78.3168
95.1519
93.9491
95.484
94.3374
97.1806
93.9351
95.5029
94.4608
90.7831
92.8166
91.1296
92.1127
90.7823
92.8074
91.1293
107.194
60.6564
112.006
84.3894
99.443
192.598
98.9334
96.3383
94.3105
101.526
99.7621
96.538
94.236
100.971
91.9471
94.9953
92.3243
93.5269
91.9469
94.9709
92.3243
102.301
119.364
93.0244
107.789
100.605
104.89
120.673
101.605
98.9037
102.996
100
101.117
98.6788
103.391
92.8831
97.3276
92.6623
95.9182
92.8832
97.3164
92.6625
96.9698
79.2096
95.452
96.3047
97.5487
133.437
125.795
95.1883
96.4021
105.581
93.6157
102.848
96.4773
105.118
92.5879
96.5082
92.2808
97.0683
92.5878
96.5054
92.2808
92.0154
89.7052
101.846
108.473
81.4944
79.9056
88.0364
97.6532
96.3606
91.0792
97.6497
98.5168
96.3167
91.4185
91.4798
95.8161
91.9288
96.4443
91.5517
95.8241
91.9284
95.1032
94.8642
94.077
95.2019
93.0372
94.9154
93.8901
94.7259
95.0894
95.2501
108.709
94.6921
95.1817
95.4144
91.563
94.0979
91.9255
95.2931
91.5624
94.104
91.9254
101.061
99.1712
117.489
99.7653
94.759
99.5096
94.9223
94.1198
95.3494
98.2089
94.4769
94.2729
95.3251
97.8893
91.6677
93.3231
91.5492
93.9787
91.6675
93.3488
91.5489
123.518
97.3405
93.5745
99.4167
104.942
87.0137
93.8873
97.1939
98.2981
102.448
100.092
97.1142
98.3197
98.9225
91.408
92.0626
90.8543
92.6483
91.4078
92.0626
90.8543
91.9011
91.2303
91.186
91.6593
91.5869
101.6
91.0342
92.2062
92.3843
91.4275
91.5387
92.2246
92.3933
91.4251
90.4761
91.3174
90.2787
91.4346
90.476
91.3173
90.2787
91.0456
113.381
94.6819
88.9944
91.2259
108.422
95.0866
92.6279
92.5385
92.2229
91.1391
92.6208
92.1942
92.3326
90.3473
91.7978
90.564
91.4762
90.3404
91.7972
90.5565
101.216
89.0325
100.703
83.4471
101.294
89.8018
100.059
93.9765
95.4373
95.3825
97.2026
93.9646
95.3697
95.6086
90.7831
92.7991
91.1314
92.1102
90.775
92.8013
91.1241
101.521
175.76
97.7835
91.1305
101.939
160.311
91.3821
96.9374
94.1723
101.438
98.4002
97.102
94.2019
102.045
91.9475
94.9899
92.326
93.5513
91.9386
95.143
92.3172
99.1697
101.556
104.409
82.2893
98.4833
102.007
102.68
99.3192
98.6433
104.528
102.063
99.3218
98.63
103.831
92.885
97.3224
92.6663
96.0976
92.8762
97.3125
92.6606
146.82
129.739
483.035
90.5401
84.0235
120.327
83.2174
96.0068
96.8786
99.9977
132.476
96.151
97.0656
98.0133
92.5916
96.5147
92.2837
97.0187
92.5868
96.4716
92.2837
78.929
89.5007
88.2112
111.814
77.7262
87.7391
88.0916
98.1875
96.2258
112.298
103.173
97.461
96.4687
112.056
91.5714
95.8224
91.9322
96.4129
92.7622
95.7817
91.9399
94.2473
94.9753
93.8373
98.473
96.7354
96.8409
95.8703
94.8863
94.275
95.3221
91.4432
94.7282
94.6911
95.2827
91.5666
94.1259
91.9263
95.2548
91.5608
94.2404
91.9177
90.2002
98.4449
95.4817
100.466
92.2064
96.6567
94.9357
119.201
95.5378
99.3323
93.8949
93.59
95.6223
100.414
91.6688
93.3435
91.5497
94.2005
91.6602
93.3473
91.5407
106.869
98.2872
93.5364
96.453
99.1799
92.6696
93.4864
97.387
98.3772
98.5212
100.382
97.3676
98.3716
98.5889
91.4081
92.0626
90.8552
92.6538
91.3995
92.0626
90.8473
91.4717
96.7805
91.0137
92.7308
91.9354
98.7614
91.1436
92.2205
92.4033
91.4385
91.5403
92.1993
92.4027
91.4433
90.4766
91.3157
90.2797
91.4332
90.4694
91.3146
90.2733
92.4231
91.8075
92.1615
91.7081
92.1672
92.4266
91.807
94.3458
94.5811
93.9878
95.3345
94.5768
94.0016
94.3621
92.5839
92.445
93.2892
92.448
92.4521
93.2286
92.6041
92.6898
90.9132
91.7719
92.1282
92.1269
92.6647
91.9404
92.4194
91.7019
91.7914
92.163
92.1634
92.4131
91.8032
94.3433
95.3389
94.5335
94.0108
94.5566
94.0138
94.3427
92.5636
92.4441
92.4497
93.1971
92.4495
93.2081
92.5539
92.9697
93.5399
92.2185
92.8161
93.4942
92.2396
93.0207
94.0872
93.2732
92.4988
95.1546
95.3177
92.5085
94.1595
93.3913
92.2379
94.5531
93.0274
92.286
94.5974
93.3844
93.9266
97.2449
95.4675
93.8618
95.4788
94.1708
93.9309
92.9213
92.8088
93.4764
92.2349
93.4779
92.2407
92.9013
94.0526
93.7672
94.5075
92.4812
98.0698
92.4804
94.2018
93.2502
93.0317
92.2506
94.7363
92.2791
94.7148
93.3616
97.3315
96.5184
95.984
93.9625
96.5584
95.92
97.308
96.8387
102.012
96.9648
97.8418
99.8385
96.9516
97.0663
97.3874
96.7738
97.2894
96.8155
96.7929
97.2907
97.3651
96.6306
97.9537
94.3847
100.757
94.4425
100.497
96.6134
97.34
93.974
96.5659
95.8561
96.5913
95.8716
97.3248
97.0078
97.6876
99.9564
96.9457
99.8617
96.9463
96.9538
97.392
96.834
96.7803
97.2832
96.8026
97.2855
97.3879
98.181
98.0317
97.8907
97.7932
98.0347
97.8865
98.2062
98.2592
100.729
98.0221
97.8381
100.634
98.0198
98.3691
97.9509
97.7868
97.5606
97.6446
97.7976
97.5619
97.9713
102.786
99.8536
98.7427
102.242
98.7244
101.596
102.821
98.2217
97.8124
98.0293
97.8976
98.0314
97.8994
98.2221
98.2679
97.9409
100.27
98.0382
100.695
98.0399
98.6204
97.9669
97.6395
97.798
97.5769
97.7965
97.5712
98.0027
96.5852
97.272
96.6228
96.9908
97.2767
96.6255
96.7061
96.1167
94.4929
98.155
104.955
97.8225
97.8176
95.273
96.3934
96.5705
97.4861
96.448
96.5793
97.4668
96.4143
99.5392
93.3282
96.3485
93.4912
96.5523
93.9477
99.9986
96.5911
96.9903
97.2612
96.605
97.26
96.6173
96.6573
97.7052
103.677
95.3052
97.9089
99.0014
97.8967
95.3821
96.4243
96.4541
96.5706
97.4783
96.5809
97.4852
96.2315
96.0805
96.253
96.2519
96.4254
96.249
96.2571
96.1528
95.6035
94.9645
93.694
90.8623
96.2649
93.6164
96.5752
95.4944
95.671
95.1018
95.46
95.674
95.1101
95.5198
97.8313
99.575
96.3873
89.8551
96.687
89.9801
97.8529
96.1012
96.4315
96.2433
96.2523
96.3001
96.2639
96.0556
95.8438
90.4547
96.7833
93.5907
96.8063
93.5341
96.0741
95.4516
95.4663
95.674
95.0717
95.6709
95.2268
95.5065
95.1955
95.0653
95.0522
95.0703
95.0442
95.0612
95.181
95.0153
95.3016
94.3226
94.3447
94.5796
94.3106
95.3071
95.2738
95.4151
94.9624
94.77
95.4443
94.9647
95.3273
94.6599
101.061
95.1836
95.8745
95.1983
95.6791
94.6788
95.1526
95.0712
95.0694
95.0562
95.0465
95.0601
95.1517
94.9186
94.4703
94.6843
94.2306
94.4709
94.2825
94.8958
95.2813
94.7787
95.4511
94.9717
95.4589
94.9678
95.3119
95.6152
95.6975
94.3822
95.7564
95.7054
94.4047
95.6165
96.9696
92.277
98.148
100.5
90.3108
98.0466
96.7077
96.816
96.071
96.593
95.1121
96.0659
96.6833
96.7937
94.4602
94.0481
95.4781
96.6756
95.5161
96.3106
94.3787
95.6004
95.7716
95.7067
94.4019
95.704
94.4056
95.5851
96.997
99.8643
90.3917
97.9908
90.6804
98.0288
97.1425
96.8246
95.0474
96.0729
96.6747
96.0566
96.7162
96.8201
95.32
96.6879
94.0776
95.1297
96.6203
94.0299
95.2423
95.5054
96.1918
94.0793
93.238
96.2194
94.0963
95.5149
94.2811
93.4925
92.8955
92.8455
93.4987
92.8593
94.3314
96.9301
101.188
98.2566
102.628
98.2013
98.3853
96.9996
95.3672
95.1374
96.7331
94.0141
96.6739
94.014
95.3277
95.494
93.2173
96.2917
94.1018
96.2578
94.0982
95.5
94.2573
92.8437
93.4822
92.8172
93.487
92.8336
94.264
91.6429
91.9534
91.9489
92.1743
91.8989
91.9548
91.6391
91.8843
90.4766
91.604
89.9478
90.5123
91.8616
91.3995
91.5554
91.7102
91.6577
91.6382
91.716
91.5427
91.6376
92.2221
91.541
92.3841
91.4254
92.3772
91.4308
92.2346
91.6359
92.1714
91.8717
91.9557
91.8796
91.9534
91.6285
91.8269
90
90.4581
91.4062
90.4335
91.8248
91.4753
91.5475
91.6352
91.7149
91.6267
91.7142
91.5358
91.6215
92.3999
91.7509
92.1617
91.6905
92.4023
92.1646
91.7042
94.3317
94.531
93.9967
95.3233
94.3384
94.5091
93.9835
92.5413
92.4452
93.1833
92.439
92.5527
92.4441
93.1712
92.6008
91.1889
92.7763
92.1322
92.0775
92.6595
92.026
92.4178
91.6985
91.8406
92.1721
92.169
92.4426
91.7514
94.3261
95.315
94.4341
93.9552
94.4851
93.9759
94.2733
92.5291
92.4397
92.4427
93.1844
92.4425
93.1724
92.536
92.9413
93.4406
92.2233
92.8121
92.9171
93.4195
92.2153
93.9042
97.9689
92.4852
93.2832
93.948
102.605
92.4891
94.0955
92.254
94.6882
92.9988
93.3473
92.3372
94.6272
93.9541
97.1539
95.4728
94.7748
95.5056
95.4065
93.9587
92.9381
92.8131
93.3794
92.1962
93.3771
92.2066
92.9344
94.847
94.8228
88.239
92.4701
134.711
92.4935
93.6822
93.3661
92.9749
91.9508
94.7878
92.2061
94.6705
93.9737
97.2815
96.5709
95.8461
93.8813
97.2999
96.5731
95.8379
96.986
101.751
96.9206
98.3853
97.0594
102.287
96.9141
97.4372
96.7762
97.2797
96.8469
97.4006
96.7785
97.2756
96.1434
98.2477
94.1417
100.929
94.183
101.757
96.8324
97.2738
93.9372
96.5046
95.8278
96.5792
95.8272
97.275
96.756
98.048
100.695
96.9062
100.893
96.9106
97.2635
97.4373
96.858
96.7797
97.282
96.792
97.2736
97.4242
98.2394
98.0263
97.9077
97.8232
98.2421
98.0273
97.9029
98.2972
101.278
98.047
98.2103
98.9506
100.363
98.0932
98.0091
97.8022
97.5802
97.5981
97.9948
97.8082
97.5921
99.7218
99.3323
98.6547
105.699
98.6665
106.27
99.4007
98.2534
97.8241
98.0247
97.8515
98.0249
97.8769
98.2425
98.6468
101.142
101.221
97.909
102.931
97.9505
98.6185
98.0034
97.6
97.7984
97.6048
97.8073
97.6054
97.9972
96.6066
97.2474
96.5916
96.9826
96.6097
97.2527
96.5806
95.1766
94.4809
97.8456
104.008
94.9948
99.8385
97.8112
96.3094
96.5664
97.4845
96.444
96.2432
96.5667
97.495
95.4285
93.1645
96.495
100.291
96.4704
99.9351
96.1851
96.6125
96.9825
97.3908
96.5703
97.2861
96.5723
96.6174
95.2244
104.217
102.058
97.737
101.601
97.8006
95.1708
96.3113
96.4429
96.5819
97.5102
96.5721
97.4954
96.4179
96.0465
96.2531
96.2487
96.4226
96.0705
96.2251
96.2442
96.8857
97.0918
93.7749
113.122
96.9464
96.874
94.9506
95.6154
95.6793
95.0985
95.4844
96.3328
95.6882
95.1326
99.6182
97.8951
96.2788
88.5636
96.3161
88.6259
98.7683
96.042
96.4248
96.1981
96.2384
96.2185
96.2389
96.0828
97.508
111.404
100.147
95.1713
121.335
96.3568
97.4376
95.9137
95.4909
95.7086
95.2293
95.6945
95.1793
95.5609
95.1707
95.0871
95.057
95.0777
95.1732
95.0947
95.0638
94.9018
94.6807
94.3449
94.2325
94.9975
94.6742
94.4043
95.3565
95.4501
94.9769
94.7986
95.3292
95.4604
94.9814
94.7353
113.172
94.308
95.6332
95.4428
95.5679
94.689
95.1748
95.0748
95.0978
95.0537
95.0605
95.0649
95.1815
94.8698
94.2779
94.7047
94.3283
94.6167
94.3088
94.8434
95.3144
94.7999
95.4335
94.9824
95.4546
94.982
95.3087
95.5715
95.7102
94.3938
95.7804
95.5791
95.712
94.3834
97.4347
97.5219
97.9379
99.3481
97.328
94.5241
97.8432
96.9103
96.0859
96.6742
95.0128
96.8441
96.1217
96.719
93.9712
93.8955
95.4542
102.502
95.3187
97.1905
93.15
95.5677
95.7785
95.7129
94.3345
95.7128
94.3663
95.5623
97.4552
99.171
107.153
97.7738
112.357
97.7602
99.1606
96.9608
94.9904
96.1063
96.7853
96.119
96.7851
96.9917
95.1641
96.8331
94.0294
94.9875
95.2248
96.8476
94.0602
95.5431
96.3355
94.1072
93.176
95.5173
96.372
94.1183
94.2774
93.4786
92.8016
92.8485
94.2661
93.4776
92.7941
97.269
99.7939
98.3598
98.8582
98.3376
99.0783
97.3246
95.1481
95.0016
96.8489
94.0588
96.8416
94.0723
95.1323
95.5594
93.1711
96.3821
94.1159
96.3635
94.1239
95.5734
94.2728
92.8501
93.4836
92.7874
93.4792
92.7896
94.2626
91.6413
91.8698
91.9551
92.1644
91.632
91.8743
91.9572
91.752
90.5578
91.2803
89.9877
91.7744
90.6286
91.28
91.5176
91.7115
91.6441
91.643
91.5294
91.7112
91.6554
92.193
91.5377
92.4041
91.4341
92.4055
91.4305
92.1893
91.6468
92.1625
91.8893
91.9565
91.8854
91.9578
91.6449
91.7923
89.9442
90.6114
91.5035
90.6386
91.7807
91.3231
91.5086
91.6452
91.7123
91.6725
91.7113
91.5184
91.6659
92.4365
91.8561
92.1757
91.7212
92.4477
92.1729
91.8223
94.2274
94.388
93.9681
95.3008
94.2424
94.3578
94.0116
92.572
92.4463
93.198
92.4443
92.5553
92.4484
93.186
92.656
91.098
92.3741
92.2229
92.1473
92.7472
92.353
92.4209
91.7184
91.811
92.1622
92.1719
92.4075
91.8121
94.2413
95.2765
94.3038
93.9812
94.3299
94.0063
94.3063
92.5854
92.4497
92.4466
93.2971
92.453
93.193
92.6183
92.995
93.4792
92.1944
92.829
92.9428
93.4887
92.196
93.0783
96.7344
92.4688
98.9507
93.0965
92.1956
92.4834
93.6995
91.9259
94.7987
92.9496
94.5108
92.0376
94.7512
93.9778
97.1501
95.4133
94.2371
95.4001
94.4637
93.9657
93.0332
92.8258
93.588
92.2027
93.5302
92.2047
93.0316
93.0414
96.8958
78.8408
92.5378
77.9767
92.5289
93.0198
93.4979
93.02
92.1348
94.685
92.1222
94.7589
93.3716
97.292
96.4767
95.8503
93.9251
97.2881
96.4932
95.892
97.3007
100.57
96.9049
97.5095
97.2409
100.289
97.008
97.4519
96.7738
97.2722
96.8213
97.4248
96.787
97.2682
96.5828
99.3196
94.2106
106.397
94.2172
103.243
96.6647
97.2948
93.9487
96.4838
95.9953
96.5064
95.9449
97.2804
96.9141
99.1929
97.3693
97.5941
100.714
97.0857
97.2844
97.446
96.8121
96.745
97.2558
96.7431
97.2649
97.3899
98.2928
98.0217
97.8367
97.8132
98.2499
98.0168
97.8367
98.6753
100.055
97.8955
98.7696
98.6653
100.588
97.8858
98.0206
97.8002
97.6258
97.5719
98.0062
97.8105
97.6654
99.3533
99.0792
98.9462
104.424
98.5854
103.616
99.4635
98.341
97.7916
98.0054
97.8705
98.0113
97.8306
98.3176
98.6825
99.8573
101.81
98.2204
99.8675
97.8943
98.7724
98.0265
97.5687
97.8004
97.6941
97.8151
97.6896
98.0303
96.6186
97.2986
96.5705
96.9744
96.6189
97.3093
96.5727
99.8943
130.976
97.6563
152.623
101.643
126.706
97.6107
96.2164
96.5885
97.5434
96.4591
96.6146
96.593
97.5309
96.0497
108.386
97.598
97.6133
97.254
98.7097
96.1391
96.6253
96.9735
97.289
96.5713
97.2931
96.5759
96.63
97.353
111.877
111.987
97.5613
105.294
97.5859
95.9449
96.4162
96.4629
96.5987
97.5463
96.5969
97.5499
96.31
96.0928
96.19
96.2427
96.4336
96.0746
96.1646
96.2372
96.24
99.9678
94.9677
110.066
97.684
100.364
95.2718
95.6834
95.7213
95.2643
95.5049
95.6855
95.7287
95.2743
95.4637
97.2821
96.3745
113.752
96.3823
109.372
95.6459
96.1187
96.4377
96.1718
96.2332
96.1726
96.2393
96.1256
96.278
99.3939
103.628
95.4379
100.483
95.4009
96.1922
96.0191
95.5092
95.7317
95.3079
95.7351
95.288
95.8323
95.2057
95.1074
95.052
95.0597
95.2124
95.0807
95.0597
94.8804
94.1486
94.424
94.4822
94.8607
95.0161
94.4284
95.3452
95.4206
94.9782
94.7826
95.3212
95.4277
94.9766
94.951
91.4535
94.3789
96.6146
94.3871
95.298
94.952
95.2157
95.0725
95.1448
95.0609
95.0503
95.0663
95.2211
94.911
94.2607
97.2179
94.4776
98.3999
94.435
95.9333
95.3479
94.7752
95.4067
94.9735
95.4258
94.9773
95.364
95.5524
95.7157
94.3365
95.7571
95.5564
95.7204
94.4322
100.023
106.692
97.7663
101.249
98.7495
112.373
98.0228
97.0668
96.1237
96.7309
95.1584
97.029
96.204
96.8115
103.658
93.6935
95.413
100.203
95.5522
100.597
110.389
95.5908
95.7409
95.7132
94.5031
95.7194
94.47