/*--------------------------------*- C++ -*----------------------------------*\
| =========                 |                                                 |
| \\      /  F ield         | OpenFOAM: The Open Source CFD Toolbox           |
|  \\    /   O peration     | Version:  5.0                                   |
|   \\  /    A nd           | Web:      www.OpenFOAM.org                      |
|    \\/     M anipulation  |                                                 |
\*---------------------------------------------------------------------------*/
FoamFile
{
    version     2.0;
    format      ascii;
    class       surfaceScalarField;
    location    "0.8";
    object      phi;
}
// * * * * * * * * * * * * * * * * * * * * * * * * * * * * * * * * * * * * * //

dimensions      [0 3 -1 0 0 0 0];

internalField   nonuniform List<scalar> 
28732
(
-1.66089e-09
1.86776e-09
-3.55198e-10
-5.81019e-10
4.77326e-10
1.14845e-09
-7.89545e-10
4.29675e-10
-1.34333e-09
1.0106e-09
2.31142e-10
-1.86025e-09
2.25552e-10
5.49771e-09
-2.80205e-09
3.82142e-09
-1.49894e-09
-1.6153e-09
-6.62828e-10
2.41916e-10
3.34729e-11
-7.83788e-11
-2.02618e-10
-2.02693e-11
1.46866e-10
-2.22405e-11
-1.21841e-11
-2.22317e-11
-3.83318e-11
-4.22324e-11
1.19415e-09
-1.19808e-10
-2.64152e-11
-1.952e-10
-2.01471e-10
-3.29797e-10
-3.43719e-10
1.25535e-09
-7.01115e-11
-3.08771e-13
1.29249e-09
-4.38198e-11
2.44562e-13
1.31551e-09
-2.6825e-11
1.73325e-13
1.32974e-09
-1.66018e-11
3.70692e-13
1.3385e-09
-1.0285e-11
3.69065e-13
1.34404e-09
-6.37627e-12
-1.19447e-13
1.34718e-09
-3.94833e-12
-3.70992e-13
1.34959e-09
-3.02847e-12
1.07064e-13
1.35082e-09
-1.54318e-12
2.84927e-14
1.35164e-09
-8.00651e-13
-9.15729e-14
1.35224e-09
-6.28072e-13
-9.71488e-14
1.35234e-09
-4.56618e-13
3.17465e-14
1.35292e-09
-1.94311e-13
7.94466e-13
1.35324e-09
-6.78544e-13
1.11971e-13
1.35343e-09
6.53887e-13
-9.93303e-13
1.35339e-09
-1.72218e-13
3.21374e-13
1.35348e-09
3.69505e-13
3.91941e-15
1.35356e-09
-1.80806e-12
2.74332e-13
1.3538e-09
4.82194e-13
-4.60421e-13
1.35392e-09
-6.24049e-14
6.96727e-15
1.35326e-09
1.5981e-12
-3.1889e-12
1.35351e-09
1.65545e-13
2.64103e-13
1.35277e-09
-1.05786e-12
3.75955e-12
1.35304e-09
-1.08143e-12
2.85858e-12
1.35308e-09
-3.83615e-13
-1.77042e-13
1.35315e-09
-8.54615e-14
-2.35041e-13
1.35277e-09
2.08303e-15
-1.80527e-13
1.35283e-09
2.19391e-13
-3.641e-14
1.35166e-09
1.03143e-13
-7.00382e-13
1.35143e-09
4.88059e-13
-2.90149e-13
1.35326e-09
-3.36619e-12
9.22037e-13
1.35232e-09
4.73584e-13
1.46983e-13
1.35193e-09
1.10697e-13
6.53748e-14
1.35196e-09
-8.10487e-14
-1.68485e-13
1.35291e-09
2.50716e-12
-7.61922e-14
1.35106e-09
3.55741e-12
-1.79786e-12
1.35124e-09
-5.75852e-13
7.2391e-14
1.35143e-09
-2.36155e-13
-3.06978e-13
1.35143e-09
-6.26751e-14
-1.18829e-14
1.35153e-09
-1.12127e-14
-2.97111e-14
1.35048e-09
1.73542e-12
-8.15402e-13
1.34214e-12
-1.29733e-12
-9.61177e-10
4.0862e-09
6.67921e-09
-9.61326e-09
-1.03434e-09
-2.46465e-11
-1.0641e-09
5.4311e-10
1.57997e-09
1.56819e-09
-1.01657e-09
9.17289e-09
1.79153e-09
-8.55507e-09
-1.69572e-09
-1.25639e-09
-8.85884e-12
-2.06015e-10
1.32781e-10
2.8023e-09
-2.34626e-09
-3.828e-10
1.72466e-09
-6.01967e-11
3.13111e-09
1.82825e-09
-6.62382e-09
1.653e-10
-6.67883e-10
4.70798e-10
2.35146e-10
-2.03362e-10
-2.52556e-11
3.25762e-11
1.65573e-10
-3.87083e-11
-5.91496e-12
-2.66825e-11
-4.71734e-11
-5.44145e-11
1.27476e-09
-1.61913e-10
-3.28966e-11
-2.12188e-10
-2.25077e-10
-3.63875e-10
-3.98603e-10
1.30438e-09
-9.99339e-11
2.30383e-13
1.32225e-09
-6.17206e-11
4.94638e-14
1.33355e-09
-3.81107e-11
-5.4323e-15
1.34062e-09
-2.36743e-11
1.59434e-14
1.34513e-09
-1.47571e-11
-3.63023e-15
1.34805e-09
-9.25844e-12
-4.623e-15
1.34999e-09
-5.83445e-12
-2.48018e-15
1.35101e-09
-3.81457e-12
-1.80401e-13
1.3519e-09
-2.32589e-12
-4.78284e-14
1.35277e-09
-3.03442e-12
1.43136e-12
1.35204e-09
2.53907e-12
-2.36777e-12
1.35264e-09
-1.04866e-12
6.56401e-14
1.35332e-09
-9.10169e-13
9.94486e-14
1.35344e-09
-4.81382e-13
-2.53525e-13
1.35342e-09
-5.07694e-14
7.80514e-13
1.35353e-09
8.1399e-14
-3.26938e-13
1.35379e-09
2.56631e-13
-1.11182e-13
1.35331e-09
-1.65982e-14
-1.29166e-12
1.35333e-09
2.37542e-14
4.45042e-13
1.35328e-09
2.16663e-15
-1.92549e-14
1.35314e-09
-4.94099e-13
2.20203e-12
1.35256e-09
3.99668e-13
3.1376e-13
1.35281e-09
2.30144e-13
-1.59251e-12
1.35305e-09
7.07325e-13
-2.0913e-12
1.35395e-09
-3.53125e-12
2.17543e-12
1.35398e-09
-2.57584e-12
2.36554e-12
1.35285e-09
9.96578e-13
4.20148e-14
1.35282e-09
6.75062e-13
-5.31188e-13
1.35309e-09
-2.94469e-13
1.58858e-14
1.35313e-09
1.5952e-13
1.82948e-13
1.35123e-09
-9.75009e-13
-6.09066e-13
1.35157e-09
3.50936e-13
-3.32997e-13
1.35135e-09
2.17298e-13
-3.80588e-15
1.35065e-09
2.34213e-13
2.64968e-13
1.35136e-09
9.50368e-13
7.40251e-13
1.3526e-09
3.29756e-13
1.88861e-12
1.35188e-09
-4.78688e-14
1.0249e-13
1.35123e-09
1.14104e-13
2.20506e-13
1.3515e-09
-2.66762e-14
-3.69894e-13
1.35089e-09
4.48179e-13
9.10362e-14
1.3514e-09
4.43897e-13
7.4583e-13
-2.0627e-13
1.36416e-12
-8.77589e-10
2.68518e-10
-1.8045e-10
8.14478e-10
-2.98028e-09
-1.72002e-09
-5.55886e-10
-8.17731e-10
6.07391e-09
3.70394e-10
2.61407e-09
1.0541e-09
-5.2761e-09
-1.06742e-09
-2.69e-10
3.44448e-09
-8.70514e-10
-9.58609e-09
6.20535e-09
4.13311e-11
-7.77058e-10
2.57792e-10
1.89685e-09
8.3228e-10
-6.16542e-08
1.11361e-07
-3.63093e-08
-1.22679e-08
6.12808e-10
-7.27535e-10
-1.60376e-10
-5.19569e-10
7.94677e-10
8.39913e-10
-2.79193e-10
1.18538e-10
-4.04744e-10
-2.74522e-10
-2.98674e-11
5.60277e-12
-5.10051e-12
2.72603e-12
2.66388e-11
1.37307e-09
-1.64879e-10
-3.20415e-11
-2.47342e-10
-2.48677e-10
-4.17557e-10
-4.24465e-10
1.36553e-09
-9.18539e-11
-5.30864e-13
1.36078e-09
-5.71501e-11
1.79589e-13
1.35768e-09
-3.4979e-11
-1.6718e-14
1.35571e-09
-2.16454e-11
-3.60618e-14
1.35459e-09
-1.35966e-11
-1.66797e-14
1.3539e-09
-8.51466e-12
-1.76676e-14
1.35348e-09
-5.36126e-12
-1.37571e-14
1.35314e-09
-3.41393e-12
-1.27579e-14
1.35302e-09
-2.18768e-12
4.44509e-14
1.3535e-09
-3.33332e-12
-1.17531e-13
1.35353e-09
3.01205e-13
2.27438e-12
1.35343e-09
-7.62143e-13
-1.16776e-13
1.35343e-09
2.20989e-13
-1.0604e-12
1.35362e-09
-5.75701e-13
-3.33489e-14
1.35346e-09
-7.3605e-13
8.98989e-13
1.35414e-09
-5.32506e-13
-2.59188e-14
1.35272e-09
-1.72447e-12
3.4288e-12
1.353e-09
-7.84542e-13
5.07822e-13
1.35295e-09
-7.81632e-14
1.57281e-13
1.35287e-09
-1.78742e-13
2.57815e-13
1.35323e-09
3.79084e-13
-1.26127e-12
1.35421e-09
1.04779e-12
-1.66099e-12
1.3539e-09
4.53761e-13
3.79474e-14
1.3544e-09
5.85364e-13
-4.48894e-13
1.35291e-09
-3.84304e-14
-2.07755e-12
1.35252e-09
1.07674e-13
-2.37463e-12
1.35298e-09
6.51052e-13
-2.1452e-13
1.35306e-09
-1.82257e-13
6.74866e-13
1.35266e-09
-6.01514e-14
5.69162e-14
1.35246e-09
-1.46857e-13
3.89509e-13
1.35204e-09
-3.68239e-13
-3.00088e-13
1.35201e-09
-3.48711e-13
6.1344e-13
1.35099e-09
8.81455e-13
2.37783e-13
1.35096e-09
1.97539e-13
-4.66892e-14
1.35115e-09
4.92502e-13
1.61564e-13
1.35273e-09
-1.41727e-12
6.57063e-14
1.35206e-09
3.25813e-13
2.06011e-13
1.35183e-09
1.04008e-13
1.58217e-13
1.35097e-09
4.11475e-13
3.54932e-13
1.35072e-09
6.15125e-13
3.66404e-14
1.35075e-09
3.44838e-13
3.5054e-14
-1.67015e-12
7.21368e-13
-5.9391e-09
9.97867e-09
-1.27802e-09
-1.04285e-09
-1.12117e-09
-6.75361e-10
2.24416e-10
3.93598e-10
4.39021e-10
-7.88227e-10
2.96657e-09
-1.19796e-09
4.1513e-09
-2.62601e-09
-1.53406e-11
-1.57974e-09
3.74899e-10
-2.07373e-09
-8.99631e-11
1.75145e-09
-4.97721e-10
4.52495e-10
-1.11152e-10
-3.92967e-10
1.44125e-10
-1.25626e-09
-1.51882e-09
-1.71928e-09
4.89654e-09
-9.70918e-10
-6.87517e-10
5.01705e-10
2.7727e-09
1.64468e-10
-2.06245e-10
-3.23264e-09
-1.69428e-10
-1.62363e-10
4.01225e-10
2.41022e-11
-9.3536e-11
-1.97944e-10
1.921e-11
-2.02495e-11
1.49048e-10
4.99354e-11
1.49217e-09
-7.66731e-11
-4.25142e-11
-2.81998e-10
-2.8062e-10
-4.82423e-10
-4.9282e-10
1.43263e-09
-3.20883e-11
-2.34562e-13
1.4002e-09
-2.43805e-11
-3.35262e-13
1.38137e-09
-1.59752e-11
-1.68272e-13
1.36994e-09
-1.04454e-11
2.47248e-13
1.36332e-09
-6.87639e-12
-8.45477e-14
1.35929e-09
-4.4211e-12
-2.9687e-14
1.35687e-09
-2.88383e-12
-2.807e-14
1.35538e-09
-1.84789e-12
-3.21188e-14
1.35454e-09
-1.17713e-12
-1.06802e-13
1.35338e-09
-7.9042e-13
-1.32792e-12
1.35411e-09
-1.8398e-13
-1.69519e-13
1.35376e-09
-3.79221e-13
3.20051e-14
1.35368e-09
-5.02823e-13
8.67327e-13
1.3535e-09
-3.3751e-13
2.72298e-15
1.35326e-09
1.38412e-12
-1.82488e-12
1.353e-09
2.54823e-13
-4.80793e-13
1.35422e-09
4.66842e-13
-3.37743e-12
1.35382e-09
4.888e-14
-4.15803e-13
1.3537e-09
4.34737e-14
1.84207e-15
1.35374e-09
8.33609e-13
-1.0594e-12
1.35431e-09
1.31894e-12
-1.52899e-12
1.35324e-09
5.48925e-13
1.52733e-12
1.35329e-09
4.29813e-13
-7.66998e-14
1.35303e-09
2.39238e-13
5.3751e-13
1.35289e-09
1.80816e-13
-1.47474e-13
1.35291e-09
8.93486e-15
-9.41401e-15
1.35312e-09
4.5397e-13
-1.14511e-13
1.35277e-09
-1.89645e-14
8.64163e-14
1.35271e-09
-1.67486e-13
5.43412e-14
1.35247e-09
-2.32122e-13
2.11477e-13
1.35192e-09
-4.07329e-13
4.7186e-13
1.35146e-09
-4.83394e-13
4.84951e-13
1.35231e-09
-1.6168e-13
7.09619e-14
1.35199e-09
2.12988e-13
1.92011e-13
1.35198e-09
6.07216e-13
-2.09953e-13
1.3513e-09
-1.39239e-12
5.5857e-13
1.35169e-09
1.12179e-13
-2.69361e-13
1.35194e-09
-8.82947e-14
-1.33289e-13
1.3514e-09
2.3152e-12
-1.43731e-12
1.35027e-09
1.70035e-12
-5.88901e-15
1.35068e-09
-5.37037e-14
-4.97668e-14
-1.86589e-12
4.39865e-13
-4.47732e-10
-3.50848e-10
4.15644e-10
4.07892e-10
7.86135e-10
1.48294e-09
5.18908e-09
-6.28359e-09
-6.64914e-09
-2.89066e-08
-1.92509e-08
5.36323e-08
-4.50005e-09
-2.49849e-09
-4.53145e-09
-4.87294e-09
1.64029e-08
5.04122e-09
-2.1208e-09
1.73757e-10
-7.60337e-10
-6.90659e-10
1.91559e-10
-1.24967e-09
-5.85068e-10
-3.11691e-09
7.24687e-10
-3.15074e-09
3.97663e-09
4.42631e-10
4.91373e-10
9.25146e-10
-2.92852e-10
1.35029e-10
7.84994e-10
-1.72271e-09
-6.58101e-10
1.46077e-09
-9.24343e-11
-1.13428e-12
1.92355e-12
-4.01001e-11
1.31745e-10
1.52193e-09
3.05506e-12
-4.62972e-11
-2.79379e-10
-2.77231e-10
-4.99093e-10
-5.13856e-10
3.78673e-12
1.43166e-12
8.96838e-12
1.45244e-09
3.61727e-11
1.19467e-12
1.41355e-09
1.50426e-11
-5.49671e-13
1.3906e-09
7.06728e-12
-9.4095e-14
1.37611e-09
4.51467e-12
-4.61247e-13
1.36773e-09
1.20762e-12
3.05106e-13
1.36218e-09
1.15023e-12
-9.70188e-16
1.35872e-09
6.98203e-13
-8.70455e-14
1.35655e-09
4.32776e-13
-7.59561e-14
1.35502e-09
3.94333e-13
1.67366e-14
1.35422e-09
1.6231e-13
-9.7729e-14
1.35365e-09
1.71181e-13
2.84826e-13
1.35403e-09
-1.77836e-12
1.0862e-12
1.35355e-09
-4.32163e-14
8.99386e-14
1.35404e-09
7.08585e-13
-1.47176e-12
1.3539e-09
3.00486e-13
1.27694e-12
1.35377e-09
-1.37213e-14
4.40866e-13
1.35395e-09
4.47518e-13
-1.25149e-13
1.35399e-09
-7.70793e-14
1.01749e-13
1.35404e-09
1.94883e-15
-2.38951e-15
1.35383e-09
1.36524e-13
9.01954e-13
1.35303e-09
1.99555e-13
1.89464e-12
1.35304e-09
3.89062e-13
1.04791e-13
1.35359e-09
-1.1869e-13
-5.30008e-14
1.35289e-09
1.45504e-12
-5.71959e-13
1.35309e-09
-1.87156e-13
8.93079e-14
1.35296e-09
-2.23709e-15
4.84431e-14
1.35286e-09
1.8442e-13
2.80837e-13
1.3526e-09
8.5225e-14
4.5678e-14
1.35234e-09
-1.22323e-13
1.0955e-13
1.35206e-09
-2.41744e-14
-4.1371e-14
1.3521e-09
-2.19214e-13
-3.41541e-13
1.35218e-09
-9.58228e-14
-5.91465e-13
1.35189e-09
3.21155e-13
-3.03645e-13
1.35201e-09
5.71144e-13
-5.90484e-13
1.35207e-09
2.93599e-13
1.43482e-13
1.35145e-09
-5.87446e-13
-2.82228e-13
1.35148e-09
-1.24843e-14
7.89716e-15
1.35155e-09
-1.83344e-13
-6.11032e-14
1.35239e-09
-1.06316e-12
2.47612e-12
1.35032e-09
4.10182e-12
-3.88403e-13
1.35055e-09
-7.95762e-13
4.7495e-13
-1.87847e-13
-8.55363e-13
-1.01573e-10
-2.13389e-11
-2.55461e-09
2.70248e-09
5.88758e-10
-1.68724e-09
-1.0299e-08
6.54542e-09
4.85208e-09
-9.61103e-11
1.58299e-09
-2.04485e-09
-2.4122e-09
2.97016e-09
-9.12025e-10
-1.7012e-10
2.03422e-09
9.49766e-10
-1.90184e-09
1.03231e-09
-9.55559e-11
-2.50576e-10
-1.99804e-09
1.31186e-09
4.37631e-10
-1.97739e-09
3.90823e-10
5.65349e-10
5.83584e-10
-1.18812e-10
7.28358e-12
-7.73385e-13
-5.41134e-11
1.66415e-10
-2.47425e-10
2.35502e-10
1.19287e-11
3.04534e-12
1.41694e-09
3.49404e-11
-9.3877e-12
-2.71801e-10
-2.71536e-10
-4.31951e-10
-4.31045e-10
1.39955e-09
3.39439e-11
-1.54741e-12
1.38432e-09
2.20509e-11
2.21211e-13
1.37382e-09
1.47556e-11
2.60312e-13
1.36603e-09
9.44871e-12
-4.42511e-13
1.36119e-09
6.01864e-12
-1.29563e-14
1.35815e-09
3.74721e-12
1.98927e-14
1.35619e-09
2.38913e-12
4.24107e-14
1.35511e-09
1.5354e-12
-4.84713e-15
1.35436e-09
2.27893e-13
7.47633e-13
1.35406e-09
5.27749e-13
1.27837e-14
1.35313e-09
-5.26938e-14
-7.26909e-13
1.35465e-09
-3.58173e-12
2.08414e-12
1.3536e-09
4.96292e-13
1.32183e-12
1.35382e-09
-5.24167e-13
6.61288e-13
1.3535e-09
4.42931e-13
-1.00571e-13
1.3537e-09
1.55346e-13
1.32527e-13
1.35389e-09
5.33342e-13
-7.83089e-13
1.35404e-09
-1.14388e-13
-2.83807e-14
1.354e-09
3.0486e-13
-1.33007e-13
1.35384e-09
5.00717e-13
-1.66966e-13
1.35231e-09
4.62153e-12
-2.7473e-12
1.35269e-09
-5.34104e-13
-1.61016e-14
1.35351e-09
-8.99424e-13
1.475e-12
1.3533e-09
2.0711e-13
-2.58028e-13
1.35299e-09
2.40063e-13
-2.66609e-14
1.35261e-09
-3.83987e-13
8.61597e-13
1.35253e-09
-1.3662e-14
7.46985e-14
1.35249e-09
-4.25435e-14
-1.53822e-13
1.35232e-09
7.16584e-14
-3.69643e-14
1.35214e-09
-6.97052e-13
5.43721e-13
1.35248e-09
-7.83714e-13
2.25362e-13
1.35216e-09
3.21634e-13
2.07516e-13
1.35187e-09
5.4788e-13
2.04383e-13
1.35174e-09
3.66756e-13
-5.45308e-14
1.35083e-09
2.59497e-13
-3.93676e-14
1.35077e-09
2.61404e-14
-6.49163e-14
1.35056e-09
-9.98866e-14
4.83494e-14
1.35027e-09
1.55975e-12
-2.40285e-12
1.35265e-09
1.23325e-12
4.37944e-13
1.35193e-09
-6.89654e-13
5.76387e-13
-8.34333e-13
1.86181e-12
-1.14105e-09
1.47385e-09
1.25812e-09
-1.56596e-09
4.0829e-09
-4.40706e-10
1.33252e-09
-1.94929e-10
-4.58699e-09
2.70658e-11
-2.24246e-09
5.899e-10
1.12745e-09
-1.28832e-09
-7.50577e-08
-6.7245e-08
4.57646e-08
9.81311e-08
1.46048e-09
-6.46205e-10
4.95736e-09
1.59802e-10
1.45746e-09
2.03955e-09
5.60992e-10
2.01922e-08
2.39377e-08
-3.30331e-08
-2.10875e-08
-8.86558e-10
-7.99483e-10
4.74122e-10
1.0013e-09
2.1062e-10
-1.63913e-09
3.36807e-09
-5.52877e-09
1.02211e-08
-1.04703e-09
-1.5441e-09
-1.43423e-09
-1.30001e-09
7.07801e-10
-1.38138e-09
-4.22337e-10
2.2354e-10
-6.09038e-10
-5.4201e-10
-4.94583e-10
1.42209e-09
-7.3734e-11
-1.60728e-11
1.13615e-11
-2.56429e-11
1.04088e-10
1.44157e-09
1.36372e-10
-3.22799e-11
-2.59379e-10
-2.68517e-10
-4.49264e-10
-4.52211e-10
-2.53213e-11
-2.19589e-11
-3.75272e-11
-3.14927e-11
1.40153e-09
7.64148e-11
-1.49523e-12
1.38321e-09
5.2203e-11
1.64951e-14
1.37173e-09
3.36512e-11
-1.36392e-13
1.3647e-09
2.18036e-11
-2.08288e-14
1.36032e-09
1.3881e-11
-4.04788e-14
1.35755e-09
8.83842e-12
-3.25898e-14
1.35577e-09
5.57363e-12
-1.68308e-14
1.3547e-09
3.5398e-12
-3.09387e-14
1.35408e-09
2.22635e-12
-1.79458e-14
1.35381e-09
1.19005e-12
-6.35157e-13
1.3542e-09
6.20775e-15
1.9888e-13
1.35436e-09
8.03936e-13
-9.43668e-13
1.35293e-09
4.70686e-14
-2.13375e-12
1.35342e-09
4.90109e-14
2.33405e-14
1.35353e-09
3.55079e-13
-9.33827e-13
1.35378e-09
1.77702e-13
5.98803e-14
1.35343e-09
6.39469e-13
-1.09348e-13
1.35337e-09
-1.38081e-13
7.52472e-13
1.35343e-09
-1.55932e-13
-1.24881e-14
1.3538e-09
-2.37407e-13
1.64802e-13
1.35218e-09
4.46827e-12
-2.37057e-12
1.35347e-09
8.48887e-13
2.44098e-12
1.3539e-09
-1.24939e-12
2.38415e-13
1.35331e-09
-7.95652e-14
-2.9474e-13
1.35318e-09
-3.61118e-14
2.98646e-13
1.35293e-09
2.6361e-13
1.32627e-13
1.35313e-09
1.16751e-13
-7.95333e-13
1.35286e-09
1.90758e-13
-3.48654e-14
1.35259e-09
5.25201e-14
6.90174e-14
1.35252e-09
5.37073e-13
-5.13964e-13
1.35217e-09
-4.72084e-14
-4.09948e-13
1.35231e-09
-1.37354e-12
3.32561e-13
1.35269e-09
-1.87083e-13
1.19631e-14
1.35136e-09
1.66634e-12
1.01896e-13
1.3512e-09
8.73106e-13
-4.63125e-13
1.35089e-09
3.30794e-13
1.42207e-13
1.35082e-09
-2.0829e-13
2.18183e-13
1.35054e-09
4.71402e-14
4.72555e-14
1.35097e-09
-8.11707e-13
1.88261e-12
1.35133e-09
7.31709e-13
8.02321e-14
1.35165e-09
-6.39505e-14
-9.77807e-13
-2.58306e-13
-1.29261e-12
2.03621e-09
3.2471e-09
-4.3792e-10
-7.51294e-10
-2.88816e-11
-6.15525e-10
-8.92732e-10
-6.54221e-10
-5.80528e-10
-1.13124e-09
6.09507e-10
2.69623e-09
1.02879e-09
-5.76474e-10
-3.75805e-09
2.22228e-09
-9.15612e-09
1.61944e-09
3.03766e-09
-3.33958e-10
5.97264e-10
2.11845e-09
-3.55212e-10
2.64993e-10
7.65866e-11
-9.13913e-11
1.5926e-10
2.03314e-10
1.61955e-10
4.83869e-10
-1.0084e-09
-5.30351e-10
-1.11064e-09
-1.79359e-09
1.02425e-09
2.41033e-09
2.86816e-10
-2.51229e-10
4.43388e-10
-5.25613e-10
4.6638e-11
-1.79357e-10
-1.1695e-11
1.41227e-11
1.34813e-10
4.21167e-11
1.37492e-09
1.56567e-10
-3.17475e-11
-2.49647e-10
-2.56274e-10
-4.21436e-10
-4.36029e-10
1.35939e-09
9.31532e-11
-1.27807e-12
1.35368e-09
5.7806e-11
7.14505e-14
1.35183e-09
3.55668e-11
-8.49439e-14
1.35154e-09
2.21419e-11
-3.93933e-14
1.35167e-09
1.37931e-11
-3.17253e-14
1.35196e-09
8.60121e-12
-2.6186e-14
1.35221e-09
5.3761e-12
-1.42614e-14
1.35242e-09
3.38608e-12
-1.08616e-14
1.35276e-09
1.95757e-12
-1.7579e-14
1.35295e-09
7.07323e-13
3.59914e-13
1.35332e-09
-2.04445e-12
1.75334e-12
1.35351e-09
2.39334e-13
4.41988e-13
1.35334e-09
2.42359e-13
3.84544e-14
1.35355e-09
-4.56742e-13
3.52065e-13
1.35368e-09
-2.545e-13
5.42186e-13
1.35421e-09
-3.20285e-13
5.19001e-15
1.3526e-09
-1.91466e-12
4.19974e-12
1.35312e-09
-5.36385e-13
-1.00791e-13
1.35306e-09
1.17461e-14
-1.02496e-13
1.35237e-09
7.67835e-13
-3.22953e-13
1.35379e-09
4.7556e-13
2.54692e-12
1.35389e-09
7.12572e-13
2.58153e-15
1.35382e-09
-3.17006e-12
1.93612e-12
1.3535e-09
5.79553e-13
-4.05945e-13
1.35319e-09
2.23227e-13
-2.12302e-14
1.35299e-09
1.98761e-13
1.76328e-13
1.35297e-09
-4.17408e-14
8.50826e-14
1.3528e-09
-3.22742e-13
5.75676e-13
1.35243e-09
4.63478e-13
-1.43015e-13
1.3525e-09
-2.30637e-13
5.81512e-13
1.35256e-09
-1.9843e-13
-3.13588e-14
1.35189e-09
-3.27366e-13
-4.85701e-13
1.35124e-09
1.03133e-13
2.46138e-13
1.35206e-09
7.32234e-13
2.51343e-16
1.35135e-09
9.83492e-13
4.90378e-13
1.35149e-09
2.22187e-13
-1.33424e-13
1.35107e-09
1.10459e-13
1.5083e-14
1.35048e-09
5.1803e-13
3.89272e-14
1.35107e-09
-1.31911e-12
-1.54227e-13
1.35089e-09
6.03599e-13
2.61865e-13
1.35194e-09
-2.43092e-12
1.27996e-12
-4.21803e-13
-6.23021e-13
2.01855e-09
5.47256e-09
-7.01697e-10
-6.59845e-09
-7.39975e-10
-9.75851e-10
-5.8759e-10
8.37107e-08
-1.26691e-08
1.50815e-07
-2.1314e-07
-2.69826e-09
-1.07621e-09
-7.64615e-10
-1.87729e-09
2.2308e-09
3.98461e-09
1.21504e-08
-1.67705e-11
-1.83491e-08
4.21711e-09
-9.5839e-10
2.04869e-09
-4.12952e-10
-2.29463e-09
7.60561e-11
5.81009e-10
-1.08433e-11
-2.1575e-09
-1.07114e-09
-1.73906e-11
-5.34037e-10
2.7453e-09
1.05293e-09
-1.65861e-09
-1.60558e-09
-8.57292e-11
-2.02392e-09
2.86365e-10
1.86549e-10
1.63674e-09
-5.8935e-11
-7.25403e-12
1.87115e-10
4.57516e-11
5.93087e-11
-3.66824e-11
-9.82628e-11
-5.69796e-11
-1.3324e-11
-8.02407e-12
-1.27101e-11
1.26072e-09
1.06881e-10
-2.44481e-11
-2.29516e-10
-2.17717e-10
-3.79304e-10
-3.60076e-10
1.29224e-09
6.31592e-11
-1.5743e-12
1.31352e-09
3.61271e-11
3.66647e-13
1.32761e-09
2.15263e-11
-5.72998e-14
1.33677e-09
1.29418e-11
4.49674e-14
1.34264e-09
7.90926e-12
4.12341e-14
1.3464e-09
4.88074e-12
-9.04881e-15
1.34876e-09
3.05576e-12
2.46318e-15
1.35085e-09
9.3297e-13
4.20098e-13
1.35179e-09
1.15452e-12
-8.50455e-14
1.35231e-09
7.36902e-13
-4.75423e-13
1.35226e-09
-2.63031e-14
-1.9008e-12
1.35277e-09
3.37296e-14
-2.3812e-13
1.35307e-09
1.49024e-13
-1.3865e-13
1.35261e-09
4.83306e-13
-4.22722e-13
1.35288e-09
-8.64289e-14
-3.79957e-13
1.35234e-09
2.92293e-13
-3.21698e-14
1.35431e-09
3.00924e-13
-4.14652e-12
1.35391e-09
-1.77562e-13
5.8958e-14
1.35347e-09
-2.31101e-13
6.88384e-13
1.35382e-09
2.28594e-14
3.84167e-13
1.35413e-09
-8.12364e-13
9.58648e-13
1.35397e-09
2.21738e-13
6.08836e-13
1.3531e-09
-3.58793e-13
-1.98629e-12
1.35321e-09
-5.50171e-14
4.55532e-13
1.35292e-09
-8.7906e-13
1.31438e-12
1.35259e-09
8.58822e-14
3.63689e-13
1.35252e-09
-4.03884e-14
-3.31386e-14
1.35246e-09
1.02925e-13
-4.69585e-13
1.35266e-09
-2.11974e-13
3.71045e-13
1.35274e-09
-5.39213e-13
1.07627e-13
1.35222e-09
8.97946e-13
-6.93947e-13
1.35214e-09
-3.40813e-13
-2.16486e-14
1.35233e-09
-2.63944e-13
6.46845e-14
1.35164e-09
2.40611e-12
-1.09598e-12
1.35146e-09
1.04019e-12
1.13911e-14
1.35105e-09
4.68038e-13
6.35284e-14
1.35152e-09
-8.41805e-13
3.96286e-13
1.35178e-09
-1.0535e-14
1.88656e-13
1.35059e-09
7.09653e-14
-2.69638e-13
1.3508e-09
4.50786e-13
-1.0679e-13
1.35056e-09
7.94905e-13
-3.02239e-12
-2.59657e-12
1.80584e-13
2.84461e-09
-1.43231e-09
-2.86043e-10
-9.35291e-10
1.78865e-09
-2.76129e-09
-1.75147e-09
4.34122e-09
3.60111e-11
-8.38684e-10
-5.49576e-12
-8.08958e-10
8.41436e-09
-2.10504e-08
2.74714e-10
1.33907e-08
-7.20433e-10
-1.73188e-10
2.3278e-10
-3.68488e-10
5.94619e-11
-1.56677e-09
3.16872e-10
-1.00595e-09
2.1964e-09
7.85338e-10
-1.48138e-09
-4.56427e-10
-1.50568e-09
-6.8438e-10
-4.28516e-09
1.19058e-09
-3.77723e-10
5.07514e-10
8.79613e-11
2.48e-08
-5.97562e-09
2.46479e-08
-3.50891e-08
-7.24506e-11
-7.14796e-10
-1.37771e-09
-1.60898e-10
-2.80361e-10
3.60373e-12
7.4627e-11
3.63028e-10
-1.80897e-11
-3.33394e-11
1.35168e-10
7.18198e-12
-4.75672e-12
-1.97812e-11
-3.10158e-11
-3.53678e-11
1.1725e-09
-2.17422e-11
-1.90931e-10
-1.9178e-10
-3.17075e-10
-3.21837e-10
1.24538e-09
-4.79934e-13
1.28742e-09
5.24853e-13
1.31264e-09
-5.43345e-14
1.32787e-09
-2.44009e-13
1.33734e-09
-3.57842e-13
1.34316e-09
1.13345e-13
1.34712e-09
3.92524e-13
1.3492e-09
-4.85678e-13
1.35078e-09
1.50178e-14
1.35173e-09
2.36845e-14
1.35213e-09
-1.30577e-13
1.35255e-09
1.00902e-13
1.35231e-09
-6.33396e-13
1.35314e-09
4.31711e-14
1.35321e-09
1.16153e-13
1.35347e-09
2.79607e-14
1.35324e-09
1.43551e-13
1.35359e-09
9.71993e-13
1.35371e-09
-6.0691e-13
1.35362e-09
2.89314e-14
1.35395e-09
1.06071e-12
1.3539e-09
-5.08708e-13
1.35348e-09
-2.02608e-12
1.35237e-09
-1.14826e-12
1.35281e-09
-9.81589e-13
1.35276e-09
1.64763e-13
1.35273e-09
3.20517e-13
1.35228e-09
6.00659e-14
1.35288e-09
6.88734e-13
1.35222e-09
-1.24874e-13
1.35267e-09
7.83078e-13
1.35223e-09
1.45537e-13
1.3521e-09
-2.09754e-13
1.35314e-09
1.32328e-12
1.35099e-09
-4.442e-13
1.35144e-09
-1.36282e-13
1.35115e-09
-4.40457e-13
1.35135e-09
-4.64936e-14
1.35126e-09
7.87847e-14
1.35181e-09
-2.77833e-13
1.35096e-09
1.68538e-12
-1.32168e-13
-2.99449e-09
3.15094e-09
-5.33707e-09
-2.35443e-09
7.7517e-09
-3.23231e-08
2.98761e-08
-4.33967e-09
1.17585e-09
1.23712e-09
3.23123e-09
8.10697e-10
-1.70365e-11
-4.4513e-09
-1.26625e-09
5.61828e-09
5.73319e-10
1.1287e-09
-3.14782e-09
-3.38418e-09
7.79738e-09
4.90988e-11
5.97742e-09
-3.03165e-09
8.56399e-09
8.12993e-10
-1.21596e-08
3.67307e-11
7.28135e-11
-3.70915e-11
-7.39842e-10
4.67992e-10
-9.75578e-11
1.63833e-11
4.40199e-10
-6.6009e-11
-9.17904e-12
-1.04794e-10
-1.02298e-10
-1.09747e-10
1.99875e-09
-1.9743e-10
2.65256e-11
-4.63688e-10
-4.81897e-10
-4.63689e-10
-4.81893e-10
2.09692e-09
-1.15218e-10
2.59327e-13
2.15859e-09
-7.18027e-11
-2.59166e-13
2.19629e-09
-4.39674e-11
-1.53507e-13
2.22008e-09
-2.71671e-11
-5.51728e-13
2.2349e-09
-1.68163e-11
-4.52974e-13
2.24384e-09
-1.05277e-11
5.16259e-14
2.24931e-09
-6.53109e-12
-1.84954e-13
2.25302e-09
-4.19537e-12
-1.8864e-13
2.25529e-09
-2.62036e-12
-3.8917e-14
2.25663e-09
-1.63286e-12
1.55152e-13
2.25737e-09
-1.06875e-12
8.92241e-14
2.25778e-09
-7.44001e-13
-7.03278e-14
2.25878e-09
-2.46769e-13
-6.76598e-13
2.25904e-09
-1.14582e-12
7.05716e-13
2.25946e-09
-2.60362e-12
1.06031e-12
2.25947e-09
8.27362e-13
-3.22152e-13
2.25961e-09
7.22109e-13
-2.87544e-14
2.25973e-09
1.01219e-12
3.60956e-14
2.26025e-09
-5.64419e-13
-5.07593e-14
2.26053e-09
-1.08419e-13
-5.68408e-14
2.25914e-09
-1.48302e-12
3.46017e-13
2.25959e-09
-8.44188e-13
1.05621e-12
2.25853e-09
4.88952e-12
-1.19907e-12
2.25876e-09
4.11092e-12
-2.92953e-12
2.25914e-09
-4.56402e-13
-1.12549e-12
2.25949e-09
2.09438e-14
3.41955e-13
2.25889e-09
1.17943e-13
2.08329e-13
2.2588e-09
2.77679e-13
5.85512e-14
2.25706e-09
2.33148e-13
1.17036e-12
2.25675e-09
-1.13263e-12
5.94629e-13
2.25937e-09
-7.32607e-13
-1.82337e-12
2.25833e-09
8.50301e-13
-1.91228e-13
2.25765e-09
2.73579e-13
7.20024e-14
2.25776e-09
-1.43075e-13
-6.38152e-14
2.25924e-09
1.74952e-12
-5.65619e-15
2.25645e-09
3.791e-12
-3.10127e-12
2.25683e-09
-8.85705e-13
-1.28248e-13
2.25689e-09
-1.20052e-12
6.20428e-13
2.25701e-09
-1.28476e-13
-1.74597e-13
2.25709e-09
-7.40579e-15
-2.50085e-13
2.2555e-09
4.01494e-13
1.04012e-13
-7.51896e-13
-4.58197e-13
-6.56455e-09
4.94511e-09
2.25261e-09
2.35166e-09
-2.78511e-09
-4.40567e-10
7.29885e-10
1.18604e-10
9.69898e-10
-5.80882e-10
1.45809e-09
-8.64813e-10
-2.42237e-09
1.44008e-09
-9.27253e-10
1.02223e-09
-1.85287e-09
-5.21432e-10
-2.25906e-10
-5.1848e-09
-7.96941e-10
9.30132e-09
4.95149e-10
-7.39096e-10
-2.25882e-10
-3.44494e-10
-2.75164e-09
1.45609e-10
-1.24419e-08
-5.5764e-09
1.85676e-08
2.05674e-09
2.11656e-08
-2.39696e-09
-2.47787e-09
-1.49769e-10
2.62352e-09
-1.87645e-08
2.0707e-09
7.50726e-10
-1.27998e-09
3.30995e-10
2.71662e-10
-2.14411e-09
-1.15499e-10
6.20546e-12
1.00711e-10
4.92418e-10
-1.06415e-10
-5.12546e-12
-1.2326e-10
-1.23337e-10
-1.257e-10
2.13186e-09
-2.59683e-10
3.34148e-11
-5.10899e-10
-5.57121e-10
-5.10887e-10
-5.56936e-10
2.17862e-09
-1.61519e-10
-1.83984e-13
2.20762e-09
-1.00676e-10
-4.38826e-14
2.22617e-09
-6.24887e-11
-2.03867e-15
2.23804e-09
-3.89256e-11
-4.06508e-14
2.24562e-09
-2.43224e-11
-1.15668e-14
2.25049e-09
-1.52994e-11
-1.15023e-14
2.25371e-09
-9.64305e-12
6.8303e-15
2.2556e-09
-6.25452e-12
1.15854e-13
2.25709e-09
-4.08314e-12
7.40029e-14
2.2582e-09
-2.89387e-12
1.73558e-12
2.25741e-09
-4.35965e-12
1.86223e-12
2.2583e-09
-1.43797e-12
1.90863e-14
2.25936e-09
-1.59444e-12
5.36953e-13
2.25948e-09
-6.92798e-13
-7.04325e-13
2.25962e-09
-1.12772e-12
-7.25314e-13
2.25983e-09
1.0348e-13
2.6855e-13
2.26001e-09
3.36834e-13
1.54504e-13
2.25923e-09
-5.16427e-14
5.73766e-13
2.25932e-09
5.3618e-15
-2.14383e-13
2.25938e-09
-2.87318e-13
6.42949e-14
2.25878e-09
3.25712e-12
-2.00958e-12
2.25802e-09
5.85136e-13
-4.55454e-13
2.25882e-09
4.70357e-13
1.90092e-12
2.25919e-09
1.03202e-12
4.63211e-13
2.26051e-09
-2.63852e-12
2.85114e-12
2.26066e-09
1.132e-12
9.03965e-13
2.259e-09
1.35218e-12
2.43185e-13
2.25882e-09
-1.42111e-13
-1.78517e-13
2.25928e-09
-2.32764e-13
-2.28198e-13
2.25931e-09
-5.82034e-13
-6.52433e-13
2.25652e-09
-7.03682e-13
1.88903e-12
2.25688e-09
6.03305e-13
-7.04132e-13
2.25659e-09
3.26438e-13
-1.97229e-14
2.25565e-09
2.89771e-13
5.33138e-13
2.25682e-09
1.4091e-12
-3.24911e-13
2.25869e-09
2.21703e-13
3.37086e-12
2.25768e-09
1.24714e-13
-7.7149e-14
2.25682e-09
1.95767e-13
-4.80203e-13
2.25707e-09
-1.56294e-12
6.80139e-13
2.25628e-09
6.07251e-13
1.70615e-13
2.25689e-09
6.35462e-13
-1.59228e-13
-3.14081e-13
2.68725e-13
-5.68359e-09
-1.35341e-09
2.38026e-09
2.49944e-08
-3.76134e-09
-1.68442e-09
-1.11589e-09
-5.38818e-10
-5.69195e-09
-1.17784e-08
4.84241e-09
-1.44992e-08
3.46531e-09
-1.14799e-09
-2.8304e-09
-4.55684e-09
1.95691e-08
1.03408e-09
3.33869e-10
1.57378e-09
-1.59086e-09
-1.00731e-09
-3.44175e-10
-7.6078e-10
1.05457e-09
7.92026e-09
6.58221e-08
-3.94549e-09
-1.56242e-10
-1.13782e-09
-8.92844e-10
1.21264e-09
-7.95563e-10
3.53569e-09
-4.90103e-10
-1.12652e-07
8.71824e-09
3.25676e-08
-7.31505e-09
7.73674e-10
-1.04208e-09
2.06926e-09
-6.32977e-10
6.14718e-09
1.68684e-09
1.90737e-10
2.74115e-09
-9.39952e-10
6.63935e-10
-4.34272e-09
-1.41688e-10
-4.35192e-11
2.08787e-11
-1.62128e-11
4.40198e-11
1.36521e-10
2.28764e-09
-2.68834e-10
3.21043e-11
-5.81149e-10
-5.9017e-10
-5.81124e-10
-5.90182e-10
2.27613e-09
-1.5102e-10
4.88749e-13
2.27022e-09
-9.43826e-11
-1.78426e-13
2.26575e-09
-5.80095e-11
6.28195e-15
2.26291e-09
-3.60368e-11
-4.22701e-14
2.26127e-09
-2.26392e-11
2.76863e-15
2.26022e-09
-1.41794e-11
-1.30987e-15
2.25957e-09
-8.9055e-12
-8.17301e-15
2.25907e-09
-5.64055e-12
2.33882e-15
2.25884e-09
-3.62558e-12
-4.55483e-14
2.2598e-09
-2.00412e-12
-1.82561e-12
2.25969e-09
-3.98872e-14
-1.77365e-12
2.25967e-09
-1.3582e-12
-3.17726e-14
2.25952e-09
-1.41509e-12
-9.47472e-13
2.25994e-09
-1.01546e-12
-2.10671e-15
2.2596e-09
1.13336e-12
-9.08787e-13
2.26055e-09
-8.04466e-13
1.01298e-14
2.25839e-09
4.38863e-12
1.60002e-12
2.25878e-09
-1.07823e-12
1.16688e-12
2.25855e-09
-9.15404e-14
4.8219e-13
2.25832e-09
3.91429e-13
-2.24682e-13
2.25943e-09
-4.51835e-13
1.26576e-12
2.26081e-09
-4.20399e-12
1.65148e-12
2.26037e-09
9.7119e-13
-1.58563e-13
2.26149e-09
-2.75369e-12
2.06522e-12
2.25915e-09
1.76168e-13
-2.73807e-12
2.25822e-09
2.42363e-13
-7.64679e-13
2.25895e-09
4.40856e-13
-2.49428e-13
2.25923e-09
-1.98889e-13
2.13177e-13
2.25862e-09
1.87858e-14
1.67225e-13
2.25839e-09
-3.90372e-13
1.67683e-13
2.25775e-09
-5.9276e-13
-2.71107e-14
2.25734e-09
-5.86161e-13
1.95186e-12
2.25594e-09
1.42916e-12
2.78405e-13
2.25609e-09
3.92565e-13
-5.44678e-13
2.2568e-09
9.71442e-13
-3.4343e-13
2.25889e-09
-2.19631e-12
1.86766e-13
2.25801e-09
1.22335e-12
-2.0934e-13
2.25768e-09
7.60632e-13
-2.35142e-13
2.25634e-09
6.25373e-13
-6.18736e-13
2.25586e-09
9.42306e-13
8.70621e-14
2.25594e-09
5.47533e-13
-1.71282e-14
-2.29784e-12
1.3216e-12
1.16428e-08
-6.68098e-09
-8.96468e-09
1.27734e-09
-6.53582e-10
-5.85681e-12
8.88869e-11
3.90372e-09
-1.57113e-09
6.98779e-09
1.48605e-09
-2.56162e-10
9.06731e-10
-7.55362e-09
-8.02001e-10
1.3031e-08
-4.54281e-09
1.23602e-09
8.16057e-10
1.62971e-09
2.7655e-09
3.0481e-09
1.20035e-09
-4.38732e-10
1.03918e-09
-6.97677e-09
9.88109e-09
-6.27413e-08
3.50093e-08
1.77921e-09
2.14586e-09
1.92191e-09
2.00683e-09
-1.75478e-08
1.92841e-09
-4.87467e-09
2.24046e-08
-3.91735e-09
8.27671e-08
4.46288e-10
1.36893e-09
-3.27427e-10
-2.54198e-09
-8.17175e-08
-2.34755e-09
-2.14453e-10
-9.36247e-10
5.90804e-10
-8.7554e-11
2.995e-09
-1.30633e-10
-1.52641e-10
4.23376e-11
-2.27434e-11
8.21335e-11
1.81547e-10
2.4808e-09
-1.35168e-10
4.17385e-11
-6.67709e-10
-6.81987e-10
-6.6782e-10
-6.81228e-10
2.38771e-09
-5.84061e-11
2.24407e-13
2.33563e-09
-4.29695e-11
3.38121e-13
2.30519e-09
-2.77768e-11
5.38396e-14
2.2868e-09
-1.74673e-11
1.06818e-13
2.27591e-09
-1.1774e-11
-1.48521e-14
2.26928e-09
-7.52225e-12
9.38311e-15
2.26528e-09
-4.85316e-12
5.16225e-15
2.26282e-09
-3.10268e-12
7.05828e-15
2.26137e-09
-2.20594e-12
6.02452e-14
2.25951e-09
-1.1882e-12
-1.46978e-13
2.26065e-09