/*--------------------------------*- C++ -*----------------------------------*\
| =========                 |                                                 |
| \\      /  F ield         | OpenFOAM: The Open Source CFD Toolbox           |
|  \\    /   O peration     | Version:  5.0                                   |
|   \\  /    A nd           | Web:      www.OpenFOAM.org                      |
|    \\/     M anipulation  |                                                 |
\*---------------------------------------------------------------------------*/
FoamFile
{
    version     2.0;
    format      ascii;
    class       volScalarField;
    location    "0.8";
    object      rAU;
}
// * * * * * * * * * * * * * * * * * * * * * * * * * * * * * * * * * * * * * //

dimensions      [-1 3 1 0 0 0 0];

internalField   nonuniform List<scalar> 
9585
(
2.52902e-07
6.77017e-07
5.27188e-07
4.8355e-07
6.96817e-07
2.17028e-07
1.29269e-07
3.92422e-07
3.93664e-07
3.94698e-07
3.95731e-07
3.96764e-07
3.97795e-07
3.98827e-07
3.99857e-07
4.00887e-07
4.01916e-07
4.02945e-07
4.03972e-07
4.05e-07
4.06026e-07
4.07051e-07
4.08076e-07
4.091e-07
4.10123e-07
4.11146e-07
4.12168e-07
4.13188e-07
4.14209e-07
4.15228e-07
4.16247e-07
4.17265e-07
4.18282e-07
4.19298e-07
4.20314e-07
4.21329e-07
4.22343e-07
4.23356e-07
4.24369e-07
4.2538e-07
4.26391e-07
4.27401e-07
4.2841e-07
4.29419e-07
4.30426e-07
4.31432e-07
4.32439e-07
4.33443e-07
4.34447e-07
4.36223e-07
7.82787e-07
6.84504e-07
8.76763e-07
6.34639e-07
6.72386e-07
6.93837e-07
1.29269e-07
3.9242e-07
3.93663e-07
3.94697e-07
3.95731e-07
3.96764e-07
3.97795e-07
3.98827e-07
3.99857e-07
4.00887e-07
4.01916e-07
4.02945e-07
4.03972e-07
4.05e-07
4.06026e-07
4.07051e-07
4.08076e-07
4.091e-07
4.10123e-07
4.11146e-07
4.12168e-07
4.13188e-07
4.14209e-07
4.15228e-07
4.16247e-07
4.17265e-07
4.18282e-07
4.19298e-07
4.20314e-07
4.21329e-07
4.22343e-07
4.23356e-07
4.24369e-07
4.2538e-07
4.26391e-07
4.27401e-07
4.2841e-07
4.29419e-07
4.30426e-07
4.31432e-07
4.32439e-07
4.33443e-07
4.34447e-07
4.36223e-07
6.94045e-07
2.16921e-07
8.80642e-07
7.39527e-07
1.15528e-07
6.90003e-07
3.51769e-08
3.92419e-07
3.93662e-07
3.94697e-07
3.95731e-07
3.96763e-07
3.97795e-07
3.98827e-07
3.99857e-07
4.00887e-07
4.01916e-07
4.02945e-07
4.03972e-07
4.04999e-07
4.06026e-07
4.07051e-07
4.08076e-07
4.091e-07
4.10123e-07
4.11146e-07
4.12168e-07
4.13188e-07
4.14209e-07
4.15228e-07
4.16247e-07
4.17265e-07
4.18282e-07
4.19298e-07
4.20314e-07
4.21329e-07
4.22343e-07
4.23356e-07
4.24369e-07
4.2538e-07
4.26391e-07
4.27401e-07
4.2841e-07
4.29419e-07
4.30426e-07
4.31432e-07
4.32439e-07
4.33443e-07
4.34447e-07
4.36223e-07
8.87052e-07
8.87661e-07
8.89112e-07
1.68825e-07
6.69884e-07
6.62614e-07
4.29622e-08
3.92417e-07
3.93662e-07
3.94696e-07
3.95731e-07
3.96763e-07
3.97795e-07
3.98827e-07
3.99857e-07
4.00887e-07
4.01916e-07
4.02945e-07
4.03972e-07
4.05e-07
4.06026e-07
4.07051e-07
4.08076e-07
4.091e-07
4.10123e-07
4.11146e-07
4.12168e-07
4.13188e-07
4.14209e-07
4.15228e-07
4.16247e-07
4.17265e-07
4.18282e-07
4.19298e-07
4.20314e-07
4.21329e-07
4.22343e-07
4.23356e-07
4.24369e-07
4.2538e-07
4.26391e-07
4.27401e-07
4.2841e-07
4.29419e-07
4.30426e-07
4.31432e-07
4.32438e-07
4.33443e-07
4.34447e-07
4.36223e-07
1.68082e-07
8.02675e-07
8.75694e-07
8.58825e-07
8.72734e-07
6.79703e-07
1.18688e-07
3.92284e-07
3.93662e-07
3.94696e-07
3.95731e-07
3.96763e-07
3.97795e-07
3.98827e-07
3.99857e-07
4.00887e-07
4.01916e-07
4.02945e-07
4.03972e-07
4.04999e-07
4.06026e-07
4.07051e-07
4.08076e-07
4.091e-07
4.10123e-07
4.11146e-07
4.12168e-07
4.13188e-07
4.14209e-07
4.15228e-07
4.16247e-07
4.17265e-07
4.18282e-07
4.19298e-07
4.20314e-07
4.21329e-07
4.22343e-07
4.23356e-07
4.24369e-07
4.2538e-07
4.26391e-07
4.27401e-07
4.2841e-07
4.29419e-07
4.30426e-07
4.31432e-07
4.32438e-07
4.33443e-07
4.34447e-07
4.36223e-07
1.70359e-07
8.89179e-07
7.50377e-07
6.83111e-07
4.65951e-07
6.79249e-07
1.87226e-07
1.2987e-07
3.93454e-07
3.94697e-07
3.95731e-07
3.96763e-07
3.97795e-07
3.98827e-07
3.99857e-07
4.00887e-07
4.01916e-07
4.02945e-07
4.03972e-07
4.04999e-07
4.06026e-07
4.07051e-07
4.08076e-07
4.091e-07
4.10123e-07
4.11146e-07
4.12168e-07
4.13188e-07
4.14209e-07
4.15228e-07
4.16247e-07
4.17265e-07
4.18282e-07
4.19298e-07
4.20314e-07
4.21329e-07
4.22343e-07
4.23356e-07
4.24369e-07
4.2538e-07
4.26391e-07
4.27401e-07
4.2841e-07
4.29419e-07
4.30426e-07
4.31432e-07
4.32439e-07
4.33443e-07
4.34447e-07
4.36223e-07
1.98204e-07
7.37473e-07
7.04183e-07
5.90082e-07
8.67212e-07
2.81879e-07
9.37212e-08
3.92287e-07
3.93664e-07
3.94697e-07
3.95731e-07
3.96764e-07
3.97795e-07
3.98827e-07
3.99857e-07
4.00887e-07
4.01916e-07
4.02945e-07
4.03972e-07
4.04999e-07
4.06026e-07
4.07051e-07
4.08076e-07
4.091e-07
4.10123e-07
4.11146e-07
4.12168e-07
4.13188e-07
4.14209e-07
4.15228e-07
4.16247e-07
4.17265e-07
4.18282e-07
4.19298e-07
4.20314e-07
4.21329e-07
4.22343e-07
4.23356e-07
4.24369e-07
4.2538e-07
4.26391e-07
4.27401e-07
4.2841e-07
4.29419e-07
4.30426e-07
4.31432e-07
4.32439e-07
4.33443e-07
4.34447e-07
4.36223e-07
8.81138e-07
3.87592e-07
8.43304e-07
6.86554e-07
6.38128e-07
6.95879e-07
3.86707e-08
3.92421e-07
3.93664e-07
3.94698e-07
3.95731e-07
3.96764e-07
3.97795e-07
3.98827e-07
3.99857e-07
4.00887e-07
4.01916e-07
4.02945e-07
4.03972e-07
4.05e-07
4.06026e-07
4.07051e-07
4.08076e-07
4.091e-07
4.10123e-07
4.11146e-07
4.12168e-07
4.13188e-07
4.14209e-07
4.15228e-07
4.16247e-07
4.17265e-07
4.18282e-07
4.19298e-07
4.20314e-07
4.21329e-07
4.22343e-07
4.23356e-07
4.24369e-07
4.2538e-07
4.26391e-07
4.27401e-07
4.2841e-07
4.29419e-07
4.30426e-07
4.31432e-07
4.32439e-07
4.33443e-07
4.34447e-07
4.36223e-07
8.88673e-07
5.78552e-07
6.13648e-07
8.52174e-07
3.3443e-07
5.43687e-07
1.2922e-07
3.92423e-07
3.93665e-07
3.94698e-07
3.95732e-07
3.96764e-07
3.97796e-07
3.98827e-07
3.99857e-07
4.00887e-07
4.01916e-07
4.02945e-07
4.03972e-07
4.05e-07
4.06026e-07
4.07051e-07
4.08076e-07
4.091e-07
4.10123e-07
4.11146e-07
4.12168e-07
4.13188e-07
4.14209e-07
4.15228e-07
4.16247e-07
4.17265e-07
4.18282e-07
4.19298e-07
4.20314e-07
4.21329e-07
4.22343e-07
4.23356e-07
4.24369e-07
4.2538e-07
4.26391e-07
4.27401e-07
4.2841e-07
4.29419e-07
4.30426e-07
4.31432e-07
4.32439e-07
4.33443e-07
4.34447e-07
4.36223e-07
8.93176e-07
8.70304e-07
8.02115e-07
1.79645e-07
8.42991e-07
6.90295e-07
1.29269e-07
3.92423e-07
3.93665e-07
3.94698e-07
3.95732e-07
3.96764e-07
3.97796e-07
3.98827e-07
3.99857e-07
4.00887e-07
4.01917e-07
4.02945e-07
4.03972e-07
4.05e-07
4.06026e-07
4.07051e-07
4.08076e-07
4.091e-07
4.10123e-07
4.11146e-07
4.12168e-07
4.13188e-07
4.14209e-07
4.15228e-07
4.16247e-07
4.17265e-07
4.18282e-07
4.19298e-07
4.20314e-07
4.21329e-07
4.22343e-07
4.23356e-07
4.24369e-07
4.2538e-07
4.26391e-07
4.27401e-07
4.2841e-07
4.29419e-07
4.30426e-07
4.31432e-07
4.32439e-07
4.33443e-07
4.34447e-07
4.36223e-07
7.98244e-07
6.99428e-07
3.89364e-07
6.89106e-07
7.49172e-07
2.60947e-07
1.83344e-07
5.04902e-07
5.0639e-07
5.0753e-07
5.08668e-07
5.09805e-07
5.10941e-07
5.12074e-07
5.13206e-07
5.14337e-07
5.15466e-07
5.16593e-07
5.17719e-07
5.18843e-07
5.19966e-07
5.21087e-07
5.22206e-07
5.23324e-07
5.2444e-07
5.25554e-07
5.26667e-07
5.27778e-07
5.28887e-07
5.29995e-07
5.31101e-07
5.32205e-07
5.33308e-07
5.3441e-07
5.35509e-07
5.36607e-07
5.37704e-07
5.38798e-07
5.39891e-07
5.40982e-07
5.42071e-07
5.43159e-07
5.44246e-07
5.4533e-07
5.46413e-07
5.47495e-07
5.48573e-07
5.49652e-07
5.50728e-07
5.53043e-07
7.85335e-07
3.70863e-07
9.03374e-07
6.49911e-07
5.37529e-07
7.42037e-07
1.83342e-07
5.04896e-07
5.06387e-07
5.07528e-07
5.08667e-07
5.09804e-07
5.1094e-07
5.12074e-07
5.13206e-07
5.14337e-07
5.15466e-07
5.16593e-07
5.17719e-07
5.18843e-07
5.19966e-07
5.21087e-07
5.22206e-07
5.23324e-07
5.2444e-07
5.25554e-07
5.26667e-07
5.27778e-07
5.28887e-07
5.29995e-07
5.31101e-07
5.32205e-07
5.33308e-07
5.3441e-07
5.35509e-07
5.36607e-07
5.37704e-07
5.38797e-07
5.39891e-07
5.40982e-07
5.42071e-07
5.43159e-07
5.44246e-07
5.4533e-07
5.46413e-07
5.47495e-07
5.48573e-07
5.49652e-07
5.50728e-07
5.53043e-07
8.35312e-07
6.7054e-07
7.00054e-07
7.5066e-07
4.41712e-07
7.22391e-07
5.18336e-08
5.04893e-07
5.06385e-07
5.07527e-07
5.08666e-07
5.09804e-07
5.1094e-07
5.12073e-07
5.13206e-07
5.14337e-07
5.15466e-07
5.16593e-07
5.17719e-07
5.18843e-07
5.19966e-07
5.21087e-07
5.22206e-07
5.23324e-07
5.2444e-07
5.25554e-07
5.26667e-07
5.27778e-07
5.28887e-07
5.29995e-07
5.31101e-07
5.32205e-07
5.33308e-07
5.3441e-07
5.35509e-07
5.36607e-07
5.37704e-07
5.38798e-07
5.39891e-07
5.40982e-07
5.42071e-07
5.43159e-07
5.44246e-07
5.4533e-07
5.46413e-07
5.47495e-07
5.48573e-07
5.49652e-07
5.50728e-07
5.53043e-07
9.06393e-07
6.98362e-07
8.08692e-07
6.0399e-07
6.72527e-07
7.38225e-07
6.35263e-08
5.04888e-07
5.06383e-07
5.07526e-07
5.08665e-07
5.09804e-07
5.1094e-07
5.12073e-07
5.13206e-07
5.14337e-07
5.15466e-07
5.16593e-07
5.17719e-07
5.18843e-07
5.19966e-07
5.21087e-07
5.22206e-07
5.23324e-07
5.2444e-07
5.25554e-07
5.26667e-07
5.27778e-07
5.28887e-07
5.29995e-07
5.31101e-07
5.32205e-07
5.33308e-07
5.3441e-07
5.35509e-07
5.36607e-07
5.37704e-07
5.38798e-07
5.39891e-07
5.40982e-07
5.42071e-07
5.43159e-07
5.44246e-07
5.4533e-07
5.46413e-07
5.47495e-07
5.48573e-07
5.49652e-07
5.50728e-07
5.53043e-07
2.97684e-07
5.01716e-07
8.27623e-07
5.26096e-07
3.82256e-07
6.6852e-07
1.68064e-07
5.04668e-07
5.06383e-07
5.07526e-07
5.08666e-07
5.09804e-07
5.1094e-07
5.12073e-07
5.13206e-07
5.14337e-07
5.15466e-07
5.16593e-07
5.17719e-07
5.18843e-07
5.19966e-07
5.21087e-07
5.22206e-07
5.23324e-07
5.2444e-07
5.25554e-07
5.26667e-07
5.27778e-07
5.28887e-07
5.29995e-07
5.31101e-07
5.32205e-07
5.33308e-07
5.3441e-07
5.35509e-07
5.36607e-07
5.37704e-07
5.38798e-07
5.39891e-07
5.40982e-07
5.42071e-07
5.43159e-07
5.44246e-07
5.4533e-07
5.46413e-07
5.47495e-07
5.48573e-07
5.49652e-07
5.50728e-07
5.53043e-07
6.59128e-07
2.96269e-07
5.48421e-07
5.56964e-07
7.48344e-07
7.49558e-07
2.52685e-07
1.84065e-07
5.06039e-07
5.07527e-07
5.08666e-07
5.09804e-07
5.1094e-07
5.12073e-07
5.13206e-07
5.14337e-07
5.15466e-07
5.16593e-07
5.17719e-07
5.18843e-07
5.19966e-07
5.21087e-07
5.22206e-07
5.23324e-07
5.2444e-07
5.25554e-07
5.26667e-07
5.27778e-07
5.28887e-07
5.29995e-07
5.31102e-07
5.32205e-07
5.33308e-07
5.3441e-07
5.35509e-07
5.36607e-07
5.37704e-07
5.38798e-07
5.39891e-07
5.40982e-07
5.42071e-07
5.43159e-07
5.44246e-07
5.4533e-07
5.46413e-07
5.47495e-07
5.48573e-07
5.49652e-07
5.50728e-07
5.53043e-07
7.17203e-07
5.44145e-07
5.42961e-07
5.15214e-07
9.05551e-07
5.26485e-07
1.34546e-07
5.04675e-07
5.06387e-07
5.07528e-07
5.08667e-07
5.09804e-07
5.1094e-07
5.12074e-07
5.13206e-07
5.14337e-07
5.15466e-07
5.16593e-07
5.17719e-07
5.18843e-07
5.19966e-07
5.21087e-07
5.22206e-07
5.23324e-07
5.2444e-07
5.25554e-07
5.26667e-07
5.27778e-07
5.28887e-07
5.29995e-07
5.31101e-07
5.32205e-07
5.33308e-07
5.3441e-07
5.35509e-07
5.36607e-07
5.37704e-07
5.38798e-07
5.39891e-07
5.40982e-07
5.42071e-07
5.43159e-07
5.44246e-07
5.4533e-07
5.46413e-07
5.47495e-07
5.48573e-07
5.49652e-07
5.50728e-07
5.53043e-07
9.04403e-07
3.96315e-07
8.94054e-07
8.04143e-07
7.42577e-07
7.41114e-07
5.73477e-08
5.04898e-07
5.06388e-07
5.07529e-07
5.08667e-07
5.09805e-07
5.10941e-07
5.12074e-07
5.13206e-07
5.14337e-07
5.15466e-07
5.16593e-07
5.17719e-07
5.18843e-07
5.19966e-07
5.21087e-07
5.22206e-07
5.23324e-07
5.2444e-07
5.25554e-07
5.26667e-07
5.27778e-07
5.28887e-07
5.29995e-07
5.31101e-07
5.32205e-07
5.33308e-07
5.3441e-07
5.35509e-07
5.36607e-07
5.37704e-07
5.38798e-07
5.39891e-07
5.40982e-07
5.42071e-07
5.43159e-07
5.44246e-07
5.4533e-07
5.46413e-07
5.47495e-07
5.48573e-07
5.49652e-07
5.50728e-07
5.53043e-07
8.95717e-07
3.82629e-07
4.46014e-07
7.14208e-07
6.40306e-07
6.69191e-07
1.83246e-07
5.04903e-07
5.06391e-07
5.07531e-07
5.08669e-07
5.09806e-07
5.10941e-07
5.12074e-07
5.13207e-07
5.14337e-07
5.15466e-07
5.16593e-07
5.17719e-07
5.18843e-07
5.19966e-07
5.21087e-07
5.22206e-07
5.23324e-07
5.2444e-07
5.25554e-07
5.26667e-07
5.27778e-07
5.28887e-07
5.29995e-07
5.31101e-07
5.32205e-07
5.33308e-07
5.3441e-07
5.35509e-07
5.36607e-07
5.37704e-07
5.38798e-07
5.39891e-07
5.40982e-07
5.42071e-07
5.43159e-07
5.44246e-07
5.4533e-07
5.46413e-07
5.47495e-07
5.48573e-07
5.49652e-07
5.50728e-07
5.53043e-07
9.15981e-07
4.3299e-07
7.08551e-07
5.421e-07
4.27628e-07
7.55241e-07
1.83346e-07
5.04905e-07
5.06392e-07
5.07532e-07
5.08669e-07
5.09806e-07
5.10941e-07
5.12074e-07
5.13207e-07
5.14337e-07
5.15466e-07
5.16593e-07
5.1772e-07
5.18843e-07
5.19966e-07
5.21087e-07
5.22206e-07
5.23324e-07
5.2444e-07
5.25554e-07
5.26667e-07
5.27778e-07
5.28887e-07
5.29995e-07
5.31101e-07
5.32205e-07
5.33308e-07
5.3441e-07
5.35509e-07
5.36607e-07
5.37704e-07
5.38798e-07
5.39891e-07
5.40982e-07
5.42071e-07
5.43159e-07
5.44246e-07
5.4533e-07
5.46413e-07
5.47495e-07
5.48573e-07
5.49652e-07
5.50728e-07
5.53043e-07
4.61887e-07
6.62222e-07
7.44209e-07
8.83484e-07
7.19957e-07
2.98396e-07
1.83348e-07
3.92422e-07
3.93664e-07
3.94698e-07
3.95731e-07
3.96764e-07
3.97795e-07
3.98827e-07
3.99857e-07
4.00887e-07
4.01916e-07
4.02945e-07
4.03972e-07
4.04999e-07
4.06026e-07
4.07051e-07
4.08076e-07
4.091e-07
4.10123e-07
4.11146e-07
4.12167e-07
4.13188e-07
4.14209e-07
4.15228e-07
4.16247e-07
4.17265e-07
4.18282e-07
4.19298e-07
4.20314e-07
4.21329e-07
4.22343e-07
4.23356e-07
4.24369e-07
4.2538e-07
4.26391e-07
4.27401e-07
4.2841e-07
4.29419e-07
4.30426e-07
4.31432e-07
4.32438e-07
4.33443e-07
4.34447e-07
4.36223e-07
7.33524e-07
7.83597e-07
9.03135e-07
8.00434e-07
7.86097e-07
7.48859e-07
1.83346e-07
3.9242e-07
3.93663e-07
3.94697e-07
3.95731e-07
3.96763e-07
3.97795e-07
3.98827e-07
3.99857e-07
4.00887e-07
4.01916e-07
4.02945e-07
4.03972e-07
4.04999e-07
4.06026e-07
4.07051e-07
4.08076e-07
4.091e-07
4.10123e-07
4.11146e-07
4.12167e-07
4.13188e-07
4.14209e-07
4.15228e-07
4.16247e-07
4.17265e-07
4.18282e-07
4.19298e-07
4.20314e-07
4.21329e-07
4.22343e-07
4.23356e-07
4.24369e-07
4.2538e-07
4.26391e-07
4.27401e-07
4.2841e-07
4.29419e-07
4.30426e-07
4.31432e-07
4.32438e-07
4.33443e-07
4.34447e-07
4.36223e-07
9.09329e-07
7.0308e-07
7.02909e-07
8.39909e-07
3.92861e-07
7.24588e-07
5.18345e-08
3.92419e-07
3.93662e-07
3.94697e-07
3.95731e-07
3.96763e-07
3.97795e-07
3.98827e-07
3.99857e-07
4.00887e-07
4.01916e-07
4.02945e-07
4.03972e-07
4.04999e-07
4.06025e-07
4.07051e-07
4.08076e-07
4.091e-07
4.10123e-07
4.11146e-07
4.12167e-07
4.13188e-07
4.14209e-07
4.15228e-07
4.16247e-07
4.17265e-07
4.18282e-07
4.19298e-07
4.20314e-07
4.21329e-07
4.22343e-07
4.23356e-07
4.24369e-07
4.2538e-07
4.26391e-07
4.27401e-07
4.2841e-07
4.29419e-07
4.30426e-07
4.31432e-07
4.32438e-07
4.33443e-07
4.34447e-07
4.36223e-07
9.16511e-07
8.02593e-07
3.99468e-07
6.94454e-07
1.95292e-07
7.50595e-07
6.34105e-08
3.92417e-07
3.93662e-07
3.94696e-07
3.95731e-07
3.96763e-07
3.97795e-07
3.98827e-07
3.99857e-07
4.00887e-07
4.01916e-07
4.02945e-07
4.03972e-07
4.04999e-07
4.06025e-07
4.07051e-07
4.08076e-07
4.091e-07
4.10123e-07
4.11146e-07
4.12167e-07
4.13188e-07
4.14209e-07
4.15228e-07
4.16247e-07
4.17265e-07
4.18282e-07
4.19298e-07
4.20314e-07
4.21329e-07
4.22343e-07
4.23356e-07
4.24369e-07
4.2538e-07
4.26391e-07
4.27401e-07
4.2841e-07
4.29419e-07
4.30426e-07
4.31432e-07
4.32438e-07
4.33443e-07
4.34447e-07
4.36223e-07
8.00102e-07
7.1494e-07
4.11606e-07
7.23492e-07
7.96902e-07
6.56429e-07
1.68045e-07
3.92284e-07
3.93662e-07
3.94696e-07
3.95731e-07
3.96763e-07
3.97795e-07
3.98827e-07
3.99857e-07
4.00887e-07
4.01916e-07
4.02945e-07
4.03972e-07
4.04999e-07
4.06026e-07
4.07051e-07
4.08076e-07
4.091e-07
4.10123e-07
4.11146e-07
4.12167e-07
4.13188e-07
4.14209e-07
4.15228e-07
4.16247e-07
4.17265e-07
4.18282e-07
4.19298e-07
4.20314e-07
4.21329e-07
4.22343e-07
4.23356e-07
4.24369e-07
4.2538e-07
4.26391e-07
4.27401e-07
4.2841e-07
4.29419e-07
4.30426e-07
4.31432e-07
4.32438e-07
4.33443e-07
4.34447e-07
4.36223e-07
6.73831e-07
7.23571e-07
2.7101e-07
9.20541e-07
7.3179e-07
6.67931e-07
2.52241e-07
1.8407e-07
3.93454e-07
3.94697e-07
3.95731e-07
3.96763e-07
3.97795e-07
3.98827e-07
3.99857e-07
4.00887e-07
4.01916e-07
4.02945e-07
4.03972e-07
4.04999e-07
4.06025e-07
4.07051e-07
4.08076e-07
4.091e-07
4.10123e-07
4.11146e-07
4.12167e-07
4.13188e-07
4.14209e-07
4.15228e-07
4.16247e-07
4.17265e-07
4.18282e-07
4.19298e-07
4.20314e-07
4.21329e-07
4.22343e-07
4.23356e-07
4.24369e-07
4.2538e-07
4.26391e-07
4.27401e-07
4.2841e-07
4.29419e-07
4.30426e-07
4.31432e-07
4.32438e-07
4.33443e-07
4.34447e-07
4.36223e-07
7.61919e-07
8.57241e-07
7.51408e-07
7.62788e-07
8.7873e-07
7.40233e-07
1.34352e-07
3.92287e-07
3.93664e-07
3.94697e-07
3.95731e-07
3.96764e-07
3.97795e-07
3.98827e-07
3.99857e-07
4.00887e-07
4.01916e-07
4.02945e-07
4.03972e-07
4.04999e-07
4.06025e-07
4.07051e-07
4.08076e-07
4.091e-07
4.10123e-07
4.11146e-07
4.12167e-07
4.13188e-07
4.14209e-07
4.15228e-07
4.16247e-07
4.17265e-07
4.18282e-07
4.19298e-07
4.20314e-07
4.21329e-07
4.22343e-07
4.23356e-07
4.24369e-07
4.2538e-07
4.26391e-07
4.27401e-07
4.2841e-07
4.29419e-07
4.30426e-07
4.31432e-07
4.32438e-07
4.33443e-07
4.34447e-07
4.36223e-07
8.8818e-07
2.36467e-07
8.9005e-07
8.81849e-07
8.89084e-07
6.80672e-07
5.71944e-08
3.92421e-07
3.93664e-07
3.94698e-07
3.95731e-07
3.96764e-07
3.97795e-07
3.98827e-07
3.99857e-07
4.00887e-07
4.01916e-07
4.02945e-07
4.03972e-07
4.04999e-07
4.06026e-07
4.07051e-07
4.08076e-07
4.091e-07
4.10123e-07
4.11146e-07
4.12167e-07
4.13188e-07
4.14209e-07
4.15228e-07
4.16247e-07
4.17265e-07
4.18282e-07
4.19298e-07
4.20314e-07
4.21329e-07
4.22343e-07
4.23356e-07
4.24369e-07
4.2538e-07
4.26391e-07
4.27401e-07
4.2841e-07
4.29419e-07
4.30426e-07
4.31432e-07
4.32438e-07
4.33443e-07
4.34447e-07
4.36223e-07
9.22291e-07
8.3701e-07
6.10218e-07
4.18021e-07
6.10906e-07
7.16814e-07
1.83253e-07
3.92422e-07
3.93665e-07
3.94698e-07
3.95732e-07
3.96764e-07
3.97796e-07
3.98827e-07
3.99857e-07
4.00887e-07
4.01916e-07
4.02945e-07
4.03972e-07
4.04999e-07
4.06026e-07
4.07051e-07
4.08076e-07
4.091e-07
4.10123e-07
4.11146e-07
4.12167e-07
4.13188e-07
4.14209e-07
4.15228e-07
4.16247e-07
4.17265e-07
4.18282e-07
4.19298e-07
4.20314e-07
4.21329e-07
4.22343e-07
4.23356e-07
4.24369e-07
4.2538e-07
4.26391e-07
4.27401e-07
4.2841e-07
4.29419e-07
4.30426e-07
4.31432e-07
4.32438e-07
4.33443e-07
4.34447e-07
4.36223e-07
9.07531e-07
3.24252e-07
6.20866e-07
8.80625e-07
7.6475e-07
7.553e-07
1.83349e-07
3.92423e-07
3.93665e-07
3.94698e-07
3.95732e-07
3.96764e-07
3.97796e-07
3.98827e-07
3.99857e-07
4.00887e-07
4.01916e-07
4.02945e-07
4.03972e-07
4.04999e-07
4.06026e-07
4.07051e-07
4.08076e-07
4.091e-07
4.10123e-07
4.11146e-07
4.12167e-07
4.13188e-07
4.14209e-07
4.15228e-07
4.16247e-07
4.17265e-07
4.18282e-07
4.19298e-07
4.20314e-07
4.21329e-07
4.22343e-07
4.23356e-07
4.24369e-07
4.2538e-07
4.26391e-07
4.27401e-07
4.2841e-07
4.29419e-07
4.30426e-07
4.31432e-07
4.32438e-07
4.33443e-07
4.34447e-07
4.36223e-07
3.51426e-08
6.87411e-07
3.51432e-08
2.7167e-07
5.17857e-08
7.48141e-07
5.17868e-08
3.51475e-08
6.85656e-07
3.79102e-08
7.53671e-07
5.17961e-08
7.56969e-07
5.60011e-08
4.29548e-08
6.90899e-07
1.44559e-07
7.36496e-07
6.31943e-08
7.54572e-07
2.00695e-07
2.60333e-07
6.92268e-07
6.95888e-07
7.375e-07
3.44175e-07
7.47452e-07
7.67727e-07
6.95072e-07
6.76279e-07
6.9774e-07
6.96087e-07
7.65998e-07
7.48814e-07
7.72653e-07
6.9798e-07
6.75808e-07
6.9705e-07
7.53719e-07
7.73403e-07
5.55652e-07
7.70848e-07
6.95356e-07
6.70112e-07
2.86354e-07
4.19404e-07
7.6904e-07
6.88312e-07
3.69746e-07
1.55542e-07
6.87226e-07
4.28806e-08
7.39499e-07
2.16979e-07
7.59801e-07
6.3404e-08
3.79441e-08
6.95547e-07
3.51462e-08
7.13019e-07
5.62254e-08
7.616e-07
5.17937e-08
3.51431e-08
1.5628e-07
3.51425e-08
7.5645e-07
5.17875e-08
2.18057e-07
5.17852e-08
5.17853e-08
7.44439e-07
5.17868e-08
2.91089e-07
5.17841e-08
7.49193e-07
5.17873e-08
5.17952e-08
7.46664e-07
5.59736e-08
7.45107e-07
5.17938e-08
6.85164e-07
5.59884e-08
6.32942e-08
7.49329e-07
2.00342e-07
7.00871e-07
6.34797e-08
7.42283e-07
1.99862e-07
3.44153e-07
7.56635e-07
7.69325e-07
7.44733e-07
3.44872e-07
7.3715e-07
7.68912e-07
7.66218e-07
7.4007e-07
7.71821e-07
6.34961e-07
7.65083e-07
7.23376e-07
7.73869e-07
7.73055e-07
3.41113e-07
7.70614e-07
7.52718e-07
7.71822e-07
4.13717e-07
7.72771e-07
7.69274e-07
6.92953e-07
3.69847e-07
5.99985e-07
7.68816e-07
7.01545e-07
3.68646e-07
2.1725e-07
7.47539e-07
6.35451e-08
7.05981e-07
2.17731e-07
6.73609e-07
6.33201e-08
5.62762e-08
7.71941e-07
5.17934e-08
7.09528e-07
5.64478e-08
7.58422e-07
5.17933e-08
5.17876e-08
2.25919e-07
5.17851e-08
7.44161e-07
5.17877e-08
2.35137e-07
5.17854e-08
5.17842e-08
7.50492e-07
5.17873e-08
2.1188e-07
3.51425e-08
6.91244e-07
3.51433e-08
5.17937e-08
6.33625e-07
5.60176e-08
6.87564e-07
3.5147e-08
5.48614e-07
3.79594e-08
6.3294e-08
7.31404e-07
2.00586e-07
6.8755e-07
4.27276e-08
6.78589e-07
1.45359e-07
3.44588e-07
7.48952e-07
7.6948e-07
6.91603e-07
2.59689e-07
6.80394e-07
6.94843e-07
7.65574e-07
7.18465e-07
7.72356e-07
6.747e-07
6.95816e-07
6.68954e-07
6.98057e-07
7.72354e-07
5.08843e-07
7.71799e-07
5.19317e-07
6.98382e-07
5.87032e-07
6.97096e-07
7.68686e-07
7.08229e-07
3.67878e-07
6.75159e-07
6.95105e-07
6.81746e-07
2.83245e-07
2.17892e-07
6.98855e-07
6.34492e-08
6.8017e-07
1.56175e-07
5.02388e-07
4.31702e-08
5.64786e-08
7.55078e-07
5.17932e-08
6.16772e-07
3.8163e-08
6.96673e-07
3.51459e-08
5.17875e-08
2.31644e-07
5.17854e-08
6.8895e-07
3.51431e-08
1.74593e-07
3.51425e-08
6.92427e-07
6.51407e-07
6.89118e-07
6.29689e-07
7.61309e-07
1.52137e-07
7.45729e-07
6.41519e-08
4.12025e-08
3.47182e-07
2.87651e-07
4.35164e-07
4.35811e-08
6.07994e-08
1.29658e-07
1.29269e-07
1.29658e-07
1.83348e-07
1.84018e-07
1.83348e-07
1.84017e-07
6.96103e-07
6.52433e-07
7.7787e-07
5.80123e-07
6.53618e-07
4.52343e-07
4.37841e-07
7.51552e-07
2.15146e-07
5.02806e-07
7.62813e-07
2.89213e-07
5.90005e-07
6.86574e-07
1.29658e-07
1.2922e-07
1.29657e-07
1.83346e-07
1.84016e-07
1.83245e-07
1.84014e-07
8.07581e-07
8.69112e-07
6.66595e-07
2.37754e-07
6.46444e-07
7.44842e-07
7.7549e-07
7.7072e-07
6.98317e-07
6.76883e-07
7.61497e-07
7.66262e-07
7.45745e-07
6.96856e-07
1.29566e-07
3.80293e-08
1.29566e-07
5.18338e-08
1.8383e-07
5.63003e-08
1.83831e-07
3.17813e-07
7.97268e-07
6.78959e-07
7.7226e-07
6.84822e-07
5.55535e-07
6.4758e-07
5.86814e-07
6.90048e-07
2.76854e-07
7.13489e-07
7.56753e-07
4.32653e-07
6.17909e-07
1.29566e-07
9.17444e-08
1.29569e-07
6.34517e-08
1.83829e-07
1.31176e-07
1.83838e-07
8.78044e-07
4.86038e-07
7.53895e-07
7.47357e-07
7.97357e-07
3.62184e-07
4.76872e-07
7.34429e-07
6.90323e-07
6.67161e-07
7.28048e-07
7.68726e-07
7.20081e-07
6.86339e-07
1.29582e-07
1.82215e-07
1.29594e-07
1.68027e-07
1.83865e-07
2.46277e-07
1.83773e-07
6.69815e-07
6.50237e-07
8.73814e-07
6.15747e-07
7.16998e-07
7.54611e-07
8.96376e-07
7.37053e-07
6.94703e-07
4.80895e-07
7.4653e-07
7.66079e-07
5.86619e-07
6.65347e-07
1.17901e-07
1.26159e-07
1.29493e-07
2.52652e-07
5.20111e-08
1.77843e-07
1.83568e-07
8.02016e-07
8.89083e-07
8.72073e-07
9.22284e-07
8.76149e-07
8.88281e-07
9.14592e-07
7.37307e-07
6.62989e-07
6.96808e-07
3.77532e-07
7.32479e-07
7.64674e-07
6.49118e-07
1.29571e-07
4.3515e-08
1.29567e-07
1.34248e-07
1.83843e-07
6.43208e-08
1.83832e-07
6.78754e-07
6.17234e-07
6.84178e-07
6.76276e-07
6.71852e-07
6.78369e-07
4.19345e-07
7.53558e-07
6.98411e-07
5.54312e-07
7.64938e-07
7.68319e-07
6.53215e-07
6.94143e-07
1.29567e-07
3.51797e-08
1.29567e-07
5.7283e-08
1.83834e-07
5.18345e-08
1.83833e-07
1.83226e-07
2.74973e-07
6.2162e-07
4.02567e-07
2.59197e-07
1.71952e-07
6.26197e-07
7.60312e-07
6.96686e-07
6.79687e-07
6.75655e-07
7.64512e-07
7.22004e-07
6.89733e-07
1.29658e-07
1.29269e-07
1.29658e-07
1.83249e-07
1.84017e-07
1.83349e-07
1.84018e-07
6.76902e-07
6.33139e-07
6.91597e-07
3.72451e-07
7.49819e-07
5.87381e-07
7.54566e-07
8.55393e-08
8.1236e-08
6.83494e-07
7.60124e-07
1.16906e-07
7.36389e-07
5.87654e-08
1.29658e-07
1.29269e-07
1.29658e-07
1.8335e-07
1.84018e-07
1.83349e-07
1.84018e-07
7.62327e-07
1.71675e-07
6.7427e-07
6.61204e-07
7.21842e-07
2.55991e-07
7.05659e-07
6.48025e-08
6.23234e-08
4.1902e-07
2.52353e-07
6.47919e-08
4.17746e-07
6.27889e-08
1.84013e-07
1.83344e-07
1.84013e-07
1.83344e-07
1.84013e-07
1.83344e-07
1.84013e-07
6.34045e-07
5.38044e-07
5.68418e-07
5.61327e-07
5.41885e-07
4.778e-07
4.70045e-07
7.3125e-07
2.9149e-07
7.10212e-07
7.41158e-07
7.37125e-07
2.91391e-07
7.50124e-07
1.84011e-07
1.83236e-07
1.84009e-07
1.83342e-07
1.84012e-07
1.83236e-07
1.84009e-07
6.70354e-07
6.62814e-07
6.32734e-07
4.6742e-07
6.10519e-07
5.04989e-07
6.26186e-07
7.11018e-07
7.55306e-07
7.05371e-07
6.95415e-07
7.27387e-07
7.49341e-07
7.32605e-07
1.83825e-07
5.63679e-08
1.83826e-07
5.1835e-08
1.83825e-07
5.63676e-08
1.83826e-07
5.42503e-07
5.84898e-07
3.22419e-07
2.23273e-07
6.38303e-07
6.05489e-07
6.80832e-07
5.15229e-07
7.38295e-07
4.32249e-07
7.37053e-07
5.14609e-07
7.41017e-07
4.04072e-07
1.83823e-07
1.31012e-07
1.83834e-07
6.34894e-08
1.83824e-07
1.31141e-07
1.83834e-07
5.50737e-07
2.15445e-07
4.3204e-07
5.71015e-07
3.47691e-07
2.84321e-07
6.48411e-07
6.69888e-07
7.52591e-07
5.04563e-07
6.4637e-07
5.9293e-07
7.51602e-07
4.85418e-07
1.8386e-07
2.46291e-07
1.83769e-07
1.6807e-07
1.8386e-07
2.46173e-07
1.83769e-07
6.61778e-07
6.06185e-07
7.50745e-07
6.42096e-07
5.38971e-07
7.27563e-07
5.58111e-07
6.6782e-07
7.63269e-07
5.93534e-07
7.53737e-07
7.20372e-07
7.60504e-07
6.1118e-07
5.20096e-08
1.77886e-07
1.83565e-07
2.52263e-07
5.20065e-08
1.77847e-07
1.83566e-07
8.86334e-07
9.22688e-07
8.93037e-07
8.93776e-07
9.1551e-07
9.10525e-07
8.90554e-07
7.66294e-07
7.34825e-07
7.18371e-07
5.46664e-07
7.68883e-07
7.29627e-07
7.03434e-07
1.83839e-07
6.43896e-08
1.83827e-07
1.34071e-07
1.8384e-07
6.44608e-08
1.83827e-07
5.50597e-07
7.08569e-07
3.1925e-07
8.64206e-07
8.61761e-07
5.74157e-07
3.90711e-07
6.0625e-07
7.52053e-07
3.28702e-07
7.48503e-07
6.41627e-07
7.37538e-07
3.30226e-07
1.83828e-07
5.18349e-08
1.83828e-07
5.72967e-08
1.83829e-07
5.18344e-08
1.83828e-07
3.71595e-07
1.15872e-07
5.53688e-07
6.39662e-07
3.42242e-07
1.5448e-07
5.97423e-07
7.40204e-07
7.52202e-07
5.34414e-07
6.62006e-07
7.35963e-07
7.5849e-07
6.21414e-07
1.84012e-07
1.83345e-07
1.84013e-07
1.83248e-07
1.84012e-07
1.83345e-07
1.84013e-07
6.70163e-07
5.03615e-07
7.42004e-07
5.42669e-07
6.84589e-07
4.86994e-07
7.4867e-07
8.57254e-08
1.16543e-07
7.40139e-07
7.43825e-07
8.58051e-08
1.16357e-07
7.38243e-07
1.84014e-07
1.83345e-07
1.84014e-07
1.83346e-07
1.84014e-07
1.83345e-07
1.84014e-07
7.30988e-07
4.97508e-07
6.614e-07
6.65548e-07
6.92923e-07
6.33851e-07
6.65011e-07
6.43697e-08
6.03519e-08
4.42784e-07
2.89797e-07
6.42198e-08
4.37325e-07
6.0605e-08
1.84017e-07
1.83348e-07
1.84017e-07
1.29269e-07
1.29658e-07
1.29269e-07
1.29658e-07
5.61729e-07
7.04672e-07
6.3052e-07
8.83607e-07
6.03368e-07
7.77353e-07
7.86948e-07
7.42656e-07
2.96123e-07
7.50094e-07
7.50107e-07
7.45061e-07
2.91979e-07
7.25822e-07
1.84016e-07
1.83246e-07
1.84014e-07
1.29269e-07
1.29658e-07
1.2922e-07
1.29658e-07
6.14566e-07
5.37963e-07
6.36156e-07
7.91537e-07
8.09629e-07
4.68595e-07
7.04824e-07
7.51863e-07
7.55798e-07
7.44264e-07
7.41146e-07
7.28798e-07
7.58054e-07
7.25017e-07
1.8383e-07
5.62533e-08
1.83831e-07
3.51795e-08
1.29566e-07
3.79494e-08
1.29567e-07
6.02425e-07
8.1151e-07
8.85963e-07
7.63371e-07
8.39415e-07
8.93842e-07
8.81339e-07
7.51316e-07
7.61315e-07
4.38754e-07
7.48765e-07
6.90236e-07
7.66582e-07
5.7252e-07
1.83829e-07
1.30837e-07
1.83838e-07
4.29457e-08
1.29566e-07
9.13888e-08
1.29569e-07
3.41423e-07
6.8382e-07
5.14523e-07
8.72985e-07
7.8042e-07
8.44132e-07
5.76259e-07
7.44527e-07
7.61526e-07
7.11924e-07
7.04989e-07
7.4018e-07
7.59601e-07
7.25855e-07
1.83864e-07
2.46067e-07
1.83772e-07
1.18657e-07
1.29582e-07
1.8159e-07
1.29594e-07
7.52369e-07
7.93322e-07
7.01331e-07
7.17512e-07
8.70705e-07
8.80753e-07
7.05554e-07
6.4368e-07
7.58698e-07
3.42751e-07
5.9146e-07
6.41646e-07
7.56644e-07
3.44126e-07
5.20057e-08
1.7769e-07
1.83569e-07
1.86276e-07
1.17902e-07
1.25805e-07
1.29494e-07
8.86389e-07
8.40923e-07
9.18775e-07
8.74005e-07
8.96682e-07
7.67086e-07
8.84692e-07
7.64187e-07
7.64814e-07
7.21156e-07
7.37127e-07
7.66347e-07
7.63857e-07
7.29713e-07
1.83843e-07
6.44074e-08
1.83832e-07
9.38714e-08
1.29571e-07
4.35866e-08
1.29567e-07
8.39434e-07
5.71756e-07
3.84778e-07
8.11233e-07
7.5426e-07
8.44945e-07
7.01712e-07
3.7803e-07
7.06965e-07
3.30137e-07
6.79442e-07
4.5911e-07
7.03702e-07
2.83602e-07
1.83833e-07
5.18342e-08
1.83833e-07
3.86056e-08
1.29567e-07
3.51769e-08
1.29567e-07
4.06099e-07
7.09587e-07
6.02281e-07
8.18621e-07
6.86787e-07
8.72562e-07
6.58892e-07
7.57331e-07
7.59905e-07
7.12041e-07
7.02676e-07
7.59833e-07
7.62305e-07
6.62237e-07
1.84016e-07
1.83349e-07
1.84017e-07
1.29221e-07
1.29658e-07
1.29269e-07
1.29658e-07
7.38434e-07
4.95375e-07
7.59472e-07
7.82383e-07
6.90164e-07
6.77954e-07
6.91453e-07
8.60038e-08
1.16326e-07
7.57789e-07
7.62239e-07
8.59551e-08
1.16404e-07
7.60407e-07
1.84018e-07
1.83348e-07
1.84018e-07
1.29269e-07
1.29658e-07
1.29269e-07
1.29658e-07
5.17029e-08
3.50906e-08
3.51425e-08
5.17918e-08
5.17917e-08
3.50926e-08
5.16985e-08
9.74042e-08
6.87741e-07
8.85082e-08
7.52142e-07
7.56151e-07
1.26955e-07
6.70991e-08
5.18286e-08
3.51426e-08
3.57072e-08
5.17933e-08
5.1792e-08
5.26876e-08
3.51536e-08
6.43649e-08
2.80454e-07
6.16576e-08
4.24104e-07
4.29685e-07
6.4601e-08
6.1171e-08
5.1703e-08
5.17913e-08
5.16935e-08
5.17851e-08
5.17911e-08
5.16973e-08
5.16987e-08
9.75414e-08
7.50333e-07
7.54992e-07
1.27225e-07
7.57338e-07
1.27033e-07
9.75871e-08
5.1868e-08
5.17926e-08
5.17856e-08
5.27988e-08
5.17914e-08
5.27546e-08
5.19074e-08
7.77059e-08
3.9893e-08
3.51568e-08
5.18028e-08
5.87299e-08
5.1822e-08
5.32168e-08
7.19921e-07
5.18338e-07
6.88299e-07
7.4008e-07
6.02319e-07
7.51184e-07
6.83829e-07
9.4168e-08
3.53633e-08
1.15621e-07
5.59573e-08
5.20814e-08
1.61921e-07
6.44851e-08
7.50969e-07
7.58661e-07
2.8871e-07
6.35177e-07
2.87583e-07
5.93474e-07
7.47262e-07
7.78064e-08
5.18022e-08
5.881e-08
5.18143e-08
5.88241e-08
5.18204e-08
7.79845e-08
6.74254e-07
7.59856e-07
6.36163e-07
7.30009e-07
6.4871e-07
7.40564e-07
6.49161e-07
9.54381e-08
5.6025e-08
5.18809e-08
1.62281e-07
5.19454e-08
1.61512e-07
9.6268e-08
7.57282e-07
2.40957e-07
5.66156e-08
6.30271e-08
3.23924e-07
8.26648e-08
6.8814e-07
7.56371e-07
5.74643e-07
6.95078e-07
7.46498e-07
5.98473e-07