/*--------------------------------*- C++ -*----------------------------------*\
| =========                 |                                                 |
| \\      /  F ield         | OpenFOAM: The Open Source CFD Toolbox           |
|  \\    /   O peration     | Version:  5.0                                   |
|   \\  /    A nd           | Web:      www.OpenFOAM.org                      |
|    \\/     M anipulation  |                                                 |
\*---------------------------------------------------------------------------*/
FoamFile
{
    version     2.0;
    format      ascii;
    class       volVectorField;
    location    "0.8";
    object      U;
}
// * * * * * * * * * * * * * * * * * * * * * * * * * * * * * * * * * * * * * //

dimensions      [0 1 -1 0 0 0 0];

internalField   nonuniform List<vector> 
9585
(
(-0.00764021 -0.00213067 0.000570344)
(0.00073206 -0.0102355 0.000553467)
(-0.0137934 0.00140186 0.00049898)
(0.00914453 -0.0161313 0.00289185)
(-0.0306692 -0.0174306 -0.000152682)
(-0.000255279 -0.000291175 -6.45512e-05)
(0.000317335 -5.10111e-05 -1.77246e-06)
(0.000693957 -5.96125e-05 -1.52582e-06)
(0.000720911 -3.24158e-05 -2.1651e-07)
(0.00075239 -2.00738e-05 1.25296e-07)
(0.000766934 -1.21124e-05 8.95437e-08)
(0.000776249 -7.48938e-06 8.16355e-08)
(0.000781317 -4.6228e-06 3.00832e-09)
(0.000783833 -2.82799e-06 8.49939e-08)
(0.000784716 -1.75376e-06 3.88036e-08)
(0.000784781 -1.12241e-06 2.75607e-07)
(0.000784288 -7.23258e-07 5.15285e-08)
(0.000783398 -4.36501e-07 7.67369e-08)
(0.000782219 -2.11679e-07 5.37356e-08)
(0.00078088 -2.66862e-07 1.33546e-07)
(0.000779658 -2.63919e-07 5.65293e-08)
(0.000778385 4.03746e-08 8.62609e-08)
(0.000777024 6.73464e-08 -3.23457e-08)
(0.000775607 1.05945e-07 4.75724e-08)
(0.00077413 1.36347e-07 5.75136e-08)
(0.00077269 3.0184e-07 7.8455e-08)
(0.000771303 1.9709e-07 3.87555e-08)
(0.000770057 7.50067e-08 4.81452e-08)
(0.000768349 9.94578e-08 1.51956e-07)
(0.000766745 -1.59562e-07 4.07292e-08)
(0.000765247 -5.12666e-07 7.85998e-08)
(0.000763578 -6.34058e-07 1.73757e-08)
(0.000762258 -4.73815e-07 7.21633e-08)
(0.00076094 -2.09439e-07 3.56482e-08)
(0.000759406 1.15425e-07 3.9533e-08)
(0.000757893 9.41045e-08 4.65111e-08)
(0.00075616 2.04431e-07 1.62074e-08)
(0.00075424 2.36058e-07 3.7741e-08)
(0.000753398 5.52682e-07 8.54119e-08)
(0.000752338 1.44924e-07 8.31956e-08)
(0.000750477 -2.08021e-08 2.75472e-08)
(0.000748906 -9.85455e-08 7.42789e-08)
(0.000748002 -8.16394e-07 9.12141e-08)
(0.000746283 -6.32659e-07 1.84346e-09)
(0.000744358 -3.70404e-07 7.36323e-08)
(0.000743206 -2.17013e-07 3.31233e-08)
(0.000741825 -2.26663e-07 4.78899e-08)
(0.000740603 -1.95139e-07 4.75245e-08)
(0.000738936 -4.26343e-07 1.72163e-08)
(0.000737251 -3.8951e-07 -4.4808e-09)
(0.00706562 0.00952995 -0.00302382)
(-0.0085599 0.0250646 0.000504075)
(0.0107578 0.000550229 0.000513904)
(-0.0220391 0.00217693 0.000549873)
(0.0291652 0.00157346 -0.00253356)
(0.00750959 0.000687814 4.29131e-05)
(0.000345861 -0.000126793 -1.22845e-06)
(0.000737107 -0.000107102 -2.82403e-06)
(0.000760518 -6.54934e-05 -1.13301e-09)
(0.00077429 -4.0627e-05 4.52229e-08)
(0.000780581 -2.50492e-05 1.80805e-08)
(0.000784491 -1.54748e-05 4.86316e-08)
(0.000786232 -9.60865e-06 4.76113e-08)
(0.000786822 -6.02206e-06 4.71094e-08)
(0.000786659 -3.77922e-06 4.8923e-08)
(0.00078597 -2.3791e-06 7.25422e-08)
(0.000785014 -1.55889e-06 4.87045e-08)
(0.00078401 -1.13606e-06 1.13575e-07)
(0.000782485 -6.84969e-07 3.88093e-08)
(0.000780909 -3.8357e-07 2.60118e-08)
(0.000779841 -9.70636e-08 9.84407e-08)
(0.000778572 -7.0224e-08 5.06083e-08)
(0.000777065 1.08707e-07 4.92299e-08)
(0.000775651 2.29752e-08 1.62469e-07)
(0.000774295 3.04396e-07 5.08325e-08)
(0.000772703 4.33251e-08 9.33091e-08)
(0.000771078 -3.10168e-08 1.37763e-07)
(0.000769709 -2.12116e-07 4.70807e-08)
(0.000768167 -6.12609e-07 7.39948e-08)
(0.000766393 -4.78515e-07 6.28424e-08)
(0.000764956 -3.54776e-07 -1.21458e-07)
(0.000763656 -1.53193e-07 9.82221e-09)
(0.000762515 3.05545e-07 1.30855e-07)
(0.000761449 2.29746e-07 9.10386e-08)
(0.000759655 -1.05306e-09 4.63828e-08)
(0.000757834 7.64455e-08 1.50086e-08)
(0.00075653 1.2102e-07 4.22016e-08)
(0.000755313 3.48896e-07 7.48073e-09)
(0.000753301 6.63666e-07 9.83918e-08)
(0.0007514 3.35511e-07 1.7466e-08)
(0.000750157 2.56903e-07 5.77056e-08)
(0.000748442 4.19498e-08 5.14131e-08)
(0.000747019 -1.49897e-07 7.76794e-08)
(0.000746348 -6.78027e-07 6.40396e-08)
(0.000745082 -1.3684e-07 5.48301e-08)
(0.000743257 -4.98874e-08 4.47773e-08)
(0.000741845 1.22478e-07 4.65534e-08)
(0.000740377 -1.8152e-08 4.20296e-08)
(0.000738941 -2.3262e-07 7.8293e-08)
(0.000738007 -2.17095e-07 1.11447e-07)
(-0.00302566 0.0111104 -4.93373e-05)
(0.00754556 0.00954597 0.00224191)
(-0.0146549 0.000657374 0.000573758)
(0.0271357 0.000293644 0.00564188)
(0.00350548 -0.00731119 0.00036412)
(-0.00152204 -0.00937302 -0.000264635)
(0.000239322 -6.57087e-05 3.18667e-07)
(0.000830878 -0.000125818 -1.82926e-06)
(0.000804536 -7.47839e-05 -7.06288e-08)
(0.000803316 -4.61438e-05 1.11915e-07)
(0.000798607 -2.83583e-05 4.81171e-08)
(0.000795695 -1.75486e-05 5.01047e-08)
(0.000793224 -1.0949e-05 4.71312e-08)
(0.000791177 -6.84988e-06 4.8798e-08)
(0.000789306 -4.32423e-06 4.88732e-08)
(0.000787579 -2.77694e-06 4.85986e-08)
(0.000785858 -1.80612e-06 5.38407e-08)
(0.000784501 -1.19031e-06 2.20947e-08)
(0.000783167 -1.1623e-06 6.74258e-08)
(0.000781618 -5.98863e-07 3.75399e-08)
(0.000780052 -3.72773e-07 2.74769e-08)
(0.000778641 -2.89996e-07 4.44185e-08)
(0.00077714 -2.7954e-07 4.39229e-08)
(0.00077585 -2.805e-07 7.36963e-08)
(0.000774153 -5.15203e-07 1.38003e-07)
(0.000772269 -3.38295e-07 5.23047e-08)
(0.000770984 -2.31449e-07 6.56325e-08)
(0.000769333 -1.2547e-07 5.64408e-08)
(0.00076802 -1.25297e-07 1.58565e-08)
(0.000767073 2.61591e-07 2.54896e-08)
(0.000765658 4.08729e-07 2.02723e-07)
(0.000764403 4.98386e-07 1.51708e-08)
(0.000762735 4.93587e-07 -4.67259e-09)
(0.000760554 2.70185e-07 1.23737e-08)
(0.000759212 -4.80044e-08 9.43801e-08)
(0.000758044 6.73747e-08 6.60238e-08)
(0.000756498 6.87436e-08 6.59626e-08)
(0.000754915 -1.83546e-08 4.98474e-08)
(0.000753377 -2.11382e-07 2.8786e-08)
(0.000751826 -8.94342e-09 1.02776e-07)
(0.000750108 -6.23013e-08 7.01899e-08)
(0.000748398 1.18113e-07 5.6971e-08)
(0.000747106 5.35937e-07 1.82032e-07)
(0.000746303 6.34575e-07 9.54217e-08)
(0.000745147 3.03181e-07 8.21513e-08)
(0.000743531 2.59659e-07 4.4047e-08)
(0.000741866 4.43806e-07 3.85633e-08)
(0.00074016 4.37052e-07 2.40278e-08)
(0.000738693 2.74284e-07 5.5381e-08)
(0.00073781 1.45355e-07 1.19885e-07)
(-0.0132351 -0.00786719 0.000910199)
(0.0153693 -0.00102022 -0.000419341)
(-0.00236556 -0.00267612 -0.000497108)
(0.0011215 -0.0048676 0.00200153)
(-0.0208913 -0.0103018 -0.00103265)
(0.00670467 -0.00111305 0.000277711)
(0.000610786 -0.000251519 6.56321e-05)
(0.000903175 -9.46019e-05 -2.82657e-06)
(0.000861126 -4.95714e-05 -1.49268e-07)
(0.000832766 -3.20847e-05 1.20269e-08)
(0.000816603 -1.99328e-05 2.51193e-08)
(0.000806425 -1.2522e-05 -2.97365e-07)
(0.000799713 -8.00269e-06 4.37205e-08)
(0.00079517 -5.00069e-06 4.78988e-08)
(0.000791792 -3.13381e-06 4.77203e-08)
(0.000789145 -1.96305e-06 4.8639e-08)
(0.000787014 -1.2238e-06 4.50723e-08)
(0.000784827 -7.16447e-07 5.01666e-09)
(0.000783233 -6.12466e-07 1.94071e-08)
(0.000781902 -6.02519e-07 2.95102e-08)
(0.000780231 -4.60491e-07 3.95597e-09)
(0.000778691 -4.09132e-07 4.98963e-08)
(0.000777079 -3.72285e-07 -1.77168e-08)
(0.000775359 -1.84029e-07 5.83542e-08)
(0.000774226 -3.93272e-07 -2.07054e-08)
(0.000773061 -2.27842e-08 2.34861e-08)
(0.000771345 1.66178e-07 6.03887e-08)
(0.000769843 4.04832e-07 5.28197e-08)
(0.00076865 7.51397e-07 -4.30219e-08)
(0.000767058 5.99612e-07 3.95061e-08)
(0.000765247 3.13582e-07 7.26627e-08)
(0.000763757 3.72627e-07 1.52204e-08)
(0.000762225 -1.30466e-07 4.35423e-08)
(0.00076077 -5.99578e-08 4.79218e-08)
(0.0007594 1.11034e-07 5.4881e-08)
(0.00075798 5.62239e-08 4.26695e-08)
(0.000756422 -5.61466e-08 1.84814e-07)
(0.000754963 -1.00105e-07 4.07353e-08)
(0.000753314 -2.40608e-07 1.90933e-08)
(0.000751586 -2.35055e-07 -5.41093e-08)
(0.000750316 -1.7261e-07 5.69619e-08)
(0.000749187 5.43268e-08 7.14442e-08)
(0.000747661 2.90311e-07 1.49217e-07)
(0.000746052 5.37474e-07 -9.37069e-08)
(0.00074461 1.61571e-07 5.66592e-08)
(0.000743429 6.59882e-08 4.27144e-08)
(0.000742063 -3.60476e-08 3.10544e-08)
(0.000740163 3.52008e-07 4.04395e-08)
(0.000738572 2.20972e-07 4.7053e-08)
(0.000737482 2.73928e-07 1.56575e-07)
(-0.00140091 0.00328579 0.000119367)
(-0.00380277 0.0228245 -4.08716e-05)
(0.000636894 -0.00439242 0.00153228)
(0.0153085 -0.00456467 -0.00737368)
(-0.00239648 -0.000290247 0.00288909)
(-0.0137585 -0.00547025 0.000277545)
(0.00115755 8.16356e-05 1.82642e-06)
(0.000877758 -2.95885e-05 -3.18734e-06)
(0.000883624 3.51059e-06 2.11818e-07)
(0.000840702 -3.88534e-06 -4.26274e-08)
(0.000823273 -3.33944e-06 5.96287e-08)
(0.00081074 -2.81054e-06 2.18727e-08)
(0.000802708 -1.7904e-06 2.44971e-07)
(0.000797314 -1.24787e-06 5.09611e-08)
(0.000793135 -8.29019e-07 4.39353e-08)
(0.000789986 -5.34867e-07 4.32568e-08)
(0.000787427 -3.33508e-07 4.85325e-08)
(0.000785273 -2.56987e-07 4.64299e-08)
(0.000783314 3.18825e-08 5.99316e-08)
(0.000781813 1.24644e-08 1.14418e-07)
(0.000780298 -2.01355e-07 6.79841e-08)
(0.000778756 8.53304e-08 3.54556e-07)
(0.000777424 7.49473e-08 1.00101e-07)
(0.000775827 1.89807e-07 1.02257e-07)
(0.000774357 3.95493e-07 2.06831e-07)
(0.000772969 1.56106e-07 6.73615e-08)
(0.000771517 2.32642e-07 6.71522e-08)
(0.000770059 2.95696e-07 4.19309e-08)
(0.000768257 3.99755e-07 2.31516e-08)
(0.000766518 2.6054e-07 1.03888e-07)
(0.000765367 7.33804e-08 5.69232e-08)
(0.000763844 -1.67281e-07 3.73163e-08)
(0.000762191 7.29299e-08 2.37692e-07)
(0.000760855 1.00654e-07 5.12111e-08)
(0.000759357 1.70295e-07 5.72155e-08)
(0.000757835 1.09512e-08 4.84101e-08)
(0.000756303 -4.30871e-08 6.36961e-08)
(0.000754686 -8.78241e-08 4.82831e-08)
(0.00075321 -1.323e-07 4.36175e-08)
(0.000751913 -9.92827e-08 -1.32979e-07)
(0.00075047 1.82659e-07 6.89637e-08)
(0.000748975 1.59627e-07 4.09345e-07)
(0.000747706 7.78863e-08 8.44086e-09)
(0.000746138 6.38263e-08 6.28729e-08)
(0.000744556 -9.09177e-08 3.54573e-08)
(0.000743283 -2.27886e-07 4.67057e-08)
(0.000742223 -5.78327e-07 1.012e-08)
(0.00074048 -9.19005e-07 -2.54859e-08)
(0.000738589 -2.8483e-07 6.49304e-08)
(0.000737195 3.55974e-08 5.0836e-08)
(0.00203288 -0.00513121 0.00113591)
(-0.00178522 -0.0179181 0.00449841)
(-0.00530388 0.00370916 -0.00189193)
(0.0124244 0.00795643 -0.000613071)
(0.00703423 -0.0291481 0.000393288)
(0.0106772 0.00348433 0.000150792)
(0.00167367 -0.00012546 2.98042e-06)
(0.000507828 2.47125e-05 -6.0535e-07)
(0.000875365 2.76543e-05 -7.83506e-07)
(0.000824217 1.84744e-05 -2.60963e-07)
(0.000818005 1.12828e-05 1.40638e-07)
(0.000808399 7.01058e-06 1.13055e-07)
(0.000801692 4.5208e-06 8.30905e-08)
(0.000796388 2.78767e-06 4.83027e-08)
(0.000792694 1.73703e-06 1.40256e-07)
(0.000789771 1.08261e-06 5.62417e-08)
(0.000787367 6.74237e-07 4.89221e-08)
(0.000785286 4.63872e-07 7.66751e-08)
(0.000783571 3.40544e-07 2.58155e-08)
(0.000781611 5.33024e-07 1.63117e-07)
(0.000780322 6.06934e-07 1.17134e-07)
(0.000779037 4.45049e-07 9.77957e-08)
(0.000777209 3.14243e-07 8.05177e-08)
(0.000775758 1.96404e-07 6.04392e-08)
(0.000774182 2.44994e-07 -5.72533e-08)
(0.000772855 1.21692e-07 4.5845e-08)
(0.000771518 -3.43825e-08 3.72399e-08)
(0.000770049 -1.98333e-07 -1.2482e-08)
(0.000768603 -1.41386e-07 3.25902e-08)
(0.000766647 -3.9946e-07 -1.12047e-07)
(0.000764711 -3.0152e-07 2.6488e-08)
(0.000763755 -2.0145e-07 6.61965e-08)
(0.00076256 -1.18081e-07 1.29802e-08)
(0.00076089 -7.7071e-08 -1.19508e-07)
(0.000759288 -1.18507e-07 4.41908e-08)
(0.000757713 -2.1936e-08 4.53128e-08)
(0.000756299 2.92312e-09 1.89449e-08)
(0.000754853 6.23135e-08 4.67471e-08)
(0.000753301 1.95868e-07 6.39315e-08)
(0.000751981 1.93858e-07 5.72795e-08)
(0.000750639 2.03304e-07 5.59097e-08)
(0.000749055 4.22272e-07 2.66472e-07)
(0.00074754 2.77487e-07 3.68108e-08)
(0.000745842 2.9095e-08 5.13203e-08)
(0.000744246 -3.94291e-08 4.00063e-08)
(0.000742823 -1.87898e-07 4.71525e-08)
(0.000741204 -4.47639e-07 -6.19531e-08)
(0.000740534 -7.92449e-07 7.41415e-08)
(0.000739766 -5.35206e-07 2.41924e-07)
(0.000737794 -3.45448e-07 1.24731e-07)
(0.0125713 0.00554405 -0.000401943)
(0.0214776 -0.0167239 -0.00294329)
(0.0074467 0.000811051 -0.00480215)
(0.00287436 0.0101534 0.00039155)
(0.0167703 -0.0161328 0.000553049)
(0.00194431 -0.000814427 0.000487611)
(0.000790052 0.000255522 -9.21387e-06)
(0.000888494 0.000105894 -2.03735e-06)
(0.000831514 4.07072e-05 -2.52486e-07)
(0.000820058 3.26769e-05 8.60774e-08)
(0.000808839 2.1285e-05 5.57343e-08)
(0.000802222 1.40708e-05 5.40025e-08)
(0.000797389 8.90304e-06 4.87555e-08)
(0.000793809 5.71432e-06 4.99361e-08)
(0.000790988 3.64578e-06 5.03587e-08)
(0.000788649 2.30379e-06 4.95665e-08)
(0.000786649 1.437e-06 5.02188e-08)
(0.000784852 9.25548e-07 3.70914e-08)
(0.000783398 6.30701e-07 6.08454e-08)
(0.000782143 4.08182e-07 2.70288e-08)
(0.000780184 6.09286e-07 -2.98861e-08)
(0.000778387 2.01635e-07 4.62722e-08)
(0.000777111 2.58445e-07 1.67487e-08)
(0.000775738 1.72331e-07 4.93999e-08)
(0.000774262 4.09373e-07 1.79035e-10)
(0.00077262 1.45984e-07 6.57632e-08)
(0.000771117 -6.61589e-08 6.52542e-08)
(0.000769927 -2.2928e-07 7.78885e-08)
(0.000768009 -6.88048e-07 -3.92792e-08)
(0.000766321 -7.37687e-07 1.13716e-07)
(0.000765619 -3.09226e-07 3.93808e-08)
(0.000764077 1.18507e-08 1.19444e-07)
(0.000762349 -5.66829e-08 5.18492e-08)
(0.000760856 -8.26175e-08 -5.47096e-08)
(0.000759427 -9.55455e-08 1.5477e-07)
(0.000757987 1.41527e-08 1.68585e-07)
(0.000756409 6.78017e-08 5.01408e-08)
(0.000754927 3.95204e-08 8.29979e-08)
(0.000753373 7.21669e-08 3.60112e-08)
(0.000751921 2.49493e-07 -5.50714e-08)
(0.000750754 4.65287e-08 4.25456e-08)
(0.000749066 -1.86126e-07 -2.2091e-08)
(0.000747213 -1.06566e-07 5.08568e-08)
(0.000745741 -2.19502e-07 5.41114e-08)
(0.000744285 -3.82505e-08 1.35457e-08)
(0.000742775 1.99546e-08 4.97129e-08)
(0.000741471 -1.47184e-08 9.65338e-08)
(0.000740376 2.03215e-07 3.38025e-08)
(0.000739158 -2.41211e-07 3.60621e-09)
(0.000738294 -3.23984e-07 5.2743e-08)
(-0.0109681 0.0148148 0.000380563)
(-0.000178016 -0.00860406 -0.00131703)
(0.00143952 -0.00490643 -0.000702441)
(3.29472e-05 0.00420587 8.79657e-05)
(-0.00738627 0.0163361 0.00158957)
(0.00757049 -0.00463981 -0.000130636)
(0.000586897 0.000171777 5.74371e-05)
(0.000850051 0.000110671 -2.13819e-06)
(0.000799096 6.68074e-05 -2.31564e-07)
(0.000799669 4.28665e-05 9.81647e-08)
(0.000794525 2.69396e-05 -2.88218e-08)
(0.000792781 1.7031e-05 4.81622e-08)
(0.000791156 1.07241e-05 4.82605e-08)
(0.00078976 6.74554e-06 4.87117e-08)
(0.000788395 4.24356e-06 4.85181e-08)
(0.000786987 2.66165e-06 4.9876e-08)
(0.000785629 1.81417e-06 1.1047e-07)
(0.000784269 1.30982e-06 6.66324e-08)
(0.000782918 1.02116e-06 9.34838e-08)
(0.000781579 5.35008e-07 4.3801e-08)
(0.000780061 1.3389e-07 4.64578e-08)
(0.000778596 2.44673e-07 7.62697e-08)
(0.000777171 -7.14915e-10 3.91084e-08)
(0.000775945 -6.22319e-08 4.57472e-08)
(0.000774147 -5.33651e-07 1.362e-07)
(0.00077226 -2.50299e-07 4.99001e-08)
(0.00077105 -9.9235e-08 4.42005e-08)
(0.000769275 -1.04207e-07 5.31584e-08)
(0.000767973 -2.1649e-07 1.38466e-07)
(0.000767127 3.84161e-07 6.7941e-08)
(0.000765652 5.16363e-07 8.56719e-08)
(0.000764073 2.06147e-07 2.65948e-08)
(0.000762443 2.51677e-07 4.96458e-08)
(0.000760842 1.77325e-07 4.9968e-08)
(0.000759409 1.2909e-07 5.97673e-08)
(0.000757918 -6.41953e-08 6.95647e-08)
(0.000756331 -1.23092e-07 3.99931e-08)
(0.000754858 -1.37596e-07 5.13556e-08)
(0.000753562 -3.83557e-08 4.33288e-08)
(0.000751948 -3.02392e-08 6.0351e-08)
(0.000750094 -9.12567e-08 2.1616e-08)
(0.000748865 -1.7707e-07 5.83411e-08)
(0.0007475 -1.08699e-07 5.9065e-08)
(0.000745929 -5.02671e-08 4.5615e-08)
(0.000744547 -1.96807e-08 6.62327e-08)
(0.000742853 1.04934e-07 4.60707e-08)
(0.000741434 4.80247e-07 4.34319e-08)
(0.000740252 3.48231e-07 5.17525e-08)
(0.000739116 2.27605e-07 2.94945e-08)
(0.0007385 -7.40149e-08 5.95529e-08)
(0.0101611 -0.00817282 -0.000759368)
(-0.0180517 -0.00173802 0.0186218)
(0.0308635 -0.0232863 -0.00798527)
(0.0239791 0.0100567 0.000828741)
(6.97095e-05 -0.00107509 -0.000712368)
(0.0183874 -0.00189716 0.000842005)
(0.000552262 0.000150136 3.47231e-06)
(0.000774246 0.000107796 -1.21582e-06)
(0.000746144 6.29804e-05 -3.13356e-07)
(0.00076978 3.74262e-05 1.5502e-07)
(0.000776266 2.2525e-05 3.86222e-08)
(0.00078178 1.37776e-05 5.60558e-08)
(0.000784424 8.45914e-06 5.07158e-08)
(0.000785641 5.21142e-06 5.06647e-08)
(0.000785841 3.26124e-06 5.16519e-08)
(0.000785585 2.13043e-06 1.16198e-07)
(0.000784941 1.42589e-06 3.80283e-08)
(0.000783848 9.5825e-07 6.54165e-09)
(0.000782421 7.11391e-07 -1.7758e-08)
(0.000781029 4.45079e-07 7.40453e-08)
(0.000779819 2.28761e-07 4.45964e-08)
(0.000778218 -3.7344e-08 5.97994e-08)
(0.000776728 -1.21198e-07 -5.87069e-09)
(0.000775074 -1.87584e-07 5.39276e-08)
(0.00077403 -4.26009e-07 -4.40166e-08)
(0.000773165 -2.65635e-07 5.96717e-08)
(0.000771302 -1.32123e-07 1.89343e-08)
(0.000769782 -1.5953e-08 6.13161e-08)
(0.000768619 3.14131e-07 7.15502e-08)
(0.000767236 3.75118e-07 -2.02694e-08)
(0.000765394 3.39783e-07 1.92857e-09)
(0.000763743 2.91102e-07 6.76253e-08)
(0.000762312 -3.60181e-08 5.83329e-08)
(0.000760702 -7.87826e-08 4.81405e-08)
(0.000759125 -1.4217e-07 2.67399e-08)
(0.000757673 -1.86583e-07 4.84044e-08)
(0.000756319 -2.97889e-07 -1.98031e-08)
(0.000755034 -1.69399e-07 4.65969e-08)
(0.000753508 -2.81167e-07 8.39692e-08)
(0.000751855 -2.86191e-07 4.06931e-08)
(0.000750571 -1.46085e-07 5.81052e-08)
(0.000749045 6.93131e-09 2.14035e-08)
(0.000747373 3.09137e-07 4.09613e-08)
(0.000745854 1.5376e-07 3.78975e-08)
(0.00074448 1.96391e-07 6.34368e-08)
(0.000743398 1.65285e-07 4.59352e-08)
(0.000741773 3.75902e-07 2.8387e-08)
(0.000740057 4.73878e-07 4.45033e-08)
(0.00073863 6.781e-07 -5.17325e-08)
(0.000738098 5.32542e-07 9.21307e-08)
(0.00245602 0.00481237 1.74551e-05)
(-0.00300647 -0.0127088 -0.000378281)
(0.000916295 -0.034657 -0.00278505)
(0.00110443 0.000431304 0.000660974)
(-0.00745376 -0.000974147 -0.000577635)
(0.000393951 0.00144521 0.000145734)
(0.00030784 6.05029e-05 -8.31413e-07)
(0.000684403 3.12855e-05 -1.23706e-06)
(0.000710707 2.05893e-05 -3.69363e-07)
(0.000748724 1.13704e-05 1.34964e-07)
(0.000764737 6.7596e-06 7.6682e-08)
(0.00077506 3.95525e-06 6.9447e-08)
(0.000780363 2.36642e-06 6.12266e-08)
(0.00078321 1.48954e-06 3.81836e-08)
(0.000784511 9.32433e-07 6.11062e-08)
(0.000784672 5.97894e-07 6.23749e-08)
(0.00078415 2.94282e-07 4.80011e-08)
(0.000783367 7.88227e-08 4.3986e-08)
(0.000782271 -6.42656e-08 6.75247e-08)
(0.000780972 -8.19425e-08 5.94936e-08)
(0.000779456 -1.83269e-07 5.97634e-08)
(0.000778158 -2.10367e-07 5.65492e-08)
(0.000776985 -4.99503e-08 5.80023e-08)
(0.000775567 2.68824e-08 4.80764e-08)
(0.000774053 3.77533e-07 6.91969e-08)
(0.000772631 1.08066e-07 6.55349e-08)
(0.000771364 -1.54383e-09 4.48078e-08)
(0.000769833 1.09824e-07 3.97793e-08)
(0.00076846 2.19088e-07 7.45042e-08)
(0.000767156 -1.05798e-07 4.97918e-08)
(0.000765544 -1.73649e-07 1.01113e-07)
(0.000763602 -2.24132e-07 -4.62145e-09)
(0.00076198 -3.08675e-07 1.52368e-08)
(0.000760711 -2.70042e-07 5.17639e-08)
(0.000759276 -1.20564e-07 9.69681e-08)
(0.000757724 -4.6538e-08 6.85249e-08)
(0.000756354 5.52956e-08 5.6104e-08)
(0.000754881 -1.73509e-07 4.74212e-08)
(0.000753419 -5.80569e-07 5.31487e-08)
(0.000752119 -2.64074e-07 5.83512e-08)
(0.000750463 -1.9634e-07 6.14911e-08)
(0.000749435 -3.41479e-07 8.58629e-08)
(0.000747684 -3.09201e-07 2.52405e-08)
(0.000745787 1.61725e-07 9.13208e-08)
(0.00074456 3.43786e-08 2.04839e-08)
(0.000743075 6.68632e-08 -9.85348e-09)
(0.000741815 -1.19039e-07 2.1999e-08)
(0.000740624 1.10362e-07 4.93118e-08)
(0.000739174 3.19249e-07 -6.87342e-08)
(0.00073699 3.6263e-07 5.72252e-08)
(-0.00497178 0.0061895 -0.00133375)
(-0.00208998 0.0144284 0.00359006)
(-0.00485167 0.00554961 0.00418656)
(-0.022776 0.0136995 0.00307249)
(0.0948455 0.00178011 -0.00724442)
(-0.000494954 -0.00412115 0.000153249)
(0.000976798 -0.000153931 -2.59567e-06)
(0.00116509 -0.000100099 2.94297e-07)
(0.00120506 -5.40974e-05 2.98635e-07)
(0.00125695 -3.32705e-05 3.1666e-07)
(0.00128071 -1.99874e-05 2.99352e-07)
(0.00129605 -1.23659e-05 3.39455e-07)
(0.00130456 -7.63652e-06 2.57617e-07)
(0.00130871 -4.61789e-06 3.42116e-07)
(0.00131014 -2.8714e-06 3.15143e-07)
(0.00131021 -1.84374e-06 5.70394e-07)
(0.00130937 -1.18436e-06 3.30636e-07)
(0.00130794 -6.74174e-07 3.5994e-07)
(0.00130588 -3.82412e-07 3.7996e-07)
(0.00130364 -4.60653e-07 3.81757e-07)
(0.00130168 -4.04125e-07 3.26976e-07)
(0.00129948 1.18508e-07 3.59052e-07)
(0.00129716 1.64257e-07 2.3852e-07)
(0.00129485 2.50108e-07 2.81624e-07)
(0.0012924 3.60105e-07 3.42023e-07)
(0.00128999 6.13041e-07 3.51808e-07)
(0.0012877 3.94759e-07 2.61007e-07)
(0.00128569 1.43744e-07 3.2469e-07)
(0.00128277 2.04596e-07 4.67091e-07)
(0.00128002 -3.31615e-07 3.61778e-07)
(0.00127758 -9.58309e-07 3.62126e-07)
(0.00127477 -1.06292e-06 1.97867e-07)
(0.00127259 -7.72816e-07 3.21115e-07)
(0.00127055 -3.19472e-07 2.9732e-07)
(0.00126807 2.16969e-07 3.09805e-07)
(0.0012655 1.91292e-07 3.15589e-07)
(0.00126261 3.10494e-07 3.12034e-07)
(0.00125947 4.00872e-07 2.38403e-07)
(0.00125798 9.41719e-07 2.89959e-07)
(0.00125624 3.23588e-07 4.83586e-07)
(0.00125326 -2.59493e-09 2.79498e-07)
(0.00125064 -1.36738e-07 3.41491e-07)
(0.00124914 -1.24585e-06 3.61143e-07)
(0.00124631 -9.60044e-07 1.97766e-07)
(0.00124319 -5.88972e-07 3.63607e-07)
(0.00124123 -3.72452e-07 1.8276e-07)
(0.00123888 -3.629e-07 2.7749e-07)
(0.00123686 -3.82545e-07 2.97345e-07)
(0.00123409 -7.00933e-07 2.94553e-07)
(0.00123126 -6.25061e-07 1.79623e-07)
(0.00411002 0.0205353 0.000647018)
(-0.00716648 -0.000292657 -0.00112701)
(-0.034046 -0.00461206 -0.00181794)
(-0.0371453 0.0313346 0.0144303)
(0.0121761 0.0480839 -0.0163452)
(0.00750632 -0.00606447 -0.00185607)
(0.00105971 -0.000380547 -8.43622e-07)
(0.00123888 -0.000174245 3.51632e-07)
(0.00127084 -0.000106955 3.22455e-07)
(0.00129314 -6.66635e-05 3.37548e-07)
(0.0013032 -4.1248e-05 2.92913e-07)
(0.00130965 -2.55119e-05 3.26733e-07)
(0.00131258 -1.58593e-05 3.27896e-07)
(0.00131357 -1.00001e-05 3.27504e-07)
(0.00131329 -6.27991e-06 3.28781e-07)
(0.00131218 -4.00219e-06 4.80986e-07)
(0.00131064 -2.60603e-06 3.29892e-07)
(0.00130886 -1.93707e-06 4.55758e-07)
(0.00130633 -1.17048e-06 3.53868e-07)
(0.00130379 -6.25936e-07 2.98624e-07)
(0.00130197 -1.30961e-07 3.84577e-07)
(0.0012998 -1.17269e-07 3.36836e-07)
(0.00129731 2.53462e-07 2.97991e-07)
(0.00129501 1.21236e-07 4.39434e-07)
(0.00129268 5.67131e-07 3.36802e-07)
(0.00128996 1.29703e-07 4.34368e-07)
(0.00128726 6.72835e-09 5.18219e-07)
(0.00128504 -3.59684e-07 3.22753e-07)
(0.0012824 -1.14942e-06 3.23472e-07)
(0.00127938 -8.37306e-07 2.77355e-07)
(0.00127716 -6.25305e-07 5.28482e-08)
(0.00127509 -2.98419e-07 2.85762e-07)
(0.00127312 5.85179e-07 4.73595e-07)
(0.00127132 5.18165e-07 4.13946e-07)
(0.00126841 7.94265e-08 3.29696e-07)
(0.00126539 1.45509e-07 2.31193e-07)
(0.00126319 2.27441e-07 3.00216e-07)
(0.00126116 5.85337e-07 1.14644e-07)
(0.00125789 1.10183e-06 4.35421e-07)
(0.00125476 6.36631e-07 2.83596e-07)
(0.00125266 3.98392e-07 3.28002e-07)
(0.00124986 8.42406e-09 2.23977e-07)
(0.00124754 -3.09013e-07 2.93787e-07)
(0.00124639 -1.10129e-06 3.88216e-07)
(0.00124426 -2.53871e-07 3.48691e-07)
(0.00124131 -1.58544e-07 2.47917e-07)
(0.00123898 1.64189e-07 2.93843e-07)
(0.00123653 -5.81897e-08 3.03858e-07)
(0.00123412 -3.95738e-07 3.35868e-07)
(0.00123252 -3.72246e-07 4.03561e-07)
(-0.00673059 0.0147049 0.00393879)
(0.00805561 -0.0331816 0.0142674)
(0.0032238 -0.0196111 -0.000465882)
(0.0231448 0.0183997 0.0047878)
(0.028135 -0.0199653 0.00674879)
(-0.0233331 -0.00406196 -0.00242715)
(0.00117507 -0.000272062 3.79854e-05)
(0.0013827 -0.000204602 3.34463e-07)
(0.00134029 -0.000122585 5.21761e-07)
(0.00133967 -7.61337e-05 3.35121e-07)
(0.00133252 -4.69848e-05 3.33083e-07)
(0.00132802 -2.91713e-05 3.29689e-07)
(0.00132409 -1.82198e-05 3.30518e-07)
(0.00132077 -1.1412e-05 3.30225e-07)
(0.00131769 -7.19641e-06 3.29187e-07)
(0.00131484 -4.60074e-06 3.2798e-07)
(0.00131198 -3.00243e-06 3.2883e-07)
(0.00130975 -2.00187e-06 3.64245e-07)
(0.00130753 -1.89772e-06 2.79477e-07)
(0.00130494 -9.94904e-07 3.12619e-07)
(0.00130232 -6.34131e-07 2.40286e-07)
(0.00129996 -4.67979e-07 3.22982e-07)
(0.00129746 -4.23646e-07 3.46977e-07)
(0.00129523 -4.25401e-07 2.94873e-07)
(0.00129241 -8.56473e-07 4.8253e-07)
(0.00128928 -5.38795e-07 3.53199e-07)
(0.00128709 -3.48281e-07 3.55451e-07)
(0.00128425 -1.70083e-07 3.17588e-07)
(0.00128218 -2.15838e-07 1.86855e-07)
(0.00128068 5.14711e-07 2.26615e-07)
(0.00127826 8.23354e-07 4.7326e-07)
(0.00127628 9.0535e-07 3.56601e-07)
(0.00127361 8.33726e-07 2.06527e-07)
(0.00126992 4.91461e-07 1.79473e-07)
(0.0012676 -5.07433e-08 3.32225e-07)
(0.00126568 9.68859e-08 3.19497e-07)
(0.00126315 1.33013e-07 2.8679e-07)
(0.00126056 -5.6395e-09 3.22561e-07)
(0.00125804 -3.12234e-07 3.01645e-07)
(0.00125536 -2.91717e-08 4.46677e-07)
(0.00125247 -8.11059e-08 3.62137e-07)
(0.00124976 1.95148e-07 3.44051e-07)
(0.00124776 9.45247e-07 6.77659e-07)
(0.00124639 1.04468e-06 2.91093e-07)
(0.00124438 5.69511e-07 3.34359e-07)
(0.00124175 4.64747e-07 3.21817e-07)
(0.00123901 7.00383e-07 2.87577e-07)
(0.00123616 6.85915e-07 2.78093e-07)
(0.00123371 4.18468e-07 3.17069e-07)
(0.00123222 2.28699e-07 5.04773e-07)
(0.00587877 -0.019622 0.000454198)
(0.00539822 0.00223851 -0.0058211)
(0.0210467 -0.0232562 -0.0057874)
(-0.0458375 -0.0513725 0.0161623)
(-0.0183854 -0.033758 -0.0732512)
(0.0090118 0.0122482 0.002156)
(0.00163051 -0.000513027 9.81009e-05)
(0.00149942 -0.000159417 2.08973e-07)
(0.00143306 -8.41796e-05 3.56491e-07)
(0.00138835 -5.43077e-05 2.48938e-07)
(0.00136234 -3.37169e-05 3.37328e-07)
(0.00134588 -2.11533e-05 -2.74638e-07)
(0.00133495 -1.35105e-05 3.30419e-07)
(0.00132746 -8.42078e-06 3.31716e-07)
(0.00132187 -5.23171e-06 3.29858e-07)
(0.00131746 -3.25399e-06 3.28606e-07)
(0.00131391 -2.03264e-06 3.27783e-07)
(0.00131026 -1.15923e-06 2.39078e-07)
(0.00130761 -1.01152e-06 2.29952e-07)
(0.00130538 -9.76622e-07 2.97342e-07)
(0.00130263 -7.75191e-07 1.79966e-07)
(0.00130007 -6.49092e-07 3.24718e-07)
(0.00129737 -6.56517e-07 1.08447e-07)
(0.00129447 -3.34756e-07 3.775e-07)
(0.00129254 -6.54609e-07 1.50789e-07)
(0.0012906 -5.03847e-08 2.28571e-07)
(0.00128772 2.7621e-07 3.86542e-07)
(0.00128521 7.26025e-07 3.59794e-07)
(0.00128326 1.40573e-06 2.50376e-07)
(0.00128067 1.12115e-06 2.97717e-07)
(0.00127764 6.95996e-07 3.59586e-07)
(0.00127509 8.0678e-07 2.03537e-07)
(0.0012726 -9.04237e-08 3.12973e-07)
(0.00127022 -8.80557e-08 3.17511e-07)
(0.00126792 1.916e-07 3.07327e-07)
(0.00126562 9.8109e-08 3.03061e-07)
(0.00126306 -8.08356e-08 4.70437e-07)
(0.00126061 -1.64322e-07 2.5342e-07)
(0.00125786 -4.45174e-07 1.8874e-07)
(0.00125505 -4.57492e-07 1.42522e-07)
(0.00125294 -2.34592e-07 3.11537e-07)
(0.00125114 2.26669e-07 4.10897e-07)
(0.0012486 5.79526e-07 5.99044e-07)
(0.00124591 9.02684e-07 -4.01565e-08)
(0.00124353 2.77265e-07 3.32269e-07)
(0.00124147 1.20566e-07 3.12566e-07)
(0.00123925 -3.88803e-08 3.42251e-07)
(0.00123617 5.16793e-07 3.00771e-07)
(0.00123354 3.58222e-07 3.61655e-07)
(0.00123172 4.49164e-07 5.20453e-07)
(0.00184729 0.0177835 0.0017337)
(-0.0146931 0.0346835 -0.00309536)
(-0.00109827 -0.00747589 0.0120634)
(0.016358 0.00504622 0.0284814)
(0.0202608 0.0147581 -0.000446746)
(-0.00743627 0.0215858 0.00667303)
(0.000911843 0.000173259 -3.72077e-05)
(0.00146337 -5.95082e-05 3.11243e-07)
(0.00147326 4.0218e-07 3.1231e-07)
(0.00140331 -8.68497e-06 4.27219e-07)
(0.00137431 -6.63236e-06 3.61907e-07)
(0.00135349 -5.1838e-06 3.04553e-07)
(0.00134014 -3.21598e-06 4.91499e-07)
(0.00133121 -2.22932e-06 3.3311e-07)
(0.0013242 -1.5056e-06 3.12935e-07)
(0.00131887 -9.82214e-07 3.24673e-07)
(0.00131461 -6.03354e-07 3.28266e-07)
(0.00131104 -4.64342e-07 3.24123e-07)
(0.00130776 2.86676e-08 3.4558e-07)
(0.00130525 3.83046e-08 3.66103e-07)
(0.00130274 -2.7829e-07 3.60186e-07)
(0.00130011 1.30285e-07 6.579e-07)
(0.00129786 1.18789e-07 3.91834e-07)
(0.00129524 2.75315e-07 3.7116e-07)
(0.00129276 6.27542e-07 4.03237e-07)
(0.00129045 2.0751e-07 3.60537e-07)
(0.00128806 3.61444e-07 3.76288e-07)
(0.00128565 4.77153e-07 3.0702e-07)
(0.00128266 6.85264e-07 2.83067e-07)
(0.00127978 4.5661e-07 3.87976e-07)
(0.00127785 1.73926e-07 3.49238e-07)
(0.00127529 -2.60872e-07 3.33151e-07)
(0.00127249 1.70567e-07 5.54991e-07)
(0.00127027 1.69209e-07 3.1787e-07)
(0.00126783 2.85107e-07 3.17593e-07)
(0.00126534 6.93668e-09 3.15967e-07)
(0.00126283 -1.32553e-07 3.39073e-07)
(0.00126011 -1.97015e-07 2.79498e-07)
(0.00125767 -2.55587e-07 3.11114e-07)
(0.00125563 -1.67433e-07 -6.91309e-08)
(0.00125333 2.97886e-07 4.39568e-07)
(0.00125077 3.34164e-07 1.05729e-06)
(0.0012486 1.20906e-07 1.22177e-07)
(0.001246 8.13445e-08 2.52328e-07)
(0.00124339 -2.31295e-07 3.28346e-07)
(0.00124136 -3.93749e-07 3.08545e-07)
(0.0012395 -9.5036e-07 8.74357e-08)
(0.00123666 -1.45422e-06 2.6118e-07)
(0.00123361 -4.61612e-07 4.596e-07)
(0.00123121 7.42047e-08 3.25544e-07)
(0.00133775 0.00754795 0.00131619)
(0.0254596 -0.013754 -0.0257219)
(-0.0593267 -0.010072 0.0299066)
(-0.00261058 0.00753311 0.00235538)
(-0.0950535 -0.0361655 0.00975119)
(-0.015677 -0.030021 0.000455109)
(0.00114363 -0.000575476 -6.0307e-05)
(0.00126807 3.58284e-05 3.09798e-07)
(0.00146184 4.47871e-05 3.35075e-07)
(0.00137956 3.00121e-05 2.51985e-07)
(0.00136682 1.83832e-05 3.26552e-07)
(0.00135022 1.14465e-05 4.18568e-07)
(0.00133868 7.417e-06 3.92669e-07)
(0.00132962 4.55627e-06 3.32107e-07)
(0.00132344 2.79214e-06 4.30163e-07)
(0.00131861 1.72422e-06 3.33923e-07)
(0.00131457 1.07982e-06 3.28222e-07)
(0.00131106 7.295e-07 3.91414e-07)
(0.00130824 5.24624e-07 3.02751e-07)
(0.001305 8.35271e-07 6.23471e-07)
(0.00130275 9.33665e-07 3.57091e-07)
(0.00130057 6.84652e-07 3.93649e-07)
(0.00129755 5.10558e-07 3.31837e-07)