/*--------------------------------*- C++ -*----------------------------------*\
| =========                 |                                                 |
| \\      /  F ield         | OpenFOAM: The Open Source CFD Toolbox           |
|  \\    /   O peration     | Version:  5.0                                   |
|   \\  /    A nd           | Web:      www.OpenFOAM.org                      |
|    \\/     M anipulation  |                                                 |
\*---------------------------------------------------------------------------*/
FoamFile
{
    version     2.0;
    format      ascii;
    class       volVectorField;
    location    "0.8";
    object      U_0;
}
// * * * * * * * * * * * * * * * * * * * * * * * * * * * * * * * * * * * * * //

dimensions      [0 1 -1 0 0 0 0];

internalField   nonuniform List<vector> 
9585
(
(-0.00865088 -0.00268582 0.000676721)
(-0.00422086 -0.00959585 0.000910899)
(-0.0226023 -0.000480106 0.000527375)
(0.0176279 0.00245192 0.00150342)
(-0.0291971 -0.0139344 0.000157197)
(-0.000153186 7.39997e-05 -7.41535e-05)
(0.000330469 -4.98334e-05 -7.97134e-07)
(0.000701349 -5.97237e-05 -1.47418e-06)
(0.000716999 -2.94688e-05 -2.11348e-07)
(0.000752034 -1.69041e-05 1.41418e-07)
(0.000768072 -9.56151e-06 1.02842e-07)
(0.000778969 -5.78174e-06 6.02127e-08)
(0.000785728 -3.46539e-06 -2.85185e-10)
(0.000788923 -1.78053e-06 4.1662e-08)
(0.000790058 -1.14947e-06 4.86211e-08)
(0.000790464 -8.6259e-07 -1.96946e-09)
(0.000790247 -5.36361e-07 5.18561e-08)
(0.000789628 -2.13938e-07 7.52171e-08)
(0.00078793 -4.68703e-07 4.36535e-08)
(0.000786656 -4.13429e-07 7.15681e-08)
(0.000785914 -3.09603e-07 6.345e-08)
(0.000784463 -1.13541e-07 1.99804e-08)
(0.000782888 -1.04611e-07 4.93085e-08)
(0.00078143 1.54925e-07 4.77182e-08)
(0.000780041 4.14953e-07 6.34625e-08)
(0.000778659 3.86745e-07 7.54736e-08)
(0.000777242 2.27129e-07 7.01324e-08)
(0.000775974 1.51748e-07 5.10011e-08)
(0.000774167 4.39515e-07 7.5827e-08)
(0.000772405 -1.88535e-07 5.87524e-08)
(0.000771074 -6.12972e-07 -5.8062e-08)
(0.000769441 -4.9849e-07 -7.46329e-09)
(0.00076799 -4.27495e-07 9.31505e-08)
(0.000766925 -2.73003e-07 6.61935e-08)
(0.000765627 -6.12924e-08 4.43644e-08)
(0.000764046 -3.62813e-08 5.3685e-08)
(0.000762489 -5.68519e-08 3.22931e-08)
(0.000760936 8.7051e-08 4.171e-08)
(0.000759466 3.39715e-07 -3.98553e-10)
(0.000758349 3.90304e-07 1.21945e-07)
(0.000757151 2.91805e-08 2.99096e-08)
(0.00075554 -5.47033e-09 7.34733e-08)
(0.000754293 -2.61029e-07 9.30889e-08)
(0.000752819 -2.7013e-07 2.38113e-07)
(0.000751197 -1.57039e-07 4.3152e-08)
(0.000749894 -8.44352e-08 7.49878e-08)
(0.000748556 -1.44095e-07 6.37541e-08)
(0.000747149 -5.17998e-07 1.27886e-07)
(0.000745638 -4.7687e-07 3.32725e-08)
(0.00074403 -2.6385e-07 7.66067e-08)
(0.00852324 0.00894353 -0.00394033)
(-0.0143719 0.0300809 0.000161604)
(0.0196325 0.00295194 0.000942995)
(-0.0176657 0.00621475 0.000524432)
(0.0523354 -0.00397455 -0.00326208)
(0.00647215 0.000127202 2.07619e-05)
(0.000361656 -0.000154872 -1.49863e-06)
(0.000753338 -9.39747e-05 -2.82065e-06)
(0.000758353 -5.97747e-05 -1.71262e-07)
(0.000773412 -3.8691e-05 5.07308e-08)
(0.000780952 -2.4578e-05 1.88757e-08)
(0.000786708 -1.54033e-05 4.63829e-08)
(0.000789915 -9.69334e-06 4.71534e-08)
(0.000791419 -6.38805e-06 4.4815e-08)
(0.000791665 -4.00677e-06 4.92566e-08)
(0.000791558 -2.65223e-06 6.81924e-08)
(0.000791009 -1.66031e-06 4.64004e-08)
(0.000789562 -1.27975e-06 1.05409e-08)
(0.000788462 -7.9021e-07 8.42541e-08)
(0.000787442 -2.65271e-07 2.82188e-08)
(0.000785954 -1.71012e-08 1.06218e-07)
(0.000784443 -1.08421e-07 6.16494e-08)
(0.000783162 1.9223e-07 1.09696e-07)
(0.000781946 1.03825e-07 4.1486e-08)
(0.000780193 2.17902e-07 5.44119e-08)
(0.000778451 4.61367e-08 5.73852e-08)
(0.000777037 -4.51278e-08 -3.09196e-10)
(0.000775945 -2.55231e-07 4.53359e-08)
(0.000773912 -9.59363e-07 -9.30435e-09)
(0.000771739 -5.37257e-07 5.16448e-08)
(0.000770864 -4.95202e-07 1.43154e-07)
(0.000769804 -2.78962e-07 6.84354e-09)
(0.000768377 3.16151e-07 2.09218e-07)
(0.000767176 6.18361e-07 2.9028e-08)
(0.000765738 2.76385e-07 4.73229e-08)
(0.000764109 1.68271e-07 4.48783e-08)
(0.000762678 1.59535e-07 4.11633e-08)
(0.000761251 2.09146e-07 5.51301e-08)
(0.000759725 3.49182e-07 1.8604e-08)
(0.000758044 4.95584e-07 7.63207e-08)
(0.000756625 8.49441e-08 5.82079e-08)
(0.000755247 -2.79321e-07 4.33065e-08)
(0.000753863 -5.4403e-07 2.48703e-08)
(0.000752799 -3.46352e-07 6.84793e-08)
(0.000751465 -8.9869e-08 5.5597e-08)
(0.000749917 -5.73292e-08 3.77885e-08)
(0.000748446 -9.13156e-08 1.1408e-07)
(0.000747064 -1.58379e-07 -4.11886e-08)
(0.00074558 -1.99965e-07 5.85057e-08)
(0.000744655 -2.26827e-07 2.3199e-08)
(-0.00341474 0.0101239 -1.36358e-05)
(0.00714387 0.0115862 0.00315927)
(-0.0168661 0.000500615 0.000455869)
(0.0232435 0.00184644 -0.00011615)
(0.00817947 -0.00661663 -0.00314861)
(-0.00517413 -0.00636242 -0.000263188)
(0.000221757 -1.60735e-05 9.61909e-07)
(0.000792309 -0.000116613 -2.20291e-06)
(0.00078655 -7.54323e-05 -5.71894e-09)
(0.000796355 -4.95003e-05 9.60522e-08)
(0.00079739 -3.16288e-05 4.6658e-08)
(0.000797706 -2.00379e-05 5.06722e-08)
(0.000797081 -1.27164e-05 4.76805e-08)
(0.000796084 -8.03069e-06 5.09162e-08)
(0.000794762 -5.00272e-06 5.13792e-08)
(0.000793419 -3.0369e-06 5.23447e-08)
(0.000791978 -2.00456e-06 5.67056e-08)
(0.000790726 -1.27839e-06 1.04124e-07)
(0.000789205 -7.58142e-07 -3.20318e-08)
(0.000787626 -4.8405e-07 3.98225e-08)
(0.000786111 -3.39581e-07 5.506e-08)
(0.000784723 -1.59111e-07 4.53805e-08)
(0.000783152 -5.8947e-08 4.00032e-08)
(0.00078146 -1.93572e-07 -1.2931e-08)
(0.000779967 -3.76795e-07 3.67888e-08)
(0.000778328 -2.70735e-07 1.02211e-07)
(0.000776865 -2.14287e-07 6.21782e-08)
(0.000774835 -1.89964e-07 6.4955e-08)
(0.000773819 -3.67354e-07 -9.20331e-08)
(0.000772991 3.564e-07 3.77473e-08)
(0.000771401 7.51036e-07 8.92902e-08)
(0.000770456 6.8313e-07 1.18424e-07)
(0.000769109 5.36675e-07 3.12011e-07)
(0.000766871 4.65448e-07 1.45204e-07)
(0.000765062 1.90295e-07 6.50526e-08)
(0.000763898 1.72207e-07 7.02826e-08)
(0.000762539 1.16747e-07 1.27828e-07)
(0.00076117 7.07057e-08 4.13101e-08)
(0.00075982 4.67885e-08 4.34232e-08)
(0.000758015 -6.51686e-08 1.74517e-08)
(0.000756181 5.18748e-08 7.08697e-08)
(0.000754756 -5.5698e-08 7.27812e-08)
(0.000754214 4.92467e-07 5.03502e-08)
(0.00075339 2.07174e-07 7.26663e-08)
(0.000751561 3.49822e-08 7.73592e-08)
(0.000749894 -9.67463e-09 6.71636e-08)
(0.000748431 9.99167e-08 4.53009e-08)
(0.000747014 8.90637e-08 5.02061e-08)
(0.000745558 1.22451e-07 3.63972e-08)
(0.000744562 8.1166e-08 6.73962e-08)
(-0.0131521 -0.00848203 0.00100409)
(0.0163804 -0.00375391 -0.000509934)
(-0.002311 -0.00141531 -0.000465926)
(0.00541595 0.00422876 0.0014042)
(-0.0186345 -0.00650153 -0.000959944)
(0.00574032 -0.00269421 0.00024615)
(0.00054328 -0.000269303 6.32732e-05)
(0.000862223 -0.000127954 -3.02902e-06)
(0.000842957 -7.219e-05 -9.52742e-08)
(0.000828575 -4.59999e-05 4.28028e-08)
(0.000818041 -2.85489e-05 4.32244e-08)
(0.000810512 -1.78353e-05 5.17536e-08)
(0.000805027 -1.13325e-05 5.06675e-08)
(0.000801125 -6.9429e-06 4.9899e-08)
(0.000797947 -4.09566e-06 4.57579e-08)
(0.000795331 -2.47035e-06 4.61015e-08)
(0.000793223 -1.58495e-06 4.50576e-08)
(0.000791131 -9.59132e-07 7.4008e-08)
(0.000789462 -7.55356e-07 2.96579e-08)
(0.000787971 -5.29896e-07 2.78864e-08)
(0.000786364 -4.55458e-07 2.30353e-08)
(0.000784796 -3.17309e-07 4.94483e-08)
(0.00078312 -4.6669e-07 3.39916e-08)
(0.000781552 -2.29102e-07 6.63225e-08)
(0.000780099 -2.16753e-07 2.20899e-07)
(0.000778657 1.37511e-08 3.94322e-08)
(0.000777139 1.55595e-07 6.23465e-08)
(0.000775755 3.40861e-07 8.3277e-08)
(0.000774594 1.03287e-06 6.97757e-08)
(0.000773135 7.3117e-07 3.01772e-08)
(0.000771267 8.17207e-07 1.84915e-08)
(0.000769531 7.98333e-07 -2.18373e-08)
(0.0007681 1.21375e-07 6.88701e-08)
(0.00076674 -1.49459e-07 4.45206e-08)
(0.00076537 8.07395e-08 -7.01861e-09)
(0.000764016 9.11824e-08 4.12599e-08)
(0.00076255 9.61817e-08 3.6844e-08)
(0.000761163 4.76789e-08 5.21713e-08)
(0.000759555 -2.50715e-07 1.50788e-08)
(0.000758051 -2.58968e-07 1.87111e-08)
(0.000756637 7.44285e-08 4.36109e-08)
(0.000755795 4.54353e-07 1.29281e-07)
(0.000754188 6.3153e-07 6.35506e-08)
(0.000752224 3.20422e-07 1.09889e-08)
(0.000751191 2.92099e-08 4.39266e-08)
(0.000749995 9.13954e-09 4.28046e-08)
(0.000748567 1.6709e-07 4.43712e-08)
(0.00074709 1.39007e-07 3.14372e-08)
(0.000745566 2.29163e-07 3.75799e-08)
(0.0007444 2.21515e-07 4.62345e-08)
(-0.000623273 0.0031359 1.04163e-05)
(-0.00346986 0.0222048 -0.00256075)
(-0.000195295 -0.00509813 0.00124748)
(0.0109182 -0.00301908 -0.00753601)
(0.0031045 -0.00362906 -0.000460496)
(-0.0136403 -0.00725532 -0.00018246)
(0.00111198 -1.56487e-05 -3.53175e-06)
(0.000880421 -8.58855e-05 -2.33973e-06)
(0.000889948 -3.82635e-05 3.79744e-07)
(0.000851254 -2.40301e-05 9.15689e-08)
(0.000832812 -1.42089e-05 9.19699e-08)
(0.000819361 -8.81317e-06 4.14715e-08)
(0.000810779 -5.07925e-06 1.22665e-07)
(0.000805182 -3.2817e-06 5.19562e-08)
(0.000800384 -2.28811e-06 3.50088e-08)
(0.000796576 -1.47254e-06 3.75393e-08)
(0.000793878 -8.47122e-07 4.99929e-08)
(0.00079177 -5.88147e-07 4.93517e-08)
(0.000789747 -2.70768e-07 9.44084e-08)
(0.000788005 -1.14864e-07 8.46105e-08)
(0.000786381 -8.78728e-08 6.40786e-08)
(0.000784713 -4.07647e-08 7.59622e-08)
(0.000783265 4.66717e-09 3.15203e-07)
(0.000781775 9.8734e-08 9.96793e-08)
(0.000780272 1.77647e-07 9.74762e-08)
(0.000778794 1.0795e-07 6.6038e-08)
(0.000777272 1.98492e-07 6.74803e-08)
(0.000775926 2.00194e-07 1.44058e-08)
(0.0007743 2.02804e-07 5.3834e-09)
(0.000772713 1.16306e-07 2.46512e-08)
(0.000771477 1.80392e-07 4.89519e-08)
(0.00076958 -2.17157e-07 5.54195e-08)
(0.000767921 3.1456e-08 4.97463e-08)
(0.000766819 9.52783e-09 5.23705e-08)
(0.000765362 5.7243e-08 5.60137e-08)
(0.000763917 -7.76713e-08 4.82869e-08)
(0.000762484 -1.70597e-07 -1.12024e-09)
(0.000760738 -1.89438e-07 6.63844e-08)
(0.000759439 -1.33488e-07 9.48544e-08)
(0.000758423 2.74948e-08 7.31367e-08)
(0.000757072 1.78053e-07 4.64507e-08)
(0.000755449 4.99242e-07 1.52124e-07)
(0.000754042 1.46851e-07 6.35752e-08)
(0.000752634 1.42415e-07 -3.58154e-08)
(0.00075117 6.39757e-08 7.33437e-08)
(0.000750065 -4.41085e-08 4.70943e-08)
(0.000748592 -2.59194e-07 5.48821e-10)
(0.000747091 -3.05253e-07 -2.84865e-07)
(0.000745655 -2.96073e-07 7.82701e-08)
(0.000744001 9.18752e-08 9.33957e-08)
(0.00287664 -0.00432341 0.000966528)
(-0.00192227 -0.0174728 0.00663477)
(-0.007448 0.00256361 0.000164065)
(0.013851 0.00233993 -0.00135507)
(0.0179337 -0.0164797 0.000442241)
(0.011461 -0.00269329 0.000423371)
(0.00178462 -0.000267063 9.71599e-06)
(0.000977851 3.00091e-05 -3.6437e-06)
(0.000914404 1.22402e-05 1.6438e-07)
(0.000858713 1.00284e-05 -1.22604e-07)
(0.000837142 6.61002e-06 4.82001e-08)
(0.000821971 4.37836e-06 3.29473e-08)
(0.000811971 3.08436e-06 5.87839e-08)
(0.000804633 1.79221e-06 4.3866e-08)
(0.000800222 8.54361e-07 7.64544e-08)
(0.000797141 4.58888e-07 9.6187e-08)
(0.000794335 3.04363e-07 4.83919e-08)
(0.000791855 1.8086e-07 8.34367e-08)
(0.000790055 4.57765e-08 2.23431e-08)
(0.0007882 1.56828e-07 4.66883e-08)
(0.000786456 1.80044e-07 5.04652e-08)
(0.000784912 1.74737e-07 2.80625e-07)
(0.000783294 1.88765e-07 1.36938e-07)
(0.000781767 1.00695e-07 5.42987e-08)
(0.00078011 1.24066e-07 2.15166e-08)
(0.000778681 7.77989e-08 7.27527e-08)
(0.000777253 -5.5589e-08 3.83376e-08)
(0.000775758 -1.52987e-07 7.13717e-08)
(0.000774487 -1.86159e-07 9.88395e-08)
(0.000773104 -3.83594e-07 7.9659e-08)
(0.000770849 -7.18515e-07 -9.12687e-09)
(0.000769343 -4.84329e-07 1.13259e-08)
(0.000768384 -1.99041e-07 4.7557e-08)
(0.000766771 -1.24945e-07 5.07408e-08)
(0.00076526 -1.40194e-07 -3.7676e-08)
(0.000763732 -2.30462e-08 4.44563e-08)
(0.000762412 -3.20174e-08 8.10738e-08)
(0.000761211 8.35749e-08 5.96239e-08)
(0.000759828 2.69159e-07 1.19846e-07)
(0.00075844 1.7255e-07 6.834e-08)
(0.000757225 1.98208e-07 2.89834e-08)
(0.000755755 1.58333e-07 -2.56641e-08)
(0.000753741 1.90823e-07 2.55516e-08)
(0.00075212 7.65979e-09 5.35865e-08)
(0.000750958 3.90937e-08 7.37068e-08)
(0.000749594 -1.43968e-07 4.49193e-08)
(0.000748244 -5.37111e-07 -3.45906e-07)
(0.000747047 -5.34183e-07 5.6857e-08)
(0.000746064 -4.52353e-07 1.21162e-07)
(0.000744655 -1.98702e-07 1.78644e-07)
(0.00498994 0.00386295 0.000723706)
(0.0270851 -0.013944 0.00195081)
(0.00767762 0.00731811 -0.00271455)
(-0.00070877 0.00906207 0.000118806)
(0.016586 -0.0157051 0.00061698)
(0.00219433 0.000737234 0.000443384)
(0.000888463 0.000299753 1.01593e-06)
(0.000952566 0.000124881 -1.62121e-06)
(0.000864298 6.2072e-05 -3.8494e-07)
(0.000844053 4.11684e-05 1.00112e-07)
(0.000825659 2.53841e-05 1.98221e-08)
(0.000814896 1.60539e-05 4.05584e-08)
(0.000807511 9.79994e-06 3.91886e-08)
(0.000802372 6.24729e-06 4.62386e-08)
(0.000798705 4.13046e-06 5.07192e-08)
(0.000795881 2.63983e-06 5.16324e-08)
(0.000793527 1.5808e-06 5.04325e-08)
(0.000791444 1.10199e-06 3.04393e-08)
(0.000789715 8.6242e-07 1.14683e-07)
(0.000788171 4.13607e-07 7.96382e-08)
(0.0007864 3.57384e-07 5.67905e-08)
(0.000784722 1.99731e-07 4.61909e-08)
(0.000783171 2.17989e-07 3.29791e-08)
(0.000781693 6.38341e-08 5.05445e-08)
(0.000780243 8.76326e-08 3.33325e-09)
(0.000778569 1.8897e-07 1.746e-07)
(0.000776984 -2.16891e-08 5.42571e-08)
(0.000775764 -8.37644e-08 6.26913e-08)
(0.000774015 -4.55091e-07 7.5059e-08)
(0.000772051 -8.30114e-07 2.44786e-08)
(0.000771356 -6.45215e-07 1.4006e-07)
(0.000770234 -1.16761e-07 7.08867e-08)
(0.000768373 -7.08271e-08 6.48512e-08)
(0.000766895 -1.01506e-07 5.19643e-08)
(0.000765491 -6.61584e-08 6.3924e-08)
(0.000764053 4.69407e-08 5.36297e-08)
(0.000762618 1.52433e-07 4.82928e-08)
(0.000761114 1.54574e-07 7.51867e-08)
(0.000759549 1.75719e-07 5.64413e-08)
(0.000758333 2.97222e-07 1.03421e-08)
(0.000757053 1.52133e-08 4.20992e-08)
(0.000755438 -2.66658e-07 2.44511e-09)
(0.000753853 -3.54912e-07 3.12488e-08)
(0.000752444 -1.49183e-07 5.02101e-08)
(0.000750982 -8.8645e-08 4.40801e-09)
(0.000749347 3.62707e-09 4.84427e-08)
(0.000748108 -4.46357e-09 1.13457e-08)
(0.000747201 -2.59493e-07 6.70908e-08)
(0.000746083 -1.20635e-07 2.25348e-07)
(0.000744813 -2.48859e-07 5.98286e-08)
(-0.0109809 0.0170774 0.000412445)
(4.70472e-05 -0.00576541 -0.000572761)
(-0.00246744 -0.0106819 -0.000818349)
(0.00601759 0.0031238 0.000270672)
(-0.0125845 0.0170489 0.00237459)
(0.0105677 -0.00283451 -4.09489e-05)
(0.000634906 0.000241663 5.89203e-05)
(0.000869513 0.000158984 -2.18693e-06)
(0.00081267 9.33196e-05 -3.16239e-07)
(0.000812546 5.73541e-05 9.97149e-08)
(0.000805525 3.50182e-05 1.3001e-08)
(0.000802353 2.16233e-05 4.06387e-08)
(0.000799626 1.33546e-05 4.46852e-08)
(0.000797492 8.27687e-06 4.59719e-08)
(0.000795677 5.2171e-06 4.64081e-08)
(0.000793932 3.35832e-06 4.8442e-08)
(0.000792398 2.14615e-06 1.26345e-07)
(0.000790948 1.37425e-06 5.40031e-08)
(0.000789189 1.02978e-06 -1.38837e-07)
(0.000787565 7.10648e-07 2.68582e-08)
(0.000786186 3.3397e-07 4.76258e-08)
(0.000784736 1.65863e-07 5.3285e-08)
(0.000783123 -1.63614e-08 3.708e-08)
(0.000781602 1.30537e-08 4.81136e-08)
(0.000780265 -1.994e-07 3.92749e-08)
(0.000778544 -2.4875e-07 4.96472e-08)
(0.000776912 -3.31817e-08 3.70816e-08)
(0.000775219 -4.99842e-08 2.69821e-08)
(0.000773559 -1.43821e-07 4.66496e-08)
(0.000772873 3.56122e-07 7.54765e-08)
(0.000771746 5.07902e-07 9.37763e-08)
(0.000770064 7.34321e-08 5.1427e-08)
(0.000768404 4.4192e-08 4.39972e-08)
(0.000766778 3.00402e-08 3.57155e-08)
(0.000765447 2.43052e-08 4.98633e-08)
(0.000764006 -1.13602e-07 3.56649e-08)
(0.000762546 -1.85412e-07 5.91396e-08)
(0.00076124 -2.31128e-07 2.55902e-09)
(0.000760005 5.80494e-08 4.04529e-08)
(0.000758239 1.15332e-07 7.5893e-08)
(0.00075652 -7.38816e-08 1.56527e-08)
(0.000755293 -1.21806e-07 4.81738e-08)
(0.00075389 -1.56086e-07 -6.23e-08)
(0.000752455 -1.24014e-07 4.90363e-08)
(0.000751151 -4.68769e-08 5.64567e-08)
(0.0007497 1.25395e-07 4.47477e-08)
(0.000747916 4.92741e-07 5.72352e-08)
(0.000746904 5.71558e-07 6.99517e-08)
(0.000746085 1.12669e-07 3.59826e-08)
(0.000745117 -2.91671e-08 -4.56447e-08)
(0.00965716 -0.0085579 -0.000787996)
(0.000724841 -8.23516e-05 -0.0027112)
(-0.0130294 -0.014302 0.000204266)
(0.0285414 0.00927767 0.00081041)
(0.000148956 -0.0044786 -0.000897877)
(0.0129615 -0.00248677 -5.20193e-05)
(0.000456487 0.000212085 3.30645e-06)
(0.000747131 0.00013552 -9.50409e-07)
(0.000736929 8.10783e-05 -2.93787e-07)
(0.000770736 4.92664e-05 1.90591e-07)
(0.00078072 3.00152e-05 5.2976e-08)
(0.000787647 1.8579e-05 6.11867e-08)
(0.000790722 1.14611e-05 5.39631e-08)
(0.000792135 6.84564e-06 5.4106e-08)
(0.000792515 4.30984e-06 5.27361e-08)
(0.000792016 2.7322e-06 1.04689e-07)
(0.000791029 1.80724e-06 6.49172e-08)
(0.000790038 9.78491e-07 3.59387e-08)
(0.000788877 6.35193e-07 2.22293e-08)
(0.000787296 5.98736e-07 7.6122e-08)
(0.000785717 3.79673e-07 4.92462e-08)
(0.000784284 1.13685e-07 4.09759e-08)
(0.00078298 -5.90983e-08 5.49894e-08)
(0.000781466 -1.23921e-07 5.27672e-08)
(0.000779917 -3.03437e-07 6.42451e-08)
(0.00077878 -4.12931e-07 5.79193e-08)
(0.000777234 -1.89645e-07 2.9808e-08)
(0.000775627 -7.82145e-08 2.79969e-07)
(0.000774522 1.80127e-07 -1.92903e-07)
(0.000772864 5.45944e-07 3.07685e-08)
(0.000771 3.26758e-07 1.34792e-07)
(0.000769652 1.49279e-07 1.33305e-07)
(0.000768319 -6.98087e-08 -3.41898e-07)
(0.00076687 -1.00468e-07 1.27683e-08)
(0.000765312 -1.20087e-07 2.52819e-08)
(0.000763792 -1.05196e-07 7.45563e-08)
(0.000762473 -4.17317e-08 -3.76154e-08)
(0.000761419 -1.22892e-07 4.9902e-08)
(0.000759983 -4.28733e-07 8.76427e-08)
(0.000758168 -6.49852e-07 3.68366e-08)
(0.000756757 -2.74322e-07 4.55035e-08)
(0.000755337 -1.71416e-07 -1.70422e-08)
(0.000753851 -2.33769e-08 4.61677e-08)
(0.000752582 6.97236e-08 4.17742e-08)
(0.000751294 1.46726e-07 4.52299e-08)
(0.00075002 1.34591e-07 2.87271e-09)
(0.000748663 3.07836e-07 4.98972e-08)
(0.000746723 9.93681e-07 2.66124e-08)
(0.000745332 7.71127e-07 -9.84932e-08)
(0.000744705 3.39668e-07 9.01525e-08)
(0.00295027 0.00445884 3.61302e-05)
(-0.00303227 -0.00726989 0.000212507)
(-0.000470988 -0.0215629 -0.00171802)
(-0.00415107 0.0013429 0.000990043)
(-0.00895551 0.00265235 -0.00163926)
(0.00105808 0.000906716 0.000149153)
(0.000308477 4.62806e-05 2.21146e-07)
(0.000686746 3.3135e-05 -1.08087e-06)
(0.000704607 2.63903e-05 -2.26905e-07)
(0.000748361 1.73087e-05 1.81414e-07)
(0.000766948 1.14988e-05 1.07266e-07)
(0.000779026 7.23702e-06 7.10573e-08)
(0.000784877 4.58698e-06 1.38421e-07)
(0.000788502 3.26188e-06 -1.15647e-07)
(0.000790504 2.03098e-06 5.21133e-08)
(0.000790783 1.30537e-06 6.51996e-08)
(0.000790193 7.94749e-07 4.9777e-08)
(0.000789475 6.83771e-07 8.0275e-08)
(0.000788709 4.70006e-07 7.08918e-08)
(0.000787242 -7.23086e-08 -1.93e-09)
(0.000785578 -4.14541e-08 1.02249e-07)
(0.000784187 8.51306e-08 6.76785e-08)
(0.000782827 1.02057e-07 5.4572e-08)
(0.0007813 1.15282e-08 4.94901e-08)
(0.000779907 7.41844e-08 5.41791e-08)
(0.00077869 1.11063e-07 3.83699e-08)
(0.000777334 -2.16964e-08 3.62971e-08)
(0.000775681 1.17341e-07 4.81909e-08)
(0.000774337 2.56477e-07 -9.47961e-08)
(0.000773053 -1.66442e-07 2.65728e-08)
(0.000771247 -1.11392e-07 7.66438e-08)
(0.000769568 -1.08474e-07 2.56935e-08)
(0.000768092 -2.82677e-07 -2.15409e-07)
(0.000766717 -3.73996e-07 1.34255e-07)
(0.000765442 -2.41235e-07 3.52664e-08)
(0.000764104 -1.22805e-07 6.89995e-08)
(0.000762525 -3.82873e-08 2.6759e-08)
(0.000760758 -1.09272e-07 4.85736e-08)
(0.000759349 -4.25675e-07 4.01661e-09)
(0.000758435 -5.24498e-07 6.40952e-08)
(0.000757121 -2.837e-07 6.43631e-08)
(0.000755608 -2.1156e-07 2.2511e-08)
(0.000754192 -1.22237e-07 4.02863e-08)
(0.000752667 1.42284e-07 4.59482e-08)
(0.000751231 6.84422e-08 -3.92103e-08)
(0.000749899 6.67622e-08 4.22438e-08)
(0.000748986 -3.14038e-08 2.93103e-08)
(0.000747476 -1.8002e-08 2.1812e-08)
(0.000745253 3.10485e-07 -4.09595e-08)
(0.000743731 2.33181e-07 6.41915e-08)
(-0.00755891 0.0061078 -0.00055028)
(-0.0125044 0.00671253 0.00654399)
(-0.0150249 -0.00108413 0.00745866)
(0.00561496 -0.00396527 -0.00398085)
(0.0815814 0.00497971 -0.00518016)
(-4.21029e-05 -0.00311023 0.000144359)
(0.00103207 -0.000171396 -1.526e-06)
(0.00118797 -0.000102518 2.9934e-07)
(0.0012073 -5.16238e-05 2.8519e-07)
(0.00126229 -2.99226e-05 3.25617e-07)
(0.00128673 -1.71358e-05 3.5066e-07)
(0.0013034 -1.04453e-05 2.30569e-07)
(0.0013137 -6.32817e-06 2.46481e-07)
(0.00131846 -3.34929e-06 1.52932e-07)
(0.00132 -2.14932e-06 3.3878e-07)
(0.00132043 -1.53921e-06 2.69298e-07)
(0.00131989 -9.61723e-07 3.32251e-07)
(0.00131874 -3.90812e-07 3.38697e-07)
(0.00131593 -7.10365e-07 3.76327e-07)
(0.00131372 -6.42642e-07 3.31441e-07)
(0.00131237 -4.72651e-07 4.4488e-07)
(0.00130992 -1.04679e-07 9.51665e-09)
(0.00130728 -6.69749e-08 3.15954e-07)
(0.00130488 3.01236e-07 2.85418e-07)
(0.00130254 7.29432e-07 3.46982e-07)
(0.00130019 7.23851e-07 3.46143e-07)
(0.00129785 4.19701e-07 3.15685e-07)
(0.00129579 2.48405e-07 3.36695e-07)
(0.00129276 6.67237e-07 4.58163e-07)
(0.0012898 -3.63213e-07 4.7731e-07)
(0.00128758 -1.06359e-06 2.46223e-07)
(0.00128483 -8.76131e-07 1.10938e-07)
(0.00128248 -6.74346e-07 3.93747e-07)
(0.00128081 -3.83177e-07 4.18874e-07)
(0.00127867 2.12547e-09 3.14121e-07)
(0.00127599 2.77909e-08 3.2047e-07)
(0.00127331 -4.35489e-08 3.02045e-07)
(0.00127067 2.12919e-07 2.98327e-07)
(0.00126838 6.66793e-07 1.60305e-07)
(0.00126659 6.56534e-07 3.974e-07)
(0.00126448 6.77426e-08 2.81078e-07)
(0.00126182 -2.66972e-09 3.49201e-07)
(0.0012599 -5.04079e-07 3.6983e-07)
(0.00125738 -4.69992e-07 6.8819e-07)
(0.00125466 -2.92022e-07 3.29244e-07)
(0.00125251 -1.85765e-07 3.64646e-07)
(0.00125022 -2.36623e-07 3.05639e-07)
(0.00124797 -8.06845e-07 4.09472e-07)
(0.0012454 -7.61301e-07 3.14931e-07)
(0.00124266 -4.63216e-07 3.59131e-07)
(0.00683712 0.0201306 0.000333526)
(-0.0138755 -0.00560595 -0.000602914)
(-0.0261748 -0.00363601 -0.00220174)
(-0.033476 0.0329606 0.0112875)
(0.0299597 0.0259988 -0.0230684)
(0.00648176 -0.00644849 -0.00222812)
(0.00113326 -0.00045102 -7.55087e-07)
(0.00127475 -0.000153851 3.44767e-07)
(0.00127495 -9.75176e-05 3.73287e-07)
(0.00129755 -6.30338e-05 4.78813e-07)
(0.00130804 -4.00031e-05 3.26442e-07)
(0.00131627 -2.5038e-05 3.28745e-07)
(0.00132072 -1.57393e-05 3.3079e-07)
(0.00132265 -1.03399e-05 3.29609e-07)
(0.00132273 -6.49123e-06 3.3081e-07)
(0.00132226 -4.28462e-06 2.6809e-07)
(0.00132116 -2.69494e-06 3.28993e-07)
(0.00131875 -2.08985e-06 1.16454e-07)
(0.00131674 -1.30367e-06 4.17991e-07)
(0.00131489 -4.64208e-07 3.00383e-07)
(0.00131246 -1.75931e-08 3.40133e-07)
(0.00130996 -1.6856e-07 3.66752e-07)
(0.00130774 3.53333e-07 5.39327e-07)
(0.00130567 2.20703e-07 2.90624e-07)
(0.00130281 4.43343e-07 3.17373e-07)
(0.00129985 1.39477e-07 3.25027e-07)
(0.00129745 -8.68984e-10 2.60241e-07)
(0.0012956 -4.075e-07 3.23815e-07)
(0.00129229 -1.60003e-06 3.52224e-07)
(0.00128878 -9.06514e-07 3.39059e-07)
(0.00128728 -8.00535e-07 3.61762e-07)
(0.00128552 -4.44996e-07 2.67644e-07)
(0.00128321 6.51569e-07 6.42531e-07)
(0.00128122 1.06612e-06 4.68723e-07)
(0.00127878 4.47409e-07 3.23915e-07)
(0.00127603 2.5516e-07 3.14433e-07)
(0.00127366 2.80631e-07 3.09922e-07)
(0.00127137 3.99652e-07 3.6033e-07)
(0.00126876 6.98179e-07 3.06825e-07)
(0.00126593 8.41359e-07 5.05583e-07)
(0.0012636 1.65954e-07 3.3089e-07)
(0.00126126 -4.15343e-07 3.1929e-07)
(0.00125901 -8.34825e-07 2.41802e-07)
(0.00125736 -6.86245e-07 5.69348e-07)
(0.00125514 -1.94948e-07 3.54421e-07)
(0.00125257 -1.78064e-07 2.86786e-07)
(0.00125014 -1.12025e-07 3.65936e-07)
(0.00124781 -2.41656e-07 1.60157e-07)
(0.00124534 -3.51697e-07 3.17246e-07)
(0.00124376 -3.92232e-07 2.07087e-07)
(-0.00904951 0.0139266 0.00418676)
(0.0057597 -0.00618201 0.0198562)
(0.00687542 -0.0264182 -0.00258771)
(0.00416671 0.0220475 0.00287692)
(0.0327796 -0.0317594 -0.00348525)
(-0.0240551 -0.00698128 -0.00183863)
(0.00116866 -0.000123816 4.10906e-05)
(0.00133762 -0.000186056 3.51722e-07)
(0.00132145 -0.00011959 5.1806e-07)
(0.00133468 -7.82919e-05 3.34673e-07)
(0.00133455 -4.99182e-05 3.34165e-07)
(0.00133394 -3.15815e-05 3.3392e-07)
(0.0013322 -2.00182e-05 3.33067e-07)
(0.0013301 -1.26348e-05 3.33041e-07)
(0.00132762 -7.87725e-06 3.32369e-07)
(0.00132521 -4.80986e-06 3.30668e-07)
(0.00132266 -3.17279e-06 3.33709e-07)
(0.00132049 -2.06219e-06 4.12693e-07)
(0.00131797 -1.33252e-06 2.21396e-07)
(0.00131533 -8.24507e-07 3.17624e-07)
(0.00131274 -5.80978e-07 3.03488e-07)
(0.00131038 -2.8704e-07 3.2553e-07)
(0.00130777 -1.34692e-07 3.98863e-07)
(0.00130499 -3.00864e-07 -1.59237e-07)
(0.00130243 -6.54152e-07 2.73269e-07)
(0.00129963 -4.37778e-07 3.90098e-07)
(0.00129717 -3.00817e-07 3.2555e-07)
(0.0012938 -2.46191e-07 3.24349e-07)
(0.00129214 -5.16203e-07 1.77053e-08)
(0.0012908 6.45211e-07 2.67677e-07)
(0.00128817 1.25878e-06 3.28705e-07)
(0.00128665 1.15208e-06 6.33728e-07)
(0.00128436 8.87039e-07 8.26228e-07)
(0.00128055 7.36486e-07 4.76498e-07)
(0.00127765 2.56654e-07 1.77996e-07)
(0.00127578 2.27519e-07 3.53454e-07)
(0.00127349 1.81191e-07 3.60989e-07)
(0.00127119 1.05383e-07 3.20274e-07)
(0.00126892 3.10187e-08 3.24903e-07)
(0.00126592 -1.0123e-07 2.88848e-07)
(0.0012629 8.16574e-08 3.38471e-07)
(0.00126057 -2.11764e-08 3.63969e-07)
(0.00125957 8.88869e-07 2.60381e-07)
(0.00125819 4.91674e-07 2.67523e-07)
(0.0012553 2.10605e-07 3.35561e-07)
(0.00125262 1.07379e-07 3.42158e-07)
(0.00125014 2.38212e-07 3.06087e-07)
(0.00124767 2.34853e-07 2.98521e-07)
(0.00124522 2.14814e-07 2.77217e-07)
(0.00124359 1.41147e-07 2.94667e-07)
(0.00659833 -0.020278 0.000603325)
(0.0146233 0.00421695 -0.00480451)
(0.0231167 -0.0220086 -0.00359923)
(-0.0475359 -0.0440931 0.00536462)
(-0.0129752 -0.021993 -0.0625565)
(0.00656704 0.0168607 0.00134172)
(0.00143055 -0.000544568 9.2413e-05)
(0.00144702 -0.0001968 2.20571e-07)
(0.00141069 -0.000110107 3.31858e-07)
(0.00138527 -7.01269e-05 2.487e-07)
(0.00136684 -4.3477e-05 3.41848e-07)
(0.0013539 -2.71373e-05 3.38444e-07)
(0.00134456 -1.72671e-05 3.36021e-07)
(0.00133792 -1.05724e-05 3.3496e-07)
(0.00133257 -6.2362e-06 3.33565e-07)
(0.00132818 -3.74848e-06 3.32197e-07)
(0.00132462 -2.4099e-06 3.32029e-07)
(0.00132107 -1.42617e-06 3.39023e-07)
(0.0013183 -1.15113e-06 3.04139e-07)
(0.00131584 -8.62218e-07 2.97056e-07)
(0.00131314 -7.56865e-07 2.95431e-07)
(0.00131053 -5.38365e-07 3.28695e-07)
(0.00130772 -7.60686e-07 2.96635e-07)
(0.00130503 -3.87006e-07 3.85051e-07)
(0.00130264 -4.19593e-07 5.10151e-07)
(0.00130029 -2.80781e-09 2.75542e-07)
(0.00129769 2.57569e-07 3.89635e-07)
(0.00129533 6.38322e-07 4.22235e-07)
(0.00129341 1.78665e-06 3.37229e-07)
(0.00129099 1.29193e-06 4.76969e-07)
(0.0012879 1.37369e-06 3.04045e-07)
(0.00128505 1.36568e-06 3.94118e-08)
(0.00128269 1.98486e-07 3.24516e-07)
(0.00128043 -2.16638e-07 3.1509e-07)
(0.00127814 1.5939e-07 2.2002e-07)
(0.00127593 1.44587e-07 3.02838e-07)
(0.00127351 1.10774e-07 3.06493e-07)
(0.00127118 3.10724e-08 3.51339e-07)
(0.0012685 -4.58309e-07 2.28007e-07)
(0.00126599 -4.72897e-07 2.10438e-07)
(0.0012637 9.82024e-08 3.05279e-07)
(0.00126227 7.35628e-07 4.24408e-07)
(0.00125964 1.04108e-06 3.82318e-07)
(0.0012565 6.1342e-07 2.08098e-07)
(0.00125465 1.07241e-07 2.31716e-07)
(0.0012526 4.33206e-08 3.30493e-07)
(0.0012503 2.29509e-07 3.0067e-07)
(0.00124777 2.05659e-07 2.28659e-07)
(0.00124522 3.67921e-07 3.0743e-07)
(0.00124332 3.84776e-07 2.26066e-07)
(-0.000336209 0.0192201 0.00240664)
(-0.0110598 0.033992 0.0031404)
(-0.00434027 -0.00911996 0.0126881)
(0.0094198 0.00711271 0.0757573)
(0.0234406 0.0139014 -0.00370389)
(-0.0126192 0.0166669 0.00384675)
(0.000867699 -8.94212e-05 -4.05493e-05)
(0.00146469 -0.000127101 4.00749e-07)
(0.0014813 -5.25738e-05 3.26299e-07)
(0.00141849 -3.34047e-05 4.34245e-07)
(0.00138861 -1.97264e-05 3.6545e-07)
(0.0013669 -1.2298e-05 3.42139e-07)
(0.00135303 -7.02314e-06 3.49884e-07)
(0.00134397 -4.57877e-06 3.36219e-07)
(0.0013362 -3.23349e-06 3.55749e-07)
(0.00133002 -2.09575e-06 3.42909e-07)
(0.00132558 -1.20352e-06 3.32048e-07)
(0.00132208 -8.5026e-07 3.30459e-07)
(0.00131868 -3.36528e-07 3.87341e-07)
(0.00131584 -1.08725e-07 3.57312e-07)
(0.00131315 -1.13226e-07 3.6285e-07)
(0.00131038 -9.88574e-09 3.44559e-07)
(0.00130796 3.50229e-08 7.37545e-07)
(0.00130542 1.55495e-07 3.72964e-07)
(0.00130292 3.25117e-07 2.88323e-07)
(0.00130048 1.40495e-07 3.62324e-07)
(0.00129797 3.11879e-07 3.78068e-07)
(0.0012957 3.51206e-07 2.90599e-07)
(0.00129295 4.18391e-07 5.14855e-07)
(0.00129028 2.81344e-07 3.0384e-07)
(0.00128825 3.183e-07 3.40743e-07)
(0.00128517 -3.31817e-07 2.93333e-07)
(0.00128238 1.08373e-07 3.08676e-07)
(0.0012805 4.95914e-08 3.22187e-07)
(0.0012781 1.24894e-07 3.01126e-07)
(0.00127571 -1.14883e-07 3.1682e-07)
(0.00127335 -2.86363e-07 6.96094e-08)
(0.00127048 -3.33276e-07 3.01742e-07)
(0.0012683 -2.57934e-07 4.2307e-07)
(0.00126661 -9.85949e-09 3.10132e-07)
(0.00126442 2.7824e-07 3.1778e-07)
(0.00126174 7.49902e-07 5.22242e-07)
(0.00125941 2.14481e-07 2.98168e-07)
(0.00125702 1.76887e-07 -1.03668e-07)
(0.00125458 -1.8005e-08 4.91075e-07)
(0.00125277 -1.47791e-07 3.13435e-07)
(0.00125034 -5.51927e-07 2.04794e-07)
(0.00124784 -6.44298e-07 -7.40686e-08)
(0.00124543 -4.83539e-07 3.8985e-07)
(0.00124265 1.60801e-07 4.17846e-07)
(0.00572112 0.00779323 -0.00147352)
(0.0189806 -0.0146474 -0.0361016)
(-0.0733559 -0.0272335 -0.0134533)
(0.00589001 0.0110379 -0.000597538)
(-0.055717 -0.00693826 0.00715641)
(-0.015131 -0.0357088 0.000454099)
(0.00126189 -0.000672614 -5.40438e-05)
(0.00154484 -2.6084e-05 1.82611e-07)
(0.00150636 2.66587e-05 3.72931e-07)
(0.00142633 2.00668e-05 3.97513e-07)
(0.00139332 1.29186e-05 3.06459e-07)
(0.00136984 8.38633e-06 3.23562e-07)
(0.00135425 5.78423e-06 3.68573e-07)
(0.00134269 3.38971e-06 3.35376e-07)
(0.00133569 1.70968e-06 3.65452e-07)
(0.00133073 9.43196e-07 4.10537e-07)
(0.00132619 6.22034e-07 3.32582e-07)
(0.00132216 3.73865e-07 4.05198e-07)
(0.00131923 1.42242e-07 2.82539e-07)
(0.00131612 3.55988e-07 3.31238e-07)
(0.00131326 3.76074e-07 3.50775e-07)
(0.00131071 3.52057e-07 7.13772e-07)
(0.00130793 3.34342e-07 3.9431e-07)
(0.00130539 1.795e-07 3.06469e-07)