/*--------------------------------*- C++ -*----------------------------------*\
| =========                 |                                                 |
| \\      /  F ield         | OpenFOAM: The Open Source CFD Toolbox           |
|  \\    /   O peration     | Version:  5.0                                   |
|   \\  /    A nd           | Web:      www.OpenFOAM.org                      |
|    \\/     M anipulation  |                                                 |
\*---------------------------------------------------------------------------*/
FoamFile
{
    version     2.0;
    format      ascii;
    class       surfaceVectorField;
    location    "0.8";
    object      Uf;
}
// * * * * * * * * * * * * * * * * * * * * * * * * * * * * * * * * * * * * * //

dimensions      [0 1 -1 0 0 0 0];

internalField   nonuniform List<vector> 
28732
(
(-0.0159354 -0.00075221 7.79404e-05)
(-0.0143197 -0.00459163 0.00149305)
(-0.00217809 -0.00426048 -0.000181704)
(0.00556665 -0.00444353 0.000130822)
(0.00457208 -0.0130887 0.000360193)
(0.00290712 -0.00378964 0.000918588)
(-0.00133894 -0.00945144 0.000624695)
(-0.00410845 0.0149314 -0.000767418)
(-0.01284 -0.003256 -0.000638864)
(-0.0125539 -0.00235068 0.000807633)
(-0.0226002 0.00276143 0.000719183)
(0.0177519 -0.0264448 0.00114848)
(0.0021609 -0.0126353 0.00245727)
(0.0153825 -0.0120311 0.00439742)
(-0.0105936 -0.0334093 -0.0010957)
(-0.0363945 -0.01825 0.00127796)
(-0.0142692 -0.00845901 -0.000360971)
(-0.0184776 -0.0192212 -0.000809106)
(-0.0211515 -0.0265832 -0.000531069)
(-0.0022994 0.00137902 7.4912e-05)
(0.000317879 -0.000216315 -2.9374e-05)
(0.0002528 -0.000930838 -3.06059e-05)
(-0.000489656 -0.000828236 -0.000162069)
(0.000192278 -3.53228e-05 -1.54272e-06)
(0.000347943 -3.84733e-05 -3.00896e-06)
(0.000333796 -6.58862e-05 -1.67334e-06)
(0.000535485 -8.52487e-05 -2.39153e-06)
(0.000210894 -5.02311e-05 -2.00261e-06)
(0.00036362 -6.1186e-05 2.03839e-07)
(0.000400622 -0.000100011 -2.99022e-06)
(0.000705203 -4.60186e-05 -8.71381e-07)
(0.000715532 -8.8528e-05 -2.17492e-06)
(0.000929524 -7.9856e-05 -1.16576e-06)
(0.000462011 -3.71563e-05 -3.27651e-06)
(0.000476853 -5.02326e-05 -3.12732e-06)
(0.000780585 -6.01697e-05 -2.97549e-06)
(0.000813536 -9.05463e-05 -3.03048e-06)
(0.00073989 -2.62468e-05 -4.56629e-08)
(0.000740715 -5.17046e-05 -1.08821e-07)
(0.000962984 -4.32566e-05 1.44898e-07)
(0.000760287 -1.60944e-05 1.07426e-07)
(0.00076334 -3.22521e-05 8.52594e-08)
(0.00100467 -2.66721e-05 1.79757e-07)
(0.000772315 -9.80164e-06 8.55909e-08)
(0.000773758 -1.97049e-05 5.38121e-08)
(0.00102382 -1.60499e-05 1.79389e-07)
(0.000779143 -6.05656e-06 4.23347e-08)
(0.00078037 -1.21714e-05 6.51335e-08)
(0.00103615 -9.92765e-06 1.91054e-07)
(0.00078275 -3.72569e-06 4.39878e-08)
(0.000783775 -7.5256e-06 2.53098e-08)
(0.00104294 -6.12966e-06 1.92363e-07)
(0.000784457 -2.29105e-06 6.19063e-08)
(0.000785328 -4.65647e-06 6.60517e-08)
(0.00104627 -3.72294e-06 1.68493e-07)
(0.000784769 -1.43819e-06 1.57167e-07)
(0.000785687 -2.87779e-06 4.38633e-08)
(0.00104743 -2.31258e-06 1.55847e-07)
(0.000784647 -9.22898e-07 1.63604e-07)
(0.000785375 -2.20306e-06 1.74075e-07)
(0.0010475 -1.48307e-06 1.80023e-07)
(0.00078384 -5.79926e-07 6.41287e-08)
(0.000784651 -1.12041e-06 5.01165e-08)
(0.00104683 -9.53811e-07 1.75983e-07)
(0.000782804 -3.24126e-07 6.524e-08)
(0.000783704 -5.80182e-07 9.51562e-08)
(0.00104567 -5.55338e-07 1.69525e-07)
(0.000781639 -2.39262e-07 9.36282e-08)
(0.000782352 -4.54247e-07 4.62725e-08)
(0.00104405 -2.97046e-07 1.69238e-07)
(0.000780193 -2.65391e-07 9.50502e-08)
(0.000780894 -3.29609e-07 7.97791e-08)
(0.00104226 -3.63757e-07 1.75384e-07)
(0.000779031 -1.11821e-07 7.13904e-08)
(0.00077975 -1.39994e-07 7.7485e-08)
(0.00104067 -3.34022e-07 2.12995e-07)
(0.000777726 5.38562e-08 2.69765e-08)
(0.000778478 -4.87928e-07 6.84346e-08)
(0.00103893 7.94412e-08 1.78841e-07)
(0.000776347 8.66396e-08 7.60062e-09)
(0.000777045 4.69296e-07 8.44208e-09)
(0.00103709 1.15802e-07 1.2327e-07)
(0.000774843 1.21141e-07 5.25414e-08)
(0.000775629 -1.23365e-07 1.05021e-07)
(0.00103523 1.78027e-07 1.88434e-07)
(0.000773416 2.19067e-07 6.7981e-08)
(0.000774213 2.64184e-07 5.4173e-08)
(0.00103326 2.48226e-07 1.72493e-07)
(0.000771991 2.49482e-07 5.86115e-08)
(0.000772697 -1.29024e-06 8.58821e-08)
(0.00103134 4.57441e-07 1.85692e-07)
(0.000770666 1.36068e-07 4.34489e-08)
(0.000771191 3.43443e-07 8.82591e-08)
(0.0010295 2.95924e-07 1.48391e-07)
(0.000769273 8.72284e-08 1.00034e-07)
(0.000769883 -4.43637e-08 4.7613e-08)
(0.00102787 1.09375e-07 1.71746e-07)
(0.000767441 -3.00114e-08 9.636e-08)
(0.000768258 1.13394e-06 1.12975e-07)
(0.00102556 1.52027e-07 1.1567e-08)
(0.000766137 -3.36059e-07 5.96585e-08)
(0.000766569 1.17242e-07 5.17858e-08)
(0.00102338 -2.45588e-07 1.83598e-07)
(0.000764275 -5.73343e-07 4.79974e-08)
(0.000765101 -7.47779e-07 -2.14289e-08)
(0.00102141 -7.35488e-07 3.58298e-07)
(0.000762995 -5.53962e-07 4.47609e-08)
(0.000763617 -7.63001e-07 1.3599e-08)
(0.00101917 -8.48488e-07 3.12876e-07)
(0.000761583 -3.41669e-07 5.39114e-08)
(0.000762386 -2.70151e-07 1.01509e-07)
(0.00101743 -6.23316e-07 1.60549e-07)
(0.000760199 -4.70576e-08 3.759e-08)
(0.000761194 -6.00714e-08 6.33434e-08)
(0.00101575 -2.64455e-07 1.57624e-07)
(0.000758561 1.04768e-07 4.3021e-08)
(0.000759531 1.46144e-09 4.29579e-08)
(0.00101374 1.66197e-07 1.60014e-07)
(0.000757182 1.49251e-07 3.1364e-08)
(0.000757864 1.53635e-07 3.07599e-08)
(0.0010117 1.42698e-07 1.66627e-07)
(0.000755117 2.2024e-07 2.69708e-08)
(0.000756345 7.20941e-08 2.92045e-08)
(0.00100938 2.57463e-07 1.33296e-07)
(0.000753585 3.94321e-07 6.15691e-08)
(0.000754777 3.40506e-07 2.26109e-08)
(0.00100686 3.18465e-07 1.53386e-07)
(0.000753207 3.48866e-07 8.43041e-08)
(0.00075335 -2.34414e-06 9.19018e-08)
(0.00100569 7.47201e-07 2.13549e-07)
(0.000751288 6.20866e-08 5.538e-08)
(0.000751869 3.29182e-07 5.03308e-08)
(0.00100429 2.34256e-07 1.74815e-07)
(0.000749685 -5.96618e-08 5.09059e-08)
(0.000750317 7.68019e-08 4.26264e-08)
(0.00100187 -1.16985e-08 1.70331e-07)
(0.000748318 -4.57359e-07 8.27439e-08)
(0.000748674 -5.61279e-08 6.2846e-08)
(0.000999772 -1.17642e-07 1.58038e-07)
(0.000747462 -7.24555e-07 4.65425e-08)
(0.000747511 1.73306e-06 8.44468e-08)
(0.000998572 -1.03112e-06 1.62702e-07)
(0.000745071 -5.01572e-07 3.77269e-08)
(0.000746316 2.45452e-06 3.29415e-08)
(0.000996298 -7.96351e-07 7.62399e-08)
(0.000743801 -2.93732e-07 5.3384e-08)
(0.00074472 -3.96592e-07 6.42312e-08)
(0.000993774 -4.79688e-07 1.69083e-07)
(0.000742542 -2.21836e-07 4.05044e-08)
(0.000743231 -1.62343e-07 3.89503e-08)
(0.000992217 -2.94733e-07 1.50103e-07)
(0.000741183 -2.10906e-07 4.77073e-08)
(0.000741835 -4.30067e-08 4.72217e-08)
(0.000990354 -2.94781e-07 1.64547e-07)
(0.000739889 -3.10706e-07 3.2375e-08)
(0.00074049 -7.67996e-09 4.4777e-08)
(0.000988733 -2.88842e-07 1.63138e-07)
(0.00073797 -4.07932e-07 6.37106e-09)
(0.000738938 1.18648e-06 4.77546e-08)
(0.000986512 -5.63638e-07 1.23731e-07)
(0.000737629 9.15927e-07 5.34833e-08)
(0.000984257 -5.07286e-07 9.92583e-08)
(-0.00375415 0.00288161 -0.00207918)
(0.00978954 0.0105117 -0.00189241)
(0.00747519 0.0200243 -0.00168693)
(0.00410576 0.0104966 -0.00192167)
(-0.0117 0.0123818 -0.00035794)
(0.000236134 0.0205391 8.77768e-05)
(-0.0101896 0.0043694 -6.93247e-05)
(-0.000928224 0.0160945 0.0004343)
(-0.00651716 0.0189135 0.000611394)
(-0.0149947 0.0103564 -0.000789923)
(0.0173077 0.00303553 0.000765348)
(0.0219077 -0.000250555 0.000578463)
(0.0138347 0.00534963 0.000353421)
(-0.00651689 -0.00809939 -0.00171099)
(0.016214 0.00529715 -0.00198616)
(0.0120133 0.0129099 0.00144799)
(8.4706e-05 -0.00690912 0.00854899)
(-0.015812 0.00245635 0.00034188)
(-0.0012671 0.00110042 0.000580596)
(-0.0190007 0.00453975 0.00224022)
(-0.0223763 -0.00397827 0.000275993)
(-0.020763 -0.00456419 0.000578443)
(0.0253325 -0.0205224 -0.00441843)
(0.000573302 -0.000836461 -0.00108434)
(0.029798 -0.000158433 -0.00136506)
(0.023373 0.0217552 -0.00072543)
(0.0199021 -0.00984933 -0.00529633)
(0.00379347 -0.00196313 4.18935e-05)
(0.00634819 0.00638458 -0.000131368)
(0.00447273 0.000144358 7.97885e-05)
(0.00214426 0.00279263 -8.24175e-06)
(0.00713632 0.00266572 -0.00016231)
(0.000239579 -4.29255e-05 -9.82567e-07)
(0.000348059 -9.65053e-05 -1.40133e-06)
(0.000392265 -9.36797e-05 -2.53478e-06)
(0.000330743 -0.000114671 -2.14842e-06)
(0.000582505 -0.000211771 -1.13425e-06)
(0.000253115 -2.78873e-05 2.59303e-06)
(0.000447493 -4.91732e-05 -7.33762e-07)
(0.000516183 -1.34258e-05 1.43224e-05)
(0.000752809 -8.63048e-05 -1.41304e-06)
(0.000783993 -0.00011964 -2.32665e-06)
(0.000987995 -0.000140674 -1.48008e-06)
(0.00050222 -7.60717e-05 -3.4013e-06)
(0.000532727 -9.97947e-05 -2.20941e-06)
(0.000861243 -0.000129613 -3.33396e-06)
(0.000943439 -0.000177257 -1.80632e-06)
(0.00076879 -5.30643e-05 2.20373e-08)
(0.000782527 -7.36976e-05 -3.58809e-08)
(0.00101568 -8.62241e-05 1.8063e-07)
(0.000777792 -3.28406e-05 3.16561e-08)
(0.000788803 -4.54273e-05 7.85688e-08)
(0.00103371 -5.36452e-05 1.74845e-07)
(0.000782906 -2.02636e-05 3.33511e-08)
(0.000789594 -2.79951e-05 3.30988e-08)
(0.00104189 -3.31486e-05 1.73463e-07)
(0.000785523 -1.25427e-05 4.81216e-08)
(0.000790093 -1.73565e-05 4.93682e-08)
(0.00104707 -2.04934e-05 1.75134e-07)
(0.000786623 -7.81594e-06 4.73604e-08)
(0.000789728 -1.07979e-05 4.73712e-08)
(0.0010494 -1.2734e-05 1.74807e-07)
(0.000786799 -4.901e-06 4.80159e-08)
(0.000788999 -6.76127e-06 4.79537e-08)
(0.0010502 -8.01109e-06 1.74889e-07)
(0.000786401 -3.07939e-06 6.07288e-08)
(0.000787982 -4.25251e-06 4.88981e-08)
(0.00104997 -5.02957e-06 1.74696e-07)
(0.000785471 -1.96913e-06 6.06272e-08)
(0.000786775 -2.77491e-06 6.05704e-08)
(0.00104907 -3.19065e-06 1.65913e-07)
(0.000784469 -1.34754e-06 8.11295e-08)
(0.000785436 -1.68869e-06 5.12726e-08)
(0.00104782 -2.08246e-06 1.72333e-07)
(0.00078346 -9.10589e-07 7.62044e-08)
(0.000784255 -2.19886e-06 6.7835e-08)
(0.00104644 -1.53657e-06 2.458e-07)
(0.000781527 -5.34318e-07 3.24126e-08)
(0.000782826 1.83635e-06 5.31176e-08)
(0.00104441 -9.27723e-07 5.57667e-08)
(0.000780367 -2.40363e-07 6.22147e-08)
(0.000781264 -7.56975e-07 3.17759e-08)
(0.00104235 -5.04753e-07 1.77094e-07)
(0.000779264 -8.36481e-08 7.45321e-08)
(0.000779946 -6.55741e-07 6.29588e-08)
(0.0010409 -1.14012e-07 1.78283e-07)
(0.000777838 1.92128e-08 4.99193e-08)
(0.000778607 -3.46152e-07 4.75134e-08)
(0.00103919 -9.37467e-08 1.60608e-07)
(0.000776337 6.58546e-08 1.05831e-07)
(0.000777103 -3.64374e-08 4.65764e-08)
(0.00103719 1.81084e-07 2.11977e-07)
(0.000774924 1.63641e-07 1.06668e-07)
(0.00077575 5.83087e-08 1.18082e-07)
(0.00103533 7.21053e-08 1.56035e-07)
(0.000773594 1.73902e-07 7.2064e-08)
(0.000774224 1.83483e-07 9.44177e-08)
(0.00103349 4.35763e-07 1.66775e-07)
(0.000771849 6.16592e-09 1.15529e-07)
(0.000772486 -1.18446e-08 7.28069e-08)
(0.00103133 8.65141e-08 1.07391e-07)
(0.000770397 -1.21538e-07 9.24361e-08)
(0.000771031 1.6919e-08 1.01698e-07)
(0.00102917 -1.21442e-08 1.93609e-07)
(0.000768906 -4.12299e-07 6.05335e-08)
(0.000769521 1.54026e-09 5.17608e-08)
(0.00102738 -2.859e-07 1.70352e-07)
(0.000767377 -5.45584e-07 6.84204e-08)
(0.000768094 -3.5059e-07 4.49257e-08)
(0.00102529 -8.81014e-07 2.81068e-07)
(0.0007656 -4.16665e-07 -2.92786e-08)
(0.000766733 2.83051e-07 4.4166e-08)
(0.00102288 -6.57911e-07 1.85998e-07)
(0.000764301 -2.54016e-07 -5.58383e-08)
(0.000765307 1.62685e-07 4.06326e-08)
(0.00102106 -4.9004e-07 9.06355e-08)
(0.000762998 7.6104e-08 7.03195e-08)
(0.00076403 4.99053e-07 1.24965e-08)
(0.00101937 -2.25806e-07 6.5415e-08)
(0.000762072 2.67657e-07 1.10953e-07)
(0.000762625 -2.4868e-06 6.30911e-08)
(0.00101782 4.45362e-07 2.78238e-07)
(0.000760665 1.14382e-07 6.87177e-08)
(0.000761001 -1.81057e-06 5.17062e-08)
(0.00101639 3.73955e-07 2.8776e-07)
(0.000758608 3.76841e-08 3.07006e-08)
(0.000759434 6.99189e-07 7.03814e-08)
(0.00101403 3.91867e-08 1.71191e-07)
(0.000757178 9.87259e-08 2.86008e-08)
(0.000757939 4.72733e-07 4.05162e-08)
(0.00101161 1.10977e-07 1.41874e-07)
(0.000755919 2.34923e-07 2.48465e-08)
(0.000756514 -2.05827e-07 5.40821e-08)
(0.00100986 1.74231e-07 1.69188e-07)
(0.000754531 5.06232e-07 5.29222e-08)
(0.000755114 1.11293e-07 2.86641e-08)
(0.00100824 4.67117e-07 1.77271e-07)
(0.000752075 4.99639e-07 5.79414e-08)
(0.000753339 -6.78976e-07 6.35889e-08)
(0.0010056 8.82746e-07 1.36979e-07)
(0.00075087 2.96219e-07 3.75796e-08)
(0.000751613 2.43931e-07 6.01211e-08)
(0.00100308 4.86071e-07 1.50613e-07)
(0.00074936 1.49459e-07 5.45603e-08)
(0.000750133 1.50762e-07 6.39477e-08)
(0.00100141 3.27648e-07 1.66795e-07)
(0.000747595 -5.39441e-08 6.45422e-08)
(0.00074842 1.62197e-07 5.4192e-08)
(0.000999153 2.51869e-08 1.79607e-07)
(0.000746609 -4.13881e-07 7.08616e-08)
(0.000747062 6.56937e-07 1.29856e-07)
(0.00099728 -2.29455e-07 2.03309e-07)
(0.000745919 -4.07517e-07 5.94362e-08)
(0.000746326 2.27523e-07 7.97306e-08)
(0.000996368 -8.89659e-07 2.60575e-07)
(0.000744155 -9.33771e-08 4.98053e-08)
(0.000745115 -3.29675e-08 6.84907e-08)
(0.00099467 -1.95356e-07 1.70737e-07)
(0.000742434 3.62691e-08 4.56651e-08)
(0.000743394 7.84397e-08 4.44122e-08)
(0.000992285 -1.04216e-07 1.76489e-07)
(0.000741222 5.21845e-08 4.42922e-08)
(0.000741856 -1.83048e-08 4.25583e-08)
(0.000990412 1.43334e-07 1.46657e-07)
(0.000739541 -1.25353e-07 6.01558e-08)
(0.000740269 3.06972e-07 3.30287e-08)
(0.000988452 -3.81708e-08 1.69129e-07)
(0.000738472 -2.2486e-07 9.48652e-08)
(0.000738817 3.03485e-07 6.6837e-08)
(0.000986529 -3.14179e-07 2.01795e-07)
(0.000737909 -1.40766e-07 1.15666e-07)
(0.000985266 -2.94671e-07 2.32501e-07)
(0.000611144 0.0105264 -0.000149571)
(0.00257651 0.00757638 4.37539e-05)
(-0.00535544 0.0143641 -0.00014456)
(-0.0080516 0.0097694 0.000154585)
(0.0280065 0.0356761 -0.000452166)
(0.0164792 0.00511163 0.000418654)
(-0.00532228 -0.00318128 0.000156946)
(0.00592251 -0.00978884 -0.00032822)
(0.0135138 0.0120784 0.00485814)
(-0.00354161 -0.00181444 0.000675821)
(0.00624476 0.00748556 0.000555961)
(-0.0334373 0.0031476 -0.000422786)
(-0.0175851 -0.00225428 -0.00105633)
(0.00112837 0.00318738 0.000383348)
(0.00257211 0.000994644 3.07435e-05)
(-0.0329353 -0.00390822 0.00236109)
(0.00832364 -0.00330742 -0.000896474)
(0.0228694 0.00730602 0.00309219)
(0.0148056 0.00117059 0.00412817)
(0.0272968 -0.000123172 0.00272185)
(-0.0155881 -0.009265 0.00102824)
(-0.0098635 0.00307336 0.00116964)
(0.00571071 0.0226065 -0.00204556)
(0.00624015 0.00992013 -0.00032264)
(0.0304999 0.00824984 -0.0493045)
(0.0357106 0.00354047 0.0890626)
(0.0234271 0.0103929 -0.0290359)
(0.0363424 0.00940492 -0.00980803)
(0.0132665 -0.00729206 0.000533231)
(0.0069289 -0.00419038 0.00112162)
(-0.00152712 -0.0113878 -0.000142883)
(-0.000183515 -0.00618258 0.00122169)
(0.00793899 -0.0141553 0.000635895)
(-0.0127816 -0.00997492 0.000212697)
(0.00265371 -0.0101137 0.00102302)
(0.00112574 -0.00561705 -9.62985e-05)
(-0.00448704 -0.00480679 -0.000361662)
(0.000616806 -0.0075005 -0.000219523)
(0.000283327 -0.000199251 1.71504e-05)
(0.000264756 -6.64064e-05 -8.10356e-07)
(0.000299491 -6.04534e-05 3.61834e-06)
(0.000448166 -0.000110824 2.20097e-06)
(0.000252559 -5.84885e-05 -2.9138e-07)
(0.000810865 -0.000100309 -9.50235e-07)
(0.000867027 -0.000121832 -2.32792e-06)
(0.00110679 -0.00016521 -1.41752e-06)
(0.000585425 -0.000102462 -4.82442e-06)
(0.000588585 -0.0001051 -3.39878e-06)
(0.0009883 -0.000172822 -5.32713e-06)
(0.00100465 -0.000183601 -3.35868e-06)
(0.000804829 -6.04685e-05 2.06131e-08)
(0.000832831 -6.77388e-05 -1.09949e-07)
(0.00107241 -9.86844e-05 1.52013e-07)
(0.000800461 -3.72539e-05 8.00264e-08)
(0.000818041 -4.20634e-05 6.19708e-08)
(0.00107149 -6.11387e-05 1.87651e-07)
(0.000797073 -2.29552e-05 4.91106e-08)
(0.000807605 -2.56946e-05 3.66182e-08)
(0.00106556 -3.76715e-05 1.76847e-07)
(0.000794361 -1.42498e-05 4.86184e-08)
(0.00080106 -1.5869e-05 -1.2363e-07)
(0.00106186 -2.33599e-05 1.74996e-07)
(0.000792158 -8.90009e-06 4.79643e-08)
(0.000796469 -9.94873e-06 4.54258e-08)
(0.00105866 -1.45844e-05 1.75697e-07)
(0.000790211 -5.58747e-06 4.88356e-08)
(0.000793174 -6.2181e-06 4.83484e-08)
(0.00105598 -9.13095e-06 1.75201e-07)
(0.000788435 -3.55084e-06 4.87359e-08)
(0.000790549 -3.90762e-06 4.82967e-08)
(0.0010535 -5.76032e-06 1.7472e-07)
(0.000786711 -2.29169e-06 5.12188e-08)
(0.000788362 -2.48346e-06 4.86188e-08)
(0.00105121 -3.68884e-06 1.74652e-07)
(0.000785117 -1.49832e-06 3.79728e-08)
(0.000786436 -1.58835e-06 4.94565e-08)
(0.00104892 -2.40428e-06 1.7713e-07)
(0.000783881 -1.17631e-06 4.47529e-08)
(0.000784664 -2.41545e-06 1.35557e-08)
(0.00104713 -1.59609e-06 1.6847e-07)
(0.000782389 -8.80669e-07 5.24877e-08)
(0.0007832 2.17843e-07 4.34165e-08)
(0.00104535 -1.53001e-06 2.88031e-07)
(0.000780825 -4.85854e-07 3.251e-08)
(0.00078176 -5.50151e-07 3.35251e-08)
(0.00104328 -7.96883e-07 1.68128e-07)
(0.000779325 -3.31398e-07 3.5945e-08)
(0.000780141 1.59214e-07 1.57165e-08)
(0.00104119 -5.03452e-07 1.20337e-07)
(0.00077794 -2.8477e-07 4.41708e-08)
(0.000778666 -4.13975e-07 4.71574e-08)
(0.0010393 -3.78987e-07 1.71636e-07)
(0.00077636 -2.8002e-07 5.88049e-08)
(0.00077711 -5.28265e-07 1.31031e-08)
(0.0010373 -3.51593e-07 2.17919e-07)
(0.000775271 -3.97814e-07 1.05839e-07)
(0.000775604 -3.81451e-07 6.60252e-08)
(0.00103554 -3.5295e-07 1.71122e-07)
(0.000772985 -4.26777e-07 9.51674e-08)
(0.00077419 -1.23294e-06 5.86487e-08)
(0.00103328 -6.85838e-07 3.43739e-07)
(0.000771675 -2.84889e-07 5.89665e-08)
(0.000772665 -5.59853e-07 3.78954e-08)
(0.00103078 -4.38545e-07 1.97273e-07)
(0.000770184 -1.78476e-07 6.10381e-08)
(0.000771165 -5.56718e-08 6.30106e-08)
(0.00102904 -2.89865e-07 1.79199e-07)
(0.000768676 -1.25383e-07 3.61551e-08)
(0.000769588 -1.27068e-07 5.46303e-08)
(0.00102679 -1.47776e-07 1.84108e-07)
(0.000767429 6.80861e-08 2.06716e-08)
(0.000768335 2.68981e-07 -1.35827e-08)
(0.0010251 -1.70567e-07 1.07872e-07)
(0.000766535 3.35137e-07 1.14078e-07)
(0.000767065 7.42059e-07 3.24978e-08)
(0.00102388 3.88151e-07 8.7426e-08)
(0.000764914 4.53544e-07 1.08976e-07)
(0.000765452 3.20755e-07 1.37693e-07)
(0.00102196 6.16042e-07 1.72309e-07)
(0.000763761 4.95987e-07 5.25222e-09)
(0.00076408 4.13004e-07 1.51956e-08)
(0.00102034 7.01868e-07 1.47697e-07)
(0.00076149 3.81921e-07 3.84789e-09)
(0.00076248 -2.70637e-08 1.94348e-08)
(0.00101817 6.63656e-07 6.56484e-08)
(0.000759841 1.1114e-07 5.33641e-08)
(0.000760662 7.56845e-08 3.01477e-08)
(0.00101523 3.80823e-07 5.05587e-08)
(0.00075868 9.66717e-09 8.02063e-08)
(0.000759306 4.56771e-07 7.46305e-08)
(0.00101341 -4.93738e-08 1.58259e-07)
(0.00075731 6.80589e-08 6.59932e-08)
(0.000758012 -1.27631e-07 5.43467e-08)
(0.00101186 8.21303e-08 2.02218e-07)
(0.000755675 2.5208e-08 5.79075e-08)
(0.00075646 -4.20443e-08 1.25388e-07)
(0.00100983 1.00878e-07 1.71234e-07)
(0.00075416 -1.14839e-07 3.93199e-08)
(0.000754939 -1.02458e-07 4.52914e-08)
(0.00100774 -1.1997e-08 1.87516e-07)
(0.000752527 -1.10194e-07 6.57696e-08)
(0.000753345 -2.56434e-07 2.39396e-08)
(0.00100571 -2.61808e-07 1.52446e-07)
(0.000751116 -3.56141e-08 8.6488e-08)
(0.000751706 -2.42385e-07 2.43334e-08)
(0.00100359 -1.90575e-08 1.98021e-07)
(0.000749162 2.7878e-08 6.35825e-08)
(0.000750212 6.11555e-07 6.35759e-08)
(0.00100129 -7.17036e-08 1.78855e-07)
(0.000747765 3.26961e-07 1.19483e-07)
(0.000748793 1.368e-07 6.42076e-08)
(0.000999077 1.5663e-07 1.64012e-07)
(0.000746491 5.85241e-07 1.3874e-07)
(0.000747383 3.4044e-07 1.65625e-07)
(0.000997433 7.40592e-07 1.744e-07)
(0.00074599 4.68929e-07 8.87885e-08)
(0.000746178 -9.77877e-07 8.57412e-10)
(0.000996346 8.39627e-07 1.69426e-07)
(0.000744254 2.81427e-07 6.3105e-08)
(0.000744878 2.24389e-07 6.94052e-08)
(0.000994762 4.36346e-07 1.75928e-07)
(0.000742765 3.51704e-07 4.1306e-08)
(0.00074348 7.14996e-08 4.33807e-08)
(0.000992642 3.62203e-07 1.73434e-07)
(0.000740935 4.4043e-07 3.12977e-08)
(0.000741965 2.82348e-07 3.48088e-08)
(0.000990438 5.72095e-07 1.82902e-07)
(0.000739444 3.55693e-07 3.96996e-08)
(0.000740161 4.21319e-07 3.22337e-08)
(0.000988162 5.61483e-07 1.66361e-07)
(0.000738112 2.09839e-07 8.76231e-08)
(0.000738632 2.3576e-07 5.1217e-08)
(0.0009862 3.46376e-07 1.66202e-07)
(0.000737646 -1.13977e-06 1.3823e-07)
(0.000985015 1.87027e-07 2.0032e-07)
(-0.0142408 -0.00127789 -0.000294377)
(-0.0072128 -0.0143406 0.00199447)
(-0.00626407 -0.0153226 0.00112934)
(0.000417568 -0.0125087 0.000336058)
(-0.00250797 -0.0134466 3.88574e-05)
(-0.00255547 -0.00809804 0.000757832)
(-0.00523882 -0.0026918 0.000298909)
(0.00289179 -0.0047195 0.000579307)
(-0.0113405 -0.00526533 -0.000239525)
(0.0068769 0.00945033 0.000460368)
(0.007096 -0.00334524 -0.000620391)
(0.0168873 -0.00358432 -0.000427733)
(0.0103136 0.00731953 0.000830845)
(0.00628985 0.00214665 -0.000976411)
(-0.000200276 0.000183639 0.000226334)
(-0.0015243 0.0189044 -0.00201749)
(0.00273624 -0.00448732 0.00148979)
(0.000691454 0.024813 -0.00724904)
(0.000215051 -0.00417369 -0.000660518)
(0.00720839 0.00522994 -0.000203211)
(-6.65441e-05 -0.00669552 -9.95167e-05)
(-0.0272926 -0.00135118 -0.000958219)
(-0.00107538 0.00479063 -0.00344528)
(-0.00375313 -0.0182926 0.000147959)
(0.0013763 -0.0251486 -0.000106209)
(-0.0120029 -0.00780924 -0.000707083)
(0.0144937 -0.00346884 0.00108078)
(0.00672412 0.0204993 0.00111844)
(0.00163155 -0.00550717 0.00391601)
(-0.000170676 -0.0115764 -7.41968e-05)
(-0.00655339 -0.00105543 0.000959611)
(-0.0129531 -0.00597 0.00127196)
(-0.0264067 -0.0131558 3.23469e-05)
(0.00156251 -0.00860648 -0.000734919)
(-0.00801229 -0.0024542 -0.000811211)
(-0.0187398 -0.00877238 -0.00258611)
(0.00312956 0.00201215 0.000412113)
(0.00154325 0.00245366 -0.000481897)
(0.00381225 -0.00659006 0.00020322)
(0.00171892 0.00028624 -4.36672e-05)
(0.00498101 0.00387054 -7.45758e-05)
(0.00187773 -0.000340568 2.56682e-05)
(0.000525368 -0.000227685 5.02762e-05)
(0.000596485 -0.000240006 6.30188e-05)
(0.000845932 -0.000316039 0.000119237)
(0.00047357 -0.00015429 3.38252e-05)
(0.000881202 -7.2094e-05 -1.48836e-06)
(0.000890467 -5.6655e-05 -3.00696e-06)
(0.0012013 -0.000127009 -1.9254e-06)
(0.00066745 -6.68399e-05 -5.25533e-06)
(0.00066419 -2.81828e-05 -2.99727e-06)
(0.00114183 -0.000113817 -4.79041e-06)
(0.00116644 -2.86887e-05 2.13852e-06)
(0.000844382 -4.08309e-05 -6.86472e-08)
(0.000872375 -2.36639e-05 3.1275e-08)
(0.00114709 -6.68755e-05 1.79263e-07)
(0.000823646 -2.60107e-05 1.8571e-08)
(0.000836734 -1.79445e-05 -1.53003e-08)
(0.00111056 -4.31962e-05 1.68422e-07)
(0.00081098 -1.62286e-05 -1.3607e-07)
(0.000819938 -1.17349e-05 4.2374e-08)
(0.00108947 -2.68248e-05 1.73256e-07)
(0.0008027 -1.02631e-05 -1.26878e-07)
(0.000808583 -7.65795e-06 -1.37746e-07)
(0.00107615 -1.68377e-05 1.91542e-07)
(0.000797265 -6.50218e-06 4.5809e-08)
(0.000801211 -5.03151e-06 1.44346e-07)
(0.00106733 -1.07566e-05 1.7375e-07)
(0.000793357 -4.06755e-06 4.78096e-08)
(0.000796242 -3.22865e-06 4.94299e-08)
(0.00106132 -6.71074e-06 1.7549e-07)
(0.000790412 -2.54862e-06 4.81795e-08)
(0.000792463 -2.10192e-06 4.58278e-08)
(0.00105683 -4.18276e-06 1.74559e-07)
(0.000788014 -1.59355e-06 4.68562e-08)
(0.000789565 -1.34425e-06 4.59479e-08)
(0.0010533 -2.60852e-06 1.74033e-07)
(0.000785997 -9.70207e-07 2.50509e-08)
(0.000787221 -8.54642e-07 4.68024e-08)
(0.00105046 -1.62822e-06 1.69825e-07)
(0.000783814 -6.64473e-07 1.22096e-08)
(0.00078505 -5.72768e-07 2.57233e-08)
(0.00104754 -9.37839e-07 1.0802e-07)
(0.00078272 -6.07494e-07 2.44571e-08)
(0.000783274 -1.33062e-07 3.96694e-08)
(0.00104542 -8.11991e-07 1.65848e-07)
(0.000781014 -5.31528e-07 1.67372e-08)
(0.000781858 -2.73739e-07 7.19641e-08)
(0.00104364 -7.89571e-07 1.75628e-07)
(0.000779472 -4.3482e-07 2.69188e-08)
(0.000780264 -3.62264e-07 3.59701e-08)
(0.00104143 -6.17841e-07 2.16765e-07)
(0.000777875 -3.90714e-07 1.61006e-08)
(0.000778723 -2.42696e-07 2.02226e-07)
(0.00103938 -5.29112e-07 1.73453e-07)
(0.000776248 -2.78187e-07 2.03066e-08)
(0.000777252 9.93386e-07 4.1192e-08)
(0.00103722 -5.14401e-07 8.17133e-08)
(0.000774618 -2.88617e-07 1.88369e-08)
(0.000775593 1.82538e-07 8.03054e-08)
(0.00103492 -2.59393e-07 1.48274e-07)
(0.000773839 -2.08087e-07 1.38333e-09)
(0.000774291 3.33776e-07 9.30626e-08)
(0.00103338 -5.2394e-07 3.44505e-09)
(0.00077214 7.16671e-08 4.19316e-08)
(0.000773015 3.48811e-08 4.54238e-08)
(0.00103183 -3.65844e-08 1.51267e-07)
(0.000770609 2.85467e-07 5.66054e-08)
(0.000771431 3.09642e-08 6.37705e-08)
(0.00102953 2.21194e-07 1.71509e-07)
(0.00076917 5.7806e-07 4.914e-09)
(0.000769951 5.92613e-07 4.73753e-08)
(0.00102753 5.65428e-07 1.1837e-07)
(0.000768037 6.75528e-07 -1.77094e-09)
(0.000768453 9.3586e-07 -9.93518e-09)
(0.00102595 1.07857e-06 9.46282e-08)
(0.000765986 4.56642e-07 5.60792e-08)
(0.000766788 3.88757e-07 7.16971e-08)
(0.00102386 8.60382e-07 2.4684e-07)
(0.00076457 3.43095e-07 4.39505e-08)
(0.000765307 3.03826e-07 6.47929e-08)
(0.00102144 5.04789e-07 1.66491e-07)
(0.000762988 1.21159e-07 2.93769e-08)
(0.0007638 1.68794e-07 2.62683e-08)
(0.00101942 5.89704e-07 1.96864e-07)
(0.000761475 -9.5223e-08 4.57313e-08)
(0.000762208 1.27335e-07 1.40617e-07)
(0.00101741 -1.10445e-07 1.62025e-07)
(0.00076006 2.55114e-08 5.14003e-08)
(0.000760812 6.28037e-09 4.95665e-08)
(0.00101549 -7.40068e-08 1.68863e-07)
(0.00075876 8.36375e-08 4.87772e-08)
(0.000759379 3.185e-07 5.60483e-08)
(0.00101366 1.51317e-07 1.63302e-07)
(0.000757148 5.60978e-11 1.1372e-07)
(0.000757907 -1.32805e-08 4.55398e-08)
(0.0010118 7.71665e-08 1.72786e-07)
(0.000755706 -7.81189e-08 1.12797e-07)
(0.000756363 -1.17068e-07 1.24255e-07)
(0.00100974 -6.84911e-08 1.71091e-07)
(0.000754167 -1.70335e-07 2.99177e-08)
(0.000754825 -1.61945e-07 4.45092e-08)
(0.00100779 -1.32213e-07 1.78622e-07)
(0.000752463 -2.37833e-07 -1.74967e-08)
(0.000753262 -2.83655e-07 3.13554e-08)
(0.00100559 -3.42891e-07 1.91024e-07)
(0.00075081 -2.03842e-07 1.40916e-09)
(0.00075175 -3.36001e-07 -9.35442e-08)
(0.00100332 -3.46274e-07 1.9155e-07)
(0.000749896 -5.91766e-08 6.42009e-08)
(0.000750393 -1.12174e-07 6.29628e-08)
(0.00100163 -2.03601e-07 1.7057e-07)
(0.000748337 1.72282e-07 1.10318e-07)
(0.000749081 1.47499e-07 2.40395e-07)
(0.00100016 1.40498e-07 1.76128e-07)
(0.000746951 4.13854e-07 2.77922e-08)
(0.000747684 4.19735e-07 7.88288e-08)
(0.000998129 4.34918e-07 1.5594e-07)
(0.0007452 3.4958e-07 -1.85469e-08)
(0.000746095 -9.6071e-07 -1.5417e-08)
(0.000995981 7.20079e-07 1.94008e-07)
(0.00074405 1.13794e-07 4.96889e-08)
(0.000744583 7.72579e-08 4.60583e-08)
(0.000994068 2.19418e-07 1.52044e-07)
(0.000742822 1.49859e-08 3.68862e-08)
(0.000743356 -6.06976e-08 4.471e-08)
(0.000992451 9.32771e-08 1.58827e-07)
(0.000741171 1.57921e-07 3.57456e-08)
(0.000742143 1.58865e-06 2.05872e-08)
(0.000990657 -3.7464e-08 9.33264e-08)
(0.000739201 2.8651e-07 4.37453e-08)
(0.000740321 1.16462e-06 7.47681e-09)
(0.000988166 4.34401e-07 1.64235e-07)
(0.000738079 2.47442e-07 1.01797e-07)
(0.00073858 -3.67163e-08 5.59917e-08)
(0.000986055 2.89597e-07 1.61936e-07)
(0.000737338 -1.27336e-06 1.03706e-07)
(0.0009846 3.61546e-07 1.86175e-07)
(0.000361709 0.0053704 -0.000631983)
(-0.00336675 0.0034901 -0.000117445)
(-0.000568877 0.00498552 8.91169e-05)
(-0.00185731 0.00466074 0.000326119)
(-0.00188296 0.011069 0.000229178)
(0.00354659 0.0114094 -0.000459233)
(0.00162978 0.0155258 0.00132512)
(0.00730129 0.0188006 -0.000238499)
(-0.0114144 0.0298557 -0.0053185)
(-0.0154605 0.0288085 -0.0231189)
(-0.0196899 0.0378564 -0.0153972)
(-0.012367 0.047784 0.0428906)
(0.0107571 -0.00219835 0.000324841)
(0.00870962 0.00746065 0.000811484)
(-0.0108127 -0.00190306 0.00220149)
(0.00297295 -0.0145509 0.000757821)
(0.00346807 -0.0068598 0.00327979)
(0.0119913 1.1141e-05 -0.00597171)
(0.00109798 -0.00632027 -0.00380771)
(0.0118058 -0.00395089 3.57243e-05)
(0.00181393 -0.00198833 -0.00227212)
(0.00909737 0.00823485 -0.0022666)
(-0.00163292 -0.00228324 -0.00136275)
(0.00945997 0.0148984 -0.00112239)
(-0.00772408 0.00697279 0.000241543)
(0.01434 0.00927028 0.00261287)
(0.00173171 0.00667667 0.00191762)
(0.000595309 0.00786684 -0.000629877)
(-0.00946817 0.00214917 -0.000814313)
(0.0109898 0.0052647 0.000524216)
(0.00132659 0.00584706 0.000770119)
(0.00239588 0.0110074 -0.000321235)
(0.00758156 -0.00348361 0.00100992)
(-0.00568901 -0.00160362 2.18095e-05)
(-0.00746133 0.000903451 0.000504596)
(-0.0163649 -0.00495294 9.64777e-05)
(-0.0173353 -0.00781569 0.000703249)
(-0.0105982 -0.00258972 0.00116778)
(0.000876847 0.000131026 5.45572e-05)
(0.00110796 1.3444e-05 1.3355e-05)
(0.00117616 2.27987e-05 1.89e-06)
(0.00122594 0.000184129 -3.20121e-05)
(0.00124913 3.07483e-05 1.68375e-05)
(0.000898776 -1.30444e-05 -1.48832e-06)
(0.000631138 9.03269e-06 -1.46601e-06)
(0.00117057 -4.45484e-05 -2.11967e-06)
(0.000661253 -1.19e-05 -2.20424e-06)
(0.000656167 -3.29034e-05 1.25565e-06)
(0.00118129 -2.27126e-05 3.27584e-06)
(0.00121623 -5.13087e-05 6.87977e-06)
(0.000640758 1.11886e-05 -3.7327e-06)
(0.00094327 4.23291e-06 -5.41233e-07)
(0.00101965 2.64988e-05 -3.90837e-06)
(0.000856056 -1.86164e-07 8.46371e-08)
(0.000879494 2.6676e-05 -2.85844e-07)
(0.00117844 1.95638e-06 2.55944e-07)
(0.0008315 -3.61248e-06 8.48396e-09)
(0.00083246 1.10716e-05 -1.51795e-07)
(0.001122 -6.28515e-06 1.59611e-07)
(0.000816397 -3.07508e-06 4.07569e-08)
(0.000820639 5.19144e-06 1.00133e-07)
(0.00109879 -4.9859e-06 1.78519e-07)
(0.000806313 -2.30064e-06 1.33386e-07)
(0.000809569 3.30988e-06 6.74638e-08)
(0.00108212 -3.99717e-06 1.5711e-07)
(0.000799843 -1.51922e-06 1.47998e-07)
(0.0008022 8.83622e-07 1.64031e-07)
(0.00107142 -2.50319e-06 1.93915e-07)
(0.000795046 -1.03851e-06 4.74493e-08)
(0.000796851 8.39989e-07 4.96319e-08)
(0.00106426 -1.73859e-06 1.77417e-07)
(0.000791485 -6.81991e-07 4.35962e-08)
(0.000792914 5.08894e-07 9.20958e-08)
(0.00105867 -1.16731e-06 1.71916e-07)
(0.000788693 -4.3422e-07 4.58938e-08)
(0.000789879 3.14823e-07 4.97493e-08)
(0.00105443 -7.5854e-07 1.72028e-07)
(0.000786276 -2.9526e-07 4.74816e-08)
(0.000787397 2.86301e-07 4.87273e-08)
(0.00105102 -4.68431e-07 1.76095e-07)
(0.0007843 -1.12599e-07 5.31786e-08)
(0.000785279 1.17616e-07 6.15525e-08)
(0.00104816 -3.60665e-07 1.69632e-07)
(0.000782457 2.21766e-08 8.7166e-08)
(0.000783443 1.23805e-07 4.28735e-08)
(0.00104554 3.02751e-08 1.88585e-07)