/*--------------------------------*- C++ -*----------------------------------*\
| =========                 |                                                 |
| \\      /  F ield         | OpenFOAM: The Open Source CFD Toolbox           |
|  \\    /   O peration     | Version:  5.0                                   |
|   \\  /    A nd           | Web:      www.OpenFOAM.org                      |
|    \\/     M anipulation  |                                                 |
\*---------------------------------------------------------------------------*/
FoamFile
{
    version     2.0;
    format      ascii;
    class       surfaceVectorField;
    location    "0.8";
    object      Uf_0;
}
// * * * * * * * * * * * * * * * * * * * * * * * * * * * * * * * * * * * * * //

dimensions      [0 1 -1 0 0 0 0];

internalField   nonuniform List<vector> 
28732
(
(-0.0201414 -0.000407807 -0.000327428)
(-0.0152001 -0.00576067 0.00161089)
(-0.000697391 -0.00270477 -0.000602653)
(0.0054614 -0.00417155 0.000330649)
(-0.0064605 -0.0071098 0.000312586)
(-0.00322121 -0.00339035 0.00176252)
(0.00120991 -0.0107874 0.000581727)
(-0.00838545 0.0119167 1.94825e-05)
(-0.0205599 -0.00312869 -0.000840318)
(-0.0219656 -0.00542379 0.00124356)
(-0.0253422 -0.000303945 0.000461773)
(0.0214314 -0.0161555 0.000604504)
(0.0180145 -0.00109348 0.00343008)
(0.0236064 0.00456024 0.00341953)
(-0.00282912 -0.022008 0.00020878)
(-0.0302835 -0.0171081 0.000389619)
(-0.0171905 -0.0116256 -0.00102385)
(-0.0170409 -0.0157541 -0.00100619)
(-0.0251041 -0.0242577 1.51397e-05)
(-0.00208685 0.00200113 7.01979e-05)
(0.000342515 4.33625e-06 -3.6085e-05)
(0.000143791 -0.000384409 -4.7048e-05)
(-0.000318427 -0.000305944 -0.000170622)
(0.000210331 -2.69072e-05 -1.37751e-06)
(0.000338398 -3.56335e-05 -2.53921e-06)
(0.000334963 -6.95637e-05 -1.09407e-06)
(0.000562112 -8.94879e-05 -9.56526e-07)
(0.000205535 -5.12332e-05 -1.39892e-06)
(0.000383031 -5.03096e-05 1.00542e-07)
(0.000378161 -0.000115115 -1.93345e-06)
(0.000702389 -4.46012e-05 -8.42974e-07)
(0.000727344 -8.83976e-05 -2.14742e-06)
(0.00094466 -8.11208e-05 -9.68815e-07)
(0.000461343 -3.41915e-05 -3.33451e-06)
(0.000474914 -5.21644e-05 -3.2853e-06)
(0.000778098 -5.98122e-05 -3.43621e-06)
(0.000812614 -9.95046e-05 -3.2671e-06)
(0.000738563 -2.31885e-05 -3.50228e-08)
(0.000737676 -4.92903e-05 -1.91305e-07)
(0.000962148 -4.05463e-05 1.2296e-07)
(0.000760829 -1.3234e-05 1.22136e-07)
(0.000762723 -3.0136e-05 9.60744e-08)
(0.00100716 -2.34133e-05 1.97425e-07)
(0.000774297 -7.67224e-06 8.15342e-08)
(0.000774512 -1.83087e-05 6.08587e-08)
(0.0010274 -1.33486e-05 1.71988e-07)
(0.000782756 -4.62394e-06 2.99736e-08)
(0.000782838 -1.11687e-05 5.32978e-08)
(0.00104119 -8.1135e-06 1.69313e-07)
(0.000787923 -2.62323e-06 2.06816e-08)
(0.000787822 -6.89927e-06 2.34341e-08)
(0.00104971 -4.89678e-06 1.77774e-07)
(0.000789459 -1.4651e-06 4.51404e-08)
(0.000790171 -4.63322e-06 4.32385e-08)
(0.00105369 -2.56491e-06 1.56675e-07)
(0.000790498 -1.00608e-06 2.3334e-08)
(0.000790861 -2.90561e-06 4.89388e-08)
(0.00105503 -1.64939e-06 1.79275e-07)
(0.000790297 -6.99528e-07 2.49346e-08)
(0.000791011 -1.4036e-07 3.31115e-08)
(0.00105544 -1.2009e-06 1.35955e-07)
(0.000790112 -3.75202e-07 6.35328e-08)
(0.000790628 -1.30994e-06 4.91282e-08)
(0.00105507 -7.49042e-07 1.74992e-07)
(0.000788913 -3.4128e-07 5.94404e-08)
(0.000789595 -9.74373e-07 4.2879e-08)
(0.00105418 -3.02375e-07 1.64694e-07)
(0.000787013 -4.41075e-07 5.76063e-08)
(0.000788196 9.39047e-07 6.39538e-08)
(0.00105193 -5.89534e-07 1.5849e-07)
(0.000786426 -3.61532e-07 6.75103e-08)
(0.000787049 -3.76832e-07 4.98935e-08)
(0.00105019 -5.28035e-07 2.21922e-07)
(0.000785244 -2.11603e-07 4.17221e-08)
(0.000785934 -2.33648e-07 8.48338e-08)
(0.00104914 -3.91127e-07 1.34483e-07)
(0.000783661 -1.09077e-07 3.46397e-08)
(0.000784453 -8.4274e-08 4.08149e-08)
(0.00104719 -1.0911e-07 1.73314e-07)
(0.000782159 2.51158e-08 4.85136e-08)
(0.000783025 -1.69909e-07 7.95021e-08)
(0.00104508 -8.57929e-08 1.83578e-07)
(0.000780687 2.84898e-07 5.55879e-08)
(0.000781688 -7.17131e-08 4.46021e-08)
(0.00104316 2.28081e-07 1.85225e-07)
(0.000779392 4.00854e-07 6.94662e-08)
(0.000780117 -8.19418e-07 5.89372e-08)
(0.00104129 5.72193e-07 1.83738e-07)
(0.000777947 3.06963e-07 7.28038e-08)
(0.000778555 4.70503e-07 6.64294e-08)
(0.00103942 5.55298e-07 1.73786e-07)
(0.000776587 1.89451e-07 6.05698e-08)
(0.000777139 -5.96113e-07 3.49116e-08)
(0.00103755 3.23415e-07 2.22022e-07)
(0.000775182 2.95586e-07 6.34101e-08)
(0.000775959 1.88037e-08 4.81685e-08)
(0.00103588 2.00077e-07 1.79228e-07)
(0.000773163 1.25589e-07 6.72924e-08)
(0.000774039 -2.05148e-07 3.32613e-08)
(0.00103346 5.53376e-07 2.71167e-07)
(0.000771766 -4.00687e-07 3.63578e-10)
(0.000772072 -3.95481e-07 5.51986e-08)
(0.0010311 -2.75874e-07 1.79264e-07)
(0.000770281 -5.55749e-07 -3.27706e-08)
(0.000770969 2.15895e-06 4.2546e-08)
(0.00102933 -8.38281e-07 -2.02986e-08)
(0.000768703 -4.63004e-07 4.28278e-08)
(0.000769623 9.30911e-07 -3.09874e-10)
(0.00102714 -6.87311e-07 9.06889e-08)
(0.000767393 -3.50273e-07 7.96762e-08)
(0.000768183 1.53052e-07 1.51184e-07)
(0.00102523 -5.50921e-07 1.84364e-07)
(0.000766353 -1.67181e-07 5.52824e-08)
(0.00076705 5.12815e-09 4.76108e-08)
(0.00102387 -3.2809e-07 1.25091e-07)
(0.000764792 -4.87907e-08 4.90233e-08)
(0.000765683 -8.77521e-09 4.58437e-08)
(0.00102215 -2.95835e-08 1.72616e-07)
(0.000763289 -4.65634e-08 4.29924e-08)
(0.000764077 1.38424e-07 4.92817e-08)
(0.00102002 -4.24518e-09 1.67188e-07)
(0.000761705 1.50772e-08 3.70001e-08)
(0.000762584 8.75125e-08 3.67282e-08)
(0.0010179 -5.02004e-08 1.71253e-07)
(0.000760281 2.13344e-07 2.06622e-08)
(0.000761094 1.28453e-07 4.84201e-08)
(0.0010158 1.49985e-07 1.61138e-07)
(0.000758708 3.65002e-07 6.07544e-08)
(0.000759596 2.70559e-07 9.10273e-09)
(0.00101392 5.03254e-07 1.83445e-07)
(0.000757883 2.09798e-07 7.59416e-08)
(0.000758197 -9.89663e-07 9.9133e-08)
(0.00101247 5.23419e-07 1.85786e-07)
(0.000756366 1.18604e-08 5.16848e-08)
(0.000756888 8.95559e-08 4.40588e-08)
(0.00101081 4.84616e-08 1.72186e-07)
(0.000754875 -1.3321e-07 8.32781e-08)
(0.000755393 -4.16139e-08 5.83899e-08)
(0.00100868 -4.07003e-09 1.68369e-07)
(0.000753544 -2.65578e-07 1.65579e-07)
(0.000754078 -4.07581e-07 5.89796e-08)
(0.0010071 -3.82553e-07 1.77045e-07)
(0.000752071 -2.13601e-07 1.40662e-07)
(0.000752809 -3.58698e-07 1.53296e-07)
(0.0010051 -3.70061e-07 1.70241e-07)
(0.000750424 -1.20748e-07 5.9065e-08)
(0.000751331 2.15301e-07 4.93745e-08)
(0.00100293 -2.2453e-07 1.80838e-07)
(0.000749318 -1.14256e-07 6.93727e-08)
(0.000749906 -7.38294e-07 5.63881e-08)
(0.0010012 -1.351e-07 1.90908e-07)
(0.000747853 -3.3099e-07 9.58103e-08)
(0.000748501 1.05233e-08 8.89171e-08)
(0.000999387 -1.90359e-07 1.70335e-07)
(0.000746337 -4.9744e-07 8.05936e-08)
(0.000747106 -3.05885e-07 4.33487e-08)
(0.000997558 -6.62421e-07 1.659e-07)
(0.000744919 -3.70392e-07 5.4933e-08)
(0.000745609 -2.76863e-07 4.58891e-08)
(0.000995517 -6.19085e-07 1.55911e-07)
(0.000744343 -4.77155e-07 4.99029e-08)
(0.000993347 -3.63533e-07 2.63939e-07)
(-0.00413597 0.00346207 -0.00262183)
(0.0139115 0.0116302 -0.00298701)
(0.00774218 0.0201591 -0.00212837)
(0.005263 0.0101093 -0.00223595)
(-0.0160224 0.0103039 -0.0006748)
(-0.00224721 0.0248242 -0.000560099)
(-0.0142808 0.00857846 -0.000370301)
(-0.00332108 0.0189685 -0.000123237)
(-0.0111587 0.0271895 0.000337357)
(-0.00513316 0.0070622 -0.00192649)
(0.019984 0.00144762 0.000850413)
(0.0226518 0.00161367 0.000763542)
(0.0187895 0.00876695 0.000645107)
(0.00119554 -0.00539645 -0.00179816)
(0.00995764 0.000870196 -0.00280218)
(0.0235881 0.0202053 -0.000624035)
(-0.00029089 -0.000389015 -0.000599488)
(-0.0103144 0.0035637 0.00052369)
(0.000353763 0.00423419 0.000529078)
(-0.0141402 0.00860423 0.00185507)
(-0.0221283 -0.00314911 0.000657599)
(-0.0186171 0.00400556 0.00121853)
(0.0407392 -0.0185798 -0.00258509)
(0.0101618 -0.00607665 -0.00176424)
(0.0585436 -0.0158199 0.000727043)
(0.0256012 0.0133337 -0.000590212)
(0.0386441 -0.0154202 -0.00620819)
(0.00301123 -0.00164918 2.1378e-05)
(0.0042881 0.00564099 -0.00019682)
(0.00398245 -0.000272362 6.74373e-05)
(0.00146153 0.00154879 -1.83523e-05)
(0.00613028 0.00211457 -0.000189521)
(0.000248952 -8.65187e-05 -1.05615e-06)
(0.000350556 -0.000119898 -1.44482e-06)
(0.000400815 -0.00011254 -2.68614e-06)
(0.000371391 -0.000127667 -2.85274e-06)
(0.000616555 -0.00025485 -9.46989e-07)
(0.00026712 -8.33729e-05 3.28073e-06)
(0.000468331 -0.000147158 -9.66473e-07)
(0.000548242 -0.000139637 1.53563e-05)
(0.000754903 -7.68803e-05 -1.49639e-06)
(0.000772824 -9.63554e-05 -2.51178e-06)
(0.00101405 -0.000123913 -1.55979e-06)
(0.000508359 -7.81271e-05 -3.42575e-06)
(0.000551961 -8.15315e-05 -2.78366e-06)
(0.000878749 -0.000140804 -3.39956e-06)
(0.000979192 -0.000146093 -2.39737e-06)
(0.000767425 -4.92363e-05 -6.03022e-08)
(0.000772451 -6.63111e-05 -8.84907e-08)
(0.00101665 -7.86462e-05 1.35455e-07)
(0.000777403 -3.16368e-05 3.48085e-08)
(0.000784884 -4.44419e-05 7.33915e-08)
(0.00103548 -5.08624e-05 1.68374e-07)
(0.000784326 -1.99921e-05 3.26248e-08)
(0.000789171 -2.88143e-05 3.27669e-08)
(0.0010445 -3.22905e-05 1.70195e-07)
(0.000788595 -1.25493e-05 4.6768e-08)
(0.000792207 -1.84247e-05 4.85275e-08)
(0.00105149 -2.02206e-05 1.75542e-07)
(0.000790919 -8.04123e-06 4.59846e-08)
(0.000793498 -1.17186e-05 4.74169e-08)
(0.00105532 -1.27163e-05 1.75759e-07)
(0.000791684 -5.1978e-06 4.70351e-08)
(0.000793751 -7.48751e-06 4.78656e-08)
(0.00105703 -8.36396e-06 1.75098e-07)
(0.000791564 -3.32972e-06 5.87214e-08)
(0.000793213 -4.66617e-06 5.03179e-08)
(0.00105719 -5.249e-06 1.76183e-07)
(0.000791486 -2.15643e-06 5.72999e-08)
(0.000792489 -2.7916e-06 6.02685e-08)
(0.00105691 -3.46842e-06 2.34005e-07)
(0.000790366 -1.47009e-06 2.84764e-08)
(0.000791493 -1.73938e-06 5.1553e-08)
(0.00105609 -2.17762e-06 1.70658e-07)
(0.00078876 -1.03506e-06 4.73857e-08)
(0.000790144 -5.34808e-08 5.73323e-08)
(0.00105416 -1.6848e-06 1.1932e-07)
(0.0007882 -5.27825e-07 5.62455e-08)
(0.000788834 -1.1194e-06 2.61112e-08)
(0.0010526 -1.04694e-06 2.34947e-07)
(0.000786656 -1.41226e-07 6.72057e-08)
(0.000787534 -3.77269e-07 3.40207e-08)
(0.00105117 -3.6474e-07 1.77756e-07)
(0.000785229 -6.27466e-08 8.39407e-08)
(0.000786032 -4.14734e-07 8.06388e-08)
(0.00104921 -1.73472e-08 1.8016e-07)
(0.00078366 4.18563e-08 8.5665e-08)
(0.000784583 -2.86089e-08 5.3515e-08)
(0.0010472 -1.38491e-07 1.7612e-07)
(0.0007827 1.48042e-07 7.56018e-08)
(0.000783157 -1.87563e-06 7.48495e-08)
(0.00104545 2.72782e-07 2.4596e-07)
(0.000781094 1.60845e-07 4.79469e-08)
(0.000781703 1.72242e-07 1.42775e-08)
(0.00104381 1.62264e-07 1.66517e-07)
(0.000779244 1.32047e-07 5.58981e-08)
(0.00078008 -3.47045e-07 4.56004e-08)
(0.0010415 3.30622e-07 1.71935e-07)
(0.000777743 5.18877e-10 2.85471e-08)
(0.00077839 -3.65716e-08 7.97979e-08)
(0.00103915 9.2807e-08 2.10055e-07)
(0.000776428 -1.50146e-07 2.25061e-08)
(0.000776951 -5.53822e-08 3.09345e-08)
(0.00103724 -2.29984e-08 1.20345e-07)
(0.000775259 -6.07186e-07 1.80244e-08)
(0.00077539 -3.53983e-07 5.51455e-08)
(0.00103577 -3.31366e-07 1.71818e-07)
(0.000772529 -7.48376e-07 2.11606e-08)
(0.000773866 3.36147e-06 -5.06687e-08)
(0.0010331 -1.2797e-06 3.17669e-08)
(0.000771242 -5.16236e-07 9.7385e-08)
(0.000772365 -4.09856e-07 4.46961e-08)
(0.00103026 -7.21885e-07 1.5703e-07)
(0.000770443 -3.87116e-07 7.50202e-08)
(0.000771132 -4.71437e-08 1.16222e-07)
(0.00102907 -6.47868e-07 2.69181e-07)
(0.0007691 1.85014e-08 1.07999e-07)
(0.00077013 -1.29681e-07 6.26338e-08)
(0.00102766 -3.61979e-07 2.36646e-07)
(0.000767691 4.67209e-07 1.19151e-07)
(0.000768743 6.08735e-07 2.60614e-07)
(0.00102579 4.8386e-07 1.34972e-07)
(0.000766555 4.47426e-07 3.81726e-08)
(0.000767024 1.12232e-06 8.7116e-08)
(0.0010242 8.4224e-07 6.3906e-08)
(0.000764878 2.22345e-07 4.6101e-08)
(0.0007654 3.27282e-07 5.61878e-08)
(0.00102226 3.61897e-07 1.67713e-07)
(0.000763418 1.63904e-07 4.30214e-08)
(0.000764004 6.25363e-07 5.75804e-08)
(0.00102007 2.11716e-07 1.37638e-07)
(0.000761968 1.84332e-07 4.81446e-08)
(0.000762608 1.33229e-07 8.44956e-08)
(0.00101817 2.20083e-07 1.68538e-07)
(0.000760428 2.79142e-07 3.68727e-08)
(0.000761211 1.48215e-07 4.82201e-08)
(0.00101631 3.04399e-07 1.78438e-07)
(0.000758997 4.2236e-07 4.74535e-08)
(0.000759773 4.01182e-07 3.10136e-08)
(0.00101424 5.23681e-07 1.60827e-07)
(0.000757197 2.90327e-07 6.72671e-08)
(0.00075803 -9.36879e-07 4.68862e-08)
(0.00101198 6.68471e-07 1.99733e-07)
(0.000756023 -9.71323e-08 5.07595e-08)
(0.000756403 -1.7776e-07 6.45388e-08)
(0.00101011 1.25449e-07 1.66672e-07)
(0.000754508 -4.11635e-07 3.40912e-08)
(0.000755001 4.5007e-07 5.80438e-08)
(0.00100825 -3.47332e-07 1.42672e-07)
(0.000753341 -4.45222e-07 4.66681e-08)
(0.000754038 -8.83316e-07 3.76103e-08)
(0.00100644 -6.89428e-07 1.81398e-07)
(0.000752121 -2.1815e-07 6.20401e-08)
(0.000753095 -8.86622e-08 7.05728e-08)
(0.00100508 -5.16298e-07 1.32401e-07)
(0.000750754 -7.36041e-08 4.66954e-08)
(0.000751513 1.09013e-08 6.64781e-08)
(0.0010033 -1.42409e-07 1.80196e-07)
(0.00074912 -7.43172e-08 7.59226e-08)
(0.000749905 -4.09565e-08 5.2476e-08)
(0.00100124 -1.17697e-07 1.39251e-07)
(0.000747755 -1.24837e-07 3.64693e-08)
(0.000748438 2.50748e-08 7.96904e-08)
(0.000999295 -1.0167e-07 1.64674e-07)
(0.000746366 -1.79166e-07 8.64338e-09)
(0.000747039 6.81978e-08 4.50878e-09)
(0.000997435 -2.00017e-07 1.40827e-07)
(0.000744928 -2.13392e-07 4.08577e-08)
(0.000745569 -1.87233e-07 4.74514e-08)
(0.000995461 -2.75831e-07 1.66266e-07)
(0.000744608 1.94408e-07 4.52976e-08)
(0.000994208 -3.09529e-07 7.22018e-08)
(4.38817e-05 0.0101589 -0.000114562)
(0.00168097 0.00738774 2.4095e-05)
(-0.00597822 0.0152099 -2.84049e-05)
(-0.00863646 0.00877873 0.000157619)
(0.0284792 0.044516 -0.000911604)
(0.025493 0.0105377 0.00035284)
(-0.00980626 -0.00725909 0.000444398)
(-0.000614808 -0.0065249 0.0017749)
(0.0129874 0.0147452 0.00635762)
(-0.00685965 -0.0027599 0.00098035)
(0.00805295 0.00838293 0.000815176)
(-0.0259513 0.00395773 -0.000276933)
(-0.0187992 -0.00308789 -0.00109692)
(0.00054013 0.00331988 0.000401544)
(0.00585598 -0.00392086 -0.000539504)
(-0.0385868 -0.00568656 0.0033227)
(0.0214789 -0.0116802 -0.00301137)
(0.0172065 0.00905823 0.000543239)
(0.0082528 0.00106422 0.000166888)
(0.0241205 0.00268534 -0.000359816)
(-0.0170957 -0.0081527 -1.5579e-05)
(-0.0132388 0.00651475 0.000466066)
(0.00295749 0.0204859 -0.00758253)
(0.00590715 -0.00327158 -0.00389436)
(0.0263084 0.00694063 0.000670753)
(0.0263084 0.00694063 0.000670753)
(0.0263084 0.00694063 0.000670753)
(0.0263084 0.00694063 0.000670753)
(0.00623593 -0.0236845 -0.00180744)
(-0.00896649 -0.00431618 -0.00193919)
(0.020049 -0.00631371 -0.00176722)
(0.00417943 0.02565 -0.000315009)
(0.0128601 -0.0169276 -0.00575305)
(-0.0162089 -0.00688049 -9.47664e-05)
(0.000422991 -0.00873843 0.00157165)
(-0.000226809 -0.00361859 -0.000103882)
(-0.00674565 -0.00417204 -0.000305124)
(-0.0023298 -0.00454633 -0.000127843)
(0.000259071 -0.000130505 1.60266e-05)
(0.00027488 -8.42898e-06 -7.61012e-07)
(0.000271163 -1.5233e-05 4.53034e-06)
(0.000426532 -3.29119e-05 3.32653e-06)
(0.000225172 -1.58657e-05 -7.21767e-08)
(0.00078516 -9.60294e-05 -1.10467e-06)
(0.000827266 -0.000132044 -2.61596e-06)
(0.00106496 -0.000151334 -1.24817e-06)
(0.000552421 -7.59661e-05 -4.79423e-06)
(0.000536755 -9.86561e-05 -3.76147e-06)
(0.000948739 -0.000123805 -5.1151e-06)
(0.000927103 -0.000170989 -3.42377e-06)
(0.000793806 -6.24705e-05 4.515e-08)
(0.000814754 -7.88943e-05 -5.04966e-08)
(0.001054 -9.75111e-05 1.64738e-07)
(0.000797045 -4.05675e-05 7.13631e-08)
(0.000812465 -5.06985e-05 6.94275e-08)
(0.00106552 -6.38961e-05 1.94718e-07)
(0.000797864 -2.58352e-05 4.86644e-08)
(0.000807716 -3.18256e-05 4.49412e-08)
(0.00106597 -4.07735e-05 1.79981e-07)
(0.000797497 -1.63783e-05 4.91768e-08)
(0.000804109 -1.993e-05 5.12129e-08)
(0.00106582 -2.58097e-05 1.78951e-07)
(0.000796679 -1.03743e-05 4.92978e-08)
(0.000801054 -1.26363e-05 4.9174e-08)
(0.00106464 -1.63673e-05 1.77571e-07)
(0.000795467 -6.51719e-06 5.11476e-08)
(0.000798605 -7.90442e-06 5.04076e-08)
(0.00106309 -1.03327e-05 1.7728e-07)
(0.000794095 -4.02013e-06 5.18618e-08)
(0.000796355 -4.87752e-06 4.85685e-08)
(0.00106119 -6.43999e-06 1.77133e-07)
(0.000792727 -2.5209e-06 5.45245e-08)
(0.000794375 -3.00701e-06 4.92231e-08)
(0.00105931 -3.92338e-06 1.77311e-07)
(0.000791318 -1.64159e-06 8.0407e-08)
(0.000792601 -1.965e-06 5.08816e-08)
(0.00105732 -2.58867e-06 1.8158e-07)
(0.000790103 -1.01835e-06 3.60679e-08)
(0.000790929 -1.59495e-06 8.90659e-08)
(0.00105561 -1.67029e-06 2.55506e-07)
(0.000788271 -6.2114e-07 3.88383e-09)
(0.000789334 -3.57842e-08 -1.18693e-09)
(0.00105359 -1.04533e-06 1.2766e-07)
(0.000786966 -4.11839e-07 4.74388e-08)
(0.000787798 -6.03741e-07 3.38544e-08)
(0.00105148 -6.54279e-07 1.72708e-07)
(0.000785297 -2.49375e-07 5.02218e-08)
(0.000786237 -8.27372e-07 3.90476e-08)
(0.00104943 -4.6028e-07 2.17087e-07)
(0.000784127 -1.09045e-07 4.26927e-08)
(0.00078476 -4.10587e-07 4.74144e-08)
(0.00104755 -2.23076e-07 1.71832e-07)
(0.000782159 -1.26238e-07 1.35445e-08)
(0.000783136 1.60783e-07 3.69974e-08)
(0.00104546 -9.68196e-08 7.29482e-08)
(0.000780756 -2.85155e-07 1.1921e-08)
(0.000781506 -1.18329e-10 2.66957e-08)
(0.00104323 -2.47218e-07 1.77745e-07)
(0.000779136 -3.23782e-07 6.94893e-08)
(0.000780033 6.6111e-07 1.28844e-07)
(0.0010412 -5.15473e-07 1.14232e-07)
(0.000777591 -2.4252e-07 8.22008e-08)
(0.000778493 1.14531e-07 7.08214e-08)
(0.00103898 -3.54256e-07 1.67819e-07)
(0.000776006 -2.02129e-07 6.35662e-08)
(0.000777002 1.66888e-08 6.22624e-08)
(0.00103702 -2.57552e-07 1.76887e-07)
(0.000773936 -2.78631e-07 -1.35143e-08)
(0.000775295 -1.09124e-07 7.4116e-08)
(0.00103432 -2.18077e-07 2.07584e-07)
(0.000773747 -5.59113e-09 -2.71633e-08)
(0.000774207 -1.04942e-06 -1.11287e-08)
(0.00103298 -4.41779e-07 3.70151e-07)
(0.000772023 5.53656e-07 6.35107e-08)
(0.000773063 -1.00422e-06 3.39623e-08)
(0.0010319 5.00805e-07 2.36721e-07)
(0.000770967 7.17094e-07 1.03853e-07)
(0.000771334 -9.52244e-07 5.38909e-08)
(0.00102978 1.00491e-06 1.99927e-07)
(0.000769801 6.09925e-07 2.15187e-07)
(0.000769993 -1.91648e-06 4.82934e-08)
(0.00102855 9.17607e-07 2.72389e-07)
(0.000768156 5.01073e-07 2.28633e-07)
(0.000768605 4.97388e-07 1.9044e-07)
(0.00102674 7.11857e-07 1.96301e-07)
(0.000765782 3.27914e-07 1.05141e-07)
(0.000766806 -1.64571e-08 9.48623e-08)
(0.00102371 6.00967e-07 3.34446e-07)
(0.000764485 1.81254e-07 6.76668e-08)
(0.000765216 1.21628e-07 2.9017e-08)
(0.00102136 2.23474e-07 1.7238e-07)
(0.000763229 1.44486e-07 9.90462e-08)
(0.000763957 -5.04667e-08 5.57712e-08)
(0.00101984 1.99863e-07 2.02485e-07)
(0.000761843 9.37336e-08 8.45824e-08)
(0.000762545 1.95486e-07 8.23359e-08)
(0.00101802 1.48969e-07 1.61485e-07)
(0.000760498 5.87508e-08 4.23663e-08)
(0.000761167 1.91553e-07 4.67407e-08)
(0.00101618 8.80443e-08 1.59378e-07)
(0.000759024 -9.17275e-09 3.04414e-08)
(0.000759688 5.14392e-07 2.9251e-08)
(0.00101437 3.89036e-08 1.65889e-07)
(0.00075702 -6.66495e-09 4.41524e-08)
(0.000758033 3.65539e-07 1.80814e-08)
(0.00101197 -8.31995e-08 1.28205e-07)
(0.000755448 -1.89503e-09 7.18251e-08)
(0.000756409 4.78625e-08 5.72403e-08)
(0.00100954 6.67661e-08 1.66939e-07)
(0.000754232 2.183e-07 6.15692e-08)
(0.000755275 4.39317e-08 1.01031e-07)
(0.00100766 -3.84372e-08 1.80541e-07)
(0.000754162 3.49865e-07 6.15049e-08)
(0.000754201 -2.06804e-06 5.69504e-08)
(0.00100689 6.90668e-07 1.33469e-07)
(0.000752432 1.21105e-07 7.50121e-08)
(0.000752807 2.11237e-07 4.18276e-08)
(0.00100579 3.49424e-07 1.76505e-07)
(0.000750705 1.26606e-08 7.22629e-08)
(0.000751376 4.90622e-07 6.06429e-08)
(0.00100343 1.22793e-07 1.63225e-07)
(0.00074906 4.51043e-08 5.62356e-08)
(0.000749945 3.69186e-07 5.49841e-08)
(0.00100126 4.88521e-08 1.61166e-07)
(0.000747778 9.44918e-08 4.77528e-08)
(0.000748499 -7.65811e-08 4.4836e-08)
(0.000999286 1.69064e-07 1.65569e-07)
(0.000746282 1.05752e-07 4.33038e-08)
(0.000747052 -5.70496e-08 4.08217e-08)
(0.000997342 1.61958e-07 1.8696e-07)
(0.000744992 1.01815e-07 5.1892e-08)
(0.000745562 -3.65114e-07 3.69885e-08)
(0.000995388 1.68632e-07 1.72359e-07)
(0.000744481 1.32168e-07 5.68154e-08)
(0.000994075 1.11156e-07 1.55847e-07)
(-0.0148821 -0.00202428 -0.000339028)
(-0.00750395 -0.0149982 0.00220736)
(-0.00629151 -0.0166073 0.00124414)
(0.000252357 -0.0136535 0.000333265)
(-0.00290145 -0.0156738 -4.90649e-05)
(-0.00210928 -0.00900792 0.000838532)
(-0.00529016 -0.00240269 0.000338058)
(0.00301303 -0.00366771 0.000666099)
(-0.0115004 -0.00580233 -0.00020212)
(0.00903065 0.012643 0.000440251)
(0.00510247 -0.00242388 -0.000393656)
(0.0186405 0.000484842 0.000107313)
(0.012205 0.00367873 0.000369051)
(0.00888449 0.000341139 -0.00111697)
(0.0145705 -0.00194393 1.61055e-05)
(0.0103612 0.000278134 0.00115251)
(0.020018 -0.00856381 0.000162218)
(0.0155991 0.0153306 0.000903183)
(0.000806231 -0.00125453 -0.000379809)
(0.0057482 0.0056642 -6.77793e-05)
(-0.000242914 -0.00491064 9.75961e-05)
(-0.0186738 0.000235962 -0.000737831)
(-0.00106217 0.00323623 -0.003991)
(-0.00510888 -0.0173579 0.000233441)
(0.000347896 -0.0248652 0.000233535)
(-0.0129998 -0.00801513 -0.00056813)
(0.00852172 0.00245534 0.00078317)
(0.0117045 0.0305859 0.000343624)
(0.00848941 0.00702499 0.00280838)
(0.00107227 -0.00353188 0.000174773)
(0.00232546 0.00341764 0.00120259)
(-0.0114013 -0.00319747 -0.000288218)
(-0.0216021 -0.010472 -0.000202076)
(0.0017981 -0.00561743 -0.000528752)
(-0.00751331 0.00276388 -0.000545805)
(-0.0168668 -0.00446815 -0.00236665)
(0.00100699 0.00205005 0.000219638)
(-0.000797773 0.000775194 -0.000450455)
(0.00373412 -0.00694364 0.000184351)
(0.0013062 -0.00106212 -0.000130607)
(0.00319763 0.00290062 -0.000171711)
(0.00174347 -0.00035572 2.03053e-05)
(0.00046406 -0.000237568 4.95312e-05)
(0.000527593 -0.000269727 6.05104e-05)
(0.000740931 -0.000341043 0.000114542)
(0.000410857 -0.000169213 3.26798e-05)
(0.000853393 -0.000100081 -1.56263e-06)
(0.000871322 -0.000111117 -2.68437e-06)
(0.00115462 -0.000162377 -1.68673e-06)
(0.000611488 -9.6753e-05 -5.33264e-06)
(0.000625601 -7.24194e-05 -2.97973e-06)
(0.00105344 -0.000156102 -4.79612e-06)
(0.00110784 -9.85433e-05 2.16402e-06)
(0.000835444 -5.90993e-05 -2.62583e-08)
(0.000866453 -5.85468e-05 1.42235e-07)
(0.00112682 -9.11484e-05 1.876e-07)
(0.000822998 -3.72773e-05 4.30136e-08)
(0.000839915 -3.71523e-05 6.71859e-08)
(0.00110692 -5.80634e-05 1.81967e-07)
(0.000814159 -2.31938e-05 4.74876e-08)
(0.000825427 -2.28075e-05 6.75972e-08)
(0.00109244 -3.6013e-05 1.83091e-07)
(0.000807514 -1.4585e-05 5.12107e-08)
(0.000814936 -1.38715e-05 4.66126e-08)
(0.00108221 -2.24863e-05 1.98332e-07)
(0.000803005 -9.13843e-06 5.02834e-08)
(0.000807903 -8.95502e-06 8.66664e-08)
(0.00107479 -1.42998e-05 1.78685e-07)
(0.000799474 -5.51974e-06 4.78291e-08)
(0.000803154 -5.43e-06 5.09276e-08)
(0.00106952 -8.75764e-06 1.77584e-07)
(0.000796584 -3.28327e-06 4.59296e-08)
(0.000799165 -3.16763e-06 4.03833e-08)
(0.00106526 -5.16593e-06 1.75317e-07)
(0.000794209 -2.02779e-06 4.55797e-08)
(0.000795953 -1.92418e-06 4.18204e-08)
(0.00106175 -3.10941e-06 1.7448e-07)
(0.000792236 -1.27214e-06 5.95282e-08)
(0.000793551 -1.31716e-06 4.75252e-08)
(0.00105892 -1.99743e-06 1.69919e-07)
(0.000790171 -8.57277e-07 5.18401e-08)
(0.000791451 -5.80958e-07 6.16799e-08)
(0.0010561 -1.19265e-06 1.52475e-07)
(0.000788802 -6.42662e-07 2.87724e-08)
(0.000789605 -2.01082e-07 6.20331e-08)
(0.00105388 -9.53244e-07 1.73846e-07)
(0.000787096 -4.92689e-07 2.54616e-08)
(0.000787988 -3.82722e-07 5.62484e-08)
(0.00105191 -6.96057e-07 1.7643e-07)
(0.000785647 -3.86406e-07 3.62376e-08)
(0.000786372 -1.48921e-07 4.35569e-08)
(0.00104975 -6.06161e-07 1.2219e-07)
(0.000783905 -3.91976e-07 4.17224e-08)
(0.000784755 -1.2719e-07 6.27052e-08)
(0.00104766 -4.27837e-07 1.75245e-07)
(0.000782323 -3.47934e-07 5.01519e-08)
(0.000783193 -2.54291e-07 1.74597e-07)
(0.00104542 -6.13688e-07 2.10113e-07)
(0.000780876 -2.22929e-07 1.43586e-07)
(0.000781663 3.36201e-08 8.30009e-08)
(0.00104329 -3.08054e-07 1.67056e-07)
(0.000779331 -1.01538e-07 1.30194e-07)
(0.000780186 -8.95285e-08 1.59187e-07)
(0.00104137 -3.18173e-07 2.3072e-07)
(0.00077789 8.46505e-08 5.08858e-08)
(0.000778726 -3.54629e-08 5.27351e-08)
(0.00103947 5.47161e-09 1.79747e-07)
(0.00077644 2.48198e-07 7.28085e-08)
(0.000777206 -2.95435e-08 6.49134e-08)
(0.00103741 2.06582e-07 1.73402e-07)
(0.000775155 6.86754e-07 7.65285e-08)
(0.00077584 -4.80969e-07 4.88414e-08)
(0.00103554 4.89591e-07 1.82056e-07)
(0.000773951 8.82065e-07 4.99827e-08)
(0.000774447 -1.84881e-06 3.75796e-08)
(0.001034 1.40976e-06 2.05115e-07)
(0.000772206 7.74175e-07 2.43362e-08)
(0.000772924 6.54239e-08 2.74142e-08)
(0.00103206 1.01155e-06 1.21132e-07)
(0.000770369 8.07773e-07 -1.66652e-09)
(0.000771372 -1.67734e-07 3.37217e-08)
(0.00102958 1.09545e-06 1.49432e-07)
(0.000768771 4.5996e-07 2.35022e-08)
(0.000769556 -4.83123e-07 1.67911e-08)
(0.00102729 1.08201e-06 8.2454e-08)
(0.000767442 -1.39997e-08 5.66991e-08)
(0.000768011 6.98293e-07 5.93082e-08)
(0.00102539 1.59931e-07 1.45969e-07)
(0.000766023 -3.43959e-08 1.8759e-08)
(0.00076678 2.47441e-08 4.84456e-08)
(0.00102358 -1.83049e-07 1.65633e-07)
(0.000764741 8.59593e-08 1.71131e-08)
(0.000765366 -1.10548e-07 2.44976e-08)
(0.00102176 1.20065e-07 1.72913e-07)
(0.000763247 9.36813e-08 3.90527e-08)
(0.000763967 1.85771e-08 4.47734e-08)
(0.00101997 1.17885e-07 1.70538e-07)
(0.000761861 7.19378e-08 4.45053e-08)
(0.000762517 1.23519e-07 1.78619e-08)
(0.00101803 1.03478e-07 1.71191e-07)
(0.000760407 -1.01472e-07 3.36308e-08)
(0.00076095 2.65218e-07 5.92779e-08)
(0.00101617 3.93756e-08 1.66914e-07)
(0.00075873 -2.5484e-07 1.68944e-08)
(0.000759497 1.70363e-06 5.49666e-08)
(0.00101403 -3.54512e-07 1.0684e-07)
(0.000757426 -9.23211e-08 3.11572e-08)
(0.000758237 7.87925e-07 4.59239e-08)
(0.00101202 -3.65932e-07 1.28582e-07)
(0.000755961 2.64332e-07 8.64328e-08)
(0.000756855 1.62389e-07 4.50308e-08)
(0.00101017 8.63155e-08 1.65352e-07)
(0.000755459 5.42915e-07 9.6426e-08)
(0.000755622 -3.81554e-07 1.40703e-07)
(0.00100903 5.9499e-07 1.17545e-07)
(0.000752852 4.76024e-07 3.72778e-08)
(0.000754115 -1.0464e-06 6.35629e-08)
(0.00100692 8.36306e-07 2.03274e-07)
(0.00075172 1.74861e-07 2.74527e-08)
(0.000752429 4.957e-07 -1.24132e-08)
(0.00100436 4.66921e-07 1.23351e-07)
(0.000750651 1.91778e-08 4.33657e-08)
(0.00075118 2.20935e-07 5.86351e-08)
(0.00100292 6.82256e-08 1.57902e-07)
(0.000749346 8.80904e-08 4.35877e-08)
(0.00075003 1.81405e-07 4.49494e-08)
(0.0010013 2.623e-08 1.7376e-07)
(0.000747703 1.53052e-07 3.79062e-08)
(0.00074858 -4.80496e-08 2.246e-08)
(0.000999432 1.98299e-07 1.88981e-07)
(0.000746487 1.84071e-07 3.45076e-08)
(0.00074709 -1.86584e-07 -1.26714e-07)
(0.000997432 1.72333e-07 1.61691e-07)
(0.000744769 2.2534e-07 4.19059e-08)
(0.000745611 1.31475e-07 5.7925e-08)
(0.000995392 2.98542e-07 1.62149e-07)
(0.0007442 3.46762e-07 6.98151e-08)
(0.000993858 3.03146e-07 1.2021e-07)
(0.000540907 0.00530978 -0.000697946)
(-0.0005195 0.00187811 6.66639e-05)
(-0.00139456 0.00351742 0.000100424)
(-0.00144093 0.00429345 0.00018272)
(0.000272968 0.00905278 -0.00105696)
(0.00266522 0.0100029 -0.00157309)
(0.00425553 0.0161702 0.00046108)
(0.00871541 0.0184789 -0.000918098)
(-0.00717784 0.032277 0.00191649)
(-0.018869 0.0343257 -0.0729748)
(-0.0175059 0.0324796 0.0266738)
(-0.00541701 0.0305871 0.044192)
(0.00857868 -0.00364813 0.000328824)
(0.00680605 0.00410075 0.000788926)
(-0.0124794 -0.00167715 0.000391755)
(0.00210804 -0.0125432 0.00115601)
(0.00325016 -0.00766931 0.00287712)
(0.0190134 -0.00139546 -0.00646355)
(-0.00258266 -0.0055157 -0.00362781)
(0.00727358 -0.00331029 -0.00100825)
(-0.0019084 -0.000636835 -0.00402548)
(0.0117531 0.0114885 -0.00283949)
(-0.00164313 -0.00600467 -0.00129034)
(0.0120587 0.016173 -0.00326764)
(-0.00520605 0.000895954 0.00109836)
(0.0144208 -0.00195549 0.00110292)
(0.0162648 0.0068616 0.000833484)
(0.00772553 0.00602873 -0.00431694)
(-0.0245084 -0.0016998 -0.00285973)
(0.0182639 0.0122605 -0.000109854)
(0.000216758 0.00730957 -0.000295527)
(0.00299545 0.0157041 -0.00173717)
(0.00580986 0.0101609 0.000294642)
(-0.00528709 -0.00441726 -0.000190832)
(-0.0110695 0.000950311 0.000622086)
(-0.0124006 -0.00581246 -6.14515e-05)
(-0.0172106 -0.00886984 0.000130757)
(-0.0104983 -0.00339705 0.000411903)
(0.00079936 -5.50012e-05 4.99156e-05)
(0.001059 -8.03484e-05 8.54133e-06)
(0.00114098 -7.79042e-05 -3.048e-06)
(0.00118079 4.16751e-05 -3.46341e-05)
(0.00120826 -4.23554e-05 1.30156e-05)
(0.000902139 -6.20823e-05 -9.80438e-07)
(0.000929136 -4.2972e-05 -2.99171e-06)
(0.00117255 -0.000106493 -2.06368e-06)
(0.000654562 -7.30865e-05 -1.36345e-06)
(0.000669641 -9.0499e-05 3.83781e-07)
(0.00117648 -0.000115892 4.44233e-06)
(0.00122637 -0.000154137 5.52945e-06)
(0.000929136 -4.2972e-05 -2.99171e-06)
(0.000929136 -4.2972e-05 -2.99171e-06)
(0.000929136 -4.2972e-05 -2.99171e-06)
(0.000866123 -3.11491e-05 2.35704e-07)
(0.000902176 -1.68563e-05 2.72062e-07)
(0.00118562 -4.54187e-05 2.71823e-07)
(0.000841474 -1.91211e-05 9.17693e-08)
(0.000854983 -8.235e-06 -1.55174e-08)
(0.00113487 -2.87174e-05 1.73693e-07)
(0.000825447 -1.15119e-05 6.67289e-08)
(0.000834977 -4.76373e-06 7.0085e-08)
(0.00111071 -1.69676e-05 1.80143e-07)
(0.000814475 -6.94682e-06 8.20551e-08)
(0.000820666 -2.00266e-06 3.72094e-08)
(0.00109313 -1.05556e-05 1.70548e-07)
(0.000807826 -4.18077e-06 8.73222e-08)
(0.000811375 -3.28475e-06 9.07245e-08)
(0.0010819 -6.0512e-06 2.25322e-07)
(0.000802719 -2.78507e-06 4.34853e-08)
(0.000804907 -9.87607e-07 4.79111e-08)
(0.00107458 -3.93024e-06 1.77649e-07)
(0.000798285 -1.88046e-06 3.62737e-08)
(0.000800303 1.04979e-06 5.57316e-08)
(0.00106829 -2.7608e-06 1.35522e-07)
(0.000795123 -1.15993e-06 4.37641e-08)
(0.000796858 2.88331e-07 6.68632e-08)
(0.0010633 -1.78415e-06 1.64253e-07)
(0.000792765 -7.17676e-07 4.96724e-08)
(0.000794106 -3.62058e-07 4.91924e-08)
(0.00105973 -1.02532e-06 1.8183e-07)
(0.000790779 -4.29509e-07 7.18728e-08)
(0.000791813 -1.96059e-08 6.63942e-08)
(0.00105692 -7.19203e-07 1.76858e-07)
(0.000788834 -1.92841e-07 8.9511e-08)
(0.000789901 8.12608e-08 5.83758e-08)