/*--------------------------------*- C++ -*----------------------------------*\
| =========                 |                                                 |
| \\      /  F ield         | OpenFOAM: The Open Source CFD Toolbox           |
|  \\    /   O peration     | Version:  5.0                                   |
|   \\  /    A nd           | Web:      www.OpenFOAM.org                      |
|    \\/     M anipulation  |                                                 |
\*---------------------------------------------------------------------------*/
FoamFile
{
    version     2.0;
    format      ascii;
    class       surfaceScalarField;
    location    "0.3";
    object      alphaPhi10;
}
// * * * * * * * * * * * * * * * * * * * * * * * * * * * * * * * * * * * * * //

dimensions      [0 3 -1 0 0 0 0];

internalField   nonuniform List<scalar> 
12667
(
1.42986e-09
4.18614e-12
-4.94558e-11
1.39871e-09
-8.20568e-12
2.59543e-11
1.3479e-09
4.48085e-11
5.65049e-11
2.15234e-10
-2.94994e-11
1.28494e-10
1.98839e-10
3.72249e-10
4.1199e-10
2.95774e-11
-6.00781e-11
2.60212e-11
6.59303e-11
2.63771e-11
4.94405e-11
1.17047e-09
6.42014e-12
2.05144e-12
2.00908e-10
-3.05646e-22
1.21674e-21
-3.02196e-23
-2.6235e-23
3.0629e-23
-9.33665e-22
1.75473e-22
5.17212e-26
-1.35983e-25
-6.61107e-27
7.14912e-27
-8.35551e-25
1.34614e-25
-7.81895e-24
4.80022e-29
-8.40772e-28
-7.85758e-29
1.84924e-33
-3.55512e-32
1.62452e-33
2.51796e-37
-7.11468e-36
1.89076e-35
9.85129e-41
-1.43634e-39
-1.3536e-38
4.06719e-44
-2.79435e-43
-3.28304e-42
1.6947e-47
-6.09594e-47
-6.26813e-47
7.07314e-51
-1.31565e-50
2.81962e-48
2.97394e-54
-2.09468e-54
1.73318e-50
1.23105e-57
-8.3736e-58
-1.81774e-55
5.19705e-61
-4.80959e-61
9.50028e-60
2.15941e-64
-2.08442e-64
8.16058e-61
8.92096e-68
-4.38281e-68
3.11529e-64
5.62384e-70
-1.11552e-71
1.08072e-68
1.52369e-74
-1.11013e-76
-3.15224e-71
9.65451e-78
2.62712e-78
5.15896e-74
1.21043e-80
2.67095e-81
-2.44835e-77
-2.3171e-83
1.70077e-84
-9.15796e-80
3.2981e-86
-1.85824e-88
-6.13786e-83
7.11583e-90
3.18236e-91
2.70405e-86
-5.91212e-93
3.07502e-95
2.34711e-89
-9.82429e-96
1.35741e-99
9.97026e-93
5.74403e-100
5.13606e-102
2.9745e-96
-6.43498e-102
-1.44748e-104
2.52244e-99
4.77991e-105
-1.78223e-108
-6.33599e-102
2.41829e-108
-1.63994e-111
-2.29064e-105
-3.33607e-111
-2.54803e-114
2.60284e-108
-1.47084e-114
-9.7445e-119
3.76776e-111
-8.22638e-119
-1.19609e-121
8.59248e-117
-4.43753e-121
-7.73783e-125
-3.61513e-118
-1.83602e-124
1.47453e-127
-2.96113e-121
1.93912e-127
1.24304e-130
-6.29945e-125
4.68519e-131
1.25283e-133
1.64524e-127
-1.72042e-133
8.19549e-138
3.018e-130
1.77385e-138
-1.03841e-139
-5.78693e-134
5.75517e-140
-3.08836e-143
-1.01031e-136
1.63651e-143
4.97043e-146
8.88731e-141
-1.40801e-148
1.60699e-149
1.61574e-143
2.21767e-149
8.42492e-154
-1.52904e-146
6.99861e-153
2.18885e-155
-3.44126e-151
8.93566e-155
6.53011e-159
4.7981e-153
1.40629e-156
-1.13847e-159
2.96813e-156
7.77218e-161
1.08965e-157
1.45584e-09
2.40503e-11
-9.74593e-11
1.43133e-09
7.18867e-12
5.48599e-12
1.41182e-09
4.95167e-11
7.52125e-12
2.42147e-10
2.71976e-11
7.87477e-11
2.17577e-10
4.33215e-10
4.06773e-10
3.06675e-11
1.33393e-10
1.06388e-12
6.55047e-11
-3.01473e-10
-3.41778e-10
1.08094e-09
-1.84816e-10
-1.83743e-09
-7.98182e-18
6.16767e-20
2.37425e-18
-7.15481e-18
4.04965e-20
-5.07848e-17
-1.40738e-16
2.04026e-16
3.24849e-22
-3.08079e-21
-4.3815e-23
-2.77387e-22
-3.3429e-21
-1.35048e-21
8.02272e-21
2.05641e-28
-2.72333e-25
-2.99282e-28
7.0647e-32
-6.60755e-29
1.13462e-31
1.53637e-35
-2.19351e-32
6.51368e-35
2.58954e-39
-6.26965e-36
2.04035e-38
8.32374e-43
-1.62991e-39
7.59307e-43
1.68483e-46
-3.98662e-43
-7.70328e-44
-6.10614e-50
-6.43891e-47
-1.17185e-47
2.53974e-52
-5.53865e-51
1.41375e-50
2.01077e-56
-3.78171e-54
-2.83268e-55
7.75056e-60
4.97732e-58
-1.88407e-58
3.2137e-63
-3.15518e-61
7.38584e-60
1.34342e-66
1.7951e-65
6.16245e-64
2.13603e-69
-2.61244e-68
-1.97022e-66
3.59331e-73
-7.00458e-72
-2.31225e-70
2.16286e-76
1.17923e-75
2.84274e-73
3.45709e-80
1.64642e-78
-2.76786e-76
3.98663e-82
1.79009e-82
-3.18017e-79
-3.14315e-86
5.71207e-85
7.26163e-83
-1.22683e-89
2.11744e-88
1.08374e-85
1.10323e-94
-1.67206e-91
3.618e-89
-2.5979e-95
-9.33635e-95
1.27532e-92
-2.61645e-98
-6.17808e-98
-1.99971e-95
1.9694e-101
1.4712e-102
-3.27647e-98
9.84729e-105
-1.70824e-105
-1.40407e-101
-6.41953e-108
1.03546e-108
2.79444e-104
-7.95416e-112
9.92799e-112
7.5169e-108
2.93804e-114
-1.34202e-114
-4.17305e-111
1.81319e-117
-4.43896e-118
-4.48631e-114
-2.19816e-120
-6.58809e-123
3.49987e-117
3.72951e-124
-1.46554e-126
-1.22155e-120
-6.30671e-127
2.08842e-128
1.74535e-123
-4.16863e-131
2.72478e-131
4.19007e-127
8.04868e-136
-3.62516e-134
-1.1399e-130
8.6731e-136
-3.98046e-137
-1.0119e-132
2.33485e-140
-3.30991e-141
-3.98768e-136
1.14802e-142
1.93171e-144
-6.50617e-141
7.12746e-146
-3.48263e-147
7.74544e-143
-2.18961e-149
-3.65045e-151
1.58963e-145
3.53446e-152
5.63462e-154
-6.79506e-149
2.87545e-154
1.66506e-156
-1.01461e-151
1.10165e-155
3.36015e-159
9.07613e-155
9.87473e-161
4.41596e-157
1.42785e-09
2.90106e-11
-5.96297e-11
1.40374e-09
1.53952e-11
5.0558e-11
1.3769e-09
7.17282e-11
2.93408e-12
1.71717e-10
-5.82581e-12
1.59023e-10
2.6798e-10
3.9419e-10
4.19562e-10
-5.68012e-11
2.03208e-10
5.26231e-11
-2.57927e-11
-7.44726e-11
-7.58059e-11
9.8385e-10
6.38048e-11
-8.56944e-10
1.47141e-14
-1.68263e-16
1.66764e-18
1.19167e-15
-2.33529e-12
-4.90694e-14
6.86268e-14
-8.67865e-16
-1.75157e-15
-6.17488e-16
-5.94581e-16
5.65188e-20
-2.24711e-21
-2.09421e-21
-1.12358e-20
1.18794e-19
-1.24076e-18
1.08104e-18
3.01658e-27
-3.56834e-27
-2.28129e-25
1.57559e-30
-8.6771e-31
3.8598e-30
8.14052e-33
-1.34242e-33
-1.27942e-32
5.47953e-37
-4.83818e-37
-2.87948e-36
1.71161e-40
-5.48643e-41
1.54998e-39
7.17176e-44
1.11837e-45
-3.54981e-43
3.02023e-47
8.90642e-48
9.13372e-46
1.48256e-50
3.32543e-51
-3.39637e-48
5.71214e-54
3.54602e-55
1.57767e-52
2.21788e-57
1.45583e-57
8.9536e-55
2.04731e-60
1.0996e-60
-6.16079e-58
3.82751e-64
5.19504e-65
-1.5776e-61
1.0901e-67
-5.17296e-68
-2.46606e-65
6.60366e-71
-7.76333e-72
2.12324e-68
2.73216e-74
-1.55398e-74
7.25373e-71
2.10317e-76
-7.19792e-78
-1.47467e-73
-6.29843e-81
-2.19324e-81
1.30356e-77
1.69548e-83
-1.04119e-85
3.33031e-81
1.96563e-87
1.61662e-88
-2.99935e-83
-1.74637e-90
-1.67333e-91
-1.09186e-86
2.25603e-92
7.41546e-95
-1.57484e-89
5.33186e-96
2.78189e-98
-4.90527e-93
-1.21139e-99
1.48185e-101
3.07696e-96
3.75607e-102
7.3665e-105
-2.30852e-99
7.68018e-106
-2.10711e-109
1.83416e-102
8.29669e-109
3.88841e-112
-2.00087e-105
2.93277e-111
1.67735e-115
-2.70202e-108
-5.40075e-115
-1.61712e-117
3.55703e-113
-9.5846e-118
-4.08206e-121
8.97127e-115
1.39421e-121
7.3672e-125
-3.35001e-118
1.32931e-124
-1.4267e-127
-2.30914e-121
-1.10959e-127
-3.43797e-131
1.26627e-125
2.02577e-131
-5.41574e-134
-9.47323e-128
1.31871e-133
3.11075e-137
-1.45002e-130
7.13138e-139
3.47348e-140
5.42298e-134
-4.64987e-142
-1.06403e-144
4.25273e-137
7.80675e-144
-7.6259e-147
-2.5571e-140
4.65242e-147
9.01928e-151
-2.08313e-143
9.38247e-151
2.34675e-153
-4.23604e-147
-4.21267e-153
2.45857e-156
4.97227e-150
5.72357e-155
-2.36437e-158
1.11121e-152
9.07452e-161
-8.21521e-156
1.4678e-09
2.02286e-11
-4.82493e-11
1.46297e-09
8.18923e-12
4.53543e-11
1.48864e-09
5.20754e-11
-1.33897e-11
2.83805e-10
-4.56094e-11
1.83512e-11
2.8102e-10
4.71528e-10
4.38475e-10
-2.22434e-11
2.67109e-10
2.32144e-11
3.13125e-11
2.02276e-11
-3.59156e-11
-1.4792e-11
-1.04644e-11
4.71129e-11
-9.77551e-12
5.85259e-15
-2.41077e-14
3.77205e-13
1.18244e-16
8.36204e-20
-3.03357e-20
-5.81245e-21
4.39735e-22
-3.42952e-19
1.65608e-19
1.26909e-19
8.14942e-28
-5.62714e-25
-3.52248e-26
1.78557e-31
-2.25711e-28
7.78359e-30
1.81233e-33
-2.07944e-32
1.17965e-33
4.49642e-38
-1.03873e-35
-2.84518e-36
5.01846e-42
-5.03105e-39
-1.98623e-39
2.01153e-45
-7.84545e-43
-3.80144e-43
8.57148e-49
-2.86258e-46
8.38912e-46
3.65527e-52
-6.35026e-50
-1.14714e-49
1.5923e-55
-4.59744e-54
2.04791e-52
6.82438e-59
2.09701e-57
-2.38283e-55
1.92411e-62
-5.37098e-60
-2.00422e-58
1.13888e-65
-6.15288e-64
-9.99464e-62
9.27665e-68
1.27149e-67
-2.38911e-64
2.78033e-72
1.69563e-70
-5.80572e-68
1.66168e-76
9.35562e-74
-5.99373e-71
3.93634e-79
8.17933e-77
-1.07385e-73
2.48421e-82
3.37409e-80
1.00855e-77
6.97863e-84
-2.33851e-84
-2.07212e-80
-1.64745e-86
-1.75579e-87
1.8715e-83
-1.90927e-89
-2.40863e-91
2.25042e-86
2.78502e-95
7.87548e-94
-9.66335e-90
-1.28917e-96
-6.25614e-98
-7.38601e-93
4.99718e-102
-4.6212e-101
-6.25983e-97
-5.38319e-103
-2.44719e-105
6.37526e-100
-1.69754e-106
-1.02533e-107
9.57437e-103
2.11084e-109
1.04409e-110
-1.69329e-105
2.24997e-112
7.91426e-114
-1.74132e-108
1.81223e-115
-1.05345e-116
6.57506e-112
-2.50805e-118
-5.76407e-120
4.59568e-116
1.59595e-121
3.2943e-124
-1.35205e-118
2.13554e-127
-9.05929e-127
-7.33895e-122
-4.73036e-128
-1.3058e-129
1.55798e-126
1.51202e-131
1.57426e-133
-2.22781e-128
1.55609e-134
3.21589e-136
7.57588e-132
-4.65026e-139
-6.12824e-140
4.27465e-134
-4.38953e-141
-3.01425e-143
-1.6261e-138
8.96866e-144
1.71283e-146
-1.87901e-140
1.8903e-147
2.47315e-149
1.00043e-144
-1.28138e-150
-4.63453e-152
4.51971e-147
-1.15241e-154
-6.79948e-155
2.37814e-151
3.89846e-155
2.26374e-158
-1.13122e-152
-1.96682e-160
-4.34484e-156
1.46188e-09
-1.00732e-13
-2.79698e-11
1.43192e-09
-9.68777e-12
3.95551e-13
1.43768e-09
1.26278e-11
3.289e-11
1.8974e-10
-1.71181e-12
1.2444e-10
3.03181e-10
2.89457e-10
5.00774e-10
-9.15431e-12
1.66086e-10
7.01191e-11
-4.54393e-11
-8.97838e-11
-9.36517e-11
-5.22298e-11
-2.34979e-12
2.32731e-10
-2.80273e-09
2.40097e-12
-1.11777e-12
-4.70173e-13
1.02167e-15
5.93165e-19
2.45285e-20
-8.21749e-20
-1.03973e-18
-1.76329e-18
8.21332e-18
-5.97789e-18
-7.68797e-26
-1.47762e-24
-2.95984e-25
1.06464e-29
1.21386e-28
-3.15566e-28
-2.55678e-32
1.96413e-32
-2.9399e-31
5.64274e-35
3.95425e-37
1.26959e-34
2.52727e-39
1.55088e-39
6.91687e-38
6.80902e-43
1.367e-43
-1.1671e-41
2.8224e-46
6.5016e-47
3.46808e-46
1.20486e-49
-1.70166e-50
-1.56143e-47
5.08613e-53
-1.66717e-53
-6.35664e-51
1.45502e-56
-1.34597e-56
6.70022e-54
8.68592e-60
-3.64781e-61
-2.97893e-57
3.67892e-63
1.09632e-63
-2.67892e-60
9.32974e-66
-4.94947e-67
-4.21413e-63
4.53245e-70
5.37651e-70
1.78895e-66
2.58726e-73
1.15771e-73
-9.02871e-70
1.32536e-75
-3.50626e-78
1.02691e-73
-1.88117e-78
3.07196e-80
3.57399e-75
1.27677e-82
-2.02689e-84
6.92685e-79
1.6047e-84
5.38406e-88
-1.34154e-81
3.49505e-90
1.20518e-90
-2.81553e-85
-1.12296e-91
3.07947e-94
3.55346e-88
-1.00535e-94
-6.65139e-98
4.53663e-91
2.06122e-97
1.49782e-100
-1.431e-94
4.22395e-102
6.35147e-105
-2.5766e-98
-1.39008e-104
1.20882e-107
3.13161e-101
2.31169e-107
-2.33074e-110
4.52062e-105
-6.63049e-111
-1.61749e-113
4.45579e-107
4.85648e-114
-6.45396e-117
6.96877e-112
1.4891e-117
-7.31611e-120
-6.84407e-114
-1.02324e-120
-3.13446e-123
4.10376e-117
-6.31456e-123
2.29306e-126
5.46629e-120
5.07327e-126
1.30625e-129
-3.97891e-123
-2.0879e-130
8.8147e-134
1.34963e-126
-1.30322e-132
5.42979e-136
1.74139e-129
-3.63637e-137
5.09536e-140
-2.14874e-133
6.17746e-139
3.92907e-142
-1.04622e-135
5.36468e-143
-1.85224e-146
-2.71758e-139
-1.82355e-145
-2.39687e-149
4.40328e-142
-8.95566e-149
-1.06219e-151
1.07487e-145
1.06219e-151
-2.48886e-154
-1.72728e-148
3.90299e-154
5.73739e-157
-9.29586e-152
4.15829e-159
1.66419e-154
1.48549e-09
-4.21594e-12
-1.22991e-10
1.46505e-09
-1.42817e-11
-1.13422e-11
1.56727e-09
-3.95526e-11
-2.91966e-11
2.55133e-10
2.24631e-11
5.19186e-11
3.2069e-10
4.00906e-10
5.17915e-10
-3.29405e-11
8.5549e-11
-5.65084e-11
2.58435e-10
-9.62657e-12
-3.27537e-11
2.86529e-11
8.9696e-12
4.48444e-12
-1.19615e-09
1.26266e-13
-1.24045e-12
6.98345e-11
4.39427e-13
4.61976e-19
-1.47441e-20
6.53604e-21
-7.58363e-19
1.23833e-18
-1.62354e-18
6.92215e-19
2.51277e-26
-4.77181e-24
7.42953e-25
1.93202e-29
-5.69923e-28
-7.60472e-29
1.11858e-32
-1.38428e-31
-1.17393e-32
2.59113e-37
-3.32401e-35
-3.16898e-35
-3.49703e-42
-8.7668e-39
-1.19113e-37
-2.37686e-45
-2.18984e-42
-2.13524e-41
-3.24237e-48
-5.01189e-46
2.18935e-44
-1.32398e-51
-1.52153e-49
1.44864e-49
-4.39463e-55
-3.20331e-53
-3.88264e-52
1.33111e-57
-1.35451e-56
-1.31678e-53
-5.66604e-62
-2.70534e-60
-1.60792e-57
-2.20284e-65
-2.02202e-64
1.53416e-60
2.12418e-66
1.47866e-66
-5.03734e-63
-1.51597e-72
3.29107e-70
-1.81109e-67
-9.09559e-73
9.46719e-74
1.99408e-69
1.1087e-75
6.40189e-78
-6.39937e-74
-1.43527e-79
1.54775e-81
3.85662e-76
-4.02112e-83
3.17953e-84
8.70849e-80
1.54411e-87
-1.87963e-89
-4.20595e-82
1.82767e-88
3.697e-91
2.51014e-85
-1.34778e-91
-7.11572e-95
2.01794e-88
3.23827e-95
-3.20036e-97
-1.32856e-91
8.04372e-98
-4.11772e-101
-1.79565e-94
8.20893e-102
-2.75246e-104
-1.73765e-98
-2.49176e-104
-2.95361e-108
2.35497e-101
1.89221e-107
3.52856e-111
-3.47349e-104
1.58608e-110
1.2387e-114
-3.20797e-107
3.42922e-114
7.45828e-118
3.11356e-111
-3.97573e-118
1.32862e-121
1.32785e-114
-8.97611e-121
-2.48634e-124
9.87437e-118
2.12115e-123
5.53073e-127
-2.15325e-120
9.80449e-127
4.90036e-130
-1.08356e-123
-9.97644e-133
9.47289e-135
7.08901e-127
2.85184e-133
2.27277e-136
-2.11567e-130
4.06159e-136
-1.09662e-139
-9.35447e-133
2.64238e-139
-1.67392e-143
-4.46885e-136
-4.01153e-142
4.59706e-147
5.02386e-139
-4.51144e-149
-3.36924e-150
6.19124e-143
1.29405e-148
-4.25112e-152
-1.7313e-145
6.43822e-152
-2.32099e-155
-1.57937e-148
2.70513e-154
2.04693e-157
2.2916e-151
4.34788e-159
8.87477e-155
1.43193e-09
-2.37469e-11
-4.65046e-11
1.45559e-09
-1.54344e-11
2.3533e-11
1.48863e-09
-6.19089e-11
-1.4037e-11
2.33375e-10
7.12772e-12
5.62865e-11
2.7852e-10
4.65696e-10
4.57334e-10
6.31026e-11
1.28552e-10
-5.96783e-12
6.07572e-11
1.36489e-10
3.59124e-11
2.9036e-11
1.84991e-12
-1.98813e-10
-5.23497e-10
-1.42905e-12
8.77835e-13
-1.83247e-11
-9.70852e-15
7.89679e-20
2.27819e-21
-3.85064e-21
9.15131e-20
1.38088e-21
-2.27813e-19
2.34451e-20
1.93849e-27
3.05379e-26
1.56652e-26
5.54794e-30
8.30537e-30
-1.08137e-29
4.10498e-33
3.86227e-33
-6.05729e-33
2.86257e-37
1.30577e-36
-1.02052e-36
9.26364e-41
2.35295e-40
1.14393e-39
3.87538e-44
6.07815e-44
9.85322e-43
1.62757e-47
1.66512e-47
-2.22425e-45
6.82506e-51
4.04012e-51
-9.10072e-49
2.85488e-54
1.20484e-54
1.11157e-52
1.12465e-57
5.17243e-58
-1.2394e-54
4.0009e-61
-9.59719e-63
-1.02299e-57
2.08256e-64
7.07457e-65
3.3392e-61
1.55767e-67
-5.95246e-69
-3.02635e-64
3.52435e-71
-1.70986e-71
7.31103e-69
6.56477e-75
2.28296e-75
6.96393e-71
1.12555e-76
2.14869e-78
-1.02606e-73
7.65281e-81
5.41701e-82
2.38127e-78
-4.36383e-83
-1.82944e-85
4.68189e-80
-1.00323e-86
2.07855e-89
2.16011e-83
1.20258e-90
-1.00091e-92
-3.16503e-88
-4.3759e-93
-1.21326e-94
-8.19071e-90
1.64879e-95
-5.20012e-98
-1.00461e-92
2.24167e-99
-1.15515e-101
1.4247e-96
-2.949e-102
-7.85248e-106
4.71853e-99
-5.93527e-106
2.97579e-109
7.87695e-103
1.18392e-108
-5.0448e-112
-1.38728e-105
-2.9568e-112
1.83949e-115
-4.24418e-109
1.64807e-115
6.82569e-118
5.05321e-112
-4.89319e-118
9.16807e-122
2.64558e-115
1.45425e-121
-1.27804e-124
1.31092e-119
6.33217e-125
2.67595e-128
5.28782e-122
1.91234e-128
1.00638e-130
5.89411e-127
-1.09588e-134
1.39229e-134
2.87516e-128
-6.04665e-135
1.76094e-138
-2.20423e-131
2.11653e-137
-2.58232e-140
-2.47132e-134
-1.68472e-140
-8.78397e-144
3.10667e-137
-1.73592e-143
-2.5576e-147
2.25815e-140
7.58e-150
1.2975e-150
-6.24838e-144
4.84007e-150
-2.55616e-153
-8.98185e-147
-1.28616e-153
-1.09012e-156
5.17655e-150
9.8522e-155
1.57211e-159
1.72278e-152
-1.04449e-160
-5.90374e-156
1.45035e-09
-2.53743e-11
-4.06636e-11
1.44245e-09
-2.2759e-11
3.70536e-11
1.45186e-09
-7.67927e-11
-2.18682e-11
2.02008e-10
-3.22033e-11
1.39734e-10
2.68367e-10
3.62389e-10
5.29637e-10
2.72768e-11
1.41266e-10
-6.31238e-11
8.73519e-11
-1.73387e-10
-2.07248e-10
-2.92389e-10
-1.78533e-10
8.45789e-10
-2.29381e-11
-5.49018e-15
1.42159e-09
1.91517e-11
1.42175e-09
2.32443e-20
-1.71487e-22
-1.72574e-21
4.27994e-21
4.21096e-20
2.53433e-19
-3.23384e-19
1.18396e-27
1.05694e-25
-1.02294e-25
1.45827e-30
1.45621e-29
1.10036e-29
5.48585e-33
6.41127e-33
-5.20591e-33
2.37776e-37
2.24134e-36
-1.89942e-36
5.81214e-41
5.01814e-40
-3.71073e-39
2.57733e-44
1.31331e-43
-4.24631e-42
1.02239e-47
1.7521e-47
1.04684e-45
4.86335e-51
5.2731e-51
-4.94885e-49
4.48509e-54
4.29917e-54
-9.73658e-54
7.53505e-58
2.79156e-58
3.55823e-55
1.26072e-60
1.59078e-62
-1.2517e-57
1.27691e-64
3.92114e-65
-2.3566e-61
-4.28022e-67
1.62503e-68
2.86635e-64
2.76457e-71
2.01967e-71
-5.93794e-68
1.39491e-73
5.87764e-75
-3.27456e-71
3.79205e-78
-5.24089e-78
-2.39071e-74
-2.39656e-80
-2.45564e-81
9.09375e-77
-5.01079e-83
-2.83651e-85
-2.94631e-81
7.00471e-86
-8.19911e-89
-9.03449e-83
9.9698e-92
-7.97897e-92
2.26535e-87
8.99478e-93
2.49811e-95
-3.59325e-90
1.01308e-95
5.43284e-98
5.28526e-94
-1.28756e-99
1.47885e-101
5.74801e-96
2.38629e-103
-4.47587e-106
8.53609e-100
6.80157e-106
-8.6231e-109
-2.22123e-102
4.82503e-109
1.69105e-112
-1.48084e-105
-6.89902e-113
1.54024e-115
2.50742e-109
-2.71503e-115
2.16067e-119
6.84536e-112
-4.77912e-119
7.06406e-122
-7.55668e-116
2.81884e-121
6.96034e-126
-4.5043e-118
1.48232e-124
-6.48136e-130
5.99424e-123
-1.69485e-127
-2.6459e-131
1.57235e-124
1.13556e-131
9.51501e-135
-6.41218e-128
3.30119e-134
2.96401e-138
-1.02281e-130
8.37836e-139
-3.96473e-141
1.66771e-134
6.27231e-141
-7.85203e-145
8.69032e-138
-3.89319e-144
-5.33474e-148
9.76738e-141
-8.58849e-149
-7.46729e-151
-9.93293e-144
-3.1167e-150
-5.66381e-154
-2.84349e-147
7.47714e-154
1.458e-156
7.08433e-151
6.52638e-155
3.34864e-158
-1.60106e-152
2.43057e-160
-1.07401e-155
1.46046e-09
-4.33604e-12
-7.7673e-11
1.44705e-09
-5.27672e-12
-1.90012e-11
1.39014e-09
-4.07849e-11
2.46317e-11
1.61847e-10
1.70033e-11
2.23994e-10
2.31693e-10
3.47272e-10
4.00007e-10
8.55304e-11
1.52615e-10
-1.77512e-11
-5.99293e-11
4.64647e-11
2.21701e-11
1.16779e-10
1.10761e-11
-2.47496e-10
3.02252e-16
1.55735e-15
-3.55115e-17
2.29984e-18
2.249e-17
4.71409e-16
-4.73344e-15
2.41315e-15
3.71495e-22
4.83449e-24
-2.31947e-23
-1.3139e-21
-3.04071e-23
1.85446e-21
-6.91496e-23
5.29848e-30
2.78559e-28
1.4042e-28
3.11788e-32
4.69155e-34
-1.83501e-32
5.84511e-35
5.2082e-36
-8.08024e-35
2.13269e-39
1.2378e-39
2.24575e-38
4.40991e-43
3.31908e-43
8.87727e-42
1.81824e-46
9.14039e-47
6.48333e-45
7.62814e-50
2.41806e-50
2.72323e-48
3.19968e-53
-3.63092e-54
1.97887e-50
1.33456e-56
1.97613e-57
2.61858e-53
5.5688e-60
6.00966e-61
1.1217e-56
8.75165e-64
3.04444e-64
2.90127e-60
9.54538e-67
1.56478e-67
-2.48507e-64
3.96392e-70
1.7489e-71
9.48388e-67
1.64578e-73
4.57905e-75
9.85062e-70
8.84888e-77
-1.84194e-78
6.87152e-74
3.06341e-80
4.24025e-82
-4.40078e-76
2.99506e-82
-6.2347e-85
4.76975e-80
1.51163e-85
-6.72592e-88
-1.38998e-82
-5.48332e-89
-1.68726e-91
1.98076e-85
-1.08885e-91
-4.31754e-95
2.12607e-88
3.52873e-95
3.24695e-98
-2.8092e-92
-3.51244e-98
2.60567e-101
-5.77033e-95
1.33534e-102
4.92851e-105
-3.65481e-99
-2.28091e-105
-6.5649e-108
5.16971e-102
-6.24901e-108
-3.54419e-111
7.97758e-105
-5.86175e-111
-1.03635e-114
1.73911e-107
3.60163e-114
4.13091e-117
3.0022e-111
-2.35922e-117
9.95016e-121
-4.09977e-114
1.87981e-120
1.71121e-123
-3.5646e-117
-1.97949e-125
-8.29693e-128
2.82164e-120
-2.71443e-126
-3.66196e-130
3.3133e-123
3.06182e-130
-4.28277e-133
-4.90127e-127
-1.07006e-134
9.9018e-138
-4.60096e-130
-1.06961e-136
-1.05888e-140
2.71363e-133
-3.39494e-139
-1.48184e-143
4.27296e-136
5.19971e-143
8.23813e-146
7.22112e-141
-5.66547e-146
-1.25685e-149
-2.52463e-143
3.05845e-149
-2.37216e-152
-1.02269e-146
-5.6475e-152
-1.97765e-155
8.98872e-149
2.69522e-154
4.20549e-158
9.62609e-153
6.82966e-156
-4.09374e-160
-1.15477e-154
1.09746e-161
-1.31974e-157
1.43152e-09
-5.6281e-11
1.414e-09
1.15165e-11
1.41124e-09
-6.32713e-11
2.93151e-10
-1.18745e-10
3.06879e-10
4.26903e-10
5.14279e-10
-3.31243e-11
-2.56341e-11
9.77947e-11
7.47717e-11
5.54377e-11
8.98641e-11
5.12555e-11
3.02297e-11
-1.90419e-10
1.59948e-09
-2.13851e-10
-2.06958e-09
1.20055e-19
-6.56799e-22
1.20871e-20
-2.98058e-23
-3.09707e-21
5.81779e-21
-1.58094e-19
2.91847e-20
-4.4212e-27
-1.83214e-27
-7.84629e-25
-2.86985e-27
-2.40129e-24
-1.10686e-25
4.63272e-28
-3.41176e-29
6.80963e-32
2.90355e-33
1.08906e-36
1.45104e-35
3.98855e-40
-2.83029e-39
1.67751e-43
5.11319e-43
7.0538e-47
-1.50807e-45
2.96234e-50
2.2726e-48
1.2425e-53
3.54621e-51
5.19463e-57
-5.50899e-55
2.17234e-60
8.65941e-58
9.03796e-64
2.17593e-61
3.74204e-67
6.22783e-64
1.54756e-70
8.81962e-68
-9.02141e-75
-4.99057e-70
2.64699e-77
-3.38467e-73
7.27116e-81
5.21722e-77
-1.15535e-82
1.89041e-79
3.50686e-87
7.79493e-83
1.3094e-90
-1.14367e-86
1.84831e-93
-3.76454e-89
1.31517e-95
-1.62309e-92
-3.83521e-100
7.14764e-96
-1.35819e-101
9.8875e-99
1.97303e-105
-1.62003e-103
1.24414e-107
-8.35726e-105
-1.86766e-111
7.61533e-110
-2.09356e-116
1.88439e-111
-5.45889e-118
3.1682e-115
8.6154e-122
5.04406e-118
1.6767e-124
3.7263e-121
-1.547e-127
1.54811e-124
3.23442e-130
-1.14663e-127
3.01386e-134
4.03279e-131
-3.49827e-137
8.01737e-134
-3.79749e-141
5.4411e-137
2.50664e-145
-2.51233e-141
1.50877e-146
-2.93795e-143
3.05792e-149
-3.05262e-146
-8.91186e-153
1.30977e-149
6.12795e-155
6.97685e-153
1.08094e-156
6.91546e-156
-2.78202e-158
2.35652e-09
5.56508e-12
6.08453e-11
2.3778e-09
-1.51213e-11
-1.52684e-11
2.34039e-09
7.78243e-11
7.65631e-11
5.50381e-10
-6.1513e-11
3.46962e-11
6.39811e-10
5.54334e-10
7.19404e-10
1.95555e-10
-1.67931e-11
-3.36079e-10
2.36672e-10
1.90885e-10
1.38805e-10
4.56067e-11
-3.69416e-11
2.21078e-10
1.01381e-11
3.21929e-12
8.32463e-11
2.57999e-20
2.01805e-22
8.76441e-20
2.15786e-23
6.5762e-23
-6.63206e-20
6.18819e-21
-6.78512e-20
7.20708e-25
-3.51297e-26
5.65782e-27
-7.62677e-25
-2.80212e-23
3.04121e-24
-3.08353e-23
1.85685e-27
-4.61065e-27
-3.0604e-29
2.6056e-31
-2.97202e-31
1.72681e-33
2.943e-35
-1.29199e-34
2.34092e-35
2.08625e-38
-5.72486e-38
-1.43648e-38
1.51827e-41
-1.83491e-41
3.4661e-43
1.07252e-44
-7.20626e-45
2.19796e-45
7.55753e-48
-2.78105e-48
2.84034e-48
5.33606e-51
-1.09897e-51
-1.23835e-50
3.74213e-54
-3.6677e-55
-4.05159e-55
2.62726e-57
-5.91283e-58
-8.46707e-58
1.84643e-60
-1.48165e-60
-1.44675e-60
1.28698e-63
-5.43475e-65
3.32102e-64
8.97318e-67
-6.42313e-68
1.30728e-67
6.23949e-70
4.65537e-71
-1.44284e-71
4.34857e-73
7.38672e-74
-3.21807e-74
3.01902e-76
1.55171e-77
-2.06533e-78
2.09105e-79
1.74496e-81
-4.28956e-80
1.44462e-82
9.69302e-84
-2.90404e-83
9.95607e-86
6.63326e-87
4.31076e-86
6.84606e-89
1.09617e-89
2.55422e-89
4.70444e-92
3.34471e-93
-1.41473e-93
3.22922e-95
-5.84284e-96
5.55018e-96
2.21037e-98
-9.01233e-99
1.6724e-98
1.50906e-101
-2.11941e-102
-4.19203e-102
1.03063e-104
-1.4626e-105
-2.43222e-106
7.02887e-108
2.49296e-108
1.34523e-108
4.77791e-111
-4.23094e-112
2.40147e-111
3.23706e-114
-4.4141e-115
8.09444e-115
2.18794e-117
3.35919e-118
-3.83505e-118
1.47711e-120
1.4384e-121
-6.75886e-121
9.95148e-124
2.00719e-124
-1.34598e-124
6.6887e-127
1.03355e-127
3.05252e-127
4.48432e-130
4.13635e-131
1.75201e-130
2.99952e-133
-6.4662e-135
-7.79924e-134
2.00274e-136
-1.45747e-137
-2.17974e-137
1.33547e-139
7.97275e-141
4.77092e-140
8.8659e-143
1.81604e-143
3.2702e-143
5.87567e-146
1.17672e-147
-1.49051e-146
3.87171e-149
-6.69336e-150
-5.05644e-150
5.85897e-152
-5.19726e-153
1.73833e-152
3.37927e-153
7.96214e-156
-3.6643e-156
2.59898e-157
-1.06503e-157
2.36589e-09
2.51995e-11
2.50191e-11
2.39072e-09
1.15902e-12
-9.4099e-12
2.34993e-09
8.32164e-11
2.93385e-11
6.00046e-10
3.196e-11
-3.1088e-11
5.61127e-10
6.22346e-10
5.39681e-10
1.09947e-10
7.99519e-11
5.44031e-10
5.36979e-11
-1.9451e-10
1.09075e-09
-2.18532e-10
-1.04837e-10
2.00676e-09
3.96976e-12
-2.55693e-09
-6.2905e-17
-6.34566e-19
-3.61031e-19
4.75732e-17
1.18344e-17
-4.53953e-19
4.50856e-17
-1.82068e-16
1.38591e-16
2.71928e-21
-3.60102e-21
2.23042e-23
1.81331e-21
-7.1156e-21
2.00657e-21
3.2149e-21
1.98825e-27
-2.19853e-24
6.26097e-29
7.81774e-31
-5.71968e-28
1.93393e-31
4.18819e-34
-3.0977e-31
-3.56373e-35
5.18502e-38
-1.66812e-34
4.63075e-38
4.76912e-41
-3.4577e-38
3.87693e-41
4.14401e-44
-1.37145e-41
-2.46987e-44
2.51858e-47
-5.18312e-45
1.85081e-47
1.78236e-50
-1.53827e-48
1.47732e-50
1.21053e-53
-8.09864e-52
-8.60337e-54
8.76076e-57
3.89526e-55
-7.23003e-57
6.50629e-60
-1.00669e-58
2.90979e-60
4.11142e-63
3.60002e-62
8.45867e-64
2.87093e-66
-7.31665e-65
-3.27254e-66
1.99415e-69
-3.10074e-68
9.02156e-71
1.38609e-72
-2.59613e-71
1.61978e-72
9.59745e-76
2.30001e-74
3.15892e-76
6.63187e-79
1.04245e-78
-3.69769e-79
4.59095e-82
2.99533e-81
2.50815e-82
3.17121e-85
6.86045e-84
1.77367e-85
2.18426e-88
-1.11659e-86
-6.95818e-89
1.54457e-91
-1.21852e-89
-7.8198e-93
1.03686e-94
-1.13475e-92
2.41393e-96
7.07421e-98
-3.61353e-97
-5.40102e-98
4.84401e-101
-3.2109e-100
-1.70492e-101
3.30582e-104
-1.42098e-102
3.29776e-104
2.25345e-107
-2.76846e-106
2.38276e-107
1.53738e-110
1.80329e-109
-1.3947e-110
1.04523e-113
-7.74813e-112
4.18948e-115
7.08919e-117
-2.05383e-115
-1.42164e-119
4.81153e-120
4.59213e-120
4.42148e-121
3.25495e-123
-3.05556e-122
-2.32789e-124
2.19763e-126
-1.80588e-125
2.3053e-126
1.47947e-129
-2.55317e-128
-1.09842e-129
9.93758e-133
-2.07346e-131
-4.70178e-133
6.67863e-136
1.55626e-134
1.35584e-136
4.48488e-139
-1.2404e-139
3.64469e-139
3.00297e-142
2.14612e-141
1.20415e-142
2.00277e-145
2.68977e-144
1.09193e-146
1.33636e-148
-1.1782e-147
-5.81219e-149
1.98326e-151
-5.71773e-151
-5.51122e-152
5.72626e-152
2.28567e-155
1.13897e-154
6.96955e-157
1.81671e-157
2.36631e-09
5.12162e-11
6.99867e-11
2.3906e-09
2.25963e-11
3.18235e-11
2.35895e-09
1.09585e-10
-4.42785e-11
6.29557e-10
-9.43153e-13
-2.89859e-11
6.57907e-10
6.35354e-10
6.64814e-10
-1.28869e-10
-9.19216e-11
6.21154e-10
1.06486e-12
2.32368e-10
1.13655e-09
-1.9052e-10
-2.30343e-10
-6.30957e-11
-6.56162e-11
-6.12896e-10
-1.21697e-14
-4.0444e-14
1.11251e-15
-5.02728e-16
2.58164e-14
-1.57403e-12
2.18227e-13
1.38351e-12
-2.65267e-15
-2.46358e-15
1.60515e-15
1.57401e-15
3.38293e-20
-1.29831e-20
2.67448e-21
-8.6013e-19
5.97518e-20
7.17697e-20
5.1626e-19
3.04917e-26
-1.00771e-24
-3.26336e-26
1.30407e-28
-5.21262e-29
8.9916e-30
2.94135e-31
-4.87898e-32
-1.53722e-32
4.02058e-35
-3.19647e-35
-4.00912e-36
1.48413e-38
-1.07096e-38
1.17748e-39
1.06059e-41
-3.42982e-42
1.41756e-42
7.49573e-45
-7.31553e-46
8.43757e-45
5.24363e-48
-1.51952e-49
2.06917e-48
3.65979e-51
-1.96088e-52
-2.35189e-51
2.54974e-54
9.66413e-55
2.36372e-54
1.77575e-57
1.90367e-57
1.05722e-57
1.23363e-60
4.10266e-63
-1.37139e-61
8.54628e-64
-1.88854e-64
2.51921e-64
5.91539e-67
-1.70633e-68
3.73668e-67
4.08685e-70
-4.85096e-71
5.54234e-71
2.81774e-73
-5.24188e-74
-6.85331e-74
1.93966e-76
-2.23044e-77
-4.05243e-78
1.33332e-79
4.83648e-81
1.12351e-80
9.14683e-83
1.40876e-83
-1.1042e-83
6.26455e-86
-7.39348e-87
7.32612e-87
4.28579e-89
5.76854e-90
-5.23932e-90
2.9245e-92
1.45302e-92
-3.66299e-93
1.99455e-95
3.08762e-96
1.25019e-95
1.36039e-98
1.54704e-99
7.63392e-99
9.24472e-102
2.66723e-103
3.47257e-102
6.26378e-105
-4.70971e-106
-1.7413e-105
4.24367e-108
-2.83561e-110
-8.18102e-109
2.8715e-111
1.26311e-112
2.00972e-111
1.93756e-114
3.07361e-116
1.28761e-114
1.3051e-117
7.95212e-119
-3.93165e-118
8.7765e-121
-7.13254e-122
-1.26079e-121
5.89077e-124
-8.2153e-125
1.25489e-124
3.94768e-127
-3.70109e-128
-4.35944e-128
2.63964e-130
2.88487e-131
-1.5134e-131
1.76262e-133
5.95042e-134
1.09289e-133
1.17616e-136
1.8675e-137
4.71976e-137
7.82662e-140
-9.89191e-141
-2.50585e-140
5.19414e-143
-1.39406e-144
-1.10908e-143
3.44356e-146
5.20221e-147
2.45114e-147
2.25555e-149
3.23785e-150
7.73114e-150
5.1267e-152
-9.16535e-154
1.71319e-152
-2.69442e-156
-5.75745e-157
2.38349e-09
3.34179e-11
8.6985e-11
2.43163e-09
1.74213e-11
3.2824e-12
2.45951e-09
8.4215e-11
-6.0255e-12
6.50721e-10
-4.788e-11
-1.46814e-11
6.10966e-10
6.73818e-10
6.28459e-10
-1.08529e-10
-2.99297e-11
6.92446e-10
9.02472e-11
2.00704e-11
-3.54774e-11
2.53455e-11
-7.3517e-11
1.58736e-10
1.27021e-10
-1.95613e-10
-1.49329e-11
-1.02789e-12
5.15985e-14
-1.26612e-13
5.42623e-13
4.26937e-14
5.3232e-19
-1.33142e-19
5.62899e-21
3.06017e-20
-6.78679e-19
1.31797e-19
4.0821e-20
9.1343e-27
1.28243e-23
4.38792e-26
2.93388e-29
-7.29685e-28
1.77042e-29
3.91655e-32
-6.15484e-31
6.60018e-33
9.07018e-36
4.26137e-35
4.24037e-36
4.75758e-39
-1.4657e-37
-1.43353e-39
3.42138e-42
-6.71797e-41
-1.18594e-42
2.43274e-45
-3.79284e-44
1.19422e-45
1.71414e-48
-1.20646e-47
4.10372e-49
1.20756e-51
-8.85749e-51
3.40199e-52
8.48044e-55
-2.51192e-54
8.95234e-55
5.93864e-58
-2.29645e-57
-9.58678e-59
4.153e-61
-3.28911e-60
-2.07501e-61
2.89966e-64
2.67327e-64
-2.6066e-65
2.02176e-67
-3.2389e-68
3.76674e-68
1.40673e-70
4.42667e-70
-6.27063e-71
9.77542e-74
1.03532e-72
1.17866e-75
6.78838e-77
7.40186e-76
7.65206e-77
4.70526e-80
-8.74834e-80
8.2195e-81
3.24841e-83
-1.71095e-82
-8.97104e-84
2.24212e-86
-4.59729e-86
1.68922e-86
1.54633e-89
3.67799e-89
-6.24736e-90
1.06246e-92
9.68744e-93
-2.18448e-93
7.30004e-96
-7.39143e-96
1.95238e-96
5.01696e-99
-5.93588e-100
1.4367e-99
3.43658e-102
8.56782e-102
1.396e-102
2.34525e-105
-1.74568e-105
-1.29176e-105
1.60063e-108
5.98126e-108
1.85276e-110
1.09196e-111
-3.89706e-111
9.95277e-112
7.42187e-115
-4.65918e-115
-7.90231e-116
5.03231e-118
8.81337e-118
-2.78454e-118
3.40922e-121
-8.61587e-121
5.59362e-123
2.30609e-124
-8.71782e-124
8.32434e-125
1.55824e-127
4.161e-127
2.44457e-128
1.05065e-130
2.30062e-130
7.51941e-132
7.0606e-134
-1.12473e-133
2.91411e-134
4.73871e-137
-3.88196e-137
6.59204e-138
3.17684e-140
1.14071e-140
-3.94979e-141
2.12502e-143
-1.18316e-143
4.02909e-144
1.41731e-146
-2.1146e-146
6.45716e-147
9.29362e-150
-1.96924e-149
-1.46959e-150
-3.3775e-151
2.29452e-153
-2.90415e-153
2.0534e-156
-6.20557e-156
2.4087e-09
4.02463e-12
6.84097e-11
2.41824e-09
1.43585e-12
-3.91279e-11
2.47903e-09
3.59898e-11
4.19731e-11
5.09824e-10
1.79097e-11
7.74389e-11
7.09886e-10
5.71404e-10
6.86618e-10
4.09405e-11
-5.93644e-11
5.55182e-10
8.65228e-11
-1.24576e-10
3.47703e-12
-8.23895e-11
-1.8891e-10
3.17326e-10
5.76434e-11
-1.127e-10
-3.95289e-09
-5.3334e-11
-1.13972e-11
6.12027e-12
1.37789e-11
2.47366e-14
3.85501e-18
6.92077e-20
6.66034e-20
1.82908e-17
-2.26368e-17
1.33963e-17
-1.39547e-17
-1.51613e-25
3.5276e-23
1.78026e-24
2.69942e-28
1.54298e-27
1.07626e-28
8.44307e-31
5.66174e-31
-2.15467e-31
1.43375e-34
1.5339e-34
2.0108e-34
6.64091e-38
3.62458e-38
1.00832e-37