/*--------------------------------*- C++ -*----------------------------------*\
| =========                 |                                                 |
| \\      /  F ield         | OpenFOAM: The Open Source CFD Toolbox           |
|  \\    /   O peration     | Version:  5.0                                   |
|   \\  /    A nd           | Web:      www.OpenFOAM.org                      |
|    \\/     M anipulation  |                                                 |
\*---------------------------------------------------------------------------*/
FoamFile
{
    version     2.0;
    format      ascii;
    class       volScalarField;
    location    "0.3";
    object      alpha.water;
}
// * * * * * * * * * * * * * * * * * * * * * * * * * * * * * * * * * * * * * //

dimensions      [0 0 0 0 0 0 0];

internalField   nonuniform List<scalar> 
4398
(
0.999994
1
1.00004
1.00006
0.999975
0.5227
7.40256e-40
2.06506e-17
8.31307e-19
7.46646e-22
1.74497e-26
3.13908e-30
1.30451e-33
5.49941e-37
2.30146e-40
9.99975e-44
3.64522e-47
1.76815e-50
7.17002e-54
2.31027e-57
1.07679e-60
9.45595e-65
1.56405e-67
6.18017e-71
-1.4301e-95
1.41814e-77
2.04467e-80
4.39634e-85
4.17515e-87
5.05521e-112
3.40886e-93
1.46062e-96
5.59205e-102
1.84817e-102
1.52977e-107
9.51173e-111
6.96492e-112
7.94793e-116
7.34386e-122
7.20627e-123
3.0174e-126
1.38521e-128
2.20021e-131
8.73174e-135
9.034e-139
1.50679e-140
8.90713e-146
6.24035e-146
9.7463e-148
1.24681e-149
1.00001
1.00001
0.999984
0.999941
1.00005
1
0
-1.43998e-27
7.70372e-37
3.11968e-24
7.99324e-26
3.82333e-29
2.16854e-35
1.36846e-51
1.4901e-40
6.39342e-42
1.25197e-45
3.95193e-50
1.59526e-53
6.19232e-57
3.84573e-60
9.83694e-64
4.00929e-67
1.65195e-70
1.06028e-73
2.61841e-77
3.33092e-81
1.01789e-85
3.74016e-86
-7.14367e-105
1.36961e-93
8.4669e-97
1.88394e-99
1.43977e-103
-1.98277e-121
4.59315e-109
1.0993e-113
7.00692e-116
-7.31823e-142
5.49748e-123
4.75478e-127
1.34492e-127
2.58723e-131
1.21918e-134
1.002e-145
1.05004e-145
4.45864e-144
1.89878e-145
7.77144e-147
1.87783e-148
0.999989
0.999976
0.999992
1
1.00004
1.00003
-2.12263e-20
-6.12034e-25
4.9304e-35
4.84707e-21
1.56901e-22
1.07585e-25
2.93614e-30
7.41374e-34
3.14706e-37
1.35258e-40
5.69362e-44
2.43023e-47
1.00255e-50
3.07067e-54
1.80977e-57
5.8685e-61
3.76693e-64
5.37158e-68
3.44404e-71
2.04899e-74
3.93831e-79
7.53551e-82
1.88493e-84
9.24679e-88
1.06057e-90
4.36015e-109
6.57935e-98
5.53037e-100
3.9102e-105
-2.47846e-122
1.78556e-110
3.66163e-136
2.63459e-116
4.39738e-119
1.37466e-123
2.5488e-126
2.08744e-129
3.06906e-132
8.85538e-137
1.77532e-139
1.77158e-142
1.32231e-145
4.2218e-146
1.21765e-147
1.00001
0.999996
0.999998
1.00007
0.999987
0.999397
0.00532052
-1.67936e-24
1.97215e-34
1.53199e-21
4.74879e-23
2.80666e-26
9.35895e-31
2.55767e-34
1.09119e-37
4.77246e-41
2.13159e-44
9.45634e-48
4.12352e-51
1.26241e-54
6.72313e-58
1.84942e-61
1.17873e-64
3.48766e-68
3.29991e-71
2.16309e-74
1.33284e-78
1.39837e-81
-1.87267e-99
2.11254e-87
-4.4648e-106
1.36401e-93
7.71616e-99
4.78388e-102
5.3738e-104
5.91893e-107
1.33502e-111
8.01608e-113
1.42453e-116
2.41784e-120
2.31993e-124
2.30451e-126
1.15068e-128
1.43026e-133
9.9061e-137
3.67948e-139
3.08169e-142
2.79137e-145
2.59538e-146
7.83762e-148
0.999996
1.00002
0.999999
0.999992
1.00008
1.00042
0.301392
-2.01634e-20
7.74212e-43
7.70371e-37
3.97643e-23
1.22014e-24
7.54397e-28
1.96819e-32
5.11044e-36
2.16136e-39
9.17752e-43
3.89204e-46
1.61055e-49
7.08683e-53
2.85215e-56
1.11892e-59
4.77416e-63
2.33456e-66
5.42111e-70
1.98009e-73
1.55799e-76
2.59179e-80
1.26373e-82
6.96295e-86
1.36513e-91
1.02452e-92
1.73112e-118
1.80496e-100
2.96586e-102
1.8199e-106
1.41657e-108
2.97481e-113
4.11379e-115
5.43603e-141
1.16346e-123
5.08759e-125
1.16004e-130
7.02058e-131
5.17006e-136
4.45754e-141
7.87292e-140
8.48405e-146
2.42938e-145
8.87754e-147
1.00002
1.00002
0.999992
0.999944
0.999873
1.00053
0.419207
-1.13677e-22
1.44367e-49
6.9944e-21
2.67782e-22
2.05303e-25
1.10468e-29
3.55855e-33
1.54661e-36
6.70754e-40
2.88518e-43
1.29787e-46
4.44815e-50
2.44721e-53
1.14922e-56
1.78559e-60
1.82862e-63
7.9214e-67
1.17357e-70
4.23907e-74
1.24737e-77
8.83472e-80
1.33752e-84
7.40473e-86
3.8264e-90
1.3585e-93
3.99489e-119
4.53579e-101
3.63892e-103
8.47865e-107
8.74669e-109
9.1718e-115
1.15314e-115
6.69367e-119
1.11405e-123
3.57083e-125
3.15854e-129
5.69552e-131
1.36867e-145
7.82943e-139
5.64038e-140
1.88705e-143
2.38656e-145
9.49517e-147
1.00001
0.999971
1
1.00005
0.999926
0.999334
0.160697
-3.78695e-26
-1.66243e-41
2.81782e-21
8.78508e-23
5.41877e-26
1.47911e-30
3.83804e-34
1.62046e-37
6.86519e-41
2.92529e-44
1.32071e-47
4.90321e-51
1.34982e-54
8.63352e-58
2.59019e-61
1.66437e-64
4.99293e-68
2.19931e-71
8.04277e-75
6.45042e-80
2.97782e-81
1.17987e-84
7.31506e-88
5.29566e-91
-2.18008e-109
1.33163e-119
4.80952e-103
6.33628e-104
3.66157e-107
8.0275e-111
1.21889e-113
4.46147e-140
9.65013e-120
9.84838e-125
2.20809e-125
4.85815e-131
2.37575e-135
3.63352e-136
1.28504e-145
6.25263e-141
5.42993e-145
7.15957e-146
1.58018e-147
0.999986
0.999986
1
1.00003
1.00016
1.00023
-5.21586e-15
-1.28914e-25
-1.16465e-41
3.49734e-21
1.12622e-22
7.65382e-26
2.06158e-30
5.17378e-34
2.19193e-37
9.34992e-41
4.04972e-44
1.57508e-47
7.34176e-51
2.30834e-54
1.12923e-57
5.0789e-61
1.90633e-64
2.55025e-68
7.79114e-71
1.61064e-75
6.36006e-79
1.22008e-81
5.6735e-84
6.50322e-88
-1.12126e-112
1.47124e-95
1.30924e-97
8.76201e-102
1.15203e-105
4.17409e-106
-3.0052e-132
8.69525e-113
4.99086e-118
4.91489e-119
2.66654e-123
1.34358e-141
1.72104e-129
1.52791e-135
9.38846e-136
2.50804e-139
1.51786e-141
1.7561e-145
4.29805e-146
9.02292e-148
0.999983
1.00002
0.999989
0.999956
1.00016
1.00009
-3.06317e-21
-4.41335e-28
7.70371e-37
3.94229e-23
1.25367e-24
8.38759e-28
2.21887e-32
5.31296e-36
2.1849e-39
9.13462e-43
3.75427e-46
1.52749e-49
6.74686e-53
2.41374e-56
9.72469e-60
5.04411e-63
1.53494e-66
5.30716e-70
3.95417e-73
6.57355e-78
7.06843e-81
3.99505e-83
3.52445e-87
9.9968e-90
9.5711e-94
3.40637e-111
7.71022e-99
1.14687e-103
2.09566e-107
2.01975e-108
2.14826e-112
-4.61649e-131
2.84214e-118
1.27036e-122
5.31642e-125
1.61408e-151
1.31524e-131
1.02803e-133
1.26436e-145
8.65511e-141
3.61037e-144
1.95186e-145
4.76334e-147
9.62391e-149
1.00003
1
1.00001
1.00002
0.99972
0.995613
-4.25625e-26
6.16236e-36
4.49356e-19
4.54348e-21
1.75711e-25
5.29575e-30
2.10438e-33
8.88365e-37
3.71456e-40
1.59519e-43
6.10082e-47
2.76111e-50
1.18216e-53
3.65013e-57
1.60244e-60
5.90911e-64
1.77832e-68
9.8862e-71
2.29009e-74
1.23838e-78
1.01301e-80
1.45141e-84
7.18135e-87
1.96863e-91
6.49257e-93
6.9367e-97
1.29658e-99
4.06071e-118
-9.91383e-122
6.70392e-109
1.57557e-114
2.25227e-116
7.49194e-120
6.78811e-123
-2.68715e-141
6.61316e-128
9.44268e-133
1.65856e-135
1.11234e-137
6.80636e-146
3.44873e-145
4.41709e-146
7.51949e-148
1.05182e-149
1.00003
1.00003
1.00002
0.999981
0.999964
0.524959
1.32521e-16
1.50064e-16
1.08053e-17
2.96303e-20
2.2011e-24
3.52983e-28
2.65895e-31
1.91821e-34
1.35687e-37
9.58316e-41
6.75604e-44
4.75525e-47
3.34032e-50
2.34093e-53
1.63852e-56
1.1442e-59
7.97247e-63
5.54676e-66
3.85026e-69
2.66636e-72
1.84453e-75
1.27297e-78
8.76449e-82
6.02706e-85
4.1349e-88
2.83033e-91
1.93483e-94
1.31991e-97
8.98374e-101
6.10588e-104
4.14138e-107
2.80252e-110
1.89389e-113
1.27712e-116
8.59353e-120
5.77418e-123
3.8714e-126
2.58975e-129
1.73028e-132
1.15374e-135
7.67514e-139
5.09918e-142
4.23584e-145
2.09317e-145
0.999965
0.999975
0.999978
0.999985
1.00003
1
1.50336e-13
5.03199e-20
7.39521e-23
7.84888e-23
3.38841e-24
4.67239e-27
1.19213e-31
1.21902e-36
8.64572e-40
3.06146e-41
3.92746e-44
3.41397e-47
2.58857e-50
1.99598e-53
1.60533e-56
1.14253e-59
8.64046e-63
6.0801e-66
4.17725e-69
3.13673e-72
2.226e-75
1.54878e-78
1.12047e-81
7.37729e-85
5.22438e-88
3.78079e-91
2.65454e-94
1.78277e-97
1.25391e-100
8.80322e-104
5.93185e-107
4.2306e-110
2.92721e-113
2.01099e-116
1.37114e-119
9.34272e-123
6.42523e-126
4.3209e-129
2.98026e-132
1.9902e-135
1.37171e-138
8.92611e-142
6.43977e-145
2.44365e-145
0.999987
0.999993
1.00004
1.00004
1.00006
0.999994
4.48427e-08
5.85742e-18
2.66191e-20
4.50562e-20
2.27951e-21
3.83538e-24
2.43459e-28
7.10744e-32
5.45862e-35
3.95322e-38
2.81669e-41
2.00478e-44
1.42382e-47
1.00909e-50
7.13879e-54
5.03862e-57
3.54765e-60
2.49418e-63
1.74963e-66
1.22437e-69
8.55546e-73
5.96442e-76
4.14775e-79
2.88044e-82
1.99608e-85
1.37988e-88
9.52573e-92
6.56137e-95
4.50896e-98
3.09382e-101
2.11834e-104
1.44707e-107
9.87031e-111
6.71769e-114
4.56148e-117
3.09297e-120
2.09266e-123
1.41271e-126
9.52334e-130
6.40557e-133
4.29875e-136
2.88105e-139
1.92625e-142
3.43745e-145
1.00002
0.999994
0.99999
1.00002
1
1.00027
0.0114152
3.90821e-17
3.66381e-20
1.74882e-20
5.62378e-22
6.45992e-25
5.48009e-29
2.42695e-32
1.91473e-35
1.41862e-38
1.02995e-41
7.43843e-45
5.34556e-48
3.8287e-51
2.73068e-54
1.94634e-57
1.38218e-60
9.7924e-64
6.91559e-67
4.87755e-70
3.4291e-73
2.40817e-76
1.68892e-79
1.17892e-82
8.23288e-86
5.72725e-89
3.97987e-92
2.75688e-95
1.90705e-98
1.3143e-101
9.0523e-105
6.21963e-108
4.26687e-111
2.91624e-114
1.98909e-117
1.35709e-120
9.22136e-124
6.2587e-127
4.23726e-130
2.86302e-133
1.93252e-136
1.29878e-139
8.71708e-143
3.03384e-145
0.999994
0.999987
0.999982
0.999976
1.00003
1
0.30818
2.79937e-16
2.29747e-19
4.67528e-20
4.79588e-21
9.26547e-24
1.08901e-27
5.06801e-31
3.84238e-34
2.82013e-37
2.04422e-40
1.47899e-43
1.06712e-46
7.67599e-50
5.50967e-53
3.94402e-56
2.81523e-59
2.00569e-62
1.42509e-65
1.0098e-68
7.14159e-72
5.03839e-75
3.54424e-78
2.48894e-81
1.74344e-84
1.21815e-87
8.49485e-91
5.91017e-94
4.10084e-97
2.84056e-100
1.96278e-103
1.35277e-106
9.30832e-110
6.38935e-113
4.37484e-116
2.99059e-119
2.03967e-122
1.38761e-125
9.42535e-129
6.38715e-132
4.31752e-135
2.91389e-138
1.96215e-141
1.02878e-144
0.999973
1.00001
1.00001
0.999969
0.999902
0.998843
0.421567
2.78941e-16
2.31898e-19
5.28705e-20
4.78481e-21
8.68511e-24
9.92191e-28
4.65965e-31
3.5347e-34
2.59271e-37
1.87857e-40
1.3585e-43
9.79929e-47
7.04592e-50
5.05572e-53
3.61806e-56
2.58182e-59
1.83879e-62
1.30618e-65
9.25307e-69
6.54281e-72
4.61379e-75
3.24502e-78
2.27815e-81
1.5955e-84
1.11449e-87
7.77122e-91
5.40505e-94
3.74954e-97
2.59672e-100
1.79389e-103
1.23616e-106
8.50399e-110
5.83621e-113
3.99532e-116
2.73073e-119
1.86211e-122
1.26662e-125
8.60193e-129
5.82843e-132
3.93932e-135
2.65849e-138
1.7897e-141
9.61889e-145
1.00002
1.00003
1.00001
1.00002
0.999974
1.00003
0.177127
3.04659e-17
4.35949e-20
4.3736e-20
1.88558e-21
2.71687e-24
1.76844e-28
5.61689e-32
4.31694e-35
3.11817e-38
2.21742e-41
1.57626e-44
1.11799e-47
7.91068e-51
5.59154e-54
3.94242e-57
2.77323e-60
1.94764e-63
1.36504e-66
9.54472e-70
6.66209e-73
4.64037e-76
3.22424e-79
2.23775e-82
1.54928e-85
1.07004e-88
7.38014e-92
5.07833e-95
3.48691e-98
2.39042e-101
1.63536e-104
1.11599e-107
7.60547e-111
5.17267e-114
3.50913e-117
2.37764e-120
1.60723e-123
1.08419e-126
7.30281e-130
4.90825e-133
3.29223e-136
2.20437e-139
1.47239e-142
3.26782e-145
1.00001
0.99998
0.999986
1.00001
1.00013
1.00031
2.15587e-06
4.90562e-18
2.17619e-20
3.66664e-20
1.8516e-21
3.10635e-24
1.96456e-28
5.70436e-32
4.376e-35
3.16553e-38
2.25345e-41
1.60304e-44
1.13783e-47
8.05913e-51
5.69884e-54
4.02061e-57
2.82978e-60
1.98867e-63
1.39426e-66
9.75327e-70
6.81208e-73
4.74734e-76
3.30071e-79
2.29147e-82
1.58732e-85
1.09699e-88
7.56993e-92
5.21237e-95
3.58067e-98
2.45618e-101
1.68112e-104
1.14794e-107
7.82776e-111
5.32571e-114
3.61531e-117
2.4507e-120
1.65766e-123
1.11871e-126
7.53936e-130
5.07004e-133
3.40166e-136
2.2792e-139
1.5235e-142
3.29174e-145
0.999954
0.999945
1.00003
1.00003
1.00015
1.00017
1.89617e-09
8.08822e-20
2.63777e-22
4.16114e-22
2.12622e-23
3.63363e-26
2.27821e-30
5.99457e-34
4.44144e-37
3.1309e-40
2.18849e-43
1.53621e-46
1.0814e-49
7.59342e-53
5.3162e-56
3.72465e-59
2.61196e-62
1.82071e-65
1.27531e-68
8.85081e-72
6.14207e-75
4.26199e-78
2.95252e-81
2.04314e-84
1.40819e-87
9.66143e-91
6.64405e-94
4.54502e-97
3.10838e-100
2.12522e-103
1.44828e-106
9.83359e-110
6.67379e-113
4.52747e-116
3.05674e-119
2.06408e-122
1.38972e-125
9.34058e-129
6.26712e-132
4.19735e-135
2.81054e-138
1.88108e-141
1.26203e-144
2.68171e-145
1.00001
1.00001
0.999995
0.999983
0.999737
0.99364
7.39803e-16
3.14554e-20
5.9823e-18
9.45867e-20
9.263e-24
4.18041e-28
3.02602e-31
2.18352e-34
1.53792e-37
1.08145e-40
7.59203e-44
5.32279e-47
3.72383e-50
2.59979e-53
1.81258e-56
1.26102e-59
8.75414e-63
6.06857e-66
4.1975e-69
2.89711e-72
1.99694e-75
1.37345e-78
9.42491e-82
6.45925e-85
4.41666e-88
3.01372e-91
2.05349e-94
1.39652e-97
9.47582e-101
6.4203e-104
4.34101e-107
2.92897e-110
1.97347e-113
1.32689e-116
8.90188e-120
5.96473e-123
3.98781e-126
2.66062e-129
1.77288e-132
1.17879e-135
7.82174e-139
5.1829e-142
4.28382e-145
2.10418e-145
1.00002
1.00002
0.99997
0.999939
1.00008
0.524709
2.29782e-17
2.11477e-17
8.68662e-19
7.99188e-22
1.88335e-26
3.3508e-30
1.3857e-33
5.89424e-37
2.49933e-40
1.09086e-43
4.47948e-47
1.91545e-50
8.99662e-54
3.86661e-57
1.65179e-60
8.1352e-64
4.45137e-67
1.75031e-70
1.06659e-73
7.40394e-77
5.66486e-80
1.27373e-83
2.0137e-86
4.89826e-90
1.84212e-92
7.26756e-96
4.14279e-99
1.94083e-102
1.05783e-105
9.6525e-109
5.22737e-112
3.42095e-115
3.22905e-118
1.33557e-121
8.17309e-125
2.77255e-128
1.17684e-130
7.98048e-134
1.64208e-137
1.21063e-140
8.53742e-144
1.78487e-145
2.78918e-147
3.32456e-149
0.999959
0.99999
0.999994
1
1.00009
1
6.01245e-14
-8.84679e-28
-1.92594e-37
1.89943e-23
5.31496e-25
3.08549e-28
2.39244e-34
-3.55043e-58
-2.67276e-54
1.07315e-42
2.05109e-44
2.17122e-48
7.10983e-53
2.20821e-56
1.25868e-59
5.87417e-63
2.81314e-66
1.17338e-69
5.22161e-73
2.95137e-76
1.76901e-79
6.97837e-83
5.25057e-86
4.39985e-89
4.04365e-92
1.92724e-95
1.26017e-98
9.23901e-102
4.32732e-105
3.4162e-108
2.51593e-111
6.86324e-115
6.50006e-118
7.99513e-121
2.91401e-124
3.57275e-127
2.24505e-130
1.55375e-133
7.4953e-137
5.41853e-140
4.29964e-143
2.78925e-145
1.40257e-146
3.56671e-148
0.999994
1.00001
1.00004
1.00002
0.999978
0.999971
2.83979e-08
-2.73061e-25
-4.80005e-41
2.82443e-20
1.07513e-21
8.81977e-25
2.03867e-29
4.00776e-33
1.67378e-36
7.0949e-40
3.00519e-43
1.27705e-46
5.46082e-50
2.25557e-53
9.69284e-57
4.06829e-60
1.76653e-63
7.42277e-67
3.23267e-70
1.50857e-73
6.37779e-77
3.39884e-80
2.03613e-83
1.48636e-86
8.17247e-90
5.98359e-93
3.004e-96
2.29761e-99
6.65628e-103
9.16129e-106
3.93936e-109
2.03542e-112
1.14418e-115
1.85881e-118
9.9127e-122
6.67752e-125
6.81604e-128
2.97364e-131
1.74239e-134
6.73863e-138
5.2109e-141
2.68657e-144
1.56373e-145
4.36405e-147
1
1.00001
1.00001
0.99998
0.999946
1.00023
0.0105613
-5.19944e-26
9.35624e-41
1.34965e-21
4.21671e-23
2.48983e-26
8.29975e-31
2.49215e-34
1.08861e-37
4.80323e-41
2.07214e-44
9.05042e-48
4.05431e-51
1.96472e-54
1.14461e-57
3.73454e-61
1.75417e-64
1.95391e-67
9.41349e-71
3.28821e-74
4.53535e-77
2.76263e-80
8.83605e-84
6.29346e-87
2.32654e-90
3.56541e-93
1.70789e-96
1.40495e-99
1.89727e-102
5.63367e-106
1.57647e-109
1.6911e-112
1.73199e-115
6.28197e-119
3.48135e-122
5.52414e-125
3.22905e-128
1.37835e-131
6.7982e-135
5.25287e-138
3.42541e-141
2.69169e-144
1.4029e-145
4.06329e-147
0.999998
0.999998
0.999972
0.999976
1.00009
1.00002
0.307043
-1.441e-21
3.15544e-33
9.82023e-22
8.35944e-23
1.33941e-25
1.29358e-29
3.60094e-33
1.56265e-36
6.79115e-40
2.98425e-43
1.3288e-46
6.01804e-50
2.68104e-53
1.17894e-56
6.68677e-60
3.70199e-63
2.07821e-66
1.05897e-69
4.63707e-73
7.6845e-76
4.73424e-79
1.94729e-82
7.37602e-86
9.42106e-89
8.53095e-92
3.48066e-95
1.36832e-98
1.10653e-101
1.06125e-104
8.40199e-108
4.71128e-111
3.03596e-114
2.06807e-117
6.77502e-121
8.55553e-124
5.56683e-127
4.45703e-130
1.7699e-133
1.09977e-136
1.31186e-139
7.74176e-143
2.89082e-145
1.60444e-146
0.999973
0.999986
0.999991
1.00001
1.00001
1.00003
0.421244
-5.71295e-23
0
2.72908e-21
1.32414e-22
1.25321e-25
9.66717e-30
3.30726e-33
1.43549e-36
6.25101e-40
2.71518e-43
1.2143e-46
5.4856e-50
2.48667e-53
1.23135e-56
6.54837e-60
2.36128e-63
1.70779e-66
9.8474e-70
3.99696e-73
2.85312e-76
1.78916e-79
8.7068e-83
1.6835e-85
1.34984e-88
5.21225e-92
2.06103e-95
2.06917e-98
1.62855e-101
6.39797e-105
5.26145e-108
2.60387e-111
9.42568e-115
1.10195e-117
1.43083e-120
9.23011e-124
3.76927e-127
1.87291e-130
1.69303e-133
9.56627e-137
1.24771e-139
8.45876e-143
2.91383e-145
1.6199e-146
1.00001
1.00002
1.00001
1.00003
0.999922
0.999711
0.171645
-1.4561e-26
1.97215e-34
3.25167e-21
1.01407e-22
6.29387e-26
1.72517e-30
4.48732e-34
1.90512e-37
8.14705e-41
3.45913e-44
1.50837e-47
6.96015e-51
2.78179e-54
1.32144e-57
5.77907e-61
2.54576e-64
1.42901e-67
7.84518e-71
4.649e-74
1.39528e-77
1.2519e-80
1.35254e-83
1.7062e-86
4.90119e-90
1.81823e-93
1.36892e-96
1.0902e-99
9.01034e-103
3.78446e-106
2.00264e-109
1.98119e-112
1.24739e-115
1.10824e-118
3.43603e-122
5.66501e-125
2.62094e-128
2.59261e-131
9.12518e-135
4.27913e-138
1.03477e-140
5.63361e-144
1.71743e-145
4.58292e-147
1
1
1.00002
1.00001
0.999993
1.00026
1.71029e-06
-8.6629e-26
4.93038e-35
2.66718e-21
8.55115e-23
5.76939e-26
1.55675e-30
3.94064e-34
1.67085e-37
7.1574e-41
3.12557e-44
1.36173e-47
6.3497e-51
2.48121e-54
1.22809e-57
5.2503e-61
2.64449e-64
1.05553e-67
8.09159e-71
3.29691e-74
2.33331e-77
1.48301e-80
1.534e-83
8.86816e-87
4.89667e-90
2.24519e-93
1.66379e-96
4.05281e-100
3.56965e-103
4.00829e-106
2.08512e-109
3.61353e-112
7.40308e-116
1.24847e-118
4.67458e-122
3.66313e-125
2.26453e-128
1.19439e-131
1.08328e-134
4.21653e-138
5.91992e-141
4.5723e-144
1.40093e-145
3.49388e-147
0.999965
0.99997
1.00003
0.99997
1.00008
1.0001
9.82961e-10
-1.91611e-28
-3.85187e-37
1.09165e-23
4.34501e-25
4.02713e-28
1.09099e-32
2.05095e-36
8.11979e-40
3.41126e-43
1.5199e-46
6.31374e-50
2.8684e-53
1.28933e-56
5.29814e-60
3.18851e-63
1.57346e-66
6.05513e-70
6.2783e-73
2.71e-76
2.06629e-79
9.2966e-83
6.73107e-86
5.24695e-89
3.50984e-92
1.63919e-95
2.70441e-98
1.2435e-101
5.59102e-105
4.67923e-108
3.48367e-111
1.45333e-114
1.62078e-117
9.88366e-121
4.11378e-124
2.84145e-127
1.76243e-130
1.64876e-133
1.21182e-136
3.33659e-140
5.3059e-143
3.02021e-145
1.19547e-146
2.72633e-148
1
1.00002
0.999991
1.00002
0.999854
0.993218
2.21786e-16
-6.16353e-36
7.35631e-19
2.70165e-21
3.25672e-26
3.72072e-30
1.54101e-33
6.52162e-37
2.755e-40
1.19553e-43
4.94274e-47
2.12213e-50
8.97595e-54
4.11572e-57
1.87868e-60
7.98818e-64
3.32822e-67
1.8178e-70
1.2928e-73
4.09199e-77
3.47091e-80
1.13574e-83
2.18794e-86
4.28659e-90
8.52445e-93
4.75297e-96
6.0389e-99
2.82204e-102
6.50669e-106
1.60374e-108
1.21912e-111
2.06663e-115
4.23574e-118
1.499e-121
1.20033e-124
1.28804e-127
4.93352e-131
4.85336e-134
1.15741e-137
2.37909e-140
6.10227e-144
1.52633e-145
2.39028e-147
2.93314e-149
-2.864e-20
0.993187
-6.09846e-21
0.524873
2.78379e-11
0.988343
1.8704e-10
1.0842e-22
0.999993
0.00157903
1
3.13822e-08
0.999997
0.00415701
0.010727
0.999963
0.366589
1.00008
0.0165523
1.00051
0.368749
0.562124
0.99928
0.972231
1.00075
0.563679
1.00008
0.975786
1
1.00048
1
1.00012
0.997292
0.99986
1
1.00001
1.00028
1
0.998843
1
0.999493
0.996512
0.973706
0.999334
0.564357
1.00034
0.973495
1.00044
0.565868
0.370914
0.999995
0.0107578
1.0008
0.373014
1.00014
0.0164955
0.00152892
1
-8.04102e-23
1.00008
0.00409033
1
3.11863e-08
-7.78644e-21
0.518453
-2.77209e-20
0.985397
1.82265e-10
0.5207
2.81781e-11
8.26359e-11
0.98564
4.7579e-10
0.524811
6.95445e-11
0.989714
4.78169e-10
5.15144e-08
1
0.00456757
1
5.14271e-08
0.999999
0.00458147
0.0174404
1.00018
0.368716
0.999937
0.0174332
1.00022
0.368919
0.563683
1.00031
0.955235
1.00085
0.563568
1.00001
0.978386
0.99623
1.00021
1
0.999599
0.996439
1.00005
1
1.00004
0.999193
0.996941
0.999993
1
0.999579
0.994452
0.961527
1.00057
0.565701
1.0006
0.973078
1.00071
0.565755
0.37304
1.00021
0.0174752
1.00013
0.373153
1.00017
0.0173938
0.00448194
1
5.0838e-08
1.0004
0.00452431
1
5.08562e-08
7.46192e-10
0.52068
7.02107e-11
0.985016
4.66026e-10
0.520703
7.03622e-11
3.56767e-11
0.984606
1.8664e-10
0.522297
-2.65171e-20
0.993896
-6.36677e-21
3.17696e-08
0.999998
0.00414174
1
1.12485e-23
0.999992
0.0015738
0.0165228
1.0002
0.368518
0.999996
0.0106994
1.00042
0.366521
0.563634
1.00022
0.956791
0.999638
0.561945
0.999505
0.971889
0.996929
1.00007
1.00001
1.00024
1
0.999843
1
1.00003
0.999538
0.998272
1
1
1.0006
1
0.966001
1.00061
0.565598
0.999679
0.974358
0.999751
0.564097
0.372806
1.00015
0.016593
1.00003
0.370686
1
0.0107528
0.00409152
1
3.12377e-08
0.999998
0.00153582
1
-5.21381e-23
3.73258e-10
0.520535
2.83133e-11
0.995671
-5.63441e-21
0.518196
-3.16826e-20
1
0.999908
1
0.999692
1
0.999849
1.00003
0.0105793
0.0021185
0.587779
0.523875
0.588919
0.0077518
0.00363534
4.93104e-35
-6.64203e-38
-3.94503e-34
2.97836e-17
2.26916e-19
3.44424e-16
2.57286e-18
0.999999
1.00002
1
0.999992
1.00001
0.999859
0.999959
0.833005
0.518169
1
1
0.518301
1
0.832652
-8.07794e-31
-2.83097e-21
-1.76522e-23
1.81278e-12
3.44424e-16
1.0776e-09
1.41915e-13
1.00002
1.00021
1.00016
1.00082
1.00031
1.00012
1.0001
1.00003
1
1.00035
0.999997
1
1.00029
1.00001
-8.94215e-24
-3.96656e-15
-3.42376e-19
2.81579e-08
4.07095e-12
1.70547e-06
6.63966e-12
0.999913
0.999904
0.999861
1.00001
1.00001
1.00009
0.999904
1
0.999996
0.999815
0.999574
0.999961
1
0.999874
-2.28077e-16
0.159847
-1.17906e-15
0.0105578
3.01583e-11
0.157481
2.96569e-11
1.00006
0.999902
0.999877
0.999593
0.999647
0.999898
1.00001
0.999621
0.999809
0.998966
0.999218
0.999341
0.999077
0.998949
-3.19079e-16
0.41995
-1.32354e-17
0.306896
2.41477e-10
0.422238
2.41475e-10
1.00008
1.00002
1.00019
1.00009
1.00039
0.999976
1.0001
1.00011
1.00121
1.00116
1.001
1.001
1.00052
0.999781
-5.04158e-18
0.304347
-2.71976e-17
0.421461
2.3767e-10
0.311502
2.37673e-10
0.999844
0.99994
1.00003
1.00039
1.00011
1.0001
1.00002
0.999982
0.999348
1.00031
1.0002
0.999884
1.00016
0.999286
-2.2903e-18
0.00545116
-8.25402e-21
0.162959
2.95822e-11
0.0107426
2.95824e-11
0.999997
0.999992
0.99978
0.999669
0.999576
0.999906
0.999907
1
1
0.998957
0.998824
0.999999
0.999243
1.00001
-1.53426e-22
-1.58694e-20
-2.00871e-24
1.71042e-06
4.12693e-12
2.84719e-08
4.12693e-12
1.00011
1.00012
1
1.00019
1.00015
1.00003
1.00001
0.96829
1
1
1
1
1
0.970135
-6.30131e-24
7.89414e-25
-2.26968e-26
1.0868e-09
1.42876e-13
1.83878e-12
3.50971e-16
1
0.999868
1.00001
0.999924
1.00001
0.999923
1
0.0583879
0.225085
0.814115
0.989726
0.233639
0.81539
0.0565143
-1.14699e-37
-9.08818e-26
-1.57976e-44
3.50971e-16
4.74748e-20
2.95029e-17
4.74748e-20
1
0.999898
1.00011
0.999618
1
0.999942
1.00006
0.0152613
0.00613251
0.589769
0.525087
0.0148154
0.590019
0.0063773
3.00105e-17
1.08648e-15
8.35374e-17
1.36461e-16
2.32e-17
1.0704e-15
8.36345e-17
1.00001
0.999912
1.00001
0.999716
0.999959
0.999856
1
0.833428
0.519164
1
1
0.831303
0.518672
1
1.00557e-15
2.05303e-09
1.49331e-13
3.37675e-12
9.89486e-16
2.04958e-09
7.04977e-13
1
1.0001
1.00005
0.999947
0.999838
1.00008
1
1
1
0.999785
0.999945
1
1.00002
1.00003
1.64561e-11
2.13816e-06
2.92599e-11
4.51572e-08
1.64561e-11
2.1416e-06
2.93023e-11
1.00003
1.00004
0.999903
1.0002
1.0001
1.00007
0.999931
0.999761
1.00006
0.999482
1.00071
0.999857
1.00028
0.999417
1.78951e-10
0.181878
1.17685e-10
0.0113855
1.78864e-10
0.154566
1.17685e-10
1.00001
0.999979
1.00007
0.999512
1.00006
0.999995
1.00011
1.00025
1.00022
1.00058
0.999831
1.0002
0.999984
1.00065
9.21316e-10
0.422421
9.21317e-10
0.30809
9.2132e-10
0.422357
9.2132e-10
1.00006
0.999884
1.00002
1.00029
1.00001
0.999903
0.999989
0.999986
1.00023
1.00033
0.999607
1.00029
1.00018
1.00032
9.15603e-10
0.310652
9.15603e-10
0.421513
9.15604e-10
0.314394
9.15605e-10
0.999971
1.00002
0.999993
1.00008
0.999973
1.00005
1.00001
0.999149
0.999512
0.998482
1.00046
0.999498
0.999509
0.999193
1.15997e-10
0.0115901
1.15997e-10
0.163556
1.15997e-10
0.011581
1.15997e-10
0.999966
1.00004
1
0.999164
0.999868
0.999961
1
1.00012
1.00018
1.00011
1.00016
1.00008
1.00011
1.00021
2.19937e-11
4.58103e-08
1.67678e-11
2.14221e-06
2.17939e-11
4.56682e-08
1.67678e-11
1.00005
0.999934
0.999995
1.00064
0.999989
1.00001
1.00001
0.967603
1
1.00001
1.00031
0.961978
1
1.00003
6.85162e-13
3.43793e-12
7.39536e-16
2.07758e-09
6.85162e-13
3.42872e-12
9.71266e-16
1.00004
0.999914
1.00007
1.00101
1.00013
1.00001
1.00001
0.0617378
0.229254
0.815504
0.983817
0.0599653
0.242663
0.81599
3.79392e-19
1.02228e-16
3.79392e-19
9.71532e-16
3.79392e-19
1.02406e-16
3.79392e-19
1
1.00003
1.00025
0.999986
1
0.999974
1
0.0120631
0.0055941
0.589901
0.523713
0.0138405
0.589093
0.00464924
2.21799e-19
3.41535e-16
2.66994e-18
-1.38863e-27
-4.93008e-35
-3.84773e-26
-3.94607e-34
1.00005
0.999924
1.00002
1.00028
1.00001
0.99993
0.999812
0.833258
0.519039
1
1
0.831901
0.518164
1
3.41535e-16
1.07903e-09
6.01245e-14
1.62342e-24
-4.00971e-26
-1.98127e-21
-1.40019e-23
0.999808
0.999975
0.999972
1.00055
0.999909
0.999971
1.00007
1
1
0.999993
1
1
1.00001
0.999792
4.10336e-12
1.70348e-06
6.56132e-12
-1.96587e-20
-2.12731e-24
-4.02822e-15
-9.95923e-22
1.00005
1.00004
0.999928
0.999881
1.00011
1.00004
1.00011
0.999664
1.00007
0.999625
1.00049
0.99978
1.00012
0.999196
3.04382e-11
0.179651
3.0438e-11
0.00527853
-2.35702e-20
0.159869
-7.70196e-18
1.00024
1.00008
1.00016
1.00003
1.00018
1.00012
0.999864
1.00002
0.999867
1.00039
1.00006
0.999891
0.999695
1.00129
2.39916e-10
0.422138
2.39916e-10
0.301123
-2.09871e-17
0.4197
-1.2035e-18
0.999881
1
1
1.00001
0.999773
0.999963
1.00006
1.00005
1.00015
1.00021
0.999523
0.999793
1.00028
1.00014
2.36966e-10
0.308723
2.36966e-10
0.418853
-1.45688e-18
0.304181
-3.51049e-18
0.999955
1.00006
1.00001
1.00023
1.00003
1.00004
1.00018
0.999773
0.999626
0.999193
1.00026
0.999625
0.999697
0.999193
3.00877e-11
0.0107796
3.00878e-11
0.159729
-4.17774e-19
0.0054524
-9.64464e-22
1.00014
0.999924
1
0.999972
1.00014
0.999968
0.999813
1
1.00009
0.999738
1.00014
1
1.00013
0.999735
4.118e-12
2.84084e-08
4.118e-12
-4.59398e-15
-4.6774e-25
-1.47712e-20
-2.35152e-25
0.999802
0.999876
0.999992
1.00014
0.99977
0.99981
0.999995
0.968939
1
1
0.999997
0.963091
1
1
1.30679e-13
1.8521e-12
2.21786e-16
-3.03364e-21
-4.51708e-24
-8.92777e-25
-1.69888e-26
1.0001
1.00014
1.00004
0.999741
1
1.00018
1
0.0597964
0.229415
0.815238
0.989882
0.0599249
0.233657
0.814552
3.14554e-20
2.95892e-17
3.14554e-20
-2.36963e-26
3.94346e-34
-1.03112e-27
-4.93038e-35
1.31466e-08
-5.24138e-19
-3.88059e-20
3.01264e-12
3.0128e-12
-4.99175e-18
5.32313e-09
0.0610952
0.814044
0.223331
0.989732
0.815379
0.228385
0.0599534
5.63734e-08
-9.28466e-22
-1.58332e-17
3.847e-11
3.847e-11
2.07494e-07
-5.48098e-17
0.0121297
0.523941
0.00559371
0.589793
0.588931
0.0138987
0.00464707
3.08283e-08
2.7838e-11
2.5653e-08
2.78379e-11
2.78375e-11
5.18163e-08
1.42937e-08
0.0624691
0.988748
0.815805
0.231337
0.814888
0.229918
0.0631894
1.19408e-07
1.8704e-10
1.87039e-10
6.44279e-07
1.8704e-10
4.28722e-07
1.80125e-07
0.0640027
0.00315206
-3.46945e-21
6.42403e-09
0.00466768
6.42403e-09
0.063339
0.96778
1
1
1.00002
1.00001
1
0.971302
0.174364
-6.10878e-21
0.499868
0.00278969
3.37722e-07
0.500029
0.1695
0.831447
1
0.519055
1.00001
0.518449
1
0.833708
0.0664924
3.13822e-08
0.00662105
3.13822e-08
0.0055912
3.13822e-08
0.0653418
0.967572
0.999993
1.00001
1
1.00001
1
0.965725
0.174911
0.00355141
1.21058e-06
0.501201
1.21058e-06
0.500089
0.178667
0.857743
0.602701
0.0862632
0.0135906
0.603053
0.0881427
0.857876
1
1.00005
0.999999
1.00005
1.00004
1.00001
1.00001
0.976527
0.169737
1
0.367446
0.172259
1
0.977665
1.00008
1.00005
1.00001
0.999744
1.00001
1.00014
1
0.857557
0.0150141
0.604013
0.090433
0.6029
0.0889071
0.85764
1.00001
1.00062
1.00003
1.00002
1.00016
1.00006
1.00001
0.974086
0.367635
0.173789
1
0.175469
1
0.975914
1
1
0.655451
0.562913
1
0.656619
1.00002
0.999952
1.00025
0.999368
1.00007
1.00002
0.9998
0.999518
1
0.881647
1
0.974007
0.880727
1
1.00002
0.999989
1.00005
1.00022
0.999829
1.00005
1.00011
0.999899
1.00002
0.562881
1.00001
0.657436
1.00001
0.656236
1
0.999505
1.00036
0.999029
0.999909
0.99903
0.99987
0.99951
1
0.963651
0.87945
1
0.881931
1.00003
1
0.999997
0.999999
1
1
1
1
0.999992
1.00003
0.999839
1.00055
1.00047
1.00014
1.00023
0.999325
1
1
1.00003
1
1
1.00003
0.999953
0.999938
0.999546
1.00043
1.00124
0.999753
0.999982
1.00026
1
0.998499
1.00001
1
1
1
1.00001
1.00003
0.999682
1.00032
0.999694
1.00017
0.999694
1.00006
0.999993
1
1
0.999967
1.00001
0.999956
1
1.00001
1.00008
1
1.00002
1.00014
1
0.999977
0.999833
1.00044
1.00016
0.999978
1.00007
1
0.998234
0.999999
1
1
0.998871
1
1
0.999981
0.999884
0.999641
1.00002
0.99993
1
0.999978
1.00039
0.999971
1.00002
1.00002
1
1.00004
1
1.00004
1.00016
0.999426
1.00013
0.999835
1.00067
0.999675
1.00006
1.00004
0.997379
1
1
1
1
1
1
1
0.883159
0.973576
1
0.882804
1
1.00002
1.00022
0.999999
0.999788
1.00019
1.00002
0.999985
1.00001
0.656043
1
0.565131
0.657148
1
1.00001
0.999742
1.00007
0.999671
0.998484
0.999941
0.999258
0.999467
1
0.967387
1
0.882112
1
0.882534
1
0.999881
1.00042
0.999802
1.00014
0.999632
1.00016
0.999892
1
0.564968
0.657974
1.00002
0.656965
1.00006
1
0.973017
1
0.170286
0.371779
1
0.173566
0.975029
1.00008
0.999513
1
1.00011
1.00035
1.00003
1
0.868475
0.0859561
0.60341
0.013596
0.0863884
0.60367
0.867531
1.00001
0.999661
1.00029
1.00042
1.00002
0.99974
1.00023
0.969532
0.371989
1
0.17932
1
0.178012
0.969309
1.00059
1.00025
1.00094
1.00006
1.00152
1.00008
1.00045
0.864493
0.0150711
0.0882264
0.604616
0.0912216
0.603485
0.868368
0.173387
0.498597
-6.45338e-21
0.00272642
0.498796
3.3657e-07
0.170591
0.83264
1
0.5176
1
1
0.517822
0.833293
0.0633712
-1.19906e-21
0.00313988
6.37997e-09
6.37997e-09
0.0046364
0.0616143
0.965239
1.00003
1
1.00006
1
1.00002
0.967116
0.177461
0.00347351
0.499971
1.2138e-06
0.498803
1.2138e-06
0.176604
0.832707
1
1.00001
0.51864
1
0.517727
0.832571
0.064031
3.11863e-08
3.11863e-08
0.0065787
3.11863e-08
0.00560666
0.0655818
5.39488e-08
-1.25396e-17
-8.0752e-22
4.21907e-11
2.11546e-07
4.21907e-11
-5.08872e-17
0.0111633
0.592464
0.00190931
0.519636
0.593885
0.00842144
0.00333383
1.36265e-08
-7.37539e-21
-4.03277e-19
3.00127e-12
3.00142e-12
-5.12038e-18
5.01108e-09
0.0584226
0.994237
0.23995
0.815967
0.227616
0.814939
0.0608615
1.12107e-07
1.82265e-10
6.56385e-07
1.82265e-10
4.22583e-07
1.82265e-10
1.74488e-07
0.0126894
0.519825
0.594635
0.00517012
0.593939
0.0145426
0.00428266
3.16297e-08
2.81782e-11
2.81781e-11
2.45031e-08
2.81777e-11
5.31115e-08