/*--------------------------------*- C++ -*----------------------------------*\
| =========                 |                                                 |
| \\      /  F ield         | OpenFOAM: The Open Source CFD Toolbox           |
|  \\    /   O peration     | Version:  5.0                                   |
|   \\  /    A nd           | Web:      www.OpenFOAM.org                      |
|    \\/     M anipulation  |                                                 |
\*---------------------------------------------------------------------------*/
FoamFile
{
    version     2.0;
    format      ascii;
    class       volVectorField;
    location    "0.3";
    object      ddt0(rho,U);
}
// * * * * * * * * * * * * * * * * * * * * * * * * * * * * * * * * * * * * * //

dimensions      [1 -2 -2 0 0 0 0];

internalField   nonuniform List<vector> 
4398
(
(-0.382233 -2.82218 0.435019)
(4.97204 -2.80233 -0.266631)
(6.84558 -2.74067 -0.856239)
(5.26255 -7.25533 2.24563)
(4.49802 -2.91912 1.78767)
(-105.623 10.7363 -22.2652)
(-6.88663 7.67146 0.792398)
(-13.7039 5.30854 0.401241)
(-16.3508 2.10194 -0.000439514)
(-17.7819 3.00447 -0.000896835)
(-18.7526 2.06685 0.155464)
(-19.2311 1.73426 0.0910346)
(-15.821 3.7071 -0.285441)
(-12.8975 1.56196 0.0808602)
(-11.6512 0.143884 0.0174809)
(-9.75719 0.781167 -0.350646)
(-7.1294 -0.014717 0.000957055)
(-3.85785 1.36958 0.0801713)
(-1.41408 2.53621 0.135172)
(-0.736743 1.18919 -0.218464)
(-0.488588 1.506 -0.0582461)
(2.37319 1.02198 0.187293)
(1.72655 -0.669794 -0.00706926)
(0.687684 -0.76358 -0.145945)
(2.90579 -2.80181 0.091925)
(2.68038 -3.56913 0.0747169)
(-0.226629 -1.66829 -0.0860495)
(-1.3555 -0.0420239 -0.000655658)
(1.48084 0.541821 -0.139195)
(1.50178 0.419901 -0.0272039)
(0.786107 2.19133 0.0504176)
(4.93506 2.49617 0.139393)
(4.26155 -0.259371 0.165676)
(-1.67363 -1.56527 -0.118936)
(-1.42777 -1.01252 -0.00735729)
(6.6486 -0.876025 -0.000601497)
(15.075 -2.06869 -0.0428052)
(17.4886 -2.83753 0.0874069)
(15.7059 -1.77386 0.125076)
(15.8167 -0.495448 -0.0961586)
(21.3448 0.483676 -0.115914)
(24.7053 1.35895 0.155691)
(18.9862 2.05318 0.0298412)
(15.9968 2.21108 -0.113532)
(22.4752 0.322872 -0.00119464)
(26.0654 -1.79785 0.228347)
(22.906 -1.65844 -0.0225771)
(22.0203 -0.869446 -0.0131985)
(23.6108 -0.671371 0.0630176)
(21.7996 -0.265336 0.0308035)
(-1.55224 1.55381 0.64169)
(-1.19171 0.762901 -0.922899)
(-6.0938 -11.4581 0.470131)
(-9.64614 -13.8122 -0.507095)
(-16.0356 -24.0142 3.61112)
(-124.186 -22.1017 13.4584)
(0.434606 12.0584 0.0712755)
(-16.6453 9.96063 -0.0871755)
(-17.7599 7.30228 0.0124102)
(-18.0714 3.7694 -0.00180167)
(-19.7895 3.9242 -0.000168243)
(-17.8123 1.30683 -0.00118445)
(-15.5989 1.68402 -0.00262499)
(-16.3013 1.45124 -0.00363896)
(-12.3495 0.98234 -0.00105732)
(-10.1253 -0.0914863 -0.2593)
(-6.56639 1.57534 0.192796)
(-1.15457 3.8406 0.23067)
(-2.63062 4.27191 -0.128103)
(-2.83854 0.449434 -0.0882428)
(-0.94394 0.65413 0.156268)
(0.611161 0.323894 0.0547656)
(1.38061 -1.8096 -0.438627)
(0.176794 -0.696382 -0.111098)
(0.850225 -1.09292 0.0250055)
(2.69411 -2.55693 -0.131272)
(2.19991 -2.61947 -0.132406)
(1.41614 0.407778 -0.0331002)
(1.80923 1.421 0.00149698)
(2.04655 0.0207169 0.183)
(2.10814 1.65204 0.127234)
(1.65517 0.988264 0.0794386)
(0.636127 -3.42495 -0.239206)
(-0.381689 -3.23494 -0.198254)
(0.644249 0.363896 0.000539104)
(5.97789 1.70837 -0.0977768)
(12.8975 -0.808576 0.00152732)
(16.9505 -2.65938 0.163016)
(17.221 -1.96836 -0.0715795)
(17.8595 -0.288713 -0.249774)
(22.2332 1.23666 0.143502)
(24.7248 0.162426 0.0595265)
(20.2976 -0.677771 -0.0091734)
(16.0924 1.45648 -0.226365)
(19.2764 1.42704 0.029249)
(24.0143 -1.40416 0.0122293)
(24.227 -1.62327 -0.162367)
(23.7935 0.36301 0.0748027)
(23.8822 1.13107 0.170568)
(21.1576 0.301665 -0.00199698)
(-1.38382 -4.14285 0.007052)
(-11.3007 -2.38453 -0.0495519)
(-11.3496 -4.69358 -0.253139)
(-17.9461 1.2102 -1.18093)
(-21.8063 -7.92558 -4.25549)
(-3.20432 1.21443 -29.0644)
(-10.6941 45.2354 1.67424)
(-22.9145 8.27233 0.748667)
(-24.0905 5.88773 0.868257)
(-22.0002 4.54117 -0.0040096)
(-21.8343 3.11589 -0.00279291)
(-22.0276 3.45888 -0.00262175)
(-15.6414 -0.608166 -0.00102599)
(-13.7747 -0.535446 -0.000619475)
(-13.5803 0.905566 -0.00121635)
(-9.0131 -0.342502 0.00100639)
(-2.21388 1.52262 0.122852)
(-0.489245 1.6306 -0.154325)
(-5.6583 -0.356433 0.196432)
(-5.25424 0.351118 -0.0936172)
(-0.64593 1.23082 -0.219309)
(-0.708505 0.204088 -0.0398466)
(0.455119 -0.833141 -0.196961)
(1.58079 -0.440999 0.180726)
(0.578344 1.06607 0.0213795)
(0.773443 0.201831 -0.102703)
(3.48202 -1.66355 0.197814)
(3.6918 0.470318 0.000268821)
(0.993151 -0.585041 0.21819)
(1.79274 -2.0462 0.2247)
(1.99185 -0.854408 -0.232323)
(-1.41585 -2.05087 -0.357826)
(-1.01254 -3.39043 -0.295263)
(3.0661 -2.39144 0.0140057)
(4.74834 1.14509 0.263978)
(5.17847 3.20566 0.10118)
(9.61609 0.490445 -0.221541)
(16.0416 -1.56896 0.00927079)
(18.6701 -0.783512 -0.00355022)
(19.8224 0.692342 -0.0385557)
(21.9053 1.18199 0.0972763)
(22.3126 -1.35333 0.156455)
(20.6073 -3.35401 -0.0717384)
(18.6255 -0.828949 -0.00495963)
(18.8962 1.50795 0.173921)
(22.2562 0.0507988 -0.0666363)
(25.118 -0.609653 -0.0571665)
(25.4618 1.32454 0.103483)
(23.5316 1.23189 0.0192071)
(20.0094 -0.241772 -0.00884399)
(0.650406 -3.2626 -0.567428)
(-1.8777 -3.54007 -0.195003)
(-1.57826 6.81382 -0.0658822)
(6.83667 4.30615 2.1767)
(-7.12481 30.9158 -0.593809)
(-32.8549 17.5811 -9.74494)
(22.095 78.2268 -0.806709)
(-20.8742 2.44064 1.23364)
(-22.4233 1.74209 -0.00369604)
(-21.5361 2.74175 -0.485855)
(-21.1403 0.775241 -0.00402596)
(-22.4727 1.44137 -0.00263379)
(-20.5868 0.878306 -0.000308657)
(-14.4074 -0.666458 0.000535507)
(-12.1116 1.23019 -0.000424196)
(-9.35057 1.68618 0.000525338)
(-4.10226 1.48042 -0.00194676)
(-3.5056 -1.57898 -0.128069)
(-4.22703 -4.27209 -0.0995095)
(-0.854139 0.471764 -0.0691642)
(-1.12984 1.50239 0.188015)
(-1.96832 -0.0478479 0.00243942)
(0.575643 0.864015 0.146718)
(2.55253 0.334897 0.136156)
(1.65171 1.71733 -0.142188)
(-0.718165 2.2707 -0.212304)
(2.54093 0.523263 0.0752017)
(2.7615 -0.426183 0.016703)
(-1.33601 -2.48113 0.156406)
(1.71497 -2.85343 -0.357105)
(2.10148 -2.03954 -0.145326)
(-1.51413 -2.67186 0.372441)
(0.214284 -1.31875 0.00294427)
(5.29107 -0.507556 0.00153778)
(7.63929 1.072 0.0208744)
(5.15448 2.68125 -0.280389)
(6.93024 1.58537 -0.0904762)
(15.3616 0.0792763 0.00683304)
(20.0484 0.639718 0.0675988)
(20.315 1.49746 0.115706)
(19.6728 0.32124 0.0788144)
(19.0555 -2.79082 -0.125345)
(20.9585 -4.29322 -0.0266839)
(22.1692 -2.16401 0.082345)
(20.3715 0.621807 0.276374)
(21.3683 0.606736 -0.149998)
(25.8219 0.772362 -0.0153097)
(26.0932 2.24362 0.00827227)
(21.9246 1.19414 0.000652982)
(19.9211 -0.854427 -0.0724779)
(-1.71044 4.88822 -0.560515)
(1.32824 -0.617274 0.229532)
(-1.55438 1.2263 0.896016)
(-4.08773 -4.55929 0.141136)
(-4.51905 -33.7346 2.54293)
(-26.283 0.831337 10.5501)
(-84.2387 10.3747 80.0555)
(-24.248 1.58896 -0.562772)
(-23.7194 -0.525328 0.00291813)
(-23.2128 -1.40225 0.303908)
(-23.4565 -1.32923 0.0551628)
(-21.9 -2.86606 -0.0243232)
(-18.2772 0.0898298 -0.14566)
(-13.3305 0.127741 0.000134942)
(-10.6414 1.64662 0.0269463)
(-8.70134 1.73388 0.0992439)
(-6.29891 2.17905 -0.000264784)
(-7.67987 -0.546673 -0.00361258)
(-3.08562 -2.37793 -0.271529)
(1.95901 -0.759124 0.16134)
(-1.29862 -0.0691278 -0.00183282)
(-1.50287 -0.349643 -0.166688)
(0.932797 0.765823 -0.202115)
(2.65107 1.16995 0.161264)
(2.99871 1.23498 -0.134658)
(-0.720549 2.42383 0.00534464)
(0.113385 1.88197 0.103572)
(-0.0635067 -0.990144 0.0492814)
(-2.03692 -1.76718 -0.341289)
(2.34783 -1.22399 -0.14645)
(2.21838 -1.13354 0.123379)
(-0.511883 -0.890908 -0.0070438)
(1.69335 -0.478952 -0.280875)
(6.05597 0.638695 0.00187181)
(8.73502 1.07678 0.0468552)
(5.8174 1.49377 -0.00110746)
(6.36316 2.69136 0.219116)
(14.8625 1.87928 0.00144104)
(20.4437 0.893192 -0.00676981)
(19.4221 0.872637 0.141624)
(16.5429 -0.717356 -0.00815974)
(16.5465 -3.0649 -0.32001)
(21.3942 -3.50904 0.0524105)
(24.7689 -2.17211 0.466796)
(22.356 -0.417578 -0.0329993)
(22.4443 0.761272 -0.0165819)
(27.1652 2.24594 0.112304)
(25.9862 2.861 0.221997)
(19.6583 1.41124 -0.0940216)
(19.5898 -0.135828 -0.0481839)
(-6.22506 1.24326 1.22979)
(-6.43055 0.970737 0.542084)
(-6.50397 -3.603 -0.181975)
(-30.7964 -0.0100139 -1.16992)
(-6.38747 8.52695 -12.0693)
(4.88373 1.71919 3.85569)
(-1.12828 19.4931 3.08659)
(-27.4201 -1.63401 -0.395336)
(-26.1344 -3.37064 -0.0279895)
(-22.5388 -4.34096 0.017512)
(-22.9709 -1.78162 -0.0677163)
(-20.693 -0.859261 -0.00228826)
(-16.8478 1.31777 0.139264)
(-12.4594 1.51074 -0.00443043)
(-10.1053 0.381359 -0.128552)
(-8.68428 0.646515 -0.122426)
(-6.95644 0.693662 0.00221095)
(-9.20101 1.19456 0.139229)
(-4.48847 -0.219791 -0.0562201)
(2.03069 -2.22069 -0.179832)
(-0.619241 -1.79942 0.0111022)
(-0.922927 -0.577433 -0.220841)
(2.47439 -0.222618 -3.84969e-05)
(3.13808 1.73831 0.370931)
(3.22024 1.11494 0.193763)
(0.0884506 1.49103 0.024777)
(-1.72865 1.96815 -0.0827616)
(-1.79682 -0.446981 -0.143652)
(-1.62642 0.220649 0.00783074)
(2.50584 1.42493 0.377503)
(2.51726 0.447689 0.191156)
(-0.695251 -0.352665 -0.170484)
(2.12689 -0.63259 -0.0598635)
(7.23485 1.41884 0.0011001)
(8.70791 1.20902 0.128934)
(7.17325 0.192942 -0.00151527)
(7.40948 2.34351 0.118881)
(13.1138 2.67542 0.0027649)
(18.7914 0.550759 -0.0606359)
(18.3 -0.579075 0.09648)
(14.7498 -1.20633 -0.0347783)
(15.5676 -1.81654 -0.11863)
(22.0757 -1.412 0.107972)
(26.0332 -0.918495 0.0567946)
(24.0372 -0.792218 -0.221368)
(24.6972 0.72215 0.00257)
(28.4444 2.39516 0.279734)
(25.0468 2.13929 0.0235775)
(18.1769 1.32557 -0.276661)
(18.3299 1.10862 0.0103144)
(-2.0558 -3.85165 0.472347)
(-4.74661 3.11625 -0.427911)
(-2.77001 -0.633867 -0.575455)
(1.57803 0.514893 1.34115)
(9.80041 15.5679 -1.56078)
(0.747325 -19.4165 -10.2098)
(-29.609 -31.0022 -2.91459)
(-27.8947 -6.8226 -0.788958)
(-27.1258 -3.4266 -0.00422038)
(-21.2204 -4.01394 0.00261101)
(-19.1055 -2.72266 -1.22575e-05)
(-18.0238 -1.21585 -0.000814994)
(-15.3169 0.507376 -0.000531085)
(-14.5025 0.54267 0.00123775)
(-11.7197 -2.86771 -3.18735e-05)
(-8.31101 -0.0772801 -0.000525618)
(-5.61325 -1.0358 -0.000345978)
(-8.82379 -0.357091 -0.173206)
(-7.35575 1.72039 -0.130494)
(-0.0126904 -2.03433 0.0417625)
(0.756077 -2.37235 0.0268002)
(0.46662 -0.743175 -0.001142)
(3.82873 -0.598368 0.058469)
(4.3199 1.04947 0.00945948)
(2.69047 0.803079 -0.197335)
(0.345909 0.856222 -0.0609542)
(-2.31261 1.35306 -0.0162295)
(-2.2442 0.113551 0.156041)
(0.303241 2.28097 0.222158)
(2.62927 2.89184 0.110623)
(-0.00347318 0.397662 0.0863408)
(-1.86155 -0.668228 -0.0939409)
(3.90965 0.278235 0.0179358)
(8.35502 1.78185 0.0782332)
(7.2018 0.559838 -0.106662)
(7.23919 -1.21576 -0.105442)
(9.46414 0.811158 0.0302856)
(12.6185 2.80528 -0.0442497)
(16.3763 0.85954 0.0109423)
(17.2259 -1.09119 0.173967)
(14.9956 -1.04143 -0.0421996)
(16.29 0.400998 -0.307283)
(22.5165 1.09607 0.0154342)
(25.5431 0.258599 0.10985)
(24.408 -0.628382 -0.0181018)
(26.428 0.495218 -0.000226971)
(28.9338 0.904839 0.10659)
(24.6481 -0.0100262 -0.000941156)
(18.3704 0.525561 -0.419766)
(16.5426 1.3232 0.127601)
(2.49587 6.25736 -0.648395)
(-2.43553 5.1685 0.280726)
(-9.75304 3.47824 1.43185)
(-0.23859 4.03446 -0.175895)
(-17.1379 -9.4573 4.72406)
(-19.7568 -55.8891 0.831932)
(70.0777 -22.7076 -29.8665)
(-23.7299 -10.4011 0.296503)
(-22.6186 -4.66411 0.233304)
(-21.6569 -1.31345 -0.00490577)
(-19.4733 -2.05543 -0.00324486)
(-16.6551 -0.612321 -0.00119591)
(-14.6516 -1.49007 -0.000674616)
(-16.6824 -1.39016 -0.000373617)
(-10.8729 -1.67902 0.00132229)
(-6.39917 -0.192889 -0.000700778)
(-7.30491 -3.25355 0.377618)
(-5.75388 -3.07943 -0.371322)
(-6.59249 0.616923 0.324016)
(-3.08153 0.329155 0.0441139)
(0.997583 -1.61187 -0.420093)
(1.29251 -1.06899 0.0683566)
(4.71701 0.475375 0.0688384)
(4.88802 0.00549904 0.00418556)
(2.97896 0.782017 -0.13239)
(0.77584 0.906627 0.0948761)
(-2.66017 0.451932 0.106937)
(-0.634295 0.513655 -0.0426957)
(1.84373 1.6942 -0.0797748)
(0.147227 1.49893 0.144694)
(-1.93119 -0.799427 -0.0849206)
(-0.842349 0.119633 -0.111157)
(5.19009 2.42499 0.0520917)
(7.58384 1.60298 0.00731071)
(4.96056 -0.751078 -0.0155692)
(7.492 -1.90579 0.0438889)
(12.4359 -0.367127 0.0326347)
(13.1697 1.89849 -0.0554464)
(13.9205 1.21632 0.00128111)
(15.9259 -0.491441 -0.0139212)
(16.6164 -0.449159 -0.0417867)
(18.2383 2.11083 0.0405394)
(21.8959 2.92057 0.118694)
(23.8778 0.626596 0.00431337)
(24.3353 -0.460642 0.000702842)
(26.6129 0.534087 0.00209351)
(27.8117 -0.578272 0.00720414)
(24.5742 -2.36735 -0.0471328)
(19.8426 -1.17661 -0.0106937)
(16.0142 0.342449 0.0859546)
(-3.42233 5.93848 0.942119)
(-8.23456 2.69272 -0.615266)
(-4.17504 6.85216 -1.21297)
(-13.4791 10.0951 -0.0230354)
(-38.8921 -0.559218 4.85985)
(-38.5147 -8.55799 -1.79921)
(1.20911 -21.7162 1.17121)
(-9.14025 -8.3234 0.277528)
(-15.7707 -4.03781 0.432657)
(-17.9653 -2.12945 -0.00182331)
(-18.2268 -1.13085 -0.00148923)
(-17.3201 -1.11124 0.00030312)
(-16.288 -3.69614 0.000148027)
(-14.7392 -1.69693 0.000793691)
(-10.221 0.171635 0.00138827)
(-10.2849 -2.09527 0.243916)
(-9.218 -2.65115 0.555817)
(-3.98112 -2.09642 -0.309142)
(-3.09989 -1.52223 0.0123244)
(-2.80048 1.25314 0.0363125)
(-0.988426 -0.295348 -0.00670997)
(3.07699 -0.133254 0.0858516)
(5.16969 1.33548 0.0506704)
(4.70481 -1.01485 -0.0218392)
(3.81607 -0.302316 -0.0381816)
(-0.0676685 0.0872479 0.143723)
(-2.80358 0.0968068 -0.160689)
(-0.690898 0.4483 -0.239175)
(1.5318 -0.470573 0.112771)
(-0.492078 -0.0415547 0.0519948)
(-1.72485 -0.601046 -0.199327)
(2.16949 1.11384 -0.0568676)
(5.75928 3.85051 0.636208)
(4.38313 1.53617 0.0237328)
(2.81734 -1.76919 -0.12842)
(7.72232 -2.60765 0.0895771)
(14.2206 -1.92428 0.0954663)
(14.5946 -0.27806 -0.0393462)
(13.388 0.804642 -0.10224)
(15.1463 0.0216582 -0.00168946)
(18.2513 0.0931219 0.11954)
(20.5001 2.65828 0.0931612)
(20.658 3.7138 -0.0160395)
(21.3184 0.53138 -0.0569285)
(24.2949 -0.784867 -0.000235351)
(26.2788 0.490556 0.0249808)
(25.3066 -0.882685 -0.000646652)
(23.9039 -3.30607 0.00862546)
(21.7592 -2.49733 0.0959547)
(17.5825 -0.680265 0.00463236)
(-1.56835 -5.7818 -0.942774)
(-1.29427 -3.35742 0.530403)
(-0.506465 4.77875 1.95792)
(1.48968 5.46171 1.48454)
(-47.5462 23.5793 -0.382468)
(72.7069 73.1352 -12.4827)
(2.66407 3.81466 0.994949)
(-8.27691 -0.390142 0.344628)
(-14.883 -1.00956 0.00403859)
(-18.025 -0.856737 -0.00132056)
(-18.2023 -0.862395 0.084583)
(-19.8649 -1.27662 -0.1083)
(-15.3778 -2.39002 -0.362268)
(-11.8481 -0.905363 0.270937)
(-11.3758 -0.914874 0.00975986)
(-9.92586 -2.04832 0.260949)
(-7.30467 -0.495876 -8.01542e-05)
(-4.34273 -0.376741 -0.165162)
(-2.40268 -0.396947 0.0903732)
(-1.55281 0.970341 -0.0249387)
(-0.733569 1.25477 -0.134313)
(3.33281 1.37038 -0.125265)
(3.61038 0.692827 -0.00471667)
(2.84437 -1.38233 0.00211062)
(4.35592 -2.52137 0.206643)
(1.27426 -2.11143 0.167904)
(-2.20824 -0.323871 -0.102694)
(-1.34519 -0.0482681 0.0148372)
(1.23254 -0.854723 0.0474544)
(-0.0171419 -0.0911477 -0.0230788)
(-0.484636 0.739236 -0.127026)
(4.72263 1.91663 0.0628879)
(5.71148 2.9513 0.275519)
(0.557724 0.720682 -0.0639297)
(-0.216394 -1.89385 -0.0878661)
(7.29965 -2.67677 0.171116)
(15.3491 -2.75318 0.0871342)
(16.5804 -1.99381 -0.0311457)
(14.2932 -0.438437 0.137188)
(15.038 -0.13823 0.0199909)
(19.9156 0.0975966 -0.00592966)
(22.7629 2.33411 0.0170703)
(19.233 3.46241 -0.0140577)
(18.257 0.99943 -0.114539)
(24.2873 -0.795984 0.0985884)
(26.4878 -0.458818 0.0926676)
(23.065 -0.965983 -0.0593447)
(22.5601 -2.37858 -0.0683996)
(23.1265 -2.47418 0.0585448)
(19.9867 -0.898306 -0.00263766)
(-0.597209 -2.72815 0.837061)
(5.01938 -2.82866 -0.169189)
(6.71431 -2.96161 -1.90859)
(5.4874 -7.09257 3.37007)
(-0.343188 -2.1096 0.366316)
(-101.431 3.95485 -72.7121)
(-6.79157 7.30091 -0.184836)
(-13.716 5.31301 0.694185)
(-16.4436 2.1553 -0.00408495)
(-17.845 3.05925 -0.00271184)
(-18.8402 2.11665 0.408367)
(-19.3438 1.78782 0.170059)
(-15.91 3.80133 -0.406109)
(-13.0249 1.60659 0.164024)
(-11.8695 0.180612 0.0303808)
(-9.92253 0.761452 -0.707002)
(-7.24774 -0.0100964 -0.00438249)
(-3.98732 1.33121 0.223543)
(-1.55441 2.49882 0.255445)
(-0.825163 1.17989 -0.380045)
(-0.489748 1.55603 -0.137813)
(2.28736 1.07386 0.531115)
(1.58192 -0.66229 -0.0096445)
(0.556892 -0.768581 -0.490459)
(2.76609 -2.73315 0.211928)
(2.52536 -3.45403 0.151935)
(-0.360324 -1.58007 -0.19102)
(-1.55767 -0.0187089 0.00103895)
(1.32316 0.526599 -0.26346)
(1.36498 0.416261 -0.0535497)
(0.559268 2.27938 0.0974981)
(4.91127 2.62986 0.235635)
(4.27946 -0.254559 0.256619)
(-1.77015 -1.53133 -0.226838)
(-1.52426 -0.959668 -0.00162956)
(6.52422 -0.856429 0.0236658)
(14.9314 -2.0397 -0.0870234)
(17.3283 -2.78773 0.213403)
(15.5364 -1.72938 0.225455)
(15.6835 -0.4838 -0.197776)
(21.2471 0.488344 -0.258317)
(24.5543 1.34296 0.238729)
(18.7571 1.98981 0.0551076)
(15.9113 2.18958 -0.434777)
(22.5107 0.264819 -0.00033552)
(25.9656 -1.91755 0.531574)
(22.7655 -1.71448 -0.0348616)
(21.9121 -0.897821 -0.0213949)
(23.4802 -0.713029 0.125273)
(21.7133 -0.275096 0.0496225)
(-1.7561 1.53307 1.34921)
(-1.15349 0.869913 -1.47869)
(-6.25374 -11.5102 0.269886)
(-9.3746 -13.7533 0.687358)
(-18.0592 -24.6636 2.84472)
(-123.118 -23.3506 76.5593)
(0.731155 12.0918 -2.71986)
(-16.6122 10.0999 -0.560946)
(-17.8078 7.44594 -0.00574056)
(-18.1592 3.83447 -0.00303984)
(-19.8954 3.95731 -0.00502054)
(-17.9244 1.33258 -0.0047308)
(-15.7188 1.69794 -0.00267367)
(-16.438 1.43889 -0.00573458)
(-12.5173 0.987833 -0.0043876)
(-10.2621 -0.0411565 -0.809918)
(-6.7055 1.60691 0.433237)
(-1.31092 3.85122 0.603575)
(-2.74053 4.29943 -0.374985)
(-2.90547 0.468932 -0.209509)
(-1.03734 0.626976 0.347625)
(0.444681 0.295817 0.0969075)
(1.25169 -1.78034 -0.654263)
(0.157649 -0.637643 -0.183375)
(0.831893 -1.01304 0.0482204)
(2.58049 -2.48165 -0.225278)
(2.04505 -2.52415 -0.382636)
(1.30982 0.474281 -0.056071)
(1.69988 1.56077 0.0137532)
(1.96122 0.112332 0.483274)
(2.09841 1.77739 0.215096)
(1.43548 1.17328 0.165453)
(0.353303 -3.40221 -0.571888)
(-0.508152 -3.22748 -0.345071)
(0.480356 0.360005 0.00432366)
(5.83286 1.72586 -0.0797686)
(12.8105 -0.826216 0.00835621)
(16.8172 -2.63987 0.479978)
(17.0463 -1.91096 -0.148171)
(17.7236 -0.23586 -0.805633)
(22.0947 1.24802 0.306329)
(24.5309 0.126043 0.108513)
(20.1951 -0.695426 -0.0293192)
(16.0137 1.50676 -0.32118)
(19.0802 1.38812 0.0531433)
(23.8671 -1.50732 0.0971842)
(24.1765 -1.64586 -0.23259)
(23.7311 0.34945 0.145117)
(23.8079 1.14557 0.368982)
(21.0581 0.352025 0.00673094)
(-1.44299 -4.184 -0.221906)
(-11.2819 -2.25619 -0.119827)
(-11.5377 -4.68244 0.923517)
(-17.9174 1.58755 -1.70447)
(-20.9054 -7.04282 -7.71998)
(-7.68393 3.93972 30.5947)
(-7.54682 44.8891 -11.1072)
(-22.625 8.63846 1.56996)
(-24.2725 6.03635 1.59683)
(-22.2005 4.59231 -0.00482202)
(-21.9704 3.15883 -0.00591441)
(-22.1641 3.48016 -0.00586108)
(-15.7775 -0.603962 -0.00441817)
(-13.9127 -0.53543 -0.00404961)
(-13.7203 0.91261 -0.00242833)
(-9.14563 -0.308421 0.000917663)
(-2.38186 1.53711 0.256811)
(-0.623989 1.68051 -0.452618)
(-5.78746 -0.363435 0.138157)
(-5.41139 0.329576 -0.152363)
(-0.707145 1.18991 -0.418861)
(-0.724451 0.166511 -0.0710226)
(0.417798 -0.864756 -0.294319)
(1.51273 -0.461576 0.309041)
(0.458521 0.938539 0.0779116)
(0.63714 0.0655317 -0.154371)
(3.33707 -1.74837 0.500838)
(3.54453 0.377105 0.00154136)
(0.866576 -0.707032 0.374509)
(1.6374 -2.20268 0.406881)
(1.88114 -1.04721 -0.849938)
(-1.56979 -2.26476 -0.685769)
(-1.21784 -3.4466 -0.532382)
(2.93529 -2.43729 0.0308258)
(4.66402 1.09993 0.436341)
(5.03641 3.16819 0.226559)
(9.47456 0.458361 -0.361091)
(15.9751 -1.59457 0.0174809)
(18.5422 -0.78103 -0.0139812)
(19.6319 0.705438 -0.0915989)
(21.6965 1.15584 0.199846)
(22.1251 -1.37021 0.408925)
(20.4864 -3.32124 -0.139403)
(18.5128 -0.852594 -0.0236191)
(18.74 1.52038 0.2261)
(22.1767 0.0980929 -0.134934)
(25.0895 -0.59475 -0.167673)
(25.4004 1.28141 0.232691)
(23.4809 1.19708 0.0809044)
(19.8424 -0.306666 0.0178362)
(0.647711 -3.2612 -1.03623)
(-1.75802 -3.46223 -0.300946)
(-1.41781 6.95878 0.0536256)
(6.62227 4.52453 3.11628)
(-7.69399 30.0811 -5.52115)
(-37.0283 6.322 -22.6572)
(21.0383 91.9003 -11.2143)
(-21.0821 2.77731 2.41502)
(-22.8619 1.81552 -0.0021492)
(-21.7551 2.8043 -0.872905)
(-21.2826 0.782664 -0.00625476)
(-22.6327 1.44452 -0.00452143)
(-20.733 0.858175 -0.00532034)
(-14.5404 -0.672866 -0.00406296)
(-12.2367 1.23272 -0.00178341)
(-9.47811 1.71732 -0.00179541)
(-4.22164 1.49378 -0.00302557)
(-3.68886 -1.54016 -0.374867)
(-4.42662 -4.27808 -0.0205034)
(-0.96359 0.50544 -0.201647)
(-1.24368 1.512 0.362208)
(-2.12451 -0.118387 -0.000433024)
(0.46742 0.749882 0.26036)
(2.41177 0.196897 0.412401)
(1.48736 1.53196 -0.316491)
(-0.779499 2.10001 -0.498912)
(2.43888 0.345603 0.162815)
(2.60763 -0.590193 -0.00101298)
(-1.52526 -2.70194 0.324953)
(1.53996 -3.04544 -0.655202)
(2.01892 -2.14934 -0.347184)
(-1.56326 -2.87922 0.817002)
(0.140816 -1.46285 0.000493307)
(5.17825 -0.567316 0.00584995)
(7.48609 1.05027 0.0421922)
(5.02617 2.6333 -0.798707)
(6.85853 1.57404 -0.288228)
(15.2716 0.0346365 0.016058)
(19.922 0.567343 0.20869)
(20.1429 1.45017 0.258584)
(19.4967 0.316306 0.148229)
(18.9353 -2.75056 -0.224141)
(20.8474 -4.20319 -0.050909)
(22.0655 -2.06731 0.181021)
(20.2644 0.681637 0.405772)
(21.2241 0.671977 -0.361243)
(25.6588 0.749801 -0.0279589)
(25.9688 2.22628 0.0271716)
(21.8244 1.16983 -0.00147731)
(19.9455 -0.889131 -0.29791)
(-1.66973 5.04355 -1.01163)
(1.53677 -0.538719 0.371643)
(-1.56016 1.21693 1.29703)
(-4.10428 -4.70478 0.221371)
(-4.2353 -34.7923 5.84348)
(-28.6131 -25.1358 42.3705)
(31.1 -1.63373 55.7367)
(-25.5196 1.00794 -1.06413)
(-24.2479 -0.774596 -0.00141973)
(-23.494 -1.53294 0.789421)
(-23.6657 -1.42393 0.116721)
(-22.0705 -2.93789 -0.0505354)
(-18.425 0.0607411 -0.262442)
(-13.4401 0.0972786 -0.00169451)
(-10.7343 1.6108 0.120014)
(-8.82036 1.68193 0.303496)
(-6.45738 2.1496 -0.0027062)
(-7.83893 -0.572049 -0.0155722)
(-3.22206 -2.3553 -0.438878)
(1.8217 -0.72081 0.245398)
(-1.48991 -0.0574891 -0.00201773)
(-1.6733 -0.344278 -0.356347)
(0.811371 0.794721 -0.345751)
(2.49388 1.1744 0.246825)
(2.83805 1.27653 -0.48557)
(-0.847646 2.38729 0.00113072)
(-0.0240012 1.79271 0.200599)
(-0.265627 -1.0738 0.0619294)
(-2.19991 -1.83304 -0.820019)
(2.33 -1.17208 -0.309748)
(2.08696 -1.09015 0.400012)
(-0.70865 -0.876342 -0.0511655)
(1.67216 -0.512627 -0.500134)
(6.07824 0.629664 -0.000556129)
(8.66531 1.0884 0.133196)
(5.68842 1.52596 -0.00221635)
(6.22628 2.72305 0.515046)
(14.7194 1.86259 -0.000748351)
(20.3124 0.855609 -0.0236844)
(19.3158 0.861605 0.260814)
(16.4434 -0.684049 -0.0158184)
(16.4779 -3.00104 -0.745827)
(21.3444 -3.41765 0.101226)
(24.6194 -2.06353 0.675878)
(22.1603 -0.353712 -0.0637182)
(22.2615 0.839163 -0.0397512)
(27.0331 2.34611 0.305971)
(25.9223 2.9988 0.321458)
(19.5847 1.46616 -0.306087)
(19.4963 -0.109175 -0.0840129)
(-6.30741 1.30719 1.82125)
(-6.49445 0.918262 0.975518)
(-6.61834 -3.70715 -0.189289)
(-31.2539 0.00947519 -1.98499)
(-1.89252 10.0547 -20.0143)
(7.20136 12.8807 47.1883)
(13.0458 17.2374 -1.87263)
(-25.3286 -2.36766 -0.860274)
(-25.9859 -3.69343 -0.00631668)
(-22.5643 -4.5443 0.0544292)
(-23.04 -1.88718 -0.206893)
(-20.771 -0.934418 -0.00681169)
(-16.9424 1.28642 0.27143)
(-12.6009 1.47961 -0.00567889)
(-10.2573 0.352459 -0.459928)
(-8.80408 0.597203 -0.188265)
(-7.04259 0.669759 0.00270208)
(-9.31891 1.17882 0.27051)
(-4.60781 -0.223667 -0.0888588)
(1.90773 -2.21955 -0.270089)
(-0.773678 -1.77554 0.019219)
(-1.05698 -0.527611 -0.34563)
(2.36552 -0.184365 0.0039652)
(3.01432 1.75076 0.515712)
(3.00497 1.12295 0.330128)
(-0.136249 1.51976 0.0333306)
(-1.88988 1.97791 -0.195519)
(-1.9218 -0.451102 -0.312612)
(-1.64659 0.216866 -0.00277153)
(2.46789 1.40575 0.680562)
(2.38824 0.377469 0.425968)
(-0.840969 -0.287445 -0.298238)
(2.02441 -0.527441 -0.12027)
(7.17894 1.44667 0.00524017)
(8.6062 1.18121 0.258572)
(7.06987 0.182184 -0.00533113)
(7.27647 2.35276 0.129928)
(12.9371 2.68264 0.00435027)
(18.6721 0.583051 -0.104311)
(18.2167 -0.51603 0.211545)
(14.6675 -1.15341 -0.0749647)
(15.5204 -1.77489 -0.366427)
(22.0209 -1.36981 0.304565)
(25.8957 -0.900744 0.200584)
(23.8916 -0.74093 -0.295649)
(24.5987 0.784269 0.00475955)
(28.3566 2.52151 0.366777)
(24.8653 2.23049 0.06729)
(17.9364 1.34742 -1.15658)
(18.2535 1.1589 -0.0153859)
(-2.158 -4.01351 0.965367)
(-4.75593 3.0422 -1.05073)
(-2.69304 -0.53799 -1.3601)
(2.14555 0.451882 1.61846)
(9.55717 15.5266 13.3992)
(2.08837 -33.4703 -19.8925)
(-24.7108 -63.3391 -9.56367)
(-26.9937 -6.67945 -1.78891)
(-27.0252 -3.42645 -0.00263445)
(-21.2314 -4.02905 -0.0046995)
(-19.1557 -2.74752 -0.00488173)
(-18.1021 -1.22793 -0.00461922)
(-15.41 0.477446 -0.0038352)
(-14.6093 0.529935 -0.0028004)
(-11.8356 -2.8641 -0.00434876)
(-8.4238 -0.049016 -0.00339413)
(-5.72973 -0.99182 -0.00151837)
(-8.95769 -0.373355 -0.475828)
(-7.47077 1.77408 -0.122459)
(-0.115415 -2.01925 0.12245)
(0.625933 -2.39951 0.0528085)
(0.314517 -0.736905 -0.00119289)
(3.66124 -0.631078 0.115533)
(4.12513 1.016 0.0122072)
(2.55049 0.786482 -0.314728)
(0.221719 0.949321 -0.140915)
(-2.49024 1.45701 -0.0396733)
(-2.46201 0.228474 0.264889)
(0.122859 2.43643 0.529471)
(2.52954 2.95367 0.214972)
(-0.0278122 0.407804 0.0537582)
(-1.83877 -0.669415 -0.171307)
(3.84243 0.277176 0.109671)
(8.21159 1.75124 0.153683)
(7.0841 0.505645 -0.188617)
(7.1568 -1.2385 -0.17539)
(9.34977 0.766229 0.0901099)
(12.5045 2.80316 -0.0112767)
(16.3152 0.887395 0.0030377)
(17.146 -1.06479 0.271518)
(14.8698 -1.02141 -0.0900263)
(16.2084 0.422847 -0.523963)
(22.4374 1.07812 0.0342596)
(25.405 0.221949 0.231547)
(24.2684 -0.645982 -0.0307122)
(26.3398 0.490211 0.00790155)
(28.8385 0.910436 0.277711)
(24.454 -0.0235096 0.00275006)
(18.2468 0.579305 -0.897563)
(16.3598 1.41 0.319305)
(2.52449 6.26376 -0.561059)
(-2.17973 5.09862 0.0699492)
(-9.86178 3.41858 1.74066)
(-0.979552 3.88512 0.544256)
(-18.5114 -10.8226 -19.0736)
(-23.6295 -60.8724 -22.1211)
(76.685 -32.9315 -40.4548)
(-23.4961 -10.2118 0.478941)
(-22.6568 -4.57521 0.364891)
(-21.715 -1.28401 -0.00358202)
(-19.5393 -2.0481 -0.00465832)
(-16.74 -0.614131 -0.00472876)
(-14.7473 -1.50329 -0.00448003)
(-16.7822 -1.40257 -0.0048081)
(-10.9738 -1.68269 -0.00116232)
(-6.46827 -0.164616 0.000448877)
(-7.44623 -3.21271 0.703668)
(-5.85978 -3.09506 -0.847865)
(-6.67249 0.627548 0.63905)
(-3.30548 0.335804 0.17618)
(0.831693 -1.63703 -0.624842)
(1.15179 -1.10261 0.195926)
(4.55869 0.460899 0.173681)
(4.78407 -0.0198338 0.00143641)
(2.9223 0.778666 -0.213746)
(0.702339 0.911399 0.209888)
(-2.79305 0.486964 0.196011)
(-0.694077 0.610882 -0.0969447)
(1.75799 1.90125 -0.122003)
(-0.0719126 1.70066 0.258979)
(-2.1384 -0.606111 -0.175953)
(-1.00144 0.20274 -0.287631)
(5.05111 2.49106 0.173921)
(7.4617 1.59815 0.00518888)
(4.86881 -0.760599 -0.0361083)
(7.40023 -1.93352 0.148933)
(12.3287 -0.406077 0.120579)
(13.0843 1.87304 -0.189216)
(13.8373 1.2058 0.00627777)
(15.8331 -0.5111 -0.00915934)
(16.529 -0.464721 -0.0752862)
(18.1442 2.10695 0.0828922)
(21.7686 2.87865 0.270036)
(23.7411 0.574268 0.00824281)
(24.2299 -0.490285 0.00160432)
(26.5439 0.528493 0.00519214)
(27.7134 -0.622499 0.0279734)
(24.4538 -2.43196 -0.124568)
(19.7277 -1.21382 -0.0034292)
(15.762 0.256518 0.214466)
(-3.61253 5.9029 1.1181)
(-8.32687 2.5785 -2.41653)
(-4.19945 6.98629 -1.62421)
(-11.774 9.78061 0.0747043)
(-38.2902 0.713338 26.2255)
(-35.4164 20.8025 -15.2922)
(0.920937 -21.2126 5.74089)
(-9.19 -8.22922 0.401572)
(-15.8716 -3.99074 0.719036)
(-18.0794 -2.08957 -0.00384959)
(-18.3168 -1.10402 -0.00587213)
(-17.4246 -1.10215 -0.00414328)
(-16.3947 -3.73555 -0.00441647)
(-14.8341 -1.69837 -0.00257294)
(-10.286 0.160079 -0.000933233)
(-10.342 -2.08594 0.594274)
(-9.38896 -2.68479 1.30214)
(-4.15248 -2.06632 -0.80801)
(-3.18642 -1.55417 0.0199416)
(-2.94741 1.2306 0.0733983)
(-1.16877 -0.288936 -0.013523)
(2.93836 -0.159192 0.167637)
(5.01255 1.3634 0.10731)
(4.52443 -0.96025 -0.0453363)
(3.71425 -0.268403 -0.136362)
(-0.14307 0.0518817 0.279395)
(-2.86515 0.0787239 -0.462582)
(-0.693704 0.486932 -0.351314)
(1.48231 -0.422956 0.314522)
(-0.608128 0.00482204 0.116958)
(-1.89731 -0.549832 -0.407529)
(2.03394 1.18066 -0.126978)
(5.58303 3.93661 1.00667)
(4.14489 1.58772 0.0878141)
(2.67103 -1.73431 -0.421701)
(7.60308 -2.59922 0.188643)
(14.1091 -1.90793 0.218817)
(14.5162 -0.283446 -0.0540513)
(13.334 0.767409 -0.188956)
(15.06 -0.0184524 -0.0156554)
(18.1456 0.0612793 0.269868)
(20.3857 2.60545 0.274393)
(20.5183 3.67096 -0.0276885)
(21.1957 0.504595 -0.167139)
(24.2137 -0.785501 0.0031014)
(26.1722 0.490079 0.0479145)
(25.1375 -0.947322 0.00110351)
(23.7184 -3.35888 -0.00583143)
(21.61 -2.52951 0.224211)
(17.5522 -0.719062 -0.00117632)
(-1.63039 -5.82187 -2.27567)
(-0.843382 -3.42831 0.924255)
(-0.882235 4.85941 4.08069)
(0.291567 5.31288 1.93687)
(-51.742 22.4494 -48.1186)
(87.0169 87.4925 -14.3174)
(3.02189 3.96123 -1.21951)
(-8.32715 -0.348829 0.600814)
(-14.9927 -0.992665 -0.00318695)
(-18.109 -0.810467 -0.00470299)
(-18.3072 -0.80469 0.241764)
(-20.0333 -1.22855 -0.205933)
(-15.4875 -2.33924 -0.545495)
(-11.913 -0.84307 0.40137)
(-11.4636 -0.890325 0.0544708)
(-10.0225 -2.10875 0.501518)
(-7.42053 -0.557734 -0.00683408)
(-4.44582 -0.394823 -0.803563)
(-2.5487 -0.425223 0.2708)
(-1.72852 0.909375 0.00526038)
(-0.903378 1.27359 -0.250022)
(3.21903 1.45279 -0.204457)
(3.55288 0.753923 -0.00465437)
(2.74807 -1.29018 0.00645338)
(4.18701 -2.42054 0.396602)
(1.13586 -2.04952 0.268924)
(-2.24895 -0.286323 -0.229221)
(-1.32277 -0.0438676 0.0331192)
(1.15699 -0.976943 0.0864821)
(-0.231367 -0.173297 -0.042343)
(-0.665526 0.600597 -0.3164)
(4.60793 1.79064 0.121863)
(5.5539 2.90145 0.822322)
(0.371926 0.749976 -0.138652)
(-0.362036 -1.83089 -0.170963)
(7.18489 -2.60782 0.426659)
(15.2245 -2.69451 0.162498)
(16.4276 -1.95045 -0.081547)
(14.1664 -0.445237 0.198263)
(14.9515 -0.187184 0.0433564)
(19.8117 0.0538051 -0.00165794)
(22.6546 2.29246 0.0272234)
(19.1377 3.38977 -0.0288655)
(18.1727 0.887023 -0.212617)