/*--------------------------------*- C++ -*----------------------------------*\
| =========                 |                                                 |
| \\      /  F ield         | OpenFOAM: The Open Source CFD Toolbox           |
|  \\    /   O peration     | Version:  5.0                                   |
|   \\  /    A nd           | Web:      www.OpenFOAM.org                      |
|    \\/     M anipulation  |                                                 |
\*---------------------------------------------------------------------------*/
FoamFile
{
    version     2.0;
    format      ascii;
    class       surfaceVectorField;
    location    "0.3";
    object      ddtCorrDdt0(Uf);
}
// * * * * * * * * * * * * * * * * * * * * * * * * * * * * * * * * * * * * * //

dimensions      [0 1 -2 0 0 0 0];

internalField   nonuniform List<vector> 
12667
(
(-0.00055843 -0.00527694 -0.00196617)
(0.262415 0.0047363 -0.00386038)
(0.268089 -0.00523795 0.00105862)
(0.0100549 -0.00622521 -0.000243734)
(0.524273 0.00269642 -0.000178265)
(0.537325 -0.00525498 -0.00051566)
(0.00436674 -0.0108014 0.000527756)
(0.522579 -0.00546065 4.73075e-05)
(0.540861 -0.0073607 -0.00167465)
(0.0157744 -0.0412927 0.00134644)
(0.529348 -0.0192672 0.00064804)
(0.559563 -0.014494 0.00477321)
(-0.00236184 -0.0560997 0.000291492)
(0.0134417 -0.0476723 -0.000831291)
(-0.00154747 -0.0727813 0.00296724)
(0.559608 -0.041671 0.000509121)
(0.701218 -0.059514 0.00404693)
(-0.00159083 -0.204706 -0.043295)
(-0.00396315 0.025708 0.0188163)
(-0.00202531 -0.147694 0.015029)
(-0.003247 -0.0220382 0.0370796)
(-0.287188 -0.037302 0.045248)
(-0.0367183 -0.0132354 -0.0216766)
(0.147239 -0.0476999 -0.458289)
(0.257445 -0.0348016 -0.00409538)
(-0.00397373 0.0142047 -0.000287019)
(-0.00911643 0.0157138 0.000899371)
(0.271018 0.00559133 0.00141893)
(0.437759 0.0305283 0.00205807)
(-0.0141052 0.0400903 0.000780298)
(-0.00396418 0.00422652 -0.00222916)
(-0.0136349 0.089591 5.18873e-05)
(-0.018376 0.00282448 -0.000595645)
(0.447749 0.00757532 -0.00186948)
(0.564576 0.00413217 0.00120408)
(-0.0144148 0.00736846 -0.0018904)
(-0.0126588 0.00630329 -0.00190993)
(-0.014856 0.00737478 -0.00238648)
(-0.0129375 0.00688973 -0.00282676)
(-0.021014 0.00172529 0.00033242)
(0.408776 0.00528921 0.000787856)
(0.521974 0.00126482 8.97618e-05)
(-0.0218364 0.0018283 6.10686e-05)
(0.415043 0.00535103 0.000242126)
(0.529136 0.00190706 -0.000685036)
(-0.0233312 0.00146246 -5.04404e-05)
(0.414571 0.00480254 -1.47004e-05)
(0.529002 0.001499 0.00127781)
(-0.0230226 0.00218739 2.13173e-05)
(0.416309 0.00327788 -3.0551e-05)
(0.530512 0.00123832 0.000541043)
(-0.0151357 0.00232167 3.88985e-05)
(0.419059 0.00763938 0.00012827)
(0.533808 0.00282298 -0.00225299)
(-0.0159317 0.000715744 0.000138401)
(0.419646 0.00383005 -0.000160096)
(0.535588 0.00164263 0.00151508)
(-0.012135 -8.80855e-05 0.000215728)
(0.420781 0.000960479 0.000340873)
(0.535178 -0.000217588 0.000128922)
(-0.0113858 -5.23812e-05 0.000150141)
(0.421817 0.00895229 1.05332e-05)
(0.535059 -0.000153214 -0.00210826)
(-0.00579766 0.000267601 0.000145789)
(0.423595 0.000156902 0.000200298)
(0.536457 -0.000100265 0.000167935)
(-0.00349148 0.000882405 0.000101665)
(0.426247 0.00369249 0.000103403)
(0.538559 0.000427992 0.0011173)
(7.84729e-05 0.000662382 -8.8773e-06)
(0.425514 0.0179833 -0.000121768)
(0.537702 0.000686169 0.000480578)
(-0.00186504 0.000209723 -0.000168325)
(0.424377 0.00106684 -2.35762e-05)
(0.535863 -3.8726e-05 -0.00121407)
(0.000653486 0.000384189 -0.000184244)
(0.425109 0.00141582 -0.000199729)
(0.536272 -6.90859e-05 -0.000186615)
(0.00507337 0.000188129 -4.64656e-05)
(0.426275 -0.00113737 -0.000142179)
(0.537282 0.000451733 0.00192274)
(-0.000902283 -0.000409312 0.000164665)
(0.425383 -0.00754059 5.28057e-05)
(0.536297 -6.55318e-05 0.000390888)
(0.00255433 -0.000862813 0.000259819)
(0.424708 0.00244383 0.000294822)
(0.535531 -0.000600088 -0.0013999)
(0.0044547 -0.00117253 6.2639e-05)
(0.425188 -0.00633781 0.000146317)
(0.535406 -0.000676557 0.000435266)
(0.00200152 -0.000784744 -0.000200227)
(0.423916 -0.0122072 -2.57436e-05)
(0.533482 -0.000641318 0.000607013)
(-0.00257482 -0.000119543 -0.000201201)
(0.421256 -0.00996789 -0.000124957)
(0.530624 7.60089e-05 -0.000186823)
(-0.000630314 1.42332e-05 6.59994e-05)
(0.420053 7.31334e-05 -7.67545e-05)
(0.529418 0.000155772 0.000398635)
(0.00417225 -0.000282462 0.000176679)
(0.419914 0.00913102 6.76705e-05)
(0.528593 -0.000173952 -0.00132613)
(-0.000603288 -0.000314502 1.3791e-05)
(0.417865 0.00153892 4.81055e-05)
(0.525849 -0.000691278 -0.00103168)
(0.00262324 8.0774e-05 0.000141896)
(0.417043 0.0212912 -7.57653e-05)
(0.524696 -0.000535464 0.000599869)
(0.00922263 -0.000301595 0.000285879)
(0.418657 0.0123797 0.000158973)
(0.526545 -0.000138139 0.00114791)
(0.000970125 -0.00114202 1.68659e-05)
(0.417414 -0.00900316 1.07915e-05)
(0.525218 -0.000982657 0.00119174)
(-0.00497201 -0.000812797 1.31345e-05)
(0.41398 -0.0105306 -5.56885e-05)
(0.520787 -0.00132831 -0.000247572)
(0.00152583 7.01112e-05 0.000159087)
(0.413645 -0.000384203 0.000128097)
(0.520105 -5.91833e-05 -0.000883579)
(0.0144773 -0.000454234 4.33153e-05)
(0.417183 0.00248114 5.28194e-05)
(0.523939 0.000601494 -0.000307417)
(0.0218378 -0.00148961 -9.37697e-05)
(0.421302 0.00108675 5.81623e-06)
(0.527097 -0.00102618 -0.000749768)
(0.0203133 -0.000804401 -0.000140734)
(0.42246 -0.00709446 -0.000127958)
(0.526113 -0.00136834 0.000578406)
(0.0175431 0.000384888 -3.17979e-05)
(0.420669 -0.0147551 -3.61546e-05)
(0.523896 0.000552123 0.00144272)
(0.0205463 0.000646123 0.000101436)
(0.420457 -0.00641552 0.000196768)
(0.524399 0.000940617 -0.000754123)
(0.0308567 0.000753092 7.52918e-05)
(0.424384 0.00144112 0.000172316)
(0.528305 0.000664409 -0.00130929)
(0.0286791 0.000682852 -6.7349e-05)
(0.426193 0.000618367 -0.000206158)
(0.530059 0.000751447 0.00114256)
(0.0171469 0.000350478 -1.84725e-05)
(0.421592 0.00722658 -0.00012985)
(0.525228 0.000112939 0.000960668)
(0.0213846 -0.000126813 7.72249e-05)
(0.418307 0.0128741 2.65374e-05)
(0.52165 -0.00022882 -0.00120804)
(0.0326895 -0.000894049 -1.16159e-05)
(0.421343 0.0034938 -2.44564e-06)
(0.524565 -0.000683745 -0.000104729)
(0.0301449 -0.00116914 6.92842e-06)
(0.423857 -0.00707062 -6.30883e-05)
(0.526383 -0.00126638 0.00158966)
(0.0250655 -0.000828694 0.000294667)
(0.42211 -0.00605434 5.83555e-05)
(0.523959 -0.000905901 -0.000163381)
(0.027984 -0.00079018 0.000425433)
(0.420655 0.000693138 0.000375993)
(0.522474 -0.000598212 -0.000942632)
(0.0289337 -0.000828546 0.000211257)
(0.420166 0.0049716 0.000246962)
(0.522001 -0.000981455 0.000275725)
(0.417979 0.00455437 2.60315e-05)
(0.519128 -0.000786057 0.000347053)
(-0.00300236 -0.00447505 -0.00207369)
(0.260694 -0.00103332 -0.00399247)
(0.266317 -0.00319424 0.00147098)
(0.00045644 -0.0115893 0.000112701)
(0.515534 -0.000753767 -5.16478e-05)
(0.529283 -0.00593306 -0.00209978)
(-0.0123267 -0.0238492 0.000167392)
(0.50738 -0.0193103 0.000125471)
(0.521772 -0.0173462 0.00107812)
(-0.00673093 -0.0419397 0.00139423)
(0.4963 -0.0097384 -0.000233709)
(0.518759 -0.0304385 -0.000931043)
(-0.00787745 -0.0527184 0.00115431)
(-0.00684318 -0.0454056 -0.00146236)
(-0.00757095 -0.0447575 0.00111996)
(0.474649 -0.020786 0.000940338)
(-0.0237932 -0.0421589 0.0284328)
(0.471328 -0.0253218 0.00198297)
(0.529404 -0.0503064 0.010592)
(3.39997 0.00917347 -0.0917453)
(0.0411701 -0.10252 -0.122768)
(-0.20616 -0.126836 0.142126)
(2.51033 -0.0518796 -0.0909138)
(-7.05943 -0.0780025 0.0471563)
(0.00164258 0.0506136 -0.000771471)
(0.272794 0.00626513 0.00100169)
(-0.00679986 -0.00423672 0.000201091)
(0.304305 0.0200915 0.000271259)
(0.436171 -0.0119431 0.000570807)
(0.0373928 0.0435865 -0.00245405)
(0.00075293 0.142813 -0.00190417)
(0.0330631 0.111194 -0.0104442)
(-0.0217064 0.00482698 -0.00048685)
(0.450485 0.0167435 -0.00183074)
(0.57601 0.00729335 0.000121413)
(-0.0150445 0.000665017 -0.00233708)
(-0.0185772 0.0136158 -0.0018655)
(-0.0154718 -0.0103654 -0.00329742)
(-0.0188369 0.0115311 -0.0026393)
(-0.0210846 0.00064636 0.000697741)
(0.40351 0.0126621 0.0012791)
(0.521342 0.000246835 -0.000271703)
(-0.02245 8.94626e-05 0.000166441)
(0.414368 0.0037264 0.000165364)
(0.530181 -0.00167618 -0.000924528)
(-0.0252297 0.00014492 5.19423e-06)
(0.414651 0.00470525 9.43354e-05)
(0.529453 -0.00026472 0.000307157)
(-0.0177042 -0.000128109 7.63503e-05)
(0.415978 -0.000278059 0.000120909)
(0.531762 -0.000795134 0.000313272)
(-0.0198867 8.25321e-05 -7.06309e-05)
(0.419324 -0.00365828 0.00023413)
(0.533641 -0.000302729 -2.82347e-05)
(-0.019394 -6.92616e-05 4.22131e-05)
(0.419464 -0.000250503 -0.000191614)
(0.532501 -0.000251187 0.00195722)
(-0.0103753 -0.000464096 0.000135785)
(0.420296 0.00144305 0.000231324)
(0.534197 -0.000415087 -0.00202325)
(-0.0140322 -0.000131061 6.06293e-05)
(0.422239 -0.00266847 -6.34873e-05)
(0.535608 -0.000817545 -0.000771619)
(-0.00177468 0.000795258 0.000157943)
(0.424761 0.00587533 0.000119227)
(0.536848 0.000271693 0.0010657)
(-0.00101975 0.000803423 -0.000119957)
(0.426268 0.0135351 -0.000189647)
(0.538855 0.000435207 0.000766403)
(-0.00533858 3.21395e-05 -0.000136499)
(0.424562 0.017116 -0.000337284)
(0.537467 -0.000477646 -0.000178415)
(-0.00150495 0.000250997 -5.49241e-05)
(0.424663 -0.000557267 7.44333e-06)
(0.536104 -0.000716231 -0.000662062)
(-0.000779373 0.000809076 -0.000157684)
(0.425804 -0.00118924 3.7811e-06)
(0.536602 0.000910897 0.00184272)
(0.00227421 0.000470542 -4.29704e-05)
(0.425847 0.0012844 8.05714e-05)
(0.537125 0.000731759 0.00126769)
(0.00108061 0.000561464 0.000182886)
(0.425491 -0.013092 9.66938e-05)
(0.535745 0.000724933 -0.00196193)
(-0.000680592 0.000672943 0.000181367)
(0.424836 -0.0141548 0.000187152)
(0.53516 0.00119004 -0.000911609)
(0.0026683 -0.000163612 5.79885e-05)
(0.424134 0.000852577 0.000153419)
(0.535522 0.000881781 0.000705084)
(0.00384648 -0.000995961 4.95579e-05)
(0.422868 -0.00323966 0.000177945)
(0.533755 -0.000322388 -0.000627602)
(0.00150389 -0.000586423 -5.26085e-07)
(0.421763 -0.008411 8.96224e-05)
(0.530674 -0.000768783 -0.000549966)
(0.00187406 -0.000670449 -7.51289e-05)
(0.419948 0.000924202 -0.000124815)
(0.529031 -3.64495e-05 -0.000138658)
(0.00250855 -0.00169608 -6.08964e-05)
(0.418639 0.0181324 -0.000150848)
(0.528409 -0.0018536 -3.17394e-05)
(0.00244342 -0.000948258 -4.14118e-05)
(0.418808 0.00811547 2.66841e-05)
(0.525838 -0.00235916 0.00144334)
(0.00251557 0.00019275 -5.8762e-05)
(0.418474 0.00086961 -4.89582e-05)
(0.524874 -6.67229e-05 0.00228364)
(0.00153029 -0.000904935 -0.000116068)
(0.417287 -0.00218915 -0.000168129)
(0.525832 0.000213914 0.000906042)
(8.17822e-05 -0.00183126 -6.17422e-05)
(0.416255 -0.0163838 -7.10841e-05)
(0.524404 -0.0016479 -0.000802938)
(-0.00105881 -0.000477647 5.92166e-05)
(0.415667 -0.0136954 0.000165578)
(0.522058 -0.00121549 -0.00141289)
(0.00262005 0.00102207 2.18528e-05)
(0.415515 0.00410989 2.8391e-06)
(0.521423 0.00063051 3.65912e-05)
(0.0117678 0.000377539 1.53349e-05)
(0.416376 0.00885016 -7.12816e-05)
(0.522777 0.00122591 -0.000361849)
(0.0192817 -0.00113572 -2.83309e-05)
(0.41941 -0.000617521 -2.38056e-05)
(0.52575 -0.000608337 -0.000234802)
(0.0215651 -0.00100409 -2.3407e-05)
(0.42262 -0.00332495 1.54256e-05)
(0.527803 -0.0013335 0.00123492)
(0.0199277 0.000339266 0.000192339)
(0.422342 -0.00510861 8.43743e-05)
(0.525907 5.56094e-05 -0.000557562)
(0.0231002 0.00126563 0.000267655)
(0.42161 -0.00187366 0.000278917)
(0.524512 0.00136645 -0.00267032)
(0.0304631 0.000661174 -0.000109018)
(0.423625 0.00486526 0.000182162)
(0.527531 0.00153351 0.000582629)
(0.0291544 -0.000794258 -0.000268683)
(0.424374 0.00154957 -0.0002101)
(0.52864 -0.000197817 0.00313053)
(0.0197268 -0.000708887 -8.48886e-05)
(0.421704 -0.00517494 -8.54044e-05)
(0.524673 -0.00152325 0.000293736)
(0.0190094 0.00031078 -5.31242e-05)
(0.419585 0.000666775 -4.97301e-05)
(0.521884 -0.000282241 -0.00140942)
(0.0275094 -6.5699e-05 -5.38995e-05)
(0.420872 0.00687499 9.37449e-06)
(0.523846 0.000361987 0.000302218)
(0.0303472 -0.000634595 -1.16983e-05)
(0.423147 -0.00114867 3.81424e-05)
(0.525987 -0.000654643 0.000131937)
(0.027992 8.22275e-05 0.000139585)
(0.423005 -0.00776333 0.000137574)
(0.524763 -0.000313448 -0.000581695)
(0.0293621 0.000693701 0.000197561)
(0.421417 -0.000791813 0.000166763)
(0.522863 0.000706964 0.000665417)
(0.0281781 0.000275167 6.18038e-05)
(0.419644 0.00363404 3.30274e-05)
(0.521528 0.000595282 0.000860637)
(0.417638 0.000764635 1.1848e-05)
(0.519929 -0.000195759 0.000126639)
(-0.00231842 -0.00330708 -0.00197174)
(0.260585 -0.0075334 -0.00420834)
(0.264717 -0.00335631 0.000168784)
(-0.0205886 -0.00452732 -3.89361e-05)
(0.513976 -0.00531902 0.000194855)
(0.519787 -0.00332537 -1.50455e-05)
(-0.0016072 -0.00506118 -0.000275511)
(0.506951 0.00875321 -8.34554e-05)
(0.510184 -0.00570104 -0.000347066)
(-0.0489927 -0.0168354 -0.00313563)
(0.498394 0.0134108 0.000491288)
(0.492617 -0.00400738 -0.00241517)
(-0.0276215 0.0214107 0.00196242)
(-0.0464958 -0.0147264 -0.0053639)
(-0.0281399 0.016266 0.00309785)
(0.443064 -0.0529828 -0.00136939)
(0.00405035 -0.0330828 0.000914135)
(0.420884 0.0327698 -0.000717364)
(0.461436 -0.0214781 -0.0117391)
(0.537387 -0.233692 0.0134571)
(-0.0923913 -0.121455 0.0049023)
(0.263877 -0.36361 -0.0240991)
(0.288671 0.108449 0.0119255)
(0.733243 -0.195181 -0.061227)
(0.033661 0.205523 -0.00827319)
(0.251392 0.0503784 -0.00898234)
(-0.0434773 0.0484619 -0.00929649)
(0.291605 0.113014 0.00568275)
(0.0225674 0.0905538 0.54043)
(0.025391 0.439543 -0.0129503)
(0.0516508 0.254888 0.684316)
(0.434458 -0.0520055 -0.0121969)
(0.436094 -0.0379706 -0.0176424)
(0.368121 0.117392 0.0093439)
(0.365371 0.117844 -0.00104778)
(-0.0262488 -0.00997823 -6.58088e-05)
(0.436874 0.00366003 -0.000802037)
(0.573529 -0.0198955 0.00211525)
(-0.0283323 0.00013165 -0.00232044)
(-0.0468688 -0.0113364 -0.00183152)
(-0.0274783 -0.00935951 -0.00443294)
(-0.0431472 -0.0205113 -0.00498581)
(-0.0316663 -0.00535446 0.000747091)
(0.409174 0.00186007 0.000685972)
(0.510624 -0.00926706 0.00448713)
(-0.0213629 -0.0037358 9.32816e-05)
(0.416426 0.007131 3.30735e-05)
(0.528546 -0.00715327 0.000158306)
(-0.031237 -0.00170337 0.000210041)
(0.417216 0.00282483 0.000157203)
(0.530127 -0.00440281 -0.000618695)
(-0.0218568 -0.00162133 0.000278652)
(0.416088 0.00864376 -3.40092e-05)
(0.530484 -0.00172739 -0.000346243)
(-0.0158462 -0.00238371 0.000113286)
(0.418382 0.00204656 9.53549e-05)
(0.534497 -0.00318837 -0.00100703)
(-0.0173458 -0.00117173 -2.6399e-06)
(0.420989 -0.00109657 -8.12353e-06)
(0.535467 -0.002489 0.000111589)
(-0.0153845 -0.000443687 3.21466e-05)
(0.421206 0.000727409 0.000279919)
(0.53449 -0.000518491 -0.000194995)
(-0.0063547 -7.32156e-05 -4.94853e-06)
(0.422705 0.00179089 4.5105e-05)
(0.535932 -0.000731262 0.00121484)
(0.00101972 0.000619593 -0.000228264)
(0.425631 -8.54742e-05 -7.49626e-05)
(0.538041 0.000255578 0.00106184)
(-0.00219602 2.68768e-05 -0.000406927)
(0.425531 -0.00470607 -0.000321354)
(0.537654 0.000450986 -0.000285106)
(-0.0114271 -0.000584706 -0.000193453)
(0.423804 -0.0155599 -0.000119688)
(0.536294 -0.000767184 0.00163849)
(-0.00123094 0.000126013 6.61497e-05)
(0.425552 0.00108342 4.30695e-05)
(0.537621 -0.000705823 -0.000415356)
(-0.000325897 0.000431417 0.000242012)
(0.426183 0.00687577 -5.31572e-06)
(0.538073 0.00060555 -0.00156083)
(-0.00142231 -0.000257234 0.00022023)
(0.424989 -5.83639e-05 0.000142778)
(0.537037 7.51909e-05 -0.00125179)
(0.00250363 -0.0002742 0.000100931)
(0.42547 0.00908045 0.000160074)
(0.536853 -0.000568401 -0.00115723)
(0.00133324 -4.20724e-05 0.000159215)
(0.425125 0.000734387 -6.00703e-05)
(0.535702 0.000168827 0.00161797)
(4.9154e-05 -0.000370519 0.000273368)
(0.423726 0.0149537 0.000207039)
(0.533499 -0.000445006 -0.000142187)
(0.00181184 -0.00108168 0.000218037)
(0.421983 0.00412999 0.000200739)
(0.531399 -0.000817809 -0.000316328)
(0.00658588 -0.000903028 -3.45985e-05)
(0.421989 -0.000931576 6.96272e-05)
(0.530966 -0.00158827 0.00115641)
(0.0023224 -0.000709053 -0.000200526)
(0.42019 0.00597027 -0.000227324)
(0.528063 -0.000464354 5.90183e-05)
(7.78228e-05 -0.0014172 -6.33234e-05)
(0.417755 -0.00764374 -4.11829e-05)
(0.525707 -0.00138901 0.00177801)
(0.00425174 -0.000447887 1.91615e-05)
(0.420021 -0.0139063 0.000123921)
(0.528101 -0.00160524 0.00123393)
(0.000498326 0.000360246 -0.000158288)
(0.419478 -0.0082509 2.63143e-05)
(0.527924 0.000948938 -0.00123524)
(-0.00392162 -0.000947214 -0.000123176)
(0.415643 -0.00728402 3.17433e-05)
(0.524575 0.000291609 -0.00128765)
(0.0015319 -0.00168899 0.000156162)
(0.415323 -0.0027323 0.000110202)
(0.523426 -0.00146913 -0.00186082)
(0.00587963 -0.000454554 0.000109251)
(0.417208 -0.000373361 3.58698e-05)
(0.52362 -0.00127085 -5.22743e-05)
(0.00551448 0.00120405 -9.02722e-05)
(0.417588 0.00264177 -0.00018762)
(0.523149 0.000459159 0.00210366)
(0.00694446 0.000917349 -0.000110437)
(0.416021 0.00741963 -0.000183296)
(0.522391 0.00141361 0.000353122)
(0.0162459 -0.000714332 1.99387e-05)
(0.417375 0.00184817 3.58667e-05)
(0.523893 -0.000101547 -0.00110875)
(0.0223623 -0.00122537 0.000123186)
(0.421982 -0.00210528 0.0001796)
(0.526929 -0.00138621 3.54957e-07)
(0.0226134 -0.000315305 0.000170892)
(0.42348 0.00113349 0.000118692)
(0.527257 -0.0010073 -0.000119085)
(0.0251662 0.000593795 0.000193454)
(0.422747 0.006976 0.000152279)
(0.526235 0.000257873 -0.000512863)
(0.0276385 -0.000111707 8.12002e-05)
(0.42274 0.00509392 0.000130728)
(0.52634 0.000715516 0.00121826)
(0.0261315 -0.0015878 -2.68597e-05)
(0.422527 -0.00662818 6.80901e-07)
(0.526239 -0.000928062 0.00145679)
(0.023494 -0.00112388 -5.02569e-05)
(0.422284 -0.0133789 -1.37478e-05)
(0.525135 -0.00176547 -0.00123961)
(0.0213923 0.000610901 1.27505e-05)
(0.421751 -0.0072089 -9.16441e-05)
(0.524017 2.18566e-05 -0.000581459)
(0.0241833 0.000805392 0.000101408)
(0.421113 0.0033008 0.000124872)
(0.524101 0.00129826 0.0012858)
(0.0294123 0.000147842 0.000187384)
(0.422325 0.00232394 0.000132488)
(0.525538 0.000347723 -0.000446602)
(0.0310922 0.000892119 0.000164743)
(0.423934 -0.000412818 0.000248374)
(0.525658 0.00015102 -0.000860836)
(0.0302836 0.00177412 2.2698e-06)
(0.422516 0.00281094 7.30288e-05)
(0.523606 0.00174035 0.000980834)
(0.0263675 0.00112771 -1.6922e-05)
(0.418836 -0.000175961 6.60617e-05)
(0.520879 0.00182594 0.00065359)
(0.416231 -0.00538377 0.000117427)
(0.518628 0.000560812 -0.000147445)
(0.00157156 0.000312339 -0.00204322)
(0.261331 0.000807779 -0.00425496)
(0.266334 -0.000195666 -0.00127422)
(-0.00544196 0.00514777 0.000150428)
(0.519974 -0.00340556 0.000286359)
(0.526463 0.00112348 -0.000315724)
(0.00228912 0.0125771 0.000683154)
(0.516514 0.00603056 0.000202159)
(0.521003 0.0095105 -6.2695e-05)
(0.0106191 0.0380479 0.000553547)
(0.519636 -0.00354983 0.000852744)
(0.522827 0.0162818 0.0045234)
(0.0120562 0.0295746 0.000241305)
(0.0106463 0.0382113 -0.00257693)
(0.0124167 0.0348017 -0.000518154)
(0.435376 0.0479701 0.00164159)
(-0.0246001 0.0634877 0.0010322)
(0.468586 0.0158019 -5.80824e-05)
(0.493161 0.049311 -0.000898434)
(0.323225 -0.00562022 0.00187188)
(-0.023739 0.136859 -0.00453544)
(-0.0384018 0.229531 -0.000259147)
(0.44993 0.0266898 0.00183816)
(0.477188 0.192146 -0.0203108)
(-0.0280883 0.00639298 0.201789)
(0.367381 0.142573 -0.0227506)
(0.286062 0.0777707 -0.004499)
(0.5213 -0.0233375 -0.00122454)
(0.0683707 -0.0209218 -0.00191249)
(-0.0288118 -0.0295344 -5.07447e-05)
(0.441448 0.00116598 0.000365586)
(0.542615 -0.0539476 0.00356707)
(-0.0200307 0.011779 -0.000919893)
(-0.0180714 -0.0164671 0.00146669)
(-0.0203081 0.0504888 -0.000503837)
(-0.0178092 -0.0172 0.000832815)
(-0.0251561 -0.0129257 -2.78319e-05)
(0.43036 0.00236709 3.77132e-05)
(0.536933 -0.0220283 0.000719308)
(-0.0267516 -0.00723067 9.69546e-05)
(0.423581 -0.000735243 9.20886e-05)
(0.536343 -0.0119269 -0.00253697)
(-0.0242001 -0.00402972 -8.6785e-05)
(0.421241 -0.00102782 -0.000105824)
(0.536292 -0.00734167 -0.000379567)
(-0.0299508 -0.0019733 -0.000217349)
(0.418675 -0.00537472 1.89403e-05)
(0.533303 -0.00349406 0.00223092)
(-0.0196727 -0.00172955 -2.60212e-05)
(0.418697 9.27172e-05 4.5893e-05)
(0.532714 -0.00217859 0.000921641)
(-0.015055 -0.00105671 0.000274342)
(0.421836 -0.000546093 5.29468e-05)
(0.535856 -0.00233325 -0.000484383)
(-0.0141375 0.000186232 0.000292954)
(0.422759 0.00223926 0.0003007)
(0.536398 -0.000628618 -0.00179874)
(-0.00839631 0.000749759 -2.48702e-05)
(0.423414 0.002299 7.60553e-05)
(0.536579 0.000176739 6.89678e-05)
(-0.00153713 0.000229403 -0.000167974)
(0.424979 0.00355795 -6.98104e-05)
(0.538336 0.000718082 -0.000127851)
(-0.00689273 -0.00121565 -3.41802e-05)
(0.423717 -0.0020859 -1.788e-05)
(0.537585 -0.000248971 -0.000352284)
(-0.00325652 -0.000870636 0.000116782)
(0.424234 -0.00719405 5.86914e-05)
(0.536029 -0.00128074 -0.000315271)
(0.00117386 0.00028087 -2.83804e-05)
(0.426984 0.00164711 4.49584e-05)
(0.537821 0.000198946 -0.00104195)
(-0.00390655 -0.000144017 -0.000104596)
(0.425655 0.000751139 -0.000474483)
(0.537578 0.000121153 0.00169631)
(-0.000826323 -0.000553778 8.26163e-05)
(0.424485 0.000395499 4.92541e-05)
(0.535662 -0.000796223 0.000387225)
(0.00219523 -0.000742503 -8.57129e-07)
(0.425239 0.0041694 0.000198944)
(0.535864 -0.000775557 0.00063825)
(0.00394563 -0.000873858 -1.23313e-05)
(0.424972 -0.000882711 -0.000108592)
(0.535313 -0.00135041 0.00246828)
(7.42555e-05 -0.000518108 0.000134412)
(0.424182 0.00188784 8.0841e-05)
(0.534295 -0.00132828 -0.00156874)
(-0.0018313 -0.00060984 5.23709e-05)
(0.421879 0.00969915 -6.30726e-06)
(0.532334 -0.00100689 -0.00136697)
(0.00793368 -0.000530117 -0.000123005)
(0.422094 0.0123149 -0.00017727)
(0.531119 -0.00131575 0.000321267)
(-0.00125184 -3.49166e-05 -6.80404e-05)
(0.420806 -0.00583655 -8.0441e-05)
(0.52928 -0.000231855 0.000701205)
(-0.00196497 -1.75174e-05 0.000146009)
(0.417772 -0.0129909 0.000184506)
(0.526986 0.000504319 0.000638698)
(0.00608163 0.000117479 0.000131104)
(0.42018 -0.00389448 0.000215642)
(0.528759 0.000314016 -0.00244756)
(-0.000970264 -0.000183903 0.000216344)
(0.419087 -0.0036373 -7.61029e-05)
(0.527231 0.000736917 -0.000677314)
(-0.00270577 -0.000832901 0.000265097)
(0.414823 -0.00409436 0.000229375)
(0.522788 -0.000414168 0.00161097)
(0.00316923 -0.000713847 -1.00663e-05)
(0.415469 0.00437738 0.000213525)
(0.522435 -0.000861532 -0.000134079)
(0.00959755 0.000298349 -0.000260931)
(0.418475 0.000756811 -0.000125043)
(0.524463 -0.000447099 0.00119107)
(0.008837 0.00146684 -0.000280644)
(0.419051 -0.00456963 -0.000190386)
(0.524782 0.0011202 0.000906426)
(0.00358752 0.00119711 -3.70601e-05)
(0.415688 0.00210151 -0.000142897)
(0.522086 0.00160746 -0.00156981)
(0.0130688 -0.000185683 0.000195483)
(0.41565 0.0026202 0.000141675)
(0.522258 0.000298388 -0.00124113)
(0.023926 -0.00084339 0.000175125)
(0.421164 0.00208283 0.000186103)
(0.52667 -0.00113528 -0.000144848)
(0.0243787 -0.000323942 0.000100069)
(0.424136 0.0115021 8.8046e-05)
(0.527964 -0.00111056 0.000243602)
(0.0245905 0.0001166 8.95601e-05)
(0.423301 0.0121143 -2.47639e-06)
(0.526668 -0.000263207 0.000735031)
(0.0228256 -0.000687851 5.02488e-05)
(0.421733 -0.00188964 0.000133407)
(0.526045 3.15831e-05 0.000734046)
(0.0230692 -0.00176723 1.37972e-05)
(0.421175 -0.0100088 2.67891e-05)
(0.525535 -0.00115358 -0.000727342)
(0.0274365 -0.00112724 -5.51112e-05)
(0.423077 -0.0113859 9.33769e-06)
(0.525858 -0.00144832 -0.000901647)
(0.0259971 0.000532724 2.04111e-05)
(0.423817 -0.00993864 6.26048e-05)
(0.525709 0.000303428 0.00117735)
(0.0230605 0.000796327 0.00015595)
(0.421439 -0.00343928 0.000146004)
(0.52425 0.00148152 0.00109675)
(0.0284157 0.000120542 0.000193443)
(0.421482 0.000751556 0.000210915)
(0.52455 0.000317687 -0.00118798)
(0.0338478 0.00064404 0.000156714)
(0.424591 0.00522062 0.000175063)
(0.526499 -0.000278741 -0.000514711)
(0.0290177 0.00145253 0.000136823)
(0.423528 0.0124517 0.000130231)
(0.524951 0.0011025 0.00105168)
(0.0238778 0.000871045 0.000200396)
(0.418108 0.00225816 0.000271692)
(0.520051 0.00154219 6.10105e-05)
(0.415144 -0.00636828 0.00024693)
(0.516944 0.000391566 -0.00058787)
(-0.00351673 0.00406204 -0.00192689)
(0.260516 0.0103105 -0.00383227)
(0.266225 0.00482786 -0.00127607)
(0.00605396 0.00516985 0.000338117)
(0.52137 0.0027717 0.000332089)
(0.531797 0.00355996 0.000578872)
(-0.0089939 0.0080356 0.000371534)
(0.52043 -0.00367781 0.000137941)
(0.529566 0.00710591 0.00195039)
(0.0224252 0.0083525 0.000157423)
(0.519509 -0.00998082 0.000133541)
(0.535744 0.00948778 0.000347776)
(-0.0145593 -0.0109463 -0.000479608)
(0.0214665 0.0122449 0.00251396)
(-0.0135441 -0.0122488 -0.00247381)
(0.477756 -0.00186447 -0.000127546)
(-0.0333679 0.0164626 0.000865757)
(0.490487 -0.0836605 -0.000440655)
(0.51662 0.0108798 0.0134811)
(0.272391 0.0557136 0.0175798)
(0.0481116 0.0675059 0.0326758)
(-0.155725 0.0629969 0.0188061)
(0.303208 -0.0786867 0.022672)
(0.28705 0.117911 0.0464983)
(1.53094 0.0716295 0.0272938)
(0.0425887 0.031228 0.0290934)
(0.112252 -0.00665621 0.111647)
(0.0124795 -0.0990714 0.136733)
(-0.0681833 -0.0442259 0.116774)
(-0.0285589 -0.0180257 0.000454151)
(0.457355 0.0123921 0.000538781)
(0.584736 -0.0314372 -0.00128856)
(-0.0290377 -0.0333346 -0.00146472)
(-0.026215 -0.00735447 -0.000434288)
(-0.0298359 -0.0664161 -0.00237936)
(-0.0253916 -0.0133794 -0.000638817)
(-0.0287124 -0.00984993 0.000157616)
(0.440554 -0.00357315 8.53534e-05)
(0.564359 -0.0153805 -0.00168296)
(-0.0273003 -0.0061302 -0.000110626)
(0.42825 0.00390166 -4.2445e-06)
(0.546998 -0.00939249 0.00220924)
(-0.0292534 -0.00444654 -1.397e-07)
(0.423356 -0.00231039 -0.000143998)
(0.540728 -0.00559863 0.00157447)
(-0.0235381 -0.00256652 0.000282173)
(0.421035 0.00190615 0.0003538)
(0.53698 -0.00458021 -0.00268367)
(-0.0205039 -0.000824475 0.000124859)
(0.420872 -0.00740795 0.000166385)
(0.535969 -0.00116471 -0.00159306)
(-0.0116284 -0.000238342 7.92244e-05)
(0.422572 0.000622955 -8.7674e-05)
(0.537416 -0.00104204 0.000927914)
(-0.0140277 0.000478436 8.38745e-05)
(0.423659 0.0107345 1.38708e-06)
(0.537628 -0.000148819 0.000516925)
(-0.00695555 0.0011092 3.11622e-05)
(0.42421 0.00715917 2.83775e-06)
(0.537624 0.000312437 0.000459899)
(-0.00820806 0.000599467 8.02667e-05)
(0.424341 0.00240067 4.03236e-05)
(0.537507 0.00128999 -8.57481e-06)
(-0.0103118 -0.000961179 7.4967e-05)
(0.421763 0.00204588 0.000145671)
(0.535135 -0.000298972 0.000151792)
(0.00285697 -0.000603277 -1.31283e-05)
(0.424681 0.000137736 -5.2019e-06)
(0.536847 -0.00130438 -0.00130215)
(0.00187312 0.000152717 -0.000400978)
(0.427926 -0.0142751 -5.55385e-05)
(0.53936 0.000651772 0.00122231)
(-0.00498868 -0.000202574 -0.0003208)
(0.425211 -0.000952478 -0.000537153)
(0.53684 -4.80399e-05 0.00302636)
(0.00135375 -6.79037e-05 0.000165534)
(0.424655 -0.00250249 7.66084e-05)
(0.535934 -0.00031418 -0.00219282)
(0.000886517 0.00019806 9.13073e-05)
(0.425573 -0.000136205 0.000217615)
(0.536173 9.12813e-05 -0.00168749)
(0.00550901 0.00040334 -1.54798e-05)
(0.425233 0.00844326 -4.39206e-05)
(0.535036 -3.40832e-05 0.000953289)
(0.00171586 0.000561886 -5.9851e-05)
(0.424384 -0.000248475 6.85248e-05)
(0.533951 0.000455715 -0.00115425)
(-0.00344997 0.000524513 -0.000235894)
(0.421836 0.00572561 -9.5921e-05)
(0.531439 4.80957e-05 0.000434197)
(0.00370945 0.000201366 -0.000134737)
(0.421695 0.00337257 -0.000191157)
(0.531948 0.000179068 0.00283708)
(-0.00383623 -6.78631e-05 0.000172022)
(0.420471 -0.002084 0.000234477)
(0.530332 9.50322e-06 0.000339577)
(-0.0010572 0.000283672 0.000254129)
(0.418205 -0.00100773 0.000283579)
(0.526374 0.000343561 -0.00300516)
(0.00664038 0.00024278 8.5268e-06)
(0.420118 -0.0116922 0.000363975)
(0.528363 0.000936862 -0.00100191)
(-0.00125679 -0.000401855 -6.31679e-05)
(0.418274 -0.00144634 -1.56376e-05)
(0.526982 0.000152177 0.00374492)
(8.53575e-05 -0.000580551 0.000177808)
(0.414601 0.00571226 0.000102092)
(0.522558 -0.000643541 5.41201e-05)
(0.00393919 0.000123264 9.86543e-05)
(0.416351 -0.00249649 0.000211221)
(0.523379 -0.000432208 -0.00288428)
(0.0106094 0.000930923 -5.4477e-05)
(0.419482 0.000838244 -0.000170456)
(0.526102 0.000682808 0.000231216)
(0.0104366 0.00117956 -5.26534e-05)
(0.419363 0.00200083 -6.43204e-05)
(0.525723 0.00120028 8.37258e-05)
(0.00361839 0.00136038 3.57492e-05)
(0.415918 0.00172105 -6.19307e-05)
(0.521372 0.0011216 -0.00031886)
(0.0117083 0.00106112 0.000132281)
(0.415277 0.00925266 7.31219e-05)
(0.520474 0.0012547 0.000991822)
(0.0240655 0.00020969 9.90543e-05)
(0.420106 0.00645537 0.000194442)
(0.525176 0.000258277 -0.000183977)
(0.0252079 0.000120663 -1.44713e-05)
(0.424032 -0.000139736 7.52809e-05)
(0.52836 -0.000424306 0.000257931)
(0.0216086 0.000279984 4.13287e-05)
(0.423499 -0.000647165 -9.11502e-05)
(0.527673 0.000267418 0.00202985)
(0.0182357 -0.00052232 0.00010998)
(0.420725 -0.00331653 0.000131733)
(0.525226 0.000326855 -0.000309986)
(0.0216205 -0.00129649 2.23349e-05)
(0.420202 -0.0123634 0.00020618)
(0.52438 -0.000740556 -0.00208231)
(0.0299232 -0.000866064 0.000127037)
(0.423606 -0.00922661 0.000128742)
(0.526938 -0.000838852 0.000373834)
(0.0297632 4.40372e-05 0.000188173)
(0.424945 -0.00483545 0.000171715)
(0.527661 0.000163906 0.00184104)
(0.0241025 0.00022278 0.000200949)
(0.421659 -0.00427427 2.41015e-05)
(0.524113 0.000663151 -0.000710696)
(0.0300036 -9.29746e-06 0.000192546)
(0.421196 0.00119776 0.000136706)
(0.52334 -8.67118e-05 -0.0020408)
(0.0354735 -6.21039e-06 0.000148594)
(0.424601 0.0156214 -3.24963e-05)
(0.526643 -0.000466496 0.00040386)
(0.0271212 -0.000155252 0.000265057)
(0.42335 0.0151855 -3.50045e-06)
(0.525885 -0.000483206 0.00194704)
(0.0202096 -0.000371296 0.000318234)
(0.417845 0.00898246 0.00019791)
(0.519983 -0.000656875 -0.000602188)
(0.41561 0.00158164 0.000240422)
(0.516212 -0.000444763 -0.00113828)
(-0.0127026 0.00284958 -0.00157467)
(0.260811 -0.00746115 -0.00371704)
(0.264556 0.00280745 0.00302856)
(-0.000353639 0.00189987 0.000131977)
(0.520424 -0.00111424 0.000354384)
(0.529088 0.00300056 0.0011631)
(-0.0126701 0.00174156 -0.000100051)
(0.520451 -0.00401759 3.26459e-05)
(0.528755 0.000997587 -0.000293623)