/*--------------------------------*- C++ -*----------------------------------*\
| =========                 |                                                 |
| \\      /  F ield         | OpenFOAM: The Open Source CFD Toolbox           |
|  \\    /   O peration     | Version:  5.0                                   |
|   \\  /    A nd           | Web:      www.OpenFOAM.org                      |
|    \\/     M anipulation  |                                                 |
\*---------------------------------------------------------------------------*/
FoamFile
{
    version     2.0;
    format      ascii;
    class       volVectorField;
    location    "0.3";
    object      ddtCorrDdt0(U);
}
// * * * * * * * * * * * * * * * * * * * * * * * * * * * * * * * * * * * * * //

dimensions      [0 1 -2 0 0 0 0];

internalField   nonuniform List<vector> 
4398
(
(-0.000382821 -0.00282218 0.000435028)
(0.00497098 -0.00280233 -0.000266631)
(0.00684889 -0.0027406 -0.000856231)
(0.00526005 -0.00725528 0.00224561)
(0.0045041 -0.00291906 0.00178768)
(-0.0699126 0.0144603 -0.0036286)
(-0.00829715 0.00924272 0.000954696)
(-0.0165107 0.00639584 0.000483423)
(-0.0196998 0.00253246 -5.29535e-07)
(-0.021424 0.00361985 -1.08052e-06)
(-0.0225935 0.00249018 0.000187306)
(-0.02317 0.00208947 0.00010968)
(-0.0190614 0.00446638 -0.000343905)
(-0.0155391 0.00188188 9.74219e-05)
(-0.0140376 0.000173355 2.10613e-05)
(-0.0117557 0.000941165 -0.000422465)
(-0.00858964 -1.77313e-05 1.15308e-06)
(-0.00464801 0.0016501 9.65919e-05)
(-0.00170371 0.00305567 0.000162858)
(-0.000887643 0.00143276 -0.00026321)
(-0.00058866 0.00181446 -7.01761e-05)
(0.00285926 0.00123131 0.000225654)
(0.00208018 -0.000806981 -8.51718e-06)
(0.000828535 -0.000919975 -0.000175837)
(0.00350095 -0.00337568 0.000110753)
(0.00322937 -0.00430015 9.00203e-05)
(-0.000273047 -0.00200999 -0.000103674)
(-0.00163313 -5.06312e-05 -7.89949e-07)
(0.00178414 0.000652796 -0.000167705)
(0.00180937 0.000505905 -3.27757e-05)
(0.000947117 0.00264016 6.07441e-05)
(0.00594586 0.00300743 0.000167943)
(0.0051344 -0.000312496 0.000199609)
(-0.00201642 -0.00188586 -0.000143297)
(-0.00172021 -0.0012199 -8.8642e-06)
(0.00801036 -0.00105545 -7.24696e-07)
(0.0181626 -0.00249239 -5.15726e-05)
(0.0210706 -0.00341872 0.000105309)
(0.0189227 -0.00213718 0.000150694)
(0.0190563 -0.000596925 -0.000115854)
(0.0257166 0.000582743 -0.000139655)
(0.0297654 0.00163729 0.000187579)
(0.0228749 0.00247372 3.59532e-05)
(0.0192733 0.00266395 -0.000136785)
(0.0270786 0.000389003 -1.43933e-06)
(0.0314041 -0.00216608 0.000275117)
(0.0275976 -0.00199812 -2.72013e-05)
(0.0265305 -0.00104753 -1.59018e-05)
(0.0284468 -0.000808881 7.59248e-05)
(0.0262645 -0.000319682 3.71126e-05)
(-0.00155234 0.00155382 0.000641693)
(-0.00119109 0.000762892 -0.000922896)
(-0.00609391 -0.0114582 0.000470133)
(-0.00964557 -0.0138123 -0.0005071)
(-0.0160492 -0.0240129 0.00361114)
(-0.0353015 -0.0252718 0.00974412)
(0.000523621 0.0145282 8.58741e-05)
(-0.0200546 0.0120008 -0.000105031)
(-0.0213974 0.00879793 1.49521e-05)
(-0.0217728 0.00454144 -2.17068e-06)
(-0.0238428 0.00472796 -2.02702e-07)
(-0.0214606 0.00157449 -1.42705e-06)
(-0.0187938 0.00202894 -3.16264e-06)
(-0.0196401 0.00174848 -4.38428e-06)
(-0.0148789 0.00118354 -1.27388e-06)
(-0.0121992 -0.000110225 -0.000312409)
(-0.00791131 0.001898 0.000232285)
(-0.00139105 0.00462723 0.000277915)
(-0.00316942 0.00514688 -0.000154341)
(-0.00341992 0.000541487 -0.000106317)
(-0.00113728 0.000788109 0.000188275)
(0.000736339 0.000390233 6.59826e-05)
(0.00166339 -0.00218024 -0.000528466)
(0.000213004 -0.000839014 -0.000133853)
(0.00102437 -0.00131677 3.01271e-05)
(0.00324591 -0.00308064 -0.000158159)
(0.00265049 -0.00315599 -0.000159526)
(0.00170619 0.000491299 -3.98797e-05)
(0.0021798 0.00171204 1.80359e-06)
(0.00246572 2.49602e-05 0.000220482)
(0.00253993 0.00199041 0.000153294)
(0.00199418 0.00119068 9.57092e-05)
(0.000766418 -0.00412644 -0.0002882)
(-0.000459866 -0.00389752 -0.00023886)
(0.000776203 0.000438429 6.49523e-07)
(0.00720228 0.00205828 -0.000117803)
(0.0155392 -0.000974188 1.84015e-06)
(0.0204223 -0.00320407 0.000196405)
(0.0207482 -0.00237152 -8.62403e-05)
(0.0215175 -0.000347847 -0.000300933)
(0.026787 0.00148995 0.000172894)
(0.0297889 0.000195694 7.17187e-05)
(0.024455 -0.000816591 -1.10523e-05)
(0.0193885 0.0017548 -0.000272729)
(0.0232246 0.00171932 3.52398e-05)
(0.0289329 -0.00169175 1.47341e-05)
(0.0291891 -0.00195574 -0.000195623)
(0.0286668 0.000437362 9.01237e-05)
(0.0287738 0.00136274 0.000205504)
(0.0254911 0.000363452 -2.40599e-06)
(-0.00138437 -0.00414287 7.05878e-06)
(-0.0112987 -0.00238454 -4.95516e-05)
(-0.0113518 -0.00469361 -0.000253139)
(-0.0179437 0.00121016 -0.00118093)
(-0.0218051 -0.00792578 -0.0042555)
(-0.0032073 0.00114668 -0.0290686)
(-0.0128847 0.0545005 0.00201716)
(-0.0276078 0.00996666 0.000902009)
(-0.0290247 0.00709365 0.00104609)
(-0.0265062 0.00547129 -4.83084e-06)
(-0.0263064 0.00375409 -3.36495e-06)
(-0.0265392 0.00416732 -3.15874e-06)
(-0.0188451 -0.000732731 -1.23613e-06)
(-0.0165961 -0.000645116 -7.46355e-07)
(-0.0163618 0.00109104 -1.46549e-06)
(-0.0108592 -0.000412653 1.21252e-06)
(-0.00266732 0.00183448 0.000148014)
(-0.000589452 0.00196458 -0.000185934)
(-0.00681723 -0.000429438 0.000236665)
(-0.0063304 0.000423034 -0.000112792)
(-0.000778229 0.00148292 -0.000264227)
(-0.00085362 0.000245889 -4.80079e-05)
(0.000548336 -0.00100378 -0.000237302)
(0.00190457 -0.000531324 0.000217742)
(0.0006968 0.00128442 2.57584e-05)
(0.000931859 0.00024317 -0.000123738)
(0.0041952 -0.00200427 0.00023833)
(0.00444795 0.000566648 3.23881e-07)
(0.00119657 -0.000704868 0.000262879)
(0.00215993 -0.0024653 0.000270723)
(0.00239982 -0.00102941 -0.000279907)
(-0.00170584 -0.00247093 -0.000431115)
(-0.00121993 -0.00408485 -0.000355738)
(0.0036941 -0.00288126 1.68743e-05)
(0.0057209 0.00137963 0.000318046)
(0.00623912 0.00386224 0.000121904)
(0.0115857 0.000590898 -0.000266917)
(0.0193273 -0.00189032 1.11696e-05)
(0.0224941 -0.00094399 -4.27737e-06)
(0.0238824 0.000834147 -4.64527e-05)
(0.026392 0.00142408 0.0001172)
(0.0268826 -0.00163051 0.0001885)
(0.024828 -0.00404098 -8.64318e-05)
(0.0224404 -0.000998734 -5.97546e-06)
(0.0227665 0.00181681 0.000209544)
(0.0268147 6.12033e-05 -8.02846e-05)
(0.0302626 -0.000734521 -6.88753e-05)
(0.0306768 0.00159583 0.000124679)
(0.0283513 0.00148421 2.3141e-05)
(0.0241077 -0.000291291 -1.06554e-05)
(0.000651016 -0.00326258 -0.000567436)
(-0.00187513 -0.00354005 -0.000195001)
(-0.00157887 0.00681381 -6.58822e-05)
(0.00683383 0.00430601 0.00217668)
(-0.00711491 0.0309165 -0.000593802)
(-0.0328177 0.0175993 -0.00974569)
(0.0266134 0.0942601 -0.00097282)
(-0.0251496 0.00294052 0.00148631)
(-0.027016 0.0020989 -4.45307e-06)
(-0.0259471 0.00330332 -0.000585367)
(-0.0254702 0.000934026 -4.85056e-06)
(-0.0270756 0.00173659 -3.17324e-06)
(-0.0248033 0.0010582 -3.71875e-07)
(-0.0173583 -0.000802962 6.45189e-07)
(-0.0145923 0.00148216 -5.1108e-07)
(-0.0112657 0.00203154 6.32937e-07)
(-0.00494249 0.00178364 -2.34549e-06)
(-0.00422362 -0.00190239 -0.0001543)
(-0.00509281 -0.0051471 -0.000119891)
(-0.00102908 0.00056839 -8.33304e-05)
(-0.00136125 0.00181011 0.000226524)
(-0.00237147 -5.7648e-05 2.93906e-06)
(0.000693546 0.00104098 0.000176768)
(0.00307533 0.000403491 0.000164043)
(0.00199002 0.00206907 -0.00017131)
(-0.000865259 0.00273579 -0.000255788)
(0.00306136 0.000630437 9.06044e-05)
(0.00332711 -0.000513474 2.01241e-05)
(-0.00160964 -0.00298931 0.000188441)
(0.00206623 -0.00343786 -0.000430247)
(0.00253191 -0.00245728 -0.000175092)
(-0.00182426 -0.00321911 0.000448724)
(0.000258173 -0.00158886 3.54732e-06)
(0.00637479 -0.000611514 1.85275e-06)
(0.00920397 0.00129157 2.51499e-05)
(0.00621021 0.00323043 -0.000337818)
(0.00834969 0.00191009 -0.000109007)
(0.018508 9.55136e-05 8.23258e-06)
(0.0241547 0.000770745 8.14443e-05)
(0.0244759 0.00180417 0.000139405)
(0.0237021 0.000387036 9.49571e-05)
(0.0229585 -0.00336243 -0.000151018)
(0.0252513 -0.00517255 -3.21493e-05)
(0.0267098 -0.00260724 9.92109e-05)
(0.024544 0.000749165 0.00033298)
(0.025745 0.000731008 -0.000180721)
(0.0311108 0.000930557 -1.84454e-05)
(0.0314376 0.00270316 9.96659e-06)
(0.0264152 0.00143872 7.86725e-07)
(0.0240014 -0.00102943 -8.73227e-05)
(-0.00170925 0.00488823 -0.00056053)
(0.00132619 -0.000617288 0.000229531)
(-0.00155453 0.0012263 0.000896017)
(-0.00408816 -0.0045593 0.000141136)
(-0.0045237 -0.0337344 0.0025429)
(-0.0263063 0.000823929 0.0105427)
(-0.157916 0.0155379 0.0586123)
(-0.0292145 0.00191441 -0.000678039)
(-0.0285776 -0.000632925 3.51582e-06)
(-0.0279672 -0.00168946 0.000366155)
(-0.0282609 -0.00160149 6.64612e-05)
(-0.0263855 -0.00345308 -2.9305e-05)
(-0.0220207 0.000108229 -0.000175495)
(-0.0160609 0.000153905 1.62581e-07)
(-0.0128209 0.00198388 3.24654e-05)
(-0.0104835 0.00208902 0.000119571)
(-0.00758904 0.00262537 -3.19017e-07)
(-0.00925285 -0.000658642 -4.35251e-06)
(-0.00371762 -0.00286498 -0.000327144)
(0.00236026 -0.000914608 0.000194385)
(-0.0015646 -8.32865e-05 -2.20822e-06)
(-0.00181069 -0.000421256 -0.000200829)
(0.00112385 0.000922679 -0.000243512)
(0.00319406 0.00140958 0.000194294)
(0.0036129 0.00148793 -0.000162239)
(-0.000868132 0.00292027 6.43932e-06)
(0.000136608 0.00226744 0.000124786)
(-7.65141e-05 -0.00119294 5.93751e-05)
(-0.00245412 -0.00212913 -0.000411191)
(0.00282871 -0.00147468 -0.000176446)
(0.00267275 -0.00136571 0.00014865)
(-0.000616727 -0.00107338 -8.48651e-06)
(0.00204018 -0.000577051 -0.000338403)
(0.00729635 0.000769512 2.25519e-06)
(0.0105241 0.00129732 5.6452e-05)
(0.00700892 0.00179973 -1.33428e-06)
(0.00766646 0.00324261 0.000263995)
(0.0179066 0.00226419 1.7362e-06)
(0.0246309 0.00107614 -8.15639e-06)
(0.0234001 0.00105137 0.000170631)
(0.0199311 -0.000864285 -9.83101e-06)
(0.0199355 -0.00369265 -0.000385555)
(0.0257761 -0.00422776 6.31452e-05)
(0.029842 -0.002617 0.000562405)
(0.026935 -0.000503106 -3.97582e-05)
(0.0270414 0.000917196 -1.99782e-05)
(0.0327292 0.00270595 0.000135307)
(0.0313087 0.00344699 0.000267466)
(0.0236847 0.00170029 -0.000113279)
(0.0236022 -0.000163649 -5.80529e-05)
(-0.0062255 0.00124325 0.0012298)
(-0.0064334 0.000970722 0.000542084)
(-0.0065026 -0.00360299 -0.000181975)
(-0.0307943 -1.00679e-05 -0.00116993)
(-0.00638385 0.00852715 -0.0120695)
(0.00487705 0.00171543 0.00385446)
(0.00356057 0.0247202 -0.00390028)
(-0.0330363 -0.00196869 -0.000476308)
(-0.0314872 -0.00406101 -3.37223e-05)
(-0.0271552 -0.00523007 2.10988e-05)
(-0.0276758 -0.00214653 -8.15859e-05)
(-0.0249313 -0.00103525 -2.75694e-06)
(-0.0202986 0.00158767 0.000167788)
(-0.0150113 0.00182017 -5.33787e-06)
(-0.012175 0.000459468 -0.000154881)
(-0.010463 0.000778933 -0.000147502)
(-0.00838125 0.000835737 2.6638e-06)
(-0.0110856 0.00143922 0.000167746)
(-0.00540779 -0.000264809 -6.77351e-05)
(0.00244662 -0.00267553 -0.000216664)
(-0.000746073 -0.00216797 1.33762e-05)
(-0.00111196 -0.000695703 -0.000266073)
(0.00298119 -0.000268215 -4.63818e-08)
(0.00378082 0.00209435 0.000446905)
(0.00387981 0.00134331 0.000233449)
(0.000106567 0.00179642 2.98518e-05)
(-0.00208271 0.00237127 -9.97128e-05)
(-0.00216484 -0.000538532 -0.000173075)
(-0.00195954 0.000265842 9.43463e-06)
(0.00301908 0.00171678 0.000454823)
(0.00303284 0.000539384 0.000230309)
(-0.000837651 -0.000424898 -0.000205402)
(0.00256251 -0.000762156 -7.21247e-05)
(0.00871669 0.00170944 1.32542e-06)
(0.0104915 0.00145665 0.000155342)
(0.00864247 0.00023246 -1.82563e-06)
(0.00892708 0.0028235 0.00014323)
(0.0157997 0.0032234 3.33121e-06)
(0.0226403 0.000663565 -7.30553e-05)
(0.0220482 -0.000697681 0.000116241)
(0.0177709 -0.00145341 -4.19016e-05)
(0.0187561 -0.00218861 -0.000142927)
(0.0265972 -0.0017012 0.000130087)
(0.0313653 -0.00110662 6.84273e-05)
(0.0289605 -0.000954479 -0.000266709)
(0.0297556 0.000870061 3.09639e-06)
(0.0342704 0.00288573 0.000337029)
(0.0301769 0.00257746 2.84067e-05)
(0.0218999 0.00159708 -0.000333327)
(0.0220842 0.00133569 1.2427e-05)
(-0.00205665 -0.00385165 0.00047236)
(-0.00474426 0.00311627 -0.00042791)
(-0.00276885 -0.00063386 -0.000575452)
(0.00157658 0.00051492 0.00134114)
(0.00980387 0.0155682 -0.00156081)
(0.000786474 -0.0194203 -0.0102094)
(-0.0418835 -0.0379483 -0.0130265)
(-0.0336081 -0.00822 -0.000950552)
(-0.0326816 -0.00412843 -5.08479e-06)
(-0.0255667 -0.00483608 3.1458e-06)
(-0.0230187 -0.00328031 -1.47681e-08)
(-0.0217155 -0.00146488 -9.8192e-07)
(-0.018454 0.000611296 -6.39861e-07)
(-0.0174729 0.000653819 1.49126e-06)
(-0.0141202 -0.00345507 -3.84018e-08)
(-0.0100133 -9.31085e-05 -6.33274e-07)
(-0.00676295 -0.00124795 -4.1684e-07)
(-0.0106311 -0.00043023 -0.000208682)
(-0.00886235 0.00207276 -0.000157222)
(-1.52896e-05 -0.00245099 5.03163e-05)
(0.000910936 -0.00285825 3.22894e-05)
(0.000562193 -0.000895392 -1.3759e-06)
(0.00461293 -0.000720925 7.04446e-05)
(0.0052047 0.00126442 1.1397e-05)
(0.00324153 0.000967565 -0.000237753)
(0.000416758 0.00103159 -7.34388e-05)
(-0.00278627 0.00163019 -1.95536e-05)
(-0.00270386 0.000136808 0.000188001)
(0.00036535 0.00274816 0.00026766)
(0.0031678 0.00348414 0.000133281)
(-4.18455e-06 0.000479111 0.000104025)
(-0.00224284 -0.000805093 -0.000113182)
(0.00471042 0.000335223 2.16094e-05)
(0.0100663 0.0021468 9.42568e-05)
(0.00867687 0.000674504 -0.000128509)
(0.00872192 -0.00146478 -0.000127038)
(0.0114026 0.000977299 3.64887e-05)
(0.015203 0.00337986 -5.33129e-05)
(0.0197305 0.00103559 1.31834e-05)
(0.0207541 -0.00131469 0.000209599)
(0.018067 -0.00125473 -5.08429e-05)
(0.0196266 0.00048313 -0.00037022)
(0.0271283 0.00132056 1.85955e-05)
(0.0307748 0.000311565 0.000132349)
(0.0294072 -0.000757087 -2.18094e-05)
(0.031841 0.000596648 -2.73459e-07)
(0.0348599 0.00109017 0.000128421)
(0.0296965 -1.20798e-05 -1.13392e-06)
(0.022133 0.000633206 -0.000505743)
(0.0199309 0.00159422 0.000153736)
(0.002496 0.00625739 -0.000648401)
(-0.00243392 0.0051685 0.000280727)
(-0.00975578 0.00347821 0.00143185)
(-0.000240619 0.00403443 -0.000175889)
(-0.0171408 -0.00945708 0.00472393)
(-0.0197733 -0.055882 0.000829717)
(0.0844309 -0.0273586 -0.0359837)
(-0.0285903 -0.0125314 0.000357232)
(-0.0272513 -0.00561941 0.00028109)
(-0.0260927 -0.00158247 -5.91057e-06)
(-0.0234618 -0.00247642 -3.90947e-06)
(-0.0200664 -0.000737737 -1.44086e-06)
(-0.0176526 -0.00179527 -8.12791e-07)
(-0.0200993 -0.00167489 -4.50141e-07)
(-0.0130999 -0.00202291 1.59313e-06)
(-0.00770984 -0.000232396 -8.44311e-07)
(-0.0088011 -0.00391994 0.000454962)
(-0.00693239 -0.00371016 -0.000447376)
(-0.00794276 0.000743281 0.000390381)
(-0.00371268 0.000396572 5.31493e-05)
(0.00120191 -0.00194202 -0.000506136)
(0.00155724 -0.00128794 8.23574e-05)
(0.00568314 0.000572741 8.29379e-05)
(0.00588918 6.62534e-06 5.04285e-06)
(0.00358911 0.000942189 -0.000159506)
(0.000934747 0.00109232 0.000114309)
(-0.00320502 0.000544496 0.00012884)
(-0.00076421 0.000618861 -5.14406e-05)
(0.00222136 0.00204121 -9.61142e-05)
(0.000177382 0.00180594 0.00017433)
(-0.00232673 -0.000963165 -0.000102314)
(-0.00101488 0.000144136 -0.000133925)
(0.00625312 0.00292168 6.27611e-05)
(0.00913716 0.0019313 8.80808e-06)
(0.00597658 -0.000904913 -1.8758e-05)
(0.00902651 -0.00229614 5.28782e-05)
(0.014983 -0.000442322 3.93189e-05)
(0.0158671 0.00228734 -6.68029e-05)
(0.0167717 0.00146545 1.54351e-06)
(0.0191879 -0.000592097 -1.67726e-05)
(0.0200198 -0.000541155 -5.03454e-05)
(0.0219739 0.00254316 4.88427e-05)
(0.0263806 0.00351876 0.000143005)
(0.0287684 0.000754935 5.19683e-06)
(0.0293196 -0.000554991 8.46797e-07)
(0.0320637 0.000643479 2.5223e-06)
(0.0335081 -0.000696713 8.67968e-06)
(0.0296075 -0.00285222 -5.67866e-05)
(0.0239068 -0.0014176 -1.28839e-05)
(0.0192942 0.000412589 0.00010356)
(-0.00342207 0.00593849 0.000942119)
(-0.00823309 0.00269272 -0.000615263)
(-0.00417418 0.00685225 -0.00121297)
(-0.0134767 0.0100951 -2.3041e-05)
(-0.0388984 -0.000559523 0.00485968)
(-0.0383694 -0.00842117 -0.00178352)
(0.00145676 -0.0261641 0.0014111)
(-0.0110123 -0.0100282 0.000334371)
(-0.0190009 -0.00486483 0.000521274)
(-0.0216449 -0.0025656 -2.19676e-06)
(-0.02196 -0.00136247 -1.79426e-06)
(-0.0208676 -0.00133884 3.65205e-07)
(-0.0196242 -0.00445318 1.78345e-07)
(-0.017758 -0.00204449 9.56254e-07)
(-0.0123144 0.000206789 1.67261e-06)
(-0.0123914 -0.00252442 0.000293874)
(-0.011106 -0.00319416 0.000669659)
(-0.00479652 -0.0025258 -0.00037246)
(-0.00373481 -0.00183401 1.48487e-05)
(-0.00337407 0.00150981 4.375e-05)
(-0.00119088 -0.000355841 -8.08431e-06)
(0.00370722 -0.000160547 0.000103436)
(0.00622855 0.00160901 6.10487e-05)
(0.00566844 -0.00122271 -2.63123e-05)
(0.00459768 -0.000364236 -4.60019e-05)
(-8.15283e-05 0.000105118 0.00017316)
(-0.00337781 0.000116635 -0.000193601)
(-0.000832407 0.00054012 -0.000288162)
(0.00184554 -0.000566955 0.000135868)
(-0.000592865 -5.00659e-05 6.26443e-05)
(-0.00207813 -0.000724152 -0.000240153)
(0.00261385 0.00134198 -6.85152e-05)
(0.0069389 0.00463917 0.000766516)
(0.00528088 0.00185081 2.85937e-05)
(0.00339439 -0.00213155 -0.000154723)
(0.009304 -0.00314174 0.000107924)
(0.0171332 -0.00231841 0.00011502)
(0.0175838 -0.000335012 -4.74051e-05)
(0.0161301 0.000969448 -0.000123181)
(0.0182486 2.60942e-05 -2.0355e-06)
(0.0219895 0.000112195 0.000144024)
(0.0246989 0.00320275 0.000112242)
(0.0248891 0.00447446 -1.93247e-05)
(0.0256848 0.000640217 -6.85885e-05)
(0.029271 -0.000945623 -2.83556e-07)
(0.0316612 0.000591032 3.00974e-05)
(0.0304898 -0.00106348 -7.79099e-07)
(0.0287999 -0.00398321 1.03921e-05)
(0.0262159 -0.00300883 0.000115608)
(0.0211837 -0.000819596 5.58116e-06)
(-0.00156723 -0.00578176 -0.000942779)
(-0.00129387 -0.00335742 0.000530403)
(-0.000509598 0.00477873 0.00195793)
(0.00148675 0.00546168 0.00148454)
(-0.0475272 0.023584 -0.000382545)
(0.0697155 0.0917903 -0.0133691)
(0.00320972 0.00459597 0.00119873)
(-0.00997218 -0.000470051 0.000415215)
(-0.0179313 -0.00121634 4.86577e-06)
(-0.0217168 -0.00103221 -1.59103e-06)
(-0.0219304 -0.00103903 0.000101907)
(-0.0239337 -0.00153809 -0.000130482)
(-0.0185274 -0.00287954 -0.000436468)
(-0.0142748 -0.0010908 0.00032643)
(-0.0137058 -0.00110226 1.17589e-05)
(-0.0119589 -0.00246785 0.000314396)
(-0.00880081 -0.000597441 -9.65713e-08)
(-0.0052322 -0.000453905 -0.000198991)
(-0.00289479 -0.000478249 0.000108883)
(-0.00187086 0.00116908 -3.00466e-05)
(-0.000883818 0.00151178 -0.000161823)
(0.00401544 0.00165106 -0.000150922)
(0.00434986 0.000834731 -5.68274e-06)
(0.00342695 -0.00166546 2.54291e-06)
(0.0052481 -0.00303779 0.000248967)
(0.00153525 -0.0025439 0.000202293)
(-0.00266053 -0.000390206 -0.000123728)
(-0.00162071 -5.81543e-05 1.78761e-05)
(0.00148499 -0.00102979 5.7174e-05)
(-2.06528e-05 -0.000109817 -2.78058e-05)
(-0.000583899 0.000890646 -0.000153044)
(0.00568991 0.00230919 7.57685e-05)
(0.0068813 0.00355578 0.000331951)
(0.000671956 0.000868291 -7.70238e-05)
(-0.000260716 -0.00228174 -0.000105863)
(0.00879476 -0.00322503 0.000206164)
(0.0184928 -0.00331708 0.000104981)
(0.0199764 -0.00240219 -3.75249e-05)
(0.0172207 -0.000528237 0.000165287)
(0.018118 -0.000166542 2.40854e-05)
(0.0239947 0.000117586 -7.14417e-06)
(0.0274251 0.00281218 2.05666e-05)
(0.0231722 0.00417158 -1.69369e-05)
(0.0219964 0.00120413 -0.000137998)
(0.0292618 -0.000959017 0.000118781)
(0.031913 -0.000552793 0.000111648)
(0.0277892 -0.00116384 -7.14996e-05)
(0.0271809 -0.00286576 -8.24092e-05)
(0.0278633 -0.00298094 7.05359e-05)
(0.0240804 -0.0010823 -3.1779e-06)
(-0.000597121 -0.00272814 0.000837058)
(0.0050173 -0.00282865 -0.000169188)
(0.00671763 -0.00296153 -0.00190858)
(0.00549011 -0.00709246 0.00337006)
(-0.000338409 -0.00210804 0.000366355)
(0.00398604 0.016307 -0.026721)
(-0.00818262 0.00879628 -0.000222693)
(-0.0165253 0.00640122 0.000836368)
(-0.0198115 0.00259675 -4.92162e-06)
(-0.0214999 0.00368584 -3.26728e-06)
(-0.0226991 0.00255018 0.000492009)
(-0.0233058 0.002154 0.00020489)
(-0.0191686 0.00457991 -0.000489288)
(-0.0156927 0.00193565 0.000197619)
(-0.0143007 0.000217605 3.66034e-05)
(-0.0119549 0.000917412 -0.000851809)
(-0.00873221 -1.21643e-05 -5.28011e-06)
(-0.004804 0.00160387 0.000269329)
(-0.00187279 0.00301063 0.000307765)
(-0.000994172 0.00142155 -0.000457886)
(-0.000590058 0.00187473 -0.00016604)
(0.00275585 0.00129381 0.000639898)
(0.00190592 -0.000797939 -1.16199e-05)
(0.000670954 -0.000926001 -0.000590915)
(0.00333264 -0.00329295 0.000255334)
(0.0030426 -0.00416148 0.000183055)
(-0.000434126 -0.0019037 -0.000230145)
(-0.00187671 -2.25408e-05 1.25175e-06)
(0.00159416 0.000634457 -0.000317422)
(0.00164456 0.000501519 -6.45177e-05)
(0.000673817 0.00274625 0.000117468)
(0.00591719 0.00316851 0.000283897)
(0.00515597 -0.000306698 0.000309179)
(-0.00213271 -0.00184498 -0.000273299)
(-0.00183646 -0.00115623 -1.96332e-06)
(0.0078605 -0.00103184 2.8513e-05)
(0.0179896 -0.00245747 -0.000104847)
(0.0208775 -0.00335872 0.000257112)
(0.0187185 -0.00208359 0.000271633)
(0.0188958 -0.000582892 -0.000238285)
(0.0255989 0.000588366 -0.000311225)
(0.0295834 0.00161802 0.000287625)
(0.0225989 0.00239736 6.63947e-05)
(0.0191702 0.00263804 -0.000523828)
(0.0271213 0.000319059 -4.04241e-07)
(0.0312838 -0.0023103 0.00064045)
(0.0274283 -0.00206563 -4.20019e-05)
(0.0264001 -0.00108171 -2.5777e-05)
(0.0282894 -0.000859071 0.000150931)
(0.0261606 -0.000331441 5.97862e-05)
(-0.00175577 0.00153307 0.00134922)
(-0.00115298 0.000869925 -0.00147869)
(-0.00625338 -0.0115104 0.000269886)
(-0.00937849 -0.0137532 0.000687364)
(-0.0180706 -0.024662 0.00284488)
(-0.169299 -0.0190927 0.048143)
(0.000880909 0.0145684 -0.00327694)
(-0.0200147 0.0121686 -0.000675839)
(-0.0214552 0.00897101 -6.91634e-06)
(-0.0218786 0.00461985 -3.66246e-06)
(-0.0239704 0.00476784 -6.04885e-06)
(-0.0215957 0.00160551 -5.69976e-06)
(-0.0189384 0.00204571 -3.22129e-06)
(-0.0198048 0.0017336 -6.90913e-06)
(-0.015081 0.00119016 -5.28626e-06)
(-0.0123639 -4.95861e-05 -0.000975805)
(-0.00807891 0.00193604 0.000521972)
(-0.00157942 0.00464002 0.000727199)
(-0.00330184 0.00518003 -0.000451789)
(-0.00350056 0.000564979 -0.00025242)
(-0.0012498 0.000755393 0.000418826)
(0.00053576 0.000356406 0.000116756)
(0.00150806 -0.00214499 -0.000788268)
(0.000189939 -0.000768244 -0.000220933)
(0.00100228 -0.00122053 5.80969e-05)
(0.00310903 -0.00298994 -0.000271419)
(0.00246392 -0.00304115 -0.000461007)
(0.0015781 0.000571422 -6.75555e-05)
(0.00204805 0.00188044 1.65701e-05)
(0.00236291 0.00013534 0.000582258)
(0.00252821 0.00214143 0.000259152)
(0.00172949 0.00141359 0.000199341)
(0.000425666 -0.00409905 -0.000689021)
(-0.000612232 -0.00388853 -0.000415748)
(0.000578742 0.000433741 5.20923e-06)
(0.00702754 0.00207935 -9.61067e-05)
(0.0154344 -0.000995441 1.00677e-05)
(0.0202617 -0.00318057 0.000578287)
(0.0205377 -0.00230236 -0.000178519)
(0.0213537 -0.000284169 -0.000970642)
(0.0266202 0.00150364 0.000369071)
(0.0295553 0.000151859 0.000130739)
(0.0243314 -0.000837862 -3.53243e-05)
(0.0192936 0.00181537 -0.000386964)
(0.0229882 0.00167243 6.40281e-05)
(0.0287556 -0.00181605 0.000117089)
(0.0291283 -0.00198297 -0.000280229)
(0.0285917 0.000421025 0.00017484)
(0.0286842 0.00138021 0.000444557)
(0.0253712 0.000424126 8.10957e-06)
(-0.00144277 -0.00418403 -0.000221907)
(-0.0112798 -0.0022562 -0.000119825)
(-0.0115422 -0.00468234 0.000923514)
(-0.0179163 0.00158757 -0.00170446)
(-0.0209013 -0.00704332 -0.00771996)
(-0.00769262 0.00414499 0.0305588)
(-0.00909256 0.0540833 -0.0133822)
(-0.0272591 0.0104078 0.00189152)
(-0.029244 0.00727271 0.00192389)
(-0.0267476 0.0055329 -5.80966e-06)
(-0.0264704 0.00380581 -7.1258e-06)
(-0.0267037 0.00419296 -7.06154e-06)
(-0.0190091 -0.000727665 -5.32309e-06)
(-0.0167623 -0.000645096 -4.87905e-06)
(-0.0165305 0.00109953 -2.9257e-06)
(-0.0110188 -0.000371592 1.10562e-06)
(-0.00286971 0.00185195 0.000309411)
(-0.000751795 0.00202471 -0.000545323)
(-0.00697285 -0.000437874 0.000166455)
(-0.00651975 0.000397079 -0.000183569)
(-0.000851983 0.00143362 -0.000504652)
(-0.000872832 0.000200616 -8.55694e-05)
(0.000503371 -0.00104187 -0.000354601)
(0.00182257 -0.000556116 0.000372338)
(0.000552435 0.00113077 9.38694e-05)
(0.000767638 7.89539e-05 -0.000185989)
(0.00402057 -0.00210647 0.000603419)
(0.00427052 0.000454343 1.85706e-06)
(0.00104407 -0.000851846 0.000451215)
(0.00197277 -0.00265383 0.000490219)
(0.00226643 -0.0012617 -0.00102402)
(-0.00189132 -0.00272863 -0.000826228)
(-0.00146728 -0.00415253 -0.000641424)
(0.0035365 -0.0029365 3.71395e-05)
(0.0056193 0.00132521 0.000525713)
(0.00606796 0.00381709 0.000272963)
(0.0114151 0.000552242 -0.000435049)
(0.0192471 -0.00192117 2.10613e-05)
(0.02234 -0.000941 -1.68449e-05)
(0.0236529 0.000849925 -0.00011036)
(0.0261403 0.00139258 0.000240779)
(0.0266568 -0.00165085 0.000492681)
(0.0246824 -0.00400149 -0.000167955)
(0.0223046 -0.00102722 -2.84567e-05)
(0.0225783 0.00183178 0.00027241)
(0.0267189 0.000118184 -0.000162571)
(0.0302283 -0.000716567 -0.000202016)
(0.0306029 0.00154387 0.00028035)
(0.0282903 0.00144226 9.74752e-05)
(0.0239065 -0.000369477 2.14894e-05)
(0.000647614 -0.00326117 -0.00103623)
(-0.00175625 -0.00346221 -0.000300945)
(-0.0014182 0.0069588 5.36255e-05)
(0.0066247 0.00452459 0.00311626)
(-0.00768077 0.0300819 -0.00552123)
(-0.0369555 0.00633531 -0.0226564)
(0.0253311 0.110759 -0.0135128)
(-0.0254001 0.00334616 0.00290967)
(-0.0275445 0.00218737 -2.5894e-06)
(-0.0262109 0.00337868 -0.00105169)
(-0.0256417 0.000942969 -7.53585e-06)
(-0.0272684 0.00174039 -5.44751e-06)
(-0.0249795 0.00103395 -6.41005e-06)
(-0.0175186 -0.000810682 -4.89513e-06)
(-0.014743 0.0014852 -2.14869e-06)
(-0.0114194 0.00206906 -2.16315e-06)
(-0.00508632 0.00179973 -3.64527e-06)
(-0.00444441 -0.00185561 -0.000451647)
(-0.00533327 -0.00515432 -2.47029e-05)
(-0.00116095 0.000608963 -0.000242948)
(-0.00149841 0.00182168 0.000436395)
(-0.00255965 -0.000142635 -5.21715e-07)
(0.000563156 0.000903472 0.000313687)
(0.00290575 0.000237225 0.000496869)
(0.00179201 0.00184574 -0.000381314)
(-0.000939155 0.00253013 -0.000601098)
(0.0029384 0.000416389 0.000196163)
(0.00314173 -0.000711076 -1.22045e-06)
(-0.00183766 -0.00325535 0.000391509)
(0.00185538 -0.00366921 -0.0007894)
(0.00243243 -0.00258957 -0.000418294)
(-0.00188344 -0.00346894 0.00098434)
(0.000169657 -0.00176248 5.94345e-07)
(0.00623886 -0.000683513 7.04813e-06)
(0.00901938 0.00126539 5.0834e-05)
(0.00605563 0.00317265 -0.000962297)
(0.00826329 0.00189644 -0.000347262)
(0.0183995 4.17308e-05 1.9347e-05)
(0.0240024 0.000683546 0.000251434)
(0.0242686 0.0017472 0.000311547)
(0.02349 0.000381091 0.000178589)
(0.0228136 -0.00331393 -0.000270049)
(0.0251173 -0.00506408 -6.13361e-05)
(0.026585 -0.00249073 0.000218098)
(0.0244149 0.00082125 0.000488882)
(0.0255712 0.000809611 -0.000435232)
(0.0309142 0.000903375 -3.36855e-05)
(0.0312877 0.00268227 3.27369e-05)
(0.0262944 0.00140944 -1.77989e-06)
(0.0240308 -0.00107124 -0.000358928)
(-0.00166965 0.00504356 -0.00101163)
(0.00153444 -0.000538745 0.000371644)
(-0.00155848 0.00121691 0.00129702)
(-0.00410461 -0.00470478 0.000221371)
(-0.00423926 -0.0347922 0.00584345)
(-0.0286807 -0.0251137 0.0423461)
(-0.19666 0.0388099 0.0813326)
(-0.0307466 0.00121438 -0.00128209)
(-0.0292143 -0.000933248 -1.71052e-06)
(-0.028306 -0.00184692 0.00095111)
(-0.0285129 -0.00171558 0.000140628)
(-0.026591 -0.00353963 -6.0886e-05)
(-0.0221989 7.3182e-05 -0.000316196)
(-0.0161929 0.000117203 -2.04158e-06)
(-0.0129329 0.00194072 0.000144595)
(-0.0106269 0.00202642 0.000365658)
(-0.00777998 0.00258988 -3.26048e-06)
(-0.0094445 -0.000689216 -1.87617e-05)
(-0.003882 -0.00283771 -0.000528768)
(0.00219482 -0.000868446 0.000295661)
(-0.00179508 -6.9264e-05 -2.431e-06)
(-0.00201602 -0.000414793 -0.000429333)
(0.000977556 0.000957496 -0.000416567)
(0.00300467 0.00141494 0.00029738)
(0.00341934 0.00153799 -0.000585024)
(-0.00102126 0.00287626 1.36231e-06)
(-2.89171e-05 0.00215989 0.000241686)
(-0.000320033 -0.00129374 7.46138e-05)
(-0.0026505 -0.00220849 -0.000987974)
(0.00280723 -0.00141214 -0.00037319)
(0.00251441 -0.00131343 0.000481942)
(-0.000853795 -0.00105583 -6.16452e-05)
(0.00201465 -0.000617623 -0.000602571)
(0.00732318 0.000758631 -6.70036e-07)
(0.0104401 0.00131133 0.000160477)
(0.00685352 0.00183851 -2.67031e-06)
(0.00750154 0.00328078 0.000620537)
(0.0177342 0.00224408 -9.01628e-07)
(0.0244728 0.00103085 -2.85354e-05)
(0.0232721 0.00103808 0.000314234)
(0.0198113 -0.000824155 -1.90584e-05)
(0.0198529 -0.00361572 -0.000898587)
(0.0257161 -0.00411765 0.00012196)
(0.0296619 -0.00248618 0.000814311)
(0.0266992 -0.000426158 -7.67689e-05)
(0.0268211 0.00101104 -4.7893e-05)
(0.03257 0.00282664 0.00036864)
(0.0312316 0.00361302 0.000387299)
(0.023596 0.00176646 -0.00036878)
(0.0234895 -0.000131536 -0.00010122)
(-0.00630613 0.00130721 0.00182126)
(-0.00649645 0.000918251 0.000975519)
(-0.0066166 -0.00370713 -0.000189288)
(-0.0312543 9.45156e-06 -0.001985)
(-0.00189014 0.0100551 -0.020015)
(0.00717087 0.012902 0.0471844)
(0.0424375 0.0233139 -0.00335345)
(-0.0305164 -0.0028526 -0.00103647)
(-0.0313083 -0.00444992 -7.61046e-06)
(-0.0271859 -0.00547505 6.55773e-05)
(-0.027759 -0.00227371 -0.000249269)
(-0.0250253 -0.0011258 -8.20685e-06)
(-0.0204125 0.0015499 0.000327024)
(-0.0151818 0.00178266 -6.84203e-06)
(-0.0123582 0.00042465 -0.000554131)
(-0.0106073 0.000719521 -0.000226825)
(-0.00848505 0.000806939 3.25552e-06)
(-0.0112276 0.00142027 0.000325915)
(-0.00555158 -0.000269478 -0.000107059)
(0.00229848 -0.00267416 -0.000325408)
(-0.000932142 -0.0021392 2.31554e-05)
(-0.00127347 -0.000635676 -0.000416421)
(0.00285002 -0.000222127 4.77735e-06)
(0.00363171 0.00210935 0.00062134)
(0.00362044 0.00135295 0.000397745)
(-0.000164155 0.00183103 4.01573e-05)
(-0.00227697 0.00238302 -0.000235565)
(-0.00231542 -0.000543496 -0.000376641)
(-0.00198384 0.000261284 -3.33919e-06)
(0.00297336 0.00169367 0.000819954)
(0.0028774 0.000454782 0.000513214)
(-0.00101322 -0.000346319 -0.000359323)
(0.00243905 -0.000635471 -0.000144904)
(0.00864932 0.00174297 6.31345e-06)
(0.0103689 0.00142315 0.000311533)
(0.00851792 0.000219499 -6.42305e-06)
(0.00876683 0.00283466 0.000156539)
(0.0155869 0.0032321 5.24129e-06)
(0.0224965 0.000702471 -0.000125675)