/*--------------------------------*- C++ -*----------------------------------*\
| =========                 |                                                 |
| \\      /  F ield         | OpenFOAM: The Open Source CFD Toolbox           |
|  \\    /   O peration     | Version:  5.0                                   |
|   \\  /    A nd           | Web:      www.OpenFOAM.org                      |
|    \\/     M anipulation  |                                                 |
\*---------------------------------------------------------------------------*/
FoamFile
{
    version     2.0;
    format      ascii;
    class       surfaceScalarField;
    location    "0.3";
    object      phi;
}
// * * * * * * * * * * * * * * * * * * * * * * * * * * * * * * * * * * * * * //

dimensions      [0 3 -1 0 0 0 0];

internalField   nonuniform List<scalar> 
12667
(
1.43508e-09
5.51725e-12
-5.04887e-11
1.42166e-09
-9.38331e-12
2.42347e-11
1.36877e-09
3.4037e-11
4.76891e-11
2.52805e-10
-3.29561e-11
1.71404e-10
1.81091e-10
3.99113e-10
3.91569e-10
-1.54487e-11
-8.02025e-11
9.46313e-11
5.8028e-11
5.92674e-11
9.37422e-11
-1.85198e-10
7.88159e-11
-7.11271e-13
1.06896e-10
-3.57775e-11
2.02746e-10
5.33729e-12
-6.18684e-12
-3.53289e-11
-6.60172e-11
-6.47345e-11
1.39055e-09
-1.60554e-11
-3.0383e-11
-2.51056e-10
-2.48405e-10
-4.24962e-10
-4.18903e-10
1.40615e-09
-1.37771e-11
-1.41771e-12
1.41675e-09
-1.0551e-11
2.05406e-13
1.42436e-09
-7.49957e-12
-5.47401e-13
1.42954e-09
-5.09741e-12
8.18936e-14
1.43281e-09
-3.37006e-12
5.45691e-14
1.43513e-09
-2.17091e-12
-2.94894e-14
1.43654e-09
-1.3739e-12
-1.16442e-14
1.43739e-09
-3.78631e-13
-6.15327e-13
1.43789e-09
-5.16286e-13
-3.28704e-14
1.43844e-09
-4.73895e-13
1.04305e-13
1.43865e-09
-2.54937e-13
-6.19635e-14
1.43908e-09
-4.94759e-14
3.04381e-13
1.43919e-09
-1.03071e-13
-3.98241e-13
1.43909e-09
1.6886e-14
6.62788e-13
1.43905e-09
1.77032e-15
4.43417e-14
1.43891e-09
4.99371e-13
-2.97627e-13
1.43905e-09
-1.26485e-14
-1.94658e-14
1.43912e-09
7.00019e-14
5.4724e-15
1.43892e-09
-6.15375e-15
-9.95243e-15
1.43884e-09
-5.19978e-14
6.67237e-14
1.43915e-09
-1.525e-13
9.91945e-14
1.43914e-09
5.11764e-14
-1.51398e-14
1.43853e-09
-8.59942e-13
1.5937e-12
1.43862e-09
-4.62775e-13
2.3425e-13
1.4396e-09
-1.22803e-12
6.4513e-14
1.43946e-09
-1.19571e-12
1.43821e-12
1.43929e-09
1.16618e-13
-1.98858e-14
1.43915e-09
3.54339e-13
-1.44667e-13
1.43918e-09
-1.38201e-13
2.51053e-13
1.43916e-09
6.95467e-14
4.91221e-15
1.43908e-09
1.35322e-13
1.5583e-14
1.43916e-09
1.72804e-13
-7.40901e-14
1.43929e-09
-1.42768e-14
-4.64052e-15
1.43929e-09
-1.0417e-15
-1.54932e-13
1.43905e-09
6.72626e-14
-3.88579e-15
1.43925e-09
-7.80709e-13
6.59456e-13
1.4391e-09
-1.85412e-13
3.71177e-13
1.43906e-09
1.54358e-13
-1.43242e-13
1.43896e-09
8.00117e-15
3.6743e-14
1.43894e-09
-9.29109e-14
-1.16534e-14
1.43919e-09
-2.53637e-13
-3.54678e-14
-8.20553e-15
2.42364e-13
1.45776e-09
1.43612e-11
-7.77195e-11
1.43896e-09
-4.45934e-12
1.38795e-11
1.44416e-09
1.99041e-11
8.92612e-12
2.66167e-10
-3.30875e-11
5.46178e-11
2.36762e-10
4.59017e-10
4.27725e-10
4.24434e-12
2.31935e-10
-3.55155e-12
3.35394e-11
-3.755e-11
-6.82782e-11
9.45987e-11
9.62225e-12
1.60881e-12
-3.01271e-11
-2.00918e-12
1.86274e-10
-7.15559e-12
-5.03453e-12
-3.01063e-11
-5.57086e-11
-5.61338e-11
1.38363e-09
-5.49486e-11
-2.92944e-11
-2.42869e-10
-2.46357e-10
-4.09695e-10
-4.16527e-10
1.40788e-09
-3.71496e-11
-8.62883e-13
1.42033e-09
-2.33624e-11
3.59662e-13
1.42781e-09
-1.49775e-11
6.27098e-16
1.43217e-09
-9.50503e-12
4.17552e-14
1.43482e-09
-6.02625e-12
9.97085e-15
1.43645e-09
-3.80263e-12
2.87699e-15
1.43746e-09
-2.39053e-12
5.96328e-15
1.43795e-09
-1.42168e-12
5.61279e-13
1.43846e-09
-1.53787e-12
5.07351e-13
1.43883e-09
-1.4963e-12
6.51813e-13
1.43878e-09
9.90393e-13
-1.19292e-12
1.43883e-09
9.87181e-14
-1.93648e-13
1.43886e-09
5.29855e-13
-6.67081e-13
1.43905e-09
-1.14584e-13
-6.00037e-14
1.43889e-09
1.47634e-13
1.82165e-14
1.43898e-09
1.41937e-13
2.71494e-13
1.43919e-09
-2.05996e-13
-2.47497e-14
1.43943e-09
-4.79937e-15
-1.59648e-13
1.4395e-09
1.25762e-14
-8.93451e-14
1.44002e-09
-5.83838e-13
1.4012e-14
1.43866e-09
3.34926e-12
-2.14352e-12
1.43857e-09
-1.22193e-12
1.36848e-12
1.43954e-09
-3.75179e-13
-1.45448e-12
1.43944e-09
-1.8844e-13
-1.74425e-13
1.43835e-09
6.1329e-14
-2.04608e-13
1.43852e-09
2.1562e-13
-1.58252e-12
1.43876e-09
-1.65241e-13
4.67429e-14
1.43913e-09
-2.165e-13
2.03972e-13
1.43912e-09
1.38095e-13
-2.74469e-13
1.4392e-09
1.71789e-13
-1.73356e-13
1.43918e-09
1.59888e-13
-7.81434e-15
1.43919e-09
5.07668e-14
1.0916e-13
1.4393e-09
-1.07512e-13
-1.26224e-14
1.43937e-09
-6.15156e-14
-6.27406e-15
1.43922e-09
1.61585e-13
5.69692e-14
1.43897e-09
9.15044e-14
-6.27453e-13
1.4389e-09
3.80972e-13
-4.92257e-13
1.43881e-09
1.24243e-13
1.13512e-13
1.43931e-09
-7.38288e-13
2.53134e-13
1.43919e-09
3.04607e-13
-2.74726e-13
1.43894e-09
-2.98028e-14
1.68819e-14
-1.56064e-13
9.7717e-14
1.42544e-09
1.56227e-11
-3.78189e-11
1.38355e-09
1.87147e-12
3.55561e-11
1.36087e-09
6.36196e-11
-2.10313e-11
1.52043e-10
-1.69366e-11
1.61319e-10
2.54418e-10
3.70982e-10
4.05953e-10
-8.9988e-12
1.61513e-10
4.40969e-11
-4.45691e-11
-1.72783e-12
-2.88435e-11
6.36722e-11
-5.66511e-12
-2.74356e-11
-4.02051e-11
1.05777e-11
1.96266e-10
3.08898e-11
-3.80096e-11
-6.82996e-11
-6.20414e-11
-4.52001e-12
-9.82329e-12
-9.70217e-12
-5.11776e-12
1.42533e-09
-6.14734e-11
-3.17079e-11
-2.51004e-10
-2.64424e-10
-4.19441e-10
-4.52224e-10
1.43305e-09
-4.32508e-11
-1.59969e-12
1.43578e-09
-2.63111e-11
2.2151e-13
1.43747e-09
-1.6584e-11
-8.12077e-14
1.43826e-09
-1.03106e-11
7.97225e-15
1.43867e-09
-6.42649e-12
-7.95092e-15
1.43888e-09
-4.00705e-12
-2.43467e-15
1.43899e-09
-2.50913e-12
4.27572e-15
1.43912e-09
-1.57596e-12
2.5323e-14
1.4391e-09
-1.02921e-12
-4.7991e-13
1.43914e-09
-7.79577e-13
-7.577e-13
1.43896e-09
6.3869e-13
5.34803e-13
1.43922e-09
-3.70387e-13
2.0639e-13
1.43871e-09
1.08561e-12
-4.6472e-14
1.43876e-09
-1.62532e-13
2.43932e-15
1.43905e-09
-1.1382e-13
-2.80709e-14
1.43909e-09
9.94799e-14
2.16762e-15
1.43897e-09
-7.43074e-14
-1.17899e-14
1.43899e-09
-1.40188e-13
1.16138e-13
1.43882e-09
1.10576e-13
6.75487e-14
1.43827e-09
-9.49573e-15
-2.04345e-14
1.43947e-09
-3.72352e-13
2.52292e-12
1.43957e-09
-5.17312e-13
-8.07373e-13
1.43919e-09
5.30858e-13
-5.28274e-13
1.43949e-09
-6.86273e-13
2.02205e-13
1.43926e-09
-9.62398e-14
3.92015e-13
1.43925e-09
-1.45689e-13
3.70112e-13
1.43909e-09
2.75198e-13
-2.83825e-13
1.43909e-09
-1.63978e-13
-4.87929e-14
1.43912e-09
6.90609e-14
3.68873e-14
1.439e-09
1.60747e-13
1.28246e-13
1.43918e-09
8.19441e-15
-2.19027e-14
1.43928e-09
-5.29293e-14
6.40943e-16
1.43925e-09
-5.63058e-14
-2.17464e-14
1.43904e-09
7.39711e-14
7.24282e-14
1.439e-09
2.39318e-13
-3.59206e-14
1.43913e-09
-1.67015e-13
1.35089e-13
1.4394e-09
-1.24503e-13
2.27792e-13
1.43966e-09
-1.78937e-13
4.83276e-14
1.43896e-09
2.38312e-13
-2.73898e-13
1.4389e-09
1.71171e-13
1.9422e-13
1.43876e-09
-2.50459e-13
3.57057e-13
2.61363e-13
-3.07777e-13
1.46741e-09
1.22088e-11
-7.51103e-11
1.45125e-09
-5.57655e-12
2.36051e-11
1.46682e-09
4.52464e-11
2.80069e-12
2.77816e-10
-5.17185e-11
4.93296e-11
2.75165e-10
4.64585e-10
4.34706e-10
-2.86652e-11
2.33112e-10
2.16254e-11
5.17437e-11
-2.63712e-11
-4.53995e-11
2.38764e-11
-2.03824e-11
6.82763e-11
-8.9541e-11
1.73274e-12
-3.30224e-12
6.08649e-11
3.02457e-11
1.45901e-09
-6.96551e-11
-2.76716e-11
-2.66855e-10
-2.66225e-10
-4.47265e-10
-4.42798e-10
1.4567e-09
-3.92617e-11
-1.66654e-12
1.45165e-09
-2.17877e-11
5.34947e-13
1.44773e-09
-1.25875e-11
-7.88201e-14
1.44482e-09
-7.43325e-12
3.34294e-14
1.44279e-09
-4.39276e-12
-7.51154e-15
1.44146e-09
-2.66955e-12
-4.04108e-15
1.44059e-09
-1.62917e-12
-6.33486e-15
1.44004e-09
-1.02731e-12
-2.53537e-15
1.43964e-09
-6.19456e-13
-6.6084e-15
1.43912e-09
-4.09846e-13
1.45305e-13
1.43941e-09
-4.59566e-13
8.18852e-13
1.43909e-09
-1.11683e-13
5.31447e-14
1.43938e-09
3.501e-14
7.68349e-13
1.43917e-09
4.34916e-14
4.33965e-15
1.43924e-09
-1.84855e-13
2.54926e-15
1.43913e-09
1.70785e-13
3.64882e-14
1.43898e-09
5.51379e-14
1.53841e-14
1.43891e-09
-7.12353e-14
2.47557e-15
1.43907e-09
4.98267e-15
-5.54101e-14
1.43895e-09
3.50353e-13
-2.40527e-13
1.43902e-09
-4.26149e-13
-7.38653e-15
1.43935e-09
-3.53552e-13
-5.00652e-13
1.43944e-09
-8.09122e-14
5.27229e-13
1.43898e-09
-1.92408e-13
-3.66812e-14
1.4391e-09
-1.4451e-13
-6.5231e-14
1.43889e-09
2.70103e-13
-2.10725e-13
1.43935e-09
-1.82042e-13
-3.57405e-15
1.43914e-09
2.1424e-14
2.84308e-14
1.43905e-09
1.89978e-13
-3.06021e-14
1.43909e-09
1.19275e-13
-3.73269e-15
1.43914e-09
-5.13834e-14
1.54368e-14
1.43925e-09
-1.39715e-13
-2.37436e-14
1.43915e-09
2.90054e-14
1.96739e-14
1.4391e-09
1.06766e-13
1.44298e-14
1.43928e-09
5.15045e-14
1.75164e-15
1.43927e-09
-4.20082e-14
-1.11807e-13
1.43939e-09
-2.36515e-13
-3.8806e-15
1.43971e-09
-4.53652e-13
-4.44092e-14
1.4385e-09
1.79761e-13
1.26863e-12
1.4389e-09
-3.61968e-13
1.33586e-13
1.43879e-09
2.58151e-13
-3.96084e-13
1.3044e-13
3.77536e-13
1.45094e-09
5.83321e-12
-5.5679e-11
1.43018e-09
-2.43892e-12
1.76158e-11
1.4189e-09
1.92697e-11
3.72628e-11
1.80696e-10
2.37026e-12
1.22313e-10
2.89675e-10
2.89625e-10
4.82498e-10
-8.28919e-12
1.32466e-10
6.37499e-11
-7.22991e-12
-2.25007e-11
-1.50853e-11
1.68497e-11
2.48065e-11
-4.07021e-12
-2.3938e-10
1.36044e-11
-3.198e-12
1.84795e-10
4.41766e-11
1.52946e-09
3.18276e-12
-3.40229e-11
-2.87093e-10
-2.97174e-10
-4.80003e-10
-5.04004e-10
1.49224e-09
4.69415e-13
-2.47461e-12
1.47023e-09
-1.88878e-13
4.19479e-13
1.45771e-09
2.71905e-16
-5.56131e-14
1.4505e-09
-1.42591e-13
-7.93502e-14
1.44596e-09
1.46406e-13
-1.05984e-15
1.44333e-09
-4.10929e-15
-3.29013e-14
1.44168e-09
4.68498e-14
-2.11005e-14
1.44081e-09
-1.23115e-13
-3.47511e-14
1.4401e-09
-1.09193e-14
1.01432e-13
1.43976e-09
-6.51778e-14
-7.60591e-15
1.43942e-09
1.45415e-13
-2.60792e-13
1.43913e-09
2.35362e-13
-5.57976e-14
1.43917e-09
2.24038e-15
-6.04409e-15
1.43931e-09
2.9649e-13
-3.92144e-13
1.43904e-09
3.30497e-14
4.83523e-14
1.43922e-09
1.20375e-14
-1.45632e-14
1.43915e-09
1.93499e-13
-7.51122e-14
1.43906e-09
6.02524e-14
-3.56489e-14
1.43877e-09
9.11642e-15
2.87321e-13
1.43878e-09
3.69699e-13
-3.27991e-14
1.43831e-09
4.53935e-13
-4.11945e-13
1.43975e-09
-3.51769e-12
1.7306e-12
1.43937e-09
3.22688e-13
-2.58203e-14
1.43953e-09
-2.61273e-13
-8.85307e-14
1.43922e-09
8.93894e-14
7.36295e-14
1.43936e-09
7.52371e-14
5.10538e-14
1.43906e-09
-9.21112e-14
2.09927e-13
1.43913e-09
-1.75786e-14
-2.8481e-14
1.43917e-09
5.84663e-13
-4.37073e-13
1.43911e-09
3.51647e-13
-1.69341e-13
1.43906e-09
4.68563e-15
-3.58157e-15
1.43894e-09
-9.31007e-16
-2.35587e-14
1.43895e-09
2.40251e-14
-4.43929e-15
1.43897e-09
8.79041e-14
5.09752e-15
1.43902e-09
2.36843e-14
-1.99953e-14
1.43905e-09
-5.44361e-14
-1.82619e-14
1.43899e-09
-3.58733e-13
1.82046e-13
1.43888e-09
-3.218e-13
-2.38302e-14
1.44013e-09
1.2335e-12
-2.30202e-12
1.43974e-09
-1.41444e-12
1.44746e-12
1.43834e-09
1.49893e-12
1.57272e-13
-6.44084e-14
-1.0957e-13
1.47676e-09
3.094e-12
-8.5135e-11
1.46364e-09
1.6272e-12
9.05511e-12
1.54529e-09
-2.64587e-11
-3.59286e-11
2.36085e-10
4.70548e-11
4.46126e-11
3.19608e-10
3.82847e-10
5.17453e-10
-2.5996e-11
8.32525e-11
-3.47125e-11
2.13541e-10
1.44748e-12
-2.48314e-11
4.52326e-11
9.78934e-12
-3.16379e-11
-2.09557e-10
-5.16145e-14
1.68551e-12
1.60563e-10
4.73607e-11
1.52821e-09
6.86866e-11
-3.17768e-11
-2.97189e-10
-2.84569e-10
-5.04136e-10
-4.76022e-10
1.49202e-09
3.91967e-11
-2.55174e-12
1.4701e-09
2.16946e-11
2.90628e-14
1.45776e-09
1.25407e-11
-2.00286e-13
1.4503e-09
7.33128e-12
-6.2458e-15
1.44608e-09
4.43439e-12
-6.00248e-14
1.44341e-09
2.6688e-12
-7.20013e-15
1.44179e-09
1.63135e-12
4.02916e-14
1.44065e-09
1.01415e-12
1.71963e-15
1.44007e-09
7.01674e-13
-1.30831e-13
1.43988e-09
7.73608e-13
-6.45583e-13
1.43943e-09
6.52302e-13
-5.83054e-14
1.43912e-09
6.76306e-13
-1.30211e-13
1.43963e-09
-1.67121e-12
1.16159e-12
1.43925e-09
2.61451e-13
4.21439e-13
1.43917e-09
7.98994e-14
2.67225e-14
1.4391e-09
-8.04062e-14
1.6493e-13
1.4391e-09
1.10067e-13
8.37157e-14
1.43903e-09
9.18141e-14
3.82496e-14
1.43915e-09
4.86473e-16
-1.087e-13
1.4394e-09
-1.34164e-13
2.5481e-13
1.43957e-09
2.28249e-13
5.18069e-14
1.43835e-09
-5.63092e-13
-1.7346e-12
1.43924e-09
-5.59511e-13
-8.11106e-15
1.43896e-09
2.12043e-13
-1.88295e-13
1.43891e-09
1.86491e-13
-4.89961e-14
1.43904e-09
-5.24104e-14
-4.44202e-16
1.43904e-09
-7.60431e-14
-1.29207e-14
1.43902e-09
2.0012e-14
-2.30019e-14
1.43908e-09
2.57806e-15
5.2158e-13
1.43918e-09
8.67291e-14
1.71206e-13
1.43909e-09
6.88618e-14
2.39529e-14
1.43891e-09
1.45894e-13
2.90073e-14
1.43889e-09
4.78992e-14
-3.78587e-15
1.439e-09
7.19594e-14
-8.66047e-14
1.43902e-09
9.67898e-14
-9.43645e-14
1.43911e-09
-1.0777e-13
-3.53551e-14
1.43895e-09
-7.71287e-15
-1.89127e-13
1.43867e-09
-2.69566e-14
-1.866e-14
1.43881e-09
8.44692e-14
1.01541e-12
1.43909e-09
-2.47859e-13
-1.44978e-12
1.44017e-09
5.32457e-13
-1.10535e-13
3.8521e-13
-8.10703e-14
1.43622e-09
-1.69809e-11
-2.72568e-11
1.44917e-09
-9.24511e-12
-2.08644e-12
1.48405e-09
-5.8491e-11
-2.84545e-12
2.42648e-10
1.10838e-11
6.48875e-11
2.78537e-10
4.76655e-10
4.57291e-10
4.65747e-11
1.51907e-10
-1.28709e-11
5.70375e-11
1.76367e-11
-7.79753e-12
2.14481e-11
-1.60592e-11
-1.52279e-11
-1.0685e-10
-1.12504e-11
5.66617e-12
7.4568e-11
3.78679e-11
1.45762e-09
5.89986e-11
-2.76823e-11
-2.65257e-10
-2.66628e-10
-4.41356e-10
-4.47023e-10
1.45617e-09
4.22716e-11
-1.66107e-12
1.45149e-09
2.58575e-11
5.14341e-13
1.4477e-09
1.63684e-11
-3.86474e-14
1.4448e-09
1.02105e-11
3.32398e-14
1.44285e-09
6.38869e-12
1.85028e-15
1.44154e-09
3.98591e-12
-3.26636e-15
1.44069e-09
2.48352e-12
-5.16765e-15
1.44021e-09
1.49323e-12
1.16262e-15
1.44006e-09
8.50255e-13
8.7977e-15
1.43997e-09
2.6743e-13
5.91299e-13
1.43878e-09
4.05329e-12
-2.20471e-12
1.43934e-09
1.29521e-13
-2.18257e-14
1.43893e-09
-8.27275e-14
-1.1727e-12
1.43915e-09
6.15387e-14
-2.10445e-14
1.43895e-09
3.66205e-13
-8.72991e-14
1.43898e-09
3.46803e-14
-1.43093e-13
1.43891e-09
2.51307e-13
-7.4313e-14
1.43898e-09
5.07256e-14
-2.14849e-14
1.4389e-09
3.21314e-15
7.14651e-14
1.43936e-09
-4.61812e-13
-1.32768e-13
1.43917e-09
-7.98095e-13
1.21842e-12
1.43852e-09
-1.96137e-13
2.86005e-13
1.43943e-09
-9.63728e-13
-5.08441e-13
1.43937e-09
3.43278e-13
-6.96608e-14
1.43925e-09
2.34346e-13
7.21984e-14
1.43915e-09
5.45282e-14
-5.83765e-15
1.439e-09
8.87527e-14
-1.18918e-14
1.43913e-09
-5.20035e-13
4.10987e-13
1.43896e-09
2.56914e-13
-8.78518e-14
1.4391e-09
-5.89685e-14
1.0016e-14
1.43907e-09
8.95897e-14
8.22218e-15
1.43897e-09
2.55262e-13
-1.47299e-14
1.43894e-09
1.09294e-13
-2.44587e-14
1.43896e-09
-5.66367e-14
1.0713e-13
1.43904e-09
-1.73482e-14
3.90821e-14
1.43893e-09
-5.22831e-15
-3.54193e-16
1.4388e-09
1.29722e-13
-1.443e-15
1.43834e-09
4.00069e-13
3.24947e-14
1.43909e-09
-1.56763e-12
8.99031e-13
1.43962e-09
-1.8974e-12
1.11697e-12
1.43988e-09
2.57323e-13
2.39526e-14
1.41208e-13
1.66207e-13
1.4544e-09
-1.43259e-11
-6.81734e-11
1.43128e-09
-1.62575e-11
3.01374e-11
1.44866e-09
-6.01616e-11
-1.57185e-11
1.93658e-10
2.55006e-12
1.35887e-10
2.58172e-10
3.54631e-10
5.14846e-10
3.5701e-11
1.11097e-10
-5.55637e-11
1.02424e-10
3.88446e-12
-9.23605e-12
1.46141e-11
-2.82748e-12
-6.43491e-12
-4.26608e-11
-1.615e-12
3.76068e-12
8.70771e-12
3.18075e-11
1.42671e-09
5.44779e-11
-3.19827e-11
-2.64898e-10
-2.51526e-10
-4.53189e-10
-4.20609e-10
1.43368e-09
3.68406e-11
-1.56113e-12
1.43611e-09
2.32352e-11
1.90283e-13
1.43766e-09
1.4912e-11
-8.10608e-14
1.43838e-09
9.48502e-12
1.0858e-14
1.43876e-09
6.01853e-12
-6.74129e-15
1.43895e-09
3.80763e-12
-4.07495e-15
1.43903e-09
2.39808e-12
1.00397e-14
1.43906e-09
1.45359e-12
1.17148e-14
1.43897e-09
3.60203e-13
5.75515e-13
1.43853e-09
2.23156e-13
4.83004e-13
1.43957e-09
8.00763e-13
2.21479e-12
1.4395e-09
2.03404e-13
8.01983e-16
1.43926e-09
1.73174e-13
-2.45808e-14
1.43923e-09
1.10406e-13
-1.37913e-14
1.43885e-09
8.50796e-13
-1.02169e-13
1.43889e-09
-2.21122e-14
2.17906e-14
1.43925e-09
-3.21385e-13
2.09375e-13
1.4394e-09
-5.02459e-14
-4.8335e-14
1.43962e-09
1.68875e-13
-3.83756e-13
1.43895e-09
1.18717e-12
-9.85666e-13
1.43933e-09
3.66893e-13
-1.54508e-12
1.43939e-09
-3.4519e-14
-2.15645e-13
1.43816e-09
-2.71829e-13
5.38097e-13
1.43873e-09
-1.31676e-13
-9.24475e-14
1.4391e-09
-1.54178e-13
1.33192e-14
1.43922e-09
5.94765e-15
-6.64225e-14
1.43924e-09
2.29451e-14
3.76022e-14
1.43935e-09
-2.41452e-13
-3.84109e-13
1.43887e-09
4.38502e-13
3.02443e-13
1.43874e-09
1.0405e-14
6.30899e-14
1.43893e-09
-9.7747e-14
-3.70826e-15
1.43899e-09
1.78759e-13
9.15784e-15
1.43901e-09
6.48091e-14
2.9388e-14
1.43899e-09
-3.83387e-14
6.265e-15
1.43904e-09
-7.68987e-14
7.5454e-15
1.43915e-09
-1.41983e-13
2.88227e-14
1.43924e-09
-2.18497e-14
6.20614e-14
1.43953e-09
1.14851e-13
-9.54841e-15
1.43899e-09
2.53712e-13
-1.27666e-12
1.4384e-09
-3.32842e-13
-9.77278e-13
1.43951e-09
7.44958e-13
-1.59458e-12
2.4997e-13
1.80546e-13
1.45821e-09
-6.10739e-12
-7.75394e-11
1.45143e-09
-1.24414e-12
-8.23848e-12
1.41477e-09
-3.31944e-11
9.68876e-12
1.80279e-10
1.19208e-11
2.11253e-10
2.51719e-10
3.42224e-10
4.19923e-10
5.77512e-11
1.65119e-10
-8.23736e-12
-3.4355e-11
1.17196e-11
-2.1679e-11
6.02084e-11
-3.82919e-12
-4.64192e-11
-3.23555e-11
-1.08202e-11
1.93465e-10
7.79694e-12
2.46235e-12
-3.48019e-11
-5.90798e-11
-6.66676e-11
1.38542e-09
1.73171e-11
-2.94454e-11
-2.47162e-10
-2.4324e-10
-4.18097e-10
-4.10323e-10
1.40876e-09
1.43754e-11
-8.89405e-13
1.42077e-09
1.08811e-11
3.53765e-13
1.42804e-09
7.64968e-12
6.29094e-15
1.4323e-09
5.18107e-12
4.67017e-14
1.43492e-09
3.36964e-12
2.64488e-14
1.43646e-09
2.26098e-12
1.17678e-14
1.43737e-09
1.46085e-12
2.71779e-14
1.43806e-09
-5.32361e-13
1.30605e-12
1.43847e-09
5.71869e-13
-6.19873e-13
1.43867e-09
2.86658e-13
-2.66241e-13
1.43914e-09
4.10071e-13
-7.77954e-14
1.43885e-09
3.72895e-13
1.1557e-13
1.43888e-09
1.94544e-13
-5.3409e-14
1.43884e-09
1.25256e-13
3.41587e-14
1.43952e-09
1.10329e-13
6.33471e-14
1.43933e-09
1.46121e-13
1.33165e-14
1.43904e-09
1.3614e-13
-1.59519e-13
1.43894e-09
2.17399e-13
-1.69829e-13
1.43895e-09
-1.93172e-13
3.47151e-13
1.43905e-09
2.81254e-14
1.06259e-12
1.43907e-09
8.49549e-14
2.59157e-13
1.43931e-09
-1.39731e-13
-1.36433e-13
1.43928e-09
-1.52842e-13
-7.89146e-14
1.43936e-09
-3.11926e-13
9.20779e-14
1.43869e-09
3.00647e-13
2.23283e-13
1.43903e-09
-4.07473e-13
6.9217e-14
1.43908e-09
-2.09178e-14
-1.01697e-14
1.43873e-09
9.44133e-14
1.57717e-14
1.43929e-09
1.79041e-13
-2.98156e-13
1.43934e-09
1.34642e-14
-5.22182e-14
1.43957e-09
-3.23563e-13
-4.4563e-15
1.43867e-09
1.05519e-12
3.00956e-14
1.43885e-09
1.27184e-13
-2.43001e-13
1.43881e-09
-2.55324e-14
2.87056e-14
1.4386e-09
1.52137e-13
-1.99532e-14
1.43928e-09
-6.00476e-13
-2.22276e-13
1.43945e-09
-7.67762e-13
5.76971e-13
1.43939e-09
1.07364e-13
6.3454e-14
1.43921e-09
-1.53489e-14
4.54367e-13
1.43891e-09
2.4267e-13
-2.80313e-13
1.43899e-09
-1.55697e-13
8.2474e-13
2.55778e-14
8.31111e-14
1.43845e-09
-5.68901e-11
1.42385e-09
1.19161e-11
1.41577e-09
-5.39606e-11
2.83504e-10
-8.64494e-11
3.05384e-10
4.18643e-10
5.12354e-10
-1.49914e-11
-1.9703e-11
7.68405e-11
7.6887e-11
4.29471e-11
5.79671e-11
6.35555e-11
3.99825e-11
-5.40263e-11
1.42714e-10
-9.05469e-11
-3.81231e-11
-3.31858e-11
1.49995e-12
1.96128e-10
-4.96508e-12
-5.4973e-12
-3.31712e-11
-6.04356e-11
-6.0371e-11
1.39107e-09
-3.04042e-11
-2.48602e-10
-2.51153e-10
-4.19263e-10
-4.25123e-10
1.40644e-09
-1.40312e-12
1.41686e-09
2.1612e-13
1.4245e-09
4.49142e-13
1.4296e-09
-6.90031e-14
1.43306e-09
-3.42726e-14
1.4352e-09
1.83334e-16
1.43662e-09
1.41266e-14
1.43752e-09
-1.28736e-12
1.43816e-09
-9.07889e-15
1.43849e-09
-2.2417e-13
1.43871e-09
3.02067e-13
1.43872e-09
-3.2522e-13
1.43884e-09
4.63834e-13
1.43901e-09
-6.22387e-13
1.43915e-09
-2.99148e-14
1.43923e-09
3.23579e-15
1.43925e-09
1.37231e-14
1.43914e-09
1.81917e-13
1.43912e-09
3.82282e-14
1.43931e-09
-9.90596e-14
1.43915e-09
-6.40147e-15
1.43897e-09
1.83868e-14
1.43867e-09
2.0496e-14
1.43847e-09
2.70157e-14
1.43942e-09
-4.65125e-13
1.43902e-09
-1.03678e-13
1.43906e-09
1.11374e-14
1.43905e-09
3.44049e-14
1.43909e-09
-4.10596e-15
1.43905e-09
-1.81117e-15
1.43863e-09
3.26317e-14
1.43961e-09
-1.00889e-13
1.43939e-09
2.25354e-13
1.43938e-09
1.42153e-13
1.43971e-09
5.08031e-15
1.4389e-09
1.31325e-13
1.43879e-09
-6.87015e-13
1.43896e-09
-3.39107e-14
1.43904e-09
-4.35379e-14
1.43937e-09
4.31351e-14
1.43845e-09
7.99623e-13
-2.66714e-13
2.36172e-09
6.98332e-12
6.35241e-11
2.40099e-09
-1.74363e-11
-8.39509e-12
2.36092e-09
6.66791e-11
4.70901e-11
6.37384e-10
-6.51149e-11
3.5701e-11
6.21659e-10
5.84432e-10
7.09971e-10
9.88419e-11
-9.66121e-11
1.05009e-10
1.28148e-10
1.33121e-10
1.1681e-10
1.34714e-10
-1.16249e-10
-1.14668e-10
1.53416e-10
1.29716e-11
6.46387e-11
-1.55399e-10
4.75022e-12
6.08157e-10
1.53957e-11
1.689e-14
-1.52524e-10
-1.6144e-10
-1.58382e-10
2.32169e-09
-2.75724e-11
3.03854e-11
-5.92368e-10
-5.84409e-10
-5.92367e-10
-5.84409e-10
2.34285e-09
-2.32716e-11
1.41664e-12
2.36136e-09
-1.76358e-11
-2.11932e-13
2.37388e-09
-1.24641e-11
2.96573e-14
2.38253e-09
-8.4533e-12
-1.62553e-13
2.38807e-09
-5.58649e-12
-5.07175e-14
2.39183e-09
-3.60558e-12
1.37195e-14
2.39416e-09
-2.28473e-12
-1.57016e-14
2.39564e-09
-1.43139e-12
-8.39561e-13
2.3964e-09
-8.56935e-13
-1.50882e-14
2.39741e-09
-7.29166e-13
-3.96736e-14
2.39779e-09
3.83493e-14
-2.47219e-13
2.39844e-09
-1.08666e-13
-2.64958e-13
2.39857e-09
-1.3321e-13
3.734e-13
2.39845e-09
3.95675e-14
3.07267e-13
2.39841e-09
1.89834e-14
-1.1267e-14
2.39821e-09
-5.98223e-13
6.09534e-13
2.39837e-09
3.28755e-15
-1.11944e-14
2.39843e-09
1.27391e-13
1.40197e-14
2.39816e-09
1.46865e-14
4.4972e-14
2.3979e-09
-4.92132e-14
-8.22406e-14
2.39862e-09
-1.80975e-13
-1.68629e-13
2.39834e-09
1.71709e-13
5.15348e-14
2.39757e-09
-1.02793e-12
3.30526e-12
2.39808e-09
-3.90902e-13
-6.73008e-14
2.39929e-09
-2.05395e-12
9.17568e-14
2.39906e-09
1.02631e-12
3.68628e-13
2.39876e-09
1.71183e-13
3.66357e-14
2.39854e-09
8.79827e-14
1.05987e-13
2.39855e-09
7.31725e-13
-2.75102e-13
2.39853e-09
1.11122e-13
-6.19445e-15
2.39844e-09
2.17048e-13
-2.49391e-14
2.39857e-09
-1.34976e-13
1.25699e-13
2.39872e-09
1.45406e-14
-1.69132e-14
2.39861e-09
-5.10354e-15
1.3681e-14
2.39833e-09
7.06046e-14
1.79647e-14
2.39873e-09
7.35359e-13
-7.0228e-13
2.39852e-09
8.24645e-13
-2.18979e-13
2.39847e-09
1.59139e-13
-2.3885e-13
2.39831e-09
-1.33007e-14
3.65509e-14
2.39825e-09
-1.411e-13
1.42159e-14
2.39857e-09
-3.56269e-13
-5.22976e-15
-2.60417e-13
-1.99565e-13
2.37195e-09
1.50709e-11
4.2248e-11
2.39577e-09
-1.17746e-11
-1.56108e-11
2.38296e-09
5.32842e-11
3.51337e-11
6.22277e-10
-2.94258e-11
-1.10233e-11
5.81347e-10
6.49851e-10
5.59428e-10
1.1793e-10
5.06916e-11
6.15245e-10
4.92529e-11
-2.10842e-10
-9.60697e-11
-1.24167e-11
-1.35129e-10
1.15345e-10
4.84873e-11
7.97848e-11
-1.31011e-10
3.39186e-12
-4.98963e-12
5.54665e-10
-1.91675e-11
3.04779e-14
-1.31034e-10
-1.3602e-10
-1.35864e-10
2.30952e-09
-9.01249e-11
2.92853e-11
-5.71974e-10
-5.80795e-10
-5.71974e-10
-5.80794e-10
2.34565e-09
-6.11394e-11
8.83537e-13
2.36728e-09
-3.85527e-11
-3.58607e-13
2.37958e-09
-2.47527e-11
-4.70246e-15
2.38693e-09
-1.5722e-11
-3.98606e-14
2.39134e-09
-9.97443e-12
-6.87917e-15
2.39404e-09
-6.30373e-12
2.10085e-15
2.39574e-09
-3.96579e-12
-1.23679e-14
2.39657e-09
-2.45917e-12
7.6489e-13
2.39736e-09
-1.33649e-12
1.9385e-13
2.39806e-09
-1.67479e-13
-6.04917e-13
2.39795e-09
-1.9078e-12
8.65607e-13
2.39803e-09
-2.44953e-13
-1.32164e-13
2.39817e-09
-8.6658e-13
-6.89402e-14
2.39835e-09
-1.89141e-13
-9.80585e-15
2.39818e-09
1.70556e-13
3.43007e-14
2.3984e-09
1.8085e-13
-7.33077e-13
2.39861e-09
-2.88714e-13
5.67258e-14
2.39891e-09
-4.60971e-13
1.35844e-13
2.39906e-09
-2.84277e-13
5.47234e-14
2.39977e-09
-6.97065e-13
-4.10683e-14
2.39786e-09
-2.30121e-12
1.88796e-12
2.39791e-09
8.56789e-13
6.33157e-13
2.3992e-09
-4.57178e-13
-3.32144e-12
2.39867e-09
-1.8251e-13
1.4786e-13
2.39732e-09
-1.03523e-12
1.25792e-13
2.39758e-09
-4.76113e-13
-3.38741e-13
2.3979e-09
-2.52614e-14
-7.57444e-14
2.39853e-09
-2.75505e-13
-5.53212e-14
2.3985e-09
1.71098e-13
3.17035e-13
2.39856e-09
2.44428e-13
-3.67644e-13
2.39856e-09
2.19071e-13
-5.42484e-15
2.39858e-09
6.54751e-14
-1.09883e-13
2.3987e-09
-1.32325e-13
1.21931e-14
2.39885e-09
-1.1263e-13
-4.55732e-14
2.39875e-09
2.01289e-13
2.45747e-14
2.39822e-09
1.18458e-13
5.21338e-13
2.3981e-09
-1.61354e-13
6.11959e-13
2.39806e-09
1.91865e-13
1.23236e-13
2.39875e-09
-2.05883e-13
-2.46909e-13
2.3986e-09
-5.23962e-13
2.63063e-13
2.39831e-09
-2.66346e-14
-1.99907e-14
-2.1116e-13
-1.95371e-13
2.36341e-09
3.61313e-11
7.77131e-11
2.37028e-09
8.8554e-12
8.05439e-12
2.34377e-09
1.01145e-10
-4.23859e-11
6.07381e-10
-1.23914e-11
-2.57616e-11
6.42881e-10
6.13957e-10
6.49591e-10
-1.47976e-10
-4.14817e-11
5.76538e-10
-7.37918e-12
2.2768e-10
6.35079e-11
-4.21577e-11
-1.25596e-10
1.25332e-10
1.3351e-11
-3.44372e-11
-1.26431e-10
-3.40765e-11
3.4586e-11
5.90446e-10
3.55656e-13
-1.23173e-10
-1.27866e-10
-1.24794e-10
-2.22425e-11
-2.32539e-11
-2.22464e-11
-2.13114e-11
2.37979e-09
-1.02928e-10
3.17703e-11
-5.85947e-10
-6.29288e-10
-5.85944e-10
-6.29279e-10
2.38747e-09
-7.19532e-11
1.55843e-12
2.39308e-09
-4.37329e-11
-2.05676e-13
2.39568e-09
-2.75198e-11
7.95994e-14
2.39708e-09
-1.71045e-11
-9.76756e-15
2.39775e-09
-1.06629e-11
5.98895e-15
2.39809e-09
-6.64678e-12
2.99815e-15
2.39829e-09
-4.15738e-12
-4.07466e-15
2.39844e-09
-2.60142e-12
2.628e-14
2.39845e-09
-1.63032e-12
-2.01117e-13
2.39853e-09
-2.59451e-12
1.59816e-12
2.3983e-09
-9.48917e-13
-1.92672e-13
2.39863e-09
-5.45741e-13
1.7516e-13
2.39798e-09
-1.509e-12
1.25131e-12
2.39807e-09
-3.01745e-13
2.56164e-14
2.39842e-09
-2.24178e-13
1.90621e-14
2.39846e-09
-4.73414e-14
1.85374e-13
2.3983e-09
-1.63364e-13
3.05651e-14
2.39826e-09
-2.45025e-13
-6.82922e-14
2.39801e-09
7.86845e-14
-3.96314e-14
2.39733e-09
-9.39194e-14
5.70708e-14
2.39893e-09
8.70751e-13
-2.25012e-12
2.39916e-09
8.636e-13
-1.0414e-12
2.39865e-09
-9.2554e-13
4.48838e-13
2.39894e-09
-1.20104e-12
9.35351e-13
2.39866e-09
-7.35672e-14
-2.94439e-13
2.39867e-09
-9.2931e-15
-1.04319e-13
2.39852e-09
-1.76831e-13
1.84925e-14
2.3984e-09
-1.91033e-13
-1.6087e-14
2.39852e-09
1.09415e-13
-1.38132e-14
2.39835e-09
1.85482e-13
3.59409e-13
2.39853e-09
-4.77089e-15
1.83432e-14
2.39864e-09
-7.46773e-14
3.14746e-14
2.39858e-09
-7.78478e-14
-1.13701e-14
2.39839e-09
1.24032e-13
2.23272e-14
2.39834e-09
3.29229e-13
-1.10717e-13
2.39843e-09
1.83714e-13
-1.54102e-14
2.39885e-09
-1.34416e-13
-2.22979e-13
2.39932e-09
-1.687e-13
-5.94142e-14
2.39832e-09
2.17614e-13
3.03535e-13
2.39825e-09
6.45595e-14
-3.25479e-13
2.39808e-09
3.56224e-13
1.42255e-13
-6.65508e-13
2.77124e-13
2.3813e-09
2.22492e-11
5.74732e-11
2.42039e-09
3.99584e-12
-1.06254e-11
2.43897e-09
7.74667e-11
7.8868e-12
6.43622e-10
-5.34061e-11
9.19775e-13
6.03536e-10
6.62678e-10
6.1856e-10
2.29258e-11
-3.54663e-11
6.58981e-10
8.93981e-11
-9.22165e-11
-8.12916e-11
-6.76055e-11
-1.25382e-10
1.23519e-10
6.86923e-11
8.2067e-11
-1.13497e-10
-6.71963e-11
7.82457e-12
-4.03804e-12
3.59202e-11
1.40986e-10
2.43739e-09
-1.13289e-10
2.76597e-11
-6.23715e-10
-6.17449e-10
-6.23711e-10
-6.17457e-10
2.42645e-09
-6.4328e-11
1.68144e-12
2.41959e-09
-3.58209e-11
-5.0729e-13
2.41277e-09
-2.08142e-11
2.86462e-14
2.40801e-09
-1.22655e-11
-3.88563e-14
2.40463e-09
-7.29533e-12
9.0945e-16
2.40241e-09
-4.43011e-12
3.45958e-15
2.40097e-09
-2.71789e-12
-8.28676e-15
2.40004e-09
-1.68453e-12
9.02093e-15
2.3994e-09
-1.0205e-12
3.3999e-14
2.39852e-09
-5.97829e-13
-9.72525e-13
2.39893e-09
-4.35338e-13
-1.0446e-13
2.39854e-09
-4.76702e-15
-9.26447e-14
2.39891e-09
4.47121e-14
-1.15756e-12
2.39861e-09
6.19786e-14
-5.29133e-14
2.39863e-09
-2.4863e-13
2.85337e-15
2.39852e-09
2.05311e-13
-9.94789e-14
2.3983e-09
8.27621e-14
-1.58382e-14
2.39823e-09
-1.53403e-13
-1.92801e-14
2.39841e-09
-1.07436e-13
-4.48198e-14
2.39825e-09
-4.08081e-13
2.31439e-13
2.39831e-09
-1.97827e-13
1.00475e-12
2.39888e-09
-4.63237e-13
2.58037e-13
2.39901e-09
-2.85488e-14
-5.04695e-13
2.39833e-09
2.32006e-13
-7.91939e-13
2.39842e-09
-2.11389e-13
-1.65656e-14
2.39815e-09
8.15467e-14
-2.90889e-14
2.39876e-09
-8.572e-13
7.31025e-14
2.39855e-09
2.14294e-14
2.02927e-14
2.39841e-09
1.75606e-13
4.74592e-14
2.39845e-09
1.35104e-13
7.91304e-15
2.39852e-09
-8.20586e-14
2.03979e-14
2.39861e-09
-1.92922e-13
6.9161e-15
2.39852e-09
4.7823e-14
-8.53532e-15
2.3985e-09
1.65483e-13
-1.21184e-14
2.39871e-09
9.44011e-14
2.6047e-14
2.39875e-09
-3.56318e-14
6.92109e-14
2.3989e-09
-2.73552e-13
-1.32207e-14
2.3992e-09
-5.8168e-13
7.56423e-14
2.39752e-09
2.27244e-12
8.89404e-13
2.39821e-09
-4.49639e-13
-4.25386e-14
2.39805e-09
2.70956e-13
-1.51063e-13
1.67579e-13
-5.46318e-13
2.40006e-09
1.10069e-11
5.55028e-11
2.41769e-09
8.65943e-12
-4.67429e-12
2.45958e-09
4.25658e-11
3.0268e-11
5.11901e-10
2.22817e-11
4.95769e-11
6.9523e-10
5.72968e-10
6.76524e-10
-5.03111e-12
-5.91991e-11
5.16579e-10
7.78609e-11
-1.83082e-11
1.90748e-10
-7.41368e-11
-2.05346e-10
2.64023e-10
1.02527e-10
-2.77815e-10
-2.26399e-10
-5.31832e-11
-8.67597e-13
1.57169e-12
1.25019e-10
1.53859e-10
2.55553e-09
2.18968e-12
3.26815e-11
-6.6851e-10
-7.00379e-10
-6.68469e-10
-7.00375e-10
2.48588e-09
3.80331e-13
2.51134e-12
2.45063e-09
-3.074e-13
1.62681e-13
2.42958e-09
-5.02813e-14
2.48167e-13
2.41745e-09
-2.30965e-13
1.55039e-14
2.40996e-09
2.19114e-13
-2.16242e-14
2.40552e-09
-2.18112e-14
9.56983e-16
2.40286e-09
1.01352e-13
-1.72938e-13
2.4013e-09
-1.58381e-13
4.71268e-15
2.40014e-09
3.98366e-13
-1.57682e-13
2.39958e-09
5.14194e-14
-9.32004e-14
2.39901e-09
3.39722e-13
-4.64656e-13
2.39852e-09
3.57315e-13
6.82913e-14
2.39856e-09
4.0461e-14
-3.47873e-14
2.39874e-09
-7.78234e-13
2.63126e-13
2.39839e-09
6.12892e-14
8.94499e-14
2.39864e-09
1.90922e-14
-7.1784e-14
2.39856e-09
7.56497e-14
1.40704e-14
2.39829e-09
8.2451e-14
-9.63464e-15
2.3981e-09
4.42215e-13
-6.53974e-14
2.39796e-09
4.63681e-13
-7.70137e-13
2.39742e-09
5.20079e-13
-5.88568e-13
2.3993e-09
-1.03564e-12
4.27231e-13
2.39876e-09
4.30193e-13
5.40853e-14
2.39913e-09
4.39387e-14
-2.7243e-13
2.39881e-09
2.36012e-13
-4.56006e-14
2.39889e-09
1.05883e-13
-6.148e-14
2.39843e-09
-1.18883e-13
-6.3111e-14
2.39853e-09
-4.96809e-14
-5.32145e-14
2.39853e-09