/*--------------------------------*- C++ -*----------------------------------*\
| =========                 |                                                 |
| \\      /  F ield         | OpenFOAM: The Open Source CFD Toolbox           |
|  \\    /   O peration     | Version:  5.0                                   |
|   \\  /    A nd           | Web:      www.OpenFOAM.org                      |
|    \\/     M anipulation  |                                                 |
\*---------------------------------------------------------------------------*/
FoamFile
{
    version     2.0;
    format      ascii;
    class       volScalarField;
    location    "0.3";
    object      rAU;
}
// * * * * * * * * * * * * * * * * * * * * * * * * * * * * * * * * * * * * * //

dimensions      [-1 3 1 0 0 0 0];

internalField   nonuniform List<scalar> 
4398
(
9.73296e-07
9.73463e-07
9.73557e-07
9.73638e-07
9.02624e-07
6.95872e-08
1.29269e-07
3.92421e-07
3.93663e-07
3.94697e-07
3.9573e-07
3.96762e-07
3.97794e-07
3.98826e-07
3.99856e-07
4.00885e-07
4.01915e-07
4.02943e-07
4.03971e-07
4.04998e-07
4.06024e-07
4.07049e-07
4.08074e-07
4.09098e-07
4.10121e-07
4.11144e-07
4.12166e-07
4.13187e-07
4.14207e-07
4.15227e-07
4.16245e-07
4.17264e-07
4.18281e-07
4.19297e-07
4.20313e-07
4.21327e-07
4.22341e-07
4.23355e-07
4.24367e-07
4.25378e-07
4.2639e-07
4.27399e-07
4.28408e-07
4.29417e-07
4.30424e-07
4.31431e-07
4.32437e-07
4.33442e-07
4.34445e-07
4.36221e-07
9.73288e-07
9.73453e-07
9.73536e-07
9.73569e-07
9.03141e-07
6.92414e-07
1.29269e-07
3.9242e-07
3.93663e-07
3.94696e-07
3.9573e-07
3.96762e-07
3.97794e-07
3.98825e-07
3.99856e-07
4.00885e-07
4.01915e-07
4.02943e-07
4.03971e-07
4.04998e-07
4.06024e-07
4.07049e-07
4.08074e-07
4.09098e-07
4.10121e-07
4.11144e-07
4.12166e-07
4.13187e-07
4.14207e-07
4.15227e-07
4.16245e-07
4.17264e-07
4.18281e-07
4.19297e-07
4.20313e-07
4.21327e-07
4.22341e-07
4.23355e-07
4.24367e-07
4.25378e-07
4.2639e-07
4.27399e-07
4.28408e-07
4.29417e-07
4.30424e-07
4.31431e-07
4.32437e-07
4.33442e-07
4.34445e-07
4.36221e-07
9.73285e-07
9.73435e-07
9.73558e-07
9.73655e-07
9.03196e-07
7.0011e-07
1.29222e-07
3.92419e-07
3.93662e-07
3.94696e-07
3.9573e-07
3.96762e-07
3.97794e-07
3.98825e-07
3.99856e-07
4.00885e-07
4.01915e-07
4.02943e-07
4.03971e-07
4.04998e-07
4.06024e-07
4.07049e-07
4.08074e-07
4.09098e-07
4.10121e-07
4.11144e-07
4.12166e-07
4.13187e-07
4.14207e-07
4.15227e-07
4.16245e-07
4.17264e-07
4.18281e-07
4.19297e-07
4.20313e-07
4.21327e-07
4.22341e-07
4.23355e-07
4.24367e-07
4.25378e-07
4.26389e-07
4.27399e-07
4.28408e-07
4.29417e-07
4.30424e-07
4.31431e-07
4.32437e-07
4.33442e-07
4.34445e-07
4.36221e-07
9.73296e-07
9.73452e-07
9.73549e-07
9.73625e-07
9.03054e-07
6.93267e-07
3.53722e-08
3.92418e-07
3.93661e-07
3.94695e-07
3.95729e-07
3.96762e-07
3.97794e-07
3.98825e-07
3.99856e-07
4.00885e-07
4.01915e-07
4.02943e-07
4.03971e-07
4.04998e-07
4.06024e-07
4.07049e-07
4.08074e-07
4.09098e-07
4.10121e-07
4.11144e-07
4.12166e-07
4.13187e-07
4.14207e-07
4.15227e-07
4.16245e-07
4.17264e-07
4.18281e-07
4.19297e-07
4.20313e-07
4.21327e-07
4.22341e-07
4.23355e-07
4.24367e-07
4.25378e-07
4.2639e-07
4.27399e-07
4.28408e-07
4.29417e-07
4.30424e-07
4.31431e-07
4.32437e-07
4.33442e-07
4.34445e-07
4.36221e-07
9.73294e-07
9.73456e-07
9.73554e-07
9.73632e-07
9.02826e-07
6.99085e-07
4.92965e-08
3.92417e-07
3.93661e-07
3.94695e-07
3.95729e-07
3.96762e-07
3.97794e-07
3.98825e-07
3.99856e-07
4.00885e-07
4.01915e-07
4.02943e-07
4.03971e-07
4.04998e-07
4.06024e-07
4.07049e-07
4.08074e-07
4.09098e-07
4.10121e-07
4.11144e-07
4.12166e-07
4.13187e-07
4.14207e-07
4.15227e-07
4.16245e-07
4.17264e-07
4.18281e-07
4.19297e-07
4.20313e-07
4.21327e-07
4.22341e-07
4.23355e-07
4.24367e-07
4.25378e-07
4.2639e-07
4.27399e-07
4.28408e-07
4.29417e-07
4.30424e-07
4.31431e-07
4.32437e-07
4.33442e-07
4.34445e-07
4.36221e-07
9.73287e-07
9.73457e-07
9.73541e-07
9.73556e-07
9.02543e-07
7.00868e-07
5.845e-08
3.92417e-07
3.93661e-07
3.94695e-07
3.95729e-07
3.96762e-07
3.97794e-07
3.98825e-07
3.99856e-07
4.00885e-07
4.01915e-07
4.02943e-07
4.03971e-07
4.04998e-07
4.06024e-07
4.07049e-07
4.08074e-07
4.09098e-07
4.10121e-07
4.11144e-07
4.12166e-07
4.13187e-07
4.14207e-07
4.15227e-07
4.16245e-07
4.17264e-07
4.18281e-07
4.19297e-07
4.20313e-07
4.21327e-07
4.22341e-07
4.23355e-07
4.24367e-07
4.25378e-07
4.2639e-07
4.27399e-07
4.28408e-07
4.29417e-07
4.30424e-07
4.31431e-07
4.32437e-07
4.33442e-07
4.34445e-07
4.36221e-07
9.73301e-07
9.73428e-07
9.73555e-07
9.73627e-07
9.02827e-07
6.93603e-07
4.15356e-08
3.92418e-07
3.93661e-07
3.94695e-07
3.95729e-07
3.96762e-07
3.97794e-07
3.98825e-07
3.99856e-07
4.00885e-07
4.01915e-07
4.02943e-07
4.0397e-07
4.04998e-07
4.06024e-07
4.07049e-07
4.08074e-07
4.09098e-07
4.10121e-07
4.11144e-07
4.12166e-07
4.13187e-07
4.14207e-07
4.15227e-07
4.16245e-07
4.17264e-07
4.18281e-07
4.19297e-07
4.20313e-07
4.21327e-07
4.22341e-07
4.23355e-07
4.24367e-07
4.25378e-07
4.2639e-07
4.27399e-07
4.28408e-07
4.29417e-07
4.30424e-07
4.31431e-07
4.32437e-07
4.33442e-07
4.34445e-07
4.36221e-07
9.73281e-07
9.73437e-07
9.73552e-07
9.73638e-07
9.02838e-07
6.97864e-07
3.51669e-08
3.92419e-07
3.93662e-07
3.94696e-07
3.9573e-07
3.96762e-07
3.97794e-07
3.98825e-07
3.99856e-07
4.00885e-07
4.01915e-07
4.02943e-07
4.0397e-07
4.04998e-07
4.06024e-07
4.07049e-07
4.08074e-07
4.09098e-07
4.10121e-07
4.11144e-07
4.12166e-07
4.13187e-07
4.14207e-07
4.15227e-07
4.16245e-07
4.17264e-07
4.18281e-07
4.19297e-07
4.20313e-07
4.21327e-07
4.22341e-07
4.23355e-07
4.24367e-07
4.25378e-07
4.2639e-07
4.27399e-07
4.28408e-07
4.29417e-07
4.30424e-07
4.31431e-07
4.32437e-07
4.33442e-07
4.34445e-07
4.36221e-07
9.73265e-07
9.73443e-07
9.73546e-07
9.73599e-07
9.03168e-07
7.00759e-07
1.29269e-07
3.9242e-07
3.93663e-07
3.94696e-07
3.9573e-07
3.96762e-07
3.97794e-07
3.98825e-07
3.99856e-07
4.00885e-07
4.01915e-07
4.02943e-07
4.03971e-07
4.04998e-07
4.06024e-07
4.07049e-07
4.08074e-07
4.09098e-07
4.10121e-07
4.11144e-07
4.12166e-07
4.13187e-07
4.14207e-07
4.15227e-07
4.16245e-07
4.17264e-07
4.18281e-07
4.19297e-07
4.20313e-07
4.21327e-07
4.22341e-07
4.23355e-07
4.24367e-07
4.25378e-07
4.2639e-07
4.27399e-07
4.28408e-07
4.29417e-07
4.30424e-07
4.31431e-07
4.32437e-07
4.33442e-07
4.34445e-07
4.36221e-07
9.73298e-07
9.73464e-07
9.73557e-07
9.73627e-07
9.01694e-07
6.23374e-07
1.29269e-07
3.92421e-07
3.93663e-07
3.94697e-07
3.9573e-07
3.96762e-07
3.97794e-07
3.98826e-07
3.99856e-07
4.00885e-07
4.01915e-07
4.02943e-07
4.03971e-07
4.04998e-07
4.06024e-07
4.07049e-07
4.08074e-07
4.09098e-07
4.10121e-07
4.11144e-07
4.12166e-07
4.13187e-07
4.14207e-07
4.15227e-07
4.16245e-07
4.17264e-07
4.18281e-07
4.19297e-07
4.20313e-07
4.21327e-07
4.22341e-07
4.23355e-07
4.24367e-07
4.25378e-07
4.26389e-07
4.27399e-07
4.28408e-07
4.29417e-07
4.30424e-07
4.31431e-07
4.32437e-07
4.33442e-07
4.34445e-07
4.36221e-07
9.81728e-07
9.81872e-07
9.81924e-07
9.81945e-07
9.31698e-07
1.01166e-07
1.83342e-07
5.04898e-07
5.06386e-07
5.07527e-07
5.08664e-07
5.09801e-07
5.10937e-07
5.1207e-07
5.13202e-07
5.14333e-07
5.15461e-07
5.16589e-07
5.17715e-07
5.18839e-07
5.19961e-07
5.21083e-07
5.22201e-07
5.23319e-07
5.24436e-07
5.25549e-07
5.26662e-07
5.27774e-07
5.28882e-07
5.29991e-07
5.31097e-07
5.32201e-07
5.33304e-07
5.34405e-07
5.35504e-07
5.36603e-07
5.37699e-07
5.38793e-07
5.39886e-07
5.40978e-07
5.42067e-07
5.43155e-07
5.44241e-07
5.45325e-07
5.46409e-07
5.4749e-07
5.48569e-07
5.49647e-07
5.50724e-07
5.53038e-07
9.81708e-07
9.81864e-07
9.81923e-07
9.81965e-07
9.321e-07
7.65507e-07
1.83344e-07
5.04898e-07
5.06386e-07
5.07526e-07
5.08663e-07
5.09801e-07
5.10936e-07
5.1207e-07
5.13202e-07
5.14333e-07
5.15461e-07
5.16589e-07
5.17715e-07
5.18839e-07
5.19961e-07
5.21083e-07
5.22201e-07
5.23319e-07
5.24435e-07
5.25549e-07
5.26662e-07
5.27774e-07
5.28882e-07
5.2999e-07
5.31097e-07
5.32201e-07
5.33304e-07
5.34406e-07
5.35504e-07
5.36603e-07
5.37699e-07
5.38793e-07
5.39886e-07
5.40978e-07
5.42067e-07
5.43155e-07
5.44241e-07
5.45325e-07
5.46409e-07
5.4749e-07
5.48569e-07
5.49647e-07
5.50724e-07
5.53038e-07
9.81721e-07
9.81868e-07
9.81928e-07
9.81969e-07
9.32342e-07
7.76001e-07
1.83252e-07
5.04894e-07
5.06383e-07
5.07524e-07
5.08663e-07
5.098e-07
5.10936e-07
5.12069e-07
5.13202e-07
5.14333e-07
5.15461e-07
5.16589e-07
5.17715e-07
5.18839e-07
5.19961e-07
5.21083e-07
5.22201e-07
5.23319e-07
5.24435e-07
5.25549e-07
5.26662e-07
5.27774e-07
5.28882e-07
5.2999e-07
5.31097e-07
5.32201e-07
5.33304e-07
5.34406e-07
5.35504e-07
5.36603e-07
5.37699e-07
5.38793e-07
5.39886e-07
5.40978e-07
5.42067e-07
5.43155e-07
5.44241e-07
5.45325e-07
5.46409e-07
5.4749e-07
5.48569e-07
5.49647e-07
5.50724e-07
5.53038e-07
9.81725e-07
9.81871e-07
9.81925e-07
9.81966e-07
9.32464e-07
7.76677e-07
5.23815e-08
5.04892e-07
5.06382e-07
5.07523e-07
5.08662e-07
5.098e-07
5.10936e-07
5.12069e-07
5.13202e-07
5.14333e-07
5.15461e-07
5.16589e-07
5.17715e-07
5.18839e-07
5.19961e-07
5.21083e-07
5.22201e-07
5.23319e-07
5.24435e-07
5.25549e-07
5.26662e-07
5.27774e-07
5.28882e-07
5.2999e-07
5.31097e-07
5.32201e-07
5.33304e-07
5.34406e-07
5.35504e-07
5.36603e-07
5.37699e-07
5.38793e-07
5.39886e-07
5.40978e-07
5.42067e-07
5.43155e-07
5.44241e-07
5.45325e-07
5.46409e-07
5.4749e-07
5.48569e-07
5.49647e-07
5.50724e-07
5.53038e-07
9.81727e-07
9.81869e-07
9.81913e-07
9.8195e-07
9.31733e-07
7.74692e-07
7.27666e-08
5.04887e-07
5.0638e-07
5.07523e-07
5.08662e-07
5.098e-07
5.10936e-07
5.12069e-07
5.13202e-07
5.14333e-07
5.15461e-07
5.16589e-07
5.17715e-07
5.18839e-07
5.19961e-07
5.21083e-07
5.22201e-07
5.23319e-07
5.24435e-07
5.25549e-07
5.26662e-07
5.27774e-07
5.28882e-07
5.2999e-07
5.31097e-07
5.32201e-07
5.33304e-07
5.34406e-07
5.35504e-07
5.36603e-07
5.37699e-07
5.38793e-07
5.39886e-07
5.40978e-07
5.42067e-07
5.43155e-07
5.44241e-07
5.45325e-07
5.46409e-07
5.4749e-07
5.48569e-07
5.49647e-07
5.50724e-07
5.53038e-07
9.81711e-07
9.8187e-07
9.81926e-07
9.81949e-07
9.32078e-07
7.6656e-07
8.53992e-08
5.04887e-07
5.0638e-07
5.07523e-07
5.08662e-07
5.098e-07
5.10936e-07
5.12069e-07
5.13202e-07
5.14333e-07
5.15461e-07
5.16589e-07
5.17715e-07
5.18838e-07
5.19961e-07
5.21083e-07
5.22201e-07
5.23319e-07
5.24435e-07
5.25549e-07
5.26662e-07
5.27774e-07
5.28882e-07
5.2999e-07
5.31097e-07
5.32201e-07
5.33304e-07
5.34406e-07
5.35504e-07
5.36603e-07
5.37699e-07
5.38793e-07
5.39886e-07
5.40978e-07
5.42067e-07
5.43155e-07
5.44241e-07
5.45325e-07
5.46409e-07
5.4749e-07
5.48569e-07
5.49647e-07
5.50724e-07
5.53038e-07
9.81727e-07
9.81858e-07
9.81926e-07
9.81944e-07
9.32376e-07
7.76756e-07
6.16137e-08
5.04892e-07
5.06382e-07
5.07523e-07
5.08662e-07
5.098e-07
5.10936e-07
5.12069e-07
5.13202e-07
5.14333e-07
5.15461e-07
5.16589e-07
5.17715e-07
5.18839e-07
5.19961e-07
5.21083e-07
5.22201e-07
5.23319e-07
5.24435e-07
5.25549e-07
5.26662e-07
5.27774e-07
5.28882e-07
5.29991e-07
5.31097e-07
5.32201e-07
5.33304e-07
5.34406e-07
5.35504e-07
5.36603e-07
5.37699e-07
5.38793e-07
5.39886e-07
5.40978e-07
5.42067e-07
5.43155e-07
5.44241e-07
5.45325e-07
5.46409e-07
5.4749e-07
5.48569e-07
5.49647e-07
5.50724e-07
5.53038e-07
9.81724e-07
9.81863e-07
9.81928e-07
9.8197e-07
9.31107e-07
7.74687e-07
5.18126e-08
5.04893e-07
5.06383e-07
5.07524e-07
5.08663e-07
5.098e-07
5.10936e-07
5.12069e-07
5.13202e-07
5.14333e-07
5.15461e-07
5.16589e-07
5.17715e-07
5.18839e-07
5.19961e-07
5.21083e-07
5.22201e-07
5.23319e-07
5.24435e-07
5.25549e-07
5.26662e-07
5.27774e-07
5.28882e-07
5.29991e-07
5.31097e-07
5.32201e-07
5.33304e-07
5.34406e-07
5.35504e-07
5.36603e-07
5.37699e-07
5.38793e-07
5.39886e-07
5.40978e-07
5.42067e-07
5.43155e-07
5.44241e-07
5.45325e-07
5.46409e-07
5.4749e-07
5.48569e-07
5.49647e-07
5.50723e-07
5.53038e-07
9.81695e-07
9.81846e-07
9.8193e-07
9.81947e-07
9.32386e-07
7.76939e-07
1.83344e-07
5.04898e-07
5.06386e-07
5.07526e-07
5.08663e-07
5.09801e-07
5.10936e-07
5.1207e-07
5.13202e-07
5.14333e-07
5.15461e-07
5.16589e-07
5.17715e-07
5.18839e-07
5.19961e-07
5.21083e-07
5.22201e-07
5.23319e-07
5.24435e-07
5.25549e-07
5.26662e-07
5.27774e-07
5.28882e-07
5.29991e-07
5.31097e-07
5.32201e-07
5.33304e-07
5.34406e-07
5.35504e-07
5.36603e-07
5.37699e-07
5.38793e-07
5.39886e-07
5.40978e-07
5.42067e-07
5.43155e-07
5.44241e-07
5.45325e-07
5.46409e-07
5.4749e-07
5.48569e-07
5.49647e-07
5.50723e-07
5.53038e-07
9.8173e-07
9.81876e-07
9.81943e-07
9.82004e-07
9.31994e-07
6.608e-07
1.83343e-07
5.04898e-07
5.06386e-07
5.07527e-07
5.08664e-07
5.09801e-07
5.10937e-07
5.1207e-07
5.13202e-07
5.14333e-07
5.15461e-07
5.16589e-07
5.17715e-07
5.18839e-07
5.19961e-07
5.21083e-07
5.22201e-07
5.23319e-07
5.24435e-07
5.25549e-07
5.26662e-07
5.27774e-07
5.28882e-07
5.29991e-07
5.31097e-07
5.32201e-07
5.33304e-07
5.34406e-07
5.35504e-07
5.36603e-07
5.37699e-07
5.38793e-07
5.39886e-07
5.40978e-07
5.42067e-07
5.43155e-07
5.44241e-07
5.45325e-07
5.46409e-07
5.4749e-07
5.48569e-07
5.49647e-07
5.50724e-07
5.53038e-07
9.73298e-07
9.73462e-07
9.73523e-07
9.73562e-07
9.32074e-07
1.01072e-07
1.83346e-07
3.92421e-07
3.93663e-07
3.94697e-07
3.9573e-07
3.96762e-07
3.97794e-07
3.98825e-07
3.99856e-07
4.00885e-07
4.01915e-07
4.02943e-07
4.0397e-07
4.04998e-07
4.06024e-07
4.07049e-07
4.08074e-07
4.09098e-07
4.10121e-07
4.11144e-07
4.12166e-07
4.13187e-07
4.14207e-07
4.15227e-07
4.16245e-07
4.17263e-07
4.1828e-07
4.19297e-07
4.20313e-07
4.21327e-07
4.22341e-07
4.23355e-07
4.24367e-07
4.25378e-07
4.26389e-07
4.27399e-07
4.28408e-07
4.29417e-07
4.30424e-07
4.31431e-07
4.32437e-07
4.33442e-07
4.34445e-07
4.36221e-07
9.73245e-07
9.73447e-07
9.73545e-07
9.73642e-07
9.32329e-07
7.64599e-07
1.83348e-07
3.9242e-07
3.93663e-07
3.94696e-07
3.9573e-07
3.96762e-07
3.97794e-07
3.98825e-07
3.99856e-07
4.00885e-07
4.01915e-07
4.02943e-07
4.0397e-07
4.04998e-07
4.06024e-07
4.07049e-07
4.08074e-07
4.09098e-07
4.10121e-07
4.11144e-07
4.12166e-07
4.13187e-07
4.14207e-07
4.15227e-07
4.16245e-07
4.17263e-07
4.1828e-07
4.19297e-07
4.20313e-07
4.21327e-07
4.22341e-07
4.23355e-07
4.24367e-07
4.25378e-07
4.26389e-07
4.27399e-07
4.28408e-07
4.29417e-07
4.30424e-07
4.31431e-07
4.32437e-07
4.33441e-07
4.34445e-07
4.36221e-07
9.73287e-07
9.73457e-07
9.73549e-07
9.73646e-07
9.32464e-07
7.76057e-07
1.83254e-07
3.92419e-07
3.93662e-07
3.94696e-07
3.95729e-07
3.96762e-07
3.97794e-07
3.98825e-07
3.99856e-07
4.00885e-07
4.01915e-07
4.02943e-07
4.0397e-07
4.04998e-07
4.06024e-07
4.07049e-07
4.08074e-07
4.09098e-07
4.10121e-07
4.11144e-07
4.12166e-07
4.13187e-07
4.14207e-07
4.15227e-07
4.16245e-07
4.17263e-07
4.1828e-07
4.19297e-07
4.20313e-07
4.21327e-07
4.22341e-07
4.23355e-07
4.24367e-07
4.25378e-07
4.26389e-07
4.27399e-07
4.28408e-07
4.29417e-07
4.30424e-07
4.31431e-07
4.32437e-07
4.33441e-07
4.34445e-07
4.36221e-07
9.73298e-07
9.73458e-07
9.73553e-07
9.73615e-07
9.32298e-07
7.76943e-07
5.23361e-08
3.92418e-07
3.93661e-07
3.94695e-07
3.95729e-07
3.96762e-07
3.97794e-07
3.98825e-07
3.99856e-07
4.00885e-07
4.01915e-07
4.02943e-07
4.0397e-07
4.04998e-07
4.06024e-07
4.07049e-07
4.08074e-07
4.09098e-07
4.10121e-07
4.11144e-07
4.12166e-07
4.13187e-07
4.14207e-07
4.15227e-07
4.16245e-07
4.17263e-07
4.1828e-07
4.19297e-07
4.20313e-07
4.21327e-07
4.22341e-07
4.23355e-07
4.24367e-07
4.25378e-07
4.26389e-07
4.27399e-07
4.28408e-07
4.29417e-07
4.30424e-07
4.31431e-07
4.32437e-07
4.33442e-07
4.34445e-07
4.36221e-07
9.73295e-07
9.73453e-07
9.73515e-07
9.73593e-07
9.32166e-07
7.75619e-07
7.26219e-08
3.92417e-07
3.93661e-07
3.94695e-07
3.95729e-07
3.96762e-07
3.97794e-07
3.98825e-07
3.99856e-07
4.00885e-07
4.01915e-07
4.02943e-07
4.0397e-07
4.04998e-07
4.06024e-07
4.07049e-07
4.08074e-07
4.09098e-07
4.10121e-07
4.11144e-07
4.12166e-07
4.13187e-07
4.14207e-07
4.15227e-07
4.16245e-07
4.17263e-07
4.1828e-07
4.19297e-07
4.20313e-07
4.21327e-07
4.22341e-07
4.23355e-07
4.24367e-07
4.25378e-07
4.26389e-07
4.27399e-07
4.28408e-07
4.29417e-07
4.30424e-07
4.31431e-07
4.32437e-07
4.33441e-07
4.34445e-07
4.36221e-07
9.73261e-07
9.73446e-07
9.7355e-07
9.73632e-07
9.32562e-07
7.75326e-07
8.53184e-08
3.92417e-07
3.93661e-07
3.94695e-07
3.95729e-07
3.96762e-07
3.97794e-07
3.98825e-07
3.99856e-07
4.00885e-07
4.01915e-07
4.02943e-07
4.0397e-07
4.04998e-07
4.06024e-07
4.07049e-07
4.08074e-07
4.09098e-07
4.10121e-07
4.11144e-07
4.12166e-07
4.13187e-07
4.14207e-07
4.15227e-07
4.16245e-07
4.17263e-07
4.1828e-07
4.19297e-07
4.20313e-07
4.21327e-07
4.22341e-07
4.23355e-07
4.24367e-07
4.25378e-07
4.26389e-07
4.27399e-07
4.28408e-07
4.29417e-07
4.30424e-07
4.31431e-07
4.32437e-07
4.33441e-07
4.34445e-07
4.36221e-07
9.73294e-07
9.73454e-07
9.73554e-07
9.73627e-07
9.32558e-07
7.74863e-07
6.14553e-08
3.92418e-07
3.93661e-07
3.94695e-07
3.95729e-07
3.96762e-07
3.97794e-07
3.98825e-07
3.99856e-07
4.00885e-07
4.01915e-07
4.02943e-07
4.0397e-07
4.04998e-07
4.06024e-07
4.07049e-07
4.08074e-07
4.09098e-07
4.10121e-07
4.11144e-07
4.12166e-07
4.13187e-07
4.14207e-07
4.15227e-07
4.16245e-07
4.17263e-07
4.1828e-07
4.19297e-07
4.20313e-07
4.21327e-07
4.22341e-07
4.23355e-07
4.24367e-07
4.25378e-07
4.26389e-07
4.27399e-07
4.28408e-07
4.29417e-07
4.30424e-07
4.31431e-07
4.32437e-07
4.33441e-07
4.34445e-07
4.36221e-07
9.73299e-07
9.73454e-07
9.7355e-07
9.73636e-07
9.31636e-07
7.76273e-07
5.18125e-08
3.92419e-07
3.93662e-07
3.94696e-07
3.95729e-07
3.96762e-07
3.97794e-07
3.98825e-07
3.99856e-07
4.00885e-07
4.01915e-07
4.02943e-07
4.0397e-07
4.04998e-07
4.06024e-07
4.07049e-07
4.08074e-07
4.09098e-07
4.10121e-07
4.11144e-07
4.12166e-07
4.13187e-07
4.14207e-07
4.15227e-07
4.16245e-07
4.17264e-07
4.1828e-07
4.19297e-07
4.20313e-07
4.21327e-07
4.22341e-07
4.23355e-07
4.24367e-07
4.25378e-07
4.26389e-07
4.27399e-07
4.28408e-07
4.29417e-07
4.30424e-07
4.31431e-07
4.32437e-07
4.33441e-07
4.34445e-07
4.36221e-07
9.73245e-07
9.73411e-07
9.73556e-07
9.73609e-07
9.32716e-07
7.76971e-07
1.83348e-07
3.9242e-07
3.93663e-07
3.94696e-07
3.9573e-07
3.96762e-07
3.97794e-07
3.98825e-07
3.99856e-07
4.00885e-07
4.01915e-07
4.02943e-07
4.0397e-07
4.04998e-07
4.06024e-07
4.07049e-07
4.08074e-07
4.09098e-07
4.10121e-07
4.11144e-07
4.12166e-07
4.13187e-07
4.14207e-07
4.15227e-07
4.16245e-07
4.17263e-07
4.1828e-07
4.19297e-07
4.20313e-07
4.21327e-07
4.22341e-07
4.23355e-07
4.24367e-07
4.25378e-07
4.26389e-07
4.27399e-07
4.28408e-07
4.29417e-07
4.30424e-07
4.31431e-07
4.32437e-07
4.33441e-07
4.34445e-07
4.36221e-07
9.73299e-07
9.7346e-07
9.73553e-07
9.73642e-07
9.32154e-07
6.69405e-07
1.83347e-07
3.92421e-07
3.93663e-07
3.94697e-07
3.9573e-07
3.96762e-07
3.97794e-07
3.98825e-07
3.99856e-07
4.00885e-07
4.01915e-07
4.02943e-07
4.0397e-07
4.04998e-07
4.06024e-07
4.07049e-07
4.08074e-07
4.09098e-07
4.10121e-07
4.11144e-07
4.12166e-07
4.13187e-07
4.14207e-07
4.15227e-07
4.16245e-07
4.17263e-07
4.1828e-07
4.19297e-07
4.20313e-07
4.21327e-07
4.22341e-07
4.23355e-07
4.24367e-07
4.25378e-07
4.26389e-07
4.27399e-07
4.28408e-07
4.29417e-07
4.30424e-07
4.31431e-07
4.32437e-07
4.33441e-07
4.34445e-07
4.36221e-07
3.51425e-08
6.02246e-07
3.51425e-08
1.01076e-07
5.1785e-08
6.49473e-07
5.17851e-08
3.51427e-08
7.00434e-07
3.52218e-08
7.66783e-07
5.1786e-08
7.77358e-07
5.20275e-08
3.55453e-08
7.00445e-07
5.39103e-08
7.75986e-07
5.26433e-08
7.75909e-07
7.88889e-08
7.53364e-08
6.92925e-07
4.55512e-07
7.76668e-07
1.09058e-07
7.76331e-07
5.25641e-07
6.87338e-07
7.00866e-07
6.91297e-07
7.74852e-07
7.32617e-07
7.74323e-07
7.66098e-07
6.90821e-07
7.00593e-07
6.87193e-07
7.67142e-07
7.65874e-07
7.6899e-07
7.3074e-07
4.61682e-07
6.93225e-07
7.56788e-08
7.76784e-07
5.33545e-07
7.76215e-07
1.09515e-07
5.42515e-08
7.00937e-07
3.55463e-08
7.73758e-07
7.93735e-08
7.75964e-07
5.2643e-08
3.522e-08
6.93625e-07
3.51427e-08
7.76753e-07
5.20237e-08
7.6566e-07
5.1786e-08
3.51425e-08
6.90374e-08
3.51425e-08
6.65439e-07
5.17851e-08
1.00335e-07
5.1785e-08
5.17848e-08
6.44256e-07
5.17849e-08
1.0112e-07
5.17849e-08
6.43431e-07
5.1785e-08
5.1786e-08
7.77062e-07
5.20482e-08
7.6714e-07
5.1786e-08
7.76583e-07
5.20482e-08
5.2693e-08
7.75295e-07
7.89284e-08
7.7524e-07
5.26923e-08
7.7477e-07
7.89277e-08
1.09098e-07
7.75751e-07
5.20257e-07
7.76603e-07
1.09082e-07
7.76444e-07
5.21146e-07
7.23017e-07
7.75235e-07
7.65143e-07
7.73585e-07
7.22545e-07
7.76702e-07
7.66614e-07
7.66294e-07
7.66323e-07
7.18873e-07
7.76372e-07
7.64717e-07
7.70401e-07
7.22556e-07
5.27616e-07
7.76311e-07
1.09552e-07
7.75405e-07
5.29692e-07
7.77343e-07
1.09525e-07
7.94143e-08
7.74832e-07
5.26924e-08
7.75916e-07
7.94088e-08
7.74463e-07
5.26925e-08
5.20444e-08
7.66152e-07
5.1786e-08
7.77033e-07
5.2045e-08
7.66567e-07
5.1786e-08
5.17849e-08
1.00396e-07
5.17848e-08
6.6117e-07
5.1785e-08
1.00384e-07
5.17849e-08
5.17849e-08
6.4877e-07
5.1785e-08
6.9538e-08
3.51424e-08
6.07182e-07
3.51424e-08
5.17859e-08
7.76628e-07
5.20272e-08
6.917e-07
3.51426e-08
7.00562e-07
3.52215e-08
5.26422e-08
7.75463e-07
7.88835e-08
7.00754e-07
3.55444e-08
7.00244e-07
5.39036e-08
1.09006e-07
7.76272e-07
5.22881e-07
6.96585e-07
7.5291e-08
6.95556e-07
4.44945e-07
7.31433e-07
7.76833e-07
7.65979e-07
7.00891e-07
6.88161e-07
6.99089e-07
6.90775e-07
7.65308e-07
7.71642e-07
7.30337e-07
6.9975e-07
6.91096e-07
6.99807e-07
6.88795e-07
5.36101e-07
7.77157e-07
1.09481e-07
6.96585e-07
4.62636e-07
6.97809e-07
7.56381e-08
7.93623e-08
7.74921e-07
5.26433e-08
7.00734e-07
5.42334e-08
7.00668e-07
3.55462e-08
5.20245e-08
7.67131e-07
5.17859e-08
7.00861e-07
3.52201e-08
6.92897e-07
3.51426e-08
5.1785e-08
1.00282e-07
5.17849e-08
6.31311e-07
3.51424e-08
6.90074e-08
3.51424e-08
6.90442e-07
9.02596e-07
7.00385e-07
9.31969e-07
7.668e-07
9.32158e-07
7.76383e-07
5.21803e-08
3.51543e-08
7.93079e-08
1.00902e-07
1.1447e-07
3.53543e-08
5.18445e-08
1.29658e-07
1.29269e-07
1.29658e-07
1.83347e-07
1.84016e-07
1.83347e-07
1.84016e-07
9.03016e-07
9.03051e-07
9.03177e-07
9.32605e-07
9.32339e-07
9.32392e-07
9.32583e-07
2.30019e-07
6.90394e-08
6.98198e-07
7.6574e-07
9.99746e-08
7.74083e-07
1.67037e-07
1.29658e-07
1.29269e-07
1.29658e-07
1.83348e-07
1.84017e-07
1.83348e-07
1.84016e-07
9.032e-07
9.03089e-07
9.03179e-07
9.32645e-07
9.32694e-07
9.32671e-07
9.32664e-07
7.74559e-07
6.9318e-07
7.00905e-07
7.77133e-07
7.67898e-07
7.77258e-07
6.98492e-07
1.29657e-07
3.51668e-08
1.29566e-07
1.83254e-07
1.84015e-07
5.18121e-08
1.83831e-07
9.02793e-07
9.02688e-07
9.02479e-07
9.32625e-07
9.32554e-07
9.32546e-07
9.32158e-07
7.76606e-07
7.00476e-07
6.98768e-07
7.73309e-07
7.76818e-07
7.76708e-07
6.99173e-07
1.29566e-07
4.14784e-08
1.29566e-07
5.2337e-08
1.83831e-07
6.14273e-08
1.83831e-07
9.02887e-07
9.02529e-07
9.0259e-07
9.32143e-07
9.32086e-07
9.32255e-07
9.32284e-07
7.71985e-07
6.97367e-07
6.87475e-07
7.71559e-07
7.72511e-07
7.69262e-07
6.88653e-07
1.29566e-07
5.8519e-08
1.29566e-07
7.26009e-08
1.8383e-07
8.54645e-08
1.83829e-07
9.03234e-07
9.0303e-07
9.03112e-07
9.32289e-07
9.32712e-07
9.32389e-07
9.32461e-07
7.76231e-07
7.00725e-07
7.00703e-07
7.76568e-07
7.77535e-07
7.77015e-07
6.98335e-07
1.29566e-07
4.94882e-08
1.29566e-07
8.53551e-08
1.83829e-07
7.29464e-08
1.8383e-07
9.02584e-07
9.02836e-07
9.03189e-07
9.32533e-07
9.32568e-07
9.32583e-07
9.32614e-07
7.74033e-07
6.93494e-07
7.00758e-07
7.75527e-07
7.74565e-07
7.74754e-07
6.92925e-07
1.29566e-07
3.53768e-08
1.29566e-07
6.14962e-08
1.83831e-07
5.23459e-08
1.83831e-07
9.02789e-07
9.02973e-07
9.02097e-07
9.31979e-07
9.31729e-07
9.32288e-07
9.32107e-07
7.75767e-07
7.00297e-07
6.87847e-07
7.69053e-07
7.75994e-07
7.69869e-07
7.00597e-07
1.29566e-07
1.29222e-07
1.29657e-07
5.18126e-08
1.83831e-07
1.83254e-07
1.84015e-07
9.0324e-07
9.03153e-07
9.03059e-07
9.32633e-07
9.32741e-07
9.32635e-07
9.32279e-07
5.26772e-07
6.91238e-07
7.00645e-07
7.76943e-07
7.65416e-07
7.76209e-07
4.39631e-07
1.29658e-07
1.29269e-07
1.29658e-07
1.83348e-07
1.84016e-07
1.83348e-07
1.84017e-07
7.00414e-07
9.02335e-07
6.92388e-07
9.31968e-07
7.75936e-07
9.3218e-07
7.6297e-07
5.46476e-08
4.47049e-08
1.54111e-07
6.86297e-07
6.58262e-08
2.1416e-07
3.70887e-08
1.29658e-07
1.29269e-07
1.29658e-07
1.83347e-07
1.84016e-07
1.83347e-07
1.84016e-07
7.64516e-07
9.31992e-07
7.76471e-07
9.31673e-07
7.6658e-07
9.32013e-07
7.76398e-07
5.24212e-08
5.1973e-08
1.14761e-07
1.01168e-07
5.24039e-08
1.1473e-07
5.19804e-08
1.84011e-07
1.83343e-07
1.84012e-07
1.83342e-07
1.84011e-07
1.83343e-07
1.84012e-07
9.32353e-07
9.32127e-07
9.3248e-07
9.3187e-07
9.32332e-07
9.32101e-07
9.32516e-07
2.29617e-07
1.00175e-07
7.7389e-07
7.65822e-07
2.30113e-07
1.00045e-07
7.73803e-07
1.84012e-07
1.83344e-07
1.84011e-07
1.83344e-07
1.84012e-07
1.83344e-07
1.84011e-07
9.32092e-07
9.32497e-07
9.32459e-07
9.32208e-07
9.31659e-07
9.32453e-07
9.32407e-07
7.73429e-07
7.64832e-07
7.73588e-07
7.74485e-07
7.7349e-07
7.62018e-07
7.74622e-07
1.8401e-07
5.18123e-08
1.83826e-07
1.83252e-07
1.84011e-07
5.18122e-08
1.83826e-07
9.32457e-07
9.32472e-07
9.32111e-07
9.32303e-07
9.32396e-07
9.32443e-07
9.32033e-07
7.72461e-07
7.7728e-07
7.71723e-07
7.7652e-07
7.7398e-07
7.77154e-07
7.69588e-07
1.83826e-07
6.15525e-08
1.83826e-07
5.23815e-08
1.83826e-07
6.15386e-08
1.83826e-07
9.3194e-07
9.32233e-07
9.31999e-07
9.31603e-07
9.32161e-07
9.32276e-07
9.31926e-07
7.7478e-07
7.7646e-07
7.76298e-07
7.73463e-07
7.7531e-07
7.76267e-07
7.75767e-07
1.83824e-07
8.55195e-08
1.83823e-07
7.27733e-08
1.83824e-07
8.55031e-08
1.83823e-07
9.3248e-07
9.32038e-07
9.32212e-07
9.32135e-07
9.32242e-07
9.32177e-07
9.32217e-07
7.76447e-07
7.75683e-07
7.75541e-07
7.70975e-07
7.7669e-07
7.75541e-07
7.76066e-07
1.83823e-07
7.31018e-08
1.83824e-07
8.53746e-08
1.83823e-07
7.30779e-08
1.83824e-07
9.32341e-07
9.32514e-07
9.32439e-07
9.32318e-07
9.32387e-07
9.32448e-07
9.32439e-07
7.67537e-07
7.70843e-07
7.60954e-07
7.76017e-07
7.693e-07
7.70079e-07
7.67939e-07
1.83826e-07
5.23903e-08
1.83826e-07
6.15747e-08
1.83826e-07
5.23913e-08
1.83826e-07
9.3162e-07
9.32252e-07
9.32338e-07
9.30609e-07
9.3186e-07
9.32335e-07
9.32444e-07
7.75629e-07
7.75175e-07
7.76043e-07
7.75173e-07
7.75854e-07
7.75636e-07
7.76208e-07
1.83826e-07
1.83251e-07
1.8401e-07
5.18126e-08
1.83826e-07
1.83251e-07
1.84011e-07
9.32537e-07
9.32379e-07
9.32274e-07
9.32368e-07
9.32324e-07
9.32318e-07
9.32496e-07
5.09911e-07
7.6434e-07
7.75616e-07
7.77132e-07
5.11811e-07
7.63504e-07
7.75679e-07
1.84011e-07
1.83344e-07
1.84012e-07
1.83344e-07
1.84011e-07
1.83344e-07
1.84012e-07
7.76877e-07
9.32178e-07
7.63186e-07
9.32026e-07
7.76742e-07
9.32292e-07
7.63289e-07
5.48168e-08
6.62523e-08
2.15382e-07
6.5697e-07
5.48067e-08
6.62974e-08
2.14858e-07
1.84012e-07
1.83342e-07
1.84011e-07
1.83343e-07
1.84012e-07
1.83342e-07
1.84011e-07
7.66003e-07
9.32413e-07
7.76437e-07
9.02951e-07
6.91463e-07
9.02937e-07
7.00333e-07
5.22704e-08
5.19451e-08
1.14747e-07
1.00961e-07
5.23507e-08
1.14595e-07
5.18977e-08
1.84016e-07
1.83347e-07
1.84016e-07
1.29269e-07
1.29658e-07
1.29269e-07
1.29658e-07
9.3237e-07
9.32395e-07
9.3256e-07
9.03072e-07
9.03028e-07
9.02801e-07
9.02443e-07
2.30099e-07
1.00132e-07
7.73615e-07
7.64888e-07
2.3034e-07
1.00038e-07
7.73576e-07
1.84017e-07
1.83348e-07
1.84016e-07
1.29269e-07
1.29658e-07
1.29269e-07
1.29658e-07
9.31839e-07
9.32578e-07
9.32626e-07
9.02999e-07
9.02621e-07
9.02953e-07
9.03204e-07
7.7396e-07
7.68554e-07
7.75894e-07
7.76647e-07
7.7387e-07
7.6728e-07
7.75538e-07
1.84015e-07
5.1812e-08
1.83831e-07
1.29223e-07
1.29658e-07
3.51667e-08
1.29566e-07
9.32607e-07
9.32638e-07
9.32442e-07
9.0247e-07
9.03179e-07
9.03142e-07
9.03189e-07
7.73848e-07
7.76372e-07
7.71619e-07
7.76664e-07
7.72947e-07
7.77081e-07
7.71482e-07
1.83831e-07
6.14776e-08
1.83831e-07
3.53708e-08
1.29566e-07
4.15661e-08
1.29566e-07
9.32476e-07
9.32494e-07
9.32103e-07
9.03107e-07
9.03125e-07
9.03063e-07
9.02503e-07
7.7532e-07
7.74034e-07
7.76917e-07
7.76907e-07
7.74298e-07
7.74803e-07
7.76934e-07
1.83829e-07
8.54493e-08
1.83829e-07
4.92785e-08
1.29566e-07
5.84973e-08
1.29566e-07
9.3208e-07
9.32564e-07
9.32554e-07
9.031e-07
9.01983e-07
9.02982e-07
9.03203e-07
7.76541e-07
7.7648e-07
7.76898e-07
7.72461e-07
7.75781e-07
7.76769e-07
7.76614e-07
1.83829e-07
7.29508e-08
1.8383e-07
5.84189e-08
1.29566e-07
4.9465e-08
1.29566e-07
9.32541e-07
9.32637e-07
9.32655e-07
9.03057e-07
9.03169e-07
9.03122e-07
9.03197e-07
7.7422e-07
7.72605e-07
7.70008e-07
7.75065e-07
7.72505e-07
7.72922e-07
7.70176e-07
1.83831e-07
5.23463e-08
1.83831e-07
4.15174e-08
1.29566e-07
3.53767e-08
1.29566e-07
9.32203e-07
9.32458e-07
9.32425e-07
9.02961e-07
9.03077e-07
9.02957e-07
9.02372e-07
7.75786e-07
7.76001e-07
7.74648e-07
7.76727e-07
7.75592e-07
7.76121e-07
7.74611e-07
1.83831e-07
1.83254e-07
1.84015e-07
3.51668e-08
1.29566e-07
1.29222e-07
1.29658e-07
9.32053e-07
9.32271e-07
9.32593e-07
9.03114e-07
9.01946e-07
9.02164e-07
9.03034e-07
5.23243e-07
7.63396e-07
7.7649e-07
7.77175e-07
5.17716e-07
7.63406e-07
7.76729e-07
1.84016e-07
1.83348e-07
1.84017e-07
1.29269e-07
1.29658e-07
1.29269e-07
1.29658e-07
7.76313e-07
9.32407e-07
7.60371e-07
9.01821e-07
7.00536e-07
9.02971e-07
6.92913e-07
5.47304e-08
6.60848e-08
2.1469e-07
6.814e-07
5.47856e-08
6.59029e-08
2.14313e-07
1.84016e-07
1.83346e-07
1.84016e-07
1.29269e-07
1.29658e-07
1.29269e-07
1.29658e-07
5.16858e-08
3.50846e-08
3.51425e-08
5.17916e-08
5.17916e-08
3.50848e-08
5.16853e-08
5.48285e-08
1.54072e-07
4.45791e-08
6.69381e-07
2.1456e-07
6.56349e-08
3.72123e-08
5.16903e-08
3.51425e-08
3.50933e-08
5.17917e-08
5.17917e-08
5.17047e-08
3.50869e-08
5.22737e-08
1.01007e-07
5.19453e-08
1.14725e-07
1.14614e-07
5.23535e-08
5.18978e-08
5.16854e-08
5.17909e-08
5.16786e-08
5.1785e-08
5.17908e-08
5.16792e-08
5.16849e-08
5.48905e-08
6.5854e-07
2.15104e-07
6.59842e-08
2.15011e-07
6.58182e-08
5.49518e-08
5.169e-08
5.1791e-08
5.17851e-08
5.16985e-08
5.1791e-08
5.17045e-08
5.16837e-08
5.50571e-08
3.52198e-08
3.51451e-08
5.17922e-08
5.19504e-08
5.17973e-08
3.7367e-08
5.30227e-07
7.00396e-07
6.89351e-07
7.76597e-07
7.76299e-07
7.64432e-07
4.44553e-07
6.17472e-08
3.51492e-08
6.6789e-08
5.1964e-08
5.18065e-08
9.68781e-08
4.18983e-08
2.29903e-07
7.64777e-07
1.00156e-07
7.74282e-07
1.00007e-07
7.74182e-07
2.30359e-07
5.51164e-08
5.17917e-08
5.20411e-08
5.1791e-08
5.20038e-08
5.17969e-08
5.51713e-08
5.23722e-07
7.76843e-07
7.75609e-07
7.65551e-07
7.76037e-07
7.64848e-07
5.17487e-07
6.19137e-08
5.20039e-08
5.18004e-08
9.70299e-08
5.18058e-08
9.69364e-08
6.20758e-08
2.57453e-07
8.2064e-08
3.83254e-08
5.24923e-08
1.18128e-07
5.64914e-08
1.88599e-07