/*--------------------------------*- C++ -*----------------------------------*\
| =========                 |                                                 |
| \\      /  F ield         | OpenFOAM: The Open Source CFD Toolbox           |
|  \\    /   O peration     | Version:  5.0                                   |
|   \\  /    A nd           | Web:      www.OpenFOAM.org                      |
|    \\/     M anipulation  |                                                 |
\*---------------------------------------------------------------------------*/
FoamFile
{
    version     2.0;
    format      ascii;
    class       volVectorField;
    location    "0.3";
    object      U;
}
// * * * * * * * * * * * * * * * * * * * * * * * * * * * * * * * * * * * * * //

dimensions      [0 1 -1 0 0 0 0];

internalField   nonuniform List<vector> 
4398
(
(0.0006631 -9.50475e-07 -3.46505e-06)
(0.00093942 -8.82922e-06 1.8686e-06)
(0.000829221 4.24607e-05 6.53926e-07)
(0.000738156 -1.94533e-05 5.64241e-06)
(0.000715079 -9.69994e-05 -7.9877e-06)
(0.000700705 -2.80173e-05 5.33536e-05)
(0.000498476 1.08812e-05 -8.94061e-07)
(0.000847712 -3.01772e-06 -1.99183e-06)
(0.000819151 -3.91009e-06 -2.77735e-07)
(0.000832609 -3.48765e-06 1.08507e-07)
(0.000834785 -2.6056e-06 2.7457e-08)
(0.000837139 -1.82973e-06 5.38032e-08)
(0.000837872 -1.23622e-06 -2.60264e-08)
(0.000837848 -8.27571e-07 6.08461e-08)
(0.000837272 -5.44125e-07 5.51589e-08)
(0.000836299 -3.58089e-07 6.33993e-09)
(0.000835042 -2.52749e-07 5.24434e-08)
(0.000833718 -2.21057e-07 -5.81505e-08)
(0.000832347 -9.0173e-08 5.94211e-08)
(0.000830931 -1.21073e-07 3.61378e-08)
(0.000829489 -6.97582e-08 4.13039e-08)
(0.00082788 -6.88611e-08 6.33283e-08)
(0.00082627 -6.4218e-08 5.02285e-08)
(0.000824636 -1.31638e-07 4.03734e-08)
(0.000823055 -1.78919e-07 5.85289e-08)
(0.000821558 -1.90158e-07 4.07142e-08)
(0.000819978 -1.36509e-07 4.09201e-08)
(0.000818269 -4.44753e-08 5.11747e-08)
(0.000816846 1.27307e-07 4.67479e-08)
(0.000815447 -5.27077e-09 4.55987e-08)
(0.000813591 -1.10256e-07 5.72122e-08)
(0.000811973 1.45297e-07 4.37407e-08)
(0.000810818 3.59336e-07 8.56518e-08)
(0.000809497 7.58515e-08 8.84962e-08)
(0.000807885 -2.05541e-08 4.81604e-08)
(0.000806275 -1.03186e-07 4.56638e-08)
(0.000804747 -6.35773e-08 5.34833e-08)
(0.000803262 -6.66397e-08 5.33813e-08)
(0.000801734 -3.6615e-08 6.39706e-08)
(0.000800252 1.09905e-07 4.14057e-08)
(0.00079884 -5.5649e-09 4.00173e-08)
(0.000797406 -2.11011e-08 8.1079e-08)
(0.00079582 -2.93594e-08 5.1668e-08)
(0.000794383 -1.22384e-07 2.06081e-07)
(0.000792958 -1.28439e-07 5.48896e-08)
(0.000791417 -9.08147e-08 5.73415e-08)
(0.000789953 -1.40767e-07 4.63689e-08)
(0.000788459 -5.20405e-08 4.70686e-08)
(0.000787077 -1.29772e-07 4.42652e-08)
(0.000785726 9.13194e-09 8.98281e-08)
(0.000661661 8.01821e-06 -4.13669e-06)
(0.000966244 -7.21228e-06 1.74249e-06)
(0.000822747 4.83154e-06 -2.16884e-07)
(0.000871529 -3.41737e-05 3.66067e-06)
(0.00056018 -9.11515e-06 1.03157e-05)
(0.00121535 0.000131211 9.09143e-05)
(0.000426285 -1.06286e-05 -9.11946e-07)
(0.000835453 -2.71067e-05 -1.84508e-06)
(0.000819053 -1.92774e-05 -1.56032e-07)
(0.000834377 -1.29382e-05 1.42085e-07)
(0.000836953 -8.59125e-06 5.46764e-08)
(0.000838938 -5.58718e-06 6.2427e-08)
(0.000839221 -3.60809e-06 5.54753e-08)
(0.000838803 -2.27971e-06 5.41993e-08)
(0.00083792 -1.43684e-06 5.3452e-08)
(0.000836712 -8.80237e-07 5.41484e-08)
(0.000835351 -4.97922e-07 3.4711e-08)
(0.000834027 -2.21817e-07 6.24095e-08)
(0.000832497 -4.65107e-08 2.11461e-08)
(0.000830867 -1.9569e-09 3.82884e-08)
(0.000829315 4.22059e-08 -7.66429e-08)
(0.000827781 -8.71079e-08 5.62256e-08)
(0.000826197 -1.52187e-07 -2.09132e-09)
(0.000824608 -1.63269e-07 8.55901e-08)
(0.000823125 -1.15986e-07 5.54942e-08)
(0.000821678 -1.3511e-07 2.36475e-08)
(0.000820189 -1.65984e-07 4.58579e-08)
(0.000818872 -1.96299e-07 4.65338e-08)
(0.000817037 -3.09436e-07 -1.21989e-09)
(0.000815006 -2.75558e-07 8.154e-08)
(0.000813853 -1.52682e-07 -1.43085e-07)
(0.000812537 3.1272e-08 -3.20002e-08)
(0.000810594 2.05501e-07 1.98389e-08)
(0.000808857 1.1076e-07 2.05957e-08)
(0.00080746 6.03534e-08 5.32614e-08)
(0.00080614 2.9244e-08 3.81509e-08)
(0.000804748 7.19792e-09 4.55758e-08)
(0.000803246 1.95904e-09 5.39995e-08)
(0.000801778 -3.80616e-08 4.27929e-08)
(0.000800288 -1.17695e-08 4.00788e-08)
(0.00079884 1.19141e-08 6.3937e-08)
(0.000797403 -2.03605e-10 5.6932e-08)
(0.000795957 -6.26754e-08 4.94322e-08)
(0.000794353 -3.29085e-08 2.61507e-08)
(0.000792775 -1.08509e-07 4.27953e-08)
(0.000791296 -3.0721e-08 5.71919e-08)
(0.000789969 1.24891e-07 3.7544e-08)
(0.000788656 1.03899e-07 5.05333e-08)
(0.000787058 1.02545e-07 6.08033e-08)
(0.000785743 1.66354e-08 8.26731e-08)
(0.000651402 1.1779e-05 -3.13269e-06)
(0.000937846 1.7743e-06 2.20203e-06)
(0.000790663 2.90464e-05 -4.0582e-07)
(0.000769594 -5.66236e-06 7.92049e-06)
(0.0002818 9.41615e-05 -1.22198e-05)
(0.000216377 -0.000119682 -1.58937e-06)
(0.000517358 -5.15776e-05 2.12059e-06)
(0.000871915 -4.44478e-05 -2.12858e-06)
(0.000837068 -3.10306e-05 -1.50914e-07)
(0.0008461 -1.91675e-05 1.08623e-07)
(0.000844062 -1.21923e-05 3.49889e-08)
(0.000843426 -7.65807e-06 5.47304e-08)
(0.000842044 -4.80745e-06 5.21878e-08)
(0.000840586 -3.01352e-06 5.31881e-08)
(0.000839036 -1.88703e-06 5.24608e-08)
(0.000837482 -1.19173e-06 5.2474e-08)
(0.00083587 -7.21876e-07 6.92444e-11)
(0.000834285 -4.28498e-07 5.21101e-08)
(0.000832623 -4.26837e-07 -2.25842e-08)
(0.000831043 -2.47822e-07 4.0799e-08)
(0.000829382 -2.08724e-07 4.05315e-08)
(0.000827638 -7.56942e-08 4.58617e-08)
(0.000826175 -6.02577e-08 8.11836e-09)
(0.000824681 3.94669e-08 7.275e-08)
(0.000823091 5.19461e-08 5.21969e-08)
(0.000821496 1.1103e-08 4.1107e-08)
(0.000819902 -1.1103e-07 6.46048e-08)
(0.00081809 -1.84456e-07 5.20435e-08)
(0.000816747 -4.92196e-07 1.55196e-07)
(0.000815643 -3.59734e-07 5.6638e-08)
(0.000813974 -1.83765e-07 3.14673e-08)
(0.00081242 -2.30202e-07 1.25135e-08)
(0.000810916 -3.29653e-07 3.74941e-08)
(0.000809315 -1.36666e-07 5.56439e-08)
(0.000807782 -7.86405e-08 7.45338e-08)
(0.000806208 8.00406e-08 5.59677e-08)
(0.000804712 6.43601e-08 2.4306e-08)
(0.000803206 4.99605e-08 5.56674e-08)
(0.000801717 2.77986e-08 5.03041e-08)
(0.000800314 1.93327e-08 4.93473e-08)
(0.000798854 3.16613e-08 5.87682e-08)
(0.000797312 -1.15388e-09 5.03426e-08)
(0.000795779 -5.35048e-08 7.03166e-08)
(0.000794326 -7.4819e-08 5.2805e-08)
(0.000792961 2.45226e-08 8.08895e-08)
(0.000791709 1.22371e-07 4.5654e-08)
(0.000790121 3.69354e-07 3.91725e-08)
(0.000788431 1.15229e-07 5.97076e-08)
(0.000786967 9.66755e-08 5.51823e-08)
(0.000785577 2.87405e-08 6.70823e-08)
(0.000655618 1.29826e-05 -4.35709e-06)
(0.000984528 -1.57356e-06 2.05086e-06)
(0.000813774 5.32995e-05 -1.20436e-07)
(0.000945125 -2.84499e-05 3.07953e-06)
(0.000541391 0.000106809 9.04032e-06)
(0.00024147 0.000115373 2.45262e-05)
(0.000460747 -2.65521e-05 2.54801e-05)
(0.000910768 -5.24858e-05 -1.44148e-06)
(0.000850813 -3.30142e-05 -3.48567e-07)
(0.000858127 -1.91111e-05 8.50071e-08)
(0.000851468 -1.15216e-05 4.2189e-08)
(0.00084825 -6.96518e-06 5.99384e-08)
(0.000845077 -4.23263e-06 5.27059e-08)
(0.000842485 -2.59736e-06 5.31092e-08)
(0.000840217 -1.60874e-06 5.22356e-08)
(0.000838181 -1.00515e-06 5.27336e-08)
(0.000836313 -6.32049e-07 5.11324e-08)
(0.000834401 -3.99466e-07 4.34025e-08)
(0.000832726 -2.7699e-07 5.30359e-08)
(0.000831143 -1.48937e-07 5.21347e-08)
(0.000829532 -2.05276e-07 7.9964e-08)
(0.000827968 -8.19435e-08 5.31341e-08)
(0.000826341 4.50835e-08 6.7969e-08)
(0.000824749 3.06675e-08 -1.46179e-07)
(0.00082309 6.98792e-08 3.82463e-08)
(0.000821475 1.08808e-07 3.44071e-08)
(0.000819945 1.26968e-07 5.10983e-08)
(0.000818397 9.67061e-08 4.34127e-08)
(0.00081682 2.72725e-07 6.47591e-08)
(0.000815394 -6.45944e-08 -3.2117e-08)
(0.000814017 2.04027e-08 5.41617e-08)
(0.000812357 2.25237e-08 9.11431e-08)
(0.000810713 5.7094e-08 5.10389e-08)
(0.000809172 4.72851e-08 4.70954e-08)
(0.000807731 8.35699e-08 5.51391e-08)
(0.000806319 5.25372e-08 3.37225e-08)
(0.00080471 8.62356e-08 4.42757e-08)
(0.0008032 7.97177e-08 5.05139e-08)
(0.00080174 1.18324e-07 4.65931e-08)
(0.000800293 8.27824e-08 5.9646e-08)
(0.000798814 1.10205e-08 3.9006e-08)
(0.000797297 -5.4516e-08 3.5004e-08)
(0.000795866 -7.11037e-08 4.71145e-08)
(0.000794451 -7.04327e-08 4.90095e-08)
(0.000793022 -7.84902e-08 8.43261e-08)
(0.000791726 -1.5158e-07 3.1656e-08)
(0.000789959 -4.01063e-07 7.16883e-08)
(0.000788315 -7.9765e-08 4.71501e-08)
(0.00078695 1.22182e-07 3.8841e-08)
(0.000785585 -2.66022e-08 1.45198e-07)
(0.000641967 4.93336e-06 -3.40266e-06)
(0.00098312 -4.21292e-06 1.54e-06)
(0.000779658 2.16155e-05 7.03832e-07)
(0.000913192 -3.5944e-05 4.04697e-06)
(0.000266131 0.000107226 8.21658e-07)
(5.46857e-05 0.000275993 7.63543e-06)
(0.000374451 -0.00010662 7.71737e-05)
(0.000972503 -3.19347e-05 -2.04873e-06)
(0.000879458 -1.71155e-05 -5.26213e-07)
(0.000873175 -9.26809e-06 1.17524e-07)
(0.000859368 -5.23756e-06 -2.25706e-07)
(0.000852612 -3.02018e-06 4.38134e-08)
(0.000847549 -1.80697e-06 3.1757e-08)
(0.000843894 -1.08142e-06 4.95926e-08)
(0.000841044 -6.39466e-07 -1.85022e-08)
(0.000838714 -3.76882e-07 5.63774e-08)
(0.000836634 -2.34086e-07 5.39897e-08)
(0.000834733 -1.71199e-07 5.34852e-08)
(0.000832939 5.31477e-08 1.32078e-08)
(0.000831134 3.22876e-08 6.90941e-08)
(0.000829467 3.45416e-08 5.33115e-08)
(0.000827952 9.80298e-08 3.01458e-08)
(0.000826317 1.22158e-07 3.09862e-08)
(0.000824713 8.45242e-08 7.2861e-08)
(0.000823189 1.02952e-07 4.70354e-08)
(0.000821567 1.16454e-07 4.9817e-08)
(0.000819887 1.48249e-07 -2.21166e-07)
(0.000818272 1.54911e-07 4.44102e-08)
(0.000816545 2.5374e-07 1.06702e-08)
(0.000815328 4.31745e-07 7.83993e-08)
(0.000814083 1.52338e-07 4.29251e-08)
(0.000812466 1.23789e-07 4.09226e-08)
(0.000810947 1.10593e-07 2.09971e-08)
(0.000809348 6.62796e-08 5.12104e-08)
(0.000807789 1.21963e-07 5.37852e-08)
(0.000806211 3.85054e-08 4.85662e-08)
(0.000804746 4.86095e-09 4.35932e-08)
(0.000803245 2.49414e-08 4.59301e-08)
(0.000801721 3.22742e-08 4.67008e-08)
(0.00080018 3.00957e-08 6.421e-08)
(0.000798683 -4.5854e-08 4.85441e-08)
(0.00079721 -1.04112e-07 2.24955e-08)
(0.000795759 -1.22424e-07 5.47905e-08)
(0.000794316 -1.81178e-07 1.09935e-07)
(0.000792859 -2.17322e-07 4.85806e-08)
(0.000791306 -3.17965e-07 4.89326e-08)
(0.000790212 -5.74338e-07 -2.26473e-09)
(0.000789085 -4.47079e-07 1.44683e-07)
(0.000787035 -4.77506e-07 4.19101e-08)
(0.000785455 -1.06269e-07 1.59906e-07)
(0.00065062 3.5816e-06 -4.24867e-06)
(0.0010036 2.42897e-06 1.02903e-06)
(0.000803884 3.16824e-06 -9.60655e-07)
(0.00108505 4.16177e-05 1.6645e-06)
(0.00023081 -2.65931e-05 2.04678e-05)
(0.000316005 5.02693e-05 -1.18753e-05)
(0.000459615 1.25842e-05 7.38487e-05)
(0.000971022 3.29121e-05 -1.93194e-06)
(0.000878841 1.73179e-05 -5.32596e-07)
(0.000873078 9.3018e-06 1.13065e-07)
(0.000859336 5.20496e-06 1.04717e-08)
(0.000852571 2.98909e-06 4.76639e-08)
(0.00084752 1.72942e-06 6.07164e-08)
(0.000843956 1.03336e-06 5.03573e-08)
(0.000841105 6.42317e-07 6.35927e-08)
(0.000838691 4.16328e-07 3.62111e-08)
(0.000836573 2.80535e-07 5.01851e-08)
(0.000834761 2.87387e-07 8.99279e-09)
(0.000832981 3.5389e-07 4.12264e-08)
(0.000831119 1.65315e-07 1.62834e-09)
(0.000829614 2.49804e-07 7.80542e-08)
(0.000828077 1.84478e-07 3.33488e-08)
(0.000826324 1.39639e-07 5.08498e-08)
(0.000824725 1.37364e-07 1.03915e-07)
(0.00082313 7.06125e-08 7.49347e-08)
(0.000821531 1.87292e-08 5.53127e-08)
(0.000819993 -1.02348e-09 4.33004e-08)
(0.000818529 3.69173e-08 4.85109e-08)
(0.000817166 1.30555e-07 5.39018e-08)
(0.000815266 4.04357e-07 4.52913e-08)
(0.000813631 3.40357e-08 6.78909e-08)
(0.000812304 1.35799e-07 7.70851e-08)
(0.000810641 5.52134e-08 4.25227e-08)
(0.000809186 7.13418e-08 5.09685e-08)
(0.000807696 1.16716e-08 6.24817e-08)
(0.000806172 9.36525e-09 4.94339e-08)
(0.000804693 3.74533e-09 8.19705e-08)
(0.000803235 -4.56177e-08 5.53217e-08)
(0.000801746 -4.85803e-08 3.52346e-08)
(0.000800195 -3.92967e-08 5.8468e-08)
(0.000798647 -3.88385e-08 4.64262e-08)
(0.000797201 -3.93214e-08 4.25731e-08)
(0.00079577 -4.35722e-08 5.5248e-08)
(0.000794333 -4.12848e-08 4.51997e-08)
(0.000792852 -6.29431e-08 -2.53014e-08)
(0.000791281 -1.04924e-07 5.00825e-08)
(0.000789799 -2.15709e-07 2.97246e-08)
(0.000788437 -4.56963e-07 2.17853e-08)
(0.000787377 -5.12606e-07 5.45144e-08)
(0.000786317 -1.45973e-07 8.40937e-08)
(0.000639756 -8.88071e-06 -2.76591e-06)
(0.000970022 -2.18004e-06 1.35414e-06)
(0.00081911 -3.90757e-05 -7.92025e-08)
(0.000942066 2.76696e-05 5.38724e-06)
(0.000479879 -9.41654e-05 3.46164e-06)
(6.4058e-05 -0.000235845 -6.86626e-06)
(0.000330408 0.00010398 3.30715e-05)
(0.000909361 5.12257e-05 -1.43368e-06)
(0.00085029 3.26306e-05 -3.45922e-07)
(0.000857932 1.88946e-05 1.80978e-07)
(0.00085142 1.14126e-05 4.49129e-08)
(0.000848235 6.88973e-06 6.03286e-08)
(0.000845085 4.2242e-06 5.32096e-08)
(0.000842523 2.58965e-06 5.3445e-08)
(0.000840266 1.58458e-06 5.2464e-08)
(0.000838257 9.6948e-07 5.27796e-08)
(0.00083647 6.16001e-07 5.29836e-08)
(0.000834822 3.86588e-07 6.87541e-08)
(0.000832784 4.32564e-08 -3.54062e-08)
(0.000831003 1.03782e-07 4.98494e-08)
(0.00082949 2.04723e-07 1.95303e-08)
(0.000827813 9.15929e-08 4.96251e-08)
(0.000826257 1.17597e-07 5.40888e-08)
(0.000824626 2.78e-08 4.81689e-08)
(0.00082304 -3.05246e-08 1.15414e-07)
(0.000821478 1.8073e-08 7.6357e-08)
(0.00081991 9.33737e-08 5.21698e-08)
(0.000818437 2.08959e-07 6.73227e-08)
(0.000817004 1.44405e-07 6.55432e-08)
(0.000815207 9.89055e-09 6.19841e-08)
(0.000813747 3.31664e-07 5.93427e-08)
(0.000812492 1.18714e-08 1.37075e-07)
(0.000810866 -1.55199e-08 4.97501e-08)
(0.000809293 3.38086e-08 5.74462e-08)
(0.000807711 6.76939e-08 3.73062e-08)
(0.000806201 1.1505e-07 5.34452e-08)
(0.000804678 2.06964e-07 4.96099e-08)
(0.00080318 1.45418e-07 3.94387e-08)
(0.000801729 4.75399e-08 5.23438e-08)
(0.000800192 3.42309e-09 7.23078e-08)
(0.000798683 2.88353e-08 4.58267e-08)
(0.000797204 5.50429e-08 1.56038e-08)
(0.000795756 5.06433e-08 5.22809e-08)
(0.000794292 5.1163e-08 5.68797e-08)
(0.00079278 6.07612e-08 4.49309e-08)
(0.000791115 1.1781e-07 4.99856e-08)
(0.000789772 3.3487e-07 8.06458e-08)
(0.000788715 3.54844e-07 6.35171e-08)
(0.000787426 2.12507e-07 1.50553e-08)
(0.000786278 7.96537e-08 1.0916e-07)
(0.000663282 -1.44544e-05 -4.1068e-06)
(0.000958755 -1.4884e-05 1.98501e-06)
(0.000827312 -4.56124e-05 -9.10389e-08)
(0.000852932 -1.00145e-05 5.50633e-06)
(0.000263366 -0.000156533 7.60527e-06)
(7.32436e-05 3.21213e-05 -8.81085e-06)
(0.000352075 2.56692e-05 4.53123e-06)
(0.000872757 4.31613e-05 -2.15515e-06)
(0.000837714 3.0469e-05 -2.8259e-07)
(0.000846348 1.89197e-05 1.05392e-07)
(0.000844208 1.20762e-05 3.4297e-08)
(0.000843512 7.5998e-06 5.48111e-08)
(0.0008421 4.78152e-06 5.23628e-08)
(0.000840629 2.9986e-06 5.32851e-08)
(0.000839063 1.86019e-06 5.36931e-08)
(0.00083747 1.10985e-06 5.30355e-08)
(0.000835838 6.34765e-07 5.07266e-08)
(0.000834041 2.77002e-07 3.24651e-08)
(0.000832625 -7.0174e-08 1.64199e-07)
(0.00083132 8.43751e-08 4.20384e-08)
(0.000829598 -5.59427e-08 -2.18545e-09)
(0.000827967 -4.73365e-08 4.87886e-08)
(0.000826244 -1.43747e-07 5.24245e-08)
(0.000824539 2.92571e-09 5.23602e-08)
(0.000823118 8.10757e-08 3.78207e-08)
(0.000821685 1.07867e-07 6.06788e-08)
(0.000820231 9.12637e-08 -8.76428e-10)
(0.000818591 1.13973e-07 1.86892e-08)
(0.000816916 6.32006e-08 1.1237e-08)
(0.000815499 4.47211e-09 -1.00246e-07)
(0.000813633 2.25347e-07 4.72757e-08)
(0.00081187 1.44902e-07 4.18061e-08)
(0.000810668 1.81053e-07 4.9492e-08)
(0.00080929 3.02138e-08 5.06284e-08)
(0.000807798 8.80265e-09 4.96135e-08)
(0.000806346 3.43704e-08 3.60917e-08)
(0.00080473 -7.37422e-08 5.23274e-08)
(0.000803035 2.22309e-08 1.20497e-08)
(0.000801568 6.0119e-08 4.96703e-08)
(0.000800172 2.05591e-07 4.4758e-08)
(0.000798711 1.1094e-07 4.44871e-08)
(0.000797228 9.10186e-08 5.62554e-08)
(0.000795765 6.7224e-08 6.12836e-08)
(0.000794346 -5.21623e-08 5.25949e-08)
(0.000792935 3.31387e-08 5.33557e-08)
(0.000791623 1.761e-07 4.96887e-08)
(0.000790095 4.38678e-07 1.91496e-08)
(0.000788283 4.47133e-07 2.40625e-08)
(0.000787031 2.83359e-07 8.67504e-09)
(0.000785953 8.08918e-08 -5.65338e-08)
(0.000663446 9.40794e-07 -4.19405e-06)
(0.000965172 -4.46379e-06 7.66869e-07)
(0.00084506 -4.24459e-05 -7.66857e-07)
(0.000757791 1.21607e-05 1.00085e-05)
(0.000342217 -0.000102776 2.76951e-06)
(0.00017124 -5.69265e-05 -7.5677e-06)
(0.000452331 2.45255e-05 -9.44996e-07)
(0.00083677 2.75305e-05 -1.85478e-06)
(0.000819835 1.9422e-05 -1.3811e-07)
(0.000834741 1.30287e-05 1.40916e-07)
(0.000837143 8.62291e-06 5.46904e-08)
(0.000839037 5.61825e-06 6.26359e-08)
(0.000839283 3.62643e-06 5.65913e-08)
(0.00083884 2.33286e-06 5.46655e-08)
(0.000837885 1.48603e-06 5.41788e-08)
(0.000836713 9.57225e-07 1.07692e-07)
(0.000835422 5.92711e-07 8.46838e-08)
(0.000833938 4.34166e-07 2.56217e-08)
(0.000832542 4.20606e-07 5.52102e-08)
(0.00083102 2.32826e-07 1.66315e-08)
(0.000829325 3.92184e-08 4.82205e-08)
(0.000827703 -4.50674e-08 -2.96153e-08)
(0.00082632 -1.15278e-07 5.97847e-08)
(0.000824907 -2.01535e-08 4.99694e-08)
(0.000823171 5.45456e-08 4.34568e-08)
(0.00082149 4.45276e-08 6.10476e-08)
(0.000819917 5.91658e-09 5.15886e-08)
(0.000818401 -1.34938e-07 8.93178e-09)
(0.000816866 -3.32557e-08 2.33454e-08)
(0.000815408 -7.66303e-08 5.12551e-08)
(0.000813921 -1.89981e-07 2.7348e-08)
(0.000812436 -5.07561e-08 4.91858e-08)
(0.000810722 -1.24756e-07 1.20014e-07)
(0.000809077 -3.92739e-08 4.76891e-08)
(0.000807716 -9.04619e-08 4.4695e-08)
(0.000806098 -1.30409e-07 6.31558e-08)
(0.000804663 -2.12608e-07 4.71592e-08)
(0.000803348 -1.5368e-07 4.51502e-08)
(0.000801958 -7.09976e-08 3.69453e-08)
(0.000800255 -1.62756e-07 1.08116e-07)
(0.000798539 -9.07776e-09 5.30543e-08)
(0.000797149 7.13245e-08 4.46982e-08)
(0.000795577 1.54644e-07 4.75673e-08)
(0.00079425 3.27217e-07 4.31245e-08)
(0.000793065 2.60477e-07 6.6649e-08)
(0.000791622 1.68598e-07 5.24105e-08)
(0.00079011 1.08807e-08 5.48625e-08)
(0.00078852 2.90467e-08 4.00248e-08)
(0.000786967 2.98095e-07 -7.22345e-08)
(0.000785824 -1.1257e-08 8.60636e-08)
(0.000673521 -2.29245e-06 -3.60486e-06)
(0.000930814 3.37667e-06 1.36528e-06)
(0.000847213 -4.0242e-06 -3.25671e-06)
(0.000826897 1.02681e-05 -2.94138e-06)
(0.000686566 4.52466e-07 7.76076e-06)
(0.00170783 -0.0012707 6.45887e-05)
(0.000475518 -1.67176e-05 -7.9709e-07)
(0.000848092 4.16302e-06 -1.99304e-06)
(0.000819388 4.5083e-06 -2.76606e-07)
(0.000832714 3.82779e-06 1.09193e-07)
(0.000834855 2.83167e-06 4.91529e-08)
(0.000837208 1.96347e-06 4.96642e-08)
(0.000837956 1.32977e-06 8.04351e-09)
(0.000837929 8.45109e-07 8.72545e-08)
(0.000837327 5.43074e-07 5.26637e-08)
(0.000836344 3.59201e-07 4.52873e-08)
(0.000835177 2.1467e-07 5.2677e-08)
(0.000833822 5.68949e-08 5.26508e-08)
(0.000832371 3.97844e-08 -1.11488e-07)
(0.000830841 -9.87962e-08 3.84987e-08)
(0.00082925 -3.07911e-08 3.68113e-08)
(0.000827774 3.19101e-08 2.55198e-08)
(0.000826275 1.11211e-07 5.1311e-08)
(0.000824752 -7.68806e-09 5.16353e-08)
(0.000823198 -1.05582e-07 7.27449e-08)
(0.000821624 -1.00294e-07 7.40847e-08)
(0.000820006 -5.12244e-08 4.26563e-08)
(0.000818542 -5.12969e-08 5.16491e-08)
(0.000816989 -1.57045e-07 -9.4275e-08)
(0.000815303 -6.86769e-08 4.70331e-08)
(0.000813666 -1.27104e-07 4.20969e-08)
(0.000811952 -3.34497e-07 5.48334e-08)
(0.000810683 -4.98861e-07 5.86039e-08)
(0.000809333 -2.59601e-07 6.69606e-08)
(0.000807684 -1.64398e-07 4.15836e-08)
(0.000806194 -1.25517e-07 5.79074e-08)
(0.000804702 -2.34366e-08 6.0625e-08)
(0.000803212 -5.82899e-08 4.70643e-08)
(0.000801557 -9.18012e-08 6.83714e-08)
(0.00080025 -2.37307e-07 5.61812e-08)
(0.000799004 -9.50365e-08 5.44724e-08)
(0.000797433 3.02235e-09 3.94285e-08)
(0.000796084 1.10127e-07 4.7084e-08)
(0.000794477 1.96788e-07 3.64113e-08)
(0.000792736 2.16803e-07 2.88031e-08)
(0.000791311 1.11124e-07 4.53066e-08)
(0.00078992 5.32033e-08 7.82703e-08)
(0.000788642 -1.43046e-08 4.68736e-08)
(0.000786981 4.52007e-09 5.87981e-08)
(0.000785592 7.50481e-08 7.42891e-08)
(0.00111913 3.88741e-06 6.22353e-07)
(0.00155678 -1.19145e-05 9.02128e-07)
(0.00140624 6.28353e-05 3.83874e-06)
(0.0014309 -4.34376e-05 9.92378e-06)
(0.00141665 -0.000226698 -2.17365e-07)
(0.00137615 -6.52137e-05 7.6123e-05)
(0.00149462 3.28841e-05 -2.2335e-07)
(0.00141349 -4.93308e-06 3.53624e-07)
(0.00136545 -6.47633e-06 3.41372e-07)
(0.00138769 -5.77779e-06 3.47019e-07)
(0.00139132 -4.31804e-06 3.93929e-07)
(0.00139523 -3.03559e-06 3.47749e-07)
(0.00139647 -2.04748e-06 2.77748e-07)
(0.00139642 -1.36156e-06 3.65162e-07)
(0.00139542 -8.95777e-07 3.51463e-07)
(0.00139381 -5.97623e-07 2.57017e-07)
(0.00139171 -4.1846e-07 3.46278e-07)
(0.00138951 -3.80787e-07 2.27498e-07)
(0.00138726 -1.26436e-07 3.52888e-07)
(0.00138489 -1.9042e-07 3.09128e-07)
(0.00138245 -9.48556e-08 3.56276e-07)
(0.00137976 -7.33541e-08 4.53883e-07)
(0.0013771 -8.49732e-08 3.4418e-07)
(0.0013744 -1.80626e-07 3.02352e-07)
(0.00137175 -2.16955e-07 3.63575e-07)
(0.00136922 -2.26555e-07 3.36637e-07)
(0.00136659 -1.77459e-07 3.2303e-07)
(0.00136372 -6.20437e-08 3.4062e-07)
(0.00136137 1.63299e-07 3.50721e-07)
(0.00135903 -4.21333e-09 3.35413e-07)
(0.00135591 -9.23247e-08 3.58799e-07)
(0.0013534 3.41035e-07 5.63257e-08)
(0.00135146 5.82676e-07 3.7844e-07)
(0.00134914 1.55684e-07 4.81994e-07)
(0.00134645 5.96612e-09 3.37006e-07)
(0.00134376 -1.30336e-07 3.37304e-07)
(0.00134121 -6.5198e-08 3.38044e-07)
(0.00133873 -6.97779e-08 3.63445e-07)
(0.0013362 -2.3271e-08 3.56969e-07)
(0.00133374 1.75059e-07 3.13574e-07)
(0.00133137 6.36933e-09 3.04476e-07)
(0.00132893 -2.31394e-08 3.63381e-07)
(0.00132628 -4.89688e-08 3.37387e-07)
(0.00132394 -1.42329e-07 4.43129e-07)
(0.0013216 -1.84171e-07 3.3384e-07)
(0.00131904 -1.46205e-07 3.88015e-07)
(0.00131661 -2.19165e-07 3.26504e-07)
(0.00131412 -8.22912e-08 3.26118e-07)
(0.00131178 -2.03233e-07 2.99812e-07)
(0.00130952 6.20706e-09 3.33145e-07)
(0.00110221 4.94376e-06 -7.138e-07)
(0.00158607 -1.7005e-05 1.60315e-06)
(0.00136842 3.1848e-05 2.35511e-06)
(0.00142279 -4.91335e-05 3.18945e-06)
(0.00160656 2.26156e-05 -3.58312e-05)
(0.00146505 0.000231233 7.82609e-05)
(0.00127777 -3.13764e-05 -9.37824e-08)
(0.00139304 -4.5073e-05 3.48092e-07)
(0.00136527 -3.20294e-05 3.41962e-07)
(0.00139063 -2.15054e-05 3.47864e-07)
(0.00139493 -1.42764e-05 3.4871e-07)
(0.00139823 -9.28351e-06 3.49581e-07)
(0.0013987 -5.99039e-06 3.49798e-07)
(0.00139799 -3.8e-06 3.49479e-07)
(0.00139652 -2.39424e-06 3.48754e-07)
(0.00139451 -1.45738e-06 2.98438e-07)
(0.00139223 -8.42549e-07 3.53608e-07)
(0.00139003 -3.754e-07 4.3399e-07)
(0.00138749 -8.7659e-08 2.99023e-07)
(0.00138477 -1.97924e-08 3.15125e-07)
(0.00138221 4.68901e-08 2.09904e-07)
(0.00137963 -1.22805e-07 3.52672e-07)
(0.00137698 -1.88937e-07 2.79331e-07)
(0.00137438 -2.05423e-07 6.2018e-07)
(0.00137189 -1.34143e-07 3.48899e-07)
(0.00136941 -1.51605e-07 3.10488e-07)
(0.00136691 -1.92495e-07 3.01713e-07)
(0.00136469 -2.3881e-07 3.34705e-07)
(0.00136168 -3.41676e-07 3.36454e-07)
(0.00135844 -3.3495e-07 4.76775e-07)
(0.0013565 -1.06515e-07 -1.57337e-07)
(0.00135412 2.01004e-07 2.63416e-07)
(0.0013509 3.55979e-07 2.76332e-07)
(0.00134812 1.86144e-07 2.83615e-07)
(0.00134577 9.44022e-08 3.36193e-07)
(0.00134356 6.16962e-08 3.18921e-07)
(0.00134123 2.01456e-08 3.38471e-07)
(0.0013387 2.69286e-08 3.69603e-07)
(0.00133625 -2.21731e-08 3.17764e-07)
(0.00133377 5.10209e-09 2.48444e-07)
(0.00133134 1.29627e-08 3.64213e-07)
(0.00132894 -2.12343e-08 3.4166e-07)
(0.00132659 -8.52224e-08 3.30457e-07)
(0.00132392 -1.12424e-08 5.28928e-07)
(0.00132125 -1.64745e-07 3.38622e-07)
(0.00131882 -7.46186e-08 3.53033e-07)
(0.0013166 1.54195e-07 3.03907e-07)
(0.00131439 1.19603e-07 3.44682e-07)
(0.00131177 1.33515e-07 3.7696e-07)
(0.00130957 4.11154e-08 3.24559e-07)
(0.00109587 2.07691e-05 1.46519e-06)
(0.00158243 2.09532e-06 2.77563e-06)
(0.00134099 5.5989e-05 -1.72046e-06)
(0.00147183 1.05916e-05 5.97113e-06)
(0.00131646 4.70972e-05 4.73711e-05)
(0.000940668 0.000210994 -4.19792e-05)
(0.00148013 -0.000152962 4.33962e-06)
(0.0014539 -7.39491e-05 3.65907e-07)
(0.00139525 -5.1578e-05 5.52532e-07)
(0.00141011 -3.1884e-05 3.53147e-07)
(0.00140675 -2.02831e-05 3.51625e-07)
(0.00140569 -1.27434e-05 3.51327e-07)
(0.00140339 -8.00511e-06 3.5073e-07)
(0.00140096 -5.02168e-06 3.50231e-07)
(0.00139837 -3.1442e-06 3.49685e-07)
(0.00139576 -1.98322e-06 3.50327e-07)
(0.00139307 -1.20426e-06 2.92812e-07)
(0.00139046 -7.02139e-07 3.03774e-07)
(0.00138771 -7.06723e-07 2.82752e-07)
(0.00138506 -4.21698e-07 3.0194e-07)
(0.00138232 -3.4249e-07 3.2494e-07)
(0.00137947 -1.45789e-07 3.37421e-07)
(0.001377 -1.03893e-07 3.00148e-07)
(0.00137447 3.47056e-08 3.80176e-07)
(0.00137182 2.38868e-08 3.51298e-07)
(0.00136915 -3.48053e-08 3.27256e-07)
(0.00136648 -1.97899e-07 3.93582e-07)
(0.00136353 -3.04156e-07 3.42045e-07)
(0.00136125 -7.6524e-07 3.99572e-07)
(0.00135933 -5.72754e-07 3.05137e-07)
(0.00135658 -3.52937e-07 2.49084e-07)
(0.00135397 -4.40883e-07 3.29586e-07)
(0.00135144 -5.14466e-07 4.17945e-07)
(0.00134881 -2.18878e-07 3.4717e-07)
(0.00134629 -1.3517e-07 3.74391e-07)
(0.00134367 1.02581e-07 3.22245e-07)
(0.00134116 7.39131e-08 2.9816e-07)
(0.00133867 5.87121e-08 3.49382e-07)
(0.00133617 3.60853e-08 3.32042e-07)
(0.00133378 2.88752e-08 3.37932e-07)
(0.00133133 3.68489e-08 3.52553e-07)
(0.0013288 -1.62026e-09 3.96728e-07)
(0.00132629 -6.4912e-08 5.43801e-07)
(0.00132384 -1.39803e-07 3.3152e-07)
(0.00132153 3.83694e-08 3.54798e-07)
(0.00131944 1.94338e-07 3.32519e-07)
(0.00131685 5.35356e-07 3.05339e-07)
(0.00131409 1.28841e-07 3.48631e-07)
(0.00131168 1.20485e-07 3.5456e-07)
(0.00130931 1.04055e-08 3.30692e-07)
(0.00108667 2.73367e-05 -1.975e-07)
(0.00161736 8.70668e-06 8.5909e-07)
(0.00135558 8.16483e-05 7.609e-07)
(0.00157433 -2.64927e-05 1.86779e-06)
(0.00157849 0.000312435 -1.09079e-05)
(0.00092718 0.000916463 7.4185e-05)
(0.00122049 -6.79452e-05 4.31485e-05)
(0.00151812 -8.7236e-05 3.78803e-07)
(0.00141805 -5.49466e-05 3.55205e-07)
(0.00143009 -3.18283e-05 2.43724e-07)
(0.00141907 -1.92125e-05 3.53094e-07)
(0.00141371 -1.1601e-05 3.53347e-07)
(0.00140844 -7.06583e-06 3.5192e-07)
(0.00140412 -4.33349e-06 3.51007e-07)
(0.00140035 -2.68876e-06 3.49764e-07)
(0.00139696 -1.6622e-06 3.49471e-07)
(0.00139385 -1.03079e-06 3.49161e-07)
(0.00139066 -6.37297e-07 2.83808e-07)
(0.00138785 -4.38758e-07 3.84115e-07)
(0.00138523 -2.34813e-07 3.24647e-07)
(0.00138255 -3.23215e-07 3.8066e-07)
(0.00137993 -1.59064e-07 3.43141e-07)
(0.00137721 -3.11893e-09 3.70878e-07)
(0.00137454 -3.23917e-08 1.4176e-07)
(0.0013718 2.49049e-08 3.10579e-07)
(0.00136914 7.78408e-08 2.90987e-07)
(0.00136657 8.96321e-08 3.46551e-07)
(0.00136398 7.54793e-08 3.33071e-07)
(0.00136135 3.29244e-07 3.6098e-07)
(0.00135896 -1.48969e-07 2.40071e-07)
(0.00135667 -3.4774e-08 3.03788e-07)
(0.00135392 -7.82399e-08 4.04348e-07)
(0.00135117 1.5324e-08 3.35824e-07)
(0.0013486 4.30497e-08 3.31496e-07)
(0.00134617 1.10454e-07 3.4263e-07)
(0.00134382 4.89089e-08 2.54202e-07)
(0.00134118 1.14093e-07 3.0531e-07)
(0.00133866 8.65706e-08 3.36163e-07)
(0.00133621 1.39383e-07 3.68463e-07)
(0.00133377 9.04833e-08 3.59582e-07)
(0.0013313 1.54083e-08 3.25414e-07)
(0.00132881 -4.8035e-08 3.08197e-07)
(0.00132642 -6.2688e-08 3.26533e-07)
(0.00132405 -5.90717e-08 3.24386e-07)
(0.00132167 -6.25312e-08 3.71693e-07)
(0.00131944 -1.59562e-07 2.91113e-07)
(0.00131652 -5.67686e-07 3.85242e-07)
(0.00131388 -9.91409e-08 3.33898e-07)
(0.00131162 1.78027e-07 3.1182e-07)
(0.00130941 -4.97807e-08 3.93344e-07)
(0.00108267 1.0858e-05 2.35545e-07)
(0.00164335 -3.10431e-06 9.05396e-07)
(0.0013154 4.19856e-05 3.05721e-06)
(0.00168295 -4.25119e-05 6.96338e-06)
(0.000951558 0.000204907 4.25248e-06)
(0.00217803 0.00119774 -0.000199221)
(0.00126222 6.82369e-05 6.60209e-05)
(0.00162025 -5.36968e-05 3.71734e-07)
(0.00146569 -2.86493e-05 3.68269e-07)
(0.00145512 -1.55118e-05 5.01179e-07)
(0.00143224 -8.76362e-06 2.3013e-08)
(0.00142099 -5.05673e-06 3.4885e-07)
(0.00141255 -3.0078e-06 3.26949e-07)
(0.00140648 -1.80388e-06 3.50873e-07)
(0.00140174 -1.06768e-06 2.03577e-07)
(0.00139785 -6.45039e-07 3.79059e-07)
(0.00139436 -4.00382e-07 3.46662e-07)
(0.0013912 -3.06517e-07 3.51421e-07)
(0.00138821 6.84711e-08 2.83149e-07)
(0.00138521 5.04347e-08 3.714e-07)
(0.00138242 5.44507e-08 3.44221e-07)
(0.00137987 1.361e-07 3.05888e-07)
(0.00137716 1.68096e-07 3.12784e-07)
(0.0013745 1.07162e-07 3.66907e-07)
(0.00137195 1.4332e-07 2.91808e-07)
(0.00136923 1.38029e-07 3.40898e-07)
(0.00136648 1.73011e-07 2.50794e-08)
(0.00136383 1.8136e-07 3.14984e-07)
(0.00136097 3.30778e-07 2.24062e-07)
(0.00135887 6.23957e-07 3.63866e-07)
(0.00135667 2.33087e-07 4.06059e-07)
(0.00135404 1.78287e-07 2.18836e-07)
(0.00135159 1.31864e-07 2.87014e-07)
(0.00134893 7.90217e-08 3.3678e-07)
(0.0013463 1.72514e-07 3.5848e-07)
(0.00134367 5.66547e-08 3.33154e-07)
(0.00134121 4.38089e-10 1.38682e-07)
(0.00133871 2.38057e-08 3.3161e-07)
(0.00133617 1.90932e-08 3.30798e-07)
(0.00133363 2.83158e-08 3.59672e-07)
(0.00133116 -5.20391e-08 3.30131e-07)
(0.00132871 -1.21406e-07 2.54203e-07)
(0.00132628 -1.40734e-07 3.41056e-07)
(0.00132384 -2.17668e-07 4.01707e-07)
(0.0013214 -2.86722e-07 3.30848e-07)
(0.00131881 -4.32098e-07 3.25051e-07)
(0.00131693 -7.57801e-07 2.69236e-07)
(0.00131502 -5.37443e-07 3.94331e-07)
(0.00131174 -6.26834e-07 3.10235e-07)
(0.00130914 -1.17024e-07 3.98303e-07)
(0.00108087 2.78102e-06 -9.98282e-07)
(0.00164975 1.3715e-05 6.29153e-07)
(0.00130657 1.6993e-05 -1.88283e-06)
(0.00170094 7.14489e-05 2.70335e-06)
(0.00112209 -0.000215419 6.02053e-05)
(0.000421818 -0.00043072 9.58499e-05)
(0.00167469 5.17411e-05 0.000116704)
(0.00161962 5.45772e-05 4.46994e-07)
(0.00146512 2.86729e-05 3.66427e-07)
(0.00145512 1.54073e-05 3.5598e-07)
(0.00143223 8.64248e-06 3.37169e-07)
(0.00142096 4.94812e-06 3.55169e-07)
(0.00141253 2.88057e-06 3.80822e-07)
(0.00140657 1.71779e-06 3.51904e-07)
(0.00140181 1.07182e-06 4.16361e-07)
(0.0013978 6.75808e-07 3.30943e-07)
(0.00139428 4.55949e-07 3.48798e-07)
(0.00139125 4.61774e-07 2.9873e-07)
(0.00138829 5.29234e-07 3.38238e-07)