/*--------------------------------*- C++ -*----------------------------------*\
| =========                 |                                                 |
| \\      /  F ield         | OpenFOAM: The Open Source CFD Toolbox           |
|  \\    /   O peration     | Version:  5.0                                   |
|   \\  /    A nd           | Web:      www.OpenFOAM.org                      |
|    \\/     M anipulation  |                                                 |
\*---------------------------------------------------------------------------*/
FoamFile
{
    version     2.0;
    format      ascii;
    class       volVectorField;
    location    "0.3";
    object      U_0;
}
// * * * * * * * * * * * * * * * * * * * * * * * * * * * * * * * * * * * * * //

dimensions      [0 1 -1 0 0 0 0];

internalField   nonuniform List<vector> 
4398
(
(0.000663227 -1.52259e-07 -3.69406e-06)
(0.000938657 -8.48411e-06 1.73799e-06)
(0.000829453 4.28297e-05 6.55598e-07)
(0.000737169 -2.05617e-05 5.65623e-06)
(0.00070854 -9.83688e-05 -7.74607e-06)
(0.000695286 -2.80271e-05 5.43959e-05)
(0.000499027 1.12325e-05 -9.10132e-07)
(0.000848109 -2.83121e-06 -1.99298e-06)
(0.000819506 -3.75153e-06 -2.77039e-07)
(0.000832829 -3.37321e-06 1.08508e-07)
(0.00083493 -2.54261e-06 4.99708e-08)
(0.000837238 -1.81143e-06 4.76904e-08)
(0.000838032 -1.25647e-06 -1.88916e-07)
(0.000838005 -7.93268e-07 4.39592e-08)
(0.000837309 -5.27867e-07 5.14288e-08)
(0.000836341 -3.78064e-07 1.29465e-07)
(0.000835096 -2.26337e-07 5.24628e-08)
(0.000833741 -2.16022e-07 5.28248e-08)
(0.000832472 -7.27354e-09 5.80922e-08)
(0.000831035 -6.82063e-08 8.39227e-08)
(0.000829389 3.98612e-08 4.37989e-08)
(0.000827788 7.05923e-08 7.20439e-08)
(0.000826321 1.81246e-08 5.56578e-08)
(0.000824771 3.31016e-08 4.49748e-08)
(0.000823142 1.13988e-07 4.20916e-08)
(0.000821516 1.05411e-07 4.18569e-08)
(0.000819923 3.53163e-09 5.65078e-08)
(0.00081814 -1.32949e-08 4.94452e-08)
(0.000816824 -1.03437e-07 5.98829e-08)
(0.000815378 2.91317e-08 5.449e-08)
(0.000813473 2.77951e-07 6.67487e-08)
(0.000812458 4.90466e-07 6.10489e-08)
(0.000811207 2.67995e-07 3.60138e-08)
(0.000809471 1.74822e-07 4.65095e-08)
(0.000807892 1.09776e-07 5.01711e-08)
(0.000806244 4.37253e-08 5.1558e-08)
(0.000804703 8.66583e-08 5.51021e-08)
(0.000803227 7.60235e-08 5.05552e-08)
(0.00080175 8.3548e-08 3.147e-08)
(0.000800295 5.83987e-08 6.3189e-08)
(0.00079878 6.20642e-08 5.97041e-08)
(0.00079718 3.9197e-08 1.18728e-07)
(0.000795558 2.07424e-08 4.73815e-08)
(0.000794331 1.59706e-07 7.01638e-08)
(0.000793056 3.47289e-08 4.95847e-08)
(0.000791557 1.27194e-08 4.34309e-08)
(0.00079015 -2.54487e-08 4.89884e-08)
(0.00078862 -2.94992e-09 4.99483e-08)
(0.000787105 -4.26272e-08 7.32789e-08)
(0.000785779 -2.34205e-08 7.77625e-08)
(0.000661873 7.77179e-06 -4.14659e-06)
(0.000966072 -7.46103e-06 1.74093e-06)
(0.000822969 5.03987e-06 -3.3076e-07)
(0.000871494 -3.39577e-05 3.91517e-06)
(0.000561166 -7.86417e-06 1.02236e-05)
(0.00122313 0.000137486 9.02114e-05)
(0.000426503 -1.07866e-05 -9.11381e-07)
(0.000835775 -2.67032e-05 -1.84561e-06)
(0.000819328 -1.89561e-05 -1.56732e-07)
(0.00083453 -1.27292e-05 1.41933e-07)
(0.000837063 -8.44766e-06 5.51943e-08)
(0.000839031 -5.48588e-06 6.28644e-08)
(0.000839317 -3.52421e-06 5.65207e-08)
(0.000838884 -2.27315e-06 5.47958e-08)
(0.000837981 -1.43988e-06 5.35546e-08)
(0.000836808 -8.76391e-07 1.65969e-08)
(0.000835442 -5.57942e-07 2.37776e-08)
(0.00083408 -3.15955e-07 3.25841e-08)
(0.00083254 -7.96255e-08 5.76614e-08)
(0.000830957 -8.81463e-08 5.15244e-08)
(0.000829462 -5.28269e-08 2.8219e-08)
(0.000827818 1.82503e-08 4.20288e-08)
(0.000826245 1.11551e-07 1.34853e-07)
(0.0008248 8.6649e-08 7.18618e-08)
(0.000823214 7.22098e-08 4.59316e-08)
(0.000821554 1.11419e-07 -2.40563e-09)
(0.000820004 1.28413e-07 6.16107e-08)
(0.000818549 1.31007e-07 5.65488e-08)
(0.000816956 3.12994e-07 5.59507e-08)
(0.000815557 1.9431e-07 8.33914e-08)
(0.000814232 3.76095e-07 4.72421e-09)
(0.000812185 5.09237e-07 7.21705e-09)
(0.000810376 2.34582e-07 7.72884e-08)
(0.000809089 1.26355e-07 1.03269e-07)
(0.000807627 4.47225e-08 5.22688e-08)
(0.000806221 7.07347e-08 7.4875e-08)
(0.00080476 5.60351e-08 5.27572e-08)
(0.000803188 7.96691e-08 4.93616e-08)
(0.000801694 8.70635e-08 5.85024e-08)
(0.000800213 5.03949e-08 4.05544e-08)
(0.000798726 -2.09059e-08 3.36876e-08)
(0.000797276 -4.20413e-08 4.32373e-08)
(0.000796014 2.58199e-08 5.01211e-08)
(0.000794422 1.6948e-07 6.42908e-08)
(0.000792762 -8.95862e-09 4.42235e-08)
(0.000791361 -6.2612e-08 7.36871e-08)
(0.000789951 -8.42016e-08 8.28991e-08)
(0.000788587 -1.06518e-07 3.66984e-08)
(0.000787119 -6.7803e-08 3.74345e-08)
(0.000785866 3.98712e-08 8.4396e-08)
(0.000651549 1.15174e-05 -3.1359e-06)
(0.000937641 1.42724e-06 2.22527e-06)
(0.000791451 2.85604e-05 -2.13846e-07)
(0.000768338 -6.72014e-06 8.14959e-06)
(0.000281463 9.38506e-05 -1.21537e-05)
(0.000215568 -0.000121928 -2.60601e-06)
(0.000516751 -5.2031e-05 2.07512e-06)
(0.000872059 -4.36445e-05 -2.1363e-06)
(0.000837174 -3.05626e-05 3.37728e-08)
(0.000846097 -1.89197e-05 1.07595e-07)
(0.000844072 -1.20597e-05 3.50794e-08)
(0.00084345 -7.58423e-06 5.50116e-08)
(0.000842085 -4.77747e-06 5.1345e-08)
(0.000840634 -3.00949e-06 5.2573e-08)
(0.00083907 -1.88931e-06 5.2469e-08)
(0.000837453 -1.19418e-06 4.91969e-08)
(0.000835803 -7.58449e-07 5.41307e-08)
(0.000834343 -4.45708e-07 7.49669e-08)
(0.000832759 -4.06128e-07 -4.88625e-08)
(0.00083107 -2.70264e-07 7.52609e-08)
(0.000829522 -1.97033e-07 8.98348e-08)
(0.000827994 -1.31555e-07 4.73447e-08)
(0.000826406 -3.60639e-08 -4.53629e-08)
(0.000824722 5.61019e-09 1.80704e-08)
(0.000823173 -1.17352e-07 5.27144e-08)
(0.000821587 -1.12515e-07 6.52462e-08)
(0.000819947 -8.53063e-08 3.05592e-08)
(0.000818371 -8.48768e-08 5.11494e-08)
(0.000816902 -1.62566e-07 1.46529e-07)
(0.000815456 -1.12127e-07 3.23855e-08)
(0.000813865 -2.97147e-07 1.76222e-08)
(0.00081228 -3.23402e-07 1.80654e-08)
(0.000810728 -1.27553e-07 7.49925e-08)
(0.000809234 -5.55e-08 3.39783e-08)
(0.000807822 -5.90377e-08 4.2732e-09)
(0.000806258 -2.85028e-08 4.99082e-08)
(0.000804713 -5.72565e-08 8.67507e-08)
(0.000803265 -4.06216e-08 4.76963e-08)
(0.000801713 -7.02234e-09 4.9445e-08)
(0.00080016 6.82794e-09 5.21695e-08)
(0.000798664 -1.00862e-08 3.91579e-08)
(0.000797239 9.93746e-09 5.34588e-08)
(0.000795822 2.23705e-08 5.79047e-08)
(0.000794287 -1.18072e-07 4.89344e-08)
(0.000792766 4.65148e-09 1.64767e-08)
(0.000791463 4.1517e-08 5.97422e-08)
(0.000790095 2.17937e-08 4.83476e-08)
(0.000788641 -1.18823e-07 4.13888e-08)
(0.000787289 -5.08085e-08 5.57149e-08)
(0.000785813 -1.00029e-07 7.82229e-08)
(0.000655722 1.29262e-05 -4.35989e-06)
(0.000984062 -1.74646e-06 2.02927e-06)
(0.000813083 5.30439e-05 -1.75945e-08)
(0.00094458 -2.99081e-05 2.67109e-06)
(0.000541178 0.000106627 9.02718e-06)
(0.000240595 0.000116567 2.48231e-05)
(0.000460378 -2.53602e-05 2.53015e-05)
(0.000909582 -5.18035e-05 -1.45359e-06)
(0.00085039 -3.27715e-05 -3.43479e-07)
(0.00085786 -1.90211e-05 -3.17959e-08)
(0.000851359 -1.14919e-05 4.42333e-08)
(0.000848214 -6.93313e-06 6.09123e-08)
(0.000845086 -4.27043e-06 5.35209e-08)
(0.000842526 -2.61187e-06 5.35105e-08)
(0.00084027 -1.6246e-06 5.28823e-08)
(0.000838235 -9.7039e-07 5.26823e-08)
(0.000836386 -5.68318e-07 5.36668e-08)
(0.000834525 -2.88921e-07 4.12731e-08)
(0.000832763 -2.14646e-07 1.3931e-07)
(0.000831221 -1.10636e-07 5.75479e-08)
(0.000829637 -1.16943e-07 3.03419e-08)
(0.000828021 -1.20758e-07 4.969e-08)
(0.000826417 -2.08748e-07 2.78624e-08)
(0.000824699 -2.1839e-07 4.43383e-08)
(0.000823067 -1.76632e-07 6.45905e-08)
(0.000821595 -1.93337e-07 7.00226e-08)
(0.000820039 -1.61442e-07 4.43807e-08)
(0.000818452 -1.32828e-07 2.92893e-08)
(0.000816922 -6.48568e-08 4.05791e-08)
(0.000815389 -1.07547e-07 -1.43462e-07)
(0.000813968 -1.59984e-07 7.32385e-08)
(0.000812398 -2.96537e-07 6.80353e-08)
(0.00081071 -1.60637e-07 5.18077e-08)
(0.000809175 -5.54807e-08 5.28289e-08)
(0.00080766 -2.63341e-08 4.84708e-08)
(0.000806223 -7.48915e-08 5.71688e-08)
(0.000804745 -1.7579e-08 4.6488e-08)
(0.000803251 -7.85739e-08 5.00306e-08)
(0.000801753 -6.63926e-08 5.73677e-08)
(0.000800209 -7.4709e-08 3.74552e-08)
(0.00079873 -3.70006e-11 3.88336e-08)
(0.000797316 6.90548e-08 6.90877e-08)
(0.000795854 9.76707e-08 5.4144e-08)
(0.0007944 1.04909e-07 4.35341e-08)
(0.000792962 1.57502e-07 -9.55289e-09)
(0.000791382 1.87734e-07 5.68989e-08)
(0.000789751 6.07889e-08 5.3784e-08)
(0.000788497 5.21964e-08 4.57459e-08)
(0.000787142 3.22352e-08 5.36235e-08)
(0.000786056 -6.07669e-08 8.40075e-08)
(0.000641932 4.76826e-06 -3.51091e-06)
(0.000982621 -4.38652e-06 1.49521e-06)
(0.000778828 2.18687e-05 7.26126e-07)
(0.000913719 -3.57273e-05 3.93689e-06)
(0.00026334 0.000108527 4.86438e-07)
(4.3981e-05 0.000265218 1.1785e-05)
(0.000422678 -0.000114586 8.43075e-05)
(0.000968915 -3.31152e-05 -2.02972e-06)
(0.00087884 -1.74719e-05 -5.08719e-07)
(0.000872905 -9.44417e-06 1.28407e-07)
(0.000859305 -5.31146e-06 9.09702e-09)
(0.000852551 -3.06067e-06 5.0637e-08)
(0.000847531 -1.75953e-06 7.00459e-08)
(0.000843969 -1.06166e-06 5.04012e-08)
(0.000841139 -6.23516e-07 4.06124e-08)
(0.000838784 -4.08812e-07 5.32122e-08)
(0.000836661 -2.52308e-07 5.08984e-08)
(0.000834789 -2.16028e-07 4.84463e-08)
(0.000832984 -5.50278e-08 9.04622e-08)
(0.000831193 -7.01639e-09 1.80143e-08)
(0.00082951 -2.04123e-09 5.07508e-08)
(0.00082788 -3.44852e-08 7.05708e-08)
(0.000826284 -6.32382e-08 8.45675e-08)
(0.000824762 -1.37711e-07 3.1235e-08)
(0.000823205 -4.85682e-08 4.30706e-08)
(0.000821605 -9.06456e-08 4.9726e-08)
(0.000820023 -1.04356e-07 3.65928e-08)
(0.000818491 -1.18462e-07 5.19343e-08)
(0.000816933 -9.86254e-08 5.68273e-08)
(0.000815337 -1.0652e-08 2.42419e-08)
(0.000813629 4.21764e-08 7.28701e-08)
(0.00081228 -2.21123e-08 5.07899e-08)
(0.000811029 -8.84916e-08 9.58167e-08)
(0.000809401 -6.36062e-08 5.01076e-08)
(0.000807798 -1.54436e-08 5.18784e-08)
(0.000806269 -1.06351e-08 5.09442e-08)
(0.000804709 -5.47512e-08 1.45955e-07)
(0.000803204 -3.79322e-08 4.90831e-08)
(0.000801718 -9.43553e-08 4.42625e-08)
(0.000800243 -5.4427e-08 3.26022e-08)
(0.000798844 2.09607e-08 5.22574e-08)
(0.000797361 6.31789e-08 7.75857e-08)
(0.000795867 7.46265e-08 4.19579e-08)
(0.000794362 8.64369e-08 -4.61989e-08)
(0.000792869 5.4684e-08 5.11846e-08)
(0.000791341 3.11863e-08 5.03564e-08)
(0.000789925 1.89694e-07 2.50464e-08)
(0.000788605 3.21437e-07 2.62551e-07)
(0.000787149 1.64425e-07 4.69117e-08)
(0.000785847 1.49843e-07 8.24092e-08)
(0.000650681 3.66242e-06 -4.17738e-06)
(0.00100362 2.71559e-06 1.08439e-06)
(0.000803659 3.50629e-06 -9.57361e-07)
(0.00108733 4.27205e-05 1.65537e-06)
(0.000230228 -2.7027e-05 1.92652e-05)
(0.000310322 5.46238e-05 -1.17303e-05)
(0.000458404 8.99238e-06 7.43838e-05)
(0.00097258 3.17375e-05 -1.99597e-06)
(0.000879629 1.67952e-05 -5.2246e-07)
(0.000873163 9.03758e-06 1.22734e-07)
(0.000859396 5.08029e-06 1.4198e-08)
(0.000852687 2.90837e-06 4.69001e-08)
(0.000847603 1.75513e-06 2.79558e-08)
(0.000843957 1.04062e-06 4.96529e-08)
(0.000841093 6.52683e-07 5.76856e-08)
(0.000838703 3.74596e-07 7.35323e-08)
(0.000836629 2.50458e-07 5.19741e-08)
(0.000834774 2.07609e-07 9.10956e-09)
(0.000833026 1.12927e-07 6.28396e-08)
(0.000831288 5.07493e-08 -6.38979e-08)
(0.000829603 3.22782e-08 4.76958e-08)
(0.000827945 3.14082e-08 8.91041e-08)
(0.000826289 7.79739e-09 5.3691e-08)
(0.000824718 5.51965e-08 -1.56502e-08)
(0.000823127 1.72935e-08 2.08237e-08)
(0.000821525 1.28169e-08 4.81823e-08)
(0.000820005 -3.42636e-08 6.0554e-08)
(0.00081846 -9.56137e-08 6.8934e-08)
(0.000817058 -3.29038e-07 5.39843e-08)
(0.000815565 -2.43373e-07 -5.42148e-09)
(0.000813954 -9.33987e-08 3.02041e-08)
(0.000812235 1.91798e-07 6.26106e-08)
(0.000810659 9.67512e-08 5.73141e-08)
(0.000809267 1.06272e-08 5.02063e-08)
(0.000807727 -3.38258e-08 3.35547e-08)
(0.000806174 -1.97868e-08 4.90032e-08)
(0.000804712 -5.39339e-08 3.79514e-08)
(0.000803202 -1.13e-08 5.05575e-08)
(0.000801733 1.87745e-08 -1.53064e-08)
(0.000800353 6.41388e-08 4.1662e-08)
(0.000798877 5.2637e-08 5.38208e-08)
(0.000797383 5.9503e-08 4.51223e-08)
(0.000795883 3.43605e-08 4.68918e-08)
(0.000794375 1.32934e-08 5.65309e-08)
(0.000792893 3.58172e-08 -1.441e-07)
(0.000791551 5.45482e-08 4.79279e-08)
(0.000790113 1.02122e-07 4.62366e-09)
(0.000788465 1.80948e-07 2.25064e-08)
(0.000786926 7.58658e-08 4.35466e-09)
(0.000785663 -1.67081e-08 6.75721e-08)
(0.000639981 -8.51637e-06 -2.77552e-06)
(0.000969874 -1.69093e-06 1.01833e-06)
(0.000819304 -3.88941e-05 6.75844e-08)
(0.000941884 2.87222e-05 5.38792e-06)
(0.000480701 -9.36105e-05 3.56258e-06)
(6.75419e-05 -0.000243148 -6.94828e-06)
(0.000333646 0.000119848 4.49408e-05)
(0.000910027 5.14593e-05 -1.42677e-06)
(0.000850848 3.24208e-05 -3.36031e-07)
(0.00085816 1.87389e-05 1.77835e-07)
(0.000851586 1.13008e-05 4.47503e-08)
(0.000848362 6.82731e-06 6.01933e-08)
(0.000845178 4.13247e-06 5.19894e-08)
(0.000842579 2.54579e-06 5.23652e-08)
(0.000840299 1.55515e-06 5.16353e-08)
(0.000838277 9.94797e-07 5.2051e-08)
(0.000836449 6.58494e-07 5.13058e-08)
(0.000834615 4.73837e-07 7.92648e-08)
(0.000832787 3.61125e-07 -1.44147e-08)
(0.000831092 2.35262e-07 5.43277e-08)
(0.000829486 7.82024e-08 5.25491e-08)
(0.000827849 1.30736e-08 5.44881e-08)
(0.000826314 6.14967e-08 4.61173e-08)
(0.000824774 3.7109e-08 4.72228e-08)
(0.000823152 3.83557e-08 2.32871e-08)
(0.000821541 9.172e-08 5.39785e-08)
(0.000819887 9.77248e-08 4.98438e-08)
(0.000818123 1.50249e-07 2.85108e-08)
(0.00081675 3.75831e-07 7.78288e-08)
(0.000815632 1.22878e-07 8.87243e-08)
(0.000814173 -4.13526e-08 2.33313e-08)
(0.000812517 -1.20719e-07 3.04053e-08)
(0.000810802 -8.98047e-08 5.95872e-08)
(0.000809238 -7.06676e-08 3.99114e-08)
(0.00080776 -6.52879e-08 6.70801e-08)
(0.000806244 -2.23637e-08 7.49155e-08)
(0.00080472 3.27906e-08 5.16988e-08)
(0.000803295 2.73259e-08 5.2395e-08)
(0.000801813 5.34104e-08 4.51403e-08)
(0.000800286 5.62326e-09 1.94036e-08)
(0.000798838 -1.6162e-08 5.54798e-08)
(0.000797338 -5.49086e-08 1.00433e-07)
(0.000795809 -6.87131e-08 4.85904e-08)
(0.000794364 -9.07732e-08 3.94996e-08)
(0.00079292 -7.81161e-08 4.90739e-08)
(0.000791424 -6.2029e-08 4.94076e-08)
(0.000790083 -8.98264e-08 4.41084e-08)
(0.000788572 -1.48121e-07 4.89424e-08)
(0.000786902 3.77247e-09 9.60472e-08)
(0.000785772 6.29218e-08 1.96839e-07)
(0.000663502 -1.44626e-05 -4.14407e-06)
(0.000958578 -1.47981e-05 1.98986e-06)
(0.000827795 -4.5674e-05 -2.48373e-07)
(0.00085211 -1.00738e-05 5.42179e-06)
(0.000263314 -0.000156957 7.60043e-06)
(6.38977e-05 3.27282e-05 -1.33827e-05)
(0.000352322 2.64583e-05 4.4048e-06)
(0.000872706 4.33476e-05 -2.15788e-06)
(0.000838005 3.0421e-05 -3.32792e-07)
(0.000846557 1.88633e-05 1.05882e-07)
(0.000844385 1.20259e-05 3.47543e-08)
(0.000843653 7.56495e-06 5.48377e-08)
(0.000842207 4.75028e-06 5.25386e-08)
(0.000840709 2.97391e-06 5.32063e-08)
(0.000839138 1.85387e-06 5.4173e-08)
(0.000837571 1.12349e-06 5.29086e-08)
(0.000835971 6.77723e-07 -3.20245e-08)
(0.000834397 3.4094e-07 6.84505e-08)
(0.000832724 7.78027e-08 2.2485e-07)
(0.000830932 4.0728e-08 4.49311e-08)
(0.000829324 9.84995e-08 1.31391e-07)
(0.000827923 1.12871e-07 6.06914e-08)
(0.000826318 7.49478e-08 4.68809e-08)
(0.000824689 -4.98325e-09 5.01169e-08)
(0.000823194 -4.00598e-08 4.09132e-08)
(0.000821599 -3.35756e-08 4.18583e-08)
(0.000820078 4.06277e-08 4.33528e-08)
(0.000818807 2.10458e-07 4.38448e-08)
(0.000817023 4.3035e-07 3.33318e-08)
(0.000815043 3.61392e-07 -4.49995e-09)
(0.00081365 1.94153e-07 6.22329e-08)
(0.000812175 4.57061e-08 5.85729e-08)
(0.000810722 6.01084e-08 6.39976e-08)
(0.000809298 5.12642e-08 5.00801e-08)
(0.000807787 -4.83327e-09 5.16294e-08)
(0.000806297 -7.57831e-08 5.26148e-08)
(0.000804773 -5.41268e-08 6.44304e-08)
(0.000803227 -2.48994e-08 5.97829e-08)
(0.000801706 -3.30624e-08 5.02714e-08)
(0.000800266 3.54482e-09 4.37206e-08)
(0.000798801 -2.28639e-08 5.2591e-08)
(0.000797318 -7.81216e-08 6.14522e-08)
(0.000795839 -8.2863e-08 3.9628e-08)
(0.000794364 -8.55519e-08 4.9762e-08)
(0.000792929 -8.71572e-08 5.15804e-08)
(0.000791537 -6.33336e-08 4.83447e-08)
(0.000790006 -6.29915e-08 4.77723e-08)
(0.000788582 -1.41254e-07 4.89772e-08)
(0.000787191 -1.36359e-07 3.49462e-08)
(0.000785579 -5.25895e-08 8.64332e-08)
(0.000663798 1.85409e-07 -4.24916e-06)
(0.00096498 -4.78704e-06 7.58004e-07)
(0.000845056 -4.2784e-05 -5.28232e-07)
(0.000757133 1.30473e-05 1.01196e-05)
(0.000342211 -0.000102808 2.87582e-06)
(0.000174807 -5.20732e-05 -8.80355e-06)
(0.000452291 2.45115e-05 -1.01126e-06)
(0.000836855 2.7448e-05 -1.85702e-06)
(0.000820096 1.93617e-05 -2.182e-07)
(0.000834967 1.29982e-05 1.40707e-07)
(0.000837337 8.61295e-06 5.42445e-08)
(0.000839188 5.62903e-06 6.14868e-08)
(0.000839389 3.661e-06 5.49949e-08)
(0.000838927 2.31863e-06 5.36218e-08)
(0.000837967 1.48555e-06 5.34532e-08)
(0.000836795 9.86261e-07 3.47484e-08)
(0.000835464 5.786e-07 4.35224e-08)
(0.000833861 4.03921e-07 7.69549e-08)
(0.00083241 1.07304e-07 5.24775e-08)
(0.000831117 1.10225e-07 6.59463e-08)
(0.000829575 8.10106e-08 4.96725e-08)
(0.000827819 8.23747e-08 3.54879e-08)
(0.000826166 1.96808e-08 4.56774e-08)
(0.000824629 6.18903e-08 5.55412e-08)
(0.000823116 1.35767e-08 5.59788e-08)
(0.000821642 6.02915e-09 3.33659e-08)
(0.000820192 8.84054e-08 4.55571e-08)
(0.00081861 6.63847e-08 -1.41338e-07)
(0.000816937 -1.12032e-08 8.91179e-08)
(0.000815336 -2.92308e-08 4.06574e-08)
(0.000813778 1.83713e-08 7.20785e-08)
(0.000812349 -2.42324e-08 5.25132e-08)
(0.000810809 3.78537e-08 -6.40605e-08)
(0.000809157 1.49521e-08 5.09914e-08)
(0.000807601 2.99928e-08 4.66542e-08)
(0.000806183 1.77763e-08 1.08784e-07)
(0.000804783 -7.4412e-09 4.79195e-08)
(0.000803322 -2.47955e-08 5.92694e-08)
(0.000801848 -3.55807e-08 6.57201e-08)
(0.000800298 -1.64229e-08 5.81257e-08)
(0.000798736 -5.67767e-08 4.05555e-08)
(0.000797263 -5.74048e-08 6.03788e-08)
(0.0007958 -4.90262e-08 5.34475e-08)
(0.000794359 -3.72984e-08 5.13726e-08)
(0.000792949 -1.59483e-08 4.68555e-08)
(0.000791455 -2.33937e-08 4.65044e-08)
(0.000789986 -9.62131e-08 5.29135e-08)
(0.000788481 -5.15433e-08 3.66813e-08)
(0.000787012 -7.47622e-08 6.01679e-08)
(0.000786012 -8.93155e-08 8.34821e-08)
(0.000674286 -2.08181e-06 -3.25991e-06)
(0.000931177 3.41651e-06 1.45398e-06)
(0.00084922 -4.27262e-06 -3.27053e-06)
(0.000826499 1.05056e-05 -2.93064e-06)
(0.000689313 1.38469e-07 7.42109e-06)
(0.00154419 -0.00127473 6.79032e-05)
(0.000475522 -1.7353e-05 -8.05595e-07)
(0.000848499 4.10514e-06 -1.9944e-06)
(0.000819749 4.51479e-06 -2.76295e-07)
(0.000832987 3.84937e-06 1.09585e-07)
(0.000835085 2.83344e-06 4.55624e-08)
(0.000837405 1.94569e-06 6.72188e-08)
(0.000838031 1.28922e-06 1.13423e-07)
(0.000837965 8.70488e-07 6.051e-09)
(0.000837457 5.5793e-07 5.66891e-08)
(0.000836428 3.487e-07 2.42181e-08)
(0.000835237 1.98079e-07 5.27199e-08)
(0.000833804 5.63278e-08 2.01057e-08)
(0.000832355 1.03542e-07 4.2505e-08)
(0.000830898 1.07305e-07 6.08206e-08)
(0.000829289 3.89922e-08 -3.89603e-08)
(0.000827846 -4.17718e-08 7.06341e-08)
(0.000826292 1.44517e-08 5.23236e-08)
(0.000824681 8.15281e-08 5.12675e-08)
(0.000823124 1.27189e-07 2.55735e-08)
(0.000821693 1.02677e-07 2.6921e-08)
(0.000820153 2.66652e-08 6.19694e-08)
(0.000818682 -1.13023e-07 4.87404e-08)
(0.000816903 -3.49449e-07 5.49513e-08)
(0.00081508 -2.04781e-07 5.49803e-08)
(0.000813657 -3.16864e-07 6.27869e-08)
(0.000812199 -4.50205e-07 5.05477e-08)
(0.000810772 -2.30805e-07 3.98454e-08)
(0.000809288 -1.32766e-07 5.98672e-08)
(0.000807791 2.02706e-08 6.22478e-08)
(0.00080625 9.97267e-08 6.30122e-08)
(0.00080472 6.96046e-08 3.88804e-08)
(0.000803192 3.51042e-08 5.29201e-08)
(0.000801716 -6.38303e-09 2.25957e-08)
(0.00080024 -4.33696e-08 4.67517e-08)
(0.00079875 -8.83014e-09 4.88136e-08)
(0.000797328 -8.39492e-09 6.38944e-08)
(0.000795864 -7.4988e-08 5.26222e-08)
(0.000794405 -2.0213e-07 5.06123e-08)
(0.000792947 -9.72033e-08 3.87421e-08)
(0.000791436 -1.16337e-07 6.97674e-08)
(0.000789971 -1.57181e-08 4.01497e-08)
(0.000788609 1.46268e-08 4.86561e-08)
(0.000787145 9.60608e-08 5.04102e-08)
(0.000785783 9.01933e-08 8.24397e-08)
(0.00111957 4.69854e-06 2.47821e-07)
(0.00155572 -1.17069e-05 6.98894e-07)
(0.00140716 6.34391e-05 3.84715e-06)
(0.0014296 -4.51255e-05 1.00934e-05)
(0.0014205 -0.000228719 4.13949e-07)
(0.00138847 -6.39458e-05 7.9527e-05)
(0.00149601 3.40183e-05 -2.46885e-07)
(0.00141408 -4.6913e-06 3.53672e-07)
(0.00136601 -6.29154e-06 3.41493e-07)
(0.00138808 -5.65688e-06 3.47898e-07)
(0.00139161 -4.27135e-06 5.07153e-07)
(0.00139542 -3.04815e-06 3.26872e-07)
(0.00139677 -2.14018e-06 6.45069e-08)
(0.00139679 -1.35673e-06 3.28389e-07)
(0.00139563 -9.02453e-07 3.45934e-07)
(0.001394 -6.41621e-07 5.0277e-07)
(0.00139191 -3.74197e-07 3.4869e-07)
(0.00138966 -3.17447e-07 3.17991e-07)
(0.00138753 1.55499e-09 3.37321e-07)
(0.0013851 -1.11087e-07 3.93588e-07)
(0.00138233 5.2431e-08 3.57912e-07)
(0.0013797 9.05608e-08 5.71924e-07)
(0.00137727 1.17476e-08 3.45385e-07)
(0.0013747 5.43849e-08 4.05652e-07)
(0.00137201 1.39491e-07 3.17129e-07)
(0.00136928 8.81165e-08 3.2294e-07)
(0.00136662 -5.17233e-08 3.64148e-07)
(0.00136369 -3.88273e-08 3.40705e-07)
(0.00136147 -1.64589e-07 3.23616e-07)
(0.00135906 5.95657e-08 3.48194e-07)
(0.00135595 4.14678e-07 3.73509e-07)
(0.00135412 7.29017e-07 2.9766e-07)
(0.00135198 4.19795e-07 3.04755e-07)
(0.00134917 2.66339e-07 3.40014e-07)
(0.00134656 1.517e-07 3.36612e-07)
(0.00134382 4.98203e-08 3.34129e-07)
(0.00134127 1.22588e-07 3.32652e-07)
(0.00133882 1.03703e-07 3.76867e-07)
(0.00133635 1.02597e-07 3.06016e-07)
(0.0013339 7.28496e-08 3.57691e-07)
(0.00133138 1.06099e-07 3.6584e-07)
(0.00132874 7.63346e-08 4.0601e-07)
(0.00132606 7.70386e-08 3.25295e-07)
(0.00132394 2.75491e-07 3.65598e-07)
(0.00132176 9.4275e-08 3.28881e-07)
(0.00131933 9.97618e-08 3.88648e-07)
(0.001317 -5.86259e-09 3.3077e-07)
(0.00131445 2.10429e-08 3.35956e-07)
(0.00131193 -3.72926e-08 3.61899e-07)
(0.00130967 -3.18596e-08 3.21269e-07)
(0.00110257 4.69283e-06 -7.37549e-07)
(0.00158579 -1.74274e-05 5.65124e-07)
(0.00136905 3.22529e-05 2.24831e-06)
(0.00142258 -4.9462e-05 3.34773e-06)
(0.00160934 2.56618e-05 -3.58315e-05)
(0.00146584 0.00023583 7.8506e-05)
(0.0012778 -3.19203e-05 -8.95917e-08)
(0.00139349 -4.458e-05 3.49627e-07)
(0.00136571 -3.16197e-05 3.42505e-07)
(0.00139093 -2.12556e-05 3.47918e-07)
(0.00139517 -1.41055e-05 3.49671e-07)
(0.00139845 -9.16207e-06 3.49514e-07)
(0.00139893 -5.85202e-06 3.49152e-07)
(0.00139822 -3.78338e-06 3.4965e-07)
(0.00139672 -2.40356e-06 3.48913e-07)
(0.00139477 -1.48221e-06 3.82896e-07)
(0.00139251 -9.44067e-07 2.76435e-07)
(0.00139021 -5.38954e-07 5.31992e-07)
(0.00138762 -1.57817e-07 3.83011e-07)
(0.00138498 -1.54421e-07 3.62864e-07)
(0.0013825 -7.32302e-08 2.91e-07)
(0.00137978 3.89657e-08 3.32938e-07)
(0.00137715 1.51842e-07 4.28948e-07)
(0.0013747 1.21617e-07 3.67198e-07)
(0.00137203 6.82075e-08 3.37321e-07)
(0.00136932 1.324e-07 2.87248e-07)
(0.00136678 1.65539e-07 3.91986e-07)
(0.00136432 1.76682e-07 3.48801e-07)
(0.00136167 4.55357e-07 3.56814e-07)
(0.00135932 2.75683e-07 6.04468e-07)
(0.00135705 5.26676e-07 2.64875e-07)
(0.00135377 7.03733e-07 3.06483e-07)
(0.0013508 3.5861e-07 4.1131e-07)
(0.00134858 2.10474e-07 3.93348e-07)
(0.00134615 8.54745e-08 3.3731e-07)
(0.0013438 1.11669e-07 3.71257e-07)
(0.00134134 9.90542e-08 3.4926e-07)
(0.00133873 1.1677e-07 2.75515e-07)
(0.00133624 1.02836e-07 3.53917e-07)
(0.00133379 5.06701e-08 4.4271e-07)
(0.00133132 -3.39617e-08 2.92929e-07)
(0.00132891 -5.28924e-08 3.19602e-07)
(0.00132674 5.11378e-08 3.36056e-07)
(0.00132409 2.53206e-07 3.9741e-07)
(0.00132142 1.78444e-08 3.21749e-07)
(0.00131903 -4.72812e-08 3.47517e-07)
(0.00131662 -1.26421e-07 3.60675e-07)
(0.00131437 -1.63471e-07 3.25958e-07)
(0.00131191 -1.26511e-07 3.819e-07)
(0.00130982 2.96569e-08 3.25014e-07)
(0.00109613 2.04267e-05 1.46034e-06)
(0.00158216 1.58579e-06 2.12881e-06)
(0.00134199 5.54183e-05 -1.5578e-06)
(0.00147057 9.08653e-06 6.60827e-06)
(0.00131654 4.55465e-05 4.77179e-05)
(0.000940942 0.000205982 -4.37834e-05)
(0.00147837 -0.000154087 4.45182e-06)
(0.00145401 -7.30057e-05 3.67054e-07)
(0.00139549 -5.10179e-05 6.62214e-07)
(0.00141019 -3.16009e-05 3.52807e-07)
(0.00140687 -2.0125e-05 3.51691e-07)
(0.00140583 -1.26535e-05 3.51487e-07)
(0.00140356 -7.96492e-06 3.51046e-07)
(0.00140114 -5.01558e-06 3.50324e-07)
(0.00139853 -3.15299e-06 3.49823e-07)
(0.00139584 -1.99518e-06 3.45311e-07)
(0.0013931 -1.27862e-06 3.36418e-07)
(0.00139064 -7.85485e-07 1.75241e-07)
(0.00138801 -6.65588e-07 3.31664e-07)
(0.00138521 -4.36197e-07 3.73761e-07)
(0.00138258 -3.02651e-07 2.75564e-07)
(0.00137999 -1.9734e-07 3.42608e-07)
(0.00137737 -2.2157e-08 2.36513e-07)
(0.0013746 3.15709e-08 3.05518e-07)
(0.00137202 -1.21789e-07 3.32466e-07)
(0.0013694 -1.00732e-07 3.55881e-07)
(0.00136667 -7.9738e-08 2.7721e-07)
(0.00136406 -8.23773e-08 3.41044e-07)
(0.00136159 -1.87161e-07 4.28814e-07)
(0.00135915 -1.26997e-07 2.83334e-07)
(0.00135648 -3.78868e-07 4.51878e-07)
(0.0013539 -3.82411e-07 3.41798e-07)
(0.00135137 -1.67007e-07 4.01037e-07)
(0.00134883 -5.76399e-08 3.2746e-07)
(0.00134643 -6.83764e-08 2.81177e-07)
(0.00134384 -3.53857e-08 2.99048e-07)
(0.00134128 -7.99323e-08 3.83761e-07)
(0.00133883 -5.88195e-08 3.30862e-07)
(0.00133627 -7.72202e-09 3.36796e-07)
(0.00133373 2.30289e-08 3.44537e-07)
(0.00133125 -2.14396e-09 3.0968e-07)
(0.00132885 2.12858e-08 4.70089e-07)
(0.00132644 1.49145e-08 3.51501e-07)
(0.0013239 -1.67367e-07 3.34843e-07)
(0.00132138 7.51848e-09 3.07296e-07)
(0.00131915 2.84878e-08 3.53322e-07)
(0.00131685 3.08595e-08 2.91608e-07)
(0.00131445 -1.71222e-07 2.95973e-07)
(0.00131218 -6.7291e-08 3.65406e-07)
(0.00130979 -1.26777e-07 3.53637e-07)
(0.00108683 2.71966e-05 -1.9699e-07)
(0.00161674 8.4109e-06 8.14596e-07)
(0.00135492 8.12444e-05 8.74206e-07)
(0.00157336 -2.82518e-05 9.21243e-07)
(0.0015782 0.000312347 -1.09021e-05)
(0.000927128 0.0009346 7.37726e-05)
(0.00122857 -6.2089e-05 4.25386e-05)
(0.00151657 -8.65769e-05 3.79091e-07)
(0.00141767 -5.47108e-05 3.52983e-07)
(0.00142987 -3.17294e-05 1.50947e-07)
(0.00141907 -1.91549e-05 3.54557e-07)
(0.00141379 -1.15577e-05 3.53534e-07)
(0.00140856 -7.10916e-06 3.52274e-07)
(0.00140429 -4.34926e-06 3.51112e-07)
(0.00140052 -2.70758e-06 3.50208e-07)
(0.00139713 -1.63122e-06 3.49181e-07)
(0.00139404 -9.60512e-07 3.50579e-07)
(0.00139099 -5.0387e-07 3.60654e-07)
(0.00138807 -3.6076e-07 5.51111e-07)
(0.00138544 -1.98268e-07 3.6886e-07)
(0.0013828 -1.95428e-07 3.97008e-07)
(0.00138013 -1.61457e-07 3.39988e-07)
(0.00137744 -2.67113e-07 3.14361e-07)
(0.00137457 -2.77698e-07 2.92338e-07)
(0.00137186 -1.88351e-07 3.8159e-07)
(0.00136937 -2.11735e-07 4.06566e-07)
(0.00136681 -1.62592e-07 3.213e-07)
(0.00136419 -1.1473e-07 3.32067e-07)
(0.00136162 -1.2172e-09 3.77512e-07)
(0.00135908 -7.42372e-08 1.63412e-07)
(0.00135673 -1.7456e-07 3.8162e-07)
(0.00135403 -3.42183e-07 2.77984e-07)
(0.00135121 -1.7263e-07 3.40124e-07)
(0.0013487 -5.26979e-08 3.42227e-07)
(0.00134618 -3.60129e-08 3.31498e-07)
(0.00134378 -9.90327e-08 4.43461e-07)
(0.00134131 3.57211e-09 3.72689e-07)
(0.00133882 -1.01651e-07 3.34388e-07)
(0.00133634 -6.38275e-08 4.28101e-07)
(0.0013338 -8.65969e-08 3.01479e-07)
(0.00133132 -8.61595e-10 3.14261e-07)
(0.00132894 6.89329e-08 3.62026e-07)
(0.00132651 1.07136e-07 3.38993e-07)
(0.00132408 1.25966e-07 3.42885e-07)
(0.00132166 2.14598e-07 2.6964e-07)
(0.00131906 2.70328e-07 3.69636e-07)
(0.00131637 1.22866e-07 3.34319e-07)
(0.00131425 1.22912e-07 3.32093e-07)
(0.00131197 6.31236e-08 3.27525e-07)
(0.00131007 -7.80254e-08 3.36418e-07)
(0.00108268 1.06267e-05 9.62945e-08)
(0.00164268 -3.33278e-06 8.30903e-07)
(0.00131456 4.22396e-05 3.0929e-06)
(0.00168314 -4.24193e-05 6.8767e-06)
(0.000946455 0.000207596 1.62014e-07)
(0.00216671 0.00122701 -0.000197289)
(0.00139219 6.18061e-05 7.4474e-05)
(0.00161609 -5.50342e-05 4.12079e-07)
(0.00146527 -2.89643e-05 3.68882e-07)
(0.00145498 -1.56232e-05 7.24906e-07)
(0.00143229 -8.79806e-06 3.57569e-07)
(0.00142101 -5.05777e-06 3.60794e-07)
(0.00141264 -2.91085e-06 3.84326e-07)
(0.00140668 -1.75109e-06 3.51901e-07)
(0.00140196 -1.02433e-06 2.86053e-07)
(0.00139804 -6.53623e-07 3.11015e-07)
(0.00139452 -4.02565e-07 3.46278e-07)
(0.0013914 -3.34845e-07 3.35508e-07)
(0.0013884 -1.08052e-07 3.79866e-07)
(0.00138542 -4.87231e-08 3.17082e-07)
(0.00138262 -1.59965e-08 3.44668e-07)
(0.0013799 -6.72302e-08 3.93323e-07)
(0.00137723 -1.27527e-07 3.84835e-07)
(0.0013747 -2.26485e-07 3.20359e-07)
(0.0013721 -9.54419e-08 4.06899e-07)
(0.00136944 -1.18574e-07 3.41047e-07)
(0.0013668 -1.23454e-07 3.16144e-07)
(0.00136426 -1.48531e-07 3.27611e-07)
(0.00136164 -1.28201e-07 4.0191e-07)
(0.00135893 -6.36252e-09 3.40198e-07)
(0.00135614 5.45034e-08 5.41478e-07)
(0.00135391 -7.24214e-08 2.84392e-07)
(0.00135173 -1.27864e-07 4.02036e-07)
(0.001349 -1.00013e-07 3.37996e-07)
(0.00134637 -2.94086e-08 3.62332e-07)
(0.00134389 -2.40954e-08 3.36635e-07)
(0.00134127 -1.01859e-07 3.90363e-07)
(0.00133874 -5.25313e-08 3.3502e-07)
(0.00133629 -1.42856e-07 3.35105e-07)
(0.00133381 -8.40873e-08 3.02134e-07)
(0.00133145 8.63843e-09 3.36273e-07)
(0.00132898 5.95573e-08 4.29606e-07)
(0.00132652 6.95562e-08 3.2065e-07)
(0.00132403 7.11445e-08 2.40066e-07)
(0.00132156 1.22841e-08 3.39148e-07)
(0.00131903 6.16105e-09 3.38017e-07)
(0.00131667 2.59695e-07 2.91089e-07)
(0.00131437 4.40868e-07 5.83458e-07)
(0.00131193 2.13082e-07 3.69035e-07)
(0.0013098 2.34332e-07 2.55315e-07)
(0.00108099 2.8796e-06 -9.38043e-07)
(0.00164966 1.40037e-05 5.77078e-07)
(0.00130628 1.73563e-05 -1.88769e-06)
(0.0017036 7.26972e-05 2.79855e-06)
(0.0011159 -0.000216149 5.96537e-05)
(0.000401647 -0.000436673 9.39804e-05)
(0.00167642 4.32023e-05 0.000117607)
(0.00162019 5.34372e-05 4.0131e-07)
(0.00146617 2.81735e-05 3.67493e-07)
(0.00145525 1.51711e-05 3.99549e-07)
(0.00143237 8.52673e-06 3.83236e-07)
(0.0014212 4.89228e-06 3.54861e-07)
(0.00141273 2.94757e-06 3.1984e-07)
(0.00140666 1.75294e-06 3.52125e-07)
(0.00140191 1.10367e-06 4.5596e-07)
(0.00139792 6.49438e-07 3.73572e-07)
(0.00139444 4.32087e-07 3.47697e-07)
(0.00139136 3.51208e-07 2.68413e-07)