/*--------------------------------*- C++ -*----------------------------------*\
| =========                 |                                                 |
| \\      /  F ield         | OpenFOAM: The Open Source CFD Toolbox           |
|  \\    /   O peration     | Version:  5.0                                   |
|   \\  /    A nd           | Web:      www.OpenFOAM.org                      |
|    \\/     M anipulation  |                                                 |
\*---------------------------------------------------------------------------*/
FoamFile
{
    version     2.0;
    format      ascii;
    class       surfaceVectorField;
    location    "0.3";
    object      Uf;
}
// * * * * * * * * * * * * * * * * * * * * * * * * * * * * * * * * * * * * * //

dimensions      [0 1 -1 0 0 0 0];

internalField   nonuniform List<vector> 
12667
(
(0.000859327 -4.88854e-06 -7.9911e-07)
(0.000662381 4.1338e-06 -3.80087e-06)
(0.000891115 1.46846e-06 -2.37584e-06)
(0.000849596 1.68072e-05 1.26147e-06)
(0.000952832 -7.01643e-06 1.80555e-06)
(0.0012481 -1.03719e-05 1.41986e-06)
(0.000816367 1.1514e-05 3.14734e-06)
(0.000825984 2.54007e-05 2.18521e-07)
(0.00111773 5.2648e-05 2.57056e-06)
(0.000601916 -7.11391e-05 -3.44229e-06)
(0.000804842 -2.45453e-05 4.65154e-06)
(0.00108453 -3.14454e-05 8.75103e-06)
(0.000431169 -2.05983e-05 6.5019e-06)
(0.000950269 -0.000166089 -1.71038e-05)
(0.000932307 -0.000178813 8.63606e-06)
(0.000491218 -4.59475e-05 -5.27883e-07)
(0.000929513 -0.000168228 -1.59573e-05)
(0.000900376 -0.000301779 5.06384e-06)
(0.000552082 6.19924e-05 -4.15394e-06)
(0.000563909 -0.000159556 4.39796e-06)
(0.000891731 0.000182799 -3.97009e-05)
(0.0017603 -1.97644e-05 8.3757e-05)
(0.000748856 -1.27038e-05 3.57356e-05)
(0.000820948 -8.44715e-06 4.29879e-05)
(0.000887453 -3.56126e-05 8.55323e-05)
(0.000339392 7.31475e-06 -2.07401e-06)
(0.000480335 7.73976e-06 -3.04108e-06)
(0.000486762 1.58114e-05 -8.44715e-07)
(0.00083049 1.82004e-05 -1.16803e-06)
(0.000335136 1.48732e-05 -2.13125e-06)
(0.000626248 1.35057e-05 -3.22924e-06)
(0.00061408 3.37929e-05 -3.22991e-06)
(0.000821189 -3.46376e-06 -1.13506e-06)
(0.000841583 -1.18636e-05 -1.91845e-06)
(0.0011306 -3.9754e-06 -1.33062e-06)
(0.000594216 2.06082e-06 -4.12587e-06)
(0.00058794 5.87809e-06 -4.15394e-06)
(0.00100583 6.17031e-06 -4.36591e-06)
(0.000991486 1.50597e-05 -4.4044e-06)
(0.000828772 -3.69894e-06 -8.4677e-08)
(0.000819102 -1.01601e-05 -2.16883e-07)
(0.0010923 -5.19321e-06 1.10983e-07)
(0.000833382 -3.04677e-06 6.79954e-08)
(0.000833493 -7.76573e-06 1.25296e-07)
(0.00111015 -4.63272e-06 1.95388e-07)
(0.000836221 -2.21779e-06 4.06258e-08)
(0.000835869 -5.50898e-06 4.10667e-08)
(0.00111305 -3.46182e-06 1.58232e-07)
(0.000837621 -1.53307e-06 1.39014e-08)
(0.000838039 -3.73711e-06 5.81151e-08)
(0.00111619 -2.43266e-06 1.8994e-07)
(0.000837899 -1.03196e-06 1.73957e-08)
(0.000838547 -2.4659e-06 1.47245e-08)
(0.00111717 -1.64185e-06 1.89017e-07)
(0.000837627 -6.85894e-07 5.80034e-08)
(0.000838325 -1.58538e-06 5.75227e-08)
(0.00111714 -1.09457e-06 1.84808e-07)
(0.000836823 -4.51137e-07 3.07573e-08)
(0.000837596 -1.00138e-06 5.43055e-08)
(0.00111635 -7.19951e-07 1.85289e-07)
(0.000835694 -3.05436e-07 2.93842e-08)
(0.000836506 -2.75435e-07 3.02442e-08)
(0.00111505 -4.77856e-07 1.55169e-07)
(0.000834365 -2.36908e-07 -2.83571e-09)
(0.000835197 -3.74844e-07 4.35772e-08)
(0.00111338 -3.35605e-07 1.84012e-07)
(0.000833073 -1.55636e-07 6.16417e-10)
(0.000833872 -3.43402e-07 2.1295e-09)
(0.00111161 -3.00922e-07 1.90299e-07)
(0.00083159 -1.05618e-07 4.77832e-08)
(0.000832422 -1.84381e-07 4.02836e-08)
(0.0011098 -1.08304e-07 1.81961e-07)
(0.00083024 -9.5424e-08 3.872e-08)
(0.000830899 -3.57141e-08 3.72131e-08)
(0.00110791 -1.55747e-07 1.99963e-07)
(0.000828711 -6.93098e-08 5.23126e-08)
(0.000829402 -7.42584e-08 -1.76695e-08)
(0.00110597 -8.23069e-08 1.64232e-07)
(0.000827064 -6.65403e-08 5.67805e-08)
(0.000827831 1.21424e-08 5.9777e-08)
(0.00110382 -7.11076e-08 2.17202e-07)
(0.000825461 -9.79171e-08 4.53025e-08)
(0.000826233 1.27056e-09 2.40686e-08)
(0.00110169 -7.45956e-08 1.85923e-07)
(0.000823807 -1.55271e-07 4.94482e-08)
(0.000824622 3.57716e-07 6.29817e-08)
(0.00109952 -1.56132e-07 1.68188e-07)
(0.000822316 -1.84536e-07 4.96244e-08)
(0.00082309 -9.04329e-09 5.70115e-08)
(0.0010974 -1.97937e-07 1.82018e-07)
(0.000820788 -1.63342e-07 4.08171e-08)
(0.000821618 4.99537e-08 3.21809e-08)
(0.00109539 -2.08357e-07 1.8293e-07)
(0.00081912 -9.05068e-08 4.60458e-08)
(0.000820083 -4.38301e-09 4.3389e-08)
(0.00109329 -1.56984e-07 1.81535e-07)
(0.000817524 4.13888e-08 4.8962e-08)
(0.000818571 -3.69653e-08 4.88543e-08)
(0.00109099 -5.32595e-08 1.85259e-07)
(0.00081615 6.10391e-08 4.61735e-08)
(0.000816942 -1.08207e-07 2.2764e-08)
(0.00108911 1.45303e-07 1.86569e-07)
(0.000814609 -5.77468e-08 5.14036e-08)
(0.000815227 3.62439e-08 6.35694e-08)
(0.00108724 -4.74205e-09 1.80268e-07)
(0.00081273 1.74807e-08 5.04786e-08)
(0.000813722 -6.07877e-07 -4.29364e-08)
(0.00108475 -1.0129e-07 2.60568e-07)
(0.000811254 2.52283e-07 6.46897e-08)
(0.000812255 -3.26511e-07 5.87027e-09)
(0.00108269 2.43166e-07 1.9225e-07)
(0.000810285 2.17638e-07 8.70736e-08)
(0.000810706 -8.64809e-07 5.27454e-08)
(0.00108114 4.71006e-07 1.83235e-07)
(0.000808683 2.76638e-08 6.83346e-08)
(0.000809177 -8.4047e-07 5.4546e-08)
(0.00107932 1.15768e-07 2.51887e-07)
(0.000807077 -6.18572e-08 4.69125e-08)
(0.000807672 8.1818e-08 5.07109e-08)
(0.00107717 -7.29396e-09 1.78624e-07)
(0.000805496 -8.33879e-08 4.95723e-08)
(0.000806207 2.48137e-07 4.19074e-08)
(0.00107502 -1.16761e-07 1.71757e-07)
(0.000804011 -6.5108e-08 5.34323e-08)
(0.000804747 -9.65993e-08 4.95295e-08)
(0.00107298 -6.43877e-08 1.91471e-07)
(0.000802505 -5.1632e-08 5.86743e-08)
(0.000803254 4.85209e-08 5.36904e-08)
(0.001071 -6.82088e-08 1.78834e-07)
(0.000800972 3.66222e-08 5.26916e-08)
(0.000801756 9.42352e-08 5.33817e-08)
(0.00106897 -2.9943e-08 1.78762e-07)
(0.000799533 5.21878e-08 4.07117e-08)
(0.00080027 1.20114e-07 4.07423e-08)
(0.001067 1.42482e-07 1.74217e-07)
(0.000798128 -1.33306e-08 6.05418e-08)
(0.00079884 -9.90528e-09 5.19771e-08)
(0.0010651 4.02218e-10 1.77374e-07)
(0.000796657 -2.52289e-08 6.6378e-08)
(0.000797404 -7.21398e-10 6.90055e-08)
(0.00106317 -2.21202e-08 1.69271e-07)
(0.000795057 -7.58573e-08 1.28851e-07)
(0.000795888 4.64949e-08 5.05501e-08)
(0.00106105 -3.91641e-08 1.76736e-07)
(0.000793702 -1.2541e-07 1.30509e-07)
(0.000794368 -5.38667e-07 1.16116e-07)
(0.00105916 -1.32356e-07 2.09588e-07)
(0.000792163 -1.09632e-07 5.61152e-08)
(0.000792867 -1.27694e-07 4.88424e-08)
(0.00105728 -1.56305e-07 1.94596e-07)
(0.000790693 -1.15783e-07 5.18569e-08)
(0.000791356 1.06113e-07 5.72667e-08)
(0.00105523 -1.1851e-07 1.68797e-07)
(0.000789192 -9.64173e-08 4.67187e-08)
(0.000789961 5.49028e-09 4.19565e-08)
(0.00105328 -1.79966e-07 1.77472e-07)
(0.000787741 -9.08945e-08 4.56673e-08)
(0.000788558 -6.36376e-08 4.88009e-08)
(0.00105129 -6.71658e-08 1.74457e-07)
(0.000786444 -6.03412e-08 6.70397e-08)
(0.000787067 -1.73407e-07 5.25343e-08)
(0.00104943 -1.66502e-07 1.73219e-07)
(0.000785734 -5.59977e-09 8.62506e-08)
(0.00104763 7.6695e-09 1.8681e-07)
(0.000872911 4.05501e-07 -1.19808e-06)
(0.000656532 1.07601e-05 -3.63469e-06)
(0.000881937 6.48099e-06 -3.73891e-06)
(0.000859933 -1.19237e-06 7.63129e-07)
(0.000952045 -3.3345e-06 1.97226e-06)
(0.00127616 -1.21086e-05 9.06772e-07)
(0.000861329 -1.46646e-05 1.72125e-06)
(0.000806705 1.48538e-05 -3.11352e-07)
(0.00109559 1.83398e-05 6.28721e-07)
(0.000633732 -1.74717e-05 8.09638e-06)
(0.000820561 -2.46432e-05 5.79058e-06)
(0.00114716 -4.16536e-05 2.92218e-06)
(0.000563719 -1.87218e-05 5.54637e-06)
(0.0010929 -3.69935e-05 -7.20352e-07)
(0.00101839 0.000140629 3.4391e-06)
(0.000413769 -1.26235e-05 8.62383e-06)
(0.000551717 -0.000122695 9.13844e-06)
(0.000500108 -1.0563e-05 8.4028e-06)
(0.000916637 -2.37598e-05 6.78204e-06)
(0.00142465 0.000445949 8.11955e-05)
(0.00064898 8.6696e-06 6.3419e-05)
(0.000898845 4.94062e-05 5.15201e-05)
(0.000705036 0.000114275 7.15313e-05)
(0.00128236 0.000127846 1.34602e-06)
(0.000285791 1.52967e-05 -1.70418e-06)
(0.000450667 5.95208e-06 -8.53658e-07)
(0.00044131 -9.72238e-06 -2.85302e-06)
(0.00043812 -2.1198e-05 -9.02067e-07)
(0.000710124 -1.75714e-05 -9.47635e-07)
(0.000285594 -1.52043e-05 -8.51484e-07)
(0.000528459 4.64316e-05 3.81961e-07)
(0.000532492 -3.42308e-05 1.74685e-06)
(0.000817106 -2.31933e-05 -1.00083e-06)
(0.000853684 -4.06024e-05 -1.98683e-06)
(0.00111425 -3.60899e-05 -1.27892e-06)
(0.000574838 -1.49103e-05 -3.77954e-06)
(0.000583095 -3.0701e-05 -3.95869e-06)
(0.000969692 -2.26813e-05 -3.96942e-06)
(0.000985863 -5.93933e-05 -4.1665e-06)
(0.00082979 -1.61089e-05 -7.0222e-09)
(0.000828061 -2.73964e-05 -1.53473e-07)
(0.00109216 -2.56534e-05 1.38701e-07)
(0.000835487 -1.07654e-05 9.83951e-08)
(0.000840238 -1.71951e-05 1.25354e-07)
(0.0011125 -1.72218e-05 2.03493e-07)
(0.000838241 -7.08971e-06 5.85504e-08)
(0.000840508 -1.1002e-05 4.48327e-08)
(0.00111594 -1.14338e-05 1.86115e-07)
(0.000839165 -4.59796e-06 5.89523e-08)
(0.000841182 -6.9685e-06 5.85787e-08)
(0.00111858 -7.43535e-06 1.88332e-07)
(0.000839078 -2.94412e-06 5.48375e-08)
(0.000840632 -4.40945e-06 5.38315e-08)
(0.00111896 -4.79924e-06 1.87085e-07)
(0.000838396 -1.85841e-06 5.38258e-08)
(0.000839694 -2.77699e-06 5.36937e-08)
(0.0011184 -3.03986e-06 1.86637e-07)
(0.000837358 -1.15863e-06 5.38001e-08)
(0.000838478 -1.74237e-06 5.29564e-08)
(0.00111722 -1.91554e-06 1.86315e-07)
(0.000836015 -6.89141e-07 4.44329e-08)
(0.000837097 -1.0342e-06 5.33112e-08)
(0.00111561 -1.16881e-06 2.14092e-07)
(0.000834696 -3.59914e-07 4.85558e-08)
(0.000835611 -1.11656e-06 1.73901e-08)
(0.00111379 -6.70236e-07 2.11092e-07)
(0.000833301 -1.34192e-07 4.17844e-08)
(0.000834156 -1.08427e-06 5.72598e-08)
(0.00111203 -2.98609e-07 2.17743e-07)
(0.000831665 -2.4241e-08 2.97145e-08)
(0.00083256 7.16292e-07 -7.19031e-10)
(0.00110999 -6.70848e-08 1.25445e-07)
(0.000830092 2.01174e-08 -1.91588e-08)
(0.000830955 7.12595e-08 3.95437e-08)
(0.00110782 -1.08746e-08 1.75046e-07)
(0.000828521 -2.24303e-08 -1.02299e-08)
(0.000829349 3.8174e-07 -1.80557e-08)
(0.00110576 4.4548e-08 1.50755e-07)
(0.000827043 -1.19637e-07 2.70765e-08)
(0.000827709 -8.23951e-08 5.10437e-08)
(0.0011037 -1.04957e-07 1.81043e-07)
(0.000825367 -1.57726e-07 4.17354e-08)
(0.000826186 1.05957e-07 3.01352e-09)
(0.00110159 -1.70562e-07 1.84601e-07)
(0.000823842 -1.39635e-07 7.05469e-08)
(0.000824645 1.01674e-07 7.91701e-08)
(0.0010995 -1.84346e-07 1.96641e-07)
(0.000822397 -1.25545e-07 3.95759e-08)
(0.000823108 -1.4728e-07 5.38456e-08)
(0.00109751 -1.25064e-07 1.81772e-07)
(0.000820967 -1.50542e-07 3.47492e-08)
(0.000821587 -3.42486e-09 3.23772e-08)
(0.00109555 -1.43358e-07 1.747e-07)
(0.000819451 -1.81137e-07 4.61958e-08)
(0.000820045 8.95738e-09 5.52314e-08)
(0.00109355 -1.7924e-07 1.77609e-07)
(0.000818192 -2.5285e-07 2.26645e-08)
(0.000818481 -4.15051e-07 4.92886e-08)
(0.00109178 -2.17555e-07 1.82755e-07)
(0.000815875 -2.92502e-07 4.0147e-08)
(0.000816892 2.37648e-06 7.69881e-08)
(0.00108936 -3.25556e-07 7.44752e-08)
(0.000814283 -2.14139e-07 -3.07372e-08)
(0.000815324 -8.65391e-07 6.9089e-08)
(0.00108672 -3.05254e-07 2.49364e-07)
(0.000813297 -6.07337e-08 -8.756e-08)
(0.000813913 -2.65207e-07 -5.58088e-08)
(0.00108518 -1.29598e-07 1.08229e-07)
(0.000811711 1.18359e-07 -6.08874e-09)
(0.000812479 -1.32954e-07 -9.74335e-09)
(0.00108333 1.16138e-07 1.71924e-07)
(0.000809579 1.58146e-07 2.02172e-08)
(0.000810755 4.31894e-08 2.86665e-08)
(0.00108074 2.8074e-07 1.69714e-07)
(0.000808159 8.55648e-08 3.69235e-08)
(0.000809086 1.5156e-07 3.81198e-08)
(0.00107849 1.48452e-07 1.00713e-07)
(0.000806779 4.48036e-08 4.57085e-08)
(0.000807621 -1.15932e-07 6.38976e-08)
(0.00107662 7.73778e-08 1.81863e-07)
(0.000805481 1.82244e-08 4.18622e-08)
(0.000806174 -1.51611e-07 4.70593e-08)
(0.00107485 4.54701e-08 1.89161e-07)
(0.00080398 4.57929e-09 4.97863e-08)
(0.00080473 9.6525e-08 3.49409e-08)
(0.00107299 1.36718e-08 1.65197e-07)
(0.000802525 -1.80451e-08 4.83979e-08)
(0.000803226 1.19853e-07 5.48334e-08)
(0.00107098 1.44438e-08 1.69917e-07)
(0.000801028 -2.49196e-08 4.14362e-08)
(0.000801748 1.11342e-07 4.65485e-08)
(0.00106901 -3.01173e-08 1.776e-07)
(0.000799551 6.86276e-11 5.20042e-08)
(0.000800301 3.52874e-08 4.4713e-08)
(0.00106703 -3.33371e-09 1.83385e-07)
(0.000798132 5.8571e-09 6.04356e-08)
(0.000798847 -7.45919e-08 6.13526e-08)
(0.00106509 1.24384e-08 1.76973e-07)
(0.000796698 -3.14299e-08 5.31832e-08)
(0.000797358 -4.26009e-08 5.36373e-08)
(0.00106317 -1.07189e-08 1.76704e-07)
(0.000795147 -4.77965e-08 3.7795e-08)
(0.000795868 1.11695e-07 5.98744e-08)
(0.00106127 -7.39489e-08 1.79816e-07)
(0.000793549 -7.0697e-08 3.44704e-08)
(0.00079434 6.31355e-08 3.94778e-08)
(0.00105914 -2.20755e-08 1.45239e-07)
(0.000792054 -6.96267e-08 4.99914e-08)
(0.000792868 2.62377e-07 6.18424e-08)
(0.00105701 -1.36627e-07 1.5138e-07)
(0.000790557 4.70611e-08 4.7371e-08)
(0.000791502 8.54101e-08 5.14229e-08)
(0.00105506 -5.26698e-08 1.81606e-07)
(0.000789382 1.14398e-07 4.40367e-08)
(0.000790045 -5.06601e-07 3.83583e-08)
(0.00105328 1.39543e-07 1.88292e-07)
(0.000787876 1.03222e-07 5.56667e-08)
(0.000788544 2.08635e-07 5.51204e-08)
(0.00105153 1.11751e-07 1.61343e-07)
(0.000786308 5.96032e-08 7.17349e-08)
(0.000787013 -2.03757e-08 5.79928e-08)
(0.00104941 1.1803e-07 1.75834e-07)
(0.00078566 -1.06504e-07 7.48777e-08)
(0.00104766 2.88754e-08 1.79582e-07)
(0.000853559 6.77829e-06 -4.66218e-07)
(0.00065351 1.17053e-05 -3.74489e-06)
(0.000873636 1.6274e-05 -1.74527e-06)
(0.000826824 1.54058e-05 8.98539e-07)
(0.000961187 1.3994e-06 2.12645e-06)
(0.00126014 1.93481e-06 1.98793e-06)
(0.000811652 1.16978e-05 3.75596e-06)
(0.000802219 4.74773e-05 -2.63128e-07)
(0.00106583 4.25177e-05 -8.74103e-07)
(0.000362006 6.0872e-05 -5.50338e-06)
(0.00085736 -1.26141e-05 5.50001e-06)
(0.00112071 2.4646e-06 8.25282e-06)
(0.000605758 6.40345e-05 1.12786e-05)
(0.000883291 0.000135154 4.33163e-06)
(0.000966554 1.2816e-05 6.9148e-06)
(0.000360918 2.67642e-05 -2.86498e-06)
(0.000384148 5.61129e-05 -6.10892e-06)
(0.000385673 0.000131153 3.69495e-07)
(0.000506615 0.000149886 -8.86841e-06)
(0.000207847 2.052e-05 -2.86246e-06)
(0.000274156 -7.37484e-05 -8.89321e-07)
(0.000605078 -2.9937e-05 5.8936e-05)
(0.000287986 -6.72796e-05 -7.10869e-07)
(0.000352865 -0.000266922 -2.19255e-05)
(0.000381393 -7.09486e-05 1.77296e-05)
(0.000483656 -3.13358e-05 6.14201e-07)
(0.000464988 -4.61843e-05 -1.71892e-06)
(0.000839525 -8.53544e-05 6.24546e-06)
(0.000360565 -0.000100083 2.07192e-05)
(0.000647898 -0.000112895 4.41509e-05)
(0.000588532 -0.000151596 4.94818e-05)
(0.000397753 -5.3573e-05 3.69699e-06)
(0.000709147 -0.000116416 8.89621e-06)
(0.000608625 -0.000114943 -1.8892e-06)
(0.000335911 -6.0638e-05 -1.48142e-06)
(0.000841732 -3.77414e-05 -1.14007e-06)
(0.000891341 -4.54237e-05 -1.78503e-06)
(0.00116291 -5.91984e-05 -1.39148e-06)
(0.000594093 -4.20094e-05 -4.50922e-06)
(0.000625855 -4.14928e-05 -4.82383e-06)
(0.00099276 -7.81854e-05 -4.56247e-06)
(0.00107035 -7.70863e-05 -5.2661e-06)
(0.00084463 -2.5101e-05 -2.11879e-08)
(0.000843941 -3.18958e-05 -2.4974e-07)
(0.00111616 -4.13043e-05 1.05856e-07)
(0.000844577 -1.56811e-05 7.18182e-08)
(0.000852113 -1.93654e-05 9.68153e-08)
(0.0011281 -2.55258e-05 1.99187e-07)
(0.000843913 -9.92595e-06 4.48565e-08)
(0.000847765 -1.21822e-05 3.8589e-08)
(0.0011254 -1.62377e-05 1.83601e-07)
(0.000842733 -6.23322e-06 5.34595e-08)
(0.000845838 -7.55907e-06 5.73344e-08)
(0.00112456 -1.02008e-05 1.87637e-07)
(0.000841329 -3.91078e-06 5.26878e-08)
(0.00084356 -4.70231e-06 5.24469e-08)
(0.00112272 -6.40628e-06 1.86815e-07)
(0.000839813 -2.45046e-06 5.28246e-08)
(0.000841536 -2.92628e-06 5.31487e-08)
(0.00112077 -4.0176e-06 1.86767e-07)
(0.00083825 -1.53949e-06 5.24674e-08)
(0.000839627 -1.82881e-06 5.23482e-08)
(0.0011187 -2.51561e-06 1.86478e-07)
(0.0008367 -9.56881e-07 2.62801e-08)
(0.000837831 -1.14643e-06 5.26038e-08)
(0.00111662 -1.58748e-06 1.87463e-07)
(0.000835064 -5.75234e-07 2.60813e-08)
(0.000836092 -7.47244e-07 2.56008e-08)
(0.00111447 -9.63068e-07 1.61843e-07)
(0.000833479 -4.27667e-07 1.4775e-08)
(0.000834343 -5.64911e-07 4.77563e-08)
(0.00111237 -5.65318e-07 1.47325e-07)
(0.000831767 -3.37358e-07 9.09725e-09)
(0.000832675 4.61926e-07 1.52259e-08)
(0.00111016 -5.6678e-07 2.1186e-07)
(0.000830319 -2.28279e-07 4.06653e-08)
(0.000831093 -2.67363e-07 4.64669e-08)
(0.00110805 -3.3476e-07 1.95087e-07)
(0.000828434 -1.4223e-07 4.31958e-08)
(0.000829457 7.8214e-07 6.02478e-08)
(0.00110585 -2.75607e-07 1.81801e-07)
(0.000826873 -6.79784e-08 2.69961e-08)
(0.000827803 -1.16873e-07 4.94979e-08)
(0.00110355 -1.10741e-07 1.8414e-07)
(0.000825457 -1.04113e-08 4.04239e-08)
(0.000826258 -8.16893e-08 3.80437e-08)
(0.00110159 -8.20753e-08 1.82286e-07)
(0.000823906 4.57045e-08 6.24767e-08)
(0.000824715 7.12607e-08 -3.67145e-08)
(0.00109957 3.70863e-08 1.83187e-07)
(0.000822268 3.1531e-08 4.66537e-08)
(0.000823091 -5.31273e-08 4.52216e-08)
(0.00109745 3.79165e-08 1.82411e-07)
(0.000820715 -4.99441e-08 5.28521e-08)
(0.000821485 -1.00039e-07 3.7757e-08)
(0.00109532 -1.18512e-08 1.88452e-07)
(0.000819065 -1.47731e-07 5.83261e-08)
(0.000819924 7.87578e-08 5.78515e-08)
(0.00109319 -1.54465e-07 1.85394e-07)
(0.000817198 -3.38278e-07 1.03603e-07)
(0.000818244 -6.75052e-09 4.77281e-08)
(0.00109081 -2.44306e-07 1.80871e-07)
(0.000816333 -4.25986e-07 1.05933e-07)
(0.000816784 -2.64204e-07 1.09978e-07)
(0.001089 -6.28718e-07 3.07737e-07)
(0.000814852 -2.71777e-07 4.40566e-08)
(0.000815518 -3.66368e-07 1.22605e-08)
(0.00108748 -4.66244e-07 1.40698e-07)
(0.000813104 -2.06976e-07 2.19934e-08)
(0.000813995 3.75253e-07 4.28145e-08)
(0.00108528 -2.68351e-07 1.54556e-07)
(0.000811741 -2.79912e-07 2.49999e-08)
(0.000812388 -4.842e-07 5.18283e-08)
(0.0010832 -3.35543e-07 1.90733e-07)
(0.000810088 -2.33189e-07 4.65662e-08)
(0.000810814 -6.77745e-08 4.42665e-08)
(0.00108118 -4.2206e-07 1.99617e-07)
(0.000808566 -1.07662e-07 6.50859e-08)
(0.000809243 -1.02406e-07 5.13697e-08)
(0.00107906 -1.77772e-07 1.98439e-07)
(0.000806966 6.75352e-10 6.52537e-08)
(0.000807757 1.93076e-07 6.48365e-08)
(0.00107704 -1.06905e-07 1.65405e-07)
(0.00080546 7.22028e-08 4.01418e-08)
(0.000806263 -1.1483e-07 4.48451e-08)
(0.00107494 9.13108e-08 1.76537e-07)
(0.000803978 5.71626e-08 3.99818e-08)
(0.000804711 4.82718e-08 3.42908e-08)
(0.00107294 6.91366e-08 1.80757e-07)
(0.000802417 3.8883e-08 5.29866e-08)
(0.000803203 1.12149e-07 5.30906e-08)
(0.00107094 5.43363e-08 1.84992e-07)
(0.000801027 2.35669e-08 4.98258e-08)
(0.000801728 5.70642e-09 4.84486e-08)
(0.00106894 3.1942e-08 1.76884e-07)
(0.0007996 2.54951e-08 5.40563e-08)
(0.000800304 -3.67906e-08 5.44966e-08)
(0.00106705 2.4104e-08 1.77963e-07)
(0.000798106 1.52588e-08 5.45567e-08)
(0.000798834 -3.90651e-08 4.88871e-08)
(0.00106509 3.42551e-08 1.76517e-07)
(0.00079652 -2.73213e-08 6.03265e-08)
(0.000797305 5.12265e-08 4.26733e-08)
(0.00106306 -1.38707e-09 1.80621e-07)
(0.000795029 -6.41586e-08 6.15635e-08)
(0.000795822 1.65427e-07 5.87156e-08)
(0.00106103 -5.92084e-08 1.75131e-07)
(0.000793635 -2.51634e-08 6.68429e-08)
(0.000794388 -1.15236e-07 5.09073e-08)
(0.00105908 -1.07311e-07 1.83357e-07)
(0.000792334 7.34321e-08 6.32771e-08)
(0.000792991 -8.5746e-08 8.26078e-08)
(0.00105724 3.1446e-08 1.87421e-07)
(0.000791022 2.45825e-07 4.24142e-08)
(0.000791718 -1.23009e-07 3.8655e-08)
(0.00105558 1.58355e-07 1.78434e-07)
(0.00078919 2.4233e-07 4.94369e-08)
(0.00079004 1.63526e-07 5.54304e-08)
(0.00105349 4.52355e-07 1.61974e-07)
(0.000787718 1.05955e-07 5.74457e-08)
(0.000788373 1.1724e-07 5.34289e-08)
(0.00105126 1.22035e-07 1.84746e-07)
(0.000786208 6.27183e-08 6.11305e-08)
(0.000786959 -1.71235e-07 4.70117e-08)
(0.00104932 1.0858e-07 1.92827e-07)
(0.000785581 1.78364e-07 1.0614e-07)
(0.00104744 1.9573e-08 1.59272e-07)
(0.000878689 5.70695e-06 -1.15418e-06)
(0.000648792 9.14742e-06 -3.87987e-06)
(0.000871142 2.01596e-05 -3.61025e-06)
(0.000867281 2.58538e-05 9.65572e-07)
(0.000983824 -4.1699e-06 1.79543e-06)
(0.00130094 3.56656e-06 1.39719e-06)
(0.000874845 1.24383e-05 1.47902e-06)
(0.000796716 3.3766e-05 2.91698e-07)
(0.00108468 6.74739e-05 3.20633e-07)
(0.000661468 6.17022e-05 7.0525e-06)
(0.000929158 -3.85192e-05 3.56325e-06)
(0.00125973 -2.74713e-05 2.67654e-06)
(0.000655154 -1.61015e-05 7.23637e-06)
(0.00110615 0.000151899 4.81553e-06)
(0.00103501 4.79115e-05 3.11836e-06)
(0.000515469 8.52557e-05 1.09996e-05)
(0.0005545 6.35819e-05 5.48199e-06)
(0.00052914 6.4318e-05 9.17826e-06)
(0.000882282 0.000174471 1.04188e-05)
(0.000276219 0.000313188 8.91465e-06)
(0.00043152 8.36886e-05 1.70075e-05)
(0.000226848 4.31547e-05 8.20134e-06)
(0.00034078 -0.000242064 1.00079e-05)
(0.000391432 0.00020964 5.46227e-05)
(0.000849401 -7.39861e-05 2.62981e-05)
(0.000406764 -2.05372e-05 1.49556e-05)
(0.000497339 -3.91396e-05 3.1941e-05)
(0.000636387 -3.67473e-05 4.8705e-05)
(0.000286805 -1.11905e-05 1.19732e-05)
(0.000861619 -4.27532e-05 -8.95201e-07)
(0.000941635 -5.14693e-05 -1.7451e-06)
(0.00121444 -6.98609e-05 -1.18107e-06)
(0.00063161 -4.62957e-05 -4.90949e-06)
(0.000630119 -5.45784e-05 -5.13438e-06)
(0.00105862 -8.37885e-05 -5.10311e-06)
(0.00104804 -0.000102483 -4.81702e-06)
(0.000858569 -2.60649e-05 -1.31851e-07)
(0.000865136 -2.89541e-05 -4.3739e-07)
(0.00113443 -4.39804e-05 1.05556e-07)
(0.000853912 -1.53176e-05 6.36051e-08)
(0.000865651 -1.60361e-05 1.01266e-07)
(0.00114411 -2.54697e-05 2.17527e-07)
(0.000849939 -9.24412e-06 5.10608e-08)
(0.000855418 -9.24643e-06 -9.17584e-08)
(0.00113527 -1.53671e-05 1.85365e-07)
(0.000846574 -5.59935e-06 5.63234e-08)
(0.000850431 -5.4496e-06 5.18759e-08)
(0.00113098 -9.28311e-06 1.8998e-07)
(0.000843738 -3.41526e-06 5.29075e-08)
(0.000846313 -3.21422e-06 4.22315e-08)
(0.00112676 -5.64923e-06 1.87511e-07)
(0.000841318 -2.10321e-06 5.26725e-08)
(0.000843189 -1.94953e-06 5.13509e-08)
(0.0011233 -3.46543e-06 1.87109e-07)
(0.000839177 -1.30704e-06 5.24845e-08)
(0.00084063 -1.18744e-06 1.68667e-08)
(0.00112028 -2.14875e-06 1.8621e-07)
(0.000837232 -8.18658e-07 5.19333e-08)
(0.000838447 -7.47315e-07 5.45555e-08)
(0.00111757 -1.33367e-06 1.86228e-07)
(0.000835379 -5.15795e-07 4.72687e-08)
(0.000836474 -4.4975e-07 5.25611e-08)
(0.00111508 -8.31422e-07 1.85609e-07)
(0.000833471 -3.38248e-07 4.82176e-08)
(0.000834567 -2.9699e-07 4.84438e-08)
(0.00111253 -5.18381e-07 1.92502e-07)
(0.000832026 -2.12984e-07 5.25854e-08)
(0.000832833 -3.32377e-07 3.31218e-08)
(0.00111029 -3.57874e-07 2.26083e-07)
(0.000830246 -1.77097e-07 6.60449e-08)
(0.000831138 -8.06184e-08 6.06144e-08)
(0.00110819 -1.91875e-07 1.87447e-07)
(0.000828817 -1.43629e-07 6.65533e-08)
(0.0008295 2.52234e-08 6.66378e-08)
(0.00110604 -2.64245e-07 2.22574e-07)
(0.000827108 -1.84503e-08 6.05492e-08)
(0.00082796 3.12739e-08 4.16399e-08)
(0.00110395 -1.20504e-07 1.843e-07)
(0.000825565 3.78778e-08 -3.90709e-08)
(0.000826329 -1.32671e-07 4.94776e-08)
(0.00110178 2.09823e-08 1.83849e-07)
(0.00082393 5.02671e-08 -5.39957e-08)
(0.000824731 1.22339e-07 -3.6659e-08)
(0.00109965 -8.6206e-10 1.84916e-07)
(0.000822277 8.93373e-08 3.63273e-08)
(0.00082314 3.94218e-08 4.26409e-08)
(0.00109745 4.7392e-08 1.83768e-07)
(0.000820672 1.17885e-07 4.275e-08)
(0.000821521 -5.08339e-08 4.2112e-08)
(0.00109531 9.33243e-08 1.82766e-07)
(0.000819208 1.11842e-07 4.72567e-08)
(0.000819916 3.54891e-09 -8.5034e-08)
(0.00109326 1.083e-07 1.79257e-07)
(0.000817588 1.84688e-07 5.40825e-08)
(0.000818335 2.49066e-07 4.39115e-08)
(0.00109119 8.60927e-08 1.69929e-07)
(0.000816077 1.04118e-07 1.63363e-08)
(0.000816683 -3.02376e-07 3.77146e-08)
(0.00108909 3.00984e-07 1.81236e-07)
(0.000814729 -2.21092e-08 1.10088e-08)
(0.000815361 -2.50391e-07 2.31411e-08)
(0.00108718 -1.06782e-07 1.55982e-07)
(0.000813242 2.14629e-08 7.26466e-08)
(0.00081405 -5.71953e-08 4.85434e-08)
(0.00108534 -7.18563e-09 2.07342e-07)
(0.000811455 3.98035e-08 7.10973e-08)
(0.000812412 -1.35753e-07 6.60329e-08)
(0.00108314 -2.78581e-08 1.7878e-07)
(0.000809998 5.21911e-08 4.90678e-08)
(0.00081083 -1.01768e-07 3.6018e-08)
(0.00108094 3.6209e-08 1.76716e-07)
(0.000808365 6.54219e-08 5.1116e-08)
(0.00080926 1.89857e-07 4.91529e-08)
(0.00107889 4.51674e-08 1.69368e-07)
(0.000807112 6.80584e-08 4.44342e-08)
(0.00080776 -1.27719e-07 5.44622e-08)
(0.00107695 9.70122e-08 1.79403e-07)
(0.000805489 6.93812e-08 3.89975e-08)
(0.000806265 1.50028e-08 4.11444e-08)
(0.00107507 5.07231e-08 1.8042e-07)
(0.000803938 8.29776e-08 4.73938e-08)
(0.000804728 1.3279e-07 4.39344e-08)
(0.00107294 1.00164e-07 1.77383e-07)
(0.000802468 9.90149e-08 4.85541e-08)
(0.000803223 8.32149e-08 4.8222e-08)
(0.00107093 8.31441e-08 1.78391e-07)
(0.000801006 1.00559e-07 5.31175e-08)
(0.00080173 -3.57823e-08 4.66469e-08)
(0.00106897 1.28854e-07 1.78756e-07)
(0.000799583 4.69125e-08 4.93292e-08)
(0.000800236 -9.71144e-08 6.1928e-08)
(0.00106703 8.66328e-08 1.7674e-07)
(0.000798046 -2.17377e-08 3.70056e-08)
(0.000798749 2.0124e-08 4.37751e-08)
(0.00106506 1.32144e-08 1.78582e-07)
(0.00079655 -6.28073e-08 4.10574e-08)
(0.000797253 7.39376e-08 2.87497e-08)
(0.00106305 -5.12755e-08 1.7772e-07)
(0.000795185 -7.07683e-08 4.80617e-08)
(0.000795812 3.56022e-08 5.09525e-08)
(0.00106114 -6.68959e-08 1.77033e-07)
(0.000793715 -7.44602e-08 6.66624e-08)
(0.000794384 -2.89845e-08 7.94723e-08)
(0.00105925 -6.47522e-08 1.7104e-07)
(0.000792325 -1.15024e-07 5.79991e-08)
(0.00079294 -1.62889e-07 6.64534e-08)
(0.00105735 -7.05107e-08 1.75854e-07)
(0.000791048 -2.76283e-07 5.1666e-08)
(0.000791516 -3.1186e-07 4.02943e-08)
(0.00105558 -1.55571e-07 1.73798e-07)
(0.000788938 -2.40463e-07 5.94229e-08)
(0.000790085 1.23349e-07 3.47118e-08)
(0.00105324 -4.84374e-07 2.39059e-07)
(0.000787718 2.11776e-08 4.29969e-08)
(0.0007887 -2.47923e-07 9.59164e-08)
(0.0010511 -8.94529e-08 1.81687e-07)
(0.000786221 4.78123e-08 9.20033e-08)
(0.000786992 1.76493e-07 4.03756e-08)
(0.00104928 1.50104e-07 1.55164e-07)
(0.00078552 8.90172e-08 1.52552e-07)
(0.0010475 -3.81914e-08 1.93547e-07)
(0.000868826 3.61742e-07 -9.32151e-07)
(0.000646293 4.37054e-06 -3.82567e-06)
(0.000862316 7.89566e-06 -2.64016e-06)
(0.000854691 8.697e-06 1.12206e-06)
(0.00099336 -1.82372e-06 1.28451e-06)
(0.00131323 -3.65862e-06 1.09977e-06)
(0.000846261 -7.15472e-06 2.37485e-06)
(0.000791771 1.43804e-05 -1.28411e-07)
(0.00104753 3.18006e-05 2.03755e-06)
(0.000430228 5.94814e-05 1.89724e-06)
(0.000999122 1.76534e-06 2.85573e-06)
(0.00129807 -3.92279e-05 6.33212e-06)
(0.000689701 0.000106541 1.02105e-05)
(0.000689583 0.000110665 4.73883e-07)
(0.0011488 0.000172512 9.3406e-06)
(0.00039151 2.46537e-05 5.06893e-06)
(0.000315093 7.74977e-05 2.85935e-06)
(0.000403673 0.000189604 7.05798e-06)
(0.000384263 0.000145623 -1.4134e-06)
(0.000235346 0.000267222 2.25135e-06)
(0.000143385 0.000199889 6.84476e-06)
(0.000160057 0.000134954 -2.93374e-06)
(0.000190323 0.000294605 1.58969e-05)
(0.000400773 0.000451261 -3.23664e-06)
(0.0022708 0.000198894 5.98241e-05)
(0.000355321 -0.000161245 5.98093e-05)
(0.000379261 -3.79041e-05 7.11506e-05)
(0.000544452 -0.000115363 0.000147811)
(0.000418997 -7.73971e-05 4.03709e-05)
(0.000903226 -2.45275e-05 -1.28772e-06)
(0.000971762 2.35179e-06 -1.99034e-06)
(0.00129638 -4.28158e-05 -1.48498e-06)
(0.00067951 -4.63804e-05 -5.65345e-06)
(0.00070337 -2.67075e-05 -5.59246e-06)
(0.0011361 -9.47752e-05 -4.44062e-06)
(0.00119291 -4.97446e-05 -5.45331e-06)
(0.000879514 -1.31931e-05 -2.0445e-07)
(0.000879149 3.46176e-07 -5.29404e-07)
(0.00117258 -2.28824e-05 7.15035e-08)
(0.000864843 -7.25348e-06 -5.40346e-08)
(0.000873127 -1.39018e-07 1.15295e-07)
(0.00116415 -1.23899e-05 2.15096e-07)
(0.000855796 -4.12923e-06 -9.09902e-08)
(0.000859352 1.99734e-10 -1.07617e-07)
(0.0011458 -7.00059e-06 1.88282e-07)
(0.000849903 -2.41377e-06 3.77872e-08)
(0.000852592 -1.04539e-07 4.57386e-08)
(0.0011368 -4.03845e-06 1.8531e-07)
(0.000845592 -1.44431e-06 4.06719e-08)
(0.000847534 1.07127e-07 4.62367e-08)
(0.00113005 -2.40739e-06 1.88383e-07)
(0.00084241 -8.60514e-07 1.55562e-08)
(0.000843925 -3.00094e-09 4.9975e-08)
(0.00112518 -1.44265e-06 1.85979e-07)
(0.000839812 -5.08217e-07 1.89255e-08)
(0.000841074 3.41471e-08 2.25452e-08)
(0.00112139 -8.53574e-07 1.85657e-07)
(0.000837679 -3.05507e-07 5.5184e-08)
(0.000838703 -8.95597e-08 4.62943e-08)
(0.00111828 -5.10961e-07 1.84736e-07)
(0.000835647 -2.02653e-07 5.37375e-08)
(0.000836603 -7.92784e-09 5.20874e-08)
(0.0011155 -3.17234e-07 1.91081e-07)
(0.000833841 -5.90618e-08 3.3353e-08)
(0.000834747 -4.72303e-08 3.1239e-08)
(0.00111297 -2.38858e-07 1.84929e-07)
(0.000832035 4.2721e-08 4.1142e-08)
(0.00083296 1.0517e-07 2.72171e-08)
(0.00111058 6.08094e-08 1.72149e-07)
(0.000830266 3.34142e-08 6.12054e-08)
(0.000831127 1.69895e-07 3.53612e-08)
(0.00110817 4.13612e-08 1.81998e-07)
(0.000828697 6.62755e-08 4.17324e-08)
(0.000829541 1.61411e-09 6.56829e-08)
(0.00110594 4.44961e-08 1.83837e-07)
(0.000827189 1.1009e-07 3.05659e-08)
(0.000828014 2.132e-07 3.17473e-08)
(0.00110391 1.17065e-07 1.6447e-07)
(0.000825454 1.03347e-07 5.19169e-08)
(0.00082632 2.37199e-08 4.0918e-08)
(0.00110174 1.45127e-07 1.86133e-07)
(0.00082398 9.3735e-08 5.99523e-08)
(0.000824719 8.62288e-09 8.83881e-08)
(0.00109961 9.58432e-08 1.82356e-07)
(0.000822373 1.09701e-07 4.84258e-08)
(0.00082316 1.38346e-07 6.09851e-08)
(0.00109757 1.23136e-07 1.79264e-07)
(0.000820755 1.32347e-07 -8.56317e-08)
(0.000821549 4.29965e-08 5.25648e-08)
(0.0010954 1.27241e-07 1.80876e-07)
(0.000819033 1.51579e-07 -8.842e-08)
(0.00081994 6.49318e-09 -8.89329e-08)
(0.00109318 1.6063e-07 1.96381e-07)
(0.000817489 2.0431e-07 2.75455e-08)
(0.0008184 2.62819e-07 4.64606e-08)
(0.00109105 1.68135e-07 1.80293e-07)
(0.000815677 3.42714e-07 4.45241e-08)
(0.000816855 3.22092e-07 3.2286e-08)
(0.00108876 2.92259e-07 1.60953e-07)
(0.000814951 2.92085e-07 6.06678e-08)
(0.000815297 -2.49128e-06 6.18453e-08)
(0.0010871 5.27851e-07 2.67532e-07)
(0.000813203 1.38068e-07 4.19242e-08)
(0.000813857 2.28102e-07 5.5408e-08)
(0.00108538 1.92712e-07 1.79696e-07)
(0.000811762 1.17193e-07 3.0963e-08)
(0.000812385 -1.84341e-07 5.90039e-08)
(0.00108325 1.51038e-07 1.76206e-07)