/*--------------------------------*- C++ -*----------------------------------*\
| =========                 |                                                 |
| \\      /  F ield         | OpenFOAM: The Open Source CFD Toolbox           |
|  \\    /   O peration     | Version:  5.0                                   |
|   \\  /    A nd           | Web:      www.OpenFOAM.org                      |
|    \\/     M anipulation  |                                                 |
\*---------------------------------------------------------------------------*/
FoamFile
{
    version     2.0;
    format      ascii;
    class       surfaceVectorField;
    location    "0.3";
    object      Uf_0;
}
// * * * * * * * * * * * * * * * * * * * * * * * * * * * * * * * * * * * * * //

dimensions      [0 1 -1 0 0 0 0];

internalField   nonuniform List<vector> 
12667
(
(0.000858785 -4.3168e-06 -9.78936e-07)
(0.00066255 3.59619e-06 -3.92032e-06)
(0.000891398 2.27314e-06 -2.81943e-06)
(0.000849432 1.71643e-05 1.19698e-06)
(0.000952364 -6.71867e-06 1.73946e-06)
(0.00124719 -1.00955e-05 1.24181e-06)
(0.000815758 1.11445e-05 3.15509e-06)
(0.000826211 2.5884e-05 1.62419e-07)
(0.00111831 5.31344e-05 2.57682e-06)
(0.000600951 -7.24215e-05 -3.27664e-06)
(0.000804331 -2.47691e-05 4.7857e-06)
(0.00108338 -3.28436e-05 8.80014e-06)
(0.000430248 -2.1172e-05 6.64483e-06)
(0.000951028 -0.000167855 -1.66759e-05)
(0.00093216 -0.000179718 8.77832e-06)
(0.000486852 -4.61534e-05 -3.03309e-07)
(0.000923436 -0.00016996 -1.55504e-05)
(0.000898914 -0.000295527 2.94306e-06)
(0.000540932 5.96721e-05 -4.39869e-06)
(0.000561713 -0.00015503 2.71308e-06)
(0.000883109 0.000179365 -4.25029e-05)
(0.00177584 -2.00677e-05 8.43585e-05)
(0.000741102 -1.24373e-05 3.60676e-05)
(0.000815022 -8.11291e-06 4.38107e-05)
(0.000886822 -3.56006e-05 8.76039e-05)
(0.000340075 7.5254e-06 -2.07861e-06)
(0.000480988 7.99596e-06 -3.04833e-06)
(0.000487103 1.62592e-05 -8.54572e-07)
(0.000831332 1.88097e-05 -1.17563e-06)
(0.000335574 1.52442e-05 -2.13732e-06)
(0.000627793 1.39052e-05 -3.2335e-06)
(0.000614986 3.46104e-05 -3.24128e-06)
(0.000821599 -3.29122e-06 -1.13529e-06)
(0.000841942 -1.15936e-05 -1.9193e-06)
(0.00113109 -3.76126e-06 -1.33234e-06)
(0.000594734 2.23037e-06 -4.12485e-06)
(0.000588255 6.13437e-06 -4.15406e-06)
(0.00100678 6.49656e-06 -4.3619e-06)
(0.000991926 1.5506e-05 -4.40209e-06)
(0.000829049 -3.56243e-06 -8.4329e-08)
(0.000819417 -9.92452e-06 -2.16886e-07)
(0.00109276 -5.02153e-06 1.11501e-07)
(0.000833557 -2.95805e-06 7.92487e-08)
(0.00083368 -7.60081e-06 1.2522e-07)
(0.00111045 -4.51505e-06 1.96076e-07)
(0.000836326 -2.17714e-06 4.88309e-08)
(0.000835996 -5.38518e-06 5.25825e-08)
(0.00111327 -3.40698e-06 1.87369e-07)
(0.000837744 -1.53404e-06 -7.05744e-08)
(0.000838135 -3.64296e-06 5.52774e-08)
(0.00111633 -2.42979e-06 1.91464e-07)
(0.000838105 -1.02494e-06 -7.25163e-08)
(0.000838674 -2.41267e-06 -6.61977e-08)
(0.0011174 -1.69832e-06 1.94319e-07)
(0.000837702 -6.60611e-07 4.76928e-08)
(0.000838444 -1.6169e-06 4.93775e-08)
(0.0011174 -1.075e-06 1.8638e-07)
(0.000836827 -4.5299e-07 9.04345e-08)
(0.000837645 -1.00587e-06 5.24917e-08)
(0.00111647 -7.1516e-07 1.87183e-07)
(0.00083578 -3.02225e-07 9.09765e-08)
(0.000836575 -1.57938e-06 7.30311e-08)
(0.00111517 -5.09842e-07 2.45471e-07)
(0.000834377 -2.21181e-07 5.26437e-08)
(0.000835269 -3.28961e-07 3.81202e-08)
(0.00111351 -3.00267e-07 1.85781e-07)
(0.000833118 -1.11681e-07 5.54577e-08)
(0.00083391 -7.41709e-08 4.27044e-08)
(0.0011117 -2.66734e-07 1.85496e-07)
(0.000831776 -3.77301e-08 7.10033e-08)
(0.000832506 -6.09891e-07 5.78768e-08)
(0.00111 -2.85928e-09 2.22491e-07)
(0.000830241 -1.41899e-08 6.38672e-08)
(0.000830996 3.13688e-08 6.77236e-08)
(0.00110807 -8.96466e-08 1.82633e-07)
(0.000828571 5.52218e-08 5.79169e-08)
(0.000829425 6.78372e-08 3.60089e-08)
(0.00110586 4.61461e-08 1.67337e-07)
(0.000827029 4.43668e-08 6.38535e-08)
(0.000827803 -7.42917e-08 5.70364e-08)
(0.00110375 8.05765e-08 1.86251e-07)
(0.000825586 2.56107e-08 5.0318e-08)
(0.000826283 -7.8403e-08 9.52553e-08)
(0.0011018 1.49361e-08 1.83716e-07)
(0.000823931 7.35319e-08 4.35337e-08)
(0.000824785 9.25095e-08 5.84183e-08)
(0.00109974 4.37433e-08 1.8348e-07)
(0.000822342 1.09701e-07 4.19743e-08)
(0.000823178 -7.53888e-08 4.40116e-08)
(0.00109757 1.26739e-07 1.81878e-07)
(0.000820701 5.44876e-08 4.918e-08)
(0.000821535 -8.7117e-08 1.97256e-08)
(0.0010954 9.67639e-08 1.81529e-07)
(0.000819118 -4.87896e-09 5.29776e-08)
(0.000819964 2.05516e-08 5.90592e-08)
(0.00109327 -2.40959e-08 1.80349e-07)
(0.000817242 -5.83518e-08 5.46624e-08)
(0.000818344 2.36121e-07 5.2997e-08)
(0.00109092 -2.60611e-08 1.76875e-07)
(0.000816382 -3.71736e-08 5.71873e-08)
(0.00081689 -4.36376e-08 5.79168e-08)
(0.00108915 -1.34013e-07 1.53527e-07)
(0.000814285 1.53502e-07 6.06174e-08)
(0.000815467 4.48652e-07 6.89407e-08)
(0.00108722 4.43487e-08 1.79623e-07)
(0.000812801 3.84175e-07 6.38997e-08)
(0.000813852 -6.49376e-07 3.57365e-08)
(0.00108471 3.46315e-07 2.06731e-07)
(0.000812084 3.79265e-07 4.85352e-08)
(0.000812322 -1.85905e-06 3.4133e-08)
(0.00108329 6.09742e-07 2.18803e-07)
(0.000810263 2.21423e-07 4.126e-08)
(0.000810791 2.0056e-07 5.66511e-08)
(0.0010816 3.43895e-07 2.02372e-07)
(0.000808698 1.42309e-07 4.83397e-08)
(0.00080928 2.88277e-07 7.48894e-08)
(0.00107932 2.2058e-07 1.6838e-07)
(0.000807061 7.67612e-08 5.08643e-08)
(0.000807759 1.21502e-07 5.12199e-08)
(0.00107722 1.30738e-07 1.78073e-07)
(0.000805452 6.51851e-08 5.33295e-08)
(0.000806233 3.65752e-08 6.32165e-08)
(0.00107503 4.67728e-08 1.79517e-07)
(0.000803966 8.13426e-08 5.28294e-08)
(0.000804731 -1.06033e-07 5.39296e-08)
(0.00107299 1.04623e-07 1.79202e-07)
(0.000802476 7.97846e-08 4.10156e-08)
(0.000803207 -4.80812e-08 4.99584e-08)
(0.00107102 8.98633e-08 1.79409e-07)
(0.000801021 7.09772e-08 4.73246e-08)
(0.000801722 -6.8797e-08 4.49862e-08)
(0.00106905 9.30724e-08 1.77703e-07)
(0.000799565 6.02309e-08 6.1447e-08)
(0.000800254 -5.91493e-08 5.18717e-08)
(0.0010671 6.56242e-08 1.82191e-07)
(0.000797979 5.06341e-08 8.92068e-08)
(0.000798753 7.58353e-08 4.66958e-08)
(0.00106508 8.40816e-08 1.77497e-07)
(0.000796373 2.99725e-08 8.30656e-08)
(0.000797228 1.22412e-07 8.09825e-08)
(0.00106296 5.77658e-08 1.4918e-07)
(0.0007948 9.02031e-08 5.87691e-08)
(0.000795786 2.09069e-07 4.87513e-08)
(0.00106081 4.88905e-08 1.77094e-07)
(0.000793855 9.72368e-08 5.98774e-08)
(0.000794377 -1.5575e-06 6.72273e-08)
(0.00105914 2.17599e-07 2.30783e-07)
(0.000792252 2.37275e-08 4.65087e-08)
(0.000792909 5.9898e-08 4.69041e-08)
(0.00105741 6.4502e-08 1.71487e-07)
(0.000790863 -6.35885e-09 4.62088e-08)
(0.000791459 4.53659e-07 5.8559e-08)
(0.00105544 5.62406e-08 1.24051e-07)
(0.000789394 -1.42027e-08 4.94682e-08)
(0.00079005 1.56981e-08 6.59437e-08)
(0.00105357 -1.56556e-08 1.70736e-07)
(0.000787855 -2.27825e-08 6.16101e-08)
(0.000788604 -2.49627e-08 4.33233e-08)
(0.00105153 9.0465e-09 1.76722e-07)
(0.000786387 -3.30268e-08 7.552e-08)
(0.000787112 1.48469e-07 5.53567e-08)
(0.00104952 -3.99599e-08 2.12169e-07)
(0.000785822 1.05155e-07 8.10793e-08)
(0.00104772 -2.76401e-08 1.78381e-07)
(0.000872918 1.57914e-07 -1.20381e-06)
(0.000656711 1.05104e-05 -3.64124e-06)
(0.000882223 6.23231e-06 -3.7587e-06)
(0.000860005 -1.21265e-06 7.0543e-07)
(0.000951857 -3.74691e-06 1.9831e-06)
(0.00127593 -1.24442e-05 9.48799e-07)
(0.000861282 -1.44525e-05 1.7915e-06)
(0.00080721 1.72283e-05 -2.72303e-07)
(0.00109601 1.86464e-05 5.12112e-07)
(0.00063446 -1.65659e-05 8.11983e-06)
(0.000819916 -2.41662e-05 6.03238e-06)
(0.00114704 -4.17099e-05 2.79959e-06)
(0.00056407 -1.89547e-05 5.46088e-06)
(0.00109448 -3.52927e-05 -6.99734e-07)
(0.00101914 0.000140174 3.1402e-06)
(0.000413165 -1.20929e-05 8.68151e-06)
(0.000551551 -0.000120296 8.32664e-06)
(0.000500841 -1.01574e-05 8.22891e-06)
(0.000918166 -2.19124e-05 6.86519e-06)
(0.00140176 0.000448962 8.10154e-05)
(0.000647437 1.40348e-05 6.24434e-05)
(0.00090609 5.25886e-05 5.10097e-05)
(0.0007048 0.000116197 7.18318e-05)
(0.00129335 0.000132532 6.78701e-07)
(0.000286065 1.53824e-05 -1.69865e-06)
(0.000450841 6.14611e-06 -8.55197e-07)
(0.000441606 -9.71061e-06 -2.85295e-06)
(0.000438376 -2.13866e-05 -9.08072e-07)
(0.000710296 -1.78607e-05 -9.45283e-07)
(0.000285521 -1.50675e-05 -8.21859e-07)
(0.000528832 4.67285e-05 4.04119e-07)
(0.000531976 -3.38887e-05 1.77574e-06)
(0.000817441 -2.28309e-05 -1.00145e-06)
(0.000853917 -4.00864e-05 -1.99095e-06)
(0.00111463 -3.56416e-05 -1.28009e-06)
(0.000575058 -1.46548e-05 -3.77972e-06)
(0.000583654 -3.0293e-05 -3.95757e-06)
(0.000969987 -2.23779e-05 -3.96589e-06)
(0.000986857 -5.88044e-05 -4.16198e-06)
(0.000829979 -1.58436e-05 -7.44838e-09)
(0.000828251 -2.70093e-05 -6.14798e-08)
(0.00109252 -2.52879e-05 1.39939e-07)
(0.000835611 -1.05891e-05 9.8578e-08)
(0.000840314 -1.69543e-05 1.24764e-07)
(0.00111273 -1.69924e-05 2.03843e-07)
(0.000838336 -6.96725e-06 5.90281e-08)
(0.000840567 -1.08539e-05 4.51368e-08)
(0.00111612 -1.12766e-05 1.8699e-07)
(0.00083926 -4.50536e-06 5.96936e-08)
(0.000841241 -6.88344e-06 5.8938e-08)
(0.00111874 -7.32398e-06 1.88549e-07)
(0.000839175 -2.89888e-06 5.56585e-08)
(0.000840701 -4.36455e-06 5.39328e-08)
(0.00111912 -4.68811e-06 1.87001e-07)
(0.000838458 -1.85665e-06 5.41754e-08)
(0.000839759 -2.77462e-06 5.36844e-08)
(0.00111855 -3.02826e-06 1.86886e-07)
(0.000837427 -1.15823e-06 3.50817e-08)
(0.000838526 -1.755e-06 5.30118e-08)
(0.00111735 -1.92172e-06 1.85933e-07)
(0.00083614 -7.17218e-07 2.01861e-08)
(0.000837131 -1.1815e-06 3.28969e-08)
(0.00111579 -1.1793e-06 1.2943e-07)
(0.000834717 -4.36988e-07 2.81794e-08)
(0.000835622 -2.47822e-07 3.89541e-08)
(0.00111398 -7.51005e-07 1.63067e-07)
(0.000833397 -1.97828e-07 4.51187e-08)
(0.000834211 3.77952e-07 5.37755e-08)
(0.00111215 -4.27455e-07 1.28762e-07)
(0.000831686 -8.38845e-08 5.45939e-08)
(0.00083265 -6.85752e-07 4.39946e-09)
(0.00111008 -1.18721e-07 1.99234e-07)
(0.000830251 -7.04923e-08 3.98754e-08)
(0.000831013 -3.96911e-09 6.33927e-08)
(0.00110797 -1.21284e-07 1.72843e-07)
(0.000828635 -1.72997e-08 3.51217e-08)
(0.000829492 3.27829e-07 5.90269e-08)
(0.00110598 -6.30286e-08 1.68037e-07)
(0.000827003 6.48858e-08 8.8426e-08)
(0.000827906 -1.58181e-08 4.46868e-08)
(0.0011038 2.8608e-08 1.83696e-07)
(0.000825499 9.9104e-08 1.03367e-07)
(0.000826325 -2.05994e-07 4.4745e-08)
(0.0011017 1.31697e-07 1.85684e-07)
(0.000824077 7.94317e-08 5.89008e-08)
(0.000824761 -1.21846e-07 4.49661e-08)
(0.00109975 1.04133e-07 1.8484e-07)
(0.000822372 9.18082e-08 2.17707e-08)
(0.000823194 8.91962e-08 4.9323e-08)
(0.00109762 7.02087e-08 1.83253e-07)
(0.000820749 1.19913e-07 2.95924e-08)
(0.00082157 -1.03986e-07 3.14203e-08)
(0.00109544 1.21909e-07 1.89067e-07)
(0.000819247 1.29709e-07 5.90806e-08)
(0.000819976 -2.65337e-07 4.60849e-08)
(0.00109339 1.46976e-07 1.97344e-07)
(0.000817836 2.21971e-07 5.62499e-08)
(0.00081846 5.05021e-08 5.38491e-08)
(0.00109144 1.53844e-07 1.82559e-07)
(0.000816109 2.53671e-07 6.96668e-08)
(0.000816929 1.26473e-07 1.0124e-07)
(0.00108932 3.84175e-07 1.85501e-07)
(0.000815005 2.85174e-07 4.40702e-08)
(0.000815506 -5.71403e-07 5.78885e-08)
(0.00108744 2.34997e-07 2.14644e-07)
(0.000813355 4.42645e-07 5.97024e-09)
(0.000814049 -1.07607e-07 1.11732e-08)
(0.00108564 4.51385e-07 1.52818e-07)
(0.000811034 3.71953e-07 4.22417e-08)
(0.000812232 -3.33869e-07 1.26412e-08)
(0.00108298 6.06485e-07 1.42609e-07)
(0.000809797 1.80486e-07 9.02748e-08)
(0.000810552 -5.08528e-07 7.61404e-08)
(0.00108059 2.96596e-07 2.05161e-07)
(0.00080838 8.55517e-08 7.77771e-08)
(0.000809161 -3.51513e-07 6.86238e-08)
(0.00107883 1.68415e-07 2.16459e-07)
(0.000806872 5.77246e-08 6.35684e-08)
(0.000807725 7.80672e-08 2.8271e-08)
(0.00107689 6.50985e-08 1.82215e-07)
(0.000805551 6.33872e-08 6.38195e-08)
(0.00080624 -8.84851e-08 6.23916e-08)
(0.00107501 9.12019e-08 1.71556e-07)
(0.000803951 6.78484e-08 5.10599e-08)
(0.000804737 -4.61678e-08 6.97539e-08)
(0.00107305 7.75446e-08 1.8346e-07)
(0.000802438 8.33651e-08 5.39306e-08)
(0.000803227 -2.77368e-08 4.8529e-08)
(0.00107096 9.82197e-08 1.78635e-07)
(0.000800955 6.87349e-08 4.95311e-08)
(0.000801703 -7.89205e-08 5.39737e-08)
(0.00106897 9.49496e-08 1.78341e-07)
(0.000799467 1.47555e-08 3.7122e-08)
(0.000800186 -1.17363e-08 4.63619e-08)
(0.001067 5.05325e-08 1.74858e-07)
(0.000797992 -3.14703e-08 3.8461e-08)
(0.000798695 8.94519e-08 3.64227e-08)
(0.00106502 -2.74338e-08 1.76278e-07)
(0.000796576 -8.12114e-09 4.66781e-08)
(0.000797257 3.83784e-08 4.83481e-08)
(0.0010631 -4.74668e-08 1.78064e-07)
(0.000795396 9.7628e-08 5.72038e-08)
(0.000795918 -1.5219e-07 5.40129e-08)
(0.00106138 3.84788e-08 1.77065e-07)
(0.000793465 8.02881e-08 5.42602e-08)
(0.000794355 -2.09663e-07 5.66126e-08)
(0.00105926 2.11343e-07 1.2136e-07)
(0.000792058 -3.57771e-08 5.89508e-08)
(0.000792764 -1.43868e-08 3.03501e-08)
(0.00105709 4.44287e-09 1.77029e-07)
(0.000790662 -7.34035e-08 7.82917e-08)
(0.000791412 -5.12995e-08 6.67146e-08)
(0.00105519 -5.49466e-08 2.07576e-07)
(0.000789286 -9.53562e-08 5.98057e-08)
(0.000790023 -7.38224e-08 6.56233e-08)
(0.00105329 -1.05311e-07 1.75827e-07)
(0.000787841 -8.71661e-08 3.70663e-08)
(0.000788614 4.63752e-08 3.90436e-08)
(0.00105148 -1.34994e-07 1.70363e-07)
(0.000786467 -1.39822e-08 6.09081e-08)
(0.000787204 9.56505e-08 4.65747e-08)
(0.00104952 -9.7157e-08 1.73195e-07)
(0.00078584 1.40642e-07 8.13095e-08)
(0.00104784 3.47641e-08 1.77351e-07)
(0.000853527 6.47398e-06 -4.56206e-07)
(0.000653636 1.15606e-05 -3.74789e-06)
(0.000873839 1.5972e-05 -1.74954e-06)
(0.000826805 1.49893e-05 1.00612e-06)
(0.000960851 -3.46566e-08 2.12727e-06)
(0.0012599 1.50652e-06 2.05515e-06)
(0.00081239 1.0926e-05 3.96648e-06)
(0.000802267 4.69577e-05 -1.1572e-07)
(0.00106672 4.19893e-05 -7.43589e-07)
(0.000361229 6.0312e-05 -5.38291e-06)
(0.000856459 -1.61422e-05 5.41034e-06)
(0.00111945 1.18319e-06 8.63924e-06)
(0.000604968 6.33562e-05 1.13295e-05)
(0.000881759 0.000134086 4.58297e-06)
(0.000966996 1.17637e-05 6.99653e-06)
(0.000360989 3.10143e-05 -2.95972e-06)
(0.000383149 5.64359e-05 -6.07992e-06)
(0.000386127 0.000130226 3.83443e-07)
(0.000506188 0.000149193 -8.50185e-06)
(0.00020793 -3.10343e-06 -3.18356e-06)
(0.000276377 -7.49262e-05 -1.57126e-06)
(0.000601858 -3.09069e-05 5.82433e-05)
(0.000287959 -7.02122e-05 -1.29729e-06)
(0.000351779 -0.00026995 -2.28614e-05)
(0.000380853 -7.03314e-05 1.76594e-05)
(0.0004835 -3.12013e-05 5.8518e-07)
(0.000465226 -4.62001e-05 -1.73183e-06)
(0.000838518 -8.6044e-05 6.21564e-06)
(0.000360378 -9.87559e-05 2.04267e-05)
(0.000647582 -0.000111678 4.39851e-05)
(0.000587581 -0.000151702 4.91275e-05)
(0.000396524 -5.44677e-05 3.61003e-06)
(0.000711689 -0.0001173 9.16213e-06)
(0.000611983 -0.00011485 -1.81717e-06)
(0.000337305 -6.05459e-05 -1.44375e-06)
(0.000841817 -3.71057e-05 -1.05162e-06)
(0.000890821 -4.43985e-05 -1.79494e-06)
(0.00116304 -5.83251e-05 -1.39222e-06)
(0.000594275 -4.14606e-05 -4.49695e-06)
(0.000626393 -4.07266e-05 -4.84077e-06)
(0.00099312 -7.74253e-05 -4.55077e-06)
(0.00107125 -7.59966e-05 -5.30742e-06)
(0.000844643 -2.47431e-05 7.06718e-08)
(0.000843782 -3.13782e-05 -1.54853e-07)
(0.00111633 -4.07903e-05 1.02037e-07)
(0.000844577 -1.54908e-05 7.13491e-08)
(0.000851978 -1.91184e-05 3.78996e-08)
(0.00112814 -2.52603e-05 1.99082e-07)
(0.00084393 -9.82268e-06 4.50422e-08)
(0.000847715 -1.20645e-05 3.96563e-08)
(0.00112547 -1.60923e-05 1.83889e-07)
(0.000842764 -6.18131e-06 5.31789e-08)
(0.000845832 -7.49772e-06 5.7962e-08)
(0.00112464 -1.01189e-05 1.8785e-07)
(0.00084138 -3.89377e-06 5.19588e-08)
(0.000843585 -4.68697e-06 5.2433e-08)
(0.00112282 -6.37119e-06 1.86907e-07)
(0.000839855 -2.44958e-06 5.2521e-08)
(0.00084158 -2.91982e-06 5.30418e-08)
(0.00112089 -4.01254e-06 1.86917e-07)
(0.000838269 -1.54186e-06 5.08335e-08)
(0.00083967 -1.81786e-06 5.26756e-08)
(0.0011188 -2.52115e-06 1.86496e-07)
(0.000836629 -9.76386e-07 5.1663e-08)
(0.000837844 -1.11603e-06 5.09396e-08)
(0.00111665 -1.59468e-06 1.82542e-07)
(0.000835013 -6.02129e-07 6.45454e-08)
(0.000836094 -6.00544e-07 5.38987e-08)
(0.00111445 -1.01853e-06 2.09555e-07)
(0.000833641 -4.25925e-07 1.30721e-08)
(0.000834434 -9.60943e-07 5.812e-08)
(0.00111249 -6.15596e-07 2.56865e-07)
(0.000831848 -3.38218e-07 1.31793e-08)
(0.000832761 8.51415e-07 4.52239e-08)
(0.00111038 -5.35858e-07 9.48857e-08)
(0.000830311 -2.3366e-07 8.25455e-08)
(0.000831145 -2.53443e-07 6.64044e-08)
(0.00110814 -3.53231e-07 1.96422e-07)
(0.000828736 -1.64305e-07 6.85966e-08)
(0.00082958 -1.76785e-07 6.00884e-08)
(0.00110605 -2.49842e-07 2.17581e-07)
(0.000827266 -8.38249e-08 1.00574e-09)
(0.000828007 -1.63454e-07 4.85174e-08)
(0.00110399 -1.64448e-07 1.83991e-07)
(0.000825521 -1.52335e-08 -1.36563e-08)
(0.000826412 -2.57011e-08 -8.75024e-09)
(0.00110189 -2.91104e-08 1.85217e-07)
(0.000823939 -5.58514e-08 3.53869e-08)
(0.00082471 -5.75112e-08 3.12043e-08)
(0.00109966 1.85906e-08 1.79331e-07)
(0.000822407 -1.14934e-07 5.89783e-08)
(0.00082312 2.10367e-08 5.86524e-08)
(0.0010976 -1.1957e-07 1.84421e-07)
(0.000820743 -9.89149e-08 4.79082e-08)
(0.000821591 7.38015e-08 6.76344e-08)
(0.0010955 -1.06624e-07 1.7896e-07)
(0.00081916 -8.50916e-08 4.0851e-08)
(0.000819993 -3.8802e-08 3.74699e-08)
(0.00109331 -8.25222e-08 1.68513e-07)
(0.000817604 -1.23709e-07 9.88243e-08)
(0.000818411 3.156e-08 4.02193e-08)
(0.00109121 -8.3627e-08 1.83632e-07)
(0.0008162 -1.37354e-07 8.94754e-08)
(0.000816912 -2.86263e-07 9.35542e-08)
(0.00108925 -1.74863e-07 1.98109e-07)
(0.000814664 -2.04608e-07 2.50062e-08)
(0.000815423 -4.78775e-07 -5.55383e-08)
(0.0010873 -1.19562e-07 1.74168e-07)
(0.000813109 -3.1027e-07 1.78437e-08)
(0.000813917 1.47302e-07 4.54304e-08)
(0.00108517 -3.38007e-07 1.64729e-07)
(0.000811464 -2.25508e-07 4.652e-08)
(0.000812339 -5.46032e-07 4.30503e-08)
(0.00108309 -3.52906e-07 2.05834e-07)
(0.000809958 -9.15375e-08 5.44918e-08)
(0.000810719 -6.57057e-08 6.34001e-08)
(0.00108105 -1.4728e-07 1.47221e-07)
(0.000808512 -5.72683e-08 1.91304e-08)
(0.000809204 -1.9294e-08 4.34036e-08)
(0.00107903 -5.657e-08 1.49871e-07)
(0.000807123 -4.3775e-08 2.70836e-08)
(0.000807741 -5.69911e-08 2.6372e-08)
(0.00107713 -6.37071e-08 1.78204e-07)
(0.000805405 -4.28752e-08 6.83237e-08)
(0.000806241 9.77223e-08 5.35385e-08)
(0.00107505 -3.19442e-08 1.84784e-07)
(0.000804019 -4.89417e-08 6.72296e-08)
(0.000804729 -1.62713e-07 6.66193e-08)
(0.00107299 -6.85944e-08 1.76884e-07)
(0.000802509 -2.38272e-08 4.85704e-08)
(0.000803258 -1.96811e-09 4.88634e-08)
(0.00107105 -4.97206e-08 1.78083e-07)
(0.000800924 -9.93401e-11 5.08068e-08)
(0.000801733 2.61368e-08 5.34063e-08)
(0.00106899 -7.37218e-09 1.79208e-07)
(0.000799395 -1.62652e-09 4.56657e-08)
(0.000800185 4.77137e-08 4.48123e-08)
(0.00106695 1.49284e-08 1.77614e-07)
(0.000797928 -7.74529e-11 4.63062e-08)
(0.000798697 5.89043e-08 3.89957e-08)
(0.00106496 -6.11507e-09 1.78697e-07)
(0.000796546 1.61521e-08 5.56811e-08)
(0.000797277 -3.64136e-08 6.12733e-08)
(0.00106304 1.56116e-08 1.74361e-07)
(0.000795093 -4.7829e-08 5.34209e-08)
(0.000795838 -1.27385e-07 5.60243e-08)
(0.00106113 1.86425e-08 1.73819e-07)
(0.000793481 -5.67289e-08 3.27105e-08)
(0.000794344 -6.36577e-08 4.62342e-08)
(0.00105909 -1.42719e-07 1.79521e-07)
(0.00079207 2.30786e-08 3.81029e-08)
(0.000792864 -1.43293e-07 3.46191e-09)
(0.00105707 6.08498e-09 1.81441e-07)
(0.000790859 3.16584e-08 5.40466e-08)
(0.000791423 -2.97695e-07 5.83206e-08)
(0.00105531 3.50024e-08 1.72009e-07)
(0.000789321 -4.84932e-08 4.48692e-08)
(0.000789923 1.90382e-08 5.10658e-08)
(0.00105347 2.63266e-08 1.7721e-07)
(0.00078797 -8.4826e-08 4.85496e-08)
(0.000788569 -7.64366e-08 4.35673e-08)
(0.00105155 -1.45022e-07 1.75994e-07)
(0.000786628 -7.54111e-08 6.69655e-08)
(0.000787216 -1.51372e-08 5.46692e-08)
(0.00104973 -5.90498e-08 1.74522e-07)
(0.000785935 9.33636e-07 8.11152e-08)
(0.0010478 -1.13403e-07 1.58739e-07)
(0.000878648 5.59231e-06 -1.16637e-06)
(0.000648827 9.09263e-06 -3.9354e-06)
(0.000871279 2.00614e-05 -3.61281e-06)
(0.000866647 2.56396e-05 1.00618e-06)
(0.000983341 -4.32947e-06 1.76224e-06)
(0.0013004 3.33223e-06 1.36152e-06)
(0.000873805 1.15816e-05 1.3263e-06)
(0.000795956 3.38697e-05 3.54266e-07)
(0.001084 6.71441e-05 3.12852e-07)
(0.000661577 6.10951e-05 6.90753e-06)
(0.00092915 -3.88464e-05 3.30399e-06)
(0.00125897 -2.908e-05 2.37967e-06)
(0.000655401 -1.64126e-05 6.64477e-06)
(0.00110626 0.000151415 4.65814e-06)
(0.00103431 4.77981e-05 2.04309e-06)
(0.000515984 8.41507e-05 1.09739e-05)
(0.000553438 6.13221e-05 4.86272e-06)
(0.000527876 6.45642e-05 8.83007e-06)
(0.00088201 0.000174383 1.04262e-05)
(0.000275973 0.000315656 9.17061e-06)
(0.000432561 8.30377e-05 1.67945e-05)
(0.000223824 4.30654e-05 7.63733e-06)
(0.000339839 -0.000242973 1.01024e-05)
(0.000391351 0.000213422 5.51926e-05)
(0.000845341 -7.34785e-05 2.68044e-05)
(0.000407345 -1.92481e-05 1.48921e-05)
(0.000497624 -3.68867e-05 3.17962e-05)
(0.00063714 -3.45552e-05 4.8265e-05)
(0.000287192 -1.03012e-05 1.18751e-05)
(0.000860929 -4.22906e-05 -8.98716e-07)
(0.000939249 -5.08692e-05 -1.74165e-06)
(0.00121308 -6.91902e-05 -1.17961e-06)
(0.000631099 -4.45219e-05 -4.90273e-06)
(0.000628866 -5.15019e-05 -5.12638e-06)
(0.00105804 -8.09789e-05 -5.11079e-06)
(0.00104635 -9.78138e-05 -4.80387e-06)
(0.000858223 -2.58985e-05 -1.87689e-07)
(0.000864615 -2.88885e-05 -4.26099e-07)
(0.00113403 -4.37411e-05 1.05579e-07)
(0.000853739 -1.52577e-05 6.20627e-09)
(0.000865382 -1.60663e-05 4.83056e-08)
(0.00114387 -2.53753e-05 2.21562e-07)
(0.000849885 -9.21327e-06 5.25701e-08)
(0.000855332 -9.29164e-06 2.66652e-08)
(0.00113521 -1.53234e-05 1.86836e-07)
(0.000846556 -5.60221e-06 5.72178e-08)
(0.000850383 -5.44658e-06 5.57747e-08)
(0.001131 -9.24544e-06 1.90534e-07)
(0.000843771 -3.44142e-06 5.35157e-08)
(0.000846308 -3.27618e-06 6.17834e-08)
(0.00112682 -5.68979e-06 1.88139e-07)
(0.000841365 -2.1184e-06 5.31965e-08)
(0.000843247 -1.97025e-06 5.19559e-08)
(0.00112341 -3.48056e-06 1.87497e-07)
(0.000839238 -1.2976e-06 5.27823e-08)
(0.000840705 -1.21074e-06 4.67473e-08)
(0.0011204 -2.16609e-06 1.87052e-07)
(0.000837274 -7.69419e-07 5.31744e-08)
(0.000838509 -7.02866e-07 5.29472e-08)
(0.00111768 -1.3008e-06 1.86522e-07)
(0.000835521 -4.28665e-07 4.7472e-08)
(0.000836523 -4.55602e-07 5.22826e-08)
(0.00111521 -7.64415e-07 1.87061e-07)
(0.000833543 -2.51796e-07 9.02759e-08)
(0.000834657 -2.80097e-07 4.48597e-08)
(0.00111276 -3.96396e-07 1.69788e-07)
(0.000832011 -1.62658e-07 9.84422e-08)
(0.000832874 -2.96914e-07 1.14886e-07)
(0.00111041 -2.87703e-07 2.57936e-07)
(0.000830436 -1.13789e-07 4.39492e-08)
(0.000831207 -3.4494e-07 3.77811e-08)
(0.00110833 -1.54452e-07 1.88798e-07)
(0.00082884 -1.1885e-07 4.00129e-08)
(0.000829574 -3.74238e-08 4.05463e-08)
(0.00110622 -1.56185e-07 1.74738e-07)
(0.000827189 -1.64739e-07 3.87797e-08)
(0.00082795 -4.84706e-08 6.01304e-08)
(0.00110408 -1.41107e-07 1.81464e-07)
(0.000825621 -2.13568e-07 3.60977e-08)
(0.000826351 -3.2673e-08 5.62149e-08)
(0.00110193 -2.3793e-07 1.8289e-07)
(0.000823804 -1.97518e-07 5.44612e-08)
(0.000824731 3.91857e-07 3.77866e-08)
(0.00109964 -2.48044e-07 1.72947e-07)
(0.000822347 -1.84982e-07 6.73057e-08)
(0.000823136 -9.22002e-08 5.38305e-08)
(0.00109747 -1.82492e-07 1.80947e-07)
(0.000820841 -1.77395e-07 5.72057e-08)
(0.0008216 -1.2979e-08 5.98743e-08)
(0.00109548 -2.02536e-07 1.83691e-07)
(0.000819231 -1.47139e-07 3.68374e-08)
(0.000820031 1.55592e-09 4.04867e-08)
(0.00109342 -1.62017e-07 1.83889e-07)
(0.000817672 -9.88531e-08 3.49324e-08)
(0.000818472 4.09071e-07 4.06118e-08)
(0.00109132 -1.23779e-07 1.56041e-07)
(0.000816173 -8.61954e-08 -5.14125e-08)
(0.000816928 -4.40707e-07 4.87032e-08)
(0.00108927 -3.3037e-08 1.88237e-07)
(0.000814636 -1.33758e-07 -3.51458e-08)
(0.000815363 -2.24804e-07 -5.96101e-08)
(0.00108723 -9.08923e-08 1.63014e-07)
(0.000813223 -2.28239e-07 7.06377e-08)
(0.000813799 -2.39727e-07 7.30543e-08)
(0.00108535 -1.67272e-07 1.97474e-07)
(0.000811563 -2.28608e-07 5.99241e-08)
(0.000812339 -4.45218e-07 5.94126e-08)
(0.00108322 -3.1936e-07 1.85037e-07)
(0.000809929 -1.08075e-07 5.23182e-08)
(0.00081087 1.95132e-08 7.38122e-08)
(0.00108096 -1.66633e-07 1.8392e-07)
(0.000808403 -4.0912e-08 5.06506e-08)
(0.000809288 -4.64238e-08 5.14683e-08)
(0.00107894 -5.40893e-08 1.82598e-07)
(0.000806921 -5.06052e-08 5.28185e-08)
(0.000807729 -1.02641e-07 5.01746e-08)
(0.00107692 -3.11735e-08 1.80117e-07)
(0.000805512 -4.62442e-08 5.18301e-08)
(0.000806246 -7.37033e-08 5.40565e-08)
(0.001075 -8.69621e-08 1.82681e-07)
(0.000803989 -4.8067e-08 4.82587e-08)
(0.000804727 -1.00332e-07 9.62217e-08)
(0.00107303 -7.00345e-09 1.7639e-07)
(0.000802513 -7.24851e-08 5.3698e-08)
(0.000803227 -2.27205e-08 4.95568e-08)
(0.00107104 -9.01123e-08 1.7838e-07)
(0.00080098 -7.05495e-08 4.74145e-08)
(0.000801736 9.27261e-08 5.08151e-08)
(0.00106905 -6.511e-08 1.77225e-07)
(0.000799439 -3.73845e-08 3.81442e-08)
(0.000800226 1.36848e-07 3.50287e-08)
(0.001067 -8.06529e-08 1.76639e-07)
(0.000798028 3.44983e-08 5.3956e-08)
(0.000798787 -1.82043e-08 4.55455e-08)
(0.00106503 -4.49298e-10 1.77035e-07)
(0.000796607 8.33584e-08 6.16181e-08)
(0.000797338 -9.15295e-08 7.33367e-08)
(0.00106313 6.89939e-08 1.76398e-07)
(0.000795094 1.01289e-07 4.88406e-08)
(0.00079586 -7.80265e-08 4.80509e-08)
(0.00106118 1.02403e-07 1.77445e-07)
(0.000793698 1.31197e-07 1.69987e-08)
(0.000794381 -9.1992e-08 -1.3324e-09)
(0.00105924 1.15437e-07 1.72678e-07)
(0.000792212 1.72614e-07 2.36628e-08)
(0.000792915 -2.06674e-08 2.08158e-08)
(0.00105731 1.8605e-07 1.69898e-07)
(0.000790541 1.24281e-07 5.53419e-08)
(0.000791362 -1.51533e-08 5.36276e-08)
(0.00105522 2.29031e-07 1.75381e-07)
(0.000789022 5.6494e-08 4.97662e-08)
(0.000789838 1.03312e-07 3.94152e-08)
(0.00105306 9.18277e-08 1.76065e-07)
(0.000787954 4.22189e-08 4.96835e-08)
(0.000788551 -2.77036e-07 1.54149e-07)
(0.00105137 8.75543e-08 1.55849e-07)
(0.000786363 -1.42517e-08 6.88109e-08)
(0.000787146 1.6741e-07 5.02676e-08)
(0.00104955 4.76794e-08 1.7582e-07)
(0.000785951 -6.47357e-08 8.32083e-08)
(0.00104806 -6.93962e-08 1.9866e-07)
(0.000868529 1.92393e-07 -1.00868e-06)
(0.000646306 7.80425e-06 -3.84414e-06)
(0.000862305 7.69749e-06 -2.84814e-06)
(0.000854167 8.73672e-06 1.11079e-06)
(0.00099312 -3.22215e-07 1.2898e-06)
(0.00131265 -3.85965e-06 1.00764e-06)
(0.00084518 -6.91975e-06 2.33098e-06)
(0.000791244 1.47213e-05 -1.15618e-07)
(0.00104669 3.20541e-05 2.0684e-06)
(0.000429107 6.04209e-05 1.6371e-06)
(0.00100053 4.43427e-06 2.79613e-06)
(0.00129843 -3.90733e-05 6.18436e-06)
(0.000688529 0.000109411 9.90056e-06)
(0.000687605 0.000112199 -9.55319e-07)
(0.00114622 0.000175997 9.07658e-06)
(0.000388957 4.63971e-05 4.55969e-06)
(0.00031126 7.84828e-05 2.26702e-06)
(0.000400854 0.000192587 6.68542e-06)
(0.000380594 0.000147369 7.50389e-08)
(0.000226714 0.000270761 4.38399e-06)
(0.000135385 0.00019293 9.33298e-06)
(0.000104212 0.000129303 -1.16495e-06)
(0.000184949 0.000285353 1.73556e-05)
(0.000394692 0.000440106 1.65333e-06)
(0.00185327 0.000211283 0.000131862)
(0.000381998 -0.000150946 6.37319e-05)
(0.000402307 -6.83975e-05 6.92341e-05)
(0.000509667 -0.000111495 0.000115494)
(0.000417419 -8.16823e-05 4.43846e-05)
(0.000902037 -2.52961e-05 -1.26947e-06)
(0.000970747 -4.36176e-07 -2.01284e-06)
(0.0012925 -4.40747e-05 -1.43369e-06)
(0.00067432 -4.77649e-05 -5.34668e-06)
(0.000702105 -3.10321e-05 -5.60676e-06)
(0.00113134 -9.69674e-05 -4.15764e-06)
(0.00119099 -5.65288e-05 -5.48202e-06)
(0.000879167 -1.34593e-05 -1.9026e-07)
(0.000879235 -6.79917e-07 -5.15589e-07)
(0.00117205 -2.32181e-05 7.40027e-08)
(0.000864692 -7.37849e-06 6.87715e-08)
(0.000873034 -3.17807e-08 1.2557e-07)
(0.00116394 -1.25337e-05 1.89099e-07)
(0.000855817 -4.18643e-06 2.98602e-08)
(0.00085935 -1.91669e-07 1.16475e-08)
(0.0011458 -7.05476e-06 1.83244e-07)
(0.000849777 -2.41032e-06 6.03383e-08)
(0.000852619 1.94596e-08 4.87685e-08)
(0.00113678 -4.05922e-06 1.88858e-07)
(0.000845682 -1.41071e-06 6.02268e-08)
(0.000847567 -2.22358e-07 4.90009e-08)
(0.00113009 -2.33519e-06 1.87847e-07)
(0.000842457 -8.4266e-07 4.55084e-08)
(0.000843963 1.89876e-08 5.0027e-08)
(0.00112533 -1.40637e-06 1.86517e-07)
(0.000839961 -5.16199e-07 4.69102e-08)
(0.000841116 2.1494e-07 4.9149e-08)
(0.00112155 -8.23925e-07 1.62501e-07)
(0.000837675 -3.30585e-07 5.20557e-08)
(0.000838743 1.10981e-07 6.33722e-08)
(0.00111841 -5.31217e-07 1.86737e-07)
(0.000835703 -2.34174e-07 4.96727e-08)
(0.000836645 3.51138e-09 5.14363e-08)
(0.00111559 -3.27436e-07 1.84328e-07)
(0.0008339 -1.35554e-07 6.94475e-08)
(0.000834781 3.86181e-08 2.87779e-08)
(0.00111309 -2.75436e-07 1.79636e-07)
(0.000832071 -3.10298e-08 5.42499e-08)
(0.000833005 1.39773e-07 7.66509e-08)
(0.00111069 -8.15398e-08 1.74035e-07)
(0.000830339 -4.52961e-09 3.43773e-08)
(0.000831241 -9.16407e-08 -2.29418e-08)
(0.00110831 -2.78698e-08 1.78482e-07)
(0.00082869 -1.8258e-08 6.06576e-08)
(0.000829557 4.59712e-08 4.92233e-08)
(0.00110607 -9.01886e-09 1.83284e-07)
(0.000827081 -4.88571e-08 7.75669e-08)
(0.000827912 -3.89172e-08 7.98374e-08)
(0.00110389 -5.08577e-08 1.85119e-07)
(0.00082551 -1.00463e-07 5.79097e-08)
(0.000826286 -3.03644e-08 6.91293e-08)
(0.00110176 -9.53825e-08 1.8251e-07)
(0.000823994 -9.31538e-08 3.71509e-08)
(0.00082474 1.6111e-07 7.7924e-09)
(0.00109973 -1.82098e-07 1.94117e-07)
(0.000822406 -6.96002e-08 4.63972e-08)
(0.000823166 -8.70949e-08 3.19471e-08)
(0.00109765 -7.2005e-08 1.84174e-07)
(0.000820808 -9.74984e-08 4.31615e-08)
(0.000821565 5.79525e-08 4.89541e-08)
(0.00109552 -1.0461e-07 1.80601e-07)
(0.000819255 -1.11407e-07 4.42611e-08)
(0.000820014 5.62086e-08 4.85734e-08)
(0.00109341 -1.13905e-07 1.77956e-07)
(0.000817704 -1.08547e-07 5.438e-08)
(0.000818475 5.68749e-08 6.04342e-08)
(0.00109137 -1.33497e-07 2.06612e-07)
(0.000816132 -5.46525e-08 4.05397e-08)
(0.000816996 -6.53322e-08 5.54058e-08)
(0.00108929 -1.13413e-07 1.57411e-07)
(0.00081456 1.57539e-08 4.85484e-08)
(0.000815451 -1.11844e-07 9.41022e-09)
(0.00108713 -8.50727e-09 1.75962e-07)
(0.000812772 1.00422e-08 6.18335e-08)
(0.000813792 8.18277e-08 5.15371e-08)
(0.00108489 4.83399e-08 1.80595e-07)
(0.000811762 -5.52915e-08 7.32962e-08)
(0.000812257 -1.06903e-06 5.67002e-08)