/*--------------------------------*- C++ -*----------------------------------*\
| =========                 |                                                 |
| \\      /  F ield         | OpenFOAM: The Open Source CFD Toolbox           |
|  \\    /   O peration     | Version:  5.0                                   |
|   \\  /    A nd           | Web:      www.OpenFOAM.org                      |
|    \\/     M anipulation  |                                                 |
\*---------------------------------------------------------------------------*/
FoamFile
{
    version     2.0;
    format      ascii;
    class       surfaceScalarField;
    location    "2.1";
    object      alphaPhi10;
}
// * * * * * * * * * * * * * * * * * * * * * * * * * * * * * * * * * * * * * //

dimensions      [0 3 -1 0 0 0 0];

internalField   nonuniform List<scalar> 
27415
(
1.26624e-08
9.40661e-09
-2.48997e-08
-3.34953e-10
2.33409e-08
2.32837e-08
-1.98114e-07
3.5447e-08
2.87673e-07
-9.17638e-08
-2.14505e-08
1.81319e-08
1.15531e-08
-9.92473e-08
-3.4628e-09
3.19969e-08
1.14919e-07
2.51032e-08
1.65004e-08
1.23625e-08
1.24339e-08
1.32152e-08
-7.23431e-09
1.0912e-10
2.87784e-08
-6.13026e-09
5.10043e-10
-1.15075e-09
8.09283e-09
-8.69598e-16
4.15468e-21
1.10222e-16
1.05952e-17
-2.17813e-16
5.92648e-15
-4.98723e-15
4.57559e-23
-2.87803e-21
1.68956e-22
-3.57449e-21
-1.16547e-20
5.93274e-21
-2.02228e-21
-8.64782e-27
-3.46268e-25
4.42536e-27
4.71834e-27
-2.74209e-27
-6.77382e-30
9.15631e-30
-1.16327e-29
-9.91175e-32
2.88015e-34
-6.32002e-33
-1.44085e-33
5.25955e-38
-8.19806e-37
1.8822e-36
2.15767e-41
-1.79423e-40
1.80457e-39
9.1882e-45
-4.51976e-44
2.95611e-43
3.91353e-48
-1.20768e-47
1.37692e-45
1.65757e-51
-3.02579e-51
1.95047e-49
7.03267e-55
-7.68232e-55
-2.98267e-52
2.96658e-58
-2.11492e-58
-2.07834e-55
1.24958e-61
-5.10428e-62
2.65329e-59
5.33106e-65
-1.36146e-65
5.20709e-63
2.22622e-68
-3.08857e-69
5.0576e-65
9.12248e-72
-8.02818e-73
1.38995e-68
3.79031e-75
-5.07265e-76
3.83067e-73
1.87318e-78
5.75929e-80
-2.19924e-74
1.34669e-81
1.72472e-83
-3.8249e-77
3.9658e-85
4.58457e-86
-1.62615e-80
1.49793e-88
-9.95498e-91
-5.6429e-85
6.70037e-92
3.63459e-93
3.26179e-87
3.77235e-95
-1.15889e-96
1.23866e-90
3.31924e-98
9.91086e-99
-1.4021e-93
1.08534e-101
2.26022e-102
-1.05099e-96
1.94576e-104
-9.83203e-106
3.08809e-99
4.38074e-107
-1.33779e-107
1.42824e-102
6.10983e-111
7.94444e-112
2.55439e-107
3.74623e-114
5.86194e-115
4.53623e-110
4.32382e-117
1.70989e-119
-3.06302e-113
8.11147e-120
3.03877e-121
-7.65318e-116
7.22212e-124
-1.62332e-124
7.91774e-121
3.21466e-127
-6.54224e-128
1.02437e-126
3.95154e-130
5.16033e-132
-2.22159e-126
4.11934e-133
-4.92797e-135
-2.24297e-129
6.53347e-136
9.03712e-137
2.89234e-132
1.92015e-138
6.01293e-139
-2.1847e-134
2.22135e-142
-2.4403e-143
-2.05179e-138
2.00845e-145
4.31592e-146
-8.27667e-141
3.89761e-149
8.15086e-150
-2.49078e-144
4.59184e-152
-1.42132e-154
8.9387e-150
4.25633e-153
1.17113e-155
-1.24876e-150
7.79808e-158
-6.47516e-158
2.63669e-08
8.58315e-08
3.72598e-08
-6.18357e-08
-1.4558e-07
-1.01708e-07
-8.52799e-08
5.60029e-09
7.35199e-09
-1.76371e-07
-2.98757e-08
1.00449e-07
-7.43497e-08
-1.01777e-09
-3.3194e-08
-9.53687e-09
6.49113e-08
-1.0295e-08
2.13663e-08
-8.14697e-09
4.77636e-08
4.98986e-08
6.3477e-08
6.54004e-08
5.55397e-09
5.62129e-09
7.93616e-09
-1.84556e-08
1.7882e-08
5.93533e-09
-7.73343e-10
-2.21805e-08
1.52637e-08
1.567e-08
-2.96594e-08
-2.02693e-08
3.72954e-08
3.07967e-08
3.62729e-08
-7.62891e-08
-1.36758e-08
-1.77777e-09
-2.5426e-09
-2.6649e-09
4.80872e-10
5.05813e-09
2.39497e-14
2.8722e-15
1.78158e-08
2.87581e-15
1.78158e-08
8.66822e-22
-1.3769e-18
-2.50487e-22
-3.13475e-19
7.09336e-20
1.58133e-19
2.1028e-18
-1.35034e-18
-1.67816e-18
-1.35095e-18
-2.21078e-26
-1.55253e-22
2.29056e-27
6.45276e-28
-3.93206e-26
-2.37712e-29
1.1608e-30
-1.50425e-29
-1.06277e-31
2.51729e-34
-9.59199e-32
1.42523e-35
2.5808e-38
-2.20511e-34
5.83601e-38
9.24443e-42
-1.4223e-38
5.44848e-41
3.98627e-45
-3.2666e-42
1.69085e-44
1.73636e-48
-6.77542e-46
6.81684e-47
7.51175e-52
-2.24476e-49
-2.64629e-52
3.23645e-55
-9.75552e-53
6.64427e-53
1.38787e-58
9.87889e-58
-1.12781e-56
5.90444e-62
-2.98738e-60
-1.42764e-59
2.50711e-65
-6.05315e-64
9.47033e-64
1.06935e-68
-1.82029e-67
7.57696e-66
4.64114e-72
-2.39218e-70
-1.12478e-68
1.96866e-75
-2.87729e-74
1.90989e-72
8.23958e-79
-4.48806e-78
3.23191e-76
3.53935e-82
-1.14684e-82
8.87463e-79
1.46556e-85
-9.46403e-85
-1.30784e-83
6.19317e-89
-3.04972e-88
1.22502e-85
2.81156e-92
1.03205e-92
-7.69347e-88
1.2328e-95
-7.05451e-96
-1.51856e-91
7.07619e-99
4.45145e-100
-8.74256e-95
6.62218e-102
3.25724e-103
-1.69383e-97
1.5919e-105
-2.43687e-104
2.94759e-101
7.27617e-109
-8.48275e-107
6.49815e-103
5.22351e-112
1.70133e-112
1.61033e-107
4.81059e-115
-1.22664e-115
1.94726e-110
1.75109e-118
-1.05199e-118
3.87e-114
3.51842e-121
4.53927e-123
-9.04425e-121
4.54113e-123
-4.08008e-125
-1.70161e-120
3.36657e-127
-7.30745e-128
4.46087e-123
1.10797e-130
2.3457e-131
1.92146e-126
7.56798e-134
-3.01693e-135
1.73766e-129
1.62854e-137
-4.39712e-138
7.91157e-136
6.8e-141
-2.62095e-142
4.21279e-139
6.44732e-144
8.32535e-145
3.19488e-138
6.98574e-147
-1.99712e-148
-2.03844e-141
2.57126e-150
-2.28689e-151
-8.63609e-145
-1.08303e-153
-1.06518e-153
-5.10502e-149
1.09292e-153
9.25426e-157
-6.58176e-152
1.20106e-157
-2.2997e-154
-4.27764e-09
-1.53215e-08
2.96661e-08
2.52516e-09
1.83719e-08
6.07062e-08
4.82846e-08
-5.0166e-08
-3.93982e-08
-3.50044e-08
-3.45089e-08
2.70133e-08
2.5827e-08
-8.11444e-09
-1.12342e-09
5.67572e-09
5.11138e-09
1.94448e-08
1.49597e-08
-2.9534e-08
-2.63744e-08
1.6108e-08
-1.16483e-09
-3.0367e-08
-3.51171e-08
-3.37018e-08
-1.91816e-08
-2.43724e-08
-1.13328e-08
-2.19491e-09
-1.81317e-07
-3.62942e-08
-1.12994e-10
2.51937e-09
2.79381e-09
7.13025e-09
-9.76078e-09
-1.16719e-10
-1.32415e-13
1.43771e-09
2.04389e-11
1.43504e-09
4.29466e-19
-1.35025e-18
-5.74826e-09
-1.4696e-18
3.25332e-24
-8.81503e-22
-1.81167e-23
7.40454e-20
7.40625e-20
7.37536e-20
7.397e-20
2.14753e-27
-1.64731e-25
-1.12802e-26
-5.18428e-29
-8.09556e-29
-2.70706e-30
8.47124e-32
-1.65239e-31
-1.58268e-33
3.27107e-35
-1.15253e-34
1.4935e-36
2.45899e-39
-5.14371e-38
1.43747e-41
8.53258e-43
-7.41405e-42
-7.14316e-44
3.66259e-46
-1.9312e-45
-1.01182e-46
1.57266e-49
-5.54057e-49
4.19249e-50
6.71253e-53
-1.66528e-52
-2.56267e-52
2.84702e-56
-2.68572e-56
6.24945e-55
1.20105e-59
-1.41994e-59
-6.25204e-59
5.04409e-63
-2.93079e-63
-7.72806e-62
2.10918e-66
-1.01334e-66
6.3679e-66
8.77668e-70
-2.26708e-70
-7.33982e-68
3.63852e-73
-3.68679e-74
1.31304e-71
1.50223e-76
-2.87704e-78
3.69871e-75
6.19375e-80
-7.4133e-81
-8.10339e-78
2.53603e-83
1.05197e-84
-8.42179e-81
1.0356e-86
-1.59528e-87
-1.17857e-86
4.32575e-90
-1.59768e-90
2.31122e-87
1.79558e-93
-5.42014e-94
-1.12886e-90
7.10877e-97
-3.44178e-97
4.46816e-96
3.81027e-100
-1.41238e-99
-3.99881e-99
5.41097e-103
5.5884e-104
-1.97118e-99
1.62268e-106
1.42066e-107
-5.40468e-102
5.20186e-110
-1.68334e-110
-3.4503e-107
1.95369e-113
-1.79014e-113
1.10227e-109
7.42342e-117
-4.15462e-118
-5.59162e-113
5.88644e-120
2.13467e-121
-1.17249e-116
1.61048e-122
8.83506e-124
-6.82107e-119
3.66807e-126
7.43827e-125
1.1458e-122
1.18672e-129
7.03801e-130
-1.46456e-126
1.14899e-132
-1.18509e-132
-1.55633e-128
7.17091e-136
-1.00364e-134
-1.45243e-131
1.72343e-139
-5.69692e-138
1.08973e-135
1.14027e-142
7.56213e-143
5.27514e-137
8.77766e-146
6.43257e-145
6.40599e-141
3.02003e-148
3.70187e-149
-1.7745e-144
7.16225e-152
2.04641e-152
-1.96054e-147
2.14552e-153
5.65709e-157
1.00179e-150
-1.38391e-157
1.10434e-154
1.76317e-08
2.46611e-08
3.22929e-08
2.59766e-08
2.69535e-08
4.34883e-08
3.80624e-08
-4.95626e-08
3.14665e-09
3.4613e-08
-4.14361e-09
3.41165e-08
-6.20142e-12
1.7219e-08
1.3526e-08
1.5478e-08
1.26748e-08
-1.24739e-09
1.15071e-08
2.19883e-08
-1.07356e-08
-8.06189e-08
-7.04091e-08
-1.46461e-07
1.56412e-07
1.9333e-10
-3.09825e-09
-1.07643e-09
-1.95726e-08
-1.18723e-07
-5.85723e-08
1.66528e-07
-3.31908e-08
2.31476e-09
-1.55529e-08
3.05799e-09
-1.3221e-09
1.21218e-08
-9.48241e-11
-1.43038e-11
6.1844e-11
-2.14149e-11
1.69209e-10
9.19886e-17
5.02973e-19
-1.96558e-08
-1.45617e-18
1.06294e-16
7.88918e-17
9.75879e-17
6.53945e-19
3.58902e-25
1.60504e-22
-3.52498e-22
2.70007e-19
2.66647e-19
2.64507e-19
2.74351e-19
4.2239e-26
1.08461e-25
1.13238e-26
2.24936e-28
5.81635e-28
4.70915e-30
5.06544e-32
-1.58655e-30
1.93665e-32
2.63848e-35
-2.50287e-34
-5.45055e-36
6.09054e-39
-1.83989e-38
5.67962e-39
2.03106e-42
-7.59637e-42
1.83463e-42
8.9639e-46
-1.82101e-45
-1.82412e-45
4.02495e-49
-4.29851e-49
4.21811e-48
1.78951e-52
-1.7276e-52
-1.43735e-50
7.87145e-56
-1.25116e-56
-2.61541e-54
3.43374e-59
-4.06079e-59
6.74824e-58
1.48761e-62
-8.1231e-63
-6.49598e-61
6.42744e-66
-1.47295e-66
7.74332e-64
2.7752e-69
2.3474e-70
-1.29278e-66
1.18624e-72
1.8878e-73
8.89724e-70
5.0589e-76
9.37192e-77
1.83972e-73
2.13007e-79
-1.80349e-79
-1.10152e-75
9.39453e-83
-1.08904e-83
4.72354e-80
4.58934e-86
3.15169e-87
-1.23077e-82
1.74348e-89
-3.21838e-89
-3.36206e-86
8.29213e-93
1.64809e-93
3.20089e-90
7.44508e-96
5.06224e-97
-2.59572e-92
4.91477e-99
-2.53055e-100
-4.74098e-95
1.40071e-102
-8.87048e-102
-3.08074e-97
7.08359e-106
1.70589e-107
-7.3459e-102
6.77629e-109
8.6268e-110
-4.12054e-105
1.65063e-112
-4.43484e-114
-8.41007e-108
8.71509e-116
-5.06342e-116
1.60729e-111
1.90968e-118
-2.08008e-119
1.11546e-114
5.88114e-121
1.22955e-121
-3.6975e-117
1.21814e-124
1.07058e-124
1.41146e-120
5.57341e-128
1.23543e-129
1.61842e-124
8.97047e-131
-2.31825e-131
1.08361e-126
1.71014e-134
-6.12589e-136
4.09873e-134
1.78389e-137
-3.74464e-139
-1.09615e-133
1.36602e-140
5.04716e-142
-1.63691e-136
4.85199e-144
-6.06709e-146
1.50902e-139
1.81421e-147
4.27933e-147
-2.53368e-142
8.55008e-151
3.40218e-151
8.79477e-147
2.5136e-153
-1.26061e-153
-6.85147e-150
-1.98499e-156
-4.79594e-153
1.52311e-08
3.75019e-08
9.49309e-09
3.29652e-08
-1.52978e-07
-1.32842e-07
3.2481e-07
-7.99783e-08
2.88746e-09
3.54216e-07
-3.03537e-08
-3.84838e-10
-8.78993e-08
-2.58621e-09
-2.81138e-08
-2.58167e-08
-6.65769e-08
4.15102e-08
6.85481e-08
-1.2739e-07
-1.48391e-09
-6.98691e-09
-3.26723e-09
1.32408e-09
1.61711e-08
5.76807e-09
-2.73924e-08
1.45775e-09
-7.85088e-08
-1.98605e-08
1.33624e-08
7.00839e-08
-5.06214e-08
-1.45085e-09
-1.61525e-08
1.50432e-09
-7.68796e-09
2.25578e-08
-2.4621e-09
1.72116e-10
-2.74144e-10
-1.07387e-10
1.28818e-10
8.03951e-16
-7.65484e-19
-2.17123e-08
9.63666e-18
1.0881e-15
6.1177e-16
-2.07779e-17
4.81851e-18
-1.42525e-24
8.20136e-21
7.85456e-22
5.88377e-18
5.88156e-18
5.8971e-18
5.88237e-18
3.16804e-25
1.33772e-24
-8.89525e-26
2.01356e-27
2.87099e-27
7.26035e-30
5.35327e-31
2.89349e-30
-9.19677e-32
4.59664e-35
6.0102e-34
1.05654e-33
1.59395e-38
1.51352e-37
-8.61699e-39
6.59831e-42
3.62076e-41
-8.44546e-41
2.87188e-45
1.04608e-44
-1.61241e-43
1.25201e-48
2.26559e-48
-1.1472e-47
5.43018e-52
7.13592e-52
-4.07651e-50
2.34129e-55
1.71875e-55
-1.26876e-53
1.00476e-58
-5.11675e-59
-2.48759e-56
4.30537e-62
2.0309e-62
-1.68213e-60
1.83937e-65
1.64005e-67
1.42072e-62
7.76364e-69
1.32302e-69
-4.79511e-66
3.30265e-72
4.72947e-74
1.18149e-69
1.42405e-75
1.34113e-76
-4.25718e-73
6.24422e-79
6.02587e-80
-8.39512e-75
2.58678e-82
-7.8253e-84
7.11134e-79
1.32559e-85
-2.13416e-86
1.19564e-81
8.33582e-89
3.42353e-90
-5.27833e-85
3.30736e-92
3.38452e-93
8.98284e-89
1.91749e-95
5.74744e-96
-7.48202e-92
1.01196e-98
2.06733e-99
-3.56245e-96
2.29765e-101
-8.20006e-104
-2.35678e-96
2.29087e-105
-4.65486e-106
-1.66946e-101
8.46565e-109
6.60458e-110
2.17896e-104
8.75316e-112
1.57089e-113
2.69042e-107
2.05999e-114
5.22446e-115
-6.02247e-110
2.49186e-118
-1.58989e-118
-4.10943e-113
9.26336e-122
1.56975e-123
5.14461e-120
9.13424e-125
8.11472e-126
2.02942e-119
1.48382e-128
-3.68808e-128
-1.92292e-124
3.80868e-132
-7.44041e-130
1.90857e-129
2.70626e-135
-2.88422e-133
-6.27576e-133
8.19111e-138
2.48746e-137
1.472e-132
2.26263e-140
2.8425e-140
8.61763e-136
2.24558e-143
-3.26337e-144
1.66108e-139
1.09052e-145
1.5191e-146
4.71748e-143
2.6909e-149
1.56164e-149
-4.54044e-145
2.16086e-152
7.63176e-153
-4.45905e-148
3.85752e-157
-5.75712e-151
-1.16586e-08
-2.52572e-08
-4.52843e-07
2.81823e-08
8.7018e-09
1.87515e-09
-3.01264e-08
-3.79092e-09
-6.95674e-09
-9.56166e-09
-3.44764e-07
-3.58556e-07
-3.62733e-07
5.14636e-08
-2.13647e-08
-1.99365e-08
-2.16842e-08
1.31554e-08
2.11896e-08
1.49269e-08
1.9708e-08
1.64375e-08
5.77179e-08
6.91896e-08
2.66635e-08
-1.59836e-09
5.49799e-08
8.09248e-08
5.34571e-08
-9.00832e-08
-3.73736e-07
-4.80248e-09
-8.98003e-08
3.74738e-08
6.38038e-09
-2.65352e-08
3.07336e-08
4.07307e-10
2.86039e-09
1.15859e-08
3.22647e-09
3.70634e-09
-2.15837e-08
-1.24946e-09
1.94162e-10
-3.65806e-11
-8.68313e-11
2.18582e-10
-8.65421e-16
3.6467e-17
-1.82663e-08
4.10997e-17
4.23962e-17
2.06733e-15
-5.70755e-15
3.8579e-15
-9.65775e-24
-6.57255e-22
-5.05553e-22
5.72013e-18
5.72002e-18
5.71788e-18
5.73037e-18
1.86987e-25
-5.59401e-26
5.84064e-26
1.64817e-27
2.44688e-27
1.35578e-29
4.64072e-31
3.71583e-30
-3.45447e-30
3.56659e-35
9.85143e-34
5.48174e-33
1.20563e-38
2.3342e-37
-7.92212e-38
5.02729e-42
4.78028e-41
-1.92948e-40
2.20242e-45
1.22525e-44
-3.78838e-44
9.68257e-49
3.15645e-48
-5.28011e-48
4.23823e-52
1.08007e-51
-1.00407e-49
1.84537e-55
2.02753e-55
-1.5341e-52
8.02004e-59
4.97691e-59
5.5856e-56
3.43081e-62
8.936e-63
-9.31954e-59
1.45873e-65
3.51099e-66
1.7723e-62
6.27612e-69
1.25929e-69
-3.49505e-65
2.69658e-72
3.15759e-73
1.63499e-68
1.51422e-75
1.37202e-76
-4.17357e-72
1.74453e-78
1.14425e-79
-6.97213e-75
2.90782e-82
-6.92381e-84
2.02561e-78
1.51994e-85
4.24416e-88
-1.62842e-81
1.67621e-88
1.26468e-89
-5.34519e-85
2.13826e-91
5.91127e-92
-9.65662e-88
1.75818e-94
1.39906e-94
-3.77646e-90
2.42315e-98
-1.16315e-99
2.51998e-94
9.66455e-102
2.73596e-103
-1.48602e-97
6.23434e-105
2.89535e-107
-9.04872e-100
4.82046e-108
4.84057e-109
-1.47695e-104
1.32952e-111
-1.46692e-112
6.64625e-107
1.12216e-114
3.83537e-116
2.02736e-110
1.21849e-117
9.22398e-119
-1.29337e-112
1.85637e-121
-9.0377e-123
-1.67476e-120
2.60419e-124
-1.88127e-126
-3.40664e-120
2.40082e-126
2.92919e-129
-1.07674e-123
2.76885e-129
-5.14666e-131
-3.04603e-125
4.03282e-133
-2.31865e-136
-9.08638e-129
1.0993e-136
-1.81999e-138
3.85487e-132
4.82546e-140
-2.06584e-141
8.43537e-135
2.91097e-143
-1.26031e-145
-4.92798e-139
1.03928e-146
1.02415e-147
-5.89482e-144
2.92499e-150
5.46722e-152
2.31114e-147
-4.44562e-153
1.05967e-154
4.92881e-148
2.56578e-157
1.16719e-154
2.51804e-08
-1.8769e-08
1.39296e-07
1.83135e-08
1.27579e-08
5.85721e-09
6.01379e-09
-4.01248e-08
-1.75468e-07
-1.94575e-08
-4.03402e-08
-2.08828e-08
1.94206e-08
-1.77651e-08
2.14511e-08
-2.25888e-08
-2.4425e-08
2.23121e-08
3.99343e-09
-4.90033e-09
4.90087e-08
-5.00402e-08
2.16368e-08
3.20316e-08
2.39995e-08
3.53387e-08
-8.92463e-09
4.12861e-10
2.17225e-09
-8.10778e-09
-2.58939e-09
2.16038e-08
3.2521e-09
1.2312e-09
2.76862e-09
1.7184e-08
-1.38386e-09
-5.92335e-10
-1.73453e-08
-6.13597e-10
-2.37841e-10
3.92474e-10
-1.80351e-10
2.93394e-10
-2.30058e-16
-1.19842e-17
-3.4828e-08
-3.4828e-08
-3.08394e-18
-3.01649e-16
-1.00192e-15
-2.65636e-16
4.42491e-25
1.47748e-21
9.58977e-23
2.5312e-19
2.5286e-19
2.68382e-19
2.4664e-19
7.31043e-26
2.01547e-25
-5.5176e-27
9.202e-29
1.05445e-28
6.58156e-31
4.3688e-32
4.50253e-31
-2.91416e-32
2.8726e-35
6.242e-34
-1.08119e-35
7.04613e-39
1.49512e-37
-2.17175e-39
2.26217e-42
2.11618e-41
-4.73143e-42
9.92045e-46
4.96039e-45
-5.06496e-46
4.4516e-49
1.32122e-48
1.54496e-48
1.98145e-52
3.47002e-52
6.39372e-51
8.74035e-56
4.40591e-56
3.9327e-54
3.82699e-59
2.1774e-59
-2.68301e-57
1.66305e-62
5.4712e-63
-2.6034e-60
7.169e-66
1.42107e-66
2.46899e-64
3.07582e-69
5.77196e-70
-3.6248e-67
1.3195e-72
1.16525e-73
1.39368e-70
5.64943e-76
9.10844e-77
-1.13291e-74
2.35593e-79
-1.59348e-81
2.35999e-78
9.94955e-83
-6.5783e-84
-2.19078e-80
4.94418e-86
-8.50885e-87
6.80665e-85
3.16632e-89
2.33353e-89
-3.44728e-85
8.901e-93
3.68134e-94
2.20627e-94
3.78707e-96
-2.7817e-97
9.05396e-96
1.77784e-99
-5.47389e-101
3.07843e-97
6.97468e-103
-2.49862e-104
5.63458e-101
3.44371e-106
4.94053e-108
7.22962e-102
1.73469e-109
-2.19201e-111
-3.23984e-105
1.22386e-112
6.952e-116
5.29929e-110
7.87103e-116
-6.37831e-118
-1.40835e-111
1.67986e-118
6.05993e-121
-2.6861e-114
8.96268e-122
3.21547e-123
-5.78338e-118
7.74245e-125
-1.33151e-127
-8.86691e-121
1.54306e-128
-5.27689e-132
-2.27596e-124
8.438e-132
5.24781e-134
1.48627e-126
2.84909e-135
9.59899e-137
1.70856e-130
2.55508e-138
1.84151e-140
1.21837e-136
8.20897e-141
5.39797e-143
-5.80491e-137
3.25342e-144
9.82163e-148
-5.74122e-140
1.35007e-146
-1.25413e-148
-7.93309e-143
1.12611e-150
-1.26358e-153
2.24525e-150
2.3161e-153
5.91541e-155
5.14325e-151
1.03945e-156
-2.22694e-152
1.80975e-09
4.35073e-08
-1.11251e-07
-6.03323e-09
2.45831e-09
9.76061e-09
-1.09694e-07
-2.30833e-07
-6.82362e-08
2.01334e-08
2.26901e-08
1.77154e-08
1.44821e-08
-2.00896e-09
-1.68497e-09
-4.32598e-08
1.45184e-07
3.78652e-08
1.59889e-07
-3.92907e-07
-5.579e-07
-3.01682e-07
-3.34208e-07
4.28238e-08
5.33959e-08
4.92912e-08
4.5646e-08
4.73707e-08
4.21063e-08
4.80629e-08
3.34073e-08
-7.27785e-09
1.34493e-08
3.0193e-09
1.28671e-08
-3.27389e-08
-2.72695e-08
-1.98454e-07
3.5843e-08
-3.04131e-08
-2.98072e-08
-2.86661e-08
5.68193e-08
4.09706e-08
4.36634e-08
5.18239e-08
3.4136e-08
3.97283e-08
3.46236e-08
3.04051e-09
1.145e-08
1.63428e-09
-1.175e-10
-1.70484e-08
-9.67381e-11
-2.97746e-10
1.63885e-09
2.33762e-11
1.47738e-09
4.72798e-16
4.03454e-18
4.58199e-09
4.58199e-09
4.32766e-18
4.72858e-16
4.73906e-16
4.72651e-16
3.74069e-24
6.31151e-23
-4.79543e-23
2.60057e-21
2.71869e-21
2.67219e-21
2.72673e-21
-2.32072e-28
-3.31552e-27
-2.81609e-27
7.83183e-29
4.74666e-30
4.84486e-31
1.36718e-31
2.28511e-32
-9.44586e-35
3.23035e-35
1.62684e-34
-8.44886e-37
2.34452e-39
9.04477e-39
-1.08079e-40
8.05845e-43
2.4062e-42
-8.98045e-44
3.47606e-46
5.75411e-46
-6.18425e-48
1.50314e-49
1.16774e-49
-2.13301e-50
6.46359e-53
2.28093e-53
1.20389e-52
2.76235e-56
2.78813e-57
2.82763e-55
1.17341e-59
5.6589e-60
-1.57031e-58
4.95865e-63
5.99309e-64
1.04899e-62
2.08601e-66
2.84255e-67
-1.61676e-65
8.72658e-70
7.31813e-71
3.99296e-69
3.63317e-73
-2.47188e-76
1.72171e-72
1.50816e-76
1.57577e-78
-1.60655e-74
6.2526e-80
4.86265e-81
-4.22159e-78
2.5916e-83
3.08824e-85
-3.19779e-81
1.05304e-86
6.92371e-88
-4.36907e-84
4.37896e-90
1.17867e-91
9.24736e-91
1.85428e-93
-1.5004e-96
-1.98303e-91
7.51673e-97
-1.57326e-98
7.29012e-96
3.48899e-100
1.5069e-101
-5.76936e-97
1.42613e-103
-1.68324e-106
-1.20377e-99
5.73156e-107
7.05858e-109
8.03479e-103
3.01419e-110
2.61339e-112
3.56062e-107
2.06754e-113
3.88416e-115
-6.93431e-109
6.43296e-117
-5.97935e-119
3.18924e-114
6.2467e-120
1.05337e-122
1.37687e-115
2.28469e-123
1.93103e-125
-2.42003e-119
5.46122e-127
8.11293e-129
1.16716e-124
4.54912e-130
7.49047e-133
3.59783e-127
9.62703e-133
7.72445e-135
1.01931e-128
3.80713e-136
9.84653e-138
-5.47479e-133
1.92606e-139
7.17185e-142
-2.9523e-135
4.61888e-143
4.71734e-145
-1.60282e-138
1.79909e-146
5.72275e-148
-3.79894e-143
1.72295e-149
-5.7636e-151
-9.62044e-147
1.15616e-153
-4.48037e-153
4.67011e-150
2.27321e-153
-4.87681e-156
4.3516e-153
-2.37573e-159
-1.31935e-153
1.36239e-09
3.74753e-08
2.46147e-08
1.60558e-08
-2.41527e-08
2.05002e-08
-3.28903e-08
2.97943e-08
2.59882e-08
3.98126e-09
2.89546e-08
5.31364e-08
3.34366e-08
9.39378e-09
-2.32838e-08
-2.26901e-08
1.68616e-08
6.06907e-09
4.80016e-08
3.55753e-08
9.71761e-09
-2.38747e-08
5.09003e-08
5.26364e-08
5.18522e-08
5.29016e-08
-8.53853e-09
-1.24861e-08
-3.45427e-09
1.38613e-09
2.26587e-08
1.26832e-11
-1.05821e-11
-2.46866e-08
2.26866e-11
-2.46878e-08
9.28862e-22
-1.10163e-20
-1.46158e-21
1.8969e-19
3.43369e-20
-1.33377e-18
3.9316e-19
-9.90176e-19
-9.59823e-19
-1.36144e-18
-9.60338e-19
-1.79435e-26
-3.54035e-24
3.00312e-25
9.24307e-28
1.03018e-27
5.28672e-29
2.07051e-30
2.35279e-30
2.4346e-31
1.64306e-34
-1.08935e-33
1.04854e-34
2.0692e-38
-1.05643e-37
-4.50929e-39
7.36443e-42
-2.68711e-41
1.58669e-41
3.21541e-45
-1.0219e-44
-6.24056e-45
1.42385e-48
5.74623e-48
2.3272e-47
6.27207e-52
-9.89877e-52
-2.01469e-50
2.74593e-55
-3.59743e-55
-1.25376e-53
1.19504e-58
1.53421e-58
2.65628e-56
5.15957e-62
3.36176e-62
2.00581e-60
2.21443e-65
6.90929e-66
-1.71865e-63
9.46605e-69
1.81714e-69
-1.73621e-66
4.02241e-72
1.63695e-72
-1.966e-69
1.7896e-75
2.46215e-76
2.1005e-73
8.51379e-79
-5.8174e-80
-1.05342e-75
3.19376e-82
1.57303e-82
-1.83307e-79
1.3255e-85
1.62537e-86
1.83456e-82
5.54231e-89
-9.71308e-90
-8.17901e-86
2.30443e-92
-2.29388e-92
1.20441e-88
2.21972e-95
-6.35465e-96
-1.15665e-92
1.1487e-97
3.87564e-100
-2.74487e-94
9.12491e-102
-1.37528e-102
6.91067e-99
2.5158e-105
-1.46316e-104
-6.08501e-101
1.31591e-108
-1.43422e-108
-1.42129e-105
1.43138e-111
-3.09674e-112
-9.2094e-108
4.88448e-115
-5.21097e-115
-4.09044e-110
2.31815e-118
-9.60647e-117
-3.77034e-113
7.21015e-122
9.11889e-123
-1.22774e-117
5.33285e-125
5.03451e-124
1.1923e-123
1.63129e-127
1.32342e-128
-8.86448e-124
2.32721e-130
7.92092e-133
-9.85904e-127
2.20865e-133
5.30615e-134
-2.22115e-129
3.61248e-137
1.94607e-137
-8.8453e-133
1.11534e-140
-7.18083e-142
-9.74292e-139
4.2445e-144
-1.31308e-143
1.21259e-141
5.39918e-147
-1.23731e-147
-4.98631e-144
2.49009e-149
-1.49633e-151
2.68898e-146
1.63243e-152
-6.75641e-153
-1.32018e-148
3.20792e-153
-2.57278e-156
-1.79012e-151
-1.67852e-157
3.08489e-156
7.42674e-08
9.22105e-09
3.22089e-08
4.57878e-08
-8.70661e-09
-2.68547e-08
-1.2339e-08
-1.85571e-08
1.86044e-08
3.85132e-08
-1.84093e-08
3.85305e-08
-8.04611e-08
-8.58951e-09
-2.28918e-08
-1.2928e-08
-2.67724e-08
-1.23481e-08
-2.17141e-09
-1.11243e-08
-1.57606e-08
-1.34441e-08
1.65938e-07
1.88288e-07
7.53331e-08
7.83544e-08
7.96677e-08
5.18357e-08
1.23074e-08
2.33138e-08
4.55354e-08
-3.6355e-08
2.86747e-08
-3.51578e-08
-7.9179e-08
1.20178e-08
-1.063e-07
8.75924e-09
4.56206e-08
-7.84183e-08
-7.88924e-08
-7.68814e-08
4.48193e-10
-1.2949e-09
3.55491e-09
8.01499e-10
-5.98043e-09
-1.53495e-13
4.12164e-15
7.34321e-18
-2.51997e-15
-4.01068e-15
-1.10556e-13
1.10611e-13
-5.63275e-13
1.57992e-14
-3.23889e-16
-3.22584e-16
-1.9681e-23
5.47133e-22
-1.5155e-19
-2.08446e-20
1.01468e-19
5.59251e-20
-6.19265e-26
-1.24213e-26
5.28015e-27
1.9644e-29
2.86172e-29
3.07612e-31
2.12343e-33
-2.03787e-34
1.81666e-37
1.44092e-36
6.86813e-41
1.63337e-39
2.90391e-44
2.31175e-43
1.22984e-47
-1.81313e-46
5.18792e-51
1.55336e-50
2.18351e-54
-1.36114e-52
9.18672e-58
-1.46029e-55
3.85431e-61
4.69221e-59
1.60002e-64
-1.07281e-61
6.62821e-68
-2.18082e-65
2.7331e-71
-3.43421e-69
1.12731e-74
-6.5411e-74
4.64268e-78
2.11855e-75
1.90406e-81
-4.43598e-78
7.90309e-85
-3.00441e-81
4.66461e-88
-1.36678e-84
6.97843e-91
-3.786e-87
9.85703e-95
3.03279e-91
6.19503e-98
-4.14673e-94
1.00736e-100
-5.92314e-97
4.17157e-104
-1.72843e-99
1.40603e-107
-8.35629e-103
4.97269e-111
-2.99837e-107
6.99204e-114
4.72804e-109
1.17819e-116
-3.64825e-112
3.02529e-120
3.73836e-116
6.83628e-123
-7.68479e-119
6.19212e-127
-9.12208e-128
2.12713e-130
2.72152e-126
1.9504e-133
1.26281e-132
9.15667e-136
-1.06337e-131
1.07599e-139
4.02595e-135
1.40801e-142
-3.84365e-138
7.45361e-146
-6.56821e-142
2.72007e-149
1.02087e-146
1.90783e-152
-4.96239e-148
3.56313e-153
4.71682e-151
3.44348e-154
2.2119e-07
-6.05534e-09
3.14472e-09
2.64073e-09
2.89996e-09
1.56206e-08
4.30929e-09
1.29989e-08
2.8667e-07
2.02172e-08
5.22008e-08
2.75767e-07
-5.43661e-09
1.92446e-07
1.00894e-08
9.86558e-08
-6.48559e-08
-2.3592e-08
1.02847e-07
9.7563e-08
-1.23537e-08
1.08827e-07
-1.62957e-07
-1.7844e-08
8.10476e-09
-1.81583e-07
-6.72805e-10
-2.29359e-08
-2.41378e-09
6.44035e-10
-1.52408e-09
2.46713e-08
2.34117e-14
-1.70657e-16
-5.38391e-19
1.4601e-15
-5.563e-19
-2.50768e-14
2.53501e-14
-2.31188e-14
4.10634e-23
-7.02627e-21
-1.50184e-22
-2.43788e-20
1.32136e-20
-2.98567e-21
2.33711e-20
1.55692e-25
-2.99306e-24
-3.03567e-27
1.54362e-26
-1.25731e-26
-6.51099e-30
3.57315e-28
-2.8948e-28
-2.34469e-31
2.80465e-31
-7.75466e-31
-2.91231e-34
2.32066e-35
-1.89989e-34
-2.18417e-36
1.04262e-38
-4.1415e-38
-1.53426e-39
7.96393e-42
-1.86034e-41
1.99226e-43
5.73716e-45
-4.90561e-45
1.25604e-46
4.05265e-48
-3.35533e-48
3.33773e-50
2.85291e-51
-9.17288e-52
1.74008e-52
2.00059e-54
-8.52098e-55
4.28719e-57
1.39848e-57
-4.23918e-60
3.73832e-59
9.73875e-61
-2.37329e-61
1.96251e-61
6.75198e-64
-6.74177e-65
1.82242e-65
4.66641e-67
1.3219e-68
-3.1563e-68
3.21376e-70
-4.72032e-72
-2.04599e-72
2.20539e-73
-3.27053e-75
1.18405e-74
1.50941e-76
2.27412e-78
5.10153e-77
1.02999e-79
-3.10166e-81
-1.26258e-80
7.005e-83
-4.69898e-85
1.05084e-84
4.74741e-86
-7.72531e-88
2.85632e-87
3.20809e-89
-2.6929e-91
7.15039e-92
2.16092e-92
9.60497e-93
1.17279e-93
1.45197e-95
4.51579e-96
1.07922e-96
9.7369e-99
-2.19325e-99
-1.36453e-99
6.51683e-102
4.24649e-103
-5.97785e-103
4.35056e-105
4.58442e-106
5.13927e-106
2.89391e-108
5.92847e-110
-5.89467e-110
1.9189e-111
2.51068e-112
-5.43493e-112
1.27027e-114
-1.56105e-116
2.21776e-116
8.39578e-118
5.47686e-119
-1.18033e-123
5.53607e-121
-7.47113e-123
5.10699e-122
3.64249e-124
2.86411e-125
4.71316e-126
2.39086e-127
-1.39094e-129
1.06132e-129
1.56671e-130
1.35192e-131
-1.17165e-132
1.0239e-133
4.11083e-134
-4.15528e-140
6.67534e-137
-1.25823e-138
4.09137e-139
4.34375e-140
-7.09509e-142
5.21035e-141
2.82281e-143
2.44724e-145
2.62012e-144
1.83023e-146
-3.61441e-148
4.66921e-148
1.16665e-149
-2.55905e-152
6.66533e-151
1.247e-153
1.67127e-153
6.8914e-09
-5.3694e-08
2.90877e-08
4.94458e-08
3.5319e-08
9.42538e-09
2.53363e-08
2.08221e-08
3.76655e-07
-4.22104e-09
-5.89351e-09
-1.16178e-08
-1.63037e-08
-4.12872e-09
4.5823e-07
5.12234e-08
9.95525e-09
-4.38795e-07
5.14089e-08
1.58046e-08
-6.18628e-09
-2.20088e-07
-2.17488e-07
-1.98919e-08
-2.1732e-07
-3.01633e-07
-1.65184e-09
1.82402e-08
-1.70598e-08
-2.44027e-07
1.58837e-08
1.37679e-08
2.29781e-09
6.44035e-09
8.1406e-10
2.36414e-09
-2.54935e-08
1.3351e-13
-3.63199e-15
8.76755e-15
6.64361e-15
1.49905e-14
3.60974e-15
7.98218e-21
-5.95973e-18
3.03027e-22
-1.32668e-18
7.67192e-18
-2.02907e-18
7.51895e-18
-5.29581e-18
-5.9205e-18
-5.2959e-18
6.68191e-25
-5.15218e-22
7.33126e-26
-6.9331e-28
-7.06512e-25
1.89703e-29
2.71175e-29
-4.74637e-28
1.3985e-31
8.48426e-33
-1.61851e-31
1.13696e-34
1.38999e-36
-4.90405e-35
2.12405e-37
9.0726e-40
-1.95695e-38
1.80635e-41
6.84109e-43
-8.27445e-42
9.45001e-45
4.98409e-46
-3.39201e-45
-5.77004e-47
3.58316e-49
-1.55916e-48
-1.05738e-50
2.563e-52
-5.84326e-52
5.70294e-53
1.82613e-55
-3.02314e-55
-6.61257e-56
1.29657e-58
-1.39648e-58
1.08621e-59
9.16837e-62
-8.46173e-62
6.97403e-63
6.45593e-65
-1.99663e-65
5.69613e-66
4.53455e-68
-9.29208e-69
9.31067e-69
3.17399e-71
-3.69181e-72
7.76986e-73
2.21267e-74
-9.24272e-76
5.93558e-76
1.53784e-77
-4.04523e-79
5.51217e-79
1.06516e-80
-5.40536e-82
1.97038e-81
7.3551e-84
-5.57831e-85
3.47337e-86
5.06347e-87
1.53996e-87
3.67747e-88
3.4759e-90
-8.18907e-92
4.22355e-91
2.38157e-93
2.49482e-94
9.05582e-95
1.62844e-96
1.32143e-97
1.15306e-97
1.11045e-99
-3.30249e-100
3.67076e-100
7.55062e-103
-2.73828e-103
1.62666e-103
5.12089e-106
1.90716e-106
-4.35095e-108
3.46422e-109
-4.38659e-111
5.40655e-111
2.33852e-112
-9.70796e-115
-1.7282e-114
1.57561e-115
-8.94856e-117
1.96065e-117
1.05815e-118
-2.08649e-119
2.67526e-119
7.08706e-122
3.91642e-123
9.6303e-124
4.74035e-125
5.01387e-126
-9.38028e-127
3.16256e-128
4.69354e-130
-2.60566e-130
2.10651e-131
-3.31415e-133
-3.4225e-135
1.40241e-134
-7.74841e-136
2.5191e-135
9.3059e-138
5.21918e-138
-2.31894e-138
6.15828e-141
-1.16828e-143
9.5371e-142
4.07119e-144
3.50474e-146
1.1751e-144
2.68516e-147
2.03599e-148
3.3147e-149
1.7858e-150
1.68658e-151
2.24393e-152
1.10973e-154
2.68675e-157
6.9262e-09
-2.66149e-07
-2.18681e-07
1.979e-08
7.0291e-08
-2.20556e-09
-9.0032e-09
3.0156e-09
2.34613e-08
-5.14845e-08
5.41228e-07
1.93746e-09
-4.82824e-09
-1.24941e-08
-1.00165e-08
-5.92908e-09
-1.40355e-09
-1.12661e-09
3.43949e-09
-6.31287e-09
1.08932e-08
1.75395e-08
1.84165e-07
-9.90231e-08
6.6654e-08
5.45729e-08
-2.79527e-08
-1.87152e-08
-1.58294e-07
-2.00544e-07
-1.06624e-08
-3.42781e-08
-6.73746e-08
3.28205e-08
-3.29628e-08
-1.61202e-08
-2.48469e-08
-2.68083e-08
1.4228e-08
2.04705e-07
1.85567e-08
5.1557e-08
-1.6542e-10
-1.79447e-08
5.94539e-09
6.93398e-09
-4.64408e-08
-6.12023e-11
-2.01986e-11
-6.44914e-12
1.99292e-12
9.28822e-12
2.18929e-13
4.11342e-18
-5.50194e-18
6.17244e-19
-5.30062e-18
6.79351e-19
4.23058e-23
-5.23169e-21
1.29971e-22
-5.43792e-20
-5.43138e-20
-5.44189e-20
-5.44864e-20
6.72651e-26
-2.34376e-24
1.0977e-26
3.09545e-29
-1.17669e-27
1.93658e-30
1.32722e-32
-1.391e-30
1.95876e-33
7.00336e-36
-4.65124e-34
-2.74295e-36
4.57079e-39
-1.82919e-37
2.37165e-40
3.57195e-42
-7.76605e-41
1.79339e-44
2.76223e-45
-3.52896e-44
-3.43974e-47
2.08706e-48
-1.65751e-47
-2.51835e-50
1.56122e-51
-4.95091e-51
4.53027e-53
1.15944e-54
-2.14339e-54
4.85634e-56
8.56122e-58
-1.76916e-57
2.76396e-59
6.28151e-61
-7.87866e-61
1.34813e-61
4.5821e-64
-4.03152e-64
1.3247e-65
3.32551e-67
-2.2719e-67
1.46869e-67
2.40013e-70
-3.32934e-71
-3.54619e-72
1.72297e-73
2.11308e-74
4.03237e-74
1.23218e-76
-5.70395e-77
7.10883e-78
8.77169e-80
-9.80896e-81
5.79182e-81
6.21359e-83
3.65887e-83
1.63203e-86
4.39122e-86
8.57844e-87
-3.02201e-88
3.09253e-89
-2.25399e-89
9.67526e-90
2.16894e-92
4.43164e-93
2.19667e-95
1.51795e-95
-1.63341e-96
5.96637e-99
1.05735e-98
2.35649e-99
5.10644e-100
7.32893e-102
-3.33991e-103
6.55576e-103
5.071e-105
3.93343e-106
2.33045e-107
3.49896e-108
-9.21255e-109
6.40757e-109
2.4055e-111
-2.08942e-112
1.02012e-112
1.6498e-114
8.41709e-116
-1.66845e-117
1.12785e-117
8.42249e-119
1.02802e-119
7.68179e-121
1.36705e-121
-2.52993e-122
5.21916e-124
6.48763e-125
4.55784e-125
3.53759e-127
1.87376e-128
4.16636e-129
2.39448e-130
-3.22124e-130
1.59236e-133
1.61782e-133
-9.88467e-134
4.65427e-136
1.08951e-136
6.40351e-137
3.87721e-138
7.31477e-140
2.26068e-140
-4.45366e-141
4.89912e-143
1.2286e-143
1.23436e-143
3.27183e-146
5.4884e-147
1.311e-147
2.13361e-149
1.12764e-150
-1.69439e-150
-9.19483e-153
-2.89993e-154
6.28807e-09
-2.84406e-07
-3.98542e-08
-3.28321e-07
-3.25163e-07
-3.22973e-07
-3.2495e-07
-3.03903e-07
-3.10486e-07
-3.12261e-07
-3.07302e-07
-4.07166e-07