/*--------------------------------*- C++ -*----------------------------------*\
| =========                 |                                                 |
| \\      /  F ield         | OpenFOAM: The Open Source CFD Toolbox           |
|  \\    /   O peration     | Version:  5.0                                   |
|   \\  /    A nd           | Web:      www.OpenFOAM.org                      |
|    \\/     M anipulation  |                                                 |
\*---------------------------------------------------------------------------*/
FoamFile
{
    version     2.0;
    format      ascii;
    class       volScalarField;
    location    "2.1";
    object      alpha.water;
}
// * * * * * * * * * * * * * * * * * * * * * * * * * * * * * * * * * * * * * //

dimensions      [0 0 0 0 0 0 0];

internalField   nonuniform List<scalar> 
9186
(
0.994597
1.03737
1.03259
1.02812
0.968312
1
-2.12879e-18
-2.26548e-20
-1.53101e-23
8.94471e-18
2.4111e-19
1.45653e-22
5.17532e-27
1.18891e-30
4.71678e-34
2.03657e-37
8.0694e-41
3.47197e-44
1.50234e-47
5.72447e-51
3.00944e-54
1.34931e-57
4.34388e-61
1.60516e-64
8.30423e-68
2.1998e-70
7.33194e-74
7.14392e-78
8.30748e-81
3.14463e-84
7.96954e-87
1.58436e-90
2.83162e-93
9.68275e-96
1.84205e-99
1.26619e-102
6.25847e-106
1.9989e-108
1.56898e-112
1.41153e-116
5.48365e-119
1.08958e-121
8.14035e-125
3.45182e-127
4.28286e-131
6.43202e-134
8.77983e-138
7.55993e-142
2.12161e-143
2.49479e-145
1
1.00458
0.959594
1.04371
0.980359
0.993141
-7.31443e-19
-1.02985e-18
5.11531e-21
4.9816e-19
2.76933e-20
5.88497e-23
7.25268e-27
8.38565e-31
2.82101e-34
1.14718e-37
4.79804e-41
2.00896e-44
8.60722e-48
3.44588e-51
1.45491e-54
5.98799e-58
3.1724e-61
1.56898e-64
5.0325e-68
2.76403e-71
1.06468e-74
4.15215e-78
2.14263e-81
1.43893e-84
5.16097e-88
1.47455e-90
2.30486e-94
3.38555e-97
1.11174e-100
1.50412e-103
7.73758e-107
5.39807e-111
2.0818e-112
1.52126e-115
2.15564e-119
2.6669e-122
2.13023e-126
4.3385e-130
1.18332e-132
1.93928e-135
7.46829e-139
1.33928e-142
2.97081e-145
6.14786e-146
1.01878
0.950191
1.02862
1.03345
1.03343
1.007
0.259086
-3.60897e-18
4.04474e-15
5.01735e-17
5.4246e-20
1.77322e-21
5.60066e-24
7.11407e-28
5.88263e-32
2.07948e-35
8.50722e-39
3.49027e-42
1.43062e-45
5.84199e-49
2.38836e-52
9.71501e-56
3.96487e-59
1.60361e-62
6.55366e-66
2.69264e-69
1.09514e-72
4.28077e-76
1.83519e-79
1.06052e-82
3.00341e-86
1.14756e-89
6.593e-92
5.30725e-95
7.43501e-99
3.23343e-102
1.40436e-105
2.12975e-109
1.86636e-111
1.41377e-114
3.38603e-118
1.29525e-121
2.22614e-124
3.01702e-128
4.06267e-131
9.10218e-135
4.45486e-137
3.51166e-140
5.03e-144
2.64469e-145
0.974127
0.967647
1.01982
1.14111
1.00672
0.998946
1
-3.35186e-16
-3.2317e-18
4.88964e-17
2.42914e-18
5.5023e-21
6.14249e-24
2.20395e-27
2.70141e-31
8.32646e-35
3.41988e-38
1.45063e-41
6.04128e-45
2.51463e-48
1.05713e-51
4.37043e-55
2.01541e-58
8.36678e-62
3.60978e-65
1.48413e-68
5.48735e-72
5.97946e-75
1.60844e-78
4.5148e-82
1.04463e-84
1.39308e-87
3.45499e-91
5.24848e-95
1.4833e-97
3.13739e-101
1.09526e-104
1.842e-107
8.80926e-110
5.5393e-113
5.97951e-117
1.99477e-119
3.26128e-123
3.97522e-126
4.26527e-129
1.99189e-132
4.02936e-136
1.40687e-139
9.58082e-143
5.37708e-145
1.1165
0.988638
0.950869
1.01615
0.937142
0.998301
1.00054
-5.20124e-16
-7.32721e-18
2.35983e-16
1.92299e-17
7.4105e-20
1.41986e-23
2.34108e-27
5.62147e-31
2.0479e-34
8.39212e-38
3.54336e-41
1.4885e-44
6.27446e-48
2.60882e-51
1.22502e-54
4.57684e-58
2.10721e-61
8.98915e-65
5.77518e-68
1.70642e-71
1.0482e-74
1.81368e-77
4.88844e-81
5.36666e-84
4.35982e-88
3.05491e-90
4.67313e-94
4.96287e-98
5.12075e-101
3.47155e-103
8.5268e-107
5.24468e-111
2.42829e-113
1.9204e-117
3.39081e-121
1.27546e-124
7.01867e-127
5.10071e-129
1.63863e-132
1.34888e-134
7.57665e-138
8.68274e-141
1.34211e-144
1.0538
1.0224
1.0435
1.01855
1.00041
1.01075
1.00099
-6.22179e-16
-1.89147e-18
1.75471e-16
1.54673e-17
6.17842e-20
1.20226e-23
1.82521e-27
4.50206e-31
1.65533e-34
6.87499e-38
3.05371e-41
1.25739e-44
5.93566e-48
2.40576e-51
9.39977e-55
3.93692e-58
2.16467e-61
6.97135e-65
3.02332e-67
3.76223e-71
1.24487e-74
2.60107e-77
4.21623e-80
5.98017e-83
4.06529e-87
7.32572e-91
5.02783e-94
1.24522e-96
2.26864e-100
1.61326e-103
3.47861e-106
2.59644e-110
4.32884e-114
1.3735e-115
4.92119e-118
2.017e-121
2.28742e-125
5.62894e-129
7.77757e-132
6.30039e-136
1.65882e-139
1.32412e-142
2.90819e-145
1.03532
1.02098
1.01652
0.990381
1.03094
1.02533
1.00112
-3.1134e-15
-3.28116e-18
4.5646e-17
2.31122e-18
5.46556e-21
6.89348e-24
2.67531e-27
3.17094e-31
9.52784e-35
3.90553e-38
1.63918e-41
6.87463e-45
2.87572e-48
1.23822e-51
5.01909e-55
2.15172e-58
8.65773e-62
4.34271e-65
1.50708e-68
6.09107e-72
2.96254e-75
5.95866e-78
8.86848e-82
2.28406e-85
2.37996e-88
4.66293e-92
5.05683e-95
1.76337e-98
3.16227e-101
7.13321e-105
3.00757e-107
2.22506e-110
2.75267e-113
2.70836e-117
2.4562e-120
6.81681e-124
8.81405e-128
1.08329e-129
2.25214e-133
1.73272e-135
5.14024e-139
3.45109e-143
9.09633e-145
1.04563
1.02453
0.9888
1.09086
0.95733
0.993327
0.96375
-5.32023e-17
5.24262e-15
6.89911e-17
6.26702e-20
1.9807e-21
5.97062e-24
7.21883e-28
6.22115e-32
2.22374e-35
9.10777e-39
3.73876e-42
1.53236e-45
6.27988e-49
2.55847e-52
1.04679e-55
4.26039e-59
1.72108e-62
6.96908e-66
2.91007e-69
1.31172e-72
4.77008e-76
1.86319e-79
1.19757e-82
3.32524e-86
3.21287e-89
1.64093e-92
4.01652e-96
2.33155e-99
4.93901e-102
6.02396e-106
1.15511e-108
7.90096e-112
6.17724e-116
1.43896e-119
1.36928e-121
1.3947e-124
8.64566e-128
7.15808e-132
1.37934e-135
4.86798e-139
1.88206e-142
3.0392e-145
1.06992e-145
0.961711
1.01206
1.00451
1.02766
1.01762
1.01845
0.161065
-3.53408e-19
2.87121e-20
7.01042e-19
3.12586e-20
4.88653e-23
6.77604e-27
8.63193e-31
2.9086e-34
1.18751e-37
4.9601e-41
2.07394e-44
8.7202e-48
3.61804e-51
1.47966e-54
6.19832e-58
2.55471e-61
1.06662e-64
1.02224e-67
2.24323e-71
8.09967e-75
3.50235e-78
1.42756e-81
5.64305e-85
8.70666e-87
3.87785e-90
3.35156e-94
6.42713e-98
2.43494e-100
1.21043e-103
6.91077e-107
7.63808e-111
1.86084e-114
1.76581e-116
4.0581e-119
6.46556e-122
1.38278e-125
1.06537e-129
3.01462e-133
1.85644e-136
2.41306e-138
3.68076e-141
4.92738e-144
1.71785e-145
1.09914
1.02857
0.999999
0.919722
1
1.02005
-3.93751e-18
7.13202e-18
-2.0195e-31
7.70196e-18
3.92222e-19
6.56104e-22
3.16699e-26
3.73592e-30
1.43913e-33
5.95858e-37
2.39675e-40
9.77484e-44
4.00329e-47
1.80671e-50
6.88069e-54
2.73255e-57
1.07257e-60
4.31054e-64
1.94675e-67
7.25361e-71
3.54314e-74
1.7221e-77
1.03568e-79
1.92498e-83
4.66784e-87
1.75828e-89
1.40676e-92
5.42436e-96
3.42815e-100
8.38728e-103
2.68226e-105
2.93885e-109
1.3037e-111
1.63108e-115
2.62722e-119
3.859e-123
7.96418e-125
2.33606e-128
3.58625e-131
3.12467e-134
5.38774e-138
7.02233e-141
1.06913e-144
1.65125e-145
0.988884
1.05649
0.97169
1.0139
0.958889
0.999618
5.07855e-09
6.55076e-15
1.84004e-17
1.33521e-17
1.41911e-18
1.23416e-20
5.04214e-24
4.32345e-28
2.25462e-31
1.64414e-34
1.13897e-37
7.79961e-41
5.33442e-44
3.6412e-47
2.48297e-50
1.68991e-53
1.14748e-56
7.78206e-60
5.2672e-63
3.557e-66
2.3997e-69
1.61575e-72
1.08528e-75
7.27767e-79
4.869e-82
3.25013e-85
2.16737e-88
1.4427e-91
9.59137e-95
6.36549e-98
4.21316e-101
2.78158e-104
1.83419e-107
1.20819e-110
7.94286e-114
5.21327e-117
3.41506e-120
2.23214e-123
1.45705e-126
9.48593e-130
6.16514e-133
4.00335e-136
2.59387e-139
1.00053e-142
0.920933
0.981946
0.964712
1.06778
1.02307
0.994306
2.71096e-07
1.44282e-14
2.80251e-17
8.64024e-18
3.58978e-19
9.51355e-22
1.85786e-25
3.74851e-29
2.38654e-32
1.73165e-35
1.22685e-38
8.58388e-42
5.99908e-45
4.18327e-48
2.9148e-51
2.02559e-54
1.40524e-57
9.739e-61
6.73226e-64
4.64363e-67
3.19787e-70
2.19745e-73
1.50616e-76
1.03068e-79
7.05151e-83
4.80531e-86
3.26812e-89
2.22094e-92
1.5064e-95
1.01929e-98
6.88514e-102
4.63704e-105
3.11978e-108
2.09308e-111
1.40123e-114
9.36318e-118
6.24673e-121
4.16305e-124
2.76645e-127
1.83572e-130
1.21514e-133
8.02987e-137
5.29482e-140
2.09746e-143
1.00889
0.996243
1.09524
1.02127
1.02745
1.00681
0.267827
1.02092e-11
2.91434e-14
8.93415e-16
1.31262e-18
1.2124e-21
7.86616e-25
3.17773e-28
1.98622e-31
1.46712e-34
1.07643e-37
7.7775e-41
5.58732e-44
4.00138e-47
2.85716e-50
2.03423e-53
1.44293e-56
1.02079e-59
7.19336e-63
5.05401e-66
3.54266e-69
2.47478e-72
1.72382e-75
1.19995e-78
8.32378e-82
5.76034e-85
3.97927e-88
2.73993e-91
1.87888e-94
1.28687e-97
8.79498e-101
5.99427e-104
4.07708e-107
2.76505e-110
1.86992e-113
1.26208e-116
8.51095e-120
5.7237e-123
3.84226e-126
2.57386e-129
1.71951e-132
1.14614e-135
7.6211e-139
3.00503e-142
1.10477
0.811731
1.07555
1.11006
1.00145
0.999799
1.00014
7.34987e-11
2.14376e-16
1.95627e-16
2.0563e-17
1.64769e-19
7.69668e-23
9.27195e-27
4.73707e-30
3.51409e-33
2.52598e-36
1.77977e-39
1.25198e-42
8.79996e-46
6.17747e-49
4.3279e-52
3.02398e-55
2.11162e-58
1.46991e-61
1.02124e-64
7.0868e-68
4.90677e-71
3.39306e-74
2.33991e-77
1.61018e-80
1.10571e-83
7.57351e-87
5.17877e-90
3.53466e-93
2.40812e-96
1.63717e-99
1.11044e-102
7.51495e-106
5.07498e-109
3.41933e-112
2.30399e-115
1.54713e-118
1.03615e-121
6.92069e-125
4.61768e-128
3.07374e-131
2.04221e-134
1.3536e-137
5.31302e-141
0.828172
0.983128
0.962499
1.04949
0.998041
1.00079
1.00136
9.17961e-10
1.7594e-15
1.49022e-15
2.24769e-16
2.85515e-18
1.73722e-21
1.39626e-25
6.28181e-29
4.63074e-32
3.2358e-35
2.22517e-38
1.52844e-41
1.04835e-44
7.18484e-48
4.91633e-51
3.35668e-54
2.28999e-57
1.55924e-60
1.05954e-63
7.19523e-67
4.87759e-70
3.29936e-73
2.22849e-76
1.50276e-79
1.01134e-82
6.80007e-86
4.56273e-89
3.05623e-92
2.0453e-95
1.3661e-98
9.10458e-102
6.06073e-105
4.02987e-108
2.67545e-111
1.77405e-114
1.17402e-117
7.75383e-121
5.11498e-124
3.36856e-127
2.21423e-130
1.4537e-133
9.52633e-137
3.70202e-140
1.03187
1.00825
1.0253
1.01587
0.997786
0.996864
1.00161
1.88964e-09
3.51241e-15
2.78584e-15
4.13778e-16
5.28621e-18
3.2911e-21
2.63129e-25
1.16179e-28
8.56141e-32
5.97367e-35
4.09949e-38
2.80975e-41
1.92238e-44
1.31328e-47
8.95571e-51
6.09531e-54
4.14264e-57
2.80978e-60
1.90158e-63
1.28657e-66
8.68756e-70
5.85325e-73
3.93819e-76
2.64245e-79
1.76945e-82
1.18438e-85
7.91447e-89
5.27544e-92
3.51216e-95
2.33393e-98
1.54825e-101
1.02597e-104
6.78644e-108
4.48148e-111
2.95547e-114
1.94496e-117
1.27671e-120
8.36984e-124
5.47792e-127
3.57794e-130
2.33564e-133
1.52283e-136
5.89426e-140
1.05131
1.05052
0.999544
1
1.0409
1.02248
1.00407
6.32909e-10
2.33221e-16
1.34603e-16
1.36226e-17
9.82816e-20
4.31278e-23
5.98284e-27
3.1911e-30
2.37491e-33
1.72544e-36
1.2287e-39
8.72622e-43
6.19371e-46
4.38901e-49
3.10407e-52
2.18736e-55
1.54076e-58
1.08479e-61
7.57885e-65
5.29924e-68
3.69767e-71
2.57402e-74
1.79224e-77
1.23795e-80
8.56256e-84
5.91297e-87
4.07097e-90
2.79966e-93
1.91663e-96
1.31056e-99
8.94652e-103
6.09319e-106
4.13248e-109
2.80075e-112
1.895e-115
1.27813e-118
8.59696e-122
5.77067e-125
3.86486e-128
2.58599e-131
1.72332e-134
1.1483e-137
4.56494e-141
1.04617
1.04018
1.05733
1.03068
1.02972
0.994901
0.958119
2.00772e-12
3.38024e-14
1.21932e-15
1.73123e-18
1.38516e-21
7.94531e-25
3.34772e-28
2.20353e-31
1.627e-34
1.18292e-37
8.49912e-41
6.07701e-44
4.33148e-47
3.07974e-50
2.18253e-53
1.54138e-56
1.08583e-59
7.62715e-63
5.33957e-66
3.72784e-69
2.59488e-72
1.80102e-75
1.24834e-78
8.63419e-82
5.95564e-85
4.09805e-88
2.81101e-91
1.92284e-94
1.31318e-97
8.94552e-101
6.07854e-104
4.12402e-107
2.79029e-110
1.88244e-113
1.2681e-116
8.52075e-120
5.71104e-123
3.82132e-126
2.55139e-129
1.69813e-132
1.12862e-135
7.49392e-139
2.95035e-142
1.01724
1.0067
1.05379
1.07812
1
1.01648
0.169544
4.55533e-14
6.11035e-17
8.41565e-18
1.58568e-19
2.67732e-22
6.72611e-26
1.9301e-29
1.26853e-32
9.36143e-36
6.7313e-39
4.77676e-42
3.38194e-45
2.39001e-48
1.68596e-51
1.1864e-54
8.32884e-58
5.83529e-61
4.08128e-64
2.84591e-67
1.98099e-70
1.37618e-73
9.53388e-77
6.59561e-80
4.5519e-83
3.13122e-86
2.15037e-89
1.47342e-92
1.00717e-95
6.8724e-99
4.67998e-102
3.17969e-105
2.15574e-108
1.45878e-111
9.84552e-115
6.63044e-118
4.45702e-121
2.98789e-124
2.00053e-127
1.33624e-130
8.90541e-134
5.92659e-137
3.93621e-140
1.57307e-143
1.04709
0.97464
1.00182
0.948674
1
1.0246
3.14464e-08
9.27327e-15
1.55964e-17
8.90388e-18
7.41004e-19
6.26843e-21
3.27458e-24
3.16399e-28
1.55088e-31
1.13844e-34
7.9459e-38
5.46216e-41
3.75099e-44
2.57069e-47
1.75881e-50
1.20059e-53
8.17845e-57
5.56452e-60
3.77781e-63
2.55896e-66
1.73109e-69
1.16899e-72
7.8765e-76
5.29959e-79
3.55794e-82
2.38241e-85
1.59208e-88
1.06238e-91
7.07551e-95
4.70676e-98
3.12411e-101
2.06854e-104
1.36721e-107
9.02553e-111
5.94673e-114
3.91172e-117
2.56818e-120
1.68231e-123
1.10014e-126
7.18065e-130
4.67803e-133
3.04483e-136
1.97654e-139
7.64468e-143
1.00185
1.00174
1.02795
1.00374
0.962875
0.999831
2.90262e-09
-1.35724e-19
-2.48605e-22
4.02905e-18
1.59969e-19
1.75241e-22
6.45353e-27
1.08656e-30
4.2765e-34
1.91275e-37
7.15789e-41
3.00884e-44
1.30484e-47
8.12e-51
2.59924e-54
1.14924e-57
4.1856e-61
1.44091e-64
1.01847e-67
2.34614e-70
5.11146e-74
9.72719e-78
2.76581e-80
3.35055e-84
7.59993e-87
8.54763e-91
1.1898e-93
3.09524e-96
1.43226e-99
4.84442e-103
7.76016e-106
4.38502e-109
1.9788e-113
6.21253e-115
2.29609e-118
8.90275e-123
1.70009e-125
1.70947e-129
8.64714e-132
7.04551e-134
1.34649e-137
6.08854e-141
8.47171e-144
2.17821e-145
1.08313
1.00156
1.03228
1.01845
1.01056
1.00009
2.33629e-07
-9.29276e-19
3.7098e-21
6.26142e-19
3.4264e-20
6.95139e-23
7.96303e-27
9.33966e-31
3.14584e-34
1.27445e-37
5.30727e-41
2.25375e-44
9.54543e-48
3.84135e-51
1.64762e-54
6.71735e-58
3.18639e-61
1.3719e-64
5.7161e-68
2.16432e-71
1.07017e-74
4.28984e-78
1.2201e-80
2.37189e-84
2.81891e-87
2.99791e-90
3.15167e-93
9.29715e-97
4.19761e-100
1.70403e-103
4.49214e-107
1.43061e-110
5.89459e-112
5.21029e-115
4.544e-119
6.30783e-123
1.86825e-126
4.63844e-128
2.51295e-131
2.31863e-135
2.27623e-138
2.2893e-142
4.30625e-145
9.6694e-146
1.05521
1.10559
0.761723
0.82299
1.0316
1.00669
0.267445
4.52376e-12
4.03652e-15
4.99538e-17
5.80782e-20
2.01236e-21
6.65185e-24
8.71877e-28
7.02322e-32
2.46949e-35
1.01056e-38
4.14811e-42
1.70175e-45
6.95129e-49
2.84373e-52
1.15691e-55
4.75083e-59
1.92899e-62
7.94728e-66
3.16944e-69
1.31138e-72
5.12617e-76
2.05836e-79
1.24846e-82
3.58437e-86
1.37079e-89
7.90763e-93
5.84181e-96
2.60896e-99
3.02859e-102
1.46123e-105
3.96722e-109
2.81638e-112
4.83323e-115
8.53002e-118
9.1949e-122
1.21917e-125
3.94615e-128
1.9054e-130
3.45508e-134
5.4899e-137
2.9392e-140
9.26458e-144
2.7215e-145
1.07377
0.76819
1.01922
1.01311
0.983473
0.973232
1.00004
2.78358e-11
-3.19461e-18
5.06563e-17
2.51576e-18
5.59706e-21
6.03745e-24
2.17415e-27
2.68312e-31
8.26368e-35
3.3931e-38
1.42668e-41
5.97014e-45
2.50007e-48
1.0451e-51
4.33098e-55
1.85294e-58
8.5075e-62
3.25007e-65
1.38818e-68
5.37388e-72
9.16544e-75
4.7838e-78
6.16837e-82
9.19246e-85
7.16111e-88
2.40665e-91
4.10998e-95
5.67893e-98
1.13691e-101
1.06415e-104
1.90401e-107
1.7343e-111
2.82637e-113
1.41176e-116
1.02169e-119
1.21339e-122
1.44891e-126
5.95804e-130
1.98879e-132
1.07265e-135
6.70319e-140
1.53392e-143
2.76348e-145
0.901277
0.974339
1.0002
0.905101
1.00477
1.00683
1.00128
4.50341e-10
-6.99662e-18
2.43411e-16
1.9819e-17
7.62348e-20
1.43032e-23
2.31529e-27
5.60716e-31
2.02967e-34
8.3783e-38
3.52745e-41
1.50904e-44
6.25993e-48
2.59068e-51
1.10126e-54
4.63863e-58
2.00264e-61
8.74388e-65
1.0408e-67
1.6276e-71
5.87303e-75
2.41392e-78
1.78908e-81
3.37155e-84
3.50965e-88
1.62526e-90
3.9927e-94
7.33668e-97
6.61276e-101
3.39711e-103
1.01325e-106
6.45089e-109
2.03444e-112
1.40509e-116
2.00862e-118
6.37371e-122
3.62766e-125
7.87917e-129
1.27269e-132
2.62769e-134
9.52929e-138
7.21343e-141
9.5051e-144
1.00478
0.967389
1.02825
0.913148
0.999948
0.99738
1.00149
9.71545e-10
-1.65033e-18
1.80739e-16
1.58475e-17
6.32478e-20
1.27273e-23
2.0621e-27
4.94889e-31
1.80063e-34
7.46308e-38
3.17494e-41
1.33868e-44
7.27015e-48
2.66019e-51
1.26701e-54
5.01029e-58
1.81404e-61
1.18112e-64
3.10651e-68
1.38761e-71
5.58299e-75
2.13114e-78
2.02278e-80
4.71774e-83
2.12827e-86
2.49699e-90
1.30168e-93
1.67168e-97
3.26386e-100
1.87208e-103
3.57772e-106
2.71298e-110
4.39209e-112
1.64822e-115
7.43435e-120
1.4565e-121
5.18235e-125
1.13457e-128
8.56453e-133
1.28895e-135
8.80912e-138
9.42913e-142
3.26115e-145
1.03148
1.03511
0.970466
1.03511
1.05445
1.00458
1.00362
2.78174e-10
-4.46289e-18
4.40988e-17
2.24552e-18
5.40663e-21
6.91412e-24
2.66151e-27
3.15214e-31
9.49789e-35
3.89416e-38
1.63727e-41
6.85979e-45
2.867e-48
1.23592e-51
5.02618e-55
2.1105e-58
8.81738e-62
3.80953e-65
1.99641e-68
6.44753e-72
2.84665e-75
5.15564e-78
8.65244e-82
2.18498e-85
8.46271e-89
3.42887e-92
3.55959e-95
1.09687e-97
3.36343e-101
4.71781e-105
2.41834e-107
7.27326e-111
6.42297e-115
1.90292e-117
2.24453e-121
2.56977e-123
1.25429e-126
4.49569e-130
3.89756e-134
1.28929e-137
6.32563e-141
2.19442e-143
1.39793e-144
1.07872
1.01991
1.01173
1.06267
1.07087
1
0.958253
7.62714e-13
5.27714e-15
7.10874e-17
6.3413e-20
1.96703e-21
5.9075e-24
7.17316e-28
6.19699e-32
2.21483e-35
9.07207e-39
3.72417e-42
1.52742e-45
6.25265e-49
2.54958e-52
1.04278e-55
4.26325e-59
1.71564e-62
7.36144e-66
2.90806e-69
1.28194e-72
6.36551e-76
1.93929e-79
1.49186e-82
3.75924e-86
1.35551e-89
1.09066e-92
6.12813e-96
1.4459e-99
1.41422e-102
8.69504e-106
3.89092e-109
5.94102e-112
4.81262e-114
1.56918e-117
1.40871e-120
2.25563e-124
2.43541e-128
1.07242e-131
3.31575e-135
1.25231e-138
4.94822e-142
3.72816e-145
1.60065e-145
1.04774
1.00208
0.984126
1.00323
0.998722
1.01563
0.170518
-1.79214e-18
-5.50321e-21
6.64686e-19
2.89156e-20
4.42831e-23
6.43928e-27
8.24469e-31
2.75234e-34
1.12246e-37
4.68872e-41
1.94699e-44
8.11964e-48
3.4032e-51
1.392e-54
5.87902e-58
2.40497e-61
1.01533e-64
4.10644e-68
1.73265e-71
7.10847e-75
3.01859e-78
1.15766e-81
4.95709e-85
5.1743e-87
2.1762e-90
1.90117e-93
9.84764e-97
3.09033e-100
3.0191e-103
1.11054e-106
6.41798e-110
5.44473e-114
3.2831e-116
6.4061e-120
6.70849e-124
5.00378e-126
9.80327e-129
1.22443e-131
1.03458e-135
9.6077e-139
8.05561e-142
5.18551e-144
1.6216e-145
1.083
1.00616
1.00651
1.02838
0.944106
1.00671
1.67911e-08
-1.85181e-20
-3.34246e-22
5.55939e-18
2.89113e-19
5.00937e-22
2.53293e-26
2.90903e-30
1.11459e-33
4.59213e-37
1.86102e-40
7.73196e-44
3.12544e-47
1.26239e-50
5.32966e-54
2.17412e-57
8.40131e-61
3.45679e-64
1.8576e-67
9.57246e-71
9.87376e-74
1.23361e-77
1.13149e-80
1.18426e-83
1.07005e-87
2.23977e-89
7.9042e-93
4.10214e-97
2.98741e-100
1.11977e-102
6.66072e-106
6.47944e-110
1.32182e-111
4.36563e-115
2.50832e-118
4.81471e-121
1.15907e-124
5.59839e-128
2.67171e-132
2.82035e-134
2.1664e-137
1.1664e-140
1.42655e-144
1.97799e-145
0.00193292
0.990622
0.012138
1
0.00495856
0.991197
0.0174997
0.0654632
1.0094
0.700474
0.991104
0.0719812
1.00849
0.700987
0.935873
1.00004
1.00001
1.00682
0.933199
1.00003
1.00001
1.00002
1.00921
1.00106
0.999911
1.00001
1.00191
1.00146
1.00212
1.00241
1.00241
0.999687
1.00252
1.00434
1.00238
1.00186
1.0202
1.00312
1.00333
1.00157
1.01686
1.00387
1.00279
0.9979
1.00189
1.02223
1.00534
0.997941
1.00165
1.00019
1.03276
0.982154
0.99106
1.0002
1.02197
0.975591
0.874154
0.992807
0.239498
1.01701
0.872644
0.991158
0.241426
0.103501
1.00746
-2.1684e-22
1.02076
0.106315
1.00466
2.53572e-06
0.00541548
0.994104
0.0182208
1.00026
0.00560618
0.999944
0.0187561
0.0716915
1.00878
0.700908
1.00022
0.0729744
1.00907
0.700889
0.932754
1.00189
1.00011
1.00663
0.932209
1.00376
1.00001
1.00023
1.00269
1.00187
0.997314
0.999641
0.999908
1.00174
1.00297
1.00059
1.0029
1.00669
1.00262
0.997718
1.00232
1.00191
1.01562
1.00413
0.969296
1.00134
1.01247
1.00364
1.00532
1
1.00218
1.00843
1.00486
0.998958
1.00163
1.00068
1.02096
0.976651
0.996639
1.00017
1.01903
0.975525
0.871977
0.989516
0.243146
1.01625
0.870067
0.996139
0.235154
0.107358
1.00838
3.01764e-06
1.00711
0.112024
1.00709
1.6335e-06
0.00532197
0.999353
0.0177685
0.999325
0.00178945
1.00036
0.0124885
0.0748785
1.0096
0.700721
1.00698
0.0737775
1.01064
0.699874
0.932508
1.00336
1.00007
1.00593
0.935265
1.00847
1.00001
0.999936
0.995279
1.0016
0.99835
0.999851
1.00281
1.00139
1.00289
0.999982
1.00279
1.00851
1.0024
1
1.00217
1.00169
1.01229
1.00401
1
1.00172
1.01092
1.00385
1.00506
0.992526
1.00228
1.00582
1.00364
0.983991
1.00182
1.00073
1.01923
0.976552
1
1.00014
1.02343
0.981388
0.870365
0.99664
0.229887
1.01585
0.873347
1
0.228764
0.114984
1
2.074e-07
0.991328
0.105494
1.00008
2.21945e-43
0.985491
0.951683
0.884596
0.91493
0.967851
0.982633
0.908986
0.979297
1
0.99668
1
0.997153
0.986805
1.00023
-4.1194e-18
-3.4589e-18
-1.68017e-17
2.6077e-09
1.31414e-12
7.9028e-09
1.31401e-12
1
1.07069
1.01857
1.01516
0.999572
1.03617
1.0193
1
1
0.981613
0.993693
1
0.984048
0.999539
-9.98663e-19
0.0521832
-2.72101e-16
2.14789e-07
1.00182e-11
0.0593796
5.41297e-12
1.00861
1.01788
1.00512
1.04235
1.00518
1.02237
1.00171
1.00063
1.00512
1.00113
1.00692
1.00546
1.00135
1.00067
-7.27085e-15
0.971086
-2.06898e-19
0.267018
4.35954e-09
0.967623
5.16224e-10
0.998865
0.995364
0.997646
0.973758
0.993288
1.00225
0.989549
0.944938
1
1.00109
0.999211
0.999388
0.998428
0.94363
-7.41607e-16
1.00039
-1.65353e-18
1.00046
2.59971e-08
1.00127
1.92696e-07
0.980183
0.933762
1.00273
0.977382
0.987964
0.966088
1.0336
1.00018
1.00442
0.978196
0.989154
1.00417
0.978374
1.00005
-4.51953e-16
1.00101
-2.41497e-14
1.00161
3.35929e-07
1.00166
6.60196e-07
1.00023
1.01159
1.01184
0.99876
0.864859
0.987153
0.981157
1.00836
1.00548
0.968433
1.01127
1.00417
1.01393
1.00707
2.71216e-05
1.00089
-2.59807e-15
1.00176
0.00013268
1.00205
4.00644e-07
1
1.01821
0.878241
1.03885
1
1.01429
0.881379
1.00289
1.0174
1.00247
1.02628
1.01738
1.00107
1.00324
-1.77094e-14
1
-1.12181e-16
1.00399
1.94254e-07
1.00002
3.65397e-08
0.982202
1.03566
1.01236
0.950385
0.989012
1.01624
1.0099
0.982652
1
0.982828
0.993543
1
0.971593
0.98564
-5.24077e-18
0.358763
-2.54459e-15
0.958804
6.44007e-10
0.371272
6.39209e-09
0.96706
0.993341
0.97353
0.994432
0.989689
0.999064
1.00314
1.00104
1.00326
1.01643
1.01812
1.0038
1.01753
1.00059
-1.89044e-17
-1.66289e-16
-3.21032e-19
0.168396
1.89065e-11
4.83176e-07
2.63264e-11
1.02454
1.05213
1.01709
0.879187
1.01936
1.06915
1.01678
1.00318
1.00655
1.01474
1.01769
1.00646
1.02021
1.00191
-4.3705e-23
-1.17421e-22
-7.65847e-26
2.16091e-08
2.64176e-12
1.61064e-09
3.11217e-12
0.974273
1.00994
0.956671
0.971887
1.00525
1.01004
0.99892
0.97044
1
0.997714
1
0.970226
0.997347
1.00002
6.13438e-12
1.38476e-08
6.13415e-12
5.21061e-09
6.13438e-12
1.41604e-08
6.1342e-12
0.996726
1.02184
1.01754
1.01405
1.00178
1.0244
1.02061
1
1
0.996243
0.997299
1
1.00057
0.995336
4.09947e-11
0.060037
2.12415e-11
2.82642e-07
4.10061e-11
0.0601927
2.12415e-11
1.01011
1.00798
1.00867
1.03356
1.0062
1.02014
1.00493
1.00126
1.00556
1.00203
1.00689
1.00128
1.00577
1.00202
7.44816e-09
0.966807
9.83914e-10
0.268207
7.41381e-09
0.96673
9.86937e-10
1.0038
1.00742
1.00082
0.992988
0.996459
1.02344
0.995405
0.953914
0.996987
0.99293
0.999991
0.950076
0.996232
0.989689
4.28321e-08
1.00126
3.10467e-07
1.00034
4.20817e-08
1.00143
2.90592e-07
1.00219
1.00465
1.02863
1.01871
1.01512
0.94697
0.945801
1.00343
1.00378
0.999997
1.00389
1.00398
1.00283
1.0019
4.94989e-07
1.00214
7.55549e-07
1.00167
5.09472e-07
1.00174
7.58547e-07
0.857437
0.970976
1.01374
0.998869
0.952169
0.95954
1.01425
1.00658
1.00078
1.02924
0.978872
1.00733
1
1.02388
0.000138669
1.0027
6.56414e-07
1.00174
0.000136076
1.00212
6.64382e-07
1
1.01149
0.881689
1.02625
1
1.0029
0.9881
1.00431
1.01688
1.01873
1.01179
1.00388
1.01426
1.02209
3.65153e-07
1.00008
6.141e-08
1.00368
3.89035e-07
1.00001
6.1746e-08
0.977885
1.02387
1.00087
1.07887
1.00769
1.0525
0.999706
0.985002
0.999996
0.965883
0.997907
0.983834
0.999448
0.965815
1.34833e-09
0.369939
1.08857e-08
0.958552
1.33996e-09
0.370955
1.04033e-08
0.99661
1.00066
1.01622
1
0.942827
1.00384
0.999881
1.00547
1.00631
1.01281
1.01672
1.00594
1.00633
1.01256
6.90855e-11
5.75362e-07
1.12309e-10
0.171192
6.90855e-11
9.07442e-07
1.11676e-10
1.05409
1.01317
1.15017
0.865041
1.00552
0.983974
0.979613
1.005
1.00369
1.02123
1.02776
1.00757
1.00169
1.00094
9.11076e-12
2.40373e-09
1.2523e-11
2.95864e-08
9.11078e-12
1.29859e-09
1.30577e-11
0.996074
1.00637
0.985458
0.987335
0.987198
0.98737
0.98545
0.975533
1.00039
0.999724
0.99991
0.972877
0.999804
1.00091
1.39647e-12
8.25703e-09
1.39634e-12
-3.84448e-17
-5.71197e-18
-6.99665e-18
-2.01115e-17
0.998192
1.03042
1.01573
1.0122
1.00213
1.02691
1.02529
1
1.00332
0.995609
1.00001
1.00008
1.00443
0.997394
9.87732e-12
0.0597059
5.34444e-12
-8.46311e-19
-2.75596e-18
0.0526926
-2.65073e-16
1.0098
1.00092
1.00994
1.02441
1.00621
0.997682
1.00044
1.00173
1.00596
1.00247
1.00655
1.00188
1.0061
1.00277
4.32223e-09
0.967263
5.12868e-10
0.259224
-6.26146e-15
0.970587
-2.10707e-19
0.92038
1.01968
0.973515
0.998959
1
0.995523
0.999556
0.972273
0.994468
0.983458
0.946614
0.953265
0.995095
0.941231
2.51032e-08
1.00126
1.97445e-07
1
-6.16211e-16
1.00035
-1.39369e-18
1.01634
0.940212
0.942571
1.01759
1.01073
0.959673
0.931263
0.997789
1.00213
1.00391
1.00738
0.997847
1.00203
1.00026
3.28659e-07
1.00204
6.57984e-07
1.00062
-5.36637e-16
1.00099
-2.6304e-14
0.669872
0.993745
1.01474
1
0.983901
0.94757
1.01646
1.00266
1
0.997054
0.998316
1.00278
1
0.999616
0.000131123
1.00262
4.18242e-07
1.00092
2.67157e-05
1.00087
-3.26206e-15
1.00406
1.07608
0.998576
1.05343
1.02744
0.981052
1.0028
1.00694
1.00776
1.01953
1.00707
1.00588
1.00772
1.02262
1.99276e-07
1.00012
3.67869e-08
1.00125
-3.76163e-17
1
-8.06609e-17
1.00128
1.01633
1.00528
1.01281
0.995718
1.01426
1.00391
0.985492
1.00001
0.998218
0.978275
0.987625
0.997078
0.944297
6.60966e-10
0.369201
6.46852e-09
0.963743
-3.0535e-18
0.357612
-2.48404e-15
0.984014
1.00371
1.00926
1
1
1.02763
0.997515
1.0041
1.00578
1.00146
1.0156
1.00528
1.00621
0.99976
1.81526e-11
8.60393e-07
2.44146e-11
0.161607
-2.05391e-17
-1.87601e-16
-1.58935e-17
1.00101
0.97247
0.895949
0.997404
0.995348
1.00003
0.997945
1.00252
1.00186
0.991957
1.001
1.00552
1.00055
0.99763
1.96543e-12
1.30399e-10
3.66512e-13
-2.35094e-18
-6.26871e-17
1.05879e-25
-1.76705e-18
0.354389
0.52346
-1.11025e-19
0.00346217
7.26222e-07
0.341799
0.524177
0.999994
0.994709
1
0.990801
0.994864
1
1
0.554112
0.00620388
0.580318
0.0146989
0.00885278
0.580389
0.553935
0.973692
1
1.00006
0.997449
0.997398
0.973096
1.00003
0.363439
0.00430788
0.526832
2.43878e-06
2.43878e-06
0.366267
0.525247
1
0.991327
0.995442
1
0.99503
1.00009
0.999994
0.55384
0.0161204
0.0114606
0.580863
0.0102432
0.579817
0.55481
0.852105
0.761837
0.166804
0.0689659
0.762374
0.173891
0.8544
1.00049
1.00239
1.00232
1.00896
1.00218
1.00265
1.0008
0.991772
0.427121
1.00003
0.700683
0.428439
1.0001
0.991817
1
0.990279
1.00007
0.997764
1
0.990425
1
0.852326
0.0713153
0.763427
0.173874
0.759689
0.174386
0.855886
1.00105
1.00872
1.00239
1.00311
1.00213
1.00314
1.00073
0.990383
0.699905
0.434227
1.00007
0.430909
1.00027
0.989117
1.0003
1.00035
1
0.935125
1.0001
1
1.00099
0.999711
0.983791
1.00011
1.00002
0.984501
1.00011
1.00048
1.00029
1.0003
1
1.00006
1.00041
0.999843
1.00158
1.00101
1.00683
1.00557
1.00191
1.0053
1.00169
1.001
1.00088
0.934115
1.00026
1.0002
1.00035
1.00069
1.00035
0.999831
1.00002
0.995312
1.00023
0.988306
1.00027
0.999607
1.00068
1.00013
1.00083
0.999999
1.00087
1.00024
1.00054
0.999611
0.99768
1.00008
1.00004
0.998365
1.00011
1.00001
1.00713
1.00316
1.01018
1.00203
1.00437
1.00502
1.00851
1.00128
1.00013
1.0041
1.00237
1.00028
1.00359
1.00126
0.945425
0.999766
0.99788
0.994925
0.998244
0.996041
0.947605
0.998548
1.0003
0.999365
1
0.999516
1.0001
0.998252
1.00326
1.0035
0.992992
1.00561
0.996865
1.00711
1.00226
1.00138
1.00235
1.00043
1.00357
1.00075
1.00442
1.00102
1.00346
1.0061
1.00305
1.00225
1.00543
1.00301
1.00495
1.00168
0.979116
1.00516
1.00254
1.00405
1.00561
1.00049
1.00397
1.00217
1.004
1.00244
1.00242
1.00371
1.00482
1.0027
0.989753
1.00396
0.990863
1.0044
0.979036
1.00369
1.00436
1.00285
1.00456
1.00303
1.00522
1.00346
1.00395
1.00229
1.00598
0.989783
1.0035
1.00725
1.00445
1.00099
1.00382
1.00292
1.00257
1.00334
1.00299
1.00368
1.00369
1.00334
1.00168
1.00146
1.0017
1.00172
1.00157
1.00319
1.01412
1.01584
1.01712
1.02005
1.01792
1.01614
1.01329
1.00821
1.00315
1.0084
1.003
1.00335
1.00836
1.00834
1.0074
0.996443
1.00214
1.03804
1.00289
1.05274
1.00713
1.00351
1.00209
1.00176
1.00182
1.00184
1.0022
1.00349
1.01401
1.01912
1.01327
1.01599
1.01488
1.01647
1.01435
1.00834
1.00367
1.00343
1.00775
1.00366
1.00805
1.00811
1.00487
1.00764
1.00346
1.00211
1.00672
1.0036
1.00597
1.00086
0.939796
1.00244
0.988041
0.940712
1.00284
1.0009
1.00351
1.00334
1.00343
1.00179
1.00337
1.00287
1.00449
1.00278
1.02599
1.01666
1.01333
1.0181
1.0002
1.00339
1.00515
1.00363
1.00723
1.00382
1.00661
1.00438
1.00461
1.00105
0.988672
0.984484
1.00342
0.957554
1.00314
1.00121
1.00361
1.00231
1.00327
1.00244
1.00368
1.00292
1.00347
0.993439
1.00033
1
1.00026
1
1
0.994683
0.923302
0.9584
1
1.02482
0.963563
0.999152
0.91799
0.96201
0.999902
0.998547
0.979241
0.999527
0.999535
0.97644
0.981983
0.992255
1
0.966043
1
0.966777
0.982867
0.994269
1.00089
1
1
1
1.00002
0.99309
0.921605
1.02433
0.979109
1.00053
0.975511
0.997059
0.921617
0.959384
0.977793
0.999533
1.00036
0.999999
1.00011
0.954906
1.00008
1.00022
0.733416
0.873609
1.00028
0.734561
1.00016
0.999888
0.996782
1
0.994692
0.997309
1
1.00026
1.00001
0.508754
0.93373
0.240329
0.509734
0.935366
1.00012
1.00305
1.01633
1.00626
1.01371
1.00521
1.01193
1.00495
1.00039
0.873285
1.00034
0.734067
1.00045
0.733541
1.00044
0.998551
0.994999
1.00145
0.99997
0.997822
1
0.999209
1.00009
0.242219
0.510694
0.936759
0.509772
0.934422
1.00005
0.655262
0.829729
0.0161781
0.103153
0.832499
0.023927
0.664031
0.999668
1.00268
0.99612
1.00619
1.00258
0.999746
0.995543
0.577702
0.0106203
0.39391
4.90498e-07
0.0138722
0.581031
0.393167
1.00457
1.01934
1.00494
1.01465
1.00578
1.01679
1.00316
0.65615
0.103366
0.83234
0.0263019
0.832834
0.0232971
0.655177
0.999657
1.00545
1.00675
0.994506
1.00266
0.999587
0.994577
0.576037
2.53572e-06
0.0167435
0.393219
0.0154652
0.572226
0.390574
0.370302
0.527416
3.70471e-06
0.005694
0.370878
3.70471e-06
0.526606
0.99999
0.997202
0.999995
0.992572
0.999988
0.997208
1
0.553921
0.012275
0.580516
0.0189464
0.554547
0.0127258
0.58002
0.970332
1.00004
1.00035
0.999771
0.999644
0.97163
1
0.370026
0.00576641