/*--------------------------------*- C++ -*----------------------------------*\
| =========                 |                                                 |
| \\      /  F ield         | OpenFOAM: The Open Source CFD Toolbox           |
|  \\    /   O peration     | Version:  5.0                                   |
|   \\  /    A nd           | Web:      www.OpenFOAM.org                      |
|    \\/     M anipulation  |                                                 |
\*---------------------------------------------------------------------------*/
FoamFile
{
    version     2.0;
    format      ascii;
    class       volScalarField;
    location    "2.1";
    object      p_rgh;
}
// * * * * * * * * * * * * * * * * * * * * * * * * * * * * * * * * * * * * * //

dimensions      [1 -1 -2 0 0 0 0];

internalField   nonuniform List<scalar> 
9186
(
92.4392
101.121
96.898
99.6304
100.251
101.776
95.8253
92.1628
89.7764
87.3506
84.9122
82.4615
80.0093
77.5836
75.1657
72.77
70.3851
68.032
65.7004
63.3909
61.0858
58.8006
56.5455
54.2841
52.0465
49.829
47.6152
45.3975
43.2006
41.0285
38.8535
36.7036
34.5835
32.4497
30.3118
28.2063
26.1541
24.1385
22.1308
20.1169
18.131
16.1903
14.2517
12.2841
10.3458
8.45465
6.56549
4.67185
2.79805
0.935621
103.446
104.322
106.861
98.1923
97.9682
95.663
95.1754
91.8847
89.6061
87.267
84.8675
82.4356
80.0155
77.5854
75.16
72.7704
70.3808
68.0425
65.7183
63.3927
61.0911
58.805
56.539
54.2857
52.0356
49.81
47.5998
45.3988
43.2083
41.0322
38.8676
36.7151
34.5752
32.4434
30.3147
28.214
26.1518
24.1236
22.113
20.1158
18.1365
16.1943
14.2593
12.304
10.353
8.44636
6.55684
4.67036
2.80004
0.935591
105.445
107.39
85.4462
93.8469
94.6862
94.9976
95.0085
92.304
89.5169
87.2709
84.8804
82.4376
80.0047
77.5878
75.1683
72.7627
70.3977
68.0673
65.7372
63.3925
61.0952
58.8081
56.5334
54.2801
52.0385
49.8063
47.5915
45.4043
43.2175
41.0327
38.8723
36.7151
34.5576
32.4307
30.3265
28.2295
26.1505
24.1136
22.1097
20.1177
18.144
16.1902
14.2431
12.3057
10.3659
8.44346
6.54898
4.67119
2.80231
0.935333
112.001
129.712
110.311
104.538
94.577
96.0147
96.0004
92.683
89.7602
87.4498
84.9833
82.5298
80.0488
77.6059
75.1855
72.7788
70.4034
68.0627
65.7171
63.3963
61.1019
58.8069
56.5344
54.2812
52.0498
49.8168
47.5907
45.4107
43.2126
41.0234
38.873
36.7105
34.5523
32.4258
30.3324
28.2464
26.1579
24.1106
22.1107
20.1243
18.1509
16.1798
14.2259
12.2922
10.3705
8.44558
6.54849
4.67841
2.80895
0.930874
108.536
101.678
94.9777
91.3466
99.2132
96.9855
97.195
93.449
90.1629
87.6846
85.1214
82.5955
80.1034
77.6363
75.2136
72.799
70.4243
68.0588
65.7003
63.3999
61.1066
58.8059
56.5382
54.2851
52.0587
49.832
47.601
45.4061
43.2004
41.0161
38.8676
36.7027
34.5496
32.4248
30.334
28.2558
26.168
24.116
22.1155
20.1347
18.1501
16.1651
14.2047
12.2811
10.3674
8.44779
6.55991
4.69291
2.81721
0.928782
91.3042
100.914
104.223
92.0142
96.6775
97.4333
98.8902
94.4956
90.5305
87.9035
85.2486
82.6701
80.1516
77.6708
75.2436
72.824
70.4421
68.0674
65.6975
63.3869
61.1027
58.8025
56.5394
54.2954
52.0648
49.8458
47.6116
45.4009
43.1935
41.0097
38.8618
36.6971
34.5423
32.4268
30.3377
28.2578
26.1786
24.1258
22.1182
20.1339
18.1431
16.1528
14.192
12.2717
10.3628
8.45189
6.57407
4.71788
2.82699
0.93178
98.3486
100.255
97.9035
91.0506
98.0489
102.28
100.47
94.7788
90.6352
87.9504
85.2941
82.7037
80.1877
77.6967
75.2481
72.827
70.4448
68.0796
65.7042
63.3811
61.0916
58.8027
56.5394
54.3036
52.0702
49.8441
47.6179
45.3974
43.1914
41.0158
38.8547
36.6834
34.535
32.4323
30.3403
28.2526
26.185
24.1406
22.1204
20.1262
18.1362
16.1447
14.1877
12.2689
10.3585
8.45366
6.58054
4.71737
2.83284
0.94056
100.383
101.267
92.3118
93.9032
105.785
101.803
100.467
94.5354
90.5133
87.8761
85.2407
82.6725
80.1687
77.6841
75.2192
72.8252
70.4347
68.0658
65.7158
63.373
61.0815
58.798
56.5381
54.3052
52.0697
49.849
47.6198
45.3952
43.2099
41.0266
38.8525
36.6814
34.5405
32.4403
30.3394
28.2423
26.1856
24.1518
22.1264
20.1209
18.1313
16.156
14.2004
12.2739
10.3571
8.45576
6.57883
4.70666
2.83124
0.945646
110.378
99.6952
90.5652
108.692
113.914
100.47
98.2516
92.9496
90.308
87.7105
85.1468
82.6184
80.1247
77.6536
75.2129
72.8128
70.403
68.0431
65.7073
63.3807
61.0748
58.7918
56.5423
54.3005
52.0719
49.8477
47.6166
45.3936
43.1989
41.0227
38.8394
36.6808
34.556
32.4434
30.3304
28.2315
26.1835
24.1556
22.13
20.1186
18.1295
16.1637
14.2158
12.274
10.353
8.45656
6.57148
4.69537
2.82013
0.94638
94.1257
148.324
112.875
106.209
102.047
97.5227
95.6853
92.3509
89.946
87.4753
85.0045
82.5193
80.0441
77.6146
75.1872
72.7821
70.3927
68.0359
65.698
63.3823
61.0752
58.7927
56.5448
54.2894
52.0607
49.8422
47.6151
45.3948
43.1965
41.024
38.8428
36.6872
34.5718
32.4505
30.3184
28.2135
26.16
24.1463
22.131
20.1165
18.1296
16.1789
14.2304
12.275
10.3451
8.45838
6.57155
4.68256
2.80515
0.935951
90.5792
103.735
104.336
99.7961
97.1212
101.847
95.8206
92.1634
89.7763
87.3506
84.9124
82.4616
80.0091
77.5836
75.1657
72.7696
70.385
68.032
65.7006
63.3907
61.0857
58.8007
56.5455
54.2839
52.0465
49.829
47.6151
45.3975
43.2004
41.0283
38.8535
36.7037
34.5834
32.4495
30.3118
28.2063
26.1541
24.1385
22.1308
20.1167
18.1309
16.1904
14.2518
12.2842
10.3458
8.45471
6.56541
4.67178
2.798
0.935705
127.789
104.56
104.244
102.772
96.0303
96.5065
95.1624
91.8848
89.606
87.2667
84.8674
82.4356
80.0155
77.5854
75.16
72.7702
70.3808
68.0426
65.7183
63.3926
61.0911
58.8051
56.5389
54.2854
52.0356
49.81
47.5997
45.3988
43.2083
41.0322
38.8682
36.7151
34.5752
32.4435
30.3147
28.2139
26.1518
24.1237
22.113
20.1154
18.1366
16.1944
14.2592
12.3037
10.353
8.44638
6.55667
4.67038
2.80023
0.93554
107.151
101.809
141.978
92.4416
93.8626
94.978
94.8902
92.3028
89.5184
87.2707
84.8804
82.4376
80.0047
77.5877
75.1683
72.7627
70.3977
68.0673
65.7374
63.3925
61.095
58.8081
56.5334
54.2799
52.0385
49.8062
47.5915
45.4043
43.2176
41.0328
38.8721
36.7149
34.5577
32.4308
30.3266
28.2295
26.1504
24.1136
22.1097
20.1176
18.1441
16.1903
14.2431
12.3055
10.366
8.44342
6.54896
4.67126
2.80235
0.935327
108.578
113.775
100.119
102.986
94.2114
96.0851
96.008
92.6834
89.7607
87.4494
84.9833
82.5297
80.0488
77.6058
75.1854
72.7787
70.4034
68.0626
65.7169
63.3962
61.1019
58.8069
56.5344
54.2813
52.0496
49.8167
47.5908
45.4108
43.2128
41.0232
38.8729
36.7107
34.5522
32.4258
30.3325
28.2461
26.1579
24.1106
22.1106
20.1243
18.1509
16.1798
14.2257
12.2923
10.3706
8.44561
6.54841
4.67838
2.80894
0.930722
116.947
100.817
95.9448
100.283
95.5138
96.3334
97.1984
93.4439
90.1632
87.6846
85.1215
82.595
80.103
77.6363
75.2137
72.799
70.4243
68.0588
65.7001
63.3999
61.1066
58.8059
56.5378
54.2852
52.0585
49.8321
47.6011
45.4061
43.1999
41.0159
38.8676
36.7027
34.5495
32.4247
30.3341
28.2558
26.1682
24.116
22.1155
20.1348
18.15
16.1647
14.2046
12.2811
10.3674
8.44777
6.55989
4.69285
2.81712
0.928835
93.5702
100.24
100.349
91.0234
97.6074
98.4357
98.875
94.491
90.5307
87.9035
85.2485
82.67
80.1517
77.6708
75.2436
72.824
70.4421
68.0675
65.6975
63.3869
61.1028
58.8022
56.5393
54.2954
52.065
49.8458
47.6115
45.4008
43.1935
41.0099
38.8619
36.6966
34.5421
32.4267
30.3377
28.2577
26.1786
24.1258
22.1182
20.1339
18.143
16.1524
14.1921
12.2717
10.3627
8.45187
6.57403
4.71788
2.82672
0.93175
99.2283
98.4128
97.7243
98.0509
99.0027
101.944
100.451
94.7745
90.6358
87.9503
85.2941
82.7037
80.1876
77.6967
75.2481
72.827
70.4447
68.0795
65.7042
63.3811
61.0915
58.8027
56.5393
54.3036
52.0698
49.8441
47.6179
45.3974
43.1915
41.0158
38.8548
36.6833
34.535
32.4323
30.3403
28.2525
26.185
24.1405
22.1204
20.1263
18.1362
16.1445
14.1877
12.2689
10.3584
8.45364
6.58065
4.71743
2.83286
0.94072
101.659
100.377
98.7212
100.228
105.806
101.599
100.44
94.532
90.5141
87.8759
85.2407
82.6724
80.1687
77.6841
75.2191
72.8252
70.4349
68.0656
65.7163
63.373
61.0815
58.798
56.5381
54.3052
52.0697
49.849
47.6202
45.395
43.2097
41.0266
38.8523
36.6811
34.5405
32.4402
30.3393
28.2423
26.1856
24.1518
22.1264
20.1209
18.1312
16.156
14.2004
12.2739
10.357
8.45574
6.57883
4.70664
2.83121
0.945627
108.498
102.547
102.211
106.099
111.075
100.365
98.1051
92.9501
90.3083
87.7105
85.1468
82.6184
80.1247
77.6535
75.2129
72.813
70.4033
68.043
65.7074
63.3808
61.0748
58.7918
56.5424
54.3005
52.0718
49.8478
47.6165
45.3935
43.1989
41.0227
38.8395
36.6808
34.5564
32.4434
30.3304
28.2316
26.1835
24.1555
22.1299
20.1186
18.1296
16.1637
14.2157
12.2739
10.353
8.45652
6.57142
4.69534
2.8202
0.946377
45.6614
154.504
111.273
99.6368
137.309
97.8928
95.6809
92.3514
89.9461
87.4753
85.0047
82.5193
80.0438
77.6146
75.1872
72.7823
70.3926
68.0358
65.6981
63.3822
61.0752
58.7924
56.5448
54.2894
52.0607
49.8423
47.615
45.3949
43.1966
41.0239
38.8427
36.6872
34.5719
32.4505
30.3184
28.2136
26.1601
24.1463
22.131
20.1164
18.1296
16.1789
14.2304
12.2747
10.3451
8.4584
6.57146
4.68256
2.80524
0.935942
89.5647
103.132
98.4969
97.5203
97.1495
102.024
95.8238
92.1632
89.7763
87.3506
84.9124
82.4617
80.0086
77.5835
75.1656
72.7693
70.385
68.0319
65.7006
63.3905
61.0857
58.8006
56.5454
54.2838
52.0465
49.829
47.6149
45.3974
43.2002
41.028
38.8535
36.7037
34.5834
32.4493
30.3117
28.2063
26.154
24.1384
22.1308
20.1166
18.1307
16.1904
14.2519
12.2843
10.3457
8.45468
6.56527
4.67167
2.79789
0.935706
96.3465
99.9903
108.255
89.1028
94.6858
96.6683
95.1661
91.8842
89.6059
87.2666
84.8674
82.4355
80.0154
77.5853
75.1599
72.77
70.3807
68.0426
65.7181
63.3925
61.0917
58.8051
56.5382
54.2848
52.0355
49.81
47.5996
45.3987
43.2084
41.0322
38.8682
36.7151
34.575
32.4435
30.3146
28.2138
26.1517
24.1241
22.1128
20.1154
18.1365
16.1948
14.259
12.3034
10.3531
8.4464
6.55654
4.67032
2.80029
0.935345
107.283
109.06
190.9
132.697
93.7854
95.0127
94.9006
92.3044
89.5182
87.2708
84.8803
82.4375
80.0046
77.5877
75.1682
72.7626
70.3976
68.0671
65.7373
63.3924
61.0948
58.808
56.5332
54.2798
52.0385
49.8061
47.5917
45.4042
43.2176
41.0328
38.872
36.7147
34.5578
32.4309
30.3265
28.2294
26.1503
24.1136
22.1096
20.1175
18.1441
16.1903
14.243
12.3053
10.3662
8.4433
6.54885
4.67125
2.80233
0.935023
103.762
116.946
100.08
104.808
93.5473
96.6853
96.0042
92.6846
89.7602
87.449
84.9831
82.5296
80.0487
77.6058
75.1854
72.7787
70.4033
68.0624
65.7169
63.3961
61.102
58.8068
56.5343
54.2814
52.0494
49.8165
47.5909
45.4107
43.2127
41.0231
38.8727
36.7106
34.5521
32.4257
30.3324
28.246
26.1578
24.1106
22.1107
20.1243
18.1509
16.1797
14.2255
12.2925
10.3706
8.44557
6.54821
4.67832
2.8088
0.93039
110.126
106.909
108.879
106.059
96.2185
96.4748
97.194
93.4457
90.1624
87.685
85.1214
82.5949
80.1028
77.6362
75.2136
72.799
70.4242
68.0587
65.7
63.4
61.1066
58.8058
56.5377
54.2852
52.0582
49.8321
47.6012
45.406
43.1998
41.0157
38.8675
36.7027
34.5494
32.4247
30.334
28.2557
26.1686
24.116
22.1155
20.135
18.1499
16.1643
14.2048
12.2811
10.367
8.4477
6.56009
4.69272
2.81704
0.928732
96.4478
98.9381
101.002
97.8376
98.0757
101.559
98.8699
94.493
90.5299
87.9037
85.2483
82.6699
80.1519
77.6707
75.2435
72.8239
70.442
68.0675
65.6973
63.3868
61.1027
58.802
56.5391
54.2961
52.065
49.8458
47.6114
45.4006
43.1934
41.0101
38.862
36.6965
34.542
32.4267
30.3378
28.2576
26.1786
24.1257
22.1181
20.1341
18.1429
16.152
14.192
12.2717
10.3625
8.45179
6.57401
4.71781
2.82615
0.931709
98.4042
97.4658
102.433
101.512
99.4536
101.373
100.437
94.774
90.6352
87.9503
85.2939
82.7036
80.1875
77.6966
75.248
72.8269
70.4447
68.0793
65.7041
63.3811
61.0915
58.8026
56.5393
54.3036
52.0697
49.8441
47.6178
45.3976
43.1918
41.0158
38.8546
36.6831
34.5349
32.4322
30.3402
28.2523
26.185
24.1405
22.1203
20.1263
18.1361
16.1444
14.1876
12.2689
10.3583
8.45357
6.58074
4.71734
2.83286
0.94067
103.714
100.401
99.8646
100.641
112.322
103.051
100.45
94.5322
90.5136
87.876
85.2406
82.6724
80.1686
77.684
75.2191
72.8251
70.4352
68.0653
65.7163
63.3731
61.0814
58.798
56.5384
54.3051
52.0697
49.849
47.6201
45.3948
43.2097
41.0267
38.8523
36.681
34.5405
32.4402
30.3393
28.2424
26.1856
24.1515
22.1263
20.1209
18.1311
16.156
14.2003
12.2738
10.3569
8.45567
6.57877
4.7066
2.83119
0.945491
118.542
103.382
96.4176
100.66
113.693
100.315
98.1184
92.9497
90.3085
87.7105
85.1467
82.6183
80.1246
77.6534
75.2128
72.8131
70.4039
68.0428
65.7074
63.3807
61.0747
58.7918
56.5423
54.3004
52.0715
49.8477
47.6161
45.3933
43.1994
41.0228
38.8393
36.6807
34.5564
32.4433
30.3303
28.2315
26.1834
24.1553
22.1298
20.1185
18.1296
16.1637
14.2157
12.2737
10.3529
8.45645
6.57131
4.69527
2.82017
0.946285
63.3271
117.292
109.926
101.795
103.841
96.8754
95.6775
92.3511
89.946
87.4752
85.0047
82.5192
80.0436
77.6145
75.1871
72.7825
70.3926
68.0357
65.6982
63.3821
61.0748
58.7923
56.5447
54.2894
52.0606
49.8422
47.6148
45.3948
43.1967
41.0239
38.8423
36.6874
34.5719
32.4503
30.3183
28.2137
26.1601
24.1462
22.131
20.1164
18.1295
16.1787
14.2304
12.2746
10.345
8.45835
6.57119
4.6823
2.80525
0.935877
97.5908
96.9842
96.0238
101.828
97.5668
97.0162
95.9452
96.1132
95.3703
95.5243
96.4977
95.9836
95.3752
95.5666
95.7686
95.726
95.7738
94.9738
95.7917
95.7292
95.7718
95.8191
97.6583
96.9615
96.0722
95.8243
96.3988
96.7933
97.129
98.0214
98.3778
96.3365
97.1108
98.4739
98.3737
98.8982
100.884
99.9622
99.0189
98.8618
100.768
99.9512
100.608
102.416
100.883
101.949
100.701
101.69
100.892
100.824
103.005
99.7686
102.153
100.827
101.764
99.7666
99.1033
97.3108
96.8692
100.356
99.141
97.2234
96.7506
96.0573
100.464
97.0863
96.9137
95.955
100.562
97.1127
97.5656
96.8639
95.9397
102.049
97.5613
97.0395
95.9463
95.9648
95.3512
95.5731
96.6825
95.9482
95.3546
95.5792
95.7931
95.6925
95.7684
94.9969
95.7827
95.6765
95.7813
95.8185
96.4801
96.654
96.1455
95.8479
96.4124
96.5708
97.1375
98.1215
98.3754
96.4753
97.1051
98.4441
98.3692
98.8628
100.745
100.015
102.105
98.9289
100.683
99.9398
100.697
102.056
100.854
101.087
100.494
102.218
100.884
100.822
101.757
99.7673
102.142
100.827
101.918
99.7746
99.147
97.3799
96.757
100.353
99.136
97.8109
96.7259
95.9594
100.282
97.1306
96.9476
95.9713
111.49
97.0816
97.5671
96.9417
95.9531
102.18
97.593
96.9175
96.0362
95.9618
95.3699
95.5762
97.9035
96.0845
95.4405
95.5227
95.7763
95.6807
95.7862
95.0199
95.7555
95.5308
95.7859
95.7976
96.4838
96.5962
88.8976
95.8019
95.4421
96.6119
97.1309
98.2699
98.4352
96.5701
97.1181
98.2027
98.3891
98.9285
100.665
99.978
102.302
98.9486
100.781
99.9532
100.569
101.563
100.957
101.541
100.521
104.804
100.875
100.836
101.868
99.7717
107.906
100.824
102.146
99.79
99.1317
97.8386
96.7914
100.373
99.1066
98.1817
96.9317
96.0751
111.76
97.0598
97.7885
96.0604
111.993
97.0663
101.314
98.5629
100.69
104.996
102.294
95.7064
98.0849
98.2971
101.217
98.1891
101.78
98.1414
98.5069
101.24
94.1857
95.189
93.8682
95.8218
94.1942
95.186
93.8762
95.9941
98.2253
94.9772
94.6676
95.9931
94.8015
94.9975
95.9376
96.3956
96.5836
95.782
96.4057
96.1654
95.9111
93.638
94.7687
93.4959
95.1643
93.6465
94.6279
93.5045
94.7137
95.8459
96.2307
95.4685
94.8284
96.1623
96.5238
95.3775
95.4144
95.1533
94.986
95.4113
95.1464
95.3741
93.4859
95.7596
93.4773
94.9016
93.4843
95.7264
93.4858
94.7596
95.939
95.4085
96.8953
95.2444
95.3539
96.2041
98.3377
95.3899
96.1346
95.9775
95.3466
95.8004
98.7944
93.5126
96.8923
94.202
96.0104
93.5182
96.888
94.2021
96.7448
107.102
101.404
95.5284
95.9941
104.148
103.468
97.5032
96.7934
97.6703
97.6223
96.7801
97.6396
97.52
94.4503
98.3444
95.618
97.2055
94.4284
98.3259
95.6296
96.9017
100.715
100.976
96.7102
94.3163
98.4864
103.61
99.5682
99.2651
109.151
97.5145
99.0227
101.149
99.5385
96.0067
99.9297
96.1684
98.9037
96.0242
99.9257
96.1452
103.884
108.102
107.195
98.8148
103.093
107.413
106.43
100.429
101.378
100.592
102.389
101.366
100.786
100.406
96.2551
100.67
96.2875
100.449
96.221
100.684
96.295
107.736
110.428
103.972
106.228
106.898
110.762
103.802
101.184
101.719
103.975
101.814
101.713
102.16
101.308
96.2942
99.2072
96.1129
100.437
96.304
99.1085
96.1102
96.8962
104.919
96.74
111.635
98.7298
109.171
99.0114
99.2258
99.7103
99.48
100.41
99.6655
99.6637
99.2776
95.415
96.1246
94.6687
98.1163
95.4238
96.1119
94.6776
95.0264
96.7199
113.002
144.142
95.3441
96.8975
112.882
95.1476
95.5309
98.6737
97.5788
95.5459
99.4491
95.1716
94.2333
95.5689
93.9573
95.6839
94.2407
95.5724
93.9646
101.296
95.8987
97.7468
96.9371
102.464
95.9712
97.6608
98.4309
101.276
98.1527
101.899
98.4462
98.2231
101.284
94.1934
95.1841
93.8751
95.8218
94.1932
95.1843
93.8749
96.181
95.1909
94.9678
94.4229
95.9409
94.8054
94.892
95.9862
96.3919
95.9463
96.5779
95.9723
96.4053
95.6957
93.6456
94.6172
93.5042
95.1634
93.6448
94.6109
93.504
94.6596
95.9048
96.0004
93.8353
94.4797
96.0536
95.606
95.347
95.3982
95.1384
94.9899
95.3497
95.4002
95.1406
93.4833
95.7227
93.4835
94.8897
93.483
95.7138
93.4833
95.8495
95.3387
96.109
93.4999
94.5513
97.2768
95.1963
97.7937
95.2964
95.7363
96.1461
97.7806
95.3124
95.6891
93.5151
96.8846
94.2038
96.0056
93.5152
96.8924
94.1905
95.9802
98.5359
102.382
96.5402
96.1454
97.2019
102.915
97.3279
96.7112
97.0612
96.3551
97.4823
96.6919
97.0278
94.4275
98.3804
95.6098
97.1981
94.4329
98.3459
95.6096
96.5134
98.677
99.7352
97.9834
118.715
100.318
99.662
99.2656
99.0688
99.4484
98.4077
99.3818
99.2118
99.5882
96.0231
99.9504
96.1468
98.8904
96.0229
99.9395
96.1479
103.099
107.098
106.555
101.181
102.712
103.614
104.089
100.569
101.281
100.605
101.832
100.484
101.126
100.723
96.2237
100.685
96.291
100.437
96.2339
100.685
96.2912
104.186
109.759
103.671
113.979
104.576
113.114
103.742
101.169
101.694
102.424
102.095
101.112
101.723
102.428
96.3021
99.0809
96.1074
100.447
96.3026
99.0845
96.1065
100.084
108.727
101.267
110.47
103.34
108.411
88.0369
99.475
99.8222
99.1045
100.377
99.5466
99.8278
99.0135
95.4225
96.1048
94.677
98.1181
95.4219
96.1324
94.677
99.0237
107.518
113.84
131.698
91.5599
103.648
121.736
95.1049
95.5307
99.1176
98.712
95.1381
95.5995
97.5025
94.2395
95.5722
93.9632
95.6782
94.239
95.5674
93.963
100.982
95.3677
95.3685
99.0118
100.846
97.0513
95.3918
98.3617
101.272
98.3654
102.063
98.3868
98.3872
101.265
94.1939
95.1867
93.8757
95.8262
94.1853
95.1896
93.8676
96.0105
94.7261
95.3013
94.5311
96.1097
94.3904
95.8471
96.0433
96.3879
95.5899
96.6865
96.0278
96.4047
96.2386
93.645
94.6196
93.5049
95.1725
93.6359
94.7623
93.4971
94.7554
95.8338
96.3732
94.2451
94.7392
96.1441
96.7809
95.3302
95.4134
95.1334
95.0006
95.3302
95.4279
95.1583
93.4839
95.7227
93.4856
95.0049
93.4859
95.7386
93.4774
101.437
96.7628
97.4782
106.433
102.651
110.548
96.162
97.4031
95.3091
95.7793
106.081
97.535
95.1582
96.0193
93.5181
96.8882
94.2005
95.9941
93.5131
96.9109
94.1971
96.4591
99.3705
103.172
96.6635
95.8994
92.3952
104.206
97.3709
96.7099
96.8259
96.4622
97.3702
96.7073
96.9689
94.4316
98.3788
95.6275
97.1907
94.4523
98.3624
95.6171
216.037
102.238
99.6857
98.1196
153.774
98.498
99.9591
99.2288
99.4747
100.02
101.929
99.2294
99.5556
100.07
96.0245
99.9645
96.1423
98.9079
96.0074
99.943
96.1646
102.603
113.834
104.01
99.3882
104.685
104.968
104.365
100.7
101.052
101.124
101.581
100.603
101.055
101.211
96.2182
100.685
96.2951
100.425
96.2494
100.67
96.2877
103.637
108.142
101.133
116.807
103.38
108.178
101.314
101.256
101.687
111.664
107.842
101.494
101.884
104.738
96.3049
99.1129
96.1084
100.47
96.2945
99.2721
96.1112
95.8758
108.295
88.5509
113.543
96.7563
107.964
87.7133
99.4806
99.7946
99.1806
100.277
99.5549
99.8631
99.3178
95.4228
96.1471
94.6777
98.2433
95.4142
96.1263
94.6688
92.3682
104.897
145.048
105.018
93.2596
104.243
121.488
95.0832
95.7238
98.2166
96.5984
95.0687
95.7189
97.6072
94.2401
95.5636
93.9643
95.6822
94.2323
95.5639
93.9572
98.2243
100.142
96.5851
97.5816
96.5445
98.7493
100.124
97.6449
97.5825
96.8233
96.9894
97.579
96.8327
97.6371
97.9012
96.7303
96.8746
95.9692
96.6762
96.8838
97.8813
98.3857
101.802
101.264
98.1578
98.1452
98.3968
101.253
98.2977
97.569
100.097
96.5118
96.5067
98.3182
100.11
97.6413
97.0011
97.5677
96.8267
97.5753
96.8307
97.6379
97.9162
95.9469
96.6588
96.8876
96.6574
96.8914
97.9143
95.9862
96.4951
95.822
96.0218
96.5058
95.6773
95.9275
95.7225
95.6151
95.5241
95.3324
95.6184
95.491
95.7052
95.7694
95.764
95.5837
95.5386
95.7284
95.5909
95.7494
95.9514
96.7725
96.3827
96.4889
96.3917
96.2587
95.9603
96.0104
96.0068
96.542
95.6085
96.5343
95.6365
96.0105
95.721
95.3497
95.6237
95.511
95.6273
95.5048
95.7231
95.76
95.5538
95.7107
95.5835
95.7063
95.5885
95.7613
95.7376
95.5397
95.8298
95.7836
95.5525
95.842
95.8152
95.5259
96.1873
95.655
95.7296
96.0006
95.6594
95.5794
96.0435
95.8558
95.6929
95.7764
95.8692
95.7129
96.3249
95.36
94.9793
95.4082
95.1374
95.409
95.1361
95.3561
95.5742
95.7883
95.55
95.8351
95.5548
95.8454
95.6799
95.5124
95.7314
95.8845
95.6652
95.9356
95.6717
95.5717
95.9236
95.7774
95.8603
95.6914
95.8675
95.7679
95.9612
95.8111
95.5306
95.9324
95.8212
95.3968
95.9565
95.8174
96.1462
95.0627
97.323
96.433
95.2838
96.3141
96.3522
96.0958
96.364
96.3422
96.8467
96.3379
96.3592
96.094
98.2634
96.0278
95.3084
95.8068
95.3236
95.7966
98.0172
95.8033
95.8869
95.5172
95.9571
95.5755
95.9608
95.8059
96.108
96.2842
95.2189
96.3093
95.2051
96.3816
96.1559
96.108
96.8294
96.3308
96.2541
96.3801
96.4351
96.0912
97.582
97.1186
97.5531
97.1145
96.9657
97.556
97.6892
98.5507
108.484
98.7644
98.0183
104.25
98.8515
98.7573
97.9955
98.0937
98.5829
98.3742
98.056
98.5376
98.1688
97.3617
97.4174
96.7319
97.1392
96.7942
97.4696
97.3954
97.4975
97.138
96.9301
97.5362
96.9547
97.6191
97.4324
98.7145
98.9525
99.4067
98.7766
105.476
98.7495
98.3426
97.9928
98.4551
98.0525
98.5286
98.0933
98.5389
97.9877
99.573
99.3955
99.1478
98.9162
99.3973
99.129
99.5797
100.228
100.432
100.396
100.856
100.752
100.304
100.286
100.096
99.7627
100.174
99.9813
99.7471
100.174
100.102
99.4051
99.3204
99.0099
101.296
99.0056
106.409
99.3664
99.5779
98.999
99.4196
99.105
99.4322
99.1573
99.5783
100.217
100.812
100.239
100.237
100.178
100.301
100.28
100.092
99.9294
99.7406
100.198
99.7665
100.168
100.107
100.551
100.725
100.513
100.721
100.689
100.495
100.753
101.321
103.455
101.565
102.415
103.299
101.534
101.321
100.98
100.925
101.32
100.892
100.942
101.203
101.155
100.476
102.312
101.249
100.269
101.487
101.066
100.424
100.555
100.506
100.605
100.469
100.706
100.559
100.563
101.317
102.274
102.523
101.523
102.373
101.531
101.303
100.97
100.973
100.93
101.196
101
101.204
100.998
100.97
101.167
100.642
100.826
101.138
100.647
101.038
104.023
103.007
100.92
101.745
102.121
100.918
105.125
100.184
100.404
100.509
99.7329
100.397
100.482
102.845
101.258
101.863
101.7
102.365
101.705
102.305
101.133
100.97
100.843
101.143
100.645
101.138
100.649
100.871
103.739
101.741
101.806
100.854
101.858
101.182
103.909
100.348
99.7396
100.398
100.537
100.398
100.529
101.075
99.0042
99.5427
98.6994
99.1225
99.5472
98.7196
98.9934
97.4837
95.3333
96.6992
97.4417
95.1853
96.7043
97.5403
98.1315
97.6328
97.1196
96.8051
97.6223
97.1515
98.1155
99.2207
100.397
99.8131
99.1216
99.6981
99.386
99.334
99.0047
99.1327
99.5386
98.7297
99.5458
98.7239
98.999
97.5731
97.5438
96.1069
96.6815
95.164
96.6965
97.4714
98.139
96.7683
97.6125
97.1579
97.6165
97.1612
98.1462
96.6492
96.8892
95.8244
96.0233
96.9022
95.667
96.6929
97.2698
107.043
98.6432
100.29
107.177
97.346
98.6476
95.834
94.6583
97.6356
97.0945
94.6231
95.885
97.6876
95.1477
97.1112
95.5226
98.3814
95.5319
98.5541
95.1394
96.67
95.986
96.9338
95.6145
96.9267
95.6393
96.6842
97.111
100.375
107.629
98.6389
107.364
96.8721
98.6552
95.8024
97.0986
94.6889
97.7849
94.6574
95.7628
97.7228
98.3362
100.09
96.5148
97.5691
98.3602
96.5226
100.081
97.6349
97.5188
96.824
96.96
97.636
97.5329
96.8248
97.9061
96.6562
96.8823
95.9434
97.9116
96.6613
96.8818
98.417
101.957
101.279
98.3834
98.3713
98.3987
101.285
98.3093
97.5652
100.086
96.5381
96.5334
98.2826
100.083
97.6331
96.9207
97.4898
96.8208
97.4577
96.8246
97.6296
97.9016
95.9476
96.6665
96.8845
96.6643
96.8845
97.8989
95.9919
96.5594
95.5855
95.9487
95.9961
96.5707
95.5892
95.7506
95.633
95.5497
95.3613
95.7452
95.6326
95.5353
95.7666
95.7069
95.5823
95.5761
95.7621
95.7104
95.5843
95.9945
96.6414
96.3934
95.6038
96.406
95.7115
96.0092
95.9933
95.944
96.5592
95.6024
96.5602
95.6143
95.9836
95.756
95.3724
95.6521
95.5592
95.6919
95.5308
95.7876
95.7672
95.5783
95.7165
95.5769
95.7117
95.5837
95.7646
95.6558
95.5444
95.8313
95.7906
95.6641
95.5385
95.8271
95.427
95.838
95.6803
95.6982
95.4557
95.8125
95.6729
96.014
95.8538
95.6919
95.7726
95.9953
95.8493
95.7039
95.3407
94.9895
95.4078
95.1582
95.404
95.1412
95.3393
95.6574
95.7873
95.4925
95.8168
95.5164
95.8246
95.6306
95.5677
95.6982
95.771
95.6553
96.1567
95.6616
95.3819
96.0369
95.7782
95.8387
95.7629
95.8438
95.7113
96.0176
95.8623
95.3813
95.9596
95.7852
95.8318
95.6578
95.9679
96.1707
95.63
96.2893
96.4217
96.1618
95.7617
96.2649
96.1025
96.37
96.2665
96.6791
96.1097
96.343
96.2413
97.6319
96.2
95.2576
96.1541
95.293
96.0464
97.9959
95.869
95.7896
95.3912
96.7723
95.6046
95.899
95.8177
96.1911
96.4063
96.2784
96.2121
96.2374
96.2633
96.1877
96.1176
96.7737
96.3399
96.2426
96.3581
96.2712
96.1524
97.4085
96.9278
97.588
97.101
97.4159
96.9182
97.5276
98.4667
101.001
98.7989
98.1496
98.5492
96.5266
98.8244
97.9607
98.111
98.5287
98.3335
97.9765
98.0227
98.5296
97.3298
96.4165
96.7054
97.3087
96.6873
97.1426
97.3564
97.4094
97.1533
96.9183
97.5212
96.9173
97.5383
97.4147
98.381
98.1524
97.0325
99.0166
96.7798
98.8421
98.3564
97.9522
98.3682
98.041
98.5539
98.0894
98.5298
97.9399
99.5831
99.4272
99.1558
98.8672
99.5798
99.4392
99.1202
100.208
100.274
100.233
100.708
100.237
99.9833
100.149
100.106
99.7406
100.164
99.9743
100.133
99.7528
100.157
99.152
97.9813
99.3701
99.8997
99.2602
99.6855
99.2039
99.6107
98.8552
99.5287
99.1045
99.4568
99.1328
99.5683
100.192
100.705
100.081
100.152
99.9479
100.15
100.196
100.085
99.9416
99.732
100.165
99.7619
100.193
100.109
100.589
100.62
100.536
100.492
100.567
100.686
100.474
101.238
102.79
101.617
101.746
101.312
102.78
101.62
100.984
100.938
101.194
100.873
101.02
100.907
101.213
100.614
102.615
101.071
101.716
101.082
100.999
100.63
100.59
100.447
100.669
100.484
100.652
100.541
100.628
101.287
101.749
102.811
101.604
102.775
101.566
101.338
101.011
100.856
100.89
101.221
100.945
101.2
101.008
100.877
101.146
100.643
100.828
100.883
101.149
100.647
103.724
102.967
100.965
101.787
103.814
101.878
100.89
100.609
100.406
100.534
99.7699
100.704
100.408
100.526
101.179
102.03
101.669
104.459
101.681
102.306
101.173
100.888
100.825
101.153
100.653
101.152
100.651
100.879
103.515
101.79
102.155
100.857
102.243
100.876
103.382
100.58
99.7725
100.409
100.507
100.407
100.535
100.814
99.0006
99.5421
98.7308
99.1463
98.9939
99.5519
98.7297
97.6008
99.03
96.6728
97.1977
97.5662
97.8576
96.6527
98.1728
97.6153
97.1624
96.7206
98.1584
97.6116
97.1365
99.516
100.368
99.8039
98.8172
99.8061
98.8829
99.5404
99.0062
99.1404
99.5595
98.7237
99.5599
98.7284
99.01
97.6468
97.9879
99.9464
96.5925
100.103
96.63
97.7184
98.1849
96.7252
97.6122
97.1386
97.6075
97.1497
98.1948
96.6866
96.9439
95.6223
95.964
96.739
96.9649
95.6148
96.1165
116.889
98.6026
171.721
96.5522
111.777
98.5689
95.6961
94.6293
97.8446
97.1271
95.6828
94.5272
97.8433
95.1354
97.0984
95.6924
97.3368
95.6806
97.3726
95.1008
96.7916
96.0159
96.9527
95.6367
97.0266
95.6491
96.688
95.6439
111.95
93.3831
98.5862
93.1127
95.1718
98.5623
95.7387
97.1124
94.3203
98.0513
94.4247
95.6759
97.9616
98.2764
100.092
96.5449
97.5735
98.2755
96.5427
100.101
97.6266
97.2308
96.816
96.8791
97.6249
97.335
96.8168
97.8939
96.6732
96.8831
95.958
97.8942
96.6757
96.8832
98.3516
102.202
101.225
98.3025
98.2807
98.4452
101.249
98.3257
97.5827
100.144
96.5765
96.5573
98.6421
100.122
97.6256
96.894
97.2599
96.81
97.2865
96.8191
97.617
97.8908
95.9782
96.7408
96.8816
96.6934
96.8838
97.885
95.9893
96.5231
95.6045
95.9862
95.9833
96.5025
95.6479
95.7782
95.6598
95.5946
95.3932
95.7912
95.6575
95.5315
95.7582
95.7232
95.5725
95.5676
95.7611
95.7211
95.5794
96.0523
96.638
96.4606
96.4561
96.4209
95.7666
96.0497
95.9631
96.0265
96.5403
95.7932
96.4873
95.6935
95.936
95.8457
95.3559
95.64
95.5663
95.6475
95.539
95.8517
95.7518
95.5496
95.789
95.5801
95.7227
95.5857
95.7638
95.6426
95.4845
95.8207
95.7685
95.6437
95.4943
95.8201
95.4329
97.0072
95.6546
97.3887
95.4193
96.2187
95.6363
95.974
95.8458
95.7111
95.789
95.9714
95.8519
95.7059
95.4156
95.016
95.4345
95.148
95.4259
95.1518
95.3672
95.7971
95.7614
95.4953
95.8099
95.5049
95.8212
95.7096
95.4184
95.524
95.8778
95.7041
96.2176
95.6388
95.4458
96.026
95.7891
95.86
95.7068
95.8624
95.7059
95.9669
95.85
95.6938
96.2254
95.7945
95.8314
95.6981
96.3523
96.2631
97.6093
96.3087
99.6154
96.2688
99.7511
96.395
96.1945
96.3841
96.2489
96.5822
96.1642
96.3352
96.246
97.5493
89.1499
95.4141
102.309
95.1516
96.3746
99.0706
96.5738
95.8064
95.3786
96.3264
95.4903
96.3602
96.2597
96.5926
94.9995
98.0827
96.3248
98.0372
96.1599
96.4517
96.1925
96.6254
96.3497
96.2578
96.3396
96.2475
96.1988
97.4366
96.9008
97.5311
97.1028
97.4195
97.0199
97.5155
98.3943
96.9131
98.9006
98.2792
98.561
97.0561
98.8954
97.9064
98.0651
98.565
98.3656
97.9265
98.0403
98.5502
97.3996
96.4498
96.7893
97.1453
96.7093
97.3398
98.106
97.4428
97.0974
96.9174
97.516
96.9226
97.5139
97.538
98.4016
98.2408
98.4271
98.9276
97.3073
98.9272
98.3925
97.8962
98.3684
98.0902
98.6028
98.0413
98.6331
97.9812
99.5412
99.4887
99.1315
98.955
99.5569
99.4961
99.1057
100.144
100.059
100.148
100.666
100.224
100.1
100.102
100.084
99.7553
100.165
100.014
100.086
99.7529
100.141
99.2937
102.18
99.682
102.138
99.608
99.2487
99.2387
99.5407
98.9226
99.5386
99.1848
99.5062
99.1063
99.5786
100.12
100.683
100.294
100.332
100.039
100.075
100.146
100.119
99.9491
99.7654
100.178
99.752
100.123
100.107
100.628
100.648
100.507
100.421
100.623
100.63
100.484
101.843
102.376
101.537
106.202
101.175
105.135
101.651
101.012
100.908
101.22
100.889
101.01
100.877
101.236
100.674
101.541
101.111
101.587
101.043
102.171
100.683
100.681
100.672
100.656
100.575
100.681
100.491
100.674
101.598
105.865
108.382
101.739
103.354
101.69
101.564
101.006
100.87
100.899
101.314
100.884
101.223
101.078
100.974
101.153
100.657
100.827
100.996
101.156
100.663
102.725
102.524
100.633
101.814
103.249
102.293
100.406
100.28
100.408
100.501
99.7766
100.461
100.417
100.521
101.656
107.135
101.908
109.131
102.073
105.47
101.377