/*--------------------------------*- C++ -*----------------------------------*\
| =========                 |                                                 |
| \\      /  F ield         | OpenFOAM: The Open Source CFD Toolbox           |
|  \\    /   O peration     | Version:  5.0                                   |
|   \\  /    A nd           | Web:      www.OpenFOAM.org                      |
|    \\/     M anipulation  |                                                 |
\*---------------------------------------------------------------------------*/
FoamFile
{
    version     2.0;
    format      ascii;
    class       surfaceScalarField;
    location    "2.1";
    object      phi;
}
// * * * * * * * * * * * * * * * * * * * * * * * * * * * * * * * * * * * * * //

dimensions      [0 3 -1 0 0 0 0];

internalField   nonuniform List<scalar> 
27415
(
4.79002e-11
-2.03349e-09
3.5421e-09
4.20763e-09
-4.01425e-09
-2.12498e-09
-1.0539e-08
1.63879e-08
1.10104e-08
-1.57337e-08
-2.65077e-09
5.60969e-10
-4.07065e-09
7.46442e-09
-1.53194e-08
2.29103e-08
-7.24342e-09
-1.5181e-09
2.63884e-09
-1.82812e-09
-3.21418e-09
3.38056e-09
-1.4399e-09
-2.40052e-09
-2.87371e-10
-8.67962e-10
4.13823e-10
-7.51654e-11
-4.20197e-10
-4.8821e-11
2.01605e-10
-2.44729e-12
5.43923e-12
-3.08431e-11
-9.67409e-11
-5.20366e-11
1.30906e-09
-2.35885e-11
-3.21951e-11
-2.38304e-10
-2.25632e-10
-4.04757e-10
-3.80226e-10
1.32067e-09
1.44103e-12
-1.31658e-12
1.33745e-09
-3.43461e-12
-1.36115e-14
1.34891e-09
-1.25597e-12
-1.09003e-13
1.358e-09
-8.62558e-13
-7.95966e-14
1.3643e-09
-5.68693e-13
4.13352e-13
1.36728e-09
-5.28805e-13
-1.95299e-13
1.36942e-09
-2.4264e-13
8.95825e-14
1.3712e-09
-7.09337e-13
1.26669e-13
1.37202e-09
-3.00855e-14
3.53085e-14
1.37248e-09
2.6525e-13
-4.28624e-14
1.37302e-09
-3.21805e-13
1.89518e-14
1.3734e-09
5.64731e-14
2.16888e-13
1.37369e-09
5.84573e-14
6.3217e-13
1.37347e-09
-9.65935e-15
-4.61218e-14
1.3732e-09
1.94815e-13
2.76201e-13
1.37331e-09
-3.21615e-13
1.06691e-13
1.37343e-09
4.37598e-13
-7.4997e-13
1.37344e-09
7.79555e-13
-6.5754e-13
1.37379e-09
8.4954e-13
-1.29758e-12
1.37355e-09
1.65071e-13
4.31287e-14
1.37337e-09
-1.74026e-13
-1.09983e-12
1.37337e-09
2.00211e-13
-5.39025e-13
1.37247e-09
-8.22018e-13
3.64501e-12
1.37263e-09
-5.11559e-13
2.59285e-12
1.37339e-09
-1.21903e-12
1.46321e-12
1.3739e-09
-2.53455e-12
1.97652e-12
1.37346e-09
2.31722e-13
7.98551e-14
1.37304e-09
2.07018e-13
3.76308e-13
1.37243e-09
1.64678e-13
2.64768e-14
1.37227e-09
4.01062e-13
-4.97411e-13
1.37399e-09
-2.76903e-12
5.22562e-13
1.37325e-09
4.56709e-13
9.99627e-14
1.37301e-09
5.20586e-14
1.49464e-13
1.3732e-09
-9.977e-14
-2.09137e-13
1.37439e-09
2.37797e-12
-1.34211e-13
1.37265e-09
3.66086e-12
-1.88273e-12
1.37281e-09
-4.69122e-13
-7.02992e-15
1.3731e-09
7.84286e-14
-4.49222e-13
1.37328e-09
1.12191e-14
-6.94279e-15
1.37322e-09
-2.1288e-14
1.52047e-13
1.37252e-09
-7.06204e-13
1.01294e-12
1.30863e-12
-1.21247e-12
3.27829e-09
9.76311e-09
2.27924e-09
-8.3272e-09
1.02875e-09
8.96854e-09
-1.67983e-08
3.91926e-09
-5.98035e-10
4.07929e-08
-1.50745e-08
2.29271e-08
-4.04364e-08
-8.86179e-10
-1.1936e-09
2.51152e-11
-1.35091e-09
-1.65222e-09
-3.07835e-09
5.76585e-10
-8.50451e-09
-2.48548e-09
-1.48035e-09
-3.15287e-09
3.30404e-09
3.81006e-09
4.53872e-09
3.59349e-10
2.19803e-09
6.24061e-09
-4.87866e-09
2.3664e-09
2.82256e-10
2.46048e-09
-5.07507e-09
-3.40666e-11
9.77026e-10
1.36957e-09
-5.173e-11
-3.92526e-09
1.63039e-09
-9.20422e-11
-2.18137e-10
8.6297e-11
-1.41638e-10
3.65519e-10
-3.22177e-11
6.23871e-14
-2.45247e-13
9.23299e-12
2.31687e-11
1.32505e-09
-4.45577e-12
-3.18342e-11
-2.34639e-10
-2.3099e-10
-4.06282e-10
-3.98452e-10
-1.12728e-11
-9.40323e-12
-2.13292e-11
1.32653e-09
6.80163e-13
-7.81995e-13
1.34135e-09
-1.8031e-11
-2.51139e-13
1.35129e-09
-1.12693e-11
4.02215e-14
1.35906e-09
-8.6955e-12
8.96613e-15
1.36435e-09
-5.89573e-12
-1.46455e-14
1.36777e-09
-4.02209e-12
1.94317e-14
1.37011e-09
-2.63378e-12
1.19373e-14
1.37126e-09
-1.67226e-12
-2.36102e-13
1.37223e-09
-1.04559e-12
-3.28838e-15
1.37268e-09
-1.93694e-12
1.70767e-12
1.37281e-09
2.05466e-12
-2.54941e-12
1.37308e-09
-4.18154e-13
1.542e-13
1.37317e-09
-2.24615e-13
1.54136e-13
1.37325e-09
-9.44622e-14
-3.67107e-14
1.37371e-09
3.5005e-13
-6.55167e-13
1.37409e-09
-7.21767e-13
-2.13457e-14
1.37392e-09
-5.29022e-14
6.28705e-13
1.37352e-09
-3.13404e-14
1.17639e-12
1.37309e-09
-3.78512e-14
1.28113e-12
1.37333e-09
-1.72916e-13
6.97257e-14
1.37251e-09
-7.74764e-13
1.38668e-12
1.37286e-09
-8.39932e-14
-9.28427e-14
1.37322e-09
3.31069e-13
-1.54493e-12
1.3735e-09
5.0245e-13
-1.31473e-12
1.37364e-09
-3.3377e-12
1.95978e-12
1.37382e-09
-4.50026e-12
1.76458e-12
1.373e-09
1.09785e-12
-6.08006e-14
1.37324e-09
-7.14963e-14
1.69563e-14
1.37364e-09
-1.36537e-13
-1.16022e-13
1.37376e-09
1.70564e-13
9.93257e-14
1.37217e-09
-9.57683e-13
-2.31042e-13
1.37248e-09
2.61301e-13
-1.1766e-13
1.3725e-09
5.38282e-14
-3.67685e-14
1.37193e-09
1.37727e-13
3.26792e-13
1.37278e-09
8.39891e-13
6.86401e-13
1.37442e-09
9.38711e-14
1.92223e-12
1.37327e-09
-5.15738e-13
1.19103e-12
1.37296e-09
-1.693e-14
4.10642e-13
1.37323e-09
-8.14379e-13
5.45316e-13
1.37291e-09
3.38608e-13
-3.60851e-14
1.37321e-09
1.80068e-13
-1.19216e-12
-1.70323e-13
1.26717e-12
1.80987e-09
-1.15678e-09
-3.07733e-09
2.61521e-09
2.38925e-09
2.30511e-09
-3.40348e-10
-1.45988e-09
-1.2965e-09
-6.54324e-10
-1.54127e-09
-8.09835e-09
1.94871e-09
9.48819e-09
-2.31946e-09
1.42132e-09
-7.10313e-10
1.16625e-09
-2.89637e-09
2.50615e-09
-5.39207e-10
7.67127e-11
4.58148e-10
2.55524e-09
-6.12366e-09
-3.84967e-09
4.91624e-09
1.09189e-10
-5.59581e-10
-7.94226e-10
1.18292e-09
6.17001e-11
-3.33007e-11
6.72537e-11
-3.29885e-12
1.17157e-10
-1.47809e-10
-1.35465e-10
1.76631e-11
-1.64818e-11
9.36841e-11
4.05995e-11
-1.72365e-10
1.80603e-10
-9.64162e-12
-3.05603e-12
1.31437e-09
-5.96639e-11
-2.03763e-11
-2.29838e-10
-2.34454e-10
-3.80971e-10
-3.88404e-10
1.34064e-09
-4.24228e-11
-1.9219e-12
1.35479e-09
-2.60768e-11
6.21612e-13
1.36276e-09
-1.67257e-11
1.10374e-14
1.36735e-09
-1.05936e-11
6.39772e-14
1.36996e-09
-6.71179e-12
2.93081e-14
1.37147e-09
-4.2229e-12
2.92406e-14
1.37234e-09
-2.67181e-12
8.77774e-14
1.373e-09
-1.78974e-12
3.48563e-14
1.37374e-09
-2.07015e-12
-6.56271e-13
1.37304e-09
2.15316e-13
2.49247e-12
1.37337e-09
-6.0677e-13
-1.83455e-13
1.37369e-09
-4.20663e-13
-1.63273e-13
1.37372e-09
-1.77074e-13
1.58086e-14
1.37366e-09
-1.58046e-13
5.22977e-13
1.37294e-09
7.84029e-14
-1.14669e-13
1.37316e-09
-2.64163e-13
-4.37846e-14
1.37328e-09
-2.03331e-13
1.12747e-14
1.37317e-09
2.05203e-13
-1.68342e-13
1.37281e-09
-8.26056e-14
2.39374e-13
1.37332e-09
6.65719e-13
-1.97982e-12
1.37386e-09
1.04679e-12
-1.69862e-12
1.37363e-09
4.93422e-13
3.59508e-14
1.37454e-09
6.72878e-13
-1.09525e-12
1.37313e-09
-7.777e-14
-1.87582e-12
1.37246e-09
1.57692e-13
-4.01343e-12
1.37337e-09
1.57305e-13
1.33092e-14
1.37339e-09
-1.87518e-13
8.53484e-14
1.37325e-09
-2.25246e-14
1.44872e-14
1.37307e-09
-9.91828e-14
4.36745e-13
1.3728e-09
-3.55549e-13
-3.49126e-13
1.37275e-09
9.67897e-13
-6.64982e-13
1.37216e-09
6.24913e-13
1.58114e-14
1.37229e-09
-1.63452e-14
1.54091e-14
1.37234e-09
5.36133e-13
2.51319e-13
1.37418e-09
-1.99725e-12
2.40379e-13
1.374e-09
4.75542e-13
-8.14708e-13
1.37361e-09
6.26523e-13
-2.47185e-13
1.37294e-09
4.34685e-13
-5.84109e-13
1.37275e-09
5.95764e-13
-6.56912e-14
1.37261e-09
2.33949e-13
7.93882e-14
-1.38287e-12
5.65466e-13
-6.79731e-10
2.06067e-09
-6.30827e-09
6.4816e-10
1.86923e-09
2.19067e-09
4.10247e-10
1.94896e-09
2.26386e-09
2.70757e-09
-7.04146e-09
1.21078e-10
-1.14557e-09
3.29065e-09
-1.52563e-09
-4.40543e-10
-1.78899e-10
-1.22555e-09
6.68098e-09
1.49133e-10
-4.50856e-10
4.28108e-08
-1.82283e-08
8.74016e-09
-3.23729e-08
5.43876e-11
-4.47476e-09
-1.68201e-09
4.22878e-10
6.26927e-10
-1.36128e-12
-6.86001e-10
-3.62443e-10
8.61721e-11
3.67911e-10
-1.2591e-11
4.46874e-11
-4.86181e-10
-1.82529e-11
-5.23208e-12
-2.47691e-11
-5.02556e-11
9.85095e-11
-2.97145e-11
1.88692e-10
-2.33832e-11
-6.71267e-12
-3.11279e-11
-5.55871e-11
-5.92084e-11
1.70425e-11
1.35867e-09
-8.26088e-11
-2.36707e-11
-2.43358e-10
-2.49344e-10
-4.02413e-10
-4.16959e-10
1.36864e-09
-5.00669e-11
-2.34733e-12
1.37192e-09
-2.99232e-11
5.2891e-13
1.37346e-09
-1.83381e-11
3.5598e-14
1.37401e-09
-1.12545e-11
5.89596e-14
1.37418e-09
-6.93511e-12
1.22274e-14
1.37414e-09
-4.24149e-12
1.76539e-14
1.37394e-09
-2.52384e-12
4.18179e-15
1.37379e-09
-1.65944e-12
-3.21598e-14
1.37353e-09
-9.64011e-13
-8.94526e-13
1.37395e-09
-3.49702e-13
1.01293e-13
1.374e-09
-7.57771e-13
5.81687e-14
1.37384e-09
-3.97972e-13
9.52602e-14
1.37371e-09
-1.09419e-13
2.36647e-14
1.3737e-09
-2.42941e-13
5.65691e-14
1.37383e-09
-1.15681e-13
1.96169e-14
1.37344e-09
-1.28149e-14
1.02389e-13
1.37332e-09
-1.59194e-13
4.22006e-14
1.37334e-09
-3.56493e-14
1.86306e-13
1.37359e-09
7.6619e-13
-1.12751e-12
1.3741e-09
1.14001e-12
-1.01829e-12
1.37306e-09
4.9302e-13
1.56713e-12
1.37316e-09
4.69132e-13
-1.04934e-13
1.37301e-09
3.66993e-13
4.35752e-13
1.37308e-09
-1.98865e-13
2.79357e-14
1.37318e-09
-5.7821e-14
9.39072e-14
1.37319e-09
3.26689e-13
-1.95101e-13
1.37311e-09
-1.9813e-14
-1.0133e-13
1.37324e-09
-1.65293e-13
-6.48176e-15
1.37319e-09
-3.07061e-13
2.50112e-13
1.37289e-09
-4.89004e-13
4.22652e-13
1.37263e-09
1.12342e-12
9.48164e-14
1.37318e-09
4.03885e-14
3.04577e-14
1.37325e-09
-1.17428e-12
1.07405e-12
1.37338e-09
6.9842e-13
-2.89049e-13
1.37266e-09
-1.61601e-12
3.31207e-13
1.37331e-09
3.50271e-14
-2.10316e-13
1.37369e-09
-6.43542e-15
2.43083e-13
1.37328e-09
1.51523e-12
-6.65352e-13
1.37224e-09
1.48012e-12
1.54458e-13
1.37254e-09
-2.30623e-14
-4.39053e-14
-1.84355e-12
5.81842e-13
2.14843e-09
1.96045e-09
-1.59697e-09
-4.68368e-09
4.69105e-10
2.12687e-08
-1.93743e-08
2.71105e-09
2.89511e-10
3.66493e-09
-2.51469e-09
-4.1508e-09
-5.03486e-09
-1.86708e-10
-1.13597e-09
-4.19295e-09
9.52284e-09
-1.45207e-08
3.4533e-08
-1.86265e-08
1.2879e-09
-2.61753e-09
9.70342e-10
2.37593e-09
-8.13503e-10
2.19925e-09
1.41508e-09
-5.17676e-09
-2.22273e-09
-4.13188e-10
3.28116e-10
1.00568e-08
-7.74898e-09
3.2506e-11
1.75041e-10
-8.2248e-11
-1.24351e-10
-9.4893e-13
-5.34964e-11
3.48789e-11
-7.29146e-11
-9.4342e-12
1.00966e-10
-3.7453e-11
2.05795e-10
-2.96053e-11
1.61121e-11
-3.73694e-11
-6.95819e-11
-6.92473e-11
2.13494e-11
1.41638e-09
-6.03641e-11
-2.55415e-11
-2.60834e-10
-2.70039e-10
-4.31036e-10
-4.51177e-10
1.40204e-09
-3.35659e-11
-2.19838e-12
1.39153e-09
-2.00535e-11
5.93154e-13
1.38532e-09
-1.21632e-11
-7.81395e-15
1.38148e-09
-6.58106e-12
-8.79855e-13
1.37893e-09
-4.45004e-12
1.83494e-14
1.37708e-09
-2.63789e-12
2.05875e-13
1.37546e-09
-6.04268e-13
-3.51879e-13
1.3749e-09
-1.16069e-12
1.60373e-14
1.37418e-09
-2.32443e-13
-5.07321e-14
1.37386e-09
-3.70109e-13
2.92121e-13
1.37454e-09
-1.56718e-12
9.41599e-14
1.37388e-09
1.97089e-13
1.59676e-14
1.37398e-09
-5.11063e-13
2.60042e-13
1.37374e-09
1.64682e-13
-2.05472e-13
1.37371e-09
-1.45078e-13
2.49198e-14
1.37367e-09
-9.00731e-15
-1.03848e-14
1.37384e-09
-2.53108e-13
-1.08368e-13
1.37384e-09
-6.18293e-14
-8.69644e-15
1.37369e-09
-2.91946e-13
1.1745e-12
1.37298e-09
3.5069e-13
1.4771e-12
1.37298e-09
3.34774e-13
1.26112e-13
1.37362e-09
-9.76279e-14
-9.98027e-14
1.37291e-09
1.68089e-12
-6.31194e-13
1.37299e-09
5.5207e-14
-3.51078e-13
1.37308e-09
-1.43855e-13
-2.21749e-14
1.37304e-09
1.46096e-13
2.02805e-13
1.37301e-09
-2.45602e-14
1.76431e-14
1.37269e-09
6.68694e-13
-5.32089e-13
1.37274e-09
-1.34125e-14
-3.50628e-13
1.37276e-09
-2.55571e-13
-2.68122e-13
1.37335e-09
7.8631e-14
4.41367e-13
1.37325e-09
4.30226e-13
-2.96742e-13
1.37323e-09
4.21316e-13
-1.58092e-12
1.37357e-09
2.53317e-13
1.07275e-13
1.37287e-09
-5.08495e-13
-4.16728e-13
1.37305e-09
-1.94967e-15
-1.4387e-13
1.37336e-09
-3.78675e-13
5.87743e-14
1.37419e-09
-1.03572e-12
1.71863e-12
1.37223e-09
3.82651e-12
-3.85316e-13
1.37247e-09
-7.61548e-13
4.99355e-13
-2.02863e-13
-8.40702e-13
-9.42954e-10
-8.40382e-09
-8.60833e-10
2.22552e-09
-1.36454e-09
-1.73621e-09
-1.85811e-10
2.76514e-09
3.86151e-09
2.94059e-09
9.52713e-09
-1.11985e-08
4.76069e-09
7.25129e-10
1.25023e-10
-2.03118e-09
2.38134e-10
-7.82667e-11
-3.81507e-11
3.95428e-11
-3.23945e-09
3.31633e-09
-2.40029e-09
7.99076e-09
-1.28205e-09
-1.65897e-09
-2.89627e-09
-1.38422e-09
-2.14971e-09
-4.76481e-09
-9.48659e-09
2.72937e-08
-9.26157e-09
3.80365e-10
4.10384e-10
-1.96945e-09
5.64514e-09
-4.46644e-09
-5.05357e-11
7.07259e-10
-1.02749e-09
-9.81437e-10
1.35221e-09
-1.57664e-10
1.03786e-10
-5.60851e-11
-9.33618e-11
2.03325e-10
-4.68413e-11
2.37244e-10
-4.19016e-12
9.68964e-12
2.00066e-11
-4.43e-11
-9.17396e-11
-7.98694e-11
1.46314e-09
5.22391e-12
-2.92426e-11
-2.82207e-10
-2.79874e-10
-4.7107e-10
-4.66347e-10
1.42869e-09
3.91361e-12
-3.09999e-12
1.40672e-09
1.58042e-12
2.81567e-13
1.39396e-09
9.31575e-13
-3.87665e-13
1.38595e-09
5.11798e-13
8.70922e-13
1.38114e-09
3.27742e-13
-1.22952e-14
1.37839e-09
2.68931e-13
-2.04546e-13
1.37716e-09
2.24194e-13
3.62831e-13
1.37595e-09
-1.69156e-15
1.3449e-14
1.37518e-09
8.05719e-13
-3.16205e-13
1.37511e-09
-8.65823e-14
-2.56393e-13
1.3737e-09
-1.44507e-13
-4.97316e-14
1.37416e-09
4.1656e-13
-7.25442e-13
1.37382e-09
6.67746e-16
-2.17636e-13
1.3737e-09
9.07657e-14
1.55347e-13
1.37342e-09
-1.5373e-14
1.14032e-13
1.37331e-09
4.98929e-13
-4.32599e-13
1.37401e-09
8.49682e-13
-1.84407e-12
1.37398e-09
-5.08011e-14
-1.78774e-14
1.37393e-09
1.85763e-13
-4.56932e-13
1.37355e-09
8.7582e-13
-1.75319e-13
1.37237e-09
3.64401e-12
-2.15229e-12
1.37256e-09
-3.50688e-13
3.64669e-14
1.37347e-09
-8.02344e-13
1.54425e-12
1.37321e-09
1.25537e-13
1.67464e-13
1.37305e-09
2.48574e-13
-2.52675e-13
1.37288e-09
8.57395e-13
-5.58857e-13
1.37299e-09
-5.77463e-14
-8.74331e-14
1.37314e-09
-1.74189e-13
6.79221e-13
1.37304e-09
3.27892e-14
3.69482e-14
1.37302e-09
-6.7631e-13
4.27098e-13
1.37352e-09
-6.12559e-13
1.83129e-13
1.37332e-09
2.12929e-13
4.10967e-13
1.3731e-09
5.71598e-13
6.92117e-14
1.37307e-09
3.6031e-13
-8.65135e-14
1.37245e-09
1.10556e-13
-7.12096e-15
1.37241e-09
2.15086e-15
3.40636e-14
1.37224e-09
-1.10164e-13
-9.50107e-14
1.37209e-09
1.47602e-12
-2.36255e-12
1.37453e-09
1.16622e-12
2.16622e-13
1.37377e-09
-7.03148e-13
6.97387e-13
-7.84065e-13
1.67921e-12
1.09246e-09
-4.7501e-09
-1.73927e-09
-1.86935e-10
-1.8984e-09
4.6744e-10
3.07208e-09
-1.06432e-09
-5.10301e-09
4.18764e-09
-7.77285e-10
2.09096e-10
-7.9984e-11
6.69292e-10
-2.1118e-11
1.65526e-10
-3.78799e-10
-1.88507e-10
1.73089e-09
-1.32912e-09
-1.59089e-09
2.98173e-09
-1.15471e-09
2.35554e-10
-5.92563e-10
6.92421e-10
5.04108e-10
-1.79379e-10
1.10825e-10
-8.93703e-11
5.34538e-10
-9.89063e-10
-7.12498e-10
2.49288e-10
-4.35868e-11
-5.19817e-10
5.18003e-10
6.4988e-10
-6.04479e-10
-1.91625e-10
8.12135e-11
-9.85947e-12
-1.01034e-10
2.21304e-10
-3.99327e-11
-1.45118e-12
2.13116e-10
1.07848e-11
1.21808e-11
-4.19477e-11
-7.33091e-11
-7.94418e-11
1.45296e-09
5.25835e-11
-2.85755e-11
-2.78226e-10
-2.7489e-10
-4.6327e-10
-4.55382e-10
1.42371e-09
3.55828e-11
-2.50933e-12
1.40435e-09
2.05186e-11
3.58737e-13
1.39269e-09
1.26614e-11
-1.2927e-13
1.38547e-09
7.68683e-12
-9.96636e-15
1.38102e-09
4.74822e-12
-1.77982e-14
1.37829e-09
3.01577e-12
-5.33902e-14
1.3766e-09
1.8819e-12
-6.56647e-15
1.37544e-09
1.09079e-12
1.89982e-14
1.37512e-09
6.3103e-13
4.55202e-13
1.37498e-09
-6.70775e-14
8.29128e-14
1.3745e-09
-1.11987e-13
3.98645e-13
1.37391e-09
2.31445e-13
7.37787e-13
1.37382e-09
5.28757e-14
-8.10868e-15
1.37375e-09
1.67133e-13
-4.70464e-14
1.37375e-09
-2.55314e-14
-2.63181e-14
1.37382e-09
1.35189e-13
2.49877e-13
1.37315e-09
-4.69431e-13
1.95475e-12
1.37352e-09
-5.17074e-13
6.42933e-14
1.37447e-09
-1.0183e-12
2.18592e-13
1.37182e-09
8.18915e-12
-4.68536e-12
1.3731e-09
9.65007e-13
1.36323e-12
1.37335e-09
-7.06784e-13
8.2467e-14
1.37308e-09
-2.76789e-13
-2.77838e-13
1.37319e-09
-1.64091e-13
1.57647e-13
1.37303e-09
3.0969e-13
7.69141e-14
1.37322e-09
-1.87816e-13
8.36513e-13
1.37321e-09
1.47697e-14
-7.4148e-14
1.3732e-09
-2.04601e-13
2.44881e-14
1.37325e-09
-2.90647e-13
2.57145e-13
1.37304e-09
-6.78922e-14
-4.07493e-13
1.37335e-09
-1.27145e-12
3.43255e-13
1.37371e-09
-1.25393e-13
-3.10152e-14
1.3729e-09
9.72098e-13
4.01571e-13
1.37275e-09
5.10711e-13
-6.76465e-15
1.37228e-09
4.52037e-13
1.28338e-13
1.37249e-09
-2.52047e-13
4.31901e-14
1.37232e-09
3.66927e-14
1.4136e-14
1.37278e-09
-7.41153e-13
1.76345e-12
1.37319e-09
6.90155e-13
6.53461e-14
1.37356e-09
-9.96061e-15
-1.06665e-12
-2.832e-13
-1.17876e-12
3.64912e-09
1.48103e-09
3.70228e-09
1.98655e-09
4.90479e-09
4.1232e-09
1.87926e-09
-2.79728e-08
-6.9121e-10
2.18595e-09
4.93254e-10
8.76464e-10
-1.21156e-09
2.11758e-10
-8.64294e-11
4.73537e-09
7.55408e-11
-3.71692e-10
-1.22786e-09
7.09647e-08
-1.18996e-08
-2.70913e-08
-2.92459e-08
-7.89953e-10
-4.86446e-10
-2.84712e-10
-1.08618e-09
6.91244e-10
-2.10084e-10
9.61665e-10
3.19222e-09
4.21999e-09
-1.74459e-09
-3.50637e-09
-2.16126e-09
-1.34555e-10
-1.7238e-09
4.39495e-09
-2.15421e-09
-2.03716e-10
-8.90894e-11
-4.30922e-10
-2.69053e-12
3.48224e-10
-2.38124e-10
2.17528e-10
-9.70312e-10
1.59287e-09
-6.06164e-10
1.72543e-10
-1.1337e-09
2.82328e-10
-2.94118e-10
9.7295e-10
-9.91904e-11
2.41492e-11
-2.39042e-11
-6.13725e-11
1.60318e-10
-3.93622e-11
-1.74231e-11
2.0295e-10
1.8106e-11
1.28791e-11
-3.79461e-11
-7.11296e-11
-6.80728e-11
1.40932e-09
5.83562e-11
-2.67805e-11
-2.65038e-10
-2.57942e-10
-4.3802e-10
-4.27345e-10
1.39768e-09
4.92044e-11
-2.05318e-12
1.38935e-09
2.83572e-11
4.23947e-13
1.38379e-09
1.82279e-11
-6.9889e-14
1.3801e-09
1.13122e-11
1.072e-14
1.37781e-09
7.00564e-12
-9.00188e-15
1.37629e-09
4.41896e-12
6.51522e-14
1.37526e-09
2.85225e-12
1.71338e-14
1.37515e-09
6.89765e-13
4.74018e-13
1.37502e-09
4.06287e-13
3.17416e-13
1.37421e-09
1.33377e-12
-6.30969e-13
1.37398e-09
1.79711e-12
-1.72445e-12
1.3739e-09
2.98542e-13
-3.69871e-14
1.37374e-09
2.28332e-13
-4.942e-14
1.3737e-09
-3.11619e-13
4.76853e-13
1.37369e-09
-8.09235e-14
1.95485e-14
1.37319e-09
-9.32006e-14
6.9398e-13
1.37315e-09
-2.92803e-13
-1.75377e-13
1.37276e-09
2.24422e-14
-1.75958e-13
1.37138e-09
1.04398e-12
-7.20181e-13
1.37404e-09
4.49504e-13
5.05082e-12
1.3738e-09
9.46896e-13
2.26136e-13
1.37424e-09
-3.27729e-12
2.10806e-12
1.37366e-09
2.76067e-13
2.96606e-15
1.37312e-09
-2.74379e-13
6.30878e-13
1.37311e-09
1.66153e-13
1.32337e-13
1.37313e-09
-1.29083e-13
-9.95037e-14
1.37301e-09
-2.5243e-13
3.72437e-13
1.37324e-09
-5.1782e-13
7.36761e-14
1.37342e-09
-2.13522e-13
-2.74068e-13
1.37352e-09
-1.28803e-13
-4.98835e-14
1.37299e-09
-2.49956e-13
-5.02261e-13
1.37251e-09
1.5813e-13
1.90197e-13
1.3732e-09
6.53664e-13
-3.71787e-13
1.37271e-09
1.04468e-12
-5.77257e-14
1.37309e-09
2.51707e-13
-1.77456e-13
1.37276e-09
8.77136e-14
-1.4237e-14
1.37227e-09
4.88673e-13
3.66668e-14
1.37278e-09
-1.08211e-12
-1.67818e-13
1.37266e-09
5.57976e-13
2.48326e-13
1.37396e-09
-2.66626e-12
1.3499e-12
-4.12848e-13
-5.68956e-13
-5.32338e-09
2.24481e-09
4.75063e-09
8.36806e-10
5.33012e-10
-1.30698e-09
6.73029e-10
-7.35864e-10
-9.09084e-11
-6.7909e-10
-3.34888e-09
7.38526e-09
-3.26639e-09
-2.30722e-10
9.30971e-10
1.68545e-09
5.71019e-10
-2.95671e-09
4.02762e-09
1.43383e-09
-2.71599e-10
-2.40663e-10
-2.47933e-09
-1.694e-10
-2.00314e-09
-2.97292e-10
4.22912e-10
-9.30934e-11
-3.36399e-11
-6.31316e-11
-2.33047e-10
-1.37236e-10
-2.82437e-11
1.77002e-11
1.07763e-10
4.00165e-11
1.38025e-09
1.4434e-10
-3.60833e-11
-2.51015e-10
-2.38514e-10
-4.25256e-10
-4.02203e-10
-3.25669e-11
-3.32126e-11
-5.15377e-11
-5.41991e-11
1.36901e-09
7.10313e-11
-1.48272e-12
1.37148e-09
4.70654e-11
-4.01416e-13
1.37196e-09
2.79304e-11
-1.32072e-13
1.37265e-09
1.75641e-11
-8.39634e-14
1.37298e-09
1.09586e-11
-3.29222e-14
1.37341e-09
6.54078e-12
-6.05173e-15
1.3736e-09
4.16559e-12
1.7979e-14
1.37424e-09
1.8966e-12
2.63949e-13
1.3738e-09
1.44901e-12
-3.61465e-13
1.37357e-09
1.20472e-12
-6.00161e-13
1.37369e-09
5.70716e-13
5.91146e-13
1.37356e-09
4.96494e-13
1.38915e-12
1.37352e-09
2.27478e-13
6.87606e-14
1.37351e-09
3.7785e-14
1.60283e-13
1.37356e-09
-5.60827e-15
-3.98685e-13
1.37327e-09
1.94997e-13
-2.18419e-14
1.37365e-09
1.52712e-13
-6.6642e-13
1.37351e-09
-2.75103e-13
8.99158e-14
1.37321e-09
-1.80623e-13
4.66673e-13
1.37368e-09
-1.39113e-14
5.60598e-13
1.37374e-09
3.64123e-13
-3.78163e-15
1.37379e-09
1.89402e-13
6.78045e-13
1.37288e-09
-3.27406e-13
-2.07327e-12
1.37307e-09
1.44113e-13
-7.36703e-14
1.37348e-09
8.40309e-13
-1.54916e-12
1.37275e-09
4.20298e-14
8.35232e-13
1.37257e-09
1.51375e-13
-1.22294e-13
1.37225e-09
6.47157e-13
-5.95483e-13
1.37391e-09
-3.21699e-12
1.02649e-12
1.37372e-09
1.10595e-13
-1.44445e-13
1.37314e-09
1.16703e-12
-7.31467e-13
1.37318e-09
-2.3681e-13
-5.70432e-14
1.3735e-09
-2.40099e-13
6.45618e-14
1.37291e-09
2.37356e-12
-1.13503e-12
1.37282e-09
1.20849e-12
-7.25963e-14
1.37252e-09
4.94966e-13
5.17736e-14
1.37325e-09
-1.21524e-12
5.68821e-13
1.37355e-09
-1.87174e-14
2.07714e-13
1.37241e-09
5.9604e-14
-1.12182e-14
1.37256e-09
5.39492e-13
-1.29829e-13
1.37268e-09
1.14217e-12
-3.93152e-12
-2.13279e-12
8.08454e-14
1.46499e-08
2.47691e-09
-1.51007e-09
-1.4976e-07
-1.34736e-07
1.98142e-07
7.09277e-08
2.14056e-10
4.02668e-09
1.29702e-09
-6.71311e-09
1.17537e-09
3.2792e-10
2.27755e-09
-9.94829e-11
3.82364e-10
2.96869e-09
5.87954e-10
2.76205e-09
-7.00864e-10
-4.91051e-10
-3.24965e-11
-1.03585e-08
1.77683e-08
2.47907e-08
-4.01867e-08
4.66581e-10
3.14493e-10
-1.55035e-09
-1.25665e-10
8.9493e-10
-2.6343e-09
8.1484e-09
4.83567e-09
-5.8364e-10
1.42865e-08
-4.02589e-09
-1.74742e-08
-2.07693e-09
-1.54384e-09
1.06485e-09
1.00088e-12
-2.13345e-10
4.27999e-11
-9.20059e-11
5.23069e-10
-2.60518e-10
-2.70939e-11
-7.01762e-12
1.50531e-10
1.14815e-11
2.2563e-11
-2.51282e-11
-6.03087e-11
-3.559e-11
-1.37858e-11
-6.35676e-12
-9.2935e-12
1.24339e-09
-2.63535e-11
-2.06765e-10
-1.95986e-10
-3.48833e-10
-3.25518e-10
1.30075e-09
1.80806e-12
1.33392e-09
4.30176e-13
1.35129e-09
3.2785e-13
1.36033e-09
2.44816e-13
1.36535e-09
-3.22916e-13
1.36928e-09
2.29677e-13
1.37139e-09
-3.88337e-14
1.37222e-09
-2.43721e-13
1.37279e-09
-5.5728e-14
1.37309e-09
1.24105e-13
1.37332e-09
-3.71704e-15
1.37338e-09
-3.26815e-13
1.37312e-09
-5.90038e-13
1.37346e-09
-1.25375e-13
1.37327e-09
-1.18289e-13
1.37344e-09
3.82847e-14
1.37346e-09
2.33461e-13
1.37337e-09
-3.945e-13
1.37337e-09
-1.66059e-13
1.37332e-09
-1.7465e-14
1.37387e-09
1.19653e-12
1.37378e-09
5.57356e-13
1.37346e-09
-1.99321e-12
1.37251e-09
-1.2063e-12
1.37274e-09
-4.44505e-13
1.37339e-09
-6.06556e-13
1.37358e-09
4.6247e-14
1.37407e-09
-4.67408e-14
1.37229e-09
-1.04758e-12
1.37242e-09
2.08518e-13
1.3733e-09
7.8301e-13
1.37308e-09
1.42341e-13
1.37321e-09
-3.43381e-13
1.37438e-09
1.30696e-12
1.37247e-09
-3.24913e-13
1.37308e-09
-1.66965e-13
1.37274e-09
-5.54871e-13
1.37302e-09
-2.31736e-13
1.37306e-09
-1.75953e-13
1.37378e-09
-2.42543e-13
1.3727e-09
2.60816e-12
-1.84111e-14
-1.42924e-09
-4.08267e-09
8.9228e-10
-4.59099e-10
1.33304e-12
8.86551e-11
6.55543e-11
1.72094e-09
9.83124e-09
-1.0071e-09
-9.42963e-09
-2.997e-09
-1.13214e-09
-1.139e-08
-8.93069e-11
-1.75258e-09
1.41556e-08
-1.97343e-09
4.35108e-09
3.55942e-10
-1.46954e-08
9.42903e-09
-3.95649e-09
1.83994e-09
-4.92407e-11
2.41789e-09
7.78525e-10
2.46869e-09
-1.76016e-09
9.80588e-10
-2.40027e-10
-3.19303e-09
-1.95882e-10
8.58862e-12
5.91425e-10
-3.65084e-11
-3.20898e-11
-1.01164e-10
-2.02372e-10
-1.08067e-10
2.18223e-09
-6.26624e-11
3.22672e-11
-5.6278e-10
-5.317e-10
-5.62799e-10
-5.31705e-10
2.19981e-09
-9.62478e-12
1.26792e-12
2.22814e-09
-1.30441e-11
2.62023e-13
2.24707e-09
-6.44696e-12
4.7567e-14
2.26212e-09
-4.08261e-12
-4.08081e-13
2.27259e-09
-2.37915e-12
-2.47619e-15
2.27748e-09
-1.88134e-12
2.95714e-13
2.28111e-09
-1.04214e-12
1.31156e-13
2.2838e-09
-6.46175e-13
-2.2296e-13
2.28528e-09
-3.63326e-13
6.46137e-15
2.28606e-09
-1.04908e-13
1.22943e-13
2.28678e-09
-5.06802e-13
4.24467e-14
2.28742e-09
-1.35472e-14
6.31481e-13
2.2879e-09
8.00663e-14
-7.23806e-13
2.28742e-09
3.71001e-14
1.45222e-14
2.28716e-09
3.88222e-13
-2.14043e-13
2.28738e-09
-2.558e-13
-2.11745e-14
2.28753e-09
-1.39332e-12
8.26994e-13
2.28752e-09
-2.93596e-12
6.7069e-13
2.28816e-09
-1.17328e-12
-7.53441e-13
2.28799e-09
1.99136e-13
4.26675e-14
2.28723e-09
-3.92182e-13
3.267e-13
2.28726e-09
3.26946e-13
-4.47523e-13
2.28602e-09
5.08395e-12
-1.18158e-12
2.28611e-09
3.92666e-12
-2.8877e-12
2.28746e-09
-1.23554e-12
-3.34466e-14
2.28847e-09
6.66974e-13
5.822e-13
2.28777e-09
4.38605e-13
3.1756e-13
2.287e-09
1.81703e-13
-2.64462e-13
2.28602e-09
4.56505e-13
5.55875e-14
2.28582e-09
-1.28679e-12
6.99561e-13
2.28835e-09
-8.44466e-13
-1.79423e-12
2.28752e-09
8.41089e-13
-1.30923e-13
2.28706e-09
1.92736e-13
-8.41751e-14
2.28741e-09
-1.77646e-13
-1.05575e-13
2.28921e-09
1.61761e-12
-4.63282e-14
2.28656e-09
3.90169e-12
-3.20951e-12
2.28689e-09
-7.63273e-13
-4.68946e-14
2.28714e-09
-1.2138e-12
4.2862e-13
2.28748e-09
-4.10843e-14
-1.71447e-13
2.28737e-09
-7.12426e-14
2.00267e-13
2.28616e-09
7.82297e-13
1.09777e-12
-6.64214e-13
-4.22777e-13
-1.04677e-09
1.3231e-08
-1.53248e-09
-1.38196e-08
3.31436e-09
-2.02334e-10
6.01379e-09
4.81895e-12
3.51849e-08
-2.12957e-10
1.29918e-09
7.73477e-09
-3.42604e-09
2.7854e-10
2.92337e-08
1.57326e-09
-1.1126e-08
-3.99104e-08
1.43417e-08
-1.35942e-09
-2.54025e-09
-1.32451e-09
3.25519e-09
-1.02295e-08
1.21985e-08
4.09135e-09
-4.00755e-09
-1.51498e-09
2.33276e-09
-9.12044e-11
-8.10372e-10
-1.65119e-09
-4.14117e-10
6.1076e-11
1.42868e-10
5.42397e-10
1.31896e-09
-1.3415e-10
-1.15569e-11
6.44135e-12
-7.1085e-12
2.97048e-12
1.43405e-10
2.2236e-09
-1.56307e-11
3.19296e-11
-5.69278e-10
-5.59402e-10
-5.69283e-10
-5.59352e-10
-3.07496e-11
-1.5635e-11
-3.07524e-11
2.21908e-09
-6.73491e-12
7.41745e-13
2.23941e-09
-3.38507e-11
1.4077e-13
2.25401e-09
-2.11197e-11
2.40566e-14
2.26563e-09
-1.5798e-11
-2.3939e-15
2.27366e-09
-1.06052e-11
6.57227e-14
2.27887e-09
-7.18613e-12
-3.24373e-16
2.28244e-09
-4.68966e-12
-9.67969e-15
2.28431e-09
-3.11633e-12
2.5376e-13
2.28579e-09
-1.96111e-12
1.20032e-14
2.28642e-09
-2.41331e-14
8.95597e-13
2.2866e-09
-2.26793e-12
-1.06819e-12
2.287e-09
-5.10682e-13
1.50757e-13
2.28718e-09
-5.06495e-13
4.73202e-13
2.28719e-09
-1.2544e-13
2.89729e-14
2.28799e-09
-1.68383e-12
5.27231e-13
2.28862e-09
-2.19732e-12
1.20001e-12
2.28823e-09
1.52152e-13
-6.06489e-13
2.28753e-09
1.03794e-14
-1.14447e-12
2.28694e-09
-2.22505e-14
6.48992e-13
2.28724e-09
-4.1155e-14
-6.80984e-14
2.28598e-09
4.30579e-12
-2.11465e-12
2.28641e-09
-6.76333e-14
-1.85855e-13
2.28738e-09
6.76145e-13
1.8342e-12
2.28779e-09
8.20748e-13
1.32733e-12
2.28809e-09
-2.61958e-12
2.99941e-12
2.2882e-09
1.44718e-12
8.31274e-13
2.28704e-09
1.72035e-12
-2.17428e-13
2.28728e-09
-4.95872e-14
-2.63289e-14
2.28794e-09
-1.30097e-13
-2.18003e-13
2.28809e-09
-6.81348e-13
-6.78034e-13
2.28582e-09
-6.7217e-13
1.84431e-12
2.28602e-09
4.47289e-13
5.4586e-14
2.28609e-09
1.07242e-13
-3.24529e-14
2.28535e-09
1.82743e-13
6.9529e-13
2.28671e-09
1.27837e-12
-3.47747e-13
2.28911e-09
-6.37194e-14
3.47422e-12
2.28751e-09
2.2465e-12
-2.15759e-13
2.28711e-09
2.38168e-14
-4.35094e-13
2.28738e-09
7.84378e-13
-5.58357e-13
2.28695e-09
5.79926e-13
-2.53175e-13
2.28733e-09
2.1174e-13
-1.00639e-12
-2.70778e-13
2.32177e-13
-8.19028e-10
-6.7756e-09
-6.75905e-10
-5.36571e-10
1.20102e-08
-8.91001e-10
-8.37276e-10
-8.67201e-10
-1.33916e-09
-6.3046e-09
-9.73159e-10
-2.99452e-09
-2.2417e-12
-8.00479e-10
-4.96466e-10
1.05588e-12
3.8549e-09
3.01035e-09
4.03022e-09
2.01405e-09
-2.3347e-09
5.94522e-10
-3.00494e-08
1.66606e-08
7.43006e-09
7.69392e-09
3.91452e-09
-2.89373e-09
-1.25625e-09
1.5325e-08
6.18074e-09
1.52929e-08
-6.50031e-10
4.77427e-09
-4.07013e-08
-9.20403e-10
-1.11218e-09
-4.70439e-10
4.52437e-11
2.42652e-09
3.12584e-11
5.46303e-10
-3.3863e-10
8.78672e-12
5.64462e-11
3.5596e-10
-6.28864e-10
-7.68498e-11
-9.23295e-11
-1.35448e-11
5.61259e-12
4.43536e-11
1.32758e-10
-5.26867e-10
5.44834e-10
-2.88838e-11
-3.55524e-14
-4.68336e-12
2.20812e-09
-9.53562e-11
2.07199e-11
-5.35506e-10
-5.44803e-10
-5.35513e-10
-5.44826e-10
2.23905e-09
-6.86758e-11
1.88679e-12
2.2613e-09
-4.22431e-11
-6.03781e-13
2.27254e-09
-2.71262e-11
3.4741e-15
2.27916e-09
-1.7216e-11
-5.02519e-14
2.28282e-09
-1.09113e-11
-1.60239e-14
2.28493e-09
-6.86268e-12
-1.47406e-14
2.28614e-09
-4.32508e-12
-1.01746e-14
2.28702e-09
-2.88821e-12
-3.10783e-14
2.28821e-09
-6.38969e-13
-1.32476e-12
2.2872e-09
-4.59773e-14
1.17617e-12
2.28771e-09
-1.09249e-12
-2.05279e-13
2.28794e-09
-7.56756e-13
-2.35045e-13
2.28821e-09
-4.49292e-13
-2.52621e-14
2.28772e-09
-3.22587e-13
-4.36765e-13
2.28671e-09
-1.92863e-13
-1.18669e-12
2.28697e-09
-3.50072e-13
1.08478e-13
2.28718e-09
-2.22518e-13
-4.36898e-14
2.2869e-09
-1.9235e-14
3.90613e-14
2.28632e-09
9.9599e-13
-2.8325e-13
2.2874e-09
-7.79036e-13
1.95693e-12
2.28819e-09
-4.39647e-12
1.77595e-12
2.28796e-09
1.04139e-12
-1.54559e-13
2.28949e-09
-2.77653e-12
9.24498e-13
2.28734e-09
9.71586e-14
-2.48683e-12
2.28612e-09
1.87808e-14
-1.41582e-12
2.28739e-09
2.41428e-13
1.84313e-13
2.28758e-09
-1.6979e-13
-1.85453e-14
2.28731e-09
-3.31376e-14
1.6532e-13
2.28713e-09
-1.56563e-13
5.9134e-14
2.2867e-09
-5.84938e-13
-2.01166e-14
2.28626e-09
-4.34488e-13
6.30948e-13
2.28547e-09
1.70662e-13
7.33524e-13
2.28579e-09
4.54861e-13
-5.95954e-13
2.28642e-09
1.06049e-12
-1.62251e-13
2.28877e-09
-2.47053e-12
2.80639e-13
2.28861e-09
1.58892e-12
-4.5039e-16
2.2881e-09
6.75076e-13
-3.86877e-13
2.28699e-09
6.75231e-13
6.32015e-13
2.2865e-09
9.18009e-13
7.92437e-14
2.28646e-09
4.07468e-13
-7.33367e-14
-2.08691e-12
1.14343e-12
-3.68983e-09
1.47457e-08
-1.561e-08
8.64605e-10
7.49247e-10
9.47684e-10
8.00799e-10
9.48811e-10
1.99591e-10
6.29664e-10
2.14292e-11
2.42949e-09
1.54025e-09
3.0245e-10
6.03531e-10
-8.81951e-10
-3.99377e-09
3.42585e-09
9.35984e-09
2.80638e-09
-2.41497e-09
-1.02181e-08
-2.95902e-09
-1.45976e-09
-1.85604e-09
-2.97077e-08
2.54085e-08
2.79567e-09
4.81929e-09
8.6794e-09
-1.54849e-09
-1.39676e-09
-1.86882e-09
-1.13015e-08
7.43615e-09
2.45494e-09
1.3773e-11
7.26716e-10
-1.59815e-10
1.22292e-10
-3.15791e-09
-5.69959e-11
-8.54022e-11
1.40003e-10
-1.7286e-10
1.19568e-10
5.56862e-11
-1.32677e-10
5.67416e-10
-6.54771e-11
3.44623e-12
-7.57524e-13
-1.38703e-10
-1.38076e-10
-1.44247e-10
4.90758e-11
2.28114e-09
-1.27118e-10
2.37145e-11