/*--------------------------------*- C++ -*----------------------------------*\
| =========                 |                                                 |
| \\      /  F ield         | OpenFOAM: The Open Source CFD Toolbox           |
|  \\    /   O peration     | Version:  5.0                                   |
|   \\  /    A nd           | Web:      www.OpenFOAM.org                      |
|    \\/     M anipulation  |                                                 |
\*---------------------------------------------------------------------------*/
FoamFile
{
    version     2.0;
    format      ascii;
    class       volScalarField;
    location    "2.1";
    object      rAU;
}
// * * * * * * * * * * * * * * * * * * * * * * * * * * * * * * * * * * * * * //

dimensions      [-1 3 1 0 0 0 0];

internalField   nonuniform List<scalar> 
9186
(
8.46834e-07
8.11433e-07
8.24983e-07
8.83633e-07
7.19506e-07
6.90726e-07
1.29269e-07
3.92421e-07
3.93664e-07
3.94698e-07
3.95731e-07
3.96764e-07
3.97795e-07
3.98827e-07
3.99857e-07
4.00887e-07
4.01916e-07
4.02944e-07
4.03972e-07
4.04999e-07
4.06025e-07
4.07051e-07
4.08076e-07
4.091e-07
4.10123e-07
4.11146e-07
4.12167e-07
4.13188e-07
4.14209e-07
4.15228e-07
4.16246e-07
4.17265e-07
4.18282e-07
4.19298e-07
4.20314e-07
4.21329e-07
4.22343e-07
4.23356e-07
4.24368e-07
4.2538e-07
4.26391e-07
4.27401e-07
4.2841e-07
4.29418e-07
4.30426e-07
4.31432e-07
4.32438e-07
4.33443e-07
4.34447e-07
4.36223e-07
7.8762e-07
9.54581e-07
7.39375e-07
8.89298e-07
8.07047e-07
6.17055e-07
3.51067e-08
3.92287e-07
3.93664e-07
3.94697e-07
3.95731e-07
3.96763e-07
3.97795e-07
3.98827e-07
3.99857e-07
4.00887e-07
4.01916e-07
4.02944e-07
4.03972e-07
4.04999e-07
4.06025e-07
4.07051e-07
4.08076e-07
4.091e-07
4.10123e-07
4.11146e-07
4.12167e-07
4.13188e-07
4.14209e-07
4.15228e-07
4.16247e-07
4.17265e-07
4.18282e-07
4.19298e-07
4.20314e-07
4.21329e-07
4.22342e-07
4.23356e-07
4.24368e-07
4.2538e-07
4.26391e-07
4.27401e-07
4.2841e-07
4.29418e-07
4.30426e-07
4.31432e-07
4.32438e-07
4.33443e-07
4.34447e-07
4.36223e-07
8.92695e-07
7.05523e-07
8.75237e-07
8.93357e-07
8.98217e-07
6.89965e-07
4.66903e-08
1.2987e-07
3.93455e-07
3.94697e-07
3.95731e-07
3.96763e-07
3.97795e-07
3.98827e-07
3.99857e-07
4.00887e-07
4.01916e-07
4.02944e-07
4.03972e-07
4.04999e-07
4.06025e-07
4.07051e-07
4.08076e-07
4.091e-07
4.10123e-07
4.11146e-07
4.12167e-07
4.13188e-07
4.14209e-07
4.15228e-07
4.16247e-07
4.17265e-07
4.18282e-07
4.19298e-07
4.20314e-07
4.21329e-07
4.22342e-07
4.23356e-07
4.24368e-07
4.2538e-07
4.26391e-07
4.27401e-07
4.2841e-07
4.29418e-07
4.30426e-07
4.31432e-07
4.32438e-07
4.33443e-07
4.34447e-07
4.36223e-07
7.7093e-07
3.29062e-07
6.46956e-07
8.43542e-07
8.53968e-07
6.76376e-07
6.9386e-07
1.2972e-07
3.93453e-07
3.94697e-07
3.95731e-07
3.96763e-07
3.97795e-07
3.98827e-07
3.99857e-07
4.00887e-07
4.01916e-07
4.02944e-07
4.03972e-07
4.04999e-07
4.06025e-07
4.07051e-07
4.08076e-07
4.091e-07
4.10123e-07
4.11146e-07
4.12167e-07
4.13188e-07
4.14209e-07
4.15228e-07
4.16247e-07
4.17265e-07
4.18282e-07
4.19298e-07
4.20314e-07
4.21329e-07
4.22342e-07
4.23356e-07
4.24368e-07
4.2538e-07
4.26391e-07
4.27401e-07
4.2841e-07
4.29418e-07
4.30426e-07
4.31432e-07
4.32438e-07
4.33443e-07
4.34447e-07
4.36223e-07
7.97419e-07
8.00899e-07
6.52405e-07
8.93329e-07
6.63455e-07
6.44167e-07
7.0048e-07
1.2972e-07
3.93453e-07
3.94696e-07
3.9573e-07
3.96763e-07
3.97795e-07
3.98827e-07
3.99857e-07
4.00887e-07
4.01916e-07
4.02944e-07
4.03972e-07
4.04999e-07
4.06025e-07
4.07051e-07
4.08076e-07
4.091e-07
4.10123e-07
4.11146e-07
4.12167e-07
4.13188e-07
4.14209e-07
4.15228e-07
4.16247e-07
4.17265e-07
4.18282e-07
4.19298e-07
4.20314e-07
4.21329e-07
4.22342e-07
4.23356e-07
4.24368e-07
4.2538e-07
4.26391e-07
4.27401e-07
4.2841e-07
4.29418e-07
4.30426e-07
4.31432e-07
4.32438e-07
4.33443e-07
4.34447e-07
4.36223e-07
9.5902e-07
8.87517e-07
5.92909e-07
8.21843e-07
8.8488e-07
6.86193e-07
7.00294e-07
1.2972e-07
3.93452e-07
3.94696e-07
3.9573e-07
3.96763e-07
3.97795e-07
3.98827e-07
3.99857e-07
4.00887e-07
4.01916e-07
4.02944e-07
4.03972e-07
4.04999e-07
4.06025e-07
4.07051e-07
4.08076e-07
4.091e-07
4.10123e-07
4.11146e-07
4.12167e-07
4.13188e-07
4.14209e-07
4.15228e-07
4.16247e-07
4.17265e-07
4.18282e-07
4.19298e-07
4.20314e-07
4.21329e-07
4.22342e-07
4.23356e-07
4.24368e-07
4.2538e-07
4.26391e-07
4.27401e-07
4.2841e-07
4.29418e-07
4.30426e-07
4.31432e-07
4.32438e-07
4.33443e-07
4.34447e-07
4.36223e-07
9.6162e-07
8.95209e-07
6.65475e-07
5.51889e-07
8.71141e-07
6.81931e-07
6.99043e-07
1.29724e-07
3.93453e-07
3.94696e-07
3.9573e-07
3.96763e-07
3.97795e-07
3.98827e-07
3.99857e-07
4.00887e-07
4.01916e-07
4.02944e-07
4.03972e-07
4.04999e-07
4.06025e-07
4.07051e-07
4.08076e-07
4.091e-07
4.10123e-07
4.11146e-07
4.12167e-07
4.13188e-07
4.14209e-07
4.15228e-07
4.16247e-07
4.17265e-07
4.18282e-07
4.19298e-07
4.20314e-07
4.21329e-07
4.22342e-07
4.23356e-07
4.24368e-07
4.2538e-07
4.26391e-07
4.27401e-07
4.2841e-07
4.29418e-07
4.30426e-07
4.31432e-07
4.32438e-07
4.33443e-07
4.34447e-07
4.36223e-07
9.56642e-07
8.97212e-07
6.99767e-07
6.26539e-07
6.79526e-07
6.14403e-07
4.08872e-07
1.29689e-07
3.93454e-07
3.94697e-07
3.95731e-07
3.96763e-07
3.97795e-07
3.98827e-07
3.99857e-07
4.00887e-07
4.01916e-07
4.02944e-07
4.03972e-07
4.04999e-07
4.06025e-07
4.07051e-07
4.08076e-07
4.091e-07
4.10123e-07
4.11146e-07
4.12167e-07
4.13188e-07
4.14209e-07
4.15228e-07
4.16246e-07
4.17265e-07
4.18282e-07
4.19298e-07
4.20314e-07
4.21329e-07
4.22342e-07
4.23356e-07
4.24368e-07
4.2538e-07
4.26391e-07
4.27401e-07
4.2841e-07
4.29418e-07
4.30426e-07
4.31432e-07
4.32438e-07
4.33443e-07
4.34447e-07
4.36223e-07
7.43704e-07
6.51267e-07
5.98911e-07
6.74788e-07
8.49413e-07
6.81663e-07
4.15689e-08
3.92286e-07
3.93663e-07
3.94697e-07
3.95731e-07
3.96763e-07
3.97795e-07
3.98827e-07
3.99857e-07
4.00887e-07
4.01916e-07
4.02944e-07
4.03972e-07
4.04999e-07
4.06025e-07
4.07051e-07
4.08076e-07
4.091e-07
4.10123e-07
4.11146e-07
4.12167e-07
4.13188e-07
4.14209e-07
4.15228e-07
4.16246e-07
4.17265e-07
4.18282e-07
4.19298e-07
4.20314e-07
4.21329e-07
4.22342e-07
4.23356e-07
4.24368e-07
4.2538e-07
4.26391e-07
4.27401e-07
4.2841e-07
4.29418e-07
4.30426e-07
4.31432e-07
4.32438e-07
4.33443e-07
4.34447e-07
4.36223e-07
5.94578e-07
6.2937e-07
7.86969e-07
2.647e-07
7.8334e-07
6.92455e-07
1.29226e-07
3.92423e-07
3.93665e-07
3.94698e-07
3.95731e-07
3.96764e-07
3.97795e-07
3.98827e-07
3.99857e-07
4.00887e-07
4.01916e-07
4.02944e-07
4.03972e-07
4.04999e-07
4.06025e-07
4.07051e-07
4.08076e-07
4.091e-07
4.10123e-07
4.11146e-07
4.12167e-07
4.13188e-07
4.14209e-07
4.15228e-07
4.16246e-07
4.17265e-07
4.18282e-07
4.19298e-07
4.20314e-07
4.21329e-07
4.22342e-07
4.23356e-07
4.24368e-07
4.2538e-07
4.26391e-07
4.27401e-07
4.2841e-07
4.29418e-07
4.30426e-07
4.31432e-07
4.32438e-07
4.33443e-07
4.34447e-07
4.36223e-07
8.35303e-07
4.2422e-07
4.63373e-07
8.5065e-07
7.75794e-07
7.51767e-07
1.83341e-07
5.04899e-07
5.06389e-07
5.0753e-07
5.08668e-07
5.09805e-07
5.1094e-07
5.12073e-07
5.13206e-07
5.14337e-07
5.15465e-07
5.16593e-07
5.17719e-07
5.18842e-07
5.19965e-07
5.21086e-07
5.22205e-07
5.23323e-07
5.24439e-07
5.25553e-07
5.26666e-07
5.27777e-07
5.28886e-07
5.29994e-07
5.31101e-07
5.32204e-07
5.33308e-07
5.34409e-07
5.35508e-07
5.36606e-07
5.37703e-07
5.38797e-07
5.3989e-07
5.40981e-07
5.4207e-07
5.43159e-07
5.44245e-07
5.45329e-07
5.46412e-07
5.47494e-07
5.48573e-07
5.49651e-07
5.50727e-07
5.53042e-07
4.5758e-07
8.13202e-07
7.33166e-07
9.20932e-07
9.25474e-07
7.04312e-07
5.18244e-08
5.04675e-07
5.06388e-07
5.07529e-07
5.08667e-07
5.09804e-07
5.1094e-07
5.12073e-07
5.13206e-07
5.14337e-07
5.15465e-07
5.16593e-07
5.17719e-07
5.18842e-07
5.19965e-07
5.21086e-07
5.22205e-07
5.23323e-07
5.24439e-07
5.25553e-07
5.26666e-07
5.27777e-07
5.28886e-07
5.29994e-07
5.31101e-07
5.32204e-07
5.33307e-07
5.34409e-07
5.35508e-07
5.36606e-07
5.37703e-07
5.38797e-07
5.3989e-07
5.40982e-07
5.4207e-07
5.43159e-07
5.44245e-07
5.45329e-07
5.46412e-07
5.47494e-07
5.48573e-07
5.49651e-07
5.50727e-07
5.53042e-07
9.05065e-07
8.33291e-07
3.56126e-07
8.81089e-07
8.87309e-07
7.1515e-07
6.91078e-08
1.84251e-07
5.06042e-07
5.07528e-07
5.08667e-07
5.09804e-07
5.1094e-07
5.12073e-07
5.13205e-07
5.14336e-07
5.15465e-07
5.16592e-07
5.17719e-07
5.18842e-07
5.19965e-07
5.21086e-07
5.22205e-07
5.23323e-07
5.24439e-07
5.25553e-07
5.26666e-07
5.27777e-07
5.28886e-07
5.29994e-07
5.31101e-07
5.32204e-07
5.33308e-07
5.34409e-07
5.35508e-07
5.36606e-07
5.37703e-07
5.38797e-07
5.3989e-07
5.40982e-07
5.4207e-07
5.43159e-07
5.44245e-07
5.45329e-07
5.46412e-07
5.47494e-07
5.48573e-07
5.49651e-07
5.50727e-07
5.53042e-07
9.15736e-07
1.83362e-07
7.45159e-07
6.15139e-07
8.96946e-07
7.26906e-07
7.67904e-07
1.83948e-07
5.06038e-07
5.07527e-07
5.08666e-07
5.09803e-07
5.10939e-07
5.12073e-07
5.13205e-07
5.14336e-07
5.15465e-07
5.16592e-07
5.17719e-07
5.18842e-07
5.19965e-07
5.21086e-07
5.22205e-07
5.23323e-07
5.24439e-07
5.25553e-07
5.26666e-07
5.27777e-07
5.28886e-07
5.29994e-07
5.31101e-07
5.32204e-07
5.33308e-07
5.34409e-07
5.35508e-07
5.36606e-07
5.37703e-07
5.38797e-07
5.3989e-07
5.40981e-07
5.4207e-07
5.43159e-07
5.44245e-07
5.45329e-07
5.46412e-07
5.47494e-07
5.48573e-07
5.49651e-07
5.50727e-07
5.53042e-07
2.16014e-07
5.34788e-07
3.70981e-07
7.0509e-07
8.34188e-07
6.74828e-07
7.75668e-07
1.83947e-07
5.06035e-07
5.07526e-07
5.08665e-07
5.09803e-07
5.10939e-07
5.12073e-07
5.13205e-07
5.14336e-07
5.15465e-07
5.16592e-07
5.17719e-07
5.18842e-07
5.19965e-07
5.21086e-07
5.22205e-07
5.23323e-07
5.24439e-07
5.25553e-07
5.26666e-07
5.27777e-07
5.28886e-07
5.29994e-07
5.31101e-07
5.32204e-07
5.33308e-07
5.34409e-07
5.35508e-07
5.36606e-07
5.37703e-07
5.38797e-07
5.3989e-07
5.40981e-07
5.4207e-07
5.43159e-07
5.44245e-07
5.45329e-07
5.46412e-07
5.47494e-07
5.48573e-07
5.49651e-07
5.50727e-07
5.53042e-07
8.02135e-07
8.84965e-07
8.79073e-07
7.16041e-07
6.90329e-07
6.7449e-07
7.73879e-07
1.83945e-07
5.06034e-07
5.07525e-07
5.08665e-07
5.09803e-07
5.10939e-07
5.12073e-07
5.13205e-07
5.14336e-07
5.15465e-07
5.16592e-07
5.17719e-07
5.18842e-07
5.19965e-07
5.21086e-07
5.22205e-07
5.23323e-07
5.24439e-07
5.25553e-07
5.26666e-07
5.27777e-07
5.28886e-07
5.29994e-07
5.31101e-07
5.32204e-07
5.33308e-07
5.34409e-07
5.35508e-07
5.36606e-07
5.37703e-07
5.38797e-07
5.3989e-07
5.40981e-07
5.4207e-07
5.43159e-07
5.44245e-07
5.45329e-07
5.46412e-07
5.47494e-07
5.48573e-07
5.49651e-07
5.50727e-07
5.53042e-07
9.63802e-07
9.12541e-07
5.8708e-07
8.03073e-07
9.14303e-07
7.43182e-07
7.70817e-07
1.83947e-07
5.06036e-07
5.07526e-07
5.08665e-07
5.09803e-07
5.10939e-07
5.12073e-07
5.13205e-07
5.14336e-07
5.15465e-07
5.16592e-07
5.17719e-07
5.18842e-07
5.19965e-07
5.21086e-07
5.22205e-07
5.23323e-07
5.24439e-07
5.25553e-07
5.26666e-07
5.27777e-07
5.28886e-07
5.29994e-07
5.31101e-07
5.32204e-07
5.33308e-07
5.34409e-07
5.35508e-07
5.36606e-07
5.37703e-07
5.38797e-07
5.3989e-07
5.40981e-07
5.4207e-07
5.43159e-07
5.44245e-07
5.45329e-07
5.46412e-07
5.47494e-07
5.48573e-07
5.49651e-07
5.50727e-07
5.53042e-07
9.04134e-07
8.13509e-07
4.59243e-07
6.99994e-07
8.67626e-07
7.01178e-07
4.84988e-07
1.83947e-07
5.06038e-07
5.07527e-07
5.08666e-07
5.09803e-07
5.10939e-07
5.12073e-07
5.13205e-07
5.14336e-07
5.15465e-07
5.16592e-07
5.17719e-07
5.18842e-07
5.19965e-07
5.21086e-07
5.22205e-07
5.23323e-07
5.24439e-07
5.25553e-07
5.26666e-07
5.27777e-07
5.28886e-07
5.29994e-07
5.31101e-07
5.32204e-07
5.33308e-07
5.34409e-07
5.35508e-07
5.36606e-07
5.37703e-07
5.38797e-07
5.3989e-07
5.40981e-07
5.4207e-07
5.43159e-07
5.44245e-07
5.45329e-07
5.46412e-07
5.47494e-07
5.48573e-07
5.49651e-07
5.50727e-07
5.53042e-07
7.99225e-07
8.12123e-07
5.81158e-07
5.22484e-07
9.00545e-07
6.75659e-07
6.15921e-08
5.04674e-07
5.06387e-07
5.07528e-07
5.08666e-07
5.09804e-07
5.1094e-07
5.12073e-07
5.13206e-07
5.14336e-07
5.15465e-07
5.16592e-07
5.17719e-07
5.18842e-07
5.19965e-07
5.21086e-07
5.22205e-07
5.23323e-07
5.24439e-07
5.25553e-07
5.26666e-07
5.27777e-07
5.28886e-07
5.29994e-07
5.31101e-07
5.32204e-07
5.33308e-07
5.34409e-07
5.35508e-07
5.36606e-07
5.37703e-07
5.38797e-07
5.3989e-07
5.40982e-07
5.4207e-07
5.43159e-07
5.44245e-07
5.45329e-07
5.46412e-07
5.47494e-07
5.48573e-07
5.49651e-07
5.50727e-07
5.53042e-07
7.08644e-07
3.1499e-07
4.95638e-07
3.04319e-07
4.32345e-07
7.19887e-07
1.83262e-07
5.04905e-07
5.06392e-07
5.07531e-07
5.08668e-07
5.09805e-07
5.1094e-07
5.12073e-07
5.13206e-07
5.14337e-07
5.15465e-07
5.16593e-07
5.17719e-07
5.18842e-07
5.19965e-07
5.21086e-07
5.22205e-07
5.23323e-07
5.24439e-07
5.25553e-07
5.26666e-07
5.27777e-07
5.28886e-07
5.29994e-07
5.31101e-07
5.32204e-07
5.33308e-07
5.34409e-07
5.35508e-07
5.36606e-07
5.37703e-07
5.38797e-07
5.3989e-07
5.40982e-07
5.4207e-07
5.43159e-07
5.44245e-07
5.45329e-07
5.46412e-07
5.47494e-07
5.48573e-07
5.49651e-07
5.50727e-07
5.53042e-07
8.93966e-07
8.39663e-07
8.11263e-07
9.48223e-07
8.25672e-07
7.41026e-07
1.83345e-07
3.92421e-07
3.93664e-07
3.94698e-07
3.95731e-07
3.96764e-07
3.97795e-07
3.98827e-07
3.99857e-07
4.00887e-07
4.01916e-07
4.02944e-07
4.03972e-07
4.04999e-07
4.06025e-07
4.0705e-07
4.08076e-07
4.09099e-07
4.10123e-07
4.11145e-07
4.12167e-07
4.13188e-07
4.14209e-07
4.15228e-07
4.16246e-07
4.17265e-07
4.18282e-07
4.19298e-07
4.20314e-07
4.21329e-07
4.22342e-07
4.23356e-07
4.24368e-07
4.2538e-07
4.26391e-07
4.27401e-07
4.28409e-07
4.29418e-07
4.30426e-07
4.31432e-07
4.32438e-07
4.33443e-07
4.34447e-07
4.36223e-07
7.44187e-07
5.30928e-07
6.27936e-07
9.10546e-07
9.29849e-07
7.71067e-07
5.18242e-08
3.92287e-07
3.93664e-07
3.94697e-07
3.95731e-07
3.96763e-07
3.97795e-07
3.98827e-07
3.99857e-07
4.00887e-07
4.01916e-07
4.02944e-07
4.03972e-07
4.04999e-07
4.06025e-07
4.0705e-07
4.08076e-07
4.09099e-07
4.10123e-07
4.11145e-07
4.12167e-07
4.13188e-07
4.14209e-07
4.15228e-07
4.16246e-07
4.17265e-07
4.18282e-07
4.19298e-07
4.20314e-07
4.21329e-07
4.22342e-07
4.23356e-07
4.24368e-07
4.2538e-07
4.26391e-07
4.27401e-07
4.2841e-07
4.29418e-07
4.30425e-07
4.31432e-07
4.32438e-07
4.33443e-07
4.34447e-07
4.36223e-07
8.83479e-07
8.43877e-07
2.06639e-07
2.69656e-07
8.67132e-07
7.41898e-07
6.9038e-08
1.84255e-07
3.93455e-07
3.94697e-07
3.95731e-07
3.96763e-07
3.97795e-07
3.98827e-07
3.99857e-07
4.00887e-07
4.01916e-07
4.02944e-07
4.03972e-07
4.04999e-07
4.06025e-07
4.0705e-07
4.08076e-07
4.09099e-07
4.10123e-07
4.11146e-07
4.12167e-07
4.13188e-07
4.14209e-07
4.15228e-07
4.16246e-07
4.17265e-07
4.18282e-07
4.19298e-07
4.20314e-07
4.21329e-07
4.22342e-07
4.23356e-07
4.24368e-07
4.2538e-07
4.26391e-07
4.27401e-07
4.2841e-07
4.29418e-07
4.30425e-07
4.31432e-07
4.32438e-07
4.33443e-07
4.34447e-07
4.36223e-07
8.32969e-07
1.96994e-07
6.29216e-07
6.90232e-07
8.00341e-07
5.37995e-07
7.683e-07
1.83953e-07
3.93453e-07
3.94697e-07
3.95731e-07
3.96763e-07
3.97795e-07
3.98827e-07
3.99857e-07
4.00887e-07
4.01916e-07
4.02944e-07
4.03972e-07
4.04999e-07
4.06025e-07
4.0705e-07
4.08076e-07
4.09099e-07
4.10123e-07
4.11146e-07
4.12167e-07
4.13188e-07
4.14209e-07
4.15228e-07
4.16246e-07
4.17265e-07
4.18282e-07
4.19298e-07
4.20314e-07
4.21329e-07
4.22342e-07
4.23356e-07
4.24368e-07
4.2538e-07
4.26391e-07
4.27401e-07
4.2841e-07
4.29418e-07
4.30425e-07
4.31432e-07
4.32438e-07
4.33443e-07
4.34447e-07
4.36223e-07
2.93122e-07
4.65151e-07
5.7277e-07
3.17528e-07
8.81352e-07
6.81811e-07
7.75907e-07
1.83952e-07
3.93453e-07
3.94696e-07
3.9573e-07
3.96763e-07
3.97795e-07
3.98826e-07
3.99857e-07
4.00887e-07
4.01916e-07
4.02944e-07
4.03972e-07
4.04999e-07
4.06025e-07
4.0705e-07
4.08076e-07
4.09099e-07
4.10123e-07
4.11145e-07
4.12167e-07
4.13188e-07
4.14209e-07
4.15228e-07
4.16246e-07
4.17265e-07
4.18282e-07
4.19298e-07
4.20314e-07
4.21329e-07
4.22342e-07
4.23356e-07
4.24368e-07
4.2538e-07
4.26391e-07
4.27401e-07
4.2841e-07
4.29418e-07
4.30425e-07
4.31432e-07
4.32438e-07
4.33443e-07
4.34447e-07
4.36223e-07
6.97306e-07
8.07716e-07
8.724e-07
7.66971e-07
6.20482e-07
6.56274e-07
7.73293e-07
1.8395e-07
3.93452e-07
3.94696e-07
3.9573e-07
3.96763e-07
3.97795e-07
3.98826e-07
3.99857e-07
4.00887e-07
4.01916e-07
4.02944e-07
4.03972e-07
4.04999e-07
4.06025e-07
4.0705e-07
4.08076e-07
4.09099e-07
4.10123e-07
4.11145e-07
4.12167e-07
4.13188e-07
4.14209e-07
4.15228e-07
4.16246e-07
4.17265e-07
4.18282e-07
4.19298e-07
4.20314e-07
4.21329e-07
4.22342e-07
4.23356e-07
4.24368e-07
4.2538e-07
4.26391e-07
4.27401e-07
4.2841e-07
4.29418e-07
4.30426e-07
4.31432e-07
4.32438e-07
4.33443e-07
4.34447e-07
4.36223e-07
9.64844e-07
8.4746e-07
4.14363e-07
9.34004e-07
9.19913e-07
7.46469e-07
7.71741e-07
1.83952e-07
3.93453e-07
3.94696e-07
3.9573e-07
3.96763e-07
3.97795e-07
3.98827e-07
3.99857e-07
4.00887e-07
4.01916e-07
4.02944e-07
4.03972e-07
4.04999e-07
4.06025e-07
4.0705e-07
4.08076e-07
4.09099e-07
4.10123e-07
4.11145e-07
4.12167e-07
4.13188e-07
4.14209e-07
4.15228e-07
4.16246e-07
4.17265e-07
4.18282e-07
4.19298e-07
4.20314e-07
4.21329e-07
4.22342e-07
4.23356e-07
4.24368e-07
4.2538e-07
4.26391e-07
4.27401e-07
4.2841e-07
4.29418e-07
4.30426e-07
4.31432e-07
4.32438e-07
4.33443e-07
4.34447e-07
4.36223e-07
8.86682e-07
9.00471e-07
8.92493e-07
6.88077e-07
8.82733e-07
6.98532e-07
4.87613e-07
1.83952e-07
3.93454e-07
3.94697e-07
3.95731e-07
3.96763e-07
3.97795e-07
3.98827e-07
3.99857e-07
4.00887e-07
4.01916e-07
4.02944e-07
4.03972e-07
4.04999e-07
4.06025e-07
4.0705e-07
4.08076e-07
4.09099e-07
4.10123e-07
4.11146e-07
4.12167e-07
4.13188e-07
4.14209e-07
4.15228e-07
4.16246e-07
4.17265e-07
4.18282e-07
4.19298e-07
4.20314e-07
4.21329e-07
4.22342e-07
4.23356e-07
4.24368e-07
4.2538e-07
4.26391e-07
4.27401e-07
4.2841e-07
4.29418e-07
4.30426e-07
4.31432e-07
4.32438e-07
4.33443e-07
4.34447e-07
4.36223e-07
5.50486e-07
9.1879e-07
8.40819e-07
8.02355e-07
7.33799e-07
7.0072e-07
6.15977e-08
3.92286e-07
3.93663e-07
3.94697e-07
3.95731e-07
3.96763e-07
3.97795e-07
3.98827e-07
3.99857e-07
4.00887e-07
4.01916e-07
4.02944e-07
4.03972e-07
4.04999e-07
4.06025e-07
4.0705e-07
4.08076e-07
4.09099e-07
4.10123e-07
4.11145e-07
4.12167e-07
4.13188e-07
4.14209e-07
4.15228e-07
4.16246e-07
4.17265e-07
4.18282e-07
4.19298e-07
4.20314e-07
4.21329e-07
4.22342e-07
4.23356e-07
4.24368e-07
4.2538e-07
4.26391e-07
4.27401e-07
4.2841e-07
4.29418e-07
4.30425e-07
4.31432e-07
4.32438e-07
4.33443e-07
4.34447e-07
4.36223e-07
5.36062e-07
7.54196e-07
6.5841e-07
7.41885e-07
3.42585e-07
7.64966e-07
1.83266e-07
3.92423e-07
3.93665e-07
3.94698e-07
3.95731e-07
3.96764e-07
3.97795e-07
3.98827e-07
3.99857e-07
4.00887e-07
4.01916e-07
4.02944e-07
4.03972e-07
4.04999e-07
4.06025e-07
4.0705e-07
4.08076e-07
4.09099e-07
4.10123e-07
4.11146e-07
4.12167e-07
4.13188e-07
4.14209e-07
4.15228e-07
4.16246e-07
4.17265e-07
4.18282e-07
4.19298e-07
4.20314e-07
4.21329e-07
4.22342e-07
4.23356e-07
4.24368e-07
4.2538e-07
4.26391e-07
4.27401e-07
4.28409e-07
4.29418e-07
4.30425e-07
4.31432e-07
4.32438e-07
4.33443e-07
4.34447e-07
4.36223e-07
3.52356e-08
5.90281e-07
3.55905e-08
7.53939e-07
5.20644e-08
6.76543e-07
5.26884e-08
3.7495e-08
6.89642e-07
1.0482e-07
6.87412e-07
5.55013e-08
7.18261e-07
1.49261e-07
3.13655e-07
6.92096e-07
7.00651e-07
7.2174e-07
3.98066e-07
7.56194e-07
7.76999e-07
7.01045e-07
6.81335e-07
7.00408e-07
7.35639e-07
7.76058e-07
7.0928e-07
7.70036e-07
6.98764e-07
6.73559e-07
6.99937e-07
6.68292e-07
7.71471e-07
7.60821e-07
7.74424e-07
6.99327e-07
6.71955e-07
7.00624e-07
7.27863e-07
7.72827e-07
7.41451e-07
7.75616e-07
6.99757e-07
6.31217e-07
7.00632e-07
7.31037e-07
7.71995e-07
6.35379e-07
7.74497e-07
7.0014e-07
6.50266e-07
5.1397e-07
6.785e-07
7.75079e-07
6.16261e-07
5.75864e-07
2.06064e-07
6.0432e-07
4.54985e-08
6.98035e-07
2.77369e-07
6.20753e-07
6.68973e-08
3.90056e-08
6.88073e-07
3.51584e-08
7.42451e-07
5.7536e-08
6.7505e-07
5.18191e-08
5.20868e-08
6.86695e-07
5.27332e-08
7.53831e-07
5.20968e-08
7.44456e-07
5.27528e-08
5.55172e-08
7.29867e-07
1.49356e-07
7.43314e-07
5.56018e-08
7.22678e-07
1.49346e-07
3.96583e-07
7.54171e-07
7.76758e-07
7.27532e-07
3.94971e-07
7.3969e-07
7.76084e-07
7.761e-07
6.99457e-07
7.69245e-07
6.62738e-07
7.72927e-07
7.12443e-07
7.72506e-07
7.72745e-07
7.62453e-07
7.72992e-07
6.7353e-07
7.70836e-07
7.37675e-07
7.7523e-07
7.72772e-07
7.38399e-07
7.75719e-07
5.8007e-07
7.73334e-07
7.58453e-07
7.77806e-07
7.69148e-07
6.47015e-07
7.73564e-07
7.0513e-07
7.67603e-07
6.39039e-07
7.73732e-07
7.74289e-07
6.05153e-07
5.73942e-07
7.37674e-07
7.74593e-07
6.35647e-07
5.70863e-07
2.76412e-07
6.01799e-07
6.69044e-08
6.72568e-07
2.74065e-07
6.51148e-07
6.62261e-08
5.76158e-08
6.73218e-07
5.18181e-08
7.67559e-07
5.78485e-08
6.95134e-07
5.18181e-08
5.20811e-08
7.19741e-07
5.27079e-08
6.85737e-07
3.52331e-08
6.93768e-07
3.56055e-08
5.56327e-08
7.27942e-07
1.49243e-07
6.92132e-07
3.77959e-08
6.84526e-07
1.04651e-07
3.95812e-07
7.54263e-07
7.76444e-07
6.70871e-07
3.11893e-07
6.89365e-07
7.0063e-07
7.72258e-07
6.65223e-07
7.72747e-07
6.75721e-07
6.97219e-07
6.59067e-07
7.00757e-07
7.7074e-07
7.41747e-07
7.74613e-07
6.86002e-07
6.99012e-07
6.87687e-07
6.99413e-07
7.73635e-07
7.60509e-07
7.76586e-07
6.80702e-07
6.99815e-07
6.90388e-07
7.00812e-07
7.66393e-07
6.02764e-07
7.74709e-07
6.83493e-07
6.99912e-07
5.41025e-07
7.00076e-07
7.75024e-07
6.63528e-07
5.7e-07
6.45272e-07
7.00264e-07
6.63994e-07
5.06474e-07
2.747e-07
6.83836e-07
6.59681e-08
6.82377e-07
2.05302e-07
6.74679e-07
4.49528e-08
5.7954e-08
6.83192e-07
5.18186e-08
6.10045e-07
3.90989e-08
6.72653e-07
3.51583e-08
8.10293e-07
7.00484e-07
5.35335e-07
7.27544e-07
8.38903e-07
8.51479e-07
6.88575e-07
5.95689e-07
6.8967e-07
6.53454e-07
7.54677e-07
7.34913e-07
5.43042e-07
7.61348e-07
1.29657e-07
1.29213e-07
1.29658e-07
1.83346e-07
1.84015e-07
1.83237e-07
1.84017e-07
8.96467e-07
8.71278e-07
8.70413e-07
8.38862e-07
9.11776e-07
8.93699e-07
8.7344e-07
7.27309e-07
6.94301e-07
5.04821e-07
6.87165e-07
7.6659e-07
6.01955e-07
6.75499e-07
1.29567e-07
3.70444e-08
1.29567e-07
5.18243e-08
1.83833e-07
5.48648e-08
1.83833e-07
8.9779e-07
8.86685e-07
8.73052e-07
8.89529e-07
9.04954e-07
8.96776e-07
9.03406e-07
7.73479e-07
6.96276e-07
6.33352e-07
7.58137e-07
7.70904e-07
6.63042e-07
6.97493e-07
1.2942e-07
4.45609e-07
3.52761e-08
6.89982e-08
1.83537e-07
5.28086e-07
5.19792e-08
8.60571e-07
8.46471e-07
8.77295e-07
8.43823e-07
8.43701e-07
8.19034e-07
8.58202e-07
4.28093e-07
6.94559e-07
6.79012e-07
7.44056e-07
7.6212e-07
7.18009e-07
3.36752e-07
3.52763e-08
6.98623e-07
3.52828e-08
7.68132e-07
5.19799e-08
7.71116e-07
5.19941e-08
8.05843e-07
6.54686e-07
8.64172e-07
8.35672e-07
7.99715e-07
7.77661e-07
6.76518e-07
7.58371e-07
6.98666e-07
4.66521e-07
6.56049e-07
7.71657e-07
5.30822e-07
6.92432e-07
3.52862e-08
7.00311e-07
3.52912e-08
7.75874e-07
5.20022e-08
7.74657e-07
5.20106e-08
8.10724e-07
8.81864e-07
8.59288e-07
8.63481e-07
2.63528e-07
8.64187e-07
8.89165e-07
7.64803e-07
6.97302e-07
4.65636e-07
7.21379e-07
7.66645e-07
6.87203e-07
6.9425e-07
3.52938e-08
6.99841e-07
3.52858e-08
7.74013e-07
5.20202e-08
7.7584e-07
5.20016e-08
6.3166e-07
6.5637e-07
2.10859e-07
8.6694e-07
6.92434e-07
6.96174e-07
2.4806e-07
7.65667e-07
6.97872e-07
6.89246e-07
7.49439e-07
7.72831e-07
7.41904e-07
6.95328e-07
3.52828e-08
6.93466e-07
3.52763e-08
7.6876e-07
5.19963e-08
7.67409e-07
5.19797e-08
4.89836e-07
8.59083e-07
8.76601e-07
7.72519e-07
6.21916e-07
8.78989e-07
8.87329e-07
6.24784e-07
6.98793e-07
5.00105e-07
6.93904e-07
7.74565e-07
5.17351e-07
5.45902e-07
3.52647e-08
5.3426e-08
1.2942e-07
4.85955e-07
5.19789e-08
7.91363e-08
1.83535e-07
7.53852e-07
7.39916e-07
7.68268e-07
8.83953e-07
8.59559e-07
3.75331e-07
8.82056e-07
7.6937e-07
6.93492e-07
6.92275e-07
7.27868e-07
7.59736e-07
7.46687e-07
6.98472e-07
1.29566e-07
3.518e-08
1.29566e-07
6.1478e-08
1.83831e-07
5.18391e-08
1.83831e-07
8.95716e-07
8.63209e-07
8.83705e-07
2.72199e-07
8.80952e-07
8.79873e-07
9.02699e-07
7.62635e-07
6.9597e-07
6.56938e-07
7.31526e-07
7.65736e-07
6.76671e-07
6.94737e-07
1.29658e-07
1.29271e-07
1.29658e-07
1.83263e-07
1.84018e-07
1.83354e-07
1.8402e-07
8.41347e-07
8.94517e-07
7.6127e-07
7.88801e-07
8.80798e-07
9.08394e-07
8.71931e-07
5.38888e-07
7.62802e-07
7.24814e-07
7.464e-07
5.43331e-07
7.3625e-07
7.62233e-07
1.8401e-07
1.83234e-07
1.84012e-07
1.83341e-07
1.8401e-07
1.83234e-07
1.84012e-07
9.1594e-07
9.06257e-07
9.13131e-07
8.62474e-07
9.25911e-07
8.35866e-07
8.93528e-07
6.74075e-07
7.67706e-07
6.76477e-07
7.31993e-07
6.72234e-07
7.64386e-07
6.60186e-07
1.83828e-07
5.49214e-08
1.83828e-07
5.18242e-08
1.83828e-07
5.4931e-08
1.83828e-07
8.50539e-07
9.06844e-07
9.14328e-07
9.15229e-07
9.11663e-07
8.59925e-07
9.26913e-07
7.63732e-07
7.57788e-07
7.15418e-07
6.87091e-07
7.6902e-07
7.62527e-07
7.1183e-07
1.83532e-07
5.2463e-07
5.19787e-08
6.91372e-08
1.83533e-07
5.24389e-07
5.19788e-08
9.14195e-07
9.18025e-07
8.94265e-07
8.4337e-07
8.37544e-07
8.72839e-07
8.29255e-07
4.42793e-07
7.37089e-07
6.40553e-07
7.04985e-07
4.35283e-07
7.32532e-07
6.38188e-07
5.19795e-08
7.72416e-07
5.19935e-08
7.67968e-07
5.19796e-08
7.70666e-07
5.19941e-08
8.88426e-07
6.40023e-07
6.99301e-07
9.05407e-07
7.91478e-07
3.74409e-07
4.51991e-07
7.24233e-07
7.53063e-07
6.69144e-07
6.92879e-07
7.25482e-07
7.51037e-07
6.01964e-07
5.2002e-08
7.74448e-07
5.20109e-08
7.75444e-07
5.20021e-08
7.74792e-07
5.20109e-08
2.34745e-07
8.18817e-07
8.01455e-07
5.96204e-07
2.50704e-07
6.77377e-07
6.57776e-07
7.63046e-07
7.3608e-07
7.25556e-07
5.96687e-07
7.64224e-07
7.26853e-07
7.12131e-07
5.202e-08
7.74042e-07
5.20015e-08
7.73018e-07
5.202e-08
7.74347e-07
5.20012e-08
5.76987e-07
5.96015e-07
2.42759e-07
8.55312e-07
8.86493e-07
8.4947e-07
7.01797e-07
7.50942e-07
7.70355e-07
6.71704e-07
7.2359e-07
7.55971e-07
7.70359e-07
6.72019e-07
5.19958e-08
7.67453e-07
5.19792e-08
7.72066e-07
5.19956e-08
7.67647e-07
5.19792e-08
8.10802e-07
8.39159e-07
9.3193e-07
9.0106e-07
8.59061e-07
8.12188e-07
7.55039e-07
6.253e-07
7.68102e-07
4.54122e-07
7.07678e-07
6.23103e-07
7.67425e-07
4.3299e-07
5.19783e-08
7.9223e-08
1.83531e-07
4.85357e-07
5.19783e-08
7.92233e-08
1.83531e-07
8.37014e-07
4.71543e-07
7.09248e-07
8.19615e-07
6.70933e-07
6.81216e-07
4.21506e-07
7.4477e-07
7.39428e-07
7.57265e-07
6.38151e-07
7.44777e-07
7.28976e-07
7.58606e-07
1.83826e-07
5.1839e-08
1.83826e-07
6.1694e-08
1.83826e-07
5.18369e-08
1.83826e-07
7.26026e-07
6.41562e-07
5.69888e-07
2.70656e-07
5.30553e-07
4.87858e-07
4.4293e-07
7.51182e-07
7.6169e-07
7.59649e-07
7.15594e-07
7.57145e-07
7.61145e-07
7.2935e-07
1.84013e-07
1.8335e-07
1.84016e-07
1.83263e-07
1.84014e-07
1.8335e-07
1.84016e-07
9.00132e-07
9.09537e-07
8.74497e-07
7.93283e-07
8.38478e-07
8.19664e-07
8.13246e-07
5.69323e-07
7.58029e-07
7.70316e-07
7.51317e-07
5.57531e-07
7.63178e-07
7.55273e-07
1.84015e-07
1.83236e-07
1.84017e-07
1.29269e-07
1.29658e-07
1.29213e-07
1.29658e-07
8.81947e-07
9.00331e-07
9.13384e-07
9.01372e-07
8.85392e-07
8.8191e-07
8.73286e-07
7.00517e-07
7.64383e-07
6.36332e-07
7.69864e-07
6.83217e-07
7.65514e-07
6.47728e-07
1.83833e-07
5.48785e-08
1.83832e-07
3.51609e-08
1.29567e-07
3.70628e-08
1.29567e-07
8.7372e-07
9.24003e-07
8.83e-07
8.60695e-07
8.76288e-07
8.75189e-07
8.69361e-07
7.66488e-07
7.71689e-07
7.53647e-07
7.47804e-07
7.66881e-07
7.68376e-07
7.26528e-07
1.83537e-07
5.26723e-07
5.19792e-08
4.6708e-08
1.2942e-07
4.43275e-07
3.52762e-08
6.9369e-07
8.83086e-07
7.80841e-07
6.45356e-07
5.93713e-07
6.10513e-07
6.33026e-07
5.17194e-07
7.19199e-07
5.39255e-07
5.16293e-07
4.6188e-07
7.19437e-07
4.20275e-07
5.19799e-08
7.72551e-07
5.19941e-08
6.93882e-07
3.52753e-08
6.99509e-07
3.5283e-08
9.09842e-07
4.07088e-07
4.0439e-07
8.69304e-07
8.53101e-07
3.86583e-07
2.96043e-07
7.40139e-07
7.56079e-07
6.55537e-07
7.35448e-07
7.39758e-07
7.60559e-07
6.74561e-07
5.20022e-08
7.75024e-07
5.20107e-08
7.00332e-07
3.52862e-08
7.00343e-07
3.52913e-08
1.67384e-07
4.06375e-07
6.77584e-07
6.58089e-07
4.52171e-07
6.81472e-07
6.46991e-07
7.67363e-07
7.38829e-07
6.8757e-07
7.28717e-07
7.62304e-07
7.44985e-07
6.98929e-07
5.20201e-08
7.74785e-07
5.20015e-08
7.00351e-07
3.52938e-08
6.99978e-07
3.52859e-08
8.7478e-07
8.15594e-07
8.69357e-07
8.80911e-07
8.74619e-07
8.06625e-07
8.74109e-07
7.63137e-07
7.66595e-07
7.28561e-07
7.37242e-07
7.58611e-07
7.69194e-07
7.4478e-07
5.19963e-08
7.67666e-07
5.19796e-08
6.99115e-07
3.52831e-08
6.93459e-07
3.52763e-08
9.00611e-07
6.24075e-07
7.37341e-07
8.77612e-07
8.58519e-07
6.37635e-07
5.98456e-07
6.35631e-07
7.59996e-07
5.00991e-07
6.17046e-07
6.39806e-07
7.4223e-07
3.78359e-07
5.19788e-08
7.91525e-08
1.83536e-07
4.09802e-07
3.5253e-08
5.33768e-08
1.2942e-07
5.44666e-07
5.56323e-07
3.76155e-07
6.31914e-07
6.02174e-07
6.63309e-07
6.57674e-07
7.55565e-07
7.41191e-07
6.84471e-07
7.17622e-07
7.53055e-07
7.5192e-07
6.91678e-07
1.83831e-07
5.18363e-08
1.83831e-07
4.15866e-08
1.29566e-07
3.51701e-08
1.29567e-07
5.57558e-07
4.62657e-07
4.01664e-07
6.22241e-07
6.1097e-07
6.20384e-07
5.67874e-07
7.62075e-07
7.67338e-07
6.65551e-07
7.60545e-07
7.55897e-07
7.62281e-07
6.7934e-07
1.84018e-07
1.83354e-07
1.8402e-07
1.29226e-07
1.29658e-07
1.29271e-07
1.29659e-07
7.72198e-08
6.97541e-08
3.51556e-08
5.19929e-08
5.18213e-08
5.21494e-08
1.01115e-07
7.64288e-07
6.33188e-07
6.92831e-07
6.79415e-07
7.21362e-07
7.65956e-07
6.92237e-07
1.06969e-07
3.53871e-08
7.81787e-08
5.25487e-08
5.22534e-08
1.12748e-07
7.40145e-08
5.66472e-07
7.53685e-07
7.63271e-07
7.27653e-07
7.37581e-07
5.53398e-07
7.61991e-07
7.81216e-08
5.20386e-08
1.01521e-07
5.18178e-08
5.18225e-08
7.86452e-08
1.01312e-07
7.64171e-07
6.71165e-07
7.07076e-07
7.64192e-07
6.96389e-07
7.64987e-07
7.62112e-07
1.06997e-07
5.26326e-08
5.23864e-08
1.12798e-07
5.23346e-08
1.12743e-07
1.07054e-07
2.52196e-07
1.26748e-07
4.18158e-08
5.53383e-08
1.78257e-07
6.17129e-08
1.85296e-07
7.67638e-07
6.96144e-07
6.93943e-07
7.49597e-07
7.5711e-07
7.68523e-07
6.97738e-07
6.83425e-07
5.9125e-08
6.94913e-07
1.49174e-07
8.62817e-08
7.68889e-07
5.99077e-07
7.08375e-07
6.90073e-07
7.67666e-07
6.47473e-07
7.63326e-07
6.22395e-07
6.92152e-07
2.52363e-07
5.54595e-08
1.78652e-07
6.18536e-08
1.78067e-07
6.18423e-08
2.53817e-07
7.6409e-07
6.80546e-07
7.49766e-07
7.67242e-07
7.46775e-07
7.67331e-07
7.624e-07
6.74014e-07
1.49145e-07
8.69115e-08
7.68653e-07
8.66015e-08
7.6815e-07
6.66897e-07
7.72765e-07
6.99293e-07
6.93819e-07
4.02935e-07
7.73418e-07
7.68364e-07
6.98856e-07
7.70924e-07
5.35592e-07
6.99756e-07