/*--------------------------------*- C++ -*----------------------------------*\
| =========                 |                                                 |
| \\      /  F ield         | OpenFOAM: The Open Source CFD Toolbox           |
|  \\    /   O peration     | Version:  5.0                                   |
|   \\  /    A nd           | Web:      www.OpenFOAM.org                      |
|    \\/     M anipulation  |                                                 |
\*---------------------------------------------------------------------------*/
FoamFile
{
    version     2.0;
    format      ascii;
    class       volVectorField;
    location    "2.1";
    object      U;
}
// * * * * * * * * * * * * * * * * * * * * * * * * * * * * * * * * * * * * * //

dimensions      [0 1 -1 0 0 0 0];

internalField   nonuniform List<vector> 
9186
(
(-0.00415599 0.000351778 0.000632673)
(-0.0183293 -0.0236793 0.00234003)
(0.00515448 -0.00490991 0.00157201)
(0.00512798 -0.00882662 -0.000225719)
(0.00142421 -0.0107837 -0.00041705)
(0.00596518 -0.00849254 -0.000102688)
(0.000492778 -5.32167e-05 -1.42948e-06)
(0.00078919 -2.03311e-05 -2.26394e-06)
(0.000771036 -3.3448e-06 -2.33623e-07)
(0.000783621 7.49969e-07 4.08163e-08)
(0.000789532 2.19602e-06 7.90685e-08)
(0.000794003 1.82584e-06 5.24216e-08)
(0.000797042 1.43925e-06 3.41689e-08)
(0.000798098 1.2256e-06 8.47542e-08)
(0.00079791 8.12659e-07 4.95791e-08)
(0.00079752 5.01174e-07 1.71642e-07)
(0.000796706 2.64637e-07 5.33598e-08)
(0.000795551 1.54187e-07 9.1474e-08)
(0.000794258 5.57003e-08 6.42353e-08)
(0.000792981 -8.42355e-08 1.18362e-07)
(0.000791722 -1.58165e-07 6.08425e-08)
(0.000790177 -9.04636e-08 7.22894e-08)
(0.000788489 -1.96453e-07 4.86888e-08)
(0.000786972 -8.8527e-08 4.62066e-08)
(0.000785546 8.3139e-08 3.17681e-08)
(0.000784057 2.11538e-07 5.49337e-08)
(0.000782661 2.47593e-07 2.08517e-08)
(0.000781323 1.16364e-07 5.02893e-08)
(0.00077963 2.36684e-07 7.57788e-08)
(0.000778077 -1.76279e-07 1.88617e-07)
(0.000776438 -4.10141e-07 7.11439e-08)
(0.000774652 -4.412e-07 -3.24898e-08)
(0.000773466 -1.95537e-07 1.12808e-07)
(0.000772504 3.48149e-08 1.12048e-07)
(0.000771071 1.33503e-07 4.44035e-08)
(0.000769321 -7.67574e-09 5.46919e-08)
(0.000767601 -2.84486e-07 2.83304e-08)
(0.00076587 7.92392e-08 3.73395e-08)
(0.000764972 4.72086e-07 6.58484e-08)
(0.00076392 1.40923e-07 1.33112e-07)
(0.000762135 -1.36285e-08 2.8718e-08)
(0.000760626 -8.57553e-08 7.39726e-08)
(0.000759818 -7.88725e-07 8.98009e-08)
(0.000758181 -6.29935e-07 -7.28122e-10)
(0.000756239 -3.08557e-07 3.6345e-08)
(0.000755089 -2.21955e-07 4.89623e-08)
(0.000753788 -2.11831e-07 4.54264e-08)
(0.00075253 -1.8801e-07 4.11931e-08)
(0.00075089 -4.09297e-07 4.9991e-08)
(0.000749278 -3.50417e-07 -1.61696e-09)
(0.00972039 0.0001049 -0.00423324)
(0.00985643 0.00260513 -0.000421835)
(0.00710934 0.0080157 -0.000298771)
(-0.00269306 0.00710789 -0.000671155)
(-0.00219074 -0.00239291 -0.000371586)
(0.00068581 -0.000509935 7.99271e-05)
(0.000257283 -1.61135e-06 2.23211e-06)
(0.000788674 -2.562e-05 -2.56601e-06)
(0.000779638 5.23902e-06 -6.40394e-08)
(0.000784908 -7.49674e-06 1.42202e-07)
(0.000791396 -4.5301e-06 3.78071e-08)
(0.000794869 -3.53159e-06 4.23518e-08)
(0.000797229 -2.38416e-06 4.8324e-08)
(0.000798169 -1.796e-06 4.73691e-08)
(0.000798275 -1.15668e-06 4.91092e-08)
(0.000797717 -7.13103e-07 3.95311e-08)
(0.000796787 -4.4699e-07 4.97507e-08)
(0.00079566 -2.74636e-07 9.38417e-08)
(0.000794259 6.75618e-08 4.18906e-08)
(0.000792833 3.7582e-08 2.87979e-08)
(0.000791452 7.47792e-08 2.86522e-08)
(0.000789947 -2.24863e-08 6.1742e-08)
(0.000788562 1.43954e-07 1.1939e-07)
(0.000787384 2.13081e-07 2.16711e-07)
(0.000785935 1.13771e-07 6.42316e-08)
(0.000784232 4.22586e-08 7.57648e-08)
(0.000782473 4.2442e-08 6.49843e-08)
(0.000781002 -8.62009e-08 4.79232e-08)
(0.000779336 -3.93399e-07 6.71192e-08)
(0.000777637 -2.84597e-07 8.42915e-08)
(0.00077648 -2.14108e-07 -1.21006e-07)
(0.000775202 -9.87346e-09 2.77253e-08)
(0.000773848 5.87737e-07 1.14784e-07)
(0.000772528 5.09302e-07 1.09404e-07)
(0.000770849 6.04518e-08 4.34186e-08)
(0.000769211 8.41966e-08 3.56995e-08)
(0.00076799 1.68387e-07 4.24998e-08)
(0.000766802 3.48415e-07 -1.84042e-09)
(0.000764888 6.08167e-07 2.41204e-08)
(0.000763042 2.95148e-07 1.90094e-07)
(0.000761826 1.61419e-07 5.71175e-08)
(0.000760201 -2.13646e-08 -3.06582e-08)
(0.000758816 -1.94272e-07 7.62017e-08)
(0.000758296 -7.89811e-07 7.71437e-08)
(0.00075699 -2.97543e-07 6.70692e-08)
(0.000755098 -9.90419e-08 5.94325e-08)
(0.000753776 8.09947e-08 9.17917e-08)
(0.000752375 -3.20853e-08 2.98292e-08)
(0.000750932 -1.74342e-07 -7.57332e-08)
(0.000749923 -1.90042e-07 1.09345e-07)
(-0.00788032 -0.016493 -4.44894e-05)
(0.004675 -0.00731564 0.000213422)
(0.0238868 0.00738841 0.00110764)
(0.000976802 -0.0129827 -0.000451004)
(-0.00329738 -0.00267973 0.000126837)
(-0.000364253 0.000195135 -2.20607e-05)
(0.000427436 -0.000203627 4.39001e-05)
(0.000387084 -1.53062e-05 -7.7017e-07)
(0.000817112 -1.91237e-05 -1.54355e-06)
(0.000771647 -2.24809e-05 -4.61725e-07)
(0.000794596 -1.39991e-05 1.98947e-07)
(0.000796753 -9.61186e-06 4.2154e-08)
(0.000799257 -6.26991e-06 5.95394e-08)
(0.000799662 -4.09281e-06 5.32028e-08)
(0.000799283 -2.64075e-06 5.22058e-08)
(0.00079842 -1.73807e-06 5.36009e-08)
(0.000797263 -1.13986e-06 5.50444e-08)
(0.000796199 -7.74473e-07 -7.24658e-09)
(0.000794651 -6.50214e-07 -5.44618e-08)
(0.000792991 -3.30144e-07 3.66082e-08)
(0.000791647 -1.51578e-07 2.6639e-08)
(0.000790262 1.57106e-08 4.78116e-08)
(0.000788782 1.28443e-07 4.84152e-08)
(0.000786931 1.40292e-07 2.21699e-08)
(0.00078533 3.19905e-08 4.83732e-08)
(0.000783967 -4.50397e-08 5.13244e-08)
(0.0007825 -1.22503e-07 2.63313e-08)
(0.000780781 -2.28619e-08 5.41475e-08)
(0.000779385 -6.00641e-08 9.70817e-10)
(0.000778305 4.39474e-07 2.01418e-08)
(0.000776784 4.54498e-07 1.8366e-07)
(0.000775653 4.38562e-07 1.3136e-07)
(0.000774112 2.91399e-07 -3.08218e-09)
(0.000771841 1.94477e-07 -2.48605e-08)
(0.000770536 3.67525e-09 1.02908e-07)
(0.000769455 8.92845e-08 5.34057e-08)
(0.000767929 6.68738e-08 6.47096e-08)
(0.000766416 -2.46694e-08 5.37333e-08)
(0.000764901 -1.9538e-07 2.74716e-08)
(0.000763358 4.6245e-09 1.13751e-07)
(0.000761738 1.68436e-08 6.62299e-08)
(0.000760182 1.34652e-07 5.70798e-08)
(0.000758861 5.37284e-07 6.33317e-08)
(0.000758057 6.47919e-07 1.52926e-07)
(0.000757107 1.84719e-07 2.70446e-08)
(0.000755564 2.17828e-07 3.28181e-08)
(0.000753873 3.98738e-07 3.21557e-08)
(0.000752212 4.29082e-07 7.59603e-08)
(0.000750699 2.43551e-07 3.50888e-08)
(0.000749731 1.30941e-07 1.15692e-07)
(0.00413939 0.00534902 -0.000332212)
(-0.00450659 -0.00248996 -0.00421052)
(0.00565975 -0.0362984 -0.000207301)
(0.0413604 -0.00241738 0.000755831)
(0.00979745 -0.00278933 0.000156861)
(-0.00170924 -0.000225548 -0.00014043)
(0.00122652 -0.000231582 9.68322e-05)
(0.00040381 -6.6075e-05 -1.5069e-06)
(0.00085397 -5.74969e-05 -1.2778e-06)
(0.000791566 -3.59639e-05 -5.32966e-07)
(0.000807639 -2.17752e-05 1.71616e-07)
(0.000804631 -1.35124e-05 2.27987e-08)
(0.000804195 -8.43713e-06 5.57272e-08)
(0.000802748 -5.21895e-06 4.97852e-08)
(0.000801246 -3.18659e-06 4.9531e-08)
(0.000799612 -1.90996e-06 4.90835e-08)
(0.000798003 -1.24331e-06 4.79493e-08)
(0.00079628 -7.52739e-07 1.58301e-08)
(0.000794821 -7.46638e-07 7.76719e-08)
(0.000793461 -5.24932e-07 3.04964e-08)
(0.000791887 -2.70375e-07 6.78014e-08)
(0.000790298 -1.94843e-07 5.02903e-08)
(0.000788717 -2.06083e-07 4.01349e-08)
(0.000787263 -1.46092e-07 6.41823e-08)
(0.000785703 3.12722e-08 2.6564e-08)
(0.00078404 1.4302e-07 2.66232e-08)
(0.0007825 2.68125e-07 6.5827e-08)
(0.00078108 3.99529e-07 5.45075e-08)
(0.000779912 7.19805e-07 -1.50138e-08)
(0.000778277 5.47592e-07 3.75837e-08)
(0.000776473 3.32251e-07 7.13289e-08)
(0.000774993 4.52363e-07 -4.29205e-08)
(0.00077354 -5.63716e-08 4.39673e-08)
(0.000772167 -8.37699e-08 5.04954e-08)
(0.000770717 1.44907e-07 2.29646e-08)
(0.000769289 2.23402e-08 2.29592e-07)
(0.000767847 -5.46585e-08 6.70291e-08)
(0.000766474 -1.66416e-07 5.58875e-08)
(0.000764925 -2.82016e-07 1.7356e-08)
(0.000763308 -3.09047e-07 5.11295e-08)
(0.000761988 -1.31983e-07 5.68465e-08)
(0.000760849 1.18635e-07 6.4171e-08)
(0.000759454 3.36152e-07 1.85828e-07)
(0.00075785 6.59557e-07 -9.69042e-08)
(0.000756449 2.78093e-07 5.30248e-08)
(0.000755362 8.92191e-08 8.24784e-08)
(0.000754036 1.3701e-09 5.22058e-08)
(0.000752178 3.48462e-07 4.86832e-08)
(0.000750555 1.95498e-07 4.93924e-08)
(0.000749455 2.53428e-07 1.69441e-07)
(-0.00135177 -0.0101437 -0.000725203)
(0.00296824 0.00111266 -0.001138)
(0.00265376 -0.0150576 0.00108669)
(-0.0124051 0.0130853 0.000123402)
(0.00629198 0.00326383 0.000869674)
(-0.00154794 0.00031238 -7.71631e-05)
(0.00104015 -0.000498813 3.83782e-05)
(0.000452328 -7.36831e-05 -8.67145e-07)
(0.000904195 -5.67645e-05 -1.14567e-06)
(0.000816714 -3.3163e-05 -5.74483e-07)
(0.000822845 -1.95276e-05 1.87035e-07)
(0.00081354 -1.17177e-05 3.13453e-07)
(0.000809695 -6.99776e-06 2.09306e-07)
(0.000806269 -4.34149e-06 5.03112e-08)
(0.000803446 -2.77308e-06 5.88462e-08)
(0.000800865 -1.82009e-06 3.66414e-08)
(0.000798719 -1.0579e-06 4.83489e-08)
(0.000796827 -6.01936e-07 4.70774e-08)
(0.000794941 -1.92267e-07 9.62858e-08)
(0.000793591 8.4226e-08 9.49546e-08)
(0.000792063 -3.72233e-08 6.31795e-08)
(0.000790346 6.6902e-08 2.22158e-08)
(0.000788845 8.62066e-08 2.71131e-07)
(0.00078723 7.72853e-08 9.26672e-08)
(0.000785692 2.15817e-08 1.09481e-07)
(0.000784262 -1.15002e-07 5.84554e-08)
(0.000782818 1.32094e-07 6.71565e-08)
(0.00078134 2.58227e-07 6.96115e-08)
(0.000779563 3.79076e-07 2.29442e-07)
(0.000777813 2.06987e-07 1.41961e-07)
(0.000776658 8.86583e-08 7.12165e-08)
(0.000775163 -1.66452e-07 1.89488e-08)
(0.000773439 8.89187e-08 7.23882e-08)
(0.000772091 3.48598e-08 4.91806e-08)
(0.000770668 5.44841e-08 5.31633e-08)
(0.000769205 -5.32812e-08 4.69953e-08)
(0.000767693 -8.0159e-08 -1.41123e-07)
(0.000766134 -9.16007e-08 5.10738e-08)
(0.000764725 -1.41965e-07 4.62468e-08)
(0.000763547 -1.24004e-07 7.70001e-08)
(0.000762273 1.20107e-07 5.40434e-08)
(0.000760765 1.70163e-07 3.94927e-07)
(0.000759534 8.55905e-08 2.11626e-08)
(0.00075798 4.32324e-08 6.83573e-08)
(0.000756391 -3.47153e-08 8.68927e-08)
(0.000755217 -1.76702e-07 5.04237e-08)
(0.000754196 -5.42284e-07 -8.09926e-09)
(0.000752453 -8.94691e-07 3.98178e-08)
(0.000750573 -2.81026e-07 5.72525e-08)
(0.000749172 3.66398e-08 5.36477e-08)
(0.00180242 -0.00478945 0.00034573)
(0.000821804 -0.00404683 -0.000168923)
(0.00727305 -0.000344153 -0.00123121)
(0.049913 0.00116521 0.000906639)
(0.00731639 -0.00828985 0.000611793)
(-0.00938425 -0.00871786 0.000455043)
(0.00154623 -0.000857099 -2.66079e-05)
(0.000536186 -3.03021e-05 -1.63233e-06)
(0.000939748 -2.16362e-05 -1.58143e-06)
(0.000838178 -1.18626e-05 -5.41419e-07)
(0.000834576 -7.13268e-06 1.48779e-07)
(0.000820369 -4.14425e-06 1.05431e-08)
(0.000813461 -2.40005e-06 8.69885e-08)
(0.000808056 -1.51136e-06 4.53766e-08)
(0.000804415 -1.03416e-06 4.98804e-08)
(0.000801767 -7.60651e-07 6.19954e-08)
(0.000799533 -4.70654e-07 4.97774e-08)
(0.000797366 -3.78284e-07 5.08887e-08)
(0.00079568 -1.56129e-07 2.14606e-08)
(0.000793655 1.46844e-07 4.16769e-08)
(0.000791865 1.15389e-07 4.65363e-08)
(0.000790452 1.22745e-07 1.85926e-07)
(0.00078873 8.54465e-08 5.6329e-08)
(0.000787181 6.93223e-08 -1.63713e-08)
(0.000785463 8.3474e-08 -4.51171e-08)
(0.000784177 1.71055e-07 -2.50197e-10)
(0.000782966 -3.8702e-08 3.89855e-08)
(0.000781386 -1.44614e-07 -1.00125e-09)
(0.000779845 1.43074e-07 3.00668e-08)
(0.000777911 -2.245e-07 -7.14451e-08)
(0.000776006 -1.80815e-07 2.35635e-08)
(0.000774992 -2.17342e-07 1.59046e-07)
(0.000773791 -2.12771e-07 1.69425e-08)
(0.000772122 -1.17578e-07 4.43041e-08)
(0.000770606 -1.71688e-07 -2.74358e-08)
(0.000769121 -9.98173e-08 4.13642e-08)
(0.0007678 -8.98816e-08 2.19782e-08)
(0.000766398 4.24177e-08 5.25241e-08)
(0.000764886 1.75982e-07 6.01655e-08)
(0.000763636 2.27176e-07 5.57244e-08)
(0.000762355 2.06383e-07 5.43098e-08)
(0.000760805 3.42826e-07 2.66912e-07)
(0.000759294 2.79598e-07 2.40062e-08)
(0.0007577 3.96077e-08 4.60289e-08)
(0.000756175 -3.93818e-08 3.77208e-08)
(0.000754731 -1.62178e-07 4.40322e-08)
(0.000753143 -4.28768e-07 -5.99652e-08)
(0.000752509 -7.72808e-07 6.0795e-08)
(0.00075172 -5.23586e-07 1.36521e-07)
(0.000749761 -3.43717e-07 1.21927e-07)
(0.0020191 -0.0072013 0.000286465)
(0.00567078 -0.0108702 -0.000541256)
(0.00372016 -0.00278188 0.000117159)
(-0.010768 0.00217492 0.000916282)
(0.00739112 0.0034217 0.000210075)
(0.00848672 0.00149664 -0.000118549)
(0.00214565 -0.000556529 6.46737e-05)
(0.000521861 1.49038e-05 2.98443e-08)
(0.000928289 2.65237e-05 -1.73279e-06)
(0.000834995 1.6556e-05 -4.35041e-07)
(0.000832491 9.28738e-06 1.47503e-07)
(0.000819451 5.61853e-06 2.20437e-08)
(0.000812982 3.30727e-06 5.17532e-08)
(0.000807974 2.06156e-06 4.88525e-08)
(0.000804383 1.34102e-06 4.90548e-08)
(0.000801569 8.90762e-07 5.07408e-08)
(0.000799197 4.34023e-07 5.24179e-08)
(0.00079722 2.70991e-07 6.90642e-08)
(0.000795597 2.68021e-07 7.56714e-08)
(0.000793929 2.00982e-08 7.43286e-08)
(0.000792031 1.45981e-07 5.60541e-08)
(0.000790306 2.75212e-08 4.66477e-08)
(0.000788777 4.99156e-08 4.18866e-08)
(0.000787227 2.21062e-08 4.66876e-08)
(0.000785818 7.48434e-08 1.374e-07)
(0.000784109 1.434e-07 9.16971e-08)
(0.000782424 -1.45758e-07 6.02038e-08)
(0.000781568 -3.30539e-07 4.55615e-08)
(0.000779466 -1.07867e-06 -1.02139e-07)
(0.000777411 -9.20227e-07 8.50784e-08)
(0.00077667 -5.79076e-07 2.98991e-08)
(0.000775127 -9.95888e-08 8.14357e-08)
(0.000773566 -1.40118e-07 4.05051e-08)
(0.000772145 -1.59004e-07 6.92767e-08)
(0.000770692 -1.57077e-07 7.91389e-08)
(0.000769308 -6.7715e-08 5.45079e-08)
(0.000767871 -8.58801e-08 4.9377e-08)
(0.000766466 -7.55034e-08 5.46218e-08)
(0.000764955 1.32714e-08 3.68034e-08)
(0.000763584 2.00772e-07 -5.23399e-08)
(0.000762416 1.44413e-08 4.21097e-08)
(0.000760855 -1.93092e-07 -1.17427e-08)
(0.000759153 -1.39984e-07 6.18062e-08)
(0.000757581 -2.37263e-07 5.25625e-08)
(0.00075614 -6.55988e-08 9.96784e-09)
(0.000754732 3.00982e-09 4.96528e-08)
(0.000753436 -1.63496e-09 9.09671e-08)
(0.00075234 1.88161e-07 2.95297e-08)
(0.00075112 -2.8478e-07 -1.47355e-08)
(0.000750254 -3.12984e-07 3.07325e-08)
(0.013055 0.00113045 -0.000624089)
(0.00389931 0.00793345 0.0008613)
(0.00745565 -0.000232085 0.00464393)
(-0.0286517 -0.0333035 -0.00147681)
(0.0063089 0.000652536 0.00045039)
(0.00796217 -0.00255232 0.000318766)
(0.00186776 -0.000273484 3.70453e-05)
(0.000525339 4.98942e-05 1.03905e-06)
(0.000888246 4.12278e-05 -1.3511e-06)
(0.000816258 3.26642e-05 -3.78829e-07)
(0.000820754 1.88754e-05 1.59566e-07)
(0.000812804 1.19498e-05 3.79159e-08)
(0.000808959 7.37411e-06 5.66011e-08)
(0.000805565 4.57519e-06 4.97099e-08)
(0.00080293 2.87529e-06 5.16755e-08)
(0.000800619 1.81647e-06 5.15263e-08)
(0.00079875 1.30806e-06 1.20294e-07)
(0.000797153 9.60685e-07 9.91742e-08)
(0.000795363 6.37611e-07 -1.31499e-07)
(0.0007935 2.84939e-07 -1.52738e-08)
(0.000791872 7.64579e-08 4.70695e-08)
(0.00079033 2.3998e-08 6.73683e-08)
(0.000788723 -8.48761e-08 3.21599e-08)
(0.000787212 -7.28617e-08 4.80113e-08)
(0.000785614 -2.30618e-07 6.42003e-08)
(0.000783902 -2.96283e-07 4.80996e-08)
(0.000782374 -1.32631e-07 -2.4538e-07)
(0.000780224 -2.16278e-07 1.27467e-07)
(0.000779115 -5.53703e-07 1.71007e-07)
(0.000778543 5.79739e-08 7.56322e-08)
(0.000777036 2.3473e-07 9.1837e-08)
(0.000775544 5.31455e-09 2.1315e-07)
(0.000773718 7.10585e-08 5.49524e-08)
(0.000772103 1.18688e-07 5.27458e-08)
(0.000770721 7.79068e-08 4.25564e-08)
(0.000769211 -1.05891e-07 5.31402e-08)
(0.000767791 -3.28986e-07 5.93873e-08)
(0.000766522 -1.67042e-07 5.83016e-08)
(0.00076523 -2.0958e-08 4.32661e-08)
(0.000763636 -2.55096e-09 6.50611e-08)
(0.000761863 -7.39696e-08 1.99399e-08)
(0.000760613 -1.05908e-07 4.73884e-08)
(0.000759241 -1.16024e-07 5.61293e-08)
(0.000757795 -1.00469e-07 4.59449e-08)
(0.000756477 -4.89524e-08 7.19197e-08)
(0.000754812 9.18115e-08 4.65127e-08)
(0.000753375 4.53119e-07 4.22316e-08)
(0.000752156 3.39876e-07 5.18935e-08)
(0.000751102 1.83043e-07 6.53712e-08)
(0.000750507 -4.4985e-08 6.3957e-08)
(-0.00950516 0.00696414 0.000309687)
(-0.00877889 -0.00821569 0.000153159)
(-0.0168724 -0.0242304 0.00296474)
(-0.0241445 0.00468578 2.4892e-05)
(-0.0102783 -0.00796951 -0.000282269)
(-0.00130698 -0.00315079 -5.4998e-05)
(0.000473931 0.000265409 4.73911e-05)
(0.000828946 0.000143399 -2.60579e-06)
(0.000808691 5.25037e-05 -3.33791e-07)
(0.000806746 3.83394e-05 -4.33095e-08)
(0.00080639 2.20434e-05 2.62201e-08)
(0.000804949 1.38852e-05 3.33903e-08)
(0.000803685 8.52115e-06 4.42529e-08)
(0.000802301 5.14714e-06 4.98815e-08)
(0.000800904 3.26015e-06 5.28467e-08)
(0.000799591 2.16622e-06 1.14136e-07)
(0.000798114 1.4991e-06 -1.47143e-07)
(0.000796373 9.51232e-07 9.13061e-09)
(0.000794746 5.1876e-07 1.96424e-08)
(0.000793224 3.10056e-07 5.79522e-08)
(0.000791704 2.00985e-07 5.36387e-08)
(0.000790105 -1.96702e-08 6.67013e-08)
(0.000788657 -6.81127e-08 2.83085e-08)
(0.000787047 -1.51157e-07 5.23765e-08)
(0.000785542 -2.11555e-07 4.98694e-08)
(0.000784233 -1.94897e-07 5.91991e-08)
(0.000782526 -1.11425e-07 4.75952e-08)
(0.000781044 -2.11899e-08 7.68e-08)
(0.00077981 5.22977e-07 4.38057e-08)
(0.000778397 4.50045e-07 7.47007e-08)
(0.000776604 4.46061e-07 1.35518e-09)
(0.000774921 2.68679e-07 4.31667e-08)
(0.000773707 -4.46629e-08 -1.18988e-07)
(0.000772152 -1.05147e-07 5.98966e-08)
(0.000770412 -3.45855e-08 4.13884e-08)
(0.000768801 3.93874e-08 5.67389e-08)
(0.000767797 3.83652e-07 8.149e-08)
(0.000766852 1.12534e-07 5.01128e-08)
(0.000765162 -1.48013e-07 8.05551e-08)
(0.000763518 -2.22316e-07 4.00569e-08)
(0.000762287 -1.37763e-07 5.85811e-08)
(0.000760803 -2.59674e-08 2.00008e-08)
(0.000759162 3.05835e-07 4.24615e-08)
(0.000757666 1.76047e-07 3.89478e-08)
(0.000756381 2.24152e-07 7.16299e-08)
(0.000755359 1.77819e-07 4.87555e-08)
(0.000753744 3.57012e-07 2.83604e-08)
(0.000751999 4.65459e-07 4.03262e-08)
(0.000750638 7.31553e-07 -5.938e-08)
(0.000750079 4.9582e-07 8.97539e-08)
(0.0424372 0.00605907 0.0248541)
(-0.0157155 0.00589377 -0.00256831)
(0.00489007 0.00458746 0.00185178)
(-0.00490971 -0.00335097 0.00034508)
(0.0198267 0.0139129 -0.00326337)
(-0.00403064 0.00559315 -6.32014e-05)
(0.000287604 0.000111637 2.1381e-07)
(0.000709017 5.27123e-05 -1.78557e-06)
(0.000752856 3.29651e-05 3.1611e-07)
(0.000777856 2.26591e-05 1.58869e-07)
(0.000789988 1.45626e-05 6.51448e-08)
(0.000795784 9.23845e-06 1.07502e-07)
(0.000797964 5.84723e-06 1.56897e-07)
(0.000798944 3.95112e-06 6.95325e-08)
(0.000799177 2.50215e-06 5.48011e-08)
(0.0007984 1.56725e-06 6.94903e-08)
(0.000797219 8.52891e-07 4.53656e-08)
(0.00079592 4.44974e-07 3.79323e-08)
(0.000794557 1.97594e-07 7.15724e-08)
(0.0007931 5.55671e-08 6.53609e-08)
(0.000791459 3.7491e-09 2.07819e-08)
(0.000789994 7.05871e-08 1.91703e-07)
(0.00078856 6.15586e-08 5.12571e-08)
(0.000787035 -6.34489e-08 4.14971e-08)
(0.000785562 2.10104e-09 6.09441e-08)
(0.00078403 -6.00499e-08 -1.52072e-08)
(0.000782594 -1.39234e-07 1.04328e-07)
(0.000781017 4.75644e-08 4.71518e-08)
(0.000779702 8.42231e-08 3.8378e-08)
(0.000778444 -9.64692e-08 4.97221e-08)
(0.000776807 -1.72058e-07 1.16304e-07)
(0.000774929 -2.30462e-07 -3.97386e-09)
(0.000773252 -3.89653e-07 4.30712e-08)
(0.000772117 -4.26642e-07 3.46592e-08)
(0.000770903 -1.11577e-07 2.304e-08)
(0.000769734 9.91716e-08 5.01895e-08)
(0.000767882 3.05139e-07 1.66577e-08)
(0.000765858 -5.73746e-08 4.99504e-08)
(0.000764814 -4.81175e-07 5.23042e-08)
(0.000763652 -2.10726e-07 5.8588e-08)
(0.00076211 -1.61849e-07 5.71508e-08)
(0.000761168 -3.34189e-07 8.63488e-08)
(0.000759493 -3.05455e-07 2.8116e-08)
(0.000757692 1.91115e-07 1.3955e-07)
(0.000756477 1.07784e-07 1.74453e-08)
(0.000754975 8.01897e-08 4.36858e-08)
(0.00075373 -1.06716e-07 3.79079e-08)
(0.000752619 1.16555e-07 4.82699e-08)
(0.000751126 3.19387e-07 -4.62329e-08)
(0.000748976 3.25316e-07 6.21058e-08)
(-0.0239098 -0.00397316 0.000169314)
(-0.0286135 -0.0489556 -0.00496539)
(0.00728373 -0.0138859 0.0094593)
(0.0101674 -0.00634017 -0.00199934)
(-0.000107791 -0.0172547 0.000840467)
(0.0167527 -0.01962 -0.00230355)
(0.00144393 -0.000217028 -4.02933e-06)
(0.00131557 -4.95728e-05 3.20671e-07)
(0.00128409 -1.45707e-05 3.19931e-07)
(0.00130551 -4.17493e-06 3.49159e-07)
(0.00131531 3.5185e-07 3.76254e-07)
(0.00132268 9.84712e-07 2.64979e-07)
(0.00132772 1.10244e-06 5.3255e-07)
(0.00132944 1.23302e-06 3.46116e-07)
(0.00132911 8.44381e-07 3.40877e-07)
(0.00132839 5.09781e-07 4.41631e-07)
(0.00132699 2.40161e-07 3.36213e-07)
(0.00132511 1.46478e-07 3.37852e-07)
(0.0013229 1.78955e-08 3.86226e-07)
(0.00132072 -1.71238e-07 3.76772e-07)
(0.00131863 -2.30595e-07 3.15962e-07)
(0.00131602 -6.8293e-08 3.4926e-07)
(0.00131323 -2.335e-07 3.1612e-07)
(0.00131076 -6.61369e-08 2.87869e-07)
(0.00130839 2.25991e-07 2.86286e-07)
(0.00130588 4.61828e-07 3.29313e-07)
(0.00130357 4.72963e-07 2.24375e-07)
(0.00130143 1.99716e-07 3.31537e-07)
(0.00129853 3.78889e-07 3.91639e-07)
(0.00129582 -3.55654e-07 6.34093e-07)
(0.00129318 -8.02521e-07 3.57706e-07)
(0.00129023 -7.68357e-07 1.44151e-07)
(0.00128822 -3.273e-07 3.72304e-07)
(0.0012867 9.7404e-08 3.71427e-07)
(0.00128437 2.69467e-07 3.23208e-07)
(0.00128144 6.01987e-08 3.10741e-07)
(0.00127856 -3.83108e-07 3.05253e-07)
(0.0012757 1.77144e-07 2.92487e-07)
(0.00127414 8.18807e-07 2.78238e-07)
(0.00127241 3.27922e-07 4.04398e-07)
(0.00126952 1.31326e-08 2.81358e-07)
(0.00126699 -1.22365e-07 3.42899e-07)
(0.00126563 -1.20565e-06 3.62475e-07)
(0.00126291 -9.62104e-07 1.97537e-07)
(0.00125975 -5.03553e-07 3.21024e-07)
(0.0012578 -4.02896e-07 3.37027e-07)
(0.00125557 -3.57824e-07 2.79763e-07)
(0.0012535 -3.67806e-07 3.08255e-07)
(0.00125075 -6.7132e-07 3.54499e-07)
(0.001248 -5.6123e-07 1.82986e-07)
(-0.0184466 0.0475713 -0.0107167)
(0.0120044 -0.00954475 0.00874279)
(-0.00119036 0.00886679 -0.00294997)
(0.000219639 0.00792336 -0.00272025)
(0.00120695 0.00881822 -0.000512689)
(0.00093402 0.00462494 0.00118091)
(0.00140477 -8.50006e-05 6.49977e-06)
(0.00132679 -5.66596e-05 3.45082e-07)
(0.00130593 1.76419e-06 3.73814e-07)
(0.00131163 -1.65568e-05 5.72536e-07)
(0.0013207 -1.00141e-05 3.29307e-07)
(0.00132549 -7.36308e-06 3.31606e-07)
(0.00132881 -4.87019e-06 3.33804e-07)
(0.00133 -3.55455e-06 3.32471e-07)
(0.00132993 -2.287e-06 3.32807e-07)
(0.00132889 -1.45777e-06 2.69324e-07)
(0.00132729 -9.12939e-07 3.33623e-07)
(0.00132534 -6.05362e-07 4.32023e-07)
(0.00132296 -2.62861e-08 3.84835e-07)
(0.00132055 9.33467e-09 3.09149e-07)
(0.00131825 1.51658e-07 -6.05491e-08)
(0.00131572 -1.05147e-08 3.67189e-07)
(0.00131338 3.63996e-07 6.69008e-07)
(0.00131143 4.30329e-07 8.00777e-07)
(0.00130899 2.52335e-07 3.20667e-07)
(0.00130612 1.1113e-07 3.37566e-07)
(0.0013032 9.76341e-08 3.61805e-07)
(0.00130077 -1.67994e-07 3.25489e-07)
(0.001298 -7.93442e-07 3.02256e-07)
(0.00129514 -5.41093e-07 3.20386e-07)
(0.00129328 -4.01996e-07 5.10593e-08)
(0.00129124 -6.68677e-08 2.75399e-07)
(0.00128899 9.9054e-07 4.70414e-07)
(0.00128676 9.27331e-07 4.51664e-07)
(0.00128397 1.72755e-07 3.18267e-07)
(0.00128124 1.65599e-07 3.08414e-07)
(0.00127916 3.04047e-07 3.00769e-07)
(0.00127718 5.89542e-07 6.28367e-08)
(0.00127407 1.0285e-06 3.47371e-07)
(0.00127101 5.74084e-07 4.99719e-07)
(0.00126892 2.56233e-07 3.30706e-07)
(0.00126627 -8.46704e-08 -5.80325e-09)
(0.001264 -3.90617e-07 2.94921e-07)
(0.00126306 -1.26415e-06 3.94625e-07)
(0.00126086 -5.00162e-07 3.22347e-07)
(0.00125782 -2.35954e-07 3.23248e-07)
(0.00125561 9.725e-08 3.2755e-07)
(0.00125325 -7.99031e-08 2.84208e-07)
(0.00125084 -3.41061e-07 7.90824e-08)
(0.00124913 -3.3867e-07 4.02726e-07)
(-0.00420357 -0.00189713 0.00182362)
(0.0238393 -2.99119e-05 -0.00042989)
(0.0478504 0.0710472 0.0107417)
(-0.0114458 -0.024879 -0.00616955)
(-0.00144441 -0.000489272 0.000359586)
(0.000354505 0.00433685 -0.000443953)
(0.00108316 0.000168309 5.7882e-05)
(0.00119125 -5.31251e-05 7.235e-07)
(0.00137157 -3.31206e-05 -3.13943e-07)
(0.00129125 -3.81669e-05 3.21662e-07)
(0.001327 -2.37837e-05 3.32445e-07)
(0.00132924 -1.62836e-05 3.32576e-07)
(0.00133256 -1.06175e-05 3.33322e-07)
(0.00133272 -6.92424e-06 3.3403e-07)
(0.00133176 -4.46569e-06 3.33727e-07)
(0.00133014 -2.92742e-06 3.34455e-07)
(0.00132807 -1.93142e-06 3.32712e-07)
(0.00132622 -1.32151e-06 1.60566e-07)
(0.00132368 -1.13246e-06 2.07578e-07)
(0.00132094 -5.94204e-07 3.0995e-07)
(0.0013186 -3.09385e-07 2.5705e-07)
(0.00131628 -1.72245e-08 3.27807e-07)
(0.00131377 1.93787e-07 3.68825e-07)
(0.00131062 2.31724e-07 2.49476e-07)
(0.00130798 2.8715e-08 3.40774e-07)
(0.00130569 -4.46786e-08 3.26159e-07)
(0.00130322 -1.5571e-07 1.35668e-07)
(0.00130032 1.07594e-08 3.17766e-07)
(0.00129807 -5.47187e-08 2.16116e-07)
(0.00129632 8.02998e-07 2.27914e-07)
(0.00129378 9.01287e-07 4.54675e-07)
(0.00129197 8.18902e-07 4.33928e-07)
(0.00128946 5.14454e-07 2.21193e-07)
(0.00128567 3.35295e-07 1.27097e-07)
(0.00128342 6.6274e-09 3.51009e-07)
(0.0012816 1.39039e-07 3.31289e-07)
(0.00127909 1.19794e-07 2.90084e-07)
(0.0012766 -1.48866e-08 3.50798e-07)
(0.00127411 -2.84247e-07 3.04879e-07)
(0.00127144 -1.47061e-08 4.17551e-07)
(0.0012687 2.62493e-08 3.73808e-07)
(0.00126618 2.39152e-07 3.45419e-07)
(0.00126416 9.52776e-07 3.2362e-07)
(0.00126278 1.06424e-06 3.61484e-07)
(0.00126105 3.97576e-07 9.95654e-08)
(0.00125855 4.1694e-07 3.05633e-07)
(0.00125577 6.43767e-07 3.0754e-07)
(0.00125295 6.80874e-07 3.4319e-07)
(0.00125044 3.78928e-07 2.93474e-07)
(0.00124885 2.09362e-07 4.95249e-07)
(0.0124947 0.0159419 -0.00286581)
(0.0116508 -0.0172115 -0.00278862)
(-0.0689942 -0.0465853 -0.00961272)
(0.0541401 0.0357129 0.0250016)
(0.00443467 0.00439487 -0.00215307)
(-0.00511302 -0.00219105 -0.00225983)
(0.000268361 -0.00258979 8.44345e-05)
(0.00123943 -0.000186809 7.57365e-07)
(0.00143201 -9.11333e-05 2.98353e-07)
(0.00132375 -5.70999e-05 4.69584e-07)
(0.00134831 -3.45931e-05 3.39032e-07)
(0.00134211 -2.14527e-05 3.15226e-07)
(0.00134062 -1.34213e-05 3.35502e-07)
(0.00133776 -8.29936e-06 3.35237e-07)
(0.00133498 -5.05954e-06 3.34266e-07)
(0.00133209 -3.03125e-06 3.33346e-07)
(0.00132932 -1.96707e-06 3.32991e-07)
(0.00132635 -1.16814e-06 2.66361e-07)
(0.00132388 -1.1758e-06 3.73152e-07)
(0.00132159 -8.44772e-07 2.98161e-07)
(0.00131898 -5.13446e-07 2.75748e-07)
(0.00131635 -3.7962e-07 3.29783e-07)
(0.00131369 -4.37935e-07 3.23023e-07)
(0.00131122 -2.80997e-07 3.8201e-07)
(0.00130864 1.51326e-08 2.71976e-07)
(0.00130589 2.15779e-07 2.9462e-07)
(0.00130327 4.52464e-07 3.96322e-07)
(0.00130089 7.26562e-07 3.71011e-07)
(0.00129898 1.35076e-06 2.7477e-07)
(0.00129633 1.04593e-06 3.01211e-07)
(0.00129329 7.27537e-07 3.64427e-07)
(0.00129075 9.09314e-07 2.3041e-07)
(0.00128838 2.80022e-08 3.15338e-07)
(0.00128613 -1.05051e-07 3.2308e-07)
(0.00128372 2.42225e-07 2.65389e-07)
(0.00128139 4.33289e-08 5.28208e-07)
(0.00127897 -9.77955e-08 3.23832e-07)
(0.00127668 -2.65359e-07 3.53696e-07)
(0.00127408 -5.11222e-07 1.88413e-07)
(0.0012714 -5.47561e-07 2.55991e-07)
(0.00126924 -1.76646e-07 3.01219e-07)
(0.00126742 2.91441e-07 3.69719e-07)
(0.00126503 6.47907e-07 6.33634e-07)
(0.00126235 1.0718e-06 -2.54508e-08)
(0.00126005 4.52809e-07 3.20869e-07)
(0.00125812 1.64459e-07 3.51795e-07)
(0.00125594 1.53303e-08 3.87755e-07)
(0.00125292 5.16192e-07 3.015e-07)
(0.00125024 3.36236e-07 3.7219e-07)
(0.0012484 4.24231e-07 5.4177e-07)
(-0.0090824 -0.00271242 -0.00642524)
(0.00831855 -0.0220032 -0.00145966)
(0.0368822 -0.0135538 0.00117105)
(-0.00597803 -0.00160561 0.000594298)
(-0.00164135 -0.0080135 0.00260476)
(-0.0105993 0.00529179 0.000988033)
(0.000119896 -0.00242629 -5.92773e-05)
(0.00135974 -0.000193873 3.31818e-06)
(0.00150959 -8.64739e-05 6.10857e-07)
(0.00136258 -5.02423e-05 4.17899e-07)
(0.00137185 -2.94658e-05 3.6452e-07)
(0.00135588 -1.76626e-05 6.75407e-07)
(0.00134911 -1.04755e-05 4.42265e-07)
(0.00134324 -6.5005e-06 3.37057e-07)
(0.00133839 -4.14992e-06 3.68574e-07)
(0.00133403 -2.71211e-06 3.45367e-07)
(0.00133041 -1.57098e-06 3.33381e-07)
(0.00132722 -9.09066e-07 3.29486e-07)
(0.00132409 -2.75799e-07 3.57828e-07)
(0.00132178 1.17755e-07 3.59488e-07)
(0.00131919 -5.73246e-08 3.63139e-07)
(0.00131638 1.14734e-07 3.17824e-07)
(0.0013139 1.33075e-07 5.83539e-07)
(0.00131119 1.07072e-07 3.7282e-07)
(0.00130861 5.29852e-08 2.98145e-07)
(0.00130623 -2.31425e-07 3.28071e-07)
(0.00130385 1.98389e-07 3.79828e-07)
(0.00130143 4.21118e-07 3.35577e-07)
(0.00129846 6.48546e-07 4.91496e-07)
(0.00129553 3.74881e-07 4.36101e-07)
(0.0012936 1.9692e-07 3.13792e-07)
(0.00129108 -2.44375e-07 2.57824e-07)
(0.00128819 2.11679e-07 3.46325e-07)
(0.00128594 9.03135e-08 3.22046e-07)
(0.0012836 1.2492e-07 3.08612e-07)
(0.00128117 -9.63073e-08 3.18689e-07)
(0.0012787 -1.70504e-07 -1.99454e-07)
(0.00127608 -1.89456e-07 2.57032e-07)
(0.00127376 -2.64306e-07 3.20259e-07)
(0.00127186 -2.06957e-07 1.61655e-07)
(0.00126975 2.07963e-07 3.18841e-07)
(0.00126721 3.37652e-07 1.06956e-06)
(0.00126513 1.25388e-07 1.36144e-07)
(0.00126253 4.92815e-08 2.58129e-07)
(0.00125991 -1.46412e-07 6.35944e-07)
(0.001258 -3.26515e-07 3.14745e-07)
(0.00125621 -9.00115e-07 5.5956e-08)
(0.00125335 -1.41886e-06 2.65484e-07)
(0.00125031 -4.61352e-07 3.58887e-07)
(0.0012479 7.45725e-08 3.45213e-07)
(-0.00784073 -0.00163249 -0.000308457)
(0.0104709 0.00169703 1.62522e-05)
(0.0229882 -0.0130025 -0.00101052)
(0.0150239 0.00417336 -0.00029833)
(-0.00895426 -0.00868372 -0.00698292)
(-0.0530799 0.000379673 -0.00161032)
(0.00362327 -0.00464762 -1.94706e-06)
(0.00158995 -6.77094e-05 2.6959e-06)
(0.00156249 -2.82146e-05 6.19427e-07)
(0.00139497 -1.47716e-05 3.65092e-07)
(0.00138921 -8.73554e-06 3.05795e-07)
(0.00136595 -4.96122e-06 3.58318e-07)
(0.00135463 -2.75272e-06 2.71222e-07)
(0.0013457 -1.7292e-06 3.35941e-07)
(0.00133973 -1.2158e-06 3.2825e-07)
(0.00133533 -9.22922e-07 3.38678e-07)
(0.00133158 -5.66064e-07 3.33413e-07)
(0.00132798 -4.82169e-07 3.56875e-07)
(0.00132516 -1.79194e-07 3.06315e-07)
(0.00132186 2.81411e-07 3.31088e-07)
(0.00131897 2.47689e-07 3.50501e-07)
(0.00131658 2.50529e-07 5.53564e-07)