/*--------------------------------*- C++ -*----------------------------------*\
| =========                 |                                                 |
| \\      /  F ield         | OpenFOAM: The Open Source CFD Toolbox           |
|  \\    /   O peration     | Version:  5.0                                   |
|   \\  /    A nd           | Web:      www.OpenFOAM.org                      |
|    \\/     M anipulation  |                                                 |
\*---------------------------------------------------------------------------*/
FoamFile
{
    version     2.0;
    format      ascii;
    class       volVectorField;
    location    "2.1";
    object      U_0;
}
// * * * * * * * * * * * * * * * * * * * * * * * * * * * * * * * * * * * * * //

dimensions      [0 1 -1 0 0 0 0];

internalField   nonuniform List<vector> 
9186
(
(-0.00502757 -0.00122813 -5.44007e-05)
(-0.0173021 -0.0228577 0.00316365)
(0.00536714 -0.00822087 0.00108557)
(0.00405143 -0.004751 0.000232609)
(0.00212644 -0.0116393 -0.000440352)
(0.00633455 -0.0106031 -4.35926e-05)
(0.000435942 -0.000151535 -2.09085e-06)
(0.000780052 -8.98764e-05 -2.09717e-06)
(0.00076453 -4.33467e-05 -3.57231e-07)
(0.000780404 -2.32525e-05 1.14547e-07)
(0.000786649 -1.23322e-05 7.74108e-08)
(0.000791105 -7.05583e-06 6.84856e-08)
(0.000793963 -4.05294e-06 -2.19699e-08)
(0.000794907 -2.23356e-06 4.25805e-08)
(0.000794759 -1.37979e-06 4.97853e-08)
(0.000794173 -9.43034e-07 2.92306e-08)
(0.000793221 -6.28392e-07 5.29651e-08)
(0.000792287 -4.57595e-07 3.84618e-08)
(0.000790827 -3.51624e-07 5.86004e-08)
(0.000789233 -2.10175e-07 6.4958e-08)
(0.000787916 -1.6764e-07 7.22234e-08)
(0.000786392 -2.06768e-08 3.25419e-08)
(0.00078486 -1.80209e-07 7.43615e-09)
(0.000783431 1.56831e-10 4.6341e-08)
(0.000781982 1.00188e-07 1.3676e-08)
(0.000780473 2.76938e-07 6.33586e-08)
(0.000778985 3.04774e-07 6.19044e-08)
(0.000777841 1.2919e-07 4.89121e-08)
(0.000775865 2.73022e-07 6.61904e-08)
(0.000773942 -1.6537e-07 6.2858e-08)
(0.000772799 -5.66322e-07 -6.01546e-08)
(0.00077114 -4.39272e-07 -2.81708e-09)
(0.000769513 -1.75127e-07 4.8988e-08)
(0.000768626 1.21861e-07 8.85872e-09)
(0.00076748 7.84219e-08 4.08174e-08)
(0.000765712 5.85728e-08 9.00325e-08)
(0.000764159 3.06415e-08 3.21056e-08)
(0.00076267 1.22023e-07 1.78455e-08)
(0.000761208 3.26801e-07 -5.11868e-08)
(0.000760108 3.56108e-07 6.17882e-08)
(0.000758913 3.60947e-08 3.05743e-08)
(0.000757314 7.44655e-09 7.5899e-08)
(0.000756088 -2.54279e-07 9.17557e-08)
(0.000754648 -2.84629e-07 2.43262e-07)
(0.000753005 -1.70436e-07 2.92878e-08)
(0.000751699 -1.65849e-07 5.42842e-08)
(0.000750405 -2.31179e-07 4.55387e-08)
(0.000749065 -4.8441e-07 4.46787e-08)
(0.000747491 -3.48922e-07 -2.03643e-08)
(0.000745784 -2.31919e-07 7.86433e-08)
(0.00930037 0.00136123 -0.00406726)
(0.00734341 0.0012602 -0.000265203)
(0.00452657 0.00490461 0.000632372)
(-0.00225385 0.00397701 -0.000562979)
(-0.00115112 -0.0022066 -0.000333442)
(0.000882599 -0.000930088 7.97738e-05)
(0.000291255 -5.14799e-05 1.83707e-06)
(0.000838449 -9.02189e-05 -2.63666e-06)
(0.000806968 -2.58371e-05 -1.19968e-07)
(0.000799495 -2.6121e-05 -1.99344e-08)
(0.000798673 -1.56315e-05 9.48998e-09)
(0.000797878 -1.02366e-05 4.15305e-08)
(0.000797642 -6.47368e-06 4.64886e-08)
(0.000796995 -4.30073e-06 4.73763e-08)
(0.000796064 -2.74812e-06 5.10687e-08)
(0.000795089 -1.84802e-06 6.4852e-08)
(0.000793914 -1.12181e-06 5.03797e-08)
(0.00079247 -7.34515e-07 1.37323e-08)
(0.000791084 -4.44011e-07 8.64794e-08)
(0.000789528 -1.83075e-07 2.62848e-08)
(0.000787967 1.98429e-07 9.05871e-08)
(0.000786307 8.9972e-08 6.20882e-08)
(0.000784948 5.41867e-07 8.47065e-08)
(0.000783755 2.75308e-07 1.83853e-08)
(0.000782082 8.74734e-08 -2.56661e-08)
(0.000780452 -3.69794e-08 1.44077e-07)
(0.000778884 -9.90436e-08 9.53568e-08)
(0.000777402 -2.10918e-07 4.60909e-08)
(0.000775669 -7.95624e-07 5.37498e-08)
(0.000773809 -4.10821e-07 4.08273e-08)
(0.000772635 -3.84651e-07 1.3752e-07)
(0.000771631 -2.08369e-07 4.72796e-08)
(0.00077045 3.68027e-07 1.71985e-07)
(0.00076883 7.28513e-07 3.43247e-07)
(0.00076707 3.12232e-07 4.69611e-08)
(0.000765694 2.2346e-07 3.55327e-08)
(0.000764321 2.1742e-07 4.37795e-08)
(0.000762936 2.29289e-07 5.27318e-08)
(0.000761434 3.72708e-07 3.53094e-08)
(0.0007598 5.00843e-07 7.06325e-09)
(0.000758422 8.61224e-08 5.65328e-08)
(0.000757014 -2.9043e-07 4.92478e-08)
(0.000755612 -5.89107e-07 1.96846e-08)
(0.000754574 -3.80138e-07 1.10149e-07)
(0.000753236 -1.71649e-07 2.69096e-08)
(0.000751697 -1.23626e-07 5.96089e-08)
(0.000750293 -1.16213e-07 3.961e-08)
(0.000749 -1.87447e-07 5.52613e-08)
(0.00074748 -3.69304e-07 7.92249e-08)
(0.00074649 -2.56345e-07 2.46899e-08)
(-0.00849007 -0.0168053 -0.000121629)
(0.00329743 -0.00755264 -0.000249117)
(0.0358416 0.00761346 0.00224602)
(-0.0089862 -0.0118441 -0.00120246)
(-0.00243433 -0.00237357 5.9292e-05)
(-9.53335e-05 9.85627e-05 -3.46303e-05)
(0.000485322 -0.000223161 4.47094e-05)
(0.000436647 -2.93504e-05 -1.06681e-06)
(0.000859201 -2.48738e-05 -1.62888e-06)
(0.000793465 -2.6356e-05 -4.29804e-07)
(0.000806662 -1.64096e-05 1.95344e-07)
(0.00080265 -1.1087e-05 4.32668e-08)
(0.000801446 -7.1948e-06 6.02293e-08)
(0.000799604 -4.65884e-06 5.42476e-08)
(0.000797852 -2.98309e-06 5.39453e-08)
(0.000796223 -1.85912e-06 5.70298e-08)
(0.000794624 -1.24586e-06 5.75026e-08)
(0.000793141 -7.71919e-07 1.31134e-07)
(0.000791521 -6.53127e-07 -2.37022e-08)
(0.000790037 -3.84746e-07 4.43864e-08)
(0.000788257 -3.31313e-07 2.85664e-08)
(0.000786818 -1.00782e-07 4.42961e-08)
(0.000785088 5.34343e-08 1.17522e-07)
(0.000782859 -1.41578e-10 -2.344e-07)
(0.00078159 2.499e-08 5.02436e-08)
(0.000780239 5.58039e-08 2.82296e-08)
(0.000778768 -4.3148e-08 6.15344e-08)
(0.000776973 -1.69074e-08 6.35872e-08)
(0.000775619 -1.07749e-08 -6.27179e-08)
(0.00077446 4.99729e-07 2.79949e-08)
(0.000773055 8.11833e-07 8.9822e-08)
(0.000772081 7.52819e-07 9.73966e-08)
(0.000770682 4.12289e-07 2.94499e-07)
(0.000768552 1.76204e-07 1.17449e-07)
(0.000766845 1.20729e-07 6.13885e-08)
(0.000765591 1.54735e-07 5.21989e-08)
(0.000764164 1.07262e-07 1.31018e-07)
(0.000762861 6.56623e-08 4.71826e-08)
(0.000761543 4.98591e-08 4.62048e-08)
(0.000759746 -6.91266e-08 5.32991e-08)
(0.000757923 1.30302e-08 6.47754e-08)
(0.000756472 2.33586e-08 5.59273e-08)
(0.00075598 5.16593e-07 1.18463e-07)
(0.000755174 2.25512e-07 8.0849e-08)
(0.00075333 4.76141e-08 9.34283e-08)
(0.00075177 5.66687e-08 4.35295e-08)
(0.000750327 1.56966e-07 1.07084e-07)
(0.00074875 1.18251e-07 7.52793e-08)
(0.000747411 7.23013e-08 5.65039e-08)
(0.000746563 7.25699e-08 6.99167e-08)
(0.00436684 0.00604983 -0.000280954)
(-0.0071141 -0.000660155 -0.00431819)
(0.015979 -0.0394781 8.47557e-05)
(0.0357533 0.00134792 -0.000114411)
(0.0100059 -0.00308562 0.000118682)
(-0.00162771 -0.000195026 -0.000123978)
(0.00142248 -0.000159326 9.80849e-05)
(0.000456866 -5.22293e-05 -1.10704e-06)
(0.000891105 -3.76123e-05 -1.41584e-06)
(0.0008103 -2.40486e-05 -4.71902e-07)
(0.000817921 -1.47353e-05 1.65197e-07)
(0.0008095 -9.26049e-06 -5.66751e-08)
(0.000805746 -5.84314e-06 5.49984e-08)
(0.000802304 -3.62706e-06 5.0705e-08)
(0.000799592 -2.24806e-06 5.13528e-08)
(0.000797279 -1.37776e-06 5.176e-08)
(0.000795285 -8.93065e-07 4.93551e-08)
(0.00079322 -5.99526e-07 5.99081e-08)
(0.000791574 -5.68444e-07 3.98242e-08)
(0.000789935 -4.15699e-07 2.94954e-08)
(0.000788324 -5.4062e-07 7.30824e-08)
(0.000786789 -4.03688e-07 5.11096e-08)
(0.000785074 -6.78541e-07 2.84959e-08)
(0.00078372 -2.19564e-07 5.7009e-08)
(0.000782151 2.72194e-08 2.57682e-08)
(0.000780366 1.57626e-07 5.62735e-08)
(0.000778793 2.78133e-07 5.99559e-08)
(0.000777442 3.65623e-07 8.12534e-08)
(0.000776312 8.68533e-07 8.1359e-08)
(0.000774834 7.22888e-07 2.60012e-08)
(0.000772945 8.13918e-07 1.49582e-08)
(0.000771126 7.66289e-07 -1.47911e-08)
(0.000769725 2.26365e-07 4.77163e-08)
(0.000768464 -5.15538e-08 4.88625e-08)
(0.000767043 1.21658e-07 5.36783e-08)
(0.000765676 7.53619e-08 4.30658e-08)
(0.000764209 7.94119e-08 2.38414e-07)
(0.000762864 2.15669e-08 4.38984e-08)
(0.000761265 -2.85826e-07 9.96415e-09)
(0.000759754 -2.48605e-07 2.00668e-08)
(0.000758537 6.68343e-08 5.40315e-08)
(0.000757641 3.0696e-07 9.90357e-08)
(0.000755861 5.92246e-07 4.17685e-08)
(0.000753983 2.96905e-07 1.50534e-08)
(0.000753022 2.32861e-08 5.55801e-08)
(0.000751831 5.44004e-08 2.18099e-07)
(0.000750367 1.62758e-07 4.5083e-08)
(0.000748893 1.35264e-07 2.44117e-08)
(0.000747419 3.14021e-07 4.10411e-08)
(0.000746309 2.37028e-07 4.05394e-08)
(-0.00094587 -0.0111236 -0.000707013)
(0.00385196 -0.000751253 -0.00168544)
(0.00072165 -0.0166174 0.000182633)
(-0.0118352 0.0124267 0.00023759)
(0.00595752 0.00446535 0.000913274)
(-0.00134643 0.00083814 -7.30125e-05)
(0.00111367 -0.00025592 3.93572e-05)
(0.000475301 -3.55729e-05 -7.49052e-07)
(0.000914515 -2.17227e-05 -1.2067e-06)
(0.000822349 -1.15042e-05 -5.44486e-07)
(0.00082529 -6.39809e-06 1.85356e-07)
(0.000813854 -3.73176e-06 -2.02299e-09)
(0.000808543 -2.06221e-06 1.26861e-07)
(0.000804132 -1.2433e-06 4.96852e-08)
(0.000800684 -7.21798e-07 4.53287e-08)
(0.000797929 -4.02966e-07 3.06561e-08)
(0.000795604 -2.07554e-07 5.08689e-08)
(0.000793552 -1.30557e-07 5.07721e-08)
(0.000791754 -5.26408e-09 4.90432e-08)
(0.000790076 -1.02149e-07 9.30967e-08)
(0.000788276 2.95225e-08 6.66329e-08)
(0.00078665 6.88002e-08 5.54962e-08)
(0.000785322 6.96514e-08 5.76476e-08)
(0.000783744 1.49841e-07 9.49827e-08)
(0.000782062 1.423e-07 7.9584e-08)
(0.000780552 -8.65202e-09 5.43716e-08)
(0.000779025 1.37305e-07 6.81181e-08)
(0.000777705 1.80445e-07 3.01832e-08)
(0.000776059 1.74844e-07 3.79979e-09)
(0.000774384 1.01918e-07 2.09301e-08)
(0.000773101 1.96227e-07 -3.55056e-09)
(0.000771341 -2.17356e-07 4.24543e-08)
(0.000769656 1.02936e-07 3.96876e-08)
(0.00076842 2.64107e-08 5.15076e-08)
(0.000767003 9.66576e-08 5.65318e-08)
(0.000765538 -4.81196e-08 4.8399e-08)
(0.000764097 -1.27545e-07 5.2432e-08)
(0.000762405 -1.05136e-07 5.73894e-08)
(0.000761208 -1.01177e-07 1.02421e-07)
(0.000760188 6.54854e-08 8.39656e-08)
(0.000758617 1.93242e-07 5.50626e-08)
(0.000757126 4.29958e-07 1.67657e-07)
(0.000755963 1.26738e-07 6.15021e-08)
(0.000754459 1.32343e-07 3.62663e-08)
(0.000753024 9.76939e-08 9.33567e-08)
(0.000751943 -5.51716e-08 4.75812e-08)
(0.000750427 -2.64139e-07 1.84535e-09)
(0.000748938 -2.91217e-07 -1.4444e-08)
(0.000747532 -2.639e-07 3.6695e-09)
(0.000745877 1.00529e-07 9.79e-08)
(0.00351937 -0.0052924 6.10928e-05)
(0.00222908 -0.00465066 3.83767e-05)
(0.00998513 -0.00469356 -0.00151358)
(0.0437484 0.000777081 0.00122924)
(0.00754878 -0.0101018 0.000936905)
(-0.007685 -0.00744695 0.00053621)
(0.00150171 -0.000646428 -2.50838e-05)
(0.000514841 3.23874e-08 -1.90628e-06)
(0.00092138 1.20257e-05 -1.59251e-06)
(0.000829348 9.8158e-06 -5.16242e-07)
(0.000827695 6.44808e-06 1.41699e-07)
(0.000814953 4.34434e-06 1.88273e-08)
(0.000808876 2.92259e-06 4.82586e-08)
(0.00080399 1.86613e-06 4.46915e-08)
(0.00080065 1.20644e-06 5.22357e-08)
(0.000797926 7.83246e-07 5.23916e-08)
(0.000795628 5.02635e-07 4.86182e-08)
(0.000793474 2.97997e-07 4.86524e-08)
(0.00079161 1.92578e-07 3.49279e-08)
(0.000789979 2.25535e-07 5.09722e-08)
(0.000788538 2.22879e-07 -3.41439e-08)
(0.000786839 2.22621e-07 5.18929e-08)
(0.000785175 1.71174e-07 5.59734e-08)
(0.00078381 5.94136e-09 5.87578e-08)
(0.000781953 -4.68267e-08 6.63267e-08)
(0.00078036 3.79215e-08 4.67144e-08)
(0.000779029 -4.18781e-08 4.01455e-08)
(0.000777487 -1.453e-07 2.38842e-08)
(0.000776212 -1.967e-07 9.71471e-08)
(0.000774858 -4.45189e-07 8.03374e-08)
(0.000772545 -7.1122e-07 -1.20361e-08)
(0.000771008 -4.90167e-07 -1.20277e-08)
(0.000770029 -3.45496e-07 1.85749e-08)
(0.000768455 -2.11183e-07 3.13179e-08)
(0.000766949 -2.37802e-07 5.63643e-08)
(0.000765396 -8.60976e-08 3.98102e-08)
(0.000764139 -2.49568e-08 -1.12673e-08)
(0.000762898 1.49888e-07 7.58284e-08)
(0.00076148 3.04322e-07 1.16694e-07)
(0.000760122 1.46257e-07 7.02024e-08)
(0.000758991 1.91463e-07 1.03385e-07)
(0.000757556 2.83768e-07 -3.26173e-08)
(0.000755488 2.59701e-07 1.32754e-08)
(0.000753947 6.12962e-08 5.40905e-08)
(0.000752788 9.52026e-08 3.83329e-08)
(0.000751381 -1.1777e-07 4.47227e-08)
(0.000750076 -5.08962e-07 -3.46614e-07)
(0.000748896 -5.06947e-07 -2.43609e-08)
(0.00074791 -4.26254e-07 1.58735e-07)
(0.000746513 -2.23483e-07 1.71989e-07)
(0.00237694 -0.00654256 0.000416942)
(0.00550671 -0.00939646 -0.000411418)
(0.00318464 -0.00569046 0.000239358)
(-0.013054 0.00321148 -0.000360915)
(0.00766166 0.0032781 0.000207482)
(0.00854137 0.00147941 -0.000120043)
(0.00209193 -0.000389544 6.87457e-05)
(0.000479296 4.05441e-05 -6.64774e-07)
(0.000891381 4.86136e-05 -1.72608e-06)
(0.000815309 3.08885e-05 -4.94752e-07)
(0.000818379 1.85249e-05 1.34253e-07)
(0.0008094 1.15393e-05 -2.80921e-08)
(0.000805414 7.07063e-06 4.84456e-08)
(0.000801967 4.43986e-06 4.7177e-08)
(0.000799319 2.79314e-06 4.57821e-08)
(0.000797042 1.76712e-06 4.94223e-08)
(0.000794994 1.13309e-06 5.04024e-08)
(0.000793162 7.28555e-07 6.68113e-08)
(0.000791661 5.35409e-07 4.95064e-08)
(0.000790111 4.3846e-07 4.7699e-08)
(0.000788269 2.95982e-07 2.65205e-08)
(0.000786583 1.32944e-07 4.63298e-08)
(0.00078505 2.5827e-07 4.17599e-08)
(0.00078347 2.30467e-08 5.90332e-08)
(0.000782102 -7.4909e-08 1.11798e-08)
(0.000780558 1.53796e-07 1.95639e-07)
(0.000778796 -6.00885e-08 4.9322e-08)
(0.000777513 -1.16529e-07 6.6161e-08)
(0.000775687 -4.99628e-07 2.85981e-08)
(0.000773744 -7.79344e-07 3.6485e-08)
(0.00077305 -7.54977e-07 1.39443e-07)
(0.000771803 -2.30582e-07 7.29981e-08)
(0.000770008 -2.2682e-07 3.85293e-08)
(0.000768557 -1.8235e-07 2.98076e-08)
(0.000767161 -1.43898e-07 1.56295e-07)
(0.000765805 1.41274e-08 6.51993e-08)
(0.000764392 1.10178e-07 4.98896e-08)
(0.000762816 7.31365e-08 7.10139e-08)
(0.000761202 1.56244e-07 4.98586e-08)
(0.000760046 3.06549e-07 2.82102e-09)
(0.000758787 3.92257e-08 4.221e-08)
(0.000757209 -2.87417e-07 2.44845e-09)
(0.000755684 -3.61629e-07 3.94016e-08)
(0.000754253 -1.37146e-07 4.93958e-08)
(0.000752801 -8.67307e-08 4.65493e-09)
(0.000751191 2.20949e-08 4.85432e-08)
(0.000749944 1.61175e-08 9.42176e-09)
(0.000749046 -2.27678e-07 6.4077e-08)
(0.000747895 -1.01184e-07 1.74013e-07)
(0.000746687 -2.11514e-07 7.85204e-08)
(0.0129323 0.00157834 -0.000732444)
(0.00402904 0.00789368 0.000983555)
(0.00290347 0.00120654 0.00043516)
(-0.00906405 -0.0342094 -0.0121157)
(-0.00316354 0.00296851 -8.83752e-05)
(0.0070646 -0.00249964 0.000329931)
(0.00170825 -0.000236856 3.76501e-05)
(0.00047375 6.26582e-05 5.23828e-07)
(0.000847541 4.55931e-05 -1.29845e-06)
(0.000791302 3.55903e-05 -4.04606e-07)
(0.000803317 2.09521e-05 1.57992e-07)
(0.000800518 1.3323e-05 3.53111e-08)
(0.00079993 8.25971e-06 5.56912e-08)
(0.000798599 5.13409e-06 4.93199e-08)
(0.000797281 3.20571e-06 5.34358e-08)
(0.000795833 2.03298e-06 5.08651e-08)
(0.000794319 1.24713e-06 1.0034e-07)
(0.000792719 8.80142e-07 5.98471e-08)
(0.000791242 7.32893e-07 9.30121e-08)
(0.000789676 2.29784e-07 8.88898e-08)
(0.000788153 9.07824e-08 5.17728e-08)
(0.00078679 8.55147e-08 4.67902e-08)
(0.000785036 -4.2607e-08 3.48329e-08)
(0.000783393 -1.68275e-08 5.00498e-08)
(0.000782116 -1.42347e-07 7.47709e-08)
(0.000780378 -3.08108e-07 5.04152e-08)
(0.000778691 -4.38843e-08 3.26462e-08)
(0.000776941 -1.10033e-07 7.75787e-08)
(0.000775389 -2.75767e-07 3.58195e-08)
(0.000774546 2.26709e-07 7.23791e-08)
(0.000773236 4.091e-07 8.82654e-08)
(0.000771672 9.31863e-08 3.24267e-08)
(0.000770092 1.99768e-07 6.09329e-08)
(0.00076856 3.56511e-08 5.17299e-08)
(0.000767196 2.66742e-08 5.6126e-08)
(0.000765714 -1.03738e-07 6.3824e-08)
(0.000764213 -1.26191e-07 5.63145e-08)
(0.000762956 -2.03147e-07 3.87806e-08)
(0.00076177 5.81329e-08 3.9805e-08)
(0.000759975 1.27152e-07 8.29121e-08)
(0.000758249 -6.72565e-08 1.59384e-08)
(0.000757057 -9.47277e-08 4.95048e-08)
(0.000755678 -1.53665e-07 5.73635e-08)
(0.000754293 -1.40755e-07 5.01787e-08)
(0.000752989 -7.13828e-08 5.48567e-08)
(0.000751511 8.23143e-08 4.51024e-08)
(0.000749764 4.43818e-07 6.03211e-08)
(0.000748751 6.401e-07 6.8379e-08)
(0.000747938 2.32786e-07 3.69222e-08)
(0.000746904 4.07211e-08 -3.53927e-08)
(-0.0113617 0.00778222 0.000537193)
(-0.00799875 -0.00712297 -5.03476e-05)
(-0.02262 -0.0359377 0.00483474)
(-0.0329882 0.000282048 0.000450304)
(-0.0122326 -0.00940474 -0.000991959)
(-0.00185471 -0.00413713 -5.95807e-05)
(0.000439932 0.000217826 4.52792e-05)
(0.000786192 0.000120563 -2.5231e-06)
(0.000777442 4.10371e-05 -2.10111e-07)
(0.00078424 3.0225e-05 1.89055e-08)
(0.000790335 1.66151e-05 3.67368e-08)
(0.000793408 1.03354e-05 4.00435e-08)
(0.000795099 6.23934e-06 4.66771e-08)
(0.000795601 3.69585e-06 5.08354e-08)
(0.000795412 2.29154e-06 5.24409e-08)
(0.000794575 1.43799e-06 1.09647e-07)
(0.00079354 9.48714e-07 4.16126e-08)
(0.00079251 6.31515e-07 8.11752e-08)
(0.000790843 4.74606e-07 -3.87474e-09)
(0.000789306 2.5861e-07 4.88291e-08)
(0.000788088 1.73449e-07 4.91775e-08)
(0.000786417 -8.0285e-08 1.08635e-08)
(0.000784922 -2.01147e-07 4.98997e-08)
(0.000783348 -1.72903e-07 5.22389e-08)
(0.00078174 -1.92569e-07 1.31751e-08)
(0.000780683 -4.77886e-07 6.0322e-08)
(0.000779046 -3.38842e-07 -9.64323e-09)
(0.000777225 -1.76199e-07 3.89066e-08)
(0.000776109 6.25371e-08 1.02632e-07)
(0.0007746 3.43066e-07 6.40376e-08)
(0.000772881 3.13238e-07 1.30863e-07)
(0.000771539 1.34391e-07 6.22714e-08)
(0.000769935 -1.13279e-07 6.76567e-08)
(0.00076834 -1.42125e-07 -2.3716e-08)
(0.000766988 -1.5191e-07 1.47326e-07)
(0.000765615 -1.79316e-07 4.0796e-08)
(0.000764269 -1.20536e-07 4.4209e-08)
(0.000763048 -1.55685e-07 5.79773e-08)
(0.000761615 -4.31727e-07 8.59509e-08)
(0.000759889 -6.59016e-07 3.83305e-08)
(0.00075851 -2.81593e-07 4.72664e-08)
(0.000757103 -1.73346e-07 -1.77699e-08)
(0.000755628 -2.74229e-08 6.41353e-08)
(0.000754357 6.39209e-08 4.36574e-08)
(0.000753081 1.11859e-07 5.41434e-08)
(0.000751833 1.42257e-07 1.3447e-08)
(0.000750639 3.22234e-07 3.91641e-08)
(0.000748779 8.85054e-07 2.4926e-08)
(0.000747144 6.41704e-07 -9.89652e-08)
(0.000746343 2.70335e-07 8.60927e-08)
(0.0477545 0.00800771 -0.00195578)
(-0.0205959 0.00441385 -6.82166e-05)
(0.00812943 0.00776197 0.00154673)
(-0.00624962 0.000232469 0.000332042)
(0.0211745 0.013103 -0.00386452)
(-0.00449757 0.00673144 -0.000365349)
(0.000279401 0.000172665 3.13584e-08)
(0.000666598 1.52451e-05 -1.12361e-06)
(0.000723108 6.01586e-06 3.03272e-07)
(0.000760489 4.76275e-06 2.63175e-07)
(0.000778296 2.96678e-06 1.48387e-07)
(0.000787456 1.82977e-06 3.51717e-07)
(0.000791573 1.13453e-06 7.87028e-08)
(0.000793629 9.27567e-07 1.29715e-08)
(0.000794437 5.84038e-07 5.66009e-08)
(0.000794141 4.09558e-07 7.40312e-08)
(0.000793302 2.6511e-07 4.8037e-08)
(0.000792121 1.55903e-07 2.39166e-08)
(0.000790772 8.69836e-08 6.9115e-08)
(0.000789297 1.43455e-07 3.83095e-08)
(0.000787729 2.853e-08 1.55987e-08)
(0.000786322 5.58072e-09 7.44366e-08)
(0.000784922 8.10704e-09 5.63014e-08)
(0.000783406 -4.48572e-08 4.66926e-08)
(0.000781737 7.44815e-08 -3.58693e-08)
(0.000780199 1.4954e-07 6.93272e-08)
(0.000779072 -9.33266e-08 6.64197e-08)
(0.000777444 1.00627e-07 4.81252e-08)
(0.000776037 3.99557e-07 -1.59944e-09)
(0.000774857 -9.35868e-08 9.5661e-08)
(0.000772973 -1.27147e-07 8.05397e-08)
(0.000771138 -1.60939e-07 2.77744e-08)
(0.000769747 -4.48663e-07 -6.17009e-08)
(0.000768514 -5.01427e-07 1.45239e-07)
(0.000767151 -2.22763e-07 8.7673e-08)
(0.000765754 -1.08986e-07 2.88712e-08)
(0.000764243 -1.45685e-07 4.33489e-08)
(0.000762568 -1.97597e-07 4.33327e-08)
(0.000761144 -4.49337e-07 2.69418e-09)
(0.000760166 -5.25647e-07 6.32408e-08)
(0.000758859 -2.77163e-07 6.09152e-08)
(0.000757376 -2.0557e-07 2.37087e-08)
(0.000755975 -1.09175e-07 3.97148e-08)
(0.000754466 1.62691e-07 5.54132e-08)
(0.000753086 1.24543e-07 -3.12902e-08)
(0.000751771 1.04682e-07 4.61035e-08)
(0.000750688 1.85997e-08 8.8435e-08)
(0.000749144 -8.09703e-08 2.28848e-08)
(0.000747156 2.48751e-07 -1.03626e-08)
(0.000745766 2.02079e-07 7.05586e-08)
(-0.0234417 0.00798891 -0.003043)
(-0.0585152 -0.111666 -0.00968862)
(0.00958927 -0.0196386 0.0131422)
(0.00959659 -0.00426863 0.00108512)
(0.00266505 -0.0164025 0.00099425)
(0.0157157 -0.0207012 -0.00181967)
(0.00132301 -0.0004621 -5.09353e-06)
(0.00130485 -0.000150811 3.13239e-07)
(0.00127482 -7.26888e-05 3.18954e-07)
(0.00130092 -3.90659e-05 4.74109e-07)
(0.00131109 -2.07631e-05 3.76148e-07)
(0.00131842 -1.19364e-05 3.37389e-07)
(0.0013232 -6.86158e-06 2.96516e-07)
(0.00132476 -3.76008e-06 9.12616e-08)
(0.00132444 -2.31487e-06 3.34475e-07)
(0.00132347 -1.55998e-06 2.7964e-07)
(0.0013219 -1.03881e-06 3.31996e-07)
(0.0013203 -7.07956e-07 5.64102e-08)
(0.00131784 -5.39679e-07 3.78842e-07)
(0.00131524 -3.58928e-07 3.03107e-07)
(0.0013131 -2.6214e-07 3.47789e-07)
(0.00131054 2.30464e-08 1.10443e-07)
(0.00130799 -2.05517e-07 2.74772e-07)
(0.00130567 3.58404e-08 2.83284e-07)
(0.00130326 2.45698e-07 2.68e-07)
(0.00130075 5.4156e-07 3.48663e-07)
(0.00129832 5.47159e-07 2.9487e-07)
(0.00129645 2.13259e-07 3.27818e-07)
(0.0012932 4.24227e-07 3.4877e-07)
(0.00129002 -3.49935e-07 3.51298e-07)
(0.00128808 -9.90981e-07 2.35583e-07)
(0.00128531 -7.68027e-07 1.26502e-07)
(0.00128271 -2.97424e-07 2.922e-07)
(0.00128132 2.19447e-07 2.18787e-07)
(0.00127941 1.95318e-07 3.04655e-07)
(0.00127645 1.61792e-07 3.68999e-07)
(0.0012738 5.09941e-08 3.01307e-07)
(0.00127126 2.53404e-07 2.59523e-07)
(0.00126898 6.49373e-07 1.05129e-07)
(0.00126724 6.07912e-07 3.31215e-07)
(0.00126514 8.94421e-08 2.7934e-07)
(0.0012625 1.50208e-08 3.4626e-07)
(0.00126062 -4.94724e-07 3.6959e-07)
(0.00125814 -4.9169e-07 6.97707e-07)
(0.00125536 -3.20339e-07 2.74318e-07)
(0.00125325 -3.21563e-07 3.23545e-07)
(0.00125103 -3.87083e-07 2.83511e-07)
(0.00124885 -7.50088e-07 3.02783e-07)
(0.00124621 -5.82011e-07 2.09901e-07)
(0.00124334 -4.07957e-07 3.60105e-07)
(-0.0190258 0.0454508 -0.00984181)
(0.0144247 -0.0110325 0.00803088)
(-0.000557927 0.00170851 0.00209201)
(0.00024386 0.00413681 -0.00256148)
(0.00118196 0.00795532 -0.0005601)
(0.0010682 0.0041761 0.00112643)
(0.00152581 -0.000269921 6.27771e-06)
(0.00139924 -0.000150228 3.57284e-07)
(0.00134563 -4.33104e-05 4.01479e-07)
(0.00133289 -4.36078e-05 3.49057e-07)
(0.00133128 -2.61461e-05 3.03184e-07)
(0.00132983 -1.71044e-05 3.32308e-07)
(0.00132937 -1.0799e-05 3.32969e-07)
(0.00132824 -7.19108e-06 3.31139e-07)
(0.00132668 -4.59185e-06 3.32153e-07)
(0.00132501 -3.07555e-06 2.7916e-07)
(0.00132304 -1.8819e-06 3.32158e-07)
(0.00132066 -1.25883e-06 2.16201e-07)
(0.00131829 -7.42828e-07 4.01613e-07)
(0.00131571 -2.91989e-07 3.04909e-07)
(0.00131317 3.1151e-07 3.93595e-07)
(0.00131045 1.45867e-07 3.66632e-07)
(0.00130813 9.13075e-07 2.83213e-07)
(0.00130617 4.99051e-07 2.60209e-07)
(0.00130349 2.17759e-07 1.11711e-07)
(0.00130072 -3.59724e-10 4.87134e-07)
(0.00129806 -9.61175e-08 4.50993e-07)
(0.00129564 -3.3481e-07 3.24698e-07)
(0.00129279 -1.33184e-06 3.75843e-07)
(0.00128977 -7.02457e-07 6.79655e-08)
(0.00128789 -6.28728e-07 3.58341e-07)
(0.00128621 -3.42775e-07 2.91181e-07)
(0.00128425 7.15846e-07 5.88717e-07)
(0.00128163 1.22799e-06 1.00413e-06)
(0.00127872 4.98167e-07 3.26399e-07)
(0.00127638 3.38776e-07 3.07456e-07)
(0.00127412 3.6888e-07 3.09302e-07)
(0.0012719 4.35112e-07 3.65442e-07)
(0.00126932 7.39127e-07 3.24048e-07)
(0.00126657 8.51121e-07 3.37852e-07)
(0.0012643 1.52478e-07 3.3001e-07)
(0.00126193 -4.35547e-07 2.80214e-07)
(0.00125966 -9.03914e-07 2.35676e-07)
(0.00125804 -7.41741e-07 5.54147e-07)
(0.00125582 -3.20358e-07 3.10382e-07)
(0.00125325 -2.61324e-07 3.28888e-07)
(0.00125094 -1.51174e-07 2.82608e-07)
(0.00124875 -2.80446e-07 3.18561e-07)
(0.00124621 -5.82683e-07 3.49033e-07)
(0.00124454 -4.34337e-07 2.11322e-07)
(-0.00450621 0.000257555 0.00196881)
(0.021186 -0.000827425 -0.00177214)
(0.0712287 0.0811916 -0.0454999)
(-0.0127121 -0.0194183 -0.00831252)
(-0.000403062 -0.000126091 0.000200337)
(0.0007652 0.00431669 -0.000426061)
(0.00125212 0.000103459 6.21622e-05)
(0.00130829 -8.92295e-05 3.81384e-07)
(0.00143267 -4.15194e-05 -3.014e-07)
(0.0013229 -4.37739e-05 3.29813e-07)
(0.00134448 -2.72799e-05 3.37191e-07)
(0.00133776 -1.84245e-05 3.33092e-07)
(0.00133569 -1.1961e-05 3.3375e-07)
(0.00133258 -7.74849e-06 3.33983e-07)
(0.00132963 -4.96539e-06 3.33422e-07)
(0.00132689 -3.12213e-06 3.34816e-07)
(0.00132419 -2.09088e-06 3.3293e-07)
(0.00132173 -1.3246e-06 4.22252e-07)
(0.00131905 -1.15304e-06 2.03067e-07)
(0.00131656 -6.75538e-07 3.19054e-07)
(0.00131365 -5.6074e-07 2.70462e-07)
(0.00131128 -1.85311e-07 3.2622e-07)
(0.00130843 7.79417e-08 4.77311e-07)
(0.00130479 5.61527e-08 -2.99911e-07)
(0.00130263 2.67487e-08 3.3335e-07)
(0.00130036 9.65709e-08 2.96011e-07)
(0.0012979 -4.84483e-08 3.46081e-07)
(0.00129491 2.03996e-08 3.22276e-07)
(0.00129274 1.86051e-08 1.1516e-07)
(0.0012909 8.83299e-07 2.53625e-07)
(0.00128854 1.34992e-06 3.26433e-07)
(0.00128699 1.23601e-06 3.97536e-07)
(0.00128467 6.75364e-07 8.06914e-07)
(0.00128105 2.89917e-07 4.22435e-07)
(0.0012783 1.50888e-07 1.42519e-07)
(0.00127629 2.04061e-07 3.29363e-07)
(0.00127391 1.82873e-07 3.67135e-07)
(0.00127171 9.64115e-08 3.3353e-07)
(0.0012695 3.10502e-08 3.29047e-07)
(0.0012665 -1.00333e-07 3.47734e-07)
(0.00126353 2.68844e-08 3.5009e-07)
(0.00126118 9.87617e-08 3.36571e-07)
(0.00126024 9.18306e-07 4.6012e-07)
(0.00125888 5.13004e-07 2.74454e-07)
(0.00125597 2.22983e-07 3.7898e-07)
(0.00125346 2.11556e-07 2.93427e-07)
(0.00125101 3.28126e-07 3.77154e-07)
(0.00124831 2.68332e-07 3.37843e-07)
(0.00124603 1.42368e-07 3.30435e-07)
(0.00124461 1.32258e-07 2.9844e-07)
(0.00697721 0.0117857 -0.00293101)
(0.00849617 -0.0118397 -0.00463689)
(-0.0380892 -0.0150334 -0.00914539)
(0.0456778 0.0331852 0.0241681)
(0.0048184 0.00362511 -0.0021144)
(-0.00511115 -0.00248607 -0.00202035)
(0.00045547 -0.00255319 7.94531e-05)
(0.00136878 -0.00015726 1.08971e-06)
(0.00148597 -6.22822e-05 3.07236e-07)
(0.00135106 -3.97942e-05 2.83612e-07)
(0.00136322 -2.43635e-05 3.40411e-07)
(0.00134915 -1.52891e-05 1.11555e-07)
(0.00134283 -9.66079e-06 3.34158e-07)
(0.00133706 -5.9838e-06 3.35075e-07)
(0.00133251 -3.67686e-06 3.339e-07)
(0.00132864 -2.24048e-06 3.32711e-07)
(0.00132531 -1.45511e-06 3.32582e-07)
(0.00132185 -9.50332e-07 3.24294e-07)
(0.00131911 -9.20047e-07 3.23809e-07)
(0.00131646 -6.78587e-07 3.01649e-07)
(0.00131379 -8.68351e-07 3.32333e-07)
(0.00131125 -6.55972e-07 3.28391e-07)
(0.00130843 -1.08764e-06 3.04005e-07)
(0.00130611 -3.65904e-07 3.7195e-07)
(0.00130354 3.17218e-09 2.70404e-07)
(0.00130062 2.3065e-07 4.35038e-07)
(0.00129797 4.62326e-07 3.85544e-07)
(0.00129572 6.78937e-07 3.97714e-07)
(0.00129387 1.53563e-06 3.45441e-07)
(0.00129143 1.26786e-06 4.78016e-07)
(0.00128832 1.36563e-06 3.08427e-07)
(0.00128536 1.32795e-06 2.97228e-07)
(0.00128306 3.75077e-07 3.19089e-07)
(0.00128098 -7.42237e-08 3.17697e-07)
(0.00127862 2.10405e-07 2.74257e-07)
(0.00127642 1.0982e-07 3.04835e-07)
(0.00127398 8.41133e-08 5.39467e-07)
(0.00127171 -1.40727e-08 3.15905e-07)
(0.00126907 -5.12704e-07 2.13321e-07)
(0.00126657 -4.63169e-07 1.4514e-07)
(0.00126455 9.0936e-08 2.84508e-07)
(0.00126303 5.18197e-07 5.5358e-07)
(0.00126017 9.79027e-07 3.66495e-07)
(0.00125716 5.90977e-07 2.18085e-07)
(0.00125544 1.10799e-07 3.16552e-07)
(0.00125337 1.16956e-07 5.24147e-07)
(0.00125101 2.24689e-07 3.01651e-07)
(0.00124851 2.27028e-07 1.57057e-07)
(0.00124603 4.80879e-07 3.105e-07)
(0.00124419 4.11267e-07 2.14824e-07)
(-0.00749149 -0.000854108 -0.00386007)
(0.00534547 -0.0218285 -0.00490089)
(0.0299242 -0.0202594 -0.00452674)
(-0.00843488 0.000229714 0.0010134)
(-0.00208888 -0.00564757 0.00240833)
(-0.0106451 0.00492987 0.00103078)
(0.000241384 -0.00209383 -5.87502e-05)
(0.00141665 -0.000105628 3.38522e-06)
(0.00152436 -3.54215e-05 5.99168e-07)
(0.00137077 -1.87309e-05 4.15112e-07)
(0.00137534 -1.03531e-05 3.62214e-07)
(0.00135628 -6.04826e-06 3.56899e-07)
(0.00134741 -3.29625e-06 3.61853e-07)
(0.00134012 -2.00346e-06 3.35743e-07)
(0.00133434 -1.20091e-06 3.39075e-07)
(0.00132968 -6.86095e-07 3.32123e-07)
(0.00132582 -3.541e-07 3.32394e-07)
(0.00132241 -2.43603e-07 3.28736e-07)
(0.0013194 -1.0227e-08 3.05371e-07)
(0.00131663 -1.4536e-07 3.64101e-07)
(0.00131368 -1.86019e-08 3.63763e-07)
(0.00131102 1.012e-07 5.72511e-07)
(0.00130879 1.09035e-07 3.2894e-07)
(0.00130616 2.01795e-07 3.70824e-07)
(0.00130338 2.12724e-07 2.6131e-07)
(0.00130093 -1.1248e-07 3.27028e-07)
(0.00129846 1.98205e-07 3.78106e-07)
(0.00129624 3.14585e-07 3.11383e-07)
(0.00129347 3.73371e-07 2.6707e-07)
(0.00129068 2.46728e-07 2.97352e-07)
(0.0012886 3.34218e-07 -4.02348e-08)
(0.00128574 -3.29159e-07 3.09413e-07)
(0.00128292 2.29387e-07 2.99781e-07)
(0.00128084 8.33825e-08 3.21405e-07)
(0.00127852 1.90418e-07 3.07858e-07)
(0.00127613 -7.49068e-08 3.20087e-07)
(0.00127376 -2.48955e-07 3.69994e-07)
(0.00127097 -2.09665e-07 3.07385e-07)
(0.00126894 -2.1048e-07 4.36743e-07)
(0.00126726 4.08759e-08 2.8881e-07)
(0.00126475 2.97552e-07 3.49148e-07)
(0.00126228 6.47883e-07 5.59181e-07)
(0.00126033 1.87947e-07 2.84335e-07)
(0.00125779 1.58037e-07 -2.7935e-09)
(0.00125537 2.42641e-08 3.84561e-07)
(0.0012536 -1.79034e-07 3.13976e-07)
(0.00125115 -5.56592e-07 2.07528e-07)
(0.00124863 -6.28486e-07 -4.36941e-08)
(0.00124624 -4.37927e-07 3.12163e-07)
(0.0012435 1.69924e-07 4.39961e-07)
(-0.00478281 -0.0051392 0.00200755)
(0.0113364 0.00249058 0.000366308)
(0.0231377 -0.0132717 -0.00159607)
(0.0213486 0.00575324 -0.000783158)
(-0.0120914 -0.00879533 -0.00744549)
(-0.0482437 0.0013858 -0.00127821)
(0.00356845 -0.00436548 5.29854e-06)
(0.00154038 -2.13114e-06 2.40912e-06)
(0.00153579 2.07923e-05 6.06708e-07)
(0.00138214 1.68058e-05 4.04511e-07)
(0.00137917 1.10706e-05 3.02455e-07)
(0.00135802 7.43061e-06 3.54583e-07)
(0.00134791 5.01692e-06 3.36927e-07)
(0.00133969 3.18226e-06 3.35123e-07)
(0.00133417 2.01e-06 3.37465e-07)
(0.0013297 1.28272e-06 3.3099e-07)
(0.00132587 8.21671e-07 3.32219e-07)
(0.00132228 4.82411e-07 3.52021e-07)
(0.00131924 3.18573e-07 3.10689e-07)
(0.00131645 4.07376e-07 3.3739e-07)
(0.0013141 4.60097e-07 2.15379e-07)
(0.00131141 4.12392e-07 3.37365e-07)
(0.00130855 3.08764e-07 2.99746e-07)