/*--------------------------------*- C++ -*----------------------------------*\
| =========                 |                                                 |
| \\      /  F ield         | OpenFOAM: The Open Source CFD Toolbox           |
|  \\    /   O peration     | Version:  5.0                                   |
|   \\  /    A nd           | Web:      www.OpenFOAM.org                      |
|    \\/     M anipulation  |                                                 |
\*---------------------------------------------------------------------------*/
FoamFile
{
    version     2.0;
    format      ascii;
    class       surfaceVectorField;
    location    "2.1";
    object      Uf;
}
// * * * * * * * * * * * * * * * * * * * * * * * * * * * * * * * * * * * * * //

dimensions      [0 1 -1 0 0 0 0];

internalField   nonuniform List<vector> 
27415
(
(0.000115368 -0.00874163 0.000130842)
(-0.00377148 -0.00609641 0.000853935)
(-0.00967201 0.00405678 0.000707377)
(-0.0100782 -0.0207562 0.000989782)
(-0.00960507 -0.0143094 7.72942e-05)
(-0.0135361 -0.00635798 0.00124334)
(-0.0385424 -0.0645234 -0.00843164)
(-0.0250885 -0.0252992 0.0131039)
(-0.020899 -0.0348192 0.00880366)
(-0.0146606 -0.0348545 -0.012584)
(0.00633649 -0.00492475 -0.000313435)
(0.00134126 -0.00406103 0.000412437)
(0.00833406 -0.0121552 -0.000312615)
(0.00740785 -0.00287278 0.00597017)
(-0.000152225 0.00895198 -0.0122515)
(0.00808158 -0.0105935 0.0183228)
(0.00898212 -0.0123521 -0.00579207)
(0.00362171 -0.00601845 -0.000492952)
(0.00629117 -0.00135493 0.000502081)
(0.00578042 -0.00544806 -0.000136817)
(0.00517536 -0.00838751 -0.000642192)
(0.00803972 -0.00823314 -0.00029968)
(0.00489495 -0.00428253 -0.000314183)
(0.00294495 -0.0143184 -0.000479691)
(0.000684216 -0.00233064 0.000413786)
(0.00824994 -0.00755554 -0.000124702)
(0.00393117 -0.00672346 -6.88462e-06)
(0.00610396 -0.000892675 2.67041e-05)
(0.00884578 -0.0122978 -0.000335647)
(0.000463124 -7.27121e-05 1.24533e-05)
(0.000477629 -5.17287e-05 -3.23422e-06)
(0.000482058 -7.24997e-06 -2.25225e-07)
(0.0008102 -0.000104773 1.15469e-06)
(0.000292583 8.58838e-06 1.83462e-05)
(0.000917696 -0.0001893 3.11866e-05)
(0.000493626 4.34877e-05 4.43353e-05)
(0.000773067 -1.18407e-05 -1.24912e-06)
(0.000788932 -1.74299e-05 -2.41498e-06)
(0.00105238 -3.4952e-05 -1.43427e-06)
(0.000564033 -4.02753e-05 -4.08807e-06)
(0.000534041 -5.70056e-06 -3.93725e-06)
(0.000958004 -9.80956e-05 -4.35682e-06)
(0.000899943 -1.88336e-05 -3.83796e-06)
(0.000778392 -1.29809e-06 -9.64483e-08)
(0.000775337 1.0627e-06 -1.48831e-07)
(0.00102756 -8.95776e-06 1.0526e-07)
(0.000786736 1.47276e-06 5.99361e-08)
(0.000784264 -2.52793e-06 9.15089e-08)
(0.00104456 -1.71248e-06 1.735e-07)
(0.000791925 2.01099e-06 6.57494e-08)
(0.000790464 -9.22599e-07 5.84378e-08)
(0.00105242 1.27393e-06 1.70041e-07)
(0.000795703 1.63261e-06 4.32982e-08)
(0.000794436 -6.32374e-07 4.73867e-08)
(0.00105834 1.40528e-06 1.72234e-07)
(0.000797835 1.33246e-06 5.94534e-08)
(0.000797136 -4.16117e-07 4.12465e-08)
(0.00106238 1.27085e-06 1.97819e-07)
(0.000798023 1.0192e-06 6.71724e-08)
(0.000798134 -3.86177e-07 6.60616e-08)
(0.00106377 1.22931e-06 1.67618e-07)
(0.000797721 6.56967e-07 1.10591e-07)
(0.000798092 -1.76851e-07 4.93441e-08)
(0.00106351 8.2852e-07 1.81553e-07)
(0.000797211 3.82943e-07 1.1252e-07)
(0.000797619 -5.16007e-07 1.05587e-07)
(0.00106296 5.05477e-07 1.83582e-07)
(0.000796143 2.0943e-07 7.24107e-08)
(0.000796746 -2.18433e-08 5.15552e-08)
(0.00106185 2.52399e-07 1.78828e-07)
(0.000794872 1.04959e-07 7.7859e-08)
(0.000795605 1.9221e-07 9.26578e-08)
(0.00106033 1.50332e-07 1.74402e-07)
(0.000793651 -1.42451e-08 9.12898e-08)
(0.000794259 -2.32742e-07 5.3063e-08)
(0.00105858 3.67979e-08 1.77466e-07)
(0.000792346 -1.21188e-07 8.96113e-08)
(0.000792907 4.0765e-08 7.35798e-08)
(0.00105685 -1.27737e-07 1.87074e-07)
(0.000790993 -1.24325e-07 6.65641e-08)
(0.000791587 4.21162e-08 4.47474e-08)
(0.00105518 -1.9438e-07 2.07295e-07)
(0.00078935 -1.43441e-07 6.04929e-08)
(0.000790062 -6.94584e-09 6.70157e-08)
(0.0010531 -7.93783e-08 1.73298e-07)
(0.000787688 -1.42507e-07 4.74481e-08)
(0.000788525 1.39819e-07 8.40395e-08)
(0.00105086 -2.14976e-07 1.89041e-07)
(0.000786248 -2.72127e-09 3.89896e-08)
(0.000787178 -2.30383e-07 1.31459e-07)
(0.00104887 -7.73319e-08 1.79971e-07)
(0.000784819 1.47318e-07 4.33472e-08)
(0.00078574 3.12868e-07 4.79999e-08)
(0.00104697 1.54565e-07 1.37083e-07)
(0.000783329 2.2956e-07 3.78981e-08)
(0.000784145 5.56295e-07 6.53492e-08)
(0.00104497 3.36683e-07 1.41372e-07)
(0.000782045 1.81999e-07 3.55658e-08)
(0.000782567 6.05085e-07 4.2918e-08)
(0.00104311 3.60278e-07 1.088e-07)
(0.000780427 1.76505e-07 6.303e-08)
(0.000781162 1.17349e-07 4.91063e-08)
(0.00104138 1.5804e-07 1.75806e-07)
(0.000778851 3.02673e-08 1.3218e-07)
(0.000779483 -1.23481e-07 7.1449e-08)
(0.00103908 3.07787e-07 1.18275e-07)
(0.000777382 -2.93173e-07 1.29899e-07)
(0.000777857 1.41793e-07 1.36454e-07)
(0.00103695 -2.65967e-07 1.45701e-07)
(0.000775404 -4.25665e-07 1.93433e-08)
(0.000776459 -5.81069e-07 -2.49309e-08)
(0.00103481 -6.06331e-07 3.54805e-07)
(0.000774037 -3.18407e-07 4.01366e-08)
(0.000774927 -3.6093e-07 -2.38228e-09)
(0.00103244 -6.04779e-07 3.01802e-07)
(0.000773016 -8.03971e-08 1.12428e-07)
(0.000773657 -8.58469e-07 1.13796e-07)
(0.00103084 -2.61419e-07 2.44796e-07)
(0.000771851 8.41436e-08 7.82364e-08)
(0.000772516 -1.78155e-06 1.10726e-07)
(0.0010296 6.61094e-08 2.70512e-07)
(0.000770161 6.29357e-08 4.95461e-08)
(0.00077096 1.62574e-07 4.39111e-08)
(0.00102772 2.01485e-07 1.75365e-07)
(0.000768492 -1.46038e-07 4.15153e-08)
(0.000769266 1.4497e-07 4.51957e-08)
(0.00102538 2.62615e-08 1.89541e-07)
(0.000766719 -1.0268e-07 3.28335e-08)
(0.000767795 1.15106e-07 3.54151e-08)
(0.00102308 -3.33797e-07 1.71923e-07)
(0.000765204 2.75602e-07 5.15895e-08)
(0.000766336 2.79811e-07 1.77495e-08)
(0.00102078 1.28192e-07 1.45345e-07)
(0.000764747 3.06556e-07 9.94699e-08)
(0.00076493 -1.9283e-06 4.49844e-08)
(0.00101955 6.45446e-07 1.95884e-07)
(0.000762918 6.36712e-08 8.09313e-08)
(0.000763481 3.17453e-07 1.61603e-07)
(0.00101816 2.34422e-07 1.74777e-07)
(0.000761373 -4.96808e-08 5.13383e-08)
(0.000761981 3.61183e-08 4.29178e-08)
(0.00101583 -2.47914e-10 1.76863e-07)
(0.000760075 -4.37132e-07 8.18843e-08)
(0.000760413 -6.90928e-08 2.16572e-08)
(0.00101381 -1.0406e-07 1.58342e-07)
(0.000759333 -7.09354e-07 4.45503e-08)
(0.000759317 1.64376e-06 8.30013e-08)
(0.00101272 -9.9719e-07 1.62161e-07)
(0.000756976 -4.69295e-07 1.78028e-08)
(0.000758239 2.52589e-06 3.82078e-08)
(0.00101055 -7.9602e-07 7.43721e-08)
(0.000755673 -2.65269e-07 4.26517e-08)
(0.000756615 -3.23087e-07 5.17071e-08)
(0.001008 -4.06055e-07 1.6748e-07)
(0.000754452 -2.16895e-07 4.71948e-08)
(0.000755094 5.39152e-08 5.41974e-08)
(0.00100645 -3.12425e-07 1.45364e-07)
(0.000753172 -1.99924e-07 4.33104e-08)
(0.000753782 7.69839e-09 6.8609e-08)
(0.00100468 -2.84828e-07 1.67183e-07)
(0.000751762 -2.9862e-07 4.55907e-08)
(0.000752452 -1.45808e-08 3.55111e-08)
(0.00100301 -2.77908e-07 1.74604e-07)
(0.000750011 -3.79866e-07 2.41949e-08)
(0.000750911 -4.82819e-07 -1.28711e-08)
(0.00100082 -5.40309e-07 2.17533e-07)
(0.0007496 8.93062e-07 5.38638e-08)
(0.00099864 -4.55824e-07 1.059e-07)
(0.0031667 -0.00982832 -0.00157902)
(0.0233982 -0.005448 -0.00245513)
(0.0044513 0.00683316 -0.0017323)
(0.0069748 0.00679359 -0.00665896)
(0.0151357 -0.00467371 0.000823987)
(0.0187775 0.00604026 0.00717401)
(2.25293e-05 0.00393547 -0.0134342)
(0.00936873 0.00621138 -0.000339811)
(0.00640214 -0.00178933 1.66955e-06)
(0.0112882 -0.00549599 0.00816047)
(0.0142098 -0.00297315 -0.00301254)
(0.00763015 0.00706572 0.0045867)
(0.0213366 0.0102073 -0.00808372)
(0.00377887 -0.0026497 -0.000701559)
(0.0162316 -0.00357129 0.000225831)
(0.00635829 7.50953e-05 0.00462484)
(-0.00254309 0.00404196 -4.28498e-05)
(0.00279985 0.0049402 -0.000569839)
(0.00428562 0.0092105 -0.00245773)
(0.0110211 -0.00172401 -0.00110613)
(0.0203701 -0.00646756 -0.000572595)
(0.00595324 0.00377786 -0.000448013)
(0.00354576 -0.00842797 0.00124938)
(0.00755178 0.0100656 -0.000712528)
(0.0078981 0.0141045 0.00243304)
(0.00910771 0.0126253 -0.00116736)
(0.0108495 0.0281934 0.00326209)
(0.0093115 -0.00107304 -0.00124801)
(0.0052503 -0.00335407 0.00032044)
(0.00146921 0.0186349 0.00178133)
(0.00792856 0.0128272 -0.000974748)
(-0.00564549 -0.0038116 0.000143273)
(0.000671533 0.0063021 -0.000296946)
(0.0261358 0.00733257 0.0012645)
(-0.00390504 0.00763171 -0.001015)
(0.0018699 0.000101523 -0.000359535)
(0.00308748 -0.00290586 -0.000291451)
(0.00325642 -0.00649983 -0.000291627)
(-0.00564918 -0.000153855 -0.000284878)
(-0.00236649 0.00015188 -0.000784974)
(-0.00388189 0.00155303 -0.000137455)
(0.000222786 0.00109311 1.41008e-05)
(0.00207338 -0.00387682 -1.38781e-05)
(0.000820127 -0.000148584 9.24581e-05)
(0.0007886 -0.00168211 0.000191959)
(0.000554677 -0.000636696 0.000292353)
(0.000305623 -4.80037e-05 2.19243e-05)
(0.000328635 -7.39439e-07 1.81442e-06)
(0.000273101 -2.90677e-06 4.01307e-06)
(0.000451946 -1.03049e-05 7.40495e-06)
(0.000219658 -4.34649e-06 -7.10864e-07)
(0.000782508 -1.01955e-05 -1.31544e-06)
(0.000520947 -1.31741e-05 -1.36878e-06)
(0.00105773 -4.11398e-05 -1.41533e-06)
(0.000555359 -1.44904e-05 -4.40057e-06)
(0.000546723 -1.80929e-05 -4.66963e-06)
(0.000961615 -3.52128e-05 -4.74264e-06)
(0.000943082 -4.01593e-05 -4.5594e-06)
(0.000520242 -3.33076e-05 -3.83737e-06)
(0.000876042 -2.78019e-05 -5.47822e-07)
(0.0008719 -6.30212e-05 -4.68522e-06)
(0.000781848 -1.12678e-06 3.90473e-08)
(0.000798375 5.01595e-07 -8.03795e-07)
(0.00104278 3.50161e-06 1.34524e-07)
(0.000789028 -6.01391e-06 9.00214e-08)
(0.000778277 -1.32711e-05 -1.59762e-07)
(0.00104827 -1.20267e-05 1.62242e-07)
(0.000793318 -4.03101e-06 4.00787e-08)
(0.000792996 -8.27814e-06 1.18377e-07)
(0.00105605 -7.27209e-06 1.78107e-07)
(0.000796326 -2.95806e-06 4.53369e-08)
(0.000795811 -6.375e-06 4.22529e-08)
(0.00106018 -5.44734e-06 1.76968e-07)
(0.000797866 -2.09017e-06 4.78467e-08)
(0.000798243 -4.31395e-06 5.39317e-08)
(0.00106302 -3.62717e-06 1.76526e-07)
(0.000798311 -1.47644e-06 4.82388e-08)
(0.000798916 -2.93726e-06 5.0286e-08)
(0.00106408 -2.67527e-06 1.78407e-07)
(0.000798121 -9.34964e-07 4.43217e-08)
(0.000798779 -1.91967e-06 5.06575e-08)
(0.0010641 -1.72184e-06 1.7777e-07)
(0.000797243 -5.8009e-07 4.46393e-08)
(0.000798069 -1.21648e-06 4.6566e-08)
(0.00106331 -1.08544e-06 1.65501e-07)
(0.000796265 -3.60841e-07 7.17891e-08)
(0.000797025 -7.59141e-07 5.23975e-08)
(0.00106204 -6.79965e-07 1.76931e-07)
(0.000794989 -1.03592e-07 6.78745e-08)
(0.000795929 -1.40358e-06 4.32975e-08)
(0.0010605 -4.39999e-07 2.61957e-07)
(0.00079353 5.25767e-08 3.53463e-08)
(0.000794455 1.48601e-06 -6.2856e-09)
(0.00105861 2.06379e-08 4.90526e-08)
(0.000792163 5.61746e-08 2.87251e-08)
(0.000792912 -3.01844e-07 3.2703e-08)
(0.00105669 2.34583e-08 1.83914e-07)
(0.000790694 2.6162e-08 4.51918e-08)
(0.000791549 -1.61827e-07 2.76456e-08)
(0.00105485 1.13219e-07 1.8334e-07)
(0.000789225 6.07072e-08 9.05569e-08)
(0.000790104 -6.79259e-08 5.47768e-08)
(0.00105283 -1.65005e-08 1.73724e-07)
(0.000787979 1.78506e-07 1.68035e-07)
(0.000788672 2.51232e-07 8.39027e-08)
(0.00105097 2.53975e-07 1.42491e-07)
(0.000786696 1.63442e-07 1.40496e-07)
(0.000787158 -5.17025e-07 1.19441e-07)
(0.00104941 3.21705e-07 1.73659e-07)
(0.000785096 7.80262e-08 6.99963e-08)
(0.000785633 -3.78234e-08 5.63024e-08)
(0.00104746 1.83053e-07 2.06099e-07)
(0.000783374 4.23503e-08 7.03763e-08)
(0.0007841 -2.23647e-08 6.35446e-08)
(0.00104517 7.66941e-08 2.33102e-07)
(0.000781646 -2.18591e-08 5.64565e-08)
(0.000782486 -2.69595e-08 4.56578e-08)
(0.00104284 7.00381e-08 2.37689e-07)
(0.000780299 -2.39751e-07 5.75182e-08)
(0.000780891 -1.22926e-07 5.10354e-08)
(0.00104088 -1.27098e-07 1.77054e-07)
(0.00077836 -3.39015e-07 7.57027e-08)
(0.000779361 -5.49738e-07 3.4045e-08)
(0.00103867 -5.9342e-07 2.42532e-07)
(0.00077709 -2.49364e-07 -1.83248e-08)
(0.000777971 -5.94853e-08 5.22167e-08)
(0.00103639 -4.12845e-07 1.67916e-07)
(0.000775833 -1.12023e-07 -4.66636e-08)
(0.000776632 2.34026e-07 3.1327e-08)
(0.00103488 -3.08052e-07 9.532e-08)
(0.00077453 2.88838e-07 7.12412e-08)
(0.000775428 3.54504e-07 7.95425e-08)
(0.00103322 -3.83706e-08 1.06553e-07)
(0.000773155 5.48531e-07 1.12095e-07)
(0.00077398 -2.35049e-06 5.58512e-08)
(0.00103142 7.89138e-07 2.69721e-07)
(0.000771808 2.84947e-07 7.64214e-08)
(0.000772184 -3.16326e-06 4.22715e-08)
(0.00102965 7.18316e-07 2.59922e-07)
(0.000769903 7.23205e-08 3.95603e-08)
(0.000770693 7.70242e-07 7.31631e-08)
(0.00102741 1.16604e-07 1.6828e-07)
(0.000768606 1.26279e-07 3.90986e-08)
(0.000769333 -5.00674e-08 4.45526e-08)
(0.00102523 1.24898e-07 1.71548e-07)
(0.000767399 2.58373e-07 2.03366e-08)
(0.000767959 -9.54358e-08 5.36047e-08)
(0.00102358 2.36217e-07 1.6488e-07)
(0.000766038 4.7825e-07 1.1136e-08)
(0.000766609 1.18998e-07 2.59464e-08)
(0.00102199 4.68978e-07 1.75383e-07)
(0.000763733 4.51706e-07 1.07082e-07)
(0.000764895 -6.6691e-07 2.5796e-08)
(0.00101948 8.18332e-07 1.58192e-07)
(0.000762487 2.28304e-07 1.23626e-07)
(0.0007632 1.81627e-07 1.51923e-07)
(0.00101703 4.34616e-07 1.63706e-07)
(0.000761092 7.00553e-08 1.32432e-08)
(0.000761782 3.73461e-08 6.16737e-08)
(0.00101537 2.08826e-07 1.67475e-07)
(0.000759373 -1.07792e-07 2.27554e-08)
(0.000760192 9.53789e-08 1.32108e-08)
(0.00101323 -5.30175e-08 1.85043e-07)
(0.000758442 -4.9195e-07 7.66726e-08)
(0.000758839 5.8057e-07 6.97667e-08)
(0.00101141 -2.92444e-07 2.02972e-07)
(0.000757952 -5.43752e-07 7.2108e-08)
(0.000758176 6.47684e-08 1.15035e-07)
(0.00101068 -1.02698e-06 2.64642e-07)
(0.000755931 -1.98323e-07 6.3252e-08)
(0.000757049 -3.55191e-07 4.70569e-08)
(0.00100893 -3.98853e-07 2.27538e-07)
(0.000754371 -9.05107e-09 7.56071e-08)
(0.000755331 -1.16384e-08 4.61253e-08)
(0.00100646 -1.67498e-07 1.88359e-07)
(0.000753144 2.4472e-08 6.08199e-08)
(0.000753824 -5.58814e-07 6.19737e-08)
(0.00100469 8.91224e-08 1.94799e-07)
(0.000751593 -1.03192e-07 -2.29359e-08)
(0.000752293 2.31923e-07 5.28947e-08)
(0.00100281 -5.59942e-08 1.65164e-07)
(0.00075039 -1.8219e-07 1.67776e-08)
(0.000750815 1.23109e-07 -2.03222e-08)
(0.00100089 -2.57702e-07 1.07289e-07)
(0.000749827 -1.16235e-07 1.12518e-07)
(0.000999529 -2.64356e-07 2.3003e-07)
(-0.00434905 -0.00542599 0.000362076)
(-0.0027728 -0.0122841 0.000177115)
(-0.00232203 -0.00922584 -0.000205638)
(-0.00763806 -0.0223736 0.000522231)
(0.00571575 -0.00874757 -0.000325966)
(0.0120471 -0.00687768 0.000461873)
(0.000815204 -0.00769551 0.000309889)
(0.0131057 -0.0174758 0.000287979)
(0.00792522 -0.0155183 0.000264469)
(0.00712988 -0.00782927 -0.00113489)
(0.0151465 -0.018444 -0.000682777)
(0.0193586 -0.00139847 0.000132789)
(0.0172606 0.00581896 0.0015657)
(0.0289743 0.00937838 0.00189942)
(0.00985796 0.00692605 0.00248454)
(0.0135881 0.00321856 0.00285903)
(-0.00675496 0.012669 0.00761146)
(0.0111154 -0.00277487 -0.00629114)
(-0.0276891 -0.00318842 -0.00562175)
(-0.0239156 -0.00829735 0.00226354)
(-0.00128589 -0.00737765 -0.000199102)
(-0.00535241 0.000228614 -0.000820209)
(-0.0190757 -0.0136005 9.00088e-05)
(-0.0243841 0.0128791 0.00284023)
(0.0584366 -0.0191225 -0.00350577)
(0.0367364 -0.0076921 -0.00718214)
(0.0279707 -0.0146511 0.00137457)
(-0.0062025 -0.000324749 -3.56661e-05)
(-0.0013308 -0.000988179 5.12471e-05)
(-0.001852 -0.00236218 0.000244525)
(-0.00475058 -0.00466021 0.000236104)
(-0.000146905 -0.00222601 7.3405e-05)
(-0.000774417 0.000395484 -7.10043e-05)
(-0.000639243 0.0003646 -2.11223e-05)
(-3.15375e-05 0.000314273 -5.5947e-05)
(0.000185951 0.00139137 -5.8714e-05)
(-0.000253479 0.000997617 -0.000118224)
(0.00128504 2.33717e-06 2.0704e-05)
(0.000437158 -0.000209351 4.14546e-05)
(0.000504982 -0.000195349 2.29497e-05)
(0.000571748 -0.000175909 7.49485e-05)
(0.000385017 -0.000107245 2.39059e-05)
(0.000407965 -1.93933e-05 -6.6725e-07)
(0.000427031 -2.27801e-05 -2.77884e-06)
(0.000402688 -2.85068e-05 -1.44882e-08)
(0.000653405 -2.75172e-05 -5.56527e-07)
(0.000774679 -2.08018e-05 -1.00282e-06)
(0.000835541 -4.39999e-05 -1.41068e-06)
(0.00109434 -2.61221e-05 -8.36608e-07)
(0.000542924 -2.65456e-05 -3.49698e-06)
(0.000553828 -2.60742e-05 -4.91855e-06)
(0.00089993 -5.65133e-05 -4.34501e-06)
(0.000917489 -5.22259e-05 -6.16846e-06)
(0.000788612 -1.82414e-05 -1.31497e-07)
(0.000781606 -3.12238e-05 -4.97346e-07)
(0.00103145 -3.03239e-05 7.58992e-08)
(0.000795373 -1.18062e-05 1.20576e-07)
(0.000801117 -1.91553e-05 1.85281e-07)
(0.0010608 -1.88914e-05 2.07969e-07)
(0.000798494 -7.94143e-06 5.08439e-08)
(0.000800692 -1.22622e-05 3.24763e-08)
(0.001063 -1.29477e-05 1.77541e-07)
(0.000799618 -5.18171e-06 5.63721e-08)
(0.000801726 -7.75141e-06 5.76333e-08)
(0.00106591 -8.44372e-06 1.80939e-07)
(0.000799587 -3.36701e-06 5.27045e-08)
(0.000801205 -4.9015e-06 5.1494e-08)
(0.00106619 -5.50852e-06 1.79253e-07)
(0.000798917 -2.18955e-06 5.29031e-08)
(0.000800265 -3.07792e-06 5.08684e-08)
(0.00106552 -3.55322e-06 1.78872e-07)
(0.000797871 -1.43906e-06 5.43224e-08)
(0.000799016 -1.94361e-06 5.13422e-08)
(0.00106428 -2.33274e-06 1.81857e-07)
(0.000796711 -9.57226e-07 2.39089e-08)
(0.000797633 -1.29942e-06 5.14968e-08)
(0.00106267 -1.53564e-06 1.78943e-07)
(0.000795605 -7.12364e-07 -3.08466e-08)
(0.00079624 -1.50011e-06 4.29175e-09)
(0.00106121 -1.04799e-06 1.43878e-07)
(0.000793667 -4.90231e-07 -8.94142e-09)
(0.000794736 1.55725e-07 1.16051e-08)
(0.00105916 -8.91337e-07 3.01239e-07)
(0.00079233 -2.4089e-07 3.16252e-08)
(0.000793226 -4.37995e-07 3.35523e-08)
(0.00105697 -4.62174e-07 1.67077e-07)
(0.000790993 -6.79604e-08 3.7222e-08)
(0.000791767 -3.03072e-07 4.72202e-08)
(0.00105513 -2.30481e-07 1.67515e-07)
(0.000789492 7.20589e-08 4.81133e-08)
(0.00079028 -1.2733e-07 4.9051e-08)
(0.00105327 -7.56928e-10 1.76423e-07)
(0.000787951 1.34366e-07 3.52967e-08)
(0.000788749 -1.1343e-07 4.4275e-08)
(0.00105128 1.61115e-07 2.01449e-07)
(0.000786034 8.61587e-08 3.52674e-08)
(0.000787097 5.61625e-08 4.31761e-08)
(0.00104877 1.86008e-07 1.68887e-07)
(0.00078466 -6.51239e-09 4.98483e-08)
(0.000785516 -1.88868e-07 3.74686e-08)
(0.00104666 3.03528e-08 1.72341e-07)
(0.000783239 -8.37591e-08 3.88318e-08)
(0.000784003 -1.45098e-07 3.89738e-08)
(0.00104483 -4.48592e-08 1.74789e-07)
(0.000781693 -7.26982e-08 4.0235e-08)
(0.0007825 1.46156e-07 4.60791e-08)
(0.00104286 -1.39107e-07 1.65219e-07)
(0.000780006 -4.14572e-08 2.75676e-08)
(0.00078093 -5.87244e-08 5.43275e-08)
(0.00104055 -6.0513e-09 1.8548e-07)
(0.000778819 1.89626e-07 1.05533e-08)
(0.000779648 4.72364e-07 -7.0215e-09)
(0.00103873 -5.73914e-08 7.42169e-08)
(0.000777657 4.46984e-07 1.01875e-07)
(0.000778291 7.41353e-07 2.88627e-08)
(0.00103731 6.21236e-07 8.77817e-08)
(0.000776065 4.46532e-07 1.57518e-07)
(0.000776628 3.48791e-07 1.27494e-07)
(0.00103528 6.77892e-07 1.74431e-07)
(0.000775113 3.65004e-07 6.41598e-08)
(0.000775323 4.74749e-07 4.42196e-08)
(0.00103381 6.28732e-07 1.17625e-07)
(0.000772869 2.42953e-07 -1.39679e-08)
(0.000773826 -5.47676e-08 2.04426e-08)
(0.00103179 4.02927e-07 7.80015e-08)
(0.000771047 9.91061e-08 3.90037e-08)
(0.000772004 1.10843e-07 1.28175e-08)
(0.00102876 2.64886e-07 -2.91261e-08)
(0.000770115 4.64666e-08 7.81644e-08)
(0.000770627 1.10364e-07 6.29361e-08)
(0.00102698 5.15133e-09 1.71914e-07)
(0.000768688 7.80827e-08 5.90559e-08)
(0.000769372 -1.31315e-07 1.41499e-07)
(0.00102553 1.14162e-07 1.75018e-07)
(0.000767176 2.11165e-08 5.92231e-08)
(0.000767888 -1.57442e-08 6.58694e-08)
(0.00102351 9.3334e-08 1.71394e-07)
(0.00076565 -1.09998e-07 4.06065e-08)
(0.000766445 -6.91973e-08 5.48104e-08)
(0.00102151 -1.9778e-08 1.92174e-07)
(0.000764084 -9.54087e-08 7.05981e-08)
(0.000764913 -2.47597e-07 2.24138e-08)
(0.00101951 -2.39814e-07 1.52291e-07)
(0.00076264 1.07322e-08 8.99979e-08)
(0.000763333 6.72774e-07 8.24404e-08)
(0.0010174 -5.0408e-09 1.36402e-07)
(0.0007609 7.57295e-08 6.16562e-08)
(0.000761863 4.33566e-07 6.15382e-08)
(0.00101522 2.15465e-08 1.70078e-07)
(0.000759571 3.35906e-07 6.02048e-08)
(0.000760516 -1.13194e-08 6.06254e-08)
(0.00101318 1.86902e-07 1.69465e-07)
(0.000758198 5.92584e-07 1.08115e-07)
(0.000759157 3.70599e-07 1.2458e-07)
(0.00101151 7.4503e-07 1.81236e-07)
(0.000757822 4.1639e-07 9.00043e-08)
(0.000757954 -1.37805e-06 2.80107e-08)
(0.00101042 8.56081e-07 1.80507e-07)
(0.000756334 2.01268e-07 2.99304e-08)
(0.000756778 3.27508e-07 4.00347e-08)
(0.00100908 2.91147e-07 1.27276e-07)
(0.000754729 3.08256e-07 3.2487e-08)
(0.000755463 4.30699e-07 5.76482e-08)
(0.00100706 3.17384e-07 1.55568e-07)
(0.000752983 4.13906e-07 5.40513e-08)
(0.000753955 2.98274e-07 4.21808e-08)
(0.00100482 5.21253e-07 1.38349e-07)
(0.000751504 3.36345e-07 5.55308e-08)
(0.000752195 4.08058e-07 6.23217e-08)
(0.00100258 5.54978e-07 1.63645e-07)
(0.000750062 1.87263e-07 7.53784e-08)
(0.000750627 1.59947e-07 4.22406e-08)
(0.00100057 3.1124e-07 1.70814e-07)
(0.000749593 -9.43726e-07 1.42567e-07)
(0.00099929 1.70152e-07 1.94905e-07)
(0.00368782 0.00203784 -0.000349499)
(0.00226816 0.0061779 0.000157966)
(0.0080913 0.00436565 -0.00126056)
(0.00621776 0.00253237 0.000411479)
(0.017934 -0.000472599 0.00183972)
(0.0210069 0.003977 -0.000627942)
(0.0039324 0.000542321 -0.000511422)
(-0.00651939 -0.0233304 -0.0019857)
(-0.0216897 -0.000273441 -0.0019408)
(-0.0054272 0.0324115 -0.00223836)
(0.000138521 -0.0031094 -0.00563129)
(0.00115349 -0.00151777 -0.00148152)
(0.0109536 -0.0222434 -0.000156743)
(0.00731794 -0.039313 0.000536382)
(0.00237793 -0.0182266 -0.000781199)
(0.00973532 -0.025022 -0.000351867)
(-0.00171396 -0.0370628 -0.00108979)
(0.0116952 -0.0124802 -0.00211313)
(0.0159237 -0.00459921 0.000199379)
(0.0284866 0.000444437 0.000628848)
(0.0148394 0.00134361 -0.000216791)
(0.0417946 0.00811562 0.0342408)
(0.0211448 0.0143346 -0.0145761)
(0.0182069 -0.0169883 0.00699133)
(0.0447626 -0.00774548 -0.025886)
(-0.000519007 0.000501547 -0.00475359)
(0.0427015 0.0151648 -0.00301332)
(0.016051 0.0115367 -0.00499438)
(0.00469542 -0.00125772 0.000259537)
(0.001492 -1.79856e-05 0.000193204)
(0.0121327 -4.04871e-06 0.000216853)
(0.011389 -0.000857952 -0.000136202)
(0.00086296 -0.00478586 -0.000102178)
(-0.000614118 -0.00102339 -8.2486e-05)
(-0.00349698 0.000767788 -1.94076e-05)
(-0.000120036 0.00305816 -0.000119309)
(0.000646408 0.000530714 -0.000195121)
(-0.00292222 -0.000469261 -0.000388963)
(0.00017315 -0.000396195 2.07165e-05)
(0.00132874 6.20129e-05 6.32501e-05)
(0.000861553 -0.000293574 0.000105691)
(0.00105793 -0.000665968 -4.01416e-05)
(0.00093419 -0.000203802 5.68912e-05)
(0.000281321 -3.12044e-05 -2.05432e-06)
(0.000446154 -5.25308e-05 -3.31993e-06)
(0.000415248 -6.91355e-05 -8.3174e-07)
(0.000680915 -0.000106912 -1.28532e-06)
(0.000294702 -4.13108e-05 -1.66206e-06)
(0.000526269 -4.46342e-05 4.30463e-07)
(0.000560553 -7.01904e-05 2.97437e-06)
(0.000411052 -5.03884e-05 -3.82853e-07)
(0.000800788 -4.67339e-05 -9.05507e-07)
(0.000879082 -6.0921e-05 -1.21174e-06)
(0.00114299 -7.43151e-05 -9.93227e-07)
(0.00057486 -4.5154e-05 -3.64123e-06)
(0.000589002 -5.08328e-05 -4.57598e-06)
(0.00095058 -7.69747e-05 -4.47333e-06)
(0.000984942 -8.78805e-05 -5.75537e-06)
(0.000805082 -2.88719e-05 -1.80791e-07)
(0.00080414 -3.685e-05 -5.53725e-07)
(0.00105766 -4.65319e-05 5.89979e-08)
(0.000805433 -1.76452e-05 9.72313e-08)
(0.000815242 -2.19808e-05 1.79325e-07)
(0.00107798 -2.81842e-05 2.06198e-07)
(0.00080476 -1.09756e-05 3.92576e-08)
(0.000809085 -1.34444e-05 1.68126e-07)
(0.00107337 -1.74826e-05 1.80496e-07)
(0.000803517 -6.82856e-06 5.27572e-08)
(0.000806945 -8.23498e-06 1.32517e-07)
(0.00107241 -1.09292e-05 1.81772e-07)
(0.00080205 -4.2031e-06 4.96582e-08)
(0.000804509 -5.06458e-06 5.00482e-08)
(0.00107025 -6.75916e-06 1.79076e-07)
(0.000800468 -2.54849e-06 4.93073e-08)
(0.000802346 -3.09147e-06 5.41886e-08)
(0.00106811 -4.12307e-06 1.78723e-07)
(0.0007988 -1.57675e-06 4.85166e-08)
(0.000800238 -1.83597e-06 4.28624e-08)
(0.00106585 -2.4706e-06 1.7794e-07)
(0.000797171 -9.98104e-07 3.18948e-08)
(0.000798361 -1.20482e-06 4.81491e-08)
(0.00106366 -1.60519e-06 1.75758e-07)
(0.000795484 -7.49689e-07 4.6741e-08)
(0.000796554 -6.98559e-07 3.14538e-08)
(0.00106132 -9.60438e-07 1.31983e-07)
(0.000794193 -6.3582e-07 5.40917e-08)
(0.000794881 -2.52918e-07 8.69788e-08)
(0.00105935 -9.61219e-07 1.81711e-07)
(0.000792693 -3.97694e-07 4.91429e-08)
(0.000793526 -5.46995e-07 6.27255e-08)
(0.00105753 -6.84852e-07 1.79251e-07)
(0.000791081 -2.32621e-07 5.90487e-08)
(0.000791975 -2.86723e-07 6.54905e-08)
(0.00105543 -3.91911e-07 1.80492e-07)
(0.000789489 -2.00461e-07 4.52142e-08)
(0.000790322 -7.86813e-08 3.62531e-08)
(0.00105332 -2.87232e-07 1.76825e-07)
(0.000787972 -1.76097e-07 5.21547e-08)
(0.000788781 -1.74359e-07 1.55633e-07)
(0.0010512 -3.22009e-07 1.78117e-07)
(0.000786547 -5.74382e-08 4.53791e-08)
(0.000787246 -8.28664e-08 7.84248e-08)
(0.00104924 -2.13545e-07 1.7568e-07)
(0.000784825 8.71283e-08 2.65936e-08)
(0.000785697 -9.16225e-09 6.80223e-08)
(0.00104717 2.32024e-08 1.79735e-07)
(0.000783263 2.05553e-07 4.62189e-08)
(0.000784151 -1.13601e-07 4.25393e-08)
(0.00104496 1.79399e-07 1.76358e-07)
(0.000781789 3.33806e-07 6.0169e-08)
(0.000782659 -2.53912e-08 6.64918e-08)
(0.00104288 3.60295e-07 1.82956e-07)
(0.000780448 5.59616e-07 1.97578e-08)
(0.00078121 5.44685e-07 6.20595e-08)
(0.00104099 5.63045e-07 1.17209e-07)
(0.000779263 6.33725e-07 1.12766e-08)
(0.000779738 8.08903e-07 1.07214e-07)
(0.00103945 1.03528e-06 1.22413e-07)
(0.000777205 4.39955e-07 5.4451e-08)
(0.000778045 3.49165e-07 8.97722e-08)
(0.0010373 7.9676e-07 2.51067e-07)
(0.000775799 3.92288e-07 1.42222e-08)
(0.000776566 3.3162e-07 7.12727e-08)
(0.00103488 5.29894e-07 1.6732e-07)
(0.000774253 1.98075e-07 5.09837e-10)
(0.000775078 2.58932e-07 -1.19858e-08)
(0.00103287 6.80839e-07 1.94019e-07)
(0.000772842 -7.00665e-08 4.72304e-08)
(0.000773489 -1.40046e-07 5.81778e-08)
(0.00103096 -1.41847e-08 1.73052e-07)
(0.000771451 3.05328e-08 3.67343e-08)
(0.000772129 -4.06427e-08 4.9838e-08)
(0.00102915 -9.44104e-08 1.76306e-07)
(0.000770013 8.36427e-08 1.26246e-07)
(0.000770693 2.29202e-07 3.80639e-08)
(0.00102722 1.93566e-07 1.61534e-07)
(0.000768531 -1.61472e-08 1.48336e-07)
(0.000769247 -1.38746e-08 1.38294e-07)
(0.00102534 3.28345e-08 1.65652e-07)
(0.000767175 -1.1052e-07 6.146e-08)
(0.00076777 -1.15536e-07 -3.70469e-08)
(0.00102341 -7.6227e-08 1.70329e-07)
(0.000765718 -2.24198e-07 3.66277e-08)
(0.000766304 -2.14229e-07 5.34807e-08)
(0.00102158 -2.15887e-07 1.82853e-07)
(0.000764132 -2.95527e-07 3.42376e-08)
(0.000764825 -3.40532e-07 3.18014e-08)
(0.0010195 -3.96619e-07 1.90879e-07)
(0.000762572 -2.20542e-07 5.39871e-08)
(0.000763428 7.80873e-07 6.40648e-08)
(0.00101735 -4.28304e-07 1.74385e-07)
(0.000761465 -6.7126e-09 6.05076e-08)
(0.000762131 2.80216e-08 5.54449e-08)
(0.00101561 -1.54314e-07 1.70876e-07)
(0.000760104 2.2736e-07 1.24981e-07)
(0.000760807 -8.13216e-07 2.29549e-07)
(0.00101413 2.05038e-07 2.22556e-07)
(0.000758771 4.97805e-07 4.45054e-08)
(0.000759494 4.82779e-07 1.03495e-07)
(0.00101224 4.9203e-07 1.54339e-07)
(0.00075698 4.68883e-07 -2.19627e-08)
(0.000757915 -1.115e-06 -1.42735e-08)
(0.0010101 8.65678e-07 1.84995e-07)
(0.000755949 1.83685e-07 6.77471e-08)
(0.00075642 2.41233e-08 6.99588e-08)
(0.00100825 3.65451e-07 1.57358e-07)
(0.000754777 4.5308e-08 6.73467e-08)
(0.00075529 -4.42399e-09 6.64511e-08)
(0.00100674 1.26839e-07 1.80028e-07)
(0.000753168 1.74863e-07 5.0445e-08)
(0.000754116 1.03972e-06 2.20533e-08)
(0.00100499 8.35021e-09 1.34314e-07)
(0.000751225 2.72003e-07 4.90377e-08)
(0.000752315 1.01378e-06 4.42505e-08)
(0.00100255 4.32327e-07 1.74647e-07)
(0.00075002 2.24454e-07 1.09399e-07)
(0.000750564 -1.57673e-08 5.33224e-08)
(0.0010004 2.65867e-07 1.64621e-07)
(0.000749313 -1.25811e-06 1.11545e-07)
(0.000998927 3.38829e-07 1.95663e-07)
(-0.000477426 -0.00644099 -3.8529e-05)
(0.00469946 0.00921495 -0.000227944)
(0.0116116 -0.00478773 -0.00139504)
(-0.00387846 -0.000562344 -0.00374602)
(0.00328871 -0.021901 0.000375433)
(0.00153243 -0.0102427 0.0170094)
(-0.000422428 0.0138612 -0.0154943)
(0.00648461 0.00088756 -0.000612311)
(-0.0038649 0.000866223 0.000148603)
(0.00303011 -0.00378188 0.000732996)
(0.0063061 0.007524 -0.000123773)
(0.00994204 0.0148477 -0.000436768)
(0.0120355 -0.00719496 0.000494702)
(-0.00780056 0.00223058 0.00271777)
(-0.00271237 -0.00566262 9.57514e-05)
(0.000259675 -0.0125204 0.000358975)
(0.0133461 -0.0248492 0.00761686)
(0.0159394 -0.0116364 -0.0116114)
(0.00230428 -0.0171114 0.0276175)
(-0.00255726 -0.015319 -0.0148965)
(-0.00240752 -0.0153847 0.00528413)
(-0.0104091 0.031261 -0.000917893)
(-0.016065 -0.0115875 -0.00174447)
(-0.00566823 0.00840727 -0.000395213)
(-0.00194058 0.0153087 -0.000441408)
(0.00115438 0.00655405 1.25141e-05)
(-0.00742399 0.00990199 0.000282303)
(0.00160382 0.0154274 0.000312633)
(0.01038 0.00661083 0.000573259)
(-0.000980737 0.000597334 0.000496387)
(0.00300684 0.00097588 0.000788578)
(0.00629428 0.00301437 0.00201118)
(0.01845 0.0104004 -8.2189e-05)
(0.000442306 -0.000386046 5.39155e-05)
(-0.00166375 -0.000481758 -1.6355e-05)
(-0.000781319 0.000273816 4.10292e-06)
(-0.00223495 -0.00147681 0.00016805)
(-0.00626926 0.00609127 -1.0491e-06)
(0.000507476 -0.000567256 6.134e-06)
(0.00148748 -0.0004134 -2.61323e-05)
(0.00117283 -0.000864215 2.59053e-05)
(0.00113815 -0.000830548 -7.49175e-06)
(0.000957428 -1.57827e-05 4.34841e-05)
(0.000354584 -5.17306e-05 5.77841e-06)
(0.000486597 -6.46296e-05 -3.2196e-06)
(0.00048024 -8.7532e-05 -1.17072e-07)
(0.000754173 -0.000115204 3.28424e-06)
(0.000353793 -6.20094e-05 8.07256e-06)
(0.000658763 -9.10451e-05 1.88498e-05)
(0.000655596 -0.000117148 2.31823e-05)
(0.000439507 -6.31225e-05 -5.11863e-07)
(0.000834801 -4.49676e-05 -8.6017e-07)
(0.000921972 -4.45163e-05 -1.36355e-06)
(0.00120689 -7.16192e-05 -1.07613e-06)
(0.000616142 -5.5972e-05 -3.89595e-06)
(0.000637887 -5.34839e-05 -4.99655e-06)
(0.00101819 -9.81026e-05 -4.65032e-06)
(0.00106577 -9.21706e-05 -6.23556e-06)
(0.000824727 -2.63475e-05 -1.93849e-07)
(0.000827446 -2.4705e-05 -5.57951e-07)
(0.00108965 -4.17026e-05 7.17795e-08)
(0.000816944 -1.56239e-05 2.50223e-07)
(0.000828711 -1.47308e-05 1.67907e-07)