/*--------------------------------*- C++ -*----------------------------------*\
| =========                 |                                                 |
| \\      /  F ield         | OpenFOAM: The Open Source CFD Toolbox           |
|  \\    /   O peration     | Version:  5.0                                   |
|   \\  /    A nd           | Web:      www.OpenFOAM.org                      |
|    \\/     M anipulation  |                                                 |
\*---------------------------------------------------------------------------*/
FoamFile
{
    version     2.0;
    format      ascii;
    class       surfaceVectorField;
    location    "2.1";
    object      Uf_0;
}
// * * * * * * * * * * * * * * * * * * * * * * * * * * * * * * * * * * * * * //

dimensions      [0 1 -1 0 0 0 0];

internalField   nonuniform List<vector> 
27415
(
(-0.00245501 -0.00587888 -0.000263114)
(-0.0037642 -0.00126415 0.000266655)
(-0.00833953 0.00462316 -0.000806724)
(-0.0074571 -0.0166916 0.00134231)
(-0.0106805 -0.0112538 0.000120143)
(-0.0122588 -0.0048153 0.00169355)
(-0.0391446 -0.061032 -0.0141573)
(-0.0214494 -0.0255489 0.0211749)
(-0.0200208 -0.0343773 0.0226381)
(-0.0128988 -0.0237387 -0.0274515)
(0.00733657 -0.00393402 -0.000932514)
(0.0027587 -0.00431251 0.000256109)
(0.00736808 -0.010859 -0.000672557)
(0.00696719 -0.00963669 0.00920413)
(0.000792518 -0.000355855 -0.0355789)
(0.010187 -0.0135057 0.0262389)
(0.0105687 -0.0162984 0.00354581)
(0.00417575 -0.00185246 -0.000308524)
(-0.00245501 -0.00587888 -0.000263114)
(-0.00245501 -0.00587888 -0.000263114)
(-0.00245501 -0.00587888 -0.000263114)
(0.00877874 -0.0104973 -0.000381578)
(0.00667929 -0.00480353 -0.000260898)
(0.00483054 -0.0158277 -0.000570452)
(-2.18418e-05 -0.00934217 -0.000215931)
(0.00946715 -0.010187 -0.00013281)
(0.00348637 -0.0082902 7.61679e-06)
(0.00670968 -0.00274742 6.9508e-05)
(0.00918868 -0.0144644 -0.000217462)
(0.00040204 -0.000170272 1.0006e-05)
(0.000435681 -0.000129474 -3.66964e-06)
(0.000456996 -0.000107066 -4.47385e-07)
(0.000729522 -0.00025483 5.46255e-08)
(0.000240997 -6.47019e-05 1.86338e-05)
(0.000802044 -0.000384301 2.46668e-05)
(0.000411326 -8.45741e-05 4.46243e-05)
(0.000765306 -6.66192e-05 -1.22749e-06)
(0.000809251 -9.26259e-05 -2.36692e-06)
(0.00104245 -0.000120344 -1.30638e-06)
(0.000539016 -0.000101571 -4.15827e-06)
(0.000529967 -7.16306e-05 -4.02033e-06)
(0.000912478 -0.00019717 -4.26391e-06)
(0.000892145 -0.000126547 -4.04572e-06)
(0.000774406 -3.33029e-05 -1.21419e-07)
(0.000785749 -3.9493e-05 -2.386e-07)
(0.00101967 -5.80177e-05 1.08418e-07)
(0.000783794 -1.77942e-05 9.5985e-08)
(0.00078995 -2.63019e-05 4.73063e-08)
(0.00104066 -3.11592e-05 1.76799e-07)
(0.000789085 -9.6949e-06 7.29496e-08)
(0.000792661 -1.50474e-05 4.34504e-08)
(0.00104887 -1.65477e-05 1.7248e-07)
(0.000792738 -5.55488e-06 2.32726e-08)
(0.000794492 -9.15577e-06 5.50081e-08)
(0.00105476 -9.49612e-06 1.71958e-07)
(0.000794648 -3.14355e-06 1.02948e-08)
(0.000795803 -5.68553e-06 1.22594e-08)
(0.00105858 -5.45726e-06 1.72424e-07)
(0.000794837 -1.80681e-06 4.61817e-08)
(0.000795951 -3.60186e-06 4.49784e-08)
(0.00105983 -2.99682e-06 1.75301e-07)
(0.000794594 -1.16148e-06 3.95113e-08)
(0.000795412 -2.25871e-06 5.0427e-08)
(0.0010596 -1.84733e-06 1.78856e-07)
(0.000793656 -7.85764e-07 4.1094e-08)
(0.000794631 -2.01449e-07 4.70413e-08)
(0.00105882 -1.25151e-06 1.35886e-07)
(0.000792758 -5.43021e-07 4.57158e-08)
(0.000793567 -9.85571e-07 5.16724e-08)
(0.00105756 -8.33601e-07 1.75922e-07)
(0.000791676 -4.04626e-07 4.85279e-08)
(0.000792378 -5.50279e-07 2.6097e-08)
(0.00105629 -5.82775e-07 1.74719e-07)
(0.000789984 -2.80922e-07 6.17781e-08)
(0.000790955 3.55217e-07 7.25399e-08)
(0.00105433 -4.45652e-07 1.76684e-07)
(0.000788563 -1.88914e-07 6.85895e-08)
(0.000789381 -3.85474e-07 4.56214e-08)
(0.00105224 -2.84551e-07 1.80764e-07)
(0.000787165 -9.41818e-08 5.2389e-08)
(0.000787941 -2.36517e-07 8.14053e-08)
(0.00105051 -2.1489e-07 1.65758e-07)
(0.000785626 -1.00417e-07 1.99931e-08)
(0.000786349 -1.94392e-08 4.73151e-08)
(0.00104846 1.18477e-09 1.68956e-07)
(0.000784144 -9.00547e-08 2.68824e-08)
(0.000784904 2.23207e-08 4.60713e-08)
(0.00104642 -1.92863e-07 1.62473e-07)
(0.000782688 5.01565e-08 3.00137e-08)
(0.000783593 -1.42963e-07 3.23632e-08)
(0.00104455 1.79986e-08 1.77239e-07)
(0.000781258 1.88535e-07 3.85094e-08)
(0.000782032 -2.90135e-07 -5.99505e-09)
(0.00104262 1.72943e-07 2.09044e-07)
(0.000779714 2.90852e-07 6.26317e-08)
(0.000780462 -6.00732e-07 1.03718e-07)
(0.00104061 4.09249e-07 1.58438e-07)
(0.000778341 2.1701e-07 5.54103e-08)
(0.000778935 -3.5667e-07 7.86306e-08)
(0.00103865 4.25967e-07 2.04119e-07)
(0.000777119 2.01083e-07 5.75485e-08)
(0.000777621 -8.50955e-08 4.75015e-08)
(0.00103714 1.71225e-07 1.73849e-07)
(0.000774619 5.38951e-08 6.45247e-08)
(0.000775767 6.75841e-07 5.99701e-08)
(0.00103453 3.48625e-07 2.71571e-07)
(0.000773437 -3.65783e-07 1.37102e-09)
(0.000773876 -3.29083e-07 5.18427e-08)
(0.00103198 -2.57652e-07 1.99904e-07)
(0.00077203 -5.02817e-07 -3.14949e-08)
(0.000772717 2.05927e-06 3.86829e-08)
(0.00103044 -7.78651e-07 -2.08193e-08)
(0.000770321 -3.07241e-07 2.30773e-08)
(0.000771385 1.28331e-06 2.22312e-08)
(0.00102822 -6.0365e-07 8.30627e-08)
(0.000768884 -2.66795e-08 2.89296e-08)
(0.000769981 2.56767e-07 1.10486e-07)
(0.00102611 -2.36275e-07 1.23049e-07)
(0.000768256 1.00148e-07 2.48331e-08)
(0.000768728 7.76111e-07 1.76053e-07)
(0.00102498 1.70654e-07 7.77329e-09)
(0.000766537 6.85004e-08 6.54173e-08)
(0.000767275 1.90722e-07 4.38892e-08)
(0.00102345 1.3687e-07 1.6167e-07)
(0.000764912 4.46115e-08 6.10781e-08)
(0.000765703 1.03488e-07 6.27826e-08)
(0.00102108 1.10182e-07 1.84698e-07)
(0.000763426 7.63178e-08 2.49778e-08)
(0.00076424 1.63967e-07 3.79426e-08)
(0.00101898 4.08178e-08 1.68527e-07)
(0.000762019 2.2438e-07 -1.666e-08)
(0.000762803 1.80134e-07 3.52886e-08)
(0.00101696 1.87713e-07 1.60737e-07)
(0.000760458 3.4145e-07 5.2832e-09)
(0.000761321 2.53587e-07 -7.9387e-09)
(0.0010151 4.88087e-07 1.84284e-07)
(0.000759641 1.96151e-07 4.61861e-08)
(0.000759954 -1.02323e-06 3.44257e-08)
(0.00101367 4.8201e-07 1.88888e-07)
(0.000758136 2.1775e-08 5.32297e-08)
(0.000758667 8.35371e-08 4.35535e-08)
(0.00101203 6.27685e-08 1.72217e-07)
(0.000756654 -1.23376e-07 8.38249e-08)
(0.000757164 -2.57448e-08 6.25734e-08)
(0.0010099 1.12336e-08 1.67793e-07)
(0.00075535 -2.69449e-07 1.67485e-07)
(0.00075585 -3.9934e-07 5.57202e-08)
(0.00100835 -3.74501e-07 1.7597e-07)
(0.000753907 -2.2755e-07 1.36308e-07)
(0.000754611 -3.77136e-07 1.76705e-07)
(0.00100639 -3.88159e-07 1.70602e-07)
(0.000752233 -1.68143e-07 4.17822e-08)
(0.000753121 2.04772e-07 2.80987e-08)
(0.00100418 -2.45388e-07 1.66412e-07)
(0.000751125 -1.98504e-07 4.99128e-08)
(0.000751698 2.61768e-08 5.69465e-08)
(0.00100247 -2.43706e-07 1.42454e-07)
(0.000749721 -3.57756e-07 4.51088e-08)
(0.000750349 -5.64075e-08 4.25743e-08)
(0.00100072 -3.09131e-07 1.68572e-07)
(0.0007483 -4.16687e-07 1.21671e-08)
(0.000749033 -2.75086e-07 4.997e-08)
(0.000998957 -6.17249e-07 1.64441e-07)
(0.000746658 -2.90439e-07 2.91244e-08)
(0.000747485 1.24912e-06 2.94303e-08)
(0.000996848 -4.65467e-07 8.03054e-08)
(0.000746137 -4.99281e-07 5.16666e-08)
(0.000994561 -3.19938e-07 2.60896e-07)
(0.00339977 -0.0100123 -0.00173977)
(0.0257876 -0.00561722 -0.00252209)
(0.00466624 0.0103132 -0.00196382)
(0.0069292 0.00697467 -0.00401271)
(0.0160169 -0.00291978 -0.00604241)
(0.0194235 0.00625938 0.0138316)
(-0.000600131 0.00660812 -0.0176467)
(0.00975167 0.00368927 0.000333048)
(0.00464609 -0.00379645 -0.000254479)
(0.0120647 -0.00693615 0.00729874)
(0.0101556 -0.00335917 -0.00576218)
(0.00641067 0.00669336 0.00453745)
(0.0168294 0.00860773 -0.00267525)
(0.0011514 0.00455346 -0.000934694)
(0.0123824 -0.00544779 -0.000599905)
(0.00692363 0.00230529 0.00401758)
(-0.00236252 0.00518701 6.05701e-05)
(0.00252075 0.00321973 -0.000367347)
(0.00573556 0.00856373 -0.00204606)
(0.00955165 0.000173145 6.14374e-05)
(0.0237654 -0.00797909 -0.000718516)
(0.00708838 0.00372631 -0.000257924)
(0.00256553 -0.00880153 0.00128871)
(0.00698781 0.00930267 -0.000479796)
(-0.00469411 0.0129529 0.0009942)
(0.00900133 0.00960429 0.000265028)
(0.00132865 0.0260435 -0.00349484)
(0.00694779 0.00472764 -0.000899155)
(-0.000804005 0.00287359 0.000321407)
(0.000452927 0.00370285 0.00112835)
(0.00522924 0.00934185 0.000952058)
(-0.0039647 0.00240927 -0.00028374)
(0.00121495 0.00427172 -0.000181189)
(0.00578854 0.00536688 0.000474834)
(-0.00303663 0.00450439 -0.000905309)
(-0.000152088 -0.00165087 -0.000297783)
(0.00504051 -0.00250441 -0.000207443)
(0.00388952 -0.00658671 -0.000263664)
(-0.00446831 -0.000295121 -0.000255502)
(-0.00161999 0.000401225 -0.000760285)
(-0.00338946 0.00118105 -5.56946e-05)
(0.000415042 0.000695123 1.21539e-05)
(0.00227628 -0.00427693 -8.07193e-06)
(0.0010473 -0.000529542 9.52789e-05)
(0.00102295 -0.0020525 0.000195434)
(0.000762682 -0.00106358 0.000288451)
(0.000338157 -0.000105057 2.19578e-05)
(0.00035352 -7.02977e-05 1.6234e-06)
(0.000310617 -5.12757e-05 3.87093e-06)
(0.000507456 -9.2075e-05 6.3201e-06)
(0.000248103 -5.02481e-05 -1.05988e-06)
(0.00081914 -5.80385e-05 -1.37873e-06)
(0.000570581 -4.7264e-05 -1.5901e-06)
(0.00111885 -0.000120223 -1.67352e-06)
(0.000594021 -7.54361e-05 -4.43566e-06)
(0.000604525 -7.15693e-05 -4.64548e-06)
(0.001023 -0.000134434 -4.83219e-06)
(0.00103985 -0.000125595 -4.65724e-06)
(0.000561989 -6.24253e-05 -4.16644e-06)
(0.000957908 -7.42498e-05 -1.10692e-06)
(0.000937826 -0.000103485 -5.07721e-06)
(0.000801554 -2.5979e-05 -6.99678e-08)
(0.000833084 -1.85164e-05 -8.74422e-07)
(0.0010763 -3.45737e-05 1.12108e-07)
(0.000799307 -2.0878e-05 -5.22701e-09)
(0.00079648 -2.52323e-05 -2.24869e-07)
(0.00106619 -3.48644e-05 1.625e-07)
(0.000798107 -1.29349e-05 2.5505e-08)
(0.000802667 -1.55039e-05 1.02417e-07)
(0.00106497 -2.08888e-05 1.74792e-07)
(0.000797826 -8.35574e-06 4.40087e-08)
(0.000800264 -1.07637e-05 4.23986e-08)
(0.00106386 -1.36705e-05 1.74949e-07)
(0.000797355 -5.38756e-06 4.69323e-08)
(0.000799544 -6.99862e-06 5.33589e-08)
(0.00106351 -8.63633e-06 1.72369e-07)
(0.000796573 -3.52467e-06 4.92219e-08)
(0.0007983 -4.57996e-06 5.0812e-08)
(0.00106262 -5.7459e-06 1.76629e-07)
(0.000795523 -2.29822e-06 5.79581e-08)
(0.000796958 -2.91289e-06 5.2507e-08)
(0.00106137 -3.66998e-06 1.77451e-07)
(0.00079462 -1.48503e-06 5.76182e-08)
(0.000795656 -1.66105e-06 6.09409e-08)
(0.00106005 -2.46178e-06 2.1997e-07)
(0.000793144 -9.28226e-07 3.20619e-08)
(0.000794269 -1.0569e-06 5.39412e-08)
(0.00105848 -1.50186e-06 1.73726e-07)
(0.000791767 -5.8931e-07 5.00941e-08)
(0.000792806 2.49581e-07 7.24331e-08)
(0.00105657 -9.9667e-07 1.04759e-07)
(0.000790393 -3.13585e-07 5.63918e-08)
(0.000791302 -1.21037e-06 3.13886e-08)
(0.00105469 -5.93419e-07 2.67913e-07)
(0.000788685 7.61569e-09 5.84257e-08)
(0.000789783 -2.55512e-07 3.53356e-08)
(0.00105262 -2.37532e-07 1.79698e-07)
(0.000787209 1.44218e-07 7.63422e-08)
(0.000788112 -4.76829e-07 5.95768e-08)
(0.00105057 2.5497e-07 1.85281e-07)
(0.000785439 3.15847e-07 7.33938e-08)
(0.000786563 2.41104e-07 5.31922e-08)
(0.00104838 1.1792e-07 1.76402e-07)
(0.000784539 4.0863e-07 5.15565e-08)
(0.000785018 -2.20164e-06 1.01115e-07)
(0.00104654 7.27471e-07 2.74012e-07)
(0.000782871 1.8142e-07 -3.63342e-09)
(0.000783307 4.89295e-07 -1.08007e-07)
(0.00104496 3.87179e-07 1.42082e-07)
(0.000781237 2.52667e-08 5.91784e-08)
(0.000781836 1.88562e-08 1.22887e-08)
(0.00104278 1.52616e-07 1.62053e-07)
(0.000779688 -6.80017e-08 1.19724e-07)
(0.000780345 -2.57009e-07 8.61531e-08)
(0.00104058 -1.86696e-08 1.52589e-07)
(0.000778135 -1.54963e-07 7.07316e-08)
(0.000778826 1.09153e-07 7.84456e-08)
(0.00103847 -9.75805e-08 1.44631e-07)
(0.000776601 -5.03178e-07 4.99191e-08)
(0.000777187 2.64224e-09 5.4839e-08)
(0.00103652 -2.72864e-07 1.69975e-07)
(0.000774717 -6.03283e-07 4.72906e-08)
(0.000775644 1.36997e-06 -4.48404e-09)
(0.00103423 -1.06373e-06 1.58467e-07)
(0.000773091 -3.9774e-07 8.91586e-08)
(0.000774135 -2.67392e-07 3.44111e-08)
(0.00103179 -5.56639e-07 1.80701e-07)
(0.000772172 -2.96538e-07 9.24141e-08)
(0.000772845 7.5513e-08 1.13671e-07)
(0.00103026 -5.06689e-07 2.63473e-07)
(0.000771048 7.97382e-08 1.09613e-07)
(0.000771856 -6.97313e-08 7.23381e-08)
(0.00102892 -2.75573e-07 2.37445e-07)
(0.000769788 5.48213e-07 2.57589e-07)
(0.000770566 6.12003e-07 2.33242e-07)
(0.00102735 5.41936e-07 1.28864e-07)
(0.000767795 5.20438e-07 1.9515e-07)
(0.000768691 5.82324e-07 2.30348e-07)
(0.00102523 9.78253e-07 2.33414e-07)
(0.000766396 2.6786e-07 4.12487e-08)
(0.000766958 1.7575e-07 5.41748e-08)
(0.0010229 4.052e-07 1.68221e-07)
(0.00076504 2.20441e-07 3.96548e-08)
(0.000765642 3.30309e-08 4.38658e-08)
(0.00102104 2.81118e-07 1.68715e-07)
(0.000763624 2.23353e-07 4.82543e-08)
(0.000764242 1.28168e-07 8.73989e-08)
(0.00101922 2.9315e-07 1.71988e-07)
(0.000762138 3.00977e-07 4.40233e-08)
(0.000762898 1.46327e-07 4.99572e-08)
(0.00101742 3.32201e-07 1.78456e-07)
(0.000760708 4.36756e-07 2.11907e-08)
(0.000761489 4.34168e-07 4.07571e-08)
(0.00101538 5.55918e-07 1.58286e-07)
(0.000758989 2.93547e-07 3.17904e-08)
(0.000759773 -7.6382e-07 3.01812e-08)
(0.00101318 6.75982e-07 1.78897e-07)
(0.00075782 -1.02096e-07 5.28914e-08)
(0.000758172 -1.4214e-07 6.06541e-08)
(0.00101136 1.193e-07 1.6452e-07)
(0.000756249 -4.39723e-07 3.44707e-08)
(0.000756743 5.45618e-07 5.25875e-08)
(0.00100947 -3.62988e-07 1.43377e-07)
(0.000755102 -4.84655e-07 6.4903e-08)
(0.000755796 -8.75975e-07 6.90736e-08)
(0.00100763 -7.46511e-07 1.8103e-07)
(0.000753905 -2.75925e-07 6.85421e-08)
(0.000754874 -1.12797e-07 9.54991e-08)
(0.00100631 -5.6094e-07 1.3203e-07)
(0.000752505 -1.47645e-07 4.32542e-08)
(0.000753283 5.79617e-07 6.01689e-08)
(0.00100453 -2.46003e-07 1.42449e-07)
(0.000750948 -1.19921e-07 4.96125e-08)
(0.000751734 -3.33514e-08 5.15692e-08)
(0.00100247 -1.92475e-07 1.88268e-07)
(0.000749625 -1.51819e-07 4.74333e-08)
(0.00075031 5.9502e-08 7.3347e-08)
(0.00100062 -1.33694e-07 1.54394e-07)
(0.000748341 -2.78348e-07 6.72395e-08)
(0.000748875 -5.28195e-07 6.52703e-08)
(0.000998873 -2.33946e-07 1.77731e-07)
(0.000746752 -3.12842e-07 5.19657e-08)
(0.000747446 5.61379e-07 6.78644e-08)
(0.000996843 -4.75993e-07 2.37425e-07)
(0.000746527 1.01599e-07 4.73033e-08)
(0.000995513 -3.45341e-07 7.46482e-08)
(-0.00422898 -0.00486982 8.99168e-06)
(-0.00264727 -0.01274 0.000180227)
(-0.00239656 -0.00953816 -0.000333475)
(-0.00870069 -0.0240978 0.000569595)
(0.0111484 -0.00857854 -0.000800937)
(0.00909963 -0.0078479 -0.000246026)
(-0.0010376 -0.00811385 0.000119286)
(0.0132224 -0.0180141 0.000166117)
(0.0043305 -0.0126268 0.000244896)
(0.00673864 -0.0109383 -0.00144835)
(0.0142823 -0.0197975 -0.000656348)
(0.0235134 0.0167778 -0.00259108)
(-0.00475457 -0.00271844 0.00306267)
(0.0404928 0.00639389 0.00350344)
(0.0450422 0.00883772 0.000814228)
(0.0125989 0.00245666 0.00314642)
(-0.0452058 0.00656899 0.013827)
(0.0497701 -0.0187372 -0.00145036)
(-0.0535969 -0.0183907 -0.00150005)
(-0.0196001 -0.00801083 0.00113472)
(-0.00282649 -0.00594357 -0.00058184)
(-0.00754217 0.00484218 -0.00120913)
(-0.0227035 -0.0123406 -0.000756744)
(-0.0213219 0.0104055 0.000240312)
(0.0353306 -0.0310423 -0.0023575)
(0.0282004 -0.0177688 -0.00321939)
(0.00242237 -0.0170013 0.000155094)
(-0.00510992 -0.000101659 -5.91355e-05)
(-0.000962575 -0.000777432 1.09809e-05)
(-0.0015054 -0.00242185 0.000201434)
(-0.00401008 -0.00451427 0.000125513)
(-0.00132226 -0.00120789 4.42867e-05)
(-0.000479506 0.000198052 -7.13946e-05)
(-0.000364543 0.000338694 -3.42797e-05)
(0.000208467 0.000220975 -6.21829e-05)
(0.000517126 0.00161828 -6.65007e-05)
(4.40384e-05 0.000883319 -0.00014388)
(0.00137389 -3.33691e-05 2.18985e-05)
(0.000490734 -0.000232632 4.18574e-05)
(0.000567056 -0.000210728 2.47253e-05)
(0.000663879 -0.000208589 7.70444e-05)
(0.000442689 -0.000126677 2.41119e-05)
(0.000469573 -4.32334e-05 -4.9312e-07)
(0.000473112 -3.72312e-05 -3.16576e-06)
(0.000455066 -3.04024e-05 3.96622e-08)
(0.000727142 -4.92765e-05 -1.41887e-06)
(0.00080387 -2.56147e-05 -1.02954e-06)
(0.000875153 -3.62894e-05 -1.52236e-06)
(0.00114593 -3.31966e-05 -9.27461e-07)
(0.000581703 -3.83689e-05 -3.83099e-06)
(0.000592148 -2.93912e-05 -5.10464e-06)
(0.000961572 -7.86621e-05 -4.74196e-06)
(0.000976597 -5.77778e-05 -6.52103e-06)
(0.000804863 -2.13844e-05 -1.17332e-07)
(0.000801882 -2.68575e-05 -4.50853e-07)
(0.00105818 -3.5065e-05 6.804e-08)
(0.000803823 -1.37492e-05 1.1933e-07)
(0.000812292 -1.66346e-05 1.80271e-07)
(0.00107557 -2.18448e-05 2.08248e-07)
(0.000802227 -9.14153e-06 5.17453e-08)
(0.000806075 -1.07416e-05 -6.70419e-09)
(0.00107021 -1.47558e-05 1.75328e-07)
(0.000800497 -5.92723e-06 5.72394e-08)
(0.000803596 -6.84576e-06 5.76138e-08)
(0.00106857 -9.57788e-06 1.79681e-07)
(0.00079873 -3.82124e-06 5.40965e-08)
(0.000800954 -4.3496e-06 5.24763e-08)
(0.00106609 -6.20367e-06 1.78356e-07)
(0.000797013 -2.42129e-06 5.5487e-08)
(0.000798722 -2.74571e-06 5.26491e-08)
(0.00106374 -3.97424e-06 1.78418e-07)
(0.000795433 -1.55259e-06 5.72661e-08)
(0.000796751 -1.73328e-06 5.43949e-08)
(0.00106156 -2.49062e-06 1.82937e-07)
(0.000793877 -1.00897e-06 9.43064e-08)
(0.000794955 -1.15746e-06 5.34288e-08)
(0.00105941 -1.66837e-06 1.8258e-07)
(0.000792372 -7.12542e-07 5.37408e-08)
(0.00079318 -1.73224e-06 9.55211e-08)
(0.00105744 -1.04826e-06 3.0776e-07)
(0.000790673 -5.1898e-07 1.03312e-08)
(0.000791547 2.84528e-07 8.06098e-09)
(0.00105529 -9.03084e-07 8.4439e-08)
(0.000789362 -3.58038e-07 3.64789e-08)
(0.000789986 -5.08273e-07 3.69409e-08)
(0.0010533 -5.30142e-07 1.7176e-07)
(0.000787225 -2.16085e-07 3.64287e-08)
(0.000788291 2.37591e-07 5.08244e-08)
(0.00105095 -4.46027e-07 1.76458e-07)
(0.000786348 -2.36986e-08 8.08976e-08)
(0.000786804 -5.54383e-07 4.77028e-08)
(0.00104905 -1.43047e-07 1.72173e-07)
(0.000783698 2.66549e-08 -5.83827e-08)
(0.000785081 -1.76253e-08 7.30092e-08)
(0.00104676 6.5688e-08 1.19297e-07)
(0.00078222 1.24202e-08 -9.21235e-08)
(0.000783289 -3.97578e-07 -8.86955e-08)
(0.00104383 2.80056e-08 2.31521e-07)
(0.000780963 4.03921e-08 3.92401e-08)
(0.00078187 -2.76512e-07 3.80059e-08)
(0.00104211 2.58694e-08 1.7135e-07)
(0.00077948 6.34365e-09 4.48767e-08)
(0.000780303 -2.01048e-07 4.22515e-08)
(0.0010403 7.61875e-08 1.6694e-07)
(0.000777979 -3.00319e-08 6.25605e-08)
(0.000778781 2.97277e-08 6.07452e-08)
(0.00103833 -4.57982e-08 1.7831e-07)
(0.000776118 -1.38421e-08 4.54588e-10)
(0.000777207 -5.64757e-09 7.24203e-08)
(0.00103594 1.74606e-09 2.05428e-07)
(0.000775162 2.44397e-07 -1.73758e-08)
(0.000775966 -8.69147e-07 9.32055e-09)
(0.00103418 3.91508e-09 2.83457e-07)
(0.000773645 6.55732e-07 5.88987e-08)
(0.000774647 -1.23963e-06 2.69981e-08)
(0.00103268 6.91514e-07 2.44125e-07)
(0.000772626 7.82335e-07 9.36081e-08)
(0.000773 -8.51854e-07 5.23901e-08)
(0.0010308 1.08088e-06 1.976e-07)
(0.000771401 5.82607e-07 1.95917e-07)
(0.000771603 -1.86528e-06 4.13028e-08)
(0.00102954 9.94413e-07 2.7781e-07)
(0.000769719 2.94284e-07 2.06002e-07)
(0.000770203 4.18523e-07 1.71108e-07)
(0.00102768 5.43827e-07 2.05256e-07)
(0.000767566 1.48475e-07 8.94273e-08)
(0.000768508 4.55233e-08 8.31556e-08)
(0.0010248 2.3306e-07 2.72004e-07)
(0.000766237 1.37727e-07 5.67951e-08)
(0.000766944 -7.83427e-08 5.75334e-08)
(0.00102257 1.35808e-07 1.79016e-07)
(0.000764866 1.31006e-07 9.15964e-08)
(0.000765634 -7.50347e-08 4.76324e-08)
(0.00102094 1.79398e-07 1.72736e-07)
(0.000763481 8.64686e-08 8.91135e-08)
(0.000764186 1.27652e-07 1.84716e-07)
(0.00101904 1.45068e-07 1.66706e-07)
(0.00076223 5.77631e-08 4.66938e-08)
(0.000762862 -2.4995e-08 4.55405e-08)
(0.00101729 8.10369e-08 1.67229e-07)
(0.000760738 -9.61536e-09 4.97508e-08)
(0.000761404 5.97608e-07 2.80845e-08)
(0.00101552 4.04547e-08 1.65107e-07)
(0.000758777 -2.80609e-08 5.90355e-08)
(0.00075975 -4.15785e-07 3.66829e-08)
(0.00101312 -8.47297e-08 1.94263e-07)
(0.000757164 1.81928e-08 6.03527e-08)
(0.00075823 9.98404e-08 5.94035e-08)
(0.00101072 1.99573e-08 1.70791e-07)
(0.000755951 2.699e-07 8.71853e-08)
(0.000757056 5.18402e-07 7.74815e-08)
(0.00100882 6.10601e-08 1.54188e-07)
(0.000755971 3.71097e-07 9.96615e-08)
(0.00075592 -2.24778e-06 8.01155e-08)
(0.00100811 7.17449e-07 1.40357e-07)
(0.000754189 1.3659e-07 8.71367e-08)
(0.000754579 2.56813e-07 4.79512e-08)
(0.00100703 3.69258e-07 1.77384e-07)
(0.000752504 5.214e-08 6.84865e-08)
(0.000753176 4.81144e-07 7.45042e-08)
(0.00100465 1.35298e-07 2.02649e-07)
(0.000750998 1.06802e-07 7.52971e-08)
(0.000751801 1.32218e-07 1.30814e-07)
(0.00100261 1.34112e-07 1.67365e-07)
(0.000749606 1.37615e-07 9.11865e-08)
(0.000750347 -7.43664e-08 7.60836e-08)
(0.00100067 2.42546e-07 1.78874e-07)
(0.000747963 9.52831e-08 6.58944e-08)
(0.000748821 -4.76174e-08 4.98455e-08)
(0.000998531 1.93292e-07 1.56822e-07)
(0.000747023 7.24355e-08 6.32082e-08)
(0.000747415 -1.75529e-07 4.87725e-08)
(0.000996718 1.07335e-07 1.81668e-07)
(0.000746436 1.20461e-07 5.5228e-08)
(0.000995585 1.02414e-07 1.57695e-07)
(0.00403189 0.00307845 -0.000413137)
(0.0022981 0.00732245 0.000233966)
(0.00869014 0.0047676 -0.00128953)
(0.00710947 0.00238624 0.000495725)
(0.0180586 -0.000822436 0.00194542)
(0.0211418 0.00497556 -0.000725167)
(0.0038411 0.00133715 -0.000474875)
(-0.0083313 -0.02512 -0.00200159)
(-0.0240402 0.000951493 -0.00198704)
(-0.00590349 0.0357617 -0.00222625)
(-0.00260276 -0.00145659 -0.0061149)
(0.00048293 -0.000898365 -0.00121446)
(0.0155878 -0.024968 -0.000299595)
(0.0320153 -0.0325042 -0.0010866)
(0.00733813 -0.0226599 -0.00100571)
(0.012533 -0.0251026 7.09225e-05)
(0.0068571 -0.0354599 -0.00187892)
(0.00045313 -0.00551425 -0.00190809)
(0.0149178 -0.00277641 -0.000198557)
(0.0242939 0.00422199 0.00113672)
(0.0148276 0.00172633 -0.000665107)
(0.0381333 0.0137238 0.0363065)
(0.0188439 0.0183458 -0.0164256)
(0.0199882 -0.0156582 0.00351417)
(0.0559447 -0.00420696 -0.0268014)
(-0.0354727 -0.00690429 -0.00280933)
(0.0420328 0.0172407 -0.00274225)
(0.0199294 0.00762971 -0.0056563)
(0.00471473 -0.000884789 0.000231129)
(0.00191655 -0.000217583 0.000161082)
(0.0126182 -0.000224101 0.000196433)
(0.0118432 -0.00122844 -0.000207891)
(-4.08428e-05 -0.00499382 -7.43665e-05)
(-0.000555386 -0.000924802 -7.58975e-05)
(-0.00315994 0.000753817 -1.66916e-05)
(-9.70248e-05 0.00305087 -0.000111914)
(0.000950582 0.000578217 -0.000185671)
(-0.00289789 -0.000527029 -0.000359096)
(0.000348197 -0.000333207 2.0316e-05)
(0.00149589 9.78656e-05 6.4148e-05)
(0.00103011 -0.000174072 0.000105571)
(0.00127563 -0.000601251 -4.25349e-05)
(0.00107073 -0.000158908 5.90515e-05)
(0.000323963 -2.48384e-05 -2.0533e-06)
(0.00048495 -4.06e-05 -3.23201e-06)
(0.000463161 -4.76454e-05 -4.71193e-07)
(0.000761033 -8.72144e-05 -8.95867e-07)
(0.000334728 -3.24244e-05 -1.61917e-06)
(0.000597171 -3.78937e-05 5.24548e-07)
(0.000626718 -5.78003e-05 3.17667e-06)
(0.000465176 -4.33497e-05 1.95494e-08)
(0.000825944 -3.08327e-05 -9.44025e-07)
(0.00090281 -3.03235e-05 -1.31127e-06)
(0.00118854 -4.99473e-05 -1.06611e-06)
(0.000610459 -3.185e-05 -3.85212e-06)
(0.000620393 -3.087e-05 -4.7568e-06)
(0.00100635 -5.82656e-05 -4.88549e-06)
(0.00103243 -5.56791e-05 -6.0597e-06)
(0.000819028 -1.93935e-05 -1.53457e-07)
(0.000816324 -1.83142e-05 -5.08194e-07)
(0.00108068 -3.19214e-05 5.07718e-08)
(0.000812582 -1.19988e-05 5.42973e-08)
(0.000821606 -1.09331e-05 1.75277e-07)
(0.00109057 -1.95494e-05 2.03918e-07)
(0.000807687 -7.55237e-06 -8.56549e-10)
(0.000811677 -6.77136e-06 -2.93491e-08)
(0.00107933 -1.22748e-05 1.87678e-07)
(0.000803914 -4.73546e-06 5.28524e-08)
(0.000807144 -4.12378e-06 9.09298e-08)
(0.00107429 -7.75196e-06 1.78956e-07)
(0.000800889 -2.93778e-06 5.10288e-08)
(0.000803218 -2.54263e-06 5.01951e-08)
(0.00106968 -4.80543e-06 1.78304e-07)
(0.000798406 -1.81305e-06 5.15563e-08)
(0.000800138 -1.62516e-06 4.83407e-08)
(0.00106605 -2.96246e-06 1.7871e-07)
(0.000796247 -1.13549e-06 5.05579e-08)
(0.000797604 -1.01546e-06 4.1208e-08)
(0.00106296 -1.80912e-06 1.78365e-07)
(0.000794299 -7.46343e-07 5.46299e-08)
(0.000795445 -6.60759e-07 5.0112e-08)
(0.0010603 -1.17409e-06 1.75182e-07)
(0.000792258 -5.8399e-07 4.98694e-08)
(0.000793386 -3.38917e-07 5.53401e-08)
(0.00105754 -7.74929e-07 1.21083e-07)
(0.00079092 -4.92096e-07 3.46615e-08)
(0.000791664 -7.99018e-08 4.44337e-08)
(0.00105534 -7.44245e-07 1.81753e-07)
(0.000788939 -4.78139e-07 5.12819e-08)
(0.000790006 -2.85698e-08 6.12961e-08)
(0.0010532 -5.47143e-07 1.79055e-07)
(0.000787728 -4.72176e-07 6.20995e-08)
(0.0007883 -1.5956e-08 6.98576e-08)
(0.00105106 -7.04486e-07 1.63262e-07)
(0.000785805 -5.41071e-07 3.98063e-08)
(0.00078672 -9.8548e-08 5.33029e-08)
(0.00104902 -5.2983e-07 1.76068e-07)
(0.000784391 -4.49126e-07 4.27479e-08)
(0.000785198 5.03303e-07 4.30717e-08)
(0.00104675 -8.83088e-07 1.27564e-07)
(0.000783037 -9.62118e-08 4.13936e-08)
(0.000783732 -2.54897e-07 7.59959e-08)
(0.00104491 -2.92734e-07 1.48856e-07)
(0.000781211 9.24018e-08 4.1016e-08)
(0.000782106 8.01634e-08 5.26761e-08)
(0.00104284 1.51958e-08 1.75504e-07)
(0.000779539 2.1786e-07 5.81141e-08)
(0.000780459 -3.04814e-08 5.53226e-08)
(0.00104049 1.94138e-07 1.75471e-07)
(0.00077812 3.21864e-07 7.06013e-08)
(0.000778909 -1.32378e-08 6.4037e-08)
(0.00103838 3.70229e-07 1.68633e-07)
(0.000776836 6.16999e-07 8.13062e-08)
(0.000777574 -4.21102e-07 5.57183e-08)
(0.00103658 5.2228e-07 1.83375e-07)
(0.000775688 7.95733e-07 5.36888e-08)
(0.000776186 -2.07498e-06 4.25794e-08)
(0.00103509 1.20208e-06 2.27566e-07)
(0.00077387 7.68388e-07 2.04814e-08)
(0.000774609 2.54801e-08 2.34656e-08)
(0.00103313 9.95372e-07 1.12762e-07)
(0.000772051 7.90111e-07 8.82095e-11)
(0.000773023 -1.13194e-07 5.7038e-09)
(0.00103063 1.08977e-06 1.5047e-07)
(0.000770306 4.96412e-07 1.64528e-08)
(0.000771233 -4.16154e-07 1.38316e-08)
(0.00102824 1.04712e-06 9.38843e-08)
(0.000769166 8.74489e-08 4.82892e-08)
(0.00076969 -4.67216e-08 4.37019e-08)
(0.00102639 3.00721e-07 1.76354e-07)
(0.000767718 3.50249e-08 5.12697e-08)
(0.000768442 9.73972e-08 5.0185e-08)
(0.00102472 -6.28887e-08 1.67483e-07)
(0.000766402 9.8517e-08 4.83737e-08)
(0.000767023 1.83536e-08 5.51051e-08)
(0.00102283 1.66032e-07 1.52888e-07)
(0.000764901 7.73863e-08 1.4071e-07)
(0.000765607 -2.56341e-08 4.57324e-08)
(0.00102105 9.25909e-08 1.73074e-07)
(0.000763535 5.04984e-08 1.41186e-07)
(0.000764153 1.18785e-07 1.45423e-07)
(0.0010191 8.17626e-08 1.65589e-07)
(0.000762133 -1.32082e-07 2.69365e-08)
(0.000762635 1.49962e-08 5.06439e-08)
(0.00101729 3.74706e-09 1.65637e-07)
(0.000760417 -2.67221e-07 1.50139e-08)
(0.000761237 1.99394e-06 5.61927e-08)
(0.00101517 -3.99265e-07 9.66672e-08)
(0.000759175 -9.09339e-08 3.70439e-08)
(0.000759971 -1.83739e-07 5.20162e-08)
(0.00101316 -3.55887e-07 1.37911e-07)
(0.000757966 1.8686e-07 7.65267e-08)
(0.000758577 -1.23591e-07 5.45471e-08)
(0.00101154 7.88852e-08 1.67937e-07)
(0.000757131 4.49559e-07 7.04109e-08)
(0.000757383 3.38377e-07 1.33347e-07)
(0.00101034 4.12578e-07 1.31266e-07)
(0.000754573 4.44621e-07 2.8415e-08)
(0.000755912 -1.15516e-06 5.16353e-08)
(0.00100801 7.85636e-07 1.95145e-07)
(0.000753513 1.60137e-07 3.53105e-08)
(0.000754221 3.954e-07 2.56599e-08)
(0.00100557 4.43941e-07 1.28673e-07)
(0.000752506 3.88385e-08 1.36815e-07)
(0.000753023 1.08278e-07 7.44684e-08)
(0.00100423 6.70427e-08 1.61022e-07)
(0.000751154 1.08562e-07 1.31618e-07)
(0.000751887 1.41262e-07 1.3284e-07)
(0.0010026 8.56781e-08 1.64729e-07)
(0.000749505 1.49015e-07 3.47505e-08)
(0.000750397 -7.41666e-08 2.34642e-08)
(0.00100069 1.93724e-07 1.92445e-07)
(0.000748293 2.24615e-07 3.27239e-08)
(0.000748915 -1.99151e-07 4.98386e-09)
(0.000998702 1.81146e-07 1.63748e-07)
(0.000746663 2.75536e-07 4.07903e-08)
(0.000747476 1.6442e-07 2.23553e-08)
(0.000996725 3.9745e-07 1.65962e-07)
(0.000746093 3.75528e-07 6.92197e-08)
(0.000995252 3.24148e-07 1.15053e-07)
(-0.00035825 -0.0082824 2.09367e-05)
(0.00656106 0.00855145 -7.16583e-05)
(0.0127788 -0.00522842 -0.0016278)
(-0.00258428 -0.00119467 -0.000926332)
(0.00509802 -0.0296241 -0.0109995)
(-0.00135556 -0.0118151 0.0294055)
(-0.000307945 0.0141759 -0.0203291)
(0.0117642 5.75382e-05 -0.000401922)
(-0.00556029 -0.00057022 -0.000406737)
(0.00409647 -0.00489547 5.13944e-05)
(0.00626754 0.00489158 -0.000162851)
(0.00801683 0.0137424 -0.000556913)
(0.00806029 -0.00787264 0.000546064)
(-0.00748032 0.00845861 0.00146867)
(-0.0035699 -0.00509362 -0.000723601)
(-0.00246747 -0.0137891 -4.10004e-05)
(0.0119481 -0.0244246 0.00567956)
(0.0132273 -0.0120617 -0.0149315)
(0.00365053 -0.0204959 0.0363223)
(-0.00273952 -0.0150386 -0.0183701)
(-0.00094989 0.00420897 0.00203973)
(-0.00904239 0.027489 -0.000619316)
(-0.0124388 -0.0235308 -0.00075666)
(-0.00481734 0.00942747 -0.000705124)
(-0.00218522 0.0152172 -0.000358439)
(-0.000132159 0.00675108 -7.85424e-05)
(-0.0073066 0.00912146 0.000291036)
(0.000499676 0.0143853 0.00131272)
(0.010594 0.00699521 0.000593729)
(-0.000897334 0.00168836 0.000467975)
(0.00310809 0.00178492 0.000870913)
(0.00584425 0.00482583 0.00199595)
(0.0186926 0.0112388 -3.75146e-05)
(0.000641861 4.64553e-05 6.21102e-05)
(-0.00113528 0.000195649 -4.70859e-05)
(-0.00052307 0.000729559 5.39446e-06)
(-0.00229174 -0.000939217 0.000165917)
(-0.00609662 0.00674294 1.46077e-05)
(0.000598012 -0.000306579 7.02042e-06)
(0.00159703 -0.000196629 -2.44388e-05)
(0.00123304 -0.000618766 2.65405e-05)
(0.00122124 -0.000565147 -6.98147e-06)
(0.00101897 0.000180787 4.34185e-05)
(0.000375238 -2.90502e-05 5.70452e-06)
(0.000503648 -3.13989e-05 -3.19967e-06)
(0.000491177 -4.70694e-05 -3.82638e-08)
(0.000789127 -5.89721e-05 3.35859e-06)
(0.000369462 -3.68195e-05 8.05298e-06)
(0.000694296 -5.78278e-05 1.87765e-05)
(0.000681816 -7.86316e-05 2.32993e-05)
(0.000472378 -3.09113e-05 -2.92199e-07)
(0.000842382 -1.66151e-05 -8.75699e-07)
(0.000917948 -7.80221e-06 -1.3996e-06)
(0.00121944 -2.85721e-05 -1.09365e-06)
(0.000630304 -2.53916e-05 -3.97438e-06)
(0.00064295 -2.19636e-05 -5.0165e-06)
(0.00104171 -4.98921e-05 -4.84746e-06)
(0.00107203 -4.22223e-05 -6.22679e-06)
(0.000828551 -8.95197e-06 -1.79684e-07)
(0.000825849 -1.29149e-06 -5.30364e-07)
(0.00109656 -1.51175e-05 6.18409e-08)
(0.000818191 -5.06536e-06 9.16973e-08)