/*--------------------------------*- C++ -*----------------------------------*\
| =========                 |                                                 |
| \\      /  F ield         | OpenFOAM: The Open Source CFD Toolbox           |
|  \\    /   O peration     | Version:  5.0                                   |
|   \\  /    A nd           | Web:      www.OpenFOAM.org                      |
|    \\/     M anipulation  |                                                 |
\*---------------------------------------------------------------------------*/
FoamFile
{
    version     2.0;
    format      ascii;
    class       volScalarField;
    location    "0.4";
    object      alpha.water;
}
// * * * * * * * * * * * * * * * * * * * * * * * * * * * * * * * * * * * * * //

dimensions      [0 0 0 0 0 0 0];

internalField   nonuniform List<scalar> 
4440
(
0.999994
1
1.00004
1.00006
0.999976
0.620464
-1.65436e-27
2.72957e-17
1.05262e-18
1.58414e-21
6.50531e-26
8.08804e-30
3.28463e-33
1.37585e-36
5.83029e-40
2.69717e-43
7.11778e-47
4.56944e-50
1.84932e-53
5.34192e-57
1.72706e-60
5.53829e-64
5.73791e-67
4.25187e-71
8.53436e-74
8.61345e-78
3.97329e-81
6.10638e-84
5.94129e-86
1.72679e-111
1.05136e-95
2.08549e-98
3.72789e-99
6.1589e-102
1.43171e-106
1.06359e-108
9.45457e-128
9.23298e-131
3.49242e-117
-8.80525e-137
-4.12558e-147
8.53023e-128
1.33259e-145
3.44566e-134
9.78755e-138
1.79322e-140
3.92063e-144
1.81545e-145
3.42771e-147
5.16693e-149
1.00001
1.00001
0.999985
0.999942
1.00004
1
0
-1.87703e-27
-3.08149e-36
4.78781e-24
1.63245e-25
1.29647e-28
1.00721e-33
-2.73691e-51
8.12741e-61
6.43401e-42
5.54058e-44
2.59523e-48
9.18983e-53
3.32552e-56
1.70873e-59
6.16238e-63
2.99577e-66
6.71583e-70
2.64822e-73
1.99838e-76
8.62647e-80
4.98682e-84
8.30928e-86
2.01423e-90
8.55629e-93
1.38777e-95
9.36302e-121
1.90289e-103
1.11515e-107
1.50541e-131
3.90652e-114
3.3926e-115
2.23073e-140
4.91302e-122
4.82483e-125
9.15306e-128
3.33649e-132
2.6013e-134
1.27649e-145
5.49534e-141
1.70411e-145
2.07641e-145
1.13722e-146
3.70729e-148
0.999989
0.999976
0.999992
1
1.00004
1.00003
-2.72764e-18
-1.01748e-19
6.048e-42
4.84985e-21
2.15253e-22
2.60381e-25
9.39411e-30
1.56504e-33
6.51333e-37
2.79121e-40
1.18603e-43
5.22954e-47
1.83811e-50
6.9886e-54
3.88507e-57
1.17686e-60
7.33366e-64
1.75272e-67
8.59432e-71
9.82764e-75
-6.28364e-92
7.74909e-102
7.36499e-84
5.88391e-87
1.10262e-89
-2.73231e-116
8.33457e-98
9.07022e-100
6.51229e-103
1.28604e-108
3.57005e-109
1.01993e-114
1.15412e-131
3.09836e-119
8.19899e-122
3.74782e-125
-2.62417e-144
1.21728e-145
1.68754e-134
3.14931e-140
7.23084e-141
1.65403e-145
6.67346e-146
2.20504e-147
1.00001
0.999996
0.999998
1.00007
0.999993
0.999401
0.0197179
-9.24125e-20
-3.9443e-34
1.53145e-21
6.44307e-23
6.45947e-26
2.55443e-30
4.77857e-34
1.92734e-37
8.52514e-41
3.79412e-44
1.68236e-47
7.29323e-51
2.38661e-54
1.19295e-57
4.02528e-61
2.26434e-64
6.24324e-68
4.66371e-71
3.36086e-74
1.40473e-78
1.21986e-81
4.93361e-84
4.6953e-87
5.60632e-113
1.29766e-93
2.65668e-97
1.32064e-102
1.32851e-103
7.70768e-130
1.04326e-111
5.49986e-113
4.65846e-116
2.72363e-119
4.42886e-123
2.66925e-125
3.22221e-151
1.33313e-132
1.26814e-145
1.36313e-145
1.07722e-143
8.95251e-145
3.78071e-146
1.38649e-147
0.999996
1.00002
0.999999
0.999992
1.00007
1.00039
0.42156
-2.15035e-18
-1.26218e-32
-3.08148e-36
3.99588e-23
1.66208e-24
1.82533e-27
6.34175e-32
1.11172e-35
4.62094e-39
1.96507e-42
8.36237e-46
3.50881e-49
1.49817e-52
6.18129e-56
2.55148e-59
1.07462e-62
4.41071e-66
1.1232e-69
6.15906e-73
1.27731e-76
1.18579e-79
9.98921e-83
4.06664e-86
6.32305e-90
1.33272e-92
4.19461e-95
3.32653e-114
7.4181e-102
9.24922e-128
4.81539e-108
-7.56366e-127
5.14034e-114
-1.21767e-140
6.46413e-123
1.53365e-124
4.1444e-129
2.98695e-130
1.34582e-145
1.65903e-138
1.81911e-139
1.96576e-144
2.55373e-145
1.36408e-146
1.00002
1.00002
0.999993
0.999945
0.999875
1.00053
0.538658
-3.12681e-20
-2.1255e-32
8.42689e-26
3.25921e-22
6.00113e-25
2.36652e-29
5.20346e-33
2.23986e-36
9.74127e-40
4.2118e-43
1.89662e-46
6.6568e-50
3.53726e-53
1.62591e-56
2.5438e-60
2.62726e-63
9.71987e-67
1.44982e-70
1.08078e-73
3.77018e-91
8.96417e-80
2.05429e-83
1.64229e-85
8.97011e-111
5.05901e-92
-1.17183e-117
1.66621e-99
1.01215e-124
2.22661e-108
2.54818e-108
1.00641e-111
-9.23298e-131
6.01814e-118
-4.40263e-137
4.93434e-125
1.99419e-128
2.84773e-131
6.79746e-134
1.08797e-145
6.12278e-140
3.21101e-143
2.76883e-145
1.4437e-146
1.00001
0.999972
1
1.00005
0.99993
0.999358
0.236549
-5.32486e-20
-7.88861e-34
2.83269e-21
1.19161e-22
1.27113e-25
4.53133e-30
8.13595e-34
3.3851e-37
1.44158e-40
6.13994e-44
2.74978e-47
1.01254e-50
4.02997e-54
9.89321e-58
5.96134e-61
3.33329e-64
9.85144e-68
8.56608e-71
1.28689e-88
1.29857e-79
5.66215e-81
7.89059e-84
3.65756e-102
7.999e-90
2.73231e-115
5.74708e-97
5.84417e-102
2.45677e-103
1.83886e-107
-3.0052e-132
7.99517e-113
6.5681e-117
6.72061e-121
3.31175e-148
-3.35894e-142
5.2755e-129
1.23008e-145
7.91002e-137
3.28382e-141
1.0563e-140
2.7654e-144
1.26463e-145
3.47513e-147
0.999986
0.999986
1
1.00003
1.00016
1.0002
0.00110948
-4.91916e-20
-6.16297e-36
3.49674e-21
1.53667e-22
1.85514e-25
6.65129e-30
1.10603e-33
4.59628e-37
1.9615e-40
8.49722e-44
3.35641e-47
1.70928e-50
2.46129e-54
2.38504e-57
1.05203e-60
4.65602e-64
7.15354e-68
2.12096e-70
1.28689e-88
1.09139e-77
7.08543e-81
7.49068e-99
1.03756e-86
1.12126e-112
1.50277e-115
2.49195e-97
2.18362e-101
4.09128e-106
8.58917e-106
9.02262e-111
4.74013e-113
-5.7706e-132
1.10102e-118
3.78269e-122
2.68715e-141
1.31209e-144
1.31812e-132
1.34914e-145
2.52418e-138
1.64986e-141
2.21559e-144
8.31871e-146
2.10662e-147
0.999983
1.00001
0.99999
0.999957
1.00015
1.00009
-2.14879e-20
-1.56556e-27
-5.39498e-43
4.06724e-23
1.71906e-24
2.02287e-27
7.36956e-32
1.22751e-35
4.94765e-39
2.10899e-42
8.31565e-46
3.11861e-49
1.33504e-52
6.28177e-56
1.63117e-59
1.22729e-62
2.20009e-66
1.57409e-69
1.12253e-72
1.08559e-77
1.30574e-79
-3.97292e-104
3.59097e-86
1.90925e-91
1.85566e-93
1.67464e-95
1.0383e-98
-1.62428e-117
2.36908e-107
3.19702e-108
2.74582e-111
7.3508e-117
5.26542e-121
5.90376e-122
9.47442e-126
1.20418e-127
1.87908e-130
1.21547e-145
3.71273e-137
6.106e-140
1.44569e-145
2.88098e-145
9.51645e-147
2.3199e-148
1.00002
1
1.00001
1.00002
0.999729
1
-2.61019e-25
1.2325e-35
4.37974e-19
1.373e-20
4.56837e-24
6.33088e-29
1.76874e-32
7.49169e-36
3.00348e-39
1.31758e-42
5.25931e-46
2.36196e-49
9.04166e-53
3.86673e-56
1.42452e-59
5.51609e-63
2.18294e-66
9.58792e-70
4.10275e-73
1.04193e-76
3.93923e-80
4.19769e-84
7.28317e-86
-1.14299e-103
5.19973e-93
2.6615e-117
2.28649e-98
2.38781e-101
-1.58621e-120
2.43251e-111
7.29204e-111
2.0933e-136
7.35125e-117
1.29571e-143
8.59888e-140
3.4973e-152
1.01212e-130
6.62748e-135
6.31169e-137
6.2704e-140
9.44881e-146
2.40732e-145
3.64398e-147
4.68626e-149
1.00002
1.00003
1.00002
0.999983
0.999959
0.621764
2.94626e-16
2.13208e-16
1.36671e-17
6.12346e-20
9.64997e-24
1.04527e-27
7.31003e-31
5.37465e-34
3.82614e-37
2.71436e-40
1.92231e-43
1.35872e-46
9.58888e-50
6.75034e-53
4.74619e-56
3.32777e-59
2.3289e-62
1.627e-65
1.13444e-68
7.88976e-72
5.47996e-75
3.7963e-78
2.62516e-81
1.81234e-84
1.24879e-87
8.5828e-91
5.89169e-94
4.03575e-97
2.75716e-100
1.88195e-103
1.28043e-106
8.70551e-110
5.90603e-113
3.99728e-116
2.69964e-119
1.82085e-122
1.2254e-125
8.22851e-129
5.51898e-132
3.69267e-135
2.46563e-138
1.6442e-141
1.11677e-144
2.65899e-145
0.999967
0.999975
0.999979
0.999985
1.00002
1
2.42541e-13
1.02367e-19
1.21723e-22
1.02184e-22
5.44151e-24
1.27613e-26
9.64932e-31
3.03634e-36
2.11616e-39
1.49201e-42
3.95822e-44
4.94776e-47
4.91065e-50
2.4036e-53
2.67398e-56
1.88178e-59
1.40804e-62
1.00406e-65
7.32417e-69
5.35192e-72
3.77813e-75
2.71314e-78
2.06744e-81
1.02417e-84
9.20455e-88
6.65991e-91
4.65424e-94
3.10914e-97
2.17262e-100
1.50252e-103
1.0633e-106
7.56963e-110
5.22677e-113
3.59404e-116
2.41714e-119
1.6813e-122
1.1628e-125
7.77214e-129
5.44214e-132
3.59684e-135
2.51549e-138
1.6411e-141
1.13203e-144
2.6639e-145
0.999987
0.999993
1.00004
1.00004
1.00007
0.999994
3.06169e-09
8.03073e-19
2.33654e-20
4.5625e-20
3.1453e-21
9.61605e-24
1.01577e-27
1.70934e-31
1.27532e-34
9.34885e-38
6.66764e-41
4.74678e-44
3.3729e-47
2.39199e-50
1.69335e-53
1.19601e-56
8.42646e-60
5.92906e-63
4.16264e-66
2.91557e-69
2.03925e-72
1.42317e-75
9.90898e-79
6.88848e-82
4.77764e-85
3.30568e-88
2.28415e-91
1.57492e-94
1.0835e-97
7.44266e-101
5.10201e-104
3.48964e-107
2.3832e-110
1.62399e-113
1.10424e-116
7.4979e-120
5.07959e-123
3.43376e-126
2.31799e-129
1.56137e-132
1.04928e-135
7.04192e-139
4.71526e-142
4.54298e-145
1.00002
0.999996
0.99999
1.00002
1.00001
1.00027
0.0273309
6.83359e-17
5.68432e-20
1.47103e-20
6.54472e-22
1.23339e-24
1.4109e-28
4.00202e-32
3.17086e-35
2.39573e-38
1.75117e-41
1.27138e-44
9.18323e-48
6.60933e-51
4.73045e-54
3.38802e-57
2.41502e-60
1.71883e-63
1.21908e-66
8.63355e-70
6.08974e-73
4.2873e-76
3.01811e-79
2.11834e-82
1.48237e-85
1.0366e-88
7.22738e-92
5.02486e-95
3.49263e-98
2.41522e-101
1.67083e-104
1.15211e-107
7.93677e-111
5.43448e-114
3.72733e-117
2.55277e-120
1.73878e-123
1.18477e-126
8.05361e-130
5.46091e-133
3.69971e-136
2.49853e-139
1.68146e-142
3.3577e-145
0.999994
0.999987
0.999983
0.999975
1.00002
1
0.423777
1.03851e-15
7.59639e-19
5.98461e-21
4.92465e-21
7.5495e-23
1.51502e-26
1.08743e-30
7.77488e-34
5.78279e-37
4.17096e-40
3.00156e-43
2.15564e-46
1.54408e-49
1.10418e-52
7.87799e-56
5.60623e-59
3.98351e-62
2.82366e-65
1.9967e-68
1.40955e-71
9.92818e-75
6.97449e-78
4.893e-81
3.4247e-84
2.39124e-87
1.66681e-90
1.15925e-93
8.04245e-97
5.57101e-100
3.85021e-103
2.65452e-106
1.82755e-109
1.2552e-112
8.60005e-116
5.88357e-119
4.01651e-122
2.73532e-125
1.86006e-128
1.26198e-131
8.542e-135
5.77281e-138
3.89303e-141
1.79919e-144
0.999974
1.00001
1.00001
0.99997
0.999913
0.998991
0.540475
1.03058e-15
7.52799e-19
5.97073e-21
4.91887e-21
7.28951e-23
1.37369e-26
1.00473e-30
7.22711e-34
5.36757e-37
3.86919e-40
2.78299e-43
1.99787e-46
1.43041e-49
1.02241e-52
7.29106e-56
5.18669e-59
3.68354e-62
2.60999e-65
1.8448e-68
1.30188e-71
9.16512e-75
6.43661e-78
4.51303e-81
3.1574e-84
2.20405e-87
1.53608e-90
1.06797e-93
7.40697e-97
5.12944e-100
3.54404e-103
2.44281e-106
1.68114e-109
1.15433e-112
7.90709e-116
5.4082e-119
3.69085e-122
2.51285e-125
1.70827e-128
1.15871e-131
7.8406e-135
5.29817e-138
3.57203e-141
1.67278e-144
1.00002
1.00003
1.00001
1.00002
0.999983
1.00001
0.251754
5.83689e-17
6.32465e-20
4.28165e-20
2.36825e-21
5.88275e-24
6.28266e-28
1.26146e-31
9.50452e-35
6.95491e-38
4.95868e-41
3.53177e-44
2.51038e-47
1.78059e-50
1.26109e-53
8.9118e-57
6.28243e-60
4.42201e-63
3.10605e-66
2.17649e-69
1.52259e-72
1.06296e-75
7.40333e-79
5.14838e-82
3.57232e-85
2.47258e-88
1.70911e-91
1.1787e-94
8.11096e-98
5.57314e-101
3.82107e-104
2.61362e-107
1.78528e-110
1.21681e-113
8.2739e-117
5.61792e-120
3.80645e-123
2.57322e-126
1.73712e-129
1.17004e-132
7.86491e-136
5.27783e-139
3.5343e-142
4.08564e-145
1.00001
0.999981
0.999986
1.00001
1.00011
1.00024
0.00372943
7.21444e-19
1.90974e-20
3.72081e-20
2.55782e-21
7.80596e-24
8.22271e-28
1.38256e-31
1.03036e-34
7.54478e-38
5.37675e-41
3.82641e-44
2.71785e-47
1.92632e-50
1.36322e-53
9.62518e-57
6.78e-60
4.76881e-63
3.34628e-66
2.34312e-69
1.63817e-72
1.14276e-75
7.95294e-79
5.52694e-82
3.83278e-85
2.65173e-88
1.83181e-91
1.26281e-94
8.68536e-98
5.96485e-101
4.08749e-104
2.79448e-107
1.90785e-110
1.29971e-113
8.8349e-117
5.99734e-120
4.06208e-123
2.74512e-126
1.85253e-129
1.24749e-132
8.38141e-136
5.62337e-139
3.76455e-142
4.17983e-145
0.999955
0.999945
1.00002
1.00003
1.00015
1.00018
4.48221e-09
1.81151e-19
3.46113e-22
4.41953e-22
2.95509e-23
8.84057e-26
9.69218e-30
1.6283e-33
1.16377e-36
8.30051e-40
5.81167e-43
4.08702e-46
2.87265e-49
2.02488e-52
1.42142e-55
9.98902e-59
7.019e-62
4.90348e-65
3.43813e-68
2.39539e-71
1.6649e-74
1.15781e-77
8.03978e-81
5.56949e-84
3.85315e-87
2.64664e-90
1.82308e-93
1.2506e-96
8.57083e-100
5.87129e-103
4.00927e-106
2.72844e-109
1.85548e-112
1.26177e-115
8.53445e-119
5.7752e-122
3.89912e-125
2.62574e-128
1.76533e-131
1.18519e-134
7.93591e-138
5.34413e-141
3.54661e-144
2.73452e-145
1.00001
1.00001
0.999996
0.999984
0.999757
1
1.63745e-15
6.84094e-20
5.75451e-18
2.96843e-19
2.65334e-22
6.98323e-27
2.59341e-30
2.00172e-33
1.41754e-36
9.95662e-40
6.98643e-43
4.89581e-46
3.42348e-49
2.38848e-52
1.66437e-55
1.15752e-58
8.03241e-62
5.56531e-65
3.84722e-68
2.65371e-71
1.82825e-74
1.25679e-77
8.61942e-81
5.90385e-84
4.03466e-87
2.75159e-90
1.87433e-93
1.27414e-96
8.64061e-100
5.85074e-103
3.95357e-106
2.6664e-109
1.79583e-112
1.2067e-115
8.09011e-119
5.41749e-122
3.62002e-125
2.41361e-128
1.60721e-131
1.06808e-134
7.0837e-138
4.69171e-141
3.1168e-144
2.73077e-145
1.00002
1.00002
0.999971
0.99994
1.00007
0.621905
5.47255e-17
2.77173e-17
1.09731e-18
1.69267e-21
7.04494e-26
8.65551e-30
3.49086e-33
1.48314e-36
6.31441e-40
2.73695e-43
1.13596e-46
4.92942e-50
2.26182e-53
9.95557e-57
4.40113e-60
2.51948e-63
1.12267e-66
4.6326e-70
2.72046e-73
1.95499e-76
2.795e-79
3.97777e-83
6.3054e-86
1.03008e-89
4.30449e-92
3.22974e-95
9.23607e-99
1.03919e-101
2.98577e-105
5.1001e-108
4.94673e-111
1.15249e-114
5.35724e-117
6.12355e-121
1.32143e-124
6.9459e-128
1.30954e-130
1.30603e-133
5.39404e-137
8.35136e-140
2.05336e-143
2.64591e-145
7.52279e-147
1.3098e-148
0.99996
0.999989
0.999994
1
1.00009
1
1.02342e-13
-2.1151e-28
-7.70373e-37
2.87488e-23
1.06938e-24
1.07988e-27
1.39066e-32
0
-1.06911e-53
-5.22025e-57
2.51753e-44
7.51259e-47
6.50374e-52
9.64263e-56
4.43028e-59
2.00036e-62
8.7747e-66
3.72379e-69
1.55833e-72
7.66541e-76
3.79799e-79
1.51166e-82
1.83086e-85
6.49179e-89
5.07555e-92
3.13168e-95
2.36562e-98
1.37763e-101
7.25925e-105
4.37071e-108
2.9611e-111
1.00354e-114
1.04777e-117
9.66486e-121
4.27771e-124
4.32395e-127
2.75598e-130
2.12087e-133
1.26157e-136
7.44902e-140
5.91003e-143
2.82315e-145
1.96158e-146
6.77554e-148
0.999994
1.00001
1.00004
1.00002
0.999989
0.999955
2.17644e-09
-2.26011e-20
3.90029e-42
2.8142e-20
1.48265e-21
2.10237e-24
7.78935e-29
1.0343e-32
4.22213e-36
1.79408e-39
7.61203e-43
3.26771e-46
1.38016e-49
5.75213e-53
2.45991e-56
1.02761e-59
4.43281e-63
1.91216e-66
8.35319e-70
3.62579e-73
1.52555e-76
7.19339e-80
5.18113e-83
7.60264e-86
2.27649e-89
7.93764e-93
6.72765e-96
4.8572e-99
1.61334e-102
1.34172e-105
6.60243e-109
4.2922e-112
1.87965e-115
2.1377e-118
2.07958e-121
1.13965e-124
9.41062e-128
1.31917e-130
2.23823e-134
1.05813e-137
1.2617e-140
6.81221e-144
2.12014e-145
7.84e-147
1
1.00001
1.00001
0.999981
0.999948
1.00024
0.0264177
-3.23757e-20
-3.9443e-34
1.35021e-21
5.71135e-23
5.67317e-26
2.17568e-30
4.48488e-34
1.9199e-37
8.4051e-41
3.6279e-44
1.58229e-47
7.07478e-51
3.23974e-54
1.71281e-57
6.14684e-61
2.88977e-64
2.46357e-67
1.30074e-70
4.93134e-74
5.40612e-77
3.51212e-80
1.47949e-83
8.0814e-87
3.05856e-90
4.98385e-93
2.37845e-96
1.60273e-99
2.07594e-102
7.68479e-106
2.07833e-109
1.95195e-112
2.13114e-115
1.43667e-118
6.62606e-122
7.91265e-125
6.75266e-128
2.43277e-131
2.04112e-134
7.73035e-138
6.00432e-141
7.09582e-144
1.92799e-145
7.17772e-147
0.999998
0.999999
0.999972
0.999976
1.00009
1.00005
0.423525
-8.42424e-20
2.52435e-32
-3.0815e-36
8.70471e-23
7.50743e-25
5.37951e-29
5.19972e-33
2.19252e-36
9.56914e-40
4.20071e-43
1.86712e-46
8.59577e-50
3.77693e-53
1.6376e-56
8.88478e-60
4.74363e-63
2.74976e-66
1.33154e-69
8.54473e-73
9.38625e-76
5.58885e-79
2.33516e-82
1.00887e-85
1.18995e-88
1.07177e-91
5.57844e-95
1.88024e-98
1.77289e-101
1.22945e-104
1.19255e-107
5.91961e-111
3.76315e-114
4.04337e-117
1.00749e-120
1.38413e-123
6.49942e-127
6.08344e-130
2.33467e-133
1.35312e-136
2.10416e-139
9.2933e-143
3.10721e-145
2.25653e-146
0.999974
0.999986
0.999991
1.00001
1.00001
0.999993
0.540318
-2.18241e-20
-1.9907e-42
0
1.48022e-22
7.29873e-25
2.6949e-29
4.56932e-33
1.96447e-36
8.59691e-40
3.74612e-43
1.6929e-46
7.57762e-50
3.60121e-53
1.71848e-56
8.94718e-60
3.34225e-63
2.52681e-66
1.32709e-69
6.4949e-73
3.6669e-76
2.22894e-79
1.17296e-82
2.1858e-85
1.68878e-88
7.44087e-92
2.78328e-95
2.30571e-98
2.24669e-101
8.23048e-105
8.52928e-108
5.14443e-111
1.45995e-114
1.59245e-117
1.64825e-120
1.40235e-123
5.04738e-127
3.12984e-130
2.39559e-133
1.15546e-136
1.45835e-139
1.23388e-142
3.00074e-145
2.27023e-146
1.00001
1.00002
1.00001
1.00003
0.999931
0.999791
0.247221
-6.03634e-21
-3.9443e-34
3.26657e-21
1.37493e-22
1.48332e-25
5.29641e-30
9.48504e-34
3.95788e-37
1.69301e-40
7.2117e-44
3.14291e-47
1.45103e-50
5.72368e-54
2.65107e-57
1.11962e-60
5.11042e-64
2.43868e-67
1.51983e-70
7.82597e-74
2.75582e-77
2.3542e-80
2.54335e-83
3.29131e-86
1.57154e-89
3.29086e-93
2.45694e-96
1.40537e-99
1.16101e-102
7.44152e-106
3.95492e-109
2.82641e-112
1.93968e-115
2.87208e-118
6.27307e-122
6.50702e-125
4.88325e-128
3.59318e-131
2.05652e-134
5.89487e-138
1.49674e-140
9.01493e-144
2.23234e-145
8.34366e-147
1
1
1.00002
1.00001
0.999976
1.00023
0.00335037
-2.98886e-21
6.16299e-36
2.66806e-21
1.16513e-22
1.39883e-25
5.00409e-30
8.39319e-34
3.49079e-37
1.49329e-40
6.78849e-44
2.92674e-47
1.31383e-50
5.58605e-54
2.35221e-57
1.00143e-60
4.90358e-64
1.93533e-67
2.05852e-70
6.21466e-74
3.28144e-77
2.86709e-80
2.45217e-83
1.62432e-86
7.07699e-90
4.19605e-93
2.49335e-96
6.94132e-100
5.44202e-103
8.05653e-106
4.24494e-109
5.83184e-112
1.10949e-115
1.92616e-118
6.76517e-122
7.19593e-125
3.26702e-128
2.21332e-131
1.37709e-134
8.20278e-138
1.37604e-140
5.17282e-144
2.02198e-145
6.82029e-147
0.999966
0.99997
1.00003
0.999971
1.00007
1.00008
2.56067e-09
-8.96394e-28
-1.54074e-36
1.16773e-23
5.76587e-25
8.63581e-28
3.79717e-32
5.15432e-36
2.00337e-39
8.41726e-43
3.66872e-46
1.53317e-49
7.55695e-53
2.99627e-56
1.20299e-59
6.66675e-63
3.0667e-66
1.41865e-69
1.34584e-72
4.95906e-76
3.98508e-79
1.63471e-82
1.55635e-85
1.54313e-88
1.04806e-91
2.36378e-95
7.3374e-98
2.14442e-101
1.05693e-104
1.04193e-107
6.84318e-111
2.06553e-114
2.0183e-117
1.32847e-120
1.10739e-123
3.85664e-127
3.06493e-130
2.18601e-133
2.70164e-136
1.68762e-139
9.06487e-143
5.03258e-145
2.03635e-146
5.75801e-148
1
1.00002
0.999991
1.00002
0.999864
1
4.7076e-16
-1.66965e-39
7.1912e-19
1.7763e-20
3.71577e-24
5.35247e-29
1.67683e-32
7.1001e-36
2.97364e-39
1.34352e-42
5.27091e-46
2.28086e-49
9.63883e-53
4.22869e-56
1.69077e-59
7.32684e-63
3.14931e-66
1.38548e-69
8.63673e-73
4.25291e-76
2.03151e-79
9.97714e-83
9.84398e-86
2.67102e-89
2.38613e-92
1.88059e-95
5.27061e-98
1.18874e-101
8.88e-105
1.07441e-107
6.99092e-111
4.0891e-114
6.64503e-117
4.35531e-120
9.47224e-124
1.312e-126
3.41468e-130
1.92016e-133
1.33011e-136
5.96596e-140
4.17694e-143
3.09455e-145
7.87821e-147
1.23833e-148
-6.30977e-23
1
-4.04035e-20
0.621859
6.79712e-11
1
3.95639e-10
-8.67362e-22
0.999993
0.00713961
1
5.60064e-08
0.999998
0.0118115
0.0296635
0.999975
0.484163
1.0001
0.0359639
1.00045
0.486126
0.648545
0.999318
1
1.00062
0.649825
1.00005
1
1
1.00045
1.00001
1.00005
1
0.999936
1
1.00001
1.00027
1
0.998991
1.00001
0.999586
1
1
0.999364
0.647522
1.00022
0.998517
1.00042
0.648595
0.487225
0.999996
0.0295228
1.00061
0.489044
1.00011
0.0358307
0.00711339
1
1.99451e-23
1.00009
0.0118517
1
5.57453e-08
-4.61167e-20
0.617934
-5.9444e-23
1
3.66844e-10
0.619295
6.90812e-11
1.8292e-10
1
9.94347e-10
0.621811
1.53633e-10
1
1.03861e-09
8.98667e-08
1.00001
0.0125494
1
8.97386e-08
1
0.0125661
0.0367163
1.00018
0.486216
0.999928
0.0366931
1.00018
0.486121
0.649733
1.00021
0.986512
1.00071
0.649548
1.00001
1
1
1.00019
1
0.999726
1
1.00006
1
1.00004
0.999399
1
1.00001
1.00001
0.999655
1
0.989964
1.00048
0.648277
1.00038
0.997604
1.00064
0.648367
0.489116
1.00019
0.036772
1.0001
0.489155
1.00015
0.0366596
0.0125863
1
8.90938e-08
1.00034
0.0126501
1
8.90642e-08
1.54708e-09
0.61904
1.56015e-10
1
9.58363e-10
0.619121
1.56125e-10
8.65361e-11
1
3.83456e-10
0.620418
-5.92222e-23
1
-4.57784e-20
5.62425e-08
1
0.0118002
1
-2.23163e-22
0.999988
0.00713398
0.03592
1.00021
0.48601
0.999993
0.0296376
1.0004
0.483876
0.649721
1.00012
0.987978
0.999662
0.648259
0.999525
1
1
1.00009
1
1.00023
1
0.999857
1
1.00003
0.999641
1
0.999992
1
1.00055
1
0.993223
1.00055
0.648326
0.999713
1
0.999766
0.647274
0.489042
1.00015
0.0359779
1.00004
0.487068
1
0.0295158
0.011875
1
5.56775e-08
0.999994
0.00714623
1
-2.92343e-22
7.47585e-10
0.619144
6.90977e-11
1
-3.62888e-20
0.61771
-5.75845e-23
1
0.999912
1
0.999717
1
0.999859
1.00006
0.0321133
0.0132321
0.686115
0.621313
0.687138
0.0286312
0.0163506
1.2887e-38
-1.32349e-26
3.37145e-38
6.93163e-17
6.58706e-19
7.53731e-16
6.15006e-18
1
1.00002
1
0.999994
1.00001
0.999867
0.999958
0.861432
0.582759
1
1
0.582924
1
0.860547
-3.23117e-30
-2.01031e-20
-1.97576e-23
4.09824e-12
7.53731e-16
2.59605e-09
3.44232e-13
1.00002
1.0002
1.00016
1.00077
1.00031
1.00012
1.0001
1.00006
1
1.00034
1.00001
1
1.00026
1.00003
-4.33153e-20
0.00100008
-4.14241e-19
2.23768e-09
7.38918e-13
0.00310876
7.38902e-13
0.999915
0.999911
0.999861
1.00002
1.00001
1.00008
0.999915
1
0.999984
0.999827
0.999623
0.999942
0.999997
0.999875
-1.37412e-17
0.23739
-2.90168e-16
0.0264123
5.86513e-11
0.238776
5.86529e-11
1.00006
0.999902
0.99988
0.999607
0.999652
0.999899
1
0.999514
0.99981
0.999
0.999303
0.999301
0.999127
0.998908
-3.46868e-17
0.539694
-8.0448e-18
0.423703
9.99581e-10
0.541564
9.99589e-10
1.00008
1.00001
1.00019
1.00008
1.00038
0.999977
1.00009
1.00016
1.00115
1.00109
1.00089
1.001
1.00046
0.999912
-9.13374e-19
0.422398
-2.91349e-17
0.540525
9.84177e-10
0.424434
9.84177e-10
0.999845
0.999945
1.00003
1.00037
1.00012
1.00009
1.00002
0.999978
0.999363
1.00029
1.00018
0.999916
1.00008
0.999327
-9.61133e-17
0.0198248
-9.77033e-17
0.240062
5.77782e-11
0.0266535
5.77782e-11
0.999998
0.999996
0.999785
0.999693
0.999591
0.999922
0.999913
0.999997
1.00001
0.998968
0.998915
0.999992
0.999277
0.999999
-1.85067e-17
-2.82591e-16
-1.22608e-18
0.00338879
5.2606e-13
9.93586e-08
5.26223e-13
1.00011
1.00011
1.00001
1.00017
1.00015
1.00003
1.00002
0.995604
1
1
1.00001
1
1.00001
0.998281
-1.6573e-23
1.30536e-24
-1.11074e-25
2.62476e-09
3.50767e-13
4.12888e-12
7.19413e-16
0.999994
0.999876
1.00001
0.999927
1.00002
0.999928
1.00001
0.104665
0.326637
0.864364
1
0.326441
0.864608
0.102389
-7.91284e-34
-2.08585e-25
-1.97215e-34
7.19413e-16
9.96758e-20
6.88724e-17
9.96758e-20
1.00001
0.999903
1.00016
0.999644
1
0.999945
1.00009
0.0373424
0.0208397
0.687802
0.621885
0.0367686
0.687951
0.0213927
6.9975e-17
2.26242e-15
1.21144e-16
3.00482e-16
5.53645e-17
2.42163e-15
1.2114e-16
1.00001
0.999915
1
0.999742
0.999945
0.999862
0.999994
0.862208
0.583654
1
1.00002
0.861249
0.583239
1.00001
2.14752e-15
4.53871e-09
2.40394e-13
7.21333e-12
2.30674e-15
4.53976e-09
1.53393e-12
1
1.0001
1.00005
0.999959
0.999846
1.00007
1.00001
1.00001
1
0.999857
0.999969
1
1
1.00003
3.2309e-12
0.00343755
3.23083e-12
3.1267e-09
3.2309e-12
0.00344281
3.23089e-12
1.00002
1.00004
0.999914
1.00017
1.00011
1.00007
0.999943
0.999736
1.00009
0.999608
1.00059
0.999811
1.00031
0.999643
2.98467e-10
0.25756
2.15137e-10
0.0273136
2.98527e-10
0.238641
2.15137e-10
1.00001
0.999979
1.00006
0.999561
1.00003
0.999992
1.0001
1.00026
1.00017
1.00047
0.999887
1.00023
0.999973
1.00056
3.53928e-09
0.541592
3.53929e-09
0.423779
3.53928e-09
0.5415
3.53929e-09
1.00005
0.999893
1.00001
1.00024
1.00003
0.999909
0.999985
1
1.00016
1.00028
0.99958
1.00025
1.0001
1.00024
3.49367e-09
0.424549
3.49367e-09
0.540417
3.49367e-09
0.424542
3.49367e-09
0.999972
1.00002
0.999996
1.00007
0.999981
1.00005
1.00001
0.999233
0.999631
0.998793
1.0003
0.999335
0.999606
0.999244
2.14857e-10
0.0275848
2.14857e-10
0.241485
2.14857e-10
0.0275656
2.14857e-10
0.999973
1.00004
1
0.999271
0.999809
0.999964
1
1.00015
1.00017
1.00009
1.00014
1.00011
1.00011
1.00016
2.62965e-12
1.26707e-07
2.98735e-12
0.00372974
2.62966e-12
1.26202e-07
2.99394e-12
1.00005
0.999942
0.999993
1.00059
1.00002
1.00001
1.00001
0.992763
1
1.00001
1.00024
0.989408
1
1.00004
1.55036e-12
7.33546e-12
1.63688e-15
4.59589e-09
1.55036e-12
7.30139e-12
2.04108e-15
1.00008
0.999919
1.00006
1.00093
1.00006
1.00001
1.00001
0.109191
0.327543
0.864549
1
0.107967
0.327099
0.86352
8.26012e-19
2.20697e-16
8.26012e-19
2.04165e-15
8.26012e-19
2.20682e-16
8.26012e-19
1.00001
1.00002
1.00022
0.999987
1
0.999974
0.99999
0.0332871
0.0198385
0.688154
0.621201
0.0357091
0.687351
0.0178188
6.39015e-19
7.35542e-16
6.14609e-18
-4.59228e-27
1.26763e-38
-1.66568e-25
1.5765e-33
1.00005
0.999928
1.00001
1.00028
1.00001
0.999933
0.999815
0.861537
0.583628
1
1.00002
0.861676
0.582706
1.00002
7.35542e-16
2.5971e-09
1.02342e-13
1.52793e-24
-4.20497e-26
-1.59448e-20
-7.17248e-24
0.999816
0.999978
0.999973
1.00052
0.999924
0.999977
1.00007
1
1
0.999967
0.999989
1
1.00001
0.99981
7.38581e-13
0.00310335
7.3858e-13
-1.4214e-19
-1.7379e-20
0.000999766
-1.54242e-19
1.00004
1.00004
0.999938
0.999889
1.0001
1.00003
1.00011
0.999618
1.00009
0.999703
1.00042
0.999762
1.00015
0.999374
5.80095e-11
0.255367
5.80097e-11
0.019639
-8.68707e-19
0.236901
-4.31616e-17
1.00023
1.00008
1.00015
1.00003
1.00018
1.00011
0.999876
1
0.999902
1.00041
1.00008
1
0.999754
1.00113
9.99236e-10
0.541446
9.99236e-10
0.421322
-6.95342e-18
0.539395
-5.56347e-18
0.99989
1
1
1.00002
0.99978
0.999964
1.00005
1.00008
1.00011
1.00016
0.999588
0.999872
1.00018
1.00011
9.8405e-10
0.424314
9.8405e-10
0.538322
-8.5933e-19
0.422168
-9.09988e-19
0.999956
1.00006
1.00002
1.00023
1.00004
1.00004
1.00018
0.999738
0.999757
0.999283
1.00015
0.999625
0.999768
0.999283
5.83731e-11
0.0267036
5.83732e-11
0.236672
-1.54227e-18
0.0198305
-5.18232e-19
1.00013
0.999929
0.999998
0.999976
1.00013
0.999969
0.999815
1
1.0001
0.999833
1.00015
1
1.00011
0.999832
5.17828e-13
9.96522e-08
5.1783e-13
0.00109829
-6.4063e-20
-7.15011e-18
-3.02024e-20
0.999819
0.999881
0.999986
1.00014
0.999779
0.999814
0.999991
0.995131
1
1
0.999974
0.990516
1
1
3.43802e-13
4.14088e-12
4.7076e-16
-2.223e-20
-1.31767e-23
-2.03809e-24
-8.97167e-26
1.00011
1.00013
1.00003
0.999747
1
1.00017
1.00001
0.106346
0.327756
0.864404
1
0.107547
0.325928
0.863369
6.84094e-20
6.88691e-17
6.84094e-20
-1.89389e-25
-7.90981e-34
-1.97057e-27
-9.86076e-35
3.73419e-08
-1.29667e-19
-5.00275e-20
8.97796e-12
8.97795e-12
-9.19821e-18
1.76192e-08
0.10736
0.863965
0.32304
1
0.864518
0.321974
0.105344
1.18342e-07
-6.29991e-21
-2.41912e-17
8.42202e-11
8.42202e-11
4.22842e-07
-1.60724e-16
0.0335369
0.621117
0.0199175
0.687817
0.687045
0.0359127
0.0179009
7.83942e-08
6.79712e-11
6.34926e-08
6.79709e-11
6.79708e-11
1.2221e-07
3.91452e-08
0.108779
1
0.864568
0.325054
0.863754
0.321986
0.110205
2.44376e-07
3.95639e-10
3.95638e-10
1.11207e-06
3.95639e-10
8.46505e-07
3.68366e-07
0.0995312
0.0101238
0
1.18459e-08
0.0123955
1.18459e-08
0.0989192
0.995565
1.00001
1
1.00002
1.00001
1
0.999264
0.25102
-7.58477e-20
0.566693
0.0094394
1.0001e-06
0.566607
0.245855
0.860678
1
0.583678
1.00001
0.5829
1
0.862432
0.101111
5.60064e-08
0.0150395
5.60064e-08
0.0134857
5.60064e-08
0.100936
0.994337
0.999993
1
1
1.00001
1
0.992768
0.252939
0.0106177
2.72193e-06
0.567392
2.72193e-06
0.566519
0.256183
0.898712
0.683932
0.137057
0.0329325
0.684412
0.139543
0.899295
1
1.00005
0.999999
1.00007
1.00005
1.00001
1
1
0.25462
1
0.485014
0.251209
1
1
1.00008
1.00007
1.00002
0.999859
1.00001
1.0001
1
0.898285
0.0343357
0.685296
0.141931
0.684161
0.140606
0.898801
1
1.00056
1.00006
1.00005
1.00014
1.00008
1.00001
0.998081
0.485172
0.257664
1
0.25474
1
1
1
1
0.747018
0.649343
1
0.748177
1
0.999941
1.00023
0.999349
1.00006
0.999923
0.999803
0.999556
1
0.923658
1
1
0.923036
1
1
0.999989
1.00004
1.00026
0.999906
1.00005
1.00006
0.999901
1.00001
0.649183
1.00004
0.748916
1.00001
0.747857
1
0.999484
1.00023
0.999172
0.999939
0.999173
0.999919
0.999423
1
0.993169
0.921829
1
0.923358
1.00002
1
0.99999
0.99999
1
1
0.999983
1
0.999981
1.00004
0.999863
1.00052
1.00042
1.00012
1.00018
0.999367
1
1
1.00004
1.00001
1
1.00004
0.999932
0.999949
0.999647
1.00037
1.00106
0.999764
0.999955
1.00027
1
1
1.00006
1
0.999993
1.00001
1.00003
1.00002
0.999737
1.00028
0.999736
1.00013
0.999736
1.00006
0.999997
1
1
0.999926
1.00001
0.999922
1.00001
1.00002
1.00009
1
1.00003
1.00014
1
0.999972
0.999852
1.00043
1.00011
0.999985
1.00011
1
0.9983
0.999998
1
1.00001
1
1
1
0.999972
0.99991
0.999609
1.00006
1.00004
1.00005
1.00003
1.00033
0.999973
1.00002
1.00004
1.00001
1.00003
1
1.00007
1.00017
0.999535
1.00013
0.999767
1.00056
0.999654
1.00008
1.00004
1
1
0.99999
1
0.999976
1.00001
1
0.999998
0.924421
1
1
0.924026
1
1.00003
1.00019
0.999995
0.99979
1.00016
1.00001
0.999993
1.00001
0.747674
1
0.648179
0.748775
1.00001
1.00001
0.999743
1.00002
0.999765
0.998793
0.99996
0.999273
0.999436
1
0.995794
1
0.923384
1
0.923629
1
0.999868
1.00035
0.999872
1.00017
0.999774
1.00017
0.999899
1
0.64784
0.749509
1.00004
0.748602
1.00007
1
1
1
0.260478
0.488047
1
0.260917
1
1.00014
0.99959
1
1.0001
1.00033
1.00004
1
0.910368
0.139108
0.683268
0.0327721
0.140868
0.68357
0.910512
1.00002
0.999761
1.00029
1.00031
1.00003
0.999731
1.00026
0.999146
0.488197
1.00003
0.264793
1
0.262595
0.997975
1.00069
1.00021
1.0007
1.00007
1.00109
1.00009
1.00051
0.906721
0.0341984
0.143559
0.684432
0.14523
0.683316
0.909672
0.249681
0.56616
-7.69448e-20
0.00944092
0.566117
9.96466e-07
0.24597
0.861379
1
0.581962
1
1
0.582176
0.861122
0.098803
-3.98442e-21
0.0100272
1.17637e-08
1.17637e-08
0.0122673
0.0975235
0.992575
1.00005
1
1.00006
1
1.00003
0.993308
0.254113
0.0106327
0.566895
2.71615e-06
0.565954
2.71615e-06
0.25416
0.861669
1
1.00001
0.582919
1
0.582072
0.861956
0.099214
5.57453e-08
5.57453e-08
0.0148964
5.57453e-08
0.0134056
0.100686
1.15664e-07
-2.46799e-17
-4.78246e-21
8.25675e-11
3.85036e-07
8.25675e-11
-1.6258e-16
0.032975
0.689597
0.0126353
0.61878
0.691134
0.0298062
0.0157064
3.83991e-08
-1.92351e-20
-7.04947e-20
8.86379e-12
8.86377e-12
-9.75238e-18
1.69138e-08
0.105429
1
0.330153
0.864418
0.326536
0.864564
0.107617
2.39056e-07
3.66845e-10
1.09527e-06
3.66843e-10
7.53542e-07
3.66845e-10
3.62164e-07
0.0343485
0.618712
0.691708
0.0192545
0.691008
0.0368359
0.0171878
8.04144e-08
6.90812e-11
6.90809e-11
6.14239e-08
6.90807e-11
1.25461e-07
3.76158e-08
1.72501e-07
8.22945e-08
1.8292e-10
1.8292e-10
1.54547e-07
1.8292e-10
9.29479e-08
0.111589
0.86402
0.326151
1
0.111014
0.863948
0.323385
5.05231e-07
9.94348e-10
1.36121e-06
9.94348e-10