/*--------------------------------*- C++ -*----------------------------------*\
| =========                 |                                                 |
| \\      /  F ield         | OpenFOAM: The Open Source CFD Toolbox           |
|  \\    /   O peration     | Version:  5.0                                   |
|   \\  /    A nd           | Web:      www.OpenFOAM.org                      |
|    \\/     M anipulation  |                                                 |
\*---------------------------------------------------------------------------*/
FoamFile
{
    version     2.0;
    format      ascii;
    class       surfaceScalarField;
    location    "0.4";
    object      alphaPhi10;
}
// * * * * * * * * * * * * * * * * * * * * * * * * * * * * * * * * * * * * * //

dimensions      [0 3 -1 0 0 0 0];

internalField   nonuniform List<scalar> 
12790
(
1.43487e-09
2.2981e-12
-5.50221e-11
1.40735e-09
-6.04405e-12
1.66924e-11
1.38505e-09
2.47667e-11
5.03602e-11
2.59283e-10
-1.74564e-11
3.07879e-11
2.17654e-10
4.31909e-10
4.29045e-10
3.1361e-11
8.8918e-12
2.90854e-11
5.7536e-11
2.93492e-11
3.30477e-11
1.26409e-09
1.85058e-11
2.04131e-12
1.35713e-10
2.23366e-22
3.59869e-21
-3.6638e-23
-1.05738e-22
-1.16452e-21
9.30331e-21
-1.16923e-20
5.61005e-26
9.0925e-24
-8.44412e-27
7.08049e-27
-8.36059e-25
1.31332e-25
-7.83819e-24
5.86578e-29
-8.40781e-28
-8.9848e-29
5.12633e-33
-3.55728e-32
2.54556e-33
4.93508e-37
-7.53387e-36
3.69068e-35
1.88562e-40
-1.69731e-39
-2.32769e-38
7.91296e-44
-3.25061e-43
-7.48337e-42
3.34236e-47
-7.04362e-47
-9.93763e-47
1.41488e-50
-1.54678e-50
4.73817e-48
5.96785e-54
-7.94967e-55
3.08142e-50
2.4822e-57
-8.567e-57
8.906e-56
1.06975e-60
-8.51271e-61
-1.99761e-57
4.44133e-64
-2.21161e-64
8.2151e-61
1.82225e-67
-9.27335e-68
6.81972e-64
6.00671e-70
-1.5139e-71
4.10101e-67
3.1848e-74
-5.18788e-75
-1.02506e-70
1.67736e-77
3.06298e-78
-1.5595e-73
-4.27418e-80
3.70691e-81
1.54741e-77
-1.13745e-82
1.79363e-84
-8.53486e-80
-6.28684e-86
3.30625e-88
-3.33308e-83
3.13783e-89
2.6012e-91
7.36475e-86
-5.70315e-93
1.27363e-94
2.28857e-89
-2.38729e-95
-1.13927e-97
3.88577e-92
-5.4624e-99
2.65003e-101
1.68877e-95
-2.01015e-101
-2.32248e-104
-3.1272e-99
1.98325e-104
2.48932e-107
-1.75683e-101
3.58336e-108
-6.06864e-112
1.02173e-106
-3.95552e-111
-1.61641e-113
5.12197e-108
-1.5929e-114
3.9324e-118
4.61017e-111
1.61686e-117
-1.41217e-121
-8.68528e-115
4.40025e-123
-2.88251e-124
-1.85715e-117
-3.43772e-126
-4.09347e-127
-8.34463e-121
1.0504e-126
4.82222e-129
-1.61817e-123
-5.0835e-130
3.93746e-134
7.44797e-127
-1.7221e-133
-1.33757e-137
4.85973e-130
1.90368e-136
-1.51928e-139
-2.96891e-133
5.75807e-140
-9.72779e-144
-2.39263e-136
-2.28704e-143
5.90061e-146
4.36622e-140
-2.03848e-148
8.13797e-150
8.37955e-144
3.57914e-149
1.04037e-153
-2.94811e-146
1.33852e-152
2.51105e-155
-1.49453e-149
2.57953e-154
-1.56169e-158
1.85839e-152
4.95896e-156
2.07352e-160
1.441e-155
1.01319e-160
1.25856e-157
1.45343e-09
2.33608e-11
-9.84233e-11
1.42817e-09
1.28756e-11
5.25469e-12
1.39462e-09
4.99801e-11
3.41196e-12
2.42294e-10
5.02731e-11
6.54261e-11
2.14457e-10
4.31829e-10
3.93276e-10
4.23443e-11
1.2615e-10
3.91537e-12
5.7519e-11
-2.65483e-10
-3.39689e-10
1.06635e-09
-1.92224e-10
-1.85353e-09
-7.89701e-18
6.03487e-20
4.30822e-18
-1.13601e-17
4.22141e-20
-4.14135e-17
-1.43253e-16
1.99356e-16
8.74497e-22
-3.30818e-21
-7.27948e-23
-2.68657e-22
-2.39628e-21
-1.49943e-21
6.93227e-21
2.05646e-28
-2.72364e-25
-2.99646e-28
7.18957e-32
-6.60728e-29
1.13465e-31
1.94059e-35
-2.26399e-32
6.34859e-35
2.79466e-39
-7.64297e-36
2.06869e-38
9.36765e-43
-1.71584e-39
3.05041e-42
2.21767e-46
-4.49374e-43
-7.98343e-44
-1.64858e-49
-7.97914e-47
-1.25732e-47
3.00313e-51
-8.22291e-51
2.01191e-50
6.39067e-55
-3.86118e-54
1.33891e-55
2.14555e-59
2.29536e-57
1.55212e-57
8.0765e-63
1.05172e-60
9.59166e-60
3.37115e-66
-4.41651e-67
5.43285e-64
2.98253e-69
-6.4105e-68
-2.18436e-66
7.12e-73
-1.26352e-71
-2.04689e-70
3.62351e-76
-1.19794e-75
3.59271e-73
1.86938e-79
-4.16107e-79
-2.75217e-76
4.23427e-82
-5.80436e-82
-3.5176e-79
-4.22534e-86
3.24109e-85
6.65032e-83
-4.28463e-89
1.31722e-88
1.08265e-85
1.89701e-93
-1.69927e-91
4.15752e-89
-3.66604e-95
-9.76199e-95
1.71873e-92
-2.58631e-98
-7.06821e-98
-2.29126e-95
2.54872e-101
-5.54811e-102
-3.42604e-98
1.83517e-104
-4.06469e-105
-1.05846e-101
-1.05156e-107
2.61589e-108
3.71212e-104
-9.79415e-111
3.23309e-111
9.68117e-108
3.01912e-114
-9.84063e-115
-8.65233e-111
1.62016e-117
-3.42977e-118
-4.22059e-114
-2.2866e-120
-3.23351e-123
4.95037e-117
2.30298e-124
-1.31061e-125
-1.11282e-120
-7.14134e-127
2.84367e-128
1.73287e-123
7.52033e-131
-6.70557e-132
4.46843e-127
4.11311e-136
-2.71299e-134
-8.0318e-131
8.85925e-136
-4.93556e-137
-1.14126e-132
2.32979e-140
-5.20132e-141
-3.15135e-136
1.19373e-142
4.50498e-144
6.06997e-140
3.80552e-146
-6.1132e-147
1.2842e-142
-2.74065e-149
-2.77699e-151
1.41989e-145
3.67693e-152
2.37537e-154
-7.78078e-149
3.04749e-154
1.55549e-156
-9.83048e-152
1.61162e-155
4.87074e-160
1.07119e-154
7.96609e-161
4.224e-157
1.42971e-09
3.02022e-11
-6.09189e-11
1.40983e-09
1.87727e-11
5.10571e-11
1.39525e-09
5.96318e-11
3.98614e-12
1.85446e-10
2.02892e-11
1.5274e-10
2.64342e-10
4.20446e-10
4.07424e-10
-5.75743e-11
2.30613e-10
4.45632e-11
-3.17712e-11
-7.03475e-11
-7.85052e-11
9.86523e-10
7.14445e-11
-8.68653e-10
-1.14849e-11
-1.99272e-16
1.15221e-16
-8.36523e-16
-3.77876e-12
2.83341e-12
1.05163e-11
-1.71579e-15
-5.07553e-15
-6.63824e-16
-6.3045e-16
7.30762e-20
-6.31516e-21
-9.92036e-22
3.54747e-20
1.18171e-19
-1.29703e-18
1.07735e-18
3.04686e-27
-3.6748e-27
-2.28117e-25
-1.76772e-29
-8.71493e-31
3.86809e-30
1.45305e-32
-1.67386e-33
-1.59467e-32
1.05067e-36
-8.1048e-37
-3.20219e-36
2.14303e-40
-8.64723e-41
1.01267e-39
8.84778e-44
-5.04695e-45
-8.95152e-43
3.73605e-47
7.56276e-48
1.79902e-45
1.78854e-50
3.09463e-51
-3.29224e-48
7.01852e-54
2.73389e-55
4.58023e-53
2.7698e-57
1.43478e-57
1.01278e-54
2.27776e-60
2.09482e-60
3.24842e-58
4.80886e-64
4.6018e-65
-1.99279e-61
1.50532e-67
-1.17388e-67
2.01423e-66
8.3331e-71
-7.22814e-72
-1.41851e-68
3.46761e-74
-1.76494e-74
1.05806e-70
2.13363e-76
-7.27027e-78
-1.92636e-73
-3.916e-80
-3.11611e-81
4.73172e-77
3.99703e-83
-1.71497e-85
4.36946e-80
-3.79375e-88
1.95441e-88
-3.84777e-83
-1.64646e-90
-2.13838e-91
-1.32919e-86
2.26466e-92
8.36627e-95
-1.48699e-89
2.65634e-95
6.3981e-98
-5.76561e-93
5.91215e-99
1.31648e-101
3.56087e-96
3.98156e-102
1.4029e-104
-2.60081e-99
7.71857e-106
-1.39012e-109
8.37051e-103
-9.07167e-109
4.61093e-112
-8.26404e-106
3.68148e-111
4.2201e-115
-1.69231e-108
-1.30433e-114
-1.86463e-117
6.78991e-112
-9.80542e-118
-3.19184e-121
1.01443e-114
2.46344e-121
8.47461e-125
-5.76912e-118
1.32685e-124
-1.60191e-127
-2.1688e-121
-1.45451e-127
-5.8244e-131
4.96638e-125
2.42898e-131
-1.12397e-133
-1.46663e-127
2.52336e-133
4.33511e-137
-2.36361e-130
3.44862e-138
3.85189e-140
1.06565e-133
-1.20875e-140
6.01084e-144
5.73718e-137
2.16446e-143
-1.26457e-147
-3.67991e-140
2.89338e-147
2.74373e-150
-2.16051e-143
-3.1823e-150
1.87892e-153
-1.09412e-147
-2.06904e-153
2.46936e-156
6.31461e-150
9.28038e-155
-3.32961e-158
1.12829e-152
-6.06501e-160
-1.13319e-155
1.46996e-09
1.69867e-11
-4.57804e-11
1.46962e-09
6.65287e-12
4.35264e-11
1.50479e-09
3.32691e-11
-1.59414e-11
2.852e-10
-3.21592e-11
1.29183e-11
2.85699e-10
4.78355e-10
4.55495e-10
-1.48119e-11
2.87573e-10
1.16932e-11
1.70315e-11
2.11555e-11
-4.16359e-11
-2.61294e-11
-1.15852e-11
6.50348e-11
-2.08492e-11
2.80913e-14
-1.52776e-13
1.76428e-12
4.99201e-17
1.67101e-19
-8.12907e-20
-9.85367e-21
1.9052e-20
-3.10926e-19
2.39882e-19
-3.06929e-20
8.22193e-28
-5.64939e-25
-3.53816e-26
1.89501e-31
-2.25902e-28
7.78161e-30
3.07839e-33
-2.07531e-32
1.36991e-33
1.52371e-37
-1.13984e-35
-2.04545e-36
1.57792e-41
-8.42199e-39
-2.2923e-39
6.20257e-45
-1.15519e-42
-3.79803e-43
2.64409e-48
-3.76224e-46
1.06244e-45
1.13231e-51
-7.69681e-50
-2.24028e-49
4.87422e-55
-1.30279e-53
2.41697e-52
2.08993e-58
2.06127e-57
-7.12875e-55
7.8835e-62
-2.91965e-60
-6.17118e-58
3.63742e-65
8.95817e-66
-6.12152e-62
1.03327e-67
-1.76434e-67
-2.02583e-64
7.25221e-72
9.07301e-71
-3.29617e-68
2.04582e-75
2.4572e-74
-4.64297e-71
1.16559e-78
6.89424e-77
-1.16618e-73
5.70321e-82
2.69524e-80
2.34242e-77
4.26811e-84
-3.62133e-84
-1.19437e-80
-2.25386e-86
1.02366e-87
1.7942e-83
-2.08112e-89
-1.07777e-90
2.3636e-86
5.73213e-95
3.93849e-94
-1.27766e-89
-4.91564e-97
-1.83257e-97
-6.88538e-93
5.2684e-102
-2.34358e-101
-1.15218e-96
-1.19203e-102
5.64698e-104
9.26241e-100
-2.74794e-106
-1.75028e-106
1.73545e-102
5.16391e-110
9.87211e-111
-1.47084e-105
4.86692e-112
2.13924e-113
-1.74521e-108
3.54186e-115
-1.07283e-116
5.83366e-112
-2.5073e-118
-5.01119e-120
3.24615e-116
1.58962e-121
3.84033e-124
-1.03052e-118
-3.80411e-125
-8.74149e-126
-6.07931e-122
-2.24915e-128
-2.33126e-129
-4.99727e-125
1.51182e-131
1.40867e-133
-4.86939e-128
7.71881e-135
3.69406e-136
2.45272e-131
-1.32904e-137
-6.21267e-140
5.46858e-134
-3.41619e-141
5.2264e-143
-5.48956e-138
1.50692e-143
4.95871e-146
-2.31193e-140
-1.47155e-147
2.41185e-149
4.93953e-144
-1.96259e-150
-8.32764e-154
5.01859e-147
1.1565e-153
-9.56942e-155
-7.77346e-151
5.59141e-155
2.61219e-158
-1.20527e-152
-4.65084e-159
-4.42089e-156
1.45634e-09
-3.23742e-12
-2.52951e-11
1.42529e-09
-8.06019e-12
-3.39564e-12
1.42516e-09
1.19027e-11
2.01114e-11
1.7781e-10
3.77988e-12
1.53836e-10
2.94574e-10
2.70595e-10
5.06525e-10
4.73232e-12
1.53737e-10
6.07257e-11
-4.94767e-11
-8.74271e-11
-9.51644e-11
-7.29508e-11
-2.57342e-11
2.75647e-10
-2.62933e-09
2.36469e-12
-1.84874e-12
-3.68185e-11
5.01467e-13
2.86679e-18
1.89116e-20
-2.1164e-19
-1.1436e-18
-2.45936e-18
8.03017e-18
-7.18481e-18
-7.68793e-26
-1.47771e-24
-2.96033e-25
1.06653e-29
1.21386e-28
-3.15456e-28
-2.52801e-32
1.9365e-32
-2.8972e-31
9.44006e-35
-8.60687e-37
1.3347e-34
5.84669e-39
4.01666e-39
5.34476e-38
9.84346e-43
1.82242e-43
-8.54501e-42
4.0106e-46
7.79987e-47
-2.46521e-45
1.71163e-49
-1.97098e-50
-1.79981e-47
7.24792e-53
-2.08547e-53
-4.1722e-51
2.37526e-56
-1.44952e-56
7.24205e-54
1.25859e-59
3.74182e-61
-2.30377e-57
5.32857e-63
8.30509e-64
-1.37067e-60
1.00281e-65
-3.21375e-67
-5.03238e-63
7.48099e-70
4.93718e-70
1.84748e-66
3.82301e-73
8.93818e-74
-1.19449e-69
1.37627e-75
1.46233e-77
-2.22438e-73
-1.86014e-78
2.76035e-80
3.82162e-75
1.36336e-82
-4.3664e-84
7.40624e-79
1.6082e-84
-7.27646e-88
-1.3503e-81
5.04878e-90
9.62303e-91
-3.44509e-85
-1.12074e-91
3.91358e-94
2.49622e-88
-1.04124e-94
2.32945e-97
4.65778e-91
2.0624e-97
1.06051e-100
-1.41409e-94
4.67916e-102
-1.35491e-103
-2.41995e-98
2.84783e-104
1.48701e-107
1.41492e-101
2.3134e-107
-2.7962e-110
-2.55561e-106
-3.10921e-111
-1.27674e-113
4.31412e-107
4.85989e-114
-5.78987e-117
4.21912e-111
1.60332e-117
-9.52978e-120
-6.48811e-114
-1.26465e-120
-3.55587e-123
4.34218e-117
-5.53576e-123
2.20218e-126
3.22104e-120
5.818e-126
1.41843e-129
-4.54117e-123
-2.08552e-130
4.4043e-135
2.02336e-126
-1.90276e-132
4.96309e-136
2.26958e-129
-3.63885e-137
6.15021e-140
-3.67737e-133
7.71784e-139
3.95015e-142
-1.11145e-135
4.78109e-143
1.53349e-146
-2.96981e-139
-1.82394e-145
-2.92087e-149
5.61404e-142
-1.82006e-148
-2.81976e-151
1.4173e-145
1.15064e-151
-2.11994e-154
-2.50775e-148
4.29165e-154
3.08848e-157
-9.01931e-152
9.33359e-159
2.06932e-154
1.48583e-09
-1.4069e-11
-1.17591e-10
1.4693e-09
-1.92237e-11
-8.70436e-12
1.55755e-09
-2.60769e-11
-2.80438e-11
2.56967e-10
-6.45352e-12
7.09716e-11
3.03597e-10
4.25925e-10
5.18188e-10
-2.13907e-11
1.09693e-10
-2.36669e-11
1.91881e-10
-9.37451e-12
-4.29063e-11
4.05094e-11
9.56055e-12
1.75983e-12
-1.1558e-09
-3.03867e-14
-9.43112e-13
4.70058e-11
7.36654e-12
2.72673e-18
3.15841e-20
-1.25474e-19
-1.21283e-18
9.32714e-19
-1.30443e-18
-1.04863e-18
2.38071e-26
-4.76966e-24
7.43827e-25
1.43365e-29
-5.69914e-28
-7.59655e-29
3.17933e-31
-1.38341e-31
-8.84752e-33
1.72993e-36
-3.22179e-35
-8.32881e-35
8.81009e-41
-8.72128e-39
-1.26954e-37
3.35806e-44
-2.17675e-42
-1.84367e-41
1.21493e-47
-4.98353e-46
2.18642e-44
5.26036e-51
-1.51703e-49
2.12926e-48
2.3792e-54
-3.18031e-53
9.12572e-52
2.53309e-57
-1.38295e-56
-2.232e-53
4.50807e-61
-2.75437e-60
-1.30862e-57
1.94176e-64
-2.37383e-64
1.88628e-60
2.21396e-66
1.48544e-66
-4.99668e-63
3.53621e-71
3.3158e-70
2.15732e-67
-8.93344e-73
9.55319e-74
1.93532e-69
1.36207e-75
7.19658e-78
-3.11644e-73
-1.40897e-79
1.58063e-81
5.42934e-76
-1.03385e-82
3.17865e-84
1.57448e-80
2.0965e-87
3.23639e-89
-4.41392e-82
1.88954e-88
3.85263e-91
2.92183e-85
-1.34553e-91
-5.98671e-95
2.12359e-88
1.39249e-94
-2.99703e-97
-1.91544e-91
6.03818e-98
-9.67347e-101
-1.8012e-94
1.46937e-101
5.21114e-105
-5.96082e-99
-3.09874e-104
-2.88939e-108
3.58704e-101
2.35986e-107
4.75253e-111
-4.37878e-104
1.82705e-110
8.65267e-115
-3.46397e-107
3.4353e-114
7.76249e-118
5.73088e-111
2.0752e-117
4.31586e-121
-2.09218e-114
-1.17047e-120
-2.49711e-124
1.69498e-117
2.22567e-123
5.24333e-127
-2.12754e-120
1.73815e-126
7.8754e-130
-1.21223e-123
9.03575e-131
1.23523e-135
1.14114e-126
3.58971e-133
2.38936e-136
-1.83505e-130
4.06127e-136
-1.17666e-139
-1.01046e-132
3.28883e-139
-3.66899e-143
-4.61729e-136
-3.94628e-142
1.58158e-146
5.28256e-139
-2.79299e-148
-3.49403e-150
8.18675e-143
1.29414e-148
-4.9669e-152
-1.83028e-145
6.17514e-152
-1.17036e-155
-1.60292e-148
3.13395e-154
1.53817e-157
2.38868e-151
2.12561e-159
1.14102e-154
1.43023e-09
-2.14918e-11
-5.66623e-11
1.45424e-09
-1.83426e-11
2.35236e-11
1.49286e-09
-5.05546e-11
-1.70932e-11
2.37187e-10
-1.782e-12
3.53098e-11
2.73253e-10
4.75733e-10
4.50653e-10
4.87837e-11
1.75005e-10
-7.92947e-13
2.74436e-11
1.32851e-10
2.6054e-11
2.23868e-11
-3.71987e-12
-1.72581e-10
-5.19803e-10
-1.9184e-12
1.23455e-12
-2.73639e-11
-8.66747e-15
1.69298e-19
3.44335e-21
-8.19064e-21
1.4539e-19
-2.71395e-21
-2.76203e-19
-8.80158e-20
1.9437e-27
3.06578e-26
1.55423e-26
5.58047e-30
8.30827e-30
-1.08223e-29
6.73446e-33
4.25133e-33
-7.77262e-33
5.08814e-37
1.96391e-36
6.14359e-37
1.1361e-40
3.03192e-40
2.03711e-39
4.69765e-44
7.60084e-44
1.34093e-42
1.97954e-47
2.13112e-47
-2.46011e-45
8.33134e-51
5.07641e-51
-1.32145e-48
3.49892e-54
1.52681e-54
6.48228e-53
1.39911e-57
6.88729e-58
-3.15167e-54
5.16316e-61
-5.36316e-61
-1.11841e-57
2.56486e-64
9.87619e-65
3.62618e-61
1.75175e-67
-7.00208e-69
-2.69935e-64
4.37429e-71
-1.8222e-71
3.61992e-68
1.01012e-74
1.37889e-75
9.50134e-71
1.14064e-76
1.73274e-78
-9.14585e-74
1.36542e-80
1.02203e-82
2.55849e-77
-2.31856e-83
-2.79406e-85
2.63083e-80
-9.95033e-87
-1.63254e-89
1.56037e-83
4.50603e-90
1.55832e-93
1.33298e-86
-5.63439e-93
-1.01599e-94
-8.22331e-90
2.35743e-95
-5.92077e-98
-6.34032e-93
7.01857e-99
-1.78444e-101
-1.80301e-96
-2.94741e-102
-2.38845e-105
5.39113e-99
-1.43655e-105
4.65487e-109
1.16635e-102
1.18489e-108
-5.22458e-112
-2.16019e-105
-3.24544e-112
2.20022e-115
-5.71101e-109
-2.25209e-115
1.59477e-117
1.07088e-111
-4.85176e-118
7.49673e-122
2.31417e-115
-4.74186e-122
-1.78041e-124
2.30558e-119
3.33709e-125
1.56541e-128
8.83753e-122
4.44799e-128
8.71158e-131
-5.05954e-126
-9.87812e-132
2.39758e-135
3.33277e-128
-1.85521e-134
-6.95222e-138
-2.69565e-131
4.00501e-137
-2.63372e-140
-5.33662e-134
-2.26779e-140
-1.0312e-143
3.89236e-137
-2.51125e-143
-6.66887e-147
2.79113e-140
2.91226e-149
1.35601e-150
-1.04827e-143
5.7266e-150
6.47564e-153
-1.43772e-146
-6.30631e-154
2.57642e-156
6.3808e-150
1.73712e-154
-4.99256e-160
2.47348e-152
7.71143e-160
-6.98262e-156
1.44658e-09
-1.912e-11
-4.00262e-11
1.44007e-09
-2.6081e-11
3.71768e-11
1.44802e-09
-6.22771e-11
-2.55515e-11
1.99428e-10
-5.89919e-11
1.57174e-10
2.70751e-10
3.5702e-10
5.28211e-10
2.69317e-11
1.3783e-10
-5.8603e-11
8.35878e-11
-1.94176e-10
-2.52596e-10
-3.4335e-10
-2.16854e-10
1.00064e-09
-2.60087e-11
-3.41482e-14
1.42159e-09
1.91889e-11
1.42175e-09
2.99136e-21
-4.72116e-22
-4.39007e-22
7.19728e-21
1.21886e-19
2.68817e-19
-4.05322e-19
1.19037e-27
1.05663e-25
-1.02283e-25
-4.00737e-30
1.45503e-29
1.10098e-29
1.02455e-32
6.89786e-33
-2.63485e-33
5.95901e-37
3.19143e-36
-1.59225e-36
8.87127e-41
5.92729e-40
-5.22971e-39
3.76603e-44
1.51287e-43
-4.82554e-42
1.52978e-47
2.34062e-47
1.68727e-45
7.0316e-51
7.4034e-51
-2.63276e-49
5.40753e-54
4.31031e-54
2.9257e-51
1.14781e-57
2.14915e-58
1.25898e-54
1.42549e-60
-5.19828e-61
-1.68389e-57
1.94129e-64
1.84863e-64
-4.33709e-61
-3.98145e-67
1.41841e-68
2.35404e-64
3.9941e-71
1.31613e-71
-5.01301e-68
1.44593e-73
6.87516e-76
4.50012e-71
6.02691e-78
-5.10385e-78
-2.57408e-74
4.63961e-80
-1.34507e-81
6.40521e-77
-4.97514e-83
-2.95311e-85
-1.36637e-80
5.7916e-86
-3.78727e-90
-7.93642e-83
3.88562e-90
-1.51834e-91
1.2946e-86
8.98297e-93
1.59449e-95
1.6259e-90
9.74789e-96
5.20101e-98
-1.96546e-94
-1.21412e-99
3.06456e-101
3.37976e-96
-8.70679e-103
-1.44803e-106
1.34425e-99
1.68675e-105
-6.72235e-109
-2.98469e-102
1.15532e-108
-8.87814e-113
-1.68386e-105
-6.94334e-113
1.72501e-115
6.63003e-109
-9.94236e-115
2.83429e-118
1.32686e-111
-1.85716e-118
5.42806e-122
-2.14021e-115
4.23363e-121
2.35254e-125
-6.07979e-118
1.48155e-124
-5.9905e-129
7.01485e-122
-5.09639e-128
-4.40378e-131
1.04959e-124
6.18945e-131
1.47625e-134
-1.23275e-127
5.24391e-134
2.77271e-138
-1.28259e-130
-7.23433e-138
-4.97937e-141
3.02153e-134
4.94724e-141
-5.63278e-146
1.18521e-137
-1.29015e-144
-7.15024e-148
1.04832e-140
-7.27826e-149
-4.39394e-151
-9.68315e-144
-1.83131e-150
-2.55915e-153
1.2622e-147
-4.51958e-153
-1.19532e-156
1.19833e-149
1.20515e-154
4.85996e-159
-9.25125e-153
-6.54103e-160
-1.52321e-155
1.46136e-09
-3.81269e-13
-7.52985e-11
1.45042e-09
-7.01348e-12
-2.61554e-11
1.38852e-09
-2.43439e-11
2.94968e-11
1.4713e-10
-7.33554e-13
2.19993e-10
2.37763e-10
3.26962e-10
4.27542e-10
8.40659e-11
1.41454e-10
-2.06418e-11
-5.99892e-11
4.23569e-11
1.48497e-11
8.79148e-11
1.31819e-11
-2.09651e-10
1.8232e-15
1.97867e-15
-3.12976e-17
1.05032e-17
3.73205e-17
8.18703e-16
-7.98217e-15
2.96054e-15
1.62834e-15
1.85782e-15
1.85303e-15
9.38566e-22
9.50195e-24
-5.28022e-23
-7.14411e-22
-3.4581e-23
1.32914e-21
-1.95943e-22
5.30337e-30
2.78583e-28
1.40595e-28
3.22388e-32
4.38601e-34
-1.83248e-32
1.04063e-34
1.17328e-35
-1.04663e-34
5.93977e-39
5.32616e-39
2.32211e-38
7.75399e-43
1.03131e-42
1.81256e-41
3.11844e-46
3.26836e-46
5.6718e-45
1.31773e-49
7.6531e-50
5.81534e-48
5.56557e-53
4.16272e-53
4.55063e-50
2.33058e-56
7.29883e-57
5.4185e-53
9.75338e-60
2.27677e-60
1.84919e-56
2.65649e-63
2.79612e-64
5.78194e-60
1.70679e-66
5.90288e-67
-5.66069e-63
7.07003e-70
3.24785e-71
2.03688e-66
2.98113e-73
3.97938e-74
2.19867e-69
1.42197e-76
-2.65763e-77
-2.21565e-74
5.46871e-80
-8.36978e-81
-9.01855e-76
8.07942e-82
-7.56192e-84
-9.02832e-80
2.63932e-85
2.00357e-88
-2.51971e-82
-9.01202e-89
1.15221e-90
2.2773e-85
-1.34605e-91
-9.70392e-95
3.11691e-88
-4.38053e-95
3.89956e-98
-5.1179e-92
-7.69167e-98
1.56662e-101
-7.85925e-95
1.30583e-101
2.07404e-105
2.85941e-98
-2.1884e-105
3.35892e-109
-4.69571e-102
1.644e-107
-1.06479e-110
5.38306e-105
-6.19725e-111
-4.75108e-113
2.85986e-107
3.60482e-114
6.17764e-117
7.22393e-111
-1.36624e-116
3.731e-120
-2.99243e-114
-2.47261e-120
-5.3136e-123
-7.98705e-117
-1.26712e-123
5.30748e-127
5.82861e-120
-2.11594e-126
-9.00206e-129
1.5626e-123
3.05221e-130
-8.94142e-133
-1.00401e-126
-1.73441e-133
1.30957e-137
-6.92406e-130
-3.89116e-136
-1.41279e-139
4.36613e-133
-4.96441e-139
-1.3961e-143
3.74119e-136
4.40933e-143
1.06825e-145
2.35031e-140
-7.51903e-146
1.32131e-149
-2.94819e-143
-3.11836e-149
-2.26608e-152
2.60483e-147
-5.67398e-152
-2.28148e-155
5.75988e-149
3.46328e-154
-1.00927e-157
7.94035e-152
1.36411e-155
-1.09217e-159
-9.77544e-155
1.47641e-160
-2.09801e-157
1.42976e-09
-5.29788e-11
1.40362e-09
1.82277e-11
1.39852e-09
-4.75369e-11
2.57172e-10
-9.46033e-11
3.25636e-10
3.39666e-10
5.42835e-10
-4.2302e-11
-1.56449e-11
7.42242e-11
6.98791e-11
5.262e-11
8.92169e-11
4.89794e-11
-7.36732e-12
-2.16357e-10
1.61655e-09
-1.46033e-10
-2.11549e-09
1.29225e-19
7.4627e-22
2.811e-20
-2.54176e-23
-3.55086e-21
1.13871e-20
-2.22574e-19
6.19486e-20
-4.37923e-27
-1.86013e-27
-7.8654e-25
-3.04926e-27
-2.82295e-24
-1.37316e-25
4.47736e-28
-3.63745e-29
6.24622e-31
1.25556e-32
8.81462e-36
-1.5393e-35
2.00916e-39
-3.62933e-38
8.42771e-43
-2.24563e-41
3.55754e-46
-1.29595e-44
1.49991e-49
3.28538e-48
6.32401e-53
5.01785e-50
2.65877e-56
-8.66388e-56
1.11694e-59
-4.74532e-57
4.67024e-63
-1.34116e-61
1.95037e-66
-3.66792e-64
8.11098e-70
-1.05315e-66
1.66888e-74
-1.23853e-69
1.40379e-76
-1.41463e-72
-3.25523e-79
5.66008e-76
-1.48126e-82
8.08255e-79
-3.67438e-86
9.30474e-83
5.52679e-89
-8.2967e-86
5.53717e-92
-1.47909e-88
1.35675e-95
-1.42212e-92
8.96977e-99
4.60846e-95
-1.85775e-101
3.99907e-98
6.92804e-105
-8.5961e-102
4.79068e-107
-4.77891e-104
2.019e-110
-2.43899e-108
-3.86965e-114
1.56245e-110
-8.75743e-117
3.30864e-114
4.23699e-120
-5.63694e-117
2.75158e-124
-2.97782e-120
8.00512e-127
-5.33784e-124
5.51096e-130
-6.82471e-127
5.56099e-133
-3.88025e-130
-1.39843e-136
1.88114e-133
-1.22153e-139
-6.16749e-137
4.4783e-143
-1.98045e-139
-4.39493e-146
-1.41435e-143
1.64857e-148
-5.39485e-146
-4.44289e-152
8.77644e-149
3.45532e-154
4.21309e-152
5.32917e-156
-1.69144e-154
-8.86176e-158
2.36408e-09
2.02899e-12
5.73657e-11
2.38189e-09
-7.11298e-12
-2.2217e-11
2.37013e-09
4.73325e-11
7.46772e-11
5.76498e-10
-1.30442e-11
-5.49167e-11
6.40415e-10
5.43022e-10
7.00793e-10
7.65995e-11
1.84091e-12
-2.40358e-10
2.50309e-10
1.88932e-10
1.56524e-10
5.51974e-11
3.18261e-11
1.85151e-10
1.23463e-11
2.65402e-12
5.70178e-11
8.12387e-20
3.26473e-22
2.071e-19
-5.91143e-22
2.00294e-22
-1.79235e-19
7.04873e-20
-1.93856e-19
8.05516e-25
2.08741e-23
7.50916e-27
-8.04748e-25
-2.80963e-23
3.00232e-24
-3.09199e-23
2.13901e-27
-4.61121e-27
-3.59806e-29
7.97327e-31
-2.97759e-31
3.67177e-33
7.04179e-35
-1.56612e-34
3.32073e-35
4.41814e-38
-9.24901e-38
-1.23644e-38
3.31718e-41
-3.05528e-41
7.00554e-42
2.3734e-44
-1.0793e-44
2.63393e-45
1.68792e-47
-4.39661e-48
3.74421e-48
1.20055e-50
-1.81525e-51
-2.59567e-50
8.50627e-54
-8.37021e-55
-6.23662e-55
6.0231e-57
-9.95952e-58
-1.79749e-57
4.25833e-60
-1.87179e-60
-2.65995e-60
2.99611e-63
-2.27304e-64
8.85803e-64
2.10542e-66
-8.91329e-68
-3.79944e-67
1.47598e-69
6.0533e-71
-6.68193e-71
1.03534e-72
8.20761e-74
7.54777e-75
7.24291e-76
1.00598e-76
-3.52575e-77
5.0515e-79
4.96032e-80
-1.00476e-79
3.51557e-82
1.28385e-84
-2.40292e-83
2.44253e-85
6.21392e-87
5.60842e-86
1.69329e-88
2.69982e-89
3.52255e-89
1.17223e-91
1.8207e-92
2.65269e-92
8.09856e-95
2.86791e-96
5.98294e-96
5.58858e-98
-3.57069e-98
-1.05554e-98
3.84725e-101
-7.18809e-102
6.20616e-102
2.64439e-104
5.4956e-105
4.57228e-106
1.81434e-107
2.79503e-108
4.12389e-109
1.24213e-110
-6.22029e-112
4.10089e-111
8.47842e-114
-1.32248e-114
1.17959e-114
5.77231e-117
-5.15666e-118
-7.40363e-118
3.92726e-120
2.34382e-121
-9.03245e-121
2.66224e-123
-6.44704e-124
2.02293e-123
1.80118e-126
1.59064e-127
7.24417e-127
1.21658e-129
-2.65664e-131
2.91263e-130
8.19952e-133
-8.04442e-134
-1.93715e-133
5.51854e-136
-4.41682e-137
-5.12306e-137
3.70777e-139
-1.16649e-140
1.52262e-139
2.48166e-142
9.84005e-144
5.24497e-143
1.65811e-145
-1.28262e-146
-1.61319e-146
1.10554e-148
-1.49712e-149
-9.87876e-150
1.0653e-151
-7.06672e-153
3.12097e-152
-2.36032e-153
9.2968e-156
-4.45729e-156
3.73135e-157
-1.42993e-157
2.36349e-09
2.62972e-11
2.19743e-11
2.38123e-09
1.47529e-11
-5.71847e-12
2.32836e-09
6.79614e-11
2.65105e-11
5.97391e-10
8.54935e-11
-3.56569e-11
5.48693e-10
6.09127e-10
5.28336e-10
8.72313e-11
1.041e-10
5.28369e-10
4.0123e-11
-1.70158e-10
1.14679e-09
-2.3676e-10
-9.39594e-11
2.00868e-09
-1.44064e-11
-2.58916e-09
-5.08465e-17
-7.92024e-19
-3.93951e-19
8.48125e-17
-7.41471e-17
-8.24632e-19
7.82431e-17
-1.71538e-16
1.32101e-16
6.36809e-21
-1.65096e-21
4.69561e-23
1.94886e-21
-9.89316e-21
1.78857e-21
4.43268e-22
1.9884e-27
-2.19727e-24
6.25355e-29
7.85921e-31
-5.71491e-28
1.93418e-31
6.89789e-34
-3.26762e-31
-4.00176e-35
1.26762e-37
-2.50688e-34
4.64493e-38
6.67279e-41
-5.09448e-38
4.26419e-41
4.99877e-44
-2.12521e-41
-2.83619e-44
3.08814e-47
-9.02266e-45
1.64178e-47
1.94505e-50
-3.48595e-48
1.05457e-50
1.47395e-53
-1.33791e-51
-8.90131e-54
1.01276e-56
9.40473e-55
-1.04773e-56
7.4731e-60
4.4306e-58
1.39463e-60
4.74706e-63
-1.82166e-62
9.81735e-64
3.36046e-66
-4.09699e-64
-3.06255e-66
2.32836e-69
-7.77632e-68
1.15096e-70
1.62209e-72
-6.56671e-72
1.68786e-72
1.12637e-75
3.59953e-74
3.78923e-76
7.81539e-79
-3.20021e-77
-4.3343e-79
5.41805e-82
-1.11766e-80
2.46556e-82
3.75211e-85
5.36322e-84
1.92254e-85
2.59678e-88
-8.05588e-87
-6.66468e-89
1.82967e-91
-1.59442e-89
-1.65841e-92
1.22487e-94
-8.86599e-93
-1.07e-96
8.48434e-98
-3.16397e-96
-5.87262e-98
5.8071e-101
-2.47785e-99
-1.36248e-101
3.97141e-104
9.44251e-103
3.35779e-104
2.71208e-107
7.47286e-106
2.28729e-107
1.8549e-110
-8.03959e-109
-1.61865e-110
1.26444e-113
-7.93476e-112
3.36519e-115
8.61613e-117
-4.93435e-115
8.20989e-118
5.86144e-120
1.66542e-118
4.3859e-121
3.97705e-123
-1.89678e-122
-4.2824e-124
2.69219e-126
-4.49878e-125
2.36779e-126
1.81659e-129
-1.92915e-128
-1.19485e-129
1.22546e-132
-1.76659e-131
-5.81972e-133
8.25934e-136
4.29006e-134
7.43225e-137
5.56113e-139
-5.04447e-139
4.40204e-139
3.73759e-142
-2.75126e-141
1.10825e-142
2.49798e-145
3.29307e-144
-1.82512e-146
1.67375e-148
-3.12791e-147
-6.49451e-149
2.20956e-151
-2.0329e-150
-5.28938e-152
5.58834e-152
4.90421e-154
1.15027e-154
7.47671e-157
2.52494e-157
2.36768e-09
5.28434e-11
6.94299e-11
2.39594e-09
3.31305e-11
3.58615e-11
2.35873e-09
9.66266e-11
-4.40268e-11
6.48217e-10
5.24198e-11
-2.06313e-11
6.33834e-10
6.49066e-10
6.39227e-10
-1.02518e-10
-9.33838e-11
6.47677e-10
-1.27737e-11
2.12532e-10
1.147e-09
-1.85564e-10
-2.38777e-10
-4.12812e-11
-1.00467e-10
-6.06824e-10
-4.53627e-11
-3.79111e-14
-1.45067e-15
-6.78305e-16
2.30433e-14
1.8204e-11
5.41589e-12
2.16662e-11
-4.34447e-15
-6.50738e-15
2.06021e-15
2.04113e-15
-9.50617e-20
-1.9002e-20
1.6031e-21
-8.1882e-19
8.19863e-20
1.12289e-19
5.38013e-19
3.05873e-26
-1.0108e-24
-3.26662e-26
1.09271e-28
-5.20391e-29
9.02359e-30
5.69008e-31
-4.99843e-32
-2.13149e-32
1.08823e-34
-4.03788e-35
-2.71926e-36
2.09585e-38
-1.24087e-38
4.46338e-40
1.46493e-41
-3.90675e-42
-2.98527e-43
1.05437e-44
-9.12858e-46
1.01071e-44
7.42773e-48
-2.08222e-49
2.42348e-48
5.21608e-51
-2.29396e-52
-2.90555e-51
3.65637e-54
9.84324e-55
3.44873e-54
2.56223e-57
3.26763e-57
1.91632e-57
1.79121e-60
-5.68071e-63
-1.38494e-61
1.24884e-63
-3.53318e-64
-9.11839e-65
8.69731e-67
-1.66847e-68
3.26571e-67
6.04592e-70
-6.04146e-71
2.33628e-71
4.19494e-73
-3.75293e-74
-1.54887e-73
2.90636e-76
1.42049e-77
-3.29782e-77
2.01107e-79
6.53574e-81
2.6985e-80
1.38862e-82
1.92793e-83
-1.7241e-83
9.57585e-86
-8.47811e-87
1.57967e-87
6.59129e-89
1.25367e-89
-9.31774e-90
4.524e-92
1.5594e-92
4.4529e-94
3.10359e-95
5.3887e-96
1.72798e-95
2.12723e-98
6.80045e-99
6.06384e-99
1.45416e-101
-9.82808e-104
1.31247e-102
9.91172e-105
-7.27582e-107
-2.87419e-105
6.75228e-108
-8.28548e-110
-9.9948e-109
4.59601e-111
3.33795e-112
2.19361e-111
3.11994e-114
7.29855e-116
1.41275e-114
2.11377e-117
2.60112e-119
-7.52797e-118
1.42946e-120
-1.45239e-121
-1.49145e-121
9.64734e-124
-9.36091e-125
1.50776e-124
6.50124e-127
5.94409e-128
-8.38962e-128
4.37235e-130
5.52182e-131
-6.72134e-132
2.93636e-133
5.72433e-134
1.15352e-133
1.97011e-136
2.30827e-137
7.92252e-137
1.31793e-139
-3.91729e-141
-3.30916e-140
8.79172e-143
2.95211e-144
-1.47185e-143
5.86059e-146
8.83274e-147
8.30911e-147
3.87706e-149
3.21366e-150
1.00204e-149
6.19408e-152
-2.69676e-153
1.66758e-152
-2.79978e-156
-1.18745e-156
2.38927e-09
3.07149e-11
8.76533e-11
2.44409e-09
1.87622e-11
2.5195e-12
2.48539e-09
5.99598e-11
-1.05264e-11
6.59975e-10
-1.94495e-11
-1.42528e-11
6.2804e-10
6.79437e-10
6.4211e-10
-8.38619e-11
-1.78418e-11
7.16131e-10
7.18892e-11
-1.22702e-11
-1.20036e-10
3.85636e-11
-4.64559e-11
2.09058e-10
1.54646e-10
-2.28499e-10
-1.8766e-11
-2.63399e-12
1.50964e-13
-5.55361e-13
1.38893e-12
4.12343e-14
9.93252e-19
-4.16121e-19
9.40037e-21
1.87359e-19
-9.33743e-19
2.89155e-19
-2.1018e-19
8.81658e-27
1.27642e-23
4.39331e-26
2.61399e-29
-7.35507e-28
1.7701e-29
5.41248e-32
-6.04732e-31
7.05119e-33
1.42375e-35
-6.07068e-34
5.56393e-36
5.43389e-39
-3.01807e-37
-1.85849e-39
3.88074e-42
-1.09659e-40
-1.2448e-42
2.78908e-45
-5.67306e-44
1.45668e-45
1.97464e-48
-1.95267e-47
2.60364e-49
1.39644e-51
-1.29069e-50
3.52386e-52
9.85195e-55
-3.82982e-54
1.3845e-54
6.92916e-58
-2.56e-57
1.62163e-58
4.86647e-61
-4.07372e-60
-2.64753e-61
3.41322e-64
-1.94105e-64
-8.24796e-65
2.39046e-67
-2.53383e-67
6.34054e-68
1.6712e-70
5.22196e-70
-6.78625e-71
1.16695e-73
9.12745e-73
-2.06303e-74
8.13955e-77
6.58645e-76
8.9339e-77
5.66728e-80
-2.39239e-79
1.01265e-81
3.93024e-83
-1.32005e-82
-1.40947e-83
2.72543e-86
-1.37192e-85
1.95478e-86
1.88823e-89
4.32595e-89
-1.68225e-90
1.3036e-92
-3.53133e-92
-1.56111e-93
8.9959e-96
-1.49711e-95
2.35859e-96
6.21302e-99
1.6036e-98
1.1803e-99
4.27637e-102
1.46508e-101
2.31325e-102
2.93249e-105
-2.3938e-105
-1.19449e-105
2.01095e-108
7.83652e-108
2.04688e-110
1.378e-111
-4.02065e-111
1.02629e-111
9.41031e-115
-1.17568e-115
-1.82571e-115
6.40947e-118
1.18503e-117
-2.46131e-118
4.36333e-121
-2.88696e-120
1.85743e-122
2.96435e-124
-7.32744e-124
6.22501e-125
2.01184e-127
2.97642e-127
2.36297e-128
1.36251e-130
1.12614e-130
1.97301e-131
9.19675e-134
-1.88389e-133
3.50761e-134
6.20127e-137
-1.0669e-136
4.27878e-138
4.17663e-140
-4.43363e-140
-7.74386e-141
2.80628e-143
2.3551e-143
7.43975e-144
1.88083e-146
-2.2217e-146
6.8678e-147
1.24378e-149
-1.86977e-149
-2.60099e-150
-3.35676e-151
-6.34711e-153
-3.39406e-153
-5.06602e-156
-4.90367e-156
2.40307e-09
-2.00904e-12
7.75856e-11
2.41375e-09
-3.77413e-13
-4.15034e-11
2.45413e-09
3.47311e-11
2.79775e-11
5.5445e-10
2.02375e-11
2.6217e-11
7.39917e-10
5.4871e-10
7.17182e-10
3.04219e-11
-5.85146e-11
4.47818e-10
2.9637e-11
9.42176e-11
-1.43427e-10
-4.72892e-11
-1.55811e-10
2.45061e-10
2.14557e-11
7.44565e-11
-3.70461e-09
-9.89746e-11
-2.10888e-11
7.30081e-12
-5.21755e-11
2.33957e-12
1.68237e-17
4.73873e-20
1.94077e-19
1.66403e-17
-2.77305e-17
1.17808e-17
-1.90825e-17
-1.38481e-25
3.52729e-23
1.78147e-24
2.64934e-28
1.54246e-27
1.07565e-28
5.34991e-30
5.64186e-31
-2.07829e-31