/*--------------------------------*- C++ -*----------------------------------*\
| =========                 |                                                 |
| \\      /  F ield         | OpenFOAM: The Open Source CFD Toolbox           |
|  \\    /   O peration     | Version:  5.0                                   |
|   \\  /    A nd           | Web:      www.OpenFOAM.org                      |
|    \\/     M anipulation  |                                                 |
\*---------------------------------------------------------------------------*/
FoamFile
{
    version     2.0;
    format      ascii;
    class       volVectorField;
    location    "0.4";
    object      ddt0(rho,U);
}
// * * * * * * * * * * * * * * * * * * * * * * * * * * * * * * * * * * * * * //

dimensions      [1 -2 -2 0 0 0 0];

internalField   nonuniform List<vector> 
4440
(
(0.0512086 -0.482971 -0.0143843)
(-3.73803 -0.120593 0.655303)
(-6.57298 0.0932995 0.852847)
(-5.92916 5.00518 -2.34214)
(2.73821 -0.348851 -1.74504)
(112.067 -6.43745 21.9534)
(6.50389 -7.81388 -0.618408)
(12.9863 -4.62 -0.40804)
(16.0481 -1.70593 0.0036902)
(17.5505 -2.67202 0.00241406)
(18.5121 -1.77545 -0.0954336)
(18.9234 -1.39766 -0.0489128)
(15.3929 -3.44921 0.140842)
(12.4909 -1.36972 -0.261057)
(11.272 -0.0270556 -0.075193)
(9.40619 -0.761762 0.32425)
(6.73097 -0.123962 0.00187352)
(3.79884 -1.89005 -0.0816465)
(1.16614 -2.79658 -0.190899)
(0.185902 -1.28014 0.103387)
(0.247393 -1.3856 0.0590603)
(-2.81347 -0.679547 -0.0977814)
(-2.44107 1.10401 -0.0233192)
(-0.976797 0.893106 0.0662117)
(-3.22712 2.69069 -0.0432304)
(-3.25215 3.75574 -0.196339)
(0.104299 1.91993 0.0960275)
(1.37672 0.0709645 -0.0121245)
(-1.58891 -0.296119 0.389881)
(-1.798 -0.6301 0.165757)
(-1.09313 -2.29281 -0.058011)
(-4.75863 -2.28492 -0.0873559)
(-4.06477 0.550295 -0.148222)
(1.40956 1.18085 0.0974414)
(1.31348 0.611455 -0.0024726)
(-6.44973 0.615398 0.0509449)
(-14.8895 1.80262 0.0171616)
(-17.3191 2.67574 -0.10508)
(-15.6218 1.59391 -0.112759)
(-15.7003 0.376422 0.200668)
(-21.0836 -0.688384 0.111418)
(-24.4173 -1.73246 -0.203848)
(-18.6581 -2.60278 -0.0435059)
(-15.2471 -2.43715 0.0997457)
(-21.6227 -0.47362 0.0439004)
(-25.5249 1.68346 -0.106167)
(-22.219 1.55147 0.0083091)
(-21.377 0.682912 0.127011)
(-22.894 0.162959 -0.0313471)
(-21.6399 -0.131234 -0.00117055)
(1.15427 -1.04966 -0.641819)
(1.14974 -0.210937 0.98753)
(4.90489 10.6255 -0.556082)
(7.14086 12.9178 0.381629)
(11.2959 24.7439 -1.76881)
(140.208 -84.8257 -13.0761)
(0.968001 -10.9974 -0.174385)
(16.416 -8.94534 0.0828779)
(17.2617 -6.80066 -0.00624251)
(17.6675 -3.52935 0.0016619)
(19.3872 -3.8164 -0.000701661)
(17.3762 -1.33223 -0.000359448)
(15.1397 -1.74986 0.000808539)
(15.8927 -1.52454 0.00132733)
(11.9679 -1.08575 -0.000410989)
(9.75813 -0.0414261 0.342869)
(6.00486 -1.82422 -0.0428864)
(0.918289 -3.99135 -0.204097)
(2.49538 -5.06355 0.156427)
(2.40498 -0.905386 0.106106)
(0.711186 -1.09391 -0.273823)
(-0.702259 -0.652534 -0.113653)
(-1.89826 1.74406 0.196094)
(-1.02636 0.82844 0.0374856)
(-1.17944 0.83075 -0.0783116)
(-2.64205 2.43676 0.205313)
(-2.3183 2.55168 0.219529)
(-1.23521 -0.555962 -0.00096117)
(-1.79828 -1.3714 -0.0418131)
(-2.4685 -0.0510965 -0.102201)
(-2.03315 -1.69813 -0.110221)
(-1.60328 -0.870867 -0.167665)
(-1.39115 2.91423 0.322629)
(-0.396938 2.79888 0.230093)
(-0.815108 -0.741105 -0.0167072)
(-5.92 -2.12677 -0.00713563)
(-12.509 0.318904 -0.000446184)
(-16.4826 2.31753 -0.170469)
(-16.9117 1.7389 -0.00489772)
(-17.5605 0.33878 0.164057)
(-22.144 -1.25755 -0.0803832)
(-24.8221 -0.375816 -0.122287)
(-19.7132 0.390494 0.0237721)
(-15.105 -1.56329 0.156492)
(-18.5239 -1.59019 -0.0857084)
(-23.2068 1.61668 -0.0691826)
(-23.4985 2.18519 0.122199)
(-23.2309 0.141832 -0.111074)
(-23.5626 -0.90751 -0.187165)
(-20.6912 -0.507843 -0.0243066)
(1.09468 4.97838 -0.00529619)
(10.8798 3.51535 0.14213)
(9.83658 5.62012 0.217232)
(16.6769 0.676162 1.16892)
(21.1064 7.54948 3.91085)
(11.2123 -5.07793 27.1857)
(3.87497 -26.8969 -2.35613)
(19.1097 -8.28944 -0.734029)
(22.812 -5.7601 -0.653339)
(21.2765 -4.42384 0.00447381)
(21.2618 -3.06479 0.00382003)
(21.5031 -3.46264 0.00331745)
(15.1535 0.572487 0.00104531)
(13.321 0.48014 0.00125842)
(13.1265 -0.989122 0.000712486)
(8.47997 0.229533 0.000703868)
(1.79306 -1.73494 -0.0315247)
(-0.249046 -1.80981 0.118837)
(5.02994 -0.374415 -0.218643)
(5.14307 -0.8726 -0.00496502)
(0.563916 -1.62974 0.241272)
(0.735845 -0.688368 0.000369412)
(-0.594454 0.110703 0.0603556)
(-2.11746 0.307755 -0.245018)
(-1.215 -1.05219 -0.0398797)
(-1.10291 -0.238883 0.0221611)
(-3.64009 1.3001 -0.153527)
(-3.52476 -0.872975 0.0020749)
(-0.955426 -0.393658 -0.0775365)
(-2.2105 0.99371 -0.149572)
(-2.11627 -0.00688521 0.195197)
(1.00899 0.879535 0.0455995)
(0.516811 2.42306 0.112542)
(-3.16406 2.16435 0.00377955)
(-4.84038 -1.16888 -0.176469)
(-5.11947 -2.98167 -0.0459503)
(-9.33356 -0.428755 0.0554151)
(-15.5462 1.45245 -0.00357785)
(-18.0957 0.700343 0.00779293)
(-19.4456 -0.83419 0.0841447)
(-21.9737 -1.54151 -0.152467)
(-22.3579 1.3845 -0.11645)
(-20.1466 3.75212 0.259431)
(-17.7214 0.805878 0.0737119)
(-17.6444 -1.70225 -0.0938762)
(-20.8092 0.0784961 0.0341358)
(-24.0657 1.05844 0.102024)
(-25.2414 -0.645524 -0.0871928)
(-23.7038 -0.914225 -0.00709925)
(-19.8696 0.440853 0.089197)
(-0.681218 4.0965 0.566989)
(1.96486 4.85918 0.180455)
(1.36586 -5.09947 0.0385203)
(-8.09565 -0.965073 -2.13)
(4.00753 -27.2968 0.520401)
(39.7315 1.60482 8.44448)
(-23.1756 -78.374 0.804804)
(20.8795 -2.98252 -1.26546)
(22.1037 -1.86293 -0.00231585)
(21.0374 -2.69656 0.322384)
(20.5873 -0.80261 0.00120066)
(21.9286 -1.4424 0.000879081)
(20.0634 -0.916198 -0.000553236)
(13.9391 0.608753 -0.000748386)
(11.658 -1.29685 -0.000628197)
(8.82238 -1.70506 -0.00110407)
(3.45789 -1.49188 -0.00119845)
(2.62077 1.38452 0.190971)
(3.66479 4.32855 0.0494198)
(0.835778 -0.549719 0.0934643)
(0.943544 -1.58284 -0.330397)
(1.47291 -0.208108 -0.000237915)
(-0.653757 -1.1756 -0.0752741)
(-2.48208 -0.645671 -0.0998351)
(-1.86099 -1.7795 0.154668)
(0.298737 -2.19558 0.131281)
(-3.11553 -0.619684 -0.101692)
(-3.3493 0.0898016 -0.00430859)
(0.535983 1.34336 -0.0833574)
(-1.98813 1.63969 0.222855)
(-2.17386 1.17266 0.104004)
(1.43465 1.835 -0.0742481)
(0.21295 1.24776 -0.00604923)
(-4.89032 0.583925 -0.0335879)
(-7.24515 -0.692828 -0.194107)
(-4.98926 -2.30719 0.189347)
(-6.96608 -1.36812 0.0503165)
(-15.0738 0.0723301 0.002066)
(-19.7702 -0.611686 -0.0750061)
(-20.3611 -1.64576 -0.0905336)
(-19.3662 -0.408957 -0.0487959)
(-18.2057 3.21039 0.199347)
(-20.4426 4.92129 0.236276)
(-21.9217 2.63928 -0.239508)
(-19.4278 -0.491982 -0.0753514)
(-19.7565 -0.883476 0.00583623)
(-24.4064 -1.44701 0.147134)
(-25.6944 -2.83406 -0.172519)
(-22.2017 -1.21101 0.00617234)
(-20.1034 1.01349 0.13117)
(2.05296 -2.74658 0.462126)
(-0.6143 2.50661 -0.180808)
(2.57707 0.334228 -0.885583)
(5.2892 6.34166 -0.0617962)
(7.26035 37.7312 -4.17163)
(25.1432 13.7301 -16.2898)
(61.1278 -8.02313 -21.0134)
(23.9501 -1.51549 0.548251)
(23.1642 0.24043 0.0088601)
(22.6073 0.976562 -0.302046)
(22.8275 1.05656 -0.144834)
(21.363 2.5771 0.0796118)
(17.7189 -0.268877 0.153376)
(12.8411 -0.22952 0.00104257)
(10.2362 -1.67721 -0.00142839)
(8.23709 -1.79298 -0.111559)
(5.65816 -2.17802 -0.000493008)
(7.02625 0.627859 -0.0162727)
(2.60199 2.80453 0.188208)
(-2.24203 1.22332 -0.216747)
(0.99405 0.24533 -0.323481)
(1.2415 0.622352 0.446917)
(-1.13969 -0.442508 0.0969527)
(-2.87466 -1.25908 -0.164894)
(-3.15221 -1.38323 0.162345)
(0.348667 -2.56647 -0.0444579)
(-0.784767 -1.90099 -0.232136)
(-1.07037 0.880972 -0.0386609)
(0.980805 1.64185 0.228266)
(-2.42465 1.30925 0.20507)
(-1.87003 0.894873 -0.193615)
(1.10209 1.23488 -0.0360614)
(-1.04692 0.929643 0.1894)
(-5.58995 -0.291762 0.000258097)
(-8.4545 -0.724271 -0.0489884)
(-5.96 -1.31512 -0.000317842)
(-6.35792 -2.21204 -0.173463)
(-14.6024 -1.50834 -0.000410339)
(-20.243 -0.666268 0.0145947)
(-19.1886 -0.597358 -0.0898757)
(-15.9001 1.25758 0.0174995)
(-15.6965 3.56793 0.185234)
(-20.8637 3.88042 -0.0698726)
(-24.4875 2.62798 -0.155522)
(-22.0438 0.974212 0.109472)
(-22.0021 -1.06983 -0.00230424)
(-26.5036 -3.45612 -0.224082)
(-24.9421 -4.45527 -0.386179)
(-18.8935 -2.25848 0.115713)
(-19.6278 -0.00435405 0.0469172)
(5.90081 0.404465 -1.15712)
(5.81899 0.311497 -0.491486)
(6.17769 5.21626 0.173182)
(26.8895 1.65283 1.18566)
(6.37157 -11.1117 9.78878)
(-2.63076 -6.91323 -4.85941)
(1.72722 -14.0387 -3.89078)
(27.551 1.03991 0.444065)
(25.227 2.82319 -0.000674231)
(22.0581 3.83277 -0.00178532)
(22.5904 1.45334 0.047779)
(20.2672 0.568032 4.0348e-05)
(16.5594 -1.49537 -0.260658)
(12.1773 -1.59037 0.00248398)
(9.70544 -0.380361 0.00311636)
(8.19603 -0.633138 0.0832603)
(6.48781 -0.568641 1.41991e-06)
(8.84842 -0.884206 -0.118658)
(4.40439 0.486241 0.107071)
(-2.36276 2.5612 0.213304)
(0.193533 2.13972 -0.110241)
(0.610809 0.866449 0.265772)
(-3.00584 0.39313 0.133021)
(-3.65749 -1.69219 -0.138751)
(-3.49668 -1.18383 -0.138036)
(-0.346413 -1.60539 -0.00413939)
(1.196 -1.98153 -0.00242713)
(1.07663 0.529703 0.13524)
(1.07033 0.352748 0.0188268)
(-2.92085 -0.330296 -0.240344)
(-2.26461 0.355799 -0.124933)
(1.47817 1.06869 0.0778939)
(-1.69532 0.89314 0.0793131)
(-6.95574 -1.23296 -0.195496)
(-8.52395 -1.07721 -0.092525)
(-6.84859 -0.0137644 0.0634596)
(-7.20513 -1.86909 -0.0737269)
(-13.1409 -2.38466 0.0383676)
(-18.6321 -0.282386 0.00428434)
(-17.9536 0.898854 -0.142854)
(-14.1586 1.70349 0.0929753)
(-14.9288 2.08795 0.215672)
(-21.6182 1.53251 -0.0917288)
(-25.5545 1.07168 -0.0720305)
(-24.0503 0.926655 0.375117)
(-25.2944 -0.913468 -0.00398896)
(-28.6353 -3.12749 -0.699171)
(-24.1936 -3.12539 -0.250534)
(-16.6391 -2.3618 0.352667)
(-17.2765 -1.44277 0.0425605)
(1.93754 3.90324 -0.366607)
(5.39078 -2.77725 1.2958)
(4.2427 1.65596 0.22924)
(-1.40727 0.311242 -1.50854)
(-8.62449 -10.9164 1.37819)
(4.51073 11.307 9.34463)
(-4.75463 -1.66173 -83.0081)
(29.6866 6.25474 0.868343)
(26.6486 3.17484 -0.0174327)
(20.8915 3.96449 0.00363339)
(18.7489 2.62384 0.000998766)
(17.6763 1.21515 0.000341446)
(15.0237 -0.524491 0.00262673)
(14.2368 -0.538677 0.000373353)
(11.4311 2.88891 0.000721003)
(8.00209 0.230649 0.00205756)
(5.34385 1.26573 -0.000215645)
(8.34667 0.698984 0.121558)
(6.90955 -1.46194 0.218544)
(-0.178093 2.08052 -0.154154)
(-1.12569 2.55527 -0.0557704)
(-0.940326 0.712675 -0.00255287)
(-4.34009 0.384209 -0.0182856)
(-4.84323 -1.07306 -0.00844719)
(-3.04485 -0.850712 0.0940107)
(-0.648596 -0.773116 0.0655737)
(1.88743 -1.12109 0.00867695)
(1.8445 0.41921 -0.092723)
(-0.0944082 -1.35289 -0.0751599)
(-2.41878 -2.08836 -0.0297296)
(-0.120781 0.878617 0.0163932)
(1.77323 1.21157 0.0133407)
(-3.92513 -0.197738 -0.000167694)
(-8.04963 -1.76357 0.00470521)
(-6.92923 -0.525175 0.127945)
(-6.95318 1.42768 0.103549)
(-9.32004 -0.709436 -0.0506886)
(-12.616 -2.68085 -0.0272741)
(-16.1396 -0.794753 0.0356732)
(-16.7066 1.31369 -0.112258)
(-14.4141 1.27423 0.0879332)
(-15.9112 -0.304478 0.11569)
(-22.1339 -1.0315 -0.0236437)
(-25.2446 -0.256256 -0.0883608)
(-24.527 0.358191 0.0094736)
(-27.0698 -0.40025 -0.00171555)
(-29.2655 -0.496699 -0.141183)
(-23.9837 0.414938 0.0910084)
(-16.7895 -0.833773 0.260536)
(-14.8688 -1.81677 -0.156256)
(-2.46086 -5.87675 0.639064)
(3.01165 -4.47914 -0.268427)
(10.0355 -3.09665 -0.379748)
(4.12313 -3.84977 -0.218622)
(20.9011 12.5402 -4.19254)
(11.0747 52.2381 -10.653)
(-69.6032 20.8255 30.708)
(24.0644 10.0392 -0.298839)
(22.3732 4.56324 -0.295199)
(21.3669 1.2772 0.00476875)
(19.1538 2.04078 0.00111679)
(16.3313 0.606278 0.000351272)
(14.3689 1.48362 0.00100842)
(16.4482 1.39301 0.000353651)
(10.6597 1.72596 -0.000136397)
(6.17161 0.363297 0.000429514)
(7.07158 3.46817 -0.373407)
(5.43653 3.35911 0.162876)
(6.13871 -0.109866 -0.489128)
(2.6554 -0.0310239 -0.0436541)
(-1.51899 1.5947 0.00591918)
(-2.10051 0.91977 -0.130985)
(-5.23886 -0.627673 -0.0871351)
(-5.19898 0.0510283 -0.00231159)
(-3.1216 -0.630042 0.141739)
(-0.684282 -0.852776 -0.127253)
(2.68942 -0.279372 -0.279211)
(0.783008 -0.103361 0.30698)
(-2.06315 -1.18944 0.0750561)
(-0.127513 -0.922153 -0.23875)
(1.85617 1.33004 0.0762233)
(0.130265 0.139755 0.0875826)
(-5.41471 -2.20104 -0.0305925)
(-7.36186 -1.57503 0.00307573)
(-4.53408 0.588996 0.0892692)
(-7.08325 1.77248 -0.0266656)
(-12.3403 0.103519 -0.0115091)
(-13.2427 -1.90428 0.0586799)
(-13.6382 -1.19452 -0.0188424)
(-15.37 0.607474 0.00974524)
(-16.1832 0.423064 0.0623385)
(-17.81 -2.11676 -0.00597469)
(-21.5566 -2.91928 -0.0966401)
(-23.8178 -0.607322 -0.0192753)
(-24.2317 0.443443 0.00600129)
(-26.362 -0.132577 -0.00282613)
(-27.6153 1.63774 -0.0349975)
(-24.6167 3.36962 0.0386083)
(-19.4257 1.85062 -0.153937)
(-13.9549 -0.48362 -0.19239)
(3.68084 -5.64928 -0.835294)
(8.8575 -3.12038 0.565648)
(5.03471 -7.703 0.560467)
(19.8452 -12.3386 0.400821)
(44.6637 5.37054 -4.75389)
(26.7246 -14.19 6.21202)
(-2.42508 20.4384 -0.555735)
(9.29937 8.18807 -0.275223)
(15.6935 4.05057 -0.320331)
(17.7426 2.1548 0.00291272)
(17.9071 1.15983 0.00206349)
(16.9824 1.06805 0.00151311)
(16.0058 3.6701 0.00160916)
(14.5401 1.65778 0.00157674)
(10.1418 -0.195528 -0.000777813)
(10.1856 2.09456 -0.357001)
(9.08528 2.7712 -0.56461)
(3.87022 2.37302 0.182397)
(2.67673 1.82841 -0.172156)
(1.95478 -1.1511 -0.179138)
(0.0603639 0.214745 0.000666557)
(-3.71875 0.0328881 -0.195803)
(-5.42271 -1.15642 -0.0683796)
(-4.84695 1.13128 0.0185919)
(-4.1734 0.595452 0.0534923)
(-0.20835 -0.177271 -0.23669)
(2.82388 -0.197951 0.150563)
(0.705445 -0.498173 0.264379)
(-1.11571 0.400819 -0.231117)
(0.733504 0.415498 -0.147583)
(1.20273 0.526204 0.140968)
(-2.64195 -1.04107 0.0258301)
(-6.06478 -3.70526 -0.384441)
(-4.56056 -1.28986 -0.00586649)
(-2.74604 1.80687 0.167094)
(-7.56306 2.25371 -0.112701)
(-13.9163 1.54761 -0.214933)
(-14.2355 0.0609966 0.0600711)
(-12.999 -0.833228 -0.00156577)
(-14.6875 -0.258567 0.0296531)
(-17.8224 -0.30192 -0.0754636)
(-20.0874 -2.91549 -0.0106276)
(-20.2439 -3.99826 0.0151631)
(-21.0431 -0.740444 0.102894)
(-23.9358 0.843465 0.00186463)
(-25.5747 -0.291876 -0.0576285)
(-24.8887 1.34291 0.0836679)
(-23.722 4.00294 0.0404758)
(-21.6066 3.84352 -0.162846)
(-16.5739 1.5115 0.016241)
(0.703194 2.42827 0.431174)
(0.426963 -0.477001 -0.976891)
(-1.49176 -7.64545 -1.95583)
(-1.38607 -9.76612 -1.05773)
(51.1412 -38.1492 1.69416)
(547.848 -63.9488 -7.56725)
(0.890827 -4.04467 -0.950661)
(8.06256 0.831434 -0.362969)
(14.8324 1.27734 -0.00251893)
(17.7534 1.11593 0.00249953)
(17.7958 1.12488 -0.071821)
(19.4718 1.60032 0.201991)
(15.1 2.6778 0.144516)
(11.6163 1.11315 -0.122359)
(11.2107 1.037 0.00225836)
(9.87822 2.01632 -0.170455)
(7.41808 0.416568 -0.00452389)
(4.25813 0.131928 0.114429)
(1.73067 0.358625 -0.176371)
(0.643911 -1.07507 -0.00483556)
(-0.0404104 -1.05768 0.100634)
(-3.81524 -0.925577 0.0419227)
(-3.86109 -0.333914 0.000863797)
(-3.01184 1.45839 -0.0544704)
(-4.757 2.76263 -0.144748)
(-1.67505 2.21699 -0.0444404)
(2.28757 0.328901 0.204625)
(1.53343 0.0398189 0.000901722)
(-0.92137 0.86472 -0.228316)
(0.0296466 -0.336148 0.00289409)
(0.0337222 -1.16037 0.314078)
(-5.16023 -2.17259 -0.0712615)
(-5.71994 -2.85409 -0.338256)
(-0.471869 -0.574814 0.103491)
(-0.108614 1.92214 0.23701)
(-7.40936 2.67524 -0.169041)
(-15.0829 2.81478 -0.0966283)
(-16.219 1.89908 0.00644476)
(-14.0369 0.349689 -0.0112672)
(-14.7073 -0.19935 -0.015575)
(-19.5078 -0.460046 0.00249247)
(-22.4289 -2.80577 0.00256236)
(-18.8328 -3.92501 0.00353553)
(-17.7677 -1.54035 0.062977)
(-23.674 0.712071 -0.0516134)
(-25.7347 0.312835 -0.188927)
(-22.2465 0.751579 0.0782714)
(-21.4954 2.448 0.0839474)
(-22.5447 2.62969 -0.218949)
(-20.6528 1.42074 -0.00954012)
(0.0226581 -0.554889 -0.139784)
(-3.53308 0.0740056 0.720668)
(-6.99866 0.149453 1.90473)
(-5.79542 5.33108 -3.54985)
(1.45194 0.129985 -0.226592)
(115.055 3.78232 71.3388)
(3.76595 -5.27919 0.253461)
(12.2874 -4.25317 -0.678763)
(15.7817 -1.48636 0.0052555)
(17.3754 -2.53183 0.00518361)
(18.4131 -1.66491 -0.151764)
(18.8727 -1.32946 -0.104955)
(15.3027 -3.39828 0.260802)
(12.4179 -1.33167 -0.415025)
(11.3032 -0.00996041 -0.259018)
(9.39707 -0.718152 0.679772)
(6.66768 -0.122123 0.00635904)
(3.76434 -1.9205 -0.163935)
(1.2137 -2.69981 -0.621198)
(0.228042 -1.20768 0.309221)
(0.187059 -1.3598 0.114593)
(-2.88366 -0.635047 -0.182689)
(-2.45881 1.17993 -0.0235291)
(-0.938002 0.930727 0.126165)
(-3.1535 2.68177 -0.141741)
(-3.1929 3.71228 -0.401108)
(0.0923894 1.91025 0.248776)
(1.35378 0.0978014 -0.0303191)
(-1.57397 -0.192274 0.576113)
(-1.78517 -0.560693 0.285485)
(-1.08909 -2.2116 -0.11161)
(-4.79852 -2.21047 -0.175949)
(-3.97676 0.549909 -0.232791)
(1.58404 1.1603 0.200877)
(1.46483 0.637085 -0.00164993)
(-6.30492 0.783947 0.0640752)
(-14.9305 1.94568 0.00966709)
(-17.4065 2.74052 -0.154055)
(-15.6187 1.62583 -0.183616)
(-15.72 0.415442 0.358142)
(-21.1665 -0.640965 0.207541)
(-24.4941 -1.70556 -0.310787)
(-18.6707 -2.52703 -0.0935863)
(-15.1859 -2.29362 0.195852)
(-21.5373 -0.382712 0.00707465)
(-25.4743 1.77927 -0.214274)
(-22.1442 1.63516 -0.00607005)
(-21.3311 0.703532 0.29089)
(-22.9517 0.216206 -0.0633016)
(-21.7711 -0.103695 -0.0185751)
(1.23981 -1.04298 -1.35619)
(1.21153 -0.203647 2.23515)
(4.72971 10.5255 -0.394382)
(7.15133 13.2822 0.371147)
(11.7167 23.5257 -2.70194)
(145.844 -102.34 -68.635)
(0.984872 -10.1836 2.78084)
(16.0916 -8.88018 0.562282)
(16.9155 -6.81789 0.019467)
(17.4574 -3.52689 0.00519481)
(19.2556 -3.82624 0.00435565)
(17.2929 -1.3457 0.00406147)
(15.0804 -1.77127 0.00401133)
(15.85 -1.49909 0.00452345)
(11.9649 -1.07321 0.00332473)
(9.73505 -0.0590463 0.883041)
(5.94942 -1.82236 -0.0874396)
(1.00763 -3.96606 -0.742998)
(2.53543 -5.11347 0.426487)
(2.29912 -0.92957 0.261749)
(0.697173 -1.08919 -0.425607)
(-0.656943 -0.603819 -0.219957)
(-1.92662 1.86134 0.578809)
(-1.10484 0.891895 0.0710274)
(-1.20615 0.824612 -0.174614)
(-2.57751 2.40138 0.379999)
(-2.2378 2.51466 0.363748)
(-1.14802 -0.540182 -0.00142546)
(-1.754 -1.31878 -0.12829)
(-2.46922 0.0402916 -0.198078)
(-2.01122 -1.58312 -0.203621)
(-1.62197 -0.747895 -0.239042)
(-1.39183 3.07312 0.62464)
(-0.321438 2.82182 0.599853)
(-0.642276 -0.782006 -0.0437323)
(-5.82708 -2.29528 -0.00911067)
(-12.579 0.170961 0.0108649)
(-16.5422 2.24057 -0.286031)
(-16.9121 1.66332 -0.00727444)
(-17.5643 0.293512 0.312413)
(-22.1859 -1.25997 -0.131)
(-24.8084 -0.315302 -0.245851)
(-19.6104 0.539712 0.141254)
(-15.0923 -1.45292 0.338646)
(-18.5744 -1.54811 -0.173433)
(-23.1419 1.65695 -0.236436)
(-23.4402 2.24469 0.415426)
(-23.2367 0.125006 -0.193713)
(-23.599 -0.961215 -0.303431)
(-20.821 -0.539874 0.0230289)
(1.05846 5.08409 0.222764)
(10.9536 3.51698 0.822398)
(9.87608 5.67117 -0.887369)
(16.6427 0.683822 1.87631)
(20.6079 7.31728 7.51323)
(17.1574 -5.61129 -34.4179)
(-4.14264 2.95523 10.4621)
(17.2364 -8.8656 -1.53962)
(22.4642 -6.01563 -1.60022)
(21.1115 -4.55561 0.00373445)
(21.1433 -3.16018 0.00597377)
(21.438 -3.5208 0.00594507)
(15.1118 0.541517 0.00269716)
(13.2906 0.463566 0.00427004)
(13.1038 -0.996222 0.00320221)
(8.45727 0.206065 0.00459494)
(1.78321 -1.73129 -0.056025)
(-0.349161 -1.77698 0.503602)
(5.01485 -0.438933 -0.193332)
(5.25302 -0.890292 -0.00700036)
(0.594822 -1.61855 0.405115)
(0.806759 -0.689731 0.000176739)
(-0.593515 0.0736854 0.142628)
(-2.23273 0.338161 -0.733861)
(-1.26491 -0.958105 -0.109337)
(-1.08213 -0.167158 0.0355801)
(-3.58785 1.30334 -0.596512)
(-3.43511 -0.827878 0.00138478)
(-0.845808 -0.428512 -0.20468)
(-2.11923 0.997074 -0.239015)
(-2.07187 0.00122909 0.482764)
(1.02435 0.885961 0.090887)
(0.480109 2.46392 0.209784)
(-3.23919 2.18619 -0.0612499)
(-4.9286 -1.20575 -0.419336)
(-5.10867 -3.1177 -0.0882271)
(-9.26051 -0.544014 0.108789)
(-15.5439 1.37514 -0.0046198)
(-18.0532 0.636954 0.0164458)
(-19.3741 -0.915086 0.154516)
(-21.9243 -1.60249 -0.233547)
(-22.2442 1.40342 -0.221362)
(-20.0956 3.74667 0.630394)
(-17.793 0.707869 0.280194)
(-17.645 -1.74387 -0.312846)
(-20.7353 0.0512983 0.0980496)
(-24.0611 0.994282 0.259276)
(-25.3364 -0.705949 -0.174988)
(-23.7804 -0.992247 -0.0207739)
(-19.8941 0.389271 0.218962)
(-0.730187 4.12218 1.03096)
(1.98637 4.85203 0.284429)
(1.21174 -5.23081 -0.0912285)
(-7.86334 -0.941853 -3.15416)
(5.37282 -27.224 5.25235)
(41.5165 2.59207 28.5874)
(-21.6395 -103.211 12.0706)
(20.9682 -3.60403 -2.41285)
(22.3128 -2.20764 0.00564375)
(21.0272 -2.94348 0.772997)
(20.5474 -0.948138 0.00400342)
(21.9256 -1.5213 0.00319021)
(20.0559 -0.935807 0.00588259)
(13.9262 0.580238 0.0044168)
(11.6462 -1.30613 0.00164866)
(8.81267 -1.72525 0.00129987)
(3.4727 -1.48802 0.000627037)
(2.62442 1.39418 0.410057)
(3.64153 4.446 0.00538809)
(0.824289 -0.518835 0.205955)
(0.949523 -1.563 -0.542597)
(1.45775 -0.168219 -0.00103111)
(-0.642484 -1.20298 -0.132148)
(-2.39665 -0.635572 -0.276495)
(-1.83578 -1.68488 0.294549)
(0.249757 -2.10376 0.243263)
(-3.06838 -0.562244 -0.223493)
(-3.31013 0.110987 -0.00164245)
(0.527855 1.3387 -0.150451)
(-1.93526 1.58913 0.374095)
(-2.14858 1.07701 0.266497)
(1.45664 1.82057 -0.139778)
(0.230841 1.18998 -0.00195943)
(-4.91214 0.534761 -0.083764)
(-7.26983 -0.749155 -0.349254)
(-4.99435 -2.3247 0.565049)
(-6.96279 -1.4809 0.0655744)
(-15.0687 -0.0221114 0.00471165)
(-19.7756 -0.685395 -0.267041)
(-20.3623 -1.75002 -0.225365)
(-19.2836 -0.51755 -0.0913192)
(-18.1225 3.10256 0.495709)
(-20.4861 4.72256 0.465086)
(-21.9548 2.47669 -0.483972)
(-19.3906 -0.619445 -0.197199)
(-19.72 -1.0067 0.00619594)
(-24.3895 -1.594 0.232312)
(-25.7172 -2.9778 -0.503858)
(-22.2262 -1.25987 0.00966505)
(-20.0711 1.01704 0.31689)
(1.98054 -2.87089 0.703734)
(-0.729458 2.46536 -0.296268)
(2.64299 0.284935 -1.30243)
(5.97049 6.63957 -0.209999)
(8.45705 37.4504 -3.16079)
(20.9714 15.3739 -14.8383)
(65.3767 -2.75338 9.61209)
(24.0697 -1.73188 1.05988)
(23.2802 -0.0142723 0.00553383)
(22.6894 0.770561 -0.508483)
(22.918 0.938892 -0.274809)
(21.4549 2.48956 0.1668)
(17.74 -0.376373 0.262044)
(12.8236 -0.276255 0.00359697)
(10.2238 -1.71204 -0.00152439)
(8.23078 -1.79512 -0.305075)
(5.68566 -2.17806 -0.00177134)
(7.0685 0.606987 -0.022166)
(2.61365 2.8136 0.337559)
(-2.25426 1.26245 -0.323463)
(1.03519 0.298668 -0.436901)
(1.25381 0.697654 0.621315)
(-1.17606 -0.345723 0.3067)
(-2.83749 -1.20841 -0.295066)
(-3.09944 -1.37508 0.374852)
(0.323528 -2.50505 -0.0906817)
(-0.820454 -1.84336 -0.486062)
(-1.05818 0.866246 -0.0681776)
(1.00096 1.63311 0.330844)
(-2.44739 1.22011 0.533423)
(-1.78122 0.761857 -0.489108)
(1.16409 1.07324 -0.0663375)
(-1.12778 0.822946 0.567774)
(-5.66402 -0.398971 -0.00104954)
(-8.50358 -0.829559 -0.158483)
(-6.02037 -1.38616 -0.000865655)
(-6.38149 -2.25754 -0.251988)
(-14.5513 -1.55006 -0.00426535)
(-20.2128 -0.727225 0.0264083)
(-19.1611 -0.639897 -0.192988)
(-15.8554 1.21322 0.030815)
(-15.6962 3.47731 0.386827)
(-20.8823 3.75376 -0.0951539)
(-24.4713 2.5584 -0.475197)
(-21.9967 0.965676 0.170513)
(-21.9545 -1.12426 -0.0111978)
(-26.5261 -3.57295 -0.677661)
(-24.9159 -4.52725 -0.683402)
(-18.7868 -2.21216 0.393136)
(-19.5955 0.0427864 0.0554013)
(5.94897 0.346493 -1.58354)
(5.93747 0.397748 -0.893322)
(6.45127 5.32153 0.19594)
(26.6135 1.46979 1.94472)
(6.45146 -12.1788 14.6795)
(5.76635 -10.2971 -30.0737)
(-15.4972 -19.0498 -0.618033)
(27.9451 0.839144 0.894293)
(25.4528 2.64921 0.00202756)
(22.2175 3.74139 0.00143328)
(22.6976 1.38774 0.111666)
(20.2761 0.506582 0.000612519)
(16.6023 -1.57548 -0.542228)
(12.2546 -1.62629 0.00340037)
(9.74912 -0.410401 0.00903904)
(8.2297 -0.628721 0.156834)
(6.47918 -0.566262 0.00219704)
(8.86347 -0.870589 -0.277102)
(4.45675 0.498446 0.169332)
(-2.31828 2.5704 0.292592)
(0.245666 2.11508 -0.168829)
(0.650758 0.856743 0.491495)
(-3.02474 0.413656 0.234115)
(-3.68254 -1.64473 -0.268519)
(-3.45758 -1.15316 -0.275477)
(-0.333258 -1.61434 0.00684341)
(1.14852 -1.98287 0.00147892)
(1.03344 0.495262 0.394232)
(0.969586 0.307592 0.0295289)
(-3.02324 -0.344028 -0.761577)
(-2.3298 0.355963 -0.285788)
(1.53307 0.937877 0.218542)
(-1.60946 0.777954 0.178084)
(-6.97629 -1.30751 -0.441543)
(-8.50366 -1.09393 -0.212632)
(-6.77945 -0.026593 0.196578)
(-7.16586 -1.85032 -0.0681574)
(-13.1552 -2.36836 0.067809)
(-18.6383 -0.27876 0.00318869)
(-17.9341 0.86925 -0.252753)
(-14.1359 1.6863 0.247891)
(-14.9487 2.05614 0.439567)
(-21.636 1.53553 -0.231495)
(-25.4404 1.08573 -0.168666)
(-23.9949 0.944554 0.51413)
(-25.3952 -0.93011 -0.00744739)
(-28.6434 -3.19048 -1.00198)
(-24.015 -3.17287 -0.385017)
(-16.5168 -2.40705 0.797781)
(-17.3611 -1.44816 0.100823)
(2.03984 4.02073 -0.834037)
(5.47569 -2.81122 1.96188)
(3.96955 1.65555 0.950914)
(-2.13441 0.00903028 -2.12148)
(-7.50251 -10.0657 -13.2503)
(0.270665 20.4179 35.1455)
(-210.698 -29.3519 -102.147)
(31.0074 6.26609 1.76206)
(26.8929 3.16513 0.00266428)
(21.1088 3.9784 0.00710627)
(18.8763 2.62433 0.00553445)
(17.7495 1.21715 0.00215087)
(15.0763 -0.484281 0.00422121)
(14.2815 -0.537603 0.00307217)
(11.4689 2.89439 0.00217094)
(8.03613 0.220246 0.00419682)
(5.38276 1.24269 0.000980145)
(8.4012 0.729435 0.38872)
(6.91616 -1.47881 0.297772)
(-0.236071 2.05521 -0.408444)
(-1.10712 2.51469 -0.142623)
(-0.872081 0.649418 -0.00344148)
(-4.30466 0.330731 -0.0337941)
(-4.79303 -1.09947 -0.00791505)
(-3.06275 -0.859241 0.199276)
(-0.71378 -0.86674 0.133133)
(1.81957 -1.20965 0.0153658)
(1.80196 0.421382 -0.237521)
(-0.0484626 -1.32969 -0.158407)
(-2.38453 -2.01102 -0.0794598)
(-0.17804 0.98444 0.126141)
(1.69136 1.31278 0.0192786)
(-3.93567 -0.204915 -0.0112145)
(-8.00072 -1.7672 -0.00482657)
(-6.90156 -0.518868 0.284863)
(-6.96954 1.40541 0.260442)
(-9.30761 -0.783565 -0.0879136)
(-12.5843 -2.74369 -0.0705535)
(-16.1675 -0.827992 0.0797307)
(-16.7055 1.29316 -0.202033)
(-14.3726 1.27499 0.207605)
(-15.8858 -0.283376 0.22823)
(-22.0954 -0.980357 -0.0508617)
(-25.2102 -0.19528 -0.162915)
(-24.5188 0.330145 0.0139587)
(-27.1238 -0.419066 -0.00673339)
(-29.3277 -0.507884 -0.297604)
(-23.9361 0.360247 0.294018)
(-16.6308 -1.02449 0.660181)
(-14.774 -1.95798 -0.404207)
(-2.58598 -5.90366 0.532451)
(2.98298 -4.5462 -0.014037)
(9.9604 -3.04791 -0.99255)
(5.2866 -3.7556 -0.91116)
(21.9388 13.1404 22.3073)
(6.55233 54.5597 -16.6752)
(-72.8812 32.5491 40.3699)
(24.3227 10.2814 -0.487225)
(22.6055 4.75684 -0.501375)
(21.5388 1.40757 0.00743848)
(19.2461 2.1182 0.00416127)
(16.3899 0.652776 0.00386834)
(14.4108 1.51527 0.00499617)
(16.4822 1.41301 0.00358392)
(10.6891 1.73841 0.00263977)
(6.16966 0.346265 0.000471102)
(7.11389 3.43112 -0.747263)
(5.4596 3.34558 0.347434)
(6.12056 -0.184577 -0.887048)
(2.66999 -0.061931 -0.185235)
(-1.51453 1.59099 0.00735764)
(-2.07725 0.844186 -0.337679)
(-5.21195 -0.712054 -0.305625)
(-5.16799 -0.0201421 -0.000993184)
(-3.16684 -0.750037 0.203285)
(-0.771586 -0.937028 -0.223515)
(2.76087 -0.30843 -0.447475)
(0.879234 -0.0861185 0.444281)
(-2.07062 -1.24712 0.242237)
(-0.127456 -1.0177 -0.479591)
(1.82028 1.26801 0.203996)
(0.0435829 0.13989 0.16444)
(-5.46032 -2.15921 -0.0828797)
(-7.36585 -1.5519 0.00167432)
(-4.53716 0.587463 0.157466)
(-7.11463 1.73648 -0.187068)
(-12.3515 0.0583982 -0.042781)
(-13.2062 -1.88851 0.10882)
(-13.592 -1.16673 -0.044251)
(-15.308 0.683876 0.00781817)
(-16.1085 0.475757 0.128708)
(-17.7669 -2.06957 -0.0120773)
(-21.5242 -2.87871 -0.192595)
(-23.8024 -0.557735 -0.0319773)
(-24.276 0.470008 0.0216213)
(-26.4413 -0.100644 -0.00691024)
(-27.667 1.68857 -0.0866007)
(-24.6623 3.43108 0.153755)
(-19.4114 1.89394 -0.252232)
(-13.6266 -0.510426 -0.296574)
(3.74185 -5.66632 -0.911622)
(9.03422 -3.24521 2.29442)
(4.97417 -7.75286 1.38251)
(18.6485 -12.6625 -0.346082)
(43.2048 4.11437 -24.764)
(24.0607 -33.4263 25.5334)
(-1.54501 20.7587 -5.52535)
(9.38986 8.61243 -0.403099)
(15.7966 4.35062 -0.735616)
(17.8152 2.33847 0.00624088)
(17.9299 1.26187 0.00463097)
(16.9986 1.14354 0.0044703)
(16.0254 3.71742 0.00260551)
(14.5609 1.68196 0.00319601)
(10.1335 -0.176163 0.00117401)
(10.1578 2.08697 -0.79622)
(9.129 2.78878 -1.55601)
(3.87795 2.36106 0.513785)
(2.66144 1.80395 -0.4868)
(1.98537 -1.2197 -0.249626)
(0.0226186 0.165001 0.00225965)
(-3.75161 -0.0222945 -0.538032)
(-5.38233 -1.23863 -0.132637)
(-4.84232 1.03899 0.0398583)
(-4.20837 0.510659 0.100785)
(-0.161281 -0.173332 -0.369619)
(2.88211 -0.160578 0.281919)
(0.626069 -0.55755 0.376309)
(-1.21228 0.317369 -0.471193)
(0.760887 0.354529 -0.368626)
(1.26412 0.464077 0.262739)
(-2.5946 -1.06152 0.0616933)
(-6.04741 -3.63186 -0.701184)
(-4.56587 -1.18031 -0.00744704)
(-2.7923 1.91709 0.31494)
(-7.63408 2.31451 -0.205832)
(-13.8391 1.63943 -0.319648)
(-14.1127 0.178089 0.263046)
(-12.9506 -0.707563 -0.00369577)
(-14.6548 -0.153616 0.0556094)
(-17.817 -0.244757 -0.241515)
(-20.0768 -2.89179 -0.020367)
(-20.202 -3.99304 0.0308543)
(-21.0256 -0.777375 0.234537)
(-23.9493 0.83076 0.00302433)
(-25.5978 -0.287243 -0.109335)
(-24.9132 1.45139 0.139402)
(-23.6833 4.16942 0.034268)
(-21.5582 4.0127 -0.418768)
(-16.4996 1.62962 0.0127915)
(0.450033 2.49068 1.38458)
(0.351534 -0.500652 -2.35597)
(-1.82622 -7.56118 -3.75685)
(1.02964 -10.0708 -0.55741)
(51.4053 -36.3926 35.4891)
(175.332 -96.1292 -201.997)
(0.955784 -2.52602 1.2209)
(7.80219 1.33684 -0.618133)
(14.7669 1.61999 0.00386277)
(17.6788 1.32139 0.00446057)
(17.7535 1.26844 -0.24888)
(19.4627 1.70764 0.33439)
(15.0781 2.76729 0.305116)
(11.6155 1.13213 -0.234693)
(11.2005 1.05133 0.00561105)
(9.87418 2.06675 -0.450805)
(7.45525 0.445518 -0.00495103)
(4.22843 0.096889 0.240654)
(1.64219 0.353599 -0.428099)
(0.626679 -1.06006 -0.061694)
(-0.0192438 -1.05387 0.155921)
(-3.83288 -0.928891 0.0669147)
(-3.88126 -0.359954 -0.000733566)
(-2.98489 1.40855 -0.147185)
(-4.68286 2.76347 -0.3047)
(-1.61043 2.25374 -0.094152)
(2.27961 0.338888 0.370644)
(1.47773 0.0200512 -0.00405738)
(-0.931253 0.919609 -0.498359)
(0.0558553 -0.267695 0.0030108)
(0.0485231 -1.11786 0.434048)
(-5.07814 -2.15044 -0.153336)
(-5.60357 -2.88184 -0.553297)
(-0.429634 -0.497172 0.210155)
(-0.17216 2.03763 0.337453)
(-7.46342 2.91008 -0.264914)
(-15.0233 3.10186 -0.167602)
(-16.1394 2.03841 0.0215952)
(-14.0052 0.46757 -0.0224165)
(-14.7304 -0.0966192 -0.0274565)