/*--------------------------------*- C++ -*----------------------------------*\
| =========                 |                                                 |
| \\      /  F ield         | OpenFOAM: The Open Source CFD Toolbox           |
|  \\    /   O peration     | Version:  5.0                                   |
|   \\  /    A nd           | Web:      www.OpenFOAM.org                      |
|    \\/     M anipulation  |                                                 |
\*---------------------------------------------------------------------------*/
FoamFile
{
    version     2.0;
    format      ascii;
    class       volVectorField;
    location    "0.4";
    object      ddtCorrDdt0(U);
}
// * * * * * * * * * * * * * * * * * * * * * * * * * * * * * * * * * * * * * //

dimensions      [0 1 -2 0 0 0 0];

internalField   nonuniform List<vector> 
4440
(
(5.17776e-05 -0.000482977 -1.43932e-05)
(-0.00373703 -0.000120591 0.000655301)
(-0.00657633 9.32451e-05 0.000852838)
(-0.00592671 0.00500515 -0.00234212)
(0.00273217 -0.000348916 -0.00174505)
(0.0766193 -0.00981832 0.00327144)
(0.00783601 -0.00941431 -0.00074507)
(0.0156461 -0.00556627 -0.000491615)
(0.0193351 -0.00205533 4.44603e-06)
(0.0211452 -0.0032193 2.90851e-06)
(0.0223037 -0.00213909 -0.00011498)
(0.0227993 -0.00168393 -5.89311e-05)
(0.0185457 -0.00415568 0.000169689)
(0.0150492 -0.00165026 -0.000314526)
(0.0135807 -3.25971e-05 -9.0594e-05)
(0.0113328 -0.000917785 0.000390663)
(0.0081096 -0.000149352 2.25725e-06)
(0.00457691 -0.00227717 -9.83693e-05)
(0.00140499 -0.00336938 -0.000229999)
(0.000223978 -0.00154234 0.000124563)
(0.000298064 -0.0016694 7.1157e-05)
(-0.00338972 -0.000818731 -0.000117809)
(-0.00294104 0.00133014 -2.80954e-05)
(-0.00117686 0.00107603 7.97731e-05)
(-0.0038881 0.00324179 -5.20848e-05)
(-0.00391826 0.00452499 -0.000236553)
(0.000125662 0.00231317 0.000115696)
(0.0016587 8.54994e-05 -1.46078e-05)
(-0.00191435 -0.00035677 0.000469736)
(-0.00216626 -0.000759156 0.000199707)
(-0.00131703 -0.00276242 -6.98927e-05)
(-0.00573329 -0.00275292 -0.000105248)
(-0.00489731 0.000663006 -0.000178581)
(0.00169827 0.00142271 0.000117399)
(0.00158251 0.000736693 -2.97904e-06)
(-0.00777076 0.000741443 6.13794e-05)
(-0.0179391 0.00217183 2.06766e-05)
(-0.0208664 0.00322378 -0.000126603)
(-0.0188214 0.00192037 -0.000135855)
(-0.018916 0.00045352 0.000241769)
(-0.025402 -0.000829378 0.000134239)
(-0.0294184 -0.00208731 -0.000245601)
(-0.0224797 -0.00313588 -5.24168e-05)
(-0.01837 -0.00293633 0.000120176)
(-0.0260514 -0.000570627 5.2892e-05)
(-0.0307529 0.00202826 -0.000127912)
(-0.0267699 0.00186924 1.0011e-05)
(-0.0257554 0.000822786 0.000153026)
(-0.0275831 0.000196336 -3.77676e-05)
(-0.0260721 -0.000158114 -1.4103e-06)
(0.00115433 -0.00104968 -0.000641822)
(0.00114918 -0.000210929 0.000987527)
(0.00490504 0.0106256 -0.000556084)
(0.0071402 0.0129179 0.000381633)
(0.0113094 0.0247425 -0.00176884)
(0.0513242 -0.0816556 -0.00936178)
(0.00116627 -0.0132499 -0.000210102)
(0.0197783 -0.0107775 9.98529e-05)
(0.0207973 -0.00819357 -7.5211e-06)
(0.0212861 -0.00425222 2.00229e-06)
(0.0233581 -0.00459807 -8.45374e-07)
(0.0209352 -0.0016051 -4.3307e-07)
(0.0182406 -0.00210826 9.74143e-07)
(0.0191478 -0.00183679 1.59919e-06)
(0.0144192 -0.00130814 -4.95167e-07)
(0.0117568 -4.9911e-05 0.000413095)
(0.00723478 -0.00219786 -5.16704e-05)
(0.00110637 -0.00480886 -0.000245901)
(0.00300649 -0.00610067 0.000188466)
(0.00289757 -0.00109083 0.000127839)
(0.000856851 -0.00131796 -0.000329907)
(-0.000846095 -0.000786185 -0.000136932)
(-0.00228706 0.00210128 0.000236258)
(-0.00123658 0.000998121 4.51634e-05)
(-0.00142101 0.0010009 -9.43513e-05)
(-0.00318319 0.00293585 0.000247366)
(-0.00279313 0.00307432 0.000264493)
(-0.0014882 -0.000669834 -1.15804e-06)
(-0.0021666 -0.00165228 -5.03773e-05)
(-0.0029741 -6.15621e-05 -0.000123133)
(-0.00244958 -0.00204594 -0.000132796)
(-0.00193166 -0.00104924 -0.000202006)
(-0.00167608 0.00351112 0.000388709)
(-0.000478238 0.00337215 0.000277221)
(-0.000982058 -0.000892898 -2.01291e-05)
(-0.00713253 -0.00256237 -8.59715e-06)
(-0.0150711 0.000384222 -5.37571e-07)
(-0.0198586 0.0027922 -0.000205385)
(-0.0203755 0.00209506 -5.90086e-06)
(-0.0211573 0.000408169 0.000197659)
(-0.0266795 -0.00151513 -9.68472e-05)
(-0.0299062 -0.000452791 -0.000147334)
(-0.0237509 0.000470475 2.8641e-05)
(-0.0181988 -0.00188348 0.000188545)
(-0.0223179 -0.00191589 -0.000103263)
(-0.02796 0.00194781 -8.33525e-05)
(-0.0283115 0.00263275 0.000147228)
(-0.0279891 0.000170882 -0.000133825)
(-0.0283887 -0.00109339 -0.000225501)
(-0.0249292 -0.000611859 -2.92851e-05)
(0.00109527 0.0049784 -5.30315e-06)
(0.0108778 0.00351537 0.00014213)
(0.0098388 0.00562014 0.000217232)
(0.0166746 0.000676204 0.00116892)
(0.0211051 0.00754965 0.00391087)
(0.0112152 -0.00501017 0.02719)
(0.00466892 -0.0324059 -0.00283871)
(0.0230237 -0.00998728 -0.000884372)
(0.0274844 -0.00693988 -0.000787155)
(0.0256344 -0.00532992 5.39013e-06)
(0.0256167 -0.00369252 4.60245e-06)
(0.0259074 -0.00417185 3.99693e-06)
(0.0182572 0.000689743 1.25941e-06)
(0.0160494 0.000578482 1.51616e-06)
(0.015815 -0.00119171 8.58417e-07)
(0.0102168 0.000276546 8.48033e-07)
(0.00216031 -0.00209029 -3.79816e-05)
(-0.000300056 -0.0021805 0.000143177)
(0.00606017 -0.000451102 -0.000263425)
(0.00619647 -0.00105133 -5.98195e-06)
(0.000679416 -0.00196355 0.00029069)
(0.00088656 -0.000829359 4.45075e-07)
(-0.00071621 0.000133377 7.27176e-05)
(-0.00255116 0.00037079 -0.000295202)
(-0.00146386 -0.0012677 -4.80478e-05)
(-0.00132881 -0.000287811 2.67001e-05)
(-0.00438565 0.00156638 -0.000184972)
(-0.0042467 -0.00105178 2.49988e-06)
(-0.00115112 -0.000474287 -9.34174e-05)
(-0.00266326 0.00119724 -0.000180208)
(-0.00254972 -8.29543e-06 0.000235178)
(0.00121565 0.00105968 5.49391e-05)
(0.000622664 0.00291934 0.000135593)
(-0.00381213 0.00260765 4.55368e-06)
(-0.00583178 -0.00140829 -0.000212613)
(-0.00616804 -0.00359237 -5.53618e-05)
(-0.0112452 -0.000516572 6.67652e-05)
(-0.0187303 0.00174994 -4.31066e-06)
(-0.0218021 0.000843786 9.38907e-06)
(-0.0234285 -0.00100505 0.000101379)
(-0.0264744 -0.00185724 -0.000183695)
(-0.0269373 0.00166807 -0.000140301)
(-0.024273 0.00452062 0.000312567)
(-0.021351 0.000970938 8.88096e-05)
(-0.0212583 -0.0020509 -0.000113104)
(-0.0250713 9.45736e-05 4.11275e-05)
(-0.0289948 0.00127523 0.00012292)
(-0.0304113 -0.00077774 -0.000105052)
(-0.0285588 -0.00110148 -8.55331e-06)
(-0.0239393 0.000531148 0.000107466)
(-0.000681825 0.00409648 0.000566997)
(0.00196223 0.00485916 0.000180452)
(0.00136647 -0.00509946 3.85204e-05)
(-0.00809289 -0.000964963 -0.00212999)
(0.0039977 -0.0272975 0.000520395)
(0.0396953 0.00158869 0.00844513)
(-0.0279358 -0.0944319 0.000968989)
(0.025156 -0.0035934 -0.00152465)
(0.026631 -0.00224449 -2.79018e-06)
(0.0253463 -0.00324887 0.000388415)
(0.0248039 -0.000967 1.44658e-06)
(0.02642 -0.00173783 1.05913e-06)
(0.0241728 -0.00110385 -6.6655e-07)
(0.0167941 0.000733437 -9.0167e-07)
(0.0140458 -0.00156247 -7.56864e-07)
(0.0106294 -0.00205429 -1.3302e-06)
(0.00416614 -0.00179744 -1.44391e-06)
(0.00315755 0.00166809 0.000230086)
(0.00441541 0.00521512 5.95419e-05)
(0.00100696 -0.000662312 0.000112608)
(0.0011368 -0.00190704 -0.000398069)
(0.00177459 -0.000250732 -2.86644e-07)
(-0.000787659 -0.00141639 -9.06917e-05)
(-0.00299046 -0.000777917 -0.000120283)
(-0.00224215 -0.00214398 0.000186347)
(0.000359925 -0.00264528 0.00015817)
(-0.00375365 -0.000746607 -0.00012252)
(-0.0040353 0.000108195 -5.19107e-06)
(0.000645763 0.00161851 -0.000100431)
(-0.00239534 0.00197553 0.0002685)
(-0.0026191 0.00141284 0.000125306)
(0.0017285 0.00221085 -8.94556e-05)
(0.000256566 0.00150333 -7.28823e-06)
(-0.00589196 0.000703524 -4.04674e-05)
(-0.00872909 -0.000834733 -0.000233864)
(-0.00601115 -0.00277974 0.000228129)
(-0.00839287 -0.00164833 6.06223e-05)
(-0.0181611 8.71447e-05 2.48916e-06)
(-0.0238195 -0.000736971 -9.03688e-05)
(-0.0245315 -0.00198284 -0.000109077)
(-0.0233328 -0.000492719 -5.87903e-05)
(-0.0219346 0.00386794 0.000240177)
(-0.0246296 0.00592926 0.00028467)
(-0.0264117 0.00317986 -0.000288564)
(-0.023407 -0.00059275 -9.07848e-05)
(-0.023803 -0.00106443 7.03161e-06)
(-0.0294053 -0.00174338 0.00017727)
(-0.0309571 -0.00341453 -0.000207854)
(-0.0267491 -0.00145904 7.43656e-06)
(-0.0242209 0.00122107 0.000158036)
(0.00205172 -0.00274659 0.000462141)
(-0.000612295 0.00250662 -0.000180807)
(0.00257721 0.000334232 -0.000885584)
(0.00528963 0.00634168 -6.17959e-05)
(0.00726498 0.0377309 -0.00417158)
(0.0251666 0.0137364 -0.0162821)
(0.131462 -0.0128657 0.00838724)
(0.0288556 -0.00182589 0.000660543)
(0.0279086 0.000289674 1.06748e-05)
(0.0272377 0.00117658 -0.000363911)
(0.0275031 0.00127296 -0.000174499)
(0.0257385 0.00310494 9.59178e-05)
(0.021348 -0.000323948 0.00018479)
(0.0154712 -0.00027653 1.25611e-06)
(0.0123328 -0.00202073 -1.72095e-06)
(0.00992421 -0.00216022 -0.000134408)
(0.00681707 -0.00262412 -5.93986e-07)
(0.00846536 0.000756457 -1.96057e-05)
(0.00313493 0.00337895 0.000226757)
(-0.00270124 0.00147388 -0.00026114)
(0.00119765 0.000295579 -0.000389736)
(0.00149578 0.000749822 0.000538454)
(-0.00137312 -0.000533142 0.00011681)
(-0.00346344 -0.00151696 -0.000198667)
(-0.00379785 -0.00166654 0.000195597)
(0.000420081 -0.00309213 -5.35638e-05)
(-0.000945502 -0.00229035 -0.000279681)
(-0.00128961 0.00106141 -4.65794e-05)
(0.00118169 0.00197813 0.000275019)
(-0.00292127 0.00157741 0.000247072)
(-0.00225305 0.00107816 -0.000233272)
(0.00132782 0.00148781 -4.34474e-05)
(-0.00126136 0.00112005 0.000228193)
(-0.00673488 -0.000351521 3.1096e-07)
(-0.0101861 -0.000872616 -5.90222e-05)
(-0.00718073 -0.00158449 -3.82943e-07)
(-0.00766015 -0.00266511 -0.000208991)
(-0.0175933 -0.00181727 -4.94385e-07)
(-0.0243891 -0.000802733 1.75839e-05)
(-0.0231188 -0.000719709 -0.000108284)
(-0.0191568 0.00151516 2.10838e-05)
(-0.0189115 0.00429871 0.000223174)
(-0.025137 0.0046752 -8.41838e-05)
(-0.029503 0.00316624 -0.000187375)
(-0.0265588 0.00117375 0.000131894)
(-0.0265086 -0.00128895 -2.7762e-06)
(-0.031932 -0.00416399 -0.000269978)
(-0.0300507 -0.00536779 -0.000465276)
(-0.0227633 -0.00272106 0.000139414)
(-0.0236479 -5.24584e-06 5.65267e-05)
(0.00590123 0.000404467 -0.00115713)
(0.00582185 0.000311508 -0.000491486)
(0.00617634 0.00521626 0.000173181)
(0.0268875 0.00165291 0.00118567)
(0.00636795 -0.011112 0.00978898)
(-0.0026244 -0.00690903 -0.00485809)
(-0.00317579 -0.0186827 0.00297508)
(0.033194 0.0012529 0.000535019)
(0.030394 0.00340143 -8.12326e-07)
(0.026576 0.0046178 -2.15099e-06)
(0.0272174 0.00175101 5.75651e-05)
(0.0244183 0.000684376 4.8612e-08)
(0.019951 -0.00180165 -0.000314046)
(0.0146714 -0.00191611 2.99275e-06)
(0.0116933 -0.000458266 3.75465e-06)
(0.00987473 -0.000762817 0.000100314)
(0.00781664 -0.000685109 1.71074e-09)
(0.0106607 -0.00106531 -0.000142962)
(0.00530649 0.000585833 0.000129001)
(-0.0028467 0.00308578 0.000256993)
(0.000233172 0.00257798 -0.000132821)
(0.000735915 0.00104391 0.000320207)
(-0.0036215 0.000473651 0.000160266)
(-0.00440662 -0.00203878 -0.00016717)
(-0.00421286 -0.0014263 -0.000166309)
(-0.000417365 -0.0019342 -4.98721e-06)
(0.00144097 -0.00238738 -2.92425e-06)
(0.00129714 0.000638197 0.000162939)
(0.00128955 0.000424998 2.2683e-05)
(-0.0035191 -0.000397947 -0.000289572)
(-0.00272845 0.000428673 -0.000150521)
(0.00178092 0.00128758 9.38481e-05)
(-0.00204256 0.00107607 9.5558e-05)
(-0.00838041 -0.00148549 -0.000235537)
(-0.0102698 -0.00129784 -0.000111476)
(-0.00825131 -1.65837e-05 7.64573e-05)
(-0.00868089 -0.00225191 -8.88275e-05)
(-0.0158324 -0.00287309 4.6226e-05)
(-0.0224483 -0.000340224 5.16186e-06)
(-0.0216309 0.00108296 -0.000172113)
(-0.0170586 0.0020524 0.000112018)
(-0.0179865 0.00251561 0.000259846)
(-0.026046 0.0018464 -0.000110517)
(-0.0307885 0.00129118 -8.67837e-05)
(-0.0289763 0.00111645 0.000451948)
(-0.0304752 -0.00110056 -4.80597e-06)
(-0.0345004 -0.00376806 -0.000842375)
(-0.0291489 -0.00376553 -0.000301848)
(-0.0200471 -0.00284554 0.0004249)
(-0.0208151 -0.00173827 5.12777e-05)
(0.0019384 0.00390324 -0.00036662)
(0.00538849 -0.00277727 0.00129581)
(0.00424156 0.00165595 0.000229237)
(-0.00140589 0.000311207 -0.00150854)
(-0.00862792 -0.0109167 0.00137821)
(0.00447223 0.0113098 0.00934411)
(0.00193548 -0.000156282 -0.0865166)
(0.0357669 0.00753583 0.0010462)
(0.0321067 0.00382511 -2.10033e-05)
(0.0251705 0.00477649 4.37758e-06)
(0.0225891 0.00316126 1.20333e-06)
(0.0212967 0.00146403 4.11381e-07)
(0.0181009 -0.000631917 3.16473e-06)
(0.0171528 -0.000649008 4.49823e-07)
(0.0137724 0.00348062 8.68678e-07)
(0.00964107 0.00027789 2.47898e-06)
(0.00643837 0.00152498 -2.59814e-07)
(0.0100562 0.000842149 0.000146455)
(0.00832476 -0.00176137 0.000263306)
(-0.00021457 0.00250665 -0.000185728)
(-0.00135625 0.00307864 -6.71932e-05)
(-0.00113292 0.000858644 -3.07574e-06)
(-0.00522902 0.000462902 -2.20309e-05)
(-0.00583522 -0.00129285 -1.01773e-05)
(-0.00366849 -0.00102495 0.000113266)
(-0.000781442 -0.000931465 7.90045e-05)
(0.00227401 -0.00135071 1.04542e-05)
(0.00222229 0.000505073 -0.000111714)
(-0.000113745 -0.00162999 -9.05541e-05)
(-0.0029142 -0.0025161 -3.58188e-05)
(-0.00014552 0.00105857 1.97509e-05)
(0.00213642 0.00145973 1.60731e-05)
(-0.00472908 -0.000238239 -2.0204e-07)
(-0.00969835 -0.00212479 5.66893e-06)
(-0.00834847 -0.000632741 0.00015415)
(-0.00837733 0.0017201 0.000124758)
(-0.011229 -0.000854742 -6.10706e-05)
(-0.0152 -0.00322994 -3.28603e-05)
(-0.0194453 -0.000957534 4.29798e-05)
(-0.0201284 0.00158276 -0.00013525)
(-0.0173664 0.00153522 0.000105944)
(-0.0191701 -0.00036684 0.000139386)
(-0.0266674 -0.00124277 -2.84864e-05)
(-0.0304152 -0.000308743 -0.000106459)
(-0.0295506 0.000431556 1.1414e-05)
(-0.0326143 -0.000482229 -2.06693e-06)
(-0.0352596 -0.000598433 -0.0001701)
(-0.028896 0.000499925 0.000109649)
(-0.0202283 -0.00100455 0.000313899)
(-0.0179143 -0.00218887 -0.00018826)
(-0.00246098 -0.00587677 0.00063907)
(0.00301008 -0.00447914 -0.000268428)
(0.0100382 -0.00309663 -0.000379751)
(0.00412506 -0.00384975 -0.000218627)
(0.0209039 0.0125399 -0.00419243)
(0.0110914 0.0522311 -0.0106504)
(-0.0838601 0.0250909 0.0369976)
(0.0289932 0.0120955 -0.000360047)
(0.0269557 0.00549788 -0.000355662)
(0.0257432 0.0015388 5.74548e-06)
(0.0230769 0.00245877 1.34553e-06)
(0.0196763 0.000730455 4.23219e-07)
(0.017312 0.0017875 1.21496e-06)
(0.0198171 0.00167833 4.26085e-07)
(0.0128431 0.00207947 -1.64334e-07)
(0.00743567 0.000437708 5.17486e-07)
(0.00851998 0.00417852 -0.000449887)
(0.00655004 0.00404712 0.000196236)
(0.00739604 -0.000132368 -0.000589311)
(0.00319927 -3.73781e-05 -5.25953e-05)
(-0.0018301 0.00192133 7.13155e-06)
(-0.00253074 0.00110816 -0.000157814)
(-0.00631188 -0.000756233 -0.000104982)
(-0.00626383 6.14798e-05 -2.78505e-06)
(-0.00376096 -0.000759087 0.00017077)
(-0.000824436 -0.00102744 -0.000153317)
(0.00324026 -0.000336593 -0.000336398)
(0.000943383 -0.000124532 0.000369855)
(-0.00248572 -0.00143306 9.04291e-05)
(-0.00015363 -0.00111103 -0.00028765)
(0.00223635 0.00160246 9.18353e-05)
(0.000156946 0.00016838 0.000105521)
(-0.00652374 -0.00265186 -3.68584e-05)
(-0.00886972 -0.00189763 3.7057e-06)
(-0.00546274 0.000709634 0.000107553)
(-0.00853404 0.00213552 -3.21272e-05)
(-0.0148679 0.000124722 -1.38664e-05)
(-0.015955 -0.00229431 7.06986e-05)
(-0.0164316 -0.00143918 -2.27017e-05)
(-0.018518 0.000731897 1.17413e-05)
(-0.0194978 0.000509716 7.51066e-05)
(-0.0214579 -0.00255032 -7.19842e-06)
(-0.0259718 -0.0035172 -0.000116434)
(-0.0286962 -0.000731714 -2.32233e-05)
(-0.0291948 0.000534269 7.23047e-06)
(-0.0317614 -0.000159731 -3.40498e-06)
(-0.0332714 0.00197318 -4.21657e-05)
(-0.0296586 0.00405978 4.6516e-05)
(-0.0234044 0.00222966 -0.000185466)
(-0.0168131 -0.000582675 -0.000231795)
(0.00368059 -0.00564929 -0.000835293)
(0.00885596 -0.00312038 0.000565644)
(0.00503389 -0.00770309 0.000560468)
(0.0198429 -0.0123386 0.000400831)
(0.0446698 0.00537073 -0.00475373)
(0.0265795 -0.0143264 0.00619626)
(-0.00292178 0.0246245 -0.00066956)
(0.0112041 0.00986515 -0.000331594)
(0.0189078 0.00488021 -0.000385941)
(0.0213766 0.00259614 3.5093e-06)
(0.0215748 0.00139739 2.48614e-06)
(0.0204607 0.00128681 1.82302e-06)
(0.0192841 0.0044218 1.93874e-06)
(0.0175182 0.00199732 1.89969e-06)
(0.012219 -0.000235576 -9.37124e-07)
(0.0122718 0.00252357 -0.000430122)
(0.0109461 0.00333879 -0.000680253)
(0.00466291 0.00285906 0.000219756)
(0.00322498 0.0022029 -0.000207416)
(0.00235515 -0.00138686 -0.000215829)
(7.27275e-05 0.000258728 8.03081e-07)
(-0.00448042 3.96242e-05 -0.000235907)
(-0.00653339 -0.00139327 -8.2385e-05)
(-0.0058397 0.00136299 2.23998e-05)
(-0.00502819 0.000717412 6.44486e-05)
(-0.000251024 -0.000213579 -0.000285169)
(0.00340227 -0.000238495 0.000181401)
(0.000849934 -0.000600208 0.000318529)
(-0.00134423 0.000482914 -0.000278454)
(0.00088374 0.0005006 -0.000177811)
(0.00144907 0.00063398 0.000169841)
(-0.00318307 -0.0012543 3.11206e-05)
(-0.00730697 -0.00446416 -0.000463183)
(-0.00549465 -0.00155405 -7.06806e-06)
(-0.00330848 0.00217696 0.000201319)
(-0.00911212 0.00271532 -0.000135784)
(-0.0167666 0.00186459 -0.000258956)
(-0.0171512 7.34898e-05 7.23748e-05)
(-0.0156614 -0.00100389 -1.88648e-06)
(-0.0176957 -0.000311526 3.57267e-05)
(-0.0214728 -0.000363759 -9.09199e-05)
(-0.0242017 -0.00351264 -1.28044e-05)
(-0.0243903 -0.00481718 1.82688e-05)
(-0.0253532 -0.000892101 0.000123969)
(-0.0288384 0.00101622 2.24654e-06)
(-0.0308128 -0.000351658 -6.94319e-05)
(-0.0299863 0.00161796 0.000100805)
(-0.0285807 0.00482282 4.8766e-05)
(-0.0260321 0.00463074 -0.0001962)
(-0.0199686 0.00182109 1.95674e-05)
(0.000702018 0.00242825 0.000431182)
(0.000426532 -0.000476993 -0.000976891)
(-0.0014886 -0.00764542 -0.00195583)
(-0.00138315 -0.00976608 -0.00105773)
(0.0511227 -0.0381545 0.0016943)
(0.550742 -0.0824387 -0.00669062)
(0.00107329 -0.0048731 -0.00114537)
(0.00971393 0.00100173 -0.000437313)
(0.0178704 0.00153896 -3.03485e-06)
(0.0213896 0.00134449 3.01148e-06)
(0.0214408 0.00135528 -8.65313e-05)
(0.02346 0.0019281 0.000243362)
(0.0181928 0.00322626 0.000174115)
(0.0139956 0.00134114 -0.00014742)
(0.0135069 0.0012494 2.72091e-06)
(0.0119015 0.00242931 -0.000205368)
(0.00893744 0.00050189 -5.45048e-06)
(0.00513028 0.00015895 0.000137866)
(0.00208514 0.000432078 -0.000212495)
(0.000775797 -0.00129526 -5.82598e-06)
(-4.86872e-05 -0.00127431 0.000121245)
(-0.00459667 -0.00111515 5.05092e-05)
(-0.00465191 -0.000402305 1.04072e-06)
(-0.00362872 0.0017571 -6.5627e-05)
(-0.00573132 0.00332846 -0.000174396)
(-0.00201813 0.00267107 -5.35426e-05)
(0.00275611 0.000396266 0.000246536)
(0.00184751 4.79746e-05 1.08641e-06)
(-0.00111008 0.00104183 -0.00027508)
(3.57188e-05 -0.000404997 3.48685e-06)
(4.06291e-05 -0.00139803 0.000378407)
(-0.00621714 -0.00261758 -8.58573e-05)
(-0.00689149 -0.00343866 -0.000407537)
(-0.000568517 -0.000692547 0.000124688)
(-0.00013086 0.00231583 0.000285554)
(-0.00892694 0.00322318 -0.000203664)
(-0.0181722 0.0033913 -0.00011642)
(-0.0195409 0.00228805 7.76477e-06)
(-0.016912 0.000421312 -1.3575e-05)
(-0.0177196 -0.000240181 -1.87651e-05)
(-0.0235033 -0.000554272 3.00298e-06)
(-0.0270228 -0.00338044 3.08718e-06)
(-0.0226901 -0.00472893 4.25968e-06)
(-0.0214068 -0.00185584 7.58759e-05)
(-0.0285229 0.000857917 -6.21848e-05)
(-0.0310057 0.00037691 -0.000227623)
(-0.0268031 0.000905517 9.43029e-05)
(-0.0258981 0.0029494 0.000101141)
(-0.0271623 0.00316831 -0.000263794)
(-0.0248829 0.00171173 -1.14941e-05)
(2.25418e-05 -0.000554892 -0.000139784)
(-0.00353113 7.40066e-05 0.000720663)
(-0.00700214 0.000149371 0.00190471)
(-0.00579803 0.00533096 -0.00354984)
(0.00144704 0.000128417 -0.000226631)
(0.0102289 -0.00796113 0.0251971)
(0.00453729 -0.00636047 0.000305375)
(0.0148041 -0.0051243 -0.000817787)
(0.0190141 -0.0017908 6.33193e-06)
(0.0209343 -0.0030504 6.24531e-06)
(0.0221844 -0.00200592 -0.000182848)
(0.0227382 -0.00160175 -0.000126452)
(0.0184369 -0.00409431 0.000314219)
(0.0149613 -0.00160442 -0.00050003)
(0.0136183 -1.20005e-05 -0.00031207)
(0.0113218 -0.000865244 0.000819003)
(0.00803335 -0.000147137 7.6615e-06)
(0.00453534 -0.00231385 -0.000197512)
(0.00146229 -0.00325279 -0.000748431)
(0.000274749 -0.00145504 0.000372556)
(0.000225373 -0.00163832 0.000138063)
(-0.00347429 -0.000765116 -0.000220107)
(-0.00296242 0.00142161 -2.83483e-05)
(-0.00113012 0.00112136 0.000152006)
(-0.00379939 0.00323105 -0.000170772)
(-0.00384686 0.00447262 -0.000483263)
(0.000111313 0.0023015 0.00029973)
(0.00163106 0.000117833 -3.6529e-05)
(-0.00189635 -0.000231655 0.000694112)
(-0.00215081 -0.000675533 0.000343958)
(-0.00131216 -0.00266458 -0.00013447)
(-0.00578135 -0.00266322 -0.000211987)
(-0.00479128 0.000662541 -0.000280471)
(0.00190848 0.00139795 0.00024202)
(0.00176485 0.000767573 -1.98787e-06)
(-0.00759629 0.000944514 7.7199e-05)
(-0.0179885 0.0023442 1.16471e-05)
(-0.0209717 0.00330183 -0.000185608)
(-0.0188177 0.00195883 -0.000221224)
(-0.0189398 0.000500533 0.000431496)
(-0.0255018 -0.000772247 0.00025005)
(-0.0295109 -0.00205489 -0.000374442)
(-0.0224948 -0.00304461 -0.000112755)
(-0.0182963 -0.00276339 0.000235966)
(-0.0259485 -0.000461099 8.52367e-06)
(-0.0306919 0.0021437 -0.000258161)
(-0.0266797 0.00197008 -7.31332e-06)
(-0.0257001 0.000847629 0.00035047)
(-0.0276527 0.000260489 -7.6267e-05)
(-0.0262302 -0.000124934 -2.23796e-05)
(0.00123948 -0.00104298 -0.0013562)
(0.00121113 -0.000203657 0.00223516)
(0.00472949 0.0105258 -0.000394383)
(0.00715507 0.0132821 0.000371143)
(0.0117278 0.0235242 -0.0027021)
(0.192025 -0.106598 -0.0402187)
(0.00118659 -0.0122694 0.00335041)
(0.0193875 -0.010699 0.000677448)
(0.0203801 -0.00821432 2.34543e-05)
(0.0210331 -0.00424926 6.2588e-06)
(0.0231995 -0.00460993 5.24778e-06)
(0.0208348 -0.00162132 4.89334e-06)
(0.0181692 -0.00213406 4.83292e-06)
(0.0190964 -0.00180613 5.44994e-06)
(0.0144155 -0.00129303 4.0057e-06)
(0.011729 -7.11401e-05 0.00106391)
(0.00716798 -0.00219562 -0.000105349)
(0.00121402 -0.00477839 -0.000895179)
(0.00305473 -0.00616081 0.000513839)
(0.00277002 -0.00111996 0.00031536)
(0.000839968 -0.00131228 -0.000512779)
(-0.000791498 -0.000727493 -0.000265009)
(-0.00232123 0.00224257 0.00069736)
(-0.00133114 0.00107457 8.55752e-05)
(-0.0014532 0.000993509 -0.000210378)
(-0.00310544 0.00289323 0.00045783)
(-0.00269614 0.00302971 0.000438251)
(-0.00138316 -0.000650821 -1.71742e-06)
(-0.00211325 -0.0015889 -0.000154566)
(-0.00297496 4.8544e-05 -0.000238649)
(-0.00242316 -0.00190738 -0.000245327)
(-0.00195418 -0.000901079 -0.000288003)
(-0.00167691 0.00370255 0.000752579)
(-0.000387274 0.00339978 0.000722714)
(-0.000773826 -0.000942176 -5.26895e-05)
(-0.00702058 -0.00276539 -1.09767e-05)
(-0.0151554 0.000205977 1.30902e-05)
(-0.0199303 0.00269948 -0.000344616)
(-0.020376 0.002004 -8.76439e-06)
(-0.0211618 0.000353629 0.000376401)
(-0.02673 -0.00151803 -0.000157831)
(-0.0298896 -0.000379882 -0.000296206)
(-0.023627 0.000650256 0.000170186)
(-0.0181835 -0.00175051 0.000408007)
(-0.0223788 -0.0018652 -0.000208956)
(-0.0278818 0.00199632 -0.000284863)
(-0.0282412 0.00270445 0.000500513)
(-0.0279961 0.000150609 -0.000233389)
(-0.0284325 -0.00115809 -0.00036558)
(-0.0250856 -0.00065045 2.77457e-05)
(0.00105832 0.00508412 0.000222765)
(0.0109516 0.003517 0.000822397)
(0.00988044 0.00567105 -0.000887367)
(0.0166415 0.000683789 0.00187629)
(0.0206034 0.00731776 0.00751319)
(0.0171661 -0.00581656 -0.034382)
(-0.00499113 0.00356052 0.0126049)
(0.0207667 -0.0106814 -0.00185496)
(0.0270653 -0.00724775 -0.00192798)
(0.0254355 -0.00548869 4.49934e-06)
(0.0254739 -0.00380745 7.19732e-06)
(0.025829 -0.00424192 7.16273e-06)
(0.018207 0.00065243 3.24959e-06)
(0.0160128 0.000558514 5.14463e-06)
(0.0157878 -0.00120027 3.85809e-06)
(0.0101895 0.000248271 5.53607e-06)
(0.00214845 -0.00208589 -6.75e-05)
(-0.000420676 -0.00214094 0.00060675)
(0.00604199 -0.000528835 -0.00023293)
(0.00632894 -0.00107264 -8.43416e-06)
(0.000716653 -0.00195006 0.000488091)
(0.000971999 -0.000831001 2.12939e-07)
(-0.000715079 8.87775e-05 0.000171841)
(-0.00269003 0.000407423 -0.00088417)
(-0.00152399 -0.00115434 -0.000131731)
(-0.00130378 -0.000201396 4.28676e-05)
(-0.00432271 0.00157029 -0.000718689)
(-0.00413868 -0.000997444 1.66841e-06)
(-0.00101905 -0.00051628 -0.000246603)
(-0.0025533 0.00120129 -0.000287969)
(-0.00249623 1.48084e-06 0.000581643)
(0.00123416 0.00106742 0.000109502)
(0.000578445 0.00296857 0.000252751)
(-0.00390264 0.00263396 -7.37951e-05)
(-0.00593807 -0.00145271 -0.000505224)
(-0.00615503 -0.00375627 -0.000106298)
(-0.0111572 -0.000655438 0.000131071)
(-0.0187276 0.0016568 -5.56603e-06)
(-0.0217508 0.000767414 1.98143e-05)
(-0.0233423 -0.00110251 0.000186164)
(-0.0264148 -0.00193071 -0.000281381)
(-0.0268003 0.00169087 -0.000266701)
(-0.0242116 0.00451406 0.000759511)
(-0.0214374 0.000852854 0.000337584)
(-0.021259 -0.00210105 -0.000376922)
(-0.0249823 6.18052e-05 0.000118132)
(-0.0289893 0.00119793 0.000312381)
(-0.0305258 -0.00085054 -0.000210828)
(-0.0286511 -0.00119548 -2.50288e-05)
(-0.0239687 0.000469002 0.00026381)
(-0.000730096 0.00412215 0.00103096)
(0.00198453 0.00485202 0.000284428)
(0.00121214 -0.00523082 -9.12284e-05)
(-0.00786573 -0.000941919 -0.00315415)
(0.00535975 -0.0272249 0.00525243)
(0.0414447 0.00257933 0.0285863)
(-0.0261258 -0.124328 0.0145385)
(0.0252629 -0.00434221 -0.00290704)
(0.0268829 -0.00265981 6.79969e-06)
(0.025334 -0.00354636 0.000931321)
(0.0247559 -0.00114233 4.8234e-06)
(0.0264164 -0.00183289 3.84363e-06)
(0.0241638 -0.00112748 7.08746e-06)
(0.0167785 0.000699083 5.32145e-06)
(0.0140316 -0.00157365 1.98634e-06)
(0.0106177 -0.00207862 1.56611e-06)
(0.00418398 -0.00179279 7.55466e-07)
(0.00316196 0.00167974 0.000494045)
(0.00438739 0.00535663 6.49167e-06)
(0.000993119 -0.000625103 0.000248139)
(0.001144 -0.00188313 -0.000653732)
(0.00175633 -0.000202673 -1.2423e-06)
(-0.000774077 -0.00144938 -0.000159214)
(-0.00288753 -0.000765749 -0.000333126)
(-0.00221178 -0.00202998 0.000354878)
(0.000300912 -0.00253465 0.000293088)
(-0.00369684 -0.000677403 -0.000269269)
(-0.0039881 0.00013372 -1.97885e-06)
(0.00063597 0.00161289 -0.000181267)
(-0.00233163 0.00191462 0.000450717)
(-0.00258865 0.0012976 0.000321081)
(0.00175499 0.00219345 -0.000168407)
(0.000278121 0.00143371 -2.36076e-06)
(-0.00591825 0.000644291 -0.000100921)
(-0.00875883 -0.000902596 -0.000420788)
(-0.00601729 -0.00280084 0.000680782)
(-0.0083889 -0.00178421 7.90053e-05)
(-0.018155 -2.66403e-05 5.67668e-06)
(-0.023826 -0.000825777 -0.000321737)
(-0.0245329 -0.00210846 -0.000271525)
(-0.0232332 -0.000623555 -0.000110023)
(-0.0218344 0.00373803 0.00059724)
(-0.0246821 0.00568983 0.000560344)
(-0.0264516 0.00298396 -0.000583099)
(-0.0233622 -0.00074632 -0.000237589)
(-0.0237591 -0.0012129 7.46498e-06)
(-0.0293849 -0.00192048 0.000279894)
(-0.0309845 -0.00358771 -0.000607058)
(-0.0267785 -0.00151791 1.16446e-05)
(-0.024182 0.00122535 0.000381795)
(0.00198039 -0.0028709 0.000703735)
(-0.000727158 0.00246539 -0.000296268)
(0.00264136 0.000284966 -0.00130242)
(0.00597086 0.00663958 -0.000209998)
(0.00846105 0.0374503 -0.00316077)
(0.021039 0.0153519 -0.014814)
(0.305563 -0.0439177 -0.0073178)
(0.0289996 -0.0020866 0.00127697)
(0.0280484 -1.71956e-05 6.66727e-06)
(0.0273366 0.000928387 -0.00061263)
(0.0276121 0.0011312 -0.000331095)
(0.0258493 0.00299947 0.000200964)
(0.0213735 -0.000453462 0.000315716)
(0.0154501 -0.000332838 4.33369e-06)
(0.0123179 -0.0020627 -1.83661e-06)
(0.0099166 -0.0021628 -0.000367561)
(0.00685019 -0.00262417 -2.13414e-06)
(0.00851626 0.00073131 -2.67061e-05)
(0.00314897 0.00338988 0.000406697)
(-0.00271597 0.00152103 -0.000389714)
(0.00124721 0.000359841 -0.000526387)
(0.00151062 0.000840547 0.000748572)
(-0.00141694 -0.000416533 0.000369518)
(-0.00341866 -0.00145591 -0.000355502)
(-0.00373427 -0.00165672 0.000451629)
(0.000389793 -0.00301813 -0.000109255)
(-0.000988499 -0.00222092 -0.000585617)
(-0.00127492 0.00104367 -8.21417e-05)
(0.00120598 0.0019676 0.000398607)
(-0.00294866 0.00147001 0.000642679)
(-0.00214605 0.0009179 -0.000589287)
(0.00140252 0.00129307 -7.99247e-05)
(-0.00135877 0.000991501 0.000684065)
(-0.00682412 -0.000480688 -1.26451e-06)
(-0.0102453 -0.000999469 -0.000190943)
(-0.00725345 -0.00167008 -1.04296e-06)
(-0.00768854 -0.00271992 -0.0003036)
(-0.0175317 -0.00186755 -5.13898e-06)
(-0.0243528 -0.000876175 3.18173e-05)
(-0.0230857 -0.000770961 -0.000232516)
(-0.0191029 0.00146171 3.71265e-05)
(-0.0189111 0.00418953 0.000466056)
(-0.0251594 0.00452261 -0.000114643)
(-0.0294835 0.00308241 -0.000572527)
(-0.0265021 0.00116347 0.000205438)
(-0.0264513 -0.00135454 -1.34914e-05)
(-0.0319592 -0.00430475 -0.000816459)
(-0.0300192 -0.00545452 -0.000823376)
(-0.0226347 -0.00266526 0.000473658)
(-0.023609 5.15499e-05 6.67486e-05)
(0.00594774 0.000346485 -0.00158355)
(0.00593948 0.000397757 -0.000893323)
(0.00644951 0.00532151 0.000195939)
(0.0266139 0.00146982 0.00194473)
(0.00644922 -0.0121793 0.0146801)
(0.0058001 -0.0103182 -0.0300663)
(-0.0458389 -0.0253475 0.000564742)
(0.0336688 0.00101102 0.00107746)
(0.0306661 0.00319182 2.44285e-06)
(0.026768 0.0045077 1.72685e-06)
(0.0273465 0.00167198 0.000134537)
(0.024429 0.00061034 7.37975e-07)
(0.0200027 -0.00189817 -0.000653286)
(0.0147646 -0.00195939 4.09683e-06)
(0.0117459 -0.000494459 1.08904e-05)
(0.00991531 -0.000757496 0.000188956)
(0.00780624 -0.000682243 2.64703e-06)
(0.0106789 -0.0010489 -0.000333858)
(0.00536958 0.000600537 0.000204014)
(-0.00279311 0.00309687 0.000352521)
(0.000295983 0.00254828 -0.000203409)
(0.000784045 0.00103222 0.000592163)
(-0.00364427 0.000498381 0.000282067)
(-0.00443679 -0.0019816 -0.000323517)
(-0.00416575 -0.00138935 -0.0003319)
(-0.000401516 -0.00194499 8.24507e-06)
(0.00138375 -0.002389 1.78183e-06)
(0.00124511 0.000596701 0.000474979)
(0.00116818 0.000370593 3.5577e-05)
(-0.00364246 -0.000414492 -0.000917563)
(-0.00280699 0.000428871 -0.000344323)
(0.00184707 0.00112997 0.000263304)
(-0.00193911 0.000937293 0.000214559)
(-0.00840517 -0.00157531 -0.00053198)
(-0.0102454 -0.00131799 -0.000256183)
(-0.00816801 -3.20397e-05 0.000236841)
(-0.00863357 -0.0022293 -8.21173e-05)