/*--------------------------------*- C++ -*----------------------------------*\
| =========                 |                                                 |
| \\      /  F ield         | OpenFOAM: The Open Source CFD Toolbox           |
|  \\    /   O peration     | Version:  5.0                                   |
|   \\  /    A nd           | Web:      www.OpenFOAM.org                      |
|    \\/     M anipulation  |                                                 |
\*---------------------------------------------------------------------------*/
FoamFile
{
    version     2.0;
    format      ascii;
    class       surfaceVectorField;
    location    "0.4";
    object      ddtCorrDdt0(Uf);
}
// * * * * * * * * * * * * * * * * * * * * * * * * * * * * * * * * * * * * * //

dimensions      [0 1 -2 0 0 0 0];

internalField   nonuniform List<vector> 
12790
(
(0.000490323 0.00216284 0.00237083)
(-0.26278 -0.00490241 0.00407063)
(-0.268542 0.00194386 -4.90296e-05)
(-0.00820626 0.00344003 0.000436438)
(-0.523677 -0.00203232 0.000404916)
(-0.535965 0.0024162 0.00139001)
(-0.00434607 0.00835255 -0.000577693)
(-0.523037 0.00415093 -9.19796e-05)
(-0.540867 0.00463095 0.00166009)
(-0.0172151 0.0383641 -0.00135021)
(-0.530934 0.0167113 -0.000759029)
(-0.560051 0.0124882 -0.00497633)
(-0.00523616 0.0515391 -0.00048651)
(-0.0143274 0.04554 0.000701391)
(-0.00585587 0.0683331 -0.00296234)
(-0.560547 0.031301 -0.000609958)
(-0.693895 0.0568434 -0.0041099)
(0.0118991 0.191512 0.0476145)
(0.0136864 -0.0250435 -0.0186712)
(0.0113809 0.136406 -0.010177)
(0.0118371 0.0225405 -0.0358828)
(0.282733 0.035401 -0.0453231)
(0.0384149 0.0152219 0.0216545)
(-0.140812 0.0580129 0.451537)
(-0.257037 0.0412632 0.00156714)
(0.00366493 -0.0141371 0.000337368)
(0.00936797 -0.01558 -0.000746243)
(-0.270177 -0.00595868 -0.0012686)
(-0.4392 -0.0298011 -0.00168234)
(0.0134569 -0.0413178 -0.000754821)
(0.00331668 -0.00264823 0.00225417)
(0.012443 -0.0912928 1.00107e-05)
(0.0177973 -0.00217108 0.000593505)
(-0.44832 -0.00677418 0.00186279)
(-0.565869 -0.00307893 -0.00121481)
(0.0146177 -0.00679915 0.00195295)
(0.0124287 -0.00620848 0.00193473)
(0.014952 -0.00558715 0.00249872)
(0.0122948 -0.00646118 0.00294091)
(0.0207853 -0.00128644 -0.000329547)
(-0.409259 -0.00477841 -0.000782182)
(-0.522555 -0.000623283 -7.7011e-05)
(0.0214739 -0.00145248 -2.4003e-05)
(-0.415426 -0.00511044 -0.000241296)
(-0.529558 -0.00138907 0.000673025)
(0.0231108 -0.00108416 0.000111982)
(-0.414958 -0.00466274 5.03395e-05)
(-0.529404 -0.00105132 -0.00130951)
(0.0224877 -0.00182925 -8.3014e-05)
(-0.416757 -0.00332765 5.49955e-05)
(-0.530981 -0.000759428 -0.000551808)
(0.0146201 -0.00205049 -0.000234552)
(-0.419593 -0.00768576 -0.000216472)
(-0.534431 -0.00242483 0.00213288)
(0.0154838 -0.000529542 -0.000281744)
(-0.420137 -0.00390262 5.01517e-05)
(-0.536199 -0.0013612 -0.0014917)
(0.0116737 0.000170173 -0.000266401)
(-0.42124 -0.00108905 -0.000376524)
(-0.535747 0.000390769 -8.09594e-05)
(0.0109904 -1.94395e-05 -0.000164342)
(-0.42225 -0.00779734 2.39088e-05)
(-0.535587 0.000190988 0.0020064)
(0.00524124 -0.000664606 -0.000144972)
(-0.424174 -0.000327192 -0.000108286)
(-0.537046 -6.29265e-05 -0.000157651)
(0.00394418 -0.00135284 -0.000136113)
(-0.426425 -0.00405904 -8.82847e-05)
(-0.538729 -0.00109652 -0.00104985)
(-0.00114759 -0.000874056 -9.40052e-05)
(-0.425744 -0.0138775 0.000105261)
(-0.538057 -0.0009641 -0.000527523)
(0.0015604 -0.000192022 9.94698e-05)
(-0.42497 -0.00129637 -3.49862e-05)
(-0.536554 -3.28046e-05 0.00126012)
(-0.000937465 -0.000105414 0.000238639)
(-0.425394 -0.0018236 0.000129404)
(-0.5366 0.000259823 0.000197076)
(-0.0058167 0.000279719 8.21049e-05)
(-0.426595 0.00103024 0.000160627)
(-0.537907 1.89022e-05 -0.00194254)
(-6.4925e-05 0.000748977 -0.000230994)
(-0.426125 0.00795034 -0.000217216)
(-0.537256 0.000638943 -0.00044633)
(-0.0022801 0.000873943 -0.000278541)
(-0.425394 -0.0045313 -0.000387199)
(-0.535934 0.000775795 0.00144666)
(-0.005524 0.00121794 -0.000106539)
(-0.42558 0.00904375 -0.000149095)
(-0.535833 0.000578662 -0.00056053)
(-0.00234306 0.00104874 0.000132947)
(-0.424229 0.0131209 -2.91965e-06)
(-0.534228 0.000909307 -0.00075849)
(0.00260478 0.000288612 0.000199517)
(-0.421401 0.00918224 0.000183451)
(-0.530859 0.000274483 0.000166208)
(0.000748134 0.000151173 7.7267e-05)
(-0.419931 1.44391e-05 4.85367e-05)
(-0.529528 -9.06919e-05 -0.000403078)
(-0.00456749 0.000303935 5.78236e-05)
(-0.419973 -0.00990873 5.9058e-05)
(-0.528809 0.000523366 0.00134845)
(0.000199458 0.000126724 6.5128e-05)
(-0.418298 -0.000987615 8.40343e-05)
(-0.526281 0.000477645 0.000998614)
(-0.00284429 -1.47072e-05 -0.000115134)
(-0.417183 -0.0174753 8.14397e-05)
(-0.5252 0.000515164 -0.00095823)
(-0.00854359 0.000604092 -0.000244011)
(-0.41852 -0.0173717 -0.000180774)
(-0.526371 0.000518039 -0.000827821)
(-0.00126176 0.00108582 -1.92931e-05)
(-0.41775 0.00982994 4.9977e-05)
(-0.524917 0.00133583 -0.0011238)
(0.00459961 0.000339621 -3.20069e-05)
(-0.414608 0.0111195 6.19204e-05)
(-0.521058 0.00087322 0.000349212)
(-0.00142864 -0.000468747 -0.000134693)
(-0.413817 -0.000403704 -0.000143758)
(-0.52021 -0.000376748 0.000870157)
(-0.0141419 0.000136949 -2.84217e-05)
(-0.417029 -0.00271447 -8.56923e-05)
(-0.523687 -0.000802163 0.000330374)
(-0.0216746 0.00123185 6.76736e-05)
(-0.420957 -6.12036e-05 -2.06129e-05)
(-0.526985 0.00080926 0.000857422)
(-0.0200209 0.000598531 0.000137502)
(-0.422076 0.00473669 0.000112822)
(-0.526058 0.00124243 -0.000449337)
(-0.0176521 -0.000565009 0.000102158)
(-0.420432 0.0166521 -2.49616e-06)
(-0.523895 -0.000722913 -0.00160444)
(-0.0201751 -0.000841128 -4.11667e-05)
(-0.420206 0.00600491 -0.000185447)
(-0.524351 -0.0010535 0.000711669)
(-0.0306156 -0.00110139 -0.000107003)
(-0.424173 -0.000831463 -0.000137001)
(-0.528099 -0.000879667 0.00125087)
(-0.0282095 -0.00123891 3.01001e-05)
(-0.426078 -0.00106745 0.00013934)
(-0.529849 -0.00119489 -0.00113234)
(-0.0167432 -0.000817811 1.93574e-06)
(-0.421042 -0.00712452 0.000130413)
(-0.524979 -0.000767648 -0.00100741)
(-0.0199986 -0.000100203 -5.98139e-05)
(-0.41726 -0.0134962 -7.69346e-05)
(-0.520761 2.99555e-05 0.00119736)
(-0.0321334 0.000734321 0.00011093)
(-0.420376 -0.00341634 -5.83968e-06)
(-0.523465 0.000521913 0.000169579)
(-0.0293612 0.00103579 5.81039e-05)
(-0.423045 0.00566354 0.000102381)
(-0.525762 0.00111418 -0.0013887)
(-0.024172 0.000651898 -0.000234723)
(-0.421258 0.00435294 -9.11482e-05)
(-0.523171 0.00079368 0.000224998)
(-0.027368 0.000371597 -0.000337777)
(-0.419929 -0.000578762 -0.000329281)
(-0.521736 0.0003688 0.000930736)
(-0.0277913 0.000283355 -0.000174327)
(-0.419542 -0.00578386 -0.000237882)
(-0.521251 0.000375891 -0.000205843)
(-0.417602 -0.00460224 -2.40258e-05)
(-0.519066 0.000318971 -0.000335725)
(0.00254956 0.0050031 0.00210593)
(-0.261038 0.00164883 0.00399328)
(-0.266774 0.00369136 -0.00148478)
(-0.000453023 0.0114492 -0.000123336)
(-0.515765 0.001515 0.000130252)
(-0.529275 0.00654218 0.00205624)
(0.0103295 0.0229858 -0.000273095)
(-0.508731 0.02252 -0.000186401)
(-0.523128 0.0164376 -0.00121251)
(0.00150072 0.0421278 -0.000208147)
(-0.498187 0.00971199 0.000164973)
(-0.521123 0.0297557 0.00089238)
(0.00650278 0.0536738 -0.00103551)
(0.00124758 0.0447689 0.00280794)
(0.00556391 0.0459611 -0.000750155)
(-0.481577 0.0195217 -0.00014134)
(0.0160188 0.0580788 -0.029397)
(-0.472873 0.0321225 -0.000941308)
(-0.534671 0.0504174 -0.0109192)
(-2.67118 -0.172831 0.0735842)
(0.0444619 0.0416225 0.121724)
(0.179996 0.0813127 -0.136847)
(-2.48078 -0.0142016 0.0932124)
(7.05654 -0.0262848 -0.0443125)
(0.000262097 -0.0491039 0.00049736)
(-0.270877 -0.00691877 -0.00101828)
(0.00881053 0.00493581 -0.00026117)
(-0.302205 -0.0189893 -0.000315778)
(-0.434161 0.0136805 -0.000710449)
(-0.0379557 -0.0420689 0.00182537)
(0.00247268 -0.142857 0.000420482)
(-0.030817 -0.108675 0.00988381)
(0.0211131 -0.00391307 0.000487975)
(-0.452915 -0.0150017 0.00183697)
(-0.576461 -0.00594693 -0.000117449)
(0.01625 -0.000177519 0.00233963)
(0.0179304 -0.0123855 0.00191999)
(0.0170997 0.0107049 0.00336065)
(0.0173048 -0.0103907 0.0027626)
(0.0205889 -0.000199519 -0.000694108)
(-0.40458 -0.0119597 -0.00114592)
(-0.52218 0.000433686 0.000275478)
(0.021953 0.000120118 -0.000167049)
(-0.415047 -0.00339821 -0.000165169)
(-0.530847 0.00200609 0.000925715)
(0.0247499 -9.5252e-05 -6.6482e-06)
(-0.415238 -0.00456941 -9.42406e-05)
(-0.530081 0.00040862 -0.000306527)
(0.0171232 7.31517e-05 -7.83746e-05)
(-0.416557 0.000288993 -0.00012142)
(-0.532405 0.000771928 -0.000314903)
(0.0193534 -0.000166347 6.81442e-05)
(-0.419895 0.00361533 -0.000235213)
(-0.534302 0.000218893 2.6228e-05)
(0.0189438 -3.7184e-05 -4.44904e-05)
(-0.419984 0.000198513 0.000190606)
(-0.533102 0.000170767 -0.00196069)
(0.00990704 0.000321737 -8.63436e-05)
(-0.420799 -0.0015567 -0.000232512)
(-0.53476 0.000301356 0.00202593)
(0.0136054 -9.89123e-05 8.00079e-05)
(-0.422782 0.002511 0.000114861)
(-0.536146 0.000677114 0.000855655)
(0.000913872 -0.00103602 -5.16049e-05)
(-0.425353 -0.00400883 2.60962e-05)
(-0.537642 -0.000551412 -0.00117493)
(0.00124674 -0.00137101 0.000153027)
(-0.426855 -0.017146 0.000184276)
(-0.53918 -0.0005952 -0.0006402)
(0.00475192 -0.000783769 0.000164325)
(-0.425022 -0.0142259 0.000340967)
(-0.537672 -0.000489638 0.000332424)
(0.00111169 -0.000790596 -5.10509e-06)
(-0.424991 0.000239204 -5.60692e-05)
(-0.536731 0.000164068 0.000652398)
(0.000569741 -0.001272 5.13814e-05)
(-0.425993 0.0026422 -6.13663e-05)
(-0.536947 -0.00145426 -0.00198599)
(-0.00227623 -0.000708048 -0.000138573)
(-0.425885 -0.0019586 -0.000139827)
(-0.537307 -0.00111528 -0.00124434)
(-0.0022755 -0.000521429 -0.000373367)
(-0.425886 0.014895 -0.00032509)
(-0.536463 -0.000715619 0.00196988)
(-0.000193335 -0.000751249 -0.000257828)
(-0.425671 0.0104933 -0.000270226)
(-0.536242 -0.000957319 0.000993857)
(-0.00262953 -6.67418e-05 -4.55219e-05)
(-0.424716 -0.000463975 -0.000196676)
(-0.535946 -0.00115322 -0.00062203)
(-0.00373464 0.000882719 4.7526e-05)
(-0.423035 0.00110276 -0.000181861)
(-0.533722 0.000201644 0.000836804)
(-0.00186905 0.000456332 3.25136e-05)
(-0.421929 0.00694844 -1.04602e-05)
(-0.530861 0.000722225 0.00064229)
(-0.00113599 0.000611024 3.03244e-05)
(-0.419739 -0.00225682 0.000105708)
(-0.528824 -9.25176e-05 0.000145142)
(-0.00319574 0.00170768 8.52608e-05)
(-0.41861 -0.0151828 0.000211292)
(-0.528435 0.00202925 -0.000102036)
(-0.00272842 0.000902195 0.000100347)
(-0.419314 -0.00991641 6.72477e-05)
(-0.526399 0.0024328 -0.00131024)
(-0.0022019 -0.000149825 1.58823e-05)
(-0.418504 -0.00198698 3.68422e-05)
(-0.524776 0.000155984 -0.00198557)
(-0.00161852 0.000668113 0.000113142)
(-0.4175 0.00191291 -7.3107e-05)
(-0.525913 0.000113066 -0.00120231)
(-0.00169375 0.00126089 0.000131187)
(-0.417009 0.0157391 1.1266e-05)
(-0.525484 0.00114199 0.00104565)
(0.000711608 -1.22871e-05 -4.97669e-05)
(-0.416195 0.0152042 -0.000135683)
(-0.523026 0.000708432 0.0012385)
(-0.00275034 -0.00150134 -9.47762e-05)
(-0.415673 -0.00623415 4.01377e-05)
(-0.521624 -0.00111196 4.29036e-05)
(-0.0115127 -0.000924554 -7.79037e-05)
(-0.416306 -0.00970433 4.13523e-05)
(-0.522739 -0.00182097 0.000375276)
(-0.0185496 0.000634775 2.44939e-05)
(-0.419006 0.000847724 -7.5619e-05)
(-0.525377 -8.13779e-05 0.000252494)
(-0.0211552 0.000659905 -2.71406e-05)
(-0.422039 0.00346717 -1.64859e-05)
(-0.527356 0.000887028 -0.00138177)
(-0.0195912 -0.000447385 -0.000290045)
(-0.42181 0.00485472 -0.000127889)
(-0.52564 -0.000343018 0.000721975)
(-0.0227397 -0.00124805 -0.000281297)
(-0.421203 0.00122249 -0.000303091)
(-0.524236 -0.00130156 0.00268868)
(-0.0306005 -0.000802276 0.000109256)
(-0.423612 -0.00350013 -0.000177386)
(-0.527532 -0.0015533 -0.000589227)
(-0.0291921 0.000492666 0.000239656)
(-0.42446 -0.00318848 0.000196392)
(-0.528866 -4.47426e-05 -0.00305084)
(-0.0183631 0.000471451 5.16063e-05)
(-0.421075 0.00432506 0.000207267)
(-0.523968 0.00125639 -0.000348944)
(-0.0180432 -0.000473396 -2.29821e-05)
(-0.418446 -0.000786016 4.90549e-05)
(-0.520735 0.00025033 0.00141141)
(-0.0265186 9.53769e-05 -1.44213e-05)
(-0.419665 -0.00542253 4.83367e-06)
(-0.523088 -0.000556652 -0.000402144)
(-0.0294129 0.00110107 -4.68115e-05)
(-0.421789 0.00113054 -9.20301e-05)
(-0.525064 0.000872811 -0.000225996)
(-0.0272497 0.000560411 -0.000185634)
(-0.421933 0.00720873 -0.000134749)
(-0.523881 0.0010127 0.000517084)
(-0.0287345 -0.000254852 -0.000229414)
(-0.420945 0.00132341 -0.0001788)
(-0.522226 -0.000117025 -0.000684334)
(-0.0280703 -0.000264616 -8.76459e-05)
(-0.419556 -0.00323028 -3.57319e-05)
(-0.52121 -0.000349548 -0.0009014)
(-0.417273 -0.0010596 2.07119e-05)
(-0.519506 -4.16066e-05 -0.000195932)
(0.00204803 0.00429021 0.00201889)
(-0.260745 0.0085138 0.004209)
(-0.265053 0.00422412 -0.000170293)
(0.019684 0.00555604 6.72929e-05)
(-0.514143 0.0057838 -0.00015584)
(-0.520161 0.00452118 8.90722e-05)
(0.000200164 0.00646747 0.000251551)
(-0.507814 -0.00696384 5.18207e-05)
(-0.511771 0.00665866 0.000485155)
(0.0452964 0.0172137 0.00290192)
(-0.499658 -0.0121456 -0.000473942)
(-0.493889 0.00608624 0.00243996)
(0.0253783 -0.0196216 -0.00176719)
(0.0440849 0.0153424 0.00467033)
(0.025604 -0.0143154 -0.00253416)
(-0.442589 0.0486573 0.00131758)
(-0.00179958 0.029781 -0.00113313)
(-0.42432 -0.0309966 0.000694508)
(-0.461746 0.0212802 0.0108272)
(-0.530635 0.201087 -0.0137388)
(0.0936948 0.116803 -0.00618273)
(-0.227984 0.356347 0.0236975)
(-0.283126 -0.0962873 -0.0116369)
(-0.724881 0.192595 0.0552992)
(-0.0480095 -0.192047 0.00867058)
(-0.254244 -0.0433219 0.00858916)
(0.0471187 -0.0347226 0.00891138)
(-0.302186 -0.0783938 -0.006604)
(-0.0239433 -0.0525532 -0.541164)
(-0.0379442 -0.419375 0.0139457)
(-0.0332239 -0.174933 -0.685212)
(-0.475536 0.0585103 0.0113528)
(-0.519771 0.0394695 0.0141523)
(-0.390069 -0.0931965 -0.00689484)
(-0.376394 -0.0990289 0.00170728)
(0.023857 0.0100448 0.000204057)
(-0.439162 -0.00531465 0.000791688)
(-0.579067 0.0197484 -0.00207498)
(0.0284789 0.00345167 0.00239226)
(0.0384924 0.0121981 0.00190664)
(0.0297474 0.0165143 0.00447394)
(0.030006 0.0221613 0.00508321)
(0.0306248 0.00550203 -0.0006173)
(-0.410137 -0.00222971 -0.000560124)
(-0.512483 0.00935642 -0.00447072)
(0.0206236 0.00383728 -9.23833e-05)
(-0.417163 -0.00717523 -0.00013127)
(-0.529638 0.00724606 -0.000159555)
(0.0305813 0.0017319 -0.000209004)
(-0.417894 -0.00283718 -0.000158287)
(-0.53097 0.00443277 0.000624234)
(0.0212366 0.00159758 -0.000278221)
(-0.416732 -0.00866498 3.33713e-05)
(-0.531237 0.00170064 0.000344686)
(0.0152861 0.0023289 -0.00011289)
(-0.418991 -0.00210226 -9.58625e-05)
(-0.535192 0.00312926 0.00100001)
(0.0168118 0.00108808 2.72149e-06)
(-0.421544 0.00101414 8.3802e-06)
(-0.536115 0.00241239 -0.000110005)
(0.0148223 0.000325303 -3.14203e-05)
(-0.421753 -0.000811456 -0.000280857)
(-0.535135 0.000417787 0.000200565)
(0.00562865 -0.000122727 6.09776e-05)
(-0.423345 -0.00188595 -4.44234e-05)
(-0.536667 0.000601548 -0.00120944)
(-0.00131823 -0.000855467 0.000261926)
(-0.426273 -6.98507e-05 0.000128084)
(-0.538655 -0.000500458 -0.000965508)
(0.000759868 -0.000574999 0.000372166)
(-0.426509 0.00733539 0.000337869)
(-0.538685 -0.000617059 -4.84621e-05)
(0.0113433 -0.00016975 0.000120701)
(-0.424521 0.0162036 7.6133e-05)
(-0.537138 -0.00015644 -0.00160009)
(0.00103224 -0.000680498 -0.000112329)
(-0.42563 -0.00142352 -8.78177e-05)
(-0.537784 5.38961e-05 0.000426861)
(0.000366659 -0.000963452 -0.00025255)
(-0.426345 -0.00635871 -6.72258e-05)
(-0.53819 -0.00110409 0.00160614)
(0.00135758 -0.000469659 -0.000326285)
(-0.425271 -0.000446471 -0.000165234)
(-0.536971 -0.000682118 0.00125097)
(-0.00280732 -0.000241383 -0.000221967)
(-0.425601 -0.00543035 -0.000199328)
(-0.537043 -0.000343351 0.00105083)
(-0.0022407 -2.98667e-05 -0.000209098)
(-0.425406 -0.00215136 4.32204e-05)
(-0.536459 -0.00032344 -0.00172062)
(-0.000662306 0.000356565 -0.00033302)
(-0.424236 -0.0143632 -0.000210666)
(-0.534368 0.000441575 0.000104014)
(-0.00201625 0.000840476 -0.000239901)
(-0.422434 -0.00857613 -0.000298067)
(-0.531865 0.000734268 0.000444277)
(-0.00675379 0.000441524 6.26973e-05)
(-0.42243 0.000661512 -5.89062e-05)
(-0.531212 0.00110123 -0.00124121)
(-0.00173874 -0.000122979 0.000286642)
(-0.420443 -0.00811447 0.000236203)
(-0.527896 -4.9761e-05 -6.56573e-05)
(-0.000591144 0.000193607 0.000193324)
(-0.418214 0.0102995 0.000169919)
(-0.525672 0.000115369 -0.00165814)
(-0.00473041 -0.000705028 3.75265e-06)
(-0.420438 0.0050496 -0.000159536)
(-0.528643 0.000244947 -0.000736243)
(-0.000363993 -0.00158466 -5.21125e-05)
(-0.419597 0.00804991 -7.35722e-05)
(-0.528114 -0.0020979 0.00111901)
(0.00276234 -0.000341203 -0.000175009)
(-0.415936 0.00933805 -4.01973e-05)
(-0.525149 -0.00182784 0.00124025)
(-0.00149486 0.000969295 -0.000255558)
(-0.415364 0.0021103 -0.000222145)
(-0.524169 0.000294394 0.00175646)
(-0.00611752 0.00030338 -4.58334e-05)
(-0.417026 0.000367715 -4.44631e-05)
(-0.523862 0.000982781 0.000187916)
(-0.00549868 -0.00108349 0.000176266)
(-0.417406 -0.0034082 0.000135979)
(-0.523364 -0.000537239 -0.00221973)
(-0.00683636 -0.000745221 4.36734e-05)
(-0.415886 -0.00889934 0.000161722)
(-0.522399 -0.00124826 -0.000313525)
(-0.0157002 0.00068134 -0.000116617)
(-0.417226 -0.00161534 -0.000160135)
(-0.523594 8.71121e-05 0.00107266)
(-0.0217149 0.00110507 -0.0001172)
(-0.42151 0.00217624 -0.000170809)
(-0.526371 0.00118384 -9.99505e-07)
(-0.0218762 0.000179763 -0.000140881)
(-0.422967 -0.00155668 -0.000120599)
(-0.526617 0.000870407 0.000126591)
(-0.0249967 -0.000895785 -0.000199219)
(-0.422548 -0.00877236 -0.000109652)
(-0.525853 -0.000469618 0.00064961)
(-0.0279372 -8.61644e-05 -9.03652e-05)
(-0.422597 -0.00407035 -0.000145892)
(-0.526518 -0.00120116 -0.00114836)
(-0.0259618 0.00184633 0.000164)
(-0.422043 0.00526624 6.79984e-05)
(-0.526338 0.000966848 -0.00151619)
(-0.0226033 0.00134988 0.000204764)
(-0.421696 0.0129769 0.000253076)
(-0.524622 0.00226158 0.00114467)
(-0.0200532 -0.000741811 7.68842e-05)
(-0.421057 0.00679597 3.83847e-05)
(-0.523038 -0.000122938 0.000564516)
(-0.0224537 -0.000844608 -7.27456e-05)
(-0.41979 -0.00345568 4.44455e-05)
(-0.522687 -0.00154994 -0.00120244)
(-0.0277136 0.000200342 -0.000179954)
(-0.420482 -0.00179206 -0.000238911)
(-0.523798 -0.00017984 0.000411198)
(-0.0302917 -0.000212762 -0.000127901)
(-0.422447 0.000927072 -0.00014194)
(-0.524404 0.000360016 0.000866215)
(-0.0304985 -0.00117364 1.48383e-05)
(-0.422143 -0.00124798 -0.000162159)
(-0.523435 -0.000984639 -0.000962425)
(-0.0266062 -0.000816398 7.26088e-05)
(-0.419107 0.000621391 -5.46562e-05)
(-0.521163 -0.00151118 -0.000653816)
(-0.416257 0.0044518 -3.36652e-05)
(-0.518574 -0.000391121 0.000117836)
(-0.00143099 0.000764086 0.00203573)
(-0.261176 4.65613e-05 0.00420554)
(-0.26639 0.00104311 0.00127135)
(0.00530886 -0.00363111 -0.000171381)
(-0.519573 0.00470505 -0.000269271)
(-0.526305 0.000230979 0.000284336)
(-0.00242154 -0.0100496 -0.000673498)
(-0.516109 -0.00425134 -0.000210623)
(-0.521212 -0.00778934 6.42942e-05)
(-0.0134856 -0.0345216 -0.000586902)
(-0.519664 0.00706215 -0.000789726)
(-0.524077 -0.0128199 -0.00452241)
(-0.0137249 -0.0242119 0.000105441)
(-0.0131999 -0.0350784 0.00248042)
(-0.0129648 -0.0296645 0.00114705)
(-0.440021 -0.0455115 -0.00152883)
(0.020999 -0.0564329 0.000293536)
(-0.469157 -0.00997411 0.000269815)
(-0.495986 -0.0459871 0.000727562)
(-0.323752 0.0116117 -0.0028412)
(0.024959 -0.120572 0.00457001)
(0.0523768 -0.207052 -0.00016633)
(-0.441333 5.00686e-06 -0.00218424)
(-0.471702 -0.175164 0.01784)
(0.0327099 -0.00938431 -0.198237)
(-0.370355 -0.144116 0.022784)
(-0.288498 -0.0788808 0.00477515)
(-0.522681 0.0190664 0.00155158)
(-0.0680189 0.0205297 0.0013986)
(0.0286065 0.0291351 2.79502e-05)
(-0.441624 -0.00131709 -0.000393501)
(-0.54268 0.0531231 -0.00356812)
(0.0188861 -0.0167056 0.000857141)
(0.0197947 0.0144876 -0.00167511)
(0.0207005 -0.0591212 0.000510479)
(0.018958 0.0164757 -0.00117776)
(0.0246686 0.0128801 -7.42349e-05)
(-0.430887 -0.0022978 -3.42395e-05)
(-0.537456 0.0217193 -0.000731111)
(0.0260624 0.00724142 -0.000197165)
(-0.424246 0.000867006 -0.000189443)
(-0.537082 0.0118703 0.00254312)
(0.0235534 0.0040126 8.40257e-05)
(-0.421953 0.000982084 5.01034e-05)
(-0.537068 0.0072255 0.000381352)
(0.0292782 0.00194986 0.000215772)
(-0.419327 0.00535661 1.3309e-05)
(-0.534057 0.00344719 -0.00223568)
(0.0190844 0.00167197 2.53736e-05)
(-0.419348 -0.000163925 -4.17645e-05)
(-0.533437 0.002109 -0.000925688)
(0.0145166 0.000981799 -0.000275104)
(-0.422413 0.000483178 -5.23657e-05)
(-0.536508 0.00224268 0.000486173)
(0.0135806 -0.000237768 -0.000293937)
(-0.423276 -0.00233499 -0.000285962)
(-0.537027 0.000544241 0.00180025)
(0.0076933 -0.000768036 2.26274e-05)
(-0.424012 -0.00227028 -8.38224e-05)
(-0.537299 -0.00019289 -6.98781e-05)
(0.00064526 -0.000353417 0.000203959)
(-0.425754 -0.0034397 6.74592e-05)
(-0.539175 -0.000721515 0.00012461)
(0.00566179 0.00113247 4.19207e-05)
(-0.424644 0.00207273 4.3794e-05)
(-0.538759 4.38856e-05 0.000564039)
(0.00319191 0.000857713 -0.000132333)
(-0.424864 0.00746273 -0.000139059)
(-0.536841 0.00141591 0.000240105)
(-0.00119421 -0.000376295 -4.27213e-05)
(-0.427165 -0.00177951 -6.36972e-05)
(-0.537916 -0.000253976 0.00102395)
(0.00345015 -5.86035e-05 2.01221e-05)
(-0.425951 -0.000938577 0.000192738)
(-0.537868 -0.000200341 -0.00160918)
(0.000148814 0.000211894 -3.82652e-05)
(-0.424941 -0.000599083 0.000120884)
(-0.536362 0.000469379 -0.000388323)
(-0.00173101 0.000367585 6.57821e-05)
(-0.425411 -0.00448118 -0.000219257)
(-0.536017 0.0003149 -0.000460427)
(-0.0042811 0.000649142 4.17338e-05)
(-0.425064 0.00090869 0.000128285)
(-0.535261 0.000898938 -0.00249718)
(-0.000194 0.00052588 -0.000175685)
(-0.4244 -0.00205751 -5.66439e-05)
(-0.534631 0.0011987 0.00160564)
(0.000950015 0.000597041 -0.000117148)
(-0.422355 -0.00922512 -6.60638e-05)
(-0.532906 0.00104989 0.00109138)
(-0.00848953 0.000269438 0.000114506)
(-0.422844 -0.00905421 8.38644e-05)
(-0.531844 0.00112716 -0.000595883)
(0.000395924 -0.000852969 0.0001195)
(-0.421843 0.00352865 9.43053e-05)
(-0.530057 -0.000259463 -0.000661987)
(0.000945785 -0.00139903 -0.000182838)
(-0.41889 0.0188746 -0.000208587)
(-0.528069 -0.00201095 -0.000850269)
(-0.00574661 -0.00137093 -0.000236888)
(-0.420391 0.00173765 -0.000261203)
(-0.529162 -0.00192247 0.00185739)
(0.000482379 -0.00084245 -6.16674e-05)
(-0.418921 0.00372899 8.89895e-06)
(-0.527352 -0.00190512 0.000732733)
(0.00296994 0.000285863 -8.72763e-05)
(-0.414516 0.00426491 -7.57079e-05)
(-0.5229 -0.000727701 -0.00154011)
(-0.00244276 0.00071706 -1.1106e-05)
(-0.414823 -0.00641269 -0.000270501)
(-0.521953 0.000654384 0.000197407)
(-0.00933654 -2.39816e-05 0.000137293)
(-0.417953 4.43055e-05 0.000107019)
(-0.524061 0.000473493 -0.00120351)
(-0.00810141 -0.00101308 0.000121427)
(-0.418645 0.00281492 8.47434e-05)
(-0.524414 -0.000710388 -0.000875206)
(-0.00391314 -0.000840859 -4.19864e-05)
(-0.415674 -0.00198501 8.71945e-05)
(-0.521968 -0.00119621 0.00155339)
(-0.0128748 0.000407902 -0.000214324)
(-0.415668 -0.00357475 -0.000138366)
(-0.522343 -0.000111399 0.00128255)
(-0.0234371 0.000951629 -0.000174224)
(-0.420833 -0.00204589 -0.000180121)
(-0.526374 0.00123416 0.000124073)
(-0.0242044 0.000251525 -8.93729e-05)
(-0.423848 -0.0110152 -8.77945e-05)
(-0.527708 0.00105633 -0.000277289)
(-0.0248214 -0.000258789 -5.63133e-05)
(-0.423189 -0.00854468 4.88141e-05)
(-0.526828 -6.75936e-06 -0.00108115)
(-0.0218708 0.000887673 1.24059e-05)
(-0.421161 0.00286773 -0.000109697)
(-0.525732 -0.000205656 -0.000834316)
(-0.0220206 0.0023983 0.000157017)
(-0.420151 0.00714359 -6.34001e-05)
(-0.524533 0.00161838 0.00083039)
(-0.027204 0.00179193 8.67627e-05)
(-0.422447 0.0101697 0.000106403)
(-0.525329 0.00213955 0.001037)
(-0.0256326 -0.000168146 5.94404e-06)
(-0.423498 0.00778463 3.02337e-05)
(-0.525493 0.000229494 -0.00106077)
(-0.0211989 -0.000884755 -0.000121633)
(-0.420683 0.00144618 2.11613e-05)
(-0.523155 -0.00136585 -0.00109707)
(-0.0263598 -0.000693594 -0.000200926)
(-0.420245 -0.00112269 -0.000309137)
(-0.522673 -0.000686041 0.00123776)
(-0.0324528 -0.00140616 -0.000176191)
(-0.423339 -0.00611165 -0.000162987)
(-0.524881 -0.000636228 0.000678708)
(-0.0294915 -0.00181848 -0.000231686)
(-0.422658 -0.00927249 -0.00032808)
(-0.524559 -0.0019109 -0.000998116)
(-0.0239701 -0.000785416 -0.000160937)
(-0.417814 -0.00221981 -0.000254513)
(-0.52046 -0.00160659 -6.54952e-05)
(-0.415277 0.0073383 -0.000212337)
(-0.51713 -0.000218689 0.000480919)
(0.00432993 -0.00204652 0.00190204)
(-0.260507 -0.00659188 0.00381941)
(-0.265898 -0.00267071 0.00101784)
(-0.00547628 -0.00344486 -0.000308532)
(-0.521318 -0.00263979 -0.000282428)
(-0.531037 -0.00165197 -0.000479857)
(0.0101765 -0.00636418 -0.000326659)
(-0.520081 0.00514052 -0.000137121)
(-0.528513 -0.0055747 -0.00197902)
(-0.0185395 -0.00509431 -0.00121651)
(-0.520862 0.00803221 -8.60001e-05)
(-0.53421 -0.00762919 -0.000285277)
(0.0192027 0.00844843 0.0013282)
(-0.0166638 -0.00958302 -0.00187385)
(0.019379 0.00906848 0.00403606)
(-0.475398 -0.0131527 -0.000438359)
(0.0331097 -0.0141339 -0.000817965)
(-0.488959 0.0850571 0.00024305)
(-0.513321 -0.00733054 -0.0142337)
(-0.27203 -0.0411779 -0.020754)
(-0.0395369 -0.0575806 -0.0359404)
(0.12151 -0.0553426 -0.0232983)
(-0.306837 0.0822069 -0.0236043)
(-0.29269 -0.104822 -0.0421495)
(0.0927615 -0.0869429 -0.0481168)
(-0.0637027 -0.0952042 0.0347064)
(-0.130727 0.0827862 -0.0758024)
(-0.168544 0.131756 -0.0129689)
(0.112864 0.0448164 -0.0829441)
(0.0275736 0.0178984 -0.000455809)
(-0.457456 -0.00898806 -0.000518173)
(-0.585789 0.0310453 0.00137761)
(0.0328842 0.0344359 0.00120297)
(0.0277677 0.00915828 0.000388645)
(0.033224 0.0670045 0.00210948)
(0.0282522 0.0118851 0.000603899)
(0.0281558 0.00942189 -0.000149397)
(-0.441435 0.002901 -9.55254e-05)
(-0.565276 0.0147336 0.00168762)
(0.0263457 0.00570947 5.77466e-05)
(-0.428904 -0.00383411 1.48402e-05)
(-0.547847 0.00867678 -0.0021611)
(0.028673 0.00410821 -2.06013e-05)
(-0.423964 0.00169349 7.79692e-05)
(-0.541557 0.00514217 -0.00157201)
(0.0227994 0.00228457 -0.00024421)
(-0.421615 -0.0018225 -0.000321847)
(-0.537674 0.00413606 0.00268315)
(0.0199104 0.000655287 -0.0001195)
(-0.421383 0.00406719 -0.000234866)
(-0.536718 0.000866705 0.00180797)
(0.0110534 0.000158589 -6.31476e-05)
(-0.423037 -0.000702215 8.72108e-05)
(-0.538082 0.000872908 -0.000921348)
(0.0136141 -0.000532458 -7.59134e-05)
(-0.424144 -0.00870124 -6.15783e-05)
(-0.538179 6.94028e-05 -0.000675723)
(0.00625714 -0.0011442 -3.90395e-05)
(-0.424784 -0.00796887 -3.38503e-05)
(-0.538259 -0.00041623 -0.000380993)
(0.00736957 -0.000549954 -9.26985e-05)
(-0.425009 -0.00220076 -3.94473e-05)
(-0.538358 -0.00130651 1.37105e-05)
(0.00956031 0.001267 -0.000137127)
(-0.42237 -0.00127547 -0.000145258)
(-0.535993 0.000368926 -0.00021254)
(-0.00328385 0.00113989 -7.0448e-05)
(-0.425023 0.000382544 -1.43586e-05)
(-0.537505 0.00183745 0.00125804)
(-0.00213196 0.00023312 0.00017168)
(-0.428297 0.0128403 4.2325e-05)
(-0.539791 -4.58444e-05 -0.00114645)
(0.00453957 0.000472984 0.000293523)
(-0.425651 0.000735361 0.000281459)
(-0.537298 0.000299475 -0.00300878)
(-0.00152355 0.000426945 -5.99986e-05)
(-0.425 0.00369737 0.000119271)
(-0.536344 0.00069134 0.00207067)
(-0.00122877 -5.69003e-05 -0.000156864)
(-0.426018 0.000368353 -0.000200856)
(-0.536517 0.000373968 0.00166544)
(-0.00569814 -0.000546324 2.99663e-05)
(-0.42568 -0.00580295 0.000181601)
(-0.535378 -4.00905e-05 -0.00114667)
(-0.00191318 -0.000737123 5.29807e-05)
(-0.424643 0.000488806 -1.82753e-05)
(-0.534201 -0.00060439 0.0011297)
(0.00274082 -0.000621924 0.000134901)
(-0.422215 -0.00709574 8.47911e-05)
(-0.531979 -0.000204962 -0.000257008)
(-0.00460184 -0.000278572 6.36604e-05)
(-0.42242 -0.00381233 6.23902e-05)
(-0.532861 -0.000221038 -0.0025593)
(0.00202134 -7.33991e-05 -0.000233687)
(-0.421588 0.00206845 -0.000233147)
(-0.531813 -0.000200303 -0.000418974)
(0.000334283 -0.000307848 -0.000286935)
(-0.419176 0.00234141 -0.000335606)
(-0.527733 -0.000539503 0.00323029)
(-0.00613051 -0.000335129 -1.55005e-05)
(-0.420414 0.00989264 -0.000246037)
(-0.52848 -0.000856566 0.000869871)
(0.00153509 0.000465182 -5.11502e-06)
(-0.417912 0.00115161 1.32206e-05)
(-0.526588 -0.000493716 -0.00369348)
(0.00110763 0.00105924 -0.000258871)
(-0.413773 -0.0064589 -0.000183836)
(-0.521928 0.000969369 -6.56237e-05)
(-0.00355205 0.000357252 -0.000152494)
(-0.415701 0.00216765 -0.000254609)
(-0.522661 0.000890647 0.00283904)
(-0.00992486 -0.000509575 5.44758e-05)
(-0.419034 -0.000451494 5.46327e-05)
(-0.525572 -0.00033484 -0.000224485)
(-0.010451 -0.000859557 5.05096e-05)
(-0.419084 -0.00292188 8.49681e-05)
(-0.525457 -0.000831998 -7.79084e-05)
(-0.00389985 -0.000964069 -9.11474e-06)
(-0.415808 -0.00105495 9.8388e-05)
(-0.521658 -0.000929764 0.000306082)
(-0.0113935 -0.000548889 -0.00010415)
(-0.415151 -0.00962199 -1.84187e-05)
(-0.520565 -0.00068552 -0.00108427)
(-0.0237987 0.000150495 -9.37209e-05)
(-0.419965 -0.00701627 -0.000169042)
(-0.524919 0.000153449 0.000234207)
(-0.0249759 0.00018186 5.03503e-05)
(-0.423815 0.00041005 -0.000104514)
(-0.52818 0.000638346 -0.000235853)
(-0.0212705 0.000211236 -4.52102e-06)
(-0.42315 0.000782137 9.43874e-05)
(-0.52744 3.1971e-05 -0.00178883)
(-0.0170525 0.00115079 -0.000185518)
(-0.419982 0.00293245 -9.10481e-05)
(-0.524484 0.000317363 0.000335397)
(-0.020755 0.00182326 -0.000114066)
(-0.419306 0.0117297 -0.000228911)
(-0.523397 0.00133049 0.00195291)
(-0.0295123 0.00136439 4.98976e-05)
(-0.423011 0.010266 -0.000129476)
(-0.526341 0.00126505 -0.000493178)
(-0.0294734 0.000565885 4.54537e-05)
(-0.424487 0.00512223 6.62129e-06)
(-0.527402 0.00040883 -0.00200458)
(-0.023646 -7.31745e-05 -0.000166241)
(-0.421479 0.0025261 0.000114586)
(-0.523826 4.08236e-05 0.000679867)
(-0.0294152 -0.000905434 -0.000271242)
(-0.421289 -0.00161132 -0.000148938)
(-0.522889 -0.000270911 0.00203363)
(-0.0344249 -0.00168315 -0.000314825)
(-0.424318 -0.0129648 -0.000287512)
(-0.525939 -0.00100158 -0.000702908)
(-0.0256399 -0.00131567 -0.000350929)