/*--------------------------------*- C++ -*----------------------------------*\
| =========                 |                                                 |
| \\      /  F ield         | OpenFOAM: The Open Source CFD Toolbox           |
|  \\    /   O peration     | Version:  5.0                                   |
|   \\  /    A nd           | Web:      www.OpenFOAM.org                      |
|    \\/     M anipulation  |                                                 |
\*---------------------------------------------------------------------------*/
FoamFile
{
    version     2.0;
    format      ascii;
    class       volScalarField;
    location    "0.4";
    object      p_rgh;
}
// * * * * * * * * * * * * * * * * * * * * * * * * * * * * * * * * * * * * * //

dimensions      [1 -1 -2 0 0 0 0];

internalField   nonuniform List<scalar> 
4440
(
103.866
103.808
103.746
103.689
103.649
104.352
100.97
97.5436
95.1622
92.7177
90.2871
87.8612
85.4415
83.0091
80.5843
78.1599
75.7469
73.3285
70.9181
68.5057
66.1159
63.7325
61.3448
58.9902
56.6417
54.2969
51.9752
49.6823
47.3964
45.1078
42.8506
40.5879
38.3217
36.0926
33.8955
31.6907
29.4562
27.2086
24.9754
22.7703
20.5645
18.336
16.1272
13.9679
11.8094
9.6228
7.45632
5.31822
3.18061
1.05292
103.851
103.801
103.767
103.772
103.74
103.892
100.853
97.5157
95.1598
92.7167
90.2835
87.8595
85.4184
82.9954
80.5822
78.1517
75.747
73.3142
70.895
68.5015
66.1097
63.7308
61.3554
58.992
56.6521
54.3154
51.9885
49.681
47.3904
45.1031
42.824
40.5717
38.3287
36.1013
33.8934
31.686
29.4612
27.2254
24.9963
22.7758
20.5608
18.3318
16.1202
13.9556
11.803
9.63392
7.46743
5.31937
3.17723
1.04872
103.859
103.81
103.856
103.816
103.946
103.989
100.847
97.6293
95.2166
92.7661
90.3042
87.8847
85.4479
83.0053
80.5815
78.1652
75.7326
73.2909
70.8725
68.4998
66.1075
63.7266
61.3627
59.0016
56.653
54.3227
51.9999
49.6751
47.3821
45.1069
42.8265
40.5733
38.3511
36.1205
33.8886
31.6715
29.4616
27.2353
25.0009
22.7741
20.5532
18.3335
16.1322
13.9531
11.7939
9.63858
7.47769
5.3194
3.1716
1.04783
103.9
103.834
103.819
103.769
103.735
103.862
101.978
97.7812
95.3283
92.8079
90.3367
87.8767
85.4563
83.0196
80.5842
78.1614
75.734
73.2976
70.8918
68.4944
66.0958
63.7252
61.3576
58.9971
56.6402
54.3108
52.001
49.6725
47.3809
45.1107
42.8323
40.5897
38.361
36.1269
33.8835
31.6558
29.4559
27.2388
25.0018
22.7682
20.5455
18.3458
16.1569
13.963
11.786
9.6347
7.47735
5.31173
3.16742
1.05278
103.901
103.859
103.803
103.8
103.741
103.833
102.985
97.9587
95.406
92.8654
90.3723
87.9168
85.4665
83.0283
80.5787
78.1544
75.7217
73.3077
70.9162
68.4954
66.0925
63.7253
61.3515
58.9935
56.6337
54.2997
51.9947
49.6787
47.4004
45.1227
42.8394
40.5952
38.3613
36.126
33.8806
31.6465
29.4461
27.2324
24.9881
22.7583
20.5485
18.3639
16.1798
13.9781
11.7882
9.62935
7.46266
5.2904
3.15857
1.05736
103.875
103.86
103.824
103.829
104.014
103.861
103.486
97.9556
95.422
92.8743
90.3809
87.9227
85.4662
83.025
80.5724
78.1468
75.7145
73.3065
70.9224
68.5072
66.0981
63.7312
61.3532
58.9849
56.6288
54.289
51.9844
49.6835
47.4047
45.1314
42.8463
40.6006
38.369
36.1232
33.8753
31.6426
29.4334
27.2225
24.9892
22.7574
20.5557
18.3788
16.1941
13.9879
11.7945
9.62369
7.4431
5.26797
3.14535
1.05286
103.907
103.864
103.852
103.815
103.808
103.839
102.717
97.8099
95.3613
92.8582
90.3608
87.9068
85.4428
83.0068
80.5717
78.1461
75.7146
73.2976
70.9203
68.5202
66.1128
63.7336
61.3562
58.9769
56.6222
54.2839
51.9748
49.6833
47.3986
45.1144
42.8378
40.6034
38.369
36.1128
33.8701
31.646
29.4273
27.209
24.9881
22.7663
20.5652
18.3859
16.1956
13.9894
11.7981
9.62075
7.43226
5.25984
3.13544
1.04328
103.917
103.836
103.845
103.84
103.812
103.952
101.964
97.6944
95.2609
92.7986
90.3371
87.8923
85.4344
83.0029
80.5907
78.1422
75.7228
73.3101
70.906
68.5268
66.123
63.7383
61.3569
58.9742
56.6205
54.28
51.9716
49.6857
47.3887
45.1067
42.85
40.6081
38.3637
36.1039
33.8694
31.6566
29.426
27.1953
24.9816
22.774
20.5707
18.3785
16.1857
13.9865
11.7989
9.6198
7.43795
5.2717
3.13678
1.03477
103.853
103.824
103.829
103.785
103.872
104.042
100.962
97.5681
95.1829
92.7366
90.2979
87.8614
85.4255
83.0001
80.5758
78.1415
75.7441
73.3277
70.9153
68.5177
66.1274
63.7418
61.3494
58.9767
56.6144
54.275
51.9722
49.6828
47.3894
45.1103
42.8581
40.6086
38.3492
36.0985
33.8763
31.6647
29.4289
27.1904
24.9761
22.772
20.5695
18.3652
16.1659
13.9833
11.8025
9.61902
7.44766
5.29303
3.15389
1.03865
103.867
103.812
103.771
103.722
103.733
104.136
101.002
97.5673
95.1639
92.7274
90.2882
87.8646
85.4471
83.0003
80.5774
78.1566
75.7464
73.331
70.9226
68.5151
66.1251
63.7378
61.3453
58.9845
56.6253
54.279
51.9708
49.6814
47.3936
45.1115
42.8595
40.599
38.3275
36.0904
33.8871
31.6791
29.4418
27.1964
24.974
22.7715
20.5667
18.3477
16.1452
13.979
11.8073
9.61745
7.45157
5.3114
3.17453
1.04905
103.865
103.808
103.746
103.684
103.586
104.379
100.97
97.5437
95.162
92.7177
90.2871
87.8611
85.4415
83.0089
80.5842
78.1601
75.7469
73.3285
70.9179
68.5057
66.1158
63.7324
61.3448
58.9902
56.6416
54.2968
51.9752
49.6823
47.3965
45.1079
42.8506
40.5879
38.3216
36.0927
33.8955
31.6907
29.4562
27.2085
24.9754
22.7703
20.5645
18.3358
16.1271
13.9679
11.8094
9.62244
7.4563
5.31829
3.18057
1.0529
103.849
103.8
103.767
103.77
103.735
103.878
100.854
97.5161
95.1597
92.7167
90.2835
87.8595
85.4183
82.9954
80.5822
78.1519
75.7469
73.3141
70.8951
68.5016
66.1096
63.7307
61.3555
58.992
56.652
54.3155
51.9885
49.681
47.3905
45.1029
42.8239
40.5714
38.3288
36.1014
33.8933
31.686
29.4612
27.2253
24.9962
22.7759
20.5608
18.3317
16.1202
13.9557
11.803
9.63383
7.46753
5.31929
3.1771
1.04872
103.86
103.809
103.853
103.816
103.888
103.984
100.841
97.6291
95.216
92.7661
90.3041
87.8846
85.4479
83.0053
80.5815
78.1652
75.7326
73.2909
70.8723
68.4998
66.1076
63.7266
61.3627
59.0015
56.653
54.3227
51.9997
49.6751
47.3821
45.1068
42.8267
40.5732
38.3511
36.1204
33.8883
31.6714
29.4616
27.2353
25.0009
22.7741
20.5531
18.3335
16.1324
13.9531
11.7938
9.63859
7.47775
5.31932
3.17157
1.04789
103.902
103.834
103.82
103.765
103.733
103.787
101.852
97.7808
95.3282
92.808
90.3367
87.8767
85.4562
83.0196
80.5842
78.1614
75.734
73.2977
70.8918
68.4944
66.0956
63.7251
61.3575
58.9969
56.6401
54.311
52.0009
49.6725
47.3807
45.1109
42.8324
40.5894
38.3609
36.1269
33.8832
31.6558
29.4559
27.2388
25.0017
22.7681
20.5455
18.3459
16.157
13.9628
11.7859
9.63468
7.47741
5.31155
3.1674
1.05287
103.902
103.858
103.801
103.799
103.64
103.655
102.886
97.9594
95.4059
92.8652
90.3721
87.9168
85.4668
83.0283
80.5787
78.1543
75.7217
73.3077
70.9163
68.4952
66.0923
63.7255
61.3516
58.9934
56.6337
54.2996
51.9946
49.6786
47.4004
45.1228
42.839
40.5952
38.3615
36.1259
33.8806
31.6464
29.4459
27.2325
24.9881
22.7582
20.5485
18.3643
16.1797
13.9779
11.7882
9.62933
7.46244
5.29014
3.15867
1.05738
103.873
103.859
103.825
103.829
104
103.964
103.456
97.9563
95.4219
92.8742
90.3809
87.9229
85.4661
83.025
80.5724
78.1468
75.7145
73.3064
70.9224
68.5072
66.0981
63.7314
61.3532
58.9848
56.6286
54.289
51.9843
49.6836
47.4047
45.1314
42.8461
40.6007
38.369
36.1231
33.8752
31.6427
29.4333
27.2224
24.9892
22.7573
20.5558
18.3789
16.194
13.9878
11.7947
9.62367
7.44271
5.26781
3.1456
1.05288
103.907
103.863
103.852
103.813
103.777
103.699
102.675
97.8109
95.3612
92.8582
90.3608
87.9068
85.4428
83.0068
80.5716
78.1461
75.7146
73.2978
70.9204
68.52
66.1127
63.7336
61.3562
58.9769
56.6222
54.2839
51.9748
49.6831
47.3985
45.1142
42.8378
40.6037
38.369
36.1128
33.8701
31.6461
29.4273
27.209
24.9881
22.7662
20.5652
18.3859
16.1956
13.9894
11.7981
9.62072
7.43214
5.2599
3.13562
1.04308
103.918
103.836
103.846
103.839
103.774
103.88
101.975
97.6945
95.2607
92.7985
90.3371
87.8923
85.4344
83.0029
80.5906
78.1422
75.7226
73.3101
70.9057
68.5267
66.123
63.7381
61.3568
58.9741
56.6206
54.2799
51.9715
49.6858
47.3887
45.1063
42.85
40.6081
38.3637
36.1039
33.8694
31.6565
29.4259
27.1953
24.9816
22.7741
20.5707
18.3785
16.1856
13.9864
11.7989
9.61978
7.4379
5.27172
3.13667
1.03465
103.853
103.822
103.828
103.788
103.865
104.043
100.958
97.5682
95.1827
92.7366
90.2979
87.8614
85.4255
83.0001
80.5758
78.1412
75.7436
73.3278
70.9151
68.5176
66.1274
63.7417
61.3493
58.9767
56.6144
54.2748
51.9723
49.683
47.3891
45.1102
42.8587
40.6086
38.3487
36.0985
33.8763
31.6646
29.4288
27.1905
24.9762
22.7721
20.5694
18.365
16.1659
13.9833
11.8025
9.61896
7.44768
5.29302
3.15374
1.03865
103.867
103.811
103.769
103.723
103.722
104.181
101.003
97.5674
95.1638
92.7274
90.288
87.8651
85.4472
83.0002
80.5774
78.1565
75.7464
73.3311
70.9225
68.5152
66.1253
63.7378
61.3452
58.9845
56.6252
54.2789
51.9709
49.6814
47.3934
45.1114
42.8596
40.5989
38.3273
36.0904
33.8872
31.679
29.4417
27.1964
24.974
22.7714
20.5667
18.3477
16.1451
13.979
11.8073
9.61706
7.4516
5.31145
3.17437
1.04905
103.865
103.808
103.748
103.685
103.642
104.387
100.97
97.543
95.1621
92.7176
90.2869
87.861
85.4415
83.0089
80.584
78.1602
75.7468
73.3283
70.9176
68.5056
66.1158
63.7323
61.3447
58.9903
56.6415
54.2966
51.9752
49.6822
47.3966
45.1079
42.8505
40.5878
38.3215
36.0926
33.8954
31.6906
29.4561
27.2083
24.9752
22.7706
20.5646
18.3357
16.127
13.9679
11.8093
9.62234
7.45623
5.31832
3.18047
1.05281
103.849
103.8
103.767
103.77
103.721
103.881
100.854
97.516
95.1597
92.7166
90.2834
87.8594
85.4183
82.9953
80.5821
78.1521
75.7468
73.3139
70.8951
68.5016
66.1094
63.7306
61.356
58.9921
56.6519
54.3156
51.9887
49.6809
47.3903
45.1028
42.8237
40.5713
38.3289
36.1015
33.8932
31.6859
29.4612
27.225
24.9962
22.7759
20.5606
18.3316
16.1202
13.9557
11.8028
9.63367
7.46761
5.31915
3.17693
1.04865
103.86
103.811
103.853
103.816
103.902
103.965
100.845
97.6282
95.2155
92.766
90.3041
87.8846
85.4478
83.0052
80.5814
78.1651
75.7325
73.2908
70.8723
68.4997
66.1076
63.7265
61.3626
59.0008
56.6529
54.3226
51.9994
49.675
47.3819
45.1067
42.8268
40.573
38.3512
36.1203
33.8881
31.6713
29.4616
27.2353
25.0008
22.7741
20.553
18.3334
16.1325
13.9534
11.7936
9.6386
7.47777
5.31919
3.17149
1.04788
103.901
103.835
103.82
103.766
103.723
103.804
101.86
97.7794
95.3282
92.8086
90.3366
87.8766
85.4562
83.0195
80.5841
78.1613
75.7339
73.2977
70.8916
68.4944
66.0953
63.725
61.3574
58.9968
56.64
54.3112
52.0008
49.6725
47.3804
45.1111
42.8325
40.5893
38.3608
36.1268
33.883
31.6558
29.4558
27.2387
25.0015
22.7679
20.5453
18.346
16.1571
13.9626
11.7858
9.63461
7.4774
5.3113
3.16733
1.0529
103.902
103.857
103.801
103.799
103.705
103.684
102.905
97.9593
95.4059
92.865
90.372
87.9168
85.4671
83.0282
80.5786
78.1541
75.7216
73.3076
70.9163
68.4951
66.0921
63.7256
61.3516
58.993
56.6338
54.2995
51.9943
49.6785
47.4003
45.1229
42.8388
40.5951
38.3616
36.1259
33.8804
31.6464
29.4453
27.2324
24.9881
22.7581
20.5484
18.3643
16.1796
13.9777
11.7885
9.62925
7.46212
5.28985
3.15874
1.05731
103.872
103.86
103.824
103.831
104.017
103.806
103.456
97.9561
95.4219
92.8742
90.381
87.9228
85.4659
83.0249
80.5723
78.1467
75.7144
73.3062
70.9224
68.5072
66.098
63.7314
61.3531
58.9846
56.6285
54.2889
51.9843
49.6837
47.4046
45.1312
42.846
40.6007
38.3689
36.1229
33.875
31.6427
29.4333
27.2224
24.9891
22.7571
20.5558
18.379
16.1938
13.9877
11.7948
9.62359
7.44234
5.26762
3.1458
1.05283
103.907
103.863
103.853
103.813
103.783
103.726
102.625
97.8109
95.3612
92.858
90.3607
87.9067
85.4427
83.0067
80.5716
78.146
75.7145
73.2978
70.9203
68.5198
66.1126
63.7335
61.3561
58.9768
56.6225
54.2841
51.9747
49.6829
47.3984
45.1141
42.8377
40.6036
38.3689
36.1127
33.8702
31.6461
29.4272
27.2089
24.9881
22.766
20.5652
18.3859
16.1956
13.9892
11.798
9.62065
7.43196
5.25994
3.13578
1.04286
103.917
103.838
103.845
103.839
103.805
103.862
101.958
97.694
95.2605
92.7984
90.337
87.8922
85.4343
83.0028
80.5906
78.1421
75.7222
73.3104
70.9054
68.5266
66.1229
63.7379
61.3566
58.9741
56.6205
54.2797
51.9712
49.6859
47.3887
45.1061
42.8501
40.6081
38.3634
36.1038
33.8694
31.6564
29.4259
27.1953
24.9814
22.7739
20.5706
18.3784
16.1854
13.9864
11.7989
9.61971
7.4378
5.27171
3.13652
1.03448
103.852
103.822
103.828
103.785
103.845
104.034
100.958
97.5677
95.1822
92.7365
90.2978
87.8613
85.4254
83
80.5757
78.1409
75.743
73.3279
70.9149
68.5175
66.1273
63.7414
61.3492
58.9767
56.6144
54.2746
51.9723
49.683
47.3889
45.1098
42.8586
40.6085
38.3485
36.0984
33.8764
31.6644
29.4286
27.1905
24.9761
22.772
20.5692
18.3647
16.1658
13.9833
11.8024
9.61885
7.44765
5.29296
3.15352
1.03856
103.867
103.811
103.768
103.722
103.743
104.184
101.002
97.5667
95.1638
92.7273
90.2878
87.8652
85.4472
83
80.5773
78.1563
75.7463
73.3312
70.9223
68.5151
66.1254
63.7377
61.3452
58.9844
56.6251
54.2788
51.9709
49.6813
47.3932
45.1114
42.8597
40.5988
38.3271
36.0906
33.8871
31.6788
29.4415
27.1963
24.9739
22.7714
20.5666
18.3477
16.1451
13.979
11.8071
9.61691
7.45159
5.31145
3.17415
1.04896
102.18
104.008
102.165
104.371
102.191
104.045
102.174
101.792
103.901
101.988
103.885
101.794
103.891
101.926
102.346
103.801
103.462
104.013
102.243
103.816
103.417
103.688
103.823
103.786
103.837
103.714
103.697
103.816
103.688
103.828
103.867
103.675
103.712
103.838
103.886
103.83
103.751
103.699
103.966
103.851
103.689
103.719
103.782
103.888
103.601
103.698
103.78
103.824
103.629
103.434
104.009
102.506
104.009
103.389
104.02
102.383
102.081
104.203
101.896
104.038
102.018
104.215
101.899
102.174
104.391
102.203
104.19
102.185
104.409
102.214
102.189
104.038
102.172
104.391
102.188
104.002
102.169
101.79
103.887
101.921
103.88
101.794
103.876
101.92
102.234
103.756
103.414
103.982
102.237
103.779
103.408
103.722
103.713
103.855
103.94
103.717
103.713
103.802
103.712
103.791
103.888
103.683
103.716
103.811
103.88
103.852
103.701
103.72
103.811
103.85
103.659
103.721
103.842
103.828
103.637
103.755
103.761
103.837
103.638
103.386
104.029
102.374
103.874
103.385
104.029
102.371
102.013
104.217
101.894
104.121
102.014
104.208
101.892
102.183
104.405
102.213
104.192
102.187
104.406
102.212
102.189
103.994
102.171
104.373
102.177
103.969
102.16
101.798
103.873
101.926
103.867
101.796
103.872
101.988
102.249
103.79
103.411
103.953
102.355
103.793
103.462
103.709
103.699
103.814
103.836
103.682
103.773
103.8
103.716
103.801
103.876
103.728
103.697
103.891
103.855
103.848
103.656
103.719
103.818
103.828
103.833
103.694
103.78
103.817
103.631
103.726
103.764
103.831
103.607
103.39
104.031
102.38
103.892
103.433
104.024
102.499
102.019
104.212
101.895
104.032
102.081
104.207
101.894
102.189
104.4
102.213
104.144
102.181
104.385
102.202
103.768
103.68
103.704
103.628
103.777
103.683
103.696
103.961
103.887
104.227
104.36
104.246
104.064
103.801
99.5651
100.945
99.5485
100.97
99.574
100.945
99.5574
103.722
103.81
103.842
103.734
103.722
103.798
103.845
103.891
103.678
103.849
103.898
103.673
103.853
103.887
99.4533
100.808
99.4929
100.853
99.4623
100.806
99.5015
103.897
103.842
103.846
104.023
103.921
103.834
103.838
103.908
103.901
103.93
103.997
103.913
103.911
103.904
99.6324
101.954
99.7373
100.843
99.6417
101.968
99.7469
103.748
103.705
103.678
103.732
103.741
103.692
103.673
103.826
103.801
103.824
103.821
103.809
103.794
103.829
99.9152
102.82
100.074
101.858
99.9248
102.681
100.083
103.753
103.871
103.821
103.705
103.788
103.872
103.813
103.726
103.813
103.828
103.851
103.908
103.805
103.838
100.166
103.523
100.034
102.896
100.175
103.5
100.041
103.902
103.818
103.772
104.001
103.926
103.813
103.762
103.781
103.866
103.944
103.924
103.838
103.824
103.821
100.026
103.022
100.16
103.463
100.033
102.933
100.17
103.748
103.778
103.785
103.85
103.751
103.769
103.784
103.8
103.838
103.791
103.695
103.739
103.754
103.682
100.048
101.951
99.8928
102.606
100.057
101.83
99.9026
103.888
103.837
103.902
103.776
103.923
103.844
103.893
103.914
103.81
104.056
104.185
103.813
104.004
103.913
99.7301
101.477
99.6209
101.972
99.7396
101.474
99.6306
103.972
103.895
103.977
103.869
103.976
103.886
103.976
104.104
104.027
103.973
104.052
104.036
103.967
104.137
99.5673
100.961
99.5143
100.96
99.5761
100.961
99.5231
104.108
103.682
103.794
103.716
104.108
103.678
103.795
103.979
103.797
103.942
104.153
103.771
103.956
104.044
99.588
100.999
99.5915
101.002
99.5971
100.999
99.6006
103.774
103.676
103.698
103.64
103.767
103.675
103.689
103.9
103.762
104.262
104.388
103.903
104.26
103.76
99.573
100.945
99.5566
100.97
99.5731
100.945
99.5567
103.725
103.792
103.838
103.782
103.735
103.8
103.836
103.879
103.706
103.848
103.873
103.89
103.686
103.843
99.4616
100.805
99.5004
100.854
99.462
100.806
99.5002
103.865
103.833
103.837
103.909
103.862
103.832
103.838
103.915
103.917
103.889
103.982
103.913
103.918
103.835
99.641
101.974
99.7463
100.842
99.6409
101.981
99.7462
103.741
103.687
103.673
103.764
103.745
103.693
103.672
103.783
103.808
103.761
103.796
103.787
103.83
103.757
99.9239
102.873
100.081
101.852
99.9238
102.666
100.081
103.727
103.875
103.816
103.719
103.73
103.878
103.825
103.729
103.756
103.72
103.617
103.72
103.714
103.726
100.174
103.494
100.038
102.888
100.174
103.499
100.038
103.867
103.826
103.76
104.062
103.864
103.823
103.762
103.767
103.82
103.77
103.803
103.818
103.823
103.758
100.03
102.917
100.168
103.454
100.03
102.912
100.168
103.726
103.762
103.786
103.759
103.726
103.761
103.783
103.72
103.676
103.794
103.712
103.692
103.682
103.666
100.056
101.823
99.9016
102.598
100.056
101.823
99.9015
103.859
103.844
103.898
103.935
103.863
103.836
103.9
103.942
103.839
103.946
103.858
103.938
103.832
103.976
99.7389
101.47
99.6301
101.964
99.7391
101.47
99.6304
103.965
103.884
103.972
103.939
103.962
103.883
103.968
104.069
104.029
103.941
104.054
104.086
104.024
103.936
99.5753
100.962
99.522
100.957
99.5753
100.962
99.5219
104.126
103.681
103.794
103.938
104.119
103.684
103.802
103.913
103.686
103.98
104.168
103.91
103.668
103.979
99.5963
100.999
99.5997
101.003
99.5964
100.999
99.5997
103.765
103.685
103.731
103.637
103.758
103.681
103.676
103.925
103.767
104.284
104.386
103.912
104.264
103.775
99.574
100.945
99.5576
100.969
99.5651
100.944
99.5488
103.73
103.796
103.838
103.736
103.729
103.797
103.853
103.805
103.694
103.83
103.877
103.829
103.672
103.835
99.4634
100.809
99.5007
100.853
99.455
100.811
99.4914
103.865
103.832
103.843
103.949
103.854
103.832
103.839
103.919
103.917
103.809
103.962
103.918
103.912
103.856
99.6416
101.972
99.7467
100.847
99.6321
101.974
99.7369
103.746
103.692
103.673
103.727
103.75
103.693
103.688
103.803
103.812
103.817
103.805
103.781
103.816
103.892
99.9245
102.824
100.082
101.981
99.9145
102.855
100.073
103.734
103.881
103.834
103.703
103.73
103.887
103.857
103.757
103.697
103.759
103.688
103.757
103.697
104.017
100.175
103.505
100.041
102.992
100.166
103.529
100.034
103.862
103.822
103.758
104.015
103.87
103.819
103.761
103.774
103.81
103.738
103.841
103.781
103.82
103.751
100.032
102.923
100.169
103.482
100.025
103.01
100.16
103.731
103.759
103.783
103.811
103.738
103.757
103.798
103.716
103.649
103.786
103.722
103.714
103.653
103.786
100.058
101.829
99.9021
102.715
100.049
101.949
99.892
103.867
103.843
103.9
103.805
103.869
103.841
103.915
103.951
103.829
103.978
103.866
103.951
103.828
103.973
99.7398
101.473
99.6312
101.954
99.7302
101.477
99.6216
103.958
103.881
103.963
103.84
103.96
103.887
103.961
104.012
104.029
103.921
104.037
104.03
104.032
103.919
99.5763
100.962
99.5228
100.961
99.5674
100.961
99.5139
104.131
103.688
103.809
103.748
104.117
103.693
103.805
103.944
103.695
103.976
104.165
103.921
103.706
103.966
99.5973
100.999
99.6004
101.002
99.5883
100.999
99.5911
102.848
102.823
102.205
102.19
102.215
102.849
102.823
103.908
103.864
103.775
104.014
103.884
103.74
103.963
102.73
102.134
102.815
102.175
102.145
102.826
102.731
103.926
104.37
103.768
104.267
104.267
103.913
103.774
102.845
102.188
102.817
102.215
102.212
102.841
102.82
103.876
104.024
103.908
103.687
103.9
103.708
103.853
102.728
102.172
102.145
102.81
102.142
102.824
102.727
102.772
102.676
101.825
101.8
102.623
101.834
102.815
103.932
103.788
103.967
103.904
103.785
103.971
103.975
103.236
101.876
103.413
101.947
101.877
103.425
103.334
103.889
103.892
103.709
103.853
103.688
103.853
103.899
102.74
101.795
102.597
101.831
102.604
101.83
102.726
103.926
103.896
103.771
103.958
103.779
103.967
103.912
103.214
101.928
101.87
103.444
101.869
103.436
103.211
103.76
103.748
102.844
102.272
103.752
102.803
103.751
103.844
103.904
103.735
103.783
103.905
103.731
103.834
103.725
103.134
103.85
103.429
103.098
103.864
103.72
103.908
104
103.91
103.892
103.908
103.902
103.911
103.773
102.245
103.762
102.757
103.755
102.77
103.794
103.837
103.857
103.916
103.734
103.918
103.74
103.824
103.751
103.415
103.088
103.869
103.035
103.868
103.784
103.821
103.892
103.772
103.699
103.903
103.776
103.813
103.948
103.898
103.765
103.695
103.84
103.685
103.878
103.818
103.751
103.767
103.798
103.773
103.768
103.816
103.822
103.822
103.82
103.76
103.801
103.816
103.798
103.816
103.706
103.902
103.795
103.902
103.782
103.813
103.805
103.735
103.853
103.702
103.852
103.696
103.819
103.813
103.788
103.798
103.769
103.792
103.77
103.808
103.696
103.736
103.763
103.702
103.737
103.778
103.695
103.765
103.786
103.961
103.82
103.74
103.895
103.892
103.789
103.817
103.809
103.881
103.828
103.807
103.801
103.726
103.728
103.826
103.923
103.738
103.807
103.732
103.695
103.708
103.751
103.79
103.737
103.786
103.699
103.763
103.907
103.75
103.891
103.739
103.892
103.768
103.786
103.885
103.829
103.804
103.829
103.805
103.788
103.78
103.832
103.805
103.845
103.836
103.817
103.787
103.716
103.743
103.732
103.7
103.793
103.716
103.996
103.754
103.786
103.69
103.712
103.802
103.688
103.754
103.795
103.911
103.836
103.827
103.837
103.838
103.851
103.78
103.85
103.806
103.822
103.81
103.819
103.804
103.722
103.698
103.686
103.724
103.813
103.724
103.696
103.756
103.717
103.816
103.688
103.812
103.687
103.747
103.752
103.777
103.698
103.8
103.774
103.719
103.751
103.792
103.764
103.749
103.813
103.758
103.747
103.784
103.75
103.665
103.791
103.612
103.667
103.802
103.743
103.712
103.679
103.68
103.793
103.753
103.751
103.698
103.746
103.779
103.768
103.753
103.773
103.739
103.739
103.805
103.818
103.765
103.749
103.796
103.751
103.793
103.746
103.62
103.695
103.803
103.674
103.801
103.741
103.914
103.859
103.201
103.409
103.871
103.15
103.895
103.892
104.142
104.02
103.996
104.038
104.029
103.888
103.834
102.852
103.93
102.421
102.806
103.931
103.826
103.913
103.883
103.884
104.025
103.809
104.01
103.961
103.913
103.392
103.872
103.06
103.873
103.087
103.907
103.898
104.026
104.04
104.031
104.191
104.03
103.895
103.853
102.393
102.766
103.955
102.803
103.939
103.865
103.379
103.54
101.989
102.039
103.552
101.989
103.461
104.041
104.094
103.879
104.211
104.095
103.883
104.032
102.901
101.93
102.815
101.905
101.939
102.762
102.944
104.095
104.04
104.03
103.948
104.031
103.959
104.083
103.359
102.021
103.572
101.981
103.564
101.981
103.342
104.049
104.213
104.084
103.903
104.093
103.893
104.057
102.876
101.9
101.935
102.737
101.935
102.743
102.86
102.829
102.896
102.194
102.184
102.9
102.204
102.829
103.985
104.233
103.912
104.402
104.237
104.081
103.828
102.902
102.261
102.853
102.213
102.272
102.903
102.853
103.942
104.167
103.734
103.977
103.747
103.968
103.92
102.827
102.181
102.891
102.203
102.895
102.201
102.824
103.949
104.411
104.263
103.793
104.249
103.934
103.8
102.899
102.211
102.272
102.846
102.269
102.895
102.851
102.835
102.814
102.213
102.19
102.837
102.214
102.812
103.842
103.903
103.684
104.013
103.84
103.894
103.648
102.722
102.143
102.806
102.172
102.724
102.144
102.822
103.899
104.394
103.761
104.279
104.268
103.902
103.76
102.835
102.19
102.814
102.213
102.214
102.837
102.812
103.849
103.995
103.907
103.664
103.895
103.662
103.847
102.721
102.171
102.142
102.817
102.144
102.832
102.724
102.705
102.591
101.827
101.791
102.714
102.589
101.826
103.884
103.763
103.95
103.881
103.897
103.757
103.944
103.203
101.868
103.447
101.922
103.214
101.868
103.444
103.865
103.877
103.693
103.835
103.682
103.838
103.852
102.703
101.792
102.587
101.826
102.587
101.826
102.706
103.88
103.88
103.751
103.938
103.751
103.939
103.857
103.223
101.922
101.869
103.451
101.867
103.445
103.203
103.827
103.77
102.75
102.231
103.814
103.781
102.75
103.819
103.91
103.732
103.76
103.821
103.911
103.735
103.76
103.105
103.87
103.404
103.774
103.06
103.871
103.916
103.974
103.92
103.806
103.919
103.816
103.915
103.842
102.232
103.819
102.764
103.802
102.752
103.853
103.816
103.77
103.887
103.74
103.918
103.737
103.825
103.791
103.401
103.168
103.871
103.094
103.872
103.795
103.811
103.901
103.798
103.723
103.812
103.899
103.797
103.758
103.851
103.672
103.692
103.852
103.755
103.687
103.798
103.803
103.769
103.811
103.803
103.796
103.769
103.808
103.802
103.844
103.824
103.792
103.854
103.789
103.809
103.722
103.895
103.834
103.899
103.813
103.808
103.748
103.685
103.835
103.684
103.753
103.682
103.715
103.791
103.929
103.804
103.766
103.798
103.769
103.781
103.699
103.74
103.793
103.714
103.698
103.732
103.793
103.771
103.732
103.796
103.801
103.762
103.75
103.793
103.785
103.826
103.786
103.888
103.784
103.822
103.784
103.724
103.676
103.795
103.722
103.712
103.726
103.723
103.697
103.715
103.734
103.788
103.73
103.793
103.698
103.764
103.795
103.761
103.802
103.738
103.808
103.773
103.783
103.885
103.821
103.782
103.821
103.782
103.781
103.789
103.794
103.824
103.852
103.793
103.784
103.824
103.729
103.612
103.782
103.696
103.715
103.636
103.73
103.754
103.821
103.691
103.721
103.758
103.822
103.691
103.773
103.8
103.826
103.739
103.82
103.741
103.744
103.796
103.852
103.79
103.826
103.787
103.826
103.789
103.692
103.651
103.648
103.713
103.634
103.718
103.692
103.743
103.722
103.819
103.694
103.823
103.691
103.749
103.725
103.764
103.759
103.818
103.732
103.759
103.751
103.773
103.767
103.765
103.829
103.792
103.738
103.758
103.733
103.704
103.803
103.642
103.736
103.697
103.801
103.715
103.658
103.72
103.761
103.7
103.771
103.718
103.719
103.827
103.753
103.756
103.756
103.75
103.71
103.767
103.901
103.736
103.753
103.736
103.79
103.76
103.732
103.641
103.722
103.795
103.702
103.798
103.732
103.91
103.872
103.086
103.381
103.918
103.873
103.058
103.902
104.043
104.034
104.032
103.894
104.038
104.035
103.885
102.754
103.961
102.37
103.879
102.737
103.946
103.946
103.855
103.832
103.966
103.831
103.97
103.947
103.939
103.382
103.874
103.06
103.874
103.109
103.923
103.907
104.03
104.05
104.036
104.05
104.035
103.91
103.885
102.37
102.742
103.938
102.733
103.931
103.891
103.338
103.571
101.979
102.015
103.365
103.563
101.979
104.039
104.081
103.899
104.211
104.055
104.077
103.891
102.842
101.932
102.733
101.892
102.848
101.933
102.733
104.072
104.056
104.024
103.925
104.024
103.931
104.041
103.372
102.015
103.56
101.98
103.561
101.977
103.335
104.028
104.206
104.071
103.911
104.074
103.896
104.012
102.839
101.891
101.935
102.735
101.934
102.735
102.845
102.819
102.9
102.201
102.186
102.822
102.907
102.201
103.92
104.272
103.788
104.406
103.924
104.274
103.785
102.89
102.27
102.843
102.214
102.892
102.271
102.84
103.909
104.179
103.717
103.982
103.686
103.981
103.909
102.819
102.187
102.887
102.199
102.898
102.2
102.821
103.92
104.41
104.27
103.786
104.276
103.923
103.784
102.889
102.213
102.269
102.841
102.271
102.891
102.839
102.843
102.817
102.215
102.186
102.84
102.212
102.819
103.878
103.913
103.703
103.977
103.858
103.898
103.703
102.729
102.143
102.807
102.167
102.727
102.139
102.817
103.96
104.38
103.887
104.231
104.242
104.062
103.802
102.846
102.188
102.821
102.205
102.215
102.846
102.821
103.912
103.967
103.861
103.761
103.879
103.731
103.972
102.731
102.17
102.131
102.813
102.142
102.822
102.732
102.727
102.591
101.829
101.8
102.715
102.597
101.829
103.824
103.749
103.937
103.873
103.845
103.756
103.937
103.208
101.871
103.453
101.928
103.227
101.871
103.442
103.781
103.876
103.651
103.831
103.655
103.835
103.754
102.749
101.805
102.669
101.824
102.615
101.833
102.794
103.815
103.872
103.761
103.93
103.76
103.937
103.86
103.231
101.947
101.877
103.416
101.879
103.429
103.338
103.832
103.823
102.78
102.254
103.854
103.812
102.801
103.83
104.047
103.746
103.796
103.833
103.897
103.743
103.769
103.18
103.872
103.408
103.792
103.101
103.869
103.922
103.955
103.902
103.927
103.914
103.867
103.919
103.813
102.281
103.786
102.862
103.797
102.828
103.798
103.826
103.89
103.921
103.753
103.951
103.755
103.797
103.745
103.422
103.327
103.853
103.231
103.866
103.751
103.8
103.894
103.836
103.702
103.802
103.893
103.813
103.807
103.832
103.739
103.704
103.821
103.819
103.739
103.774
103.799
103.764
103.79
103.775
103.776
103.763
103.789
103.798
103.81
103.759
103.809
103.779
103.779
103.8
103.695
103.882
103.781
103.893
103.793
103.79
103.831
103.681
103.781
103.885
103.817
103.781
103.81
103.773
103.755
103.736
103.761
103.755
103.762
103.768
103.705
103.727
103.784
103.715
103.706
103.728
103.778
103.757
103.821
103.807
103.811
103.82
103.812
103.799
103.776
103.821
103.788
103.871
103.802
103.817
103.783
103.82
103.756
103.727
104.04
103.698
103.855
103.934
103.716
103.71
103.728
103.758
103.727
103.772
103.711
103.77
103.838
103.8
103.812
103.782
103.799
103.941
103.772
103.868
103.799
103.779
103.812
103.779
103.8
103.791
103.79
103.824
103.844
103.791
103.802
103.822
103.705
103.988
103.712
103.659
103.781
103.731
103.709
103.752
103.813
103.696
103.715
103.756
103.806
103.7
103.826
103.86
103.844
103.891
103.861
103.809
103.775
103.798
103.841
103.796
103.806
103.797
103.819
103.796
103.724
103.669
103.721
103.873
103.761
103.713
103.93
103.757
103.709
103.783
103.708
103.798
103.701
103.757
103.704
103.749
103.752
103.784
103.703
103.747
103.73
103.75
103.747
103.751
103.813
103.753
103.748
103.747
103.726
103.726
103.794
103.627
103.728
103.705
103.796
103.727
103.719
103.656
103.771
103.657
103.709
103.738
103.705
103.785
103.75
103.684
103.746
103.703
103.702
103.766
103.812
103.769
103.744
103.802
103.746
103.753
103.726
103.62
103.672
103.788
103.686
103.798
103.716
103.932
103.873
103.092
103.395
103.928
103.869
103.098
103.917
104.085
104.037
104.027
103.912
104.035
104.029
103.865
102.765
103.934
102.389
103.887
102.775
103.912
103.952
103.946
103.84
104.015
103.827
103.985
103.949
103.919
103.409