/*--------------------------------*- C++ -*----------------------------------*\
| =========                 |                                                 |
| \\      /  F ield         | OpenFOAM: The Open Source CFD Toolbox           |
|  \\    /   O peration     | Version:  5.0                                   |
|   \\  /    A nd           | Web:      www.OpenFOAM.org                      |
|    \\/     M anipulation  |                                                 |
\*---------------------------------------------------------------------------*/
FoamFile
{
    version     2.0;
    format      ascii;
    class       surfaceScalarField;
    location    "0.4";
    object      phi;
}
// * * * * * * * * * * * * * * * * * * * * * * * * * * * * * * * * * * * * * //

dimensions      [0 3 -1 0 0 0 0];

internalField   nonuniform List<scalar> 
12790
(
1.44011e-09
3.4942e-12
-5.59443e-11
1.43058e-09
-7.43699e-12
1.56634e-11
1.40616e-09
1.369e-11
4.06608e-11
2.96835e-10
-2.09479e-11
7.74538e-11
1.98902e-10
4.58576e-10
4.06829e-10
-1.34511e-11
-3.81201e-11
1.00434e-10
6.02408e-11
6.51155e-11
8.80777e-11
-1.08454e-10
1.08993e-10
-5.10599e-13
8.22663e-14
-3.50339e-11
2.01606e-10
2.15487e-12
-4.64805e-12
-3.55323e-11
-6.3541e-11
-6.45459e-11
1.39665e-09
-1.04912e-11
-3.02669e-11
-2.51821e-10
-2.51989e-10
-4.24798e-10
-4.24738e-10
1.41005e-09
-1.00584e-11
-1.45162e-12
1.41923e-09
-8.35307e-12
1.65505e-13
1.42635e-09
-6.07077e-12
-7.51606e-14
1.43063e-09
-4.30149e-12
8.23841e-13
1.43298e-09
-2.92387e-12
-3.78889e-13
1.43622e-09
-1.55374e-12
3.60503e-13
1.43748e-09
-1.10978e-12
-2.53541e-14
1.43817e-09
1.5349e-13
-1.21481e-12
1.43869e-09
-5.18185e-13
8.25911e-15
1.43932e-09
-5.26843e-13
-2.79654e-13
1.43921e-09
1.38281e-13
-1.03084e-13
1.43932e-09
-2.74714e-13
7.13589e-13
1.43899e-09
-1.05909e-13
1.0384e-12
1.43932e-09
-2.37186e-13
2.0307e-13
1.43935e-09
-3.98654e-13
-7.05277e-14
1.43934e-09
2.51483e-13
8.73481e-15
1.43906e-09
-2.1157e-13
3.12887e-13
1.43922e-09
-2.83823e-13
-7.43917e-14
1.43935e-09
-8.37539e-14
2.14254e-13
1.43925e-09
2.71825e-13
-1.122e-13
1.43913e-09
-1.67132e-12
1.78902e-12
1.43853e-09
6.45383e-13
3.01498e-13
1.44025e-09
-3.5876e-12
3.85084e-13
1.44008e-09
1.49342e-12
-1.0703e-12
1.43977e-09
4.38946e-13
5.30961e-14
1.4396e-09
1.75508e-13
-2.36125e-13
1.43966e-09
1.71098e-13
-2.29611e-13
1.43962e-09
1.03336e-14
-2.16759e-13
1.43976e-09
-9.33851e-14
-2.63943e-13
1.44032e-09
-7.14481e-13
3.81504e-13
1.43841e-09
4.84742e-12
-2.50225e-12
1.43911e-09
-8.1535e-13
2.71107e-13
1.43932e-09
-2.29935e-13
-9.82356e-14
1.43939e-09
-2.1335e-13
-3.34727e-13
1.43945e-09
3.3034e-14
2.25566e-14
1.43935e-09
1.83236e-13
1.93682e-14
1.43909e-09
1.00368e-13
7.07972e-14
1.43937e-09
-3.17173e-13
-8.28218e-14
1.43952e-09
-1.82778e-13
6.81766e-14
1.43954e-09
4.7644e-14
-3.42039e-14
1.43951e-09
1.0378e-13
-3.93885e-14
2.54919e-13
2.5277e-13
1.45533e-09
1.31469e-11
-7.60936e-11
1.436e-09
6.72271e-14
1.18239e-11
1.42758e-09
1.68897e-11
5.21797e-12
2.68689e-10
-1.6906e-11
4.29235e-11
2.35406e-10
4.60414e-10
4.16109e-10
1.4265e-11
2.27589e-10
-1.75668e-12
2.85914e-11
-3.30538e-12
-6.41657e-11
8.77464e-11
4.3933e-12
-2.46688e-11
-3.02469e-11
-4.25424e-12
1.88638e-10
-1.74073e-12
-5.37915e-12
-3.16721e-11
-5.59564e-11
-5.94057e-11
1.38367e-09
-5.3314e-11
-2.85765e-11
-2.45223e-10
-2.43708e-10
-4.14089e-10
-4.09248e-10
1.40864e-09
-3.40832e-11
-9.60085e-13
1.42122e-09
-2.13185e-11
3.84981e-13
1.42861e-09
-1.34679e-11
3.66586e-15
1.4328e-09
-8.52657e-12
3.62642e-14
1.43526e-09
-5.37383e-12
-2.30613e-15
1.43698e-09
-3.28557e-12
1.55359e-14
1.43796e-09
-2.09098e-12
8.24514e-15
1.43853e-09
-1.27019e-12
8.57243e-13
1.43885e-09
-8.31922e-13
-8.42545e-15
1.43918e-09
5.56463e-13
-1.41858e-12
1.43938e-09
6.01177e-13
-6.52195e-13
1.43943e-09
-9.6032e-14
-2.2852e-13
1.43937e-09
4.84626e-13
-5.36171e-13
1.43973e-09
-4.8005e-13
-1.11462e-13
1.43948e-09
-6.7226e-13
5.21983e-13
1.43895e-09
-1.01752e-12
1.805e-12
1.43948e-09
-3.99825e-13
-3.45129e-13
1.43953e-09
-3.29836e-13
-2.53085e-15
1.43953e-09
-1.76862e-13
9.41133e-14
1.43946e-09
3.50162e-13
-5.22156e-15
1.44007e-09
7.11217e-13
-2.98867e-12
1.44111e-09
-1.36197e-13
-2.6291e-13
1.43859e-09
-8.26345e-13
-2.42265e-13
1.43914e-09
1.2648e-14
9.27247e-13
1.43855e-09
1.00028e-12
2.69045e-14
1.43898e-09
2.95913e-13
-5.50156e-13
1.43918e-09
-5.22695e-14
2.48389e-14
1.43917e-09
5.39552e-14
-3.4322e-14
1.43897e-09
1.54527e-13
-4.56733e-14
1.43839e-09
-1.86804e-13
5.043e-14
1.44036e-09
3.38392e-13
2.53765e-12
1.43979e-09
6.8712e-14
-3.19714e-13
1.4396e-09
5.77129e-14
-9.5795e-14
1.43928e-09
7.5253e-14
3.20053e-14
1.43947e-09
-1.92075e-13
3.26898e-14
1.43967e-09
5.20036e-14
-7.44162e-14
1.43964e-09
1.02288e-13
2.57725e-14
1.43936e-09
-1.59565e-15
-3.15326e-14
1.43934e-09
-1.71762e-13
5.1033e-15
1.43946e-09
-6.02892e-14
-6.10148e-15
1.43949e-09
1.62195e-13
-9.07821e-14
8.09527e-14
2.61986e-14
1.42614e-09
1.56371e-11
-3.97435e-11
1.38613e-09
3.8962e-12
3.61804e-11
1.37458e-09
5.12297e-11
-2.27846e-11
1.63945e-10
9.08426e-12
1.51612e-10
2.47528e-10
3.94995e-10
3.90506e-10
-5.04328e-12
1.88322e-10
3.32593e-11
-5.25923e-11
1.52968e-12
-3.31717e-11
6.38703e-11
-8.12401e-12
-2.41044e-11
-4.41027e-11
1.26105e-11
1.99655e-10
4.26549e-11
-4.51702e-11
-7.17906e-11
-7.10443e-11
-4.11291e-12
-8.34947e-12
-6.15691e-12
-3.98051e-12
1.42392e-09
-6.26489e-11
-3.0937e-11
-2.55348e-10
-2.59458e-10
-4.29573e-10
-4.39303e-10
1.43237e-09
-4.11994e-11
-1.35478e-12
1.43553e-09
-2.47e-11
2.1019e-13
1.43741e-09
-1.52989e-11
-5.92593e-14
1.43832e-09
-9.44902e-12
1.6047e-14
1.43878e-09
-5.8335e-12
-8.68648e-16
1.43912e-09
-3.609e-12
-4.65299e-15
1.43926e-09
-2.23604e-12
4.115e-15
1.43929e-09
-1.39467e-12
9.91976e-14
1.43927e-09
-8.2744e-13
1.74294e-14
1.439e-09
-1.24405e-12
2.07313e-12
1.43976e-09
-7.53457e-14
-8.51506e-14
1.43968e-09
-2.54703e-13
2.41443e-13
1.43944e-09
1.96426e-13
5.32122e-13
1.43921e-09
-2.25827e-13
-2.58125e-14
1.43906e-09
7.83941e-14
-6.03913e-13
1.43961e-09
3.03068e-13
-1.86971e-12
1.43975e-09
-1.62836e-13
-3.6915e-13
1.43997e-09
-1.83536e-13
-3.71877e-13
1.43992e-09
-6.25988e-15
-1.15135e-13
1.44019e-09
-3.69349e-14
1.19456e-13
1.43934e-09
-3.00869e-14
1.58713e-12
1.43951e-09
2.60733e-13
-5.65885e-13
1.43952e-09
-8.92783e-13
5.59194e-14
1.43801e-09
1.6874e-12
-1.64608e-13
1.43939e-09
-3.56369e-13
-3.05547e-14
1.43917e-09
-3.96869e-14
5.62015e-13
1.4391e-09
5.14003e-14
-3.51774e-14
1.4394e-09
-7.63757e-13
5.19377e-13
1.43933e-09
2.01465e-13
1.97282e-14
1.43935e-09
1.59393e-13
-3.64836e-13
1.43985e-09
-1.71823e-13
3.11851e-15
1.43954e-09
2.52344e-13
1.29195e-13
1.43953e-09
-5.22546e-13
5.89256e-13
1.43945e-09
3.69896e-13
-2.13889e-13
1.43962e-09
-2.85274e-13
-8.75326e-14
1.43966e-09
-1.16534e-13
1.29598e-13
1.43955e-09
1.88461e-13
2.83579e-14
1.43935e-09
1.94002e-13
-4.17162e-15
1.43933e-09
-4.35283e-14
-1.06735e-13
1.43934e-09
-4.42293e-14
-2.02151e-14
1.43948e-09
-6.96918e-14
8.89574e-14
-1.12638e-13
8.95735e-14
1.46836e-09
9.27278e-12
-7.31101e-11
1.45603e-09
-6.13581e-12
2.23603e-11
1.47858e-09
2.83471e-11
3.36468e-13
2.76628e-10
-3.48878e-11
4.88382e-11
2.78089e-10
4.69016e-10
4.49982e-10
-2.19284e-11
2.49523e-10
1.11666e-11
3.78666e-11
-2.57265e-11
-4.57214e-11
2.49151e-11
-1.62552e-11
6.27879e-11
-1.10366e-10
4.45081e-12
-6.99058e-12
8.15383e-11
3.1365e-11
1.46885e-09
-5.64906e-11
-2.85026e-11
-2.68556e-10
-2.72697e-10
-4.48305e-10
-4.56958e-10
1.45895e-09
-2.93509e-11
-1.96929e-12
1.45196e-09
-1.81127e-11
3.90666e-13
1.44748e-09
-1.07449e-11
-8.16544e-14
1.44454e-09
-6.52085e-12
1.40584e-14
1.44267e-09
-3.92762e-12
-3.61634e-14
1.44149e-09
-2.41933e-12
-8.18495e-15
1.44075e-09
-1.48838e-12
-8.23461e-16
1.44028e-09
-9.15473e-13
-3.74971e-15
1.44007e-09
-6.19327e-13
-1.31698e-15
1.43996e-09
-4.65565e-13
-6.63106e-13
1.43928e-09
2.03527e-14
5.81084e-13
1.43926e-09
-2.91052e-14
-1.99806e-13
1.43956e-09
-1.42649e-13
3.73895e-14
1.43947e-09
-1.65881e-13
2.91983e-14
1.43973e-09
-9.16347e-13
7.45392e-13
1.44004e-09
-8.99514e-14
8.55714e-14
1.43973e-09
-1.87191e-13
3.31659e-13
1.43935e-09
-2.46349e-13
4.41447e-13
1.43945e-09
-1.19502e-13
1.83458e-14
1.43987e-09
-2.11188e-13
-2.51004e-13
1.43843e-09
-1.86508e-12
3.2777e-12
1.4389e-09
-8.41164e-13
6.27708e-13
1.43852e-09
-4.80895e-13
-2.67743e-14
1.43993e-09
1.96684e-13
7.38296e-14
1.44002e-09
-2.99245e-12
2.54809e-12
1.43976e-09
2.04382e-13
1.25886e-14
1.43983e-09
-5.73753e-14
4.37928e-14
1.43926e-09
1.87263e-13
-3.86734e-13
1.43914e-09
2.0779e-13
1.14714e-13
1.43874e-09
4.87487e-13
6.61843e-14
1.44018e-09
-2.79008e-12
1.17907e-12
1.43972e-09
7.41522e-13
-2.96122e-14
1.43936e-09
3.40859e-13
-4.98978e-13
1.43949e-09
1.62199e-13
7.18148e-14
1.43931e-09
-4.88269e-14
-6.00801e-14
1.43939e-09
-1.45944e-13
-4.79828e-14
1.43966e-09
-5.73783e-14
-2.33447e-14
1.4398e-09
5.47328e-14
-9.28052e-15
1.43953e-09
2.53207e-13
-1.75826e-14
1.43928e-09
3.03825e-13
-1.03657e-13
1.43925e-09
-3.26574e-14
-1.12978e-14
-2.09526e-13
1.19922e-13
1.44503e-09
4.65569e-12
-5.1528e-11
1.42301e-09
1.07353e-12
1.48167e-11
1.40442e-09
2.05354e-11
2.63994e-11
1.68837e-10
1.06244e-11
1.50923e-10
2.80338e-10
2.71314e-10
4.87494e-10
3.54191e-12
1.18151e-10
5.51095e-11
-7.96582e-12
-8.70686e-12
-5.02834e-12
6.19241e-12
2.00738e-11
-1.2531e-11
-1.83971e-10
9.831e-12
-3.87275e-12
1.32314e-10
4.5699e-11
1.50862e-09
-3.99426e-12
-3.55886e-11
-2.82699e-10
-2.80097e-10
-4.81691e-10
-4.81048e-10
1.48198e-09
-1.47031e-12
-1.26094e-12
1.46529e-09
-1.63755e-12
2.0646e-13
1.45524e-09
-5.95966e-13
-9.81319e-14
1.44935e-09
-7.64625e-13
1.32586e-13
1.44537e-09
3.89943e-13
-3.34125e-13
1.44315e-09
-1.40467e-13
-5.15856e-14
1.44171e-09
-5.88764e-15
-3.51568e-14
1.44073e-09
8.26569e-14
-2.07342e-14
1.44025e-09
-1.43067e-13
4.09426e-15
1.43977e-09
1.95186e-14
-8.15677e-16
1.43974e-09
2.23491e-13
-1.66491e-13
1.43972e-09
-2.15492e-13
2.05753e-13
1.43968e-09
-1.22542e-13
2.1866e-14
1.43968e-09
-1.70747e-13
3.99689e-15
1.43944e-09
-1.28357e-13
-5.46255e-13
1.43959e-09
2.21932e-13
-4.64168e-13
1.43958e-09
-2.13704e-13
4.34312e-14
1.4393e-09
-5.09397e-14
7.98382e-14
1.43918e-09
2.70581e-14
-2.24012e-14
1.43865e-09
2.7108e-13
4.39592e-14
1.44027e-09
1.73185e-13
-3.65001e-12
1.43981e-09
-5.19176e-13
1.33029e-13
1.43951e-09
-1.83085e-13
1.70023e-15
1.43977e-09
1.90805e-13
-2.51976e-13
1.43925e-09
1.73131e-13
-2.65004e-12
1.43953e-09
-1.11345e-13
3.17919e-14
1.4394e-09
1.27016e-14
6.36862e-14
1.43949e-09
4.64756e-14
5.31241e-14
1.43965e-09
-3.7318e-13
4.18933e-13
1.44015e-09
1.65885e-13
-1.82584e-13
1.43879e-09
-2.15068e-13
-1.21853e-12
1.43921e-09
3.31816e-13
-1.00444e-14
1.4395e-09
5.19998e-14
-4.92265e-15
1.43946e-09
-3.99448e-14
2.40456e-13
1.43948e-09
-8.70687e-14
2.06127e-14
1.43942e-09
-3.84077e-14
-4.46608e-14
1.4394e-09
-1.47157e-13
1.06352e-13
1.43942e-09
4.56112e-14
-1.01214e-14
1.43948e-09
2.49143e-13
-5.89115e-14
1.43948e-09
2.65263e-13
3.36004e-14
1.43935e-09
1.14432e-13
-1.03014e-14
9.89767e-14
-5.06133e-14
1.47668e-09
-5.52249e-12
-7.76134e-11
1.46753e-09
-1.70619e-12
1.19289e-11
1.53487e-09
-1.08809e-11
-3.59262e-11
2.37034e-10
2.14389e-11
6.04571e-11
3.02093e-10
4.07006e-10
5.17468e-10
-1.46103e-11
1.08608e-10
-4.67252e-13
1.43504e-10
-3.13116e-13
-3.88426e-11
5.42966e-11
8.92195e-12
-2.40629e-11
-1.61019e-10
-3.09669e-13
1.94872e-12
7.69805e-11
8.2399e-11
1.51004e-09
5.11326e-11
-3.6678e-11
-2.80796e-10
-2.83015e-10
-4.82425e-10
-4.82258e-10
1.48335e-09
2.64892e-11
-1.26935e-12
1.46552e-09
1.61258e-11
5.6487e-14
1.4555e-09
9.54638e-12
-1.21851e-13
1.44916e-09
5.75242e-12
-1.6569e-13
1.44558e-09
3.56245e-12
4.13357e-13
1.44325e-09
2.21577e-12
-2.03497e-14
1.4418e-09
1.41168e-12
2.86902e-14
1.44099e-09
8.8467e-13
1.45585e-14
1.44029e-09
5.63904e-13
-7.38388e-15
1.44021e-09
-1.26861e-12
1.36657e-12
1.43991e-09
1.37313e-13
3.86577e-13
1.43953e-09
-5.35122e-14
2.18649e-13
1.43969e-09
-2.41504e-13
-3.90172e-14
1.43949e-09
8.67236e-14
-4.66405e-14
1.43956e-09
-7.04658e-14
-1.26474e-13
1.43935e-09
1.52764e-13
2.79504e-13
1.43936e-09
2.16034e-13
-4.432e-13
1.43945e-09
-6.85869e-14
-6.8029e-14
1.43927e-09
1.40539e-13
6.16202e-14
1.43912e-09
1.47608e-13
2.74506e-13
1.4388e-09
6.77772e-13
-1.85198e-13
1.4394e-09
1.63837e-12
-2.75826e-12
1.44025e-09
-3.65999e-12
2.62511e-12
1.43978e-09
3.94735e-13
2.67843e-13
1.43971e-09
1.78906e-13
6.8879e-14
1.43968e-09
3.48947e-13
-4.31909e-13
1.43962e-09
1.55364e-13
-9.07067e-14
1.43959e-09
1.91354e-14
5.90256e-14
1.43964e-09
5.56899e-14
-4.80339e-13
1.43964e-09
-2.91597e-14
1.92389e-13
1.43966e-09
-5.64158e-14
-1.73946e-13
1.43919e-09
9.75128e-13
-1.79706e-13
1.43948e-09
-3.37497e-13
1.00415e-13
1.43924e-09
2.82589e-13
-8.74416e-14
1.43937e-09
-2.13029e-13
3.86368e-15
1.43931e-09
-6.86194e-15
2.61843e-14
1.43919e-09
3.17804e-13
-3.47972e-13
1.43929e-09
-4.87812e-14
-6.34909e-15
1.43936e-09
1.3715e-13
3.83382e-14
1.43946e-09
1.00733e-13
6.85182e-14
1.43952e-09
1.50796e-13
-9.69157e-14
1.08542e-13
3.89081e-15
1.43463e-09
-1.39982e-11
-3.7267e-11
1.44826e-09
-1.05575e-11
-4.77875e-12
1.48942e-09
-4.44788e-11
-7.55945e-12
2.46785e-10
6.22029e-12
4.71915e-11
2.73205e-10
4.86777e-10
4.50677e-10
3.10748e-11
1.99674e-10
-6.75508e-12
2.27919e-11
7.80126e-12
-1.97573e-11
2.55397e-11
-3.83692e-12
-9.74667e-12
-1.49135e-10
-1.04199e-11
6.22173e-12
1.07805e-10
4.55316e-11
1.47271e-09
5.91052e-11
-2.95942e-11
-2.7272e-10
-2.69239e-10
-4.58132e-10
-4.51002e-10
1.46156e-09
3.94764e-11
-1.82523e-12
1.45366e-09
2.3671e-11
3.58183e-13
1.44859e-09
1.47033e-11
-8.19635e-14
1.44526e-09
9.08922e-12
-4.56537e-15
1.44315e-09
5.70061e-12
-1.66309e-14
1.44178e-09
3.5849e-12
-7.94482e-16
1.44092e-09
2.2736e-12
8.7298e-15
1.44038e-09
1.42619e-12
-1.3823e-15
1.44007e-09
8.85819e-13
-1.00188e-14
1.43964e-09
4.78069e-13
-1.3242e-12
1.4397e-09
-3.85263e-13
4.65006e-13
1.43979e-09
4.88218e-13
-6.23785e-13
1.43943e-09
1.17845e-13
2.44314e-15
1.43947e-09
5.74456e-14
-9.79409e-15
1.43951e-09
-1.00642e-13
-6.08367e-15
1.43947e-09
2.69425e-14
1.67331e-13
1.43953e-09
-2.10542e-13
3.61012e-13
1.43944e-09
6.64171e-15
1.34325e-14
1.43961e-09
-2.69285e-14
2.52651e-15
1.4401e-09
-1.46735e-13
-1.92102e-13
1.44041e-09
3.26534e-13
3.62271e-14
1.43949e-09
-8.73861e-14
2.64821e-12
1.43856e-09
-2.65922e-13
-2.46674e-12
1.43907e-09
-2.2287e-13
1.114e-13
1.43919e-09
-5.37482e-14
1.05388e-13
1.43936e-09
-2.454e-13
4.24848e-13
1.43954e-09
-2.76404e-14
4.69505e-16
1.43948e-09
4.27958e-13
-3.44657e-13
1.43954e-09
7.2655e-15
-1.78161e-14
1.43942e-09
1.23871e-13
-3.32785e-14
1.43949e-09
-2.53777e-13
1.3158e-13
1.43927e-09
-6.24266e-13
1.80988e-12
1.43927e-09
-1.91699e-13
-1.46882e-13
1.43946e-09
4.28315e-14
5.36578e-14
1.43943e-09
-1.9691e-13
7.12964e-15
1.43937e-09
6.49464e-14
-1.16538e-14
1.43933e-09
1.16493e-13
2.48182e-13
1.43921e-09
8.53108e-15
6.13739e-14
1.43949e-09
-2.53773e-13
1.01907e-13
1.43968e-09
-2.23373e-13
1.34619e-13
1.43954e-09
1.39589e-13
1.49866e-13
2.63856e-13
-1.61458e-13
1.45212e-09
-7.32852e-12
-6.98986e-11
1.43105e-09
-1.91573e-11
2.96699e-11
1.44828e-09
-4.505e-11
-1.66637e-11
1.93274e-10
-2.22483e-11
1.56212e-10
2.62235e-10
3.51712e-10
5.13316e-10
3.29166e-11
1.03865e-10
-4.9249e-11
1.05742e-10
1.10046e-11
-1.1437e-11
2.75005e-11
2.18027e-13
-2.72861e-11
-5.86602e-11
-3.94014e-12
2.62171e-12
3.0085e-11
2.9894e-11
1.43143e-09
5.58501e-11
-3.33278e-11
-2.62724e-10
-2.5389e-10
-4.48861e-10
-4.29375e-10
1.43674e-09
3.53285e-11
-1.14906e-12
1.43817e-09
2.2063e-11
1.865e-13
1.43902e-09
1.39331e-11
-6.55739e-14
1.43935e-09
8.75978e-12
9.36954e-15
1.43952e-09
5.54546e-12
-8.52701e-15
1.43948e-09
3.62091e-12
3.7526e-15
1.43948e-09
2.27063e-12
9.34095e-15
1.43946e-09
1.44564e-12
2.86894e-15
1.43943e-09
-1.40116e-15
9.19864e-13
1.43931e-09
4.75477e-14
5.44444e-13
1.43964e-09
-2.46558e-13
-4.66823e-13
1.43941e-09
6.5453e-14
6.56307e-13
1.43942e-09
4.98979e-14
5.76833e-14
1.43953e-09
-7.04933e-14
1.78786e-14
1.43945e-09
-1.49685e-13
1.29473e-13
1.43942e-09
5.80398e-14
6.49341e-15
1.43972e-09
6.34754e-13
-1.14521e-12
1.43953e-09
1.85968e-13
1.11095e-14
1.43947e-09
-2.23537e-13
2.61465e-13
1.43935e-09
3.01132e-14
-6.25742e-14
1.43932e-09
-5.30586e-13
8.87635e-13
1.43972e-09
-8.64083e-13
3.76206e-13
1.43945e-09
1.34386e-12
-1.33842e-12
1.43938e-09
-4.85071e-13
3.33242e-13
1.43942e-09
-1.65364e-13
6.37333e-14
1.43945e-09
-1.93498e-13
-8.07063e-14
1.43947e-09
-9.36798e-14
4.9097e-14
1.43944e-09
1.58059e-13
2.92372e-13
1.43935e-09
7.43454e-14
2.63656e-14
1.43939e-09
3.03125e-14
5.56348e-14
1.43896e-09
7.62933e-14
9.10139e-14
1.43955e-09
4.04152e-13
-1.61826e-12
1.43951e-09
2.41062e-13
-3.92182e-13
1.4396e-09
-2.28467e-13
1.81214e-13
1.43952e-09
-6.40726e-13
5.21236e-13
1.43945e-09
1.37619e-13
-5.30911e-16
1.43947e-09
9.6147e-14
2.67171e-15
1.43948e-09
3.66736e-14
-4.65425e-14
1.43935e-09
-1.51259e-13
2.68533e-14
1.43931e-09
-2.08778e-13
2.54571e-14
1.43953e-09
-2.15617e-13
1.34631e-13
-1.08643e-13
2.39363e-13
1.45989e-09
-4.46987e-12
-7.38654e-11
1.45719e-09
-5.04183e-12
-1.14102e-11
1.4186e-09
-1.92672e-11
1.28082e-11
1.69835e-10
-1.14446e-11
2.04537e-10
2.60924e-10
3.21633e-10
4.50866e-10
5.52404e-11
1.56853e-10
-1.13897e-11
-3.08691e-11
8.42611e-12
-2.7084e-11
3.61966e-11
3.10157e-12
-2.06403e-11
-3.16598e-11
-3.07437e-12
1.90212e-10
4.70698e-12
1.13988e-11
-3.43665e-11
-5.61396e-11
-6.48676e-11
-6.83807e-12
-2.96224e-12
-6.401e-12
1.38881e-09
1.6096e-11
-2.93156e-11
-2.45679e-10
-2.45265e-10
-4.14108e-10
-4.14677e-10
1.41182e-09
1.32195e-11
-8.85683e-13
1.42321e-09
1.03148e-11
3.65494e-13
1.42983e-09
7.30765e-12
1.87622e-14
1.43367e-09
4.90512e-12
1.70765e-14
1.43603e-09
3.18058e-12
2.07172e-14
1.43725e-09
2.4044e-12
-4.24368e-15
1.43805e-09
1.47583e-12
-3.66082e-15
1.43859e-09
1.75759e-12
-8.45734e-13
1.43901e-09
6.09525e-13
-1.0306e-12
1.43928e-09
2.94191e-13
-5.23768e-13
1.43901e-09
3.2863e-14
-6.60356e-15
1.43934e-09
6.46468e-13
-9.07543e-13
1.43928e-09
1.42264e-13
-3.62097e-14
1.43924e-09
3.0549e-13
-3.27025e-13
1.43939e-09
-2.10227e-13
-9.1503e-14
1.43953e-09
-7.59871e-14
7.98275e-16
1.43926e-09
-2.3887e-13
1.13851e-12
1.43931e-09
1.05204e-13
3.15977e-14
1.43922e-09
1.58086e-13
-2.89887e-13
1.43924e-09
5.66807e-15
1.01102e-14
1.43954e-09
-1.7959e-13
-6.53265e-13
1.43927e-09
-1.96981e-13
-4.03075e-13
1.43979e-09
-4.98679e-13
1.32942e-12
1.43978e-09
-4.08569e-14
-4.39872e-13
1.43926e-09
5.70036e-13
-2.1714e-13
1.43947e-09
-1.2179e-12
8.14329e-13
1.43943e-09
-7.94605e-14
2.44954e-14
1.43961e-09
-1.40159e-13
1.16446e-13
1.43955e-09
-1.10061e-13
2.41706e-13
1.43929e-09
3.42001e-13
-5.10413e-14
1.4395e-09
5.16363e-13
-6.5107e-13
1.43956e-09
2.60204e-13
8.76085e-14
1.43936e-09
4.11007e-14
3.99634e-13
1.4398e-09
-1.06828e-12
3.89924e-13
1.4394e-09
2.01464e-13
-4.3951e-13
1.43946e-09
-1.185e-13
1.91476e-13
1.4396e-09
-6.87252e-14
2.87199e-14
1.43951e-09
1.5818e-13
-3.50284e-14
1.43926e-09
1.29243e-13
-3.11845e-14
1.43924e-09
-2.08187e-13
2.09903e-14
1.43947e-09
-4.50302e-13
6.95832e-15
-2.6839e-13
1.07601e-13
1.4379e-09
-5.22633e-11
1.41515e-09
1.90168e-11
1.40353e-09
-3.75705e-11
2.46253e-10
-5.85931e-11
3.2302e-10
3.30157e-10
5.39759e-10
-2.03406e-11
-1.24994e-11
6.83422e-11
6.30137e-11
3.76157e-11
5.58808e-11
5.4241e-11
5.09575e-12
-7.95326e-11
1.49247e-10
-1.6607e-11
-5.82033e-11
-3.53166e-11
2.5113e-12
2.00956e-10
-1.1035e-12
-5.65695e-12
-3.43818e-11
-6.45563e-11
-6.24459e-11
1.39788e-09
-3.02309e-11
-2.5214e-10
-2.51727e-10
-4.25486e-10
-4.24733e-10
1.41083e-09
-1.59536e-12
1.41987e-09
2.99321e-13
1.42637e-09
-1.48926e-13
1.43114e-09
-6.44043e-13
1.43499e-09
2.93272e-13
1.43567e-09
-3.07022e-13
1.43697e-09
5.0856e-14
1.43801e-09
1.08655e-12
1.43856e-09
5.71232e-14
1.43872e-09
2.99449e-13
1.43883e-09
7.9768e-15
1.43906e-09
-1.34303e-13
1.43961e-09
-1.00246e-12
1.43939e-09
2.30521e-13
1.43961e-09
2.02428e-14
1.43925e-09
3.83255e-14
1.43918e-09
8.73288e-15
1.43945e-09
4.43792e-14
1.43956e-09
-2.23733e-13
1.43936e-09
1.54208e-13
1.43933e-09
-1.53312e-13
1.43892e-09
-1.31196e-13
1.44005e-09
-1.50805e-13
1.43962e-09
1.36774e-13
1.43997e-09
3.93308e-14
1.43951e-09
-5.32074e-13
1.43935e-09
8.13222e-14
1.43939e-09
6.07279e-14
1.43961e-09
-1.21671e-13
1.43981e-09
-7.78603e-14
1.43924e-09
6.44115e-13
1.43946e-09
-1.1929e-13
1.43953e-09
8.52242e-14
1.43921e-09
-2.72954e-13
1.43933e-09
-3.66339e-14
1.43931e-09
-2.02584e-13
1.43936e-09
-3.55276e-14
1.43962e-09
1.10722e-14
1.43968e-09
3.3468e-14
1.43955e-09
-1.03704e-13
1.4392e-09
-1.42506e-13
-2.73379e-13
2.36944e-09
3.33207e-12
6.02531e-11
2.40526e-09
-9.67827e-12
-1.327e-11
2.39093e-09
3.59575e-11
4.63229e-11
6.62635e-10
-1.67263e-11
-4.74452e-11
6.17698e-10
5.70398e-10
6.91219e-10
3.67422e-11
-7.83343e-11
1.58221e-10
1.41676e-10
1.32879e-10
1.3034e-10
1.33286e-10
1.12782e-11
-1.16672e-10
1.02581e-10
1.19416e-11
-8.42508e-12
-1.49845e-10
3.27169e-12
6.06103e-10
7.11932e-12
-1.26994e-13
-1.51753e-10
-1.5552e-10
-1.57518e-10
2.33172e-09
-1.86189e-11
3.01656e-11
-5.92276e-10
-5.92115e-10
-5.92276e-10
-5.92114e-10
2.34899e-09
-1.72328e-11
1.47287e-12
2.36539e-09
-1.407e-11
-1.68486e-13
2.37706e-09
-1.01647e-11
8.62888e-14
2.38431e-09
-7.15774e-12
6.32753e-13
2.38839e-09
-4.81353e-12
1.77951e-13
2.39358e-09
-2.67356e-12
-1.59345e-12
2.39576e-09
-1.88057e-12
-4.97459e-14
2.39691e-09
-1.31568e-12
-1.10057e-12
2.39777e-09
-8.53079e-13
3.1514e-15
2.3989e-09
-7.83207e-13
2.95631e-13
2.39873e-09
1.48402e-14
4.50768e-14
2.39889e-09
-4.2461e-13
8.01081e-13
2.39829e-09
-1.82817e-13
-1.07151e-12
2.3988e-09
2.30508e-14
-1.76825e-13
2.39889e-09
-4.64079e-13
-4.74522e-14
2.39899e-09
3.36876e-13
2.03415e-14
2.39857e-09
8.93494e-13
-3.2868e-13
2.39868e-09
-4.0221e-13
3.89339e-14
2.39884e-09
-5.043e-14
-2.93575e-13
2.39868e-09
5.22571e-13
1.37104e-13
2.39867e-09
1.24428e-12
6.57208e-13
2.39787e-09
1.4364e-12
2.53757e-13
2.40022e-09
-4.51595e-12
1.3799e-13
2.40009e-09
-1.53776e-12
1.09773e-12
2.39981e-09
7.04647e-13
-7.83734e-14
2.39942e-09
3.32703e-13
-4.90133e-17
2.3996e-09
7.46873e-14
-9.76894e-14
2.39945e-09
-3.85573e-13
2.41847e-13
2.39947e-09
-6.05207e-13
2.73401e-13
2.40027e-09
1.44012e-14
-3.84443e-13
2.39761e-09
-2.84345e-12
3.60706e-12
2.39844e-09
-1.4561e-13
-1.58419e-13
2.39879e-09
-3.57882e-13
-1.81342e-14
2.39894e-09
-3.1406e-13
-1.47682e-13
2.39909e-09
4.47332e-14
-1.93502e-14
2.39903e-09
2.78027e-13
-4.60028e-14
2.39867e-09
1.70262e-13
1.13556e-13
2.39894e-09
-3.61573e-13
-1.08037e-13
2.39931e-09
-1.67666e-13
-5.93686e-14
2.39924e-09
5.09017e-14
3.4026e-14
2.39908e-09
9.53329e-14
7.97374e-14
2.75972e-13
-1.99164e-13
2.36971e-09
1.55482e-11
4.199e-11
2.38627e-09
5.61139e-13
-1.49781e-11
2.36205e-09
3.4387e-11
3.10062e-11
6.22366e-10
1.7051e-11
-1.15795e-11
5.71174e-10
6.39528e-10
5.49711e-10
9.56478e-11
7.23899e-11
6.0146e-10
3.45736e-11
-1.81706e-10
-1.79423e-12
-3.23479e-11
-1.29549e-10
1.17446e-10
3.29261e-11
1.33187e-11
-1.31507e-10
3.69004e-12
-1.17299e-11
5.62034e-10
-5.95493e-12
2.52959e-15
-1.37469e-10
-1.36482e-10
-1.42569e-10
2.30941e-09
-8.76549e-11
2.86257e-11
-5.7767e-10
-5.71134e-10
-5.7767e-10
-5.71133e-10
2.34659e-09
-5.63336e-11
9.45091e-13
2.36862e-09
-3.53405e-11
-3.85692e-13
2.38084e-09
-2.23685e-11
-7.53605e-15
2.38795e-09
-1.41801e-11
-3.96085e-14
2.39208e-09
-8.94378e-12
1.34799e-15
2.39493e-09
-5.47123e-12
-2.85438e-14
2.39656e-09
-3.48382e-12
-1.18646e-14
2.39755e-09
-2.23743e-12
7.91261e-13
2.39814e-09
-1.4284e-12
-1.28871e-14
2.39871e-09
4.80417e-13
-3.25169e-12
2.39886e-09
-1.45664e-12
6.64088e-13
2.39901e-09
-6.20755e-13
-1.73068e-13
2.39904e-09
-1.23502e-12
4.91315e-13
2.39958e-09
-7.10668e-13
8.22073e-14
2.39897e-09
1.0059e-12
-3.27495e-13
2.39829e-09
2.07422e-12
7.43401e-13
2.39909e-09
-5.47068e-13
2.97374e-13
2.39934e-09
-5.63404e-13
-8.58362e-14
2.3993e-09
-1.80567e-13
2.67013e-13
2.39931e-09
5.19272e-13
-1.99593e-14
2.40007e-09
-3.11417e-12
6.14906e-13
2.40147e-09
-3.16761e-13
8.86963e-14
2.39796e-09
-1.07791e-12
-1.74241e-13
2.39833e-09
-3.8692e-14
-9.43578e-13
2.39773e-09
1.1071e-12
2.20194e-13
2.39858e-09
-1.17216e-12
1.10376e-13
2.39892e-09
-3.4474e-13
9.60295e-14
2.39861e-09
-1.38895e-13
2.44974e-14
2.39822e-09
-4.47997e-13
1.92282e-13
2.39751e-09
3.0658e-13
4.6598e-13
2.40031e-09
5.59003e-13
-3.67407e-12
2.39964e-09
1.73342e-15
2.00577e-13
2.39929e-09
4.61184e-14
-1.52316e-13
2.3989e-09
1.04641e-13
8.04481e-15
2.39924e-09
-2.05472e-13
-6.52412e-14
2.39937e-09
6.69608e-14
7.85801e-15
2.39944e-09
1.24758e-13
-6.91714e-16
2.39902e-09
1.71997e-14
8.46779e-15
2.39897e-09
-1.58914e-13
3.99354e-14
2.3991e-09
-5.47356e-14
-2.76477e-14
2.39905e-09
1.94842e-14
3.66364e-14
4.90476e-14
-1.13011e-13
2.3636e-09
3.63328e-11
7.58811e-11
2.37209e-09
1.81298e-11
1.01153e-11
2.33948e-09
8.78633e-11
-4.36493e-11
6.24042e-10
4.07488e-11
-1.78523e-11
6.15178e-10
6.2586e-10
6.20173e-10
-1.21538e-10
-3.77464e-11
6.01527e-10
-2.43015e-11
2.06102e-10
5.21027e-11
-3.44017e-11
-1.33313e-10
1.47941e-10
-2.36882e-11
-8.64077e-12
-1.30378e-10
-4.48061e-11
3.71006e-11
6.04803e-10
3.83289e-12
-1.36587e-10
-1.30735e-10
-1.4e-10
-1.80783e-11
-1.89413e-11
-1.34384e-11
-1.29888e-11
2.37678e-09
-1.05211e-10
3.09151e-11
-5.98921e-10
-6.11664e-10
-5.98907e-10
-6.11675e-10
2.38622e-09
-6.86442e-11
1.48041e-12
2.39256e-09
-4.12043e-11
-2.83755e-13
2.39558e-09
-2.55e-11
5.16714e-14
2.39719e-09
-1.57501e-11
-2.02789e-14
2.39797e-09
-9.71307e-12
-2.88465e-15
2.39851e-09
-6.01363e-12
4.33418e-15
2.39877e-09
-3.72519e-12
-3.92777e-15
2.39881e-09
-2.32862e-12
1.52942e-13
2.39873e-09
-1.3653e-12
3.01232e-14
2.39835e-09
-9.01784e-13
3.83746e-12
2.39964e-09
-1.7415e-12
-1.08718e-12
2.39949e-09
-3.99929e-13
1.7983e-13
2.39907e-09
1.73598e-13
-4.50096e-13
2.39872e-09
-3.98145e-13
1.24104e-14
2.39854e-09
-9.08841e-15
5.97295e-13
2.39924e-09
3.45237e-13
-8.4381e-13
2.39958e-09
9.31058e-13
-2.17766e-12
2.39996e-09
-7.32777e-13
-5.90052e-13
2.39986e-09
-3.94254e-14
-1.48637e-13
2.40061e-09
-2.22933e-14
-9.57151e-14
2.39916e-09
1.49957e-12
-1.57808e-12
2.39898e-09
-7.09509e-13
6.2101e-15
2.3991e-09
-1.15161e-12
1.00261e-14
2.39695e-09
2.10504e-12
-1.58781e-13
2.39881e-09
-6.26036e-13
-1.59411e-13
2.39857e-09
-1.10545e-13
-2.59767e-13
2.39838e-09
-2.2694e-13
3.6539e-14
2.39911e-09
4.18373e-13
-7.72942e-13
2.39895e-09
1.95257e-13
-4.62615e-13
2.39895e-09
9.60046e-14
-1.57817e-13
2.39963e-09
-1.92694e-13
7.44848e-14
2.39942e-09
4.04177e-13
-7.19278e-14
2.3993e-09
5.60898e-13
1.96832e-13
2.39922e-09
1.1303e-13
-1.44534e-13
2.39931e-09
-3.93152e-13
3.60543e-15
2.39941e-09
-2.00039e-13
2.92772e-13
2.39928e-09
2.81136e-13
1.07684e-15
2.39903e-09
2.15593e-13
5.13878e-14
2.39884e-09
-1.25977e-13
4.76501e-14
2.39878e-09
-8.24192e-14
6.7504e-14
2.39906e-09
-1.05561e-13
-7.4767e-14
-1.38805e-13
-2.01061e-13
2.38607e-09
1.93911e-11
5.77625e-11
2.43092e-09
6.34424e-12
-1.06952e-11
2.46058e-09
5.51437e-11
3.38942e-12
6.50639e-10
-2.15066e-11
4.09468e-12
6.19985e-10
6.65553e-10
6.31409e-10
4.29779e-11
-2.42597e-11
6.79158e-10
7.29072e-11
-1.20144e-10
-6.66993e-11
-6.50272e-11
-1.29121e-10
1.32077e-10
4.40274e-11
8.4743e-11
-9.35889e-11
-8.69927e-11
1.59296e-11
-1.55386e-11
4.61608e-11
1.34033e-10
2.45415e-09
-9.32838e-11
2.86715e-11
-6.25327e-10
-6.36337e-10
-6.25327e-10
-6.36294e-10
2.43058e-09
-4.89765e-11
1.90744e-12
2.42018e-09
-3.01694e-11
-2.73815e-13
2.41247e-09
-1.79157e-11
3.84306e-14
2.40763e-09
-1.08739e-11
-1.29373e-14
2.40448e-09
-6.57081e-12
-1.40315e-14
2.4025e-09
-4.04514e-12
8.09274e-15
2.40126e-09
-2.48296e-12
1.20684e-15
2.40047e-09
-1.53526e-12
4.47539e-15
2.40011e-09
-1.01284e-12
5.37284e-15
2.39986e-09
-6.90935e-13
-6.25662e-13
2.3989e-09
-3.00677e-13
1.09317e-13
2.39883e-09
-7.31768e-13
2.01363e-13
2.39925e-09
-1.73208e-13
-3.12408e-14
2.39909e-09
-2.53249e-13
5.20749e-14
2.39961e-09
4.34734e-13
-2.19425e-13
2.40008e-09
-7.39605e-14
4.51072e-14
2.3994e-09
-2.29413e-13
2.17433e-12
2.39905e-09
-8.46179e-13
8.99111e-13
2.39927e-09
-1.61073e-13
-8.02933e-14
2.39943e-09
-3.34938e-13
-9.71602e-14
2.39736e-09
1.99583e-12
4.84919e-12
2.39843e-09
-1.28501e-12
1.3143e-13
2.39795e-09
-7.83146e-13
8.52313e-14
2.39983e-09
2.14821e-13
8.03647e-14
2.39995e-09
7.6276e-13
1.04618e-12
2.3996e-09
2.15418e-13
2.71327e-14
2.39955e-09
-5.13133e-14
-7.59958e-14
2.39883e-09
1.58678e-13
5.81257e-13
2.39857e-09
2.95238e-13
2.72812e-13
2.39817e-09
6.44811e-13
-8.4169e-14
2.40016e-09
-1.17688e-12
1.7349e-13
2.39949e-09
1.00152e-12
4.05926e-14
2.39901e-09
4.5373e-13
8.82739e-14
2.39917e-09
-1.2603e-13
1.48413e-13
2.39882e-09
-1.35328e-13
2.67079e-14
2.39901e-09
-2.3136e-13
-2.11684e-13
2.39946e-09
-1.10002e-13
-8.00049e-14
2.39971e-09
-2.29016e-14
-2.34971e-14
2.39926e-09
2.2382e-13
8.52611e-14
2.39873e-09
2.54742e-13
8.13199e-14
2.39873e-09
-1.21788e-13
1.17789e-14
-2.0174e-13
-1.92877e-13
2.3944e-09
6.93228e-12
6.65403e-11
2.41269e-09
8.83539e-12
-5.97103e-12
2.43274e-09
4.32901e-11
1.82067e-11
5.51987e-10
2.74611e-11
1.68522e-12
7.23815e-10
5.51509e-10
7.05701e-10
-1.43481e-11
-5.64449e-11
4.12952e-10
2.50636e-11
1.84765e-10
1.23174e-10
-4.02848e-11
-1.71802e-10
1.94473e-10
6.18947e-11
-1.67455e-10
-9.32208e-11
-1.38972e-10
-2.51568e-11
1.76224e-12
7.57138e-11
1.79872e-10
2.51871e-09
-4.7124e-12
3.53342e-11
-6.70049e-10
-6.6906e-10
-6.70054e-10
-6.69064e-10
2.46986e-09
-2.64603e-12
1.24828e-12
2.4426e-09
-2.57688e-12
-1.45208e-13
2.42558e-09
-1.06091e-12
7.46618e-14
2.41569e-09
-1.29472e-12
4.46765e-13
2.40905e-09
-1.04741e-12
7.91827e-13
2.4053e-09
-2.86371e-13
-5.09362e-14
2.40286e-09
-1.02503e-13
3.06764e-14
2.40126e-09
3.80151e-14
1.12257e-14
2.40046e-09
-1.99455e-13
-5.8247e-15
2.39971e-09
1.75502e-14
3.88919e-14
2.39955e-09
-4.99982e-13
1.9929e-13
2.39955e-09
-2.58367e-13
-2.61989e-13
2.39946e-09
-1.74277e-13
1.18607e-13
2.39941e-09
-1.43603e-13
-5.63554e-14
2.3991e-09
1.41292e-13
6.00779e-14
2.39942e-09
-1.19931e-12
3.44945e-13
2.39932e-09
-1.40801e-13
5.81327e-14
2.39884e-09
-2.30464e-14
-2.62767e-13
2.39863e-09
1.01677e-14
2.08236e-14
2.39792e-09
1.21077e-13
2.97404e-13
2.40022e-09
5.67219e-13
-4.52532e-12
2.39978e-09
-5.55079e-13
-1.54545e-13
2.39933e-09
-1.83094e-13
-1.5307e-13
2.39945e-09
-4.15335e-13
2.61274e-13
2.39881e-09
1.21149e-14
-1.25975e-12
2.39912e-09
-1.07161e-13
4.25396e-14
2.39898e-09
8.69334e-14
6.18785e-14