/*--------------------------------*- C++ -*----------------------------------*\
| =========                 |                                                 |
| \\      /  F ield         | OpenFOAM: The Open Source CFD Toolbox           |
|  \\    /   O peration     | Version:  5.0                                   |
|   \\  /    A nd           | Web:      www.OpenFOAM.org                      |
|    \\/     M anipulation  |                                                 |
\*---------------------------------------------------------------------------*/
FoamFile
{
    version     2.0;
    format      ascii;
    class       volScalarField;
    location    "0.4";
    object      rAU;
}
// * * * * * * * * * * * * * * * * * * * * * * * * * * * * * * * * * * * * * //

dimensions      [-1 3 1 0 0 0 0];

internalField   nonuniform List<scalar> 
4440
(
9.73296e-07
9.73463e-07
9.73556e-07
9.73634e-07
9.02654e-07
8.52806e-08
1.29269e-07
3.92421e-07
3.93663e-07
3.94697e-07
3.9573e-07
3.96762e-07
3.97794e-07
3.98825e-07
3.99856e-07
4.00885e-07
4.01915e-07
4.02943e-07
4.03971e-07
4.04998e-07
4.06024e-07
4.07049e-07
4.08074e-07
4.09098e-07
4.10121e-07
4.11144e-07
4.12166e-07
4.13187e-07
4.14207e-07
4.15227e-07
4.16245e-07
4.17263e-07
4.18281e-07
4.19297e-07
4.20313e-07
4.21327e-07
4.22341e-07
4.23355e-07
4.24367e-07
4.25378e-07
4.26389e-07
4.27399e-07
4.28408e-07
4.29417e-07
4.30424e-07
4.31431e-07
4.32437e-07
4.33442e-07
4.34445e-07
4.36221e-07
9.73289e-07
9.73454e-07
9.7354e-07
9.73575e-07
9.03143e-07
6.9351e-07
1.29269e-07
3.92421e-07
3.93663e-07
3.94696e-07
3.9573e-07
3.96762e-07
3.97794e-07
3.98825e-07
3.99856e-07
4.00885e-07
4.01915e-07
4.02943e-07
4.03971e-07
4.04998e-07
4.06024e-07
4.07049e-07
4.08074e-07
4.09098e-07
4.10121e-07
4.11144e-07
4.12166e-07
4.13187e-07
4.14207e-07
4.15227e-07
4.16245e-07
4.17264e-07
4.18281e-07
4.19297e-07
4.20313e-07
4.21327e-07
4.22341e-07
4.23355e-07
4.24367e-07
4.25378e-07
4.26389e-07
4.27399e-07
4.28408e-07
4.29417e-07
4.30424e-07
4.31431e-07
4.32437e-07
4.33442e-07
4.34445e-07
4.36221e-07
9.73286e-07
9.73434e-07
9.73557e-07
9.73655e-07
9.03179e-07
7.00118e-07
1.2923e-07
3.92419e-07
3.93662e-07
3.94696e-07
3.9573e-07
3.96762e-07
3.97794e-07
3.98825e-07
3.99856e-07
4.00885e-07
4.01915e-07
4.02943e-07
4.03971e-07
4.04998e-07
4.06024e-07
4.07049e-07
4.08074e-07
4.09098e-07
4.10121e-07
4.11144e-07
4.12166e-07
4.13187e-07
4.14207e-07
4.15227e-07
4.16245e-07
4.17264e-07
4.18281e-07
4.19297e-07
4.20313e-07
4.21327e-07
4.22341e-07
4.23355e-07
4.24367e-07
4.25378e-07
4.26389e-07
4.27399e-07
4.28408e-07
4.29417e-07
4.30424e-07
4.31431e-07
4.32437e-07
4.33442e-07
4.34445e-07
4.36221e-07
9.73296e-07
9.73452e-07
9.7355e-07
9.73624e-07
9.03084e-07
6.93424e-07
3.58725e-08
3.92418e-07
3.93661e-07
3.94695e-07
3.95729e-07
3.96762e-07
3.97794e-07
3.98825e-07
3.99856e-07
4.00885e-07
4.01915e-07
4.02943e-07
4.03971e-07
4.04998e-07
4.06024e-07
4.07049e-07
4.08074e-07
4.09098e-07
4.10121e-07
4.11144e-07
4.12166e-07
4.13187e-07
4.14207e-07
4.15227e-07
4.16245e-07
4.17264e-07
4.1828e-07
4.19297e-07
4.20313e-07
4.21327e-07
4.22341e-07
4.23355e-07
4.24367e-07
4.25378e-07
4.26389e-07
4.27399e-07
4.28408e-07
4.29417e-07
4.30424e-07
4.31431e-07
4.32437e-07
4.33442e-07
4.34445e-07
4.36221e-07
9.73295e-07
9.73458e-07
9.73559e-07
9.73635e-07
9.02857e-07
6.99343e-07
5.86594e-08
3.92417e-07
3.93661e-07
3.94695e-07
3.95729e-07
3.96762e-07
3.97794e-07
3.98825e-07
3.99856e-07
4.00885e-07
4.01915e-07
4.02943e-07
4.03971e-07
4.04998e-07
4.06024e-07
4.07049e-07
4.08074e-07
4.09098e-07
4.10121e-07
4.11144e-07
4.12166e-07
4.13187e-07
4.14207e-07
4.15227e-07
4.16245e-07
4.17264e-07
4.1828e-07
4.19297e-07
4.20313e-07
4.21327e-07
4.22341e-07
4.23355e-07
4.24367e-07
4.25378e-07
4.26389e-07
4.27399e-07
4.28408e-07
4.29417e-07
4.30424e-07
4.31431e-07
4.32437e-07
4.33442e-07
4.34445e-07
4.36221e-07
9.73287e-07
9.73457e-07
9.73543e-07
9.73557e-07
9.02598e-07
7.00827e-07
7.20002e-08
3.92417e-07
3.93661e-07
3.94695e-07
3.95729e-07
3.96762e-07
3.97794e-07
3.98825e-07
3.99856e-07
4.00885e-07
4.01915e-07
4.02943e-07
4.03971e-07
4.04998e-07
4.06024e-07
4.07049e-07
4.08074e-07
4.09098e-07
4.10121e-07
4.11144e-07
4.12166e-07
4.13187e-07
4.14207e-07
4.15227e-07
4.16245e-07
4.17264e-07
4.18281e-07
4.19297e-07
4.20313e-07
4.21327e-07
4.22341e-07
4.23355e-07
4.24367e-07
4.25378e-07
4.26389e-07
4.27399e-07
4.28408e-07
4.29417e-07
4.30424e-07
4.31431e-07
4.32437e-07
4.33442e-07
4.34445e-07
4.36221e-07
9.73301e-07
9.73429e-07
9.73556e-07
9.7363e-07
9.02851e-07
6.93882e-07
4.53976e-08
3.92418e-07
3.93661e-07
3.94695e-07
3.95729e-07
3.96762e-07
3.97794e-07
3.98825e-07
3.99856e-07
4.00885e-07
4.01915e-07
4.02943e-07
4.03971e-07
4.04998e-07
4.06024e-07
4.07049e-07
4.08074e-07
4.09098e-07
4.10121e-07
4.11144e-07
4.12166e-07
4.13187e-07
4.14207e-07
4.15227e-07
4.16245e-07
4.17264e-07
4.18281e-07
4.19297e-07
4.20313e-07
4.21327e-07
4.22341e-07
4.23355e-07
4.24367e-07
4.25378e-07
4.26389e-07
4.27399e-07
4.28408e-07
4.29417e-07
4.30424e-07
4.31431e-07
4.32437e-07
4.33442e-07
4.34445e-07
4.36221e-07
9.73282e-07
9.73438e-07
9.73554e-07
9.73635e-07
9.02867e-07
6.98053e-07
3.52144e-08
3.92419e-07
3.93662e-07
3.94696e-07
3.9573e-07
3.96762e-07
3.97794e-07
3.98825e-07
3.99856e-07
4.00885e-07
4.01915e-07
4.02943e-07
4.03971e-07
4.04998e-07
4.06024e-07
4.07049e-07
4.08074e-07
4.09098e-07
4.10121e-07
4.11144e-07
4.12166e-07
4.13187e-07
4.14207e-07
4.15227e-07
4.16245e-07
4.17264e-07
4.18281e-07
4.19297e-07
4.20313e-07
4.21327e-07
4.22341e-07
4.23355e-07
4.24367e-07
4.25378e-07
4.26389e-07
4.27399e-07
4.28408e-07
4.29417e-07
4.30424e-07
4.31431e-07
4.32437e-07
4.33442e-07
4.34445e-07
4.36221e-07
9.73266e-07
9.73442e-07
9.73549e-07
9.73598e-07
9.0318e-07
7.00868e-07
1.29212e-07
3.9242e-07
3.93663e-07
3.94696e-07
3.9573e-07
3.96762e-07
3.97794e-07
3.98825e-07
3.99856e-07
4.00885e-07
4.01915e-07
4.02943e-07
4.03971e-07
4.04998e-07
4.06024e-07
4.07049e-07
4.08074e-07
4.09098e-07
4.10121e-07
4.11144e-07
4.12166e-07
4.13187e-07
4.14207e-07
4.15227e-07
4.16245e-07
4.17264e-07
4.18281e-07
4.19297e-07
4.20313e-07
4.21327e-07
4.22341e-07
4.23355e-07
4.24367e-07
4.25378e-07
4.26389e-07
4.27399e-07
4.28408e-07
4.29417e-07
4.30424e-07
4.31431e-07
4.32437e-07
4.33442e-07
4.34445e-07
4.36221e-07
9.73299e-07
9.73464e-07
9.73561e-07
9.73635e-07
9.01775e-07
6.87452e-07
1.29269e-07
3.9242e-07
3.93663e-07
3.94697e-07
3.9573e-07
3.96762e-07
3.97794e-07
3.98825e-07
3.99856e-07
4.00885e-07
4.01915e-07
4.02943e-07
4.03971e-07
4.04998e-07
4.06024e-07
4.07049e-07
4.08074e-07
4.09098e-07
4.10121e-07
4.11144e-07
4.12166e-07
4.13187e-07
4.14207e-07
4.15227e-07
4.16245e-07
4.17264e-07
4.18281e-07
4.19297e-07
4.20313e-07
4.21327e-07
4.22341e-07
4.23355e-07
4.24367e-07
4.25378e-07
4.26389e-07
4.27399e-07
4.28408e-07
4.29417e-07
4.30424e-07
4.31431e-07
4.32437e-07
4.33442e-07
4.34445e-07
4.36221e-07
9.81728e-07
9.81873e-07
9.81925e-07
9.81954e-07
9.31731e-07
1.22899e-07
1.83342e-07
5.04898e-07
5.06386e-07
5.07526e-07
5.08664e-07
5.09801e-07
5.10937e-07
5.1207e-07
5.13202e-07
5.14333e-07
5.15461e-07
5.16589e-07
5.17715e-07
5.18838e-07
5.19961e-07
5.21083e-07
5.22201e-07
5.23319e-07
5.24435e-07
5.25549e-07
5.26662e-07
5.27774e-07
5.28882e-07
5.2999e-07
5.31097e-07
5.32201e-07
5.33304e-07
5.34405e-07
5.35504e-07
5.36603e-07
5.37699e-07
5.38793e-07
5.39886e-07
5.40978e-07
5.42067e-07
5.43155e-07
5.44241e-07
5.45325e-07
5.46409e-07
5.4749e-07
5.48569e-07
5.49647e-07
5.50724e-07
5.53038e-07
9.81709e-07
9.81865e-07
9.81929e-07
9.81972e-07
9.32159e-07
7.66468e-07
1.83344e-07
5.04898e-07
5.06386e-07
5.07526e-07
5.08664e-07
5.09801e-07
5.10936e-07
5.1207e-07
5.13202e-07
5.14333e-07
5.15461e-07
5.16589e-07
5.17715e-07
5.18838e-07
5.19961e-07
5.21083e-07
5.22201e-07
5.23319e-07
5.24435e-07
5.25549e-07
5.26662e-07
5.27774e-07
5.28882e-07
5.2999e-07
5.31097e-07
5.32201e-07
5.33304e-07
5.34406e-07
5.35504e-07
5.36603e-07
5.37699e-07
5.38793e-07
5.39886e-07
5.40978e-07
5.42067e-07
5.43155e-07
5.44241e-07
5.45325e-07
5.46408e-07
5.4749e-07
5.48569e-07
5.49647e-07
5.50724e-07
5.53038e-07
9.81721e-07
9.81867e-07
9.81931e-07
9.81969e-07
9.32348e-07
7.75987e-07
1.83268e-07
5.04894e-07
5.06383e-07
5.07524e-07
5.08663e-07
5.098e-07
5.10936e-07
5.12069e-07
5.13202e-07
5.14333e-07
5.15461e-07
5.16589e-07
5.17715e-07
5.18838e-07
5.19961e-07
5.21083e-07
5.22201e-07
5.23319e-07
5.24435e-07
5.25549e-07
5.26662e-07
5.27774e-07
5.28882e-07
5.2999e-07
5.31097e-07
5.32201e-07
5.33304e-07
5.34405e-07
5.35504e-07
5.36603e-07
5.37699e-07
5.38793e-07
5.39886e-07
5.40978e-07
5.42067e-07
5.43155e-07
5.44241e-07
5.45325e-07
5.46408e-07
5.4749e-07
5.48569e-07
5.49647e-07
5.50724e-07
5.53038e-07
9.81725e-07
9.81869e-07
9.81925e-07
9.81962e-07
9.32438e-07
7.76718e-07
5.31879e-08
5.04891e-07
5.06382e-07
5.07523e-07
5.08662e-07
5.098e-07
5.10936e-07
5.12069e-07
5.13202e-07
5.14333e-07
5.15461e-07
5.16589e-07
5.17715e-07
5.18838e-07
5.19961e-07
5.21083e-07
5.22201e-07
5.23319e-07
5.24435e-07
5.25549e-07
5.26662e-07
5.27774e-07
5.28882e-07
5.29991e-07
5.31097e-07
5.32201e-07
5.33304e-07
5.34405e-07
5.35504e-07
5.36603e-07
5.37699e-07
5.38793e-07
5.39886e-07
5.40978e-07
5.42067e-07
5.43155e-07
5.44241e-07
5.45325e-07
5.46409e-07
5.4749e-07
5.48569e-07
5.49647e-07
5.50724e-07
5.53038e-07
9.81728e-07
9.8187e-07
9.81918e-07
9.8195e-07
9.31788e-07
7.75903e-07
8.56868e-08
5.04889e-07
5.06381e-07
5.07523e-07
5.08662e-07
5.098e-07
5.10936e-07
5.12069e-07
5.13202e-07
5.14333e-07
5.15461e-07
5.16589e-07
5.17715e-07
5.18838e-07
5.19961e-07
5.21083e-07
5.22201e-07
5.23319e-07
5.24435e-07
5.25549e-07
5.26662e-07
5.27774e-07
5.28882e-07
5.2999e-07
5.31097e-07
5.32201e-07
5.33304e-07
5.34406e-07
5.35504e-07
5.36603e-07
5.37699e-07
5.38793e-07
5.39886e-07
5.40978e-07
5.42067e-07
5.43155e-07
5.44241e-07
5.45325e-07
5.46409e-07
5.4749e-07
5.48569e-07
5.49647e-07
5.50724e-07
5.53038e-07
9.81713e-07
9.81869e-07
9.81929e-07
9.81947e-07
9.32185e-07
7.67755e-07
1.04468e-07
5.04889e-07
5.06381e-07
5.07523e-07
5.08662e-07
5.098e-07
5.10936e-07
5.12069e-07
5.13202e-07
5.14333e-07
5.15461e-07
5.16589e-07
5.17715e-07
5.18838e-07
5.19961e-07
5.21083e-07
5.22201e-07
5.23319e-07
5.24435e-07
5.25549e-07
5.26662e-07
5.27774e-07
5.28882e-07
5.2999e-07
5.31097e-07
5.32201e-07
5.33304e-07
5.34405e-07
5.35504e-07
5.36603e-07
5.37699e-07
5.38793e-07
5.39886e-07
5.40978e-07
5.42067e-07
5.43155e-07
5.44241e-07
5.45325e-07
5.46409e-07
5.4749e-07
5.48569e-07
5.49647e-07
5.50724e-07
5.53038e-07
9.81727e-07
9.81858e-07
9.81928e-07
9.8195e-07
9.32457e-07
7.76732e-07
6.7311e-08
5.04891e-07
5.06382e-07
5.07523e-07
5.08662e-07
5.098e-07
5.10936e-07
5.12069e-07
5.13202e-07
5.14333e-07
5.15461e-07
5.16589e-07
5.17715e-07
5.18838e-07
5.19961e-07
5.21083e-07
5.22201e-07
5.23319e-07
5.24435e-07
5.25549e-07
5.26662e-07
5.27774e-07
5.28882e-07
5.2999e-07
5.31097e-07
5.32201e-07
5.33304e-07
5.34406e-07
5.35504e-07
5.36603e-07
5.37699e-07
5.38793e-07
5.39886e-07
5.40978e-07
5.42067e-07
5.43155e-07
5.44241e-07
5.45325e-07
5.46409e-07
5.4749e-07
5.48569e-07
5.49647e-07
5.50724e-07
5.53038e-07
9.81725e-07
9.81863e-07
9.8193e-07
9.81967e-07
9.31254e-07
7.74639e-07
5.20024e-08
5.04893e-07
5.06383e-07
5.07524e-07
5.08663e-07
5.098e-07
5.10936e-07
5.12069e-07
5.13202e-07
5.14333e-07
5.15461e-07
5.16589e-07
5.17715e-07
5.18838e-07
5.19961e-07
5.21083e-07
5.22201e-07
5.23319e-07
5.24435e-07
5.25549e-07
5.26662e-07
5.27774e-07
5.28882e-07
5.2999e-07
5.31097e-07
5.32201e-07
5.33304e-07
5.34406e-07
5.35504e-07
5.36603e-07
5.37699e-07
5.38793e-07
5.39886e-07
5.40978e-07
5.42067e-07
5.43155e-07
5.44241e-07
5.45325e-07
5.46409e-07
5.4749e-07
5.48569e-07
5.49647e-07
5.50724e-07
5.53038e-07
9.81696e-07
9.81843e-07
9.81932e-07
9.81947e-07
9.32421e-07
7.77471e-07
1.8323e-07
5.04898e-07
5.06386e-07
5.07526e-07
5.08663e-07
5.09801e-07
5.10936e-07
5.12069e-07
5.13202e-07
5.14333e-07
5.15461e-07
5.16589e-07
5.17715e-07
5.18838e-07
5.19961e-07
5.21083e-07
5.22201e-07
5.23319e-07
5.24435e-07
5.25549e-07
5.26662e-07
5.27774e-07
5.28882e-07
5.2999e-07
5.31097e-07
5.32201e-07
5.33304e-07
5.34405e-07
5.35504e-07
5.36603e-07
5.37699e-07
5.38793e-07
5.39886e-07
5.40978e-07
5.42067e-07
5.43155e-07
5.44241e-07
5.45325e-07
5.46409e-07
5.4749e-07
5.48569e-07
5.49647e-07
5.50724e-07
5.53038e-07
9.81731e-07
9.81878e-07
9.81947e-07
9.8201e-07
9.3214e-07
7.61518e-07
1.83342e-07
5.04898e-07
5.06386e-07
5.07526e-07
5.08664e-07
5.09801e-07
5.10937e-07
5.1207e-07
5.13202e-07
5.14333e-07
5.15461e-07
5.16589e-07
5.17715e-07
5.18839e-07
5.19961e-07
5.21083e-07
5.22201e-07
5.23319e-07
5.24435e-07
5.25549e-07
5.26662e-07
5.27774e-07
5.28882e-07
5.29991e-07
5.31097e-07
5.32201e-07
5.33304e-07
5.34405e-07
5.35504e-07
5.36603e-07
5.37699e-07
5.38793e-07
5.39886e-07
5.40978e-07
5.42067e-07
5.43155e-07
5.44241e-07
5.45325e-07
5.46409e-07
5.4749e-07
5.48569e-07
5.49647e-07
5.50724e-07
5.53038e-07
9.73298e-07
9.73461e-07
9.73524e-07
9.73567e-07
9.32125e-07
1.22865e-07
1.83347e-07
3.9242e-07
3.93663e-07
3.94696e-07
3.9573e-07
3.96762e-07
3.97794e-07
3.98825e-07
3.99856e-07
4.00885e-07
4.01915e-07
4.02943e-07
4.0397e-07
4.04998e-07
4.06024e-07
4.07049e-07
4.08074e-07
4.09098e-07
4.10121e-07
4.11144e-07
4.12166e-07
4.13187e-07
4.14207e-07
4.15227e-07
4.16245e-07
4.17263e-07
4.1828e-07
4.19297e-07
4.20313e-07
4.21327e-07
4.22341e-07
4.23355e-07
4.24367e-07
4.25378e-07
4.26389e-07
4.27399e-07
4.28408e-07
4.29417e-07
4.30424e-07
4.31431e-07
4.32437e-07
4.33441e-07
4.34445e-07
4.36221e-07
9.73246e-07
9.73446e-07
9.73549e-07
9.73644e-07
9.32349e-07
7.66769e-07
1.83348e-07
3.9242e-07
3.93663e-07
3.94696e-07
3.9573e-07
3.96762e-07
3.97794e-07
3.98825e-07
3.99856e-07
4.00885e-07
4.01915e-07
4.02943e-07
4.0397e-07
4.04998e-07
4.06024e-07
4.07049e-07
4.08074e-07
4.09098e-07
4.10121e-07
4.11144e-07
4.12166e-07
4.13187e-07
4.14207e-07
4.15227e-07
4.16245e-07
4.17263e-07
4.1828e-07
4.19297e-07
4.20313e-07
4.21327e-07
4.22341e-07
4.23355e-07
4.24367e-07
4.25378e-07
4.26389e-07
4.27399e-07
4.28408e-07
4.29417e-07
4.30424e-07
4.31431e-07
4.32437e-07
4.33441e-07
4.34445e-07
4.36221e-07
9.73287e-07
9.73457e-07
9.73551e-07
9.73643e-07
9.32494e-07
7.76217e-07
1.83271e-07
3.92419e-07
3.93662e-07
3.94696e-07
3.9573e-07
3.96762e-07
3.97794e-07
3.98825e-07
3.99856e-07
4.00885e-07
4.01915e-07
4.02943e-07
4.0397e-07
4.04998e-07
4.06024e-07
4.07049e-07
4.08074e-07
4.09098e-07
4.10121e-07
4.11144e-07
4.12166e-07
4.13187e-07
4.14207e-07
4.15227e-07
4.16245e-07
4.17263e-07
4.1828e-07
4.19297e-07
4.20313e-07
4.21327e-07
4.22341e-07
4.23355e-07
4.24367e-07
4.25378e-07
4.26389e-07
4.27399e-07
4.28408e-07
4.29417e-07
4.30424e-07
4.31431e-07
4.32437e-07
4.33441e-07
4.34445e-07
4.36221e-07
9.73298e-07
9.73457e-07
9.73554e-07
9.73612e-07
9.32317e-07
7.76763e-07
5.3128e-08
3.92418e-07
3.93661e-07
3.94695e-07
3.95729e-07
3.96762e-07
3.97794e-07
3.98825e-07
3.99856e-07
4.00885e-07
4.01915e-07
4.02943e-07
4.0397e-07
4.04998e-07
4.06024e-07
4.07049e-07
4.08074e-07
4.09098e-07
4.10121e-07
4.11144e-07
4.12166e-07
4.13187e-07
4.14207e-07
4.15227e-07
4.16245e-07
4.17263e-07
4.1828e-07
4.19297e-07
4.20313e-07
4.21327e-07
4.22341e-07
4.23355e-07
4.24367e-07
4.25378e-07
4.26389e-07
4.27399e-07
4.28408e-07
4.29417e-07
4.30424e-07
4.31431e-07
4.32437e-07
4.33441e-07
4.34445e-07
4.36221e-07
9.73296e-07
9.73454e-07
9.73521e-07
9.73606e-07
9.32253e-07
7.7606e-07
8.56268e-08
3.92417e-07
3.93661e-07
3.94695e-07
3.95729e-07
3.96762e-07
3.97794e-07
3.98825e-07
3.99856e-07
4.00885e-07
4.01915e-07
4.02943e-07
4.0397e-07
4.04998e-07
4.06024e-07
4.07049e-07
4.08074e-07
4.09098e-07
4.10121e-07
4.11144e-07
4.12166e-07
4.13187e-07
4.14207e-07
4.15227e-07
4.16245e-07
4.17263e-07
4.1828e-07
4.19297e-07
4.20313e-07
4.21327e-07
4.22341e-07
4.23355e-07
4.24367e-07
4.25378e-07
4.26389e-07
4.27399e-07
4.28408e-07
4.29417e-07
4.30424e-07
4.31431e-07
4.32437e-07
4.33441e-07
4.34445e-07
4.36221e-07
9.73263e-07
9.73445e-07
9.73551e-07
9.73632e-07
9.32611e-07
7.75367e-07
1.04371e-07
3.92417e-07
3.93661e-07
3.94695e-07
3.95729e-07
3.96762e-07
3.97794e-07
3.98825e-07
3.99856e-07
4.00885e-07
4.01915e-07
4.02943e-07
4.0397e-07
4.04998e-07
4.06024e-07
4.07049e-07
4.08074e-07
4.09098e-07
4.10121e-07
4.11144e-07
4.12166e-07
4.13187e-07
4.14207e-07
4.15227e-07
4.16245e-07
4.17263e-07
4.1828e-07
4.19297e-07
4.20313e-07
4.21327e-07
4.22341e-07
4.23355e-07
4.24367e-07
4.25378e-07
4.26389e-07
4.27399e-07
4.28408e-07
4.29417e-07
4.30424e-07
4.31431e-07
4.32437e-07
4.33441e-07
4.34445e-07
4.36221e-07
9.73296e-07
9.73454e-07
9.73555e-07
9.7363e-07
9.32569e-07
7.75515e-07
6.71303e-08
3.92418e-07
3.93661e-07
3.94695e-07
3.95729e-07
3.96762e-07
3.97794e-07
3.98825e-07
3.99856e-07
4.00885e-07
4.01915e-07
4.02943e-07
4.0397e-07
4.04998e-07
4.06024e-07
4.07049e-07
4.08074e-07
4.09098e-07
4.10121e-07
4.11144e-07
4.12166e-07
4.13187e-07
4.14207e-07
4.15227e-07
4.16245e-07
4.17263e-07
4.1828e-07
4.19297e-07
4.20313e-07
4.21327e-07
4.22341e-07
4.23355e-07
4.24367e-07
4.25378e-07
4.26389e-07
4.27399e-07
4.28408e-07
4.29417e-07
4.30424e-07
4.31431e-07
4.32437e-07
4.33441e-07
4.34445e-07
4.36221e-07
9.733e-07
9.73454e-07
9.73552e-07
9.73639e-07
9.31743e-07
7.76544e-07
5.19833e-08
3.92419e-07
3.93662e-07
3.94696e-07
3.95729e-07
3.96762e-07
3.97794e-07
3.98825e-07
3.99856e-07
4.00885e-07
4.01915e-07
4.02943e-07
4.0397e-07
4.04998e-07
4.06024e-07
4.07049e-07
4.08074e-07
4.09098e-07
4.10121e-07
4.11144e-07
4.12166e-07
4.13187e-07
4.14207e-07
4.15227e-07
4.16245e-07
4.17263e-07
4.1828e-07
4.19297e-07
4.20313e-07
4.21327e-07
4.22341e-07
4.23355e-07
4.24367e-07
4.25378e-07
4.26389e-07
4.27399e-07
4.28408e-07
4.29417e-07
4.30424e-07
4.31431e-07
4.32437e-07
4.33441e-07
4.34445e-07
4.36221e-07
9.73246e-07
9.7341e-07
9.73557e-07
9.7361e-07
9.32737e-07
7.77005e-07
1.83233e-07
3.9242e-07
3.93663e-07
3.94696e-07
3.9573e-07
3.96762e-07
3.97794e-07
3.98825e-07
3.99856e-07
4.00885e-07
4.01915e-07
4.02943e-07
4.0397e-07
4.04998e-07
4.06024e-07
4.07049e-07
4.08074e-07
4.09098e-07
4.10121e-07
4.11144e-07
4.12166e-07
4.13187e-07
4.14207e-07
4.15227e-07
4.16245e-07
4.17263e-07
4.1828e-07
4.19297e-07
4.20313e-07
4.21327e-07
4.22341e-07
4.23355e-07
4.24367e-07
4.25378e-07
4.26389e-07
4.27399e-07
4.28408e-07
4.29417e-07
4.30424e-07
4.31431e-07
4.32437e-07
4.33441e-07
4.34445e-07
4.36221e-07
9.733e-07
9.73461e-07
9.73557e-07
9.73641e-07
9.32216e-07
7.60967e-07
1.83347e-07
3.9242e-07
3.93663e-07
3.94696e-07
3.9573e-07
3.96762e-07
3.97794e-07
3.98825e-07
3.99856e-07
4.00885e-07
4.01915e-07
4.02943e-07
4.0397e-07
4.04998e-07
4.06024e-07
4.07049e-07
4.08074e-07
4.09098e-07
4.10121e-07
4.11144e-07
4.12166e-07
4.13187e-07
4.14207e-07
4.15227e-07
4.16245e-07
4.17263e-07
4.1828e-07
4.19297e-07
4.20313e-07
4.21327e-07
4.22341e-07
4.23355e-07
4.24367e-07
4.25378e-07
4.26389e-07
4.27399e-07
4.28408e-07
4.29417e-07
4.30424e-07
4.31431e-07
4.32437e-07
4.33441e-07
4.34445e-07
4.36221e-07
3.51425e-08
6.86592e-07
3.51425e-08
1.22801e-07
5.17852e-08
7.59454e-07
5.17848e-08
3.5143e-08
7.00525e-07
3.54178e-08
7.68271e-07
5.17865e-08
7.77306e-07
5.24054e-08
3.62089e-08
7.00609e-07
6.50306e-08
7.75914e-07
5.36336e-08
7.76311e-07
9.46569e-08
9.14041e-08
6.93396e-07
6.88899e-07
7.76747e-07
1.31259e-07
7.76742e-07
7.10281e-07
6.89764e-07
7.00927e-07
6.93351e-07
7.75854e-07
7.62271e-07
7.75518e-07
7.68582e-07
6.92863e-07
7.00663e-07
6.91923e-07
7.68327e-07
7.67997e-07
7.70357e-07
7.64752e-07
6.87921e-07
6.93541e-07
9.11702e-08
7.7681e-07
7.18072e-07
7.76583e-07
1.30849e-07
6.53816e-08
7.00963e-07
3.61756e-08
7.73893e-07
9.51345e-08
7.76012e-07
5.35671e-08
3.5417e-08
6.94661e-07
3.5143e-08
7.77333e-07
5.2407e-08
7.66652e-07
5.17866e-08
3.51425e-08
8.47879e-08
3.51425e-08
7.61141e-07
5.17848e-08
1.22148e-07
5.17852e-08
5.1785e-08
7.60553e-07
5.17846e-08
1.22876e-07
5.17851e-08
7.59948e-07
5.17846e-08
5.17866e-08
7.77173e-07
5.24451e-08
7.68707e-07
5.17866e-08
7.76974e-07
5.24453e-08
5.36885e-08
7.75844e-07
9.4703e-08
7.75401e-07
5.36875e-08
7.75623e-07
9.46899e-08
1.3128e-07
7.76258e-07
6.97754e-07
7.76659e-07
1.31242e-07
7.76533e-07
6.94352e-07
7.63009e-07
7.75995e-07
7.67386e-07
7.74369e-07
7.63189e-07
7.76636e-07
7.68776e-07
7.68344e-07
7.68245e-07
7.63787e-07
7.7654e-07
7.66838e-07
7.71197e-07
7.6583e-07
7.06647e-07
7.76873e-07
1.30871e-07
7.75824e-07
7.07741e-07
7.76419e-07
1.30845e-07
9.51826e-08
7.74755e-07
5.36238e-08
7.76246e-07
9.51801e-08
7.74529e-07
5.36243e-08
5.24473e-08
7.6687e-07
5.17866e-08
7.77248e-07
5.24489e-08
7.67739e-07
5.17866e-08
5.17846e-08
1.22182e-07
5.1785e-08
7.61238e-07
5.17847e-08
1.22174e-07
5.17851e-08
5.17851e-08
7.61072e-07
5.17847e-08
8.52766e-08
3.51424e-08
6.8708e-07
3.51424e-08
5.17865e-08
7.77105e-07
5.24053e-08
6.9279e-07
3.51429e-08
7.00634e-07
3.54175e-08
5.36317e-08
7.76215e-07
9.46371e-08
7.00711e-07
3.6208e-08
7.00354e-07
6.49983e-08
1.31164e-07
7.76796e-07
7.03792e-07
6.96915e-07
9.13117e-08
6.95782e-07
6.77862e-07
7.63189e-07
7.76718e-07
7.68199e-07
7.00873e-07
6.90567e-07
6.99243e-07
6.92834e-07
7.67462e-07
7.7237e-07
7.65777e-07
6.99723e-07
6.93148e-07
6.99887e-07
6.91979e-07
7.20414e-07
7.76536e-07
1.30812e-07
6.97064e-07
6.87056e-07
6.98045e-07
9.11139e-08
9.51322e-08
7.75081e-07
5.3568e-08
7.00788e-07
6.53646e-08
7.00689e-07
3.61756e-08
5.2409e-08
7.68514e-07
5.17865e-08
7.00908e-07
3.5418e-08
6.93919e-07
3.51429e-08
5.17848e-08
1.22076e-07
5.17851e-08
6.86363e-07
3.51424e-08
8.47535e-08
3.51424e-08
6.91774e-07
9.026e-07
7.00292e-07
9.32034e-07
7.68729e-07
9.3209e-07
7.75353e-07
5.32578e-08
3.55426e-08
1.00518e-07
1.22679e-07
1.43596e-07
3.60823e-08
5.24627e-08
1.29658e-07
1.29269e-07
1.29658e-07
1.83347e-07
1.84016e-07
1.83347e-07
1.84016e-07
9.02981e-07
9.03061e-07
9.03149e-07
9.32635e-07
9.32521e-07
9.32409e-07
9.32564e-07
2.60941e-07
7.85058e-08
6.98454e-07
7.67148e-07
1.13136e-07
7.74408e-07
1.91243e-07
1.29658e-07
1.2927e-07
1.29658e-07
1.83348e-07
1.84017e-07
1.8335e-07
1.84016e-07
9.03177e-07
9.03107e-07
9.03183e-07
9.32628e-07
9.32631e-07
9.32717e-07
9.32683e-07
7.754e-07
6.94427e-07
7.00856e-07
7.77156e-07
7.69454e-07
7.77412e-07
6.99143e-07
1.29657e-07
3.52103e-08
1.29566e-07
1.8327e-07
1.84015e-07
5.19709e-08
1.83831e-07
9.02775e-07
9.02722e-07
9.02463e-07
9.3263e-07
9.32518e-07
9.32568e-07
9.32166e-07
7.76687e-07
7.00356e-07
6.98901e-07
7.73609e-07
7.76813e-07
7.76801e-07
6.99248e-07
1.29566e-07
4.54242e-08
1.29566e-07
5.31289e-08
1.83831e-07
6.72474e-08
1.83831e-07
9.02921e-07
9.02548e-07
9.02609e-07
9.32212e-07
9.3212e-07
9.32281e-07
9.32342e-07
7.71302e-07
6.97261e-07
6.88027e-07
7.72584e-07
7.72268e-07
7.69781e-07
6.87988e-07
1.29566e-07
7.2146e-08
1.29567e-07
8.56387e-08
1.83831e-07
1.04644e-07
1.83834e-07
9.0319e-07
9.03063e-07
9.0311e-07
9.32363e-07
9.32628e-07
9.32441e-07
9.32476e-07
7.76646e-07
7.00562e-07
7.00719e-07
7.76416e-07
7.77104e-07
7.77255e-07
6.99812e-07
1.29567e-07
5.87366e-08
1.29566e-07
1.04427e-07
1.83834e-07
8.57398e-08
1.83831e-07
9.02535e-07
9.02863e-07
9.0318e-07
9.32589e-07
9.32478e-07
9.32607e-07
9.32637e-07
7.74448e-07
6.93646e-07
7.00889e-07
7.75659e-07
7.7462e-07
7.75339e-07
6.93427e-07
1.29566e-07
3.58766e-08
1.29566e-07
6.7134e-08
1.83831e-07
5.31411e-08
1.83831e-07
9.02786e-07
9.03003e-07
9.02129e-07
9.32034e-07
9.31688e-07
9.32337e-07
9.32159e-07
7.76339e-07
7.00387e-07
6.88103e-07
7.69784e-07
7.76289e-07
7.70121e-07
7.00816e-07
1.29566e-07
3.51734e-08
1.29566e-07
5.19843e-08
1.83831e-07
5.18209e-08
1.83832e-07
9.03241e-07
9.03146e-07
9.03042e-07
9.32673e-07
9.32802e-07
9.32645e-07
9.32369e-07
7.14515e-07
6.92777e-07
7.00926e-07
7.77263e-07
7.67199e-07
7.76552e-07
6.59796e-07
1.29658e-07
1.29269e-07
1.29658e-07
1.83234e-07
1.84016e-07
1.83348e-07
1.84017e-07
7.00307e-07
9.02362e-07
6.93734e-07
9.32098e-07
7.75489e-07
9.32177e-07
7.64946e-07
5.72679e-08
5.08526e-08
1.94861e-07
7.60048e-07
7.43285e-08
2.65013e-07
3.88829e-08
1.29658e-07
1.29269e-07
1.29658e-07
1.83347e-07
1.84016e-07
1.83347e-07
1.84016e-07
7.66527e-07
9.31907e-07
7.75303e-07
9.31686e-07
7.68518e-07
9.31985e-07
7.76965e-07
5.35462e-08
5.27071e-08
1.43943e-07
1.22886e-07
5.35256e-08
1.43902e-07
5.27282e-08
1.84011e-07
1.83342e-07
1.84011e-07
1.83342e-07
1.84011e-07
1.83342e-07
1.84011e-07
9.32361e-07
9.32165e-07
9.32474e-07
9.31928e-07
9.32235e-07
9.32154e-07
9.32513e-07
2.61578e-07
1.13384e-07
7.74414e-07
7.669e-07
2.62088e-07
1.13224e-07
7.7442e-07
1.84012e-07
1.83347e-07
1.84012e-07
1.83344e-07
1.84012e-07
1.83347e-07
1.84012e-07
9.32062e-07
9.32548e-07
9.32514e-07
9.32241e-07
9.31661e-07
9.32516e-07
9.32463e-07
7.74197e-07
7.66226e-07
7.74992e-07
7.74767e-07
7.74271e-07
7.63546e-07
7.75648e-07
1.8401e-07
5.19881e-08
1.83826e-07
1.83268e-07
1.8401e-07
5.1988e-08
1.83826e-07
9.32436e-07
9.3247e-07
9.32149e-07
9.32301e-07
9.32382e-07
9.32477e-07
9.32041e-07
7.72136e-07
7.77034e-07
7.73058e-07
7.76784e-07
7.73891e-07
7.76951e-07
7.71589e-07
1.83825e-07
6.74524e-08
1.83825e-07
5.3188e-08
1.83826e-07
6.74802e-08
1.83826e-07
9.32039e-07
9.32264e-07
9.32126e-07
9.31652e-07
9.32188e-07
9.32301e-07
9.32112e-07
7.74525e-07
7.76587e-07
7.7696e-07
7.75047e-07
7.75042e-07
7.76348e-07
7.76925e-07
1.83825e-07
1.04696e-07
1.8383e-07
8.56766e-08
1.83825e-07
1.04669e-07
1.8383e-07
9.32439e-07
9.32131e-07
9.32238e-07
9.3223e-07
9.32248e-07
9.3225e-07
9.3224e-07
7.76885e-07
7.76844e-07
7.76315e-07
7.71544e-07
7.76707e-07
7.76468e-07
7.76465e-07
1.8383e-07
8.57685e-08
1.83825e-07
1.04431e-07
1.8383e-07
8.57658e-08
1.83825e-07
9.32376e-07
9.32519e-07
9.32462e-07
9.32365e-07
9.32402e-07
9.32443e-07
9.32437e-07
7.68062e-07
7.71643e-07
7.6463e-07
7.76103e-07
7.69134e-07
7.70962e-07
7.69434e-07
1.83825e-07
5.32e-08
1.83825e-07
6.72923e-08
1.83826e-07
5.32014e-08
1.83826e-07
9.31527e-07
9.32272e-07
9.32365e-07
9.30824e-07
9.31719e-07
9.32337e-07
9.32458e-07
7.76532e-07
7.75615e-07
7.76584e-07
7.75264e-07
7.7697e-07
7.76049e-07
7.76911e-07
1.83826e-07
5.1821e-08
1.83827e-07
5.20016e-08
1.83826e-07
5.18211e-08
1.83827e-07
9.32646e-07
9.32402e-07
9.3224e-07
9.32388e-07
9.3246e-07
9.32341e-07
9.32424e-07
6.74133e-07
7.66001e-07
7.76374e-07
7.7742e-07
6.78826e-07
7.65087e-07
7.76439e-07
1.84011e-07
1.83344e-07
1.84012e-07
1.8323e-07
1.84012e-07
1.83344e-07
1.84012e-07
7.76216e-07
9.32151e-07
7.64996e-07
9.32181e-07
7.77058e-07
9.32279e-07
7.65031e-07
5.75386e-08
7.44941e-08
2.65489e-07
7.61325e-07
5.75136e-08
7.43912e-08
2.64382e-07
1.84011e-07
1.83342e-07
1.84011e-07
1.83343e-07
1.84011e-07
1.83343e-07
1.84011e-07
7.68088e-07
9.32441e-07
7.76716e-07
9.02976e-07
6.92789e-07
9.02936e-07
7.00042e-07
5.33556e-08
5.26481e-08
1.44019e-07
1.22773e-07
5.34541e-08
1.43823e-07
5.25602e-08
1.84016e-07
1.83347e-07
1.84016e-07
1.29269e-07
1.29658e-07
1.29269e-07
1.29658e-07
9.32438e-07
9.32451e-07
9.3259e-07
9.03069e-07
9.03044e-07
9.02828e-07
9.02461e-07
2.61439e-07
1.13343e-07
7.74076e-07
7.66636e-07
2.62105e-07
1.13221e-07
7.7392e-07
1.84017e-07
1.8335e-07
1.84016e-07
1.29269e-07
1.29658e-07
1.2927e-07
1.29658e-07
9.31868e-07
9.32636e-07
9.32652e-07
9.03009e-07
9.02693e-07
9.03e-07
9.03212e-07
7.74461e-07
7.69982e-07
7.76117e-07
7.76691e-07
7.74226e-07
7.68873e-07
7.75652e-07
1.84015e-07
5.19707e-08
1.83831e-07
1.29231e-07
1.29658e-07
3.52102e-08
1.29567e-07
9.32624e-07
9.32662e-07
9.32413e-07
9.0251e-07
9.03193e-07
9.03139e-07
9.0317e-07
7.73812e-07
7.76407e-07
7.72745e-07
7.76648e-07
7.73101e-07
7.77194e-07
7.72659e-07
1.83831e-07
6.73404e-08
1.83831e-07
3.58699e-08
1.29566e-07
4.54668e-08
1.29566e-07
9.32482e-07
9.32539e-07
9.32287e-07
9.03152e-07
9.03136e-07
9.03077e-07
9.02604e-07
7.75944e-07
7.74331e-07
7.77613e-07
7.76956e-07
7.75172e-07
7.75219e-07
7.77337e-07
1.8383e-07
1.04615e-07
1.83834e-07
5.86375e-08
1.29566e-07
7.21064e-08
1.29567e-07
9.3211e-07
9.32601e-07
9.32549e-07
9.03107e-07
9.02022e-07
9.02994e-07
9.03199e-07
7.76759e-07
7.76768e-07
7.7677e-07
7.72835e-07
7.76346e-07
7.77058e-07
7.76589e-07
1.83834e-07
8.572e-08
1.8383e-07
7.19559e-08
1.29567e-07
5.87164e-08
1.29566e-07
9.32483e-07
9.32622e-07
9.32655e-07
9.03058e-07
9.03135e-07
9.03118e-07
9.03205e-07
7.74051e-07
7.73782e-07
7.70273e-07
7.75714e-07
7.7232e-07
7.73619e-07
7.70771e-07
1.83831e-07
5.31414e-08
1.83831e-07
4.54137e-08
1.29566e-07
3.58766e-08
1.29566e-07
9.32195e-07
9.3247e-07
9.32466e-07
9.02964e-07
9.03094e-07
9.02967e-07
9.02404e-07
7.76032e-07
7.76152e-07
7.75251e-07
7.76846e-07
7.75828e-07
7.76327e-07
7.75371e-07
1.83831e-07
5.18208e-08
1.83832e-07
3.52139e-08
1.29566e-07
3.51705e-08
1.29567e-07
9.32183e-07
9.32278e-07
9.32492e-07
9.03142e-07
9.02039e-07
9.02185e-07
9.0296e-07
7.01633e-07
7.64721e-07
7.77168e-07
7.77269e-07
6.8936e-07
7.64656e-07
7.7715e-07
1.84016e-07
1.83348e-07
1.84017e-07
1.29212e-07
1.29658e-07
1.29269e-07
1.29658e-07
7.77094e-07
9.32418e-07
7.6227e-07
9.01844e-07
7.00585e-07
9.02974e-07
6.94605e-07
5.73859e-08
7.44816e-08
2.64844e-07
7.60351e-07
5.74684e-08
7.43077e-08
2.64653e-07
1.84016e-07
1.83347e-07
1.84016e-07
1.29269e-07
1.29658e-07
1.29269e-07
1.29658e-07
5.16877e-08
3.50851e-08
3.51425e-08
5.17917e-08
5.17917e-08
3.50857e-08
5.16865e-08
5.74486e-08
1.94503e-07
5.05929e-08
7.58929e-07
2.65198e-07
7.3908e-08
3.90021e-08
5.16941e-08
3.51425e-08
3.50975e-08
5.17915e-08
5.17917e-08
5.17129e-08
3.50887e-08
5.33682e-08
1.22758e-07
5.26513e-08
1.43899e-07
1.43768e-07
5.34647e-08
5.25641e-08
5.16873e-08
5.1791e-08
5.16801e-08
5.17851e-08
5.17909e-08
5.16812e-08
5.16862e-08
5.75411e-08
7.59939e-07
2.65316e-07
7.41431e-08
2.65414e-07
7.39563e-08
5.76241e-08
5.16938e-08
5.17907e-08
5.17851e-08
5.17066e-08
5.17909e-08
5.17124e-08
5.16876e-08
5.70571e-08
3.54623e-08
3.51465e-08
5.17928e-08
5.23274e-08
5.18003e-08
3.87601e-08
7.20712e-07
7.00503e-07
6.90866e-07
7.76781e-07
7.76481e-07
7.66092e-07
6.70032e-07
6.75191e-08
3.51523e-08
7.59442e-08
5.22862e-08
5.18134e-08
1.09624e-07
4.58641e-08
2.61331e-07
7.66569e-07
1.13363e-07
7.74698e-07
1.13174e-07
7.74667e-07
2.62195e-07
5.71079e-08
5.17922e-08
5.2456e-08
5.1794e-08
5.24015e-08
5.17998e-08
5.71592e-08
7.03979e-07
7.76839e-07
7.76071e-07
7.67122e-07
7.7635e-07
7.66186e-07
6.91049e-07
6.77703e-08
5.23577e-08
5.18077e-08
1.09738e-07
5.1813e-08
1.09661e-07
6.7986e-08
3.18013e-07
1.00086e-07
4.04566e-08
5.34707e-08
1.42805e-07