/*--------------------------------*- C++ -*----------------------------------*\
| =========                 |                                                 |
| \\      /  F ield         | OpenFOAM: The Open Source CFD Toolbox           |
|  \\    /   O peration     | Version:  5.0                                   |
|   \\  /    A nd           | Web:      www.OpenFOAM.org                      |
|    \\/     M anipulation  |                                                 |
\*---------------------------------------------------------------------------*/
FoamFile
{
    version     2.0;
    format      ascii;
    class       volVectorField;
    location    "0.4";
    object      U;
}
// * * * * * * * * * * * * * * * * * * * * * * * * * * * * * * * * * * * * * //

dimensions      [0 1 -1 0 0 0 0];

internalField   nonuniform List<vector> 
4440
(
(0.000651332 -1.95067e-06 -3.4395e-06)
(0.000959071 -2.9315e-06 1.56942e-06)
(0.000815716 3.16711e-05 5.27538e-07)
(0.000798312 5.09743e-06 3.14614e-06)
(0.000869786 -5.73676e-05 -4.97736e-06)
(0.000927715 -1.26781e-05 1.21359e-05)
(0.000501791 2.53108e-06 -6.28354e-07)
(0.000855197 4.0986e-07 -1.94633e-06)
(0.000821469 -1.8711e-06 -3.06799e-07)
(0.000834536 -2.23834e-06 1.10024e-07)
(0.000836062 -1.84124e-06 2.12769e-08)
(0.000838077 -1.27283e-06 7.39999e-08)
(0.000838158 -8.6295e-07 6.51552e-08)
(0.000838179 -8.87693e-07 1.07196e-08)
(0.000837916 -5.27237e-07 5.74117e-08)
(0.000836784 -3.0748e-07 5.78494e-08)
(0.000835484 -1.86894e-07 5.27904e-08)
(0.000834226 -1.53391e-07 3.65184e-08)
(0.000832776 -1.16861e-08 5.17316e-08)
(0.000831169 1.01884e-07 4.84643e-08)
(0.000829474 2.15152e-07 5.62687e-08)
(0.000827867 9.62881e-08 3.19595e-08)
(0.000826422 2.52335e-07 5.12766e-08)
(0.000824847 1.77293e-07 3.67684e-08)
(0.000823203 9.69527e-08 5.32841e-08)
(0.000821571 1.76814e-07 2.55567e-08)
(0.000820118 2.17535e-07 6.44199e-08)
(0.00081853 1.76309e-07 4.8294e-08)
(0.000816971 2.38839e-07 1.27316e-07)
(0.000815173 3.25402e-07 8.27019e-08)
(0.000813954 9.9581e-07 7.57102e-08)
(0.000812933 5.61721e-07 8.54778e-08)
(0.000811238 4.46159e-07 2.70241e-08)
(0.000809566 1.04009e-07 3.87658e-08)
(0.00080801 -1.1761e-08 4.25949e-08)
(0.00080656 2.28713e-08 5.13377e-08)
(0.000804986 -5.93551e-08 3.68886e-08)
(0.00080381 -1.71486e-07 4.55193e-08)
(0.00080189 -6.23562e-07 -2.79496e-08)
(0.000799963 -2.70701e-07 5.73812e-08)
(0.000798855 -1.82521e-07 6.1059e-08)
(0.000797423 -2.00014e-07 1.17737e-09)
(0.000795988 -1.95936e-07 4.50637e-08)
(0.000794537 -1.34774e-07 6.13933e-08)
(0.000792967 -7.37404e-08 6.60342e-08)
(0.000791481 2.05213e-09 2.38727e-07)
(0.000790192 -4.49092e-08 5.94937e-08)
(0.000788816 -1.6989e-07 5.99358e-08)
(0.000787313 -1.50968e-07 4.45094e-08)
(0.000786018 -1.20306e-07 8.79038e-08)
(0.000652941 3.98182e-06 -3.99638e-06)
(0.00097322 -6.5559e-06 1.45224e-06)
(0.000808388 -8.82422e-06 -7.56131e-07)
(0.000871171 -3.03232e-05 2.31197e-06)
(0.000598514 -3.77486e-05 1.32847e-05)
(0.00112971 -9.85146e-05 9.67673e-05)
(0.00043332 9.48294e-06 -1.04259e-06)
(0.000837525 -2.34532e-05 -1.75302e-06)
(0.000818875 -1.63327e-05 -1.83379e-07)
(0.000834999 -1.12293e-05 1.47777e-07)
(0.00083745 -7.44365e-06 5.32814e-08)
(0.000839372 -4.93577e-06 6.03629e-08)
(0.000839522 -3.1998e-06 5.45221e-08)
(0.000839083 -1.81371e-06 5.73113e-08)
(0.000838221 -1.21028e-06 5.42413e-08)
(0.000837025 -8.035e-07 9.54862e-08)
(0.000835636 -5.60617e-07 4.76496e-08)
(0.000834245 -3.92405e-07 1.47216e-08)
(0.000832765 -5.65104e-07 3.66378e-08)
(0.000831208 -3.67231e-07 5.12249e-08)
(0.000829618 -3.29866e-07 2.07139e-08)
(0.000828159 -1.83232e-07 5.00774e-08)
(0.000826601 -2.38291e-07 9.31126e-09)
(0.000824707 -2.96624e-07 -1.27627e-08)
(0.000823176 -2.57301e-07 5.75508e-08)
(0.000821823 -9.72293e-08 8.06675e-08)
(0.000820247 1.07133e-07 7.90231e-08)
(0.000818676 1.5579e-07 5.08329e-08)
(0.000817234 5.08595e-07 -1.83973e-08)
(0.000816278 4.73362e-07 7.05888e-08)
(0.000814297 7.39556e-07 9.02426e-09)
(0.000812055 5.83581e-07 9.80493e-08)
(0.000810596 6.00163e-08 9.30764e-08)
(0.00080904 -2.24486e-08 3.33614e-08)
(0.000807783 -6.40927e-08 4.95544e-08)
(0.000806281 -2.79139e-07 4.66995e-08)
(0.000804689 -2.74858e-07 9.71308e-09)
(0.000802906 -3.37587e-07 3.64566e-08)
(0.000801867 -6.64414e-07 1.10427e-07)
(0.000800877 -2.66598e-07 7.65029e-08)
(0.000799081 -1.59288e-07 3.949e-08)
(0.000797446 -1.40141e-07 3.57061e-08)
(0.000795968 -1.07144e-07 4.45191e-08)
(0.000794627 -8.12461e-08 6.65224e-08)
(0.000793187 -2.79238e-08 4.26484e-08)
(0.000791677 8.89563e-08 5.03055e-08)
(0.000790125 1.05518e-07 4.23946e-08)
(0.000788718 3.87662e-08 3.36284e-08)
(0.000787299 -2.02835e-08 1.7287e-08)
(0.000786054 -2.77815e-08 7.07576e-08)
(0.000644766 1.26794e-05 -3.15092e-06)
(0.000946531 6.67872e-06 2.4974e-06)
(0.000782107 2.73745e-05 -5.13859e-07)
(0.000792814 1.20795e-05 7.28787e-06)
(0.000317996 6.68812e-05 -1.37368e-05)
(0.000239922 -5.53674e-05 4.69188e-06)
(0.000545416 -5.69538e-05 3.50353e-06)
(0.000870975 -4.58441e-05 -2.03888e-06)
(0.000836965 -2.9942e-05 -3.1107e-07)
(0.000845764 -1.8087e-05 1.1205e-07)
(0.000844007 -1.12536e-05 4.01581e-08)
(0.000843434 -6.99534e-06 5.63416e-08)
(0.000842093 -4.35977e-06 5.34765e-08)
(0.000840687 -2.68684e-06 5.23716e-08)
(0.000839191 -1.68169e-06 5.26507e-08)
(0.000837605 -1.05505e-06 5.51332e-08)
(0.000836003 -6.71572e-07 4.72323e-08)
(0.000834225 -3.7853e-07 1.13488e-07)
(0.000832812 -2.26384e-07 7.09324e-08)
(0.000831467 -2.36867e-07 4.85096e-08)
(0.000829707 -2.96798e-07 7.50609e-08)
(0.000827984 -2.17903e-07 4.98955e-08)
(0.000826282 -3.60467e-07 4.47599e-08)
(0.000824826 -2.63366e-07 8.64964e-08)
(0.000823454 3.3103e-08 3.74489e-08)
(0.000822027 6.0673e-08 4.51369e-08)
(0.000820434 -1.04755e-08 6.56044e-08)
(0.000819028 2.28064e-08 5.34105e-08)
(0.000817364 1.16816e-07 7.92669e-08)
(0.000815455 -3.04101e-07 5.19385e-08)
(0.000814086 -8.32313e-07 -8.50636e-08)
(0.000812079 -8.52285e-07 2.62953e-08)
(0.000810478 -6.18412e-07 5.81642e-08)
(0.000809411 -2.81817e-07 6.49642e-08)
(0.000807691 -1.0904e-07 9.08153e-08)
(0.000806299 -9.55754e-09 6.33106e-08)
(0.000804916 3.78805e-08 6.56183e-08)
(0.000803327 5.80839e-08 2.74674e-08)
(0.000801983 1.70618e-07 6.11345e-08)
(0.000800598 1.28994e-07 7.00582e-08)
(0.000799015 8.13538e-08 3.74328e-08)
(0.000797489 4.05936e-08 5.30187e-08)
(0.000796063 1.12172e-07 6.74866e-08)
(0.000794637 4.15706e-08 2.56811e-08)
(0.00079318 -1.08425e-08 7.35169e-08)
(0.000791648 -6.18666e-10 4.21128e-08)
(0.000790129 8.00253e-08 5.01431e-08)
(0.000788659 1.63637e-07 3.70268e-08)
(0.000787232 8.17316e-08 5.42338e-08)
(0.000786077 2.73756e-08 9.28985e-08)
(0.000651689 9.67736e-06 -4.2427e-06)
(0.000989122 -2.55809e-06 2.00125e-06)
(0.000817257 3.70807e-05 -9.16826e-08)
(0.000928571 -1.61029e-05 3.38164e-06)
(0.000571223 8.62495e-05 7.3833e-06)
(0.000261829 0.000115973 2.254e-05)
(0.000488331 -7.16244e-05 3.38891e-05)
(0.000919979 -4.78647e-05 -1.58263e-06)
(0.00085396 -2.79734e-05 -4.11362e-07)
(0.000858556 -1.69821e-05 1.2778e-07)
(0.000851436 -1.02585e-05 3.50503e-08)
(0.000848065 -6.29237e-06 5.56982e-08)
(0.000844954 -3.77947e-06 4.90648e-08)
(0.000842459 -2.3331e-06 5.09689e-08)
(0.000840279 -1.4137e-06 5.11516e-08)
(0.000838299 -8.77584e-07 5.13909e-08)
(0.000836489 -5.58649e-07 5.23756e-08)
(0.000834806 -3.46753e-07 5.55601e-08)
(0.000832946 -1.17452e-07 2.57913e-08)
(0.000831123 -1.89539e-07 5.85717e-08)
(0.000829644 -1.55973e-07 1.61797e-09)
(0.000828083 -1.23668e-07 5.58635e-08)
(0.000826547 1.2678e-08 6.61067e-08)
(0.0008252 8.1209e-08 5.53832e-08)
(0.000823581 9.91822e-08 1.00425e-07)
(0.000821768 6.55889e-08 -8.89195e-08)
(0.000820199 -1.18694e-07 4.1358e-08)
(0.000818836 -2.07226e-07 3.60612e-08)
(0.000816826 -7.25596e-07 1.45223e-07)
(0.000815095 -4.22905e-07 -9.17351e-08)
(0.000813618 -3.42367e-07 4.43905e-09)
(0.000812328 -3.82263e-07 1.92957e-07)
(0.000811313 7.98312e-08 1.16985e-07)
(0.000809679 1.36757e-09 4.97747e-08)
(0.000808125 7.43378e-08 7.85063e-08)
(0.000806465 2.01632e-07 5.87722e-08)
(0.000804774 1.56147e-07 6.70793e-08)
(0.000803072 2.21759e-07 5.08487e-08)
(0.000801955 4.75886e-07 9.07422e-08)
(0.000800765 2.11217e-07 4.46224e-08)
(0.000798969 9.70881e-08 3.81528e-08)
(0.000797484 1.23415e-07 6.20724e-08)
(0.000795969 1.11337e-07 7.83983e-08)
(0.000794473 1.03608e-07 1.99312e-08)
(0.000793134 2.80446e-08 5.10069e-08)
(0.000791791 1.23824e-09 5.15944e-08)
(0.00079033 2.23044e-08 7.36216e-08)
(0.00078872 3.34774e-08 3.95983e-08)
(0.00078713 8.81323e-08 4.94294e-08)
(0.000785916 8.98929e-08 9.50136e-08)
(0.000639 2.93047e-06 -3.27677e-06)
(0.000977038 -3.75186e-06 1.45012e-06)
(0.000788067 1.23181e-05 -7.94575e-08)
(0.000824524 -2.35166e-05 7.15132e-06)
(0.000279268 6.57224e-05 -1.60636e-06)
(3.43802e-06 0.000167278 -8.21973e-06)
(0.000438379 -7.72172e-05 6.1912e-05)
(0.000929332 -2.51198e-05 -2.49784e-06)
(0.000875669 -1.24811e-05 -2.3789e-07)
(0.000868094 -7.62893e-06 4.96152e-08)
(0.000857482 -4.53624e-06 1.30922e-08)
(0.000851601 -2.73733e-06 6.95733e-08)
(0.000847084 -1.74303e-06 -1.60696e-07)
(0.000843669 -1.05926e-06 4.86569e-08)
(0.000841026 -6.86644e-07 4.90104e-08)
(0.000838683 -4.46184e-07 4.68772e-08)
(0.000836673 -2.77447e-07 5.20062e-08)
(0.00083478 -2.47833e-07 4.82896e-08)
(0.00083301 -1.95865e-07 7.77932e-08)
(0.00083142 -2.97402e-08 1.90637e-08)
(0.00082979 2.03879e-08 -1.04902e-08)
(0.000828196 5.48415e-08 1.40369e-07)
(0.000826539 6.99812e-08 3.67786e-08)
(0.000824933 3.76377e-08 4.78961e-08)
(0.000823434 -1.7596e-07 6.44912e-08)
(0.000821755 -2.09646e-07 4.65172e-08)
(0.000820093 -1.87738e-07 2.31361e-08)
(0.000818273 -2.63776e-07 7.16703e-08)
(0.000817099 -4.37445e-07 -2.6141e-08)
(0.00081594 -2.93129e-07 7.27427e-08)
(0.00081414 -2.80042e-07 1.82651e-07)
(0.000812609 2.18686e-07 3.85648e-08)
(0.000810959 1.44923e-07 -1.70146e-08)
(0.000809404 7.05942e-08 5.17873e-08)
(0.000807941 3.96007e-08 3.37206e-08)
(0.000806401 -1.03642e-08 5.04889e-08)
(0.00080494 8.35503e-08 1.75122e-07)
(0.000803726 1.91859e-07 1.54814e-08)
(0.000801968 4.2046e-07 1.11549e-08)
(0.000800123 2.69156e-07 5.65809e-08)
(0.000798904 1.4761e-07 5.39516e-08)
(0.000797507 1.97822e-07 -1.12125e-07)
(0.000796038 1.13101e-07 4.29783e-08)
(0.000794533 1.47489e-07 4.86414e-08)
(0.000793052 1.50476e-07 3.60866e-08)
(0.000791641 1.36238e-08 4.93298e-08)
(0.00079017 -8.38633e-08 4.81912e-08)
(0.000788741 -1.61329e-07 -1.30552e-08)
(0.0007873 -7.81353e-08 4.00474e-08)
(0.000785856 4.45927e-09 8.88646e-08)
(0.000650478 5.20194e-06 -3.92136e-06)
(0.00100013 2.6901e-06 1.17705e-06)
(0.000823334 1.32491e-05 -1.41439e-06)
(0.00100319 3.39426e-05 3.38025e-06)
(0.000279546 -1.51503e-05 1.38806e-05)
(0.000488502 5.31799e-05 -9.87707e-06)
(0.000712256 1.34395e-05 4.12641e-05)
(0.000930503 2.14534e-05 -2.54416e-06)
(0.000876452 1.02229e-05 -2.45386e-07)
(0.000868569 6.32921e-06 8.35667e-08)
(0.000857601 3.60832e-06 1.68801e-08)
(0.000851587 2.17113e-06 -9.70585e-08)
(0.000847071 1.21106e-06 1.92049e-08)
(0.000843792 7.52568e-07 5.20122e-08)
(0.000841052 4.25356e-07 5.32295e-08)
(0.000838815 2.5883e-07 6.44499e-08)
(0.00083674 1.84895e-07 5.1966e-08)
(0.00083491 1.35474e-07 8.09184e-08)
(0.000833219 1.14616e-07 7.91355e-08)
(0.000831394 1.09791e-07 8.00886e-08)
(0.00082975 1.12079e-07 6.17767e-08)
(0.000828144 7.51217e-08 8.76395e-08)
(0.000826524 4.49379e-09 7.62169e-08)
(0.000824893 4.21321e-08 4.96267e-08)
(0.000823272 5.27303e-09 6.42057e-08)
(0.000821754 -2.24517e-08 4.84341e-08)
(0.000820132 2.26201e-08 5.2132e-08)
(0.000818525 7.93542e-08 5.96901e-08)
(0.000816792 4.8771e-07 5.31283e-08)
(0.000815295 4.98667e-07 -3.85109e-09)
(0.000814259 4.60934e-07 1.04212e-07)
(0.00081286 1.45792e-07 -4.00231e-08)
(0.000811128 2.80331e-08 6.55274e-08)
(0.000809547 2.20122e-08 2.12422e-08)
(0.000808024 -1.28233e-08 1.19391e-07)
(0.00080652 1.71321e-08 5.09376e-08)
(0.000805027 1.36936e-08 4.17166e-08)
(0.000803492 3.39113e-08 5.16433e-08)
(0.00080205 -2.20342e-07 4.70925e-09)
(0.000800423 -6.81086e-09 1.71668e-08)
(0.00079888 5.90408e-09 5.31e-08)
(0.000797441 -5.89947e-08 7.05159e-08)
(0.000795906 -5.33375e-08 4.34394e-08)
(0.000794519 -7.03785e-08 5.82836e-08)
(0.000792966 -6.09115e-08 1.17992e-07)
(0.000791497 -8.15947e-08 4.89354e-08)
(0.000790111 -1.62461e-07 -9.15287e-08)
(0.000788727 -1.42173e-07 5.22598e-09)
(0.000787335 -9.886e-08 8.06226e-08)
(0.00078601 -4.42654e-08 8.3997e-08)
(0.000634957 -6.59027e-06 -3.05663e-06)
(0.00097324 -6.38257e-06 1.79238e-06)
(0.000817613 -2.74182e-05 -1.4977e-06)
(0.000930149 -3.29883e-07 4.55934e-06)
(0.000506404 -5.30411e-05 1.22738e-06)
(0.000130545 -6.48666e-05 -5.37398e-06)
(0.000419759 9.48984e-05 4.78382e-05)
(0.00091965 4.39963e-05 -1.66441e-06)
(0.000856182 2.60828e-05 -3.85843e-07)
(0.000859759 1.5639e-05 1.45302e-07)
(0.000852243 9.52729e-06 3.48076e-08)
(0.000848581 5.80739e-06 5.47586e-08)
(0.000845297 3.64477e-06 5.23251e-08)
(0.00084268 2.26154e-06 5.26063e-08)
(0.000840404 1.43304e-06 5.30075e-08)
(0.00083838 9.09108e-07 5.30741e-08)
(0.000836517 5.6067e-07 5.17299e-08)
(0.000834691 3.89737e-07 1.37496e-08)
(0.000832977 1.54544e-07 1.10808e-07)
(0.000831416 1.15116e-07 4.0247e-08)
(0.000829746 8.76614e-08 3.93916e-08)
(0.00082806 7.30214e-09 5.04931e-08)
(0.000826496 4.78353e-08 4.96187e-08)
(0.000824934 -5.20165e-09 5.28518e-08)
(0.000823352 3.93247e-08 3.61837e-08)
(0.000821776 1.00606e-07 3.34097e-08)
(0.00082022 1.12662e-07 5.40644e-08)
(0.000818853 1.86581e-07 1.17757e-07)
(0.000817621 2.00116e-07 3.44728e-08)
(0.000815903 3.58589e-07 1.07151e-07)
(0.000813698 4.64981e-07 -1.70861e-08)
(0.000812068 2.30831e-07 -1.17491e-07)
(0.000810805 1.18767e-07 5.78985e-08)
(0.000809354 8.14545e-08 6.35408e-08)
(0.000807935 3.47664e-08 5.16583e-08)
(0.000806434 7.90714e-09 4.99178e-08)
(0.000804961 -4.18509e-08 4.72367e-08)
(0.000803433 -1.2555e-07 4.65468e-08)
(0.000801917 -1.22917e-07 5.59459e-08)
(0.000800407 -3.68421e-07 8.04616e-08)
(0.00079884 -2.12245e-07 5.44713e-08)
(0.000797433 -2.45574e-07 6.68076e-08)
(0.000796024 -1.39837e-07 3.57886e-08)
(0.000794524 -1.05118e-07 3.63055e-08)
(0.000793039 -1.07051e-07 4.22176e-08)
(0.000791515 -1.16111e-08 5.20251e-08)
(0.000790096 1.2663e-08 4.08221e-08)
(0.000788822 3.25768e-08 5.35723e-08)
(0.000787425 -4.08357e-08 7.05411e-08)
(0.000786033 -7.58026e-08 1.18623e-07)
(0.000654989 -1.10792e-05 -4.04714e-06)
(0.000965813 -1.30404e-05 1.95192e-06)
(0.00081709 -3.5819e-05 -1.93215e-07)
(0.000863678 -1.24333e-05 6.31909e-06)
(0.000258263 -0.000143306 8.54824e-06)
(0.000136653 -2.73547e-05 -7.411e-06)
(0.000376158 2.77937e-05 1.31226e-05)
(0.000870167 4.54039e-05 -2.27305e-06)
(0.00084082 2.97326e-05 -2.73033e-07)
(0.000847701 1.79664e-05 1.06359e-07)
(0.000845207 1.12047e-05 3.84104e-08)
(0.00084417 6.96119e-06 5.4645e-08)
(0.000842599 4.3604e-06 5.12394e-08)
(0.000841003 2.76532e-06 5.34271e-08)
(0.000839347 1.74734e-06 5.23464e-08)
(0.000837715 1.10405e-06 5.25592e-08)
(0.000836085 7.04555e-07 3.44885e-08)
(0.000834399 4.61692e-07 5.05664e-08)
(0.000832874 4.00826e-07 -3.14933e-08)
(0.000831309 2.33839e-07 7.37647e-08)
(0.000829614 1.37811e-07 5.27464e-08)
(0.000828094 1.0445e-07 4.68724e-08)
(0.000826509 4.42524e-08 5.88733e-08)
(0.000824882 3.17762e-08 5.16426e-08)
(0.000823405 3.15364e-08 5.29469e-08)
(0.000821846 -2.349e-08 3.03824e-08)
(0.000820239 -4.41299e-08 7.32136e-09)
(0.000818633 -1.15024e-07 1.05841e-07)
(0.000817005 -3.35822e-07 6.38244e-08)
(0.000815622 -5.63891e-07 1.63615e-07)
(0.000814096 -6.47943e-07 -8.13236e-09)
(0.000812425 -2.89237e-07 5.94624e-08)
(0.00081094 -1.0347e-07 6.0678e-08)
(0.000809442 -1.46765e-07 5.0182e-08)
(0.000807932 -1.10036e-07 6.90395e-08)
(0.000806425 -1.44423e-07 6.55333e-08)
(0.000804861 -1.13195e-07 5.22317e-08)
(0.000803392 -8.74494e-08 6.02309e-08)
(0.000801749 -1.46433e-07 6.49025e-08)
(0.000800313 -1.46464e-07 -1.63253e-08)
(0.000799035 -4.94221e-08 5.42276e-08)
(0.000797532 -5.94965e-08 5.46028e-08)
(0.000796082 3.62212e-08 5.80516e-08)
(0.000794561 1.47306e-08 4.67999e-08)
(0.000793084 2.71484e-08 5.00707e-08)
(0.000791648 1.03166e-07 4.80645e-08)
(0.000790168 1.80563e-07 4.70852e-08)
(0.000788662 1.17826e-07 4.45137e-08)
(0.000787205 4.88977e-08 3.1019e-08)
(0.000786156 -5.73729e-08 5.53089e-08)
(0.000656138 1.11557e-06 -4.12737e-06)
(0.000975241 -1.11079e-05 6.60625e-07)
(0.000839054 -3.20754e-05 -6.00789e-07)
(0.000765885 -1.47029e-05 1.02286e-05)
(0.000292463 -0.000109069 3.32313e-06)
(0.000163732 -4.04403e-05 -2.14575e-06)
(0.0004492 3.15907e-05 -2.22872e-07)
(0.00083893 2.7016e-05 -1.82247e-06)
(0.000821659 1.82078e-05 -1.63708e-07)
(0.000836405 1.23152e-05 1.44094e-07)
(0.000838366 8.10374e-06 5.50408e-08)
(0.00083995 5.19811e-06 6.23675e-08)
(0.000840005 3.32097e-06 5.67237e-08)
(0.000839384 2.37226e-06 5.22692e-08)
(0.000838309 1.46254e-06 5.15225e-08)
(0.000837065 8.9961e-07 -4.31548e-09)
(0.000835706 5.75243e-07 6.74913e-09)
(0.000834306 3.90017e-07 3.96142e-08)
(0.000832689 2.79392e-07 4.71659e-08)
(0.000831086 4.96075e-08 2.80254e-09)
(0.000829583 -2.64038e-08 5.26164e-08)
(0.000827943 5.9471e-08 4.67933e-08)
(0.000826406 -9.68462e-09 4.39316e-08)
(0.000824918 5.36374e-08 5.462e-08)
(0.000823284 6.57911e-09 8.85342e-08)
(0.000821682 -1.28447e-07 1.10911e-08)
(0.000820107 -1.31984e-07 6.43717e-08)
(0.00081849 -1.2192e-07 1.05204e-07)
(0.000817062 -1.18327e-07 1.68114e-07)
(0.000815517 -8.67607e-08 8.47841e-08)
(0.000814045 -3.48436e-07 -3.27863e-07)
(0.000812751 -1.58953e-07 4.31769e-08)
(0.000810984 -9.14373e-08 1.20485e-07)
(0.000809346 2.57597e-08 7.3256e-08)
(0.000807939 4.64335e-08 7.72956e-08)
(0.000806432 -1.08568e-08 4.12044e-08)
(0.000805033 -2.02249e-08 1.84528e-08)
(0.000803393 4.70933e-08 3.72804e-08)
(0.000801845 1.55401e-07 -1.54971e-08)
(0.000800529 2.40972e-07 9.38163e-09)
(0.000798949 1.65802e-07 7.32143e-08)
(0.00079754 2.07173e-07 1.96866e-07)
(0.000796117 1.10499e-07 1.98903e-08)
(0.000794512 5.08333e-08 6.35211e-08)
(0.000793148 4.11585e-08 5.11834e-08)
(0.000791706 -3.4461e-09 3.7197e-08)
(0.000790112 3.60842e-08 5.91427e-08)
(0.000788656 1.35006e-07 5.9671e-08)
(0.000787207 1.88208e-07 4.29942e-08)
(0.000786043 1.64274e-07 9.14035e-08)
(0.00065654 4.18797e-07 -3.55298e-06)
(0.000949628 1.99981e-06 1.68337e-06)
(0.000811146 6.19883e-06 -2.36292e-06)
(0.000873417 2.92146e-06 -3.15683e-06)
(0.000497674 2.60114e-05 6.12404e-06)
(0.00201469 -0.000201308 4.03215e-05)
(0.00049533 -8.30983e-06 -7.999e-07)
(0.00085526 4.00825e-06 -1.95273e-06)
(0.000822152 4.3541e-06 -3.05564e-07)
(0.000834943 3.91583e-06 1.13597e-07)
(0.000836226 2.88917e-06 1.53185e-07)
(0.000838137 2.09581e-06 -2.04912e-07)
(0.000839031 1.40782e-06 7.81621e-08)
(0.000838656 6.28914e-07 3.11913e-08)
(0.000837491 4.51279e-07 4.8628e-08)
(0.000836597 3.18203e-07 1.17139e-07)
(0.000835442 2.29815e-07 5.37175e-08)
(0.000834025 1.41992e-07 5.40511e-08)
(0.000832446 1.67115e-07 3.94575e-08)
(0.000830926 2.1314e-07 3.41144e-09)
(0.000829627 2.3595e-07 -5.75296e-08)
(0.000828115 1.27329e-07 4.36481e-08)
(0.000826502 1.76866e-07 5.40951e-08)
(0.000824902 1.41506e-07 3.95695e-08)
(0.000823177 1.2131e-07 3.52468e-08)
(0.000821673 7.75821e-08 5.21373e-08)
(0.000820248 3.30705e-08 8.08302e-08)
(0.000818652 8.71062e-08 5.76143e-08)
(0.00081705 6.51127e-08 2.60444e-08)
(0.000815337 1.47667e-08 5.10597e-08)
(0.000814008 -2.1018e-07 1.24663e-07)
(0.000812747 -5.78736e-08 5.5075e-08)
(0.000811171 -6.44106e-08 -3.68544e-09)
(0.000809613 1.45834e-07 2.90344e-08)
(0.000807886 1.12614e-07 1.02844e-07)
(0.000806341 2.04798e-07 2.20981e-08)
(0.000804932 2.18212e-07 5.24459e-08)
(0.00080361 1.69366e-07 4.74462e-08)
(0.000801988 5.55303e-07 5.79524e-08)
(0.000800324 2.08656e-07 3.69001e-08)
(0.00079899 1.05717e-07 4.96434e-08)
(0.000797461 1.35218e-07 4.17143e-08)
(0.000795886 1.29233e-08 4.67144e-08)
(0.000794474 3.32856e-08 5.32734e-08)
(0.000793016 3.36422e-08 5.63662e-08)
(0.000791641 -1.11766e-07 1.9769e-07)
(0.000790339 -1.45924e-07 5.84912e-08)
(0.00078885 -4.78967e-08 4.51622e-08)
(0.000787235 -1.78865e-08 1.02896e-08)
(0.000785715 3.9527e-08 6.80292e-08)
(0.00109728 1.86105e-06 4.63638e-07)
(0.00158992 -4.19976e-07 3.86401e-07)
(0.00137221 4.56316e-05 3.35506e-06)
(0.00151213 3.69412e-06 2.41202e-06)
(0.00150831 -0.000100035 1.04395e-05)
(0.00084303 1.34362e-05 -7.85899e-06)
(0.00150269 8.55715e-06 -3.38721e-08)
(0.00142547 8.12602e-07 3.5297e-07)
(0.00136908 -3.03569e-06 3.43077e-07)
(0.00139077 -3.67936e-06 3.47672e-07)
(0.00139338 -3.03987e-06 3.29717e-07)
(0.00139675 -2.0769e-06 3.82884e-07)
(0.00139694 -1.42449e-06 3.64097e-07)
(0.00139697 -1.42399e-06 2.86535e-07)
(0.00139649 -8.47627e-07 3.13e-07)
(0.00139462 -5.04005e-07 3.31011e-07)
(0.00139245 -3.02333e-07 3.48686e-07)
(0.00139037 -2.46469e-07 3.40622e-07)
(0.00138798 2.3247e-08 2.67526e-07)
(0.00138531 2.05514e-07 3.98468e-07)
(0.00138245 3.88812e-07 3.23614e-07)
(0.00137975 1.95058e-07 3.43308e-07)
(0.00137734 4.62425e-07 3.40427e-07)
(0.00137476 3.02384e-07 2.10111e-07)
(0.00137207 1.58263e-07 3.25768e-07)
(0.00136932 2.59514e-07 2.90682e-07)
(0.00136684 3.53782e-07 3.60687e-07)
(0.00136417 3.07442e-07 3.37851e-07)
(0.00136164 4.66309e-07 4.06094e-07)
(0.00135875 5.86683e-07 3.73275e-07)
(0.00135662 1.60769e-06 3.46837e-07)
(0.00135483 9.77317e-07 4.0992e-07)
(0.00135211 6.84698e-07 3.06131e-07)
(0.00134936 1.45429e-07 3.40838e-07)
(0.00134676 -1.7133e-09 3.27339e-07)
(0.00134434 1.45719e-07 3.45417e-07)
(0.00134162 -7.24377e-09 3.30125e-07)
(0.00133959 -2.22186e-07 3.80443e-07)
(0.00133648 -9.75533e-07 3.48388e-07)
(0.00133331 -4.55222e-07 2.18872e-07)
(0.00133139 -2.77757e-07 3.16451e-07)
(0.00132901 -3.10086e-07 2.78436e-07)
(0.00132664 -2.87699e-07 3.20104e-07)
(0.00132426 -1.40455e-07 3.56413e-07)
(0.00132169 -6.92762e-08 3.36561e-07)
(0.00131918 3.96179e-08 5.35671e-07)
(0.00131701 -2.74102e-08 3.29457e-07)
(0.00131473 -2.61452e-07 3.68042e-07)
(0.00131216 -2.19424e-07 3.21484e-07)
(0.00130992 -1.79233e-07 3.26908e-07)
(0.00108807 9.65821e-07 -6.94611e-07)
(0.00159839 -1.17806e-05 2.09228e-07)
(0.00134043 1.08275e-05 1.64173e-06)
(0.00143449 -3.09083e-05 2.51649e-06)
(0.00163776 -9.28793e-05 -2.93937e-05)
(0.00152016 -0.000172671 -2.15518e-05)
(0.00129826 2.806e-05 -1.03128e-07)
(0.00139615 -3.91068e-05 3.50851e-07)
(0.00136477 -2.72401e-05 3.42438e-07)
(0.00139154 -1.87394e-05 3.47984e-07)
(0.00139569 -1.24313e-05 3.48706e-07)
(0.00139892 -8.24137e-06 3.49591e-07)
(0.00139919 -5.34069e-06 3.49832e-07)
(0.00139846 -3.05257e-06 3.49344e-07)
(0.00139702 -2.03157e-06 3.49257e-07)
(0.00139504 -1.34458e-06 5.08996e-07)
(0.00139274 -9.35003e-07 3.36786e-07)
(0.00139045 -6.5111e-07 1.39929e-07)
(0.00138794 -9.48841e-07 3.81364e-07)
(0.0013853 -6.12697e-07 3.68285e-07)
(0.00138271 -5.51416e-07 3.13073e-07)
(0.0013803 -2.96851e-07 3.29291e-07)
(0.00137763 -3.66805e-07 1.07312e-07)
(0.00137447 -4.31675e-07 1.26051e-07)
(0.00137196 -4.15345e-07 3.45254e-07)
(0.00136973 -1.77284e-07 3.87951e-07)
(0.00136713 1.67232e-07 3.10173e-07)
(0.00136454 2.57712e-07 3.40354e-07)
(0.0013621 9.46621e-07 2.72381e-07)
(0.00136036 9.06084e-07 3.59407e-07)
(0.00135715 1.23914e-06 3.03633e-07)
(0.00135343 1.00103e-06 4.08407e-07)
(0.00135096 1.9235e-07 4.10355e-07)
(0.00134851 -2.90062e-08 3.75467e-07)
(0.00134647 -1.20759e-07 3.34097e-07)
(0.00134388 -5.56298e-07 3.34688e-07)
(0.00134113 -5.3331e-07 2.77515e-07)
(0.0013382 -5.88825e-07 3.68834e-07)
(0.00133642 -1.08215e-06 2.99779e-07)
(0.00133473 -4.91724e-07 3.71511e-07)
(0.00133179 -2.52492e-07 3.79317e-07)
(0.00132909 -1.89331e-07 3.02402e-07)
(0.00132668 -9.30746e-08 3.49877e-07)
(0.00132439 -6.37188e-08 3.74103e-07)
(0.00132196 -1.02333e-08 3.11159e-07)
(0.0013195 1.55988e-07 2.97339e-07)
(0.00131692 2.11005e-07 3.87257e-07)
(0.00131455 6.25779e-08 3.02619e-07)
(0.00131214 -6.8509e-08 2.86411e-07)
(0.00130998 -7.38811e-08 3.28431e-07)
(0.00108424 2.4272e-05 1.35797e-06)
(0.00159586 1.2771e-05 2.16425e-06)
(0.0013254 5.57219e-05 -1.82999e-06)
(0.00149292 4.53374e-05 5.75827e-06)
(0.00138902 1.51696e-05 4.22816e-05)
(0.00107001 0.000299489 -2.08411e-05)
(0.00152032 -0.00015208 6.22311e-06)
(0.00145062 -7.66777e-05 3.64292e-07)
(0.0013949 -5.0044e-05 1.59237e-07)
(0.00140948 -3.02474e-05 3.50023e-07)
(0.00140663 -1.88233e-05 3.51433e-07)
(0.0014057 -1.17014e-05 3.51358e-07)
(0.00140348 -7.29079e-06 3.50595e-07)
(0.00140114 -4.49869e-06 3.50362e-07)
(0.00139865 -2.8167e-06 3.49709e-07)
(0.001396 -1.76715e-06 3.57117e-07)
(0.00139333 -1.12989e-06 3.42758e-07)
(0.00139036 -6.52563e-07 5.54905e-07)
(0.00138804 -4.38104e-07 3.6826e-07)
(0.00138581 -4.0834e-07 3.48999e-07)
(0.00138285 -4.84526e-07 3.81065e-07)
(0.00137998 -3.74124e-07 3.44457e-07)
(0.00137718 -6.34408e-07 3.35164e-07)
(0.0013747 -4.12577e-07 5.84123e-07)
(0.00137239 8.0555e-08 2.68192e-07)
(0.00137005 9.86024e-08 3.20199e-07)
(0.00136738 -1.59869e-08 2.56745e-07)
(0.00136514 7.03913e-08 3.366e-07)
(0.00136244 1.01245e-07 4.00851e-07)
(0.0013591 -6.0303e-07 3.63562e-07)
(0.00135673 -1.34011e-06 2.15832e-07)
(0.00135351 -1.34942e-06 2.7446e-07)
(0.00135082 -9.05754e-07 2.90836e-07)
(0.00134896 -3.9995e-07 3.31614e-07)
(0.0013461 -1.70794e-07 3.49524e-07)
(0.00134383 -1.1166e-07 3.33704e-07)
(0.00134159 -1.60406e-08 3.22974e-07)
(0.00133891 3.16694e-08 3.02756e-07)
(0.00133661 2.40045e-07 3.3902e-07)
(0.00133435 2.02844e-07 3.35104e-07)
(0.00133177 1.08388e-07 3.27764e-07)
(0.00132921 7.22411e-08 3.11312e-07)
(0.00132679 1.7529e-07 4.12773e-07)
(0.00132437 1.70265e-08 1.95202e-07)
(0.00132197 -4.28677e-08 3.04124e-07)
(0.00131945 -2.10967e-08 3.02021e-07)
(0.0013169 9.44114e-08 3.62874e-07)
(0.00131438 2.38866e-07 3.07733e-07)
(0.001312 7.94826e-08 3.26292e-07)
(0.0013101 4.85243e-09 3.52969e-07)
(0.00108048 2.44816e-05 -1.36932e-07)
(0.00162821 1.0343e-05 8.2423e-07)
(0.00136069 6.28384e-05 6.3269e-07)
(0.00154686 -1.22966e-06 2.47132e-06)
(0.00163988 0.000247349 -1.58394e-05)
(0.00105429 0.000655603 6.41737e-05)
(0.00106939 -0.00022404 5.56549e-05)
(0.00153343 -8.03139e-05 4.01709e-07)
(0.00142346 -4.69245e-05 3.54358e-07)
(0.0014309 -2.84709e-05 8.94161e-08)
(0.00141907 -1.71948e-05 3.53262e-07)
(0.00141346 -1.05427e-05 3.53141e-07)
(0.00140827 -6.33682e-06 3.50695e-07)
(0.0014041 -3.91181e-06 3.51117e-07)
(0.00140047 -2.36719e-06 3.50006e-07)
(0.00139717 -1.4738e-06 3.49184e-07)
(0.00139415 -9.32374e-07 3.48551e-07)
(0.00139132 -5.64654e-07 3.47283e-07)
(0.00138825 -1.5884e-07 3.3875e-07)
(0.00138525 -3.00123e-07 3.67987e-07)
(0.00138276 -2.40917e-07 2.77697e-07)
(0.00138012 -1.97404e-07 3.47026e-07)
(0.00137759 1.58711e-08 3.47446e-07)
(0.00137536 1.13948e-07 3.12784e-07)
(0.0013726 1.9265e-07 4.03406e-07)
(0.00136961 1.43096e-07 3.54668e-08)
(0.00136709 -1.65134e-07 3.12147e-07)
(0.00136469 -3.06215e-07 2.99813e-07)
(0.00136126 -1.22547e-06 5.90366e-07)
(0.00135856 -8.1316e-07 -6.90655e-08)
(0.00135623 -6.1546e-07 2.49081e-07)
(0.00135398 -6.2855e-07 4.87803e-07)
(0.00135216 5.04711e-08 4.3742e-07)
(0.00134944 -3.37792e-08 3.27934e-07)
(0.00134683 7.17071e-08 3.5924e-07)
(0.00134408 3.12395e-07 3.79783e-07)
(0.00134131 1.93562e-07 3.52407e-07)
(0.00133852 2.73549e-07 3.65028e-07)
(0.00133663 6.83021e-07 3.36145e-07)
(0.00133456 3.36367e-07 3.08229e-07)
(0.00133162 9.05339e-08 3.60749e-07)
(0.00132917 9.9244e-08 4.02723e-07)
(0.00132661 6.17403e-08 3.93007e-07)
(0.00132412 7.41369e-08 2.5846e-07)
(0.00132191 -5.15152e-08 3.03531e-07)
(0.00131967 -7.81201e-08 3.30425e-07)
(0.00131724 -4.41907e-08 3.62197e-07)
(0.00131453 -3.11825e-08 2.60737e-07)
(0.00131185 1.02192e-07 3.29848e-07)
(0.00130988 1.53337e-07 3.68536e-07)
(0.00107758 8.74175e-06 7.52302e-07)
(0.00163882 -1.40388e-06 7.71531e-07)
(0.00132915 2.86825e-05 1.93472e-06)
(0.00161634 -2.09559e-05 5.96104e-06)
(0.00100191 9.2749e-05 3.20692e-05)
(0.00188793 0.000604065 -0.000123388)
(0.0015884 0.000299497 8.95139e-05)
(0.00154984 -4.20512e-05 3.68926e-07)
(0.0014598 -2.10302e-05 3.64721e-07)
(0.00144695 -1.28399e-05 3.01654e-07)
(0.00142923 -7.63649e-06 3.22023e-07)
(0.00141939 -4.6252e-06 3.8888e-07)
(0.00141184 -2.96282e-06 -1.25061e-07)
(0.00140615 -1.79347e-06 3.48702e-07)
(0.00140172 -1.16557e-06 3.49743e-07)
(0.00139781 -7.4625e-07 3.11183e-07)
(0.00139448 -4.56395e-07 3.48145e-07)
(0.00139134 -3.90389e-07 3.45979e-07)
(0.00138837 -2.89538e-07 3.87048e-07)
(0.00138571 -2.19073e-08 3.04098e-07)
(0.00138298 6.07391e-08 2.93643e-07)
(0.00138031 1.29008e-07 4.22413e-07)
(0.00137756 1.75687e-07 3.69474e-07)
(0.00137492 1.05731e-07 5.44828e-07)
(0.00137242 -2.5293e-07 3.91773e-07)
(0.0013696 -2.47044e-07 3.39932e-07)
(0.00136682 -2.60143e-07 2.80596e-07)
(0.00136382 -4.41858e-07 3.61002e-07)
(0.00136182 -6.58274e-07 7.3931e-08)
(0.00135987 -4.09791e-07 4.0719e-07)
(0.00135697 -4.71332e-07 4.37271e-07)
(0.00135435 2.45848e-07 3.30664e-07)
(0.00135156 1.65643e-07 3.03124e-07)
(0.00134899 5.7623e-08 3.39937e-07)
(0.00134653 -9.66447e-09 3.13241e-07)
(0.00134398 -5.47129e-08 3.39667e-07)
(0.00134154 1.19776e-07 7.58239e-07)
(0.00133952 2.95934e-07 3.22475e-07)
(0.00133669 5.97682e-07 2.63819e-07)
(0.00133361 3.69914e-07 3.29831e-07)
(0.00133147 1.89974e-07 3.35828e-07)
(0.00132917 2.51367e-07 1.68323e-07)
(0.00132676 1.08565e-07 3.25947e-07)
(0.00132423 1.91844e-07 2.66416e-07)
(0.00132178 2.24289e-07 7.99406e-08)
(0.00131946 -1.51949e-08 3.2715e-07)
(0.00131696 -1.89343e-07 2.3883e-07)
(0.00131456 -3.19343e-07 2.38755e-07)
(0.00131222 -1.14979e-07 3.79438e-07)
(0.00130978 4.29049e-08 3.31874e-07)
(0.0010801 4.33801e-06 -9.38474e-07)
(0.00164841 1.30093e-05 7.81597e-07)
(0.00133783 2.95309e-05 -1.40975e-06)
(0.00158252 5.53791e-05 2.3449e-06)
(0.00133688 -0.000170039 4.19367e-05)
(0.000834623 -0.000268657 7.38724e-05)
(0.00118386 6.35969e-05 5.54023e-05)
(0.00155193 3.57265e-05 3.86396e-07)
(0.00146115 1.70816e-05 3.64673e-07)
(0.00144778 1.05514e-05 3.58058e-07)
(0.00142943 6.00652e-06 2.5932e-07)
(0.00141935 3.60221e-06 1.48608e-07)
(0.00141184 2.00136e-06 3.05811e-07)
(0.00140637 1.23733e-06 3.51544e-07)
(0.00140179 6.921e-07 3.51266e-07)
(0.00139806 4.28183e-07 3.69746e-07)
(0.0013946 3.071e-07 3.48723e-07)