/*--------------------------------*- C++ -*----------------------------------*\
| =========                 |                                                 |
| \\      /  F ield         | OpenFOAM: The Open Source CFD Toolbox           |
|  \\    /   O peration     | Version:  5.0                                   |
|   \\  /    A nd           | Web:      www.OpenFOAM.org                      |
|    \\/     M anipulation  |                                                 |
\*---------------------------------------------------------------------------*/
FoamFile
{
    version     2.0;
    format      ascii;
    class       volVectorField;
    location    "0.4";
    object      U_0;
}
// * * * * * * * * * * * * * * * * * * * * * * * * * * * * * * * * * * * * * //

dimensions      [0 1 -1 0 0 0 0];

internalField   nonuniform List<vector> 
4440
(
(0.000651713 -3.09777e-06 -3.19287e-06)
(0.000959525 -4.04103e-06 1.90709e-06)
(0.000816717 3.14724e-05 5.27273e-07)
(0.000799341 4.79751e-06 2.95596e-06)
(0.00086648 -5.67006e-05 -4.96894e-06)
(0.000923575 -1.34458e-05 1.23442e-05)
(0.000501878 2.12666e-06 -6.23788e-07)
(0.000855266 5.40915e-08 -1.94412e-06)
(0.000821563 -2.05297e-06 -3.06584e-07)
(0.000834596 -2.36566e-06 1.08993e-07)
(0.000836059 -1.94639e-06 2.0715e-08)
(0.00083809 -1.37763e-06 9.81875e-08)
(0.000838537 -9.50502e-07 5.44534e-08)
(0.000838398 -6.61472e-07 4.6284e-08)
(0.000837721 -4.06456e-07 4.18381e-08)
(0.000836717 -2.54479e-07 -1.11309e-08)
(0.000835515 -1.42704e-07 5.14489e-08)
(0.000834242 -4.35058e-08 7.78121e-08)
(0.000832765 -1.21421e-08 5.18376e-08)
(0.000831235 7.47021e-08 -1.20304e-07)
(0.000829597 1.95016e-07 1.52118e-08)
(0.000827882 1.26642e-07 6.07182e-08)
(0.00082635 3.39478e-07 8.92494e-08)
(0.000824811 1.43652e-07 5.75877e-08)
(0.000823229 1.6307e-07 4.50016e-08)
(0.000821609 2.15881e-07 2.52622e-08)
(0.000820095 2.28228e-07 4.01128e-08)
(0.000818406 1.76629e-07 4.87377e-08)
(0.000817094 3.64279e-07 4.33985e-08)
(0.000815712 3.14929e-07 6.53197e-08)
(0.000814009 3.49953e-07 1.14941e-07)
(0.000812706 4.66187e-07 1.20752e-07)
(0.00081123 3.2878e-07 3.47776e-08)
(0.000809446 9.91726e-08 4.00895e-08)
(0.000807887 -1.62031e-08 4.76245e-08)
(0.000806497 6.52212e-08 4.98964e-08)
(0.000804949 4.31229e-09 -1.70113e-08)
(0.000803557 -7.68672e-08 6.49207e-08)
(0.000801952 -4.09398e-07 5.22511e-08)
(0.000800251 -4.17377e-07 6.23214e-08)
(0.000798871 -2.24443e-07 6.86257e-08)
(0.000797489 -2.02598e-07 8.22188e-09)
(0.000796032 -2.55291e-07 4.42762e-08)
(0.000794524 -1.74383e-07 6.06775e-08)
(0.000792936 -1.11345e-07 6.08567e-08)
(0.000791496 -6.2604e-08 6.70052e-08)
(0.000790235 -6.62083e-08 5.87454e-08)
(0.00078884 -1.79579e-07 5.99074e-08)
(0.000787346 -1.60538e-07 4.44192e-08)
(0.000786021 -1.08973e-07 8.1418e-08)
(0.00065315 4.49904e-06 -3.98705e-06)
(0.000973494 -6.20435e-06 1.3712e-06)
(0.000809148 -8.65447e-06 -7.60632e-07)
(0.000872001 -3.06251e-05 2.31115e-06)
(0.000597545 -3.95973e-05 1.32004e-05)
(0.00112447 -9.90072e-05 9.60422e-05)
(0.000433704 8.22538e-06 -1.06365e-06)
(0.000837289 -2.37827e-05 -1.76929e-06)
(0.000819164 -1.64017e-05 -1.80997e-07)
(0.000835132 -1.13003e-05 1.47216e-07)
(0.000837545 -7.48445e-06 5.32306e-08)
(0.000839459 -4.92188e-06 6.10154e-08)
(0.000839651 -3.17517e-06 5.51922e-08)
(0.000839188 -2.02613e-06 5.59044e-08)
(0.000838255 -1.30016e-06 5.28978e-08)
(0.000837059 -8.27605e-07 9.59854e-08)
(0.000835743 -5.75625e-07 4.74643e-08)
(0.000834225 -4.57984e-07 7.51044e-08)
(0.000832678 -4.55183e-07 1.13531e-08)
(0.000831219 -3.0795e-07 6.09095e-08)
(0.000829682 -3.03523e-07 1.99296e-07)
(0.000828378 -2.66838e-07 1.44468e-07)
(0.00082655 -4.15553e-07 2.75109e-08)
(0.000824613 -2.23093e-07 1.15686e-08)
(0.000823273 -1.31845e-07 4.16207e-08)
(0.000821791 -3.86327e-09 7.98859e-08)
(0.000820214 1.13315e-07 9.50368e-08)
(0.000818832 9.13183e-08 5.21261e-08)
(0.000817301 8.14594e-07 1.14985e-07)
(0.000815602 7.51208e-07 5.48785e-08)
(0.000814079 4.91926e-07 3.55735e-08)
(0.000812307 3.50114e-07 -3.85296e-08)
(0.00081063 7.55628e-08 6.31794e-08)
(0.000809266 -5.77316e-08 -8.61975e-08)
(0.000807965 -4.57436e-08 3.87626e-08)
(0.000806416 -2.07071e-07 4.84754e-08)
(0.00080478 -1.82157e-07 4.88044e-08)
(0.000803211 -1.6309e-07 9.5153e-09)
(0.000801777 -2.43747e-07 6.0272e-08)
(0.000800522 -4.01406e-07 1.003e-07)
(0.000799087 -1.38021e-07 4.31837e-08)
(0.000797486 -1.20866e-07 3.6284e-08)
(0.000795997 -1.13209e-07 4.45812e-08)
(0.000794631 -8.37402e-08 6.68525e-08)
(0.000793181 -2.88735e-08 5.85168e-08)
(0.000791689 1.06682e-07 4.4418e-08)
(0.000790147 1.0961e-07 4.24477e-08)
(0.000788729 4.24151e-08 3.3702e-08)
(0.000787321 -7.81502e-09 2.0097e-08)
(0.000786085 -3.53454e-08 7.06903e-08)
(0.00064495 1.28567e-05 -3.15015e-06)
(0.000946524 6.72524e-06 2.51267e-06)
(0.000782274 2.7317e-05 -5.12499e-07)
(0.000792927 1.14778e-05 7.30121e-06)
(0.000316973 6.7008e-05 -1.3671e-05)
(0.000240376 -5.60663e-05 4.50811e-06)
(0.00048014 -5.43214e-05 1.25903e-06)
(0.000867264 -4.54521e-05 -2.1562e-06)
(0.00083738 -2.98316e-05 -2.89428e-07)
(0.00084586 -1.80685e-05 1.10929e-07)
(0.000844111 -1.12542e-05 4.01439e-08)
(0.000843528 -6.99724e-06 5.61179e-08)
(0.00084219 -4.36676e-06 5.31721e-08)
(0.000840764 -2.73163e-06 5.29665e-08)
(0.000839232 -1.72474e-06 5.27134e-08)
(0.000837632 -1.09506e-06 5.46317e-08)
(0.000835983 -7.26153e-07 4.74455e-08)
(0.000834398 -5.14998e-07 4.06887e-08)
(0.000832956 -3.21134e-07 7.25416e-08)
(0.000831428 -2.42193e-07 -2.09008e-08)
(0.000829651 -2.73272e-07 -7.11284e-08)
(0.000827744 -2.49534e-07 5.08064e-08)
(0.000826407 -5.21252e-07 3.25442e-08)
(0.000825167 -2.65294e-07 2.20058e-07)
(0.000823504 -1.19888e-07 7.7044e-08)
(0.000821916 -1.51629e-07 5.08463e-08)
(0.000820213 -7.45274e-08 6.59612e-08)
(0.000819279 4.85123e-08 4.94557e-08)
(0.000817914 -3.87037e-07 1.28654e-07)
(0.000815301 -7.8219e-07 1.3082e-07)
(0.000813502 -5.54096e-07 1.04927e-08)
(0.000812182 -5.05135e-07 -2.16434e-07)
(0.000810718 -2.38426e-07 6.17345e-08)
(0.000809294 -8.15825e-08 3.7002e-08)
(0.000807702 1.10201e-08 5.45986e-08)
(0.000806329 -8.74217e-09 7.14231e-08)
(0.000805008 -2.51719e-09 4.02045e-08)
(0.000803483 1.70688e-08 4.25234e-08)
(0.000801657 1.58103e-07 5.71023e-08)
(0.000800387 3.24992e-07 6.9135e-08)
(0.000799224 1.74371e-07 3.58821e-08)
(0.000797521 8.68003e-08 1.82497e-07)
(0.000796079 1.13587e-07 6.80685e-08)
(0.00079463 2.44804e-08 5.92664e-08)
(0.000793174 -8.85413e-09 1.73582e-07)
(0.000791669 8.72532e-09 4.83656e-08)
(0.000790155 8.61633e-08 5.02357e-08)
(0.000788693 1.70212e-07 3.69125e-08)
(0.000787251 9.88727e-08 5.13048e-08)
(0.000786074 2.97938e-08 9.20408e-08)
(0.00065174 9.88799e-06 -4.24513e-06)
(0.000989081 -2.52261e-06 1.99951e-06)
(0.000817162 3.73524e-05 -9.3362e-08)
(0.000929526 -1.65814e-05 3.35976e-06)
(0.000571466 8.64035e-05 7.39601e-06)
(0.000260925 0.00011668 2.24115e-05)
(0.000486881 -7.10775e-05 3.37916e-05)
(0.000918842 -4.78037e-05 -1.57706e-06)
(0.00085378 -2.81139e-05 -4.05105e-07)
(0.000858551 -1.70226e-05 1.85192e-07)
(0.000851506 -1.02707e-05 3.62026e-08)
(0.000848144 -6.29634e-06 5.59463e-08)
(0.00084503 -3.79106e-06 4.98874e-08)
(0.000842519 -2.35443e-06 5.09975e-08)
(0.000840319 -1.43356e-06 5.1068e-08)
(0.000838319 -8.91254e-07 5.12559e-08)
(0.000836475 -5.65182e-07 5.19992e-08)
(0.000834736 -3.04372e-07 3.76389e-08)
(0.000833022 -1.87193e-07 -1.12724e-08)
(0.000831282 -2.38695e-07 5.37224e-08)
(0.000829675 -2.163e-07 -4.0368e-10)
(0.000828071 -1.38495e-07 5.51685e-08)
(0.000826533 1.00544e-07 7.4637e-08)
(0.000825117 -2.78243e-08 5.39458e-08)
(0.000823416 -1.79021e-08 -5.33309e-09)
(0.000821848 -2.48123e-08 4.25337e-08)
(0.000820464 -1.16666e-07 4.09846e-08)
(0.000818442 -8.46735e-08 7.38341e-08)
(0.000816265 -7.58301e-07 4.01359e-08)
(0.000815397 -7.87911e-07 -3.01081e-08)
(0.00081443 -4.53906e-07 6.26408e-08)
(0.000812706 -2.83827e-07 5.09865e-08)
(0.000811163 -7.39664e-08 3.9969e-08)
(0.000809579 -1.96714e-08 4.80302e-08)
(0.000808057 4.2206e-08 3.64912e-09)
(0.0008064 1.50474e-07 1.51753e-08)
(0.000804814 1.00312e-07 7.23279e-08)
(0.000803412 2.63257e-08 5.98193e-08)
(0.000802162 1.23384e-07 6.01577e-08)
(0.000800541 4.7066e-07 5.35315e-08)
(0.000798788 1.35862e-07 4.88385e-08)
(0.00079741 8.01166e-08 4.33814e-08)
(0.000795919 7.84874e-08 7.86205e-08)
(0.000794478 7.76571e-08 1.55798e-08)
(0.000793162 2.08299e-08 6.28665e-08)
(0.000791808 1.79243e-09 5.14419e-08)
(0.000790349 2.20303e-08 7.25636e-08)
(0.000788745 3.03715e-08 3.95174e-08)
(0.000787146 7.31058e-08 4.91398e-08)
(0.000785922 8.59041e-08 9.49248e-08)
(0.000638958 3.07205e-06 -3.27208e-06)
(0.000977082 -3.73343e-06 1.45134e-06)
(0.00078759 1.25215e-05 -8.1032e-08)
(0.000825088 -2.37641e-05 7.11493e-06)
(0.000279263 6.47247e-05 -1.35377e-06)
(5.32851e-06 0.000169296 -8.49091e-06)
(0.000435274 -7.91641e-05 6.17474e-05)
(0.000930814 -2.55005e-05 -2.49013e-06)
(0.000875971 -1.26475e-05 -2.46612e-07)
(0.000868351 -7.62893e-06 5.3235e-08)
(0.000857632 -4.51889e-06 1.27337e-08)
(0.000851696 -2.72029e-06 8.23575e-08)
(0.00084716 -1.74252e-06 7.55871e-08)
(0.000843736 -1.05622e-06 5.13846e-08)
(0.000841077 -6.88343e-07 4.89391e-08)
(0.000838727 -4.40473e-07 4.68712e-08)
(0.000836722 -2.53887e-07 5.20737e-08)
(0.000834873 -1.65018e-07 4.74116e-08)
(0.00083304 -7.8376e-08 8.27737e-08)
(0.000831393 -2.60548e-09 1.70344e-08)
(0.000829777 4.59942e-09 -1.38417e-08)
(0.000828141 6.03147e-08 1.41659e-07)
(0.000826545 9.00018e-08 5.03754e-08)
(0.000825019 8.96652e-08 1.59096e-08)
(0.000823508 -6.34256e-08 5.72799e-08)
(0.000821792 1.06246e-08 6.84949e-08)
(0.000820139 -9.77157e-08 2.45583e-08)
(0.00081848 -2.16786e-07 4.21151e-08)
(0.00081704 3.02025e-08 -2.94454e-07)
(0.000815688 3.37081e-07 7.22487e-08)
(0.000814136 9.10001e-08 6.8961e-08)
(0.000812659 3.02526e-07 8.1043e-08)
(0.00081105 1.61172e-07 5.59755e-08)
(0.000809439 7.38609e-08 5.25618e-08)
(0.000807914 1.33094e-08 3.9749e-08)
(0.000806401 5.29245e-09 4.93776e-08)
(0.000804852 1.15048e-07 5.45922e-09)
(0.000803511 2.06354e-07 6.92072e-08)
(0.000802211 1.0802e-07 6.4341e-08)
(0.000800401 -4.04991e-08 1.64931e-07)
(0.000798735 1.83099e-08 5.1675e-08)
(0.000797449 8.18758e-08 7.85745e-08)
(0.000796076 6.02671e-08 9.21358e-08)
(0.000794558 1.38388e-07 4.93065e-08)
(0.00079308 1.41316e-07 7.17863e-08)
(0.000791671 1.04894e-08 4.96939e-08)
(0.000790191 -8.53827e-08 4.81161e-08)
(0.000788757 -1.64065e-07 -1.30664e-08)
(0.000787318 -8.55173e-08 4.0204e-08)
(0.000785877 2.45612e-09 8.89135e-08)
(0.00065037 5.37145e-06 -3.9301e-06)
(0.00100015 2.91898e-06 1.18378e-06)
(0.000822889 1.31989e-05 -1.39931e-06)
(0.00100444 3.41807e-05 3.35754e-06)
(0.000278635 -1.44e-05 1.40867e-05)
(0.000484615 5.27488e-05 -9.79558e-06)
(0.000705619 1.33647e-05 4.20279e-05)
(0.000932122 2.22768e-05 -2.5345e-06)
(0.000876744 1.0681e-05 -2.55196e-07)
(0.000868794 6.57306e-06 8.08338e-08)
(0.000857692 3.74031e-06 3.25399e-08)
(0.000851645 2.24462e-06 3.16853e-08)
(0.000847128 1.251e-06 5.54712e-08)
(0.000843849 7.65057e-07 5.09005e-08)
(0.000841096 4.23865e-07 5.31061e-08)
(0.000838866 2.5193e-07 6.46234e-08)
(0.000836823 1.77542e-07 5.17682e-08)
(0.000834957 1.13991e-07 4.65029e-08)
(0.000833226 1.16559e-07 6.32684e-08)
(0.000831386 1.04615e-07 -2.97192e-08)
(0.000829753 9.53518e-08 2.43072e-07)
(0.000828177 8.64303e-08 8.91381e-08)
(0.000826569 7.72253e-08 3.9402e-08)
(0.000824924 9.72918e-08 1.04929e-07)
(0.000823317 3.9588e-08 6.59438e-08)
(0.000821805 -1.14362e-08 4.56289e-08)
(0.00082018 3.23182e-08 5.01121e-08)
(0.000818603 6.80899e-08 5.0978e-08)
(0.000816958 2.96737e-07 5.541e-08)
(0.000815474 3.34876e-07 1.71864e-07)
(0.000814387 2.6124e-07 8.05132e-08)
(0.000812794 3.75505e-08 -8.07987e-09)
(0.000810877 -4.97065e-08 2.09354e-08)
(0.000809395 -2.63678e-08 2.78187e-08)
(0.000807972 1.03935e-08 7.03671e-08)
(0.000806528 -5.12591e-10 4.94437e-08)
(0.000805064 1.11186e-08 4.22709e-08)
(0.000803402 9.61049e-08 2.85712e-08)
(0.000801852 -7.44235e-08 4.79607e-08)
(0.000800428 -1.03965e-07 2.27167e-08)
(0.000798941 -1.7732e-08 5.49545e-08)
(0.000797462 1.98434e-08 7.30666e-08)
(0.000795989 -3.49889e-08 4.55217e-08)
(0.000794579 -5.62887e-08 4.35669e-08)
(0.000793001 -4.30869e-08 1.26125e-07)
(0.000791524 -7.6537e-08 4.91525e-08)
(0.000790131 -1.58883e-07 -9.15636e-08)
(0.000788745 -1.39903e-07 5.23389e-09)
(0.000787353 -9.55226e-08 8.06586e-08)
(0.000786028 -4.18588e-08 8.38387e-08)
(0.000634992 -6.26996e-06 -3.05506e-06)
(0.000973037 -5.89363e-06 1.78293e-06)
(0.000817143 -2.73172e-05 -1.31447e-06)
(0.000930338 4.85625e-07 4.87334e-06)
(0.00050606 -5.31335e-05 1.24284e-06)
(0.000126348 -6.77111e-05 -5.42761e-06)
(0.000419787 9.76039e-05 4.68415e-05)
(0.000918839 4.48377e-05 -1.65136e-06)
(0.000855764 2.64591e-05 -3.83023e-07)
(0.000859607 1.58402e-05 1.47283e-07)
(0.00085218 9.64381e-06 3.5495e-08)
(0.000848561 5.87584e-06 5.53873e-08)
(0.000845296 3.68494e-06 5.27093e-08)
(0.000842694 2.25824e-06 5.24262e-08)
(0.000840431 1.42088e-06 5.28721e-08)
(0.000838416 8.91091e-07 5.28942e-08)
(0.000836548 5.35987e-07 5.23046e-08)
(0.000834796 3.24153e-07 5.0438e-08)
(0.000833027 6.80154e-08 8.91314e-08)
(0.000831365 8.17788e-08 5.48132e-08)
(0.000829754 1.04898e-07 5.01676e-08)
(0.000828118 1.41599e-08 5.01999e-08)
(0.000826558 8.6837e-08 4.90646e-08)
(0.000824971 6.87542e-09 5.24216e-08)
(0.000823371 1.04883e-07 3.99393e-08)
(0.000821783 7.14862e-08 5.66347e-08)
(0.000820238 6.17664e-08 5.49894e-08)
(0.000818809 1.14726e-07 6.28476e-08)
(0.000817371 7.43883e-08 5.80686e-08)
(0.000815641 1.76113e-07 4.74973e-08)
(0.000813764 2.36122e-07 4.25936e-08)
(0.00081227 -1.30957e-07 4.76737e-08)
(0.000810971 -1.56892e-07 5.90488e-08)
(0.000809515 -3.74165e-08 5.44902e-08)
(0.000807947 -7.96242e-09 4.12229e-08)
(0.000806402 -1.45072e-08 5.9644e-08)
(0.000804972 -7.92014e-08 8.12135e-08)
(0.000803405 -2.35706e-07 4.65006e-08)
(0.000801961 -1.59303e-07 4.63687e-08)
(0.000800473 -2.56496e-07 6.11503e-08)
(0.00079889 -1.29963e-07 5.4271e-08)
(0.000797428 -1.38201e-07 6.56266e-08)
(0.000795981 -5.41571e-08 7.97548e-08)
(0.000794548 -7.93463e-08 3.6618e-08)
(0.000793055 -9.10176e-08 -3.99736e-08)
(0.000791527 -3.447e-10 5.12648e-08)
(0.000790113 1.9729e-08 4.08434e-08)
(0.000788838 3.66966e-08 5.35649e-08)
(0.000787443 -3.8749e-08 7.02254e-08)
(0.000786047 -7.55561e-08 7.07439e-08)
(0.000655094 -1.06754e-05 -4.05549e-06)
(0.000965583 -1.26401e-05 1.95636e-06)
(0.000817049 -3.55142e-05 3.30297e-07)
(0.000863533 -1.16181e-05 5.97444e-06)
(0.000257912 -0.000143497 8.72849e-06)
(0.000135735 -2.60272e-05 -6.9271e-06)
(0.00037546 2.86836e-05 1.28088e-05)
(0.000871008 4.52687e-05 -2.22897e-06)
(0.000840298 2.96973e-05 -2.81695e-07)
(0.0008476 1.79733e-05 1.08755e-07)
(0.000845131 1.12248e-05 3.79498e-08)
(0.000844132 6.98416e-06 5.46644e-08)
(0.000842567 4.37206e-06 5.1409e-08)
(0.000840994 2.72846e-06 5.27898e-08)
(0.000839372 1.71849e-06 5.22529e-08)
(0.000837751 1.08509e-06 5.27137e-08)
(0.000836108 6.89132e-07 3.51137e-08)
(0.000834369 4.43858e-07 7.86431e-08)
(0.000832921 3.10118e-07 3.02349e-09)
(0.000831431 1.91297e-07 4.86578e-08)
(0.000829668 1.10015e-07 4.97013e-08)
(0.000828154 1.02797e-07 4.68047e-08)
(0.000826559 4.80746e-08 5.56898e-08)
(0.000824947 4.75391e-09 5.15013e-08)
(0.000823397 -6.48746e-08 5.92053e-08)
(0.000821751 -5.96324e-08 3.23212e-08)
(0.000820234 -4.39809e-08 1.6603e-09)
(0.000818618 -1.30471e-07 1.07364e-07)
(0.000817033 -2.82438e-07 4.23139e-08)
(0.000815674 -4.0341e-07 1.78529e-08)
(0.000814 -3.39127e-07 -6.28738e-09)
(0.000812301 -1.07165e-07 3.69527e-09)
(0.000810993 3.24214e-08 5.74621e-08)
(0.000809581 -1.10467e-07 5.36988e-08)
(0.000808001 -1.56878e-07 5.504e-08)
(0.000806439 -1.42061e-07 5.19386e-08)
(0.000804789 -1.20401e-07 5.26114e-08)
(0.000803303 -1.04817e-07 5.83386e-08)
(0.000801829 -2.7259e-07 7.06208e-08)
(0.000800467 -3.1982e-07 4.25015e-08)
(0.000799091 -1.02511e-07 5.43497e-08)
(0.000797558 -7.49038e-08 4.66194e-08)
(0.000796063 -1.17147e-08 8.34431e-08)
(0.000794533 1.55817e-09 4.69156e-08)
(0.000793101 3.4068e-08 5.00734e-08)
(0.000791663 1.21299e-07 4.8379e-08)
(0.000790178 1.90763e-07 4.70496e-08)
(0.000788673 1.22356e-07 4.44915e-08)
(0.000787218 4.97636e-08 3.10427e-08)
(0.000786171 -6.12793e-08 5.50924e-08)
(0.000656183 1.62179e-06 -4.14159e-06)
(0.000974937 -1.05609e-05 6.53e-07)
(0.000839087 -3.21199e-05 -1.08411e-06)
(0.000766813 -1.43615e-05 1.02526e-05)
(0.000293577 -0.000106262 3.32525e-06)
(0.000163031 -4.0714e-05 -2.22756e-06)
(0.00044919 3.07979e-05 -1.99947e-07)
(0.000838976 2.65094e-05 -1.81379e-06)
(0.000821412 1.80695e-05 -1.77542e-07)
(0.000836321 1.22228e-05 1.44861e-07)
(0.000838322 8.07562e-06 5.43908e-08)
(0.00083992 5.21933e-06 6.2252e-08)
(0.000839929 3.37484e-06 5.60826e-08)
(0.000839347 2.19108e-06 5.43386e-08)
(0.000838358 1.39866e-06 5.29909e-08)
(0.000837118 8.98922e-07 3.46873e-10)
(0.000835739 5.86757e-07 6.82786e-09)
(0.000834317 3.99369e-07 3.79377e-08)
(0.000832708 3.43637e-07 4.83471e-08)
(0.000831113 8.83176e-08 7.82842e-08)
(0.000829642 -3.12415e-08 5.69138e-08)
(0.00082804 4.8418e-08 8.62416e-08)
(0.000826435 4.93472e-09 4.80826e-08)
(0.00082483 2.51016e-08 5.45358e-08)
(0.000823291 -8.46389e-08 8.49077e-08)
(0.00082181 -1.46363e-07 1.1654e-08)
(0.00082015 -1.17751e-07 7.02579e-08)
(0.000818513 -1.23081e-07 1.04203e-07)
(0.000817032 -8.18328e-08 6.67848e-08)
(0.000815574 -4.5933e-08 8.35602e-08)
(0.000814137 -1.22979e-07 1.96018e-08)
(0.000812736 -1.32623e-07 5.45509e-08)
(0.000810968 -9.46333e-08 -6.66808e-09)
(0.000809279 -5.40344e-08 1.00788e-07)
(0.000807908 -1.63979e-10 7.87689e-08)
(0.000806449 -4.72642e-08 4.98485e-08)
(0.00080502 -3.76422e-08 2.3937e-08)
(0.000803216 8.91497e-08 4.34609e-08)
(0.000801694 3.02578e-07 9.26262e-08)
(0.000800686 3.89381e-07 5.79151e-08)
(0.000799197 1.61725e-07 1.13172e-07)
(0.000797541 1.72123e-07 3.57064e-08)
(0.000796077 1.35594e-07 4.4734e-08)
(0.000794605 9.08606e-08 5.91124e-08)
(0.000793204 6.99005e-08 5.02896e-08)
(0.000791722 4.3734e-08 3.58243e-08)
(0.000790113 4.56987e-08 5.92687e-08)
(0.00078866 1.36735e-07 5.96502e-08)
(0.000787214 1.85932e-07 4.30569e-08)
(0.000786061 1.52279e-07 9.15566e-08)
(0.0006567 -8.84117e-07 -3.79448e-06)
(0.00094873 9.75192e-07 1.31523e-06)
(0.000810858 5.507e-06 -2.38089e-06)
(0.000874156 2.66882e-06 -2.98324e-06)
(0.000500397 2.44637e-05 6.07192e-06)
(0.00199253 -0.000200247 4.30359e-05)
(0.000495497 -8.69364e-06 -7.96477e-07)
(0.000855388 3.59825e-06 -1.95412e-06)
(0.000822153 4.14084e-06 -3.07427e-07)
(0.000834979 3.77663e-06 1.13628e-07)
(0.000836292 2.79005e-06 3.9733e-08)
(0.0008382 1.98945e-06 6.90131e-08)
(0.000838745 1.34317e-06 7.32036e-08)
(0.000838501 8.87044e-07 4.89118e-08)
(0.000837742 5.91361e-07 5.85759e-08)
(0.000836726 3.8184e-07 3.31956e-07)
(0.000835477 2.74132e-07 5.58109e-08)
(0.000834061 2.04506e-07 6.64099e-08)
(0.00083253 2.15699e-07 3.99945e-08)
(0.000830961 2.50734e-07 8.21788e-08)
(0.000829618 3.14456e-07 7.65558e-08)
(0.0008282 2.16106e-07 -8.44647e-08)
(0.00082653 1.89709e-07 5.29272e-08)
(0.000824835 1.48872e-07 4.61304e-08)
(0.000823184 1.75034e-07 5.30395e-08)
(0.00082171 9.97441e-08 5.23392e-08)
(0.000820264 1.50137e-08 8.73274e-08)
(0.000818664 5.57358e-08 5.77902e-08)
(0.000817131 -7.05925e-08 3.49129e-08)
(0.000815624 1.05237e-07 5.7988e-08)
(0.000813894 3.9867e-08 1.24462e-07)
(0.000812338 3.32709e-09 4.88671e-08)
(0.000811092 1.56887e-08 -6.19418e-09)
(0.000809698 2.14238e-07 6.07574e-08)
(0.000808008 1.50022e-07 7.69938e-08)
(0.000806392 1.9917e-07 2.12621e-08)
(0.000804959 1.91127e-07 4.9914e-08)
(0.000803727 1.45476e-07 4.79341e-08)
(0.000802201 4.67376e-07 7.8864e-08)
(0.000800288 3.54531e-07 3.0925e-08)
(0.000798817 1.22402e-07 4.76246e-08)
(0.000797523 9.581e-08 5.63483e-08)
(0.000795961 8.14253e-08 4.588e-08)
(0.00079445 6.08135e-08 5.53246e-08)
(0.000793041 1.70624e-08 6.36281e-08)
(0.000791632 -1.53237e-07 3.74813e-08)
(0.000790293 -1.6352e-07 5.74956e-08)
(0.000788847 -5.52393e-08 4.51529e-08)
(0.00078723 -1.95318e-08 1.04962e-08)
(0.000785748 5.25794e-08 7.45762e-08)
(0.00109782 7.52285e-07 8.64459e-07)
(0.00159009 -1.59079e-06 9.65336e-07)
(0.0013734 4.553e-05 3.36346e-06)
(0.00151282 3.05817e-06 2.23333e-06)
(0.00150319 -0.000100445 1.06613e-05)
(0.000844521 1.10757e-05 -7.15029e-06)
(0.00150276 7.75954e-06 -8.76198e-08)
(0.00142553 3.04684e-07 3.63076e-07)
(0.00136917 -3.30147e-06 3.43142e-07)
(0.00139084 -3.86747e-06 3.47649e-07)
(0.00139336 -3.18482e-06 3.29137e-07)
(0.00139676 -2.24713e-06 4.05741e-07)
(0.00139745 -1.55167e-06 2.6659e-07)
(0.00139727 -1.12801e-06 5.40615e-07)
(0.00139623 -6.86469e-07 2.98636e-07)
(0.00139453 -4.50024e-07 4.97648e-08)
(0.0013925 -2.44086e-07 3.4559e-07)
(0.0013904 -1.00664e-07 4.63158e-07)
(0.00138796 1.79163e-08 2.66074e-07)
(0.00138539 1.60074e-07 8.59108e-08)
(0.00138264 3.60946e-07 2.20411e-07)
(0.00137979 2.41844e-07 5.33843e-07)
(0.00137724 5.61718e-07 3.66295e-07)
(0.0013747 2.4947e-07 3.58116e-07)
(0.0013721 2.30342e-07 3.37218e-07)
(0.00136936 3.00273e-07 2.89907e-07)
(0.0013668 3.60154e-07 2.66604e-07)
(0.00136399 3.01835e-07 3.36454e-07)
(0.0013618 6.32829e-07 2.58979e-07)
(0.00135948 5.6107e-07 2.9543e-07)
(0.00135671 7.47251e-07 3.99642e-07)
(0.00135453 8.39198e-07 5.57442e-07)
(0.0013521 4.99083e-07 2.95257e-07)
(0.00134918 1.17747e-07 3.4324e-07)
(0.00134658 -1.64593e-08 3.36112e-07)
(0.00134424 1.95249e-07 3.45036e-07)
(0.00134158 6.83504e-08 2.63291e-07)
(0.00133928 -1.02363e-07 3.72625e-07)
(0.00133656 -6.99279e-07 3.8245e-07)
(0.00133368 -6.44698e-07 3.72048e-07)
(0.00133141 -3.32742e-07 3.51355e-07)
(0.0013291 -3.14162e-07 2.89115e-07)
(0.00132669 -3.66121e-07 3.20153e-07)
(0.00132425 -1.95352e-07 3.56193e-07)
(0.00132164 -1.19861e-07 3.24284e-07)
(0.0013192 -3.39077e-08 3.36986e-07)
(0.00131709 -5.56251e-08 3.2818e-07)
(0.00131476 -2.74446e-07 3.68001e-07)
(0.00131221 -2.32247e-07 3.21477e-07)
(0.00130993 -1.65006e-07 3.23696e-07)
(0.00108835 1.51313e-06 -6.86051e-07)
(0.00159855 -1.14583e-05 -2.38687e-07)
(0.00134138 1.11836e-05 1.63124e-06)
(0.00143518 -3.13003e-05 1.51306e-06)
(0.00163529 -9.39428e-05 -2.95379e-05)
(0.00151323 -0.000157692 -3.006e-05)
(0.00129886 2.50946e-05 -1.25088e-07)
(0.00139579 -3.96065e-05 3.48295e-07)
(0.00136514 -2.73691e-05 3.42403e-07)
(0.00139171 -1.88613e-05 3.48063e-07)
(0.00139581 -1.25044e-05 3.48613e-07)
(0.00139903 -8.23645e-06 3.49716e-07)
(0.00139936 -5.31341e-06 3.49708e-07)
(0.00139861 -3.34361e-06 3.5018e-07)
(0.00139707 -2.15671e-06 3.49239e-07)
(0.00139509 -1.37462e-06 5.10441e-07)
(0.00139289 -9.5565e-07 3.38305e-07)
(0.00139042 -7.42011e-07 4.11596e-07)
(0.00138782 -7.93408e-07 2.76017e-07)
(0.00138534 -5.27142e-07 3.84161e-07)
(0.0013828 -5.29221e-07 5.20568e-07)
(0.00138057 -4.21053e-07 4.47316e-07)
(0.00137756 -6.22482e-07 4.10101e-07)
(0.00137435 -3.3213e-07 2.98639e-07)
(0.00137208 -2.5005e-07 3.35729e-07)
(0.00136969 -5.55091e-08 3.90707e-07)
(0.00136709 1.72271e-07 3.89449e-07)
(0.00136476 1.6848e-07 3.42054e-07)
(0.00136218 1.35592e-06 4.38449e-07)
(0.00135945 1.28206e-06 3.37872e-07)
(0.00135686 9.11717e-07 3.29727e-07)
(0.00135374 6.65456e-07 2.82539e-07)
(0.00135101 2.06233e-07 2.63239e-07)
(0.00134884 -9.02911e-08 1.37207e-07)
(0.00134673 -1.02675e-07 3.28556e-07)
(0.00134407 -4.60245e-07 3.35177e-07)
(0.00134125 -4.01429e-07 3.28762e-07)
(0.0013386 -3.58516e-07 2.74412e-07)
(0.00133631 -5.33961e-07 3.09538e-07)
(0.00133427 -6.68027e-07 3.7655e-07)
(0.00133179 -2.23568e-07 3.48821e-07)
(0.00132914 -1.53077e-07 3.0319e-07)
(0.00132671 -1.00798e-07 3.49998e-07)
(0.0013244 -6.52945e-08 3.75182e-07)
(0.00132195 -3.58074e-09 3.30358e-07)
(0.00131951 1.91852e-07 2.89446e-07)
(0.00131695 2.1651e-07 3.87218e-07)
(0.00131456 6.76204e-08 3.02627e-07)
(0.00131217 -5.17687e-08 2.86771e-07)
(0.00131003 -8.29804e-08 3.27766e-07)
(0.00108451 2.44424e-05 1.36061e-06)
(0.00159576 1.27612e-05 2.18418e-06)
(0.00132565 5.57281e-05 -1.82917e-06)
(0.00149327 4.45047e-05 5.7637e-06)
(0.00138646 1.61854e-05 4.2412e-05)
(0.00106793 0.000295983 -1.57881e-05)
(0.00147409 -0.000159036 3.59803e-06)
(0.00144564 -7.61709e-05 3.62098e-07)
(0.00139547 -4.99301e-05 1.61226e-07)
(0.00140961 -3.0249e-05 3.51691e-07)
(0.00140677 -1.88459e-05 3.51722e-07)
(0.00140583 -1.17186e-05 3.51486e-07)
(0.00140362 -7.30947e-06 3.50736e-07)
(0.00140125 -4.5649e-06 3.50486e-07)
(0.00139871 -2.87915e-06 3.49739e-07)
(0.00139605 -1.82481e-06 3.56698e-07)
(0.0013933 -1.20742e-06 3.40779e-07)
(0.00139061 -8.46508e-07 2.00739e-07)
(0.00138823 -5.81866e-07 3.73578e-07)
(0.00138573 -4.2265e-07 2.5922e-07)
(0.00138278 -4.71068e-07 2.14668e-07)
(0.00137968 -4.23099e-07 3.43069e-07)
(0.00137736 -8.44901e-07 2.67658e-07)
(0.00137517 -4.20094e-07 4.66801e-07)
(0.00137245 -1.33701e-07 4.27339e-07)
(0.00136989 -1.80905e-07 3.47397e-07)
(0.00136708 -1.02714e-07 2.50696e-07)
(0.00136547 1.07568e-07 3.19026e-07)
(0.00136318 -5.83045e-07 5.42384e-07)
(0.00135891 -1.21928e-06 5.32278e-07)
(0.00135593 -9.62526e-07 2.17811e-07)
(0.00135364 -8.81203e-07 -3.28653e-07)
(0.00135115 -3.76395e-07 3.55528e-07)
(0.00134879 -1.14632e-07 3.19266e-07)
(0.00134612 -1.14677e-08 3.22093e-07)
(0.00134387 -1.11287e-07 3.65826e-07)
(0.00134171 -6.89481e-08 2.03042e-07)
(0.00133912 -2.04404e-08 3.35525e-07)
(0.00133618 2.22085e-07 3.37374e-07)
(0.00133408 4.57507e-07 3.21322e-07)
(0.00133206 2.29138e-07 3.32795e-07)
(0.00132925 1.30562e-07 4.74561e-07)
(0.00132681 1.77395e-07 4.14934e-07)
(0.00132437 -4.4314e-09 3.7764e-07)
(0.00132196 -3.54062e-08 4.29381e-07)
(0.00131947 -5.73419e-09 3.44358e-07)
(0.00131693 1.03669e-07 3.63137e-07)
(0.00131443 2.48263e-07 3.07752e-07)
(0.00131202 1.02508e-07 3.25913e-07)
(0.0013101 8.36764e-09 3.44382e-07)
(0.00108055 2.47588e-05 -1.3818e-07)
(0.00162808 1.03933e-05 8.23452e-07)
(0.00136055 6.33096e-05 6.33234e-07)
(0.00154831 -1.83913e-06 2.29024e-06)
(0.00163911 0.000248051 -1.57315e-05)
(0.00104989 0.000659237 6.32058e-05)
(0.00106498 -0.000222419 5.54616e-05)
(0.00153176 -8.03722e-05 4.00513e-07)
(0.00142319 -4.72143e-05 3.57212e-07)
(0.0014309 -2.85742e-05 4.19353e-07)
(0.00141918 -1.72395e-05 3.55431e-07)
(0.00141358 -1.05607e-05 3.53312e-07)
(0.00140838 -6.34493e-06 3.52603e-07)
(0.00140419 -3.94528e-06 3.51232e-07)
(0.00140053 -2.39721e-06 3.50015e-07)
(0.0013972 -1.49472e-06 3.49147e-07)
(0.00139413 -9.44361e-07 3.47932e-07)
(0.00139121 -5.07663e-07 2.36696e-07)
(0.00138835 -2.65489e-07 2.67178e-07)
(0.00138548 -3.65939e-07 3.3171e-07)
(0.0013828 -3.12515e-07 2.76346e-07)
(0.0013801 -2.17605e-07 3.43773e-07)
(0.00137757 1.35094e-07 3.78433e-07)
(0.00137524 -4.67406e-08 3.08812e-07)
(0.00137238 2.39173e-08 -9.92441e-08)
(0.00136973 2.9683e-09 3.05589e-07)
(0.00136745 -1.65144e-07 3.1734e-07)
(0.00136416 -1.40081e-07 3.99814e-07)
(0.00136052 -1.27085e-06 2.9904e-07)
(0.00135898 -1.29788e-06 1.29973e-07)
(0.00135729 -7.79318e-07 3.35237e-07)
(0.00135448 -4.78029e-07 3.20873e-07)
(0.00135197 -1.61184e-07 3.35908e-07)
(0.00134929 -5.78493e-08 3.26649e-07)
(0.00134674 3.22617e-08 2.66753e-07)
(0.001344 2.44829e-07 4.72681e-08)
(0.00134137 1.11052e-07 3.17829e-07)
(0.00133896 2.0188e-08 3.36894e-07)
(0.0013369 2.27789e-07 2.97389e-07)
(0.00133427 6.88615e-07 3.34112e-07)
(0.00133138 1.42519e-07 3.18306e-07)
(0.00132908 4.62536e-08 3.74497e-07)
(0.00132654 2.24521e-08 3.93071e-07)
(0.00132413 3.88989e-08 2.45401e-07)
(0.00132195 -6.5731e-08 3.19538e-07)
(0.00131969 -7.59256e-08 3.31068e-07)
(0.00131727 -4.39016e-08 3.56044e-07)
(0.00131456 -3.49697e-08 2.60704e-07)
(0.00131187 8.25058e-08 3.29278e-07)
(0.00130989 1.47818e-07 3.68517e-07)
(0.00107756 8.90889e-06 7.55529e-07)
(0.00163893 -1.39249e-06 7.72051e-07)
(0.00132859 2.90121e-05 1.93226e-06)
(0.00161663 -2.13476e-05 5.98455e-06)
(0.00100187 9.32087e-05 3.164e-05)
(0.00189634 0.000612126 -0.000124567)
(0.0015899 0.000303294 9.06396e-05)
(0.00155238 -4.27237e-05 3.68985e-07)
(0.00146033 -2.13377e-05 3.65385e-07)
(0.0014474 -1.28763e-05 3.07287e-07)
(0.00142948 -7.62715e-06 3.22723e-07)
(0.00141957 -4.59914e-06 3.61993e-07)
(0.00141196 -2.9622e-06 3.47331e-07)
(0.00140623 -1.79021e-06 3.54192e-07)
(0.0014018 -1.16785e-06 3.49825e-07)
(0.00139788 -7.37392e-07 3.11145e-07)
(0.00139455 -4.2064e-07 3.47952e-07)
(0.00139146 -2.67313e-07 3.45221e-07)
(0.00138841 -1.13092e-07 3.77917e-07)
(0.00138567 1.26356e-08 3.03261e-07)
(0.00138297 5.67164e-08 2.82314e-07)
(0.00138024 1.38281e-07 4.26158e-07)
(0.00137757 2.03519e-07 3.80944e-07)
(0.00137503 1.83452e-07 3.0956e-07)
(0.00137251 -8.20154e-08 3.76259e-07)
(0.00136966 5.8907e-08 3.97311e-07)
(0.0013669 -1.3207e-07 2.80678e-07)
(0.00136409 -3.75144e-07 3.08292e-07)
(0.00136175 -1.75095e-08 -4.60107e-07)
(0.00135953 4.37344e-07 4.04515e-07)
(0.00135696 1.03311e-08 3.07132e-07)
(0.00135442 3.63079e-07 3.65414e-07)
(0.00135167 1.82072e-07 4.16328e-07)
(0.00134904 6.4304e-08 3.44084e-07)
(0.0013465 -4.24815e-08 2.85414e-07)
(0.00134397 -2.91685e-08 3.36473e-07)
(0.00134143 1.64368e-07 3.02281e-07)
(0.00133926 3.16503e-07 3.4887e-07)
(0.00133702 1.96808e-07 3.58337e-07)
(0.00133397 -3.43487e-08 4.75734e-07)
(0.00133126 2.10383e-08 3.36976e-07)
(0.0013291 1.0117e-07 4.0413e-07)
(0.0013268 3.94576e-08 3.87615e-07)
(0.00132426 1.78667e-07 2.68393e-07)
(0.00132182 2.09555e-07 3.52797e-07)
(0.0013195 -2.05496e-08 3.28886e-07)
(0.00131699 -1.91647e-07 2.38873e-07)
(0.00131459 -3.23104e-07 2.38768e-07)
(0.00131225 -1.24651e-07 3.80026e-07)
(0.00130981 4.02522e-08 3.31879e-07)
(0.00107999 4.48393e-06 -9.50721e-07)
(0.00164847 1.32374e-05 7.7961e-07)
(0.00133716 2.93752e-05 -1.4077e-06)
(0.00158467 5.57237e-05 2.33656e-06)
(0.00133424 -0.000169841 4.18296e-05)
(0.000834071 -0.000269453 7.50173e-05)
(0.00119591 6.32989e-05 5.70296e-05)
(0.00155468 3.70621e-05 3.88538e-07)
(0.00146167 1.78201e-05 3.65012e-07)
(0.00144817 1.09352e-05 3.55083e-07)
(0.00142961 6.21362e-06 3.68598e-07)
(0.00141946 3.71421e-06 3.20883e-07)
(0.00141193 2.04809e-06 5.58643e-07)
(0.00140646 1.25897e-06 3.50237e-07)
(0.00140186 6.92633e-07 3.51252e-07)
(0.00139814 4.19381e-07 3.69689e-07)
(0.00139472 2.95118e-07 3.48677e-07)