/*--------------------------------*- C++ -*----------------------------------*\
| =========                 |                                                 |
| \\      /  F ield         | OpenFOAM: The Open Source CFD Toolbox           |
|  \\    /   O peration     | Version:  5.0                                   |
|   \\  /    A nd           | Web:      www.OpenFOAM.org                      |
|    \\/     M anipulation  |                                                 |
\*---------------------------------------------------------------------------*/
FoamFile
{
    version     2.0;
    format      ascii;
    class       surfaceVectorField;
    location    "0.4";
    object      Uf;
}
// * * * * * * * * * * * * * * * * * * * * * * * * * * * * * * * * * * * * * //

dimensions      [0 1 -1 0 0 0 0];

internalField   nonuniform List<vector> 
12790
(
(0.000862343 -2.44092e-06 -9.35875e-07)
(0.000652136 2.61804e-06 -3.71794e-06)
(0.000874307 -4.48147e-08 -2.65142e-06)
(0.000854927 1.43641e-05 1.04865e-06)
(0.000966146 -5.56106e-06 1.51083e-06)
(0.00127449 -1.67574e-06 9.95691e-07)
(0.000838664 1.83887e-05 1.83641e-06)
(0.000812052 1.02164e-05 -1.14297e-07)
(0.00109396 3.86513e-05 2.21519e-06)
(0.000706751 -3.65366e-05 -2.26832e-06)
(0.000834741 -1.56017e-05 2.72906e-06)
(0.00115522 4.39578e-06 4.06532e-06)
(0.000473577 -2.94402e-05 5.8574e-06)
(0.00109185 -8.89983e-05 -9.72911e-06)
(0.000968639 -0.00018577 2.04952e-05)
(0.000634475 -4.00063e-05 1.11829e-06)
(0.00112632 -9.67227e-05 -7.52735e-06)
(0.00095567 -0.000285229 2.60645e-05)
(0.00057317 8.71022e-05 4.24059e-06)
(0.000619563 -0.000144396 7.488e-06)
(0.00083803 0.000211662 6.81274e-06)
(0.00103085 5.54293e-07 7.23699e-05)
(0.00103548 -1.67209e-05 2.12971e-05)
(0.00104563 -6.06395e-06 1.04124e-05)
(0.00101926 -7.65648e-06 1.12971e-07)
(0.000332337 -1.60549e-06 -2.10122e-06)
(0.000477634 2.06236e-06 -2.96095e-06)
(0.000500261 6.38368e-06 -6.60475e-07)
(0.000835502 4.48794e-06 -8.59963e-07)
(0.000337065 3.62561e-06 -2.25588e-06)
(0.000602758 -5.23221e-06 -3.21314e-06)
(0.000612291 8.30128e-06 -3.39775e-06)
(0.000824792 -7.30246e-07 -1.12683e-06)
(0.000846361 -7.75212e-06 -1.84967e-06)
(0.00114033 6.11231e-07 -1.32319e-06)
(0.000596026 1.19922e-06 -4.19657e-06)
(0.000596423 6.98147e-06 -4.31266e-06)
(0.00100544 3.00669e-06 -4.44448e-06)
(0.0010053 1.61469e-05 -4.57986e-06)
(0.000831071 -2.05466e-06 -9.84554e-08)
(0.000820172 -7.4177e-06 -2.45089e-07)
(0.00109527 -2.45339e-06 1.09782e-07)
(0.000834842 -2.03985e-06 6.5665e-08)
(0.000834768 -6.14799e-06 1.28901e-07)
(0.00111265 -2.95885e-06 1.9381e-07)
(0.000837387 -1.55712e-06 4.76298e-08)
(0.000836756 -4.45943e-06 3.72791e-08)
(0.00111472 -2.44055e-06 1.82121e-07)
(0.000838258 -1.06796e-06 6.9579e-08)
(0.000838725 -3.15358e-06 6.71814e-08)
(0.00111741 -1.67486e-06 2.27242e-07)
(0.000837997 -8.75317e-07 3.79462e-08)
(0.00083884 -2.13942e-06 5.98387e-08)
(0.00111755 -1.14372e-06 1.67407e-07)
(0.000838258 -7.07524e-07 3.40581e-08)
(0.000838631 -1.13467e-06 3.40154e-08)
(0.00111758 -1.15584e-06 2.04381e-07)
(0.000837367 -4.17394e-07 5.76305e-08)
(0.000838068 -8.0888e-07 5.58265e-08)
(0.0011172 -6.87432e-07 1.84747e-07)
(0.000836147 -2.47206e-07 5.53207e-08)
(0.000836905 1.11656e-07 7.66678e-08)
(0.0011157 -4.05742e-07 1.25303e-07)
(0.000834827 -1.70148e-07 4.46571e-08)
(0.00083556 -3.76223e-07 5.022e-08)
(0.00111397 -2.44613e-07 1.86167e-07)
(0.000833586 -8.25612e-08 4.41226e-08)
(0.000834236 -3.81771e-07 2.562e-08)
(0.0011123 -1.9993e-07 1.71215e-07)
(0.000831912 4.50808e-08 5.00985e-08)
(0.000832771 1.0001e-07 4.41847e-08)
(0.00111038 5.78043e-09 1.80002e-07)
(0.000830379 1.585e-07 5.23653e-08)
(0.000831189 -1.98302e-07 4.98446e-08)
(0.00110824 1.53699e-07 2.20478e-07)
(0.000828592 1.55739e-07 4.4118e-08)
(0.000829546 -7.63035e-08 3.84913e-08)
(0.00110596 3.01982e-07 2.36063e-07)
(0.000827197 1.74287e-07 4.1615e-08)
(0.000828013 -1.70555e-07 4.10185e-08)
(0.00110381 1.45673e-07 1.94213e-07)
(0.00082563 2.14826e-07 4.40248e-08)
(0.000826512 -2.86115e-07 3.02939e-08)
(0.00110188 3.5738e-07 1.80212e-07)
(0.000824051 1.37135e-07 4.50236e-08)
(0.000824777 1.80146e-07 1.20029e-08)
(0.0010998 2.39838e-07 1.83554e-07)
(0.000822322 1.36871e-07 3.94248e-08)
(0.000823189 -1.51266e-07 5.54174e-08)
(0.00109764 1.27608e-07 1.98675e-07)
(0.000820845 1.97168e-07 4.49821e-08)
(0.000821697 -2.02538e-07 5.31121e-08)
(0.00109545 2.18164e-07 1.78946e-07)
(0.000819365 1.96928e-07 5.63595e-08)
(0.000820182 -5.96538e-08 7.17215e-08)
(0.00109348 2.85659e-07 1.92777e-07)
(0.000817753 2.07564e-07 8.77924e-08)
(0.000818603 1.93241e-07 4.95635e-08)
(0.00109135 2.41875e-07 1.76372e-07)
(0.000816139 2.82107e-07 1.05016e-07)
(0.000817103 -1.1859e-06 5.44593e-08)
(0.00108931 3.52574e-07 2.71093e-07)
(0.000814262 6.605e-07 7.92072e-08)
(0.000815726 4.5707e-07 7.66454e-08)
(0.00108696 4.56042e-07 1.96054e-07)
(0.000813702 7.78834e-07 8.05925e-08)
(0.000814126 -2.53601e-06 4.23672e-08)
(0.00108529 1.30175e-06 2.00226e-07)
(0.000812073 5.03958e-07 5.62601e-08)
(0.000812494 1.05368e-06 9.17635e-08)
(0.00108388 7.69519e-07 1.27222e-07)
(0.000810376 2.75137e-07 3.28931e-08)
(0.000810917 3.09117e-07 6.00503e-08)
(0.00108167 5.65428e-07 1.82753e-07)
(0.000808764 4.61419e-08 4.06798e-08)
(0.000809303 1.23366e-07 3.60636e-08)
(0.00107946 1.24719e-07 1.68194e-07)
(0.000807283 5.54978e-09 4.6965e-08)
(0.000807897 1.2004e-07 4.60747e-08)
(0.00107738 -6.73713e-09 1.68173e-07)
(0.000805759 -1.82291e-08 4.41154e-08)
(0.000806421 7.23638e-09 4.90186e-08)
(0.00107545 8.42949e-08 1.68225e-07)
(0.000804335 -1.15403e-07 4.12026e-08)
(0.000804837 -6.52739e-08 2.33008e-08)
(0.0010733 -3.32994e-08 1.65776e-07)
(0.000803151 -3.97454e-07 8.79626e-09)
(0.000803358 -4.98475e-07 4.0988e-08)
(0.0010717 -1.96836e-07 1.97781e-07)
(0.000800599 -4.47186e-07 1.47026e-08)
(0.000801878 3.37564e-06 4.12386e-08)
(0.00106919 -7.99548e-07 5.2907e-08)
(0.000799505 -2.26625e-07 5.92195e-08)
(0.00080042 -5.66741e-07 6.6942e-08)
(0.00106664 -3.62962e-07 1.91417e-07)
(0.000798141 -1.91265e-07 3.11274e-08)
(0.000798968 -1.59529e-07 5.02745e-08)
(0.00106512 -2.30139e-07 1.72697e-07)
(0.000796709 -1.97976e-07 2.31138e-08)
(0.000797435 -1.47749e-07 1.84417e-08)
(0.00106322 -2.5505e-07 1.60289e-07)
(0.000795277 -1.65365e-07 5.3226e-08)
(0.000795978 2.28345e-08 4.47914e-08)
(0.00106131 -2.41818e-07 1.78102e-07)
(0.00079376 -1.04267e-07 6.3713e-08)
(0.000794582 1.26427e-07 6.39578e-08)
(0.0010594 -1.37615e-07 1.77623e-07)
(0.000792161 -3.58557e-08 1.52354e-07)
(0.000793077 6.91239e-08 5.43413e-08)
(0.00105733 -7.15083e-08 1.79585e-07)
(0.000790865 -2.14214e-08 1.49138e-07)
(0.000791579 -2.18039e-07 1.44516e-07)
(0.00105533 2.0835e-08 1.71835e-07)
(0.0007895 -1.07381e-07 5.97147e-08)
(0.000790158 -1.2542e-07 5.09442e-08)
(0.0010536 -3.61597e-08 1.79097e-07)
(0.000788068 -1.60432e-07 5.22249e-08)
(0.000788767 3.26329e-08 4.67821e-08)
(0.00105177 -2.15671e-07 1.7341e-07)
(0.000786617 -1.35642e-07 6.62e-08)
(0.000787306 7.09529e-08 3.08982e-08)
(0.00104974 -1.85196e-07 1.73074e-07)
(0.000786036 1.73967e-07 7.93307e-08)
(0.00104797 -1.4977e-07 1.87388e-07)
(0.000871454 -1.28529e-06 -1.27298e-06)
(0.000648853 9.8503e-06 -3.57365e-06)
(0.000870505 2.47382e-06 -3.65953e-06)
(0.000858166 -7.68968e-06 3.48419e-07)
(0.000959875 5.02695e-08 1.97482e-06)
(0.0012858 -9.16826e-06 8.05604e-07)
(0.000851442 -1.95701e-05 7.7741e-07)
(0.000795247 1.26042e-05 -6.34995e-07)
(0.00107441 1.00163e-06 4.39788e-07)
(0.000639735 -3.52723e-05 9.62548e-06)
(0.000831992 -1.25914e-05 4.79992e-06)
(0.00115283 -3.06157e-05 2.33841e-06)
(0.000560491 1.50922e-06 6.58009e-06)
(0.00109622 -9.15267e-05 3.02446e-06)
(0.000990735 0.000167947 4.9618e-06)
(0.000498839 -4.24269e-05 1.02493e-05)
(0.000541357 -0.000148822 4.19099e-06)
(0.000507169 -5.2247e-06 1.10001e-05)
(0.000956913 -7.99488e-05 5.79615e-06)
(0.00172512 3.92552e-05 7.39397e-05)
(0.000609891 -0.000152329 6.30333e-05)
(0.000833765 -3.68616e-05 5.55864e-05)
(0.000929163 5.21754e-05 7.48174e-05)
(0.00115261 -0.000138435 -1.96757e-05)
(0.000286927 3.00057e-05 -1.44082e-06)
(0.000466025 1.26029e-05 -8.67591e-07)
(0.000446909 4.70639e-06 -2.95838e-06)
(0.000441505 -5.15682e-06 -4.67976e-07)
(0.0007217 1.57019e-05 -1.01557e-06)
(0.000300447 -4.12653e-06 -8.89867e-07)
(0.00053081 7.39718e-05 2.08342e-06)
(0.00056353 -1.54413e-05 1.93258e-06)
(0.000817125 -1.98941e-05 -9.68456e-07)
(0.00085425 -3.93945e-05 -1.89595e-06)
(0.00111684 -3.128e-05 -1.24259e-06)
(0.00058041 -7.86096e-06 -3.80543e-06)
(0.000576823 -2.81274e-05 -4.02194e-06)
(0.000980093 -7.95525e-06 -3.99285e-06)
(0.000968633 -5.46782e-05 -4.19811e-06)
(0.000830242 -1.37819e-05 -1.78549e-08)
(0.00082792 -2.51351e-05 -2.47225e-07)
(0.00109182 -2.17864e-05 1.33784e-07)
(0.000836011 -9.33711e-06 1.00545e-07)
(0.000840381 -1.56907e-05 1.29914e-07)
(0.00111327 -1.49844e-05 2.04887e-07)
(0.000838715 -6.19012e-06 5.6821e-08)
(0.000840728 -9.89313e-06 4.67197e-08)
(0.00111657 -9.93746e-06 1.86371e-07)
(0.000839535 -4.06807e-06 5.74435e-08)
(0.000841403 -6.25115e-06 5.83522e-08)
(0.00111914 -6.58857e-06 1.88151e-07)
(0.000839334 -2.50698e-06 5.59162e-08)
(0.000840808 -3.93207e-06 5.39993e-08)
(0.00111936 -4.27024e-06 1.86537e-07)
(0.000838705 -1.51209e-06 5.57768e-08)
(0.000839885 -2.39939e-06 5.48414e-08)
(0.00111877 -2.43314e-06 1.87332e-07)
(0.000837647 -1.00695e-06 7.48571e-08)
(0.000838706 -1.52404e-06 5.3446e-08)
(0.00111762 -1.62092e-06 1.86496e-07)
(0.000836353 -6.82097e-07 7.15756e-08)
(0.000837315 -9.23998e-07 7.53097e-08)
(0.00111603 -1.07404e-06 2.2896e-07)
(0.000834921 -4.76538e-07 3.11909e-08)
(0.00083582 -6.04009e-07 4.74409e-08)
(0.00111419 -7.4781e-07 1.8537e-07)
(0.000833506 -4.78727e-07 2.56762e-08)
(0.000834235 4.03234e-07 6.41048e-08)
(0.00111235 -5.21757e-07 1.14277e-07)
(0.000832009 -4.662e-07 4.3929e-08)
(0.000832789 4.34796e-07 5.37851e-08)
(0.00111035 -7.56973e-07 1.52541e-07)
(0.000830438 -3.48554e-07 3.59743e-08)
(0.000831338 -6.93205e-08 4.98673e-08)
(0.00110826 -4.89964e-07 1.73376e-07)
(0.000828815 -2.56572e-07 3.5391e-08)
(0.000829662 3.49154e-07 4.78874e-08)
(0.00110616 -4.40641e-07 1.57368e-07)
(0.000827431 -2.10753e-07 2.97008e-08)
(0.000828072 -3.45194e-07 4.99864e-08)
(0.00110423 -2.40041e-07 1.78557e-07)
(0.000825707 -2.67448e-07 -1.72221e-09)
(0.000826442 -4.82483e-07 2.70356e-08)
(0.00110212 -3.02548e-07 2.09877e-07)
(0.000823827 -2.76969e-07 2.23829e-08)
(0.000824766 -7.28881e-07 3.68668e-08)
(0.00109959 -3.64149e-07 2.73331e-07)
(0.000822563 -1.77291e-07 6.91055e-08)
(0.000823315 -2.85862e-07 4.74999e-08)
(0.00109757 -3.36323e-07 1.65763e-07)
(0.000821026 4.91971e-09 7.98456e-08)
(0.000821925 -2.35373e-07 6.29022e-08)
(0.00109578 -1.37257e-07 1.82594e-07)
(0.000819469 1.31454e-07 6.49325e-08)
(0.00082034 -1.2597e-07 7.23138e-08)
(0.00109369 1.37183e-07 1.86805e-07)
(0.000817875 3.32137e-07 1.62288e-08)
(0.000818852 2.48931e-07 5.21217e-08)
(0.00109161 2.06751e-07 1.81765e-07)
(0.000816671 4.90984e-07 2.60818e-08)
(0.000817299 5.04648e-07 3.04348e-08)
(0.00108967 7.27608e-07 3.22684e-08)
(0.000815723 6.06417e-07 3.98162e-08)
(0.000815867 -9.64565e-08 6.12637e-08)
(0.00108832 6.89723e-07 1.68059e-07)
(0.000812763 6.61593e-07 5.35228e-08)
(0.000814192 -5.84127e-07 -3.80197e-08)
(0.00108572 9.89346e-07 1.68931e-07)
(0.000811546 3.21881e-07 9.55636e-08)
(0.000812067 8.92383e-09 6.21723e-08)
(0.00108274 7.92306e-07 2.2691e-07)
(0.000809693 1.87967e-08 6.32282e-08)
(0.000810537 7.04423e-07 7.56203e-08)
(0.00108078 1.26183e-07 1.81295e-07)
(0.000808417 -4.32641e-08 4.14554e-08)
(0.000809225 2.07999e-07 4.91628e-08)
(0.00107878 -2.57274e-08 1.52378e-07)
(0.000807016 -1.71582e-07 4.81274e-08)
(0.000807737 -3.66718e-08 7.01848e-08)
(0.00107713 -9.2426e-08 1.80853e-07)
(0.000805506 -2.76999e-07 2.8212e-08)
(0.00080629 3.77837e-08 5.5005e-08)
(0.00107508 -4.17718e-07 1.77285e-07)
(0.000803892 -3.06213e-07 2.30807e-08)
(0.000804802 1.08011e-07 3.76657e-08)
(0.00107291 -4.04084e-07 1.76624e-07)
(0.000802074 -5.0095e-07 7.34302e-08)
(0.000803116 -1.30328e-07 3.1962e-08)
(0.00107055 -4.63206e-07 1.81036e-07)
(0.000801684 -4.65567e-07 9.34701e-08)
(0.000801925 2.35649e-07 8.57806e-08)
(0.00106914 -8.73281e-07 3.04895e-07)
(0.000799885 -2.12959e-07 5.80022e-08)
(0.000800738 4.77609e-08 7.32805e-08)
(0.0010678 -3.79161e-07 1.6207e-07)
(0.000798298 -1.49717e-07 3.75987e-08)
(0.000799048 4.00413e-08 3.84614e-08)
(0.00106543 -2.0589e-07 1.72871e-07)
(0.000796649 -1.23648e-07 4.01113e-08)
(0.000797468 5.21143e-08 4.43624e-08)
(0.00106327 -1.64736e-07 1.78634e-07)
(0.000795287 -9.41993e-08 5.55174e-08)
(0.000796015 -1.32771e-07 5.60029e-08)
(0.00106132 -1.0011e-07 1.7861e-07)
(0.000793937 -5.45931e-08 5.45891e-08)
(0.000794632 3.5881e-08 4.61018e-08)
(0.00105951 -7.24824e-08 1.72953e-07)
(0.000792466 3.04984e-08 4.64758e-08)
(0.000793183 7.04464e-08 5.80827e-08)
(0.00105757 -1.90786e-08 1.77374e-07)
(0.000790857 9.72345e-08 4.63513e-08)
(0.000791662 -1.09692e-09 4.62092e-08)
(0.00105559 1.22472e-07 1.74442e-07)
(0.000789401 7.21521e-08 3.80129e-08)
(0.000790127 -1.1786e-07 4.62689e-08)
(0.00105352 1.58261e-07 1.7593e-07)
(0.000788024 9.25029e-09 2.54602e-08)
(0.000788688 -4.1294e-08 3.53276e-08)
(0.00105163 5.0672e-08 1.74792e-07)
(0.000786606 -2.40314e-08 4.40142e-08)
(0.000787265 1.1089e-07 3.57604e-08)
(0.00104972 -4.43962e-08 1.70502e-07)
(0.000786066 5.52452e-08 8.18281e-08)
(0.00104802 -5.08313e-08 1.76067e-07)
(0.000853976 9.68004e-06 -3.27699e-07)
(0.000648228 1.17161e-05 -3.69681e-06)
(0.000864501 1.84757e-05 -1.84302e-06)
(0.000828364 1.70232e-05 9.92272e-07)
(0.000967827 2.91341e-06 2.24933e-06)
(0.0012712 9.72488e-06 2.02099e-06)
(0.000819828 1.97295e-05 3.38571e-06)
(0.000799682 3.82311e-05 -3.02771e-07)
(0.00105375 4.15482e-05 -9.6378e-07)
(0.000390345 4.86058e-05 -6.72541e-06)
(0.000860692 6.76583e-06 5.33475e-06)
(0.00114286 2.87084e-05 7.7712e-06)
(0.000589353 5.33362e-05 1.03801e-05)
(0.000940463 0.000114661 8.99767e-07)
(0.000929777 1.21494e-06 7.22036e-06)
(0.00036691 1.49997e-05 -2.51059e-06)
(0.000447913 3.9235e-05 -6.50362e-06)
(0.00039355 9.89196e-05 -9.04716e-07)
(0.000567052 0.000116434 -1.04674e-05)
(0.000219741 -1.81667e-05 3.08453e-06)
(0.000315295 -3.30398e-05 3.534e-06)
(0.00060696 3.0147e-05 5.88399e-05)
(0.00030462 -9.64819e-05 6.16654e-06)
(0.000406603 -0.000108199 -1.92589e-05)
(0.000418366 -0.000103404 2.31847e-05)
(0.000497553 -3.73578e-05 1.80508e-06)
(0.000473018 -4.74416e-05 -1.16651e-06)
(0.000871626 -8.9744e-05 8.60031e-06)
(0.000428492 -9.08193e-05 2.56407e-05)
(0.000681014 -0.00016155 5.53397e-05)
(0.000673935 -0.000117717 6.10265e-05)
(0.000389645 -4.87479e-05 4.17977e-06)
(0.000750802 -9.89498e-05 1.39428e-05)
(0.000617315 -7.29418e-05 -3.87827e-07)
(0.000346074 -4.71632e-05 -6.2185e-07)
(0.000840896 -3.78956e-05 -1.17526e-06)
(0.000895477 -4.62922e-05 -1.81076e-06)
(0.0011608 -6.12609e-05 -1.35329e-06)
(0.000604373 -4.05666e-05 -4.73407e-06)
(0.000614102 -4.30209e-05 -4.84336e-06)
(0.00101674 -7.32879e-05 -4.72453e-06)
(0.00103977 -8.03587e-05 -5.23891e-06)
(0.000844227 -2.40164e-05 -9.95795e-08)
(0.000845463 -3.03831e-05 -3.61216e-07)
(0.00111593 -3.9993e-05 1.18064e-07)
(0.000844428 -1.46714e-05 7.61157e-08)
(0.00085216 -1.81796e-05 1.19915e-07)
(0.00112762 -2.41672e-05 1.9854e-07)
(0.000843881 -9.12514e-06 4.82472e-08)
(0.000847721 -1.12382e-05 3.76042e-08)
(0.00112532 -1.50384e-05 1.84684e-07)
(0.000842766 -5.67798e-06 5.49095e-08)
(0.000845749 -6.92743e-06 5.60199e-08)
(0.00112457 -9.34836e-06 1.88043e-07)
(0.000841394 -3.52357e-06 5.29242e-08)
(0.000843524 -4.26842e-06 5.12707e-08)
(0.00112279 -5.82528e-06 1.87182e-07)
(0.000839951 -2.18443e-06 5.25111e-08)
(0.000841573 -2.63559e-06 5.16702e-08)
(0.00112091 -3.59277e-06 1.8668e-07)
(0.000838405 -1.36847e-06 5.38915e-08)
(0.000839735 -1.62977e-06 5.19011e-08)
(0.00111892 -2.24919e-06 1.86506e-07)
(0.000836796 -8.63375e-07 5.1184e-08)
(0.000837952 -1.01455e-06 5.32621e-08)
(0.0011168 -1.4111e-06 1.91187e-07)
(0.000835164 -5.25098e-07 8.03495e-08)
(0.000836246 -6.00754e-07 4.9804e-08)
(0.00111467 -9.00731e-07 1.86742e-07)
(0.000833396 -3.02482e-07 9.22171e-08)
(0.000834516 -9.01485e-07 8.45241e-08)
(0.00111229 -5.15547e-07 2.88853e-07)
(0.00083223 -2.31624e-07 5.97246e-08)
(0.000832879 -5.4493e-08 4.83619e-08)
(0.00111043 -3.32244e-07 1.80906e-07)
(0.000830582 -2.66823e-07 6.1781e-08)
(0.000831295 -1.83856e-07 5.35406e-08)
(0.00110864 -3.22604e-07 1.96938e-07)
(0.00082885 -2.57363e-07 6.24822e-08)
(0.000829675 1.41517e-07 3.83395e-08)
(0.00110628 -3.90662e-07 2.10802e-07)
(0.000827132 -2.89162e-07 4.73285e-08)
(0.000828033 -1.62388e-07 5.28795e-08)
(0.00110398 -2.96013e-07 1.82799e-07)
(0.000825466 -3.11932e-07 6.56215e-08)
(0.000826414 5.62637e-08 5.54333e-08)
(0.00110173 -4.97437e-07 1.53518e-07)
(0.000824208 -1.15179e-07 6.19804e-08)
(0.000825013 2.17098e-07 7.09398e-08)
(0.00109977 -3.37972e-07 8.96253e-08)
(0.000822713 4.68836e-08 4.12917e-08)
(0.000823518 -1.16422e-07 6.8937e-08)
(0.00109792 5.6829e-08 1.64621e-07)
(0.000821277 2.511e-08 5.53674e-08)
(0.000821898 -1.30973e-07 -2.18913e-08)
(0.00109604 7.96377e-08 1.64171e-07)
(0.000819689 6.16018e-09 5.95094e-08)
(0.000820316 -4.45861e-09 5.34812e-08)
(0.00109391 -1.32312e-08 1.76379e-07)
(0.000818288 6.97965e-08 6.63346e-08)
(0.000818932 -2.6257e-08 4.47358e-08)
(0.00109208 4.65988e-08 1.88078e-07)
(0.00081626 -9.3576e-08 6.5607e-08)
(0.000817095 -2.13483e-08 1.12245e-07)
(0.0010899 1.09031e-07 2.61098e-07)
(0.000814817 -5.68124e-07 -1.6541e-08)
(0.000815275 1.84655e-07 -1.98983e-08)
(0.00108728 -4.53565e-07 1.52738e-07)
(0.000813288 -8.42296e-07 -2.94016e-08)
(0.000813852 -6.31091e-07 -4.03123e-08)
(0.00108541 -1.08621e-06 1.83788e-07)
(0.000810906 -7.35385e-07 4.22247e-08)
(0.000812203 1.19054e-06 1.09626e-07)
(0.0010828 -1.10085e-06 1.72326e-07)
(0.000810167 -4.50167e-07 6.15631e-08)
(0.000810896 -2.50964e-07 8.75744e-08)
(0.00108065 -7.62083e-07 1.784e-07)
(0.000808521 -1.95455e-07 7.78857e-08)
(0.000809545 -2.78962e-08 5.73695e-08)
(0.00107919 -3.40884e-07 2.08055e-07)
(0.00080697 -5.93141e-08 7.70672e-08)
(0.000807908 3.60619e-08 8.46608e-08)
(0.0010769 -1.39917e-07 1.77813e-07)
(0.000805633 1.41541e-08 6.44641e-08)
(0.000806382 -5.34844e-07 6.10414e-08)
(0.00107506 -6.0609e-08 2.04967e-07)
(0.000804094 4.79791e-08 4.65488e-08)
(0.000804845 1.40819e-07 6.63488e-08)
(0.00107325 1.092e-08 1.79951e-07)
(0.000802608 1.14333e-07 4.42957e-08)
(0.000803199 1.11205e-07 3.9158e-08)
(0.00107112 4.48766e-08 1.60367e-07)
(0.000801402 1.49812e-07 6.5595e-08)
(0.000801969 -1.19654e-07 7.59383e-08)
(0.0010693 2.05331e-07 1.78194e-07)
(0.000799743 1.05181e-07 5.37505e-08)
(0.000800682 1.75402e-07 5.73403e-08)
(0.00106747 1.65919e-07 1.84461e-07)
(0.000798258 6.098e-08 4.52233e-08)
(0.000798992 -3.62543e-07 3.77928e-08)
(0.00106539 9.4871e-08 2.07117e-07)
(0.000796742 7.6372e-08 6.02504e-08)
(0.000797487 2.56161e-07 5.75455e-08)
(0.00106335 5.64174e-08 1.66353e-07)
(0.000795373 7.68824e-08 4.65903e-08)
(0.000796016 -1.97194e-07 7.29425e-08)
(0.00106143 1.43731e-07 1.72617e-07)
(0.000793931 1.53721e-08 4.95917e-08)
(0.000794555 -8.0405e-08 2.28062e-08)
(0.0010595 2.92985e-08 1.83152e-07)
(0.000792412 -5.73215e-09 5.78196e-08)
(0.000793157 1.29794e-07 6.22619e-08)
(0.00105757 -2.68551e-08 1.77504e-07)
(0.000790854 3.9691e-08 4.61267e-08)
(0.000791719 1.33366e-07 4.68536e-08)
(0.00105555 -1.08577e-08 1.75804e-07)
(0.000789396 1.21818e-07 4.35869e-08)
(0.000790229 -2.98684e-08 6.18824e-08)
(0.00105351 8.72184e-08 1.70337e-07)
(0.000787959 1.22697e-07 4.56277e-08)
(0.000788689 -3.02941e-08 3.83125e-08)
(0.00105152 2.01252e-07 1.74067e-07)
(0.0007866 5.45618e-08 7.35603e-08)
(0.000787181 -4.76471e-08 5.18316e-08)
(0.00104961 8.06071e-08 1.79471e-07)
(0.000785997 -7.68682e-08 9.39561e-08)
(0.00104809 1.6114e-08 1.79247e-07)
(0.000879258 3.56167e-06 -1.12176e-06)
(0.000645345 6.94764e-06 -3.75973e-06)
(0.000866084 1.70795e-05 -3.51109e-06)
(0.000870139 1.72547e-05 9.5513e-07)
(0.00098308 -4.58809e-06 1.72569e-06)
(0.00130867 3.89246e-06 1.33624e-06)
(0.000881858 1.04977e-05 1.6444e-06)
(0.000802662 2.11545e-05 -8.55701e-08)
(0.00108897 4.99595e-05 1.98138e-07)
(0.000658638 5.21167e-05 6.04882e-06)
(0.000876548 -2.5984e-05 5.26648e-06)
(0.00123772 -8.66629e-06 2.6483e-06)
(0.000662116 -3.53095e-05 6.14446e-06)
(0.0011167 0.000120832 2.95856e-06)
(0.00107139 1.89965e-05 2.70503e-06)
(0.000520163 6.52193e-05 9.65531e-06)
(0.000593533 8.13746e-05 5.013e-06)
(0.000567515 3.32115e-05 7.45505e-06)
(0.000924173 0.000137798 7.6478e-06)
(0.000258502 0.000305531 7.36009e-06)
(0.000434579 0.00010281 1.59748e-05)
(0.000236714 6.73612e-05 7.65983e-06)
(0.000356557 -0.000193049 1.26474e-05)
(0.00042972 0.000179992 5.02352e-05)
(0.00104696 -9.78327e-05 2.24312e-05)
(0.00042927 -5.27529e-05 2.32129e-05)
(0.000521263 -8.28553e-05 3.99323e-05)
(0.000636173 -0.000104612 6.52382e-05)
(0.000297435 -4.64842e-05 1.64718e-05)
(0.000867429 -3.79223e-05 -9.97189e-07)
(0.000924655 -4.17418e-05 -2.04023e-06)
(0.00122671 -6.40893e-05 -1.22058e-06)
(0.000635634 -4.86563e-05 -5.1592e-06)
(0.000645438 -4.20667e-05 -5.03252e-06)
(0.00106108 -9.37099e-05 -5.23075e-06)
(0.00108156 -7.76051e-05 -3.48131e-06)
(0.000859892 -2.24795e-05 -1.41879e-07)
(0.000864815 -2.16452e-05 -3.24626e-07)
(0.00113871 -3.7449e-05 9.11303e-08)
(0.000854092 -1.36214e-05 8.14305e-08)
(0.000863325 -1.33312e-05 8.86978e-08)
(0.00114473 -2.27265e-05 2.10417e-07)
(0.000849791 -8.27609e-06 4.53709e-08)
(0.000854459 -7.89292e-06 2.40713e-08)
(0.00113525 -1.37267e-05 1.85221e-07)
(0.000846409 -5.03633e-06 5.23826e-08)
(0.000849833 -4.78068e-06 6.26358e-08)
(0.00113076 -8.41755e-06 1.88975e-07)
(0.000843667 -3.05652e-06 5.00166e-08)
(0.000846019 -2.87387e-06 -5.58157e-08)
(0.00112661 -5.05815e-06 1.86055e-07)
(0.000841338 -1.87355e-06 5.10602e-08)
(0.000843064 -1.76679e-06 4.98129e-08)
(0.00112328 -3.12245e-06 1.86898e-07)
(0.000839273 -1.14573e-06 5.12712e-08)
(0.000840653 -1.08482e-06 5.0081e-08)
(0.00112037 -1.89044e-06 1.86501e-07)
(0.000837371 -7.18168e-07 5.18831e-08)
(0.000838491 -6.65961e-07 4.9134e-08)
(0.00111773 -1.17569e-06 1.86194e-07)
(0.000835631 -4.52735e-07 5.39673e-08)
(0.000836581 -4.49656e-07 5.21909e-08)
(0.00111532 -7.45512e-07 1.85913e-07)
(0.000833953 -2.32139e-07 4.06805e-08)
(0.000834793 -3.37366e-07 5.19248e-08)
(0.00111306 -4.55703e-07 1.5217e-07)
(0.000831955 -1.53484e-07 4.21762e-08)
(0.000832978 1.47199e-08 5.17922e-08)
(0.0011106 -1.38146e-07 2.14246e-07)
(0.000830341 -1.72762e-07 3.0104e-08)
(0.000831272 -2.10095e-08 3.88177e-08)
(0.00110819 -2.44831e-07 1.748e-07)
(0.000828923 -1.39826e-07 2.87321e-08)
(0.000829717 -1.02773e-07 -4.43611e-09)
(0.0011062 -1.98445e-07 1.86052e-07)
(0.000827284 -5.5517e-08 6.09835e-08)
(0.000828139 -1.19282e-07 9.81163e-08)
(0.0011041 -1.60536e-07 1.85569e-07)
(0.000825846 4.69326e-08 6.07467e-08)
(0.000826543 -6.57665e-07 5.14427e-08)
(0.00110207 1.42746e-08 2.21039e-07)
(0.000824448 9.01927e-08 7.7897e-08)
(0.000825067 -6.44351e-08 5.16396e-08)
(0.00110028 9.75786e-08 1.87476e-07)
(0.000822702 8.23909e-08 5.7829e-09)
(0.000823507 -1.33835e-07 8.24582e-08)
(0.00109809 1.45916e-07 1.99689e-07)
(0.000820922 -2.65234e-08 -2.38013e-08)
(0.000821761 -1.75796e-07 -2.12011e-08)
(0.00109569 1.04342e-07 2.04778e-07)
(0.00081942 -1.62946e-07 3.87104e-08)
(0.000820146 -8.51152e-08 3.22471e-08)
(0.00109365 -1.41914e-07 1.83009e-07)
(0.000818109 -4.66329e-07 9.0625e-08)
(0.000818554 -1.50133e-07 5.38657e-08)
(0.00109176 -2.56721e-07 1.69501e-07)
(0.000815743 -5.74298e-07 2.67814e-08)
(0.000816963 -1.32338e-06 5.95412e-08)
(0.00108904 -9.75535e-07 3.45483e-07)
(0.000814473 -3.82649e-07 -4.36632e-08)
(0.000815518 -5.95725e-07 -9.49624e-09)
(0.00108683 -6.18032e-07 2.12342e-07)
(0.000812721 -3.62309e-07 9.86683e-08)
(0.000813879 -3.39935e-07 9.35452e-08)
(0.00108492 -4.78914e-07 1.79572e-07)
(0.000811991 -1.51288e-07 1.54983e-07)
(0.000812469 1.3877e-07 1.15761e-07)
(0.00108316 -5.05407e-07 1.84308e-07)
(0.000810518 4.06116e-08 8.33902e-08)
(0.000811136 -2.10736e-06 4.9985e-08)
(0.00108174 6.51511e-08 3.07513e-07)
(0.000808855 3.78413e-08 6.4136e-08)
(0.000809541 1.43661e-07 5.0781e-08)
(0.00107956 -1.62058e-08 1.80646e-07)
(0.000807379 1.37965e-07 6.86423e-08)
(0.000808033 -4.02539e-08 5.61134e-08)
(0.00107748 7.30224e-08 1.81859e-07)
(0.000805557 1.78897e-07 6.29245e-08)
(0.000806433 1.31136e-07 5.46306e-08)
(0.00107527 2.57013e-07 1.59696e-07)
(0.000803988 1.88943e-07 5.89665e-08)
(0.000804857 1.4524e-07 1.211e-07)
(0.00107304 1.74855e-07 1.84665e-07)
(0.000802273 3.48783e-07 7.07893e-08)
(0.000803399 3.40107e-07 3.3165e-08)
(0.0010708 2.47654e-07 1.81865e-07)
(0.000801586 3.43592e-07 6.76894e-08)
(0.000801961 -1.94295e-06 5.09486e-08)
(0.00106929 5.79453e-07 2.36991e-07)
(0.000799845 1.5417e-07 4.13886e-08)
(0.000800444 5.15423e-07 5.06017e-08)
(0.00106766 2.73792e-07 1.76552e-07)
(0.000798163 1.10247e-07 5.01089e-08)
(0.000798937 2.36489e-07 4.60522e-08)
(0.0010653 9.3811e-08 1.52689e-07)
(0.000796766 1.17378e-07 7.02328e-08)
(0.000797496 1.12326e-07 -2.50262e-08)
(0.00106333 1.11329e-07 1.80635e-07)
(0.0007952 1.07474e-07 4.91737e-08)
(0.000796003 -3.37513e-08 6.06883e-08)
(0.00106129 8.65389e-08 1.73966e-07)
(0.00079378 6.58381e-08 3.54643e-08)
(0.000794503 -1.00697e-07 3.42863e-08)
(0.0010593 8.88726e-08 1.74239e-07)
(0.000792473 1.46455e-08 5.13005e-08)
(0.000793093 -3.95167e-08 4.35467e-08)
(0.00105752 -1.17353e-08 1.7491e-07)
(0.000791102 1.17681e-08 6.26046e-08)
(0.000791716 3.76257e-08 5.04621e-08)
(0.00105573 -3.84409e-08 1.75579e-07)
(0.000789501 2.78892e-08 5.66151e-08)
(0.00079025 1.73747e-07 6.09064e-08)
(0.00105379 -1.09432e-08 1.7484e-07)
(0.000787928 6.07966e-08 4.45123e-08)
(0.00078873 2.08099e-07 1.32715e-08)
(0.00105163 1.14748e-09 1.69913e-07)
(0.000786478 8.90124e-08 7.22146e-08)
(0.000787215 -2.23273e-08 4.47384e-08)
(0.00104949 9.51621e-08 1.74438e-07)
(0.000785886 -1.42989e-07 9.19391e-08)
(0.0010479 1.21615e-07 1.80733e-07)
(0.000865288 -4.09583e-07 -9.1411e-07)
(0.000644739 3.48828e-06 -3.59906e-06)
(0.00085829 5.83611e-06 -2.43328e-06)
(0.000850401 4.28045e-06 6.85586e-07)
(0.000988585 8.02736e-07 1.31359e-06)
(0.00130793 -2.57787e-06 9.58933e-07)
(0.000837627 -5.59333e-06 3.53473e-06)
(0.000805701 1.53249e-05 -7.46925e-07)
(0.00105861 2.05003e-05 1.49623e-06)
(0.000401993 3.59627e-05 1.31417e-06)
(0.000913857 7.91291e-06 5.26579e-06)
(0.00122043 -2.22363e-05 7.74966e-06)
(0.000667473 0.000107305 1.11616e-05)
(0.000645987 5.43516e-05 -5.16774e-06)
(0.0011607 0.000142544 8.00292e-06)
(0.000421537 -1.05343e-05 2.96022e-06)
(0.000281047 4.34697e-05 3.39009e-06)
(0.000426307 0.000163906 5.78085e-06)
(0.000410636 7.95172e-05 -1.55833e-06)
(0.000201986 0.000103404 -3.53888e-06)
(4.77941e-05 0.000118573 -2.51973e-06)
(5.87819e-05 0.000134307 -1.24067e-05)
(0.000169978 0.000238399 5.42068e-06)
(0.000297679 0.000257153 -1.0008e-05)
(0.00174518 -1.59548e-05 7.3722e-05)
(0.000413862 -0.000116521 5.57303e-05)
(0.000475602 -4.59015e-05 5.92925e-05)
(0.000663945 -5.64663e-05 0.000105846)
(0.0004334 -5.10643e-05 3.25094e-05)
(0.000890915 -1.88025e-05 -1.36823e-06)
(0.000929917 -2.95142e-06 -2.521e-06)
(0.00123959 -3.35855e-05 -1.57273e-06)
(0.000669111 -8.18601e-06 -5.33647e-06)
(0.00066295 1.55233e-06 -4.16344e-06)
(0.0011401 -8.52462e-06 -4.63909e-06)
(0.00113858 1.44661e-05 -6.90022e-07)
(0.000873469 -1.00558e-05 -9.41843e-08)
(0.000876061 -1.0843e-06 -2.41638e-07)
(0.00116773 -1.67556e-05 1.31381e-07)
(0.000861938 -6.08309e-06 3.13597e-08)
(0.000868331 -1.20526e-06 6.6591e-08)
(0.00115752 -1.02344e-05 2.0334e-07)
(0.000854348 -3.63708e-06 4.13236e-08)
(0.000857541 -4.37781e-07 1.49861e-08)
(0.00114336 -6.08637e-06 1.85748e-07)
(0.000849231 -2.24034e-06 -4.55239e-08)
(0.000851594 -5.60576e-07 -1.37426e-08)
(0.00113549 -3.68127e-06 1.95689e-07)
(0.000845248 -1.40126e-06 -5.60537e-08)
(0.000847077 2.85324e-07 -7.07456e-08)
(0.00112946 -2.35292e-06 1.71632e-07)
(0.000842306 -8.73013e-07 4.88336e-08)
(0.000843731 -1.0258e-07 5.03345e-08)
(0.00112491 -1.42637e-06 1.84999e-07)
(0.000839831 -5.66453e-07 4.79441e-08)
(0.000841039 -4.29128e-09 5.112e-08)
(0.00112137 -9.26109e-07 1.84951e-07)
(0.000837636 -3.61843e-07 4.94409e-08)
(0.000838749 6.01287e-08 5.56635e-08)
(0.00111825 -5.96217e-07 1.85431e-07)
(0.000835737 -2.62645e-07 5.01485e-08)
(0.000836706 -1.03872e-07 5.19861e-08)
(0.00111557 -3.66921e-07 1.86227e-07)
(0.000833845 -2.21858e-07 6.30367e-08)
(0.000834845 1.41439e-08 6.4604e-08)
(0.00111306 -3.19111e-07 1.85283e-07)
(0.000832217 -1.1283e-07 4.84379e-08)
(0.000833115 1.61638e-07 7.84643e-08)
(0.00111069 -2.42702e-07 1.76883e-07)
(0.000830606 -4.68417e-09 4.29148e-09)
(0.000831407 -1.55552e-07 4.95761e-08)
(0.00110856 -2.58238e-08 1.95141e-07)
(0.00082899 3.76092e-08 6.49153e-08)
(0.00082977 -8.82865e-08 2.56433e-08)
(0.00110639 4.05635e-08 1.85307e-07)
(0.000827403 6.24089e-08 8.85904e-08)
(0.00082817 -1.22781e-07 1.14004e-07)
(0.00110425 9.19246e-08 1.84334e-07)
(0.000825682 5.38146e-08 4.23356e-08)
(0.000826531 -9.21224e-08 5.64977e-08)
(0.00110205 1.22834e-07 1.56454e-07)
(0.000824196 -6.91269e-08 5.6191e-08)
(0.000824913 1.58977e-07 4.87614e-08)
(0.00109993 7.16846e-08 1.5993e-07)
(0.000822617 -1.92797e-07 5.55071e-08)
(0.000823353 -1.52791e-07 6.43485e-08)
(0.00109793 -2.14445e-07 1.85251e-07)
(0.000820895 -1.98695e-07 3.48304e-08)
(0.000821754 -3.63508e-08 4.74757e-08)
(0.00109568 -2.28345e-07 1.86696e-07)
(0.000819269 -2.25745e-07 4.73955e-08)
(0.000820113 1.92721e-08 3.7634e-08)
(0.00109346 -2.2394e-07 1.80941e-07)
(0.000817417 -3.50583e-07 2.27801e-08)
(0.000818399 1.92711e-07 6.56802e-08)
(0.00109105 -3.52817e-07 1.8413e-07)
(0.000816785 -3.6531e-07 2.32853e-08)
(0.000816946 1.22884e-07 1.34937e-08)
(0.00108946 -5.4786e-07 -8.33129e-10)
(0.000814988 -2.86587e-07 1.2768e-07)
(0.000815617 -3.67689e-07 3.44458e-08)
(0.00108791 -3.5146e-07 1.87788e-07)
(0.000813283 -3.07562e-08 1.10631e-07)
(0.0008142 -1.2942e-07 1.43432e-07)
(0.00108555 -3.75687e-07 1.81101e-07)
(0.000811898 1.81816e-07 1.07838e-08)
(0.000812735 1.34623e-07 -7.29129e-10)
(0.00108348 2.32267e-07 1.68071e-07)