/*--------------------------------*- C++ -*----------------------------------*\
| =========                 |                                                 |
| \\      /  F ield         | OpenFOAM: The Open Source CFD Toolbox           |
|  \\    /   O peration     | Version:  5.0                                   |
|   \\  /    A nd           | Web:      www.OpenFOAM.org                      |
|    \\/     M anipulation  |                                                 |
\*---------------------------------------------------------------------------*/
FoamFile
{
    version     2.0;
    format      ascii;
    class       surfaceVectorField;
    location    "0.4";
    object      Uf_0;
}
// * * * * * * * * * * * * * * * * * * * * * * * * * * * * * * * * * * * * * //

dimensions      [0 1 -1 0 0 0 0];

internalField   nonuniform List<vector> 
12790
(
(0.000862635 -3.56924e-06 -6.43735e-07)
(0.000652432 3.74216e-06 -3.58996e-06)
(0.000874766 -1.17274e-06 -2.11975e-06)
(0.000856016 1.37098e-05 1.21741e-06)
(0.00096651 -5.08589e-06 1.63915e-06)
(0.00127481 -2.81591e-06 1.7562e-06)
(0.000839061 1.81393e-05 1.74122e-06)
(0.000812932 1.02848e-05 -1.1668e-07)
(0.00109506 3.85012e-05 2.21913e-06)
(0.000706141 -3.61921e-05 -2.32612e-06)
(0.000835671 -1.52377e-05 2.63355e-06)
(0.00115608 3.92784e-06 3.65988e-06)
(0.000471629 -2.93517e-05 5.8123e-06)
(0.00108968 -8.90438e-05 -9.78984e-06)
(0.000965491 -0.000185361 2.02242e-05)
(0.00063166 -3.62022e-05 1.13625e-06)
(0.00112149 -9.63484e-05 -7.5874e-06)
(0.000952207 -0.000283555 2.59105e-05)
(0.000569899 8.84213e-05 4.08999e-06)
(0.000616481 -0.000142252 7.48053e-06)
(0.000835038 0.000212886 6.1686e-06)
(0.00103853 3.49196e-07 7.23961e-05)
(0.00103141 -1.72583e-05 2.13367e-05)
(0.00104138 -6.95074e-06 1.12542e-05)
(0.00101488 -8.82959e-06 5.8428e-07)
(0.000332348 -1.912e-06 -2.09913e-06)
(0.000477744 1.79535e-06 -2.97529e-06)
(0.000500578 5.85018e-06 -6.60419e-07)
(0.000835591 3.93527e-06 -8.55106e-07)
(0.000337071 3.34249e-06 -2.25564e-06)
(0.000602755 -5.72503e-06 -3.21286e-06)
(0.000612228 7.85834e-06 -3.39746e-06)
(0.000824893 -9.99092e-07 -1.12562e-06)
(0.000846278 -8.202e-06 -1.8567e-06)
(0.0011404 1.79388e-07 -1.32084e-06)
(0.00059602 9.94272e-07 -4.21778e-06)
(0.000596595 6.89549e-06 -4.30985e-06)
(0.00100542 2.7398e-06 -4.4786e-06)
(0.00100557 1.60899e-05 -4.57744e-06)
(0.000831152 -2.20926e-06 -9.88636e-08)
(0.000820364 -7.58481e-06 -2.43791e-07)
(0.00109537 -2.67722e-06 1.0959e-07)
(0.000834876 -2.15609e-06 6.48685e-08)
(0.000834864 -6.26267e-06 1.28105e-07)
(0.00111272 -3.11657e-06 1.91777e-07)
(0.000837354 -1.6621e-06 5.94386e-08)
(0.000836802 -4.52251e-06 3.69728e-08)
(0.00111471 -2.56561e-06 1.81533e-07)
(0.000838357 -1.16414e-06 7.63276e-08)
(0.000838774 -3.13477e-06 7.96015e-08)
(0.00111742 -1.81238e-06 1.48995e-07)
(0.000838599 -8.06034e-07 5.037e-08)
(0.000839094 -2.06275e-06 5.48228e-08)
(0.00111799 -1.25108e-06 1.84233e-07)
(0.00083806 -5.34005e-07 4.40617e-08)
(0.000838793 -1.32781e-06 5.10942e-08)
(0.00111783 -8.9474e-07 1.89678e-07)
(0.000837237 -3.30492e-07 1.53621e-08)
(0.000837988 -9.02247e-07 4.73679e-08)
(0.00111697 -5.46463e-07 1.86627e-07)
(0.00083614 -1.9861e-07 2.01489e-08)
(0.000836888 1.10793e-07 4.24272e-08)
(0.00111562 -3.52252e-07 1.41304e-07)
(0.000834883 -9.31207e-08 6.46262e-08)
(0.000835629 -3.50316e-07 4.94566e-08)
(0.00111401 -1.93395e-07 1.82363e-07)
(0.000833559 -2.7829e-08 6.4829e-08)
(0.000834233 -2.40517e-07 7.64582e-08)
(0.00111232 -7.20851e-08 1.75863e-07)
(0.000831926 3.1266e-08 -3.42054e-08)
(0.000832721 8.88282e-08 3.15954e-08)
(0.00111036 2.88709e-09 1.78732e-07)
(0.000830497 1.3484e-07 -5.25677e-08)
(0.000831227 -1.94348e-07 -2.96972e-08)
(0.00110831 1.17388e-07 1.427e-07)
(0.000828698 1.6084e-07 3.79577e-08)
(0.000829639 -2.26447e-07 1.07254e-07)
(0.00110612 2.77981e-07 1.3988e-07)
(0.000827115 2.33026e-07 7.49792e-08)
(0.00082813 9.24442e-10 1.02593e-07)
(0.00110383 1.84243e-07 1.73197e-07)
(0.000825585 2.41596e-07 7.34236e-08)
(0.00082645 4.47737e-07 5.83801e-08)
(0.0011018 4.50598e-07 1.66559e-07)
(0.000824029 1.53358e-07 5.12967e-08)
(0.000824712 1.37285e-07 3.45782e-08)
(0.00109976 1.96561e-07 1.82801e-07)
(0.000822386 1.89467e-07 3.51351e-08)
(0.000823251 -7.3049e-09 4.33112e-08)
(0.00109767 1.96706e-07 1.81059e-07)
(0.00082085 2.22053e-07 3.26851e-08)
(0.0008217 -1.16213e-07 5.25741e-08)
(0.00109549 2.58077e-07 1.79434e-07)
(0.000819312 2.02436e-07 4.44239e-08)
(0.000820154 -2.65165e-08 6.75748e-08)
(0.00109345 2.94191e-07 1.73069e-07)
(0.000817597 2.70424e-07 4.60689e-08)
(0.000818619 2.76608e-07 5.04319e-08)
(0.0010912 2.39232e-07 1.76308e-07)
(0.00081656 3.39612e-07 5.43556e-08)
(0.000817198 1.01452e-06 7.91915e-08)
(0.00108945 4.98554e-07 4.87259e-08)
(0.000814819 3.32436e-07 9.01226e-08)
(0.000815657 3.71539e-07 6.00991e-08)
(0.00108759 4.37999e-07 1.68297e-07)
(0.000813273 4.08052e-07 1.17845e-07)
(0.000814044 3.62205e-07 7.52573e-08)
(0.00108536 5.48602e-07 1.8543e-07)
(0.000812097 3.97505e-07 7.77781e-08)
(0.000812507 -2.29915e-06 4.11111e-08)
(0.00108362 6.52693e-07 2.86024e-07)
(0.0008103 2.14012e-07 3.74327e-08)
(0.00081093 -2.91941e-07 4.89785e-08)
(0.00108166 4.13931e-07 2.03584e-07)
(0.000808619 4.15028e-08 4.38558e-08)
(0.000809356 -2.04734e-07 -2.3054e-08)
(0.00107931 1.0846e-07 2.37671e-07)
(0.000807187 2.44964e-08 4.87601e-08)
(0.000807926 -1.55988e-08 4.31936e-08)
(0.00107723 -1.63312e-08 1.76277e-07)
(0.000805731 3.47762e-08 1.6453e-08)
(0.000806457 6.92533e-08 4.91859e-08)
(0.00107537 1.30235e-07 1.60638e-07)
(0.000804264 -3.62649e-08 2.3942e-08)
(0.000804865 4.62282e-08 1.58966e-08)
(0.00107326 3.63313e-08 1.65018e-07)
(0.00080276 -2.43081e-07 5.85878e-08)
(0.000803384 5.37347e-08 3.7218e-08)
(0.00107142 -8.96153e-08 1.80862e-07)
(0.000801107 -4.13386e-07 5.72847e-08)
(0.000801865 -3.03665e-07 5.62615e-08)
(0.00106926 -5.54338e-07 1.8849e-07)
(0.000799522 -3.2094e-07 6.54726e-08)
(0.000800386 3.47037e-07 8.13107e-08)
(0.00106697 -5.31038e-07 1.46283e-07)
(0.00079819 -2.13524e-07 3.84331e-08)
(0.000798979 -1.15275e-07 5.59047e-08)
(0.00106514 -2.78593e-07 1.81449e-07)
(0.000796785 -2.28936e-07 2.62435e-08)
(0.000797488 -1.25316e-07 2.22529e-08)
(0.00106329 -2.5838e-07 1.75536e-07)
(0.000795284 -2.14849e-07 5.24743e-08)
(0.000796014 3.19475e-09 4.44287e-08)
(0.00106136 -3.10706e-07 1.7812e-07)
(0.00079373 -1.42873e-07 6.07671e-08)
(0.000794578 1.14645e-07 6.3765e-08)
(0.00105939 -1.84867e-07 1.77395e-07)
(0.000792137 -8.69819e-08 6.393e-08)
(0.000793059 7.83555e-08 5.96868e-08)
(0.00105729 -1.15603e-07 1.70437e-07)
(0.000790916 -6.44056e-08 6.28766e-08)
(0.000791592 -1.83791e-07 5.57116e-08)
(0.00105535 -4.82559e-08 2.00437e-07)
(0.000789529 -1.22876e-07 5.93263e-08)
(0.000790191 -1.23253e-07 5.05966e-08)
(0.00105366 -6.09167e-08 1.77582e-07)
(0.00078809 -1.70061e-07 5.21657e-08)
(0.000788784 2.78485e-08 4.68047e-08)
(0.0010518 -2.27012e-07 1.73409e-07)
(0.000786657 -1.34764e-07 6.2913e-08)
(0.000787334 5.1123e-08 3.22581e-08)
(0.00104978 -1.96392e-07 1.72987e-07)
(0.000786053 1.49917e-07 7.60541e-08)
(0.00104798 -1.3699e-07 1.69602e-07)
(0.000871625 -8.5087e-07 -1.30882e-06)
(0.00064905 1.02271e-05 -3.5686e-06)
(0.000870751 3.00609e-06 -3.6239e-06)
(0.000858828 -7.429e-06 3.05638e-07)
(0.000960009 4.10803e-07 1.94194e-06)
(0.00128602 -8.83135e-06 7.72202e-07)
(0.000852137 -1.96361e-05 7.74748e-07)
(0.000795711 1.28568e-05 -6.36566e-07)
(0.00107526 1.26457e-06 4.24584e-07)
(0.000639441 -3.66052e-05 9.56904e-06)
(0.000832464 -1.31106e-05 4.80618e-06)
(0.00115359 -3.09627e-05 2.44385e-06)
(0.000561191 3.36617e-07 6.5214e-06)
(0.00109522 -9.27245e-05 2.93705e-06)
(0.000991913 0.000166469 4.88258e-06)
(0.000497193 -4.39506e-05 1.02209e-05)
(0.000542242 -0.000151461 4.28011e-06)
(0.000506856 -9.99428e-06 1.09142e-05)
(0.000955339 -8.16962e-05 5.91487e-06)
(0.00171492 6.48427e-05 5.77632e-05)
(0.000578749 -0.0001538 6.26477e-05)
(0.000839201 -3.6165e-05 5.52156e-05)
(0.000919511 6.02916e-05 7.44184e-05)
(0.00114902 -0.000138289 -2.15775e-05)
(0.000286944 2.9971e-05 -1.449e-06)
(0.00046649 1.1874e-05 -8.8035e-07)
(0.000447936 4.37421e-06 -2.95199e-06)
(0.000441352 -7.01491e-06 -5.61605e-07)
(0.000722178 1.38394e-05 -1.0522e-06)
(0.000299955 -4.25964e-06 -8.87174e-07)
(0.000530815 7.44238e-05 2.06287e-06)
(0.000562642 -1.52651e-05 1.94672e-06)
(0.00081745 -2.00934e-05 -9.75404e-07)
(0.000852276 -3.95371e-05 -1.96274e-06)
(0.00111654 -3.16946e-05 -1.25679e-06)
(0.000579989 -7.57521e-06 -3.78493e-06)
(0.000577452 -2.58007e-05 -4.01623e-06)
(0.000979734 -7.37215e-06 -3.97075e-06)
(0.000970365 -5.03609e-05 -4.19469e-06)
(0.000830411 -1.38519e-05 -1.69442e-08)
(0.000828272 -2.50888e-05 -2.35213e-07)
(0.00109215 -2.18854e-05 1.3432e-07)
(0.000836121 -9.39302e-06 1.00239e-07)
(0.000840496 -1.57106e-05 1.29073e-07)
(0.00111342 -1.50808e-05 2.04441e-07)
(0.000838797 -6.20359e-06 5.71217e-08)
(0.000840828 -9.9128e-06 4.66872e-08)
(0.00111668 -9.99443e-06 1.86366e-07)
(0.000839632 -4.04881e-06 5.81047e-08)
(0.000841494 -6.2547e-06 5.85666e-08)
(0.00111924 -6.57917e-06 1.88472e-07)
(0.000839487 -2.60084e-06 5.55482e-08)
(0.00084092 -3.9339e-06 5.41822e-08)
(0.00111951 -4.24429e-06 1.87099e-07)
(0.000838756 -1.66326e-06 5.44016e-08)
(0.000839976 -2.47701e-06 5.44355e-08)
(0.0011189 -2.68487e-06 1.87953e-07)
(0.000837672 -1.06396e-06 7.44346e-08)
(0.000838744 -1.5812e-06 5.28056e-08)
(0.00111766 -1.72843e-06 1.86099e-07)
(0.000836403 -7.01655e-07 7.17326e-08)
(0.000837345 -9.70747e-07 7.53085e-08)
(0.00111607 -1.10111e-06 2.29878e-07)
(0.000835061 -5.16823e-07 6.12799e-08)
(0.000835863 -7.0202e-07 4.74549e-08)
(0.00111432 -7.65637e-07 1.86243e-07)
(0.000833332 -4.56584e-07 4.3239e-08)
(0.000834311 1.36589e-07 5.78965e-08)
(0.00111232 -5.99997e-07 1.69333e-07)
(0.000832027 -3.8159e-07 3.61233e-08)
(0.000832817 6.40949e-07 4.19474e-08)
(0.00111025 -6.24295e-07 1.20863e-07)
(0.000830432 -3.05738e-07 1.30081e-07)
(0.000831323 -3.24605e-07 2.00043e-08)
(0.00110828 -4.17546e-07 1.93268e-07)
(0.000828959 -2.85187e-07 1.71891e-07)
(0.000829666 -4.2799e-07 6.40838e-08)
(0.00110624 -4.16372e-07 1.877e-07)
(0.000827689 -3.41172e-07 8.60083e-08)
(0.000828061 -4.73174e-07 9.76373e-08)
(0.00110447 -3.43946e-07 1.89269e-07)
(0.000825366 -3.19354e-07 1.95423e-08)
(0.000826478 2.47329e-06 3.00276e-08)
(0.00110205 -5.19018e-07 1.06987e-07)
(0.000824004 -1.77484e-07 2.65899e-08)
(0.00082489 8.09623e-07 1.15813e-07)
(0.00109948 -2.77611e-07 1.17556e-07)
(0.00082255 -6.78747e-08 6.07472e-08)
(0.000823389 -2.00316e-07 5.93324e-08)
(0.00109768 -1.90948e-07 1.86317e-07)
(0.000820986 5.47071e-08 8.7459e-08)
(0.000821853 -1.3488e-07 6.53661e-08)
(0.00109574 -2.96862e-08 1.83909e-07)
(0.000819464 1.0232e-07 7.35883e-08)
(0.000820214 -1.49482e-07 8.0499e-08)
(0.00109365 1.42793e-07 1.87629e-07)
(0.000818161 4.52842e-07 8.35454e-08)
(0.000819056 -4.66459e-08 5.07909e-08)
(0.00109179 1.29899e-07 1.82727e-07)
(0.000816456 7.82911e-07 8.4941e-08)
(0.000817607 -1.23924e-06 1.21819e-07)
(0.00108974 1.08526e-06 3.54436e-07)
(0.000814712 6.21607e-07 4.5229e-08)
(0.000815451 5.06556e-07 9.28494e-08)
(0.00108753 1.01663e-06 1.89576e-07)
(0.000813326 4.21042e-07 -1.46639e-09)
(0.00081379 3.68844e-07 2.30331e-08)
(0.00108547 7.01821e-07 1.67287e-07)
(0.00081143 2.12882e-07 1.2309e-08)
(0.000812244 -2.25536e-07 -1.27482e-07)
(0.00108303 5.07785e-07 6.60587e-08)
(0.000809925 8.93644e-09 -1.14857e-08)
(0.000810674 -2.24486e-07 6.2457e-08)
(0.00108082 1.40898e-07 1.73678e-07)
(0.0008086 -5.17395e-08 -2.37369e-08)
(0.00080928 -3.44714e-07 -2.45977e-08)
(0.00107905 -7.40113e-08 1.72699e-07)
(0.0008072 -1.26382e-07 4.36175e-08)
(0.000807833 1.45499e-07 4.66806e-08)
(0.00107735 -7.42093e-08 1.58077e-07)
(0.000805595 -1.94617e-07 4.86399e-08)
(0.000806372 1.13471e-07 5.99493e-08)
(0.00107524 -3.33658e-07 1.84799e-07)
(0.000804014 -1.72626e-07 2.9166e-08)
(0.000804894 -1.11541e-07 4.45045e-08)
(0.00107301 -2.91792e-07 1.97337e-07)
(0.000802499 -2.03406e-07 3.48858e-08)
(0.000803347 3.34939e-07 2.60193e-08)
(0.00107091 -2.60803e-07 1.60129e-07)
(0.000801094 -3.22552e-07 8.02798e-08)
(0.000801717 -2.24547e-07 5.86871e-08)
(0.00106904 -3.88854e-07 1.6496e-07)
(0.000799828 -2.69754e-07 7.17507e-08)
(0.000800454 -3.28993e-07 8.47175e-08)
(0.00106739 -5.34716e-07 2.06963e-07)
(0.000798336 -1.29446e-07 3.97349e-08)
(0.000799156 -1.51657e-07 3.95329e-08)
(0.00106544 -1.80795e-07 1.81446e-07)
(0.000796687 -1.17039e-07 4.04313e-08)
(0.000797503 6.9772e-08 1.09391e-07)
(0.00106331 -1.36971e-07 1.78913e-07)
(0.000795304 -9.84792e-08 5.57135e-08)
(0.000796038 -1.26718e-07 5.63248e-08)
(0.00106136 -1.07004e-07 1.78731e-07)
(0.000793931 -5.63152e-08 6.26859e-08)
(0.00079463 4.34279e-08 6.30595e-08)
(0.00105952 -7.45173e-08 1.73669e-07)
(0.000792463 3.88836e-08 5.14696e-08)
(0.000793178 6.88514e-08 1.1605e-07)
(0.00105757 -1.62271e-08 1.77941e-07)
(0.000790881 1.08146e-07 4.34332e-08)
(0.000791679 9.4795e-09 4.63918e-08)
(0.0010556 1.49267e-07 1.73823e-07)
(0.000789421 7.60228e-08 3.80762e-08)
(0.000790151 -1.0959e-07 4.63417e-08)
(0.00105355 1.6306e-07 1.75884e-07)
(0.00078803 1.73077e-08 2.69016e-08)
(0.000788711 -2.85642e-08 3.53072e-08)
(0.00105165 5.50178e-08 1.74844e-07)
(0.000786644 -2.1576e-08 4.5386e-08)
(0.000787286 -6.43237e-08 3.57009e-08)
(0.00104975 -2.97918e-08 1.78827e-07)
(0.00078608 5.3493e-08 8.13656e-08)
(0.00104806 -5.91629e-08 1.75969e-07)
(0.000854138 9.79197e-06 -3.19682e-07)
(0.000648345 1.18566e-05 -3.69764e-06)
(0.000864729 1.86496e-05 -1.84076e-06)
(0.000828416 1.70177e-05 1.00059e-06)
(0.000967802 2.76167e-06 2.25609e-06)
(0.00127114 9.74323e-06 2.06437e-06)
(0.000819953 1.94e-05 3.39306e-06)
(0.000799718 3.83359e-05 -3.02931e-07)
(0.00105396 4.15226e-05 -9.60035e-07)
(0.000389712 4.84897e-05 -6.67712e-06)
(0.000861226 6.67835e-06 5.33048e-06)
(0.0011431 2.79912e-05 7.77652e-06)
(0.000589762 5.34524e-05 1.03954e-05)
(0.000938886 0.000115013 1.01154e-06)
(0.000930443 1.46969e-06 7.23402e-06)
(0.000366569 1.42983e-05 -2.52152e-06)
(0.000445925 3.91229e-05 -6.47868e-06)
(0.000393099 9.92755e-05 -8.63698e-07)
(0.000565277 0.000116912 -1.04248e-05)
(0.000219274 -2.66312e-05 2.99847e-06)
(0.00031457 -3.36227e-05 3.406e-06)
(0.000604084 2.92057e-05 5.88746e-05)
(0.000304626 -9.65612e-05 6.27706e-06)
(0.000406551 -0.000111405 -1.96427e-05)
(0.000295695 -7.48138e-05 1.83438e-05)
(0.000458826 -4.29059e-05 7.01366e-07)
(0.000462166 -4.12521e-05 -3.61044e-06)
(0.000856112 -9.55607e-05 6.07736e-06)
(0.000335638 -7.24687e-05 2.05974e-05)
(0.000713772 -0.000138724 4.86672e-05)
(0.00074676 -0.000123275 5.13432e-05)
(0.000307193 -4.4072e-05 3.4505e-06)
(0.000789024 -0.000115454 1.4003e-05)
(0.000659177 -4.93462e-05 -2.17847e-06)
(0.000251813 -1.81457e-05 -2.37886e-06)
(0.000841096 -3.76444e-05 -1.22312e-06)
(0.000893053 -4.55664e-05 -1.86663e-06)
(0.00115645 -6.08115e-05 -1.42522e-06)
(0.00060275 -4.0163e-05 -4.68755e-06)
(0.000612829 -4.4843e-05 -4.83004e-06)
(0.00101979 -7.26527e-05 -5.0176e-06)
(0.00103956 -8.38217e-05 -5.22872e-06)
(0.000844349 -2.3952e-05 -8.93148e-08)
(0.00084558 -3.02875e-05 -3.47267e-07)
(0.00111642 -3.98808e-05 1.24933e-07)
(0.000844537 -1.46624e-05 7.55481e-08)
(0.000852205 -1.81502e-05 1.48061e-07)
(0.00112774 -2.41588e-05 1.98537e-07)
(0.000843977 -9.1264e-06 4.81283e-08)
(0.000847808 -1.12272e-05 3.81732e-08)
(0.00112544 -1.505e-05 1.84792e-07)
(0.000842861 -5.68243e-06 5.46455e-08)
(0.000845836 -6.92353e-06 5.60321e-08)
(0.00112468 -9.35795e-06 1.88084e-07)
(0.000841491 -3.54946e-06 5.30694e-08)
(0.00084361 -4.27322e-06 5.15298e-08)
(0.0011229 -5.83812e-06 1.87227e-07)
(0.000840005 -2.22835e-06 5.284e-08)
(0.000841642 -2.66564e-06 5.1982e-08)
(0.00112101 -3.64826e-06 1.86954e-07)
(0.000838436 -1.41e-06 5.36723e-08)
(0.000839776 -1.66083e-06 5.18907e-08)
(0.00111897 -2.30195e-06 1.86571e-07)
(0.000836815 -9.10666e-07 5.10398e-08)
(0.000837975 -1.04127e-06 5.29438e-08)
(0.00111684 -1.45994e-06 1.90639e-07)
(0.000835134 -6.20609e-07 4.40682e-08)
(0.000836229 -6.15725e-07 4.97223e-08)
(0.00111464 -9.66787e-07 1.85216e-07)
(0.000833735 -4.18097e-07 5.661e-08)
(0.000834567 7.73952e-08 3.91638e-08)
(0.0011125 -6.80753e-07 1.70993e-07)
(0.00083216 -2.81676e-07 2.58354e-08)
(0.000832989 -1.27794e-06 3.06346e-08)
(0.00111059 -4.515e-07 3.1502e-07)
(0.000830604 -2.57728e-07 -4.60065e-08)
(0.000831355 -2.74946e-07 1.64108e-08)
(0.00110858 -3.32422e-07 1.77406e-07)
(0.000828695 -2.61407e-07 -1.01805e-08)
(0.000829663 2.97074e-08 -3.5766e-08)
(0.00110622 -3.7217e-07 1.7982e-07)
(0.000826867 -3.8535e-07 4.16782e-08)
(0.000827908 -1.42154e-07 5.29874e-08)
(0.00110371 -3.36316e-07 1.81764e-07)
(0.000825965 -3.93314e-07 1.26271e-07)
(0.00082647 3.40202e-07 5.35906e-08)
(0.00110188 -6.83077e-07 2.72944e-07)
(0.000824334 -1.92614e-07 1.48574e-07)
(0.000825142 1.9863e-08 1.37002e-07)
(0.00110017 -3.42694e-07 2.43145e-07)
(0.000822698 -1.35754e-07 6.39493e-08)
(0.00082346 -5.23443e-07 3.58554e-08)
(0.00109798 -1.26794e-07 2.11269e-07)
(0.000821078 -1.1309e-07 5.84013e-08)
(0.000821882 -5.00839e-08 4.669e-08)
(0.0010959 -1.66267e-07 1.81577e-07)
(0.000819512 -1.3027e-08 5.77111e-08)
(0.000820339 -3.24984e-08 5.34729e-08)
(0.00109365 -8.86208e-08 1.74711e-07)
(0.000818951 -1.69194e-07 8.90424e-08)
(0.000818861 -1.10382e-06 6.16449e-08)
(0.00109237 7.80402e-08 1.6917e-07)
(0.000816588 -5.84551e-07 1.29737e-07)
(0.000817089 1.11311e-06 8.4395e-08)
(0.00109055 -4.85041e-07 8.78233e-08)
(0.000814204 -6.68179e-07 7.06754e-08)
(0.000815349 -1.7816e-06 5.03561e-08)
(0.00108711 -1.00073e-06 4.17074e-07)
(0.00081286 -5.29623e-07 -1.02935e-07)
(0.000813966 1.10221e-06 3.65668e-08)
(0.00108471 -7.58311e-07 1.12117e-07)
(0.000811474 -3.71822e-07 -7.73932e-08)
(0.000812444 -4.47024e-07 -8.27237e-08)
(0.00108291 -6.93169e-07 1.83507e-07)
(0.000810027 -1.60029e-07 4.93722e-08)
(0.000810941 -2.20855e-07 5.08518e-08)
(0.00108093 -3.07411e-07 1.73105e-07)
(0.000808485 -3.52957e-08 4.57976e-08)
(0.000809437 1.41213e-08 4.25161e-08)
(0.00107904 -9.81071e-08 1.56484e-07)
(0.00080701 1.14203e-09 6.30083e-08)
(0.00080788 -6.50955e-07 2.91239e-08)
(0.00107691 -2.23838e-10 2.33009e-07)
(0.000805658 -5.63065e-09 5.58187e-08)
(0.000806365 1.76658e-07 4.32992e-08)
(0.0010751 -6.00144e-08 1.60845e-07)
(0.000804251 7.27276e-09 4.13636e-08)
(0.000804911 -8.02567e-08 5.62662e-08)
(0.00107336 -3.57326e-08 1.68324e-07)
(0.000802706 8.75639e-08 4.98106e-08)
(0.000803448 2.64189e-07 5.11713e-08)
(0.0010713 -1.68584e-09 1.88063e-07)
(0.000800716 2.41522e-07 6.31168e-08)
(0.000801909 3.30263e-07 5.863e-08)
(0.00106892 1.90094e-07 1.83295e-07)
(0.000800038 2.49705e-07 5.25137e-08)
(0.000800464 -1.28692e-06 6.13332e-08)
(0.00106723 3.91249e-07 1.74335e-07)
(0.000798318 1.30599e-07 1.09167e-07)
(0.000799006 2.26771e-07 4.23603e-08)
(0.00106564 2.01755e-07 1.721e-07)
(0.000796763 1.00189e-07 1.253e-07)
(0.000797465 2.91961e-07 1.12939e-07)
(0.00106339 1.08681e-07 1.68491e-07)
(0.000795384 6.90472e-08 6.36688e-08)
(0.000795999 -2.01536e-07 7.33445e-08)
(0.00106144 1.45491e-07 1.74379e-07)
(0.000793907 7.81825e-09 1.16407e-07)
(0.000794554 -1.25274e-07 3.74231e-08)
(0.0010595 1.00245e-08 1.90172e-07)
(0.000792429 -6.70914e-11 1.10993e-07)
(0.000793168 7.29476e-08 1.18224e-07)
(0.00105757 -2.21302e-08 1.77862e-07)
(0.000790878 4.74325e-08 4.93004e-08)
(0.000791738 1.25071e-07 4.99037e-08)
(0.00105557 1.49557e-09 1.76611e-07)
(0.000789423 1.28175e-07 4.35761e-08)
(0.000790252 -2.7713e-08 6.13997e-08)
(0.00105354 9.4916e-08 1.70439e-07)
(0.000787997 1.34553e-07 4.41064e-08)
(0.000788719 -3.06005e-08 3.8215e-08)
(0.00105156 2.09238e-07 1.74019e-07)
(0.000786599 6.43438e-08 7.16666e-08)
(0.000787198 -5.76603e-08 5.02223e-08)
(0.00104964 1.0069e-07 1.71142e-07)
(0.000785998 -8.00495e-08 9.34828e-08)
(0.00104809 1.90807e-08 1.79326e-07)
(0.000879277 3.68475e-06 -1.12385e-06)
(0.000645349 7.09498e-06 -3.75861e-06)
(0.000866147 1.73234e-05 -3.51314e-06)
(0.000870079 1.74083e-05 9.5342e-07)
(0.000983082 -4.60573e-06 1.72542e-06)
(0.00130858 3.93536e-06 1.33379e-06)
(0.000881821 1.03944e-05 1.63263e-06)
(0.000802376 2.12227e-05 -8.7197e-08)
(0.00108885 5.0331e-05 1.98583e-07)
(0.000659144 5.20598e-05 6.04999e-06)
(0.000877307 -2.68119e-05 5.23734e-06)
(0.00123892 -9.21027e-06 2.6562e-06)
(0.000662952 -3.63656e-05 5.90065e-06)
(0.0011168 0.000121011 2.98644e-06)
(0.0010718 1.8022e-05 2.36947e-06)
(0.000520345 6.61102e-05 9.6698e-06)
(0.000593974 8.0479e-05 4.85055e-06)
(0.0005668 3.35579e-05 7.28398e-06)
(0.000924051 0.000138128 7.68962e-06)
(0.000257689 0.000306369 7.43132e-06)
(0.000432015 0.000102633 1.57788e-05)
(0.000237698 6.81766e-05 7.48504e-06)
(0.000356073 -0.000193423 1.25768e-05)
(0.000428195 0.000180714 5.00181e-05)
(0.00104326 -9.88654e-05 2.24926e-05)
(0.000425977 -5.25196e-05 2.30295e-05)
(0.000520089 -8.22972e-05 3.97753e-05)
(0.000633985 -0.000103852 6.50311e-05)
(0.000295986 -4.52219e-05 1.64211e-05)
(0.000867026 -3.79621e-05 -9.91277e-07)
(0.000924828 -4.22957e-05 -2.0336e-06)
(0.0012253 -6.4088e-05 -1.21903e-06)
(0.000634677 -4.87022e-05 -5.13671e-06)
(0.000644071 -4.30318e-05 -5.00897e-06)
(0.00105988 -9.37404e-05 -5.2099e-06)
(0.0010793 -7.97409e-05 -3.5224e-06)
(0.000859802 -2.25701e-05 -1.10053e-07)
(0.000864875 -2.1945e-05 -3.25858e-07)
(0.00113849 -3.76641e-05 9.41013e-08)
(0.000854147 -1.36477e-05 1.10722e-07)
(0.000863451 -1.34126e-05 1.19214e-07)
(0.00114472 -2.27984e-05 2.07501e-07)
(0.000849866 -8.28418e-06 4.60712e-08)
(0.000854569 -7.91307e-06 2.44681e-08)
(0.00113534 -1.37551e-05 1.86612e-07)
(0.000846489 -5.04411e-06 5.29178e-08)
(0.00084992 -4.78518e-06 6.91519e-08)
(0.00113086 -8.42854e-06 1.89451e-07)
(0.000843736 -3.07298e-06 5.04423e-08)
(0.000846095 -2.88899e-06 6.27372e-08)
(0.00112671 -5.068e-06 1.87747e-07)
(0.000841389 -1.89414e-06 5.10327e-08)
(0.000843128 -1.77768e-06 5.11911e-08)
(0.00112336 -3.14985e-06 1.87009e-07)
(0.000839304 -1.1625e-06 5.11619e-08)
(0.000840698 -1.09291e-06 5.00035e-08)
(0.00112042 -1.91538e-06 1.86512e-07)
(0.000837378 -7.28271e-07 5.16274e-08)
(0.000838523 -6.64517e-07 4.90636e-08)
(0.00111776 -1.19299e-06 1.86162e-07)
(0.000835592 -4.34819e-07 4.48214e-08)
(0.000836599 -4.07259e-07 5.20364e-08)
(0.0011153 -7.54772e-07 1.85849e-07)
(0.000833888 -2.45801e-07 1.31911e-08)
(0.000834805 -2.59268e-07 4.25253e-08)
(0.00111298 -4.06017e-07 2.16496e-07)
(0.000832167 -2.12936e-07 2.12145e-08)
(0.000833031 -2.12898e-07 3.57506e-08)
(0.00111069 -2.26341e-07 1.21338e-07)
(0.000830412 -2.27501e-07 2.6668e-08)
(0.000831337 -7.34148e-09 3.53784e-08)
(0.00110838 -3.02317e-07 1.79525e-07)
(0.000828927 -1.7741e-07 2.73735e-08)
(0.000829726 -1.05539e-07 -7.12268e-09)
(0.00110624 -2.64407e-07 1.84165e-07)
(0.000827263 -1.90138e-08 6.48997e-08)
(0.000828106 -6.95529e-08 9.84136e-08)
(0.00110409 -1.7805e-07 1.8541e-07)
(0.00082583 3.63804e-08 6.42947e-08)
(0.000826539 1.27921e-07 6.25062e-08)
(0.00110205 1.17819e-07 1.8546e-07)
(0.000824301 -2.28648e-08 2.43158e-08)
(0.000825068 -8.29537e-08 3.49277e-08)
(0.00110018 -3.72824e-08 1.86319e-07)
(0.000822558 -2.13561e-08 1.85927e-08)
(0.000823462 2.87509e-08 2.59734e-08)
(0.0010979 3.00758e-09 1.594e-07)
(0.000821213 -7.07244e-08 4.17594e-08)
(0.00082182 -1.73761e-07 5.55143e-08)
(0.00109579 -1.0922e-08 1.7208e-07)
(0.000819564 -1.00675e-07 5.74041e-08)
(0.000820301 4.33292e-08 3.27715e-08)
(0.00109396 -1.40905e-07 1.84849e-07)
(0.00081724 -4.21381e-07 5.69903e-08)
(0.000818461 -4.60111e-07 5.79746e-08)
(0.0010913 -1.12377e-07 2.04554e-07)
(0.000815594 -7.73101e-07 5.02498e-09)
(0.000816652 2.88515e-06 -1.27159e-07)
(0.00108839 -1.01457e-06 6.53489e-08)
(0.000815182 -6.20961e-07 1.62518e-08)
(0.000815543 2.10243e-07 2.10703e-08)
(0.00108719 -1.04289e-06 -5.90888e-08)
(0.000813546 -3.68893e-07 5.68155e-08)
(0.000814283 6.92736e-07 6.58009e-08)
(0.00108586 -6.16612e-07 2.18841e-07)
(0.000811902 -1.7893e-07 4.54795e-08)
(0.000812682 -3.56346e-07 6.60148e-08)
(0.00108359 -3.80928e-07 1.84318e-07)
(0.000810367 -4.68274e-08 4.39983e-08)
(0.000811106 4.5369e-08 4.79723e-08)
(0.00108157 -1.17575e-07 1.62287e-07)
(0.000808815 1.12577e-08 2.58466e-08)
(0.000809509 7.77339e-08 5.0296e-08)
(0.00107944 -3.87603e-08 1.78442e-07)
(0.00080728 9.6323e-08 9.41039e-09)
(0.000807986 -1.39597e-07 2.16991e-08)
(0.0010774 3.72338e-08 1.45133e-07)
(0.000805534 1.25401e-07 4.37427e-08)
(0.000806401 1.14042e-07 3.22764e-08)
(0.0010752 1.97651e-07 2.05016e-07)
(0.000804109 6.33304e-08 6.60755e-08)
(0.000804833 -2.54009e-07 3.88936e-08)
(0.00107309 1.05682e-07 1.84509e-07)
(0.000802791 7.48398e-08 5.99884e-08)
(0.000803462 -1.19056e-07 6.45133e-08)
(0.00107119 2.32569e-08 1.90184e-07)
(0.000801451 2.96968e-07 5.68456e-08)
(0.000802187 9.91108e-08 6.22493e-08)
(0.00106953 1.75587e-07 1.81376e-07)
(0.00079958 3.03313e-07 5.11857e-08)
(0.000800471 -8.13414e-07 1.09231e-07)
(0.00106741 5.79638e-07 1.78657e-07)
(0.000798075 1.07998e-07 4.61108e-08)
(0.000798762 2.78547e-07 5.02567e-08)
(0.00106509 1.3919e-07 1.76184e-07)
(0.000796696 7.93022e-08 6.09955e-08)
(0.000797429 7.39162e-07 6.0978e-08)
(0.00106324 6.31851e-08 1.36463e-07)
(0.000795175 7.80724e-08 4.71098e-08)
(0.000795997 -9.55679e-08 8.53781e-08)
(0.00106123 5.04698e-08 1.74116e-07)
(0.00079381 4.92522e-08 3.92159e-08)
(0.000794518 -1.09655e-07 3.24431e-08)
(0.00105931 5.8278e-08 1.66588e-07)
(0.000792493 1.13141e-08 5.71559e-08)
(0.000793121 -5.13157e-08 6.73264e-08)
(0.00105756 -2.24506e-08 1.72642e-07)
(0.000791119 1.19083e-08 6.19995e-08)
(0.000791739 3.44011e-08 5.05679e-08)
(0.00105575 -3.70666e-08 1.75491e-07)
(0.000789522 2.61996e-08 5.60456e-08)
(0.00079027 1.70142e-07 6.03399e-08)
(0.00105381 -1.09357e-08 1.74948e-07)
(0.000787954 5.17321e-08 4.43271e-08)
(0.000788751 2.01803e-07 1.32255e-08)
(0.00105165 -2.29913e-09 1.69872e-07)
(0.000786484 7.9503e-08 7.20253e-08)
(0.000787232 -9.15494e-09 4.46719e-08)
(0.00104951 7.78058e-08 1.74618e-07)
(0.0007859 -1.4748e-07 9.19192e-08)
(0.0010479 1.16861e-07 1.80696e-07)
(0.000865272 -3.29558e-07 -9.11157e-07)
(0.000644664 3.51252e-06 -3.60109e-06)
(0.00085826 5.99047e-06 -2.42373e-06)
(0.000850324 4.39135e-06 6.85409e-07)
(0.000988618 8.59534e-07 1.31756e-06)
(0.00130801 -2.56296e-06 9.59081e-07)
(0.000837626 -5.61528e-06 3.51575e-06)
(0.000805239 1.54711e-05 -7.40172e-07)
(0.00105809 2.07668e-05 1.48445e-06)
(0.000400669 3.52152e-05 1.47039e-06)
(0.000914766 8.30993e-06 5.23623e-06)
(0.00122086 -2.25558e-05 7.74513e-06)
(0.000666464 0.000107933 1.10671e-05)
(0.000645979 5.42221e-05 -4.90299e-06)
(0.00115934 0.000143727 7.8857e-06)
(0.000420699 7.76177e-06 2.90909e-06)
(0.000284402 4.30051e-05 3.12432e-06)
(0.000425712 0.000164445 5.84534e-06)
(0.000410616 7.8983e-05 -7.57575e-07)
(0.000203516 0.0001063 -3.66575e-06)
(3.95294e-05 0.00011994 -2.95839e-06)
(5.9423e-05 0.000133255 -1.25066e-05)
(0.000170292 0.000238949 5.41413e-06)
(0.000301696 0.000261356 -1.05992e-05)
(0.00174312 -1.60943e-05 7.37918e-05)
(0.000412112 -0.000120769 5.50803e-05)
(0.000471858 -4.54824e-05 5.95589e-05)
(0.00066204 -5.60058e-05 0.000105616)
(0.000430344 -5.2657e-05 3.23618e-05)
(0.000891536 -1.90761e-05 -1.36874e-06)
(0.000931468 -2.78083e-06 -2.51232e-06)
(0.0012416 -3.41121e-05 -1.57155e-06)
(0.000670009 -9.51347e-06 -5.36659e-06)
(0.000664044 1.2321e-06 -4.19182e-06)
(0.00114124 -1.14163e-05 -4.71723e-06)
(0.00114024 1.38794e-05 -7.93594e-07)
(0.000873768 -1.0139e-05 -9.67374e-08)
(0.000876357 -9.26809e-07 -2.50904e-07)
(0.00116815 -1.69926e-05 1.29274e-07)
(0.000862141 -6.07442e-06 3.2991e-08)
(0.000868573 -1.26275e-06 6.70344e-08)
(0.00115787 -1.02526e-05 2.11004e-07)
(0.000854467 -3.61988e-06 4.75342e-08)
(0.000857662 -3.5445e-07 2.26368e-08)
(0.00114356 -6.07302e-06 1.86382e-07)
(0.000849309 -2.23156e-06 7.89734e-08)
(0.000851671 -6.15022e-07 5.70214e-08)
(0.00113563 -3.65972e-06 2.02812e-07)
(0.000845326 -1.39948e-06 6.34898e-08)
(0.000847144 -4.95195e-07 6.55292e-08)
(0.00112956 -2.35236e-06 2.23844e-07)
(0.000842362 -8.72342e-07 5.01623e-08)
(0.000843792 -1.68154e-07 5.11425e-08)
(0.00112498 -1.42322e-06 1.90478e-07)
(0.000839877 -5.64448e-07 4.79055e-08)
(0.000841087 -1.7089e-09 5.10226e-08)
(0.00112144 -9.28096e-07 1.85014e-07)
(0.00083768 -3.4721e-07 4.94716e-08)
(0.000838796 6.19178e-08 5.57473e-08)
(0.0011183 -5.88933e-07 1.85403e-07)
(0.000835794 -2.09467e-07 4.97434e-08)
(0.000836772 -7.06133e-08 5.19209e-08)
(0.00111563 -3.37264e-07 1.85683e-07)
(0.000833965 -1.21711e-07 6.5087e-08)
(0.000834915 2.51144e-08 4.69572e-08)
(0.00111317 -2.16166e-07 1.84487e-07)
(0.00083216 -4.05029e-08 4.99146e-08)
(0.000833133 -1.20699e-07 7.3021e-08)
(0.00111073 -9.57342e-08 1.95835e-07)
(0.000830613 9.9582e-10 1.60128e-09)
(0.000831389 -1.35158e-07 -6.34244e-09)
(0.00110853 5.01507e-09 1.88883e-07)
(0.000828951 3.24481e-08 6.38836e-08)
(0.000829765 3.68873e-08 1.14615e-07)
(0.00110637 3.06579e-08 1.80229e-07)
(0.000827343 7.51535e-08 9.60316e-08)
(0.000828159 -6.45445e-08 1.15398e-07)
(0.00110419 9.92978e-08 1.85384e-07)
(0.000825758 8.98336e-08 3.3148e-08)
(0.000826557 2.80918e-08 4.48887e-08)
(0.00110206 1.4676e-07 1.90798e-07)
(0.00082428 1.31441e-08 3.65882e-08)
(0.000824972 -2.87924e-07 6.04194e-08)
(0.00110003 1.36559e-07 1.88894e-07)
(0.000822691 -2.64123e-08 6.28857e-08)
(0.000823412 2.68128e-07 6.16119e-08)
(0.00109801 -7.27205e-08 1.67871e-07)
(0.000820901 -4.35284e-08 4.65336e-08)
(0.000821799 -7.47215e-08 5.70619e-08)
(0.00109572 3.47658e-08 1.95479e-07)
(0.00081936 -1.57232e-07 3.33339e-08)
(0.00082016 3.89877e-08 3.73352e-08)
(0.00109352 -1.14893e-07 1.80946e-07)
(0.000817688 -9.33307e-08 -1.26116e-07)
(0.000818542 -8.51927e-08 4.65466e-08)
(0.00109129 -2.95965e-07 1.66076e-07)
(0.000816402 1.83594e-07 -1.1116e-07)
(0.000816999 2.7018e-08 -1.19522e-07)
(0.00108939 6.34647e-09 3.60074e-07)
(0.000814926 2.14079e-07 7.06054e-08)
(0.000815581 7.37031e-08 1.22057e-07)
(0.00108761 3.87213e-07 1.85078e-07)
(0.000813309 1.9673e-07 7.50001e-08)
(0.000814262 3.65988e-07 7.47371e-08)
(0.00108555 5.06657e-08 2.11309e-07)
(0.000811973 2.31871e-07 6.85132e-08)
(0.000812726 -1.80132e-06 3.64816e-08)
(0.00108354 3.32803e-07 2.65837e-07)