/*--------------------------------*- C++ -*----------------------------------*\
| =========                 |                                                 |
| \\      /  F ield         | OpenFOAM: The Open Source CFD Toolbox           |
|  \\    /   O peration     | Version:  5.0                                   |
|   \\  /    A nd           | Web:      www.OpenFOAM.org                      |
|    \\/     M anipulation  |                                                 |
\*---------------------------------------------------------------------------*/
FoamFile
{
    version     2.0;
    format      ascii;
    class       surfaceScalarField;
    location    "4.5";
    object      alphaPhi10;
}
// * * * * * * * * * * * * * * * * * * * * * * * * * * * * * * * * * * * * * //

dimensions      [0 3 -1 0 0 0 0];

internalField   nonuniform List<scalar> 
26170
(
7.68771e-10
1.41818e-08
-1.38251e-07
5.21522e-08
-1.00312e-07
-8.94768e-08
-1.85105e-08
3.94301e-08
-1.70641e-07
4.59878e-08
-1.81827e-08
9.05708e-08
-1.31023e-09
-5.03034e-09
8.40792e-08
3.70212e-09
4.83465e-08
2.98593e-08
-8.2966e-09
-5.01084e-09
-6.58487e-09
9.90101e-08
8.27869e-08
8.67126e-08
1.83531e-08
-1.34547e-08
7.54842e-09
-1.15937e-08
-4.09815e-09
-1.83812e-09
2.03077e-08
-1.70948e-10
6.28058e-08
6.28417e-08
6.28695e-08
1.69693e-16
-9.93016e-09
-9.93016e-09
-9.93016e-09
-4.49657e-24
2.44464e-22
1.12867e-22
-7.24108e-22
-5.79022e-22
4.1437e-22
-4.24378e-22
9.47358e-27
1.09322e-25
-9.93095e-27
1.09094e-27
1.3525e-27
-7.53586e-30
2.36909e-29
7.32324e-30
-2.36249e-31
8.67462e-33
6.04053e-33
-6.07396e-33
5.57965e-37
2.4636e-36
-6.16866e-35
1.52975e-40
4.34952e-40
-9.66294e-40
6.18333e-44
7.78079e-44
-2.38514e-41
2.57943e-47
2.58794e-47
-4.70275e-45
1.08804e-50
7.89992e-51
-5.90089e-48
4.58527e-54
3.28786e-54
-1.0445e-50
1.92484e-57
7.38041e-58
9.20959e-55
8.30239e-61
2.76711e-61
1.67109e-57
3.53611e-64
3.38408e-65
-2.39328e-60
1.47887e-67
-1.46765e-68
6.72814e-64
6.24945e-71
7.83945e-72
2.7456e-68
3.42092e-74
-6.38812e-75
2.20142e-70
2.42045e-77
2.17632e-78
-8.12982e-73
7.42264e-81
1.2048e-81
2.48991e-76
4.01817e-84
-8.58166e-86
-9.99234e-80
4.10333e-87
1.07027e-87
-2.12296e-82
1.20456e-90
-1.18984e-91
2.53825e-86
6.50848e-94
2.3299e-94
4.47272e-91
3.28329e-97
3.12194e-98
-3.98154e-93
8.5999e-100
-5.47495e-101
1.52471e-95
1.859e-102
-5.322e-103
-7.56469e-98
3.66611e-106
-2.43453e-108
4.81886e-103
2.54116e-109
3.00089e-110
1.09275e-104
2.9038e-112
3.36644e-114
1.90203e-107
7.12711e-115
5.53438e-116
-4.16951e-111
6.98007e-119
1.02569e-121
1.83212e-118
2.46398e-122
-4.79947e-123
3.29894e-123
2.45483e-125
8.55977e-127
-4.88873e-121
3.91074e-128
-4.9056e-130
-2.20785e-124
5.93747e-131
1.11626e-131
-1.97934e-126
1.50545e-133
5.43884e-134
-9.03726e-130
2.04489e-137
-2.91235e-138
2.48505e-133
1.73036e-140
9.2738e-141
-3.94648e-136
3.38752e-144
6.98385e-145
-1.66546e-139
4.60908e-147
-2.45336e-150
-9.82955e-144
4.04928e-149
3.95448e-150
-1.17695e-145
6.3139e-154
6.16585e-154
5.76151e-08
8.7121e-09
-3.06892e-07
2.3386e-08
-6.5128e-10
-7.09565e-08
-1.11047e-09
1.80157e-09
4.19721e-10
-1.03763e-07
-9.04658e-08
-6.61789e-08
2.11926e-08
-2.3213e-08
-9.09679e-08
1.5298e-08
2.07395e-08
1.50117e-08
-2.68483e-08
-2.28338e-08
-2.55274e-08
2.36528e-08
7.77624e-08
1.28389e-07
-8.26624e-09
-6.59373e-09
2.22915e-08
2.37751e-08
4.41722e-08
-4.75065e-08
2.18845e-08
1.97947e-08
1.98492e-08
1.86135e-08
2.21619e-08
-7.03012e-09
2.25182e-08
-1.06822e-08
2.87832e-09
-8.91727e-09
7.74761e-11
-1.81009e-10
1.80409e-08
-1.66733e-11
1.79835e-08
-2.40363e-18
1.73471e-18
2.76599e-08
2.83239e-18
-2.66556e-18
-3.18255e-18
-1.82842e-18
1.38735e-18
-1.13169e-24
3.23474e-22
2.32279e-23
6.43165e-22
2.26465e-21
1.01966e-21
-1.70756e-21
1.321e-25
4.57307e-26
2.29102e-26
1.39663e-27
6.94547e-27
-2.64474e-30
5.23405e-31
1.68343e-28
-1.24098e-29
1.51391e-34
8.73676e-31
-2.07305e-32
7.81479e-38
1.0085e-34
-3.94206e-36
2.03921e-41
1.04333e-38
-8.02806e-40
7.54468e-45
3.3626e-42
-1.57054e-42
3.18227e-48
8.71645e-46
-8.40702e-46
1.37752e-51
1.33068e-49
4.66475e-49
5.97646e-55
5.7988e-53
-3.5759e-51
2.55484e-58
9.19267e-57
5.15155e-56
1.11757e-61
6.35852e-60
-3.56179e-58
5.19552e-65
4.35333e-64
-3.7871e-63
2.62999e-68
-9.0398e-67
-2.85195e-64
1.15859e-71
-1.08558e-70
1.50196e-67
5.0125e-75
-2.68134e-74
9.01839e-72
2.80784e-78
3.14924e-77
-2.20159e-74
1.78083e-81
1.38672e-80
-6.45791e-78
5.66867e-85
-3.51836e-85
3.44521e-81
3.01634e-88
-2.29782e-86
-1.17854e-83
1.66041e-91
-1.99854e-90
-4.08159e-87
1.71262e-94
3.46046e-94
-4.56514e-90
2.41963e-97
2.69032e-98
-6.65216e-93
6.41982e-101
-1.63368e-97
-4.72987e-96
5.31036e-104
-2.22338e-100
4.64729e-98
2.26134e-107
5.20973e-108
-1.36376e-102
1.6686e-110
6.19212e-108
1.6426e-105
7.06396e-114
-1.05319e-111
-1.23832e-108
1.45707e-116
1.49864e-118
5.70945e-118
2.06297e-118
-5.66992e-119
4.21115e-115
2.36334e-122
-1.5208e-122
7.82308e-119
5.29146e-126
-7.18681e-125
1.14476e-122
3.78684e-129
-3.39953e-128
-1.26524e-124
8.34209e-133
-1.32899e-130
-5.42574e-128
3.83389e-136
3.4585e-136
1.56367e-136
3.55486e-139
5.69483e-139
2.87991e-134
2.30655e-142
-1.48396e-142
-5.21064e-137
9.52941e-146
-9.96809e-143
-2.73622e-140
2.81794e-149
1.23224e-147
2.92435e-145
1.2803e-151
1.35279e-150
1.59112e-146
1.96636e-155
-1.72991e-150
5.75708e-08
1.75701e-08
-1.89508e-07
-2.57919e-07
-2.21994e-07
-2.1531e-07
6.24421e-08
5.83015e-08
6.49861e-08
-4.76186e-09
6.14211e-08
5.71363e-08
-2.41969e-08
-6.07062e-09
-2.13023e-09
-1.35171e-08
-3.80054e-08
-2.27955e-08
7.49693e-09
-8.1605e-08
-6.82907e-08
-6.66144e-08
-1.21498e-07
-1.39982e-08
-1.05748e-08
-1.2177e-07
1.28875e-10
-2.94156e-08
5.42984e-09
9.26294e-09
1.74312e-08
4.53708e-10
2.94866e-10
1.00725e-09
-1.36691e-10
1.33294e-09
-2.13207e-14
-3.0096e-16
-1.07802e-08
-2.81067e-16
-1.07802e-08
8.36414e-23
1.40111e-19
7.39836e-22
6.08716e-20
8.66988e-20
2.14414e-19
-2.09511e-19
-9.89621e-26
5.95608e-23
1.45274e-26
-1.08731e-26
8.54911e-27
5.66884e-29
4.97636e-28
9.86739e-30
5.70105e-29
5.31294e-31
-3.2395e-31
-2.4981e-31
2.73011e-35
-8.65672e-35
-1.58473e-33
5.50942e-39
-1.13045e-38
-3.27775e-37
2.17354e-42
-2.68127e-42
3.44025e-41
9.00915e-46
-5.93873e-46
-1.3725e-43
3.8129e-49
-4.85146e-49
1.87118e-45
1.62719e-52
-9.84071e-53
6.46726e-49
6.71287e-56
-3.09118e-56
-1.40684e-52
2.8808e-59
1.64715e-59
-3.27235e-55
1.21929e-62
-1.14391e-63
-1.39556e-59
5.427e-66
-5.80283e-66
6.61387e-62
2.26635e-69
-4.43256e-70
1.02058e-64
1.14388e-72
7.82905e-74
2.00429e-68
6.30885e-76
-1.4084e-77
-1.97625e-71
2.37946e-79
6.45054e-80
-6.85678e-75
7.39294e-82
-1.78594e-83
3.91876e-79
1.54234e-83
-2.38187e-85
6.50441e-81
8.62954e-88
-6.25927e-89
-1.29473e-84
1.20059e-91
-4.82669e-92
1.70537e-92
1.70216e-94
-5.33566e-95
1.12314e-95
2.39192e-96
2.276e-98
-4.44442e-93
3.23957e-100
-2.0943e-102
-1.2162e-95
5.00893e-104
3.81246e-105
8.17772e-100
2.27907e-107
-8.80443e-109
4.0929e-104
8.75624e-111
6.41784e-112
-1.13407e-107
7.18046e-114
-2.34654e-115
3.2709e-111
3.07922e-116
8.26208e-118
-9.77297e-113
3.49316e-120
-4.20942e-121
1.92734e-115
2.06877e-123
4.42079e-124
-1.24744e-118
1.34247e-126
-2.8326e-127
7.16424e-122
1.15216e-129
-1.18968e-130
2.79574e-124
2.04377e-133
-2.43418e-133
3.0365e-128
8.33277e-137
2.77495e-137
4.1103e-132
2.36377e-139
-1.10432e-140
5.38429e-140
3.59795e-141
1.75197e-143
5.52542e-138
1.29135e-145
2.67962e-146
-9.53383e-142
2.78494e-149
-1.1128e-150
3.36847e-144
-6.93932e-153
2.55059e-153
-2.55039e-08
2.58297e-08
-5.50505e-07
-3.41684e-07
-5.18197e-07
-4.67255e-07
-3.32617e-08
-2.56011e-08
-5.31071e-08
-1.01644e-08
-2.53075e-08
-3.8381e-08
-1.66103e-08
-1.62495e-08
5.90441e-08
6.61174e-08
-1.10746e-08
8.55438e-08
-3.61903e-08
1.03242e-08
1.82603e-08
-3.00027e-08
-9.66864e-09
9.73063e-09
-7.95833e-08
-9.44787e-09
2.43583e-09
-8.23348e-08
9.77404e-10
-1.97813e-08
3.44798e-09
5.19836e-09
9.29743e-09
3.79584e-10
4.46714e-10
-1.66558e-09
3.15414e-10
3.20575e-10
3.4559e-10
3.19074e-10
4.97538e-10
4.26684e-10
5.76067e-10
-5.93328e-10
-4.01643e-10
-4.75671e-10
-4.61053e-10
-3.61774e-11
3.75071e-13
2.33539e-08
1.13306e-11
2.3357e-08
-1.32941e-21
-5.89581e-18
2.77424e-19
2.13917e-18
5.68549e-17
-1.94733e-20
-4.84186e-17
-6.09671e-18
-9.8059e-18
-6.12985e-18
4.46149e-25
-1.10408e-21
-2.24311e-24
-2.1255e-27
-1.58216e-25
7.7542e-28
7.16132e-28
-1.34226e-27
1.12703e-29
2.08206e-30
-2.35519e-29
-1.8557e-31
2.50751e-34
-3.70633e-32
-2.10459e-33
2.63784e-38
-5.61045e-36
-2.12267e-36
8.57804e-42
-9.77136e-40
-9.1583e-40
3.54101e-45
-2.80268e-43
-7.15825e-43
1.49534e-48
-5.30233e-47
-1.9093e-45
6.17487e-52
-1.2942e-50
-3.01999e-49
2.59759e-55
-6.43188e-54
2.77975e-52
1.09639e-58
-1.60572e-57
-3.43274e-56
5.15672e-62
-6.30377e-61
-6.80388e-59
2.96026e-65
8.17628e-65
-2.09148e-61
1.16774e-68
-2.92131e-68
-9.30477e-65
5.18156e-72
3.62091e-72
2.34158e-69
2.18213e-75
9.8149e-76
3.67662e-71
1.76471e-78
2.46441e-79
-1.91241e-74
4.3216e-81
1.36633e-81
-1.09976e-77
5.50527e-85
-2.7115e-83
-6.17138e-81
4.50557e-88
1.61489e-90
5.3343e-84
1.70531e-90
1.47613e-91
-7.61152e-87
4.29292e-94
-1.28425e-94
-1.87086e-90
1.29045e-97
-1.09646e-95
-3.73681e-92
8.41615e-101
-2.43647e-101
-3.27455e-96
1.29037e-103
2.49498e-104
1.92793e-99
1.9597e-107
3.68748e-108
8.30205e-104
1.18101e-110
-9.9365e-110
8.33143e-106
4.45807e-113
-8.65688e-114
-2.18041e-109
2.11751e-115
5.44185e-116
-6.28009e-112
1.85763e-119
-8.39416e-120
-1.57571e-114
9.72273e-123
-3.00285e-123
1.04502e-118
1.08752e-125
9.5666e-127
-1.44329e-121
3.72746e-129
-2.07184e-130
-1.915e-125
4.68466e-132
-2.04697e-130
-3.09198e-127
6.27797e-135
1.34605e-135
-4.80166e-131
1.31679e-138
6.37913e-139
-1.38332e-134
3.99357e-142
1.14009e-142
-1.29287e-137
2.34279e-145
1.04285e-145
-1.23596e-141
1.96643e-148
-3.02925e-147
-2.14575e-144
-3.28004e-150
6.91259e-148
-3.27211e-09
-8.0726e-09
-1.19994e-07
-4.09385e-08
2.4292e-07
-7.09236e-08
-4.10898e-08
-1.78532e-08
-5.21384e-07
2.98408e-07
8.73623e-07
3.19962e-07
-4.6189e-08
-4.14828e-08
-3.4784e-08
-5.82144e-09
3.17386e-08
9.60547e-10
1.7885e-08
-1.41554e-08
-1.33894e-08
3.72644e-08
-5.89282e-09
-2.61265e-09
2.74673e-08
1.20495e-08
-1.51259e-07
1.21402e-07
-1.06949e-07
-3.9293e-09
1.77658e-08
1.98061e-08
2.0977e-08
1.85226e-08
-6.67917e-08
1.2488e-08
-9.17692e-08
1.29229e-08
1.63025e-08
1.3411e-08
1.24927e-08
-4.03645e-08
-3.99575e-08
-5.16188e-08
-3.59296e-08
1.46781e-09
-2.4266e-08
5.34481e-09
-7.0517e-09
2.30485e-08
-2.92123e-09
2.52157e-09
-2.98177e-09
-1.98143e-10
1.65768e-10
-3.716e-10
7.61125e-10
2.84904e-10
1.33561e-10
2.67834e-10
1.96686e-10
-1.11937e-10
4.52691e-11
3.08536e-08
-2.6216e-11
3.09898e-08
1.29582e-16
-6.09534e-18
-5.95057e-09
-7.65803e-18
3.63732e-24
-1.64969e-21
3.51243e-22
-5.21238e-22
-8.14454e-23
2.49745e-21
-6.27217e-22
-1.48559e-27
-2.82106e-25
-1.13153e-26
2.9612e-27
-1.53181e-27
5.71684e-29
3.86079e-29
-3.27157e-29
8.87488e-30
9.6184e-33
-5.76137e-32
-5.5562e-32
6.29073e-37
-9.58648e-36
-3.5738e-34
1.87158e-40
-1.72242e-39
-1.71151e-37
7.56995e-44
-4.25885e-43
-7.37145e-43
3.15339e-47
-1.10969e-46
-9.56269e-45
1.34062e-50
-2.81964e-50
-6.64777e-48
5.78556e-54
-1.57646e-53
-5.66803e-50
2.46338e-57
-1.30591e-57
-3.52883e-54
1.13027e-60
-8.10196e-61
4.47568e-57
4.42194e-64
-9.56351e-65
-4.03686e-61
1.90553e-67
-7.50219e-68
-5.10031e-63
8.48846e-71
-2.65109e-71
-1.25729e-67
4.6639e-74
-7.78872e-74
3.36439e-69
2.63475e-77
1.66522e-77
-1.27184e-72
6.13906e-80
1.35786e-81
3.3619e-76
1.74569e-82
1.54483e-83
-5.25228e-79
2.56472e-86
-2.38644e-85
-4.64684e-81
1.34902e-89
7.09906e-90
-1.45944e-85
8.35964e-93
1.57706e-93
1.91201e-89
2.11888e-95
2.74413e-97
-1.69039e-90
2.05386e-99
-5.39705e-100
1.15204e-95
7.30566e-103
-1.08922e-102
7.53697e-98
9.07587e-106
3.81866e-107
-3.03515e-101
2.5934e-108
2.4403e-109
-7.87669e-104
3.07847e-112
-6.9168e-113
-1.12375e-108
2.66581e-115
-3.52193e-116
4.49059e-116
1.16664e-117
4.83789e-119
2.40231e-114
9.39395e-122
-6.16519e-122
7.8313e-117
9.62657e-125
4.26451e-124
4.40738e-121
2.04873e-127
-3.5234e-128
-1.40006e-122
1.57035e-130
-3.23014e-131
-3.88799e-126
3.1082e-134
-8.03297e-135
2.35846e-129
4.98105e-137
-6.23145e-138
4.90412e-134
2.40863e-139
2.38352e-140
-7.23124e-136
3.77685e-143
1.99214e-143
1.84109e-139
2.68732e-146
7.41704e-147
-2.29659e-142
8.15271e-151
-3.12001e-145
3.04414e-08
8.23079e-09
-3.62924e-07
-2.66205e-07
-3.78361e-07
-3.70048e-07
-8.78381e-08
4.14479e-08
-2.66386e-07
-4.55683e-08
-2.99233e-08
-4.47061e-08
-7.1067e-08
-9.22119e-08
-2.14091e-07
1.61951e-08
-3.23411e-08
-5.3476e-08
-2.93956e-08
-2.99866e-09
-5.19995e-10
-1.2878e-08
8.34921e-08
3.58559e-08
9.68652e-08
3.1595e-08
-1.31664e-07
5.08662e-10
-3.70715e-09
-2.73341e-11
2.16126e-08
-7.93326e-09
8.31768e-09
8.18457e-09
-1.89337e-09
1.565e-09
3.11774e-08
-1.73535e-10
-1.84231e-09
-3.01102e-08
-1.19465e-09
2.24761e-09
-2.11226e-09
-1.83415e-11
-3.8419e-10
-1.5006e-09
4.64623e-10
3.09616e-10
2.37311e-10
3.22144e-10
3.07873e-10
-2.67123e-10
5.86592e-11
6.27268e-08
-2.21417e-11
6.30503e-08
-2.95812e-16
-7.54889e-18
-6.55702e-09
-6.55702e-09
-7.89193e-18
-2.95876e-16
-2.95614e-16
-2.96173e-16
5.82368e-24
-5.30011e-22
4.65572e-22
1.51737e-21
6.14253e-22
1.27791e-21
3.25805e-21
7.46712e-27
-8.76287e-26
-2.7551e-27
2.39301e-27
-7.31319e-28
-1.44194e-28
2.8428e-29
-1.68824e-29
7.47809e-30
7.57887e-33
-3.16711e-32
-3.89677e-32
4.99885e-37
-5.45153e-36
-4.17449e-34
1.4939e-40
-9.61371e-40
-3.42606e-37
6.36891e-44
-2.4356e-43
-1.48542e-41
2.92877e-47
-7.25818e-47
1.4073e-43
1.24275e-50
-1.89871e-50
2.84239e-47
6.03089e-54
-4.84742e-54
-1.43643e-49
2.2368e-57
-2.62976e-58
7.18423e-54
9.19691e-61
-3.8243e-61
9.14432e-57
5.14531e-64
4.51586e-65
-7.05747e-60
4.99845e-67
-5.30551e-68
-3.40415e-63
4.21588e-70
-8.02382e-72
-6.62146e-66
1.05436e-72
7.67722e-74
-1.32569e-68
1.22144e-76
4.68099e-78
-7.39748e-73
8.44333e-80
-1.51422e-81
-1.7985e-75
2.50739e-82
-3.73532e-84
-1.36824e-78
2.22041e-85
1.01792e-85
-1.3793e-80
2.98116e-88
1.11969e-88
-2.32527e-84
5.78787e-92
-2.05435e-94
-6.79969e-88
1.56631e-95
6.46183e-97
-5.47547e-92
1.18946e-98
6.18587e-100
-1.54649e-93
1.40295e-101
3.08823e-102
-1.11487e-97
2.54613e-105
2.30415e-106
-2.04665e-101
1.62284e-108
-2.82458e-109
-5.86289e-104
1.8316e-111
1.43891e-112
-2.82747e-108
5.14094e-115
-2.60822e-117
5.82632e-112
8.56233e-118
-2.74783e-119
2.07351e-115
9.24369e-121
5.25527e-122
-2.23478e-116
1.16684e-123
-2.95338e-124
2.47395e-119
2.80119e-127
-5.36171e-128
-1.26004e-122
1.04302e-130
-4.27098e-132
1.01177e-125
5.84822e-134
2.90412e-135
3.51251e-129
5.27632e-137
-2.25175e-140
-4.71684e-133
8.97994e-141
5.19862e-142
1.80613e-141
3.65985e-144
5.28264e-146
3.30826e-139
1.66503e-147
6.94709e-149
-4.82387e-142
6.19503e-152
4.78207e-151
9.85209e-08
5.79013e-09
9.96959e-08
4.49816e-08
-4.2187e-08
2.22702e-07
-1.54464e-08
-1.10235e-08
1.0921e-09
-4.68569e-08
1.64822e-07
8.50346e-08
-4.11558e-08
-4.16682e-08
-4.23673e-08
2.59142e-08
2.02649e-08
4.73315e-08
4.45927e-08
-2.63892e-08
-4.72153e-08
-1.2619e-08
-3.37688e-08
-7.30388e-08
3.43536e-08
1.76288e-08
4.65868e-08
-1.06653e-07
1.67053e-08
1.88579e-09
7.5857e-09
-1.90346e-10
-4.8375e-09
-6.66274e-09
-1.19123e-09
-4.01877e-10
1.33867e-09
-1.05748e-09
1.56493e-09
-4.07639e-10
-6.24288e-10
1.43904e-10
3.83018e-10
2.5442e-10
2.50988e-10
-4.98977e-11
3.09005e-12
2.21658e-08
-2.60646e-11
2.22037e-08
1.58676e-22
-2.41321e-19
-4.88418e-19
8.65538e-17
1.00189e-18
-8.22319e-17
-5.95861e-18
-1.33167e-18
-1.26231e-18
-8.7847e-20
-1.25667e-18
-2.18185e-24
-6.80156e-23
-1.0328e-23
3.34584e-28
-1.02735e-26
-9.08328e-28
5.99264e-28
-9.09966e-29
-7.68354e-30
1.87672e-30
-8.30832e-31
-3.69464e-31
2.356e-34
-2.93774e-34
-2.17819e-33
2.56156e-38
-3.54153e-38
-1.86655e-36
8.55058e-42
-1.02004e-41
-3.32382e-40
3.52333e-45
-2.76709e-45
-2.14419e-43
1.47569e-48
-7.26637e-49
9.37245e-46
6.18791e-52
-1.93718e-52
-4.08144e-50
2.75345e-55
-5.27844e-56
-3.66652e-52
1.28557e-58
-2.20025e-59
-1.04207e-54
4.9602e-62
-7.58584e-63
-4.39005e-59
2.12851e-65
-1.39864e-66
2.30418e-63
9.21872e-69
-5.70961e-70
-2.4329e-65
4.32586e-72
-1.96642e-73
-3.65631e-68
1.61584e-75
-2.33777e-76
-2.34484e-73
8.30061e-79
-2.66305e-79
-7.85887e-76
2.50378e-81
-1.12543e-82
-7.95748e-78
1.35996e-83
2.17785e-85
-1.91348e-80
8.86122e-88
-2.30165e-89
2.48375e-84
2.82482e-91
-3.27476e-92
2.37726e-89
1.85826e-94
-1.03712e-95
-4.50461e-91
6.14374e-98
-1.76445e-99
2.71354e-101
3.13899e-101
3.55213e-102
3.16007e-96
1.84953e-104
-1.47846e-106
-3.32009e-100
1.72145e-107
3.20705e-108
9.89521e-103
1.31986e-110
-1.83475e-112
5.83008e-106
3.47042e-113
2.73403e-114
-1.46473e-108
1.4955e-116
2.11025e-118
-8.42759e-113
6.62951e-120
-2.04371e-120
-1.85029e-115
2.95227e-123
-2.77513e-125
-6.24095e-119
2.73896e-126
9.85449e-128
-1.79819e-121
1.11634e-129
1.58099e-130
1.6208e-124
6.78344e-133
6.50021e-134
4.16899e-128
4.14168e-136
-6.85139e-137
-7.16959e-131
6.71574e-139
3.37591e-141
-2.17316e-135
4.02281e-141
8.17189e-144
-1.14146e-137
2.46797e-145
-6.49617e-147
3.77649e-146
2.70118e-148
-1.86991e-151
1.02412e-149
1.08473e-151
-4.15622e-147
7.54888e-08
1.52487e-08
-1.64114e-07
7.46649e-08
7.56971e-08
7.6713e-08
-3.87135e-08
7.20687e-08
7.39283e-08
3.83931e-08
3.69472e-08
8.34052e-08
-5.53281e-08
9.11834e-08
3.40494e-08
2.83339e-08
-3.9575e-08
4.71266e-08
-4.33433e-07
-6.20122e-07
4.50331e-08
2.43907e-07
-3.42274e-08
-2.95874e-08
-5.16674e-09
-1.98099e-07
-2.76217e-09
4.71893e-09
1.71838e-08
1.40143e-10
-2.43128e-09
-2.18736e-08
8.63561e-10
-1.58935e-10
1.46991e-10
-1.23127e-09
-1.39011e-09
-1.42403e-09
-5.67623e-10
-7.11755e-10
-4.82315e-10
-3.29814e-10
9.81811e-11
-4.58062e-11
-4.28194e-11
7.43836e-11
-2.39379e-11
-7.74491e-13
-1.2613e-08
1.77649e-12
-1.26132e-08
2.52592e-23
4.13942e-22
-5.35205e-23
-2.19446e-20
4.3259e-20
-2.6528e-19
1.17842e-20
1.5584e-26
5.97407e-27
-1.57319e-26
4.2681e-26
1.60828e-27
6.27707e-30
5.38072e-28
8.87659e-29
-5.76127e-29
5.4213e-31
4.72097e-31
-9.56928e-31
2.9407e-35
8.89938e-36
-3.12805e-33
6.11501e-39
2.48841e-39
-6.35833e-37
2.4447e-42
7.48232e-43
-2.28439e-40
1.0177e-45
-2.65781e-47
-1.24027e-42
4.26321e-49
-2.36684e-50
5.7305e-46
1.85769e-52
-8.86913e-53
9.08499e-49
8.1278e-56
1.35749e-56
-2.33736e-53
3.26459e-59
-8.11416e-61
5.7385e-56
1.48623e-62
1.1904e-63
-6.87064e-60
6.2879e-66
1.47032e-66
-5.88208e-62
2.40734e-69
-1.63941e-71
-1.10126e-65
1.71148e-72
2.0477e-74
-9.94366e-69
3.94829e-75
2.14039e-76
-2.84565e-71
1.21409e-78
1.44844e-79
-1.8187e-74
2.40045e-82
-2.46081e-83
-1.14136e-77
2.17775e-85
2.93007e-88
5.36327e-86
8.22617e-88
1.69138e-91
-1.59974e-83
1.13093e-91
-5.0705e-93
1.19096e-87
1.62689e-94
5.03289e-96
-2.28453e-90
5.89846e-98
-7.1657e-99
3.15076e-93
1.67239e-101
5.49225e-103
2.88059e-96
2.05948e-104
2.87018e-106
-1.36584e-99
4.14304e-107
6.89513e-108
-1.18936e-103
7.75857e-111
4.02964e-112
-1.05308e-107
7.8063e-114
7.00058e-115
-1.32986e-108
4.65736e-117
5.48439e-119
-6.71694e-113
3.25075e-120
4.98126e-122
-1.9515e-115
1.32614e-123
-1.23212e-125
-4.84975e-119
2.82745e-126
-2.77535e-128
-4.12074e-122
7.45922e-130
-1.06902e-130
1.17807e-124
3.81671e-133
-2.69855e-134
1.50346e-128
1.81617e-136
5.31734e-138
-5.13184e-131
4.80929e-140
5.11873e-141
-1.07556e-138
1.84803e-143
-7.78737e-146
6.44782e-144
7.26724e-147
-9.8173e-148
1.26637e-147
2.84678e-150
-7.00873e-151
9.73814e-151
-5.93355e-157
-3.14252e-149
-7.22329e-08
8.28746e-09
1.50067e-07
3.7924e-08
5.99969e-08
4.14951e-08
2.09234e-07
9.99902e-08
2.50104e-07
-7.11931e-08
-7.20151e-08
-7.17119e-08
3.92843e-08
-7.02958e-08
-7.1541e-08
4.05445e-08
1.94653e-10
-1.52698e-08
1.01165e-07
1.04597e-07
-4.40048e-08
1.14594e-07
1.32132e-07
1.81773e-07
3.5572e-09
-4.67569e-08
2.51257e-08
6.6768e-08
-1.62031e-08
7.8055e-08
-1.14643e-08
1.34851e-08
1.72371e-08
-4.31868e-08
-1.22641e-07
-2.71808e-07
-6.23161e-08
-5.7545e-09
1.17977e-08
-5.46395e-09
-3.35334e-09
1.96157e-09
-2.93248e-10
6.52171e-10
-2.52177e-08
2.07316e-10
-2.47261e-08
-4.17819e-16
-3.65685e-16
3.22594e-08
3.22594e-08
2.17122e-18
1.59603e-16
1.17003e-15
6.04611e-16
-4.73965e-16
-3.31518e-16
-3.31816e-16
2.67196e-24
5.11625e-23
-3.54935e-24
-1.77127e-21
-6.48521e-22
8.56241e-21
-4.85815e-21
6.51354e-26
1.70112e-26
-5.81908e-26
1.95754e-27
4.28962e-28
-1.24018e-29
1.44467e-30
1.31414e-29
-2.89031e-29
2.2421e-34
3.40486e-32
-2.85163e-32
8.21724e-38
7.95722e-36
-6.99565e-36
2.78557e-41
1.23503e-39
-4.37935e-39
1.0929e-44
3.19225e-43
-1.18466e-41
4.73161e-48
8.47604e-47
-3.35181e-45
2.09092e-51
2.04733e-50
-2.4459e-49
9.2528e-55
8.69912e-54
4.8467e-51
3.94566e-58
-4.75586e-58
-3.29147e-54
1.69657e-61
-1.02882e-61
2.92667e-58
7.5379e-65
2.31319e-64
1.80243e-60
3.31197e-68
7.01478e-68
9.70526e-64
2.71503e-71
-4.03781e-71
-5.82376e-67
4.23458e-74
-4.7221e-75
-5.11742e-70
5.15162e-78
-4.41791e-78
-1.86668e-76
2.03064e-81
-3.31865e-81
1.75761e-76
8.84695e-85
-6.71188e-85
-1.00855e-79
3.76335e-88
-1.273e-87
-1.39422e-83
2.16897e-90
-5.67717e-91
-7.17764e-89
6.04754e-92
-6.13409e-95
-9.97482e-89
1.73716e-96
-1.96405e-97
1.0657e-93
3.35747e-100
-8.03355e-101
9.33418e-97
1.67469e-103
-2.77129e-104
-7.70697e-100
2.10573e-106
-6.45597e-108
-1.17026e-102
4.89837e-110
-5.59725e-111
5.54464e-105
2.7201e-113
-1.40564e-113
3.78293e-108
6.3699e-117
-1.92489e-117
3.35721e-112
6.55785e-120
-2.67716e-120
1.16302e-120
2.89344e-122
1.21108e-123
-1.45184e-118
2.0684e-125
-6.05216e-127
-2.59023e-121
1.53509e-128
1.97637e-129
-4.15347e-124
3.90748e-132
-2.6223e-132
-3.12995e-127
2.34781e-135
-4.79997e-136
-4.24417e-130
1.60984e-138
2.71739e-140
-7.09458e-134
7.66572e-142
-2.6082e-142
-6.04135e-137
1.65749e-144
6.57321e-146
1.61875e-140
2.25166e-147
-4.79566e-148
-1.79547e-143
1.60257e-150
-3.05871e-151
5.24034e-147
-1.43756e-154
5.92149e-151
1.17506e-08
3.08081e-09
6.19357e-08
3.99616e-08
1.85119e-07
3.54711e-08
2.93214e-08
3.82813e-08
4.47287e-08
4.53349e-08
4.53707e-08
4.44346e-08
4.59001e-08
4.07509e-08
4.227e-08
3.66514e-08
1.27749e-07
1.25127e-07
1.18715e-07
-7.38834e-09
-3.28846e-09
3.67414e-08
4.02114e-08
-6.99978e-08
4.11937e-07
-8.47584e-08
-5.24987e-08
-3.35583e-08
4.67828e-08
-8.86557e-08
3.11583e-08
1.64719e-08
1.18846e-07
-5.66017e-08
6.70446e-09
-7.26255e-10
-1.92189e-08
-3.48102e-09
7.36304e-09
-1.30967e-08
1.57683e-08
2.36808e-09
-1.76425e-07
-1.74427e-09
-1.4406e-08
7.60707e-09
6.51493e-09
5.66446e-10
-1.43624e-10
-6.56613e-11
1.80354e-08
-1.21312e-10
1.81586e-08
2.28477e-16
-2.66644e-18
-8.6122e-09
-8.6122e-09
-2.81783e-18
2.28167e-16
2.28706e-16
2.27267e-16
-2.76567e-24
6.71845e-23
5.10295e-22
-2.18176e-22
1.82514e-22
1.0557e-21
1.29774e-26
-1.1477e-26
6.89013e-28
-7.9524e-30
4.90244e-29
-6.87564e-32
2.73948e-32
-2.31251e-33
1.42301e-36
-1.99613e-36
3.52746e-40
1.43018e-40
1.4189e-43
-7.55506e-42
5.9013e-47
6.79499e-47
2.46129e-50
-1.19541e-48
1.02896e-53
2.05957e-52
4.30064e-57
-2.09405e-54
1.7841e-60
5.82829e-59
7.41821e-64
7.44479e-62
3.08542e-67
-2.18289e-64
1.29134e-70
-2.10855e-67
5.41985e-74
-1.19411e-70
2.28674e-77
6.22603e-74
9.90044e-81
-8.18274e-77
6.27583e-84
-2.97551e-80
7.87658e-87
-2.2808e-83
1.82402e-90
-4.82399e-87
1.46734e-93
-2.36173e-90
1.45874e-96
-6.44667e-93
6.35954e-100
1.9473e-96
3.45892e-103
-3.63949e-100
1.11282e-106
-3.46983e-103
1.21773e-109
1.27432e-104
2.40847e-112
4.94731e-108
9.45719e-116
1.83488e-111
3.05272e-118
-9.53503e-115
2.82268e-122
-3.56029e-119
8.22074e-126
9.69053e-122
1.3145e-128
-1.15945e-124
9.58734e-131
-1.1831e-126
8.01782e-135
2.80967e-130
4.15228e-138
1.36019e-133
5.34231e-141
-1.53151e-136
1.71364e-144
2.84657e-140
1.0288e-147
-8.69337e-144
3.93217e-151
1.01511e-146
-1.6605e-150
-5.84787e-08
-6.34338e-08
-4.11983e-08
3.76994e-08
1.39961e-08
1.73754e-07
-7.32224e-09
5.34483e-09
-7.93503e-09
1.47377e-09
1.21149e-08
1.25655e-08
1.18166e-08
1.23276e-09
-1.54351e-08
2.89246e-07
2.53223e-07
2.79162e-07
2.6289e-07
3.76723e-09
4.4344e-09
7.04745e-09
-1.53001e-08
-1.51434e-08
-1.41226e-08
8.76432e-08
-3.381e-12
-6.29706e-09
-5.34493e-07
-2.82033e-08
1.87625e-08
-2.83399e-07
1.62914e-08
-7.44759e-08
6.1825e-10
-6.70036e-09
-2.65378e-10
8.20349e-08
-5.13956e-10
7.44198e-11
2.71206e-11
4.83154e-08
4.83025e-08
-7.26309e-16
1.22426e-18
-4.43687e-19
-1.02668e-08
-7.06162e-19
-1.71746e-23
1.53609e-21
2.10195e-22
-5.83342e-20
-6.02801e-20
-4.83362e-20
-6.08998e-20
2.52527e-26
6.99817e-24
2.14576e-27
3.81737e-27
3.54424e-25
-9.77301e-30
2.38254e-28
7.17433e-28
-4.24688e-31
1.27977e-30
1.53183e-30
-5.9016e-33
5.21734e-34
5.82237e-34
-1.18661e-35
9.20657e-38
1.90753e-37
-2.63669e-39
5.22752e-41
8.06324e-41
1.07199e-41
3.93661e-44
3.50529e-44
-8.99316e-46
2.88082e-47
1.36865e-47
2.42323e-48
2.06504e-50
7.33973e-51
1.93255e-50
1.48013e-53
3.69675e-54
-2.82217e-54
1.06183e-56
3.27938e-57
8.3984e-58
7.61046e-60
-8.13301e-61
-1.5153e-60
5.45163e-63
-1.08669e-64
-3.78275e-65
3.90085e-66
1.03944e-66
8.28387e-69
2.78799e-69
-7.44132e-70
-7.7035e-71
1.99042e-72
-3.66515e-73
5.75825e-73
1.41921e-75
1.0775e-76
2.35541e-77
1.01049e-78
-1.75817e-80
2.43471e-80
7.17385e-82
3.94144e-83
-3.88786e-83
5.08648e-85
-1.70503e-86
-4.08393e-86
3.59777e-88
2.36989e-88
-2.95419e-90
2.54049e-91
1.30733e-91
3.80914e-95
1.79252e-94
-1.94162e-95
-2.02472e-94
1.26223e-97
7.05141e-98
-7.19662e-100
8.87132e-101
4.60336e-102
-3.22236e-102
6.21684e-104
7.82241e-105
3.04029e-105
4.34268e-107
1.01939e-107
1.72311e-108
3.02947e-110
-9.10446e-112
1.43727e-111
2.10986e-113
2.75298e-114
-8.58802e-120
1.46614e-116
-3.34997e-118
1.65192e-117
1.01672e-119
6.23917e-121
6.97942e-121
7.03329e-123
-1.07216e-124
-1.10261e-124
4.8569e-126
-1.14667e-127
-1.75915e-127
3.34398e-129
1.62004e-129
4.01313e-132
2.29674e-132
-4.57616e-134
-6.37719e-134
1.57347e-135
6.63917e-137
8.18897e-136
1.077e-138
6.67828e-141
1.20677e-139
7.35351e-142
-6.98081e-144
2.54696e-143
4.80178e-145
-5.01458e-147
-8.21408e-146
4.45842e-149
3.75912e-149
5.77675e-09
2.13957e-08
-8.28629e-08
1.43236e-09
5.78281e-09
3.42812e-09
4.32444e-09
2.03412e-08
2.30093e-08
1.96056e-08
1.74096e-10
1.35498e-09
1.69957e-09
1.79995e-08
-1.36561e-10
1.22342e-08
2.26363e-08
-1.28606e-08
3.65341e-08
-1.43779e-07
-5.0862e-07
-4.3165e-09
-5.01487e-07
8.43766e-09
-1.97501e-09
-1.74062e-08
1.21345e-07
2.88414e-09
7.69315e-09
-1.32255e-07
2.95248e-08
1.06729e-09
-5.57635e-09
-1.15454e-09
-3.546e-09
6.6716e-08
1.37272e-09
4.68136e-08
-2.93851e-09
8.32177e-09
-1.19543e-07
3.77894e-10
2.34895e-10
-2.49482e-10
2.64572e-10
-2.20316e-10
-8.44161e-11
1.03644e-17
4.72615e-18
2.49608e-17
5.41678e-18
8.29729e-19
1.44551e-17
4.5966e-18
2.55593e-18
5.3671e-18
-2.27726e-23
1.00345e-21
-1.92164e-23
-2.95215e-20
-1.13821e-20
-2.99637e-20
-1.11485e-20
7.08671e-24
1.78297e-24
-3.85443e-26
5.07021e-25
2.01455e-25
-9.51492e-30
8.35626e-28
8.08315e-27
-9.22631e-31
8.6596e-32
1.45104e-28
1.46809e-32
2.88361e-35
2.94739e-31
2.09729e-36
1.89613e-38
3.58548e-35
1.64044e-40
1.35437e-41
1.65915e-38
4.99494e-42
9.54008e-45
7.0084e-42
8.57833e-47
6.66049e-48
4.03676e-45
3.89847e-48
4.64988e-51
1.3922e-48
-2.17551e-51
3.25709e-54
4.43964e-52
4.57921e-56
2.27671e-57
1.47342e-55
4.94604e-58
1.59036e-60
4.58799e-59
9.70193e-62
1.1189e-63
6.22584e-62
-2.0276e-65
7.77028e-67
9.17539e-65
-3.36742e-67
5.38437e-70
-2.27717e-69
-4.78328e-71
3.74793e-73
8.16159e-72
4.92313e-75
2.60779e-76
6.65224e-75
1.06173e-77
1.81078e-79
-5.00131e-79
-4.13149e-81
1.2508e-82
-2.64537e-82
1.01832e-83
8.65442e-86
-9.62899e-85
3.99962e-87
5.98026e-89
7.26816e-90
8.97785e-90
4.13722e-92
4.49376e-93
6.31237e-93
2.86945e-95
-2.09819e-93
1.1462e-96
1.97379e-98
-6.09852e-97
-1.56398e-98
1.34708e-101
2.05389e-102
6.68769e-104
9.24927e-105
8.29506e-103
9.04267e-106
6.33659e-108
-6.78278e-107
9.75351e-109
4.33388e-111
6.43925e-111
6.88287e-113
2.95491e-114
-2.19673e-112
6.1505e-115
2.01055e-117
2.62881e-118
-2.08648e-122
1.36736e-120
-8.73937e-120
1.06853e-121
9.28054e-124
-2.24902e-123
5.81836e-126
6.28832e-127
1.27736e-126
1.91727e-127
4.25901e-130
-7.6657e-129
1.15995e-130
2.87616e-133
3.26984e-132
-5.59432e-134
1.94037e-136
-1.25534e-135
2.96924e-137
1.30802e-139
-7.91658e-138
-1.88374e-141
8.76981e-143
3.07352e-141
3.29789e-144
5.69716e-146
6.59255e-145
-5.99779e-147
4.31877e-148
-7.32295e-156
3.00839e-08
-2.15507e-07
4.02618e-08
3.11105e-09
2.61222e-07
6.28187e-10
1.94456e-09
3.64414e-09
-7.92083e-10
1.48627e-08
-1.03159e-07
3.69366e-08
-1.82078e-08
-3.22061e-08
2.38521e-08
1.70279e-08
1.99418e-08
1.86868e-08
9.14012e-09
4.12826e-08
7.72658e-07
4.12084e-08
4.33284e-08
4.20711e-08
4.25619e-08
3.9758e-08
4.15134e-08
4.04536e-08
1.20597e-08
-4.5771e-08
-1.95382e-08
4.34305e-08
2.56626e-08
-4.09249e-07
-4.56783e-08
-6.02315e-08
-5.23349e-08
-2.97007e-08
-2.03833e-08
-2.16361e-08
-2.39044e-08
-2.91944e-08
-2.29111e-07
-1.98789e-08
-1.81429e-08
-1.52281e-08
-1.45797e-08
-4.39458e-08
3.00521e-08
2.69641e-09
-3.21772e-08
3.90668e-09
5.54112e-09
-1.00783e-08
8.45364e-10
-1.83766e-10
3.71622e-10
-6.48425e-10
2.13982e-10
-3.6605e-10
-2.09274e-14
1.95423e-15
-1.66539e-15
2.2242e-15
-1.5e-15
5.92115e-16
-2.41313e-22
5.6157e-19
-6.74149e-22
3.13127e-19
-6.17638e-19
3.06186e-19
-6.04871e-19
-4.87558e-25
3.14915e-22
-1.12617e-26
2.63153e-25
1.218e-25
-3.61713e-29
4.84406e-26
2.79518e-27
-4.16041e-29
3.14721e-28
9.62037e-30
-4.64619e-31
8.809e-32
-6.29777e-32
-7.84642e-34
1.14587e-35
-5.76829e-36
9.6365e-38
6.91928e-39
-2.28832e-39
-6.40741e-41
5.1159e-42
-6.95142e-43
-2.25249e-43
3.61412e-45
-5.57598e-46
-1.0781e-45
2.52504e-48
1.1337e-49
-1.05701e-48
1.76687e-51
-2.856e-52
7.99633e-53
1.23559e-54
-8.71957e-56
3.3383e-55
8.6302e-58
-7.5516e-59
3.74751e-59
6.01984e-61
2.31005e-61
2.5579e-61
4.19434e-64
-3.28105e-65
-2.25184e-64
2.91602e-67
6.4342e-68
3.24079e-68
2.02559e-70
-1.43654e-71
3.44891e-72
1.40477e-73
3.25124e-75
7.03421e-75
9.71969e-77
3.6042e-77
-7.17803e-79
6.7211e-80
2.84296e-80
9.81795e-82
4.64262e-83
-8.03365e-84
1.54293e-84
3.20043e-86
3.65404e-87
-5.10932e-93
2.20488e-89
-6.03047e-91
-4.28178e-96
1.51391e-92
2.53412e-93
7.28114e-94
1.03593e-95
4.57252e-97
-6.23427e-97
7.08353e-99
2.21698e-100
2.56235e-100
4.83583e-102
3.50949e-104
-1.03244e-102
3.29357e-105
2.8466e-107
1.43091e-106
2.24006e-108
-2.61791e-110
-5.99602e-111
1.52008e-111
6.99436e-113
3.1285e-113
1.02822e-114
9.19693e-115
1.97266e-115
6.94514e-118
1.11598e-118
-2.47316e-118
4.68183e-121