/*--------------------------------*- C++ -*----------------------------------*\
| =========                 |                                                 |
| \\      /  F ield         | OpenFOAM: The Open Source CFD Toolbox           |
|  \\    /   O peration     | Version:  5.0                                   |
|   \\  /    A nd           | Web:      www.OpenFOAM.org                      |
|    \\/     M anipulation  |                                                 |
\*---------------------------------------------------------------------------*/
FoamFile
{
    version     2.0;
    format      ascii;
    class       volScalarField;
    location    "4.5";
    object      alpha.water;
}
// * * * * * * * * * * * * * * * * * * * * * * * * * * * * * * * * * * * * * //

dimensions      [0 0 0 0 0 0 0];

internalField   nonuniform List<scalar> 
8717
(
1.06087
1.02715
1.00429
0.993135
0.99958
1.00409
0.706303
-2.37302e-16
-2.28738e-18
1.65785e-20
2.19831e-18
2.01284e-19
1.04694e-21
2.78027e-25
2.21069e-29
6.92567e-33
2.85191e-36
1.24526e-39
5.75399e-43
2.25016e-46
1.13083e-49
4.95905e-53
2.13791e-56
7.7439e-60
4.49334e-63
6.38345e-66
2.04624e-69
3.96532e-73
1.03872e-75
2.88706e-79
2.37102e-82
3.91893e-86
1.08892e-88
3.71139e-91
1.22089e-94
9.60306e-98
4.37586e-101
1.48872e-103
2.77998e-107
2.68166e-111
3.37693e-114
8.71731e-117
8.11197e-120
2.92285e-122
4.89154e-126
6.1538e-129
8.2719e-133
1.05136e-136
2.49872e-138
1.72579e-141
1.0633
1.01288
1.02378
1.03403
1.03296
1.04339
0.957037
-1.44937e-21
-1.60405e-19
1.52009e-16
1.22697e-17
6.00239e-20
5.98512e-23
3.93339e-26
7.29943e-30
1.76296e-33
7.05101e-37
3.08247e-40
1.3934e-43
5.70895e-47
2.52617e-50
1.14074e-53
7.00506e-57
3.37616e-60
1.2101e-63
5.89521e-67
6.15676e-70
1.19346e-73
7.35803e-77
4.31228e-80
2.88145e-83
6.80168e-86
1.39756e-89
2.91651e-92
8.85129e-96
6.44057e-99
3.45246e-102
2.30507e-106
9.33823e-108
9.72855e-111
1.00735e-114
1.29843e-117
1.3639e-121
2.59116e-125
7.03475e-128
7.15608e-131
3.2006e-134
3.30811e-138
5.05553e-141
8.41294e-143
1.02166
1.03454
1.01995
1.04483
0.965014
0.999996
1.00088
-8.04954e-22
-2.1972e-22
-2.85722e-22
1.89864e-17
2.712e-18
3.17137e-20
1.53037e-23
7.45145e-28
1.90979e-31
8.04091e-35
3.51849e-38
1.94726e-41
6.40944e-45
3.44871e-48
1.2277e-51
8.02734e-55
2.97133e-58
1.72878e-61
1.54857e-64
5.88491e-68
8.86826e-72
4.70617e-73
3.97343e-76
1.18337e-80
2.11214e-84
8.84273e-86
1.13451e-88
1.07363e-92
5.55928e-96
1.94153e-99
2.12432e-103
3.01645e-105
1.23968e-108
7.46338e-112
3.27856e-115
4.95481e-118
5.63632e-122
2.62424e-125
2.74617e-129
1.52063e-130
7.08815e-134
5.58659e-138
3.52223e-142
1.02921
1.04594
1.05153
1.0421
0.995884
0.992352
1.0004
0.103175
-5.02307e-19
-1.40663e-19
-6.58788e-39
9.7082e-19
3.80672e-20
7.13555e-23
9.62398e-27
1.19188e-30
4.2847e-34
2.05888e-37
7.80505e-41
3.32328e-44
1.50983e-47
6.06807e-51
6.79229e-54
2.65141e-57
1.12593e-60
5.08444e-64
1.19782e-67
7.12716e-70
2.31722e-73
2.63546e-77
2.09886e-79
1.70559e-82
4.16822e-86
8.01308e-90
3.01163e-92
5.62031e-96
1.9419e-99
3.43093e-102
2.46995e-104
8.54164e-108
1.63874e-111
3.07376e-114
1.02223e-117
8.85364e-121
1.72724e-123
6.42397e-127
4.3487e-131
4.99134e-134
3.01343e-137
7.66179e-140
1.02323
1.00999
1.05583
0.997825
1.02693
1.02044
1.00214
0.767306
-1.44091e-16
-2.30846e-19
4.95267e-20
4.66241e-18
3.78162e-19
1.49362e-21
2.67721e-25
2.40733e-29
7.54439e-33
3.21033e-36
1.35393e-39
7.58817e-43
2.53083e-46
1.94687e-49
5.07593e-53
2.70579e-56
8.81528e-60
1.01757e-62
4.31634e-66
6.80632e-69
3.05808e-71
7.39472e-75
5.49854e-78
5.4191e-82
3.24162e-84
6.04291e-88
8.59714e-92
5.42029e-95
4.12945e-97
1.41028e-100
9.01301e-105
1.33926e-106
3.17541e-110
1.7211e-113
3.82026e-116
5.42757e-119
1.11627e-122
3.17443e-126
2.79681e-128
1.26948e-131
1.09175e-134
2.28196e-138
1.05425
1.02999
1.01558
1.00357
0.991603
0.979698
1.00207
0.883529
-9.69735e-18
-8.15704e-19
1.70603e-20
3.68663e-18
2.97428e-19
1.16633e-21
2.07913e-25
1.77777e-29
5.86039e-33
4.55608e-36
1.41199e-39
1.19102e-42
3.05795e-46
1.11267e-49
4.34485e-53
1.12145e-55
4.9778e-59
2.05035e-61
5.01234e-65
5.76939e-69
3.4565e-71
4.07794e-74
7.87349e-77
2.86949e-80
1.39087e-84
9.97969e-88
3.45784e-90
6.29571e-94
1.70692e-97
5.03539e-100
5.849e-104
1.73781e-106
1.93923e-109
3.50796e-112
1.19923e-115
3.76867e-119
9.36886e-123
1.76632e-125
1.59467e-129
3.44958e-133
3.11186e-136
3.153e-140
1.05997
1.0085
0.932378
1.00369
1.01604
0.992377
1.00454
0.633047
-1.69229e-17
-2.57775e-19
1.94806e-23
9.145e-19
3.52374e-20
6.44776e-23
8.58291e-27
1.07049e-30
3.8523e-34
1.65417e-37
7.02625e-41
3.09181e-44
2.40554e-47
6.21907e-51
3.25819e-54
1.09874e-57
8.58076e-61
2.19125e-64
8.09875e-68
1.5219e-70
1.39882e-72
4.48116e-76
2.7878e-80
4.5933e-83
1.02962e-86
8.44902e-90
2.89944e-93
5.46773e-96
1.83996e-99
6.15056e-102
5.17082e-105
2.98266e-108
5.73005e-112
7.8844e-115
4.37185e-118
2.15082e-121
1.5559e-124
3.41846e-128
3.96456e-130
1.27693e-133
7.53711e-138
1.50648e-139
1.03448
1.02847
1.0051
0.996598
0.994072
1.01119
1.00111
0.0179578
-7.44895e-21
-8.07381e-22
1.83927e-17
2.56255e-18
2.98345e-20
1.50727e-23
7.72318e-28
1.9463e-31
8.13961e-35
3.40651e-38
1.70605e-41
1.1147e-44
2.88514e-48
1.82357e-51
1.0077e-54
2.12425e-58
8.27996e-62
5.48012e-64
5.06575e-67
3.79474e-71
6.57237e-75
9.03954e-77
2.02116e-80
4.11195e-83
2.83454e-86
3.94874e-90
2.22275e-93
9.4771e-96
1.55026e-99
2.12945e-102
1.30963e-105
1.35327e-108
8.3339e-113
5.0899e-115
3.41775e-118
1.26519e-121
7.42934e-125
4.26581e-129
1.12718e-132
4.34108e-136
1.70786e-139
5.37916e-143
1.05753
1.04622
0.978611
0.992238
1.00098
0.97957
1.0001
-1.3322e-16
-1.24924e-18
1.30389e-16
1.3921e-17
1.07385e-19
7.97655e-23
3.6676e-26
8.3482e-30
2.22278e-33
9.37909e-37
4.2385e-40
2.04618e-43
8.42106e-47
3.35837e-50
1.67038e-53
7.47432e-57
3.20791e-60
1.02677e-62
1.18048e-66
3.46791e-70
1.28242e-73
5.96594e-77
2.07572e-80
1.42611e-81
8.77575e-85
5.96831e-89
6.35494e-93
3.60628e-95
1.09561e-98
1.10736e-101
8.54599e-106
1.61068e-109
2.99832e-111
4.82315e-114
5.59718e-117
1.25778e-120
4.62753e-124
5.57256e-127
8.04802e-131
2.75573e-133
4.84302e-136
6.15515e-139
4.2772e-143
1.07961
1.00459
1.03327
0.997047
1.02812
1.00479
0.956505
-2.17929e-17
-3.75281e-18
3.27274e-19
1.81334e-18
2.54096e-19
2.11257e-21
7.34808e-25
4.6631e-29
1.3355e-32
5.50315e-36
2.34542e-39
1.0008e-42
4.45597e-46
1.82563e-49
7.67213e-53
3.22802e-56
1.37385e-59
6.28438e-63
2.56252e-66
1.3444e-69
5.63971e-73
1.76613e-75
4.58173e-79
3.25421e-82
4.36307e-85
2.16089e-88
1.44075e-91
2.47466e-95
1.81985e-98
5.79307e-101
9.95102e-105
5.00557e-107
1.26684e-110
1.30373e-114
3.65444e-118
7.01297e-120
3.86839e-123
7.36573e-127
1.45306e-129
5.62115e-133
3.96424e-136
1.28471e-139
5.2491e-143
1.04943
1.036
0.992875
1.01395
0.978823
1.00175
0.706461
7.92868e-11
3.07063e-17
2.56737e-17
7.37344e-18
8.68944e-19
2.08117e-20
5.78696e-23
1.70146e-26
3.70761e-30
2.37422e-33
1.80247e-36
1.32433e-39
9.56928e-43
6.90652e-46
4.97917e-49
3.5805e-52
2.56982e-55
1.84022e-58
1.31455e-61
9.37545e-65
6.6718e-68
4.73458e-71
3.35335e-74
2.36849e-77
1.66872e-80
1.17396e-83
8.2424e-87
5.77686e-90
4.04037e-93
2.81742e-96
1.95885e-99
1.35976e-102
9.42645e-106
6.52012e-109
4.50062e-112
3.09896e-115
2.12887e-118
1.45972e-121
9.98166e-125
6.81067e-128
4.64113e-131
3.15502e-134
1.26563e-137
1.06165
1.00217
1.02867
1.0275
1.01044
1.02017
0.951834
1.25386e-11
8.25743e-15
8.8164e-15
1.41563e-15
2.18959e-17
1.83549e-20
3.48312e-24
9.82516e-28
6.01761e-31
4.17067e-34
2.8876e-37
1.98247e-40
1.38784e-43
9.7764e-47
6.78266e-50
4.95848e-53
3.45977e-56
2.35529e-59
1.64089e-62
1.152e-65
8.15324e-69
5.59589e-72
3.89176e-75
2.70818e-78
1.87839e-81
1.33509e-84
9.36609e-88
6.24525e-91
4.29228e-94
2.9574e-97
2.03698e-100
1.3941e-103
9.52738e-107
6.51222e-110
4.44248e-113
3.02917e-116
2.05989e-119
1.39547e-122
9.45293e-126
6.44861e-129
4.32214e-132
2.90731e-135
1.16013e-138
1.02593
1.04767
1.07237
1.05486
0.978658
1.00079
1.00107
2.80402e-08
3.75597e-15
3.45182e-16
3.40907e-16
8.61702e-17
3.36326e-18
9.82188e-21
1.79818e-24
3.07778e-28
2.10108e-31
1.54248e-34
1.08902e-37
7.63717e-41
5.35399e-44
3.74749e-47
2.61678e-50
1.82464e-53
1.2689e-56
8.80575e-60
6.10208e-63
4.21833e-66
2.90907e-69
2.00613e-72
1.38066e-75
9.48289e-79
6.50522e-82
4.45026e-85
3.034e-88
2.06691e-91
1.40583e-94
9.53953e-98
6.46333e-101
4.36805e-104
2.94496e-107
1.98251e-110
1.33232e-113
8.93901e-117
5.98993e-120
4.00586e-123
2.6723e-126
1.7792e-129
1.18185e-132
4.64941e-136
1.07087
1.15978
1.04196
0.943648
1.02677
0.9915
1.00063
0.109795
3.31316e-12
3.54391e-15
1.13282e-17
8.81158e-18
7.71635e-19
7.34822e-21
6.63811e-24
1.06968e-27
4.05007e-31
2.99632e-34
2.2195e-37
1.59375e-40
1.13872e-43
8.12534e-47
5.78136e-50
4.11499e-53
2.91472e-56
2.06148e-59
1.45589e-62
1.02653e-65
7.22453e-69
5.06331e-72
3.54331e-75
2.47479e-78
1.72377e-81
1.19817e-84
8.31706e-88
5.75873e-91
3.97976e-94
2.74456e-97
1.8868e-100
1.29485e-103
8.8736e-107
6.07968e-110
4.149e-113
2.82683e-116
1.91577e-119
1.29835e-122
8.77871e-126
5.92676e-129
3.9917e-132
1.58998e-135
1.00061
1.04668
1.00091
0.951655
1.03642
1.02234
1.00238
0.766947
1.11318e-10
3.80684e-15
1.23783e-16
9.274e-17
1.39939e-17
2.70877e-19
4.3603e-22
7.38255e-26
1.97549e-29
1.4054e-32
1.04208e-35
7.45906e-39
5.30293e-42
3.76721e-45
2.66989e-48
1.88967e-51
1.33426e-54
9.39813e-58
6.61073e-61
4.64005e-64
3.24778e-67
2.26913e-70
1.58211e-73
1.10024e-76
7.64216e-80
5.29371e-83
3.65866e-86
2.52513e-89
1.73866e-92
1.19391e-95
8.18457e-99
5.60257e-102
3.82765e-105
2.61048e-108
1.77593e-111
1.20509e-114
8.16399e-118
5.52042e-121
3.72363e-124
2.50764e-127
1.68535e-130
6.69409e-134
1.06293
1.01013
0.926651
0.858126
0.982366
0.977218
1.00214
0.87756
1.88262e-12
1.43999e-16
1.82965e-16
1.8076e-16
2.99756e-17
6.1844e-19
1.07518e-21
1.88985e-25
4.77605e-29
3.36515e-32
2.4965e-35
1.78597e-38
1.26781e-41
8.99587e-45
6.3707e-48
4.50273e-51
3.17513e-54
2.23327e-57
1.56949e-60
1.10053e-63
7.69756e-67
5.3739e-70
3.74059e-73
2.59678e-76
1.80188e-79
1.24764e-82
8.61361e-86
5.9372e-89
4.08337e-92
2.80225e-95
1.92026e-98
1.31294e-101
8.95748e-105
6.10169e-108
4.1467e-111
2.81065e-114
1.90184e-117
1.2839e-120
8.64623e-124
5.8176e-127
3.90897e-130
1.55261e-133
1.06705
1.017
0.972562
1.05673
0.987889
0.992047
1.00532
0.632407
3.2902e-12
3.60895e-15
8.76554e-18
6.18771e-18
5.28197e-19
4.79049e-21
4.077e-24
6.72902e-28
2.63814e-31
1.93057e-34
1.41868e-37
1.01563e-40
7.29195e-44
5.236e-47
3.68872e-50
2.63313e-53
1.86339e-56
1.31089e-59
9.24731e-63
6.5201e-66
4.59672e-69
3.35951e-72
2.26938e-75
1.57373e-78
1.09911e-81
7.65158e-85
5.38357e-88
3.68834e-91
2.54549e-94
1.76841e-97
1.22141e-100
8.31279e-104
5.69019e-107
3.89524e-110
2.65901e-113
1.81389e-116
1.22991e-119
8.33462e-123
5.74032e-126
3.82224e-129
2.5758e-132
1.12979e-135
1.0496
1.06658
1.02864
1
1.00984
1.01078
1.00154
0.0261953
1.08605e-14
4.25612e-16
4.17967e-16
1.05431e-16
4.26796e-18
1.36824e-20
2.82103e-24
4.59921e-28
3.06661e-31
2.26081e-34
1.60034e-37
1.12394e-40
7.89217e-44
5.53121e-47
3.86721e-50
2.69983e-53
1.88072e-56
1.30726e-59
9.06968e-63
6.27794e-66
4.33382e-69
2.99193e-72
2.06213e-75
1.41782e-78
9.72838e-82
6.65962e-85
4.54842e-88
3.10269e-91
2.11194e-94
1.43432e-97
9.73073e-101
6.58646e-104
4.44688e-107
2.99744e-110
2.0165e-113
1.35356e-116
9.0729e-120
6.06804e-123
4.04753e-126
2.6963e-129
1.79444e-132
7.07145e-136
1.03936
1.01626
1.10177
1.11953
1.01011
0.985369
1.00026
8.81986e-10
5.52573e-15
7.24491e-15
1.4781e-15
3.92838e-17
7.06909e-20
1.17497e-23
2.80712e-27
1.79667e-30
1.26636e-33
8.61151e-37
5.81493e-40
4.00667e-43
2.78095e-46
1.93553e-49
1.35534e-52
9.28907e-56
6.82687e-59
4.602e-62
3.08772e-65
2.13682e-68
1.47931e-71
1.00642e-74
7.13198e-78
4.75681e-81
3.304e-84
2.20576e-87
1.49454e-90
1.02055e-93
6.92439e-97
4.6734e-100
3.14735e-103
2.12583e-106
1.42937e-109
9.64708e-113
6.46744e-116
4.31724e-119
2.89792e-122
1.98596e-125
1.28797e-128
8.47263e-132
5.61558e-135
2.23779e-138
1.02468
1.03729
1.05306
1.02273
1.0173
1.00339
0.955356
2.42601e-12
4.52191e-17
3.24228e-17
6.21787e-18
4.36371e-19
7.3491e-21
1.56382e-23
4.26367e-27
1.10617e-30
7.40549e-34
5.6518e-37
4.17479e-40
3.03579e-43
2.20398e-46
1.59764e-49
1.15518e-52
8.33907e-56
6.00525e-59
4.31275e-62
3.09184e-65
2.21155e-68
1.57885e-71
1.12409e-74
7.98467e-78
5.6554e-81
3.99605e-84
2.81792e-87
1.98247e-90
1.39274e-93
9.75828e-97
6.81811e-100
4.7543e-103
3.30882e-106
2.29763e-109
1.59237e-112
1.10085e-115
7.59061e-119
5.22435e-122
3.58728e-125
2.45745e-128
1.68142e-131
1.14712e-134
4.61472e-138
1.03383
1.03848
1.00827
1.01662
0.970249
1.00072
0.70615
3.51826e-11
-2.42702e-18
1.64608e-20
1.08208e-18
1.00106e-19
5.34198e-22
1.5323e-25
1.25435e-29
4.04803e-33
1.59432e-36
7.06298e-40
3.32982e-43
2.26901e-46
6.85545e-50
3.14941e-53
1.64908e-56
4.87107e-60
3.19132e-63
7.12259e-66
2.09518e-69
7.63657e-73
1.6112e-75
2.80645e-79
6.7414e-82
1.10968e-85
2.48276e-88
2.56303e-91
1.07302e-94
5.18668e-98
6.97999e-101
3.30316e-104
2.97592e-108
5.56434e-110
2.90054e-113
2.15443e-117
7.17148e-120
1.70832e-123
9.92703e-127
5.54803e-129
1.07335e-132
7.54847e-136
9.99197e-139
1.76493e-141
1.03521
1.01662
1.04619
0.998736
1.00267
1.01415
0.952693
4.8055e-12
-1.63288e-19
1.49559e-16
1.25333e-17
6.64765e-20
7.13709e-23
4.86663e-26
9.09435e-30
2.16347e-33
8.62888e-37
3.80715e-40
1.6999e-43
7.00548e-47
3.39571e-50
1.38671e-53
7.90996e-57
3.28891e-60
1.29987e-63
5.76795e-67
3.5938e-70
1.25776e-73
8.42483e-76
1.55741e-79
1.20657e-82
1.25458e-85
1.21943e-88
2.19032e-92
1.25143e-95
7.5325e-99
1.36338e-102
3.74649e-106
2.67593e-107
3.60836e-110
3.6803e-114
7.47842e-118
7.73938e-121
2.28255e-123
3.99669e-127
9.49636e-131
1.24518e-133
1.34214e-137
5.94284e-141
1.15846e-144
0.98716
1.04571
1.0257
1.03485
1
1.0065
1.00106
2.03106e-08
-2.12427e-22
-3.12735e-22
1.89411e-17
2.70459e-18
3.16493e-20
1.53119e-23
7.47437e-28
1.91925e-31
8.04533e-35
3.73523e-38
1.91022e-41
6.10099e-45
3.68543e-48
1.171e-51
1.15076e-54
4.00631e-58
2.19044e-61
7.17073e-65
4.77661e-67
8.38265e-71
7.36048e-75
8.61287e-77
2.11508e-80
1.3101e-84
2.90603e-87
1.11482e-89
6.90741e-93
5.40146e-96
1.78306e-99
7.13661e-103
3.61751e-106
1.71598e-108
1.18975e-111
2.81484e-115
1.07393e-118
1.43534e-121
6.38517e-125
3.18353e-129
7.25481e-131
5.92293e-134
1.10446e-137
2.30948e-140
1.16985
1.0984
0.710245
1.12043
1.0407
0.965646
1.00045
0.109465
-5.45564e-19
-1.54368e-19
0
1.00159e-18
3.94844e-20
7.43204e-23
9.99886e-27
1.23507e-30
4.4541e-34
1.89774e-37
8.00515e-41
3.50237e-44
1.50271e-47
6.13179e-51
3.25743e-54
2.88057e-57
1.3089e-60
4.0835e-64
1.07585e-67
1.38752e-69
7.81833e-73
6.56219e-77
1.80381e-79
1.5971e-82
3.34628e-86
6.18406e-90
8.6584e-93
2.63955e-96
3.37492e-99
3.6908e-102
3.47844e-106
8.57754e-108
4.27214e-111
2.09228e-114
2.66915e-117
1.48276e-120
1.32421e-123
6.20646e-127
4.38647e-130
3.10935e-134
7.08591e-138
2.76045e-141
0.971296
0.633184
0.953563
1.00037
1.01295
1.00178
1.00244
0.766873
5.48914e-11
-1.96314e-19
4.96898e-20
4.82434e-18
3.93626e-19
1.56545e-21
2.82674e-25
2.40918e-29
7.85294e-33
3.32844e-36
1.65657e-39
6.31115e-43
2.48689e-46
1.10676e-49
5.92915e-53
3.21758e-56
2.83957e-59
4.03912e-62
3.42698e-66
8.90653e-70
9.00793e-72
5.55016e-75
2.51415e-78
2.92542e-82
2.49313e-84
5.16933e-88
1.09371e-90
1.02296e-94
3.84713e-97
1.24264e-100
9.96396e-103
2.56196e-106
2.67297e-110
1.29092e-112
5.19889e-116
2.71502e-119
1.13712e-122
2.13009e-126
4.6311e-128
2.42359e-131
6.92638e-135
1.49921e-137
1.11043
0.976605
0.996351
0.963389
0.995418
0.973798
1.00216
0.877559
4.636e-13
-8.36311e-19
1.81768e-20
3.77105e-18
3.05017e-19
1.20039e-21
2.14224e-25
1.83656e-29
6.05349e-33
2.73318e-36
1.14585e-39
2.95081e-42
4.80187e-46
4.24984e-49
1.19616e-52
4.7669e-56
1.03726e-59
3.92254e-63
1.01985e-65
1.12643e-69
3.23081e-73
1.57301e-74
2.74181e-77
5.5307e-80
6.61466e-84
2.48114e-87
3.09205e-91
5.69635e-94
1.93356e-97
5.77463e-100
8.35972e-104
2.05022e-106
8.00464e-110
6.19765e-113
8.77477e-116
4.58851e-119
2.7846e-122
1.63465e-126
4.22876e-130
2.18103e-131
1.5813e-134
6.65908e-139
1.06722
1.01857
0.933573
1.02339
1.00219
1.00611
1.00506
0.632737
-1.69566e-17
-2.4593e-19
1.38179e-23
8.86275e-19
3.42647e-20
6.23978e-23
8.25385e-27
1.03338e-30
3.72024e-34
1.65752e-37
6.83377e-41
2.96361e-44
2.4749e-47
6.84861e-51
2.67256e-54
1.51856e-57
7.25094e-61
6.29082e-64
1.1624e-67
4.03401e-71
1.00708e-72
5.69771e-76
2.94128e-80
7.02485e-84
2.68735e-87
5.79402e-90
2.18243e-92
5.03618e-96
8.5426e-100
4.49762e-102
9.53144e-106
1.60393e-109
3.4533e-112
3.69186e-115
5.31403e-118
2.28013e-121
8.69941e-125
6.37293e-129
1.82337e-132
7.17463e-136
5.46989e-139
2.84118e-139
1.05567
1.04801
0.988942
0.988793
1.02817
1.01601
1.00141
0.0252524
-6.33564e-21
-7.77201e-22
1.84565e-17
2.58116e-18
3.02581e-20
1.54245e-23
7.91944e-28
1.99246e-31
8.27258e-35
3.47613e-38
1.92083e-41
7.90911e-45
2.92686e-48
1.59015e-51
1.243e-54
2.39114e-58
3.41022e-61
5.54575e-65
3.14734e-67
4.87416e-70
3.53009e-74
1.85025e-77
6.38731e-80
5.11101e-84
2.156e-86
1.07286e-89
2.24016e-93
2.21191e-96
1.88498e-99
6.59706e-103
1.23101e-105
4.53293e-108
1.18562e-111
1.47018e-114
5.23261e-118
1.5812e-121
7.61818e-125
6.01452e-129
1.83194e-132
7.11591e-136
2.79953e-139
7.86749e-143
1.10731
1.01343
1.01896
1.02704
0.982147
0.976107
1.00023
4.50359e-10
-1.1405e-18
1.39921e-16
1.52214e-17
1.2035e-19
8.1901e-23
3.2435e-26
7.344e-30
2.03879e-33
8.62694e-37
3.64291e-40
1.70144e-43
8.07754e-47
3.00447e-50
1.57725e-53
7.25599e-57
3.2358e-60
1.57547e-63
2.89375e-66
3.62378e-70
1.05389e-73
3.94435e-77
5.18733e-79
2.58506e-82
1.01015e-85
1.92273e-88
9.47964e-92
2.53257e-95
2.50028e-98
1.27246e-101
8.26486e-105
4.34347e-109
4.06322e-111
5.7569e-115
5.32754e-119
5.52611e-121
1.50648e-123
2.36392e-127
6.03181e-131
9.76209e-134
1.11289e-136
7.07093e-139
1.26118e-142
1.07149
0.843314
1.00253
1.00369
0.943405
0.998201
0.956071
9.52519e-13
-2.69648e-18
3.37777e-19
1.33907e-18
1.83632e-19
1.50269e-21
5.10709e-25
3.25795e-29
9.39203e-33
3.87833e-36
1.66892e-39
7.06879e-43
2.99002e-46
1.2873e-49
5.57015e-53
2.28654e-56
9.74693e-60
4.95581e-63
2.10435e-66
9.15611e-70
3.28126e-73
5.03169e-76
3.42176e-79
4.62175e-83
5.2495e-85
2.0508e-88
2.12186e-92
3.87938e-95
3.34788e-98
1.9829e-101
2.1651e-105
5.05802e-107
3.37078e-110
7.84998e-114
1.426e-116
8.86978e-120
1.36468e-123
1.1733e-126
1.6744e-129
1.04097e-132
6.86951e-136
1.77711e-139
9.8374e-144
1.00042
1.02271
1.00312
1.0034
1.00049
1.02284
1.00422
1.00223
0.993923
1.00203
1.02795
1.00267
0.995918
1.00214
1.00162
0.994307
1.00209
1.00037
1.00179
0.975186
1.00183
1.00205
1.00179
1.00437
0.996119
1.00149
1.00127
1.00294
1.00386
0.967681
1.0015
1.02342
1.00353
0.949858
1.00086
1.00134
0.999281
1.00642
0.974519
1.00092
1.00023
1.00665
1.0058
1.01464
1.00474
0.998849
1.00734
1.01525
1.00533
1.00623
0.991637
1.00136
1.01347
1.00633
0.986415
1.00139
1.00028
0.999434
0.999925
0.974468
1.00029
0.997562
0.999622
1.00017
1.01576
1.00003
1.00456
1
1.01098
1.0002
1.0008
1.02251
1.00467
1.0017
1.00056
1.02192
1.00391
1.00296
0.976006
1.00252
1.01445
1.00235
0.992995
1.00236
1.00222
0.982167
1.0022
1.00319
1.0018
1.00653
1.00194
1.00167
0.999148
1.00294
0.976878
1.00195
0.999027
1.00283
1.00376
0.958058
1.00113
1.01093
1.00347
0.941607
1.00095
1.00131
0.997353
1.00695
0.988181
1.00091
0.996117
1.00686
1.00948
1.01915
1.00566
1.00474
1.00983
1.0191
1.00554
1.00686
0.983032
1.00166
1.02062
1.00639
1
1.00139
1.00049
0.998451
0.999711
0.982983
1.00014
0.99681
0.999845
0.999986
1.0091
1.00048
1.0044
1
1.02283
1.00012
1.00091
1.02211
1.00401
0.996773
1.00031
1.02238
1.00269
1.00266
0.990266
1.00266
1.01482
1.00189
0.994378
1.00214
1.00216
1.0123
1.00212
1.00753
1.00176
1.01388
1.00207
1.00222
0.998394
1.0027
0.96509
1.00218
1.00045
1.003
1.00376
0.933706
1.00123
1.00169
1.00371
0.950361
1.00146
1.00131
0.999978
1.00697
0.991708
1.00129
0.993004
1.00674
1.00962
1.00545
1.0057
1.00627
1.00902
0.981417
1.005
1.00682
1
1.00163
1.01777
1.00634
1
1.00129
1.00038
0.999437
0.999901
1
1.00018
0.998916
0.999964
0.999975
1.02102
1.00045
0.997906
1.00006
1.03635
1.00004
1.00631
0.998118
1.02429
0.986352
1.00202
1.00098
1.02758
1.00617
1.00387
1.00737
1.00458
1.00715
1.00622
1.00345
-1.83268e-18
0.877349
-1.3411e-19
0.707179
3.09065e-08
0.873222
3.12097e-10
1.08155
0.813633
0.904278
1.01258
1.05939
0.861186
0.972625
1.0059
1.0124
0.923014
1.03815
1.01219
0.936222
1.00827
-7.40331e-20
1.00051
-5.12025e-17
0.952548
4.61226e-09
1.0005
1.69165e-07
0.995504
1.01084
1
0.886233
0.985585
1.01869
0.987905
1.00042
1.00202
0.997282
0.999879
1.002
0.994008
1.00102
0.0031154
1.0014
0.570142
1.00143
0.00715981
1.00131
0.570942
0.921614
0.991234
1.02125
1.00848
0.971288
0.990713
1.06805
0.986182
0.989647
0.963826
0.982228
0.989948
0.961296
0.978488
0.818473
1.002
1.00007
1.00083
0.818321
1.00198
1.00018
1.03771
1.0135
0.737945
1.02569
1.04004
1.00435
0.749443
0.999389
1.00811
1
1.02238
1.00836
1
0.997619
1.00025
1.00195
1.00058
1.00261
1.0003
1.00213
1.00131
0.943784
1.0339
0.968821
0.995295
0.946471
1.04732
0.996361
1.00065
1
0.997343
0.979852
1
0.999983
1.00096
1.00071
1.00406
1.00053
1.00246
1.00127
1.00419
1.00075
0.957033
1.00203
1.00662
1.02166
0.999832
1.0053
1.00271
1.00112
1.005
0.996227
0.990648
1.00364
0.995573
1.00251
1.00022
1.00295
0.840424
1.00527
1.00043
1.00329
0.838692
1.00216
0.975721
0.96382
0.999169
1
0.997849
0.945979
1.00834
1.0082
1.00629
1.01271
1.00933
1.00666
1.00859
0.622843
1.00054
0.0241216
1.00167
0.622769
1.00069
0.0311956
0.970173
1.00315
0.984228
1.00672
0.839693
1.00156
0.997832
0.988234
0.999194
0.987698
0.970312
0.999622
0.949152
0.991775
-6.26712e-16
1
-2.06487e-16
1.00058
3.70112e-07
1.00001
2.32379e-08
1.00301
1.0218
1.01248
1.0078
0.994953
1.02551
1.00043
1.00537
1.00385
1.01194
1.00378
1.0026
1.01179
1.00556
-1.27008e-16
0.734078
-6.26978e-15
0.955793
7.80129e-10
0.733578
4.72343e-08
0.994593
1.00746
1.02123
0.974154
1.00231
1.00531
1.02051
1.00563
1.00298
1.00432
1.00165
1.00575
1.00421
1.00303
4.9255e-08
0.87201
6.4687e-10
0.706975
4.9129e-08
0.874819
6.603e-10
1.02053
0.953628
0.941286
1.00595
1.01695
1.0322
0.952574
1.00485
1.0115
1
1.01499
1.00598
1.01139
1.00101
1.00919e-08
1.00076
2.65991e-07
0.952896
1.00435e-08
1.00052
2.65509e-07
0.956545
1.01891
0.977596
1.0154
0.986471
1.04965
1
1.00079
1.00183
1.00224
1.00437
1.00088
1.00175
1.00358
0.00778352
1.00159
0.570618
1.00145
0.00784872
1.00128
0.570715
0.902483
1.16663
0.989531
1.05044
0.874999
0.97513
0.978438
0.998548
0.995212
0.945445
0.984168
0.999959
0.987466
0.943931
0.818745
1.0017
1.00032
1.00087
0.818354
1.00209
1.00019
1.03978
1
0.750943
1.01242
1.04783
0.934111
0.803451
1
1.00762
0.929317
1.01716
0.999869
1.00703
0.988951
1.00063
1.00216
1.00146
1.00283
1.00047
1.00218
1.00107
0.988916
1.01267
0.997755
0.993929
0.983925
1.01039
0.981589
1.00152
0.999131
0.99961
0.97887
1.00147
1
0.998295
1.00163
1.00407
1.00119
1.00259
1.00115
1.00399
1.00094
1.00015
0.99628
0.974328
1.00118
1.00515
0.960974
0.896791
1.00123
1.00392
0.999106
0.993303
1.00108
1.00302
1.00874
1.00074
1.00319
0.839422
1.00542
1.00044
1.00322
0.839082
1.01779
0.993267
0.967627
1.03665
1.04249
1.00236
0.923215
1.01063
1.01081
1.01224
1.00046
1.01043
1.01054
1.01363
0.622526
1.00115
0.0319354
1.00147
0.622863
1.00069
0.0319341
0.831897
1.08487
0.980423
0.999582
0.858535
1.07389
0.984544
0.954189
1.00007
0.963209
0.983338
0.959721
1.00006
0.943268
5.70726e-07
1.00012
3.90306e-08
1.00052
5.72112e-07
1
3.85759e-08
0.907881
1.02814
0.994474
0.935805
0.912481
1.02219
1.05048
1.00574
1.0016
1.00974
1.00387
1.00597
1.0017
1.00934
1.54722e-09
0.733262
7.47763e-08
0.95612
1.55504e-09
0.733742
7.45298e-08
1
1.00671
1.02152
0.995786
0.95568
1.00594
1.02167
1.00464
1.00145
1.00417
0.998497
1.00542
1.00497
1.00133
3.06592e-08
0.875701
3.28861e-10
0.706271
-1.68305e-18
0.879122
-1.53664e-19
1.00537
1.03261
0.978166
1.00174
1.00857
1.01314
0.981644
1.00249
1.01114
1.00378
1.01386
1.00301
1.01132
1.00454
4.48902e-09
1.00071
1.69255e-07
0.95713
-6.61456e-20
1.0006
-3.25003e-17
1.02584
1.02877
1.01131
1.02288
1.04898
1.03725
1.01126
1.00097
1.0021
1.01101
1.0049
1.001
1.00189
1.01789
0.0071502
1.00154
0.57056
1.00083
0.00312816
1.00131
0.570036
0.871497
1.06822
1.02575
1.03583
0.889838
1.00354
1.01237
0.996893
0.998498
0.994203
0.985627
0.997427
0.999497
0.997826
0.818542
1.00151
1.00032
1.0006
0.818124
1.00173
1.00008
1.00755
0.988522
0.951272
1.01851
1.01231
0.994344
0.967675
0.994194
1.0025
0.968398
0.994205
0.997357
1.00204
0.990234
1.00068
1.00219
1.00162
1.00238
1.00027
1.00186
1.00052
1
1.00949
0.991824
1.00304
0.988807
1.00999
0.938316
1.00244
0.999704
1
0.978982
1.00221
1.00006
1.00011
1.00165
1.00426
1.00107
1.00235
1.00075
1.004
1.00052
1.00587
0.971675
0.893972
1.0041
1.00514
0.981524
0.955959
1.00635
1.00677
1.01634
1.01062
1.00631
1.00754
1.01447
1.00069
1.00304
0.839
1.00432
1.00023
1.00289
0.840318
0.986102
0.999918
0.94306
0.998917
0.999507
1
0.977763
1.01132
1.01221
1.01713
1.01839
1.01168
1.0125
1.01612
0.622535
1.00107
0.0311153
1.00116
0.622712
1.00049
0.0241205
0.86206
1.05809
0.926557
0.990686
0.826845
0.993279
0.966342
0.984795
1
0.989942
0.971311
0.986303
1
0.988805
3.6826e-07
1.00013
2.26589e-08
1.0001
-4.43838e-16
1
-1.97866e-16
0.955606
0.86934
1.1175
0.985245
1.00289
0.911657
1.11574
1.01064
1.0017
1.02005
1.00675
1.00739
1.00179
1.04102
7.88447e-10
0.733387
4.67575e-08
0.957303
-1.24466e-16
0.733827
-6.09544e-15
1.00281
1.00178
1.00041
1.00056
1.00091
1.00298
1.00206
1.0087
1.01553
1.01486
1.02275
1.0159
1.01501
1.00884
1.00429
1.00113
1.00815
1.00363
1.00155
1.00809
1.00424
1.00626
1.00395
1.00341
1.00591
1.00606
1.00601
1.00325
1.00297
1.00096
1.0021
1.00084
1.00143
1.00279
1.00227
1.00895
1.02348
1.01637
1.01473
1.01622
1.01477
1.00885
1.00444
1.00432
1.00167
1.00827
1.00197
1.00834
1.0042
1.00513
1.00651
1.00178
1.00245
1.00651
1.00217
1.00553
1.00262
0.993865
1.00373
0.988546
0.987548
1.00212
1.0072
1.00417
1.00178
1.0039
1.00201
1.00206
1.00378
1.00497
1.00741
1.03286
1.01141
1
1.0118
0.974874
1.00596
1.00497
1.00288
1.00655
1.00281
1.00659
1.0026
1.00469
1.00808
0.999618
0.990364
1.00248
1
1.00293
1.00016
1.00552
1.00249
1.00227
1.00375
1.00243
1.00385
1.00395
1.0011
1.00189
1.00189
1.00179
1.00189
1.00148
1.00116
0.998611
0.939419
0.999481
0.992194
0.962944
0.999387
1
1
1.00086
1.001
1.00196
1.00012
1.00049
1.00004
1.00071
1.00029
1.00191
0.998465
1.00204
0.998281
1.00057
1.00127
1.00233
1.00187
1.00144
1.00216
1.00174
1.00109
1.00002
0.991435
0.999991
0.998336
0.979791
0.999479
0.999998
1.00005
1.00229
1.00048
1.00047
1.00033
1.00048
1.00004
0.999816
1.00033
1.00114
1.00176
0.99993
1.00156
1.00007
0.982951
0.894592
1.00869
1.0019
0.897678
1.00772
0.984194
1
1.00234
1.00336
1.00317
1.00223
1.00358
1
0.997653
0.991691
0.996414
0.924477
0.993519
0.958814
0.997436
1
1.00175
0.998764
1.00138
0.999384
1.00148
1
0.98386
1.00115
0.896453
1.00751
0.896662
1.0082
0.984238
1
1.00317
1.00194
1.00348
1.00211
1.00351
1
1.00009
1.00338
1.00296
1.00366
1.00347
1.00272
1.00071
0.99988
0.984603
1
0.959917
0.985822
1
1
1.00016
1.00192
1.00037
1.00107
1.0015
1.0001
1.0008
0.997318
1.02287
1.00808
0.960966
1.00819
0.998788
0.995767
1.00029
1.00397
1.00338
1.00243
1.00365
1.00295
1.00023
0.999258
0.960732
0.972185
1
0.979222
1
1
1.00018
1.00132
1.00125
1.00007
1.00177
1.00035
1
1.00215
1.0001
1.00282
1.00111
1.00023
1.00265
1.0024
1.00204
0.99616
1.00873
0.999636
0.995729
1.0082
1.00376
1.00614
1.00546
1.00921
1.00644
1.00547
1.00926
1.00655
1.00138
0.981369
1
0.999975
1
0.999809
1.00156
1.0025
1.00139
1.00021
1.0026
1.00041
1.00296
1.00227
1.00261
1.00007
0.993108
1.0067
1
1.00658
1.00291
1.00633
1.00662
1.00552
1.00909
1.00598
1.00935
1.00616
1.00813
1.01062
1.00924
1.00516
1.00997
1.00926
1.00827
1.00292
1.00827
1.00902
1.01412
1.00841
1.00877
1.0027
1.0049
1.0057
1.00599
1.00497
1.00568
1.00629
1.00469
1.00164
1
1.00308
0.998305
1.00347
0.999912
1.00115
1.00823
1.00546
1.01033
1.00909
1.01022
1.00923
1.00817
1.00303
1.01397
1.00965
1.00851
1.00816
1.00864
1.00303
1.00527
1.00546
1.00606
1.00627
1.00614
1.00639
1.00525
1.00814
1.00824
1.00671
1.0067
1.00823
1.00687
1.00834
1.00494
0.999512
1.00011
0.98904
0.999561
1
1.00467
1.00607
1.00329
1.00247
1.00136
1.00325
1.00239
1.00622
1.00869
1.01383
1.01049
1.00935
1.00969
1.00721
1.00941
1.0085
1.00672
1.00861
1.00674
1.00849
1.0069
1.00835
1.00507
0.992848
1.00036
1
1.00032
1
1.00516
1.00614
1.00165
1.00323
1.0023
1.00345
1.00248
1.00593
1
1.00035
1
1.00027
1.00046
1
0.997993
0.942623
0.986613
1
0.99968
0.987274
0.996098
0.923588
0.994485
0.99999
0.998516
0.999928
0.999533
0.997023
1
0.992908
0.978931
1
0.865793
0.99947
0.864091
0.970219
1
1.00054
1.00064
1.00002
1.00066
1.00011
1
0.989338
0.999277
0.920023
0.991935
0.962925
0.994421
0.966015
0.994064
1.00001
0.996704
0.997192
0.999186
0.997169
0.994362
1.00214
1.00123
1
1.00001
1.00107
1
1.00236
1.00413
1.01721
1.0031
1.01341
1.01669
1.00416
1.00363
1.00137
1.00025
1.00106
1.00014
1.0004
1.0015
1.00125
1.00543
1.00399
1.0017
1.01063
1.00129
1.01127
1.00567
1.00218
0.999994
1.00101
1
1.00114
0.999984
1.002
1.0042
1.01088
1.00751
1.00358
1.01418
1.00369
1.00329
1.00149
1.00053
1.00045
1.00124
1.00085
1.00145
1.00132
1.00274
1.00226
1.0012
1.00057
1.00304
1.0007
1.00206
1.00876
1.0167
1.01515
1.02209
1.00888
1.01689
1.01505
1.00418
1.00213
1.00833
1.0041
1.00445
1.00178
1.00821
1.00567
1.00246
1.00219
1.00495
1.00471
1.00558
1.00281
1.00284
1.0009
1.00145
1.00058
1.00109
1.0023
1.00198
1.00918
1.02198
1.01622
1.01529
1.01616
1.0153
1.00905
1.00441
1.00431
1.00169
1.00794
1.00219
1.00825
1.0042
1.00404
1.00689
1.00314
1.00252
1.00451
1.00679
1.00311
1.0006
0.978502
1.0026
0.988028
1.00021
0.981438
1.00212
1.00377
1.00262
1.0039
1.00229
1.0039
1.00236
1.00383
1.00396
1.01393
1.01128
1.00318
1.01133
1.00224
1.00306
1.00382
1.00283
1.00669
1.00313
1.00691
1.00329
1.0036
1.00024
0.998416
0.983692
1.0023
0.980557
1.00246
1.00005
1.00364
1.00264
1.00226
1.00375
1.00263
1.00389
1.00295
1.00108
1.00208
1.00155
1.0018
1.00128
1.00188
1.00129
1
0.989368
0.999406
1.00104
1
0.993434
0.999643
1.00005
1.00061
1.00054
1.00186
1.00007
1.00035
1.00053
1.00129
1.03674
1.00211
0.990845
1.00207