/*--------------------------------*- C++ -*----------------------------------*\
| =========                 |                                                 |
| \\      /  F ield         | OpenFOAM: The Open Source CFD Toolbox           |
|  \\    /   O peration     | Version:  5.0                                   |
|   \\  /    A nd           | Web:      www.OpenFOAM.org                      |
|    \\/     M anipulation  |                                                 |
\*---------------------------------------------------------------------------*/
FoamFile
{
    version     2.0;
    format      ascii;
    class       volScalarField;
    location    "4.5";
    object      p;
}
// * * * * * * * * * * * * * * * * * * * * * * * * * * * * * * * * * * * * * //

dimensions      [1 -1 -2 0 0 0 0];

internalField   nonuniform List<scalar> 
8717
(
96.7758
96.4171
98.6651
99.4057
95.5747
94.6817
95.7917
93.1939
90.2472
88.0007
85.5858
83.1469
80.6915
78.2549
75.82
73.405
71.0011
68.6268
66.2749
63.9482
61.6257
59.3247
57.0515
54.7716
52.516
50.2787
48.0486
45.8149
43.5972
41.413
39.2216
37.0548
34.9179
32.7685
30.6147
28.4914
26.4214
24.3865
22.359
20.3262
18.3211
16.3605
14.403
12.4148
10.4573
8.54713
6.63931
4.7236
2.82888
0.945813
97.327
96.7773
95.9806
98.1408
98.7316
98.0732
96.4214
93.6264
90.547
88.1943
85.7062
83.2203
80.7554
78.2908
75.8361
73.4207
71.0067
68.6462
66.3037
63.9548
61.6336
59.3274
57.0461
54.7716
52.5039
50.2636
48.0376
45.8189
43.6134
41.4181
39.2376
37.0685
34.9127
32.7627
30.6188
28.498
26.4169
24.3707
22.3424
20.3256
18.327
16.3645
14.4073
12.4343
10.4645
8.5372
6.62595
4.72107
2.83148
0.945929
94.0784
94.9839
91.5299
101.054
112.253
98.2702
97.3598
94.7728
90.9942
88.4203
85.8616
83.3022
80.7927
78.3213
75.8611
73.4229
71.0299
68.6758
66.3229
63.9552
61.6351
59.3295
57.0323
54.7673
52.5086
50.2591
48.0279
45.8242
43.6202
41.4179
39.2412
37.0668
34.8917
32.7478
30.6239
28.5119
26.4167
24.3612
22.338
20.3256
18.3357
16.3623
14.3972
12.4346
10.476
8.5348
6.62038
4.72237
2.8333
0.945974
97.9908
109.683
92.8819
100.533
106.071
99.3396
98.5812
96.3604
91.4433
88.6679
86.0061
83.4139
80.8475
78.3452
75.8816
73.4408
71.0364
68.6693
66.3011
63.9597
61.6465
59.3317
57.0413
54.7693
52.5196
50.2702
48.0274
45.831
43.6179
41.4108
39.2417
37.0611
34.886
32.7425
30.6315
28.5283
26.422
24.3574
22.3402
20.3374
18.3418
16.3515
14.3744
12.4284
10.4835
8.53763
6.62121
4.72941
2.83942
0.940783
95.2257
94.8874
103.8
100.055
98.2151
102.968
99.296
98.1023
92.4459
88.6222
86.0414
83.415
80.8666
78.3551
75.8988
73.4557
71.0529
68.6641
66.2838
63.965
61.6512
59.3316
57.0451
54.7726
52.5288
50.2844
48.0367
45.8248
43.6031
41.4048
39.2355
37.0527
34.8828
32.7411
30.6332
28.5377
26.4331
24.3623
22.3432
20.3437
18.3406
16.3369
14.3587
12.4117
10.4787
8.53826
6.62812
4.74391
2.84744
0.938735
111.267
100.931
112.186
103.416
99.2108
98.4368
98.4748
97.9061
92.2829
88.5733
86.0085
83.3967
80.8599
78.3544
75.9028
73.46
71.0596
68.6657
66.2763
63.9465
61.6456
59.326
57.0459
54.7829
52.5339
50.2991
48.0472
45.819
43.5934
41.3873
39.2251
37.0471
34.876
32.7431
30.6358
28.539
26.4429
24.372
22.3461
20.3446
18.3344
16.3237
14.3413
12.4029
10.4732
8.54226
6.64432
4.76726
2.85831
0.941851
101.06
98.6151
95.4294
109.861
99.6222
99.8488
98.3172
97.2138
91.2294
88.5294
85.9307
83.3548
80.8439
78.3475
75.8878
73.4523
71.0538
68.6709
66.2772
63.9367
61.6298
59.3247
57.0439
54.7911
52.5404
50.2962
48.053
45.8157
43.5953
41.403
39.2246
37.0363
34.8699
32.7504
30.6411
28.5343
26.4478
24.3839
22.3476
20.3353
18.326
16.3172
14.3402
12.4014
10.4691
8.54399
6.65035
4.76696
2.86203
0.950728
98.9793
97.961
100.679
82.6212
97.219
101.965
97.4416
95.1553
90.833
88.3166
85.7823
83.2655
80.7882
78.3121
75.8449
73.4418
71.037
68.6548
66.2904
63.9303
61.6212
59.3199
57.0416
54.7925
52.5408
50.3006
48.0544
45.8134
43.6093
41.4107
39.2203
37.0328
34.8745
32.7571
30.6388
28.5234
26.4483
24.3969
22.353
20.3278
18.3203
16.3235
14.3501
12.4032
10.4679
8.54598
6.64849
4.75592
2.85997
0.955003
98.0347
97.1347
102
96.972
98.0428
97.2163
96.0782
93.7072
90.4508
88.1169
85.6581
83.197
80.7357
78.2768
75.8365
73.4291
71.0104
68.6353
66.2823
63.9391
61.6157
59.3151
57.0483
54.7884
52.5417
50.3012
48.05
45.8122
43.6019
41.4092
39.2111
37.0335
34.8902
32.7625
30.6309
28.5133
26.443
24.4015
22.3575
20.3272
18.3186
16.3345
14.3665
12.4057
10.4641
8.5478
6.64202
4.74527
2.84843
0.956458
104.556
90.8456
99.9354
105.048
92.594
95.3517
95.3782
93.2041
90.2352
87.9771
85.5753
83.1374
80.6792
78.2522
75.8202
73.4053
71.0025
68.6314
66.2751
63.9423
61.6175
59.3158
57.0511
54.7781
52.5337
50.2989
48.0555
45.815
43.6003
41.4108
39.2132
37.0411
34.9101
32.7682
30.6198
28.4989
26.4312
24.396
22.3601
20.3258
18.3195
16.3495
14.3849
12.4078
10.4583
8.55101
6.64497
4.73438
2.83648
0.945734
98.3255
96.1666
99.1872
100.564
94.4362
94.676
95.8212
93.1912
90.2475
88.0006
85.5859
83.1469
80.6913
78.2549
75.8199
73.4048
71.0011
68.6269
66.275
63.9481
61.6257
59.3248
57.0515
54.7715
52.5161
50.2787
48.0485
45.8149
43.5971
41.413
39.2215
37.0548
34.9179
32.7685
30.6147
28.4913
26.4214
24.3865
22.359
20.3261
18.321
16.3606
14.4032
12.4148
10.4573
8.54716
6.63924
4.72354
2.82889
0.945892
97.2305
100.772
97.0526
98.0595
96.7395
96.7991
96.4372
93.6253
90.5473
88.1942
85.7062
83.2203
80.7554
78.2908
75.8361
73.4205
71.0067
68.6462
66.3037
63.9547
61.6337
59.3274
57.0457
54.7714
52.5039
50.2636
48.0375
45.8189
43.6132
41.4181
39.2381
37.0686
34.9127
32.7626
30.6188
28.498
26.4168
24.3708
22.3423
20.3256
18.327
16.3646
14.4072
12.434
10.4646
8.53723
6.62585
4.72114
2.83148
0.945877
93.3446
95.8947
100.664
102.44
103.912
98.3061
97.34
94.7675
90.9956
88.4202
85.8616
83.3021
80.7927
78.3213
75.861
73.4229
71.0299
68.6756
66.323
63.9552
61.6348
59.3294
57.0321
54.7673
52.5085
50.259
48.0279
45.8242
43.6203
41.4182
39.241
37.0667
34.8917
32.7478
30.624
28.5119
26.4166
24.3612
22.338
20.3255
18.3358
16.3623
14.3971
12.4345
10.4762
8.53465
6.62034
4.72243
2.83332
0.945963
95.08
100.903
96.6713
103.493
104.116
98.3119
98.536
96.2305
91.4439
88.6676
86.006
83.4139
80.8475
78.3451
75.8816
73.4408
71.0364
68.6692
66.3009
63.9595
61.6465
59.3317
57.0414
54.7694
52.5195
50.27
48.0275
45.8311
43.6181
41.4106
39.2415
37.0611
34.8859
32.7424
30.6315
28.5282
26.422
24.3574
22.3402
20.3374
18.3418
16.3516
14.3745
12.4284
10.4836
8.53761
6.62111
4.72936
2.83941
0.940666
106.395
95.756
101.008
96.7025
102.581
102.641
99.2621
98.1333
92.4454
88.6231
86.0413
83.415
80.8663
78.3551
75.8988
73.4557
71.0529
68.6641
66.2837
63.9651
61.6512
59.3315
57.045
54.7728
52.5287
50.2844
48.0368
45.8248
43.6026
41.4047
39.2354
37.0526
34.8828
32.7411
30.6332
28.5377
26.4331
24.3623
22.3433
20.344
18.3406
16.3369
14.3586
12.4118
10.4787
8.53824
6.62804
4.74386
2.84741
0.938778
108.221
96.8733
100.871
140.711
97.6837
98.7183
98.4486
97.9415
92.2799
88.574
86.0083
83.3966
80.86
78.3544
75.9028
73.46
71.0596
68.6657
66.2763
63.9465
61.6455
59.3257
57.0456
54.7829
52.534
50.2992
48.0472
45.819
43.5934
41.3874
39.2251
37.047
34.8758
32.7431
30.6357
28.539
26.4429
24.372
22.346
20.3446
18.3342
16.3236
14.3414
12.403
10.4731
8.54224
6.64429
4.76747
2.85803
0.941819
100.962
99.7856
95.2387
109.096
100.285
100.805
98.2805
97.2404
91.2299
88.5293
85.9307
83.3547
80.8439
78.3475
75.8878
73.4523
71.0537
68.6707
66.2772
63.9367
61.6298
59.3247
57.0439
54.7911
52.5402
50.2961
48.053
45.8157
43.5954
41.4029
39.2248
37.036
34.8699
32.7503
30.6411
28.5343
26.4478
24.3839
22.3476
20.3353
18.326
16.317
14.3402
12.4014
10.469
8.54397
6.65045
4.76703
2.86194
0.950849
98.4528
101.736
103.425
77.4566
96.9131
102.066
97.4154
95.0225
90.8337
88.3164
85.7823
83.2655
80.7882
78.3121
75.8448
73.4417
71.0373
68.6546
66.2905
63.9303
61.6211
59.3199
57.0416
54.7925
52.5407
50.3009
48.0544
45.813
43.6092
41.4107
39.2202
37.0327
34.8745
32.7571
30.6388
28.5234
26.4484
24.3969
22.353
20.3277
18.3202
16.3235
14.3501
12.4032
10.4678
8.54596
6.64848
4.7559
2.85996
0.954964
101.431
97.2835
103.736
114.41
99.2443
96.2633
96.0853
93.7045
90.4514
88.1167
85.6581
83.1971
80.7357
78.2768
75.8364
73.4293
71.0105
68.6345
66.2824
63.9392
61.6157
59.3152
57.0483
54.7883
52.5416
50.3012
48.0499
45.8122
43.6019
41.4092
39.2105
37.0334
34.8903
32.7626
30.6308
28.5132
26.443
24.4014
22.3574
20.3272
18.3186
16.3347
14.3664
12.4056
10.4641
8.54775
6.6419
4.74522
2.84846
0.956451
102.752
97.703
74.9707
106.407
96.9285
95.2415
95.4207
93.2019
90.2355
87.9767
85.5754
83.1373
80.6791
78.2522
75.8202
73.4056
71.0025
68.6313
66.2752
63.9422
61.6174
59.3158
57.051
54.7781
52.5337
50.2989
48.0553
45.8151
43.6002
41.4107
39.2131
37.0411
34.9101
32.7681
30.6197
28.4989
26.4313
24.396
22.3601
20.3258
18.3195
16.3494
14.385
12.4078
10.4582
8.55103
6.64484
4.73428
2.83656
0.945726
98.5415
96.2945
99.4058
101.412
95.876
94.4103
95.8171
93.1944
90.2471
88.0006
85.5859
83.1469
80.6907
78.2552
75.8199
73.4045
71.001
68.6268
66.2749
63.9478
61.6256
59.3248
57.0513
54.7713
52.5161
50.2788
48.0483
45.8148
43.5969
41.413
39.2216
37.0548
34.9178
32.7683
30.6146
28.4913
26.4213
24.3865
22.3589
20.326
18.3209
16.3606
14.4032
12.4149
10.4573
8.54713
6.6391
4.72343
2.82883
0.945872
98.155
99.9609
98.4589
98.2756
96.7272
96.8512
96.439
93.6258
90.5468
88.1942
85.706
83.2202
80.7553
78.2907
75.836
73.4203
71.0066
68.6462
66.3037
63.9546
61.6336
59.3275
57.0455
54.7712
52.5039
50.2636
48.0373
45.8188
43.6132
41.4185
39.2382
37.0685
34.9126
32.7626
30.6188
28.4979
26.4168
24.3712
22.3422
20.3247
18.327
16.3646
14.4071
12.4333
10.4646
8.53721
6.62564
4.72108
2.83144
0.94568
93.5651
96.4918
104.696
101.659
100.641
96.6366
97.3477
94.7702
90.9955
88.4202
85.8615
83.302
80.7926
78.3212
75.861
73.4228
71.0298
68.6755
66.323
63.955
61.6346
59.3294
57.032
54.7677
52.5085
50.2588
48.0279
45.8241
43.6203
41.4182
39.2409
37.0663
34.8918
32.7479
30.6241
28.5119
26.4164
24.3612
22.3379
20.3254
18.3361
16.3624
14.3971
12.4343
10.4764
8.53453
6.62025
4.72243
2.83328
0.945635
107.019
82.658
117.777
98.2639
104.199
101.151
98.5674
96.2399
91.4432
88.6669
86.006
83.4138
80.8474
78.3451
75.8815
73.4407
71.0363
68.669
66.3008
63.9594
61.6465
59.3316
57.0413
54.7695
52.5195
50.2698
48.0276
45.8309
43.618
41.4105
39.2413
37.0611
34.8859
32.7424
30.6315
28.5281
26.4219
24.3575
22.3402
20.3373
18.3417
16.3516
14.3744
12.4285
10.4837
8.53754
6.62101
4.72927
2.8393
0.940337
130.026
72.1805
107.603
97.5237
99.9744
101.491
99.2718
98.1281
92.4457
88.6228
86.0414
83.4148
80.8661
78.355
75.8989
73.4557
71.0528
68.664
66.2835
63.9651
61.6512
59.3316
57.0448
54.7728
52.5284
50.2844
48.0369
45.8247
43.6025
41.4046
39.2363
37.0526
34.8826
32.741
30.6332
28.5376
26.433
24.3622
22.3432
20.3442
18.3403
16.3369
14.3586
12.4118
10.4786
8.53817
6.62819
4.74377
2.84739
0.938689
119.776
103.105
91.1046
96.55
98.5937
97.5867
98.4733
97.9463
92.2803
88.5735
86.0082
83.3965
80.8601
78.3543
75.9025
73.4599
71.0595
68.6658
66.2761
63.9464
61.6454
59.3252
57.0455
54.7835
52.5342
50.2991
48.0471
45.819
43.5933
41.3876
39.2254
37.0467
34.8757
32.743
30.6357
28.5389
26.4428
24.3719
22.346
20.3447
18.3341
16.3234
14.3413
12.4031
10.4729
8.54217
6.64431
4.76739
2.8576
0.941789
100.98
99.8061
99.7992
101.418
97.9917
100.207
98.2591
97.2357
91.2294
88.5293
85.9306
83.3546
80.8438
78.3474
75.8877
73.4522
71.0536
68.6705
66.2771
63.9367
61.6297
59.3246
57.0438
54.791
52.54
50.2961
48.0529
45.816
43.5956
41.403
39.2248
37.0359
34.8698
32.7503
30.641
28.5341
26.4477
24.3838
22.3475
20.3353
18.326
16.3168
14.3402
12.4013
10.4689
8.5439
6.65066
4.7668
2.86154
0.9508
98.719
98.5771
104.949
114.224
99.8686
95.1397
97.412
95.0296
90.8334
88.3164
85.7822
83.2654
80.7881
78.312
75.8447
73.4417
71.0375
68.6543
66.2906
63.9303
61.621
59.3199
57.0416
54.7924
52.5406
50.301
48.0544
45.8129
43.6089
41.4107
39.2201
37.0326
34.8744
32.7571
30.6387
28.5234
26.4483
24.3968
22.3529
20.3277
18.3202
16.3235
14.3501
12.4031
10.4677
8.54589
6.64843
4.75585
2.85994
0.954856
111.658
97.3848
96.7271
109.881
102.643
96.9001
96.0894
93.7046
90.4512
88.1168
85.658
83.197
80.7356
78.2767
75.8364
73.4294
71.0106
68.6343
66.2824
63.9392
61.6156
59.3151
57.0483
54.7882
52.5414
50.3011
48.0498
45.8121
43.6024
41.4093
39.2097
37.0333
34.8904
32.7626
30.6307
28.5132
26.4429
24.4012
22.3573
20.3271
18.3187
16.3349
14.3663
12.4054
10.4641
8.54767
6.6418
4.74515
2.84855
0.956362
94.9594
141.194
99.394
119.514
92.8815
94.6717
95.4176
93.2016
90.2352
87.9768
85.5754
83.1372
80.6788
78.2522
75.8201
73.4059
71.0024
68.6312
66.2752
63.9422
61.6172
59.3157
57.051
54.778
52.5338
50.2989
48.0552
45.815
43.6001
41.4104
39.2126
37.0412
34.9102
32.768
30.6195
28.4992
26.4313
24.3959
22.36
20.3258
18.3195
16.3494
14.3848
12.4076
10.4582
8.55098
6.64466
4.73411
2.83655
0.945652
95.4348
96.5119
96.1424
94.5803
95.4407
96.4886
96.1402
96.4173
94.5244
97.1461
96.9329
96.4173
96.2236
97.1556
97.3989
97.3768
98.2117
98.2897
97.3701
102.2
98.2185
98.4969
101.007
99.608
99.5788
98.5019
100.961
99.4066
99.6284
100.291
98.9062
102.93
99.589
100.43
98.867
98.4061
99.1834
98.3464
99.1955
98.4051
99.2707
98.3459
98.1714
99.6544
98.1799
100.187
98.1701
99.6294
98.1394
97.7668
97.5753
96.3498
102.078
97.7626
97.6286
96.3487
95.8613
93.6693
95.0717
96.179
95.8555
93.7814
95.0774
95.1957
93.6859
94.8729
95.2809
95.1936
92.9539
94.879
95.4397
96.4465
96.145
94.4833
95.443
96.4631
96.1429
96.42
102.737
97.1487
96.8691
96.4149
98.9261
97.1495
97.3725
99.8868
98.2038
97.5803
97.3551
100.458
98.202
98.4481
100.98
99.3992
99.0225
98.4533
100.734
99.3856
99.5682
100.213
98.8261
101.913
99.6532
101.872
98.8513
98.3706
99.1994
98.3774
100.555
98.4062
97.6001
98.363
98.9624
100.24
98.1479
100.168
98.582
99.2792
98.138
97.7379
98.7673
96.3605
96.107
97.7351
97.2665
96.3571
95.8708
93.8133
95.0641
96.3036
95.8763
93.8848
95.0824
95.193
93.5135
94.879
95.178
95.1888
95.1666
94.882
95.4446
96.4663
96.1445
94.7135
95.4372
96.4679
96.1478
96.4138
99.5691
97.184
96.9127
96.4182
98.019
97.177
97.4209
100.602
98.2089
97.3559
97.363
100.771
98.2106
98.4773
100.729
99.3896
98.432
98.4688
100.306
99.4197
99.6647
104.154
98.84
101.987
99.6308
95.8667
98.861
98.3911
98.8917
98.3691
102.402
98.3906
101.984
98.3611
98.5225
99.1276
98.1578
100.582
98.472
102.034
98.1696
97.7216
97.2121
96.3731
95.5846
97.7655
97.1528
96.3634
95.8857
94.0036
95.0871
97.6928
95.8636
94.0418
95.0884
95.1886
95.6209
94.8836
99.3721
95.1875
96.1314
94.876
94.2238
96.8744
96.7393
94.4427
93.8856
96.618
97.0662
94.9616
95.0231
94.6791
94.7426
94.6338
94.9643
94.9661
94.1363
96.2474
94.5227
95.8178
94.1315
96.2645
94.5311
100.285
107.979
103.005
96.7339
98.2076
103.568
103.444
96.7886
96.3821
100.545
97.2564
96.3838
97.5712
96.7473
94.7311
97.1762
95.4721
96.4291
94.7391
97.1767
95.4745
104.522
104.643
99.5097
129.297
104.235
104.238
99.1116
96.5441
97.3948
95.3661
98.2773
97.3969
95.8744
96.5361
95.8258
98.052
97.3273
97.3655
95.7611
97.9963
97.3473
92.603
102.335
108.168
104.38
102.887
102.418
112.584
99.6591
98.763
100.548
100.825
98.7081
100.204
100.993
97.9758
99.1131
98.601
98.5621
98.0114
99.1152
98.6055
103.221
99.6901
108.565
98.1134
102.992
98.6622
106.431
101.581
100.622
111.42
102.834
100.631
111.474
101.349
98.6347
98.9419
98.3937
99.2676
98.6366
98.9324
98.3934
81.518
99.6038
101.358
98.4263
92.0591
100.968
99.1122
97.6663
97.7043
96.6485
98.4315
97.7176
96.336
97.6036
98.2589
98.2431
97.9197
98.4588
98.2575
98.2476
97.9214
105.591
95.6277
103.828
100.092
102.185
96.0068
103.475
99.6849
99.1241
101.174
100.183
98.9701
101.29
99.7721
97.8623
97.8419
97.3183
98.2794
97.8661
97.8399
97.3518
100.542
97.0704
98.9957
96.864
100.691
96.9271
100.643
97.8938
98.7855
98.5688
101.75
98.6167
98.5072
97.8651
96.7841
96.3611
95.0447
97.4276
96.8242
96.3436
94.921
97.1541
104.844
91.4384
99.016
94.1009
104.59
91.7448
95.8875
94.9039
96.045
97.7991
94.8945
89.2258
96.2005
94.771
95.3271
94.3024
96.0886
94.7595
95.3531
94.3114
98.3451
95.0322
94.7554
90.757
97.749
94.6996
95.7405
94.6606
94.993
95.9523
95.335
94.7741
95.9175
94.6569
94.1706
95.1956
94.2163
95.4169
94.1789
95.2287
94.2128
95.0489
96.7273
96.4227
95.2291
94.9948
96.5878
96.4908
94.9369
94.9589
94.7385
94.6669
94.9328
94.7706
94.9625
94.1283
96.2796
94.5295
95.82
94.1282
96.275
94.5312
98.0405
102.54
97.8657
96.734
98.0399
100.02
96.6005
96.7004
96.3744
97.1271
96.8137
96.6805
96.3946
97.1849
94.737
97.1759
95.471
96.444
94.737
97.1718
95.4711
114.457
103.908
100.333
103.728
101.188
108.412
98.2286
96.7592
97.3621
95.4721
98.1263
96.6729
97.3559
95.5554
95.7581
97.9866
97.3486
97.3391
95.7591
97.9825
97.351
101.976
135.503
101.667
104.511
102.803
99.4205
103.525
100.356
99.2102
101.043
98.5375
100.624
99.2889
101.328
98.0161
99.1209
98.6057
98.5692
98.0157
99.1374
98.6045
102.999
98.5343
106.13
100.497
103.249
103.418
102.46
100.812
100.544
121.331
102.241
100.874
100.483
121.039
98.6363
98.9358
98.3938
99.3316
98.6356
98.9388
98.392
105.911
99.954
99.4066
98.7806
93.6722
100.054
97.4558
97.5619
97.8418
96.4466
98.4729
97.5721
97.8267
96.5793
98.2613
98.2463
97.9211
98.4987
98.2585
98.2503
97.9215
102.418
96.7447
105.906
97.5924
99.5908
107.957
110.765
99.5731
98.9732
100.797
100.371
99.6475
99.1059
100.775
97.8658
97.8327
97.3582
98.287
97.8658
97.8344
97.3556
100.903
95.8005
98.1583
101.378
105.505
97.1595
100.695
97.84
98.7425
98.4317
102.419
97.844
98.6686
98.9178
96.8286
96.3768
94.9128
97.4153
96.8299
96.3607
94.9136
95.1515
105.045
90.9813
97.7599
94.9536
100.43
101.146
98.4283
94.9535
109.823
96.1538
96.3781
94.9585
102.468
94.7585
95.3564
94.3092
96.0868
94.7596
95.3578
94.309
98.8777
95.0605
96.7384
95.2494
98.4105
93.8325
97.8729
94.6056
94.8003
96.0859
95.1471
94.616
94.8066
96.2201
94.1769
95.2351
94.2109
95.4208
94.1774
95.2372
94.2108
94.573
96.65
96.4193
97.8339
98.5793
96.6639
96.4336
94.8727
94.9633
94.7045
94.4745
94.9022
94.7365
94.9693
94.1315
96.2681
94.5333
95.7895
94.136
96.2478
94.5227
98.3543
100.221
96.1049
96.7996
98.0866
101.023
96.3431
96.8743
96.395
97.2658
96.8818
96.8306
96.4177
97.3431
94.7384
97.1719
95.4746
96.4315
94.729
97.172
95.4726
100.14
108.969
98.894
102.463
102.353
107.413
100.57
96.9632
97.367
97.4329
97.087
96.9442
97.3716
98.0522
95.7619
97.9988
97.3471
97.3641
95.826
98.0432
97.3257
103.59
99.8287
96.4014
104.41
104.902
104.994
95.0986
98.5344
98.2817
100.704
102.246
98.5722
98.4263
100.713
98.0134
99.1221
98.6062
98.5586
97.976
99.111
98.6011
100.848
105.038
101.481
100.215
100.785
103.157
98.6783
101.013
100.381
90.662
101.46
100.248
100.403
98.7012
98.6366
98.9399
98.4
99.2739
98.6335
98.9588
98.3927
98.5701
100.048
96.1896
99.0288
97.5978
100.305
100.129
97.6222
97.8872
96.7529
95.9527
97.6033
97.9105
96.7783
98.2656
98.259
97.9217
98.4637
98.2592
98.2516
97.9208
99.5309
104.741
112.507
98.8118
99.5839
106.854
96.9408
99.5651
98.8074
100.078
100.44
99.5629
99.0303
100.082
97.8674
97.83
97.351
98.2995
97.8621
97.8343
97.3178
95.8282
97.0988
96.6012
101.968
94.7555
97.7027
99.9201
97.8235
98.5795
98.3647
95.4787
97.8827
98.5787
98.2413
96.8234
96.4021
94.9214
97.4212
96.7838
96.3803
95.0416
95.1684
97.4007
106.291
96.6199
100.471
100.566
92.7381
96.4938
95.0221
103.997
98.2543
96.4208
95.045
103.217
94.7606
95.3552
94.3117
96.0865
94.7712
95.3287
94.3026
98.3876
86.8217
98.2087
92.3678
98.9871
72.663
98.0785
95.2469
94.9107
96.0976
95.4267
94.6164
94.9404
96.7833
94.1798
95.2335
94.2127
95.3792
94.1703
95.1958
94.2163
95.1758
95.2657
95.41
95.442
95.4164
95.1765
95.2315
95.6517
95.5949
96.1627
96.5192
95.5738
96.1696
95.6518
95.7044
95.8257
96.1128
96.1402
95.8292
96.1141
95.705
94.9714
94.595
94.9812
94.6086
94.6027
94.9386
94.9771
95.1704
95.442
95.2333
95.4147
95.4186
95.1728
95.2593
95.6489
96.6213
95.5784
96.1666
95.5775
96.1649
95.6405
95.71
96.143
95.8275
96.1126
95.8293
96.1158
95.7047
96.6264
96.3237
96.7279
96.4155
96.3244
96.6692
96.6946
96.8
96.8008
97.36
95.4089
97.6724
97.2769
97.3436
96.8152
96.7809
97.1441
97.1491
96.7485
97.1388
96.7635
96.7938
97.0492
96.3611
97.1188
96.3664
97.0695
96.661
96.6223
96.4222
96.3308
96.6732
96.3257
96.668
96.6054
97.0096
97.3971
96.9833
97.1933
99.6225
97.1879
96.5261
96.9999
97.1825
96.7604
97.1531
96.7712
97.1429
96.5531
97.4485
97.3172
97.6366
97.3722
97.329
97.593
97.4417
98.18
102.437
98.3336
96.987
98.2704
98.3308
98.1011
98.239
98.1267
98.363
98.2149
98.0574
98.2945
98.224
96.5192
98.2616
97.377
95.1417
97.4059
95.2192
96.6051
97.4577
97.5231
97.3288
97.5654
97.3798
97.5846
97.4392
97.9735
96.9453
101.517
98.5192
98.5837
98.3352
97.966
98.2467
98.2779
97.9381
98.3131
97.9813
98.2985
98.2656
99.1381
98.5777
98.9973
98.4456
98.5249
98.9724
99.1251
99.9487
105.522
100.544
101.04
104.925
100.511
99.8729
99.4649
99.2003
99.7647
99.4094
99.1822
99.76
99.4718
99.9969
98.2369
99.6061
108.377
98.5886
100.017
99.9896
99.1246
98.4467
98.6758
98.9589
98.508
98.9593
99.1296
99.8732
101.005
105.008
100.471
104.826
100.501
99.8274
99.4653
99.4023
99.2033
99.7649
99.1765
99.7578
99.4717
100.269
100.004
99.5728
99.6195
99.9972
99.5472
100.291
101.638
102.752
99.3767
99.8765
102.771
99.3663
101.659
100.247
99.5955
99.1632
98.848
99.5461
99.1513
100.357
101.156
102.862
100.592
112.018
100.607
111.38
101.512
100.2
99.6499
99.9911
99.5419
100.015
99.5487
100.185
101.676
99.9142
103.114
99.3471
102.819
99.3526
101.615
100.247
98.8398
99.5731
99.1187
99.5393
99.1503
100.267
98.1309
98.3726
98.2015
98.3928
98.3602
98.2056
98.1197
98.0592
97.8955
98.507
99.1574
97.9485
98.4068
98.1269
98.0898
98.1614
98.5045
98.3456
98.1575
98.5092
98.1109
97.5695
98.6151
97.7409
96.4133
97.7293
96.3191
97.5861
98.125
98.3897
98.3609
98.1956
98.4031
98.2042
98.1039
97.9284
99.2326
97.4471
98.4279
99.1247
98.4573
97.8977
98.0702
98.3416
98.1571
98.4949
98.2113
98.5275
98.0832
98.8192
98.6168
98.5559
98.2627
98.5597
98.5574
98.8233
98.7555
98.8585
99.1579
99.6601
98.8543
99.1359
98.7824
98.226
98.1878
98.5622
98.1413
98.2074
98.5337
98.261
99.6301
100.59
99.0497
100.887
98.9947
100.882
99.6485
98.8095
98.1841
98.4716
98.556
98.4832
98.5499
98.8207
98.74
99.7041
98.8671
99.1238
98.8978
99.1261
98.7234
98.224
98.1444
98.1863
98.5386
98.203
98.539
98.2237
97.6829
98.1569
97.3546
97.7633
98.1577
97.3614
97.6717
97.1215
97.5049
96.2321
97.4906
97.4781
96.2278
97.1349
97.1533
96.8194
96.3835
96.3505
96.8235
96.3952
97.1616
97.8285
102.167
98.6421
98.4062
98.6199
98.4653
97.8257
97.6536
97.7671
98.1398
97.3554
98.1432
97.3625
97.6354
97.1205
97.8847
97.4254
96.2038
97.4208
96.2159
97.1125
97.1514
96.3763
96.8213
96.3823
96.8269
96.402
97.1381
95.6501
95.8324
95.6101
95.8609
95.8176
95.6132
95.9104
88.8174
90.6505
94.9935
93.6886
90.7139
94.41
92.7008
95.1284
95.588
95.0312
95.0723
95.4924
94.8731
95.7663
96.4734
95.7354
94.9321
112.216
94.9149
113.437
95.9383
95.6472
95.9163
95.8178
95.608
95.8207
95.625
95.6261
103.435
93.665
103.36
94.6556
90.5976
94.3745
95.6263
95.1675
95.0883
95.465
94.8588
95.4786
94.8562
95.1826
94.9798
95.3707
94.8619
95.1955
95.3633
94.8655
94.9934
95.2241
102.006
94.1745
93.2193
101.954
95.2307
94.1838
95.0629
95.2563
94.7335
94.8782
95.2629
95.0649
94.7177
94.6505
95.2824
94.8124
95.8157
94.906
95.8408
94.6305
94.9813
95.1951
95.3675
94.8646
95.366
94.8648
94.9795
95.2236
93.0921
102.161
94.2152
102.001
95.1161
94.1791
95.0398
94.88
95.2599
94.7194
95.2625
95.0058
94.7253
95.1569
95.2533
95.4143
95.441
95.1909
95.4145
95.2219
95.6399
95.6074
96.1625
96.4303
95.6368
95.6395
96.1636
95.7039
95.8266
96.1134
96.1416
95.7068
95.8262
96.1085
94.934
94.6247
94.9543
94.7377
94.7151
94.9237
94.957
95.1646
95.4421
95.1965
95.4156
95.4151
95.1692
95.2143
95.6428
96.444
95.5775
96.1698
95.6001
96.1741
95.6346
95.7025
96.1428
95.8257
96.1096
95.826
96.109
95.6969
96.5855
96.3383
96.692
96.4155
96.5963
96.3311
96.6901
96.4774
97.9692
97.2048
98.4697
96.5191
97.1658
97.2563
96.5531
96.7853
97.1669
97.1455
96.5506
96.7535
97.1723
96.7317
96.9538
96.3897
97.2377
96.3984
97.1976
96.8031
96.59
96.4149
96.3343
96.6948
96.3413
96.7046
96.6055
96.4784
100.555
97.1744
97.2425
97.4768
97.241
96.498
96.5514
97.1663
96.7582
97.1851
96.7908
97.2014
96.5452
97.4247
97.313
97.5648
97.3688
97.4381
97.3325
97.579
97.9117
99.7037
98.309
100.272
97.9484
99.5336
98.3122
98.3312
97.9585
98.3278
98.2057
98.3011
97.898
98.3462
96.9038
110.384
97.3703
97.9626
97.3653
97.8834
96.9191
97.4178
97.3531
97.2613
97.5677
97.2856
97.5644
97.4018
97.8883
100.354
99.1944
98.3746
99.6667
98.3661
97.7056
98.3437
98.1931
97.8822
98.3769
97.8941
98.3579
98.4977
99.13
98.5169
98.9208
98.4467
99.1309
98.5256
98.922
99.636
105.066
100.462
100.918
99.6106
105.058
100.442
99.4887
99.1761
99.782
99.3977
99.4791
99.2007
99.7449
100.274
98.6533
98.1119
100.745
100.217
100.871
101.876
99.1244
98.4499
98.5437
98.8802
98.5443
98.9069
99.1221
100.247
100.819
104.898
100.352
105.086
100.392
99.9244
99.5023
99.4038
99.1773
99.7308
99.1841
99.7442
99.5041
100.091
100.005
99.5161
99.6
100.153
99.976
99.5521
101.472
102.487
99.3449
99.9495
101.58
104.349
99.3419
100.293
99.5129
99.1167
98.8678
100.275
99.557
99.1268
100.572
102.112
100.383
104.86
100.41
105.247
100.521
100.055
99.6155
99.9772
99.5408
99.9834
99.5122
99.9872
101.873
100.196
104.616
99.3519
104.54
99.2682
101.826
100.307
98.8306
99.5597
99.1057
99.5533
99.1165
100.317
98.1126
98.364
98.1936
98.4006
98.1046
98.3719
98.191
97.8824
99.6675
98.3756
102.207
97.8889
99.7768
98.3823
98.0779
98.1735
98.4915
98.3671
98.0885
98.1491
98.486
97.5539
98.469
97.9105
96.7052
97.8613
97.0877
97.5776
98.1085
98.3716
98.382
98.1927
98.374
98.1925
98.1083
97.8917
102.152
97.5448
98.3744
97.5234
98.3849
97.952
98.0859
98.3752
98.1621
98.4879
98.1789
98.497
98.0911
98.8269
98.6434
98.5656
98.7159
98.8142
98.5461
98.5706
98.6162
99.0985
99.1165
101.455
98.6651
98.9967
99.0926
98.2225
98.2022
98.5052
98.1348
98.2206
98.1957
98.5044
99.5334
100.163
98.8211
100.413
98.8519
100.936
99.5175
98.8434
98.6614
98.5347
98.5569
98.6289
98.5613
98.8465
98.5582
99.7831
100.631
99.0201
100.873
99.0464
98.5221
98.2179
98.1592
98.2018
98.5015
98.2326
98.5028
98.2276
97.6438
98.1653
97.3552
97.728
97.6831
98.1302
97.3522
97.1144
97.342
96.1886
96.674
97.1133
97.2981
96.1849
97.1376
96.8244
96.3814
96.3507
97.1311
96.8236
96.3922
97.8389
107.035
98.5862
98.3139
98.951
98.8284
97.8058
97.6389
97.7444
98.0875
97.3584
98.1168
97.3513
97.6365
97.125
96.9388
97.32
96.1791
97.3056
96.1842
97.1314
97.137
96.3581
96.8264
96.398
96.8344
96.408
97.1263
95.5964
95.8293
95.6115
95.8526
95.607
95.8263
95.5809
96.1311
98.9587
94.8471
93.9761
95.6519
96.9374
94.621
95.1178
95.6911
94.864
95.0687
95.1086
95.1105
94.8632
96.8635
96.4641
95.0094
96.3539
94.9861
105.995
96.3594
95.6086
95.8586
95.8177
95.5773
95.8326
95.5771
95.6146
96.1924
93.782
96.7002
94.6343
96.7943
94.6377
96.2202
95.2077
95.0795
95.3534
94.9972
95.1976
94.9361
97.9819
94.9902
95.3677
94.8639
95.1906
94.9803
95.3678
94.8645
98.0535
102.594
94.2231
93.3141
95.7356
105.675
94.2328
95.0876
95.2585
94.72
94.8797
94.9686
95.2561
94.7176
94.6762
95.3805
94.8765
96.6958
94.8357
96.1403
94.6764
94.9819
95.1891
95.3735
94.8643
95.3707
94.8642
94.9758
95.803
103.03
93.2066
94.2228
92.7106
93.9826
94.2319
95.3841
94.8807
95.2429
94.7121
95.2497
95.0273
94.7191
95.1472
95.194
95.4163
95.4448
95.1686
95.416
95.1928
95.634
95.5647
96.1706
96.4544
95.6292
95.5682
96.1558
95.6961
95.8273
96.1072
96.1426
95.7126
95.8285
96.1079
94.8905
94.7012
95.0026
94.7818
94.797
94.9108
95.0215
95.156
95.446
95.1981
95.411
95.417
95.2047
95.2004
95.6516
96.4548
95.5839
96.1559
95.5745
96.1598
95.6428
95.6947
96.1443
95.8281
96.1146
95.8316
96.1101
95.704
96.6148
96.3394
96.7289
96.4113
96.602
96.3365
96.6809
96.5272
97.0201
97.257
98.0474
96.5508
97.0063
97.2612
96.5716
96.7801
97.1877
97.1455
96.5494
96.745
97.2
96.8893
96.8579
96.4251
97.3709
96.4261
97.3722
96.9271
96.6139
96.4137
96.3359
96.7181
96.3356
96.6837
96.6156
96.5349
98.2229
97.0927
97.262
96.9941
97.281
96.5361
96.5693
97.149
96.7871
97.209
96.7456
97.2047
96.5772
97.4178
97.2622
97.5738
97.3597
97.405
97.2732
97.5911
97.7468
98.2891
98.3622
100.584
97.7006
98.2014
98.3746
98.362
97.8857
98.3602
98.2056
98.3444
97.8957
98.3518
96.9757
97.6015
97.35
97.9227
97.3514
97.6295
96.9847
97.4251
97.3533
97.2848
97.5929
97.2777
97.59
97.5315
97.7165
100.857
99.0187
98.4346
99.9466
98.3739
97.7238
98.3556
98.2173
97.9384
98.359
97.9198
98.3551
98.3324
99.1341
98.5361
98.9198
98.4719
99.1271
98.5623
98.8762
99.5221
104.391
100.335
100.954
100.017
103.932
100.33
99.5679
99.2405
99.7387
99.3596
99.5
99.1765
99.7351
98.5483
98.5823
98.4831
102.504
98.4945
100.841
98.5623
99.1136
98.4804
98.5635
98.9587
98.5356
98.8958
99.1259
99.8654
100.428
103.777
100.485
103.922
100.338
99.7022
99.5115
99.3971
99.2368
99.7792
99.1765
99.8033
99.5086
99.9524
99.9664
99.5232
99.6452
99.9556
99.9709
99.5224
101.802
100.16
98.8509
100.918
101.804
115.619
101.279
100.313
99.5967
99.0952
98.8433
100.307
99.5983
99.0813
99.7353
105.062
100.627
85.4799
100.766
84.0782
99.8019
99.8647
99.622
99.9743
99.5277
99.9631
99.5158
99.9116
101.725
97.719
106.418
100.018
111.448
99.9475
101.825
100.345
98.8475
99.5908
99.0808
99.5776
99.0767
100.327
98.1207
98.3673
98.2054
98.3995
98.1196
98.3623
98.2066
98.0543
97.8514
98.5456
98.7892
97.8877
97.8688
98.4439
98.093
98.1876
98.481
98.3615
98.0901
98.1629
98.4784
97.643
99.0979
98.0245
97.4714
97.9297
96.7255
97.6803
98.1329
98.3892
98.3703
98.196
98.3591
98.1958
98.134
97.7888
104.228
97.9356
98.4024
97.8928
98.4082
97.8032
98.0885
98.3621
98.1789
98.4826
98.1664
98.4841
98.1041
98.8628
98.521
98.5899
98.2308
98.8549
98.5242
98.5878
98.5566
101.416
99.0074
99.1244
98.5144
101.926
98.948
98.1832
98.1879
98.4946
98.1368
98.1929
98.1773
98.4917
99.529
101.638
99.191
100.885
99.0288
101.415
99.5447
98.8709
98.7323
98.6165
98.5963
98.5001
98.5907
98.8648
98.9989
99.0111
103.094
99.0833
101.714
99.2773
98.8292
98.2618
98.143
98.1961
98.4969
98.1825
98.4967
98.2331
97.6286
98.1036
97.3769
97.713
97.6432
98.0796
97.3587
97.1419
97.3315
96.1835
97.167
97.1398
97.339
96.2141
97.1404
96.8298
96.3984
96.3492
97.1355
96.8293
96.4166
97.858
95.559
98.5828
98.3028
98.6079
98.2899
97.8455
97.6377
97.7632