/*--------------------------------*- C++ -*----------------------------------*\
| =========                 |                                                 |
| \\      /  F ield         | OpenFOAM: The Open Source CFD Toolbox           |
|  \\    /   O peration     | Version:  5.0                                   |
|   \\  /    A nd           | Web:      www.OpenFOAM.org                      |
|    \\/     M anipulation  |                                                 |
\*---------------------------------------------------------------------------*/
FoamFile
{
    version     2.0;
    format      ascii;
    class       surfaceScalarField;
    location    "4.5";
    object      phi;
}
// * * * * * * * * * * * * * * * * * * * * * * * * * * * * * * * * * * * * * //

dimensions      [0 3 -1 0 0 0 0];

internalField   nonuniform List<scalar> 
26170
(
6.07395e-09
-1.45064e-09
3.19145e-08
-1.09465e-08
-2.11458e-08
1.30674e-08
8.98435e-09
2.50163e-09
-6.69308e-09
5.68536e-09
-6.92912e-09
-6.10906e-09
2.38931e-09
1.87729e-11
-4.26767e-09
-4.54114e-11
3.31094e-09
1.70672e-09
-2.66763e-09
-7.88054e-11
-1.55987e-09
1.39663e-08
-4.0423e-09
-4.7725e-09
4.83826e-09
-1.4106e-09
-2.08344e-09
-3.97103e-10
1.83542e-10
-7.61916e-11
-1.50292e-10
-8.99669e-11
-8.46378e-12
-1.54536e-11
1.00072e-10
-1.78733e-10
1.80306e-10
7.65582e-13
4.39297e-13
1.36076e-09
-3.3968e-11
-2.45963e-11
-2.43839e-10
-2.42885e-10
-4.12315e-10
-4.04431e-10
1.37957e-09
-2.03354e-11
-1.71027e-12
1.38836e-09
-1.18326e-11
4.93869e-13
1.39347e-09
-6.76354e-12
-4.45527e-14
1.39733e-09
-5.49178e-12
1.32732e-12
1.39877e-09
-2.77095e-12
2.60614e-13
1.39944e-09
-1.28958e-12
6.78783e-14
1.40029e-09
-1.48285e-12
4.00359e-13
1.40065e-09
-3.42153e-13
-5.07921e-14
1.40032e-09
-4.8402e-13
8.13852e-14
1.4001e-09
-1.2883e-12
1.44269e-12
1.40045e-09
-2.85255e-13
1.23796e-12
1.4005e-09
-1.44731e-13
1.02172e-12
1.40057e-09
-2.86976e-13
-9.47763e-14
1.40045e-09
-7.22463e-13
6.79386e-13
1.40041e-09
-1.10587e-13
2.50942e-13
1.40079e-09
-9.33931e-13
2.08919e-13
1.40025e-09
3.46803e-13
-1.84518e-12
1.40054e-09
2.85157e-13
-2.1122e-13
1.40105e-09
-1.94116e-13
-2.53789e-14
1.39972e-09
2.20266e-12
-3.6735e-12
1.40042e-09
-6.16551e-13
5.01999e-13
1.39968e-09
-1.11389e-12
3.98876e-12
1.39985e-09
-8.40324e-13
2.84539e-12
1.40062e-09
-3.2033e-12
1.98979e-12
1.40116e-09
2.08652e-13
-8.92244e-13
1.40116e-09
5.32187e-14
-9.94336e-15
1.40094e-09
5.33728e-15
-4.36887e-13
1.40043e-09
1.92156e-13
5.79511e-13
1.40057e-09
5.86333e-13
-6.97299e-13
1.4022e-09
-2.1919e-12
2.55972e-13
1.40162e-09
4.27557e-13
8.73522e-14
1.40159e-09
4.80019e-14
-1.07639e-14
1.40172e-09
-7.53821e-14
2.77097e-14
1.40316e-09
-4.59026e-13
2.39908e-12
1.40139e-09
3.78474e-12
-1.94352e-12
1.40155e-09
-4.1374e-13
3.53199e-14
1.40164e-09
-5.16964e-13
3.6766e-13
1.40277e-09
-1.1926e-12
-7.3873e-14
1.40255e-09
1.84191e-13
1.43208e-13
1.40189e-09
1.38663e-12
-7.02452e-13
1.31381e-12
-1.24573e-12
-1.75158e-09
-3.27395e-09
4.96374e-09
1.76093e-09
5.58148e-10
1.34813e-08
8.20917e-10
2.87019e-09
1.46661e-09
-1.73119e-08
-5.51893e-09
2.62388e-09
1.27297e-09
2.57256e-09
-1.21203e-07
-1.12599e-09
1.54697e-09
-1.72073e-09
1.07336e-10
3.0655e-09
8.47131e-10
-5.13458e-08
5.90876e-08
1.01729e-07
2.20025e-10
1.43167e-09
-3.59997e-10
1.35966e-09
5.19456e-09
-9.93197e-09
1.41267e-09
3.68899e-10
7.19221e-10
1.11e-09
-2.33046e-10
-1.83289e-10
1.33671e-09
-1.15091e-09
2.59281e-10
-2.61798e-10
-1.03228e-10
-2.24253e-11
1.50233e-11
-3.00004e-11
1.4063e-10
-3.38026e-11
2.04604e-10
-1.18582e-11
-3.89237e-12
-3.55038e-11
-6.13679e-11
-6.55478e-11
7.36982e-12
1.39278e-09
-5.06729e-11
-2.38819e-11
-2.52299e-10
-2.5618e-10
-4.18099e-10
-4.25626e-10
1.39577e-09
-2.08951e-11
-2.5671e-12
1.3979e-09
-1.44513e-11
3.94046e-13
1.39927e-09
-8.12302e-12
-8.49999e-14
1.3996e-09
-5.11405e-12
-7.68968e-13
1.40006e-09
-3.11566e-12
-1.81187e-13
1.40059e-09
-1.89102e-12
7.78661e-15
1.40031e-09
-1.0198e-12
-2.49387e-13
1.4005e-09
-6.29514e-13
3.3032e-14
1.40003e-09
-1.71381e-12
1.635e-12
1.40103e-09
-9.53303e-13
-1.40477e-12
1.40066e-09
-8.74354e-14
1.0178e-13
1.40072e-09
5.18217e-13
-7.86021e-13
1.40019e-09
9.23274e-14
9.59633e-14
1.40114e-09
-4.04872e-13
-1.32394e-12
1.40085e-09
3.32141e-13
-1.95567e-13
1.40024e-09
-3.52694e-13
-4.24771e-15
1.40006e-09
-1.45989e-13
6.3759e-13
1.40009e-09
5.49431e-14
1.87091e-13
1.40005e-09
-2.12791e-13
5.2918e-14
1.40007e-09
-5.56002e-13
2.74907e-12
1.39971e-09
-1.53722e-13
-8.61248e-14
1.40026e-09
3.92829e-13
-2.03015e-12
1.40056e-09
6.73073e-13
-1.76554e-12
1.40116e-09
-3.92462e-12
1.68385e-13
1.40118e-09
-3.86764e-12
4.12651e-12
1.40107e-09
3.51654e-13
-1.16937e-13
1.40124e-09
9.82632e-14
-1.86792e-13
1.40163e-09
2.20076e-13
-3.29703e-13
1.40173e-09
1.52712e-13
4.21591e-13
1.4006e-09
-9.73969e-13
2.70611e-15
1.40086e-09
4.88545e-13
-2.27088e-13
1.40112e-09
-7.24948e-14
-4.67967e-14
1.40116e-09
-1.6943e-14
-1.78036e-15
1.40108e-09
1.5062e-13
-4.43344e-13
1.40294e-09
1.83528e-13
1.81692e-12
1.40238e-09
-2.54891e-13
4.71299e-13
1.40238e-09
4.27078e-14
-4.93782e-13
1.40199e-09
3.84841e-13
-1.13532e-12
1.40183e-09
4.0602e-13
-2.67507e-14
1.40247e-09
2.69589e-13
5.03966e-13
-1.96245e-13
1.3308e-12
1.21537e-09
-1.20601e-10
2.2569e-08
-3.05279e-08
5.87966e-09
-1.21723e-09
2.50709e-10
1.77801e-09
-1.70665e-09
-2.9941e-09
-1.64396e-09
6.41154e-09
8.882e-10
3.1353e-09
1.34985e-09
-2.8008e-09
-4.46039e-10
9.55479e-10
4.17183e-09
-2.22023e-09
-2.46105e-09
3.44882e-11
9.18317e-11
1.72239e-09
5.34353e-10
-2.38306e-09
3.63902e-11
-1.6701e-10
1.82863e-10
4.86644e-10
-5.38887e-10
-3.81183e-11
2.59766e-11
-7.93626e-11
4.67609e-11
4.47435e-11
-2.80452e-11
1.75808e-12
-1.89577e-12
3.42624e-12
2.4755e-11
1.41145e-09
-6.78469e-11
-2.96416e-11
-2.51215e-10
-2.56554e-10
-4.23162e-10
-4.3377e-10
1.40742e-09
-1.64276e-11
-6.17154e-13
1.40565e-09
-1.31201e-11
3.16153e-13
1.4039e-09
-6.49171e-12
2.2356e-14
1.40282e-09
-4.13533e-12
1.92859e-14
1.40207e-09
-2.44956e-12
1.04506e-14
1.40159e-09
-1.49619e-12
2.27322e-14
1.40139e-09
-9.11593e-13
2.09164e-14
1.40115e-09
-5.59343e-13
1.03249e-13
1.40141e-09
-1.24681e-12
-7.92522e-13
1.40052e-09
-6.76045e-14
-6.20698e-14
1.40081e-09
-4.31686e-13
-1.77822e-14
1.4008e-09
4.45153e-13
2.59545e-14
1.4011e-09
-2.7333e-13
5.24319e-15
1.39984e-09
-1.02059e-12
1.81755e-12
1.40027e-09
-2.59083e-13
1.20371e-13
1.39993e-09
-4.88226e-13
4.3611e-13
1.39991e-09
-8.60519e-15
-1.38543e-13
1.39991e-09
1.30004e-13
-9.08234e-14
1.39969e-09
-1.5145e-13
1.524e-13
1.40043e-09
3.86204e-13
-1.67816e-12
1.40107e-09
6.84102e-13
-1.45651e-12
1.401e-09
4.85069e-13
2.21825e-15
1.40201e-09
7.94031e-13
-1.08803e-12
1.40054e-09
-3.43975e-14
-2.36809e-12
1.40031e-09
1.31608e-13
-3.70578e-12
1.40065e-09
1.25824e-13
-4.45152e-14
1.40093e-09
-1.21185e-13
1.82372e-14
1.40125e-09
7.53147e-14
-8.9063e-14
1.40133e-09
-4.73407e-14
2.17684e-13
1.40138e-09
-5.01933e-13
-4.34894e-13
1.40075e-09
-9.18906e-13
2.13363e-12
1.40094e-09
-8.38509e-14
-9.00532e-14
1.40088e-09
-3.62136e-13
4.97815e-13
1.40175e-09
-1.84736e-12
1.21811e-12
1.40268e-09
-1.72229e-12
1.05112e-12
1.40261e-09
-1.68896e-15
-1.07103e-13
1.40262e-09
-4.6888e-15
9.55955e-14
1.40192e-09
-4.09681e-14
1.18041e-12
1.40182e-09
5.88607e-13
-4.46497e-14
1.40176e-09
2.69692e-13
8.49938e-14
-1.87369e-12
8.07047e-13
6.60181e-09
5.58308e-09
-4.84162e-08
6.26397e-08
-8.56206e-09
-1.99339e-08
9.60851e-10
7.55454e-09
-5.17773e-09
2.2184e-10
9.0898e-09
-1.61997e-09
-1.08999e-09
-1.1206e-08
-1.97037e-09
1.03265e-08
-1.19084e-09
4.04065e-09
1.31928e-10
2.19126e-09
-2.96958e-11
1.85033e-09
-4.14382e-09
3.99938e-10
8.32916e-11
1.3866e-09
6.08773e-11
-1.93071e-09
3.89874e-11
1.46797e-09
-5.56217e-10
-4.30067e-10
-5.20674e-10
-1.83702e-11
5.62073e-11
-6.26176e-10
2.77764e-10
-6.22226e-11
6.96526e-12
-5.64494e-11
9.23249e-11
4.74419e-11
8.70593e-11
5.96147e-13
6.74393e-11
7.31663e-11
5.42565e-11
-1.30985e-10
1.2063e-11
-1.62349e-11
9.73436e-11
3.78136e-11
1.46875e-09
-8.35338e-12
-3.59068e-11
-2.68886e-10
-2.68979e-10
-4.50403e-10
-4.62075e-10
-1.20709e-11
-1.05734e-11
-1.94249e-11
1.42961e-09
2.42332e-11
-1.67591e-12
1.41693e-09
-2.75156e-13
-2.86553e-13
1.40935e-09
1.13163e-12
-1.42209e-13
1.40568e-09
-5.06517e-13
-3.41322e-14
1.40365e-09
-4.81342e-13
-8.29745e-15
1.40251e-09
-4.33622e-13
7.54197e-15
1.40181e-09
-2.91385e-13
1.49327e-14
1.40152e-09
-1.30396e-13
-1.9936e-13
1.40094e-09
-4.94649e-14
-6.8593e-13
1.40096e-09
-1.71491e-13
1.41552e-14
1.40083e-09
-3.77171e-13
6.0938e-15
1.40072e-09
-2.09423e-13
7.02938e-13
1.40048e-09
-1.31822e-13
3.65639e-14
1.4005e-09
2.44254e-13
-1.33309e-12
1.40049e-09
-4.86067e-13
1.94933e-13
1.40034e-09
-2.03996e-14
-3.59347e-13
1.40032e-09
-2.198e-14
1.21449e-14
1.40026e-09
1.06393e-13
5.76563e-14
1.40033e-09
9.7294e-13
-1.19472e-12
1.40127e-09
1.4968e-12
-2.03882e-12
1.40051e-09
8.47323e-14
1.37011e-12
1.40064e-09
5.60358e-13
-1.71956e-13
1.40034e-09
-9.9928e-13
2.13811e-12
1.40048e-09
-1.20498e-13
-8.05766e-15
1.40072e-09
-7.75443e-15
-3.81207e-14
1.40086e-09
3.6277e-13
-3.03498e-13
1.40089e-09
-4.69088e-14
-2.1626e-14
1.40104e-09
-2.91428e-14
4.14118e-14
1.40112e-09
2.28711e-14
-6.69067e-14
1.40069e-09
-3.14621e-13
3.37216e-13
1.40152e-09
9.40667e-13
-2.59308e-12
1.40152e-09
-1.04134e-13
1.1324e-13
1.40192e-09
3.05119e-13
-9.75551e-13
1.4012e-09
5.61496e-14
-1.09951e-12
1.4024e-09
-2.15187e-12
-6.8997e-13
1.40255e-09
5.28714e-13
-6.1346e-13
1.40264e-09
1.4509e-13
-1.78129e-13
1.40255e-09
1.42604e-12
-1.31925e-12
1.40137e-09
1.79357e-12
8.85982e-15
1.40175e-09
-2.07035e-14
-5.87161e-14
-1.97586e-12
4.05969e-13
-5.41715e-09
-7.8961e-09
-3.0804e-08
5.42128e-08
2.5344e-09
-5.58971e-09
-9.42146e-10
-1.64366e-08
-1.20585e-08
-3.19158e-08
6.48964e-08
-1.64948e-08
-1.15399e-09
-1.68764e-09
-2.36527e-09
3.78785e-10
6.05534e-09
-2.84869e-10
6.56506e-09
2.88384e-09
-5.99961e-09
-4.16433e-09
6.33807e-09
-1.98442e-09
2.5162e-09
5.07932e-09
-2.94399e-08
2.45815e-08
8.6269e-11
-6.56507e-11
-9.6682e-10
1.58914e-09
-2.23457e-10
-1.17658e-09
-2.7129e-09
1.07333e-08
-7.72911e-09
-9.21591e-10
-1.91192e-10
-4.13237e-10
-4.64923e-10
-1.133e-09
1.21555e-09
1.91782e-09
-3.00688e-10
6.83467e-10
-6.56452e-10
1.10978e-09
-7.08235e-10
-4.28557e-10
-7.54755e-11
3.03492e-10
-7.91763e-11
-2.42112e-10
-8.25454e-11
-2.20765e-10
-1.06711e-10
1.2857e-10
1.18055e-10
1.3849e-10
1.1818e-10
-1.01682e-10
6.011e-12
-1.82558e-13
-2.90959e-11
1.24949e-10
-2.15721e-10
2.13148e-10
2.29079e-12
-8.08239e-12
1.41233e-09
8.60476e-12
-2.60372e-11
-2.57589e-10
-2.58892e-10
-4.27593e-10
-4.26637e-10
1.40923e-09
4.79771e-12
-2.05043e-12
1.40683e-09
2.95158e-12
5.10749e-13
1.4051e-09
1.79359e-12
-6.3843e-13
1.40375e-09
7.7415e-13
3.1155e-14
1.40265e-09
5.71124e-13
3.4119e-14
1.40206e-09
2.55604e-13
-1.69879e-14
1.40138e-09
3.73882e-13
1.09183e-13
1.4008e-09
4.35239e-13
3.04701e-14
1.40016e-09
3.03271e-13
9.95854e-14
1.40146e-09
-2.13703e-12
3.94644e-13
1.40076e-09
4.00621e-13
2.45906e-14
1.40088e-09
-5.76426e-13
2.63028e-13
1.4007e-09
2.79615e-13
9.59219e-14
1.40057e-09
-5.62436e-14
-3.43996e-13
1.40072e-09
-4.63916e-13
2.57904e-13
1.40065e-09
-4.1792e-13
4.30518e-13
1.40069e-09
3.08152e-13
-2.52593e-13
1.40039e-09
2.68532e-13
1.00059e-12
1.39936e-09
7.12188e-13
1.82334e-12
1.40096e-09
-2.67604e-12
1.17258e-12
1.40119e-09
4.99245e-13
-1.36304e-13
1.40025e-09
-5.36265e-13
5.1899e-13
1.40034e-09
2.14357e-14
-1.79895e-13
1.40055e-09
-1.15803e-13
-4.07641e-14
1.40067e-09
1.99874e-14
3.0195e-13
1.40063e-09
3.04434e-14
3.46751e-14
1.40072e-09
7.42815e-13
-7.75794e-13
1.40084e-09
1.53475e-14
-2.33897e-14
1.40108e-09
-1.43885e-13
-3.15791e-13
1.40175e-09
-6.17822e-14
4.30618e-13
1.40198e-09
-4.20355e-13
1.7928e-13
1.40178e-09
2.48607e-13
3.38348e-13
1.4025e-09
-4.52583e-13
-1.25677e-13
1.40145e-09
-4.46122e-13
-5.70431e-13
1.40205e-09
-2.26598e-13
2.27265e-13
1.40264e-09
-4.23503e-13
3.80801e-14
1.40271e-09
-1.34728e-12
2.75163e-12
1.40148e-09
3.18756e-12
-1.16521e-13
1.4017e-09
-8.98143e-13
6.78172e-13
-2.08086e-13
-8.90128e-13
6.93122e-09
4.96561e-09
-1.32825e-08
-1.942e-08
5.04221e-09
9.22195e-09
-3.77213e-09
-1.14381e-08
-1.26398e-09
4.60091e-09
-5.41628e-10
2.60562e-09
1.07403e-08
1.40337e-08
-2.45006e-08
-1.86157e-09
4.52124e-09
3.70082e-09
-1.01328e-08
-1.13107e-09
4.72062e-09
2.15075e-09
5.89737e-10
-5.20023e-08
4.05794e-08
-2.26494e-08
2.77897e-08
3.98267e-10
-8.58341e-10
4.4397e-10
4.08205e-10
-5.31309e-10
1.24897e-10
5.0595e-10
-5.07745e-10
-5.65142e-12
9.22059e-10
-3.49859e-10
-2.25316e-10
-3.41233e-10
-4.33023e-11
-1.015e-11
-1.67092e-11
-3.97338e-11
-6.14401e-11
-1.28079e-10
-1.44127e-10
1.10278e-10
1.0569e-10
1.24286e-10
1.03285e-10
-8.31248e-11
-3.64524e-12
-8.4848e-13
-4.88525e-11
1.36471e-10
-3.64747e-11
-9.71907e-13
1.93245e-10
-3.70459e-13
1.05119e-11
-3.56964e-11
-6.58737e-11
-6.43697e-11
1.40431e-09
-1.42572e-11
-2.64863e-11
-2.56636e-10
-2.53312e-10
-4.23342e-10
-4.21698e-10
1.40514e-09
5.74314e-12
-1.79966e-12
1.40501e-09
2.62152e-12
4.25201e-13
1.40392e-09
2.36467e-12
4.70975e-13
1.40301e-09
1.6075e-12
2.74801e-14
1.40244e-09
1.12337e-12
-3.55923e-14
1.40173e-09
9.02835e-13
7.04991e-15
1.40143e-09
5.10478e-13
1.00207e-13
1.40156e-09
1.85739e-13
5.22442e-14
1.4016e-09
1.8417e-13
1.86252e-14
1.39977e-09
-5.70115e-13
1.99272e-13
1.40102e-09
-3.29694e-12
2.38652e-12
1.4004e-09
3.24057e-13
-3.4424e-13
1.40053e-09
3.22559e-13
-2.26366e-13
1.40024e-09
2.17711e-14
1.65297e-13
1.40001e-09
-2.28673e-16
-2.70795e-13
1.40109e-09
1.04967e-12
-2.56949e-12
1.40114e-09
5.36367e-14
1.84913e-13
1.40135e-09
1.38558e-13
-8.21894e-14
1.40166e-09
6.31903e-13
-2.27812e-13
1.39874e-09
4.44183e-12
-4.17825e-12
1.39921e-09
-9.75748e-13
1.04188e-12
1.4006e-09
3.97225e-14
-1.92975e-12
1.40067e-09
2.41747e-14
-1.43775e-14
1.4008e-09
1.16467e-13
-2.98221e-13
1.40041e-09
1.03869e-12
-5.58613e-13
1.40063e-09
-6.35e-14
-5.19486e-14
1.40099e-09
-1.80819e-13
6.55616e-13
1.40098e-09
1.20614e-13
-1.4831e-14
1.40085e-09
-4.21439e-13
5.09058e-13
1.40177e-09
-6.52578e-13
-2.42203e-13
1.40173e-09
4.15144e-13
-7.02676e-13
1.40212e-09
-4.13382e-13
3.66512e-13
1.40194e-09
-6.15671e-14
-1.31715e-13
1.40155e-09
5.49503e-14
-3.01965e-14
1.4014e-09
-9.21127e-14
9.07406e-14
1.40128e-09
-1.30166e-13
-1.1698e-13
1.40135e-09
1.34262e-12
-2.69987e-12
1.4033e-09
1.13947e-12
1.35251e-13
1.40307e-09
-4.43486e-13
-2.0218e-13
-8.07247e-13
1.85747e-12
-6.69072e-09
4.95122e-09
8.09426e-09
3.16931e-11
-1.34052e-09
2.60064e-09
-6.03682e-10
-3.72879e-09
-2.46137e-09
-1.22576e-08
1.25702e-08
-1.01412e-08
-3.98535e-10
-8.42622e-10
-1.5751e-09
1.75319e-09
-1.97968e-09
6.8173e-10
-4.23438e-10
5.04306e-09
1.5908e-09
3.43466e-12
-1.01311e-09
-5.62418e-09
1.17834e-09
-2.5261e-09
6.6759e-10
1.56545e-09
-8.8529e-10
-2.52934e-12
6.54183e-10
-4.64642e-12
-1.98364e-10
-4.48642e-10
-1.04493e-10
8.67991e-11
1.39128e-10
-9.83143e-10
-8.27232e-12
5.51573e-10
3.20373e-11
4.61362e-11
8.44261e-11
6.81862e-11
8.76207e-11
-8.35636e-11
-2.20502e-12
4.6883e-12
-1.95574e-11
1.00638e-10
1.44285e-09
5.61083e-11
-3.1142e-11
-2.65541e-10
-2.63465e-10
-4.52418e-10
-4.3831e-10
-8.14573e-12
-1.18038e-11
-9.46584e-12
-1.8671e-11
1.41623e-09
1.42233e-11
-1.78958e-12
1.40956e-09
1.26057e-11
-1.63862e-13
1.40539e-09
6.86812e-12
-7.64786e-14
1.40344e-09
4.31731e-12
-2.88284e-14
1.40237e-09
2.6243e-12
2.40194e-14
1.40175e-09
1.6579e-12
3.29968e-14
1.40153e-09
1.01175e-12
5.53841e-14
1.40132e-09
6.51342e-13
1.4e-14
1.40124e-09
1.67746e-13
2.91876e-14
1.40117e-09
3.62235e-13
-1.72502e-13
1.40096e-09
1.25899e-13
-5.49378e-13
1.40016e-09
-2.08391e-13
-2.34536e-12
1.40052e-09
-1.82387e-13
9.03527e-14
1.40046e-09
1.76342e-13
1.52807e-13
1.40062e-09
-8.11747e-14
-1.01536e-13
1.40067e-09
6.6029e-15
-9.93651e-14
1.39994e-09
-4.15526e-13
2.17443e-12
1.40033e-09
-4.5279e-13
9.60879e-14
1.40095e-09
-5.30164e-13
4.18517e-14
1.39888e-09
6.27894e-12
-3.56512e-12
1.40037e-09
2.90071e-13
2.67967e-12
1.40053e-09
-3.34938e-13
-7.72853e-13
1.40058e-09
-1.26957e-13
1.55295e-13
1.40056e-09
1.75175e-14
7.89703e-14
1.40061e-09
-4.93635e-14
1.80397e-13
1.40121e-09
1.84346e-14
4.91322e-13
1.40119e-09
1.28327e-13
-8.56952e-14
1.40129e-09
-1.02439e-13
-9.25825e-14
1.40091e-09
1.50664e-12
-9.23467e-13
1.4011e-09
4.34471e-14
-5.5803e-13
1.40153e-09
4.97142e-13
-1.48572e-12
1.40161e-09
-7.10032e-16
4.2357e-13
1.40158e-09
-1.59252e-14
-2.70552e-13
1.40169e-09
-4.03018e-14
-4.89477e-14
1.40165e-09
1.88108e-13
-1.01278e-14
1.40156e-09
5.42466e-14
1.22113e-14
1.40143e-09
7.7557e-14
-1.62548e-14
1.40191e-09
-7.56264e-13
1.67145e-12
1.40236e-09
6.92214e-13
3.20612e-14
1.40258e-09
-1.17457e-13
-5.18035e-13
-2.40811e-13
-1.33161e-12
1.5536e-09
-7.47543e-09
7.07655e-09
7.27368e-10
1.75474e-09
2.70414e-09
2.17915e-09
-1.91029e-09
-5.56771e-11
1.47407e-09
-2.51359e-09
-7.28493e-10
5.12724e-10
1.25528e-09
-1.60579e-09
-1.04457e-09
-1.56243e-09
-2.71198e-09
2.14328e-08
1.33051e-08
-2.01326e-08
-7.68116e-09
-3.35141e-10
-7.64548e-10
1.95635e-10
1.86906e-09
-9.6501e-10
4.28739e-10
2.87108e-10
7.50246e-10
4.106e-10
-1.87669e-09
-1.86352e-10
-2.41944e-10
1.9153e-10
-2.01552e-10
9.40512e-11
-9.74709e-11
5.02257e-11
2.88899e-11
-3.5437e-11
-5.76178e-11
1.02872e-10
1.15756e-10
1.10984e-10
1.2607e-10
-1.02724e-10
-1.1549e-11
2.81557e-12
8.1268e-11
3.01894e-11
1.40048e-09
3.86663e-11
-2.95909e-11
-2.53916e-10
-2.51367e-10
-4.25949e-10
-4.22174e-10
1.39873e-09
1.71317e-11
-1.02954e-12
1.39971e-09
1.14144e-11
2.74769e-13
1.40009e-09
6.52068e-12
-9.52592e-15
1.40038e-09
3.99713e-12
2.51243e-14
1.4006e-09
2.3603e-12
1.72098e-14
1.40079e-09
1.38818e-12
3.11091e-14
1.40097e-09
7.47503e-13
3.34856e-14
1.40076e-09
1.12264e-12
-3.24436e-13
1.40097e-09
-1.2386e-13
2.57655e-14
1.40047e-09
5.41794e-13
2.55863e-13
1.4008e-09
-1.72917e-13
-9.84298e-14
1.40066e-09
-1.25147e-13
-2.99738e-15
1.40059e-09
-8.76411e-14
-7.74074e-14
1.40033e-09
1.09635e-12
-7.15095e-13
1.40042e-09
-2.47861e-13
3.80019e-14
1.40033e-09
-6.92258e-14
1.26441e-13
1.40005e-09
-5.19294e-13
3.54013e-13
1.39968e-09
1.99159e-14
-1.16832e-13
1.3989e-09
2.6819e-13
-2.6409e-14
1.4009e-09
4.91284e-13
3.79808e-12
1.4009e-09
6.98582e-13
-3.96246e-13
1.4012e-09
-3.86007e-12
3.25872e-12
1.40094e-09
9.38362e-14
7.75624e-14
1.40055e-09
-2.64185e-13
7.25134e-13
1.40066e-09
-5.44341e-14
-3.31137e-14
1.40093e-09
1.68449e-14
-2.00515e-13
1.40098e-09
8.66761e-13
-7.12325e-13
1.40103e-09
3.78021e-13
-4.39807e-13
1.40137e-09
5.64749e-13
6.9092e-13
1.40183e-09
-2.46524e-13
-8.05763e-14
1.4013e-09
-4.3405e-13
1.55206e-12
1.40152e-09
-1.5954e-13
3.39133e-14
1.40143e-09
4.31443e-13
-2.66462e-13
1.40152e-09
-1.95439e-15
-4.50841e-14
1.40158e-09
2.84447e-14
1.84578e-13
1.40169e-09
5.06816e-14
-3.55449e-14
1.40132e-09
4.77586e-13
3.13034e-14
1.40188e-09
-1.03902e-12
-2.24555e-13
1.40187e-09
4.8611e-13
2.56228e-13
1.40293e-09
-2.7075e-12
1.55514e-12
-4.42833e-13
-5.81058e-13
-1.40235e-09
5.41656e-10
4.10654e-08
-4.31522e-10
-3.88888e-10
1.55998e-09
-3.0058e-08
-3.1437e-08
1.63981e-08
-1.95376e-10
-1.18232e-09
-5.53085e-10
-1.13021e-09
6.16997e-10
-1.03789e-09
1.4886e-10
1.32147e-09
5.35928e-11
-2.48354e-09
4.82749e-09
-2.5195e-08
2.56014e-08
-5.95253e-09
1.82494e-09
-1.71634e-09
-4.23097e-09
-2.7579e-09
5.19149e-09
3.51373e-09
2.22066e-09
1.33203e-09
-5.45612e-09
-3.6121e-09
-8.32312e-10
5.5558e-09
-5.62121e-09
6.41365e-09
1.70614e-10
-2.21381e-10
5.75988e-10
-3.96776e-12
-5.21256e-10
-2.93196e-11
-4.88172e-11
3.11058e-11
-2.28556e-11
6.98865e-11
-3.48884e-11
-7.61714e-13
1.84869e-10
8.68371e-12
1.27712e-11
-3.3888e-11
-6.70405e-11
-6.51196e-11
-1.33625e-12
-1.24589e-12
-2.0476e-12
1.3817e-09
2.3188e-11
-2.75885e-11
-2.51314e-10
-2.48074e-10
-4.22647e-10
-4.16541e-10
1.38903e-09
1.19445e-11
-1.9816e-12
1.39335e-09
6.85324e-12
3.25101e-13
1.39618e-09
3.72935e-12
-8.59701e-15
1.39796e-09
2.24445e-12
-2.99766e-14
1.39908e-09
1.18801e-12
1.91887e-14
1.39966e-09
7.48002e-13
1.97707e-14
1.40009e-09
-1.04186e-12
1.30257e-12
1.40055e-09
1.95206e-13
4.09517e-13
1.40048e-09
1.83651e-13
-3.05238e-13
1.4008e-09
1.87484e-13
-2.63987e-14
1.40048e-09
-1.02808e-13
1.93537e-13
1.40038e-09
-1.30765e-13
4.34127e-14
1.40029e-09
-8.23403e-14
2.68726e-14
1.40056e-09
4.10936e-14
7.33212e-13
1.40021e-09
9.18194e-14
-3.5432e-14
1.40056e-09
-3.33013e-13
-1.27923e-13
1.40097e-09
-6.25192e-13
-3.30606e-13
1.39996e-09
-9.61213e-13
1.98102e-12
1.40045e-09
-1.919e-13
-3.46072e-14
1.40069e-09
2.23153e-13
3.3058e-14
1.40054e-09
9.13036e-14
7.76239e-13
1.40041e-09
-5.07725e-15
-3.69297e-12
1.40057e-09
4.11993e-14
-6.9305e-14
1.40057e-09
1.11753e-12
-1.33127e-12
1.40054e-09
-5.10277e-14
8.88691e-14
1.40056e-09
-1.8952e-14
8.6154e-14
1.40081e-09
8.68191e-14
6.1636e-13
1.40094e-09
4.49285e-14
2.86234e-13
1.40172e-09
-2.95767e-13
1.7395e-13
1.40143e-09
8.54919e-13
-7.21921e-13
1.40156e-09
-3.59576e-13
-1.0933e-13
1.40181e-09
-3.61548e-13
4.14671e-14
1.40166e-09
2.12596e-12
-1.45577e-12
1.40142e-09
2.59822e-13
6.74841e-14
1.40142e-09
2.72131e-13
-1.62458e-13
1.40208e-09
3.12379e-13
-8.55738e-13
1.40259e-09
-2.05045e-13
2.41136e-13
1.40152e-09
3.35148e-13
-2.57048e-13
1.40186e-09
3.18573e-13
-1.29228e-13
1.40162e-09
7.81392e-13
-3.22251e-12
-2.66641e-12
1.99487e-13
-4.47441e-09
6.9555e-09
-1.74839e-09
3.68201e-09
5.10974e-08
-2.55531e-10
-8.93803e-09
-3.99891e-09
-5.45237e-10
-9.49671e-10
1.14964e-10
-1.81306e-09
-8.409e-10
3.55452e-09
4.80769e-09
-5.66922e-10
-1.60279e-08
-1.26173e-08
-1.54349e-08
-6.0443e-09
5.94626e-10
-6.50757e-10
9.78259e-09
3.0023e-09
-7.21906e-11
-1.48877e-09
4.39115e-10
-3.25995e-10
-2.32451e-08
2.67272e-08
-4.53809e-09
-1.04826e-09
-1.22311e-09
9.20043e-10
-1.71382e-09
1.71018e-09
5.07523e-10
-1.04442e-09
3.10084e-09
-1.19995e-09
1.16766e-09
2.15128e-09
8.83363e-10
-3.64771e-10
-5.10527e-10
4.41107e-11
1.62662e-10
6.68525e-10
7.31676e-12
-5.40893e-11
2.54895e-11
-1.27545e-10
1.48828e-10
-3.22155e-11
-7.20513e-12
1.79162e-10
3.38859e-12
7.13866e-12
-3.15287e-11
-6.0441e-11
-5.83006e-11
1.36215e-09
-2.67247e-11
-2.43833e-10
-2.44056e-10
-4.09154e-10
-4.13821e-10
1.37902e-09
-1.60932e-12
1.38795e-09
4.7968e-13
1.39327e-09
6.81009e-14
1.39612e-09
-3.832e-13
1.39826e-09
1.3566e-14
1.39945e-09
-2.63801e-14
1.39983e-09
-1.3426e-12
1.39992e-09
-1.16461e-14
1.40071e-09
-1.80814e-14
1.40077e-09
3.45589e-14
1.40048e-09
-1.28081e-12
1.40025e-09
-9.709e-13
1.40029e-09
5.27134e-14
1.40025e-09
1.24154e-13
1.40009e-09
3.79776e-14
1.40024e-09
-2.19316e-13
1.40026e-09
1.32784e-12
1.40087e-09
-1.97354e-12
1.40036e-09
1.74245e-14
1.40085e-09
2.5618e-12
1.40078e-09
-3.82145e-13
1.40058e-09
-1.86667e-12
1.39966e-09
-1.10692e-12
1.40061e-09
7.41381e-13
1.40055e-09
3.06593e-13
1.40061e-09
5.39441e-14
1.40102e-09
5.25885e-13
1.40119e-09
-1.84518e-13
1.40113e-09
-4.47536e-14
1.40178e-09
7.22401e-13
1.40159e-09
1.31412e-13
1.40168e-09
-2.43042e-13
1.40239e-09
1.54725e-12
1.4015e-09
-2.01703e-12
1.40179e-09
9.03309e-14
1.40173e-09
7.68985e-13
1.40195e-09
-2.17938e-13
1.40248e-09
6.49386e-14
1.40305e-09
-2.65077e-13
1.40204e-09
1.8316e-12
-1.37426e-13
7.54058e-09
3.69329e-09
2.90958e-08
2.59789e-08
7.49094e-10
-2.12135e-08
-6.36125e-09
4.99602e-09
-7.40845e-09
1.98857e-09
-1.10444e-09
-6.5188e-10
-1.41018e-09
-5.32603e-10
-1.85851e-09
1.79731e-09
-6.03043e-10
5.44552e-09
6.37041e-09
2.12871e-09
2.82463e-09
5.44212e-09
-1.76432e-09
-1.3474e-09
-4.53891e-10
-2.65333e-09
-1.36499e-09
-3.08107e-09
3.15115e-09
3.57889e-09
-2.62286e-09
-3.81823e-09
-3.53138e-09
1.43769e-09
-9.24411e-10
9.00113e-10
-3.91659e-10
-1.48489e-09
-1.07109e-10
2.07046e-11
-5.29149e-11
-9.36961e-12
8.7754e-11
-5.57679e-10
5.89438e-10
7.07151e-12
-2.03082e-11
-8.45568e-12
2.28752e-09
-4.74924e-11
2.47022e-11
-5.7895e-10
-5.67425e-10
-5.78588e-10
-5.67437e-10
2.30659e-09
-2.79945e-11
1.76176e-12
2.31945e-09
-1.62154e-11
-5.07868e-13
2.32599e-09
-9.10877e-12
1.67511e-13
2.33129e-09
-4.70376e-12
-1.60512e-12
2.33286e-09
-3.15384e-12
5.17818e-14
2.3336e-09
-1.67128e-12
-4.97239e-14
2.33468e-09
-1.07411e-12
-1.66043e-13
2.33507e-09
-6.56523e-13
7.92098e-14
2.33456e-09
-8.24046e-13
6.73199e-13
2.3341e-09
-1.64726e-12
3.40393e-12
2.33467e-09
-3.59769e-13
4.73124e-13
2.3348e-09
-1.04901e-13
3.83659e-13
2.33465e-09
-6.00891e-13
4.6435e-14
2.33456e-09
3.89568e-13
2.10398e-13
2.33454e-09
6.78603e-13
-2.1382e-13
2.33499e-09
-1.45667e-12
-7.15151e-14
2.33429e-09
-1.7315e-12
2.0039e-12
2.33479e-09
-2.63282e-13
5.89846e-14
2.3355e-09
-2.87902e-13
-3.22301e-14
2.33339e-09
8.61839e-13
-1.19455e-12
2.33432e-09
-2.93545e-13
-3.12805e-13
2.3333e-09
6.0909e-12
-1.66768e-12
2.33335e-09
4.85306e-12
-3.02322e-12
2.33472e-09
-2.08899e-13
7.34141e-14
2.33579e-09
4.58113e-13
-1.87061e-12
2.33565e-09
2.31819e-13
-2.91172e-14
2.33519e-09
4.79833e-13
1.48413e-13
2.33425e-09
1.10808e-12
-3.31861e-13
2.33447e-09
-1.69172e-12
8.14979e-13
2.33689e-09
-8.29656e-13
-1.58875e-12
2.33629e-09
7.89685e-13
-8.06456e-14
2.33611e-09
2.23046e-13
2.11859e-14
2.33635e-09
-1.78939e-13
-4.49493e-13
2.33846e-09
-7.38225e-13
-2.76805e-13
2.33584e-09
4.20351e-12
-3.42693e-12
2.33617e-09
-6.64412e-13
-1.69611e-14
2.33603e-09
2.06666e-13
4.06138e-13
2.33774e-09
-1.74625e-12
-2.25504e-13
2.33743e-09
2.18579e-13
1.88649e-13
2.33631e-09
4.39937e-13
9.38225e-14
-6.98158e-13
-4.55212e-13
6.45267e-09
-5.79722e-10
9.53442e-10
-1.86256e-09
-6.92331e-10
-2.07988e-09
2.39295e-09
-1.80696e-09
9.4944e-10
-2.56865e-09
1.31366e-09
2.2946e-09
2.69684e-09
4.95365e-09
1.01405e-09
1.4707e-08
-1.15879e-10
-1.16753e-11
-1.06956e-09
-1.2187e-07
-1.77173e-10
-3.11294e-10
1.31311e-09
-6.17353e-10
4.56606e-11
-2.52947e-10
1.49114e-08
6.18238e-10
-3.49119e-09
-1.49496e-08
4.14345e-09
-4.53889e-10
-4.53684e-10
1.6367e-11
-3.41047e-10
-1.62491e-09
-1.19442e-10
-2.04204e-10
3.54976e-10
-8.72091e-11
1.68079e-09
-9.1211e-11
1.7732e-10
1.15966e-10
-9.76132e-11
-2.03e-10
9.85385e-11
-1.44361e-10
6.15291e-10
-2.42146e-11
2.47772e-12
-1.41811e-12
-1.52468e-10
-1.49826e-10
-1.58286e-10
1.28059e-11
2.33722e-09
-7.11602e-11
2.41707e-11
-5.85758e-10
-5.952e-10
-5.85745e-10
-5.95213e-10
2.33033e-09
-2.65691e-11
2.61234e-12
2.33353e-09
-1.88451e-11
-3.7845e-13
2.33433e-09
-1.02741e-11
1.08179e-13
2.33432e-09
-6.46055e-12
8.52586e-13
2.3346e-09
-3.93641e-12
1.69182e-13
2.33518e-09
-2.38983e-12
2.49849e-15
2.33465e-09
-1.24788e-12
3.00834e-13
2.33486e-09
-9.83368e-13
8.33547e-15
2.33413e-09
-2.19564e-12
3.57935e-12
2.33546e-09
-1.2186e-12
-3.31163e-12
2.335e-09
1.71265e-13
-1.10296e-13
2.33506e-09
-1.28462e-12
1.91428e-13
2.33438e-09
1.40933e-13
-9.34163e-14
2.33548e-09
-2.09326e-12
-4.19533e-14
2.33524e-09
4.73362e-13
1.58365e-13
2.33425e-09
-4.46167e-13
-1.03246e-13
2.33384e-09
-2.08521e-13
-5.20628e-13
2.33388e-09
5.59831e-14
-1.9482e-13
2.33389e-09
-2.01214e-13
-4.30036e-14
2.33371e-09
2.77415e-12
1.04653e-12
2.33312e-09
-2.63927e-13
5.32712e-13
2.33435e-09
6.8516e-13
2.22617e-12
2.33479e-09
1.00271e-12
1.75183e-12
2.33573e-09
-2.87557e-12
2.02793e-12
2.33572e-09
1.75392e-12
2.98598e-12
2.33541e-09
5.06886e-13
9.60989e-14
2.33557e-09
1.71134e-13
1.39773e-13
2.33624e-09
3.64273e-13
-6.0565e-14
2.33635e-09
-4.19535e-13
-7.56791e-13
2.33463e-09
-6.14511e-13
1.71868e-12
2.33485e-09
7.624e-13
-2.08525e-13
2.33519e-09
-3.58689e-14
7.25092e-14
2.33525e-09
9.63843e-15
-4.88475e-14
2.3354e-09
2.26847e-13
-1.384e-12
2.33798e-09
1.95002e-13
3.41505e-12
2.33728e-09
1.10011e-12
-4.39441e-13
2.33732e-09
1.17972e-13
-3.19763e-13
2.33666e-09
-1.37119e-12
-7.5137e-13
2.3365e-09
6.14695e-13
-1.84856e-13
2.33717e-09
3.147e-13
-4.39231e-16
-2.96566e-13
2.6499e-13
8.05782e-09
-4.40181e-10
1.49779e-08
-4.51827e-09
-1.03197e-08
9.6939e-10
1.11363e-09
1.22199e-09
-2.77659e-10
-3.80053e-09
2.13045e-09
2.46694e-09
3.95167e-08
-3.69467e-08
3.00456e-09
2.03227e-09
1.37165e-10
3.27174e-09
-7.68579e-10
-1.76333e-09
3.24248e-11
1.28055e-09
1.46497e-09
1.89516e-09
1.5916e-09
-4.2253e-10
-2.29554e-09
6.18991e-11
1.61797e-11
-3.23981e-08
3.4619e-08
-3.96672e-08
3.63552e-08
-7.48091e-09
2.17711e-09
1.75881e-09
2.70216e-09
-7.18685e-11
6.10143e-10
-5.37555e-10
-3.84516e-10
1.22663e-09
6.0346e-09
-1.30023e-10
3.09295e-09
3.93324e-10
1.93005e-10
-9.58385e-09
3.04221e-09
1.66551e-10
2.11259e-09
-1.53722e-09
2.97994e-10
-4.08213e-09
1.58824e-10
-2.68169e-11
2.66519e-11
-1.51398e-10
4.75597e-11
-5.48211e-11
-1.30844e-10
-1.02265e-11
2.82695e-12
-6.00839e-12
5.55487e-12
1.38695e-10
2.35567e-09
-9.85398e-11
3.04492e-11
-5.90519e-10
-6.03849e-10
-5.90516e-10
-6.03871e-10
2.34504e-09
-1.74526e-11
5.53997e-13
2.34299e-09
-1.64012e-11
-3.24592e-13
2.34012e-09
-7.56204e-12
-1.16925e-14
2.33843e-09
-4.912e-12
-4.84106e-15
2.3372e-09
-2.86788e-12
6.34527e-15
2.33643e-09
-1.7354e-12
-5.40408e-15
2.33609e-09
-1.05431e-12
1.93799e-14
2.33573e-09
-5.75333e-13
-9.32075e-14
2.33616e-09
-3.2545e-13
-3.24367e-12
2.33471e-09
3.01256e-13
-2.90728e-13
2.33524e-09
-5.96703e-13
7.8115e-14
2.3351e-09
-6.20172e-13
-6.37094e-13
2.33558e-09
-4.51644e-13
-2.88963e-15
2.33381e-09
1.36786e-12
1.7217e-14
2.33438e-09
-3.88363e-13
3.19426e-13
2.33362e-09
-7.95608e-13
1.46832e-12
2.33357e-09
-1.50333e-13
-1.94159e-13
2.33346e-09
-1.39238e-14
7.39985e-14
2.33305e-09
5.37722e-13
-1.77196e-13
2.33445e-09
7.95324e-13
-1.06736e-12
2.33554e-09
-3.643e-12
8.80516e-13
2.33542e-09
1.02775e-12
-1.32528e-13
2.33713e-09
-2.53223e-12
8.40431e-13
2.33487e-09
1.66897e-13
-3.0151e-12
2.33416e-09
2.16215e-13
-1.31535e-12
2.33477e-09
1.34559e-13
-1.06717e-13
2.33528e-09
-1.19011e-13
-1.71052e-14
2.33561e-09
1.09591e-13
3.37893e-14
2.33578e-09
-6.35497e-14
-1.06339e-13
2.33574e-09
-7.71369e-13
-3.34787e-14
2.33467e-09
3.25212e-12
9.27817e-13
2.33485e-09
-2.16073e-13
1.12065e-13
2.33498e-09
4.84408e-13
8.81751e-14
2.33639e-09
1.63253e-12
-1.41743e-12
2.33765e-09
8.9425e-13
-7.42104e-13
2.3377e-09
7.50488e-13
3.42521e-13
2.33772e-09
5.84944e-13
-2.63906e-13
2.3365e-09
1.11041e-13
1.02048e-12
2.33617e-09
8.9566e-13
7.27219e-14
2.33622e-09
4.37821e-13
-4.39628e-14
-2.4909e-12
1.47679e-12
1.88685e-09
-4.42155e-10
-4.70679e-08
-2.19303e-09
-3.23548e-09
-1.62324e-10
-2.88626e-08
-4.56943e-10
2.95963e-08
3.12097e-09
-4.79428e-10
1.37381e-10
-2.6598e-09
-3.86423e-10
2.57871e-09
8.08926e-10
-1.12371e-08
-9.22699e-09
-4.29435e-09
4.33007e-09
-1.35751e-09
2.14632e-09
-6.66515e-09
9.05377e-09
1.7251e-08