/*--------------------------------*- C++ -*----------------------------------*\
| =========                 |                                                 |
| \\      /  F ield         | OpenFOAM: The Open Source CFD Toolbox           |
|  \\    /   O peration     | Version:  5.0                                   |
|   \\  /    A nd           | Web:      www.OpenFOAM.org                      |
|    \\/     M anipulation  |                                                 |
\*---------------------------------------------------------------------------*/
FoamFile
{
    version     2.0;
    format      ascii;
    class       volScalarField;
    location    "4.5";
    object      rAU;
}
// * * * * * * * * * * * * * * * * * * * * * * * * * * * * * * * * * * * * * //

dimensions      [-1 3 1 0 0 0 0];

internalField   nonuniform List<scalar> 
8717
(
9.58336e-07
9.67338e-07
9.62394e-07
9.52008e-07
8.82639e-07
6.85501e-07
1.03366e-07
1.29815e-07
3.93453e-07
3.94697e-07
3.9573e-07
3.96763e-07
3.97794e-07
3.98826e-07
3.99856e-07
4.00886e-07
4.01915e-07
4.02944e-07
4.03971e-07
4.04998e-07
4.06025e-07
4.0705e-07
4.08075e-07
4.09099e-07
4.10122e-07
4.11145e-07
4.12166e-07
4.13187e-07
4.14208e-07
4.15227e-07
4.16246e-07
4.17264e-07
4.18281e-07
4.19297e-07
4.20313e-07
4.21328e-07
4.22342e-07
4.23355e-07
4.24368e-07
4.25379e-07
4.2639e-07
4.274e-07
4.28409e-07
4.29417e-07
4.30425e-07
4.31431e-07
4.32437e-07
4.33442e-07
4.34446e-07
4.36222e-07
9.62063e-07
9.65721e-07
9.41603e-07
8.93738e-07
8.63974e-07
6.70225e-07
3.73493e-07
1.29627e-07
3.93454e-07
3.94697e-07
3.9573e-07
3.96763e-07
3.97794e-07
3.98826e-07
3.99856e-07
4.00886e-07
4.01915e-07
4.02944e-07
4.03971e-07
4.04998e-07
4.06025e-07
4.0705e-07
4.08075e-07
4.09099e-07
4.10122e-07
4.11145e-07
4.12166e-07
4.13187e-07
4.14208e-07
4.15227e-07
4.16246e-07
4.17264e-07
4.18281e-07
4.19297e-07
4.20313e-07
4.21328e-07
4.22342e-07
4.23355e-07
4.24368e-07
4.25379e-07
4.2639e-07
4.274e-07
4.28409e-07
4.29417e-07
4.30425e-07
4.31431e-07
4.32437e-07
4.33442e-07
4.34446e-07
4.36222e-07
9.6084e-07
8.74579e-07
8.95371e-07
8.91617e-07
4.26353e-07
6.75564e-07
6.99397e-07
3.53094e-08
3.93454e-07
3.94697e-07
3.95731e-07
3.96763e-07
3.97795e-07
3.98826e-07
3.99856e-07
4.00886e-07
4.01915e-07
4.02944e-07
4.03971e-07
4.04998e-07
4.06025e-07
4.0705e-07
4.08075e-07
4.09099e-07
4.10122e-07
4.11145e-07
4.12166e-07
4.13187e-07
4.14208e-07
4.15227e-07
4.16246e-07
4.17264e-07
4.18281e-07
4.19297e-07
4.20313e-07
4.21328e-07
4.22342e-07
4.23355e-07
4.24368e-07
4.25379e-07
4.2639e-07
4.274e-07
4.28409e-07
4.29418e-07
4.30425e-07
4.31431e-07
4.32437e-07
4.33442e-07
4.34446e-07
4.36222e-07
9.6499e-07
8.95391e-07
8.5343e-07
8.85231e-07
6.18204e-07
5.87722e-07
9.02802e-07
3.90614e-08
3.93319e-07
3.94697e-07
3.95731e-07
3.96763e-07
3.97795e-07
3.98826e-07
3.99856e-07
4.00886e-07
4.01915e-07
4.02944e-07
4.03971e-07
4.04998e-07
4.06025e-07
4.0705e-07
4.08075e-07
4.09099e-07
4.10122e-07
4.11145e-07
4.12166e-07
4.13187e-07
4.14208e-07
4.15227e-07
4.16246e-07
4.17264e-07
4.18281e-07
4.19297e-07
4.20313e-07
4.21328e-07
4.22342e-07
4.23355e-07
4.24368e-07
4.25379e-07
4.2639e-07
4.274e-07
4.28409e-07
4.29418e-07
4.30425e-07
4.31431e-07
4.32437e-07
4.33442e-07
4.34446e-07
4.36222e-07
9.51147e-07
9.30411e-07
8.80241e-07
7.91755e-07
8.81345e-07
6.71021e-07
9.02316e-07
1.28187e-07
1.30324e-07
3.94487e-07
3.95731e-07
3.96763e-07
3.97794e-07
3.98826e-07
3.99856e-07
4.00886e-07
4.01915e-07
4.02944e-07
4.03971e-07
4.04998e-07
4.06025e-07
4.0705e-07
4.08075e-07
4.09099e-07
4.10122e-07
4.11145e-07
4.12166e-07
4.13187e-07
4.14208e-07
4.15227e-07
4.16246e-07
4.17264e-07
4.18281e-07
4.19297e-07
4.20313e-07
4.21328e-07
4.22342e-07
4.23355e-07
4.24368e-07
4.25379e-07
4.2639e-07
4.274e-07
4.28409e-07
4.29418e-07
4.30425e-07
4.31431e-07
4.32437e-07
4.33442e-07
4.34446e-07
4.36222e-07
9.58726e-07
9.63652e-07
8.67637e-07
8.26401e-07
5.64562e-07
4.90757e-07
9.02609e-07
2.09011e-07
1.30176e-07
3.94486e-07
3.9573e-07
3.96763e-07
3.97794e-07
3.98826e-07
3.99856e-07
4.00886e-07
4.01915e-07
4.02944e-07
4.03971e-07
4.04998e-07
4.06024e-07
4.0705e-07
4.08075e-07
4.09099e-07
4.10122e-07
4.11145e-07
4.12166e-07
4.13187e-07
4.14208e-07
4.15227e-07
4.16246e-07
4.17264e-07
4.18281e-07
4.19297e-07
4.20313e-07
4.21328e-07
4.22342e-07
4.23355e-07
4.24368e-07
4.25379e-07
4.2639e-07
4.274e-07
4.28409e-07
4.29418e-07
4.30425e-07
4.31431e-07
4.32437e-07
4.33442e-07
4.34446e-07
4.36222e-07
9.58156e-07
9.56201e-07
6.59129e-07
9.02159e-07
8.8369e-07
6.01812e-07
9.0184e-07
8.78868e-08
3.93318e-07
3.94695e-07
3.9573e-07
3.96762e-07
3.97794e-07
3.98826e-07
3.99856e-07
4.00886e-07
4.01915e-07
4.02944e-07
4.03971e-07
4.04998e-07
4.06024e-07
4.0705e-07
4.08075e-07
4.09099e-07
4.10122e-07
4.11145e-07
4.12166e-07
4.13187e-07
4.14208e-07
4.15227e-07
4.16246e-07
4.17264e-07
4.18281e-07
4.19297e-07
4.20313e-07
4.21328e-07
4.22342e-07
4.23355e-07
4.24368e-07
4.25379e-07
4.2639e-07
4.274e-07
4.28409e-07
4.29418e-07
4.30425e-07
4.31431e-07
4.32437e-07
4.33442e-07
4.34446e-07
4.36222e-07
9.59872e-07
8.68691e-07
8.62225e-07
7.76737e-07
8.76169e-07
6.77377e-07
9.03089e-07
3.59499e-08
3.93453e-07
3.94696e-07
3.9573e-07
3.96762e-07
3.97794e-07
3.98826e-07
3.99856e-07
4.00886e-07
4.01915e-07
4.02944e-07
4.03971e-07
4.04998e-07
4.06025e-07
4.0705e-07
4.08075e-07
4.09099e-07
4.10122e-07
4.11145e-07
4.12166e-07
4.13187e-07
4.14208e-07
4.15227e-07
4.16246e-07
4.17264e-07
4.18281e-07
4.19297e-07
4.20313e-07
4.21328e-07
4.22342e-07
4.23355e-07
4.24368e-07
4.25379e-07
4.2639e-07
4.274e-07
4.28409e-07
4.29418e-07
4.30425e-07
4.31431e-07
4.32437e-07
4.33442e-07
4.34446e-07
4.36222e-07
9.4006e-07
8.70902e-07
6.61758e-07
8.56631e-07
8.76778e-07
4.90697e-07
7.01102e-07
1.29444e-07
3.93452e-07
3.94696e-07
3.9573e-07
3.96762e-07
3.97794e-07
3.98826e-07
3.99856e-07
4.00886e-07
4.01915e-07
4.02944e-07
4.03971e-07
4.04998e-07
4.06025e-07
4.0705e-07
4.08075e-07
4.09099e-07
4.10122e-07
4.11145e-07
4.12166e-07
4.13187e-07
4.14208e-07
4.15227e-07
4.16246e-07
4.17264e-07
4.18281e-07
4.19297e-07
4.20313e-07
4.21328e-07
4.22342e-07
4.23355e-07
4.24368e-07
4.25379e-07
4.2639e-07
4.274e-07
4.28409e-07
4.29418e-07
4.30425e-07
4.31431e-07
4.32437e-07
4.33442e-07
4.34446e-07
4.36222e-07
8.75374e-07
9.44878e-07
8.79801e-07
9.47019e-07
8.80013e-07
6.85508e-07
3.72776e-07
1.29724e-07
3.93452e-07
3.94696e-07
3.9573e-07
3.96762e-07
3.97794e-07
3.98826e-07
3.99856e-07
4.00886e-07
4.01915e-07
4.02944e-07
4.03971e-07
4.04998e-07
4.06025e-07
4.0705e-07
4.08075e-07
4.09099e-07
4.10122e-07
4.11145e-07
4.12166e-07
4.13187e-07
4.14208e-07
4.15227e-07
4.16246e-07
4.17264e-07
4.18281e-07
4.19297e-07
4.20313e-07
4.21328e-07
4.22342e-07
4.23355e-07
4.24368e-07
4.25379e-07
4.2639e-07
4.274e-07
4.28409e-07
4.29418e-07
4.30425e-07
4.31431e-07
4.32437e-07
4.33442e-07
4.34446e-07
4.36222e-07
9.16756e-07
9.63795e-07
9.46464e-07
9.17181e-07
8.56057e-07
7.11073e-07
1.48408e-07
1.8413e-07
5.06037e-07
5.07526e-07
5.08664e-07
5.09802e-07
5.10938e-07
5.12071e-07
5.13204e-07
5.14335e-07
5.15463e-07
5.16591e-07
5.17717e-07
5.1884e-07
5.19963e-07
5.21084e-07
5.22203e-07
5.23321e-07
5.24437e-07
5.25551e-07
5.26664e-07
5.27775e-07
5.28884e-07
5.29992e-07
5.31099e-07
5.32202e-07
5.33306e-07
5.34407e-07
5.35506e-07
5.36604e-07
5.37701e-07
5.38795e-07
5.39888e-07
5.4098e-07
5.42069e-07
5.43157e-07
5.44243e-07
5.45327e-07
5.4641e-07
5.47492e-07
5.48571e-07
5.49649e-07
5.50725e-07
5.5304e-07
9.61454e-07
9.18765e-07
8.20853e-07
9.28092e-07
8.89703e-07
6.79069e-07
4.60467e-07
1.83949e-07
5.06039e-07
5.07527e-07
5.08665e-07
5.09802e-07
5.10938e-07
5.12071e-07
5.13204e-07
5.14335e-07
5.15463e-07
5.16591e-07
5.17717e-07
5.1884e-07
5.19963e-07
5.21084e-07
5.22203e-07
5.23321e-07
5.24437e-07
5.25551e-07
5.26664e-07
5.27775e-07
5.28884e-07
5.29992e-07
5.31099e-07
5.32202e-07
5.33306e-07
5.34407e-07
5.35506e-07
5.36604e-07
5.37701e-07
5.38795e-07
5.39888e-07
5.4098e-07
5.42069e-07
5.43157e-07
5.44243e-07
5.45327e-07
5.4641e-07
5.47492e-07
5.48571e-07
5.49649e-07
5.50725e-07
5.5304e-07
8.93959e-07
8.26433e-07
7.23308e-07
9.23565e-07
4.99047e-07
7.26075e-07
7.7596e-07
5.20127e-08
5.0604e-07
5.07528e-07
5.08666e-07
5.09803e-07
5.10938e-07
5.12071e-07
5.13204e-07
5.14335e-07
5.15463e-07
5.16591e-07
5.17717e-07
5.1884e-07
5.19963e-07
5.21084e-07
5.22203e-07
5.23321e-07
5.24437e-07
5.25551e-07
5.26664e-07
5.27775e-07
5.28884e-07
5.29992e-07
5.31099e-07
5.32202e-07
5.33306e-07
5.34407e-07
5.35506e-07
5.36604e-07
5.37701e-07
5.38795e-07
5.39888e-07
5.4098e-07
5.42069e-07
5.43157e-07
5.44243e-07
5.45327e-07
5.4641e-07
5.47492e-07
5.48571e-07
5.49649e-07
5.50725e-07
5.5304e-07
7.93255e-07
2.96262e-07
1.50494e-07
6.73031e-07
5.0746e-07
5.96945e-07
9.31182e-07
5.79893e-08
5.05814e-07
5.07527e-07
5.08665e-07
5.09803e-07
5.10938e-07
5.12071e-07
5.13204e-07
5.14335e-07
5.15463e-07
5.16591e-07
5.17717e-07
5.1884e-07
5.19963e-07
5.21084e-07
5.22203e-07
5.23321e-07
5.24437e-07
5.25551e-07
5.26664e-07
5.27775e-07
5.28884e-07
5.29992e-07
5.31099e-07
5.32202e-07
5.33306e-07
5.34407e-07
5.35506e-07
5.36604e-07
5.37701e-07
5.38795e-07
5.39888e-07
5.4098e-07
5.42069e-07
5.43157e-07
5.44243e-07
5.45327e-07
5.4641e-07
5.47492e-07
5.48571e-07
5.49649e-07
5.50725e-07
5.5304e-07
6.76903e-07
7.57636e-07
9.10266e-07
3.2961e-07
6.02094e-07
6.71227e-07
9.30642e-07
1.82558e-07
1.84858e-07
5.07178e-07
5.08665e-07
5.09803e-07
5.10938e-07
5.12071e-07
5.13204e-07
5.14335e-07
5.15463e-07
5.16591e-07
5.17717e-07
5.1884e-07
5.19963e-07
5.21084e-07
5.22203e-07
5.23321e-07
5.24437e-07
5.25551e-07
5.26664e-07
5.27775e-07
5.28884e-07
5.29992e-07
5.31099e-07
5.32202e-07
5.33306e-07
5.34407e-07
5.35506e-07
5.36604e-07
5.37701e-07
5.38795e-07
5.39888e-07
5.4098e-07
5.42068e-07
5.43157e-07
5.44243e-07
5.45327e-07
5.4641e-07
5.47492e-07
5.48571e-07
5.49649e-07
5.50725e-07
5.5304e-07
8.59441e-07
8.93802e-07
4.42489e-07
1.60166e-07
5.93878e-07
5.51597e-07
9.31417e-07
2.86882e-07
1.84555e-07
5.07177e-07
5.08665e-07
5.09802e-07
5.10938e-07
5.12071e-07
5.13204e-07
5.14335e-07
5.15463e-07
5.16591e-07
5.17717e-07
5.1884e-07
5.19963e-07
5.21084e-07
5.22203e-07
5.23321e-07
5.24437e-07
5.25551e-07
5.26664e-07
5.27775e-07
5.28884e-07
5.29992e-07
5.31099e-07
5.32202e-07
5.33306e-07
5.34407e-07
5.35506e-07
5.36604e-07
5.37701e-07
5.38795e-07
5.39888e-07
5.4098e-07
5.42068e-07
5.43157e-07
5.44243e-07
5.45327e-07
5.4641e-07
5.47492e-07
5.48571e-07
5.49649e-07
5.50725e-07
5.5304e-07
9.6113e-07
9.14754e-07
3.8307e-07
8.22005e-07
8.21687e-07
6.80758e-07
9.31276e-07
1.26808e-07
5.05813e-07
5.07524e-07
5.08664e-07
5.09801e-07
5.10938e-07
5.12071e-07
5.13204e-07
5.14335e-07
5.15463e-07
5.16591e-07
5.17717e-07
5.1884e-07
5.19963e-07
5.21084e-07
5.22203e-07
5.23321e-07
5.24437e-07
5.25551e-07
5.26664e-07
5.27775e-07
5.28884e-07
5.29992e-07
5.31099e-07
5.32203e-07
5.33306e-07
5.34407e-07
5.35506e-07
5.36604e-07
5.37701e-07
5.38795e-07
5.39888e-07
5.4098e-07
5.42068e-07
5.43157e-07
5.44243e-07
5.45327e-07
5.4641e-07
5.47492e-07
5.48571e-07
5.49649e-07
5.50725e-07
5.5304e-07
9.55856e-07
9.10241e-07
8.33331e-07
5.86397e-07
9.30073e-07
7.34087e-07
9.31804e-07
5.3334e-08
5.06036e-07
5.07525e-07
5.08664e-07
5.09802e-07
5.10938e-07
5.12071e-07
5.13204e-07
5.14335e-07
5.15463e-07
5.16591e-07
5.17717e-07
5.1884e-07
5.19963e-07
5.21084e-07
5.22203e-07
5.23321e-07
5.24437e-07
5.25551e-07
5.26664e-07
5.27775e-07
5.28884e-07
5.29992e-07
5.31099e-07
5.32203e-07
5.33306e-07
5.34407e-07
5.35506e-07
5.36604e-07
5.37701e-07
5.38795e-07
5.39888e-07
5.4098e-07
5.42069e-07
5.43157e-07
5.44243e-07
5.45327e-07
5.4641e-07
5.47492e-07
5.48571e-07
5.49649e-07
5.50725e-07
5.5304e-07
8.84017e-07
8.43786e-07
5.58641e-07
5.52382e-07
4.63176e-07
5.78906e-07
7.76469e-07
1.83829e-07
5.06034e-07
5.07524e-07
5.08664e-07
5.09801e-07
5.10938e-07
5.12071e-07
5.13204e-07
5.14335e-07
5.15463e-07
5.16591e-07
5.17717e-07
5.1884e-07
5.19963e-07
5.21084e-07
5.22203e-07
5.23321e-07
5.24437e-07
5.25551e-07
5.26664e-07
5.27775e-07
5.28884e-07
5.29992e-07
5.31099e-07
5.32203e-07
5.33306e-07
5.34407e-07
5.35506e-07
5.36604e-07
5.37701e-07
5.38795e-07
5.39888e-07
5.4098e-07
5.42069e-07
5.43157e-07
5.44243e-07
5.45327e-07
5.4641e-07
5.47492e-07
5.48571e-07
5.49649e-07
5.50725e-07
5.5304e-07
8.31373e-07
8.42071e-07
5.42161e-07
7.07382e-07
8.01043e-07
7.5026e-07
4.73692e-07
1.83947e-07
5.06035e-07
5.07525e-07
5.08664e-07
5.09802e-07
5.10938e-07
5.12071e-07
5.13204e-07
5.14335e-07
5.15463e-07
5.16591e-07
5.17717e-07
5.1884e-07
5.19963e-07
5.21084e-07
5.22203e-07
5.23321e-07
5.24437e-07
5.25551e-07
5.26664e-07
5.27775e-07
5.28884e-07
5.29992e-07
5.31099e-07
5.32203e-07
5.33306e-07
5.34407e-07
5.35506e-07
5.36604e-07
5.37701e-07
5.38795e-07
5.39888e-07
5.4098e-07
5.42069e-07
5.43157e-07
5.44243e-07
5.45327e-07
5.4641e-07
5.47492e-07
5.48571e-07
5.49649e-07
5.50725e-07
5.5304e-07
9.14179e-07
9.57299e-07
9.34374e-07
8.46509e-07
8.18813e-07
7.1765e-07
1.47389e-07
1.84151e-07
3.93453e-07
3.94696e-07
3.9573e-07
3.96763e-07
3.97794e-07
3.98826e-07
3.99856e-07
4.00886e-07
4.01915e-07
4.02944e-07
4.03971e-07
4.04998e-07
4.06024e-07
4.0705e-07
4.08075e-07
4.09099e-07
4.10122e-07
4.11145e-07
4.12166e-07
4.13187e-07
4.14208e-07
4.15227e-07
4.16246e-07
4.17264e-07
4.18281e-07
4.19297e-07
4.20313e-07
4.21328e-07
4.22342e-07
4.23355e-07
4.24367e-07
4.25379e-07
4.2639e-07
4.274e-07
4.28409e-07
4.29417e-07
4.30425e-07
4.31431e-07
4.32437e-07
4.33442e-07
4.34446e-07
4.36222e-07
9.65044e-07
8.72333e-07
9.50152e-07
9.68341e-07
8.74813e-07
6.99047e-07
4.63672e-07
1.83954e-07
3.93454e-07
3.94697e-07
3.9573e-07
3.96763e-07
3.97794e-07
3.98826e-07
3.99856e-07
4.00886e-07
4.01915e-07
4.02944e-07
4.03971e-07
4.04998e-07
4.06024e-07
4.0705e-07
4.08075e-07
4.09099e-07
4.10122e-07
4.11145e-07
4.12166e-07
4.13187e-07
4.14208e-07
4.15227e-07
4.16246e-07
4.17264e-07
4.18281e-07
4.19297e-07
4.20313e-07
4.21328e-07
4.22342e-07
4.23355e-07
4.24367e-07
4.25379e-07
4.2639e-07
4.274e-07
4.28409e-07
4.29417e-07
4.30425e-07
4.31431e-07
4.32437e-07
4.33442e-07
4.34446e-07
4.36222e-07
8.80745e-07
7.20874e-07
8.81079e-07
9.05548e-07
7.92386e-07
7.24969e-07
7.76433e-07
5.20129e-08
3.93454e-07
3.94697e-07
3.95731e-07
3.96763e-07
3.97795e-07
3.98826e-07
3.99856e-07
4.00886e-07
4.01915e-07
4.02944e-07
4.03971e-07
4.04998e-07
4.06024e-07
4.0705e-07
4.08075e-07
4.09099e-07
4.10122e-07
4.11145e-07
4.12166e-07
4.13187e-07
4.14208e-07
4.15227e-07
4.16246e-07
4.17264e-07
4.18281e-07
4.19297e-07
4.20313e-07
4.21328e-07
4.22342e-07
4.23355e-07
4.24368e-07
4.25379e-07
4.2639e-07
4.274e-07
4.28409e-07
4.29417e-07
4.30425e-07
4.31431e-07
4.32437e-07
4.33442e-07
4.34446e-07
4.36222e-07
6.12055e-07
2.88737e-07
1.52964e-07
3.17189e-07
5.83716e-07
5.28843e-07
9.3125e-07
5.79273e-08
3.93319e-07
3.94697e-07
3.9573e-07
3.96763e-07
3.97795e-07
3.98826e-07
3.99856e-07
4.00886e-07
4.01915e-07
4.02944e-07
4.03971e-07
4.04998e-07
4.06024e-07
4.0705e-07
4.08075e-07
4.09099e-07
4.10122e-07
4.11145e-07
4.12166e-07
4.13187e-07
4.14208e-07
4.15227e-07
4.16246e-07
4.17264e-07
4.18281e-07
4.19297e-07
4.20313e-07
4.21328e-07
4.22342e-07
4.23355e-07
4.24368e-07
4.25379e-07
4.2639e-07
4.274e-07
4.28409e-07
4.29417e-07
4.30425e-07
4.31431e-07
4.32437e-07
4.33442e-07
4.34446e-07
4.36222e-07
4.47745e-07
1.31601e-07
8.12337e-07
8.48722e-07
5.7394e-07
6.70276e-07
9.30489e-07
1.8233e-07
1.84863e-07
3.94487e-07
3.9573e-07
3.96763e-07
3.97794e-07
3.98826e-07
3.99856e-07
4.00886e-07
4.01915e-07
4.02944e-07
4.03971e-07
4.04998e-07
4.06024e-07
4.0705e-07
4.08075e-07
4.09099e-07
4.10122e-07
4.11145e-07
4.12166e-07
4.13187e-07
4.14208e-07
4.15227e-07
4.16246e-07
4.17264e-07
4.18281e-07
4.19297e-07
4.20313e-07
4.21328e-07
4.22342e-07
4.23355e-07
4.24368e-07
4.25379e-07
4.2639e-07
4.274e-07
4.28409e-07
4.29417e-07
4.30425e-07
4.31431e-07
4.32437e-07
4.33442e-07
4.34446e-07
4.36222e-07
9.09301e-07
8.88481e-07
6.40465e-07
7.91902e-07
8.90474e-07
5.63171e-07
9.31414e-07
2.87042e-07
1.8456e-07
3.94486e-07
3.9573e-07
3.96763e-07
3.97794e-07
3.98826e-07
3.99856e-07
4.00886e-07
4.01915e-07
4.02944e-07
4.03971e-07
4.04998e-07
4.06024e-07
4.0705e-07
4.08075e-07
4.09099e-07
4.10122e-07
4.11145e-07
4.12166e-07
4.13187e-07
4.14208e-07
4.15227e-07
4.16246e-07
4.17264e-07
4.18281e-07
4.19297e-07
4.20313e-07
4.21328e-07
4.22342e-07
4.23355e-07
4.24368e-07
4.25379e-07
4.2639e-07
4.274e-07
4.28409e-07
4.29417e-07
4.30425e-07
4.31431e-07
4.32437e-07
4.33442e-07
4.34446e-07
4.36222e-07
9.60872e-07
8.61433e-07
3.8216e-07
8.64504e-07
5.00714e-07
7.33429e-07
9.30943e-07
1.26823e-07
3.93318e-07
3.94695e-07
3.9573e-07
3.96762e-07
3.97794e-07
3.98826e-07
3.99856e-07
4.00886e-07
4.01915e-07
4.02944e-07
4.03971e-07
4.04998e-07
4.06024e-07
4.0705e-07
4.08075e-07
4.09099e-07
4.10122e-07
4.11145e-07
4.12166e-07
4.13187e-07
4.14208e-07
4.15227e-07
4.16246e-07
4.17264e-07
4.18281e-07
4.19297e-07
4.20313e-07
4.21328e-07
4.22342e-07
4.23355e-07
4.24368e-07
4.25379e-07
4.2639e-07
4.274e-07
4.28409e-07
4.29418e-07
4.30425e-07
4.31431e-07
4.32437e-07
4.33442e-07
4.34446e-07
4.36222e-07
9.5784e-07
9.11598e-07
6.01806e-07
8.39579e-07
8.74919e-07
7.5123e-07
9.3208e-07
5.32677e-08
3.93453e-07
3.94696e-07
3.9573e-07
3.96762e-07
3.97794e-07
3.98826e-07
3.99856e-07
4.00886e-07
4.01915e-07
4.02944e-07
4.03971e-07
4.04998e-07
4.06024e-07
4.0705e-07
4.08075e-07
4.09099e-07
4.10122e-07
4.11145e-07
4.12166e-07
4.13187e-07
4.14208e-07
4.15227e-07
4.16246e-07
4.17264e-07
4.18281e-07
4.19297e-07
4.20313e-07
4.21328e-07
4.22342e-07
4.23355e-07
4.24368e-07
4.25379e-07
4.2639e-07
4.274e-07
4.28409e-07
4.29418e-07
4.30425e-07
4.31431e-07
4.32437e-07
4.33442e-07
4.34446e-07
4.36222e-07
8.62803e-07
9.15247e-07
4.61557e-07
7.01339e-07
5.45678e-07
5.48742e-07
7.76475e-07
1.83834e-07
3.93452e-07
3.94696e-07
3.9573e-07
3.96762e-07
3.97794e-07
3.98826e-07
3.99856e-07
4.00886e-07
4.01915e-07
4.02944e-07
4.03971e-07
4.04998e-07
4.06024e-07
4.0705e-07
4.08075e-07
4.09099e-07
4.10122e-07
4.11145e-07
4.12166e-07
4.13187e-07
4.14208e-07
4.15227e-07
4.16246e-07
4.17264e-07
4.18281e-07
4.19297e-07
4.20313e-07
4.21328e-07
4.22342e-07
4.23355e-07
4.24368e-07
4.25379e-07
4.2639e-07
4.274e-07
4.28409e-07
4.29418e-07
4.30425e-07
4.31431e-07
4.32437e-07
4.33442e-07
4.34446e-07
4.36222e-07
5.39237e-07
6.43606e-07
7.51438e-07
3.99349e-07
3.85378e-07
7.45111e-07
4.7663e-07
1.83952e-07
3.93452e-07
3.94696e-07
3.9573e-07
3.96762e-07
3.97794e-07
3.98826e-07
3.99856e-07
4.00886e-07
4.01915e-07
4.02944e-07
4.03971e-07
4.04998e-07
4.06024e-07
4.0705e-07
4.08075e-07
4.09099e-07
4.10122e-07
4.11145e-07
4.12166e-07
4.13187e-07
4.14208e-07
4.15227e-07
4.16246e-07
4.17264e-07
4.18281e-07
4.19297e-07
4.20313e-07
4.21328e-07
4.22342e-07
4.23355e-07
4.24368e-07
4.25379e-07
4.2639e-07
4.274e-07
4.28409e-07
4.29418e-07
4.30425e-07
4.31431e-07
4.32437e-07
4.33442e-07
4.34446e-07
4.36222e-07
6.96165e-07
6.84005e-07
6.97641e-07
7.15954e-07
7.70895e-07
7.34718e-07
7.72677e-07
6.98821e-07
6.028e-07
7.01118e-07
7.16753e-07
7.74379e-07
6.45561e-07
7.77117e-07
7.00673e-07
6.18814e-07
7.0076e-07
7.31591e-07
7.75242e-07
5.49483e-07
7.7634e-07
7.00829e-07
6.78903e-07
6.98722e-07
6.39531e-07
7.73488e-07
6.95662e-07
7.69117e-07
6.97117e-07
4.15482e-07
7.0062e-07
6.77055e-07
7.69248e-07
4.65102e-07
7.72637e-07
7.00428e-07
6.67225e-07
6.9958e-07
5.53816e-07
7.76684e-07
7.01834e-07
7.73008e-07
6.9871e-07
6.74022e-07
7.00475e-07
7.29186e-07
7.67294e-07
6.65488e-07
7.75068e-07
7.00683e-07
5.6683e-07
7.00391e-07
7.13909e-07
7.76925e-07
5.17409e-07
7.75835e-07
7.00615e-07
6.76875e-07
6.99045e-07
5.66898e-07
7.75847e-07
7.21226e-07
7.72206e-07
6.9999e-07
6.75063e-07
6.96986e-07
7.64201e-07
7.73421e-07
6.24385e-07
7.71217e-07
7.70216e-07
7.30124e-07
7.72503e-07
7.26113e-07
7.70184e-07
7.09377e-07
7.72226e-07
7.74656e-07
5.67253e-07
7.7739e-07
6.61962e-07
7.74436e-07
5.63477e-07
7.76639e-07
7.75417e-07
5.64006e-07
7.7623e-07
7.21532e-07
7.74962e-07
6.48589e-07
7.75869e-07
7.73242e-07
6.93697e-07
7.69449e-07
5.30122e-07
7.74459e-07
7.07594e-07
7.70801e-07
7.69125e-07
4.65966e-07
7.69737e-07
6.67651e-07
7.70804e-07
4.22059e-07
7.70526e-07
7.76559e-07
6.43754e-07
7.71798e-07
5.93682e-07
7.75536e-07
6.59247e-07
7.75238e-07
7.68976e-07
6.77808e-07
7.75022e-07
7.07076e-07
7.69117e-07
6.89839e-07
7.74572e-07
7.76933e-07
5.15646e-07
7.75252e-07
7.01781e-07
7.76875e-07
6.20274e-07
7.75304e-07
7.75415e-07
7.25862e-07
7.71602e-07
5.59251e-07
7.76017e-07
7.23537e-07
7.70624e-07
7.72968e-07
6.26148e-07
7.71319e-07
7.53201e-07
7.73073e-07
6.11701e-07
7.71079e-07
7.70207e-07
7.02364e-07
7.7215e-07
6.43826e-07
6.96211e-07
6.90646e-07
6.97743e-07
7.74394e-07
5.84373e-07
7.76933e-07
6.88617e-07
6.98967e-07
6.0321e-07
7.01087e-07
7.75307e-07
6.86345e-07
7.75837e-07
6.65717e-07
7.00741e-07
6.8024e-07
7.00822e-07
7.72972e-07
6.92489e-07
7.71984e-07
4.14992e-07
6.98815e-07
6.58851e-07
6.99159e-07
7.70813e-07
4.29955e-07
7.69792e-07
6.43971e-07
6.98681e-07
3.64327e-07
7.00246e-07
7.76e-07
7.32647e-07
7.74617e-07
5.47576e-07
7.007e-07
5.77228e-07
6.99701e-07
7.66196e-07
7.10688e-07
7.7323e-07
6.83001e-07
6.9852e-07
5.30337e-07
6.9898e-07
7.76432e-07
6.57483e-07
7.75861e-07
6.83459e-07
7.00696e-07
6.56506e-07
7.0045e-07
7.76596e-07
7.21726e-07
7.7179e-07
6.40091e-07
7.00791e-07
6.75598e-07
6.99419e-07
7.73361e-07
6.21235e-07
7.70748e-07
6.31001e-07
6.99768e-07
6.42349e-07
6.96899e-07
8.87872e-07
8.79425e-07
8.74692e-07
8.09414e-07
8.87279e-07
9.00473e-07
9.16757e-07
7.65869e-07
6.97276e-07
6.82788e-07
7.36472e-07
7.48867e-07
6.95547e-07
7.69308e-07
1.29429e-07
2.0322e-07
3.52761e-08
1.47115e-07
1.83556e-07
2.7795e-07
5.19792e-08
8.8031e-07
1.41885e-07
5.02793e-07
8.91312e-07
9.00053e-07
2.54583e-07
5.57671e-07
7.21843e-07
6.87045e-07
2.77383e-07
7.6234e-07
7.50509e-07
3.81491e-07
6.75885e-07
3.52761e-08
7.00044e-07
3.51696e-08
4.6186e-07
5.19792e-08
7.7534e-07
5.19966e-08
5.91055e-07
6.67417e-07
6.3412e-07
3.15792e-07
4.05925e-07
6.47178e-07
5.73114e-07
7.56774e-07
6.97131e-07
6.38589e-07
7.3742e-07
7.73178e-07
6.95514e-07
6.90739e-07
3.5386e-08
6.99016e-07
7.68665e-08
7.7609e-07
5.23116e-08
7.75539e-07
1.11034e-07
2.81378e-07
8.41254e-07
8.79756e-07
3.89185e-07
3.29752e-07
8.00993e-07
8.22465e-07
6.46185e-07
5.82727e-07
4.05152e-07
6.3258e-07
6.78289e-07
4.79643e-07
5.02793e-07
1.57895e-07
9.0157e-07
6.96574e-07
9.31334e-07
2.18932e-07
9.30148e-07
7.70327e-07
6.46931e-07
6.54224e-07
1.15963e-07
8.026e-07
4.40782e-07
4.22263e-07
1.59654e-07
7.20626e-07
6.90603e-07
6.49644e-07
6.93165e-07
7.54612e-07
6.78408e-07
6.56985e-07
6.97939e-07
9.02453e-07
7.00232e-07
9.31386e-07
7.7285e-07
9.31327e-07
7.75054e-07
3.37673e-07
8.85735e-07
7.62601e-07
5.13377e-07
3.51381e-07
8.98561e-07
8.69712e-07
7.60083e-07
6.9928e-07
6.56127e-07
5.78724e-07
7.7561e-07
7.41967e-07
6.94997e-07
6.99721e-07
9.02302e-07
6.98085e-07
9.31803e-07
7.75015e-07
9.32034e-07
7.73357e-07
7.28101e-07
8.49398e-07
8.52247e-07
8.41403e-07
8.54889e-07
8.93907e-07
8.79177e-07
7.57626e-07
6.97106e-07
6.35027e-07
6.91941e-07
7.69922e-07
6.95174e-07
6.91497e-07
6.9618e-07
9.02629e-07
1.74196e-07
9.30668e-07
7.70626e-07
9.31773e-07
2.38096e-07
8.7265e-07
7.87329e-07
7.43534e-07
8.41607e-07
9.07145e-07
7.85894e-07
4.51221e-07
7.59825e-07
6.96987e-07
6.99996e-07
7.0255e-07
7.6977e-07
7.13594e-07
6.94819e-07
8.61932e-08
6.99538e-07
3.58927e-08
9.32059e-07
1.23815e-07
7.76208e-07
5.3517e-08
6.51533e-07
8.72371e-07
7.98666e-07
5.17837e-07
2.20426e-07
8.59064e-07
8.71644e-07
6.75849e-07
6.8658e-07
5.09208e-07
5.60708e-07
7.55273e-07
4.05461e-07
5.95361e-07
3.52231e-08
6.90512e-07
3.52096e-08
7.76271e-07
5.20107e-08
7.6534e-07
5.19789e-08
8.8831e-07
8.58548e-07
8.92592e-07
7.96984e-07
7.04361e-07
8.87663e-07
8.97343e-07
7.71277e-07
6.96691e-07
6.49674e-07
7.25357e-07
7.69018e-07
6.44175e-07
6.98802e-07
3.5276e-08
1.11983e-07
1.29433e-07
4.74124e-07
5.19787e-08
1.58397e-07
1.83563e-07
9.08986e-07
9.18006e-07
8.85734e-07
7.98805e-07
9.15503e-07
8.86078e-07
9.12864e-07
7.29657e-07
7.59612e-07
7.13528e-07
7.10116e-07
7.3724e-07
7.09497e-07
7.57524e-07
1.83553e-07
2.7783e-07
5.19787e-08
1.49604e-07
1.83553e-07
2.80831e-07
5.19787e-08
8.79984e-07
2.93589e-07
6.59437e-07
8.97487e-07
9.19706e-07
9.00613e-07
7.21593e-07
6.63266e-07
7.71885e-07
5.34362e-07
6.81073e-07
6.58105e-07
7.67951e-07
5.51663e-07
5.19787e-08
7.75138e-07
5.19963e-08
4.62387e-07
5.19787e-08
7.75665e-07
5.19963e-08
2.87478e-07
6.52174e-07
4.54879e-07
6.5189e-07
6.62029e-07
2.76146e-07
6.98613e-07
7.41863e-07
7.70768e-07
7.06792e-07
7.40237e-07
7.44614e-07
7.67432e-07
6.91817e-07
5.23449e-08
7.75318e-07
1.11034e-07
7.76174e-07
5.23457e-08
7.75192e-07
1.11008e-07
2.67728e-07
8.58994e-07
8.44575e-07
5.52322e-07
2.70901e-07
8.15547e-07
7.84146e-07
7.06777e-07
6.99279e-07
4.13289e-07
5.83738e-07
7.26594e-07
6.62841e-07
4.40822e-07
2.18989e-07
9.30257e-07
7.70176e-07
9.31182e-07
2.18852e-07
9.3012e-07
7.70299e-07
7.15632e-07
5.94174e-07
1.70284e-07
3.9255e-07
3.34407e-07
3.27134e-07
2.28644e-07
7.18662e-07
7.39841e-07
4.46747e-07
6.68864e-07
7.07009e-07
7.37482e-07
4.5718e-07
7.72541e-07
9.31103e-07
7.74846e-07
9.30817e-07
7.72655e-07
9.31065e-07
7.75052e-07
4.25899e-07
8.92296e-07
8.31895e-07
8.46661e-07
4.57607e-07
8.86799e-07
6.88394e-07
7.33935e-07
7.68638e-07
7.31134e-07
5.61307e-07
7.3484e-07
7.67436e-07
7.05878e-07
7.74612e-07
9.31742e-07
7.73078e-07
9.30997e-07
7.75037e-07
9.31493e-07
7.73095e-07
8.33612e-07
8.87718e-07
5.99728e-07
4.06573e-07
7.76862e-07
2.44065e-07
3.48003e-07
7.31062e-07
7.68963e-07
5.81476e-07
6.27255e-07
7.35303e-07
7.64482e-07
5.58079e-07
7.70393e-07
9.31816e-07
2.38126e-07
9.31482e-07
7.70585e-07
9.31942e-07
2.38041e-07
8.40595e-07
3.9967e-07
4.05435e-07
8.87258e-07
8.78561e-07
7.30943e-07
2.5891e-07
7.55931e-07
7.5883e-07
5.67759e-07
7.23728e-07
7.54333e-07
7.53477e-07
5.36303e-07
1.23794e-07
7.76028e-07
5.35738e-08
9.3179e-07
1.23804e-07
7.76154e-07
5.35716e-08
2.22318e-07
3.42912e-07
4.47358e-07
6.1363e-07
2.26497e-07
7.62258e-07
4.25671e-07
4.70005e-07
7.3063e-07
3.70998e-07
5.77458e-07
4.97627e-07
7.13691e-07
3.66385e-07
5.20104e-08
7.64966e-07
5.19783e-08
7.76244e-07
5.20105e-08
7.64676e-07
5.19783e-08
3.29241e-07
9.22228e-07
8.38596e-07
3.86214e-07
3.41633e-07
6.20821e-07
7.90026e-07
7.55108e-07
7.60755e-07
6.73074e-07
7.42823e-07
7.64513e-07
7.60106e-07
7.13e-07
5.19781e-08
1.61293e-07
1.8356e-07
4.75485e-07
5.19781e-08
1.58789e-07
1.8356e-07
8.50484e-07
9.24242e-07
8.94674e-07
8.29101e-07
7.16824e-07
8.74399e-07
8.65072e-07
7.36832e-07
7.64814e-07
6.99908e-07
7.28205e-07
7.2995e-07
6.63823e-07
7.66163e-07
1.83555e-07
2.82243e-07
5.19792e-08
1.03369e-07
1.29429e-07
2.03407e-07
3.52762e-08
9.19154e-07
9.04086e-07
8.24614e-07
8.86768e-07
8.74356e-07
8.30199e-07
7.77121e-07
6.97407e-07
7.71676e-07
6.15688e-07
6.68599e-07
6.76666e-07
7.70984e-07
6.44004e-07
5.19792e-08
7.75905e-07
5.19966e-08
3.79355e-07
3.5255e-08
7.0006e-07
3.51696e-08
8.09936e-07
4.05662e-07
5.45474e-07
8.57958e-07
8.29139e-07
6.80575e-07
6.8461e-07
7.5596e-07
7.75809e-07
6.31457e-07
7.32733e-07
7.52408e-07
7.67552e-07
6.31007e-07
5.23127e-08
7.75699e-07
1.11e-07
7.00538e-07
3.52879e-08
6.98943e-07
7.68435e-08
2.76665e-07
8.74443e-07
8.77689e-07
6.3714e-07
2.20624e-07
8.43285e-07
8.7941e-07
7.08067e-07
7.34045e-07
6.05973e-07
5.36126e-07
6.86005e-07
7.55041e-07
6.58709e-07
2.18951e-07
9.30661e-07
7.70299e-07
9.02591e-07
1.57646e-07
9.02142e-07
6.96564e-07
6.24262e-07
4.55455e-07
3.45759e-07
6.77044e-07
8.12961e-07
5.86648e-07
6.91157e-07
7.26623e-07
7.48733e-07
4.99014e-07
6.44525e-07
7.292e-07
7.56484e-07
5.41403e-07
7.72985e-07
9.31283e-07
7.75124e-07
9.02289e-07
6.98067e-07
9.02479e-07
7.00225e-07
7.40893e-07
5.83378e-07
4.22313e-07
8.4851e-07
8.47127e-07
8.9044e-07
6.1533e-07
7.59048e-07
7.66972e-07
6.99716e-07
5.42515e-07
7.509e-07
7.68e-07
6.99008e-07
7.75166e-07
9.31822e-07
7.73315e-07
9.0252e-07
6.99795e-07
9.02372e-07
6.98036e-07
6.69655e-07
3.06771e-07
3.16219e-07
6.91813e-07
6.23858e-07
5.41775e-07
4.03074e-07
7.40885e-07
7.68323e-07
6.9387e-07
7.4141e-07
7.3452e-07
7.69845e-07
7.16257e-07
7.70734e-07
9.32115e-07
2.38238e-07
9.01973e-07
6.96207e-07
9.02647e-07
1.74114e-07
8.44363e-07
5.29459e-07
3.16786e-07
8.85536e-07
8.28246e-07
6.5504e-07
4.14334e-07
7.59614e-07
7.54006e-07
6.05733e-07
7.45475e-07
7.65558e-07
7.56133e-07
6.08551e-07
1.2382e-07
7.7626e-07
5.35143e-08
9.03062e-07
8.60937e-08
6.98404e-07
3.58916e-08
2.39772e-07
5.46511e-07
3.39418e-07
5.08779e-07
1.57742e-07
6.22854e-07
4.46858e-07
6.41126e-07
7.30487e-07
4.75302e-07
5.62311e-07
5.97601e-07
7.43625e-07
4.84763e-07
5.20106e-08
7.64785e-07
5.19788e-08
7.01189e-07
3.51557e-08
6.8693e-07
3.52106e-08
4.02534e-07
2.4255e-07
6.45651e-07
5.11195e-07
6.55147e-07
2.59697e-07
6.49443e-07
7.46318e-07
7.71071e-07
7.03439e-07
6.99724e-07
7.53582e-07
7.66299e-07
6.64411e-07
5.19786e-08
1.58673e-07
1.83563e-07
3.80147e-07
3.52761e-08
1.1213e-07
1.29433e-07
7.73726e-07
6.99976e-07
6.96831e-07
7.71758e-07
7.72322e-07
6.99141e-07
7.74981e-07
7.6499e-07
6.72486e-07
6.95335e-07
7.65607e-07
6.92549e-07
7.64957e-07
6.89836e-07
7.71013e-07
6.96934e-07
6.97408e-07
7.72593e-07
7.7204e-07
7.72586e-07
6.9703e-07
7.55764e-07
7.33482e-07
7.64024e-07
7.42385e-07
7.36412e-07
7.46181e-07
7.67171e-07
7.71748e-07
7.71723e-07
7.73859e-07
7.72124e-07
7.72239e-07
7.69757e-07
7.74504e-07
7.62925e-07
7.51265e-07
6.52651e-07
7.69426e-07
6.52823e-07
7.61865e-07
7.63625e-07
7.70667e-07
7.72615e-07
7.71416e-07
7.72006e-07
7.71673e-07
7.72182e-07
7.69889e-07
7.70507e-07
6.96986e-07
6.99738e-07
7.74055e-07
7.69786e-07
7.75702e-07
6.98585e-07
7.58537e-07
6.11532e-07
6.92189e-07
6.32691e-07
6.34881e-07
7.67269e-07
6.9161e-07
7.75574e-07
7.00629e-07
6.98825e-07
7.77476e-07
7.76966e-07
7.72042e-07
6.9925e-07
7.0361e-07
7.63964e-07
7.64901e-07
5.55989e-07
7.52347e-07
4.6335e-07
6.85255e-07
7.71491e-07
7.7385e-07
7.67743e-07
7.74883e-07
7.68033e-07
7.75213e-07
7.71821e-07
7.6129e-07
6.75319e-07
5.30628e-07
7.65887e-07
5.62695e-07
7.62451e-07
7.53228e-07
7.71814e-07
7.77274e-07
7.76198e-07
7.66287e-07
7.75783e-07
7.68195e-07
7.73465e-07
7.7202e-07
7.00195e-07
7.00641e-07
7.76604e-07
7.73799e-07
7.76884e-07
6.98967e-07
7.63252e-07
3.35833e-07
6.89747e-07
6.77756e-07
4.8937e-07
7.63005e-07