/*--------------------------------*- C++ -*----------------------------------*\
| =========                 |                                                 |
| \\      /  F ield         | OpenFOAM: The Open Source CFD Toolbox           |
|  \\    /   O peration     | Version:  5.0                                   |
|   \\  /    A nd           | Web:      www.OpenFOAM.org                      |
|    \\/     M anipulation  |                                                 |
\*---------------------------------------------------------------------------*/
FoamFile
{
    version     2.0;
    format      ascii;
    class       volVectorField;
    location    "4.5";
    object      U;
}
// * * * * * * * * * * * * * * * * * * * * * * * * * * * * * * * * * * * * * //

dimensions      [0 1 -1 0 0 0 0];

internalField   nonuniform List<vector> 
8717
(
(0.0010023 -0.0018181 0.00033086)
(0.00494709 0.00160198 6.58153e-05)
(0.00637637 -0.00905948 -0.000517122)
(0.00059281 -0.00342704 0.000112715)
(0.00894802 -0.00868503 -0.000250448)
(0.00178291 -0.00472638 1.55803e-05)
(0.000865111 -0.000167448 6.18836e-06)
(0.000407395 1.14193e-05 -9.09425e-08)
(0.000842292 -1.36503e-05 -1.46814e-06)
(0.000797749 -9.57391e-06 -3.77348e-07)
(0.000815452 -5.30465e-06 2.14352e-07)
(0.000815428 -3.16556e-06 5.84167e-08)
(0.00081699 -1.7665e-06 8.34993e-08)
(0.00081685 -9.50807e-07 6.61572e-08)
(0.000815779 -5.78632e-07 5.28079e-08)
(0.000814665 -2.94636e-07 2.25514e-08)
(0.000813462 -2.2949e-07 5.1927e-08)
(0.000811906 -3.41423e-08 8.55185e-08)
(0.000810112 -2.49303e-07 1.04203e-07)
(0.000808598 -1.91875e-07 8.3142e-08)
(0.000807243 -1.46287e-07 6.58967e-08)
(0.000805672 8.8327e-09 6.35409e-08)
(0.000804103 -5.38125e-08 1.54788e-08)
(0.000802536 1.48283e-07 4.9147e-08)
(0.000801124 3.49954e-07 5.79026e-08)
(0.000799533 3.65344e-07 1.20134e-08)
(0.000797896 3.13128e-07 5.04604e-08)
(0.000796759 8.28783e-08 4.82823e-08)
(0.000794912 9.07911e-08 -1.22187e-08)
(0.000793181 -1.24965e-07 6.54339e-08)
(0.000791793 -4.3528e-07 8.00713e-08)
(0.000790013 -4.69364e-07 3.10705e-08)
(0.00078881 -2.48197e-07 1.32434e-07)
(0.000787821 -1.21343e-07 4.1963e-08)
(0.000786475 4.82597e-08 4.30066e-08)
(0.000784916 1.30152e-07 9.73942e-08)
(0.000783231 1.59879e-07 5.75394e-08)
(0.000781573 2.4518e-07 3.01019e-08)
(0.000780722 4.77785e-07 5.87426e-08)
(0.000779642 1.56917e-07 9.39313e-08)
(0.000777946 -4.06171e-08 2.57634e-08)
(0.00077645 -9.46443e-08 7.80561e-08)
(0.000775647 -4.70237e-07 3.7426e-08)
(0.000774049 -5.17742e-07 -4.80113e-09)
(0.00077211 -2.38667e-07 3.43692e-08)
(0.000770797 -1.29939e-07 7.08031e-08)
(0.000769703 3.00809e-08 5.42395e-08)
(0.00076868 -1.37042e-07 4.27421e-08)
(0.000766932 -4.17279e-07 1.96797e-08)
(0.000765315 -3.89264e-07 4.10817e-09)
(-0.00137726 0.00112587 0.000188971)
(0.000202869 9.51329e-05 -0.000257227)
(0.000809523 -0.00409183 0.000551611)
(0.00477426 0.00117116 -1.42203e-05)
(0.00160565 -0.00563946 -0.000831323)
(-0.0170321 0.0050581 -0.000381568)
(0.00161624 0.000255221 3.50291e-05)
(0.000469053 -2.81555e-05 -8.94704e-07)
(0.000879244 -3.06463e-05 -1.28158e-06)
(0.000809196 -1.52238e-05 -5.1327e-07)
(0.000823015 -9.75075e-06 1.58676e-07)
(0.000819857 -5.53526e-06 3.14993e-08)
(0.000819261 -3.15499e-06 3.48333e-08)
(0.000817763 -1.94989e-06 4.4497e-08)
(0.000816532 -1.17854e-06 5.23525e-08)
(0.000815001 -6.78317e-07 4.00078e-08)
(0.000813407 -4.24639e-07 5.59592e-08)
(0.000811729 -3.5298e-07 1.35593e-07)
(0.000810323 -5.52354e-08 1.12367e-08)
(0.00080898 2.84075e-08 3.03295e-08)
(0.00080732 1.32042e-07 7.84567e-08)
(0.000805628 1.36901e-07 6.3287e-08)
(0.000804186 3.52403e-07 2.00671e-07)
(0.000802907 1.3209e-07 8.1739e-08)
(0.000801094 1.81815e-07 5.11651e-08)
(0.000799298 -8.88493e-08 6.90358e-08)
(0.000797743 -1.23592e-07 5.13466e-08)
(0.000796265 -2.39899e-07 4.88788e-08)
(0.000794766 -7.18139e-07 1.28397e-07)
(0.000793068 -4.16083e-07 3.14045e-08)
(0.000791685 -3.04975e-07 -1.39875e-07)
(0.000790474 -7.44267e-08 1.50749e-08)
(0.000789211 5.89419e-07 7.25603e-08)
(0.000787964 5.33549e-07 1.67496e-07)
(0.000786413 2.41567e-07 4.11468e-08)
(0.000784916 1.63858e-07 3.8596e-08)
(0.000783647 1.46995e-07 3.46987e-08)
(0.000782406 3.50138e-07 3.14635e-09)
(0.000780603 5.85748e-07 2.7965e-08)
(0.000778846 3.73539e-07 1.23788e-07)
(0.000777615 1.38219e-07 5.8849e-08)
(0.000776259 1.0757e-08 6.98111e-08)
(0.00077474 -1.4577e-07 4.7719e-08)
(0.000773928 -5.83628e-07 1.40071e-07)
(0.000772852 -1.62676e-07 6.38415e-08)
(0.000771239 -2.77255e-08 4.22741e-08)
(0.000769746 3.38043e-07 7.62571e-08)
(0.000768152 4.91151e-08 -5.43011e-09)
(0.000766851 -1.22797e-07 7.52671e-08)
(0.000765897 -2.01688e-07 1.12887e-07)
(0.00791204 -0.0068072 -0.000347558)
(-0.00310428 0.000178897 0.000290959)
(0.00281216 0.0126921 -0.000334394)
(0.000379376 0.00792544 0.000619592)
(0.00679662 0.00147817 -0.000943869)
(0.00466225 0.00228996 -9.8973e-05)
(0.000133794 -0.000642772 3.26087e-05)
(0.000251158 -1.10451e-05 1.42577e-07)
(0.000861308 -4.24994e-05 -2.45752e-06)
(0.000824214 -1.58725e-05 -1.29958e-07)
(0.000827614 -1.05478e-05 1.35639e-07)
(0.000823705 -5.6803e-06 6.07268e-08)
(0.000821489 -3.5485e-06 5.9369e-08)
(0.000819331 -2.109e-06 5.57939e-08)
(0.000817375 -1.28032e-06 5.4951e-08)
(0.000815611 -8.60972e-07 5.40608e-08)
(0.000813872 -5.01586e-07 5.74986e-08)
(0.00081237 -2.67963e-07 1.83707e-08)
(0.00081059 -5.29092e-08 1.06683e-07)
(0.000808832 -7.75812e-08 4.25678e-08)
(0.000807378 -4.0594e-08 1.31624e-07)
(0.000805945 -3.70227e-08 4.66014e-08)
(0.000804095 3.37628e-08 7.17395e-08)
(0.000802321 -8.79832e-08 9.84129e-09)
(0.000800846 -2.62366e-07 5.57557e-08)
(0.00079915 -1.6262e-07 8.74817e-08)
(0.000797708 -1.28809e-07 6.04063e-08)
(0.000796019 -7.13333e-08 5.56513e-08)
(0.000794696 -7.36438e-08 1.82272e-08)
(0.000793703 2.75482e-07 -7.24494e-08)
(0.000792224 4.7177e-07 1.70209e-07)
(0.000791131 5.4593e-07 5.06156e-08)
(0.000789568 4.64282e-07 -1.76612e-08)
(0.000787383 3.40407e-07 -1.78074e-08)
(0.00078601 1.85624e-07 9.43953e-08)
(0.000784796 1.78961e-07 5.19416e-08)
(0.000783462 1.16396e-07 5.16844e-08)
(0.000782118 -3.54522e-08 4.97875e-08)
(0.000780747 -1.76622e-07 2.55713e-08)
(0.000779079 -1.71551e-07 9.09329e-08)
(0.00077749 1.29469e-09 2.94423e-08)
(0.000776096 6.66494e-08 6.43444e-08)
(0.000774907 2.82168e-07 8.70621e-08)
(0.000774031 2.92454e-07 9.25622e-08)
(0.000772808 1.66862e-07 -6.1321e-08)
(0.000771424 2.05683e-07 1.1304e-07)
(0.000769799 2.49866e-07 7.67257e-08)
(0.000768103 4.23893e-07 7.63377e-08)
(0.000766623 2.70911e-07 5.94275e-08)
(0.000765717 1.5921e-07 1.26028e-07)
(0.0151381 0.00796735 0.00059758)
(0.0180388 0.0225262 0.000724946)
(-0.0262155 -0.00266478 0.00171977)
(0.0168799 0.00799379 0.000602879)
(0.00624402 -0.00297896 -0.00104028)
(-0.0145388 -0.00383502 -0.000131264)
(0.00089542 -0.00203486 5.66173e-06)
(0.000486732 -0.000181222 4.14447e-05)
(0.000893768 -5.31877e-05 -2.25284e-06)
(0.000849123 4.62211e-06 -2.24213e-07)
(0.000835793 -4.91165e-06 2.44836e-08)
(0.000828631 -1.98009e-06 3.77481e-08)
(0.000823738 -1.67163e-06 4.84002e-08)
(0.000820606 -1.02826e-06 5.37211e-08)
(0.000818097 -6.2744e-07 5.28319e-08)
(0.000815978 -3.78686e-07 5.43772e-08)
(0.00081415 -2.37508e-07 4.8758e-08)
(0.000812292 -1.39498e-07 3.32607e-08)
(0.000810562 -3.43225e-07 7.56278e-08)
(0.000808997 -4.17325e-07 2.91961e-08)
(0.000807371 -2.48411e-07 8.30755e-08)
(0.000805722 -2.48287e-07 5.28188e-08)
(0.000804123 -3.5455e-07 -1.38599e-08)
(0.000802539 -8.21215e-08 8.10491e-08)
(0.000801002 -1.02018e-07 -2.28571e-09)
(0.000799467 1.40453e-07 3.06192e-08)
(0.000797858 2.933e-07 6.20354e-08)
(0.000796334 4.49114e-07 5.72217e-08)
(0.000795198 7.52698e-07 -6.87273e-09)
(0.000793747 3.51512e-07 3.80424e-08)
(0.000792018 3.64291e-07 1.0984e-07)
(0.000790459 5.22312e-07 -7.64918e-09)
(0.00078895 -2.43749e-08 4.18355e-08)
(0.000787614 -6.00873e-08 4.74229e-08)
(0.00078621 6.92637e-08 4.87236e-08)
(0.000784829 4.21848e-08 4.02279e-08)
(0.000783378 -2.53003e-08 4.45659e-08)
(0.00078204 -1.22237e-07 3.425e-08)
(0.000780433 -2.82885e-07 1.40987e-08)
(0.000779069 -3.7208e-07 -1.75327e-08)
(0.000777912 -9.72908e-08 4.91132e-08)
(0.000776609 1.34192e-07 2.8388e-08)
(0.00077502 3.61304e-07 2.99955e-08)
(0.000773781 5.51713e-07 -1.03966e-08)
(0.00077274 1.92057e-07 3.07785e-08)
(0.000771339 1.08279e-07 4.19395e-08)
(0.000770016 6.78894e-08 7.56861e-08)
(0.000768175 3.07474e-07 5.03705e-08)
(0.000766516 2.01762e-07 4.64587e-08)
(0.000765359 2.81845e-07 1.50212e-07)
(0.00507368 -0.00437279 -0.000738908)
(-0.0102722 -0.011546 -0.000224839)
(0.00311766 -0.0282037 0.00212241)
(-0.0162337 -0.00853422 -0.002315)
(0.019842 -0.00322681 0.00118163)
(0.00998196 -0.0117865 -0.000162197)
(0.00113347 -0.000687138 -1.01676e-05)
(0.00116795 -3.87611e-05 4.2386e-06)
(0.000456962 -5.87244e-06 -1.91275e-06)
(0.000882942 1.68696e-05 -1.62746e-06)
(0.000819331 2.61166e-06 -3.96946e-07)
(0.000827752 1.65469e-06 1.54858e-07)
(0.000822675 5.69239e-07 1.71062e-07)
(0.000820636 2.11113e-07 6.108e-08)
(0.000818186 6.84875e-08 5.45274e-08)
(0.000816098 7.47583e-08 4.53725e-08)
(0.00081417 8.06421e-08 5.29344e-08)
(0.000812238 3.73875e-09 5.04278e-08)
(0.000810243 1.95371e-07 5.33658e-08)
(0.000808953 3.83257e-07 1.06854e-07)
(0.000807591 4.50036e-08 6.70711e-08)
(0.000805815 1.76432e-07 1.92297e-08)
(0.000804305 1.41598e-07 1.08219e-07)
(0.000802638 1.24117e-07 8.36492e-08)
(0.000801125 1.50682e-07 9.40633e-08)
(0.000799644 -6.25915e-08 7.48656e-08)
(0.000798091 2.07598e-07 6.02927e-08)
(0.000796588 3.87429e-07 6.61025e-08)
(0.000794567 6.48099e-07 2.3906e-07)
(0.00079321 7.73841e-07 6.31493e-08)
(0.000792431 3.22305e-07 -4.00015e-08)
(0.00079064 -9.04563e-08 4.07815e-08)
(0.000788837 1.14968e-07 3.09487e-08)
(0.000787498 7.22645e-08 4.83464e-08)
(0.000786137 1.54913e-07 5.27996e-08)
(0.000784677 -2.15481e-10 4.79052e-08)
(0.000783256 -5.30966e-08 4.69157e-08)
(0.000781798 -5.0921e-08 5.51387e-08)
(0.000780437 -1.08299e-07 4.47272e-08)
(0.000779313 -6.61901e-08 -1.29868e-07)
(0.000778124 1.80066e-08 7.16609e-08)
(0.000776667 5.81695e-08 3.46241e-08)
(0.000775425 8.12081e-08 3.72458e-08)
(0.000773816 3.12484e-07 5.45314e-08)
(0.000772251 3.31382e-08 5.3839e-08)
(0.000771268 -1.49275e-07 4.99417e-08)
(0.000770048 -4.97773e-07 1.06696e-08)
(0.00076827 -8.38374e-07 4.32411e-08)
(0.000766585 -3.16585e-07 5.56235e-08)
(0.000765116 2.26284e-08 5.07247e-08)
(0.0039804 -0.00110418 -0.000765731)
(0.00103961 -0.012299 9.77165e-05)
(-0.000764429 0.0123025 -0.000828509)
(0.00740852 0.0081053 -0.00249987)
(0.00116287 0.00106585 -0.000239667)
(-0.00906042 -0.000612227 -0.000106648)
(0.00137909 -0.000108384 -6.03884e-06)
(0.00135178 1.17186e-05 7.6841e-06)
(0.000495053 -3.8664e-06 6.62938e-07)
(0.000872899 -7.16824e-06 -1.41546e-06)
(0.000816483 3.29887e-06 -3.69413e-07)
(0.000826053 1.42906e-06 1.56406e-07)
(0.000821919 1.39925e-06 9.39723e-08)
(0.000819973 8.99617e-07 5.83847e-08)
(0.000817924 5.65528e-07 8.68279e-08)
(0.000815992 3.59201e-07 5.55076e-08)
(0.000814061 2.42442e-07 5.45792e-08)
(0.000812434 2.32368e-07 6.8367e-08)
(0.000811035 3.06386e-07 3.43148e-08)
(0.000808807 6.14927e-07 4.45245e-08)
(0.000807111 4.6293e-07 1.11776e-07)
(0.000805842 3.16764e-07 3.01615e-07)
(0.000804057 2.39679e-07 1.78735e-07)
(0.000802549 1.66447e-07 1.77109e-09)
(0.000800769 2.04472e-07 3.74345e-08)
(0.000799537 2.1279e-07 -3.52235e-10)
(0.000798419 1.35547e-08 6.22731e-08)
(0.000796882 -9.21167e-08 -1.48999e-08)
(0.000795677 1.06339e-07 2.19243e-08)
(0.000793335 -3.0965e-08 -9.09431e-08)
(0.000790935 -1.98919e-07 5.94649e-09)
(0.000790198 -3.34839e-07 -2.44276e-08)
(0.000789153 -2.70341e-07 1.43642e-08)
(0.000787662 -1.77253e-07 5.30231e-08)
(0.000786118 -2.10751e-07 2.45137e-08)
(0.000784568 -4.6426e-08 4.22642e-08)
(0.000783315 4.43332e-08 3.9994e-08)
(0.000781972 1.80731e-07 4.76964e-08)
(0.000780415 2.21673e-07 6.64909e-08)
(0.000779228 2.11848e-07 4.91981e-08)
(0.000778068 1.65185e-07 8.8298e-08)
(0.000776687 7.02305e-08 5.11721e-08)
(0.000775337 3.73484e-08 4.8347e-08)
(0.000773721 -1.86612e-07 -1.53937e-08)
(0.000772164 -6.71815e-08 3.73558e-08)
(0.000770679 -1.89213e-07 4.44703e-08)
(0.000769159 -5.08823e-07 -7.19228e-08)
(0.000768407 -6.92485e-07 -5.44135e-08)
(0.000767594 -4.7753e-07 8.86474e-08)
(0.000765727 -3.32607e-07 1.28524e-07)
(-0.0024983 0.00456837 0.00048899)
(-0.0063938 -0.00435637 -0.000244156)
(0.0014582 -0.00274874 0.000205814)
(-0.00394301 -0.0145156 -0.000866438)
(-0.000620536 -0.00124543 0.000108341)
(-0.00272566 -0.00207126 -0.000142367)
(0.000143861 -0.000194431 -1.14544e-05)
(0.000850443 6.17017e-05 1.90891e-06)
(0.00088435 4.96192e-05 -2.28849e-06)
(0.00083643 -2.1567e-06 -2.72324e-07)
(0.000830175 6.56396e-06 2.05836e-08)
(0.000825369 3.35917e-06 3.20401e-08)
(0.000822009 2.45261e-06 4.13213e-08)
(0.000819588 1.57985e-06 4.93693e-08)
(0.000817507 1.03456e-06 5.18852e-08)
(0.000815692 6.30806e-07 5.35382e-08)
(0.00081401 4.64007e-07 5.10209e-08)
(0.000812317 3.20254e-07 5.1707e-08)
(0.000810719 1.9747e-07 4.42106e-08)
(0.000809145 -1.52217e-07 4.81888e-08)
(0.000807216 2.16359e-07 -3.6101e-09)
(0.000805534 3.6985e-08 4.94426e-08)
(0.000804115 1.36022e-07 3.61579e-08)
(0.000802593 5.50392e-08 4.54972e-08)
(0.000801181 9.44196e-08 3.25878e-09)
(0.000799404 2.55412e-07 9.82834e-08)
(0.00079771 -6.97627e-08 5.675e-08)
(0.000796704 -3.32241e-07 4.50728e-08)
(0.000794645 -9.96306e-07 -5.7415e-08)
(0.00079283 -1.23166e-06 1.0496e-07)
(0.000792054 -6.14858e-07 -3.9358e-08)
(0.000790555 -1.26367e-07 1.7874e-07)
(0.000789037 -1.12691e-07 3.95727e-08)
(0.000787576 -1.31825e-07 7.33858e-08)
(0.000786302 -1.9292e-07 5.85638e-08)
(0.000784997 -3.29692e-08 7.11573e-08)
(0.00078354 2.66001e-08 4.59436e-08)
(0.000782019 3.0829e-08 2.27655e-08)
(0.000780475 9.42838e-08 2.98367e-08)
(0.000779241 4.14243e-07 1.23996e-08)
(0.000777946 2.07045e-07 5.76354e-08)
(0.000776507 2.12358e-07 -1.2179e-08)
(0.000775105 3.2082e-08 6.35038e-08)
(0.000773686 -6.66379e-08 3.79699e-08)
(0.00077225 -4.39398e-08 8.12344e-09)
(0.000770718 2.18797e-08 4.84984e-08)
(0.000769423 2.53089e-08 7.22104e-08)
(0.000768314 1.62115e-07 4.44488e-08)
(0.000767044 -1.87936e-07 2.79482e-08)
(0.000766126 -3.17177e-07 5.68993e-08)
(0.00584143 0.00394882 0.00019604)
(0.00366906 -0.00471876 -7.00815e-05)
(-0.00511083 -0.00652597 -0.000155116)
(0.00784574 -0.00231281 0.00216517)
(0.00531574 -0.000742837 0.000279662)
(0.0024978 0.000319313 -0.000712569)
(0.00271475 0.000930774 0.000193652)
(0.000477209 7.84299e-05 3.33855e-05)
(0.000860922 3.30445e-05 -1.99925e-06)
(0.000817486 1.37966e-05 -1.21001e-07)
(0.000823377 9.24526e-06 1.18102e-07)
(0.000820898 5.16303e-06 4.7284e-08)
(0.000819687 3.14885e-06 5.37688e-08)
(0.000818194 1.86519e-06 5.08096e-08)
(0.000816732 1.12149e-06 5.14765e-08)
(0.000815275 6.48003e-07 5.21001e-08)
(0.00081367 2.90818e-07 1.01829e-07)
(0.000812099 1.31921e-07 7.92005e-08)
(0.000810444 -2.10201e-08 9.44292e-08)
(0.00080883 -1.34866e-07 4.01335e-08)
(0.000807347 -2.67061e-07 4.85676e-08)
(0.000805741 -1.65498e-07 6.51056e-08)
(0.000804079 -2.7494e-07 4.1139e-08)
(0.000802496 -1.80459e-07 4.89272e-08)
(0.000801018 -3.52728e-07 5.59324e-08)
(0.000799331 -3.85253e-07 -1.37486e-07)
(0.000797685 -6.09165e-08 3.92446e-08)
(0.000795728 -1.66061e-07 2.37802e-07)
(0.000794559 -4.27527e-07 1.68974e-07)
(0.00079382 1.59885e-07 7.17945e-08)
(0.000792322 1.91318e-07 1.23893e-07)
(0.000790829 7.33427e-08 5.96163e-08)
(0.000789148 1.25192e-07 7.19984e-08)
(0.000787563 1.00014e-07 4.74439e-08)
(0.000786243 1.27268e-07 4.00291e-08)
(0.000784843 -8.3274e-08 3.86449e-08)
(0.000783395 -1.19166e-07 1.6438e-08)
(0.000782056 -2.62133e-07 6.17505e-08)
(0.000780893 -7.45465e-09 4.25269e-08)
(0.000779367 5.97391e-08 7.4715e-08)
(0.000777814 2.15421e-08 6.77655e-09)
(0.000776468 1.09661e-07 4.09573e-08)
(0.000774989 1.08018e-07 5.22481e-08)
(0.000773626 4.61488e-08 3.80542e-08)
(0.000772275 -1.25768e-08 6.95321e-08)
(0.000770766 7.56922e-08 4.71696e-08)
(0.000769335 4.29367e-07 4.0881e-08)
(0.000768141 3.03569e-07 5.28602e-08)
(0.000767003 1.87915e-07 5.10543e-08)
(0.000766357 -8.92334e-08 5.55988e-08)
(0.00183602 -0.0169237 0.000388949)
(-0.00292993 0.000762129 -6.63482e-05)
(0.000451504 -0.011969 0.00121757)
(-0.0126324 -0.011442 0.00122603)
(0.00516437 -0.0139788 2.57109e-05)
(0.00205462 -0.00207698 -0.000238168)
(0.000218375 0.000375721 2.48273e-05)
(0.000438838 1.84411e-05 -4.55695e-07)
(0.000857049 2.17167e-05 -1.71147e-06)
(0.000806533 1.05576e-05 -5.16734e-07)
(0.000819338 6.6765e-06 1.17782e-07)
(0.000817721 3.83204e-06 -7.44381e-08)
(0.000817873 2.29315e-06 4.49814e-08)
(0.000817046 1.26885e-06 4.81648e-08)
(0.000815981 7.5591e-07 5.04e-08)
(0.000814651 4.50044e-07 1.43751e-07)
(0.000813364 1.86427e-07 9.80814e-08)
(0.000811926 -2.18875e-08 4.70076e-07)
(0.000810386 -9.06289e-08 5.62183e-08)
(0.000808838 3.84163e-08 8.00754e-08)
(0.000807179 -7.44813e-08 5.18316e-08)
(0.000805526 -1.85227e-07 6.9834e-08)
(0.000804098 -2.5757e-07 3.96838e-08)
(0.000802498 -2.39456e-07 5.38167e-08)
(0.000800928 -3.3269e-07 4.23246e-08)
(0.000799772 -3.95544e-07 4.45352e-08)
(0.000797986 -3.22155e-07 6.99805e-08)
(0.000796248 -6.67335e-08 4.61547e-08)
(0.000795053 3.31059e-07 4.3944e-08)
(0.000793604 3.07304e-07 2.55489e-08)
(0.000791944 2.56063e-07 5.4093e-07)
(0.00079047 1.40258e-07 6.65792e-08)
(0.000789069 -2.18362e-07 -1.0343e-08)
(0.000787577 -1.59504e-07 2.256e-09)
(0.000786073 -1.95877e-07 3.01845e-08)
(0.000784689 -2.75928e-07 8.12889e-08)
(0.000783318 -2.49778e-07 5.36763e-08)
(0.000782159 -1.89636e-07 5.0859e-08)
(0.000780877 -2.87148e-07 7.92136e-08)
(0.000779277 -3.33419e-07 3.70276e-08)
(0.000778008 -1.85729e-07 5.57734e-08)
(0.000776615 -2.42532e-07 -4.41787e-08)
(0.000775025 7.4779e-08 4.00966e-08)
(0.000773536 -2.05583e-08 5.70127e-08)
(0.000772287 8.26068e-08 4.72339e-08)
(0.000771269 5.16518e-08 5.02274e-08)
(0.000769705 1.92517e-07 5.96234e-08)
(0.00076801 3.89409e-07 4.82644e-08)
(0.000766553 6.50889e-07 -5.4737e-08)
(0.000766 5.24603e-07 9.5238e-08)
(-0.00759749 0.0140866 0.000180832)
(0.0121063 -0.00159583 0.000241513)
(0.00559259 0.0100303 -8.02922e-05)
(-0.0023904 0.00105559 1.54022e-05)
(0.005681 0.0101558 0.000995359)
(0.00067238 0.00276417 0.000242659)
(0.00139232 0.000482722 5.55815e-06)
(0.000439565 1.71646e-05 2.13466e-07)
(0.000839666 9.33157e-06 -1.69052e-06)
(0.000798615 4.03578e-06 -2.50531e-07)
(0.000814949 2.11731e-06 1.86096e-07)
(0.000815406 9.23256e-07 2.63854e-08)
(0.000816476 2.78521e-07 5.64481e-08)
(0.000816269 2.13341e-07 6.72328e-08)
(0.000815707 1.18961e-07 5.71204e-08)
(0.000814562 4.97999e-08 4.00102e-08)
(0.00081308 1.28887e-07 5.06131e-08)
(0.000811753 1.28188e-07 4.81471e-08)
(0.000810519 1.13095e-07 7.62781e-08)
(0.00080885 -9.11436e-08 4.55748e-08)
(0.000807068 -7.94995e-08 6.40468e-08)
(0.000805513 -3.98796e-08 7.80402e-08)
(0.000804013 3.74074e-08 5.83103e-08)
(0.000802405 -3.59565e-08 4.85435e-08)
(0.000800826 6.84583e-08 5.6696e-08)
(0.000799347 1.20859e-07 1.06948e-08)
(0.000798099 -1.22346e-07 1.59947e-07)
(0.000796545 4.89634e-08 4.70946e-08)
(0.000795025 2.86629e-07 1.16134e-07)
(0.000793723 -6.43497e-08 1.42414e-07)
(0.000792111 -5.17141e-08 1.31911e-07)
(0.000790235 -1.86389e-07 5.48774e-10)
(0.000788774 -4.19895e-07 5.42459e-08)
(0.000787593 -3.96223e-07 2.38081e-08)
(0.0007861 -2.27347e-07 3.66629e-08)
(0.000784778 -7.63426e-08 6.10874e-08)
(0.000783505 -4.68617e-08 1.39195e-08)
(0.000782012 -1.46499e-07 4.89991e-08)
(0.000780716 -5.17081e-07 4.9786e-08)
(0.000779496 -2.73047e-07 5.84044e-08)
(0.00077793 -2.27654e-07 5.79173e-08)
(0.000776795 -3.24841e-07 8.27891e-08)
(0.000775267 -3.60901e-07 2.70705e-08)
(0.000773635 1.72378e-07 2.76463e-08)
(0.000772365 5.03777e-08 5.67299e-08)
(0.000770901 3.29672e-08 4.81123e-08)
(0.000769753 -3.26476e-07 2.49891e-08)
(0.000768709 3.23264e-08 1.04528e-07)
(0.000767157 2.1065e-07 -5.36956e-08)
(0.000764891 3.41683e-07 5.99061e-08)
(0.0108824 0.0170099 0.00677369)
(0.00863499 -0.00110295 -0.000934873)
(0.0193151 -0.00470587 7.00415e-05)
(-0.010093 -0.0057226 -0.00112587)
(0.0152196 -0.0243591 -0.000884503)
(0.0100195 -0.00997442 -0.00121038)
(0.000691708 -0.000904118 -1.25036e-05)
(0.00125469 4.44278e-05 -7.90318e-07)
(0.0014151 -1.98699e-05 3.41305e-07)
(0.0013363 -1.41142e-05 3.38504e-07)
(0.00136313 -7.69208e-06 3.89036e-07)
(0.00136167 -4.59331e-06 3.73231e-07)
(0.00136342 -2.52649e-06 6.47521e-07)
(0.0013626 -1.30251e-06 1.83298e-07)
(0.00136044 -7.83256e-07 3.43244e-07)
(0.00135837 -3.77904e-07 2.67109e-07)
(0.00135621 -3.22511e-07 3.43372e-07)
(0.00135357 -2.92168e-08 3.85862e-07)
(0.00135056 -3.6936e-07 5.1207e-07)
(0.001348 -3.15792e-07 3.35158e-07)
(0.00134576 -1.99676e-07 3.76234e-07)
(0.00134307 1.04054e-07 3.80841e-07)
(0.00134042 4.39928e-08 3.39352e-07)
(0.00133785 3.04047e-07 2.93231e-07)
(0.00133545 6.20966e-07 3.11331e-07)
(0.0013328 6.7877e-07 2.13694e-07)
(0.00133013 5.36001e-07 2.83355e-07)
(0.00132822 1.38848e-07 3.34319e-07)
(0.00132512 1.41974e-07 2.34123e-07)
(0.0013222 -2.91654e-07 3.39127e-07)
(0.00131988 -8.58987e-07 3.6257e-07)
(0.0013169 -8.32157e-07 2.22641e-07)
(0.00131486 -4.45623e-07 4.27178e-07)
(0.00131329 -1.56216e-07 3.62917e-07)
(0.00131105 1.59635e-07 3.18881e-07)
(0.00130839 2.72749e-07 3.61197e-07)
(0.00130552 2.88729e-07 3.34671e-07)
(0.00130272 4.21129e-07 2.69029e-07)
(0.00130123 8.37037e-07 2.82123e-07)
(0.00129945 3.57103e-07 3.62162e-07)
(0.00129668 -2.77865e-08 2.86613e-07)
(0.00129415 -1.37946e-07 3.44058e-07)
(0.00129276 -7.67451e-07 3.04466e-07)
(0.0012901 -7.9296e-07 1.95967e-07)
(0.00128697 -4.14712e-07 3.26986e-07)
(0.00128472 -2.7428e-07 3.64565e-07)
(0.00128277 -8.35015e-09 2.85046e-07)
(0.00128105 -3.04397e-07 3.14247e-07)
(0.00127813 -6.6799e-07 3.016e-07)
(0.00127538 -6.19672e-07 2.07815e-07)
(0.00685195 0.00503186 0.000125772)
(0.0141416 0.00206053 0.00314136)
(-0.00159851 -0.00262148 -0.0281997)
(0.00442919 0.00317477 0.000310234)
(-0.0105494 -0.011496 -0.00321384)
(0.00378494 -0.001335 0.00131593)
(0.00043057 -0.0013053 -0.000159306)
(0.00142293 -5.70791e-05 6.1641e-07)
(0.00147223 -4.24902e-05 4.37487e-07)
(0.00135296 -2.01967e-05 3.395e-07)
(0.00137423 -1.308e-05 3.4399e-07)
(0.0013681 -7.26403e-06 3.42515e-07)
(0.00136657 -4.07123e-06 3.44247e-07)
(0.00136376 -2.53947e-06 3.40061e-07)
(0.00136148 -1.53011e-06 3.40959e-07)
(0.00135882 -8.69812e-07 2.80153e-07)
(0.00135611 -5.45777e-07 3.39516e-07)
(0.0013533 -4.74627e-07 5.26255e-07)
(0.00135087 -3.02939e-08 1.92008e-07)
(0.00134858 9.37418e-08 3.06623e-07)
(0.00134584 2.57e-07 3.4407e-07)
(0.00134307 2.16359e-07 3.74188e-07)
(0.00134059 5.94309e-07 4.73545e-07)
(0.00133839 2.73489e-07 3.51283e-07)
(0.00133545 3.85192e-07 3.36936e-07)
(0.00133243 -5.79978e-08 3.49671e-07)
(0.0013298 -1.41934e-07 3.19816e-07)
(0.00132736 -3.96278e-07 3.32141e-07)
(0.00132482 -1.25253e-06 4.5951e-07)
(0.00132192 -7.61443e-07 2.31247e-08)
(0.00131971 -5.52299e-07 4.81884e-08)
(0.00131777 -1.87341e-07 2.78868e-07)
(0.00131563 9.74808e-07 4.01741e-07)
(0.00131353 9.38566e-07 5.69818e-07)
(0.00131089 3.94842e-07 2.98351e-07)
(0.00130832 2.60299e-07 3.23944e-07)
(0.00130618 2.48546e-07 3.05211e-07)
(0.00130411 5.87732e-07 6.56294e-08)
(0.00130113 9.97524e-07 3.5708e-07)
(0.00129817 6.88864e-07 9.72736e-07)
(0.00129604 2.49044e-07 3.40478e-07)
(0.00129376 3.66831e-09 3.68413e-07)
(0.0012913 -2.51171e-07 3.39229e-07)
(0.0012899 -9.33047e-07 6.35839e-07)
(0.00128801 -2.91412e-07 3.59317e-07)
(0.00128539 -1.26077e-07 3.12473e-07)
(0.00128292 5.13895e-07 3.87455e-07)
(0.00128028 5.50619e-08 2.52368e-07)
(0.00127803 -2.41587e-07 3.4457e-07)
(0.00127636 -3.48873e-07 4.11548e-07)
(0.0142414 -0.00423713 0.00499018)
(-0.00293677 0.0190831 0.00303403)
(-0.00339089 0.0106271 -0.000957137)
(-0.0118593 -0.00320427 0.000440484)
(-0.00642906 5.97693e-05 -0.00640031)
(-0.0296262 0.00295496 -0.00280828)
(-0.0018012 -0.00115487 4.09157e-05)
(0.00134604 -5.14689e-06 7.04897e-06)
(0.00143596 -6.00536e-05 -4.11896e-07)
(0.00137365 -2.00946e-05 3.4107e-07)
(0.00137936 -1.36969e-05 3.44813e-07)
(0.00137297 -7.09149e-06 3.43627e-07)
(0.00136934 -4.45881e-06 3.42551e-07)
(0.00136578 -2.6271e-06 3.42452e-07)
(0.00136254 -1.58724e-06 3.41531e-07)
(0.00135961 -1.08815e-06 3.40519e-07)
(0.00135671 -6.31154e-07 3.39839e-07)
(0.00135422 -3.4099e-07 1.44073e-07)
(0.00135127 -7.63202e-08 3.65723e-07)
(0.00134836 -1.13777e-07 3.29843e-07)
(0.00134591 -7.1875e-08 3.98368e-07)
(0.00134349 -6.46537e-08 3.34995e-07)
(0.00134048 6.05419e-09 3.76734e-07)
(0.00133758 -1.33191e-07 -2.2148e-08)
(0.00133503 -4.81348e-07 3.30581e-07)
(0.00133214 -2.63539e-07 3.72674e-07)
(0.00132971 -1.88463e-07 3.47523e-07)
(0.00132684 -7.47081e-08 3.27855e-07)
(0.00132467 -8.06169e-08 2.52404e-07)
(0.00132308 5.39385e-07 1.99859e-07)
(0.00132061 9.11969e-07 4.44028e-07)
(0.00131881 9.61258e-07 4.70567e-07)
(0.00131626 7.57121e-07 1.98036e-07)
(0.00131256 5.48207e-07 1.43823e-07)
(0.0013102 2.48694e-07 3.68086e-07)
(0.0013082 2.48475e-07 3.37019e-07)
(0.00130593 1.92474e-07 2.81374e-07)
(0.00130365 -3.77875e-08 3.46853e-07)
(0.00130135 -2.49064e-07 3.08874e-07)
(0.00129851 -2.6683e-07 4.06213e-07)
(0.00129582 1.78616e-09 7.57493e-08)
(0.00129352 1.31402e-07 3.3711e-07)
(0.00129159 5.05859e-07 3.33705e-07)
(0.00129005 5.38292e-07 2.83201e-07)
(0.00128798 3.94871e-07 -3.25375e-08)
(0.00128573 4.19319e-07 4.16214e-07)
(0.001283 4.50981e-07 3.86963e-07)
(0.0012801 6.80183e-07 3.50457e-07)
(0.00127763 3.96533e-07 3.33821e-07)
(0.00127611 2.47438e-07 5.27349e-07)
(-0.00537929 0.00719839 -0.0108866)
(0.0500368 -0.00559373 0.016474)
(0.0132122 -0.00513667 0.00589519)
(0.0382844 0.00527464 0.00333114)
(-0.0306292 -0.0439098 -0.00686858)
(0.020191 0.0101916 0.00108255)
(0.00199455 -0.00580015 4.68352e-05)
(0.00119939 -0.000208549 6.331e-05)
(0.00148291 -8.04933e-05 2.85357e-07)
(0.00141078 1.20444e-05 6.29761e-07)
(0.00139052 -5.32681e-06 3.4891e-07)
(0.00137967 -1.53801e-06 3.44648e-07)
(0.00137216 -1.69854e-06 3.43236e-07)
(0.00136735 -1.03072e-06 3.42628e-07)
(0.00136341 -5.98043e-07 3.41157e-07)
(0.00136002 -3.42094e-07 3.40242e-07)
(0.00135705 -2.22611e-07 3.39931e-07)
(0.00135399 -1.19905e-07 3.20804e-07)
(0.00135116 -4.98493e-07 3.86649e-07)
(0.00134859 -6.02289e-07 3.0099e-07)
(0.00134591 -3.92715e-07 3.93258e-07)
(0.00134317 -3.9317e-07 3.39875e-07)
(0.0013405 -5.65235e-07 2.64196e-07)
(0.00133779 -1.5971e-07 3.95722e-07)
(0.00133529 -2.2688e-07 2.70911e-07)
(0.0013328 1.9902e-07 2.82009e-07)
(0.00133003 4.79469e-07 3.96841e-07)
(0.00132749 7.9149e-07 4.05486e-07)
(0.00132559 1.40936e-06 3.10389e-07)
(0.00132316 7.63682e-07 3.10607e-07)
(0.00132023 7.65169e-07 4.13408e-07)
(0.00131757 1.01482e-06 2.75034e-07)
(0.00131511 7.29388e-08 3.21088e-07)
(0.00131289 -7.26191e-08 3.27829e-07)
(0.00131052 1.42326e-07 2.99407e-07)
(0.00130825 7.05307e-08 3.10627e-07)
(0.00130582 -4.99204e-08 3.13991e-07)
(0.00130356 -2.06715e-07 2.55783e-07)
(0.00130085 -5.25498e-07 1.96798e-07)
(0.00129848 -6.53324e-07 1.89822e-07)
(0.00129654 -1.41853e-07 3.2053e-07)
(0.00129439 2.89122e-07 2.83753e-07)
(0.0012918 6.93698e-07 3.48647e-07)
(0.00128975 9.21368e-07 1.28784e-07)
(0.00128786 3.27202e-07 2.80805e-07)
(0.00128546 1.7468e-07 3.2114e-07)
(0.00128325 6.88957e-08 3.73347e-07)
(0.00128021 4.39811e-07 2.97787e-07)
(0.00127748 3.31117e-07 3.55132e-07)
(0.00127556 4.58766e-07 5.24507e-07)
(-0.0164893 0.0131191 -0.00973005)
(-0.00267761 -0.0190817 0.0017753)
(0.00473341 0.0128888 -0.00220623)
(-0.0047966 -0.0144051 -0.0185538)
(-0.00846678 0.0103659 0.00537611)
(5.65648e-05 -0.00264446 0.000491164)
(0.00187651 -0.00251407 1.97816e-05)
(0.000887141 -0.000252458 -2.65358e-05)
(0.00135046 -1.58876e-05 3.70687e-07)
(0.00146637 2.89199e-05 -5.89495e-08)
(0.00136232 5.10758e-06 3.56664e-07)
(0.00137748 3.24216e-06 3.30286e-07)
(0.00136997 1.31567e-06 3.9942e-07)
(0.00136715 5.66845e-07 3.4246e-07)
(0.0013634 2.23192e-07 3.31917e-07)
(0.00136007 1.72963e-07 3.10288e-07)
(0.00135699 1.63459e-07 3.40179e-07)
(0.00135388 5.48454e-09 3.34095e-07)
(0.00135067 3.10407e-07 3.14943e-07)
(0.0013485 5.80573e-07 3.70743e-07)
(0.00134618 7.47266e-08 3.70304e-07)
(0.00134328 2.93883e-07 3.21754e-07)
(0.00134078 2.3831e-07 3.95595e-07)
(0.00133801 1.77834e-07 3.61818e-07)
(0.00133548 2.85621e-07 2.90036e-07)
(0.00133302 -1.35657e-07 3.90338e-07)
(0.00133045 3.15319e-07 3.7656e-07)
(0.00132799 6.07499e-07 3.39311e-07)
(0.00132463 1.02805e-06 4.98985e-07)
(0.00132226 1.2006e-06 3.44958e-07)
(0.00132091 5.13696e-07 -3.70592e-07)
(0.00131793 -1.34829e-07 2.88268e-07)
(0.00131489 2.58958e-07 3.07421e-07)
(0.00131264 1.52555e-07 3.28452e-07)
(0.00131038 2.84491e-07 3.07059e-07)
(0.00130796 5.10801e-10 3.27653e-07)
(0.00130558 -1.20214e-07 2.90895e-07)
(0.00130306 -1.3604e-07 3.24334e-07)
(0.00130079 -2.40065e-07 3.21645e-07)
(0.00129899 -1.47624e-07 -7.14581e-08)
(0.001297 3.92823e-08 4.43757e-07)
(0.00129456 1.13065e-07 4.09243e-07)
(0.00129238 1.31223e-07 3.224e-07)
(0.00128959 4.20402e-07 2.65987e-07)
(0.00128704 -7.55822e-08 3.45788e-07)
(0.0012854 -3.09439e-07 3.20189e-07)
(0.00128333 -8.7221e-07 1.0859e-07)
(0.00128043 -1.36183e-06 2.91841e-07)
(0.00127765 -5.11928e-07 3.30295e-07)
(0.00127513 5.54081e-08 3.24963e-07)
(-0.00472025 -0.00650676 -0.00240549)
(-0.00186226 -0.0131678 0.000142827)
(0.00522096 -0.0080215 0.0386066)
(0.0164424 -0.00745088 -0.0369566)
(0.00626039 0.00638509 0.00122925)
(0.000876363 -0.00534301 -0.00176719)
(0.00388936 0.00072858 2.18029e-05)
(0.000736063 0.000108164 -5.06485e-05)
(0.00146804 -1.73234e-05 1.73402e-06)
(0.00145066 -1.38581e-05 2.60806e-07)
(0.00135791 4.1718e-06 3.00121e-07)
(0.00137489 1.59173e-06 3.25343e-07)
(0.0013688 1.86366e-06 3.97736e-07)
(0.00136597 1.2001e-06 3.42704e-07)
(0.00136291 7.28595e-07 5.0928e-07)
(0.00135994 4.51544e-07 3.3896e-07)
(0.00135684 3.16283e-07 3.4037e-07)
(0.00135418 3.26298e-07 3.74572e-07)
(0.00135188 4.32891e-07 3.18112e-07)
(0.00134829 9.19945e-07 3.55759e-07)
(0.00134555 7.19159e-07 4.51955e-07)
(0.00134338 5.15373e-07 8.50878e-07)
(0.00134036 3.91845e-07 4.59286e-07)