/*--------------------------------*- C++ -*----------------------------------*\
| =========                 |                                                 |
| \\      /  F ield         | OpenFOAM: The Open Source CFD Toolbox           |
|  \\    /   O peration     | Version:  5.0                                   |
|   \\  /    A nd           | Web:      www.OpenFOAM.org                      |
|    \\/     M anipulation  |                                                 |
\*---------------------------------------------------------------------------*/
FoamFile
{
    version     2.0;
    format      ascii;
    class       volVectorField;
    location    "4.5";
    object      U_0;
}
// * * * * * * * * * * * * * * * * * * * * * * * * * * * * * * * * * * * * * //

dimensions      [0 1 -1 0 0 0 0];

internalField   nonuniform List<vector> 
8717
(
(0.00104613 -0.00243573 0.000346806)
(0.00512911 0.0023596 6.07144e-05)
(0.00676016 -0.00967045 -0.000536505)
(0.000119187 -0.00439041 4.46533e-05)
(0.00823917 -0.00858927 -0.000332561)
(0.00240376 -0.00466651 1.87448e-05)
(0.000980001 -0.000156091 8.37741e-06)
(0.000474159 2.24166e-05 -2.42299e-07)
(0.000898156 3.14901e-06 -1.60334e-06)
(0.000833192 9.2072e-07 -4.06643e-07)
(0.000838505 1.14684e-06 2.0395e-07)
(0.000830984 7.67265e-07 5.74235e-08)
(0.000827999 7.67809e-07 1.00806e-08)
(0.000824828 7.26275e-07 8.52768e-08)
(0.000821898 4.92404e-07 5.06189e-08)
(0.000819697 3.75537e-07 1.41207e-08)
(0.00081775 1.03125e-07 5.12744e-08)
(0.000815867 2.89655e-08 7.29968e-08)
(0.000814021 -3.90955e-08 6.03577e-08)
(0.000812391 -1.99206e-07 9.75447e-08)
(0.000811066 -1.46614e-07 6.7206e-08)
(0.000809383 6.22864e-08 6.43458e-08)
(0.000807708 1.54579e-07 1.3123e-08)
(0.000806182 1.28032e-07 4.76973e-08)
(0.000804544 6.2599e-08 6.0832e-08)
(0.000803051 2.09311e-07 3.04478e-08)
(0.000801617 1.41045e-07 4.95603e-08)
(0.000800189 6.18525e-08 4.98084e-08)
(0.000798439 1.48263e-07 4.52015e-08)
(0.000796748 -1.79083e-07 1.56567e-07)
(0.000795352 -6.58499e-07 -5.64235e-08)
(0.000793609 -5.35083e-07 -1.87546e-08)
(0.000792086 -3.4977e-07 9.79972e-08)
(0.000791221 1.67228e-08 1.2973e-07)
(0.000789877 2.37484e-07 4.03748e-08)
(0.000788136 1.61734e-07 6.58641e-08)
(0.000786395 1.54716e-07 1.4443e-07)
(0.000784696 1.29508e-07 2.53021e-08)
(0.000783302 3.72627e-07 -5.99435e-08)
(0.000782201 4.35392e-07 7.97134e-08)
(0.000780967 4.42589e-08 3.04467e-08)
(0.000779372 -5.44452e-08 6.76817e-08)
(0.000777997 -4.05729e-07 -1.02645e-08)
(0.000776549 -3.78119e-07 2.2784e-07)
(0.000775083 -2.39397e-07 3.76663e-08)
(0.000773507 -2.03582e-07 5.85347e-08)
(0.000772115 -2.84929e-07 6.27935e-08)
(0.000770826 -5.16017e-07 4.15498e-08)
(0.000769215 -3.57297e-07 3.26401e-08)
(0.000767535 -2.38191e-07 7.45904e-08)
(-0.00135101 0.000872849 0.000175732)
(0.000215887 0.000766477 -0.000289265)
(0.000896167 -0.00491187 0.000403071)
(0.0050146 0.000824949 -6.11644e-05)
(0.000936065 -0.00566137 -0.000823331)
(-0.0161313 0.00578154 -0.000377526)
(0.00174945 0.000387186 3.87351e-05)
(0.000505825 1.23445e-05 -1.40679e-06)
(0.000911879 1.30731e-05 -1.40125e-06)
(0.000831562 1.16217e-05 -5.61636e-07)
(0.000838037 6.76463e-06 1.44181e-07)
(0.000830419 4.67686e-06 2.35008e-08)
(0.000827078 3.06526e-06 3.53242e-08)
(0.000823846 1.84908e-06 4.06113e-08)
(0.000821516 1.18672e-06 4.95618e-08)
(0.000819329 8.25351e-07 7.00287e-08)
(0.000817367 5.99916e-07 6.37454e-08)
(0.000815723 5.59213e-07 4.56022e-08)
(0.000814144 5.34153e-07 1.01755e-07)
(0.000812533 3.71388e-07 2.83367e-08)
(0.000810879 2.93962e-07 6.91618e-08)
(0.000809438 8.68854e-08 6.12726e-08)
(0.000807813 1.51202e-07 7.06997e-08)
(0.000806117 1.03858e-07 3.22622e-08)
(0.000804636 2.64221e-07 3.90932e-08)
(0.000803057 6.11e-08 1.6953e-07)
(0.000801428 -6.75409e-08 3.81575e-08)
(0.000799988 -2.12098e-07 4.45389e-08)
(0.000798312 -7.11191e-07 -4.38354e-08)
(0.000796312 -5.67904e-07 7.74314e-08)
(0.000795047 -4.62452e-07 1.32948e-07)
(0.000794117 -2.74913e-07 5.12515e-08)
(0.000792808 3.36053e-07 1.79998e-07)
(0.000791383 5.79864e-07 2.68252e-07)
(0.000789552 3.55481e-08 4.33435e-08)
(0.000787834 7.25147e-08 3.10994e-08)
(0.000786611 5.9648e-08 4.15336e-08)
(0.000785251 1.78718e-07 5.49044e-08)
(0.000783672 3.4626e-07 2.33381e-08)
(0.000781911 4.78361e-07 6.64535e-08)
(0.000780354 2.12528e-07 5.82073e-08)
(0.000778988 -3.17104e-08 7.61409e-08)
(0.00077765 -2.06348e-07 8.22751e-08)
(0.000776512 -2.10515e-07 5.23135e-08)
(0.000775123 -9.54087e-08 5.61416e-08)
(0.00077362 -1.29391e-07 4.2742e-08)
(0.000772181 6.11769e-08 8.6993e-08)
(0.000770836 -1.12709e-07 4.34981e-08)
(0.000769156 -2.64304e-07 5.87298e-08)
(0.000768037 -2.28676e-07 2.50813e-08)
(0.00808488 -0.00651319 -0.000395348)
(-9.97353e-05 0.00176295 0.000300798)
(0.000500928 0.013394 -0.000511774)
(0.00191175 0.0089919 0.000861586)
(0.000763057 0.00297401 -0.000786315)
(0.00330012 0.00193992 -6.34058e-05)
(0.000193813 -0.000497577 3.17417e-05)
(0.000252601 1.97049e-05 3.71344e-07)
(0.000863704 1.16432e-05 -2.50939e-06)
(0.000825509 1.675e-05 -1.42416e-07)
(0.000829824 9.46666e-06 1.31084e-07)
(0.000826361 6.62881e-06 5.73167e-08)
(0.000824463 3.99532e-06 5.74448e-08)
(0.000822479 2.53343e-06 5.49923e-08)
(0.000820618 1.61017e-06 5.50871e-08)
(0.000818963 9.68711e-07 5.51633e-08)
(0.000817418 6.66432e-07 5.4494e-08)
(0.000815785 4.55922e-07 3.95994e-08)
(0.000813786 2.72192e-07 1.0042e-07)
(0.00081209 2.00426e-07 4.38833e-08)
(0.00081071 1.03777e-07 1.3421e-08)
(0.000809203 7.03226e-08 4.97798e-08)
(0.000807728 -1.18761e-07 6.74765e-08)
(0.000806321 -1.64393e-07 5.97801e-08)
(0.000804489 -3.34696e-07 2.6249e-08)
(0.000802635 -1.72022e-07 2.6061e-08)
(0.000801276 -1.63806e-07 6.468e-08)
(0.000799388 -9.35792e-08 6.9735e-08)
(0.000797999 -2.82399e-09 7.72016e-08)
(0.000797065 3.75558e-07 1.17863e-07)
(0.000795722 6.99284e-07 1.00194e-07)
(0.000794608 6.22758e-07 6.22474e-08)
(0.000793153 3.01615e-07 2.84274e-07)
(0.000790842 1.48539e-07 1.22855e-07)
(0.00078924 -1.10081e-07 1.11277e-07)
(0.000788165 7.23944e-08 5.27178e-08)
(0.000786526 8.98168e-08 5.25451e-08)
(0.000785051 4.20688e-09 4.67982e-08)
(0.000783673 9.73254e-08 4.771e-08)
(0.00078203 -2.97349e-08 9.54961e-08)
(0.000780327 4.02504e-08 6.88327e-08)
(0.000778849 7.36567e-08 3.99824e-08)
(0.000777776 1.27526e-07 1.77893e-07)
(0.00077669 2.46952e-07 7.29288e-08)
(0.000775188 1.80759e-07 7.1708e-08)
(0.000773703 1.67075e-07 5.35448e-08)
(0.000772137 2.90575e-07 1.56356e-07)
(0.000770419 1.38101e-07 7.60861e-08)
(0.000769076 1.85762e-08 6.11597e-08)
(0.000768149 7.62373e-08 7.06234e-08)
(0.0157308 0.00807799 0.00114959)
(0.0227274 0.021299 -9.21482e-05)
(-0.0314639 -0.00314699 0.000987666)
(0.0159044 0.00814416 0.00053711)
(0.00881379 -0.0039946 -0.000499263)
(-0.0140739 -0.00326213 -0.000284629)
(0.000784872 -0.00189223 5.85725e-06)
(0.000471053 -0.00014849 4.1379e-05)
(0.000861668 -1.02959e-05 -2.08937e-06)
(0.000828712 2.87064e-05 -2.67238e-07)
(0.000825358 1.01478e-05 3.45827e-08)
(0.000823566 7.38674e-06 3.95288e-08)
(0.000821949 4.09396e-06 5.06088e-08)
(0.000820859 2.58458e-06 5.48795e-08)
(0.000819556 1.70482e-06 5.19363e-08)
(0.000818148 1.10145e-06 5.25644e-08)
(0.000816725 5.85881e-07 5.15424e-08)
(0.00081523 1.91782e-07 9.85062e-08)
(0.000813825 -6.11037e-08 3.77877e-08)
(0.000812323 6.196e-08 3.01054e-08)
(0.000810717 2.09487e-08 -4.55653e-09)
(0.000809161 -2.65641e-08 5.20999e-08)
(0.000807521 -6.06745e-08 4.42497e-08)
(0.000805849 -6.66008e-08 9.35e-08)
(0.000804628 -1.9578e-07 9.94116e-08)
(0.000803273 1.1063e-07 2.9549e-08)
(0.000801527 2.43313e-07 6.16774e-08)
(0.000800189 3.24696e-07 7.79711e-08)
(0.000798896 9.27299e-07 6.30556e-08)
(0.000797186 7.42005e-07 2.53437e-08)
(0.00079535 7.67824e-07 6.81928e-09)
(0.000793615 7.07574e-07 -3.5235e-08)
(0.000792211 1.86928e-07 4.71011e-08)
(0.000790867 -9.12481e-08 4.9839e-08)
(0.000789456 1.77072e-07 -1.4348e-08)
(0.000788084 4.70982e-08 4.68822e-08)
(0.000786526 -8.52741e-10 8.93976e-08)
(0.00078526 -5.22217e-08 4.77196e-08)
(0.00078363 -3.5597e-07 -5.09066e-09)
(0.00078184 -2.32439e-07 -3.5686e-08)
(0.000780483 1.2566e-09 -2.31187e-08)
(0.000779095 3.08907e-07 2.27974e-07)
(0.000777864 6.25344e-07 1.11531e-07)
(0.000776575 3.00387e-07 6.5598e-08)
(0.00077502 8.3464e-09 2.37848e-08)
(0.000773754 -4.39328e-09 3.97148e-08)
(0.000772141 -6.88121e-08 8.47848e-08)
(0.000770494 4.37659e-08 1.44585e-08)
(0.000769075 2.42381e-07 4.49789e-08)
(0.000767919 2.1231e-07 5.17468e-08)
(0.0052049 -0.003585 -0.00160125)
(-0.0101069 -0.0107339 -0.000441184)
(0.00473247 -0.0279338 0.00216626)
(-0.0173721 -0.00527926 -0.00191607)
(0.0204693 -0.00350845 0.00100981)
(0.0105836 -0.010056 -0.000271322)
(0.000918801 -0.000711374 -1.10729e-05)
(0.00114819 -2.55191e-05 1.70872e-06)
(0.000423389 6.94537e-06 -1.61261e-06)
(0.00085486 2.34815e-05 -1.56305e-06)
(0.000803115 7.09395e-06 -3.89095e-07)
(0.000818763 4.57931e-06 1.72198e-07)
(0.00081844 2.53462e-06 9.63805e-08)
(0.000819482 1.3881e-06 6.34042e-08)
(0.000818757 6.77983e-07 5.20202e-08)
(0.00081756 3.71543e-07 4.48064e-08)
(0.000816277 2.81216e-07 5.2687e-08)
(0.000814975 1.23476e-07 5.42824e-08)
(0.000813624 1.70987e-07 6.97125e-08)
(0.000812193 6.04026e-08 9.2508e-08)
(0.0008106 -3.50709e-09 6.42827e-08)
(0.000809103 1.25336e-07 7.59013e-08)
(0.000807679 1.21134e-07 4.54515e-08)
(0.000806155 1.68528e-07 9.50897e-08)
(0.000804711 3.0076e-07 1.67866e-07)
(0.000803184 7.98465e-08 4.94203e-08)
(0.000801541 1.54107e-07 6.41554e-08)
(0.000800238 1.85441e-07 3.34049e-08)
(0.000798514 6.95536e-08 6.5378e-09)
(0.000796857 4.40969e-08 8.44827e-08)
(0.000795672 2.37627e-08 5.64726e-08)
(0.000793876 -1.3834e-07 3.68954e-08)
(0.000792151 1.46867e-07 4.79076e-08)
(0.000790829 6.04092e-08 5.11756e-08)
(0.000789413 1.58116e-07 5.68558e-08)
(0.000787942 -3.02087e-08 4.67234e-08)
(0.000786402 -6.99126e-08 8.59011e-09)
(0.000784609 -9.18517e-08 7.0663e-08)
(0.00078345 -2.2118e-07 1.14591e-07)
(0.000782478 -9.11194e-08 4.12566e-08)
(0.000781005 5.81362e-08 3.50898e-08)
(0.000779626 1.53717e-07 1.07148e-07)
(0.000777761 2.10762e-07 3.09718e-08)
(0.000775916 6.66179e-08 9.23992e-09)
(0.000774805 -6.78575e-08 5.83115e-08)
(0.000773606 -1.90535e-07 4.74283e-08)
(0.000772197 -4.55199e-07 -4.04839e-08)
(0.000770808 -3.64205e-07 1.79326e-09)
(0.000769281 -2.31797e-07 1.11092e-07)
(0.000767583 9.29206e-08 8.77691e-08)
(0.00298945 -0.000498283 -0.000501973)
(-0.000362751 -0.0118254 0.000333439)
(-0.00625639 0.011576 -0.000489017)
(0.0149293 0.00489311 -0.00200776)
(0.00319022 0.00106717 -0.000664844)
(-0.00632588 -0.00169375 -4.51304e-05)
(0.0013863 -0.000254638 -6.14251e-06)
(0.00140161 -1.80995e-05 4.69919e-06)
(0.000464431 -9.18814e-06 8.16405e-07)
(0.000847849 -1.77244e-05 -1.36342e-06)
(0.000801452 -3.29883e-06 -3.54836e-07)
(0.000817836 -2.62156e-06 1.60228e-07)
(0.000817942 -1.03537e-06 5.72729e-08)
(0.000818529 -6.70934e-07 5.91377e-08)
(0.000818281 -5.43847e-07 7.78906e-08)
(0.00081765 -4.18926e-07 6.94326e-08)
(0.000816414 -2.24513e-07 5.47491e-08)
(0.000815092 -4.87655e-08 7.35773e-08)
(0.000813746 -7.38982e-08 8.72222e-08)
(0.000812104 6.57367e-08 5.03569e-08)
(0.000810797 1.87391e-07 -1.51239e-07)
(0.000809316 1.84317e-07 6.05322e-08)
(0.000807574 2.02724e-07 6.26916e-08)
(0.000806072 1.74023e-07 6.77724e-08)
(0.000804516 1.81258e-07 6.84846e-08)
(0.000803088 7.90526e-08 3.67565e-08)
(0.000801658 -8.68796e-09 1.53266e-07)
(0.000800081 -9.15663e-08 9.54838e-08)
(0.000798717 -1.34745e-07 6.24257e-08)
(0.000797127 -2.61018e-07 -4.75823e-08)
(0.000795121 -5.2319e-07 -1.10345e-08)
(0.000793767 -3.85313e-07 1.50923e-07)
(0.000792459 -2.62714e-07 1.7442e-08)
(0.000790878 -1.275e-07 7.36767e-08)
(0.000789341 -1.2756e-07 -6.0244e-08)
(0.000787798 -1.14275e-08 4.58309e-08)
(0.00078645 -3.81135e-08 -8.33376e-09)
(0.000785072 7.50552e-08 5.1352e-08)
(0.000783633 3.25626e-07 1.07754e-07)
(0.00078219 1.19587e-07 6.62395e-08)
(0.000780789 3.70624e-08 5.20711e-08)
(0.000779286 -1.16991e-07 3.20118e-08)
(0.000777755 -3.144e-07 5.02867e-08)
(0.000776227 -1.3183e-07 6.116e-08)
(0.0007747 -3.26376e-08 4.01035e-08)
(0.000773274 -1.7843e-07 4.72144e-08)
(0.000771929 -4.71929e-07 -3.44516e-07)
(0.000770777 -5.20243e-07 5.20613e-08)
(0.000769648 -4.61203e-07 9.66728e-08)
(0.000768092 -1.81522e-07 1.82486e-07)
(-0.00305033 0.00331518 0.000514016)
(-0.00730345 -0.00491787 -0.000222203)
(0.00186277 -0.00215185 -0.000205904)
(-0.00142093 -0.0134042 -0.000510394)
(-0.000619301 -0.00133596 2.92323e-06)
(-0.00402519 -0.00165662 -0.000172803)
(3.56094e-05 -0.000269186 -1.83429e-05)
(0.000836274 4.22487e-05 9.27523e-07)
(0.000856343 1.02042e-05 -2.20947e-06)
(0.000821101 -2.61299e-05 -2.54411e-07)
(0.000822152 -8.66443e-06 3.31506e-08)
(0.000821599 -6.19672e-06 3.09569e-08)
(0.000820882 -3.58016e-06 4.4967e-08)
(0.000820097 -2.13718e-06 5.25941e-08)
(0.000819073 -1.19155e-06 5.62441e-08)
(0.00081796 -6.92269e-07 5.61039e-08)
(0.000816741 -3.80431e-07 5.15303e-08)
(0.000815163 -1.35769e-07 4.13613e-08)
(0.000813766 -1.81307e-08 8.43662e-08)
(0.000812519 -1.0122e-07 6.07533e-08)
(0.000810746 9.20976e-08 2.89346e-08)
(0.00080912 -1.2351e-08 4.68805e-08)
(0.000807664 8.86495e-08 -3.58686e-08)
(0.000806126 6.48512e-08 4.61511e-08)
(0.000804591 1.71382e-07 4.59035e-09)
(0.000802946 1.76342e-07 1.93015e-07)
(0.000801328 -4.0551e-08 5.29792e-08)
(0.000800081 -1.09126e-07 6.91492e-08)
(0.000798304 -4.02251e-07 2.78648e-08)
(0.000796375 -6.24832e-07 4.90787e-08)
(0.00079552 -3.11432e-07 1.57793e-07)
(0.000794206 -1.24835e-07 8.79716e-08)
(0.000792476 -1.42785e-07 3.99053e-08)
(0.000791 -7.73012e-08 3.46295e-08)
(0.000789559 -6.22773e-08 9.71096e-08)
(0.000788054 5.9161e-08 1.77208e-07)
(0.00078651 1.38153e-07 5.0653e-08)
(0.000785063 1.37789e-07 5.00617e-08)
(0.000783505 1.58349e-07 5.18989e-08)
(0.000782117 2.60913e-07 1.83892e-08)
(0.000780709 1.16482e-07 1.28507e-07)
(0.000779188 4.4326e-08 -2.46478e-09)
(0.000777744 -1.65273e-08 6.61917e-08)
(0.00077627 -4.95054e-08 -3.93494e-08)
(0.000774748 -1.31476e-09 1.38861e-09)
(0.00077306 3.86052e-08 4.89975e-08)
(0.000771774 -1.34372e-09 1.30202e-08)
(0.000770826 -2.90447e-07 6.82045e-08)
(0.000769713 -2.13835e-07 2.04354e-08)
(0.000768385 -2.97131e-07 7.19817e-08)
(0.00580359 0.00361761 0.000202955)
(0.00328909 -0.00474242 -0.000102696)
(-0.00398298 -0.00621308 -0.000324456)
(0.00860264 0.00184522 -0.000979887)
(0.0069504 -0.000689872 0.000393334)
(0.00164261 -0.000200449 -0.000650044)
(0.00266297 0.000754698 0.00019318)
(0.000469278 5.04252e-05 3.31192e-05)
(0.00086076 -1.69576e-05 -1.92286e-06)
(0.000819984 -1.70651e-05 -1.00354e-07)
(0.00082641 -9.85292e-06 1.25332e-07)
(0.000824204 -6.68062e-06 5.35036e-08)
(0.000823026 -4.21011e-06 5.6853e-08)
(0.000821519 -2.7065e-06 5.24213e-08)
(0.000820089 -1.68815e-06 5.08924e-08)
(0.000818664 -1.03357e-06 5.21582e-08)
(0.000817109 -7.65029e-07 1.03571e-07)
(0.000815544 -5.2929e-07 5.26011e-08)
(0.000813788 -2.44271e-07 9.26263e-08)
(0.000812241 -2.21842e-07 7.61886e-08)
(0.000810908 -2.47741e-07 5.01018e-08)
(0.000809311 -1.12968e-07 4.57892e-08)
(0.00080767 -2.45771e-07 5.20755e-08)
(0.000806175 -1.75914e-07 4.97113e-08)
(0.000804654 -4.13203e-07 7.46446e-08)
(0.000802822 -3.12896e-07 1.12781e-08)
(0.000801301 -1.04954e-07 3.39938e-08)
(0.000799633 1.1237e-08 4.73154e-08)
(0.000798078 -1.43354e-07 5.50204e-08)
(0.000797246 3.38177e-07 5.33969e-08)
(0.00079575 5.04387e-07 1.0495e-07)
(0.000793981 1.92277e-07 1.71968e-07)
(0.00079252 2.08255e-07 5.69959e-08)
(0.00079098 1.17749e-07 4.9989e-08)
(0.000789513 7.85236e-08 4.45161e-08)
(0.000788049 -6.74895e-08 6.27481e-08)
(0.000786547 -1.0218e-07 5.71041e-08)
(0.000785097 -9.51317e-08 5.86156e-08)
(0.000783785 1.21267e-07 4.18949e-08)
(0.000782137 1.89594e-07 3.5844e-08)
(0.000780517 2.28045e-08 4.6116e-08)
(0.000779119 9.73866e-08 4.85536e-08)
(0.000777638 3.28089e-08 5.44714e-08)
(0.000776247 3.03117e-08 3.39291e-08)
(0.000774811 5.13765e-08 5.75322e-08)
(0.000773274 1.54115e-07 4.62746e-08)
(0.000771518 4.81606e-07 5.63243e-08)
(0.000770513 6.11342e-07 7.20228e-08)
(0.000769649 1.42792e-07 4.29675e-08)
(0.000768731 -4.50682e-08 -7.17488e-08)
(0.00165588 -0.0174046 0.000277413)
(-0.00455012 -0.000202338 -3.79148e-05)
(0.00230209 -0.00476873 -0.00152148)
(-0.0109525 -0.0131892 0.00140099)
(0.00129897 -0.0116649 -0.000149032)
(0.00274011 -0.00532477 -6.52425e-05)
(0.000295875 0.000190034 2.64057e-05)
(0.000485777 -2.96525e-05 5.1104e-07)
(0.00089666 -2.0252e-05 -1.73133e-06)
(0.000829959 -1.51845e-05 -4.99992e-07)
(0.000835139 -9.04314e-06 1.20133e-07)
(0.000828658 -5.77864e-06 1.39539e-08)
(0.000825856 -3.71759e-06 4.57451e-08)
(0.000823253 -2.51062e-06 5.03412e-08)
(0.000821167 -1.589e-06 4.99121e-08)
(0.000819115 -1.02352e-06 1.12513e-07)
(0.000817372 -6.70343e-07 9.71952e-08)
(0.000815815 -4.72594e-07 6.25432e-08)
(0.000814151 -3.85953e-07 5.00114e-08)
(0.000812515 3.95985e-08 2.70372e-08)
(0.000810883 -4.57532e-08 4.94069e-08)
(0.000809124 -2.45594e-07 6.96384e-08)
(0.000807587 -2.45601e-07 2.69137e-08)
(0.000805919 -1.97019e-07 5.37599e-08)
(0.000804423 -2.00045e-07 3.00764e-08)
(0.000803334 -2.93477e-07 -1.02425e-08)
(0.000801735 -9.07945e-08 1.6756e-07)
(0.000800034 -4.45882e-08 4.7624e-08)
(0.000798712 1.87259e-07 9.6199e-08)
(0.000797183 3.8426e-07 4.95348e-08)
(0.000795335 2.46885e-07 2.05161e-08)
(0.000793833 1.755e-07 6.26683e-08)
(0.000792381 4.40736e-08 6.18181e-08)
(0.000790837 -1.48369e-07 5.30293e-08)
(0.000789327 -2.23242e-07 2.80016e-08)
(0.000787829 -2.6308e-07 1.13628e-08)
(0.000786477 -3.12772e-07 -8.17431e-08)
(0.000785343 -1.79651e-07 5.03038e-08)
(0.00078386 -4.07121e-07 8.31848e-08)
(0.000781993 -5.75451e-07 3.51258e-08)
(0.000780593 -2.59127e-07 4.89542e-08)
(0.0007792 -2.17255e-07 6.62937e-08)
(0.00077766 8.39678e-08 4.23334e-08)
(0.000776293 1.14055e-07 5.04168e-08)
(0.000774903 1.2781e-07 6.01994e-08)
(0.000773596 1.88436e-07 2.89116e-09)
(0.000772342 4.50897e-07 2.72576e-08)
(0.000770399 1.03257e-06 2.28782e-08)
(0.000768892 7.84353e-07 -9.02472e-08)
(0.00076826 3.66164e-07 9.2015e-08)
(-0.00835374 0.0146798 0.000320813)
(0.0125621 -0.00151277 -7.80424e-05)
(0.00666637 0.000801912 0.000338674)
(-0.00481748 0.00125278 0.000452447)
(0.00598141 0.00880821 0.000224397)
(0.000127886 0.00364787 0.00019395)
(0.00142918 0.000462179 6.22348e-06)
(0.000501175 -1.25523e-05 5.07886e-07)
(0.000896551 -6.18609e-06 -1.75408e-06)
(0.000834008 -5.43538e-06 -2.91138e-07)
(0.00083819 -3.76148e-06 1.83661e-07)
(0.000830874 -2.76146e-06 3.91107e-08)
(0.00082712 -1.91374e-06 6.22312e-08)
(0.000824186 -1.05623e-06 6.06543e-08)
(0.000821953 -6.5955e-07 4.85541e-08)
(0.000819815 -4.74296e-07 7.46897e-08)
(0.0008178 -1.96255e-07 4.96079e-08)
(0.0008159 -1.72938e-07 8.47456e-08)
(0.000814429 -1.5488e-07 7.56829e-08)
(0.000812666 -2.77243e-07 8.62245e-08)
(0.000810552 -2.54561e-07 5.50093e-08)
(0.000809063 -1.3167e-07 5.99476e-08)
(0.000807733 -4.74814e-08 5.84913e-08)
(0.000806234 -3.53665e-08 4.91772e-08)
(0.000804536 1.63504e-07 6.69877e-08)
(0.000802962 6.21135e-08 4.06674e-08)
(0.000801615 -6.21301e-08 7.31134e-08)
(0.00079998 -3.22686e-08 4.53814e-08)
(0.000798612 6.19907e-08 -8.04458e-08)
(0.000797318 -2.5126e-07 5.44511e-08)
(0.000795487 -2.8657e-07 8.532e-08)
(0.000793726 -2.39625e-07 2.2959e-08)
(0.000792115 -4.68522e-07 -1.54062e-07)
(0.000790648 -4.78865e-07 4.3319e-08)
(0.000789371 -1.63583e-07 4.31716e-08)
(0.000787939 -4.06959e-08 6.56254e-08)
(0.000786654 8.14984e-08 8.75647e-08)
(0.000784981 -1.0642e-07 4.66974e-08)
(0.000783293 -4.37183e-07 -1.44695e-10)
(0.000782325 -5.55104e-07 6.41765e-08)
(0.000780968 -2.73651e-07 6.33529e-08)
(0.000779549 -2.57592e-07 2.42546e-08)
(0.000778053 -1.37405e-07 6.06557e-08)
(0.000776301 1.16465e-08 2.95425e-08)
(0.000774903 6.83234e-08 -2.92609e-08)
(0.000773675 1.58099e-07 5.44192e-08)
(0.000772568 -2.04167e-09 1.77191e-08)
(0.000770923 -2.21554e-08 2.30601e-08)
(0.000768801 3.40335e-07 -3.93386e-08)
(0.000767295 2.42956e-07 6.74156e-08)
(0.0105924 0.0162911 0.00646975)
(0.00907578 -0.000104908 -0.000926281)
(0.0198674 -0.00545437 0.000102451)
(-0.0110477 -0.00822042 -0.000685105)
(0.0125154 -0.0206283 -0.00124651)
(0.0109586 -0.00994643 -0.0014641)
(0.00104799 -0.000990296 -1.08716e-05)
(0.00141511 5.87994e-05 -7.6292e-07)
(0.00149273 1.69135e-06 3.51603e-07)
(0.00138507 -5.23418e-07 3.5729e-07)
(0.00139449 6.88701e-07 3.91752e-07)
(0.00138255 5.10834e-07 3.631e-07)
(0.00137799 7.60438e-07 3.22175e-07)
(0.00137294 8.97079e-07 3.69606e-07)
(0.00136819 6.21123e-07 3.48315e-07)
(0.00136461 4.82494e-07 2.62251e-07)
(0.00136142 1.05894e-07 3.43664e-07)
(0.00135835 3.36692e-08 2.9832e-07)
(0.00135525 -8.04209e-08 3.29296e-07)
(0.00135252 -3.33484e-07 3.50681e-07)
(0.00135031 -2.04679e-07 4.79695e-07)
(0.00134747 1.62503e-07 3.83997e-07)
(0.00134466 3.12673e-07 2.52069e-07)
(0.00134213 2.70064e-07 2.93281e-07)
(0.00133944 2.36651e-07 3.5317e-07)
(0.00133692 4.71291e-07 2.63874e-07)
(0.00133451 3.04398e-07 2.69208e-07)
(0.0013322 1.0985e-07 3.38722e-07)
(0.00132923 2.23026e-07 3.4008e-07)
(0.00132633 -3.58516e-07 4.69919e-07)
(0.00132399 -1.13665e-06 2.47417e-07)
(0.00132108 -9.26633e-07 1.00511e-07)
(0.00131859 -5.76144e-07 4.08334e-07)
(0.00131713 1.56115e-08 5.25341e-07)
(0.00131488 3.99435e-07 3.252e-07)
(0.00131198 3.07491e-07 3.30566e-07)
(0.00130903 2.72893e-07 4.68134e-07)
(0.00130613 2.76226e-07 2.80858e-07)
(0.00130393 7.21805e-07 1.0254e-07)
(0.00130215 7.34348e-07 3.51393e-07)
(0.00129995 9.1186e-08 2.88842e-07)
(0.00129726 -7.13414e-08 3.27882e-07)
(0.00129512 -6.83953e-07 2.39875e-07)
(0.00129263 -6.01455e-07 6.99842e-07)
(0.00129008 -4.08041e-07 3.36456e-07)
(0.0012875 -3.64801e-07 3.20501e-07)
(0.00128516 -4.15938e-07 3.01122e-07)
(0.00128308 -7.88313e-07 3.08447e-07)
(0.00128034 -5.82043e-07 3.03477e-07)
(0.0012775 -4.2354e-07 3.59105e-07)
(0.00668313 0.00490544 0.000136878)
(0.0124399 0.00143962 0.00306089)
(-0.0022189 -0.00286498 -0.0223021)
(0.00483978 0.00222431 0.000354539)
(-0.0106594 -0.0120895 -0.00316272)
(0.00326022 -0.00196531 0.00145933)
(0.00057124 -0.00111857 -0.00015509)
(0.0015166 3.06836e-05 1.07338e-07)
(0.00151853 1.76556e-05 4.39387e-07)
(0.00138412 1.66156e-05 3.48318e-07)
(0.00139476 9.51193e-06 3.48719e-07)
(0.00138223 6.67643e-06 3.44902e-07)
(0.00137681 4.39606e-06 3.45179e-07)
(0.00137155 2.60282e-06 3.42248e-07)
(0.0013677 1.6639e-06 3.42052e-07)
(0.00136413 1.14671e-06 3.14812e-07)
(0.00136091 8.19523e-07 3.18714e-07)
(0.00135813 7.27883e-07 1.50956e-07)
(0.00135545 7.20471e-07 4.29211e-07)
(0.00135276 5.34611e-07 3.04978e-07)
(0.00135004 4.44804e-07 1.65977e-07)
(0.0013476 1.24813e-07 3.74005e-07)
(0.00134487 2.94906e-07 3.50434e-07)
(0.00134211 2.27836e-07 2.93126e-07)
(0.00133961 4.94362e-07 2.61002e-07)
(0.00133686 1.40275e-07 5.29753e-07)
(0.00133412 -6.42646e-08 3.10932e-07)
(0.00133172 -3.56982e-07 3.31413e-07)
(0.00132894 -1.23438e-06 1.34798e-07)
(0.00132567 -9.52133e-07 2.86442e-07)
(0.00132357 -7.57973e-07 3.66882e-07)
(0.00132196 -4.56393e-07 3.07718e-07)
(0.00131977 6.33726e-07 6.11305e-07)
(0.00131741 9.83877e-07 8.71542e-07)
(0.00131439 1.19751e-07 3.29594e-07)
(0.00131152 1.43314e-07 3.1624e-07)
(0.00130943 1.33715e-07 3.10669e-07)
(0.0013072 3.71303e-07 3.76189e-07)
(0.00130448 7.14565e-07 3.24354e-07)
(0.00130149 8.34448e-07 3.14117e-07)
(0.00129893 3.53239e-07 3.39049e-07)
(0.00129662 -5.86508e-08 3.60113e-07)
(0.00129437 -3.28937e-07 4.7302e-07)
(0.00129253 -4.57123e-07 2.78378e-07)
(0.00129023 -1.84397e-07 3.57849e-07)
(0.00128775 -2.57202e-07 2.59314e-07)
(0.00128534 1.60898e-07 3.71974e-07)
(0.00128302 -1.53113e-07 3.1583e-07)
(0.00128025 -4.20709e-07 3.26481e-07)
(0.00127838 -3.89691e-07 2.18718e-07)
(0.0153945 -0.00420206 0.00534787)
(-0.00188895 0.0195645 0.00410701)
(-0.00523219 0.013469 -0.00192076)
(-0.00965727 -0.00333602 -0.000432888)
(-0.00216741 0.00135814 -0.00490593)
(-0.0298672 0.003258 -0.00184661)
(-0.00174559 -0.00101701 4.27754e-05)
(0.0013889 0.000118108 6.84101e-06)
(0.00143971 1.59235e-05 -4.48289e-07)
(0.00137534 2.53379e-05 3.40789e-07)
(0.00138211 1.40705e-05 3.45977e-07)
(0.00137618 9.94019e-06 3.44313e-07)
(0.00137291 5.95684e-06 3.4301e-07)
(0.00136953 3.76276e-06 3.43014e-07)
(0.00136638 2.38038e-06 3.42141e-07)
(0.00136356 1.42662e-06 3.41418e-07)
(0.00136091 9.59281e-07 3.39907e-07)
(0.00135823 6.54701e-07 2.47377e-07)
(0.00135501 3.46734e-07 3.81812e-07)
(0.00135217 2.53673e-07 3.32377e-07)
(0.0013498 1.02876e-07 2.57969e-07)
(0.00134728 6.95412e-08 3.35301e-07)
(0.00134478 -2.06695e-07 3.47631e-07)
(0.00134237 -2.40097e-07 3.23538e-07)
(0.00133932 -5.79269e-07 2.47355e-07)
(0.00133622 -2.82998e-07 2.96195e-07)
(0.00133389 -2.34455e-07 3.31051e-07)
(0.00133074 -1.0239e-07 3.35283e-07)
(0.00132849 2.67429e-08 3.02019e-07)
(0.00132693 6.69828e-07 4.06292e-07)
(0.00132462 1.18445e-06 3.48284e-07)
(0.00132282 1.05901e-06 3.18187e-07)
(0.00132039 5.40263e-07 8.00406e-07)
(0.00131649 2.90828e-07 4.39361e-07)
(0.00131382 -1.44644e-07 3.56784e-07)
(0.00131199 1.10476e-07 3.34223e-07)
(0.00130931 1.63389e-07 2.85883e-07)
(0.00130685 1.80344e-08 3.42569e-07)
(0.0013045 1.03893e-07 3.37865e-07)
(0.00130169 -8.04134e-08 4.21129e-07)
(0.00129883 4.3563e-08 3.16746e-07)
(0.00129641 1.4976e-07 3.2035e-07)
(0.00129463 3.22899e-07 5.82172e-07)
(0.00129281 4.86199e-07 2.9939e-07)
(0.00129034 4.18209e-07 3.08765e-07)
(0.00128794 3.69167e-07 3.18606e-07)
(0.00128529 5.04071e-07 5.1289e-07)
(0.00128235 2.98504e-07 3.46665e-07)
(0.00128006 6.22229e-08 3.36227e-07)
(0.00127851 1.35553e-07 3.04062e-07)
(-0.00624686 0.01026 -0.0102074)
(0.0104075 -0.00413468 0.000986336)
(0.00226638 -0.00229767 -0.00683521)
(0.0443787 0.00203874 0.00345865)
(-0.0129324 -0.0198426 -0.00305843)
(0.0183737 0.0118707 0.00265824)
(0.00190702 -0.0056485 5.22334e-05)
(0.00113418 -6.89373e-05 6.31726e-05)
(0.00143736 -2.02692e-05 2.81027e-07)
(0.00138162 4.56109e-05 2.79e-07)
(0.00137551 1.56309e-05 3.42776e-07)
(0.00137209 1.14715e-05 3.43025e-07)
(0.00136909 6.29185e-06 3.42202e-07)
(0.00136708 3.97494e-06 3.42334e-07)
(0.00136478 2.63548e-06 3.41378e-07)
(0.00136235 1.70881e-06 3.40662e-07)
(0.00135995 9.24146e-07 3.41168e-07)
(0.00135736 3.57727e-07 3.62237e-07)
(0.00135495 -7.96473e-08 3.12367e-07)
(0.00135246 6.22329e-08 3.13244e-07)
(0.00134981 -1.60416e-08 2.73542e-07)
(0.00134721 -8.66774e-08 3.39504e-07)
(0.00134448 -1.6688e-07 3.39959e-07)
(0.00134165 -1.4273e-07 3.55962e-07)
(0.00133956 -3.51129e-07 7.66747e-07)
(0.00133729 1.52391e-07 3.10485e-07)
(0.00133434 4.0593e-07 4.01722e-07)
(0.00133205 6.19682e-07 4.04356e-07)
(0.00132991 1.61771e-06 3.50808e-07)
(0.00132711 1.27778e-06 5.0857e-07)
(0.00132405 1.31045e-06 3.07569e-07)
(0.00132114 1.2603e-06 2.78857e-07)
(0.0013188 3.39951e-07 3.27297e-07)
(0.00131656 -1.17406e-07 3.27441e-07)
(0.00131417 2.83297e-07 1.79248e-07)
(0.00131191 7.742e-08 3.14216e-07)
(0.00130932 -1.79154e-08 3.70805e-07)
(0.00130712 -1.00506e-07 3.47258e-07)
(0.00130436 -6.19023e-07 1.98866e-07)
(0.00130141 -4.57214e-07 1.1044e-07)
(0.00129921 -2.19597e-08 1.91278e-07)
(0.00129696 5.24133e-07 6.9346e-07)
(0.00129479 1.03891e-06 5.15373e-07)
(0.00129264 5.94383e-07 3.01234e-07)
(0.00129008 7.15962e-08 3.35756e-07)
(0.00128786 2.74227e-08 3.2174e-07)
(0.00128525 -1.23775e-07 3.92754e-07)
(0.00128246 8.74147e-08 7.83584e-08)
(0.00128004 3.83515e-07 3.2095e-07)
(0.00127813 3.71255e-07 2.45661e-07)
(-0.0104948 0.00831962 -0.00461004)
(-0.0033456 -0.0162733 0.000567075)
(0.00529237 0.0073601 -0.00394029)
(-0.010804 -0.019911 -0.0264394)
(-0.0139155 0.0146304 0.00592015)
(0.000271216 0.00205939 -0.000375283)
(0.00165029 -0.00254167 1.7705e-05)
(0.0007374 -0.000225292 -2.83002e-05)
(0.00127195 1.5148e-05 4.77685e-07)
(0.00142684 3.80668e-05 -7.48146e-08)
(0.00133937 1.13754e-05 3.5176e-07)
(0.00136448 7.35252e-06 3.43315e-07)
(0.00136352 4.09334e-06 3.43432e-07)
(0.00136495 2.23824e-06 3.4168e-07)
(0.00136354 1.08985e-06 3.59704e-07)
(0.00136142 5.95104e-07 3.52769e-07)
(0.00135921 4.43978e-07 3.40444e-07)
(0.00135697 1.55584e-07 3.38382e-07)
(0.00135464 2.64099e-07 3.311e-07)
(0.00135225 1.21435e-07 3.70254e-07)
(0.00134961 -2.1025e-08 3.7154e-07)
(0.0013471 2.04096e-07 6.96251e-07)
(0.00134472 1.99185e-07 3.20453e-07)
(0.00134215 2.34285e-07 3.85503e-07)
(0.00133969 4.75444e-07 3.68858e-07)
(0.00133716 3.93203e-08 3.39435e-07)
(0.00133447 2.42886e-07 3.81966e-07)
(0.00133225 3.35802e-07 3.25734e-07)
(0.0013293 2.49165e-07 2.77525e-07)
(0.00132654 2.18415e-07 4.01533e-07)
(0.00132458 1.16685e-07 3.44529e-07)
(0.0013216 -1.84753e-07 3.25787e-07)
(0.00131866 3.02432e-07 3.2502e-07)
(0.00131641 1.425e-07 3.30323e-07)
(0.00131406 2.88452e-07 3.16967e-07)
(0.00131162 -4.00869e-08 3.24757e-07)
(0.00130909 -1.55831e-07 1.38364e-08)
(0.0013061 -2.14299e-07 3.16114e-07)
(0.00130406 -4.00553e-07 4.69586e-07)
(0.00130244 -1.90424e-07 2.31533e-07)
(0.00130005 9.1703e-08 3.13853e-07)
(0.00129773 2.23641e-07 7.93678e-07)
(0.00129471 2.6629e-07 3.2674e-07)
(0.0012916 8.20453e-08 4.31062e-08)
(0.00128963 -2.16304e-07 3.27891e-07)
(0.00128769 -3.70138e-07 3.20635e-07)
(0.00128536 -8.41315e-07 1.1995e-07)
(0.00128298 -7.32952e-07 8.63358e-08)
(0.0012804 -4.0184e-07 4.63723e-07)
(0.00127757 1.58837e-07 4.08838e-07)
(-0.00505109 -0.00240972 0.00571426)
(-0.00371861 -0.0113603 0.000730595)
(0.00440384 0.00223394 -0.00281354)
(0.028887 -0.0287026 -0.0532423)
(0.00910967 0.00490814 -0.00196506)
(0.00520481 -0.00563891 -0.00241901)
(0.0039151 0.000572733 2.12627e-05)
(0.000634672 2.38028e-05 -5.22579e-05)
(0.00139848 -2.69038e-05 1.96981e-06)
(0.00141575 -2.81725e-05 2.54813e-07)
(0.00133664 -4.73028e-06 3.20526e-07)
(0.00136295 -3.83738e-06 3.17571e-07)
(0.00136267 -1.37803e-06 3.5356e-07)
(0.00136332 -8.94083e-07 3.40561e-07)
(0.00136272 -7.59258e-07 3.49279e-07)
(0.00136155 -5.91335e-07 3.48252e-07)
(0.0013594 -3.0884e-07 3.40857e-07)
(0.00135714 -5.41483e-08 3.80151e-07)
(0.0013549 -9.76434e-08 3.80505e-07)
(0.0013521 1.60437e-07 3.76045e-07)
(0.00134991 3.56198e-07 3.43223e-08)
(0.00134749 3.32692e-07 3.40008e-07)
(0.00134452 3.30496e-07 3.17142e-07)
(0.00134199 2.75674e-07 3.65207e-07)