/*--------------------------------*- C++ -*----------------------------------*\
| =========                 |                                                 |
| \\      /  F ield         | OpenFOAM: The Open Source CFD Toolbox           |
|  \\    /   O peration     | Version:  5.0                                   |
|   \\  /    A nd           | Web:      www.OpenFOAM.org                      |
|    \\/     M anipulation  |                                                 |
\*---------------------------------------------------------------------------*/
FoamFile
{
    version     2.0;
    format      ascii;
    class       surfaceVectorField;
    location    "4.5";
    object      Uf;
}
// * * * * * * * * * * * * * * * * * * * * * * * * * * * * * * * * * * * * * //

dimensions      [0 1 -1 0 0 0 0];

internalField   nonuniform List<vector> 
26170
(
(0.00363709 -0.000108631 0.000198382)
(-0.000187477 -0.00108689 0.000259915)
(0.0075897 0.0107357 0.00638417)
(0.0137968 -0.00291021 -0.00218699)
(-0.0108506 0.00453363 -0.00423097)
(-0.0119893 0.000834491 0.00261148)
(0.00536913 -0.00372698 -0.000225557)
(0.00257498 0.00187061 -9.57059e-05)
(0.00679102 0.000249513 -0.000333521)
(0.00339088 -0.00624419 -0.000202308)
(0.00359295 -0.00517098 1.72443e-05)
(0.0128457 -0.00688267 -0.000303314)
(0.00568884 -0.00693158 -0.000129339)
(0.00338044 5.59457e-05 2.80913e-05)
(-0.00653208 -0.00495763 -0.000854624)
(-0.000108122 -0.00160733 0.000166099)
(0.00788319 -0.0119251 -0.000432913)
(0.00406361 -0.000176483 0.000151529)
(-0.00277272 -0.00794464 -2.64361e-05)
(0.00404668 -0.000234851 -9.96225e-05)
(-0.00526397 -0.00464555 -1.32575e-05)
(-0.00143934 0.00302615 0.00279302)
(0.000306333 -0.00327328 -0.000808409)
(0.00175724 0.00786703 -0.000954206)
(0.011508 -0.00399602 -5.68797e-05)
(0.00358886 -0.00419539 -2.88194e-05)
(0.0101415 -0.012431 -0.000415695)
(0.00377444 -0.00291925 6.15906e-05)
(0.00174355 -0.00331252 -1.26138e-05)
(0.00168648 -0.000904862 5.76186e-05)
(0.00288307 -0.00763128 -0.000120064)
(0.000853441 -0.000682192 5.53515e-05)
(0.000883491 -0.000100316 5.80759e-06)
(0.000935248 -0.00031262 -1.23151e-05)
(0.00094884 -8.26979e-05 1.57882e-05)
(0.000423038 3.00948e-07 1.50545e-06)
(0.000426327 -9.1485e-07 -2.74213e-06)
(0.000425174 2.26355e-06 4.5143e-07)
(0.000688029 2.18196e-05 1.45195e-07)
(0.000802021 -1.16128e-05 -9.2292e-07)
(0.000860768 -2.50501e-05 -1.37486e-06)
(0.0011287 -1.67601e-05 -1.04188e-06)
(0.000575997 -1.33827e-05 -4.0618e-06)
(0.000573744 -2.45326e-05 -4.88525e-06)
(0.000973971 -2.20378e-05 -4.9137e-06)
(0.000955348 -4.51838e-05 -6.28298e-06)
(0.000811509 -7.43998e-06 -8.15943e-08)
(0.000803472 -1.49672e-05 -4.45309e-07)
(0.00106703 -1.18441e-05 9.24131e-08)
(0.000815083 -4.23545e-06 1.3641e-07)
(0.000819233 -8.69195e-06 1.86514e-07)
(0.00108929 -6.49837e-06 2.06333e-07)
(0.000816485 -2.46626e-06 7.09539e-08)
(0.000817643 -4.95861e-06 4.4958e-08)
(0.00108855 -3.87943e-06 1.79015e-07)
(0.00081715 -1.35878e-06 7.48311e-08)
(0.000818125 -4.01838e-06 5.91663e-08)
(0.0010902 -2.14649e-06 2.48157e-07)
(0.0008164 -7.6478e-07 5.94847e-08)
(0.000817306 -2.02358e-06 5.53271e-08)
(0.00108972 -1.12666e-06 1.94742e-07)
(0.00081521 -4.3668e-07 3.76846e-08)
(0.000816155 -9.39928e-07 5.25802e-08)
(0.00108811 -6.80944e-07 1.84564e-07)
(0.000814124 -2.62074e-07 3.72345e-08)
(0.000814833 -1.0787e-06 3.12796e-08)
(0.00108652 -3.3627e-07 2.01195e-07)
(0.000812756 -1.31848e-07 6.87173e-08)
(0.000813434 -2.48417e-07 5.39431e-08)
(0.00108484 -2.76001e-07 1.78357e-07)
(0.000810995 -1.41688e-07 9.4858e-08)
(0.000811818 -3.50739e-07 1.10556e-07)
(0.00108274 -3.16796e-08 1.84346e-07)
(0.000809304 -2.20598e-07 9.36762e-08)
(0.000810218 -9.31748e-07 5.77201e-08)
(0.00108034 -3.09331e-07 2.52281e-07)
(0.000807953 -1.69088e-07 7.45221e-08)
(0.000808789 -2.05911e-07 5.67357e-08)
(0.0010783 -2.53833e-07 2.41705e-07)
(0.000806432 -6.8752e-08 6.47192e-08)
(0.000807281 -1.04273e-07 7.21767e-08)
(0.0010765 -1.72982e-07 2.30324e-07)
(0.000804925 -2.24799e-08 3.95175e-08)
(0.00080565 -2.06359e-07 6.34139e-08)
(0.00107437 5.64432e-08 1.74413e-07)
(0.000803315 4.7203e-08 3.23075e-08)
(0.000804145 -5.18514e-07 1.08075e-07)
(0.00107226 -4.9098e-09 2.12769e-07)
(0.000801765 2.49086e-07 5.35234e-08)
(0.000802722 -7.92172e-08 6.5443e-08)
(0.00107019 2.26165e-07 1.90734e-07)
(0.000800453 3.57646e-07 3.49653e-08)
(0.000801109 -6.6773e-07 5.45339e-08)
(0.00106829 4.8546e-07 1.88583e-07)
(0.000798622 3.39244e-07 3.12308e-08)
(0.000799415 2.47481e-07 4.05246e-08)
(0.00106617 5.22057e-07 8.55247e-08)
(0.000797272 1.9804e-07 4.93717e-08)
(0.000797819 2.03103e-07 5.09035e-08)
(0.00106401 4.24565e-07 1.66597e-07)
(0.000796052 8.68334e-08 1.80414e-08)
(0.000796512 -1.37997e-07 4.85806e-08)
(0.00106249 1.10863e-07 1.75901e-07)
(0.000793789 -1.70529e-08 2.65954e-08)
(0.000794839 1.56291e-06 5.80891e-08)
(0.00106002 1.16382e-07 -6.91728e-09)
(0.000792689 -2.80074e-07 7.27503e-08)
(0.000793125 -4.36651e-07 4.84192e-08)
(0.00105769 -2.0831e-07 2.01205e-07)
(0.000790781 -4.52317e-07 5.55786e-08)
(0.000791739 -7.87385e-07 -2.99018e-08)
(0.00105584 -6.47133e-07 3.75499e-07)
(0.000789387 -3.58815e-07 8.17365e-08)
(0.000790243 -5.92891e-07 2.30727e-08)
(0.00105346 -6.50761e-07 3.17933e-07)
(0.000788343 -1.8479e-07 8.72128e-08)
(0.000789011 -2.25585e-06 1.02497e-07)
(0.00105183 -3.4691e-07 2.7462e-07)
(0.000787169 -3.65682e-08 4.24847e-08)
(0.000787893 1.46662e-07 1.04729e-07)
(0.00105055 -1.38779e-07 1.30568e-07)
(0.000785694 8.9193e-08 7.01919e-08)
(0.000786444 3.73377e-08 4.20767e-08)
(0.00104876 1.03948e-07 1.74384e-07)
(0.000784106 1.45011e-07 7.7473e-08)
(0.000784916 3.73759e-09 6.79951e-08)
(0.00104665 2.01451e-07 1.52423e-07)
(0.000782363 2.02516e-07 4.38249e-08)
(0.000783439 1.34312e-07 4.61191e-08)
(0.00104438 2.24304e-07 2.03125e-07)
(0.000780984 3.61446e-07 4.44178e-08)
(0.00078199 4.0907e-07 1.66241e-08)
(0.00104215 3.33155e-07 1.38913e-07)
(0.000780448 3.17401e-07 7.63315e-08)
(0.000780662 -1.52639e-06 4.33538e-08)
(0.00104097 6.57411e-07 1.86121e-07)
(0.000778677 5.81807e-08 5.98579e-08)
(0.000779244 2.9719e-07 1.0886e-07)
(0.00103955 2.5701e-07 1.77712e-07)
(0.000777223 -6.76224e-08 5.19017e-08)
(0.00077778 3.33038e-08 4.23062e-08)
(0.00103731 -3.42018e-08 1.72434e-07)
(0.000775861 -2.82383e-07 5.77473e-08)
(0.000776355 -5.22037e-08 7.39336e-08)
(0.0010353 -1.16295e-07 1.73763e-07)
(0.000775226 -4.93982e-07 1.63189e-08)
(0.000775194 -3.17299e-07 4.25725e-08)
(0.0010342 -6.18844e-07 2.92407e-07)
(0.000772826 -3.78247e-07 1.47781e-08)
(0.000773989 2.61137e-06 6.76348e-08)
(0.00103207 -6.55351e-07 7.49222e-08)
(0.000771495 -1.8432e-07 5.25806e-08)
(0.000772481 -2.84945e-07 4.91053e-08)
(0.00102954 -3.26689e-07 1.73184e-07)
(0.000770131 -4.99535e-08 6.25238e-08)
(0.000771018 -3.55383e-07 5.65386e-08)
(0.00102776 -2.0211e-07 1.89761e-07)
(0.000769343 -5.34551e-08 4.84925e-08)
(0.000769725 -8.18344e-07 6.52483e-08)
(0.00102624 1.08654e-08 1.67431e-07)
(0.000767819 -2.77118e-07 3.12144e-08)
(0.000768416 1.26158e-07 1.8656e-08)
(0.00102486 -2.2072e-07 1.778e-07)
(0.000766061 -4.03276e-07 1.18963e-08)
(0.000766891 9.48013e-07 4.74734e-08)
(0.00102253 -5.42635e-07 1.35384e-07)
(0.000765606 8.96597e-07 5.84977e-08)
(0.00102035 -5.04468e-07 1.07856e-07)
(-0.00104885 0.000610672 -3.40538e-05)
(0.00326739 -0.00245301 -7.92936e-05)
(0.00273733 0.00307886 0.000248644)
(0.00105235 -0.00199765 0.000147058)
(-0.0020019 0.00166999 0.00010823)
(0.00949659 0.00140559 0.00269784)
(-0.000775278 0.00245457 -0.000858363)
(-0.00118238 0.00858768 0.00148545)
(1.07902e-05 0.0043852 -0.00108308)
(0.00316683 -0.00389287 -0.00346185)
(-0.000264296 0.00334067 -0.00110383)
(-0.00231919 -0.00225982 0.000524389)
(0.00303692 -0.000583946 0.000174473)
(0.00214462 0.00768184 -3.90589e-05)
(-0.000795131 -0.00311145 -0.0242407)
(-0.00268626 0.00356124 0.000126206)
(0.00369058 -0.000442614 4.67877e-05)
(-0.00410511 0.00303138 -0.000863704)
(0.00559378 0.000320301 0.000367114)
(-0.00144188 0.00915379 0.00124434)
(0.0077363 0.00252791 -0.00090538)
(-0.000474703 -0.00282301 -0.0102692)
(-0.000226574 -0.00538044 0.0118175)
(0.00103586 -0.00147715 0.0203459)
(0.000524166 -0.00385533 -5.65555e-05)
(-0.000101366 0.00426657 -5.04292e-05)
(0.00527393 0.00127718 -7.15359e-05)
(-8.23191e-05 -0.0040439 -0.000319257)
(0.0123555 -0.00600326 -5.86975e-05)
(-0.00526737 -0.00849119 -0.00198614)
(-0.0033635 -0.00726118 -0.000463544)
(6.9067e-05 0.00438772 0.00134872)
(0.0132798 0.00855832 -0.000564125)
(0.0142619 0.0132069 -0.00088898)
(0.00113959 -0.00277219 0.000607963)
(-0.00766021 0.00217676 -0.000241583)
(-0.0127054 0.00124824 -6.27227e-06)
(-0.0109345 0.00200564 -0.000335846)
(-0.00774417 0.00307925 0.000571284)
(-0.0169536 -0.000170369 -0.00021016)
(0.000979235 0.000107703 2.9856e-05)
(0.00147627 0.000265795 2.61304e-05)
(0.00186453 0.000178062 7.16889e-05)
(0.00150703 -1.81669e-05 -2.3922e-05)
(0.00133345 6.4871e-05 3.74315e-05)
(0.000320024 -1.38464e-05 -2.23749e-06)
(0.00048378 -2.12329e-05 -3.00017e-06)
(0.000470708 -3.50605e-05 4.87106e-09)
(0.000786287 -3.93094e-05 -7.12661e-07)
(0.00033613 -3.66536e-06 -2.31117e-06)
(0.000580998 -1.41146e-05 -2.10905e-06)
(0.000620571 1.32312e-05 -1.49051e-06)
(0.000456003 -2.17899e-05 4.95495e-08)
(0.000820893 -2.29376e-05 -8.97553e-07)
(0.000870276 -3.73694e-05 -1.86955e-06)
(0.00117574 -3.65683e-05 -9.98335e-07)
(0.000595982 -1.97532e-05 -3.64841e-06)
(0.000605149 -9.84992e-06 -4.93693e-06)
(0.000987634 -2.45628e-05 -4.562e-06)
(0.00100542 -7.42057e-07 -6.47663e-06)
(0.000821043 -1.24882e-05 -1.77406e-07)
(0.000816705 -1.53791e-05 -3.21614e-07)
(0.00108108 -1.77103e-05 5.19148e-08)
(0.000820685 -7.64369e-06 9.51086e-08)
(0.000825314 -1.06156e-05 1.47158e-07)
(0.00109862 -1.14154e-05 2.02898e-07)
(0.000819887 -4.34551e-06 3.31658e-08)
(0.000821781 -5.95529e-06 4.61131e-08)
(0.00109398 -6.39965e-06 1.77897e-07)
(0.000818479 -2.55264e-06 3.96636e-08)
(0.000820375 -3.74199e-06 4.71012e-08)
(0.00109292 -3.61311e-06 1.43795e-07)
(0.000817155 -1.56434e-06 4.84235e-08)
(0.000818547 -2.27531e-06 5.01454e-08)
(0.00109076 -2.24468e-06 1.72825e-07)
(0.000815878 -9.2851e-07 4.61821e-08)
(0.000816953 -1.37829e-06 5.36518e-08)
(0.00108901 -1.35433e-06 1.81709e-07)
(0.000814134 -5.51519e-07 4.79809e-08)
(0.000815306 -7.41852e-07 4.70343e-08)
(0.00108691 -7.74064e-07 1.68773e-07)
(0.000812668 -3.88821e-07 9.57631e-08)
(0.000813639 -4.57052e-07 5.67289e-08)
(0.00108476 -4.85208e-07 1.82535e-07)
(0.000810827 -2.04155e-07 7.34347e-08)
(0.00081205 -1.24189e-06 7.69817e-08)
(0.00108251 -4.13804e-07 2.61988e-07)
(0.000809844 -1.34274e-08 2.078e-08)
(0.000810457 -6.89467e-07 5.89598e-08)
(0.0010806 -4.27646e-08 1.09951e-07)
(0.000808075 8.0208e-08 5.43854e-08)
(0.000808906 -6.3115e-08 3.64486e-08)
(0.00107878 6.10747e-08 1.84976e-07)
(0.00080656 1.34471e-07 7.08743e-08)
(0.000807349 3.73355e-07 1.0504e-07)
(0.00107658 1.94521e-07 1.3995e-07)
(0.000804707 2.44618e-07 1.31957e-07)
(0.000805787 6.63908e-08 5.49442e-08)
(0.00107435 1.7663e-07 1.83946e-07)
(0.000803714 2.42282e-07 1.41224e-07)
(0.000804141 -2.90578e-07 1.36205e-07)
(0.00107239 4.73356e-07 1.12624e-07)
(0.000802014 1.56945e-07 6.64569e-08)
(0.000802614 2.37923e-07 4.57901e-08)
(0.00107065 2.0279e-07 1.68485e-07)
(0.000800135 4.65259e-08 6.00976e-08)
(0.00080097 -2.52164e-07 5.34604e-08)
(0.00106827 2.83504e-07 1.77922e-07)
(0.000798515 -1.06215e-07 6.0194e-08)
(0.000799224 -1.04179e-07 7.82588e-08)
(0.00106586 -7.34235e-08 2.09612e-07)
(0.000797017 -1.81727e-07 5.01131e-08)
(0.000797725 3.91333e-08 5.58765e-08)
(0.00106377 -1.32763e-07 1.86472e-07)
(0.000795484 -4.78944e-07 8.86252e-08)
(0.000796142 -1.51273e-07 5.2265e-08)
(0.00106181 -3.18089e-07 1.79703e-07)
(0.000793989 -5.67159e-07 7.99159e-08)
(0.000794731 -3.94514e-07 7.3312e-08)
(0.00105979 -9.85333e-07 3.14174e-07)
(0.000792289 -3.60546e-07 -5.42084e-08)
(0.000793386 -1.08868e-07 -2.05225e-08)
(0.0010575 -5.88763e-07 1.71767e-07)
(0.000791109 -1.89737e-07 -6.24244e-08)
(0.000791955 2.77683e-07 1.51671e-08)
(0.0010557 -4.28637e-07 7.45303e-08)
(0.000789787 2.57392e-07 4.38086e-08)
(0.000790802 4.74887e-07 3.28453e-08)
(0.00105412 -1.30884e-07 8.74979e-08)
(0.000788648 5.61493e-07 1.20013e-07)
(0.00078939 -2.76382e-06 2.74495e-08)
(0.00105242 7.82114e-07 1.83647e-07)
(0.000787178 3.87604e-07 1.04341e-07)
(0.000787674 -2.71858e-06 7.48441e-08)
(0.00105075 7.36057e-07 3.81537e-07)
(0.000785644 2.02725e-07 3.98718e-08)
(0.000786212 2.46717e-07 6.7771e-08)
(0.00104865 3.18205e-07 1.69016e-07)
(0.000784277 1.55429e-07 3.6648e-08)
(0.000784856 6.88117e-08 4.52688e-08)
(0.00104662 2.12078e-07 1.64922e-07)
(0.000783032 2.48534e-07 1.89274e-08)
(0.000783554 1.53828e-07 4.31916e-08)
(0.00104491 1.9777e-07 1.57754e-07)
(0.000781633 4.67906e-07 1.55519e-08)
(0.000782262 1.06543e-07 2.64669e-08)
(0.00104326 4.68935e-07 1.95043e-07)
(0.000779557 4.79676e-07 7.58617e-08)
(0.000780675 -6.78251e-07 2.67682e-08)
(0.00104087 7.91636e-07 1.7344e-07)
(0.000778257 2.55915e-07 9.13285e-08)
(0.000778962 3.39582e-07 1.0736e-07)
(0.00103851 5.31201e-07 1.61817e-07)
(0.000776962 7.45074e-08 6.43284e-08)
(0.000777553 -5.0297e-08 4.41456e-08)
(0.00103683 1.93631e-07 1.70551e-07)
(0.000775549 -6.74825e-08 5.87684e-08)
(0.000776177 -1.17334e-08 6.70777e-08)
(0.00103501 7.21265e-09 1.7224e-07)
(0.000774075 -3.64632e-07 9.38807e-08)
(0.000774824 1.04116e-07 6.73905e-08)
(0.00103302 -1.98471e-07 1.50089e-07)
(0.000773679 -3.73217e-07 1.01968e-07)
(0.00077398 1.26629e-07 1.16316e-07)
(0.00103191 -7.58338e-07 2.62917e-07)
(0.000771954 -9.52216e-08 5.30611e-08)
(0.00077283 -1.75545e-07 1.26023e-09)
(0.00103043 -2.27044e-07 1.95132e-07)
(0.000770537 1.55103e-07 5.92604e-08)
(0.000771331 2.93592e-08 7.76573e-08)
(0.00102832 -7.69011e-08 1.46783e-07)
(0.000768914 1.93623e-07 3.54259e-08)
(0.000769773 2.64072e-07 7.64914e-08)
(0.00102634 4.25969e-07 1.14375e-07)
(0.000767427 -3.6815e-08 3.49062e-08)
(0.000768128 2.78096e-07 3.54538e-08)
(0.00102422 5.20885e-08 1.69194e-07)
(0.000766379 -1.62231e-07 9.40715e-08)
(0.000766737 1.84313e-07 6.73473e-08)
(0.00102244 -1.82192e-07 1.95691e-07)
(0.000765807 -1.33925e-07 1.19458e-07)
(0.00102113 -2.75281e-07 2.36814e-07)
(0.00291107 -0.00215084 7.80253e-05)
(0.0115251 -9.03601e-05 0.000125011)
(0.012132 -0.00509357 0.00451581)
(0.0195378 -0.0105991 -0.00610232)
(0.00369614 -0.00125086 0.00117655)
(0.0105654 -0.0157471 -0.000241685)
(0.0006005 -0.00756505 -0.000931633)
(0.0042587 0.00464442 0.00145494)
(-0.00408779 -0.00336641 0.00129821)
(-0.00716598 0.00395145 -0.000414169)
(-0.00157768 -0.00491877 -0.000466453)
(-0.00248964 0.00527647 0.00128167)
(0.00212101 0.00730816 -1.67953e-05)
(-0.00264094 0.00936221 0.000460631)
(0.000122321 0.014352 0.00026989)
(0.00669514 0.0102072 -0.0007468)
(-0.00105266 -0.00194712 0.00263234)
(-0.011158 0.00284745 0.00119657)
(-0.00128404 0.00546904 0.000833983)
(-0.00229881 0.00661657 0.000266477)
(0.00587129 0.00492383 0.000447171)
(0.00481497 -0.00041039 0.000453457)
(-0.000874588 -0.0029562 0.000918762)
(0.0163932 0.0027779 -0.000347857)
(0.00989726 0.0063585 -0.000523529)
(0.00784513 0.00314215 -0.00190544)
(0.00279603 -0.000432175 -3.07463e-05)
(0.00158742 0.0138538 -0.000623262)
(0.00173701 0.00123419 -3.76396e-05)
(-0.0149598 0.00577945 -0.000508429)
(0.00454032 0.00353505 -0.00043077)
(0.000361597 -0.000401673 1.17196e-05)
(0.000324179 -0.000307886 6.25498e-05)
(7.90664e-05 -0.000940639 1.45371e-05)
(-0.000179632 -0.000892672 3.73877e-05)
(0.000424465 -0.000312742 6.33517e-05)
(0.000265517 -3.24084e-05 9.30102e-06)
(0.000324893 -2.07965e-05 3.96534e-07)
(0.000267444 -2.24253e-05 1.1877e-06)
(0.000452348 -1.45867e-05 2.76105e-06)
(0.000234232 -1.33689e-05 -1.61071e-06)
(0.000831897 -2.91903e-05 -1.29412e-06)
(0.000877538 -5.00346e-05 -2.35518e-06)
(0.00114863 -5.12765e-05 -1.29083e-06)
(0.00059342 -2.22655e-05 -3.97945e-06)
(0.000606033 -4.54997e-05 -4.69632e-06)
(0.000999594 -2.37483e-05 -4.60293e-06)
(0.00102465 -7.69699e-05 -5.44106e-06)
(0.000827894 -1.3211e-05 2.79706e-09)
(0.000836669 -1.2091e-05 -1.77085e-07)
(0.00109893 -1.79835e-05 1.5239e-07)
(0.000825232 -8.11484e-06 9.81952e-08)
(0.000831704 -9.6377e-06 8.00614e-08)
(0.00110349 -1.21223e-05 1.99814e-07)
(0.000822598 -4.61475e-06 6.00481e-08)
(0.000826168 -4.75931e-06 4.92375e-08)
(0.00109833 -6.38589e-06 1.83991e-07)
(0.000820364 -2.82898e-06 5.7582e-08)
(0.000822614 -3.02585e-06 5.38846e-08)
(0.00109542 -4.00365e-06 1.83625e-07)
(0.00081833 -1.6948e-06 5.53726e-08)
(0.000819969 -1.78887e-06 5.47575e-08)
(0.00109256 -2.36805e-06 1.82707e-07)
(0.000816459 -1.07072e-06 5.45061e-08)
(0.000817736 -1.09052e-06 5.38915e-08)
(0.00108996 -1.43378e-06 1.82614e-07)
(0.000814762 -6.81337e-07 5.57792e-08)
(0.000815795 -6.63138e-07 5.4219e-08)
(0.00108761 -9.7456e-07 1.82405e-07)
(0.000813047 -3.84812e-07 3.7941e-08)
(0.000814011 -4.06105e-07 5.31283e-08)
(0.00108529 -5.6637e-07 1.86135e-07)
(0.000811629 -1.60471e-07 6.25126e-08)
(0.000812331 -9.03488e-07 2.58157e-08)
(0.0010833 -3.04477e-07 1.40743e-07)
(0.000809549 -6.52412e-08 7.46356e-08)
(0.000810576 -4.88943e-08 9.11553e-08)
(0.00108093 -6.46146e-08 1.77142e-07)
(0.000808162 -5.90935e-08 8.70815e-08)
(0.000808914 -3.11612e-07 3.58819e-08)
(0.0010786 -9.5679e-08 1.78967e-07)
(0.000806602 -3.88089e-08 8.91261e-08)
(0.000807375 3.20715e-07 1.0735e-07)
(0.00107665 -5.62345e-08 1.80559e-07)
(0.000805229 -1.64128e-09 5.91664e-08)
(0.000805834 -1.96546e-07 4.97101e-08)
(0.00107472 -5.08382e-08 1.79471e-07)
(0.000802969 -2.70908e-08 4.08002e-08)
(0.000804109 -7.32481e-07 2.89398e-08)
(0.00107229 1.99085e-08 2.69682e-07)
(0.000801682 -1.75147e-07 3.27912e-08)
(0.00080243 -1.8559e-07 4.54452e-08)
(0.00106995 -1.10587e-07 1.84165e-07)
(0.000799961 -2.12509e-07 7.16137e-08)
(0.000800924 -3.49065e-07 2.6735e-08)
(0.00106794 -3.71857e-07 1.99884e-07)
(0.000798425 -1.4572e-07 7.39483e-08)
(0.000799308 -6.14072e-09 5.90505e-08)
(0.00106565 -2.1308e-07 1.70769e-07)
(0.000796911 -1.0008e-07 5.80296e-08)
(0.000797783 9.25955e-08 6.12209e-08)
(0.00106371 -1.58636e-07 1.72566e-07)
(0.000795276 -7.24882e-08 3.69452e-08)
(0.000796177 -1.07666e-07 5.64365e-08)
(0.00106143 -7.30207e-08 1.84613e-07)
(0.000794193 1.00864e-07 -2.70968e-08)
(0.000794947 2.74033e-07 5.67722e-09)
(0.00105968 -7.71304e-08 9.27944e-08)
(0.000793057 3.73595e-07 4.88418e-08)
(0.000793725 4.84492e-07 -1.72035e-08)
(0.00105839 4.07433e-07 1.03397e-07)
(0.000791527 5.08839e-07 1.10431e-07)
(0.000792121 3.42886e-07 1.40025e-07)
(0.00105641 6.91869e-07 1.76268e-07)
(0.000790607 5.05119e-07 1.64879e-08)
(0.000790795 5.60229e-07 2.14832e-08)
(0.00105497 7.53594e-07 1.21515e-07)
(0.000788298 4.02364e-07 -1.77343e-08)
(0.000789259 -2.42236e-08 1.20871e-08)
(0.00105291 6.10702e-07 5.69059e-08)
(0.000786692 2.63039e-07 3.82764e-08)
(0.000787499 9.25082e-08 1.48077e-08)
(0.00104997 4.44307e-07 -1.02064e-08)
(0.000785412 1.82293e-07 7.31751e-08)
(0.00078611 8.82766e-08 7.15595e-08)
(0.0010481 2.17159e-07 1.72546e-07)
(0.000784106 1.47688e-07 5.18131e-08)
(0.000784812 -8.48632e-08 4.60848e-08)
(0.0010465 2.13718e-07 1.75154e-07)
(0.000782823 4.04955e-08 5.07362e-08)
(0.00078342 5.26431e-08 4.81251e-08)
(0.00104469 1.54435e-07 1.6975e-07)
(0.000781408 -1.06015e-07 3.76831e-08)
(0.000782079 -3.30284e-08 4.20187e-08)
(0.00104288 -3.66199e-08 1.84785e-07)
(0.000779991 -1.74088e-07 5.8242e-08)
(0.00078059 -3.49536e-07 1.9835e-08)
(0.00104105 -2.12843e-07 1.51589e-07)
(0.000778194 -8.5155e-08 6.01971e-08)
(0.000779074 -6.38721e-07 3.67001e-08)
(0.00103879 -2.19191e-07 2.79901e-07)
(0.000776863 3.3962e-08 4.68879e-08)
(0.000777701 -5.81759e-08 3.92777e-08)
(0.00103666 1.54042e-09 1.6836e-07)
(0.000775396 1.74375e-07 7.56997e-08)
(0.000776352 -2.50787e-07 4.63662e-08)
(0.00103481 9.90257e-08 1.97187e-07)
(0.000774446 2.87309e-07 8.98113e-08)
(0.000774963 -1.27698e-06 5.85288e-08)
(0.00103325 3.94013e-07 2.332e-07)
(0.000773536 2.29677e-07 1.56442e-08)
(0.000773906 -1.18834e-06 4.10828e-08)
(0.00103204 4.15373e-07 2.24649e-07)
(0.000772077 1.86266e-07 2.58331e-08)
(0.000772774 -1.1632e-09 -1.52712e-08)
(0.00103039 2.80867e-07 1.66206e-07)
(0.00077067 2.27768e-07 9.48886e-08)
(0.000771382 -3.22328e-09 7.749e-08)
(0.00102857 3.12501e-07 1.76295e-07)
(0.000768875 3.36853e-07 7.65318e-08)
(0.000769907 -2.81117e-08 7.62059e-08)
(0.0010264 3.50423e-07 2.30173e-07)
(0.00076742 3.47425e-07 6.78852e-08)
(0.000768139 4.03155e-07 6.33541e-08)
(0.0010241 5.52038e-07 1.68281e-07)
(0.00076599 2.15077e-07 9.27175e-08)
(0.000766569 1.84384e-07 5.29431e-08)
(0.00102213 3.33722e-07 1.7469e-07)
(0.000765538 -1.27868e-06 1.3812e-07)
(0.00102092 2.03324e-07 2.1059e-07)
(0.0158127 0.0176711 0.000682472)
(0.0101059 0.00418313 -7.06638e-05)
(0.00145828 0.00745463 -0.009683)
(0.00556393 0.00423064 0.0125289)
(0.000564898 -0.00114431 -0.00171232)
(0.0162589 0.00551602 -0.00398408)
(0.00230144 0.00979815 0.00444455)
(0.0180947 0.0137084 -0.000957343)
(-0.0124018 0.00880407 0.00438685)
(0.000533345 0.0124406 0.000633828)
(0.00412609 0.0271969 0.00354713)
(0.025678 0.0195535 -0.000321744)
(0.00899384 0.00326127 -0.000249459)
(-0.02676 -0.000554343 0.000138738)
(-0.0223465 -0.00588364 0.00133542)
(-0.0188024 -0.000482513 0.00206306)
(-0.0171548 0.00355592 0.00148771)
(-0.00965892 -0.000154045 0.00111726)
(-0.00290777 -0.000393164 0.00118822)
(0.00522557 0.00545905 0.000788529)
(-0.000505989 -8.84975e-05 0.000389842)
(0.0262907 0.00829671 0.000372136)
(0.00988586 0.00477387 -0.000459355)
(0.00868698 -0.00475903 -0.000615498)
(-0.000793254 -0.00101042 -0.000367397)
(0.0131969 -0.006391 -0.000382413)
(-0.00163448 0.000724405 -0.00100876)
(0.00403115 -0.00359997 -0.00154385)
(-0.00528921 -0.00046302 -0.000197206)
(-0.013953 5.79824e-05 0.000600425)
(-0.00528434 -0.000803259 -0.000124169)
(-0.00803304 -0.00510753 -0.000129803)
(-0.0175825 -0.000985675 -0.000417228)
(0.000174262 -0.000956731 1.90265e-05)
(0.000534599 -0.000666193 9.7436e-06)
(0.00113078 -0.00185501 -3.29641e-05)
(0.00145032 -0.00344578 5.56537e-05)
(0.000590254 -0.00106587 -4.93396e-05)
(-6.60733e-05 -0.00135913 0.000106379)
(0.000535486 -0.00159854 -8.35249e-05)
(0.000275025 -0.00109414 3.13441e-05)
(0.000582539 -0.000562117 1.60376e-05)
(0.000402373 -0.0010314 9.43382e-06)
(5.55557e-06 -0.00118151 -2.26743e-05)
(0.000639382 -0.000902554 6.55868e-05)
(0.000693258 -0.0013819 -3.03746e-05)
(0.0005143 -0.000918877 2.92236e-05)
(0.0012401 -0.000111617 1.7011e-05)
(0.000466873 -0.000142695 3.39728e-05)
(0.000488905 -0.000192045 4.46345e-05)
(0.000654452 -0.000207682 7.78796e-05)
(0.000357882 -0.000112604 2.04773e-05)
(0.000865668 -2.42923e-05 -1.23886e-06)
(0.000602564 -2.46493e-05 -2.02611e-06)
(0.00118834 -6.68405e-05 -1.59748e-06)
(0.000635163 -2.81678e-05 -4.73724e-06)
(0.000635383 -2.53841e-05 -3.06301e-06)
(0.00106394 -3.49091e-05 -4.63509e-06)
(0.00109151 -2.96531e-05 7.42137e-07)
(0.000601553 -3.55957e-05 -3.97933e-06)
(0.0010009 -3.12002e-05 -1.11751e-06)
(0.00100015 -5.72819e-05 -4.78871e-06)
(0.000840944 -1.43214e-07 -9.99051e-08)
(0.000866032 1.7836e-05 -9.25838e-07)
(0.00112995 8.33323e-06 1.04624e-07)
(0.000831855 -3.44635e-06 3.11137e-08)
(0.000827562 -2.02122e-07 -1.86231e-07)
(0.00111316 -5.11923e-06 1.71291e-07)
(0.000825795 -1.82591e-06 4.30724e-08)
(0.000828191 8.2964e-07 9.63031e-08)
(0.00110415 -1.75905e-06 1.76731e-07)
(0.000822036 -1.35005e-06 5.10598e-08)
(0.000823206 -3.70622e-07 1.09731e-07)
(0.00109795 -1.68508e-06 1.81377e-07)
(0.00081925 -8.27913e-07 5.32766e-08)
(0.000820621 -3.51515e-07 5.74005e-08)
(0.00109398 -1.02949e-06 1.82006e-07)
(0.000816998 -5.03103e-07 5.36043e-08)
(0.000818142 -3.16051e-07 5.36796e-08)
(0.00109075 -6.12742e-07 1.81987e-07)
(0.000815007 -3.0812e-07 5.15685e-08)
(0.000816038 -2.11968e-07 4.98748e-08)
(0.001088 -3.6039e-07 1.8217e-07)
(0.000813259 -1.88518e-07 4.10119e-08)
(0.00081416 -9.46728e-08 5.08462e-08)
(0.0010856 -2.30059e-07 1.71056e-07)
(0.000811356 -2.41329e-07 5.44374e-08)
(0.000812265 -3.58441e-08 4.18443e-08)
(0.00108314 -1.29701e-07 1.46047e-07)
(0.000809805 -3.80263e-07 5.24194e-08)
(0.000810403 -1.24029e-07 6.44968e-08)
(0.00108086 -4.20859e-07 1.80941e-07)
(0.000808173 -3.32895e-07 5.61271e-08)
(0.000808975 -2.7226e-07 6.80252e-08)
(0.00107879 -5.09807e-07 1.80194e-07)
(0.000806558 -2.48349e-07 6.79519e-08)
(0.000807481 -1.50881e-07 7.50733e-08)
(0.00107664 -3.20563e-07 2.14407e-07)
(0.000804876 -3.01402e-07 1.94901e-08)
(0.000805769 -9.47905e-08 3.60242e-08)
(0.00107445 -3.20728e-07 1.80992e-07)
(0.000803345 -2.18379e-07 3.35795e-08)
(0.000804214 1.75302e-07 4.71795e-08)
(0.00107231 -4.59893e-07 1.12154e-07)
(0.000801806 -9.20665e-08 3.93949e-08)
(0.000802589 -3.48186e-07 8.23491e-08)
(0.00107016 -1.20916e-07 1.87929e-07)
(0.000800195 1.91792e-08 1.41615e-08)
(0.000801064 -1.45851e-08 4.58888e-08)
(0.00106814 -1.64449e-07 1.60146e-07)
(0.000798658 2.16852e-07 4.63223e-08)
(0.000799555 -1.5685e-08 5.27424e-08)
(0.00106613 1.69737e-07 1.78385e-07)
(0.000797116 3.71182e-07 5.96293e-08)
(0.000797974 7.57782e-08 6.11641e-08)
(0.00106395 3.86384e-07 1.8003e-07)
(0.000795642 6.00858e-07 2.51846e-08)
(0.000796461 6.91664e-07 6.16621e-08)
(0.00106191 6.20302e-07 1.17338e-07)
(0.000794668 5.52168e-07 1.55778e-08)
(0.000794883 1.06207e-06 1.16093e-07)
(0.00106039 1.08103e-06 7.48793e-08)
(0.000792744 3.57899e-07 7.39299e-08)
(0.000793478 6.00087e-08 5.05958e-08)
(0.00105845 5.57597e-07 2.44738e-07)
(0.000791322 4.43277e-07 5.11138e-08)
(0.000792225 3.96106e-07 3.49192e-08)
(0.00105613 5.64729e-07 1.67511e-07)
(0.000789663 2.49054e-07 1.70854e-08)
(0.00079055 -7.05042e-07 1.65662e-08)
(0.00105401 7.68566e-07 2.82662e-07)
(0.000788266 -4.22255e-08 4.46283e-08)
(0.000788894 -8.48578e-08 3.63921e-08)
(0.00105203 2.42819e-08 1.7476e-07)
(0.000786924 4.56803e-09 4.8073e-08)
(0.000787556 -5.45063e-09 4.78846e-08)
(0.00105025 -6.63532e-08 1.73223e-07)
(0.00078553 5.57285e-08 4.44771e-08)
(0.000786174 2.54516e-07 5.07616e-08)
(0.00104836 1.05795e-07 1.5964e-07)
(0.000784081 8.45276e-09 4.23962e-08)
(0.000784753 -3.28493e-08 4.40666e-08)
(0.00104654 5.63578e-08 1.73167e-07)
(0.000782703 -7.37538e-08 3.94095e-08)
(0.000783317 -2.03701e-08 4.57408e-08)
(0.0010446 -3.76103e-08 1.76257e-07)
(0.000781295 -2.02537e-07 2.41774e-08)
(0.000781919 1.59566e-08 4.46943e-08)
(0.0010428 -1.64476e-07 1.70542e-07)
(0.000779607 -3.27469e-07 -1.71212e-09)
(0.000780435 -2.19096e-07 2.94129e-08)
(0.00104064 -4.04192e-07 1.90127e-07)
(0.000778622 -2.34728e-07 1.578e-08)
(0.000779191 6.53847e-07 -7.37006e-08)
(0.00103878 -5.12702e-07 4.35617e-08)
(0.000777182 1.8415e-08 3.87538e-08)
(0.000778018 -7.22482e-08 6.03871e-08)
(0.00103722 -1.19572e-07 1.78619e-07)
(0.00077597 2.47713e-07 2.91915e-08)
(0.000776638 2.11301e-07 3.1506e-08)
(0.0010355 2.11657e-07 1.23633e-07)
(0.000774143 4.56479e-07 9.80565e-09)
(0.000775223 3.88131e-08 3.36207e-08)
(0.00103341 5.27501e-07 1.17346e-07)
(0.000773381 3.7194e-07 1.01846e-08)
(0.000773798 -1.48473e-06 2.20674e-08)
(0.00103177 7.36541e-07 1.37549e-07)
(0.000772048 1.50181e-07 3.63573e-08)
(0.000772496 3.64128e-07 4.23088e-08)
(0.0010303 2.59629e-07 1.40872e-07)
(0.000770683 8.80904e-08 5.88076e-08)
(0.000771304 9.97412e-08 4.59406e-08)
(0.0010284 1.41479e-07 1.62579e-07)
(0.000769221 1.87645e-07 6.30322e-08)
(0.000770032 9.78526e-07 4.31778e-08)
(0.00102663 6.83925e-08 1.05228e-07)
(0.000767176 2.54634e-07 4.84152e-08)
(0.000768222 1.22847e-06 4.68058e-08)
(0.00102419 3.73642e-07 1.70971e-07)
(0.000765984 2.41791e-07 9.83194e-08)
(0.00076655 -1.41546e-08 5.10411e-08)
(0.001022 2.6644e-07 1.67483e-07)
(0.000765237 -1.3484e-06 1.00468e-07)
(0.00102046 3.70306e-07 1.9046e-07)
(-0.0032438 -0.0079582 -0.000481959)
(0.00452704 -0.00591616 -0.000752319)
(-0.00930385 0.00729018 -0.00616235)
(0.0238322 -0.00143974 0.0108465)
(-0.00307911 0.00320675 0.000506367)
(0.00405789 0.00997191 -0.00111727)
(-0.00225214 -0.0226487 0.00133965)
(-0.0046163 -0.0122906 -6.35612e-05)
(-0.00520781 -0.0165706 -0.00241258)
(0.00271545 -0.00162803 -0.0063827)
(-0.0100709 -0.00791999 0.0129776)
(0.00441169 -0.00302956 -0.00329823)
(-0.00275853 -0.00498993 -0.000440839)
(-0.0040342 -0.0136752 -0.00205675)
(-0.00565403 -0.00389036 0.000197809)
(-0.00994845 -0.00113333 0.00417126)
(-0.0210487 -0.0181057 0.00236732)
(-0.0201019 0.000852335 0.00411355)
(-0.0258375 -0.0196297 -0.000783536)
(0.00689266 -0.0182869 0.00148465)
(0.0019581 -0.0179152 0.000786751)
(0.0034084 -0.0214721 -0.000832307)
(-0.00767987 -0.0189259 0.00153674)
(-0.00473561 -0.00166401 -0.00154926)
(-0.00600288 -0.00845213 -0.00072413)
(-0.0170628 -0.0151371 -0.0010691)
(-0.0173664 -0.0184461 -0.0235455)
(-0.00730751 -0.0128756 0.0196581)
(-0.0078119 0.0201328 6.8341e-05)
(-0.0181087 -0.00227155 -5.4013e-05)
(0.00348639 -0.0115276 -0.000581419)
(0.000266705 0.0189455 0.000387009)
(-0.00549243 -0.00266314 -0.002161)
(-0.00126676 -0.0140239 -0.00168615)
(0.00101887 0.00806867 0.00103673)
(0.0102429 -0.00464596 0.00214675)
(0.0184026 0.000991107 0.000194662)
(-0.00802839 -0.0109615 -0.000389708)
(-0.00520321 -0.00227507 0.000703972)
(-0.00666029 -0.00491672 0.0013996)
(-0.00837169 -0.00553049 -0.000197464)
(-0.0107741 -0.0172378 0.00136297)
(0.0115697 -0.00208454 0.00108815)
(0.0182579 0.00239036 0.00267283)
(-0.00285784 -0.00950686 0.000723047)
(0.0113634 -0.00811695 9.55108e-05)
(0.00623954 -0.0103161 0.000108493)
(0.0105426 -0.00670657 4.59898e-06)
(0.0127565 -0.0084111 -0.000368456)
(0.0107315 -0.0154961 -0.000342246)
(0.000715974 -0.000828294 1.02685e-05)
(0.00124981 -0.000899078 -4.08788e-05)
(0.00126172 -0.000234555 -4.92578e-06)
(0.00121894 -0.00131762 -4.83043e-05)
(0.00078304 -0.000596621 3.19966e-05)
(0.00209421 -0.00161556 3.98448e-05)
(0.00101228 -0.000417354 8.53491e-05)
(0.00121839 -0.000542328 -1.12993e-05)
(0.00111881 -0.00050679 5.40466e-06)
(0.00131253 -0.000544384 1.9968e-05)
(0.00111997 -0.000484242 1.80533e-06)
(0.000962666 -7.4994e-05 5.97587e-05)
(0.00102067 -7.11049e-05 4.87012e-06)
(0.0012139 -2.15951e-06 2.52194e-06)
(0.00123894 -7.56855e-05 -2.32117e-05)
(0.00118237 -6.21787e-05 1.66066e-05)
(0.000509576 -3.28097e-05 1.26734e-06)