/*--------------------------------*- C++ -*----------------------------------*\
| =========                 |                                                 |
| \\      /  F ield         | OpenFOAM: The Open Source CFD Toolbox           |
|  \\    /   O peration     | Version:  5.0                                   |
|   \\  /    A nd           | Web:      www.OpenFOAM.org                      |
|    \\/     M anipulation  |                                                 |
\*---------------------------------------------------------------------------*/
FoamFile
{
    version     2.0;
    format      ascii;
    class       surfaceVectorField;
    location    "4.5";
    object      Uf_0;
}
// * * * * * * * * * * * * * * * * * * * * * * * * * * * * * * * * * * * * * //

dimensions      [0 1 -1 0 0 0 0];

internalField   nonuniform List<vector> 
26170
(
(0.00359733 -3.88631e-05 0.000203808)
(-0.00015244 -0.0014637 0.000261269)
(0.00741095 0.0100507 0.00632844)
(0.0139824 -0.00343165 -0.00198079)
(-0.0110383 0.00439874 -0.00439644)
(-0.0122282 0.00054389 0.00274538)
(0.00593779 -0.00365343 -0.000237796)
(0.0026725 0.00199317 -0.000114275)
(0.00710243 0.00112735 -0.000327308)
(0.00359723 -0.0070313 -0.000246022)
(0.00382816 -0.00569163 -6.67171e-05)
(0.0133138 -0.00756241 -0.000298065)
(0.00422659 -0.00718903 -0.000206766)
(0.00338279 -0.000379143 -2.58918e-05)
(-0.00732655 -0.00694412 -0.000291121)
(-0.000912461 -0.00159069 0.00013496)
(0.00694036 -0.0132545 -0.0007294)
(0.00347236 -0.000129131 0.000114348)
(-0.00305307 -0.00788604 -2.18506e-05)
(0.00442993 -0.000383766 -0.000226217)
(-0.0049378 -0.00491824 0.000123887)
(-0.00272725 0.0025747 0.00202058)
(7.42823e-05 -0.00398108 -0.000779497)
(0.0013305 0.00714195 -0.00118851)
(0.011618 -0.00371744 -0.000124092)
(0.00297053 -0.00352982 -7.62085e-05)
(0.00991449 -0.0131394 -0.000606233)
(0.00446726 -0.00272549 4.6975e-05)
(0.0023318 -0.00325566 -1.17042e-05)
(0.00221731 -0.000743076 6.02943e-05)
(0.00363428 -0.00773906 -0.000141378)
(0.000974009 -0.00065711 5.90757e-05)
(0.000975248 -6.65512e-05 9.32325e-06)
(0.001075 -0.000298266 -1.07879e-05)
(0.00102301 -7.59719e-05 1.72059e-05)
(0.000499265 1.02017e-05 1.25808e-06)
(0.000485464 7.99486e-06 -2.98749e-06)
(0.000485839 2.3656e-05 2.40124e-07)
(0.000788278 3.49503e-05 6.16101e-08)
(0.000845887 2.03523e-06 -1.00519e-06)
(0.000905018 8.00133e-06 -1.50229e-06)
(0.00119544 2.42018e-06 -1.2957e-06)
(0.000629835 -3.23634e-06 -4.33102e-06)
(0.000622702 -5.16271e-06 -5.1912e-06)
(0.00106078 -1.0607e-05 -5.25179e-06)
(0.00103316 -1.52176e-05 -6.55502e-06)
(0.000839769 1.03374e-06 -1.01446e-07)
(0.000832377 5.41843e-06 -4.84139e-07)
(0.00110913 1.98652e-07 1.01481e-07)
(0.000833643 9.57113e-07 1.30711e-07)
(0.000838271 3.76223e-06 1.74065e-07)
(0.0011165 9.17769e-07 2.05665e-07)
(0.000829459 7.67537e-07 3.37597e-08)
(0.000830702 2.78519e-06 4.04621e-08)
(0.00110677 6.3905e-07 1.8231e-07)
(0.000826388 7.47049e-07 4.76665e-08)
(0.000827539 8.03625e-07 2.27024e-08)
(0.00110299 7.64123e-07 2.17688e-07)
(0.000823282 6.09377e-07 6.79535e-08)
(0.000824337 7.89324e-07 6.2944e-08)
(0.00109888 8.11677e-07 1.86106e-07)
(0.000820674 4.33989e-07 3.23757e-08)
(0.000821707 8.20336e-07 5.00904e-08)
(0.00109504 5.56763e-07 1.84758e-07)
(0.00081877 2.39375e-07 3.26915e-08)
(0.000819513 1.49873e-07 4.20747e-08)
(0.00109215 4.29015e-07 1.8894e-07)
(0.000816749 6.60573e-08 6.21321e-08)
(0.000817558 5.62554e-07 5.75099e-08)
(0.00108959 1.04509e-07 1.76645e-07)
(0.000814945 -5.05405e-09 6.66793e-08)
(0.000815795 1.97551e-07 5.92995e-08)
(0.00108711 3.13174e-08 1.83031e-07)
(0.000813166 -1.19125e-07 7.89452e-08)
(0.000814083 -2.19449e-07 8.10562e-08)
(0.00108463 -5.97582e-08 1.90737e-07)
(0.000811703 -1.72919e-07 8.23802e-08)
(0.000812462 1.95254e-07 6.29407e-08)
(0.00108245 -2.66345e-07 1.12246e-07)
(0.000810308 -4.21973e-08 6.57763e-08)
(0.000810972 1.97631e-07 6.81839e-08)
(0.00108069 -1.75646e-07 1.10516e-07)
(0.000808466 1.08418e-07 3.87426e-08)
(0.000809411 1.89544e-07 6.28092e-08)
(0.00107843 1.12395e-07 1.76917e-07)
(0.000806998 1.4131e-07 3.04047e-08)
(0.00080776 5.28783e-07 4.19114e-08)
(0.00107618 2.33626e-07 1.24336e-07)
(0.000805351 9.53259e-08 5.42626e-08)
(0.00080615 -5.11052e-08 3.99798e-08)
(0.00107415 1.99048e-07 1.90726e-07)
(0.000803742 1.35932e-07 4.56447e-08)
(0.00080459 2.47224e-07 4.99626e-08)
(0.00107199 1.49625e-07 1.79125e-07)
(0.000802375 1.75189e-07 4.00011e-08)
(0.000803054 -1.18667e-06 9.99891e-08)
(0.00106999 3.40301e-07 2.60288e-07)
(0.000800903 1.01461e-07 4.96843e-08)
(0.000801523 -3.85337e-07 4.38589e-08)
(0.00106806 2.22721e-07 1.91755e-07)
(0.000799329 1.05044e-07 4.75057e-08)
(0.000800089 1.94903e-08 4.71736e-08)
(0.00106619 8.58514e-08 1.78775e-07)
(0.000797558 -1.53585e-08 1.00867e-07)
(0.000798376 -2.8215e-07 6.83035e-10)
(0.00106383 1.85644e-07 2.27557e-07)
(0.000796045 -4.18716e-07 5.01053e-08)
(0.00079653 8.66395e-08 1.16999e-07)
(0.00106154 -2.68799e-07 1.4457e-07)
(0.000794557 -5.96811e-07 -3.7595e-08)
(0.000795199 1.88262e-06 3.82623e-08)
(0.00105967 -8.97572e-07 -1.518e-08)
(0.00079275 -4.42456e-07 3.9603e-08)
(0.000793863 1.11642e-06 1.62484e-08)
(0.00105735 -7.30858e-07 9.00909e-08)
(0.00079157 -1.66581e-07 1.13858e-07)
(0.000792447 -1.0293e-08 1.38997e-07)
(0.00105534 -4.62957e-07 1.97175e-07)
(0.000790742 1.27069e-07 8.50662e-08)
(0.000791302 -1.72433e-06 1.98991e-07)
(0.00105418 1.61672e-08 2.29937e-07)
(0.000788906 1.99621e-07 5.31155e-08)
(0.000789714 2.41896e-07 4.18592e-08)
(0.00105238 3.18459e-07 1.6631e-07)
(0.000787347 1.58226e-07 1.05135e-07)
(0.000787985 -1.91612e-08 4.84818e-08)
(0.00105006 2.34613e-07 2.03865e-07)
(0.000785445 1.42115e-07 8.48844e-08)
(0.000786503 2.63705e-08 9.29816e-08)
(0.00104771 2.13804e-07 1.23973e-07)
(0.000784106 2.5103e-07 -1.73075e-08)
(0.000784974 1.24991e-07 4.01032e-08)
(0.00104541 2.02867e-07 1.63616e-07)
(0.000782545 4.04e-07 9.86337e-09)
(0.000783487 2.42947e-07 -1.83027e-08)
(0.00104362 5.47216e-07 1.89853e-07)
(0.000781736 2.39886e-07 5.50877e-08)
(0.000782056 -1.13788e-06 7.30835e-08)
(0.00104217 5.8487e-07 1.98346e-07)
(0.000780152 -5.07793e-09 4.90585e-08)
(0.00078066 1.43147e-07 4.4327e-08)
(0.00104046 6.77225e-08 1.7535e-07)
(0.000778729 -2.30033e-07 2.87206e-08)
(0.00077918 -4.56127e-08 7.19113e-08)
(0.00103831 -6.28933e-08 1.61132e-07)
(0.000777129 -3.91928e-07 1.08751e-07)
(0.000777823 7.1576e-07 3.60053e-08)
(0.00103656 -5.44841e-07 1.12436e-07)
(0.000775961 -3.08779e-07 1.32782e-07)
(0.00077653 -3.34671e-07 1.40077e-07)
(0.00103459 -4.89787e-07 1.93406e-07)
(0.000774237 -2.21495e-07 4.80973e-08)
(0.000775103 1.14814e-07 4.6904e-08)
(0.00103258 -3.23719e-07 1.70447e-07)
(0.000772801 -2.44243e-07 6.06634e-08)
(0.000773563 -9.82023e-08 5.06384e-08)
(0.00103051 -2.84191e-07 1.48356e-07)
(0.000771499 -4.00438e-07 5.21749e-08)
(0.000772148 -1.00454e-07 7.48932e-08)
(0.00102864 -3.50434e-07 1.76821e-07)
(0.000769999 -4.36681e-07 3.70963e-08)
(0.000770831 -3.36263e-07 4.2524e-08)
(0.00102695 -6.52165e-07 1.69367e-07)
(0.00076843 -2.97762e-07 5.36089e-08)
(0.000769186 -2.252e-07 4.5685e-08)
(0.00102478 -4.6967e-07 1.61456e-07)
(0.000767786 -4.70832e-07 4.98358e-08)
(0.00102252 -3.30865e-07 2.65497e-07)
(-0.000978261 0.000819681 -5.66892e-05)
(0.00336693 -0.00290508 -0.000109808)
(0.00266604 0.00288914 0.000247762)
(0.00105287 -0.00207176 5.67879e-05)
(5.47199e-06 0.00338524 0.00010411)
(0.00836628 0.00121531 0.00266199)
(-0.00181435 0.00290549 -0.000672769)
(0.000662529 0.0086842 0.00140304)
(-0.000679522 0.00562396 -0.00193232)
(0.00318567 -0.00336739 -0.00333482)
(-4.40198e-05 0.00314007 -0.00154419)
(-0.00187908 -0.00143879 0.000695435)
(0.00328537 -0.00108817 9.3649e-05)
(0.000632674 0.00659737 -0.000206826)
(-0.00117997 -0.00354708 -0.0200328)
(-0.0024533 0.004107 8.44922e-05)
(0.00437263 -0.000690524 -0.000106632)
(-0.00297384 0.0023709 -0.000765032)
(0.00755715 0.000987726 0.00038842)
(-0.00203575 0.00610089 0.000676281)
(0.0101196 0.00230885 -0.00085618)
(-0.000711864 -0.00318587 -0.0151234)
(-2.78889e-05 -0.00539096 0.0116418)
(0.00111198 -0.00203901 0.0210831)
(0.000661729 -0.0039781 -6.00043e-05)
(0.000200876 0.00475911 -6.80336e-05)
(0.00579994 0.00112325 -0.000124432)
(-0.000681028 -0.00403826 -0.000321594)
(0.0117102 -0.00561782 -5.67767e-05)
(-0.00579041 -0.00799084 -0.00196448)
(-0.00405912 -0.00722178 -0.000439088)
(0.00216514 0.00428892 0.00181134)
(0.0109144 0.00616176 -0.000648639)
(0.0112213 0.0139265 -0.000951959)
(0.00148625 -0.00251391 0.000615953)
(-0.00725632 0.00258933 -0.000243024)
(-0.0121601 0.0019948 -4.85341e-06)
(-0.0102972 0.0024997 -0.000319964)
(-0.00709632 0.00351271 0.000557361)
(-0.0165456 0.000282099 -0.000219306)
(0.0010745 0.000263747 3.27711e-05)
(0.00160758 0.000372534 2.97573e-05)
(0.00197795 0.000323718 7.69436e-05)
(0.00163392 0.000136058 -2.69825e-05)
(0.0014339 0.000147631 4.11815e-05)
(0.000348077 1.23011e-05 -2.6644e-06)
(0.000521173 1.5151e-05 -3.41447e-06)
(0.00049762 1.33011e-05 -4.07012e-07)
(0.000842745 1.87209e-05 -1.55484e-06)
(0.000360307 2.50884e-05 -2.67189e-06)
(0.00063453 2.606e-05 -2.82344e-06)
(0.000667059 6.00468e-05 -2.12612e-06)
(0.000501673 1.32622e-05 -3.42121e-07)
(0.000848169 1.23476e-05 -9.81579e-07)
(0.000887792 1.44842e-05 -1.95532e-06)
(0.0012152 1.53643e-05 -1.20761e-06)
(0.000630262 1.63301e-05 -3.88774e-06)
(0.00063015 3.00682e-05 -5.07261e-06)
(0.00104427 3.03314e-05 -4.717e-06)
(0.00104883 6.27909e-05 -6.45949e-06)
(0.000839169 9.19396e-06 -2.08843e-07)
(0.000828536 1.65771e-05 -3.52026e-07)
(0.00110784 1.41186e-05 4.9571e-08)
(0.000833122 5.72109e-06 8.38605e-08)
(0.000833931 9.05903e-06 1.37632e-07)
(0.0011164 8.13828e-06 1.99787e-07)
(0.000828874 3.87132e-06 2.94106e-08)
(0.00082839 6.17169e-06 4.04087e-08)
(0.00110633 5.67665e-06 1.75985e-07)
(0.000825291 2.45737e-06 3.79669e-08)
(0.000825771 3.71952e-06 4.63845e-08)
(0.00110195 3.73066e-06 1.51596e-07)
(0.000822592 1.51801e-06 4.50851e-08)
(0.000823163 2.29659e-06 4.78018e-08)
(0.0010977 2.22595e-06 1.72379e-07)
(0.000820495 1.00609e-06 5.9792e-08)
(0.000821067 1.46417e-06 5.23245e-08)
(0.00109461 1.42531e-06 1.80185e-07)
(0.000818216 7.1267e-07 6.68881e-08)
(0.000819146 1.12529e-06 6.2596e-08)
(0.00109173 9.86031e-07 1.73265e-07)
(0.000816547 5.79571e-07 5.46767e-08)
(0.000817392 6.09241e-07 5.91197e-08)
(0.00108914 7.0972e-07 1.84869e-07)
(0.000814912 5.46687e-07 7.36694e-08)
(0.000815754 3.6559e-08 4.26008e-08)
(0.00108693 6.43548e-07 1.96435e-07)
(0.000813394 4.52797e-07 6.50575e-08)
(0.000813965 -1.26803e-07 1.01087e-07)
(0.0010848 6.27312e-07 1.69094e-07)
(0.000811671 3.32688e-07 4.87427e-08)
(0.000812312 3.47035e-07 3.611e-08)
(0.00108265 4.53e-07 1.82887e-07)
(0.00081011 1.90457e-07 6.52185e-08)
(0.000810794 -1.83049e-07 4.12914e-08)
(0.00108046 3.69383e-07 2.05947e-07)
(0.000808723 1.19034e-07 6.59847e-08)
(0.000809321 3.21647e-09 5.55262e-08)
(0.00107852 1.05849e-07 1.77535e-07)
(0.000806923 1.27538e-07 5.14871e-08)
(0.00080777 5.85756e-08 6.90881e-08)
(0.00107634 2.23054e-07 2.33478e-07)
(0.000805312 1.84014e-07 3.56766e-08)
(0.000806219 1.71158e-07 4.60212e-08)
(0.00107411 1.65847e-07 1.68917e-07)
(0.000803902 1.62693e-07 1.04291e-07)
(0.000804562 1.57057e-07 3.26711e-08)
(0.00107212 3.79291e-07 1.7344e-07)
(0.000802237 -3.20005e-09 1.03865e-07)
(0.000802846 -4.38646e-07 9.77957e-08)
(0.00106996 1.00688e-07 1.37105e-07)
(0.000800677 -1.39797e-07 4.13472e-08)
(0.000801352 -3.6019e-08 5.14188e-08)
(0.00106777 -6.59027e-08 1.56041e-07)
(0.000799239 -4.61566e-07 3.65703e-10)
(0.000799688 5.37556e-08 5.7137e-08)
(0.00106585 -2.8454e-07 1.67569e-07)
(0.000797314 -6.3957e-07 1.67789e-08)
(0.000798155 2.99311e-06 1.66831e-08)
(0.00106363 -9.72786e-07 -1.7715e-08)
(0.000795496 -5.15195e-07 1.05181e-07)
(0.000796689 6.35155e-07 9.76474e-08)
(0.00106099 -7.60019e-07 1.6515e-07)
(0.000794637 -3.68712e-07 9.21126e-08)
(0.000795384 -1.31305e-07 1.16571e-07)
(0.00105931 -6.10212e-07 2.61763e-07)
(0.000793521 3.04744e-08 1.15604e-07)
(0.000794363 -1.83135e-07 5.67495e-08)
(0.00105804 -3.65653e-07 2.34307e-07)
(0.000792094 4.5792e-07 2.24111e-07)
(0.00079298 4.14373e-07 2.32136e-07)
(0.00105629 4.84889e-07 1.39726e-07)
(0.000790552 3.07791e-07 1.55833e-07)
(0.000791112 5.04026e-07 1.95554e-07)
(0.0010544 7.8187e-07 2.1882e-08)
(0.000788554 5.40257e-08 3.72234e-08)
(0.000789396 8.95347e-07 7.73105e-08)
(0.00105197 7.76496e-08 1.74591e-07)
(0.000787231 6.60834e-08 3.63149e-08)
(0.000787999 -1.0694e-07 4.19086e-08)
(0.00104968 1.07915e-07 1.67281e-07)
(0.000785995 1.19164e-07 4.82169e-08)
(0.000786569 -2.29689e-07 4.70393e-08)
(0.00104802 9.66815e-08 1.71935e-07)
(0.000784387 2.62463e-07 3.91261e-08)
(0.000785151 1.55743e-07 5.08513e-08)
(0.00104622 2.75011e-07 1.84827e-07)
(0.000782917 4.1229e-07 4.48891e-08)
(0.000783673 3.97627e-07 3.5524e-08)
(0.00104408 5.30413e-07 1.63664e-07)
(0.000781007 3.45486e-07 6.23317e-08)
(0.000781971 -4.10521e-07 8.09748e-08)
(0.0010417 6.56404e-07 1.62232e-07)
(0.000779716 9.04463e-08 6.71713e-08)
(0.000780341 -2.31068e-08 6.352e-08)
(0.00103964 2.82883e-07 1.71113e-07)
(0.000778275 -1.19002e-07 7.9207e-08)
(0.000778918 -6.76806e-08 5.80616e-08)
(0.0010378 -4.51806e-08 1.74356e-07)
(0.000777117 -2.08431e-07 6.72989e-08)
(0.000777713 -8.43771e-09 1.30084e-07)
(0.00103601 -2.67643e-07 1.99785e-07)
(0.000775808 -1.52979e-07 5.4227e-08)
(0.000776601 -1.81539e-08 6.26212e-08)
(0.00103452 -3.33819e-07 1.38319e-07)
(0.000774415 -1.12395e-07 4.94439e-08)
(0.000775155 6.79352e-10 6.39248e-08)
(0.00103268 -1.39903e-07 1.77292e-07)
(0.00077283 -3.41362e-08 6.48608e-08)
(0.000773662 8.01105e-08 4.81434e-08)
(0.00103069 -1.93297e-07 1.7374e-07)
(0.000771514 -2.57398e-08 6.52522e-08)
(0.000772159 -1.42972e-06 1.21674e-07)
(0.00102876 1.11037e-07 2.59286e-07)
(0.00077013 -1.88484e-07 5.11116e-08)
(0.000770627 -4.46218e-07 5.97921e-08)
(0.00102693 -1.32911e-07 1.76821e-07)
(0.000768312 -2.46496e-07 4.19107e-08)
(0.000769116 3.04265e-07 5.99447e-08)
(0.0010247 -3.42507e-07 1.70012e-07)
(0.000768093 9.54919e-08 4.78523e-08)
(0.00102321 -3.09184e-07 7.92389e-08)
(0.00545719 -0.000996986 6.86464e-05)
(0.0119079 -0.000168534 0.000377119)
(0.0129584 -0.00497221 0.00513087)
(0.0200041 -0.0104905 -0.00803306)
(0.00339738 -0.00037308 0.000469406)
(0.0118498 -0.0176728 0.00123628)
(0.00181148 -0.00586518 -0.000801476)
(0.0065614 0.00436107 0.00136728)
(-0.00483432 -0.000208807 0.000774921)
(-0.00505136 0.0051427 -0.000267593)
(0.0006001 -0.00283576 -0.000351939)
(0.000393056 0.00578239 0.00129326)
(0.0050388 0.00828518 -6.27464e-05)
(-0.00315634 0.0116241 0.000641033)
(-0.00150034 0.0132041 -0.000492582)
(0.00318021 0.0109574 -0.000688206)
(-2.05535e-05 0.000384917 0.000897463)
(-0.00763944 0.00527329 0.00148654)
(0.00171308 0.00592865 0.000879345)
(-0.00135055 0.00810568 0.000393342)
(0.00820018 0.00608315 0.000621261)
(0.002402 0.000738228 0.000633834)
(-0.00463121 -0.000759494 -0.000211582)
(0.00919826 0.0038119 -0.000453672)
(0.00526289 0.00659259 -0.000475209)
(0.00135584 0.00480307 -0.00155526)
(0.00296015 0.000337751 4.58676e-05)
(0.000191096 0.00948307 -0.000392243)
(0.00123648 0.00099976 -2.11309e-05)
(-0.012679 0.00460831 -0.000560749)
(0.00288449 0.00315148 -0.000375477)
(0.000417594 -0.00025165 1.11943e-05)
(0.0003828 -0.000144252 6.275e-05)
(0.000141264 -0.000786123 1.26817e-05)
(-0.000117546 -0.000752433 3.56489e-05)
(0.000508374 -0.000167952 6.43905e-05)
(0.000268632 7.20012e-07 9.50839e-06)
(0.000331539 1.77599e-05 4.45151e-07)
(0.000267113 9.85291e-06 1.32159e-06)
(0.000458638 3.68131e-05 3.22518e-06)
(0.000236901 1.56399e-05 -1.48524e-06)
(0.000832994 1.41958e-05 -1.32629e-06)
(0.000862686 1.83466e-06 -2.29938e-06)
(0.00115171 1.37834e-05 -1.26977e-06)
(0.000600473 2.45747e-05 -4.21388e-06)
(0.000601111 3.55779e-06 -4.80202e-06)
(0.00101227 5.11562e-05 -4.8582e-06)
(0.00101513 3.12109e-06 -5.52416e-06)
(0.000829842 1.31095e-05 -5.7109e-09)
(0.000827111 1.89883e-05 -2.04827e-07)
(0.00110043 2.10439e-05 1.48268e-07)
(0.000827711 8.0482e-06 9.42121e-08)
(0.000827591 9.44922e-06 8.28331e-08)
(0.00110596 1.17686e-05 2.00349e-07)
(0.000825458 5.31249e-06 5.73807e-08)
(0.000824963 6.94978e-06 4.84228e-08)
(0.00110127 8.2845e-06 1.83685e-07)
(0.000823456 3.26461e-06 5.6219e-08)
(0.000823206 4.19689e-06 5.40268e-08)
(0.00109869 4.97608e-06 1.83103e-07)
(0.00082154 2.07195e-06 5.50397e-08)
(0.000821669 2.68072e-06 5.49359e-08)
(0.001096 3.14809e-06 1.8238e-07)
(0.000819745 1.28954e-06 5.51252e-08)
(0.000820087 1.69629e-06 5.35117e-08)
(0.0010935 1.99528e-06 1.82548e-07)
(0.000818196 8.1762e-07 5.48288e-08)
(0.000818556 1.05988e-06 5.38638e-08)
(0.00109126 1.19767e-06 1.82125e-07)
(0.000816677 5.61211e-07 4.70491e-08)
(0.000817071 5.36354e-07 5.30182e-08)
(0.00108916 8.12857e-07 1.80228e-07)
(0.000814837 3.64086e-07 7e-08)
(0.000815508 6.55367e-07 6.90528e-08)
(0.00108701 5.55311e-07 1.60305e-07)
(0.000812752 2.3632e-07 7.21608e-08)
(0.000813806 4.30497e-07 6.9104e-08)
(0.0010844 3.09463e-07 1.85991e-07)
(0.000811461 1.52117e-07 2.86571e-08)
(0.000812207 3.11129e-08 3.69944e-08)
(0.00108213 2.27049e-07 1.77927e-07)
(0.000809961 8.7055e-08 3.15946e-08)
(0.000810713 1.4466e-07 4.43224e-09)
(0.00108025 1.03326e-07 1.51467e-07)
(0.000808445 -2.41892e-08 5.86254e-08)
(0.000809182 -4.81299e-08 5.09398e-08)
(0.00107824 6.99319e-08 1.79422e-07)
(0.000807012 -1.4157e-07 6.36295e-08)
(0.000807624 3.49542e-07 5.58631e-08)
(0.00107626 -1.62728e-07 1.4844e-07)
(0.000805548 -2.49517e-07 4.30199e-08)
(0.000806085 1.44411e-07 7.66401e-08)
(0.00107435 -2.02245e-07 1.73442e-07)
(0.000803404 -2.53385e-07 2.6155e-08)
(0.000804558 1.08661e-06 6.28303e-08)
(0.00107191 -4.56982e-07 1.66269e-07)
(0.000801977 -1.67915e-07 4.53644e-08)
(0.000802954 -2.53386e-07 2.7805e-08)
(0.00106943 -2.2751e-07 1.55742e-07)
(0.000800468 -1.28704e-07 6.72067e-08)
(0.000801401 -6.16096e-08 6.31787e-08)
(0.00106758 -1.99131e-07 1.77831e-07)
(0.000798471 -4.82159e-08 7.34671e-08)
(0.000799789 -2.5262e-08 7.38531e-08)
(0.00106506 -9.79847e-08 2.24667e-07)
(0.00079761 1.86307e-07 9.75261e-08)
(0.000798447 -1.0302e-06 7.01286e-08)
(0.00106325 1.19595e-08 4.02869e-07)
(0.000796374 5.3737e-07 1.09032e-07)
(0.000797126 -1.14646e-06 7.16036e-08)
(0.001062 5.22693e-07 2.7828e-07)
(0.000795193 6.61033e-07 8.12268e-08)
(0.000795536 -9.92618e-07 5.35068e-08)
(0.00106017 9.41867e-07 2.08796e-07)
(0.000793908 4.62237e-07 1.73226e-07)
(0.000794111 -1.89762e-06 1.35062e-08)
(0.00105872 8.40884e-07 2.78664e-07)
(0.000792145 2.25101e-07 2.0359e-07)
(0.000792682 3.43852e-07 1.65688e-07)
(0.00105677 4.20939e-07 2.04821e-07)
(0.000789748 1.92692e-08 1.17068e-07)
(0.000790854 1.03321e-07 8.63472e-08)
(0.00105366 2.19683e-07 2.8479e-07)
(0.000788854 -1.88717e-08 8.20067e-08)
(0.000789348 1.90253e-08 4.84647e-08)
(0.00105153 -1.27363e-07 1.85255e-07)
(0.000787359 8.11029e-08 5.26314e-08)
(0.000788124 -1.25117e-07 4.98e-08)
(0.00105008 9.1435e-08 1.77749e-07)
(0.000785716 4.70252e-08 4.96725e-08)
(0.000786526 1.56695e-08 7.09713e-08)
(0.00104792 1.26603e-07 1.72404e-07)
(0.000784389 5.07517e-08 4.72539e-08)
(0.000785156 -1.20438e-08 4.72589e-08)
(0.00104595 1.11206e-08 1.73827e-07)
(0.00078287 3.38149e-08 7.15957e-08)
(0.000783652 5.32831e-07 2.13097e-08)
(0.00104409 1.00609e-07 1.69488e-07)
(0.000781201 5.24695e-09 8.21686e-08)
(0.000781935 8.67628e-07 2.99051e-08)
(0.00104186 -5.50741e-08 1.01013e-07)
(0.000779533 5.69484e-08 5.4412e-08)
(0.000780405 4.22037e-07 2.2857e-08)
(0.00103958 4.19067e-08 1.60924e-07)
(0.000778264 1.00583e-07 1.08916e-07)
(0.000778972 2.78376e-07 1.33978e-07)
(0.00103763 1.11708e-07 1.32237e-07)
(0.000777276 1.87221e-07 1.25427e-07)
(0.00077782 2.46818e-07 1.44712e-07)
(0.0010362 2.25212e-07 1.13547e-07)
(0.000776009 2.13865e-07 7.23186e-08)
(0.000776632 4.29652e-07 6.92634e-08)
(0.00103475 3.66575e-07 1.25039e-07)
(0.000774389 1.73919e-07 6.26292e-08)
(0.000775104 -1.48074e-07 4.77464e-08)
(0.00103276 2.99484e-07 2.00403e-07)
(0.000772937 2.28806e-07 1.04935e-07)
(0.000773729 -1.08605e-07 4.66298e-08)
(0.00103082 2.68121e-07 1.88349e-07)
(0.000771276 2.14361e-07 1.16233e-07)
(0.000772139 2.11991e-07 1.2057e-07)
(0.00102871 3.97323e-07 7.43236e-08)
(0.000769667 7.8357e-08 6.86251e-08)
(0.000770457 -5.82611e-08 4.52723e-08)
(0.00102639 2.18303e-07 1.60953e-07)
(0.000768633 4.7398e-08 6.58901e-08)
(0.000769076 -2.00503e-07 5.30693e-08)
(0.00102457 4.03995e-08 1.73903e-07)
(0.000768034 1.37028e-07 6.11851e-08)
(0.00102333 1.05895e-07 1.61037e-07)
(0.019817 0.01689 0.000321947)
(0.0104679 0.00485724 -0.00022583)
(0.00107741 0.0095329 -0.00963599)
(0.0118123 0.00655688 0.0146162)
(0.00395221 0.000431045 -0.0041118)
(0.024112 0.00603641 -0.00420908)
(-0.00149718 0.00860484 0.00600593)
(0.0178974 0.0142402 8.98027e-05)
(-0.00852109 0.00590793 0.00562753)
(0.00442282 0.0112096 0.000601104)
(0.00646155 0.0234654 0.00417178)
(0.0270557 0.0193111 0.000142047)
(0.0120137 0.00633104 -0.000548412)
(-0.0254811 -0.00152763 -0.00013438)
(-0.0239653 -0.00544216 0.000914769)
(-0.0210653 -0.00185121 0.000972701)
(-0.0191388 0.00304175 0.00139075)
(-0.0206468 -0.0010127 0.00113958)
(-0.000643128 -0.00219032 0.0013243)
(0.00186662 0.00412765 0.000844207)
(-0.00124853 -0.000458432 0.000111457)
(0.0250436 0.00795786 0.000612048)
(0.0105299 0.00411661 -0.000385997)
(0.00842018 -0.00680708 -0.000660043)
(0.00226494 -0.00262548 4.27633e-05)
(0.0125701 -0.00608067 -2.37847e-05)
(0.00196282 0.000715066 -0.000851743)
(0.00773081 -0.00326697 -0.00137112)
(-0.00439962 -0.00054234 -0.000255263)
(-0.0119056 0.00013198 0.000602201)
(-0.00481318 -0.00036002 -0.000190645)
(-0.00757366 -0.00452614 -0.000161235)
(-0.0166502 -0.000344696 -0.000329096)
(9.31033e-05 -0.000747172 1.82779e-05)
(0.00047759 -0.000490123 9.81965e-06)
(0.000987424 -0.00173025 -3.12724e-05)
(0.00134539 -0.00330405 5.67823e-05)
(0.000438072 -0.000873539 -4.66674e-05)
(-0.000117595 -0.00115095 0.000105526)
(0.00041006 -0.00139563 -7.62964e-05)
(0.000206529 -0.000923671 3.07136e-05)
(0.000529354 -0.000398888 1.58704e-05)
(0.000339292 -0.000875765 9.56339e-06)
(-9.27026e-05 -0.00108041 -2.43396e-05)
(0.000569131 -0.000774805 6.50903e-05)
(0.000606527 -0.00127485 -3.28212e-05)
(0.000438737 -0.000804701 3.00664e-05)
(0.00121829 -6.87514e-05 1.62234e-05)
(0.000451948 -0.000109284 3.3843e-05)
(0.000470352 -0.000159582 4.42626e-05)
(0.000626607 -0.000152113 7.7731e-05)
(0.000338588 -8.29182e-05 2.046e-05)
(0.000839051 9.19886e-06 -1.1786e-06)
(0.000569482 -1.29362e-06 -1.77153e-06)
(0.00114951 -1.52825e-05 -1.35432e-06)
(0.000607095 1.37376e-05 -4.66876e-06)
(0.000597702 1.18322e-05 -2.96701e-06)
(0.00101752 3.46572e-05 -4.58284e-06)
(0.00102728 3.04555e-05 8.62718e-07)
(0.000573299 -1.51316e-05 -3.72904e-06)
(0.00094637 1.5375e-06 -8.74782e-07)
(0.000954928 -2.7965e-05 -4.51438e-06)
(0.00082659 1.94301e-05 -1.16377e-07)
(0.000841786 3.3671e-05 -9.15144e-07)
(0.00110517 3.71587e-05 1.05853e-07)
(0.000824601 8.76773e-06 3.70549e-08)
(0.000814237 1.0051e-05 -1.77256e-07)
(0.00110043 1.28894e-05 1.7372e-07)
(0.000822639 5.74089e-06 4.5067e-08)
(0.000821165 7.46556e-06 1.05863e-07)
(0.00109783 9.42914e-06 1.76763e-07)
(0.000821463 3.33952e-06 5.27435e-08)
(0.000820194 3.66239e-06 7.34946e-08)
(0.00109552 5.1929e-06 1.81624e-07)
(0.000820223 2.14485e-06 5.34084e-08)
(0.00082017 2.22429e-06 5.91419e-08)
(0.00109397 3.27976e-06 1.82e-07)
(0.000818885 1.40323e-06 5.22502e-08)
(0.000819157 1.37505e-06 5.19783e-08)
(0.00109217 2.17015e-06 1.81313e-07)
(0.000817426 8.43747e-07 5.20535e-08)
(0.000817854 8.94593e-07 4.86854e-08)
(0.00109025 1.40513e-06 1.81274e-07)
(0.000815978 3.88895e-07 7.50167e-08)
(0.000816501 4.09879e-07 5.21147e-08)
(0.00108834 7.55014e-07 1.77822e-07)
(0.000814507 6.53796e-08 6.81567e-08)
(0.000815103 4.02103e-07 7.63943e-08)
(0.0010863 2.74754e-07 1.88741e-07)
(0.000813156 4.08363e-10 3.39478e-08)
(0.000813724 2.29979e-07 5.37501e-08)
(0.00108439 -7.03755e-08 1.74979e-07)
(0.000811472 4.14609e-08 1.278e-08)
(0.000812258 1.01251e-07 6.13067e-08)
(0.00108239 6.20964e-08 1.85216e-07)
(0.000809957 -2.80012e-09 2.37626e-08)
(0.000810658 1.84544e-08 2.98631e-08)
(0.00108026 2.45354e-09 1.84252e-07)
(0.000808339 -4.36138e-08 4.8176e-08)
(0.000809132 1.46603e-08 6.40006e-08)
(0.00107819 -5.66207e-08 1.80327e-07)
(0.000806675 -6.36367e-08 6.8867e-08)
(0.0008076 1.79098e-07 4.48506e-08)
(0.001076 -1.13777e-07 2.00766e-07)
(0.000805138 -1.3117e-07 9.64549e-08)
(0.000806002 8.57148e-08 9.42948e-08)
(0.00107375 -1.04665e-07 1.81968e-07)
(0.00080409 -4.26239e-08 6.44914e-08)
(0.000804669 2.97389e-07 1.33639e-07)
(0.00107209 -2.73455e-07 1.90621e-07)
(0.00080234 1.7695e-07 4.56081e-08)
(0.000803228 -2.03926e-08 3.94847e-08)
(0.00107028 1.3151e-07 1.80715e-07)
(0.00080081 2.83991e-07 6.98217e-08)
(0.000801534 -3.13737e-08 6.29164e-08)
(0.00106793 3.24621e-07 1.7575e-07)
(0.000799616 6.25902e-07 7.05157e-08)
(0.000800213 -4.69504e-07 5.5688e-08)
(0.00106612 4.72189e-07 1.79837e-07)
(0.000798078 8.34681e-07 4.42056e-08)
(0.000798705 -2.112e-06 3.47967e-08)
(0.0010644 1.2725e-06 2.55254e-07)
(0.000796229 7.54911e-07 1.60844e-08)
(0.000797022 2.75111e-07 5.49132e-08)
(0.00106215 1.00989e-06 1.06253e-07)
(0.000794493 7.37709e-07 -1.42013e-08)
(0.000795511 -3.81542e-07 3.16459e-08)
(0.0010597 1.03914e-06 1.53701e-07)
(0.000792833 4.47333e-07 5.92012e-09)
(0.000793746 2.35679e-07 8.30203e-10)
(0.00105738 9.83938e-07 3.91885e-08)
(0.000791606 4.78835e-08 4.84696e-08)
(0.000792181 -5.66035e-08 4.75043e-08)
(0.00105551 2.6344e-07 1.80542e-07)
(0.000790087 4.28699e-08 1.77555e-08)
(0.000790848 1.38705e-07 5.05073e-08)
(0.00105371 -1.04327e-07 1.75729e-07)
(0.000788859 1.12105e-07 1.62576e-08)
(0.000789434 3.70144e-08 2.12539e-08)
(0.00105181 2.30184e-07 1.51259e-07)
(0.000787247 2.31302e-08 6.81333e-08)
(0.000788013 4.05247e-08 4.68028e-08)
(0.00105 6.22591e-08 1.75092e-07)
(0.000785846 -2.65292e-08 6.8565e-08)
(0.000786464 -2.67851e-08 4.89938e-08)
(0.00104792 -9.38405e-09 1.71347e-07)
(0.000784583 -2.04049e-07 2.13226e-08)
(0.000784935 -2.22304e-07 5.91913e-08)
(0.00104619 -7.63637e-08 1.71203e-07)
(0.000782671 -2.94224e-07 -2.03836e-08)
(0.00078354 2.38757e-06 5.47501e-08)
(0.00104399 -4.87496e-07 8.12655e-08)
(0.00078113 -1.15627e-07 -2.94043e-08)
(0.000782159 -4.75102e-07 2.7853e-09)
(0.00104163 -3.44827e-07 2.7796e-07)
(0.000779838 1.55034e-07 1.02389e-07)
(0.000780744 1.47393e-07 5.98556e-09)
(0.00103985 -1.03516e-08 1.79049e-07)
(0.000778309 4.67077e-07 1.69771e-07)
(0.000779361 8.66026e-08 1.67561e-07)
(0.00103803 4.1652e-07 1.94544e-07)
(0.000777454 4.62915e-07 8.85717e-08)
(0.000777813 -1.47018e-06 7.12515e-08)
(0.00103633 8.32128e-07 2.44235e-07)
(0.00077563 1.54411e-07 4.46978e-08)
(0.000776245 1.58149e-07 3.74189e-08)
(0.00103461 4.47385e-07 2.27578e-07)
(0.000774416 1.97851e-09 3.17474e-08)
(0.000774912 7.0523e-08 4.10481e-08)
(0.00103255 3.99713e-08 1.36898e-07)
(0.000773105 -3.65929e-08 6.22429e-08)
(0.00077368 -3.03471e-08 4.35716e-08)
(0.0010308 1.15147e-08 1.56103e-07)
(0.000771102 -1.25403e-08 4.96323e-08)
(0.000772169 -4.95609e-07 2.21504e-08)
(0.0010287 -9.62937e-08 2.76625e-07)
(0.000769937 1.43043e-07 2.97141e-08)
(0.000770651 -3.37087e-07 8.12586e-09)
(0.00102648 6.55903e-08 1.69107e-07)
(0.000768324 2.2735e-07 4.83618e-08)
(0.000769178 3.84689e-08 7.80357e-08)
(0.00102456 3.12948e-07 1.72484e-07)
(0.000767751 3.22847e-07 6.97579e-08)
(0.00102303 2.91782e-07 1.30917e-07)
(-0.00475694 -0.0113371 -0.000613764)
(0.00409718 -0.00448085 -0.00105161)
(-0.00526311 0.00435259 -0.00370628)
(0.0217592 -0.000749209 0.0212512)
(-0.000194444 0.00291702 -0.00751017)
(0.00244404 0.0108244 -0.00570228)
(-0.0103662 -0.0224515 0.000754991)
(-0.00459418 -0.00405304 -0.000263496)
(-0.00223722 -0.0259622 -0.00160081)
(0.000453596 -0.00145425 -0.00130722)
(-0.00956651 0.000986314 0.00132082)
(-0.00542052 0.00468346 -0.00183982)
(0.000163643 0.000722026 -0.000445883)
(-0.0123353 -0.0136672 -0.00203035)
(-0.00448346 0.00195194 -0.00212664)
(-0.0133801 -0.0189283 0.00359531)
(-0.0237088 -0.0182808 0.00143571)
(-0.00901565 -0.0227585 0.0040125)
(-0.0248246 -0.0173947 -0.00163526)
(0.00998339 -0.0197116 0.00140588)
(0.00464011 -0.0168593 0.000901753)
(0.00410599 -0.0211191 -0.00184092)
(-0.00586706 -0.0189334 0.00150406)
(-0.00472397 -0.000533727 -0.00122934)
(-0.00716507 -0.00838533 -0.000618582)
(-0.0178868 -0.0130087 -0.00111513)
(-0.0227532 -0.0154117 -0.0262137)
(-0.00742729 -0.00871112 0.0231526)
(-0.00914163 0.0216229 0.00205327)
(-0.0151977 0.00204689 -0.00340027)
(0.00799452 -0.0113937 -0.000166398)
(0.00465795 0.0205366 -0.000199032)
(-0.0034755 0.00365834 -5.99646e-05)
(-0.000389064 -0.0113972 -0.00102975)
(0.00180404 0.00665598 0.00106188)
(0.0101461 -0.00460707 0.00172219)
(0.0180444 0.000352975 0.000231421)
(-0.0106149 -0.0116085 -0.00085085)
(-0.00597354 0.00017069 0.00099914)
(-0.00344106 -0.00341446 0.00175123)
(-0.00704662 -0.00448076 -0.000348721)
(-0.00713792 -0.0122404 0.000939258)
(0.0133413 -0.00171163 0.000989541)
(0.0228065 0.00265003 0.00277813)
(-0.00204211 -0.00749403 0.000527994)
(0.011683 -0.00827848 0.00016515)
(0.0070583 -0.00792597 -2.37987e-05)
(0.0108465 -0.0056377 -4.66425e-05)
(0.0124042 -0.00499187 -0.000279092)
(0.0114005 -0.0137174 -0.000540057)
(0.000506606 -0.000804421 9.17182e-06)
(0.00105439 -0.000871889 -3.97375e-05)
(0.00105926 -0.000288057 -5.24729e-06)
(0.000997795 -0.0013466 -4.93757e-05)
(0.000568372 -0.000598138 2.87576e-05)
(0.00184802 -0.00161145 3.77887e-05)
(0.000739721 -0.000421225 7.24298e-05)
(0.00105246 -0.000579472 -9.8583e-06)
(0.000948467 -0.000492247 4.77073e-06)
(0.00114212 -0.000546609 1.93816e-05)
(0.000992839 -0.000512751 3.14034e-06)
(0.000898682 -6.29871e-05 5.82469e-05)
(0.000995805 -5.45771e-05 2.27727e-06)
(0.00118089 7.86084e-06 1.69218e-08)
(0.00118489 -5.67109e-05 -2.65696e-05)
(0.00116332 -4.84301e-05 1.57277e-05)
(0.000468969 -1.49821e-05 1.39648e-06)
(0.000471966 -2.36382e-06 -3.25736e-06)
(0.000445322 1.26245e-05 -4.2713e-07)
(0.000706055 1.00898e-05 -1.17848e-06)
(0.000809589 1.52904e-05 -9.76264e-07)
(0.000851355 4.30005e-06 -1.46324e-06)