/*--------------------------------*- C++ -*----------------------------------*\
| =========                 |                                                 |
| \\      /  F ield         | OpenFOAM: The Open Source CFD Toolbox           |
|  \\    /   O peration     | Version:  5.0                                   |
|   \\  /    A nd           | Web:      www.OpenFOAM.org                      |
|    \\/     M anipulation  |                                                 |
\*---------------------------------------------------------------------------*/
FoamFile
{
    version     2.0;
    format      ascii;
    class       surfaceScalarField;
    location    "3.4";
    object      alphaPhi10;
}
// * * * * * * * * * * * * * * * * * * * * * * * * * * * * * * * * * * * * * //

dimensions      [0 3 -1 0 0 0 0];

internalField   nonuniform List<scalar> 
25186
(
2.5756e-08
-1.09216e-08
5.69887e-08
2.57041e-08
2.57532e-08
2.39165e-08
2.59463e-08
2.13888e-08
1.43529e-08
-2.10459e-08
2.48541e-08
2.07915e-08
2.20346e-08
3.37387e-08
1.56047e-08
3.34889e-08
2.30495e-08
3.45437e-08
-1.6112e-09
-4.40197e-08
1.229e-09
1.55761e-09
-5.20749e-11
3.95474e-09
-6.49553e-09
-7.41063e-10
-1.78123e-09
1.21352e-08
-1.58335e-11
6.27768e-08
6.27782e-08
6.27763e-08
2.21816e-22
1.74993e-18
-1.88619e-21
3.27035e-19
1.78233e-19
1.18723e-19
-2.45172e-18
1.74485e-18
1.83846e-18
1.74518e-18
3.28541e-26
1.57142e-22
-3.83925e-25
1.06855e-26
3.3086e-26
-1.30272e-29
3.67992e-28
1.98499e-28
2.04325e-30
7.56739e-31
2.39811e-30
-2.57477e-32
7.29212e-35
1.60738e-33
-6.19522e-34
9.77527e-39
1.71749e-37
-7.29865e-37
3.6093e-42
4.00489e-41
-7.68495e-41
1.48146e-45
1.31568e-44
-6.67533e-43
6.09815e-49
2.73511e-48
6.9608e-47
2.52101e-52
6.00873e-52
2.69009e-49
1.03512e-55
3.28026e-55
-4.02625e-53
4.25131e-59
3.77639e-59
-6.79647e-56
1.77477e-62
1.56588e-62
-3.41068e-59
7.3662e-66
3.51544e-66
4.95136e-62
3.04044e-69
1.58004e-69
-3.01403e-65
1.2851e-72
2.24142e-73
9.27327e-70
6.29682e-76
-1.5023e-76
8.92911e-72
2.98766e-79
-2.52e-79
2.09725e-74
1.13423e-82
1.43486e-83
-2.0874e-78
7.96408e-86
-2.03068e-87
-6.74645e-82
1.35992e-88
4.89996e-89
-1.80238e-84
3.23718e-92
-7.10775e-94
1.35178e-87
6.23315e-95
2.70487e-95
-2.68172e-91
6.55647e-99
7.07489e-100
-1.57663e-94
1.08986e-101
4.81188e-103
-1.56554e-97
3.06838e-104
-1.82913e-104
9.7097e-100
4.83338e-108
4.59e-109
1.2275e-103
2.66831e-111
-1.11623e-112
-1.31374e-106
4.10402e-114
3.48776e-115
-1.58754e-109
1.32616e-116
1.28584e-117
-3.20305e-113
8.76133e-121
-1.67972e-121
1.88448e-118
3.15767e-124
-2.00396e-125
1.65179e-125
3.36439e-127
2.00685e-128
-5.83201e-123
4.78916e-130
-1.38932e-131
-8.94512e-126
7.58611e-133
8.64704e-134
1.23949e-128
1.98114e-135
7.22767e-136
-1.14093e-131
2.28258e-139
-7.02362e-142
2.11786e-135
1.45914e-142
5.12456e-143
-3.29477e-138
3.21434e-146
9.45091e-148
-7.06015e-143
5.80918e-149
-1.33192e-152
6.05005e-147
6.65313e-151
2.72678e-152
-6.76736e-148
6.44205e-156
7.39999e-156
6.6126e-08
-1.93339e-09
-4.0627e-07
-3.60233e-08
-1.13097e-08
2.15507e-08
1.40778e-08
4.28232e-09
-1.44098e-08
1.60249e-08
1.61743e-08
1.38975e-08
1.74168e-08
-2.45951e-08
-2.36217e-08
-5.53631e-08
-9.33875e-09
-1.31289e-08
-1.18602e-08
-1.345e-08
-2.2105e-09
3.11467e-08
1.24659e-09
-5.53984e-08
3.63468e-09
3.96896e-08
2.44339e-08
5.32865e-09
3.01929e-08
1.59712e-08
-3.25204e-09
2.7868e-08
-6.57223e-09
-1.75727e-09
-1.76429e-08
-2.23143e-11
-3.82065e-12
1.78172e-08
3.82261e-11
1.78147e-08
-1.42181e-18
1.74458e-18
2.76599e-08
1.76118e-18
9.14346e-25
-2.14971e-22
1.34002e-23
6.54947e-22
6.7644e-22
7.12368e-22
7.11397e-22
-8.55103e-28
1.57221e-26
8.18734e-27
1.04517e-28
3.32955e-27
3.05883e-30
4.75415e-31
4.82898e-30
3.21021e-32
7.33717e-35
4.99063e-34
3.49665e-35
4.42944e-39
-1.06407e-38
1.75038e-38
1.44785e-42
1.55506e-41
8.11015e-43
5.83244e-46
3.43335e-45
-8.00653e-44
2.36753e-49
1.1375e-48
-2.29949e-48
9.61413e-53
3.95661e-52
-3.81809e-50
3.91049e-56
1.61255e-55
-1.58956e-53
1.58317e-59
2.15774e-59
-6.72385e-58
6.42257e-63
5.89259e-65
1.12299e-60
2.62182e-66
2.12999e-67
1.79675e-63
1.08522e-69
1.28929e-69
1.18818e-66
4.44092e-73
3.85715e-73
-5.11859e-70
1.80171e-76
8.35891e-77
-5.64719e-73
7.75158e-80
7.0686e-80
6.75354e-76
3.22749e-83
-9.81673e-84
-4.48324e-80
1.23276e-86
6.89486e-88
-1.78684e-83
5.19154e-90
4.26189e-90
-7.97092e-87
2.36872e-93
1.83671e-92
-2.41757e-89
1.25129e-96
1.67953e-97
4.305e-93
1.08509e-99
9.55987e-101
-3.8696e-95
5.01858e-103
-8.16342e-101
-2.51634e-99
8.7041e-106
-9.52745e-104
3.80725e-100
2.03383e-109
5.08512e-110
-9.69149e-105
1.93336e-112
6.83391e-112
2.02195e-107
4.84078e-116
-2.86022e-116
-6.17188e-111
1.31828e-118
2.19811e-120
7.45805e-122
1.86002e-120
-6.66218e-122
-3.56802e-117
1.35039e-124
-1.14562e-124
6.32835e-120
4.65806e-128
-9.88205e-128
-1.35342e-123
3.99062e-131
-1.14809e-132
-5.21367e-126
8.24306e-135
-1.02173e-133
-1.94994e-129
3.07371e-138
2.31031e-138
1.51419e-138
1.54932e-141
1.08561e-141
6.49401e-136
7.79404e-145
9.36804e-146
-1.61201e-139
3.21462e-148
-2.67534e-147
-7.65196e-143
1.09391e-151
-1.0402e-150
2.04195e-147
1.59955e-153
1.38085e-155
5.95194e-151
1.30634e-157
-1.80542e-152
7.48547e-08
2.37366e-08
-2.89068e-07
-5.37728e-09
-2.30954e-08
1.69247e-07
-2.25779e-08
-2.26191e-08
-2.21231e-08
1.38721e-08
1.02664e-08
6.08102e-07
6.53097e-09
-2.11746e-08
-5.8766e-09
-1.73425e-08
8.6866e-09
1.09025e-08
2.71328e-09
-2.22968e-09
3.52663e-09
1.72561e-09
5.86523e-07
5.92189e-07
5.76908e-07
-1.97513e-08
3.68258e-08
3.17042e-09
-1.47479e-08
-4.17737e-08
-2.49185e-08
2.23768e-08
2.33897e-08
-2.13336e-08
-2.26114e-09
-6.07584e-09
2.62333e-09
6.74399e-09
1.58334e-09
2.16642e-10
3.65581e-11
1.29384e-09
-1.5383e-10
1.55969e-09
1.68099e-18
-1.36074e-18
-5.74826e-09
-1.9282e-18
-3.77235e-17
9.44405e-18
1.33554e-17
-2.05947e-18
8.82409e-24
-2.23384e-21
8.20642e-23
7.57769e-20
7.76549e-20
8.41454e-20
5.81669e-20
2.62229e-26
-2.75869e-25
7.70476e-30
3.63285e-27
5.39217e-28
3.09938e-29
1.93299e-30
3.84155e-30
7.46729e-30
1.15113e-34
-1.42686e-34
6.35423e-33
3.05693e-38
1.56893e-37
2.0026e-36
1.14568e-41
7.90341e-41
-4.48116e-41
4.55925e-45
2.55672e-44
7.02071e-44
1.88163e-48
4.9478e-48
-5.38895e-47
7.89748e-52
5.97275e-52
-2.43146e-48
3.31048e-55
9.31224e-55
-2.34954e-51
1.37211e-58
1.34937e-58
1.44878e-55
5.77925e-62
1.499e-61
-7.84832e-58
2.46476e-65
-3.63965e-66
5.43518e-62
1.09529e-68
2.01044e-68
-1.72223e-64
4.72984e-72
-3.55058e-72
-1.51901e-68
2.12672e-75
6.95222e-75
-4.73805e-71
1.04857e-78
-1.26208e-78
1.59613e-74
4.03595e-82
-8.81268e-83
-4.64291e-78
2.54517e-85
-2.49314e-85
2.64288e-83
6.29574e-88
-7.69351e-89
1.93342e-84
9.29562e-91
-4.06613e-92
-3.97307e-87
7.2235e-95
-5.01303e-95
1.51046e-95
2.03557e-97
-1.25008e-97
4.64124e-99
4.2828e-99
5.77584e-101
-2.93675e-96
2.75841e-103
3.66869e-104
-1.64059e-98
4.55878e-107
3.79788e-108
7.41558e-102
1.93951e-110
-2.06262e-111
1.17194e-105
7.22766e-114
5.46724e-115
-2.33575e-109
7.31805e-117
1.98171e-118
-2.34335e-113
3.98784e-119
7.10083e-121
-1.41027e-115
6.63047e-123
6.66916e-123
6.5927e-119
2.03375e-126
3.72103e-127
-9.13306e-122
1.81574e-129
2.60513e-129
-3.55162e-124
2.37138e-132
1.3674e-132
3.34667e-128
4.40453e-136
7.1138e-136
-6.59558e-131
1.4176e-139
-3.256e-139
1.17067e-134
1.11581e-142
-3.99193e-143
5.06407e-140
3.76085e-145
1.80127e-146
-3.12717e-141
1.26489e-148
3.10174e-149
-1.41323e-144
1.83694e-152
-3.51715e-154
1.9937e-149
-2.14444e-155
1.11732e-154
3.1997e-09
1.60822e-08
-2.82858e-07
1.82132e-09
3.69438e-09
4.39377e-09
-2.13027e-08
4.19983e-10
2.62674e-09
2.06219e-08
4.75807e-08
4.17906e-08
3.69868e-08
3.99247e-08
3.96092e-08
3.74608e-08
1.65437e-08
-1.50969e-09
1.38664e-08
2.58341e-08
-6.0985e-09
-1.84557e-08
-1.08387e-07
-6.01616e-08
1.29147e-07
-7.98079e-08
-1.60063e-10
-1.68804e-08
2.11743e-09
1.83201e-09
1.36558e-08
-1.19844e-10
8.84599e-11
6.77078e-11
-2.93402e-12
6.70906e-11
7.21981e-14
-1.02504e-16
2.3357e-08
-1.5693e-16
2.3357e-08
-1.71073e-22
-1.38306e-20
1.70259e-21
3.34201e-19
2.30233e-20
2.2997e-19
4.98836e-19
1.00448e-26
-2.39605e-24
-6.73572e-26
1.77508e-27
-3.91668e-27
7.37057e-30
5.47401e-29
-3.85244e-28
3.01769e-30
3.17647e-32
-2.27513e-30
1.5507e-32
1.55282e-36
-7.70092e-34
4.60667e-35
3.82739e-40
-9.91932e-38
1.01108e-38
1.5012e-43
-2.45874e-41
6.97678e-42
6.109e-47
-6.37323e-45
3.07391e-45
2.50095e-50
-1.57715e-48
-1.48965e-47
1.00955e-53
-4.67704e-52
-9.77395e-51
4.10865e-57
-4.53333e-56
2.18953e-54
1.67587e-60
-2.44963e-59
7.28968e-58
7.13123e-64
-1.02484e-62
1.27715e-60
3.30766e-67
9.37691e-67
-1.82504e-64
1.35142e-70
9.74797e-70
1.03148e-66
5.86728e-74
1.07219e-73
4.33835e-70
2.33739e-77
-6.30918e-77
-5.77856e-73
1.7414e-80
-9.63664e-82
-3.64165e-78
3.77643e-83
2.4263e-84
-1.08957e-79
3.64537e-87
-1.06038e-85
-7.12163e-83
2.79079e-90
1.75299e-91
5.3692e-87
9.94112e-93
6.11624e-94
-4.66555e-89
2.75537e-96
-2.62053e-96
5.40749e-92
5.73333e-100
-1.12709e-98
-6.80684e-95
4.84904e-103
2.96884e-104
-8.67206e-99
1.19749e-105
5.55021e-107
-5.85506e-102
1.39276e-109
-8.16238e-112
-6.27214e-105
8.86864e-113
1.33076e-112
-8.44064e-109
1.89764e-115
-2.35323e-115
1.83241e-111
7.53339e-118
2.10343e-118
-1.79607e-114
9.13345e-122
8.79157e-123
-4.54164e-117
5.5515e-125
2.65003e-126
6.16745e-121
1.09153e-127
-1.93678e-128
3.27099e-124
1.85634e-131
-6.6029e-132
6.03124e-126
2.08991e-134
-2.57858e-134
1.36562e-129
3.85676e-137
8.00612e-138
-1.69692e-133
7.37339e-141
-3.15426e-142
-6.68163e-137
1.84998e-144
2.65381e-144
-5.23968e-140
1.02256e-147
6.95183e-148
-5.49889e-143
1.20846e-150
3.922e-151
-7.0428e-147
-1.22848e-152
-1.5879e-149
-6.12319e-09
9.68279e-09
1.18599e-07
-1.20604e-08
-5.40926e-09
-1.24303e-08
-1.07682e-08
-1.03724e-08
1.1154e-08
1.45605e-08
1.15315e-08
1.14259e-08
1.47728e-08
-9.44036e-09
-2.75267e-08
2.04272e-08
2.20682e-08
-1.48732e-08
1.02072e-09
-2.12439e-08
-1.33323e-08
2.23963e-08
-1.88621e-09
-9.23896e-08
-3.02402e-08
-1.00052e-07
1.36147e-08
8.42832e-09
9.15738e-09
1.11796e-08
2.12549e-07
1.56624e-08
2.12153e-07
-6.40017e-08
-2.61302e-10
-2.33378e-08
4.12807e-09
-4.43434e-09
2.22366e-08
-2.86056e-09
1.56749e-10
-3.97734e-10
4.66293e-12
3.02118e-10
-1.01062e-10
1.02713e-09
2.25885e-10
2.81164e-11
1.36487e-12
2.41888e-10
1.24057e-10
2.69585e-10
1.47246e-10
-1.97708e-11
3.3895e-15
3.09097e-08
1.38131e-12
3.09097e-08
5.64246e-23
-6.35453e-22
-4.50822e-21
5.88694e-18
6.01675e-18
7.28296e-18
4.36375e-18
9.78448e-26
-5.31931e-25
-2.88554e-25
5.61075e-27
8.97415e-28
3.49343e-29
5.31691e-28
-4.92532e-28
7.60543e-30
6.17293e-31
-3.58405e-30
-6.49443e-31
3.5313e-35
-1.15035e-33
-3.40841e-34
6.6939e-39
-1.41816e-37
-2.39089e-36
2.57734e-42
-3.4791e-41
-8.14615e-40
1.04232e-45
-9.94416e-45
1.14727e-43
4.24725e-49
-2.69938e-48
6.79191e-47
1.74472e-52
-6.50668e-52
-3.92e-50
7.17809e-56
-1.15321e-55
-4.18139e-52
2.97822e-59
-4.35201e-59
3.84005e-57
1.28463e-62
-8.35976e-63
-6.58179e-59
4.95818e-66
-2.16009e-66
1.31528e-62
2.07545e-69
-9.24592e-70
4.16671e-65
9.17263e-73
-5.33531e-74
-4.98459e-69
4.30906e-76
3.49732e-76
2.81158e-71
1.96598e-79
-7.32212e-80
6.07949e-79
2.579e-82
-1.08672e-83
7.02026e-78
5.59376e-85
2.43172e-87
-9.89685e-82
1.32131e-88
1.32618e-89
-1.59154e-83
8.20041e-92
1.62591e-93
9.3579e-88
4.4737e-95
-2.42903e-95
-1.68488e-90
6.56651e-98
-1.21969e-99
-2.90194e-93
8.33316e-102
-2.27767e-102
-1.28069e-97
3.03604e-105
-9.39256e-105
-2.03574e-101
4.86927e-108
-7.70174e-109
9.54934e-104
1.66659e-110
-3.0419e-111
-1.36687e-105
2.10445e-114
4.52757e-115
-6.31828e-109
9.53939e-118
2.14667e-120
1.86096e-118
1.51608e-120
5.56492e-123
6.26567e-116
1.63118e-124
5.93628e-124
6.72848e-120
2.97437e-127
-7.00806e-126
-6.76344e-123
1.98389e-129
-7.25575e-130
-9.21841e-125
6.00149e-133
3.4895e-134
6.56858e-129
1.4054e-136
3.45852e-137
8.97639e-132
2.22495e-139
-3.24634e-140
5.95597e-136
1.36655e-141
1.14651e-142
-3.24467e-138
1.74907e-145
1.10855e-145
-8.78961e-142
1.21964e-148
3.80251e-149
-9.05033e-145
3.10323e-153
-2.3067e-147
9.10634e-09
-3.22883e-08
-4.80916e-07
1.28026e-08
7.68252e-09
6.57023e-09
6.56973e-09
1.19667e-08
5.89175e-09
5.52825e-09
2.0423e-08
-3.36216e-09
2.37068e-08
1.71985e-09
2.19642e-08
-4.68634e-08
-6.17084e-08
-3.61147e-09
1.23453e-07
4.4475e-08
4.13811e-08
4.25873e-08
4.33426e-08
2.83046e-08
-9.45567e-09
3.45676e-08
1.00994e-08
1.0659e-08
2.95381e-09
1.67358e-08
2.68065e-09
8.88356e-10
-2.25324e-08
-8.64873e-10
5.76152e-10
-1.00825e-09
-8.31385e-11
1.16142e-10
-1.01685e-09
1.07907e-09
-3.93327e-11
-6.39376e-11
-8.36133e-12
-6.15975e-12
-6.72697e-11
1.98572e-13
6.27762e-08
5.92462e-12
6.27763e-08
-2.8521e-23
-4.10173e-21
-3.48842e-21
5.95311e-18
5.47603e-18
7.03254e-18
4.42689e-18
2.65632e-26
-5.42169e-25
-2.87202e-25
7.70284e-27
5.52833e-28
2.16298e-29
4.36714e-28
-2.80284e-28
-1.2884e-29
5.26341e-31
-1.94299e-30
-4.3071e-30
3.1107e-35
-6.01569e-34
1.86111e-33
5.85856e-39
-7.80794e-38
-5.07818e-37
2.26978e-42
-2.01018e-41
8.88619e-40
9.37035e-46
-5.34687e-45
-4.12023e-44
3.91321e-49
-2.17444e-48
9.45818e-46
1.63762e-52
-4.43714e-52
4.85038e-49
7.09436e-56
-3.99741e-56
1.19842e-52
2.71528e-59
2.96163e-60
2.09768e-55
1.10041e-62
-8.45204e-63
-3.64278e-59
4.79596e-66
1.12752e-66
-7.91323e-62
2.21049e-69
-6.1623e-70
8.05564e-66
2.60089e-72
-3.0493e-74
2.07093e-69
1.36892e-74
1.07593e-75
-8.78369e-71
8.26603e-79
3.75519e-81
3.00519e-75
3.9648e-82
1.27382e-84
5.30441e-78
1.20187e-84
-5.19332e-86
-1.58561e-81
2.53999e-87
1.01598e-87
2.44967e-84
8.22503e-91
4.99689e-91
-1.09391e-86
2.04851e-94
2.92906e-96
-6.82735e-90
6.7764e-98
2.32873e-99
-1.05139e-94
3.85275e-101
3.18482e-102
-7.19329e-96
2.28238e-104
2.51541e-105
-1.90162e-99
1.05696e-107
-1.76905e-108
6.23294e-103
1.15696e-110
-7.79244e-112
-3.98756e-105
5.08805e-114
8.87838e-115
-1.06487e-108
1.9174e-117
-4.98885e-119
2.90182e-113
3.5243e-120
-1.71552e-121
-3.00243e-116
7.4443e-123
-1.37729e-124
2.59189e-119
1.93546e-125
6.46687e-127
-1.27993e-121
1.95958e-129
1.56378e-130
-8.30462e-125
6.0381e-133
-2.94593e-134
1.76376e-129
3.06001e-136
-1.22707e-138
1.7361e-131
2.53819e-139
-1.80098e-142
-3.23544e-135
4.4478e-143
3.25537e-144
5.90349e-144
1.60572e-146
3.32044e-148
5.74558e-142
6.04257e-150
2.48544e-151
-9.22035e-146
3.16525e-154
2.00317e-153
1.05118e-07
-1.95104e-08
3.79303e-08
1.2274e-07
1.04246e-07
1.11614e-07
1.00511e-07
1.17551e-07
4.82312e-08
4.49038e-08
4.17663e-08
4.33815e-08
4.16326e-08
8.4668e-09
1.58237e-08
3.69174e-08
7.05343e-09
2.01472e-08
2.35308e-09
-2.07294e-08
2.03735e-08
2.09827e-08
-3.83754e-08
2.83052e-08
-4.06976e-08
-6.78785e-09
1.00395e-08
1.51727e-08
1.51909e-09
2.26049e-08
-2.58775e-09
-6.57259e-09
-1.60781e-08
-4.48133e-10
-3.83537e-10
5.1974e-10
-1.50193e-10
1.16194e-10
-2.88089e-12
2.06481e-15
2.21645e-08
-5.40283e-13
2.21645e-08
-2.78992e-22
4.08257e-21
-3.92229e-21
3.38373e-19
-1.38431e-20
8.34134e-20
6.1541e-19
1.04167e-26
4.25878e-25
-8.35924e-26
2.90746e-27
-1.65812e-27
2.91766e-30
5.41767e-29
-2.74622e-29
-9.05386e-31
3.05586e-32
-1.92079e-32
4.80687e-33
1.53491e-36
-2.43647e-36
-6.95943e-36
4.08702e-40
-5.58091e-40
-3.69816e-39
1.64271e-43
-1.40393e-43
1.29227e-42
6.73809e-47
-3.76669e-47
8.07687e-46
2.7692e-50
-1.02682e-50
4.16059e-48
1.13645e-53
-3.59843e-54
5.09812e-51
4.7714e-57
-4.94078e-58
-2.08429e-54
2.05977e-60
-1.21502e-61
7.97414e-57
7.967e-64
-3.67358e-65
4.32436e-61
3.31671e-67
-5.32164e-70
-3.80037e-65
1.49294e-70
-2.86795e-72
-5.45342e-68
7.35773e-74
3.46084e-75
-4.67335e-70
2.40391e-77
-1.31583e-79
1.52905e-77
1.09078e-80
-3.33489e-82
-1.31224e-76
1.29612e-83
-1.73193e-85
-1.1769e-80
2.63549e-86
1.77657e-88
3.57035e-83
2.89558e-90
-1.22357e-91
6.4855e-86
1.02377e-93
-3.10296e-95
-5.61644e-92
5.55244e-97
-2.48146e-99
1.58024e-92
2.09913e-100
2.04223e-102
5.67625e-101
2.12519e-103
7.98992e-106
-1.39146e-98
1.11417e-106
-7.63274e-109
-1.45233e-101
8.79617e-110
8.3415e-111
7.0017e-105
7.32935e-113
2.13507e-115
-5.9292e-109
2.36527e-115
-1.97941e-117
1.05314e-110
6.69381e-119
7.68757e-121
-1.38763e-114
1.96388e-122
-9.80512e-123
-1.63992e-117
1.35435e-125
-1.11652e-127
-7.76533e-121
1.82327e-128
-1.34249e-130
-7.6335e-124
3.83665e-132
4.39158e-133
-2.54535e-127
3.04426e-135
1.17185e-136
5.9009e-130
3.48855e-138
-2.43817e-140
-1.04384e-133
3.75814e-141
2.12506e-144
-7.22553e-137
2.55011e-143
3.85372e-146
-4.92976e-140
1.1186e-147
-6.55028e-150
2.06794e-148
1.49124e-150
-1.48208e-154
5.60893e-151
7.33477e-154
-2.06521e-149
-1.98133e-09
4.85122e-08
-1.8322e-07
2.71963e-08
-6.94453e-09
8.64979e-09
2.32746e-08
1.6126e-08
3.04406e-08
-1.06001e-08
4.15372e-08
1.15255e-07
1.32652e-08
1.34842e-08
1.2916e-07
7.07511e-09
4.55025e-08
3.12532e-08
-1.40135e-07
-3.71345e-08
1.32402e-08
1.11229e-08
1.43901e-08
-3.24648e-08
3.1582e-08
7.8767e-09
-1.57242e-07
3.24792e-08
6.30434e-09
3.04227e-08
8.88852e-10
-1.7004e-09
-3.41809e-08
2.22092e-10
-7.72742e-11
1.2539e-09
1.15226e-12
1.40457e-09
-1.54494e-16
7.62501e-16
4.58199e-09
4.58199e-09
4.51707e-17
1.78157e-15
-5.80158e-15
5.75186e-15
-2.97325e-17
4.90418e-16
4.88219e-16
-1.54665e-23
-2.48617e-22
-1.75641e-22
-1.88032e-21
-5.36542e-22
3.5004e-20
-1.86917e-20
1.05115e-25
7.94859e-28
-2.32597e-27
2.93809e-27
8.38112e-28
-3.99713e-30
2.60722e-30
1.19051e-31
-2.82964e-30
1.48066e-34
3.3486e-35
-5.00367e-35
4.15557e-38
7.14977e-38
2.03473e-36
1.63135e-41
5.54883e-42
-1.01384e-39
6.66588e-45
8.62115e-46
-2.33758e-43
2.77243e-48
5.89791e-49
2.4022e-45
1.15401e-51
6.14056e-53
7.92572e-49
4.90351e-55
8.14783e-56
4.48175e-51
2.10324e-58
-3.27252e-60
3.90438e-55
8.56083e-62
8.20199e-63
2.02533e-58
3.71878e-65
5.10151e-68
1.17324e-61
1.55889e-68
-8.8772e-70
-3.3356e-65
6.1034e-72
-1.64508e-73
6.81158e-69
3.54258e-75
2.19251e-77
-7.71767e-72
4.02827e-78
1.7879e-79
-1.26777e-74
1.70507e-81
5.14897e-83
-5.87485e-77
5.06286e-85
5.13163e-86
-5.48152e-80
4.02858e-88
2.19619e-90
1.1217e-87
1.18784e-90
-1.62606e-93
-1.17003e-86
1.35246e-94
-3.99235e-96
4.07176e-91
2.01374e-97
3.72988e-99
-2.43762e-93
1.05269e-100
1.84968e-101
-1.68336e-96
2.40295e-104
-3.28651e-105
7.17744e-99
2.28059e-107
-4.23353e-110
1.20937e-102
2.75273e-110
7.76531e-112
-2.32503e-106
8.02975e-114
3.13322e-116
-3.83637e-110
1.67207e-116
-1.28475e-118
7.98286e-112
1.38999e-119
6.6225e-122
-1.3578e-115
2.76211e-122
8.77385e-124
-4.67655e-118
2.598e-126
-1.32735e-128
-5.59201e-122
2.1445e-129
-7.13279e-131
7.46072e-125
1.27236e-132
9.71857e-134
-1.71431e-127
5.46047e-136
-2.10954e-137
-5.63781e-133
1.68166e-139
2.10721e-141
-1.48249e-134
5.5203e-143
2.32008e-144
-1.02555e-138
2.08688e-146
-2.26784e-148
-1.59434e-147
7.96666e-150
-1.59131e-150
6.32607e-150
1.40471e-153
-1.69723e-153
5.85005e-153
6.06866e-158
-4.41861e-151
-3.19658e-08
2.77288e-08
1.55864e-07
8.60398e-08
2.08595e-08
7.64128e-08
9.63698e-08
6.4261e-08
1.22253e-07
3.87296e-08
3.02526e-08
1.12227e-08
1.02923e-07
3.96925e-09
4.14891e-08
1.56191e-08
5.5524e-08
2.3746e-08
3.71179e-08
6.03068e-08
2.36627e-08
1.26204e-07
1.15889e-07
6.08355e-08
6.10865e-08
6.07229e-08
6.80648e-09
-2.71232e-08
-1.96234e-08
3.3259e-08
-2.75241e-07
-1.59939e-07
1.46987e-07
3.18635e-07
6.01253e-08
4.21986e-09
1.44207e-08
6.47325e-09
-2.72744e-07
-1.68634e-07
3.71253e-07
-3.54162e-07
-5.86131e-09
2.3819e-09
-3.68571e-09
2.49815e-10
6.38864e-09
-3.26686e-10
3.4701e-10
-2.48439e-08
1.07873e-11
-2.46259e-08
2.53212e-16
-1.38027e-18
3.22594e-08
3.22594e-08
-9.45682e-19
2.53363e-16
2.54508e-16
2.5336e-16
5.68425e-24
-2.71257e-22
1.94664e-23
9.7254e-22
9.076e-22
7.24888e-22
1.04314e-21
1.48612e-27
-1.13623e-26
-2.42218e-26
-5.33431e-29
-2.62347e-28
8.3733e-32
3.30252e-31
-8.60844e-31
-1.58299e-33
1.92546e-34
9.19619e-34
-8.1784e-36
1.1815e-38
1.58332e-37
7.5858e-40
3.42165e-42
2.07174e-41
9.59308e-43
1.39406e-45
7.06155e-45
-2.18748e-46
5.74325e-49
1.341e-48
7.78093e-48
2.35714e-52
2.42699e-52
-1.39669e-52
9.64438e-56
5.16192e-56
1.07105e-53
3.93063e-59
2.90576e-59
2.5803e-57
1.59888e-62
4.21164e-63
5.62386e-61
6.49631e-66
2.77624e-66
-3.05666e-64
2.63294e-69
1.99592e-69
-3.12676e-67
1.07867e-72
3.14914e-73
5.61613e-71
4.43686e-76
1.09589e-76
-6.06453e-74
1.761e-79
3.57986e-80
-7.32887e-78
7.0921e-83
-6.39418e-83
7.31218e-80
2.8731e-86
4.90004e-88
-4.59739e-83
1.16875e-89
-2.21247e-89
1.532e-85
7.23092e-93
-2.48415e-94
-3.11947e-90
9.33747e-96
2.279e-97
-3.75019e-92
1.44603e-99
-4.78478e-99
-1.92544e-96
5.13888e-103
-5.07692e-102
-3.13612e-99
3.89257e-106
-8.2157e-106
-1.07935e-103
9.29123e-109
-4.96257e-110
-4.13238e-105
1.24937e-112
-7.59596e-113
-4.79186e-108
5.2266e-116
3.68625e-115
-1.05883e-111
1.56078e-119
-1.24088e-119
5.67381e-115
1.28477e-122
-1.10361e-122
3.10912e-123
3.96606e-125
-4.44542e-126
-1.7972e-121
4.26767e-128
-2.36535e-129
-3.8908e-124
5.23968e-131
-3.68678e-133
1.2808e-127
8.02524e-135
3.4838e-134
-1.9332e-131
2.93052e-138
-1.09026e-138
-5.37523e-134
2.00075e-141
1.5585e-141
-1.19188e-136
1.67036e-144
-9.36863e-145
-7.57686e-140
5.34328e-147
2.16332e-148
-1.66324e-143
4.67355e-150
-5.89354e-150
-1.62573e-146
5.09462e-153
-1.07203e-153
-2.97473e-149
-2.5676e-157
4.12505e-155
3.64991e-08
1.59089e-09
1.74293e-08
1.79385e-08
2.20877e-08
7.15205e-08
2.58176e-09
9.42891e-08
1.41233e-09
3.1008e-08
1.61926e-08
2.44152e-08
3.86288e-08
1.70716e-08
2.65225e-08
6.74674e-08
1.08561e-08
3.36253e-08
2.47888e-08
3.05984e-08
1.74344e-08
1.1817e-08
1.75618e-08
1.30099e-08
-1.23441e-08
3.67997e-09
-2.00074e-08
-1.16594e-07
-7.44976e-08
-9.41141e-11
2.27276e-10
5.41573e-09
1.44021e-09
-9.11012e-09
-6.69259e-11
-1.54926e-11
1.79783e-08
1.55829e-11
1.7973e-08
2.6701e-22
-7.81653e-20
-4.16559e-19
-3.27065e-19
2.06352e-18
-1.58067e-18
-1.85426e-18
-1.71601e-18
-2.96027e-18
-1.72024e-18
-3.28269e-26
-1.92337e-24
5.9843e-27
-2.58739e-28
6.43223e-29
-4.21295e-30
1.19485e-30
-5.39544e-32
1.73999e-34
-3.31117e-34
1.95409e-38
4.18334e-38
6.8918e-42
-4.5857e-41
2.83418e-45
1.24014e-43
1.16959e-48
-6.09897e-48
4.82098e-52
6.22908e-50
1.98827e-55
1.00175e-53
8.18915e-59
-1.07978e-56
3.33658e-62
-1.10162e-59
1.36321e-65
1.84404e-62
5.55133e-69
1.66993e-66
2.27316e-72
3.89953e-70
9.38392e-76
-3.18093e-72
4.03274e-79
7.7218e-75
1.81666e-82
-2.68603e-78
1.08216e-85
-4.47813e-82
1.42926e-88
-3.46553e-85
5.35734e-92
5.35359e-88
5.78753e-95
-6.36231e-91
2.4349e-98
-1.26952e-94
1.47158e-101
-2.9134e-97
6.68725e-105
-6.1879e-101
1.87136e-108
-1.30656e-104
1.3652e-111
-6.26877e-108
1.41256e-114
-6.47437e-111
1.47439e-117
-4.25781e-114
6.6552e-120
-1.60386e-116
4.09313e-124
-3.83102e-121
1.11242e-127
-1.82318e-125
1.79434e-130
1.14906e-126
1.23665e-132
1.2102e-128
8.49133e-137
3.94237e-132
6.10594e-140
2.73855e-135
6.0065e-143
-8.61297e-139
1.8386e-146
5.80297e-142
1.74928e-149
-3.17387e-146
2.89505e-153
2.45762e-149
1.50811e-151
6.37651e-09
-2.69353e-09
-2.29176e-07
3.60686e-09
2.92512e-09
1.78338e-09
-2.4084e-07
-2.00347e-07
-2.12948e-07
6.53513e-08
2.55206e-08
-6.98465e-09
9.31185e-09
1.42844e-07
4.27802e-09
2.11086e-08
1.49953e-08
1.02169e-08
-1.72165e-08
9.06349e-08
2.46208e-08
1.0496e-08
-2.57204e-08
-3.67613e-07
-1.58125e-08
1.95894e-09
2.51496e-09
2.07133e-08
1.67339e-08
8.45812e-09
-1.04241e-07
-2.9433e-07
-2.01177e-07
-1.84491e-07
-3.74938e-08
3.3584e-09
-1.26707e-09
-2.14887e-09
3.38959e-08
-8.71027e-11
-1.94487e-12
-2.0245e-12
4.82292e-08
4.82265e-08
5.3494e-22
5.22098e-18
9.62614e-22
3.00134e-19
-2.38935e-18
-4.28309e-19
-2.69681e-18
5.13029e-18
5.23042e-18
5.13035e-18
9.36273e-26
7.02746e-22
4.15933e-25
1.43948e-26
2.60014e-25
1.54853e-29
2.16809e-27
1.05828e-27
-2.38974e-30
2.52538e-29
3.12358e-29
1.18855e-32
2.50616e-32
9.73275e-32
7.41783e-34
3.79855e-36
3.83167e-35
1.08359e-36
1.4728e-39
9.86378e-39
1.93866e-40
1.07408e-42
3.63655e-42
4.8019e-43
7.86004e-46
1.91114e-45
1.29615e-47
5.55205e-49
4.42264e-49
-2.97927e-50
3.89227e-52
1.2227e-51
-5.5117e-53
2.73296e-55
1.16939e-55
-4.24116e-56
1.9186e-58
1.68268e-58
-1.64684e-59
1.34351e-61
2.74629e-62
6.6491e-63
9.39693e-65
3.29413e-65
-6.4802e-66
6.5627e-68
2.57998e-69
3.48461e-69
4.57748e-71
5.10434e-73
5.70883e-72
3.18997e-74
-3.12504e-75
-1.00904e-74
2.2198e-77
-7.44231e-79
4.40604e-78
1.54239e-80
-2.46637e-82
2.08168e-81
1.06901e-83
-3.98222e-85
-2.10337e-84
7.40346e-87
-9.76815e-89
-3.14872e-87
5.118e-90
9.54028e-91
1.23507e-90
3.53485e-93
1.15016e-93
3.8334e-95
2.4397e-96
1.63262e-96
-3.92834e-97
1.6828e-99
1.08999e-99
-4.73788e-100
1.15942e-102
1.36026e-103
-8.81698e-104
7.97445e-106
9.18962e-107
-1.0606e-106
5.47248e-109
1.24772e-109
2.14593e-109
3.75261e-112
4.85272e-116
3.54169e-113
2.573e-115
6.70032e-116
-2.19131e-121
1.76153e-118
-1.21093e-120
1.18499e-119
1.20445e-121
1.37111e-122
5.89551e-123
8.2219e-125
-1.2483e-125
9.85416e-127
5.60783e-128
-1.30436e-128
6.33271e-128
3.8155e-131
2.23623e-131
5.67934e-134
2.59179e-134
1.90286e-136
-5.333e-136
1.75725e-137
1.07442e-138
6.03875e-138
1.19053e-140
1.08011e-143
1.42583e-143
8.05015e-144
-4.80138e-146
2.15524e-145
5.17773e-147
-1.24187e-149
1.58107e-148
6.32192e-151
4.74621e-151
-8.09473e-09
9.439e-09
-2.53064e-08
6.92625e-09
1.9455e-08
3.00245e-07
1.96994e-08
2.24792e-08
2.04095e-08
2.02658e-08
2.98053e-09
5.38124e-09
-5.36238e-11
-1.45528e-07
-1.36348e-09
1.65715e-09
4.38505e-08
5.63106e-09
1.16875e-09
-1.34026e-08
2.35809e-09
-1.66321e-07
-2.28876e-10
2.33511e-09
-1.53553e-07
-5.39379e-10
-3.77653e-09
3.09118e-07
1.85496e-09
5.00944e-08
7.73364e-10
2.28947e-08
1.67802e-08
1.0667e-07
5.53978e-09
2.86833e-08
1.97631e-10
3.65346e-09
-1.43785e-07
6.94796e-11
-1.80723e-11
-3.20852e-12
-1.35173e-11
5.60258e-12
-6.26297e-12
2.96044e-19
4.99016e-18
2.13281e-18
5.14354e-18
1.79453e-18
1.09658e-22
-8.65453e-22
-8.96961e-24
-1.72397e-20
-1.84883e-20
-1.73986e-20
-1.84835e-20
4.71943e-26
-1.36459e-25
-5.4708e-27
1.97539e-28
7.09057e-26
-1.67173e-30
3.18965e-30
1.24414e-27
-1.15591e-32
1.65051e-33
1.71811e-31
-2.46473e-35
2.16564e-37
1.64064e-35
-1.72206e-38
1.11426e-40
8.60688e-39
-3.07096e-42
8.35196e-44
3.48233e-42
-3.8927e-45
5.97631e-47
1.71706e-45
2.49812e-48
4.18255e-50
1.12869e-48
-2.23425e-50
2.93404e-53
1.14995e-52
1.86199e-53
2.05651e-56
6.65513e-56
1.1431e-57
1.43824e-59
1.00637e-59
1.30579e-61
1.00405e-62
-2.53664e-62
9.64604e-65
7.0047e-66
6.54967e-66
2.58976e-66
4.87968e-69
1.63125e-68
1.29781e-69
3.39065e-72
1.31154e-72
1.24965e-72
2.35348e-75
4.59699e-75
-4.4724e-76
1.63201e-78
-2.63922e-78
-3.67357e-79
1.12949e-81
-2.6537e-82
4.02998e-84
7.80923e-85
-5.48254e-86
9.7653e-86
5.39262e-88
-7.5557e-89
-5.02951e-89
3.72357e-91
5.1574e-92
-1.87023e-93
2.56891e-94
7.95673e-95
1.39836e-95
1.76991e-97
-3.37841e-97
7.2102e-98
1.21745e-100
-8.65031e-101
3.08092e-101
8.36614e-104
8.62702e-105
-5.04272e-106
5.74398e-107
1.05294e-106
-3.10607e-107
3.93943e-110
-5.45152e-111
6.03313e-111
2.69854e-113
1.45699e-113
8.93703e-115
1.84495e-116
-1.91676e-116
6.28764e-117
1.25928e-119
2.75941e-120
8.43404e-124
8.59694e-123
-2.50737e-122
4.05438e-124
5.85724e-126
-1.97342e-125
4.93921e-126
3.9884e-129
-1.1372e-128
3.49292e-129
2.71549e-132
2.61406e-132
7.63415e-133
1.84239e-135
5.04079e-136
-3.10892e-136
1.24864e-138
1.18377e-139
9.71255e-140
8.45272e-142
-6.73047e-142
2.81318e-142
5.70927e-145
4.86678e-146
1.8609e-147
3.67776e-148
4.14703e-149
5.2997e-151
2.56507e-151
4.32629e-158
-7.69301e-09
1.01521e-08
-1.41777e-08
2.42379e-08
-1.67824e-08
2.86369e-07
-1.07373e-08
-1.18162e-08
-6.97457e-09
2.33869e-08
2.22569e-08
2.25519e-08
1.32604e-08
6.01558e-07
2.47393e-08
1.95867e-08
-2.82429e-08
-2.80829e-07
-2.59992e-08
-3.00639e-07
-2.81129e-08
-4.24005e-08
-1.58986e-07
-1.68357e-08
-2.49962e-08
-2.33679e-08
-2.78002e-08
2.08897e-07
5.29182e-08
-1.4808e-09
-1.03595e-08
3.57555e-09
7.34472e-09
-5.17386e-08
5.49073e-10
-8.37085e-11
1.0893e-11
-2.90213e-10
4.70204e-11
1.53243e-12
1.24762e-17
-7.24926e-18
-9.23666e-18
-4.35304e-18
2.8364e-18
5.11582e-17
1.36833e-17
9.0335e-17
-1.4401e-17
1.91657e-22
-7.66993e-21
3.13989e-23
-3.15479e-20
-6.55459e-20
-3.4231e-20
-6.28879e-20
2.69473e-25
-2.01934e-24
2.09035e-27
2.28832e-25
2.13087e-26
-1.37754e-29
6.5274e-28
2.53595e-28
-2.7564e-30
1.31216e-31
1.0407e-31
-5.16763e-33
1.98446e-35
2.43138e-35
-1.84231e-36
1.25668e-38
2.03352e-38
-3.65594e-40
9.15652e-42
8.05828e-42
-2.05281e-43
6.37978e-45
7.05013e-45
1.93966e-47
4.41332e-48
3.7791e-48
5.23675e-48
3.05175e-51
4.66804e-51
2.04471e-51
2.10949e-54
4.12911e-55
-4.22742e-56
1.45603e-57
-1.03747e-58
-7.63286e-59
1.00356e-60
-1.46468e-61
1.63019e-62
6.90546e-64
6.52114e-64
-4.20579e-65
4.74411e-67
-8.81991e-68
-9.24243e-68
3.24818e-70
6.03822e-70
6.15599e-71
2.22378e-73
-1.15497e-73
-4.347e-74
1.52076e-76
-9.60217e-78
4.94754e-78
1.03789e-79
3.04999e-80
-4.72284e-83
7.08613e-83
2.73084e-83
-3.65436e-84
4.83335e-86
-1.39814e-86
3.70118e-87
3.29223e-89
4.71953e-90
9.77156e-96
2.24306e-92
5.92737e-94
-7.19448e-100
1.52448e-95
4.16373e-96
9.01725e-97
1.03375e-98
1.12802e-99
6.99762e-100
7.01181e-102
8.63157e-103
-2.94922e-102
4.75382e-105
-1.88628e-106
-1.05212e-105
3.21857e-108
7.41839e-109
1.48597e-111
2.17808e-111
1.04306e-112
-3.19758e-112
1.47204e-114
1.19057e-115
1.33305e-116
9.93097e-118
6.46091e-118
-3.67748e-118
6.69741e-121
-1.58222e-121
-5.38441e-122
4.51518e-124
-5.30308e-125
8.98561e-125
3.03935e-127
-2.8465e-127
2.20544e-127
2.04409e-130
-2.37877e-130
4.83032e-131
1.37315e-133
3.89135e-134
2.88853e-135
9.21197e-137
2.52239e-137
-5.92597e-140
6.17087e-140
1.21107e-140
1.02726e-141
4.12554e-143
9.20069e-144
1.38428e-144
2.65605e-146
9.19408e-148
4.49463e-148
-5.91963e-150
1.16515e-150
-1.25761e-08
1.83729e-09
3.85382e-07
-1.10169e-08
-1.15355e-08
-1.13189e-08
-8.32393e-08
-1.56182e-08
-1.61994e-08
-8.86121e-08
1.79347e-08
5.76323e-09
4.71165e-08
-6.46521e-08
-9.55823e-07
-4.11222e-08
-2.11579e-08
3.79879e-08
1.97446e-08
-2.59625e-07
1.01534e-08
7.59963e-08
-3.6958e-07
9.64544e-09
-1.03407e-08
-3.14108e-08
-3.20906e-08
-1.09383e-07
-1.63899e-07
-1.4147e-07
-1.80226e-07
-4.9085e-08
3.19988e-09
-1.71369e-08
7.07414e-09
4.8535e-11
5.84663e-08
-2.57519e-10
1.14655e-10
-2.74588e-10
4.67609e-10
-8.71314e-11
1.42683e-10
9.47213e-14
1.06759e-14
-3.50598e-15
-2.00117e-15
-2.1474e-14
9.27955e-15
-9.98206e-22
-4.38911e-20
-2.94445e-21
1.75051e-18
1.85464e-18
1.7371e-18
1.8423e-18
1.15257e-25
-1.52369e-23
7.21787e-26
4.40352e-26
-4.61703e-26
-1.75405e-30
1.71735e-27
-6.84845e-27
-2.77351e-30
4.32411e-30