/*--------------------------------*- C++ -*----------------------------------*\
| =========                 |                                                 |
| \\      /  F ield         | OpenFOAM: The Open Source CFD Toolbox           |
|  \\    /   O peration     | Version:  5.0                                   |
|   \\  /    A nd           | Web:      www.OpenFOAM.org                      |
|    \\/     M anipulation  |                                                 |
\*---------------------------------------------------------------------------*/
FoamFile
{
    version     2.0;
    format      ascii;
    class       volScalarField;
    location    "3.4";
    object      alpha.water;
}
// * * * * * * * * * * * * * * * * * * * * * * * * * * * * * * * * * * * * * //

dimensions      [0 0 0 0 0 0 0];

internalField   nonuniform List<scalar> 
8437
(
1.04552
1.01842
1.02191
0.939587
0.976269
1.02151
0.0331548
-1.52354e-18
-3.87196e-23
9.24352e-18
1.56978e-18
2.83259e-20
2.94449e-23
2.12589e-27
3.77831e-31
1.52795e-34
6.36616e-38
2.78931e-41
1.21682e-44
4.85398e-48
2.30173e-51
1.00283e-54
4.46355e-58
1.68089e-61
1.14546e-64
8.1173e-68
2.79767e-71
6.75762e-75
2.9227e-77
3.2932e-81
1.41345e-83
9.74043e-88
1.14507e-90
5.80537e-93
1.99775e-96
1.02986e-99
4.41275e-103
2.29966e-105
3.35805e-109
2.72003e-113
5.21581e-116
1.14092e-118
1.13169e-121
3.93647e-124
6.5606e-128
6.00941e-131
7.36927e-135
1.16462e-138
3.53402e-140
1.73663e-143
1.04022
1.03465
1.03137
1.03932
0.998044
1.03551
0.229188
-6.62978e-18
1.35381e-15
1.12208e-17
1.1486e-19
5.6668e-21
1.57819e-23
1.30905e-27
1.22583e-31
4.6294e-35
1.93577e-38
8.20181e-42
3.46895e-45
1.41808e-48
5.98925e-52
2.53504e-55
1.18991e-58
5.54762e-62
1.95871e-65
1.06145e-68
5.58044e-72
1.5474e-75
5.72601e-79
4.45559e-82
1.51947e-85
3.06908e-88
7.21028e-92
2.92686e-94
6.74692e-98
8.27068e-101
2.3504e-104
2.23688e-108
8.8357e-110
6.65656e-113
9.90722e-117
1.33927e-119
1.62582e-123
2.34514e-127
4.20943e-130
2.15368e-133
7.33771e-137
1.88364e-140
6.17049e-144
9.94838e-145
1.0334
1.01581
1.02516
1.03986
0.992232
1.00349
1
-6.2842e-16
-3.16077e-18
1.27116e-16
1.84647e-17
1.61668e-19
6.92636e-23
9.79369e-27
2.48836e-30
8.57675e-34
3.61546e-37
1.5898e-40
7.21263e-44
2.95656e-47
1.31973e-50
5.62589e-54
2.8125e-57
1.29736e-60
5.15699e-64
3.36814e-67
1.28125e-70
3.46229e-74
9.33596e-77
2.52598e-79
1.63515e-83
2.36736e-87
1.32348e-88
1.19198e-91
1.04078e-95
4.8843e-99
1.51815e-102
2.11813e-106
3.5976e-108
2.9209e-111
6.59108e-115
2.4826e-118
7.43164e-121
1.52048e-124
3.20934e-128
3.6992e-132
4.82016e-134
5.63008e-137
2.69423e-141
5.68195e-145
1.00303
0.995526
1.00971
0.984723
1.04639
0.998838
1.00006
-4.82243e-17
-2.04819e-18
-2.94762e-22
4.47377e-18
4.64903e-19
3.19693e-21
8.49657e-25
4.9031e-29
1.49401e-32
6.19126e-36
2.86344e-39
1.11713e-42
4.64039e-46
2.05934e-49
8.24035e-53
6.16024e-56
2.40661e-59
1.22475e-62
4.63554e-66
1.21693e-69
6.82174e-72
1.11146e-75
1.40165e-79
1.22533e-81
1.19661e-84
1.66452e-88
3.55172e-92
2.17222e-94
3.68167e-98
2.62715e-101
1.96885e-104
1.10723e-106
4.68708e-110
6.66007e-114
2.43138e-116
7.68399e-120
4.46089e-123
9.62307e-126
4.04797e-129
2.11865e-133
1.79411e-136
1.70713e-139
5.41364e-142
1.02042
1.00911
0.783466
1.01789
0.984501
1.00623
1.0015
0.0163026
-2.18967e-18
-3.87724e-21
2.19669e-17
3.08662e-18
3.66462e-20
1.96492e-23
1.04846e-27
2.68915e-31
1.05843e-34
4.50783e-38
1.89484e-41
9.05855e-45
3.34004e-48
2.12904e-51
6.18842e-55
3.03944e-58
1.39386e-61
1.00895e-64
3.77301e-68
3.4711e-71
1.22023e-73
4.26496e-77
3.50175e-80
5.87987e-84
1.73975e-86
2.19666e-90
2.30592e-94
3.12752e-97
2.25337e-99
9.04579e-103
4.29605e-107
3.20981e-109
3.6361e-113
5.36862e-117
1.55323e-118
2.10275e-121
6.70767e-125
1.1517e-128
1.34207e-130
6.04231e-134
5.32369e-137
7.54264e-141
1.03568
0.968619
0.917276
1.0087
1
0.989296
1.00149
0.0598121
-2.08828e-18
-2.65441e-21
1.71694e-17
2.4299e-18
2.94817e-20
1.65214e-23
8.78008e-28
2.14296e-31
8.78417e-35
4.60462e-38
1.74895e-41
1.13081e-44
3.24901e-48
1.26496e-51
5.29655e-55
4.51824e-58
1.10052e-61
1.35689e-63
3.83972e-67
3.15658e-71
1.33612e-73
4.60688e-76
3.55201e-79
8.16462e-83
9.18334e-87
5.09935e-90
6.83016e-93
1.33311e-96
2.27767e-99
1.94689e-102
1.07099e-106
5.32633e-109
9.68984e-112
3.58437e-114
8.99212e-118
1.47682e-121
3.6107e-125
7.67832e-128
6.19222e-132
1.33238e-135
4.65104e-139
1.16893e-142
1.03003
0.973688
0.959959
0.979974
0.949095
1.0386
1.00347
0.000571653
-3.83892e-18
-3.75144e-22
4.24816e-18
4.34741e-19
2.88771e-21
7.38061e-25
4.35209e-29
1.33774e-32
5.55046e-36
2.3776e-39
1.06399e-42
4.29116e-46
2.94129e-49
7.97674e-53
3.96735e-56
1.66768e-59
1.68483e-62
2.87075e-66
1.05414e-69
1.39778e-72
5.58691e-75
1.15837e-78
1.15795e-82
1.56159e-85
1.57464e-89
4.65303e-92
2.57882e-95
3.55883e-98
7.80105e-102
4.20692e-104
3.07217e-107
6.91339e-111
1.86578e-114
5.01149e-117
1.21854e-120
6.85276e-124
1.20198e-126
1.74556e-130
2.37368e-132
5.58251e-136
2.7321e-140
9.03678e-142
1.00196
1.00471
1.018
0.998784
1.01994
1.01771
1.00031
-3.77661e-14
-5.27685e-18
1.01032e-16
1.82367e-17
1.67986e-19
7.33933e-23
9.82197e-27
2.50701e-30
8.7551e-34
3.71581e-37
1.60761e-40
7.14409e-44
3.86418e-47
1.37085e-50
6.82186e-54
3.35935e-57
1.06441e-60
4.37588e-64
9.55741e-67
6.97985e-70
1.54394e-73
2.13881e-77
1.78949e-79
1.97164e-83
4.54137e-86
4.59014e-89
6.85357e-93
4.40933e-96
9.33088e-99
8.24334e-103
3.66543e-105
2.41637e-108
6.91007e-111
3.69108e-115
5.85927e-118
4.3583e-121
2.40793e-124
3.92992e-128
3.8459e-132
1.23083e-135
4.7954e-139
1.88367e-142
3.96893e-145
0.991087
1.04219
1.01392
1.02231
0.994347
0.990321
0.969391
-6.88607e-17
5.37996e-15
8.6465e-17
1.33338e-19
5.13232e-21
2.39769e-23
4.95226e-27
3.37656e-31
1.12293e-34
4.68769e-38
1.96964e-41
8.27381e-45
3.45864e-48
1.44035e-51
6.03053e-55
2.50475e-58
1.04156e-61
5.30418e-65
1.83217e-68
7.44675e-72
3.12847e-75
1.37014e-78
5.94186e-82
2.08413e-84
3.82031e-88
7.71544e-92
2.30576e-95
1.50788e-97
4.06159e-101
2.07228e-104
2.3773e-108
6.50789e-112
5.41073e-114
8.40868e-117
1.55916e-119
3.74982e-123
3.71265e-127
5.73329e-130
1.5369e-133
8.24131e-136
1.04547e-138
1.605e-141
3.94661e-145
1.06217
1.06405
0.965223
1.07563
1.0328
1.0131
0.247966
-1.8587e-21
-5.24353e-22
8.14888e-18
1.53686e-18
3.39121e-20
5.24328e-23
5.27734e-27
7.5158e-31
2.88677e-34
1.21374e-37
5.15379e-41
2.19147e-44
9.75936e-48
3.93586e-51
1.66403e-54
6.93951e-58
2.88282e-61
1.30986e-64
5.6731e-68
3.74173e-71
1.14857e-74
3.39231e-77
1.37153e-80
1.80708e-83
9.2023e-87
5.20822e-90
3.08171e-93
2.78272e-97
2.1926e-100
4.28267e-103
1.19947e-106
8.8414e-109
1.92284e-112
1.46115e-116
5.78681e-120
1.06075e-121
3.81398e-125
1.63084e-128
2.23678e-131
3.67552e-135
6.29012e-138
5.84672e-142
7.51206e-145
1.0634
1.01433
0.908171
0.994827
0.980458
1.0219
0.0382544
3.34726e-14
7.19973e-17
2.2021e-17
4.31259e-18
2.06116e-19
1.36747e-21
8.47238e-25
1.30952e-28
6.30473e-32
4.74971e-35
3.50287e-38
2.51451e-41
1.79711e-44
1.28384e-47
9.15148e-51
6.50444e-54
4.61376e-57
3.26454e-60
2.30379e-63
1.62299e-66
1.14049e-69
7.99163e-73
5.58799e-76
3.89666e-79
2.70952e-82
1.8811e-85
1.30322e-88
9.01271e-92
6.21947e-95
4.27898e-98
2.93531e-101
2.01028e-104
1.37472e-107
9.37934e-111
6.38621e-114
4.33765e-117
2.939e-120
1.98759e-123
1.34053e-126
9.02016e-130
6.06284e-133
4.06511e-136
1.61111e-139
1.06639
1.02081
1.02108
1.0215
1.01362
1.01198
0.227616
1.72008e-12
1.04195e-13
1.84261e-15
1.82312e-18
4.19527e-20
1.55139e-22
4.6058e-26
7.83718e-30
5.02837e-33
3.76502e-36
2.70637e-39
1.92582e-42
1.36753e-45
9.70683e-49
6.87072e-52
4.85631e-55
3.42616e-58
2.40955e-61
1.69159e-64
1.18584e-67
8.29142e-71
5.78055e-74
4.02313e-77
2.7996e-80
1.94285e-83
1.34277e-86
9.27606e-90
6.39238e-93
4.39743e-96
3.0208e-99
2.06599e-102
1.41248e-105
9.62865e-109
6.55389e-112
4.44762e-115
3.0152e-118
2.04583e-121
1.37798e-124
9.28319e-128
6.24459e-131
4.18963e-134
2.80549e-137
1.11402e-140
1.03862
0.992092
1.05729
1.03589
1.01099
1.00542
1
6.47842e-11
1.38149e-15
8.35357e-16
3.04667e-16
9.35965e-18
1.94219e-20
2.80851e-24
6.03029e-28
4.32598e-31
3.16208e-34
2.2334e-37
1.57004e-40
1.10229e-43
7.72655e-47
5.40538e-50
3.77221e-53
2.62825e-56
1.82594e-59
1.26584e-62
8.76224e-66
6.04877e-69
4.16639e-72
2.86815e-75
1.97065e-78
1.3514e-81
9.25322e-85
6.31824e-88
4.29864e-91
2.92261e-94
1.98345e-97
1.34287e-100
9.07699e-104
6.11984e-107
4.11608e-110
2.76392e-113
1.85299e-116
1.2401e-119
8.28702e-123
5.52729e-126
3.67756e-129
2.44148e-132
1.61716e-135
6.34681e-139
1.03377
1.00582
0.986409
1
1.02949
1.01107
1.0005
2.63911e-07
2.94645e-15
3.59312e-17
3.25228e-17
4.85334e-18
9.36805e-20
1.37196e-22
1.88043e-26
5.20435e-30
3.80792e-33
2.77925e-36
1.96622e-39
1.38606e-42
9.7629e-46
6.85998e-49
4.80588e-52
3.36597e-55
2.34879e-58
1.63613e-61
1.13785e-64
7.90007e-68
5.48065e-71
3.7816e-74
2.60719e-77
1.79435e-80
1.23134e-83
8.43648e-87
5.77056e-90
3.93907e-93
2.68362e-96
1.82424e-99
1.23701e-102
8.3719e-106
5.65513e-109
3.82783e-112
2.57395e-115
1.73034e-118
1.15633e-121
7.73493e-125
5.16179e-128
3.43955e-131
2.28659e-134
9.00377e-138
1.0364
1.03038
0.999926
1.01287
1.00341
1.01307
1.00157
0.0240491
7.43195e-14
3.69464e-16
2.86148e-16
6.32703e-17
2.17803e-18
5.86706e-21
1.0766e-24
1.9832e-28
1.3631e-31
1.00285e-34
7.09757e-38
4.98891e-41
3.50593e-44
2.45929e-47
1.7202e-50
1.20165e-53
8.37363e-57
5.8211e-60
4.04107e-63
2.79915e-66
1.93374e-69
1.33335e-72
9.17538e-76
6.29841e-79
4.31751e-82
2.95167e-85
2.01357e-88
1.37173e-91
9.32303e-95
6.32002e-98
4.2772e-101
2.88995e-104
1.94889e-107
1.31236e-110
8.81486e-114
5.90634e-117
3.95085e-120
2.63777e-123
1.75698e-126
1.16854e-129
7.75563e-133
3.04693e-136
1.01495
1
1.02243
0.995454
0.975622
0.997832
1.00241
0.0678943
7.33339e-14
5.97795e-16
5.10723e-16
1.22951e-16
4.60118e-18
1.30621e-20
2.39288e-24
4.2194e-28
2.89101e-31
2.12577e-34
1.5034e-37
1.05568e-40
7.40622e-44
5.18873e-47
3.62654e-50
2.5296e-53
1.7603e-56
1.22189e-59
8.47486e-63
5.86476e-66
4.04843e-69
2.78966e-72
1.91652e-75
1.31335e-78
8.99497e-82
6.14758e-85
4.18964e-88
2.85091e-91
1.93559e-94
1.31135e-97
8.87196e-101
5.98944e-104
4.0352e-107
2.7142e-110
1.82121e-113
1.21875e-116
8.14319e-120
5.42918e-123
3.61129e-126
2.40005e-129
1.59278e-132
6.25862e-136
1.04062
1.00111
1.03073
1.00353
1.00421
1.03926
1.0041
0.00216179
3.71456e-15
2.67321e-17
2.33043e-17
3.23521e-18
5.95377e-20
8.85651e-23
1.30261e-26
3.63944e-30
2.61708e-33
1.90685e-36
1.34176e-39
9.45457e-43
6.6983e-46
4.70886e-49
3.27987e-52
2.30672e-55
1.626e-58
1.11754e-61
7.76402e-65
5.3927e-68
3.73806e-71
2.60415e-74
1.78467e-77
1.22738e-80
8.44395e-84
5.79128e-87
3.99763e-90
2.71161e-93
1.84616e-96
1.26167e-99
8.58472e-103
5.77721e-106
3.90336e-109
2.63594e-112
1.77416e-115
1.19388e-118
7.99011e-122
5.34429e-125
3.60845e-128
2.38263e-131
1.58643e-134
6.67113e-138
1.03624
1.03783
1.01427
1
1.02522
1.02344
1.00053
6.05872e-09
2.03194e-15
5.76599e-16
3.70163e-16
1.36573e-17
3.31843e-20
5.26445e-24
1.01401e-27
7.13321e-31
5.22893e-34
3.69668e-37
2.59843e-40
1.82471e-43
1.27956e-46
8.95112e-50
6.24625e-53
4.35172e-56
3.02525e-59
2.09783e-62
1.45188e-65
1.00244e-68
6.90521e-72
4.75143e-75
3.26539e-78
2.23887e-81
1.53186e-84
1.04525e-87
7.11565e-91
4.83838e-94
3.28256e-97
2.22171e-100
1.50194e-103
1.01293e-106
6.81379e-110
4.57621e-113
3.06745e-116
2.05148e-119
1.36992e-122
9.12836e-126
6.06484e-129
4.02432e-132
2.66791e-135
1.04779e-138
1.03295
1.15062
0.994439
1.10432
1.0137
0.994254
0.964155
1.87243e-12
1.00739e-13
5.31754e-15
1.14474e-17
1.94592e-20
2.9266e-23
8.59049e-27
2.52952e-30
1.72745e-33
1.28924e-36
9.25347e-40
6.59092e-43
4.70617e-46
3.36417e-49
2.40371e-52
1.71452e-55
1.21609e-58
8.72146e-62
6.15481e-65
4.31582e-68
3.04163e-71
2.14724e-74
1.50037e-77
1.05989e-80
7.34284e-84
5.13811e-87
3.54961e-90
2.4612e-93
1.70452e-96
1.17688e-99
8.10633e-103
5.56776e-106
3.82291e-109
2.6159e-112
1.78744e-115
1.22024e-118
8.27963e-122
5.62683e-125
3.82783e-128
2.57633e-131
1.73716e-134
1.17168e-137
4.66811e-141
1.01603
0.991937
1.1248
1.01386
0.99828
1.01305
0.254498
4.37682e-14
1.04545e-16
1.79029e-17
2.34107e-18
8.53071e-20
5.03053e-22
3.02735e-25
5.04602e-29
2.54909e-32
1.92923e-35
1.42757e-38
1.02932e-41
7.38924e-45
5.29904e-48
3.79055e-51
2.70372e-54
1.92507e-57
1.36703e-60
9.68128e-64
6.84211e-67
4.82436e-70
3.39358e-73
2.38153e-76
1.66686e-79
1.16332e-82
8.09786e-86
5.62637e-89
3.89986e-92
2.69851e-95
1.8625e-98
1.28192e-101
8.80331e-105
6.03553e-108
4.12827e-111
2.81773e-114
1.91888e-117
1.30348e-120
8.83662e-124
5.97593e-127
4.03244e-130
2.71785e-133
1.82642e-136
7.25164e-140
1.02649
1.04915
0.994939
1.01373
1
1.02325
0.0379981
-1.54549e-18
-3.93626e-23
4.39969e-18
7.69324e-19
1.49707e-20
1.84668e-23
1.54384e-27
2.51081e-31
1.03004e-34
4.15317e-38
1.79304e-41
7.98645e-45
4.87715e-48
1.67699e-51
7.75054e-55
3.48141e-58
1.20052e-61
8.63882e-65
9.4372e-68
2.38422e-71
8.82829e-75
7.34836e-78
4.18392e-81
4.83235e-83
7.67837e-87
8.6769e-91
4.32652e-93
1.96054e-96
8.53949e-100
6.33581e-103
6.4379e-106
3.66396e-110
7.195e-112
3.60459e-115
2.78604e-119
1.16073e-121
1.35192e-125
8.03958e-129
4.60708e-131
1.04545e-134
8.52868e-138
1.27108e-140
2.17861e-143
1.07321
0.981537
1.00599
1.02227
1.06237
1.03645
0.228479
6.16246e-13
1.3662e-15
1.13587e-17
1.31188e-19
6.68972e-21
1.91907e-23
1.62834e-27
1.4924e-31
5.61466e-35
2.34724e-38
9.89836e-42
4.17415e-45
1.71934e-48
7.44899e-52
3.03753e-55
1.34475e-58
5.64455e-62
2.39845e-65
9.9947e-69
4.73178e-72
1.70128e-75
4.08408e-78
1.03473e-81
3.81364e-85
9.69469e-88
1.30786e-90
1.77144e-94
1.68423e-97
7.29059e-101
1.43689e-104
3.2678e-108
2.65603e-109
3.27886e-112
2.85875e-116
6.35744e-120
3.3387e-123
2.61421e-125
6.16054e-129
6.68555e-133
1.31408e-135
1.27902e-139
3.34263e-143
2.80412e-145
1.03658
0.989447
1.04055
1.01018
1.01608
1.01846
1
3.10035e-11
-3.14112e-18
1.25792e-16
1.84215e-17
1.63603e-19
7.31394e-23
1.1587e-26
2.91489e-30
9.8055e-34
4.10352e-37
1.91149e-40
8.27796e-44
3.32678e-47
1.6113e-50
6.28239e-54
3.66703e-57
1.62887e-60
9.68019e-64
2.62078e-67
3.88656e-70
4.54201e-74
2.17467e-77
1.80466e-79
1.79766e-83
2.03511e-87
2.12553e-90
1.51333e-92
3.58372e-96
4.4425e-99
1.36368e-102
6.69293e-106
6.28543e-109
9.19516e-112
1.58846e-114
1.51347e-118
1.29792e-121
1.88843e-124
7.5639e-128
3.28619e-132
7.83529e-134
6.3542e-137
1.30059e-140
3.48166e-143
1.03261
1.00402
1.00006
1.07602
1.02538
0.999719
1.00041
2.11153e-07
-2.19572e-18
-2.90214e-22
4.62588e-18
4.80652e-19
3.30481e-21
8.77313e-25
5.05376e-29
1.53918e-32
6.37905e-36
2.71772e-39
1.13972e-42
4.83123e-46
2.03179e-49
8.32903e-53
4.15787e-56
2.40112e-59
8.39412e-63
4.71811e-66
1.17232e-69
1.14768e-71
5.8557e-75
3.33241e-79
1.49961e-81
8.28839e-85
8.40672e-89
2.46004e-92
1.55716e-95
8.40793e-99
2.50493e-101
1.8573e-104
1.19514e-108
2.8483e-110
1.08947e-113
1.75911e-116
1.83559e-119
9.44221e-123
8.13779e-126
3.75718e-129
2.3969e-132
1.18053e-136
2.7456e-140
1.09457e-143
1.03731
1.02024
0.999346
1.00289
0.972372
1.0067
1.0015
0.0230413
-2.14671e-18
-3.71251e-21
2.26602e-17
3.19828e-18
3.81148e-20
2.04323e-23
1.08881e-27
2.70243e-31
1.09282e-34
4.61762e-38
2.14187e-41
8.45312e-45
3.38552e-48
1.5133e-51
6.97566e-55
3.81416e-58
1.35064e-61
2.62037e-64
3.00819e-68
8.76778e-72
5.91311e-75
3.47446e-77
2.12841e-80
1.12965e-84
1.52241e-86
4.10141e-90
9.41497e-93
6.56453e-97
2.53415e-99
8.13698e-103
3.47249e-105
1.11288e-108
1.18162e-112
9.75764e-115
3.50383e-118
7.33847e-122
7.52146e-125
8.18914e-129
2.01876e-130
9.0374e-134
3.23374e-137
7.69123e-140
1.01899
0.995072
1.00257
1.00544
0.989381
0.989785
1.00209
0.0682805
-2.28165e-18
-3.06941e-21
1.75933e-17
2.49876e-18
3.03371e-20
1.6969e-23
8.99584e-28
2.20267e-31
9.0245e-35
3.9054e-38
1.6599e-41
2.04968e-44
3.71509e-48
2.72931e-51
1.03583e-54
2.80404e-58
2.48669e-61
5.17396e-65
3.52131e-68
7.85034e-72
3.04854e-75
2.37544e-76
1.95377e-79
1.27404e-82
8.54391e-87
1.03945e-89
9.73152e-94
1.95381e-96
2.46588e-99
2.07336e-102
1.10039e-106
1.34228e-108
8.08841e-112
8.35353e-116
6.6069e-118
3.52151e-121
9.02385e-125
5.06711e-129
2.54622e-132
9.3398e-134
3.3324e-137
9.4629e-142
1.03825
1.0475
1.08775
1.0422
1.04184
1.04141
1.004
0.00197494
-3.80238e-18
-4.30655e-22
4.12554e-18
4.22048e-19
2.80031e-21
7.15393e-25
4.22838e-29
1.30004e-32
5.39293e-36
2.35092e-39
1.01743e-42
4.16144e-46
2.98962e-49
8.33002e-53
3.36253e-56
1.6737e-59
9.81509e-63
7.30889e-66
1.50589e-69
7.07238e-73
4.46747e-75
1.70378e-78
1.07725e-82
1.96206e-85
4.05253e-89
6.58502e-92
1.37983e-94
2.78611e-98
4.66873e-102
3.22009e-104
6.51038e-108
1.58353e-111
2.67493e-114
2.25369e-118
2.48854e-120
9.24454e-124
5.31557e-127
3.20808e-131
7.22144e-135
2.8124e-138
1.47326e-141
1.72614e-141
1.0692
1.00101
0.986854
0.999502
1.01978
1.02776
1.00051
3.23614e-09
-5.13467e-18
9.45016e-17
1.83462e-17
1.70419e-19
7.11351e-23
9.75085e-27
2.49329e-30
8.61751e-34
3.60723e-37
1.56543e-40
7.68229e-44
3.44148e-47
1.32035e-50
6.89076e-54
3.73318e-57
1.04782e-60
1.29444e-63
2.69701e-67
4.80336e-70
6.18497e-73
4.42184e-77
3.76164e-80
6.12618e-84
1.77596e-86
3.51759e-89
1.24325e-92
2.86735e-96
2.66877e-99
5.32853e-102
9.73426e-106
2.08211e-108
3.21517e-111
7.94411e-115
4.45433e-117
8.6923e-121
1.01273e-124
4.26033e-128
6.7559e-132
2.14505e-135
8.37486e-139
3.29855e-142
3.95933e-145
1.07746
1.09341
0.991245
0.979109
1.26829
0.995582
0.963918
6.90173e-13
5.77302e-15
9.33971e-17
1.31466e-19
4.82344e-21
2.20949e-23
4.53456e-27
3.12687e-31
1.04233e-34
4.3519e-38
1.82651e-41
7.6669e-45
3.21277e-48
1.33675e-51
5.59163e-55
2.32206e-58
9.67739e-62
3.99313e-65
1.90589e-68
7.08999e-72
2.87523e-75
1.15703e-78
6.11614e-82
1.32039e-84
2.4007e-88
3.21482e-91
2.24134e-94
1.6015e-97
4.95792e-101
1.11177e-104
1.57861e-107
1.51509e-111
7.96942e-114
1.34456e-117
1.7953e-121
2.12041e-123
2.81996e-126
1.18067e-129
2.42745e-133
3.17067e-136
2.87736e-139
1.78017e-141
6.31287e-145
1.09938
0.98115
1.00688
1.04022
0.986384
1.01198
0.254118
-1.66608e-21
-5.33441e-22
6.02975e-18
1.12027e-18
2.41536e-20
3.74982e-23
3.84611e-27
5.47867e-31
2.09987e-34
8.85264e-38
3.80215e-41
1.60423e-44
6.75585e-48
2.8798e-51
1.23287e-54
5.06012e-58
2.15606e-61
9.95036e-65
4.80877e-68
2.34276e-71
7.72825e-75
1.39699e-77
6.34416e-81
7.60369e-85
1.11917e-86
3.89862e-90
2.53631e-94
1.02689e-97
3.49248e-100
2.96406e-103
3.95232e-107
9.01704e-109
4.22336e-112
1.27484e-115
3.06882e-118
1.17537e-121
1.10711e-125
1.76839e-128
2.62511e-131
1.37946e-134
1.07088e-137
8.20596e-142
3.87237e-145
0.679346
1.01603
0.786101
1.01998
0.679486
1.02354
0.7864
0.950112
0.951844
1.00044
1.02605
0.952983
0.959339
1.00069
1.00061
1.00589
1.00033
1.00239
1.0008
1.0033
1.00059
0.999951
0.988546
1.00181
1.00956
1.00006
0.987105
1.00182
1.00369
1
1.00359
1.00732
1.00373
1
1.00309
1.00293
1.01527
1.00528
0.991996
1.0029
1.01474
1.00496
1.00476
1.00117
1.00316
1.03988
1.00583
1.00224
1.00313
1.00152
0.996623
1.00036
1.02286
1.00142
0.998998
1.00044
1.00001
0.99603
1
0.991816
1.00019
1.00609
0.998193
0.944689
1.00222
0.685997
1.01331
0.94283
1.0024
0.686161
0.679267
1.01979
0.787159
1.02163
0.678932
1.03052
0.787088
0.95312
1.00533
1.00098
1.04076
0.952913
1.05465
1.00087
1.00133
0.982591
1.00104
1.02106
1.00099
0.968638
1.00067
1.00028
0.998638
1.00194
1.00018
1.00003
0.985647
1.00179
1.00414
1
1.00312
1.0061
1.00378
0.999785
1.00215
1.00306
1.01512
1.0055
0.990548
1.00241
1.01478
1.00534
1.00593
0.99951
1.0034
1.04106
1.00566
1.00001
1.00318
1.00166
1.00054
1.00077
1.02767
1.0013
0.994525
1.00044
1.00033
1.00165
0.997743
0.987283
1.00031
1.00272
0.998037
0.942486
1.0025
0.685582
1.01232
0.942105
1.00052
0.685826
0.67797
1.03019
0.787902
1.01987
0.676421
1.03537
0.786658
0.952398
1.05364
1.00104
1.03964
0.950923
1.05412
1.00059
1.00109
0.975071
1.00103
1.02426
1.00064
1
1.00034
1.00023
0.995866
1.0019
1
0.999999
1
1.00176
1.00409
1
1.00278
1.00779
1.00367
1
1.00239
1.00273
1.01448
1.00521
0.986561
1.00219
1.01592
1.00532
1.00574
1.00286
1.00339
1.04111
1.00544
1.00645
1.00315
1.00147
0.994454
1.00053
1.02973
1.00118
0.998725
1.00049
1.00042
1.00136
0.99842
0.987867
1.00012
1.00025
1
0.942547
1
0.685302
1.01181
0.944104
1.0024
0.684225
1.03624
1.00012
0.966911
0.965751
1.01793
1.00907
1.00075
1.01362
1.00037
1.03206
1.01976
1.03319
1.01266
1.00189
-2.6656e-17
0.0845355
-3.22076e-17
0.0379242
1.30307e-11
0.0904264
1.30302e-11
1.02166
1.01786
0.914429
1.00495
1.0353
0.829241
0.834951
1.03204
1.02225
1.02346
1.03482
1.02363
1.03193
1.03201
-1.89397e-17
0.871781
-4.49237e-19
0.227737
5.07545e-10
0.871867
2.24743e-10
1.06415
0.996411
1.00708
1.01722
1.0558
0.912502
0.960766
1.00618
0.99483
0.982252
1.00486
0.994398
0.997514
1.00554
-5.10885e-18
1.00008
0.00170634
1
2.86182e-08
1.00021
0.00469115
0.99005
1.01677
1.00096
1.00417
0.959818
0.989896
1.02474
0.963688
1
0.984314
1.00023
0.999167
0.975713
0.961732
0.0602588
1.00196
0.504713
1.00068
0.0676887
1.00201
0.506451
1.01593
0.999449
0.982233
0.986696
1.08369
0.994016
0.967747
1.00391
1.00441
1.00843
1.00516
1.0044
1.00771
1.00411
0.629487
1.00142
0.754284
1.00164
0.630125
1.00197
0.753854
0.947622
0.984645
1.02422
1
0.957944
1.00018
1.02949
0.985954
1
0.95028
0.996972
0.999711
0.940769
0.983523
0.76189
1.00236
0.615938
1.00233
0.760705
1.00287
0.616413
1.03429
0.976689
0.958131
0.986517
1.03407
0.964557
0.964588
1.00583
1.01383
1.02573
1.03886
1.01322
1.02951
1.00814
0.467128
1.00164
0.0588179
1.00405
0.469677
1.00168
0.0661641
0.988892
1.01345
1.16858
1.01159
1.10301
1.18066
1
1.02938
1.01776
1.03105
1.02091
1.01692
1.03846
1.03152
0.00239171
1
-3.18121e-15
1.00075
0.00606419
1
9.06607e-08
0.979455
1.0106
0.981697
0.999656
0.941752
1.24479
1.00207
0.995298
1.00176
0.95167
0.977398
1.00307
0.968206
0.98719
-7.8983e-17
0.404301
-3.81281e-16
0.965175
6.20725e-10
0.408871
4.50364e-09
1.02399
0.961153
1.03036
1.04497
1.02555
0.969475
1.00059
1.00571
1.002
1.01303
1.01367
1.00151
1.01184
1.00683
-1.76505e-21
0.0302298
-5.10239e-25
0.253722
1.78447e-11
0.0362186
1.78447e-11
1.02366
1.0177
1.11444
0.999741
1.03488
0.980386
0.922765
1.02126
1.00272
1.03987
1.02057
1.01894
1.04379
1.00321
5.20889e-11
0.0901482
5.20884e-11
0.0382183
5.20888e-11
0.0894726
5.20884e-11
1.01936
0.835022
0.837238
1.02276
1.05509
1.00002
0.993187
1.02269
1.01689
1.00283
1.02981
1.02831
1.01707
0.994377
1.11474e-09
0.870695
4.54193e-10
0.227793
1.16905e-09
0.871711
4.61163e-10
1.06076
0.963026
1.01075
0.993156
1.00627
0.952886
0.924408
1.00589
1.00033
1.00713
1.01204
1.00618
1.0025
1.0035
4.55393e-08
1.0004
0.00513326
1
4.56339e-08
1.00026
0.00512784
0.992034
1.02024
1.01423
1.01938
0.994566
0.98192
1.01086
0.960542
0.998525
0.964704
1.00698
0.960716
0.998579
0.981859
0.068322
1.00223
0.506147
1.00078
0.068197
1.0018
0.506384
1.09065
0.98948
0.901405
1
1
0.992743
0.975521
1
1.00471
1.0391
1.01528
1.00114
1.00465
1.00866
0.630549
1.00236
0.754275
1.00136
0.630709
1.00229
0.754076
0.903953
1.00485
1.03665
0.993109
0.963476
1.00595
1.01724
0.994078
1.00007
0.934903
0.990898
0.994954
0.999876
0.935113
0.762116
1.00289
0.616388
1.00247
0.761521
1.00313
0.616128
1.04062
0.99322
0.955308
1.02209
1.04533
0.908626
0.952326
1.00719
1.01119
1.02716
1.04039
1.00656
1.01119
1.02762
0.469269
1.00193
0.0669816
1.00375
0.469632
1.00174
0.0669339
1.03318
1
1.00864
1.02462
1.07948
0.866186
1.02101
1.02923
1.0162
1.0254
1.03208
1.02862
1.01596
1.02761
0.00657895
1.00002
1.45337e-07
1.00077
0.00666379
1
1.45374e-07
0.934117
1.17059
1.0017
1.09225
0.974666
1.15738
0.99793
0.994788
1.00249
0.865428
1
0.981486
1.00271
0.868671
1.23409e-09
0.409696
7.13113e-09
0.96373
1.21331e-09
0.409601
7.04161e-09
0.999129
0.982784
0.998223
1.05886
0.945831
0.924053
0.998861
1.00331
1.00161
1.00561
1.01304
1.00385
1.00139
1.00163
6.9118e-11
0.0370539
6.9118e-11
0.254882
6.9118e-11
0.0367949
6.9118e-11
1.03655
0.992689
1.13209
1
1.02729
0.960646
1.02933
1.02239
1.00597
1.04687
1.02036
1.02298
1.05251
1.00615
1.28692e-11
0.0878091
1.28686e-11
0.0325931
-2.62297e-17
0.0814609
-3.5834e-17
1.07477
0.979052
1.00133
0.99455
1.06713
1.01426
1.08626
1.01277
1.01705
0.995255
1.04058
1.01097
1.01516
1.012
5.66749e-10
0.871444
2.29444e-10
0.227647
-2.23646e-17
0.872233
-4.67201e-19
1.01951
0.978963
0.898413
1.03548
1.01749
0.961458
0.967197
1.00065
1.01141
0.987571
1.01757
1.00198
1.01183
0.988136
2.88007e-08
1.00036
0.00466838
1
-5.10495e-18
1.00008
0.00169874
0.991206
0.991438
1.00126
0.997719
0.99547
0.898705
1.00037
0.96822
0.998995
0.9862
1.00104
0.960236
0.997666
0.975913
0.0673856
1.00197
0.506236
1.00014
0.0601318
1.00157
0.504786
1.00617
0.994842
0.921599
0.973495
1.00567
0.995104
0.970169
0.997306
1.00376
0.997455
1.00721
0.997378
1.00384
0.995289
0.630668
1.0021
0.753349
1.00119
0.629445
1.00119
0.754458
0.970656
1.00701
1.00461
0.983803
0.976882
1.00009
1.00788
0.994989
0.999704
0.941287
0.990143
0.993996
0.999913
0.941363
0.760639
1.00261
0.616666
1.00142
0.762021
1.00243
0.615727
1.041
0.910088
0.985451
1.03249
1.04333
1
0.995751
1.00801
1.01029
1.02181
1.04154
1.00829
1.01066
1.02654
0.469
1.00193
0.0662348
1.00384
0.466951
1.0016
0.0587638
1.07056
0.838811
0.86875
0.976609
1.06034
1.01118
1.00136
1.02967
1.01587
1.0415
1.02886
1.0295
1.01587
1.04158
0.00602192
1.00002
9.10228e-08
1.0003
0.00239009
1
-2.7718e-15
0.962758
1.21206
0.99847
1.06212
0.982065
1.00297
0.993841
0.988137
1.00225
0.865102
0.99908
0.970851
1.00134
0.864123
6.08097e-10
0.408675
4.29312e-09
0.9686
-6.07948e-17
0.404415
-3.43415e-16
1
0.999338
0.996858
0.963425
1.01184
0.983399
1.00444
1.00163
1.00265
0.993994
1.0115
1.00074
1.00227
0.989641
1.77409e-11
0.0363531
1.77409e-11
0.248555
-1.73613e-21
0.0306053
1.35731e-24
1.00302
1
0.67888
0.679623
0.677433
1.00182
1.00006
0.979949
0.991777
1.00217
1.0207
0.994765
1.00209
0.979306
0.998692
0.664446
1.00004
0.786371
0.666182
1.00002
0.999125
1.01485
1.01957
1.00278
1.03809
1.03506
1.01676
1.00288
1.0033
0.678929
1.00024
0.674907
0.67593
1.00336
1.00034
0.981858
1.02417
0.996506
1.00548
0.991529
1.00333
0.987697
0.996653
0.786071
0.674082
1.00006
0.673882
1.00011
0.996755
1.01031
1.00149
1.00026
0.951545
1.00068
1.00044
1.00948
1.00073
0.991395
0.996283
0.979913
1
0.995135
1
1.00007
1.00003
1.00125
1.00057
1.00014
1.00068
1.00003
1.03265
1.03265
1.0218
1.02828
1.0231
1.03213
1.03242
1.00962
0.952239
1.00089
1.00012
1.00096
1.00035
1.00929
1.00024
0.928077
1
0.959983
1
0.99845
1.0003
1.0002
1.00089
1.00025
1.00143
1.0004
1.00112
1.00037
1.00249
1.00064
1.00107
1.00075
1.00062
1.00123
1.00256
1.01598
1.05055
1.00283
1.0142
1.10661
1.00321
1.01806
1.01015
1.00237
1.00064
1.00042
1.00386
1.00062
1.01029
1.00638
1.00359
0.999846
1.0039
0.994478
1
1.00617
1.00284
1.00117
1.00081
1.00124
1.00062
1.00151
1.00273
1.0159
1.02806
1.06796
1.00317
1.13692
1.00303
1.01496
1.00976
1.00102
1.00253
1.00104
1.00367
1.00078
1.00918
0.996536
0.998967
1.00001
1.00001
0.999209
1.00003
1.00005
0.971065
0.865326
0.997916
0.991383
0.879126
0.997397
0.971649
1.00014
1.00048
1.0016
1.00174
1.00022
1.00124
1.00009
0.984173
1.00387
0.99724
0.976103
0.997083
0.985195
0.976506
0.997693
1.00025
0.999834
0.999906
0.999716
1.00002
0.988833
0.975494
0.988913
0.892388
0.996067
0.887243
0.999868
0.970031
1.00017
1.00167
1.0002
1.00094
1.00029
1.00101
1.00001
1.003
1.00428
1.00536
1.00395
1.00417
1.00549
1.00345
1
0.997198
1.00013
1
0.99712
1.00062
1.00022
1.00166
1.00391
1.00165
1.00404
1.00414
1.00096
1.0024
1.00352
1.00774
1.00477
1.01922
1.0046
1.01116
1.00266
1.00318
1.004
1.00422
1.0054
1.00452
1.00548
1.00299
1.00022
1
1
1.00047
1
1.0008
1.00011
1.00182
1.00447
1.0042
1.001
1.00469
1.00128
1.0014
1.00005
1.00141
1.0037
1.00329
1.00111
1.00345
1.00067
0.99974
0.998126
1.0041
1.01485
1.00087
1.00395
0.999972
1.00137
1.0048
1.0059
1.00523
1.00475
1.0057
1.00162
0.994581
0.994678
0.999794
0.940002
0.999614
0.940587
0.98943
1
1.0033
1.00113
1.00337
1.00129
1.00354
1.0001
1.00049
1.01501
1.00387
1.00377
1.00626
1.00369
1.00037
1.00145
1.00522
1.00463
1.00554
1.00482
1.00595
1.00143
1.00668
1.00649
1.00611
1.00444
1.00545
1.00597
1.00675
0.994124
0.991465
1.00448
1.00264
0.991142
1.00523
0.992486
1.0011
1.0038
1.00426
1.00319
1.00363
1.00434
1.00112
1.00818
1.03821
1.01183
1.02722
1.01376
1.02319
1.00727
1.0069
1.00431
1.00583
1.00591
1.00517
1.00616
1.0067
0.996694
0.99913
0.995709
1.00539
0.990651
1.00501
0.99997
1.00124
1.00343
1.00317
1.00456
1.00368
1.00455
1.00117
1.00905
1.00549
0.999342
1.00136
1.00611
0.999797
1.00725
1.00371
1.10704
1.00715
1.06952
1.09693
1.00745
1.00109
1.00168
0.999938
1.00243
1.00032
1.00003
1.00276
1.0017
1.02847
1.02398
1.01667
1.04077
1.01722
1.03191
1.02922
1.00909
1.00154
1.00593
1.0008
1.00597
1.00039
1.00878
1.00348
0.979139
1.01148
1.00525
1.13786
1.0057
1.00341
1.0019
1.0006
1.00009
1.00366
1.00022
1.0034
1.00217
0.994934
1.00043
1
1.00007
1.00091
1
0.993335
0.966143
0.967505
0.999333
0.987046
0.905291
0.998559
0.972011
0.995679
1
0.999863
1
1
0.999752
0.992994
0.991561
0.993743
1.00253
0.906059
1.0025
0.952904
0.974332
0.997157
1.00027
1.00151
1
1.00112
1.00001
0.999204
0.964031
1.00169
0.865434
1.00031
0.865868
0.999952
0.956289
0.990877
0.999329
1
0.999673
0.999992
0.9999
0.99455
1.00101
1
0.828885
0.944057
1
0.829206
1.00107
1.00142
1.00353
0.997798
1.00282
1.00364
1.00009
1.00058
1.0008
0.790349
1
0.686091
0.788436
1.00042
1.00011
1.00479
1.01396
1.00151
1.00863
1.00143
1.01055
1.00439
1.00093
0.943562
1
0.831609
1
0.829672
1.0005
1.00096
1.00227
1.00241
1.00102
1.00356
1.00028
1.00099
1.00112
0.685187
0.78772
1.00025
0.786922
1.00076
1.00049
1.00234
1.00034
0.673095
0.679381
1.00313
0.673068
1.00013
0.993702
1
1.00617
1.03301
0.992045
1.00214
1.00695
1.00004
0.666482
1.00007
0.786875
0.999966
0.666466
1.00007
1.02206
1.0224
1.00506
1.04665
1.04458
1.02236
1.00404
1.00239
0.679111
1.00021
0.668365
0.670474
1.00296
1.00023
0.999629
1.02636
1.01303
1.00771
0.990379
1.00745
1.00001
1.00026
0.787639
0.668848
1.00006
0.668247
1.0001
1.00025
1.00868
1.00153
1.00038
0.953413
1.00928
1.00146
1.00053
1.00198
1
0.985527
1.03259
1.00075
0.992854
1
1.00026
1.00049
1.00117
1.00069
1.00018
1.00036
1.0008
1.0152
1.00765
1.01524
0.964204
1.01409
0.964047
1.01084
1.00803
0.953369
1.00135
1.00113
1.00227
1.00081
1.00715
1.00258
1.05405
0.978172
1.00368
0.983996
1.00207