/*--------------------------------*- C++ -*----------------------------------*\
| =========                 |                                                 |
| \\      /  F ield         | OpenFOAM: The Open Source CFD Toolbox           |
|  \\    /   O peration     | Version:  5.0                                   |
|   \\  /    A nd           | Web:      www.OpenFOAM.org                      |
|    \\/     M anipulation  |                                                 |
\*---------------------------------------------------------------------------*/
FoamFile
{
    version     2.0;
    format      ascii;
    class       volScalarField;
    location    "3.4";
    object      p;
}
// * * * * * * * * * * * * * * * * * * * * * * * * * * * * * * * * * * * * * //

dimensions      [1 -1 -2 0 0 0 0];

internalField   nonuniform List<scalar> 
8437
(
99.4407
101.18
106.261
86.7086
97.5877
100.005
99.5405
96.6855
94.1762
91.5967
88.9995
86.4019
83.8119
81.2559
78.7151
76.196
73.695
71.2241
68.7756
66.3587
63.9444
61.5513
59.1888
56.8204
54.4778
52.1533
49.8349
47.5153
45.2138
42.9438
40.6703
38.4189
36.1981
33.9728
31.7378
29.536
27.3876
25.2763
23.1747
21.0659
18.9862
16.9514
14.921
12.8643
10.8363
8.85518
6.87814
4.89413
2.93178
0.979899
100.963
99.8882
103.098
97.2205
121.559
105.101
101.593
97.9875
94.3231
91.7355
89.0728
86.4458
83.8594
81.2836
78.7256
76.2128
73.7004
71.2452
68.8128
66.367
63.9523
61.5558
59.1808
56.8199
54.4642
52.1358
49.8239
47.5189
45.2279
42.9461
40.6818
38.431
36.1942
33.9607
31.7398
29.541
27.3823
25.2595
23.1541
21.0641
18.9918
16.9568
14.9279
12.8831
10.8439
8.84608
6.86532
4.89106
2.93201
0.979592
100.491
99.8117
100.575
97.471
96.5338
105.735
102.705
98.4225
94.5189
91.8333
89.1347
86.4696
83.8595
81.2913
78.7359
76.2037
73.7173
71.2693
68.824
66.3649
63.9554
61.5595
59.1741
56.816
54.4644
52.1318
49.8135
47.5241
45.2347
42.9508
40.6878
38.4305
36.174
33.9493
31.7457
29.5546
27.3819
25.2499
23.1513
21.0656
19.0008
16.9548
14.9136
12.8804
10.8523
8.84237
6.85934
4.89219
2.93461
0.979447
101.599
101.325
101.34
100.871
95.3218
103.829
102.617
98.8961
94.4802
91.8301
89.139
86.5035
83.869
81.2884
78.7401
76.2116
73.7178
71.2613
68.8011
66.3668
63.9636
61.5595
59.1798
56.8201
54.4865
52.1443
49.8136
47.5301
45.2303
42.9397
40.688
38.4251
36.1683
33.944
31.7536
29.5713
27.3875
25.2459
23.1525
21.0741
19.0067
16.9454
14.8947
12.8727
10.8597
8.84512
6.85969
4.89938
2.94094
0.974693
100.616
101.943
149.858
108.114
108.557
102.701
101.207
98.5939
94.2909
91.7475
89.0958
86.4639
83.8622
81.2819
78.7451
76.2183
73.7309
71.2534
68.7805
66.3652
63.9666
61.5593
59.1852
56.824
54.4916
52.1583
49.8234
47.525
45.2173
42.9317
40.6811
38.4168
36.1653
33.9428
31.7549
29.5802
27.396
25.2489
23.1563
21.0822
19.0051
16.9282
14.8752
12.8625
10.8579
8.84691
6.86743
4.91399
2.94964
0.97277
102.253
102.957
107.536
100.832
99.9183
99.737
100.464
98.4523
94.1982
91.699
89.0634
86.444
83.8518
81.2813
78.7548
76.2291
73.7396
71.2565
68.7795
66.3634
63.9635
61.5545
59.1854
56.834
54.497
52.1735
49.8344
47.5203
45.2104
42.9215
40.673
38.4113
36.1588
33.9455
31.7594
29.5843
27.4119
25.2638
23.1606
21.0833
18.9991
16.9121
14.8622
12.8521
10.8517
8.85095
6.88363
4.93805
2.96037
0.975846
103.023
101.248
103.83
100.8
103.174
100.233
100.723
98.3252
94.3078
91.6901
89.0588
86.4378
83.8603
81.2881
78.7458
76.2235
73.7359
71.263
68.781
66.3514
63.9543
61.5558
59.1851
56.8419
54.5021
52.1701
49.8398
47.5164
45.2131
42.9358
40.6731
38.4013
36.1527
33.9522
31.7627
29.5784
27.4151
25.2762
23.1625
21.0746
18.9916
16.9111
14.8607
12.8513
10.8484
8.85285
6.88976
4.93759
2.96414
0.984623
100.046
100.285
98.8248
99.9793
103.505
96.5633
101.921
98.3074
94.3421
91.6914
89.032
86.4166
83.8444
81.2759
78.7164
76.2209
73.724
71.2497
68.7923
66.3424
63.943
61.5504
59.1813
56.8426
54.5016
52.1743
49.8418
47.5133
45.2214
42.9398
40.6685
38.398
36.1573
33.9589
31.7607
29.5673
27.4148
25.2869
23.1677
21.0685
18.987
16.9174
14.8737
12.8551
10.8471
8.85489
6.88812
4.92656
2.9624
0.988747
102.693
98.0578
98.0559
102.615
102.719
117.52
103.294
97.8618
94.1115
91.5937
88.9876
86.4008
83.8265
81.2626
78.7211
76.2157
73.7012
71.2314
68.7847
66.3489
63.9348
61.5434
59.1861
56.837
54.5021
52.1736
49.8356
47.512
45.2158
42.9387
40.6557
38.3976
36.175
33.9636
31.7535
29.5569
27.4095
25.2906
23.1716
21.0669
18.985
16.9293
14.8897
12.8554
10.8429
8.85567
6.88078
4.91575
2.95158
0.989453
99.6738
103.2
99.2999
111.926
100.028
96.6501
99.2152
96.3897
94.034
91.5192
88.9624
86.3774
83.7945
81.255
78.7143
76.198
73.697
71.23
68.7783
66.3542
63.9373
61.5443
59.1889
56.8261
54.4908
52.1699
49.8399
47.5143
45.214
42.9391
40.6574
38.4039
36.1909
33.9715
31.7427
29.5423
27.3974
25.2852
23.1743
21.0653
18.985
16.9414
14.9079
12.8577
10.8368
8.86087
6.88447
4.90461
2.93722
0.980588
100.292
101.713
104.994
107.138
97.4061
100.01
99.4548
96.6862
94.1761
91.5967
88.9996
86.4019
83.8117
81.2561
78.7151
76.1959
73.695
71.2242
68.7758
66.3587
63.9444
61.5513
59.1889
56.8202
54.4778
52.1533
49.8348
47.5153
45.2137
42.9438
40.6702
38.419
36.1981
33.9727
31.7377
29.536
27.3875
25.2763
23.1747
21.0657
18.9861
16.9515
14.9212
12.8644
10.8363
8.85536
6.87806
4.89408
2.93174
0.979975
99.9147
99.2375
99.3561
99.676
112.839
106.856
101.507
97.9876
94.3235
91.7353
89.0729
86.4457
83.8594
81.2836
78.7256
76.2126
73.7004
71.2453
68.8127
66.3669
63.9523
61.5558
59.1805
56.8199
54.4643
52.1357
49.8239
47.5189
45.2279
42.9462
40.6823
38.4311
36.1942
33.9607
31.7398
29.541
27.3822
25.2595
23.154
21.0641
18.9919
16.9568
14.928
12.8829
10.844
8.84611
6.86523
4.89112
2.9322
0.979543
100.488
98.8027
102.926
92.3708
99.252
105.37
102.706
98.4225
94.5204
91.8331
89.1347
86.4696
83.8595
81.2912
78.7359
76.2037
73.7173
71.2692
68.8244
66.3649
63.9551
61.5595
59.1739
56.8159
54.4644
52.1316
49.8135
47.524
45.2347
42.9511
40.6875
38.4304
36.1741
33.9493
31.7458
29.5546
27.3818
25.2499
23.1512
21.0654
19.0008
16.955
14.9136
12.8803
10.8523
8.8422
6.85919
4.89226
2.93468
0.979433
100.263
100.15
100.946
99.6145
95.5285
104.198
102.598
98.8867
94.4807
91.8297
89.1389
86.5034
83.8689
81.2883
78.74
76.2115
73.7177
71.2612
68.8011
66.3667
63.9635
61.5595
59.1798
56.8202
54.4864
52.1442
49.8137
47.5301
45.2304
42.9395
40.6878
38.4251
36.1683
33.944
31.7537
29.5712
27.3874
25.2459
23.1525
21.074
19.0067
16.9454
14.8945
12.8726
10.8597
8.8451
6.85959
4.89934
2.94092
0.974557
99.9915
101.533
101.3
107.424
115.024
102.537
101.209
98.4777
94.2911
91.7475
89.0959
86.4639
83.8621
81.2819
78.7452
76.2184
73.7308
71.2534
68.7803
66.3654
63.9666
61.5592
59.1851
56.8241
54.4914
52.1583
49.8235
47.5249
45.2167
42.9316
40.6818
38.4168
36.1652
33.9428
31.755
29.5802
27.396
25.2489
23.1563
21.0823
19.005
16.9282
14.8753
12.8628
10.8579
8.84689
6.86736
4.91393
2.94963
0.972818
101.254
101.393
104.743
102.369
99.5457
99.6697
100.43
98.3241
94.1984
91.6991
89.0633
86.444
83.852
81.2812
78.7548
76.229
73.7395
71.2566
68.7793
66.3633
63.9638
61.5545
59.1851
56.834
54.497
52.1737
49.8343
47.5202
45.2104
42.9215
40.673
38.4112
36.1587
33.9454
31.7594
29.5841
27.412
25.2638
23.1605
21.0833
18.9991
16.9121
14.8622
12.8521
10.8515
8.85093
6.8836
4.93807
2.96009
0.975817
102.888
99.9134
105.808
100.483
99.6597
100.251
100.695
98.3137
94.3082
91.6899
89.0588
86.4377
83.8602
81.288
78.7458
76.2235
73.7359
71.2629
68.7808
66.3515
63.9542
61.5558
59.1851
56.8419
54.502
52.17
49.8397
47.5164
45.2132
42.9357
40.6734
38.4012
36.1527
33.9521
31.7626
29.5782
27.4151
25.2761
23.1624
21.0746
18.9916
16.9109
14.8607
12.8513
10.8482
8.85283
6.88988
4.93764
2.96406
0.984747
98.5858
103.92
98.7106
99.854
103.338
96.1402
101.875
98.3028
94.3429
91.6912
89.032
86.4166
83.8444
81.2758
78.7164
76.2209
73.7243
71.2495
68.7928
66.3423
63.943
61.5505
59.1813
56.8426
54.5015
52.1745
49.8418
47.5133
45.2213
42.9399
40.6684
38.3978
36.1573
33.9589
31.7607
29.5673
27.4147
25.2868
23.1677
21.0684
18.9869
16.9174
14.8738
12.8551
10.8471
8.85487
6.88811
4.92654
2.96238
0.988714
100.765
110.124
95.7159
109.335
124.329
115.403
103.304
97.8591
94.1122
91.5934
88.9876
86.4008
83.8265
81.2625
78.7211
76.2159
73.7013
71.2307
68.7847
66.349
63.9348
61.5434
59.1861
56.837
54.5019
52.1736
49.8355
47.5117
45.2158
42.9388
40.6557
38.3974
36.1755
33.9636
31.7532
29.5569
27.4095
25.2905
23.1715
21.0669
18.985
16.9294
14.8897
12.8553
10.8429
8.85566
6.88065
4.91572
2.95165
0.989454
109.195
103.173
126.954
105.127
102.511
96.5232
99.0974
96.3902
94.034
91.5193
88.9625
86.3773
83.7943
81.255
78.7142
76.1982
73.697
71.2297
68.7784
66.3541
63.9372
61.5442
59.1889
56.8261
54.4909
52.1698
49.8397
47.5143
45.2139
42.9391
40.6575
38.404
36.1911
33.9714
31.7423
29.5425
27.3974
25.2852
23.1742
21.0653
18.985
16.9415
14.9079
12.8577
10.8368
8.86084
6.88434
4.90458
2.9373
0.980572
98.8159
100.29
108.314
104.364
102.135
100.095
99.4675
96.6859
94.1761
91.5967
88.9996
86.402
83.8114
81.2562
78.715
76.1956
73.6949
71.2242
68.7758
66.3584
63.9443
61.5518
59.1888
56.8201
54.4778
52.1533
49.8346
47.5152
45.2135
42.9437
40.6703
38.419
36.1981
33.9724
31.7376
29.5359
27.3875
25.2762
23.1747
21.0656
18.9859
16.9515
14.9212
12.8645
10.8362
8.85531
6.87793
4.89397
2.93163
0.979921
100.264
100.859
103.069
101.527
113.143
103.782
101.536
97.9883
94.323
91.7354
89.0727
86.4456
83.8593
81.2835
78.7255
76.2125
73.7003
71.2454
68.8125
66.3667
63.9524
61.5558
59.1803
56.8197
54.4645
52.1356
49.8236
47.5188
45.228
42.9462
40.6823
38.4311
36.194
33.9607
31.7398
29.5409
27.3821
25.2599
23.1539
21.0635
18.9918
16.9568
14.9278
12.8822
10.844
8.8461
6.86514
4.89105
2.93227
0.979354
100.4
98.9123
101.012
98.2958
109.856
105.6
102.703
98.4243
94.5201
91.8331
89.1346
86.4695
83.8594
81.2912
78.7358
76.2036
73.7172
71.2688
68.8242
66.3648
63.9549
61.5594
59.1738
56.8158
54.4644
52.1315
49.8134
47.524
45.2347
42.951
40.6874
38.43
36.1742
33.9494
31.7458
29.5546
27.3816
25.2499
23.1512
21.0653
19.0008
16.955
14.9133
12.8801
10.8524
8.8421
6.85904
4.89225
2.93462
0.979209
100.215
100.492
99.9356
104.648
97.8403
103.19
102.607
98.8908
94.4802
91.8295
89.1388
86.5032
83.8688
81.2883
78.74
76.2115
73.7177
71.2609
68.8011
66.3665
63.9635
61.5594
59.1799
56.8203
54.4862
52.1437
49.8138
47.5301
45.2303
42.9395
40.6877
38.425
36.1682
33.9439
31.7537
29.5711
27.3873
25.2459
23.1525
21.074
19.0067
16.9453
14.8944
12.8725
10.8598
8.84502
6.85948
4.89927
2.94083
0.974223
100.038
100.773
100.424
107.287
103.785
101.01
101.209
98.4812
94.2904
91.7478
89.0958
86.4639
83.8616
81.2818
78.7452
76.2183
73.7307
71.2533
68.7801
66.3655
63.9666
61.5591
59.185
56.8241
54.4912
52.1583
49.8236
47.5249
45.2166
42.9315
40.6817
38.4168
36.1651
33.9427
31.7549
29.5801
27.3959
25.2489
23.1562
21.0825
19.0048
16.9281
14.8753
12.8633
10.8579
8.84682
6.86751
4.91381
2.94962
0.972724
101.076
101.444
101.344
101.338
100.095
98.9186
100.416
98.3366
94.1977
91.6992
89.0631
86.444
83.8521
81.2811
78.7546
76.229
73.7395
71.2566
68.7792
66.3632
63.9637
61.5545
59.185
56.834
54.4971
52.1736
49.8343
47.52
45.2103
42.922
40.6731
38.4109
36.1585
33.9463
31.7595
29.584
27.412
25.2637
23.1604
21.0833
18.999
16.9121
14.8622
12.852
10.8513
8.85085
6.88361
4.93805
2.95966
0.975794
102.748
102.289
106.358
100.547
101.352
100.339
100.665
98.3142
94.3078
91.69
89.0587
86.4377
83.8601
81.2878
78.7457
76.2234
73.7358
71.2627
68.7807
66.3515
63.9542
61.5557
59.185
56.8418
54.5019
52.17
49.8396
47.5166
45.2135
42.9358
40.6733
38.401
36.1526
33.952
31.7625
29.578
27.415
25.2761
23.1623
21.0746
18.9916
16.9105
14.8607
12.8512
10.848
8.85276
6.89009
4.9375
2.96363
0.9847
100.149
100.082
102.071
97.0661
105.245
96.4519
101.882
98.3032
94.3425
91.6913
89.0319
86.4165
83.8443
81.2758
78.7163
76.2208
73.7245
71.2492
68.7928
66.3423
63.9429
61.5505
59.1814
56.8425
54.5014
52.1746
49.8418
47.5131
45.2212
42.9398
40.6684
38.3977
36.1572
33.9588
31.7606
29.5675
27.4146
25.2867
23.1676
21.0684
18.9865
16.9175
14.8739
12.855
10.8469
8.8548
6.88806
4.92649
2.96236
0.988677
102.801
103.575
101.594
108.054
160.265
114.971
103.298
97.8591
94.1119
91.5935
88.9875
86.4007
83.8264
81.2625
78.721
76.2161
73.7012
71.2306
68.7847
66.349
63.9347
61.5434
59.1861
56.8369
54.5018
52.1735
49.8353
47.5116
45.2159
42.9389
40.6556
38.3973
36.176
33.9635
31.7531
29.5569
27.4095
25.2903
23.1714
21.0668
18.9851
16.9296
14.8896
12.8551
10.8428
8.85561
6.88055
4.91564
2.95158
0.989355
107.217
99.0287
106.112
103.82
105.393
96.5445
99.1111
96.39
94.0339
91.5192
88.9624
86.3772
83.794
81.255
78.7142
76.1983
73.6969
71.2296
68.7785
66.354
63.9368
61.5441
59.1889
56.826
54.4908
52.1697
49.8396
47.5143
45.2138
42.939
40.6574
38.4039
36.1915
33.9713
31.7418
29.5425
27.3974
25.2851
23.1742
21.0652
18.9849
16.9415
14.9078
12.8575
10.8368
8.86074
6.88415
4.90451
2.93732
0.980504
100.107
103.239
101.944
99.8633
100.117
103.113
101.979
101.962
107.494
103.105
104.771
101.986
106.333
103.119
103.107
110.262
103.325
105.825
103.105
106.992
103.303
102.827
107.013
101.458
103.667
102.827
107.346
101.455
101.228
100.024
100.18
102.491
101.24
99.8909
100.176
100.134
99.6712
100.176
99.5794
100.085
99.6829
100.184
100.151
98.2761
101.123
100.292
100.409
98.2061
101.129
101.931
141.15
104.909
96.2745
101.925
120.258
104.919
104.075
96.7418
99.333
115.265
104.076
96.1648
99.3402
98.9326
99.6166
100.125
96.5761
98.9569
99.5786
100.144
100.123
103.735
101.967
99.9239
100.126
102.375
101.968
101.994
106.051
103.128
104.107
102.005
106.688
103.151
103.134
106.814
103.33
106.058
103.101
108.989
103.306
102.829
110.228
101.462
102.974
102.844
95.6875
101.431
101.199
99.8441
100.161
101.276
101.203
99.6813
100.292
100.08
99.7007
100.296
98.924
100.166
99.6962
100.232
100.45
98.1912
101.115
100.311
100.322
98.2125
101.122
101.928
119.648
104.937
96.3548
101.934
116.771
104.937
104.076
95.5155
99.3424
116.373
104.078
95.4601
99.3471
98.9617
99.5628
100.149
96.4183
98.9571
99.5523
100.148
100.123
102.28
101.967
100.334
100.097
102.35
101.935
102.001
106.557
103.155
104.225
101.976
106.73
103.161
103.1
108.659
103.366
105.879
103.126
108.451
103.337
102.849
95.9232
101.455
103.186
102.838
96.2898
101.417
101.154
99.6108
100.083
100.73
101.268
99.5589
100.23
100.063
99.7025
100.2
98.9017
100.255
99.7272
100.175
100.355
98.0761
101.128
100.393
100.211
98.3694
101.121
101.93
115.745
104.934
96.4625
101.934
113.427
104.947
104.08
95.4329
99.346
114.864
104.08
95.4298
99.3385
98.9515
99.6453
100.145
96.7247
98.9285
99.6832
100.126
100.991
95.9249
107.198
97.171
99.6409
96.313
104.177
101.171
99.6849
101.375
99.8651
101.232
101.261
99.526
98.3281
101.95
99.1066
99.4635
98.3364
101.848
99.1152
103.754
101.693
110.487
112.306
103.745
126.214
112.887
103.96
103.022
107.134
104.951
103.099
106.592
103.911
99.7102
102.804
99.875
101.523
99.7103
102.834
99.8862
112.472
104.903
118.839
99.8388
106.587
111.164
116.334
104.612
104.174
107.313
105.766
104.302
105.163
104.652
99.9406
102.848
100.109
102.71
99.9506
102.811
100.081
103.714
97.7675
104.489
98.6561
106.691
96.7844
104.557
100.1
103.638
102.57
103.574
103.525
102.803
100.574
100.221
101.665
100.81
102.634
100.102
101.669
100.781
107.038
102.797
111.145
114.778
105.751
102.23
111.031
100.86
100.914
102.604
102.767
100.912
102.692
100.896
100.987
100.726
100.622
101.211
101.02
100.689
100.66
100.469
100.896
99.9012
99.6858
110.485
99.3921
99.8746
99.4961
99.7028
102.244
99.7493
99.6979
101.21
99.8884
100.516
100.573
100.431
100.417
100.555
100.551
100.45
99.424
97.6012
96.467
99.6977
99.441
98.8447
97.0019
100.151
99.8842
99.6517
100.239
99.8456
100.101
100.032
100.103
101.411
99.6191
100.68
100.03
101.41
99.4847
87.4435
89.7563
153.183
103.986
77.3795
138.518
153.765
106.269
100.128
106.352
96.1038
100.065
106.194
106.53
99.6322
103.831
99.6268
101.901
99.5941
103.834
99.6323
89.6013
125.58
94.1932
119.261
144.646
130.447
91.6808
99.1905
108.623
102.725
119.627
108.604
104.978
97.9521
99.4821
99.53
98.5592
103.301
99.4914
99.4487
98.557
95.8497
79.7383
103.371
99.2802
95.6824
80.0203
100.814
98.8729
97.3937
98.9382
96.6386
97.3645
98.7619
99.0676
98.0591
99.515
98.0484
99.1097
98.0662
99.4074
98.0558
99.1081
95.858
124.834
101.937
99.2643
100.603
125.435
101.324
99.6239
101.305
99.9084
101.157
101.46
99.5929
98.335
101.843
99.1139
99.4551
98.3347
101.843
99.1135
105.771
124.292
110.884
106.875
107.017
96.8868
108.796
103.76
102.541
105.479
102.439
103.759
102.506
105.51
99.7102
102.839
99.8851
101.515
99.7099
102.825
99.8852
108.288
105.064
113.986
111.047
107.736
102.185
112.731
104.411
104.199
106.24
105.301
104.458
104.112
105.397
99.9489
102.82
100.078
102.701
99.9483
102.802
100.078
101.851
95.5915
102.96
95.0384
107.017
95.945
102.735
104.878
103.568
105.454
102.817
104.768
103.553
100.337
100.093
101.739
100.774
102.604
100.092
101.672
100.775
105.701
102.259
114.13
103.148
101.387
102.473
100.454
100.677
100.862
109.624
102.88
100.804
100.821
99.2926
101.027
100.723
100.665
101.207
101.028
100.711
100.664
112.522
99.4541
100.888
100.461
97.8648
99.5453
99.1515
99.6143
99.6568
102.097
98.9477
99.697
99.6122
101.965
100.565
100.556
100.454
100.441
100.56
100.588
100.453
99.3154
98.9315
97.7862
99.686
99.8856
108.072
98.2722
99.7985
99.8456
99.4363
100.3
99.8664
99.8454
99.5118
100.013
101.415
99.474
100.619
100.013
101.409
99.4738
81.1234
77.0349
147.147
105.938
79.0861
89.7776
120.635
106.004
99.9873
106.023
96.7465
106.101
99.9665
105.622
99.5897
103.831
99.6277
101.881
99.5903
103.829
99.6273
143.616
112.551
91.3339
144.347
132.715
107.792
91.9605
102.356
108.546
102.417
116.367
99.9083
108.561
101.347
99.4888
99.447
98.555
103.302
99.4879
99.4493
98.555
98.8063
81.708
100.97
99.0331
96.6012
125.093
100.814
98.8262
97.3626
98.6749
96.4668
98.8289
97.3757
98.6649
98.0644
99.3976
98.0548
99.1
98.0642
99.3988
98.0551
99.3903
126.761
101.672
102.083
100.762
123.171
92.4776
101.44
99.6504
101.655
100.021
101.442
101.889
99.6561
98.3359
101.848
99.1145
99.5655
98.3277
101.974
99.1059
106.206
98.8614
108.533
106.713
105.443
101.417
116.16
104.472
102.975
106.559
104.265
104.453
102.6
106.39
99.7096
102.817
99.8867
101.59
99.7086
102.798
99.8749
103.218
107.52
121.474
110.165
104.704
101.92
106.009
104.81
104.278
105.032
105.65
104.473
104.358
105.05
99.9502
102.819
100.08
102.697
99.9398
102.848
100.108
106.889
96.7528
102.857
85.131
105.723
107.316
102.881
100.709
103.482
101.916
103.374
103.156
103.379
104.543
100.1
101.727
100.78
102.609
100.224
101.734
100.81
99.7369
102.534
100.11
106.011
97.9294
102.894
88.8682
100.555
100.742
99.2913
100.804
100.556
100.743
99.228
101.023
100.69
100.659
101.212
100.988
100.749
100.622
97.123
99.6488
99.6187
100.069
97.1191
99.8694
99.2921
99.7441
99.5645
101.101
98.924
99.702
99.5422
101.131
100.554
100.554
100.452
100.459
100.517
100.563
100.431
99.5949
106.827
98.2684
100.447
99.6195
104.627
99.0839
99.8059
99.8564
99.9911
100.365
99.8586
99.8422
99.448
100.024
101.42
99.4836
100.629
100.102
101.418
99.6187
86.0528
102
121.231
106.517
85.9216
95.2561
61.4095
105.704
99.9948
107.507
96.3622
105.756
100
107.026
99.5936
103.829
99.6316
101.927
99.6313
103.825
99.6257
130.376
114.017
92.5338
85.2139
125.591
107.776
93.0983
104.743
108.522
101.23
115.658
102.737
108.603
101.446
99.4905
99.448
98.5571
103.291
99.4815
99.5307
98.5594
99.8806
124.695
100.686
105.63
99.0638
118.951
99.8239
98.9119
97.4582
101.269
96.5599
98.9853
97.4292
100.066
98.0657
99.4098
98.0565
99.2129
98.0585
99.5134
98.049
100.891
99.8369
101.361
100.112
101.315
100.892
99.8404
100.145
101.556
102.229
102.497
101.132
102.234
100.277
101.089
100.629
102.129
101.964
100.614
102.134
101.082
101.131
99.8919
99.6219
101.225
101.171
101.114
99.6351
100.89
100.114
99.8387
101.293
101.29
100.882
99.8401
100.104
103.223
100.894
102.147
101.225
102.137
100.159
101.117
101.98
100.669
102.134
100.672
102.135
101.114
103.065
102.183
102.735
101.97
102.174
102.742
103.03
104.377
106.641
99.6042
111.798
106.172
99.417
104.35
103.496
103.002
103.127
103.108
103.006
103.19
103.494
104.102
104.881
102.738
105.741
102.975
106.699
104.067
103.007
101.978
102.184
102.754
102.169
102.747
103.004
104.38
117.197
106.152
113.662
106.141
99.9686
104.402
103.498
103.112
103.001
103.204
103.004
103.139
103.516
104.074
103.473
103.521
103.088
103.482
103.51
104.07
104.25
126.909
104.887
109.468
117.563
104.895
104.476
103.873
103.269
103.968
103.311
103.285
103.962
103.883
104.596
105.657
104.218
105.453
104.271
105.175
104.503
104.076
103.118
103.449
103.522
103.489
103.557
104.06
104.098
114.28
103.239
104.854
128.886
104.862
104.002
103.82
103.364
103.344
103.928
103.226
103.938
103.808
101.808
103.013
102.276
102.82
102.965
102.296
102.335
102.265
107.956
101.401
107.146
104.583
101.41
102.194
102.149
101.91
101.412
101.46
101.877
101.357
102.14
106.623
103.501
103.642
102.114
103.694
103.373
104.097
101.876
102.84
102.981
102.309
102.975
102.305
104.426
102.477
107.366
103.593
101.118
103.999
101.72
102.964
102.163
101.468
101.86
101.377
101.864
101.375
102.169
100.919
101.292
100.905
101.225
101.299
100.905
100.956
100.109
99.6407
100.092
100.008
99.6437
100.003
100.1
100.371
100.52
100.228
100.214
100.489
100.167
100.465
100.834
102.616
100.897
102.65
100.896
102.593
100.832
100.901
101.232
101.275
100.889
101.339
100.899
100.886
100.105
99.9622
99.9942
99.8855
100.039
100.043
100.104
100.355
100.365
100.48
100.127
100.635
100.131
100.41
99.9293
99.9248
100.085
100.143
99.9246
100.061
99.9502
99.869
100.047
99.7551
99.6695
99.6923
99.7484
99.838
100.04
100.11
100.051
100.171
100.105
100.044
100.039
100.202
99.4368
99.6696
101.297
99.7054
101.212
99.8558
99.935
100.143
99.9301
100.06
99.9066
100.049
99.9178
99.8618
99.6754
100.015
99.7509
100.2
99.7547
99.8615
100.032
100.173
100.106
100.046
100.102
100.055
100.036
100.141
100.301
100.44
100.195
100.211
100.434
100.139
99.5069
97.9958
99.6178
98.3527
98.0341
99.5945
99.824
100.23
100.704
100.58
101.123
100.691
100.573
100.223
99.9942
100.265
99.8023
99.4282
99.8942
100.035
99.8684
100.153
100.236
100.149
100.42
100.284
100.435
100.14
99.4765
98.4032
99.422
99.5787
98.0351
99.5871
99.8603
100.226
101.15
100.669
100.576
100.702
100.578
100.235
104.506
101.48
103.701
101.934
101.475
103.634
104.597
109.339
121.728
110.16
150.081
121.489
110.136
109.341
106.839
104.863
106.947
104.913
104.853
106.909
106.836
106.338
96.4483
100.02
107.953
100.064
105.558
106.23
104.513
101.922
101.467
103.631
101.464
103.627
104.478
109.385
126.033
114.041
109.711
128.869
109.866
109.517
106.819
104.919
104.855
106.893
104.867
106.899
106.809
101.331
105.691
102.051
104.075
105.645
102.056
101.541
97.4527
107.798
97.2151
98.1747
97.3029
97.278
97.9886
99.1801
100.374
98.2989
99.3429
100.376
98.2947
98.8358
97.9471
115.403
108.539
100.505
108.538
100.194
102.163
101.45
104.076
105.655
102.061
105.645
102.058
101.865
97.5302
95.4568
98.359
97.1185
98.1957
97.1227
97.2643
99.1497
99.3404
100.361
98.3011
100.366
98.297
98.6893
98.8698
98.2576
99.2552
98.9405
98.2594
99.2721
98.8653
99.3377
97.5638
100.014
99.618
97.5876
99.2688
99.5462
99.1742
99.4755
99.7214
100.134
99.4769
99.173
99.7252
98.8517
96.6781
97.3614
98.7066
97.3672
98.7388
98.8426
98.8701
98.9491
98.2579
99.2905
98.2592
99.2822
98.8712
99.1762
99.5972
97.4361
99.5713
97.5611
99.0841
99.5593
99.1789
100.142
99.4961
99.7198
99.4947
99.1798
99.7222
100.867
99.8378
101.315
100.127
100.872
101.351
99.8374
100.185
101.572
102.186
103.41
100.182
101.821
102.218
101.092
100.668
102.131
101.963
101.093
100.697
102.125
101.405
99.9509
99.5944
101.627
101.532
101.425
99.5729
100.865
100.127
99.8321
101.39
101.381
100.868
99.8339
100.298
102.548
101.594
102.196
104.116
102.215
100.317
101.091
101.965
100.672
102.114
100.673
102.118
101.084
102.94
102.191
102.761
102.001
103.004
102.199
102.769
104.354
106.276
104.483
106.074
104.393
105.612
104.602
103.507
102.999
103.208
103.136
103.522
102.997
103.298
103.912
106.344
102.699
111.608
102.968
111.882
104.461
102.874
102.007
102.208
102.787
102.239
102.779
102.815
104.419
106.467
109.081
104.869
107.067
104.746
104.458
103.482
103.144
102.996
103.189
102.997
103.155
103.511
104.018
103.431
103.505
103.066
104.034
103.417
103.496
103.75
103.784
104.72
120.787
103.888
102.765
104.996
103.901
103.216
103.938
103.307
103.869
103.38
103.935
104.374
105.409
104.152
111.583
104.104
104.929
104.473
103.993
103.116
103.422
103.529
103.4
103.535
103.975
103.79
109.04
101.823
104.842
102.735
104.848
103.371
103.891
103.338
103.293
103.93
103.449
103.944
103.858
105.684
103.001
102.314
102.807
103.381
102.992
102.328
104.972
102.985
101.041
109.666
102.855
102.32
101.615
102.191
101.862
101.346
101.46
102.18
101.883
101.301
104.686
102.923
103.723
102.116
103.647
100.327
102.875
103.525
102.82
103.117
102.273
102.994
102.306
107.585
102.729
116.494
114.452
101.022
102.178
101.224
102.255
102.186
101.441
101.843
101.268
101.842
101.268
102.475
100.897
101.289
100.899
101.193
100.873
101.262
100.871
100.057
99.8433
99.8174
99.7865
100.104
100.022
99.7589
100.386
100.499
100.134
100.194
100.383
100.495
100.132
100.574
102.027
100.736
99.4913
100.793
99.5501
100.483
100.891
101.305
101.253
100.866
101.268
100.888
100.902
100.017
99.745
99.515
99.6735
99.5035
99.7162
100.001
100.368
100.464
100.491
100.142
100.538
100.125
100.381
99.9123
99.9068
100.101
100.076
99.9125
99.9005
100.042
100.033
100.032
99.7483
99.7249
99.8583
100.249
99.7497
100.031
100.1
100.054
100.342
100.044
100.119
100.072
99.8027
98.8868
99.5781
101.118
99.596
101.4
99.7214
99.9105
100.089
99.9087
100.084
99.9101
100.038
99.9145
99.8856
99.7249
99.8375
99.7562
99.7876
99.7495
99.757
100.028
100.286
100.093
100.027
100.09
100.035
100.026
100.145
100.159
100.425
100.355
100.146
100.178
100.428
99.6161
105.147
99.5759
98.128
99.6437
105.866
99.569
100.231
100.665
100.588
101.12
100.229
100.688
100.588
99.8398
100.294
99.852
99.3819
99.8466
99.3543
99.8238
100.151
100.251
100.116
100.436
100.171
100.419
100.167
99.6396
98.1514
99.3203
99.6022
99.2916
99.6166
99.6842
100.233
101.12
100.662
100.588
100.674
100.59
100.231
104.462
101.472
103.66
101.919
104.472
101.471
103.665
109.789
110.219
109.548
119.209
109.695
106.604
109.494
106.82
104.855
106.894
104.919
106.823
104.858
106.902
105.901
97.5764
99.9798
107.385
99.9886
106.231
105.822
104.433
101.931
101.467
103.672
101.474
103.677
104.397
109.837
117.445
110.166
109.428
106.1
109.573
109.886
106.833
104.953
104.865
106.877
104.889
106.897
106.761
101.579
105.673
102.066
104.075
101.762
105.686
102.074
99.447
98.2428
97.2087
95.4731
97.2714
98.0645
97.2681
98.9585
100.36
98.3008
99.3446
98.6819
100.36
98.2832
100.832
115.275
108.549
103.52
108.657
101.067
104.529
101.708
104.077
105.673
102.089
105.721
102.083
101.712
99.3955
95.4712
97.9231
97.6266
97.8613
97.1974
98.9173
98.8683
99.3469
100.365
98.4669
100.362
98.2986
98.8273
98.876
98.2573
99.2973
98.9612
98.8729
98.2585
99.3034
99.0525
97.3833
99.6399
99.5058
99.0821
97.3734
99.5792
99.197
99.4996
99.7191
100.15
99.1863
99.5032
99.7207
98.8435
98.917
97.3453
101.502
97.3737
98.9154
98.8581
98.8785
98.9596
98.2586
99.3061
98.2585
99.3062
98.881
99.2492
99.499
102.354
99.6426
97.3904
99.2121
99.5952
99.2099
100.15
99.5102
99.725
99.507
99.2262
99.7225
100.876
99.8309
101.373
100.121
100.874
101.378
99.8331
100.59
100.645
102.223
102.448
100.439
100.315
102.24
101.075
100.673
102.112
101.965
101.078
100.675
102.114
101.441
100.496
99.7467
102.479
102.431
101.456
99.6601
100.877
100.112
99.8313
101.35
101.372
100.871
99.8348
100.552
102.407
99.9612
102.236
100.051
102.121
100.527
101.075
101.954
100.653
102.098
100.668
102.11
101.072
102.812
102.203
102.79
101.996
102.809
102.209
102.787
104.365
105.604
104.904
106.66
104.444
105.692
104.89
103.524
102.997
103.225
103.157
103.519
102.997
103.457
104.291
104.348
102.687
108.452
102.688
106.356
104.334
102.819
101.988
102.214
102.769
102.214
102.78
102.978
104.728
106.676
106.476
105.459
105.724
104.885
105.228
103.524
103.161
102.99
103.318
102.998
103.305
103.626
103.995
103.426
103.497
103.094
104.05
103.431
103.491
103.065
101.469
104.833
108.194
103.097
101.378
104.715
103.878
103.198
103.913
103.318
103.857
103.318
103.907
104.515
105.295
104.389
105.241
104.36
105.219
104.539
103.98
103.093
103.427
103.517
103.438
103.519
103.979
103.159
108.454
101.308
104.863
101.519
104.727
103.133
103.789
103.32
103.615
103.909
103.397
103.907
103.752
102.83
103.097
102.264
102.836
102.27
103.093
102.292
104.523
114.058
101.003
101.495
104.437
107
100.938
102.258
101.819
101.237
101.453
102.253
101.82
101.238
108.41
103.183
103.515
101.568
103.775
100.493
104.723
102.774
102.835
103.085
102.388
103.107
102.463
101.88
102.011
97.1302
107.668
100.921
107.197
100.924
105.196
102.281
101.423
101.825
101.229
101.82
101.226
102.277
100.888
101.252
100.905
101.185
100.891
101.243
100.859
100
99.4738
99.618
99.597
100.004
99.453
99.5797
100.384
100.489
100.136
100.117
100.377
100.506
100.134
100.431
100.664
100.729
99.6025
100.735
99.2264
100.412
100.889
101.31
101.244
100.903
101.244
100.915
100.886
100.011
99.5736
99.4427
99.6542
99.4465
99.5621
100.009
100.447
100.269
100.49
100.169
100.493
100.122
100.418
99.9227
99.9056
100.049
100.054
99.9236
99.909
100.05
99.853
99.6429
99.7607
99.6941
100.033
99.6225
99.7677
100.025
100.128
100.048
100.196
100.025
100.118
100.036
99.5537
98.8373
99.5821
105.031
99.531
100.904
99.6254
99.9228
100.135
99.8946
100.088
99.8924
100.047
99.9233
99.8521
99.6903
100.259
99.7961
99.5507
99.7804
99.8591
100.024
100.181
100.127
100.032
100.124
100.034
100.024
100.164
100.147
100.436
100.292
100.163
100.153
100.435
99.6962
99.9744
99.6207
98.0913
99.7331
99.4376
99.5946
100.238
100.654
100.589
101.117
100.237
100.682
100.63
99.8008
100.428
99.8874
99.5519
99.861
99.3755
99.8194
100.163
100.297
100.236
100.444
100.286
100.44
100.191
99.7374
98.064
101.313
99.6306
99.6272
99.5783
99.6954
100.239
101.115
100.756
100.638
100.685
100.623
100.249
104.36
101.468
103.673
101.93
104.372
101.469
103.671
109.526
101.798
109.431
114.616
109.688
101.403
109.493
106.778
104.851
106.978
104.957
106.759
104.854
106.88
105.659
96.4474
100.016
105.942
100.006
105.883
105.645
104.376