/*--------------------------------*- C++ -*----------------------------------*\
| =========                 |                                                 |
| \\      /  F ield         | OpenFOAM: The Open Source CFD Toolbox           |
|  \\    /   O peration     | Version:  5.0                                   |
|   \\  /    A nd           | Web:      www.OpenFOAM.org                      |
|    \\/     M anipulation  |                                                 |
\*---------------------------------------------------------------------------*/
FoamFile
{
    version     2.0;
    format      ascii;
    class       surfaceScalarField;
    location    "3.4";
    object      phi;
}
// * * * * * * * * * * * * * * * * * * * * * * * * * * * * * * * * * * * * * //

dimensions      [0 3 -1 0 0 0 0];

internalField   nonuniform List<scalar> 
25186
(
2.19566e-09
-5.00756e-09
-1.77492e-09
1.88719e-09
1.84702e-09
4.57186e-10
9.50805e-10
1.87435e-09
2.12258e-09
1.4626e-09
-2.92565e-10
-1.31282e-09
-9.18484e-10
-1.0128e-09
-3.50374e-09
5.83435e-09
-7.05959e-10
2.02873e-09
-5.15001e-09
-7.39972e-09
9.43873e-10
1.69868e-09
-3.56788e-10
4.31387e-09
-3.12402e-10
3.70966e-10
4.43241e-10
-4.70598e-10
-6.85227e-11
-6.87511e-12
5.21647e-11
2.11545e-11
1.35241e-09
-2.23173e-11
-2.79278e-11
-2.25163e-10
-2.41129e-10
-3.73025e-10
-3.99968e-10
-2.55632e-11
-3.4484e-11
-4.13823e-11
1.3675e-09
-2.66797e-11
-2.21678e-12
1.39068e-09
-2.9086e-11
2.38693e-13
1.40286e-09
-1.49983e-11
7.33833e-14
1.41185e-09
-9.45355e-12
-2.81752e-14
1.41793e-09
-5.93201e-12
1.98575e-13
1.42041e-09
-3.93261e-12
-1.30066e-12
1.42284e-09
-2.26654e-12
-4.60873e-14
1.42396e-09
4.90224e-14
-6.16106e-13
1.42521e-09
-1.03403e-12
8.48917e-15
1.4255e-09
-1.10888e-12
-1.35184e-13
1.42414e-09
3.18339e-12
-9.77927e-13
1.42508e-09
-7.86753e-13
-2.48688e-13
1.42543e-09
-3.46705e-13
-2.28458e-13
1.42522e-09
-6.97663e-14
3.56266e-14
1.42508e-09
3.75115e-13
-3.51814e-13
1.42496e-09
-4.65177e-14
1.02815e-13
1.42542e-09
-1.31013e-12
9.65379e-13
1.42518e-09
-1.72197e-12
2.08107e-13
1.42524e-09
3.13796e-13
-1.01564e-13
1.42538e-09
-1.4681e-13
1.22657e-13
1.42445e-09
2.30945e-12
-3.88874e-12
1.42467e-09
1.82167e-13
2.90105e-13
1.42414e-09
-6.97232e-13
4.34026e-12
1.42426e-09
-7.36629e-13
2.7292e-12
1.42363e-09
-1.13569e-13
2.18234e-13
1.42501e-09
-3.18711e-12
1.6197e-12
1.42455e-09
1.88842e-13
7.68726e-14
1.42435e-09
1.82639e-13
8.91053e-15
1.42376e-09
5.9421e-13
1.26054e-14
1.42339e-09
7.71195e-13
-5.30654e-13
1.42544e-09
-3.79554e-12
1.1539e-12
1.42458e-09
5.741e-13
9.26749e-14
1.42444e-09
1.05078e-13
2.74676e-14
1.42434e-09
-1.33836e-13
1.2494e-14
1.42529e-09
-6.85465e-13
-6.42613e-13
1.42364e-09
3.84743e-12
-1.87483e-12
1.42394e-09
-4.01509e-13
8.81075e-14
1.42379e-09
2.38301e-13
1.37318e-13
1.42469e-09
-8.42795e-13
-1.17737e-13
1.42444e-09
1.76687e-13
1.37777e-13
1.42391e-09
-4.37392e-13
7.71857e-13
1.3165e-12
-1.18483e-12
1.48867e-08
4.58983e-09
-2.3095e-08
8.43109e-10
-6.23559e-09
1.14829e-08
1.03425e-09
5.9946e-09
1.6929e-09
-2.03805e-10
4.20111e-10
-9.66189e-10
8.24473e-10
1.56454e-09
1.69252e-09
9.6358e-10
-2.89369e-10
-1.41187e-09
-1.17691e-09
-4.99387e-10
9.80986e-10
-8.28462e-09
1.38668e-09
1.18806e-08
-5.96361e-09
2.11057e-09
8.37761e-10
-1.02339e-09
-5.61723e-10
-1.36323e-09
1.0231e-09
-3.83465e-10
3.49339e-11
-7.08999e-10
3.443e-11
-9.75801e-11
7.03358e-12
-1.24352e-11
7.67218e-11
2.62599e-11
-2.02757e-10
2.03765e-10
-1.5923e-11
-7.39607e-12
1.39272e-09
-5.92086e-11
-2.35012e-11
-2.5031e-10
-2.56526e-10
-4.10075e-10
-4.19773e-10
1.40505e-09
-3.90949e-11
-2.26504e-12
1.41271e-09
-2.30889e-11
4.47482e-13
1.41767e-09
-1.42987e-11
-1.08019e-13
1.42072e-09
-8.8461e-12
-1.40523e-13
1.42246e-09
-5.65276e-12
-3.82857e-14
1.42366e-09
-3.48825e-12
2.10016e-15
1.42473e-09
-2.0574e-12
9.91211e-13
1.42506e-09
-1.41029e-12
-8.85383e-15
1.42421e-09
1.30909e-13
-4.53409e-13
1.42649e-09
-9.54216e-13
1.7904e-12
1.42594e-09
-4.47389e-13
1.20507e-13
1.42552e-09
-5.65298e-14
4.88597e-14
1.42556e-09
-1.75504e-13
-2.88041e-14
1.42541e-09
-1.15537e-13
5.44824e-13
1.42573e-09
3.65942e-13
-8.10188e-13
1.42519e-09
1.63111e-13
-1.00641e-12
1.42464e-09
-4.45162e-14
-1.2095e-12
1.42482e-09
1.47664e-13
-8.79599e-14
1.42474e-09
-2.38883e-13
1.04518e-13
1.4247e-09
-6.36254e-13
2.91913e-12
1.42393e-09
8.23021e-13
6.38497e-14
1.42424e-09
1.53689e-13
-1.22971e-12
1.42444e-09
4.87283e-13
-1.48601e-12
1.42563e-09
-3.45711e-12
2.08985e-12
1.42454e-09
-2.77493e-12
6.1654e-13
1.42455e-09
2.39704e-13
-1.07614e-13
1.42461e-09
1.11089e-13
-3.94786e-14
1.42488e-09
2.79944e-13
9.51025e-15
1.42511e-09
1.63614e-13
3.52797e-13
1.42323e-09
-1.10248e-12
-8.32866e-13
1.42361e-09
3.04752e-13
-1.28372e-13
1.42379e-09
-7.4922e-14
-1.08711e-14
1.42359e-09
3.01656e-13
-2.52184e-13
1.42363e-09
-1.39195e-12
6.60904e-13
1.42501e-09
7.70882e-13
1.68937e-12
1.42453e-09
1.42451e-13
-6.41952e-14
1.42448e-09
2.36111e-13
5.54462e-14
1.42417e-09
-1.45747e-12
9.18698e-13
1.42401e-09
3.97751e-13
-5.67301e-14
1.42431e-09
1.61921e-13
-9.04514e-13
-1.73764e-13
1.22775e-12
-2.36333e-09
5.5538e-09
2.78826e-09
6.51825e-10
-4.45998e-10
-9.43454e-09
7.80824e-11
3.02521e-11
5.21463e-10
-1.81426e-09
-1.17865e-09
-1.74823e-10
3.51044e-09
1.60197e-09
4.45986e-09
6.05175e-10
-1.20231e-09
-6.53189e-10
-1.71209e-09
-5.86136e-09
-2.57048e-10
3.12111e-12
3.50172e-08
-1.39894e-08
-1.77063e-08
5.1391e-09
-1.90643e-10
-5.58906e-09
-1.17366e-09
-1.7532e-09
-4.49796e-10
-7.54723e-10
1.20586e-10
2.83713e-09
-1.1616e-10
-2.18149e-09
6.16171e-10
-1.64517e-11
1.69793e-09
-4.16235e-11
-5.31113e-12
-8.65268e-11
2.31865e-11
1.10275e-10
-3.64665e-11
2.14035e-10
-2.03354e-11
-5.57863e-12
-3.65577e-11
-6.58795e-11
-6.65536e-11
1.73364e-11
1.43955e-09
-4.90673e-11
-2.65496e-11
-2.65512e-10
-2.73304e-10
-4.32827e-10
-4.51471e-10
1.43223e-09
-2.87664e-11
-2.92996e-12
1.42848e-09
-1.96821e-11
3.77824e-13
1.42716e-09
-1.2757e-11
-2.07262e-13
1.42665e-09
-8.294e-12
-4.79416e-14
1.42628e-09
-5.28498e-12
-1.58843e-14
1.42606e-09
-3.2967e-12
1.19166e-14
1.42603e-09
-2.09625e-12
2.95619e-14
1.4259e-09
-1.3522e-12
1.7532e-14
1.42641e-09
-1.67577e-12
1.22563e-12
1.42573e-09
4.87478e-13
-8.36016e-13
1.42568e-09
-4.45544e-13
-4.34348e-14
1.42585e-09
7.45425e-13
-1.06654e-12
1.42604e-09
-4.44785e-13
-9.57024e-15
1.42572e-09
2.79685e-13
-1.61218e-13
1.42576e-09
-6.31141e-13
8.83037e-13
1.42397e-09
1.88328e-12
-1.00108e-14
1.4245e-09
-6.50158e-13
-1.0183e-14
1.42438e-09
-1.86394e-13
3.73608e-13
1.42416e-09
-1.3167e-13
5.17094e-14
1.42442e-09
5.22859e-13
-1.48069e-12
1.42576e-09
1.14179e-12
-1.72666e-12
1.42528e-09
5.30731e-13
4.18672e-14
1.42599e-09
7.49357e-13
-1.04326e-12
1.42449e-09
6.01479e-15
-2.02632e-12
1.42409e-09
2.36655e-13
-2.66998e-12
1.42421e-09
-1.85166e-14
8.21333e-14
1.42438e-09
-1.48774e-13
5.10402e-14
1.42455e-09
7.04001e-14
6.28749e-15
1.42437e-09
2.74467e-14
2.88199e-13
1.42401e-09
-3.80643e-13
-3.84321e-13
1.42379e-09
1.42371e-12
-9.15354e-13
1.42374e-09
6.67007e-14
-1.075e-13
1.42431e-09
-3.97855e-13
1.16112e-13
1.42411e-09
-1.43957e-12
2.41775e-13
1.42452e-09
5.27566e-13
-1.66274e-13
1.4245e-09
-4.19739e-14
1.98496e-13
1.42457e-09
-6.98312e-15
1.69899e-13
1.42399e-09
-4.2554e-14
-8.36977e-13
1.42385e-09
5.71789e-13
-3.89091e-14
1.42368e-09
2.52596e-13
8.06974e-14
-1.62765e-12
7.00459e-13
1.38887e-09
-4.03001e-09
4.93017e-09
8.61913e-11
1.90714e-09
2.66029e-09
1.53229e-09
-1.43995e-09
8.50568e-10
-2.79111e-09
3.3358e-09
1.20966e-09
-1.65645e-09
1.684e-10
-7.0122e-11
-1.37482e-09
-7.37627e-10
3.1745e-09
5.61355e-09
2.82851e-09
-1.08789e-08
-4.77934e-09
-6.36766e-09
3.41812e-10
1.55281e-08
-4.72289e-09
-9.19608e-10
2.78685e-10
6.50953e-11
5.09807e-10
6.60207e-11
-6.14943e-11
-1.85196e-11
5.17145e-11
-4.73161e-11
7.56154e-11
-3.61382e-11
2.64131e-12
-2.49374e-12
8.35789e-12
2.76332e-11
1.46337e-09
-1.12123e-11
-3.37589e-11
-2.72183e-10
-2.73338e-10
-4.59687e-10
-4.62216e-10
1.45047e-09
-1.40563e-11
-1.77395e-12
1.4406e-09
-1.00445e-11
2.56708e-13
1.43503e-09
-7.10545e-12
-8.36226e-14
1.43166e-09
-4.96138e-12
2.76653e-14
1.42959e-09
-3.21379e-12
-1.40013e-14
1.42819e-09
-1.90748e-12
-1.20692e-14
1.42724e-09
-1.16616e-12
-1.50982e-14
1.42659e-09
-7.8237e-13
2.19077e-14
1.42613e-09
-5.94924e-13
-6.87202e-13
1.42661e-09
1.48627e-13
-2.07259e-13
1.42606e-09
-7.41295e-14
8.758e-14
1.42586e-09
-1.74599e-13
1.03464e-12
1.42553e-09
-2.83118e-13
7.35224e-14
1.42524e-09
9.06751e-13
-4.30131e-13
1.42469e-09
-5.21209e-14
-1.01622e-13
1.42608e-09
3.24283e-13
8.15247e-14
1.42522e-09
6.80326e-13
-5.58724e-13
1.42501e-09
-5.87599e-14
6.63796e-15
1.42503e-09
7.82467e-13
-1.00481e-12
1.42559e-09
1.24317e-12
-1.33627e-12
1.42473e-09
1.84276e-13
1.74915e-12
1.42475e-09
5.95469e-13
-1.53139e-13
1.42436e-09
-1.1536e-12
2.23025e-12
1.4244e-09
-1.32109e-13
3.39068e-14
1.42446e-09
6.60354e-14
5.05949e-14
1.42452e-09
-1.20474e-13
-5.89024e-15
1.42433e-09
-7.04398e-14
6.45506e-14
1.42437e-09
7.19396e-14
-7.09985e-14
1.42429e-09
1.4967e-13
-7.67352e-14
1.42384e-09
-3.52672e-13
4.07647e-13
1.42399e-09
7.16936e-13
5.35146e-13
1.42385e-09
6.94455e-14
1.22768e-13
1.42504e-09
-5.96347e-13
-9.96921e-13
1.42411e-09
2.68369e-13
-7.87778e-13
1.4243e-09
2.52319e-13
7.96879e-14
1.42443e-09
7.70714e-14
-2.5271e-13
1.42463e-09
-3.68567e-14
-1.70649e-13
1.42454e-09
1.45911e-12
-1.41078e-12
1.42338e-09
1.70997e-12
1.69522e-14
1.42366e-09
-9.00806e-15
-1.92051e-14
-1.96198e-12
5.04312e-13
4.53229e-09
-4.96075e-09
-4.27348e-09
-1.38737e-09
5.18608e-09
-1.73791e-09
2.75175e-10
3.01902e-09
-2.64349e-10
1.54574e-10
3.16692e-10
1.68858e-10
8.62325e-10
3.0989e-10
1.66099e-09
3.50189e-09
2.86928e-09
-8.34205e-09
-1.54259e-09
5.22261e-10
2.48212e-09
-6.73487e-10
-7.88298e-10
2.30791e-09
2.88439e-09
9.36602e-10
-3.89019e-10
2.1088e-11
-5.70457e-10
-7.60218e-10
-1.44093e-08
7.73268e-09
-1.35372e-08
1.57826e-08
3.99291e-10
-4.20933e-10
3.55333e-10
-2.53183e-10
-8.05094e-11
-1.31332e-10
-1.17945e-11
-3.01486e-11
4.86217e-11
-1.53733e-10
-9.02271e-11
-1.63743e-11
-6.34976e-11
-5.92929e-12
7.34611e-12
1.26389e-10
9.69379e-11
1.20834e-10
1.02907e-10
-1.09346e-10
1.19942e-12
-2.30607e-12
7.82522e-11
3.22002e-11
1.46729e-09
-1.27356e-12
-2.72262e-11
-2.71951e-10
-2.7135e-10
-4.54319e-10
-4.52369e-10
1.4554e-09
9.00324e-14
-2.26255e-12
1.44575e-09
-7.96376e-13
4.05043e-13
1.43859e-09
1.55713e-13
-1.0395e-13
1.43497e-09
-1.72868e-12
3.77883e-13
1.43216e-09
-4.08407e-13
-1.35162e-14
1.42954e-09
1.84745e-12
-1.16264e-12
1.42784e-09
1.76275e-12
-1.2728e-12
1.42718e-09
-2.058e-13
3.80626e-14
1.42682e-09
-2.49257e-13
-4.73735e-14
1.42627e-09
2.66453e-13
3.69813e-13
1.42602e-09
-1.75561e-13
2.68744e-13
1.42564e-09
9.19299e-14
2.19463e-14
1.42565e-09
4.80205e-13
-8.6208e-13
1.42567e-09
2.81463e-13
5.12302e-13
1.42554e-09
-7.48532e-14
6.46964e-14
1.42564e-09
3.36551e-13
-1.98098e-13
1.42555e-09
-4.92486e-13
1.18081e-12
1.42551e-09
-1.00736e-13
4.70943e-15
1.42516e-09
7.98223e-14
9.76878e-13
1.42444e-09
2.98385e-13
1.60286e-12
1.42481e-09
8.16201e-13
-1.06936e-12
1.42512e-09
1.0959e-13
1.13787e-13
1.42435e-09
-5.53015e-13
1.08567e-13
1.42426e-09
-4.01802e-14
-7.09186e-14
1.42438e-09
-1.06974e-13
-6.24477e-15
1.42437e-09
-2.12044e-13
4.93063e-14
1.42444e-09
-1.52882e-13
-2.21137e-14
1.42398e-09
-8.76643e-13
1.37417e-12
1.42359e-09
3.35808e-13
1.72549e-13
1.42385e-09
-3.53382e-13
-2.8725e-13
1.42438e-09
-1.28263e-13
3.04604e-13
1.42437e-09
-3.95521e-13
4.59927e-13
1.4244e-09
-3.04104e-12
2.40049e-12
1.42441e-09
2.48331e-13
5.69819e-15
1.42404e-09
3.17828e-13
3.01932e-13
1.42447e-09
1.21328e-13
-4.78966e-13
1.42484e-09
-4.41095e-13
3.59583e-14
1.42487e-09
-1.35522e-12
2.78113e-12
1.42339e-09
3.40834e-12
-2.25507e-13
1.42369e-09
-8.86309e-13
5.77001e-13
-1.99466e-13
-9.12717e-13
-1.27492e-09
-7.11215e-09
9.39985e-09
-2.20144e-10
-2.08257e-09
-2.28192e-09
1.73304e-09
-1.45506e-10
-2.22676e-09
-6.35682e-10
-6.43246e-10
-1.57705e-09
3.19618e-10
2.88905e-09
-9.88376e-10
-5.24378e-10
-9.12027e-10
1.09561e-09
-2.9439e-10
4.17177e-10
7.7723e-10
-3.518e-10
-2.0743e-10
-2.13077e-10
4.74709e-10
-2.06991e-09
1.0185e-10
1.70643e-09
8.88713e-11
-1.83575e-12
-1.29769e-10
-3.6862e-10
4.11354e-10
-1.02235e-10
1.77258e-11
-7.45534e-12
-1.18727e-10
-3.46478e-11
-7.42067e-11
-6.66514e-11
1.02935e-10
8.54006e-11
1.10403e-10
8.74589e-11
-1.3345e-10
6.9667e-13
7.6607e-13
9.60356e-11
3.5952e-11
1.46529e-09
2.24693e-12
-2.57103e-11
-2.70489e-10
-2.69799e-10
-4.50558e-10
-4.52262e-10
1.45625e-09
1.14309e-11
-2.33061e-12
1.44643e-09
8.51583e-12
4.88941e-13
1.44013e-09
6.50397e-12
-5.98436e-14
1.43448e-09
4.30932e-12
-3.97409e-13
1.43116e-09
2.9617e-12
-6.72573e-14
1.42973e-09
2.08784e-12
1.15575e-12
1.42868e-09
1.50873e-12
1.27158e-12
1.42755e-09
8.94304e-13
-1.49337e-14
1.4269e-09
-1.2146e-13
4.6715e-13
1.42671e-09
3.75412e-13
1.65292e-14
1.4261e-09
5.59397e-13
-1.96633e-13
1.42616e-09
4.16167e-13
-4.76783e-13
1.42548e-09
1.81973e-13
8.88955e-13
1.42554e-09
1.98116e-13
-6.88063e-14
1.42516e-09
7.68367e-14
1.436e-13
1.42492e-09
1.23287e-13
3.68682e-13
1.42592e-09
1.17168e-12
-2.75929e-12
1.4257e-09
4.68569e-14
-6.22861e-15
1.42563e-09
8.85376e-14
-1.85398e-14
1.42574e-09
1.8399e-13
-6.2067e-14
1.42363e-09
4.87236e-12
-2.01155e-12
1.42369e-09
-1.00987e-12
1.00587e-12
1.42471e-09
-2.40745e-13
-1.39758e-12
1.42459e-09
9.0073e-14
-7.92462e-14
1.42438e-09
8.59668e-14
-4.06071e-14
1.42399e-09
7.40747e-13
-6.08026e-13
1.42383e-09
8.28621e-14
-1.21809e-13
1.42435e-09
-1.37911e-13
-1.28829e-12
1.42441e-09
3.49748e-13
-1.11524e-13
1.42407e-09
-7.71085e-13
7.40718e-13
1.42474e-09
-6.03889e-13
-2.08189e-13
1.42509e-09
-4.5422e-13
-3.1352e-13
1.42378e-09
-5.65187e-13
-1.16732e-12
1.42411e-09
5.69987e-15
-9.84802e-14
1.42383e-09
5.3836e-13
5.60538e-14
1.42356e-09
-1.64357e-13
5.51206e-13
1.42341e-09
-1.96461e-13
-1.01331e-13
1.42334e-09
1.38855e-12
-2.66749e-12
1.42539e-09
1.18743e-12
1.71628e-13
1.42508e-09
-4.70539e-13
-1.11995e-13
-8.02074e-13
1.84382e-12
1.322e-09
-7.25976e-09
-6.62456e-09
3.97364e-09
2.21953e-09
6.45914e-10
-3.56067e-09
6.02628e-09
8.47733e-10
6.24478e-11
-8.04899e-10
-1.10657e-09
-1.42301e-10
-8.13837e-10
-1.40113e-10
-6.59268e-10
7.82181e-10
8.31036e-10
-2.63694e-09
3.76263e-09
-4.61453e-10
1.81147e-09
-2.47571e-09
-1.78822e-09
-4.07088e-09
1.07368e-09
5.86832e-09
-1.0829e-09
-8.18172e-12
4.02419e-10
-3.1718e-10
2.87967e-11
-1.05851e-10
-1.52101e-11
1.16808e-11
-2.72708e-11
-6.17795e-11
9.25806e-11
-5.84536e-11
1.60117e-12
-1.38817e-13
2.49832e-11
3.20081e-11
1.47533e-09
4.94872e-11
-3.28748e-11
-2.77911e-10
-2.73888e-10
-4.7314e-10
-4.64768e-10
1.45663e-09
3.17951e-11
-1.7063e-12
1.44379e-09
2.1113e-11
2.27504e-13
1.43677e-09
1.35688e-11
-5.81515e-14
1.43252e-09
8.55451e-12
-1.56182e-14
1.43001e-09
5.44313e-12
1.20653e-14
1.4285e-09
3.51478e-12
5.22189e-14
1.42769e-09
2.26608e-12
2.28995e-14
1.42709e-09
1.42482e-12
1.78534e-14
1.42645e-09
8.56129e-13
-3.88782e-13
1.42625e-09
-4.6653e-14
5.58142e-13
1.42637e-09
7.93079e-13
-4.3052e-13
1.42572e-09
4.18359e-13
5.59562e-13
1.42554e-09
2.76017e-13
-3.0107e-16
1.42565e-09
5.11512e-13
-5.15632e-13
1.42561e-09
1.23691e-13
-8.71111e-14
1.42564e-09
2.55272e-13
-2.45283e-13
1.42477e-09
-2.72135e-13
2.22555e-12
1.42488e-09
-2.61962e-13
1.1122e-13
1.42499e-09
-1.56094e-13
5.92897e-14
1.42349e-09
3.77464e-12
-2.15602e-12
1.42508e-09
1.89393e-13
3.02734e-12
1.42502e-09
-2.16164e-13
-8.01594e-13
1.42471e-09
-7.80304e-14
8.11627e-14
1.42455e-09
9.7973e-14
9.93529e-14
1.42446e-09
-1.42271e-15
1.16907e-13
1.42455e-09
-1.31766e-14
6.16703e-13
1.42441e-09
1.71682e-13
-3.21202e-16
1.42425e-09
2.76182e-14
-3.18661e-14
1.42436e-09
-1.68949e-13
3.78881e-13
1.42426e-09
2.16235e-14
-7.1706e-13
1.42445e-09
2.552e-13
-1.07064e-12
1.42425e-09
-5.0124e-14
-2.10332e-13
1.42413e-09
-3.09301e-13
-1.50308e-13
1.42374e-09
3.44267e-13
4.33001e-14
1.42384e-09
3.75169e-13
6.09922e-14
1.42385e-09
-2.59319e-13
8.40325e-14
1.42358e-09
5.7253e-14
6.02661e-15
1.42398e-09
-7.40451e-13
1.73488e-12
1.42441e-09
6.88269e-13
6.20067e-14
1.42463e-09
-1.28124e-13
-5.56154e-13
-2.05522e-13
-1.32436e-12
1.71929e-09
-4.59509e-09
-1.26336e-08
-1.02995e-09
6.00658e-09
4.66196e-09
3.46786e-09
-1.33917e-09
-1.07524e-09
6.65817e-10
-3.20895e-10
-4.73409e-10
-2.43128e-10
7.02522e-11
9.67179e-10
2.52092e-10
2.72351e-09
9.18367e-10
-3.66054e-09
-5.91554e-11
-2.33378e-10
1.71033e-10
-1.11945e-10
2.80025e-10
4.86273e-09
1.17137e-09
-3.65728e-09
-2.65684e-09
4.25851e-10
1.23584e-09
-4.47393e-10
-1.02929e-09
-1.85002e-10
-6.54743e-11
9.3527e-13
-3.03617e-11
2.61848e-12
9.22823e-11
-4.05432e-11
-4.79622e-13
2.13244e-10
1.87485e-11
1.89429e-11
-4.31719e-11
-7.70881e-11
-8.34274e-11
-1.43051e-12
-1.54254e-12
-3.25181e-12
1.44896e-09
7.92824e-11
-3.0655e-11
-2.73856e-10
-2.68748e-10
-4.58688e-10
-4.46824e-10
1.43596e-09
4.71756e-11
-2.39581e-12
1.43023e-09
2.65782e-11
2.54401e-13
1.42798e-09
1.5947e-11
-1.37994e-13
1.42692e-09
9.60927e-12
-3.55562e-15
1.42652e-09
5.8341e-12
-9.1547e-15
1.42634e-09
3.66196e-12
2.70697e-15
1.4262e-09
2.3566e-12
1.92627e-14
1.42601e-09
2.01237e-12
-4.48989e-13
1.42625e-09
5.77537e-14
5.07317e-13
1.42578e-09
1.36291e-12
-1.01069e-12
1.42592e-09
1.24758e-13
4.50983e-13
1.42593e-09
4.04231e-13
-7.79866e-14
1.42578e-09
3.10883e-13
3.38858e-14
1.42541e-09
-3.36588e-13
1.12469e-12
1.42545e-09
-2.49601e-14
2.83254e-14
1.4251e-09
2.56053e-13
2.57184e-13
1.4247e-09
-3.11166e-13
3.64603e-13
1.42468e-09
1.77415e-13
-5.07473e-13
1.42396e-09
1.06335e-12
-5.74452e-13
1.42493e-09
5.99963e-13
2.13202e-12
1.42474e-09
7.84232e-13
-4.70827e-13
1.42554e-09
-3.06331e-12
1.98144e-12
1.4252e-09
2.77552e-13
-7.78176e-14
1.42447e-09
9.70205e-13
-1.99055e-13
1.42435e-09
-2.39517e-14
7.7069e-14
1.42438e-09
-9.49405e-14
1.4126e-15
1.42434e-09
6.0008e-13
-4.28866e-13
1.42421e-09
-2.17065e-13
3.36656e-13
1.42435e-09
-2.45206e-13
-8.9877e-14
1.42457e-09
-1.84257e-13
-3.55726e-14
1.42394e-09
-3.46285e-13
1.21787e-12
1.42387e-09
-1.54327e-13
1.53512e-13
1.42375e-09
-2.63633e-13
7.03444e-14
1.42406e-09
1.69248e-14
7.07835e-15
1.42436e-09
2.47839e-13
-1.80113e-13
1.42408e-09
1.27596e-13
-1.0402e-13
1.42348e-09
6.37859e-13
1.719e-14
1.42398e-09
-1.05958e-12
-1.8103e-13
1.42389e-09
5.12353e-13
2.60431e-13
1.42508e-09
-2.8483e-12
1.53027e-12
-2.87661e-13
-5.55282e-13
1.08733e-08
3.96286e-09
-1.80425e-08
-2.79523e-09
-2.91343e-09
8.36641e-09
6.09785e-09
1.49764e-09
7.55432e-09
5.87982e-11
-1.98529e-10
1.18692e-09
3.58842e-08
-6.12185e-09
-2.93602e-08
-8.36439e-10
-3.31445e-09
-1.29376e-09
-2.94597e-09
-7.54597e-11
-1.21196e-09
3.254e-09
-4.28358e-09
-4.11461e-10
2.6027e-10
-3.27037e-10
3.10359e-09
-2.01125e-09
2.18336e-09
1.0172e-09
-9.48946e-08
5.86341e-08
3.98673e-08
-7.89927e-09
1.64376e-09
5.81311e-09
1.49873e-09
-5.21353e-09
-2.83846e-08
1.2203e-09
1.12954e-07
-8.95311e-08
-7.14022e-10
5.37899e-10
8.56083e-10
2.16764e-10
-8.96727e-10
-1.15142e-10
3.23412e-13
1.12503e-11
-5.58684e-11
1.59437e-10
-3.67325e-11
-3.29125e-11
1.89454e-10
3.40235e-11
9.51907e-12
-3.39185e-11
-6.80028e-11
-6.14305e-11
1.37707e-09
2.9902e-11
-2.46168e-11
-2.52639e-10
-2.38096e-10
-4.19555e-10
-3.92786e-10
1.3982e-09
2.77573e-11
-1.73531e-12
1.40976e-09
1.45289e-11
4.8049e-13
1.4164e-09
9.34037e-12
-3.41887e-14
1.42021e-09
5.73422e-12
4.51842e-14
1.42264e-09
3.3724e-12
1.84284e-14
1.42398e-09
2.28082e-12
1.73783e-14
1.425e-09
2.34225e-12
-1.03786e-12
1.42553e-09
9.69044e-13
4.60207e-13
1.42553e-09
7.10373e-13
-7.14443e-13
1.4255e-09
7.1484e-13
6.10261e-13
1.42519e-09
3.14387e-13
5.21339e-14
1.42523e-09
1.49853e-13
1.35759e-13
1.42536e-09
7.37956e-14
1.84807e-14
1.42544e-09
1.46504e-14
-5.22591e-13
1.42512e-09
2.11e-13
-1.00767e-14
1.42527e-09
1.34921e-13
-1.0383e-13
1.42562e-09
-4.48956e-13
-2.87276e-13
1.42458e-09
-7.89578e-13
1.92666e-12
1.42517e-09
-1.02146e-13
4.97135e-13
1.42523e-09
2.22683e-13
2.51112e-13
1.42504e-09
2.6643e-13
6.37813e-13
1.42417e-09
-2.71867e-13
-1.99436e-12
1.42425e-09
1.71825e-13
-3.75538e-14
1.42491e-09
8.72611e-13
-6.16948e-13
1.42409e-09
-1.47427e-13
8.76898e-13
1.42422e-09
-2.90666e-14
-2.43945e-13
1.42419e-09
1.13724e-13
4.80173e-13
1.42421e-09
3.69142e-14
-3.11669e-13
1.42461e-09
-4.28165e-13
-2.43482e-13
1.42423e-09
9.08774e-13
-7.347e-13
1.42423e-09
-3.10036e-13
-6.25992e-14
1.42419e-09
-2.16008e-13
9.11663e-14
1.42394e-09
-2.10747e-13
1.94113e-13
1.4242e-09
-1.57708e-13
-9.56027e-14
1.42398e-09
3.89241e-13
7.58734e-14
1.42462e-09
3.92742e-13
-9.14055e-13
1.42469e-09
8.32512e-13
-2.66095e-13
1.42349e-09
4.22722e-13
-2.8205e-13
1.42377e-09
3.52386e-13
-1.20053e-13
1.42392e-09
1.06573e-12
-4.06276e-12
-1.53173e-12
-3.93811e-14
-3.41654e-09
2.27134e-08
-2.4041e-09
-4.01378e-09
-2.80442e-09
-3.44569e-09
-2.07125e-08
2.12204e-08
-1.23607e-09
-1.53681e-09
-3.55708e-09
5.64116e-10
-3.45076e-09
2.17732e-09
-7.67995e-09
8.38927e-09
6.79889e-09
3.12396e-09
2.9377e-09
-2.3577e-10
-6.80833e-09
-7.80476e-09
3.67294e-09
-1.68787e-09
-5.49895e-09
-1.19324e-09
3.93436e-09
1.81141e-10
2.57669e-09
-1.49571e-10
2.99929e-10
-1.03969e-10
-9.4373e-11
4.79852e-11
-1.06171e-10
-1.87629e-11
1.03665e-11
8.64881e-11
2.80792e-11
1.30627e-09
-2.5658e-11
-2.08467e-10
-2.08074e-10
-3.48506e-10
-3.45542e-10
-2.27002e-11
-2.22504e-11
-4.4094e-11
-4.24082e-11
1.35043e-09
-4.22435e-13
1.38377e-09
8.03442e-14
1.40097e-09
6.72435e-14
1.41065e-09
1.38347e-13
1.41605e-09
-3.8493e-14
1.42076e-09
1.36992e-12
1.42281e-09
4.61921e-14
1.42372e-09
7.78239e-13
1.4243e-09
3.80102e-14
1.42557e-09
2.42555e-13
1.42528e-09
-6.51194e-15
1.42532e-09
1.94582e-13
1.42523e-09
2.70276e-13
1.42524e-09
8.20957e-14
1.42512e-09
3.12551e-14
1.42518e-09
8.47184e-15
1.42493e-09
8.99148e-14
1.42499e-09
1.05878e-12
1.42535e-09
-1.58923e-12
1.42501e-09
-5.46753e-14
1.42549e-09
2.09501e-12
1.42516e-09
-2.54965e-13
1.42457e-09
-2.96499e-12
1.4237e-09
-1.23116e-12
1.42399e-09
9.4594e-13
1.42446e-09
-5.56061e-13
1.4244e-09
1.02504e-13
1.42433e-09
9.8354e-14
1.42429e-09
-2.61122e-14
1.424e-09
-7.73846e-14
1.42468e-09
7.70116e-13
1.42438e-09
1.41556e-13
1.42438e-09
-2.38954e-13
1.42453e-09
-1.57691e-13
1.4241e-09
6.3668e-13
1.42419e-09
-3.93027e-14
1.42366e-09
9.22986e-13
1.42424e-09
2.53812e-14
1.42466e-09
5.49993e-14
1.42518e-09
-2.2827e-13
1.42378e-09
2.66658e-12
1.0134e-13
4.11273e-09
-2.06146e-09
-9.29403e-09
1.01261e-09
8.35886e-10
-1.08828e-09
2.66954e-08
1.96005e-10
-9.95609e-09
-2.64686e-09
3.04249e-09
-6.18658e-09
3.67752e-09
7.59226e-09
-2.46009e-09
1.71474e-10
-6.84695e-09
2.21002e-09
6.74136e-09
-1.60752e-08
-3.07928e-09
1.21758e-08
1.13527e-09
2.01125e-08
5.8282e-09
-2.80131e-09
6.40706e-10
-9.95728e-13
1.81046e-09
-9.3721e-10
-1.54811e-08
1.90039e-08
-2.84303e-09
-2.85158e-08
1.25645e-09
-2.22247e-10
1.33719e-10
-5.91408e-10
-8.61877e-10
-3.57447e-11
-4.99021e-11
-3.0339e-11
2.06986e-11
8.45599e-11
2.25438e-09
-4.46996e-11
2.81013e-11
-5.23498e-10
-5.57157e-10
-5.23372e-10
-5.57133e-10
-5.37427e-11
-4.47014e-11
-5.37361e-11
2.27382e-09
-3.98814e-11
2.27196e-12
2.3124e-09
-4.40703e-11
3.93096e-14
2.33304e-09
-2.28771e-11
-1.14636e-13
2.34836e-09
-1.44917e-11
-3.60548e-13
2.35873e-09
-8.68384e-12
-4.77945e-13
2.36325e-09
-6.05931e-12
1.64254e-12
2.36718e-09
-3.53755e-12
2.72191e-14
2.36925e-09
-3.27877e-12
9.7065e-13
2.37124e-09
-1.59115e-12
5.08895e-16
2.37177e-09
-1.72919e-12
-2.2829e-13
2.36979e-09
2.14132e-12
-1.01296e-13
2.37121e-09
-1.13214e-12
-7.82374e-13
2.3718e-09
-4.78583e-13
-7.01963e-13
2.37135e-09
-3.13706e-14
2.1518e-13
2.37128e-09
-8.33655e-13
3.96032e-13
2.37119e-09
9.66901e-14
-7.58391e-14
2.37172e-09
1.44883e-12
-7.58573e-13
2.37141e-09
1.09835e-12
1.831e-13
2.37165e-09
-4.5059e-13
1.71308e-13
2.37188e-09
-2.25689e-13
2.60977e-13
2.37025e-09
-1.531e-12
-8.59258e-14
2.3706e-09
2.08355e-13
-1.48317e-14
2.3697e-09
4.18946e-12
-4.25707e-13
2.36969e-09
4.26188e-12
-2.98223e-12
2.36932e-09
-1.10803e-13
-2.56153e-13
2.37132e-09
1.29442e-12
-1.33269e-12
2.37057e-09
4.04755e-13
4.24371e-14
2.37017e-09
4.47257e-13
-3.30204e-14
2.36921e-09
9.26042e-13
7.2423e-14
2.36874e-09
-1.17191e-12
9.58046e-13
2.37162e-09
-5.54107e-13
-1.91006e-12
2.37063e-09
9.57999e-13
-9.56617e-14
2.37028e-09
3.11306e-13
3.6546e-14
2.3702e-09
-2.17881e-13
-4.07142e-14
2.3718e-09
-9.63954e-13
7.10056e-13
2.36918e-09
4.37018e-12
-3.31466e-12
2.36968e-09
-2.66631e-13
-1.53533e-13
2.3693e-09
1.85112e-13
-6.2417e-14
2.37063e-09
-1.23818e-12
-3.18912e-13
2.37031e-09
2.05913e-13
1.64093e-13
2.36924e-09
7.37234e-13
8.85472e-13
-5.76493e-13
-4.59059e-13
2.08642e-09
-5.54408e-09
-1.91988e-08
3.99398e-09
-6.15337e-10
9.39222e-09
-8.93494e-10
1.86616e-09
-6.41458e-10
8.83975e-10
-6.13285e-10
2.83303e-09
-2.63629e-09
-8.05114e-09
-4.02125e-10
-8.04745e-10
5.81863e-09
2.47888e-09
1.92956e-09
1.5615e-09
1.46347e-09
2.6169e-08
1.47057e-09
-1.60688e-09
-2.31602e-08
-1.27844e-09
-1.59513e-09
1.13667e-12
4.04086e-10
-4.63655e-09
1.02415e-09
3.81726e-10
2.82545e-09
9.32482e-10
1.96145e-10
-3.15936e-09
2.7427e-09
1.17493e-09
-1.88689e-09
-5.62878e-11
-7.0149e-11
1.61961e-11
-5.52954e-11
2.17016e-11
1.43834e-10
-5.91323e-10
5.9165e-10
-4.21165e-11
-1.99429e-12
-9.07155e-13
2.3159e-09
-9.6385e-11
2.33949e-11
-5.70575e-10
-5.82502e-10
-5.70573e-10
-5.82523e-10
2.33178e-09
-6.44014e-11
2.28153e-12
2.3481e-09
-3.82863e-11
-4.41161e-13
2.35723e-09
-2.3831e-11
1.09255e-13
2.36303e-09
-1.48009e-11
1.5328e-13
2.36633e-09
-9.47447e-12
3.30955e-14
2.36858e-09
-5.87288e-12
1.26866e-14
2.3704e-09
-3.55306e-12
-6.62727e-13
2.37111e-09
-2.44106e-12
4.10728e-16
2.3701e-09
5.04806e-13
-1.83755e-12
2.37311e-09
1.4133e-12
-6.7901e-13
2.37254e-09
-6.51002e-13
1.74114e-14
2.37201e-09
-1.5912e-13
5.75553e-14
2.37193e-09
-2.008e-13
1.8869e-14
2.3717e-09
3.40358e-13
-5.84385e-13
2.37242e-09
-2.4818e-12
8.72803e-13
2.37151e-09
2.33937e-13
9.4016e-13
2.37053e-09
-7.26694e-14
7.68606e-13
2.37079e-09
-5.76292e-13
-3.7526e-13
2.37075e-09
-1.67008e-13
-6.92574e-14
2.37037e-09
3.46702e-12
-1.83758e-12
2.36925e-09
1.38685e-12
-1.45099e-13
2.37014e-09
3.98184e-13
1.51966e-12
2.37049e-09
7.45617e-13
1.53541e-12
2.37215e-09
-2.64516e-12
2.82519e-12
2.37078e-09
1.1641e-12
1.99542e-12
2.37055e-09
3.56786e-13
7.07431e-14
2.37052e-09
2.76499e-13
7.68569e-14
2.37104e-09
4.53838e-13
-1.11724e-13
2.37127e-09
-4.30468e-13
-6.79351e-13
2.36859e-09
-7.93241e-13
2.04866e-12
2.36893e-09
5.32352e-13
-7.51478e-14
2.36918e-09
-3.22538e-14
5.82421e-14
2.36887e-09
-3.19762e-14
-1.49798e-13
2.36921e-09
-9.86763e-13
3.3057e-13
2.37114e-09
7.35466e-13
3.38146e-12
2.37041e-09
2.71199e-13
1.21065e-13
2.37043e-09
2.9151e-13
-7.0851e-14
2.36992e-09
7.13321e-13
-5.19476e-13
2.36965e-09
6.23571e-13
-2.0919e-13
2.37003e-09
1.94856e-13
-7.414e-13
-2.68712e-13
2.18487e-13
-9.13402e-09
-3.08158e-09
1.196e-08
-1.63866e-09
-1.06669e-09
-7.43974e-09
1.2387e-09
-2.03877e-09
8.78522e-11
-2.32168e-09
-3.01287e-09
-2.99209e-09
8.71494e-10
5.40577e-10
-3.56857e-10
-2.86743e-09
1.96586e-09
3.44015e-08
1.11509e-10
-2.1241e-09
-3.19163e-09
-3.11631e-08
-1.07517e-08
-4.78881e-10
-4.13965e-09
3.53059e-09
3.25933e-11
1.18071e-08
-1.13244e-10
-7.86276e-10
2.71726e-09
5.199e-10
1.88882e-09
-4.22645e-09
1.51982e-10
-5.62698e-11
-2.29099e-12
-1.64261e-10
1.60958e-11
5.4744e-11
-1.49337e-10
6.23127e-10
-6.35479e-11
-2.27675e-12
-3.36862e-12
-1.48609e-10
-1.5466e-10
-1.53705e-10
5.23768e-11
2.39354e-09
-9.00016e-11
2.68352e-11
-6.00978e-10
-6.25587e-10
-6.00984e-10
-6.25611e-10
2.37641e-09
-5.29683e-11
2.87862e-12
2.37434e-09
-3.54446e-11
-3.46342e-13
2.37308e-09
-2.30056e-11
2.33231e-13
2.37298e-09
-1.48331e-11
6.49428e-14
2.37271e-09
-9.30691e-12
4.01991e-14
2.37255e-09
-5.79293e-12
2.21383e-14
2.37259e-09
-3.64738e-12
-2.13696e-14
2.37243e-09
-2.45447e-12
5.71195e-14
2.37327e-09
-1.97602e-12
2.70689e-12
2.37235e-09
3.26608e-13
9.87594e-13
2.37239e-09
-9.19736e-13
-1.17921e-14
2.37248e-09
-1.09899e-12
-4.23582e-13
2.37291e-09
-8.35186e-13
-5.25875e-15
2.37234e-09
1.43877e-12
-8.77082e-13
2.37222e-09
-9.49087e-13
-7.1426e-13
2.36957e-09
4.09341e-12
-1.39503e-12
2.37019e-09
-9.25608e-13
3.83532e-14
2.36996e-09
-2.30886e-13
9.92694e-14
2.36953e-09
2.17743e-13
-4.7093e-14
2.37034e-09
-4.39974e-13
1.47425e-12
2.3723e-09
-4.12276e-12
1.67415e-12
2.37167e-09
1.08717e-12
-1.61424e-13
2.37297e-09
-2.61283e-12
8.64326e-13
2.37063e-09
2.36179e-13
-2.70039e-12
2.36968e-09
1.09743e-13
-7.87311e-13
2.36995e-09
1.61063e-13
-9.94839e-14
2.37036e-09
-1.45977e-13
-2.44692e-14
2.37048e-09
3.02961e-13
-2.50483e-14
2.37026e-09
8.37956e-15
1.28104e-14
2.36968e-09
-6.11679e-13
-3.1195e-14
2.36915e-09
-7.21608e-13
8.34255e-13
2.36904e-09
-2.76386e-13
2.17663e-13
2.36997e-09
-4.52935e-13
-4.12994e-13
2.36996e-09
8.32351e-13
-1.57935e-12
2.37042e-09
-2.52637e-13
3.59151e-13
2.37052e-09
5.09707e-13
-1.52217e-13
2.37066e-09
5.88088e-13
-2.67362e-13
2.36956e-09
1.13543e-13
8.60965e-13
2.36919e-09
8.73719e-13
7.60472e-14
2.36912e-09
4.30127e-13
-7.79318e-14
-2.24394e-12
1.32801e-12
1.37084e-09
-4.06611e-09
-1.46262e-09
3.29148e-09
2.45613e-09
2.75906e-09
1.48921e-09
-1.66436e-09
5.87839e-10
-1.08502e-10
1.81279e-09
6.26962e-10
3.84065e-09
-4.90069e-10
-2.93004e-09
-2.86029e-09
-4.56095e-09
9.7331e-10
2.17798e-09
-2.33098e-08
2.62559e-09
2.20938e-08
-9.87425e-09
2.82095e-09
-7.92348e-09
-3.42061e-09
1.69418e-09
3.97787e-08
-8.00061e-09
-4.48045e-09
-1.05947e-08
5.3238e-09
-1.00514e-09
2.51434e-10
-5.31762e-10
6.84517e-10
-4.72286e-09
-2.61389e-10
4.376e-11
-1.92791e-10
2.69432e-10
-2.23075e-11
1.63295e-10
-1.44749e-10
-1.86435e-11
1.58197e-11
-1.66736e-11
1.04658e-11
1.53781e-10
2.43732e-09
-3.18527e-11
3.34525e-11
-6.38848e-10
-6.42404e-10
-6.38865e-10
-6.42483e-10
2.41091e-09
-3.01037e-11
1.82576e-12
2.39645e-09
-2.04753e-11
-2.28891e-13
2.38726e-09
-1.39733e-11
6.13451e-14
2.38191e-09
-9.4811e-12
-1.14158e-15
2.37857e-09
-6.07043e-12
4.45036e-14
2.37632e-09
-3.67508e-12
4.10226e-14
2.37477e-09
-2.25827e-12
4.88648e-14
2.37369e-09
-1.49094e-12
6.8223e-15
2.37282e-09
-9.33841e-13
-1.00603e-12
2.37369e-09
-6.48415e-13
-2.77082e-13
2.37293e-09
-2.81516e-13
1.32021e-14
2.37266e-09
-3.45378e-13
3.43394e-13
2.37208e-09
-3.56316e-13
-2.39726e-14
2.3716e-09
3.74862e-13
9.24781e-13
2.37069e-09
-1.8842e-13
-1.43875e-13
2.37284e-09
3.39025e-13
1.49786e-12
2.3715e-09
-3.44111e-13