/*--------------------------------*- C++ -*----------------------------------*\
| =========                 |                                                 |
| \\      /  F ield         | OpenFOAM: The Open Source CFD Toolbox           |
|  \\    /   O peration     | Version:  5.0                                   |
|   \\  /    A nd           | Web:      www.OpenFOAM.org                      |
|    \\/     M anipulation  |                                                 |
\*---------------------------------------------------------------------------*/
FoamFile
{
    version     2.0;
    format      ascii;
    class       volScalarField;
    location    "3.4";
    object      rAU;
}
// * * * * * * * * * * * * * * * * * * * * * * * * * * * * * * * * * * * * * //

dimensions      [-1 3 1 0 0 0 0];

internalField   nonuniform List<scalar> 
8437
(
9.60241e-07
8.85629e-07
6.34431e-07
3.27167e-07
7.72418e-07
6.89812e-07
3.59443e-08
3.92289e-07
3.93665e-07
3.94698e-07
3.95731e-07
3.96763e-07
3.97794e-07
3.98826e-07
3.99856e-07
4.00886e-07
4.01915e-07
4.02943e-07
4.03971e-07
4.04998e-07
4.06024e-07
4.07049e-07
4.08075e-07
4.09098e-07
4.10121e-07
4.11144e-07
4.12166e-07
4.13187e-07
4.14207e-07
4.15227e-07
4.16245e-07
4.17264e-07
4.18281e-07
4.19297e-07
4.20313e-07
4.21327e-07
4.22341e-07
4.23355e-07
4.24367e-07
4.25378e-07
4.2639e-07
4.27399e-07
4.28408e-07
4.29417e-07
4.30424e-07
4.31431e-07
4.32437e-07
4.33442e-07
4.34446e-07
4.36222e-07
9.62266e-07
9.63339e-07
8.92267e-07
8.93367e-07
5.25435e-07
6.75533e-07
4.48539e-08
1.29777e-07
3.93454e-07
3.94697e-07
3.9573e-07
3.96762e-07
3.97794e-07
3.98826e-07
3.99856e-07
4.00886e-07
4.01915e-07
4.02943e-07
4.03971e-07
4.04998e-07
4.06024e-07
4.07049e-07
4.08075e-07
4.09098e-07
4.10121e-07
4.11144e-07
4.12166e-07
4.13187e-07
4.14207e-07
4.15227e-07
4.16245e-07
4.17264e-07
4.18281e-07
4.19297e-07
4.20313e-07
4.21327e-07
4.22341e-07
4.23355e-07
4.24367e-07
4.25378e-07
4.2639e-07
4.27399e-07
4.28408e-07
4.29417e-07
4.30424e-07
4.31431e-07
4.32437e-07
4.33442e-07
4.34446e-07
4.36222e-07
9.65295e-07
9.64975e-07
9.10043e-07
8.91628e-07
5.97615e-07
6.82975e-07
6.89744e-07
1.2972e-07
3.93452e-07
3.94695e-07
3.95729e-07
3.96762e-07
3.97794e-07
3.98825e-07
3.99856e-07
4.00885e-07
4.01915e-07
4.02943e-07
4.03971e-07
4.04998e-07
4.06024e-07
4.07049e-07
4.08074e-07
4.09098e-07
4.10121e-07
4.11144e-07
4.12166e-07
4.13187e-07
4.14207e-07
4.15227e-07
4.16245e-07
4.17264e-07
4.18281e-07
4.19297e-07
4.20313e-07
4.21327e-07
4.22341e-07
4.23355e-07
4.24367e-07
4.25378e-07
4.2639e-07
4.27399e-07
4.28408e-07
4.29417e-07
4.30424e-07
4.31431e-07
4.32437e-07
4.33442e-07
4.34446e-07
4.36222e-07
9.71931e-07
8.77422e-07
8.54126e-07
8.16215e-07
8.63689e-07
6.73047e-07
7.01261e-07
3.52179e-08
3.93451e-07
3.94695e-07
3.95729e-07
3.96762e-07
3.97794e-07
3.98825e-07
3.99856e-07
4.00885e-07
4.01915e-07
4.02943e-07
4.03971e-07
4.04998e-07
4.06024e-07
4.07049e-07
4.08074e-07
4.09098e-07
4.10121e-07
4.11144e-07
4.12166e-07
4.13187e-07
4.14207e-07
4.15227e-07
4.16245e-07
4.17264e-07
4.18281e-07
4.19297e-07
4.20313e-07
4.21327e-07
4.22341e-07
4.23355e-07
4.24367e-07
4.25378e-07
4.2639e-07
4.27399e-07
4.28408e-07
4.29417e-07
4.30424e-07
4.31431e-07
4.32437e-07
4.33442e-07
4.34446e-07
4.36222e-07
9.66829e-07
8.88602e-07
1.25674e-07
8.97022e-07
6.47621e-07
6.78135e-07
9.0286e-07
3.57626e-08
3.93451e-07
3.94695e-07
3.95729e-07
3.96762e-07
3.97793e-07
3.98825e-07
3.99856e-07
4.00885e-07
4.01915e-07
4.02943e-07
4.03971e-07
4.04998e-07
4.06024e-07
4.07049e-07
4.08074e-07
4.09098e-07
4.10121e-07
4.11144e-07
4.12166e-07
4.13187e-07
4.14207e-07
4.15227e-07
4.16245e-07
4.17264e-07
4.18281e-07
4.19297e-07
4.20313e-07
4.21327e-07
4.22341e-07
4.23355e-07
4.24367e-07
4.25378e-07
4.2639e-07
4.27399e-07
4.28408e-07
4.29417e-07
4.30424e-07
4.31431e-07
4.32437e-07
4.33442e-07
4.34446e-07
4.36222e-07
9.66922e-07
7.72301e-07
2.67375e-07
8.54237e-07
6.41044e-07
5.81569e-07
9.03104e-07
3.71855e-08
3.93451e-07
3.94695e-07
3.95729e-07
3.96762e-07
3.97793e-07
3.98825e-07
3.99856e-07
4.00885e-07
4.01915e-07
4.02943e-07
4.03971e-07
4.04998e-07
4.06024e-07
4.07049e-07
4.08075e-07
4.09098e-07
4.10121e-07
4.11144e-07
4.12166e-07
4.13187e-07
4.14207e-07
4.15227e-07
4.16245e-07
4.17264e-07
4.18281e-07
4.19297e-07
4.20313e-07
4.21327e-07
4.22341e-07
4.23355e-07
4.24367e-07
4.25378e-07
4.2639e-07
4.27399e-07
4.28408e-07
4.29417e-07
4.30424e-07
4.31431e-07
4.32437e-07
4.33442e-07
4.34446e-07
4.36222e-07
9.5536e-07
7.34838e-07
3.76109e-07
7.98809e-07
7.05457e-07
6.76697e-07
7.00786e-07
3.52443e-08
3.9345e-07
3.94694e-07
3.95729e-07
3.96761e-07
3.97793e-07
3.98825e-07
3.99856e-07
4.00885e-07
4.01915e-07
4.02943e-07
4.03971e-07
4.04998e-07
4.06024e-07
4.07049e-07
4.08074e-07
4.09098e-07
4.10121e-07
4.11144e-07
4.12166e-07
4.13187e-07
4.14207e-07
4.15227e-07
4.16245e-07
4.17264e-07
4.18281e-07
4.19297e-07
4.20313e-07
4.21327e-07
4.22341e-07
4.23355e-07
4.24367e-07
4.25378e-07
4.2639e-07
4.27399e-07
4.28408e-07
4.29417e-07
4.30424e-07
4.31431e-07
4.32437e-07
4.33442e-07
4.34446e-07
4.36222e-07
9.69189e-07
8.82378e-07
5.14369e-07
8.71079e-07
8.83794e-07
6.6044e-07
6.99349e-07
1.2963e-07
3.93449e-07
3.94694e-07
3.95729e-07
3.96762e-07
3.97794e-07
3.98825e-07
3.99856e-07
4.00885e-07
4.01915e-07
4.02943e-07
4.03971e-07
4.04998e-07
4.06024e-07
4.07049e-07
4.08074e-07
4.09098e-07
4.10121e-07
4.11144e-07
4.12166e-07
4.13187e-07
4.14207e-07
4.15227e-07
4.16245e-07
4.17264e-07
4.18281e-07
4.19297e-07
4.20313e-07
4.21327e-07
4.22341e-07
4.23355e-07
4.24367e-07
4.25378e-07
4.2639e-07
4.27399e-07
4.28408e-07
4.29417e-07
4.30424e-07
4.31431e-07
4.32437e-07
4.33442e-07
4.34446e-07
4.36222e-07
9.59641e-07
9.37318e-07
8.25935e-07
7.78836e-07
6.57101e-07
5.68179e-07
4.37996e-07
1.29502e-07
3.93453e-07
3.94696e-07
3.9573e-07
3.96762e-07
3.97794e-07
3.98825e-07
3.99856e-07
4.00885e-07
4.01915e-07
4.02943e-07
4.03971e-07
4.04998e-07
4.06024e-07
4.07049e-07
4.08075e-07
4.09098e-07
4.10121e-07
4.11144e-07
4.12166e-07
4.13187e-07
4.14207e-07
4.15227e-07
4.16245e-07
4.17264e-07
4.18281e-07
4.19297e-07
4.20313e-07
4.21327e-07
4.22341e-07
4.23355e-07
4.24367e-07
4.25378e-07
4.2639e-07
4.27399e-07
4.28408e-07
4.29417e-07
4.30424e-07
4.31431e-07
4.32437e-07
4.33442e-07
4.34446e-07
4.36222e-07
9.51117e-07
8.8868e-07
7.26255e-07
7.852e-07
8.97829e-07
6.92782e-07
4.59216e-08
3.9229e-07
3.93665e-07
3.94697e-07
3.95731e-07
3.96763e-07
3.97794e-07
3.98826e-07
3.99856e-07
4.00885e-07
4.01915e-07
4.02943e-07
4.03971e-07
4.04998e-07
4.06024e-07
4.07049e-07
4.08075e-07
4.09098e-07
4.10121e-07
4.11144e-07
4.12166e-07
4.13187e-07
4.14207e-07
4.15227e-07
4.16245e-07
4.17264e-07
4.18281e-07
4.19297e-07
4.20313e-07
4.21327e-07
4.22341e-07
4.23355e-07
4.24367e-07
4.25378e-07
4.2639e-07
4.27399e-07
4.28408e-07
4.29417e-07
4.30424e-07
4.31431e-07
4.32437e-07
4.33442e-07
4.34446e-07
4.36222e-07
9.67076e-07
9.05491e-07
3.19715e-07
6.45206e-07
7.78232e-07
7.43358e-07
5.33122e-08
5.04683e-07
5.06391e-07
5.07529e-07
5.08666e-07
5.09802e-07
5.10938e-07
5.1207e-07
5.13203e-07
5.14334e-07
5.15462e-07
5.1659e-07
5.17716e-07
5.18839e-07
5.19962e-07
5.21083e-07
5.22202e-07
5.2332e-07
5.24436e-07
5.2555e-07
5.26663e-07
5.27774e-07
5.28883e-07
5.29991e-07
5.31097e-07
5.32201e-07
5.33305e-07
5.34406e-07
5.35505e-07
5.36603e-07
5.377e-07
5.38794e-07
5.39887e-07
5.40978e-07
5.42067e-07
5.43155e-07
5.44242e-07
5.45326e-07
5.46409e-07
5.47491e-07
5.48569e-07
5.49648e-07
5.50724e-07
5.53039e-07
9.58488e-07
9.61852e-07
9.10664e-07
7.19427e-07
5.12899e-07
6.50696e-07
6.582e-08
1.8425e-07
5.06039e-07
5.07527e-07
5.08665e-07
5.09802e-07
5.10937e-07
5.1207e-07
5.13203e-07
5.14334e-07
5.15462e-07
5.1659e-07
5.17716e-07
5.18839e-07
5.19962e-07
5.21083e-07
5.22202e-07
5.2332e-07
5.24436e-07
5.2555e-07
5.26663e-07
5.27774e-07
5.28883e-07
5.29991e-07
5.31097e-07
5.32201e-07
5.33304e-07
5.34406e-07
5.35505e-07
5.36603e-07
5.377e-07
5.38794e-07
5.39887e-07
5.40978e-07
5.42067e-07
5.43156e-07
5.44242e-07
5.45326e-07
5.46409e-07
5.47491e-07
5.48569e-07
5.49648e-07
5.50724e-07
5.53039e-07
9.67564e-07
9.67849e-07
8.25086e-07
6.49513e-07
5.78609e-07
7.0791e-07
7.64927e-07
1.83947e-07
5.06033e-07
5.07524e-07
5.08662e-07
5.098e-07
5.10936e-07
5.1207e-07
5.13202e-07
5.14333e-07
5.15462e-07
5.16589e-07
5.17716e-07
5.18839e-07
5.19962e-07
5.21083e-07
5.22202e-07
5.2332e-07
5.24436e-07
5.2555e-07
5.26663e-07
5.27774e-07
5.28883e-07
5.29991e-07
5.31097e-07
5.32201e-07
5.33304e-07
5.34406e-07
5.35505e-07
5.36603e-07
5.377e-07
5.38794e-07
5.39887e-07
5.40978e-07
5.42067e-07
5.43155e-07
5.44242e-07
5.45326e-07
5.46409e-07
5.47491e-07
5.48569e-07
5.49648e-07
5.50724e-07
5.53039e-07
9.60956e-07
9.26646e-07
8.84309e-07
8.77351e-07
8.4498e-07
7.36568e-07
7.75716e-07
5.20171e-08
5.0603e-07
5.07522e-07
5.08661e-07
5.09799e-07
5.10936e-07
5.12069e-07
5.13202e-07
5.14333e-07
5.15462e-07
5.16589e-07
5.17716e-07
5.18839e-07
5.19962e-07
5.21083e-07
5.22202e-07
5.2332e-07
5.24436e-07
5.2555e-07
5.26663e-07
5.27774e-07
5.28883e-07
5.29991e-07
5.31098e-07
5.32201e-07
5.33305e-07
5.34406e-07
5.35505e-07
5.36603e-07
5.377e-07
5.38794e-07
5.39887e-07
5.40978e-07
5.42067e-07
5.43155e-07
5.44242e-07
5.45326e-07
5.46409e-07
5.47491e-07
5.48569e-07
5.49648e-07
5.50724e-07
5.53039e-07
9.74606e-07
8.86138e-07
3.79529e-07
7.53091e-07
5.79548e-07
6.92149e-07
9.31736e-07
5.32208e-08
5.0603e-07
5.07521e-07
5.08661e-07
5.09799e-07
5.10936e-07
5.12069e-07
5.13202e-07
5.14333e-07
5.15462e-07
5.16589e-07
5.17715e-07
5.18839e-07
5.19962e-07
5.21083e-07
5.22202e-07
5.2332e-07
5.24436e-07
5.2555e-07
5.26663e-07
5.27774e-07
5.28883e-07
5.29991e-07
5.31098e-07
5.32201e-07
5.33305e-07
5.34406e-07
5.35505e-07
5.36603e-07
5.377e-07
5.38794e-07
5.39887e-07
5.40978e-07
5.42067e-07
5.43155e-07
5.44242e-07
5.45326e-07
5.46409e-07
5.47491e-07
5.48569e-07
5.49647e-07
5.50724e-07
5.53039e-07
9.68668e-07
9.20666e-07
9.01954e-07
8.52647e-07
7.44102e-07
7.10339e-07
9.31878e-07
5.55836e-08
5.06031e-07
5.07521e-07
5.08661e-07
5.09799e-07
5.10936e-07
5.12069e-07
5.13202e-07
5.14333e-07
5.15462e-07
5.16589e-07
5.17715e-07
5.18839e-07
5.19962e-07
5.21083e-07
5.22202e-07
5.2332e-07
5.24436e-07
5.2555e-07
5.26663e-07
5.27774e-07
5.28883e-07
5.29991e-07
5.31098e-07
5.32201e-07
5.33305e-07
5.34406e-07
5.35505e-07
5.36603e-07
5.377e-07
5.38794e-07
5.39887e-07
5.40978e-07
5.42067e-07
5.43155e-07
5.44242e-07
5.45326e-07
5.46409e-07
5.47491e-07
5.48569e-07
5.49648e-07
5.50724e-07
5.53039e-07
9.68597e-07
8.94208e-07
5.12234e-07
8.75116e-07
9.16152e-07
7.31073e-07
7.73178e-07
5.21189e-08
5.06027e-07
5.0752e-07
5.0866e-07
5.09799e-07
5.10935e-07
5.12069e-07
5.13202e-07
5.14333e-07
5.15462e-07
5.16589e-07
5.17715e-07
5.18839e-07
5.19962e-07
5.21083e-07
5.22202e-07
5.2332e-07
5.24436e-07
5.2555e-07
5.26663e-07
5.27774e-07
5.28883e-07
5.29991e-07
5.31097e-07
5.32201e-07
5.33305e-07
5.34406e-07
5.35505e-07
5.36603e-07
5.377e-07
5.38794e-07
5.39887e-07
5.40978e-07
5.42067e-07
5.43155e-07
5.44242e-07
5.45326e-07
5.46409e-07
5.47491e-07
5.48569e-07
5.49648e-07
5.50724e-07
5.53039e-07
9.66842e-07
9.14316e-07
5.3821e-07
7.77952e-07
8.96636e-07
7.5343e-07
7.76961e-07
1.83826e-07
5.06027e-07
5.0752e-07
5.08661e-07
5.09799e-07
5.10936e-07
5.12069e-07
5.13202e-07
5.14333e-07
5.15462e-07
5.16589e-07
5.17716e-07
5.18839e-07
5.19962e-07
5.21083e-07
5.22202e-07
5.2332e-07
5.24436e-07
5.2555e-07
5.26663e-07
5.27774e-07
5.28883e-07
5.29991e-07
5.31097e-07
5.32201e-07
5.33305e-07
5.34406e-07
5.35505e-07
5.36603e-07
5.377e-07
5.38794e-07
5.39887e-07
5.40978e-07
5.42067e-07
5.43155e-07
5.44242e-07
5.45326e-07
5.46409e-07
5.47491e-07
5.48569e-07
5.49648e-07
5.50724e-07
5.53039e-07
9.67025e-07
8.95624e-07
4.43483e-07
2.76273e-07
5.16034e-07
6.62713e-07
5.11942e-07
1.83944e-07
5.06036e-07
5.07525e-07
5.08663e-07
5.09801e-07
5.10937e-07
5.1207e-07
5.13202e-07
5.14333e-07
5.15462e-07
5.16589e-07
5.17716e-07
5.18839e-07
5.19962e-07
5.21083e-07
5.22202e-07
5.2332e-07
5.24436e-07
5.2555e-07
5.26663e-07
5.27774e-07
5.28883e-07
5.29991e-07
5.31097e-07
5.32201e-07
5.33305e-07
5.34406e-07
5.35505e-07
5.36603e-07
5.377e-07
5.38794e-07
5.39887e-07
5.40978e-07
5.42067e-07
5.43155e-07
5.44242e-07
5.45326e-07
5.46409e-07
5.47491e-07
5.48569e-07
5.49648e-07
5.50724e-07
5.53039e-07
9.04034e-07
8.5485e-07
8.23892e-07
6.04771e-07
8.50783e-07
7.30532e-07
6.79786e-08
5.04685e-07
5.0639e-07
5.07529e-07
5.08665e-07
5.09802e-07
5.10937e-07
5.1207e-07
5.13203e-07
5.14334e-07
5.15462e-07
5.1659e-07
5.17716e-07
5.18839e-07
5.19962e-07
5.21083e-07
5.22202e-07
5.2332e-07
5.24436e-07
5.2555e-07
5.26663e-07
5.27774e-07
5.28883e-07
5.29991e-07
5.31097e-07
5.32201e-07
5.33305e-07
5.34406e-07
5.35505e-07
5.36603e-07
5.377e-07
5.38794e-07
5.39887e-07
5.40978e-07
5.42067e-07
5.43155e-07
5.44242e-07
5.45326e-07
5.46409e-07
5.47491e-07
5.48569e-07
5.49648e-07
5.50724e-07
5.53039e-07
8.86733e-07
8.39946e-07
4.53961e-07
6.35581e-07
6.65259e-07
7.13571e-07
5.31618e-08
3.92289e-07
3.93665e-07
3.94697e-07
3.95731e-07
3.96763e-07
3.97794e-07
3.98826e-07
3.99856e-07
4.00885e-07
4.01915e-07
4.02943e-07
4.03971e-07
4.04998e-07
4.06024e-07
4.07049e-07
4.08074e-07
4.09098e-07
4.10121e-07
4.11144e-07
4.12166e-07
4.13187e-07
4.14207e-07
4.15227e-07
4.16245e-07
4.17264e-07
4.18281e-07
4.19297e-07
4.20313e-07
4.21327e-07
4.22341e-07
4.23355e-07
4.24367e-07
4.25378e-07
4.2639e-07
4.27399e-07
4.28408e-07
4.29417e-07
4.30424e-07
4.31431e-07
4.32437e-07
4.33442e-07
4.34446e-07
4.36222e-07
9.58707e-07
9.48841e-07
9.30766e-07
5.07545e-07
8.83282e-07
6.93508e-07
6.58729e-08
1.84254e-07
3.93454e-07
3.94697e-07
3.9573e-07
3.96762e-07
3.97794e-07
3.98826e-07
3.99856e-07
4.00885e-07
4.01915e-07
4.02943e-07
4.03971e-07
4.04998e-07
4.06024e-07
4.07049e-07
4.08074e-07
4.09098e-07
4.10121e-07
4.11144e-07
4.12166e-07
4.13187e-07
4.14207e-07
4.15227e-07
4.16245e-07
4.17264e-07
4.18281e-07
4.19297e-07
4.20313e-07
4.21327e-07
4.22341e-07
4.23355e-07
4.24367e-07
4.25378e-07
4.2639e-07
4.27399e-07
4.28408e-07
4.29417e-07
4.30424e-07
4.31431e-07
4.32437e-07
4.33442e-07
4.34446e-07
4.36222e-07
9.63714e-07
9.57332e-07
9.5273e-07
9.00091e-07
5.26122e-07
7.24688e-07
7.64662e-07
1.83952e-07
3.93452e-07
3.94695e-07
3.95729e-07
3.96762e-07
3.97794e-07
3.98825e-07
3.99856e-07
4.00885e-07
4.01915e-07
4.02943e-07
4.03971e-07
4.04998e-07
4.06024e-07
4.07049e-07
4.08074e-07
4.09098e-07
4.10121e-07
4.11144e-07
4.12166e-07
4.13187e-07
4.14207e-07
4.15227e-07
4.16245e-07
4.17264e-07
4.18281e-07
4.19297e-07
4.20313e-07
4.21327e-07
4.22341e-07
4.23355e-07
4.24367e-07
4.25378e-07
4.2639e-07
4.27399e-07
4.28408e-07
4.29417e-07
4.30424e-07
4.31431e-07
4.32437e-07
4.33442e-07
4.34446e-07
4.36222e-07
9.67474e-07
9.24139e-07
9.05579e-07
9.203e-07
5.20122e-07
7.06426e-07
7.75948e-07
5.20173e-08
3.93451e-07
3.94695e-07
3.95729e-07
3.96762e-07
3.97794e-07
3.98825e-07
3.99856e-07
4.00885e-07
4.01915e-07
4.02943e-07
4.03971e-07
4.04998e-07
4.06024e-07
4.07049e-07
4.08074e-07
4.09098e-07
4.10121e-07
4.11144e-07
4.12166e-07
4.13187e-07
4.14207e-07
4.15227e-07
4.16245e-07
4.17264e-07
4.18281e-07
4.19297e-07
4.20313e-07
4.21327e-07
4.22341e-07
4.23355e-07
4.24367e-07
4.25378e-07
4.2639e-07
4.27399e-07
4.28408e-07
4.29417e-07
4.30424e-07
4.31431e-07
4.32437e-07
4.33442e-07
4.34446e-07
4.36222e-07
9.64015e-07
8.94308e-07
5.07233e-07
8.37399e-07
4.52335e-07
6.86969e-07
9.3194e-07
5.31546e-08
3.93451e-07
3.94695e-07
3.95729e-07
3.96762e-07
3.97793e-07
3.98825e-07
3.99856e-07
4.00885e-07
4.01915e-07
4.02943e-07
4.03971e-07
4.04998e-07
4.06024e-07
4.07049e-07
4.08074e-07
4.09098e-07
4.10121e-07
4.11144e-07
4.12166e-07
4.13187e-07
4.14207e-07
4.15227e-07
4.16245e-07
4.17264e-07
4.18281e-07
4.19297e-07
4.20313e-07
4.21327e-07
4.22341e-07
4.23355e-07
4.24367e-07
4.25378e-07
4.2639e-07
4.27399e-07
4.28408e-07
4.29417e-07
4.30424e-07
4.31431e-07
4.32437e-07
4.33442e-07
4.34446e-07
4.36222e-07
9.66139e-07
9.61608e-07
8.92556e-07
8.75015e-07
5.23931e-07
6.29076e-07
9.3232e-07
5.5527e-08
3.93451e-07
3.94695e-07
3.95729e-07
3.96761e-07
3.97793e-07
3.98825e-07
3.99856e-07
4.00885e-07
4.01915e-07
4.02943e-07
4.03971e-07
4.04998e-07
4.06024e-07
4.07049e-07
4.08074e-07
4.09098e-07
4.10121e-07
4.11144e-07
4.12166e-07
4.13187e-07
4.14207e-07
4.15227e-07
4.16245e-07
4.17264e-07
4.18281e-07
4.19297e-07
4.20313e-07
4.21327e-07
4.22341e-07
4.23355e-07
4.24367e-07
4.25378e-07
4.2639e-07
4.27399e-07
4.28408e-07
4.29417e-07
4.30424e-07
4.31431e-07
4.32437e-07
4.33442e-07
4.34446e-07
4.36221e-07
9.66521e-07
9.43744e-07
9.1438e-07
8.19316e-07
8.71273e-07
7.24409e-07
7.73974e-07
5.21089e-08
3.9345e-07
3.94694e-07
3.95729e-07
3.96761e-07
3.97793e-07
3.98825e-07
3.99856e-07
4.00885e-07
4.01915e-07
4.02943e-07
4.03971e-07
4.04998e-07
4.06024e-07
4.07049e-07
4.08074e-07
4.09098e-07
4.10121e-07
4.11144e-07
4.12166e-07
4.13187e-07
4.14207e-07
4.15227e-07
4.16245e-07
4.17264e-07
4.18281e-07
4.19297e-07
4.20313e-07
4.21327e-07
4.22341e-07
4.23355e-07
4.24367e-07
4.25378e-07
4.2639e-07
4.27399e-07
4.28408e-07
4.29417e-07
4.30424e-07
4.31431e-07
4.32437e-07
4.33442e-07
4.34446e-07
4.36221e-07
9.59118e-07
9.2772e-07
6.92308e-07
8.38022e-07
5.61234e-07
7.3447e-07
7.7681e-07
1.83831e-07
3.93449e-07
3.94694e-07
3.95729e-07
3.96762e-07
3.97793e-07
3.98825e-07
3.99856e-07
4.00885e-07
4.01915e-07
4.02943e-07
4.03971e-07
4.04998e-07
4.06024e-07
4.07049e-07
4.08074e-07
4.09098e-07
4.10121e-07
4.11144e-07
4.12166e-07
4.13187e-07
4.14207e-07
4.15227e-07
4.16245e-07
4.17264e-07
4.18281e-07
4.19297e-07
4.20313e-07
4.21327e-07
4.22341e-07
4.23355e-07
4.24367e-07
4.25378e-07
4.2639e-07
4.27399e-07
4.28408e-07
4.29417e-07
4.30424e-07
4.31431e-07
4.32437e-07
4.33442e-07
4.34445e-07
4.36221e-07
9.5065e-07
8.6441e-07
6.15543e-07
5.94434e-07
4.82832e-07
6.80574e-07
5.12021e-07
1.8395e-07
3.93453e-07
3.94696e-07
3.9573e-07
3.96762e-07
3.97794e-07
3.98825e-07
3.99856e-07
4.00885e-07
4.01915e-07
4.02943e-07
4.03971e-07
4.04998e-07
4.06024e-07
4.07049e-07
4.08074e-07
4.09098e-07
4.10121e-07
4.11144e-07
4.12166e-07
4.13187e-07
4.14207e-07
4.15227e-07
4.16245e-07
4.17264e-07
4.18281e-07
4.19297e-07
4.20313e-07
4.21327e-07
4.22341e-07
4.23355e-07
4.24367e-07
4.25378e-07
4.2639e-07
4.27399e-07
4.28408e-07
4.29417e-07
4.30424e-07
4.31431e-07
4.32437e-07
4.33442e-07
4.34445e-07
4.36222e-07
8.75057e-07
8.26723e-07
9.2238e-07
4.47662e-07
7.11559e-07
7.59557e-07
6.79173e-08
3.9229e-07
3.93665e-07
3.94697e-07
3.9573e-07
3.96763e-07
3.97794e-07
3.98826e-07
3.99856e-07
4.00885e-07
4.01915e-07
4.02943e-07
4.03971e-07
4.04998e-07
4.06024e-07
4.07049e-07
4.08074e-07
4.09098e-07
4.10121e-07
4.11144e-07
4.12166e-07
4.13187e-07
4.14207e-07
4.15227e-07
4.16245e-07
4.17264e-07
4.18281e-07
4.19297e-07
4.20313e-07
4.21327e-07
4.22341e-07
4.23355e-07
4.24367e-07
4.25378e-07
4.2639e-07
4.27399e-07
4.28408e-07
4.29417e-07
4.30424e-07
4.31431e-07
4.32437e-07
4.33442e-07
4.34446e-07
4.36222e-07
9.89172e-08
6.91762e-07
1.38386e-07
7.43071e-07
1.41169e-07
7.17906e-07
1.94038e-07
3.57913e-07
3.78844e-07
6.98672e-07
6.74764e-07
4.61973e-07
4.72883e-07
7.68893e-07
7.00539e-07
6.84447e-07
7.00218e-07
7.22419e-07
7.75075e-07
6.9242e-07
7.74433e-07
6.99993e-07
5.68186e-07
7.01002e-07
7.41305e-07
7.74435e-07
6.27009e-07
7.74215e-07
6.97931e-07
6.78372e-07
7.0011e-07
6.99843e-07
7.71667e-07
7.46887e-07
7.74581e-07
6.99921e-07
6.77627e-07
7.00139e-07
7.0862e-07
7.75459e-07
7.34639e-07
7.75342e-07
6.99857e-07
6.82444e-07
7.01203e-07
7.49564e-07
7.73035e-07
6.71613e-07
7.75685e-07
7.01125e-07
6.20199e-07
7.00642e-07
7.14902e-07
7.74642e-07
5.52598e-07
7.7667e-07
7.00321e-07
6.23514e-07
6.90708e-07
6.54708e-07
7.74608e-07
7.22613e-07
7.45921e-07
3.39216e-07
6.72048e-07
1.00715e-07
7.42352e-07
4.27109e-07
6.37754e-07
1.43568e-07
1.41188e-07
7.02108e-07
1.94288e-07
7.25791e-07
1.40963e-07
6.73703e-07
1.94654e-07
4.62951e-07
5.94865e-07
7.67425e-07
6.59632e-07
4.61968e-07
6.06514e-07
7.68226e-07
7.76008e-07
5.69059e-07
7.74109e-07
7.07359e-07
7.74092e-07
5.17883e-07
7.7416e-07
7.74348e-07
5.73809e-07
7.72113e-07
7.13904e-07
7.75334e-07
5.36372e-07
7.73325e-07
7.72544e-07
7.43361e-07
7.73312e-07
6.76656e-07
7.72196e-07
7.16722e-07
7.76848e-07
7.74975e-07
7.31921e-07
7.74674e-07
6.54678e-07
7.74228e-07
7.46818e-07
7.75753e-07
7.72541e-07
6.7528e-07
7.7561e-07
7.12065e-07
7.74363e-07
6.61725e-07
7.76602e-07
7.74288e-07
5.80225e-07
7.76242e-07
7.18842e-07
7.75572e-07
5.78116e-07
7.75316e-07
7.73992e-07
7.2961e-07
7.39885e-07
6.32667e-07
7.73175e-07
7.44669e-07
7.41662e-07
4.2572e-07
6.41587e-07
1.43585e-07
7.67297e-07
4.24852e-07
6.46073e-07
1.43537e-07
1.40712e-07
6.76645e-07
1.94755e-07
6.85691e-07
9.81667e-08
6.91116e-07
1.38711e-07
4.60105e-07
6.29315e-07
7.69703e-07
6.73401e-07
3.6015e-07
6.61599e-07
6.98237e-07
7.74971e-07
5.59774e-07
7.74445e-07
6.6854e-07
7.00901e-07
6.78269e-07
7.00226e-07
7.75377e-07
6.61859e-07
7.72183e-07
6.75583e-07
6.99157e-07
6.47111e-07
7.01025e-07
7.71564e-07
7.15528e-07
7.75525e-07
6.79053e-07
6.98808e-07
6.85377e-07
6.99898e-07
7.74852e-07
7.4414e-07
7.75513e-07
5.42296e-07
7.00171e-07
6.83009e-07
7.00618e-07
7.7111e-07
6.76895e-07
7.75819e-07
6.76626e-07
7.00013e-07
6.85791e-07
6.99747e-07
7.76415e-07
6.11529e-07
7.76007e-07
6.88815e-07
7.01159e-07
6.48162e-07
7.00958e-07
7.73788e-07
7.29093e-07
7.48331e-07
5.61447e-07
7.00176e-07
6.83983e-07
6.90663e-07
4.2603e-07
6.45401e-07
1.43417e-07
6.92913e-07
3.37535e-07
6.51519e-07
1.0028e-07
8.80088e-07
8.52384e-07
7.68439e-07
7.59865e-07
8.85672e-07
9.11578e-07
8.82127e-07
7.56809e-07
6.99829e-07
6.84829e-07
7.49206e-07
7.48268e-07
6.89922e-07
7.73356e-07
1.29567e-07
3.80528e-08
1.29567e-07
5.31213e-08
1.83835e-07
5.65925e-08
1.83833e-07
6.5143e-07
5.50834e-07
2.70969e-07
4.34759e-07
6.4212e-07
2.34444e-07
2.19423e-07
7.37376e-07
6.90716e-07
6.70306e-07
7.37598e-07
7.59285e-07
7.10389e-07
6.81966e-07
1.29418e-07
2.03743e-07
3.51617e-08
6.58367e-08
1.83533e-07
2.75758e-07
5.1979e-08
7.96951e-07
8.03868e-07
8.47337e-07
5.74201e-07
6.8418e-07
7.40414e-07
8.45548e-07
7.59565e-07
6.34531e-07
5.02166e-07
7.41805e-07
7.09404e-07
6.11846e-07
6.92401e-07
3.52761e-08
6.9879e-07
3.53619e-08
7.64948e-07
5.19793e-08
7.76651e-07
5.22487e-08
7.99006e-07
8.39084e-07
8.91632e-07
8.55935e-07
7.89155e-07
7.99742e-07
8.52091e-07
5.23593e-07
6.92403e-07
5.13541e-07
7.42621e-07
7.51448e-07
5.64664e-07
4.03821e-07
3.74376e-08
7.00084e-07
6.77161e-08
7.75601e-07
5.54595e-08
7.719e-07
9.83858e-08
8.39617e-07
6.2076e-07
4.6396e-07
3.70728e-07
3.82546e-07
4.04341e-07
3.77623e-07
7.55589e-07
6.95163e-07
6.48252e-07
7.25496e-07
7.65165e-07
6.78309e-07
6.90424e-07
8.75996e-08
9.03068e-07
1.24116e-07
9.3228e-07
1.259e-07
9.32632e-07
1.74799e-07
3.26454e-07
8.30741e-07
8.79922e-07
5.18859e-07
3.86149e-07
8.97328e-07
9.15346e-07
6.47736e-07
6.98167e-07
3.50356e-07
6.96761e-07
7.71234e-07
4.22645e-07
5.32036e-07
1.27313e-07
9.02622e-07
8.48958e-08
9.32366e-07
1.7877e-07
9.31333e-07
1.22086e-07
8.62756e-07
7.60167e-07
7.02146e-07
7.98963e-07
9.02288e-07
8.17994e-07
7.76911e-07
7.59043e-07
6.96108e-07
6.80123e-07
7.56659e-07
7.72372e-07
7.15691e-07
6.93913e-07
6.33873e-08
7.01326e-07
3.73864e-08
7.69893e-07
9.2383e-08
7.76004e-07
5.53767e-08
6.67112e-07
7.2395e-07
6.22611e-07
8.29148e-07
4.58661e-07
6.69245e-07
5.90955e-07
7.63551e-07
6.9557e-07
6.90301e-07
6.95653e-07
7.66425e-07
6.84129e-07
6.93998e-07
3.53764e-08
6.93154e-07
3.5056e-08
7.77208e-07
5.23153e-08
7.67821e-07
5.19795e-08
6.70872e-07
7.07893e-07
7.33749e-07
4.25281e-07
4.04111e-07
3.16725e-07
5.14255e-07
6.72318e-07
6.93159e-07
3.73144e-07
6.24435e-07
7.60148e-07
4.77275e-07
5.69743e-07
3.52087e-08
5.70984e-08
1.29421e-07
5.15487e-07
5.19782e-08
8.37305e-08
1.8354e-07
8.99685e-07
7.20644e-07
8.77268e-07
9.03664e-07
8.68772e-07
7.82695e-07
9.0984e-07
7.71189e-07
6.98653e-07
6.61154e-07
7.41392e-07
7.71857e-07
6.83825e-07
6.99011e-07
1.29567e-07
3.58456e-08
1.29568e-07
6.78833e-08
1.83836e-07
5.30575e-08
1.83837e-07
8.30788e-07
8.49562e-07
7.99649e-07
5.81499e-07
5.26536e-07
6.70518e-07
7.89084e-07
7.47117e-07
7.70344e-07
6.97988e-07
7.29656e-07
7.50197e-07
7.37867e-07
7.68551e-07
1.83831e-07
5.66194e-08
1.83828e-07
5.34722e-08
1.83831e-07
5.65484e-08
1.83828e-07
6.15349e-07
2.11768e-07
2.36419e-07
8.5855e-07
7.80265e-07
8.46075e-07
7.39061e-07
6.86782e-07
7.51603e-07
6.87684e-07
6.40676e-07
6.86511e-07
7.41156e-07
5.94215e-07
1.83527e-07
2.75785e-07
5.19784e-08
6.58419e-08
1.83528e-07
2.75938e-07
5.19785e-08
4.82827e-07
6.84141e-07
6.7104e-07
4.63993e-07
6.87424e-07
2.51546e-07
3.47427e-07
7.13527e-07
7.62438e-07
6.63092e-07
6.92904e-07
7.1912e-07
7.63342e-07
7.01506e-07
5.19788e-08
7.76772e-07
5.22719e-08
7.64474e-07
5.19788e-08
7.76634e-07
5.22713e-08
8.55309e-07
8.86857e-07
9.18183e-07
3.43463e-07
6.32508e-07
7.01175e-07
8.46491e-07
4.85803e-07
7.34255e-07
4.99649e-07
7.12004e-07
4.94633e-07
7.26055e-07
5.36662e-07
5.55182e-08
7.73607e-07
9.84192e-08
7.75746e-07
5.55128e-08
7.71459e-07
9.84199e-08
6.1396e-07
5.55841e-07
3.48275e-07
5.04477e-07
3.40196e-07
4.36481e-07
4.77266e-07
7.39211e-07
7.5069e-07
6.65191e-07
6.75989e-07
7.35682e-07
7.53282e-07
6.06705e-07
1.25985e-07
9.3217e-07
1.74728e-07
9.32388e-07
1.26041e-07
9.32044e-07
1.74598e-07
3.67775e-07
9.07601e-07
8.44899e-07
5.25955e-07
4.7385e-07
8.87964e-07
9.12874e-07
7.00561e-07
7.69292e-07
3.99591e-07
6.89276e-07
6.86579e-07
7.65779e-07
3.88939e-07
1.78877e-07
9.31593e-07
1.2212e-07
9.31692e-07
1.78645e-07
9.31114e-07
1.22085e-07
9.12437e-07
8.20149e-07
6.93932e-07
8.90004e-07
8.90658e-07
2.25183e-07
7.75242e-07
7.48295e-07
7.68608e-07
6.13199e-07
6.65517e-07
7.46743e-07
7.62031e-07
6.09745e-07
9.24227e-08
7.75864e-07
5.54425e-08
7.75674e-07
9.24062e-08
7.76655e-07
5.54433e-08
4.28147e-07
3.61635e-07
5.93639e-07
5.63395e-07
6.07942e-07
2.58408e-07
2.72089e-07
7.58272e-07
7.67307e-07
5.635e-07
7.57799e-07
7.51233e-07
7.67797e-07
5.6702e-07
5.23444e-08
7.67741e-07
5.1979e-08
7.76512e-07
5.23452e-08
7.68628e-07
5.1979e-08
3.86427e-07
3.22314e-07
4.66126e-07
5.23406e-07
4.05015e-07
4.06928e-07
5.15123e-07
6.53531e-07
7.32962e-07
2.76522e-07
6.58899e-07
5.92257e-07
7.27792e-07
2.66477e-07
5.19775e-08
8.38863e-08
1.83536e-07
5.09008e-07
5.19776e-08
8.38751e-08
1.83536e-07
7.06212e-07
6.85506e-07
8.2435e-07
3.86942e-07
4.10296e-07
2.94054e-07
5.86959e-07
7.57755e-07
7.66109e-07
7.75379e-07
6.85917e-07
7.6921e-07
7.66403e-07
7.1655e-07
1.83832e-07
5.34171e-08
1.83833e-07
6.80086e-08
1.83832e-07
5.31267e-08
1.83833e-07
4.95935e-07
3.39042e-07
7.94909e-07
6.49379e-07
6.1497e-07
6.72771e-07
8.67003e-07
7.63426e-07
7.62205e-07
7.37928e-07
7.22821e-07
7.63301e-07
7.29793e-07
7.66622e-07
1.83835e-07
5.64659e-08
1.83832e-07
3.59268e-08
1.29567e-07
3.78707e-08
1.29567e-07
9.20736e-07
8.74421e-07
9.0514e-07
8.79148e-07
8.65173e-07
8.47726e-07
8.53619e-07
7.07554e-07
7.57871e-07
5.66448e-07
6.51488e-07
6.90517e-07
7.65708e-07
6.35387e-07
1.83533e-07
2.75767e-07
5.19789e-08
4.48717e-08
1.29419e-07
2.04007e-07
3.51617e-08
5.65476e-07
2.8402e-07
2.90651e-07
6.03284e-07
6.49003e-07
3.94397e-07
3.79694e-07
7.4416e-07
7.68755e-07
6.0325e-07
7.23261e-07
7.33223e-07
7.66469e-07
6.34264e-07
5.19792e-08
7.76566e-07
5.22483e-08
6.90836e-07
3.51784e-08
6.98789e-07
3.53616e-08
5.64202e-07
4.32088e-07
8.50265e-07
6.24457e-07
5.79502e-07
2.52363e-07
8.13281e-07
5.29376e-07
7.42761e-07
5.65408e-07
7.02698e-07
4.80435e-07
7.33224e-07
5.71281e-07
5.5453e-08
7.74355e-07
9.83795e-08
7.01229e-07
3.74338e-08
7.01034e-07
6.77211e-08
5.23174e-07
4.07409e-07
3.68781e-07
4.34022e-07
6.25286e-07
6.01794e-07
4.17558e-07
7.44959e-07
7.61665e-07
6.51747e-07
7.26215e-07
7.46061e-07
7.65133e-07
6.55669e-07
1.26024e-07
9.32156e-07
1.7459e-07
9.0288e-07
8.75938e-08
9.03029e-07
1.24185e-07
4.7718e-07
9.28039e-07
9.03525e-07
4.84217e-07
4.40892e-07
8.65382e-07
8.54406e-07
7.07735e-07
7.68217e-07
3.97637e-07
6.27406e-07
7.0771e-07
7.70381e-07
3.99442e-07
1.78706e-07
9.31888e-07
1.22094e-07
9.03021e-07
1.27367e-07
9.02591e-07
8.48505e-08
8.99206e-07
2.34633e-07
8.02453e-07
8.87497e-07
8.86236e-07
8.65566e-07
8.41672e-07
7.51975e-07
7.70405e-07
6.56654e-07
7.03305e-07
7.52554e-07
7.70909e-07
7.53022e-07
9.23426e-08
7.77153e-07
5.53767e-08
7.00886e-07
6.33657e-08
7.01269e-07
3.7384e-08
7.47803e-07
2.47892e-07
2.18614e-07
7.06647e-07
8.4302e-07
7.36259e-07
6.51096e-07
7.67685e-07
7.69684e-07
6.14689e-07
7.159e-07
7.61434e-07
7.71171e-07
6.01943e-07
5.23161e-08
7.68864e-07
5.19794e-08
6.99281e-07
3.53646e-08
6.92043e-07
3.5056e-08
4.18528e-07
3.35274e-07
4.90061e-07
6.50758e-07
4.68502e-07
7.49542e-07
5.97155e-07
5.92459e-07
7.30372e-07
2.69102e-07
6.92819e-07
5.474e-07
7.43929e-07
2.61438e-07
5.19782e-08
8.37207e-08
1.83539e-07
4.33973e-07
3.51414e-08
5.70847e-08
1.29421e-07
7.82217e-07
3.31997e-07
6.19108e-07
7.47143e-07
8.85576e-07
4.61758e-07
6.18051e-07
7.66984e-07
7.70341e-07
6.09379e-07
7.58811e-07
7.6161e-07
7.69566e-07
6.06727e-07
1.83836e-07
5.30688e-08
1.83837e-07
4.60223e-08
1.29568e-07
3.58749e-08
1.29568e-07
7.61058e-07
6.95169e-07
9.87002e-08
1.41217e-07
1.40476e-07
6.91831e-07
7.68562e-07
5.90222e-07
6.05192e-07
6.9568e-07
7.57961e-07
6.64361e-07
7.67145e-07
4.95935e-07
7.50997e-07
9.52195e-08
6.96937e-07
1.93876e-07
1.37188e-07
7.70379e-07
6.8156e-07
7.55412e-07
7.52691e-07
7.71523e-07
7.48967e-07
7.51725e-07
7.52746e-07
7.70655e-07
7.56159e-07
1.41168e-07
7.64066e-07
1.39521e-07
1.40008e-07
7.52917e-07
7.66247e-07
5.98214e-07
7.2723e-07
6.42223e-07
7.64075e-07
6.33899e-07
7.59981e-07
6.2143e-07
7.39623e-07
1.93878e-07
1.38645e-07
7.6624e-07
1.38645e-07
7.67745e-07
7.4049e-07
7.69006e-07
6.98961e-07
6.91082e-07
4.56913e-07
7.7154e-07
7.6499e-07
6.97114e-07
7.64051e-07
5.81669e-07
6.42253e-07
4.69483e-07
6.65182e-07
7.06195e-07
6.97084e-07
7.762e-07
6.95649e-07
6.99372e-07
7.72962e-07
7.69373e-07
7.70891e-07
7.01186e-07
7.27535e-07
6.89369e-07
7.60016e-07
6.98171e-07
7.60441e-07
7.03323e-07
7.10402e-07
7.65641e-07
4.60135e-07
7.68668e-07
7.61596e-07
7.68376e-07
7.63432e-07
7.61738e-07
7.60059e-07
4.29433e-07
6.47311e-07
5.59746e-07
6.75833e-07
6.35974e-07
7.58838e-07
7.71899e-07
7.70844e-07
7.66585e-07
7.73767e-07
7.6746e-07
7.71724e-07
7.73185e-07
7.68966e-07
6.99802e-07
7.004e-07
7.75812e-07
7.72105e-07
7.76187e-07