/*--------------------------------*- C++ -*----------------------------------*\
| =========                 |                                                 |
| \\      /  F ield         | OpenFOAM: The Open Source CFD Toolbox           |
|  \\    /   O peration     | Version:  5.0                                   |
|   \\  /    A nd           | Web:      www.OpenFOAM.org                      |
|    \\/     M anipulation  |                                                 |
\*---------------------------------------------------------------------------*/
FoamFile
{
    version     2.0;
    format      ascii;
    class       volVectorField;
    location    "3.4";
    object      U;
}
// * * * * * * * * * * * * * * * * * * * * * * * * * * * * * * * * * * * * * //

dimensions      [0 1 -1 0 0 0 0];

internalField   nonuniform List<vector> 
8437
(
(0.00655594 -0.0061072 -0.000602902)
(0.006474 0.00371298 8.99956e-05)
(-0.0130248 -0.00363883 -0.000340816)
(-0.0120669 -0.00415178 0.00214833)
(-0.0131682 -0.0130984 -0.000644798)
(0.00188779 -2.88201e-05 -5.89207e-05)
(0.000303792 -5.5489e-05 2.09936e-05)
(0.000821948 -7.81015e-05 -1.56074e-06)
(0.00079585 -1.19445e-05 -3.18763e-07)
(0.000813026 -1.3158e-05 8.29374e-08)
(0.000821371 -6.26944e-06 1.1713e-07)
(0.0008256 -3.96178e-06 6.45651e-08)
(0.000828538 -2.28925e-06 1.7767e-08)
(0.000829291 -1.14008e-06 -1.99884e-08)
(0.000828983 -8.05581e-07 5.15148e-08)
(0.000828411 -6.30829e-07 3.50258e-08)
(0.000827467 -3.98173e-07 5.51866e-08)
(0.000826415 -1.44822e-07 7.26118e-08)
(0.000824359 -5.75057e-07 2.6179e-08)
(0.000822602 -2.57614e-07 6.72987e-08)
(0.000821554 -9.69702e-08 4.16446e-08)
(0.000819937 -1.27536e-08 1.75672e-08)
(0.000818248 4.7148e-08 4.30206e-10)
(0.000816631 7.27279e-08 4.68708e-08)
(0.000815181 2.55824e-07 7.56039e-08)
(0.000813675 3.32662e-07 7.76138e-08)
(0.000812052 2.24785e-07 6.37751e-08)
(0.000810691 6.69147e-08 5.27478e-08)
(0.000808829 8.67444e-08 1.82944e-08)
(0.000807078 -1.33023e-07 6.96966e-08)
(0.000805556 -4.88848e-07 8.55926e-08)
(0.000803817 -5.11416e-07 -1.01504e-08)
(0.000802162 -3.60105e-07 8.42652e-08)
(0.000800984 7.0041e-08 9.50877e-08)
(0.000799746 7.23998e-08 4.78295e-08)
(0.000798002 9.00938e-08 4.75452e-08)
(0.000796319 1.29153e-07 5.26366e-08)
(0.000794459 2.5606e-07 4.37649e-08)
(0.000793542 6.16922e-07 1.0263e-07)
(0.000792495 2.15085e-07 1.34885e-07)
(0.000790657 1.35203e-08 2.79604e-08)
(0.000789033 -4.4929e-08 7.1304e-08)
(0.000788026 -3.60974e-07 2.81015e-08)
(0.000786293 -4.10372e-07 2.83659e-09)
(0.000784396 -2.05315e-07 3.93636e-08)
(0.000783067 -4.71982e-08 -4.40028e-08)
(0.000781789 6.52703e-08 5.21287e-08)
(0.000780685 -9.73218e-08 4.80267e-08)
(0.000778938 -3.70706e-07 4.50698e-08)
(0.000777335 -3.02066e-07 1.27566e-08)
(0.00380232 -0.0002486 -0.000743747)
(0.013884 -0.00710633 0.000406364)
(-0.00269568 0.0144099 -0.000375461)
(-0.0237607 0.0104794 -0.000326156)
(-0.0122267 -0.0167379 -0.000710616)
(0.00119698 -0.0104734 6.60164e-05)
(0.000284968 -8.81266e-05 3.51399e-05)
(0.000450663 -4.67369e-05 -1.07638e-06)
(0.000874913 -3.02551e-05 -1.08728e-06)
(0.000813382 -2.62315e-05 -4.48453e-07)
(0.000830532 -1.45259e-05 1.72785e-07)
(0.000829907 -9.03862e-06 4.26739e-08)
(0.000831015 -5.48114e-06 5.78615e-08)
(0.000830622 -3.59064e-06 5.0436e-08)
(0.000829827 -2.22032e-06 5.40848e-08)
(0.000828858 -1.52151e-06 5.35005e-08)
(0.000827704 -1.02293e-06 5.13025e-08)
(0.000825846 -9.3266e-07 7.02464e-08)
(0.000824679 -7.44146e-07 1.04393e-07)
(0.000823678 -3.10753e-07 3.04403e-08)
(0.000821741 -1.88243e-07 8.29288e-08)
(0.000820066 -1.51297e-07 7.43311e-08)
(0.000818416 1.11542e-07 1.20537e-07)
(0.000816971 2.17355e-07 9.1645e-09)
(0.00081539 4.84649e-07 -3.87456e-08)
(0.000813426 5.04236e-08 1.03306e-07)
(0.000811776 -5.12798e-08 6.04395e-08)
(0.000810334 -2.28023e-07 5.11829e-08)
(0.000808782 -6.50082e-07 9.6997e-08)
(0.000806893 -5.4563e-07 7.10285e-08)
(0.000805309 -3.24194e-07 -7.62102e-08)
(0.000803968 -1.20633e-07 1.57579e-08)
(0.000802846 4.18645e-07 1.26952e-07)
(0.000801427 6.00206e-07 7.8339e-08)
(0.000799542 2.82076e-07 4.63608e-08)
(0.000798046 2.34974e-07 4.11944e-08)
(0.000796673 2.45743e-07 4.55928e-08)
(0.000795437 4.17249e-07 1.28297e-08)
(0.000793414 7.26944e-07 1.09183e-08)
(0.000791446 3.40526e-07 8.88328e-08)
(0.000790232 1.52536e-07 6.16287e-08)
(0.000788741 -1.80059e-08 7.12058e-08)
(0.000787181 6.09852e-08 1.21824e-08)
(0.000786264 -3.56077e-07 1.04946e-07)
(0.000785019 -2.2568e-08 5.48156e-08)
(0.000783391 -4.75367e-09 5.50827e-08)
(0.000781912 3.13e-07 5.71399e-08)
(0.000780306 6.90118e-08 -4.57296e-09)
(0.000778883 -8.35409e-08 -7.11166e-08)
(0.000777839 -1.67834e-07 1.10924e-07)
(-0.00173158 0.00734921 -5.26435e-05)
(-0.00109469 -0.000693137 -0.000244981)
(0.00278778 -0.00912151 0.000281294)
(-0.00862203 -0.0184883 0.00275861)
(-0.00324881 0.00680111 0.00114443)
(0.0142171 0.00481193 0.000497083)
(0.00148642 -0.000202413 9.80749e-05)
(0.000489879 -5.98034e-05 -9.79211e-07)
(0.000918615 -4.57307e-05 -1.8747e-06)
(0.000833038 -2.66726e-05 -5.49028e-07)
(0.000842984 -1.69113e-05 1.65461e-07)
(0.000836979 -1.05817e-05 2.67602e-08)
(0.000835394 -6.71025e-06 5.50637e-08)
(0.000833396 -4.26089e-06 5.22861e-08)
(0.000831589 -2.64918e-06 5.37677e-08)
(0.000829921 -1.62819e-06 5.48209e-08)
(0.000828213 -1.07834e-06 5.56057e-08)
(0.000826771 -7.53783e-07 9.65238e-08)
(0.000825142 -3.12053e-07 -4.65196e-08)
(0.0008233 -2.81486e-07 4.33648e-08)
(0.000821755 -2.87537e-07 1.51724e-07)
(0.000820311 -1.78651e-07 4.94882e-08)
(0.000818708 -2.0979e-07 7.54144e-08)
(0.000817094 -1.67483e-07 7.44319e-08)
(0.00081497 -5.85138e-07 4.18619e-08)
(0.000813003 -2.4295e-07 9.14313e-08)
(0.000811704 -1.49087e-07 6.86002e-08)
(0.000809946 -8.49775e-08 5.35288e-08)
(0.000808436 -9.72449e-08 1.1948e-08)
(0.000807491 1.77419e-07 -5.90526e-08)
(0.000806091 3.93301e-07 2.05443e-07)
(0.000804746 4.80314e-07 5.35448e-08)
(0.000803061 4.55603e-07 -2.00955e-09)
(0.00080081 1.73261e-07 8.56625e-09)
(0.000799287 1.24482e-07 9.17727e-08)
(0.000797954 1.5093e-07 5.13479e-08)
(0.000796544 1.06821e-07 5.63349e-08)
(0.000795056 -2.01509e-08 5.23818e-08)
(0.000793442 -2.3817e-07 2.72372e-08)
(0.000791774 -7.40688e-08 1.26591e-07)
(0.000790207 1.41737e-08 7.94692e-08)
(0.000788918 -2.08304e-08 2.05361e-08)
(0.000787606 3.99097e-07 6.30162e-08)
(0.000786191 4.64657e-07 6.95081e-08)
(0.000784838 2.90142e-07 7.56349e-08)
(0.000783487 2.82968e-07 1.25934e-07)
(0.000781882 3.01228e-07 1.1347e-07)
(0.00078019 4.23869e-07 7.7346e-08)
(0.000778647 2.45076e-07 1.76044e-08)
(0.000777647 1.38745e-07 1.1429e-07)
(0.00376403 -0.000432573 0.000203138)
(0.00308842 -0.00290473 0.000132265)
(-0.00595771 -0.00142633 0.000605242)
(0.00784408 -0.000988801 -0.000807688)
(-0.00561002 0.00971392 0.00222494)
(-0.0010145 0.0065926 0.000187204)
(0.000573938 0.000460162 -8.87688e-06)
(0.000305432 -2.99256e-05 1.94548e-06)
(0.000908516 -2.38029e-05 -2.17909e-06)
(0.000849684 -1.66151e-05 -3.37604e-07)
(0.000850819 -1.16224e-05 1.21982e-07)
(0.000842768 -7.64929e-06 1.71364e-08)
(0.000838985 -5.21959e-06 4.78892e-08)
(0.000835741 -3.3024e-06 5.1142e-08)
(0.000833146 -1.96921e-06 4.92414e-08)
(0.000830839 -1.18906e-06 4.89187e-08)
(0.000828808 -8.39233e-07 6.567e-08)
(0.000826812 -4.88711e-07 5.3273e-08)
(0.000825275 -4.48277e-07 2.60045e-08)
(0.000823713 -3.49607e-07 3.19133e-08)
(0.000821873 -2.42194e-07 7.15104e-08)
(0.000820166 -2.81481e-07 5.23586e-08)
(0.000818431 -4.24225e-07 -2.88878e-08)
(0.000816504 -3.93649e-07 6.5941e-08)
(0.000815298 -5.28931e-07 8.1666e-08)
(0.000813973 -6.34105e-08 5.72526e-08)
(0.000811974 1.55812e-07 5.93783e-08)
(0.0008104 3.92009e-07 5.70459e-08)
(0.000809109 7.35621e-07 8.37867e-09)
(0.000807504 6.52687e-07 5.35237e-08)
(0.000805684 4.13083e-07 9.0491e-08)
(0.00080404 4.98713e-07 5.00654e-09)
(0.000802459 -8.68551e-09 4.42652e-08)
(0.000801011 -5.34059e-08 5.18892e-08)
(0.000799513 8.18099e-08 -1.81101e-08)
(0.000798023 9.90309e-08 4.41979e-08)
(0.000796458 1.14681e-07 4.82611e-08)
(0.000795006 -1.42931e-09 4.61905e-08)
(0.000793348 -2.26485e-07 1.96299e-08)
(0.000791762 -2.59599e-07 6.62138e-08)
(0.000790298 -9.62297e-08 6.37792e-08)
(0.000789221 5.86202e-08 2.90639e-08)
(0.000787785 6.98231e-08 1.71198e-07)
(0.000786124 1.59877e-07 4.17252e-08)
(0.000784788 4.22203e-09 4.25492e-08)
(0.000783401 2.74109e-08 4.37615e-08)
(0.000782085 3.74588e-08 7.50197e-08)
(0.000780233 3.0013e-07 4.96268e-08)
(0.000778522 1.59843e-07 4.62712e-08)
(0.000777359 2.56264e-07 1.62623e-07)
(-0.00143748 -0.00516639 -0.000106778)
(0.020567 0.000647274 0.000176294)
(0.0106769 0.0065151 -0.00341696)
(-0.00339599 -0.00184854 -0.00025958)
(0.00868488 -0.00690454 -0.0013123)
(0.0024861 -0.00452387 0.000173561)
(0.00127949 -7.3739e-05 2.29858e-05)
(0.00051184 -1.58487e-05 3.28347e-05)
(0.000926851 -3.15296e-06 -1.47053e-06)
(0.000848488 -6.27935e-06 -4.93178e-07)
(0.000854342 -4.32832e-06 1.672e-07)
(0.000845081 -3.24932e-06 -5.48591e-09)
(0.00084089 -1.97042e-06 1.05694e-07)
(0.000837499 -1.43869e-06 5.2261e-08)
(0.000834255 -1.12715e-06 -1.83691e-08)
(0.000831348 -7.77275e-07 4.79346e-10)
(0.000829097 -4.26139e-07 5.16981e-08)
(0.000827266 -2.57874e-07 4.98269e-08)
(0.00082532 -3.7493e-08 1.70687e-07)
(0.000823561 6.36767e-09 1.59768e-08)
(0.000821844 -7.0094e-08 6.54656e-08)
(0.000820087 5.00973e-08 1.89506e-08)
(0.000818571 2.29263e-08 7.56974e-08)
(0.000816968 5.48982e-08 9.73467e-08)
(0.000815386 3.05518e-07 9.24383e-08)
(0.00081386 -1.78354e-07 8.62647e-08)
(0.000812272 1.17095e-07 6.88181e-08)
(0.000810666 2.44191e-07 6.82517e-08)
(0.000808756 4.14895e-07 2.42695e-07)
(0.00080708 4.56408e-07 -1.02597e-08)
(0.000805892 1.86534e-07 -3.84067e-07)
(0.000804214 -1.47705e-07 3.1636e-08)
(0.000802368 7.42422e-08 3.46651e-08)
(0.000800921 3.82598e-08 5.04161e-08)
(0.000799476 7.41338e-08 5.41716e-08)
(0.000797995 -8.32148e-08 4.76319e-08)
(0.000796418 -2.04394e-07 8.9025e-08)
(0.000794631 -1.9078e-07 4.5817e-08)
(0.000793121 -1.82424e-07 4.6209e-08)
(0.000791938 -1.40839e-07 7.5302e-08)
(0.000790605 5.03443e-08 7.23946e-08)
(0.000789125 3.91578e-07 1.56586e-07)
(0.00078773 5.90169e-09 -2.51699e-08)
(0.000786107 9.00277e-08 -1.87395e-07)
(0.000784671 -9.7728e-08 2.64411e-08)
(0.000783528 -2.15927e-07 5.05426e-08)
(0.000782222 -5.31024e-07 1.16529e-08)
(0.000780342 -8.73669e-07 4.46916e-08)
(0.000778586 -3.36755e-07 6.05654e-08)
(0.00077713 2.93911e-08 5.27151e-08)
(-0.00764526 -0.00145062 0.000331503)
(-0.00368717 0.000755129 -0.000141585)
(-0.000613762 0.00476544 0.00118308)
(-0.00590868 0.00247706 -9.18121e-05)
(-0.0148998 0.00265528 0.000563775)
(-0.00110468 -0.00426595 0.000139144)
(0.000960852 -0.000148747 -5.84344e-06)
(0.000520089 3.30703e-07 4.11482e-05)
(0.00092459 -2.68594e-06 -1.47151e-06)
(0.000848201 3.02069e-06 -4.34785e-07)
(0.000854698 2.48524e-06 1.81806e-07)
(0.000845773 1.99089e-06 4.69741e-08)
(0.000841285 1.64389e-06 8.12781e-08)
(0.000836819 9.92888e-07 4.49704e-08)
(0.000833988 4.70678e-07 1.06646e-07)
(0.000831726 2.30026e-07 8.68015e-08)
(0.000829464 2.25711e-07 5.01714e-08)
(0.000827301 2.00301e-07 7.36664e-08)
(0.000825606 8.63016e-08 5.46423e-08)
(0.000823672 1.33588e-07 4.21003e-08)
(0.000821927 2.07421e-07 -4.54552e-08)
(0.000820282 2.07358e-07 8.10798e-08)
(0.000818437 1.93103e-07 1.68278e-07)
(0.000816857 1.76838e-07 6.67712e-08)
(0.000815007 1.93107e-07 6.43298e-08)
(0.000813737 2.43511e-07 -4.02921e-08)
(0.000812502 1.39735e-08 5.6694e-08)
(0.00081077 -1.42716e-07 1.25931e-08)
(0.000809371 -1.27223e-07 2.89637e-08)
(0.000807215 -4.06761e-07 -5.94832e-08)
(0.000804927 -3.24955e-07 2.4494e-08)
(0.000803899 -3.34613e-07 -7.49082e-09)
(0.000802691 -2.84377e-07 1.3155e-08)
(0.000801009 -1.6997e-07 -5.32208e-08)
(0.00079936 -1.93142e-07 1.72939e-08)
(0.000797675 -1.21089e-07 1.79196e-07)
(0.000796325 -1.63899e-07 2.52152e-08)
(0.000795035 -9.81927e-08 4.9065e-08)
(0.000793411 1.03744e-07 7.40672e-08)
(0.000792054 1.81651e-07 6.11423e-08)
(0.000790963 1.86906e-07 3.67288e-08)
(0.000789164 1.89242e-07 -1.54502e-08)
(0.000787408 1.17195e-07 3.47141e-08)
(0.000785995 -7.42344e-08 6.19123e-08)
(0.000784407 -5.66189e-08 5.26753e-08)
(0.000782863 -2.01974e-07 4.63063e-08)
(0.000781267 -5.27758e-07 -6.81994e-08)
(0.000780481 -7.35674e-07 7.00024e-08)
(0.000779652 -4.84861e-07 9.16316e-08)
(0.000777743 -3.32182e-07 1.30319e-07)
(-0.000858578 -0.0065163 -0.000280437)
(0.000976086 -0.00853974 0.000525213)
(0.00646911 0.00896534 -0.000157961)
(-0.00870745 0.00724767 -0.000155276)
(-0.00324401 0.00505879 0.000488204)
(-0.00249018 -0.000179423 -3.8875e-05)
(-0.000339305 -0.000207881 5.61261e-05)
(0.000401558 -1.31386e-05 1.14191e-05)
(0.000915717 1.8946e-05 -2.52916e-06)
(0.000854888 1.6318e-05 -3.26642e-07)
(0.000853057 1.13526e-05 9.913e-08)
(0.000844028 7.78628e-06 2.20709e-08)
(0.00083964 4.90761e-06 4.39341e-08)
(0.00083603 3.26833e-06 1.34169e-07)
(0.0008333 2.24628e-06 5.23803e-08)
(0.000831042 1.47042e-06 5.31933e-08)
(0.00082906 8.91862e-07 5.22696e-08)
(0.000827091 5.63245e-07 3.7907e-08)
(0.000825235 4.32989e-07 1.53645e-07)
(0.000823711 1.48218e-07 5.57433e-08)
(0.000821933 2.25725e-07 4.55885e-08)
(0.000820066 8.78145e-08 4.69984e-08)
(0.000818531 2.12127e-07 2.9388e-08)
(0.000816966 1.42592e-07 4.76383e-08)
(0.000815467 2.09624e-07 -5.26992e-09)
(0.000813635 3.52345e-07 1.03097e-07)
(0.000811789 -3.81453e-08 4.71055e-08)
(0.000810491 -1.96009e-07 4.58632e-08)
(0.000808429 -6.44631e-07 -4.04211e-08)
(0.000806836 -8.99728e-07 1.20399e-07)
(0.000805986 -5.63589e-07 -8.03201e-08)
(0.000804269 -8.19358e-08 6.65547e-08)
(0.000802576 -2.28748e-08 4.0714e-08)
(0.000801038 -6.20686e-08 7.63413e-08)
(0.000799539 -8.20695e-08 5.68289e-08)
(0.000798032 3.03547e-08 1.21002e-07)
(0.000796447 1.46883e-07 5.14866e-08)
(0.000794965 9.67955e-08 6.1844e-08)
(0.00079347 7.38677e-08 4.80029e-08)
(0.000792041 2.75388e-07 2.77394e-08)
(0.000790613 2.37122e-08 3.10661e-08)
(0.000789037 -2.79945e-07 7.67307e-09)
(0.0007874 -2.40905e-07 6.25831e-08)
(0.00078589 -2.8191e-07 5.64443e-08)
(0.000784513 -1.31438e-07 6.14033e-08)
(0.000782941 -1.91635e-08 5.10189e-08)
(0.000781559 -1.56017e-08 6.0295e-08)
(0.000780401 1.47763e-07 4.60284e-08)
(0.0007791 -2.20845e-07 3.17656e-08)
(0.000778149 -3.10904e-07 5.97328e-08)
(-0.0036051 -0.00472774 -0.000153527)
(0.00963406 -0.00620936 4.63131e-05)
(0.000178781 -0.00035352 0.000710635)
(0.00124161 0.00310559 -0.000332261)
(0.0117174 0.00413172 0.000161358)
(-0.00875676 -0.0102203 -0.000107433)
(0.00063391 -8.57389e-05 9.24259e-07)
(0.000523885 2.8076e-05 6.20543e-08)
(0.000913021 5.56499e-05 -1.85168e-06)
(0.000838475 3.20586e-05 -5.84298e-07)
(0.000843919 1.92906e-05 1.11405e-07)
(0.000837644 1.1715e-05 1.7885e-08)
(0.000835591 7.16733e-06 4.95196e-08)
(0.000833463 4.42042e-06 4.69124e-08)
(0.000831721 2.78637e-06 4.93503e-08)
(0.00083002 1.77377e-06 5.1404e-08)
(0.000828322 1.18289e-06 1.00968e-07)
(0.000826722 8.41954e-07 7.37626e-08)
(0.000825085 6.64452e-07 -1.12084e-07)
(0.000823411 4.81919e-07 4.85225e-08)
(0.000821851 1.72134e-07 4.69114e-08)
(0.000820264 1.03027e-07 5.96263e-08)
(0.000818505 2.54147e-08 6.24036e-08)
(0.000816852 3.04269e-08 4.87027e-08)
(0.000815267 -1.2114e-07 6.08794e-08)
(0.000813426 -2.4904e-07 -1.23656e-07)
(0.000811816 3.94501e-08 3.5553e-08)
(0.000810014 -6.07132e-08 3.40795e-08)
(0.000808497 -1.28022e-07 9.8423e-08)
(0.000807322 4.3603e-07 6.88121e-08)
(0.000805954 4.06671e-07 9.27261e-08)
(0.000804577 1.21226e-07 1.13455e-07)
(0.000802716 5.89288e-08 4.40289e-08)
(0.000800936 1.50647e-07 4.96022e-08)
(0.000799476 7.21605e-08 4.66778e-08)
(0.000797961 -3.70935e-08 2.32617e-08)
(0.000796408 -4.68995e-08 5.71427e-08)
(0.000794943 -1.08419e-07 5.17637e-08)
(0.000793634 6.91374e-09 4.46764e-08)
(0.00079199 -7.20553e-09 7.03087e-08)
(0.000790269 -8.66053e-08 5.09148e-08)
(0.000788835 -8.2197e-08 5.14042e-08)
(0.000787407 -1.4461e-07 2.35024e-08)
(0.000786134 -2.95781e-08 4.92947e-08)
(0.000784737 -6.89007e-09 6.13048e-08)
(0.000783009 1.41793e-07 4.66561e-08)
(0.000781477 4.76373e-07 4.24799e-08)
(0.000780225 3.26677e-07 5.45315e-08)
(0.000779088 1.76303e-07 5.14713e-08)
(0.000778407 -2.35635e-08 5.97154e-08)
(-5.96883e-05 0.000279358 -0.000326127)
(0.0105113 -0.00010074 0.000737007)
(-0.0113153 0.00512421 -0.000416542)
(0.00783111 -0.00433002 0.00718074)
(0.0168463 -0.00135095 -0.00080697)
(0.000586363 0.00457817 -0.000484149)
(0.00186904 3.05488e-05 5.5894e-05)
(0.000474084 0.000107406 5.47257e-07)
(0.000849294 4.19335e-05 -1.35588e-06)
(0.000809023 2.97917e-05 -1.45505e-07)
(0.000827423 1.61566e-05 1.75958e-07)
(0.00082875 1.00066e-05 4.79288e-08)
(0.000830447 6.06233e-06 6.15677e-08)
(0.000830508 3.57134e-06 5.6286e-08)
(0.000829964 2.33565e-06 5.58262e-08)
(0.000829019 1.56588e-06 8.64624e-08)
(0.000827883 1.01079e-06 1.11199e-07)
(0.000826435 5.93235e-07 3.24236e-07)
(0.00082478 4.91615e-07 3.71112e-08)
(0.000823092 3.84514e-07 8.16393e-08)
(0.000821458 2.28877e-07 5.47275e-08)
(0.000819884 5.34928e-08 7.7796e-08)
(0.000818441 -7.24109e-08 5.01596e-08)
(0.000816784 -1.02735e-07 5.30137e-08)
(0.00081512 -1.85828e-07 3.39655e-08)
(0.000813838 -2.63703e-07 4.26762e-08)
(0.000812026 -1.54648e-07 7.10064e-08)
(0.000810282 -3.01187e-08 2.21579e-07)
(0.000809048 2.40236e-07 9.40892e-08)
(0.000807503 3.98923e-07 -1.94358e-08)
(0.000805589 4.72602e-07 7.08164e-09)
(0.000803831 2.60744e-07 9.9832e-08)
(0.000802612 -1.46865e-07 -3.44658e-07)
(0.000801053 -2.19493e-07 6.3649e-08)
(0.000799304 -1.88946e-07 1.23705e-07)
(0.000797883 -1.88164e-07 7.70745e-08)
(0.000796359 -1.78463e-07 5.48986e-08)
(0.000795033 -1.41924e-07 4.73131e-08)
(0.000793597 -2.70196e-07 1.04408e-07)
(0.000791924 -2.75565e-07 4.1097e-08)
(0.00079052 -1.01751e-07 5.93514e-08)
(0.000788965 -4.58739e-08 -1.99303e-08)
(0.000787467 1.9688e-07 4.28959e-08)
(0.000786063 1.37598e-07 4.31181e-08)
(0.000784727 1.44339e-07 4.88379e-08)
(0.000783544 -6.78914e-10 4.23186e-08)
(0.000781787 1.80128e-07 6.94857e-08)
(0.000780023 3.99359e-07 4.29453e-08)
(0.000778661 6.8323e-07 -5.77837e-08)
(0.000777955 4.44834e-07 8.9618e-08)
(-0.00864343 0.00380514 0.000412989)
(-0.00560836 -0.0119387 -0.000298128)
(0.0104352 -0.0160119 0.000873068)
(-0.010532 0.00149252 -0.0013528)
(-0.00593356 0.012688 -0.000923903)
(-0.000891708 -0.000341496 5.36882e-05)
(0.000296076 0.000144255 3.67673e-05)
(0.00076277 3.09555e-05 -1.74908e-06)
(0.000781165 9.66651e-07 -1.56247e-08)
(0.00080619 7.76671e-06 1.35489e-07)
(0.000819012 4.37254e-06 1.3464e-07)
(0.000824919 2.98211e-06 5.78337e-08)
(0.00082748 1.88954e-06 6.66386e-08)
(0.000828763 1.47974e-06 8.07592e-08)
(0.000829189 9.32476e-07 5.76587e-08)
(0.000828347 7.0677e-07 9.0994e-08)
(0.000827095 4.53566e-07 5.09131e-08)
(0.000826066 3.79116e-07 2.30943e-07)
(0.000824819 4.4167e-07 6.11351e-08)
(0.000823079 4.48521e-08 7.12153e-08)
(0.000821435 5.08814e-08 4.78791e-08)
(0.000819887 1.22393e-07 5.92088e-08)
(0.000818311 9.41651e-08 5.60623e-08)
(0.000816713 -3.09711e-08 4.73887e-08)
(0.000815069 -2.76854e-08 7.08336e-08)
(0.000813468 1.85158e-08 7.04237e-08)
(0.000812111 -1.57956e-07 1.64901e-07)
(0.000810508 3.94431e-08 4.60166e-08)
(0.000809031 1.69705e-07 1.06671e-07)
(0.00080761 -1.36326e-07 3.0841e-08)
(0.000805778 -1.70605e-07 -2.79517e-08)
(0.000803801 -1.64693e-07 2.17175e-08)
(0.000802117 -1.84512e-07 -6.37079e-08)
(0.000800885 -5.27477e-07 3.59185e-08)
(0.000799517 -2.42904e-07 3.05825e-07)
(0.000797976 -1.75822e-07 6.96903e-08)
(0.000796467 -1.49626e-07 5.83183e-08)
(0.000794831 -2.09208e-07 4.95127e-08)
(0.000793469 -6.11117e-07 5.86502e-08)
(0.000792203 -2.55372e-07 6.10625e-08)
(0.000790558 -1.56606e-07 5.92393e-08)
(0.000789208 -1.4766e-07 3.25247e-08)
(0.000787636 -1.03393e-07 5.59314e-08)
(0.000786067 3.00012e-07 3.02147e-08)
(0.000784562 8.18549e-08 4.88811e-08)
(0.000783051 3.75243e-08 6.49834e-08)
(0.000781973 -2.99074e-07 2.7246e-08)
(0.000780849 3.98558e-08 2.89526e-08)
(0.00077913 2.32256e-07 -4.74506e-08)
(0.000777 2.67316e-07 6.84351e-08)
(0.0132503 0.000448825 0.000506526)
(0.00420917 -0.0478175 0.000849505)
(0.0182876 0.0126021 -0.00566383)
(-0.0617164 0.0157832 0.010367)
(0.0108256 -0.0209906 -0.00861868)
(-0.00220146 -0.00563705 -0.000835357)
(0.000590342 -0.000266743 2.99824e-05)
(0.00137062 -0.000117183 3.58806e-07)
(0.0013241 -1.41145e-05 3.16886e-07)
(0.00135199 -1.87967e-05 3.62144e-07)
(0.00136595 -8.76872e-06 3.88973e-07)
(0.00137315 -5.67094e-06 2.61789e-07)
(0.00137824 -3.29088e-06 3.03211e-07)
(0.00137967 -1.59567e-06 1.98617e-07)
(0.00137922 -1.12679e-06 3.4699e-07)
(0.00137829 -8.9827e-07 3.02344e-07)
(0.00137676 -5.76347e-07 3.47943e-07)
(0.00137501 -1.9641e-07 3.65343e-07)
(0.00137166 -8.17717e-07 3.66212e-07)
(0.00136877 -4.09454e-07 3.48941e-07)
(0.001367 -1.15273e-07 3.34292e-07)
(0.00136428 8.31416e-08 6.2367e-08)
(0.00136149 1.63557e-07 2.86059e-07)
(0.00135887 1.70029e-07 2.9815e-07)
(0.00135643 5.06748e-07 3.5426e-07)
(0.00135388 6.47064e-07 3.679e-07)
(0.00135124 4.18763e-07 3.48515e-07)
(0.00134903 1.26156e-07 3.51213e-07)
(0.00134589 1.4979e-07 2.95418e-07)
(0.00134296 -2.98726e-07 3.50678e-07)
(0.00134042 -9.39695e-07 4.08431e-07)
(0.00133745 -9.11088e-07 1.80147e-07)
(0.00133483 -6.17315e-07 3.59096e-07)
(0.00133298 8.14859e-08 4.38206e-07)
(0.00133085 1.49602e-07 3.27599e-07)
(0.00132792 1.92739e-07 3.29852e-07)
(0.00132511 2.14149e-07 3.31049e-07)
(0.00132205 4.27679e-07 3.38997e-07)
(0.00132043 1.02181e-06 3.15538e-07)
(0.00131867 4.3389e-07 4.14348e-07)
(0.00131569 5.36341e-08 2.92747e-07)
(0.00131297 -4.48752e-08 3.04893e-07)
(0.00131135 -6.21635e-07 3.0706e-07)
(0.0013085 -6.33736e-07 2.07427e-07)
(0.00130536 -3.39651e-07 3.37437e-07)
(0.00130312 -1.52877e-07 2.16201e-07)
(0.00130091 4.60009e-08 2.85717e-07)
(0.00129907 -2.36487e-07 3.20083e-07)
(0.00129612 -6.05582e-07 3.5189e-07)
(0.00129337 -4.9225e-07 2.37574e-07)
(0.00106893 -0.00410592 -0.00138052)
(0.000782911 -0.0034441 0.000689331)
(0.0124303 -0.00340272 0.00141232)
(0.00142912 -0.0364427 -0.0262666)
(0.00968658 -0.00454831 0.00203858)
(0.0358352 0.0040421 -0.00134929)
(0.00121291 -0.000274847 3.87316e-05)
(0.00132584 -0.000121697 -8.57902e-08)
(0.00144903 -4.69382e-05 4.1642e-07)
(0.00134981 -4.19967e-05 3.38298e-07)
(0.00137974 -2.34456e-05 3.45216e-07)
(0.00137965 -1.46865e-05 3.45225e-07)
(0.00138202 -8.93777e-06 3.45975e-07)
(0.00138167 -5.86402e-06 3.44693e-07)
(0.00138054 -3.65429e-06 3.46004e-07)
(0.00137901 -2.49143e-06 3.28119e-07)
(0.00137715 -1.68039e-06 3.45592e-07)
(0.00137421 -1.52784e-06 3.23773e-07)
(0.00137216 -1.22295e-06 4.24408e-07)
(0.00137038 -5.0645e-07 3.16689e-07)
(0.0013673 -2.67568e-07 3.89553e-07)
(0.00136452 -2.15521e-07 3.45817e-07)
(0.00136174 2.69679e-07 3.75493e-07)
(0.00135939 4.42152e-07 3.25164e-07)
(0.00135681 8.29063e-07 6.85607e-08)
(0.00135352 1.52332e-07 4.28348e-07)
(0.00135074 -2.98497e-08 4.42192e-07)
(0.00134836 -3.85602e-07 3.3828e-07)
(0.00134572 -1.17558e-06 3.61813e-07)
(0.00134251 -9.56391e-07 3.65573e-07)
(0.00134004 -6.22612e-07 1.32113e-07)
(0.00133793 -2.68531e-07 2.83994e-07)
(0.00133598 7.32213e-07 4.85404e-07)
(0.00133365 1.00726e-06 4.39516e-07)
(0.00133056 4.42492e-07 3.36692e-07)
(0.00132796 3.52748e-07 2.62925e-07)
(0.00132566 4.01375e-07 3.18497e-07)
(0.0013236 6.79043e-07 1.31852e-07)
(0.00132031 1.18235e-06 3.54022e-07)
(0.00131706 6.25901e-07 7.03206e-07)
(0.00131496 2.74295e-07 3.45299e-07)
(0.00131247 -2.50453e-08 3.34874e-07)
(0.00130994 7.71961e-08 2.52876e-07)
(0.00130841 -6.1416e-07 5.34906e-07)
(0.00130625 -9.12203e-08 3.64546e-07)
(0.00130358 -9.09081e-08 3.47601e-07)
(0.00130116 4.72645e-07 3.19763e-07)
(0.00129848 7.38833e-08 2.56389e-07)
(0.00129608 -2.11522e-07 8.47404e-08)
(0.0012943 -3.0321e-07 4.08194e-07)
(-0.00268124 -0.00212899 0.000428721)
(-0.0091357 0.00204607 -0.000553758)
(-0.00326936 -0.00373694 0.000112962)
(-0.0168445 -0.0466734 -0.0173054)
(0.0304385 -0.00753559 0.00940027)
(-0.00395617 0.0204606 -0.00140755)
(-0.000411084 -0.000362623 3.32504e-05)
(0.00143344 -0.000184493 4.05077e-07)
(0.0015197 -7.9127e-05 -2.91744e-07)
(0.00138195 -4.61877e-05 3.43743e-07)
(0.00140026 -2.92118e-05 3.5116e-07)
(0.0013914 -1.8245e-05 3.48447e-07)
(0.00138933 -1.15545e-05 3.47439e-07)
(0.00138631 -7.3328e-06 3.47813e-07)
(0.00138347 -4.56858e-06 3.4722e-07)
(0.00138078 -2.82695e-06 3.44772e-07)
(0.00137798 -1.86932e-06 3.47191e-07)
(0.00137559 -1.31972e-06 3.76459e-07)
(0.00137294 -6.95425e-07 2.53374e-07)
(0.00136997 -5.58782e-07 3.31601e-07)
(0.00136737 -5.30153e-07 4.07987e-07)
(0.00136495 -3.24116e-07 3.39733e-07)
(0.00136231 -3.3626e-07 3.47716e-07)
(0.00135957 -2.1792e-07 3.31972e-07)
(0.00135606 -9.28484e-07 3.15399e-07)
(0.0013528 -3.76708e-07 3.90981e-07)
(0.00135057 -2.30323e-07 3.68191e-07)
(0.0013476 -1.16174e-07 3.3363e-07)
(0.00134519 -1.58588e-07 2.12213e-07)
(0.00134366 3.79068e-07 2.06946e-07)
(0.00134129 8.07215e-07 4.99197e-07)
(0.00133915 8.75589e-07 4.78868e-07)
(0.00133642 7.5434e-07 2.23986e-07)
(0.00133261 3.25788e-07 1.85134e-07)
(0.00133003 1.54811e-07 3.77841e-07)
(0.00132787 1.9784e-07 3.42159e-07)
(0.00132551 1.73232e-07 2.87215e-07)
(0.00132302 -1.91232e-08 3.57219e-07)
(0.00132036 -3.4238e-07 3.14124e-07)
(0.00131753 -1.20287e-07 4.44485e-07)
(0.00131488 1.80489e-08 3.36839e-07)
(0.00131272 5.02659e-09 3.01789e-07)
(0.00131062 7.05628e-07 5.13194e-07)
(0.00130829 7.70037e-07 2.86662e-07)
(0.00130602 5.45847e-07 2.78986e-07)
(0.00130382 5.28204e-07 4.21095e-07)
(0.00130111 5.25663e-07 4.4636e-07)
(0.00129821 6.78058e-07 3.55128e-07)
(0.00129566 3.80884e-07 2.8008e-07)
(0.00129401 2.17725e-07 4.49738e-07)
(0.0049724 -0.00338223 0.000112479)
(0.00297838 -0.00654765 2.868e-05)
(-0.00559992 0.0105106 0.000712848)
(-0.00835095 -0.00335635 -0.00356583)
(-0.00889859 -0.00332326 0.00170679)
(0.00121608 0.00763595 -0.00426223)
(0.00159599 0.00241667 -2.77067e-05)
(0.00152824 -0.0002056 1.26007e-05)
(0.0015099 -4.76514e-05 3.06059e-07)
(0.00141263 -3.20446e-05 2.66461e-07)
(0.00141495 -2.17746e-05 3.54509e-07)
(0.0014019 -1.41039e-05 3.19393e-07)
(0.00139577 -9.49808e-06 3.24664e-07)
(0.00139048 -5.97405e-06 3.48833e-07)
(0.00138622 -3.5784e-06 3.47227e-07)
(0.00138241 -2.16024e-06 3.46354e-07)
(0.00137905 -1.49633e-06 3.58803e-07)
(0.00137569 -8.51221e-07 3.89736e-07)
(0.00137312 -7.67086e-07 2.74091e-07)
(0.0013706 -6.67503e-07 3.1258e-07)
(0.00136759 -4.75204e-07 3.75526e-07)
(0.00136477 -4.99395e-07 3.4325e-07)
(0.00136187 -7.36625e-07 1.26188e-07)
(0.00135865 -6.78909e-07 3.90535e-07)
(0.00135662 -8.74423e-07 3.49497e-07)
(0.0013544 -1.44231e-07 4.89749e-07)
(0.00135106 2.55571e-07 4.03383e-07)
(0.00134845 6.95552e-07 3.77809e-07)
(0.00134634 1.37417e-06 3.24287e-07)
(0.00134372 1.1865e-06 3.18763e-07)
(0.00134065 8.0463e-07 3.95434e-07)
(0.00133785 9.79503e-07 2.44019e-07)
(0.00133528 9.6831e-08 3.27125e-07)
(0.0013329 -5.9806e-08 3.32437e-07)
(0.0013304 1.63928e-07 2.2e-07)
(0.00132798 1.68227e-07 3.19525e-07)
(0.00132539 1.52777e-07 3.21883e-07)
(0.00132295 -3.99029e-08 3.24207e-07)
(0.00132018 -4.27822e-07 1.97484e-07)
(0.00131751 -4.67134e-07 2.92487e-07)
(0.00131511 -1.55472e-07 3.26693e-07)
(0.00131332 1.47248e-07 3.00348e-07)
(0.00131089 1.94983e-07 5.07546e-07)
(0.00130821 3.05729e-07 2.82679e-07)
(0.00130594 3.88554e-08 2.9271e-07)
(0.00130355 5.25016e-08 3.258e-07)
(0.00130134 1.96276e-08 3.72707e-07)
(0.00129829 4.34109e-07 3.06022e-07)
(0.00129549 2.79183e-07 3.43805e-07)
(0.00129356 4.25206e-07 5.40859e-07)
(-0.00615654 -0.00373603 -0.000238582)
(0.0210473 0.00401683 0.000847441)
(0.031705 0.0229592 0.0028547)
(0.00141413 0.000850558 0.0023359)
(0.0214903 -0.00940609 0.00105867)
(-0.0175794 0.0118027 -0.000890439)
(-0.000866184 0.000154223 5.70873e-05)
(0.0012279 -2.60207e-05 5.38256e-05)
(0.00154775 -1.24893e-05 5.73704e-07)
(0.00141469 -1.4489e-05 4.34124e-07)
(0.00142296 -9.51749e-06 3.74141e-07)
(0.00140691 -6.77763e-06 3.78884e-07)
(0.0013996 -4.06318e-06 5.27393e-07)
(0.00139378 -2.86589e-06 3.50017e-07)
(0.00138827 -2.14566e-06 3.20116e-07)
(0.00138341 -1.45203e-06 3.26544e-07)
(0.00137963 -8.12926e-07 3.45935e-07)
(0.00137651 -5.0217e-07 3.42302e-07)
(0.00137318 -5.53176e-08 4.8518e-07)
(0.00137034 7.44404e-08 2.71929e-07)
(0.00136759 -1.29274e-07 3.76679e-07)
(0.00136463 6.29371e-08 3.16785e-07)
(0.00136209 3.82307e-08 3.59988e-07)
(0.0013594 6.21392e-08 3.87325e-07)
(0.00135674 4.9223e-07 2.81844e-07)
(0.00135422 -3.34227e-07 4.2676e-07)
(0.00135162 1.75453e-07 3.92264e-07)
(0.00134899 3.98464e-07 3.5049e-07)
(0.00134579 6.96612e-07 5.148e-07)
(0.00134293 7.35908e-07 2.61801e-07)
(0.00134102 3.04542e-07 -1.6786e-07)
(0.00133825 -2.32585e-07 2.873e-07)
(0.00133511 1.95294e-07 3.12491e-07)
(0.00133269 1.02369e-07 3.31121e-07)
(0.00133031 1.76228e-07 3.3428e-07)
(0.00132785 -8.97302e-08 3.27072e-07)
(0.00132525 -3.10721e-07 4.37181e-07)
(0.00132229 -3.04258e-07 2.60201e-07)
(0.00131983 -3.18789e-07 3.24258e-07)
(0.00131788 -2.42751e-07 1.67406e-07)
(0.00131564 9.87565e-08 4.50409e-07)
(0.00131316 5.99367e-07 4.55876e-07)
(0.00131081 1.64462e-08 1.31056e-07)
(0.00130809 1.28013e-07 -3.32608e-07)
(0.0013057 -2.55456e-07 3.16669e-07)
(0.0013038 -4.00472e-07 3.24467e-07)
(0.00130159 -9.12237e-07 1.13366e-07)
(0.00129854 -1.39441e-06 2.81553e-07)
(0.00129564 -5.35513e-07 3.40509e-07)
(0.00129314 6.7838e-08 3.35843e-07)
(-0.00857133 0.00102123 0.000745655)
(-0.00507623 -0.00358274 -0.00131071)
(-0.00943795 0.0063456 -0.000559844)
(-0.0011871 -0.00430696 -9.953e-06)
(0.00878926 -0.000369976 0.00115411)
(-0.0117932 0.0056012 0.000508813)
(0.000647126 0.00122278 -4.78364e-05)
(0.00126112 -6.47802e-05 6.219e-05)
(0.00154756 -5.74503e-06 5.51305e-07)
(0.00141633 3.92941e-06 3.76779e-07)
(0.00142477 3.32329e-06 3.15398e-07)
(0.00140883 2.73877e-06 3.57695e-07)
(0.00140073 2.37293e-06 4.00457e-07)
(0.00139292 1.41966e-06 3.50015e-07)
(0.00138801 6.46961e-07 4.7294e-07)
(0.0013841 2.96601e-07 3.67553e-07)
(0.00138025 3.10715e-07 3.46284e-07)
(0.00137664 2.81487e-07 3.86395e-07)
(0.00137385 1.50683e-07 3.37361e-07)
(0.00137051 3.21035e-07 3.67221e-07)
(0.00136758 4.16547e-07 2.31976e-07)