/*--------------------------------*- C++ -*----------------------------------*\
| =========                 |                                                 |
| \\      /  F ield         | OpenFOAM: The Open Source CFD Toolbox           |
|  \\    /   O peration     | Version:  5.0                                   |
|   \\  /    A nd           | Web:      www.OpenFOAM.org                      |
|    \\/     M anipulation  |                                                 |
\*---------------------------------------------------------------------------*/
FoamFile
{
    version     2.0;
    format      ascii;
    class       volVectorField;
    location    "3.4";
    object      U_0;
}
// * * * * * * * * * * * * * * * * * * * * * * * * * * * * * * * * * * * * * //

dimensions      [0 1 -1 0 0 0 0];

internalField   nonuniform List<vector> 
8437
(
(0.00672001 -0.00611865 -0.0006193)
(0.00632871 0.00327101 -8.28338e-06)
(-0.008058 0.000956364 -0.000786647)
(-2.77414e-06 -0.0120675 0.00249694)
(-0.0057974 -0.0116149 -5.46822e-06)
(0.00213818 0.000577768 -2.79566e-05)
(0.000334463 -2.03592e-05 2.30318e-05)
(0.000804643 -3.75405e-05 -1.53549e-06)
(0.000772064 3.06676e-06 -2.9598e-07)
(0.000792187 -6.26455e-06 8.44933e-08)
(0.000803712 -3.02776e-06 9.52737e-08)
(0.000810482 -2.37491e-06 5.84898e-08)
(0.000815278 -1.47132e-06 7.50711e-09)
(0.000817554 -7.46854e-07 9.10107e-08)
(0.000818023 -4.41364e-07 4.98527e-08)
(0.000817939 -3.10488e-07 2.43818e-07)
(0.000817398 -2.92845e-07 5.48192e-08)
(0.000816426 -1.25831e-07 7.99648e-08)
(0.00081489 8.27176e-09 4.70941e-08)
(0.000813382 -2.90923e-07 2.09188e-07)
(0.000812274 -1.74805e-07 5.3764e-08)
(0.000810754 1.35924e-08 5.70392e-08)
(0.000809249 -7.29676e-09 6.92892e-08)
(0.000807857 2.49027e-08 4.70861e-08)
(0.00080627 2.38825e-07 2.17973e-10)
(0.000804693 2.86809e-07 6.44429e-08)
(0.000803379 1.7967e-07 6.33953e-08)
(0.000802111 1.07611e-07 4.74425e-08)
(0.000800302 2.32486e-07 6.43596e-08)
(0.000798759 -2.28254e-07 2.00559e-07)
(0.000797261 -7.63416e-07 -8.58808e-08)
(0.000795316 -6.42581e-07 -1.01448e-08)
(0.000794127 -4.82139e-07 8.92502e-08)
(0.000793265 -2.14266e-07 5.45687e-08)
(0.000791772 7.83128e-08 3.56714e-08)
(0.00079007 3.82623e-08 4.51417e-08)
(0.000788609 1.37789e-08 1.5514e-07)
(0.000787151 1.06422e-07 1.1188e-08)
(0.000785707 3.51529e-07 5.94416e-08)
(0.000784591 4.41709e-07 6.56291e-08)
(0.000783363 7.63479e-08 3.03009e-08)
(0.000781786 6.79404e-08 7.30144e-08)
(0.000780846 -4.61489e-07 1.05728e-07)
(0.000779471 -3.04544e-07 2.46092e-07)
(0.000777733 -8.52921e-08 3.7411e-08)
(0.000776309 -1.61798e-07 4.02553e-08)
(0.000774936 -2.34027e-07 6.6651e-08)
(0.000773707 -4.74413e-07 6.53074e-08)
(0.000772001 -2.91996e-07 -2.37197e-08)
(0.000770238 -2.15223e-07 7.33627e-08)
(0.00376793 -0.000134897 -0.000725572)
(0.014222 -0.00690222 0.000419067)
(-0.00243036 0.0147077 -0.000268236)
(-0.0189378 0.00535981 -0.000976645)
(-0.0264381 -0.0200144 -0.000574302)
(0.000812557 -0.0103765 0.000127936)
(0.00024236 -3.79061e-05 3.54188e-05)
(0.000406289 -2.95085e-05 -5.59322e-07)
(0.000829798 -2.97257e-05 -9.77221e-07)
(0.000785139 -2.83982e-05 -4.72117e-07)
(0.000809941 -1.70727e-05 1.75348e-07)
(0.00081391 -1.11001e-05 4.00158e-08)
(0.00081764 -6.917e-06 5.49566e-08)
(0.000818812 -4.45984e-06 4.89971e-08)
(0.000819069 -2.87076e-06 5.124e-08)
(0.000818512 -1.79055e-06 1.08075e-07)
(0.000817652 -1.18741e-06 5.35022e-08)
(0.000816729 -8.99223e-07 7.06012e-08)
(0.000815195 -6.74381e-07 7.78082e-08)
(0.000813634 -3.22873e-07 2.48074e-08)
(0.000812295 -1.17469e-07 8.40221e-08)
(0.000810773 -7.29008e-08 2.00097e-08)
(0.000809206 1.91899e-07 2.92316e-08)
(0.00080789 2.30579e-07 9.83983e-08)
(0.000806523 1.60808e-07 6.14334e-08)
(0.00080486 9.80842e-08 7.5248e-08)
(0.000803243 -2.43187e-08 1.24083e-07)
(0.000801884 -2.47875e-07 4.44597e-08)
(0.000800029 -8.31121e-07 1.22285e-08)
(0.000797859 -5.63713e-07 7.26252e-08)
(0.000796866 -7.287e-07 1.7302e-07)
(0.000796049 -4.04864e-07 5.86066e-08)
(0.000794728 2.54489e-07 2.04152e-07)
(0.000793521 3.96738e-07 2.30161e-07)
(0.000791817 -3.30744e-08 4.65025e-08)
(0.000790024 -1.03384e-08 5.4389e-08)
(0.000788801 1.31669e-07 4.44213e-08)
(0.000787528 1.89144e-07 5.57062e-08)
(0.000786041 3.35562e-07 3.78131e-08)
(0.000784377 4.60702e-07 6.05262e-08)
(0.000782933 2.46666e-07 5.62321e-08)
(0.00078162 1.04286e-07 1.70021e-08)
(0.000780312 -4.37398e-09 7.1648e-08)
(0.000779283 -2.25102e-07 9.77762e-08)
(0.000777778 -1.42488e-07 5.53083e-08)
(0.000776231 -1.41693e-07 5.58854e-08)
(0.000774955 3.30227e-08 8.1765e-08)
(0.000773583 -1.53143e-07 4.60634e-08)
(0.000772003 -3.66463e-07 8.517e-08)
(0.000770975 -2.35826e-07 3.0933e-08)
(-0.00178139 0.00738033 -5.13977e-05)
(-0.00101192 -0.000528366 -0.000250506)
(0.00236398 -0.00973198 0.000154556)
(-0.00856422 -0.0169679 0.00229876)
(-0.000108176 0.0073761 0.00140353)
(0.012993 0.0038041 0.000398446)
(0.00126783 -0.000248708 8.53951e-05)
(0.000433962 -7.78342e-05 -8.3035e-07)
(0.000875832 -7.29357e-05 -1.74889e-06)
(0.00080839 -4.32026e-05 -5.12717e-07)
(0.000825432 -2.69649e-05 1.81321e-07)
(0.000823236 -1.67144e-05 3.07941e-08)
(0.000823618 -1.05048e-05 5.56774e-08)
(0.000822637 -6.63044e-06 5.28326e-08)
(0.000821376 -4.16487e-06 5.36219e-08)
(0.000820055 -2.68429e-06 5.47774e-08)
(0.00081852 -1.69365e-06 5.04054e-08)
(0.000817073 -1.17339e-06 7.63619e-08)
(0.000815615 -1.1667e-06 1.21442e-07)
(0.000814081 -7.17475e-07 4.37082e-08)
(0.000812587 -5.12358e-07 8.02318e-08)
(0.00081114 -2.59269e-07 4.67029e-08)
(0.000809626 -1.61768e-07 6.25874e-08)
(0.000807815 -3.87209e-08 -1.8493e-08)
(0.000806102 -1.86387e-07 5.27466e-08)
(0.000804459 -9.65293e-08 1.52389e-08)
(0.000802947 -2.10968e-07 5.59817e-08)
(0.000801106 -2.10938e-07 7.03663e-08)
(0.000799912 -2.8366e-07 -8.60061e-08)
(0.000798894 3.00021e-07 8.56125e-08)
(0.000797465 7.91914e-07 7.44694e-08)
(0.000796546 6.68857e-07 6.39829e-08)
(0.000795128 3.83387e-07 3.08949e-07)
(0.000792902 2.34618e-07 1.24779e-07)
(0.000791261 -9.8515e-08 8.60467e-08)
(0.000790275 3.19758e-08 4.09474e-08)
(0.000788856 8.10574e-08 5.48729e-08)
(0.000787403 1.0331e-08 4.60404e-08)
(0.000786043 5.92431e-08 4.17825e-08)
(0.000784477 -5.45388e-08 4.93101e-08)
(0.000782916 7.53241e-08 2.37794e-08)
(0.000781472 1.06799e-07 6.64835e-08)
(0.000780436 2.87602e-07 3.97031e-09)
(0.000779301 5.22945e-08 1.06946e-07)
(0.00077784 4.3447e-08 8.43447e-08)
(0.000776529 1.51686e-07 5.41117e-08)
(0.000774922 2.8296e-07 5.78193e-08)
(0.000773208 1.39477e-07 7.47218e-08)
(0.000771904 7.70902e-08 6.02736e-08)
(0.000770989 6.71882e-08 8.41306e-08)
(0.00406561 -0.000458089 0.00017482)
(0.00333073 -0.0021163 0.000124483)
(-0.0062891 -0.000902894 0.000758787)
(0.0078515 -0.00238619 -0.00146369)
(-0.00240343 0.00927551 0.00234629)
(-0.00128365 0.00444585 0.000125281)
(0.000490049 0.000192672 -8.89025e-06)
(0.000303209 -5.42573e-05 1.79129e-06)
(0.00090059 -6.60277e-05 -1.97777e-06)
(0.000842958 -4.02873e-05 -3.37899e-07)
(0.000843236 -2.5071e-05 1.43432e-07)
(0.000834601 -1.541e-05 -1.08648e-07)
(0.000830317 -9.83342e-06 -5.38132e-08)
(0.000826782 -6.08292e-06 5.40917e-08)
(0.00082403 -3.73941e-06 5.13503e-08)
(0.00082162 -2.29026e-06 5.03061e-08)
(0.000819552 -1.49695e-06 5.89757e-08)
(0.000817397 -8.72875e-07 -1.3403e-08)
(0.000815772 -7.14149e-07 6.75906e-08)
(0.000814458 -8.40339e-07 3.55579e-08)
(0.000812872 -4.9593e-07 -1.81597e-07)
(0.000811213 -3.30208e-07 4.82072e-08)
(0.000809483 -3.7183e-07 3.00183e-08)
(0.000807861 -3.23088e-07 7.39572e-08)
(0.000806452 -1.94334e-07 2.70282e-07)
(0.000804832 -1.11918e-07 5.26103e-08)
(0.000803101 1.27262e-07 6.18549e-08)
(0.000801795 2.59164e-07 7.63691e-08)
(0.000800668 8.66449e-07 5.25512e-08)
(0.0007992 6.22294e-07 6.71698e-08)
(0.000797322 7.63691e-07 1.04063e-08)
(0.000795532 7.13899e-07 -5.87803e-08)
(0.000794181 2.27757e-07 4.68711e-08)
(0.000792917 -5.13825e-08 5.27443e-08)
(0.000791563 1.96406e-07 5.3802e-08)
(0.000790248 1.31795e-07 4.76975e-08)
(0.000788774 -2.43202e-09 1.21373e-07)
(0.000787501 -6.05036e-08 5.72949e-08)
(0.00078596 -2.79926e-07 1.22127e-08)
(0.000784397 -2.03983e-07 3.90911e-08)
(0.000783135 -6.48717e-08 4.94481e-08)
(0.000781883 3.95196e-08 6.26448e-08)
(0.000780241 1.22415e-07 1.12589e-07)
(0.000778974 1.73442e-07 -5.75461e-08)
(0.000777899 1.03423e-08 4.73837e-08)
(0.000776528 -2.51553e-08 4.02122e-08)
(0.000774936 -8.07915e-08 7.94174e-08)
(0.000773323 5.86053e-08 2.04085e-08)
(0.000771909 2.65749e-07 4.33007e-08)
(0.000770795 2.29245e-07 4.8541e-08)
(-0.00148848 -0.00509349 -0.000118198)
(0.0214033 -4.49982e-05 0.000296341)
(0.00899737 0.00645166 0.000443594)
(-0.00223054 -0.000762409 -0.000283023)
(0.00743741 -0.00698677 -0.0011631)
(0.000402653 -0.00704896 7.35817e-05)
(0.00141503 -0.000282054 2.34762e-05)
(0.000532981 -3.66158e-05 3.18343e-05)
(0.000950788 -3.1635e-05 -1.29527e-06)
(0.000859973 -2.23378e-05 -5.446e-07)
(0.000856721 -1.3514e-05 1.91828e-07)
(0.000842404 -8.66539e-06 1.01417e-07)
(0.000835351 -5.11315e-06 1.14361e-07)
(0.000830301 -3.28053e-06 5.55532e-08)
(0.000826146 -2.12394e-06 5.02969e-08)
(0.000822875 -1.32439e-06 5.27231e-08)
(0.000820303 -7.70751e-07 5.00747e-08)
(0.000818059 -4.71331e-07 4.51311e-08)
(0.000815661 7.95796e-08 6.81349e-08)
(0.000814359 4.33751e-07 1.0747e-07)
(0.000813229 -1.28111e-07 7.04234e-08)
(0.000811299 -1.50995e-08 3.73968e-08)
(0.000809638 3.0073e-08 2.18886e-07)
(0.000808041 7.1496e-08 9.62221e-08)
(0.000806369 1.53162e-07 8.7749e-08)
(0.000804863 -1.01734e-07 7.64847e-09)
(0.000803409 1.00335e-07 6.96025e-08)
(0.000802025 1.66951e-07 3.43811e-08)
(0.000800359 1.62117e-07 3.6966e-09)
(0.000798758 5.26447e-08 2.49485e-08)
(0.000797571 -4.73489e-08 4.10692e-08)
(0.000795871 -2.20491e-07 3.26246e-08)
(0.000794168 1.31418e-07 4.36994e-08)
(0.000792861 9.60635e-08 5.02857e-08)
(0.000791489 1.83503e-07 7.50493e-08)
(0.000790025 6.72601e-08 4.9077e-08)
(0.000788616 5.55873e-08 5.97829e-08)
(0.000787057 1.77043e-08 6.90249e-08)
(0.000785865 -1.17315e-07 9.85507e-08)
(0.000784747 -8.07347e-09 7.84577e-08)
(0.000783221 8.87591e-08 6.16146e-08)
(0.000781705 1.24605e-07 3.7701e-07)
(0.000780601 1.35902e-07 5.71997e-08)
(0.000779158 2.05275e-07 5.85811e-08)
(0.00077759 -4.5497e-08 6.53894e-08)
(0.000776415 -1.77398e-07 4.72507e-08)
(0.000775027 -4.23293e-07 -3.38392e-08)
(0.000773641 -3.43488e-07 -9.09542e-09)
(0.000772111 -2.07852e-07 1.55926e-07)
(0.000770373 1.1467e-07 9.3721e-08)
(-0.00768159 -0.0012711 0.000334625)
(-0.00369058 0.0010839 -0.000107334)
(-0.000781028 0.00506758 0.00116637)
(-0.00630835 0.00210395 -9.8517e-05)
(-0.0157812 0.00163672 0.000730449)
(-0.000792838 -0.00407534 0.000191446)
(0.00113551 -0.000203138 -6.55568e-06)
(0.000560788 -5.90135e-06 4.07179e-05)
(0.00095889 1.99756e-06 -1.39022e-06)
(0.000865709 4.80859e-06 -4.92916e-07)
(0.000860463 3.08301e-06 1.91415e-07)
(0.000845184 2.09819e-06 1.7386e-07)
(0.0008371 1.66101e-06 7.8574e-08)
(0.000830551 9.97628e-07 4.41502e-08)
(0.000826496 5.66742e-07 1.2024e-07)
(0.000823325 2.90392e-07 1.00813e-07)
(0.000820627 2.15244e-07 5.15139e-08)
(0.000818464 2.04849e-07 6.98804e-08)
(0.000816904 2.93346e-07 1.74825e-08)
(0.000814198 7.67284e-07 3.98069e-08)
(0.00081231 7.16676e-07 1.22205e-07)
(0.000811412 3.57324e-07 3.17852e-07)
(0.000809591 2.36258e-07 5.79394e-08)
(0.000808014 1.35648e-07 6.67048e-08)
(0.000806236 4.73273e-08 6.00378e-08)
(0.000804765 1.35222e-07 9.85672e-08)
(0.000803437 -5.37811e-09 1.46096e-07)
(0.00080187 -1.19973e-07 1.71619e-08)
(0.000800523 -1.50377e-07 4.55939e-08)
(0.000798937 -2.82983e-07 -2.62561e-08)
(0.00079698 -4.42181e-07 -1.62629e-08)
(0.000795755 -2.84033e-07 1.85601e-07)
(0.000794576 -2.46618e-07 1.40009e-08)
(0.00079298 -1.07767e-07 5.50117e-08)
(0.000791526 -1.19305e-07 5.3482e-08)
(0.000790087 2.40705e-08 5.17333e-08)
(0.000788712 7.36036e-08 5.10437e-08)
(0.000787286 1.89638e-07 4.63933e-08)
(0.000785929 3.17874e-07 1.06828e-07)
(0.000784655 1.59615e-07 6.84107e-08)
(0.0007833 2.01783e-07 8.11996e-08)
(0.000781941 3.69211e-07 2.19416e-07)
(0.000780341 2.47684e-07 3.81343e-08)
(0.000778748 -5.50574e-08 3.81067e-08)
(0.000777422 -2.33258e-08 4.50744e-08)
(0.000776058 -1.82184e-07 4.74466e-08)
(0.000774733 -4.95067e-07 -3.3967e-07)
(0.000773596 -5.35933e-07 5.91422e-08)
(0.000772483 -4.84407e-07 9.75978e-08)
(0.000770911 -1.95968e-07 1.93941e-07)
(-0.00100312 -0.00726909 -0.000280346)
(0.00121359 -0.00883519 0.000531075)
(0.00584408 0.00912876 -0.000247758)
(-0.00852193 0.00659477 -0.000154236)
(-0.0032026 0.00506839 0.000436633)
(-0.00231904 -0.00013244 -3.27274e-05)
(-0.000115478 -0.000123294 5.64435e-05)
(0.000434427 4.67473e-06 1.08942e-05)
(0.000929765 5.37458e-05 -2.52492e-06)
(0.000861307 3.38233e-05 -3.73245e-07)
(0.000853355 2.06238e-05 1.06787e-07)
(0.000840638 1.28614e-05 2.35001e-08)
(0.000833982 7.70683e-06 4.23243e-08)
(0.000828937 4.86461e-06 4.92305e-08)
(0.000825264 3.08589e-06 5.02969e-08)
(0.000822438 1.90588e-06 5.16626e-08)
(0.000820197 1.13898e-06 5.21673e-08)
(0.000818156 7.29946e-07 4.45395e-08)
(0.000816362 2.77348e-07 8.44651e-08)
(0.000814884 -7.68003e-08 6.11054e-08)
(0.000812713 5.4574e-07 -1.17415e-08)
(0.000810695 2.9229e-07 4.41822e-08)
(0.000809359 2.39741e-07 -1.14626e-08)
(0.000807803 1.15094e-07 4.5727e-08)
(0.000806367 1.3349e-07 2.99539e-08)
(0.000804796 2.64724e-07 1.72795e-07)
(0.00080309 4.12354e-08 4.50123e-08)
(0.000801845 -5.31243e-09 6.77983e-08)
(0.000800158 -3.14119e-07 7.91465e-08)
(0.000798396 -5.8774e-07 3.67253e-08)
(0.000797574 -1.82071e-07 1.45951e-07)
(0.000796119 5.96982e-08 5.85838e-08)
(0.000794391 4.05492e-09 3.9751e-08)
(0.000793023 -2.76395e-08 2.38377e-08)
(0.000791655 -4.98989e-08 3.76679e-08)
(0.000790267 1.92433e-08 5.15489e-08)
(0.000788823 6.01134e-08 4.9777e-08)
(0.000787361 4.76601e-08 6.83946e-08)
(0.000785826 1.45024e-07 5.26961e-08)
(0.0007846 2.3795e-07 4.54856e-08)
(0.000783481 5.47841e-09 6.29874e-08)
(0.000781761 -2.14091e-07 -2.8695e-08)
(0.00078007 -1.84613e-07 5.98154e-08)
(0.000778819 -1.27897e-07 5.58958e-08)
(0.000777433 -6.99931e-08 7.9358e-09)
(0.000775828 -9.69582e-09 4.9886e-08)
(0.000774589 -3.86915e-08 1.72458e-09)
(0.000773659 -3.27864e-07 6.56282e-08)
(0.000772545 -2.33093e-07 2.2428e-08)
(0.000771221 -3.15179e-07 8.1177e-08)
(-0.00361068 -0.00511263 -0.000165205)
(0.00980671 -0.00740597 2.81032e-05)
(-0.00192228 -0.00153206 0.00133387)
(0.00112009 0.00189032 -0.000308522)
(0.00853137 0.00379594 9.23758e-05)
(-0.00339457 -0.00808188 -0.00013874)
(0.000701521 0.000546033 9.72235e-08)
(0.000507195 9.35036e-05 7.07977e-07)
(0.00088849 8.58581e-05 -1.61816e-06)
(0.000824053 4.97015e-05 -5.32946e-07)
(0.000834137 2.9795e-05 1.40657e-07)
(0.000828964 1.80367e-05 2.06607e-08)
(0.000827058 1.09837e-05 5.06882e-08)
(0.000824747 6.7282e-06 4.54505e-08)
(0.000822779 4.15524e-06 4.74379e-08)
(0.000820879 2.63034e-06 5.09403e-08)
(0.00081915 1.77227e-06 1.2613e-07)
(0.000817383 1.18141e-06 7.5496e-08)
(0.000815894 8.56307e-07 1.40122e-07)
(0.000814532 3.60721e-07 3.87708e-08)
(0.00081277 -4.14149e-08 4.13561e-08)
(0.000811027 6.90062e-08 5.9727e-08)
(0.000809368 -5.04344e-08 3.75015e-08)
(0.00080788 -2.38639e-08 4.86698e-08)
(0.000806421 -1.53966e-07 6.54463e-08)
(0.000804649 -2.37812e-07 9.25312e-09)
(0.000803099 -4.42066e-08 4.97482e-08)
(0.000801428 8.87481e-08 8.04709e-08)
(0.000799799 -4.24025e-08 2.98295e-08)
(0.000799107 4.75653e-07 6.44887e-08)
(0.000797793 4.71013e-07 9.02593e-08)
(0.000795989 1.7413e-07 3.24158e-08)
(0.000794467 3.20332e-07 4.71184e-08)
(0.000792913 1.27607e-07 4.7306e-08)
(0.000791585 8.55352e-08 4.49295e-08)
(0.000790225 -3.33171e-08 6.71506e-08)
(0.000788748 -7.06494e-08 1.86104e-08)
(0.000787391 -1.73658e-07 4.69718e-08)
(0.000786166 5.04978e-08 3.8728e-08)
(0.00078448 1.11398e-07 3.80779e-08)
(0.000782735 -8.42939e-08 1.08356e-08)
(0.000781705 -1.38602e-07 6.63775e-08)
(0.000780451 -9.98069e-08 4.31861e-08)
(0.000778893 -1.14421e-07 5.01367e-08)
(0.000777571 1.2348e-08 5.69676e-08)
(0.000776099 1.62485e-07 4.60844e-08)
(0.000774336 4.90281e-07 5.8777e-08)
(0.000773355 6.35283e-07 7.28709e-08)
(0.000772508 2.37697e-07 3.37339e-08)
(0.000771595 -2.8725e-08 -1.68128e-08)
(-0.00025481 0.000434711 -0.000347676)
(0.0106347 -0.000249504 0.000744258)
(-0.0130774 0.0057682 -0.000744442)
(0.00651174 -0.00487889 0.0170461)
(0.0199084 0.00323361 0.00926822)
(0.00317141 -0.00879064 1.91666e-06)
(0.00135591 -0.000340912 3.43888e-05)
(0.000417987 8.92925e-05 2.76329e-07)
(0.000822349 4.77118e-05 -1.35934e-06)
(0.000790782 3.79811e-05 -2.76376e-07)
(0.000813557 2.28829e-05 1.65209e-07)
(0.000816994 1.48933e-05 3.62602e-08)
(0.000819768 9.38251e-06 5.43953e-08)
(0.000820353 5.79323e-06 5.06997e-08)
(0.000820113 3.64428e-06 5.39309e-08)
(0.000819441 2.4133e-06 1.37332e-07)
(0.000818374 1.61827e-06 1.92715e-08)
(0.000817004 1.0406e-06 7.57873e-09)
(0.000815332 8.01505e-07 -4.28754e-08)
(0.00081376 6.51448e-07 7.39361e-08)
(0.000812348 2.69535e-07 5.45076e-08)
(0.000810685 -3.15138e-08 5.14539e-08)
(0.000809244 -1.00748e-07 6.25467e-08)
(0.000807675 -1.72772e-07 5.3355e-08)
(0.000806102 -3.3909e-07 2.18574e-08)
(0.000804935 -3.5327e-07 -2.29793e-08)
(0.0008035 -1.10273e-07 9.95202e-08)
(0.000801848 -5.83109e-08 5.09104e-08)
(0.00080064 2.03176e-07 9.66541e-08)
(0.000799036 4.63328e-07 3.21168e-08)
(0.000797194 2.00921e-07 1.59857e-07)
(0.000795928 1.34516e-07 4.89698e-08)
(0.000794331 -3.67205e-08 9.03896e-08)
(0.000792728 -8.87755e-08 -2.08813e-08)
(0.000791454 -1.13402e-07 2.67084e-08)
(0.000790072 -1.56741e-07 5.96356e-08)
(0.000788648 -2.10537e-07 6.86962e-08)
(0.000787513 -1.82118e-07 6.41198e-08)
(0.000786183 -4.38481e-07 8.95469e-08)
(0.000784432 -6.17047e-07 3.75163e-08)
(0.000783169 -2.4591e-07 4.90938e-08)
(0.000781743 -8.52529e-08 1.55684e-08)
(0.000780101 2.22597e-07 3.9222e-08)
(0.000778961 1.74872e-07 4.78878e-08)
(0.000777779 1.57335e-07 6.82941e-08)
(0.000776423 1.97206e-07 5.18666e-08)
(0.000775177 4.13052e-07 2.47779e-08)
(0.00077334 1.00629e-06 2.54573e-08)
(0.000771714 6.55851e-07 -9.76882e-08)
(0.000770958 3.48544e-07 9.08914e-08)
(-0.00782128 0.00390021 0.000377562)
(-0.00430531 -0.0104616 -0.000359214)
(0.012073 -0.0171632 0.000872331)
(-0.0167369 -3.81437e-06 -0.00130244)
(-0.00306832 0.00502795 -0.000880451)
(0.000165567 0.00091256 5.84275e-05)
(0.000379473 0.000129121 4.73744e-05)
(0.00078041 3.63065e-05 -1.99686e-06)
(0.000771193 7.94399e-06 -1.51738e-07)
(0.000792719 1.41745e-05 1.19878e-07)
(0.000805094 9.26591e-06 9.33664e-08)
(0.000811975 6.37528e-06 4.98667e-08)
(0.00081561 4.10572e-06 5.30897e-08)
(0.000817528 2.81695e-06 -6.0645e-08)
(0.000818526 1.88819e-06 5.29504e-08)
(0.000818328 1.16008e-06 3.69888e-08)
(0.000817422 6.96849e-07 4.5449e-08)
(0.000816353 3.85842e-07 6.19315e-08)
(0.000815402 2.38876e-07 7.56538e-08)
(0.000813863 3.52077e-08 3.13176e-09)
(0.000811915 -6.1862e-08 2.76831e-09)
(0.000810564 -2.32213e-08 5.75997e-08)
(0.000809193 -5.893e-09 5.71715e-08)
(0.000807585 -1.92747e-08 4.8728e-08)
(0.000806199 1.40164e-07 6.58795e-08)
(0.000804938 1.16424e-07 -1.04931e-08)
(0.00080347 -5.33587e-08 6.08104e-08)
(0.00080182 1.99359e-08 4.82387e-08)
(0.000800449 1.57452e-07 -8.01427e-08)
(0.000799101 -2.51251e-07 3.49911e-08)
(0.000797379 -6.38233e-08 1.86085e-07)
(0.000795691 -1.99133e-07 3.04185e-08)
(0.000794189 -5.5596e-07 2.25964e-08)
(0.000792819 -3.65195e-07 1.36978e-07)
(0.000791502 -1.29562e-07 8.48056e-08)
(0.000790106 -1.1221e-07 6.79861e-08)
(0.000788717 -1.32191e-07 5.80461e-08)
(0.000787108 -1.4462e-07 5.05416e-08)
(0.000785625 -4.24008e-07 1.11506e-08)
(0.000784724 -5.27731e-07 6.53089e-08)
(0.000783402 -2.99284e-07 6.60582e-08)
(0.000782291 -3.74415e-07 9.27245e-08)
(0.000780776 -2.65919e-07 3.71175e-08)
(0.00077881 2.21139e-07 2.24347e-08)
(0.000777598 1.43124e-07 2.91946e-08)
(0.000776415 1.86548e-07 2.78839e-08)
(0.000775343 5.25543e-08 1.84455e-08)
(0.000773652 -4.81245e-09 1.78783e-08)
(0.000771671 3.47425e-07 -9.93088e-09)
(0.000770343 2.31274e-07 6.97645e-08)
(0.0130434 0.000445771 0.000513868)
(0.00452125 -0.0505682 0.000614087)
(0.0251955 0.0187584 -0.0118425)
(-0.0737423 0.0155276 0.00624984)
(0.00962628 -0.0150249 -0.00525346)
(-0.00176276 -0.00583758 -0.000738586)
(0.000761159 -8.93167e-05 3.05731e-05)
(0.00135294 -5.1561e-05 3.75584e-07)
(0.00129495 1.18592e-05 3.1079e-07)
(0.00132509 -6.2014e-06 4.88014e-07)
(0.00134246 -2.4541e-06 3.80264e-07)
(0.00135262 -2.36838e-06 3.23621e-07)
(0.00135995 -1.48299e-06 2.65634e-07)
(0.00136325 -6.12163e-07 3.66308e-07)
(0.00136375 -3.54073e-07 3.48939e-07)
(0.00136341 -2.8802e-07 5.47773e-07)
(0.00136238 -3.1535e-07 3.44534e-07)
(0.00136075 -8.2709e-08 3.55912e-07)
(0.00135809 1.45752e-08 3.84307e-07)
(0.00135552 -4.04666e-07 4.98356e-07)
(0.00135365 -1.89426e-07 3.64276e-07)
(0.00135108 1.33969e-07 3.83677e-07)
(0.00134853 9.11496e-08 3.97076e-07)
(0.00134621 1.17166e-07 2.94352e-07)
(0.0013436 4.96113e-07 2.52669e-07)
(0.00134096 5.96209e-07 3.34236e-07)
(0.00133872 3.79605e-07 2.78968e-07)
(0.00133662 1.83284e-07 3.33173e-07)
(0.00133357 3.53743e-07 3.53945e-07)
(0.00133088 -4.18326e-07 5.11834e-07)
(0.00132838 -1.30118e-06 2.45395e-07)
(0.00132517 -1.08493e-06 1.13428e-07)
(0.00132317 -7.83078e-07 3.84807e-07)
(0.00132174 -3.07335e-07 4.20367e-07)
(0.00131926 1.63266e-07 3.17659e-07)
(0.00131641 1.19184e-07 3.29431e-07)
(0.00131388 5.61324e-08 4.53568e-07)
(0.00131134 2.27245e-07 2.59004e-07)
(0.00130904 6.67438e-07 2.30365e-07)
(0.0013072 7.26627e-07 3.41164e-07)
(0.00130503 1.35109e-07 2.88575e-07)
(0.00130237 9.15507e-08 3.49647e-07)
(0.00130085 -7.54547e-07 3.22392e-07)
(0.00129844 -4.99768e-07 7.20227e-07)
(0.00129552 -1.8139e-07 3.37551e-07)
(0.00129316 -3.06599e-07 2.70801e-07)
(0.00129083 -3.49491e-07 3.1201e-07)
(0.00128883 -7.2952e-07 3.31111e-07)
(0.00128596 -4.96011e-07 2.12627e-07)
(0.001283 -3.89433e-07 3.49982e-07)
(0.00103442 -0.00405746 -0.00136869)
(0.000701845 -0.00346592 0.000683162)
(0.012656 -0.00338129 0.00130511)
(0.0116406 -0.0230398 -0.0163574)
(0.00136337 -0.00786757 0.00321549)
(0.0314117 -0.000650044 -0.00139582)
(0.00111783 -4.6766e-05 3.54815e-05)
(0.00122269 -5.92567e-05 4.29105e-07)
(0.00138548 -3.9798e-05 4.01682e-07)
(0.00131006 -4.1182e-05 3.33097e-07)
(0.00135066 -2.4661e-05 3.39367e-07)
(0.00135698 -1.61315e-05 3.41264e-07)
(0.001363 -1.00647e-05 3.41152e-07)
(0.00136484 -6.55647e-06 3.40485e-07)
(0.00136515 -4.22619e-06 3.43577e-07)
(0.0013642 -2.67726e-06 6.8883e-07)
(0.00136273 -1.76499e-06 3.42259e-07)
(0.00136105 -1.38218e-06 1.61954e-07)
(0.00135855 -1.05052e-06 4.20279e-07)
(0.00135602 -4.94682e-07 3.10392e-07)
(0.00135372 -1.51639e-07 3.8344e-07)
(0.00135114 -8.46178e-08 2.68714e-08)
(0.0013485 3.94784e-07 2.92553e-07)
(0.00134635 4.74954e-07 6.2162e-07)
(0.00134403 4.28851e-07 3.23451e-07)
(0.00134114 2.15327e-07 3.60825e-07)
(0.0013384 2.44905e-09 4.21411e-07)
(0.00133612 -4.10702e-07 3.3379e-07)
(0.0013331 -1.42262e-06 3.68427e-07)
(0.00132954 -9.82295e-07 3.64633e-07)
(0.00132781 -1.1547e-06 3.89892e-07)
(0.00132639 -6.39404e-07 3.13977e-07)
(0.00132419 5.48487e-07 6.44707e-07)
(0.00132214 7.36086e-07 7.66257e-07)
(0.00131931 2.29256e-08 3.37434e-07)
(0.00131632 2.39542e-08 3.08094e-07)
(0.00131422 2.37209e-07 3.16096e-07)
(0.00131211 3.71712e-07 3.68829e-07)
(0.00130953 6.56841e-07 3.49166e-07)
(0.00130669 7.71722e-07 3.27438e-07)
(0.00130428 3.92545e-07 3.36169e-07)
(0.00130202 1.23735e-07 7.68351e-08)
(0.00129984 -4.78937e-08 3.31546e-07)
(0.00129817 -4.80689e-07 3.28996e-07)
(0.00129566 -2.55127e-07 3.58513e-07)
(0.0012931 -2.88917e-07 3.45143e-07)
(0.00129096 1.01387e-07 4.53954e-07)
(0.0012886 -2.20534e-07 3.19798e-07)
(0.00128597 -5.76052e-07 3.68162e-07)
(0.00128423 -4.00281e-07 2.30522e-07)
(-0.00285744 -0.00205477 0.000430589)
(-0.00930049 0.00246411 -0.000574323)
(-0.00311445 -0.00350157 -7.89051e-05)
(-0.00616564 -0.020702 -0.00206663)
(0.0317885 -0.0180245 0.00655355)
(-0.00354502 0.021318 -0.00068095)
(-0.000762918 -0.000332104 1.5355e-05)
(0.00128663 -0.0002061 6.68769e-07)
(0.00145482 -0.000111952 -3.2108e-07)
(0.00134465 -6.60741e-05 3.35769e-07)
(0.00137389 -4.12602e-05 3.44576e-07)
(0.00137093 -2.55687e-05 3.41068e-07)
(0.00137197 -1.60723e-05 3.4119e-07)
(0.00137058 -1.01446e-05 3.44264e-07)
(0.00136862 -6.37064e-06 3.43195e-07)
(0.0013665 -4.09404e-06 3.40292e-07)
(0.00136401 -2.60233e-06 3.42389e-07)
(0.00136165 -1.81727e-06 2.98948e-07)
(0.00135921 -1.78316e-06 3.35654e-07)
(0.00135665 -1.10741e-06 3.2934e-07)
(0.00135416 -8.25547e-07 3.3925e-07)
(0.00135176 -4.12028e-07 3.35251e-07)
(0.00134923 -2.3877e-07 3.56678e-07)
(0.00134624 -4.469e-08 1.85797e-08)
(0.00134327 -4.05393e-07 3.01082e-07)
(0.00134042 -1.84786e-07 2.85231e-07)
(0.00133793 -3.24258e-07 3.50122e-07)
(0.00133485 -2.8355e-07 3.34043e-07)
(0.00133287 -3.97977e-07 6.33851e-08)
(0.00133123 5.37625e-07 3.48275e-07)
(0.00132882 1.31484e-06 3.66438e-07)
(0.0013273 1.12148e-06 3.19508e-07)
(0.00132489 6.59105e-07 8.28705e-07)
(0.00132108 4.10006e-07 4.43399e-07)
(0.00131836 -1.29836e-07 3.67303e-07)
(0.00131667 3.99075e-08 3.39552e-07)
(0.00131431 1.42789e-07 2.86107e-07)
(0.00131186 1.58498e-08 3.45929e-07)
(0.00130953 4.60994e-08 3.28739e-07)
(0.00130686 -9.95106e-08 3.41982e-07)
(0.00130421 7.65698e-08 5.14096e-08)
(0.00130182 1.74211e-07 3.02234e-07)
(0.0013001 5.39457e-07 3.6341e-07)
(0.00129819 2.22974e-07 3.1964e-07)
(0.00129577 2.08363e-07 3.48139e-07)
(0.00129361 3.51332e-07 3.18364e-07)
(0.00129091 4.97635e-07 3.33729e-07)
(0.00128799 2.95345e-07 3.47091e-07)
(0.00128575 1.47186e-07 2.95408e-07)
(0.00128421 1.21379e-07 3.33604e-07)
(0.00475491 -0.00351428 9.56412e-05)
(0.00323588 -0.0062492 4.57408e-05)
(-0.00426455 0.00903873 0.000361634)
(-0.0138919 -0.00228185 -0.00489279)
(-0.00223881 -0.00313121 0.00102134)
(0.000697121 0.00478869 -0.00458817)
(0.0014082 0.00211836 -3.19982e-05)
(0.00146455 -0.000263811 1.32546e-05)
(0.00149208 -0.000105032 3.09793e-07)
(0.00139891 -6.39544e-05 3.61471e-07)
(0.00140156 -3.97564e-05 3.49456e-07)
(0.00138862 -2.43956e-05 2.28587e-08)
(0.00138238 -1.55844e-05 8.11889e-08)
(0.00137703 -9.62509e-06 3.44293e-07)
(0.00137276 -5.88571e-06 3.42123e-07)
(0.00136894 -3.59056e-06 3.41815e-07)
(0.0013656 -2.35723e-06 3.22962e-07)
(0.00136209 -1.36684e-06 2.79576e-07)
(0.00135945 -1.14125e-06 3.49378e-07)
(0.00135722 -1.30127e-06 3.05948e-07)
(0.0013546 -8.02041e-07 -4.56008e-08)
(0.00135188 -5.65816e-07 3.34784e-07)
(0.00134896 -6.64281e-07 2.75192e-07)
(0.00134614 -5.92762e-07 4.07339e-07)
(0.00134385 -4.55506e-07 5.50711e-07)
(0.00134124 -2.17717e-07 3.12576e-07)
(0.00133828 2.15353e-07 3.99407e-07)
(0.00133603 5.14974e-07 3.87257e-07)
(0.00133412 1.53741e-06 3.37892e-07)
(0.00133167 1.14777e-06 5.25004e-07)
(0.00132853 1.31459e-06 3.06462e-07)
(0.00132556 1.26507e-06 -2.92695e-08)
(0.00132329 3.85017e-07 3.26642e-07)
(0.00132115 -6.28717e-08 3.30932e-07)
(0.00131884 3.15867e-07 2.62672e-07)
(0.00131666 2.09902e-07 3.13528e-07)
(0.00131419 -1.40506e-08 4.08471e-07)
(0.00131199 -1.24609e-07 3.48792e-07)
(0.00130938 -4.95172e-07 2.27979e-07)
(0.00130673 -3.87225e-07 1.98567e-07)
(0.00130462 -1.18057e-07 2.63182e-07)
(0.0013026 1.38428e-07 3.31313e-07)
(0.00129989 3.2298e-07 4.7363e-07)
(0.00129775 3.54851e-07 6.27046e-08)
(0.00129582 5.1137e-08 3.51446e-07)
(0.00129346 -9.41555e-09 3.23275e-07)
(0.00129088 -1.35946e-07 3.83679e-07)
(0.00128815 1.14054e-07 1.24316e-07)
(0.00128575 4.22477e-07 3.16427e-07)
(0.00128389 3.94502e-07 2.33521e-07)
(-0.00607898 -0.00362493 -0.000240203)
(0.0190826 0.00350525 0.00123157)
(0.0300016 0.0184753 0.00824213)
(0.00286908 0.000333668 0.00247264)
(0.0271795 0.00127906 0.00654669)
(-0.0190674 0.0096089 -0.00231283)
(-0.000774948 -4.39858e-05 5.75667e-05)
(0.00127136 -0.000104619 5.33277e-05)
(0.00157613 -5.46113e-05 5.89783e-07)
(0.00142681 -3.81361e-05 4.35989e-07)
(0.00142363 -2.30049e-05 3.74999e-07)
(0.00140133 -1.46884e-05 8.82942e-07)
(0.00139055 -8.65448e-06 4.03075e-07)
(0.00138278 -5.56118e-06 3.45266e-07)
(0.00137621 -3.62452e-06 3.58052e-07)
(0.00137094 -2.2782e-06 3.60868e-07)
(0.00136681 -1.33058e-06 3.43228e-07)
(0.00136318 -8.1675e-07 3.34912e-07)
(0.0013593 6.15339e-08 3.38009e-07)
(0.00135708 6.04391e-07 3.67915e-07)
(0.00135509 -1.94877e-07 3.73204e-07)
(0.00135194 -1.83603e-08 3.15753e-07)
(0.0013492 2.45491e-08 5.3097e-07)
(0.00134651 8.04739e-08 3.84751e-07)
(0.00134374 2.85094e-07 2.79307e-07)
(0.00134126 -2.20422e-07 3.12472e-07)
(0.00133885 1.6265e-07 3.87999e-07)
(0.00133649 2.93665e-07 3.27429e-07)
(0.00133365 3.56279e-07 2.72363e-07)
(0.00133094 1.94661e-07 3.58507e-07)
(0.00132895 -2.59083e-09 2.87711e-07)
(0.00132613 -3.07369e-07 3.12567e-07)
(0.00132322 2.72097e-07 3.1392e-07)
(0.00132099 1.85138e-07 3.29915e-07)
(0.0013187 3.24191e-07 3.6599e-07)
(0.00131626 1.10263e-07 3.29424e-07)
(0.00131389 4.96002e-08 3.55355e-07)
(0.00131126 -1.30724e-08 3.32829e-07)
(0.00130921 -2.20789e-07 4.34171e-07)
(0.00130734 -6.28036e-08 2.82829e-07)
(0.00130487 1.70182e-07 3.33394e-07)
(0.00130237 2.64729e-07 7.17187e-07)
(0.00130037 2.03004e-07 3.2802e-07)
(0.00129784 2.94688e-07 2.50707e-07)
(0.00129531 -1.75674e-07 4.89144e-07)
(0.00129338 -3.45679e-07 3.23244e-07)
(0.00129107 -7.88959e-07 1.33371e-07)
(0.00128868 -6.90866e-07 -2.15292e-09)
(0.00128609 -3.63837e-07 5.34401e-07)
(0.0012832 1.9183e-07 4.26886e-07)
(-0.00872481 0.00131995 0.000764769)
(-0.00455746 -0.00297129 -0.00114513)
(-0.00812578 0.00568139 -0.000629072)
(-0.000550451 -0.00492429 -9.59465e-06)
(0.00885663 -0.00132358 -0.000642808)
(-0.011132 0.00604865 -0.000156158)
(0.000815309 0.00118385 -4.99345e-05)
(0.00137584 -0.000103076 6.26979e-05)
(0.0015935 -3.32406e-06 5.79708e-07)
(0.00143853 3.79451e-06 4.18349e-07)
(0.00143109 2.48815e-06 3.20474e-07)
(0.0014067 1.8273e-06 5.1921e-07)
(0.00139387 1.73226e-06 3.90548e-07)
(0.00138337 9.96091e-07 3.47276e-07)
(0.00137689 4.91843e-07 4.38098e-07)
(0.00137183 1.95564e-07 4.24847e-07)
(0.00136744 1.8223e-07 3.42174e-07)
(0.00136384 2.0345e-07 3.76241e-07)
(0.00136122 3.7274e-07 3.12676e-07)
(0.0013569 1.11805e-06 3.56582e-07)
(0.00135382 1.06432e-06 3.70091e-07)