/*--------------------------------*- C++ -*----------------------------------*\
| =========                 |                                                 |
| \\      /  F ield         | OpenFOAM: The Open Source CFD Toolbox           |
|  \\    /   O peration     | Version:  5.0                                   |
|   \\  /    A nd           | Web:      www.OpenFOAM.org                      |
|    \\/     M anipulation  |                                                 |
\*---------------------------------------------------------------------------*/
FoamFile
{
    version     2.0;
    format      ascii;
    class       surfaceVectorField;
    location    "3.4";
    object      Uf;
}
// * * * * * * * * * * * * * * * * * * * * * * * * * * * * * * * * * * * * * //

dimensions      [0 1 -1 0 0 0 0];

internalField   nonuniform List<vector> 
25186
(
(0.00525906 0.000438136 -0.000141073)
(0.00517913 -0.00375192 -0.000673325)
(0.00990314 -0.00282919 -8.70948e-05)
(0.00452022 0.0015274 4.80583e-05)
(0.004424 -0.00626536 0.000120329)
(0.00109506 0.00394215 0.000634062)
(0.00227512 0.00310595 3.37977e-06)
(0.00372233 0.00560808 0.000231876)
(0.00679817 -0.00131575 0.000424941)
(-0.013985 -0.00159211 -0.000248079)
(0.0217026 -0.00349525 -0.000380188)
(-0.0108802 -0.00880206 -0.00105041)
(-0.00877998 0.000566952 -0.000637257)
(0.00966492 -0.00386079 0.00128917)
(-0.0334213 -0.0043606 -0.00111927)
(-0.0169183 0.00314649 0.00466515)
(-0.00746703 -0.00841727 -0.000699139)
(0.0048245 -0.00689956 -0.000242617)
(-1.90075e-05 -0.0153171 -0.000408694)
(-0.011903 -0.0133568 -0.00148042)
(-0.00898927 0.00435497 0.00026286)
(-0.0161779 -0.009011 0.00119073)
(0.00339798 0.00404578 0.00101326)
(-0.0410845 -0.0160929 0.00729876)
(0.00296937 -0.000252907 3.14578e-05)
(0.00352404 -0.00194053 -1.1731e-05)
(0.00543633 0.00526399 -0.00025491)
(0.00407328 -0.00238069 -0.000376177)
(0.000650018 -0.000101994 1.55951e-05)
(0.000326147 -8.14868e-05 1.65806e-05)
(0.00039087 -9.86953e-05 4.17358e-05)
(0.000200607 -5.18376e-05 1.04837e-05)
(0.000798669 -4.50339e-05 -9.39954e-07)
(0.000574424 -6.59841e-05 -1.23783e-06)
(0.00109628 -9.76423e-05 -1.21358e-06)
(0.000532931 -7.84007e-05 -3.81856e-06)
(0.000570721 -9.82435e-05 -4.66111e-06)
(0.000882898 -0.00013632 -3.41573e-06)
(0.000946671 -0.000179335 -4.19155e-06)
(0.000560595 -7.55313e-05 -4.02996e-06)
(0.000965159 -0.000101957 -8.50092e-07)
(0.000934143 -0.000122272 -4.8482e-06)
(0.000805991 -1.25511e-05 -1.17979e-07)
(0.000835381 -1.96753e-05 -7.03023e-07)
(0.00105998 -1.30295e-05 6.56469e-08)
(0.00081805 -9.71486e-06 1.00028e-07)
(0.000813204 -2.14078e-05 -1.82758e-07)
(0.00108251 -1.59773e-05 1.92443e-07)
(0.000823596 -5.11599e-06 9.08562e-08)
(0.000825951 -1.10174e-05 1.44957e-07)
(0.00109366 -7.51908e-06 1.86037e-07)
(0.000827256 -3.12579e-06 4.11736e-08)
(0.000827754 -6.93076e-06 5.36195e-08)
(0.00109938 -4.81636e-06 1.81638e-07)
(0.0008292 -1.71485e-06 -1.10459e-09)
(0.000829776 -4.3405e-06 3.78142e-08)
(0.00110339 -2.79007e-06 1.93918e-07)
(0.000829032 -9.72883e-07 1.57516e-08)
(0.000829956 -2.87192e-06 1.52238e-08)
(0.00110448 -1.36787e-06 1.19139e-07)
(0.000828838 -7.18233e-07 4.3273e-08)
(0.000829405 -1.652e-06 5.27998e-08)
(0.0011041 -9.66186e-07 1.81529e-07)
(0.000827885 -5.14538e-07 4.5103e-08)
(0.000828635 3.56613e-08 4.42632e-08)
(0.00110335 -7.6455e-07 1.53179e-07)
(0.000827004 -2.71538e-07 6.38964e-08)
(0.000827585 -7.5075e-07 5.32446e-08)
(0.00110211 -4.8726e-07 1.84202e-07)
(0.000825579 -3.5987e-07 4.94029e-08)
(0.000826131 -8.03536e-07 7.14291e-08)
(0.00110071 -1.70616e-07 1.76509e-07)
(0.000823204 -4.16386e-07 4.67322e-08)
(0.000824519 2.30235e-06 6.52859e-08)
(0.00109801 -6.96387e-07 1.34196e-07)
(0.000822162 -1.77318e-07 5.44758e-08)
(0.00082314 -5.67916e-07 4.88695e-08)
(0.00109569 -3.33534e-07 1.70271e-07)
(0.000820784 -5.48754e-08 2.96098e-08)
(0.000821648 -2.49788e-07 6.22867e-08)
(0.00109428 -1.06121e-07 1.70775e-07)
(0.000819092 1.71876e-08 9.00143e-09)
(0.000820001 -5.01676e-08 4.59491e-08)
(0.00109211 3.5194e-08 1.8389e-07)
(0.000817444 5.99339e-08 2.36431e-08)
(0.000818332 2.69221e-07 6.04837e-08)
(0.00108987 1.05352e-07 1.64145e-07)
(0.000815815 1.64247e-07 6.12327e-08)
(0.000816801 -3.33222e-08 2.80176e-08)
(0.00108775 1.21378e-07 1.86251e-07)
(0.000814524 2.94231e-07 7.66085e-08)
(0.000815286 -9.36702e-07 1.84291e-08)
(0.00108581 3.81286e-07 2.29327e-07)
(0.000812838 2.78741e-07 7.06966e-08)
(0.00081355 -1.22881e-06 9.046e-08)
(0.00108378 4.89863e-07 1.91125e-07)
(0.00081133 1.45875e-07 5.82632e-08)
(0.000811914 2.23501e-07 6.21073e-08)
(0.00108165 3.21774e-07 1.75016e-07)
(0.000809876 7.68265e-08 3.55265e-08)
(0.000810513 -1.04368e-07 5.19653e-08)
(0.00107986 9.65352e-08 1.862e-07)
(0.000807814 -2.31045e-08 4.39874e-08)
(0.000808805 1.63868e-06 5.76457e-08)
(0.00107736 1.18267e-07 -1.47869e-08)
(0.000806415 -3.1088e-07 7.76421e-08)
(0.000806985 1.29014e-07 7.03625e-08)
(0.00107502 -2.15874e-07 1.93496e-07)
(0.000804597 -5.00129e-07 3.77361e-08)
(0.000805433 -4.9286e-07 4.69122e-09)
(0.00107299 -7.14271e-07 3.95934e-07)
(0.000803151 -4.35784e-07 3.70426e-08)
(0.000803892 -5.19729e-07 2.80371e-09)
(0.00107063 -7.11253e-07 3.14988e-07)
(0.000801295 -1.45099e-07 8.96748e-08)
(0.000802504 -7.99779e-08 1.05608e-07)
(0.00106849 -4.8871e-07 1.88816e-07)
(0.000800566 7.12201e-08 7.1466e-08)
(0.000801205 -2.24024e-06 8.67134e-08)
(0.00106698 7.57634e-08 2.58904e-07)
(0.000798812 8.12441e-08 4.76874e-08)
(0.000799644 1.32489e-07 4.70951e-08)
(0.0010653 1.11001e-07 1.81482e-07)
(0.00079721 1.09617e-07 5.00901e-08)
(0.000798024 1.27899e-07 4.43698e-08)
(0.00106296 1.41416e-07 1.77429e-07)
(0.000795398 1.92587e-07 4.82021e-08)
(0.000796496 4.15338e-07 4.91147e-08)
(0.00106071 1.71651e-07 1.77504e-07)
(0.000793712 4.36435e-07 7.31881e-08)
(0.000794948 5.38043e-07 2.82973e-08)
(0.00105825 3.41869e-07 1.49931e-07)
(0.000793379 4.16066e-07 1.18752e-07)
(0.000793478 -2.64314e-06 5.6774e-08)
(0.00105699 8.19368e-07 2.33683e-07)
(0.000791434 1.14334e-07 8.1439e-08)
(0.000791971 3.9905e-07 1.11859e-07)
(0.00105558 3.24487e-07 1.80653e-07)
(0.000789891 -1.56953e-08 4.96255e-08)
(0.000790444 7.29032e-08 4.47946e-08)
(0.00105317 3.35772e-08 1.7699e-07)
(0.000788379 -2.02903e-07 4.97094e-08)
(0.000788887 -9.26842e-08 7.12549e-08)
(0.001051 -4.49021e-08 1.75616e-07)
(0.000787452 -3.85666e-07 1.54729e-08)
(0.000787604 -4.73824e-07 2.0142e-08)
(0.00104969 -4.91304e-07 1.42905e-07)
(0.000785093 -3.07875e-07 2.10945e-08)
(0.000786279 2.65462e-06 5.38914e-08)
(0.0010474 -5.22054e-07 8.0912e-08)
(0.000783823 -1.26281e-07 -2.30687e-09)
(0.000784707 -2.76521e-07 4.70896e-08)
(0.00104488 -2.72483e-07 1.78378e-07)
(0.000782304 9.01885e-09 4.0483e-09)
(0.000783229 1.63819e-07 5.53996e-09)
(0.00104309 -1.00037e-07 1.80801e-07)
(0.000781367 -1.6001e-08 5.00783e-08)
(0.000781851 -5.78313e-07 5.46343e-08)
(0.00104135 5.56356e-08 1.67758e-07)
(0.000779806 -2.33972e-07 4.65487e-08)
(0.000780496 1.21019e-07 2.17269e-08)
(0.00103988 -1.66904e-07 1.80028e-07)
(0.00077809 -3.36396e-07 2.89181e-08)
(0.00077891 -2.99038e-07 -1.30234e-08)
(0.00103753 -4.88144e-07 2.11601e-07)
(0.000777587 8.98431e-07 6.18404e-08)
(0.00103535 -3.97158e-07 1.13404e-07)
(0.0089142 -0.00367632 -0.000168883)
(0.00103537 0.00343894 -0.000398195)
(0.00243565 -0.00217726 -0.00115435)
(0.0020154 0.00723464 -0.000114737)
(0.00639463 -0.0046627 8.06915e-05)
(0.00733342 -0.00527521 0.000575367)
(0.00247232 -0.00771232 0.00054989)
(0.0143297 0.00443429 0.000889285)
(0.00404676 -0.0125209 0.00226993)
(0.00527509 0.000609787 0.000384625)
(0.00123764 -0.00125614 0.000254089)
(0.00336371 0.00289086 0.000970759)
(-0.00437796 -0.0024652 0.000561338)
(0.00373381 0.00864078 -0.000611025)
(-0.00261728 0.00505397 0.00012312)
(0.00297654 0.0123092 0.0001929)
(-0.00740552 0.00345706 0.00082547)
(-0.00849435 0.0168618 -0.00283935)
(-0.0104762 0.0140589 0.00222506)
(-0.0160626 0.00596348 -0.0038788)
(-0.00234033 0.00667427 -0.000583818)
(-0.0197515 0.0101486 -0.00168432)
(-0.0188876 0.00413248 -0.00158679)
(-0.0234247 0.00840938 0.00237337)
(-0.0193634 0.0177724 0.00378315)
(-0.00377445 -0.0251146 -0.000531274)
(-0.00797868 -0.00788245 -0.00151221)
(-0.00974569 -0.0114588 -0.00112583)
(-0.00640531 -0.00668418 -0.000206501)
(0.0067783 -0.0144608 -0.0010899)
(-8.91695e-06 -0.0121505 -0.000248671)
(0.00364481 -0.01497 0.000334485)
(0.00033161 -0.00712026 -7.07374e-05)
(0.0101702 -0.00842017 -6.36979e-05)
(0.00366295 -0.0162193 2.77053e-05)
(0.000925661 -0.000411036 2.68788e-05)
(0.000376316 -8.33649e-05 3.55604e-05)
(0.000325418 -0.000147388 4.70155e-05)
(0.000450525 -0.000126124 6.13777e-05)
(0.000249037 -7.3792e-05 1.69642e-05)
(0.000479899 -5.39823e-05 -1.24156e-06)
(0.000481796 -5.15099e-05 -3.33171e-06)
(0.000464087 -4.70785e-05 -2.38196e-07)
(0.000743714 -7.27649e-05 -1.41672e-06)
(0.000820859 -2.8244e-05 -7.67973e-07)
(0.000896764 -4.36641e-05 -1.48099e-06)
(0.00116197 -3.85967e-05 -9.81589e-07)
(0.000591284 -4.76107e-05 -3.87276e-06)
(0.000605966 -3.81212e-05 -4.97088e-06)
(0.00096868 -9.23004e-05 -4.69117e-06)
(0.000991588 -7.3251e-05 -6.34909e-06)
(0.000826498 -2.03806e-05 -1.37936e-07)
(0.00082321 -2.87745e-05 -4.9874e-07)
(0.00108159 -3.41141e-05 6.71038e-08)
(0.000829377 -1.17831e-05 1.07751e-07)
(0.000836758 -1.69605e-05 1.69123e-07)
(0.00110514 -1.89857e-05 2.06656e-07)
(0.000830666 -7.26046e-06 5.02653e-08)
(0.000833443 -1.04829e-05 3.47171e-08)
(0.00110478 -1.18626e-05 1.78545e-07)
(0.00083083 -4.5362e-06 5.415e-08)
(0.000833204 -6.47276e-06 5.64626e-08)
(0.00110652 -7.20945e-06 1.77485e-07)
(0.000830229 -2.9057e-06 5.22598e-08)
(0.000832009 -4.12811e-06 5.1361e-08)
(0.00110615 -4.72733e-06 1.82536e-07)
(0.000829316 -1.87102e-06 5.37928e-08)
(0.000830708 -2.54246e-06 5.39263e-08)
(0.00110518 -2.9373e-06 1.84118e-07)
(0.000828334 -1.2723e-06 5.24019e-08)
(0.000829389 -1.49666e-06 5.41607e-08)
(0.00110393 -2.00647e-06 2.33641e-07)
(0.000826922 -9.77811e-07 6.07714e-08)
(0.000827958 -1.02393e-06 5.34541e-08)
(0.00110243 -1.35166e-06 1.83387e-07)
(0.000824834 -8.38434e-07 8.73141e-08)
(0.000826309 9.48614e-08 8.33851e-08)
(0.00110003 -1.23025e-06 1.60484e-07)
(0.000824558 -5.27519e-07 6.74284e-08)
(0.000824911 -6.90128e-07 2.89365e-08)
(0.00109842 -9.83546e-07 2.72682e-07)
(0.000822659 -2.49517e-07 5.66761e-08)
(0.000823489 -3.22947e-07 3.69025e-08)
(0.00109703 -4.08602e-07 1.88955e-07)
(0.000820835 -1.69776e-07 7.86313e-08)
(0.000821748 -4.07275e-08 1.17326e-07)
(0.00109452 -2.27905e-07 1.8468e-07)
(0.000819286 -1.99196e-08 9.74267e-08)
(0.000820189 -1.26201e-07 6.19096e-08)
(0.00109229 -1.83409e-07 1.807e-07)
(0.000817636 1.64432e-07 6.48685e-08)
(0.000818562 -8.2921e-08 9.79757e-08)
(0.00109008 1.9061e-07 2.09011e-07)
(0.000816259 3.50959e-07 -1.4783e-08)
(0.000817033 2.62136e-07 4.17982e-08)
(0.00108818 3.29754e-07 1.40672e-07)
(0.000814392 2.67605e-07 3.22577e-08)
(0.00081518 1.16619e-07 1.55813e-09)
(0.0010861 6.56856e-07 1.30787e-07)
(0.000812532 -4.12009e-10 8.18797e-08)
(0.000813214 -3.1767e-08 9.73688e-08)
(0.00108347 1.01378e-07 1.20194e-07)
(0.000811094 -1.39623e-07 5.58127e-08)
(0.00081174 1.05174e-07 6.45198e-08)
(0.00108126 -4.05648e-08 1.75631e-07)
(0.000809512 -4.38986e-07 7.40827e-08)
(0.00081014 -1.69822e-07 5.23558e-08)
(0.00107935 -3.06812e-07 1.85207e-07)
(0.000807959 -5.97873e-07 8.40168e-08)
(0.000808609 -4.51458e-07 5.44725e-08)
(0.00107725 -9.12829e-07 3.25588e-07)
(0.000806001 -4.34947e-07 -2.56771e-09)
(0.000807192 5.82876e-07 5.98793e-09)
(0.0010747 -7.5101e-07 1.8213e-07)
(0.000804657 -2.22446e-07 -3.02406e-08)
(0.0008057 1.0864e-07 6.46166e-08)
(0.00107267 -4.73403e-07 1.17383e-07)
(0.000803253 1.48921e-07 7.13373e-08)
(0.000804357 3.43802e-07 3.46513e-08)
(0.00107095 -1.94582e-07 1.0428e-07)
(0.000802417 5.09397e-07 1.02653e-07)
(0.000802954 -2.43458e-06 6.24711e-08)
(0.00106941 5.75429e-07 2.82549e-07)
(0.000800303 4.41191e-07 6.23549e-08)
(0.000801118 -1.95051e-06 4.34526e-08)
(0.00106754 8.03732e-07 2.08839e-07)
(0.00079881 2.58532e-07 4.37784e-08)
(0.000799414 1.68174e-07 6.90668e-08)
(0.00106505 3.62284e-07 1.72217e-07)
(0.00079736 2.40357e-07 4.33929e-08)
(0.000798 7.77934e-08 4.62712e-08)
(0.001063 2.93861e-07 1.75016e-07)
(0.000796025 3.31469e-07 2.92163e-08)
(0.000796608 1.95674e-07 5.09638e-08)
(0.00106116 3.23559e-07 1.77425e-07)
(0.000794671 5.72048e-07 1.18743e-08)
(0.000795247 1.14149e-07 3.26057e-08)
(0.00105952 5.48146e-07 1.94314e-07)
(0.00079215 5.33795e-07 4.98635e-08)
(0.000793428 -7.67747e-07 1.90778e-08)
(0.00105686 9.54646e-07 1.34324e-07)
(0.000790894 2.4656e-07 7.52349e-08)
(0.00079161 2.1183e-07 1.07712e-07)
(0.00105425 4.83213e-07 1.69378e-07)
(0.00078953 6.72911e-08 6.64158e-08)
(0.000790219 -5.1981e-08 7.0549e-08)
(0.00105259 2.13416e-07 1.74976e-07)
(0.000787968 2.14775e-08 4.17032e-08)
(0.00078883 2.08903e-07 4.58709e-08)
(0.0010506 -2.15256e-08 1.62316e-07)
(0.000786537 -1.47482e-07 5.85501e-08)
(0.000787393 -9.62181e-07 3.75993e-08)
(0.00104856 6.90907e-08 2.07893e-07)
(0.000785853 -1.89373e-07 7.98886e-08)
(0.000786228 5.31887e-07 8.72272e-08)
(0.00104734 -4.85119e-07 2.59112e-07)
(0.000784147 -1.36635e-08 5.49491e-08)
(0.000784928 9.81065e-08 6.52253e-08)
(0.00104563 -5.68941e-08 1.70888e-07)
(0.000782679 1.54075e-07 5.6111e-08)
(0.000783439 1.62313e-07 9.05082e-08)
(0.00104349 -4.78308e-08 1.76774e-07)
(0.00078108 1.91043e-07 2.62929e-08)
(0.000781897 -1.0001e-06 8.53047e-08)
(0.00104154 3.92822e-07 2.19611e-07)
(0.000779566 -7.24135e-09 -3.78346e-08)
(0.000780248 2.72432e-07 3.63865e-08)
(0.00103939 7.14475e-08 1.70222e-07)
(0.000778312 -1.25675e-07 1.98762e-08)
(0.000778765 1.10703e-07 -2.67561e-08)
(0.00103748 -1.47531e-07 1.27774e-07)
(0.000777743 -1.18583e-07 1.12607e-07)
(0.00103607 -2.35522e-07 2.34152e-07)
(-0.00141516 0.00332937 -0.00014878)
(0.00101622 0.00416119 7.52472e-05)
(-0.0022064 0.00261011 0.000139045)
(0.000389536 -0.00490592 1.80694e-05)
(0.00169405 -0.00133443 6.5166e-06)
(-0.00511519 0.000676469 -0.00047258)
(0.000678136 0.000233469 6.39639e-05)
(0.00198812 9.05149e-05 -3.05994e-05)
(0.00140906 0.00155919 0.000512922)
(-0.00432827 -0.0153646 0.00193247)
(-0.00304254 -0.00351952 0.00049726)
(-0.00125088 -0.00553127 -3.51728e-05)
(-0.000763328 -0.0104824 0.000508232)
(-0.000876252 -0.0047804 -0.000524998)
(0.00229534 -0.0133174 0.00222865)
(0.00401642 -0.00180589 0.00143406)
(-0.0037385 -0.00358779 0.000531521)
(0.000281919 -0.00195047 0.000571289)
(0.00961116 -0.00510902 -0.00180603)
(-0.0139834 -0.0135393 -0.000990283)
(-0.000613236 -0.0140703 -0.00187365)
(7.44599e-06 -0.0105414 -0.000176092)
(0.00511556 -0.00903705 0.00700429)
(-0.0012031 -0.00168875 -0.00279807)
(0.00859762 -0.00795679 -0.00353983)
(-0.0113183 -0.0153152 -4.44105e-05)
(-0.000457654 -0.00264929 -0.000834108)
(-0.0138285 -0.0166561 0.000566059)
(-0.00631451 -0.0175173 -0.00023518)
(-0.00671079 0.020862 0.000551878)
(0.00428377 0.00893148 -0.000714071)
(-0.00718499 0.0099666 -0.000281373)
(0.00021373 0.00143491 0.000404032)
(-0.00240558 0.0101621 0.00226882)
(0.0099874 0.00137954 0.000235522)
(0.020735 0.0145404 -0.000178081)
(0.00585436 -0.00032433 0.000254323)
(0.0101696 -0.000195382 0.00127555)
(0.0188642 0.014131 0.00135881)
(0.000394848 -0.000509916 4.61972e-05)
(0.00136142 6.29498e-05 5.62947e-05)
(0.00133823 -0.00102555 0.000102842)
(0.00120341 -0.000197227 1.8599e-05)
(0.00104577 -0.000200296 6.57204e-05)
(0.000345245 -2.85293e-05 -2.15987e-06)
(0.00050608 -5.03764e-05 -3.19134e-06)
(0.000506331 -6.01244e-05 -1.6509e-07)
(0.00080626 -0.00010126 -1.04814e-06)
(0.000346109 -3.59177e-05 -1.52864e-06)
(0.000623712 -4.34219e-05 -2.24431e-06)
(0.000630093 -6.43564e-05 3.00008e-06)
(0.000483695 -5.12573e-05 -1.8961e-07)
(0.000848461 -3.62048e-05 -1.21208e-06)
(0.000913566 -3.61853e-05 -2.02689e-06)
(0.00121916 -6.24289e-05 -1.12449e-06)
(0.000627193 -4.25425e-05 -4.04017e-06)
(0.0006456 -2.25191e-05 -5.46849e-06)
(0.00102243 -8.1275e-05 -4.98575e-06)
(0.00106647 -3.865e-05 -6.83719e-06)
(0.000842488 -2.17935e-05 -1.919e-07)
(0.000841361 -2.11725e-05 -4.43316e-07)
(0.00110749 -3.64301e-05 3.81765e-08)
(0.000838637 -1.37476e-05 9.6133e-08)
(0.000846901 -1.44579e-05 1.43722e-07)
(0.00112162 -2.30616e-05 2.05922e-07)
(0.000836225 -8.64661e-06 4.09073e-08)
(0.000839873 -9.35262e-06 2.19483e-08)
(0.00111419 -1.44134e-05 1.75149e-07)
(0.000834296 -5.48597e-06 5.36753e-08)
(0.000837189 -6.06878e-06 5.14764e-08)
(0.00111236 -9.13235e-06 1.83089e-07)
(0.000832459 -3.4553e-06 5.30266e-08)
(0.000834569 -3.85953e-06 5.1714e-08)
(0.00110986 -5.79685e-06 1.84274e-07)
(0.000830713 -2.13885e-06 5.42941e-08)
(0.000832367 -2.40284e-06 5.15045e-08)
(0.00110753 -3.60888e-06 1.84999e-07)
(0.000829085 -1.35336e-06 5.52132e-08)
(0.00083038 -1.52492e-06 5.18698e-08)
(0.00110535 -2.22757e-06 1.85795e-07)
(0.000827405 -9.16115e-07 7.60582e-08)
(0.00082851 -9.8175e-07 6.06379e-08)
(0.0011031 -1.47383e-06 1.84818e-07)
(0.000826107 -5.32989e-07 2.50251e-08)
(0.000826792 -1.21433e-06 7.48984e-08)
(0.00110118 -1.03675e-06 2.44628e-07)
(0.00082412 -2.96774e-07 -1.59187e-09)
(0.000825208 3.52564e-07 -1.02575e-08)
(0.00109904 -5.03739e-07 1.41464e-07)
(0.000822508 -2.8451e-07 9.7527e-08)
(0.000823506 -3.21615e-07 3.7639e-08)
(0.00109663 -4.20134e-07 1.80692e-07)
(0.00082103 -2.33112e-07 1.00622e-07)
(0.000821814 5.3705e-07 1.11617e-07)
(0.00109456 -4.08845e-07 1.28918e-07)
(0.000819564 -1.94216e-07 6.24472e-08)
(0.000820238 -3.19836e-07 5.09234e-08)
(0.00109263 -2.51383e-07 1.81718e-07)
(0.000817813 -1.88644e-07 7.49233e-08)
(0.000818569 2.0073e-07 2.32633e-08)
(0.00109051 -2.73025e-07 1.73781e-07)
(0.000816274 -3.76244e-07 5.81521e-08)
(0.000816799 -4.52106e-07 7.01865e-08)
(0.00108833 -1.92702e-07 2.25359e-07)
(0.000813695 -4.14098e-07 6.66387e-08)
(0.000815134 1.34649e-06 6.1764e-08)
(0.00108552 -7.56811e-07 1.80509e-07)
(0.000812452 -1.96033e-07 8.00194e-08)
(0.000813488 -4.63957e-07 7.4342e-08)
(0.0010829 -3.09829e-07 1.80065e-07)
(0.000810846 -1.17042e-07 6.10668e-08)
(0.000811839 -1.32759e-07 6.39892e-08)
(0.00108114 -1.89705e-07 1.9869e-07)
(0.00080918 -9.11093e-08 3.2745e-08)
(0.000810173 -9.36043e-08 5.52873e-08)
(0.00107877 -1.00576e-07 1.82471e-07)
(0.000807797 4.00436e-08 -2.35411e-08)
(0.000808773 3.70997e-07 1.01634e-08)
(0.00107681 -1.27916e-07 1.05524e-07)
(0.000807035 2.85326e-07 7.31538e-08)
(0.000807497 8.08635e-07 -2.76447e-09)
(0.00107557 2.78243e-07 9.27503e-08)
(0.00080524 4.36794e-07 1.29518e-07)
(0.000805887 3.75163e-07 1.47967e-07)
(0.00107369 6.00258e-07 1.81131e-07)
(0.000804128 4.67962e-07 2.57763e-08)
(0.000804393 5.28709e-07 2.92757e-08)
(0.00107195 6.77952e-07 1.26584e-07)
(0.000801776 3.14476e-07 3.2767e-09)
(0.00080276 4.23577e-09 2.11278e-08)
(0.00106974 6.04971e-07 7.67956e-08)
(0.000800049 1.48879e-07 5.01565e-08)
(0.000800911 1.66346e-07 3.02277e-08)
(0.00106671 2.49525e-07 4.43753e-08)
(0.000798623 1.37702e-07 7.15666e-08)
(0.0007994 -1.29911e-08 3.68313e-08)
(0.00106466 1.39647e-07 1.81638e-07)
(0.000797228 1.28882e-07 5.38406e-08)
(0.000797989 -1.04183e-07 4.77729e-08)
(0.00106291 1.74385e-07 1.79527e-07)
(0.000795836 4.33545e-08 5.43589e-08)
(0.000796501 4.92079e-08 5.2298e-08)
(0.00106103 1.40026e-07 1.77241e-07)
(0.000794256 -1.29127e-07 3.98134e-08)
(0.000795031 1.91489e-08 4.92861e-08)
(0.00105904 -1.96371e-08 1.91004e-07)
(0.000792583 -1.56145e-07 7.68986e-08)
(0.000793395 -2.65072e-07 2.34336e-08)
(0.0010569 -2.90275e-07 1.56758e-07)
(0.000790992 -2.99612e-08 1.03037e-07)
(0.000791768 9.89605e-07 9.64022e-08)
(0.00105465 -9.71781e-08 1.30096e-07)
(0.000789503 -3.32299e-09 5.00117e-08)
(0.000790253 4.6277e-08 7.16242e-08)
(0.00105254 1.61113e-08 1.70136e-07)
(0.000788365 1.89069e-07 4.17696e-08)
(0.00078907 -2.75523e-07 2.48e-08)
(0.00105082 -7.90193e-09 1.80767e-07)
(0.000786802 4.31867e-07 6.62611e-08)
(0.000787695 -9.95092e-07 1.17107e-07)
(0.00104911 5.52363e-07 1.87028e-07)
(0.000785578 3.77426e-07 7.25706e-08)
(0.000786157 3.64006e-07 5.56167e-08)
(0.00104724 6.17347e-07 1.66314e-07)
(0.000784128 2.86556e-07 1.00777e-07)
(0.000784813 -2.89076e-08 5.90921e-08)
(0.00104543 4.17995e-07 1.83989e-07)
(0.000782731 2.92095e-07 1.19704e-07)
(0.000783444 -4.8005e-09 8.48476e-08)
(0.00104365 4.05586e-07 1.82524e-07)
(0.000780981 3.6253e-07 9.54133e-08)
(0.000781983 -2.91999e-08 9.42446e-08)
(0.0010415 4.13446e-07 1.31821e-07)
(0.000779483 3.345e-07 4.74843e-08)
(0.000780211 3.91637e-07 6.34864e-08)
(0.0010392 5.50964e-07 1.71082e-07)
(0.000777969 1.91926e-07 6.59327e-08)
(0.000778584 1.72695e-07 3.19378e-08)
(0.00103715 3.1298e-07 1.7698e-07)
(0.000777503 -1.11077e-06 1.38457e-07)
(0.00103583 1.78235e-07 2.07748e-07)
(0.00332663 -0.00208031 0.0001559)
(0.00116327 -0.00301949 4.818e-05)
(0.0043682 -0.0019074 0.000247237)
(0.000206446 -0.00103494 -6.89962e-05)
(0.004568 0.000713267 0.000118792)
(0.00637196 0.00347922 -0.000151268)
(0.00366718 -0.00115212 0.000170017)
(0.00134281 -0.00430836 -3.64443e-05)
(0.00330896 -0.00080908 0.000170333)
(-0.00666283 0.000324798 0.000631663)
(-0.00346436 0.00120453 0.00066665)
(-0.00289162 -0.000412579 0.000411775)
(0.00998569 -0.0197807 0.000353814)
(-0.00190536 0.00201185 -0.000984643)
(0.0112585 -0.000837647 -0.00350708)
(0.00931815 -0.0164194 0.000426025)
(0.00175975 0.000544068 -7.52841e-05)
(-0.00559546 -0.00946044 -0.00121709)
(0.0133813 -0.000791393 0.000605443)
(0.00584331 0.00842934 -0.000846923)
(0.00646667 -0.00523447 -0.00217453)
(-0.0017145 0.0142147 0.000810658)
(-0.0151428 0.000664016 0.000774567)
(-0.00393347 0.00101661 0.00113114)
(0.00436424 0.00467038 0.00310489)
(0.011245 0.00455824 0.00212413)
(-0.00533434 0.0109214 -2.56563e-05)
(-0.00264889 0.00159789 -0.000119497)
(0.000618363 0.00643983 -6.83391e-06)
(0.00263876 0.00605453 -4.97636e-05)
(-0.00152487 0.00622835 5.27302e-05)
(0.000583346 0.000557608 -1.4857e-05)
(0.000785834 0.000219502 -3.96223e-06)
(0.000386599 0.000612943 -1.37977e-05)
(0.000874859 0.000874009 -3.77993e-05)
(0.000717108 0.00021389 5.05945e-05)
(0.000342137 -6.92759e-05 2.04545e-05)
(0.000377882 -3.12444e-05 1.51333e-06)
(0.000325934 -2.94988e-05 2.76082e-06)
(0.000533836 -5.90038e-05 6.70884e-06)
(0.000261469 -3.13675e-05 -8.71162e-07)
(0.000862496 -2.02102e-05 -1.25865e-06)
(0.000917684 -8.26868e-06 -1.82481e-06)
(0.00120921 -3.57271e-05 -1.48661e-06)
(0.000642951 -1.34049e-05 -4.36082e-06)
(0.00064568 -1.95427e-05 -5.37461e-06)
(0.00108587 -2.9916e-05 -4.99581e-06)
(0.00109185 -4.40578e-05 -6.16467e-06)
(0.000853218 -1.41196e-05 -1.07886e-07)
(0.000849086 -1.03456e-05 -4.15391e-07)
(0.00113116 -2.43299e-05 9.99231e-08)
(0.000845751 -9.63647e-06 6.95765e-08)
(0.000852581 -7.37843e-06 1.44591e-07)
(0.00113289 -1.66985e-05 2.01744e-07)
(0.00084084 -6.43483e-06 3.25078e-08)
(0.000843925 -5.20927e-06 5.82523e-09)
(0.00112234 -1.08766e-05 1.82688e-07)
(0.000837231 -4.26131e-06 4.95151e-08)
(0.000839937 -3.63028e-06 7.67914e-08)
(0.00111738 -7.35883e-06 1.87706e-07)
(0.000834392 -2.63602e-06 5.0192e-08)
(0.00083662 -2.34697e-06 5.17015e-08)
(0.00111311 -4.63823e-06 1.84911e-07)
(0.000831957 -1.57926e-06 4.90801e-08)
(0.0008337 -1.39029e-06 1.54361e-08)
(0.00110968 -2.77381e-06 1.84158e-07)
(0.000829788 -1.0142e-06 5.72917e-08)
(0.000831093 -8.4832e-07 2.4699e-08)
(0.00110663 -1.67465e-06 1.83775e-07)
(0.000827808 -6.64028e-07 5.94735e-08)
(0.000828953 -5.68032e-07 5.86841e-08)
(0.00110393 -1.16778e-06 1.85176e-07)
(0.000825947 -4.68501e-07 3.96432e-08)
(0.000827039 -4.31104e-07 5.15499e-08)
(0.00110125 -6.69966e-07 1.48998e-07)
(0.000824628 -3.98958e-07 2.8958e-08)
(0.000825298 1.07493e-07 9.8346e-08)
(0.0010992 -6.07682e-07 1.72929e-07)
(0.000822728 -2.95918e-07 5.17055e-08)
(0.000823637 -5.35102e-08 2.39451e-08)
(0.00109716 -5.08555e-07 1.8733e-07)
(0.000821031 -2.61831e-07 6.19375e-08)
(0.000821858 -1.25792e-07 6.8488e-08)
(0.00109473 -3.58699e-07 2.34005e-07)
(0.000819269 -3.5283e-07 1.17484e-08)
(0.000820126 -2.03585e-07 3.56546e-08)
(0.00109247 -3.90438e-07 1.85845e-07)
(0.000817539 -4.08942e-07 1.85115e-08)
(0.000818501 6.50778e-07 2.34048e-08)
(0.00109015 -5.80425e-07 1.60276e-07)
(0.000815661 -4.61268e-07 7.3801e-08)
(0.000816736 -3.73359e-08 8.16439e-08)
(0.00108758 -5.36279e-07 1.76001e-07)
(0.000814904 -2.96245e-07 6.94632e-08)
(0.000815342 2.31852e-07 8.70522e-08)
(0.00108596 -7.01677e-07 1.8516e-07)
(0.000812865 4.61663e-08 5.83151e-08)
(0.000813917 4.85484e-07 7.17586e-08)
(0.00108418 -1.03821e-07 1.52852e-07)
(0.000811203 2.73873e-07 5.82125e-08)
(0.000812123 -4.18518e-08 6.40982e-08)
(0.00108152 2.05692e-07 1.80405e-07)
(0.000809677 5.63761e-07 3.272e-08)
(0.000810533 5.56257e-07 6.26488e-08)
(0.00107943 5.4378e-07 1.29754e-07)
(0.00080846 6.94167e-07 3.09441e-08)
(0.000808932 8.82097e-07 1.25537e-07)
(0.00107772 1.05489e-06 1.12897e-07)
(0.000806453 5.32923e-07 7.20015e-08)
(0.000807292 1.30507e-07 2.1632e-08)
(0.00107561 9.19596e-07 2.66546e-07)
(0.000804946 4.55884e-07 4.77622e-08)
(0.000805788 4.20926e-07 -1.46788e-07)
(0.00107317 6.08857e-07 1.71294e-07)
(0.00080321 2.45093e-07 2.46297e-08)
(0.000804127 -8.13923e-07 1.83213e-08)
(0.00107095 7.39108e-07 2.90093e-07)
(0.000801727 -3.10387e-08 4.8076e-08)
(0.000802413 -9.30349e-08 3.94652e-08)
(0.00106887 4.40727e-08 1.79662e-07)
(0.00080026 1.41809e-08 1.69005e-08)
(0.000800966 4.64166e-08 5.11527e-08)
(0.00106696 -5.66059e-08 1.80445e-07)
(0.000798795 9.04178e-08 1.30342e-08)
(0.000799495 -8.45234e-08 1.80307e-08)
(0.00106496 1.22869e-07 1.77287e-07)
(0.000797203 1.06854e-07 4.62289e-08)
(0.000798009 -4.93276e-08 4.59149e-08)
(0.001063 1.33629e-07 1.80218e-07)
(0.000795736 5.66441e-08 4.72261e-08)
(0.000796438 5.0284e-08 6.86431e-08)
(0.00106092 1.33729e-07 1.73359e-07)
(0.000794215 -1.13922e-07 3.29143e-08)
(0.000794819 1.04421e-07 4.60037e-08)
(0.00105898 -2.06661e-08 1.72748e-07)
(0.000792488 -2.43037e-07 4.29146e-08)
(0.000793234 -2.45593e-07 3.29194e-08)
(0.00105676 -3.27153e-07 1.96334e-07)
(0.000791106 -1.7794e-07 6.49968e-08)
(0.00079185 4.98334e-07 7.07579e-08)
(0.00105464 -3.63367e-07 2.02618e-07)
(0.000789566 -1.88286e-08 4.64269e-08)
(0.000790452 4.81814e-08 6.80869e-08)
(0.00105271 -1.25851e-07 1.81677e-07)
(0.000788767 6.42199e-08 1.00109e-07)
(0.000789173 -4.12983e-07 9.2825e-08)
(0.00105127 1.02934e-07 1.25191e-07)
(0.000786801 1.14836e-07 1.06482e-07)
(0.000787758 1.85509e-07 7.30142e-08)
(0.00104934 1.32403e-07 1.35588e-07)
(0.000785459 8.20733e-08 4.21371e-08)
(0.000786115 1.74093e-07 -7.28351e-08)
(0.00104717 2.32803e-07 1.78599e-07)
(0.000784091 1.58129e-08 4.31552e-08)
(0.000784729 5.30795e-08 3.44951e-08)
(0.00104536 2.15387e-08 1.61417e-07)
(0.000782764 3.24333e-08 5.93859e-08)
(0.000783464 -2.53369e-08 4.71521e-08)
(0.00104348 3.99562e-08 1.65467e-07)
(0.000781282 1.68754e-07 6.23272e-08)
(0.000782153 1.00122e-06 4.33363e-08)
(0.00104171 2.85432e-08 1.03167e-07)
(0.000779224 2.30008e-07 4.79495e-08)
(0.000780287 1.17121e-06 4.71592e-08)
(0.00103926 3.67119e-07 1.73885e-07)
(0.000777958 2.08039e-07 1.04429e-07)
(0.000778554 -6.15866e-09 5.34183e-08)
(0.00103701 2.19513e-07 1.71961e-07)
(0.000777244 -1.33893e-06 1.07669e-07)
(0.00103546 3.40735e-07 1.97878e-07)
(0.0108558 -0.00129147 8.1895e-05)
(-0.00454137 -0.00371685 0.000112363)
(-0.003797 -0.00445121 -0.000214307)
(-0.00332305 -0.000492181 -5.90181e-05)
(0.0124218 0.000231143 0.000678364)
(-0.00416265 -0.00273738 3.64022e-05)
(0.00815265 0.000823329 7.05861e-05)
(0.0190282 0.00178949 0.000605189)
(0.0100821 0.000790937 -1.44298e-05)
(0.00148631 -0.00107549 0.00172014)
(0.00303278 0.00846494 0.00040993)
(0.00161731 0.0133009 0.000282909)
(0.0082566 -0.00207681 0.000766934)
(0.0062743 -0.00370223 -0.00122529)
(-0.0158819 0.0026259 -0.000992435)
(0.0334582 0.00622674 -0.0019056)
(0.0136074 0.034279 -0.00145263)
(0.0226503 0.00912154 -0.00667038)
(-0.00367673 -0.00382916 -6.15001e-05)
(-0.00221737 0.00155641 -7.14121e-05)
(0.000362887 -0.00261634 0.000496289)
(0.00160673 -0.00155141 0.000548487)
(0.000223279 0.00234924 -0.000572869)
(0.00321398 -0.00686418 -0.000637483)
(0.00685923 0.00116796 -0.000368649)
(-0.00223 -0.00635698 -0.000576309)
(0.00156116 -0.00462703 -0.00221383)
(0.00205956 0.000250936 -0.000275501)
(0.00193668 -0.00678732 -0.000289123)
(0.00569912 -0.00904316 -0.0013928)
(0.00125572 -0.000111167 -0.0115233)
(0.0246262 0.00462347 0.00618604)
(0.0178796 0.000789002 -0.0108245)
(0.0187789 0.00153438 0.0126233)
(0.00443654 -0.00474203 5.23301e-05)
(0.00400094 6.59658e-05 0.00030956)
(0.00337603 -0.00300137 0.000129054)
(0.00180007 -0.00300683 -3.98001e-05)
(0.00189819 -0.00712499 -6.43003e-05)
(0.00124584 -0.000553911 9.53314e-06)
(0.000865015 0.000139794 -8.03861e-05)
(0.00123102 -8.93135e-05 1.33386e-05)
(0.000784128 -0.000215288 9.786e-06)
(0.00145834 -0.000202993 -5.39087e-05)
(0.000855906 -0.000252294 8.8967e-06)
(0.000155329 -0.000528566 -0.000106601)
(0.00147583 0.000752511 6.85455e-05)
(0.00128277 7.02533e-05 -7.53468e-06)
(0.00160745 -8.70305e-05 -2.87162e-05)
(0.00119772 -0.000194827 -1.14426e-05)
(0.000919124 0.000116368 0.000111064)
(0.00114511 0.000260537 -2.91616e-06)
(0.000975666 -6.87631e-05 0.000105104)
(0.00103523 -3.93058e-05 1.77318e-05)
(0.000469682 -1.41881e-05 2.45618e-05)
(0.00051852 -2.72788e-05 3.51164e-05)
(0.000686106 -1.62876e-05 6.2613e-05)
(0.000304747 -4.02573e-06 1.5383e-05)
(0.000864808 -4.71564e-06 -9.82016e-07)
(0.000925721 -9.39206e-07 -1.47102e-06)
(0.0012373 -7.82112e-06 -1.1553e-06)
(0.000642403 -1.08282e-05 -4.87374e-06)
(0.000640984 -1.02364e-05 -5.7952e-06)
(0.00107319 -3.17525e-05 -5.20637e-06)
(0.00106859 -2.83169e-05 -6.05928e-06)
(0.000856119 -5.30416e-06 -1.63097e-07)
(0.000848344 6.62653e-08 -4.63982e-07)
(0.00113159 -1.03842e-05 7.5565e-08)
(0.000848775 -3.789e-06 8.0885e-08)
(0.00085452 -5.84997e-07 1.74503e-07)
(0.00113865 -6.92291e-06 2.10122e-07)
(0.000842923 -2.61008e-06 5.00858e-08)
(0.000845427 1.14159e-07 2.07441e-08)
(0.001126 -5.01347e-06 1.82281e-07)
(0.000839163 -1.70464e-06 7.8986e-08)
(0.000841088 -1.26489e-06 9.34859e-08)
(0.00112025 -3.0168e-06 2.05695e-07)
(0.00083589 -1.28297e-06 1.69574e-08)
(0.000837159 -2.98253e-07 4.86157e-08)
(0.00111564 -2.15229e-06 1.85357e-07)