/*--------------------------------*- C++ -*----------------------------------*\
| =========                 |                                                 |
| \\      /  F ield         | OpenFOAM: The Open Source CFD Toolbox           |
|  \\    /   O peration     | Version:  5.0                                   |
|   \\  /    A nd           | Web:      www.OpenFOAM.org                      |
|    \\/     M anipulation  |                                                 |
\*---------------------------------------------------------------------------*/
FoamFile
{
    version     2.0;
    format      ascii;
    class       surfaceVectorField;
    location    "3.4";
    object      Uf_0;
}
// * * * * * * * * * * * * * * * * * * * * * * * * * * * * * * * * * * * * * //

dimensions      [0 1 -1 0 0 0 0];

internalField   nonuniform List<vector> 
25186
(
(0.00441054 0.000139731 -0.000212046)
(0.00524397 -0.00361683 -0.000672436)
(0.00988171 -0.00283644 -9.27338e-05)
(0.00468832 0.00171471 5.34105e-05)
(0.00425778 -0.00689379 2.53965e-06)
(0.0016006 0.00385548 0.000590347)
(0.00309144 0.00306556 -5.39782e-05)
(0.00363622 0.00578987 0.000190853)
(0.00639801 -0.0020053 0.000270899)
(-0.00948068 0.0015912 -0.000551168)
(0.022811 0.00758319 0.000232833)
(-0.0105393 -0.00670886 -0.00182863)
(-0.00136353 0.00200228 -0.000750894)
(0.0129681 -0.00755272 0.00134408)
(-0.0167696 -0.0139853 -0.00012574)
(-5.18276e-05 -0.00486762 0.00445991)
(-0.00274655 -0.0200691 -0.00278834)
(0.00717216 -0.00570673 2.50825e-05)
(0.00231067 -0.0174855 -0.000476741)
(-0.00712177 -0.0122829 -0.000681579)
(-0.00515889 -0.00154806 0.000550296)
(-0.00356762 -0.00574301 0.000962504)
(0.00287818 -0.00213213 0.00095148)
(-0.0241765 -0.0103239 0.00667061)
(0.0031066 0.000452241 1.32123e-05)
(0.00355463 -0.00135243 2.19302e-06)
(0.00585029 0.00573643 -0.000220889)
(0.00448883 -0.00176407 -0.000327266)
(0.00070373 -4.59371e-05 1.92474e-05)
(0.000345115 -3.83487e-05 1.84266e-05)
(0.000433421 -3.51281e-05 4.39545e-05)
(0.000216018 -1.95032e-05 1.13781e-05)
(0.000774841 -1.72435e-05 -9.15938e-07)
(0.000539074 -3.52333e-05 -8.84711e-07)
(0.00107879 -4.45507e-05 -1.0266e-06)
(0.000529037 -3.88048e-05 -4.08868e-06)
(0.000549708 -4.81612e-05 -4.93168e-06)
(0.000885515 -6.33746e-05 -3.65264e-06)
(0.000914172 -8.28763e-05 -4.47806e-06)
(0.000530249 -4.89537e-05 -3.77521e-06)
(0.000901297 -4.98783e-05 -3.18784e-07)
(0.000880299 -7.89034e-05 -4.5134e-06)
(0.000783641 -1.59737e-06 -1.05806e-07)
(0.000800931 -8.05443e-06 -6.36601e-07)
(0.00103351 7.463e-06 7.18671e-08)
(0.000799024 -4.64669e-06 8.98817e-08)
(0.000788663 -1.77661e-05 -1.93812e-07)
(0.00105864 -6.23298e-06 1.89175e-07)
(0.000807374 -2.70145e-06 7.68878e-08)
(0.000806826 -1.02495e-05 1.35311e-07)
(0.00107308 -2.74093e-06 1.80976e-07)
(0.000813242 -1.92326e-06 3.30068e-08)
(0.000812196 -7.09197e-06 4.92528e-08)
(0.00108155 -2.37164e-06 1.80674e-07)
(0.000816687 -1.10921e-06 4.92453e-08)
(0.000816459 -4.82022e-06 3.12319e-08)
(0.00108761 -1.47715e-06 1.99494e-07)
(0.000818008 -5.94159e-07 7.04384e-08)
(0.000818183 -3.17072e-06 7.00039e-08)
(0.0010904 -6.79509e-07 2.10139e-07)
(0.000817926 -3.75947e-07 1.46804e-07)
(0.000818546 -1.76682e-06 5.05464e-08)
(0.00109089 -3.97718e-07 1.87266e-07)
(0.000817859 -3.01669e-07 1.49349e-07)
(0.000818226 -1.48446e-06 1.75947e-07)
(0.00109068 -2.99254e-07 1.89305e-07)
(0.000816861 -2.09365e-07 6.7388e-08)
(0.000817525 -5.17752e-07 5.41607e-08)
(0.00108989 -3.04098e-07 1.84265e-07)
(0.00081579 -5.88014e-08 6.35347e-08)
(0.000816578 -4.009e-07 7.5283e-08)
(0.00108859 -1.0427e-07 1.78659e-07)
(0.000814028 -1.41278e-07 1.28115e-07)
(0.000815042 -3.25833e-07 6.24511e-08)
(0.00108649 1.14235e-08 1.73147e-07)
(0.000812859 -2.32883e-07 1.31501e-07)
(0.000813508 -7.91126e-08 1.16998e-07)
(0.00108445 -3.47795e-07 2.31802e-07)
(0.000811552 -8.06363e-08 5.54011e-08)
(0.000812285 -8.89891e-09 6.8893e-08)
(0.00108296 -1.82116e-07 1.92274e-07)
(0.000809969 3.15114e-09 6.31623e-08)
(0.000810764 1.31986e-07 3.85245e-08)
(0.00108091 7.37806e-08 1.5542e-07)
(0.000808569 8.79786e-09 5.81912e-08)
(0.000809227 -9.11468e-07 4.92604e-08)
(0.00107889 4.19264e-08 2.1871e-07)
(0.000807106 1.3183e-07 2.36595e-08)
(0.000807874 -1.58936e-07 7.27422e-08)
(0.00107703 7.10345e-08 1.84924e-07)
(0.000805417 2.62809e-07 3.23202e-08)
(0.000806397 2.21724e-07 3.08257e-08)
(0.00107493 3.67469e-07 1.60109e-07)
(0.000804017 2.33256e-07 6.39192e-08)
(0.000804777 4.2322e-07 6.98454e-08)
(0.00107283 4.41509e-07 1.65062e-07)
(0.000802783 1.43652e-07 5.54214e-08)
(0.000803311 -5.28746e-07 9.37391e-08)
(0.00107105 2.79637e-07 2.09811e-07)
(0.000801263 1.70029e-07 5.58984e-08)
(0.000801997 3.16128e-08 4.59511e-08)
(0.00106937 1.45448e-07 1.74494e-07)
(0.000799386 2.18899e-09 1.32438e-07)
(0.000800166 -3.1225e-07 3.8294e-08)
(0.00106694 2.93115e-07 2.51668e-07)
(0.000798186 -4.95751e-07 5.73843e-08)
(0.000798309 -4.95001e-07 1.36592e-07)
(0.00106482 -3.2329e-07 1.7017e-07)
(0.000796213 -7.03017e-07 -4.80247e-08)
(0.000797064 3.26798e-06 4.35697e-08)
(0.00106282 -1.0323e-06 -3.82473e-08)
(0.000794615 -5.62385e-07 3.95371e-08)
(0.000795682 1.08676e-06 2.42309e-08)
(0.00106024 -8.63756e-07 8.47228e-08)
(0.000793733 -3.48244e-07 7.19149e-08)
(0.000794427 1.71962e-07 1.46701e-07)
(0.00105865 -6.32609e-07 1.69299e-07)
(0.00079262 -6.80223e-08 4.5123e-08)
(0.000793393 1.21688e-07 1.42365e-07)
(0.0010575 -2.60801e-07 1.08581e-07)
(0.000790857 5.82938e-08 4.0405e-08)
(0.000791795 1.06097e-07 4.10869e-08)
(0.00105551 1.20789e-07 1.59639e-07)
(0.000789317 2.60244e-08 1.00124e-07)
(0.000790047 3.09927e-07 4.97653e-08)
(0.00105324 7.87232e-08 1.69921e-07)
(0.00078789 6.00863e-08 8.31864e-08)
(0.000788705 9.73336e-08 9.97807e-08)
(0.00105124 3.49557e-08 1.71221e-07)
(0.000786505 2.28938e-07 3.53073e-08)
(0.00078734 1.03865e-07 3.34471e-08)
(0.00104925 1.66834e-07 1.69091e-07)
(0.000784962 3.96605e-07 6.25344e-08)
(0.000785874 2.91094e-07 4.86273e-08)
(0.00104737 5.09483e-07 1.8154e-07)
(0.000784117 2.59085e-07 4.79705e-08)
(0.000784484 -1.00021e-06 6.30777e-08)
(0.00104589 5.84168e-07 1.95131e-07)
(0.000782562 7.21455e-08 5.16511e-08)
(0.000783148 1.92015e-07 4.32665e-08)
(0.00104419 1.05728e-07 1.7429e-07)
(0.000781214 -1.96693e-07 8.93661e-08)
(0.000781703 1.55969e-07 4.50082e-08)
(0.00104208 7.97456e-08 1.5939e-07)
(0.000780285 -3.8304e-07 1.75888e-07)
(0.000780579 1.01231e-06 8.8688e-08)
(0.00104085 -6.08018e-07 2.42575e-07)
(0.0007786 -1.94952e-07 1.41784e-07)
(0.000779377 -3.07901e-07 1.71934e-07)
(0.00103896 -4.02156e-07 1.86694e-07)
(0.000776958 -1.23533e-07 3.88327e-08)
(0.000777755 1.17897e-08 4.63597e-08)
(0.00103663 -1.33341e-07 1.75182e-07)
(0.000775654 -1.97902e-07 5.34492e-08)
(0.00077627 8.58641e-10 4.80704e-08)
(0.00103474 -2.34199e-07 1.61487e-07)
(0.00077431 -3.54184e-07 6.59794e-08)
(0.000774945 -1.45855e-07 7.4208e-08)
(0.00103288 -2.91759e-07 1.7609e-07)
(0.00077292 -3.83232e-07 2.08074e-08)
(0.000773645 -4.01551e-07 5.56854e-08)
(0.00103127 -6.01967e-07 1.76297e-07)
(0.000771081 -2.53621e-07 2.48068e-08)
(0.000772002 1.27059e-06 3.07251e-08)
(0.00102898 -3.94003e-07 8.16199e-08)
(0.000770607 -4.76427e-07 5.21479e-08)
(0.00102662 -3.02328e-07 2.58744e-07)
(0.00890815 -0.00351743 -0.000153443)
(0.000993273 0.00337578 -0.000388485)
(0.00240119 -0.00209618 -0.0011406)
(0.00156948 0.00750118 -3.90338e-05)
(0.00660502 -0.00470172 8.42805e-05)
(0.00746189 -0.00518407 0.00059332)
(0.00228408 -0.00860788 0.000610353)
(0.0147563 0.00608725 0.000978638)
(0.00394306 -0.0126005 0.00244701)
(0.0053698 0.000811735 0.000399682)
(0.00232026 -0.000940933 0.000203706)
(0.00381035 0.00266572 0.000936738)
(-0.00438625 -0.00219428 0.000498902)
(0.00367349 0.0094718 -0.000391369)
(-0.00261388 0.00452058 0.000218912)
(0.00332576 0.013647 0.000280153)
(-0.00737306 0.00388566 0.0007852)
(-0.00793095 0.0194365 -0.0030649)
(-0.0114871 0.0147781 0.00258945)
(-0.01543 0.00724173 -0.00431237)
(-0.0048995 0.00479768 -0.00074174)
(-0.0034924 0.00703757 0.0014508)
(-0.0182776 -0.000778377 -0.00195041)
(-0.0166474 0.00373284 0.000557861)
(-0.0150415 0.00930377 0.00473275)
(-0.0141525 -0.02116 -0.000698872)
(-0.0218037 -0.010434 0.00092455)
(-0.0191191 -0.0120435 -0.00138599)
(-0.0151289 -0.0132364 -0.000490274)
(-0.00792874 -0.0174704 -0.000757898)
(-0.000344581 -0.0114391 -0.000252773)
(0.00360059 -0.0160652 0.000562012)
(-2.76668e-05 -0.00701139 -4.70831e-05)
(0.0112724 -0.00888505 -1.77102e-05)
(0.00364286 -0.0162004 0.000133449)
(0.00086123 -0.000309585 2.55254e-05)
(0.00034493 -2.50302e-05 3.51545e-05)
(0.00027859 -0.000102857 4.83166e-05)
(0.000381556 -3.76261e-05 6.06047e-05)
(0.000204809 -2.67035e-05 1.71982e-05)
(0.000428496 -1.90098e-05 -1.12618e-06)
(0.000438793 -3.56817e-05 -2.87917e-06)
(0.000412643 -4.05509e-05 -6.16751e-08)
(0.000677956 -4.08912e-05 -4.93101e-07)
(0.000786601 -2.90622e-05 -7.24752e-07)
(0.000852815 -5.69613e-05 -1.36306e-06)
(0.00110764 -3.47618e-05 -8.54887e-07)
(0.000552544 -3.78137e-05 -3.58969e-06)
(0.000562651 -3.73636e-05 -4.70812e-06)
(0.000907597 -6.66775e-05 -4.32804e-06)
(0.000924167 -6.53167e-05 -5.95162e-06)
(0.000802757 -2.27373e-05 -1.48491e-07)
(0.000796765 -3.85001e-05 -4.92417e-07)
(0.0010476 -3.47901e-05 7.55068e-08)
(0.000811548 -1.40874e-05 1.07704e-07)
(0.000817687 -2.36676e-05 1.78334e-07)
(0.0010803 -2.08669e-05 2.07987e-07)
(0.00081624 -9.00923e-06 4.74838e-08)
(0.000818573 -1.49573e-05 3.54049e-08)
(0.00108544 -1.36158e-05 1.78768e-07)
(0.000818364 -5.68882e-06 5.19778e-08)
(0.000820629 -9.397e-06 5.5317e-08)
(0.00109032 -8.49087e-06 1.73175e-07)
(0.000818995 -3.66556e-06 5.01182e-08)
(0.000820725 -6.01155e-06 5.09149e-08)
(0.00109182 -5.50815e-06 1.81854e-07)
(0.000818954 -2.33083e-06 7.96483e-08)
(0.000820222 -3.77502e-06 5.2431e-08)
(0.00109211 -3.54848e-06 1.83074e-07)
(0.00081798 -1.48907e-06 8.07974e-08)
(0.000819283 -2.26954e-06 8.14262e-08)
(0.00109136 -2.2339e-06 1.79618e-07)
(0.000817243 -1.04336e-06 6.20489e-08)
(0.000818086 -1.64082e-06 5.19538e-08)
(0.00109019 -1.4762e-06 1.83272e-07)
(0.000816141 -7.86838e-07 7.42035e-08)
(0.000816901 -2.16725e-06 7.34816e-08)
(0.00108889 -1.1407e-06 2.60286e-07)
(0.000814247 -4.98683e-07 5.13163e-08)
(0.000815405 1.03479e-06 9.96252e-08)
(0.00108687 -8.62451e-07 1.13268e-07)
(0.000813013 -2.20204e-07 5.44053e-08)
(0.000813858 -5.1452e-07 3.42578e-08)
(0.00108483 -4.08778e-07 1.80881e-07)
(0.00081154 -9.5192e-08 5.20262e-08)
(0.000812441 -1.3472e-07 8.2127e-08)
(0.00108301 -1.34554e-07 1.80525e-07)
(0.000809993 5.94569e-08 2.46192e-08)
(0.000810956 -2.69608e-07 3.33563e-08)
(0.00108096 -7.87593e-08 2.0626e-07)
(0.000808518 2.11233e-07 6.38039e-08)
(0.000809416 2.359e-07 4.59095e-08)
(0.00107885 2.93342e-07 9.24981e-08)
(0.000807213 1.95704e-07 7.99217e-08)
(0.000807852 -7.45692e-07 3.99527e-08)
(0.00107712 3.52766e-07 1.9954e-07)
(0.000805715 1.29456e-07 6.83385e-08)
(0.000806313 -2.09224e-07 5.709e-08)
(0.00107527 2.94829e-07 2.06665e-07)
(0.000804051 3.69022e-08 9.96577e-08)
(0.00080466 -3.83519e-07 4.52434e-08)
(0.001073 1.56706e-07 2.47729e-07)
(0.000802514 -1.36061e-07 8.42839e-08)
(0.000803095 -5.37656e-08 9.00323e-08)
(0.00107082 -1.09348e-08 1.46942e-07)
(0.000801155 -5.39406e-07 2.83492e-08)
(0.000801495 -4.64685e-08 5.7413e-08)
(0.001069 -3.29288e-07 1.70651e-07)
(0.000798808 -6.97459e-07 4.24173e-08)
(0.000799971 2.27651e-06 -3.68888e-08)
(0.00106656 -1.12687e-06 7.03558e-08)
(0.000797177 -6.4618e-07 1.22807e-07)
(0.000798376 -3.32889e-07 7.91188e-08)
(0.0010637 -7.73004e-07 1.78513e-07)
(0.000796595 -5.66833e-07 1.15831e-07)
(0.000797165 5.99296e-08 1.23745e-07)
(0.00106234 -9.417e-07 3.24323e-07)
(0.000795393 -7.52907e-08 1.31357e-07)
(0.000796297 -1.90267e-07 6.12948e-08)
(0.00106122 -5.22134e-07 2.43109e-07)
(0.000794091 3.25591e-07 2.17152e-07)
(0.000794928 4.63652e-07 2.56551e-07)
(0.00105946 4.01488e-07 1.41272e-07)
(0.000792819 1.81899e-07 1.3836e-07)
(0.000793211 6.24403e-07 1.7747e-07)
(0.00105783 5.66412e-07 1.24335e-07)
(0.000790784 -2.17099e-08 5.04445e-08)
(0.000791539 8.47345e-07 6.62746e-08)
(0.00105556 -5.07439e-09 1.75911e-07)
(0.000789391 6.06434e-08 4.94067e-08)
(0.000790149 -2.44636e-07 4.76682e-08)
(0.00105317 6.80791e-09 2.11353e-07)
(0.000788231 1.60398e-07 5.0062e-08)
(0.000788829 -2.08145e-07 4.96471e-08)
(0.00105151 1.84439e-07 1.73189e-07)
(0.000786709 2.6233e-07 4.67624e-08)
(0.000787465 1.49254e-07 5.08733e-08)
(0.00104982 2.80428e-07 1.80943e-07)
(0.000785345 3.98112e-07 4.91661e-08)
(0.000786042 3.74961e-07 3.97978e-08)
(0.00104778 4.96201e-07 1.64263e-07)
(0.000783495 3.53717e-07 5.83798e-08)
(0.000784427 -2.25534e-07 5.49182e-08)
(0.00104553 6.16212e-07 1.58658e-07)
(0.000782371 1.75498e-07 3.66231e-08)
(0.000782925 -5.01755e-08 4.00057e-08)
(0.00104361 3.19606e-07 1.6685e-07)
(0.000780899 4.99727e-08 4.43166e-08)
(0.000781546 7.58142e-07 4.17428e-08)
(0.00104182 1.14011e-07 1.3742e-07)
(0.000779832 -1.14704e-07 8.47081e-08)
(0.000780374 1.41804e-07 3.78092e-08)
(0.00104007 -2.61338e-08 2.07225e-07)
(0.000778573 -1.83808e-07 7.65488e-08)
(0.000779292 -8.74562e-08 1.02361e-07)
(0.00103872 -3.52896e-07 1.45412e-07)
(0.00077698 -1.42091e-07 5.55968e-08)
(0.000777809 9.59765e-08 6.98265e-08)
(0.00103672 -1.98808e-07 1.85122e-07)
(0.000775543 -5.43619e-08 6.88213e-08)
(0.00077638 -1.62248e-09 5.49986e-08)
(0.00103467 -2.15305e-07 1.76876e-07)
(0.000774305 -6.00318e-08 6.39197e-08)
(0.000774938 3.22818e-07 6.97922e-08)
(0.00103296 6.72048e-08 1.23844e-07)
(0.000772855 -2.59771e-07 6.56107e-08)
(0.000773396 -4.3481e-07 6.03926e-08)
(0.00103109 -1.86839e-07 1.79218e-07)
(0.000771284 -3.01164e-07 5.80597e-08)
(0.000771953 4.01048e-07 7.27218e-08)
(0.00102899 -4.71258e-07 2.51063e-07)
(0.000770982 9.37176e-08 5.75318e-08)
(0.0010276 -3.18053e-07 8.79311e-08)
(-0.00149539 0.0034273 -0.000150918)
(0.00114211 0.00423692 6.17109e-05)
(-0.0023194 0.00266278 0.000136394)
(0.000179971 -0.00512865 -4.80422e-05)
(0.00188318 -0.000768382 -5.13131e-07)
(-0.0051562 0.000967873 -0.000489691)
(0.000977583 0.000766472 9.55196e-05)
(0.00223696 0.000294777 -3.7386e-05)
(0.00167435 0.00177449 0.000556395)
(-0.00412475 -0.0145549 0.00158371)
(-0.00340474 -0.00335692 0.000557376)
(-0.00128879 -0.00557776 -0.000308934)
(-0.00107694 -0.0118299 0.000522225)
(-0.00395723 -0.00728015 -0.000224782)
(0.00206474 -0.0139156 0.00235929)
(0.00113065 -0.003562 0.00242886)
(-0.00590857 -0.00429964 0.000765517)
(0.00220464 -0.00294261 0.000656095)
(0.0106084 -0.0049763 -0.00189512)
(-0.0159288 -0.0154781 -0.00129821)
(-0.003059 -0.0142926 -0.000191309)
(-0.00358292 -0.0101062 -0.000882457)
(0.00775097 -0.00860411 0.00259657)
(-0.000775983 -0.00224556 -0.0018656)
(0.00812769 -0.00602152 0.000471002)
(-0.0130908 -0.0123895 -0.000312703)
(-0.00152003 -0.00238167 0.00516461)
(-0.0137938 -0.0170441 0.000136843)
(-0.00767883 -0.0167711 9.51728e-05)
(-0.00406199 0.0228988 -8.5978e-05)
(0.0121477 0.00898622 0.00360643)
(-0.007228 0.0136999 -0.000518039)
(0.00366725 -0.000301853 0.000545868)
(0.00175078 0.0121729 0.0031865)
(0.00964413 -0.000879299 0.000218849)
(0.0205271 0.0158906 -0.000353052)
(0.0047706 -0.000275339 0.000210788)
(0.00835804 0.00166055 0.00125064)
(0.0175349 0.0137667 0.00115539)
(8.80068e-05 -0.000528975 3.8999e-05)
(0.00119898 7.0129e-05 4.70042e-05)
(0.00110101 -0.00110102 9.50584e-05)
(0.000955045 -0.000213975 7.95368e-06)
(0.000931245 -0.000232545 5.83324e-05)
(0.000299662 -3.37499e-05 -1.88813e-06)
(0.000459288 -6.75507e-05 -2.96812e-06)
(0.000461455 -9.00466e-05 1.31556e-07)
(0.00071873 -0.000122218 -7.44085e-07)
(0.00030625 -4.77619e-05 -1.34886e-06)
(0.000541051 -3.95382e-05 -1.72403e-06)
(0.000554895 -7.56348e-05 3.04751e-06)
(0.000426479 -5.91024e-05 -1.9719e-07)
(0.000817486 -5.8074e-05 -1.13101e-06)
(0.000888211 -7.67869e-05 -1.86333e-06)
(0.00116533 -9.24437e-05 -9.62076e-07)
(0.000586081 -6.24877e-05 -3.80088e-06)
(0.000610623 -5.14665e-05 -5.20432e-06)
(0.000954668 -0.000105305 -4.65891e-06)
(0.0010069 -8.1674e-05 -6.68095e-06)
(0.00082204 -3.50864e-05 -1.65811e-07)
(0.000825674 -4.43843e-05 -4.25308e-07)
(0.00107652 -5.46384e-05 5.39907e-08)
(0.000823367 -2.18413e-05 1.06082e-07)
(0.000834334 -2.77621e-05 1.62376e-07)
(0.00109966 -3.41125e-05 2.0851e-07)
(0.000823657 -1.36106e-05 4.32317e-08)
(0.000828918 -1.72048e-05 -3.8927e-08)
(0.00109708 -2.11416e-05 1.69008e-07)
(0.00082312 -8.56827e-06 5.42555e-08)
(0.000826967 -1.07372e-05 9.32094e-10)
(0.00109779 -1.32886e-05 1.78166e-07)
(0.000822012 -5.39806e-06 5.32272e-08)
(0.00082471 -6.6906e-06 5.34621e-08)
(0.00109661 -8.3875e-06 1.83906e-07)
(0.000820686 -3.42482e-06 5.41995e-08)
(0.000822703 -4.17259e-06 5.24861e-08)
(0.001095 -5.26776e-06 1.83587e-07)
(0.000819348 -2.18913e-06 5.25921e-08)
(0.000820837 -2.69241e-06 5.25417e-08)
(0.00109328 -3.38916e-06 1.8636e-07)
(0.00081771 -1.4336e-06 6.33795e-08)
(0.000819036 -1.51932e-06 5.46906e-08)
(0.00109127 -2.14799e-06 1.75746e-07)
(0.00081641 -1.17005e-06 9.88948e-08)
(0.000817235 -3.07131e-06 3.14795e-08)
(0.00108936 -1.49533e-06 2.17331e-07)
(0.000814791 -9.42161e-07 8.25877e-08)
(0.000815693 1.10347e-07 9.45164e-08)
(0.00108741 -1.47493e-06 2.46583e-07)
(0.000813373 -6.14949e-07 6.19642e-08)
(0.000814269 -7.1715e-07 3.9633e-08)
(0.00108536 -9.12444e-07 1.80749e-07)
(0.000811819 -3.85854e-07 6.34727e-08)
(0.000812729 -8.48618e-07 -5.06828e-08)
(0.00108337 -6.68953e-07 2.2878e-07)
(0.00081044 -2.10534e-07 5.46426e-08)
(0.000811177 -4.3355e-07 4.7455e-08)
(0.00108145 -3.35649e-07 1.75086e-07)
(0.000808744 -1.00264e-07 2.20601e-08)
(0.000809554 -5.53053e-07 4.63028e-08)
(0.00107943 -2.00269e-07 2.46614e-07)
(0.000806836 -1.1253e-07 1.71155e-08)
(0.000807838 2.44627e-07 2.77321e-08)
(0.00107703 -4.17054e-08 1.42123e-07)
(0.000805391 -1.41472e-07 3.39987e-08)
(0.000806277 -1.58115e-07 1.61514e-07)
(0.00107469 -2.9589e-07 1.68089e-07)
(0.000803625 -1.5373e-07 3.56038e-08)
(0.000804646 4.27728e-07 3.39246e-08)
(0.00107244 -1.40658e-07 1.43139e-07)
(0.000802166 -2.10953e-07 6.31718e-08)
(0.000803024 -6.42099e-08 5.89183e-08)
(0.00107044 -2.67613e-07 1.74186e-07)
(0.000800218 -2.47288e-07 -7.79522e-09)
(0.00080145 -1.5213e-07 7.33677e-08)
(0.00106798 -2.47244e-07 2.24383e-07)
(0.000799671 8.08868e-09 -2.23849e-10)
(0.00080029 -9.91074e-07 -1.67275e-08)
(0.00106639 -3.40818e-07 3.24626e-07)
(0.000797975 5.4589e-07 8.00427e-08)
(0.000799047 -8.59291e-07 7.63912e-08)
(0.00106506 4.18823e-07 2.331e-07)
(0.000797095 7.30405e-07 6.92278e-08)
(0.000797393 -1.16474e-06 4.24379e-08)
(0.00106314 1.05338e-06 2.10662e-07)
(0.00079585 5.26167e-07 1.86428e-07)
(0.000796039 -1.94173e-06 2.6013e-09)
(0.00106192 8.95168e-07 2.80678e-07)
(0.000794166 3.09026e-07 2.16893e-07)
(0.000794654 4.1894e-07 1.7791e-07)
(0.00106001 5.21246e-07 1.99062e-07)
(0.000791834 6.81034e-08 1.05419e-07)
(0.000792909 1.48012e-07 8.87617e-08)
(0.00105699 3.22312e-07 2.88133e-07)
(0.000790832 -3.32899e-08 6.35041e-08)
(0.000791412 5.15895e-07 6.99244e-08)
(0.00105481 -1.14176e-07 1.60092e-07)
(0.000789625 5.6509e-08 4.7908e-08)
(0.000790262 -2.96347e-08 4.43225e-08)
(0.00105347 3.59416e-08 1.39842e-07)
(0.000788067 4.57052e-08 5.0458e-08)
(0.000788815 -2.89014e-08 8.8123e-08)
(0.00105158 1.11923e-07 1.74139e-07)
(0.00078674 3.47795e-08 4.39121e-08)
(0.000787452 8.41986e-08 5.16677e-08)
(0.00104963 1.30904e-08 1.71327e-07)
(0.00078529 2.36974e-09 4.55452e-08)
(0.000786002 5.01235e-07 2.69976e-08)
(0.00104779 5.26712e-08 1.68989e-07)
(0.000783671 1.03726e-08 3.65487e-08)
(0.000784437 -2.22522e-07 4.42006e-08)
(0.00104567 -7.70247e-08 1.93427e-07)
(0.000782219 9.10568e-08 4.51249e-08)
(0.000783025 5.041e-08 3.66137e-08)
(0.00104356 7.5947e-08 1.71601e-07)
(0.00078082 1.97173e-07 3.52365e-08)
(0.000781678 1.6965e-07 6.45641e-08)
(0.00104165 1.40505e-07 2.16762e-07)
(0.00078002 1.69984e-07 5.54426e-08)
(0.000780339 6.30332e-07 5.82798e-08)
(0.00104027 4.1353e-07 8.47299e-08)
(0.000778524 4.78721e-08 9.56491e-08)
(0.000779138 2.4847e-08 2.47002e-08)
(0.00103875 1.37634e-07 1.74729e-07)
(0.000777192 9.75501e-08 6.92329e-08)
(0.00077787 -6.85314e-08 6.58642e-08)
(0.0010368 1.25905e-07 1.79433e-07)
(0.000775754 2.17303e-07 5.5965e-08)
(0.000776528 -1.30296e-07 4.71619e-08)
(0.00103507 2.51509e-07 1.8614e-07)
(0.000774038 2.1124e-07 6.6268e-08)
(0.000774929 1.63497e-07 6.86184e-08)
(0.00103292 3.90297e-07 2.13206e-07)
(0.000772492 1.08293e-07 6.74999e-08)
(0.000773266 -6.82957e-08 4.75652e-08)
(0.0010306 2.17411e-07 1.5884e-07)
(0.000771459 7.21407e-08 7.21985e-08)
(0.000771907 -2.27252e-07 5.17872e-08)
(0.00102883 1.12138e-07 1.84243e-07)
(0.000770892 1.26125e-07 6.63358e-08)
(0.0010276 9.42836e-08 1.60605e-07)
(0.00361957 -0.00156332 0.000141269)
(0.00128857 -0.00298301 2.83107e-05)
(0.00441025 -0.00198618 0.000214164)
(0.00140844 -0.000873045 -3.24927e-05)
(0.00488344 0.00104375 0.000104405)
(0.00627399 0.00299887 -0.0001346)
(0.00401265 -0.00102509 0.000191093)
(0.00237354 -0.00354073 -5.86742e-06)
(0.00359606 -0.000160569 0.000152457)
(-0.00727022 0.000732336 0.000911345)
(-0.00208207 0.00104857 0.000941861)
(-0.00280125 -0.000418226 0.000513578)
(0.0108895 -0.027351 -5.39802e-05)
(-0.000713063 0.00124201 -0.00095266)
(0.0100995 -0.00133551 -0.00291047)
(0.0075828 -0.0198687 0.000340687)
(-0.00359229 -8.52646e-06 -0.000195927)
(-0.00558593 -0.0146909 -0.00174438)
(0.0165286 -0.001502 0.000458241)
(0.0054992 0.0130446 -0.00172351)
(0.00587064 -0.0065686 -0.00354769)
(0.00209416 0.0132915 0.000528324)
(-0.0135797 -0.00140897 0.000732198)
(-0.0019329 -0.000477033 0.00127748)
(0.00621615 0.00535541 0.00323009)
(0.0138422 0.00432719 0.00237442)
(-0.00878793 0.00789834 -0.00024506)
(-0.00236086 -0.00106931 -0.000231322)
(0.000673922 0.00501325 -4.20762e-05)
(0.00265317 0.00536208 -6.12306e-05)
(-0.0018363 0.00400749 -8.46891e-05)
(0.00046826 0.000233231 -1.22321e-05)
(0.000663816 2.88138e-05 -4.99179e-06)
(0.000343961 0.000365832 -1.4291e-05)
(0.000762591 0.000600013 -3.81405e-05)
(0.000651197 -3.83182e-05 4.93931e-05)
(0.000338197 -9.61383e-05 1.96208e-05)
(0.000365122 -6.2071e-05 1.55868e-06)
(0.00032542 -5.68915e-05 2.52866e-06)
(0.00052435 -9.60747e-05 6.47069e-06)
(0.000257601 -5.32507e-05 -8.93942e-07)
(0.000855768 -5.31617e-05 -1.1581e-06)
(0.000925689 -4.8537e-05 -1.63652e-06)
(0.00119634 -8.55296e-05 -1.5205e-06)
(0.000632452 -5.27513e-05 -4.09405e-06)
(0.000648114 -5.74222e-05 -5.04654e-06)
(0.00106394 -9.10312e-05 -4.72751e-06)
(0.00109458 -0.000104188 -5.88904e-06)
(0.000845766 -3.26817e-05 -9.73121e-08)
(0.000851465 -3.27667e-05 -4.41249e-07)
(0.00112093 -5.21209e-05 1.01819e-07)
(0.000837792 -2.02421e-05 1.7433e-08)
(0.000849979 -2.01024e-05 1.6763e-07)
(0.0011224 -3.24137e-05 1.9961e-07)
(0.000832311 -1.26226e-05 -8.12396e-08)
(0.000838502 -1.25528e-05 -3.61547e-09)
(0.00111161 -1.99028e-05 1.92165e-07)
(0.000828352 -7.95878e-06 1.21691e-10)
(0.000832834 -7.99421e-06 3.02737e-08)
(0.00110635 -1.27089e-05 1.94171e-07)
(0.000825308 -4.91154e-06 5.27214e-08)
(0.000828542 -4.93497e-06 5.48224e-08)
(0.00110191 -7.85401e-06 1.82985e-07)
(0.000822777 -3.01507e-06 5.08283e-08)
(0.000825088 -3.05733e-06 5.08236e-08)
(0.00109839 -4.81256e-06 1.81717e-07)
(0.000820513 -1.89373e-06 5.46395e-08)
(0.000822247 -1.8819e-06 5.15146e-08)
(0.00109528 -2.94041e-06 1.80895e-07)
(0.000818548 -1.18501e-06 2.2798e-08)
(0.000819927 -1.15065e-06 5.45252e-08)
(0.00109257 -1.92709e-06 1.87437e-07)
(0.000816372 -7.93537e-07 2.70808e-08)
(0.000817728 -7.91468e-07 1.58641e-08)
(0.00108974 -1.11986e-06 7.31295e-08)
(0.000815218 -7.77223e-07 5.15794e-08)
(0.000815716 -1.35405e-07 6.78627e-08)
(0.00108761 -9.27699e-07 1.59411e-07)
(0.000813633 -6.6819e-07 -7.29849e-08)
(0.000814408 -7.44632e-07 7.15141e-08)
(0.00108584 -1.07081e-06 1.83303e-07)
(0.000812103 -4.13096e-07 -6.67318e-08)
(0.00081305 -2.8363e-07 -5.5587e-08)
(0.00108373 -6.48985e-07 1.37337e-07)
(0.000810275 -3.51012e-07 3.91156e-08)
(0.000811256 -6.2843e-08 4.2802e-08)
(0.00108155 -4.48012e-07 1.76614e-07)
(0.000808665 -3.47467e-07 5.19807e-08)
(0.000809561 -1.31596e-07 1.24452e-07)
(0.00107922 -5.18056e-07 1.55005e-07)
(0.00080721 -2.58731e-07 1.72088e-07)
(0.000807951 -1.32907e-09 8.50896e-08)
(0.001077 -4.57925e-07 1.88698e-07)
(0.00080565 -1.53139e-07 1.61481e-07)
(0.00080641 -1.9899e-07 1.79015e-07)
(0.00107515 -3.24919e-07 1.8385e-07)
(0.000803887 7.63407e-09 5.72311e-08)
(0.000804847 -3.71613e-07 3.01294e-08)
(0.00107304 -1.64818e-07 2.55449e-07)
(0.000802438 1.93192e-07 6.91097e-08)
(0.000803255 -1.4557e-07 6.57287e-08)
(0.00107069 1.71308e-07 1.78419e-07)
(0.00080122 5.62711e-07 6.44639e-08)
(0.00080191 -4.61401e-07 5.53751e-08)
(0.00106891 3.87069e-07 1.74839e-07)
(0.000800034 7.4441e-07 5.98582e-08)
(0.000800513 -2.07453e-06 2.81239e-08)
(0.0010674 1.20193e-06 2.2713e-07)
(0.000798251 6.92971e-07 3.8797e-08)
(0.000798979 2.81238e-07 4.60591e-08)
(0.00106544 8.85031e-07 1.23304e-07)
(0.000796419 7.38803e-07 -2.41761e-08)
(0.000797447 -3.11898e-07 2.57377e-08)
(0.00106293 1.03914e-06 1.48134e-07)
(0.00079476 4.70904e-07 -5.97117e-09)
(0.000795702 2.14815e-07 -1.30779e-08)
(0.00106055 9.89485e-07 4.04992e-08)
(0.000793615 8.82307e-08 4.98068e-08)
(0.000794174 -1.56279e-08 4.52852e-08)
(0.00105874 3.06387e-07 1.78956e-07)
(0.000792181 7.2473e-08 5.3273e-08)
(0.000792889 8.13603e-08 5.1515e-08)
(0.00105704 -5.71271e-08 1.79117e-07)
(0.000790979 1.64111e-07 5.07507e-08)
(0.000791526 4.24516e-07 6.44256e-08)
(0.0010552 2.56136e-07 1.60857e-07)
(0.000789461 6.47025e-08 8.45238e-08)
(0.000790137 8.76694e-08 4.83873e-08)
(0.00105345 1.70848e-07 1.74569e-07)
(0.000788119 -3.14588e-08 8.93439e-08)
(0.000788695 -4.76628e-08 9.0578e-08)
(0.00105148 -8.24129e-09 1.68977e-07)
(0.000786818 -1.70181e-07 3.47608e-08)
(0.000787279 -1.31432e-07 6.31599e-08)
(0.00104974 -9.25563e-08 1.79841e-07)
(0.000785093 -2.41966e-07 2.56478e-08)
(0.000785913 1.86874e-06 5.53817e-08)
(0.00104767 -3.87549e-07 1.04474e-07)
(0.000783801 -1.34449e-07 4.4268e-08)
(0.000784572 -3.27723e-07 5.87744e-08)
(0.00104556 -2.95604e-07 1.71745e-07)
(0.000782499 -1.26921e-08 5.60444e-08)
(0.000783178 -9.93216e-08 5.55314e-08)
(0.00104388 -9.14643e-08 1.76122e-07)
(0.000781157 8.09547e-08 8.76094e-08)
(0.000781794 1.17308e-07 2.19828e-07)
(0.00104224 8.89737e-08 1.72905e-07)
(0.000779382 1.47921e-07 2.75477e-08)
(0.000780421 -1.31426e-07 8.48945e-08)
(0.00104007 2.22698e-07 2.63233e-07)
(0.000778561 9.19172e-08 -5.09727e-09)
(0.000779066 -1.01549e-06 5.17514e-10)
(0.00103836 2.64147e-07 1.97085e-07)
(0.000777202 -7.4011e-09 4.3799e-08)
(0.000777745 2.18699e-07 5.63865e-08)
(0.00103686 3.07396e-08 1.49076e-07)
(0.000775865 -5.29649e-08 5.98088e-08)
(0.000776471 -6.99231e-10 4.37314e-08)
(0.00103499 -1.72854e-08 1.58204e-07)
(0.000773941 -1.11143e-08 4.99219e-08)
(0.000774981 -4.40713e-07 2.27891e-08)
(0.00103291 -1.08369e-07 2.64567e-07)
(0.000772753 1.62146e-07 3.18511e-08)
(0.000773482 -3.10729e-07 5.65652e-09)
(0.00103074 8.63296e-08 1.70638e-07)
(0.000771179 2.47502e-07 4.592e-08)
(0.00077201 4.67256e-08 9.96136e-08)
(0.00102883 3.44113e-07 1.67775e-07)
(0.000770584 3.66408e-07 7.1131e-08)
(0.00102734 3.11873e-07 1.24738e-07)
(0.0112581 -0.00172858 0.0001581)
(-0.00458504 -0.00356256 0.000108213)
(-0.00378372 -0.00435921 -0.000243532)
(-0.0035338 -0.000467305 -6.83456e-05)
(0.0126298 -0.000234015 0.000986145)
(-0.00354059 -0.00220842 -1.54881e-05)
(0.00858607 0.000833379 0.000126469)
(0.0204942 0.00107617 0.000912073)
(0.0114098 0.000535987 8.00617e-05)
(-0.00955716 -0.00546867 0.000543953)
(0.00467846 0.00565108 0.0012638)
(0.00289354 0.00922081 0.00237281)
(0.00245479 -0.0054736 0.000377318)
(0.00378717 0.0107255 0.00038361)
(-0.00168937 0.000940234 9.8665e-05)
(0.00285623 0.0063908 -0.000216004)
(0.0110784 0.0209815 0.000516831)
(0.020284 0.00846089 -0.001066)
(-0.00396089 -0.00312291 -3.08923e-05)
(-0.00129588 0.00206685 -4.7176e-05)
(0.000878224 -0.0027962 0.000379965)
(3.17438e-05 -0.00159065 0.000754991)
(0.000458188 0.0027371 -0.00113318)
(0.00298752 -0.00230021 -0.000477221)
(0.00509362 0.000782699 -5.15922e-05)
(-0.0015863 -0.00623484 -0.000462469)
(-0.000285301 -0.00704344 -0.00285327)
(0.000749563 -0.00301054 -0.000142748)
(-6.03104e-06 -0.00878167 3.77797e-05)
(0.00455321 -0.0123528 -0.00153631)
(-0.00650146 0.00173093 0.013506)
(0.0242683 0.0100584 0.0091928)
(0.0142814 0.00147341 0.00553275)
(0.00621124 0.00162551 -0.0289954)
(0.00266988 -0.00687409 0.000156601)
(0.00173845 -0.00184662 0.000403667)
(0.0028516 -0.0044327 6.74126e-05)
(-2.84387e-05 -0.00467523 -0.000135018)
(-0.000558261 -0.0101139 -0.000241878)
(0.00137437 -0.000806633 4.84108e-06)
(0.000957879 -5.47586e-05 -8.08136e-05)
(0.00138186 -0.000282657 1.27435e-05)
(0.000894508 -0.00042314 1.09288e-05)
(0.00156572 -0.000431299 -5.47837e-05)
(0.00100308 -0.000510672 -2.54221e-06)
(0.000305113 -0.000772859 -0.000116999)
(0.00157049 0.000475765 6.51626e-05)
(0.00135537 -0.000122231 -7.22986e-06)
(0.00167471 -0.000331879 -2.89217e-05)
(0.00128441 -0.000383775 -6.20769e-06)
(0.000996899 -6.42251e-05 0.000108343)
(0.00121778 6.86953e-05 2.11028e-07)
(0.00110904 -0.000242774 0.000108212)
(0.00104597 -7.07007e-05 1.6529e-05)
(0.000486388 -3.647e-05 2.34892e-05)
(0.000540129 -4.70071e-05 3.38913e-05)
(0.000719438 -5.10847e-05 6.13629e-05)
(0.000328246 -2.22089e-05 1.47933e-05)
(0.000882502 -2.69879e-05 -9.20058e-07)
(0.000954839 -1.3967e-05 -1.34274e-06)
(0.00126346 -4.31231e-05 -1.40125e-06)
(0.000666906 -3.86901e-05 -4.53258e-06)
(0.000671872 -3.11496e-05 -5.46048e-06)
(0.00111151 -7.83956e-05 -4.89768e-06)
(0.00112131 -6.24438e-05 -5.77867e-06)
(0.000861902 -1.79274e-05 -1.76507e-07)
(0.000862841 -7.47746e-06 -5.18758e-07)
(0.00114339 -3.0237e-05 7.29205e-08)
(0.000848073 -1.10905e-05 1.46637e-07)
(0.000858592 -5.23919e-06 1.91621e-07)
(0.00114017 -1.82594e-05 2.08686e-07)
(0.000838433 -6.88984e-06 1.07887e-07)
(0.000843794 -2.54592e-06 1.37638e-07)
(0.00112187 -1.16769e-05 1.81826e-07)
(0.000832656 -4.19713e-06 8.49665e-08)
(0.000836226 -3.3288e-06 9.64673e-08)
(0.00111295 -6.88381e-06 2.157e-07)
(0.000828036 -2.70242e-06 5.29259e-08)
(0.000830426 -1.23988e-06 4.98517e-08)