/*--------------------------------*- C++ -*----------------------------------*\
| =========                 |                                                 |
| \\      /  F ield         | OpenFOAM: The Open Source CFD Toolbox           |
|  \\    /   O peration     | Version:  5.0                                   |
|   \\  /    A nd           | Web:      www.OpenFOAM.org                      |
|    \\/     M anipulation  |                                                 |
\*---------------------------------------------------------------------------*/
FoamFile
{
    version     2.0;
    format      ascii;
    class       surfaceScalarField;
    location    "4.1";
    object      alphaPhi10;
}
// * * * * * * * * * * * * * * * * * * * * * * * * * * * * * * * * * * * * * //

dimensions      [0 3 -1 0 0 0 0];

internalField   nonuniform List<scalar> 
23167
(
-2.64705e-08
9.32047e-09
-1.11251e-08
-6.66364e-08
4.34872e-08
-2.05217e-07
-2.7773e-09
-3.39107e-08
-3.09828e-08
3.50977e-08
2.01096e-08
-8.29787e-08
7.27017e-08
-8.0184e-10
-1.97025e-08
9.97927e-09
1.16265e-07
-1.95002e-09
4.39031e-08
-2.42845e-09
-3.9927e-10
-1.33997e-08
-2.67377e-08
-1.15604e-08
-3.97056e-09
-1.4039e-09
2.06132e-08
-1.01852e-10
6.2766e-08
6.28235e-08
6.27763e-08
1.75542e-22
1.57268e-18
-5.64983e-19
8.13159e-18
3.50154e-17
-3.62512e-17
-7.9689e-18
1.74491e-18
1.85477e-18
1.7476e-18
-4.43187e-24
1.67114e-22
-1.1116e-23
5.47499e-27
4.59831e-26
2.84811e-29
1.24113e-27
9.13996e-30
1.13383e-30
6.05742e-30
1.51652e-30
-4.58006e-32
1.25782e-33
2.29399e-33
-1.90392e-33
1.1972e-37
2.40994e-37
-2.05157e-37
3.7095e-41
5.20989e-41
1.50112e-39
1.52885e-44
1.55533e-44
1.55241e-42
6.43407e-48
3.7711e-48
1.68946e-46
2.72882e-51
7.90194e-52
1.96659e-48
1.15287e-54
1.45137e-55
-8.39156e-52
4.90248e-58
8.27882e-59
-9.40517e-55
2.13119e-61
3.30707e-62
1.46363e-58
8.8864e-65
2.90457e-66
1.09867e-61
3.74013e-68
-9.71421e-69
5.41932e-65
1.58775e-71
-7.22984e-74
-2.59758e-68
9.38118e-75
3.1675e-76
-7.68213e-71
7.81315e-78
-1.81242e-78
-2.38897e-73
2.03178e-81
5.51867e-82
-4.92472e-77
1.17924e-84
1.59194e-86
-2.43095e-80
1.5512e-87
-1.60124e-88
7.63833e-83
3.584e-91
-1.39304e-93
6.4057e-88
2.2146e-94
1.33442e-94
4.01407e-90
8.29151e-98
1.27278e-98
-1.57658e-94
1.71532e-100
-4.54997e-102
1.96044e-96
4.156e-103
-1.57765e-103
-3.75391e-99
9.03045e-107
2.72197e-107
-1.76628e-102
6.30848e-110
1.2648e-110
7.00059e-105
6.22466e-113
4.18026e-114
-2.47751e-108
1.7725e-115
2.2625e-116
-1.46744e-111
1.58504e-119
-2.58494e-120
1.94782e-118
5.34544e-123
-4.43535e-124
3.69925e-124
5.08348e-126
3.90912e-127
-6.86136e-122
9.25914e-129
2.50858e-130
-2.10973e-124
1.32096e-131
3.23501e-132
-6.58415e-127
1.88601e-134
1.0036e-134
-1.84584e-130
3.14908e-138
-4.75995e-139
4.91739e-134
1.9168e-141
1.78944e-141
-1.96233e-136
5.19866e-145
-1.1592e-147
-2.30571e-140
9.84914e-148
-2.39646e-151
-9.78421e-146
1.16227e-149
4.5026e-151
-1.45711e-146
1.25378e-154
1.51748e-154
6.29103e-08
1.956e-08
-3.15886e-07
1.69003e-08
3.15235e-09
2.55482e-08
2.93625e-08
-2.04431e-08
-9.29804e-09
4.14375e-09
-2.31439e-08
-2.06813e-08
6.62818e-09
1.72201e-08
-5.5644e-08
-4.63656e-07
1.36889e-07
2.03884e-08
3.71258e-08
6.3393e-09
-2.31465e-08
9.80179e-09
-2.01775e-08
1.82565e-08
4.00813e-08
2.63093e-08
-5.22506e-08
-6.06178e-09
2.21074e-08
-1.0384e-08
1.49632e-09
-8.7437e-09
6.87348e-12
-5.10114e-11
1.78801e-08
6.39563e-11
1.78561e-08
-2.25623e-18
1.74608e-18
2.76599e-08
2.87441e-18
-2.29291e-18
-2.2234e-18
-2.23088e-18
-1.0798e-24
-1.98008e-22
1.79953e-23
6.66715e-22
5.27266e-22
8.484e-22
6.24927e-22
1.56056e-25
3.77227e-26
1.51773e-26
4.05841e-28
5.94104e-27
5.43157e-30
1.24242e-31
3.27521e-29
2.95133e-31
2.41043e-34
-1.63038e-32
2.00363e-34
5.70034e-38
-2.2147e-37
1.77706e-37
1.16256e-41
-5.24084e-41
3.59883e-41
4.51481e-45
-4.84371e-44
1.0462e-43
1.90318e-48
-2.86895e-48
-6.11957e-47
8.06537e-52
-4.16356e-52
2.07865e-49
3.41068e-55
-5.08723e-54
-8.55225e-53
1.43855e-58
-5.68779e-58
1.43829e-56
6.08785e-62
1.7357e-61
-2.41121e-59
2.60024e-65
-3.19448e-65
7.44301e-63
1.14057e-68
7.31254e-68
-8.43549e-65
4.94425e-72
4.58357e-71
-1.57883e-68
2.08823e-75
-5.06687e-75
-2.73298e-73
9.50669e-79
-8.95897e-79
-1.97993e-75
4.46352e-82
-8.83893e-81
3.73272e-78
1.83168e-85
5.19695e-87
-1.1274e-81
8.85453e-89
3.9069e-89
-3.67026e-84
4.51273e-92
2.14999e-90
2.94892e-87
3.90378e-95
6.74964e-96
1.2206e-92
5.06897e-98
3.15843e-99
-3.14909e-94
1.08712e-101
-6.00564e-99
-2.51433e-99
9.20913e-105
-1.04064e-101
4.40605e-99
3.52763e-108
-9.09327e-110
4.79103e-104
3.1774e-111
-1.83029e-109
3.26684e-107
1.04374e-114
-2.52907e-113
-8.49549e-110
2.38285e-117
2.66673e-119
1.02277e-118
3.26381e-119
-1.3081e-119
-4.33931e-116
3.13188e-123
-6.28496e-123
1.27156e-118
7.80521e-127
-1.40654e-126
4.92974e-122
4.90824e-130
-2.21857e-130
-2.74548e-125
1.32244e-133
3.63768e-132
-2.75504e-128
6.68244e-137
-6.99074e-137
2.38446e-137
7.10538e-140
5.74385e-140
1.33025e-134
2.16104e-143
1.18138e-144
-6.87933e-138
6.54609e-147
-3.46946e-145
-1.90466e-142
2.40113e-150
-1.35915e-148
1.15188e-146
2.0029e-152
2.38922e-154
5.9564e-151
-2.08809e-157
-3.16298e-151
7.11986e-08
1.70251e-08
-2.06258e-07
-6.74866e-09
-2.84396e-08
1.40582e-07
-2.81323e-08
-8.62664e-09
6.03827e-07
-1.99845e-09
-3.36027e-09
1.5888e-09
-1.06661e-07
-1.27973e-08
-3.10707e-07
1.77646e-08
-7.38648e-09
1.94079e-08
-6.66836e-08
-4.87021e-08
2.0305e-09
-2.93197e-07
-1.79085e-09
1.92931e-09
1.10508e-09
5.28593e-09
-3.82652e-09
3.96661e-10
3.21082e-10
9.25007e-10
-1.18334e-10
1.42752e-09
8.2325e-16
-1.25549e-18
-9.25467e-18
-1.91394e-15
3.64353e-15
-2.81841e-15
-2.15195e-18
-5.74826e-09
-5.74826e-09
-5.74826e-09
-5.74826e-09
1.82385e-23
-3.23158e-21
2.54427e-22
7.83137e-20
9.12539e-20
1.24854e-19
2.73234e-21
-8.95416e-26
-2.52545e-25
-7.97359e-27
-7.76409e-27
-2.60368e-28
6.40971e-29
2.53119e-28
5.44639e-29
3.67348e-29
5.72487e-32
1.614e-31
1.83647e-31
2.84233e-36
2.10359e-35
1.63958e-34
8.91262e-40
4.18191e-39
1.90485e-38
3.66994e-43
1.08084e-42
-1.33894e-41
1.52975e-46
2.52394e-46
-2.84066e-44
6.4105e-50
3.37232e-50
-1.23555e-46
2.66993e-53
4.43442e-53
-8.94111e-50
1.10638e-56
1.02926e-57
-1.11282e-53
4.60713e-60
1.12557e-60
-3.69868e-57
1.93249e-63
-2.18197e-64
-1.89835e-60
8.10503e-67
-4.61514e-68
1.52196e-62
3.29063e-70
-1.18679e-70
2.60255e-65
1.57458e-73
-2.067e-74
2.51939e-69
1.03208e-76
6.25793e-77
-7.66791e-73
4.81422e-80
7.62656e-82
-5.56531e-75
2.14295e-83
-3.26238e-84
-1.80438e-82
3.77131e-86
-2.297e-87
-2.73202e-82
1.61998e-89
-3.06355e-90
-7.12322e-85
2.96995e-93
-1.44089e-93
3.74844e-94
1.40915e-95
-5.99712e-96
3.5695e-97
5.12342e-97
3.36514e-99
-2.3531e-94
3.45419e-101
1.67461e-102
-7.94886e-97
4.42137e-105
-5.12121e-107
-1.71533e-100
1.86976e-108
-2.62028e-109
-6.11407e-104
7.9458e-112
1.20254e-112
-9.19187e-108
5.99355e-115
-9.08928e-116
2.62374e-111
2.51048e-117
-4.33678e-120
-1.42194e-113
3.32968e-121
-4.91631e-121
3.47906e-116
1.28282e-124
-4.17514e-125
-1.07807e-119
9.03333e-128
-1.33022e-127
-2.16523e-123
8.88362e-131
-1.02258e-131
6.12929e-126
1.35436e-134
-1.30283e-134
2.97245e-129
6.41788e-138
-2.17891e-138
5.0555e-133
5.70067e-141
1.69937e-142
5.08825e-140
2.21536e-143
1.05604e-144
-4.66603e-140
8.41144e-147
1.72694e-147
-1.74571e-142
1.09311e-150
-2.02819e-152
2.00676e-149
-5.00159e-154
1.72221e-154
-8.2336e-09
1.63194e-08
-4.05338e-07
1.801e-08
1.80663e-08
1.92381e-08
5.30177e-08
5.59292e-09
-6.86216e-08
3.84439e-08
4.8981e-08
5.40401e-08
1.25756e-08
7.33883e-11
-4.28973e-09
-7.77023e-08
-5.82171e-08
-4.69131e-08
2.36633e-08
1.67589e-08
5.65751e-08
-8.92558e-08
-9.62667e-11
2.81604e-07
9.46735e-08
-2.9502e-08
7.79873e-08
9.09293e-08
1.73462e-09
4.51938e-09
7.03324e-08
-4.07599e-09
-9.69986e-09
1.02077e-08
1.19534e-08
-8.34568e-08
-5.04841e-08
2.96304e-08
2.09607e-09
-1.99335e-08
3.30148e-09
2.94615e-09
1.18364e-08
-8.08378e-11
4.44325e-10
-3.65325e-10
-6.43429e-11
-3.27631e-10
-6.01255e-11
-3.86302e-10
5.03442e-10
3.94435e-10
5.05317e-10
-1.85778e-10
-9.21022e-11
-1.14098e-10
-1.43072e-10
-1.03671e-11
3.2453e-15
2.33569e-08
3.26289e-13
2.3357e-08
-2.06054e-22
-1.8057e-19
-2.75827e-21
3.14333e-19
8.27255e-19
-7.81822e-20
1.92224e-19
2.2914e-27
-3.61854e-23
-3.0749e-25
1.84239e-27
-1.09133e-26
1.48749e-29
1.41878e-28
-7.19091e-28
1.01165e-29
4.11871e-31
-3.83787e-30
6.62907e-32
5.5678e-35
-4.02752e-34
1.34691e-34
6.82418e-39
-3.34955e-38
1.56282e-37
2.4653e-42
-9.30423e-42
1.07549e-40
1.03051e-45
-3.39405e-45
7.29094e-44
4.3473e-49
3.34197e-49
-2.7707e-46
1.80655e-52
-4.71492e-52
-8.02494e-50
7.57685e-56
-1.71262e-55
1.21003e-52
3.1858e-59
-4.91556e-59
-1.19875e-56
1.45609e-62
4.86125e-63
-5.4538e-60
7.82168e-66
1.50319e-65
1.80256e-63
3.16635e-69
7.61744e-69
-2.24979e-65
1.4237e-72
9.62726e-73
-5.52767e-69
5.67696e-76
1.90483e-75
3.68776e-72
4.36557e-79
4.16115e-80
-2.10976e-75
1.05701e-81
4.02325e-83
-1.31312e-78
1.23304e-85
-1.7676e-84
-4.53055e-83
8.56545e-89
1.88165e-89
8.79833e-85
2.85265e-91
2.88625e-92
-1.26472e-87
7.73739e-95
-6.06679e-95
-1.52753e-91
2.27368e-98
-1.60204e-96
-6.07932e-93
1.50594e-101
-1.22472e-101
-7.77334e-97
2.53307e-104
-3.34506e-105
-5.37815e-100
4.32892e-108
-1.10069e-109
-1.41216e-103
2.43541e-111
-6.05355e-112
-9.52322e-107
5.62174e-114
-3.74019e-114
1.82371e-110
1.65735e-116
4.66701e-117
-9.50095e-113
3.45727e-120
1.95674e-121
-3.26325e-115
1.72341e-123
-2.04851e-124
-8.41312e-119
2.35243e-126
1.07761e-127
-2.06448e-122
7.32698e-130
-4.63137e-130
2.07313e-125
8.6187e-133
1.27257e-132
-4.32184e-128
9.75706e-136
1.47235e-137
-1.06767e-131
2.21569e-139
9.57817e-141
-2.20903e-135
6.44966e-143
2.16334e-143
-5.23856e-140
3.77562e-146
2.20973e-146
-1.00515e-141
3.73349e-149
-2.12454e-149
-2.70718e-145
-3.88471e-151
-6.09909e-148
1.75678e-08
-9.69265e-09
1.15505e-08
2.76622e-08
-2.73772e-08
-1.58433e-08
-2.49334e-08
-6.49448e-09
-1.21667e-08
-2.76105e-08
-3.49784e-07
-1.53083e-07
4.04911e-07
1.31546e-07
-2.21122e-08
-1.12763e-08
-8.00102e-09
-2.04928e-08
-1.48675e-08
5.15853e-09
5.8885e-08
8.63886e-09
-9.21622e-08
-4.05914e-08
8.80795e-08
-1.05919e-07
1.06035e-08
1.49647e-08
1.56952e-08
1.15564e-08
-3.74535e-10
-2.78605e-08
5.60635e-09
-3.55974e-09
2.46145e-08
-3.16712e-09
4.87392e-10
-9.34037e-10
-2.0388e-10
1.76398e-10
-4.82559e-10
7.36469e-10
3.73709e-10
2.34682e-10
3.69799e-10
2.66911e-10
-2.89637e-10
4.13909e-12
3.0907e-08
7.30719e-11
3.09101e-08
8.4112e-23
7.93691e-20
-2.16591e-19
1.33863e-18
3.34898e-17
-2.56751e-17
1.43618e-17
3.66674e-24
3.10036e-23
-7.62684e-24
-1.05635e-26
3.10279e-28
-3.10284e-28
3.47398e-27
-6.24334e-28
5.77351e-29
7.30652e-30
-3.44781e-30
-4.5741e-31
9.86336e-34
8.65128e-34
5.056e-33
1.06803e-37
2.03535e-37
-4.06969e-35
3.58989e-41
2.15496e-41
-2.53231e-38
1.47647e-44
6.74843e-46
3.539e-42
6.21585e-48
8.73896e-49
-3.52956e-45
2.64951e-51
7.35974e-52
-1.5071e-48
1.13027e-54
-3.80591e-54
8.33308e-51
4.88504e-58
-2.97963e-59
-7.62553e-56
2.27717e-61
7.03047e-62
6.11175e-58
8.72465e-65
-4.65732e-66
-5.58648e-61
3.73301e-68
-3.93471e-69
2.00493e-67
1.75179e-71
-1.16996e-72
5.9455e-68
1.01468e-74
1.6908e-75
1.53505e-69
4.38063e-78
7.90618e-79
-7.74884e-74
6.53884e-81
1.65666e-82
4.88376e-77
1.3478e-83
1.19813e-84
-1.31089e-79
4.98387e-87
-4.65563e-86
-1.6936e-81
2.91888e-90
-1.7589e-90
-4.78589e-86
1.45322e-93
1.9134e-94
-3.77987e-90
2.99627e-96
-5.14315e-98
-2.48495e-91
3.17477e-100
-1.22648e-100
5.38214e-96
1.15727e-103
-1.11815e-103
1.18829e-98
1.28052e-106
1.90055e-109
-4.7115e-102
3.16302e-109
1.00466e-109
1.46987e-105
3.85891e-113
-4.34677e-113
1.25131e-108
1.83302e-116
-5.23067e-117
5.11817e-117
2.41132e-119
3.95198e-119
3.18854e-114
4.86139e-123
-1.63104e-122
1.01362e-118
1.18486e-125
1.27453e-124
2.88124e-121
3.0903e-128
2.64845e-128
-2.5985e-123
1.79731e-131
2.26839e-132
-6.32394e-127
4.53416e-135
-2.11e-135
4.35454e-130
7.67706e-138
-1.01116e-138
-1.12642e-134
4.21127e-140
3.74541e-141
-1.04771e-136
6.07693e-144
3.25634e-144
-3.20521e-140
4.23941e-147
1.33046e-147
-4.97918e-143
9.90482e-152
-8.28623e-146
2.4809e-08
7.72164e-09
-2.33709e-08
-1.33756e-08
-1.49316e-08
-2.04872e-08
3.34875e-08
-2.90002e-08
8.67592e-09
1.13735e-07
-2.0577e-08
2.61252e-08
-9.82977e-09
1.98486e-08
-8.86248e-09
8.63592e-09
-1.74911e-08
-6.18277e-09
-2.05899e-08
-1.07388e-08
-2.03136e-08
-3.2438e-08
-2.2677e-08
9.15032e-08
6.38718e-08
5.81368e-08
7.1552e-08
6.43241e-08
2.80281e-08
-8.78204e-09
1.55716e-09
8.85968e-09
-1.42322e-09
3.35218e-10
3.03635e-08
1.53292e-10
-1.50655e-09
-2.87968e-08
-8.41303e-10
7.91943e-10
-1.47455e-09
-3.73101e-11
2.38959e-11
-1.04823e-09
9.69124e-10
7.99044e-11
3.30821e-11
9.17048e-11
9.09159e-11
-2.29178e-10
-1.48667e-12
6.2778e-08
3.12327e-11
6.28085e-08
1.33777e-23
2.77967e-19
-2.9628e-19
1.26543e-17
7.13206e-18
1.24111e-17
-9.21564e-18
5.64402e-24
5.43857e-23
-1.20019e-23
-2.94563e-27
2.25547e-27
-2.40064e-28
2.46966e-27
-3.56858e-28
2.94951e-29
5.78161e-30
-2.62827e-30
-1.73354e-29
7.87177e-34
-6.88699e-34
1.02919e-32
8.48142e-38
-7.01378e-38
-8.63531e-35
2.83691e-41
-1.82232e-41
-6.37562e-38
1.22525e-44
-5.38475e-45
2.26266e-42
5.63086e-48
4.85364e-49
-2.04285e-44
2.40342e-51
-1.29251e-52
5.90889e-48
1.14898e-54
5.70131e-55
-3.42918e-50
4.32996e-58
-3.5029e-58
1.15678e-53
1.7942e-61
7.03383e-62
6.50252e-57
9.75001e-65
1.05997e-65
-1.13441e-60
8.49756e-68
8.5262e-69
-9.9834e-64
7.08218e-71
3.21717e-72
-4.60344e-67
2.18096e-73
3.09528e-74
-2.12577e-69
2.12522e-77
1.70054e-78
-2.82412e-74
1.34466e-80
-4.56039e-83
-3.85818e-76
4.48613e-83
1.89159e-84
-2.22416e-79
5.81292e-86
7.42603e-87
-2.19764e-81
2.9811e-89
1.76308e-89
-3.00782e-85
4.695e-93
-2.19683e-95
-1.21548e-89
1.91918e-96
3.44545e-98
-9.71151e-93
1.61926e-99
1.25856e-100
-2.51385e-94
1.66922e-102
1.34348e-103
-3.57321e-99
3.30459e-106
1.20981e-107
-9.80664e-102
2.82598e-109
-3.73329e-110
1.44897e-105
2.87768e-112
4.71465e-113
-6.39045e-108
8.65757e-116
-3.96206e-118
5.82607e-112
1.73267e-118
-7.75499e-120
6.66898e-114
1.28317e-121
-7.99934e-123
-4.99125e-117
2.18605e-124
-2.39841e-125
-1.85172e-121
6.21958e-128
2.13277e-128
2.13986e-123
2.36384e-131
-9.11529e-133
1.85418e-126
1.09383e-134
2.1021e-136
1.18219e-130
7.49975e-138
-3.96702e-141
-1.12494e-133
1.56916e-141
9.15767e-143
3.27147e-142
5.89359e-145
3.94071e-147
1.46839e-141
2.31502e-148
1.01031e-149
-1.0244e-143
1.10418e-152
5.88356e-152
-1.20522e-08
-7.94159e-09
-1.16966e-08
-1.60906e-08
6.23794e-08
6.10837e-08
1.0045e-07
1.35936e-07
1.4088e-07
1.35359e-07
1.34279e-07
1.08515e-07
-6.38423e-08
7.65486e-08
6.70835e-09
4.18201e-08
3.73775e-08
4.27009e-08
5.98905e-08
-2.61607e-08
1.18099e-07
1.89484e-07
-2.47193e-07
4.4033e-08
4.28915e-08
4.24372e-08
-3.23752e-08
-5.75379e-08
-1.85558e-08
-2.12456e-07
2.79827e-07
-1.39868e-07
2.39761e-07
-3.06983e-08
-3.25388e-08
-2.9321e-08
-2.80804e-08
1.66275e-08
-8.94979e-10
-2.34582e-08
-2.68647e-08
3.54262e-08
8.35758e-10
8.02648e-09
-1.76704e-09
-5.64675e-09
-3.71567e-09
-9.70086e-10
-3.75463e-10
1.28829e-09
-1.0013e-09
1.4602e-09
-6.96844e-11
-6.29427e-10
5.46928e-11
2.48165e-10
1.13385e-10
1.34202e-10
-9.45801e-11
-4.28135e-12
2.21669e-08
2.5922e-11
2.21645e-08
-3.35426e-22
4.81459e-21
-1.97125e-20
4.15956e-18
4.16799e-21
-2.89414e-18
5.16152e-20
-8.72365e-27
3.85239e-25
-1.16284e-24
3.24651e-27
-9.71914e-28
-2.6189e-30
1.54487e-28
-6.1508e-29
1.21815e-30
3.72402e-31
-1.26433e-31
7.04711e-32
4.91768e-35
-1.72644e-35
3.14053e-34
6.14606e-39
-3.07571e-39
2.74963e-37
2.23315e-42
-9.30035e-43
-2.86881e-41
9.30423e-46
-2.19878e-46
2.54707e-44
3.90837e-49
-4.74897e-50
-7.90256e-47
1.64292e-52
-4.30614e-53
-2.43502e-50
7.29436e-56
-9.46613e-57
-6.47717e-53
3.36195e-59
-2.53053e-60
-1.88205e-55
1.29108e-62
-1.11291e-64
-1.53124e-59
5.48261e-66
-1.02017e-66
3.46352e-62
2.42651e-69
1.57525e-71
-7.05839e-68
1.17733e-72
2.48039e-74
-2.80891e-69
4.2071e-76
-1.5728e-77
-2.34737e-73
2.06933e-79
-2.83423e-80
-7.8586e-76
3.83675e-82
-1.89038e-83
-1.63008e-78
1.18751e-84
5.49676e-86
-1.17249e-80
8.14776e-89
9.19754e-90
7.16904e-85
4.39519e-92
-4.66124e-93
2.3588e-89
7.06818e-95
-1.2372e-96
-7.3773e-92
8.99019e-99
-8.56484e-100
1.94885e-100
4.78738e-102
3.90962e-103
5.61663e-97
2.90254e-105
-1.11275e-106
-1.03136e-100
2.61247e-108
2.15877e-109
-3.90873e-104
2.4314e-111
1.09694e-112
-1.72006e-107
8.56903e-114
-8.05499e-116
-9.62521e-110
3.04605e-117
5.56613e-119
-3.02419e-113
3.15826e-120
-2.86771e-122
-9.6923e-116
5.99938e-124
-1.95436e-126
-7.70893e-120
4.86155e-127
-1.53638e-128
-1.78189e-122
1.89208e-130
-1.51866e-131
-1.79084e-125
1.37553e-133
-9.05899e-135
3.21491e-129
9.65858e-137
1.3061e-137
-4.11417e-131
1.17015e-139
3.17596e-142
-7.4942e-136
6.59283e-142
4.88826e-145
-2.40199e-138
4.00417e-146
-7.62322e-148
6.97296e-147
4.3509e-149
-5.92983e-152
2.10729e-150
1.72965e-152
-3.39885e-148
-8.73788e-09
-1.03919e-08
-1.17611e-08
-1.48765e-08
-9.02013e-09
-1.00457e-08
-9.0468e-09
-4.67073e-08
5.39215e-08
6.69479e-08
-1.39269e-08
1.13305e-07
3.37569e-08
2.61282e-08
-1.73632e-08
8.51028e-08
7.54563e-08
9.01887e-08
9.4985e-08
7.69462e-08
-4.17356e-08
4.50084e-08
-2.24609e-09
-5.75175e-08
-1.01024e-08
-4.26229e-08
1.20105e-09
-5.20936e-09
-5.29526e-09
-6.74429e-09
4.85422e-09
1.22844e-08
-1.49206e-10
-3.65093e-09
-1.55908e-08
9.52943e-10
-5.46076e-10
1.41079e-09
2.7558e-11
9.60713e-10
-1.78498e-13
-1.00805e-15
-1.26131e-08
1.64928e-13
-1.26132e-08
-4.31514e-23
-4.91538e-23
5.11857e-22
1.20982e-20
4.15358e-21
-3.2984e-20
3.04536e-20
2.26684e-26
-8.31772e-27
1.039e-26
4.18131e-26
-6.98439e-29
2.57073e-29
2.25214e-28
-3.90046e-29
1.16346e-29
6.24375e-32
5.21823e-33
1.63095e-31
3.08569e-36
-2.43296e-37
-6.75638e-36
9.3177e-40
-6.36931e-41
-2.7785e-38
3.8306e-43
-5.43474e-45
2.57631e-41
1.59416e-46
4.84567e-48
-4.21532e-44
6.64849e-50
5.26468e-51
8.09559e-47
2.79868e-53
-6.00079e-54
-2.02879e-50
1.17464e-56
9.12921e-59
3.40304e-53
4.93436e-60
-2.96676e-61
1.48785e-56
2.21228e-63
-1.17345e-64
2.69355e-59
9.30923e-67
2.33535e-68
-1.04922e-62
3.60586e-70
-7.28719e-73
1.59051e-69
2.27794e-73
-1.0792e-75
-7.65607e-72
4.16322e-76
2.32042e-77
-2.45724e-72
1.13815e-79
1.49356e-81
-1.67903e-75
2.59362e-83
4.56803e-85
-9.42864e-79
2.42285e-86
9.59677e-89
1.84419e-86
1.03781e-88
5.43173e-91
5.45877e-86
1.18743e-92
-2.05905e-94
4.16506e-91
1.15488e-95
2.59436e-97
-2.80962e-92
8.08511e-99
1.69588e-99
-1.26013e-94
1.95944e-102
-1.15866e-103
4.0597e-97
3.12814e-105
3.00215e-107
-1.55753e-100
8.60525e-108
-7.5029e-109
6.15627e-104
7.22248e-112
6.07265e-113
1.29458e-107
5.12607e-115
1.80804e-116
-3.85548e-110
3.62006e-118
-2.0078e-120
-7.26711e-114
2.03317e-121
4.4087e-123
-6.31724e-118
1.35336e-124
-8.26134e-126
6.60053e-120
1.93336e-127
7.45629e-129
-1.14118e-122
7.47018e-131
1.30392e-131
-7.97726e-126
5.22592e-134
9.6891e-136
-4.46138e-129
2.01557e-137
7.74524e-139
-9.07579e-132
5.77667e-141
4.19527e-142
-1.07663e-138
2.22723e-144
-7.69862e-147
6.84789e-145
8.68353e-148
-7.0045e-149
1.77166e-148
3.53242e-151
-7.48478e-152
1.54308e-151
7.00179e-157
-3.14257e-149
-5.39371e-08
2.59361e-08
1.89612e-07
-5.52652e-08
-5.65324e-08
-5.3079e-08
3.19324e-08
3.11745e-08
3.19475e-08
3.10076e-08
2.7797e-08
-5.85158e-08
3.38787e-09
-3.0306e-09
-7.13809e-10
9.93622e-09
1.46501e-09
6.98512e-09
9.17257e-08
1.79331e-08
8.4124e-08
2.27097e-08
1.76776e-09
-4.45544e-08
4.20109e-08
5.26766e-08
1.36864e-08
9.85019e-09
1.0805e-08
7.7532e-09
-4.80576e-10
-2.08448e-08
-2.03327e-08
6.72058e-08
1.47477e-08
-1.3143e-08
-1.09956e-08
1.8524e-08
-6.08843e-09
1.41166e-08
-5.77653e-09
-3.60591e-09
5.60842e-10
-2.90827e-10
6.5956e-10
-2.52013e-08
2.34417e-10
-2.47794e-08
1.17087e-16
1.24072e-18
3.22594e-08
3.22594e-08
-9.98863e-19
2.42373e-16
3.88841e-16
2.63695e-16
2.80475e-24
-3.87047e-22
1.85256e-23
5.51358e-22
-6.15375e-23
-1.52598e-21
2.24929e-21
4.77883e-26
-3.14828e-26
-2.25172e-26
6.56874e-28
-6.14253e-28
4.00454e-30
2.40875e-31
-3.76981e-30
1.21556e-30
1.49853e-34
-4.07623e-33
2.19536e-34
5.95774e-38
-9.40064e-37
1.82754e-37
1.4078e-41
-1.88605e-40
3.00896e-40
5.42532e-45
-4.15104e-44
-1.11652e-42
2.3152e-48
-7.75512e-48
4.02811e-46
9.95914e-52
-3.48249e-51
-4.26286e-50
4.27835e-55
-5.67542e-55
-2.2888e-52
1.82278e-58
-1.20587e-58
-6.1043e-56
7.76908e-62
-1.38408e-61
4.14137e-59
3.33145e-65
-3.19624e-65
3.95885e-62
1.42004e-68
-4.26331e-69
-8.75207e-65
6.97609e-72
2.25228e-74
-1.71035e-69
3.9389e-75
1.20137e-75
-2.97615e-71
1.22441e-78
-7.23784e-79
-1.86255e-76
5.12806e-82
1.65834e-83
-2.22277e-78
2.18027e-85
-6.16653e-86
-2.72798e-82
9.26672e-89
-1.918e-88
1.39999e-84
1.45284e-91
-5.04958e-92
-7.17776e-89
7.57173e-94
-3.80214e-96
-6.53425e-90
3.38531e-98
-4.03588e-98
-7.68455e-95
1.07187e-101
-8.42941e-101
2.87643e-97
1.02456e-104
-1.22857e-104
-1.07551e-103
3.99515e-107
-1.31985e-108
-2.81857e-103
4.50942e-111
-6.30754e-111
-4.29246e-106
1.90489e-114
-1.25351e-113
4.96776e-109
5.01718e-118
-2.83887e-118
2.95449e-113
5.08088e-121
-2.36104e-120
1.05383e-121
2.07567e-123
6.60774e-125
-1.80212e-119
1.26886e-126
-2.09854e-127
-3.48953e-122
1.58881e-129
2.56358e-130
-2.67963e-125
3.48046e-133
-1.39975e-132
-5.79328e-128
1.28186e-136
-7.93435e-137
4.82215e-132
8.44785e-140
-2.86953e-140
3.22601e-135
8.02292e-143
-6.26905e-143
-7.40778e-138
1.26117e-145
1.3673e-146
-1.17774e-141
1.62301e-148
-8.02659e-149
-1.65795e-144
1.58347e-151
-2.42234e-152
-2.38807e-147
-8.94422e-156
4.18996e-155
4.78335e-08
-5.80316e-08
4.54774e-08
1.59932e-07
3.44596e-08
2.39427e-08
3.64228e-08
3.23149e-08
2.4063e-08
5.36615e-08
3.48603e-08
2.29506e-08
2.98468e-08
6.85105e-08
2.49829e-08
3.54055e-08
-2.1747e-08
1.32977e-08
3.23978e-09
3.32917e-08
1.41314e-07
-3.16992e-08
2.58417e-07
-2.15667e-08
1.64279e-08
-1.23594e-07
-6.47959e-08
-1.52853e-08
-1.50398e-08
-1.40307e-08
-1.55362e-08
-8.00725e-10
3.20224e-09
6.31174e-09
1.03975e-09
-1.16491e-08
-1.40905e-10
4.98023e-11
1.79653e-08
-5.65794e-11
1.80148e-08
4.09789e-22
-9.00766e-19
2.78793e-16
1.0882e-17
-1.61034e-16
-1.22281e-16
-2.32062e-18
-1.7145e-18
-8.3453e-18
-1.71291e-18
-2.73968e-24
-2.23442e-23
1.96628e-27
-2.85084e-27
6.16907e-28
-7.373e-30
1.1669e-29
-1.65189e-31
3.14641e-33
-1.59945e-33
2.3211e-37
1.75245e-36
6.96085e-41
9.83459e-41
2.85632e-44
-2.12117e-42
1.1993e-47
-8.29747e-47
5.04138e-51
8.36164e-49
2.12742e-54
1.91018e-52
8.9542e-58
-1.45138e-54
3.72997e-61
-5.72895e-59
1.55967e-64
-1.24594e-61
6.50919e-68
-4.49354e-65
2.73471e-71
-1.82286e-69
1.15396e-74
-3.46259e-71
4.93985e-78
-1.10933e-75
2.22072e-81
-2.94999e-78
1.46188e-84
-1.06811e-80
1.98985e-87
-3.52587e-84
4.10345e-91
1.87514e-88
2.91703e-94
7.95721e-92
3.92089e-97
-2.29437e-93
1.68052e-100
-5.81684e-97
8.7508e-104
-2.83036e-100
2.91559e-107
-3.36084e-103
3.59999e-110
-9.40437e-106
3.62725e-113
-2.11087e-109
2.20142e-116
1.16053e-112
7.73101e-119
-3.03393e-115
6.51967e-123
-3.82847e-121
1.84957e-126
-7.30626e-123
2.7125e-129
1.71632e-125
1.85629e-131
3.47292e-129
1.57142e-135
2.06813e-131
8.53288e-139
5.49064e-134
1.06378e-141
-4.03576e-137
2.7686e-145
-2.22291e-141
2.62577e-148
-5.25944e-145
5.02743e-152
2.45872e-149
1.50161e-150
7.66161e-09
-1.11313e-08
-1.16981e-07
2.1626e-09
1.50892e-08
2.89415e-07
3.06691e-08
-4.13478e-09
2.18279e-09
4.76798e-09
4.52787e-08
2.05282e-07
2.61907e-08
1.94541e-08
2.53592e-08
2.68938e-08
-2.61575e-08
2.89245e-07
6.75868e-09
-3.93224e-08
2.53129e-07
-5.62364e-07
-3.67988e-08
1.79828e-08
2.36025e-08
-2.8308e-07
-2.23894e-07
-4.70716e-07
-4.56703e-08
-7.52649e-08
6.68509e-10
-7.05746e-09
2.03664e-10
8.23973e-08
-3.07424e-10
5.64865e-12
-3.90723e-11
4.82643e-08
4.82266e-08
3.16235e-22
4.24156e-18
6.42722e-19
-3.65236e-17
3.41629e-17
-3.74557e-17
3.20591e-17
5.13999e-18
4.28316e-18
5.13786e-18
3.4302e-24
8.83717e-22
1.02797e-23
1.2964e-26
2.71139e-24
5.72008e-28
5.74494e-27
9.36979e-27
-1.11046e-30
1.6541e-28
3.30122e-29
4.18669e-31
3.49245e-31
7.45659e-32
-1.13695e-33
8.06194e-35
6.86823e-35
6.19783e-36
2.03123e-38
1.32748e-38
1.76096e-39
1.33592e-41
9.16605e-42
4.28825e-42
1.00272e-44
7.29224e-46
-1.11932e-46
7.28307e-48
-1.72872e-49
2.72901e-49
5.21113e-51
3.70658e-51
-9.08525e-52
3.73016e-54
1.39747e-55
1.27351e-54
2.66911e-57
5.97438e-58
4.01796e-58
1.9063e-60
-5.18555e-61
-8.90044e-62
1.3599e-63
-1.43755e-64
1.88871e-66
9.68853e-67
1.18723e-67
-1.18296e-68
6.89199e-70
-7.37692e-71
1.18881e-70
4.89695e-73
-5.07994e-74
1.38902e-74
3.47501e-76
2.68514e-77
1.75343e-77
2.46134e-79
6.38078e-81
1.68942e-80
1.73962e-82
-3.10512e-84
-8.10104e-84
1.22753e-85
-2.40185e-88
-2.05575e-87
8.64084e-89
4.9764e-89
-2.22996e-90
6.07411e-92
2.00303e-92
3.82494e-95
4.26488e-95
-1.2799e-95
-2.95014e-95
2.99188e-98
1.92932e-98
-6.69447e-99
2.09526e-101
3.26708e-102
7.39498e-103
1.46117e-104
7.54089e-107
1.80248e-105
1.01646e-107
1.66624e-108
1.19904e-108
7.06402e-111
-1.35658e-112
5.13815e-112
4.90351e-114
9.00656e-115
-3.3156e-120
3.39625e-117
-1.80658e-119
2.24056e-118
2.34763e-120
2.46027e-121
-2.82849e-122
1.61951e-123
2.5501e-125
-7.09385e-125
1.1148e-126
-1.62299e-127
1.91812e-127
7.65228e-130
3.27827e-130
4.01593e-132
5.24226e-133
1.00689e-135
-4.60133e-134
3.58212e-136
2.27564e-137
2.33597e-136
2.44541e-139
-3.4215e-141
1.41496e-143
1.66538e-142
-9.9808e-145
5.11528e-144
1.08835e-145
-1.82209e-148
4.08287e-147
1.17925e-149
7.89868e-150
-2.09084e-08
-7.11377e-09
-3.06901e-08
1.90518e-08
9.97257e-09
1.59413e-07
-1.34341e-08
6.08478e-09
-3.09079e-07
-7.27073e-09
-2.21612e-08
-9.61821e-09
-1.5116e-08
1.43122e-08
-2.4895e-08
3.24547e-08
5.44826e-08
-1.92394e-08
-1.35095e-08
1.05321e-08
-1.29913e-08
-9.47732e-10
-6.38589e-09
1.62548e-07
5.84062e-09
-1.11853e-09
-4.47957e-09
-1.60443e-07
7.06504e-08
2.17813e-09
4.75909e-08
-3.5187e-09
6.67493e-09
-1.22802e-07
2.07976e-10
6.68052e-11
-8.96114e-11
7.55747e-11
-3.43313e-11
-4.02296e-11
1.55305e-17
4.99948e-18
-1.33892e-18
5.48526e-18
8.20018e-19
1.65064e-17
1.10146e-17
5.83325e-18
-1.4762e-23
-7.53355e-22
-1.32996e-23
-2.93509e-20
-1.77658e-20
-2.97964e-20
-1.76284e-20
6.21053e-24
5.18532e-25
-1.13536e-26
1.40875e-25
1.50798e-25
-4.45457e-30
2.39018e-29
2.85129e-27
-1.10461e-31
4.29588e-33
-4.98653e-30
-6.27916e-35
2.97233e-36
-3.2419e-33
-7.62987e-38
1.82148e-39
-3.2303e-37
-3.19357e-43
1.27434e-42
-2.55606e-40
9.98284e-44
9.25403e-46
-8.87479e-44
1.2274e-48
6.60106e-49
-8.47852e-47
2.02172e-51
4.6738e-52
2.10327e-50
-7.02565e-53
3.31882e-55
-2.01578e-53
1.14908e-56
2.35374e-58
-2.27823e-56
1.88277e-59
1.66403e-61
-5.19937e-60
-2.67062e-62
1.18147e-64
3.3744e-65
2.56393e-65
8.35084e-68
-8.23135e-66
1.28588e-68
5.87933e-71
-2.65235e-69
3.15766e-72
4.14599e-74
2.72856e-73
2.14262e-75
2.92019e-77
5.0505e-76
8.03049e-78
2.05206e-80
-3.888e-79
9.18119e-82
1.43877e-83
-3.32014e-83
8.14308e-85
1.00842e-86
5.59194e-85
2.57535e-87
7.06416e-90
7.04737e-91
5.81577e-91
4.9448e-93
4.04789e-94
3.32185e-94
3.4608e-96
-5.45241e-95
8.11032e-97
2.40997e-99
-8.50838e-98
-3.33932e-99
1.67326e-102
7.95789e-104
1.3002e-103
1.16306e-105
-2.04897e-104
1.23428e-106
8.06422e-109
-2.11178e-108
1.1177e-109
5.58186e-112
7.7874e-112
5.51531e-114
3.85336e-115
-8.30135e-114
1.01637e-115
2.65372e-118
2.51022e-119
1.5504e-123
1.82642e-121
-1.82302e-120
-8.20876e-123
1.25393e-124
-1.72448e-123
1.05289e-125
8.59649e-128
2.47846e-126
2.95101e-128
5.88991e-131
-6.02295e-130
1.3436e-131
4.02099e-134
4.49035e-134
-2.97257e-135
2.74161e-137
-1.30398e-137
7.33719e-138
1.86692e-140
-2.60869e-139
4.4094e-141
1.26561e-143
3.54788e-145
1.85952e-147
8.26908e-147
9.32731e-148
5.29888e-151
5.913e-149
-1.10751e-156
3.23582e-08
-2.13371e-09
-9.03855e-08
5.0084e-08
-6.21865e-09
3.23404e-07
-6.23797e-09
-5.61136e-09
-5.3254e-09
-3.76169e-08
-5.40523e-08
-9.00853e-08
1.92391e-09
1.3288e-08
1.90964e-08
-9.49984e-09
4.57344e-09
5.30888e-08
-7.87962e-10
-2.32159e-09
2.96429e-08
-1.19527e-07
-2.55717e-08
3.59725e-09
-2.27391e-09
2.88252e-07
1.1017e-07
1.48984e-09
-3.79311e-09
1.76582e-09
3.68589e-10
-1.10372e-07
6.63676e-10
-1.31896e-10
4.12422e-10
-6.87072e-10
9.94895e-11
-1.24745e-10
1.09051e-14
-1.11931e-17
4.80888e-18
-1.77169e-17
-1.22119e-14
1.18994e-14
-1.16459e-14
-6.82806e-18
3.02516e-16
3.29731e-16
-1.64802e-16
-1.67119e-16
9.74161e-24
-1.62136e-20
-1.23876e-22
3.90541e-20
-1.68179e-19
3.5842e-20
-1.54585e-19
-1.5596e-25
-2.47218e-24
1.46023e-26
3.29628e-25
7.24037e-27
-3.03313e-29
2.66725e-26
2.26634e-27
-1.85013e-29
4.25925e-29
2.20733e-29
-1.95101e-32
4.08299e-33
1.20625e-32
-3.09604e-35
1.1513e-36
3.00478e-36
-8.33852e-39
8.58977e-40
1.18112e-39
-9.73614e-42
6.18754e-43
5.0538e-43
-3.83239e-45
4.32828e-46
1.00227e-46
-1.18125e-46
3.01863e-49
2.81231e-49
1.79393e-50
2.10576e-52
-1.01398e-53
3.2043e-54
1.46661e-55
1.27681e-57
-2.79574e-56
1.02009e-58
-1.02341e-59
-1.85163e-60
7.08621e-62
-3.4044e-64
4.16134e-63
4.91022e-65
-5.66772e-66
-1.82732e-65
3.3965e-68
6.32258e-69
2.12752e-69
2.34751e-71
3.03571e-72
-9.96114e-73
1.61964e-74
3.50445e-76
5.62002e-76
1.11492e-77
5.35377e-78
-7.89411e-80
7.67454e-81
9.60653e-82
-9.13072e-83
5.27652e-84
-7.6833e-85
8.92144e-86
3.6202e-87
5.61023e-88
-4.39332e-94
2.48274e-90
-1.91285e-91
-3.21121e-97
1.6977e-93
4.03081e-94
1.01554e-96
1.15714e-96
1.62844e-98
-2.30239e-97
7.87895e-100
4.02723e-101
1.39032e-100
5.35553e-103
-7.16667e-104
5.149e-104
3.63303e-106
5.80302e-107
-1.12283e-107
2.4618e-109
-3.41312e-110
-3.68289e-110
1.66417e-112
7.30579e-114
1.82807e-114
1.12187e-115
1.8748e-115
1.72503e-116
7.55345e-119
1.39937e-119
8.01842e-120
5.07682e-122
2.97754e-123
-8.59429e-124
3.40704e-125
-1.44491e-125
1.59357e-125
2.28449e-128
5.05495e-129
-2.75998e-129
1.52821e-131
6.15792e-132
-1.66875e-133
1.0199e-134
3.20043e-135
-5.96465e-140
6.79274e-138
1.17172e-138
3.09122e-139
4.51331e-141
7.43436e-142
1.29557e-142
2.92874e-144
4.12949e-146
6.34056e-146
-4.4916e-148
5.90261e-150
-2.7331e-08
1.61327e-08
4.26524e-07
1.47208e-08
1.22486e-08
1.39731e-08
-2.72181e-08
-2.7509e-08
-2.71855e-08
-3.57982e-09
-2.57843e-08
-3.74251e-08
4.48706e-08
-1.10702e-08
1.65879e-07
-9.82537e-07
-5.48025e-08
-5.76272e-08
2.386e-08
6.25806e-08
9.31876e-09
-1.0641e-08
1.39562e-08
-2.00983e-08
-8.58124e-09
-1.93056e-08
3.11249e-08
-3.14275e-08
-2.36362e-09
-2.52362e-08
-1.64456e-07
1.5184e-08
2.3377e-08
-2.80772e-08
-2.36306e-07
-6.24157e-08
4.86674e-09
-3.7375e-08
8.10356e-09
3.48813e-09