/*--------------------------------*- C++ -*----------------------------------*\
| =========                 |                                                 |
| \\      /  F ield         | OpenFOAM: The Open Source CFD Toolbox           |
|  \\    /   O peration     | Version:  5.0                                   |
|   \\  /    A nd           | Web:      www.OpenFOAM.org                      |
|    \\/     M anipulation  |                                                 |
\*---------------------------------------------------------------------------*/
FoamFile
{
    version     2.0;
    format      ascii;
    class       volScalarField;
    location    "4.1";
    object      alpha.water;
}
// * * * * * * * * * * * * * * * * * * * * * * * * * * * * * * * * * * * * * //

dimensions      [0 0 0 0 0 0 0];

internalField   nonuniform List<scalar> 
7758
(
1.06911
1.01325
1.00379
0.996238
1.01364
1.01254
0.361928
-2.19145e-22
-4.12284e-19
7.34493e-22
2.17644e-18
9.47343e-20
2.54694e-22
4.90439e-26
5.09304e-30
1.751e-33
7.26439e-37
3.20057e-40
1.4412e-43
5.7365e-47
3.09888e-50
1.18444e-53
5.33136e-57
1.94151e-60
1.14736e-63
2.06009e-66
5.36333e-70
9.76773e-74
3.70869e-76
8.20476e-80
8.3656e-83
1.16541e-86
2.13838e-89
8.25254e-92
2.99095e-95
2.66557e-98
6.78797e-102
3.22623e-104
6.45706e-108
5.61892e-112
6.65711e-115
1.76346e-117
2.31176e-120
5.09502e-123
8.6362e-127
6.91281e-130
1.18872e-133
1.87414e-137
5.83133e-139
3.59694e-142
1.06633
1.03827
1.01995
1.01127
0.983175
1.02557
0.732709
-9.59226e-19
-2.70469e-20
1.51188e-16
5.63391e-18
1.22593e-20
4.03063e-23
2.69774e-26
2.75826e-30
6.84038e-34
2.79527e-37
1.19471e-40
5.13367e-44
2.14706e-47
9.25819e-51
3.94277e-54
1.87398e-57
9.02852e-61
3.47814e-64
1.57494e-67
1.04306e-70
3.20922e-74
1.74687e-77
1.09561e-80
6.35205e-84
1.47284e-86
1.92275e-90
3.96467e-93
9.67712e-97
1.11021e-99
4.85033e-103
4.13333e-107
1.5188e-108
1.39212e-111
1.90583e-115
1.76065e-118
2.44945e-122
4.76177e-126
1.80703e-128
8.28894e-132
1.10242e-135
2.19508e-139
9.32152e-143
1.3588e-143
1.01102
1.04173
1.02309
1.00124
0.982598
1.00068
1.0004
-4.64019e-15
-4.49423e-18
-9.93276e-23
1.89782e-17
1.82527e-18
7.9825e-21
9.68422e-25
6.56384e-29
2.29901e-32
9.68675e-36
4.41253e-39
1.94377e-42
7.71344e-46
3.43293e-49
1.4223e-52
8.04544e-56
3.02471e-59
1.49745e-62
1.87559e-65
1.5019e-68
1.09646e-72
5.72266e-75
6.39535e-78
4.3287e-82
7.51014e-86
9.28856e-87
1.21761e-89
9.37078e-94
2.76683e-97
1.71016e-100
1.64504e-104
2.4054e-106
1.49788e-109
4.13638e-113
1.62126e-116
3.17215e-119
2.24164e-123
2.02196e-126
1.84965e-130
2.77825e-132
3.62249e-135
1.72046e-139
1.71947e-143
1.01898
1.0213
1.01619
1.04024
1.01637
0.997397
0.999912
0.00532699
-1.30649e-17
-1.62587e-20
4.86253e-18
8.34246e-19
1.51688e-20
1.95536e-23
1.76275e-27
2.81322e-31
1.09658e-34
5.06081e-38
1.98927e-41
8.32619e-45
3.76588e-48
1.49666e-51
1.59465e-54
5.96013e-58
3.11319e-61
1.08509e-64
2.63311e-68
1.66629e-70
4.88363e-74
4.66888e-78
3.61752e-80
3.06172e-83
7.28975e-87
1.24966e-90
5.35048e-93
1.40655e-96
4.15284e-100
6.53238e-103
2.77333e-105
1.56447e-108
2.55e-112
6.17406e-115
2.17891e-118
1.87573e-121
2.95666e-124
1.07368e-127
6.37622e-132
6.99318e-135
5.4316e-138
1.52389e-140
1.01096
1.03811
0.99358
0.989347
0.937061
0.999803
1.00197
0.40677
-1.11746e-16
-9.87412e-19
-5.04872e-32
4.63263e-18
1.53729e-19
2.77217e-22
3.57105e-26
4.67177e-30
1.60884e-33
6.96604e-37
2.99542e-40
1.56174e-43
5.28292e-47
4.2002e-50
1.03912e-53
5.36701e-57
1.96204e-60
2.73816e-63
7.38949e-67
9.37961e-70
2.86249e-72
1.30241e-75
1.19467e-78
1.12743e-82
5.35345e-85
8.20947e-89
1.23949e-92
8.34855e-96
5.78996e-98
1.77226e-101
1.26907e-105
6.68831e-108
6.57336e-112
1.58978e-114
5.17417e-117
6.48032e-120
1.95063e-123
4.45028e-127
4.47528e-129
2.03512e-132
1.7857e-135
2.53682e-139
1.05138
0.93085
0.922834
1.01798
1.00068
0.988796
1.00192
0.587465
-7.32424e-17
-3.43723e-19
5.04872e-32
3.64091e-18
1.21418e-19
2.20961e-22
2.85121e-26
3.51818e-30
1.27992e-33
9.18504e-37
2.9503e-40
2.29141e-43
6.16129e-47
2.53122e-50
8.94164e-54
2.04475e-56
6.36057e-60
3.55072e-62
9.02796e-66
8.79091e-70
5.26049e-72
1.14046e-74
1.1961e-77
1.09107e-81
1.62626e-85
1.75836e-88
4.7004e-91
5.947e-95
4.73759e-98
9.36809e-101
7.67091e-105
3.46548e-107
2.53851e-110
5.54792e-113
2.79109e-116
1.02908e-119
2.03048e-123
2.69078e-126
2.21433e-130
4.67385e-134
1.87952e-137
4.59332e-141
0.999177
1.02978
0.964257
1.01344
1
1.01969
1.00391
0.251226
-7.47439e-18
-1.62489e-20
4.59668e-18
7.83477e-19
1.40422e-20
1.76556e-23
1.56041e-27
2.52253e-31
9.81946e-35
4.20326e-38
1.77206e-41
7.73802e-45
5.91969e-48
1.4575e-51
7.39799e-55
2.58384e-58
2.37721e-61
5.14031e-65
1.9005e-68
3.2261e-71
1.84931e-73
2.77405e-77
2.8346e-81
1.37405e-83
1.34239e-87
1.28968e-90
4.7551e-94
8.37553e-97
2.10951e-100
1.28787e-102
7.83389e-106
1.11405e-108
9.30539e-113
1.37781e-115
5.18488e-119
3.50123e-122
2.93177e-125
5.41762e-129
6.60725e-131
2.00071e-134
1.14668e-138
2.4259e-140
1.04471
1.01688
1.03542
0.87323
1.0337
1.00057
1.00201
-8.81297e-16
-4.935e-18
-8.48244e-23
1.83967e-17
1.7173e-18
8.15413e-21
1.16466e-24
7.6063e-29
2.58471e-32
1.08285e-35
4.59413e-39
2.04187e-42
1.01973e-45
3.68887e-49
2.36204e-52
1.29024e-55
2.78923e-59
1.06272e-62
6.14751e-65
4.76321e-68
3.20815e-72
6.72292e-76
1.05654e-77
3.48289e-81
3.1296e-84
3.29485e-87
4.95038e-91
2.9334e-94
1.62908e-96
1.52409e-100
1.24123e-103
1.05313e-106
8.33633e-110
2.21172e-113
5.25027e-116
2.1827e-119
1.83334e-122
6.7448e-126
2.98203e-130
8.51969e-134
3.31182e-137
1.30504e-140
9.38839e-144
1.04437
0.999319
0.945205
0.948668
0.985122
0.985547
1.00006
-3.15122e-16
-5.94154e-20
1.30341e-16
8.15175e-18
2.73757e-20
3.76215e-23
2.66734e-26
3.98403e-30
9.58526e-34
3.90765e-37
1.6864e-40
7.3886e-44
3.13766e-47
1.31836e-50
5.81825e-54
2.47275e-57
1.04408e-60
1.11702e-63
2.03295e-67
7.92933e-71
3.52872e-74
1.51678e-77
6.86587e-81
7.70827e-83
1.13128e-86
1.16253e-90
3.50319e-94
4.38607e-96
1.47108e-99
9.58913e-103
7.79833e-107
1.39777e-110
2.31712e-112
2.69294e-115
4.69699e-118
1.49117e-121
2.33061e-125
2.10119e-128
1.55552e-131
2.87815e-134
3.55652e-137
5.46723e-140
3.32068e-144
1.02503
1.01181
1.02191
1.02189
1.0165
1.00451
0.764753
-4.265e-19
-1.23508e-19
2.22608e-22
1.85933e-18
1.25535e-19
4.81685e-22
9.97949e-26
9.2229e-30
3.00602e-33
1.25327e-36
5.34775e-40
2.29218e-43
1.0323e-46
4.17281e-50
1.76237e-53
7.43697e-57
3.11794e-60
1.45789e-63
5.76785e-67
3.57752e-70
1.41563e-73
4.48985e-76
1.28652e-79
4.97158e-83
1.00239e-85
5.72824e-89
3.88753e-92
4.18529e-96
6.43484e-99
1.16331e-101
1.99761e-105
1.17492e-107
2.94282e-111
2.58065e-115
8.08522e-119
1.47329e-120
7.73131e-124
1.53148e-127
3.12943e-130
4.82367e-134
8.79386e-137
9.50466e-141
6.88526e-144
1.05471
1.00638
0.98996
0.978761
0.958058
1.00158
0.37776
7.2281e-13
2.09996e-15
6.96001e-18
5.41268e-18
6.15402e-19
8.95281e-21
1.30901e-23
2.80957e-27
8.185e-31
5.71317e-34
4.31011e-37
3.13888e-40
2.25921e-43
1.6255e-46
1.16783e-49
8.36703e-53
5.98299e-56
4.26797e-59
3.03676e-62
2.15735e-65
1.52914e-68
1.08076e-71
7.62216e-75
5.36109e-78
3.76111e-81
2.63479e-84
1.8418e-87
1.2852e-90
8.9489e-94
6.21255e-97
4.30022e-100
2.97182e-103
2.05091e-106
1.41215e-109
9.70345e-113
6.65133e-116
4.54826e-119
3.10415e-122
2.11301e-125
1.43494e-128
9.73383e-132
6.58685e-135
2.63162e-138
1.07323
1.03872
1.00164
1.03624
1.00177
1.0194
0.731188
7.42703e-13
6.014e-15
8.4264e-15
6.99794e-16
2.24775e-18
7.44672e-22
3.63949e-25
1.22282e-28
6.22042e-32
4.45174e-35
3.25968e-38
2.33174e-41
1.67258e-44
1.20572e-47
8.58269e-51
6.22033e-54
4.45042e-57
3.13553e-60
2.22874e-63
1.58766e-66
1.12548e-69
7.9192e-73
5.58896e-76
3.94057e-79
2.76459e-82
1.94822e-85
1.36502e-88
9.42498e-92
6.5533e-95
4.55228e-98
3.15126e-101
2.17626e-104
1.49912e-107
1.03141e-110
7.07276e-114
4.84806e-117
3.31852e-120
2.25814e-123
1.53628e-126
1.04835e-129
7.07087e-133
4.7775e-136
1.91256e-139
1.02842
1.05097
1.02057
1.00536
0.93858
1.00146
1.00064
3.27287e-09
1.15697e-15
2.39546e-16
3.252e-16
5.93715e-17
9.93827e-19
8.55024e-22
7.56654e-26
2.82095e-29
2.12153e-32
1.52197e-35
1.06678e-38
7.46079e-42
5.21337e-45
3.6362e-48
2.53009e-51
1.75801e-54
1.21812e-57
8.42334e-61
5.81595e-64
4.00524e-67
2.7526e-70
1.89102e-73
1.29646e-76
8.87164e-80
6.06362e-83
4.13311e-86
2.80748e-89
1.90568e-92
1.2914e-95
8.73117e-99
5.89413e-102
3.96902e-105
2.66653e-108
1.78872e-111
1.19788e-114
8.00886e-118
5.34782e-121
3.56438e-124
2.36995e-127
1.57244e-130
1.04096e-133
4.08339e-137
1.00286
1.02404
1.00318
1.03563
1.01429
0.997857
0.999699
0.0115028
1.88656e-13
2.67718e-16
3.71656e-17
7.886e-18
3.64207e-19
2.21081e-21
1.11115e-24
1.58273e-28
8.29607e-32
6.22699e-35
4.5156e-38
3.20877e-41
2.27657e-44
1.61221e-47
1.13836e-50
8.03882e-54
5.65119e-57
3.96729e-60
2.78086e-63
1.94577e-66
1.36095e-69
9.45956e-73
6.57028e-76
4.55625e-79
3.15064e-82
2.17452e-85
1.49967e-88
1.03066e-91
7.07302e-95
4.84427e-98
3.30856e-101
2.25531e-104
1.53514e-107
1.04577e-110
7.08622e-114
4.79775e-117
3.23029e-120
2.17522e-123
1.4617e-126
9.80793e-130
6.56549e-133
2.60095e-136
1.01465
1.11421
1.00004
0.988157
0.991543
0.997698
1.00233
0.409473
4.45225e-12
5.86124e-15
9.01739e-17
8.58643e-17
7.76905e-18
7.72018e-20
6.4326e-23
8.61638e-27
3.40399e-30
2.54151e-33
1.85559e-36
1.31686e-39
9.31851e-43
6.58788e-46
4.64477e-49
3.27015e-52
2.2968e-55
1.60915e-58
1.12582e-61
7.85898e-65
5.47112e-68
3.80132e-71
2.63594e-74
1.823e-77
1.25911e-80
8.67362e-84
5.96152e-87
4.09165e-90
2.80158e-93
1.91319e-96
1.30445e-99
8.87882e-103
6.03247e-106
4.09202e-109
2.76839e-112
1.8683e-115
1.25887e-118
8.46604e-122
5.6797e-125
3.80451e-128
2.54326e-131
1.00543e-134
1.18882
1.07675
0.991137
1.04882
1.03385
0.949167
1.0024
0.58841
3.89729e-12
5.19974e-15
1.7345e-16
1.69791e-16
1.62438e-17
1.78105e-19
1.60144e-22
2.09957e-26
7.94882e-30
5.92841e-33
4.32575e-36
3.06566e-39
2.16507e-42
1.52847e-45
1.0765e-48
7.56573e-52
5.30472e-55
3.70988e-58
2.59226e-61
1.80721e-64
1.25671e-67
8.72302e-71
6.03649e-74
4.1665e-77
2.87422e-80
1.97853e-83
1.35804e-86
9.30656e-90
6.36365e-93
4.34197e-96
2.95838e-99
2.01119e-102
1.36426e-105
9.24008e-109
6.24401e-112
4.20821e-115
2.83134e-118
1.9007e-121
1.27291e-124
8.51743e-128
5.69136e-131
2.24969e-134
0.75205
0.998978
0.844133
0.776222
1.00233
1.02595
1.00379
0.260588
1.44285e-13
2.27423e-16
2.68713e-17
5.47692e-18
2.35157e-19
1.36659e-21
6.86671e-25
1.03727e-28
5.43564e-32
4.04066e-35
2.90663e-38
2.06202e-41
1.47788e-44
1.04697e-47
7.32552e-51
5.19811e-54
3.66413e-57
2.54996e-60
1.78611e-63
1.25043e-66
8.74912e-70
6.21311e-73
4.2382e-76
2.93604e-79
2.03543e-82
1.40689e-85
9.78967e-89
6.69086e-92
4.58863e-95
3.16072e-98
2.16638e-101
1.46947e-104
9.99922e-108
6.80256e-111
4.6147e-114
3.12717e-117
2.10849e-120
1.42049e-123
9.70145e-127
6.43168e-130
4.31193e-133
1.85925e-136
1.05732
1.00329
1.00221
1.00028
1.02668
1.02917
1.00235
1.069e-06
2.09857e-15
3.99469e-16
3.96983e-16
7.30993e-17
1.36353e-18
1.38426e-21
1.30141e-25
4.42735e-29
3.32179e-32
2.39056e-35
1.67715e-38
1.17381e-41
8.21014e-45
5.73025e-48
3.9898e-51
2.7738e-54
1.92429e-57
1.33186e-60
9.20105e-64
6.34204e-67
4.36067e-70
2.99714e-73
2.0569e-76
1.40835e-79
9.62351e-83
6.5595e-86
4.46099e-89
3.03037e-92
2.05415e-95
1.38933e-98
9.38745e-102
6.32718e-105
4.25525e-108
2.85675e-111
1.91421e-114
1.27976e-117
8.54454e-121
5.69274e-124
3.78235e-127
2.50994e-130
1.66414e-133
6.53655e-137
1.03645
1.00996
0.989701
0.957716
1.00031
0.962224
1.00027
1.41641e-10
6.8838e-15
6.92953e-15
9.22637e-16
9.20068e-18
4.14547e-21
5.28894e-25
2.02448e-28
1.39329e-31
9.61604e-35
6.49445e-38
4.37785e-41
3.00688e-44
2.07514e-47
1.43955e-50
9.99885e-54
6.85705e-57
4.9631e-60
3.35627e-63
2.25631e-66
1.55467e-69
1.07816e-72
7.3041e-76
5.15266e-79
3.43066e-82
2.37033e-85
1.58631e-88
1.07464e-91
7.31221e-95
4.95586e-98
3.34542e-101
2.25487e-104
1.51978e-107
1.02366e-110
6.88903e-114
4.65324e-117
3.08483e-120
2.07171e-123
1.4108e-126
9.22058e-130
6.09324e-133
4.04702e-136
1.60856e-139
1.04162
1.02257
1.02357
1.04257
0.998681
1.00435
0.764411
1.28891e-12
7.96324e-15
9.17587e-18
3.61118e-18
2.89276e-19
3.24985e-21
3.94561e-24
8.15187e-28
2.7649e-31
1.9774e-34
1.49679e-37
1.09552e-40
7.9275e-44
5.7309e-47
4.13573e-50
2.97651e-53
2.13858e-56
1.53281e-59
1.09556e-62
7.81659e-66
5.56463e-69
3.95286e-72
2.80081e-75
1.97944e-78
1.39512e-81
9.8081e-85
6.88234e-88
4.81801e-91
3.36779e-94
2.34783e-97
1.6321e-100
1.13207e-103
7.83977e-107
5.41642e-110
3.73429e-113
2.56841e-116
1.76229e-119
1.20685e-122
8.24416e-126
5.619e-129
3.82526e-132
2.59651e-135
1.03992e-138
1.03896
1.01534
0.987667
1.01754
0.999564
1
0.375654
-2.62797e-22
-3.79113e-19
5.82219e-22
1.04643e-18
4.88455e-20
1.38524e-22
2.9238e-26
3.05211e-30
1.06943e-33
4.2545e-37
1.89135e-40
8.93939e-44
5.59007e-47
1.72955e-50
8.2803e-54
4.18045e-57
1.31148e-60
9.24779e-64
2.03843e-66
4.56582e-70
1.28075e-73
1.40972e-76
2.37014e-80
1.03588e-82
6.49497e-86
4.38847e-89
6.81922e-92
2.79789e-95
1.36224e-98
9.38584e-102
8.75031e-105
7.52744e-109
1.07838e-110
4.86472e-114
4.46447e-118
2.15446e-120
3.06815e-124
2.16409e-127
8.19644e-130
1.71281e-133
1.48369e-136
2.07719e-139
3.535e-142
1.05721
1.03903
1.04346
1.02467
0.998217
1.01784
0.731467
2.74903e-13
-2.679e-20
1.4873e-16
5.99446e-18
1.47275e-20
4.87746e-23
3.34328e-26
3.44213e-30
8.41836e-34
3.4334e-37
1.46699e-40
6.25627e-44
2.63635e-47
1.15938e-50
4.79418e-54
2.19634e-57
9.26214e-61
4.01712e-64
1.58545e-67
9.98095e-71
3.51471e-74
7.12496e-77
1.68702e-80
2.21964e-83
2.33656e-86
1.95831e-89
4.05857e-93
2.44357e-96
1.19291e-99
2.45797e-103
6.59651e-107
4.18936e-108
6.24461e-111
7.47681e-115
1.04504e-118
5.58189e-122
3.20147e-124
6.67733e-128
1.86315e-131
2.23097e-134
2.50217e-138
5.65619e-142
4.28981e-145
1.01025
1.03485
1.02208
1
0.956118
1.00261
1.00067
1.69646e-09
-4.4758e-18
-1.15116e-22
1.89315e-17
1.82068e-18
7.98909e-21
9.78281e-25
6.6847e-29
2.33923e-32
9.83266e-36
4.7854e-39
2.06501e-42
7.42769e-46
4.4077e-49
1.39698e-52
1.21951e-55
5.81687e-59
3.33316e-62
1.14756e-65
2.57784e-68
1.71909e-72
4.65207e-76
6.88795e-78
1.3564e-81
9.6671e-86
3.10037e-89
8.20906e-91
2.87074e-94
2.2362e-97
1.67399e-100
5.68711e-104
4.4683e-107
4.05322e-110
6.80918e-113
1.69615e-116
4.24022e-120
5.23094e-123
5.81146e-126
2.83129e-130
4.92596e-132
4.20215e-135
8.64415e-139
2.14611e-141
1.04201
1.02449
0.994577
1.02784
1.0108
1
0.999987
0.0104168
-1.3613e-17
-1.56626e-20
5.01356e-18
8.6231e-19
1.57214e-20
2.02719e-23
1.82445e-27
2.90909e-31
1.13443e-34
4.86261e-38
2.04927e-41
8.69827e-45
3.66355e-48
1.51511e-51
7.27159e-55
5.90661e-58
1.96988e-61
9.37349e-65
2.39059e-68
2.81581e-70
1.93623e-73
1.27296e-77
3.11562e-80
2.95989e-83
6.26241e-87
1.00492e-90
2.97847e-93
7.63702e-97
5.48056e-100
7.21154e-103
4.81574e-107
6.39392e-109
2.24694e-112
4.45827e-115
5.37803e-118
3.26286e-121
2.58595e-124
1.05314e-127
7.3541e-131
4.68278e-135
1.07977e-138
4.21127e-142
1.02863
1.04974
0.989127
0.994038
0.985987
1.01059
1.00227
0.40929
-1.05489e-16
-9.1298e-19
-5.04873e-32
4.79703e-18
1.602e-19
2.90714e-22
3.75627e-26
4.67534e-30
1.66928e-33
7.12642e-37
3.48939e-40
1.38407e-43
5.33747e-47
2.42823e-50
1.05167e-53
5.14703e-57
5.26766e-60
6.24233e-63
6.94877e-67
1.76172e-70
1.57207e-73
8.09192e-76
9.35921e-79
5.86559e-83
2.72264e-85
9.56887e-89
1.1058e-91
1.07896e-95
6.71078e-98
1.86853e-101
9.17208e-104
4.10927e-107
4.12732e-111
2.07804e-113
8.03488e-117
2.64863e-120
2.54715e-123
3.09222e-127
6.71403e-129
3.26089e-132
1.16555e-135
2.51078e-138
0.97845
1.06386
1.00796
0.974078
1.0979
1.00029
1.00228
0.588129
-7.88249e-17
-3.10264e-19
-5.04872e-32
3.72907e-18
1.24729e-19
2.27255e-22
2.93179e-26
3.64609e-30
1.31907e-33
5.77802e-37
2.47953e-40
4.64368e-43
7.46264e-47
6.8481e-50
2.3585e-53
6.84462e-57
2.8532e-60
8.29121e-64
1.06871e-66
1.86004e-70
6.01224e-74
4.95018e-75
9.57928e-78
8.09178e-81
9.09077e-85
3.97915e-88
4.81812e-92
9.09324e-95
3.99266e-98
9.87071e-101
9.64899e-105
1.67926e-107
1.58295e-110
4.03459e-114
1.91957e-116
9.99835e-120
2.71337e-123
2.13437e-127
6.19383e-131
3.34683e-132
1.88823e-135
7.27553e-140
1.06096
1.06508
0.94949
1.02751
0.932332
1.0117
1.00346
0.259912
-8.06193e-18
-1.77545e-20
4.47062e-18
7.61202e-19
1.35456e-20
1.70326e-23
1.50894e-27
2.44208e-31
9.50675e-35
4.21481e-38
1.72974e-41
7.37386e-45
6.45004e-48
1.58079e-51
6.28437e-55
3.63338e-58
1.78728e-61
1.39717e-64
2.71139e-68
1.02909e-71
1.46979e-73
4.73092e-77
3.42723e-81
1.28445e-84
4.22617e-88
9.71005e-91
2.93711e-93
1.05619e-96
1.07515e-100
9.63414e-103
1.49146e-106
3.6645e-110
4.05046e-113
5.72615e-116
6.50865e-119
4.48473e-122
1.48387e-125
9.92013e-130
2.64228e-133
1.03355e-136
7.27952e-140
4.73041e-140
1.09628
1.04146
0.989923
1.00271
1.0431
1.03266
1.00234
8.10777e-07
-5.02628e-18
-1.05205e-22
1.84603e-17
1.73279e-18
8.30649e-21
1.19911e-24
7.78303e-29
2.64215e-32
1.11287e-35
4.65966e-39
2.17224e-42
9.10872e-46
3.87346e-49
2.34343e-52
2.04228e-55
2.91929e-59
4.06567e-62
6.57661e-66
3.70191e-68
3.7166e-71
2.27886e-75
1.22486e-78
5.79411e-82
7.55421e-85
2.62622e-87
8.94649e-91
1.04106e-94
3.04449e-97
1.72639e-100
5.94745e-104
1.11989e-106
6.86735e-109
8.43282e-113
1.00628e-115
5.25112e-119
1.34307e-122
6.81309e-126
4.09363e-130
1.29857e-133
5.07269e-137
1.99978e-140
6.44633e-144
1.0532
1.02756
1.0153
0.951424
1.00045
0.979769
1.00019
7.02846e-11
-5.51716e-20
1.39954e-16
9.02164e-18
3.04012e-20
3.49176e-23
2.32869e-26
3.53658e-30
8.72218e-34
3.55775e-37
1.52128e-40
6.63085e-44
2.87197e-47
1.19492e-50
5.30391e-54
2.18697e-57
9.5301e-61
4.08319e-64
3.5108e-67
7.68897e-71
3.16249e-74
1.25496e-77
2.8538e-80
5.1481e-83
6.71218e-87
7.94741e-90
8.24281e-93
5.00239e-96
2.04792e-99
6.42168e-103
4.64065e-106
3.0335e-110
2.67511e-112
3.17628e-116
3.85002e-120
6.43257e-122
1.09304e-124
2.18507e-128
3.02499e-132
9.63048e-135
9.8675e-138
6.14604e-140
9.24673e-144
1.04898
1.04981
1.0085
1.01101
1.0452
1.00225
0.765177
-3.89226e-19
-1.19314e-19
2.70264e-22
1.3569e-18
9.07995e-20
3.39577e-22
6.92511e-26
6.50579e-30
2.12632e-33
8.88788e-37
3.83891e-40
1.62796e-43
6.89384e-47
2.97538e-50
1.28867e-53
5.31215e-57
2.26415e-60
1.14045e-63
4.9492e-67
2.20796e-70
8.37397e-74
1.31607e-76
9.42719e-80
1.03882e-83
1.16954e-85
5.01433e-89
4.21236e-93
1.25834e-96
7.29109e-99
3.8556e-102
6.0012e-106
1.18823e-107
7.42887e-111
1.8147e-114
3.49023e-117
1.38594e-120
1.92623e-124
3.0028e-127
3.79643e-130
1.96283e-133
1.54902e-136
1.21994e-140
2.09725e-144
1
1.03319
1.00142
0.999409
0.992258
1.03093
1.00204
1.00033
1.01983
1.00087
1.0225
1.0009
1.01719
1.00161
1.00143
0.992408
1.00223
1.00002
1.00184
0.990767
1.00235
1.00185
0.998161
1.00544
0.997372
1.00225
0.998078
1.00464
1.00407
1
1.00246
0.999091
1.00411
0.986597
1.00191
1.00166
1.06778
1.00565
0.948794
1.00135
1.05887
1.00592
1.00431
0.989696
1.00382
1.03027
1.00566
0.987897
1.0032
1.00467
1.00013
1.00117
1.02616
1.005
1.00095
1.00077
1.00026
1.00178
1
0.953617
1.00015
1.00131
1
1.00071
1.00035
1.00001
1.00434
1.00062
0.998646
1
0.990363
1.03021
1.00218
0.999348
0.989238
1.02953
1.00165
1.00126
1.0161
1.00204
1.01817
1.00104
1.01531
1.0018
1.00235
0.997403
1.0029
1.00315
1.00193
0.997166
1.00244
1.00281
0.997317
1.00444
1
1.00242
0.998016
1.00389
1.00458
0.990664
1.00235
1.00708
1.00404
0.994758
1.00181
1.00147
1.0311
1.00615
1
1.00158
1.00347
1.00598
1.00705
0.999997
1.00375
1.0256
1.00787
1.02623
1.00417
1.00514
1.00011
1.00086
1.0322
1.0053
1.00103
1.00082
1.00018
1.00149
1
0.983009
1.00004
1.0015
1
1.001
0.996218
1
1.00373
1.00086
0.998133
1
0.991048
1.02946
1.00144
0.99999
1
1.02684
1.00094
1.00124
1.01379
1.00205
1.0132
1.00054
1.00609
1.00154
1.00229
0.999424
1.00288
1.00286
1.00163
0.99861
1.00214
1.00276
1.00012
1.00424
0.98987
1.0021
1.00019
1.00361
1.00449
0.983423
1.0023
1.01118
1.00393
0.979174
1.00219
1.0017
0.999792
1.00617
0.993854
1.00171
1.01615
1.0059
1.00751
1.02141
1.00342
1.00491
1.00698
1.01678
1.00377
1.00513
1
1.00088
1.03321
1.00513
0.998872
1.00112
0.999988
1.00112
1
0.997011
1.00023
1.00149
1
1.00089
0.998395
1
1.00801
1.00035
0.999673
1.00001
0.956557
1.01015
1.0338
0.986816
0.983916
1.01986
1.0294
1.00899
1.00651
1.0187
1.00253
1.01453
1.00923
1.00649
-2.22957e-17
0.60562
-5.7919e-18
0.375151
7.85226e-10
0.60451
7.85226e-10
1.02868
0.99645
1.00156
1
1.0233
0.996949
1.00711
1.01374
1.01242
1.03638
1.02488
1.01112
1.03602
1.01522
-1.34751e-20
1.00004
-2.44384e-15
0.732242
2.60242e-10
1.00021
2.12829e-08
0.993718
0.999885
0.967897
0.955135
0.99411
1
0.988475
0.992225
1.0023
0.935544
1.00067
1.00249
0.942885
0.997309
-1.53434e-18
1.00118
0.238974
1.00114
1.52157e-06
1.0011
0.247545
0.929564
0.990862
0.984532
1.01554
0.947216
0.985541
0.972976
1.00031
1.00174
0.977725
0.997646
1.00269
0.977793
1.00007
0.550466
1.00069
0.96527
1.00008
0.551014
1.00086
0.960393
1.00034
0.985297
0.887679
0.965336
1.01245
0.974922
0.886021
0.992684
1.00192
0.973786
0.998858
1.00196
0.97594
0.995156
1
1.00193
1.00026
1.00248
1
1.00233
1.00041
0.976657
1.11508
1.00072
1.02042
0.939345
1.09278
1.0118
1
0.999946
0.991309
0.998902
0.999846
0.995524
1.0002
1.00033
1.0037
1
1.00261
1.00037
1.00421
0.997582
0.994971
0.982919
1.02882
1.00179
1.02091
0.945815
1.03608
1.01159
1.01937
0.992373
1.02047
1.01844
0.999453
1.0124
0.953836
1.00197
0.550655
1.00443
0.949966
1.00228
0.551712
0.991239
0.949625
0.998979
1.03365
0.990376
0.994172
0.958465
1.01333
1.01165
1.0274
1
1.01011
1.02771
1.01282
0.278713
1.00029
-4.25737e-18
1.00235
0.289081
1.00041
4.09834e-06
0.868245
1.02166
0.999757
0.999976
0.947216
1.02155
0.999834
0.997703
1
0.990308
0.975045
0.999988
0.974061
0.997972
-1.06384e-18
0.892345
-1.68786e-16
1.00025
6.62851e-08
0.890685
5.92278e-10
1.00369
1.00208
0.926121
1.01499
1.00293
0.972401
0.929019
1.00312
1.00905
0.998543
1.00454
1.00924
0.998754
1.00323
-5.26648e-21
0.452825
-4.50963e-23
0.766165
3.50154e-09
0.454379
3.50154e-09
0.981264
1.02399
1.03183
0.981744
0.979258
1.01118
1.03753
1.00765
1.00609
1.01229
0.997278
1.00887
1.01169
1.00524
2.37845e-09
0.603956
2.37845e-09
0.378784
2.37845e-09
0.605593
2.37845e-09
1.02083
0.992866
1.00106
1.00107
1.02431
0.992529
0.992805
1.00748
1.00996
0.997322
1.01832
1.01059
1.01006
0.968905
5.19432e-10
1.00042
3.46875e-08
0.73182
5.27278e-10
1.00021
3.46681e-08
0.99957
0.989233
0.978627
0.938591
0.958666
0.96619
0.988946
0.996678
1.00241
0.994629
1.00229
0.992379
1.00217
0.972768
2.27974e-06
1.0015
0.246816
1.00128
2.28087e-06
1.00111
0.246658
0.986599
0.996257
0.989919
1.0125
1
0.999264
0.977849
1.00034
1.00383
0.975166
0.999025
1.00095
1.00349
0.977163
0.550971
1.00029
0.961271
1.00004
0.551014
1.00149
0.960853
0.986617
0.994219
0.989603
0.998508
1.02418
1.01737
0.716118
0.993583
1.00196
0.965345
0.994645
0.992532
1.00205
0.963738
1
1.00254
1.0004
1.0027
1
1.00251
1.0003
0.962071
1.09595
1.02333
1.05235
0.989783
1.02633
1.00873
1.0012
0.995778
1.00577
0.982402
1.00058
0.997052
1.01911
1.00048
1.00441
0.997528
1.00275
1.00031
1.00428
0.997383
0.998579
0.993253
1.03461
0.979241
0.999841
1.02511
1.07476
1.01534
1.02298
1.00534
1.02596
1.01626
1.02195
1.00857
0.949971
1.00206
0.551513
1.00385
0.950512
1.00217
0.551367
1.00909
1
0.990611
1.04562
1.0215
0.837474
0.984124
1.01282
1.01297
1.03015
1.03224
1.01292
1.01265
1.0306
0.28848
1.0007
5.46607e-06
1.00237
0.289202
1.00044
5.4697e-06
0.93708
1.02061
1.00145
1.00026
0.752198
1.00545
0.99625
0.997929
1
0.963978
0.957197
0.996576
1.00003
0.926161
1.05347e-07
0.890495
1.01621e-09
1.0003
1.05508e-07
0.891368
9.32872e-10
0.999999
0.989903
0.985978
1.05041
1.02161
0.977469
1.02279
1.00136
1.00831
0.995617
1.00354
1.00242
1.00866
0.995912
9.65038e-09
0.454369
9.65038e-09
0.765036
9.65038e-09
0.454433
9.65038e-09
0.99992
1.0178
1.03509
1.01174
0.992974
1.01424
1.03452
1.0034
1.0021
1.00907
1
1.00484
1.00721
1.0018
7.46062e-10
0.606258
7.46062e-10
0.360375
-1.87658e-16
0.606289
-4.70658e-18
1.01694
0.986069
0.93526
0.982097
1.00398
0.993707
0.918687
1.00224
1.00932
0.964626
1.01593
1.00347
1.00907
0.964446
2.64075e-10
1.00034
2.13205e-08
0.732255
-2.43494e-20
1.00008
-2.39588e-15
0.917082
0.972929
0.98105
0.951108
0.915956
0.970464
0.986449
0.999309
1.00159
0.936739
1.00629
0.998042
1.00161
0.933136
1.54354e-06
1.0014
0.246891
1.00045
-1.5009e-18
1.00119
0.238839
1.00416
1.00438
0.978559
1.0109
0.991294
1.00466
0.976109
1.00072
1.00269
0.996372
1.00091
0.999708
1.00349
0.997755
0.551275
1.00034
0.960616
1.00008
0.550515
1.00105
0.965547
1.00577
1.03464
0.715339
0.984302
1.00355
1.01233
0.994727
1.00017
1.00409
0.988758
1.00259
1.00006
1.00399
0.983852
1
1.00242
1.00052
1.0021
1
1.00177
1.00023
1.00175
0.996172
1.00284
1.02903
1.01896
0.938515
1.021
0.998406
0.999414
1.02242
0.99999
1.00145
0.998235
0.975004
1.00053
1.0045
0.997537
1.00214
1.00034
1.00366
1
0.971113
1.07763
1.02709
0.995002
0.995766
1.0464
1.03087
1.0117
1.01741
1.00426
1.00296
1.01395
1.01639
0.999481
0.950508
1.00219
0.551641
1.0034
0.953336
1.0019
0.550353
1.01854
0.965629
0.973893
1.04004
1.02675
0.968736
0.976647
1.0122
1.01374
1.03381
1.03297
1.01274
1.01415
1.03495
0.288262
1.00062
4.09931e-06
1.00201
0.278343
1.00025
-5.93121e-18
0.749966
1.00243
0.991547
0.997641
0.743397
1.00942
0.989628
0.990908
1
0.935151
0.986791
0.988095
1
0.91404
6.61873e-08
0.891714
5.10652e-10
1.00006
-1.25903e-18
0.892276
-8.76556e-17
1.01625
0.960007
0.990654
1.02689
1.00003
0.981236
0.973725
0.996604
1.01146
0.984048
1.00962
0.997131
1.01134
0.983878
3.49537e-09
0.454196
3.49537e-09
0.766157
-4.82663e-21
0.45258
-1.47793e-22
1.00257
1.00098
1.00002
0.996771
1.00003
1.0029
1.00097
1.00754
1.0151
1.01473
1.03305
1.01543
1.01391
1.0074
1.00224
1.00014
1.00638
1.00193
1.00026
1.00752
1.0019
1.00911
1.00163
1.00607
1.01251
1.01368
1.00858
1.00646
1.0024
0.993843
1.00102
1
1
1.0021
1.00107
1.00719
1.03172
1.01807
1.01554
1.0178
1.01493
1.00782
1.00258
1.00217
1.00039
1.00735
1.00031
1.00745
1.00295
1.00553
1.00552
1.00107
1.00061
1.00545
1.00129
1.00587
1.01344
1.02516
1.00966
1.01916
1.02561
1.01059
1.01216
1.00332
1.00098
1.00304
1.00108
1.0012
1.0031
1.00375
1.01375
1.02543
1.01004
1.01111
1.01051
1.03515
1.01337
1.0055
1.00104
1.00546
1.00168
1.00548
1.00165
1.00519
1.01364
1.01732
1.02093
1.01075
1.02214
1.0108
1.01355
1.00305
1.00179
1.0014
1.00315
1.00172
1.00322
1.0028
1.00036
1.00177
1.00238
1.00165
1.00203
1.002
1.0002
0.989146
0.962483
0.999082
0.993661
0.950537
0.998408
0.983915
1
1.00292
1.00211
1.00249
1.00046
1.002
1
0.995369
1.00102
1.0025
0.99559
1.00267
0.964915
0.990032
1.00033
1.00237
1.00216
1.00222
1.00238
1.00226
1.00038
0.986584
0.997065
0.952804
0.999485
0.950769
0.998515
0.979984
0.999914
1.00301
1.00194
1.00211
1.00086
1.00222
1.0002
1.00098
1.00073
1.00063
1.00338
1.0014
1.00209
1.00075
0.998325
0.977071
1.00037
0.997398
0.989381
1.00011
1
1.00048
1.00201
1.00196
1.00547
1.00338
1.00182
1.0007
1.00002
0.997051
1.00349
0.97753
1.00361
0.97801
1.0007
1.00116
1.00304
1.00219
1.00323
1.00209
1.00312
1.00128
0.999948
0.997845
0.972925
1.00004
0.986188
1.00008
0.999983
1.00067
1.00606
1.00358
1.00252
1.00421
1.00225
1.00053
1.00105
1.00389
1.0042
1.00423
1.00372
1.00381
1.00187
0.99796
0.983425
0.999999
0.999125
0.967017
1.00001
0.998028
1.00061
1.00315
1.00091
1.00219
1.00275
1.00071
1.00147
0.993218
0.998623
1.00169
0.984594
1.00162
0.981921
0.992636
1.00063
1.00465
1.00369
1.00365
1.00392
1.00409
1.00031
0.997202
1
0.970102
1
0.966992
1.00005
0.994844
1.00075
1.00241
1.00241
1.00069
1.00321
1.00085
1.00082
1.00117
1.00044
1.0025
1.0014
1.00036
1.00227
1.0012
1.0086
1.00201
1.02122
1.06298
1.00453
1.01749
1.00876
1.00517
1.00443
1.00895
1.00578
1.00406
1.00898
1.00548
1.00007
0.994374
0.99987
1.00105
0.999586
0.995358
1.00028
1.00109
1.00147
1.00023
1.00203
1.00027
1.00226
1.0009
1.00886
1.07132
1.01191
1.01325
1.01085
1.0151
1.00864
1.00694
1.00585
1.00487
1.00933
1.00509
1.00917
1.00701
1.01265
1.01272
1.00958
1.00225
1.01379
1.01045
1.0124
0.995954
0.985382
1.00076
0.969714
0.963593
1.00088
0.998781
1.0065
1.0056
1.00547
1.00321
1.00555
1.00526
1.00563
1.0127
1.02736
1.02363
1
1.02232
1
1.01285
1.01286
1.00125
1.01291
1.01021
1.0129
1.00962
1.01315
0.9987
0.97042
0.968336
1.00137
0.968195
1.00102
0.998745
1.00632
1.00359
1.00601
1.00601
1.00581
1.0059
1.00612
1.00771
1.01024
1.00293
1.00472
1.01015
1.00302
1.00795
1.00566
1.01243
1.00064
1.00053
1.01333
1.00079
1.00543
1.00611
1.00255
1.00256
1.00092
1.00241
1.00263
1.00605
1.01275
1.0104
1.01293
1.02899
1.01364
1.02865
1.01293
1.00768
1.00488
1.00956
1.00309
1.00993
1.00306
1.00767
1.00546
1.00134
1.01538
1.00101
1.01531
1.00081
1.00578
1.00612
1.00098
1.00233
1.00279
1.0024
1.00277
1.00613
0.998546
1.00011
0.999998
1.00024
1.00004
0.999944
0.999467
0.963569
1
1.00178
1.00109
0.998281
0.999081
0.950329
0.997061
1
0.999004
1
0.999998
0.998632
1
0.996755
0.977656
0.999983
0.944563
1
0.959338
0.999219
0.998859
1.00027
1.00014
0.999811
1.00009
0.999827
0.999226
0.997199
1.00098
0.99729
0.998076
0.99543
0.998021
0.995269
0.994551
1
0.999426
0.997097
0.999509
0.997463
0.988925
1.00204
1.00314
1.00035
1.00066
1.00293
1.00041
1.00191
1.00173
1.00312
1.00101
1.00034
1.00496
1.00158
1.00086
1.00099
1.00006
1.00063
1
1.00009
1.0012
1.00079
1.00312
1.00413
1.00864
0.996782
1.00861
0.998124
1.00284
1.0023
1.00068
1.00289
1.00031
1.00299
1.00055
1.00226
1.00187
1
1.00371
1.00068
1.00472
1.00186
1.00083
1.00115
1
1.00005
1.00051
1.00031
1.00095
1.00098
1.00188
1.00138
0.998908
0.989698
1.00216
0.998584
1.00147
1.00881
1.0192
1.01616
1.0309
1.00726
1.01915
1.0153
1.00299
1.00034
1.00756
1.00182
1.00287
1.00029
1.00743
1.0077
0.999467
1.00262
1.01075
1.01135
1.0064
1.00385
1.00191
0.98936
1.00157
0.99945
0.998938
1.00145
1.00161
1.0099
1.0306
1.02072
1.01624
1.01973
1.01586
1.00952
1.00303
1.00192
1.00008
1.00702
1.00016
1.00743
1.00253
1.00488
1.00551
1.00205
1.0011
1.00533
1.00544
1.00198
1.01161
1.01699
1.01067
1.01593
1.01312
1.01279
1.00945
1.00328
1.00175
1.00367
1.0018
1.00329
1.00144
1.00382
1.00647
1.01813
1.00966
0.96492
1.00993
0.965378
1.00496
1.00481
1.00146
1.00537
1.00223
1.00548
1.00234
1.0047
1.00691
1.01485
1
1.00811
1.0051
1.00944
1.00171
1.00341
1.00209
1.00161
1.00405
1.00184
1.00415
1.00257
1.00015
1.00241
1.00219
1.00177
1.00041
1.00233
1.00164