/*--------------------------------*- C++ -*----------------------------------*\
| =========                 |                                                 |
| \\      /  F ield         | OpenFOAM: The Open Source CFD Toolbox           |
|  \\    /   O peration     | Version:  5.0                                   |
|   \\  /    A nd           | Web:      www.OpenFOAM.org                      |
|    \\/     M anipulation  |                                                 |
\*---------------------------------------------------------------------------*/
FoamFile
{
    version     2.0;
    format      ascii;
    class       volScalarField;
    location    "4.1";
    object      p;
}
// * * * * * * * * * * * * * * * * * * * * * * * * * * * * * * * * * * * * * //

dimensions      [1 -1 -2 0 0 0 0];

internalField   nonuniform List<scalar> 
7758
(
101.273
102.705
104.37
102.871
93.2456
94.3248
94.7714
91.9583
89.7908
87.503
85.1328
82.7217
80.2885
77.869
75.4518
73.0503
70.6613
68.3005
65.9608
63.6427
61.3255
59.0315
56.7665
54.4947
52.2464
50.0179
47.7961
45.5714
43.3662
41.1857
39.0012
36.8428
34.7139
32.5769
30.4285
28.3129
26.2557
24.2304
22.2147
20.1917
18.1977
16.2492
14.3028
12.3289
10.3835
8.48591
6.59179
4.68958
2.80917
0.93911
101.412
100.821
99.3626
100.08
99.2543
96.7913
96.1841
93.0985
90.1068
87.7661
85.2955
82.8259
80.3758
77.9228
75.4797
73.0771
70.6709
68.3191
65.982
63.646
61.3338
59.0369
56.7612
54.4991
52.2388
50.0037
47.7855
45.5733
43.3734
41.1886
39.0161
36.855
34.707
32.5623
30.4301
28.3198
26.2491
24.2131
22.1942
20.1897
18.2026
16.2519
14.3061
12.3463
10.3913
8.4763
6.57804
4.6863
2.80945
0.938766
102.24
100.908
100.855
99.4494
101.151
98.1092
97.4377
94.0499
90.6256
88.0768
85.5029
82.9441
80.4362
77.9687
75.5142
73.0831
70.6974
68.35
66.0056
63.6479
61.338
59.0405
56.7545
54.4903
52.2402
49.9973
47.7745
45.5795
43.3837
41.1896
39.0202
36.8542
34.688
32.5524
30.4379
28.3347
26.2492
24.2041
22.1913
20.1907
18.211
16.2502
14.2955
12.3446
10.3996
8.47268
6.57197
4.68747
2.81196
0.938644
100.309
102.053
102.061
99.8848
99.2409
98.1927
98.0958
95.3045
91.0315
88.3639
85.6787
83.0825
80.5093
78.0047
75.5421
73.1054
70.7071
68.3484
65.9877
63.6533
61.3467
59.0405
56.7581
54.4946
52.2531
50.0123
47.775
45.5849
43.3779
41.1801
39.0204
36.8486
34.6818
32.5474
30.4459
28.3516
26.2552
24.2009
22.1931
20.2003
18.2175
16.2386
14.2737
12.3372
10.4069
8.475
6.57267
4.69454
2.8183
0.933911
107.407
109.714
105.654
99.0224
99.5108
97.4995
98.5777
97.3622
91.3696
88.5187
85.7689
83.1149
80.5439
78.0216
75.5604
73.12
70.7245
68.3429
65.9693
63.6578
61.3524
59.04
56.7612
54.4976
52.2613
50.024
47.7845
45.5804
43.3661
41.174
39.0148
36.8407
34.6795
32.5462
30.447
28.3607
26.2642
24.2052
22.197
20.2088
18.2171
16.2239
14.2565
12.3275
10.4052
8.47748
6.58036
4.70981
2.82728
0.932043
125.06
132.15
113.441
100.036
99.6085
107.43
99.017
97.8498
91.2644
88.4497
85.7187
83.0826
80.5228
78.0146
75.5664
73.1276
70.7309
68.3431
65.9624
63.6407
61.3527
59.037
56.7627
54.5077
52.2666
50.0397
47.7954
45.5753
43.3584
41.1638
39.0064
36.8356
34.6729
32.5489
30.4512
28.3633
26.2775
24.215
22.2005
20.209
18.2115
16.2124
14.2426
12.3169
10.3991
8.48118
6.59657
4.73314
2.83777
0.935148
153.435
119.352
106.237
192.124
97.1734
100.218
98.2021
96.5594
90.7506
88.1423
85.5419
82.979
80.4754
77.988
75.5372
73.1099
70.7195
68.3451
65.9611
63.6286
61.3241
59.0316
56.7608
54.5154
52.2723
50.0361
47.8005
45.5707
43.3566
41.1717
39.0056
36.8248
34.6667
32.5555
30.4543
28.3575
26.2812
24.2292
22.2024
20.2032
18.2022
16.2043
14.2403
12.3137
10.3939
8.4826
6.6025
4.73263
2.84133
0.943478
95.3361
95.5365
97.2067
101.401
93.087
97.5515
96.5668
94.2778
90.1829
87.792
85.314
82.8387
80.3885
77.933
75.4815
73.0911
70.6966
68.3242
65.9699
63.6194
61.3184
59.0257
56.7542
54.5153
52.2719
50.0405
47.8026
45.5695
43.3754
41.1849
39.0018
36.8216
34.6717
32.5623
30.4526
28.3468
26.2799
24.2387
22.2062
20.191
18.1963
16.2127
14.251
12.3168
10.3945
8.48497
6.60086
4.72193
2.8401
0.948207
101.022
99.2467
94.6313
95.0049
97.0558
97.868
95.4267
92.7013
89.7156
87.5151
85.1432
82.7393
80.3166
77.8856
75.4654
73.0733
70.6693
68.3054
65.9608
63.6276
61.312
59.0201
56.7627
54.5111
52.2731
50.041
47.7992
45.5684
43.3649
41.1795
38.9878
36.8212
34.6888
32.5674
30.4456
28.337
26.2788
24.2451
22.2117
20.1922
18.195
16.2227
14.2668
12.318
10.3895
8.48651
6.59381
4.71112
2.82892
0.949139
101.166
102.022
103.655
99.7686
90.9423
93.905
94.2534
91.6016
89.6098
87.395
85.0753
82.6827
80.2608
77.8631
75.45
73.0505
70.6602
68.2989
65.9539
63.626
61.3143
59.0217
56.7654
54.5008
52.2633
50.0378
47.8013
45.5703
43.3626
41.1806
38.9913
36.8273
34.7031
32.5742
30.4354
28.3261
26.2642
24.2399
22.2146
20.1912
18.1964
16.2385
14.29
12.3223
10.385
8.49043
6.59719
4.69981
2.81467
0.93933
100.574
102.9
104.931
115.088
99.7861
92.8268
94.6581
91.9588
89.7907
87.503
85.1329
82.7217
80.2883
77.869
75.4518
73.0501
70.6613
68.3005
65.9609
63.6425
61.3254
59.0315
56.7664
54.4946
52.2465
50.0179
47.796
45.5714
43.3661
41.1857
39.0011
36.8427
34.714
32.5767
30.4285
28.3128
26.2556
24.2305
22.2147
20.1915
18.1976
16.2493
14.303
12.329
10.3835
8.48596
6.5917
4.68955
2.80912
0.939177
101.71
100.832
100.152
99.8267
97.9648
96.8257
96.2167
93.0982
90.1072
87.7659
85.2955
82.8259
80.3758
77.9228
75.4796
73.0769
70.6709
68.3192
65.9819
63.6458
61.3339
59.0369
56.761
54.499
52.2387
50.0037
47.7854
45.5733
43.3734
41.1886
39.0166
36.855
34.707
32.5624
30.4301
28.3197
26.249
24.2131
22.1942
20.1893
18.2026
16.252
14.3061
12.3461
10.3914
8.47633
6.57794
4.68639
2.80964
0.938718
102.877
101.37
100.841
99.5044
101.079
98.0616
97.425
94.0471
90.627
88.0767
85.5029
82.9441
80.4361
77.9687
75.5142
73.083
70.6974
68.35
66.006
63.6478
61.3378
59.0404
56.7544
54.4901
52.2402
49.9973
47.7746
45.5795
43.3838
41.1898
39.0199
36.8541
34.6881
32.5524
30.438
28.3347
26.2491
24.2041
22.1913
20.1906
18.211
16.2502
14.2955
12.3445
10.3996
8.47252
6.57197
4.68753
2.81197
0.938638
101.022
101.747
101.972
99.6562
99.147
98.1541
98.1169
95.2222
91.0321
88.3636
85.6788
83.0824
80.5093
78.0047
75.542
73.1054
70.7071
68.3483
65.9876
63.6532
61.3467
59.0405
56.7581
54.4947
52.2531
50.0122
47.7752
45.585
43.378
41.18
39.0203
36.8486
34.6817
32.5474
30.4459
28.3515
26.2551
24.2009
22.1931
20.2003
18.2175
16.2385
14.2736
12.3371
10.407
8.47498
6.57257
4.69451
2.81828
0.933775
104.323
103.756
104.733
98.3523
96.8269
97.705
98.546
97.2133
91.3698
88.5189
85.7689
83.1148
80.5437
78.0216
75.5605
73.12
70.7245
68.3428
65.9693
63.6578
61.3524
59.0396
56.7612
54.4977
52.2611
50.0241
47.7846
45.5804
43.3655
41.174
39.0148
36.8406
34.6797
32.5462
30.447
28.3606
26.2645
24.2051
22.197
20.2088
18.217
16.2239
14.2565
12.3276
10.4052
8.47746
6.58028
4.70975
2.82724
0.932091
122.395
114.558
107.015
102.866
97.8514
110.567
98.9555
97.8509
91.2646
88.4497
85.7185
83.0824
80.5232
78.0145
75.5664
73.1275
70.7308
68.3432
65.9623
63.6408
61.3526
59.037
56.7625
54.5077
52.2667
50.0398
47.7953
45.5752
43.3584
41.164
39.0064
36.8354
34.6727
32.5489
30.4512
28.3632
26.2775
24.215
22.2005
20.209
18.2115
16.2123
14.2426
12.3169
10.399
8.48116
6.59655
4.73317
2.8375
0.935121
132.299
128.672
108.985
114.226
98.4409
99.8293
98.1717
96.4255
90.7511
88.1422
85.5419
82.9789
80.4754
77.988
75.5371
73.1099
70.7195
68.345
65.9611
63.6286
61.3242
59.0316
56.7608
54.5153
52.2722
50.0361
47.8004
45.5707
43.3568
41.1717
39.0059
36.8246
34.6666
32.5555
30.4544
28.3572
26.2812
24.2292
22.2024
20.2033
18.2022
16.2041
14.2404
12.3136
10.3938
8.48258
6.60261
4.73269
2.84125
0.943706
95.2781
95.5303
97.2378
96.131
95.4816
97.2891
96.5133
94.2586
90.1835
87.7918
85.314
82.8387
80.3885
77.9329
75.4815
73.091
70.6969
68.324
65.9699
63.6193
61.3183
59.0257
56.7542
54.5153
52.2718
50.0408
47.8027
45.5694
43.3752
41.1849
39.0017
36.8215
34.6717
32.5623
30.4526
28.3468
26.2798
24.2387
22.2062
20.1909
18.1962
16.2128
14.251
12.3168
10.3944
8.48495
6.60086
4.72191
2.84003
0.948366
101.278
100.333
96.1752
95.5237
94.7378
95.6268
95.4283
92.6982
89.7162
87.515
85.1432
82.7393
80.3166
77.8856
75.4654
73.0735
70.6694
68.3049
65.9609
63.6277
61.312
59.0201
56.7627
54.5111
52.273
50.0409
47.7992
45.5684
43.365
41.1795
38.9879
36.8211
34.6888
32.5673
30.4455
28.337
26.2787
24.245
22.2116
20.1921
18.195
16.2228
14.2668
12.3179
10.3895
8.48648
6.59376
4.7111
2.82899
0.949141
100.518
101.567
103.331
100.992
92.4204
93.912
94.2847
91.6016
89.6098
87.3949
85.0753
82.6822
80.2607
77.8631
75.45
73.0508
70.6601
68.299
65.9539
63.626
61.3142
59.0217
56.7654
54.5007
52.2633
50.0377
47.8012
45.5703
43.3626
41.1805
38.9911
36.8273
34.7033
32.5742
30.4353
28.3263
26.2642
24.2399
22.2146
20.1912
18.1964
16.2384
14.2899
12.3222
10.385
8.49035
6.59694
4.69981
2.81466
0.939315
101.191
102.72
103.653
106.731
101.997
92.9159
94.6362
91.9587
89.7907
87.5028
85.1329
82.7219
80.2881
77.869
75.4517
73.0498
70.6612
68.3004
65.961
63.6422
61.3253
59.0316
56.7663
54.4944
52.2465
50.0179
47.7957
45.5714
43.3658
41.1856
39.0012
36.8427
34.714
32.5766
30.4284
28.3127
26.2556
24.2305
22.2147
20.1914
18.1975
16.2492
14.3031
12.3291
10.3834
8.48595
6.59158
4.68947
2.80902
0.939118
101.702
100.845
101.72
99.2838
97.7633
96.9422
96.2139
93.0987
90.1067
87.766
85.2954
82.8258
80.3757
77.9227
75.4796
73.0767
70.6708
68.3192
65.9818
63.6457
61.3344
59.037
56.7603
54.4986
52.2386
50.0035
47.785
45.5732
43.3736
41.189
39.0166
36.855
34.7068
32.5623
30.4301
28.3197
26.2489
24.2136
22.194
20.1892
18.2026
16.2521
14.306
12.3457
10.3913
8.47632
6.57786
4.68633
2.80973
0.938526
102.255
100.951
100.821
99.4642
100.557
98.0833
97.421
94.0492
90.6269
88.0767
85.5028
82.944
80.4361
77.9686
75.5141
73.083
70.6973
68.3497
66.0059
63.6477
61.3376
59.0404
56.7543
54.49
52.2401
49.9971
47.7746
45.5794
43.3837
41.1898
39.0198
36.8537
34.6881
32.5525
30.438
28.3347
26.2489
24.2041
22.1912
20.1905
18.2111
16.2503
14.2956
12.3441
10.3995
8.4724
6.57186
4.68753
2.81194
0.938317
102.476
102.686
101.969
99.954
99.1745
98.1624
98.0884
95.2254
91.0314
88.3635
85.6786
83.0823
80.5092
78.0046
75.542
73.1053
70.707
68.3481
65.9875
63.653
61.3469
59.0404
56.758
54.4947
52.2531
50.0116
47.7753
45.5849
43.378
41.1799
39.0202
36.8485
34.6817
32.5473
30.4459
28.3514
26.255
24.2009
22.1932
20.2002
18.2175
16.2384
14.2735
12.337
10.407
8.47491
6.57247
4.69445
2.81818
0.933444
106.172
94.6655
105.026
97.0663
95.8551
99.2359
98.5526
97.2276
91.369
88.5191
85.7689
83.1147
80.5433
78.0215
75.5605
73.12
70.7244
68.3428
65.9692
63.6579
61.3524
59.0393
56.7611
54.4977
52.2609
50.0241
47.7846
45.5803
43.3654
41.1739
39.0148
36.8406
34.6798
32.5461
30.447
28.3606
26.2644
24.2051
22.197
20.209
18.2169
16.2239
14.2564
12.3276
10.4051
8.47739
6.58042
4.70965
2.82708
0.931995
122.644
107.276
108.28
102.855
109.177
101.419
98.9716
97.848
91.2638
88.4498
85.7183
83.0823
80.5232
78.0145
75.5661
73.1274
70.7308
68.3433
65.9621
63.6406
61.3527
59.0365
56.7623
54.5075
52.2667
50.0397
47.7952
45.575
43.3583
41.1641
39.0067
36.8351
34.6725
32.5488
30.4512
28.3631
26.2775
24.2149
22.2003
20.2091
18.2114
16.2121
14.2426
12.3169
10.3988
8.48109
6.59657
4.73315
2.83707
0.935082
122.101
106.859
106.429
82.7765
106.546
99.6999
98.1692
96.4262
90.7506
88.1422
85.5418
82.9789
80.4753
77.9879
75.5371
73.1098
70.7194
68.3448
65.9611
63.6285
61.324
59.0315
56.7608
54.5153
52.272
50.0361
47.8003
45.5709
43.3568
41.1718
39.0059
36.8244
34.6666
32.5555
30.4544
28.3571
26.2812
24.2291
22.2024
20.2033
18.2021
16.2039
14.2403
12.3135
10.3937
8.48251
6.60281
4.73256
2.8408
0.943644
96.0949
99.6921
95.4089
95.9435
96.0388
97.4052
96.5305
94.2563
90.1832
87.7919
85.3139
82.8386
80.3884
77.9329
75.4814
73.091
70.6971
68.3237
65.9699
63.6194
61.3183
59.0257
56.7542
54.5152
52.2717
50.0409
47.8026
45.5692
43.3751
41.1849
39.0016
36.8214
34.6717
32.5622
30.4524
28.3467
26.2798
24.2386
22.2061
20.1907
18.1961
16.2128
14.2509
12.3167
10.3942
8.48488
6.60081
4.72187
2.84003
0.948379
101.434
100.557
96.962
96.9491
95.8101
96.3746
95.4283
92.6982
89.716
87.5151
85.1431
82.7392
80.3165
77.8855
75.4653
73.0736
70.6701
68.3047
65.9609
63.6277
61.3119
59.0203
56.7627
54.511
52.2729
50.0408
47.7988
45.5683
43.3651
41.1796
38.9877
36.821
34.6887
32.5673
30.4454
28.3371
26.2787
24.2448
22.2115
20.1921
18.1951
16.2228
14.2667
12.3177
10.3894
8.48639
6.59366
4.71103
2.82917
0.949049
100.863
102.884
101.061
100.065
89.9347
94.1773
94.2831
91.6019
89.6097
87.3949
85.0754
82.6821
80.2604
77.8631
75.4499
73.0513
70.6601
68.2991
65.9544
63.626
61.3139
59.0217
56.7654
54.5007
52.2634
50.0376
47.8011
45.5703
43.3628
41.1804
38.991
36.8273
34.7037
32.574
30.4352
28.3264
26.2642
24.2399
22.2145
20.1911
18.1963
16.2384
14.2898
12.3221
10.3851
8.49024
6.59676
4.69976
2.81467
0.939245
93.7627
96.714
95.5098
92.8344
93.7358
96.5792
95.5086
96.1036
98.6775
97.3027
96.6481
96.1044
98.5026
97.2685
97.5916
98.4189
98.0955
98.2394
97.5019
99.713
98.0667
98.4433
98.2571
98.264
98.1826
98.2598
98.2605
98.4178
98.4794
102.856
99.1616
97.4693
98.4543
102.288
99.1428
99.4642
104.948
98.9753
110.135
99.4461
103.74
98.9718
98.5971
100.912
97.001
101.159
98.3821
96.6701
96.9182
96.6749
95.2877
95.6478
97.2402
96.6672
95.2806
95.625
95.5126
94.1183
94.386
97.4221
95.5107
94.0267
94.388
93.9679
92.1896
93.4125
93.9187
93.972
92.07
93.4274
93.7472
96.6745
95.5078
92.8844
93.7527
96.5219
95.5139
96.1029
98.451
97.3022
96.9761
96.0975
98.3446
97.2919
97.6176
98.1916
97.9994
98.0461
97.5109
98.3571
98.0649
98.0681
98.1889
98.4653
98.1391
98.1547
98.1547
98.4779
98.3919
102.235
99.1099
98.0482
98.4727
103.353
99.1704
99.4261
103.277
98.9968
101.132
99.4284
103.035
98.9816
98.8015
96.5806
97.0194
99.9278
98.4998
97.4872
97.0566
96.6673
95.3424
95.6219
97.4322
96.6763
95.4344
95.6265
95.5125
94.0338
94.3886
96.5504
95.5167
94.0112
94.3936
93.9704
92.6009
93.4289
93.8099
93.9661
92.3898
93.4317
93.7265
96.5222
95.5165
92.9505
93.7604
96.507
95.5154
96.0974
98.3133
97.3064
97.1948
96.0951
98.6646
97.308
97.6191
98.3561
98.1461
98.1541
97.5737
98.2581
98.1024
98.0514
98.2585
98.3534
98.9527
98.2754
98.2487
98.5577
98.4866
101.298
99.1265
98.7671
98.4542
102.013
99.141
99.4348
103.184
98.9799
102.131
99.4349
96.2206
98.9808
98.3916
96.195
96.8998
99.5092
98.324
96.4515
96.9856
96.6776
95.4632
95.6272
97.4727
96.6736
95.546
95.6407
95.5281
94.0359
94.3937
96.7259
95.5352
94.0092
94.3913
93.9657
92.332
93.4312
93.825
93.9617
92.2151
93.4165
92.1185
100.001
96.7846
95.9847
92.881
99.3993
97.0046
93.9239
93.4884
93.9769
92.5994
93.4732
93.9468
93.4864
93.4302
95.761
93.8419
94.646
93.437
95.7844
93.8483
97.8622
98.0966
99.0393
97.7351
97.3804
98.1123
99.5216
96.99
96.4712
99.4936
96.6921
96.3228
99.4014
97.0604
94.1353
97.1981
94.9275
96.2129
94.1453
97.2007
94.9318
98.3231
99.4064
100.113
98.8348
98.345
99.4163
98.1942
97.5887
97.9057
104.387
98.1139
97.8991
102.84
97.9193
95.2808
97.7953
96.7886
97.4302
95.2803
97.7576
96.6765
101.445
98.8424
99.0377
99.2074
99.5453
99.3167
100.038
98.3767
98.3995
98.7317
98.1956
98.2802
98.7315
98.3819
97.1841
98.2861
98.2251
98.1024
97.1963
98.2863
98.2478
93.348
94.1392
93.1672
96.8495
94.6423
96.8921
95.9844
98.6998
97.9736
98.2475
97.4258
97.973
97.7718
98.8654
98.2291
98.9175
98.4508
98.5531
98.2589
98.8868
98.4616
104.843
105.312
103.338
98.0866
110.659
101.971
103.742
100.227
101.882
104.907
109.293
101.84
104.279
100.227
98.4273
98.8124
98.0198
98.9731
98.435
98.783
98.0364
99.4321
91.8374
96.4986
98.1128
102.459
96.948
95.9346
99.0681
99.2055
100.372
100.119
99.33
99.4752
99.0122
97.9132
97.2228
96.4044
98.2238
97.9296
97.2232
96.4245
102.334
91.798
94.3383
95.5904
96.6272
83.5407
101.945
96.2851
96.6905
96.6236
97.6246
96.9225
96.5884
96.228
95.9469
95.6373
94.1008
96.5199
95.8477
95.6315
94.0927
100.6
96.1734
94.4466
94.5072
109.859
96.184
94.4497
94.6963
95.6343
97.8665
96.4247
95.6399
95.2123
94.6932
93.7918
94.5504
93.1845
95.4289
93.7946
94.5878
93.1933
90.4438
77.8483
89.7379
90.8329
90.4806
86.8889
89.2809
93.3427
93.5013
92.946
93.9007
93.5479
92.9879
93.3488
92.9111
94.2131
93.1979
94.2847
92.9156
94.1643
93.2049
92.5958
100.09
96.7434
100.926
96.7332
98.3778
97.2177
93.8186
93.4586
93.5538
93.2666
93.9136
93.585
93.3972
93.4349
95.7865
93.8459
94.6713
93.4346
95.7865
93.8455
97.4294
98.1196
98.6786
97.8484
97.4458
98.1494
98.6891
97.0621
96.3842
99.3449
96.9897
96.8807
96.4061
99.5471
94.1436
97.1995
94.9278
96.2168
94.1431
97.1938
94.9283
99.1877
99.2283
98.1304
101.052
99.1265
99.5895
98.9576
98.1477
97.8954
103.118
98.0861
98.0434
97.8927
96.7503
95.2784
97.7648
96.6599
97.4183
95.278
97.7441
96.6567
99.3489
98.3969
100.44
99.1085
99.3779
98.4057
98.563
98.383
98.4163
99.4244
98.1139
98.4111
98.3438
98.8248
97.1943
98.3219
98.2535
98.0905
97.1946
98.4076
98.2402
107.153
94.5235
126.546
97.9726
98.8883
93.5608
125.638
98.6376
97.9638
102.375
98.7039
98.7873
97.9679
102.969
98.2629
98.8934
98.4608
98.5956
98.2622
98.8878
98.4605
102.862
101.882
103.915
95.5797
103.085
102.942
102.372
100.143
101.745
103.943
100.297
100.138
101.306
103.739
98.4356
98.7966
98.0353
99.0203
98.4349
98.782
98.0336
98.6451
94.5294
95.9109
93.328
98.3087
92.5024
102.779
98.8926
99.5043
99.2073
99.8477
99.0255
99.3578
99.3474
97.9384
97.2165
96.4244
98.1684
97.9368
97.2184
96.4229
96.3391
83.7746
97.5779
96.352
96.732
105.424
94.2862
96.2572
96.4963
96.5757
97.4356
96.2572
96.5144
96.6272
95.8275
95.6304
94.0903
96.5247
95.8297
95.6296
94.0898
106.145
96.1527
94.5872
95.544
108.385
96.3135
93.6129
94.7418
95.6542
97.6494
96.8611
94.8435
95.669
95.2536
93.7913
94.5935
93.1918
95.4284
93.7915
94.6006
93.1928
90.8437
77.8085
89.7169
92.9378
94.2789
84.437
98.5214
93.2617
93.59
93.4487
93.8685
93.2801
93.5676
93.4221
92.9121
94.1548
93.204
94.286
92.9119
94.1579
93.204
97.5147
98.1079
96.9231
103.148
97.3055
98.3414
96.8972
93.6919
93.3168
93.4407
92.9412
93.7161
93.3786
93.3534
93.4367
95.7896
93.8476
94.7741
93.4299
95.7687
93.8411
97.1092
98.9487
99.0113
99.1735
98.1347
98.5812
100.749
97.2531
96.3631
99.8007
96.8884
97.207
96.3825
99.7759
94.1444
97.1942
94.9325
96.1819
94.1334
97.1917
94.9285
99.4823
98.867
98.6579
100.175
99.6251
99.0506
98.6565
98.0533
97.9333
102.655
98.3788
97.9608
97.943
104.12
95.2816
97.7488
96.6706
97.4274
95.282
97.7844
96.787
100.098
98.5975
98.573
99.1641
98.9999
98.6098
98.8463
98.4344
98.4206
98.6539
98.5
98.472
98.2471
99.1201
97.1956
98.366
98.2441
98.0915
97.1854
98.3482
98.2282
95.6203
99.4739
127.881
96.0767
95.3163
98.4123
111.328
98.4989
97.9431
98.8346
101.467
98.4967
97.9519
99.9901
98.261
98.8721
98.4614
98.5619
98.2306
98.9215
98.4502
104.178
104.962
104.447
91.7221
106.469
107.764
103.696
100.673
101.12
105.004
101.504
99.9757
100.754
105.723
98.4365
98.8051
98.0338
98.9786
98.4281
98.8461
98.0184
100.16
100.698
94.9612
108.865
101.352
97.6585
94.7139
99.0197
99.1607
98.7514
99.9985
98.8409
99.1984
98.7202
97.9362
97.2185
96.4225
98.1735
97.9083
97.2218
96.404
96.6799
102.394
94.103
95.8424
97.4342
102.116
95.0836
96.2614
96.5018
96.8119
97.4161
96.2456
96.5361
96.9265
95.8403
95.6321
94.0918
96.5705
95.9464
95.6366
94.0984
108.777
96.8317
93.7793
94.7992
109.721
96.3983
94.0327
95.1434
95.7251
104.719
96.3344
95.7694
95.7262
98.0696
93.7947
94.5977
93.1948
95.4271
93.7917
94.5567
93.1854
93.4016
86.419
90.9376
85.9512
93.2384
85.0405
87.0765
93.814
93.7825
94.5365
94.2487
93.6685
93.7867
94.689
92.915
94.1681
93.2051
94.2529
92.9107
94.2121
93.1982
94.0294
93.6943
94.1259
93.7178
94.1399
94.059
93.694
95.0098
95.4147
95.8975
96.6952
95.3646
95.9559
95.0117
94.8785
94.8543
95.7522
95.5105
94.8642
95.6848
94.9218
93.9318
92.6472
93.4481
93.5294
93.4718
93.8832
93.4848
94.0318
93.7245
93.6956
94.1485
94.1464
94.0458
93.6932
95.0104
96.5739
95.3591
95.8483
95.3394
95.8339
94.9717
94.8788
95.5092
94.8682
95.6643
94.8667
95.6729
94.911
96.6468
96.2468
96.5595
96.108
96.247
96.5599
96.6608
97.8546
98.8392
97.9541
98.5582
98.9248
97.9128
97.9227
97.092
96.9371
97.404
97.2664
96.9043
97.4012
97.1306
97.0077
96.7837
96.3658
99.2547
96.3377
99.3005
96.9685
96.6481
96.1076
96.2519
96.5591
96.249
96.5596
96.6443
97.883
98.493
98.6634
97.9373
98.6862
97.9386
97.8599
97.1073
97.2786
96.9028
97.3972
96.9434
97.3948
97.1421
98.0481
97.7904
97.83
97.5576
97.7659
97.8326
98.0504
98.223
96.6629
98.3784
98.3719
95.2105
98.4209
97.7908
98.3047
98.7584
98.112
98.0661
98.3816
98.116
98.2727
97.5885
98.1027
97.9001
103.28
97.9154
102.621
98.845
98.0451
97.6274
97.7796
97.7629
97.8104
97.7792
98.0303
97.5082
98.9876
94.3385
98.3441
95.2392
98.4016
97.4664
98.3205
98.2413
97.9344
98.108
98.2439
98.1129
98.3359
98.2095
98.2321
98.5203
98.3406
98.1156
98.2775
98.237
98.7558
96.1815
98.2346
98.2825
97.9633
98.2138
98.5322
98.2817
98.5458
98.1034
98.2916
98.3149
98.1093
98.2802
98.3907
98.2075
98.3287
98.767
98.3464
98.7634
98.3847
98.2219
98.2271
98.1247
98.3084
98.1228
98.2955
98.2231
98.6318
98.2452
101.057
98.2233
96.865
98.2184
98.648
98.2747
98.4992
98.3201
98.0698
98.4595
98.0642
98.2705
98.5903
98.2699
98.6096
98.4611
98.2639
98.5624
98.6999
99.9152
104.948
99.9535
102.757
102.343
99.9455
99.9325
99.5121
99.069
99.5566
99.1255
99.0234
99.5488
99.5939
98.6714
97.4356
97.9835
100.416
97.9943
99.5174
98.7619
98.6253
98.5921
98.2546
98.5615
98.2583
98.5348
98.6866
99.8843
102.751
101.468
99.9666
102.437
99.9452
100.413
99.4781
99.1231
99.0102
99.5257
99.0378
99.5431
99.4665
99.6225
100.211
99.1505
99.44
100.21
99.1232
99.6278
100.305
100.695
100.433
104.502
100.451
99.9134
100.311
99.7905
99.1201
99.451
98.9682
99.1748
99.4535
99.747
100.204
108.026
101.594
104.167
101.742
104.306
100.164
99.612
99.4249
100.231
99.1359
100.221
99.122
99.616
100.312
105.992
100.336
99.9098
100.34
99.9124
100.326
99.7395
98.9704
99.1028
99.4523
99.1311
99.4512
99.7478
98.4785
98.7169
98.2488
98.6887
98.7638
98.285
98.4906
97.7569
102.175
96.7736
100.618
99.0321
96.7531
97.5015
97.2512
97.5842
96.7845
96.9569
97.6015
96.8033
97.2803
98.9087
100.214
99.7316
99.5319
99.3731
99.5134
98.8972
98.4876
99.0365
98.6041
98.1206
98.6094
98.1427
98.5138
97.3696
100.447
97.5083
96.659
97.6492
96.7202
97.3752
97.2177
96.8871
97.6021
96.7576
97.5951
96.7426
97.2024
96.303
96.6449
96.3204
96.6745
96.633
96.321
96.3137
96.3103
96.584
95.5498
95.2657
96.5064
95.536
96.3084
96.1834
96.0635
95.5261
95.6161
96.0594
95.5344
96.1814
96.251
97.2531
96.4833
96.5029
96.6479
96.506
96.2582
96.3032
96.6701
96.6208
96.318
96.6127
96.3217
96.3022
96.3115
95.3042
96.7625
95.5583
96.752
95.5438
96.303
96.1806
95.6165
96.0615
95.5297
96.0605
95.5411
96.17
94.9604
95.3341
95.0464
95.5116
95.3366
95.0365
94.9364
85.9029
94.6679
94.1227
94.0622
94.4874
93.7925
88.6351
94.7845
94.7622
94.1976
94.3892
94.7689
94.1313
95.282
94.8083
96.5409
95.659
97.4068
95.6526
95.9639
94.916
94.8735
95.5175
95.3255
95.0399
95.3302
95.0362
94.8809
97.2902
94.0871
94.6095
93.8124
94.681
93.8224
96.5212
94.6802
94.3884
94.7719
94.1334
94.7606
94.1204
94.648
93.6579
93.9737
93.7084
93.9729
93.9659
93.7142
93.6708
92.3825
95.1152
92.6437
92.1921
95.0818
92.3965
92.6258
93.3641
93.2673
93.3971
93.4218
93.2746
93.3788
93.3868
93.3422
93.9251
93.4955
93.0234
93.4879
92.9873
93.307
93.6743
93.9733
93.9604
93.7096
93.9618
93.7111
93.6664
92.3946
92.163
94.8914
92.6369
95.0507
92.3755
92.6237
93.349
93.4247
93.2737
93.3282
93.2738
93.3413
93.4544
94.0378
93.6919
94.148
93.7502
94.0442
94.1498
93.6977
94.9156
95.4653
95.925
96.6744
95.0261
95.4802
95.8976
94.9064
94.8678
95.6646
95.5093
94.9019
94.8673
95.6573
93.8149
92.8407
93.3173
93.5194
93.5702
93.7566
93.3515
94.0394
93.7511
93.7086
94.1507
94.1494
94.0166
93.7089
94.9939
96.6288
95.5258
95.817
95.494
95.8382
94.9424
94.9066
95.5119
94.8649
95.6374
94.8655
95.6537
94.942
96.6055
96.2535
96.5598
96.0995
96.6515
96.2514
96.5618
97.6669
98.6337
97.9327
98.4398
97.787
98.6339
97.8378
97.1001
96.9141
97.3679
97.277
97.0999
96.9275
97.3756
97.1305
96.998
96.3691
99.797
96.397
99.7135
97.1756
96.6012
96.0984
96.2518
96.567
96.2514
96.565
96.61
97.6034
98.3921
98.6206
97.7599
98.6355
97.8391
97.6032
97.1359
97.3011
96.903
97.3868
96.9175
97.4052
97.043
97.9797
97.7673
97.7497
97.629
98.0127
97.7633
97.7848
97.3331
108.177
98.3512
98.1727
97.4114
99.5033
98.398
98.4147
98.1052
98.1181
98.0185
98.3719
97.8728
98.1296
98.0435
98.0756
97.9026
96.8945
97.8962
96.7896
98.0469
97.967
97.5369
97.7177
97.7229
97.7467
97.7277
97.9324
100.319
98.2524
98.2112
98.3039
99.5313
98.3793
97.6806
98.4253
98.0405
97.8956
98.131
97.7553
98.1125
98.3542
98.236
98.1436
98.3145
98.0595
98.2526
98.1428
98.322
99.0927
100.647
98.2197
98.1798
98.5489
101.191
98.2095
98.3988
98.2941
98.2445
98.4561
98.2865
98.2523
98.0979
98.4119
98.1259
98.3318
98.6549
98.3316
98.6294
98.3779
98.2379
98.1982
98.1705
98.2426
98.1628
98.3358
98.2531
98.2263
98.2969
100.417
98.1971
100.777
98.2041
98.1351
98.3108
98.6392
98.3048
98.1156
98.3627
98.0842
98.3191
98.5869
98.2615
98.561
98.3823
98.5961
98.2769
98.5539
99.8594
102.02
99.9974
102.654
99.9065
100.535
100.025
99.4831
98.9719
99.5222
99.1579
99.4573
99.0537
99.5231
98.4554
98.2092
97.932
98.7991
97.9336
97.9831
98.4396
98.5702
98.5425
98.2786
98.5867
98.2602
98.542
98.5695
99.9412
102.709
100.007
100.061
100.292
100.053
99.998
99.4937
99.1262
99.0218
99.5201
98.9866
99.5246
99.4873
99.5625
100.25
99.1272
99.4271
99.5931
100.255
99.1476
100.36
100.127
99.8438
103.022
100.359
100.012
99.7568
99.7677
99.1296
99.4513
98.9816
99.7679
99.1237
99.4415
100.235
100.873
101.151
109.9
101.233
110.968
100.141
99.5402
99.4312
100.274
99.1332
100.268
99.1273
99.5331
100.337
103.025
101.053
99.694
100.05
99.7283
100.304
99.768
98.9809
99.1276
99.4255
99.1351
99.4341
99.7641
98.5569
98.6606
98.2039
98.6082
98.559
98.6507
98.1791
97.2098
97.3668
96.5896
96.5653
97.6163
97.0949
96.5335
97.2229
97.6029
96.7481
97.0368
97.2117
97.6068
96.7455
99.1728
99.7487
99.2171
98.7536
99.2736
102.227
98.9316
98.5463
98.9718
98.6594
98.165
98.6564
98.1441
98.5555
97.1296
97.1769
97.3412
96.4403
102.468
96.4899
97.0789
97.2415
97.1058
97.5819
96.7556
97.5979
96.7477
97.2588
96.2925
96.6263
96.3185
96.6763
96.3006
96.6282
96.322
96.3732
96.5176
95.5582
95.3639
96.3339
96.5237
95.5396
96.1675
96.058
95.5301
95.6257
96.1632
96.0623
95.5522
96.3056
97.4395
96.4868
96.7246
96.5085
96.6788
96.2461
96.2901
96.6784
96.6263
96.3243
96.6376
96.3226
96.2876
96.3204
95.5004
96.518
95.5435
96.521
95.5368
96.3037
96.1674
95.6246
96.0672
95.5526
96.0682
95.5617
96.1597
94.8551
95.3269
95.045
95.5102
94.8775
95.3454
95.0788
100.693
94.8774
93.9152
94.0525
96.6107
94.64
93.9108
95.1492
94.7971
94.2115
94.3911
95.8014
94.8352
94.1936
94.7632
96.1995
95.7189
107.777
95.6927
96.4516
95.1802
94.8829
95.51
95.3626
95.022
95.3586
95.0323
94.9237
100.412
94.0398
94.8699
94.2581
94.6427
93.9045
103.915
95.1667
94.393
94.8543
94.2284
94.8532
94.256
95.7083
93.6615
94.0025
93.7075
93.9682
93.7107
93.922
93.7084
92.3423
94.9798
92.6445
92.3775
92.3304
95.1315
92.6611
93.3147
93.2737
93.3293
93.4304
93.3253
93.2736
93.4042
93.2549
93.873
93.7052
93.4673
93.6598
93.9893
93.2607
93.6503
93.9669
93.9054
93.7099
93.9062
93.7092
93.6362
92.4345
92.8754
101.107
92.6902
101.111
92.3376
92.6807
93.304
93.431
93.2734
93.3297
93.2734
93.2838
93.3265
93.9972
93.7057
94.1524
93.7028
94.0176
94.1497
93.6972
94.9839
95.566
95.8245
96.444
94.9864
95.5703
95.83
94.8837
94.862
95.6416
95.5202
94.9305
94.8615
95.6575
93.6929
92.9534
93.3889
93.5119
93.8088
93.784
93.3849
94.0025
93.7101
93.6965
94.1303
94.1443
94.0632
93.6738
95.0472
96.5004
95.7029
95.8706
95.809
95.9062
95.0165
94.8897
95.5204
94.8503
95.6543
94.8598
95.6476
94.9037
96.6281
96.253
96.571
96.098
96.6081
96.2505
96.5695
97.76
98.7014
97.7275
98.2542
97.729
98.8858
97.6688
97.0767
96.9484
97.3995
97.2809
97.0387
96.9002
97.3901
97.3082
96.9675
96.407
99.742
96.4049
99.7544
97.387
96.674
96.1007
96.2509
96.5672
96.2524
96.5699
96.6619
97.7696
98.1659
99.4405
97.6909
99.3488
97.6454
97.768
97.0608
97.2813
96.942
97.3944
96.9037
97.3905
97.0596
97.9029
97.7387
97.794
97.5634
97.9068
97.7366
97.9032
100.783
101.211
98.5289
98.2353
103.434
105.136
98.2897
98.3582
97.7464
98.1258
98.0573
98.4207
98.1417
98.1272
98.0837
98.1374
98.0494
94.1312
97.9071
93.9222
98.1029
97.9042
97.551
97.7398
97.8363
97.7385
97.8174
97.9011
100.805
98.2524
104.386
98.4394
102.217
98.2889
100.72
98.4179
98.0549
98.3326
98.131
98.1435
98.1197
98.6392
98.2761
98.1905
98.3165
98.0565
98.2631
98.1871
98.2609
98.1798
99.7236
98.1764
98.2205
98.1576
98.6392
98.1738
98.344
98.3073
98.205
98.3509
98.3418
98.3112
98.1592
98.4578
98.5184
98.6865
100.596
98.3721
98.9581
98.5035
98.2744
98.2741
98.1948
98.4667
98.1886
98.2654
98.2847
98.1752
98.2626
97.8432
98.2577
98.8879
98.1842
98.1549
98.3614
98.568
98.4311
98.1502
98.3183
98.136
98.358
98.5832
98.3476
98.5625
98.4416
98.584
98.2899
98.5716
100.404
106.964
100.088
101.159
100.091
109.236
100.309
99.4924
99.0761
99.513
99.1434
99.4708
99.0428
99.5633
98.4432
98.6743
98.0082
99.955
98.0708
98.1221
98.8485
98.5881
98.4371
98.2966
98.6001
98.2935
98.5684
98.5778
100.342
104.072
105.07
100.319
106.516
100.221
100.382
99.4755
99.1522
99.0265
99.5255
99.0266
99.5058
99.4823
99.5516
100.258
99.1186
99.4409
99.5329
100.267
99.1155
100.451
103.268
99.7607
113.882
100.323
101.425
100.153
99.7574
99.1442
99.3808
98.9684
99.7618
99.1238
99.3668
99.3166
101.501
100.81
98.9264
100.791
101.307
99.5896
99.5311
99.4357
100.249
99.1242
100.237
99.1129
99.5222
100.493
96.7423
100.164
99.5793
100.279
99.7919
100.61
99.7647
98.9712
99.1609
99.3607
99.1224
99.361
99.7535
98.5363
98.6481
98.1743
98.1456
98.538
98.6862
98.1863
97.1089
97.4928
96.4069
96.6179
97.1214
97.459
96.4436
97.2591
97.557
96.7354
96.9607
97.2625
97.5699
96.7299
98.9863
99.5314
99.2115
99.7595
99.1812
98.7473
98.9456
98.5314
98.5712
98.6763
98.1876
98.6169
98.1951
98.5355
97.1092
96.3434
97.721
96.5212
97.8022
96.5099
97.1178
97.2624
97.004
97.5743
96.7775
97.5807
96.7335
97.2855
96.2915
96.6284
96.3257
96.6763
96.2892
96.6353
96.3265
96.3158
96.3549
95.528
95.4722
96.297
96.3491
95.5344
96.1687
96.0591
95.5481
95.6256
96.1599
96.0598
95.5639
96.2584
97.5275
96.5434
97.0567
96.5324
96.9868