/*--------------------------------*- C++ -*----------------------------------*\
| =========                 |                                                 |
| \\      /  F ield         | OpenFOAM: The Open Source CFD Toolbox           |
|  \\    /   O peration     | Version:  5.0                                   |
|   \\  /    A nd           | Web:      www.OpenFOAM.org                      |
|    \\/     M anipulation  |                                                 |
\*---------------------------------------------------------------------------*/
FoamFile
{
    version     2.0;
    format      ascii;
    class       surfaceScalarField;
    location    "4.1";
    object      phi;
}
// * * * * * * * * * * * * * * * * * * * * * * * * * * * * * * * * * * * * * //

dimensions      [0 3 -1 0 0 0 0];

internalField   nonuniform List<scalar> 
23167
(
-1.65816e-08
1.83555e-09
1.07047e-08
-1.86782e-09
7.45985e-09
-1.54894e-08
-4.317e-09
1.53046e-10
-4.77756e-09
-1.08149e-09
-7.1985e-11
1.60881e-09
4.62593e-09
-8.14132e-10
-9.82082e-10
1.28105e-08
-2.41321e-08
1.63617e-08
-5.35427e-09
-2.79374e-10
-9.1758e-10
-4.47003e-10
8.58266e-10
1.53371e-10
1.6343e-11
4.64299e-10
-4.32068e-10
-1.07959e-10
-6.84119e-12
5.92323e-11
5.70884e-11
1.30115e-09
-2.29648e-11
-2.95528e-11
-2.18928e-10
-2.24581e-10
-3.69197e-10
-3.83234e-10
-2.68387e-11
-3.8562e-11
-4.34787e-11
1.32405e-09
-5.54945e-11
-1.21978e-12
1.35292e-09
-4.894e-11
1.14648e-13
1.36989e-09
-2.98549e-11
2.59329e-14
1.38253e-09
-1.96414e-11
-9.15417e-14
1.39107e-09
-1.24667e-11
-2.83e-14
1.39516e-09
-8.33197e-12
-3.31445e-13
1.39849e-09
-5.30861e-12
6.07073e-14
1.40026e-09
-1.80185e-12
-5.17481e-13
1.40179e-09
-2.16352e-12
-1.5392e-14
1.40245e-09
-1.12308e-12
1.95619e-13
1.40277e-09
-1.05218e-12
2.56014e-13
1.40396e-09
-3.64542e-13
1.84525e-12
1.40401e-09
-4.53639e-13
1.22464e-12
1.40411e-09
-1.91554e-13
3.29546e-13
1.40395e-09
5.92418e-15
1.74374e-13
1.40417e-09
-6.40739e-13
3.09666e-13
1.40439e-09
2.01951e-13
1.64592e-13
1.40395e-09
-1.49889e-12
-7.45942e-13
1.40424e-09
3.13257e-13
-1.79959e-13
1.40425e-09
7.80402e-14
3.35544e-14
1.40415e-09
-1.70761e-13
-1.02553e-12
1.40438e-09
2.29431e-13
1.99062e-13
1.40345e-09
-9.75712e-13
3.87846e-12
1.40371e-09
-6.51903e-13
2.67228e-12
1.40364e-09
-3.46104e-14
-7.00726e-13
1.40537e-09
-3.71033e-12
1.85881e-12
1.4051e-09
3.44806e-13
6.81484e-14
1.40377e-09
-3.7785e-14
2.49871e-12
1.4036e-09
4.62862e-13
-1.22619e-13
1.4034e-09
8.48806e-13
-7.96562e-13
1.40548e-09
-3.63443e-12
1.0585e-12
1.40464e-09
5.83605e-13
1.17872e-13
1.40446e-09
1.65383e-13
3.67036e-14
1.40471e-09
9.38344e-14
-2.64421e-13
1.4055e-09
-3.68402e-13
-7.06288e-13
1.40387e-09
3.83357e-12
-1.90164e-12
1.40409e-09
-4.83486e-13
9.71849e-14
1.40395e-09
2.64605e-13
-3.23509e-13
1.40507e-09
-9.8284e-13
-3.17578e-13
1.40475e-09
2.13582e-13
1.35565e-13
1.40417e-09
-4.5402e-13
8.33752e-13
1.30689e-12
-1.18103e-12
5.46783e-09
7.55594e-09
-9.79946e-09
1.15417e-08
1.27626e-09
1.0951e-10
5.01969e-09
1.49057e-09
2.78797e-09
-6.43079e-10
1.03716e-09
7.86339e-10
1.06296e-09
1.76873e-09
6.9207e-09
-9.34358e-09
3.79853e-10
-1.24054e-10
1.68016e-09
1.107e-09
-7.87918e-10
3.74911e-09
-3.30387e-10
-2.222e-09
-2.53535e-10
3.97181e-12
4.24029e-09
2.41278e-10
5.5525e-10
-9.31268e-10
-3.10237e-10
4.4498e-10
-1.00768e-10
7.95058e-12
5.49689e-12
-2.30248e-11
1.10345e-10
-3.13662e-11
1.90144e-10
-2.60856e-11
-8.13479e-12
-3.19966e-11
-5.69891e-11
-5.85411e-11
1.35734e-09
-9.85839e-11
-2.20868e-11
-2.3903e-10
-2.48987e-10
-3.92045e-10
-4.12112e-10
1.37582e-09
-6.52338e-11
-2.20817e-12
1.38685e-09
-4.14129e-11
5.0069e-13
1.3936e-09
-2.63578e-11
-4.94809e-14
1.39778e-09
-1.6688e-11
4.43687e-14
1.40009e-09
-1.06339e-11
5.82961e-15
1.40143e-09
-6.65468e-12
7.42648e-15
1.40289e-09
-4.04096e-12
7.81388e-13
1.40328e-09
-2.54207e-12
-7.65212e-15
1.40349e-09
-2.91003e-12
1.56556e-12
1.40341e-09
-2.29059e-12
1.31433e-12
1.40376e-09
-8.00181e-13
8.3663e-14
1.40386e-09
-6.36252e-14
-4.9367e-13
1.40369e-09
-1.95901e-13
1.70336e-13
1.40413e-09
4.54661e-13
-8.84094e-13
1.4051e-09
1.04908e-12
-2.65904e-12
1.40468e-09
1.3192e-13
4.90659e-13
1.40391e-09
2.4443e-13
-9.67449e-13
1.40414e-09
-1.21816e-12
1.30262e-12
1.40424e-09
1.67951e-13
-1.79483e-13
1.40349e-09
-9.79052e-13
1.57009e-12
1.40346e-09
-3.14169e-13
5.80312e-13
1.40404e-09
3.23357e-13
-1.86238e-12
1.40435e-09
5.56142e-13
-1.50526e-12
1.40543e-09
-3.21455e-12
2.11528e-12
1.40432e-09
-2.95263e-12
3.68095e-13
1.40443e-09
2.91698e-13
-4.20373e-14
1.40454e-09
-8.40792e-14
-4.82192e-14
1.40487e-09
1.45232e-13
3.34028e-15
1.40508e-09
8.61056e-14
5.69433e-13
1.40336e-09
-1.21306e-12
-6.89902e-13
1.40378e-09
3.77243e-13
-1.95333e-13
1.40398e-09
-2.38253e-14
5.98561e-16
1.40391e-09
3.66139e-13
-1.83639e-13
1.40372e-09
-3.4889e-13
1.75438e-13
1.40517e-09
5.1482e-13
1.88014e-12
1.40479e-09
1.21652e-13
-2.07783e-13
1.40477e-09
1.80877e-13
1.13497e-13
1.40438e-09
-1.58816e-12
9.99834e-13
1.40424e-09
3.96832e-13
-3.74893e-14
1.40457e-09
1.66764e-13
-9.43872e-13
-1.75433e-13
1.23347e-12
-1.72422e-09
-2.1922e-09
1.28612e-08
-4.97919e-09
-4.00434e-09
8.53542e-09
-2.53753e-09
-2.00804e-09
3.82271e-09
-3.70984e-10
-1.66822e-09
-7.26669e-10
-1.38855e-10
6.52252e-09
4.00217e-10
-2.16019e-09
1.1179e-09
-1.3585e-09
2.2159e-09
3.5312e-09
1.80538e-09
-7.69134e-09
-1.8302e-10
-3.72297e-10
8.34983e-11
8.30943e-10
-3.59125e-10
-8.72302e-11
3.41605e-11
-8.87762e-11
6.65274e-11
7.53189e-11
-3.81299e-11
2.09391e-10
4.11641e-12
-3.58718e-11
-7.06959e-11
-6.62162e-11
2.36025e-11
-4.41443e-12
-8.75097e-12
-8.53421e-12
-4.49354e-12
1.41722e-09
-1.00949e-10
-2.78088e-11
-2.57858e-10
-2.62266e-10
-4.25104e-10
-4.41833e-10
1.41579e-09
-6.16753e-11
-2.15408e-12
1.41244e-09
-3.84319e-11
3.48666e-13
1.40997e-09
-2.37859e-11
-9.75193e-14
1.40815e-09
-1.48619e-11
7.6756e-16
1.40675e-09
-9.22807e-12
-6.15442e-15
1.40576e-09
-5.6663e-12
8.55423e-15
1.40521e-09
-3.49588e-12
9.49645e-15
1.40495e-09
-2.3163e-12
2.55968e-14
1.40504e-09
-2.1538e-12
-8.502e-13
1.40412e-09
-4.48922e-14
-1.32217e-12
1.40429e-09
-8.54612e-13
-1.27488e-13
1.40448e-09
-7.25064e-13
4.74376e-13
1.4047e-09
-4.1682e-13
-1.66321e-15
1.40474e-09
1.03993e-13
3.06191e-13
1.40367e-09
-3.32546e-13
2.44868e-12
1.40393e-09
-7.47064e-13
6.2289e-13
1.40362e-09
9.38931e-13
-3.80243e-13
1.40352e-09
-8.62541e-14
-1.02122e-12
1.40347e-09
-6.05008e-14
2.82278e-13
1.40406e-09
7.01127e-13
-2.26401e-12
1.40492e-09
9.64682e-13
-2.12794e-12
1.40474e-09
5.11082e-13
4.91718e-15
1.40564e-09
7.70013e-13
-1.09625e-12
1.40432e-09
2.70176e-15
-1.88404e-12
1.40393e-09
2.13516e-13
-2.76526e-12
1.40419e-09
3.70545e-14
1.82235e-14
1.40429e-09
-2.17277e-13
4.77553e-14
1.40446e-09
-2.51882e-14
1.34907e-14
1.40445e-09
-2.20963e-13
3.319e-13
1.40415e-09
-4.72033e-13
-4.23023e-13
1.40394e-09
-5.93464e-13
1.1993e-12
1.40373e-09
-2.43419e-13
4.41341e-13
1.40392e-09
4.43696e-14
1.42449e-13
1.40448e-09
-2.02141e-12
1.13223e-12
1.40498e-09
6.36657e-13
-6.1806e-13
1.40492e-09
-5.21821e-15
2.00409e-13
1.40496e-09
5.00101e-14
9.45164e-14
1.40422e-09
-1.07555e-14
-8.30094e-13
1.40411e-09
5.7559e-13
-5.59317e-14
1.40396e-09
2.50785e-13
6.7449e-14
-1.53796e-12
6.4097e-13
-4.23442e-09
1.55268e-09
-5.42847e-09
1.93146e-09
2.29052e-09
3.08485e-09
-6.89686e-10
2.86211e-10
-1.8071e-08
-1.89087e-10
2.79743e-10
1.03721e-09
-1.36372e-09
-9.49029e-10
-3.09203e-09
-2.45628e-08
3.058e-08
8.4958e-09
-4.08768e-10
-1.63191e-09
-6.57082e-10
2.24495e-09
-1.62761e-11
5.1258e-09
3.42011e-10
4.48188e-10
1.65225e-09
1.70469e-09
-3.77973e-09
1.03746e-09
9.8833e-10
1.08047e-10
-1.14572e-09
-2.18748e-09
-2.12559e-09
3.76974e-09
7.86658e-10
-1.85876e-10
1.575e-10
1.62635e-10
-2.2373e-10
5.40957e-11
-1.50502e-10
-1.00656e-10
5.32391e-11
-3.53169e-10
-3.98142e-11
-1.22282e-10
-1.17691e-12
-7.63179e-11
9.5463e-11
4.15427e-11
4.65829e-11
9.77832e-11
1.16239e-10
1.42208e-10
1.00367e-10
-8.05974e-11
3.98471e-12
-8.15732e-12
5.56621e-11
2.91078e-11
1.47939e-09
-7.37419e-11
-2.93088e-11
-2.7192e-10
-2.81326e-10
-4.51119e-10
-4.72936e-10
1.455e-09
-3.52642e-11
-2.02591e-12
1.4371e-09
-2.09806e-11
4.33432e-13
1.42527e-09
-1.18469e-11
-1.11723e-13
1.41767e-09
-7.26708e-12
1.05708e-14
1.41273e-09
-4.26602e-12
-1.98506e-14
1.40946e-09
-2.37248e-12
-2.05302e-14
1.40738e-09
-1.39425e-12
-2.17782e-14
1.40596e-09
-8.58386e-13
-3.93804e-14
1.40501e-09
-6.25407e-13
-5.87751e-13
1.40515e-09
-4.98698e-14
-1.37638e-13
1.40494e-09
-8.35265e-13
1.85307e-13
1.40469e-09
-5.79884e-13
9.43047e-14
1.40439e-09
-1.15942e-13
1.07191e-15
1.40429e-09
-2.31377e-13
4.26555e-13
1.40426e-09
5.52014e-14
-3.55979e-13
1.4041e-09
-2.57671e-14
-5.5123e-13
1.40439e-09
8.57609e-13
-2.06952e-13
1.40432e-09
-1.75928e-14
8.75531e-15
1.40439e-09
7.16224e-13
-8.38729e-13
1.4049e-09
1.08514e-12
-8.92534e-13
1.40416e-09
4.03372e-13
1.32024e-12
1.40432e-09
4.64385e-13
-1.03866e-13
1.40412e-09
-1.44004e-12
2.42369e-12
1.40403e-09
-2.98349e-13
4.03662e-13
1.40423e-09
-7.68675e-14
1.06417e-13
1.4044e-09
-2.67224e-13
1.54067e-13
1.40429e-09
-1.08893e-13
1.34225e-14
1.40434e-09
9.53874e-14
-1.53027e-13
1.40448e-09
-2.43897e-13
-9.98673e-14
1.40402e-09
-4.67079e-13
4.69111e-13
1.40425e-09
8.66426e-13
-1.67465e-12
1.40463e-09
-2.00819e-13
-4.03695e-13
1.40503e-09
1.06748e-13
-4.54575e-13
1.40422e-09
-1.18254e-13
-1.08411e-12
1.40423e-09
1.99419e-14
6.20579e-13
1.40462e-09
3.87322e-14
-4.21971e-13
1.40478e-09
-6.41686e-15
-9.42173e-14
1.40479e-09
1.3496e-12
-1.36395e-12
1.4036e-09
1.75832e-12
1.02371e-14
1.4039e-09
-5.148e-14
1.15287e-14
-1.89317e-12
5.15541e-13
2.76686e-09
2.89924e-09
-3.92247e-09
5.28508e-09
1.37247e-09
-2.77738e-09
-3.59399e-09
2.32484e-10
2.10149e-09
-1.81914e-09
-5.98924e-09
3.0157e-09
-1.25089e-09
5.68671e-09
-4.89177e-10
-3.34065e-10
-4.93746e-10
-6.60085e-10
1.09244e-09
-4.35578e-10
2.72502e-10
-9.45638e-10
-1.41298e-09
7.14741e-10
1.95468e-09
-1.10401e-09
-4.04475e-10
1.25935e-11
2.32694e-10
6.7537e-12
1.84152e-10
4.61787e-10
-1.20284e-11
-1.71275e-10
-4.62638e-10
-1.39773e-10
3.7074e-10
-1.86578e-10
-2.55207e-10
-9.06671e-11
-1.33653e-10
-1.67292e-10
1.71434e-10
1.36393e-10
1.44646e-10
1.49954e-10
-2.38753e-10
1.26197e-11
-6.99625e-12
1.79146e-10
5.39836e-11
1.54106e-09
3.0372e-11
-3.92572e-11
-3.01242e-10
-2.90497e-10
-5.14378e-10
-4.99806e-10
1.48695e-09
2.01855e-11
-1.34982e-12
1.45403e-09
1.19416e-11
-1.70507e-14
1.43403e-09
8.11035e-12
3.91988e-14
1.42327e-09
2.8316e-12
6.48395e-13
1.41631e-09
2.73698e-12
-4.24616e-14
1.41121e-09
3.24793e-12
-5.16338e-13
1.40817e-09
2.00851e-12
-3.74113e-13
1.40662e-09
6.97455e-13
-2.18164e-15
1.40545e-09
6.60641e-13
-1.26154e-13
1.40428e-09
8.31862e-13
2.84382e-13
1.40546e-09
-4.1922e-12
2.17835e-12
1.40481e-09
-3.8413e-14
9.69745e-14
1.40484e-09
3.87539e-13
-5.39982e-13
1.40448e-09
-6.00358e-14
1.914e-13
1.40439e-09
-6.40935e-14
2.06377e-13
1.4045e-09
-3.30591e-13
1.98704e-13
1.40459e-09
-5.28263e-14
8.30002e-13
1.40466e-09
-6.57057e-14
-1.50916e-14
1.40442e-09
1.72527e-13
7.83104e-13
1.40359e-09
5.04161e-13
1.42056e-12
1.40431e-09
9.06449e-13
-1.20798e-12
1.40476e-09
2.57971e-13
-2.28073e-13
1.40382e-09
-6.13643e-13
1.21011e-13
1.40412e-09
-1.47246e-14
-5.62737e-13
1.40426e-09
-1.99381e-13
-9.05298e-15
1.40423e-09
5.48638e-14
-2.74923e-13
1.40432e-09
-1.13917e-13
-6.36512e-14
1.4038e-09
1.36819e-12
-7.39241e-13
1.40384e-09
-1.80714e-13
-8.66713e-14
1.40399e-09
-4.37262e-13
-1.63796e-13
1.40461e-09
-9.38184e-14
3.54804e-13
1.40476e-09
-1.14146e-12
8.07359e-13
1.4044e-09
-5.70859e-14
5.3586e-13
1.40428e-09
8.11448e-14
-6.67526e-14
1.40456e-09
1.8467e-13
-4.34405e-13
1.40475e-09
-3.18744e-13
1.80224e-13
1.40517e-09
-4.22136e-13
3.50419e-15
1.40506e-09
-1.37479e-12
2.83838e-12
1.40375e-09
3.21761e-12
-1.43071e-13
1.40401e-09
-8.62865e-13
5.55917e-13
-2.12823e-13
-8.30236e-13
1.31089e-08
2.55825e-09
3.25827e-09
3.13277e-09
2.46102e-09
5.0282e-09
-3.56375e-08
-2.13872e-08
-2.75808e-08
5.52249e-08
7.09545e-10
2.35181e-09
-9.51352e-10
-2.40979e-09
2.99803e-10
-5.3286e-10
-5.10656e-11
5.26774e-10
5.47187e-11
2.43257e-12
-6.16982e-10
-1.52505e-09
1.6033e-09
-1.2666e-09
1.9498e-10
1.11929e-09
2.4057e-10
2.50489e-10
9.24803e-10
1.58566e-10
-1.42867e-09
-1.15528e-11
3.56844e-10
-3.14623e-10
-9.18311e-10
6.05208e-10
-2.05879e-10
8.33605e-10
-1.17206e-10
1.12272e-11
-4.65794e-11
-6.959e-11
-8.00642e-11
-1.6253e-10
-1.29868e-10
1.61496e-10
1.36336e-10
1.59812e-10
1.36966e-10
-1.37767e-10
-3.02624e-12
5.18843e-12
3.39206e-11
1.01684e-10
1.51687e-09
1.17623e-10
-3.70506e-11
-2.86223e-10
-2.92644e-10
-4.91326e-10
-4.96875e-10
1.47335e-09
6.51236e-11
-1.4337e-12
1.44564e-09
3.95518e-11
8.30831e-14
1.43017e-09
2.38882e-11
-3.24142e-13
1.41932e-09
1.43822e-11
-7.1809e-13
1.41317e-09
8.91963e-12
-3.09335e-14
1.41022e-09
5.72269e-12
4.67954e-13
1.40827e-09
3.59731e-12
3.6117e-13
1.40672e-09
2.24187e-12
7.0944e-15
1.40563e-09
1.89265e-12
-1.49049e-13
1.40558e-09
9.07187e-13
-2.73479e-14
1.40274e-09
8.32116e-13
-2.19292e-12
1.40572e-09
-6.79177e-12
3.76793e-12
1.40471e-09
9.542e-13
4.39483e-13
1.40447e-09
4.64919e-13
-2.84295e-13
1.40404e-09
4.40582e-13
-7.65204e-14
1.40378e-09
1.18981e-13
-1.86797e-13
1.405e-09
1.20682e-12
-2.47427e-12
1.40488e-09
7.71138e-14
-1.81781e-14
1.40493e-09
2.20582e-13
-8.93797e-14
1.40481e-09
8.84238e-13
-2.49168e-13
1.40323e-09
3.11915e-12
-6.2055e-13
1.4032e-09
-9.56852e-13
1.25279e-12
1.4044e-09
-3.46114e-13
-1.44926e-12
1.40425e-09
6.97204e-14
7.32921e-14
1.40417e-09
1.45857e-13
-2.50662e-13
1.40397e-09
8.39807e-13
-5.64593e-13
1.40386e-09
-9.30638e-14
1.03971e-13
1.4045e-09
-1.25545e-13
8.70933e-13
1.40416e-09
1.55395e-13
1.62855e-14
1.40412e-09
-7.25865e-13
3.49451e-13
1.4044e-09
-4.99451e-13
1.38006e-13
1.40444e-09
-4.66215e-13
-7.04169e-13
1.40471e-09
-3.48704e-13
3.67747e-14
1.40465e-09
1.46097e-13
7.01073e-15
1.40437e-09
-1.74986e-14
4.9258e-13
1.40393e-09
8.37975e-14
5.45677e-14
1.4037e-09
-7.98193e-14
-1.03793e-13
1.40368e-09
1.32828e-12
-2.67645e-12
1.40562e-09
1.1474e-12
1.31166e-13
1.40533e-09
-4.34784e-13
-1.33326e-13
-7.33919e-13
1.67461e-12
6.12898e-09
-2.7552e-09
-7.49875e-09
4.1499e-09
6.18268e-09
-2.20742e-10
-6.01211e-10
-4.46929e-09
9.17331e-11
2.7475e-09
3.5954e-09
3.4558e-08
-1.4104e-07
5.68563e-08
4.23406e-08
6.27447e-09
2.68232e-09
1.70774e-10
4.33694e-09
-1.64612e-08
1.22487e-08
1.04194e-08
-1.9805e-08
3.30987e-11
1.10763e-10
-5.03384e-12
8.55666e-09
8.63792e-09
9.88558e-09
1.41586e-07
-3.7227e-08
2.51703e-07
-3.89886e-07
3.91431e-09
3.64395e-09
-1.46215e-09
6.37922e-10
9.07564e-10
-5.89009e-10
3.17062e-09
-1.44117e-09
-2.048e-09
-6.12546e-10
-6.50613e-10
4.65459e-10
8.31908e-10
-3.42072e-11
-1.34054e-10
-9.48261e-11
4.44702e-10
-9.10663e-10
-2.11231e-10
5.98286e-10
-6.57389e-11
9.73867e-11
9.38233e-11
8.83521e-11
9.39591e-11
-1.64526e-10
-1.44718e-11
1.6016e-11
1.10684e-10
5.22982e-11
1.43289e-09
1.21857e-10
-2.70141e-11
-2.70725e-10
-2.58606e-10
-4.5275e-10
-4.28039e-10
1.42507e-09
7.48419e-11
-1.91841e-12
1.41796e-09
4.62195e-11
4.17282e-13
1.41323e-09
2.86571e-11
-5.22371e-14
1.40991e-09
1.77028e-11
-1.0349e-14
1.4078e-09
1.10312e-11
-1.17541e-14
1.40659e-09
6.90666e-12
2.74236e-14
1.40577e-09
4.42791e-12
-8.04876e-15
1.40514e-09
2.86705e-12
3.55783e-15
1.40499e-09
1.87064e-12
1.62064e-13
1.4053e-09
4.57124e-13
1.40328e-13
1.40583e-09
9.88331e-14
1.92788e-13
1.40296e-09
-1.38434e-13
-3.78566e-12
1.40367e-09
2.50785e-13
-8.26278e-15
1.40428e-09
-9.66088e-13
8.23048e-13
1.40446e-09
2.09534e-13
4.43711e-14
1.40448e-09
2.03856e-13
-9.53821e-14
1.40386e-09
-3.6142e-13
2.19512e-12
1.40432e-09
-3.46735e-13
-3.37841e-14
1.40519e-09
-6.51903e-13
6.50006e-15
1.40281e-09
8.07031e-12
-4.79113e-12
1.40346e-09
1.23847e-12
1.24071e-12
1.40428e-09
-4.57024e-13
-1.31301e-12
1.40423e-09
-1.70698e-13
-1.11474e-13
1.40424e-09
-1.99998e-14
9.94293e-14
1.40426e-09
-9.99731e-15
1.46019e-13
1.40447e-09
-5.19952e-14
7.03843e-13
1.40444e-09
3.00358e-14
-7.92207e-14
1.40418e-09
1.42741e-13
1.09641e-14
1.40427e-09
5.81546e-14
1.66495e-14
1.40378e-09
2.84912e-13
-4.99673e-13
1.40513e-09
1.14867e-12
-2.98537e-12
1.4047e-09
4.06638e-14
-6.01948e-14
1.40412e-09
-1.62239e-13
4.06914e-13
1.40438e-09
-7.20578e-14
-3.58289e-14
1.40428e-09
-2.6328e-13
3.61842e-13
1.4039e-09
2.13364e-12
-1.66054e-12
1.40379e-09
4.82444e-14
-1.36242e-14
1.40426e-09
-8.1393e-13
1.68093e-12
1.40467e-09
6.67394e-13
7.66218e-14
1.40491e-09
-1.22491e-13
-5.4441e-13
-2.63026e-13
-1.10641e-12
-4.42727e-10
3.20492e-10
-1.70082e-09
2.89844e-09
3.45433e-10
-7.28998e-10
-5.00942e-10
-3.78655e-09
5.40249e-09
-4.64235e-09
-2.12451e-09
5.15093e-09
2.06467e-10
8.18085e-10
-1.82741e-10
-1.07874e-10
-1.99244e-10
5.95951e-12
1.25826e-11
-5.5321e-10
-3.03026e-10
-9.273e-10
-6.13157e-10
2.89527e-09
-1.05179e-09
3.71649e-10
-8.62848e-10
6.00051e-10
-2.03468e-10
9.46162e-11
4.46919e-11
-9.28344e-10
2.01369e-10
-2.74251e-10
9.56534e-10
-9.02508e-11
-7.11276e-11
6.91513e-11
2.27637e-11
6.94644e-11
-5.00944e-11
-4.7866e-12
4.36398e-12
2.39794e-11
2.65376e-11
1.35521e-09
8.13063e-11
-2.56266e-11
-2.46709e-10
-2.36346e-10
-4.16699e-10
-3.89291e-10
1.37696e-09
5.47417e-11
-1.67327e-12
1.38819e-09
3.45675e-11
3.92226e-13
1.39477e-09
2.21048e-11
-4.83056e-14
1.39849e-09
1.39438e-11
2.74481e-14
1.40082e-09
8.69861e-12
-1.59129e-15
1.40222e-09
5.50777e-12
-2.26061e-15
1.40317e-09
3.46882e-12
1.28085e-14
1.40356e-09
2.69326e-12
-2.19686e-13
1.40389e-09
1.62152e-12
-8.01321e-14
1.40381e-09
-1.55844e-12
2.08807e-12
1.40428e-09
-1.0856e-13
-2.64953e-13
1.40421e-09
-8.20603e-14
1.0571e-14
1.40444e-09
3.16812e-14
-1.60208e-14
1.40358e-09
-8.055e-13
7.0303e-13
1.40397e-09
-1.69066e-13
-1.78063e-14
1.40394e-09
9.17058e-14
1.48291e-13
1.40374e-09
-4.94236e-13
3.35679e-13
1.4034e-09
7.31959e-14
-7.10296e-14
1.4022e-09
5.35337e-13
1.53947e-14
1.40467e-09
6.62452e-13
4.95062e-12
1.4048e-09
1.1325e-12
-1.30181e-14
1.40529e-09
-3.498e-12
2.56597e-12
1.40476e-09
2.92529e-13
7.74026e-14
1.40431e-09
5.12978e-13
-6.73002e-14
1.40425e-09
1.96891e-14
4.62649e-14
1.40438e-09
-1.21533e-13
-4.2896e-14
1.40459e-09
1.57619e-15
-1.7213e-13
1.40434e-09
1.78996e-13
2.33107e-13
1.4044e-09
1.9299e-14
-6.05658e-15
1.40507e-09
-3.19891e-13
-4.90124e-14
1.40395e-09
-5.76511e-13
2.86257e-12
1.40403e-09
-1.69109e-13
1.47274e-13
1.40421e-09
6.62188e-14
-4.02064e-13
1.40408e-09
9.9976e-14
-2.83381e-14
1.40415e-09
1.78613e-13
-4.95311e-13
1.40433e-09
2.30927e-13
1.72642e-12
1.40374e-09
6.11157e-13
3.98623e-14
1.4042e-09
-1.03115e-12
-2.35598e-13
1.40409e-09
5.19358e-13
2.66663e-13
1.40537e-09
-2.95034e-12
1.55001e-12
-3.75513e-13
-5.04335e-13
3.36079e-09
-1.07876e-09
-1.11943e-08
2.68066e-09
1.61784e-09
2.99844e-09
1.15669e-09
4.10758e-10
1.18523e-09
2.51699e-10
-1.19058e-09
-2.52326e-09
7.81555e-09
-9.53693e-10
-1.05112e-10
1.49283e-10
1.68515e-10
6.45988e-10
-3.25867e-09
4.13589e-10
2.7406e-09
-5.41508e-10
8.53626e-10
-3.6306e-09
-2.87739e-09
8.12331e-09
-1.14491e-09
4.37524e-10
1.05991e-09
9.86478e-10
-9.84781e-10
-1.60397e-09
-1.21921e-09
7.92227e-10
7.7715e-11
8.96041e-10
-9.37172e-10
-8.28808e-10
1.99791e-10
3.73433e-10
6.53784e-10
2.0828e-10
-1.43529e-09
-7.45945e-11
-1.01287e-11
2.67627e-11
4.57992e-12
5.33807e-11
-3.06838e-11
-2.01181e-11
1.64188e-10
1.45513e-11
1.2236e-11
-2.876e-11
-5.80191e-11
-5.33944e-11
1.30615e-09
8.9563e-12
-2.19657e-11
-2.30221e-10
-2.24853e-10
-3.83658e-10
-3.73098e-10
1.34387e-09
1.88831e-11
-1.89074e-12
1.3669e-09
1.11453e-11
3.5153e-13
1.38112e-09
7.86588e-12
-9.00869e-15
1.38981e-09
5.22264e-12
2.99661e-14
1.39537e-09
3.11756e-12
2.24179e-14
1.39876e-09
2.09494e-12
1.73398e-14
1.40072e-09
9.24964e-13
5.93865e-13
1.40233e-09
6.49872e-13
4.33096e-13
1.40324e-09
9.47222e-13
-2.44245e-13
1.40336e-09
4.77137e-13
-2.15815e-12
1.40364e-09
-1.64733e-14
-3.76604e-13
1.40356e-09
5.11922e-14
-5.78284e-14
1.40351e-09
-1.39018e-13
2.18322e-13
1.40404e-09
-1.69492e-14
-1.3174e-12
1.40379e-09
8.53703e-14
-5.27049e-15
1.40403e-09
-4.81005e-14
-9.67561e-14
1.40439e-09
-5.3255e-13
-3.1778e-13
1.40388e-09
1.22809e-12
-6.39031e-13
1.40446e-09
-5.92095e-14
2.18905e-14
1.40468e-09
3.9831e-13
5.53076e-14
1.40471e-09
2.46951e-13
8.63134e-13
1.40371e-09
-2.31237e-13
-2.25e-12
1.4039e-09
2.33507e-13
-1.19435e-13
1.40447e-09
7.81094e-13
-8.20313e-13
1.40391e-09
-1.76789e-13
7.69346e-13
1.40393e-09
-6.54689e-14
-6.16742e-14
1.40391e-09
-1.74249e-13
2.13643e-13
1.40476e-09
-1.34275e-12
6.88845e-13
1.40491e-09
-2.05474e-13
9.26259e-14
1.40454e-09
6.87929e-13
-6.26233e-13
1.40446e-09
-3.90296e-13
-9.09096e-14
1.40462e-09
-3.75747e-13
6.26947e-14
1.40439e-09
1.82694e-12
-1.52164e-12
1.40403e-09
4.98263e-13
-2.14651e-14
1.40401e-09
1.40104e-13
6.77712e-14
1.40458e-09
-7.76335e-13
4.50988e-13
1.40504e-09
3.98727e-15
1.5189e-13
1.40378e-09
4.36411e-13
-1.94145e-13
1.40406e-09
3.73606e-13
-1.367e-13
1.40407e-09
1.05457e-12
-4.00678e-12
-1.89846e-12
-2.99143e-14
6.43436e-09
-6.9462e-10
1.24704e-09
2.74452e-09
1.5907e-09
-9.41393e-10
1.55686e-09
-8.632e-10
-2.81872e-10
1.8751e-09
1.76303e-09
1.41354e-09
4.74974e-09
8.09657e-10
-5.72595e-09
2.22401e-09
-6.31226e-09
-2.14022e-09
8.27982e-10
-1.67278e-09
-1.06386e-09
1.10395e-08
-2.90664e-09
-5.26849e-09
4.34002e-09
5.20876e-09
-8.8893e-09
5.70176e-10
8.93125e-10
1.75252e-09
1.3932e-09
-3.58648e-11
1.5279e-10
1.23608e-10
-1.15493e-11
-2.28985e-10
-7.21822e-11
6.40951e-12
3.91247e-12
-3.06133e-11
9.24736e-11
1.25726e-09
-2.2194e-11
-2.04136e-10
-2.09506e-10
-3.51275e-10
-3.52826e-10
-9.52044e-12
-1.28386e-11
-1.67293e-11
-2.21272e-11
1.30023e-09
-3.85993e-13
1.33889e-09
5.4307e-14
1.36248e-09
3.26909e-13
1.37734e-09
5.65761e-14
1.38637e-09
1.36173e-13
1.39375e-09
3.2733e-13
1.39784e-09
-5.31331e-14
1.4001e-09
-7.84302e-13
1.40156e-09
-1.62966e-13
1.40271e-09
5.01527e-14
1.404e-09
-3.42207e-13
1.40281e-09
-1.50993e-12
1.40328e-09
-1.23761e-12
1.40359e-09
-6.9609e-13
1.40363e-09
-7.91732e-14
1.40379e-09
3.65642e-14
1.4038e-09
-6.35697e-13
1.40425e-09
1.71441e-12
1.40438e-09
6.86776e-13
1.40427e-09
-4.8259e-14
1.40484e-09
1.14534e-12
1.40457e-09
-1.20144e-13
1.40433e-09
-1.93105e-12
1.40353e-09
-1.21697e-12
1.40361e-09
1.54486e-12
1.40396e-09
-3.64989e-13
1.40373e-09
5.94003e-14
1.405e-09
-2.5312e-12
1.40434e-09
-8.14866e-13
1.40431e-09
-2.35592e-15
1.40488e-09
6.60895e-13
1.40452e-09
1.41145e-13
1.40441e-09
-2.52902e-13
1.40447e-09
1.71844e-12
1.40462e-09
6.67281e-13
1.40452e-09
-3.98473e-14
1.4042e-09
-2.65648e-13
1.40439e-09
3.39896e-14
1.40485e-09
1.70124e-13
1.4054e-09
-1.89205e-13
1.40411e-09
2.55429e-12
8.74745e-14
7.62425e-09
-1.41183e-08
7.88419e-09
2.746e-09
5.04302e-10
-7.95199e-09
-2.10752e-09
-1.00798e-09
-1.96074e-09
-1.44163e-09
1.46926e-08
-8.57726e-09
-1.49473e-12
-7.60354e-10
-2.95307e-10
-9.46532e-10
-1.92542e-09
-1.06576e-08
3.34166e-09
8.11864e-09
-6.10047e-10
2.81443e-09
-2.11533e-09
-2.50236e-09
3.76399e-09
2.992e-09
-2.26472e-10
-6.48614e-09
-2.91612e-10
4.71699e-10
6.76059e-11
2.20321e-10
2.61282e-10
-1.101e-09
-6.96453e-11
-4.44858e-11
-9.25151e-12
1.6531e-11
7.3725e-11
2.18715e-09
-5.08661e-11
2.94387e-11
-5.19321e-10
-5.36928e-10
-5.19348e-10
-5.37046e-10
-5.68802e-11
-5.08657e-11
-5.68728e-11
2.21825e-09
-8.4215e-11
1.1272e-12
2.26272e-09
-7.54565e-11
8.7984e-14
2.28923e-09
-4.61894e-11
-1.27783e-13
2.30903e-09
-3.05229e-11
-4.67177e-13
2.32245e-09
-1.94461e-11
-5.02858e-13
2.32894e-09
-1.29854e-11
3.69578e-13
2.3341e-09
-8.25802e-12
1.29893e-13
2.33701e-09
-5.56623e-12
7.27305e-13
2.33939e-09
-3.39612e-12
-1.62228e-14
2.34055e-09
-2.00508e-12
5.59206e-13
2.34084e-09
-1.61271e-12
-2.60026e-13
2.34261e-09
-6.67673e-13
2.46567e-12
2.34289e-09
-6.62196e-13
3.85888e-13
2.3429e-09
-9.44101e-13
5.73369e-13
2.34277e-09
1.23745e-13
2.48992e-13
2.34312e-09
1.47669e-13
-3.21893e-13
2.34346e-09
-1.49304e-12
-1.24119e-13
2.34288e-09
6.67627e-13
6.54384e-13
2.34345e-09
-6.02888e-13
1.93296e-13
2.34357e-09
8.33828e-14
7.17812e-14
2.34297e-09
-3.98121e-13
3.70839e-13
2.34335e-09
4.39017e-13
-8.06119e-14
2.34214e-09
5.76437e-12
-1.53791e-12
2.34229e-09
4.3523e-12
-3.10465e-12
2.34267e-09
6.20406e-14
-2.36941e-12
2.34518e-09
1.76558e-12
-1.81433e-12
2.34484e-09
6.20652e-13
7.63139e-14
2.34282e-09
5.2362e-14
7.09661e-13
2.34227e-09
7.03085e-13
1.17013e-13
2.34215e-09
-1.76736e-12
9.71254e-13
2.34512e-09
-5.49361e-13
-1.95492e-12
2.34422e-09
1.03407e-12
-1.40511e-13
2.34388e-09
3.67321e-13
3.26078e-14
2.34431e-09
5.74786e-14
-6.74497e-14
2.34553e-09
-6.14631e-13
-1.83714e-12
2.34303e-09
4.13636e-12
-3.24528e-12
2.34351e-09
3.11605e-14
-2.59239e-13
2.34309e-09
1.87999e-13
4.21186e-14
2.34478e-09
-1.48055e-12
-5.56274e-13
2.34438e-09
2.30696e-13
1.63459e-13
2.34328e-09
7.88675e-13
9.23998e-13
-5.87098e-13
-4.62128e-13
-1.18536e-08
-2.69706e-08
1.74062e-08
-1.62659e-09
-6.34907e-09
-3.26448e-09
-2.78184e-09
-3.15188e-09
2.52568e-09
1.42244e-09
1.54648e-09
6.41754e-10
9.58545e-10
-6.93631e-09
3.95481e-09
-2.78279e-09
3.3497e-10
-5.11452e-09
2.26702e-09
1.27196e-09
-1.22388e-09
-1.12547e-09
-2.77133e-09
-6.3114e-09
5.84826e-09
-1.5731e-09
-2.75682e-09
-2.14325e-09
-1.63058e-09
6.15819e-11
1.75654e-10
-3.77189e-11
-5.38239e-10
1.96931e-09
-1.14746e-10
4.12865e-11
5.42402e-11
-3.28035e-11
-2.7731e-11
7.97541e-11
-1.33296e-10
5.6655e-10
-6.65281e-11
-5.81175e-13
-7.74783e-13
-1.36336e-10
-1.38362e-10
-1.41543e-10
2.27367e-09
-1.53401e-10
2.20363e-11
-5.4929e-10
-5.75024e-10
-5.49293e-10
-5.75043e-10
2.29591e-09
-1.02175e-10
2.23024e-12
2.31549e-09
-6.47805e-11
-5.26282e-13
2.32614e-09
-4.12509e-11
1.57846e-14
2.33292e-09
-2.61264e-11
-4.11243e-14
2.33663e-09
-1.66761e-11
5.34767e-15
2.33886e-09
-1.04597e-11
-1.23228e-14
2.34104e-09
-6.43952e-12
-5.30473e-13
2.34172e-09
-4.10491e-12
1.67813e-14
2.34199e-09
-1.85795e-12
1.13733e-12
2.34198e-09
1.07653e-12
-1.37436e-12
2.34251e-09
-1.08601e-12
-3.84528e-14
2.3427e-09
-2.16025e-12
8.1278e-13
2.34236e-09
-2.93698e-13
-1.43296e-13
2.34314e-09
-2.16141e-12
6.17866e-13
2.34466e-09
-5.09668e-12
1.06263e-12
2.34391e-09
2.39595e-13
-4.78179e-13
2.34265e-09
3.21609e-13
6.49113e-13
2.34298e-09
3.23141e-13
6.63289e-14
2.34316e-09
-4.37956e-13
1.76667e-13
2.34201e-09
4.84198e-12
-2.49733e-12
2.34191e-09
8.3111e-13
3.17813e-13
2.34315e-09
6.14925e-13
2.07149e-12
2.34364e-09
8.55465e-13
1.53308e-12
2.34516e-09
-2.47759e-12
3.16602e-12
2.34383e-09
1.01321e-12
2.49437e-12
2.34378e-09
6.25415e-13
3.98353e-14
2.34386e-09
-9.75377e-14
5.58461e-14
2.34442e-09
2.43406e-13
-6.36049e-14
2.34465e-09
-5.29678e-13
-8.63146e-13
2.34232e-09
-8.73485e-13
2.0028e-12
2.34257e-09
5.69485e-13
4.96892e-14
2.34293e-09
2.73786e-14
5.17065e-15
2.34281e-09
7.67561e-15
1.60519e-14
2.34291e-09
-4.34961e-13
-7.5203e-14
2.34498e-09
6.08996e-13
3.35809e-12
2.34435e-09
2.39788e-13
2.36573e-13
2.34444e-09
3.5028e-13
-1.20635e-13
2.34383e-09
7.16901e-13
-5.76525e-13
2.34363e-09
6.31517e-13
-2.21872e-13
2.34404e-09
2.08982e-13
-7.74295e-13
-2.70555e-13
2.17848e-13
2.18403e-08
-1.24897e-08
-2.09602e-08
1.09683e-08
-1.50039e-09
1.82402e-08
-1.61734e-09
-1.04864e-09
-1.01569e-09
1.10915e-08
-1.32918e-09
3.33154e-09
-4.22698e-10
-7.01262e-10
-3.3102e-10
3.83903e-09
7.02043e-09
-3.47735e-10
1.05435e-09
2.18303e-09
1.69733e-09
1.13979e-08
3.30211e-10
-1.17368e-09
-3.44773e-09
-3.26766e-09
-8.59801e-10
1.61639e-10
4.50219e-11
1.52483e-10
-1.05029e-09
1.55095e-09
-1.68085e-11
4.74725e-12
4.34978e-11
-1.00964e-10
-2.88219e-11
9.83502e-11
-1.54523e-10
6.19251e-10
2.66352e-13
-1.46504e-11
-1.37458e-10
-1.59906e-10
-1.41177e-10
6.56918e-11
-1.93139e-11
-2.00335e-11
-1.94244e-11
-1.87176e-11
2.36769e-09
-1.61416e-10
2.82559e-11
-5.92619e-10
-6.1525e-10
-5.92622e-10
-6.1529e-10
2.35917e-09
-9.78832e-11
2.03192e-12
2.3559e-09
-6.08118e-11
-3.69392e-13
2.35199e-09
-3.75307e-11
8.9326e-14
2.3493e-09
-2.34256e-11
2.47671e-15
2.34714e-09
-1.45295e-11
1.28458e-14
2.34561e-09
-8.9144e-12
-2.74081e-15
2.3447e-09
-5.49497e-12
-2.16231e-14
2.34428e-09
-3.63605e-12
-2.96673e-14
2.34452e-09
-2.54968e-12
-4.07626e-13
2.34321e-09
-3.92982e-13
1.43947e-12
2.3435e-09
-1.47708e-12
-3.07425e-14
2.34361e-09
-1.19528e-12
-6.10816e-13
2.34415e-09
-8.09891e-13
-3.1342e-14
2.3439e-09
-8.06985e-13
-7.97591e-13
2.34246e-09
-3.88776e-13
-8.19822e-13
2.34258e-09
-1.14588e-12
1.89753e-12
2.3422e-09
6.24532e-13
-2.96824e-13
2.34199e-09
-8.59767e-14
-3.81951e-13
2.34181e-09
3.39313e-13
-2.96506e-13
2.34302e-09
-8.40119e-13
2.23628e-12
2.34441e-09
-3.72388e-12
1.0604e-12
2.34417e-09
1.03993e-12
-1.54764e-13
2.34578e-09
-2.7183e-12
9.0033e-13
2.34373e-09
2.08607e-13
-2.48722e-12
2.34286e-09
9.30913e-14
-9.38781e-13
2.34331e-09
2.844e-13
-5.73353e-14
2.34359e-09
-2.63746e-13
-2.84814e-14
2.34375e-09
1.67499e-13
-3.15197e-14
2.3438e-09
-1.68693e-13
-4.33199e-14
2.34331e-09
-7.36152e-13
-4.32391e-14
2.3428e-09
1.83415e-12
4.84118e-13
2.34256e-09
5.07182e-13
2.30085e-13
2.34296e-09
-5.5886e-13
3.33774e-13
2.34392e-09
1.54395e-12
-1.77184e-12
2.3447e-09
-1.31469e-12
5.48052e-13
2.34474e-09
6.06944e-13
-1.88521e-13
2.3448e-09
6.03255e-13
-2.01821e-13
2.34357e-09
1.51462e-13
9.82079e-13
2.3432e-09
8.72498e-13
7.74604e-14
2.34315e-09
4.16709e-13
-8.62268e-14
-2.20477e-12
1.24166e-12
-7.77703e-10
4.00552e-09
-2.14968e-08
2.45059e-09
1.20303e-09
1.67026e-09
-4.82269e-10
-1.00281e-09
-9.88365e-10
1.0659e-09
3.01657e-10
-2.172e-08
2.21782e-09
-9.14545e-10
-2.81387e-09
1.13101e-09
-9.49594e-10
-3.22843e-09
-3.91267e-10
1.10054e-08
-1.32487e-09
-3.68289e-09
-1.04205e-09
-1.0965e-10
2.49915e-09
1.48836e-09
2.88459e-09
-1.12522e-10
2.34841e-09
1.81197e-09
7.9413e-10
1.03757e-09
-2.67391e-09
-8.21828e-10
-1.5644e-09
2.71138e-09
-2.36909e-10
1.18965e-10
-3.86988e-11
7.22259e-10
-3.277e-09
-8.70706e-11
4.095e-11
1.88138e-10
-4.80512e-10
4.67243e-10
-8.72279e-11
4.85433e-11
-1.01676e-10
1.81151e-10
-5.87659e-11
-5.9e-11
1.9933e-11
-4.21041e-11
2.03588e-11
-4.99513e-11
-1.04312e-10
-5.98229e-11
1.71128e-11
-2.02524e-11
3.15512e-11
1.35724e-10
2.46833e-09
-1.16471e-10
2.87516e-11
-6.28584e-10
-6.57018e-10
-6.28599e-10
-6.57166e-10
2.4222e-09
-5.58402e-11
2.04004e-12
2.39541e-09
-3.31755e-11
-4.38845e-13
2.37645e-09
-1.87659e-11
8.7409e-14
2.36447e-09
-1.14494e-11
1.31054e-14
2.35664e-09
-6.74356e-12
2.33007e-14
2.3515e-09
-3.8174e-12
2.53585e-14
2.3482e-09
-2.25744e-12
2.71284e-14
2.34594e-09