/*--------------------------------*- C++ -*----------------------------------*\
| =========                 |                                                 |
| \\      /  F ield         | OpenFOAM: The Open Source CFD Toolbox           |
|  \\    /   O peration     | Version:  5.0                                   |
|   \\  /    A nd           | Web:      www.OpenFOAM.org                      |
|    \\/     M anipulation  |                                                 |
\*---------------------------------------------------------------------------*/
FoamFile
{
    version     2.0;
    format      ascii;
    class       volScalarField;
    location    "4.1";
    object      rAU;
}
// * * * * * * * * * * * * * * * * * * * * * * * * * * * * * * * * * * * * * //

dimensions      [-1 3 1 0 0 0 0];

internalField   nonuniform List<scalar> 
7758
(
9.59318e-07
9.66974e-07
8.773e-07
8.14421e-07
6.98688e-07
6.83698e-07
5.28229e-08
3.92287e-07
3.93664e-07
3.94697e-07
3.95731e-07
3.96763e-07
3.97794e-07
3.98826e-07
3.99856e-07
4.00886e-07
4.01915e-07
4.02944e-07
4.03971e-07
4.04998e-07
4.06024e-07
4.0705e-07
4.08075e-07
4.09099e-07
4.10122e-07
4.11145e-07
4.12166e-07
4.13187e-07
4.14208e-07
4.15227e-07
4.16246e-07
4.17264e-07
4.18281e-07
4.19297e-07
4.20313e-07
4.21328e-07
4.22342e-07
4.23355e-07
4.24367e-07
4.25379e-07
4.2639e-07
4.274e-07
4.28409e-07
4.29417e-07
4.30425e-07
4.31431e-07
4.32437e-07
4.33442e-07
4.34446e-07
4.36222e-07
9.59187e-07
9.6478e-07
9.68799e-07
9.65556e-07
8.23494e-07
6.79023e-07
1.14708e-07
1.29686e-07
3.93454e-07
3.94697e-07
3.9573e-07
3.96763e-07
3.97794e-07
3.98826e-07
3.99856e-07
4.00886e-07
4.01915e-07
4.02943e-07
4.03971e-07
4.04998e-07
4.06024e-07
4.0705e-07
4.08075e-07
4.09099e-07
4.10122e-07
4.11145e-07
4.12166e-07
4.13187e-07
4.14208e-07
4.15227e-07
4.16246e-07
4.17264e-07
4.18281e-07
4.19297e-07
4.20313e-07
4.21328e-07
4.22342e-07
4.23355e-07
4.24367e-07
4.25379e-07
4.2639e-07
4.274e-07
4.28409e-07
4.29417e-07
4.30425e-07
4.31431e-07
4.32437e-07
4.33442e-07
4.34446e-07
4.36222e-07
9.69983e-07
9.62477e-07
9.54252e-07
9.71143e-07
7.82579e-07
6.91792e-07
6.98e-07
1.29662e-07
3.93452e-07
3.94696e-07
3.9573e-07
3.96762e-07
3.97794e-07
3.98826e-07
3.99856e-07
4.00886e-07
4.01915e-07
4.02943e-07
4.03971e-07
4.04998e-07
4.06024e-07
4.0705e-07
4.08075e-07
4.09099e-07
4.10122e-07
4.11145e-07
4.12166e-07
4.13187e-07
4.14208e-07
4.15227e-07
4.16246e-07
4.17264e-07
4.18281e-07
4.19297e-07
4.20313e-07
4.21328e-07
4.22342e-07
4.23355e-07
4.24367e-07
4.25379e-07
4.2639e-07
4.274e-07
4.28409e-07
4.29417e-07
4.30425e-07
4.31431e-07
4.32437e-07
4.33442e-07
4.34446e-07
4.36222e-07
9.67585e-07
9.59866e-07
8.83428e-07
9.51416e-07
8.8287e-07
6.54355e-07
9.02692e-07
3.54124e-08
3.93451e-07
3.94695e-07
3.95729e-07
3.96762e-07
3.97794e-07
3.98826e-07
3.99856e-07
4.00886e-07
4.01915e-07
4.02943e-07
4.03971e-07
4.04998e-07
4.06024e-07
4.0705e-07
4.08075e-07
4.09099e-07
4.10122e-07
4.11145e-07
4.12166e-07
4.13187e-07
4.14208e-07
4.15227e-07
4.16246e-07
4.17264e-07
4.18281e-07
4.19297e-07
4.20313e-07
4.21328e-07
4.22342e-07
4.23355e-07
4.24367e-07
4.25379e-07
4.2639e-07
4.274e-07
4.28409e-07
4.29417e-07
4.30425e-07
4.31431e-07
4.32437e-07
4.33442e-07
4.34446e-07
4.36222e-07
8.93462e-07
8.89006e-07
7.76662e-07
8.4693e-07
6.55961e-07
6.74269e-07
9.02517e-07
5.72126e-08
3.9345e-07
3.94694e-07
3.95729e-07
3.96762e-07
3.97794e-07
3.98826e-07
3.99856e-07
4.00886e-07
4.01915e-07
4.02943e-07
4.03971e-07
4.04998e-07
4.06024e-07
4.0705e-07
4.08075e-07
4.09099e-07
4.10122e-07
4.11145e-07
4.12166e-07
4.13187e-07
4.14208e-07
4.15227e-07
4.16246e-07
4.17264e-07
4.18281e-07
4.19297e-07
4.20313e-07
4.21328e-07
4.22342e-07
4.23355e-07
4.24367e-07
4.25379e-07
4.2639e-07
4.274e-07
4.28409e-07
4.29417e-07
4.30425e-07
4.31431e-07
4.32437e-07
4.33442e-07
4.34446e-07
4.36222e-07
7.48412e-07
3.23689e-07
2.99174e-07
8.44928e-07
6.67292e-07
5.7784e-07
9.02877e-07
7.85463e-08
3.9345e-07
3.94695e-07
3.95729e-07
3.96762e-07
3.97794e-07
3.98826e-07
3.99856e-07
4.00886e-07
4.01915e-07
4.02943e-07
4.03971e-07
4.04998e-07
4.06024e-07
4.0705e-07
4.08075e-07
4.09099e-07
4.10122e-07
4.11145e-07
4.12166e-07
4.13187e-07
4.14208e-07
4.15227e-07
4.16246e-07
4.17264e-07
4.18281e-07
4.19297e-07
4.20313e-07
4.21328e-07
4.22342e-07
4.23355e-07
4.24367e-07
4.25379e-07
4.2639e-07
4.274e-07
4.28409e-07
4.29417e-07
4.30425e-07
4.31431e-07
4.32437e-07
4.33442e-07
4.34446e-07
4.36222e-07
5.77036e-07
6.04058e-07
6.10098e-07
7.9825e-07
6.41834e-07
6.94386e-07
9.01816e-07
4.62756e-08
3.93451e-07
3.94695e-07
3.95729e-07
3.96762e-07
3.97794e-07
3.98826e-07
3.99856e-07
4.00886e-07
4.01915e-07
4.02943e-07
4.03971e-07
4.04998e-07
4.06024e-07
4.0705e-07
4.08075e-07
4.09099e-07
4.10122e-07
4.11145e-07
4.12166e-07
4.13187e-07
4.14208e-07
4.15227e-07
4.16246e-07
4.17264e-07
4.18281e-07
4.19297e-07
4.20313e-07
4.21328e-07
4.22342e-07
4.23355e-07
4.24367e-07
4.25379e-07
4.2639e-07
4.274e-07
4.28409e-07
4.29417e-07
4.30425e-07
4.31431e-07
4.32437e-07
4.33442e-07
4.34446e-07
4.36222e-07
8.94699e-07
8.55063e-07
8.24459e-07
2.05838e-07
6.96233e-07
6.90031e-07
6.98794e-07
3.5303e-08
3.93453e-07
3.94696e-07
3.9573e-07
3.96762e-07
3.97794e-07
3.98826e-07
3.99856e-07
4.00886e-07
4.01915e-07
4.02943e-07
4.03971e-07
4.04998e-07
4.06024e-07
4.0705e-07
4.08075e-07
4.09099e-07
4.10122e-07
4.11145e-07
4.12166e-07
4.13187e-07
4.14208e-07
4.15227e-07
4.16246e-07
4.17264e-07
4.18281e-07
4.19297e-07
4.20313e-07
4.21328e-07
4.22342e-07
4.23355e-07
4.24367e-07
4.25379e-07
4.2639e-07
4.274e-07
4.28409e-07
4.29417e-07
4.30425e-07
4.31431e-07
4.32437e-07
4.33442e-07
4.34446e-07
4.36222e-07
9.59208e-07
8.78506e-07
3.03465e-07
6.78965e-07
5.18767e-07
5.27796e-07
6.98057e-07
1.29503e-07
3.93455e-07
3.94697e-07
3.95731e-07
3.96763e-07
3.97794e-07
3.98826e-07
3.99856e-07
4.00886e-07
4.01915e-07
4.02944e-07
4.03971e-07
4.04998e-07
4.06024e-07
4.0705e-07
4.08075e-07
4.09099e-07
4.10122e-07
4.11145e-07
4.12166e-07
4.13187e-07
4.14208e-07
4.15227e-07
4.16246e-07
4.17264e-07
4.18281e-07
4.19297e-07
4.20313e-07
4.21328e-07
4.22342e-07
4.23355e-07
4.24367e-07
4.25379e-07
4.2639e-07
4.274e-07
4.28409e-07
4.29417e-07
4.30425e-07
4.31431e-07
4.32437e-07
4.33442e-07
4.34446e-07
4.36222e-07
9.67465e-07
9.60127e-07
8.74545e-07
8.17745e-07
8.94939e-07
6.91394e-07
1.27386e-07
3.92288e-07
3.93664e-07
3.94697e-07
3.95731e-07
3.96763e-07
3.97795e-07
3.98826e-07
3.99856e-07
4.00886e-07
4.01915e-07
4.02944e-07
4.03971e-07
4.04998e-07
4.06024e-07
4.0705e-07
4.08075e-07
4.09099e-07
4.10122e-07
4.11145e-07
4.12166e-07
4.13187e-07
4.14208e-07
4.15227e-07
4.16246e-07
4.17264e-07
4.18281e-07
4.19297e-07
4.20313e-07
4.21328e-07
4.22342e-07
4.23355e-07
4.24367e-07
4.25379e-07
4.2639e-07
4.274e-07
4.28409e-07
4.29417e-07
4.30425e-07
4.31431e-07
4.32437e-07
4.33442e-07
4.34446e-07
4.36222e-07
9.70343e-07
9.66979e-07
8.49299e-07
4.11749e-07
7.64622e-07
6.99385e-07
7.90141e-08
5.04678e-07
5.06388e-07
5.07528e-07
5.08665e-07
5.09802e-07
5.10938e-07
5.12071e-07
5.13203e-07
5.14334e-07
5.15463e-07
5.1659e-07
5.17716e-07
5.1884e-07
5.19963e-07
5.21084e-07
5.22202e-07
5.2332e-07
5.24437e-07
5.2555e-07
5.26663e-07
5.27775e-07
5.28884e-07
5.29992e-07
5.31098e-07
5.32202e-07
5.33305e-07
5.34407e-07
5.35506e-07
5.36604e-07
5.37701e-07
5.38794e-07
5.39888e-07
5.40979e-07
5.42068e-07
5.43156e-07
5.44243e-07
5.45327e-07
5.4641e-07
5.47491e-07
5.4857e-07
5.49648e-07
5.50725e-07
5.5304e-07
9.58269e-07
9.7019e-07
9.81956e-07
9.61384e-07
9.01283e-07
6.75863e-07
1.62948e-07
1.84067e-07
5.06039e-07
5.07526e-07
5.08664e-07
5.09802e-07
5.10938e-07
5.12071e-07
5.13203e-07
5.14334e-07
5.15462e-07
5.1659e-07
5.17716e-07
5.1884e-07
5.19963e-07
5.21084e-07
5.22202e-07
5.2332e-07
5.24437e-07
5.2555e-07
5.26663e-07
5.27775e-07
5.28884e-07
5.29992e-07
5.31098e-07
5.32202e-07
5.33305e-07
5.34407e-07
5.35506e-07
5.36604e-07
5.377e-07
5.38794e-07
5.39888e-07
5.40979e-07
5.42068e-07
5.43156e-07
5.44243e-07
5.45327e-07
5.4641e-07
5.47491e-07
5.4857e-07
5.49648e-07
5.50725e-07
5.5304e-07
9.673e-07
9.61041e-07
9.77594e-07
9.70153e-07
7.26043e-07
6.82927e-07
7.75226e-07
1.83831e-07
5.06034e-07
5.07524e-07
5.08663e-07
5.09801e-07
5.10937e-07
5.1207e-07
5.13203e-07
5.14334e-07
5.15462e-07
5.1659e-07
5.17716e-07
5.1884e-07
5.19963e-07
5.21084e-07
5.22202e-07
5.2332e-07
5.24437e-07
5.2555e-07
5.26664e-07
5.27775e-07
5.28884e-07
5.29992e-07
5.31098e-07
5.32202e-07
5.33305e-07
5.34407e-07
5.35506e-07
5.36604e-07
5.377e-07
5.38794e-07
5.39888e-07
5.40979e-07
5.42068e-07
5.43156e-07
5.44243e-07
5.45327e-07
5.4641e-07
5.47491e-07
5.4857e-07
5.49648e-07
5.50725e-07
5.53039e-07
9.59479e-07
9.13391e-07
8.75831e-07
9.71352e-07
9.12929e-07
6.82719e-07
9.31804e-07
5.25814e-08
5.06031e-07
5.07522e-07
5.08662e-07
5.098e-07
5.10937e-07
5.1207e-07
5.13203e-07
5.14334e-07
5.15462e-07
5.1659e-07
5.17716e-07
5.1884e-07
5.19963e-07
5.21084e-07
5.22202e-07
5.2332e-07
5.24437e-07
5.2555e-07
5.26664e-07
5.27775e-07
5.28884e-07
5.29992e-07
5.31098e-07
5.32202e-07
5.33305e-07
5.34407e-07
5.35506e-07
5.36604e-07
5.377e-07
5.38794e-07
5.39888e-07
5.40979e-07
5.42068e-07
5.43156e-07
5.44243e-07
5.45327e-07
5.4641e-07
5.47491e-07
5.4857e-07
5.49648e-07
5.50725e-07
5.5304e-07
8.91578e-07
6.87535e-07
5.85473e-07
7.54555e-07
8.15335e-07
6.50786e-07
9.31329e-07
8.42143e-08
5.06027e-07
5.07521e-07
5.08661e-07
5.098e-07
5.10936e-07
5.1207e-07
5.13203e-07
5.14334e-07
5.15462e-07
5.1659e-07
5.17716e-07
5.1884e-07
5.19963e-07
5.21084e-07
5.22202e-07
5.2332e-07
5.24437e-07
5.2555e-07
5.26663e-07
5.27775e-07
5.28884e-07
5.29992e-07
5.31098e-07
5.32202e-07
5.33305e-07
5.34407e-07
5.35506e-07
5.36604e-07
5.377e-07
5.38794e-07
5.39888e-07
5.40979e-07
5.42068e-07
5.43156e-07
5.44243e-07
5.45327e-07
5.4641e-07
5.47491e-07
5.4857e-07
5.49648e-07
5.50725e-07
5.5304e-07
7.20559e-07
8.98286e-07
4.29928e-07
8.26811e-07
6.76043e-07
4.73428e-07
9.31818e-07
1.15253e-07
5.06028e-07
5.07521e-07
5.08661e-07
5.098e-07
5.10936e-07
5.1207e-07
5.13203e-07
5.14334e-07
5.15462e-07
5.1659e-07
5.17716e-07
5.1884e-07
5.19962e-07
5.21084e-07
5.22202e-07
5.2332e-07
5.24437e-07
5.2555e-07
5.26663e-07
5.27775e-07
5.28884e-07
5.29992e-07
5.31098e-07
5.32202e-07
5.33305e-07
5.34407e-07
5.35506e-07
5.36604e-07
5.377e-07
5.38794e-07
5.39888e-07
5.40979e-07
5.42068e-07
5.43156e-07
5.44243e-07
5.45327e-07
5.4641e-07
5.47491e-07
5.4857e-07
5.49648e-07
5.50725e-07
5.53039e-07
1.76971e-07
3.62949e-07
1.92639e-07
4.98524e-07
6.00163e-07
7.33512e-07
9.30173e-07
6.87394e-08
5.06032e-07
5.07523e-07
5.08662e-07
5.098e-07
5.10937e-07
5.1207e-07
5.13203e-07
5.14334e-07
5.15462e-07
5.1659e-07
5.17716e-07
5.1884e-07
5.19962e-07
5.21084e-07
5.22202e-07
5.2332e-07
5.24437e-07
5.2555e-07
5.26664e-07
5.27775e-07
5.28883e-07
5.29992e-07
5.31098e-07
5.32202e-07
5.33305e-07
5.34407e-07
5.35506e-07
5.36604e-07
5.377e-07
5.38794e-07
5.39888e-07
5.40979e-07
5.42068e-07
5.43156e-07
5.44243e-07
5.45327e-07
5.4641e-07
5.47491e-07
5.4857e-07
5.49648e-07
5.50725e-07
5.53039e-07
9.18649e-07
9.21019e-07
8.86618e-07
7.60281e-07
9.27271e-07
7.10309e-07
7.76247e-07
5.19993e-08
5.06037e-07
5.07526e-07
5.08664e-07
5.09801e-07
5.10937e-07
5.12071e-07
5.13203e-07
5.14334e-07
5.15462e-07
5.1659e-07
5.17716e-07
5.1884e-07
5.19963e-07
5.21084e-07
5.22202e-07
5.2332e-07
5.24437e-07
5.2555e-07
5.26664e-07
5.27775e-07
5.28884e-07
5.29992e-07
5.31098e-07
5.32202e-07
5.33305e-07
5.34407e-07
5.35506e-07
5.36604e-07
5.377e-07
5.38794e-07
5.39888e-07
5.40979e-07
5.42068e-07
5.43156e-07
5.44243e-07
5.45327e-07
5.4641e-07
5.47491e-07
5.4857e-07
5.49648e-07
5.50725e-07
5.53039e-07
9.65861e-07
9.65768e-07
7.73356e-07
7.61103e-07
3.87658e-07
4.63649e-07
7.72382e-07
1.83949e-07
5.06042e-07
5.07528e-07
5.08666e-07
5.09802e-07
5.10938e-07
5.12071e-07
5.13203e-07
5.14334e-07
5.15463e-07
5.1659e-07
5.17716e-07
5.1884e-07
5.19963e-07
5.21084e-07
5.22202e-07
5.2332e-07
5.24437e-07
5.2555e-07
5.26663e-07
5.27775e-07
5.28884e-07
5.29992e-07
5.31098e-07
5.32202e-07
5.33305e-07
5.34407e-07
5.35506e-07
5.36604e-07
5.377e-07
5.38794e-07
5.39888e-07
5.40979e-07
5.42068e-07
5.43156e-07
5.44243e-07
5.45327e-07
5.4641e-07
5.47491e-07
5.4857e-07
5.49648e-07
5.50725e-07
5.53039e-07
9.72083e-07
9.66939e-07
8.73548e-07
2.8626e-07
8.57046e-07
7.32805e-07
1.80536e-07
5.0468e-07
5.06389e-07
5.07529e-07
5.08666e-07
5.09803e-07
5.10938e-07
5.12071e-07
5.13204e-07
5.14334e-07
5.15463e-07
5.1659e-07
5.17716e-07
5.1884e-07
5.19963e-07
5.21084e-07
5.22202e-07
5.2332e-07
5.24437e-07
5.2555e-07
5.26663e-07
5.27775e-07
5.28884e-07
5.29992e-07
5.31098e-07
5.32202e-07
5.33305e-07
5.34407e-07
5.35506e-07
5.36604e-07
5.377e-07
5.38794e-07
5.39888e-07
5.40979e-07
5.42068e-07
5.43156e-07
5.44243e-07
5.45327e-07
5.4641e-07
5.47491e-07
5.4857e-07
5.49648e-07
5.50725e-07
5.5304e-07
9.61251e-07
9.70174e-07
9.15364e-07
9.06099e-07
5.954e-07
7.26282e-07
7.85353e-08
3.92287e-07
3.93663e-07
3.94697e-07
3.95731e-07
3.96763e-07
3.97794e-07
3.98826e-07
3.99856e-07
4.00886e-07
4.01915e-07
4.02943e-07
4.03971e-07
4.04998e-07
4.06024e-07
4.0705e-07
4.08075e-07
4.09099e-07
4.10122e-07
4.11145e-07
4.12166e-07
4.13187e-07
4.14208e-07
4.15227e-07
4.16246e-07
4.17264e-07
4.18281e-07
4.19297e-07
4.20313e-07
4.21328e-07
4.22342e-07
4.23355e-07
4.24367e-07
4.25379e-07
4.2639e-07
4.274e-07
4.28409e-07
4.29417e-07
4.30425e-07
4.31431e-07
4.32437e-07
4.33442e-07
4.34446e-07
4.36222e-07
9.62267e-07
9.65997e-07
9.57944e-07
9.6973e-07
8.59555e-07
7.02488e-07
1.62945e-07
1.84071e-07
3.93454e-07
3.94697e-07
3.9573e-07
3.96763e-07
3.97794e-07
3.98826e-07
3.99856e-07
4.00886e-07
4.01915e-07
4.02943e-07
4.03971e-07
4.04998e-07
4.06024e-07
4.0705e-07
4.08075e-07
4.09099e-07
4.10122e-07
4.11145e-07
4.12166e-07
4.13187e-07
4.14208e-07
4.15227e-07
4.16246e-07
4.17264e-07
4.18281e-07
4.19297e-07
4.20313e-07
4.21328e-07
4.22342e-07
4.23355e-07
4.24367e-07
4.25379e-07
4.2639e-07
4.274e-07
4.28409e-07
4.29417e-07
4.30425e-07
4.31431e-07
4.32437e-07
4.33442e-07
4.34446e-07
4.36222e-07
9.67187e-07
9.64464e-07
9.65076e-07
9.69455e-07
7.32966e-07
7.02254e-07
7.75064e-07
1.83836e-07
3.93452e-07
3.94696e-07
3.9573e-07
3.96762e-07
3.97794e-07
3.98826e-07
3.99856e-07
4.00886e-07
4.01915e-07
4.02943e-07
4.03971e-07
4.04998e-07
4.06024e-07
4.0705e-07
4.08075e-07
4.09099e-07
4.10122e-07
4.11145e-07
4.12166e-07
4.13187e-07
4.14208e-07
4.15227e-07
4.16246e-07
4.17264e-07
4.18281e-07
4.19297e-07
4.20313e-07
4.21328e-07
4.22342e-07
4.23355e-07
4.24367e-07
4.25379e-07
4.2639e-07
4.274e-07
4.28409e-07
4.29417e-07
4.30425e-07
4.31431e-07
4.32437e-07
4.33442e-07
4.34446e-07
4.36222e-07
9.66553e-07
9.63829e-07
8.98017e-07
9.62462e-07
9.13231e-07
7.45967e-07
9.32057e-07
5.25257e-08
3.93451e-07
3.94695e-07
3.95729e-07
3.96762e-07
3.97794e-07
3.98826e-07
3.99856e-07
4.00886e-07
4.01915e-07
4.02943e-07
4.03971e-07
4.04998e-07
4.06024e-07
4.0705e-07
4.08075e-07
4.09099e-07
4.10122e-07
4.11145e-07
4.12166e-07
4.13187e-07
4.14208e-07
4.15227e-07
4.16246e-07
4.17264e-07
4.18281e-07
4.19297e-07
4.20313e-07
4.21328e-07
4.22342e-07
4.23355e-07
4.24367e-07
4.25379e-07
4.2639e-07
4.274e-07
4.28409e-07
4.29417e-07
4.30425e-07
4.31431e-07
4.32437e-07
4.33442e-07
4.34446e-07
4.36222e-07
9.20037e-07
8.93449e-07
5.89964e-07
8.31522e-07
8.42958e-07
6.60269e-07
9.31682e-07
8.40852e-08
3.9345e-07
3.94694e-07
3.95729e-07
3.96762e-07
3.97794e-07
3.98826e-07
3.99856e-07
4.00886e-07
4.01915e-07
4.02943e-07
4.03971e-07
4.04998e-07
4.06024e-07
4.0705e-07
4.08075e-07
4.09099e-07
4.10122e-07
4.11145e-07
4.12166e-07
4.13187e-07
4.14208e-07
4.15227e-07
4.16246e-07
4.17264e-07
4.18281e-07
4.19297e-07
4.20313e-07
4.21328e-07
4.22342e-07
4.23355e-07
4.24367e-07
4.25379e-07
4.2639e-07
4.274e-07
4.28409e-07
4.29417e-07
4.30425e-07
4.31431e-07
4.32437e-07
4.33442e-07
4.34446e-07
4.36222e-07
5.72546e-07
6.58475e-07
8.72103e-07
7.82973e-07
6.44345e-07
6.8972e-07
9.31986e-07
1.15129e-07
3.9345e-07
3.94695e-07
3.95729e-07
3.96762e-07
3.97794e-07
3.98826e-07
3.99856e-07
4.00886e-07
4.01915e-07
4.02943e-07
4.03971e-07
4.04998e-07
4.06024e-07
4.0705e-07
4.08075e-07
4.09099e-07
4.10122e-07
4.11145e-07
4.12166e-07
4.13187e-07
4.14208e-07
4.15227e-07
4.16246e-07
4.17264e-07
4.18281e-07
4.19297e-07
4.20313e-07
4.21328e-07
4.22342e-07
4.23355e-07
4.24367e-07
4.25379e-07
4.2639e-07
4.274e-07
4.28409e-07
4.29417e-07
4.30425e-07
4.31431e-07
4.32437e-07
4.33442e-07
4.34446e-07
4.36222e-07
6.41375e-07
7.68812e-07
7.43418e-07
9.20297e-07
6.83471e-07
7.30539e-07
9.30476e-07
6.85914e-08
3.93451e-07
3.94695e-07
3.95729e-07
3.96762e-07
3.97794e-07
3.98826e-07
3.99856e-07
4.00886e-07
4.01915e-07
4.02943e-07
4.03971e-07
4.04998e-07
4.06024e-07
4.0705e-07
4.08075e-07
4.09099e-07
4.10122e-07
4.11145e-07
4.12166e-07
4.13187e-07
4.14208e-07
4.15227e-07
4.16246e-07
4.17264e-07
4.18281e-07
4.19297e-07
4.20313e-07
4.21328e-07
4.22342e-07
4.23355e-07
4.24367e-07
4.25379e-07
4.2639e-07
4.274e-07
4.28409e-07
4.29417e-07
4.30425e-07
4.31431e-07
4.32437e-07
4.33442e-07
4.34446e-07
4.36222e-07
9.11756e-07
9.53387e-07
9.53966e-07
9.26069e-07
8.82349e-07
7.50686e-07
7.75524e-07
5.19995e-08
3.93453e-07
3.94696e-07
3.9573e-07
3.96762e-07
3.97794e-07
3.98826e-07
3.99856e-07
4.00886e-07
4.01915e-07
4.02943e-07
4.03971e-07
4.04998e-07
4.06024e-07
4.0705e-07
4.08075e-07
4.09099e-07
4.10122e-07
4.11145e-07
4.12166e-07
4.13187e-07
4.14208e-07
4.15227e-07
4.16246e-07
4.17264e-07
4.18281e-07
4.19297e-07
4.20313e-07
4.21328e-07
4.22342e-07
4.23355e-07
4.24367e-07
4.25379e-07
4.2639e-07
4.274e-07
4.28409e-07
4.29417e-07
4.30425e-07
4.31431e-07
4.32437e-07
4.33442e-07
4.34446e-07
4.36222e-07
9.62568e-07
9.67352e-07
9.29878e-07
7.71478e-07
6.71604e-07
5.83065e-07
7.72363e-07
1.83954e-07
3.93455e-07
3.94697e-07
3.95731e-07
3.96763e-07
3.97794e-07
3.98826e-07
3.99856e-07
4.00886e-07
4.01915e-07
4.02943e-07
4.03971e-07
4.04998e-07
4.06024e-07
4.0705e-07
4.08075e-07
4.09099e-07
4.10122e-07
4.11145e-07
4.12166e-07
4.13187e-07
4.14208e-07
4.15227e-07
4.16246e-07
4.17264e-07
4.18281e-07
4.19297e-07
4.20313e-07
4.21328e-07
4.22342e-07
4.23355e-07
4.24367e-07
4.25379e-07
4.2639e-07
4.274e-07
4.28409e-07
4.29417e-07
4.30425e-07
4.31431e-07
4.32437e-07
4.33442e-07
4.34446e-07
4.36222e-07
9.63854e-07
9.64793e-07
8.90428e-07
4.49566e-07
6.44346e-07
7.65381e-07
1.80786e-07
3.92288e-07
3.93664e-07
3.94697e-07
3.95731e-07
3.96763e-07
3.97795e-07
3.98826e-07
3.99856e-07
4.00886e-07
4.01915e-07
4.02943e-07
4.03971e-07
4.04998e-07
4.06024e-07
4.0705e-07
4.08075e-07
4.09099e-07
4.10122e-07
4.11145e-07
4.12166e-07
4.13187e-07
4.14208e-07
4.15227e-07
4.16246e-07
4.17264e-07
4.18281e-07
4.19297e-07
4.20313e-07
4.21328e-07
4.22342e-07
4.23355e-07
4.24367e-07
4.25379e-07
4.2639e-07
4.274e-07
4.28409e-07
4.29417e-07
4.30425e-07
4.31431e-07
4.32437e-07
4.33442e-07
4.34446e-07
4.36222e-07
6.84209e-07
6.82963e-07
6.93801e-07
7.09471e-07
6.90305e-07
7.29872e-07
7.68188e-07
6.95793e-07
6.75289e-07
7.00574e-07
7.10272e-07
7.69985e-07
7.04769e-07
7.75382e-07
7.00605e-07
6.11795e-07
7.0076e-07
6.79085e-07
7.75537e-07
6.58586e-07
7.75887e-07
7.00776e-07
6.65772e-07
6.99524e-07
6.94018e-07
7.76442e-07
7.04179e-07
7.64637e-07
6.96931e-07
6.7183e-07
7.00291e-07
6.68027e-07
7.72793e-07
6.75318e-07
7.75137e-07
6.99803e-07
6.60525e-07
6.99995e-07
4.95094e-07
7.76726e-07
7.23369e-07
7.73691e-07
6.98966e-07
5.43137e-07
6.99649e-07
7.52128e-07
7.69579e-07
6.03141e-07
7.74579e-07
7.00021e-07
6.5362e-07
7.00117e-07
7.29885e-07
7.75285e-07
5.81716e-07
7.75972e-07
6.99936e-07
6.84158e-07
6.98903e-07
4.89475e-07
7.74625e-07
7.43814e-07
7.72841e-07
6.97147e-07
6.77333e-07
6.92486e-07
7.45625e-07
7.70547e-07
6.34081e-07
7.66609e-07
6.7751e-07
7.2778e-07
7.68146e-07
7.2945e-07
6.70671e-07
7.03043e-07
7.67824e-07
7.70089e-07
6.76662e-07
7.75284e-07
6.62078e-07
7.70897e-07
6.1835e-07
7.7633e-07
7.75723e-07
6.71044e-07
7.75264e-07
6.88091e-07
7.75782e-07
6.42768e-07
7.74809e-07
7.76106e-07
7.00336e-07
7.63994e-07
7.34274e-07
7.7694e-07
7.26195e-07
7.67155e-07
7.70472e-07
6.50278e-07
7.73596e-07
6.52479e-07
7.72709e-07
6.51201e-07
7.74891e-07
7.75967e-07
7.13446e-07
7.72737e-07
7.00992e-07
7.75184e-07
7.04692e-07
7.75766e-07
7.67015e-07
6.82365e-07
7.76325e-07
6.98519e-07
7.65335e-07
6.73149e-07
7.75654e-07
7.75142e-07
5.77744e-07
7.75978e-07
7.56822e-07
7.7606e-07
6.06646e-07
7.76469e-07
7.74614e-07
7.56443e-07
7.72319e-07
5.31998e-07
7.75554e-07
7.43518e-07
7.72598e-07
7.70614e-07
6.29279e-07
7.6636e-07
7.51018e-07
7.70272e-07
6.2612e-07
7.66755e-07
6.8332e-07
6.97731e-07
7.67625e-07
6.85594e-07
6.84494e-07
6.92233e-07
6.94205e-07
7.71303e-07
6.51556e-07
7.76534e-07
6.88807e-07
6.96157e-07
6.70941e-07
7.00819e-07
7.75966e-07
6.73344e-07
7.75603e-07
6.63251e-07
7.00707e-07
6.68244e-07
7.00497e-07
7.75685e-07
7.2779e-07
7.68566e-07
5.82451e-07
6.98548e-07
6.6519e-07
6.98488e-07
7.71856e-07
6.05996e-07
7.74554e-07
6.76376e-07
6.98394e-07
4.78226e-07
6.99895e-07
7.75055e-07
6.48303e-07
7.74837e-07
6.10019e-07
7.00058e-07
6.7255e-07
6.99558e-07
7.63187e-07
7.07094e-07
7.73925e-07
6.87725e-07
6.98015e-07
6.83211e-07
6.98008e-07
7.75836e-07
6.38148e-07
7.76836e-07
6.82273e-07
7.00446e-07
6.48828e-07
7.00106e-07
7.7552e-07
7.36971e-07
7.73004e-07
6.31172e-07
6.99963e-07
6.93307e-07
6.98786e-07
7.70534e-07
6.27712e-07
7.66788e-07
6.96118e-07
6.97016e-07
6.48157e-07
6.92433e-07
3.83844e-07
8.84448e-07
8.54479e-07
7.68752e-07
8.131e-07
8.94283e-07
9.18056e-07
7.6369e-07
6.97353e-07
6.70193e-07
7.31698e-07
7.3453e-07
6.93777e-07
7.71012e-07
1.29567e-07
8.165e-08
1.2951e-07
7.84243e-08
1.83833e-07
1.18657e-07
1.83721e-07
8.90225e-07
8.62337e-07
8.55352e-07
9.03914e-07
9.10774e-07
9.05237e-07
9.17911e-07
7.29366e-07
6.88091e-07
6.32461e-07
7.68509e-07
7.52942e-07
6.42582e-07
6.80286e-07
3.52934e-08
6.96584e-07
3.51631e-08
1.63032e-07
5.20165e-08
7.70365e-07
5.19825e-08
8.5989e-07
9.02612e-07
7.55318e-07
7.43925e-07
8.86215e-07
9.14194e-07
8.49599e-07
7.13148e-07
6.98885e-07
3.10505e-07
7.66338e-07
7.72155e-07
4.28761e-07
6.51239e-07
3.52839e-08
6.98633e-07
4.56605e-08
7.75044e-07
5.19967e-08
7.76309e-07
6.74907e-08
6.30788e-07
8.23996e-07
8.10131e-07
8.9536e-07
7.22262e-07
7.87698e-07
7.60129e-07
7.63325e-07
6.97102e-07
4.85326e-07
7.20457e-07
7.69959e-07
5.61945e-07
6.96042e-07
7.3845e-08
9.02482e-07
4.19277e-07
9.32042e-07
1.06811e-07
9.31073e-07
4.98483e-07
8.65449e-07
5.15772e-07
2.18502e-07
8.06436e-07
6.30869e-07
3.65053e-07
2.67909e-07
6.97259e-07
6.95283e-07
4.48483e-07
7.14877e-07
7.66172e-07
5.27712e-07
6.29287e-07
6.91699e-07
9.0267e-07
6.95396e-07
9.31921e-07
7.66265e-07
9.31656e-07
7.69972e-07
4.79942e-07
6.76883e-07
6.82262e-07
5.79265e-07
3.80297e-07
5.46363e-07
7.27717e-07
7.59032e-07
6.96695e-07
5.94588e-07
7.00686e-07
7.64929e-07
6.97365e-07
6.9321e-07
6.95113e-07
9.02237e-07
6.91435e-07
9.32268e-07
7.70021e-07
9.31898e-07
7.47179e-07
6.44559e-07
6.70661e-07
8.50849e-07
5.33209e-07
6.38062e-07
3.86807e-07
8.87353e-07
7.48988e-07
6.94443e-07
6.16518e-07
7.63857e-07
7.65874e-07
7.13791e-07
6.89364e-07
3.70183e-07
9.02609e-07
7.38821e-08
9.3053e-07
4.52242e-07
9.31532e-07
1.06909e-07
5.73929e-07
3.4679e-07
6.29153e-07
8.50084e-07
8.60422e-07
5.99304e-07
4.70787e-07
7.55823e-07
6.97438e-07
6.66204e-07
7.56488e-07
7.70653e-07
6.37105e-07
6.9419e-07
4.80046e-08
6.99449e-07
3.50683e-08
7.76085e-07
7.10905e-08
7.76427e-07
5.20079e-08
2.04168e-07
8.43636e-07
8.58096e-07
4.69874e-07
3.34936e-07
9.14508e-07
9.10795e-07
7.37415e-07
6.93441e-07
5.56357e-07
5.71888e-07
7.58351e-07
5.59933e-07
6.67192e-07
3.52128e-08
2.29245e-07
3.52267e-08
7.72781e-07
5.1988e-08
3.05013e-07
5.20167e-08
8.97452e-07
6.46942e-07
2.85128e-07
8.96297e-07
8.91191e-07
7.05761e-07
4.45132e-07
7.73961e-07
6.96444e-07
6.44852e-07
7.39563e-07
7.70464e-07
6.74954e-07
6.98889e-07
1.29519e-07
6.05733e-08
1.29567e-07
1.80915e-07
1.83739e-07
8.82761e-08
1.83836e-07
7.60345e-07
9.1273e-07
8.86889e-07
5.48488e-07
5.44844e-07
8.87644e-07
9.1969e-07
7.34128e-07
7.57579e-07
7.12102e-07
7.02473e-07
7.37765e-07
7.10257e-07
7.55266e-07
1.83829e-07
1.18714e-07
1.83717e-07
7.94452e-08
1.83829e-07
1.19015e-07
1.83717e-07
8.74393e-07
8.3014e-07
9.07396e-07
8.93354e-07
9.10662e-07
7.67166e-07
7.86544e-07
6.71725e-07
7.68228e-07
5.09013e-07
6.78897e-07
6.65829e-07
7.66415e-07
4.57405e-07
5.2016e-08
7.70168e-07
5.19821e-08
1.62903e-07
5.20161e-08
7.70873e-07
5.19821e-08
7.55369e-07
8.73065e-07
8.49615e-07
7.27007e-07
7.84461e-07
7.73543e-07
8.60844e-07
7.23615e-07
7.56325e-07
6.70053e-07
6.59212e-07
6.96726e-07
7.57796e-07
5.83917e-07
5.19962e-08
7.76159e-07
6.75865e-08
7.75044e-07
5.19964e-08
7.7637e-07
6.75624e-08
8.49091e-07
9.04069e-07
8.61158e-07
8.46639e-07
8.81992e-07
8.36002e-07
7.83966e-07
7.25073e-07
7.70345e-07
5.40259e-07
6.99806e-07
7.30757e-07
7.64585e-07
5.51646e-07
1.0679e-07
9.31568e-07
4.96042e-07
9.31921e-07
1.06827e-07
9.3129e-07
4.9457e-07
4.46778e-07
5.34179e-07
4.63657e-07
8.89401e-07
7.64836e-07
4.78501e-07
1.7331e-07
6.79234e-07
7.51614e-07
5.02718e-07
6.43691e-07
6.67725e-07
7.50102e-07
4.68745e-07
7.63244e-07
9.31498e-07
7.69801e-07
9.32312e-07
7.62867e-07
9.31567e-07
7.69895e-07
4.50705e-07
4.81202e-07
4.80811e-07
5.96027e-07
5.65226e-07
7.8903e-07
3.94723e-07
7.51481e-07
7.34083e-07
7.16523e-07
5.77525e-07
7.51549e-07
7.2905e-07
6.84172e-07
7.69676e-07
9.3152e-07
7.37414e-07
9.31536e-07
7.69829e-07
9.31379e-07
7.36256e-07
7.32639e-07
8.20083e-07
7.77086e-07
4.40892e-07
6.9792e-07
8.85061e-07
8.88163e-07
7.40679e-07
7.72311e-07
6.10869e-07
6.95687e-07
7.38548e-07
7.69075e-07
5.953e-07
4.5284e-07
9.31104e-07
1.0695e-07
9.30337e-07
4.54033e-07
9.31027e-07
1.0693e-07
8.20708e-07
3.44103e-07
4.95715e-07
8.96984e-07
8.94766e-07
2.59217e-07
3.23131e-07
7.49603e-07
7.63465e-07
5.59848e-07
7.1282e-07
7.50648e-07
7.59641e-07
5.23982e-07
7.11588e-08
7.76712e-07
5.20077e-08
7.75568e-07
7.11595e-08
7.7672e-07
5.20076e-08
3.19907e-07
7.9669e-07
8.13844e-07
6.66627e-07
1.62061e-07
8.79269e-07
5.5848e-07
7.36506e-07
7.31209e-07
4.20994e-07
4.52685e-07
7.32017e-07
7.17989e-07
3.63137e-07
5.19876e-08
3.04929e-07
5.20162e-08
7.7213e-07
5.19877e-08
3.06297e-07
5.20163e-08
8.5267e-07
5.55016e-07
7.42576e-07
5.92214e-07
9.0107e-07
4.31518e-07
6.81468e-07
7.46143e-07
7.71842e-07
7.36718e-07
7.12087e-07
7.60817e-07
7.71996e-07
6.9423e-07
1.83736e-07
8.9176e-08
1.83832e-07
1.80543e-07
1.83736e-07
8.83789e-08
1.83832e-07
6.32313e-07
9.20269e-07
9.0149e-07
6.73927e-07
5.95534e-07
8.68963e-07
8.54824e-07
7.40435e-07
7.55065e-07
7.20636e-07
7.39624e-07
7.3548e-07
7.07861e-07
7.58864e-07
1.83833e-07
1.19206e-07
1.83721e-07
5.27028e-08
1.29567e-07
8.1522e-08
1.29511e-07
9.10959e-07
8.82825e-07
7.54851e-07
8.16634e-07
8.76163e-07
8.00934e-07
5.95384e-07
7.02154e-07
7.7503e-07
4.51734e-07
6.69234e-07
6.8385e-07
7.73215e-07
4.63236e-07
5.20165e-08
7.71256e-07
5.19824e-08
1.15059e-07
3.52722e-08
6.96695e-07
3.51631e-08
6.61256e-07
8.24492e-07
8.28849e-07
6.89277e-07
5.84468e-07
7.43688e-07
7.90111e-07
7.5848e-07
7.6876e-07
3.93897e-07
7.07954e-07
7.44609e-07
7.66158e-07
3.85205e-07
5.19965e-08
7.76533e-07
6.74526e-08
6.99147e-07
3.51862e-08
6.9854e-07
4.56505e-08
8.92427e-07
9.2439e-07
8.34425e-07
8.72039e-07
8.44193e-07
8.60254e-07
7.71755e-07
7.3638e-07
7.65195e-07
6.62112e-07
6.81431e-07
7.30728e-07
7.6865e-07
6.66089e-07
1.06844e-07
9.31403e-07
4.99716e-07
9.02846e-07
7.38514e-08
9.02387e-07
4.2005e-07
9.08838e-07
4.26437e-07
1.53746e-07
7.93707e-07
8.6687e-07
8.81616e-07
6.73994e-07
7.71777e-07
7.58302e-07
5.99648e-07
6.75539e-07
7.59092e-07
7.61041e-07
5.86876e-07
7.65887e-07
9.31675e-07
7.69991e-07
9.0265e-07
6.91801e-07
9.02705e-07
6.95343e-07
6.03962e-07
8.18656e-07
7.59645e-07
8.62083e-07
8.11133e-07
6.64475e-07
8.36145e-07
7.5781e-07
7.50083e-07
6.41392e-07
6.8985e-07
7.60735e-07
7.54058e-07
5.77401e-07
7.69839e-07
9.31686e-07
7.46402e-07
9.02791e-07
6.95238e-07
9.022e-07
6.91366e-07
7.76155e-07
7.90861e-07
8.73442e-07
7.97874e-07
8.45831e-07
8.89001e-07
8.86113e-07
7.39332e-07
7.65012e-07
6.77331e-07
7.22151e-07
7.34904e-07
7.68689e-07
7.62118e-07
4.57478e-07
9.31425e-07
1.06884e-07
9.01988e-07
3.69208e-07
9.02543e-07
7.38382e-08
8.90197e-07
3.3618e-07
4.14408e-07
8.94313e-07
8.51251e-07
6.98032e-07
4.30201e-07
7.62233e-07
7.70124e-07
5.96239e-07
7.38257e-07
7.65024e-07
7.70799e-07
5.98083e-07
7.10747e-08
7.76427e-07
5.20078e-08
6.98774e-07
4.79593e-08
6.98384e-07
3.50683e-08
1.57837e-07
8.15757e-07
5.21501e-07
7.49275e-07
1.16216e-07
9.01787e-07
5.76517e-07
6.74267e-07
7.41214e-07
3.34821e-07
6.11339e-07
6.71694e-07
7.50064e-07
3.26864e-07
5.1988e-08
3.06703e-07
5.20167e-08
6.98123e-07
3.51454e-08
2.28903e-07
3.52277e-08
8.59953e-07
3.16323e-07
4.69508e-07
6.49558e-07
6.53375e-07
4.97449e-07
4.87215e-07
7.33877e-07
7.70893e-07
6.00174e-07
7.73894e-07
7.27049e-07
7.69664e-07
6.03634e-07
1.83739e-07
8.83082e-08
1.83836e-07
1.28454e-07
1.29519e-07
6.06052e-08
1.29568e-07
7.73346e-07
6.99916e-07
6.91616e-07
7.33786e-07
7.65909e-07
6.99217e-07
7.74564e-07
7.64367e-07
6.72289e-07
6.96165e-07
7.68606e-07
6.91872e-07
7.68836e-07
6.89166e-07
7.68811e-07
6.92017e-07
6.97964e-07
7.6834e-07
7.65478e-07
7.73538e-07
6.96827e-07
7.53947e-07
7.28211e-07
7.6451e-07
7.44474e-07
7.38154e-07
7.45088e-07
7.68903e-07
7.70951e-07
7.08605e-07
7.71302e-07
7.63307e-07
7.66091e-07
7.69349e-07
7.72996e-07
7.61749e-07
7.50761e-07
6.48446e-07
7.63566e-07
6.50345e-07
7.60987e-07
7.61064e-07
7.66958e-07
7.68197e-07
7.63603e-07
7.71544e-07
7.64426e-07
7.72459e-07
7.65126e-07
7.75549e-07
6.96541e-07
6.9843e-07
7.70325e-07
7.68726e-07
7.73788e-07
7.0032e-07
7.62348e-07
6.92285e-07
6.92167e-07
7.05827e-07
7.04153e-07
7.66761e-07
6.93648e-07
7.75013e-07
7.00903e-07
6.99045e-07
7.76206e-07
7.77332e-07
7.74928e-07
7.00107e-07
7.09398e-07
7.68144e-07
7.62586e-07
6.12203e-07
7.52834e-07
6.23527e-07
6.92093e-07
7.75565e-07
7.70123e-07
7.64634e-07
7.71688e-07
7.66084e-07
7.72685e-07
7.7212e-07
7.62123e-07
6.66443e-07
6.25219e-07
7.68204e-07
6.51203e-07
7.68139e-07
7.58894e-07
7.70686e-07
7.7578e-07
7.76423e-07
7.73039e-07
7.76738e-07
7.74483e-07
7.71298e-07
7.6827e-07
7.00671e-07
7.00475e-07
7.76611e-07
7.74694e-07
7.75719e-07
6.97863e-07
6.46151e-07
3.94669e-07
6.85716e-07
7.09627e-07
4.47139e-07
7.60834e-07
5.40037e-07
7.7256e-07