/*--------------------------------*- C++ -*----------------------------------*\
| =========                 |                                                 |
| \\      /  F ield         | OpenFOAM: The Open Source CFD Toolbox           |
|  \\    /   O peration     | Version:  5.0                                   |
|   \\  /    A nd           | Web:      www.OpenFOAM.org                      |
|    \\/     M anipulation  |                                                 |
\*---------------------------------------------------------------------------*/
FoamFile
{
    version     2.0;
    format      ascii;
    class       volVectorField;
    location    "4.1";
    object      U;
}
// * * * * * * * * * * * * * * * * * * * * * * * * * * * * * * * * * * * * * //

dimensions      [0 1 -1 0 0 0 0];

internalField   nonuniform List<vector> 
7758
(
(-0.00431251 -0.00509223 0.000208967)
(-0.00902733 0.00158354 -0.000253869)
(6.86457e-05 0.000950897 0.00100393)
(-0.00333001 0.00508754 -0.000243855)
(-0.00272875 -0.0101805 0.000352579)
(-0.000798136 0.00409243 -0.000173032)
(0.000412553 -3.05738e-05 2.95312e-05)
(0.000773543 -7.98861e-05 -2.24617e-06)
(0.000771772 -2.89057e-05 -1.1612e-07)
(0.000788356 -2.60557e-05 2.67073e-08)
(0.000800688 -1.56121e-05 1.03241e-07)
(0.000807326 -1.03762e-05 5.21303e-08)
(0.000812115 -6.59994e-06 -5.03115e-09)
(0.000814065 -3.92008e-06 8.23828e-08)
(0.000814536 -2.52407e-06 4.94048e-08)
(0.000814443 -1.74001e-06 -4.57805e-09)
(0.000813772 -1.09102e-06 5.26217e-08)
(0.000812911 -6.91626e-07 9.55382e-08)
(0.000811523 -5.1089e-07 6.6223e-08)
(0.000810371 -7.2581e-07 1.16913e-07)
(0.000809285 -4.67318e-07 7.15278e-08)
(0.000807706 -2.82145e-07 7.70189e-08)
(0.000806124 -3.2206e-07 5.50586e-08)
(0.000804612 -2.26439e-07 5.17731e-08)
(0.000803237 1.24864e-07 -3.81379e-09)
(0.000801608 3.6774e-07 4.64468e-08)
(0.000800014 2.34596e-07 6.41648e-08)
(0.000798714 1.50217e-07 5.02947e-08)
(0.000797074 2.41673e-07 3.07636e-09)
(0.000795578 -1.43599e-07 6.30017e-08)
(0.000793969 -4.4302e-07 7.99938e-08)
(0.000792185 -4.70447e-07 6.49745e-08)
(0.000790738 -2.89118e-07 5.98875e-08)
(0.000789824 1.6302e-07 8.6931e-08)
(0.000788821 2.32593e-07 4.70352e-08)
(0.000786816 4.0522e-07 1.07371e-07)
(0.000784873 2.53733e-07 3.34012e-08)
(0.000783252 3.71518e-07 1.99083e-08)
(0.000782424 6.42466e-07 9.53059e-08)
(0.000781403 2.33757e-07 1.27883e-07)
(0.000779569 4.29927e-08 2.75312e-08)
(0.000778086 6.10728e-09 7.99024e-08)
(0.000777134 -1.93436e-07 6.84023e-08)
(0.000775352 -3.64383e-07 -6.58847e-10)
(0.000773496 -1.88753e-07 4.4507e-08)
(0.000772147 -1.00095e-07 5.46017e-08)
(0.000770958 5.19741e-08 6.27818e-08)
(0.000769922 -1.08247e-07 5.9597e-08)
(0.000768155 -3.7768e-07 4.62117e-08)
(0.000766549 -3.33016e-07 1.63116e-08)
(0.00172147 0.00835489 -0.000848439)
(0.0057244 0.00646406 2.05248e-05)
(0.00572353 0.00483316 0.000142163)
(0.00227716 0.00351075 -0.000360533)
(0.00285421 0.00558341 0.000358179)
(-0.00772719 -0.00378033 0.000102789)
(0.000977231 -4.8747e-05 5.42285e-06)
(0.000430149 -6.37593e-05 -1.2385e-06)
(0.000850096 -5.56023e-05 -9.71894e-07)
(0.000794272 -4.3098e-05 -4.64338e-07)
(0.000814349 -2.69281e-05 1.8227e-07)
(0.00081523 -1.73927e-05 4.2326e-08)
(0.000817231 -1.10733e-05 6.16986e-08)
(0.000817383 -7.26089e-06 4.98836e-08)
(0.000816803 -4.57912e-06 5.19773e-08)
(0.000816033 -2.9554e-06 6.50208e-08)
(0.000815009 -1.81467e-06 5.09214e-08)
(0.000813565 -1.13341e-06 9.19981e-08)
(0.000812019 -5.36021e-07 7.24087e-08)
(0.000810537 -2.07523e-07 2.97208e-08)
(0.000809147 -1.27619e-07 1.70478e-08)
(0.000807531 -9.79821e-08 5.51332e-08)
(0.000806004 1.25421e-07 1.69631e-07)
(0.000804991 2.78447e-07 1.23355e-07)
(0.000803639 1.7748e-07 5.74181e-08)
(0.000801652 3.41766e-08 8.43604e-08)
(0.000799967 5.86064e-09 9.59397e-08)
(0.000798635 -1.57568e-07 4.4404e-08)
(0.000796917 -4.64373e-07 6.95547e-08)
(0.000795084 -3.75698e-07 -3.41688e-08)
(0.000793829 -2.80894e-07 -1.32357e-07)
(0.000792591 -4.83964e-08 2.23146e-08)
(0.0007915 5.39566e-07 1.21665e-07)
(0.000790051 6.82346e-07 7.39698e-08)
(0.000788222 2.64225e-07 4.55977e-08)
(0.000786795 4.61062e-08 3.2965e-08)
(0.000785467 1.86998e-07 6.12635e-08)
(0.000784252 3.86765e-07 6.58409e-09)
(0.0007823 7.0425e-07 1.31431e-08)
(0.000780416 3.49123e-07 2.74293e-07)
(0.000779232 1.66864e-07 6.01702e-08)
(0.000777802 2.5111e-08 6.28656e-08)
(0.000776235 -1.28017e-07 9.75869e-09)
(0.000775295 -4.75712e-07 6.20099e-08)
(0.000774113 -9.24661e-08 5.5672e-08)
(0.000772545 -1.43933e-08 5.56667e-08)
(0.00077107 3.61017e-07 5.25805e-08)
(0.000769466 7.69596e-08 -2.01485e-08)
(0.000768079 -8.88399e-08 -7.46914e-08)
(0.000767053 -1.67998e-07 1.10644e-07)
(0.000821534 0.00139062 0.00113045)
(-0.00309428 -0.00404621 8.97774e-06)
(-0.00172034 -0.00157587 7.36641e-05)
(-0.00254269 0.00551094 7.62856e-05)
(0.00245328 -0.00242798 -0.00105539)
(0.000735928 0.0111322 -4.27798e-05)
(0.000902581 -0.00061595 0.000101728)
(0.000477937 -6.69866e-05 -8.54937e-07)
(0.000886097 -7.70956e-05 -2.26296e-06)
(0.000824496 -4.86708e-05 -4.17719e-07)
(0.000833037 -3.06825e-05 1.50426e-07)
(0.000827284 -1.92497e-05 3.33257e-08)
(0.00082487 -1.20669e-05 5.50432e-08)
(0.000822241 -7.56998e-06 5.21718e-08)
(0.000819956 -4.7089e-06 5.24937e-08)
(0.000817923 -2.87947e-06 5.25098e-08)
(0.000816065 -1.89502e-06 5.56023e-08)
(0.000814519 -1.27677e-06 1.59757e-08)
(0.000812687 -9.99974e-07 -7.74088e-08)
(0.000810885 -5.44042e-07 3.70991e-08)
(0.000809423 -3.18238e-07 4.24638e-08)
(0.000808021 -1.1211e-07 4.85388e-08)
(0.000806593 5.81103e-08 2.27559e-08)
(0.000804674 1.41698e-07 1.05585e-07)
(0.000802929 -1.6831e-07 6.75462e-08)
(0.000801391 -2.47096e-07 1.56412e-08)
(0.000799774 -1.36529e-07 -4.51583e-08)
(0.000798129 -7.90809e-08 5.69204e-08)
(0.000796805 -1.30422e-07 -7.1799e-10)
(0.000795813 2.9449e-07 -1.31472e-08)
(0.000794382 4.54451e-07 2.35716e-07)
(0.000793211 4.99093e-07 5.2993e-08)
(0.000791649 4.48868e-07 -3.35019e-09)
(0.000789475 1.17276e-07 6.9986e-09)
(0.000788023 7.58955e-08 8.87693e-08)
(0.000786718 9.53899e-08 5.28229e-08)
(0.000785297 5.62566e-08 5.62287e-08)
(0.000783895 -7.31149e-08 5.30239e-08)
(0.000782373 -2.35798e-07 2.50921e-08)
(0.000780728 -6.47406e-08 1.05148e-07)
(0.000779162 3.05145e-08 7.67231e-08)
(0.000777718 1.56481e-07 4.61173e-08)
(0.00077651 4.72004e-07 7.69832e-08)
(0.000775399 5.83431e-07 1.03678e-07)
(0.000774076 3.16339e-07 9.68984e-08)
(0.000772715 3.12112e-07 1.24534e-07)
(0.000771073 2.93308e-07 1.45243e-08)
(0.00076936 4.33091e-07 7.54477e-08)
(0.000767854 2.47322e-07 5.66294e-08)
(0.000766867 1.39294e-07 1.20568e-07)
(-0.00379306 -0.00566082 7.70162e-05)
(-0.000820673 -0.00287704 8.18618e-05)
(-0.00152086 -0.00643884 -7.39889e-05)
(-0.000348551 0.00333892 -0.000108477)
(0.0114097 0.00481367 3.06832e-05)
(-0.0023284 -0.000455228 2.31725e-05)
(0.00194338 -0.0012001 -5.65303e-06)
(0.000430926 -6.54364e-05 2.29502e-05)
(0.000932423 -7.11338e-05 -1.51882e-06)
(0.000853112 -3.86406e-05 -3.78813e-07)
(0.000851384 -2.34721e-05 1.69434e-07)
(0.000838663 -1.39502e-05 -3.29018e-09)
(0.000831932 -8.66489e-06 5.68593e-08)
(0.000826644 -5.21179e-06 4.96331e-08)
(0.000822705 -3.03923e-06 4.75639e-08)
(0.000819575 -1.82521e-06 4.74905e-08)
(0.000817029 -1.18855e-06 4.73237e-08)
(0.000814695 -7.62455e-07 1.12532e-08)
(0.000812943 -7.28133e-07 3.02473e-08)
(0.000811395 -7.2699e-07 3.41082e-08)
(0.00080969 -4.19768e-07 6.25092e-08)
(0.000808003 -3.22236e-07 4.9818e-08)
(0.000806322 -3.53577e-07 2.56071e-08)
(0.000804709 -3.76065e-07 6.47498e-08)
(0.000803154 -2.33192e-07 2.49779e-08)
(0.000801694 -1.00416e-07 7.58166e-08)
(0.000800177 1.27038e-07 6.15945e-08)
(0.000798643 3.71225e-07 5.93515e-08)
(0.000797382 7.04523e-07 -8.06487e-09)
(0.000795812 4.93461e-07 3.65423e-08)
(0.00079408 3.48839e-07 6.81028e-08)
(0.000792579 4.78372e-07 -6.86823e-09)
(0.000791018 -9.51456e-08 4.8477e-08)
(0.000789583 -1.13259e-07 5.21098e-08)
(0.000788193 2.46908e-08 6.6964e-08)
(0.00078677 5.1083e-09 5.03942e-08)
(0.000785256 2.42444e-08 4.47359e-08)
(0.000783887 -1.08154e-07 4.81991e-08)
(0.000782311 -3.07326e-07 1.90444e-08)
(0.00078075 -3.47417e-07 -5.58473e-09)
(0.000779508 -1.49045e-07 4.58164e-08)
(0.000778351 7.89799e-08 1.03304e-07)
(0.000776765 2.06134e-07 8.21699e-08)
(0.000775096 1.48478e-07 4.90303e-08)
(0.000773769 2.80863e-08 3.98193e-08)
(0.000772513 5.4949e-09 4.47231e-08)
(0.000771218 8.41094e-09 7.55046e-08)
(0.000769406 2.55778e-07 4.5678e-08)
(0.000767707 1.47206e-07 4.70545e-08)
(0.000766569 2.45875e-07 1.62073e-07)
(0.00445555 0.0118119 -5.9631e-05)
(0.0102971 0.00705606 0.000249308)
(0.00296726 -0.00992993 -4.14207e-05)
(0.00212034 -0.00298096 0.000112644)
(0.00219924 0.00552176 9.07158e-05)
(-0.00222046 -0.0017609 -0.000275605)
(0.0015604 -0.00117552 1.79606e-06)
(0.000535758 -0.000117999 8.27406e-05)
(0.000957572 -1.92604e-05 -2.48479e-06)
(0.000883813 -7.20469e-06 -3.70826e-07)
(0.000864109 -3.98648e-06 7.94598e-08)
(0.000845918 -2.05819e-06 3.9699e-09)
(0.000835868 -8.93908e-07 1.0556e-07)
(0.000829318 -5.96707e-07 4.67796e-08)
(0.000824216 -5.38448e-07 1.83834e-08)
(0.000820252 -3.53309e-07 3.8429e-08)
(0.000817403 -1.327e-07 4.90842e-08)
(0.000815101 2.25125e-08 4.49294e-08)
(0.000812736 1.81611e-07 6.53178e-08)
(0.000811275 3.54149e-07 8.31875e-08)
(0.000809933 -3.2326e-07 7.2878e-08)
(0.000808108 3.74522e-08 3.27197e-07)
(0.00080653 7.6403e-08 4.77759e-08)
(0.000804828 1.06547e-07 9.98001e-08)
(0.000803276 1.19178e-07 8.87968e-08)
(0.000801843 -8.09385e-08 7.88707e-08)
(0.000800362 1.51952e-07 6.87414e-08)
(0.000798846 2.5733e-07 3.53976e-08)
(0.000796951 4.19712e-07 2.35803e-07)
(0.000795361 3.84132e-07 5.08002e-09)
(0.000794356 1.75055e-07 5.64189e-08)
(0.000792651 -1.77803e-07 3.49506e-08)
(0.000790907 1.65607e-08 7.39042e-08)
(0.000789624 1.39636e-09 5.03412e-08)
(0.000788171 3.27642e-08 3.98447e-08)
(0.000786717 -9.70753e-08 4.57653e-08)
(0.000785155 -2.04695e-07 -8.30194e-08)
(0.000783483 -1.51402e-07 7.43473e-08)
(0.000782076 -2.38797e-07 4.75664e-08)
(0.000780928 -2.17472e-07 7.56652e-08)
(0.000779696 -1.46747e-07 5.9347e-08)
(0.00077816 -2.03985e-07 7.82731e-08)
(0.000776595 -3.03351e-07 4.71806e-08)
(0.000775175 -1.75591e-07 6.87118e-08)
(0.000773896 -1.75379e-07 4.98425e-08)
(0.00077269 -2.78399e-07 4.85938e-08)
(0.000771385 -5.65375e-07 1.29197e-08)
(0.000769532 -8.89613e-07 4.46692e-08)
(0.000767835 -3.48189e-07 5.74396e-08)
(0.000766379 1.70629e-08 5.42251e-08)
(0.0286819 0.0146123 -0.00227326)
(-0.0143523 -0.00292748 -0.00102615)
(-0.000269511 0.00591566 0.000216822)
(-0.0100596 0.00317292 -0.00109092)
(-0.0038152 -0.00526086 0.000144908)
(0.00868076 -0.00102016 -0.00012752)
(0.00148696 -7.81027e-05 -7.47295e-06)
(0.000863979 4.95134e-05 2.43954e-05)
(0.000940677 6.07852e-05 -2.33991e-06)
(0.000873263 3.36215e-05 -2.56389e-07)
(0.000857853 2.04198e-05 1.35005e-07)
(0.000842549 1.21607e-05 1.29123e-07)
(0.00083377 7.61233e-06 -4.77315e-08)
(0.000827095 4.54046e-06 4.32833e-08)
(0.000823014 2.59427e-06 9.44685e-08)
(0.000820085 1.57451e-06 6.39782e-08)
(0.0008175 1.06263e-06 4.94103e-08)
(0.000815088 7.01453e-07 5.05142e-08)
(0.000813357 5.77302e-07 2.229e-08)
(0.000810764 9.0862e-07 1.63962e-09)
(0.000809294 1.01249e-06 1.48763e-07)
(0.000808503 5.14042e-07 1.07413e-07)
(0.000806408 2.58161e-07 1.25076e-07)
(0.000804761 1.96916e-07 7.95069e-08)
(0.00080292 2.43197e-07 5.82634e-08)
(0.000801734 2.73494e-07 1.77296e-09)
(0.0008006 5.2617e-08 3.9841e-08)
(0.000798976 -5.00437e-08 9.216e-09)
(0.000797538 2.1895e-07 2.77625e-08)
(0.000795504 -1.74977e-08 -3.5509e-08)
(0.000793376 -2.34053e-07 1.18827e-08)
(0.000792379 -3.25689e-07 1.00476e-07)
(0.000791242 -2.33965e-07 1.67727e-08)
(0.000789602 -1.78741e-07 5.01802e-08)
(0.00078807 -2.13316e-07 3.50306e-08)
(0.000786474 -1.32942e-07 4.79658e-08)
(0.00078519 -1.34767e-07 7.62034e-08)
(0.000783846 -5.26813e-08 4.91731e-08)
(0.000782231 9.84264e-08 6.0892e-08)
(0.000780867 -6.65723e-09 5.59893e-08)
(0.000779526 1.3933e-07 3.06205e-08)
(0.000778157 1.15447e-07 1.34843e-08)
(0.000776803 5.21597e-08 5.63054e-08)
(0.000775258 6.88642e-08 6.73307e-08)
(0.000773643 4.00682e-08 3.71396e-08)
(0.00077203 -1.50786e-07 4.49087e-08)
(0.000770459 -5.07532e-07 -6.96875e-08)
(0.000769682 -6.88024e-07 6.75143e-08)
(0.000768842 -4.64228e-07 9.04815e-08)
(0.000766984 -3.18397e-07 1.24841e-07)
(-0.0191371 -0.0023991 -0.00612158)
(-0.000417908 -0.0179465 0.00154096)
(-0.00243948 0.000611012 -0.00394247)
(-0.000578268 0.00146758 -0.00381789)
(0.0322993 -0.019268 -0.000635389)
(-0.000295684 0.0109433 -0.000117987)
(0.00103058 0.000542301 5.60312e-06)
(0.00050702 0.000176491 5.04488e-05)
(0.00089634 9.47853e-05 -1.63511e-06)
(0.000832073 5.46623e-05 -4.12924e-07)
(0.000837107 3.34043e-05 1.5202e-07)
(0.000829801 2.04098e-05 3.39693e-08)
(0.000826279 1.23346e-05 5.17506e-08)
(0.000823007 7.6835e-06 4.9838e-08)
(0.000820486 4.93516e-06 5.33346e-08)
(0.000818325 3.12001e-06 5.11171e-08)
(0.000816304 1.95701e-06 5.08869e-08)
(0.000814489 1.24448e-06 6.67325e-08)
(0.00081299 9.11006e-07 5.27253e-08)
(0.000811813 3.73217e-07 6.85306e-08)
(0.000809434 9.54918e-07 -3.7958e-08)
(0.00080716 4.28059e-07 4.47879e-08)
(0.000806131 4.70983e-07 2.91274e-08)
(0.000804807 1.96432e-07 5.21451e-08)
(0.00080337 1.9999e-07 3.4898e-09)
(0.000801603 3.26296e-07 9.48346e-08)
(0.000799957 -5.34599e-08 6.38731e-08)
(0.000799054 -3.04007e-07 4.84929e-08)
(0.000796993 -1.0696e-06 -7.92411e-08)
(0.000794796 -1.09467e-06 6.76518e-08)
(0.000793974 -6.82077e-07 -5.57995e-08)
(0.000792655 -1.31408e-07 1.52209e-07)
(0.000791093 -1.20851e-07 4.01028e-08)
(0.000789653 -1.08515e-07 6.56846e-08)
(0.00078823 -1.04757e-07 6.63679e-08)
(0.000786817 8.89056e-09 1.95064e-07)
(0.000785257 1.74918e-07 4.99807e-08)
(0.000783774 1.24747e-07 4.3977e-08)
(0.000782134 1.55056e-07 3.31819e-08)
(0.000780979 4.6682e-07 -2.46219e-08)
(0.000779848 2.70919e-07 4.18236e-08)
(0.000778051 2.20716e-07 5.2005e-09)
(0.000776537 9.8193e-08 6.33867e-08)
(0.00077516 -4.52806e-08 5.68481e-08)
(0.000773623 -8.23082e-08 -3.25851e-08)
(0.000772008 1.70827e-08 4.85667e-08)
(0.000770718 2.13367e-08 7.30218e-08)
(0.000769592 1.56605e-07 3.85052e-08)
(0.000768307 -2.23772e-07 3.29387e-08)
(0.000767356 -2.984e-07 -2.79913e-08)
(-0.000339551 0.0031287 0.000587012)
(-0.0125858 0.0124704 -0.000620736)
(0.00162817 -0.00612951 3.85807e-05)
(-0.000574978 -0.00076305 0.00113507)
(0.00895292 -0.00338161 0.000257172)
(0.00702504 -0.00274914 0.000450254)
(0.000869614 0.000665341 1.47283e-05)
(0.000358497 5.01808e-05 9.64575e-06)
(0.000834211 7.83405e-05 -1.65893e-06)
(0.000796499 4.9624e-05 -3.73152e-07)
(0.000814748 3.10297e-05 1.46122e-07)
(0.000816037 1.94223e-05 3.61898e-08)
(0.000817755 1.21223e-05 5.77994e-08)
(0.00081778 7.56402e-06 5.05525e-08)
(0.000817269 4.76286e-06 4.9999e-08)
(0.000816337 2.99052e-06 5.12365e-08)
(0.000815139 1.84381e-06 1.09721e-07)
(0.00081377 1.2386e-06 6.04354e-08)
(0.000812261 8.79864e-07 1.03249e-07)
(0.000810813 4.04341e-07 1.82936e-08)
(0.000809358 -1.80846e-07 4.60839e-08)
(0.000807894 7.93642e-08 6.08684e-08)
(0.000806116 -1.94424e-08 6.32909e-08)
(0.000804421 -1.13104e-08 4.66405e-08)
(0.00080308 -2.325e-07 5.57428e-08)
(0.000801417 -3.51076e-07 -1.36091e-07)
(0.000799812 -1.46177e-07 -7.6574e-08)
(0.000797709 -2.55585e-07 4.60359e-08)
(0.000796556 -5.77092e-07 1.9139e-07)
(0.000795995 6.86861e-09 8.17682e-08)
(0.000794585 3.34268e-07 1.04875e-07)
(0.000793084 8.30917e-08 5.6434e-08)
(0.000791272 6.21212e-08 4.8067e-08)
(0.000789624 1.00596e-07 4.85207e-08)
(0.000788218 4.90664e-08 6.00578e-08)
(0.000786824 -1.30077e-07 4.30699e-08)
(0.000785334 -2.17731e-07 5.66174e-08)
(0.000783821 -1.08068e-07 4.60215e-08)
(0.000782657 6.0687e-08 4.33769e-08)
(0.000781009 2.80859e-07 1.17921e-07)
(0.000779216 4.35225e-08 1.95906e-08)
(0.00077794 6.98304e-08 3.45063e-08)
(0.00077647 1.27339e-07 5.039e-08)
(0.000775033 3.37544e-08 3.95169e-08)
(0.000773722 -2.59196e-08 9.07268e-08)
(0.00077216 9.86299e-08 4.70051e-08)
(0.000770634 4.71267e-07 3.92161e-08)
(0.000769377 3.20563e-07 5.34758e-08)
(0.000768282 1.80549e-07 9.36797e-08)
(0.000767636 -5.20543e-08 -2.89658e-08)
(0.0126233 5.50523e-05 -0.000659893)
(0.000482367 -0.00520095 0.000807457)
(0.0109415 -0.00881198 0.00102452)
(0.00382063 -0.00458571 0.000887979)
(0.00630855 -0.0111009 -0.000243306)
(-0.00259606 -0.000384972 -0.000619132)
(0.000604266 -0.000216564 9.16708e-05)
(0.000395963 4.97147e-05 4.11426e-07)
(0.000800352 3.20215e-05 -1.18671e-06)
(0.000772245 2.72644e-05 -3.61787e-07)
(0.000799098 1.68766e-05 1.68554e-07)
(0.000806004 1.12743e-05 4.32371e-08)
(0.000811354 7.22611e-06 5.9283e-08)
(0.000813744 4.40327e-06 5.57206e-08)
(0.000814729 2.83626e-06 5.46962e-08)
(0.00081465 1.85278e-06 1.2006e-07)
(0.000814097 1.16174e-06 1.70193e-08)
(0.000813273 7.01413e-07 2.806e-07)
(0.00081194 4.18247e-07 3.15355e-09)
(0.000810484 5.42485e-07 7.14605e-08)
(0.000809026 1.53898e-07 4.80868e-08)
(0.000807363 -7.12559e-08 4.69195e-08)
(0.000806018 -2.83436e-07 2.2851e-08)
(0.000804543 -2.18238e-07 5.30582e-08)
(0.000802947 -2.75722e-07 3.41848e-08)
(0.000801713 -3.66002e-07 2.82674e-08)
(0.000800079 -1.96559e-07 2.45864e-08)
(0.000798519 -2.44587e-08 4.98061e-08)
(0.000797323 5.38633e-07 8.30989e-08)
(0.000795936 5.59645e-07 8.02908e-08)
(0.000794068 4.95592e-07 -1.79253e-09)
(0.000792313 2.80565e-07 1.18479e-07)
(0.000791115 -5.546e-08 -1.14732e-08)
(0.000789635 -1.73178e-07 6.01794e-08)
(0.000787942 -2.36496e-07 2.69907e-08)
(0.000786484 -4.12425e-07 6.09777e-08)
(0.000785286 -2.80213e-07 6.32098e-08)
(0.000784123 -2.71748e-07 4.67853e-08)
(0.000782619 -3.22928e-07 7.29155e-08)
(0.000780956 -4.18364e-07 3.61886e-08)
(0.000779583 -1.97679e-07 5.68023e-08)
(0.000778156 -1.79319e-07 -4.63352e-09)
(0.000776491 -7.34098e-08 3.90952e-08)
(0.000774968 1.82347e-09 3.93361e-08)
(0.000773703 1.30101e-07 6.3372e-08)
(0.000772628 4.93004e-08 5.25811e-08)
(0.000770992 1.98757e-07 2.54012e-08)
(0.000769225 4.08163e-07 3.83962e-08)
(0.00076784 7.02319e-07 -7.34661e-08)
(0.000767192 4.75058e-07 8.865e-08)
(0.00651357 -0.00210959 -0.000175318)
(-0.000833872 -0.00379628 6.02323e-05)
(0.00681698 -0.00646913 -0.000425633)
(-0.0203667 -0.0101714 0.000950677)
(0.0254234 0.0284859 0.000509022)
(-0.00103037 1.42567e-05 -7.89591e-05)
(0.000807979 1.71926e-05 1.90219e-06)
(0.000735428 7.43753e-06 -2.26087e-06)
(0.000753422 -1.39674e-05 2.50212e-08)
(0.000777331 -1.50288e-06 2.73368e-09)
(0.000794624 -1.04902e-06 1.12877e-07)
(0.000803885 -2.40042e-07 3.27835e-07)
(0.000809108 3.57145e-09 6.55713e-08)
(0.000812255 3.68202e-07 7.61211e-08)
(0.000814057 2.61226e-07 5.43001e-08)
(0.000814228 2.15574e-07 2.8513e-08)
(0.00081369 9.67774e-08 4.44613e-08)
(0.000812834 -4.41787e-08 6.9539e-08)
(0.000812057 -1.93012e-07 8.46569e-09)
(0.000810479 -3.78449e-07 -2.28062e-08)
(0.000808589 -2.84262e-07 7.94236e-08)
(0.000807348 -1.73188e-07 5.42481e-08)
(0.000805934 -1.05631e-08 5.16732e-08)
(0.000804433 -8.79876e-08 4.88062e-08)
(0.000802899 4.50153e-08 5.18334e-08)
(0.000801518 1.43821e-07 8.8018e-08)
(0.000800241 -3.93381e-08 4.51068e-08)
(0.000798628 9.19716e-08 4.72537e-08)
(0.000797284 1.17992e-07 3.00291e-08)
(0.000795938 -1.07134e-07 3.29058e-08)
(0.000794233 -1.6816e-07 9.89118e-08)
(0.000792394 -1.87379e-07 7.23359e-09)
(0.000790705 -2.72577e-07 -1.04641e-07)
(0.000789399 -4.90942e-07 4.09469e-08)
(0.000787921 -1.24666e-07 3.75714e-08)
(0.000786772 2.11805e-07 -1.71021e-08)
(0.000785512 1.41256e-07 5.01146e-08)
(0.000783769 -1.17861e-07 4.85106e-08)
(0.000782477 -5.56037e-07 5.37842e-08)
(0.000781169 -2.75908e-07 5.94062e-08)
(0.000779518 -2.00672e-07 5.50717e-08)
(0.000778096 -2.89368e-07 8.45235e-08)
(0.000776697 -2.57616e-07 7.93671e-08)
(0.000775287 2.24616e-07 3.18994e-08)
(0.00077378 5.02312e-08 -2.60785e-08)
(0.000772243 6.10545e-08 2.33607e-08)
(0.000771078 -3.33163e-07 1.08546e-07)
(0.000770001 3.47229e-08 2.72425e-08)
(0.000768351 2.25313e-07 7.79273e-09)
(0.000766167 2.92575e-07 6.69086e-08)
(0.00913366 -0.00978192 0.000660004)
(-0.00193012 -0.000247481 -0.000901984)
(0.017532 0.000538344 0.003324)
(0.049635 -0.0232322 0.00763443)
(-0.00473051 -0.00566174 -0.000582366)
(0.00229776 -0.00106871 -0.000572085)
(0.000511928 -0.000256124 2.48218e-05)
(0.00130087 -0.000123252 3.12696e-07)
(0.00129482 -4.28537e-05 2.99966e-07)
(0.00131963 -4.02751e-05 4.45981e-07)
(0.00133866 -2.41938e-05 3.8081e-07)
(0.00134876 -1.62231e-05 2.82049e-07)
(0.00135615 -1.0343e-05 2.59473e-07)
(0.00135904 -6.15744e-06 3.51168e-07)
(0.0013596 -3.96638e-06 3.47496e-07)
(0.00135932 -2.72404e-06 2.69853e-07)
(0.00135813 -1.72254e-06 3.41992e-07)
(0.00135666 -1.09374e-06 3.73141e-07)
(0.00135428 -8.32311e-07 3.91873e-07)
(0.00135222 -1.123e-06 4.14291e-07)
(0.00135042 -7.07326e-07 3.78021e-07)
(0.00134779 -3.38559e-07 4.08605e-07)
(0.00134514 -4.13626e-07 3.66e-07)
(0.00134265 -2.64222e-07 2.93123e-07)
(0.00134035 3.17263e-07 2.34541e-07)
(0.00133766 7.03486e-07 3.32822e-07)
(0.00133506 4.45496e-07 3.5958e-07)
(0.00133297 2.42604e-07 3.39829e-07)
(0.00133012 3.70586e-07 3.56882e-07)
(0.0013275 -3.145e-07 3.3917e-07)
(0.00132492 -8.63724e-07 3.66138e-07)
(0.00132195 -8.29244e-07 2.5772e-07)
(0.00131959 -4.83728e-07 2.88446e-07)
(0.00131811 2.17737e-07 3.06953e-07)
(0.00131637 4.05064e-07 3.24889e-07)
(0.0013131 6.66731e-07 4.14937e-07)
(0.00130983 4.39228e-07 3.19204e-07)
(0.00130711 6.12932e-07 2.34163e-07)
(0.00130566 1.06451e-06 3.04843e-07)
(0.00130396 4.76555e-07 4.0301e-07)
(0.00130102 9.38082e-08 2.89264e-07)
(0.00129853 6.58933e-09 3.33455e-07)
(0.00129694 -3.91171e-07 3.05962e-07)
(0.00129399 -5.76283e-07 2.04653e-07)
(0.00129097 -3.18512e-07 3.29341e-07)
(0.0012887 -2.27993e-07 3.38418e-07)
(0.00128662 1.70573e-08 2.92216e-07)
(0.0012849 -2.54653e-07 3.27359e-07)
(0.00128194 -6.2123e-07 3.52995e-07)
(0.00127919 -5.36092e-07 2.47348e-07)
(-0.00530614 -0.0144963 0.00012296)
(-0.00727339 0.000890798 -1.82021e-05)
(0.00477955 -0.00208432 0.000209631)
(-0.00913946 0.00597753 -0.000397569)
(-0.0128109 -0.0152733 0.000632555)
(-0.00257674 -0.0064828 0.00141796)
(0.000474416 -0.000581668 -2.87333e-05)
(0.001293 -0.000168158 6.45933e-08)
(0.00141991 -8.55848e-05 4.07738e-07)
(0.00132663 -6.73118e-05 3.32174e-07)
(0.00135962 -4.21159e-05 3.39235e-07)
(0.00136091 -2.72664e-05 3.39495e-07)
(0.00136406 -1.73884e-05 3.4127e-07)
(0.0013642 -1.14269e-05 3.408e-07)
(0.00136317 -7.21775e-06 3.40967e-07)
(0.00136181 -4.66131e-06 2.98276e-07)
(0.00136005 -2.89057e-06 3.41792e-07)
(0.00135761 -1.85214e-06 4.34735e-07)
(0.00135504 -9.4138e-07 3.86553e-07)
(0.00135259 -3.5752e-07 3.09563e-07)
(0.00135026 -1.50475e-07 -4.73231e-08)
(0.00134756 -1.21459e-07 3.22306e-07)
(0.001345 3.19901e-07 7.94587e-07)
(0.0013433 5.2807e-07 5.44607e-07)
(0.00134101 3.98266e-07 3.27804e-07)
(0.00133768 1.29461e-07 4.25786e-07)
(0.00133485 6.15767e-08 5.34715e-07)
(0.00133263 -2.70254e-07 3.33363e-07)
(0.00132979 -9.01949e-07 2.98111e-07)
(0.00132674 -6.95085e-07 -5.60258e-08)
(0.00132472 -5.09953e-07 4.76905e-08)
(0.00132272 -1.48534e-07 2.75501e-07)
(0.00132082 9.07133e-07 4.87761e-07)
(0.00131847 1.1266e-06 4.48659e-07)
(0.00131549 4.35044e-07 3.33733e-07)
(0.00131301 6.92262e-08 3.16842e-07)
(0.00131077 2.8395e-07 3.39089e-07)
(0.00130872 6.28736e-07 7.3174e-08)
(0.00130557 1.14502e-06 3.52054e-07)
(0.00130244 6.33664e-07 6.04805e-07)
(0.00130036 2.71737e-07 3.4078e-07)
(0.00129798 1.52264e-08 3.67195e-07)
(0.00129547 -2.46041e-07 2.34525e-07)
(0.00129394 -8.20766e-07 3.82594e-07)
(0.00129186 -2.07566e-07 3.47703e-07)
(0.00128928 -1.19699e-07 3.44155e-07)
(0.00128687 5.30726e-07 3.19327e-07)
(0.0012842 8.47501e-08 2.35291e-07)
(0.00128186 -2.17797e-07 6.73386e-08)
(0.00128012 -3.03801e-07 4.08156e-07)
(0.0105088 -0.0197505 -0.000242737)
(0.0113388 -0.0117343 0.000884424)
(0.00452505 -0.000775417 0.000234354)
(0.00987238 0.00181977 -5.67848e-05)
(0.00308107 -0.00450649 -0.00148944)
(0.00105006 -0.00762127 0.00100692)
(0.000761587 -0.000682115 -1.19452e-05)
(0.00142392 -0.00018545 1.98177e-06)
(0.00147605 -0.000122426 -3.78163e-07)
(0.0013744 -7.71702e-05 3.39805e-07)
(0.00138904 -4.85702e-05 3.46968e-07)
(0.00137989 -3.04443e-05 3.44784e-07)
(0.00137609 -1.90757e-05 3.43921e-07)
(0.00137184 -1.19682e-05 3.43581e-07)
(0.00136811 -7.45477e-06 3.42527e-07)
(0.00136476 -4.57895e-06 3.40285e-07)
(0.00136166 -3.01816e-06 3.40863e-07)
(0.00135912 -2.04307e-06 2.1373e-07)
(0.00135615 -1.62978e-06 2.13145e-07)
(0.00135322 -9.04109e-07 3.24409e-07)
(0.00135071 -5.66243e-07 2.74235e-07)
(0.00134837 -2.15995e-07 3.35587e-07)
(0.00134595 8.00887e-08 3.03409e-07)
(0.00134275 2.22001e-07 3.6496e-07)
(0.00133984 -3.36724e-07 3.88409e-07)
(0.00133723 -3.8011e-07 2.91585e-07)
(0.00133456 -2.07189e-07 2.24945e-07)
(0.00133177 -9.43206e-08 3.26176e-07)
(0.0013296 -1.73564e-07 2.23599e-07)
(0.001328 5.68253e-07 2.73686e-07)
(0.0013256 8.86814e-07 5.22937e-07)
(0.00132372 9.0216e-07 4.86069e-07)
(0.00132118 7.61985e-07 2.28302e-07)
(0.00131751 2.63791e-07 1.87161e-07)
(0.00131505 1.11481e-07 3.74257e-07)
(0.00131291 1.29596e-07 3.39241e-07)
(0.00131053 1.00902e-07 2.84258e-07)
(0.00130818 -8.48254e-08 3.53616e-07)
(0.00130566 -3.26066e-07 3.09574e-07)
(0.00130287 -1.10091e-07 4.09875e-07)
(0.00130024 5.75271e-08 3.7945e-07)
(0.00129788 2.92025e-07 3.69486e-07)
(0.0012959 8.42472e-07 3.35117e-07)
(0.00129404 1.00366e-06 4.71522e-07)
(0.00129185 5.95962e-07 3.21224e-07)
(0.00128963 5.76418e-07 4.2876e-07)
(0.00128688 5.19521e-07 3.22692e-07)
(0.00128396 6.95681e-07 3.51247e-07)
(0.00128146 3.84429e-07 3.32697e-07)
(0.00127983 2.19874e-07 5.17984e-07)
(-0.0058032 -0.00387297 -0.00080242)
(0.0010475 0.0012358 -0.00410818)
(0.00335663 -0.00590484 -0.000435801)
(-0.007063 0.00648777 0.000623265)
(-0.00845205 0.0024583 -0.000283013)
(-0.000487097 0.00786346 -0.00242463)
(-0.000221529 -0.00156296 1.49829e-05)
(0.00114192 -0.000190416 3.82124e-05)
(0.00155172 -0.000114701 3.18553e-07)
(0.00142035 -6.1892e-05 2.91013e-07)
(0.00141843 -3.74845e-05 3.54706e-07)
(0.00139803 -2.22124e-05 3.19606e-07)
(0.00138731 -1.37833e-05 3.46907e-07)
(0.00137882 -8.28015e-06 3.45177e-07)
(0.00137247 -4.83294e-06 3.43257e-07)
(0.0013674 -2.89995e-06 3.41866e-07)
(0.00136324 -1.87897e-06 3.40166e-07)
(0.00135937 -1.17247e-06 2.57821e-07)
(0.00135648 -1.14211e-06 3.30664e-07)
(0.00135393 -1.16912e-06 3.05273e-07)
(0.00135113 -7.28861e-07 2.44241e-07)
(0.00134837 -5.52806e-07 3.3759e-07)
(0.00134555 -6.74301e-07 3.20994e-07)
(0.00134279 -6.43324e-07 3.64036e-07)
(0.00134026 -4.41016e-07 2.78273e-07)
(0.00133784 -1.92746e-07 5.60081e-07)
(0.00133521 2.15828e-07 3.99287e-07)
(0.00133267 6.56584e-07 3.89698e-07)
(0.00133062 1.31569e-06 2.883e-07)
(0.00132805 9.59068e-07 3.08178e-07)
(0.00132512 7.38731e-07 3.64973e-07)
(0.00132256 9.41695e-07 2.32683e-07)
(0.00132001 -5.72829e-08 3.18953e-07)
(0.00131765 -1.62104e-07 3.3532e-07)
(0.00131532 5.85231e-08 3.43522e-07)
(0.00131299 7.94053e-09 3.2051e-07)
(0.0013105 3.97277e-09 3.18195e-07)
(0.00130819 -1.83099e-07 3.36366e-07)
(0.00130554 -5.56822e-07 2.05764e-07)
(0.00130292 -5.97777e-07 2.16395e-07)
(0.00130086 -2.05604e-07 3.15733e-07)
(0.00129895 1.85034e-07 3.87913e-07)
(0.00129635 4.15904e-07 4.28929e-07)
(0.00129362 3.16583e-07 3.04372e-07)
(0.00129132 8.28616e-08 3.18908e-07)
(0.00128918 1.93535e-08 3.22359e-07)
(0.00128701 -1.75372e-08 3.7268e-07)
(0.00128403 3.66131e-07 3.07388e-07)
(0.00128126 2.58596e-07 3.5022e-07)
(0.00127936 4.08967e-07 5.38072e-07)
(-0.000733963 0.0228966 -9.72854e-05)
(-0.00669475 -0.00290037 0.0517566)
(-0.0046857 -0.00747103 0.000245125)
(0.00285782 -0.00747594 -0.000551007)
(-0.00406918 0.00186968 0.00144215)
(0.00392428 -0.0106284 -0.000258165)
(0.000757744 -0.00178692 -8.54882e-05)
(0.00191411 -6.46886e-05 0.000109502)
(0.00159177 -3.08103e-05 7.97007e-07)
(0.00147025 -1.15893e-05 3.71208e-07)
(0.00143898 -6.44952e-06 3.78224e-07)
(0.00140971 -3.34434e-06 3.57236e-07)
(0.00139362 -1.45985e-06 4.55066e-07)
(0.0013831 -9.72324e-07 3.46473e-07)
(0.00137488 -8.6569e-07 3.5114e-07)
(0.00136848 -5.73409e-07 3.57072e-07)
(0.00136384 -2.29805e-07 3.42203e-07)
(0.00136005 3.61189e-09 3.34758e-07)
(0.00135617 2.80881e-07 3.2564e-07)
(0.00135374 5.38252e-07 3.02152e-07)
(0.00135149 -4.54579e-07 3.72909e-07)
(0.00134845 7.26373e-08 8.44023e-07)
(0.00134585 1.15336e-07 3.24108e-07)
(0.00134304 1.46769e-07 3.83142e-07)
(0.00134041 2.16323e-07 2.83859e-07)
(0.00133806 -1.82021e-07 3.80147e-07)
(0.00133562 2.28995e-07 3.87411e-07)
(0.00133313 4.26098e-07 3.03318e-07)
(0.00132997 7.12065e-07 5.12474e-07)
(0.00132726 6.38942e-07 2.50043e-07)
(0.00132557 2.99796e-07 3.57332e-07)
(0.00132272 -2.66554e-07 2.85152e-07)
(0.0013198 9.64529e-08 4.25434e-07)
(0.00131766 3.96998e-08 3.29693e-07)
(0.00131526 8.62127e-08 2.87138e-07)
(0.00131284 -1.53669e-07 3.2599e-07)
(0.00131029 -3.54218e-07 2.13559e-07)
(0.00130748 -3.12371e-07 2.85332e-07)
(0.00130514 -4.36295e-07 3.22474e-07)
(0.00130331 -3.81887e-07 1.7501e-07)
(0.00130122 -2.27756e-07 3.40316e-07)
(0.00129866 -3.22223e-07 3.36761e-07)
(0.00129606 -4.92777e-07 3.17917e-07)
(0.00129362 -3.37528e-07 3.57576e-07)
(0.00129148 -3.93186e-07 3.23174e-07)
(0.0012895 -5.05226e-07 3.21192e-07)
(0.00128731 -9.74876e-07 1.14461e-07)
(0.00128431 -1.42703e-06 2.85864e-07)
(0.0012815 -5.55916e-07 4.06835e-07)
(0.001279 4.79694e-08 3.40059e-07)
(-0.0238962 -0.0282549 -0.014382)
(-0.0551795 -0.0119025 -0.00859661)
(0.00339657 -0.0273504 -0.0045017)
(-0.0025382 0.00858739 0.00162044)
(0.0171604 -0.0269944 0.00210382)
(0.00395985 -0.00690275 0.00582518)
(0.00326768 0.00177343 -3.37261e-05)
(0.00103217 0.000242121 1.6089e-05)
(0.00156263 9.75076e-05 7.6226e-07)
(0.00145284 5.37483e-05 3.99855e-07)
(0.00142879 3.25121e-05 3.62687e-07)
(0.0014043 1.92905e-05 4.66755e-07)
(0.0013903 1.20634e-05 2.32557e-07)
(0.00137958 7.18243e-06 3.44764e-07)
(0.00137298 4.10394e-06 5.44815e-07)
(0.0013682 2.48325e-06 3.4581e-07)
(0.00136397 1.66397e-06 3.41132e-07)
(0.00136 1.07667e-06 3.32439e-07)
(0.00135715 8.9252e-07 3.11112e-07)
(0.00135301 1.44263e-06 3.63486e-07)