/*--------------------------------*- C++ -*----------------------------------*\
| =========                 |                                                 |
| \\      /  F ield         | OpenFOAM: The Open Source CFD Toolbox           |
|  \\    /   O peration     | Version:  5.0                                   |
|   \\  /    A nd           | Web:      www.OpenFOAM.org                      |
|    \\/     M anipulation  |                                                 |
\*---------------------------------------------------------------------------*/
FoamFile
{
    version     2.0;
    format      ascii;
    class       volVectorField;
    location    "4.1";
    object      U_0;
}
// * * * * * * * * * * * * * * * * * * * * * * * * * * * * * * * * * * * * * //

dimensions      [0 1 -1 0 0 0 0];

internalField   nonuniform List<vector> 
7758
(
(-0.00385789 -0.00514133 0.000245024)
(-0.00833479 0.00148444 -0.000290902)
(-0.00201557 0.000249445 0.00171174)
(-0.0021809 0.00479195 -0.000777688)
(-0.00513392 -0.00469998 0.000303484)
(0.000398594 0.00464754 -0.000149964)
(0.000491966 2.14214e-05 2.91804e-05)
(0.000829103 -2.96304e-05 -2.16778e-06)
(0.00081355 -2.48245e-06 -1.53268e-07)
(0.000816514 -1.14491e-05 3.95004e-08)
(0.000821059 -7.27277e-06 1.08213e-07)
(0.000822734 -5.40901e-06 7.45647e-08)
(0.000824172 -3.5645e-06 -3.36757e-09)
(0.000824185 -2.21189e-06 4.31425e-08)
(0.000823562 -1.44333e-06 5.13661e-08)
(0.000822812 -9.71305e-07 5.1047e-09)
(0.000821795 -6.95795e-07 5.60075e-08)
(0.000820804 -5.50425e-07 5.35214e-08)
(0.000818989 -5.50771e-07 5.10799e-08)
(0.000817028 -3.50643e-07 1.55297e-07)
(0.000815958 -3.35768e-07 5.34053e-08)
(0.000814615 -6.71161e-08 7.88186e-08)
(0.000813019 -2.54699e-07 1.32329e-08)
(0.000811422 -2.80265e-08 5.05117e-08)
(0.000809921 2.32458e-07 7.1405e-08)
(0.000808489 3.47943e-07 4.92062e-08)
(0.000807128 2.14741e-07 7.02974e-08)
(0.000805952 8.8035e-08 4.85992e-08)
(0.000803817 1.73886e-07 2.66343e-08)
(0.000801773 -1.31181e-07 1.71831e-07)
(0.000800621 -6.3032e-07 -5.55435e-08)
(0.000799026 -5.07059e-07 -1.3306e-08)
(0.000797598 -2.82179e-07 9.89644e-08)
(0.000796502 -1.6452e-07 3.83206e-08)
(0.000795148 8.59648e-08 4.67697e-08)
(0.000793619 5.10173e-08 7.80495e-08)
(0.000791687 2.30117e-07 8.92798e-08)
(0.000789924 1.84848e-07 3.97861e-08)
(0.000788609 3.76634e-07 3.7433e-08)
(0.000787527 4.3694e-07 6.88746e-08)
(0.000786366 5.42799e-08 3.11753e-08)
(0.000784799 -5.15584e-08 5.39472e-08)
(0.000783481 -6.01291e-07 1.24518e-07)
(0.000781843 -3.74407e-07 2.41418e-07)
(0.000780291 -1.39717e-07 6.06351e-08)
(0.000778888 -1.86276e-07 7.12833e-08)
(0.000777455 -2.55581e-07 6.32231e-08)
(0.000776231 -4.88697e-07 1.49099e-07)
(0.000774522 -3.04011e-07 -2.24097e-08)
(0.00077274 -2.23089e-07 6.23662e-08)
(0.00182962 0.00884412 -0.000862553)
(0.00565476 0.00639267 4.10574e-05)
(0.00557703 0.00444459 0.00016028)
(0.00205129 0.00338788 -0.000341324)
(0.00236955 0.00559574 0.000353728)
(-0.00791841 -0.00346583 0.000122297)
(0.00098472 4.42429e-05 4.40812e-06)
(0.000436577 -2.60135e-05 -9.00225e-07)
(0.000863597 -2.10179e-05 -9.93935e-07)
(0.000807304 -2.17343e-05 -4.49004e-07)
(0.000826126 -1.37594e-05 1.81181e-07)
(0.000825648 -9.2841e-06 4.48649e-08)
(0.000826511 -6.08409e-06 6.33543e-08)
(0.000825902 -4.05005e-06 5.2771e-08)
(0.00082493 -2.58413e-06 5.36286e-08)
(0.00082364 -1.63612e-06 1.10411e-07)
(0.000822149 -1.08702e-06 5.02022e-08)
(0.000820555 -7.59963e-07 -3.14813e-10)
(0.000819269 -6.73979e-07 6.18759e-08)
(0.000817888 -2.34501e-07 2.87053e-08)
(0.000816185 1.786e-07 8.08863e-08)
(0.000814361 1.22317e-07 4.76228e-08)
(0.000812985 5.34256e-07 8.76904e-08)
(0.000811978 3.53806e-07 1.09359e-07)
(0.000810327 4.03929e-07 -3.36211e-08)
(0.000808427 1.79849e-07 7.49544e-08)
(0.00080671 6.24243e-08 1.04846e-07)
(0.000805228 -1.99377e-07 5.00759e-08)
(0.000803672 -8.67751e-07 7.0794e-08)
(0.000801722 -6.04011e-07 7.70535e-09)
(0.000800342 -4.84632e-07 1.31387e-07)
(0.000799348 -2.83332e-07 2.54757e-08)
(0.00079799 2.70967e-07 1.72691e-07)
(0.000796718 4.35656e-07 2.58229e-07)
(0.00079508 9.41608e-08 4.73421e-08)
(0.000793334 6.17693e-09 3.38813e-08)
(0.00079198 -6.53865e-08 4.39973e-08)
(0.00079054 1.36074e-07 5.70221e-08)
(0.000788989 2.96111e-07 3.81379e-08)
(0.000787287 3.98105e-07 4.46607e-09)
(0.000785756 1.16238e-07 5.62576e-08)
(0.00078426 -9.14941e-08 6.64797e-08)
(0.000783038 -3.33893e-07 7.42549e-08)
(0.000782134 -4.80356e-07 2.14312e-08)
(0.000780441 -2.60197e-07 3.68085e-08)
(0.000778786 -2.03929e-07 5.59983e-08)
(0.000777496 8.0361e-09 7.00866e-08)
(0.000776108 -1.58893e-07 4.53848e-08)
(0.000774509 -3.81646e-07 8.73506e-08)
(0.000773477 -2.37908e-07 3.03973e-08)
(0.000736971 0.00147453 0.00112148)
(-0.0032376 -0.00389917 -5.5147e-06)
(-0.00197146 -0.00143192 6.53186e-05)
(-0.00274385 0.00543329 7.29304e-05)
(0.00171018 -0.00216452 -0.000921206)
(0.000739095 0.0127929 -4.65403e-05)
(0.000849427 -0.000519233 0.000101824)
(0.000463343 -4.39831e-05 -9.79647e-07)
(0.00088278 -4.83195e-05 -2.21942e-06)
(0.000825747 -2.9293e-05 -4.08074e-07)
(0.000836779 -1.79477e-05 1.53805e-07)
(0.000832431 -1.10782e-05 3.63672e-08)
(0.000830783 -6.89616e-06 5.79297e-08)
(0.000828604 -4.32632e-06 5.37428e-08)
(0.000826609 -2.73124e-06 5.32812e-08)
(0.000824702 -1.75824e-06 5.30795e-08)
(0.000822904 -1.13026e-06 5.73346e-08)
(0.000821329 -6.82405e-07 1.01742e-07)
(0.000819652 -5.19651e-07 1.31205e-07)
(0.000818096 -3.616e-07 4.24305e-08)
(0.000816404 -3.97953e-07 4.54845e-08)
(0.000815058 -1.39087e-07 4.86387e-08)
(0.000813306 1.09356e-07 2.22995e-08)
(0.000811256 1.79741e-08 -4.42883e-08)
(0.000809701 -3.03224e-07 6.32573e-08)
(0.00080806 -1.07378e-07 2.86534e-08)
(0.000806654 -2.04316e-07 2.67581e-08)
(0.000804792 -1.5678e-07 6.50775e-08)
(0.000803315 -1.18983e-07 -4.28119e-08)
(0.000802258 2.79756e-07 9.87367e-08)
(0.000801025 6.98978e-07 9.11485e-08)
(0.000799971 6.52958e-07 6.27088e-08)
(0.000798495 4.36031e-07 2.88478e-07)
(0.000796277 3.2162e-07 1.30502e-07)
(0.000794609 3.07686e-08 8.89138e-08)
(0.000793419 9.3481e-08 5.44048e-08)
(0.000791849 9.13409e-08 6.37759e-08)
(0.000790373 5.92781e-08 5.22852e-08)
(0.000788933 1.11878e-07 4.55494e-08)
(0.000787299 2.88741e-08 2.66527e-08)
(0.000785753 9.95348e-08 6.73364e-08)
(0.000784237 1.98071e-07 -6.16349e-08)
(0.000782998 5.05959e-07 1.95796e-07)
(0.000781938 3.95908e-07 9.54657e-08)
(0.00078064 6.83625e-08 5.84778e-08)
(0.000779224 1.63154e-07 5.59743e-08)
(0.000777513 2.96104e-07 7.07173e-08)
(0.000775745 1.43023e-07 7.58105e-08)
(0.00077443 7.14763e-08 5.59526e-08)
(0.000773512 7.26823e-08 7.15527e-08)
(-0.00357111 -0.00505781 5.75031e-05)
(-0.000456681 -0.002322 9.17413e-05)
(-0.00146213 -0.00607076 -5.91215e-05)
(-0.000647542 0.00298608 -0.000108383)
(0.0115524 0.00480245 2.29502e-05)
(-0.00236442 -0.000541833 2.38727e-05)
(0.00192319 -0.00118515 -7.32741e-06)
(0.000428166 -5.93902e-05 2.265e-05)
(0.000920932 -4.97285e-05 -1.41413e-06)
(0.000845947 -2.475e-05 -1.25767e-07)
(0.000849097 -1.44648e-05 1.77848e-07)
(0.00083959 -8.23848e-06 -2.12485e-07)
(0.000835031 -5.01459e-06 5.76681e-08)
(0.000831158 -2.98364e-06 5.17696e-08)
(0.000828172 -1.76971e-06 5.07601e-08)
(0.000825662 -1.08248e-06 5.08166e-08)
(0.000823507 -7.00735e-07 5.0153e-08)
(0.000821328 -4.43219e-07 4.40837e-08)
(0.000819677 -4.3913e-07 3.20047e-08)
(0.000818045 -4.80847e-07 2.90057e-08)
(0.000816467 -4.70824e-07 7.86167e-08)
(0.000814998 -4.41813e-07 5.1775e-08)
(0.000813182 -7.28968e-07 -1.27731e-08)
(0.000811464 -3.81004e-07 2.72332e-08)
(0.000810172 -3.4239e-07 3.10137e-07)
(0.000808552 -1.69386e-07 6.39747e-08)
(0.000806649 7.19872e-08 6.2311e-08)
(0.000805336 2.12233e-07 7.93558e-08)
(0.000804216 7.86569e-07 8.22804e-08)
(0.000802741 7.2902e-07 3.05408e-08)
(0.000800803 7.70433e-07 1.892e-08)
(0.000799013 6.90231e-07 -5.55466e-08)
(0.000797571 1.03311e-07 4.068e-08)
(0.00079621 -1.24505e-07 5.12575e-08)
(0.000794793 7.7891e-08 5.70637e-08)
(0.000793409 2.24344e-09 1.08751e-07)
(0.000791936 -5.32952e-08 1.14716e-07)
(0.000790565 -3.02528e-08 3.58491e-08)
(0.000788951 -3.44066e-07 2.9517e-09)
(0.000787272 -2.03865e-07 -9.15709e-08)
(0.000785967 3.74645e-08 5.79715e-08)
(0.000784766 1.13913e-07 6.9719e-08)
(0.000783281 3.02907e-07 9.45578e-08)
(0.000781583 2.30533e-07 -6.43256e-08)
(0.000780147 5.13334e-08 3.65241e-08)
(0.000779068 -3.68714e-08 4.20631e-08)
(0.000777468 -1.03462e-07 8.61164e-08)
(0.000775825 4.10941e-08 2.66368e-08)
(0.000774418 2.76077e-07 4.34487e-08)
(0.000773297 2.19365e-07 4.81222e-08)
(0.00494011 0.0142266 -0.000203375)
(0.00946668 0.00728513 -1.45465e-05)
(0.00402506 -0.0102222 5.25408e-05)
(-0.00020127 -0.00358193 -0.000187487)
(0.0010109 0.00524019 7.16136e-05)
(-0.00124527 -0.00210427 -0.000284756)
(0.00160096 -0.00107258 1.47483e-06)
(0.000537155 -0.000104491 8.11693e-05)
(0.000935909 -9.16706e-06 -2.39471e-06)
(0.000869515 -2.12117e-06 -3.0924e-07)
(0.000857592 -1.367e-06 8.57815e-08)
(0.000844347 -6.51349e-07 -1.2379e-08)
(0.000837412 -1.95017e-07 1.63565e-07)
(0.000832697 -1.45179e-07 4.82859e-08)
(0.000829007 -1.64387e-07 1.78767e-08)
(0.000826051 -1.42465e-07 4.67515e-08)
(0.00082371 -8.46183e-08 4.91267e-08)
(0.000821661 -3.99554e-08 4.85265e-08)
(0.000819609 6.50434e-08 1.57022e-07)
(0.000818061 5.48085e-08 1.2617e-09)
(0.000816458 6.67477e-08 6.92389e-08)
(0.00081474 1.2204e-07 9.21697e-08)
(0.000813386 9.64942e-09 1.07112e-07)
(0.000811743 7.34798e-08 1.02942e-07)
(0.000809968 1.39155e-07 1.4169e-07)
(0.000808579 -1.20849e-07 4.16489e-08)
(0.000807129 1.05732e-07 7.08832e-08)
(0.00080568 2.0209e-07 1.17636e-08)
(0.000803955 2.05972e-07 1.10321e-09)
(0.00080223 1.32275e-07 1.13608e-07)
(0.000800969 4.45035e-08 5.98794e-08)
(0.000799132 -1.77941e-07 3.88356e-08)
(0.000797473 9.40487e-08 6.12594e-07)
(0.000796245 2.89323e-08 5.59389e-08)
(0.000794767 6.19428e-08 5.96298e-08)
(0.000793254 -9.61796e-08 4.91187e-08)
(0.000791808 -1.76718e-07 3.01665e-08)
(0.000790011 -3.27051e-07 6.85438e-08)
(0.000788718 -2.90942e-07 1.0975e-07)
(0.000787777 -1.96486e-07 7.65786e-08)
(0.00078615 -7.6488e-08 3.70833e-08)
(0.000784567 -1.39082e-07 2.19428e-07)
(0.000783141 -2.50647e-07 3.2828e-08)
(0.000781621 -2.24144e-07 7.84354e-08)
(0.000780305 -1.5787e-07 5.66667e-08)
(0.000779031 -2.47179e-07 4.80196e-08)
(0.00077761 -4.86409e-07 -4.05292e-08)
(0.000776219 -3.7585e-07 -1.88065e-09)
(0.000774646 -2.22392e-07 4.80723e-08)
(0.000772895 1.02238e-07 9.58345e-08)
(0.0201905 -0.00174706 -0.000201416)
(-0.016541 -0.00797644 0.000847811)
(-0.00122347 0.00574483 0.000213707)
(-0.0143183 0.00521703 -0.00104971)
(0.0057794 -0.00610838 -0.000604986)
(0.00914057 -0.000188332 0.00061741)
(0.00127482 -9.31149e-05 -5.51042e-06)
(0.000846405 6.32851e-05 2.37902e-05)
(0.000910896 4.86384e-05 -2.47692e-06)
(0.000856751 2.50717e-05 -2.98709e-07)
(0.000850965 1.45276e-05 8.81238e-08)
(0.000841073 8.27042e-06 2.91149e-08)
(0.000835673 5.018e-06 9.73368e-08)
(0.000831202 2.94188e-06 4.46894e-08)
(0.000828179 1.69185e-06 5.7349e-08)
(0.000825764 9.86586e-07 6.38066e-08)
(0.000823637 5.84997e-07 4.97692e-08)
(0.000821515 2.73493e-07 3.92611e-08)
(0.000819795 2.15846e-07 2.46989e-08)
(0.000818047 4.79909e-07 1.07362e-07)
(0.00081655 4.13821e-07 -9.08942e-09)
(0.000814926 3.68797e-07 1.29406e-07)
(0.000813121 3.09485e-07 8.16627e-08)
(0.000811625 1.45947e-07 -5.41624e-09)
(0.000809929 1.91197e-07 5.81074e-08)
(0.00080851 2.21129e-07 4.56198e-08)
(0.000807052 2.60741e-08 4.00282e-08)
(0.000805459 -8.00846e-08 1.77156e-08)
(0.000804127 -1.1241e-07 9.51427e-08)
(0.000802537 -2.8959e-07 9.21088e-08)
(0.000800415 -3.94319e-07 -1.53034e-08)
(0.000799074 -3.07936e-07 1.55834e-07)
(0.00079783 -1.85116e-07 2.03046e-08)
(0.000796168 -1.33425e-07 5.29348e-08)
(0.000794637 -1.91995e-07 2.81085e-08)
(0.000793111 -1.42555e-07 4.99897e-08)
(0.000791649 -1.08684e-07 5.08748e-08)
(0.000790425 -7.26784e-08 4.5906e-08)
(0.000789117 2.26209e-07 4.11185e-08)
(0.000787542 6.1342e-08 6.49456e-08)
(0.000786039 -2.8461e-08 1.02517e-07)
(0.000784549 -2.77252e-08 1.60297e-08)
(0.000783177 -4.69245e-08 5.55137e-08)
(0.000781701 -7.53004e-08 6.05393e-08)
(0.00078012 -3.97154e-08 4.47929e-08)
(0.000778661 -1.79699e-07 4.77373e-08)
(0.000777312 -4.79829e-07 -3.34981e-07)
(0.000776159 -5.37486e-07 6.11792e-08)
(0.000775016 -4.97765e-07 9.82265e-08)
(0.000773446 -2.15538e-07 1.78547e-07)
(-0.00142876 -0.00764303 -0.00650927)
(-0.0274724 -0.0110113 0.000537084)
(0.00310314 -8.77181e-05 -0.00383793)
(-0.00160249 -0.00136248 0.00155727)
(0.043106 -0.0186517 0.000260434)
(0.000816105 0.00976887 -1.00768e-05)
(0.000945087 0.000281769 5.2151e-06)
(0.000479823 0.000159192 5.00828e-05)
(0.000881003 5.99416e-05 -1.75884e-06)
(0.00082572 3.33598e-05 -3.79481e-07)
(0.000836447 2.02617e-05 1.42197e-07)
(0.000832373 1.22566e-05 3.24331e-08)
(0.000830701 7.34917e-06 5.21705e-08)
(0.000828508 4.54117e-06 4.98108e-08)
(0.000826545 2.86852e-06 5.21545e-08)
(0.000824657 1.78351e-06 5.11065e-08)
(0.000822813 1.01753e-06 5.38536e-08)
(0.000821196 6.31328e-07 8.41531e-08)
(0.000819863 5.43526e-07 8.64767e-08)
(0.000818304 2.79455e-07 4.36284e-08)
(0.000816314 3.45885e-07 2.69905e-08)
(0.000814605 1.1106e-07 4.66202e-08)
(0.000813105 2.33242e-07 2.89987e-08)
(0.000811593 9.83961e-08 5.5483e-08)
(0.00081006 1.93314e-07 5.88201e-09)
(0.000808371 2.28976e-07 1.9638e-07)
(0.000806752 -6.585e-09 5.2774e-08)
(0.000805508 -7.75605e-08 7.1061e-08)
(0.000803695 -4.12601e-07 1.85951e-08)
(0.00080188 -6.41221e-07 4.59559e-08)
(0.000800949 -4.18018e-07 1.58548e-07)
(0.000799397 -1.05681e-07 4.19589e-08)
(0.000797694 -1.21793e-07 4.0508e-08)
(0.000796239 -1.01482e-07 6.44503e-08)
(0.000794758 -8.62181e-08 2.05685e-07)
(0.00079336 3.93481e-08 1.04708e-07)
(0.000791896 6.02727e-08 5.29646e-08)
(0.00079043 1.83003e-07 4.77479e-08)
(0.000788886 1.36263e-07 4.89885e-08)
(0.000787458 2.19486e-07 5.58027e-09)
(0.000786039 1.07131e-07 4.68011e-08)
(0.000784544 1.24647e-07 -1.96037e-09)
(0.000783083 5.59558e-08 6.21015e-08)
(0.000781631 -5.82652e-08 -4.5493e-08)
(0.000780176 1.08441e-09 5.84713e-09)
(0.000778483 3.66436e-08 4.95226e-08)
(0.000777167 3.51194e-09 1.31489e-08)
(0.000776202 -2.8261e-07 6.53745e-08)
(0.000775058 -2.06991e-07 2.43571e-08)
(0.000773785 -2.71986e-07 4.54644e-08)
(-0.00255926 -0.00685868 0.000205206)
(-0.00837126 0.011725 -0.00071752)
(0.00125311 -0.00620001 -2.41996e-05)
(-0.00118187 -0.00144437 0.00114644)
(0.00955223 -0.00210199 7.15698e-05)
(0.00729636 -0.00271752 0.000415608)
(0.000923744 0.000506665 1.48787e-05)
(0.000349462 2.35699e-05 9.74597e-06)
(0.000846934 3.73737e-05 -1.69126e-06)
(0.000807241 2.46874e-05 -3.96092e-07)
(0.000824356 1.59547e-05 1.42936e-07)
(0.000824794 1.02494e-05 3.35668e-08)
(0.000825944 6.52871e-06 5.64347e-08)
(0.00082555 4.14894e-06 5.06338e-08)
(0.0008247 2.66285e-06 5.03477e-08)
(0.00082343 1.72855e-06 5.28197e-08)
(0.000822184 1.29356e-06 1.24093e-07)
(0.000820915 1.0271e-06 7.17956e-08)
(0.00081935 7.86828e-07 -1.87142e-07)
(0.000817795 3.78206e-07 3.55782e-08)
(0.000816337 1.21135e-07 4.94394e-08)
(0.000814782 1.21809e-07 6.46459e-08)
(0.000813104 -4.66821e-08 1.49765e-08)
(0.000811574 -3.01179e-08 4.98514e-08)
(0.00081009 -2.54905e-07 6.57463e-08)
(0.000808259 -2.69075e-07 5.54457e-09)
(0.000806669 -5.95136e-08 1.68339e-08)
(0.000804955 -1.208e-08 7.3734e-08)
(0.000803427 -2.26737e-07 5.93101e-08)
(0.000802537 2.39788e-07 8.10317e-08)
(0.000801089 3.05388e-07 8.96736e-08)
(0.000799447 1.22545e-07 1.48085e-07)
(0.000797836 2.9991e-07 4.98271e-08)
(0.000796214 8.96025e-08 4.66634e-08)
(0.000794814 9.93182e-08 4.24943e-08)
(0.000793295 -8.64622e-08 3.05099e-08)
(0.000791829 -2.80439e-08 5.50061e-08)
(0.000790519 -9.46173e-09 5.17383e-08)
(0.000789161 1.63557e-07 4.30244e-08)
(0.000787504 2.45198e-07 5.97541e-08)
(0.000785919 7.99832e-08 1.48592e-08)
(0.000784484 1.39835e-07 4.14653e-08)
(0.000782948 1.04737e-07 4.67193e-08)
(0.000781633 1.85273e-08 5.1252e-08)
(0.000780239 9.0429e-08 4.80952e-08)
(0.000778665 2.04667e-07 4.68452e-08)
(0.000776913 5.1583e-07 5.90756e-08)
(0.000775898 6.61178e-07 7.18247e-08)
(0.000775038 2.63394e-07 4.74284e-08)
(0.000774043 1.0094e-08 1.04152e-07)
(0.0126703 0.000339575 -0.000713302)
(0.000107055 -0.00466536 0.000850152)
(0.0144221 -0.0103176 0.00130112)
(0.00441648 -0.00430472 0.000817364)
(0.00675224 -0.00913629 -0.000104539)
(-0.00215816 -0.000609911 -0.000612616)
(0.000632572 -0.000408303 8.8901e-05)
(0.000428899 1.02466e-05 2.70688e-07)
(0.000840225 1.57965e-06 -1.30651e-06)
(0.000798375 9.49903e-06 -1.99009e-07)
(0.000818203 6.32558e-06 1.66613e-07)
(0.000820465 4.88198e-06 3.99799e-08)
(0.000822996 3.30651e-06 5.8907e-08)
(0.000823626 2.14222e-06 5.52877e-08)
(0.000823488 1.47044e-06 5.60699e-08)
(0.000822925 1.08849e-06 8.3972e-08)
(0.000821922 8.93142e-07 7.69397e-08)
(0.000820553 6.41457e-07 9.88176e-09)
(0.000819046 4.61853e-07 6.41089e-08)
(0.000817468 3.7798e-07 8.1352e-08)
(0.000815992 3.21088e-07 5.08754e-08)
(0.000814396 -2.68979e-08 5.99275e-08)
(0.000812915 -9.7549e-08 3.83446e-08)
(0.000811334 -1.61824e-07 5.31481e-08)
(0.000809764 -2.61703e-07 1.26954e-08)
(0.000808618 -3.48692e-07 -1.25175e-07)
(0.000807076 -1.09572e-07 2.17697e-08)
(0.000805301 -5.57848e-08 5.0238e-08)
(0.000804011 1.51726e-07 1.08924e-07)
(0.000802545 3.60371e-07 6.6504e-08)
(0.000800801 3.04857e-07 1.43227e-07)
(0.000799388 1.37724e-07 5.91732e-08)
(0.000797651 -1.26107e-07 -2.81859e-07)
(0.000795987 -8.45507e-08 -2.01162e-08)
(0.000794538 -9.24581e-08 3.19818e-08)
(0.000793201 -8.76667e-08 6.38452e-08)
(0.000791994 -2.05013e-07 -6.02002e-08)
(0.000790669 -1.00079e-07 4.57245e-08)
(0.000789203 -3.33834e-07 8.30892e-08)
(0.000787353 -4.88814e-07 3.41641e-08)
(0.000785906 -1.84458e-07 5.13607e-08)
(0.000784575 -1.32078e-07 4.98642e-08)
(0.000782931 2.90023e-07 4.88698e-08)
(0.000781613 2.60907e-07 4.48049e-08)
(0.000780408 2.2814e-07 6.20056e-08)
(0.000779013 2.33657e-07 2.62967e-08)
(0.000777734 4.42374e-07 5.48401e-08)
(0.000775882 1.00413e-06 2.79193e-08)
(0.000774243 6.61917e-07 -3.84674e-08)
(0.000773441 3.20155e-07 9.10374e-08)
(0.00661398 -0.00216578 -0.000165242)
(-0.000450011 -0.00375767 7.54081e-05)
(0.00735974 -0.0058822 -0.000433591)
(-0.0248631 -0.00926155 0.000907323)
(0.0238577 0.0270925 0.000360444)
(-0.000440984 -0.00032675 -7.80795e-05)
(0.000914446 -5.07452e-05 5.30148e-06)
(0.00082199 8.59818e-06 -2.13952e-06)
(0.000812025 -1.67893e-05 -7.46366e-08)
(0.000813041 -3.27086e-06 3.17267e-08)
(0.000818488 -2.25791e-06 1.13838e-07)
(0.000820955 -9.97272e-07 4.68921e-08)
(0.000822476 -4.48014e-07 6.85199e-08)
(0.000823226 -5.7132e-08 7.36767e-08)
(0.000823364 -8.64707e-10 5.57904e-08)
(0.000822696 3.46914e-09 1.04174e-07)
(0.000821616 -9.08006e-08 4.72008e-08)
(0.000820369 -9.74069e-08 4.3773e-07)
(0.000819015 1.10435e-07 5.17608e-08)
(0.000817616 -1.42767e-07 3.41765e-08)
(0.000815829 -2.42732e-07 6.25742e-08)
(0.000814259 -1.7111e-07 2.12064e-07)
(0.000812936 -6.80907e-08 6.08473e-08)
(0.000811371 -8.86303e-08 4.22937e-08)
(0.00080986 2.16922e-09 7.6925e-08)
(0.000808452 3.74841e-08 4.58812e-09)
(0.000807038 -1.00972e-07 2.73823e-08)
(0.000805281 7.93079e-08 5.05679e-08)
(0.000803946 4.20329e-07 -4.68981e-09)
(0.000802725 -7.52075e-08 3.56263e-08)
(0.000800807 -1.9687e-07 7.5682e-08)
(0.000798907 -2.21507e-07 3.53331e-08)
(0.000797559 -4.89072e-07 -9.37484e-09)
(0.000796257 -2.67328e-07 1.62938e-07)
(0.000794811 -7.93746e-08 3.56296e-08)
(0.000793155 2.20597e-07 4.3218e-08)
(0.000791815 2.5541e-07 6.65533e-08)
(0.00079036 -2.36814e-08 5.51479e-08)
(0.000788678 -3.41812e-07 9.61525e-09)
(0.000787694 -5.00781e-07 6.48719e-08)
(0.000786368 -2.05225e-07 6.22111e-08)
(0.000785078 -1.34529e-07 2.09521e-08)
(0.000783439 -2.68265e-08 2.25913e-08)
(0.000781554 3.06595e-07 2.85896e-08)
(0.000780204 1.58149e-07 4.22595e-08)
(0.00077893 2.15833e-07 -1.67757e-07)
(0.000777872 5.94253e-08 2.6051e-08)
(0.000776165 -5.89311e-09 4.15778e-08)
(0.000774169 3.39939e-07 -2.32904e-08)
(0.00077282 2.23986e-07 7.0829e-08)
(0.00930568 -0.00975226 0.000739133)
(-0.0018889 -0.000247889 -0.00100939)
(0.0142661 0.00056346 0.00492666)
(0.0776398 -0.0364366 0.0168356)
(-0.00460371 -0.00350078 -1.73113e-05)
(0.00236317 -0.000395188 -0.00043179)
(0.000741185 -0.000119988 2.96342e-05)
(0.00137911 -5.31535e-05 3.18288e-07)
(0.00135335 -5.60157e-06 3.0345e-07)
(0.00135919 -1.94912e-05 3.65937e-07)
(0.00136742 -1.225e-05 3.89436e-07)
(0.00137066 -9.06104e-06 3.79103e-07)
(0.00137344 -5.97126e-06 2.77373e-07)
(0.00137366 -3.67708e-06 9.88248e-08)
(0.00137271 -2.39891e-06 3.46135e-07)
(0.00137151 -1.62291e-06 2.97253e-07)
(0.00136984 -1.14574e-06 3.44896e-07)
(0.00136819 -9.01429e-07 1.58843e-07)
(0.00136523 -8.58832e-07 3.87621e-07)
(0.00136208 -5.99776e-07 4.14721e-07)
(0.00136028 -5.1037e-07 4.29898e-07)
(0.00135796 -4.72135e-08 3.88639e-07)
(0.00135531 -2.87721e-07 2.86702e-07)
(0.00135272 3.37048e-08 2.96111e-07)
(0.00135023 4.58724e-07 3.53225e-07)
(0.00134779 6.83217e-07 3.56543e-07)
(0.0013455 4.19693e-07 2.85266e-07)
(0.00134357 1.57367e-07 3.38397e-07)
(0.00134008 2.78914e-07 3.23379e-07)
(0.00133671 -3.10588e-07 4.80371e-07)
(0.00133473 -1.09421e-06 2.47443e-07)
(0.00133206 -8.89495e-07 8.00878e-08)
(0.00132973 -5.00423e-07 4.09564e-07)
(0.00132796 -2.47074e-07 3.43862e-07)
(0.00132574 1.93684e-07 3.23639e-07)
(0.00132312 1.80544e-07 3.22343e-07)
(0.00131987 3.98576e-07 3.95393e-07)
(0.00131695 3.61199e-07 3.06208e-07)
(0.00131485 7.07506e-07 2.01066e-07)
(0.00131308 7.14317e-07 3.46502e-07)
(0.00131102 1.06768e-07 2.90331e-07)
(0.00130842 -6.46476e-08 1.88396e-07)
(0.00130637 -9.13314e-07 4.76933e-07)
(0.00130358 -5.90459e-07 7.18347e-07)
(0.00130094 -2.61133e-07 3.20804e-07)
(0.00129862 -3.2569e-07 3.44052e-07)
(0.00129622 -3.81212e-07 3.23768e-07)
(0.00129423 -7.50522e-07 4.40659e-07)
(0.00129135 -5.09405e-07 2.19601e-07)
(0.00128837 -3.96972e-07 3.43609e-07)
(-0.00548262 -0.0143313 0.0001119)
(-0.0075659 0.000778069 1.55974e-05)
(0.00453447 -0.00243247 0.000246558)
(-0.00953187 0.00608651 -0.000388906)
(-0.0129403 -0.0150809 0.00069)
(-0.00364739 -0.00742953 0.00150149)
(0.000456978 -0.000300125 -2.91967e-05)
(0.00130612 -8.11437e-05 6.54753e-08)
(0.00143861 -3.67352e-05 4.07437e-07)
(0.00134498 -3.71401e-05 3.37773e-07)
(0.00137627 -2.35313e-05 3.4583e-07)
(0.00137576 -1.58252e-05 3.45028e-07)
(0.0013774 -1.03478e-05 3.45091e-07)
(0.00137653 -6.90614e-06 3.43063e-07)
(0.00137499 -4.41405e-06 3.44716e-07)
(0.00137294 -2.81616e-06 4.43325e-07)
(0.00137054 -1.86905e-06 3.43522e-07)
(0.00136791 -1.32247e-06 1.52895e-07)
(0.00136569 -1.09171e-06 4.51274e-07)
(0.00136337 -3.91572e-07 3.13205e-07)
(0.00136063 2.61058e-07 3.79035e-07)
(0.00135766 1.69406e-07 3.66306e-07)
(0.0013553 8.5377e-07 3.29946e-07)
(0.00135355 5.86664e-07 4.07547e-07)
(0.00135085 6.79086e-07 1.18256e-07)
(0.00134767 3.11595e-07 3.41307e-07)
(0.00134481 1.38255e-07 4.10996e-07)
(0.00134238 -3.22791e-07 3.36381e-07)
(0.00133975 -1.43487e-06 4.12893e-07)
(0.00133657 -9.81086e-07 2.52117e-07)
(0.00133437 -7.73702e-07 3.6627e-07)
(0.00133266 -4.53455e-07 2.83429e-07)
(0.00133042 5.61762e-07 6.05509e-07)
(0.00132832 7.81516e-07 8.28639e-07)
(0.00132559 2.01719e-07 3.37371e-07)
(0.00132269 1.4117e-08 3.1903e-07)
(0.00132041 -5.39328e-08 3.22546e-07)
(0.00131806 2.92509e-07 3.81105e-07)
(0.00131541 6.03173e-07 3.50178e-07)
(0.00131255 6.95993e-07 3.278e-07)
(0.00131003 2.01234e-07 3.40788e-07)
(0.00130754 -1.43753e-07 3.7289e-07)
(0.00130547 -5.12752e-07 3.09279e-07)
(0.00130397 -8.42227e-07 4.11689e-07)
(0.00130124 -4.27337e-07 2.36921e-07)
(0.00129854 -3.73647e-07 3.45394e-07)
(0.00129638 7.26715e-08 4.80056e-07)
(0.00129399 -2.31223e-07 3.20417e-07)
(0.00129134 -5.96411e-07 3.72887e-07)
(0.00128959 -4.02798e-07 2.28108e-07)
(0.0103533 -0.019902 -0.000263216)
(0.011266 -0.011958 0.000927362)
(0.00459109 -0.000665848 0.000214945)
(0.0096544 0.00190746 -6.55395e-05)
(0.00270692 -0.00482735 -0.0014459)
(0.00066672 -0.00514224 0.000812724)
(0.000700392 -0.000526333 -1.30489e-05)
(0.00138493 -0.000129906 1.70769e-06)
(0.00147066 -8.17693e-05 -3.91307e-07)
(0.00137596 -4.99785e-05 3.43937e-07)
(0.00139433 -3.07811e-05 3.50476e-07)
(0.00138731 -1.90762e-05 3.46519e-07)
(0.0013847 -1.18859e-05 3.46055e-07)
(0.00138116 -7.46463e-06 3.45772e-07)
(0.00137787 -4.71115e-06 3.44952e-07)
(0.00137473 -3.02379e-06 3.43436e-07)
(0.00137173 -1.96159e-06 3.44541e-07)
(0.00136918 -1.22166e-06 3.6663e-07)
(0.00136641 -9.76904e-07 3.83617e-07)
(0.00136377 -6.56028e-07 3.30599e-07)
(0.00136098 -6.76343e-07 3.02046e-07)
(0.0013587 -2.6325e-07 3.42339e-07)
(0.00135583 1.09777e-07 3.56856e-07)
(0.0013525 1.48319e-08 -1.6118e-08)
(0.00134988 -5.02337e-07 3.23122e-07)
(0.00134711 -1.96358e-07 3.16582e-07)
(0.00134471 -2.95162e-07 3.263e-07)
(0.00134161 -1.92602e-07 3.29676e-07)
(0.00133927 -1.42684e-07 1.563e-07)
(0.00133755 5.67791e-07 3.74184e-07)
(0.0013354 1.19465e-06 3.37226e-07)
(0.00133373 1.11188e-06 3.20401e-07)
(0.00133127 7.61022e-07 8.12015e-07)
(0.00132751 5.45359e-07 4.46635e-07)
(0.00132478 5.65632e-08 3.76273e-07)
(0.00132279 1.35199e-07 3.42117e-07)
(0.00132022 1.56852e-07 2.95084e-07)
(0.00131777 9.05938e-08 3.52179e-07)
(0.00131535 1.34814e-07 3.35613e-07)
(0.00131257 3.19136e-08 3.08212e-07)
(0.00130997 1.49834e-07 3.61033e-07)
(0.00130753 3.347e-07 2.15198e-07)
(0.0013055 8.6655e-07 7.08525e-07)
(0.00130369 7.40893e-07 3.06821e-07)
(0.00130154 2.70859e-07 9.30911e-08)
(0.00129925 3.8105e-07 3.21672e-07)
(0.0012964 5.24659e-07 4.31611e-07)
(0.0012934 3.09636e-07 3.49861e-07)
(0.00129114 1.41581e-07 3.36224e-07)
(0.00128961 1.30605e-07 3.08758e-07)
(-0.00556307 -0.00339756 -0.000808966)
(0.00158948 0.00221286 -0.000487354)
(0.00238195 -0.00440819 -0.000413696)
(-0.00757191 0.00636535 0.000644402)
(-0.00808206 0.00225279 -0.000300228)
(-0.000319708 0.00775098 -0.00240094)
(-0.000300959 -0.00149315 1.46317e-05)
(0.00111454 -0.000165171 3.79018e-05)
(0.00153498 -8.52506e-05 3.28717e-07)
(0.00140993 -4.29281e-05 6.19292e-07)
(0.00141524 -2.52212e-05 3.55164e-07)
(0.0013996 -1.44543e-05 3.91863e-08)
(0.00139205 -8.82477e-06 3.45991e-07)
(0.00138559 -5.26102e-06 3.46696e-07)
(0.0013806 -3.11473e-06 3.45259e-07)
(0.00137641 -1.89411e-06 3.44254e-07)
(0.00137282 -1.21873e-06 3.45837e-07)
(0.00136916 -7.464e-07 4.01289e-07)
(0.00136641 -7.63681e-07 3.36635e-07)
(0.00136376 -8.42469e-07 3.09333e-07)
(0.00136112 -7.93408e-07 3.37546e-07)
(0.00135865 -7.23755e-07 3.38457e-07)
(0.00135565 -1.15027e-06 2.59938e-07)
(0.00135278 -6.13861e-07 1.56717e-07)
(0.00135058 -5.72845e-07 9.84852e-07)
(0.00134793 -2.77975e-07 2.78571e-07)
(0.00134481 1.41485e-07 4.01225e-07)
(0.00134257 4.47027e-07 4.21411e-07)
(0.0013407 1.41201e-06 3.67332e-07)
(0.00133824 1.27031e-06 4.92498e-07)
(0.00133504 1.30733e-06 3.16982e-07)
(0.00133211 1.21639e-06 2.95932e-09)
(0.00132971 2.14061e-07 3.12865e-07)
(0.00132743 -1.8316e-07 3.34295e-07)
(0.00132508 1.30167e-07 3.47637e-07)
(0.00132281 6.25294e-09 3.95575e-07)
(0.00132035 -8.52617e-08 4.00526e-07)
(0.00131803 -7.42579e-08 2.79026e-07)
(0.00131533 -5.97683e-07 2.16629e-07)
(0.00131257 -4.04725e-07 3.99731e-08)
(0.00131041 4.87207e-08 3.38585e-07)
(0.00130843 2.54828e-07 3.47556e-07)
(0.00130597 5.52743e-07 4.94365e-07)
(0.00130322 4.46294e-07 6.95436e-08)
(0.00130078 1.21067e-07 3.44853e-07)
(0.00129885 -2.68631e-08 3.24496e-07)
(0.00129628 -1.7059e-07 3.96822e-07)
(0.00129351 8.38033e-08 1.79965e-07)
(0.00129111 4.27907e-07 3.18449e-07)
(0.00128925 3.81471e-07 2.34223e-07)
(-0.000514914 0.0280967 -0.00114006)
(-0.000772352 -0.00669119 -0.000188998)
(-0.00531775 -0.0100796 0.000553116)
(0.00678907 -0.00974487 -0.00226592)
(-0.0041551 0.00515639 0.00140475)
(0.00470466 -0.0123376 -0.000396284)
(0.000792031 -0.00166265 -8.34501e-05)
(0.00183273 -5.98761e-06 0.00010225)
(0.00156144 -1.86352e-05 8.12798e-07)
(0.0014503 -5.60571e-06 4.39728e-07)
(0.00143022 -3.43355e-06 3.7629e-07)
(0.00140799 -1.75243e-06 3.94426e-07)
(0.0013963 -6.98524e-07 4.02428e-07)
(0.00138836 -4.78225e-07 3.47417e-07)
(0.00138212 -4.3102e-07 3.3661e-07)
(0.00137712 -3.29391e-07 3.54629e-07)
(0.00137318 -1.90968e-07 3.42181e-07)
(0.00136975 -1.03457e-07 3.4214e-07)
(0.00136629 1.09804e-07 4.70767e-07)
(0.00136374 1.27618e-07 2.58914e-07)
(0.00136114 4.07335e-08 3.73224e-07)
(0.00135826 1.85119e-07 3.5033e-07)
(0.00135597 2.54656e-08 3.97572e-07)
(0.00135323 1.0466e-07 3.83022e-07)
(0.0013503 2.29947e-07 3.40697e-07)
(0.001348 -2.16468e-07 3.74235e-07)
(0.00134561 1.71858e-07 3.8983e-07)
(0.00134319 3.52874e-07 3.01283e-07)
(0.00134029 4.2101e-07 2.75522e-07)
(0.0013374 2.98124e-07 4.2302e-07)
(0.00133532 1.18739e-07 3.45092e-07)
(0.00133235 -2.66839e-07 3.25064e-07)
(0.00132951 1.9004e-07 1.5267e-06)
(0.0013274 7.88541e-08 3.40699e-07)
(0.00132501 1.29507e-07 3.26369e-07)
(0.00132252 -1.52664e-07 3.28377e-07)
(0.00132012 -3.16555e-07 3.38982e-07)
(0.00131713 -5.39114e-07 3.28235e-07)
(0.00131494 -4.99216e-07 4.57681e-07)
(0.00131338 -3.4202e-07 2.84238e-07)
(0.00131079 -1.22666e-07 3.09642e-07)
(0.00130816 -2.03804e-07 5.30756e-07)
(0.00130573 -3.91989e-07 2.4206e-07)
(0.00130314 -3.74028e-07 3.37358e-07)
(0.00130094 -3.60358e-07 3.55256e-07)
(0.00129888 -4.58864e-07 3.23586e-07)
(0.00129654 -8.89794e-07 1.2135e-07)
(0.00129415 -7.51944e-07 4.61922e-08)
(0.0012915 -3.89434e-07 3.60083e-07)
(0.0012886 1.73135e-07 4.33338e-07)
(-0.000652238 0.00435526 -0.0124493)
(-0.0566937 0.00949798 -0.00343614)
(0.00721924 -0.0110725 -0.00270895)
(-0.00603613 0.00987472 0.00258557)
(0.0287027 -0.02511 -0.00485665)
(0.0065218 -0.00546862 0.0119716)
(0.00304827 0.00172067 -3.35074e-05)
(0.000941406 0.000256295 1.64366e-05)
(0.00152248 7.82793e-05 6.93496e-07)
(0.00143099 4.06219e-05 2.84927e-07)
(0.00142012 2.36307e-05 3.1357e-07)
(0.00140305 1.34936e-05 3.36434e-07)
(0.00139366 8.22829e-06 3.69701e-07)
(0.00138593 4.82942e-06 3.46155e-07)
(0.00138079 2.76985e-06 3.60807e-07)
(0.00137671 1.6194e-06 3.49964e-07)
(0.0013731 9.7583e-07 3.43314e-07)
(0.00136954 4.76342e-07 3.20093e-07)
(0.0013667 3.84318e-07 3.02768e-07)
(0.00136367 8.58184e-07 5.15342e-07)