/*--------------------------------*- C++ -*----------------------------------*\
| =========                 |                                                 |
| \\      /  F ield         | OpenFOAM: The Open Source CFD Toolbox           |
|  \\    /   O peration     | Version:  5.0                                   |
|   \\  /    A nd           | Web:      www.OpenFOAM.org                      |
|    \\/     M anipulation  |                                                 |
\*---------------------------------------------------------------------------*/
FoamFile
{
    version     2.0;
    format      ascii;
    class       surfaceVectorField;
    location    "4.1";
    object      Uf;
}
// * * * * * * * * * * * * * * * * * * * * * * * * * * * * * * * * * * * * * //

dimensions      [0 1 -1 0 0 0 0];

internalField   nonuniform List<vector> 
23167
(
(-0.0099291 -0.00175545 -2.2374e-05)
(-0.00129552 0.00137529 -0.000319736)
(0.00241056 -0.00743707 0.000535639)
(-0.00446489 0.00116187 0.000584475)
(-0.00165147 0.00557815 -0.000116672)
(-0.00547869 0.00066803 -0.000775382)
(-0.0103195 0.000107342 -0.000410076)
(0.000365847 0.000662027 0.000253216)
(-0.0114204 -0.0045737 -0.0011092)
(-0.00257961 0.00300084 0.000770275)
(-0.00274576 -0.000214952 0.000257847)
(0.0042699 0.00057593 0.00032201)
(-0.011036 0.00506916 0.000158413)
(-0.00194195 0.00654818 -0.000410179)
(-0.00194323 -0.00292674 -0.000299053)
(0.00301638 0.00363641 0.0102453)
(0.00201739 0.00839401 -0.0192992)
(0.00589812 0.0011889 0.0130855)
(0.0109507 -0.00641494 -0.00428109)
(0.00266071 -0.004115 3.87918e-05)
(-0.00873467 -0.00899684 -0.000165806)
(-0.00258377 -0.00531909 0.00036079)
(-0.000295128 -0.0161115 0.000686365)
(-0.00145778 0.00175738 -0.000100286)
(0.000154908 0.00265225 -9.69897e-05)
(-0.00492387 0.00551408 -6.77985e-05)
(0.000843499 0.00369375 -0.000345512)
(0.00102412 -9.22494e-05 6.39059e-05)
(0.000382891 -8.10847e-05 4.45582e-05)
(0.00046514 -7.47032e-05 4.73914e-05)
(0.000541337 -3.71042e-05 2.14767e-05)
(0.000768394 -5.44043e-05 -1.18149e-06)
(0.000544613 -6.78986e-05 -1.57439e-06)
(0.00103721 -0.000101569 -1.30469e-06)
(0.000518173 -4.98288e-05 -4.20716e-06)
(0.000531552 -7.81388e-05 -3.57139e-06)
(0.000873839 -7.31277e-05 -1.49855e-06)
(0.000907063 -0.00013407 -7.69531e-07)
(0.000523406 -7.93002e-05 -4.33478e-06)
(0.000927911 -0.000114014 -1.13307e-06)
(0.000879196 -0.000128466 -5.17377e-06)
(0.000780386 -2.74812e-05 -4.473e-08)
(0.000810934 -4.09252e-05 -5.44007e-07)
(0.00103329 -3.58797e-05 1.11055e-07)
(0.000795835 -2.08356e-05 6.49614e-08)
(0.000791314 -3.60207e-05 -2.18816e-07)
(0.00105399 -3.31654e-05 1.81486e-07)
(0.000804241 -1.2995e-05 7.76938e-08)
(0.000807519 -2.19306e-05 1.42755e-07)
(0.00106967 -1.9903e-05 1.79665e-07)
(0.000810074 -8.48866e-06 2.35589e-08)
(0.000811278 -1.43999e-05 4.72281e-08)
(0.00107804 -1.32996e-05 1.74917e-07)
(0.000813491 -5.26045e-06 3.86616e-08)
(0.000814673 -9.12195e-06 2.83337e-08)
(0.00108413 -8.47146e-06 1.79364e-07)
(0.000814296 -3.2223e-06 6.58991e-08)
(0.000815724 -6.08469e-06 6.61332e-08)
(0.00108655 -5.03876e-06 1.6461e-07)
(0.000814654 -2.13217e-06 2.24221e-08)
(0.000815669 -3.86925e-06 5.0691e-08)
(0.00108707 -3.24523e-06 1.84032e-07)
(0.000814102 -1.41562e-06 2.40126e-08)
(0.000815238 -1.31076e-06 3.02214e-08)
(0.00108688 -2.23202e-06 1.55363e-07)
(0.000813415 -8.91389e-07 7.4073e-08)
(0.00081439 -1.5708e-06 5.17716e-08)
(0.00108595 -1.40678e-06 1.80312e-07)
(0.000812232 -6.01287e-07 8.08853e-08)
(0.000813238 -8.13827e-07 9.37682e-08)
(0.00108479 -8.92683e-07 1.90398e-07)
(0.000810849 -6.18315e-07 9.15599e-08)
(0.000811771 -7.60982e-07 6.93158e-08)
(0.0010829 -6.716e-07 1.93374e-07)
(0.000809977 -5.96605e-07 9.42277e-08)
(0.000810454 -2.63144e-07 7.3317e-08)
(0.0010813 -9.24403e-07 2.72569e-07)
(0.000808451 -3.74761e-07 7.42725e-08)
(0.000809216 -3.26829e-07 4.42878e-08)
(0.00107985 -5.87322e-07 2.41027e-07)
(0.000806958 -3.02096e-07 6.60423e-08)
(0.000807618 -1.37742e-07 6.60761e-08)
(0.00107775 -3.10352e-07 1.96191e-07)
(0.000805322 -2.74265e-07 5.34164e-08)
(0.000806064 4.2518e-09 1.12345e-07)
(0.00107563 -3.67843e-07 1.88081e-07)
(0.000803913 -5.08433e-08 2.39885e-08)
(0.000804802 -4.58982e-07 8.75642e-08)
(0.00107363 -2.4533e-07 1.94243e-07)
(0.00080251 2.46263e-07 2.13085e-08)
(0.000803438 1.44388e-07 2.68022e-08)
(0.00107179 2.21063e-07 1.86951e-07)
(0.000800732 3.01189e-07 5.5303e-08)
(0.00080163 -1.06962e-06 6.54036e-08)
(0.00106963 5.35613e-07 1.41064e-07)
(0.000799378 1.9242e-07 5.72319e-08)
(0.00079999 2.23118e-07 8.00523e-08)
(0.00106754 3.40046e-07 1.68747e-07)
(0.000797868 1.9593e-07 2.6693e-08)
(0.000798675 5.54788e-08 4.73493e-08)
(0.00106584 1.9641e-07 1.79407e-07)
(0.000796304 4.90975e-08 3.30296e-08)
(0.000796995 -1.21165e-07 3.63155e-08)
(0.0010636 3.06129e-07 1.26078e-07)
(0.000794935 -2.93263e-07 7.1495e-08)
(0.000795331 1.62487e-07 1.44164e-08)
(0.00106154 -2.2905e-07 1.86699e-07)
(0.000792912 -4.56729e-07 7.24865e-08)
(0.000793899 -6.89712e-07 -2.61817e-08)
(0.00105944 -6.53372e-07 3.70585e-07)
(0.000791565 -3.79811e-07 6.24318e-08)
(0.000792388 -4.5995e-07 4.36446e-08)
(0.00105707 -6.49846e-07 3.0988e-07)
(0.000790042 -6.31193e-08 7.3405e-08)
(0.000791119 -2.43735e-08 9.07763e-08)
(0.00105517 -3.86423e-07 1.40649e-07)
(0.000789532 1.97796e-07 6.69893e-08)
(0.000789937 -2.60801e-06 8.04504e-08)
(0.00105397 1.90378e-07 2.68689e-07)
(0.000787907 3.1888e-07 7.71936e-08)
(0.000788522 2.41912e-07 4.63164e-08)
(0.0010526 3.18829e-07 1.78928e-07)
(0.000785691 3.295e-07 7.03975e-08)
(0.000786806 -2.64601e-08 7.01678e-08)
(0.00104996 5.35975e-07 2.99753e-07)
(0.000784134 3.12607e-07 2.66569e-08)
(0.00078517 3.23529e-07 4.73324e-08)
(0.00104735 3.4648e-07 1.68515e-07)
(0.000782566 5.0695e-07 5.75954e-08)
(0.000783752 5.9219e-07 1.32462e-08)
(0.00104518 4.92225e-07 1.34456e-07)
(0.000782271 4.38175e-07 1.11589e-07)
(0.000782362 -2.53094e-06 5.42245e-08)
(0.00104404 8.53486e-07 2.26758e-07)
(0.000780358 1.38404e-07 7.77225e-08)
(0.000780909 4.05657e-07 2.01088e-07)
(0.00104268 3.55156e-07 1.79761e-07)
(0.00077881 2.45557e-08 5.37088e-08)
(0.0007794 1.14743e-07 4.38507e-08)
(0.00104029 6.84005e-08 1.75304e-07)
(0.000777516 -9.36335e-08 7.41542e-08)
(0.000777944 6.49823e-08 7.1384e-08)
(0.00103831 6.3483e-09 1.59657e-07)
(0.000776518 -2.78883e-07 3.38823e-08)
(0.000776684 -2.54656e-07 3.90805e-08)
(0.00103704 -2.92303e-07 1.37611e-07)
(0.000774195 -2.76595e-07 2.19172e-08)
(0.000775324 2.64506e-06 3.06755e-08)
(0.00103467 -4.70333e-07 7.74491e-08)
(0.000772895 -1.44438e-07 4.95528e-08)
(0.000773804 -3.32979e-07 5.00895e-08)
(0.00103223 -2.53633e-07 1.76726e-07)
(0.000771403 -2.40838e-08 5.86905e-08)
(0.000772346 1.81901e-07 5.51342e-08)
(0.00103043 -1.64044e-07 1.55648e-07)
(0.000770604 -2.81118e-08 6.11899e-08)
(0.000771014 -6.7441e-07 5.76812e-08)
(0.00102879 3.45157e-08 1.55672e-07)
(0.000769025 -2.42923e-07 5.29064e-08)
(0.000769694 1.46289e-07 1.97242e-08)
(0.00102741 -1.8145e-07 1.77842e-07)
(0.000767305 -3.55355e-07 3.12662e-08)
(0.000768117 -3.10406e-07 -1.42399e-08)
(0.00102504 -4.99455e-07 2.12614e-07)
(0.000766801 8.91872e-07 6.34776e-08)
(0.00102287 -4.34554e-07 1.11512e-07)
(0.00327415 0.00740979 -0.000414102)
(0.0012715 0.00566129 0.000141006)
(-0.00179231 -0.00307071 -0.000490272)
(0.00689742 0.00564888 8.13236e-05)
(0.00131506 0.000954331 1.47513e-05)
(-0.0007745 0.00367742 5.34634e-06)
(0.00299385 0.00417218 -0.000109102)
(0.0020016 0.00111237 0.000107913)
(0.00525155 0.00137442 0.000140273)
(-0.00179894 0.00192027 -0.0002781)
(0.00227177 -0.00309496 8.86165e-05)
(-0.00301902 -0.00234806 -0.00097738)
(0.00869837 -0.00317198 -0.000413827)
(0.00421127 0.00489221 0.000118501)
(-0.000132766 0.00515445 -0.000142124)
(-0.00343113 0.00474414 -0.000467751)
(0.000904412 -0.00268098 2.63059e-05)
(-0.000295366 0.000423501 0.000796817)
(0.00400038 -0.00130195 0.000217367)
(0.000388092 -0.00329901 -0.000356345)
(-0.00061729 0.00234655 0.000331221)
(0.00454862 -0.0111729 4.96051e-05)
(-0.00151406 0.000983946 0.00101002)
(-0.00349583 0.00660867 -0.000100762)
(-0.000601929 -0.00109038 0.000270757)
(0.00123017 1.18129e-05 0.000289017)
(0.000345647 0.00223112 0.000847791)
(-0.00544915 -0.00286545 6.67223e-05)
(-0.00527762 -0.00510874 0.00012868)
(-0.008847 -0.00181249 -6.21753e-05)
(-0.00548944 -0.00368442 0.000150229)
(-0.0102493 -0.00613316 0.000355403)
(0.000955903 -0.000281558 5.37323e-05)
(0.000810581 -9.42337e-05 1.93117e-06)
(0.00111192 6.51515e-05 8.44769e-06)
(0.000978996 -0.000147224 -1.8368e-05)
(0.00104625 -9.85173e-05 1.91178e-05)
(0.000296958 -5.4886e-05 -2.46064e-06)
(0.000449588 -6.2752e-05 -3.44609e-06)
(0.000445295 -7.71257e-05 -4.06246e-07)
(0.000717622 -9.97349e-05 -1.56659e-06)
(0.000302926 -5.72647e-05 -2.25423e-06)
(0.000539542 -0.000104133 -3.60262e-06)
(0.000554235 -0.000111086 -2.62199e-06)
(0.000800005 -4.93522e-05 -7.18199e-07)
(0.000868096 -7.2702e-05 -1.61743e-06)
(0.001135 -7.05936e-05 -9.15364e-07)
(0.000564637 -5.96982e-05 -3.91066e-06)
(0.000588157 -5.7346e-05 -4.72175e-06)
(0.00092609 -0.000107352 -4.74984e-06)
(0.000973491 -0.000102444 -6.04245e-06)
(0.000809305 -3.50157e-05 -1.4114e-07)
(0.000809384 -4.80131e-05 -4.41029e-07)
(0.00106045 -5.52049e-05 6.64214e-08)
(0.000814196 -2.2162e-05 1.12321e-07)
(0.000823693 -3.04208e-05 1.66348e-07)
(0.00108699 -3.4522e-05 2.06289e-07)
(0.000816563 -1.4234e-05 5.20092e-08)
(0.000821257 -1.93239e-05 3.78259e-08)
(0.00108807 -2.23295e-05 1.7869e-07)
(0.000817415 -9.16772e-06 5.5793e-08)
(0.000821051 -1.22108e-05 5.83709e-08)
(0.00109065 -1.42308e-05 1.84084e-07)
(0.00081717 -5.92044e-06 5.09301e-08)
(0.000819812 -7.76571e-06 5.10277e-08)
(0.00109079 -9.34387e-06 1.82181e-07)
(0.000816369 -3.76752e-06 5.84969e-08)
(0.000818379 -4.85035e-06 5.22355e-08)
(0.00108999 -5.89843e-06 1.81854e-07)
(0.000815635 -2.38522e-06 5.79734e-08)
(0.000816978 -2.9396e-06 5.87653e-08)
(0.00108892 -3.80835e-06 2.20647e-07)
(0.00081428 -1.47415e-06 7.14532e-08)
(0.000815537 -1.84565e-06 5.32619e-08)
(0.00108753 -2.35262e-06 1.80963e-07)
(0.000812836 -8.34814e-07 8.22066e-08)
(0.000814042 -2.10872e-06 5.39869e-08)
(0.00108559 -1.49278e-06 2.59029e-07)
(0.000811222 -3.71825e-07 5.10716e-08)
(0.000812353 -1.65664e-06 -2.50006e-09)
(0.00108353 -7.38701e-07 2.46395e-07)
(0.000809862 -1.67584e-07 2.33863e-08)
(0.000810711 -5.77609e-07 3.341e-08)
(0.00108156 -2.82521e-07 1.84534e-07)
(0.000808367 -1.12805e-07 3.60844e-08)
(0.000809285 -4.58395e-08 2.97558e-08)
(0.0010797 -1.39047e-07 1.55087e-07)
(0.00080672 1.36839e-08 1.12364e-07)
(0.000807776 -1.40868e-07 5.1836e-08)
(0.00107754 -1.0972e-07 1.88197e-07)
(0.000805426 2.0191e-07 1.46501e-07)
(0.000806299 3.26311e-07 9.61937e-08)
(0.0010755 2.22661e-07 1.35135e-07)
(0.000804446 2.2798e-07 9.03973e-08)
(0.000804832 7.51488e-07 1.1447e-07)
(0.00107415 4.03259e-07 4.58935e-08)
(0.000802674 1.05851e-07 7.0885e-08)
(0.000803284 9.43186e-08 6.24822e-08)
(0.00107232 2.87873e-07 2.03343e-07)
(0.000800707 2.00231e-08 9.01482e-08)
(0.000801522 1.74426e-07 5.00008e-08)
(0.00106967 8.18191e-08 1.29994e-07)
(0.000799323 -7.58277e-08 7.018e-08)
(0.00079987 -8.67636e-07 2.53907e-08)
(0.00106741 3.37187e-08 2.42855e-07)
(0.000797864 -3.10922e-07 5.69753e-08)
(0.000798382 1.19397e-07 5.06622e-08)
(0.00106563 -2.13911e-07 1.6872e-07)
(0.000795928 -4.2005e-07 1.77092e-08)
(0.000796861 -6.94691e-07 3.44183e-08)
(0.00106335 -6.83161e-07 2.55819e-07)
(0.000794413 -3.28311e-07 -8.32475e-08)
(0.000795449 -2.22499e-07 -2.3658e-08)
(0.00106091 -5.35391e-07 2.05657e-07)
(0.000793241 -1.64682e-07 -5.50455e-08)
(0.000794105 2.28575e-07 5.16796e-08)
(0.00105927 -3.95423e-07 8.35145e-08)
(0.000791925 2.45493e-07 7.19743e-08)
(0.000792901 3.92386e-07 3.76538e-08)
(0.00105766 -9.8465e-08 1.01101e-07)
(0.000791048 6.10934e-07 9.78249e-08)
(0.000791575 -2.26377e-06 5.91574e-08)
(0.00105616 7.23349e-07 2.81614e-07)
(0.000788942 4.73351e-07 5.97882e-08)
(0.000789763 -2.07542e-06 4.04842e-08)
(0.00105426 9.04473e-07 1.94202e-07)
(0.000787529 1.552e-07 3.92833e-08)
(0.000788123 2.04653e-07 6.71835e-08)
(0.00105185 3.49635e-07 1.73295e-07)
(0.000786123 1.1653e-07 4.71098e-08)
(0.000786757 -5.8879e-08 4.28939e-08)
(0.0010499 5.76662e-08 1.72398e-07)
(0.000784843 2.8685e-07 3.39323e-08)
(0.000785382 1.01513e-07 5.87461e-08)
(0.00104812 2.35474e-07 1.7494e-07)
(0.0007835 5.45458e-07 9.86259e-09)
(0.000784073 6.00737e-08 2.9804e-08)
(0.00104649 5.07751e-07 2.02973e-07)
(0.000781093 5.26742e-07 1.43678e-07)
(0.000782337 -8.44747e-07 1.91176e-08)
(0.00104394 9.24635e-07 1.3932e-07)
(0.000779877 2.58022e-07 1.67265e-07)
(0.000780572 2.62218e-07 1.8972e-07)
(0.00104143 4.91394e-07 1.63891e-07)
(0.000778548 9.60093e-08 6.15175e-08)
(0.000779197 -1.653e-08 6.84467e-08)
(0.0010398 2.193e-07 1.73416e-07)
(0.000777071 -5.14294e-08 3.63203e-08)
(0.00077776 2.53559e-07 5.44914e-08)
(0.00103789 2.01687e-08 1.63627e-07)
(0.000775539 -3.01811e-07 3.58763e-08)
(0.000776373 -2.41168e-07 4.3371e-08)
(0.00103585 -1.87029e-07 1.815e-07)
(0.000774912 -2.84148e-07 5.88419e-08)
(0.000775347 3.55212e-07 8.28439e-08)
(0.00103462 -6.48239e-07 2.66529e-07)
(0.000773278 -5.34416e-08 5.56693e-08)
(0.000774094 8.37822e-08 7.62852e-08)
(0.00103299 -1.50016e-07 1.61603e-07)
(0.00077185 1.73255e-07 5.41241e-08)
(0.00077263 1.24343e-07 9.01004e-08)
(0.00103091 -6.70461e-08 1.77579e-07)
(0.000770225 2.19032e-07 1.62271e-08)
(0.000771071 -1.08977e-06 3.35524e-08)
(0.00102897 4.45872e-07 2.21572e-07)
(0.000768744 -5.91493e-09 -4.74117e-08)
(0.000769413 2.71803e-07 2.76496e-08)
(0.00102683 8.08549e-08 1.69093e-07)
(0.000767522 -1.28407e-07 1.79479e-08)
(0.000767966 1.14014e-07 -9.03101e-09)
(0.00102497 -1.53318e-07 1.2372e-07)
(0.00076696 -1.19722e-07 1.15606e-07)
(0.00102359 -2.359e-07 2.32356e-07)
(-0.00103247 -0.00132689 0.000569901)
(-0.00148577 -0.00164251 0.000603733)
(0.00566514 -0.00917992 0.000644004)
(-0.00297561 -0.00281145 4.13102e-05)
(-0.00195747 -0.00299427 4.54197e-05)
(0.0041223 -0.00789027 0.000427458)
(-0.00151344 0.00196636 7.49744e-05)
(-0.00158735 -0.00599613 -2.47712e-05)
(0.00140235 -0.00117565 0.000191369)
(-0.00155278 -0.00110705 0.000295565)
(0.000879773 -0.0049814 -4.05481e-05)
(0.0015799 -0.00216844 0.000745754)
(-0.000330606 0.00021951 -0.000677996)
(-0.00144562 0.00485789 -1.60955e-05)
(0.00366484 0.00366536 2.0622e-05)
(-0.0051433 0.0078576 2.50016e-05)
(0.00266166 -0.00107801 -0.00140098)
(-0.00323453 -0.000136332 -0.000534427)
(0.0010297 -0.0065905 -0.000417767)
(0.00839697 0.000764847 -0.000553585)
(-0.00139341 0.00536954 -0.000528024)
(0.00474309 -0.00340134 -0.00153733)
(0.00278814 0.00217357 1.59327e-05)
(0.00353866 0.00873977 -4.31539e-05)
(0.000793236 0.00680991 7.1712e-06)
(0.00132365 0.00986839 0.000334325)
(0.00139081 0.00982096 -0.000287149)
(0.00082748 -0.00070432 4.42022e-05)
(0.00104722 -0.000404885 0.000116759)
(0.000640712 -0.00105221 4.48132e-05)
(0.00105794 -0.00068346 5.32532e-05)
(0.000714319 -0.000320394 5.62935e-05)
(0.000360993 -6.1987e-05 1.07264e-06)
(0.0004951 -5.31512e-05 -3.15471e-06)
(0.00079382 -0.000107345 8.89196e-07)
(0.000339614 -7.74301e-05 8.22094e-06)
(0.000669311 -0.000121693 7.84558e-06)
(0.000626899 -0.000117715 2.28443e-05)
(0.000469189 -6.9784e-05 -2.14464e-07)
(0.000359839 -5.22189e-05 1.30333e-06)
(0.000648387 -0.000103505 8.19027e-06)
(0.000557667 -0.000100908 -1.65087e-06)
(0.000309379 -5.31372e-05 -1.88607e-06)
(0.000835298 -6.28879e-05 -1.34064e-06)
(0.00090926 -7.44464e-05 -1.89089e-06)
(0.00118107 -9.97607e-05 -1.19379e-06)
(0.000609112 -5.19035e-05 -4.20347e-06)
(0.000619525 -5.13907e-05 -4.88744e-06)
(0.00100418 -8.24927e-05 -5.20447e-06)
(0.0010437 -8.24554e-05 -5.74481e-06)
(0.000832818 -3.96796e-05 -1.33739e-07)
(0.000838804 -4.5394e-05 -3.98266e-07)
(0.00109945 -6.29205e-05 7.56285e-08)
(0.000829222 -2.4968e-05 9.18952e-08)
(0.00084221 -2.82311e-05 1.5993e-07)
(0.00111104 -3.96263e-05 2.02699e-07)
(0.000826153 -1.56595e-05 4.41809e-08)
(0.000832973 -1.74384e-05 1.50178e-08)
(0.00110358 -2.4847e-05 1.78871e-07)
(0.000823477 -9.81916e-06 5.3608e-08)
(0.000828401 -1.08746e-05 5.59513e-08)
(0.00110048 -1.55713e-05 1.83543e-07)
(0.000821062 -6.1399e-06 5.23327e-08)
(0.000824443 -6.73909e-06 5.09024e-08)
(0.00109704 -9.76907e-06 1.82624e-07)
(0.000818891 -3.79448e-06 5.25018e-08)
(0.000821331 -4.12996e-06 5.00288e-08)
(0.00109404 -6.08183e-06 1.82585e-07)
(0.000816982 -2.38741e-06 5.40556e-08)
(0.000818749 -2.54308e-06 5.00002e-08)
(0.00109134 -3.72921e-06 1.82456e-07)
(0.000815253 -1.586e-06 3.57954e-08)
(0.000816547 -1.68173e-06 5.1463e-08)
(0.00108886 -2.45659e-06 1.82848e-07)
(0.000813733 -1.13842e-06 -3.07015e-08)
(0.000814607 -1.56073e-06 1.36145e-08)
(0.00108682 -1.65992e-06 1.38445e-07)
(0.000811628 -7.72081e-07 -2.01733e-08)
(0.000812815 -3.24679e-08 -2.35808e-08)
(0.00108442 -1.31488e-06 1.14719e-07)
(0.000810169 -4.31176e-07 3.97806e-08)
(0.00081114 -6.169e-07 3.56036e-08)
(0.00108205 -7.24075e-07 1.74058e-07)
(0.00080872 -2.15207e-07 4.55003e-08)
(0.000809556 -5.2238e-07 5.24865e-08)
(0.00108007 -4.4224e-07 2.0355e-07)
(0.000807296 -2.7027e-08 3.56515e-08)
(0.000808012 -2.99727e-07 4.91784e-08)
(0.0010782 -1.64052e-07 1.79706e-07)
(0.000805776 9.98908e-08 6.41575e-08)
(0.000806458 7.46358e-08 2.41815e-08)
(0.00107627 6.90995e-08 1.94778e-07)
(0.000803629 -1.32565e-08 8.65718e-08)
(0.000804691 -2.38214e-07 8.51676e-08)
(0.00107371 1.8185e-07 3.01206e-07)
(0.000802246 -2.0769e-07 4.16019e-08)
(0.000803041 -5.34126e-07 4.6262e-08)
(0.00107139 -2.52517e-07 2.09798e-07)
(0.000800543 -1.9183e-07 -1.47489e-08)
(0.000801543 6.70026e-07 4.57289e-08)
(0.00106931 -3.13603e-07 1.59296e-07)
(0.000798966 -1.07814e-07 5.86491e-09)
(0.000799976 -6.14345e-08 8.21809e-09)
(0.00106717 -1.71859e-07 1.26622e-07)
(0.000797426 -1.04743e-07 2.81103e-08)
(0.000798386 -4.30101e-08 5.8136e-08)
(0.00106495 -8.67007e-08 1.91694e-07)
(0.000796254 8.19673e-08 -6.93066e-09)
(0.000797093 4.97488e-07 -4.39143e-09)
(0.0010632 -1.51993e-07 6.40883e-08)
(0.00079524 3.74445e-07 1.11245e-07)
(0.000795812 6.83202e-07 1.16975e-08)
(0.0010619 4.31372e-07 7.041e-08)
(0.00079364 4.76765e-07 1.44383e-07)
(0.000794231 3.61274e-07 1.5191e-07)
(0.00105999 6.70632e-07 1.77e-07)
(0.000792653 4.73989e-07 2.48302e-08)
(0.000792895 5.43283e-07 2.30624e-08)
(0.00105846 7.00627e-07 1.21686e-07)
(0.000790425 2.83124e-07 1.82259e-09)
(0.000791334 1.90265e-09 2.25634e-08)
(0.00105642 6.05427e-07 8.16917e-08)
(0.000788727 9.65923e-08 4.78712e-08)
(0.000789529 1.50081e-07 2.95542e-08)
(0.00105349 1.90533e-07 3.74071e-08)
(0.000787394 8.56397e-08 7.08017e-08)
(0.000788108 2.59971e-08 7.78667e-08)
(0.00105153 9.36884e-08 1.76255e-07)
(0.000785983 7.58293e-08 5.45252e-08)
(0.000786744 -1.52155e-07 5.16086e-08)
(0.00104981 1.12493e-07 1.77182e-07)
(0.000784616 -8.40904e-09 5.46268e-08)
(0.000785276 -1.76059e-08 5.04823e-08)
(0.00104791 7.85792e-08 1.75414e-07)
(0.000783151 -1.54431e-07 3.90624e-08)
(0.000783891 -1.5416e-07 5.06115e-08)
(0.00104604 -7.89701e-08 1.91022e-07)
(0.000781532 -1.50296e-07 6.51076e-08)
(0.000782342 -3.28714e-07 2.20683e-08)
(0.00104402 -2.80932e-07 1.52678e-07)
(0.000779965 -1.71278e-08 9.09399e-08)
(0.000780739 -4.1251e-07 4.97815e-08)
(0.0010418 -8.74157e-08 2.33685e-07)
(0.000778407 9.34782e-08 6.14249e-08)
(0.000779335 -1.68885e-07 6.12698e-08)
(0.0010397 4.40208e-08 1.95438e-07)
(0.000777079 3.14194e-07 6.15455e-08)
(0.000778034 3.07268e-08 7.47106e-08)
(0.0010378 2.24253e-07 1.79916e-07)
(0.000775953 5.277e-07 9.03265e-08)
(0.000776638 -1.39729e-06 7.95766e-08)
(0.0010362 6.57237e-07 2.29398e-07)
(0.000774806 4.49926e-07 1.00289e-07)
(0.000775248 4.39276e-07 7.63541e-08)
(0.00103472 7.93545e-07 1.41637e-07)
(0.000773351 3.14226e-07 1.10712e-07)
(0.000773923 -3.59381e-09 6.83589e-08)
(0.00103296 4.5615e-07 1.82009e-07)
(0.000771958 3.02713e-07 6.9546e-08)
(0.000772614 3.43791e-08 8.46286e-08)
(0.00103117 4.44265e-07 1.76674e-07)
(0.00077014 3.63178e-07 4.49767e-08)
(0.000771145 -7.38027e-09 4.50144e-08)
(0.00102897 4.06415e-07 1.30077e-07)
(0.000768672 3.40235e-07 6.60414e-08)
(0.000769383 3.9424e-07 6.05628e-08)
(0.00102666 5.64386e-07 1.68142e-07)
(0.00076719 1.93325e-07 8.85889e-08)
(0.00076778 1.71457e-07 5.1842e-08)
(0.00102466 3.15875e-07 1.74234e-07)
(0.000766718 -1.04956e-06 1.41321e-07)
(0.00102335 1.79584e-07 2.02692e-07)
(-0.00253558 -0.0042694 7.94382e-05)
(0.00170601 0.00465494 -1.40819e-05)
(-0.00479815 -0.0047669 -0.000272224)
(0.00355337 0.00578667 -0.000259072)
(-0.000984072 0.00686698 -0.000621753)
(0.00296293 0.00924223 -0.00107096)
(-0.00164865 -0.00525105 -2.20157e-05)
(0.0065912 0.00085635 0.000193492)
(0.000425111 -0.000134743 -0.00361413)
(-0.000451999 -0.0037726 0.000159045)
(0.000668708 -0.00594389 -3.77891e-05)
(0.00247939 -0.00588833 -2.80836e-05)
(0.0047866 -0.00407758 -7.68719e-05)
(0.00213982 -0.00283951 -0.00181966)
(-0.00845095 -0.00924526 0.000274892)
(0.000857536 6.19891e-05 -0.00491243)
(0.00123915 -0.00139606 0.00611621)
(0.00167904 -0.000362516 0.00169944)
(-0.000975512 -0.00488562 0.000164208)
(-0.000896837 -0.004873 6.18364e-05)
(0.000329488 -0.00695859 -0.000131346)
(0.00534512 0.00432186 -1.57242e-05)
(0.00129738 -4.85049e-05 3.89374e-05)
(-0.00370577 0.00491334 0.000255672)
(0.000814311 0.00208045 -4.78169e-05)
(0.00106711 0.00654156 -0.0001062)
(0.00393392 0.00161158 -0.000124051)
(0.00211624 0.00507685 -0.000125051)
(-0.0014571 -0.0112641 -3.39465e-05)
(-0.000925894 0.00308973 6.35549e-05)
(-0.00235785 -0.00110961 0.000234927)
(-0.000257765 -0.0099451 -0.000284953)
(0.00273332 -8.45043e-05 0.000685215)
(0.00521864 0.000174963 -0.000257744)
(0.00308482 0.0063219 1.50128e-05)
(0.00896793 0.00260321 0.000302727)
(0.00635404 0.00233967 6.60825e-06)
(0.00681855 0.00647881 -3.65931e-05)
(-0.00168888 -0.00187049 1.04239e-06)
(-0.00154584 -0.000172441 0.000214118)
(-0.00212546 -0.000257034 -2.51351e-05)
(-0.00170041 0.000642448 -3.066e-05)
(-0.00249802 -9.98889e-05 -0.000120482)
(0.000954841 -0.000366682 -6.44436e-05)
(0.00119047 -0.000631013 1.26523e-05)
(0.00129135 -0.00104624 -3.57602e-05)
(0.00177307 -0.00173429 -7.81295e-06)
(0.00115999 -0.000684022 -2.90138e-05)
(1.11643e-05 -0.000727584 -0.000110958)
(0.000723962 -0.000985378 -7.78007e-05)
(0.00128934 -0.00113133 3.09493e-05)
(0.0011882 -0.00049222 3.44316e-05)
(0.00177065 -0.000551875 -5.69188e-05)
(0.000926605 -0.000981727 -1.65837e-05)
(0.00110194 -0.000390915 8.76032e-05)
(0.00134767 -0.00032169 -1.53833e-06)
(0.000951521 -0.000660742 8.73421e-05)
(0.000763052 -0.000127988 1.86712e-05)
(0.000397495 -4.71357e-05 1.44549e-05)
(0.000463061 -9.6494e-05 3.01844e-05)
(0.000599661 -9.43206e-05 4.45428e-05)
(0.000275466 -4.3863e-05 1.02565e-05)
(0.000871942 -5.48925e-05 -9.49005e-07)
(0.000944997 -5.43819e-05 -2.00181e-06)
(0.00124207 -9.29172e-05 -1.25863e-06)
(0.000642329 -6.99608e-05 -4.61508e-06)
(0.00066455 -7.14001e-05 -5.02583e-06)
(0.00106563 -0.000128537 -5.04691e-06)
(0.00111717 -0.000132375 -4.35016e-06)
(0.00085588 -3.10588e-05 -1.04779e-07)
(0.000868463 -2.5955e-05 -3.74819e-07)
(0.00113673 -5.02663e-05 8.82544e-08)
(0.000843699 -1.87127e-05 8.31003e-08)
(0.000857746 -1.54118e-05 1.24447e-07)
(0.00113491 -3.04783e-05 2.10917e-07)
(0.000835122 -1.13084e-05 2.67748e-08)
(0.00084229 -8.68543e-06 3.39857e-10)
(0.00111835 -1.80813e-05 1.80619e-07)
(0.000829047 -6.9389e-06 5.32474e-08)
(0.0008339 -5.31738e-06 8.12098e-08)
(0.00110962 -1.12241e-05 1.85558e-07)
(0.00082455 -4.12586e-06 4.85988e-08)
(0.000827981 -3.1154e-06 4.82064e-08)
(0.00110273 -6.74598e-06 1.82888e-07)
(0.000821044 -2.43241e-06 4.75272e-08)
(0.000823461 -1.72921e-06 3.29737e-08)
(0.00109759 -3.93609e-06 1.81722e-07)
(0.000818242 -1.50698e-06 4.74071e-08)
(0.000819914 -1.01424e-06 4.29598e-08)
(0.00109349 -2.36258e-06 1.8125e-07)
(0.000815834 -9.7557e-07 2.92943e-08)
(0.000817216 -6.23223e-07 4.8204e-08)
(0.00109013 -1.53376e-06 1.79811e-07)
(0.000813714 -7.45299e-07 2.07472e-08)
(0.000814898 -4.53193e-07 2.80913e-08)
(0.00108703 -9.67464e-07 1.51603e-07)
(0.000812224 -7.27561e-07 3.21771e-08)
(0.00081284 -3.60679e-08 4.77826e-08)
(0.00108471 -9.35119e-07 1.73994e-07)
(0.00081054 -5.73428e-07 4.83041e-08)
(0.000811335 -6.02934e-07 5.86479e-08)
(0.00108266 -9.48056e-07 1.89799e-07)
(0.000808845 -3.71017e-07 5.61656e-08)
(0.000809811 -4.17784e-07 6.76936e-08)
(0.00108041 -5.74314e-07 1.84603e-07)
(0.000807119 -3.37901e-07 3.77164e-08)
(0.000808056 -8.33718e-08 1.88508e-07)
(0.00107818 -4.37521e-07 1.79841e-07)
(0.000805522 -3.64817e-07 4.51722e-08)
(0.000806426 -1.6606e-07 3.66915e-08)
(0.00107593 -5.13939e-07 2.0074e-07)
(0.000803968 -3.04651e-07 4.48702e-08)
(0.000804769 3.95425e-08 8.2275e-08)
(0.00107375 -5.09694e-07 1.6098e-07)
(0.00080234 -1.66825e-07 5.03891e-08)
(0.000803215 -1.84226e-08 5.68873e-08)
(0.00107171 -3.37104e-07 1.51146e-07)
(0.000800981 1.32748e-08 6.87078e-08)
(0.000801768 6.11995e-07 7.73436e-08)
(0.00106977 -1.46581e-07 1.68036e-07)
(0.000799422 2.49093e-07 6.04734e-08)
(0.00080027 -1.25305e-08 6.51679e-08)
(0.00106769 1.71433e-07 1.78209e-07)
(0.000797947 5.37821e-07 2.5654e-08)
(0.000798745 5.09164e-07 4.73745e-08)
(0.00106566 5.13904e-07 1.35762e-07)
(0.000796732 5.99025e-07 1.42317e-08)
(0.000797167 7.69968e-07 1.13869e-07)
(0.001064 1.01011e-06 1.32795e-07)
(0.000794807 4.21172e-07 5.23176e-08)
(0.000795587 2.85674e-07 2.08111e-08)
(0.00106193 7.26264e-07 2.42824e-07)
(0.000793401 4.13585e-07 3.06291e-08)
(0.000794218 3.28264e-07 6.22608e-08)
(0.0010596 5.43785e-07 1.71495e-07)
(0.000791796 1.91703e-07 2.07957e-08)
(0.000792615 -1.01602e-06 1.40412e-08)
(0.00105757 7.10033e-07 2.97534e-07)
(0.000790262 -1.042e-07 5.02928e-08)
(0.000790963 -2.10105e-07 6.11906e-08)
(0.00105552 -7.62142e-08 1.95926e-07)
(0.000788894 -4.43059e-08 5.95346e-08)
(0.000789604 -5.40306e-08 5.12255e-08)
(0.00105362 -1.37682e-07 1.81012e-07)
(0.000787512 1.49026e-08 5.86817e-08)
(0.000788182 -1.87481e-07 5.34044e-08)
(0.00105176 4.1607e-08 1.83084e-07)
(0.000785985 1.46734e-08 4.7566e-08)
(0.000786744 -7.62556e-08 4.80798e-08)
(0.00104988 6.52442e-09 1.75477e-07)
(0.000784548 -4.19342e-08 4.6467e-08)
(0.000785206 6.66734e-08 -1.91417e-08)
(0.00104788 1.41086e-08 1.67082e-07)
(0.000783166 -2.07709e-07 3.36263e-08)
(0.000783685 -1.7016e-07 6.12732e-08)
(0.00104604 -1.45627e-07 1.69434e-07)
(0.000781459 -3.27366e-07 6.73366e-09)
(0.000782194 -3.25264e-07 3.33054e-08)
(0.00104393 -4.32074e-07 1.97269e-07)
(0.000780139 -2.48262e-07 2.01079e-08)
(0.000780839 6.02243e-07 3.50402e-08)
(0.00104183 -4.72597e-07 8.99933e-08)
(0.000778904 -3.50676e-08 7.45513e-08)
(0.000779602 -1.39329e-07 5.25817e-08)
(0.00104018 -1.77325e-07 1.53266e-07)
(0.000777693 1.42537e-07 9.27401e-08)
(0.000778256 7.39255e-08 9.07885e-08)
(0.00103865 1.32007e-07 1.50207e-07)
(0.000775815 1.77314e-07 6.56052e-08)
(0.00077668 -8.17426e-08 6.46753e-08)
(0.00103656 3.11019e-07 1.18641e-07)
(0.000774392 8.83004e-08 4.44262e-08)
(0.000775135 1.37594e-08 5.8871e-08)
(0.00103436 2.3253e-07 2.03508e-07)
(0.000773186 1.6794e-08 4.22705e-08)
(0.000773833 2.66751e-08 4.48309e-08)
(0.00103254 5.54739e-08 1.5082e-07)
(0.000771857 6.95248e-09 6.01092e-08)
(0.000772602 -4.41122e-09 4.66585e-08)
(0.00103084 1.24242e-08 1.67182e-07)
(0.000770451 1.32057e-07 6.05958e-08)
(0.000771301 9.26071e-07 4.42121e-08)
(0.00102912 -4.56315e-09 1.03407e-07)
(0.000768396 2.01509e-07 4.6366e-08)
(0.000769469 1.20433e-06 4.51736e-08)
(0.00102672 3.10955e-07 1.7146e-07)
(0.000767157 1.96525e-07 1.04547e-07)
(0.000767771 -3.5196e-08 5.22471e-08)
(0.00102448 2.02901e-07 1.71409e-07)
(0.000766474 -1.29197e-06 1.08149e-07)
(0.00102297 3.27421e-07 1.96357e-07)
(0.00663285 0.0132438 -0.000246536)
(0.00119344 0.00869195 0.000873818)
(0.00243801 0.0133715 -0.000784029)
(0.0126464 0.00182645 3.18048e-05)
(0.000339382 0.00410647 -0.00119617)
(0.00695854 0.00195239 -0.00055471)
(0.00860836 0.0108671 -8.90166e-05)
(0.000552544 -0.00364933 -0.000667639)
(0.00134722 -0.00627519 7.81205e-05)
(0.00434854 -0.00666546 -9.88487e-05)
(0.00729536 -0.00781931 -0.0047892)
(-0.00265013 -0.0139285 0.00241154)
(0.0048622 -0.0111474 -0.000999979)
(-0.00038724 -0.0119434 0.00454783)
(0.00249558 -0.00584157 -0.00143974)
(-0.00477601 -0.00399104 8.3495e-05)
(-0.00279663 -0.00589808 -8.85416e-05)
(0.00115146 -0.00788335 -0.000643867)
(0.0026036 0.00232987 -9.83046e-06)
(-0.00363288 -0.00129808 0.000263887)
(5.44836e-05 -0.00854216 5.44869e-05)
(0.002256 -0.000173913 -0.000594164)
(0.00174879 0.00420247 3.66246e-05)
(0.001698 0.000706229 -0.000497586)
(0.000126445 0.00709048 0.000390809)
(0.0026286 0.00658158 -2.1349e-05)
(0.00519655 -0.00481086 0.00195022)
(0.00141736 0.000149856 -0.000195514)
(0.00663003 0.0027686 -0.000518551)
(0.00291644 8.03386e-05 0.000473663)
(-0.00046049 -0.00218701 -0.000197529)
(-0.00438926 -0.00254397 -0.000542302)
(-0.00011468 -0.00222378 -0.000116313)
(-0.000962311 -0.00203409 -7.98975e-05)
(-0.00201871 -0.00479729 -0.000370093)
(0.00132591 -0.00131847 -1.68113e-05)
(0.00109986 -0.0010983 -3.20356e-05)
(0.00175168 -0.000552728 -7.27122e-06)
(0.00130121 -0.00161408 -5.09155e-05)
(0.000860083 -0.000932153 4.63825e-05)
(0.00126785 -0.00319215 -8.18223e-05)
(0.00158695 -0.00100155 0.000142947)
(0.00162445 -0.00079887 -4.83863e-05)
(0.00129262 -0.000643523 1.16931e-05)
(0.00137076 -0.000624363 -6.37546e-06)
(0.00142111 -0.000723899 5.13928e-06)
(0.00226038 0.000159943 9.68404e-05)
(0.000521345 -0.00014928 6.79555e-05)
(0.000597353 -8.27595e-05 7.28448e-05)
(0.000825517 -0.000143545 0.000143308)
(0.000510973 -8.17982e-05 4.26263e-05)
(0.000908288 -1.32345e-05 -1.42815e-06)
(0.000949124 2.23982e-05 -2.41235e-06)
(0.00127467 -2.50353e-05 -1.75062e-06)
(0.000711595 -2.70176e-06 -5.21908e-06)
(0.000686213 2.33531e-05 -3.63837e-06)
(0.00121506 3.85514e-06 -3.78936e-06)
(0.00118064 6.3311e-05 1.15601e-06)
(0.000874676 -5.59611e-06 -1.45757e-07)
(0.000878538 1.48569e-05 -3.13608e-07)
(0.00117703 -9.397e-06 1.28779e-07)
(0.000853639 -3.02265e-06 4.17271e-08)
(0.000860981 8.77196e-06 1.07232e-07)
(0.00115154 -5.218e-06 1.91167e-07)
(0.000840252 -1.47624e-06 5.47485e-08)
(0.000844234 5.94601e-06 6.65463e-08)