/*--------------------------------*- C++ -*----------------------------------*\
| =========                 |                                                 |
| \\      /  F ield         | OpenFOAM: The Open Source CFD Toolbox           |
|  \\    /   O peration     | Version:  5.0                                   |
|   \\  /    A nd           | Web:      www.OpenFOAM.org                      |
|    \\/     M anipulation  |                                                 |
\*---------------------------------------------------------------------------*/
FoamFile
{
    version     2.0;
    format      ascii;
    class       surfaceVectorField;
    location    "4.1";
    object      Uf_0;
}
// * * * * * * * * * * * * * * * * * * * * * * * * * * * * * * * * * * * * * //

dimensions      [0 1 -1 0 0 0 0];

internalField   nonuniform List<vector> 
23167
(
(-0.0115087 0.00221935 -0.000105047)
(-0.00101414 0.00160835 -0.000308764)
(0.00272387 -0.00744679 0.000644625)
(0.00192905 -0.00303595 0.000849846)
(-0.00972519 0.00593082 -6.43787e-05)
(-0.00776259 0.00105825 -0.000970705)
(-0.015139 -0.000272011 -0.000594398)
(0.005545 -0.0041941 0.00174299)
(-0.016897 -0.00458501 -0.00180032)
(-0.00303431 0.00187308 0.0010383)
(-0.00383474 -0.00272445 0.000426187)
(0.000542319 -0.000528686 0.00113187)
(-0.00975173 0.00612865 -0.000352182)
(-0.00245083 0.00572755 -0.000662355)
(-0.00181402 -0.00444471 -0.000619632)
(0.0032441 0.0032223 0.017524)
(0.00338136 0.00709861 -0.0173352)
(0.00723933 0.000447369 0.00840497)
(0.00410088 -0.00341947 -0.00760075)
(0.000617226 -0.000910769 1.4688e-05)
(-0.0098545 -0.00421491 -0.000223914)
(-0.00452918 -0.0024668 0.000390667)
(-0.00304677 -0.00946538 0.000635178)
(-5.39788e-05 0.00248766 -0.000127997)
(0.000748055 0.00306755 -8.32787e-05)
(-0.00411677 0.00621855 -5.34822e-05)
(0.0023056 0.0042626 -0.000296267)
(0.00109722 4.63047e-05 6.50237e-05)
(0.000447008 -2.01929e-05 4.47715e-05)
(0.000565953 3.20863e-06 4.55636e-05)
(0.000621774 6.72199e-06 2.14093e-05)
(0.000818613 -1.60609e-05 -1.16086e-06)
(0.000567419 -2.03072e-05 -1.32274e-06)
(0.00110411 -4.1392e-05 -1.45189e-06)
(0.00057926 -6.02472e-06 -3.90271e-06)
(0.000569989 -2.73553e-05 -3.623e-06)
(0.0009772 -5.97218e-06 -1.08677e-06)
(0.000965481 -5.27148e-05 -8.62495e-07)
(0.000547384 -3.84666e-05 -4.22391e-06)
(0.000953924 -4.27069e-05 -8.50141e-07)
(0.00090757 -6.72762e-05 -5.0694e-06)
(0.000813896 -6.96432e-06 -5.69156e-08)
(0.000838573 -4.64491e-06 -5.73602e-07)
(0.00108345 -4.04201e-06 1.37409e-07)
(0.000819471 -9.36163e-06 7.38456e-08)
(0.000811909 -1.58054e-05 -2.04752e-07)
(0.00108785 -1.54702e-05 1.81557e-07)
(0.000821744 -6.3412e-06 9.13944e-08)
(0.000823592 -1.00076e-05 1.44697e-07)
(0.00109424 -9.76141e-06 1.82059e-07)
(0.000823618 -4.48706e-06 3.56112e-08)
(0.000824191 -7.29322e-06 5.97148e-08)
(0.0010967 -7.23503e-06 1.88819e-07)
(0.000824245 -2.88842e-06 1.98799e-08)
(0.000825342 -4.85171e-06 2.99934e-08)
(0.0010988 -4.76788e-06 1.75265e-07)
(0.000823889 -1.82774e-06 4.7253e-08)
(0.000825044 -3.30114e-06 4.79568e-08)
(0.00109892 -2.94449e-06 1.8267e-07)
(0.000823171 -1.20739e-06 2.82429e-08)
(0.000824246 -2.09757e-06 5.24973e-08)
(0.00109814 -1.92112e-06 1.83833e-07)
(0.000822365 -8.33594e-07 3.05479e-08)
(0.000823226 -1.83161e-06 5.77579e-08)
(0.00109716 -1.29711e-06 1.96422e-07)
(0.000821223 -6.23134e-07 5.47648e-08)
(0.000821972 -9.51228e-07 5.31048e-08)
(0.00109582 -9.20767e-07 1.82035e-07)
(0.00082018 -5.50598e-07 5.2301e-08)
(0.00082068 -7.63651e-07 2.66033e-08)
(0.0010945 -7.25927e-07 1.87958e-07)
(0.000817791 -4.50739e-07 1.03171e-07)
(0.000819129 1.02598e-06 5.64779e-08)
(0.00109211 -7.04801e-07 1.80839e-07)
(0.000816439 -3.43208e-07 1.04367e-07)
(0.000817458 -4.58654e-07 9.20009e-08)
(0.00108955 -4.7521e-07 1.77521e-07)
(0.000815364 -2.01485e-07 6.61079e-08)
(0.000816072 -2.08678e-08 6.71458e-08)
(0.00108812 -4.23069e-07 9.224e-08)
(0.000813844 -1.60878e-07 4.60362e-08)
(0.000814488 -5.64873e-07 6.32207e-08)
(0.00108629 -5.71648e-08 2.06494e-07)
(0.000812215 -1.41399e-07 3.18664e-08)
(0.000813002 -4.99705e-08 5.04617e-08)
(0.00108416 -2.7121e-07 1.75059e-07)
(0.000810625 1.02174e-07 6.0955e-08)
(0.0008117 -1.78611e-07 7.99354e-08)
(0.00108207 2.83914e-09 1.90805e-07)
(0.000809205 2.90182e-07 6.03091e-08)
(0.000810124 -8.16824e-07 1.88919e-08)
(0.00108007 3.45591e-07 2.13365e-07)
(0.000807804 2.81363e-07 5.97485e-08)
(0.000808458 7.43068e-07 6.20803e-08)
(0.00107814 5.1558e-07 1.26714e-07)
(0.000806525 1.51408e-07 5.94517e-08)
(0.000806919 -7.12488e-07 8.75716e-08)
(0.00107631 3.17217e-07 2.21855e-07)
(0.000805132 1.30947e-07 3.76202e-08)
(0.00080559 -5.92753e-08 4.93376e-08)
(0.00107476 1.22701e-07 1.78952e-07)
(0.000802519 2.14008e-08 9.92098e-08)
(0.000803745 1.17815e-06 4.87142e-08)
(0.00107195 2.264e-07 2.45271e-07)
(0.000801217 -3.80672e-07 5.81795e-08)
(0.000801748 -3.06781e-07 8.97682e-08)
(0.00106924 -2.20884e-07 1.72508e-07)
(0.000799907 -5.68709e-07 -3.44314e-08)
(0.000800481 1.86965e-06 3.79217e-08)
(0.00106768 -8.62264e-07 -2.16047e-08)
(0.000798235 -3.94654e-07 4.28116e-08)
(0.000799187 1.04291e-06 6.08483e-09)
(0.00106554 -6.98277e-07 9.56905e-08)
(0.000797049 -2.23368e-07 6.8652e-08)
(0.000797794 -8.17743e-08 1.35828e-07)
(0.00106366 -3.91301e-07 2.02001e-07)
(0.000795867 -3.93169e-08 4.25438e-08)
(0.00079661 1.24285e-07 1.48275e-07)
(0.00106223 -2.05797e-07 1.22326e-07)
(0.000794332 6.84965e-08 6.24047e-08)
(0.000795114 6.63735e-08 4.70559e-08)
(0.00106044 1.39824e-07 1.78941e-07)
(0.000792823 1.40539e-07 8.36629e-08)
(0.000793477 -6.9785e-08 5.59654e-08)
(0.00105837 1.15781e-07 1.18444e-07)
(0.000790613 2.0749e-07 6.45406e-08)
(0.000791833 -4.82341e-08 6.66386e-08)
(0.00105578 3.14346e-07 1.58528e-07)
(0.000789384 2.80712e-07 3.86099e-08)
(0.000790232 1.15568e-07 4.84041e-08)
(0.00105344 2.73024e-07 1.63953e-07)
(0.000787868 4.06778e-07 5.3149e-08)
(0.000788799 2.79027e-07 3.77855e-08)
(0.00105173 5.4207e-07 1.86327e-07)
(0.000787089 2.45669e-07 5.00308e-08)
(0.000787407 -1.13311e-06 3.66704e-08)
(0.0010503 5.75628e-07 1.97655e-07)
(0.000785596 1.37707e-09 4.25577e-08)
(0.000786061 8.95833e-08 4.37165e-08)
(0.00104869 8.05241e-08 1.76418e-07)
(0.000784128 -3.2634e-07 8.92217e-08)
(0.00078453 -1.13559e-07 6.02134e-08)
(0.00104661 -5.8103e-08 1.76747e-07)
(0.000782653 -4.87884e-07 1.8295e-07)
(0.00078326 1.48957e-06 9.93864e-08)
(0.00104492 -7.57303e-07 2.29465e-07)
(0.000781058 -2.57098e-07 1.51054e-07)
(0.000781988 -5.02391e-07 1.31425e-07)
(0.00104271 -4.82433e-07 1.90245e-07)
(0.000779586 -1.62989e-07 6.59576e-08)
(0.000780366 1.09779e-07 4.87218e-08)
(0.00104062 -2.00425e-07 1.71641e-07)
(0.000778174 -2.20918e-07 6.72544e-08)
(0.000778837 -3.0347e-08 6.36408e-08)
(0.00103875 -2.55983e-07 1.79901e-07)
(0.000776832 -3.72104e-07 1.06148e-07)
(0.000777476 -1.53648e-07 6.66548e-08)
(0.00103684 -3.18396e-07 1.94745e-07)
(0.000775443 -3.96382e-07 6.33706e-08)
(0.00077617 -3.9766e-07 9.72418e-08)
(0.00103523 -6.1961e-07 1.72799e-07)
(0.0007736 -2.63562e-07 1.99654e-08)
(0.000774516 1.30894e-06 3.24705e-08)
(0.00103293 -4.06708e-07 8.20145e-08)
(0.000773108 -4.87896e-07 4.63817e-08)
(0.00103055 -3.10031e-07 2.62006e-07)
(0.00330193 0.0076188 -0.000410898)
(0.00128329 0.00610728 0.000129461)
(-0.00182648 -0.00274356 -0.0005068)
(0.00678391 0.00541895 0.000100649)
(0.00120858 0.000851103 1.77713e-05)
(-0.000955576 0.00358537 4.7582e-05)
(0.00280057 0.00391641 -9.04389e-05)
(0.00180279 0.00078136 0.000112799)
(0.00505575 0.00100606 0.000177825)
(-0.00191027 0.00255015 -0.000519481)
(0.00218657 -0.00329236 0.000161169)
(-0.00289133 -0.00291686 -0.00171793)
(0.00875841 -0.00251674 -0.000193556)
(0.00377703 0.00485946 0.00012194)
(-0.000346282 0.00507097 -0.000134197)
(-0.00374027 0.00473719 -0.000438935)
(0.00063165 -0.00269307 1.8778e-05)
(-0.000452775 0.000613357 0.000791836)
(0.00352147 -0.0012825 0.000200616)
(-0.000280995 -0.00303704 -0.000421491)
(-0.00110105 0.00261 0.000326571)
(0.00373505 -0.011284 -6.09088e-05)
(-0.00208371 0.0012399 0.000920332)
(-0.0040087 0.0067363 -8.67189e-05)
(-0.00100433 -0.000733178 0.000270435)
(0.000837314 0.000145622 0.000276339)
(-2.05849e-05 0.00241045 0.000844709)
(-0.00581843 -0.00256785 7.69023e-05)
(-0.00555183 -0.00466501 0.00014293)
(-0.00906427 -0.00148992 -5.30386e-05)
(-0.00593738 -0.00373908 0.000160005)
(-0.0102774 -0.00554175 0.000374343)
(0.000951994 -8.61295e-05 5.26764e-05)
(0.000826682 -2.5413e-06 1.71172e-06)
(0.0011061 0.000166336 6.5121e-06)
(0.000978801 -5.45921e-06 -1.99619e-05)
(0.00105365 -3.61495e-05 1.87312e-05)
(0.000301867 -2.79343e-05 -2.29173e-06)
(0.000455907 -2.76787e-05 -3.20956e-06)
(0.000445194 -4.19388e-05 -1.92614e-07)
(0.000726456 -4.42582e-05 -1.0499e-06)
(0.000303558 -3.16214e-05 -2.1295e-06)
(0.000545538 -5.99365e-05 -3.47834e-06)
(0.000552582 -6.95529e-05 -2.48372e-06)
(0.000813344 -2.1376e-05 -7.21558e-07)
(0.000873188 -4.04766e-05 -1.60668e-06)
(0.0011511 -2.88765e-05 -9.13294e-07)
(0.000576515 -2.65698e-05 -3.83325e-06)
(0.000593454 -2.73442e-05 -4.75723e-06)
(0.00094264 -5.39384e-05 -4.67893e-06)
(0.000980191 -5.49092e-05 -6.07498e-06)
(0.000821798 -1.77482e-05 -1.34015e-07)
(0.000816525 -2.67925e-05 -4.28539e-07)
(0.00107614 -2.94372e-05 7.35918e-08)
(0.000825265 -1.15225e-05 1.13045e-07)
(0.000831453 -1.67646e-05 1.67493e-07)
(0.0011012 -1.86454e-05 2.12101e-07)
(0.000826352 -7.68462e-06 5.41066e-08)
(0.000829039 -1.06722e-05 4.0616e-08)
(0.0011007 -1.25546e-05 1.82704e-07)
(0.000826227 -5.0674e-06 5.80644e-08)
(0.000828647 -6.77128e-06 6.0642e-08)
(0.00110196 -8.21594e-06 1.86357e-07)
(0.000825437 -3.31733e-06 5.31997e-08)
(0.000827253 -4.34501e-06 5.32569e-08)
(0.00110122 -5.4781e-06 1.83828e-07)
(0.000824341 -2.11028e-06 8.20107e-08)
(0.000825769 -2.75937e-06 5.34549e-08)
(0.00109996 -3.49909e-06 1.84052e-07)
(0.000822883 -1.36166e-06 8.03164e-08)
(0.000824171 -1.79999e-06 8.17453e-08)
(0.00109829 -2.22614e-06 1.67966e-07)
(0.000821345 -9.23546e-07 2.49518e-08)
(0.000822526 -1.0001e-06 5.37684e-08)
(0.00109635 -1.47804e-06 1.80618e-07)
(0.000819797 -7.16985e-07 3.07706e-08)
(0.000820942 3.52805e-07 5.07138e-08)
(0.00109424 -1.04122e-06 1.01175e-07)
(0.000818745 -4.5431e-07 4.5296e-08)
(0.000819461 1.16552e-06 9.65403e-08)
(0.00109248 -8.82846e-07 1.25948e-07)
(0.000816995 -2.80165e-08 5.47875e-08)
(0.000817992 -2.85319e-07 3.55679e-08)
(0.00109063 -3.13037e-07 1.84252e-07)
(0.000815333 1.50467e-07 6.42599e-08)
(0.000816295 3.0838e-07 6.31854e-08)
(0.00108841 2.19829e-07 1.65833e-07)
(0.000813436 3.2822e-07 6.76502e-08)
(0.000814709 2.45589e-07 4.81307e-08)
(0.00108601 1.45861e-07 1.53085e-07)
(0.000812632 4.44059e-07 9.85213e-08)
(0.000813145 -2.6257e-06 5.49949e-08)
(0.00108414 6.94013e-07 2.94012e-07)
(0.000811205 3.78859e-07 3.78918e-08)
(0.000811617 -1.78189e-06 3.25354e-08)
(0.00108276 4.70235e-07 2.80849e-07)
(0.00080935 2.91925e-07 2.06494e-08)
(0.000810014 1.75267e-07 1.48181e-08)
(0.00108059 5.41507e-07 1.37313e-07)
(0.000807559 1.21155e-07 8.98953e-08)
(0.000808244 -1.57619e-09 5.18039e-08)
(0.00107805 2.45722e-07 2.53454e-07)
(0.000805938 -6.84349e-08 7.74695e-08)
(0.000806682 -1.15743e-07 6.58019e-08)
(0.00107576 1.00339e-07 1.44724e-07)
(0.000804462 -5.33458e-07 6.04317e-08)
(0.00080501 -1.83576e-07 5.75767e-08)
(0.0010738 -2.61084e-07 1.82972e-07)
(0.000802824 -7.35922e-07 3.92596e-08)
(0.000803494 1.1521e-06 1.3991e-08)
(0.00107171 -1.15131e-06 1.90596e-07)
(0.000800789 -5.44341e-07 6.95267e-08)
(0.00080199 2.2509e-06 5.3221e-08)
(0.00106915 -7.92549e-07 4.34309e-08)
(0.000799916 -3.84014e-07 7.84479e-08)
(0.000800684 -1.14191e-07 1.11268e-07)
(0.00106736 -6.29167e-07 2.61942e-07)
(0.000798716 -6.26959e-09 9.90605e-08)
(0.000799659 -1.59549e-07 4.40922e-08)
(0.001066 -3.68394e-07 2.36039e-07)
(0.0007973 3.53286e-07 2.15447e-07)
(0.000798242 5.4871e-07 2.30585e-07)
(0.00106421 4.16364e-07 1.25484e-07)
(0.000796021 2.64962e-07 1.52819e-07)
(0.000796498 7.37058e-07 1.94366e-07)
(0.00106252 6.08586e-07 1.14744e-07)
(0.000794097 5.01826e-08 4.06138e-08)
(0.000794845 6.39367e-07 6.8128e-08)
(0.00106034 1.4794e-07 1.75277e-07)
(0.000792669 -2.95937e-08 3.89378e-08)
(0.000793376 -7.94949e-08 4.41431e-08)
(0.00105801 1.0147e-08 1.72743e-07)
(0.000791302 3.53126e-08 5.05077e-08)
(0.000791914 -2.37193e-07 5.38866e-08)
(0.00105619 -5.96597e-08 1.80511e-07)
(0.000789683 2.16068e-07 4.75829e-08)
(0.000790456 1.53452e-07 5.46537e-08)
(0.0010543 2.14291e-07 1.87116e-07)
(0.000788271 3.47092e-07 2.13072e-08)
(0.000788961 3.48412e-07 4.18436e-08)
(0.0010522 4.49642e-07 1.6651e-07)
(0.000786381 2.57215e-07 3.03539e-08)
(0.000787293 -4.97924e-07 1.55594e-08)
(0.00104992 5.47049e-07 1.68987e-07)
(0.000785119 1.2404e-08 6.13671e-08)
(0.000785754 -8.45091e-08 6.1797e-08)
(0.00104789 1.58736e-07 1.7087e-07)
(0.00078346 -2.12656e-07 7.03661e-08)
(0.000784249 2.87688e-07 2.42241e-09)
(0.0010459 -1.17624e-07 1.65286e-07)
(0.000782721 -4.07102e-07 4.78512e-08)
(0.000783018 2.73145e-07 1.35025e-07)
(0.00104425 -4.23322e-07 1.99282e-07)
(0.000781357 -3.7031e-07 2.91175e-08)
(0.000782036 -2.25139e-07 5.84485e-08)
(0.00104305 -6.61292e-07 1.47851e-07)
(0.000779532 -2.32071e-07 4.64005e-08)
(0.000780541 4.23307e-07 4.76431e-08)
(0.00104084 -3.43767e-07 1.87006e-07)
(0.000778103 -9.79789e-08 6.30403e-08)
(0.000779005 -7.49082e-08 5.59863e-08)
(0.00103866 -2.88788e-07 1.77227e-07)
(0.000776829 -7.54028e-08 5.77395e-08)
(0.000777505 2.89482e-07 7.04019e-08)
(0.00103694 4.03538e-08 1.27593e-07)
(0.000775379 -2.70235e-07 6.63613e-08)
(0.000775926 -4.57247e-07 6.05977e-08)
(0.00103505 -1.95058e-07 1.80161e-07)
(0.000773771 -3.09798e-07 5.88826e-08)
(0.000774469 4.19114e-07 7.16516e-08)
(0.00103292 -4.89028e-07 2.55511e-07)
(0.000773494 6.96928e-08 5.0975e-08)
(0.00103153 -3.20353e-07 8.59381e-08)
(-0.00108295 -0.00121143 0.000558168)
(-0.00141707 -0.000735507 0.000589489)
(0.00554509 -0.00921371 0.000617439)
(-0.00326234 -0.00266595 2.98902e-05)
(-0.00184714 -0.00265799 4.31133e-05)
(0.00401423 -0.00792858 0.000417841)
(-0.00178183 0.00199955 6.91232e-05)
(-0.0016319 -0.0059101 -1.76415e-05)
(0.00130981 -0.00104888 0.000171144)
(-0.00184007 -0.000999934 0.000288388)
(0.00116819 -0.00543961 -5.70424e-05)
(0.00141927 -0.00210932 0.000786002)
(-0.000853094 0.000369217 -0.000589679)
(-0.0016957 0.00484474 -1.77261e-05)
(0.00345527 0.00367038 1.78246e-05)
(-0.00537881 0.0076071 2.83193e-05)
(0.00253289 -0.00141885 -0.00142419)
(-0.00351203 -0.000392851 -0.000512402)
(0.000507626 -0.00636516 -0.000361128)
(0.00764173 0.000913412 -0.000509394)
(-0.00190969 0.00529951 -0.000457604)
(0.00435829 -0.00350587 -0.00149788)
(0.00257001 0.00349033 8.53371e-06)
(0.00357925 0.00985786 -6.24467e-05)
(0.000652401 0.00770249 7.26585e-06)
(0.00110121 0.0113639 0.000438442)
(0.00131846 0.0117093 -0.000283919)
(0.000759943 -0.000608168 4.43157e-05)
(0.000988024 -0.000294958 0.000116254)
(0.000589672 -0.000971355 4.45304e-05)
(0.000996321 -0.000561376 5.26452e-05)
(0.000677236 -0.000250079 5.48851e-05)
(0.000348462 -4.76468e-05 1.0902e-06)
(0.000487882 -3.16935e-05 -3.19585e-06)
(0.000770849 -7.27879e-05 7.37888e-07)
(0.00032881 -6.4284e-05 7.93425e-06)
(0.000647238 -9.85989e-05 8.00362e-06)
(0.000607318 -9.64021e-05 2.21595e-05)
(0.000458576 -4.44406e-05 -2.32325e-07)
(0.000350768 -3.9521e-05 1.25617e-06)
(0.000631802 -8.36155e-05 8.0205e-06)
(0.000547759 -8.12305e-05 -1.56719e-06)
(0.000303553 -4.03116e-05 -1.83531e-06)
(0.000834605 -3.88094e-05 -1.31404e-06)
(0.000901856 -4.9738e-05 -1.81677e-06)
(0.00117672 -6.50444e-05 -1.16044e-06)
(0.00060603 -2.90382e-05 -4.15303e-06)
(0.00061376 -3.0827e-05 -4.77458e-06)
(0.000998605 -4.76981e-05 -5.1402e-06)
(0.00103279 -5.23397e-05 -5.6022e-06)
(0.00083555 -2.36222e-05 -1.27227e-07)
(0.000835847 -2.85018e-05 -2.66921e-07)
(0.00110086 -3.96358e-05 8.15358e-08)
(0.0008338 -1.45141e-05 9.5105e-08)
(0.000842938 -1.69367e-05 1.65826e-07)
(0.00111555 -2.43644e-05 2.06852e-07)
(0.00083175 -8.98788e-06 4.7145e-08)
(0.000836011 -1.01127e-05 -8.80589e-08)
(0.00110987 -1.50772e-05 1.80667e-07)
(0.000829641 -5.61166e-06 5.5837e-08)
(0.000832907 -6.20755e-06 5.77989e-08)
(0.00110774 -9.39102e-06 1.85646e-07)
(0.000827588 -3.52904e-06 5.35121e-08)
(0.000829881 -3.81868e-06 5.27562e-08)
(0.00110488 -5.89548e-06 1.8417e-07)
(0.000825643 -2.2449e-06 5.31804e-08)
(0.00082739 -2.35785e-06 5.20207e-08)
(0.00110224 -3.72119e-06 1.83981e-07)
(0.000823772 -1.44435e-06 5.52064e-08)
(0.000825182 -1.49537e-06 5.19481e-08)
(0.00109971 -2.39101e-06 1.84568e-07)
(0.000822128 -9.06405e-07 7.95314e-08)
(0.000823205 -9.9857e-07 5.37438e-08)
(0.00109732 -1.54592e-06 1.86256e-07)
(0.000820492 -6.01054e-07 1.16469e-07)
(0.000821328 -1.72745e-06 7.2913e-08)
(0.00109525 -9.52032e-07 3.29307e-07)
(0.000818803 -4.40651e-07 8.68319e-08)
(0.000819664 3.87316e-07 8.16047e-08)
(0.00109303 -7.48277e-07 2.44431e-07)
(0.000817368 -3.79771e-07 4.3957e-08)
(0.000818071 -4.61174e-07 3.57181e-08)
(0.00109094 -5.08814e-07 1.81072e-07)
(0.000815508 -2.68561e-07 4.70611e-08)
(0.000816436 3.1295e-07 6.20506e-08)
(0.00108869 -5.37148e-07 2.05582e-07)
(0.000814545 -1.4905e-08 3.54733e-08)
(0.000815028 -5.49377e-07 5.02068e-08)
(0.00108688 -2.01169e-07 1.83567e-07)
(0.000811995 6.36797e-08 -1.09838e-08)
(0.000813244 -1.03205e-06 4.76317e-09)
(0.00108457 1.09566e-07 1.55556e-07)
(0.000810595 -1.42574e-07 9.46738e-09)
(0.00081136 -5.08171e-07 -8.52755e-09)
(0.00108188 1.6403e-08 7.7757e-08)
(0.00080878 -2.05332e-07 4.59609e-08)
(0.000809936 6.38633e-07 1.86697e-07)
(0.00107979 -4.02781e-07 1.70736e-07)
(0.000807387 -1.55832e-07 2.77061e-08)
(0.000808306 -2.20784e-07 4.63141e-08)
(0.00107758 -1.51868e-07 1.81801e-07)
(0.000805835 -1.80555e-07 4.59118e-08)
(0.000806651 3.59108e-09 4.45346e-08)
(0.00107568 -2.49739e-07 1.72222e-07)
(0.000803897 -1.37887e-07 1.11498e-08)
(0.000805064 -2.36243e-07 7.22167e-08)
(0.0010732 -1.74691e-07 2.18509e-07)
(0.000802801 8.03237e-08 2.79401e-08)
(0.000803766 -7.86394e-07 1.97342e-08)
(0.00107129 -1.30833e-07 2.77561e-07)
(0.000801611 4.89301e-07 9.49438e-08)
(0.000802499 -1.14661e-06 6.46388e-08)
(0.0010699 4.23773e-07 3.89354e-07)
(0.000800563 6.75975e-07 7.69331e-08)
(0.000800914 -1.1301e-06 5.50343e-08)
(0.00106821 9.46815e-07 2.09028e-07)
(0.000799235 5.44528e-07 1.75558e-07)
(0.000799492 -1.7696e-06 3.58109e-09)
(0.00106685 8.82421e-07 2.76252e-07)
(0.000797523 3.78844e-07 2.09515e-07)
(0.000798033 3.12478e-07 1.64579e-07)
(0.00106488 5.98527e-07 2.13346e-07)
(0.00079522 1.7624e-07 1.09715e-07)
(0.000796243 1.35012e-07 9.08799e-08)
(0.00106189 4.3349e-07 2.92141e-07)
(0.000794101 6.2115e-08 7.16647e-08)
(0.000794701 2.54191e-07 7.29888e-08)
(0.00105969 4.36659e-08 1.7183e-07)
(0.000792653 9.24113e-08 5.90889e-08)
(0.000793414 -1.54874e-07 8.15779e-08)
(0.00105811 1.1434e-07 1.79219e-07)
(0.000791056 7.53145e-08 5.80323e-08)
(0.000791892 -5.1743e-08 8.92461e-08)
(0.00105603 1.24096e-07 1.74323e-07)
(0.000789682 8.55697e-08 4.89183e-08)
(0.000790469 3.98318e-08 4.40671e-08)
(0.00105407 7.4936e-08 1.76005e-07)
(0.00078811 7.03887e-08 3.6104e-08)
(0.000788942 5.49877e-07 2.42506e-08)
(0.00105214 1.23346e-07 1.71367e-07)
(0.000786531 6.41936e-08 4.69883e-08)
(0.000787285 -3.40031e-08 -3.24591e-08)
(0.00104993 3.03939e-08 1.5332e-07)
(0.000785017 1.48788e-07 2.87065e-09)
(0.00078586 3.32885e-08 6.2654e-08)
(0.00104786 1.24685e-07 1.72605e-07)
(0.00078351 3.51967e-07 6.7041e-08)
(0.000784501 4.06837e-07 4.04208e-09)
(0.00104588 2.66386e-07 1.71874e-07)
(0.000782512 4.5095e-07 1.45646e-07)
(0.00078314 7.89783e-07 1.45177e-07)
(0.00104425 6.86254e-07 9.73929e-08)
(0.000781319 2.32186e-07 7.69774e-08)
(0.00078176 -1.58062e-06 1.557e-08)
(0.00104281 5.68401e-07 2.50626e-07)
(0.000779958 1.15744e-07 5.72264e-08)
(0.000780394 -1.25592e-09 4.7501e-08)
(0.00104109 1.69611e-07 1.9853e-07)
(0.000778372 2.29609e-07 6.33435e-08)
(0.000779146 -8.28358e-08 4.90187e-08)
(0.00103923 2.72102e-07 1.88835e-07)
(0.000776608 2.19587e-07 7.32631e-08)
(0.00077749 2.02325e-07 7.84168e-08)
(0.00103696 4.10381e-07 2.10857e-07)
(0.000775001 1.07261e-07 6.58846e-08)
(0.000775785 -6.19543e-08 5.12237e-08)
(0.00103457 2.2633e-07 1.61296e-07)
(0.000774003 7.20791e-08 6.37503e-08)
(0.000774424 -2.29765e-07 4.97007e-08)
(0.00103279 1.06529e-07 1.82092e-07)
(0.000773404 1.20413e-07 5.98374e-08)
(0.00103156 1.01643e-07 1.62882e-07)
(-0.00214556 -0.00369036 7.46165e-05)
(0.00210304 0.00464063 -0.000116415)
(-0.00456711 -0.00422769 -0.000224938)
(0.00440154 0.00595771 -0.000400587)
(-0.000656581 0.00596696 -0.0011121)
(0.00330455 0.00882963 -0.00121612)
(-0.00134982 -0.00482062 -8.81161e-06)
(0.00615889 0.00282391 2.08828e-05)
(0.000566401 -5.4569e-05 -0.000215585)
(0.000429052 -0.00307383 0.000170553)
(0.0012126 -0.00634466 -4.82039e-05)
(0.00242578 -0.00552498 -5.42241e-05)
(0.00412901 -0.003798 -0.000199559)
(0.00222184 -0.00289815 0.000175593)
(-0.00820854 -0.00797066 -5.97032e-05)
(0.000566401 -5.4569e-05 -0.000215585)
(0.000566401 -5.4569e-05 -0.000215585)
(0.000566401 -5.4569e-05 -0.000215585)
(-0.00117755 -0.00452782 0.000168657)
(-0.000757288 -0.00421652 7.54315e-05)
(0.000637948 -0.00721404 -0.000127586)
(0.00522824 0.00419672 -2.0847e-05)
(-0.000350028 -0.00135335 -0.000161119)
(-0.00410972 0.00467571 0.000264776)
(0.000645657 0.00135049 -1.75134e-05)
(0.00112709 0.00649881 -0.000136009)
(0.00413918 0.000932564 -6.90437e-05)
(0.00151596 0.00461017 -8.89281e-05)
(-0.0041612 -0.0120861 -0.000693444)
(-0.00170499 0.00217183 0.000281836)
(-0.00271511 -0.000995437 0.000230563)
(-0.000862453 -0.0094053 -0.00032561)
(0.00246274 6.35989e-05 0.000728286)
(0.00409876 0.000221244 -0.000300415)
(0.00301144 0.0061504 1.44745e-05)
(0.00914742 0.00257251 0.000305113)
(0.00629152 0.00222485 2.54509e-05)
(0.00709757 0.0065294 -6.52748e-05)
(-0.00173344 -0.00184364 1.17639e-05)
(-0.00153823 -0.000246903 0.000218993)
(-0.00216325 -0.000315178 -2.37439e-05)
(-0.00180844 0.000609394 -2.65226e-05)
(-0.00255186 -0.000141198 -0.000112627)
(0.00091894 -0.000368797 -6.45707e-05)
(0.00115815 -0.000625184 1.24612e-05)
(0.00128747 -0.00103228 -3.78285e-05)
(0.00175798 -0.0017029 -1.00946e-05)
(0.00113939 -0.000705761 -3.05722e-05)
(-2.49333e-05 -0.000719742 -0.000110328)
(0.000704258 -0.000998753 -8.11018e-05)
(0.00125416 -0.00111465 3.11094e-05)
(0.00116211 -0.00048585 3.38849e-05)
(0.00174037 -0.000536025 -5.74076e-05)
(0.000915099 -0.000958283 -1.79342e-05)
(0.00109706 -0.000368395 8.54969e-05)
(0.00134944 -0.000281852 -2.8794e-06)
(0.000953057 -0.000646886 8.79843e-05)
(0.000754925 -0.000121438 1.85343e-05)
(0.000392519 -4.1109e-05 1.42324e-05)
(0.000460587 -9.02284e-05 2.98018e-05)
(0.000593031 -8.41401e-05 4.40313e-05)
(0.0002732 -3.80262e-05 1.01397e-05)
(0.000862197 -3.72433e-05 -7.7016e-07)
(0.000928421 -3.71662e-05 -1.90442e-06)
(0.00122796 -6.74896e-05 -1.20466e-06)
(0.000632111 -5.30187e-05 -4.40827e-06)
(0.000652362 -5.46111e-05 -4.82286e-06)
(0.00104809 -0.000102876 -4.90999e-06)
(0.00109667 -0.00010754 -4.18729e-06)
(0.000851471 -1.96091e-05 2.59906e-08)
(0.000857731 -1.55914e-05 -2.17503e-07)
(0.00112794 -3.3839e-05 7.70716e-08)
(0.000843202 -1.13526e-05 -1.7255e-08)
(0.000853344 -9.06602e-06 1.31815e-07)
(0.00113217 -1.9843e-05 2.1279e-07)
(0.000837281 -6.62706e-06 -7.74524e-08)
(0.000841968 -4.83332e-06 -1.12432e-07)
(0.00111959 -1.13464e-05 1.87952e-07)
(0.000832951 -3.99944e-06 5.47198e-08)
(0.000836221 -2.86178e-06 1.10617e-07)
(0.00111354 -6.91968e-06 1.84926e-07)
(0.000829597 -2.37687e-06 5.1265e-08)
(0.000831928 -1.67083e-06 5.00277e-08)
(0.00110837 -4.12233e-06 1.84415e-07)
(0.000826876 -1.42621e-06 5.07884e-08)
(0.000828589 -9.84937e-07 3.43184e-08)
(0.00110439 -2.44222e-06 1.83768e-07)
(0.000824548 -8.91671e-07 5.04849e-08)
(0.000825856 -6.0361e-07 4.87841e-08)
(0.00110103 -1.4883e-06 1.83495e-07)
(0.000822448 -5.72019e-07 4.71193e-08)
(0.000823609 -3.95225e-07 4.96399e-08)
(0.00109816 -9.59735e-07 1.84028e-07)
(0.000820355 -4.41175e-07 3.80461e-08)
(0.000821494 -2.36071e-07 4.63051e-08)
(0.00109524 -5.9481e-07 1.22204e-07)
(0.000819029 -4.59981e-07 3.05057e-08)
(0.000819643 1.0713e-07 9.45134e-08)
(0.00109304 -6.01405e-07 1.78611e-07)
(0.000817055 -4.75837e-07 5.38032e-08)
(0.000818053 7.26131e-08 1.51337e-08)
(0.0010909 -6.61658e-07 1.78562e-07)
(0.000815897 -4.56323e-07 6.52001e-08)
(0.000816462 -2.44316e-08 7.39278e-08)
(0.0010888 -6.32116e-07 1.68421e-07)
(0.000814017 -5.85345e-07 1.95112e-08)
(0.000814869 -1.51701e-07 7.19723e-08)
(0.00108682 -5.82784e-07 1.80289e-07)
(0.000812352 -5.55041e-07 7.22367e-09)
(0.000813284 5.72631e-07 4.71693e-08)
(0.00108442 -9.39617e-07 7.77465e-08)
(0.000810683 -3.61704e-07 1.6864e-07)
(0.000811603 3.2352e-09 6.50876e-08)
(0.00108212 -4.97433e-07 1.54343e-07)
(0.000809615 -2.55916e-07 1.87095e-07)
(0.00081007 1.41323e-08 2.25914e-07)
(0.00108038 -4.57618e-07 1.81549e-07)
(0.000807401 -4.87378e-08 6.31431e-08)
(0.000808566 -5.42105e-07 5.28118e-08)
(0.00107824 -2.23681e-07 2.60954e-07)
(0.000806006 1.42088e-07 7.08307e-08)
(0.000806889 -1.79164e-07 6.65971e-08)
(0.00107573 1.06736e-07 1.79675e-07)
(0.000804742 4.99311e-07 8.08177e-08)
(0.000805508 -5.01096e-07 4.55597e-08)
(0.00107395 3.2963e-07 1.74216e-07)
(0.000803594 7.57804e-07 5.64188e-08)
(0.000804086 -2.21246e-06 4.16918e-08)
(0.00107246 1.09929e-06 2.46083e-07)
(0.000801773 7.4972e-07 2.47322e-08)
(0.000802486 2.11445e-08 7.20742e-08)
(0.00107049 9.99666e-07 1.22723e-07)
(0.000799877 7.30345e-07 -1.83016e-08)
(0.000800886 -3.0987e-07 3.93997e-08)
(0.00106792 1.03888e-06 1.54167e-07)
(0.000798225 3.96863e-07 -7.44838e-09)
(0.000799073 2.58802e-07 -8.35551e-09)
(0.00106556 9.53313e-07 4.71295e-08)
(0.000796936 -1.05615e-08 4.59671e-08)
(0.000797522 -8.41147e-08 3.26637e-07)
(0.00106364 1.58686e-07 1.86983e-07)
(0.000795469 -2.33386e-08 5.41597e-08)
(0.000796227 5.98274e-08 5.35982e-08)
(0.00106182 -1.53832e-07 1.8042e-07)
(0.000794139 4.0079e-08 8.28993e-08)
(0.00079478 1.42828e-07 5.83468e-08)
(0.00105994 1.04029e-07 1.71069e-07)
(0.000792632 -2.55172e-08 1.11733e-07)
(0.000793332 -1.44295e-07 7.89349e-08)
(0.00105811 4.24819e-09 1.78389e-07)
(0.000791257 -4.17776e-08 7.52949e-08)
(0.000791872 -1.87309e-07 7.24413e-08)
(0.00105614 -6.92784e-08 1.77465e-07)
(0.00078981 -1.87111e-07 1.94055e-08)
(0.000790288 1.21052e-07 5.21964e-08)
(0.0010543 -5.22554e-08 1.68552e-07)
(0.000788087 -2.73987e-07 -4.4295e-08)
(0.000788835 2.03124e-06 5.63508e-08)
(0.00105214 -4.70874e-07 9.30356e-08)
(0.000786554 -8.32373e-08 -1.68228e-08)
(0.000787525 -4.96457e-07 -7.49612e-09)
(0.00104992 -3.04295e-07 2.1583e-07)
(0.000785413 7.56771e-08 6.38435e-08)
(0.000786058 -3.47236e-07 4.75274e-08)
(0.00104819 4.30926e-08 1.74822e-07)
(0.000784039 2.08381e-07 8.21346e-08)
(0.000784666 2.74475e-08 1.44574e-07)
(0.0010466 1.84371e-07 1.96006e-07)
(0.000782488 2.66731e-07 1.51405e-08)
(0.000783211 -4.73449e-08 6.36929e-08)
(0.00104462 4.27825e-07 2.45257e-07)
(0.000780676 1.40961e-07 -1.39162e-08)
(0.000781602 -1.40206e-07 7.05488e-09)
(0.0010424 3.38414e-07 1.04162e-07)
(0.000779682 7.2445e-09 3.92928e-08)
(0.000780226 5.56158e-08 4.65954e-08)
(0.00104046 8.62003e-08 1.30198e-07)
(0.000778425 -7.01564e-08 6.4083e-08)
(0.000779049 -9.13516e-08 4.50414e-08)
(0.00103896 -3.18672e-08 1.58893e-07)
(0.000776431 -3.12058e-08 5.63856e-08)
(0.000777539 -5.34664e-07 2.27936e-08)
(0.00103687 -1.37026e-07 2.79155e-07)
(0.000775267 1.5855e-07 3.50402e-08)
(0.000776022 -3.38363e-07 1.23781e-08)
(0.00103467 6.24487e-08 1.69974e-07)
(0.000773681 2.4773e-07 4.57847e-08)
(0.000774532 4.32071e-08 4.57605e-08)
(0.00103276 3.51992e-07 1.68432e-07)
(0.000773096 3.56562e-07 7.19783e-08)
(0.00103128 3.00418e-07 1.25e-07)
(0.00697273 0.0155702 -0.000417737)
(0.00208932 0.015136 0.000983601)
(0.00287042 0.0154514 -0.00124308)
(0.00909984 0.00218503 -0.000184475)
(-0.000766011 0.00300744 -0.00306929)
(0.00651389 0.00283171 0.000143977)
(0.0109749 0.0121011 -0.000322192)
(0.00263063 -0.0038977 -0.00010054)
(0.00198631 -0.00543405 0.000131263)
(0.00485912 -0.00656742 -0.0001464)
(0.00919067 -0.0110487 -0.00454728)
(-0.000646186 -0.0140143 0.00259162)
(0.0057397 -0.00924333 -0.00203171)
(-0.00130123 -0.0139376 0.00516285)
(0.00260844 -0.00723018 -0.00167919)
(-0.00575664 -0.00485233 0.000106769)
(-0.00361544 -0.00716958 -0.000219818)
(0.000943796 -0.00890616 -0.000654274)
(0.0031493 0.00189196 -0.000141044)
(-0.0058194 -0.00106248 0.000169954)
(-0.00305966 -0.00880047 -0.000516032)
(-0.00276864 -0.000576569 -0.000214614)
(0.00102075 0.00340615 4.97826e-05)
(0.0020022 -0.000484885 -0.000468182)
(-0.00106598 0.00766855 0.000339224)
(0.00129888 0.00630338 -3.81895e-06)
(-0.00127214 -0.0100345 0.00218023)
(4.42522e-05 -0.000322026 -9.40861e-05)
(0.00462789 0.00227252 -0.000114253)
(-0.00149959 -0.00201333 0.000408571)
(2.48935e-05 -0.00254715 -0.000204696)
(-0.00434284 -0.00347333 -0.000519306)
(0.000805377 -0.00242207 -0.000120373)
(8.08333e-05 -0.00241128 -0.000131535)
(-0.00070505 -0.00517701 -0.000442434)
(0.0014182 -0.00126674 -1.59699e-05)
(0.00112636 -0.00105731 -3.34274e-05)
(0.00171585 -0.000407831 -8.23901e-06)
(0.00134414 -0.00150557 -5.11197e-05)
(0.000986701 -0.000763666 4.4857e-05)
(0.00136503 -0.00314981 -8.03212e-05)
(0.00166212 -0.000799807 0.00014254)
(0.0016353 -0.000709639 -4.90193e-05)
(0.00129154 -0.000566157 1.08647e-05)
(0.00137107 -0.000547619 -6.49074e-06)
(0.00147937 -0.000646664 6.17312e-06)
(0.00222874 0.000199012 9.74977e-05)
(0.000522104 -0.000136929 6.63925e-05)
(0.000591289 -6.61294e-05 7.15775e-05)
(0.000827166 -0.000124109 0.000140567)
(0.000508353 -7.07107e-05 4.19143e-05)
(0.000889655 -5.64527e-06 -1.35231e-06)
(0.000923403 2.45439e-05 -2.43581e-06)
(0.00124868 -1.39011e-05 -1.65316e-06)
(0.000692633 9.46843e-06 -5.01989e-06)
(0.000660807 3.33451e-05 -3.63569e-06)
(0.00118327 2.26772e-05 -3.45101e-06)
(0.0011387 7.76015e-05 1.19944e-06)
(0.000864905 -1.74421e-06 -1.11794e-07)
(0.000863133 1.42159e-05 -3.03974e-07)
(0.00115991 -3.86344e-06 1.20931e-07)
(0.00084988 -1.00929e-06 3.67173e-08)
(0.000854278 7.54879e-06 8.69527e-08)
(0.0011439 -2.40028e-06 1.92052e-07)
(0.000840579 -4.23257e-07 7.55646e-08)