/*--------------------------------*- C++ -*----------------------------------*\
| =========                 |                                                 |
| \\      /  F ield         | OpenFOAM: The Open Source CFD Toolbox           |
|  \\    /   O peration     | Version:  5.0                                   |
|   \\  /    A nd           | Web:      www.OpenFOAM.org                      |
|    \\/     M anipulation  |                                                 |
\*---------------------------------------------------------------------------*/
FoamFile
{
    version     2.0;
    format      ascii;
    class       surfaceScalarField;
    location    "4.9";
    object      alphaPhi10;
}
// * * * * * * * * * * * * * * * * * * * * * * * * * * * * * * * * * * * * * //

dimensions      [0 3 -1 0 0 0 0];

internalField   nonuniform List<scalar> 
25687
(
-2.54378e-08
1.03077e-08
-1.61746e-08
-4.83614e-08
4.66093e-08
-1.60475e-07
-1.91163e-08
-3.47925e-08
-3.95988e-08
-5.27907e-08
-5.17046e-08
3.97482e-08
-1.8268e-09
-1.36112e-08
-1.81436e-08
-1.64938e-08
3.93097e-08
-4.51728e-09
-1.85169e-08
-9.83094e-09
-1.87052e-09
-4.99254e-09
-3.92331e-09
1.33997e-08
-1.09799e-10
6.28233e-08
6.27168e-08
6.3228e-08
1.70176e-16
-9.93016e-09
-9.93016e-09
-9.93016e-09
1.69893e-16
1.72664e-16
1.68244e-16
-3.13712e-24
2.3442e-22
1.13138e-22
1.79703e-21
-5.4712e-22
-2.47164e-21
1.8594e-22
8.00095e-27
1.02733e-25
-9.79968e-27
1.2064e-29
1.27549e-27
-6.65746e-30
6.94038e-29
-2.62334e-30
4.33847e-31
8.06169e-32
-5.04849e-32
3.85583e-34
4.47791e-36
-9.64392e-36
-7.11592e-35
9.74177e-40
-1.4614e-39
-1.31896e-38
4.10377e-43
-2.37499e-43
-4.64021e-41
1.80651e-46
-1.41504e-46
1.10536e-44
7.98656e-50
-2.24805e-50
2.86791e-47
3.51375e-53
2.20578e-53
-1.27241e-50
1.54212e-56
-2.78592e-57
-1.27984e-53
6.8344e-60
-1.36317e-61
1.6139e-56
3.01702e-63
3.44763e-64
-2.46053e-60
1.31265e-66
7.58369e-68
-2.95028e-63
5.68421e-70
3.50596e-72
-5.55769e-67
2.60284e-73
1.70287e-74
-5.38107e-70
1.21189e-76
-1.33984e-77
7.189e-73
5.25853e-80
-1.66838e-81
-3.57046e-75
4.40772e-83
5.06723e-85
-2.01267e-79
1.38058e-85
7.24763e-87
-5.29771e-82
1.01903e-89
-1.4037e-91
1.63427e-85
4.84089e-93
1.87044e-93
-1.14247e-88
3.93902e-96
5.05452e-97
-3.0694e-91
5.84878e-99
3.78051e-100
2.48392e-94
8.53397e-102
-2.90723e-102
1.12865e-97
2.03113e-105
1.34214e-106
-7.74308e-101
1.31203e-108
7.74499e-110
-9.33542e-104
1.53854e-111
8.35711e-113
8.56081e-108
3.21036e-114
2.10401e-115
-2.70214e-110
3.54674e-118
-1.00762e-118
2.95824e-118
1.30685e-121
-3.2894e-122
1.89446e-122
1.18221e-124
7.40557e-126
8.77333e-121
2.24269e-127
5.98345e-130
-2.12265e-123
2.89416e-130
4.67546e-131
-3.59045e-126
4.5235e-133
2.79853e-133
-8.2285e-129
1.19283e-136
-1.86664e-137
-1.37315e-132
1.44716e-139
5.76269e-140
-5.41894e-135
2.48933e-143
2.52217e-143
-1.38682e-138
2.64043e-146
-8.42817e-149
-5.74206e-143
1.66606e-148
-5.66041e-151
3.15086e-145
1.96031e-153
3.39582e-153
1.02954e-07
3.07096e-08
-3.20205e-07
6.21758e-08
1.63991e-08
-1.5738e-07
1.45386e-08
-1.47368e-08
9.5649e-08
-1.2505e-08
1.25339e-08
3.72497e-08
-9.0512e-09
6.96344e-09
-2.68285e-08
-1.24396e-08
-7.03585e-09
-2.43521e-08
8.64015e-09
3.99909e-08
-1.60866e-08
-1.00089e-08
-1.47615e-08
2.35051e-09
-2.54135e-08
6.30167e-09
-3.80409e-08
-5.15589e-09
-6.82779e-09
3.3273e-08
-1.13993e-08
-2.81801e-09
-1.16799e-08
3.62026e-10
-9.60357e-11
1.78634e-08
-1.94515e-10
1.80385e-08
7.74784e-19
1.73282e-18
2.76599e-08
2.7062e-19
-4.11387e-17
3.46448e-17
9.32564e-18
1.20367e-18
3.06882e-24
-1.89308e-21
2.74039e-23
1.96046e-21
6.15497e-21
4.71681e-21
-8.55977e-21
8.05534e-26
1.31406e-26
8.53327e-26
4.48017e-27
2.59936e-27
1.3459e-29
3.09006e-30
-6.21022e-29
6.71382e-29
3.90794e-34
-1.51345e-30
2.73769e-32
1.38146e-37
-5.13819e-34
2.40722e-35
5.28999e-41
-4.81415e-38
9.56956e-39
2.25066e-44
-7.90053e-42
-2.19459e-41
1.0383e-47
-2.83107e-45
-1.0478e-45
4.91898e-51
-1.16333e-48
5.59163e-48
2.28992e-54
-6.58386e-52
1.38871e-50
1.03583e-57
-5.29167e-57
4.07748e-55
4.81407e-61
5.67821e-60
-6.54094e-58
2.43275e-64
-4.45872e-63
-2.56261e-61
1.4431e-67
-3.96842e-66
1.05234e-63
5.99546e-71
-2.67333e-69
4.92348e-67
3.56301e-74
1.46729e-74
-2.44511e-70
4.27455e-77
2.19135e-76
-1.27776e-73
1.13016e-80
8.563e-80
-2.31911e-76
9.66328e-84
-9.74586e-84
-1.07455e-79
2.40773e-86
-1.6728e-86
-2.89959e-82
3.16661e-90
-8.37158e-88
-7.20379e-86
2.13697e-93
2.35318e-94
-4.90282e-90
2.28429e-96
1.88059e-97
-6.44023e-92
6.78781e-100
-1.49791e-96
1.0834e-94
4.99105e-103
-4.75333e-100
1.2527e-97
2.39497e-106
-1.23646e-108
-1.74121e-102
2.29297e-109
5.27757e-107
-6.74026e-105
7.87078e-113
-2.74612e-111
1.58217e-108
1.54681e-115
6.29023e-118
4.09336e-117
2.13354e-117
-1.06798e-117
-3.88633e-114
1.74739e-121
-1.77314e-120
1.21801e-117
4.9107e-125
-9.32002e-124
-1.79401e-120
3.24149e-128
3.415e-127
-5.77359e-124
9.60966e-132
2.29521e-129
-2.69522e-126
4.03142e-135
2.42765e-133
-4.64878e-131
3.75494e-138
4.09242e-139
3.33563e-133
4.98217e-141
-4.13957e-141
-7.75039e-136
2.03688e-144
-1.2369e-141
-7.61736e-139
6.49677e-148
-2.18096e-145
-9.00905e-143
1.3603e-150
5.62438e-149
9.49558e-146
-1.22869e-154
-7.11072e-149
2.80581e-08
-1.11522e-09
-2.45743e-07
-9.63642e-09
-2.02512e-08
3.15555e-07
3.50097e-10
-5.02519e-09
8.29852e-07
-3.64045e-08
-1.71667e-08
7.47708e-09
-7.35485e-08
-2.00932e-09
2.26116e-08
-7.58502e-08
-8.1399e-08
-1.13091e-07
-6.51989e-10
7.07615e-09
-1.00536e-07
9.58652e-10
-4.59919e-08
5.87281e-09
7.98485e-09
3.24538e-08
5.16602e-10
4.25511e-10
8.5738e-10
-1.45825e-10
1.2985e-09
-2.07874e-14
-1.26614e-16
-1.07802e-08
-4.25954e-17
-1.07802e-08
-1.01483e-22
-4.08016e-18
-1.91518e-21
6.21365e-20
9.2778e-19
2.48353e-19
3.36378e-18
-4.06748e-18
-4.3012e-18
-4.06788e-18
-1.34379e-25
-1.25367e-22
-2.33741e-25
-9.45336e-27
-5.00298e-26
2.72191e-29
9.58787e-28
-4.36888e-28
1.1393e-28
2.54345e-30
-8.5293e-30
-4.34929e-31
2.79371e-34
-7.61363e-33
6.99862e-33
3.64146e-38
-9.35397e-37
4.28901e-36
1.43547e-41
-2.11748e-40
-8.76583e-42
6.36091e-45
-5.43491e-44
9.32243e-44
2.88032e-48
-1.57373e-47
9.0408e-45
1.30419e-51
-4.53396e-51
-1.39129e-47
5.62029e-55
-1.04008e-54
-6.59327e-53
2.52235e-58
-2.54811e-58
-4.4885e-55
1.1229e-61
-9.27564e-62
3.35523e-59
5.21341e-65
-3.35027e-65
-2.66845e-61
2.45429e-68
-3.1721e-70
-4.78343e-64
1.23981e-71
2.92096e-72
-7.2841e-68
6.26398e-75
-1.42115e-75
-5.73445e-71
4.44479e-78
3.14526e-79
-1.33127e-73
1.90195e-81
-1.25028e-82
3.9215e-79
5.21595e-84
-4.24833e-85
3.0087e-80
4.62676e-87
-2.02738e-88
-3.89974e-83
5.91651e-91
-1.79829e-91
8.41351e-92
1.25588e-93
-2.42533e-94
6.36904e-95
1.86246e-95
1.22039e-97
-5.90583e-92
2.63629e-99
2.32449e-100
-4.77114e-95
4.12481e-103
-1.43228e-104
5.36579e-99
1.89104e-106
-1.20272e-107
-1.18748e-101
7.85851e-110
3.99145e-111
-2.5322e-106
7.09664e-113
-1.23714e-114
-1.2471e-110
3.53209e-115
1.22942e-116
-1.35847e-111
6.19434e-119
2.47435e-119
-2.26375e-114
1.94833e-122
1.47109e-122
-7.06425e-120
1.62334e-125
-4.37992e-126
6.76411e-121
1.68911e-128
-6.14035e-129
7.679e-124
3.35319e-132
7.18911e-133
-7.75808e-128
1.15932e-135
-3.8057e-137
7.2018e-131
1.89143e-138
-7.86543e-140
1.56055e-139
1.62049e-140
-6.30926e-143
8.26295e-137
1.867e-144
2.12998e-145
-4.24961e-140
3.76984e-148
-2.48109e-149
3.20704e-143
-2.35125e-152
4.13649e-153
-4.02289e-08
3.257e-08
-4.8794e-07
8.01801e-08
-5.33489e-09
-2.68462e-07
3.79616e-09
-2.19192e-09
-4.51462e-07
2.55972e-08
5.4839e-09
1.99814e-08
-3.86491e-07
-4.0074e-07
-5.81541e-07
-3.10215e-09
4.20686e-09
-4.47334e-10
-4.93922e-08
5.44021e-09
1.45835e-08
4.58938e-08
5.18167e-09
-6.91492e-08
-2.66763e-08
-2.65482e-08
-6.85671e-08
-2.00317e-10
-1.95779e-08
4.32948e-09
6.8123e-09
8.03173e-09
1.99108e-10
7.27612e-10
-1.70158e-09
-3.53165e-11
2.42121e-10
6.8881e-11
1.90853e-10
-4.87331e-10
-3.55185e-10
-4.26934e-10
-4.26357e-10
-8.86329e-11
8.00828e-12
2.33352e-08
3.56398e-11
2.3357e-08
-5.17144e-16
-4.06757e-18
1.6191e-08
-4.08997e-18
1.79774e-24
-1.42847e-21
2.29689e-23
-1.55036e-21
-1.53138e-21
-1.76005e-21
-1.58611e-21
2.72665e-27
-3.19545e-25
-3.03857e-27
-1.49454e-27
-1.68227e-27
1.77255e-29
8.77708e-30
-4.16625e-29
8.22564e-31
3.00945e-33
-1.65573e-31
-3.71787e-33
1.89828e-37
-4.65874e-35
7.12126e-36
6.07651e-41
-5.75338e-39
1.14155e-39
2.64893e-44
-1.50195e-42
2.63219e-42
1.17315e-47
-3.19231e-46
3.41815e-45
5.11154e-51
-7.63683e-50
-5.8097e-48
2.23876e-54
-3.03573e-53
4.12707e-51
9.80184e-58
-1.18075e-56
-4.81923e-56
4.46499e-61
-4.33375e-60
-3.58357e-58
2.27435e-64
-4.92084e-64
-7.66813e-61
9.73834e-68
-6.22945e-67
-6.15379e-64
4.14497e-71
-2.95483e-71
-4.93741e-68
1.90463e-74
-8.6202e-75
-4.75433e-71
1.4189e-77
-8.45405e-79
-1.88738e-73
3.87251e-80
-4.79169e-82
-1.09969e-76
5.91683e-84
-2.57185e-83
-9.2876e-81
3.06384e-87
3.00262e-88
2.12837e-83
7.72227e-90
8.15804e-91
-3.81458e-86
2.34419e-93
-4.18445e-94
-3.4666e-89
7.2623e-97
-4.44005e-95
-1.21559e-91
5.7513e-100
-3.0392e-101
-8.99841e-96
9.5473e-103
2.72672e-103
-3.28676e-98
1.46405e-106
5.67577e-107
-2.75519e-102
9.04672e-110
-5.18416e-109
3.1487e-105
2.72589e-112
-6.67326e-113
2.87253e-109
1.0035e-114
2.52084e-115
-4.46186e-111
1.11145e-118
-3.19555e-118
-1.62984e-114
5.95911e-122
-6.03655e-123
-1.08862e-117
6.27596e-125
3.2482e-125
-2.70891e-121
2.33539e-128
-5.52929e-128
1.94957e-123
2.89639e-131
6.26433e-131
6.65675e-127
3.64693e-134
-7.87399e-135
-4.64952e-130
8.84638e-138
3.30123e-138
-1.43846e-133
2.89307e-141
5.86504e-141
7.72437e-137
1.49241e-144
4.53419e-145
-3.94135e-141
1.31968e-147
-1.67375e-146
-4.66273e-143
-1.92771e-149
1.46348e-147
2.36094e-09
1.23091e-08
5.55678e-09
-4.16485e-08
1.57662e-09
2.63596e-07
3.10418e-09
3.635e-10
3.20378e-09
-3.73822e-08
-3.83638e-08
-4.54305e-08
-4.3129e-09
-3.77673e-08
-4.01776e-08
-5.2357e-08
4.66818e-08
-2.75346e-09
4.70206e-09
4.18852e-08
-6.80498e-08
4.89922e-08
-1.17835e-07
6.09333e-09
3.6674e-08
2.91396e-08
4.39786e-09
-4.5534e-08
-5.29102e-08
-6.592e-08
-4.41517e-08
-1.49813e-10
-2.67053e-08
2.33873e-09
-8.89722e-09
3.18475e-08
-2.76139e-09
3.11238e-09
3.80417e-10
-4.06568e-09
-2.04837e-10
2.27903e-10
-1.53751e-10
8.10151e-10
-1.55881e-10
8.69164e-11
3.08051e-08
-8.51762e-11
3.12348e-08
1.29313e-16
-6.09909e-18
-5.95057e-09
-5.74139e-18
1.27813e-16
1.34936e-16
1.21641e-16
-5.63874e-18
9.74384e-24
-1.64861e-21
3.53926e-22
-4.86651e-22
-1.06339e-22
2.84844e-21
-9.88989e-22
5.05632e-27
-2.9326e-25
-1.44978e-26
-2.46848e-27
-1.99835e-27
4.20095e-29
1.24515e-28
-6.97017e-29
-7.43784e-30
1.24716e-31
-2.93578e-31
4.50003e-32
6.37973e-36
-7.9454e-35
1.36258e-33
1.54593e-39
-1.0969e-38
-5.86682e-38
6.54688e-43
-2.69177e-42
-3.30239e-41
2.87547e-46
-7.20045e-46
1.1914e-43
1.26421e-49
-1.83971e-49
-3.39917e-47
5.52993e-53
-6.55183e-53
-9.91415e-50
2.44446e-56
-1.43964e-56
-4.31914e-54
1.10664e-59
-2.24591e-60
-1.2955e-56
4.6156e-63
-8.94062e-64
2.46302e-59
2.05302e-66
-4.69718e-67
-2.00467e-62
9.22301e-70
7.05516e-71
-1.29563e-66
4.16975e-73
8.33147e-74
-1.31509e-69
2.46365e-76
1.69147e-76
8.38628e-72
2.01668e-79
8.89955e-82
-2.18286e-75
1.97653e-82
7.6879e-84
-3.62604e-78
1.96901e-85
-2.48455e-84
-8.08028e-80
1.16987e-88
-1.21229e-88
-1.82198e-84
6.47596e-92
5.32672e-93
-1.71868e-89
2.16923e-94
-2.53582e-96
-8.23628e-90
1.7409e-98
-6.84787e-99
4.17593e-94
6.02359e-102
-8.47472e-102
6.12043e-98
7.2995e-105
-4.95342e-106
1.41218e-101
2.23895e-107
9.44012e-109
-5.1617e-103
2.2737e-111
1.85829e-111
-4.62687e-108
2.04073e-114
-6.28771e-115
3.81985e-115
8.87972e-117
1.35782e-118
9.63169e-113
7.64034e-121
3.55966e-121
6.9234e-116
6.92383e-124
6.14221e-124
3.74404e-118
1.66438e-126
3.3155e-127
-2.60315e-121
6.88849e-130
-4.04438e-130
2.51915e-125
2.0302e-133
-4.85555e-134
2.48883e-129
3.33606e-136
-6.37579e-137
7.9539e-133
1.32558e-138
1.4656e-139
2.76427e-134
2.6314e-142
1.46915e-142
-2.06392e-138
1.90994e-145
5.01709e-146
-3.74176e-141
5.37827e-150
-1.32679e-144
2.24879e-08
-4.59811e-09
-3.39424e-07
1.69215e-08
2.05316e-08
1.99665e-08
-3.94163e-07
-3.14938e-07
-2.95316e-07
-5.7449e-09
-4.55833e-09
-5.15503e-09
4.7143e-09
2.11981e-08
1.20594e-08
-5.68508e-08
-5.03866e-08
3.81062e-09
-5.31985e-08
-6.11789e-08
-5.60166e-08
-5.50171e-08
-5.11043e-09
-4.83998e-09
-2.29109e-09
-2.78438e-09
-2.02728e-09
-4.64312e-08
8.21052e-08
6.70504e-08
6.89826e-08
6.75171e-08
1.39704e-07
-8.66464e-08
3.03147e-07
-6.4593e-08
-3.14938e-08
-3.4254e-08
-4.16723e-08
-4.81727e-08
3.12196e-08
-4.53837e-09
2.39395e-08
1.77627e-08
-1.12754e-08
8.51428e-10
3.33951e-08
5.8757e-10
-1.73289e-09
-3.2526e-08
-1.46154e-09
3.41036e-09
1.02858e-09
-2.95278e-09
-1.99274e-10
-6.44573e-10
-1.76059e-09
1.81494e-10
-4.76318e-10
2.18519e-10
6.26025e-08
-3.50856e-10
6.38073e-08
-2.97391e-16
-7.52869e-18
-6.55702e-09
-6.55702e-09
-7.87823e-18
-2.94827e-16
-3.06625e-16
-2.84749e-16
1.18234e-23
-7.07177e-22
4.67809e-22
1.49074e-21
8.06692e-22
8.83755e-22
2.90686e-21
1.66506e-26
-6.42783e-26
-6.747e-27
-1.07894e-27
-7.63401e-28
-1.41599e-28
9.6293e-29
-2.32706e-29
-3.69066e-29
9.57403e-32
-1.00002e-31
2.94686e-31
4.89754e-36
-2.57086e-35
2.58726e-34
1.19369e-39
-3.06132e-39
-6.99202e-37
5.21004e-43
-7.09366e-43
4.9919e-41
2.39542e-46
-5.09544e-47
2.25215e-42
1.09935e-49
-5.26663e-50
2.71655e-46
5.57506e-53
4.77518e-54
4.36802e-49
2.15854e-56
-2.73925e-57
7.90813e-54
9.14389e-60
1.10264e-60
1.25618e-55
4.34001e-63
-4.21197e-64
7.9156e-59
2.54673e-66
-1.36921e-67
4.15292e-62
1.68959e-69
-8.3272e-72
1.61635e-66
2.06367e-72
-4.19374e-73
9.37252e-68
5.05791e-76
-1.28518e-77
5.51653e-71
4.87328e-79
-4.31666e-81
8.51632e-75
2.01808e-81
2.2823e-83
-7.99485e-78
1.65299e-84
2.08394e-85
-6.77304e-80
1.45622e-87
6.5487e-88
-1.88403e-83
5.02676e-91
-1.65395e-92
-9.3739e-87
1.22602e-94
6.08164e-96
-2.4473e-93
7.82454e-98
4.41904e-99
-8.29322e-93
7.39496e-101
1.71488e-101
-2.79249e-96
1.95033e-104
-4.79482e-106
3.78504e-100
1.43239e-107
-1.08257e-108
-1.48578e-102
2.01175e-110
1.46868e-111
-1.92704e-106
3.98978e-114
-1.25064e-116
5.82965e-112
4.8996e-117
-2.89414e-119
-1.18033e-113
6.76223e-120
-4.9454e-121
4.46879e-116
7.52863e-123
2.27555e-124
3.44686e-118
2.60825e-126
-1.39323e-127
-8.05245e-122
9.48442e-130
-5.68256e-131
-5.86499e-125
4.9389e-133
-1.75956e-134
1.21762e-128
3.54083e-136
-1.13211e-139
-3.85217e-132
7.99809e-140
4.87552e-141
2.03566e-140
3.5814e-143
1.33357e-144
9.33953e-139
1.77054e-146
8.33011e-148
-6.08444e-141
5.95179e-151
4.01735e-150
-7.0878e-10
-2.65379e-08
-7.90651e-09
2.92686e-08
9.29476e-08
1.91075e-07
5.05361e-08
9.26226e-08
4.80068e-08
4.96849e-08
7.38293e-08
-3.1336e-08
-3.08342e-08
-6.31735e-08
-5.8003e-08
-3.75373e-08
-1.66381e-08
-2.46415e-08
-5.83438e-08
-5.3379e-08
-5.65301e-08
2.58558e-08
3.77857e-08
1.89761e-08
2.6016e-08
2.56238e-08
1.91796e-08
-7.34205e-08
-7.26254e-08
-2.48851e-07
-5.72703e-08
2.60865e-08
2.54885e-08
2.56059e-08
6.77774e-08
7.2197e-08
6.63479e-08
6.08033e-08
2.94973e-09
-2.35538e-09
1.95769e-09
-4.36025e-09
-2.25122e-10
-1.56762e-09
1.80593e-10
1.54695e-09
-1.13833e-09
1.13539e-09
-7.30711e-10
-1.2088e-09
4.14448e-10
6.2162e-10
5.2082e-10
4.78131e-10
-2.22476e-10
7.45477e-11
2.2139e-08
-4.10347e-11
2.2364e-08
7.77325e-16
-1.71361e-18
1.83309e-08
1.83309e-08
-1.79066e-18
7.78e-16
7.7717e-16
7.76401e-16
-1.38018e-24
4.8038e-22
5.65756e-23
9.10808e-22
8.64165e-22
8.23364e-22
1.05456e-21
4.62737e-27
6.84997e-26
-1.73233e-26
-3.39132e-28
2.50773e-28
-1.10076e-29
7.60125e-30
4.65895e-30
-1.32804e-31
2.75119e-33
4.27822e-33
1.07649e-33
1.79987e-37
5.04536e-37
4.05202e-36
5.87759e-41
1.21025e-40
2.97499e-40
2.5511e-44
3.15036e-44
6.89644e-43
1.12213e-47
8.29795e-48
1.20256e-44
4.9218e-51
2.09827e-51
1.55624e-48
2.21265e-54
8.11477e-55
-2.13162e-52
1.01676e-57
1.49997e-58
-5.78246e-54
4.2745e-61
6.07288e-62
-2.53733e-58
1.90889e-64
8.22924e-66
2.68598e-61
8.26724e-68
5.09246e-69
-2.57145e-65
3.75195e-71
1.5974e-72
-4.19758e-68
1.52033e-74
8.70806e-76
2.50964e-70
7.3417e-78
-1.62795e-78
-2.14619e-74
1.49627e-80
-9.78933e-82
-4.22407e-77
6.74853e-83
2.59849e-84
-2.64141e-79
5.05019e-87
-4.08128e-88
1.56889e-84
1.5419e-90
-7.25685e-91
2.46944e-89
6.85268e-94
-2.51506e-95
-4.50406e-91
3.61818e-97
-1.55621e-98
1.18104e-98
2.74896e-100
-1.40533e-101
7.07647e-96
1.191e-103
-7.26013e-106
5.16448e-99
1.00786e-106
-2.36058e-108
2.20381e-102
7.21973e-110
3.35367e-113
-5.35398e-106
1.65804e-112
-1.14773e-113
-1.42782e-107
7.80987e-116
4.41854e-117
-1.32824e-111
2.00594e-119
-1.84879e-119
-5.19055e-115
1.36706e-122
1.05326e-123
-9.63874e-118
1.5132e-125
-2.34571e-126
-7.54909e-121
6.96019e-129
-1.38177e-129
-1.2026e-123
4.40276e-132
-1.88684e-134
-3.83132e-128
2.96306e-135
7.04232e-137
-7.27343e-130
4.08231e-138
5.75457e-140
-3.5449e-134
2.21786e-140
1.89194e-143
-9.55497e-137
1.53319e-144
-1.09962e-145
2.84385e-145
1.74339e-147
-1.46906e-150
5.44464e-149
5.4694e-151
-3.10631e-146
1.16237e-09
-2.13e-09
-2.50928e-08
1.60667e-10
-4.8689e-08
6.28058e-08
7.80568e-09
1.11357e-08
-7.71489e-09
-8.71956e-09
9.25106e-08
-2.32365e-08
1.60179e-08
-6.3336e-08
1.0082e-08
1.4258e-08
8.12099e-08
-3.51184e-08
6.21048e-08
-3.40046e-08
3.79793e-08
5.02856e-09
1.9865e-08
-2.86672e-08
-3.68503e-08
-3.73677e-08
3.49043e-09
-4.11135e-08
-2.31293e-08
-6.31221e-09
6.01309e-09
1.7641e-08
5.62665e-10
-2.70958e-09
-2.38913e-08
8.18978e-10
-1.13248e-09
-1.69167e-10
-1.02761e-09
-1.68974e-09
-1.33869e-09
-3.07836e-10
-4.95238e-10
-2.45319e-10
-7.36399e-12
1.51358e-10
4.91712e-11
9.14613e-11
1.01116e-10
-1.21866e-10
-6.83379e-12
-1.26115e-08
1.71084e-11
-1.26132e-08
-5.22362e-22
7.46704e-21
-1.01628e-20
1.44725e-20
3.89371e-20
5.89142e-18
1.07594e-20
5.39703e-18
5.44872e-18
5.01209e-18
5.44752e-18
2.59069e-26
1.45719e-24
-2.57389e-25
4.73428e-26
8.69067e-27
9.45346e-31
8.94377e-28
4.30388e-28
-4.42653e-29
2.50587e-30
4.11559e-30
-5.13093e-31
2.76072e-34
8.76518e-34
1.60486e-32
3.73222e-38
8.43167e-38
-7.34387e-36
1.48524e-41
2.29975e-41
1.57677e-39
6.55605e-45
3.25114e-45
7.06916e-42
2.93037e-48
9.31662e-49
-6.85511e-45
1.34971e-51
2.20861e-52
1.16928e-47
6.0207e-55
1.45741e-55
1.3643e-51
2.67574e-58
2.27616e-59
-6.7117e-55
1.34633e-61
2.80167e-62
-1.02418e-57
5.39028e-65
9.48719e-66
-2.60963e-61
2.18743e-68
-1.27366e-72
7.76948e-65
1.34126e-71
-4.97137e-75
-9.93964e-69
2.41786e-74
1.94485e-75
-9.85637e-71
1.45213e-77
1.26926e-78
-2.1929e-73
2.4636e-81
2.97964e-82
-9.40731e-77
4.46199e-84
1.00807e-86
1.07532e-84
5.91244e-86
8.02051e-89
-1.42745e-82
2.21047e-90
-5.45379e-92
2.82484e-87
1.35621e-93
9.73839e-95
-5.67815e-90
1.15206e-96
7.36143e-97
-6.11883e-92
2.46668e-100
9.533e-102
-5.82744e-96
2.371e-103
-4.06875e-107
-4.31389e-99
3.37081e-106
3.97202e-107
-5.65844e-102
8.82784e-110
1.02603e-111
2.07327e-106
1.09024e-112
3.65884e-114
-1.30477e-107
6.25245e-116
9.22638e-118
-9.23717e-112
6.44599e-119
2.66526e-120
-1.42479e-114
1.79452e-122
-3.63869e-124
-1.74861e-118
3.12217e-125
4.83795e-127
-2.61473e-120
1.15319e-128
4.81542e-129
-1.68121e-123
5.39933e-132
1.16567e-133
1.10043e-127
2.64985e-135
2.41806e-136
-9.15193e-130
7.74944e-139
2.07552e-139
-1.06409e-138
3.08161e-142
-1.94864e-144
1.11146e-142
1.24431e-145
-1.58319e-146
2.40786e-146
5.12051e-149
-1.11513e-149
3.9672e-149
8.99125e-155
-1.11886e-147
-7.50261e-08
3.31715e-08
1.96951e-07
-7.57783e-08
-7.09872e-08
-7.11534e-08
2.30085e-08
2.2969e-08
2.30894e-08
2.29477e-08
3.94846e-08
-2.30623e-08
-7.97755e-08
-7.67887e-08
-2.64912e-09
1.20268e-07
1.21898e-07
-1.80269e-08
9.90967e-08
-1.81631e-08
-1.27046e-08
-1.66661e-08
3.16696e-08
-8.39526e-09
2.69841e-08
7.61812e-07
-3.93914e-07
3.67279e-07
-4.05853e-07
-1.93545e-08
-1.76597e-08
-4.81778e-08
-5.00465e-08
6.58682e-08
-5.07669e-08
-9.67282e-09
4.15373e-08
4.32729e-08
4.20159e-08
4.36953e-08
1.20008e-07
-1.5513e-08
-8.04099e-08
-3.42946e-07
6.73628e-08
6.74571e-08
6.73422e-08
-6.35845e-09
5.14784e-09
-4.8546e-09
-4.04068e-09
9.33083e-09
-3.88827e-10
4.90905e-10
-2.49478e-08
2.30416e-10
-2.47622e-08
-6.49597e-14
-1.95607e-15
3.22594e-08
3.22594e-08
6.29665e-16
-1.10815e-15
5.79755e-14
1.53615e-14
-5.34237e-15
-3.70624e-16
-3.92187e-16
1.73881e-23
6.85243e-23
-5.81531e-23
-6.10244e-23
6.35972e-22
-1.51239e-21
9.3988e-21
-3.34942e-26
3.04586e-26
-5.66645e-26
1.23898e-26
4.06317e-28
1.15679e-29
2.48717e-29
8.06726e-29
3.4594e-29
1.29162e-33
6.80425e-31
1.06329e-31
2.59359e-37
2.98201e-34
2.04323e-35
1.05435e-40
3.45832e-38
1.35542e-38
4.66316e-44
9.7092e-42
2.65414e-41
2.19598e-47
2.30332e-45
8.74461e-45
1.0259e-50
4.69135e-49
-1.62622e-47
4.72989e-54
1.56775e-52
8.63601e-51
2.09004e-57
2.03208e-56
-2.2058e-53
9.24976e-61
8.31377e-60
-8.01343e-57
4.14645e-64
1.57217e-64
-9.07921e-61
1.86754e-67
8.08554e-67
1.4508e-63
2.6017e-70
3.13803e-72
-5.99914e-67
1.14438e-72
4.86308e-74
-5.66931e-69
6.57467e-77
1.13872e-77
2.03579e-74
2.18706e-80
-3.07363e-81
1.75771e-76
9.63196e-84
-2.94568e-84
-2.85129e-79
4.34325e-87
-6.265e-87
-2.00441e-82
2.48908e-89
-1.97083e-90
-7.67221e-87
7.94178e-91
-8.9042e-95
-1.01289e-87
2.76196e-95
-5.5715e-98
-7.05874e-92
4.57398e-99
-6.99181e-101
-1.48387e-94
2.4349e-102
-1.62417e-103
-7.70292e-100
3.07871e-105
2.9966e-107
-2.67566e-101
7.59474e-109
1.09708e-110
4.53221e-104
4.12763e-112
-9.71915e-112
-2.93332e-107
1.25229e-115
-1.20281e-116
-4.42593e-111
9.98763e-119
8.43274e-119
2.03344e-119
3.42252e-121
2.06364e-122
-2.96366e-117
2.61408e-124
-1.05927e-126
-3.44723e-120
2.61615e-127
9.97952e-129
-7.91986e-123
5.88974e-131
5.14981e-133
-4.64761e-126
2.58441e-134
-1.23595e-136
-2.18111e-129
1.28056e-137
-4.62157e-138
4.73614e-133
9.25834e-141
-6.69171e-142
-1.06918e-136
2.90067e-143
1.95429e-144
2.46399e-139
2.59635e-146
-2.48998e-147
-3.37263e-142
1.46521e-149
-1.80101e-150
-9.24212e-145
-4.02436e-154
1.71584e-150
6.1799e-08
3.17034e-08
3.89048e-08
6.81147e-08
4.10705e-08
4.27835e-08
4.43182e-08
4.23677e-08
9.95936e-09
2.11307e-07
6.6446e-09
1.8697e-09
-1.31314e-08
-1.47654e-09
-4.49181e-08
-1.56019e-08
-1.02482e-08
2.81801e-07
2.21959e-07
2.21601e-07
2.66272e-08
-2.71285e-08
-1.29925e-08
-2.29611e-08
-1.87114e-08
5.6074e-08
1.49563e-08
-2.15638e-07
-7.58724e-08
-2.05974e-09
-1.22902e-08
6.52258e-09
6.35228e-09
8.25357e-12
1.3067e-10
-4.0952e-10
1.82986e-08
-1.71466e-10
1.8099e-08
2.30962e-16
-3.13342e-18
-8.6122e-09
-8.6122e-09
-2.84203e-18
2.28668e-16
2.2306e-16
2.30272e-16
-9.19333e-25
6.75513e-23
5.34362e-22
-4.55713e-22
-5.03839e-22
1.48374e-21
1.72829e-26
-1.11486e-26
-2.03296e-27
-5.96533e-30
8.41995e-29
3.8503e-31
1.99482e-31
9.22264e-33
1.53253e-35
-3.10792e-35
2.33587e-39
4.21356e-39
9.52047e-43
-1.02033e-41
4.17896e-46
-5.21629e-46
1.83568e-49
3.30955e-49
8.0479e-53
-1.23847e-51
3.51387e-56
5.92118e-55
1.52268e-59
3.56e-57
6.58457e-63
-1.50297e-60
2.83632e-66
9.36341e-64
1.22013e-69
-2.10838e-67
5.24934e-73
-2.8143e-70
2.3373e-76
1.54156e-73
1.07391e-79
-2.9498e-76
4.62584e-83
-1.80604e-79
2.47956e-86
-2.25067e-82
1.19045e-89
-1.23204e-86
8.40024e-93
-5.12979e-89
4.80505e-96
1.02266e-91
2.62671e-99
-2.97195e-95
1.50086e-102
4.77964e-99
5.40809e-106
-2.25373e-102
7.58626e-109
3.94832e-105
1.40529e-111
-1.97552e-107
4.47808e-115
7.22765e-111
1.1514e-117
-5.77252e-114
1.29e-121
2.08279e-119
4.19936e-125
-3.19252e-121
6.04217e-128
-6.80499e-124
3.97219e-130
-4.34534e-126
3.64881e-134
7.28362e-130
1.98813e-137
-8.06685e-133
2.0908e-140
-4.63482e-136
8.22512e-144
7.10561e-139
5.74419e-147
-5.39377e-143
2.99756e-150
7.16057e-146
2.12106e-150
4.81211e-09
-2.99028e-09
-4.86976e-08
7.05262e-09
1.20862e-08
1.30674e-07
-1.00698e-08
-2.08917e-08
2.96175e-07
-2.06129e-09
1.13187e-08
-6.30214e-09
1.94699e-07
-1.32719e-07
1.29948e-07
5.42565e-07
9.49969e-08
6.01515e-08
-3.94777e-09
-6.79437e-08
-5.16829e-07
-2.48986e-08
1.9718e-08
-3.43293e-07
2.88528e-08
-5.37134e-08
5.11259e-09
-7.25807e-09
-2.07844e-09
5.82755e-08
-4.60969e-10
1.3939e-10
5.31995e-11
4.82478e-08
4.84071e-08
-5.56969e-16
1.23996e-18
-1.36397e-17
-1.02668e-08
2.16259e-18
-5.74057e-16
-5.49254e-16
-6.06297e-16
-1.82302e-24
1.46751e-21
2.10092e-22
-5.53182e-20
-6.05546e-20
-4.93501e-20
-6.11365e-20
2.59373e-26
5.98445e-24
2.06142e-27
1.89379e-28
2.81285e-25
-9.81991e-30
3.49304e-28
1.86095e-27
-1.80428e-30
3.81016e-30
-3.3723e-31
1.15556e-32
2.97604e-33
-2.35141e-33
-2.06335e-34
5.06816e-37
-1.13221e-36
-8.80788e-39
2.50642e-40
-3.01339e-40
6.89531e-41
1.97841e-43
-1.13781e-43
-2.45711e-45
1.53278e-46
-4.03998e-47
-4.59672e-47
1.14968e-49
-9.4596e-51
-2.15854e-50
8.5661e-53
-1.49815e-53
3.75936e-54
6.36308e-56
-1.56884e-57
-2.32947e-57
4.70536e-59
-1.07881e-59
-9.67852e-61
3.46695e-62
-3.59706e-63
1.87405e-63
2.54483e-65
-4.95932e-66
1.60722e-66
1.86051e-68
2.18821e-69
-2.00766e-69
1.35633e-71
-9.69545e-73
3.04051e-72
9.85848e-75
-1.18609e-77
1.89828e-75
7.14071e-78
1.66544e-79
7.47593e-81
5.15412e-81
1.00329e-82
1.73663e-81
3.70924e-84
-6.85712e-86
-2.2248e-85
2.66004e-87
1.1509e-87
2.1081e-88
1.90317e-90
6.47814e-91
-4.40827e-92
1.35857e-93
-2.87287e-94
-7.67965e-94
9.67797e-97
9.27873e-98
-1.6737e-97
6.87712e-100
5.2841e-101
3.43615e-101
4.86932e-103
3.1185e-104
-6.57081e-104
3.43508e-106
5.08407e-107
-3.47883e-107
2.41906e-109
-9.80198e-111
-7.72173e-111
1.70063e-112
7.86988e-114
-4.27202e-119
1.19258e-115
-3.78229e-117
8.38897e-117
8.34377e-119
8.33139e-120
1.57292e-120
5.82286e-122
7.91216e-124
-3.11104e-123
4.05366e-125
9.15696e-127
2.99998e-125
2.81354e-128
1.35368e-128
-8.37487e-130
1.94802e-131
-8.5008e-133
1.02765e-132
1.34592e-134
-1.65605e-135
5.99802e-135
9.28399e-138
1.33164e-138
3.18692e-138
6.38625e-141
-1.20161e-142
1.35168e-142
4.27332e-144
-3.37199e-146
-8.7304e-146
5.2996e-148
4.08748e-148
1.45594e-08
1.1941e-08
-3.30561e-08
3.82376e-08
2.09782e-08
2.35819e-07
-2.1701e-09
1.07534e-08
-2.64761e-07
3.86403e-08
-4.00111e-08
-1.45653e-07
5.24903e-08
1.31284e-08
-1.41495e-08
-1.28914e-08
-2.08619e-09
-1.08438e-08
3.26418e-09
-3.77395e-07
-4.27299e-07
-6.68147e-07
-4.24412e-07
-3.43094e-08
-3.17123e-08
-3.86822e-08
-1.53789e-07
-1.79769e-07
-1.42405e-07
9.86043e-09
2.06437e-08
2.63516e-08
6.85163e-09
4.86018e-08
4.07018e-08
3.11811e-09
3.92558e-08
-2.83391e-09
6.11224e-09
-8.69762e-08
5.60446e-10
-3.71071e-10
-2.59187e-10
1.57291e-10
4.09716e-10
-1.99822e-10
4.10953e-17
3.51708e-18
-6.01707e-17
5.56685e-18
3.18487e-18
5.19113e-17
4.11463e-17
3.22441e-17
4.50687e-18
7.61022e-23
-6.48049e-21
-2.35048e-23
-2.44097e-20
-1.59121e-20
-2.48292e-20
-1.55962e-20
4.60636e-24
-3.19701e-24
-9.53739e-26
1.23305e-24
-2.11134e-25
-1.13228e-29
6.46697e-27
-1.07664e-26
-5.45797e-29
1.74363e-30
-2.95796e-28
1.79683e-32
2.84702e-34
-1.48531e-30
-8.41139e-36
1.83362e-37
-4.96903e-34
-1.99296e-39
1.39723e-40
-5.91842e-38
2.60518e-41
1.04306e-43
-6.72408e-41
1.23353e-45
7.62897e-47
-2.73619e-44
-1.43655e-47
5.55032e-50
-6.0232e-48
5.36064e-51
4.0206e-53
-1.21512e-51
-1.05077e-54
2.91295e-56
-1.62663e-54
2.21311e-57
2.1059e-59
-6.26725e-58
-6.30391e-62
1.53526e-62
-2.41863e-60
1.13429e-63
1.10091e-65
-2.21348e-63
-5.84116e-68
7.74797e-69
-7.39985e-69
8.61579e-70
5.53144e-72
2.38847e-71
-1.2913e-74
3.93162e-75
-1.22015e-73
-9.46357e-76
2.78148e-78
-1.13667e-76
9.47706e-80
1.96092e-81
2.74542e-82
2.7678e-82
1.38117e-84
-5.96994e-83
-4.0003e-87
9.67955e-88
1.04632e-88
4.77335e-89
6.79696e-91
6.17603e-92
5.30588e-92
4.77983e-94
-5.09363e-92
-8.7626e-96
3.3315e-97
-2.89198e-95
-4.13085e-98
2.30327e-100
2.88744e-101
1.09269e-101
1.59922e-103
2.76745e-102
7.34088e-105
1.10693e-106
-6.12059e-107
5.56292e-108
7.64872e-110
-1.7731e-108
2.83429e-112
5.26246e-113
-2.56609e-111
9.76295e-114
3.61276e-116
1.71045e-116
-3.1338e-121
2.47693e-119
-3.96335e-118
1.95574e-120
1.6938e-122
3.15506e-121
9.22364e-124
1.15628e-125
-4.52742e-124
-1.61815e-127
7.88061e-129
1.12264e-128
2.3084e-129
5.35746e-132
3.06213e-131
-8.57503e-133
3.63356e-135
-3.62848e-134
3.91803e-136
2.46232e-138
5.77609e-137
6.786e-139
1.65998e-141
3.28553e-140
5.93278e-143
1.09974e-144
1.4304e-143
4.97465e-146
5.40308e-147
-1.25834e-154
3.53861e-09
1.83226e-08
-1.12875e-07
3.13444e-08
5.15169e-09
2.72354e-07
-5.89777e-08
-4.73984e-09
-1.22851e-07
-5.33116e-08
-4.92235e-08
-4.78165e-08
5.2331e-09
-8.15252e-09
-6.12313e-09
-1.25042e-07
-8.8269e-08
-1.44875e-07
-2.57332e-07
-2.55601e-08
-4.8215e-08
-9.20395e-08
-1.46697e-07
-1.54482e-08
3.30186e-08
7.54969e-09
2.84751e-07
-9.81394e-09
4.37044e-09
2.101e-09
-3.06272e-08
5.42493e-09
5.4108e-09
1.4035e-08
7.53382e-10
-1.68379e-10
4.37919e-10
-7.21326e-10
1.82355e-10
-2.5124e-10
-1.05154e-14
-1.11043e-15
4.03185e-16
-1.12284e-14
4.07287e-16
6.09131e-16
-7.32044e-22
-1.34014e-17
1.99099e-21
3.76149e-19
6.73261e-18
3.69572e-19
6.62223e-18
-1.30323e-17
-1.35285e-17
-1.30326e-17
-4.80999e-25
-1.46832e-22
2.47374e-25
1.97375e-25
-5.47167e-25
7.32828e-29
8.54185e-26
-1.44872e-26
-6.04472e-29
1.33187e-27
-6.25513e-28
1.71151e-30
1.07735e-30
-2.88974e-30
-4.53522e-33
1.26891e-34
-1.67899e-33
-1.67416e-36
5.80877e-38
-4.28783e-37
-5.69817e-40
4.5493e-41
-1.77533e-40
2.32913e-42
3.42001e-44
-8.39836e-44
-9.94559e-45
2.50039e-47
-3.27248e-47
2.03461e-48
1.82113e-50
-1.83573e-50
-6.91702e-52
1.32188e-53
-5.91057e-54
4.24145e-54
9.55998e-57
-4.48754e-57
-1.48092e-58
6.89081e-60
2.80876e-61
-8.57985e-61
4.94547e-63
-7.36154e-64
-1.88407e-64
3.53566e-66
-8.68779e-67
1.48762e-66
2.52233e-69
-3.52281e-70
1.00311e-70
1.79348e-72
2.78504e-74
-1.95105e-73
1.27034e-75
4.69733e-76
-3.82739e-77
8.9872e-79
5.57149e-80
-2.26107e-80
6.34143e-82
-1.31813e-82
3.23463e-83
4.46082e-85
5.14517e-86
-5.87703e-92
3.13358e-88
-1.04849e-89
-3.91874e-95
2.19234e-91
2.59905e-92
-8.60776e-93
1.52779e-94
2.22303e-96
7.91414e-96
1.06319e-97
1.52201e-99
1.35408e-98
7.3841e-101
-1.74712e-102
-1.54098e-101
5.11375e-104
1.7298e-105
-1.23219e-105
3.53415e-107
-1.02559e-108
1.57486e-109
2.43557e-110
1.49859e-111
2.54463e-112
1.6734e-113
1.83039e-114
4.03824e-114
1.14713e-116
3.52171e-117
5.475e-118
7.84654e-120
3.49443e-121
5.97961e-122
5.35828e-123
-1.47292e-123
-4.31747e-125
3.65391e-126
-9.10231e-127
2.22095e-127
2.48457e-129
7.6384e-130
1.41312e-130
1.68472e-132
3.7011e-133
-1.46964e-139
1.13981e-135
9.92671e-137
7.3349e-137
7.69087e-139
7.48852e-140
4.07063e-140
5.09317e-142
-4.28193e-144
4.2614e-143
-6.13744e-146
-9.43022e-147
-3.93439e-08
3.617e-09
4.80228e-07
1.20155e-08
-2.85984e-09
-4.2746e-07
9.623e-09