/*--------------------------------*- C++ -*----------------------------------*\
| =========                 |                                                 |
| \\      /  F ield         | OpenFOAM: The Open Source CFD Toolbox           |
|  \\    /   O peration     | Version:  5.0                                   |
|   \\  /    A nd           | Web:      www.OpenFOAM.org                      |
|    \\/     M anipulation  |                                                 |
\*---------------------------------------------------------------------------*/
FoamFile
{
    version     2.0;
    format      ascii;
    class       volScalarField;
    location    "4.9";
    object      alpha.water;
}
// * * * * * * * * * * * * * * * * * * * * * * * * * * * * * * * * * * * * * //

dimensions      [0 0 0 0 0 0 0];

internalField   nonuniform List<scalar> 
8584
(
1.0654
1.0724
1.03447
0.999742
1
1.00466
0.929532
-1.44523e-19
2.42649e-15
2.11913e-17
2.19482e-18
3.33226e-19
4.19947e-21
2.23368e-24
1.29463e-28
3.36254e-32
1.36584e-35
5.99836e-39
2.64865e-42
1.08714e-45
5.2795e-49
2.42386e-52
1.10239e-55
3.89182e-59
2.18048e-62
1.39468e-65
6.04101e-69
1.62692e-72
1.58496e-74
2.30603e-78
5.50726e-82
6.35689e-85
9.87682e-88
2.20435e-90
5.99341e-94
3.85128e-97
2.09178e-100
6.80956e-103
1.09852e-106
1.18776e-110
1.13832e-113
3.87228e-116
4.7983e-119
1.09274e-121
2.1716e-125
4.03236e-128
6.67386e-132
7.08019e-136
1.23508e-137
6.04211e-141
1.02942
1.03964
1.01077
1.01746
1.02824
1.02039
1.00052
-2.9072e-16
-1.85028e-18
9.4652e-17
1.88425e-17
1.94935e-19
1.58096e-22
5.72227e-26
1.39879e-29
3.96153e-33
1.6012e-36
7.43276e-40
3.71861e-43
1.39317e-46
6.80702e-50
2.99918e-53
2.94534e-56
1.37703e-59
3.24792e-63
8.96246e-66
3.74344e-69
6.78708e-73
3.80669e-75
9.87855e-79
3.10867e-82
6.26568e-85
1.48006e-88
1.90227e-91
4.93849e-95
6.68904e-98
3.39888e-101
2.04157e-105
8.98274e-107
7.46547e-110
8.65985e-114
1.00386e-116
1.4468e-120
2.19929e-124
4.31321e-127
1.00335e-129
7.13229e-133
1.00125e-136
4.34262e-140
7.46928e-142
1.03825
1.01471
1.01415
1.06322
1.00033
1.00541
1.00114
-3.18098e-17
-5.12577e-18
1.72723e-21
1.91638e-17
3.59549e-18
7.6691e-20
9.51372e-23
7.32015e-27
1.16946e-30
4.79594e-34
2.20539e-37
1.27164e-40
3.97028e-44
2.20464e-47
8.80251e-51
5.58083e-54
2.36044e-57
2.14012e-60
5.92442e-64
1.1029e-66
9.17237e-71
5.49092e-73
1.23425e-75
1.4554e-79
1.80277e-83
6.95626e-85
8.90452e-88
8.50169e-92
3.42274e-95
1.4909e-98
1.74572e-102
2.8805e-104
2.40518e-107
4.82274e-111
3.10414e-114
5.33775e-117
9.77535e-121
1.72378e-124
2.92335e-128
1.00436e-129
8.21538e-133
9.86942e-137
6.15233e-141
1.05148
1.04106
1.00797
1.00586
1.02476
0.974802
1.00031
0.376346
-1.61815e-17
2.03411e-15
9.92129e-18
1.00537e-18
8.28258e-20
3.79205e-22
7.16503e-26
5.89885e-30
1.96478e-33
9.30128e-37
3.59336e-40
1.52234e-43
7.08808e-47
2.83668e-50
2.71175e-53
1.44351e-56
3.51982e-60
2.51605e-63
5.57952e-67
4.63694e-69
2.44198e-72
1.6382e-76
1.02094e-78
8.43089e-82
1.83254e-85
5.42343e-89
1.97201e-91
3.51383e-95
1.30051e-98
2.32896e-101
1.33994e-103
4.78841e-107
9.30373e-111
1.67903e-113
5.97166e-117
5.75728e-120
9.78296e-123
3.80612e-126
4.91002e-130
2.56802e-133
1.89568e-136
4.30054e-139
1.02808
1.02283
1.02385
1.008
1.02905
1.00402
1.00249
0.976011
-1.0389e-16
7.41678e-15
1.07083e-16
4.7456e-18
5.9705e-19
6.72912e-21
3.00047e-24
1.7194e-28
4.4014e-32
1.85903e-35
8.16254e-39
3.78963e-42
1.46565e-45
1.02668e-48
3.06718e-52
1.42904e-55
8.81167e-59
3.35955e-62
3.16861e-65
3.85531e-68
4.19112e-71
3.52849e-74
4.22717e-77
2.97638e-81
2.58745e-83
5.41729e-87
4.77677e-91
3.62261e-94
3.07161e-96
8.60808e-100
6.11906e-104
9.5037e-106
3.41412e-109
1.29279e-112
2.81435e-115
2.81893e-118
5.82145e-122
2.43032e-125
1.7792e-127
8.29062e-131
7.13227e-134
1.66172e-137
1.03611
1.02587
1.03062
1.03493
0.970553
0.989234
1.00235
1.00013
-1.725e-16
6.70393e-15
9.26702e-17
3.76124e-18
4.67058e-19
5.18056e-21
2.27236e-24
1.22187e-28
3.3374e-32
2.2373e-35
7.98021e-39
8.32187e-42
2.13769e-45
7.24918e-49
2.82701e-52
4.10265e-55
1.94222e-58
5.09477e-61
1.90734e-64
3.00753e-68
2.19042e-70
3.28833e-73
4.04553e-76
2.25285e-79
1.24567e-83
5.91183e-87
1.64768e-89
4.5209e-93
1.10903e-96
4.54324e-99
5.00027e-103
9.22572e-106
1.39498e-108
2.2001e-111
1.09677e-114
2.93653e-118
6.8862e-122
1.12691e-124
9.82484e-129
2.14333e-132
2.56862e-135
2.54932e-139
1.04587
0.933468
0.996241
1.01262
1.01724
1.0019
1.00478
0.902163
-2.73339e-17
1.44507e-15
5.76798e-18
9.4764e-19
7.88151e-20
3.45902e-22
6.3631e-26
5.29419e-30
1.75378e-33
7.51438e-37
3.28356e-40
1.41146e-43
1.03263e-46
2.92651e-50
1.78803e-53
5.81177e-57
4.07407e-60
1.19168e-63
3.86833e-67
7.95417e-70
7.12359e-72
2.14254e-75
1.65513e-79
8.28547e-83
2.81017e-86
6.17901e-89
1.83167e-92
2.95946e-95
8.53103e-99
2.68932e-101
2.85814e-104
4.99133e-108
1.89392e-111
3.64584e-114
2.06544e-117
1.10695e-120
9.45651e-124
1.81e-127
2.16791e-129
7.08813e-133
4.40939e-137
8.99655e-139
1.04303
0.965795
0.995088
1.0892
1.07474
1.0091
1.00197
0.167865
-1.39595e-18
-4.11398e-21
1.86514e-17
3.41745e-18
7.08752e-20
8.80771e-23
7.00831e-27
1.12639e-30
4.56188e-34
1.96772e-37
1.13854e-40
6.43491e-44
1.79462e-47
1.77054e-50
6.36168e-54
1.38451e-57
5.29885e-61
2.9492e-63
4.61872e-66
4.27669e-70
5.70429e-74
2.39455e-75
8.90363e-79
2.74409e-82
3.78851e-85
2.80813e-89
2.47477e-92
8.12545e-95
1.17896e-98
2.54857e-101
1.31808e-104
2.19234e-107
1.35713e-111
5.37309e-114
3.91355e-117
1.40965e-120
8.35719e-124
4.48574e-128
1.17468e-131
4.55675e-135
1.8084e-138
1.12649e-141
1.04526
1.04047
0.984163
0.983533
1.02415
0.990692
1.00013
-3.53027e-19
-3.70239e-18
-1.3593e-23
1.67477e-17
5.25446e-19
4.80743e-22
6.56868e-26
1.63198e-29
5.24888e-33
2.77241e-36
1.37132e-39
6.83198e-43
2.70774e-46
9.87251e-50
4.90163e-53
1.84641e-56
1.21584e-59
1.20174e-61
2.06411e-65
1.59345e-69
6.30453e-73
3.60035e-76
1.80904e-79
1.54671e-80
1.21955e-83
5.74349e-88
8.57452e-92
4.74725e-94
1.69023e-97
1.20627e-100
1.72145e-104
2.34768e-108
3.57493e-110
5.3792e-113
8.0628e-116
2.03854e-119
4.62417e-123
3.8003e-126
5.07536e-130
3.66905e-132
5.97615e-135
5.84261e-138
2.95522e-142
1.04686
1.01278
1.02726
0.983767
0.988636
1.00276
1.00006
-1.65063e-26
3.54687e-15
7.21601e-17
1.88828e-18
3.29071e-19
6.52559e-21
6.09778e-24
3.73833e-28
7.3452e-32
2.96207e-35
1.26093e-38
5.3862e-42
2.37279e-45
9.82627e-49
4.14136e-52
1.74441e-55
7.35623e-59
3.21046e-62
1.41665e-65
1.17572e-68
2.83664e-72
3.43068e-75
1.56311e-78
1.69445e-81
1.30094e-84
6.57693e-88
5.11606e-91
7.11688e-95
9.00778e-98
2.97024e-100
4.57732e-104
1.99294e-106
4.72011e-110
5.44106e-114
1.50892e-117
2.86422e-119
1.5309e-122
3.55762e-126
5.67093e-129
2.56393e-132
1.76934e-135
1.06934e-138
3.91958e-142
1.05166
1.0524
1.03507
0.988201
0.997023
1.00001
0.921855
1.40882e-12
1.56762e-14
2.2851e-16
9.94636e-18
1.16477e-18
4.05982e-20
1.99108e-22
1.00909e-25
1.79297e-29
9.74784e-33
7.45304e-36
5.56015e-39
4.0476e-42
2.938e-45
2.13042e-48
1.54078e-51
1.11219e-54
8.00849e-58
5.75119e-61
4.12397e-64
2.95069e-67
2.105e-70
1.49864e-73
1.06394e-76
7.53423e-80
5.32667e-83
3.75849e-86
2.6473e-89
1.86069e-92
1.30381e-95
9.10892e-99
6.35341e-102
4.42558e-105
3.07571e-108
2.13319e-111
1.47581e-114
1.01866e-117
7.01762e-121
4.82137e-124
3.30554e-127
2.26302e-130
1.5455e-133
6.22516e-137
1.05618
1.03473
1.04364
1.0252
1.00898
1.00915
1.00119
1.2735e-10
7.65157e-15
8.09091e-15
2.10073e-15
7.40994e-17
1.97829e-19
4.2555e-23
8.94763e-27
5.29705e-30
3.89417e-33
2.75437e-36
1.93691e-39
1.33438e-42
9.45382e-46
6.6193e-49
5.01824e-52
3.70307e-55
2.34509e-58
1.62308e-61
1.14617e-64
8.04246e-68
5.55478e-71
3.91289e-74
2.68536e-77
1.85869e-80
1.33391e-83
9.4222e-87
6.17876e-90
4.23077e-93
2.90668e-96
2.00318e-99
1.36466e-102
9.29865e-106
6.33866e-109
4.3132e-112
2.9414e-115
1.98687e-118
1.34207e-121
9.06142e-125
6.20072e-128
4.12145e-131
2.75723e-134
1.09582e-137
1.04803
1.01198
1.01614
1.02638
1.01293
1.0023
1.00155
3.10227e-07
4.12237e-14
4.15106e-16
3.62214e-16
1.12194e-16
7.52772e-18
5.33065e-20
2.60092e-23
3.12998e-27
1.61602e-30
1.2213e-33
8.84165e-37
6.27664e-40
4.45085e-43
3.15217e-46
2.22693e-49
1.57013e-52
1.10393e-55
7.74321e-59
5.42388e-62
3.78884e-65
2.64025e-68
1.83866e-71
1.27769e-74
8.85988e-78
6.13543e-81
4.23611e-84
2.9147e-87
2.0036e-90
1.37481e-93
9.41001e-97
6.43015e-100
4.38251e-103
2.97917e-106
2.02187e-109
1.36968e-112
9.26317e-116
6.2562e-119
4.21602e-122
2.83369e-125
1.90094e-128
1.27215e-131
5.03665e-135
1.06967
1.02277
0.986024
0.990663
1.02048
0.965135
1.00022
0.38842
1.43335e-11
2.29266e-15
3.70693e-17
1.01903e-17
1.21407e-18
2.19863e-20
3.70993e-23
7.29534e-27
2.00654e-30
1.4172e-33
1.06701e-36
7.75517e-40
5.58445e-43
4.01548e-46
2.87966e-49
2.06684e-52
1.47405e-55
1.05025e-58
7.46996e-62
5.30873e-65
3.77564e-68
2.65611e-71
1.87109e-74
1.31615e-77
9.23126e-81
6.46114e-84
4.51896e-87
3.14841e-90
2.19028e-93
1.52092e-96
1.05253e-99
7.27106e-103
5.01507e-106
3.46104e-109
2.37693e-112
1.63027e-115
1.11148e-118
7.57909e-122
5.1577e-125
3.50414e-128
2.37487e-131
9.51204e-135
1.0232
1.02426
1.00916
1.01436
1.00437
1.01748
1.00232
0.966883
3.57111e-12
4.01373e-14
1.14059e-15
1.00258e-16
2.00043e-17
7.66464e-19
2.614e-21
7.01276e-25
1.24995e-28
7.9324e-32
5.97343e-35
4.33069e-38
3.09974e-41
2.21556e-44
1.58012e-47
1.12539e-50
7.99481e-54
5.6655e-57
4.00855e-60
2.83006e-63
1.99248e-66
1.4001e-69
9.81808e-73
6.86591e-76
4.79597e-79
3.3406e-82
2.32156e-85
1.61107e-88
1.1153e-91
7.69995e-95
5.30715e-98
3.65227e-101
2.50857e-104
1.72005e-107
1.1763e-110
8.02388e-114
5.46426e-117
3.71411e-120
2.51828e-123
1.70466e-126
1.15157e-129
4.59449e-133
1.04936
1.07195
1.0121
1.0187
0.986621
0.993302
1.00233
1.00004
1.75984e-11
3.66984e-14
1.0712e-15
1.89344e-16
4.58351e-17
1.90349e-18
6.62697e-21
1.78034e-24
3.10406e-28
1.94743e-31
1.46597e-34
1.06276e-37
7.5975e-41
5.42422e-44
3.86576e-47
2.74985e-50
1.95152e-53
1.38147e-56
9.76645e-60
6.88905e-63
4.84753e-66
3.40446e-69
2.38365e-72
1.66443e-75
1.1616e-78
8.08912e-82
5.61654e-85
3.89329e-88
2.69279e-91
1.85836e-94
1.28059e-97
8.80422e-101
6.03993e-104
4.13696e-107
2.82684e-110
1.92646e-113
1.31056e-116
8.89498e-120
6.02247e-123
4.07382e-126
2.75185e-129
1.09809e-132
1.00287
0.949943
0.972379
1.00763
1.02168
1.00131
1.0054
0.897319
1.70397e-12
2.43154e-14
3.158e-16
7.48207e-18
7.80046e-19
1.39105e-20
2.32065e-23
4.59292e-27
1.30196e-30
9.15139e-34
6.84415e-37
4.95959e-40
3.59224e-43
2.58514e-46
1.83977e-49
1.31835e-52
9.41038e-56
6.69694e-59
4.75144e-62
3.37326e-65
2.39052e-68
1.75609e-71
1.19855e-74
8.36884e-78
5.88076e-81
4.12109e-84
2.92486e-87
2.01435e-90
1.39792e-93
9.79273e-97
6.81607e-100
4.65807e-103
3.20666e-106
2.20899e-109
1.51687e-112
1.04175e-115
7.10444e-119
4.84363e-122
3.36516e-125
2.24916e-128
1.52411e-131
6.84118e-135
1.06384
1.20407
0.954113
1.05539
0.967479
1.00944
1.0027
0.17593
5.36806e-14
5.22812e-16
4.44114e-16
1.36966e-16
9.33753e-18
6.9397e-20
3.66196e-23
4.44957e-27
2.23108e-30
1.68771e-33
1.22554e-36
8.71507e-40
6.18916e-43
4.38797e-46
3.10309e-49
2.19055e-52
1.54269e-55
1.08382e-58
7.59862e-62
5.31435e-65
3.7058e-68
2.58341e-71
1.79808e-74
1.24813e-77
8.64424e-81
5.97216e-84
4.11612e-87
2.83295e-90
1.9454e-93
1.33275e-96
9.11862e-100
6.22429e-103
4.23705e-106
2.87934e-109
1.95258e-112
1.32099e-115
8.92365e-119
6.01417e-122
4.04238e-125
2.71319e-128
1.81902e-131
7.2138e-135
1.03562
1.00282
1.00077
1.05409
0.920422
0.99457
1.0002
1.50455e-08
4.49265e-15
2.6583e-16
1.80357e-15
1.35016e-16
5.81161e-19
1.63345e-22
2.56375e-26
1.45502e-29
1.07575e-32
7.57346e-36
5.28442e-39
3.69617e-42
2.61449e-45
1.84292e-48
1.30097e-51
9.10979e-55
6.64103e-58
4.57877e-61
3.13868e-64
2.19026e-67
1.53298e-70
1.05829e-73
7.51984e-77
5.10451e-80
3.54723e-83
2.41652e-86
1.65513e-89
1.14104e-92
7.79975e-96
5.32066e-99
3.62179e-102
2.46721e-105
1.67337e-108
1.13917e-111
7.73815e-115
5.18319e-118
3.51235e-121
2.42669e-124
1.58746e-127
1.05228e-130
7.02704e-134
2.82079e-137
1.0526
1.00694
1.00783
0.991736
0.891914
1.00347
1.00024
2.33751e-11
2.60373e-16
2.56073e-16
1.03692e-17
6.20375e-19
1.371e-20
4.84146e-23
2.1176e-26
4.52959e-30
2.68116e-33
2.06415e-36
1.54833e-39
1.13537e-42
8.29881e-46
6.05703e-49
4.4092e-52
3.20424e-55
2.32248e-58
1.67897e-61
1.21106e-64
8.7168e-68
6.26159e-71
4.48487e-74
3.20476e-77
2.28316e-80
1.62279e-83
1.15105e-86
8.14432e-90
5.75449e-93
4.05452e-96
2.84851e-99
1.99749e-102
1.39777e-105
9.75881e-109
6.80032e-112
4.72695e-115
3.27703e-118
2.26774e-121
1.56566e-124
1.0783e-127
7.4168e-131
5.08666e-134
2.05574e-137
1.02393
1.03591
1.01704
1.00449
1.02412
0.986551
0.922495
4.73333e-13
2.42605e-15
2.10636e-17
1.10442e-18
1.5499e-19
1.97028e-21
1.12247e-24
6.89395e-29
1.82487e-32
7.13573e-36
3.11557e-39
1.42406e-42
9.62208e-46
3.11255e-49
1.39545e-52
8.13526e-56
2.38389e-59
1.6398e-62
3.54996e-65
6.61578e-69
2.63237e-72
4.97216e-75
1.20077e-78
4.04507e-81
5.18003e-85
9.02692e-88
9.99617e-91
4.16143e-94
1.92909e-97
2.57901e-100
1.2766e-103
1.1541e-107
2.51648e-109
1.43757e-112
1.14982e-116
4.33463e-119
8.13981e-123
4.45168e-126
3.57688e-128
9.59411e-132
4.25109e-135
4.56605e-138
8.71703e-141
1.01604
1.08491
1.02229
1.01395
1.03986
0.98626
1.0006
5.80401e-11
-1.84728e-18
9.15238e-17
1.9e-17
2.07318e-19
1.821e-22
7.0054e-26
1.72578e-29
4.89887e-33
1.93192e-36
9.61018e-40
4.34935e-43
1.66779e-46
9.88752e-50
4.08372e-53
2.77029e-56
3.05709e-59
8.71752e-63
1.88287e-66
2.90584e-69
6.09685e-73
2.39655e-75
4.97585e-79
1.01821e-81
1.05399e-84
8.12773e-88
2.9384e-91
1.68086e-94
8.27083e-98
1.10856e-101
5.86447e-105
2.59929e-106
2.81282e-109
2.33067e-113
6.27677e-117
3.36411e-120
1.46715e-122
2.53255e-126
6.55325e-130
1.16383e-132
1.10982e-136
1.36063e-139
8.69513e-144
1.03245
1.01722
1.03076
1.00481
0.999864
1.00186
1.00155
2.47653e-07
-5.12513e-18
1.81724e-21
1.91188e-17
3.5859e-18
7.64804e-20
9.4962e-23
7.31696e-27
1.16967e-30
4.77405e-34
2.41227e-37
1.21523e-40
3.81537e-44
2.47225e-47
7.16277e-51
6.92937e-54
2.07902e-57
1.08132e-60
3.69737e-64
1.21823e-66
3.29184e-70
3.22081e-73
7.2597e-76
7.56806e-80
9.96998e-84
1.06764e-85
6.03058e-89
1.92534e-92
2.72895e-95
1.7023e-98
6.33169e-102
3.90904e-105
1.77222e-107
1.48323e-110
1.91966e-114
6.38449e-118
1.59982e-120
3.09641e-124
3.11849e-128
9.82279e-130
6.21869e-133
9.27069e-137
2.3851e-139
1.05958
1.02151
1.00225
0.962256
1.03005
0.959033
1.00034
0.387482
6.41886e-12
2.0407e-15
9.94289e-18
1.036e-18
8.5753e-20
3.94936e-22
7.49991e-26
6.13954e-30
2.04239e-33
8.72615e-37
3.70695e-40
1.61503e-43
6.98989e-47
2.86608e-50
1.69428e-53
1.51262e-56
4.45485e-60
2.31209e-63
5.51987e-67
8.19027e-69
6.86392e-72
4.50407e-76
9.01887e-79
7.78304e-82
1.67296e-85
3.97106e-89
7.20233e-92
1.71568e-95
1.19585e-98
2.17921e-101
1.73374e-105
5.1407e-107
3.6626e-110
1.48216e-113
1.88864e-116
9.54756e-120
9.03982e-123
3.62177e-126
2.19062e-129
1.67628e-133
4.08625e-137
1.62113e-140
1.01236
0.975984
0.999202
1.02395
0.998738
1.02054
1.00267
0.968351
1.49074e-12
7.20093e-15
1.03353e-16
4.90275e-18
6.23933e-19
7.07253e-21
3.16825e-24
1.71939e-28
4.58811e-32
1.91663e-35
9.7042e-39
3.56513e-42
1.45046e-45
6.60298e-49
3.57372e-52
1.72038e-55
9.65232e-59
1.07068e-61
1.96258e-65
4.93586e-69
1.13472e-71
2.51333e-74
2.79197e-77
1.54712e-81
1.13242e-83
4.06528e-87
5.12886e-90
3.77456e-94
2.30226e-96
6.11491e-100
6.21374e-102
2.2449e-105
1.79611e-109
7.7679e-112
3.8338e-115
1.77426e-118
5.63505e-122
1.81513e-125
2.94211e-127
1.32477e-130
4.5758e-134
9.97651e-137
1.04772
1.0295
0.992107
0.959569
1.02011
0.995414
1.00262
1.00008
6.88496e-12
6.63724e-15
9.11408e-17
3.84187e-18
4.79576e-19
5.34057e-21
2.34547e-24
1.2694e-28
3.45328e-32
1.55085e-35
6.72064e-39
1.58164e-41
3.32021e-45
2.62514e-48
8.06077e-52
2.49689e-55
1.21909e-58
9.13974e-62
5.87258e-65
7.11277e-69
2.19652e-72
1.13538e-73
2.18838e-76
3.36167e-79
4.47155e-83
1.49289e-86
2.1113e-90
5.70216e-93
1.81664e-96
4.23794e-99
4.4621e-103
1.58642e-105
5.84456e-109
3.58394e-112
8.52034e-115
2.9423e-118
1.84941e-121
1.13003e-125
3.17595e-128
1.53902e-130
8.58341e-134
4.71908e-138
1.09907
1.12698
0.982841
0.99573
1.01728
0.999643
1.00548
0.897612
6.63873e-13
1.43409e-15
5.7209e-18
9.1983e-19
7.64389e-20
3.35366e-22
6.1533e-26
5.12016e-30
1.69646e-33
7.47662e-37
3.18288e-40
1.40283e-43
1.02477e-46
3.08536e-50
1.39568e-53
6.05546e-57
3.19264e-60
2.1898e-63
5.1703e-67
1.80548e-70
5.14261e-72
4.11399e-75
2.50577e-79
4.56683e-83
1.75685e-86
2.36013e-89
1.10728e-91
2.88927e-95
3.93889e-99
2.00757e-101
3.87143e-105
5.17123e-109
1.53201e-111
1.03733e-114
2.82678e-117
1.4908e-120
8.3141e-124
5.13744e-128
1.22082e-131
4.76732e-135
3.74062e-138
1.70574e-138
1.03251
1.00949
0.95408
1.01116
1.02805
1.00549
1.00248
0.175478
-1.47844e-18
-4.11498e-21
1.87181e-17
3.43914e-18
7.16977e-20
8.97746e-23
7.22323e-27
1.15354e-30
4.7226e-34
2.01739e-37
1.32837e-40
5.2943e-44
1.79016e-47
1.69443e-50
9.55207e-54
1.4781e-57
6.99087e-60
6.82272e-64
3.04681e-66
4.43194e-69
3.28401e-73
2.31703e-76
7.70082e-79
7.77636e-83
1.97088e-85
1.37769e-88
1.55441e-92
2.59798e-95
1.3224e-98
6.97498e-102
1.12692e-104
2.48404e-107
7.34151e-111
1.26253e-113
4.6186e-117
1.3908e-120
7.5743e-124
5.37624e-128
1.56651e-131
6.1263e-135
2.4372e-138
6.67412e-142
1.03922
1.07099
1.13074
1.01376
0.978728
0.985409
1.00021
9.54291e-09
-3.59045e-18
-1.36672e-23
1.8289e-17
5.76478e-19
5.26867e-22
6.27706e-26
1.51115e-29
5.00852e-33
2.5025e-36
1.02555e-39
5.28388e-43
2.36362e-46
8.48506e-50
5.14552e-53
1.74965e-56
1.18831e-59
3.76504e-63
1.33252e-65
3.41365e-69
5.49699e-73
2.19492e-76
7.51259e-78
2.65665e-81
7.58726e-85
2.91654e-87
1.32827e-90
5.38436e-94
3.0005e-97
1.44213e-100
8.991e-104
5.00142e-108
4.92376e-110
6.99151e-114
6.35984e-118
6.52542e-120
1.44589e-122
3.49145e-126
3.55485e-130
1.35569e-132
9.81594e-136
6.90616e-138
1.09087e-141
1.04502
1.02808
1.02467
1.0197
0.96381
1.00199
1.00019
1.03648e-11
3.57601e-15
7.25584e-17
1.40967e-18
2.34927e-19
4.55781e-21
4.21861e-24
2.59312e-28
5.13502e-32
2.07445e-35
8.90375e-39
3.77795e-42
1.60397e-45
6.87518e-49
2.95116e-52
1.22694e-55
5.2068e-59
2.82955e-62
1.19202e-65
4.24904e-69
1.68806e-72
6.41326e-75
1.70998e-78
2.1456e-82
2.0539e-84
7.60387e-88
8.36809e-92
6.01164e-95
1.33659e-97
9.31427e-101
1.18197e-104
2.01395e-106
1.29082e-109
3.38246e-113
5.84841e-116
2.6227e-119
4.65509e-123
5.27278e-126
7.29654e-129
4.65792e-132
3.20572e-135
1.65933e-138
7.98418e-143
1.00082
1.0113
1.0061
1.00206
1.00113
1.01098
1.00615
1.00494
1.00574
1.00249
1.01051
1.00448
1.00665
1.00266
1.00177
0.987922
1.00204
1.00305
1.00192
0.999362
1.0028
1.00166
1.00348
1.00355
0.967147
1.00134
1.01635
1.00228
1.00368
0.971853
1.00082
1.01307
1.00328
0.95467
1.00036
1.00108
0.988933
1.00647
0.990796
1.00071
0.994112
1.00628
1.00639
1.00744
1.00655
1.00065
1.00643
1.02893
1.00665
1.00678
0.998724
1.0015
1.01253
1.00637
0.992738
1.00114
1.00027
0.999105
0.99993
0.994404
1.00019
0.998031
0.999972
1.00061
1.04036
1.00043
1.00232
1.00096
1.03695
1.00083
1.00154
1.01044
1.00641
0.999928
1.00127
1.00774
1.00623
1.00485
1.00664
1.0031
0.996836
1.00487
1.00862
1.00269
1.00234
0.99883
1.00291
1.00268
1.00201
0.99642
1.0029
1.00151
1.01447
1.00227
0.968325
1.00141
1.00801
1.00224
1.00363
0.94622
1.00035
1.01905
1.00329
0.94208
1.00054
1.001
0.968731
1.00637
0.991657
1.00082
0.981568
1.00639
1.00756
1.03841
1.00701
0.999395
1.00818
1.04279
1.00674
1.00655
0.997917
1.00142
1.00524
1.0063
0.991426
1.00116
1.00017
0.999136
1.00001
0.982446
1
0.997794
0.999791
1.00129
1.03328
1.00123
1.00241
1.00085
1.01302
1.00082
1.00148
1.00546
1.00652
0.992091
1.00055
1.00322
1.00664
1.00511
1.00758
1.00305
0.981643
1.00484
1.01031
1.00269
1.00227
0.998853
1.00289
1.0008
1.0019
0.995302
1.00221
1.00159
1.00506
1.00211
0.983878
1.00166
0.998973
1.00252
1.00349
0.941412
1.00067
1.0203
1.00341
0.938608
1.0012
1.001
0.976715
1.00641
0.999076
1.00111
0.972856
1.00653
1.00793
1.04286
1.00684
1.00008
1.00898
1.04281
1.00656
1.00654
0.997289
1.0015
1.00521
1.00682
0.986428
1.00143
1.00003
0.992933
0.999759
1
1.00018
0.99974
0.999847
1.00096
1.00336
1.00112
1.00097
1.0004
0.998188
1.00042
1.00098
1.009
1.00525
0.994671
1.00392
1.00741
1.00175
0.998271
1.00682
0.98974
1.00162
0.990571
0.998225
1.00556
-5.46837e-17
1
-3.5389e-17
0.923746
4.40226e-10
1.00031
1.25029e-09
1.00948
0.954427
0.984111
1.00312
0.997864
0.999139
0.978573
1.01344
1.01801
1.01834
1.02027
1.01808
1.01375
1.0121
0
1.00112
0.00414305
1.00174
5.43037e-08
1.00118
0.00879301
0.992424
0.99761
0.900288
1.00074
0.969735
0.991635
0.857921
1.00162
1.00663
1
1.00561
1.00774
0.994371
1.00181
0.0871762
1.00021
0.843778
1.00195
0.0943546
1.00016
0.84496
0.789609
1.02353
1.01346
1.0133
0.801947
1.00532
1.00067
0.997904
0.998162
0.916325
0.969374
0.999934
0.919706
1
1
1.00244
1.00035
1.00034
0.993901
1.00229
1.00089
1.01409
0.996022
0.870835
0.991661
0.998971
0.99971
0.901754
1.00139
1.00383
1.01445
1.00554
1.0033
1.01037
1.00073
1.00128
1.00202
1.00101
1.00272
1.0019
1.00223
1.00201
0.936957
0.957076
0.771249
0.983939
0.943998
0.999938
0.774736
1.00138
1
1.00267
0.98942
1
1.00271
1.00133
1.00106
1.00435
1.00175
1.00276
1.00206
1.00417
1.00237
0.981694
0.940181
0.929131
1.02398
0.977541
0.998637
1.38026
1.00622
1.00551
0.991114
1.00107
1.00655
0.996581
1.00599
1.00076
1.00364
1
1.00527
1.00144
1.00379
1.00001
1.00397
1.10398
0.998833
0.935631
1.08354
1.07998
0.943452
0.991996
1.01465
0.97434
1.00682
1.01284
0.965167
0.988512
0.885947
1.00073
0.169143
1.00276
0.883976
1.00075
0.17678
0.989035
0.994981
0.996102
0.936631
1.00762
0.998008
0.972239
0.987887
0.998857
0.959095
0.989068
0.998807
0.989121
0.990853
0.032854
1
-3.47906e-21
1.00037
0.0396018
1.00002
1.44647e-07
1.00186
1.02788
1.0812
0.947392
0.995697
1.01034
1.01359
1.00383
1.00151
1.00435
1.00328
1.00132
1.00453
1.00423
6.52783e-22
0.943233
-2.33128e-18
1.00033
8.75538e-09
0.936527
5.31201e-10
0.989202
1.00873
1.00868
1.01505
0.991219
1.01096
0.98869
0.997036
1.0037
0.980952
1
0.998327
0.981686
1.00272
8.78536e-10
1.00031
2.43914e-09
0.922551
8.97105e-10
1.00018
2.41211e-09
1.00268
0.998779
0.980801
1.02381
0.997851
1.01785
0.983349
1.00165
1.01477
0.997196
1.00641
1.00207
1.01218
0.995491
8.62592e-08
1.00182
0.00952987
1.00089
8.61132e-08
1.00129
0.00949263
0.991768
0.999951
0.876117
1.01461
0.991261
0.996332
0.935798
1
1.00615
0.990454
1.00215
1.00001
1.00583
0.985657
0.0944295
1.00012
0.845789
1.00191
0.0951785
1.00032
0.84604
0.803591
1.02859
1.00847
1.01071
0.927124
1.00107
0.989254
0.990029
0.999995
0.987655
0.967263
0.993301
1
0.989151
0.993788
1.00205
1.00124
1.00044
0.993527
1.00223
1.00076
1.02194
0.992075
0.921811
0.988627
1.02803
1.00658
0.952011
1.00041
1.00336
1.00059
1.03222
1.00123
1.00297
1.01541
1.00248
1.0022
1.00183
1.00288
1.00227
1.00226
1.00187
0.872146
0.999931
0.776214
0.997615
0.965076
1
0.813513
1.00135
1
1.00228
0.99262
1.00131
0.999981
1.00265
1.00211
1.0041
1.00236
1.003
1.00163
1.00402
1.00238
0.984038
1.02112
1.12188
1.01552
0.980402
1.025
0.931766
1.00763
1.00835
1.00533
1.00292
1.00727
1.00841
1.00704
1.00197
1.00371
1.00003
1.00538
1.00142
1.00375
1.00001
0.997293
1.04824
0.999782
1.02102
1.00026
0.997884
0.975026
0.99343
1.01171
0.955565
1.00777
0.993878
1.01107
0.955915
0.88393
1.00099
0.178125
1.00292
0.883937
1.00076
0.177415
0.957104
0.995078
0.980606
0.918877
0.909453
0.964829
0.997105
0.997845
0.998856
0.94167
0.996234
0.99881
0.999982
0.94906
0.0405638
1.0002
2.29925e-07
1.00028
0.0405202
1.00001
2.24979e-07
1.00096
1.03889
0.972372
0.966518
1.00096
1.03606
0.892368
1.00514
1.00216
1.00665
1.00311
1.00487
1.00232
1.00539
1.52592e-08
0.935276
1.07024e-09
1.00031
1.52462e-08
0.935601
1.08502e-09
0.972994
1.03313
0.9525
1.01596
0.962409
1.0292
0.937994
0.999642
1.00181
0.972934
0.976173
0.999809
0.972975
1.00163
4.65408e-10
1.00033
1.2354e-09
0.930041
-3.74684e-17
1
-3.7671e-17
0.996817
1.02292
1.01661
1.03261
0.998381
1.0299
1.00531
0.997959
1.0018
0.988151
0.980308
0.998198
1.00056
0.976699
5.42772e-08
1.0018
0.00886966
1.00081
8.67362e-22
1.00116
0.0041103
0.960388
0.931671
0.987605
0.976805
0.929881
0.929133
0.972943
0.99935
1.00338
0.97796
1.0025
1.00041
1.00265
0.979854
0.0937251
1.00007
0.844595
1.0011
0.0872342
1.00035
0.843746
0.959766
0.990919
1.00436
1.03973
0.960954
0.961868
0.986456
1
0.999962
0.959638
0.962457
0.997913
0.998362
0.958815
0.994213
1.00187
1.00133
1.00058
1
1.00194
1.00035
1.02336
0.992385
0.990285
1
1.02392
0.94557
0.960961
0.998517
1.00554
1.01034
1.0194
0.997666
1.00577
1.00978
1.00215
1.00224
1.00211
1.00286
1.00131
1.00201
1.00109
0.967956
0.999668
0.813513
1.03007
0.964595
0.980366
0.96273
1.00131
0.999779
1.00645
0.995204
1.00127
0.999888
1.00712
1.00187
1.00419
1.00234
1.00279
1.0012
1.0042
1.00186
0.973928
1.01469
1.0141
1.02207
0.979248
0.98108
1.00395
1.00842
1.00885
1.01307
1.00002
1.00843
1.00887
1.01392
1.00199
1.00359
1.00004
1.00481
1.00078
1.00361
1
0.998318
0.980808
0.971361
0.982268
1.00079
0.983523
0.949738
0.997937
1.01201
1.00559
1.00421
1
1.01092
1.00986
0.884149
1.00096
0.17714
1.00202
0.885918
1.00067
0.169336
0.924609
0.949679
0.999649
1.03239
0.988501
0.954081
0.999144
0.999954
0.999802
0.977364
0.994817
0.99977
1
0.971796
0.0396995
1.00015
1.43707e-07
1.00011
0.032862
1
-3.47853e-21
1.00113
1.0364
0.898044
1
1
1.01495
0.837289
1.00519
1.00162
1.00738
1.00133
1.00533
1.00156
1.00302
8.74462e-09
0.935758
5.49513e-10
1.00004
2.47105e-22
0.942738
-1.38111e-18
1.00297
1.00317
1.00051
1.0009
1.00089
1.003
1.00351
0.997032
0.967887
1.01373
1.0082
0.985358
1.01422
0.998826
1.003
1.00229
1.01075
1.0062
1.0025
1.01055
1.00386
0.998265
1.0033
1.00587
0.980831
0.980867
0.998492
1.00666
1.00327
1.00139
1.00356
1.00111
1.00126
1.00324
1.0035
0.999459
1.00872
0.98096
1.01212
0.981247
1.01324
1.00017
1.00325
1.0063
1.00254
1.00991
1.00269
1.01056
1.00343
1.00626
1.00998
1.00289
1.00469
1.00962
1.0033
1.00637
1.00766
0.993613
1.00624
1.00581
1
1.00688
1.0089
1.00531
1.00265
1.00398
1.00255
1.00302
1.00396
1.00524
1.00676
1.0146
1.01626
0.998359
1.01729
1.00209
1.00314
1.0058
1.00472
1.00918
1.00354
1.00964
1.0037
1.00574
1.0073
1.00553
0.998341
1.00741
0.997157
1.00732
1.00711
1.00542
1.00308
1.00324
1.00421
1.00338
1.00441
1.00517
1.00211
1.00275
1.00193
1.00183
1.00254
1.00184
1.00213
0.99123
0.970691
0.9997
0.99486
0.98698
0.999855
0.991917
0.999496
1.00481
1.00054
1.00331
1.00503
1.00031
1.00001
1.00067
1.00385
1.00681
0.997513
1.00694
0.991666
1
1.00239
1.00233
1.00328
1.00183
1.00294
1.00216
1.00215
0.992141
0.998425
0.98666
0.999371
0.987178
0.999274
0.994913
0.999332
1.00321
1.00591
1.00027
1.00418
1.00032
1.00001
1
1
1.00105
1.00145
1.00005
1.00098
0.999993
0.992564
0.986784
1.00064
1.00525
0.982354
1.0004
0.991776
0.999994
1.00161
1.00246
1.00273
1.00136
1.00206
1
0.992335
0.965928
1
0.965429
0.999993
0.933813
0.995908
1
1.00157
1
1.00106
0.999988
1.00123
0.999691
0.994587
1.01101
0.977801
1
0.980833
1.00039
0.991792
0.99998
1.00248
1.00129
1.00186
1.00156
1.00192
1
1.00076
1.00341
1.00248
1.00344
1.00326
1.00233
1.00077
0.998055
0.989563
1
0.99191
0.990329
0.999997
0.999896
1
1.00133
1.00005
1.00038
1.00103
1
1.00039
1.00167
1.01251
1.00359
1.00999
1.00399
1.01427
1.00144
1.0009
1.00382
1.00318
1.00231
1.00338
1.00264
1.00086
0.998871
0.968783
1.00003
0.999401
0.994396
0.999987
0.998001
0.999989
1.00046
1.00094
1
1.00133
0.99999
0.999868
1.00207
1.00007
1.00279
1.0008
1.00002
1.00265
1.00215
1.0108
1.00439
1.00141
0.98732
1.00496
1.00068
1.01084
1.00623
1.00559
1.00675
1.0063
1.00564
1.00678
1.00633
1.00129
0.989695
1
1.00217
1
1.00212
1.00132
1.00205
1.00105
1
1.00253
1.00003
1.00278
1.00192
1.01087
0.977747
1.00331
1.0003
1.00384
1.00005
1.01073
1.00629
1.00638
1.0057
1.00695
1.00586
1.00693
1.00617
1.00794
1.00937
1.00815
1.00538
1.00699
1.00811
1.00823
1.00473
0.994429
1.02094
1.00153
0.971513
1.02054
1.00774
1.0065
1.00592
1.01007
1.00663
1.00584
1.0104
1.00667
1.007
1.00139
1.00837
1.00494
1.00809
1.00213
1.00676
1.00798
1.00561
1.00739
1.00795
1.00683
1.00803
1.00785
1.01068
1.01754
1.03376
1.02054
1.01926
1.02084
1.01071
1.0073
1.00681
1.0063
1.01082
1.00645
1.01067
1.00745
1.00183
1.0094
1.00597
1.00654
1.0091
1.00528
1.00379
0.990238
0.984506
0.999425
0.999145
0.984473
0.99915
0.994848
0.999997
1.00331
1.00169
1.00129
1.00287
1.00128
1.0011
0.995254
1.01095
1.01224
0.955339
1.0119
0.955469
0.991127
1.00192
1.0068
1.00897
1.00473
1.00927
1.0052
1.00178
0.994714
0.994882
0.971624
0.999732
0.977695
0.999577
0.99169
1
1.00145
1.00271
1.00095
1.00297
1.00102
1
0.999964
1
0.99997
1.00024
1
0.999933
0.999825
0.95919
0.990521
0.99391
0.99757
0.987513
0.98989
0.919246
0.971954
1
0.999679
0.999998
0.998498
0.998916
0.973695
0.989427
0.994589
0.997071
0.956615
0.998911
0.990979
0.990172
0.99792
1.00037
0.999897
0.999587
1
0.999948
1
0.975308
0.998259
0.962108
0.985622
0.991973
0.994501
0.985459
0.98165
0.999953
0.996352
0.998745
0.996368
0.997927
0.975373
1.00281
1.00168
1.00044
1.00088
1.00169
1.00064
1.00302
1.0078
1.04531
1.01432
1.04161
1.04703
1.00741
1.01195
1.00356
1.0009
1.0033
1.00061
1.00115
1.00355
1.00326
1.00381
1.00241
1.00169
1.0051
1.00172
1.00397
1.00406
1.00298
1.00117
1.00153
1.00072
1.00159
1.00097
1.00272
1.0089
1.03752
1.03308
1.01128
1.03742
1.00849
1.00971
1.00379
1.00115
1.00123
1.00307
1.00162
1.00352
1.00309
1.0025
1.00319
1.00151
1.00135
1.00296
1.00129
1.00272
1.00032
0.98127
1.01252
1.00654
1.00035
0.984305
1.0113
1.0031
1.00277
1.00989
1.00617
1.00341
1.00253
1.00986
0.997978
0.999609
1.00227
0.974891
0.979647
0.999533
1.00217
1.00258
1.00157
1.00254
1.00111
1.00145
1.00227
1.00258
1.00029
1.00822
0.977999
1.01116
0.98172
1.01124
1.00003
1.0026
1.00649
1.00251
1.01005
1.00276
1.00995
1.00246
1.00484
1.00946
1.00393
1.00478
1.00539
1.00832
1.00369
1.00453
0.998332
1.00738
1.00745
1.00556
0.998791
1.00723
1.00441
1.00354
1.00465
1.00272
1.00495
1.00329
1.00473
1.00006
1
1.00433
0.990656
1.00809
0.99207
0.99931
1.00384
1.00504
1.00675
1.00355
1.00707
1.00393
1.00377
1.00282
1.00686
0.998555
1.00707
0.998035
1.00694
1.00239
1.00369
1.00309
1.00293
1.00496
1.00337
1.00518
1.00331
1.00223
1.00342
1.00217
1.00201
1.00237
1.00356
1.00205
0.998719
0.991035
0.999828
0.997946
0.995765
0.990109
1
1
1.00589
1.0003
1.00362