/*--------------------------------*- C++ -*----------------------------------*\
| =========                 |                                                 |
| \\      /  F ield         | OpenFOAM: The Open Source CFD Toolbox           |
|  \\    /   O peration     | Version:  5.0                                   |
|   \\  /    A nd           | Web:      www.OpenFOAM.org                      |
|    \\/     M anipulation  |                                                 |
\*---------------------------------------------------------------------------*/
FoamFile
{
    version     2.0;
    format      ascii;
    class       volScalarField;
    location    "4.9";
    object      p;
}
// * * * * * * * * * * * * * * * * * * * * * * * * * * * * * * * * * * * * * //

dimensions      [1 -1 -2 0 0 0 0];

internalField   nonuniform List<scalar> 
8584
(
99.5574
99.8423
99.3846
103.043
101.787
100.723
99.7166
96.8726
93.4172
90.9695
88.4018
85.8433
83.2858
80.7625
78.2448
75.752
73.2716
70.8243
68.3966
65.9926
63.597
61.221
58.8751
56.5223
54.1939
51.8873
49.5823
47.278
44.9921
42.7341
40.4722
38.235
36.0278
33.8114
31.5874
29.3952
27.2583
25.1584
23.0666
20.9688
18.8995
16.8753
14.8527
12.8055
10.7864
8.81591
6.84571
4.87156
2.91841
0.975454
99.1792
98.4924
99.918
99.6823
101.303
100.595
99.1855
96.6212
93.3525
90.931
88.3875
85.8364
83.3047
80.7699
78.2435
75.7557
73.2694
70.8366
68.4141
65.9961
63.602
61.2243
58.8677
56.5222
54.1839
51.8687
49.5725
47.2808
45.0009
42.7372
40.4864
38.2477
36.024
33.8012
31.5906
29.4022
27.2551
25.1428
23.0484
20.9679
18.9046
16.8793
14.8598
12.8249
10.794
8.80499
6.83568
4.86931
2.91873
0.975038
98.8593
98.4771
99.376
97.4044
101.005
98.6019
98.9005
96.9038
93.4521
90.9538
88.422
85.8447
83.2973
80.7734
78.2524
75.7481
73.2864
70.8604
68.4383
65.9975
63.6049
61.2277
58.8601
56.5192
54.1859
51.8657
49.5628
47.2869
45.0123
42.7385
40.4906
38.2465
36.0023
33.7899
31.5978
29.4184
27.2553
25.1334
23.0449
20.9685
18.9113
16.8771
14.8491
12.8235
10.8037
8.80211
6.8277
4.8699
2.92124
0.974737
98.5538
99.3005
100.181
99.5104
100.861
98.6723
99.1804
98.1591
94.2736
90.978
88.4967
85.9117
83.3286
80.7835
78.265
75.7616
73.2904
70.8549
68.4172
66.0027
63.6186
61.2299
58.8663
56.5226
54.2019
51.8773
49.5621
47.2933
45.0079
42.729
40.4908
38.2407
35.9966
33.785
31.6078
29.435
27.2619
25.1301
23.0462
20.9766
18.9223
16.8684
14.8276
12.8156
10.8117
8.80549
6.82869
4.87742
2.92786
0.970503
97.2334
97.5157
99.6032
93.605
103.157
99.9973
99.8381
99.634
94.7196
91.1756
88.6118
85.955
83.366
80.8028
78.2873
75.7792
73.3088
70.8503
68.3982
66.0067
63.6221
61.2286
58.8698
56.525
54.2083
51.8912
49.5716
47.2881
44.994
42.7218
40.4848
38.2323
35.9937
33.7827
31.6048
29.4435
27.2716
25.1352
23.0512
20.9875
18.9188
16.8499
14.8076
12.8053
10.8085
8.80706
6.83675
4.89224
2.93655
0.968431
93.3814
92.006
96.5728
101.017
103.014
100.014
100.269
99.9347
95.1426
91.2586
88.6632
85.9855
83.3909
80.8213
78.3028
75.7915
73.3206
70.8558
68.3953
65.9948
63.6208
61.2264
58.8721
56.5358
54.2137
51.9033
49.5815
47.282
44.9869
42.7153
40.4774
38.2282
35.987
33.7855
31.6106
29.4458
27.2828
25.146
23.0548
20.9883
18.9133
16.8389
14.7952
12.7954
10.8039
8.8113
6.85261
4.91571
2.94713
0.971582
93.9725
82.3775
108.198
104.708
101.152
100.576
100.427
100.091
94.8807
91.198
88.6424
85.9871
83.4076
80.8366
78.3022
75.7921
73.3195
70.8624
68.3974
65.982
63.5997
61.2228
58.8687
56.5435
54.2206
51.9062
49.5884
47.2787
44.9853
42.721
40.4747
38.2165
35.9806
33.7921
31.614
29.4409
27.2882
25.1597
23.0565
20.9793
18.9064
16.8331
14.7938
12.793
10.7988
8.81291
6.85896
4.91535
2.95064
0.979691
97.5548
109.682
98.7366
117.067
132.903
101.752
100.788
99.1774
94.001
91.2788
88.6081
85.9716
83.3935
80.8262
78.2744
75.7907
73.3076
70.8491
68.412
65.9771
63.5932
61.2188
58.8674
56.5447
54.2198
51.9076
49.589
47.2758
45.0025
42.7329
40.4706
38.213
35.9856
33.799
31.6124
29.4299
27.2887
25.1704
23.0613
20.9714
18.9001
16.8402
14.8039
12.7943
10.7973
8.81482
6.85738
4.90468
2.94949
0.984942
96.5155
96.8569
102.288
114.618
107.099
101.146
100.819
97.5803
93.8037
91.2025
88.5507
85.9436
83.3648
80.8051
78.2747
75.7834
73.2853
70.8317
68.4002
65.9839
63.5857
61.211
58.8712
56.5395
54.221
51.9079
49.5844
47.2752
44.9925
42.7286
40.4595
38.2131
36.0008
33.8043
31.6048
29.4199
27.2852
25.1746
23.0655
20.9705
18.8982
16.8515
14.8216
12.7965
10.793
8.81621
6.85004
4.89356
2.93809
0.985342
97.9514
97.658
99.9116
102.302
113.084
100.834
100.47
97.1806
93.5837
91.0654
88.465
85.8819
83.3069
80.7783
78.2576
75.7595
73.2764
70.8254
68.3949
65.9876
63.5875
61.2132
58.8748
56.5284
54.2095
51.9033
49.5885
47.277
44.9898
42.7299
40.4619
38.2197
36.0176
33.8087
31.5926
29.4044
27.2672
25.1676
23.0672
20.9687
18.8986
16.8657
14.8404
12.799
10.7885
8.81934
6.85192
4.88178
2.9234
0.975649
98.9124
98.8929
99.2229
102.206
100.617
100.516
99.7479
96.8702
93.4176
90.9693
88.402
85.8433
83.2856
80.7624
78.2448
75.7518
73.2716
70.8243
68.3967
65.9923
63.5969
61.2211
58.8752
56.5221
54.1939
51.8874
49.5822
47.278
44.9919
42.7341
40.4722
38.235
36.0277
33.8113
31.5873
29.3952
27.2582
25.1584
23.0666
20.9688
18.8994
16.8754
14.8528
12.8056
10.7864
8.81596
6.84562
4.87138
2.91837
0.975521
100.371
98.7054
101.237
99.5762
100.74
100.475
99.1905
96.6202
93.3529
90.9308
88.3875
85.8363
83.3047
80.7699
78.2435
75.7555
73.2694
70.8367
68.414
65.996
63.602
61.2244
58.8675
56.5222
54.1838
51.8687
49.5724
47.2808
45.0008
42.7372
40.4869
38.2478
36.0239
33.8012
31.5906
29.4021
27.255
25.1429
23.0483
20.9676
18.9047
16.8793
14.8599
12.8245
10.794
8.80498
6.83569
4.86929
2.91892
0.974989
99.2877
98.5685
99.4064
99.239
99.021
98.6104
98.8637
96.8936
93.4534
90.9537
88.422
85.8447
83.2973
80.7734
78.2523
75.7481
73.2864
70.8602
68.4387
65.9974
63.6048
61.2277
58.86
56.5191
54.1859
51.8655
49.5628
47.2869
45.0127
42.7387
40.4904
38.2464
36.0023
33.7899
31.5979
29.4185
27.2552
25.1334
23.0448
20.9684
18.9114
16.8771
14.8491
12.8234
10.8037
8.80206
6.82762
4.86994
2.92137
0.974735
98.7237
99.2928
100.749
99.0003
99.7817
98.5839
99.1864
98.0744
94.2727
90.9783
88.4966
85.9118
83.3285
80.7835
78.265
75.7616
73.2904
70.8547
68.4171
66.0025
63.6188
61.2299
58.8663
56.5228
54.2017
51.8772
49.5623
47.2934
45.008
42.7288
40.4906
38.2407
35.9966
33.785
31.6078
29.4349
27.2618
25.13
23.0462
20.9766
18.9223
16.8683
14.8274
12.8155
10.8118
8.80548
6.82858
4.87741
2.92784
0.970356
97.0191
97.5756
98.2829
97.1236
102.108
99.6809
99.8663
99.6304
94.7194
91.1765
88.6116
85.9549
83.366
80.8027
78.2874
75.7792
73.3088
70.8503
68.3981
66.0068
63.6221
61.2285
58.8698
56.5251
54.2081
51.8913
49.5717
47.2881
44.9938
42.7217
40.4849
38.2323
35.9936
33.7827
31.6047
29.4435
27.2717
25.1352
23.0513
20.9876
18.9187
16.8499
14.8076
12.8052
10.8085
8.80704
6.83668
4.89215
2.93646
0.968485
94.3634
97.6401
96.6199
101.621
103.631
100.213
100.253
99.9573
95.1401
91.2593
88.6629
85.9854
83.391
80.8213
78.3027
75.7914
73.3205
70.8558
68.3952
65.9947
63.6207
61.2263
58.8719
56.5358
54.2138
51.9033
49.5814
47.282
44.9869
42.7155
40.4774
38.2282
35.9869
33.7855
31.6107
29.4458
27.2828
25.146
23.0548
20.9883
18.9133
16.8388
14.7952
12.7954
10.8036
8.81128
6.85259
4.91573
2.94686
0.971556
107.46
94.0414
106.312
102.876
101.61
100.428
100.41
100.121
94.878
91.1985
88.6422
85.9871
83.4076
80.8366
78.3022
75.7921
73.3194
70.8623
68.3973
65.9821
63.5998
61.2228
58.8688
56.5435
54.2204
51.9062
49.5884
47.2787
44.9854
42.7209
40.475
38.2163
35.9806
33.7921
31.6139
29.4407
27.2882
25.1597
23.0565
20.9793
18.9064
16.8329
14.7938
12.7929
10.7987
8.81289
6.85906
4.91541
2.95051
0.979795
100.68
198.089
96.4629
100.559
95.1988
102.582
100.731
99.0528
94.0018
91.2785
88.6081
85.9716
83.3935
80.8262
78.2744
75.7907
73.3078
70.849
68.412
65.9771
63.5932
61.2188
58.8674
56.5447
54.2197
51.9078
49.589
47.2757
45.0023
42.733
40.4705
38.2129
35.9856
33.799
31.6124
29.4299
27.2887
25.1704
23.0613
20.9713
18.9
16.8403
14.8039
12.7943
10.7973
8.8148
6.85738
4.90466
2.94955
0.984908
96.3962
102.021
99.1684
113.643
108.901
101.162
100.819
97.5719
93.8044
91.2022
88.5507
85.9436
83.3647
80.8051
78.2746
75.7835
73.2854
70.8316
68.4004
65.9839
63.5856
61.211
58.8713
56.5394
54.2209
51.9078
49.5843
47.2752
44.9925
42.7286
40.4597
38.2129
36.0007
33.8044
31.6047
29.4199
27.2852
25.1745
23.0653
20.9705
18.8983
16.8515
14.8216
12.7963
10.7929
8.81625
6.85001
4.89353
2.93817
0.985341
98.1528
97.8908
99.1612
102.207
109.685
100.882
100.473
97.1778
93.5842
91.0652
88.4651
85.8815
83.3068
80.7785
78.2576
75.7598
73.2764
70.8249
68.395
65.9875
63.5875
61.2131
58.8748
56.5284
54.2094
51.9033
49.5883
47.277
44.9899
42.73
40.4618
38.2196
36.0177
33.8086
31.5925
29.4045
27.2673
25.1676
23.0672
20.9687
18.8986
16.8656
14.8404
12.7989
10.7885
8.81936
6.8518
4.88179
2.92346
0.975636
100.013
99.5661
99.1858
102.274
102.178
100.572
99.7381
96.8735
93.4171
90.9694
88.4019
85.8434
83.2854
80.7624
78.2447
75.7515
73.2715
70.8246
68.397
65.992
63.5968
61.2212
58.875
56.522
54.1939
51.8873
49.582
47.2779
44.9915
42.7337
40.4722
38.2351
36.0277
33.8111
31.5872
29.3951
27.2581
25.1583
23.0666
20.9686
18.8992
16.8753
14.8527
12.8057
10.7864
8.81588
6.84546
4.87128
2.91827
0.975479
99.139
101.095
100.168
99.8133
100.856
100.405
99.1894
96.6207
93.3523
90.9309
88.3873
85.8363
83.3046
80.7698
78.2434
75.7553
73.2693
70.837
68.4138
65.9958
63.6018
61.2244
58.8675
56.5222
54.184
51.8688
49.5722
47.2807
45.0008
42.7376
40.4869
38.2478
36.0238
33.8011
31.5906
29.4019
27.2549
25.1433
23.0481
20.9675
18.9047
16.8792
14.8597
12.8241
10.794
8.805
6.83566
4.86922
2.91893
0.974788
98.9835
98.5791
99.1394
99.5857
97.3545
98.6745
98.857
96.8971
93.4534
90.9537
88.4219
85.8446
83.2972
80.7733
78.2523
75.748
73.2863
70.8599
68.4388
65.9973
63.6045
61.2276
58.8598
56.5196
54.1858
51.8653
49.5627
47.2869
45.0128
42.7387
40.4902
38.246
36.0024
33.79
31.5979
29.4185
27.255
25.1334
23.0448
20.9684
18.9113
16.8771
14.8491
12.8231
10.804
8.80198
6.82751
4.86989
2.9213
0.974418
98.2553
99.4923
100.921
99.1334
98.4937
101.298
99.1752
98.0723
94.2738
90.9772
88.4966
85.9116
83.3285
80.7834
78.2649
75.7615
73.2903
70.8544
68.4171
66.0024
63.6188
61.2298
58.8663
56.5229
54.2015
51.8769
49.5624
47.2933
45.008
42.7288
40.4905
38.2407
35.9965
33.7849
31.6078
29.4348
27.2617
25.1299
23.0462
20.9765
18.9222
16.868
14.8273
12.8155
10.8119
8.8054
6.82848
4.87736
2.92774
0.970017
97.4597
98.5286
97.5172
96.5737
98.6375
100.738
99.8172
99.618
94.7198
91.1762
88.6118
85.9547
83.3658
80.8027
78.2873
75.7792
73.3087
70.8502
68.3979
66.0069
63.6222
61.2284
58.8697
56.5252
54.2078
51.8914
49.5717
47.288
44.9937
42.7216
40.4849
38.2323
35.9935
33.7826
31.6047
29.4434
27.2719
25.1352
23.0512
20.9878
18.9186
16.8498
14.8076
12.8051
10.8084
8.80697
6.83682
4.89205
2.9364
0.968377
95.5453
94.2559
97.0272
101.736
100.274
100.417
100.244
99.9552
95.1403
91.2588
88.6629
85.9853
83.3911
80.8212
78.3025
75.7914
73.3204
70.8559
68.395
65.9946
63.6207
61.2262
58.8718
56.5358
54.2138
51.9031
49.5813
47.282
44.9868
42.7157
40.4775
38.2279
35.9867
33.7854
31.6107
29.4457
27.2828
25.1459
23.0546
20.9883
18.9131
16.8387
14.7952
12.7955
10.8034
8.8112
6.85259
4.91573
2.94643
0.971507
101.691
90.3182
101.835
104.256
101.792
100.247
100.413
100.118
94.8781
91.1979
88.6423
85.987
83.4075
80.8365
78.3021
75.792
73.3194
70.8621
68.3972
65.9821
63.5997
61.2227
58.8687
56.5434
54.2203
51.906
49.5882
47.279
44.9855
42.7209
40.475
38.2161
35.9805
33.7921
31.6138
29.4406
27.2881
25.1596
23.0564
20.9793
18.9063
16.8328
14.7938
12.7928
10.7986
8.81282
6.85919
4.91527
2.95033
0.97975
94.2312
70.6599
120.517
105.599
96.1584
102.049
100.729
99.0605
94.0013
91.2786
88.608
85.9715
83.3934
80.8261
78.2743
75.7906
73.3081
70.8487
68.4121
65.977
63.5931
61.2188
58.8676
56.5446
54.2196
51.908
49.589
47.2756
45.0022
42.7329
40.4704
38.2128
35.9855
33.799
31.6123
29.4301
27.2886
25.1703
23.0612
20.9713
18.8999
16.8403
14.8039
12.7942
10.7971
8.81473
6.85732
4.90462
2.94951
0.984754
96.3082
99.608
107.037
113.641
108.669
101.224
100.803
97.5746
93.8041
91.2023
88.5505
85.9435
83.3646
80.805
78.2745
75.7836
73.2853
70.8315
68.4004
65.9839
63.5856
61.2112
58.8713
56.5394
54.2206
51.9078
49.5842
47.2751
44.9926
42.7287
40.4599
38.2128
36.0005
33.8043
31.6045
29.4199
27.2852
25.1743
23.0652
20.9704
18.8983
16.8515
14.8215
12.7961
10.7929
8.81622
6.84988
4.89346
2.93811
0.985243
97.9754
98.6216
102.319
104.938
108.558
100.746
100.474
97.178
93.5837
91.0653
88.4651
85.8814
83.3065
80.7785
78.2575
75.7601
73.2763
70.8248
68.3951
65.9874
63.5871
61.213
58.8747
56.5283
54.2094
51.9032
49.5882
47.277
44.9902
42.7299
40.4617
38.2195
36.0178
33.8085
31.5923
29.4045
27.2672
25.1675
23.0671
20.9686
18.8986
16.8655
14.8403
12.7987
10.7886
8.81931
6.85155
4.88151
2.92347
0.975565
99.7553
99.69
99.3527
100.51
99.7527
99.8664
99.3561
99.3117
99.1216
98.8314
100.497
99.3226
99.0886
98.8243
98.8874
98.5716
98.8424
98.5502
98.8829
98.2741
98.611
98.9757
100.034
99.6467
98.5467
98.9719
101.089
99.5019
99.867
104.123
100.341
99.6558
99.8011
102.733
100.288
100.283
101.714
100.537
100.034
100.272
103.771
100.524
100.146
101.145
100.304
100.552
100.104
100.539
100.312
100.568
101.294
101.035
102.204
100.555
102.354
101.03
100.987
101.198
100.578
101.074
100.981
101.044
100.576
100.678
100.992
99.8858
100.893
100.643
100.272
99.8836
99.7541
99.6889
99.3588
100.537
99.7581
99.5735
99.361
99.2997
99.083
98.8385
100.359
99.3046
98.9726
98.8448
98.8759
98.335
98.5786
98.6691
98.8697
98.3449
98.5537
98.9408
100.517
99.4827
99.2734
98.9717
99.9384
99.4844
99.8091
105.399
100.291
101.072
99.8292
101.821
100.286
100.25
100.63
100.533
100.45
100.263
102.04
100.528
100.501
102.64
100.318
100.337
100.342
100.573
100.31
100.551
101.94
101.011
101.896
100.569
102.471
101.021
100.982
101.029
100.583
101.723
100.992
100.847
100.578
100.702
100.17
99.8821
100.749
100.635
100.197
99.8795
99.7626
99.4809
99.3647
97.0915
99.7625
99.6514
99.3658
99.313
99.0026
98.8525
100.633
99.3106
99.2274
98.8441
98.8942
98.4822
98.5595
98.7248
98.8747
98.5112
99.0296
98.9564
99.9611
99.5022
99.4286
98.9644
100.252
99.4966
99.8235
101.954
100.288
100.826
99.7943
102.305
100.324
100.255
101.164
100.526
100.595
100.266
101.488
100.535
100.266
100.75
100.314
100.182
100.626
101.011
100.313
100.568
101.909
101.033
102.574
100.583
101.718
101.016
100.984
101.091
100.577
101.518
100.977
100.718
100.606
100.64
100.279
99.8829
100.784
100.651
101.524
99.8837
100.485
100.006
100.008
101.001
100.751
100.099
99.7045
99.6763
100.068
100.066
100.673
100.188
99.6772
100.053
98.0713
99.2038
98.0089
99.7342
98.0789
99.2272
98.0196
100.957
103.565
99.4112
101.772
100.09
99.5168
99.705
99.393
99.9068
100.966
100.563
99.9283
100.101
99.1058
97.7183
98.8204
97.7257
99.1947
97.7228
98.8353
97.6611
98.1619
104.349
107.185
99.531
97.8819
105.579
108.792
98.4606
99.0611
99.3613
98.6082
99.2369
99.1375
98.4896
97.8536
99.0155
98.8707
98.9238
97.7295
99.0082
98.9229
109.317
99.2528
100.403
99.1981
107.745
99.2972
99.3466
99.2944
98.785
101.577
98.3565
98.7032
100.686
99.509
99.1405
99.6768
99.6316
99.1811
99.1256
99.6642
99.6322
100.164
103.841
106.582
101.912
100.892
104.057
106.654
100.065
99.9401
101.082
99.7416
99.9653
100.875
100.105
99.7461
100.06
100.061
99.8449
99.7311
100.05
100.002
95.7342
105.52
111.256
103.571
94.1915
103.402
110.98
100.929
100.407
101.177
100.031
100.406
101.188
100.927
100.226
100.37
100.258
100.251
100.173
100.364
100.253
102.399
99.0459
116.64
102.309
101.177
106.776
268.286
99.7302
100.456
100.174
100.556
100.285
99.1832
99.7562
100.351
100.389
100.366
100.403
100.35
100.39
100.388
102.368
104.704
110.642
96.6815
97.7072
106.784
114.677
100.297
101.4
104.082
102.065
101.153
102.482
100.782
100.298
100.755
99.6969
100.743
100.323
100.743
99.5766
101.265
101.026
101.826
108.409
102.819
102.686
103.821
101.264
101.367
100.636
101.497
101.362
102.795
101.048
99.2932
100.468
98.591
100.848
99.163
100.47
98.595
101.639
102.496
109.145
111.096
101.282
101.881
102.937
100.656
100.772
101.172
100.902
100.784
101.173
100.674
98.3754
99.9101
98.1625
100.474
98.3802
99.9252
98.1696
100.574
99.995
100.347
100.743
100.534
99.9575
100.269
99.8751
99.9212
100.281
100.52
99.6665
100.432
99.9322
98.0774
99.2297
98.018
99.7414
98.0758
99.2288
98.0177
100.011
99.488
99.3112
99.7459
100.153
99.4464
99.1296
99.3938
99.6992
100.171
100.439
99.3632
99.6749
100.233
97.7189
98.8533
97.656
99.1885
97.7166
98.8356
97.6565
100.562
100.81
104.703
99.1088
100.404
100.726
103.12
98.4884
98.9188
98.5606
98.6349
98.4837
98.9088
98.6497
97.7186
99.0048
98.9316
98.8782
97.7228
99.0054
98.9327
107.194
98.9916
99.3065
99.2733
99.8499
98.7269
99.9912
100.559
98.7015
99.8715
98.5952
99.5449
98.6926
100.118
99.1311
99.664
99.634
99.175
99.1348
99.6674
99.634
101.043
105.77
113.636
98.0392
101.231
107.36
104.965
100.068
99.8518
103.787
104.943
100.03
99.917
98.9713
99.7512
100.05
99.9897
99.8303
99.741
100.057
99.9965
112.709
102.979
110.711
101.521
102.776
102.018
107.623
100.942
100.409
101.221
100.291
100.939
100.412
101.221
100.181
100.367
100.253
100.282
100.117
100.373
100.253
101.779
99.2092
176.371
101.991
101.341
99.0826
102.017
99.6831
100.357
99.5146
100.483
99.6863
100.354
99.5283
100.352
100.387
100.392
100.406
100.351
100.389
100.388
97.714
107.479
112.327
96.1499
97.5301
108.123
107.769
100.579
101.259
103.058
103.143
100.704
101.367
102.856
100.326
100.75
99.5688
100.761
100.325
100.755
99.566
101.918
104.581
102.596
108.907
106.416
104.689
104.943
101.213
101.34
105.434
101.562
101.284
101.663
102.543
99.153
100.469
98.5915
100.798
99.1532
100.468
98.5914
99.7028
101.204
103.062
108.886
99.8564
101.265
104.89
100.694
100.778
101.335
100.777
100.657
100.805
101.076
98.3763
99.9378
98.1682
100.473
98.3764
99.9369
98.167
102.352
100.436
100.444
101.399
102.371
100.111
101.961
99.6963
99.9573
101.05
104.258
99.7183
101.011
99.9537
98.0782
99.2258
98.0194
99.7117
98.0712
99.2021
98.0084
100.242
99.4612
99.8456
100.118
100.157
100.045
98.8286
99.687
99.761
100.467
100.993
99.6249
99.8605
100.605
97.7196
98.8869
97.6622
99.1832
97.7157
98.8525
97.7262
100.243
96.228
100.153
98.2189
103.109
97.0645
93.5966
98.5439
98.8615
99.44
98.6901
98.488
98.8607
99.2868
97.729
99.0062
98.9236
98.9049
97.8576
99.0095
98.87
100.24
99.0245
99.949
99.1599
99.4296
99.515
100.625
99.4687
98.6524
101.255
100.173
99.1105
98.7057
101.416
99.1306
99.6603
99.6388
99.1869
99.1477
99.6588
99.6331
100.962
108.914
106.912
97.985
100.935
106.734
104.876
100.037
99.8839
99.6097
100.794
100.191
99.9341
99.696
99.7365
100.055
100.025
99.8357
99.7526
100.065
100.076
101.439
105.529
107.769
101.25
101.499
104.845
127.503
100.955
100.417
101.286
100.426
100.951
100.436
101.327
100.121
100.372
100.252
100.249
100.16
100.371
100.255
99.6042
98.4809
102.522
101.877
99.7114
102.38
100.763
99.7306
100.34
99.5794
100.164
99.7329
100.335
99.6252
100.354
100.389
100.386
100.431
100.351
100.387
100.364
112.587
107.777
107.631
109.177
112.907
110.016
107.587
102.372
101.412
103.157
102.374
103.045
101.55
103.263
100.325
100.778
99.5769
100.756
100.298
100.764
99.69
104.736
106.203
101.967
112.039
110.228
105.435
101.863
101.486
101.161
102.7
101.244
101.468
101.181
102.738
99.1636
100.468
98.5952
100.805
99.2932
100.466
98.5908
100.018
101.467
105.543
110.372
100.166
102.391
110.175
100.749
100.79
101.511
100.713
100.739
100.804
101.212
98.3801
99.9316
98.1692
100.47
98.3747
99.9083
98.1625
99.6166
99.8091
99.5938
99.7544
99.5892
99.6135
99.7926
100.112
104.175
99.6105
99.7445
101.045
99.6744
99.8295
99.6056
99.5217
99.4648
99.3518
99.5186
99.4395
99.6654
99.6681
100.601
99.9786
100.323
100.278
99.672
100.138
99.6592
99.7546
99.8026
99.5916
99.593
99.6499
99.7893
99.6702
99.6159
99.905
99.5126
99.8481
99.5211
99.6965
99.5677
99.3551
99.5213
99.4148
99.5221
99.4403
99.5741
99.0458
99.4588
99.0908
99.299
99.4332
99.0365
99.0516
99.462
100.333
98.9719
99.1194
99.7396
98.8859
99.6569
99.1447
99.1251
98.8312
98.8239
99.0736
98.833
99.1412
99.2659
100.511
99.7335
100.117
99.7996
100.073
99.3138
99.0004
99.3002
99.4163
99.0482
99.4362
99.0575
98.9915
99.4503
99.1388
99.256
98.9471
99.2347
98.9111
99.4476
99.1654
98.8755
99.0854
98.8288
99.0967
98.8309
99.1091
98.7922
98.8917
98.7393
98.8769
98.926
98.7521
98.7851
98.7302
99.5662
98.3818
97.8843
96.5694
98.3971
98.6119
98.6512
98.3375
98.8659
98.6779
98.315
98.8461
98.6312
98.4255
98.5292
98.9465
100.192
98.9593
99.603
98.482
98.8198
98.9172
98.8718
98.7451
98.8738
98.7733
98.7944
98.5039
98.1615
96.3981
98.3689
96.5016
98.4104
98.4056
98.6958
98.6467
99.0022
98.8493
98.5445
98.8441
98.657
99.271
98.7917
99.045
98.9553
98.7942
99.0734
99.2697
98.6264
100.162
99.6505
99.7385
99.6848
99.6443
98.734
99.4334
99.5316
99.4775
99.4997
99.5163
99.4207
99.4281
99.8193
98.5578
98.7038
99.8317
98.7084
100.212
99.8312
99.2741
98.9543
98.7868
99.0626
98.7882
99.0827
99.2585
99.0806
99.807
100.467
99.6619
99.7342
99.6476
99.2566
99.4377
99.4992
99.5151
99.4586
99.51
99.4398
99.4359
99.9014
99.7472
99.8945
99.8547
99.7284
99.8992
99.902
100.407
100.057
100.941
106.575
99.9384
100.95
100.582
100.113
100.078
100.511
100.285
100.07
100.508
100.157
100.096
99.6613
99.8502
100.569
99.9263
101.185
100.044
99.8861
99.8938
99.7218
99.8784
99.7329
99.9158
99.8891
100.344
100.978
100.351
100.884
99.7658
100.928
100.644
100.118
100.275
100.056
100.499
100.061
100.506
100.143
100.655
100.377
100.435
100.274
100.381
100.43
100.658
101.197
101.105
100.957
101.693
101.117
100.908
101.2
100.602
100.424
100.623
100.518
100.418
100.621
100.607
100.932
100.043
100.406
101.213
100.406
101.196
100.933
100.655
100.255
100.395
100.429
100.39
100.429
100.655
101.207
102.137
101.144
100.956
101.087
100.989
101.185
100.6
100.519
100.413
100.622
100.422
100.621
100.599
99.8992
100.774
100.123
100.232
100.315
100.116
99.9478
100.093
100.295
100.057
101.89
104.423
100.001
99.605
99.951
100.045
100.199
100.303
100.074
100.177
99.9277
99.6875
100.518
100.363
99.453
100.322
99.2114
99.7056
99.9024
100.155
100.168
100.112
100.364
100.11
99.9141
99.2165
99.7505
97.6234
100.199
97.2851
100.1
99.1912
99.956
100.31
100.055
100.195
100.076
100.186
99.9605
100.944
101.083
100.925
100.562
101.065
100.801
101.166
105.059
103.08
101.953
101.367
103.088
101.97
104.636
101.537
101.113
101.27
101.013
101.054
101.211
101.641
100.811
101.803
101.229
103.132
101.24
103.074
100.556
100.936
100.576
101.063
100.806
101.073
100.801
100.943
104.869
101.759
103.145
101.985
103.047
101.952
104.272
101.531
101.016
101.056
101.205
101.047
101.217
101.506
100.689
100.872
100.824
100.987
100.876
100.818
100.684
102.05
100.535
101.287
101.154
100.123
100.952
109.556
101.123
101
100.689
100.58
100.702
100.634
100.771
100.893
101.069
101.882
100.236
101.369
103.341
100.813
101.057
101.012
100.868
100.828
100.874
100.82
100.678
101.815
101.011
100.548
100.841
100.788
101.354
104.957
102.858
100.575
100.973
100.667
100.98
100.833
101.081
100.416
100.643
100.287
100.641
100.645
100.261
100.428
100.744
102.637
100.493
101.156
102.969
100.766
100.21
100.19
100.201
99.9006
99.8847
100.195
100.191
99.9
100.674
100.867
100.758
101.147
100.76
101.227
100.641
100.421
100.669
100.669
100.272
100.655
100.284
100.403
100.806
100.406
101.701
100.427
101.856
100.752
100.429
100.204
99.8907
100.202
99.8977
100.214
100.189
99.8987
99.5924
99.7451
99.5933
99.7551
99.5973
99.5906
99.7223
99.7173
99.8132
99.5161
99.7756
99.7158
100.453
99.4516
99.5239
99.5223
99.4143
99.3592
99.5707
99.522
99.4134
99.6684
100.473
99.9357
100.408
100.242
99.6786
99.9563
99.5986
99.7577
99.709
99.5907
99.5911
99.5746
99.716
99.709
99.6212
101.081
99.4326
99.9941
99.4405
99.6977
99.5191
99.3617
99.5214
99.4137
99.5214
99.4116
99.5232
98.961
99.457
99.0743
99.2972
98.9742
99.3343
99.0374
99.3923
99.278
98.9402
99.1025
99.4033
99.3479
98.9235
99.0739
99.1285
98.8075
98.8216
99.0886
99.0734
98.8119
99.4227
100.385
99.6523
100.38
99.6478
100.305
99.4729
98.9809
99.3115
99.3205
99.0457
99.3072
99.0673
98.9904
99.4011
99.1169
99.3777
98.9357
99.3971
98.9581
99.4146
99.0673
98.8375
99.0634
98.8135
99.0861
98.8646
99.0643
98.7599
98.888
98.7153
98.8622
98.7871
98.9268
98.6843
99.1765
97.8686
98.3496
98.3807
98.3868
97.5088
98.3873
98.7144
98.9746
98.8538
98.6036
98.6789
99.1708
98.8589
98.4808
98.6442
98.8729
99.3522
98.8896
98.8317
98.4908
98.7396
98.8972
98.8014
98.7398
98.837
98.7427
98.7154
98.4944
98.3819
107.139
98.3486
108.006
98.2469
98.972
98.7172
98.7072
99.0917
98.8414
99.1326
98.8555
98.6944
99.2547
98.785
99.0521
98.9451
99.3211
98.7868
99.0679
100.891
100.347
99.6788
100.417
99.1414
99.7572
99.6921
99.4353
99.5166
99.4572
99.4913
99.4321
99.5652
99.4439
98.9786
98.6312
98.6693
99.8439
98.6862
99.4924
98.9711
99.2685
98.9699
98.7873
99.0239
98.7865
99.0489
99.2606
99.3857
100.787
99.8362
99.6888
101.01
99.6922
101.451
99.604
99.4919
99.5239
99.4738
99.5305
99.4509
99.5007
99.8845
99.7276
99.8641
99.7959
99.8932
99.7416
99.8949
100.892
100.3
100.928
108.261
100.503
100.375
101.285
100.135
100.052
100.497
100.288
100.143
100.059
100.497
100.058
100.815
99.8629
102.739
99.8757
101.194
100.041
99.8828
99.7896
99.7488
99.8788
99.7453
99.8945
99.8852
100.634
101.664
100.48
101.697
100.457
102.61
100.663
100.139
100.283
100.064
100.489
100.053
100.5
100.146
100.656
100.4
100.426
100.257
100.654
100.397
100.438
101.184
101.066
100.95
101.057
101.186
101.248
100.967
100.599
100.421
100.656
100.531
100.601
100.405
100.633
100.947
100.583
100.426
101.25
100.418
101.244
100.948
100.653
100.253
100.396
100.427
100.398
100.42
100.656
101.194
103.723
101.014
100.964
100.947
100.945
101.161
100.597
100.53
100.409
100.627
100.424
100.628
100.581
99.9507
100.298
100.113
100.358
99.9194
100.35
100.125
99.0611
103.554
100.247
102.131
99.0429
107.654
100.189
99.9867
100.073
100.182
100.301
99.9881
100.076
100.179
99.6866
100.309
100.333
99.4872
100.346
99.4769
99.7038
99.9362
100.553
100.35
100.121
100.474
100.123
99.9507
99.0294
101.333
99.0178
100.056
100.713
100.089
99.0313
100.001
100.309
100.055
100.165
100.084
100.175
99.9872
101.074
101.068
100.793
100.561
100.939
101.072
100.832
104.338
106.85
101.922
100.968
104.259
106.512
102.05
101.475
101.033
101.197
101.021
101.479
101.032
101.251
104.504
109.146
101.455
102.542
101.325
102.142
104.571
101.004
100.559
101.088
100.81
101.076
100.802
100.97
105.152
101.099
102.758
101.881
113.689
101.919
108.336
101.527
101.016
100.999
101.247
101.057
101.238
101.467
100.69
100.878
100.864
100.98
100.681
100.907
100.886
102.319
100.884
102.663
101.126
102.351
101.004
101.228
101.135
101.072
100.811
100.576
101.139
100.924
100.698
101.387
104.741
101.712
102.028
101.344
102.212
101.491
100.692
100.977
101.139
100.937
100.905
100.804
100.713
102.418
101.113
102.74
101.169
102.684
101.137
103.047
101.077
100.58
100.974
100.717
100.819
100.622
100.891
100.411
100.666
100.292
100.634
100.405
100.657
100.255
100.58
101.565
100.207
100.286
100.754
101.436
100.093
100.183
100.205
99.897
99.879
100.213
100.201
99.9027
100.718
100.746
100.782
100.837
100.779
101.055
100.716
100.409
100.662
100.622
100.264
100.615
100.289
100.425
100.532
100.267
101.282
100.003
101.318
100.614
100.043
100.195
99.8794
100.206
99.899
100.204
100.183
99.9136
99.5501
99.6986
99.5924
99.7588
99.5642
99.5897
99.669
99.708
100.104
99.4183
99.6994
99.7304
99.7853
99.3974
99.5195
99.5238
99.4202
99.3641
99.533
99.5204
99.4201
100.062
97.8003
99.9769
101.224
101.776
99.8787
99.9552
99.5453
99.7604
99.6911
99.5915
99.5904
99.5323
99.662
99.7073
99.6293
99.6721
99.3947
99.6912
99.3974
99.7046
99.5702
99.3596
99.5299
99.4478
99.5231
99.4463
99.5963
98.962
99.339
99.0735
99.3
98.9682
99.3309
99.035
99.4932
99.399
98.9346
99.047
99.4446
99.4211
98.9503
99.0888
99.068
98.8252
98.829
99.0643
99.0452
98.8129
99.6175
100.63
100.14
101.249
99.8756
100.829
99.7015
98.9644
99.3201
99.3375
99.0497
99.3323
99.0339
98.9989
99.4931
99.0341
99.4743
99.1044
99.3775
98.96
99.6305
99.0667
98.8323
99.0903
98.8637
99.0446
98.8173
99.0978
98.7456
98.7983
98.7205
98.8688
98.6992
98.8098
98.7322
98.0896
103.476
98.1592
98.5977
97.9743
102.224
98.1487
98.7008
99.2819
98.8459
98.6847
98.6816
98.7395
98.8467
98.4763
98.6787
98.9438
99.207
98.8635
99.1647
98.4765
98.7301
98.8742
98.8405
98.7622
98.8582
98.7777
98.7304
98.2831
98.4186
97.2724
98.1575
102.017
98.1798
98.3561
98.6938
98.7905
98.4323
98.8728
98.5889
98.8401
98.6845
99.2866
98.7853
99.023
98.9568
99.2746
98.7906
99.0454
100.679
99.5482
99.6997
99.9686
101.388
99.4945
99.6894
99.4978
99.5516
99.4851
99.4728
99.4892
99.5576
99.492
99.2647
100.585
98.8423
100.033
98.7908
100.865
99.2487
99.2896
98.9651
98.8057
99.0466
98.7956
99.0487
99.2847
101.18
100.053
102.845
99.6945
99.9984
99.6812
100.748
99.5038
99.4695
99.5908
99.5043
99.5634
99.4893
99.4986
99.888
99.7521
99.8894
99.8065
99.8862
99.7575
99.8898
100.729
100.425
101.637
102.063
100.692
100.459
101.435
100.151
100.066
100.484
100.291
100.153
100.067
100.487
100.059
100.954
99.9131
99.6621
99.9191
99.662
100.036
99.8898
99.7927
99.7601
99.9007
99.7575
99.8956
99.9215
100.395
102.295
100.46
101.514
100.459
101.506
100.242
100.157
100.294
100.075
100.489
100.076
100.489
100.166
100.637
100.399
100.427
100.262
100.644
100.396
100.427
101.076
101.198
100.973
101.377
101.119
101.094
100.972
100.555
100.414
100.633
100.525
100.568
100.419
100.62
100.946
100.428
100.537
101.52
100.412
101.514
100.949
100.645
100.26
100.396
100.432
100.394
100.433
100.644
101.027
101.483
101.035
100.97
101.025
100.97
101.514
100.554
100.525
100.424
100.635
100.42
100.611
100.577
99.98
100.348
100.112
100.15
99.9757
100.457
100.123
99.0105
96.1862
100.057
102.803
99.0128
96.9188
100.092
99.9653
100.063
100.161
100.313
99.9827
100.055
100.148
99.7711
100.225
100.353
100.417
100.34
99.6082
99.7865
99.9745
100.48
100.474
100.149
100.476
100.14
100.015
98.9758
101.458
97.6123
100.279
97.6234
100.127
99.1119
99.9583
100.309
100.077
100.166
100.062
100.136
99.971
101.017
101.068
100.813
100.57
100.975
101.074
100.815
103.056
103.267
101.835
102.238
100.507
105.455
101.816
101.509
100.989
101.207
101.021
101.434
101.007
101.226