/*--------------------------------*- C++ -*----------------------------------*\
| =========                 |                                                 |
| \\      /  F ield         | OpenFOAM: The Open Source CFD Toolbox           |
|  \\    /   O peration     | Version:  5.0                                   |
|   \\  /    A nd           | Web:      www.OpenFOAM.org                      |
|    \\/     M anipulation  |                                                 |
\*---------------------------------------------------------------------------*/
FoamFile
{
    version     2.0;
    format      ascii;
    class       surfaceScalarField;
    location    "4.9";
    object      phi;
}
// * * * * * * * * * * * * * * * * * * * * * * * * * * * * * * * * * * * * * //

dimensions      [0 3 -1 0 0 0 0];

internalField   nonuniform List<scalar> 
25687
(
1.00786e-09
1.0311e-09
6.92226e-10
-2.42873e-09
5.59765e-09
4.50704e-09
-1.87351e-09
9.66987e-10
1.01419e-09
-1.88934e-09
1.30383e-10
-1.21728e-09
1.70189e-10
-1.49763e-09
3.60059e-10
-1.46056e-10
-2.72987e-10
8.22399e-10
3.35722e-10
-1.14382e-10
-3.56742e-11
3.66253e-10
-5.46985e-10
-5.97947e-10
-3.78089e-11
2.77588e-11
-9.66772e-11
1.18757e-10
-3.26193e-11
1.85229e-10
1.27603e-12
-1.80269e-13
-3.22409e-11
-5.93693e-11
-5.81256e-11
1.37534e-09
-9.80011e-12
-2.55732e-11
-2.47781e-10
-2.48538e-10
-4.10732e-10
-4.10316e-10
1.39531e-09
-2.85903e-12
-2.0362e-12
1.40792e-09
-3.34322e-12
1.64466e-13
1.41623e-09
-2.11191e-12
-1.8567e-13
1.42163e-09
-1.57834e-12
-8.4473e-14
1.42504e-09
-1.12252e-12
4.61005e-13
1.42704e-09
-6.56911e-13
-1.01394e-13
1.42881e-09
-1.03639e-12
2.12725e-13
1.42955e-09
-1.59864e-13
-4.48514e-14
1.4302e-09
-9.24537e-14
-3.16185e-14
1.43053e-09
-2.93301e-13
-2.65407e-13
1.43067e-09
-1.31087e-13
-1.16999e-13
1.43105e-09
5.28873e-14
5.43319e-13
1.43093e-09
-1.30526e-14
-1.54825e-13
1.43095e-09
3.3075e-13
-4.62793e-13
1.43104e-09
-9.72756e-14
4.9195e-14
1.43096e-09
4.42949e-13
-5.96315e-13
1.43133e-09
-1.76269e-12
3.54252e-14
1.43136e-09
3.42429e-13
-5.34194e-14
1.43144e-09
8.04044e-14
-5.51445e-14
1.43103e-09
6.24443e-13
1.52583e-13
1.43122e-09
2.37118e-13
2.83949e-13
1.43046e-09
-8.19543e-13
3.76646e-12
1.43069e-09
-6.69931e-13
-3.67394e-13
1.43096e-09
3.58444e-14
3.92828e-13
1.43195e-09
-2.30129e-12
6.51042e-13
1.43177e-09
1.3757e-13
2.45045e-14
1.43118e-09
1.50149e-13
1.11316e-13
1.43033e-09
3.65172e-13
5.66763e-13
1.43029e-09
5.08371e-13
-5.49037e-13
1.43211e-09
-3.08709e-12
8.29234e-13
1.43138e-09
4.55124e-13
1.1006e-13
1.43124e-09
1.79463e-13
1.12061e-14
1.43152e-09
-1.21139e-14
-2e-13
1.43215e-09
-8.14244e-13
2.12855e-12
1.4305e-09
4.29339e-12
-2.20831e-12
1.43064e-09
-4.45481e-13
3.75329e-15
1.43124e-09
4.5737e-13
-1.13215e-12
1.43146e-09
-5.41544e-13
2.18669e-13
1.4313e-09
8.29702e-14
1.07349e-13
1.43079e-09
-4.61712e-13
7.1564e-13
1.25874e-12
-1.14839e-12
6.1397e-09
-4.75125e-09
1.03158e-09
1.00972e-08
1.05767e-09
5.82537e-10
-6.2042e-10
2.96608e-09
4.78806e-09
2.56528e-11
-4.7335e-10
1.95359e-10
6.58714e-10
3.54145e-10
1.08862e-09
1.11429e-09
1.1102e-09
-4.66917e-09
-2.09741e-09
3.98112e-09
4.07154e-10
4.01653e-10
2.46051e-10
4.59949e-10
1.94963e-09
-8.7942e-10
-3.00066e-09
1.4705e-09
-6.03578e-11
-1.1037e-09
1.74327e-10
-2.00958e-10
1.19069e-09
-3.42022e-11
-9.22683e-12
7.0099e-12
-4.39734e-11
8.03926e-11
-3.11153e-11
1.9498e-10
-6.12295e-12
-5.1942e-12
-3.29997e-11
-5.76642e-11
-6.22419e-11
3.58449e-13
1.38305e-09
-5.15762e-11
-2.49492e-11
-2.46232e-10
-2.49747e-10
-4.06297e-10
-4.14044e-10
1.39723e-09
-1.51671e-11
-1.86564e-12
1.40972e-09
-1.62047e-11
3.75309e-13
1.41735e-09
-9.69268e-12
-4.32715e-14
1.42243e-09
-6.639e-12
-4.2105e-16
1.42564e-09
-4.33687e-12
8.85332e-15
1.4278e-09
-2.81424e-12
4.56825e-15
1.42878e-09
-1.76929e-12
-2.40379e-13
1.42978e-09
-1.08604e-12
-6.52169e-14
1.43086e-09
-1.92394e-12
7.63532e-13
1.43018e-09
-2.24089e-12
2.63215e-12
1.43063e-09
-6.51507e-13
7.44811e-14
1.43077e-09
1.12668e-13
-1.93856e-13
1.4309e-09
-1.82748e-13
4.01155e-14
1.43131e-09
-1.29315e-12
1.22121e-12
1.43147e-09
3.31429e-13
-5.87099e-13
1.43157e-09
8.01994e-15
3.35761e-13
1.43078e-09
-1.29787e-13
-8.47473e-13
1.43107e-09
1.37699e-13
-8.18252e-14
1.43134e-09
-2.50629e-13
5.35537e-14
1.43024e-09
-1.03922e-12
2.76441e-12
1.43049e-09
-1.99445e-13
1.86905e-13
1.43091e-09
3.65299e-13
-1.60859e-12
1.431e-09
6.61378e-13
-1.41948e-12
1.4323e-09
-4.13321e-12
2.86607e-12
1.4315e-09
-2.82402e-12
1.31313e-12
1.43158e-09
1.12423e-13
-6.18021e-14
1.4313e-09
-8.77459e-14
5.22027e-13
1.43162e-09
1.01047e-13
-5.79404e-14
1.43179e-09
6.55464e-14
2.61209e-13
1.43023e-09
-9.60287e-13
-5.72177e-13
1.43074e-09
4.34906e-13
-4.90669e-13
1.43061e-09
1.5206e-13
1.58321e-13
1.43046e-09
-1.33218e-14
1.48389e-13
1.4304e-09
3.27205e-13
-1.08749e-12
1.4321e-09
4.57401e-13
2.1274e-12
1.43158e-09
1.15888e-15
7.16291e-14
1.4309e-09
1.40227e-13
1.00153e-12
1.43134e-09
6.82432e-13
-1.6741e-12
1.43108e-09
4.16572e-13
-6.92145e-14
1.43129e-09
1.64532e-13
-8.38608e-13
-1.58618e-13
1.19607e-12
-9.25542e-09
-2.68769e-09
8.58075e-09
-1.36238e-08
7.64945e-10
4.66105e-09
-2.52736e-09
1.17562e-09
-3.82506e-09
-3.26632e-10
-5.85487e-09
7.00595e-10
-6.88998e-09
-3.53186e-09
7.1231e-09
7.71371e-10
5.19338e-11
-3.02207e-10
1.08431e-09
1.2519e-10
-9.59223e-10
-3.1967e-11
-6.46383e-10
1.42883e-10
3.9181e-12
5.31548e-10
-1.02847e-10
-5.95525e-12
-1.05238e-11
2.03689e-11
9.89576e-11
-3.14099e-11
1.41482e-12
-2.2136e-12
8.49427e-12
2.37137e-11
1.40452e-09
-1.68084e-11
-2.89224e-11
-2.48008e-10
-2.46567e-10
-4.15598e-10
-4.09625e-10
-2.16481e-11
-3.05352e-11
-3.83754e-11
1.40802e-09
-1.67825e-11
-1.88074e-12
1.41851e-09
-2.67485e-11
5.41869e-14
1.42321e-09
-1.43524e-11
-2.41716e-14
1.42641e-09
-9.81076e-12
-1.82003e-14
1.42824e-09
-6.15917e-12
-2.93652e-15
1.42935e-09
-3.91221e-12
2.53006e-15
1.43e-09
-2.48019e-12
6.01161e-14
1.43049e-09
-1.65124e-12
8.61249e-14
1.43091e-09
-2.0137e-12
-3.19369e-13
1.43105e-09
3.08105e-13
-2.68591e-12
1.43124e-09
-7.21123e-13
-1.16832e-13
1.43106e-09
1.32822e-14
2.84512e-13
1.43141e-09
-5.27538e-13
-9.95696e-16
1.4311e-09
-7.50965e-13
-2.29022e-13
1.43104e-09
-2.21051e-13
6.17085e-13
1.43051e-09
4.81331e-13
5.7294e-14
1.43077e-09
-4.13213e-13
1.74895e-14
1.43086e-09
1.0748e-13
-5.59125e-14
1.43053e-09
-1.12718e-13
1.86185e-13
1.43134e-09
5.46429e-13
-2.39418e-12
1.43177e-09
9.82644e-13
-1.61698e-12
1.43161e-09
5.21094e-13
6.57675e-15
1.43255e-09
8.00547e-13
-1.08704e-12
1.43096e-09
-6.24104e-14
-2.47845e-12
1.43069e-09
2.84584e-13
-2.8478e-12
1.43084e-09
-1.65694e-14
-1.99613e-14
1.43143e-09
-1.65378e-13
-5.17681e-13
1.43153e-09
2.11436e-14
-2.46643e-14
1.43131e-09
-7.89231e-14
3.59952e-13
1.43112e-09
-4.2211e-13
-3.53193e-13
1.43108e-09
-4.49685e-13
9.22851e-13
1.43012e-09
9.96674e-13
1.16922e-13
1.43031e-09
-4.42982e-13
2.3624e-13
1.43123e-09
-2.83345e-12
2.23665e-12
1.43191e-09
7.38216e-13
-9.6673e-13
1.43166e-09
-6.05363e-14
3.04745e-13
1.43161e-09
-7.70541e-14
2.72865e-13
1.43087e-09
-1.08994e-13
1.52703e-12
1.43082e-09
5.36631e-13
-7.54704e-14
1.43066e-09
2.16698e-13
1.1091e-13
-1.21891e-12
4.67881e-13
-1.51067e-09
7.66642e-10
-5.54793e-10
2.93973e-09
-5.1016e-09
1.41594e-09
1.30732e-09
6.26527e-10
9.5736e-09
7.27674e-10
2.22975e-09
-6.60312e-11
-6.94985e-09
-1.49645e-08
9.37004e-09
4.93913e-10
-2.72201e-10
2.03861e-09
-5.44345e-10
3.55244e-09
4.91472e-09
-6.61551e-09
-1.04028e-09
-2.97238e-10
4.74348e-10
5.03748e-10
3.59423e-10
-1.76065e-11
2.18501e-11
-1.66102e-10
1.7612e-10
-1.42611e-11
-3.50065e-13
5.85365e-11
6.92808e-15
-1.18271e-10
-2.42513e-11
-3.28362e-11
-4.12999e-11
3.59854e-11
4.63274e-11
4.80662e-11
2.80869e-11
-1.30172e-10
2.53532e-11
-2.4795e-11
7.15912e-11
5.80226e-11
-1.95782e-10
2.01124e-10
-1.79439e-11
-4.20556e-12
1.42131e-09
-4.89453e-11
-2.47798e-11
-2.52706e-10
-2.60747e-10
-4.18119e-10
-4.32794e-10
1.42906e-09
-3.25753e-11
-1.91017e-12
1.43147e-09
-1.72885e-11
5.39817e-13
1.43201e-09
-1.03093e-11
-3.13877e-14
1.43194e-09
-6.11217e-12
3.22784e-14
1.43175e-09
-3.71947e-12
2.9443e-15
1.43154e-09
-2.26423e-12
2.20971e-16
1.43126e-09
-1.35499e-12
-1.09974e-14
1.43063e-09
-9.82672e-13
-3.87745e-13
1.4316e-09
-7.98537e-13
1.35639e-13
1.4312e-09
-3.6769e-13
5.2023e-14
1.43163e-09
-2.68638e-13
-1.36608e-13
1.43126e-09
-1.53336e-13
-5.97856e-15
1.43121e-09
-1.75372e-13
-5.17428e-13
1.43116e-09
1.67824e-13
-3.39233e-13
1.43153e-09
2.54117e-13
-1.44909e-13
1.43113e-09
4.64434e-14
-6.2022e-14
1.43117e-09
6.20029e-14
1.30702e-14
1.43125e-09
8.27596e-13
-1.0279e-12
1.43223e-09
1.32474e-12
-1.76018e-12
1.43107e-09
4.58709e-13
1.68455e-12
1.43122e-09
4.69436e-13
-1.02187e-13
1.43085e-09
-8.18381e-13
1.99277e-12
1.43081e-09
-1.94371e-13
1.59916e-13
1.43081e-09
8.68129e-14
1.96858e-13
1.43153e-09
9.17637e-13
-1.65384e-12
1.43121e-09
1.33126e-13
1.5312e-14
1.43137e-09
-1.07976e-13
-3.41567e-14
1.43132e-09
-3.15267e-13
2.78755e-13
1.43096e-09
-5.60806e-13
5.02511e-13
1.43024e-09
1.65903e-12
-1.39906e-12
1.43124e-09
2.26887e-13
-2.30371e-13
1.43196e-09
7.1708e-13
-1.88759e-12
1.43118e-09
-1.52996e-12
-5.19736e-13
1.43102e-09
2.53859e-13
6.36439e-13
1.43143e-09
2.6674e-13
-7.3989e-13
1.43158e-09
-1.27369e-14
-2.20574e-13
1.43145e-09
1.53123e-12
-1.50515e-12
1.43033e-09
1.69218e-12
-3.75731e-14
1.4306e-09
-4.31986e-14
-1.34028e-14
-1.84075e-12
6.64889e-13
1.51017e-09
3.8837e-09
-3.23846e-09
-1.43505e-09
-2.92983e-10
2.85972e-09
7.67739e-11
-5.31443e-10
1.09977e-10
-2.27762e-09
1.67379e-09
-3.77533e-09
-2.68498e-09
-1.05238e-10
1.98165e-09
-1.7441e-09
3.75929e-09
-4.59123e-10
-2.17178e-09
6.15721e-10
2.7069e-09
-2.91556e-10
-6.20428e-09
-2.34076e-10
-6.84161e-11
4.66061e-10
-8.387e-11
1.2645e-09
6.84028e-10
8.10647e-10
9.50066e-10
1.01983e-10
-2.19793e-10
1.83951e-10
5.80302e-12
-7.19445e-11
-2.16547e-11
4.50176e-11
4.37968e-10
-4.53618e-11
-2.32095e-10
-1.882e-11
-1.20822e-10
-4.4233e-11
-1.20086e-10
-3.54398e-11
5.49055e-11
-4.65251e-11
1.47146e-10
-3.74579e-11
2.20001e-10
-2.05801e-11
-6.84312e-12
-3.72459e-11
-6.88264e-11
-6.8568e-11
1.95208e-11
1.47742e-09
-1.59721e-11
-2.72641e-11
-2.74226e-10
-2.82873e-10
-4.53226e-10
-4.72798e-10
1.45752e-09
-9.65721e-12
-3.0083e-12
1.4463e-09
-6.4401e-12
3.7908e-13
1.44018e-09
-3.91955e-12
-2.65027e-13
1.43663e-09
-2.52128e-12
-2.62764e-14
1.43443e-09
-1.7459e-12
2.34634e-13
1.43312e-09
-1.12408e-12
1.79318e-13
1.43227e-09
-4.78224e-13
-2.74881e-14
1.4317e-09
-3.56467e-13
-4.60855e-14
1.43092e-09
-1.9415e-13
1.81554e-13
1.43183e-09
-2.68613e-13
-1.00521e-12
1.43174e-09
-1.66795e-13
-1.61172e-15
1.4315e-09
5.50659e-14
2.83871e-14
1.43136e-09
-2.33159e-14
-9.80569e-15
1.43141e-09
-2.0385e-13
3.22478e-13
1.43157e-09
2.40304e-13
-1.38835e-13
1.43147e-09
3.53584e-13
-2.13329e-13
1.43155e-09
2.63275e-14
-4.17108e-14
1.43143e-09
1.48274e-13
8.01468e-13
1.4307e-09
3.74815e-13
1.6764e-12
1.43116e-09
-4.30643e-14
4.00196e-14
1.43174e-09
1.03627e-13
-2.21749e-13
1.43076e-09
-7.57206e-13
9.1745e-13
1.43103e-09
-3.11362e-14
-4.30051e-13
1.43137e-09
-2.26013e-13
-3.65286e-14
1.43069e-09
-4.12361e-13
2.01379e-12
1.43092e-09
-1.24491e-13
2.07451e-14
1.43076e-09
-3.54233e-13
3.97628e-13
1.4307e-09
4.05834e-13
-6.64337e-13
1.43076e-09
-3.71688e-13
-2.47856e-13
1.4318e-09
-8.36329e-14
6.94358e-13
1.43189e-09
8.89505e-14
4.14753e-14
1.43126e-09
-9.15022e-14
1.44374e-12
1.43069e-09
-1.01699e-13
-8.70285e-13
1.43108e-09
-8.60499e-13
7.21696e-13
1.43132e-09
-3.06402e-13
3.30099e-13
1.43174e-09
-4.81199e-13
4.80483e-14
1.4318e-09
-1.31872e-12
2.78642e-12
1.43038e-09
3.42967e-12
-3.11512e-13
1.43065e-09
-8.74547e-13
5.59719e-13
-2.21637e-13
-8.0891e-13
1.29595e-09
-6.02742e-10
-7.85614e-09
-1.07804e-09
-7.49432e-10
1.22804e-09
-5.12861e-08
1.57422e-08
5.17054e-08
-1.61227e-09
-4.84103e-10
-1.02113e-09
1.96143e-09
1.05171e-10
-1.06369e-09
9.25695e-10
-1.53289e-09
-4.6014e-10
-3.74646e-10
7.84272e-11
6.05973e-10
-3.80822e-10
3.17423e-10
-6.94439e-12
1.28458e-10
6.99483e-10
-3.40372e-09
1.62469e-09
-1.8842e-10
-5.66823e-11
-2.81851e-10
-1.11653e-09
1.27414e-08
-1.90958e-09
3.21938e-09
-1.15277e-08
1.30389e-10
1.53131e-09
1.45933e-10
-9.09664e-10
-3.59833e-10
-1.23378e-09
-1.42113e-10
-5.34278e-11
1.78916e-09
-1.21521e-10
4.20558e-11
1.25427e-10
1.64373e-11
-6.23995e-11
-7.19573e-11
3.10932e-11
6.23268e-10
-4.22803e-11
-1.93113e-10
-8.00721e-11
-1.15688e-10
-1.5125e-10
-1.88734e-10
3.91103e-12
-6.164e-12
-1.57551e-11
2.0674e-10
-4.24411e-11
3.48965e-12
2.19886e-10
1.40696e-11
7.57993e-12
-4.3243e-11
-7.90288e-11
-8.03126e-11
1.48572e-09
2.15448e-11
-2.83505e-11
-2.84341e-10
-2.77182e-10
-4.74563e-10
-4.58796e-10
1.46364e-09
1.53904e-11
-2.96626e-12
1.45007e-09
6.67005e-12
4.61266e-13
1.44247e-09
3.76227e-12
-7.00586e-14
1.43793e-09
1.99953e-12
2.81849e-14
1.43533e-09
1.13931e-12
-2.82284e-13
1.43365e-09
7.82662e-13
-2.15876e-13
1.43256e-09
5.85987e-13
2.63236e-14
1.43227e-09
-1.19993e-13
6.07158e-14
1.43211e-09
1.93674e-13
-2.13572e-13
1.43065e-09
6.38114e-13
5.51458e-13
1.43207e-09
-3.88997e-12
2.30615e-12
1.43155e-09
5.45956e-13
3.97531e-14
1.43161e-09
4.7651e-13
-5.6009e-13
1.43135e-09
3.25145e-14
2.16393e-14
1.43158e-09
-1.31956e-13
1.50536e-13
1.43147e-09
1.70216e-13
2.93061e-13
1.43168e-09
-2.56474e-13
6.63468e-14
1.43167e-09
2.356e-13
-7.2719e-14
1.43145e-09
7.95606e-13
-2.0051e-13
1.43045e-09
2.83073e-12
-1.88285e-12
1.43022e-09
-7.39341e-13
1.07814e-12
1.4314e-09
1.39147e-13
-2.07956e-12
1.43115e-09
5.04604e-14
1.60495e-13
1.43104e-09
1.51872e-13
-2.7398e-13
1.43087e-09
5.47888e-13
-7.87014e-13
1.43086e-09
-2.40894e-13
1.17976e-13
1.43103e-09
-2.96612e-13
-2.31346e-13
1.43099e-09
1.40818e-13
2.97783e-13
1.43075e-09
-7.49818e-13
6.14435e-13
1.43153e-09
-7.26976e-13
-1.38572e-13
1.43136e-09
2.41625e-13
1.12214e-14
1.43135e-09
-1.28547e-13
4.71868e-14
1.43131e-09
-2.22125e-14
-3.77951e-14
1.43093e-09
-1.93033e-13
-2.94191e-13
1.43069e-09
-2.81938e-13
2.07482e-13
1.43042e-09
-1.32294e-13
-7.65191e-14
1.43034e-09
1.34673e-12
-2.58298e-12
1.43228e-09
1.13308e-12
3.45882e-13
1.43199e-09
-4.36879e-13
-1.44826e-13
-7.03871e-13
1.5791e-12
3.25374e-09
-6.38988e-11
-3.60164e-09
-8.58602e-09
-1.17376e-09
2.4235e-08
-2.90254e-09
-1.15727e-08
3.45535e-10
-7.94002e-10
5.05018e-09
-2.27961e-09
-2.3221e-09
-2.44871e-10
-5.86369e-10
1.44301e-09
-8.72777e-10
2.39891e-09
-1.12026e-09
-1.96026e-10
-8.21596e-10
7.75969e-10
-1.69764e-09
-2.54358e-10
-2.69839e-10
-1.58192e-10
1.73053e-10
1.45281e-10
-1.62271e-08
1.95092e-08
-4.97807e-09
7.57257e-10
3.39419e-10
2.28647e-10
-4.7227e-10
7.3605e-10
3.70071e-10
1.02284e-09
-2.55171e-10
2.65995e-10
-2.57203e-10
-9.55949e-12
2.55938e-10
1.92484e-11
2.14387e-10
-1.86949e-10
-1.01054e-09
1.15702e-10
8.0793e-10
8.33083e-11
-2.33638e-11
9.06636e-13
-1.58462e-11
-4.78263e-12
-1.1511e-10
3.97297e-11
-9.03895e-12
-6.41987e-11
1.48618e-10
-3.70395e-11
-1.40203e-11
1.9798e-10
9.34377e-12
1.14292e-11
-6.7212e-11
-3.59393e-11
-6.45415e-11
1.44878e-09
4.57416e-12
-2.51976e-11
-2.66816e-10
-2.6268e-10
-4.41468e-10
-4.35646e-10
1.44628e-09
1.98635e-11
-1.97731e-12
1.44211e-09
1.03013e-11
5.46073e-13
1.43871e-09
7.2144e-12
-5.22042e-14
1.43617e-09
4.53044e-12
2.17278e-14
1.43438e-09
2.92509e-12
1.22481e-14
1.43329e-09
1.87239e-12
3.91638e-15
1.43261e-09
1.27846e-12
-6.55729e-15
1.43175e-09
7.80329e-13
-3.02356e-14
1.43222e-09
-3.663e-13
9.53786e-14
1.43212e-09
4.24985e-13
3.19458e-13
1.4307e-09
-1.47067e-13
-2.31787e-12
1.43128e-09
9.45912e-15
-4.34754e-14
1.43121e-09
1.88604e-13
3.61775e-13
1.43123e-09
3.68948e-14
-2.60832e-14
1.43101e-09
1.8734e-13
-9.0643e-14
1.43132e-09
-7.34697e-14
-6.90412e-14
1.43146e-09
-4.74193e-13
7.60812e-14
1.43225e-09
-5.65001e-13
6.10841e-15
1.42988e-09
7.70366e-12
-4.53988e-12
1.43066e-09
-1.31249e-12
3.3652e-12
1.43114e-09
-4.48771e-13
-7.76562e-13
1.43121e-09
-7.62883e-14
1.4129e-13
1.43119e-09
-2.62767e-14
1.01033e-13
1.43121e-09
-7.73848e-14
2.0621e-13
1.43125e-09
-6.55407e-14
5.71349e-13
1.43119e-09
-3.99258e-14
-1.47303e-13
1.43102e-09
-8.33644e-14
-5.19952e-14
1.43125e-09
-8.10926e-14
-1.20668e-14
1.43106e-09
1.41972e-13
-7.04467e-13
1.43127e-09
5.56442e-13
-1.49112e-12
1.43138e-09
2.83958e-13
-1.55972e-13
1.43091e-09
-1.3695e-13
4.72791e-13
1.43095e-09
-5.59397e-14
-1.66489e-14
1.43098e-09
-3.74638e-14
-1.809e-13
1.43076e-09
1.97675e-13
-2.65143e-13
1.43053e-09
9.9833e-14
-1.51287e-16
1.43098e-09
-8.37126e-13
1.72524e-12
1.43136e-09
6.62343e-13
9.33209e-14
1.4316e-09
-1.48695e-13
-5.32515e-13
-3.12697e-13
-1.01799e-12
1.26982e-09
-2.52611e-09
1.31917e-09
1.28091e-10
5.5644e-09
2.74134e-09
6.70111e-10
2.45935e-09
-7.38273e-10
-1.26049e-09
1.98894e-09
-1.31962e-07
1.41537e-07
-1.62782e-08
-4.71158e-09
9.34316e-10
7.84225e-10
-4.17087e-09
6.45884e-09
-4.00651e-09
-3.89596e-09
5.93957e-10
6.42651e-09
-4.45286e-10
-2.67922e-09
1.0085e-09
6.45323e-09
-3.34159e-10
-1.88214e-09
-5.24544e-09
-1.68864e-10
-1.57823e-09
1.11136e-09
-3.44557e-10
9.80287e-10
-1.78853e-11
1.83789e-10
-1.16123e-10
-3.39737e-11
3.04499e-11
-8.2035e-11
-5.36212e-11
-1.56658e-10
-1.80004e-10
-6.72048e-11
1.01991e-10
1.2968e-10
1.54822e-10
1.06773e-10
-1.42389e-10
-1.92165e-11
1.60123e-11
1.04269e-10
4.13243e-11
1.46511e-09
7.65302e-11
-3.13913e-11
-2.63278e-10
-2.6535e-10
-4.37368e-10
-4.45276e-10
-1.55956e-11
-2.0693e-11
-2.63624e-11
-3.63289e-11
1.4441e-09
2.76469e-11
-2.05744e-12
1.44048e-09
2.35082e-11
-1.52317e-14
1.43673e-09
1.41229e-11
-7.0559e-14
1.4347e-09
9.28497e-12
-4.09929e-14
1.43342e-09
5.83533e-12
-2.09065e-14
1.43266e-09
3.69778e-12
-6.10737e-15
1.43225e-09
2.28833e-12
7.88646e-15
1.43174e-09
1.89078e-12
-9.47348e-14
1.43135e-09
1.32273e-12
-1.53344e-13
1.43136e-09
-2.01594e-12
1.64714e-12
1.43158e-09
5.49192e-14
1.61851e-13
1.43126e-09
8.47424e-14
8.52173e-14
1.43132e-09
2.17235e-13
-2.60042e-13
1.43122e-09
-2.35795e-13
5.29127e-13
1.43126e-09
-4.8077e-15
4.01677e-15
1.4311e-09
1.66512e-13
1.84241e-13
1.43097e-09
-3.7441e-13
4.26075e-13
1.43058e-09
2.27864e-13
-3.09083e-13
1.42925e-09
8.20915e-13
-6.43455e-14
1.43177e-09
3.93122e-13
4.79293e-12
1.43191e-09
9.53758e-13
-2.40793e-12
1.43198e-09
-3.8074e-12
3.28884e-12
1.43157e-09
2.21952e-13
1.09457e-13
1.43116e-09
1.78368e-12
-1.40963e-12
1.43113e-09
4.14011e-14
-8.59421e-14
1.43119e-09
1.00644e-14
-1.43031e-13
1.43107e-09
6.27483e-13
-5.52591e-13
1.43136e-09
-4.14982e-13
4.28545e-14
1.43127e-09
-2.48777e-13
2.49897e-13
1.43162e-09
-1.60127e-13
-5.21093e-14
1.43091e-09
-3.64302e-13
1.63096e-12
1.43097e-09
-1.15967e-13
3.35499e-13
1.431e-09
1.51985e-13
-3.20291e-13
1.43105e-09
-1.10724e-13
-6.27526e-15
1.43092e-09
5.0816e-14
4.1051e-14
1.4308e-09
1.28146e-13
1.91492e-13
1.43032e-09
5.49002e-13
2.85612e-14
1.43093e-09
-1.25921e-12
-1.9233e-13
1.4308e-09
5.47712e-13
2.4577e-13
1.43202e-09
-3.09666e-12
1.72624e-12
-3.7711e-13
-6.54956e-13
2.1517e-09
-1.32536e-09
-9.7868e-09
1.37283e-09
6.00903e-09
5.8216e-09
-7.61556e-10
-7.11763e-10
-6.83177e-10
-6.97642e-10
1.54988e-10
3.30625e-09
-2.36993e-09
1.06049e-09
-2.79207e-09
2.04583e-09
-6.4621e-09
-2.06288e-10
2.08434e-09
-7.4825e-10
5.3634e-09
7.15127e-10
5.59565e-10
3.99347e-10
-1.01165e-09
-9.08385e-09
1.75165e-08
1.44133e-08
-2.34826e-08
1.89171e-09
1.15956e-09
-6.75684e-10
-1.68577e-09
4.29716e-10
6.39605e-10
-1.43715e-09
-1.15755e-09
-4.28837e-10
-1.54884e-09
4.09242e-11
1.17324e-08
1.50156e-09
-1.36691e-08
1.81699e-09
3.59458e-10
1.5086e-09
2.11877e-10
-2.48583e-10
8.44326e-11
-1.13591e-10
5.1009e-10
-2.32348e-10
-7.24954e-11
4.29753e-11
-2.62744e-11
1.06654e-11
4.51292e-11
-3.76734e-11
-3.9145e-12
1.91999e-10
1.28453e-11
3.92297e-11
-4.06268e-11
-6.57576e-11
-7.54934e-11
-8.67298e-12
-3.9885e-12
-7.94796e-12
1.42339e-09
5.40134e-11
-2.61533e-11
-2.60939e-10
-2.58366e-10
-4.29269e-10
-4.26143e-10
1.42286e-09
3.02239e-11
-2.03844e-12
1.42583e-09
2.01641e-11
3.78205e-13
1.42753e-09
1.24567e-11
-3.57331e-14
1.42882e-09
7.97026e-12
2.62416e-14
1.42964e-09
5.03691e-12
-1.41212e-14
1.43015e-09
3.17757e-12
1.36729e-14
1.43066e-09
2.34322e-13
1.55411e-12
1.43119e-09
1.34826e-12
1.37502e-14
1.43138e-09
1.20639e-12
-5.92883e-14
1.43084e-09
4.02575e-13
-1.87679e-12
1.4309e-09
8.17476e-14
-7.58002e-14
1.43088e-09
2.09372e-13
-1.00157e-13
1.43089e-09
-6.78401e-14
2.77425e-13
1.43101e-09
-7.25281e-14
-2.83431e-13
1.43083e-09
2.10905e-13
-3.3992e-14
1.43128e-09
1.83138e-13
-4.63935e-13
1.4317e-09
-3.95218e-13
-3.94804e-13
1.43064e-09
-8.67707e-13
2.15339e-12
1.43142e-09
-8.40639e-14
1.19791e-13
1.43153e-09
3.44541e-13
-6.35033e-14
1.43146e-09
1.53942e-13
8.72361e-13
1.43098e-09
-6.68192e-14
-3.26213e-12
1.43118e-09
1.46884e-13
-1.3242e-13
1.43113e-09
7.72653e-13
1.05418e-12
1.43096e-09
1.51918e-14
1.97311e-13
1.43081e-09
1.52949e-13
5.73234e-15
1.4306e-09
3.00947e-13
5.3045e-13
1.43162e-09
-3.0011e-12
1.56534e-12
1.43168e-09
-1.34459e-13
-1.86277e-13
1.43123e-09
1.00383e-12
-7.14832e-13
1.4312e-09
-2.63965e-13
-7.20226e-14
1.43126e-09
-2.42909e-13
5.76849e-14
1.43095e-09
2.35399e-12
-1.89437e-12
1.43114e-09
-2.61746e-13
-4.03856e-14
1.43083e-09
3.06929e-13
4.95367e-14
1.43123e-09
-6.03217e-13
3.31477e-13
1.43173e-09
-1.93457e-13
2.44652e-13
1.43048e-09
5.50761e-13
-5.6774e-13
1.43072e-09
4.27501e-13
-1.2356e-13
1.43076e-09
1.11198e-12
-4.24691e-12
-1.9103e-12
5.24636e-14
1.12005e-08
-1.24789e-08
2.67781e-09
3.09808e-09
-1.85567e-09
-1.94823e-10
1.32659e-09
-6.26971e-10
5.30639e-10
-9.04186e-09
1.20958e-09
-2.61388e-10
1.91832e-10
-7.76796e-11
1.33702e-09
2.93113e-09
-2.1244e-09
1.19202e-08
-4.3412e-09
4.73543e-09
7.80337e-10
-2.98627e-09
-1.58059e-09
4.31718e-09
1.56573e-09
8.98168e-09
5.3314e-09
-1.7689e-08
1.81021e-09
-1.6591e-11
-8.58194e-10
2.7401e-10
-7.90932e-11
6.7987e-10
-1.16956e-10
3.88648e-12
3.08528e-11
4.18473e-13
8.17982e-11
-3.22945e-11
-1.15097e-11
1.82382e-10
6.3466e-12
1.19467e-11
-3.47152e-11
-5.84083e-11
-6.37475e-11
1.38578e-09
-2.53929e-11
-2.50946e-10
-2.5013e-10
-4.13217e-10
-4.14674e-10
1.4032e-09
-2.26306e-12
1.41321e-09
7.38232e-13
1.41966e-09
2.6142e-15
1.42376e-09
1.46369e-13
1.42651e-09
-4.38564e-13
1.42839e-09
7.34774e-14
1.42924e-09
-1.54591e-12
1.43001e-09
5.52064e-14
1.43058e-09
1.29782e-13
1.43079e-09
4.32068e-13
1.43091e-09
8.7153e-14
1.43064e-09
-4.77391e-13
1.43081e-09
5.49466e-14
1.43089e-09
-3.54944e-14
1.43103e-09
3.47559e-14
1.43082e-09
6.29251e-13
1.43089e-09
8.83789e-13
1.43153e-09
-1.82844e-12
1.43127e-09
6.95131e-14
1.43167e-09
-4.17438e-13
1.43157e-09
-4.70835e-13
1.43141e-09
-2.09167e-12
1.43058e-09
1.77098e-12
1.43099e-09
-3.41478e-13
1.43097e-09
6.88238e-13
1.43105e-09
7.34007e-14
1.43179e-09
-1.14989e-13
1.43084e-09
-2.13956e-12
1.43082e-09
-3.77551e-14
1.4315e-09
7.46003e-13
1.43123e-09
1.57525e-13
1.43118e-09
-2.47173e-13
1.43159e-09
1.8631e-12
1.43109e-09
-1.71069e-12
1.43097e-09
-1.75909e-14
1.431e-09
-3.32042e-13
1.43111e-09
-2.32681e-13
1.43143e-09
3.22561e-13
1.43208e-09
-2.51269e-13
1.43073e-09
2.70813e-12
1.05596e-14
3.64548e-09
-4.80899e-09
5.41436e-09
7.72483e-09
7.37081e-10
5.55524e-09
-1.81596e-09
-4.23573e-09
-2.64924e-09
-1.56867e-09
-1.3941e-09
-9.41591e-10
-4.62689e-10
-2.63243e-09
9.26465e-09
3.61911e-09
-2.24906e-09
8.91567e-12
-7.11538e-09
7.01897e-09
-4.37959e-09
3.2532e-09
3.01234e-10
1.77117e-09
-3.35605e-09
3.3083e-09
-7.87536e-10
9.80751e-10
4.75364e-10
-3.71227e-09
-8.9566e-11
1.10846e-10
7.7616e-11
-7.00527e-11
9.83387e-11
-1.3905e-10
5.97068e-10
-2.38763e-13
-2.08025e-11
-8.06478e-12
-1.36267e-10
-1.44311e-10
-1.41401e-10
2.29626e-09
-2.22384e-11
2.54304e-11
-5.73481e-10
-5.72415e-10
-5.73122e-10
-5.72428e-10
2.32215e-09
-8.27626e-12
2.25824e-12
2.34496e-09
-7.75389e-12
-2.14128e-13
2.35899e-09
-4.76369e-12
2.76791e-13
2.36845e-09
-3.28566e-12
5.54861e-14
2.37403e-09
-2.42048e-12
-5.17961e-13
2.37754e-09
-1.42233e-12
2.98868e-13
2.38044e-09
-1.12136e-12
-1.0388e-13
2.38177e-09
-4.5354e-13
-2.68883e-14
2.38279e-09
-4.31136e-13
9.77424e-14
2.38327e-09
-4.38032e-13
2.41703e-13
2.3837e-09
-2.25703e-13
-4.92312e-13
2.38426e-09
1.12133e-13
-6.51964e-13
2.38394e-09
-2.92401e-13
1.76523e-13
2.38408e-09
-1.20052e-12
5.0272e-13
2.38427e-09
2.01893e-14
-5.38611e-14
2.38415e-09
7.82258e-13
-5.21535e-13
2.38462e-09
-2.22234e-12
2.60077e-12
2.38497e-09
6.40362e-13
-5.6327e-13
2.38512e-09
1.33086e-13
-6.17513e-14
2.38411e-09
4.52921e-13
1.3606e-12
2.38446e-09
3.9747e-13
-9.02307e-13
2.38335e-09
5.17976e-12
-1.15811e-12
2.38347e-09
4.0869e-12
-3.251e-12
2.38428e-09
-1.18308e-12
-4.15832e-13
2.38584e-09
1.09553e-12
-1.61394e-12
2.38548e-09
3.26876e-13
-2.39281e-14
2.38456e-09
2.62887e-13
-2.5439e-13
2.38312e-09
6.94697e-13
-5.04901e-13
2.3831e-09
-1.43867e-12
7.37769e-13
2.38572e-09
-6.96543e-13
-1.60376e-12
2.38496e-09
8.78746e-13
-1.54599e-13
2.38461e-09
3.83125e-13
3.47017e-14
2.38499e-09
-1.83577e-14
-8.80388e-14
2.38614e-09
-1.20537e-12
1.60557e-12
2.38355e-09
4.45574e-12
-3.60855e-12
2.38389e-09
-6.98491e-13
-6.01003e-14
2.38449e-09
-2.918e-12
1.10468e-12
2.38493e-09
-9.68866e-13
5.85281e-13
2.38467e-09
6.605e-14
1.82359e-13
2.38368e-09
5.94743e-13
8.379e-13
-5.81667e-13
-4.34107e-13
1.59201e-08
-7.09182e-09
-1.01057e-08
1.42645e-08
-2.96826e-10
3.27213e-09
1.02838e-08
-4.60607e-10
4.9935e-09
5.07726e-09
2.69632e-10
-2.27355e-09
1.9335e-09
1.81047e-09
9.52321e-10
3.8488e-10
6.54903e-10
3.2679e-10
1.97003e-10
-5.90365e-09
9.23806e-09
-1.72636e-09
-5.62705e-10
-1.81295e-09
1.45651e-09
-9.64563e-11
-7.45567e-09
7.75311e-09
5.96388e-11
9.79927e-09
-9.88613e-10
6.65044e-09
1.42852e-09
-1.18124e-08
-1.45568e-09
-7.12939e-11
-9.82271e-10
9.26029e-10
7.33941e-10
8.49277e-10
-1.34439e-10
-2.83202e-10
3.96902e-11
-2.29681e-11
3.22625e-10
7.82939e-11
-1.34698e-10
5.77905e-10
-1.94316e-11
-1.14119e-12
-1.36297e-12
-1.41604e-10
-1.3994e-10
-1.47134e-10
7.40743e-12
2.31245e-09
-9.13363e-11
2.49032e-11
-5.6822e-10
-5.78366e-10
-5.68215e-10
-5.78383e-10
2.32774e-09
-2.72893e-11
1.874e-12
2.34939e-09
-2.86318e-11
-3.82141e-13
2.3617e-09
-1.71213e-11
2.95345e-14
2.3701e-09
-1.16875e-11
2.29779e-14
2.37535e-09
-7.63417e-12
-7.76896e-15
2.37891e-09
-4.94472e-12
-1.30853e-14
2.38057e-09
-3.26148e-12
2.47744e-13
2.38231e-09
-2.22957e-12
-1.14862e-14
2.38379e-09
-5.08073e-13
-6.17449e-13
2.38288e-09
1.55435e-12
1.56096e-12
2.38361e-09
-8.86212e-13
1.87305e-14
2.38389e-09
-2.36986e-13
-1.20309e-13
2.384e-09
-2.70049e-13
-7.98838e-14
2.38458e-09
6.53999e-13
-1.21119e-12
2.38513e-09
5.79107e-13
-1.6975e-12
2.38503e-09
2.29216e-13
9.93265e-13
2.38389e-09
-2.25931e-13
-1.70991e-12
2.38416e-09
2.09641e-13
7.85461e-14
2.3846e-09
-2.23241e-13
-3.05291e-14
2.38288e-09
3.61689e-12
1.31262e-12
2.3832e-09
-2.49818e-13
5.10242e-13
2.38424e-09
6.80448e-13
1.84323e-12
2.38445e-09
1.01011e-12
1.44548e-12
2.38616e-09
-2.99369e-12
2.96144e-12
2.38525e-09
1.20917e-12
2.09772e-12
2.38516e-09
2.98291e-13
5.0564e-14
2.38464e-09
-5.39561e-14
1.34771e-12
2.38519e-09
1.42778e-13
-5.917e-14
2.38541e-09
-7.21275e-13
-6.92947e-13
2.38318e-09
-7.02096e-13
1.6612e-12
2.38359e-09
6.55036e-13
-6.86645e-13
2.3835e-09
7.22081e-13
-9.96209e-14
2.3832e-09
6.50224e-15
4.16462e-13
2.38348e-09
-1.09968e-12
-1.47685e-12
2.38579e-09
5.26814e-13
3.73296e-12
2.3851e-09
1.08749e-13
-5.21633e-14
2.38418e-09
1.40217e-13
-1.13942e-12
2.3848e-09
-1.39358e-12
-1.86776e-12
2.38434e-09
6.85536e-13
-2.34487e-13
2.38461e-09
1.84338e-13
-6.97457e-13
-2.53201e-13
2.05446e-13
-1.06268e-08
2.14257e-09
1.24731e-08
-6.83624e-09
1.49767e-09
-9.24142e-10
-4.85471e-09
-4.14404e-10
5.19399e-09
-5.39712e-10
-2.57355e-10
-6.11548e-10
4.83154e-10
-1.01486e-09
2.08773e-10
-5.46674e-09
-1.50428e-09
-2.34425e-09
-8.1201e-09
-4.6997e-09
1.58066e-09
6.65404e-09
8.9448e-09
-4.69961e-10
-2.28748e-10
-5.30197e-10
-6.86906e-09
-8.46829e-10
-1.29631e-09
-8.47912e-10
-7.23645e-10
3.37386e-10
9.44209e-10
1.58627e-09
-8.998e-11
1.26548e-11
-1.06879e-10
4.75861e-11
-2.56828e-11
1.62301e-10
-1.26716e-10
-1.78198e-11
9.67351e-12
-1.18745e-11
9.92007e-12
1.36816e-10
2.34832e-09
-4.25437e-11
2.94138e-11
-5.81136e-10
-5.72865e-10
-5.81139e-10
-5.72901e-10
-5.24315e-11
-4.25388e-11
-5.24281e-11
2.34796e-09
-3.05947e-11
1.80084e-12
2.36482e-09
-4.53404e-11
-6.87067e-14
2.37216e-09
-2.44865e-11
2.05043e-14
2.37713e-09
-1.6673e-11
1.675e-14
2.37996e-09
-1.04442e-11
9.11789e-16
2.38165e-09
-6.61158e-12
-4.26536e-15
2.38267e-09
-4.16963e-12
-3.79434e-14
2.38334e-09
-2.7581e-12
-3.79945e-14
2.38415e-09
-2.1721e-12
5.48481e-13
2.3844e-09
6.94871e-14
-1.43687e-12
2.3847e-09
-1.2691e-12
-2.19219e-14
2.38435e-09
6.73348e-14
3.42884e-13
2.38498e-09
-8.93909e-13
-6.40159e-15
2.38439e-09
8.61271e-13
1.55473e-13
2.38413e-09
-2.24182e-13
1.68327e-12
2.38341e-09
-1.30006e-12
2.30779e-12
2.38378e-09
-5.31547e-13
-4.7057e-14
2.38375e-09
1.78064e-13
9.25508e-15
2.3832e-09
7.65795e-13
-2.54976e-13
2.38475e-09
9.95299e-13
-1.32515e-12
2.38543e-09
-4.17848e-12
1.619e-12
2.38523e-09
1.05972e-12
-1.7383e-13
2.38686e-09
-2.61026e-12
8.92124e-13
2.38442e-09
1.28486e-13
-3.16682e-12
2.38363e-09
9.33585e-14
-9.46365e-13
2.38399e-09
-2.48981e-14
-6.4383e-14
2.38497e-09
-1.81581e-13
-1.38076e-12
2.38502e-09
3.96439e-14
1.65719e-14
2.38475e-09
-1.29281e-13
3.02613e-14
2.38441e-09
-6.84205e-13
-3.21535e-14
2.38405e-09
1.69367e-12
2.28802e-13
2.38275e-09
1.4802e-12
6.50702e-13
2.38317e-09
1.64112e-13
-3.49089e-13
2.38459e-09
1.53889e-12
-1.82299e-12
2.38562e-09
-2.39057e-12
9.13153e-13
2.38532e-09
8.68617e-13
-1.59523e-13
2.3853e-09
6.53733e-13
-2.27902e-13
2.38402e-09
9.06853e-14
1.3199e-12
2.38373e-09
8.23555e-13
6.82038e-14
2.38369e-09
3.92102e-13
-5.42763e-14
-1.95446e-12
1.01853e-12
-1.23791e-09
-5.24942e-09
1.05746e-08
2.61644e-09
-1.63706e-09
-1.36196e-09
1.59909e-09
9.87006e-10
4.24153e-10
-8.63668e-09
-1.5413e-09
9.22579e-09
4.68507e-09
5.39623e-10
6.54924e-09
-1.00235e-09
7.34231e-10
-7.30796e-09
1.00578e-08
-2.30195e-10
-2.2515e-09
-3.60172e-09
-4.99023e-09
4.24556e-09
5.62171e-09
-7.27641e-10
-1.80567e-09
-9.73052e-10
-1.20116e-09
3.43221e-09
1.1841e-09
-3.1993e-10
7.78585e-10
-1.85684e-10
6.22216e-11
-1.51929e-09
-1.25312e-10
1.64791e-10
6.0642e-11
2.32342e-11
-1.1938e-10
-1.04066e-10
-9.08411e-11
-1.00952e-10
9.74883e-11
5.75247e-11
9.76015e-11
3.9271e-11
-7.62261e-11
-6.36084e-11
3.86798e-12
-1.9922e-11
2.96444e-11
1.26244e-10
-5.82819e-10
-4.19778e-12
5.98884e-10
-5.3522e-11
-8.86579e-13