/*--------------------------------*- C++ -*----------------------------------*\
| =========                 |                                                 |
| \\      /  F ield         | OpenFOAM: The Open Source CFD Toolbox           |
|  \\    /   O peration     | Version:  5.0                                   |
|   \\  /    A nd           | Web:      www.OpenFOAM.org                      |
|    \\/     M anipulation  |                                                 |
\*---------------------------------------------------------------------------*/
FoamFile
{
    version     2.0;
    format      ascii;
    class       volScalarField;
    location    "4.9";
    object      rAU;
}
// * * * * * * * * * * * * * * * * * * * * * * * * * * * * * * * * * * * * * //

dimensions      [-1 3 1 0 0 0 0];

internalField   nonuniform List<scalar> 
8584
(
9.61772e-07
9.59631e-07
8.77613e-07
6.90453e-07
6.70008e-07
6.90639e-07
2.7292e-07
1.29724e-07
3.93454e-07
3.94697e-07
3.9573e-07
3.96763e-07
3.97794e-07
3.98826e-07
3.99856e-07
4.00886e-07
4.01915e-07
4.02943e-07
4.03971e-07
4.04998e-07
4.06024e-07
4.0705e-07
4.08075e-07
4.09099e-07
4.10122e-07
4.11145e-07
4.12166e-07
4.13187e-07
4.14208e-07
4.15227e-07
4.16245e-07
4.17264e-07
4.18281e-07
4.19297e-07
4.20313e-07
4.21328e-07
4.22341e-07
4.23355e-07
4.24367e-07
4.25379e-07
4.2639e-07
4.274e-07
4.28408e-07
4.29417e-07
4.30424e-07
4.31431e-07
4.32437e-07
4.33442e-07
4.34446e-07
4.36222e-07
9.65306e-07
9.64001e-07
9.67439e-07
8.90117e-07
8.97511e-07
6.77454e-07
6.68096e-07
1.29627e-07
3.93453e-07
3.94696e-07
3.9573e-07
3.96762e-07
3.97794e-07
3.98826e-07
3.99856e-07
4.00886e-07
4.01915e-07
4.02943e-07
4.03971e-07
4.04998e-07
4.06024e-07
4.0705e-07
4.08075e-07
4.09099e-07
4.10122e-07
4.11145e-07
4.12166e-07
4.13187e-07
4.14208e-07
4.15227e-07
4.16245e-07
4.17264e-07
4.18281e-07
4.19297e-07
4.20313e-07
4.21328e-07
4.22341e-07
4.23355e-07
4.24367e-07
4.25379e-07
4.2639e-07
4.274e-07
4.28409e-07
4.29417e-07
4.30424e-07
4.31431e-07
4.32437e-07
4.33442e-07
4.34446e-07
4.36222e-07
9.67213e-07
9.62802e-07
9.50362e-07
8.8236e-07
6.90395e-07
6.6246e-07
6.99326e-07
3.53126e-08
3.93318e-07
3.94696e-07
3.9573e-07
3.96762e-07
3.97794e-07
3.98826e-07
3.99856e-07
4.00886e-07
4.01915e-07
4.02943e-07
4.03971e-07
4.04998e-07
4.06024e-07
4.0705e-07
4.08075e-07
4.09099e-07
4.10122e-07
4.11145e-07
4.12166e-07
4.13187e-07
4.14208e-07
4.15227e-07
4.16245e-07
4.17264e-07
4.18281e-07
4.19297e-07
4.20313e-07
4.21328e-07
4.22341e-07
4.23355e-07
4.24367e-07
4.25379e-07
4.2639e-07
4.274e-07
4.28408e-07
4.29417e-07
4.30424e-07
4.31431e-07
4.32437e-07
4.33442e-07
4.34446e-07
4.36222e-07
9.63872e-07
9.63141e-07
9.64874e-07
8.89956e-07
6.973e-07
4.60493e-07
9.03626e-07
5.47908e-08
1.30269e-07
3.94485e-07
3.95729e-07
3.96762e-07
3.97794e-07
3.98826e-07
3.99856e-07
4.00886e-07
4.01915e-07
4.02943e-07
4.03971e-07
4.04998e-07
4.06024e-07
4.0705e-07
4.08075e-07
4.09099e-07
4.10122e-07
4.11145e-07
4.12166e-07
4.13187e-07
4.14208e-07
4.15227e-07
4.16246e-07
4.17264e-07
4.18281e-07
4.19297e-07
4.20313e-07
4.21328e-07
4.22341e-07
4.23355e-07
4.24367e-07
4.25379e-07
4.2639e-07
4.274e-07
4.28408e-07
4.29417e-07
4.30424e-07
4.31431e-07
4.32437e-07
4.33442e-07
4.34446e-07
4.36222e-07
9.67958e-07
9.62425e-07
8.914e-07
8.80169e-07
8.71403e-07
6.73749e-07
9.02499e-07
4.53808e-07
1.30173e-07
3.94484e-07
3.95729e-07
3.96762e-07
3.97794e-07
3.98825e-07
3.99856e-07
4.00886e-07
4.01915e-07
4.02943e-07
4.03971e-07
4.04998e-07
4.06024e-07
4.0705e-07
4.08075e-07
4.09099e-07
4.10122e-07
4.11145e-07
4.12166e-07
4.13187e-07
4.14208e-07
4.15227e-07
4.16245e-07
4.17264e-07
4.18281e-07
4.19297e-07
4.20313e-07
4.21328e-07
4.22341e-07
4.23355e-07
4.24367e-07
4.25379e-07
4.2639e-07
4.274e-07
4.28409e-07
4.29417e-07
4.30424e-07
4.31431e-07
4.32437e-07
4.33442e-07
4.34446e-07
4.36222e-07
9.62357e-07
8.91198e-07
8.97525e-07
7.76104e-07
4.27725e-07
5.64211e-07
9.02365e-07
6.07828e-07
1.30177e-07
3.94484e-07
3.95729e-07
3.96762e-07
3.97794e-07
3.98825e-07
3.99856e-07
4.00886e-07
4.01915e-07
4.02943e-07
4.03971e-07
4.04998e-07
4.06024e-07
4.0705e-07
4.08075e-07
4.09099e-07
4.10122e-07
4.11145e-07
4.12166e-07
4.13187e-07
4.14208e-07
4.15227e-07
4.16246e-07
4.17264e-07
4.18281e-07
4.19297e-07
4.20313e-07
4.21328e-07
4.22341e-07
4.23355e-07
4.24367e-07
4.25379e-07
4.2639e-07
4.274e-07
4.28409e-07
4.29417e-07
4.30424e-07
4.31431e-07
4.32437e-07
4.33442e-07
4.34446e-07
4.36222e-07
8.91157e-07
6.04343e-07
5.38704e-07
9.00775e-07
8.14173e-07
6.98149e-07
9.01742e-07
2.40601e-07
1.30048e-07
3.94486e-07
3.95729e-07
3.96762e-07
3.97794e-07
3.98826e-07
3.99856e-07
4.00886e-07
4.01915e-07
4.02943e-07
4.03971e-07
4.04998e-07
4.06024e-07
4.0705e-07
4.08075e-07
4.09099e-07
4.10122e-07
4.11145e-07
4.12166e-07
4.13187e-07
4.14208e-07
4.15227e-07
4.16245e-07
4.17264e-07
4.18281e-07
4.19297e-07
4.20313e-07
4.21328e-07
4.22341e-07
4.23355e-07
4.24367e-07
4.25379e-07
4.2639e-07
4.274e-07
4.28409e-07
4.29417e-07
4.30424e-07
4.31431e-07
4.32437e-07
4.33442e-07
4.34446e-07
4.36222e-07
8.94274e-07
6.41315e-07
5.36946e-07
6.27602e-07
4.72552e-07
6.83506e-07
9.02996e-07
4.2038e-08
3.93318e-07
3.94696e-07
3.9573e-07
3.96762e-07
3.97794e-07
3.98826e-07
3.99856e-07
4.00886e-07
4.01915e-07
4.02943e-07
4.03971e-07
4.04998e-07
4.06024e-07
4.0705e-07
4.08075e-07
4.09099e-07
4.10122e-07
4.11145e-07
4.12166e-07
4.13187e-07
4.14208e-07
4.15227e-07
4.16245e-07
4.17264e-07
4.18281e-07
4.19297e-07
4.20313e-07
4.21328e-07
4.22341e-07
4.23355e-07
4.24367e-07
4.25379e-07
4.2639e-07
4.274e-07
4.28409e-07
4.29417e-07
4.30424e-07
4.31431e-07
4.32437e-07
4.33442e-07
4.34446e-07
4.36222e-07
9.6007e-07
8.79403e-07
7.89559e-07
6.86623e-07
7.94353e-07
5.84931e-07
7.01005e-07
1.29449e-07
3.93454e-07
3.94697e-07
3.9573e-07
3.96763e-07
3.97794e-07
3.98826e-07
3.99856e-07
4.00886e-07
4.01915e-07
4.02943e-07
4.03971e-07
4.04998e-07
4.06024e-07
4.0705e-07
4.08075e-07
4.09099e-07
4.10122e-07
4.11145e-07
4.12166e-07
4.13187e-07
4.14208e-07
4.15227e-07
4.16245e-07
4.17264e-07
4.18281e-07
4.19297e-07
4.20313e-07
4.21328e-07
4.22341e-07
4.23355e-07
4.24367e-07
4.25379e-07
4.2639e-07
4.274e-07
4.28409e-07
4.29417e-07
4.30424e-07
4.31431e-07
4.32437e-07
4.33442e-07
4.34446e-07
4.36222e-07
9.63026e-07
9.63052e-07
9.43665e-07
8.17422e-07
7.94965e-07
6.87508e-07
6.67975e-07
1.29724e-07
3.93454e-07
3.94697e-07
3.95731e-07
3.96763e-07
3.97794e-07
3.98826e-07
3.99856e-07
4.00886e-07
4.01915e-07
4.02943e-07
4.03971e-07
4.04998e-07
4.06024e-07
4.0705e-07
4.08075e-07
4.09099e-07
4.10122e-07
4.11145e-07
4.12166e-07
4.13187e-07
4.14208e-07
4.15227e-07
4.16245e-07
4.17264e-07
4.18281e-07
4.19297e-07
4.20313e-07
4.21328e-07
4.22341e-07
4.23355e-07
4.24367e-07
4.25379e-07
4.2639e-07
4.274e-07
4.28408e-07
4.29417e-07
4.30424e-07
4.31431e-07
4.32437e-07
4.33442e-07
4.34446e-07
4.36222e-07
9.72688e-07
9.65015e-07
9.43297e-07
8.77204e-07
9.08503e-07
7.39184e-07
3.49437e-07
1.83949e-07
5.06039e-07
5.07527e-07
5.08665e-07
5.09802e-07
5.10938e-07
5.1207e-07
5.13203e-07
5.14334e-07
5.15462e-07
5.1659e-07
5.17716e-07
5.18839e-07
5.19962e-07
5.21083e-07
5.22202e-07
5.2332e-07
5.24436e-07
5.2555e-07
5.26663e-07
5.27774e-07
5.28883e-07
5.29991e-07
5.31098e-07
5.32202e-07
5.33305e-07
5.34406e-07
5.35505e-07
5.36603e-07
5.377e-07
5.38794e-07
5.39887e-07
5.40979e-07
5.42067e-07
5.43156e-07
5.44242e-07
5.45326e-07
5.46409e-07
5.47491e-07
5.4857e-07
5.49648e-07
5.50724e-07
5.53039e-07
9.62485e-07
9.63651e-07
9.7272e-07
9.68729e-07
9.06788e-07
7.04261e-07
7.68554e-07
1.83949e-07
5.06036e-07
5.07526e-07
5.08664e-07
5.09801e-07
5.10937e-07
5.1207e-07
5.13203e-07
5.14334e-07
5.15462e-07
5.1659e-07
5.17716e-07
5.18839e-07
5.19962e-07
5.21083e-07
5.22202e-07
5.2332e-07
5.24436e-07
5.2555e-07
5.26663e-07
5.27774e-07
5.28883e-07
5.29991e-07
5.31098e-07
5.32201e-07
5.33305e-07
5.34406e-07
5.35505e-07
5.36603e-07
5.377e-07
5.38794e-07
5.39887e-07
5.40979e-07
5.42068e-07
5.43156e-07
5.44242e-07
5.45326e-07
5.46409e-07
5.47491e-07
5.4857e-07
5.49648e-07
5.50724e-07
5.53039e-07
9.68038e-07
9.72295e-07
9.74176e-07
9.08043e-07
8.83147e-07
7.41396e-07
7.77523e-07
5.20198e-08
5.05811e-07
5.07525e-07
5.08663e-07
5.09801e-07
5.10937e-07
5.1207e-07
5.13203e-07
5.14334e-07
5.15462e-07
5.1659e-07
5.17716e-07
5.18839e-07
5.19962e-07
5.21083e-07
5.22202e-07
5.2332e-07
5.24436e-07
5.2555e-07
5.26663e-07
5.27774e-07
5.28883e-07
5.29991e-07
5.31098e-07
5.32201e-07
5.33305e-07
5.34406e-07
5.35505e-07
5.36603e-07
5.377e-07
5.38794e-07
5.39887e-07
5.40979e-07
5.42067e-07
5.43156e-07
5.44242e-07
5.45326e-07
5.46409e-07
5.47491e-07
5.4857e-07
5.49648e-07
5.50724e-07
5.53039e-07
9.46688e-07
9.66682e-07
8.39153e-07
8.39107e-07
9.16357e-07
4.86383e-07
9.3311e-07
8.16018e-08
1.84857e-07
5.07175e-07
5.08662e-07
5.098e-07
5.10936e-07
5.1207e-07
5.13202e-07
5.14334e-07
5.15462e-07
5.1659e-07
5.17716e-07
5.18839e-07
5.19962e-07
5.21083e-07
5.22202e-07
5.2332e-07
5.24436e-07
5.2555e-07
5.26663e-07
5.27774e-07
5.28883e-07
5.29991e-07
5.31098e-07
5.32202e-07
5.33305e-07
5.34406e-07
5.35505e-07
5.36603e-07
5.377e-07
5.38794e-07
5.39887e-07
5.40979e-07
5.42067e-07
5.43156e-07
5.44242e-07
5.45326e-07
5.46409e-07
5.47491e-07
5.4857e-07
5.49648e-07
5.50724e-07
5.53039e-07
9.74713e-07
9.52239e-07
9.19617e-07
4.68865e-07
5.8853e-07
6.54947e-07
9.31348e-07
5.29131e-07
1.84552e-07
5.07171e-07
5.0866e-07
5.098e-07
5.10936e-07
5.1207e-07
5.13202e-07
5.14334e-07
5.15462e-07
5.1659e-07
5.17716e-07
5.18839e-07
5.19962e-07
5.21083e-07
5.22202e-07
5.2332e-07
5.24436e-07
5.2555e-07
5.26663e-07
5.27774e-07
5.28883e-07
5.29991e-07
5.31098e-07
5.32201e-07
5.33305e-07
5.34406e-07
5.35505e-07
5.36603e-07
5.377e-07
5.38794e-07
5.39887e-07
5.40979e-07
5.42067e-07
5.43156e-07
5.44242e-07
5.45326e-07
5.46409e-07
5.47491e-07
5.4857e-07
5.49648e-07
5.50724e-07
5.53039e-07
8.69772e-07
9.13492e-07
9.09007e-07
5.16091e-07
5.66545e-07
6.58143e-07
9.31595e-07
7.68034e-07
1.8455e-07
5.07171e-07
5.08661e-07
5.098e-07
5.10936e-07
5.1207e-07
5.13202e-07
5.14334e-07
5.15462e-07
5.1659e-07
5.17716e-07
5.18839e-07
5.19962e-07
5.21083e-07
5.22202e-07
5.2332e-07
5.24436e-07
5.2555e-07
5.26663e-07
5.27774e-07
5.28883e-07
5.29991e-07
5.31098e-07
5.32201e-07
5.33305e-07
5.34406e-07
5.35505e-07
5.36603e-07
5.377e-07
5.38794e-07
5.39887e-07
5.40979e-07
5.42067e-07
5.43156e-07
5.44242e-07
5.45326e-07
5.46409e-07
5.47491e-07
5.4857e-07
5.49648e-07
5.50724e-07
5.53039e-07
8.93132e-07
3.67792e-07
3.82749e-07
9.11138e-07
7.1573e-07
7.16586e-07
9.30244e-07
3.1886e-07
1.84553e-07
5.07175e-07
5.08662e-07
5.098e-07
5.10936e-07
5.1207e-07
5.13203e-07
5.14334e-07
5.15462e-07
5.1659e-07
5.17716e-07
5.18839e-07
5.19962e-07
5.21083e-07
5.22202e-07
5.2332e-07
5.24436e-07
5.2555e-07
5.26663e-07
5.27774e-07
5.28883e-07
5.29991e-07
5.31098e-07
5.32202e-07
5.33305e-07
5.34406e-07
5.35505e-07
5.36603e-07
5.377e-07
5.38794e-07
5.39887e-07
5.40979e-07
5.42067e-07
5.43156e-07
5.44242e-07
5.45326e-07
5.46409e-07
5.47491e-07
5.4857e-07
5.49648e-07
5.50724e-07
5.53039e-07
9.21922e-07
4.42687e-07
2.90076e-07
6.0945e-07
5.02743e-07
7.4788e-07
9.30906e-07
6.22703e-08
5.05813e-07
5.07526e-07
5.08663e-07
5.09801e-07
5.10937e-07
5.1207e-07
5.13203e-07
5.14334e-07
5.15462e-07
5.1659e-07
5.17716e-07
5.18839e-07
5.19962e-07
5.21083e-07
5.22202e-07
5.2332e-07
5.24436e-07
5.2555e-07
5.26663e-07
5.27774e-07
5.28883e-07
5.29991e-07
5.31098e-07
5.32202e-07
5.33305e-07
5.34406e-07
5.35505e-07
5.36603e-07
5.377e-07
5.38794e-07
5.39887e-07
5.40979e-07
5.42067e-07
5.43156e-07
5.44242e-07
5.45326e-07
5.46409e-07
5.47491e-07
5.4857e-07
5.49648e-07
5.50724e-07
5.53039e-07
9.67618e-07
9.11178e-07
7.46549e-07
5.47312e-07
2.98822e-07
6.45883e-07
7.7365e-07
1.83842e-07
5.06039e-07
5.07527e-07
5.08665e-07
5.09802e-07
5.10937e-07
5.1207e-07
5.13203e-07
5.14334e-07
5.15462e-07
5.1659e-07
5.17716e-07
5.18839e-07
5.19962e-07
5.21083e-07
5.22202e-07
5.2332e-07
5.24436e-07
5.2555e-07
5.26663e-07
5.27774e-07
5.28883e-07
5.29991e-07
5.31098e-07
5.32202e-07
5.33305e-07
5.34406e-07
5.35505e-07
5.36603e-07
5.377e-07
5.38794e-07
5.39887e-07
5.40979e-07
5.42067e-07
5.43156e-07
5.44242e-07
5.45326e-07
5.46409e-07
5.47491e-07
5.4857e-07
5.49648e-07
5.50724e-07
5.53039e-07
9.71064e-07
9.67476e-07
8.94796e-07
7.7251e-07
3.10606e-07
7.56318e-07
7.69457e-07
1.8395e-07
5.06041e-07
5.07528e-07
5.08665e-07
5.09802e-07
5.10938e-07
5.12071e-07
5.13203e-07
5.14334e-07
5.15462e-07
5.1659e-07
5.17716e-07
5.18839e-07
5.19962e-07
5.21083e-07
5.22202e-07
5.2332e-07
5.24436e-07
5.2555e-07
5.26663e-07
5.27774e-07
5.28883e-07
5.29991e-07
5.31098e-07
5.32202e-07
5.33305e-07
5.34406e-07
5.35505e-07
5.36603e-07
5.377e-07
5.38794e-07
5.39887e-07
5.40979e-07
5.42067e-07
5.43156e-07
5.44242e-07
5.45326e-07
5.46409e-07
5.47491e-07
5.4857e-07
5.49648e-07
5.50724e-07
5.53039e-07
9.65345e-07
9.64874e-07
9.68876e-07
9.49708e-07
8.8714e-07
6.36733e-07
3.46498e-07
1.83969e-07
3.93454e-07
3.94697e-07
3.9573e-07
3.96763e-07
3.97794e-07
3.98826e-07
3.99856e-07
4.00886e-07
4.01915e-07
4.02943e-07
4.03971e-07
4.04998e-07
4.06024e-07
4.07049e-07
4.08075e-07
4.09098e-07
4.10122e-07
4.11144e-07
4.12166e-07
4.13187e-07
4.14208e-07
4.15227e-07
4.16245e-07
4.17264e-07
4.18281e-07
4.19297e-07
4.20313e-07
4.21328e-07
4.22341e-07
4.23355e-07
4.24367e-07
4.25379e-07
4.2639e-07
4.274e-07
4.28408e-07
4.29417e-07
4.30424e-07
4.31431e-07
4.32437e-07
4.33442e-07
4.34446e-07
4.36222e-07
9.68857e-07
9.55729e-07
9.59301e-07
9.09475e-07
8.49091e-07
6.17761e-07
7.69068e-07
1.83954e-07
3.93453e-07
3.94696e-07
3.9573e-07
3.96762e-07
3.97794e-07
3.98826e-07
3.99856e-07
4.00886e-07
4.01915e-07
4.02943e-07
4.03971e-07
4.04998e-07
4.06024e-07
4.07049e-07
4.08075e-07
4.09098e-07
4.10122e-07
4.11144e-07
4.12166e-07
4.13187e-07
4.14208e-07
4.15227e-07
4.16245e-07
4.17264e-07
4.18281e-07
4.19297e-07
4.20313e-07
4.21328e-07
4.22341e-07
4.23355e-07
4.24367e-07
4.25379e-07
4.2639e-07
4.274e-07
4.28408e-07
4.29417e-07
4.30424e-07
4.31431e-07
4.32437e-07
4.33442e-07
4.34446e-07
4.36222e-07
9.6319e-07
9.67892e-07
9.01807e-07
7.12563e-07
6.10342e-07
7.54858e-07
7.77194e-07
5.202e-08
3.93317e-07
3.94696e-07
3.9573e-07
3.96762e-07
3.97794e-07
3.98826e-07
3.99856e-07
4.00886e-07
4.01915e-07
4.02943e-07
4.03971e-07
4.04998e-07
4.06024e-07
4.07049e-07
4.08075e-07
4.09098e-07
4.10122e-07
4.11145e-07
4.12166e-07
4.13187e-07
4.14208e-07
4.15227e-07
4.16245e-07
4.17264e-07
4.18281e-07
4.19297e-07
4.20313e-07
4.21328e-07
4.22341e-07
4.23355e-07
4.24367e-07
4.25379e-07
4.2639e-07
4.274e-07
4.28408e-07
4.29417e-07
4.30424e-07
4.31431e-07
4.32437e-07
4.33442e-07
4.34446e-07
4.36222e-07
9.60895e-07
8.59519e-07
8.82732e-07
8.11816e-07
5.79626e-07
4.85811e-07
9.33056e-07
8.13828e-08
1.84862e-07
3.94485e-07
3.95729e-07
3.96762e-07
3.97794e-07
3.98825e-07
3.99856e-07
4.00886e-07
4.01915e-07
4.02943e-07
4.03971e-07
4.04998e-07
4.06024e-07
4.07049e-07
4.08075e-07
4.09098e-07
4.10122e-07
4.11144e-07
4.12166e-07
4.13187e-07
4.14208e-07
4.15227e-07
4.16245e-07
4.17264e-07
4.18281e-07
4.19297e-07
4.20313e-07
4.21328e-07
4.22341e-07
4.23355e-07
4.24367e-07
4.25379e-07
4.2639e-07
4.274e-07
4.28408e-07
4.29417e-07
4.30424e-07
4.31431e-07
4.32437e-07
4.33442e-07
4.34446e-07
4.36222e-07
9.67386e-07
8.76535e-07
5.43364e-07
6.71539e-07
6.30872e-07
6.51748e-07
9.31753e-07
5.35263e-07
1.84558e-07
3.94484e-07
3.95729e-07
3.96762e-07
3.97794e-07
3.98825e-07
3.99856e-07
4.00886e-07
4.01915e-07
4.02943e-07
4.03971e-07
4.04998e-07
4.06024e-07
4.07049e-07
4.08075e-07
4.09098e-07
4.10122e-07
4.11144e-07
4.12166e-07
4.13187e-07
4.14208e-07
4.15227e-07
4.16245e-07
4.17264e-07
4.18281e-07
4.19297e-07
4.20313e-07
4.21328e-07
4.22341e-07
4.23355e-07
4.24367e-07
4.25379e-07
4.2639e-07
4.274e-07
4.28408e-07
4.29417e-07
4.30424e-07
4.31431e-07
4.32437e-07
4.33442e-07
4.34446e-07
4.36222e-07
9.49913e-07
9.25676e-07
8.38456e-07
7.81835e-07
8.53535e-07
6.51825e-07
9.31509e-07
7.67606e-07
1.84556e-07
3.94484e-07
3.95729e-07
3.96762e-07
3.97794e-07
3.98825e-07
3.99856e-07
4.00886e-07
4.01915e-07
4.02943e-07
4.03971e-07
4.04998e-07
4.06024e-07
4.07049e-07
4.08075e-07
4.09098e-07
4.10122e-07
4.11144e-07
4.12166e-07
4.13187e-07
4.14208e-07
4.15227e-07
4.16245e-07
4.17264e-07
4.18281e-07
4.19297e-07
4.20313e-07
4.21328e-07
4.22341e-07
4.23355e-07
4.24367e-07
4.25379e-07
4.2639e-07
4.274e-07
4.28408e-07
4.29417e-07
4.30424e-07
4.31431e-07
4.32437e-07
4.33442e-07
4.34446e-07
4.36222e-07
8.61691e-07
7.55241e-07
5.06865e-07
8.28049e-07
5.58857e-07
7.05464e-07
9.3083e-07
3.19146e-07
1.84559e-07
3.94485e-07
3.95729e-07
3.96762e-07
3.97794e-07
3.98826e-07
3.99856e-07
4.00886e-07
4.01915e-07
4.02943e-07
4.03971e-07
4.04998e-07
4.06024e-07
4.07049e-07
4.08075e-07
4.09098e-07
4.10122e-07
4.11145e-07
4.12166e-07
4.13187e-07
4.14208e-07
4.15227e-07
4.16245e-07
4.17264e-07
4.18281e-07
4.19297e-07
4.20313e-07
4.21328e-07
4.22341e-07
4.23355e-07
4.24367e-07
4.25379e-07
4.2639e-07
4.274e-07
4.28408e-07
4.29417e-07
4.30424e-07
4.31431e-07
4.32437e-07
4.33442e-07
4.34446e-07
4.36222e-07
9.23641e-07
8.09729e-07
7.96451e-07
8.08981e-07
6.02475e-07
7.00092e-07
9.31438e-07
6.21943e-08
3.93318e-07
3.94696e-07
3.9573e-07
3.96762e-07
3.97794e-07
3.98826e-07
3.99856e-07
4.00886e-07
4.01915e-07
4.02943e-07
4.03971e-07
4.04998e-07
4.06024e-07
4.07049e-07
4.08075e-07
4.09098e-07
4.10122e-07
4.11144e-07
4.12166e-07
4.13187e-07
4.14208e-07
4.15227e-07
4.16245e-07
4.17264e-07
4.18281e-07
4.19297e-07
4.20313e-07
4.21328e-07
4.22341e-07
4.23355e-07
4.24367e-07
4.25379e-07
4.2639e-07
4.274e-07
4.28408e-07
4.29417e-07
4.30424e-07
4.31431e-07
4.32437e-07
4.33442e-07
4.34446e-07
4.36222e-07
9.62214e-07
8.99956e-07
3.849e-07
6.61893e-07
4.68521e-07
5.95374e-07
7.74323e-07
1.83845e-07
3.93454e-07
3.94697e-07
3.9573e-07
3.96763e-07
3.97794e-07
3.98826e-07
3.99856e-07
4.00886e-07
4.01915e-07
4.02943e-07
4.03971e-07
4.04998e-07
4.06024e-07
4.07049e-07
4.08075e-07
4.09098e-07
4.10122e-07
4.11144e-07
4.12166e-07
4.13187e-07
4.14208e-07
4.15227e-07
4.16245e-07
4.17264e-07
4.18281e-07
4.19297e-07
4.20313e-07
4.21328e-07
4.22341e-07
4.23355e-07
4.24367e-07
4.25379e-07
4.2639e-07
4.274e-07
4.28408e-07
4.29417e-07
4.30424e-07
4.31431e-07
4.32437e-07
4.33442e-07
4.34446e-07
4.36222e-07
9.64768e-07
9.69018e-07
8.97359e-07
8.49485e-07
4.91564e-07
7.55432e-07
7.69272e-07
1.83954e-07
3.93454e-07
3.94697e-07
3.9573e-07
3.96763e-07
3.97794e-07
3.98826e-07
3.99856e-07
4.00886e-07
4.01915e-07
4.02943e-07
4.03971e-07
4.04998e-07
4.06024e-07
4.07049e-07
4.08075e-07
4.09098e-07
4.10122e-07
4.11144e-07
4.12166e-07
4.13187e-07
4.14208e-07
4.15227e-07
4.16245e-07
4.17264e-07
4.18281e-07
4.19297e-07
4.20313e-07
4.21328e-07
4.22341e-07
4.23355e-07
4.24367e-07
4.25379e-07
4.2639e-07
4.274e-07
4.28408e-07
4.29417e-07
4.30424e-07
4.31431e-07
4.32437e-07
4.33442e-07
4.34446e-07
4.36222e-07
6.99781e-07
6.79585e-07
6.98805e-07
7.41785e-07
7.73314e-07
7.17169e-07
7.72051e-07
6.98762e-07
6.72673e-07
7.00957e-07
7.43896e-07
7.73577e-07
6.94411e-07
7.75894e-07
7.00955e-07
5.6146e-07
7.00257e-07
7.42821e-07
7.76062e-07
6.38722e-07
7.77234e-07
7.00924e-07
6.88437e-07
6.98757e-07
4.96706e-07
7.76611e-07
7.38191e-07
7.68725e-07
6.97315e-07
4.61282e-07
6.99715e-07
6.69566e-07
7.70863e-07
4.57889e-07
7.72223e-07
6.99971e-07
5.5731e-07
6.99293e-07
6.55451e-07
7.76777e-07
5.78341e-07
7.73606e-07
6.9855e-07
6.70801e-07
6.99754e-07
7.52766e-07
7.67214e-07
6.06684e-07
7.74936e-07
7.00352e-07
6.43904e-07
6.99812e-07
7.38805e-07
7.75997e-07
5.57348e-07
7.73298e-07
7.00074e-07
6.70245e-07
6.99641e-07
6.59514e-07
7.73237e-07
7.18244e-07
7.74717e-07
7.00448e-07
6.70236e-07
6.99599e-07
7.63862e-07
7.74089e-07
6.24674e-07
7.74419e-07
7.71778e-07
6.92482e-07
7.72897e-07
7.19347e-07
7.72828e-07
6.71419e-07
7.73756e-07
7.73169e-07
6.5613e-07
7.76229e-07
6.40804e-07
7.74029e-07
5.82124e-07
7.76328e-07
7.75163e-07
6.3236e-07
7.76761e-07
7.58251e-07
7.74419e-07
6.0496e-07
7.76161e-07
7.76333e-07
7.42518e-07
7.66212e-07
4.90426e-07
7.76928e-07
7.50285e-07
7.71385e-07
7.7137e-07
4.55247e-07
7.69539e-07
6.40576e-07
7.71943e-07
4.12083e-07
7.71342e-07
7.76201e-07
5.23602e-07
7.73028e-07
6.61764e-07
7.76204e-07
5.25061e-07
7.76088e-07
7.6851e-07
6.21274e-07
7.76406e-07
6.75806e-07
7.7092e-07
6.14003e-07
7.74355e-07
7.75374e-07
5.64994e-07
7.72704e-07
6.98249e-07
7.76087e-07
5.62913e-07
7.73406e-07
7.72982e-07
7.31492e-07
7.73027e-07
5.395e-07
7.73746e-07
7.30887e-07
7.69796e-07
7.7409e-07
6.24628e-07
7.74244e-07
7.49237e-07
7.73847e-07
6.29366e-07
7.73615e-07
7.73266e-07
6.83473e-07
7.73216e-07
6.05822e-07
6.99827e-07
6.85117e-07
6.9891e-07
7.74514e-07
6.023e-07
7.76742e-07
5.13061e-07
6.99634e-07
6.40185e-07
7.00968e-07
7.75059e-07
6.36019e-07
7.77106e-07
6.72222e-07
7.00878e-07
6.23303e-07
6.99814e-07
7.75935e-07
7.29925e-07
7.70127e-07
5.3279e-07
6.99173e-07
6.52554e-07
6.99452e-07
7.72281e-07
4.08396e-07
7.72192e-07
6.71833e-07
6.98857e-07
3.20223e-07
6.99294e-07
7.76065e-07
5.57677e-07
7.75099e-07
6.56447e-07
7.00066e-07
4.45367e-07
6.99403e-07
7.67368e-07
6.34936e-07
7.72158e-07
6.75821e-07
6.97563e-07
6.81142e-07
6.9746e-07
7.74825e-07
5.97775e-07
7.7398e-07
6.78364e-07
6.99807e-07
5.29533e-07
6.99871e-07
7.74093e-07
6.84477e-07
7.69543e-07
6.61969e-07
7.00139e-07
6.84174e-07
6.97892e-07
7.74062e-07
6.3271e-07
7.74122e-07
6.96854e-07
7.00522e-07
6.09252e-07
7.00109e-07
8.90656e-07
8.63889e-07
8.66446e-07
7.87062e-07
8.74454e-07
8.75717e-07
8.85102e-07
7.4941e-07
6.96868e-07
5.69481e-07
7.44932e-07
6.32827e-07
6.73724e-07
7.70769e-07
3.52761e-08
6.24768e-07
3.52761e-08
3.44451e-07
5.19794e-08
7.66594e-07
5.19789e-08
8.817e-07
6.98519e-07
7.7085e-07
9.02674e-07
8.97458e-07
8.73808e-07
8.47342e-07
7.39179e-07
6.90853e-07
6.30765e-07
7.65379e-07
7.61317e-07
6.51146e-07
6.84548e-07
3.52766e-08
7.01352e-07
3.53351e-08
7.6866e-07
5.19807e-08
7.76898e-07
5.24528e-08
5.7519e-07
6.41013e-07
2.24039e-07
8.71558e-07
7.01682e-07
5.79556e-07
2.46698e-07
7.66187e-07
6.96028e-07
6.49356e-07
7.08009e-07
7.72127e-07
6.71262e-07
6.94798e-07
3.84797e-08
9.03131e-07
1.77095e-07
7.77531e-07
5.69601e-08
9.32209e-07
2.44623e-07
1.39417e-07
8.82084e-07
8.88584e-07
8.7009e-07
1.70208e-07
8.192e-07
8.30768e-07
7.3204e-07
6.75688e-07
2.6741e-07
5.26725e-07
7.6001e-07
3.55934e-07
6.88267e-07
6.84563e-07
9.01899e-07
7.00653e-07
9.33281e-07
7.09815e-07
9.31198e-07
7.74625e-07
6.55254e-07
6.11622e-07
1.85575e-07
7.69999e-07
4.54796e-07
4.17463e-07
2.64493e-07
7.49321e-07
6.95658e-07
6.37961e-07
6.8757e-07
7.663e-07
6.49103e-07
6.87875e-07
9.02666e-07
9.02308e-07
9.02995e-07
9.32052e-07
9.31988e-07
9.31392e-07
9.32081e-07
3.1465e-07
3.78261e-07
1.29752e-07
4.82578e-07
3.2309e-07
4.76676e-07
1.83089e-07
7.62838e-07
6.99451e-07
6.85164e-07
6.46199e-07
7.73153e-07
7.54135e-07
6.9469e-07
9.02944e-07
9.02544e-07
9.02843e-07
9.31585e-07
9.32008e-07
9.31754e-07
9.3176e-07
5.06503e-07
3.5281e-07
2.45179e-07
5.68039e-07
5.11262e-07
7.0394e-07
5.1266e-07
7.58032e-07
6.97932e-07
6.00692e-07
7.66656e-07
7.70443e-07
7.0046e-07
6.92314e-07
6.9996e-07
9.02811e-07
6.91293e-07
9.2993e-07
7.74596e-07
9.32023e-07
7.65088e-07
6.48872e-07
5.53612e-07
7.99414e-07
3.89448e-07
8.20615e-07
7.00343e-07
7.5119e-07
6.85795e-07
6.92961e-07
4.46805e-07
7.47525e-07
7.63444e-07
4.54143e-07
5.75743e-07
2.21053e-07
6.99431e-07
4.17478e-08
9.31489e-07
2.94743e-07
7.7297e-07
6.22526e-08
8.29672e-07
7.55216e-07
8.19344e-07
3.3121e-07
8.38264e-07
2.28882e-07
8.3285e-07
6.5929e-07
6.79089e-07
4.13842e-07
6.58509e-07
7.48345e-07
6.04946e-07
5.89055e-07
3.639e-08
6.95849e-07
3.5212e-08
7.73836e-07
5.4023e-08
7.7229e-07
5.19851e-08
8.82662e-07
8.47038e-07
8.78049e-07
6.67885e-07
7.55649e-07
8.26578e-07
8.32917e-07
7.70372e-07
6.96685e-07
6.54173e-07
7.29052e-07
7.68002e-07
6.60511e-07
6.99809e-07
3.52766e-08
3.03151e-07
3.52761e-08
7.69448e-07
5.19809e-08
3.75471e-07
5.19794e-08
9.01351e-07
9.13273e-07
8.71373e-07
8.65229e-07
8.70678e-07
8.61849e-07
8.57145e-07
7.03027e-07
7.69121e-07
5.71928e-07
7.4127e-07
7.14329e-07
5.74133e-07
7.65906e-07
5.19789e-08
7.66763e-07
5.19784e-08
3.56447e-07
5.19789e-08
7.66797e-07
5.19785e-08
8.81016e-07
8.62344e-07
8.36636e-07
9.1639e-07
8.57872e-07
7.61444e-07
8.3723e-07
6.73924e-07
7.45622e-07
5.48989e-07
7.04049e-07
6.72604e-07
7.38948e-07
5.41993e-07
5.19803e-08
7.76863e-07
5.24917e-08
7.68985e-07
5.19805e-08
7.77289e-07
5.24925e-08
7.40429e-07
8.03097e-07
2.3647e-07
9.06897e-07
8.57433e-07
6.1009e-07
6.65655e-07
7.55782e-07
7.67079e-07
6.82919e-07
7.16609e-07
7.58483e-07
7.59556e-07
6.37293e-07
5.70276e-08
9.31529e-07
2.44943e-07
7.77106e-07
5.70309e-08
9.31688e-07
2.44888e-07
1.74044e-07
8.95851e-07
8.74485e-07
8.14277e-07
6.41892e-07
6.93378e-07
8.08858e-07
6.65465e-07
7.61381e-07
6.01224e-07
4.91476e-07
6.85406e-07
7.62519e-07
6.27921e-07
7.02403e-07
9.31806e-07
7.7448e-07
9.33328e-07
7.01673e-07
9.32016e-07
7.75532e-07
7.45857e-07
6.44244e-07
3.27223e-07
6.57125e-07
7.4376e-07
5.15133e-07
4.55284e-07
7.29011e-07
7.53987e-07
6.48766e-07
6.72194e-07
7.23356e-07
7.56347e-07
5.67088e-07
9.31979e-07
9.31308e-07
9.32402e-07
9.3225e-07
9.31848e-07
9.31353e-07
9.32279e-07
3.00596e-07
4.62259e-07
1.82929e-07
5.75976e-07
4.63092e-07
7.90428e-07
1.65595e-07
7.50739e-07
7.71244e-07
7.38866e-07
6.58047e-07
7.52068e-07
7.70834e-07
7.18368e-07
9.32027e-07
9.31411e-07
9.31596e-07
9.31462e-07
9.32249e-07
9.31606e-07
9.31571e-07
4.8474e-07
5.47663e-07
3.14862e-07
5.44249e-07
3.99548e-07
2.53412e-07
2.81206e-07
7.35231e-07
7.63245e-07
6.32145e-07
6.72622e-07
7.37693e-07
7.59499e-07
6.15784e-07
7.74582e-07
9.3157e-07
7.65146e-07
9.30976e-07
7.75389e-07
9.3166e-07
7.64745e-07
8.23615e-07
4.41768e-07
7.40262e-07
5.26803e-07
8.36503e-07
6.85927e-07
3.05761e-07
6.69709e-07
7.58226e-07
3.93657e-07
7.44072e-07
6.93099e-07
7.57535e-07
3.99134e-07
2.94784e-07
7.72387e-07
6.23269e-08
9.31054e-07
2.94637e-07
7.72573e-07
6.23161e-08
7.65038e-07
3.17876e-07
8.07722e-07
3.20819e-07
6.16272e-07
5.31698e-07
7.45542e-07
7.3082e-07
7.2404e-07
4.23201e-07
5.69885e-07
7.01869e-07
7.24239e-07
4.32248e-07
5.40839e-08
7.7213e-07
5.19847e-08
7.73994e-07
5.40852e-08
7.7156e-07
5.19847e-08
5.99223e-07
5.18151e-07
3.97281e-07
3.77904e-07
6.37362e-07
4.75963e-07
2.97943e-07
7.52631e-07
7.61044e-07
7.05011e-07
7.49294e-07
7.63149e-07
7.67571e-07
7.27559e-07
5.19806e-08
3.89925e-07
5.19789e-08
7.69035e-07
5.19806e-08
3.75128e-07
5.19789e-08
7.59978e-07
9.16822e-07
7.61899e-07
8.07169e-07
4.0176e-07
8.59555e-07
6.34424e-07
7.26398e-07
7.73137e-07
5.19227e-07
6.33736e-07
7.26505e-07
5.04315e-07
7.73043e-07
5.19793e-08
7.66748e-07
5.19789e-08
2.74161e-07
3.52762e-08
6.08101e-07
3.52761e-08
9.1996e-07
9.12229e-07
8.60905e-07
8.98335e-07
8.59771e-07
8.48179e-07
8.47141e-07
6.87894e-07
7.51294e-07
5.2319e-07
5.50919e-07
6.74362e-07
7.53059e-07
5.03466e-07
5.19807e-08
7.77244e-07
5.24544e-08
6.88463e-07
3.52554e-08
7.01519e-07
3.53342e-08
6.79653e-07
3.13938e-07
4.04172e-07
4.32581e-07
5.89549e-07
2.91619e-07
4.40262e-07
7.55549e-07
7.62717e-07
5.28584e-07
7.5244e-07
7.56976e-07
7.63058e-07
5.17778e-07
5.6967e-08
9.32074e-07
2.44576e-07
7.00507e-07
3.83692e-08
9.02756e-07
1.77045e-07
4.85509e-07
5.95937e-07
8.21542e-07
5.85019e-07
3.89155e-07
3.96141e-07
7.82065e-07
7.25108e-07
7.62945e-07
4.74614e-07
5.09347e-07
7.02991e-07
7.61443e-07
4.59147e-07
7.10179e-07
9.31775e-07
7.75247e-07
9.03634e-07
6.84161e-07
9.02343e-07
7.00661e-07
8.93265e-07
7.40939e-07
7.60922e-07
8.36523e-07
8.59235e-07
6.89746e-07
7.34517e-07
7.51459e-07
7.58009e-07
6.56807e-07
6.75057e-07
7.51932e-07
7.60806e-07
6.55413e-07
9.31719e-07
9.31378e-07
9.32036e-07
9.02717e-07
9.02686e-07
9.02312e-07
9.02975e-07
7.11168e-07
8.80559e-07
1.72752e-07
8.50592e-07
7.41381e-07
7.87791e-07
3.08553e-07
7.65678e-07
7.70952e-07
6.95325e-07
6.76053e-07
7.62306e-07
7.68819e-07
6.96873e-07
9.32275e-07
9.31862e-07
9.31761e-07
9.02261e-07
9.02982e-07
9.02621e-07
9.02792e-07
3.50158e-07
2.57521e-07
4.6476e-07
6.86339e-07
4.91236e-07
7.28814e-07
7.1373e-07
7.27401e-07
7.64537e-07
7.27955e-07
7.19502e-07
7.2427e-07
7.64761e-07
6.86713e-07
7.75344e-07
9.32138e-07
7.64833e-07
9.01952e-07
7.00053e-07
9.02684e-07
6.91299e-07
5.14613e-07
5.0037e-07
3.29531e-07
6.47798e-07
6.07336e-07
5.09289e-07
3.24271e-07
7.30904e-07
7.68992e-07
6.06028e-07
7.0499e-07
7.07006e-07
7.69567e-07
6.20345e-07
2.95134e-07
7.72995e-07
6.22388e-08
9.02938e-07
2.20513e-07
6.98333e-07
4.17515e-08
3.46819e-07
3.88859e-07
5.59631e-07
5.9988e-07
4.60709e-07
3.68825e-07
6.76304e-07
7.45388e-07
7.1811e-07
4.97671e-07
6.72707e-07
7.21658e-07
7.3522e-07
5.25748e-07
5.40253e-08
7.71837e-07
5.1985e-08
7.00995e-07
3.63187e-08
6.922e-07
3.52131e-08
6.02354e-07
4.34568e-07
2.98338e-07
6.50519e-07
6.68193e-07
6.94533e-07
1.73381e-07
7.64842e-07
7.6672e-07
7.11922e-07
7.44353e-07
7.61345e-07
7.7044e-07
6.81588e-07
5.19809e-08
3.76335e-07
5.19794e-08
6.82659e-07
3.52767e-08
3.0355e-07
3.52762e-08
7.722e-07
6.99925e-07
6.99806e-07
7.75728e-07
7.7513e-07
6.98375e-07
7.75086e-07
7.46477e-07
4.36729e-07
6.92701e-07
7.63546e-07
5.60063e-07
7.59175e-07
6.7058e-07
7.71253e-07
6.99675e-07
6.94905e-07
7.72707e-07
7.74553e-07
7.68049e-07
6.95878e-07
7.37702e-07
7.50494e-07
7.72041e-07
5.7951e-07
5.8967e-07
7.2616e-07
7.71588e-07
7.68743e-07
7.7453e-07
7.73055e-07
7.73166e-07
7.74007e-07
7.65565e-07
7.74263e-07
7.51934e-07
7.56605e-07
5.46604e-07
7.57639e-07
5.62747e-07
7.53731e-07
7.61603e-07
7.7011e-07
7.71545e-07
7.72431e-07
7.66063e-07
7.73263e-07
7.67236e-07
7.69224e-07
7.74994e-07
6.96694e-07
6.99816e-07
7.73813e-07
7.71321e-07
7.7563e-07
7.00342e-07
7.60292e-07
6.369e-07
6.93084e-07
6.98532e-07
6.867e-07
7.66853e-07
6.90448e-07
7.73146e-07
7.00428e-07
6.99331e-07
7.76976e-07
7.75957e-07
7.75135e-07
6.98961e-07
7.21172e-07
7.69998e-07
7.50446e-07
6.01227e-07
7.562e-07
6.34924e-07
7.0015e-07
7.73715e-07
7.74088e-07
7.7136e-07
7.75348e-07
7.71564e-07
7.74991e-07
7.71924e-07
7.60778e-07
6.57124e-07
5.78027e-07
7.6967e-07
6.23286e-07
7.67409e-07
7.55373e-07
7.6888e-07
7.76215e-07
7.73396e-07
7.75405e-07
7.74218e-07
7.75497e-07
7.70623e-07
7.73193e-07
6.9993e-07
7.00981e-07
7.77407e-07
7.74381e-07
7.77081e-07
6.99374e-07
6.80405e-07
4.5962e-07
6.9156e-07
6.67016e-07
6.17512e-07
7.61781e-07
6.01742e-07
7.68435e-07