/*--------------------------------*- C++ -*----------------------------------*\
| =========                 |                                                 |
| \\      /  F ield         | OpenFOAM: The Open Source CFD Toolbox           |
|  \\    /   O peration     | Version:  5.0                                   |
|   \\  /    A nd           | Web:      www.OpenFOAM.org                      |
|    \\/     M anipulation  |                                                 |
\*---------------------------------------------------------------------------*/
FoamFile
{
    version     2.0;
    format      ascii;
    class       volVectorField;
    location    "4.9";
    object      U;
}
// * * * * * * * * * * * * * * * * * * * * * * * * * * * * * * * * * * * * * //

dimensions      [0 1 -1 0 0 0 0];

internalField   nonuniform List<vector> 
8584
(
(0.000381648 0.00589684 1.04624e-05)
(0.000171376 0.0070421 0.000160262)
(-0.0066104 0.00270262 -0.000313747)
(0.000368294 -0.00721322 -0.000506714)
(0.00639455 0.00551102 9.02558e-05)
(0.00219425 -0.0110376 -0.000216385)
(0.00117574 0.000226537 1.18385e-06)
(0.000456473 8.63502e-06 9.71723e-08)
(0.000858005 4.23154e-06 -1.33071e-06)
(0.000805345 4.00404e-06 -4.71728e-07)
(0.000826347 2.20613e-06 2.07386e-07)
(0.000828015 1.43975e-06 1.09857e-08)
(0.000830935 8.55001e-07 1.76293e-09)
(0.000831694 6.09388e-07 7.0856e-08)
(0.000831559 3.64264e-07 5.14008e-08)
(0.000831051 2.40296e-07 1.53258e-08)
(0.00083016 1.0554e-07 5.28004e-08)
(0.000828954 8.75044e-08 5.19999e-08)
(0.000827587 1.65525e-07 3.44205e-08)
(0.000826133 -4.3786e-08 1.94731e-07)
(0.000824762 -7.87044e-08 5.58372e-08)
(0.00082319 -1.69075e-08 6.33775e-08)
(0.000821566 -1.76276e-08 1.52363e-08)
(0.000820071 4.9114e-08 4.63036e-08)
(0.000818502 1.79278e-07 5.02162e-08)
(0.000816989 3.85687e-07 2.48106e-08)
(0.000815569 3.55487e-07 5.74521e-08)
(0.00081416 1.69405e-07 4.9698e-08)
(0.000812418 3.24766e-07 7.00969e-08)
(0.000810803 -1.138e-07 7.4881e-08)
(0.000809193 -3.79083e-07 7.93554e-08)
(0.00080741 -4.67939e-07 4.17884e-08)
(0.00080604 -3.68847e-07 7.40326e-08)
(0.000805005 -4.76382e-08 6.30214e-08)
(0.000803725 8.14139e-08 4.58514e-08)
(0.000801966 2.02989e-07 4.50599e-08)
(0.000800047 3.09111e-08 7.0932e-08)
(0.000798202 2.1544e-07 4.2234e-08)
(0.000797329 5.40166e-07 9.54695e-08)
(0.00079624 1.76841e-07 7.65984e-08)
(0.000794431 5.25273e-08 2.89428e-08)
(0.000792918 -1.44154e-08 8.07581e-08)
(0.000791913 -3.70307e-07 6.427e-08)
(0.000790077 -4.76266e-07 -7.75306e-09)
(0.000788111 -2.02714e-07 4.97249e-08)
(0.000786977 -8.73353e-08 2.12129e-08)
(0.000785708 -1.15616e-07 5.95635e-08)
(0.000784391 -1.56618e-07 1.20454e-07)
(0.000782707 -3.97117e-07 4.33396e-08)
(0.000781083 -3.30172e-07 1.48641e-08)
(0.00336342 -0.00478737 0.000238747)
(0.00455792 0.000497042 0.000140262)
(0.00582382 0.00475256 0.000263027)
(-0.00627886 -0.0145324 0.000364902)
(0.00195102 -0.00290655 -3.89488e-05)
(0.00580529 -0.00217682 0.000404622)
(0.00088032 8.67933e-05 9.44009e-05)
(0.000422219 -8.70338e-06 -1.39662e-06)
(0.000862324 -2.03741e-05 -1.28006e-06)
(0.000808257 -8.62147e-06 -4.28501e-07)
(0.000827012 -7.51452e-06 1.46914e-07)
(0.000828974 -4.61445e-06 4.02013e-08)
(0.00083139 -3.15599e-06 5.58982e-08)
(0.000832058 -2.09768e-06 5.1284e-08)
(0.000831995 -1.36034e-06 5.19643e-08)
(0.000831241 -8.46711e-07 6.59822e-08)
(0.00083018 -5.68334e-07 5.32736e-08)
(0.000829253 -4.10301e-07 6.33081e-08)
(0.000827687 -2.18268e-07 1.04962e-07)
(0.000825985 -9.81334e-08 2.7401e-08)
(0.000824644 5.57786e-08 9.862e-08)
(0.000823115 -2.50895e-08 6.26932e-08)
(0.000821641 1.75707e-07 5.20393e-08)
(0.000820305 1.8305e-07 2.32375e-08)
(0.000818848 1.83848e-07 4.19294e-08)
(0.000817029 5.70209e-08 2.57902e-08)
(0.000815288 -2.34519e-08 2.92527e-08)
(0.000814008 -1.4101e-07 4.9675e-08)
(0.000812197 -4.81614e-07 1.25488e-07)
(0.000810301 -2.84836e-07 3.96875e-08)
(0.000809092 -2.05623e-07 -1.25922e-07)
(0.000807691 -2.16799e-09 2.45275e-08)
(0.000806568 5.87349e-07 1.37655e-07)
(0.000805244 5.58909e-07 6.69512e-08)
(0.00080349 1.70705e-07 4.69668e-08)
(0.000801898 -2.53781e-08 7.97884e-08)
(0.000800412 3.16712e-08 4.29288e-08)
(0.000799175 3.21629e-07 3.27598e-09)
(0.000797223 6.21048e-07 8.02819e-08)
(0.000795392 3.51926e-07 2.03547e-07)
(0.000794108 2.71331e-07 1.11694e-08)
(0.000792523 1.75333e-08 8.57453e-08)
(0.000790949 -2.15078e-07 -1.72355e-08)
(0.000790072 -5.55834e-07 1.54994e-07)
(0.00078895 -9.15242e-08 5.73232e-08)
(0.000787077 4.6349e-08 7.38894e-08)
(0.00078562 2.29265e-07 8.55129e-11)
(0.000784242 3.64491e-08 5.46656e-08)
(0.000782716 -9.8565e-08 -6.32215e-08)
(0.000781636 -1.62661e-07 1.10677e-07)
(-0.005846 -0.0019478 0.000269681)
(-0.00705505 0.00106916 0.000278757)
(-0.00637942 -0.000282625 -0.000206101)
(-0.0124676 -0.00744584 0.000842105)
(0.00797779 0.000182163 -0.000356769)
(0.00374548 -0.000832231 0.000135826)
(0.000955573 -0.000134366 1.93755e-05)
(0.000264799 -2.30675e-05 2.26842e-06)
(0.000859381 -6.29111e-05 -2.5072e-06)
(0.000821598 -9.04125e-06 -3.65149e-07)
(0.000831436 -1.5922e-05 5.79508e-08)
(0.000833521 -9.03967e-06 4.10425e-08)
(0.000834118 -6.26543e-06 4.54587e-08)
(0.000833963 -4.01387e-06 5.10564e-08)
(0.000833139 -2.5982e-06 5.1374e-08)
(0.000832051 -1.73499e-06 5.35764e-08)
(0.000830714 -1.08804e-06 5.63461e-08)
(0.000829397 -7.35948e-07 6.07618e-08)
(0.00082798 -9.3018e-07 -1.39177e-07)
(0.000826476 -4.78569e-07 4.04176e-08)
(0.000824853 -4.08309e-07 6.05337e-08)
(0.000823338 -1.85507e-07 4.97145e-08)
(0.000821824 -1.1219e-07 8.27427e-08)
(0.000820078 -9.51052e-08 1.93171e-08)
(0.000818342 -2.47562e-07 5.36778e-08)
(0.000816728 -2.10083e-07 9.48312e-08)
(0.000815321 -1.51163e-07 5.92257e-08)
(0.00081359 -8.32634e-08 5.61474e-08)
(0.000812242 -2.31984e-07 -1.64583e-07)
(0.000811152 3.78652e-07 -4.76701e-08)
(0.000809548 4.78715e-07 2.04256e-07)
(0.000808401 5.44139e-07 5.50579e-08)
(0.000806739 4.97193e-07 -1.93041e-08)
(0.00080448 1.67461e-07 3.88054e-09)
(0.000802992 -3.42116e-08 9.3323e-08)
(0.000801791 -1.26129e-08 4.03351e-08)
(0.000800479 -1.40575e-08 5.85021e-08)
(0.000798936 -7.13364e-08 5.40386e-08)
(0.000797362 -2.19915e-07 2.93259e-08)
(0.000795799 -5.96087e-10 6.25714e-08)
(0.000794011 -1.71093e-07 7.39314e-08)
(0.00079231 -2.58106e-08 4.40861e-08)
(0.000791199 3.70382e-07 1.07197e-07)
(0.000790234 5.50458e-07 8.87243e-08)
(0.000788867 2.6223e-07 6.01152e-08)
(0.000787379 2.23182e-07 5.45091e-08)
(0.000785697 4.07057e-07 7.72315e-08)
(0.000783982 4.38252e-07 8.22872e-08)
(0.000782463 2.39729e-07 -2.29574e-08)
(0.000781407 1.2282e-07 1.16979e-07)
(-0.000548506 -0.0013582 -0.000271298)
(-0.00102825 -5.47913e-05 0.000181725)
(0.00602324 0.00227533 0.000184215)
(0.00295963 0.012571 -0.000548891)
(0.00180034 0.0120991 0.000202851)
(-0.00227491 0.00221871 -1.15295e-05)
(0.000544732 0.000178412 -2.13978e-05)
(0.000472665 -0.000287448 3.68476e-05)
(0.00044367 -4.61364e-05 -8.92489e-07)
(0.000886843 -2.58073e-05 -9.93208e-07)
(0.000827265 -2.3839e-05 -4.42487e-07)
(0.000841153 -1.26006e-05 1.85506e-07)
(0.000837739 -7.98851e-06 4.09641e-08)
(0.000836686 -4.78256e-06 5.92285e-08)
(0.000834872 -2.92266e-06 5.10928e-08)
(0.000833147 -1.77868e-06 5.21544e-08)
(0.000831441 -1.12613e-06 4.89622e-08)
(0.000829459 -6.63022e-07 8.32633e-08)
(0.000828015 -5.31942e-07 6.26669e-08)
(0.000826643 -5.89199e-07 3.35138e-08)
(0.000825014 -4.60233e-07 -3.6017e-09)
(0.000823487 -2.49917e-07 5.14829e-08)
(0.000821755 -3.00124e-07 2.62671e-08)
(0.000820136 -2.09011e-07 -2.33061e-08)
(0.000818705 -1.46643e-07 1.78215e-08)
(0.00081715 1.34177e-07 3.36379e-08)
(0.000815447 2.65947e-07 6.41144e-08)
(0.000813908 4.09774e-07 6.35131e-08)
(0.000812773 7.41877e-07 3.92126e-09)
(0.000811187 4.66618e-07 4.49868e-08)
(0.000809293 3.42936e-07 5.3562e-08)
(0.000807709 4.97009e-07 2.39297e-08)
(0.000806093 -7.1993e-08 4.77135e-08)
(0.000804579 -3.80721e-08 5.70759e-08)
(0.000803264 2.06938e-07 3.05987e-08)
(0.000801923 1.32522e-07 4.40275e-08)
(0.000800338 1.81465e-08 4.11953e-08)
(0.000798918 -1.44988e-07 1.19541e-07)
(0.000797312 -3.17545e-07 2.17191e-08)
(0.000795454 -4.30202e-07 5.48995e-09)
(0.000794076 -2.27385e-07 5.72244e-08)
(0.000793199 1.97522e-07 1.91221e-07)
(0.000791666 4.38845e-07 1.3056e-07)
(0.000789932 2.89136e-07 6.07315e-08)
(0.000788537 6.49621e-08 2.76254e-08)
(0.000787254 1.92582e-08 4.40723e-08)
(0.000785885 7.18577e-09 7.27727e-08)
(0.00078403 2.8145e-07 4.48208e-08)
(0.000782317 1.45601e-07 4.85163e-08)
(0.000781182 2.3324e-07 1.70724e-07)
(0.00230589 0.00252588 -2.09619e-05)
(-0.000875474 -0.00730069 0.000227235)
(-0.00552641 0.00104027 0.000248632)
(-0.00376621 0.00784511 0.000248357)
(0.0176398 -0.00612918 0.00161533)
(0.00346277 -0.000534239 3.53181e-05)
(0.000118207 -0.000215072 4.94432e-06)
(0.0016439 0.000543616 4.60264e-05)
(0.000503243 -6.54445e-05 -1.3418e-06)
(0.000944778 -3.00406e-05 -1.68449e-06)
(0.000848149 -1.77775e-05 -6.74022e-07)
(0.000853482 -9.81698e-06 1.43463e-07)
(0.000843975 -5.70227e-06 5.29593e-08)
(0.000840348 -3.4228e-06 5.11158e-08)
(0.000836925 -2.10458e-06 1.62227e-08)
(0.000834316 -1.29574e-06 3.0866e-08)
(0.000832119 -8.06368e-07 5.02939e-08)
(0.000830147 -5.89525e-07 4.90737e-08)
(0.000828077 -1.12691e-07 8.11321e-08)
(0.000826571 -3.19495e-08 6.05863e-08)
(0.000825281 -2.00038e-07 6.89812e-08)
(0.000823542 -7.76817e-08 3.5994e-08)
(0.000821878 -1.04316e-08 5.67198e-08)
(0.000820272 6.8323e-08 1.02969e-07)
(0.000818772 1.52221e-07 7.05917e-08)
(0.000817243 1.00819e-07 5.59816e-08)
(0.000815663 2.15104e-07 6.75199e-08)
(0.000814179 3.23515e-07 2.36281e-08)
(0.000812306 4.65581e-07 2.22537e-08)
(0.000810646 2.5284e-07 2.39547e-08)
(0.00080958 1.28204e-07 5.70435e-08)
(0.000807877 -2.03717e-07 5.38036e-08)
(0.000806067 6.24766e-08 2.84706e-08)
(0.000804827 6.26e-08 5.00872e-08)
(0.000803204 1.71405e-07 1.03514e-07)
(0.000801554 -2.2775e-08 4.92519e-08)
(0.000800132 -1.00721e-07 -6.32782e-08)
(0.000798518 -1.68764e-07 5.96209e-08)
(0.000797009 -2.45582e-07 5.14551e-08)
(0.000795915 -3.33217e-07 9.47654e-08)
(0.000794796 4.18834e-08 4.5898e-08)
(0.00079314 4.48088e-08 1.1257e-07)
(0.00079131 -1.29166e-07 5.38072e-09)
(0.000789764 -5.92758e-08 1.12613e-07)
(0.000788528 -1.21391e-07 5.43447e-08)
(0.000787306 -2.30129e-07 5.11391e-08)
(0.000786024 -5.3374e-07 1.31113e-08)
(0.000784154 -8.5316e-07 -1.38825e-08)
(0.000782397 -3.29613e-07 5.9438e-08)
(0.000780936 2.99538e-08 5.784e-08)
(0.00225221 0.000987549 0.000316527)
(0.00220386 0.00048654 -7.04789e-05)
(0.00446682 0.000742736 0.000154524)
(0.00132246 0.0101985 0.000804053)
(0.00838503 -0.000265072 0.000587741)
(0.000886053 0.000934842 -9.08815e-05)
(0.00101213 -0.000121197 -2.10082e-05)
(0.00268056 -7.4532e-06 0.000111309)
(0.000565416 2.38048e-05 6.65766e-08)
(0.000950314 7.67342e-06 -1.53675e-06)
(0.000852498 3.85814e-06 -6.43266e-07)
(0.000856355 1.01499e-06 1.50479e-07)
(0.000845795 3.65604e-07 5.70575e-08)
(0.00084122 4.45008e-09 5.05964e-08)
(0.000837553 -7.2728e-08 1.19902e-07)
(0.000834784 -7.99585e-08 1.02596e-07)
(0.000832333 -1.89689e-08 5.26904e-08)
(0.000830331 7.56154e-08 6.88237e-08)
(0.000828715 2.13429e-08 7.94818e-08)
(0.000826535 4.10606e-07 6.21249e-08)
(0.000824957 4.66456e-07 1.06715e-07)
(0.000823725 1.81345e-07 4.85523e-08)
(0.000821938 1.62138e-07 1.64106e-07)
(0.000820339 1.03565e-07 6.58304e-08)
(0.000818745 9.93713e-08 6.42257e-08)
(0.000817228 -6.19587e-08 7.54445e-08)
(0.000815724 -8.23185e-08 4.27007e-08)
(0.000814218 -1.49849e-07 -1.48384e-08)
(0.000812681 1.35216e-07 2.89127e-08)
(0.000810762 -1.09205e-07 -6.146e-08)
(0.000808722 -2.4252e-07 2.20463e-08)
(0.000807626 -3.71518e-07 -2.86387e-08)
(0.000806425 -2.69515e-07 1.95319e-08)
(0.000804713 -1.96345e-07 5.44705e-08)
(0.000803157 -2.86143e-07 -5.18266e-08)
(0.000801583 -1.10393e-07 4.93483e-08)
(0.000800157 -8.57476e-08 1.45124e-08)
(0.000798739 -3.78301e-08 6.21282e-08)
(0.000797109 1.28617e-07 7.05776e-08)
(0.000795815 1.94856e-07 6.17119e-08)
(0.00079455 5.81838e-08 4.0477e-08)
(0.000792986 -6.56103e-08 3.38193e-08)
(0.000791537 -1.52734e-07 5.48269e-08)
(0.000789944 -8.48284e-08 9.57979e-09)
(0.000788325 -7.87758e-08 1.8875e-07)
(0.000786742 -2.03079e-07 4.7299e-08)
(0.000785111 -5.27028e-07 -6.41723e-08)
(0.00078429 -7.1727e-07 7.22031e-08)
(0.000783423 -4.76638e-07 9.18055e-08)
(0.000781558 -3.20939e-07 1.24267e-07)
(0.0108072 -0.00157207 -0.000646649)
(-0.00160467 0.00544754 0.00327754)
(-0.0132116 -0.0155162 0.00189038)
(0.00646268 -0.0058228 -5.75364e-05)
(0.00494065 -0.0124192 0.000411606)
(-0.00190606 0.00314222 0.000223698)
(-0.00116576 -0.000853292 1.83119e-06)
(0.00156754 -0.000196224 7.28261e-06)
(0.000503716 3.14877e-05 6.75645e-07)
(0.000907775 1.04444e-05 -1.16292e-06)
(0.000840109 1.44811e-05 -4.10617e-07)
(0.000849096 6.95746e-06 1.8614e-07)
(0.000842704 4.39504e-06 4.21148e-08)
(0.000839797 2.63998e-06 6.05669e-08)
(0.000836819 1.66573e-06 5.34709e-08)
(0.000834384 1.07003e-06 5.41655e-08)
(0.000832314 7.49843e-07 5.17155e-08)
(0.000830197 6.03357e-07 3.97012e-08)
(0.000828495 3.83577e-07 5.06666e-08)
(0.000827126 1.65461e-07 6.4037e-08)
(0.000824992 4.80963e-07 3.37641e-09)
(0.00082316 2.17531e-07 4.85399e-08)
(0.000821779 2.01536e-07 -1.83067e-08)
(0.000820193 8.8575e-08 4.86355e-08)
(0.000818565 8.30687e-08 6.83782e-09)
(0.000817017 -5.81794e-09 4.09228e-08)
(0.000815554 -1.483e-07 5.61122e-08)
(0.000814452 -3.27801e-07 4.59742e-08)
(0.000812359 -1.02828e-06 -7.24673e-08)
(0.000810176 -9.43467e-07 9.04266e-08)
(0.000809256 -5.44226e-07 -7.66311e-08)
(0.000807848 -9.01002e-08 1.96431e-07)
(0.000806289 -1.22985e-07 4.45227e-08)
(0.000804809 -1.15528e-07 6.86736e-08)
(0.000803313 -1.02063e-07 5.69426e-08)
(0.000801806 -7.84818e-09 1.25949e-07)
(0.000800224 1.58267e-08 5.04186e-08)
(0.000798786 1.06593e-07 4.77168e-08)
(0.000797299 1.29879e-07 2.95706e-08)
(0.000795826 4.26247e-07 1.4335e-08)
(0.00079447 1.89448e-07 4.19981e-08)
(0.000792877 1.38391e-07 1.87383e-08)
(0.000791287 4.93924e-08 6.9654e-08)
(0.000789857 -1.92964e-08 4.39683e-08)
(0.000788382 -2.85134e-09 6.25821e-09)
(0.000786749 2.13484e-08 5.07393e-08)
(0.000785385 -9.10189e-09 9.94699e-08)
(0.000784223 1.4691e-07 3.34593e-08)
(0.000782902 -2.25895e-07 6.10911e-08)
(0.000781931 -2.98836e-07 6.67221e-08)
(-0.00606222 0.000624942 5.53094e-06)
(0.0100812 -0.00867444 0.000602309)
(-0.0354128 -0.054432 0.00154672)
(-0.010217 -0.0174918 0.00190909)
(-0.0233099 -0.0253605 -0.0045834)
(0.0226278 -0.00128585 0.000319769)
(0.00220778 -0.000186471 0.000121976)
(0.000474032 0.000206756 4.52999e-05)
(0.000903524 7.29413e-05 -1.82414e-06)
(0.000849227 9.83749e-06 -2.80683e-07)
(0.000848069 1.62416e-05 7.81965e-08)
(0.000843656 9.18105e-06 4.68832e-08)
(0.000840347 6.29973e-06 5.17027e-08)
(0.000837778 3.98113e-06 5.30887e-08)
(0.000835572 2.52695e-06 5.32259e-08)
(0.000833627 1.57405e-06 5.34185e-08)
(0.000831741 9.93854e-07 1.12948e-07)
(0.000829868 6.61443e-07 5.91846e-08)
(0.000828164 6.62378e-07 9.20261e-08)
(0.000826654 2.8695e-07 3.98e-08)
(0.00082502 -1.52943e-08 5.0815e-08)
(0.000823374 7.82537e-08 6.36182e-08)
(0.000821776 -5.46455e-08 4.01095e-08)
(0.000820191 -4.35099e-08 4.96012e-08)
(0.000818627 -2.13579e-07 5.84798e-08)
(0.000816939 -1.14733e-07 -1.10977e-07)
(0.000815323 1.71282e-08 3.55031e-08)
(0.000813123 -1.84151e-07 4.5115e-08)
(0.000811918 -5.20469e-07 1.88109e-07)
(0.000811375 1.40803e-08 -1.97012e-10)
(0.000809793 2.16931e-07 1.25781e-07)
(0.000808155 7.97111e-08 6.28869e-08)
(0.000806395 1.27677e-07 2.19194e-08)
(0.000804741 9.0456e-08 4.78822e-08)
(0.000803292 6.1389e-08 4.22243e-08)
(0.000801731 -7.70409e-08 2.1192e-08)
(0.0008003 -2.01009e-07 5.86581e-08)
(0.00079888 -6.88231e-08 5.34676e-08)
(0.000797507 5.60091e-08 4.47606e-08)
(0.000795887 9.90903e-08 7.808e-08)
(0.000794188 4.1565e-08 3.09694e-08)
(0.00079281 4.9379e-08 4.189e-08)
(0.00079134 4.31088e-08 5.59019e-08)
(0.000789879 8.95615e-08 5.02647e-08)
(0.000788377 5.20941e-08 5.26047e-08)
(0.000786735 1.18332e-07 4.86752e-08)
(0.000785269 4.91594e-07 4.24085e-08)
(0.00078402 3.34198e-07 5.4557e-08)
(0.000782874 1.8717e-07 -9.97123e-09)
(0.000782214 -4.09818e-08 5.42455e-08)
(0.0092914 0.00157653 -0.000338033)
(0.00623822 -0.00737451 0.000240366)
(-0.010524 0.0101844 -0.000310174)
(0.00162953 0.0028848 0.000264126)
(0.00744568 -0.00889741 0.000270929)
(0.000224459 0.00490569 -0.000109561)
(0.000337285 -0.000397464 1.45319e-05)
(0.000496021 4.51038e-05 2.28983e-06)
(0.000894205 4.72802e-05 -1.5495e-06)
(0.000827285 2.45868e-05 -1.8983e-07)
(0.000839112 1.70118e-05 1.525e-07)
(0.000836556 1.04594e-05 4.76521e-08)
(0.000836136 6.71764e-06 6.08943e-08)
(0.000835036 4.18729e-06 5.57588e-08)
(0.000833782 2.67279e-06 5.64118e-08)
(0.000832449 1.7204e-06 1.55146e-07)
(0.000831162 1.03903e-06 1.07916e-07)
(0.000829775 6.34612e-07 7.30915e-08)
(0.000828022 4.93768e-07 -5.41236e-09)
(0.000826275 3.88844e-07 8.17866e-08)
(0.00082473 2.06088e-07 4.94457e-08)
(0.000823111 6.25658e-08 4.25854e-08)
(0.000821628 -6.12872e-08 -1.64529e-08)
(0.000819996 -1.10907e-07 5.45911e-08)
(0.000818478 -1.67005e-07 3.87868e-08)
(0.000817307 -2.70605e-07 3.63792e-08)
(0.000815469 -2.71128e-07 7.19718e-08)
(0.000813783 -8.18548e-08 6.07836e-08)
(0.000812608 4.69915e-07 9.16975e-08)
(0.000811098 4.25774e-07 8.21197e-08)
(0.000809337 3.1639e-07 -3.06744e-08)
(0.000807734 2.17617e-07 1.37812e-07)
(0.000806302 -6.78376e-08 8.61813e-08)
(0.000804725 -6.68946e-08 1.49757e-08)
(0.000803104 -1.16544e-07 2.94262e-08)
(0.000801479 -1.59753e-07 7.42346e-08)
(0.000800235 6.80406e-08 1.11077e-07)
(0.000799107 -8.19323e-08 4.89832e-08)
(0.000797508 -2.04548e-07 9.72993e-08)
(0.000795807 -2.69275e-07 4.02315e-08)
(0.000794408 -1.12765e-07 5.83101e-08)
(0.000792879 -1.42974e-07 3.94481e-09)
(0.000791337 7.96998e-08 4.37464e-08)
(0.000789868 4.38043e-09 3.99621e-08)
(0.000788417 6.47254e-08 5.94438e-08)
(0.000787296 7.29334e-08 5.9506e-09)
(0.000785652 2.51402e-07 2.17896e-08)
(0.000783839 4.24617e-07 4.08251e-08)
(0.000782432 7.12896e-07 -6.23425e-08)
(0.000781746 4.76233e-07 9.23739e-08)
(0.00588726 -0.00346381 -0.000689892)
(0.00464906 0.00491534 0.000281703)
(0.000358537 -0.00730845 7.60533e-05)
(-0.000211979 0.00209733 0.000339552)
(0.00755957 0.00104234 -0.00251144)
(0.00346089 -0.00196381 0.000271306)
(0.00120781 0.000264603 0.000113821)
(0.0004548 2.7359e-05 8.51586e-07)
(0.000864341 2.86852e-05 -1.42209e-06)
(0.00081102 1.7141e-05 -3.10492e-07)
(0.00083023 1.12544e-05 2.11065e-07)
(0.000830671 7.019e-06 2.23137e-07)
(0.000832434 4.47915e-06 9.86415e-08)
(0.000832675 2.89465e-06 -3.85963e-08)
(0.000832459 1.82877e-06 5.6105e-08)
(0.000831566 1.1313e-06 3.36151e-08)
(0.000830372 7.19577e-07 5.39133e-08)
(0.000829178 3.36264e-07 3.42972e-07)
(0.000827852 6.64889e-08 7.17063e-08)
(0.000826291 -1.02235e-08 5.74102e-08)
(0.00082461 -4.67075e-08 3.08129e-08)
(0.000823039 1.54079e-08 5.50961e-08)
(0.00082156 1.69244e-08 5.59093e-08)
(0.00082006 -3.40945e-08 4.96464e-08)
(0.00081843 7.70036e-08 6.07056e-08)
(0.000816812 -1.45056e-08 6.54193e-08)
(0.000815562 -1.77305e-07 1.45741e-07)
(0.00081405 6.52363e-08 5.31733e-08)
(0.000812551 1.2499e-07 2.57361e-08)
(0.00081118 -8.66567e-08 2.08731e-08)
(0.000809531 -1.11724e-07 1.10955e-07)
(0.000807674 -2.03034e-07 9.36666e-08)
(0.00080604 -3.73518e-07 6.09371e-08)
(0.000804681 -4.14948e-07 3.42456e-08)
(0.000803177 -1.52888e-07 4.05803e-08)
(0.000801962 8.02895e-08 7.07991e-08)
(0.000800398 2.36939e-07 -5.50957e-09)
(0.000798541 -6.99877e-08 4.97154e-08)
(0.000797275 -4.88129e-07 5.34253e-08)
(0.000796004 -2.15671e-07 6.12224e-08)
(0.000794348 -1.43696e-07 5.81539e-08)
(0.000793051 -1.98824e-07 9.25531e-08)
(0.000791525 -1.14141e-07 5.80089e-08)
(0.000789859 2.61965e-07 2.99565e-08)
(0.000788462 5.32438e-08 -3.51361e-09)
(0.000786966 1.91395e-08 4.58673e-08)
(0.000785704 -2.01016e-07 3.86204e-08)
(0.000784592 6.51726e-08 5.34151e-08)
(0.000782924 2.42432e-07 -3.50707e-08)
(0.000780729 2.91342e-07 6.67228e-08)
(0.000829785 0.00392487 8.88345e-05)
(0.00274321 0.0068419 0.000313153)
(0.00522375 -0.0063765 -0.000165646)
(-0.00990731 -0.00217774 -0.00155228)
(0.0126557 -0.00589639 0.000883459)
(0.00933832 0.00358045 -0.00286284)
(0.000827528 0.00119216 -7.39334e-05)
(0.00136325 1.0629e-05 -8.87811e-07)
(0.0014293 3.03236e-06 3.39293e-07)
(0.00134103 4.28429e-06 3.44484e-07)
(0.00137615 2.25109e-06 3.91415e-07)
(0.00137913 1.47968e-06 2.6374e-07)
(0.00138426 8.53118e-07 2.79639e-07)
(0.00138561 7.11837e-07 3.51756e-07)
(0.00138539 4.07224e-07 3.53895e-07)
(0.00138458 2.73638e-07 2.71053e-07)
(0.00138311 9.32003e-08 3.47003e-07)
(0.0013811 1.13774e-07 1.68147e-07)
(0.00137878 2.19408e-07 2.12512e-07)
(0.0013764 -1.18514e-07 5.38077e-07)
(0.00137415 -9.658e-08 3.26141e-07)
(0.00137147 6.02627e-08 3.89425e-07)
(0.00136876 5.49097e-08 3.08123e-07)
(0.00136632 1.26373e-07 2.9937e-07)
(0.00136372 3.8915e-07 3.21833e-07)
(0.00136115 7.21928e-07 2.72527e-07)
(0.00135883 6.47051e-07 2.79486e-07)
(0.00135659 2.93836e-07 3.4004e-07)
(0.00135359 5.32186e-07 4.74944e-07)
(0.00135081 -2.57733e-07 5.80576e-07)
(0.00134818 -7.54096e-07 3.7881e-07)
(0.00134518 -8.19851e-07 2.42768e-07)
(0.00134292 -5.82578e-07 3.36894e-07)
(0.00134129 -5.85482e-08 2.77323e-07)
(0.00133912 2.02592e-07 3.26347e-07)
(0.00133618 3.72287e-07 3.28353e-07)
(0.00133299 9.95908e-08 3.59177e-07)
(0.00132991 3.75926e-07 3.33135e-07)
(0.00132837 9.27022e-07 3.18496e-07)
(0.00132658 3.88919e-07 3.98009e-07)
(0.00132364 1.06152e-07 2.94432e-07)
(0.00132106 -2.0133e-08 3.44017e-07)
(0.00131941 -6.45263e-07 3.77479e-07)
(0.00131641 -7.28506e-07 1.92253e-07)
(0.0013132 -3.58165e-07 3.40797e-07)
(0.00131124 -2.05967e-07 3.37519e-07)
(0.00130903 -2.24263e-07 3.21587e-07)
(0.00130687 -3.17769e-07 4.12105e-07)
(0.00130402 -6.42174e-07 3.49601e-07)
(0.00130123 -5.32135e-07 2.37724e-07)
(0.00549072 -0.0102353 -0.000201615)
(0.0123585 -0.00575233 -2.58181e-05)
(0.00700043 0.000386382 0.000218677)
(0.00438779 -0.00709884 -6.20534e-05)
(0.0154428 0.000865942 -0.00232033)
(0.00933724 0.00291947 0.000932455)
(0.000279382 -6.00751e-05 0.000249841)
(0.00127077 -4.02385e-05 2.7103e-07)
(0.00143914 -3.77477e-05 4.21214e-07)
(0.00134759 -1.6645e-05 3.37945e-07)
(0.00137832 -1.39621e-05 3.44298e-07)
(0.00138141 -8.55474e-06 3.45058e-07)
(0.00138534 -5.78344e-06 3.4716e-07)
(0.00138639 -3.85721e-06 3.45997e-07)
(0.00138624 -2.49293e-06 3.46545e-07)
(0.00138497 -1.57674e-06 3.13916e-07)
(0.00138323 -1.05673e-06 3.45099e-07)
(0.00138163 -8.0078e-07 2.32646e-07)
(0.00137898 -4.33562e-07 4.49317e-07)
(0.00137619 -1.69431e-07 3.16713e-07)
(0.00137398 1.02269e-07 3.29103e-07)
(0.00137141 -2.46331e-08 3.80134e-07)
(0.00136889 3.75375e-07 3.2395e-07)
(0.00136672 3.9738e-07 2.74958e-07)
(0.00136431 3.71231e-07 1.83128e-07)
(0.00136124 1.6178e-07 2.85526e-07)
(0.00135833 5.54741e-08 3.06266e-07)
(0.00135614 -2.27365e-07 3.39747e-07)
(0.00135314 -9.0298e-07 4.78482e-07)
(0.00134998 -5.34138e-07 6.11157e-08)
(0.00134805 -3.93913e-07 6.4219e-08)
(0.00134583 -6.37385e-08 2.82842e-07)
(0.00134385 9.98088e-07 5.1055e-07)
(0.00134163 9.82345e-07 4.46566e-07)
(0.00133876 2.96059e-07 3.39984e-07)
(0.00133603 -1.4625e-08 3.89559e-07)
(0.00133354 7.91799e-08 3.2046e-07)
(0.00133148 5.43359e-07 7.60174e-08)
(0.0013283 1.03883e-06 4.22756e-07)
(0.00132522 6.55385e-07 4.87578e-07)
(0.00132301 4.28362e-07 2.76923e-07)
(0.00132039 1.1595e-08 3.61929e-07)
(0.00131785 -3.30972e-07 2.57635e-07)
(0.00131636 -9.17406e-07 4.90964e-07)
(0.00131439 -1.88654e-07 3.64343e-07)
(0.00131137 -2.74897e-08 3.44225e-07)
(0.00130898 3.32763e-07 2.22394e-07)
(0.00130664 1.67627e-08 3.15025e-07)
(0.00130407 -2.41759e-07 1.32493e-07)
(0.00130225 -3.00304e-07 4.13437e-07)
(-0.00931668 0.00100179 0.000682481)
(-0.00279248 0.00487085 8.40217e-05)
(-0.00416701 -0.00158864 -0.000199152)
(-0.0181655 0.00497342 0.00159709)
(0.00154954 -0.00230473 -0.00169296)
(0.00692565 0.00882756 0.0012256)
(0.00198009 0.000958131 -1.55351e-06)
(0.00133383 -0.000148032 1.20244e-05)
(0.00143511 -0.000107566 -4.43253e-07)
(0.00137107 -1.66043e-05 3.39957e-07)
(0.0013864 -2.74254e-05 3.46297e-07)
(0.00138946 -1.56511e-05 3.47344e-07)
(0.00139019 -1.08148e-05 3.47299e-07)
(0.00138976 -6.92987e-06 3.47822e-07)
(0.00138827 -4.47634e-06 3.47348e-07)
(0.00138639 -2.97937e-06 3.46734e-07)
(0.00138409 -1.8729e-06 3.47908e-07)
(0.00138189 -1.28725e-06 2.84115e-07)
(0.00137957 -1.56932e-06 6.63802e-08)
(0.00137707 -8.07827e-07 3.30983e-07)
(0.00137433 -6.71875e-07 3.59978e-07)
(0.00137181 -3.05814e-07 3.41624e-07)
(0.00136929 -1.5903e-07 3.81945e-07)
(0.00136631 -8.97803e-08 -3.95102e-08)
(0.00136342 -3.90103e-07 3.8914e-07)
(0.00136076 -3.01546e-07 3.91378e-07)
(0.00135835 -2.2377e-07 3.53972e-07)
(0.00135539 -8.57655e-08 3.32255e-07)
(0.00135321 -3.17516e-07 -5.82077e-08)
(0.00135145 7.06188e-07 2.21111e-07)
(0.00134878 9.25471e-07 5.44363e-07)
(0.00134692 9.6585e-07 4.80453e-07)
(0.00134423 8.01801e-07 1.98375e-07)
(0.0013404 3.17787e-07 1.843e-07)
(0.00133786 -6.17628e-08 3.78128e-07)
(0.0013359 -4.10324e-08 2.90316e-07)
(0.00133368 -7.09646e-09 2.89925e-07)
(0.00133111 -8.64985e-08 3.6174e-07)
(0.0013285 -3.29063e-07 3.17513e-07)
(0.00132581 -2.74104e-08 3.55731e-07)
(0.00132283 -2.44115e-07 3.7051e-07)
(0.00132011 1.90671e-08 3.48749e-07)
(0.00131826 6.79023e-07 3.55197e-07)
(0.00131659 9.4081e-07 3.83993e-07)
(0.00131432 5.40339e-07 1.31903e-07)
(0.00131189 4.51834e-07 3.2262e-07)
(0.00130909 6.97717e-07 4.03503e-07)
(0.00130616 6.97501e-07 3.43671e-07)
(0.00130363 3.7643e-07 2.35504e-07)
(0.00130191 1.98245e-07 5.12177e-07)
(0.000161428 0.000885298 0.0002703)
(-0.00135995 -0.00151122 -9.75538e-05)
(0.00971136 -0.000643789 0.00180892)
(-0.000749827 -0.000192962 -0.00176128)
(-0.0142032 0.025348 0.00112077)
(-0.0092698 0.00258997 -0.00103921)
(0.00249517 0.000162591 -5.78872e-05)
(0.00104814 4.05772e-05 3.93252e-05)
(0.00133865 -0.000139361 4.30822e-07)
(0.00148071 -4.34111e-05 6.76337e-07)
(0.00137997 -3.98384e-05 3.46985e-07)
(0.00140236 -2.10783e-05 3.50344e-07)
(0.00139636 -1.34084e-05 3.48517e-07)
(0.00139439 -8.01766e-06 3.4896e-07)
(0.00139123 -4.87663e-06 3.47739e-07)
(0.00138826 -2.95214e-06 3.46933e-07)
(0.00138537 -1.8758e-06 3.46932e-07)
(0.00138202 -1.06435e-06 3.54006e-07)
(0.00137959 -8.60237e-07 3.59753e-07)
(0.00137733 -9.41501e-07 3.16668e-07)
(0.00137461 -7.61297e-07 2.63029e-07)
(0.00137206 -4.30277e-07 3.4335e-07)
(0.00136916 -5.47069e-07 2.35969e-07)
(0.00136643 -3.81136e-07 2.86227e-07)
(0.00136404 -2.56169e-07 2.10505e-07)
(0.00136145 2.0075e-07 2.80118e-07)
(0.0013586 4.3469e-07 4.05887e-07)
(0.00135603 7.2943e-07 4.02937e-07)
(0.00135413 1.3649e-06 3.0022e-07)
(0.00135153 8.97528e-07 3.15196e-07)
(0.00134837 7.25918e-07 3.53339e-07)
(0.00134566 9.67919e-07 3.12592e-07)
(0.00134303 -1.36175e-08 3.44051e-07)
(0.00134055 -4.82152e-08 3.46358e-07)
(0.00133831 3.49171e-07 2.83516e-07)
(0.00133609 2.16166e-07 3.17079e-07)
(0.00133348 1.52167e-08 3.1446e-07)
(0.00133108 -2.4134e-07 4.31097e-07)
(0.00132838 -5.677e-07 2.11093e-07)
(0.00132533 -7.26624e-07 2.33424e-07)
(0.00132307 -3.24699e-07 3.13873e-07)
(0.00132154 3.76549e-07 6.53973e-07)
(0.001319 7.67381e-07 4.71678e-07)
(0.00131618 5.34595e-07 2.79277e-07)
(0.00131377 1.3097e-07 2.88839e-07)
(0.00131156 4.86497e-08 3.27315e-07)
(0.00130928 -1.09944e-08 3.71356e-07)
(0.00130623 4.06253e-07 3.17502e-07)
(0.00130343 2.6396e-07 3.57915e-07)
(0.00130153 3.9422e-07 5.54458e-07)
(0.00254582 -0.00670433 -0.000346277)
(0.00348007 -0.00121731 4.86273e-05)
(0.0164295 -0.00833413 0.000856888)
(0.0112751 0.0133227 -0.0118854)
(-0.00922482 -0.00666683 0.0159899)
(-0.00640346 0.00666106 -0.000474486)
(-0.00096058 -0.000441122 -8.67772e-05)
(0.000503952 -0.00245787 2.01528e-05)
(0.0015155 -0.00019354 2.72444e-07)
(0.00157683 -4.93345e-05 -1.60523e-08)
(0.00141466 -2.90344e-05 3.70253e-07)
(0.00142274 -1.60273e-05 3.27328e-07)
(0.00140666 -9.23616e-06 3.20135e-07)
(0.00140051 -5.56659e-06 3.49758e-07)
(0.00139465 -3.45289e-06 3.18964e-07)
(0.00139017 -2.13686e-06 3.33586e-07)
(0.00138647 -1.32947e-06 3.46787e-07)
(0.00138317 -9.88854e-07 3.42943e-07)
(0.00137973 -1.83189e-07 3.78875e-07)
(0.0013772 -6.11071e-08 2.62761e-07)
(0.00137498 -2.96022e-07 3.76252e-07)
(0.00137208 -1.34286e-07 3.20206e-07)
(0.00136935 -2.21601e-08 3.3694e-07)
(0.00136668 7.71594e-08 3.87889e-07)
(0.00136415 2.31882e-07 2.65716e-07)
(0.00136162 1.12505e-07 3.46738e-07)
(0.001359 3.21581e-07 3.92492e-07)
(0.00135655 5.09184e-07 2.90142e-07)
(0.00135341 7.70717e-07 3.01953e-07)
(0.00135064 4.60566e-07 3.09855e-07)
(0.00134885 2.34146e-07 3.64744e-07)
(0.00134599 -3.0858e-07 3.06818e-07)
(0.00134295 1.6999e-07 2.92687e-07)
(0.00134085 1.30323e-07 3.32501e-07)
(0.00133819 2.79782e-07 3.98629e-07)
(0.00133548 -4.01205e-08 3.34599e-07)
(0.00133311 -2.04179e-07 4.33158e-08)
(0.00133038 -3.16214e-07 3.06368e-07)
(0.0013279 -4.26776e-07 3.27328e-07)
(0.00132612 -5.36768e-07 2.25617e-07)
(0.00132422 5.11114e-08 3.20606e-07)
(0.00132147 4.36933e-08 3.96274e-07)
(0.00131845 -2.2519e-07 1.69372e-07)
(0.00131579 -1.44329e-07 3.80996e-07)
(0.0013137 -2.90541e-07 3.31098e-07)
(0.00131172 -4.31744e-07 3.26583e-07)
(0.00130954 -9.2285e-07 1.18111e-07)
(0.0013065 -1.36856e-06 2.81457e-07)
(0.00130361 -5.27554e-07 3.46303e-07)
(0.00130109 6.65943e-08 3.61023e-07)
(0.00332308 -0.000310487 -0.00147493)
(-0.0118402 -0.00090022 7.17358e-05)
(-0.00538114 0.00469729 -0.000110441)
(0.00600122 0.0180064 0.000415917)
(0.00509864 -0.00804031 0.00219527)
(-0.00185302 0.000756562 -5.30675e-05)
(0.00160253 0.000175173 3.47397e-06)
(-0.000167688 -4.64599e-05 4.51918e-05)
(0.00170072 7.75389e-05 1.50081e-06)
(0.00158519 1.4744e-05 2.98053e-07)
(0.00142145 7.63308e-06 3.25191e-07)
(0.00142729 2.43664e-06 3.46653e-07)
(0.00140954 1.13067e-06 4.16586e-07)
(0.00140168 3.09962e-07 3.5081e-07)
(0.00139555 3.52412e-08 4.8925e-07)
(0.00139094 -5.72723e-08 4.10643e-07)
(0.00138682 1.30082e-08 3.47359e-07)
(0.00138346 1.31718e-07 3.87771e-07)
(0.00138076 2.49519e-08 3.64941e-07)
(0.00137719 6.27136e-07 3.93218e-07)
(0.00137452 7.01478e-07 3.68827e-07)