/*--------------------------------*- C++ -*----------------------------------*\
| =========                 |                                                 |
| \\      /  F ield         | OpenFOAM: The Open Source CFD Toolbox           |
|  \\    /   O peration     | Version:  5.0                                   |
|   \\  /    A nd           | Web:      www.OpenFOAM.org                      |
|    \\/     M anipulation  |                                                 |
\*---------------------------------------------------------------------------*/
FoamFile
{
    version     2.0;
    format      ascii;
    class       volVectorField;
    location    "4.9";
    object      U_0;
}
// * * * * * * * * * * * * * * * * * * * * * * * * * * * * * * * * * * * * * //

dimensions      [0 1 -1 0 0 0 0];

internalField   nonuniform List<vector> 
8584
(
(0.00034043 0.00614093 1.331e-05)
(0.000365281 0.0071586 0.000168693)
(-0.00649182 0.00270728 -0.000322164)
(-0.000104908 -0.00659605 -0.000482034)
(0.00654815 0.00528019 6.32781e-05)
(0.00222773 -0.011434 -0.000210747)
(0.00132209 0.000203853 -6.09736e-06)
(0.000449418 -1.50981e-05 2.07103e-07)
(0.000851627 -1.89247e-05 -1.24224e-06)
(0.000799366 -1.01969e-05 -4.85894e-07)
(0.0008215 -6.41178e-06 2.21062e-07)
(0.000823755 -3.94237e-06 2.73152e-08)
(0.000827552 -2.45372e-06 9.61239e-09)
(0.000828509 -1.23894e-06 -1.0844e-07)
(0.000828402 -8.67913e-07 5.16179e-08)
(0.000828058 -6.25817e-07 4.50805e-09)
(0.00082724 -4.21367e-07 5.21355e-08)
(0.000826017 -9.78998e-08 6.9931e-08)
(0.000824271 -2.91073e-07 6.46348e-08)
(0.000823031 -3.5982e-07 1.33297e-07)
(0.000821938 -1.93774e-07 4.06542e-08)
(0.000820229 -2.34063e-08 6.89831e-08)
(0.00081864 2.99268e-10 6.64714e-08)
(0.000817161 -7.25507e-09 4.84921e-08)
(0.000815682 2.09921e-07 6.17855e-08)
(0.000813993 3.17328e-07 7.92309e-08)
(0.000812702 4.16608e-07 6.72671e-08)
(0.000811627 2.04259e-07 5.26749e-08)
(0.00080959 3.44814e-07 -1.86513e-08)
(0.000807765 -1.67421e-07 3.33401e-08)
(0.000806392 -5.53647e-07 -5.22517e-08)
(0.000804633 -4.61961e-07 9.61516e-09)
(0.00080324 -1.52841e-07 -4.22747e-08)
(0.000802277 -6.23723e-08 6.44046e-08)
(0.000800777 1.87383e-07 3.98763e-08)
(0.000799104 1.44928e-07 4.63954e-08)
(0.00079745 1.73161e-07 2.45471e-08)
(0.000795765 1.35509e-07 1.77001e-08)
(0.000794334 3.65895e-07 6.58969e-08)
(0.000793207 4.07715e-07 1.62599e-07)
(0.000791938 5.05816e-08 3.04521e-08)
(0.000790169 -6.83627e-08 5.82951e-08)
(0.00078906 -5.51882e-07 -5.66389e-08)
(0.000787656 -3.62491e-07 2.47168e-07)
(0.00078593 -2.61433e-07 8.56697e-08)
(0.000784534 -1.89329e-07 -5.89245e-08)
(0.000783065 -2.28101e-07 5.82562e-08)
(0.000781776 -4.59167e-07 4.33573e-08)
(0.000780046 -2.78652e-07 -1.79024e-08)
(0.000778192 -2.23186e-07 6.54877e-08)
(0.00337593 -0.00474367 0.00024345)
(0.00440133 0.000374441 0.000162397)
(0.00560657 0.0048612 0.000262077)
(-0.00643267 -0.0152731 0.000350797)
(0.0020391 -0.00300552 -7.52491e-05)
(0.00588959 -0.00239122 0.000430063)
(0.000918751 4.99292e-06 9.69382e-05)
(0.000433808 -3.19297e-05 -1.29521e-06)
(0.000872176 -4.13634e-05 -1.2725e-06)
(0.000811763 -2.13671e-05 -4.29147e-07)
(0.000828098 -1.55303e-05 1.47873e-07)
(0.000828452 -9.49556e-06 4.1925e-08)
(0.000829998 -6.1647e-06 5.73334e-08)
(0.000830064 -4.12472e-06 4.98619e-08)
(0.000829545 -2.58901e-06 5.19409e-08)
(0.000828662 -1.72533e-06 7.66615e-08)
(0.00082762 -1.11351e-06 5.40892e-08)
(0.000826207 -9.0632e-07 6.67386e-08)
(0.000824717 -4.29915e-07 7.60238e-08)
(0.000823356 -7.15852e-08 2.88851e-08)
(0.000821893 5.56678e-09 8.54707e-10)
(0.000820351 -3.66829e-09 6.00714e-08)
(0.000818658 2.84147e-07 8.94534e-08)
(0.000817399 3.24448e-07 2.08517e-07)
(0.000815968 2.1501e-07 6.07604e-08)
(0.000814363 9.86562e-08 1.61202e-07)
(0.000812586 2.3134e-07 2.56928e-08)
(0.000810891 -7.84773e-08 4.43966e-08)
(0.000809233 -5.85893e-07 1.6877e-09)
(0.000807375 -3.88383e-07 7.43029e-08)
(0.000806238 -4.17529e-07 1.37936e-07)
(0.000805253 -1.98734e-07 1.85794e-08)
(0.000803729 4.02318e-07 1.60298e-07)
(0.00080231 5.41724e-07 5.04238e-08)
(0.000800779 4.19598e-08 4.85326e-08)
(0.000798985 2.8842e-08 3.13424e-08)
(0.00079757 3.65507e-08 4.39694e-08)
(0.000796178 1.76759e-07 5.54601e-08)
(0.000794647 3.34225e-07 1.92509e-08)
(0.000792933 4.78027e-07 7.54205e-08)
(0.000791379 1.45872e-07 6.77274e-08)
(0.000789928 -1.7275e-08 2.82143e-08)
(0.000788603 -7.39004e-08 5.94743e-08)
(0.00078747 -3.59876e-07 4.19279e-09)
(0.000786019 -1.23277e-07 5.42476e-08)
(0.000784466 -1.56563e-07 5.8808e-08)
(0.000783076 -2.34099e-08 1.29558e-07)
(0.000781678 -1.76718e-07 4.73501e-08)
(0.000780028 -3.90511e-07 8.38044e-08)
(0.000779019 -2.5524e-07 2.66149e-08)
(-0.00594863 -0.00196967 0.000272041)
(-0.0072602 0.000931394 0.000280143)
(-0.00715244 -0.00022955 -0.000208239)
(-0.0125884 -0.00755514 0.000743455)
(0.00528143 0.00053162 -0.0001608)
(0.00393197 -0.00121909 0.000137499)
(0.00101133 -0.000163622 1.90369e-05)
(0.000279789 -3.26458e-05 2.20933e-06)
(0.000876852 -7.58414e-05 -2.5136e-06)
(0.000831866 -1.54635e-05 -3.63753e-07)
(0.000836441 -2.02216e-05 6.20578e-08)
(0.000835532 -1.17779e-05 4.45902e-08)
(0.00083431 -8.02669e-06 4.64357e-08)
(0.000833008 -5.13947e-06 5.20139e-08)
(0.00083142 -3.25667e-06 5.27069e-08)
(0.000829914 -2.06768e-06 5.59936e-08)
(0.000828272 -1.29217e-06 5.56928e-08)
(0.000826877 -8.79768e-07 4.67271e-08)
(0.000825318 -6.60067e-07 1.03799e-07)
(0.000823576 -3.21076e-07 4.31704e-08)
(0.000822022 -1.3891e-07 1.30427e-07)
(0.000820575 -6.40449e-08 4.83659e-08)
(0.000819048 -2.99555e-08 4.98641e-08)
(0.000817072 1.06894e-07 6.47318e-08)
(0.000815397 -5.99171e-08 5.28204e-08)
(0.000814011 -3.57273e-08 2.76979e-08)
(0.00081248 -2.2441e-07 5.29064e-08)
(0.000810607 -6.22226e-08 6.47463e-08)
(0.000809206 -2.29213e-08 1.07187e-07)
(0.00080798 4.65249e-07 9.22038e-08)
(0.000806632 7.48475e-07 9.1292e-08)
(0.000805658 6.57045e-07 6.35796e-08)
(0.000804163 2.94164e-07 2.85627e-07)
(0.000801822 2.73596e-07 1.34722e-07)
(0.000800133 -1.28139e-08 9.14246e-08)
(0.000799096 1.87194e-08 6.11552e-08)
(0.000797633 3.76865e-08 6.28394e-08)
(0.000796134 2.60725e-09 4.66913e-08)
(0.000794707 2.2017e-08 4.42966e-08)
(0.000792968 -6.3292e-08 8.15066e-08)
(0.000791317 4.30698e-08 3.76828e-08)
(0.000789894 1.4621e-07 -1.06366e-07)
(0.000788634 3.51113e-07 1.47761e-07)
(0.000787597 3.21044e-07 9.76897e-08)
(0.000786187 2.13677e-07 9.27409e-08)
(0.00078466 2.05141e-07 1.09371e-07)
(0.000783041 3.13046e-07 8.96415e-08)
(0.000781318 1.40271e-07 5.9627e-08)
(0.000779955 8.96623e-08 6.12239e-08)
(0.000778997 7.85797e-08 7.24002e-08)
(-0.000449766 -0.00147852 -0.000269159)
(-0.000730185 -7.12812e-05 0.000185026)
(0.00541163 0.00195367 0.000199523)
(0.00184965 0.0122332 -0.000588381)
(0.00103451 0.00881317 7.91142e-05)
(-0.00223465 0.00198338 -3.49547e-05)
(0.000588886 0.000252666 -2.24693e-05)
(0.000489459 -0.000290747 3.38277e-05)
(0.000457714 -4.65512e-05 -8.97234e-07)
(0.000898543 -2.45508e-05 -1.01636e-06)
(0.000832964 -2.32766e-05 -4.26282e-07)
(0.000843811 -1.22338e-05 1.82084e-07)
(0.000838368 -7.93836e-06 4.34031e-08)
(0.000836074 -4.70976e-06 5.97202e-08)
(0.000833416 -2.75645e-06 4.95498e-08)
(0.000831137 -1.62038e-06 5.0507e-08)
(0.000829118 -1.08094e-06 4.88628e-08)
(0.000827007 -5.72471e-07 1.81879e-08)
(0.000825421 -4.96082e-07 4.31e-08)
(0.000824012 -3.03232e-07 3.03633e-08)
(0.000822216 -2.3972e-07 6.82195e-08)
(0.000820488 -1.53676e-07 5.02317e-08)
(0.000818872 -2.98458e-07 3.03238e-08)
(0.000817361 -2.4115e-07 5.05692e-08)
(0.00081579 -5.62086e-08 2.27376e-08)
(0.000814158 1.30062e-07 3.15001e-08)
(0.000812553 1.91766e-07 6.77545e-08)
(0.000811144 3.11419e-07 8.20971e-08)
(0.00080989 7.77239e-07 6.87571e-08)
(0.000808336 5.65305e-07 3.84435e-08)
(0.000806472 7.19576e-07 2.28212e-08)
(0.000804679 6.57741e-07 -1.30788e-08)
(0.000803246 1.32102e-07 4.81819e-08)
(0.000801924 -1.03463e-07 5.11848e-08)
(0.000800459 1.6887e-07 3.2183e-08)
(0.000799048 1.37333e-07 4.39672e-08)
(0.00079755 7.30033e-08 5.85824e-08)
(0.000796159 -1.25345e-08 3.67399e-08)
(0.000794565 -2.87705e-07 1.37365e-08)
(0.00079296 -2.39808e-07 -8.08145e-08)
(0.00079164 5.543e-08 5.12091e-08)
(0.000790311 2.28075e-07 1.16004e-07)
(0.000788818 4.3339e-07 5.46845e-08)
(0.000787295 3.52707e-07 5.27094e-09)
(0.00078587 2.61135e-08 2.39722e-08)
(0.000784586 4.04882e-09 4.20917e-08)
(0.000782992 -3.17509e-08 7.59006e-08)
(0.000781397 8.78876e-08 3.71507e-08)
(0.000779947 2.69722e-07 4.29114e-08)
(0.000778809 2.287e-07 4.6689e-08)
(0.00244131 0.00210625 -1.49783e-05)
(-0.000429971 -0.00825034 0.000224887)
(-0.0057752 0.00113056 0.000286338)
(-0.00262524 0.0098384 -0.000189481)
(0.0174402 -0.00646162 0.00144636)
(0.0045868 -0.000369547 7.34741e-05)
(0.000148173 -0.000138197 5.58166e-06)
(0.00174022 0.000595964 4.71412e-05)
(0.000516888 -6.08754e-05 -1.03087e-06)
(0.000953872 -2.30705e-05 -1.74038e-06)
(0.000852017 -1.30871e-05 -6.41576e-07)
(0.000854853 -6.96025e-06 1.39276e-07)
(0.0008438 -3.76659e-06 2.66322e-07)
(0.000839538 -2.31302e-06 5.43093e-08)
(0.000835313 -1.58635e-06 9.26663e-09)
(0.000832028 -1.03601e-06 7.80687e-09)
(0.000829593 -6.24026e-07 5.04935e-08)
(0.000827615 -4.91667e-07 4.56176e-08)
(0.000825659 -1.0656e-07 4.67089e-08)
(0.000823901 -1.41776e-07 8.13308e-08)
(0.000822213 -1.38915e-07 6.3446e-08)
(0.000820505 -8.42338e-08 4.02165e-08)
(0.000818941 -7.82105e-09 1.87277e-07)
(0.000817377 1.09515e-08 1.01123e-07)
(0.000815862 3.5271e-08 8.07291e-08)
(0.00081432 4.14809e-08 6.72139e-08)
(0.000812704 1.13746e-07 6.77631e-08)
(0.000811334 1.37457e-07 1.15316e-08)
(0.000809517 1.24686e-07 7.81009e-09)
(0.000807901 1.78635e-07 1.77732e-08)
(0.000806741 2.24878e-08 5.4735e-08)
(0.000804918 -1.63713e-07 3.79535e-08)
(0.000803209 9.80791e-08 5.2219e-08)
(0.000801867 2.63333e-08 5.22883e-08)
(0.000800433 3.51199e-08 3.80345e-08)
(0.000798975 -5.90836e-08 4.92889e-08)
(0.000797446 -1.43096e-07 2.95767e-08)
(0.000795684 -1.55259e-07 8.12352e-08)
(0.000794426 -1.64181e-07 9.9127e-08)
(0.000793399 -7.47199e-08 9.06965e-08)
(0.000791902 -6.36867e-08 3.82734e-08)
(0.000790365 -5.19486e-08 2.93651e-07)
(0.000788787 -8.54224e-08 4.36524e-08)
(0.000787085 -2.8172e-09 7.7429e-09)
(0.00078575 -6.80667e-08 5.88283e-08)
(0.000784587 -2.01221e-07 4.82948e-08)
(0.000783145 -4.25976e-07 -3.17924e-08)
(0.000781694 -3.46273e-07 -2.47879e-07)
(0.000780124 -2.11695e-07 1.10387e-08)
(0.000778377 1.07773e-07 1.01034e-07)
(0.00217505 0.00140784 0.000258023)
(0.00195732 0.000368707 -0.000100697)
(0.00441875 0.000862333 0.000185404)
(0.00184233 0.0125963 0.000724262)
(0.00926401 -0.00072152 0.000592339)
(0.00417448 0.000642431 6.44269e-05)
(0.00098635 -7.06188e-05 -2.22031e-05)
(0.0030625 3.73945e-05 0.000124831)
(0.000574447 3.26344e-05 3.17589e-07)
(0.000952801 1.94153e-05 -1.57771e-06)
(0.000853008 1.15446e-05 -6.1089e-07)
(0.000855564 5.7737e-06 1.52238e-07)
(0.000844237 3.50198e-06 4.11639e-08)
(0.000838835 1.85732e-06 4.68466e-08)
(0.000835034 9.02441e-07 8.55834e-08)
(0.000832354 4.29882e-07 8.87029e-08)
(0.000829808 2.90256e-07 5.16433e-08)
(0.000827659 2.03237e-07 7.06545e-08)
(0.000825862 1.1436e-09 3.30966e-08)
(0.000823973 7.75733e-08 4.0365e-08)
(0.000822289 8.06294e-08 -7.8984e-08)
(0.000820653 5.03632e-08 6.6282e-08)
(0.000818991 6.25546e-08 8.32763e-08)
(0.000817415 5.97332e-08 6.5223e-08)
(0.000815828 8.20129e-08 5.18188e-08)
(0.000814255 -6.2954e-08 5.99648e-08)
(0.000812672 -1.23184e-07 5.24162e-08)
(0.000811155 -2.21864e-07 9.05218e-08)
(0.00080994 -1.87709e-07 7.90004e-08)
(0.000808206 -2.93791e-07 8.49752e-08)
(0.000806043 -5.11685e-07 -3.26195e-08)
(0.000804772 -3.89077e-07 1.39841e-07)
(0.000803484 -2.73598e-07 1.88233e-08)
(0.000801844 -1.50356e-07 6.7171e-08)
(0.000800352 -1.24288e-07 6.50857e-08)
(0.000798826 -3.89928e-08 4.8831e-08)
(0.00079743 -5.79568e-08 7.30185e-08)
(0.000796134 -1.85774e-09 8.73202e-08)
(0.000794668 2.62572e-07 4.13906e-08)
(0.000793087 1.10261e-07 6.51315e-08)
(0.00079167 8.84221e-08 5.53439e-08)
(0.000790285 -3.89092e-08 3.80256e-08)
(0.000788881 -1.41956e-07 5.50903e-08)
(0.000787318 -1.76737e-07 5.33286e-08)
(0.000785624 -7.23568e-08 3.30647e-08)
(0.000784142 -1.91894e-07 4.81523e-08)
(0.000782815 -5.05973e-07 -3.30024e-07)
(0.000781668 -5.5861e-07 5.93147e-08)
(0.000780516 -5.1636e-07 1.00015e-07)
(0.000778938 -2.41972e-07 1.74701e-07)
(0.0135995 -0.00283735 -0.000463233)
(0.0103512 0.0084763 0.00101102)
(-0.0286314 -0.0168988 0.0010343)
(0.00585798 -0.00715214 -0.000179285)
(0.00658294 -0.0114853 -0.000130813)
(-0.00291129 0.00253794 0.000148738)
(-0.00109945 -0.000841497 3.5323e-06)
(0.0016022 -0.000159888 6.79867e-06)
(0.000503786 4.66878e-05 7.20682e-07)
(0.000901238 2.44446e-05 -1.20712e-06)
(0.000835189 2.29305e-05 -4.17379e-07)
(0.000844769 1.2208e-05 1.80136e-07)
(0.000838891 7.485e-06 3.75027e-08)
(0.000836282 4.58987e-06 5.80848e-08)
(0.000833527 2.96393e-06 5.32686e-08)
(0.000831263 1.87711e-06 5.5837e-08)
(0.000829311 1.10528e-06 5.33353e-08)
(0.000827255 7.88619e-07 4.12863e-08)
(0.000825502 5.76511e-07 4.91463e-08)
(0.000824 3.06029e-07 5.99566e-08)
(0.000822178 2.33072e-07 5.61981e-08)
(0.000820481 1.38861e-07 4.82625e-08)
(0.000818952 1.60295e-07 2.32901e-08)
(0.0008174 5.23938e-08 4.79512e-08)
(0.000815708 6.69804e-08 5.0443e-09)
(0.000814064 2.18739e-08 4.41158e-08)
(0.000812507 -1.41277e-07 5.33219e-08)
(0.000811255 -1.53378e-07 7.02957e-08)
(0.00080943 -4.93204e-07 2.05638e-08)
(0.000807499 -7.38524e-07 -3.1664e-08)
(0.000806625 -3.97553e-07 1.77167e-07)
(0.00080522 -1.66242e-07 8.38627e-08)
(0.00080351 -1.59128e-07 4.47293e-08)
(0.000802056 -9.73241e-08 6.44642e-08)
(0.000800574 -3.21807e-08 3.90915e-08)
(0.000799059 7.16052e-08 5.83395e-08)
(0.000797493 1.66445e-07 5.08859e-08)
(0.000796085 2.18478e-07 4.83019e-08)
(0.000794565 1.73474e-07 5.55686e-08)
(0.00079318 2.7663e-07 2.165e-08)
(0.000791715 1.78881e-07 4.52229e-08)
(0.000790077 8.30394e-08 1.21219e-08)
(0.000788616 1.14968e-08 7.3368e-08)
(0.000787173 -1.21925e-07 -5.66334e-08)
(0.000785732 -6.41693e-08 1.29943e-08)
(0.000784048 1.50806e-08 4.98135e-08)
(0.000782691 3.23319e-09 2.12675e-08)
(0.000781686 -2.793e-07 6.55256e-08)
(0.000780529 -2.02942e-07 1.29246e-07)
(0.000779323 -2.41303e-07 7.37059e-08)
(-0.00659825 0.0027572 -0.000120387)
(0.0144129 -0.0123515 -7.57417e-05)
(-0.0383783 -0.066942 0.00246365)
(-0.0118743 -0.0371405 0.00396135)
(-0.00891545 -0.00986959 -0.00368978)
(0.0287298 0.000560638 0.000472163)
(0.00217299 -5.90707e-05 0.000114058)
(0.000467033 0.000225763 4.67684e-05)
(0.000882149 8.70172e-05 -1.9386e-06)
(0.000833124 1.94124e-05 -2.75323e-07)
(0.0008376 2.17943e-05 6.45219e-08)
(0.000836154 1.25228e-05 3.90925e-08)
(0.000834657 8.3087e-06 4.83573e-08)
(0.000833148 5.20838e-06 5.01722e-08)
(0.000831621 3.32731e-06 5.24287e-08)
(0.000830017 2.13527e-06 5.27732e-08)
(0.000828438 1.46631e-06 1.24847e-07)
(0.000826992 9.39283e-07 7.34915e-08)
(0.000825255 7.41103e-07 -1.44221e-07)
(0.000823541 4.59011e-07 3.46821e-08)
(0.000822079 1.96796e-07 5.00711e-08)
(0.000820561 7.90137e-08 5.42049e-08)
(0.000818883 -3.78782e-08 3.82447e-08)
(0.000817298 -6.3714e-08 4.94418e-08)
(0.00081579 -2.67164e-07 6.36507e-08)
(0.000813995 -1.97132e-07 1.81856e-08)
(0.000812455 -6.93032e-08 3.99272e-08)
(0.000810719 -1.92604e-08 7.34568e-08)
(0.000809214 -2.46905e-07 5.76824e-08)
(0.000808332 2.2837e-07 -7.18844e-08)
(0.000806763 3.7682e-07 1.09023e-07)
(0.000805073 1.32261e-07 1.76207e-07)
(0.000803571 2.02965e-07 4.49916e-08)
(0.000802004 1.03632e-07 4.66987e-08)
(0.000800564 6.80802e-08 4.14519e-08)
(0.000799074 -5.13644e-08 6.55037e-08)
(0.000797613 -5.74561e-08 5.88719e-08)
(0.000796142 -4.85113e-08 4.24374e-08)
(0.000794738 1.17946e-07 4.21755e-08)
(0.000793092 1.8233e-07 4.39487e-08)
(0.000791426 -2.65753e-08 8.7061e-08)
(0.000790075 9.62164e-08 4.2413e-08)
(0.000788625 9.00433e-08 5.62011e-08)
(0.000787224 1.78232e-08 4.95813e-08)
(0.000785796 6.56583e-08 5.15971e-08)
(0.000784227 1.73863e-07 4.72853e-08)
(0.000782448 5.26141e-07 6.33626e-08)
(0.000781412 6.53414e-07 7.17815e-08)
(0.000780572 2.59396e-07 -9.46043e-09)
(0.000779495 3.11192e-08 -9.45525e-08)
(0.00931508 0.00184748 -0.000338224)
(0.00631379 -0.00496191 0.000358627)
(-0.0098083 0.0128526 0.000702185)
(0.00445886 0.00187414 0.00183894)
(0.00534174 -0.0117457 0.000127314)
(0.000223973 0.00422067 -5.46585e-05)
(0.000222019 -0.00039804 1.40942e-05)
(0.000445068 4.42426e-05 1.87398e-06)
(0.000860802 4.60129e-05 -1.43131e-06)
(0.000807847 2.41888e-05 -2.58489e-07)
(0.000826383 1.67888e-05 1.6025e-07)
(0.00082779 1.04726e-05 4.40203e-08)
(0.000829674 6.76199e-06 5.96728e-08)
(0.000830007 4.10156e-06 5.67432e-08)
(0.000829655 2.747e-06 5.67471e-08)
(0.000828917 1.8524e-06 1.06233e-07)
(0.000827803 1.23228e-06 4.0974e-10)
(0.000826339 6.80715e-07 4.04138e-07)
(0.000824896 4.8119e-07 4.77914e-08)
(0.000823316 5.16643e-07 6.9926e-08)
(0.000821701 2.38527e-07 5.2162e-08)
(0.000820188 3.28243e-08 7.20785e-08)
(0.000818774 -1.22818e-07 5.58194e-08)
(0.000817116 -1.62985e-07 5.38647e-08)
(0.000815543 -2.52255e-07 3.60226e-08)
(0.000814314 -3.44956e-07 -5.15426e-08)
(0.000812731 -1.64666e-07 1.33234e-07)
(0.000811035 -1.26115e-07 5.11479e-08)
(0.00080974 4.66251e-08 1.07739e-07)
(0.000808278 2.62061e-07 6.95985e-08)
(0.000806503 1.80237e-07 3.82588e-07)
(0.000805001 1.3487e-07 5.80831e-08)
(0.000803473 -8.02744e-08 -1.76938e-07)
(0.000801887 -1.40233e-07 5.66875e-08)
(0.00080038 -1.77508e-07 2.95459e-08)
(0.000798903 -1.76169e-07 3.42011e-08)
(0.000797497 -2.34196e-07 6.0555e-08)
(0.000796304 -2.01335e-07 6.00932e-08)
(0.000794853 -3.97205e-07 9.05917e-08)
(0.000792999 -5.46333e-07 3.68824e-08)
(0.000791607 -2.08846e-07 5.22356e-08)
(0.000790223 -1.08938e-07 6.72907e-09)
(0.000788517 2.74695e-07 4.58483e-08)
(0.000787143 1.66189e-07 4.44959e-08)
(0.000785927 1.79992e-07 5.58096e-08)
(0.000784621 1.70328e-07 5.27431e-08)
(0.000783288 3.37798e-07 5.64056e-08)
(0.000781349 9.44468e-07 2.80729e-08)
(0.00077975 6.03626e-07 -9.7924e-08)
(0.000778957 2.78136e-07 9.0865e-08)
(0.0058999 -0.00329596 -0.000693613)
(0.00485659 0.00519527 0.000295093)
(0.000391473 -0.00820583 3.74384e-05)
(0.00106964 0.00199831 0.00042227)
(0.00624796 0.0010686 -0.00225516)
(0.00319751 -0.00224087 0.000227669)
(0.00126819 0.00017807 0.000114674)
(0.000427723 1.2034e-05 6.97696e-07)
(0.000842067 1.21978e-05 -1.29338e-06)
(0.000796277 7.25914e-06 -2.96675e-07)
(0.000820271 5.46794e-06 2.21074e-07)
(0.000823499 3.43289e-06 3.81101e-08)
(0.000826617 2.29238e-06 2.61057e-07)
(0.000828082 1.76879e-06 7.47519e-08)
(0.000828779 1.11571e-06 5.52535e-08)
(0.000828104 7.80558e-07 7.09054e-08)
(0.000826961 4.37876e-07 5.00526e-08)
(0.000826045 3.3627e-07 6.00415e-08)
(0.000825044 1.83749e-07 6.85077e-08)
(0.000823234 -1.61767e-07 -2.12918e-08)
(0.000821472 -4.32714e-08 1.8301e-08)
(0.000820109 2.79671e-08 5.60218e-08)
(0.000818639 -1.03661e-08 5.80188e-08)
(0.000817139 -7.93177e-08 4.70101e-08)
(0.000815566 2.63498e-08 -7.63224e-08)
(0.000814108 3.13679e-08 -2.89795e-08)
(0.000812731 -2.30619e-07 7.7119e-08)
(0.000810984 8.18182e-09 4.59651e-08)
(0.000809698 2.43267e-07 1.02928e-07)
(0.000808497 -1.11501e-07 8.41249e-08)
(0.000806602 -1.67182e-07 1.58143e-07)
(0.000804747 -2.0219e-07 -3.5437e-08)
(0.000803228 -4.63788e-07 6.57445e-08)
(0.000801884 -3.91537e-07 3.89782e-08)
(0.00080052 -1.54622e-07 4.38613e-08)
(0.000799005 -7.58177e-08 5.60399e-08)
(0.000797583 5.85893e-09 5.69284e-08)
(0.00079594 -1.13856e-07 4.86085e-08)
(0.00079431 -4.27039e-07 1.48392e-09)
(0.000793331 -5.3081e-07 6.52267e-08)
(0.000791975 -2.63149e-07 6.3296e-08)
(0.00079068 -2.68107e-07 2.7195e-08)
(0.000788968 -3.07577e-07 1.1403e-07)
(0.000787104 1.66083e-07 2.7103e-08)
(0.0007858 1.03862e-07 5.3944e-08)
(0.000784422 1.70545e-07 3.80409e-08)
(0.000783411 3.49933e-08 3.29934e-08)
(0.000781738 -5.97331e-09 2.95305e-08)
(0.000779725 3.77753e-07 -1.70875e-08)
(0.000778394 2.37393e-07 7.18473e-08)
(0.0008293 0.00407584 8.2076e-05)
(0.00288134 0.00704335 0.000325007)
(0.00607118 -0.00626826 -0.000162239)
(-0.00955745 -0.0021546 -0.00159277)
(0.0103908 -0.00547188 0.000850435)
(0.00918232 0.00393112 -0.00283401)
(0.000869519 0.00121641 -7.71356e-05)
(0.0013441 -3.88485e-05 -6.16062e-07)
(0.00141973 -2.78854e-05 3.37616e-07)
(0.00133198 -1.45473e-05 3.44461e-07)
(0.00136904 -9.10982e-06 3.8763e-07)
(0.00137301 -5.58341e-06 3.22594e-07)
(0.00137949 -3.49655e-06 2.69969e-07)
(0.00138123 -1.68711e-06 6.47254e-08)
(0.00138111 -1.17642e-06 3.45582e-07)
(0.00138054 -8.40022e-07 2.76087e-07)
(0.00137922 -5.89655e-07 3.46838e-07)
(0.00137721 -9.00018e-08 3.5356e-07)
(0.00137439 -3.65817e-07 3.93461e-07)
(0.00137233 -5.22903e-07 4.26454e-07)
(0.00137048 -2.46807e-07 3.26169e-07)
(0.00136763 5.77795e-08 3.85338e-07)
(0.00136497 7.77076e-08 4.11716e-07)
(0.00136256 6.32491e-08 3.00807e-07)
(0.00136009 4.38894e-07 2.83288e-07)
(0.00135731 6.47352e-07 3.07415e-07)
(0.00135515 7.2786e-07 2.93156e-07)
(0.00135335 3.42221e-07 3.45304e-07)
(0.00134997 5.49806e-07 1.98595e-07)
(0.00134692 -3.25679e-07 3.74616e-07)
(0.00134462 -9.68873e-07 2.62757e-07)
(0.00134166 -8.05726e-07 1.94891e-07)
(0.00133936 -3.05614e-07 2.04626e-07)
(0.00133783 -7.83851e-08 3.50982e-07)
(0.00133537 3.36157e-07 3.23989e-07)
(0.00133254 2.69232e-07 3.30338e-07)
(0.00132973 2.762e-07 3.18863e-07)
(0.00132687 2.75855e-07 2.72038e-07)
(0.0013246 7.06366e-07 2.49006e-07)
(0.00132275 6.87784e-07 4.58362e-07)
(0.00132052 1.10297e-07 2.94309e-07)
(0.0013176 -8.31175e-08 2.27344e-07)
(0.00131585 -8.73746e-07 1.34583e-07)
(0.00131341 -5.78949e-07 7.25816e-07)
(0.00131048 -4.32494e-07 3.52796e-07)
(0.00130819 -3.33861e-07 2.11081e-07)
(0.00130572 -3.62102e-07 3.09472e-07)
(0.0013036 -7.1621e-07 3.1313e-07)
(0.00130071 -4.77712e-07 2.23335e-07)
(0.00129762 -3.97744e-07 3.53971e-07)
(0.0056572 -0.0103633 -0.000190191)
(0.0128106 -0.0059732 -2.76407e-05)
(0.00721074 0.000376633 0.000203209)
(0.00447387 -0.00686264 3.68186e-05)
(0.0159124 0.000962612 -0.00251371)
(0.00964183 0.00306524 0.000817067)
(0.000272382 -0.000165383 0.000251966)
(0.00129209 -9.06366e-05 3.99103e-07)
(0.00145155 -6.64178e-05 4.2708e-07)
(0.00135143 -3.39669e-05 3.48735e-07)
(0.00137923 -2.4854e-05 3.44841e-07)
(0.00138034 -1.51704e-05 3.45086e-07)
(0.00138324 -9.84459e-06 3.46955e-07)
(0.00138359 -6.58171e-06 3.44195e-07)
(0.0013829 -4.15324e-06 3.45684e-07)
(0.00138149 -2.75648e-06 3.17309e-07)
(0.00137982 -1.77719e-06 3.45643e-07)
(0.00137761 -1.45961e-06 3.95172e-07)
(0.00137507 -6.8933e-07 4.63335e-07)
(0.00137274 -1.1962e-07 3.12184e-07)
(0.00137038 5.61114e-08 -1.41181e-07)
(0.00136782 1.57589e-08 3.807e-07)
(0.00136503 5.28586e-07 6.51306e-07)
(0.00136296 5.96146e-07 7.64942e-07)
(0.00136059 3.98935e-07 3.14591e-07)
(0.00135782 2.05062e-07 5.66721e-07)
(0.00135486 3.91397e-07 3.03719e-07)
(0.00135214 -1.45822e-07 3.36986e-07)
(0.00134936 -1.01968e-06 2.38288e-07)
(0.00134628 -6.62108e-07 3.33199e-07)
(0.00134441 -6.75513e-07 3.75939e-07)
(0.00134272 -3.23798e-07 2.77137e-07)
(0.00134025 7.74642e-07 6.26609e-07)
(0.00133791 9.75921e-07 5.95576e-07)
(0.00133531 1.35528e-07 3.46477e-07)
(0.00133233 8.19685e-08 3.09881e-07)
(0.00132998 1.11944e-07 3.23509e-07)
(0.00132771 3.61398e-07 3.78756e-07)
(0.00132506 6.75076e-07 3.23103e-07)
(0.00132215 8.20348e-07 3.41428e-07)
(0.00131959 2.49487e-07 3.09914e-07)
(0.00131714 -5.27495e-08 6.37835e-08)
(0.00131492 -1.39106e-07 3.79705e-07)
(0.0013131 -6.71282e-07 3.20538e-07)
(0.00131072 -2.3362e-07 3.51959e-07)
(0.00130812 -2.89941e-07 3.30282e-07)
(0.00130581 3.55347e-10 5.5522e-07)
(0.00130344 -2.58804e-07 2.67019e-07)
(0.0013007 -6.16487e-07 3.62161e-07)
(0.00129898 -4.31099e-07 2.20216e-07)
(-0.00953532 0.000882113 0.000699436)
(-0.00258619 0.00504712 6.18138e-05)
(-0.0040596 -0.00158266 -0.000166023)
(-0.0170288 0.00517674 0.00129912)
(0.000861176 -0.00277856 -0.00175961)
(0.00696197 0.00826966 0.00114428)
(0.00202104 0.000948188 -4.71018e-07)
(0.00137137 -0.000178494 1.20053e-05)
(0.00145744 -0.000125924 -4.32269e-07)
(0.00138423 -2.57981e-05 3.43765e-07)
(0.00139268 -3.35847e-05 3.48302e-07)
(0.00139188 -1.95685e-05 3.48189e-07)
(0.00139029 -1.33363e-05 3.47405e-07)
(0.00138839 -8.54207e-06 3.47516e-07)
(0.00138592 -5.42493e-06 3.46784e-07)
(0.00138353 -3.47581e-06 3.46386e-07)
(0.00138086 -2.17395e-06 3.46512e-07)
(0.00137857 -1.515e-06 2.38795e-07)
(0.00137607 -1.23735e-06 5.02031e-07)
(0.00137326 -6.09478e-07 3.33909e-07)
(0.00137064 -3.10302e-07 3.9569e-07)
(0.00136821 -1.43406e-07 3.3904e-07)
(0.0013657 -3.29691e-08 3.42016e-07)
(0.00136239 1.83058e-07 2.86394e-07)
(0.0013596 -1.14078e-07 3.52756e-07)
(0.00135729 -6.81852e-08 3.12951e-07)
(0.00135471 -3.08501e-07 3.37607e-07)
(0.00135159 -5.39874e-08 3.39786e-07)
(0.00134933 -2.8851e-08 4.07837e-07)
(0.00134736 8.12989e-07 3.50812e-07)
(0.00134505 1.25962e-06 3.45e-07)
(0.00134347 1.11315e-06 3.26438e-07)
(0.00134098 5.39664e-07 8.1117e-07)
(0.00133702 4.59109e-07 4.61986e-07)
(0.00133425 -2.54923e-08 3.73151e-07)
(0.00133251 2.2356e-08 3.53917e-07)
(0.00133007 7.52827e-08 2.94031e-07)
(0.00132757 6.07815e-09 3.49986e-07)
(0.00132517 -1.13888e-08 3.37887e-07)
(0.00132222 -1.0709e-07 3.82304e-07)
(0.00131943 4.17471e-08 1.90979e-07)
(0.00131712 2.46736e-07 1.17085e-07)
(0.00131508 6.39059e-07 5.64763e-07)
(0.00131329 6.45586e-07 2.97062e-07)
(0.00131096 4.76743e-07 3.49058e-07)
(0.00130849 4.33826e-07 3.88776e-07)
(0.00130576 5.70593e-07 4.40896e-07)
(0.00130284 3.08972e-07 2.30256e-07)
(0.00130051 1.6962e-07 3.07579e-07)
(0.00129892 1.39994e-07 3.10448e-07)
(0.000231853 0.000692542 0.000270075)
(-0.000932393 -0.00132294 -8.51565e-05)
(0.0110951 -0.000632232 0.00151018)
(-0.000771557 -0.000442535 -0.00194699)
(-0.0137707 0.0238838 0.000819552)
(-0.00958316 0.00320382 -0.00121639)
(0.00257065 0.000274361 -6.28495e-05)
(0.00109209 3.84158e-05 4.03261e-05)
(0.00136622 -0.000142958 3.81005e-07)
(0.00149625 -4.25856e-05 6.84466e-07)
(0.00138747 -3.96325e-05 3.48978e-07)
(0.00140583 -2.09202e-05 3.51187e-07)
(0.00139714 -1.35632e-05 3.49675e-07)
(0.00139355 -8.0672e-06 3.48783e-07)
(0.00138928 -4.74189e-06 3.47071e-07)
(0.00138558 -2.79196e-06 3.46009e-07)
(0.00138229 -1.85994e-06 3.45644e-07)
(0.0013788 -9.69085e-07 2.68906e-07)
(0.00137621 -8.47857e-07 3.32586e-07)
(0.0013739 -5.69046e-07 3.11291e-07)
(0.00137097 -4.91224e-07 3.00642e-07)
(0.00136817 -3.25587e-07 3.42254e-07)
(0.00136544 -5.57421e-07 2.84165e-07)
(0.00136286 -4.33033e-07 3.03986e-07)
(0.00136028 -1.14663e-07 2.77771e-07)
(0.00135758 2.08607e-07 2.79235e-07)
(0.00135488 3.37334e-07 4.09728e-07)
(0.00135249 5.99128e-07 3.9137e-07)
(0.00135044 1.39441e-06 3.48943e-07)
(0.00134788 1.02256e-06 5.02221e-07)
(0.00134478 1.23621e-06 3.23246e-07)
(0.00134181 1.17896e-06 2.99587e-07)
(0.00133942 2.33472e-07 3.37309e-07)
(0.0013372 -1.46205e-07 3.35504e-07)
(0.00133476 2.90847e-07 2.46069e-07)
(0.00133246 2.11287e-07 3.17219e-07)
(0.00132995 8.93571e-08 3.28941e-07)
(0.0013276 -6.64797e-08 2.79582e-07)
(0.00132491 -5.31122e-07 2.37091e-07)
(0.00132222 -4.85427e-07 4.12546e-09)
(0.00132003 5.31059e-08 2.80178e-07)
(0.00131789 4.32979e-07 4.27746e-07)
(0.00131541 7.54728e-07 3.78057e-07)
(0.00131289 5.97e-07 1.15048e-07)
(0.00131044 7.38263e-08 3.47897e-07)
(0.00130823 2.18887e-08 3.27255e-07)
(0.00130565 -6.33599e-08 3.80607e-07)
(0.00130294 1.3977e-07 2.35796e-07)
(0.00130049 4.20257e-07 3.21081e-07)
(0.0012986 3.99081e-07 2.30139e-07)
(0.0026833 -0.00702802 -0.000346043)
(0.00389156 -0.00188132 1.59996e-05)
(0.0173142 -0.00863325 0.000928042)
(0.0205634 0.0193209 0.0040414)
(-0.00956542 -0.0109942 0.0178653)
(-0.00748966 0.00657318 -0.000695351)
(-0.000963954 -0.000329832 -8.31181e-05)
(0.000540125 -0.00238492 1.88058e-05)
(0.00154465 -0.000188397 4.63272e-07)
(0.00158927 -4.09657e-05 -1.15527e-08)
(0.00142006 -2.33192e-05 3.71596e-07)
(0.00142471 -1.25856e-05 3.30138e-07)
(0.0014065 -6.86402e-06 5.77905e-07)
(0.00139951 -4.22765e-06 3.50728e-07)
(0.00139256 -2.86265e-06 2.66355e-07)
(0.00138717 -1.85375e-06 2.66854e-07)
(0.00138315 -1.12094e-06 3.45521e-07)
(0.00137985 -8.70463e-07 3.31449e-07)
(0.00137658 -1.87663e-07 3.23361e-07)
(0.00137371 -2.19728e-07 3.75211e-07)
(0.00137095 -2.32147e-07 3.75171e-07)
(0.00136814 -1.4188e-07 3.2167e-07)
(0.00136557 -3.83443e-08 4.9362e-07)
(0.00136295 -1.12956e-08 3.87788e-07)
(0.0013604 5.38737e-08 2.78957e-07)
(0.00135786 2.63633e-08 3.84797e-07)
(0.0013552 1.84803e-07 3.92377e-07)
(0.0013529 2.6961e-07 2.96857e-07)
(0.00134985 3.21135e-07 5.51453e-07)
(0.00134715 3.80299e-07 3.2068e-07)
(0.00134523 9.61599e-08 3.52735e-07)
(0.00134221 -2.37333e-07 3.29035e-07)
(0.00133932 2.14559e-07 3.27313e-07)
(0.00133709 8.53067e-08 3.36379e-07)
(0.00133469 1.02439e-07 2.57348e-07)
(0.00133226 -9.30004e-08 3.31213e-07)
(0.00132973 -2.61213e-07 2.74614e-07)
(0.00132679 -2.92279e-07 3.47688e-07)
(0.00132465 -3.19314e-07 4.42794e-07)
(0.00132295 -1.87297e-07 3.10125e-07)
(0.00132057 -8.59198e-08 3.18851e-07)
(0.00131799 -7.87811e-08 6.07571e-07)
(0.00131528 -1.59695e-07 3.01221e-07)
(0.00131244 -6.91307e-08 -7.56948e-08)
(0.00131024 -2.34422e-07 3.66198e-07)
(0.00130831 -4.00697e-07 3.25969e-07)
(0.00130591 -8.10551e-07 1.42148e-07)
(0.00130344 -7.06894e-07 -2.03411e-08)
(0.00130082 -3.73447e-07 3.21769e-07)
(0.0012979 1.81241e-07 4.56683e-07)
(0.00342503 -0.000276631 0.00163709)
(-0.0106278 -0.002313 -0.000222854)
(-0.00438651 0.000702132 0.000620103)
(0.0182451 0.029111 0.00173795)
(0.00527899 -0.00759687 0.0018596)
(0.00452493 -0.000346654 0.000659376)
(0.00156353 0.00022225 2.77148e-06)
(-0.000163479 3.69339e-06 4.54891e-05)
(0.00172196 9.18192e-05 1.63716e-06)
(0.00158917 2.98699e-05 3.1245e-07)
(0.00142273 1.75975e-05 3.20611e-07)
(0.00142659 8.60112e-06 3.61059e-07)
(0.0014077 5.21445e-06 4.01326e-07)
(0.00139862 2.72083e-06 3.47877e-07)
(0.00139229 1.2904e-06 3.67842e-07)
(0.00138779 5.8387e-07 4.00008e-07)
(0.00138353 3.97041e-07 3.46631e-07)
(0.00137998 2.76676e-07 3.96315e-07)
(0.00137703 -2.08809e-08 3.23062e-07)
(0.00137385 1.5687e-07 3.44771e-07)
(0.00137107 1.79749e-07 1.90139e-07)