/*--------------------------------*- C++ -*----------------------------------*\
| =========                 |                                                 |
| \\      /  F ield         | OpenFOAM: The Open Source CFD Toolbox           |
|  \\    /   O peration     | Version:  5.0                                   |
|   \\  /    A nd           | Web:      www.OpenFOAM.org                      |
|    \\/     M anipulation  |                                                 |
\*---------------------------------------------------------------------------*/
FoamFile
{
    version     2.0;
    format      ascii;
    class       surfaceVectorField;
    location    "4.9";
    object      Uf;
}
// * * * * * * * * * * * * * * * * * * * * * * * * * * * * * * * * * * * * * //

dimensions      [0 1 -1 0 0 0 0];

internalField   nonuniform List<vector> 
25687
(
(0.000603508 0.00646928 8.53372e-05)
(0.00187253 0.000772551 0.000124605)
(0.000605718 0.00491086 3.47123e-05)
(-0.00580572 0.00414975 -0.000155674)
(0.00236465 0.00418568 0.000150262)
(0.0014573 0.006942 0.000225595)
(-0.00447852 0.000116473 -2.04065e-05)
(0.00231152 0.000745451 9.24747e-05)
(0.00242436 -0.00195557 -0.00117406)
(-0.00451329 0.000827624 -0.000365623)
(-0.00635318 0.000389333 -0.000212274)
(-0.00211716 0.000148829 -0.000243552)
(-0.00162407 -0.00515713 -0.000478091)
(-0.000625915 -0.00578199 -0.00119774)
(0.00343226 -0.0031307 -0.000455597)
(0.000297642 -0.00174146 -0.000287858)
(0.00259987 0.00462633 2.25441e-05)
(0.00782858 0.00423831 0.000136864)
(0.00707636 0.0039949 -7.62076e-05)
(0.0106388 0.0073258 -9.09782e-05)
(0.000339082 -0.0096321 -0.000130779)
(0.00347898 -0.00632239 -8.93727e-05)
(0.00190339 -0.00649607 -0.00019354)
(0.00418649 -0.0107271 -0.00047802)
(0.000358662 0.000354543 3.11128e-05)
(0.00120371 0.000329009 5.23276e-07)
(0.00126838 0.000427038 -7.72564e-05)
(0.001126 0.000116897 1.64848e-05)
(0.000308822 1.23258e-06 -1.8627e-06)
(0.000437967 1.72454e-06 -2.88813e-06)
(0.00045653 3.77276e-06 3.00397e-07)
(0.000758828 1.00978e-05 2.72253e-08)
(0.000305239 8.73266e-07 -2.17212e-06)
(0.000562076 -4.76193e-06 -1.45313e-06)
(0.000550302 -6.06654e-06 -1.73047e-06)
(0.000810612 4.11782e-06 -9.01357e-07)
(0.000860165 -7.22722e-06 -1.30538e-06)
(0.00114365 3.63195e-06 -1.08824e-06)
(0.000585308 -2.04816e-06 -4.39328e-06)
(0.000587098 -4.13375e-06 -5.03789e-06)
(0.000970233 -1.09379e-05 -5.39496e-06)
(0.00096925 -1.59372e-05 -6.3642e-06)
(0.00082077 3.10538e-06 -1.32282e-07)
(0.000806801 -2.10429e-06 -4.50114e-07)
(0.00107319 4.14416e-06 7.71444e-08)
(0.000826566 1.82306e-06 1.09218e-07)
(0.00082668 -2.45584e-06 1.7715e-07)
(0.00110125 2.22861e-06 1.91856e-07)
(0.000829822 1.14747e-06 6.37584e-09)
(0.000828495 -1.54832e-06 2.55935e-08)
(0.00110357 1.45971e-06 1.74462e-07)
(0.000831362 7.32235e-07 3.62982e-08)
(0.000831163 -1.15489e-06 2.88305e-08)
(0.00110759 8.5406e-07 1.80468e-07)
(0.000831732 4.86866e-07 6.11316e-08)
(0.000831876 -8.19759e-07 6.107e-08)
(0.00110865 6.60612e-07 2.07918e-07)
(0.000831286 3.023e-07 3.33692e-08)
(0.000831777 -4.78798e-07 5.16826e-08)
(0.00110847 3.85744e-07 1.79491e-07)
(0.000830701 1.7294e-07 3.4057e-08)
(0.000831146 -7.53924e-07 4.0654e-08)
(0.00110781 2.56967e-07 1.95364e-07)
(0.000829525 9.65253e-08 5.24002e-08)
(0.00083017 -1.16068e-07 5.3037e-08)
(0.00110664 9.93703e-08 1.82289e-07)
(0.000828304 1.26502e-07 4.3213e-08)
(0.000829104 -6.69955e-08 5.7654e-08)
(0.00110503 1.00639e-07 1.82406e-07)
(0.000826898 6.09033e-08 1.1455e-07)
(0.000827637 -2.12127e-07 6.96911e-08)
(0.00110318 1.92467e-07 1.70685e-07)
(0.000825388 -6.12396e-08 1.25306e-07)
(0.000826059 -9.46251e-08 1.11066e-07)
(0.00110126 -8.11498e-08 1.77786e-07)
(0.000824021 -4.78158e-08 5.96062e-08)
(0.000824703 3.81032e-08 7.72286e-08)
(0.00109946 -8.76422e-08 2.10226e-07)
(0.000822373 -1.72674e-08 3.93146e-08)
(0.000823152 -9.38588e-09 6.30354e-08)
(0.00109733 2.16775e-08 1.75239e-07)
(0.000820811 1.57326e-08 3.0765e-08)
(0.000821604 2.3738e-07 3.36378e-08)
(0.00109516 1.86411e-08 1.59479e-07)
(0.000819298 1.14175e-07 4.82593e-08)
(0.000820188 -6.96816e-08 3.47705e-08)
(0.00109319 8.77434e-08 1.84477e-07)
(0.000817692 2.8245e-07 3.75174e-08)
(0.000818675 3.16694e-07 4.60728e-08)
(0.00109111 2.84214e-07 1.52127e-07)
(0.00081635 3.70591e-07 4.11262e-08)
(0.000817009 -1.25787e-06 2.53004e-08)
(0.00108907 5.53807e-07 1.83374e-07)
(0.000814818 2.62475e-07 5.35763e-08)
(0.000815429 2.43896e-07 4.33524e-08)
(0.0010872 5.01269e-07 1.78348e-07)
(0.00081332 2.47061e-07 5.98942e-08)
(0.000814084 5.71596e-08 4.96865e-08)
(0.00108537 2.3162e-07 1.78229e-07)
(0.000811548 1.05552e-07 7.24882e-08)
(0.000812307 4.43076e-07 9.77926e-08)
(0.001083 4.28476e-07 1.8822e-07)
(0.000810127 -2.464e-07 7.71175e-08)
(0.000810552 1.67931e-07 5.72842e-08)
(0.00108081 -1.85766e-07 1.94151e-07)
(0.00080817 -4.23497e-07 6.05778e-08)
(0.000809142 -5.79319e-07 -2.32832e-08)
(0.00107869 -5.66589e-07 3.68194e-07)
(0.000806779 -4.18408e-07 5.79055e-08)
(0.000807551 -4.7267e-07 3.3158e-08)
(0.0010763 -6.43895e-07 1.61103e-07)
(0.000805421 -2.08293e-07 6.85287e-08)
(0.000806304 2.52425e-08 1.05844e-07)
(0.00107448 -4.75712e-07 1.98543e-07)
(0.000804465 1.68677e-08 5.44391e-08)
(0.000805124 -1.61759e-06 6.49863e-08)
(0.00107314 -5.30932e-08 2.11499e-07)
(0.000802864 1.42182e-07 4.54558e-08)
(0.000803607 9.65178e-08 4.64091e-08)
(0.00107142 1.42003e-07 1.79885e-07)
(0.000801036 1.16977e-07 5.79919e-08)
(0.000801932 1.05146e-07 6.24242e-08)
(0.00106907 2.87638e-07 1.83566e-07)
(0.000799067 1.23147e-07 5.65875e-08)
(0.000800229 2.55246e-07 5.69304e-08)
(0.00106652 6.52509e-08 2.0618e-07)
(0.000797557 3.77753e-07 6.88435e-08)
(0.000798688 3.54677e-07 2.2755e-08)
(0.00106406 2.95683e-07 1.4998e-07)
(0.000797095 3.5856e-07 8.60369e-08)
(0.000797276 -2.14978e-06 8.78757e-08)
(0.00106285 7.33594e-07 2.18426e-07)
(0.000795213 1.14703e-07 5.27779e-08)
(0.000795816 3.16351e-07 1.40073e-07)
(0.00106141 2.8288e-07 1.82493e-07)
(0.000793662 1.90662e-08 5.48425e-08)
(0.000794269 1.24512e-07 2.00561e-08)
(0.00105904 7.93399e-08 1.77155e-07)
(0.000792355 -1.92307e-07 7.25166e-08)
(0.00079272 -8.38916e-09 8.32517e-08)
(0.00105699 -1.72742e-08 1.65989e-07)
(0.000791242 -4.2327e-07 2.82695e-08)
(0.000791431 -5.62842e-07 2.35173e-08)
(0.00105566 -5.07785e-07 2.82459e-07)
(0.00078888 -3.39532e-07 2.09771e-08)
(0.000790074 2.96232e-06 7.36203e-08)
(0.00105324 -6.02386e-07 6.52129e-08)
(0.00078751 -1.45042e-07 3.54733e-08)
(0.00078853 -3.06805e-07 5.35241e-08)
(0.00105065 -2.80439e-07 1.75121e-07)
(0.000786393 -1.01472e-07 4.03823e-08)
(0.000787027 3.14416e-07 4.75512e-08)
(0.00104911 -1.46651e-07 1.18331e-07)
(0.000785078 -1.36111e-07 8.99997e-08)
(0.000785664 -3.71599e-07 2.98245e-08)
(0.00104737 -1.6994e-07 1.85583e-07)
(0.00078356 -2.76831e-07 8.19088e-08)
(0.000784317 5.68289e-08 8.756e-08)
(0.00104563 -2.37194e-07 1.79465e-07)
(0.000781855 -3.63654e-07 2.91062e-08)
(0.000782711 -3.15665e-07 -9.94096e-09)
(0.00104336 -5.19645e-07 2.09763e-07)
(0.000781359 8.59012e-07 6.27706e-08)
(0.00104116 -4.31153e-07 1.16194e-07)
(0.00367647 -0.00214604 0.000189521)
(-0.00124129 -0.00355988 0.000254214)
(0.00442706 -0.00751131 5.23172e-05)
(0.00603415 0.0026241 0.000201624)
(-0.00124856 0.000790876 0.00020951)
(0.00845824 -0.00262765 3.05373e-05)
(-0.00148013 -0.00810121 0.000330929)
(-0.000277805 0.00221349 2.84633e-05)
(0.00641212 0.00256947 0.000240471)
(6.11997e-05 0.00140254 0.000224914)
(-0.00112927 -0.00875644 0.00107764)
(0.000466067 -0.000887546 0.000296283)
(-0.0021227 -0.00196696 1.38086e-05)
(0.0177555 -0.0010568 -8.70611e-05)
(0.00381999 -0.0032507 -0.0011401)
(0.0205243 -0.00332514 -0.000396838)
(-0.00017118 -0.0132371 0.000979918)
(-0.0111277 -0.000892115 0.000110072)
(-0.00509707 -0.00625056 0.000285374)
(-0.00575375 -0.0150239 0.000795482)
(-0.00308499 -0.00485296 -6.02891e-05)
(8.07442e-05 -0.00478845 0.0022119)
(-0.00354116 -0.00293241 0.000182559)
(0.00701278 -0.00136798 7.66998e-05)
(0.00463674 -0.00490904 -0.000149509)
(0.00356665 -0.00261556 -0.000117543)
(0.00984466 -0.000905896 -0.0005991)
(-0.0035012 0.00492341 -0.000100679)
(0.00154147 0.000716817 0.000137557)
(0.0104906 -0.00375566 0.000177263)
(0.00165686 -0.0020536 0.000226369)
(0.00593231 -0.00238661 0.000345255)
(0.00829683 -0.00482877 0.000952652)
(0.000324448 -8.88915e-05 2.67613e-05)
(0.00140798 0.00010936 8.96476e-05)
(0.00107232 8.30843e-05 0.00011552)
(0.000622363 0.00012815 -3.51378e-05)
(0.000762398 4.94132e-05 5.0199e-05)
(0.000294583 8.28306e-06 -1.73094e-06)
(0.000461024 -5.93449e-06 -3.14261e-06)
(0.000425967 -1.81033e-05 -5.05629e-07)
(0.000704871 -1.85218e-05 -9.7973e-07)
(0.000312423 -1.42581e-05 -1.14078e-06)
(0.000545934 2.30938e-05 2.15345e-06)
(0.000589272 -3.59018e-05 3.37709e-06)
(0.000439403 -1.0598e-06 -4.46497e-07)
(0.000815157 -1.44997e-05 -8.54418e-07)
(0.000860853 -3.80356e-05 -1.89363e-06)
(0.00115073 -2.90609e-05 -1.05586e-06)
(0.000581649 -8.89927e-06 -3.47558e-06)
(0.000589952 -1.17453e-05 -4.99252e-06)
(0.000959756 -1.61029e-05 -4.17039e-06)
(0.000978055 -2.18918e-05 -6.14837e-06)
(0.000821898 -8.06817e-06 -1.40888e-07)
(0.000814927 -1.11632e-05 -3.96825e-07)
(0.00107793 -1.26332e-05 8.64622e-08)
(0.000827623 -6.06496e-06 9.3575e-08)
(0.000829224 -1.19036e-05 1.02432e-07)
(0.00110267 -1.07383e-05 2.02635e-07)
(0.000830482 -3.88546e-06 4.80472e-08)
(0.000831248 -7.10607e-06 4.06219e-08)
(0.00110519 -6.58459e-06 1.81851e-07)
(0.000831828 -2.62701e-06 5.35918e-08)
(0.000832754 -4.85781e-06 5.06784e-08)
(0.00110837 -4.46972e-06 1.84799e-07)
(0.000832084 -1.72913e-06 5.1624e-08)
(0.00083301 -3.16714e-06 5.11702e-08)
(0.00110923 -2.97744e-06 1.85406e-07)
(0.000831729 -1.10361e-06 5.8971e-08)
(0.000832567 -2.0512e-06 5.16692e-08)
(0.00110912 -1.92663e-06 1.84896e-07)
(0.000830687 -7.07568e-07 5.96299e-08)
(0.000831646 -1.28707e-06 5.97793e-08)
(0.00110811 -1.21173e-06 1.72758e-07)
(0.000829659 -4.89343e-07 5.82892e-08)
(0.000830447 -7.88512e-07 5.48098e-08)
(0.00110671 -8.12534e-07 1.81282e-07)
(0.000828681 -3.14315e-07 8.41282e-08)
(0.000829325 -1.39416e-06 6.2035e-08)
(0.00110544 -6.0554e-07 2.22232e-07)
(0.000826692 -1.5822e-07 6.61938e-08)
(0.000827833 -1.6207e-06 -1.71079e-08)
(0.00110333 -3.25915e-07 3.15589e-07)
(0.000825362 -2.12021e-08 6.29991e-08)
(0.000826231 -4.70289e-07 3.39093e-08)
(0.00110109 -1.33782e-07 1.87331e-07)
(0.000823859 1.53575e-08 8.06624e-08)
(0.000824749 8.11726e-08 7.95768e-08)
(0.00109931 7.90236e-08 1.73343e-07)
(0.000822357 7.52767e-08 5.7368e-08)
(0.000823226 -1.31411e-07 5.62039e-08)
(0.00109726 -2.48613e-08 1.84974e-07)
(0.000821016 1.79377e-07 3.7643e-08)
(0.000821733 -9.28101e-07 6.7391e-08)
(0.00109527 2.75541e-07 2.43696e-07)
(0.000819542 1.83449e-07 3.25805e-08)
(0.000820191 2.37413e-07 2.12773e-08)
(0.00109351 2.90215e-07 1.52715e-07)
(0.000818038 1.20454e-07 3.38624e-08)
(0.000818595 5.73399e-09 4.78036e-08)
(0.00109158 2.77539e-07 1.98809e-07)
(0.000816034 1.67972e-08 2.75209e-08)
(0.000816879 -9.26167e-08 6.03107e-08)
(0.00108914 1.09401e-07 1.3924e-07)
(0.00081465 -8.22123e-08 3.94606e-08)
(0.000815305 9.80765e-08 4.42392e-08)
(0.00108681 1.60111e-08 1.76862e-07)
(0.000813263 -3.11258e-07 8.75696e-08)
(0.000813799 -1.78173e-07 5.29112e-08)
(0.00108507 -1.84187e-07 1.83614e-07)
(0.0008111 -3.83256e-07 8.26014e-08)
(0.000812219 -7.37382e-07 -1.95474e-08)
(0.00108267 -6.92297e-07 3.18756e-07)
(0.000809711 -2.45242e-07 -4.30911e-08)
(0.000810727 -1.4125e-07 -3.9913e-09)
(0.00108014 -4.09487e-07 1.89189e-07)
(0.000808424 -1.03927e-07 -5.07207e-08)
(0.00080932 2.58222e-07 3.91669e-08)
(0.00107857 -2.99768e-07 9.94221e-08)
(0.000806951 2.92498e-07 8.10738e-08)
(0.000808046 4.66635e-07 3.97927e-08)
(0.00107676 -3.29533e-08 1.08576e-07)
(0.000806171 5.73133e-07 1.02314e-07)
(0.000806653 -2.91071e-06 5.91757e-08)
(0.00107521 7.92719e-07 3.22326e-07)
(0.000804214 3.64867e-07 5.69621e-08)
(0.000804862 -1.98502e-06 3.54159e-08)
(0.00107344 7.70627e-07 2.44652e-07)
(0.000802757 7.26938e-08 6.33725e-08)
(0.000803241 7.88749e-08 7.01449e-08)
(0.00107112 2.33382e-07 1.7552e-07)
(0.0008011 3.13766e-09 6.13643e-08)
(0.000801844 -6.14467e-08 6.00618e-08)
(0.00106896 -2.00016e-08 2.04083e-07)
(0.000799785 1.76605e-07 2.31085e-08)
(0.000800445 7.06293e-08 5.07154e-08)
(0.00106698 5.54255e-08 1.75021e-07)
(0.000798397 4.71292e-07 4.1767e-08)
(0.000799055 4.573e-08 2.86573e-08)
(0.00106533 4.32494e-07 1.90704e-07)
(0.000796049 4.86528e-07 1.41896e-07)
(0.000797293 -6.68724e-07 5.48039e-08)
(0.00106276 8.2994e-07 1.48341e-07)
(0.000794856 3.11641e-07 1.07388e-07)
(0.000795596 3.02298e-07 1.33059e-07)
(0.00106031 5.03655e-07 1.52273e-07)
(0.000793312 1.44471e-07 4.84459e-08)
(0.000794059 1.05499e-07 4.25504e-08)
(0.00105856 3.49847e-07 1.84431e-07)
(0.000791766 -9.87366e-08 3.42707e-08)
(0.000792416 -9.22563e-09 6.49157e-08)
(0.00105646 1.45641e-08 1.83319e-07)
(0.000790275 -3.85404e-07 6.88527e-08)
(0.000791074 2.26178e-07 4.49807e-08)
(0.0010544 -2.73025e-07 1.21446e-07)
(0.000789762 -3.2375e-07 1.06173e-07)
(0.000790153 3.15594e-07 1.21859e-07)
(0.00105322 -7.3662e-07 2.81994e-07)
(0.000788028 -2.26087e-08 6.56038e-08)
(0.000788909 7.98127e-10 5.87192e-08)
(0.00105167 -1.40089e-07 1.78685e-07)
(0.000786206 1.37779e-07 3.69987e-08)
(0.000787228 9.6398e-08 6.41993e-08)
(0.00104922 9.42966e-09 2.25035e-07)
(0.000785014 1.32886e-07 2.73673e-08)
(0.000785658 4.68274e-07 3.86585e-08)
(0.0010473 2.81014e-07 9.09322e-08)
(0.000783438 -3.10374e-08 -4.26003e-09)
(0.000784112 2.85324e-07 6.84764e-08)
(0.00104544 2.66059e-08 1.70605e-07)
(0.000782125 -1.30603e-07 2.37014e-08)
(0.00078259 1.12488e-07 -4.30895e-08)
(0.00104339 -1.70162e-07 1.32055e-07)
(0.000781521 -1.08247e-07 1.13828e-07)
(0.00104194 -2.31483e-07 2.33547e-07)
(-0.00554217 -0.000439822 0.000274218)
(-0.00319725 -0.00201376 -8.08519e-07)
(-0.00758133 -0.000473005 0.000427774)
(-0.00814168 0.00039349 3.64089e-05)
(-0.00404165 0.000571992 0.000230241)
(-0.00492377 0.00297 0.000232232)
(-0.00602949 -0.00505704 0.000492549)
(-0.000178093 0.000877329 -1.0943e-05)
(-0.00527322 -0.000935633 -0.000192131)
(-0.000779242 -0.00532157 -0.000274529)
(-0.0139679 -0.00398685 0.000952985)
(0.0016714 -0.00191346 -0.00101515)
(-0.0164205 -0.00497054 0.000121835)
(-0.00562141 -0.0105254 0.000266669)
(-0.0172262 -0.00664302 0.00142271)
(-0.00819145 -0.00229879 0.000523975)
(0.00704595 -0.000617983 -0.000303225)
(0.00287816 -0.00071066 -0.000452076)
(0.0103195 0.00146883 -0.000381667)
(0.0101754 0.00148969 -0.000412998)
(0.00954886 0.00125997 -0.000766672)
(0.00292506 0.000379644 0.000115778)
(0.00614383 0.00171173 -0.000138972)
(0.00135749 -0.000543782 3.99903e-05)
(-0.00434555 4.65318e-05 -0.000120657)
(0.00373549 9.72782e-06 0.000425284)
(0.000975628 0.000113996 8.02402e-06)
(0.000796958 7.05841e-05 3.46075e-05)
(0.000579864 -0.000124732 1.12735e-05)
(0.00125979 -1.79112e-05 1.63483e-05)
(0.00093841 -0.000262382 4.98232e-05)
(0.000297371 -9.81596e-05 2.10225e-05)
(0.000319771 -1.67361e-05 1.64073e-06)
(0.000298569 -2.6185e-05 5.91837e-06)
(0.000463935 -4.38948e-05 6.81467e-06)
(0.000224384 -2.40234e-05 -4.67033e-07)
(0.00082781 -3.5985e-05 -1.43652e-06)
(0.000582241 -4.95985e-05 -1.43072e-06)
(0.00114724 -8.52384e-05 -1.25511e-06)
(0.000585845 -3.72365e-05 -4.37819e-06)
(0.000582442 -5.13928e-05 -5.50883e-06)
(0.000981726 -6.1504e-05 -5.08538e-06)
(0.000967617 -9.39964e-05 -5.85991e-06)
(0.000573519 -6.38378e-05 -4.44769e-06)
(0.000979369 -9.01038e-05 -6.95678e-07)
(0.000958842 -0.000113165 -5.2544e-06)
(0.000828245 -1.24805e-05 -1.53668e-07)
(0.00085422 -1.23522e-05 -6.79178e-07)
(0.00109633 -1.28228e-05 8.87769e-08)
(0.000832785 -1.24819e-05 4.94994e-08)
(0.00082935 -1.96488e-05 -1.92268e-07)
(0.00110892 -2.16737e-05 1.87621e-07)
(0.000833911 -7.653e-06 4.32499e-08)
(0.000837337 -1.05223e-05 1.13274e-07)
(0.00111149 -1.23454e-05 1.83854e-07)
(0.000834156 -5.14001e-06 4.82567e-08)
(0.000835929 -7.17861e-06 4.32114e-08)
(0.00111215 -8.5401e-06 1.84542e-07)
(0.000833603 -3.30626e-06 5.12152e-08)
(0.000835325 -4.49793e-06 5.51425e-08)
(0.00111186 -5.47187e-06 1.85256e-07)
(0.000832629 -2.16673e-06 5.24749e-08)
(0.000834005 -2.85147e-06 5.12334e-08)
(0.0011107 -3.53727e-06 1.85058e-07)
(0.000831398 -1.41162e-06 5.49608e-08)
(0.000832599 -1.80421e-06 5.28654e-08)
(0.00110922 -2.35718e-06 1.87968e-07)
(0.000830071 -9.12052e-07 5.85532e-08)
(0.000831077 -1.19887e-06 5.26541e-08)
(0.0011074 -1.48047e-06 1.88966e-07)
(0.000828711 -8.33033e-07 -3.91757e-08)
(0.000829428 -1.45921e-06 7.20126e-08)
(0.00110564 -1.0116e-06 1.68121e-07)
(0.000827196 -7.04447e-07 -4.94088e-08)
(0.000827998 2.22834e-07 -3.82553e-08)
(0.00110378 -1.24975e-06 4.97592e-08)
(0.000825715 -4.4345e-07 5.04724e-08)
(0.00082656 -5.20541e-07 3.69657e-08)
(0.00110177 -6.43198e-07 1.77879e-07)
(0.000824028 -2.96944e-07 5.51258e-08)
(0.000824933 9.56927e-09 2.8466e-08)
(0.00109959 -5.40092e-07 1.97308e-07)
(0.00082265 -1.4886e-07 6.62233e-08)
(0.000823412 -3.79342e-07 5.05987e-08)
(0.00109757 -2.45661e-07 1.82971e-07)
(0.000820898 -1.0365e-07 5.104e-08)
(0.000821789 -5.3897e-07 5.45049e-08)
(0.00109556 -1.3561e-07 1.71233e-07)
(0.000819297 -1.7131e-07 3.6492e-08)
(0.000820107 -1.58346e-07 -1.99448e-09)
(0.00109319 -9.24427e-08 2.12871e-07)
(0.000817432 -2.28829e-07 7.4248e-08)
(0.000818524 3.44136e-07 3.57497e-08)
(0.00109088 -3.18833e-07 1.84769e-07)
(0.000816029 -1.80633e-07 7.70341e-08)
(0.000816939 -2.94871e-07 6.42345e-08)
(0.00108874 -2.55815e-07 1.82422e-07)
(0.000814531 -1.17224e-07 5.7687e-08)
(0.000815384 7.65524e-08 6.167e-08)
(0.00108683 -1.87466e-07 1.78162e-07)
(0.000812803 -1.576e-07 -5.4183e-08)
(0.000813749 -8.01312e-08 5.98302e-08)
(0.00108449 -8.45144e-08 1.90148e-07)
(0.000811723 7.32377e-08 -1.06145e-07)
(0.000812507 3.87722e-07 -8.03309e-08)
(0.00108273 -2.7475e-07 6.08357e-08)
(0.000810438 4.28668e-07 7.82531e-08)
(0.000811169 6.95924e-07 -1.34164e-09)
(0.0010813 5.4242e-07 9.91875e-08)
(0.000808818 5.11417e-07 1.2968e-07)
(0.000809421 3.68351e-07 1.28909e-07)
(0.00107916 7.02093e-07 1.80279e-07)
(0.00080783 5.20673e-07 1.78886e-08)
(0.000808055 5.64826e-07 3.94938e-08)
(0.00107766 7.54994e-07 1.25348e-07)
(0.000805418 3.32378e-07 -7.71538e-09)
(0.000806416 -4.3951e-08 1.42047e-08)
(0.00107548 6.49497e-07 5.51453e-08)
(0.000803761 6.66563e-08 4.85878e-08)
(0.000804529 2.00036e-07 3.04782e-08)
(0.00107244 2.42624e-07 3.64394e-08)
(0.000802339 -2.34156e-08 6.68373e-08)
(0.000803128 -1.16249e-08 6.19609e-08)
(0.00107043 -4.79872e-08 1.77496e-07)
(0.000801175 -1.3335e-08 4.94158e-08)
(0.000801857 -1.15811e-07 4.21813e-08)
(0.00106885 -2.68227e-08 1.52079e-07)
(0.000799738 -4.2688e-08 5.62711e-08)
(0.000800409 1.47789e-08 4.98487e-08)
(0.00106708 -1.0577e-08 1.76703e-07)
(0.000798129 -1.45603e-07 4.16861e-08)
(0.000798927 -5.50626e-08 8.67897e-08)
(0.00106502 -7.89175e-08 1.9559e-07)
(0.000796544 -1.10289e-07 4.59435e-08)
(0.000797337 -2.93949e-07 2.55225e-08)
(0.00106293 -2.74489e-07 1.59319e-07)
(0.000795045 -8.58183e-08 6.82496e-08)
(0.000795627 -3.12571e-07 3.40307e-08)
(0.0010608 -1.40032e-08 2.23031e-07)
(0.000793039 -9.84742e-08 5.90134e-08)
(0.000794043 6.91494e-07 6.55779e-08)
(0.00105842 -2.07604e-07 1.82338e-07)
(0.000791683 1.72225e-07 7.56318e-08)
(0.000792754 -3.06774e-07 1.17653e-07)
(0.00105621 -3.37176e-09 1.87671e-07)
(0.000790733 4.60392e-07 9.79634e-08)
(0.000791433 -1.95861e-06 1.18879e-07)
(0.00105473 5.24702e-07 2.87708e-07)
(0.000789655 4.06388e-07 7.44241e-08)
(0.000790083 5.09348e-07 7.47279e-08)
(0.00105341 7.45634e-07 1.2732e-07)
(0.000788072 2.42712e-07 5.7313e-08)
(0.000788702 -4.16917e-08 4.38703e-08)
(0.00105159 4.01285e-07 1.90327e-07)
(0.000786596 3.15091e-07 6.58669e-08)
(0.000787316 -5.29703e-08 4.92907e-08)
(0.00104964 3.37508e-07 1.8867e-07)
(0.000784753 4.2265e-07 7.97586e-08)
(0.000785791 -7.47902e-08 7.50021e-08)
(0.00104739 5.52387e-07 2.51004e-07)
(0.000783297 3.39021e-07 2.96809e-08)
(0.000784006 3.67555e-07 6.3554e-08)
(0.00104507 5.67876e-07 1.70231e-07)
(0.00078178 1.81293e-07 4.69897e-08)
(0.00078239 1.48153e-07 1.27794e-08)
(0.00104305 3.0808e-07 1.79474e-07)
(0.000781295 -8.31831e-07 1.43852e-07)
(0.00104166 1.60533e-07 1.9709e-07)
(-0.00090459 -0.000706713 -4.4862e-05)
(0.00087869 0.000574407 -0.00014613)
(-0.000193535 -0.000236452 -2.77719e-05)
(0.00175681 0.00110988 0.000182969)
(-0.000951862 -0.00381475 0.00020448)
(-0.0011941 -0.000783009 7.05979e-05)
(0.00311886 0.00913761 -0.000304414)
(-0.00167653 0.00187085 0.000227159)
(0.00848224 0.000328963 0.00191613)
(0.001736 0.00527854 0.000707242)
(0.0053195 0.00540337 -0.00125831)
(-0.00015753 0.0085682 0.000847172)
(0.00850565 0.00326851 -0.00138855)
(0.00645003 0.00318088 -0.00299182)
(0.00948683 0.00351347 0.00187559)
(-0.00153687 0.00147388 1.7202e-05)
(0.00642025 -0.00081281 0.000356146)
(0.000903469 0.00608339 -0.000190207)
(0.00209221 0.00162222 -0.000428829)
(0.00846536 0.00532772 -0.000311557)
(-0.000795032 0.0146465 0.000210019)
(0.00403548 0.00976972 -0.00132233)
(0.00144368 0.0123788 -0.000175389)
(0.00283084 0.00742569 0.000116698)
(0.00451424 0.0106151 -0.000212094)
(0.00862261 0.00599431 7.17408e-05)
(0.00265169 0.0165545 0.000287564)
(0.00145247 0.000209097 2.66519e-07)
(-0.000207684 0.00185571 8.52322e-05)
(-0.00157791 0.000100844 5.12751e-06)
(-0.00153632 0.00209162 0.000394398)
(-0.00633163 0.00144172 -1.16985e-05)
(3.32077e-06 0.00016839 -8.6527e-06)
(0.00119584 -0.000173411 1.2646e-05)
(0.000658055 2.05241e-08 -3.47953e-05)
(0.00123193 0.000187371 -2.35437e-05)
(0.000230052 -0.000238361 -8.12906e-06)
(0.000311488 0.000216127 -2.10861e-05)
(0.000391776 -0.000293647 6.28476e-05)
(0.000340994 0.000213731 -8.0022e-06)
(0.000439019 0.000101151 -4.32514e-06)
(0.00045542 0.000553236 -2.28273e-05)
(0.000266165 -0.000223903 -2.33248e-06)
(0.0012324 0.000461869 8.66793e-05)
(0.000469268 -0.000299906 4.33506e-05)
(0.000611708 -0.000293303 1.56294e-05)
(0.000610919 -0.000276869 5.72825e-05)
(0.000549116 -0.000166039 2.33179e-05)
(0.000462477 -5.13528e-05 -2.50759e-07)
(0.000474617 -4.98723e-05 -3.30004e-06)
(0.000463373 -5.29493e-05 -3.38873e-07)
(0.000741517 -7.71078e-05 -7.79105e-07)
(0.000836064 -2.48235e-05 -7.17937e-07)
(0.00091581 -3.60245e-05 -1.33885e-06)
(0.00118378 -3.46092e-05 -1.0416e-06)
(0.00059577 -4.43452e-05 -3.94367e-06)
(0.000614727 -3.94759e-05 -5.03988e-06)
(0.000985744 -9.27211e-05 -4.75055e-06)
(0.00102034 -8.03144e-05 -6.59762e-06)
(0.000838977 -1.82217e-05 -1.28593e-07)
(0.000837707 -2.3929e-05 -5.58255e-07)
(0.00110362 -3.18387e-05 8.85201e-08)
(0.000838751 -1.02953e-05 1.13258e-07)
(0.000847318 -1.26748e-05 1.64484e-07)
(0.00112175 -1.68395e-05 2.13763e-07)
(0.000837431 -6.38605e-06 5.00933e-08)
(0.000840857 -7.54341e-06 4.69617e-08)
(0.00111705 -1.06985e-05 1.84698e-07)
(0.000835761 -3.85291e-06 5.5162e-08)
(0.000838517 -4.46361e-06 5.51722e-08)
(0.00111554 -6.40011e-06 1.8763e-07)
(0.00083403 -2.35085e-06 5.16234e-08)
(0.000835898 -2.71098e-06 3.36577e-08)
(0.00111305 -3.89964e-06 1.8547e-07)
(0.000832292 -1.45251e-06 5.05588e-08)
(0.000833731 -1.64711e-06 4.15102e-08)
(0.0011107 -2.36541e-06 1.85221e-07)
(0.000830519 -8.9465e-07 6.61072e-08)
(0.00083178 -9.83778e-07 4.9628e-08)
(0.00110841 -1.50097e-06 1.84277e-07)
(0.000828549 -5.97503e-07 7.29684e-08)
(0.000829803 -7.12081e-07 6.61685e-08)
(0.00110574 -8.63684e-07 1.64719e-07)
(0.000827517 -5.60561e-07 4.8095e-08)
(0.000828046 -5.77534e-07 7.18995e-08)
(0.0011038 -6.96089e-07 1.90841e-07)
(0.000825694 -5.24737e-07 1.4962e-08)
(0.000826607 -2.65416e-07 4.705e-08)
(0.00110198 -7.6535e-07 1.86357e-07)
(0.000824354 -3.55109e-07 2.39318e-08)
(0.000825147 -1.93543e-07 3.26897e-08)
(0.00109981 -6.10765e-07 1.76288e-07)
(0.000822565 -2.75013e-07 3.8879e-08)
(0.000823514 -1.10261e-07 4.37384e-08)
(0.00109777 -3.40097e-07 1.82754e-07)
(0.000820959 -2.54582e-07 1.48842e-09)
(0.000821816 -1.25865e-07 4.14935e-08)
(0.00109546 -4.23596e-07 1.56796e-07)
(0.000819366 -1.77837e-07 -2.7488e-09)
(0.000820204 1.20218e-07 3.98314e-08)
(0.00109329 -2.95073e-07 1.6507e-07)
(0.000818018 -6.27794e-09 2.57272e-08)
(0.000818739 1.81685e-07 4.42066e-08)
(0.00109137 -2.01406e-07 1.74741e-07)
(0.000816235 2.00041e-07 4.88713e-08)
(0.000817197 3.31423e-08 4.48097e-08)
(0.0010893 1.67463e-07 1.7854e-07)
(0.000814706 3.37838e-07 6.38138e-08)
(0.000815555 4.41616e-08 6.58171e-08)
(0.00108702 3.50319e-07 1.81643e-07)
(0.000813212 5.75773e-07 3.37266e-08)
(0.000814043 5.88339e-07 4.35706e-08)
(0.00108497 5.69601e-07 1.29523e-07)
(0.00081223 6.04291e-07 2.44476e-08)
(0.00081254 9.39976e-07 1.30875e-08)
(0.00108345 1.05339e-06 9.26565e-08)
(0.000810041 4.04796e-07 4.92731e-08)
(0.000810916 3.24865e-07 3.44707e-08)
(0.00108136 6.82073e-07 2.64274e-07)
(0.0008086 4.19948e-07 3.87505e-08)
(0.000809437 3.31835e-07 5.53027e-08)
(0.00107883 5.34427e-07 1.74786e-07)
(0.000806867 2.12597e-07 3.58179e-08)
(0.000807793 -5.77409e-07 3.88667e-08)
(0.00107669 7.32464e-07 2.79176e-07)
(0.000805337 -5.50378e-08 5.23932e-08)
(0.00080608 -1.36881e-07 3.80921e-08)
(0.00107456 -4.28052e-08 1.8691e-07)
(0.000803827 8.43946e-08 4.38414e-08)
(0.000804703 6.10213e-08 5.35815e-08)
(0.00107256 -4.31437e-08 1.88693e-07)
(0.000802725 1.69742e-07 3.7311e-08)
(0.000803234 6.43805e-07 6.70563e-08)
(0.00107079 2.78054e-07 9.58614e-08)
(0.000801051 7.53522e-08 4.26119e-08)
(0.000801739 9.32255e-08 4.66397e-08)
(0.00106901 1.74344e-07 1.78756e-07)
(0.000799648 -6.33955e-08 8.03558e-08)
(0.000800235 -7.54723e-08 -1.10414e-08)
(0.00106691 1.66816e-08 1.762e-07)
(0.000798135 -2.3124e-07 7.0645e-08)
(0.000798718 -2.19954e-07 8.95808e-08)
(0.001065 -1.93164e-07 1.91527e-07)
(0.000796451 -3.73856e-07 1.3607e-08)
(0.00079716 -3.90534e-07 3.65871e-08)
(0.00106284 -4.42623e-07 2.02089e-07)
(0.000794579 -3.28824e-07 3.13492e-08)
(0.000795684 1.15317e-06 5.01277e-08)
(0.00106039 -5.78413e-07 1.06867e-07)
(0.000793662 -1.49969e-08 1.24202e-07)
(0.000794436 1.57415e-07 5.15612e-08)
(0.00105857 -2.76042e-07 1.64998e-07)
(0.0007926 3.18146e-07 1.609e-07)
(0.00079317 4.96593e-07 1.51896e-07)
(0.00105737 2.87035e-07 8.16727e-08)
(0.000790704 3.64013e-07 9.56567e-08)
(0.000791488 -1.05758e-06 6.79706e-08)
(0.00105533 6.03112e-07 1.4999e-07)
(0.000789165 1.77083e-07 4.41835e-08)
(0.000789848 1.75155e-07 8.66721e-08)
(0.00105306 4.11866e-07 2.07419e-07)
(0.000787944 4.21171e-08 3.58463e-08)
(0.000788532 1.83705e-07 4.0985e-08)
(0.00105116 9.7966e-08 1.38023e-07)
(0.000786584 1.32238e-08 5.84181e-08)
(0.00078728 -8.75589e-09 4.76057e-08)
(0.00104941 3.39539e-08 1.6396e-07)
(0.00078507 1.44276e-07 5.8801e-08)
(0.000785954 1.05071e-06 4.2942e-08)
(0.00104758 -1.90434e-09 9.9427e-08)
(0.000783026 2.13546e-07 4.6668e-08)
(0.000784092 1.15902e-06 1.54692e-08)
(0.00104513 3.43851e-07 1.72136e-07)
(0.000781748 1.89407e-07 1.09602e-07)
(0.000782357 -2.95342e-08 5.39771e-08)
(0.00104288 2.0478e-07 1.73229e-07)
(0.000781059 -1.2562e-06 1.14282e-07)
(0.00104136 3.1373e-07 2.06891e-07)
(0.000904291 -0.00238577 0.000103095)
(0.00227905 0.00290986 0.000147782)
(0.00242585 -0.00208922 -0.000161518)
(-0.00343039 -0.00174128 0.000241496)
(0.00117741 -0.000876612 2.87591e-05)
(0.0013023 -0.004259 0.000143203)
(0.00275971 0.000229557 0.000136734)
(-0.00406006 -0.00159009 -4.87357e-05)
(0.00105779 0.000328836 -0.000179314)
(-0.00544451 -0.00274588 0.000151858)
(0.00400109 -0.00462741 0.000370455)
(-0.00902469 -0.00292958 -0.000101283)
(-0.00641152 0.000140862 9.508e-05)
(-0.00703604 -0.000314248 0.000181388)
(0.000546166 -0.0011248 0.000396244)
(-0.00415866 -0.00156578 -0.000484163)
(-0.00425127 0.0112032 2.93945e-05)
(0.00770955 0.0127875 -9.11515e-05)
(-0.00415795 0.00647221 0.000608643)
(-0.00146892 0.00354186 9.09742e-05)
(0.0136086 -0.00805083 0.00112426)
(0.0107364 -0.00652511 -5.73946e-05)
(0.0147721 -0.00855374 0.00018427)
(-0.000703333 -0.00278413 0.000800069)
(0.00437585 -0.000814112 0.000606324)
(0.00201595 0.00554522 0.000672783)
(-0.00174872 -0.000997675 0.000696511)
(0.0120316 -0.00999341 0.000178404)
(0.00651155 -0.00185808 0.000831997)
(0.00771828 -0.00525309 0.00132213)
(0.00904161 -0.00460883 0.000565432)
(0.00301305 -0.00121116 5.12942e-06)
(0.00208912 0.00179225 -0.000124182)
(0.00174759 -0.000901271 2.86225e-05)
(0.00105358 6.89175e-05 -7.88257e-05)
(0.00387196 -0.00043336 -5.73591e-05)
(0.00020542 -0.000679891 1.72238e-05)
(0.000444792 -0.000133362 -2.16243e-05)
(0.00103766 1.79759e-05 6.78491e-06)
(0.000721238 -0.000134382 -1.94011e-06)
(-0.000378379 -0.000280148 -4.64341e-05)
(0.00017853 -0.000374218 -9.86008e-07)
(0.00114613 -0.0013866 8.45251e-06)
(0.0004196 -0.000348149 9.77618e-06)
(0.00113691 0.000446045 3.36828e-05)
(0.00160342 0.000419222 2.62921e-05)
(0.00179131 0.000649484 9.50791e-05)
(0.00153703 0.00017136 -3.71367e-05)
(0.00139249 0.000175743 4.17327e-05)
(0.000353933 -4.28199e-05 -2.78869e-06)
(0.000519161 -5.4642e-05 -3.64464e-06)
(0.00053146 -6.07282e-05 -7.00054e-07)
(0.000840324 -0.000108264 -1.29822e-06)
(0.00035193 -5.77334e-05 -2.69407e-06)
(0.000650327 -7.74809e-05 -1.38336e-06)
(0.000647886 -0.000116706 1.1852e-07)
(0.000493159 -5.76024e-05 -5.6353e-07)
(0.000869072 -2.3911e-05 -1.17942e-06)
(0.000947546 -1.17557e-05 -1.61062e-06)
(0.00126081 -3.96875e-05 -1.15297e-06)
(0.000646506 -3.92419e-05 -4.34881e-06)
(0.000666892 -2.6134e-05 -5.56655e-06)
(0.00106851 -7.73954e-05 -5.12618e-06)
(0.00111465 -4.63253e-05 -6.65116e-06)
(0.000855687 -1.37985e-05 -2.65413e-07)
(0.000850324 -7.09393e-06 -6.58644e-07)
(0.0011314 -2.34059e-05 3.82467e-08)
(0.000847442 -7.76029e-06 9.82256e-08)
(0.000854918 -4.72148e-06 1.46971e-07)
(0.00113811 -1.29221e-05 2.0845e-07)
(0.000842213 -4.56291e-06 5.20378e-08)
(0.000844885 -2.86797e-06 5.50084e-08)
(0.00112532 -7.46922e-06 1.74395e-07)
(0.000838498 -2.76391e-06 3.36749e-08)
(0.000840784 -1.84124e-06 5.08561e-08)
(0.00112043 -4.4947e-06 1.85518e-07)
(0.00083559 -1.70029e-06 2.3542e-08)
(0.000837239 -1.27252e-06 6.80626e-08)
(0.00111579 -2.77874e-06 1.9751e-07)
(0.000833207 -1.05113e-06 4.05768e-08)
(0.00083455 -8.1771e-07 6.6731e-08)
(0.00111224 -1.7163e-06 1.94433e-07)
(0.000831105 -6.97981e-07 4.9684e-08)