/*--------------------------------*- C++ -*----------------------------------*\
| =========                 |                                                 |
| \\      /  F ield         | OpenFOAM: The Open Source CFD Toolbox           |
|  \\    /   O peration     | Version:  5.0                                   |
|   \\  /    A nd           | Web:      www.OpenFOAM.org                      |
|    \\/     M anipulation  |                                                 |
\*---------------------------------------------------------------------------*/
FoamFile
{
    version     2.0;
    format      ascii;
    class       surfaceVectorField;
    location    "4.9";
    object      Uf_0;
}
// * * * * * * * * * * * * * * * * * * * * * * * * * * * * * * * * * * * * * //

dimensions      [0 1 -1 0 0 0 0];

internalField   nonuniform List<vector> 
25687
(
(0.000679993 0.0066496 9.09755e-05)
(0.00185818 0.000924997 0.00012838)
(0.000584867 0.00510839 3.11573e-05)
(-0.00569653 0.00419171 -0.000158472)
(0.0023833 0.0040894 0.000165545)
(0.00162331 0.00710098 0.000239789)
(-0.0043003 -2.71553e-05 3.91835e-06)
(0.0024829 0.000895927 0.000102943)
(0.00258905 -0.00204538 -0.00115199)
(-0.00441327 0.000892523 -0.000382479)
(-0.00632301 0.000274494 -0.000200344)
(-0.00197518 0.000234896 -0.000247259)
(-0.00175525 -0.00470403 -0.000470245)
(-0.00109593 -0.00530263 -0.00113883)
(0.00274025 -0.00284712 -0.00043957)
(0.000145044 -0.00163258 -0.000266005)
(0.00274106 0.00439194 -2.61847e-06)
(0.00778743 0.00384151 0.00011063)
(0.00716756 0.00434953 -8.75426e-05)
(0.0119343 0.00781922 -0.000103494)
(0.000399087 -0.00984695 -0.000128058)
(0.00344216 -0.00661364 -8.35033e-05)
(0.00196211 -0.006858 -0.000195527)
(0.0043431 -0.0110874 -0.000465385)
(0.000381291 0.00029416 2.74531e-05)
(0.00125704 0.000291118 -3.72249e-06)
(0.0013183 0.000371998 -8.35409e-05)
(0.00121436 9.82578e-05 1.50081e-05)
(0.000301746 -1.14339e-05 -1.93046e-06)
(0.0004283 -1.90983e-05 -2.83298e-06)
(0.000453658 -2.14295e-05 3.76714e-07)
(0.000747866 -2.33813e-05 3.30074e-07)
(0.000301417 -1.27624e-05 -2.16603e-06)
(0.000545226 -2.15284e-05 -1.64642e-06)
(0.000541754 -2.52895e-05 -1.74505e-06)
(0.000804184 -1.45622e-05 -8.64191e-07)
(0.000861902 -3.10408e-05 -1.25737e-06)
(0.00113568 -2.3405e-05 -1.04435e-06)
(0.000577017 -2.17078e-05 -4.37245e-06)
(0.000584159 -2.43783e-05 -5.02313e-06)
(0.000956419 -4.01232e-05 -5.36375e-06)
(0.000963036 -4.64794e-05 -6.35642e-06)
(0.000815563 -8.30498e-06 -1.32532e-07)
(0.000805565 -1.67607e-05 -4.57521e-07)
(0.00106567 -1.23721e-05 7.85876e-08)
(0.0008219 -5.17748e-06 1.2422e-07)
(0.000824799 -1.15475e-05 1.84467e-07)
(0.00109527 -7.7608e-06 2.06752e-07)
(0.000825998 -3.19828e-06 1.84667e-08)
(0.000826103 -7.02853e-06 3.46201e-08)
(0.00109838 -4.76289e-06 1.7687e-07)
(0.000828305 -1.84653e-06 -4.93944e-08)
(0.000828775 -4.52376e-06 3.34729e-08)
(0.00110352 -2.97513e-06 1.90143e-07)
(0.000828365 -1.05349e-06 -2.84368e-08)
(0.000829287 -3.15919e-06 -2.92888e-08)
(0.00110487 -1.46303e-06 1.14918e-07)
(0.000828355 -7.46904e-07 2.80706e-08)
(0.000828973 -1.87635e-06 5.17794e-08)
(0.00110475 -1.02217e-06 1.87004e-07)
(0.000827637 -5.23625e-07 2.83141e-08)
(0.00082836 -3.90045e-07 4.05848e-08)
(0.0011043 -7.3292e-07 1.6252e-07)
(0.000826723 -2.59685e-07 6.10304e-08)
(0.00082743 -6.7168e-07 5.31124e-08)
(0.00110323 -5.05511e-07 1.82411e-07)
(0.000825198 -1.94455e-07 6.72837e-08)
(0.000826112 -7.21185e-07 6.83348e-08)
(0.00110161 -9.39508e-08 1.67853e-07)
(0.000823441 -3.25435e-07 9.89548e-08)
(0.000824494 3.03859e-07 7.03293e-08)
(0.00109933 -3.28445e-07 1.66327e-07)
(0.000822638 -2.76823e-07 8.69904e-08)
(0.000823193 -2.36023e-07 8.1091e-08)
(0.00109768 -4.41361e-07 3.01349e-07)
(0.000821079 -1.08617e-07 5.48141e-08)
(0.000821915 -1.67116e-07 2.07545e-08)
(0.00109621 -2.2029e-07 1.6858e-07)
(0.000819413 -1.15573e-08 6.77277e-08)
(0.00082029 -1.84784e-07 6.45273e-08)
(0.00109393 1.71866e-08 1.87166e-07)
(0.000817915 -3.4767e-09 5.74846e-08)
(0.000818649 -7.59569e-07 7.79624e-08)
(0.00109181 3.90035e-08 2.17759e-07)
(0.000816383 1.01298e-07 5.51367e-08)
(0.00081728 -1.30059e-07 1.28504e-07)
(0.00108986 2.7997e-08 1.86778e-07)
(0.00081494 2.63607e-07 7.05054e-08)
(0.000815825 -3.02895e-07 6.12729e-08)
(0.00108789 3.24407e-07 2.11024e-07)
(0.000813136 3.66952e-07 7.32509e-08)
(0.000814178 4.2474e-07 1.20217e-07)
(0.00108565 4.8234e-07 2.01495e-07)
(0.00081232 3.10467e-07 5.99733e-08)
(0.000812644 -1.14428e-06 4.64799e-08)
(0.00108393 5.72234e-07 1.92436e-07)
(0.000810688 2.74514e-07 1.7023e-08)
(0.000811259 1.59337e-07 4.85357e-08)
(0.00108249 2.7324e-07 1.83936e-07)
(0.00080853 8.8777e-08 7.33622e-09)
(0.000809412 -4.70561e-07 -8.48182e-09)
(0.00107978 4.4731e-07 1.31252e-07)
(0.000807119 -3.60473e-07 -9.44231e-09)
(0.00080757 -3.44384e-07 5.38215e-08)
(0.00107734 -2.4655e-07 1.82434e-07)
(0.000805556 -5.07818e-07 -2.1328e-08)
(0.000806315 2.00347e-06 4.28424e-08)
(0.00107551 -7.6126e-07 1.60503e-09)
(0.000803824 -3.07449e-07 -1.63216e-08)
(0.000804943 1.2151e-06 1.40973e-08)
(0.00107315 -6.33844e-07 1.84399e-07)
(0.000802789 -1.07621e-07 1.10483e-08)
(0.000803485 -1.41258e-06 5.90117e-08)
(0.0010713 -2.29228e-07 2.01043e-07)
(0.000801617 6.24663e-08 5.21443e-08)
(0.000802293 1.64947e-07 5.74142e-08)
(0.00107005 -7.03787e-08 1.35831e-07)
(0.000799843 1.66162e-07 4.31349e-08)
(0.000800778 1.75551e-07 4.42045e-08)
(0.00106807 2.6177e-07 1.6672e-07)
(0.000798359 1.5904e-07 3.54747e-08)
(0.000799045 2.52454e-07 3.88689e-08)
(0.00106582 2.0708e-07 1.73526e-07)
(0.000796533 1.54341e-07 2.11247e-08)
(0.00079751 1.10913e-07 3.42582e-08)
(0.00106359 2.24681e-07 1.51943e-07)
(0.000795141 2.50666e-07 4.1791e-08)
(0.000795971 1.65542e-07 3.65801e-08)
(0.00106132 2.05682e-07 1.67497e-07)
(0.00079358 3.86799e-07 1.14233e-07)
(0.000794491 2.63858e-07 4.25739e-08)
(0.00105947 5.3613e-07 1.88582e-07)
(0.000792716 2.29204e-07 9.65462e-08)
(0.00079307 -1.08114e-06 1.1901e-07)
(0.00105798 5.4775e-07 1.9749e-07)
(0.000791094 -8.87223e-09 4.43693e-08)
(0.000791658 1.48659e-07 4.90898e-08)
(0.00105623 8.04394e-08 1.78688e-07)
(0.000789438 -3.10048e-07 8.45755e-10)
(0.000790048 -2.03315e-08 4.32547e-08)
(0.00105389 -7.57401e-08 1.75726e-07)
(0.000788511 -4.57215e-07 9.52177e-08)
(0.000788832 1.05929e-06 1.41772e-09)
(0.00105245 -7.12814e-07 -1.53344e-08)
(0.000786754 -3.11977e-07 1.66443e-07)
(0.000787563 -3.76465e-07 1.2568e-07)
(0.00105053 -4.7072e-07 1.89512e-07)
(0.000785214 -2.25392e-07 1.33947e-08)
(0.000785974 -5.56592e-08 6.99586e-08)
(0.0010482 -3.46963e-07 1.76882e-07)
(0.000783811 -2.08709e-07 -3.52021e-10)
(0.0007845 -3.57047e-08 -5.82529e-11)
(0.00104636 -2.61595e-07 1.79344e-07)
(0.000782401 -3.43599e-07 5.08091e-08)
(0.000783071 -7.69519e-08 9.39072e-08)
(0.00104439 -2.95101e-07 1.76089e-07)
(0.000780995 -3.68937e-07 1.27368e-08)
(0.000781727 -3.77339e-07 4.53537e-08)
(0.00104269 -5.87689e-07 1.76572e-07)
(0.00077908 -2.50927e-07 2.378e-08)
(0.000780037 1.04763e-06 3.2951e-08)
(0.00104038 -3.78182e-07 9.6249e-08)
(0.000778606 -5.21335e-07 4.60513e-08)
(0.00103791 -3.10465e-07 2.70513e-07)
(0.00365407 -0.00218547 0.000202937)
(-0.00128635 -0.00358663 0.000257746)
(0.00451656 -0.00755348 6.61573e-05)
(0.00599815 0.00261708 0.00021222)
(-0.00142944 0.000633825 0.00022127)
(0.00860597 -0.00279938 3.57646e-05)
(-0.00146592 -0.00855872 0.000321211)
(-0.000772934 0.00219931 2.69188e-05)
(0.00640866 0.00261892 0.000218284)
(0.000219223 0.0010165 0.000230346)
(-0.000772861 -0.0090954 0.00117638)
(0.000526259 -0.00110162 0.000271165)
(-0.00223394 -0.00213935 3.50099e-05)
(0.0178317 -0.00133443 -6.75657e-05)
(0.00388967 -0.00348751 -0.00112115)
(0.0198492 -0.00310299 -0.000349439)
(-0.00034923 -0.0134854 0.000996973)
(-0.0116431 -0.00144216 6.62708e-05)
(-0.00503777 -0.00682241 0.000282634)
(-0.00571718 -0.0156757 0.000828888)
(-0.00325867 -0.00568652 -6.17007e-05)
(1.13624e-05 -0.00510892 0.00224388)
(-0.00353711 -0.0044731 0.000101962)
(0.00721331 -0.00177301 7.6692e-05)
(0.00490871 -0.0051796 -0.000175452)
(0.00343961 -0.00247464 -0.000164649)
(0.00961045 -0.00104027 -0.000696856)
(-0.00395572 0.00469423 -0.00015608)
(0.00146718 0.00091615 0.000136632)
(0.0106353 -0.004046 0.000189314)
(0.00165509 -0.00222578 0.000239409)
(0.00670359 -0.00277267 0.000367778)
(0.00807943 -0.00493724 0.00100439)
(0.000342937 -0.000180366 2.81744e-05)
(0.00151858 4.4859e-05 9.40666e-05)
(0.00110055 8.5364e-06 0.000115909)
(0.00065287 4.54386e-05 -3.408e-05)
(0.000776396 -3.08032e-06 5.16918e-05)
(0.000301794 -7.30279e-06 -1.711e-06)
(0.00046836 -2.64582e-05 -3.11451e-06)
(0.000443276 -4.07861e-05 -3.36914e-07)
(0.000720301 -5.18336e-05 -8.5103e-07)
(0.000322293 -3.06791e-05 -1.15934e-06)
(0.00055532 -1.57263e-06 2.20488e-06)
(0.000603372 -6.25535e-05 3.29192e-06)
(0.000445853 -2.53539e-05 -3.74445e-07)
(0.000820725 -3.13685e-05 -8.50961e-07)
(0.000874514 -5.55924e-05 -1.89305e-06)
(0.00116186 -5.38906e-05 -1.07685e-06)
(0.000588846 -2.77759e-05 -3.50933e-06)
(0.000600537 -2.75466e-05 -5.03525e-06)
(0.000968049 -4.50736e-05 -4.22572e-06)
(0.000993293 -4.51793e-05 -6.32601e-06)
(0.000824003 -1.84496e-05 -1.40731e-07)
(0.000821814 -2.1461e-05 -3.9645e-07)
(0.0010816 -2.7667e-05 8.30299e-08)
(0.0008277 -1.25139e-05 9.49162e-08)
(0.000832269 -1.84863e-05 1.04965e-07)
(0.00110366 -2.01921e-05 2.02783e-07)
(0.000829421 -7.83067e-06 4.96267e-08)
(0.000831992 -1.11948e-05 4.32576e-08)
(0.00110439 -1.2333e-05 1.81962e-07)
(0.000830112 -5.14504e-06 5.35989e-08)
(0.000832154 -7.43092e-06 5.18846e-08)
(0.00110662 -8.00464e-06 1.84513e-07)
(0.000829815 -3.35711e-06 5.09011e-08)
(0.000831536 -4.82682e-06 5.09379e-08)
(0.00110683 -5.35322e-06 1.84466e-07)
(0.000829116 -2.15731e-06 6.42972e-08)
(0.000830483 -3.04446e-06 5.23239e-08)
(0.00110622 -3.37112e-06 1.85016e-07)
(0.00082816 -1.41952e-06 6.5379e-08)
(0.000829288 -1.72126e-06 6.63276e-08)
(0.00110508 -2.24091e-06 2.18668e-07)
(0.000827016 -1.00995e-06 6.04119e-08)
(0.000827946 -1.25576e-06 5.4891e-08)
(0.00110372 -1.44535e-06 1.83925e-07)
(0.000825272 -6.68194e-07 7.13797e-08)
(0.000826542 1.18367e-07 5.67328e-08)
(0.00110191 -1.18296e-06 1.37622e-07)
(0.000824191 -2.50807e-07 5.24621e-08)
(0.000825017 1.19643e-06 8.99116e-08)
(0.00109989 -5.59622e-07 7.69494e-08)
(0.000822561 -3.30216e-08 1.48744e-08)
(0.000823466 -2.11159e-07 3.60278e-08)
(0.00109805 -9.56029e-08 1.8479e-07)
(0.000821163 9.5072e-10 3.04536e-08)
(0.000821958 1.65291e-07 6.5641e-08)
(0.00109614 3.08391e-08 1.43421e-07)
(0.000819504 1.40194e-07 7.47577e-08)
(0.000820463 2.61239e-08 5.42187e-08)
(0.00109408 6.0453e-09 1.74896e-07)
(0.000817935 3.04291e-07 1.48966e-07)
(0.000818853 3.95667e-07 6.96587e-08)
(0.00109184 4.06367e-07 1.01599e-07)
(0.000816805 2.69746e-07 1.34662e-07)
(0.000817235 -5.75205e-07 1.36624e-07)
(0.00109018 4.60297e-07 1.74957e-07)
(0.000815031 1.56852e-07 1.10965e-07)
(0.000815683 2.92838e-08 5.67904e-08)
(0.00108828 3.06972e-07 1.77312e-07)
(0.000813686 1.64977e-07 9.3469e-08)
(0.000814187 -2.06946e-07 9.44501e-08)
(0.00108609 1.51859e-07 2.07533e-07)
(0.000811555 7.64803e-08 3.50417e-08)
(0.000812533 -3.06812e-07 3.92996e-08)
(0.00108372 3.11369e-07 1.73478e-07)
(0.000810179 -3.32105e-07 2.30489e-08)
(0.000810749 5.49062e-08 5.45714e-08)
(0.00108152 -1.1215e-07 1.73789e-07)
(0.000808245 -4.87169e-07 3.79839e-08)
(0.000809219 1.66572e-06 5.44372e-08)
(0.0010793 -8.02786e-07 6.51894e-08)
(0.000806716 -4.02952e-07 1.0611e-07)
(0.000807678 -2.18115e-07 8.32533e-08)
(0.00107683 -5.25246e-07 1.7121e-07)
(0.00080575 -3.08166e-07 7.82766e-08)
(0.000806435 3.29365e-08 1.14614e-07)
(0.00107532 -5.46521e-07 2.70157e-07)
(0.000804669 1.01698e-07 8.94166e-08)
(0.000805455 -1.6576e-07 4.10795e-08)
(0.00107399 -2.61266e-07 2.38872e-07)
(0.000802801 4.71999e-07 1.05378e-07)
(0.000803946 4.28942e-07 2.22963e-07)
(0.00107199 5.8848e-07 8.02568e-08)
(0.000801738 2.9192e-07 4.94785e-08)
(0.000802066 7.84732e-07 9.2573e-08)
(0.00107011 7.58822e-07 9.56741e-08)
(0.000799783 3.54029e-08 3.99402e-08)
(0.000800456 7.35557e-07 6.99786e-08)
(0.00106804 8.87439e-08 1.79351e-07)
(0.000798282 3.26951e-08 3.76539e-08)
(0.000799041 3.40946e-07 4.62488e-08)
(0.00106566 5.54052e-08 1.72632e-07)
(0.000796885 1.06633e-07 4.97129e-08)
(0.000797601 -2.77988e-09 5.34044e-08)
(0.00106377 7.42471e-08 1.78094e-07)
(0.000795356 2.55468e-07 3.73611e-08)
(0.000796156 1.01461e-07 5.10757e-08)
(0.00106194 2.69079e-07 1.86384e-07)
(0.00079391 4.06104e-07 4.73271e-08)
(0.000794677 3.65993e-07 3.17738e-08)
(0.00105985 5.04651e-07 1.67263e-07)
(0.000792047 3.12001e-07 7.15752e-08)
(0.000792951 -8.55797e-07 7.84636e-08)
(0.00105754 6.49188e-07 1.95941e-07)
(0.000790702 6.43236e-08 4.79769e-08)
(0.000791348 -1.3872e-07 5.27051e-08)
(0.00105549 1.97679e-07 1.86453e-07)
(0.000789195 -4.5579e-08 4.38395e-08)
(0.000789911 -3.1002e-08 -3.90756e-08)
(0.00105354 -3.50122e-08 1.81147e-07)
(0.000788101 -2.16845e-07 3.18421e-08)
(0.000788619 -3.33171e-07 1.03618e-07)
(0.00105176 -1.06503e-07 2.43931e-07)
(0.000786726 -2.41613e-07 2.92125e-08)
(0.000787534 -1.40546e-07 5.09412e-08)
(0.00105029 -5.15579e-07 1.51688e-07)
(0.000785272 -1.39915e-07 5.65271e-08)
(0.000786103 -6.25357e-08 7.34943e-08)
(0.00104837 -1.78448e-07 1.76532e-07)
(0.00078371 -9.00069e-08 9.41723e-08)
(0.000784563 3.42086e-09 8.40896e-08)
(0.00104629 -2.23252e-07 1.83122e-07)
(0.000782416 -1.00041e-07 8.84667e-08)
(0.000783059 -1.2826e-06 1.096e-07)
(0.00104444 -1.15272e-08 2.49588e-07)
(0.0007809 -2.83582e-07 6.55717e-08)
(0.000781498 -3.49456e-07 5.34886e-08)
(0.00104256 -2.17761e-07 1.7991e-07)
(0.000779305 -3.22896e-07 5.52183e-08)
(0.000779991 2.86412e-07 7.25142e-08)
(0.00104037 -5.03499e-07 2.45023e-07)
(0.000779008 1.04786e-07 4.95075e-08)
(0.001039 -3.4317e-07 7.9966e-08)
(-0.00566615 -0.000519622 0.000276091)
(-0.0031992 -0.00204165 1.44093e-06)
(-0.00774197 -0.000543781 0.000438174)
(-0.00839448 0.000351115 3.60327e-05)
(-0.00399519 0.000535853 0.000232584)
(-0.00492321 0.00298926 0.000234941)
(-0.00686464 -0.0051122 0.000426084)
(-0.000870406 0.000992076 -4.35827e-06)
(-0.00560602 -0.000906103 -0.000172405)
(-0.000906739 -0.00511025 -0.000319827)
(-0.0150676 -0.00341207 0.00085073)
(0.00136839 -0.00176267 -0.00104698)
(-0.0162792 -0.00492935 1.24662e-05)
(-0.0055698 -0.0101626 0.000183899)
(-0.0177911 -0.00627976 0.00127625)
(-0.00811565 -0.00289782 0.000478963)
(0.00513432 -0.000223223 -0.000191883)
(0.000695522 -0.000413814 -0.00036067)
(0.008778 0.00171687 -0.000114864)
(0.00804677 0.00182526 -0.000192328)
(0.00831466 0.00146871 -0.000816431)
(0.0031203 -1.54887e-05 0.000121403)
(0.00596663 0.00110255 -0.000121423)
(0.001392 -0.000755235 3.9154e-05)
(-0.0041818 -0.00016003 -0.000154705)
(0.00388457 -0.000301005 0.000394777)
(0.00103791 7.8109e-05 7.72842e-06)
(0.00084487 3.43503e-05 3.27802e-05)
(0.000634963 -0.000147318 1.12423e-05)
(0.00131296 -3.74776e-05 1.63425e-05)
(0.000989841 -0.000294047 4.94966e-05)
(0.000312523 -0.00010744 2.11269e-05)
(0.000337441 -3.12979e-05 1.68002e-06)
(0.000312798 -3.50825e-05 5.85258e-06)
(0.000487357 -5.9215e-05 6.60423e-06)
(0.000237505 -3.24014e-05 -5.33708e-07)
(0.000841407 -4.56623e-05 -1.43903e-06)
(0.000597426 -5.46482e-05 -1.43602e-06)
(0.00116715 -0.000100883 -1.34482e-06)
(0.000601527 -4.76365e-05 -4.32592e-06)
(0.00060147 -6.11439e-05 -5.40112e-06)
(0.0010052 -7.73555e-05 -4.99461e-06)
(0.000997524 -0.000109757 -5.75764e-06)
(0.000586768 -6.81691e-05 -4.52179e-06)
(0.00100153 -9.71215e-05 -8.67285e-07)
(0.000977599 -0.000119584 -5.33348e-06)
(0.000835252 -1.78418e-05 -1.50917e-07)
(0.000865204 -1.4409e-05 -6.90055e-07)
(0.00110805 -2.06308e-05 8.74385e-08)
(0.000836007 -1.60012e-05 5.33269e-08)
(0.000834703 -2.15096e-05 -1.82112e-07)
(0.00111456 -2.69032e-05 1.86902e-07)
(0.00083482 -9.90292e-06 4.55127e-08)
(0.000839672 -1.1752e-05 1.13337e-07)
(0.0011137 -1.56732e-05 1.84241e-07)
(0.000833674 -6.58355e-06 4.92239e-08)
(0.000836339 -8.04073e-06 4.49194e-08)
(0.0011123 -1.06815e-05 1.84593e-07)
(0.0008322 -4.19838e-06 5.23603e-08)
(0.000834541 -5.03472e-06 5.5867e-08)
(0.0011107 -6.84077e-06 1.85494e-07)
(0.000830637 -2.66237e-06 5.43498e-08)
(0.000832418 -3.13569e-06 5.11284e-08)
(0.00110867 -4.3408e-06 1.85417e-07)
(0.000829116 -1.68005e-06 5.58433e-08)
(0.000830526 -1.92165e-06 5.32503e-08)
(0.00110672 -2.77174e-06 1.89558e-07)
(0.000827481 -1.08604e-06 5.12114e-08)
(0.000828695 -1.27918e-06 5.22778e-08)
(0.00110456 -1.73306e-06 1.87544e-07)
(0.00082626 -7.69953e-07 7.52541e-08)
(0.000826942 -1.81019e-06 3.24575e-08)
(0.00110273 -1.19739e-06 2.83624e-07)
(0.000824314 -4.90626e-07 7.34947e-08)
(0.000825369 1.66714e-07 7.34497e-08)
(0.0011007 -9.48707e-07 2.84641e-07)
(0.000822828 -2.30022e-07 8.67849e-08)
(0.000823794 -3.39669e-07 3.67668e-08)
(0.00109842 -4.65277e-07 1.82888e-07)
(0.000821252 -1.0149e-07 8.94097e-08)
(0.000822119 -3.82328e-07 9.93234e-08)
(0.00109633 -2.24606e-07 2.20029e-07)
(0.000819891 -4.70056e-08 4.91148e-08)
(0.000820532 -2.09273e-07 4.92988e-08)
(0.00109439 -1.03725e-07 1.79988e-07)
(0.000818066 3.84476e-08 5.72956e-08)
(0.00081896 3.03812e-07 4.00939e-08)
(0.00109237 -3.14623e-08 2.1079e-07)
(0.000816168 2.35152e-08 5.8778e-08)
(0.000817216 -2.52262e-07 5.76505e-08)
(0.00108973 1.44976e-07 1.88354e-07)
(0.000814696 -4.7826e-08 4.02632e-08)
(0.000815593 -1.90536e-07 3.7779e-08)
(0.0010875 -8.69974e-08 1.89433e-07)
(0.000813269 -1.30039e-07 4.02982e-08)
(0.000814084 -2.32379e-07 2.9599e-08)
(0.00108565 -5.19562e-08 1.7215e-07)
(0.000811611 -1.43342e-07 5.88244e-08)
(0.000812517 7.59807e-08 6.03305e-08)
(0.0010836 -2.66455e-07 1.63986e-07)
(0.000809772 -4.25782e-08 8.59598e-08)
(0.000810875 -6.69836e-08 7.34217e-08)
(0.0010811 -5.8105e-08 2.15646e-07)
(0.000808673 2.21087e-07 9.96976e-08)
(0.000809548 -7.06306e-07 8.79719e-08)
(0.00107927 -2.58862e-08 3.09284e-07)
(0.00080719 6.06818e-07 9.1748e-08)
(0.000808158 -1.22817e-06 6.53236e-08)
(0.00107767 6.39119e-07 2.47565e-07)
(0.000806225 7.02775e-07 7.74401e-08)
(0.000806552 -1.06034e-06 5.70566e-08)
(0.00107584 1.00405e-06 2.07913e-07)
(0.000804935 4.75661e-07 1.74569e-07)
(0.000805168 -1.89803e-06 2.52504e-08)
(0.00107457 8.85097e-07 2.82413e-07)
(0.000803135 2.83883e-07 2.10198e-07)
(0.000803705 3.22129e-07 1.66905e-07)
(0.00107257 4.16914e-07 2.12554e-07)
(0.00080072 1.30436e-07 1.1308e-07)
(0.000801873 9.01306e-08 9.29535e-08)
(0.00106942 3.66352e-07 3.09284e-07)
(0.000799693 2.94787e-09 7.62946e-08)
(0.000800296 1.90586e-07 6.18038e-08)
(0.00106719 -1.91531e-08 1.75469e-07)
(0.000798392 2.82e-08 6.19971e-08)
(0.000799072 2.30376e-08 5.25612e-08)
(0.0010658 2.05377e-08 1.83836e-07)
(0.000796861 2.01523e-08 5.47679e-08)
(0.000797591 9.74946e-08 6.07109e-08)
(0.00106385 5.64846e-08 1.74708e-07)
(0.000795413 1.23091e-08 4.54944e-08)
(0.000796146 1.13577e-07 4.17156e-08)
(0.00106185 4.3427e-09 1.73684e-07)
(0.000793906 -2.06243e-08 6.28959e-08)
(0.000794636 4.56092e-07 2.90166e-08)
(0.00105994 5.31411e-09 1.73571e-07)
(0.000792063 -1.01275e-08 5.96015e-08)
(0.000792964 8.11637e-07 3.4607e-10)
(0.00105759 -8.51908e-08 9.03783e-08)
(0.000790656 9.46239e-08 -3.43192e-08)
(0.000791479 4.1614e-08 4.4446e-08)
(0.00105537 4.24085e-08 1.58372e-07)
(0.000789181 2.4863e-07 2.06588e-08)
(0.000790103 3.68661e-07 4.8191e-09)
(0.00105351 1.96473e-07 1.48639e-07)
(0.000788108 3.36083e-07 1.22733e-07)
(0.000788726 6.14407e-07 1.01223e-07)
(0.00105186 4.95086e-07 7.27768e-08)
(0.000787011 2.67377e-07 9.52161e-08)
(0.000787446 -1.52288e-06 5.14803e-08)
(0.00105045 4.83315e-07 2.43816e-07)
(0.00078536 2.0941e-07 1.01054e-07)
(0.000786029 -8.97815e-08 5.83566e-08)
(0.00104857 3.4521e-07 1.95843e-07)
(0.000783882 2.59077e-07 9.95094e-08)
(0.000784623 -8.57986e-08 7.57315e-08)
(0.00104657 3.19483e-07 1.84839e-07)
(0.000782149 2.26685e-07 7.46389e-08)
(0.000783017 2.07704e-07 8.2771e-08)
(0.0010444 4.4182e-07 9.31482e-08)
(0.000780587 1.14975e-07 6.04252e-08)
(0.000781357 -6.39826e-08 4.83889e-08)
(0.00104208 2.24622e-07 1.65295e-07)
(0.000779474 8.41226e-08 6.68104e-08)
(0.000779951 -2.44791e-07 5.20676e-08)
(0.00104023 1.29641e-07 1.84106e-07)
(0.000778903 1.12733e-07 5.95446e-08)
(0.00103896 1.09287e-07 1.63773e-07)
(-0.000743809 -0.000775137 -4.21423e-05)
(0.000995771 0.000382055 -0.000142069)
(-0.000108952 -0.000392992 -3.02098e-05)
(0.00175958 0.000940859 0.000192272)
(-0.000580078 -0.00392868 0.000204957)
(-0.000831295 -0.000697111 8.90536e-05)
(0.00216131 0.0088052 -0.00032563)
(-0.00204626 0.00151172 0.0002574)
(0.00920111 0.000229481 0.00157496)
(0.00309436 0.0045561 0.000810692)
(0.00479677 0.00502911 -0.00121601)
(-0.000215273 0.00735381 0.000942544)
(0.00785273 0.00309943 -0.00121934)
(0.00586477 0.00294879 -0.00287431)
(0.0109551 0.00451965 0.00207066)
(-0.00264347 0.00116348 1.78515e-05)
(0.00622783 -0.00116489 0.000404998)
(-0.000436001 0.00570674 -0.000161205)
(0.00164924 0.00150053 -0.00048202)
(0.00772701 0.00571956 -0.000406415)
(-0.000673283 0.0146341 0.000264049)
(0.00342895 0.00940054 -0.00134805)
(0.00115928 0.00971727 -0.00020996)
(0.0018835 0.00560948 -1.61659e-05)
(0.0048446 0.00900092 -0.00030467)
(0.00884446 0.00449746 -2.38587e-05)
(0.00264993 0.0148787 0.000101955)
(0.00100149 0.000169458 -4.12113e-05)
(-0.000130876 0.0015875 0.00011287)
(-0.00123365 1.43528e-06 -3.08873e-06)
(-0.00126478 0.00176324 0.000374886)
(-0.00628781 0.00131931 -1.47738e-05)
(8.63374e-05 0.000236728 -6.70918e-06)
(0.00127828 -0.000168998 1.04182e-05)
(0.000693045 7.78721e-05 -3.61091e-05)
(0.00128405 0.000278456 -2.71547e-05)
(0.000272328 -0.000168528 -7.94437e-06)
(0.000402592 0.00031036 -1.8103e-05)
(0.000426653 -0.000180128 6.50463e-05)
(0.000373057 0.0002891 -1.00118e-05)
(0.000493844 0.000149572 -5.29532e-06)
(0.000523548 0.000622594 -2.60046e-05)
(0.000298579 -0.000178996 -3.1054e-06)
(0.00118871 0.000474756 8.58359e-05)
(0.000483736 -0.000303783 4.17049e-05)
(0.000627947 -0.000292909 1.38577e-05)
(0.000637031 -0.000277301 5.14259e-05)
(0.000571341 -0.000169167 2.18199e-05)
(0.000479388 -5.41757e-05 -1.04627e-07)
(0.000487877 -5.08141e-05 -3.35897e-06)
(0.000477569 -4.9875e-05 -2.21951e-07)
(0.000760788 -7.84717e-05 -1.02053e-06)
(0.000843877 -2.39139e-05 -7.21416e-07)
(0.000926207 -3.13579e-05 -1.37837e-06)
(0.00119739 -3.35682e-05 -1.06473e-06)
(0.000607267 -4.4906e-05 -4.02336e-06)
(0.000624415 -3.78377e-05 -5.06798e-06)
(0.00100233 -9.50061e-05 -4.83523e-06)
(0.00103424 -7.88203e-05 -6.6967e-06)
(0.000842937 -1.7757e-05 -1.22198e-07)
(0.000842491 -2.0976e-05 -5.33929e-07)
(0.00111022 -3.14546e-05 8.6777e-08)
(0.00084019 -1.00868e-05 1.12766e-07)
(0.000849332 -1.07819e-05 1.6068e-07)
(0.00112482 -1.6577e-05 2.1385e-07)
(0.000837336 -6.32458e-06 5.1559e-08)
(0.000841084 -6.53583e-06 1.54863e-07)
(0.00111775 -1.07508e-05 1.86276e-07)
(0.000834663 -3.73342e-06 5.46366e-08)
(0.000837806 -3.77547e-06 5.70147e-08)
(0.00111481 -6.38848e-06 1.87838e-07)
(0.00083224 -2.1886e-06 5.00282e-08)
(0.000834364 -2.1459e-06 2.94082e-08)
(0.00111135 -3.74917e-06 1.85073e-07)
(0.000830087 -1.35074e-06 4.96852e-08)
(0.000831582 -1.25875e-06 2.91569e-08)
(0.00110836 -2.20617e-06 1.84711e-07)
(0.000828104 -8.26785e-07 3.35303e-08)
(0.000829356 -8.05752e-07 4.96781e-08)
(0.0011057 -1.47044e-06 1.83271e-07)
(0.000826055 -5.34289e-07 3.06399e-08)
(0.000827311 -6.21059e-07 3.19027e-08)
(0.0011029 -7.70778e-07 1.39823e-07)
(0.000824824 -3.99688e-07 3.67337e-08)
(0.00082554 -4.16574e-07 4.49044e-08)
(0.00110082 -6.71969e-07 1.9204e-07)
(0.000823114 -2.71486e-07 4.92853e-08)
(0.000823956 -2.46671e-07 5.58471e-08)
(0.00109896 -4.36139e-07 1.86951e-07)
(0.000821343 -1.96712e-07 5.92285e-08)
(0.000822215 -2.24488e-07 6.58328e-08)
(0.00109659 -3.65472e-07 1.87936e-07)
(0.000819601 -2.26044e-07 4.02809e-08)
(0.000820497 -1.37372e-08 4.52241e-08)
(0.00109433 -2.39631e-07 1.83222e-07)
(0.000818163 -2.69813e-07 4.04433e-08)
(0.000818906 -6.21161e-08 1.088e-07)
(0.00109215 -4.27939e-07 1.96101e-07)
(0.000816579 -1.48708e-07 3.66578e-08)
(0.000817369 2.23196e-08 7.58463e-08)
(0.00109011 -3.37091e-07 1.64413e-07)
(0.000814976 3.68973e-08 2.71175e-08)
(0.000815826 2.35962e-08 5.17334e-08)
(0.00108803 -8.54358e-08 1.70569e-07)
(0.000813327 1.60904e-07 4.96216e-08)
(0.000814239 -5.77371e-08 4.9357e-08)
(0.00108587 1.69335e-07 1.77573e-07)
(0.000811825 2.51574e-07 7.49235e-08)
(0.000812629 -9.02997e-08 6.77588e-08)
(0.00108372 2.6455e-07 1.88848e-07)
(0.000810537 5.44256e-07 7.54292e-08)
(0.000811239 -5.90272e-07 4.68143e-08)
(0.00108182 4.55274e-07 1.95412e-07)
(0.000809156 6.71306e-07 5.36051e-08)
(0.000809704 -2.18889e-06 3.82836e-08)
(0.00108017 1.08582e-06 2.71567e-07)
(0.000807413 6.42416e-07 3.06348e-08)
(0.000808118 -1.34674e-07 2.81083e-08)
(0.00107811 7.93933e-07 1.21963e-07)
(0.000805561 6.88668e-07 4.87685e-09)
(0.000806606 -3.24768e-07 3.87781e-08)
(0.00107562 9.77892e-07 1.57026e-07)
(0.000803885 3.95004e-07 1.7542e-08)
(0.000804799 1.83985e-07 1.24374e-08)
(0.00107325 9.18352e-07 4.61876e-08)
(0.000802626 1.43565e-08 4.96829e-08)
(0.000803227 -4.09412e-08 5.02005e-08)
(0.00107134 1.82787e-07 1.82669e-07)
(0.000801194 3.26611e-08 4.16868e-08)
(0.000801896 -8.2104e-09 5.17365e-08)
(0.00106956 -1.24834e-07 1.79502e-07)
(0.000799754 1.53106e-07 3.80732e-08)
(0.000800446 -4.01882e-08 3.51087e-08)
(0.00106761 2.29858e-07 1.8982e-07)
(0.00079829 1.05178e-07 5.12725e-08)
(0.000799012 -8.82364e-09 4.6628e-08)
(0.00106575 1.7431e-07 1.77947e-07)
(0.000796826 3.02477e-08 4.76645e-08)
(0.000797498 6.62016e-08 4.40796e-08)
(0.00106375 8.11802e-08 1.7817e-07)
(0.000795438 -1.50077e-07 2.52418e-08)
(0.000795921 2.77401e-07 5.89875e-08)
(0.00106188 -3.95071e-08 1.57469e-07)
(0.000793683 -2.63764e-07 -3.35244e-08)
(0.000794495 1.7557e-06 5.64318e-08)
(0.00105974 -4.09413e-07 1.08924e-07)
(0.000792333 -9.22347e-08 -1.48231e-08)
(0.00079318 -2.29382e-07 4.94102e-09)
(0.00105759 -3.62617e-07 2.40928e-07)
(0.000790976 1.41726e-07 8.35965e-08)
(0.000791771 -1.55387e-07 4.47413e-08)
(0.00105584 5.4268e-08 1.81003e-07)
(0.000789574 3.30701e-07 8.53536e-08)
(0.000790338 -9.3352e-07 2.04827e-07)
(0.0010541 3.30527e-07 2.64982e-07)
(0.00078805 3.93061e-07 2.99853e-08)
(0.000788803 3.35507e-07 4.91685e-08)
(0.00105212 5.94059e-07 2.02368e-07)
(0.000786515 1.89461e-07 1.46187e-08)
(0.00078719 -6.3857e-07 6.50692e-09)
(0.00105009 4.74854e-07 1.19191e-07)
(0.000785266 1.50846e-08 3.30292e-08)
(0.00078581 7.36666e-08 4.14002e-08)
(0.00104816 4.99699e-08 1.45513e-07)
(0.000783899 -1.38456e-08 5.8991e-08)
(0.000784587 -4.50262e-10 4.51933e-08)
(0.00104641 1.29687e-08 1.62039e-07)
(0.000782022 2.80501e-08 5.65315e-08)
(0.000783069 -3.79947e-07 2.20541e-08)
(0.00104432 -4.75554e-08 2.57553e-07)
(0.000780812 1.78777e-07 4.00302e-08)
(0.000781546 -2.82108e-07 -1.05364e-07)
(0.00104217 1.13829e-07 1.70011e-07)
(0.000779191 2.49217e-07 4.47996e-08)
(0.000780036 6.6852e-08 2.6975e-08)
(0.00104022 3.4499e-07 1.68938e-07)
(0.000778593 3.76332e-07 7.38616e-08)
(0.0010387 3.1389e-07 1.22528e-07)
(0.00112094 -0.00307032 0.000104915)
(0.00230818 0.00233484 0.000121522)
(0.0025623 -0.00246088 -0.000154048)
(-0.00311559 -0.00199779 0.000265845)
(0.00116156 -0.00207562 7.83104e-06)
(0.00173079 -0.00506583 0.000138161)
(0.00328854 0.000264921 -7.64296e-05)
(-0.00426059 -0.00284385 -0.000167714)
(0.0023043 0.00075923 -0.000853658)
(-0.00453083 -0.0036107 0.000174997)
(0.00452546 -0.00490517 0.000413411)
(-0.0084441 -0.00340188 -0.00010375)
(-0.00726908 0.000601233 0.000110815)
(-0.0067874 -3.3205e-05 0.000218187)
(0.000430359 -0.00105045 0.000451497)
(-0.000103846 -0.000454727 -0.000538797)
(-0.00348442 0.0159204 -0.0001266)
(0.009737 0.0149421 -0.00118717)
(-0.00291073 0.00306006 0.000463499)
(-0.00398215 0.00495353 -0.000131213)
(0.0130264 -0.00695693 0.000974862)
(0.0105174 -0.00712899 0.000115353)
(0.014317 -0.00860546 0.000275206)
(0.00116973 -0.00212338 0.00117961)
(0.00559872 -0.00346813 0.000105816)
(0.00161602 0.0010462 -0.000507298)
(0.000381686 -0.000202613 0.000782905)
(0.00834239 -0.00712459 0.000396433)
(0.00604327 -0.00103682 0.000640672)
(0.00844817 -0.00652395 0.00158495)
(0.0104855 -0.00429084 0.000679501)
(0.00367743 -0.00113254 1.38362e-05)
(0.0028655 0.00173971 -6.37752e-05)
(0.00222451 -0.000823112 5.22091e-05)
(0.00198968 0.000140855 -5.95725e-05)
(0.00518268 -0.000110319 -3.16665e-05)
(0.000253448 -0.000616469 1.60763e-05)
(0.000472689 -3.26835e-05 -2.20836e-05)
(0.00107366 8.82965e-05 6.86651e-06)
(0.000728166 -4.1558e-05 -1.39868e-06)
(-0.000367068 -0.000189033 -4.44647e-05)
(0.000231725 -0.000280504 -1.86217e-06)
(0.00121602 -0.00129824 3.33809e-06)
(0.000460846 -0.000223755 8.96792e-06)
(0.00119144 0.000502201 3.42811e-05)
(0.00167742 0.000445557 2.63509e-05)
(0.00177929 0.000702185 9.64513e-05)
(0.0016028 0.000215051 -3.9874e-05)
(0.00145833 0.000201609 4.32788e-05)
(0.000364483 -4.09359e-05 -2.67613e-06)
(0.000528015 -5.05386e-05 -3.48086e-06)
(0.000544624 -5.50785e-05 -4.10637e-07)
(0.000859812 -0.000103064 -9.62089e-07)
(0.000363695 -5.60031e-05 -2.60467e-06)
(0.000665853 -7.67094e-05 -1.23557e-06)
(0.000666265 -0.000116656 3.33601e-07)
(0.000507157 -5.35034e-05 -2.88768e-07)
(0.000874483 -1.80804e-05 -1.19115e-06)
(0.000953336 -6.49129e-07 -1.65904e-06)
(0.00127157 -3.20181e-05 -1.17204e-06)
(0.000655358 -3.44938e-05 -4.36399e-06)
(0.000675032 -2.01341e-05 -5.5782e-06)
(0.00108131 -7.19937e-05 -5.23917e-06)
(0.00112623 -3.85612e-05 -6.7543e-06)
(0.00085831 -1.00247e-05 -2.51277e-07)
(0.000852513 -6.48234e-07 -6.26233e-07)
(0.00113604 -1.82032e-05 3.57903e-08)
(0.000847687 -5.36394e-06 2.02778e-07)
(0.000855209 1.33124e-07 1.45757e-07)
(0.00113978 -9.7729e-06 2.07609e-07)
(0.000841741 -3.04004e-06 1.6035e-07)
(0.000844018 -1.30666e-06 1.53743e-07)
(0.00112515 -5.3153e-06 1.96033e-07)
(0.000837308 -1.9498e-06 3.17953e-08)
(0.000839186 -3.17646e-07 5.0578e-08)
(0.00111952 -3.27034e-06 1.88173e-07)
(0.000833571 -1.31127e-06 8.53698e-09)
(0.000835174 1.35384e-06 4.7425e-08)
(0.00111394 -2.2245e-06 1.25745e-07)
(0.000830706 -8.30085e-07 2.91433e-08)
(0.000832191 1.17094e-06 4.82549e-08)
(0.0011096 -1.44488e-06 1.24387e-07)
(0.000828581 -5.57868e-07 4.80563e-08)