/*--------------------------------*- C++ -*----------------------------------*\
| =========                 |                                                 |
| \\      /  F ield         | OpenFOAM: The Open Source CFD Toolbox           |
|  \\    /   O peration     | Version:  5.0                                   |
|   \\  /    A nd           | Web:      www.OpenFOAM.org                      |
|    \\/     M anipulation  |                                                 |
\*---------------------------------------------------------------------------*/
FoamFile
{
    version     2.0;
    format      ascii;
    class       surfaceScalarField;
    location    "0.6";
    object      alphaPhi10;
}
// * * * * * * * * * * * * * * * * * * * * * * * * * * * * * * * * * * * * * //

dimensions      [0 3 -1 0 0 0 0];

internalField   nonuniform List<scalar> 
24376
(
7.53099e-09
1.09029e-09
-1.35421e-08
3.44132e-09
9.87432e-09
8.05178e-09
5.60385e-09
3.87293e-09
2.0043e-09
-2.29546e-09
1.28104e-11
3.79373e-09
1.98393e-09
6.318e-09
5.1979e-10
2.14144e-08
-1.45839e-08
8.5481e-09
-1.73731e-09
1.82789e-11
-1.15782e-08
2.53061e-08
-2.4099e-09
-7.77419e-10
1.73885e-09
-1.12055e-09
-1.03363e-08
1.00889e-09
7.7333e-11
8.17401e-11
2.10682e-10
7.30798e-20
3.83888e-21
-1.82124e-20
-8.57412e-21
-6.35706e-20
9.5128e-19
-9.33182e-19
1.68996e-24
-3.64055e-22
-1.52794e-25
3.16286e-24
2.29899e-24
7.70362e-23
-2.83115e-23
1.27088e-28
-1.11887e-25
-2.62627e-29
6.76688e-33
-2.87909e-29
-5.58508e-33
1.78705e-36
-4.78981e-33
5.89188e-35
6.5748e-40
-3.81858e-37
-3.09241e-38
2.58099e-43
-1.22926e-40
-6.84145e-42
1.00595e-46
-3.42943e-44
-3.16273e-45
3.88394e-50
-8.64842e-48
7.65475e-48
1.48324e-53
-3.42826e-52
4.41825e-50
5.54934e-57
-8.12205e-55
3.55239e-54
2.09029e-60
-2.15413e-58
-1.41663e-57
7.60589e-64
-1.14577e-62
5.71404e-60
2.66878e-67
-1.38076e-65
1.25724e-63
6.18937e-70
-6.78828e-70
6.55754e-67
3.21104e-74
-9.00721e-73
2.2136e-70
3.91485e-76
-5.55058e-76
3.02057e-73
-4.57537e-80
-1.57849e-79
6.65072e-78
-5.11813e-84
-5.37492e-83
-7.26272e-80
-7.2051e-86
-9.89071e-86
-8.38987e-83
6.57318e-89
-1.1394e-90
1.26715e-85
-5.84189e-93
-6.75836e-95
1.58631e-89
1.1075e-94
2.65814e-97
-3.46249e-93
-6.26191e-99
-1.3771e-100
2.29489e-95
-5.6279e-101
7.88864e-104
-2.61353e-98
1.98995e-104
1.69892e-107
-2.92795e-101
3.59517e-108
-3.12756e-110
1.94182e-104
-9.30151e-111
-1.23349e-113
7.39584e-108
-2.47288e-114
-2.1952e-117
1.32635e-110
1.63942e-117
1.15752e-120
-4.4266e-114
-1.02121e-120
7.93454e-124
-1.83201e-117
7.62407e-125
1.10969e-125
-1.77323e-120
-8.00102e-127
-1.41825e-128
7.77316e-124
-2.58308e-130
-1.58758e-132
9.60995e-127
-1.70565e-133
-4.10973e-137
8.25035e-130
1.66782e-136
-3.04713e-139
-1.56247e-133
-4.25913e-141
9.70103e-142
-3.42422e-136
8.48664e-143
2.85608e-144
2.83059e-139
1.51312e-147
-6.05826e-149
-5.24517e-143
9.84434e-150
1.01339e-151
8.29936e-147
8.55583e-153
-1.26872e-154
-5.46196e-149
4.38185e-154
-2.52618e-159
1.60232e-152
1.99151e-155
1.34396e-158
8.77539e-155
3.78794e-160
-1.47442e-157
-1.44632e-09
3.18289e-09
2.51541e-09
1.11332e-10
-6.36596e-10
-4.23435e-09
-2.59769e-09
3.63368e-10
-2.68522e-09
1.62397e-09
2.06777e-09
2.75328e-09
2.77744e-09
-6.72164e-09
5.75912e-09
3.12062e-09
-2.21973e-10
-9.37699e-11
1.09767e-08
1.71672e-09
-3.09192e-09
-1.55114e-09
-1.27131e-10
1.16868e-08
2.51675e-08
-2.66051e-08
-2.55828e-09
7.73489e-10
1.0962e-09
1.13755e-09
-4.32253e-10
-4.09695e-09
-2.79038e-16
3.64411e-18
6.08955e-18
-4.45263e-16
5.62801e-18
3.26235e-16
-1.18476e-15
1.56731e-15
1.45106e-21
-4.38358e-21
-1.04618e-21
-3.24074e-21
-5.63029e-21
-1.13024e-20
2.39754e-20
3.17904e-27
-4.32317e-25
-2.93716e-26
8.21165e-30
-8.49558e-29
-1.31529e-30
8.05452e-34
-3.43227e-32
-1.06605e-33
2.4314e-37
-5.28133e-36
-3.20294e-37
9.88928e-41
-2.12229e-39
-3.68577e-40
4.005e-44
-6.07873e-43
1.48695e-44
1.59567e-47
-1.24596e-46
4.4747e-47
9.35799e-51
-1.38272e-50
1.18115e-49
3.39371e-54
-7.41668e-54
-3.03212e-53
1.09471e-57
3.04146e-57
1.27638e-55
4.30334e-61
1.8839e-60
-1.17625e-58
1.70735e-64
-4.81943e-65
6.93514e-63
6.91982e-68
-1.10784e-67
-1.27569e-65
2.68465e-71
2.98179e-72
-2.69203e-69
1.06892e-74
-3.34545e-74
-1.04706e-71
4.24761e-78
-2.64062e-78
-3.69073e-75
2.03762e-81
8.29893e-83
2.61162e-78
1.28185e-84
6.17089e-85
-3.3705e-81
2.65673e-88
1.30787e-88
5.76454e-85
1.01148e-91
-2.74998e-91
9.79802e-88
5.4213e-94
-1.13175e-94
-8.20963e-91
-9.90915e-99
-4.52271e-98
-2.54373e-93
3.44231e-101
-8.38586e-102
1.892e-97
1.32316e-104
-6.98348e-106
-3.96551e-101
-9.37725e-108
-4.93773e-107
-1.53361e-104
-9.17514e-111
-4.64174e-110
-1.20225e-106
3.51659e-114
-1.2956e-115
5.03836e-111
-3.15136e-117
-3.70473e-118
-2.62415e-113
4.74954e-120
-4.49334e-121
2.79472e-116
2.2463e-124
-9.09496e-126
-9.08371e-121
1.05779e-126
-1.70357e-127
-9.18085e-123
-2.90528e-129
-6.85252e-130
9.90609e-126
3.72145e-134
6.65519e-134
-3.29267e-129
-2.63727e-136
-2.28071e-137
7.63115e-132
-1.72057e-139
-3.81708e-140
7.85978e-136
-1.31261e-143
5.5166e-144
1.54683e-139
3.7841e-146
6.47519e-147
1.8436e-141
-3.59696e-148
1.2271e-150
2.53744e-145
2.51052e-151
-1.86479e-151
-1.633e-147
8.86717e-154
-2.28188e-156
-8.05831e-152
2.82664e-155
3.46277e-158
6.58027e-154
-4.43199e-160
4.29401e-157
4.22012e-09
-2.8074e-09
3.14888e-09
4.39117e-09
4.3546e-10
7.30111e-09
5.22019e-10
3.59666e-10
5.04237e-10
3.35367e-09
-1.10443e-08
3.39747e-09
-1.75602e-09
-7.68042e-10
-3.25794e-09
1.47885e-09
2.98836e-09
1.0229e-09
6.41724e-09
4.51342e-09
2.2309e-09
5.54125e-09
-2.33889e-09
-8.18556e-09
3.79044e-09
1.3788e-08
1.55053e-08
-9.73232e-09
-7.35141e-09
2.37875e-08
-6.45566e-09
-3.04592e-10
2.38039e-09
1.40722e-09
3.73255e-10
-3.81172e-09
-1.3328e-11
5.19654e-16
1.43501e-09
3.61849e-16
1.43504e-09
7.47519e-20
9.10105e-21
-2.89533e-21
3.04669e-20
3.6854e-20
-1.29436e-18
1.14481e-18
7.22433e-27
8.65983e-25
-2.24152e-25
-7.44479e-30
6.55012e-29
3.91231e-30
1.72324e-32
5.00017e-32
-1.73483e-32
1.97625e-36
4.39632e-35
-1.23608e-35
4.57808e-40
6.43658e-39
-1.22099e-41
1.72651e-43
1.6284e-42
3.25452e-43
6.90924e-47
4.58336e-46
2.62013e-45
2.96788e-50
1.27545e-49
-3.8681e-48
1.13074e-53
3.3608e-53
-2.12432e-52
4.28905e-57
8.53931e-57
2.86775e-54
2.79423e-60
5.16627e-60
1.67039e-57
6.47341e-64
6.48459e-64
1.20195e-62
2.00735e-67
2.43744e-68
-1.88031e-64
9.56475e-71
5.77915e-71
1.31036e-67
3.6479e-74
-3.48102e-74
3.73053e-71
2.12491e-76
-7.20812e-78
-1.74842e-73
-3.98004e-80
-3.54807e-81
5.07537e-77
6.38381e-83
-1.2648e-84
1.33877e-79
1.69307e-87
5.7506e-88
-2.02971e-83
-1.74767e-90
-6.96034e-91
-1.48603e-86
4.43181e-92
-1.21946e-94
-4.01148e-89
2.30384e-95
5.88785e-98
-7.15201e-93
6.76998e-99
4.61309e-101
4.32589e-96
4.05619e-102
-3.73121e-103
-4.10839e-99
6.3779e-105
1.03976e-107
1.30383e-102
1.21925e-108
1.25788e-111
-1.47968e-105
4.55965e-111
5.55397e-114
-2.36834e-108
-1.29837e-114
-1.13826e-116
3.96058e-112
-1.16598e-117
5.02908e-121
1.38125e-114
2.26184e-123
2.07355e-124
-4.85879e-118
-1.24466e-125
-6.47149e-126
-2.26307e-121
-8.80441e-128
-2.6977e-129
-1.38472e-124
-5.43274e-131
-3.84292e-134
-1.75449e-127
3.39391e-133
-1.25346e-136
-2.79628e-131
-3.26241e-137
-6.02856e-139
1.90585e-133
-1.20229e-140
-2.89391e-142
7.18036e-137
1.17169e-143
4.72156e-146
7.33286e-140
-1.066e-146
-2.65544e-149
-3.81357e-143
1.54901e-149
1.54488e-152
-7.03387e-147
-8.89384e-153
2.07986e-155
1.23556e-149
3.33196e-154
-3.22807e-158
6.38551e-153
-9.24975e-159
1.21399e-155
6.76435e-09
7.95372e-10
9.13659e-09
4.74974e-09
9.94509e-10
6.45822e-09
3.32099e-08
5.49727e-08
-1.20107e-07
7.57675e-09
6.56363e-09
9.52118e-09
2.0641e-09
7.96147e-09
4.45927e-09
2.15972e-09
1.72508e-09
-1.32291e-09
3.21843e-09
4.56736e-09
3.17274e-09
4.32957e-09
-4.87211e-10
1.80229e-09
7.81178e-09
8.86453e-10
-9.09357e-10
9.83113e-10
1.81123e-09
-8.11048e-09
2.75515e-09
7.36989e-09
-2.09777e-08
1.03609e-08
8.35655e-09
1.0571e-09
1.90443e-09
1.17972e-09
-3.61135e-10
7.93992e-10
1.08798e-09
-8.30183e-10
-3.00512e-10
-1.66894e-10
1.40132e-10
2.58387e-10
7.57532e-11
-8.29282e-11
5.87487e-13
-7.33192e-13
7.36739e-12
5.52182e-17
2.70149e-19
1.74435e-18
-1.60801e-19
-1.46924e-18
-6.97325e-18
8.58357e-19
5.73901e-18
9.71114e-26
4.25607e-22
-2.91693e-25
1.07368e-28
9.36532e-26
-1.89823e-28
5.01202e-31
1.55588e-29
-1.38558e-31
4.53083e-35
6.76955e-33
-6.44412e-35
8.09525e-39
1.59748e-36
7.03742e-39
3.1128e-42
3.95344e-40
3.93113e-42
1.21007e-45
9.87146e-44
6.3972e-45
4.67113e-49
2.54902e-47
4.39159e-48
1.79081e-52
7.23391e-51
2.63495e-51
6.81601e-56
1.58672e-54
-4.28069e-54
2.56574e-59
5.9233e-58
6.51272e-58
9.59253e-63
1.64626e-61
8.68954e-61
3.63494e-66
4.79052e-65
2.07474e-63
1.30827e-69
1.11355e-68
7.68399e-67
4.82317e-73
6.19284e-73
7.75895e-70
1.70359e-76
1.09935e-75
2.21983e-73
6.09521e-80
2.71718e-80
1.23922e-76
2.51358e-83
8.97294e-84
2.23732e-79
-3.96802e-85
1.16145e-86
3.61505e-82
-1.57162e-89
2.61457e-89
9.7392e-86
1.3688e-91
2.29739e-92
-1.87448e-88
1.23582e-96
1.24302e-97
-1.62264e-92
1.27887e-99
-1.44791e-100
3.43898e-95
-2.91454e-101
-1.05018e-103
4.96696e-98
-2.03007e-104
3.69851e-106
3.58548e-101
2.17883e-109
4.86075e-110
3.78189e-105
-1.04451e-110
8.04821e-113
1.23446e-107
4.86464e-114
-1.78931e-117
-9.30542e-111
-2.38539e-118
-6.48907e-119
3.37088e-115
2.00166e-121
1.32209e-122
1.22338e-117
-3.39775e-125
6.54167e-125
1.41485e-120
-1.59442e-128
-3.24181e-128
1.36742e-123
2.31479e-131
-4.42408e-133
-2.23837e-129
-4.20502e-134
1.06578e-135
8.19244e-130
-1.05924e-137
-1.92131e-139
4.02719e-134
-6.14796e-142
-9.03285e-142
3.18395e-136
-8.60193e-143
5.7627e-145
1.4823e-139
-7.46042e-146
2.76031e-149
1.3317e-142
1.93539e-150
2.34672e-151
-1.36372e-145
2.97806e-152
-2.27701e-155
4.70829e-150
3.61715e-154
-2.00892e-157
-5.15701e-153
-8.58469e-158
1.05653e-154
-9.84063e-09
-5.53758e-09
1.794e-08
-7.77043e-09
-2.7802e-09
3.74816e-09
5.37358e-10
-1.57346e-07
-8.47328e-08
3.08696e-07
3.523e-08
3.5321e-09
-6.42079e-10
-1.20303e-08
-2.52356e-09
-5.34423e-10
-3.11401e-09
1.97085e-09
3.21656e-09
2.61743e-09
4.84468e-09
-4.75589e-09
1.79719e-08
9.80453e-09
2.19742e-09
3.68705e-09
1.91107e-09
-1.58549e-09
2.32112e-09
7.38416e-09
-1.293e-10
1.08249e-09
1.21486e-09
-1.7772e-09
2.00551e-09
-2.86476e-10
-2.98849e-10
6.19821e-11
1.77105e-10
3.40433e-10
-2.57254e-09
-1.60016e-11
2.97063e-11
-1.02139e-10
2.64877e-11
5.88153e-18
8.95134e-18
-2.43667e-18
-1.11112e-16
-2.80812e-16
2.45656e-16
1.35618e-16
1.31706e-25
2.12774e-21
-2.14642e-25
1.21497e-27
3.92864e-25
-2.59561e-27
8.52447e-30
5.23276e-29
-5.84445e-31
7.32448e-34
2.16321e-32
8.99353e-34
9.13016e-38
4.10779e-36
1.28052e-37
3.07774e-41
1.0278e-39
1.59003e-40
1.08407e-44
2.75298e-43
-2.75885e-43
3.71633e-48
6.90948e-47
-6.61408e-47
1.21991e-51
1.68579e-50
6.87267e-50
3.67854e-55
4.36476e-54
6.34379e-53
1.01477e-58
1.12078e-57
1.3244e-55
2.05413e-62
8.11716e-62
1.16525e-58
7.65755e-66
6.53257e-65
2.40735e-62
-3.71107e-69
3.57087e-68
2.56329e-65
-2.84228e-72
2.74413e-72
4.91855e-69
-4.99786e-76
1.15431e-75
5.34567e-72
-2.86084e-78
2.61322e-79
4.54445e-75
-3.61838e-82
1.36716e-82
8.0674e-78
1.18929e-84
2.55495e-86
2.97434e-81
-9.89758e-89
8.88466e-90
5.5521e-84
-3.42279e-90
4.35618e-94
4.91252e-87
-1.2842e-94
8.72717e-96
9.31479e-92
5.81281e-97
2.70551e-99
9.73017e-94
4.08969e-103
-3.13705e-102
3.21624e-98
-3.73096e-104
8.76113e-106
1.04958e-99
2.21872e-107
8.56756e-110
7.32151e-104
1.2479e-110
9.88886e-113
6.71637e-107
5.07556e-114
-2.65408e-116
1.07217e-110
-7.44241e-116
1.2686e-118
1.70115e-112
-1.08732e-120
-4.01496e-122
-1.00431e-115
-8.02858e-123
7.08697e-126
5.1005e-120
3.40356e-126
1.22218e-128
1.75032e-122
-1.96203e-130
-6.42683e-132
1.00208e-126
-1.90014e-132
-2.27502e-133
1.90062e-129
-3.15992e-137
-6.63104e-137
-6.29664e-133
-4.93844e-140
1.378e-140
-2.88533e-135
1.07896e-142
3.76284e-144
3.65697e-138
-1.6873e-145
-8.40025e-148
1.14268e-141
-2.07594e-147
9.41118e-150
1.91961e-144
1.30104e-151
6.20402e-153
7.24196e-148
3.36272e-153
5.35028e-156
1.09057e-150
2.04454e-158
-3.98926e-154
7.5078e-09
1.61208e-08
1.66577e-08
1.63401e-08
1.61233e-08
6.63363e-09
5.8639e-08
-1.7533e-08
2.00185e-08
-1.26044e-07
-2.69832e-09
-1.38132e-08
-7.746e-09
2.78309e-09
-6.61548e-09
-5.01857e-08
-1.99417e-08
1.94614e-07
3.65276e-09
-2.06688e-09
-4.94507e-09
6.31953e-09
2.30706e-08
-6.77364e-09
-1.31874e-08
-1.3193e-09
2.02101e-09
-2.90466e-09
-3.05228e-09
4.82265e-09
1.15965e-08
1.78357e-08
4.43461e-08
-7.40375e-08
-1.33138e-08
-4.56335e-10
-1.00437e-10
1.4403e-10
4.48932e-10
-3.6561e-11
-1.07804e-09
-6.27891e-11
6.67347e-11
-1.15374e-11
3.81832e-11
5.72833e-18
3.0548e-18
1.2328e-18
-5.93781e-17
5.4605e-17
4.30924e-17
-3.93919e-17
-2.10734e-25
6.23031e-22
3.62716e-24
-1.15627e-27
1.08012e-25
5.70663e-27
6.76835e-30
1.38303e-29
5.36816e-31
2.98093e-34
7.86216e-33
1.2609e-33
-9.64111e-38
1.14271e-36
-4.01925e-37
-4.46333e-41
2.77185e-40
1.4142e-40
-1.99255e-44
6.3898e-44
2.02536e-43
-8.81017e-48
1.59695e-47
1.76674e-46
-3.86378e-51
4.16631e-51
2.69783e-50
-1.68253e-54
2.04507e-54
-2.19703e-52
-7.29884e-58
2.88417e-58
2.55338e-57
-3.1454e-61
8.37293e-62
8.35725e-59
-1.33364e-64
9.07365e-66
1.06178e-61
-5.79841e-68
-6.58077e-69
3.85368e-65
-2.5615e-71
-1.31822e-72
7.20322e-69
-1.0899e-74
-2.20679e-76
5.92975e-72
-4.55016e-78
6.7765e-80
1.62319e-74
-6.89888e-81
1.23467e-82
1.65023e-77
-7.81063e-85
4.73907e-87
3.48237e-81
-1.94893e-88
-2.73131e-90
4.77186e-84
-2.33758e-91
2.00311e-94
3.31256e-87
8.50576e-95
2.65305e-99
5.12785e-90
-1.17951e-96
3.22422e-98
6.02149e-93
7.94875e-101
2.01711e-103
-1.54945e-97
-2.26699e-103
3.51016e-106
6.27145e-100
2.91647e-107
1.50425e-110
-3.19681e-104
2.16831e-110
1.21701e-112
-1.13616e-106
3.25339e-114
1.50363e-116
2.42707e-111
8.01074e-117
6.55971e-120
-3.25416e-113
-1.73059e-119
2.19489e-122
-1.222e-115
2.28112e-123
-7.76528e-127
-1.71309e-120
-5.09383e-126
-7.35285e-129
8.89335e-123
7.65691e-130
5.83921e-132
1.16035e-125
-6.20688e-132
2.6062e-135
5.27026e-128
-9.88092e-135
-6.24261e-140
2.50661e-131
3.45892e-139
2.15467e-141
1.05207e-134
-4.54512e-142
-8.10872e-145
4.36321e-138
1.54088e-146
-1.03455e-149
1.13692e-141
2.92734e-147
8.0567e-150
-2.44573e-144
6.65759e-152
1.53775e-154
-2.48144e-148
-2.23801e-153
-3.0731e-157
3.18186e-150
9.51788e-159
1.16293e-154
4.19842e-09
-3.13801e-09
-4.15337e-09
1.4635e-08
-1.09998e-11
-1.75615e-08
2.19112e-09
6.34186e-10
2.00096e-09
5.8148e-10
-4.00752e-08
2.04431e-08
-4.96232e-09
6.64284e-08
-1.13802e-08
-1.25081e-08
-1.26385e-08
-1.20794e-08
-4.05516e-09
-9.07212e-10
-5.73731e-09
2.68209e-10
-7.7283e-09
9.20479e-09
-3.42615e-08
7.25967e-09
1.08811e-08
1.59825e-08
1.48608e-09
5.63469e-09
1.55324e-07
3.05386e-08
-1.96662e-07
-1.32131e-07
-7.00078e-09
6.90482e-09
-5.89776e-09
6.80172e-09
1.56943e-08
-3.1121e-09
2.77851e-08
1.11861e-08
-8.9853e-10
1.3974e-09
-9.23191e-10
-3.03866e-10
7.11968e-10
-5.25545e-10
-3.90425e-11
1.93732e-11
1.70362e-11
2.44704e-12
2.52291e-19
-3.38773e-20
1.38462e-19
5.67842e-18
4.43596e-18
-2.53553e-17
1.78584e-17
-9.19885e-26
-2.40878e-24
4.02118e-24
-1.454e-28
-7.93329e-29
3.15668e-28
4.67224e-31
-9.28237e-33
2.5237e-31
1.53994e-35
8.25798e-36
6.43836e-35
-1.05827e-38
4.18561e-40
4.1705e-38
-4.59369e-42
-6.15282e-44
1.34823e-41
-1.94686e-45
-3.66605e-47
6.60131e-45
-8.21929e-49
-9.44524e-51
4.18069e-48
-3.4578e-52
-2.65114e-54
5.42792e-51
-1.45183e-55
5.06206e-58
-5.37056e-55
-6.08962e-59
-2.88082e-60
1.30982e-56
-2.53423e-62
1.94206e-64
4.33593e-60
-1.70857e-65
-1.97298e-68
1.84041e-62
-4.40134e-69
-2.72394e-71
1.07919e-66
-1.85795e-72
8.6426e-75
1.97643e-69
-6.49538e-76
-8.74607e-79
9.41402e-73
-9.11677e-79
-5.70962e-81
2.23638e-75
-1.56177e-82
-1.53868e-87
2.75214e-80
-6.40937e-86
4.6553e-88
-3.75026e-83
-1.6639e-89
3.41894e-91
3.98559e-86
-2.64963e-91
-4.97927e-94
3.59212e-88
1.63709e-95
-4.85758e-98
-2.0368e-93
-4.91363e-99
1.32637e-101
5.92822e-96
-5.93569e-102
1.23239e-105
2.75085e-98
-3.60661e-105
7.1208e-108
1.73662e-102
-4.97411e-109
-1.08992e-110
4.16706e-104
3.95408e-112
-5.70224e-115
1.60937e-107
-1.29449e-114
1.18253e-117
1.02847e-110
-4.3752e-118
3.71464e-121
2.55873e-115
-2.18759e-120
2.29086e-123
5.1226e-117
4.78484e-125
6.21285e-127
2.40745e-120
4.75177e-127
-9.15546e-131
4.42726e-123
-1.24996e-131
1.3165e-135
2.59841e-127
2.77055e-133
2.0153e-136
1.46798e-129
4.44871e-139
-1.88513e-139
1.61974e-133
-1.52868e-140
-7.63126e-144
1.48085e-136
-2.41376e-143
4.43362e-147
3.0704e-139
8.20754e-149
1.88293e-150
-9.49702e-145
5.76765e-150
5.17823e-154
-5.39467e-147
-7.08473e-153
7.27496e-156
2.071e-150
2.71926e-154
-1.23532e-158
3.64653e-152
5.83441e-159
3.3742e-154
2.2707e-08
5.1777e-09
6.56445e-09
1.47035e-09
9.36554e-09
2.62179e-09
-2.71647e-08
-3.26568e-08
-2.83081e-08
-2.64695e-08
-6.4132e-09
-1.1606e-08
3.71151e-09
5.22979e-09
-1.66074e-08
1.00614e-08
8.28279e-09
6.68082e-09
7.6282e-09
4.37592e-09
-1.50203e-08
-3.41621e-08
5.82491e-08
-1.64456e-09
-2.67204e-08
7.45842e-09
8.42507e-09
6.50924e-09
-4.86122e-08
3.65408e-09
2.58762e-10
-2.64989e-09
-1.01414e-09
-5.31184e-11
3.23953e-09
-2.33174e-11
-1.57167e-13
1.42152e-09
2.14049e-11
1.42175e-09
4.23167e-21
-3.66012e-21
3.49992e-21
2.04207e-19
1.36807e-19
-9.17764e-20
-2.98068e-19
-6.30849e-27
-2.05026e-25
-4.61308e-26
-2.00448e-30
-2.94337e-29
1.91604e-29
9.67451e-33
-1.71361e-32
8.2207e-33
6.60456e-37
-5.41495e-36
1.01525e-35
-1.62661e-40
-5.42043e-40
-3.59177e-39
-7.94713e-44
-1.10626e-43
-2.88701e-42
-3.59804e-47
-3.92417e-47
2.85479e-45
-1.52189e-50
-9.21124e-51
7.12873e-49
-4.19279e-54
-1.28824e-54
5.08223e-51
-2.97774e-57
-1.37603e-57
2.75785e-54
-3.40894e-61
-1.6407e-60
-2.99537e-57
-5.61284e-64
2.06901e-64
-3.27499e-61
-7.21456e-67
-3.44735e-69
4.35388e-64
-9.68808e-71
1.47029e-71
9.35386e-68
8.63234e-74
-4.8436e-75
6.09394e-72
-1.87447e-77
-3.73721e-78
1.22287e-74
-2.89918e-81
-1.87865e-81
1.10319e-76
-5.38387e-83
-1.64927e-85
4.39964e-81
5.58984e-86
-8.12103e-90
-3.61165e-83
-9.94017e-90
-9.6624e-92
6.0896e-86
8.73752e-93
6.14638e-95
-4.68456e-90
2.09102e-95
1.1414e-97
7.69425e-93
-3.66786e-99
1.73832e-101
6.82856e-96
-8.81024e-104
2.98891e-105
7.12657e-99
1.43864e-105
1.5194e-107
4.26387e-103
9.58619e-109
-8.12044e-113
1.79393e-105
-6.56235e-113
2.33685e-115
9.79985e-109
-1.12384e-114
-2.00616e-118
3.0645e-111
-1.838e-118
1.94003e-121
-6.17759e-115
7.24938e-121
5.02218e-125
4.89788e-119
1.49521e-124
1.14298e-128
3.17218e-121
-5.0781e-128
-8.31969e-131
1.16594e-124
3.0761e-131
7.973e-135
-5.14913e-128
2.61761e-134
2.02042e-137
-1.03341e-130
-5.1289e-137
1.50602e-139
-7.46178e-134
1.07545e-140
-4.44141e-144
2.17364e-137
-1.26339e-144
-6.97497e-148
3.39671e-141
-6.36432e-149
3.20005e-151
-8.0944e-144
9.93119e-150
-3.98441e-153
-7.58364e-147
-2.13054e-154
-6.50326e-156
4.66948e-150
1.92671e-154
-2.08546e-157
4.35128e-153
8.98257e-160
-1.38976e-155
-1.84281e-09
5.76631e-08
6.03368e-09
-2.78172e-09
-3.22125e-09
-3.67838e-09
-2.05728e-09
1.83464e-08
9.98852e-09
5.08598e-09
-3.09896e-09
2.3647e-09
3.70958e-09
5.77224e-09
2.43919e-09
2.21782e-09
7.76711e-09
-1.26547e-09
-7.64962e-09
4.36851e-08
-1.29529e-08
2.10529e-10
-8.51645e-10
-2.31182e-09
-5.56491e-09
9.68891e-09
9.81276e-09
-1.56345e-09
3.29883e-08
6.11223e-08
3.77448e-08
-3.86758e-08
6.42896e-09
8.99963e-09
7.37912e-09
8.88692e-09
2.11641e-09
-1.06687e-08
2.39702e-09
-1.11094e-09
7.13299e-09
5.6477e-13
2.66979e-15
-1.77345e-17
-7.02119e-16
-8.09494e-17
-6.51824e-15
2.06707e-12
-2.53806e-14
3.63955e-15
1.90894e-15
1.94103e-15
1.67263e-21
-2.04089e-22
-1.76495e-22
7.9199e-20
-2.38136e-21
-6.04948e-20
-2.07105e-20
-6.48419e-28
-5.65651e-26
-8.95156e-27
3.52516e-30
-1.57524e-29
8.06385e-32
2.52294e-34
-7.51858e-33
3.25881e-34
-4.96284e-38
-9.67141e-37
-8.52118e-38
-2.5414e-41
-2.52201e-40
1.36239e-40
-1.13916e-44
-6.59257e-44
8.74066e-44
-5.02859e-48
-1.72413e-47
3.63481e-47
-2.20242e-51
-4.85748e-51
1.05804e-49
-9.5956e-55
-1.17585e-54
1.5254e-52
-4.15934e-58
-2.89249e-58
-6.1081e-56
-1.81204e-61
-8.28549e-62
-1.67796e-58
-7.75124e-65
-2.65691e-65
1.78177e-62
-3.32968e-68
-4.63421e-69
2.08408e-65
-1.4243e-71
-2.06345e-72
4.88348e-69
-6.06051e-75
-2.57991e-76
-3.90745e-73
-2.39723e-78
-7.50622e-80
6.6182e-75
1.17414e-80
-1.56503e-83
2.04061e-77
-1.91917e-85
-1.1791e-86
-1.06876e-82
-3.48213e-88
-1.30275e-89
3.12169e-85
-2.15527e-91
3.90668e-94
9.78541e-88
-3.84769e-95
1.72235e-96
-4.07583e-91
-7.67164e-98
7.19775e-101
4.88265e-94
6.04935e-100
1.11528e-102
1.17622e-96
-2.91519e-105
-8.48104e-107
6.84116e-102
-1.32471e-107
2.14118e-109
2.52204e-103
-1.16276e-110
-2.17682e-112
2.36893e-107
-4.33451e-113
1.41374e-116
1.73931e-109
-2.72183e-118
-6.34851e-119
1.69728e-113
3.26784e-120
3.34506e-122
1.20867e-116
-2.39972e-123
-1.61419e-125
1.56675e-119
-1.71666e-126
-4.46752e-128
1.17933e-123
3.19031e-130
7.90547e-132
4.57179e-126
4.71045e-134
-4.62257e-136
-3.32575e-129
2.65951e-135
3.48583e-137
1.62193e-131
-5.28707e-139
1.50073e-140
-3.03207e-135
1.67752e-142
-1.28183e-144
-8.68947e-139
-2.54332e-145
-4.12039e-147
8.28608e-142
8.23931e-149
-3.12592e-151
1.30106e-145
-1.99227e-152
4.72815e-154
1.017e-147
2.03452e-153
-1.09136e-156
7.04642e-151
9.17238e-155
-5.09775e-158
-4.33106e-154
-6.49392e-160
-1.7904e-157
-4.51958e-09
9.97381e-09
5.03845e-09
-6.18627e-10
3.32932e-08
1.16608e-08
2.61038e-08
-4.21992e-08
1.50935e-08
-2.38611e-08
9.24462e-10
-1.03274e-08
3.24187e-09
4.45448e-08
4.92032e-08
3.93644e-08
4.95967e-08
-2.4252e-08
-2.72689e-08
-2.52466e-08
-2.08009e-08
-1.61972e-08
7.33358e-08
-1.46304e-08
2.19115e-09
1.17517e-08
-1.74227e-08
-4.1179e-08
-6.41057e-09
4.83988e-09
2.49092e-08
1.96072e-08
7.69883e-09
4.83181e-10
-4.65637e-09
3.07775e-09
3.23955e-10
-6.15615e-10
7.50095e-18
2.40926e-18
-1.97031e-21
-1.13991e-20
-4.31971e-20
-9.33348e-21
-9.5583e-19
-8.80459e-18
1.10327e-24
-1.95231e-25
4.96105e-24
5.90631e-25
-2.10105e-22
2.36285e-23
5.63205e-28
-2.44342e-29
2.98868e-31
3.42294e-31
4.46614e-35
3.78614e-34
5.48241e-39
-3.39853e-38
1.82044e-42
-1.8184e-40
6.66025e-46
-2.78186e-44
2.41046e-49
2.87943e-47
8.50991e-53
9.12283e-51
2.86262e-56
1.45617e-53
9.26668e-60
8.95753e-57
2.96583e-63
-1.5477e-59
8.79108e-67
-5.05099e-62
6.76937e-71
2.58397e-67
-3.66999e-73
-6.60088e-69
-6.01259e-77
-3.26419e-72
-4.19853e-79
7.00915e-76
-1.89528e-82
4.10053e-78
-6.75729e-86
-1.00757e-83
3.95119e-89
1.08154e-85
5.58974e-92
1.9612e-88
3.42473e-95
8.3647e-91
1.23776e-98
-3.52468e-98
2.74323e-100
-2.68022e-97
8.2478e-104
1.70337e-100
4.88996e-107
-5.82085e-104
1.58844e-109
5.03891e-108
-1.00128e-113
5.29108e-111
-8.23072e-117
-4.87644e-113
1.51303e-119
1.70543e-116
5.48143e-124
2.07838e-119
9.33988e-126
9.44127e-123
3.03344e-130
-1.34619e-127
7.921e-133
-1.08191e-129
-1.22421e-136
1.23243e-132
3.84954e-138
-1.04362e-135
1.58534e-142
1.20075e-138
-3.62437e-146
-3.10573e-142
6.89566e-148
-1.95478e-145
-1.11679e-151
8.92372e-148
7.16208e-154
1.76292e-151
4.7211e-155
7.26178e-154
1.40375e-157
7.22887e-09
2.5997e-10
-2.03809e-08
1.37025e-09
7.32889e-09
-7.57852e-10
1.07661e-08
-7.45681e-11
-2.10069e-08
1.20529e-09
2.53729e-10
8.45065e-08
4.88408e-09
-4.05979e-08
1.56355e-08
5.12889e-09
-1.5633e-09
5.37916e-09
-4.44878e-08
1.30451e-07
-2.26275e-07
3.58782e-07
-8.45429e-08
-1.06887e-08
-6.59625e-09
-6.95082e-09
-6.26767e-08
5.63005e-09
-2.21421e-08
2.88585e-09
-5.31741e-09
7.90062e-09
1.38929e-09
-7.74548e-09
-7.38095e-10
-3.27933e-10
1.55636e-10
1.93563e-10
8.10992e-10
4.89475e-18
2.91555e-20
2.04749e-19
-3.22183e-19
-1.01117e-20
-4.37634e-18
6.05205e-18
-4.37489e-18
4.45564e-24
-2.64159e-21
1.61273e-25
1.63411e-22
3.14459e-22
1.77163e-22
1.65316e-21
2.5577e-27
-1.32057e-24
-4.14819e-29
6.22869e-31
-5.80635e-28
-2.169e-32
2.02641e-34
-1.52038e-31
4.40178e-35
1.01448e-37
-1.89173e-35
-6.12943e-39
7.06059e-41
-8.44906e-39
1.68139e-42
4.74913e-44
-4.31251e-42
1.17161e-44
3.10681e-47
-1.7405e-45
1.07835e-47
2.01889e-50
-8.63565e-49
-3.71293e-50
1.29922e-53
-3.15531e-52
1.10399e-54
8.27046e-57
-1.6241e-55
1.66644e-57
5.20242e-60
-3.53949e-59
6.87492e-61
3.21586e-63
-3.00601e-62
2.8409e-63
1.95612e-66
-3.27412e-66
6.77406e-67
1.15837e-69
-6.1307e-70
5.44933e-70
6.6566e-73
-2.79567e-72
2.65557e-73
3.64649e-76
-8.61976e-76
-7.11208e-77
1.84987e-79
-1.86359e-78
1.68242e-79
8.08794e-83
-1.09498e-81
3.99266e-82
2.35861e-86
-1.11873e-85
5.60326e-86
-5.89979e-90
-8.94932e-90
5.30674e-89
-1.9163e-92
-2.70077e-91
-4.33754e-92
-2.3386e-95
-9.58309e-95
2.48662e-95
-2.30315e-98
2.63399e-98
-6.74739e-98
-2.05313e-101
4.78313e-102
1.32321e-101
-1.71829e-104
-3.38519e-104
-1.3854e-104
-1.3835e-107
-1.06254e-106
7.12687e-108
-1.08516e-110
-3.9016e-111
5.53228e-111
-8.33807e-114
-3.27227e-114
6.63307e-115
-6.29231e-117
-2.18689e-117
3.2966e-117
-4.68266e-120
-5.45925e-120
1.29777e-120
-3.44169e-123
-1.77486e-124
-1.02373e-123
-2.50684e-126
-2.51991e-127
6.93195e-127
-1.81178e-129
-3.90105e-130
4.61196e-130
-1.29792e-132
-2.17116e-133
-2.82743e-133
-9.22421e-136
-7.88645e-137
-2.06151e-136
-6.51912e-139
-1.53589e-139
-2.48774e-140
-4.58114e-142
-1.14338e-142
1.28052e-142
-3.20081e-145
-1.93389e-145
3.17107e-146
-2.22772e-148
-8.8688e-149
5.06113e-149
-1.21351e-151
3.88939e-153
2.5317e-152
-4.20709e-153
1.39896e-155
-9.26432e-155
1.12143e-157
-1.67793e-157
1.30951e-09
4.65346e-09
2.01384e-09
1.73429e-09
1.85918e-09
-5.4845e-09
-2.31141e-09
-1.71307e-09
5.21727e-10
-3.32505e-09
3.65162e-09
1.1109e-09
3.49659e-09
1.83476e-09
1.88542e-09
1.84604e-09
-1.81375e-09
3.04536e-09
3.06161e-09
-1.28134e-08
-8.91956e-09
-8.11225e-10
-1.63689e-09
-7.32001e-09
-9.31876e-09
5.34231e-09
4.22374e-09
9.12297e-09
-2.02695e-09
-2.10092e-07
2.09947e-07
1.60284e-07
5.2986e-08
1.03406e-07
8.65951e-11
2.62105e-09
3.52473e-09
8.53435e-09
-1.03833e-07
1.20327e-08
1.2574e-09
4.77495e-10
1.80993e-09
-1.3285e-10
-1.52239e-08
-3.06614e-15
-9.65283e-18
3.26281e-17
1.24074e-16
-2.85044e-15
-1.90821e-17
4.82672e-15
-3.55388e-15
4.69129e-15
1.01434e-20
-4.94363e-21
1.01816e-21
-7.67964e-21
-3.26398e-20
-8.90406e-21
-2.32616e-20
4.29742e-26
-3.18023e-24
2.9151e-26
3.47181e-29
-9.34699e-28
1.16611e-30
2.37631e-32
-4.89677e-31
1.52817e-33
1.58172e-35
-3.84815e-34
6.24346e-37
1.07078e-38
-1.33273e-37
5.87539e-40
7.25068e-42
-4.30247e-41
1.57884e-43
4.88727e-45
-1.85913e-44
9.39774e-47
3.28192e-48
-6.38639e-48
-1.95122e-49
2.20152e-51
-3.0298e-51
2.84878e-53
1.47161e-54
8.0107e-55
-1.83063e-55
9.81352e-58
1.06401e-57
5.2949e-61
6.52124e-61
-1.7809e-61
3.68124e-63
4.32272e-64
-1.81334e-64
1.24246e-65
2.85528e-67
1.07939e-67
1.12427e-68
1.88232e-70
-1.04028e-70
-1.06089e-71
1.23753e-73
-2.11425e-73
1.36504e-75
8.1058e-77
3.59587e-78
-2.17404e-78
5.2926e-80
1.1867e-80
1.03194e-82
3.44474e-83
7.60055e-84
-1.27269e-84
2.23519e-86
-2.52355e-86
8.31033e-89
1.44544e-89
3.98882e-89
2.96782e-90
9.30672e-93
-1.91188e-92
3.75755e-95
5.98006e-96
-4.76409e-96
4.11504e-97
3.83249e-99
1.14545e-99
2.40885e-100
2.44909e-102
-8.57727e-102
5.33155e-104
1.55871e-105
2.13999e-105
1.82356e-106
9.88425e-109
1.9668e-109
-2.39644e-110
6.2431e-112
-3.33678e-112
4.95824e-113
3.92855e-115
-5.75096e-115
-8.61773e-118
2.46425e-118
7.57495e-119
1.39817e-119
1.53765e-121
-4.39792e-121
4.45429e-122
9.55225e-125
-7.06788e-125
2.37048e-126
5.91286e-128
5.0488e-129
-1.31434e-130
3.64159e-131
3.08461e-131
-2.87325e-132
2.23381e-134
1.08142e-133
-2.15777e-135
1.36495e-137
2.34566e-137
1.59113e-138
8.28664e-141
2.83516e-141
-1.98099e-141
4.99593e-144
9.15432e-144
-6.92436e-147
2.99301e-147
-2.32679e-147
1.40503e-147
1.88803e-150
-5.82035e-150
-5.69601e-152
5.40164e-152
3.04049e-153
1.38724e-154
-4.75007e-157
3.37895e-157
3.2574e-09
6.76491e-10
4.9182e-09
5.8766e-10
1.17705e-09
2.81261e-10
2.79981e-09
3.13903e-09
3.22558e-09
2.33965e-09
2.25485e-09
9.61889e-09
-4.09992e-10
6.0353e-10
-7.23956e-09
1.08275e-10
5.80488e-09
1.25863e-09
2.5628e-09
3.06407e-09
-5.81961e-10
3.48855e-09
1.32555e-09
1.2806e-09
1.32283e-09
1.40507e-09
4.07009e-09
3.26501e-09
3.33522e-08
-3.15722e-08
-4.95548e-09
4.28313e-09
4.14915e-09
-2.31331e-09
1.70406e-07
-3.3905e-09
-4.06508e-09
9.80788e-09
7.62535e-09
-2.00148e-07
1.13128e-08
-1.61744e-09
1.58127e-10
2.83512e-10
1.01267e-09
-1.11467e-08
-4.54022e-11
-4.26509e-14
5.39327e-15
-4.84547e-14
-1.82861e-15
-4.81975e-16
-8.34298e-20
4.55155e-20
3.53003e-21
-8.28078e-19
-1.16514e-20
1.02053e-19
4.4464e-19
8.27141e-26
8.41088e-24
-3.81998e-26
1.52528e-28
1.63301e-27
9.07265e-30
5.24707e-31
1.30519e-30
-1.78047e-32
2.10708e-34
1.71669e-33
-2.1301e-36
5.57481e-38
6.31154e-37
3.01465e-39
3.09569e-41
2.39713e-40
2.50652e-42
2.13412e-44
1.109e-43
1.17525e-44
1.42396e-47
5.16541e-47
1.90453e-48
9.36517e-51
2.15432e-50
-2.99948e-51
6.12418e-54
1.04558e-53
-1.56739e-54
3.98513e-57
5.9309e-57
2.71755e-57
2.57583e-60
1.89237e-60
-1.48611e-62
1.65198e-63
4.89464e-64
-1.42394e-64
1.0514e-66
5.39145e-67
3.46725e-67
6.62368e-70
1.70005e-70
1.22187e-70
4.12263e-73
1.17841e-74
-1.26094e-73
2.53438e-76
-1.15957e-76
-8.2566e-78
1.53471e-79
-7.34825e-80
1.09461e-80
9.10047e-83
3.56257e-83
-4.23772e-83
5.25874e-86
-1.42033e-86
1.93685e-86
2.93759e-89
-3.38328e-90
2.76051e-89
1.55647e-92
1.18105e-92
2.08364e-92
7.58182e-96
2.18755e-96
2.20809e-95
3.1407e-99
-6.91599e-99
7.89337e-99
7.36556e-103
-4.08351e-102
1.16374e-102
-4.36328e-106
-1.63261e-106
-3.02847e-105
-9.14156e-109
-3.23589e-109
9.44367e-109
-1.03107e-111
9.09294e-113
5.23538e-111
-9.7118e-115
5.254e-115
1.96377e-114
-8.38691e-118
-6.39831e-119
-1.24746e-117
-6.86275e-121
-1.18298e-121
-3.04573e-121
-5.40763e-124
-6.80551e-125
3.4173e-125
-4.14542e-127
-3.07504e-127
-2.60194e-127
-3.11705e-130
2.18768e-130
-3.67919e-131
-2.31098e-133
3.95057e-133
1.59283e-133
-1.69022e-136
7.07461e-137
7.29115e-137
-1.22267e-139
-8.818e-140
-8.1957e-140
-8.76603e-143
-3.70108e-143
-1.91614e-143
-6.22807e-146
-1.5407e-146
2.72416e-146
-4.41049e-149
9.98154e-152
7.76533e-150
4.49603e-153
5.67446e-153
2.43909e-152
-3.23912e-156
-5.93624e-156
2.17544e-09
2.10744e-09
7.00677e-09
-7.74244e-12
3.50958e-08
1.63437e-09
1.67503e-09
1.9656e-08
-1.45185e-08
2.62295e-09
1.38371e-09
-1.66275e-09
1.76537e-09
3.61143e-09
1.66227e-09
1.55905e-09
2.02497e-09
1.25959e-09
1.14894e-09
1.67269e-09
1.60616e-09
1.47956e-09
2.41371e-09
3.89469e-09
6.16119e-10
6.22279e-09
3.63814e-09
7.67743e-11
8.6688e-10
7.2453e-10