/*--------------------------------*- C++ -*----------------------------------*\
| =========                 |                                                 |
| \\      /  F ield         | OpenFOAM: The Open Source CFD Toolbox           |
|  \\    /   O peration     | Version:  5.0                                   |
|   \\  /    A nd           | Web:      www.OpenFOAM.org                      |
|    \\/     M anipulation  |                                                 |
\*---------------------------------------------------------------------------*/
FoamFile
{
    version     2.0;
    format      ascii;
    class       volScalarField;
    location    "0.6";
    object      alpha.water;
}
// * * * * * * * * * * * * * * * * * * * * * * * * * * * * * * * * * * * * * //

dimensions      [0 0 0 0 0 0 0];

internalField   nonuniform List<scalar> 
8192
(
1.0028
1.00016
0.962999
0.98731
0.976263
0.771519
-7.59159e-17
2.20551e-15
1.2986e-17
2.91086e-21
2.39184e-25
3.45257e-29
1.324e-32
5.59429e-36
2.32954e-39
1.03858e-42
3.72235e-46
1.79528e-49
8.04255e-53
2.66295e-56
1.32051e-59
4.72111e-63
3.34364e-66
5.36116e-70
4.49485e-73
1.51906e-76
2.41776e-79
2.14205e-83
4.05418e-85
1.19527e-88
8.60649e-92
5.9721e-96
1.98314e-98
5.72011e-101
9.01043e-105
1.00131e-107
3.74084e-111
1.69264e-113
2.18107e-117
7.83581e-121
5.32122e-124
9.33544e-127
4.92293e-130
2.92694e-132
3.82826e-136
9.68284e-139
6.23156e-143
2.74074e-145
1.65794e-146
3.89732e-148
0.99966
1.00026
1.00185
1.01727
1.0125
1
-1.41934e-19
-1.31662e-19
-3.59702e-23
8.7496e-21
5.15269e-23
3.25133e-27
7.28165e-31
2.94129e-34
1.20885e-37
5.62458e-41
1.19244e-43
3.18304e-47
4.86666e-51
1.72962e-54
7.21028e-58
2.93109e-61
1.43236e-64
7.88356e-68
2.02811e-71
4.02313e-74
3.76868e-78
2.03489e-81
3.27431e-84
1.20495e-87
2.3705e-91
1.45805e-93
9.02243e-98
2.83983e-101
3.5693e-104
1.40731e-106
6.13068e-110
8.95631e-115
1.25419e-115
6.36602e-119
7.78016e-123
1.32688e-125
6.28977e-130
5.03572e-134
4.35453e-136
7.71622e-140
4.04054e-142
2.84406e-145
2.40647e-146
9.88106e-148
0.999991
0.999655
0.998641
1.00705
1.07115
1.00027
-5.52324e-16
-7.42137e-21
-5.58867e-21
1.722e-20
4.01862e-22
5.87728e-25
5.12377e-29
6.17527e-33
2.38902e-36
1.01091e-39
4.30249e-43
1.87116e-46
7.59282e-50
2.84307e-53
1.48385e-56
4.90635e-60
2.68419e-63
7.39549e-67
3.56847e-70
3.6814e-73
1.19134e-76
2.93589e-80
6.10114e-83
4.16932e-86
1.78745e-90
1.56797e-93
6.47141e-95
4.34338e-98
2.43028e-102
2.30532e-105
1.5459e-108
8.04071e-113
2.70301e-114
2.15805e-117
4.15455e-121
1.52203e-124
3.10772e-127
1.98736e-131
9.16998e-134
1.40239e-137
1.88912e-139
4.1865e-143
2.67971e-145
8.94652e-147
0.997637
0.996726
1.00039
1.00009
0.999942
0.999421
0.0807952
-1.81783e-18
-5.99876e-19
-2.99254e-22
5.41234e-22
4.50475e-24
2.85176e-28
4.24169e-32
1.71696e-35
7.09718e-39
2.94082e-42
1.31043e-45
4.90871e-49
2.04186e-52
8.63093e-56
3.44046e-59
2.46143e-62
8.28933e-66
4.17115e-69
2.37225e-72
9.5561e-76
1.5506e-78
6.15933e-82
3.6826e-86
3.31838e-88
5.38152e-91
2.54345e-94
1.25383e-98
9.59008e-101
1.72816e-104
2.28771e-108
4.12883e-111
3.25378e-113
4.69875e-117
7.59792e-121
5.18792e-123
2.48679e-127
9.48941e-130
1.03389e-132
5.29117e-136
3.39827e-140
3.76179e-143
2.821e-145
8.96033e-147
1.00226
0.999979
0.996883
0.992662
1.0027
1.00032
0.603256
-9.24725e-18
-5.86176e-19
-2.77111e-21
1.16498e-20
8.37375e-23
7.70633e-27
1.19732e-30
4.42272e-34
1.83084e-37
7.47278e-41
3.09197e-44
1.27293e-47
5.24152e-51
2.14321e-54
9.14773e-58
3.61719e-61
1.70806e-64
5.85467e-68
2.96246e-71
1.17775e-74
6.86289e-78
1.07626e-80
5.04804e-84
4.10859e-87
1.68186e-91
2.27423e-94
5.09341e-98
2.57614e-101
3.0389e-104
3.72309e-106
1.36703e-109
8.41145e-114
7.49182e-116
4.31997e-120
3.41342e-124
2.24092e-127
3.23095e-129
3.3623e-132
6.70634e-136
1.21362e-137
3.74423e-141
6.69579e-144
1.15176e-145
0.977241
1.03359
0.992651
1.00316
0.9574
1.00053
0.714651
-9.22248e-20
-3.8337e-21
-1.73258e-22
1.19271e-20
8.90444e-23
5.43774e-27
1.01805e-30
4.15172e-34
1.71515e-37
7.0725e-41
2.96213e-44
1.20637e-47
5.56965e-51
2.00872e-54
8.40426e-58
3.38878e-61
1.55648e-64
7.31753e-68
4.96081e-71
1.14147e-74
9.28807e-78
1.05797e-80
2.38709e-83
2.81245e-86
8.52884e-91
1.10584e-93
6.56501e-98
1.08289e-100
5.49642e-104
3.46526e-107
1.37949e-109
6.16652e-114
3.27616e-116
5.57373e-119
2.14315e-121
7.23824e-125
7.94982e-129
2.60306e-132
3.64253e-135
8.2942e-138
2.36476e-142
6.81325e-145
5.22596e-146
0.862653
0.985261
1.03678
0.97938
1.02353
0.996525
0.466593
-3.6457e-22
-1.65905e-23
-5.91361e-25
5.72522e-22
5.36212e-24
3.62431e-28
4.25419e-32
1.70664e-35
7.03336e-39
2.9012e-42
1.22386e-45
5.02936e-49
2.06608e-52
1.44725e-55
3.41005e-59
1.87845e-62
6.90423e-66
5.44131e-69
9.37846e-73
3.92691e-76
2.39319e-79
1.11178e-81
5.71237e-86
1.30167e-89
6.98563e-92
3.93163e-96
3.86199e-98
2.36813e-101
2.00163e-104
2.75037e-108
1.74017e-110
6.14091e-114
5.84947e-117
3.06049e-121
1.93736e-123
3.01857e-127
4.81674e-131
5.06766e-133
2.40649e-137
6.65414e-140
8.5142e-144
2.6497e-145
1.1925e-146
1.00867
0.87254
1.03472
1.0453
1.0276
1.00611
0.0257986
-3.50846e-20
-1.46258e-25
1.84261e-20
3.28453e-22
3.98284e-25
3.45892e-29
4.51024e-33
1.753e-36
7.39881e-40
3.15158e-43
1.29788e-46
5.94876e-50
2.02268e-53
9.08145e-57
4.4265e-60
1.79092e-63
4.91966e-67
4.74157e-70
2.07521e-73
2.24136e-76
8.52445e-80
5.76983e-84
4.68418e-86
3.97479e-90
1.62409e-92
1.48003e-95
1.21478e-99
6.65897e-103
4.6456e-105
5.35891e-109
9.87453e-112
7.66197e-115
6.1364e-118
5.34094e-122
1.23569e-124
2.8771e-127
8.67034e-131
2.39976e-135
1.90879e-138
6.13702e-141
1.2242e-144
1.71367e-145
6.80542e-147
1.08058
1.09604
0.700416
0.953904
1.03124
0.989386
-5.93502e-16
-3.2528e-18
-2.59552e-22
7.53649e-21
5.61071e-23
6.61427e-27
8.89376e-31
3.03489e-34
1.24849e-37
5.18592e-41
2.19055e-44
9.14158e-48
3.93554e-51
1.567e-54
6.17489e-58
2.73383e-61
1.03551e-64
4.80598e-68
1.72429e-70
1.00324e-74
3.13028e-78
2.41357e-81
7.74728e-85
1.79587e-87
9.91628e-90
6.07471e-94
3.28094e-97
1.97671e-101
2.67343e-103
1.41482e-106
6.40785e-110
3.32754e-114
5.99868e-118
2.33577e-119
2.66571e-122
7.40239e-125
9.30747e-129
8.67096e-133
7.52985e-136
6.70423e-140
2.5977e-141
3.7268e-144
7.51603e-146
1.37479e-147
0.988196
1.00731
1.05295
0.993879
1.02647
1
-5.21939e-21
2.17769e-15
1.5702e-17
2.05114e-20
2.09627e-23
1.15034e-27
1.65776e-31
6.60879e-35
2.76991e-38
1.23505e-41
4.82372e-45
2.11044e-48
8.91372e-52
5.49962e-55
1.20993e-58
6.85796e-62
2.0713e-65
1.00654e-68
8.15278e-72
1.72761e-75
3.80102e-78
1.0534e-81
3.39261e-84
9.41197e-88
2.27367e-90
6.00275e-94
3.35726e-97
8.30246e-100
5.04215e-104
9.7593e-107
2.09084e-109
1.4625e-113
1.72932e-115
2.25293e-119
7.08795e-124
2.88768e-127
1.33918e-128
3.86141e-132
2.68493e-135
3.49466e-138
4.73672e-142
8.83139e-145
3.8847e-146
6.46995e-148
0.997638
0.947962
1.00241
0.958355
0.970993
0.768577
1.21856e-12
8.77922e-15
8.33813e-17
9.88122e-20
3.57935e-23
5.07511e-27
2.88095e-30
2.15679e-33
1.54583e-36
1.09562e-39
7.75443e-43
5.48337e-46
3.8704e-49
2.72643e-52
1.91939e-55
1.3471e-58
9.44021e-62
6.60513e-65
4.61317e-68
3.21496e-71
2.2386e-74
1.55457e-77
1.07724e-80
7.45434e-84
5.14948e-87
3.54621e-90
2.44004e-93
1.6759e-96
1.14848e-99
7.86334e-103
5.36831e-106
3.657e-109
2.48739e-112
1.68955e-115
1.145e-118
7.74879e-122
5.23555e-125
3.52599e-128
2.37246e-131
1.59238e-134
1.06654e-137
7.13733e-141
4.76369e-144
2.73902e-145
1.00164
1.00222
0.980187
1.0055
1.0094
1.0024
4.87959e-10
1.50868e-14
1.23833e-17
1.3807e-19
1.28731e-22
9.77141e-26
5.5361e-29
3.5117e-32
2.41101e-35
1.657e-38
1.13952e-41
7.84346e-45
5.3784e-48
3.65888e-51
2.50553e-54
1.70799e-57
1.16197e-60
7.88485e-64
5.35061e-67
3.62532e-70
2.45095e-73
1.65535e-76
1.11625e-79
7.46587e-83
5.03014e-86
3.38041e-89
2.26941e-92
1.51599e-95
1.01188e-98
6.75978e-102
4.5081e-105
3.00176e-108
1.99437e-111
1.3218e-114
8.7398e-118
5.78114e-121
3.81832e-124
2.51279e-127
1.65741e-130
1.0895e-133
7.1601e-137
4.67688e-140
3.0622e-143
2.84022e-145
0.997564
0.993829
0.995611
1.03755
0.99988
0.999239
4.46589e-07
1.63119e-14
1.29427e-17
2.4857e-19
4.07055e-21
1.99729e-23
6.6267e-27
8.53001e-31
5.31585e-34
3.95774e-37
2.81913e-40
1.99389e-43
1.40897e-46
9.9383e-50
7.00025e-53
4.92301e-56
3.45456e-59
2.42134e-62
1.69294e-65
1.18151e-68
8.23558e-72
5.72776e-75
3.97547e-78
2.75777e-81
1.90898e-84
1.31902e-87
9.10337e-91
6.26641e-94
4.30093e-97
2.94959e-100
2.01973e-103
1.37989e-106
9.41359e-110
6.40735e-113
4.35119e-116
2.95074e-119
1.99761e-122
1.35e-125
9.11371e-129
6.1392e-132
4.12528e-135
2.7675e-138
1.85257e-141
1.00115e-144
1.00274
0.86422
0.998986
1.00235
1.00439
1.0004
0.0888279
7.65779e-13
9.03527e-16
6.37025e-19
1.25523e-20
1.32678e-23
6.41008e-27
4.16833e-30
2.89391e-33
2.00565e-36
1.3856e-39
9.55335e-43
6.58135e-46
4.52955e-49
3.11156e-52
2.13331e-55
1.45923e-58
9.9869e-62
6.80491e-65
4.63716e-68
3.15526e-71
2.14443e-74
1.45786e-77
9.8392e-81
6.65237e-84
4.49406e-87
3.02207e-90
2.0328e-93
1.36767e-96
9.14585e-100
6.12441e-103
4.09358e-106
2.72922e-109
1.81718e-112
1.20801e-115
8.06146e-119
5.32842e-122
3.5317e-125
2.32408e-128
1.53382e-131
1.00985e-134
6.63945e-138
4.35593e-141
1.96587e-144
1.00981
1.06226
1.00204
1.1007
1.00252
1.00004
0.603346
1.15662e-11
1.21567e-14
9.63355e-18
2.11529e-19
3.26574e-22
1.90505e-25
8.65632e-29
5.76554e-32
4.02877e-35
2.78831e-38
1.92476e-41
1.32631e-44
9.12189e-48
6.26999e-51
4.30216e-54
2.94575e-57
2.01512e-60
1.3759e-63
9.37611e-67
6.38417e-70
4.33888e-73
2.94247e-76
1.99284e-79
1.34724e-82
9.0899e-86
6.1268e-89
4.12219e-92
2.76846e-95
1.85713e-98
1.24323e-101
8.30584e-105
5.54182e-108
3.69336e-111
2.45742e-114
1.63267e-117
1.08282e-120
7.16676e-124
4.73776e-127
3.12652e-130
2.05949e-133
1.35511e-136
8.89778e-140
3.48719e-143
1.06227
0.915781
1.01168
1.00465
0.867145
0.999337
0.713978
7.78383e-12
9.3866e-15
7.17848e-18
2.11628e-19
3.2524e-22
1.86446e-25
8.60822e-29
5.74499e-32
4.01338e-35
2.77895e-38
1.91888e-41
1.32282e-44
9.10012e-48
6.25107e-51
4.28905e-54
2.93746e-57
2.00871e-60
1.37116e-63
9.34107e-67
6.3594e-70
4.3215e-73
2.93103e-76
1.98549e-79
1.34134e-82
9.0449e-86
6.09578e-89
4.10262e-92
2.75427e-95
1.84681e-98
1.23609e-101
8.25931e-105
5.51286e-108
3.67294e-111
2.44305e-114
1.62294e-117
1.07592e-120
7.11556e-124
4.70019e-127
3.09915e-130
2.03935e-133
1.34143e-136
8.81063e-140
3.45738e-143
0.602048
1
1.04257
0.99723
1.03163
0.994853
0.471206
2.43092e-13
3.28966e-16
2.67434e-19
1.30649e-20
2.12683e-23
7.55409e-27
3.94737e-30
2.72568e-33
1.90564e-36
1.32052e-39
9.1459e-43
6.32397e-46
4.36826e-49
3.01571e-52
2.07735e-55
1.42584e-58
9.79756e-62
6.70879e-65
4.58637e-68
3.13363e-71
2.13711e-74
1.45486e-77
9.89823e-81
6.70498e-84
4.54547e-87
3.07649e-90
2.07803e-93
1.40301e-96
9.43127e-100
6.33832e-103
4.25455e-106
2.8507e-109
1.90392e-112
1.27118e-115
8.47698e-119
5.63895e-122
3.7434e-125
2.48176e-128
1.64228e-131
1.08661e-134
7.16059e-138
4.7209e-141
2.13197e-144
1.03459
0.987211
1.1066
1.0004
0.964325
1.00153
0.033335
4.02304e-15
6.18478e-18
2.75595e-19
3.38915e-21
1.55849e-23
5.12285e-27
6.97316e-31
4.37389e-34
3.2493e-37
2.31294e-40
1.63553e-43
1.15531e-46
8.14703e-50
5.73865e-53
4.03424e-56
2.82997e-59
1.98277e-62
1.38645e-65
9.67413e-69
6.73949e-72
4.68595e-75
3.25149e-78
2.25362e-81
1.55985e-84
1.07741e-87
7.42892e-91
5.11128e-94
3.50918e-97
2.40633e-100
1.64672e-103
1.12445e-106
7.66977e-110
5.21976e-113
3.54433e-116
2.40333e-119
1.62651e-122
1.09838e-125
7.40728e-129
4.98539e-132
3.34671e-135
2.24398e-138
1.50258e-141
8.64132e-145
1.07822
1.03442
0.799454
0.993757
1.03039
0.991204
1.28767e-08
4.56046e-15
4.02299e-18
1.15252e-19
1.51189e-22
2.08736e-25
8.21534e-29
3.63739e-32
2.4923e-35
1.75415e-38
1.221e-41
8.48177e-45
5.88215e-48
4.07192e-51
2.81561e-54
1.94313e-57
1.33845e-60
9.20516e-64
6.32541e-67
4.3342e-70
2.96666e-73
2.0272e-76
1.38268e-79
9.41545e-83
6.40566e-86
4.34029e-89
2.93988e-92
1.9869e-95
1.34031e-98
9.03135e-102
6.07412e-105
4.07809e-108
2.73482e-111
1.8309e-114
1.22224e-117
8.15172e-121
5.4284e-124
3.60402e-127
2.39167e-130
1.58536e-133
1.04756e-136
6.91695e-140
4.5518e-143
2.89805e-145
1
1.02631
1
0.999876
0.994815
1
1.18173e-11
6.41361e-15
3.97888e-17
4.36875e-19
1.8121e-21
3.41729e-25
3.67257e-29
2.50038e-32
1.80863e-35
1.26361e-38
8.8002e-42
6.12481e-45
4.25651e-48
2.95249e-51
2.04527e-54
1.41374e-57
9.7555e-61
6.72589e-64
4.62778e-67
3.17818e-70
2.18086e-73
1.49349e-76
1.02049e-79
6.96851e-83
4.74829e-86
3.22742e-89
2.19073e-92
1.48449e-95
1.00411e-98
6.78377e-102
4.57483e-105
3.07864e-108
2.06893e-111
1.38787e-114
9.29321e-118
6.21523e-121
4.14883e-124
2.76289e-127
1.83752e-130
1.21989e-133
8.08352e-137
5.35023e-140
3.53217e-143
2.85655e-145
1.0153
0.994655
0.981956
1.03774
0.993223
0.772378
4.60058e-13
2.25076e-15
1.35752e-17
3.0866e-21
2.56432e-25
3.66935e-29
1.40337e-32
5.97569e-36
2.51386e-39
1.11578e-42
4.43992e-46
1.91943e-49
8.48252e-53
5.35707e-56
1.70857e-59
8.60326e-63
4.06437e-66
1.43373e-69
1.01563e-72
8.24667e-76
6.56604e-79
1.85685e-82
4.12773e-85
5.20254e-89
2.70655e-91
6.11381e-95
2.28456e-98
4.56306e-101
1.21182e-104
1.07566e-107
1.20963e-110
5.02658e-114
7.75232e-117
7.4047e-120
7.09975e-124
1.53373e-127
3.42461e-130
3.36832e-133
2.11814e-136
1.0203e-138
1.26689e-142
3.56836e-145
2.24335e-146
6.71966e-148
1.00003
0.999793
0.994416
1.04031
0.997352
1.00679
3.45652e-10
-1.47366e-19
-3.65252e-23
8.94817e-21
5.36697e-23
5.80086e-27
9.01508e-31
3.21319e-34
1.30186e-37
5.29996e-41
4.74098e-44
2.51622e-46
4.99339e-50
3.60988e-54
1.34749e-57
5.37584e-61
2.57645e-64
9.11476e-68
3.95461e-71
2.60411e-74
7.07917e-78
3.27974e-81
1.18694e-83
1.32939e-87
1.0574e-90
2.05553e-93
1.38819e-97
1.19016e-100
1.97146e-103
1.42178e-106
2.67196e-110
1.31763e-113
3.49028e-115
9.12652e-119
8.8561e-123
1.5637e-126
1.23021e-129
2.44105e-131
3.0586e-135
1.58005e-139
8.84401e-142
3.08091e-145
4.21084e-146
1.71375e-147
1.00029
0.999899
1.00338
0.982986
0.87076
0.994646
3.6236e-07
-7.99268e-21
-5.50505e-21
4.06239e-20
2.29164e-21
5.49819e-24
5.26634e-28
4.64655e-32
1.73097e-35
7.28872e-39
3.07781e-42
1.30691e-45
5.50691e-49
2.28897e-52
9.7114e-56
4.02882e-59
1.76489e-62
7.43569e-66
3.02809e-69
1.29552e-72
5.83429e-76
2.66483e-79
1.65132e-82
1.8284e-85
4.60664e-89
1.58454e-92
6.76555e-95
1.00822e-98
3.92389e-102
3.80353e-105
2.55735e-108
1.18233e-111
6.05004e-115
1.80549e-117
1.54952e-120
2.03608e-124
1.31132e-127
2.53622e-130
3.08201e-133
2.04328e-137
1.14936e-139
4.727e-143
2.77462e-145
1.75546e-146
1.00039
1.03394
1.00074
0.977327
0.995504
1.00026
0.0883177
-1.95541e-18
-6.22805e-19
-3.16496e-22
5.59257e-22
4.54252e-24
2.82705e-28
4.41266e-32
1.79178e-35
7.40199e-39
3.0614e-42
1.27654e-45
5.19067e-49
2.1622e-52
8.81919e-56
3.58667e-59
1.7265e-62
9.93591e-66
4.35122e-69
2.02754e-72
4.90302e-76
2.78942e-78
1.54509e-81
5.96224e-86
2.64111e-88
3.38126e-91
1.14218e-94
1.34631e-98
6.59079e-102
1.15604e-104
4.23763e-108
4.47734e-111
3.7978e-115
1.69294e-117
6.92283e-121
3.72502e-123
3.67362e-126
8.54519e-130
2.1218e-133
5.84455e-136
3.62619e-139
1.44616e-143
2.73448e-145
1.7326e-146
1.12825
1.07559
0.999438
1.00007
1.00037
1.0001
0.603454
-9.18461e-18
-6.60686e-19
-2.68668e-21
1.1665e-20
8.36273e-23
5.04711e-27
1.00261e-30
4.12972e-34
1.7012e-37
6.98865e-41
2.88231e-44
1.22275e-47
5.11823e-51
1.9878e-54
8.19345e-58
3.48254e-61
1.42234e-64
9.01119e-68
5.45335e-71
1.53746e-74
4.53967e-78
2.88178e-81
4.35646e-84
2.6396e-87
2.72419e-91
6.59325e-94
3.26558e-97
9.53851e-100
4.93879e-104
1.76756e-106
1.19096e-109
6.55375e-112
1.56064e-115
1.00587e-119
1.43023e-121
1.62089e-125
1.62602e-128
2.77522e-132
5.8746e-136
2.29193e-137
4.92588e-141
5.95225e-144
1.34752e-145
0.991316
0.965043
0.989028
0.98259
1
0.99997
0.71375
-6.3587e-18
-5.30743e-21
-1.96642e-22
1.17182e-20
8.52085e-23
5.09079e-27
1.00265e-30
4.09393e-34
1.6916e-37
6.97538e-41
2.90767e-44
1.18265e-47
5.40971e-51
2.10435e-54
1.02342e-57
3.62825e-61
1.38386e-64
5.83768e-68
4.1131e-71
1.09544e-74
3.99161e-78
1.65123e-81
1.34498e-83
2.3247e-86
1.05318e-89
3.30332e-93
5.32803e-97
5.78514e-101
3.3573e-103
2.15909e-106
1.4432e-109
6.23867e-114
1.36388e-115
3.53075e-119
2.46222e-123
6.44491e-125
2.12914e-128
6.43615e-132
3.30652e-136
2.96447e-139
4.38747e-141
6.21425e-145
6.19332e-146
0.89798
1.00751
1.07417
1.06768
0.980941
0.998774
0.471236
-4.82322e-20
-1.14336e-21
-8.20954e-25
5.7533e-22
5.54321e-24
3.84954e-28
4.2156e-32
1.68623e-35
6.94572e-39
2.86578e-42
1.21513e-45
4.96361e-49
2.05645e-52
1.2809e-55
3.7855e-59
1.60072e-62
8.31525e-66
3.89599e-69
1.03951e-72
5.43306e-76
1.7948e-78
1.07562e-81
1.09714e-85
3.58597e-89
1.16641e-92
5.10855e-96
6.2004e-99
4.26417e-101
1.17344e-104
1.38703e-108
1.39637e-110
1.6957e-114
3.50044e-117
9.03244e-121
1.32094e-124
1.21803e-126
2.29354e-130
2.44982e-133
1.42927e-137
6.24623e-139
1.29356e-142
2.94684e-145
2.10191e-146
0.784992
1.03861
1.08176
0.974906
1.00054
0.985837
0.0317096
-3.55357e-20
-1.48877e-25
1.74837e-20
2.71728e-22
2.94964e-25
2.55258e-29
3.5099e-33
1.37115e-36
5.78933e-40
2.50245e-43
1.06568e-46
4.9848e-50
2.03553e-53
8.28052e-57
3.76756e-60
1.84526e-63
6.28803e-67
1.39865e-69
2.36558e-73
9.21546e-77
1.01443e-79
4.18555e-83
2.18935e-85
1.93664e-89
8.10988e-93
1.91912e-95
7.59587e-99
1.17655e-102
2.9562e-105
1.37746e-108
9.82094e-112
9.76198e-115
3.40015e-117
4.029e-121
1.99509e-123
2.93919e-127
4.27209e-131
2.30663e-134
1.293e-137
2.24482e-140
1.02685e-143
2.64179e-145
1.55241e-146
0.889498
1.02325
1.09767
0.966739
1.00871
1.00271
8.97774e-09
-2.45475e-18
-2.54106e-22
6.93267e-21
5.26082e-23
4.40089e-27
7.10073e-31
2.62715e-34
1.08447e-37
4.51744e-41
1.91696e-44
7.85863e-48
3.28621e-51
1.36576e-54
5.49768e-58
2.37022e-61
9.45418e-65
4.25598e-68
1.67551e-71
6.79708e-75
5.11373e-78
1.43045e-81
6.48706e-85
4.18118e-88
5.82252e-90
8.44979e-94
1.50533e-96
1.01762e-99
2.80486e-103
1.97578e-106
7.77057e-110
6.96776e-113
4.3712e-117
3.80957e-119
3.6503e-123
7.25988e-127
4.74806e-129
9.55477e-132
1.21516e-135
1.03071e-138
1.10362e-141
7.34134e-145
5.91629e-146
1.95041e-147
1.06541
1.07243
1.11161
0.888586
0.992876
1.00108
4.08431e-12
1.42219e-15
9.3921e-18
2.79934e-20
2.50082e-23
1.15522e-27
1.8731e-31
7.50542e-35
3.13903e-38
1.35536e-41
5.52955e-45
2.50513e-48
1.00619e-51
4.05062e-55
1.78301e-58
8.94406e-62
3.15478e-65
1.51389e-68
7.62086e-72
2.55518e-75
4.91435e-78
6.09283e-82
5.86046e-84
1.75913e-87
2.50264e-91
1.91988e-93
6.87395e-97
4.87207e-101
4.73356e-104
2.7026e-106
9.59963e-110
1.06018e-113
1.76586e-115
2.84975e-119
2.583e-122
7.51513e-125
2.20818e-128
3.47294e-132
2.59749e-135
3.5674e-138
2.35055e-141
2.00892e-144
7.17831e-146
1.28987e-147
-1.64837e-17
1
-7.19637e-15
0.773456
3.61749e-10
0.999737
3.41415e-09
-9.73097e-17
1.00127
0.0332325
1.00226
1.84063e-07
1.00192
0.0393205
0.101701
0.998957
0.647352
1.00034
0.108619
1.0003
0.647822
0.796449
0.999375
1
1.00098
0.796244
1.00002
1
1.00001
1.0004
1.00001
1.00059
1.00005
1.00005
1
1.00003
0.991955
1
0.999694
1.00004
0.999578
1
1
1.01603
0.790005
0.988403
1.00001
1.01488
0.788836
0.675875
1.00708
0.092609
1.00665
0.676601
0.999496
0.0938158
0.0341925
1
-1.31956e-18
1
0.0434522
0.999658
2.20945e-07
-7.0601e-21
0.753115
-8.64356e-17
1.00043
3.49552e-09
0.754239
1.89389e-10
7.63566e-10
1.00125
7.76756e-09
0.7715
6.64404e-10
1.01029
7.12503e-09
2.85921e-07
0.999538
0.0402522
1.00691
4.08715e-07
1.00041
0.0407449
0.108563
1.00193
0.646777
1
0.107798
1.00189
0.647452
0.795531
1.00066
1.00015
1.00109
0.79594
1.00002
1
1.00055
1.00058
1.00053
1.00039
1
1.00012
1.00002
1.00056
0.997559
1.00042
0.999762
1.00005
0.999868
1
1.00023
1.01262
0.78821
0.994854
1.00002
1.01479
0.788212
0.676249
0.994005
0.0946647
0.965608
0.6768
0.990254
0.0994802
0.0430721
0.999375
4.33208e-07
1.00178
0.0400118
0.999
3.61809e-07
7.77089e-09
0.752726
4.95198e-10
1.00077
7.25307e-09
0.751227
6.35512e-10
3.7399e-10
1.01086
3.18017e-09
0.77325
-1.50693e-17
1.01086
-2.69959e-15
2.72216e-07
0.999664
0.0402539
1.00654
-1.35043e-16
1.00625
0.0334688
0.10694
1.00014
0.646564
0.998423
0.100981
1.00029
0.646796
0.795489
1.0006
1.00015
0.99972
0.796123
0.999568
1
1.00055
1.00059
1.00051
1.00023
1.00001
0.999873
1.00001
1.00054
0.993479
1.00043
1
1.00001
0.999126
1.00001
1.00021
1.00834
0.788388
1.00108
1
1.00001
0.789478
0.678105
0.977983
0.101637
0.997425
0.677753
0.973044
0.0999351
0.0357497
0.999694
2.25686e-07
1.01001
0.0317029
1
-1.63589e-18
3.44621e-09
0.749533
3.51274e-10
1.00462
-9.24155e-20
0.745171
-8.77272e-17
1
1.00611
0.990982
0.997663
0.99929
0.987179
1.0263
0.0992146
0.0668641
0.817061
0.771543
0.806694
0.0852611
0.0703393
-2.46844e-19
-1.12872e-15
-2.18545e-18
4.45055e-13
3.40746e-15
4.98779e-12
2.47185e-15
0.947108
0.961979
1.00808
0.99165
1.01799
0.842629
0.999996
0.939758
0.735891
0.996968
0.999943
0.739204
0.997081
0.939909
-7.26918e-18
-1.40578e-18
-6.16791e-17
2.34028e-10
5.14591e-12
1.69177e-08
2.63626e-12
1.01733
1.00711
0.983651
1.04876
1.01476
0.991077
0.934903
0.999998
1.00002
1
1.00054
1.00005
0.995826
1.00074
-4.02531e-19
0.0209764
-9.04299e-18
3.51427e-07
5.11386e-12
0.0275683
3.27367e-12
0.999484
0.999953
0.999867
1.00066
0.995693
1.0001
0.999958
1.00003
0.999974
0.999842
0.999725
0.99996
1
1.00047
-2.66568e-17
0.479535
-1.45973e-18
0.0880648
2.8263e-10
0.480602
2.8263e-10
1.00006
1.00247
0.999905
1.00175
0.999679
0.996976
0.999999
0.999446
0.999768
0.99905
0.999442
0.999412
0.999249
0.999469
-4.94848e-19
0.714626
-4.25143e-16
0.604126
6.28218e-09
0.715503
6.28218e-09
1.00154
1.01085
1.00861
0.350592
1.02806
0.689035
0.968384
1.0002
1.00103
1.00051
1.00065
1.00098
1.00001
1.00051
-2.6778e-17
0.607172
-4.31472e-17
0.715315
4.62506e-09
0.607352
4.62506e-09
0.974729
1.08202
1.03953
1.01915
0.978763
1.08881
1.03883
1.00082
0.99946
0.988295
0.988797
0.999894
1.00643
0.999375
-6.11731e-18
0.0804409
-1.1201e-17
0.469088
1.12876e-10
0.0881076
1.18128e-10
1.10909
1.03038
1.00921
1
1.04217
1.02263
0.987115
1.00313
1.00003
1.01543
1.00683
0.999999
1.01596
1.00239
-3.897e-20
-1.11092e-18
-1.32636e-19
0.0325163
1.05641e-12
1.58302e-07
2.0044e-12
0.968324
1.00504
0.994273
1.04871
1.00681
1.03625
0.961434
0.993413
1
0.959798
0.985894
1
0.934283
0.992546
-7.8026e-17
-1.87953e-19
-2.76063e-17
8.94404e-09
1.14015e-12
2.40138e-10
1.9958e-12
1.00595
1.03955
1.00002
1.02272
1.00409
1.0347
1.00046
0.243136
0.473646
0.963556
0.996648
0.481505
0.975085
0.258138
-4.64977e-19
-2.71093e-18
-7.95842e-20
4.14342e-12
2.10878e-15
2.25938e-13
3.07746e-15
0.999786
0.97951
1.04052
1.00333
1
1.02448
1.03037
0.0999941
0.0744223
0.813935
0.769092
0.09446
0.809876
0.0747915
1.87303e-14
1.45935e-11
1.42564e-14
1.0628e-12
1.87434e-14
1.34572e-11
1.46144e-14
1.02134
0.887305
1.00485
0.985865
1.0287
0.936835
0.928106
0.936606
0.740419
0.997922
1.00499
0.935772
0.738768
0.99586
2.22093e-11
2.88903e-08
1.15751e-11
6.87421e-10
2.10666e-11
2.9306e-08
1.15751e-11
0.996338
0.965869
1.03009
0.985904
0.999879
0.965721
1.01354
0.998751
1.00006
0.962098
0.9852
0.998416
1.00006
0.979813
2.39831e-11
0.0283572
1.41291e-11
4.53724e-07
2.38955e-11
0.0283171
1.41291e-11
1.00571
0.998435
0.999961
0.997629
1.00236
1.00082
0.999977
0.999887
1.0002
0.999881
1.0013
1.00035
1.00092
1.00039
1.26526e-09
0.479051
1.06284e-09
0.0887692
1.26854e-09
0.480891
1.06284e-09
1.00002
0.981151
1.00391
1.00434
1
1.02513
1.00688
1.00035
1.00015
1.00038
1.00047
1.00078
1.00054
1.0011
1.70801e-08
0.714302
1.70801e-08
0.604307
1.70801e-08
0.715024
1.70801e-08
1.00358
0.916751
0.93962
1.03554
0.958791
1.10025
1.03659
1.00008
1.00016
1.00038
1.00007
1.00071
1.00056
1.00017
1.23776e-08
0.606534
1.23776e-08
0.714597
1.23776e-08
0.607234
1.23776e-08
0.967732
1.01181
1.00527
1.03216
0.981781
1.00721
1.00558
0.999932
0.999778
1.00132
0.967784
0.999935
0.998424
1.00026
3.93758e-10
0.0891585
6.4434e-10
0.468635
3.93758e-10
0.0890628
6.44978e-10
0.998394
1.10467
1.02938
0.999986
0.910441
1.03505
0.998127
1.00143
1
1.00887
1
1.00198
0.994043
1.00651
4.27759e-12
1.99342e-07
9.45623e-12
0.0329825
4.27759e-12
2.0207e-07
9.03882e-12
1.02638
1.00731
0.966144
1.00707
1.06447
0.903548
0.979645
0.993967
0.999962
0.989499
0.965564
0.99175
0.997752
1.00382
4.48485e-12
6.08276e-10
7.99783e-12
1.48539e-08
4.48491e-12
5.09218e-10
8.06922e-12
0.999703
0.994005
1.00065
0.975983
1.01709
0.941671
1.00002
0.231817
0.475865
0.997092
1.00031
0.215066
0.473713
0.98072
1.00188e-14
7.66675e-13
1.39458e-14
1.10306e-11
1.03888e-14
9.80031e-13
1.39322e-14
1
0.969811
1.02515
0.989267
1
1.04899
1.02962
0.0883039
0.0718577
0.804722
0.772678
0.103189
0.82318
0.0694004
3.41906e-15
4.89353e-12
2.53937e-15
-6.5443e-17
-2.40855e-19
-5.28761e-16
-2.31816e-18
1.01409
1.0152
1.02045
1.02547
1.00702
1.15192
1.07654
0.937939
0.744985
1.00872
1.00958
0.935608
0.741779
1.00588
5.28888e-12
1.75611e-08
2.75541e-12
-1.50845e-18
-1.24904e-17
-6.88275e-18
-6.43202e-17
0.984695
0.965112
0.992096
0.987071
0.978279
0.884051
1.0035
1.00014
1
1.01623
0.984934
1.00099
1.0002
1.00112
5.02153e-12
0.0276732
3.28051e-12
-7.55057e-16
-4.35817e-19
0.0210446
-8.89333e-18
1.00013
1.00047
0.999968
0.992867
1.00009
1.0005
1.00011
0.999761
1.00019
0.999875
1.00082
1.00034
1.00079
1.00018
3.00395e-10
0.478823
3.00395e-10
0.0809045
-2.66993e-17
0.478895
-1.96992e-18
1.00022
0.999937
1.0016
1.00008
1.00018
0.998204
0.999909
1.00005
0.999973
1.00042
1.0007
1.00066
1.00047
1.00149
6.26197e-09
0.714166
6.26197e-09
0.603182
-4.78638e-19
0.713927
-4.65854e-16
0.997314
0.998672
0.976926
0.999393
0.999261
1.00506
0.986692
1.00012
1.00011
0.999806
1.00011
1.00046
1.00062
0.99986
4.61323e-09
0.606739
4.61323e-09
0.71384
-3.69606e-17
0.607017
-5.96634e-17
1.02256
0.991508
0.999351
1.02545
1.00998
0.917835
1
1.00009
0.999822
0.993823
0.999163
1.0002
0.999796
0.992398
1.03608e-10
0.0881957
1.03608e-10
0.46732
-2.18885e-17
0.0804338
-1.2389e-17
0.901217
1.00547
0.853499
0.992021
0.994071
1.00765
0.947802
1
0.999283
0.987962
0.991526
1
0.999338
0.984642
1.03196e-12
1.62843e-07
1.82946e-12
0.0253084
-3.5055e-20
-1.39742e-18
-2.82866e-18
1.06363
0.808743
0.992745
1.00925
1.02097
0.874194
0.997018
0.998369
1
1.06743
1.01794
0.996241
1
1.0781
1.11563e-12
2.44883e-10
1.88682e-12
-5.86921e-16
-8.01422e-17
-1.39202e-19
-1.70877e-17
1.02493
0.966088
1.00002
0.926525
1.02319
0.963639
1
0.215464
0.469785
0.986743
1.00098
0.223368
0.467418
0.989101
1.44608e-15
4.17573e-13
2.34684e-15
-6.41568e-21
-3.28049e-19
-9.54177e-18
-1.68117e-19
1.12192e-07
-3.11788e-17
-4.76131e-16
3.47515e-11
3.47416e-11
-1.23086e-16
6.92562e-08
0.229713
0.948613
0.460114
1
0.971486
0.463026
0.260278
6.48999e-07
-1.33941e-15
0.00073858
5.21965e-10
5.22177e-10
0.00111799
-4.91416e-20
0.0948092
0.773434
0.0721999
0.817151
0.81262
0.0923136
0.069926
2.58288e-07
3.61751e-10
2.37014e-07
3.61745e-10
3.61755e-10
4.44059e-07
1.47901e-07
0.253269
0.998393
0.959746
0.469694
0.954995
0.466347
0.244692
1.03639e-06
3.41415e-09
3.42887e-09
0.00146751
3.93122e-09
0.000996572
1.12408e-06
0.208604
0.0479328
-1.02992e-18
4.48627e-08
0.0498757
4.48627e-08
0.205168
1
1.00108
1.00006
1.00154
1.0007
1.00008
1
0.465632
0.000603228
0.687834
0.0360013
0.00129624
0.688201
0.46514
0.938028
1.00174
0.734406
1
0.729724
0.996519
0.937661
0.209878
1.84063e-07
0.0579062
1.84063e-07
0.0579715
1.84063e-07
0.213603
1
0.996788
1.00725
1.00018
0.978594
1.00041
1
0.463395
0.0377776
0.00209753
0.68779
0.00176762
0.686565
0.465379
0.975731
0.828647
0.275827
0.104331
0.829262
0.279906
0.97801
1.00011
0.999329
1.00001
0.998622
0.999249
1.00003
1.00065
1
0.48153
1.00001
0.647659
0.484111
1.00004
1.00002
0.99896
1.0018
1.00062
0.962016
1.00008
0.962382
0.999961
0.974636
0.105875
0.827867
0.286093
0.82823
0.282589
0.972663
1.00045
0.99729
0.997692
1.00021
0.992618
1.00051
1.00031
1
0.646464
0.482185
1.00004
0.484764
1.00062
1
1.00003
1.00002
0.893627
0.79667
1.00004
0.895527
1.00058
0.999951
1.0002
0.999352
1.00006
0.999932
0.999855
1.00021
1.00005
1
1.00001
1
0.998364
1.00005
1.00058
1.0005
1.00002
1.0009
1.00047
1.00014
1.00005
1.00006
1.00058
0.795185
1.00017
0.895108
1.00055
0.894411
1.00003
1.00005
1.00067
0.999466
0.99995
0.999915
1.00057
0.999545
1.00045
1.00032
0.994683
1.00005
0.997313
1.00053
1.00003
1.00002
0.999999
1.00002
1.00003
0.999991
1.00004
1.00053
1.00006
0.999917
1.00049
1.00039
1.00012
1.00017
1.00005
1.00007
1.00002
1.00009
1.00005
1.00004
1.00009
1.00047
1.00042
0.999737
1.00086
1.00139
0.999876
1.00004
1.00035
1.00054
1.00055
1.00013
1.00004
1.00057
1.00053
1.0001
1.0006
1.00031
1.00023
0.999903
1.0007
1.00034
1.00011
1.00051
1.00052
1.00003
0.999971
1.00052
1.00043
1.0001
1.00007
1.00015
1.00002
1.00008
1.00019
1.00004
1.00051
0.999945
0.993366
0.999521
0.981193
0.996353
0.998735
0.998941
1.00003
1.00002
1.00001
1.00003
1.00004
1.00002
1.00042
1.00046
0.999787
1.00057
1.00056
1.00025
1.00019
1.00035
1.0005
1.00054
1.00014
1.00003
1.00056
1.00052
1.00015
1.00054
0.991953
1.00012
0.999887
1.00052
1.00003
1.00027
1.00056
1.00045
1.00003
1
1.0005
1.00033
1.00006
1.00005
1
1
1
1.00004
0.997292
1.00033
1.00452
1.02339
1.0003
1.01499
1.02787
1.00063
1.00484
1.00004
0.896403
1
0.789678
0.897576
1.00001
1.00038
0.999139
0.97881
0.999687
1.00389
1
1.00017
1.00032
1.00016
1.00014
1.00006
0.994107
1.00033
0.995764
1.00004
1.00539
1.01358
1.02557
1.00013
1.01935
1.00004
1.00427
1.00042
0.788834
0.897384
1.00002
0.896704
1.00006
1.00003
1
1
0.487613
0.67654
1.00001
0.487842
1.00003
1.01033
1.06139
1.00077
1.00868
1.0468
1.00093
1.00736
0.998844
0.301837
0.828405
0.09362
0.30421
0.829928
1
1.00254
1.00389
1
1.0152
0.999609
1.01283
1.00306
1
0.675928
1.00007
0.488294
1.00004
0.487615
1
1.00981
1.00128
1.02717
1.00002
1.03062
1.00036
1.01144
0.996312
0.0931648
0.31102
0.831251
0.307777
0.830058
0.994614
0.405515
0.678804
8.42231e-05
0.0392606
0.679356
0.000401631
0.411559
0.950282
1.00322
0.708721
0.998795
1.00649
0.711093
0.951085
0.182671
-2.20009e-17
0.0445749
5.37759e-08
5.37759e-08
0.0417099
0.180555
0.99045
0.982744
1
0.954174
0.999713
0.936061
0.993002
0.407143
0.0406844
0.683694
0.000276489
0.676921
0.000476438
0.404523
0.941139
0.994168
1.00656
0.71074
1.00511
0.724081
0.944671
0.195424
2.20945e-07
2.20945e-07
0.0436084
2.20945e-07
0.0335559
0.193354
1.93735e-07
0.00465729
-1.47358e-19
2.64388e-10
0.0001226
1.90645e-10