/*--------------------------------*- C++ -*----------------------------------*\
| =========                 |                                                 |
| \\      /  F ield         | OpenFOAM: The Open Source CFD Toolbox           |
|  \\    /   O peration     | Version:  5.0                                   |
|   \\  /    A nd           | Web:      www.OpenFOAM.org                      |
|    \\/     M anipulation  |                                                 |
\*---------------------------------------------------------------------------*/
FoamFile
{
    version     2.0;
    format      ascii;
    class       volScalarField;
    location    "0.6";
    object      p_rgh;
}
// * * * * * * * * * * * * * * * * * * * * * * * * * * * * * * * * * * * * * //

dimensions      [1 -1 -2 0 0 0 0];

internalField   nonuniform List<scalar> 
8192
(
98.9512
98.0382
105.396
100.753
97.7783
95.3546
93.1037
89.7577
87.349
84.8917
82.4627
80.0442
77.6423
75.2773
72.9286
70.6059
68.297
66.02
63.7641
61.5318
59.3066
57.0935
54.9119
52.7216
50.5554
48.4052
46.2608
44.1123
41.9814
39.8759
37.7662
35.6806
33.6248
31.5514
29.4752
27.4284
25.4374
23.4778
21.5265
19.5681
17.6373
15.7505
13.8654
11.9513
10.0656
8.22744
6.39112
4.54635
2.72201
0.910429
98.0537
98.0749
101.699
97.6689
98.0522
96.8864
93.3651
90.1203
87.6275
85.0835
82.5941
80.1281
77.7173
75.323
72.9509
70.6254
68.3048
66.0401
63.7883
61.5365
59.3087
57.0958
54.9046
52.7224
50.5444
48.3898
46.2489
44.1148
41.9922
39.8794
37.7813
35.6937
33.6204
31.5442
29.4793
27.4372
25.4315
23.4611
21.5077
19.5665
17.6428
15.7535
13.8728
11.9704
10.0726
8.21608
6.37688
4.54341
2.72431
0.910415
94.043
98.9526
100.261
100.266
100.099
98.394
94.5527
90.6222
87.8916
85.2257
82.6867
80.1715
77.7298
75.3386
72.9667
70.6216
68.3234
66.064
63.8121
61.5379
59.3134
57.0994
54.895
52.7168
50.5469
48.3847
46.2393
44.1201
41.9992
39.8819
37.7853
35.6911
33.5937
31.5343
29.4856
27.4494
25.431
23.4521
21.5045
19.5693
17.6505
15.7507
13.8562
11.9715
10.0834
8.21383
6.37162
4.54494
2.7272
0.910361
84.7461
98.3351
102.081
100.034
102.503
99.1838
96.4168
90.8202
87.973
85.2764
82.7022
80.2048
77.7353
75.3317
72.9678
70.627
68.3222
66.0545
63.7823
61.5383
59.3199
57.0982
54.8984
52.7175
50.5571
48.3943
46.2377
44.1261
41.9955
39.8718
37.7856
35.6859
33.5916
31.5267
29.4934
27.4665
25.437
23.4474
21.5045
19.5732
17.6542
15.7374
13.838
11.9577
10.0882
8.21584
6.37173
4.55183
2.73344
0.905708
97.4802
84.4814
103.513
93.3991
102.048
98.9383
97.1909
90.3849
87.6948
85.1088
82.5989
80.1226
77.7009
75.3065
72.9609
70.6261
68.3296
66.0429
63.7613
61.5395
59.3223
57.0961
54.9023
52.7209
50.5651
48.4089
46.2475
44.1207
41.9817
39.8641
37.7803
35.6798
33.5873
31.5247
29.4938
27.4758
25.4469
23.4524
21.5079
19.5825
17.6531
15.7251
13.8178
11.9472
10.0851
8.21719
6.37915
4.56624
2.74133
0.903622
108.534
109.403
96.2191
99.3863
94.2388
94.5118
95.5117
89.6546
87.261
84.8563
82.4437
80.0288
77.6426
75.2768
72.9516
70.6243
68.3316
66.0424
63.7541
61.5231
59.3177
57.092
54.9031
52.7307
50.5709
48.4212
46.2577
44.1153
41.9754
39.8566
37.7739
35.673
33.5804
31.5265
29.4988
27.4777
25.4571
23.4619
21.5111
19.5829
17.6476
15.7112
13.804
11.9366
10.081
8.22172
6.39533
4.5898
2.75092
0.906507
156.297
102.455
90.9298
87.3029
98.5329
93.1281
93.9764
89.1104
86.9329
84.6174
82.3078
79.9476
77.6086
75.2582
72.9273
70.6101
68.3222
66.0437
63.7539
61.5119
59.2999
57.0888
54.9
52.7381
50.5767
48.4225
46.2645
44.1126
41.9765
39.8657
37.7675
35.6589
33.5729
31.532
29.5008
27.4719
25.4624
23.4757
21.5128
19.5749
17.6401
15.7024
13.8001
11.935
10.0771
8.22373
6.40184
4.59018
2.75679
0.915638
103.346
114.1
93.0945
96.5041
100.724
89.8905
91.1696
88.7423
86.7249
84.4977
82.2222
79.8952
77.5759
75.2368
72.8936
70.6051
68.3102
66.0303
63.7656
61.5044
59.2909
57.0835
54.8981
52.7388
50.5736
48.4255
46.2655
44.1089
41.9878
39.872
37.7639
35.6563
33.5772
31.539
29.4987
27.4613
25.4615
23.486
21.5187
19.5698
17.6362
15.7157
13.8125
11.9394
10.0752
8.22586
6.40016
4.57904
2.75471
0.919693
98.4779
95.9504
185.285
102.131
91.4824
95.2117
91.3655
88.9547
86.815
84.5564
82.2528
79.918
77.5786
75.2351
72.9049
70.6039
68.2869
66.0144
63.7599
61.5127
59.2839
57.0771
54.9038
52.7361
50.5815
48.4262
46.2633
44.1085
41.9811
39.8706
37.7522
35.6574
33.5957
31.5438
29.4909
27.4504
25.4574
23.4909
21.5233
19.5683
17.6343
15.7231
13.8289
11.9404
10.0727
8.22759
6.39344
4.56811
2.74225
0.920947
80.0965
102.554
105.699
95.7643
97.5539
96.0225
92.6454
89.3935
87.0848
84.7034
82.3431
79.9617
77.5859
75.2518
72.9141
70.5952
68.2899
66.0148
63.7559
61.5176
59.2841
57.0816
54.9081
52.7258
50.5686
48.4221
46.264
44.1106
41.9795
39.8726
37.7558
35.6642
33.6103
31.5508
29.4811
27.4383
25.4465
23.4875
21.5268
19.5673
17.6353
15.7392
13.8453
11.9419
10.064
8.23039
6.39596
4.55746
2.7315
0.910963
99.1933
103.994
104.4
102.07
97.9485
95.3652
93.1056
89.7583
87.3488
84.8917
82.4628
80.0443
77.6421
75.2774
72.9286
70.6053
68.297
66.02
63.7642
61.5316
59.3065
57.0936
54.9118
52.7214
50.5554
48.4053
46.2607
44.1123
41.9813
39.8758
37.7662
35.6806
33.6248
31.5513
29.4752
27.4284
25.4373
23.4779
21.5265
19.568
17.6372
15.7506
13.8655
11.9514
10.0656
8.22749
6.39104
4.54629
2.72202
0.910512
98.121
98.1354
101.37
98.4948
98.5229
97.0342
93.3631
90.1207
87.6274
85.0835
82.5941
80.1281
77.7173
75.3229
72.9508
70.6252
68.3047
66.0402
63.7884
61.5364
59.3087
57.0959
54.9045
52.7224
50.5443
48.3898
46.2489
44.1148
41.9921
39.8795
37.7819
35.6937
33.6204
31.5439
29.4793
27.4371
25.4315
23.4611
21.5076
19.5665
17.6428
15.7536
13.8727
11.9701
10.0727
8.21606
6.37678
4.54341
2.72427
0.910363
94.131
97.0744
100.399
108.598
102.181
98.2889
94.5312
90.6232
87.892
85.2257
82.6867
80.1715
77.7298
75.3386
72.9667
70.6215
68.3233
66.0639
63.8121
61.5378
59.3132
57.0994
54.8949
52.7167
50.5469
48.3846
46.2393
44.1201
41.9992
39.8819
37.7851
35.691
33.5937
31.5342
29.4857
27.4494
25.4308
23.4521
21.5045
19.5692
17.6506
15.7508
13.8562
11.9712
10.0834
8.2138
6.37158
4.545
2.7273
0.910356
84.9672
134.061
102.132
99.8532
103.122
99.0708
96.2842
90.8216
87.9729
85.2762
82.7022
80.2048
77.7353
75.3317
72.9678
70.627
68.3221
66.0543
63.7822
61.5382
59.32
57.0982
54.8984
52.7176
50.5567
48.3942
46.2378
44.1262
41.9957
39.8716
37.7854
35.686
33.5916
31.5267
29.4934
27.4664
25.4369
23.4474
21.5045
19.5733
17.6542
15.7373
13.838
11.9578
10.0882
8.21583
6.37162
4.55182
2.73343
0.905566
89.8106
229.259
105.526
123.636
102.102
98.8444
97.2152
90.3846
87.6947
85.109
82.5989
80.1225
77.7005
75.3065
72.9609
70.6261
68.3296
66.0429
63.7613
61.5395
59.3223
57.0961
54.9023
52.721
50.565
48.409
46.2476
44.1206
41.9815
39.8638
37.7804
35.6799
33.5869
31.5247
29.4938
27.4758
25.4469
23.4524
21.5079
19.5825
17.6531
15.7247
13.8178
11.9472
10.0851
8.21717
6.37908
4.56619
2.74124
0.903672
118.792
95.6017
99.5912
99.8051
120.448
94.7712
95.5469
89.6542
87.2609
84.8564
82.4436
80.0288
77.6428
75.2768
72.9515
70.6242
68.3315
66.0425
63.754
61.5229
59.3175
57.0919
54.9031
52.7307
50.5709
48.4213
46.2576
44.1152
41.9754
39.8567
37.7739
35.6726
33.5803
31.527
29.4989
27.4777
25.4572
23.4619
21.5111
19.5829
17.6474
15.7108
13.804
11.9366
10.0808
8.2217
6.39534
4.58983
2.75063
0.906475
121.217
109.001
91.4601
107.689
99.6245
97.0727
93.9965
89.11
86.9328
84.6174
82.3077
79.9476
77.6086
75.2581
72.9273
70.6101
68.3222
66.0436
63.7537
61.512
59.2999
57.0888
54.9
52.7381
50.5766
48.4225
46.2644
44.1127
41.9766
39.8657
37.7677
35.6588
33.5729
31.5319
29.5007
27.4716
25.4624
23.4756
21.5128
19.575
17.6401
15.7023
13.8
11.935
10.077
8.22372
6.40197
4.59028
2.75678
0.915757
103.04
105.04
131.398
90.6052
99.5617
89.4299
90.9974
88.7426
86.7251
84.4978
82.2222
79.8952
77.5758
75.2368
72.8935
70.6051
68.3104
66.0301
63.7657
61.5044
59.2909
57.0836
54.8981
52.7388
50.5734
48.4256
46.2659
44.1088
41.9877
39.8721
37.7638
35.6562
33.5772
31.539
29.4986
27.4613
25.4615
23.4859
21.5187
19.5697
17.6361
15.7158
13.8126
11.9393
10.0751
8.22585
6.40015
4.57902
2.75479
0.919665
104.772
94.9408
100.1
96.7458
97.6362
96.89
91.3616
88.9551
86.8151
84.5564
82.2528
79.918
77.5786
75.2351
72.9049
70.6041
68.2871
66.0135
63.7599
61.5128
59.2839
57.0771
54.9038
52.7361
50.5815
48.4262
46.2632
44.1086
41.9812
39.8708
37.7523
35.6572
33.5956
31.5438
29.4907
27.4505
25.4576
23.4908
21.5232
19.5683
17.6344
15.7232
13.8288
11.9403
10.0726
8.22755
6.3934
4.56807
2.74228
0.920943
76.3659
103.576
96.9042
93.7238
97.3192
96.0125
92.6472
89.3941
87.0847
84.7034
82.3432
79.9616
77.5854
75.2518
72.9141
70.5955
68.2898
66.0148
63.756
61.5176
59.284
57.0814
54.9081
52.7258
50.5687
48.422
46.264
44.1106
41.9795
39.8726
37.7556
35.6641
33.6104
31.5508
29.4809
27.4384
25.4465
23.4874
21.5267
19.5673
17.6353
15.7392
13.8452
11.9418
10.0639
8.23041
6.39576
4.55746
2.73159
0.910953
99.8891
101.458
105.499
100.218
94.5181
95.2541
93.1047
89.7581
87.3489
84.8916
82.4628
80.0443
77.6419
75.2774
72.9285
70.605
68.2969
66.0202
63.7642
61.5314
59.3064
57.0937
54.9116
52.7212
50.5555
48.4053
46.2605
44.1123
41.9811
39.8758
37.7662
35.6806
33.6248
31.5511
29.4751
27.4283
25.4373
23.4778
21.5265
19.5679
17.637
15.7506
13.8656
11.9515
10.0656
8.22763
6.39091
4.54618
2.72196
0.910501
98.0387
98.085
98.898
95.8193
95.3224
97.0513
93.3646
90.1198
87.6274
85.0834
82.594
80.128
77.7172
75.3229
72.9508
70.6244
68.3047
66.0402
63.7883
61.5363
59.3093
57.0959
54.9044
52.7218
50.5442
48.3898
46.2485
44.1147
41.9922
39.8795
37.7819
35.6937
33.6203
31.5438
29.4793
27.4371
25.4314
23.4612
21.5074
19.5663
17.6428
15.7537
13.8725
11.9697
10.0728
8.21607
6.37656
4.54336
2.7242
0.910168
93.9766
98.3924
100.611
106.583
138.97
96.0202
94.5334
90.6231
87.8924
85.2256
82.6866
80.1714
77.7297
75.3385
72.9666
70.6214
68.3233
66.0636
63.812
61.5377
59.313
57.0993
54.8947
52.7166
50.5468
48.3845
46.2395
44.12
41.9991
39.8819
37.785
35.6906
33.5935
31.5342
29.4858
27.4493
25.4306
23.4521
21.5044
19.5691
17.6505
15.7508
13.8559
11.971
10.0834
8.21373
6.3715
4.545
2.72728
0.910043
84.7907
99.2093
102.056
107.861
102.329
99.0997
96.293
90.8217
87.9729
85.2758
82.7021
80.2047
77.7352
75.3316
72.9677
70.6269
68.3221
66.0541
63.7821
61.5381
59.32
57.0981
54.8984
52.7177
50.5564
48.3939
46.2379
44.1261
41.9956
39.8716
37.7853
35.686
33.5915
31.5266
29.4934
27.4663
25.4368
23.4474
21.5045
19.5735
17.6541
15.7372
13.8377
11.9579
10.0882
8.21576
6.37152
4.55177
2.73329
0.905237
100.683
255.711
103.8
104.207
101.955
98.9992
97.2078
90.384
87.6945
85.1091
82.5988
80.1221
77.7003
75.3064
72.961
70.6261
68.3295
66.0428
63.7612
61.5394
59.3223
57.0956
54.9022
52.721
50.5647
48.409
46.2477
44.1206
41.9814
39.8637
37.7804
35.6798
33.586
31.5247
29.4938
27.4757
25.4473
23.4523
21.5079
19.5825
17.653
15.7242
13.8179
11.9472
10.085
8.21711
6.37924
4.56611
2.74116
0.903584
118.267
82.4929
98.824
100.088
110.127
94.8463
95.5458
89.6539
87.2606
84.8564
82.4434
80.0288
77.6429
75.2767
72.9512
70.6241
68.3315
66.0425
63.7539
61.5229
59.3174
57.0919
54.9029
52.7307
50.5709
48.4211
46.2575
44.115
41.9753
39.8572
37.774
35.6724
33.5801
31.5276
29.4988
27.4776
25.4572
23.4618
21.5111
19.5831
17.6473
15.7103
13.804
11.9366
10.0806
8.22163
6.39535
4.58982
2.75011
0.906437
110.834
104.395
97.4528
101.871
106.175
96.3454
93.9912
89.109
86.9328
84.6173
82.3077
79.9475
77.6085
75.2581
72.9272
70.61
68.3221
66.0434
63.7537
61.512
59.2999
57.0887
54.8999
52.738
50.5764
48.4225
46.2643
44.1127
41.9769
39.8657
37.7675
35.6587
33.5728
31.5319
29.5004
27.4713
25.4623
23.4756
21.5127
19.575
17.64
15.7022
13.7999
11.9349
10.0769
8.22365
6.40218
4.58996
2.75672
0.915751
137.494
115.635
115.452
84.9014
97.646
91.0622
91.0056
88.7426
86.7251
84.4976
82.2221
79.8951
77.5758
75.2367
72.8935
70.605
68.3107
66.0298
63.7659
61.5044
59.2908
57.0836
54.8983
52.7387
50.5733
48.4256
46.2658
44.1085
41.9874
39.8721
37.7638
35.6561
33.5772
31.5389
29.4985
27.4613
25.4614
23.4857
21.5186
19.5698
17.636
15.7157
13.8125
11.9393
10.075
8.22578
6.4001
4.57898
2.75477
0.919665
103.812
91.6102
104.006
111.26
98.1625
91.8498
91.3665
88.9548
86.8154
84.5563
82.2527
79.918
77.5785
75.235
72.9048
70.6044
68.2871
66.0134
63.7599
61.5128
59.2838
57.077
54.9037
52.736
50.5814
48.4261
46.2628
44.1087
41.9814
39.8708
37.7521
35.6571
33.5963
31.5437
29.4906
27.4506
25.4576
23.4906
21.5231
19.5682
17.6344
15.7232
13.8287
11.9401
10.0726
8.22747
6.3933
4.568
2.74235
0.920856
107.182
102.731
92.9614
99.666
109.808
96.0009
92.6464
89.3939
87.0847
84.7033
82.3431
79.9615
77.5852
75.2517
72.914
70.5957
68.2898
66.0148
63.756
61.5176
59.2839
57.0814
54.908
52.7258
50.5687
48.422
46.2636
44.1106
41.9795
39.8723
37.7555
35.664
33.6108
31.5507
29.4808
27.4385
25.4465
23.4873
21.5267
19.5672
17.6352
15.739
13.8452
11.9417
10.0639
8.23037
6.39558
4.55719
2.73157
0.910883
93.8213
95.7378
94.6333
95.4081
93.8287
95.7643
94.6421
94.8375
96.8196
95.1849
96.9734
94.8362
97.9056
95.0907
96.067
99.3943
97.6315
98.3325
95.9607
99.2467
97.6565
97.9678
99.1458
97.9738
99.1221
98.009
99.0745
97.9945
97.8114
96.5621
96.1643
99.0242
97.8216
96.6618
96.1684
95.5882
95.1943
94.5511
94.698
95.5887
95.3133
94.5576
94.3522
93.1454
93.0545
94.9174
94.3595
93.2784
93.0949
92.7684
92.6698
91.3365
90.0038
92.7924
91.8214
91.2391
92.064
95.1613
92.3447
99.3939
91.8807
95.0373
92.3528
93.3127
95.8141
93.93
96.0242
93.3167
95.8627
93.9387
93.8259
95.7483
94.6399
95.3186
93.8275
95.7204
94.6473
94.8451
97.7285
95.0791
97.058
94.8566
99.1894
95.085
95.9414
99.2094
97.6543
97.9599
95.9254
98.2674
97.6596
98.0101
99.0918
97.9839
99.1736
98.015
99.1133
97.9782
97.8244
96.7078
96.166
99.0028
97.8242
96.613
96.1712
95.5873
94.6862
94.5604
94.7848
95.5891
97.3506
94.5579
94.3613
93.04
93.0958
96.1856
94.3775
93.9395
93.093
92.7873
91.7392
91.2414
98.3784
92.7693
92.7713
91.2563
91.8512
95.0348
92.344
91.6587
91.9162
95.1016
92.346
93.3165
95.9042
93.9364
96.0095
93.3174
95.9034
93.9372
93.831
95.7187
94.6512
95.1871
93.823
95.7221
94.638
94.8603
99.3143
95.0975
97.0329
94.8342
94.644
95.2007
95.9388
98.3044
97.6554
94.4066
96.0542
98.4899
97.6256
98.0125
99.1501
97.9655
99.1319
97.9739
99.1325
97.9396
97.8239
96.7836
96.1772
99.0876
97.8054
96.697
96.1773
95.5925
96.0512
94.5571
94.9681
95.592
95.1174
94.5506
94.3835
93.1019
93.0889
96.5495
94.3885
93.8201
93.0429
92.7761
92.3794
91.3108
90.9305
92.7382
92.375
91.4379
91.8975
95.0825
92.3469
93.2325
91.9583
95.0997
92.3525
93.3175
95.8777
93.9396
96.0044
93.3071
95.8904
93.9292
95.0416
93.3256
95.9474
97.6585
94.9976
94.7897
96.1155
95.4447
94.9147
96.0473
95.4198
96.1907
95.6477
94.8184
91.5836
93.2712
91.8942
93.1049
91.5928
93.2719
91.9036
97.7575
109.001
104.281
97.4819
97.4913
113.773
103.749
97.4946
97.0765
95.0138
96.9193
97.1919
95.0026
97.4116
92.1549
93.7525
92.4171
93.3641
92.1643
93.7502
92.427
98.2821
101.234
110.78
98.1946
97.9699
99.7034
115.56
97.7673
97.5164
101.157
98.3891
97.521
100.44
97.9089
92.7068
95.6491
93.116
94.5358
92.7163
95.506
93.1259
99.9131
100.58
99.6514
102.486
100.275
100.587
99.6366
98.818
98.7188
99.2015
99.1279
98.7194
99.1753
98.7758
93.452
97.1922
93.3006
96.2948
93.4626
97.122
93.3097
99.6953
102.2
97.5281
102.115
99.7204
101.797
97.522
98.0107
98.4973
98.6442
99.099
98.5611
98.6007
98.0058
92.7624
95.9469
92.1809
97.2148
92.7674
95.9799
92.1852
89.5882
111.201
96.1774
308.411
91.07
167.592
96.053
94.3765
95.1145
93.5524
94.5437
95.1035
93.5775
94.3311
91.6352
94.1773
91.0781
95.545
91.6386
94.2099
91.0817
96.7447
98.4248
95.9169
98.5894
96.9035
99.0401
95.866
94.7622
94.6971
98.1506
91.8744
94.6718
95.4768
94.5865
90.9885
92.1621
90.6882
93.9457
90.9949
92.032
90.6959
104.074
97.854
93.9521
98.2921
97.7477
97.8529
92.9544
92.9512
92.757
92.3285
89.9188
92.7492
92.3724
92.9536
90.2454
90.9917
90.2121
91.0105
90.2526
90.9803
90.2193
161.66
98.1328
102.252
98.308
99.0408
100.941
96.4236
91.882
94.159
98.2336
95.1459
94.1357
97.5084
91.8804
90.1843
92.2241
90.7152
91.363
90.1916
92.2252
90.7229
96.9474
98.1574
96.4895
97.2348
96.8252
97.6923
96.5151
94.3227
95.0909
95.9367
96.0099
94.9472
95.3033
95.1873
91.0837
92.8719
91.377
92.6468
91.0923
92.8727
91.3856
94.9874
96.2204
101.178
95.6705
94.9648
102.646
97.5655
95.0311
94.8256
95.858
95.3581
95.185
95.7527
94.8111
91.5914
93.2723
91.9026
93.1058
91.5913
93.2722
91.9023
97.8802
110.256
100.622
96.1003
99.4185
102.836
104.736
97.5894
97.1414
95.702
97.0354
97.5956
97.0663
96.1376
92.1632
93.7479
92.4264
93.364
92.1624
93.7469
92.4262
97.5744
103.92
101.71
99.3457
97.3014
103.867
98.8786
97.8393
97.5137
100.759
102.573
97.9036
97.5074
100.531
92.7151
95.4943
93.1249
94.528
92.715
95.4884
93.1249
100.35
100.865
99.623
102.323
99.7748
100.605
99.6087
98.7294
98.6911
99.2168
99.223
98.6973
98.74
99.1529
93.4618
97.1189
93.3081
96.2835
93.4616
97.1299
93.3081
99.687
103.072
97.9216
102.35
99.6993
115.628
94.5362
97.9787
98.4519
98.3326
98.9832
98.1085
98.4678
98.388
92.7636
95.9832
92.1813
97.2187
92.7635
95.9791
92.1812
85.978
86.3609
101.061
121.068
97.5201
109.382
105.631
94.3788
95.1466
93.6383
94.8419
94.3736
95.0749
93.6491
91.6351
94.2199
91.0778
95.5482
91.6355
94.2244
91.0778
98.3129
99.2747
95.4846
99.9828
96.5383
98.5497
94.0454
94.2903
94.6728
94.7953
101.085
94.2887
94.8814
94.8139
90.9927
92.024
90.695
93.9173
90.9924
92.0238
90.695
97.5572
92.6463
93.9762
97.5695
93.6847
105.506
94.875
92.8644
92.8415
91.8221
89.3565
92.8595
92.7042
91.8043
90.2516
90.9775
90.2185
90.9966
90.2513
90.978
90.2182
100.158
96.008
96.4045
97.8895
99.1191
98.3314
97.4628
91.9852
94.0393
93.7788
98.8601
91.8941
93.9958
94.1371
90.1899
92.2265
90.7217
91.3634
90.1898
92.2259
90.7217
97.6463
97.4973
96.5127
108.406
96.9145
101.4
96.4888
95.0764
94.9416
96.0735
96.0074
95.0853
94.9531
96.0319
91.091
92.8733
91.3844
92.6474
91.0908
92.8732
91.3845
94.9535
100.221
98.1603
95.1797
94.9417
92.7535
98.0752
95.3927
94.8043
95.6592
95.2043
94.8653
96.163
94.8344
91.5925
93.2718
91.9031
93.1042
91.5832
93.2713
91.8936
98.4589
97.2056
89.8908
92.7897
99.907
109.803
95.3229
97.4022
97.0348
96.6338
97.0968
97.3565
97.0544
96.4156
92.1629
93.748
92.4275
93.3646
92.1529
93.7498
92.4182
97.1733
104.958
97.2779
96.7611
97.5546
120.904
96.2746
98.0426
97.4917
101.847
99.1983
98.0765
97.4881
97.6447
92.7162
95.5055
93.1259
94.5454
92.707
95.6269
93.1161
99.5487
100.569
99.5962
102.57
99.5637
100.575
99.5974
98.8257
98.6991
99.2091
99.1067
98.7015
98.7236
99.1532
93.4625
97.1318
93.3099
96.4081
93.4523
97.2091
93.3008
99.7081
105.195
99.1366
101.974
99.7078
105.494
99.1656
97.9811
98.4471
98.5194
99.1845
97.9806
98.6006
98.8862
92.7669
95.9722
92.1848
97.1859
92.7615
95.94
92.1805
96.1194
107.569
95.9787
109.906
97.2795
107.939
95.5429
94.3833
95.1324
93.827
94.921
94.3268
95.1926
93.9017
91.6394
94.2204
91.0816
95.5123
91.6364
94.1885
91.078
96.6587
98.2797
94.2421
103.039
95.4679
97.0583
93.8338
94.2643
94.618
94.7024
96.3822
94.2748
94.6174
94.7356
90.994
92.0332
90.696
93.9553
90.987
92.1636
90.6886
97.3485
104.981
144.238
96.8082
88.4645
106.443
112.669
92.7961
91.8519
92.3145
90.7962
92.8101
91.875
92.7633
90.2522
90.9797
90.2186
91.164
90.2449
90.9931
90.2112
100.461
124.915
93.8003
94.2696
104.107
107.667
94.6295
92.3128
93.8805
100.677
96.1221
92.2226
93.8552
104.933
90.1912
92.224
90.7229
91.3674
90.1839
92.223
90.7153
97.3758
99.8984
96.4627
114.428
96.651
98.4462
96.4126
94.9501
94.9207
95.7616
95.987
94.8187
94.9407
95.7667
91.0919
92.8724
91.3856
92.6457
91.0831
92.8715
91.3771
94.9214
94.511
94.077
93.8314
94.089
94.9371
94.508
95.9808
95.6578
96.5679
95.7594
95.8106
96.4439
95.6725
94.9399
94.1661
94.8617
94.6437
94.1751
94.8509
94.8676
95.1943
95.4616
94.7723
96.0445
96.0352
95.2281
94.7696
94.9269
93.8275
94.5075
94.0891
94.0868
94.9438
94.5077
94.7466
95.7709
94.7149
96.3991
94.9043
96.4117
94.6229
94.9156
94.6403
94.1749
94.8381
94.173
94.833
94.883
94.9614
95.0579
94.7984
94.843
94.9228
94.808
95.0698
98.762
96.4282
96.7487
96.8428
96.2447
96.7685
98.7241
95.9335
94.957
96.9218
95.121
94.9543
96.9467
95.9226
97.4699
96.9375
97.1957
95.78
97.3097
95.1127
97.4798
94.9057
94.8309
94.9311
94.793
94.9615
94.7999
94.8405
98.8201
98.1905
103.454
96.8084
103.383
96.7817
98.9205
95.9393
95.0961
94.9359
96.975
94.9403
96.9615
95.8564
97.2959
96.8859
96.7968
95.9896
96.915
96.7381
97.3061
98.1818
98.8184
98.371
99.4028
98.8116
98.3667
98.2407
98.0452
97.3861
98.0862
97.6491
97.3862
98.0954
98.0138
97.7708
98.66
97.5283
100.882
97.5237
100.598
97.755
97.2971
95.9581
96.9087
96.7783
96.918
96.7467
97.27
98.0768
99.7497
99.0278
98.3519
100.612
98.4019
98.0534
98.0656
97.6577
97.3419
98.0938
97.3767
98.095
98.0844
98.454
98.294
98.0114
97.9891
98.3006
98.054
98.4487
98.6395
99.1631
98.7055
99.0257
99.1149
98.6142
98.6841
98.4104
98.1128
98.1704
97.9976
98.1115
98.1659
98.4579
98.8189
99.1281
98.7761
99.3094
98.7188
99.1785
98.6703
98.4541
98.0023
98.2961
98.077
98.2992
98.0704
98.4533
98.6317
99.1849
99.2797
98.4964
99.1166
98.6923
98.8048
98.3448
98.0052
98.115
98.1536
98.1088
98.2102
98.3765
97.8179
98.0243
97.344
97.8222
98.0246
97.3526
97.765
97.369
98.0278
96.4029
96.561
97.994
96.3459
97.3719
97.1817
96.8311
96.2943
96.1725
96.8412
96.2959
97.1231
98.0044
98.9987
98.7091
98.6845
98.3967
98.5903
98.0063
97.6562
97.8238
97.9619
97.3458
98.0424
97.3487
97.6428
97.3742
96.5709
97.9798
96.4877
98.0166
96.3285
97.3599
97.0521
96.1708
96.8395
96.3456
96.8408
96.3581
97.0206
94.987
95.5126
95.0575
95.5945
95.5104
95.0656
94.9261
95.3029
96.2559
94.5693
97.3431
95.7083
94.6422
95.4891
95.2131
95.0027
94.4268
94.5583
95.009
94.4257
95.1638
94.2868
94.6514
95.0819
93.6242
95.1134
93.5717
94.2533
94.853
95.5915
95.6151
95.0579
95.6334
95.0624
94.7726
95.3061
93.3993
96.1918
94.3921
96.3237
94.431
95.2205
95.0719
94.5582
94.9982
94.4504
95.0028
94.5439
94.9348
94.0785
94.5748
94.0009
94.3531
94.566
93.9764
94.0999
93.9631
94.4536
93.2374
93.0904
95.125
93.2575
93.96
93.7571
93.7767
93.0572
93.0739
93.8119
93.0575
93.7531
94.5853
95.5007
94.6617
94.9602
94.6819
94.1382
94.3768
94.0683
94.3492
94.567
93.9759
94.6608
93.9745
94.0819
94.081
93.1819
94.0318
93.2252
93.7032
93.2305
93.9066
93.7611
93.0884
93.821
93.0464
93.8231
93.0527
93.7686
92.5836
92.5525
91.8996
92.7839
92.5494
91.8936
92.581
93.462
93.9136
93.1722
92.958
91.0546
93.1838
93.6304
92.7934
92.1378
92.2567
91.2835
92.0652
92.2849
92.7936
92.892
89.679
92.8298
92.2959
92.7994
92.0225
92.9727
92.579
92.7924
92.5286
91.8793
92.5378
91.889
92.5777
93.4328
91.983
90.8506
93.1841
90.8814
93.1807
93.5532
92.783
91.2504
92.0388
92.2972
92.031
92.3029
92.792
91.2507
94.0394
91.0288
91.9329
94.0495
91.0522
91.2614
95.3481
97.4811
93.5769
95.0969
97.4648
93.5035
95.3739
94.5511
92.7956
93.161
92.3591
92.7949
93.148
94.6411
91.8506
95.674
94.0819
94.1399
94.1045
97.0246
91.8685
91.2516
91.8966
94.0775
91.0408
94.0689
91.0505
91.1681
95.5185
95.2601
97.4639
93.5427
97.3118
93.9589
95.3946
94.7029
92.3592
92.7855
93.1026
92.7709
93.4281
94.5659
94.5163
94.2029
93.6944
93.3211
94.2194
93.7099
94.4774
95.3072
95.3601
95.4528
95.8139
95.0102
96.0369
95.4022
94.2079
93.662
94.6395
93.9402
93.6686
94.2261
94.6381
94.4426
96.1117
94.9264
96.0023
95.1343
95.4855
95.1635
94.5718
93.3161
94.1235
93.7154
94.198
93.7122
94.6107
95.137
95.8305
95.7639
95.3489
95.0794
96.0431
95.3723
94.1786
93.937
93.6633
94.6324
93.6623
94.1607
94.635
94.929
94.5053
94.0855
93.8268
94.9484
94.083
94.5055
94.798
94.7724
96.3485
95.7241
94.7412
94.8127
96.3672
94.9286
94.171
94.8357
94.6446
94.898
94.1723
94.8088
95.7151
95.3632
94.7664
95.7895
96.6678
95.0262
94.7573
94.9037
93.8273
94.509
94.0797
94.0809
94.9058
94.5073
94.817
95.7015
94.7605
96.3796
94.864
96.3691
94.7118
94.93
94.6469
94.1703
94.8028
94.1713
94.8035
94.8902
94.8306
94.9553
94.7814
94.8504
94.8626
94.965
94.7947
99.0755
90.9
96.8337
97.8779
99.0124
90.2681
96.8638
95.5667
94.9492
96.975
95.081
95.6641
94.9674
96.9735
97.4936
97.0573
96.9934
96.8562
97.0733
95.9043
97.3782
94.8013
94.8526
94.9789
94.8419
95.0029
94.8259
94.8787
99.132
107.506
106.701
96.9042
107.431
96.8871
99.3049
95.6072
95.0801
94.9996
96.9806
94.9895
96.9807
95.6831
97.296
96.9016
96.7635
95.9192
97.2958
96.9068
96.7325
97.991
98.9778
98.3859
100.22
97.987
100.451
98.3054
98.1661
97.3154
98.0925
97.6607
98.1183
97.3233
98.0896
97.8705
98.013
97.5048
101.657
97.5062
100.482
98.192
97.269
95.9203
96.8208
96.6942
96.8625
96.7006
97.2375
98.0722
100.831
97.9164
98.2229
99.9389
98.306
97.8071
98.1917
97.663
97.2896
98.0848
97.3266
98.0861
98.1766
98.4526
98.2948
98.0814
98.0132
98.4519
98.2963
98.0861
98.6882
99.2952
98.6286
99.0107
98.9319
99.0838
98.7714
98.3907
98.1219
98.2753
97.9886
98.4074
98.1371
98.148
98.6355
99.096
98.8324
99.2592
98.6311
99.2484
98.6522
98.4529
98.0139
98.3005
98.0435
98.2972
98.069
98.4563
98.6949
99.0082
99.2791
98.6239
99.0873
98.7655
98.8765
98.3925
97.99
98.1266
98.3433
98.1343
98.1787
98.4065
97.6664
98.1533
97.3446
97.8235
97.7953
98.0328
97.3446
97.344
98.1812
96.3237
96.5908
97.4884
98.0922
96.2437
96.9929
96.8427
96.2749
96.1655
97.1112
96.8451
96.2372
98.0205
99.1615
98.3271
98.3808
98.476
98.476
97.9931
97.703
97.8258
98.1504
97.3486
98.0325
97.3452
97.6402
97.351
98.0644
98.8614
96.4251
98.302
96.3251
97.4291
97.0526
96.1661
96.8463
96.3039
96.8461
96.4098
97.0297
94.8396
95.5679
95.0565
95.587
94.9467
95.4386
95.0558
95.2724
95.7019
94.3587
96.4138
95.2738
96.1966
94.5395
95.0902
94.9953
94.4184
94.5594
95.1072
94.9951
94.4339
94.3151
94.8388
95.21
94.3456
95.1116
94.0191
94.3922
94.7422
95.5871
95.4913
95.0544
95.4621
95.0535
94.8648
95.3596
95.3985
95.4068
94.3113
95.3912
94.3374
95.4755
95.0317
94.5596
94.9965
94.4787
94.994
94.4582
95.0133
94.0986
94.5684
93.977
94.3549
94.0928
94.6115
93.988
93.8724
93.4847
93.2252
93.0369
93.8517
93.5788
93.217
93.79
93.825
93.0411
93.0946
93.7795
93.8366
93.0416
94.2959
101.027
94.6538
94.7476
94.8461
94.8185
94.4147
94.1055
94.3629
94.5559
93.9783
94.5836
93.9892
94.1173
93.8857
93.1425
93.2713
93.3365
93.4246
93.2032
93.88
93.7987
93.0946
93.8085
93.0439
93.8319
93.0414
93.8079
92.5783
92.5199
91.8722
92.7788
92.5806
92.5093
91.8712
93.6118
90.8886
93.1948
98.6594
93.507
93.6655
93.2285
92.8021
92.015
92.2607
91.2258
92.7984
91.9849
92.2814
92.8557
89.2373
91.6841
91.8728
94.2848
91.8151
92.8186
92.5723
92.7704
92.4922
91.8829
92.4966
91.8748
92.5708
93.5935
98.7871
91.2392
93.3187
94.1216
93.2712
93.4478
92.8019
91.2221
91.9866
92.1405
91.9796
92.2383
92.8017
91.1013
94.0916
91.0161
91.8394
91.0883
94.1734
91.0125
95.3765
97.4296
93.5782
95.1074
95.5285
97.4785
93.6047
94.4418
92.8148
93.0953
92.3459
94.6205
92.8044
93.1026
92.0687
105.395
93.9171
95.9916
93.9389
94.9542
92.162
91.1295
91.892
93.9151
91.062
94.0588
91.0389
91.1009
95.2794
95.1034
97.5564
93.5524
97.4804
93.5738
95.2454
94.4563
92.3484
92.7791
93.1464
92.7757
93.1284
94.4877
94.4966
94.1673
93.7075
93.3168
94.5835
94.1866
93.7043
95.412
95.5595
95.3272
95.9247
95.5201
95.4312
95.318
94.2014
93.6623
94.6298
93.9371
94.1725
93.6672
94.6296
96.1966
96.0111
94.9119
96.3667
94.9356
96.7284
95.8131
94.4934
93.3175
94.172
93.6976
94.1996
93.7007
94.5722
95.5896
95.9148
95.3363
95.3484
95.4562
95.7033
95.3253
94.2236
93.9376
93.6739
94.6381
93.6713
94.2328
94.6322
94.9509
94.511
94.0848
93.8295
94.9284
94.0853
94.5142
94.7205
94.7563
96.4049
95.7327
94.7495
94.7886
96.4104
94.8793
94.1707
94.7853
94.6476
94.8712
94.1687
94.7865
95.5374
95.1821
94.9063
96.0671
96.1084
95.4284
94.8613
94.9492
93.8333
94.5148
94.0787
94.0893
94.9272
94.5155
94.7325
95.7385
94.7619
96.3498
94.7949
96.3883
94.7699
94.885
94.6498
94.1663
94.8148
94.1752
94.8028
94.886
94.9221
95.0105
94.84
94.851
94.9052
95.008
94.8281
99.5677
103.541
96.8995
100.403
99.4561
103.391
96.8805
95.7538
94.986
96.9903
95.0959
95.7649
94.9874
96.9888
97.4687
97.0296
97.1614
96.5758
97.0498
96.4547
97.5177
94.9544
94.8498
94.9838
94.8087
94.9653
94.8249
95.0406
99.6286
95.2306
103.627
96.8736
103.762
96.8758
99.6258
95.7967
95.1339
94.9707
96.9521
94.9942
96.9709
95.8436
97.2314
96.7849
96.7028
95.9564
97.2205
96.7727
96.712
97.7699
98.0093
98.3063
98.5447
97.7431
98.195
98.2166
98.1848
97.2955
98.0841
97.6551
98.1654
97.3272
98.0855
98.0379
94.5766
97.484
97.6838
97.4871
97.725
98.0447
97.2349
95.9865
96.7456
96.8009
96.7603
96.7293
97.2624
97.8723
98.4174
98.0907
98.2089
98.0858
98.2086
97.8846
98.1742
97.6469
97.3501
98.078
97.3444
98.0866
98.1362
98.4692
98.3043
98.0304
98.0075
98.4636
98.3051
98.0382
98.7636
99.1367
98.6433
99.0407
98.7631
99.1444
98.6326
98.4187
98.1157
98.3662
97.9683
98.39
98.1191
98.2055
99.0378
99.0945
98.7059
99.1225
98.6966
99.1371
98.9288
98.4789
97.9991
98.3011
97.9984
98.3074
98.0287
98.4733
99.0336
99.0428
99.1235
98.7449
99.1461
98.6322
98.9347
98.5782
97.9626
98.127
98.2234
98.1201
98.2107
98.5091
97.6991
98.1874
97.3531
97.8187
97.6651
98.0338
97.3562
97.3755
97.8344
96.4956
96.6313
97.3359
97.7771
96.3638
97.1115
96.8468
96.3408
96.1815
97.0141
96.8502
96.2734
98.0386
99.0698
98.4647
98.8205
98.476
98.638
98.2355
97.7234
97.8166
98.0318
97.3498
98.0339
97.3588
97.7451
97.3665
96.6379
97.7426
96.3686
97.7475
96.3719
97.4227
97.1532
96.1849
96.8472
96.2743
96.8544
96.2741
97.1111
94.8137
95.5933
95.0575
95.5955
94.8404
95.4938
95.0605
95.1847
95.3884
94.3311
95.7237
95.2239
95.3631
94.3178
95.0202
95.0014
94.5499
94.5558
95.0345
95.0059
94.4558
94.7157
94.9996
95.1466
94.0081
95.1531
93.9462
94.6056
95.0131
95.5991
95.4888
95.0581
95.4902
95.0646
94.9367
95.3359
94.951
95.416
94.3841
95.3018
94.337
95.3537
95.1318
94.5573
95.0036
94.4503
95.0102
94.467
95.1091
94.1301
94.6371
93.9727
94.3755
94.1301
94.6031
93.9775
93.9221
94.8272
93.1433
93.1103
93.8936
94.5657
93.1355
93.8278
93.7958
93.0449
93.0791
93.8206
93.8033
93.0444
94.2651
96.4383
94.7162
98.1568
94.8288
94.7844
94.2795
94.1648
94.3815
94.5967
94.0153
94.6022
93.9802
94.1473
93.929
93.1133
94.3944
93.1951
94.6983
93.2552
93.9296
93.8323
93.0625
93.7726
93.0405
93.7985
93.0454
93.8277
92.5733
92.4934
91.8937
92.7699
92.5715
92.4985
91.8998
93.3907
91.525
93.3668
92.6138
93.355
91.5155
93.4155
92.8309
92.0054
92.0905
91.3506
92.807
92.0379
92.1312
92.7952
90.6747
91.9764
93.4