/*--------------------------------*- C++ -*----------------------------------*\
| =========                 |                                                 |
| \\      /  F ield         | OpenFOAM: The Open Source CFD Toolbox           |
|  \\    /   O peration     | Version:  5.0                                   |
|   \\  /    A nd           | Web:      www.OpenFOAM.org                      |
|    \\/     M anipulation  |                                                 |
\*---------------------------------------------------------------------------*/
FoamFile
{
    version     2.0;
    format      ascii;
    class       surfaceScalarField;
    location    "0.6";
    object      phi;
}
// * * * * * * * * * * * * * * * * * * * * * * * * * * * * * * * * * * * * * //

dimensions      [0 3 -1 0 0 0 0];

internalField   nonuniform List<scalar> 
24376
(
2.31402e-09
2.68455e-09
-1.29809e-08
1.28329e-09
5.18015e-09
5.80742e-09
4.81424e-09
2.59582e-09
-3.2722e-09
-1.53357e-12
1.57911e-10
-2.34767e-09
1.35215e-09
9.01312e-10
-1.0301e-09
9.82721e-10
-2.87697e-09
2.04843e-09
2.63358e-10
3.80429e-10
1.50376e-09
-6.73282e-09
1.5392e-09
1.0422e-09
8.22332e-10
9.80964e-10
-1.00958e-09
-1.79459e-10
1.15064e-10
-1.44698e-11
5.32798e-11
-3.36627e-11
2.10305e-10
-1.24771e-11
-1.2048e-11
-3.66026e-11
-6.39527e-11
-7.11304e-11
1.42134e-09
-6.83425e-11
-3.37627e-11
-2.61143e-10
-2.64021e-10
-4.48029e-10
-4.51914e-10
1.39888e-09
-5.1846e-11
-1.46863e-12
1.38451e-09
-3.44684e-11
3.57987e-13
1.3753e-09
-2.27489e-11
-1.93983e-13
1.3705e-09
-1.45035e-11
-1.72481e-13
1.36813e-09
-9.24931e-12
7.58102e-15
1.36484e-09
-6.25383e-12
-3.49343e-13
1.36341e-09
-3.79832e-12
5.51661e-14
1.36305e-09
-1.19607e-12
-1.00753e-12
1.36274e-09
-1.45878e-12
-3.62777e-14
1.36212e-09
-1.10281e-12
-6.10706e-14
1.362e-09
-1.01086e-12
-1.13639e-14
1.36185e-09
-2.46106e-13
2.15462e-12
1.36344e-09
3.55683e-13
-5.11109e-13
1.36302e-09
-6.21805e-13
1.56757e-13
1.36307e-09
-8.61641e-13
5.98794e-13
1.36307e-09
-2.32346e-13
1.54278e-14
1.36366e-09
4.65515e-13
-7.81624e-13
1.36335e-09
3.63807e-13
-1.74868e-12
1.36361e-09
-2.81248e-13
2.16936e-13
1.36383e-09
1.80205e-14
-7.74185e-14
1.36373e-09
1.71843e-12
-3.58869e-12
1.36381e-09
1.2214e-13
3.75606e-13
1.36305e-09
-9.49835e-13
3.57843e-12
1.36329e-09
-7.13967e-13
-3.62976e-13
1.36473e-09
-1.42341e-12
8.83722e-13
1.36484e-09
3.31646e-13
-2.87016e-13
1.36501e-09
3.49143e-14
-3.99699e-14
1.36404e-09
2.27838e-13
-1.65557e-12
1.36407e-09
3.00317e-13
-1.0229e-13
1.36393e-09
9.27454e-13
-1.31509e-12
1.36581e-09
-2.89704e-12
5.90298e-13
1.36511e-09
4.94105e-13
7.55352e-14
1.36508e-09
5.93201e-14
-4.2317e-14
1.36533e-09
2.95823e-14
-2.71128e-13
1.36644e-09
2.4591e-12
-2.31908e-13
1.36473e-09
3.42363e-12
-1.86149e-12
1.36486e-09
-4.01527e-13
-3.33878e-14
1.36506e-09
5.19821e-13
-1.07767e-12
1.36615e-09
-9.99273e-13
-3.58259e-13
1.3659e-09
2.37037e-13
1.40655e-13
1.36504e-09
9.535e-13
-3.48055e-13
1.3842e-12
-1.27878e-12
-1.44822e-09
3.07282e-09
2.44889e-09
-1.14614e-09
-2.72696e-09
-2.89779e-09
-1.28575e-09
1.45164e-09
-1.37207e-09
2.19746e-09
8.61811e-10
1.92605e-09
1.54387e-09
8.61167e-10
-2.40325e-09
8.04223e-10
-4.08173e-10
1.38141e-09
2.80979e-09
-3.56776e-09
6.11595e-09
-6.73938e-09
2.3058e-09
-6.26402e-10
-2.63162e-09
9.1148e-10
4.07424e-11
1.06233e-10
-2.59979e-11
2.40987e-10
-3.96935e-11
-2.8152e-10
-3.82392e-11
4.46967e-12
2.14917e-10
-1.15676e-11
6.16982e-13
-3.90706e-11
-6.38193e-11
-6.73074e-11
1.45411e-09
-4.7269e-11
-2.90105e-11
-2.66007e-10
-2.72277e-10
-4.45545e-10
-4.62277e-10
1.42561e-09
-2.12181e-11
-1.95493e-12
1.40396e-09
-1.29569e-11
3.13723e-13
1.38905e-09
-7.5118e-12
-1.62387e-13
1.37919e-09
-4.4392e-12
-5.49401e-14
1.3729e-09
-2.73436e-12
-7.4209e-14
1.36867e-09
-1.79607e-12
-7.9181e-14
1.36613e-09
-1.08739e-12
-3.74625e-14
1.36434e-09
-2.45949e-13
9.81209e-13
1.36339e-09
-3.72665e-13
-1.24866e-14
1.36335e-09
-1.13673e-12
2.04466e-13
1.36269e-09
2.91602e-12
-3.15078e-12
1.36272e-09
-5.54436e-14
-1.03775e-13
1.36279e-09
2.8032e-13
1.23131e-13
1.36247e-09
2.53763e-13
-4.3861e-13
1.36319e-09
-2.23763e-12
7.61375e-13
1.36365e-09
7.85998e-13
-1.36757e-12
1.36355e-09
1.58879e-14
6.47823e-13
1.36335e-09
1.15399e-13
5.52756e-13
1.3634e-09
9.91331e-14
-3.37927e-13
1.36359e-09
7.79269e-14
-1.4823e-13
1.3633e-09
-5.82651e-13
2.68916e-12
1.36294e-09
3.14951e-12
-2.58081e-12
1.36347e-09
4.08321e-13
-1.7981e-12
1.3634e-09
8.78629e-13
-1.4306e-12
1.36543e-09
-4.34802e-12
9.87451e-13
1.36508e-09
7.77017e-13
-1.48862e-14
1.36475e-09
5.07378e-13
-5.81924e-14
1.36497e-09
1.67279e-13
-8.50953e-14
1.36514e-09
2.26251e-13
-2.44112e-14
1.3653e-09
2.67213e-14
8.14977e-13
1.36391e-09
-1.04863e-12
-3.91073e-13
1.36437e-09
1.4556e-13
-4.68507e-14
1.36458e-09
-3.2723e-14
-5.96335e-14
1.36395e-09
9.23898e-13
-2.05954e-13
1.36497e-09
7.70755e-13
7.16516e-13
1.36648e-09
2.00186e-13
1.75728e-12
1.36599e-09
2.05252e-13
-7.81565e-14
1.36558e-09
4.68159e-14
9.16404e-13
1.36524e-09
3.48622e-13
-9.82807e-13
1.36517e-09
3.85525e-13
-5.17494e-14
1.36558e-09
1.6501e-13
3.86554e-13
-1.81865e-13
1.35367e-12
1.15858e-09
-5.67417e-10
3.87077e-09
1.44914e-09
-7.84792e-10
7.57588e-09
-9.29699e-10
-8.79399e-10
-9.61275e-10
4.26516e-09
-1.18954e-08
6.1025e-10
-1.7277e-09
-2.03135e-09
-5.17614e-09
-1.57878e-10
1.08334e-09
-7.20557e-10
4.77872e-09
1.72221e-09
9.89399e-10
2.68942e-09
-5.38191e-09
-6.3186e-09
1.1466e-09
8.8264e-09
-3.24601e-09
-8.68722e-09
-2.65161e-09
1.59527e-08
-1.36787e-09
-8.61507e-11
8.03439e-10
2.29329e-10
-1.24034e-10
-8.22582e-10
-3.72816e-11
1.64543e-12
-1.61698e-12
9.54037e-12
2.77129e-11
1.47214e-09
6.84414e-12
-3.79688e-11
-2.72618e-10
-2.7622e-10
-4.67825e-10
-4.71553e-10
1.43691e-09
1.48111e-11
-6.22721e-13
1.41066e-09
1.32487e-11
2.01758e-13
1.3932e-09
1.01951e-11
-8.89895e-14
1.38171e-09
7.1866e-12
1.2622e-14
1.37445e-09
4.76086e-12
-7.84333e-14
1.36971e-09
3.15036e-12
-6.01466e-14
1.3667e-09
2.11353e-12
-4.60013e-14
1.36512e-09
1.40264e-12
6.58372e-14
1.36404e-09
9.18818e-13
-8.12173e-14
1.36275e-09
-2.58059e-13
5.38161e-13
1.36301e-09
7.15704e-13
2.06586e-12
1.36281e-09
2.22033e-13
4.46757e-14
1.36327e-09
5.7565e-14
-1.23881e-13
1.36348e-09
2.29375e-13
-7.23846e-14
1.36292e-09
-2.10868e-13
-1.36587e-12
1.36251e-09
6.33143e-14
1.24742e-12
1.36286e-09
-9.07716e-14
-1.4018e-13
1.3631e-09
-8.33566e-14
5.7836e-14
1.36318e-09
2.37806e-13
-1.21613e-13
1.36305e-09
-2.21279e-14
3.23951e-13
1.36346e-09
5.23227e-13
-1.41682e-12
1.36475e-09
1.1136e-12
8.36453e-13
1.36469e-09
5.29422e-13
3.37126e-14
1.36601e-09
7.36293e-13
-1.09119e-12
1.3632e-09
-4.26308e-13
-1.02567e-12
1.36402e-09
3.28712e-13
-2.84013e-13
1.36428e-09
3.95371e-13
-7.02932e-14
1.36457e-09
-2.33378e-13
1.95659e-13
1.3648e-09
1.54547e-13
-9.02994e-14
1.36475e-09
9.02831e-14
6.03049e-14
1.36438e-09
-2.06124e-13
-4.01715e-13
1.36462e-09
1.48342e-13
-1.79055e-13
1.36453e-09
1.43122e-13
-3.0954e-14
1.36462e-09
6.05504e-13
2.87672e-13
1.36458e-09
6.72865e-13
1.83278e-13
1.36654e-09
-1.88704e-12
1.70903e-13
1.3661e-09
4.22163e-13
2.62839e-13
1.36588e-09
9.65814e-14
2.02673e-13
1.36523e-09
-7.65551e-15
1.03885e-12
1.36507e-09
6.1747e-13
-5.34655e-14
1.36501e-09
2.69499e-13
-2.99638e-14
-1.46856e-12
6.02943e-13
-1.21651e-09
-3.33068e-09
-2.13e-09
3.42582e-09
-3.34944e-09
5.7993e-09
-2.20884e-09
1.64846e-09
6.59203e-09
-2.68421e-09
-1.13834e-09
-6.49973e-10
-2.58774e-10
-2.42963e-09
6.87495e-10
-2.20505e-11
6.39373e-10
-1.48636e-09
-4.30758e-10
-7.36191e-11
-4.57139e-10
-2.00828e-10
-7.44054e-10
1.09009e-09
8.117e-09
-3.72208e-10
-9.91344e-10
-3.33348e-10
-2.33526e-10
-1.12873e-09
3.2191e-10
4.10271e-09
-1.52182e-08
3.04869e-09
3.16543e-10
3.48727e-10
1.1952e-09
4.68286e-10
7.73563e-10
4.45789e-10
5.71925e-10
-2.53513e-09
-7.81082e-11
-1.33865e-10
6.53212e-11
5.33923e-11
9.32588e-11
-1.41696e-10
9.88093e-12
-8.59854e-12
9.70166e-11
4.33966e-11
1.5047e-09
1.17675e-10
-3.85134e-11
-2.92411e-10
-2.93511e-10
-4.92629e-10
-4.98401e-10
1.44243e-09
7.95973e-11
-2.36596e-12
1.40831e-09
4.77485e-11
-2.35571e-13
1.38917e-09
2.97802e-11
-2.84443e-13
1.37804e-09
1.86681e-11
-2.01965e-13
1.37168e-09
1.13402e-11
-6.72265e-14
1.36783e-09
7.21882e-12
-7.50967e-14
1.36546e-09
4.7113e-12
-7.5857e-14
1.36407e-09
3.01119e-12
-8.82859e-14
1.36336e-09
1.80808e-12
-3.73336e-14
1.36304e-09
1.02394e-12
-8.32453e-13
1.36258e-09
4.49754e-13
8.56094e-13
1.36287e-09
2.632e-13
-2.19483e-13
1.3629e-09
1.50458e-13
-7.10947e-15
1.3631e-09
1.65256e-13
-2.09651e-14
1.36298e-09
5.97917e-13
-5.81204e-13
1.36313e-09
1.22354e-13
-1.08346e-13
1.36304e-09
1.36297e-13
-2.75258e-14
1.36312e-09
8.35272e-15
-7.48445e-14
1.36333e-09
6.80988e-14
6.35983e-14
1.36374e-09
8.93141e-13
-1.23141e-12
1.36453e-09
1.36462e-12
-1.53529e-12
1.36379e-09
5.71587e-13
1.3749e-12
1.36416e-09
3.96388e-13
-1.50774e-13
1.36388e-09
4.2875e-14
1.06431e-12
1.3639e-09
-3.01542e-13
-5.59231e-14
1.36432e-09
9.44087e-14
-1.02231e-13
1.36447e-09
3.5979e-13
-2.93596e-14
1.36445e-09
-1.72281e-14
-1.21219e-13
1.36481e-09
-1.63767e-13
3.37452e-14
1.36493e-09
3.57526e-13
-3.11368e-13
1.36479e-09
-3.60114e-13
3.55884e-13
1.36457e-09
1.03973e-12
-6.01318e-13
1.36493e-09
-2.00379e-13
3.75526e-14
1.36526e-09
1.90303e-13
1.38909e-13
1.36562e-09
5.94624e-13
-2.24961e-13
1.36504e-09
-1.62206e-12
3.53828e-13
1.36552e-09
3.28027e-13
-3.47875e-13
1.36578e-09
6.53977e-14
-1.98219e-13
1.36572e-09
1.46868e-12
-1.3887e-12
1.36454e-09
1.83389e-12
-1.21712e-14
1.36493e-09
-4.98526e-14
-5.72705e-14
-1.85375e-12
5.41148e-13
-2.87344e-09
-4.29396e-09
4.02789e-09
-2.76056e-09
8.8228e-09
6.43699e-09
-2.76611e-09
2.98823e-08
-1.02201e-07
-7.24592e-09
6.98337e-08
1.02785e-09
1.49973e-10
-2.13657e-08
-1.85287e-09
2.89595e-10
-2.47286e-09
-5.43745e-10
-2.50203e-10
3.3975e-09
1.26526e-09
8.28338e-09
-1.2901e-08
2.48861e-08
-9.09676e-11
1.18795e-09
-3.79711e-10
-2.09447e-09
-1.93828e-11
4.23194e-09
2.19404e-10
5.91445e-11
8.45626e-10
-1.73664e-09
6.12469e-10
-5.25053e-11
-4.5787e-11
-1.01195e-11
2.43562e-11
8.40507e-11
-9.85931e-11
-2.40058e-12
7.12061e-12
-4.92591e-12
9.87989e-11
1.40654e-09
1.72449e-10
-3.96469e-11
-2.60546e-10
-2.57447e-10
-4.52764e-10
-4.50858e-10
1.38804e-09
9.82218e-11
1.62304e-14
1.37543e-09
6.06183e-11
-1.11525e-13
1.36945e-09
3.60446e-11
-1.35926e-13
1.36521e-09
2.29311e-11
1.3112e-13
1.36473e-09
1.14559e-11
5.07396e-13
1.36386e-09
8.25871e-12
-2.01437e-14
1.36256e-09
6.59888e-12
-4.37398e-13
1.36198e-09
4.07968e-12
-3.52213e-13
1.36214e-09
1.86775e-12
-7.94072e-14
1.36201e-09
1.44053e-12
-1.52e-13
1.36136e-09
1.1349e-12
8.61297e-14
1.36295e-09
-3.58233e-12
2.3785e-12
1.36271e-09
5.20118e-13
-1.67499e-14
1.36298e-09
5.47664e-13
-5.37948e-13
1.36305e-09
8.56926e-14
5.46956e-13
1.36333e-09
-2.94602e-14
-1.79748e-14
1.36337e-09
2.43921e-13
-4.40817e-14
1.36362e-09
-1.55357e-13
1.4167e-14
1.36385e-09
-1.24551e-14
-5.78789e-14
1.36387e-09
1.10494e-13
8.64666e-13
1.36315e-09
2.07221e-13
1.97028e-12
1.36347e-09
4.33431e-13
-8.33717e-14
1.36413e-09
-4.67299e-14
-1.24267e-13
1.36387e-09
1.69018e-12
-1.30258e-12
1.3641e-09
-4.69575e-14
-4.02134e-13
1.36441e-09
-1.25603e-13
-2.94657e-15
1.36432e-09
1.88671e-13
3.44004e-13
1.36446e-09
-1.21921e-13
4.42272e-14
1.36431e-09
-2.4404e-13
3.07436e-13
1.36455e-09
4.37182e-15
1.8133e-13
1.36476e-09
-1.55212e-13
-3.48303e-13
1.36528e-09
-5.97289e-14
6.41617e-13
1.36498e-09
2.40984e-13
-8.38083e-14
1.36532e-09
6.23608e-13
-7.1634e-13
1.36554e-09
3.61209e-13
6.20055e-14
1.36518e-09
-4.28621e-13
-7.83753e-13
1.36541e-09
-2.92323e-14
1.59222e-13
1.36593e-09
-4.53245e-13
3.59278e-14
1.36604e-09
-1.32554e-12
2.71423e-12
1.36464e-09
3.43165e-12
-1.85168e-13
1.36485e-09
-7.49025e-13
5.07793e-13
-1.66757e-13
-9.02631e-13
6.28011e-09
4.33635e-10
5.60512e-11
-1.55539e-11
2.53177e-10
2.27977e-09
-8.44045e-08
-2.15517e-08
5.10024e-08
4.58497e-08
2.14065e-09
-5.14579e-09
5.55462e-10
4.52992e-09
4.39909e-09
-1.83986e-08
-5.51644e-08
6.70902e-08
5.43098e-11
-1.54865e-09
-1.77645e-09
3.42082e-09
6.5619e-10
-5.22489e-09
4.60398e-09
-2.60631e-09
2.57102e-09
-1.90335e-09
-3.58043e-09
-1.763e-09
-8.77826e-10
-2.24939e-09
6.54493e-08
-1.39784e-07
8.47086e-08
-1.53969e-10
5.06003e-10
-5.4321e-11
2.75955e-11
-3.25315e-10
-8.21214e-11
-1.47335e-11
1.38909e-11
-3.03365e-11
1.133e-10
1.28397e-09
1.16271e-10
-2.79513e-11
-2.28469e-10
-2.10404e-10
-4.00502e-10
-3.60415e-10
1.31716e-09
6.45752e-11
5.87904e-13
1.33518e-09
4.26721e-11
6.57102e-14
1.34526e-09
2.6104e-11
1.75221e-14
1.35215e-09
1.63459e-11
-1.55204e-13
1.35461e-09
9.85947e-12
-7.17032e-13
1.35684e-09
6.1995e-12
-2.10678e-14
1.35924e-09
4.03456e-12
3.04296e-13
1.36059e-09
2.62164e-12
2.47379e-13
1.36099e-09
1.60904e-12
-2.57339e-15
1.36201e-09
5.35515e-13
1.73551e-14
1.36271e-09
5.88456e-13
-1.89395e-14
1.36125e-09
5.58139e-13
-2.5604e-12
1.36285e-09
-3.74075e-12
2.76825e-12
1.36265e-09
3.5339e-13
5.0858e-13
1.36297e-09
-5.79644e-13
4.46339e-13
1.36289e-09
2.09711e-13
-4.65442e-14
1.36323e-09
2.53862e-14
-1.99057e-14
1.36354e-09
4.45855e-13
-8.05459e-13
1.36385e-09
-2.22503e-13
-2.68086e-15
1.36401e-09
2.5918e-13
-2.15973e-13
1.36401e-09
6.83017e-13
-3.78773e-13
1.36276e-09
4.30425e-12
-2.53228e-12
1.36318e-09
-4.16427e-13
4.85298e-14
1.36438e-09
-1.01028e-12
1.59011e-12
1.36427e-09
2.85137e-13
-1.401e-13
1.36403e-09
1.72786e-13
3.02046e-14
1.36436e-09
-1.63205e-13
9.87743e-14
1.36447e-09
3.93911e-14
-1.91032e-13
1.36473e-09
-8.43864e-15
-4.18589e-13
1.36474e-09
9.52673e-14
-3.5619e-14
1.3648e-09
-6.13245e-13
4.6488e-13
1.36539e-09
-7.73063e-13
1.93852e-13
1.3653e-09
2.76505e-13
1.07808e-13
1.36521e-09
5.39105e-13
2.33204e-13
1.36539e-09
3.07771e-13
-8.10801e-14
1.36459e-09
8.89032e-14
3.33063e-13
1.36467e-09
-6.76994e-14
-7.16876e-15
1.36451e-09
-1.62318e-13
-9.50153e-14
1.36459e-09
-3.21417e-13
-1.06079e-12
1.3667e-09
1.13377e-12
2.09286e-13
1.36613e-09
-7.16306e-13
5.56063e-13
-8.38525e-13
1.78504e-12
7.24849e-10
6.23017e-10
2.95272e-09
-4.27563e-09
-5.50173e-10
-8.2396e-09
-9.46977e-10
8.88668e-10
1.46666e-09
-2.53642e-10
-1.29762e-09
2.53354e-08
-1.53341e-08
-3.95625e-09
4.57641e-10
5.44632e-10
6.135e-10
6.32876e-10
6.19814e-10
4.04861e-10
-4.01479e-10
-1.91104e-09
9.84873e-10
-2.0583e-09
4.11381e-09
-1.12935e-09
-1.7883e-09
-5.38224e-10
4.73151e-09
-3.34968e-10
3.58239e-08
3.8614e-09
-4.37655e-10
-3.57388e-08
-1.28591e-09
-2.71703e-09
-1.58198e-09
-2.30457e-09
9.08346e-10
-1.43237e-09
6.40244e-09
-3.57384e-09
-2.34476e-10
-5.93926e-10
-2.37963e-10
-6.27721e-10
1.69408e-09
-1.15841e-10
-7.21837e-12
1.05611e-11
6.7279e-11
4.5219e-11
1.23482e-09
3.66163e-11
-2.30107e-11
-2.15582e-10
-2.08569e-10
-3.62429e-10
-3.45526e-10
1.27979e-09
2.10577e-11
-1.3172e-12
1.31006e-09
1.22392e-11
3.0258e-13
1.32915e-09
7.24265e-12
-8.36571e-14
1.34127e-09
4.36439e-12
1.23463e-14
1.34878e-09
2.53164e-12
-3.61674e-14
1.35362e-09
1.53693e-12
-2.80317e-14
1.3567e-09
1.13906e-12
-4.00526e-14
1.35889e-09
5.84408e-13
-1.71169e-14
1.36045e-09
2.18035e-13
-2.89403e-14
1.36083e-09
3.40638e-13
-5.78665e-14
1.36187e-09
-1.03301e-13
-2.2097e-13
1.36251e-09
-7.2029e-14
1.12922e-13
1.36189e-09
-1.37525e-13
-2.86729e-12
1.36254e-09
-1.28209e-13
-6.15902e-14
1.36262e-09
1.06748e-13
-6.56338e-13
1.363e-09
-2.56714e-15
-6.0043e-14
1.36293e-09
3.83646e-13
-1.84355e-13
1.36306e-09
-3.00742e-13
7.14643e-13
1.36337e-09
-3.16666e-13
-1.1264e-13
1.36405e-09
-4.88053e-13
1.5991e-13
1.36245e-09
5.39983e-12
-3.01696e-12
1.36407e-09
7.00363e-13
2.06906e-12
1.36427e-09
-5.03656e-13
-2.04417e-14
1.36399e-09
-2.06017e-13
-4.32197e-13
1.36414e-09
4.9283e-14
1.70531e-13
1.36416e-09
-8.81486e-14
3.25291e-13
1.36465e-09
-1.16507e-15
-5.73677e-13
1.36481e-09
-4.33737e-14
6.91558e-15
1.36479e-09
2.50118e-14
6.5912e-14
1.36485e-09
1.05445e-12
-9.5106e-13
1.36481e-09
-4.19039e-14
-4.68395e-13
1.36529e-09
-1.47468e-12
2.94258e-13
1.36586e-09
-1.59432e-13
-8.35767e-14
1.36473e-09
1.87137e-12
-1.42585e-13
1.36475e-09
-5.98831e-13
9.39954e-13
1.36454e-09
2.40384e-13
9.47351e-14
1.3648e-09
-2.86564e-13
2.46208e-16
1.36469e-09
-2.87255e-14
1.09502e-14
1.36507e-09
-8.23767e-13
1.49607e-13
1.36552e-09
6.77235e-13
2.27666e-14
1.36591e-09
8.37576e-15
-1.09445e-12
-2.25026e-13
-1.26294e-12
3.8332e-09
-2.64366e-09
-2.56674e-09
-1.69053e-09
-2.4412e-09
-9.22807e-11
2.50323e-09
-2.32911e-09
2.20182e-09
3.41629e-09
-4.41038e-10
2.55649e-09
-3.74073e-10
-1.06054e-10
-1.63533e-09
-4.76728e-09
-1.58487e-10
2.53159e-09
-2.07826e-09
4.47244e-09
1.59214e-09
-3.57009e-09
4.18071e-09
7.45466e-10
-2.94822e-09
6.78001e-09
7.24418e-09
2.60651e-09
-1.4435e-08
-2.19565e-09
-1.60642e-11
-4.56363e-10
-7.85719e-10
1.49675e-11
1.24318e-09
-9.36134e-11
-1.04445e-11
1.54794e-12
8.43747e-11
1.81353e-11
1.19e-09
-9.26875e-11
-2.04819e-11
-1.87062e-10
-2.00399e-10
-3.11781e-10
-3.40925e-10
1.25997e-09
-4.83659e-11
-3.91275e-13
1.30015e-09
-2.82954e-11
4.98011e-13
1.32403e-09
-1.65734e-11
8.9151e-14
1.33836e-09
-9.86491e-12
5.07448e-14
1.34703e-09
-6.00382e-12
1.13509e-14
1.35252e-09
-3.77563e-12
-3.03018e-14
1.35621e-09
-2.43836e-12
3.56789e-14
1.35834e-09
-1.39159e-12
-2.00555e-14
1.36025e-09
-2.46647e-12
9.10646e-13
1.36152e-09
-1.15357e-12
3.46994e-13
1.36139e-09
9.10962e-15
1.4019e-13
1.36194e-09
3.31573e-13
-8.35679e-13
1.36225e-09
-3.07319e-13
-2.66242e-14
1.36251e-09
5.73543e-14
-3.33005e-13
1.36278e-09
-6.84269e-13
6.30832e-13
1.36334e-09
-4.42146e-13
-1.69624e-14
1.36233e-09
-1.62823e-12
3.12552e-12
1.36288e-09
-5.48985e-13
-1.98774e-13
1.36285e-09
-7.69606e-14
-1.07809e-13
1.36217e-09
7.51977e-13
-4.61098e-13
1.36398e-09
6.15511e-13
3.06585e-12
1.36408e-09
7.12049e-13
-1.45967e-14
1.36499e-09
-3.34415e-12
2.02041e-12
1.36471e-09
9.72797e-14
6.85915e-14
1.36408e-09
9.85011e-13
-2.2805e-13
1.36426e-09
-1.53165e-13
-3.0324e-14
1.36448e-09
-4.46552e-14
-8.91356e-14
1.36465e-09
-3.2235e-13
1.88145e-13
1.36463e-09
-1.75831e-14
1.36931e-13
1.36481e-09
5.13549e-13
4.26619e-13
1.36517e-09
-2.71119e-13
-6.20832e-14
1.36472e-09
-3.66439e-13
-5.88519e-13
1.36441e-09
-1.96341e-13
4.07203e-13
1.36557e-09
6.65279e-13
1.01257e-13
1.36482e-09
1.01199e-12
-8.10632e-13
1.36518e-09
1.0591e-13
-1.86526e-13
1.36505e-09
-1.25229e-13
5.677e-15
1.36465e-09
3.92419e-13
1.02208e-14
1.36512e-09
-9.77831e-13
-2.80615e-13
1.36504e-09
5.20539e-13
2.53548e-13
1.36634e-09
-2.91223e-12
1.63401e-12
-3.58233e-13
-5.361e-13
-6.06029e-09
1.11066e-08
-1.76944e-09
-1.85624e-09
3.34217e-10
-1.21289e-10
-1.44254e-09
-3.66263e-10
1.29663e-09
-2.60639e-09
-1.93269e-09
3.60869e-09
2.85838e-09
4.61528e-10
-1.7122e-10
7.21674e-10
-3.87036e-09
2.21291e-09
1.07233e-09
-7.07814e-09
1.97859e-09
2.26249e-09
1.3559e-09
8.0368e-11
-1.88446e-09
-2.28578e-09
-2.38994e-09
-7.48742e-09
3.06018e-08
-1.25613e-08
3.75224e-08
-4.38478e-08
-2.15003e-09
2.10165e-09
1.1938e-09
-6.98565e-10
1.03335e-09
-3.98306e-09
1.43208e-09
-4.86851e-10
2.00448e-09
-3.55123e-11
5.57944e-12
1.52202e-10
-5.29716e-11
1.33952e-11
-1.27905e-11
-6.7752e-11
-2.23081e-11
7.65433e-12
5.12631e-12
7.37486e-12
1.26381e-09
-1.35118e-10
-3.15081e-11
-2.06752e-10
-2.28451e-10
-3.55408e-10
-3.99198e-10
1.29925e-09
-8.33354e-11
-3.06245e-13
1.32133e-09
-5.03077e-11
9.13694e-14
1.33596e-09
-3.09966e-11
-4.22086e-14
1.34523e-09
-1.89786e-11
-3.87993e-15
1.35115e-09
-1.17592e-11
-1.61763e-14
1.35518e-09
-7.6489e-12
-1.70431e-14
1.35756e-09
-4.65372e-12
-2.63077e-14
1.35975e-09
-3.87458e-12
4.26721e-13
1.36027e-09
-1.89589e-12
-9.55702e-13
1.36096e-09
-8.96783e-13
-8.29227e-13
1.36209e-09
-9.91001e-13
-2.20356e-15
1.36223e-09
-8.68245e-13
1.17523e-12
1.36219e-09
-1.8063e-14
-1.30549e-13
1.36202e-09
-6.86789e-13
1.02413e-12
1.36247e-09
-3.97262e-13
-6.33117e-13
1.36222e-09
-8.09406e-15
-7.02623e-14
1.36362e-09
1.4905e-13
-3.07824e-12
1.36358e-09
-4.48077e-13
3.98514e-14
1.36327e-09
-3.84017e-13
7.20434e-13
1.36385e-09
-9.07938e-14
3.53056e-13
1.36421e-09
2.52534e-13
1.01957e-13
1.36428e-09
1.2317e-13
6.08157e-13
1.36351e-09
-3.70382e-13
-2.11255e-12
1.36378e-09
8.38979e-14
-1.66331e-13
1.36465e-09
-2.62155e-13
4.69104e-13
1.36397e-09
-6.41695e-13
1.2474e-12
1.36418e-09
-7.74486e-14
-9.76173e-14
1.36428e-09
-8.67721e-14
-2.5083e-13
1.36483e-09
1.31161e-13
-6.24798e-13
1.36516e-09
-2.27609e-13
4.8642e-13
1.36489e-09
7.66043e-13
-7.06265e-13
1.36506e-09
-3.82706e-13
-8.70752e-14
1.36544e-09
-3.47052e-13
-1.67362e-13
1.36497e-09
2.38351e-12
-1.19558e-12
1.36487e-09
1.59914e-12
-4.33836e-13
1.36459e-09
4.10041e-13
1.8235e-14
1.36565e-09
-1.27109e-12
1.26589e-13
1.36598e-09
-1.48643e-13
2.42832e-13
1.36481e-09
4.73953e-13
-2.62447e-13
1.36518e-09
3.09876e-13
-1.3019e-13
1.36487e-09
6.33384e-13
-3.22595e-12
-2.3832e-12
1.26468e-13
-1.07445e-09
-4.80449e-09
6.63552e-09
-7.3163e-10
3.59522e-10
-1.22451e-09
2.18399e-09
-1.46479e-09
1.45794e-10
-1.16343e-09
-2.26309e-09
-7.38141e-09
4.95259e-09
1.35721e-09
1.32604e-09
3.86868e-10
2.62011e-09
1.17391e-10
-6.28365e-10
6.76068e-10
4.05576e-09
-1.82801e-09
-4.05268e-09
6.06308e-10
1.21863e-09
9.74543e-10
-7.80402e-10
-6.45245e-10
-7.05803e-10
1.46109e-10
6.84265e-10
-2.14887e-10
5.41416e-10
-1.09366e-10
5.32628e-11
1.92629e-10
1.38786e-10
-2.75313e-10
-3.54141e-11
3.5249e-11
2.09489e-10
-2.25489e-11
-1.18771e-11
-3.6939e-11
-6.6795e-11
-7.11641e-11
1.36276e-09
-3.36471e-11
-2.48977e-10
-2.50301e-10
-4.28629e-10
-4.30261e-10
1.35666e-09
-1.04122e-12
1.35535e-09
-1.17378e-13
1.35698e-09
-7.34584e-14
1.35769e-09
1.63772e-13
1.35805e-09
-1.56227e-13
1.36035e-09
2.86634e-13
1.3613e-09
-9.58739e-14
1.36106e-09
-7.58116e-13
1.3613e-09
-1.49922e-14
1.36217e-09
3.10701e-13
1.36267e-09
-6.77773e-14
1.36291e-09
-2.58568e-12
1.36124e-09
5.03411e-13
1.3624e-09
-6.9885e-13
1.36251e-09
-3.3908e-14
1.36294e-09
4.34795e-14
1.36298e-09
7.67249e-14
1.36339e-09
1.08501e-12
1.36358e-09
-5.42396e-13
1.36355e-09
1.19023e-14
1.36422e-09
1.78967e-12
1.36435e-09
-3.7656e-13
1.36413e-09
-1.78864e-12
1.36359e-09
1.67659e-12
1.36372e-09
-1.09913e-12
1.36412e-09
-9.84382e-13
1.36401e-09
6.53869e-14
1.36492e-09
1.57389e-12
1.3645e-09
5.14192e-13
1.36465e-09
3.1896e-13
1.36529e-09
7.14184e-13
1.36506e-09
1.29129e-13
1.3651e-09
-2.30546e-13
1.36623e-09
1.37079e-12
1.36483e-09
-2.09493e-13
1.3655e-09
-1.30502e-14
1.36478e-09
-1.51747e-13
1.36523e-09
-1.65411e-13
1.36566e-09
3.71549e-13
1.36614e-09
-2.43419e-13
1.36535e-09
1.70669e-12
-6.18172e-14
6.16853e-09
1.99648e-09
-1.35926e-08
1.91286e-09
6.57185e-09
-2.76105e-10
9.79976e-09
3.66673e-10
-1.79599e-08
1.47732e-08
-1.2447e-09
-4.05124e-09
-1.93297e-09
7.68551e-09
-4.06608e-10
8.24915e-10
-1.39205e-09
-1.09374e-10
1.55183e-09
3.20674e-11
-1.76875e-09
-8.96508e-09
1.31868e-08
-1.81911e-11
-2.55786e-09
-1.3158e-09
1.59265e-08
1.86365e-09
-1.40066e-08
-1.04963e-09
3.05251e-10
-4.4429e-10
-1.19862e-10
-3.7356e-09
-8.48977e-10
-9.21043e-11
1.42605e-10
-9.37262e-11
7.34132e-10
-1.5504e-10
1.00694e-11
6.3267e-10
-3.69416e-11
-2.33168e-12
-1.69763e-10
-1.61466e-10
-1.76795e-10
2.38458e-09
-1.04256e-10
3.35708e-11
-6.26873e-10
-6.31847e-10
-6.26869e-10
-6.31845e-10
2.33935e-09
-7.86317e-11
1.22218e-12
2.31444e-09
-5.22174e-11
-1.84954e-13
2.29776e-09
-3.44081e-11
-2.15392e-14
2.28912e-09
-2.19172e-11
-6.06155e-13
2.28465e-09
-1.39715e-11
-5.45522e-13
2.27903e-09
-9.38972e-12
3.35833e-13
2.27655e-09
-5.70683e-12
1.8304e-13
2.27558e-09
-4.05415e-12
-5.4774e-13
2.27502e-09
-2.16163e-12
-4.52567e-14
2.27394e-09
-1.64035e-12
7.27742e-14
2.27363e-09
-1.38216e-12
-8.11786e-14
2.27355e-09
-3.9388e-13
8.34301e-13
2.27569e-09
4.34719e-13
2.76248e-13
2.27502e-09
4.02921e-13
-1.61273e-13
2.27511e-09
5.04463e-13
-5.82137e-13
2.27518e-09
-1.69282e-13
-9.29609e-14
2.27586e-09
-1.61312e-12
7.43972e-13
2.27547e-09
-1.87455e-12
1.66867e-12
2.27594e-09
5.93558e-13
-1.27839e-13
2.2763e-09
4.21322e-15
-8.94627e-14
2.27572e-09
-8.73254e-13
-1.26045e-12
2.2759e-09
2.75409e-13
5.13039e-13
2.27479e-09
5.45851e-12
-1.46186e-12
2.27497e-09
3.91816e-12
-3.13332e-12
2.27721e-09
-1.61872e-12
-1.43343e-12
2.27769e-09
6.37736e-13
-4.02177e-13
2.27777e-09
1.88715e-13
1.96009e-15
2.27625e-09
1.43198e-13
9.83814e-13
2.27596e-09
5.82518e-13
5.78308e-14
2.27584e-09
-1.87608e-12
5.76109e-13
2.27851e-09
-7.1048e-13
-1.82694e-12
2.27778e-09
8.54226e-13
-1.43828e-13
2.27756e-09
1.69319e-13
3.21916e-14
2.27799e-09
-7.85234e-14
-7.06856e-14
2.27963e-09
1.72087e-12
3.11242e-15
2.27697e-09
3.68112e-12
-3.10997e-12
2.27727e-09
-6.65883e-13
-5.24354e-14
2.27736e-09
-2.40377e-12
1.13611e-12
2.27899e-09
-1.50601e-12
-4.98294e-13
2.2786e-09
2.92446e-13
2.03652e-13
2.27723e-09
3.8907e-13
1.7589e-13
-6.64112e-13
-4.50146e-13
7.18029e-10
4.53985e-09
1.68799e-09
9.23288e-10
-9.08658e-11
-4.56031e-09
-1.14081e-09
-4.00228e-11
2.25581e-09
-1.101e-09
1.45405e-09
-8.66718e-10
1.28643e-09
-1.28795e-10
-4.97322e-11
-1.19847e-10
-4.59817e-10
5.10654e-09
2.81462e-10
-1.156e-08
7.55522e-09
3.53873e-10
-1.85248e-10
-7.20558e-09
-7.52503e-09
2.56728e-09
2.85354e-09
3.07932e-10
6.85525e-10
-2.68932e-08
2.56919e-08
2.41318e-08
-1.47844e-08
2.27649e-08
4.54127e-10
-8.31898e-10
2.26203e-09
-7.13824e-10
-2.39352e-08
3.84246e-09
3.0818e-10
-5.28986e-11
9.86802e-11
7.20346e-11
-4.26845e-09
-1.56783e-10
1.3749e-11
1.19023e-11
6.6732e-10
-2.50243e-11
-3.52389e-11
-1.51283e-10
-1.6469e-10
-1.59953e-10
2.4372e-09
-5.904e-11
2.87071e-11
-6.23795e-10
-6.46107e-10
-6.238e-10
-6.46101e-10
2.3799e-09
-2.48021e-11
1.9038e-12
2.34422e-09
-1.55002e-11
-3.51672e-13
2.31878e-09
-8.89617e-12
1.17367e-13
2.30237e-09
-5.22267e-12
3.90681e-15
2.29185e-09
-3.20846e-12
1.1425e-14
2.28483e-09
-2.17433e-12
4.37397e-14
2.28061e-09
-1.30152e-12
8.98241e-14
2.27765e-09
-4.36257e-13
6.24201e-13
2.2761e-09
-4.09845e-13
6.64409e-14
2.27576e-09
-1.42078e-12
6.02921e-13
2.27475e-09
-1.9754e-12
-1.27573e-12
2.27472e-09
-8.14676e-14
-1.23172e-13
2.27484e-09
5.11213e-13
1.87589e-13
2.27423e-09
5.03921e-13
3.12227e-13
2.27526e-09
1.4013e-12
-9.21605e-13
2.27618e-09
-3.43007e-12
1.20291e-12
2.2758e-09
2.62596e-13
-6.16901e-13
2.27531e-09
-6.32176e-14
-5.46828e-13
2.27542e-09
1.54142e-13
2.13026e-13
2.27571e-09
-1.19937e-13
-9.73634e-14
2.27497e-09
3.19415e-12
-4.32577e-13
2.2745e-09
-3.1589e-13
-1.30927e-12
2.27559e-09
7.36391e-13
2.0292e-12
2.27554e-09
1.32603e-12
1.40903e-12
2.27835e-09
-2.60449e-12
-6.40443e-13
2.27804e-09
1.31585e-12
-1.96607e-13
2.27741e-09
8.6654e-13
6.51096e-14
2.27741e-09
1.87e-13
4.64567e-14
2.27776e-09
3.50288e-13
2.06186e-14
2.27795e-09
-4.16855e-13
-6.78945e-13
2.27586e-09
-7.71972e-13
1.90577e-12
2.27639e-09
3.12503e-13
9.97402e-14
2.27657e-09
-9.0039e-15
7.0422e-14
2.27577e-09
7.73268e-13
-1.42346e-13
2.27732e-09
1.17907e-12
-1.902e-13
2.27954e-09
7.65972e-14
3.2377e-12
2.27885e-09
-4.97048e-14
6.965e-14
2.27829e-09
9.34211e-14
-9.50545e-13
2.27773e-09
-1.22146e-12
-6.56732e-13
2.27762e-09
5.80742e-13
-1.94648e-13
2.27807e-09
6.75258e-13
-3.23105e-13
-2.79979e-13
2.80943e-13
7.46192e-10
1.02475e-09
4.92778e-09
8.27592e-10
1.44973e-09
4.52857e-10
2.07521e-10
6.40952e-10
6.33099e-10
3.37574e-10
-2.5473e-10
8.14683e-09
2.47679e-10
-2.3613e-09
-9.73372e-09
-8.45304e-10
4.78073e-09
3.87681e-10
2.57398e-09
2.9719e-09
-2.7367e-09
1.89527e-09
-6.05861e-10
-6.26883e-10
-6.1105e-10
-5.12792e-10
9.24e-10
-9.91568e-11
8.33835e-09
-9.91613e-09
8.00761e-10
2.1855e-09
-6.46774e-10
-1.33869e-09
2.15845e-09
-2.98912e-10
-1.35415e-09
1.85291e-09
-4.98373e-10
-1.85828e-09
4.17008e-09
-1.3026e-09
1.06363e-09
-8.69621e-11
5.9076e-10
-4.4349e-09
-1.45955e-10
-1.57423e-11
8.72437e-13
-2.42126e-12
5.26239e-12
1.57984e-10
2.44956e-09
2.45497e-11
3.77543e-11
-6.50274e-10
-6.54008e-10
-6.50281e-10
-6.54004e-10
2.39183e-09
3.21048e-11
5.64876e-13
2.35114e-09
2.59877e-11
-2.33076e-13
2.32335e-09
1.91046e-11
4.62013e-14
2.30521e-09
1.33311e-11
-5.54554e-14
2.29363e-09
8.59571e-12
3.41218e-14
2.28605e-09
5.64296e-12
2.06411e-14
2.28124e-09
3.76455e-12
1.27421e-14
2.27869e-09
2.52375e-12
-3.83521e-14
2.27687e-09
1.54909e-12
7.22543e-14
2.27512e-09
9.20818e-13
2.28616e-13
2.27513e-09
-1.40893e-12
1.77108e-12
2.27494e-09
3.26177e-13
8.78527e-14
2.2755e-09
9.74998e-14
-1.60208e-14
2.2759e-09
2.98668e-13
-2.4955e-14
2.27494e-09
-1.77801e-13
1.41199e-12
2.27418e-09
1.08986e-13
-1.30246e-12
2.27458e-09
-1.09009e-13
6.89953e-14
2.27496e-09
-5.04992e-14
-1.16164e-13
2.27491e-09
1.6145e-13
1.39532e-13
2.27459e-09
8.91483e-13
-1.49719e-13
2.27564e-09
-4.54552e-13
1.38768e-12
2.27743e-09
-3.7235e-12
2.66629e-12
2.27742e-09
1.09039e-12
-1.15839e-13
2.27953e-09
-2.55903e-12
8.80017e-13
2.27544e-09
-3.00617e-13
9.54392e-13
2.27585e-09
5.02574e-13
3.03027e-13
2.27644e-09
4.41484e-13
-5.03226e-14
2.27708e-09
-2.7742e-13
1.88009e-13
2.27726e-09
1.98577e-13
4.19559e-14
2.27717e-09
7.61464e-14
-1.86133e-13
2.27654e-09
-3.72545e-13
-2.49024e-14
2.27659e-09
9.19344e-14
1.31786e-13
2.27646e-09
2.02228e-13
1.05518e-14
2.27663e-09
9.25525e-13
8.15544e-14
2.27713e-09
1.21645e-12
-2.50344e-13
2.27962e-09
-2.36145e-12
2.16933e-13
2.27908e-09
1.07345e-12
-2.45389e-13
2.27883e-09
8.2059e-13
-2.11585e-13
2.27764e-09
1.73197e-13
8.90133e-13
2.27721e-09
9.33541e-13
5.58901e-14
2.27728e-09
4.59869e-13
1.39455e-13
-2.14096e-12
1.19547e-12
5.01216e-12
3.98775e-10
-8.58827e-10
-1.01462e-09
-5.89272e-08
-8.88343e-10
-4.3704e-10
-4.70503e-10
6.17415e-08
6.12601e-10
4.12042e-10
-7.93563e-10
-5.36217e-11
1.02359e-09
-1.6225e-10
-1.20189e-09
-1.29497e-09
-1.59456e-09
-2.7391e-09
7.39727e-10
6.31891e-10
5.73634e-10
8.14183e-10
-7.58691e-10
-1.08214e-09
9.76984e-09
6.86141e-09
-5.59949e-11
5.71324e-10
2.27129e-10
-8.29137e-09
6.87501e-10
-5.71576e-10
-2.53989e-10
-6.17058e-11
1.03215e-10
1.75411e-10
6.08644e-10
-1.43296e-10
-1.07278e-10
1.44305e-11
1.4744e-12
5.97155e-11
1.74954e-10
2.49707e-09
1.8968e-10
3.81569e-11
-6.80716e-10
-6.88539e-10
-6.80692e-10
-6.88644e-10
2.3963e-09
1.28543e-10
2.30221e-12
2.34474e-09
7.74305e-11
2.1332e-13
2.31528e-09
4.83909e-11
2.34165e-13
2.29826e-09
3.03178e-11
1.7364e-13
2.28853e-09
1.85462e-11
4.68403e-14
2.28265e-09
1.17442e-11
3.38146e-14
2.27901e-09
7.61844e-12
3.12116e-14
2.27685e-09
4.85706e-12
4.66188e-14
2.27575e-09
2.91731e-12
-1.04798e-14
2.27509e-09
1.88803e-12
-8.47037e-13
2.27462e-09
5.83655e-13
-3.88036e-13
2.27499e-09
1.3665e-13
-1.35429e-13
2.27502e-09
2.99347e-13
6.76212e-15
2.27525e-09
2.42729e-13
5.04654e-14
2.27506e-09