/*--------------------------------*- C++ -*----------------------------------*\
| =========                 |                                                 |
| \\      /  F ield         | OpenFOAM: The Open Source CFD Toolbox           |
|  \\    /   O peration     | Version:  5.0                                   |
|   \\  /    A nd           | Web:      www.OpenFOAM.org                      |
|    \\/     M anipulation  |                                                 |
\*---------------------------------------------------------------------------*/
FoamFile
{
    version     2.0;
    format      ascii;
    class       volScalarField;
    location    "0.6";
    object      rAU;
}
// * * * * * * * * * * * * * * * * * * * * * * * * * * * * * * * * * * * * * //

dimensions      [-1 3 1 0 0 0 0];

internalField   nonuniform List<scalar> 
8192
(
9.69185e-07
8.89171e-07
3.89343e-07
8.07736e-07
8.02501e-07
1.30874e-07
1.29268e-07
3.92418e-07
3.93661e-07
3.94696e-07
3.9573e-07
3.96763e-07
3.97795e-07
3.98827e-07
3.99857e-07
4.00887e-07
4.01916e-07
4.02945e-07
4.03972e-07
4.04999e-07
4.06025e-07
4.07051e-07
4.08076e-07
4.091e-07
4.10123e-07
4.11146e-07
4.12167e-07
4.13188e-07
4.14209e-07
4.15228e-07
4.16247e-07
4.17265e-07
4.18282e-07
4.19298e-07
4.20314e-07
4.21329e-07
4.22343e-07
4.23356e-07
4.24369e-07
4.2538e-07
4.26391e-07
4.27401e-07
4.2841e-07
4.29418e-07
4.30426e-07
4.31432e-07
4.32438e-07
4.33443e-07
4.34447e-07
4.36223e-07
9.72313e-07
9.72218e-07
9.00232e-07
8.90875e-07
8.86831e-07
6.9303e-07
1.29269e-07
3.92419e-07
3.93662e-07
3.94696e-07
3.9573e-07
3.96763e-07
3.97795e-07
3.98827e-07
3.99857e-07
4.00887e-07
4.01916e-07
4.02944e-07
4.03972e-07
4.04999e-07
4.06025e-07
4.07051e-07
4.08076e-07
4.091e-07
4.10123e-07
4.11146e-07
4.12167e-07
4.13188e-07
4.14209e-07
4.15228e-07
4.16247e-07
4.17265e-07
4.18282e-07
4.19298e-07
4.20314e-07
4.21329e-07
4.22343e-07
4.23356e-07
4.24369e-07
4.2538e-07
4.26391e-07
4.27401e-07
4.2841e-07
4.29418e-07
4.30426e-07
4.31432e-07
4.32438e-07
4.33443e-07
4.34447e-07
4.36223e-07
9.72009e-07
9.67257e-07
9.69092e-07
8.81855e-07
8.76618e-07
6.9417e-07
3.51733e-08
3.92419e-07
3.93662e-07
3.94696e-07
3.9573e-07
3.96763e-07
3.97795e-07
3.98827e-07
3.99857e-07
4.00887e-07
4.01916e-07
4.02945e-07
4.03972e-07
4.04999e-07
4.06025e-07
4.07051e-07
4.08076e-07
4.091e-07
4.10123e-07
4.11146e-07
4.12167e-07
4.13188e-07
4.14209e-07
4.15228e-07
4.16247e-07
4.17265e-07
4.18282e-07
4.19298e-07
4.20314e-07
4.21329e-07
4.22343e-07
4.23356e-07
4.24369e-07
4.2538e-07
4.26391e-07
4.27401e-07
4.2841e-07
4.29419e-07
4.30426e-07
4.31432e-07
4.32438e-07
4.33443e-07
4.34447e-07
4.36223e-07
9.55923e-07
8.66446e-07
9.72612e-07
9.65346e-07
9.00757e-07
6.93069e-07
3.81322e-08
3.92417e-07
3.93661e-07
3.94696e-07
3.9573e-07
3.96763e-07
3.97795e-07
3.98827e-07
3.99857e-07
4.00887e-07
4.01916e-07
4.02945e-07
4.03972e-07
4.04999e-07
4.06025e-07
4.07051e-07
4.08076e-07
4.091e-07
4.10123e-07
4.11146e-07
4.12167e-07
4.13188e-07
4.14209e-07
4.15228e-07
4.16247e-07
4.17265e-07
4.18282e-07
4.19298e-07
4.20314e-07
4.21329e-07
4.22343e-07
4.23356e-07
4.24369e-07
4.2538e-07
4.26391e-07
4.27401e-07
4.2841e-07
4.29419e-07
4.30426e-07
4.31432e-07
4.32438e-07
4.33443e-07
4.34447e-07
4.36223e-07
8.90354e-07
4.95256e-07
9.63714e-07
8.22667e-07
9.00937e-07
6.99049e-07
8.23015e-08
3.92417e-07
3.93662e-07
3.94696e-07
3.9573e-07
3.96763e-07
3.97795e-07
3.98827e-07
3.99857e-07
4.00887e-07
4.01916e-07
4.02945e-07
4.03972e-07
4.04999e-07
4.06025e-07
4.07051e-07
4.08076e-07
4.091e-07
4.10123e-07
4.11146e-07
4.12167e-07
4.13188e-07
4.14209e-07
4.15228e-07
4.16247e-07
4.17265e-07
4.18282e-07
4.19298e-07
4.20314e-07
4.21329e-07
4.22343e-07
4.23356e-07
4.24369e-07
4.2538e-07
4.26391e-07
4.27401e-07
4.2841e-07
4.29419e-07
4.30426e-07
4.31432e-07
4.32438e-07
4.33443e-07
4.34447e-07
4.36223e-07
6.80942e-07
7.81521e-07
8.58897e-07
8.72786e-07
6.59961e-07
6.99915e-07
1.09332e-07
3.92421e-07
3.93664e-07
3.94698e-07
3.95731e-07
3.96764e-07
3.97795e-07
3.98827e-07
3.99857e-07
4.00887e-07
4.01916e-07
4.02945e-07
4.03972e-07
4.04999e-07
4.06025e-07
4.07051e-07
4.08076e-07
4.091e-07
4.10123e-07
4.11146e-07
4.12167e-07
4.13188e-07
4.14209e-07
4.15228e-07
4.16247e-07
4.17265e-07
4.18282e-07
4.19298e-07
4.20314e-07
4.21329e-07
4.22343e-07
4.23356e-07
4.24369e-07
4.2538e-07
4.26391e-07
4.27401e-07
4.2841e-07
4.29419e-07
4.30426e-07
4.31432e-07
4.32438e-07
4.33443e-07
4.34447e-07
4.36223e-07
1.56989e-07
7.76691e-07
6.93422e-07
6.97428e-07
8.88082e-07
6.36985e-07
6.31243e-08
3.92424e-07
3.93666e-07
3.94699e-07
3.95732e-07
3.96764e-07
3.97796e-07
3.98827e-07
3.99857e-07
4.00887e-07
4.01916e-07
4.02945e-07
4.03972e-07
4.04999e-07
4.06025e-07
4.07051e-07
4.08076e-07
4.091e-07
4.10123e-07
4.11146e-07
4.12167e-07
4.13188e-07
4.14209e-07
4.15228e-07
4.16247e-07
4.17265e-07
4.18282e-07
4.19298e-07
4.20314e-07
4.21329e-07
4.22343e-07
4.23356e-07
4.24369e-07
4.2538e-07
4.26391e-07
4.27401e-07
4.2841e-07
4.29419e-07
4.30426e-07
4.31432e-07
4.32438e-07
4.33443e-07
4.34447e-07
4.36223e-07
8.91466e-07
1.90873e-07
6.17084e-07
8.6359e-07
8.83686e-07
6.92584e-07
3.60807e-08
3.92424e-07
3.93666e-07
3.94699e-07
3.95732e-07
3.96764e-07
3.97796e-07
3.98827e-07
3.99857e-07
4.00887e-07
4.01916e-07
4.02945e-07
4.03972e-07
4.04999e-07
4.06025e-07
4.07051e-07
4.08076e-07
4.091e-07
4.10123e-07
4.11146e-07
4.12167e-07
4.13188e-07
4.14209e-07
4.15228e-07
4.16247e-07
4.17265e-07
4.18282e-07
4.19298e-07
4.20314e-07
4.21329e-07
4.22343e-07
4.23356e-07
4.24369e-07
4.2538e-07
4.26391e-07
4.27401e-07
4.2841e-07
4.29419e-07
4.30426e-07
4.31432e-07
4.32438e-07
4.33443e-07
4.34447e-07
4.36223e-07
8.72947e-07
6.47783e-07
8.97834e-08
7.25561e-07
8.17036e-07
5.58996e-07
1.29215e-07
3.92421e-07
3.93664e-07
3.94697e-07
3.95731e-07
3.96764e-07
3.97795e-07
3.98827e-07
3.99857e-07
4.00887e-07
4.01916e-07
4.02945e-07
4.03972e-07
4.04999e-07
4.06025e-07
4.07051e-07
4.08076e-07
4.091e-07
4.10123e-07
4.11146e-07
4.12167e-07
4.13188e-07
4.14209e-07
4.15228e-07
4.16247e-07
4.17265e-07
4.18282e-07
4.19298e-07
4.20314e-07
4.21329e-07
4.22343e-07
4.23356e-07
4.24369e-07
4.2538e-07
4.26391e-07
4.27401e-07
4.2841e-07
4.29419e-07
4.30426e-07
4.31432e-07
4.32438e-07
4.33443e-07
4.34447e-07
4.36223e-07
5.27993e-07
6.29202e-07
8.55986e-07
8.64229e-07
8.8612e-07
6.81472e-07
1.29268e-07
3.92418e-07
3.93662e-07
3.94696e-07
3.95731e-07
3.96763e-07
3.97795e-07
3.98827e-07
3.99857e-07
4.00887e-07
4.01916e-07
4.02945e-07
4.03972e-07
4.04999e-07
4.06025e-07
4.07051e-07
4.08076e-07
4.091e-07
4.10123e-07
4.11146e-07
4.12167e-07
4.13188e-07
4.14209e-07
4.15228e-07
4.16247e-07
4.17265e-07
4.18282e-07
4.19298e-07
4.20314e-07
4.21329e-07
4.22343e-07
4.23356e-07
4.24369e-07
4.2538e-07
4.26391e-07
4.27401e-07
4.2841e-07
4.29419e-07
4.30426e-07
4.31432e-07
4.32438e-07
4.33443e-07
4.34447e-07
4.36223e-07
9.7678e-07
7.82955e-07
6.88845e-07
7.30029e-07
8.72906e-07
1.82692e-07
1.83338e-07
5.04889e-07
5.06382e-07
5.07525e-07
5.08664e-07
5.09803e-07
5.10939e-07
5.12073e-07
5.13206e-07
5.14337e-07
5.15465e-07
5.16593e-07
5.17719e-07
5.18842e-07
5.19965e-07
5.21087e-07
5.22205e-07
5.23323e-07
5.2444e-07
5.25553e-07
5.26666e-07
5.27778e-07
5.28886e-07
5.29995e-07
5.31101e-07
5.32205e-07
5.33308e-07
5.3441e-07
5.35509e-07
5.36607e-07
5.37703e-07
5.38797e-07
5.39891e-07
5.40982e-07
5.42071e-07
5.43159e-07
5.44246e-07
5.4533e-07
5.46413e-07
5.47494e-07
5.48573e-07
5.49651e-07
5.50728e-07
5.53043e-07
9.80685e-07
9.80101e-07
8.69663e-07
8.20332e-07
4.10249e-07
7.39885e-07
1.8334e-07
5.04893e-07
5.06383e-07
5.07526e-07
5.08665e-07
5.09803e-07
5.10939e-07
5.12073e-07
5.13206e-07
5.14337e-07
5.15465e-07
5.16593e-07
5.17719e-07
5.18843e-07
5.19965e-07
5.21087e-07
5.22205e-07
5.23323e-07
5.2444e-07
5.25553e-07
5.26666e-07
5.27778e-07
5.28886e-07
5.29995e-07
5.31101e-07
5.32205e-07
5.33308e-07
5.3441e-07
5.35509e-07
5.36607e-07
5.37703e-07
5.38797e-07
5.39891e-07
5.40982e-07
5.42071e-07
5.43159e-07
5.44246e-07
5.4533e-07
5.46413e-07
5.47494e-07
5.48573e-07
5.49651e-07
5.50728e-07
5.53043e-07
9.79341e-07
9.22813e-07
9.775e-07
9.0181e-07
6.31389e-07
7.01603e-07
5.18273e-08
5.04893e-07
5.06384e-07
5.07526e-07
5.08665e-07
5.09803e-07
5.10939e-07
5.12073e-07
5.13206e-07
5.14337e-07
5.15465e-07
5.16593e-07
5.17719e-07
5.18843e-07
5.19965e-07
5.21087e-07
5.22205e-07
5.23323e-07
5.2444e-07
5.25553e-07
5.26666e-07
5.27778e-07
5.28887e-07
5.29995e-07
5.31101e-07
5.32205e-07
5.33308e-07
5.3441e-07
5.35509e-07
5.36607e-07
5.37703e-07
5.38797e-07
5.39891e-07
5.40982e-07
5.42071e-07
5.43159e-07
5.44246e-07
5.4533e-07
5.46413e-07
5.47494e-07
5.48573e-07
5.49651e-07
5.50728e-07
5.53043e-07
9.36435e-07
3.17043e-07
9.80486e-07
9.31988e-07
9.22106e-07
7.72684e-07
5.65262e-08
5.04887e-07
5.06381e-07
5.07525e-07
5.08664e-07
5.09803e-07
5.10939e-07
5.12073e-07
5.13206e-07
5.14337e-07
5.15465e-07
5.16593e-07
5.17719e-07
5.18843e-07
5.19965e-07
5.21087e-07
5.22205e-07
5.23323e-07
5.2444e-07
5.25553e-07
5.26666e-07
5.27778e-07
5.28886e-07
5.29995e-07
5.31101e-07
5.32205e-07
5.33308e-07
5.3441e-07
5.35509e-07
5.36607e-07
5.37703e-07
5.38797e-07
5.39891e-07
5.40982e-07
5.42071e-07
5.43159e-07
5.44246e-07
5.4533e-07
5.46413e-07
5.47494e-07
5.48573e-07
5.49651e-07
5.50728e-07
5.53043e-07
5.95646e-07
2.02967e-07
9.21602e-07
8.59107e-07
9.27508e-07
7.75512e-07
1.18537e-07
5.04889e-07
5.06383e-07
5.07526e-07
5.08665e-07
5.09803e-07
5.1094e-07
5.12073e-07
5.13206e-07
5.14337e-07
5.15465e-07
5.16593e-07
5.17719e-07
5.18842e-07
5.19965e-07
5.21087e-07
5.22205e-07
5.23323e-07
5.2444e-07
5.25553e-07
5.26666e-07
5.27778e-07
5.28886e-07
5.29995e-07
5.31101e-07
5.32205e-07
5.33308e-07
5.3441e-07
5.35509e-07
5.36607e-07
5.37703e-07
5.38797e-07
5.39891e-07
5.40982e-07
5.42071e-07
5.43159e-07
5.44246e-07
5.4533e-07
5.46413e-07
5.47494e-07
5.48573e-07
5.49651e-07
5.50728e-07
5.53043e-07
6.64675e-07
3.36298e-07
9.05924e-07
8.70836e-07
1.60154e-07
7.7058e-07
1.55134e-07
5.049e-07
5.06389e-07
5.07529e-07
5.08667e-07
5.09804e-07
5.1094e-07
5.12073e-07
5.13206e-07
5.14337e-07
5.15465e-07
5.16593e-07
5.17719e-07
5.18842e-07
5.19965e-07
5.21087e-07
5.22205e-07
5.23323e-07
5.2444e-07
5.25553e-07
5.26666e-07
5.27778e-07
5.28887e-07
5.29995e-07
5.31101e-07
5.32205e-07
5.33308e-07
5.3441e-07
5.35509e-07
5.36607e-07
5.37703e-07
5.38797e-07
5.39891e-07
5.40982e-07
5.42071e-07
5.43159e-07
5.44246e-07
5.4533e-07
5.46413e-07
5.47494e-07
5.48573e-07
5.49651e-07
5.50728e-07
5.53042e-07
1.12628e-07
6.81998e-07
4.71104e-07
3.90617e-07
9.02837e-07
6.45333e-07
9.22089e-08
5.04907e-07
5.06393e-07
5.07532e-07
5.08669e-07
5.09806e-07
5.10941e-07
5.12074e-07
5.13206e-07
5.14337e-07
5.15465e-07
5.16593e-07
5.17719e-07
5.18843e-07
5.19965e-07
5.21087e-07
5.22205e-07
5.23323e-07
5.2444e-07
5.25553e-07
5.26666e-07
5.27778e-07
5.28886e-07
5.29995e-07
5.31101e-07
5.32205e-07
5.33308e-07
5.3441e-07
5.35509e-07
5.36607e-07
5.37703e-07
5.38797e-07
5.39891e-07
5.40982e-07
5.42071e-07
5.43159e-07
5.44246e-07
5.4533e-07
5.46413e-07
5.47494e-07
5.48573e-07
5.49651e-07
5.50728e-07
5.53042e-07
6.58702e-07
5.58428e-07
5.41491e-07
7.18137e-07
7.09394e-07
7.29018e-07
5.35016e-08
5.04908e-07
5.06393e-07
5.07532e-07
5.08669e-07
5.09806e-07
5.10941e-07
5.12074e-07
5.13206e-07
5.14337e-07
5.15465e-07
5.16593e-07
5.17719e-07
5.18843e-07
5.19965e-07
5.21087e-07
5.22205e-07
5.23323e-07
5.24439e-07
5.25553e-07
5.26666e-07
5.27778e-07
5.28886e-07
5.29995e-07
5.31101e-07
5.32205e-07
5.33308e-07
5.3441e-07
5.35509e-07
5.36607e-07
5.37703e-07
5.38797e-07
5.39891e-07
5.40982e-07
5.42071e-07
5.43159e-07
5.44246e-07
5.4533e-07
5.46413e-07
5.47494e-07
5.48573e-07
5.49651e-07
5.50728e-07
5.53042e-07
7.03047e-07
7.36332e-07
1.68237e-07
4.27602e-07
6.59465e-07
6.41843e-07
1.83239e-07
5.04898e-07
5.06388e-07
5.07529e-07
5.08667e-07
5.09804e-07
5.1094e-07
5.12073e-07
5.13206e-07
5.14337e-07
5.15465e-07
5.16593e-07
5.17719e-07
5.18843e-07
5.19965e-07
5.21087e-07
5.22205e-07
5.23323e-07
5.2444e-07
5.25553e-07
5.26666e-07
5.27778e-07
5.28887e-07
5.29995e-07
5.31101e-07
5.32205e-07
5.33308e-07
5.3441e-07
5.35509e-07
5.36607e-07
5.37703e-07
5.38797e-07
5.3989e-07
5.40982e-07
5.42071e-07
5.43159e-07
5.44246e-07
5.4533e-07
5.46413e-07
5.47494e-07
5.48573e-07
5.49651e-07
5.50728e-07
5.53043e-07
6.41252e-07
8.822e-07
6.78061e-07
4.67424e-07
8.17435e-07
7.53825e-07
1.83337e-07
5.0489e-07
5.06383e-07
5.07526e-07
5.08665e-07
5.09803e-07
5.1094e-07
5.12073e-07
5.13206e-07
5.14337e-07
5.15465e-07
5.16593e-07
5.17719e-07
5.18842e-07
5.19965e-07
5.21087e-07
5.22205e-07
5.23323e-07
5.2444e-07
5.25553e-07
5.26666e-07
5.27778e-07
5.28887e-07
5.29995e-07
5.31101e-07
5.32205e-07
5.33308e-07
5.3441e-07
5.35509e-07
5.36607e-07
5.37703e-07
5.38797e-07
5.39891e-07
5.40982e-07
5.42071e-07
5.43159e-07
5.44246e-07
5.4533e-07
5.46413e-07
5.47494e-07
5.48573e-07
5.49651e-07
5.50728e-07
5.53043e-07
9.6757e-07
8.59507e-07
7.79316e-07
7.50064e-07
8.82333e-07
1.84101e-07
1.83344e-07
3.92418e-07
3.93661e-07
3.94696e-07
3.9573e-07
3.96763e-07
3.97795e-07
3.98827e-07
3.99857e-07
4.00887e-07
4.01916e-07
4.02944e-07
4.03972e-07
4.04999e-07
4.06025e-07
4.07051e-07
4.08076e-07
4.091e-07
4.10123e-07
4.11146e-07
4.12167e-07
4.13188e-07
4.14209e-07
4.15228e-07
4.16247e-07
4.17265e-07
4.18282e-07
4.19298e-07
4.20314e-07
4.21329e-07
4.22343e-07
4.23356e-07
4.24368e-07
4.2538e-07
4.26391e-07
4.27401e-07
4.2841e-07
4.29418e-07
4.30426e-07
4.31432e-07
4.32438e-07
4.33443e-07
4.34447e-07
4.36223e-07
9.72922e-07
9.72477e-07
8.93933e-07
4.84568e-07
8.9753e-07
7.40652e-07
1.83345e-07
3.92419e-07
3.93662e-07
3.94696e-07
3.9573e-07
3.96763e-07
3.97795e-07
3.98827e-07
3.99857e-07
4.00887e-07
4.01916e-07
4.02944e-07
4.03972e-07
4.04999e-07
4.06025e-07
4.07051e-07
4.08076e-07
4.091e-07
4.10123e-07
4.11146e-07
4.12167e-07
4.13188e-07
4.14209e-07
4.15228e-07
4.16247e-07
4.17265e-07
4.18282e-07
4.19298e-07
4.20314e-07
4.21329e-07
4.22343e-07
4.23356e-07
4.24368e-07
4.2538e-07
4.26391e-07
4.27401e-07
4.2841e-07
4.29418e-07
4.30426e-07
4.31432e-07
4.32438e-07
4.33443e-07
4.34447e-07
4.36223e-07
9.71457e-07
9.68228e-07
9.70152e-07
8.89415e-07
3.56752e-07
6.71199e-07
5.18268e-08
3.92419e-07
3.93662e-07
3.94696e-07
3.9573e-07
3.96763e-07
3.97795e-07
3.98827e-07
3.99857e-07
4.00887e-07
4.01916e-07
4.02944e-07
4.03972e-07
4.04999e-07
4.06025e-07
4.07051e-07
4.08076e-07
4.091e-07
4.10123e-07
4.11146e-07
4.12167e-07
4.13188e-07
4.14209e-07
4.15228e-07
4.16247e-07
4.17265e-07
4.18282e-07
4.19298e-07
4.20314e-07
4.21329e-07
4.22343e-07
4.23356e-07
4.24369e-07
4.2538e-07
4.26391e-07
4.27401e-07
4.2841e-07
4.29418e-07
4.30426e-07
4.31432e-07
4.32438e-07
4.33443e-07
4.34447e-07
4.36223e-07
9.25797e-07
8.39484e-07
9.72344e-07
8.80951e-07
9.07384e-07
7.74752e-07
5.64637e-08
3.92416e-07
3.93661e-07
3.94696e-07
3.9573e-07
3.96763e-07
3.97795e-07
3.98827e-07
3.99857e-07
4.00887e-07
4.01916e-07
4.02944e-07
4.03972e-07
4.04999e-07
4.06025e-07
4.07051e-07
4.08076e-07
4.091e-07
4.10123e-07
4.11146e-07
4.12167e-07
4.13188e-07
4.14209e-07
4.15228e-07
4.16247e-07
4.17265e-07
4.18282e-07
4.19298e-07
4.20314e-07
4.21329e-07
4.22343e-07
4.23356e-07
4.24369e-07
4.2538e-07
4.26391e-07
4.27401e-07
4.2841e-07
4.29418e-07
4.30426e-07
4.31432e-07
4.32438e-07
4.33443e-07
4.34447e-07
4.36223e-07
5.58747e-07
2.38564e-07
9.65627e-07
9.69089e-07
9.31703e-07
7.75623e-07
1.18535e-07
3.92417e-07
3.93662e-07
3.94696e-07
3.9573e-07
3.96763e-07
3.97795e-07
3.98827e-07
3.99857e-07
4.00887e-07
4.01916e-07
4.02944e-07
4.03972e-07
4.04999e-07
4.06025e-07
4.07051e-07
4.08076e-07
4.091e-07
4.10123e-07
4.11146e-07
4.12167e-07
4.13188e-07
4.14209e-07
4.15228e-07
4.16247e-07
4.17265e-07
4.18282e-07
4.19298e-07
4.20314e-07
4.21329e-07
4.22343e-07
4.23356e-07
4.24369e-07
4.2538e-07
4.26391e-07
4.27401e-07
4.2841e-07
4.29418e-07
4.30426e-07
4.31432e-07
4.32438e-07
4.33443e-07
4.34447e-07
4.36223e-07
5.47605e-07
2.71882e-07
9.03607e-07
8.78565e-07
7.89485e-07
7.74317e-07
1.54893e-07
3.92421e-07
3.93664e-07
3.94697e-07
3.95731e-07
3.96764e-07
3.97795e-07
3.98827e-07
3.99857e-07
4.00887e-07
4.01916e-07
4.02944e-07
4.03972e-07
4.04999e-07
4.06025e-07
4.07051e-07
4.08076e-07
4.091e-07
4.10123e-07
4.11146e-07
4.12167e-07
4.13188e-07
4.14209e-07
4.15228e-07
4.16247e-07
4.17265e-07
4.18282e-07
4.19298e-07
4.20314e-07
4.21329e-07
4.22343e-07
4.23356e-07
4.24369e-07
4.2538e-07
4.26391e-07
4.27401e-07
4.2841e-07
4.29418e-07
4.30426e-07
4.31432e-07
4.32438e-07
4.33443e-07
4.34447e-07
4.36223e-07
2.76444e-07
8.61633e-07
7.24391e-07
6.11485e-07
8.65253e-07
7.49432e-07
9.21572e-08
3.92424e-07
3.93665e-07
3.94699e-07
3.95732e-07
3.96764e-07
3.97796e-07
3.98827e-07
3.99857e-07
4.00887e-07
4.01916e-07
4.02945e-07
4.03972e-07
4.04999e-07
4.06025e-07
4.07051e-07
4.08076e-07
4.091e-07
4.10123e-07
4.11146e-07
4.12167e-07
4.13188e-07
4.14209e-07
4.15228e-07
4.16247e-07
4.17265e-07
4.18282e-07
4.19298e-07
4.20314e-07
4.21329e-07
4.22343e-07
4.23356e-07
4.24369e-07
4.2538e-07
4.26391e-07
4.27401e-07
4.2841e-07
4.29419e-07
4.30426e-07
4.31432e-07
4.32438e-07
4.33443e-07
4.34447e-07
4.36223e-07
2.19478e-07
8.09061e-07
7.52033e-07
4.98375e-07
6.40433e-07
5.91683e-07
5.3407e-08
3.92424e-07
3.93666e-07
3.94699e-07
3.95732e-07
3.96764e-07
3.97796e-07
3.98827e-07
3.99857e-07
4.00887e-07
4.01916e-07
4.02944e-07
4.03972e-07
4.04999e-07
4.06025e-07
4.07051e-07
4.08076e-07
4.091e-07
4.10123e-07
4.11146e-07
4.12167e-07
4.13188e-07
4.14209e-07
4.15228e-07
4.16247e-07
4.17265e-07
4.18282e-07
4.19298e-07
4.20314e-07
4.21329e-07
4.22343e-07
4.23356e-07
4.24369e-07
4.2538e-07
4.26391e-07
4.27401e-07
4.2841e-07
4.29419e-07
4.30426e-07
4.31432e-07
4.32438e-07
4.33443e-07
4.34447e-07
4.36223e-07
2.95837e-07
7.32095e-07
7.69679e-07
2.99103e-07
5.59626e-07
7.3721e-07
1.83238e-07
3.9242e-07
3.93664e-07
3.94697e-07
3.95731e-07
3.96764e-07
3.97795e-07
3.98827e-07
3.99857e-07
4.00887e-07
4.01916e-07
4.02944e-07
4.03972e-07
4.04999e-07
4.06025e-07
4.07051e-07
4.08076e-07
4.091e-07
4.10123e-07
4.11146e-07
4.12167e-07
4.13188e-07
4.14209e-07
4.15228e-07
4.16247e-07
4.17265e-07
4.18282e-07
4.19298e-07
4.20314e-07
4.21329e-07
4.22343e-07
4.23356e-07
4.24369e-07
4.2538e-07
4.26391e-07
4.27401e-07
4.2841e-07
4.29419e-07
4.30426e-07
4.31432e-07
4.32438e-07
4.33443e-07
4.34447e-07
4.36223e-07
4.88716e-07
8.78767e-07
7.22741e-07
2.7179e-07
6.04413e-07
7.5474e-07
1.83342e-07
3.92417e-07
3.93662e-07
3.94696e-07
3.9573e-07
3.96763e-07
3.97795e-07
3.98827e-07
3.99857e-07
4.00887e-07
4.01916e-07
4.02944e-07
4.03972e-07
4.04999e-07
4.06025e-07
4.07051e-07
4.08076e-07
4.091e-07
4.10123e-07
4.11146e-07
4.12167e-07
4.13188e-07
4.14209e-07
4.15228e-07
4.16247e-07
4.17265e-07
4.18282e-07
4.19298e-07
4.20314e-07
4.21329e-07
4.22343e-07
4.23356e-07
4.24369e-07
4.2538e-07
4.26391e-07
4.27401e-07
4.2841e-07
4.29418e-07
4.30426e-07
4.31432e-07
4.32438e-07
4.33443e-07
4.34447e-07
4.36223e-07
3.51425e-08
6.85475e-07
3.51425e-08
1.84074e-07
5.17846e-08
7.40274e-07
5.17844e-08
3.51444e-08
6.96651e-07
3.63317e-08
7.45859e-07
5.1789e-08
7.51053e-07
5.38092e-08
3.89211e-08
6.77769e-07
9.11262e-08
7.3975e-07
5.75902e-08
7.64756e-07
1.30523e-07
1.43893e-07
6.93522e-07
6.93245e-07
7.72677e-07
2.00426e-07
7.76348e-07
7.65474e-07
6.9259e-07
6.99714e-07
6.95783e-07
7.75242e-07
7.65865e-07
7.74691e-07
7.71203e-07
6.95423e-07
5.87719e-07
6.94254e-07
7.72576e-07
7.71138e-07
7.20912e-07
7.66975e-07
6.92173e-07
6.9043e-07
1.40355e-07
6.47963e-07
7.65886e-07
7.67454e-07
1.95443e-07
9.80064e-08
6.8235e-07
3.85441e-08
7.3709e-07
1.4008e-07
6.97217e-07
5.67727e-08
3.63786e-08
6.87946e-07
3.51443e-08
6.96944e-07
5.39895e-08
7.40498e-07
5.1788e-08
3.51426e-08
1.22962e-07
3.51424e-08
7.45234e-07
5.1784e-08
1.7355e-07
5.17843e-08
5.17844e-08
7.34321e-07
5.17841e-08
1.83721e-07
5.17844e-08
7.35765e-07
5.17841e-08
5.17877e-08
7.50895e-07
5.38643e-08
7.38755e-07
5.17877e-08
7.44453e-07
5.38869e-08
5.76269e-08
7.7454e-07
1.30522e-07
7.18638e-07
5.75857e-08
7.7007e-07
1.30452e-07
2.00402e-07
7.76106e-07
7.64935e-07
7.74576e-07
2.0034e-07
7.76631e-07
7.66607e-07
7.65965e-07
7.74304e-07
7.7002e-07
7.74929e-07
7.65977e-07
7.64473e-07
7.71533e-07
7.71194e-07
7.07599e-07
7.66407e-07
7.6971e-07
7.69755e-07
7.16671e-07
7.68359e-07
7.65917e-07
7.65369e-07
1.95218e-07
6.70214e-07
7.65514e-07
7.57082e-07
1.95122e-07
1.4006e-07
6.34204e-07
5.68281e-08
5.57598e-07
1.40318e-07
6.51126e-07
5.71016e-08
5.40007e-08
7.56519e-07
5.1788e-08
6.2815e-07
5.38302e-08
7.49507e-07
5.1788e-08
5.17836e-08
1.73353e-07
5.17841e-08
7.47044e-07
5.17835e-08
1.72008e-07
5.17842e-08
5.17845e-08
7.34696e-07
5.17843e-08
1.31694e-07
3.51424e-08
6.86001e-07
3.51424e-08
5.1788e-08
7.53886e-07
5.38418e-08
6.88335e-07
3.51441e-08
6.95974e-07
3.6342e-08
5.75213e-08
7.70714e-07
1.30424e-07
6.71436e-07
3.88952e-08
6.99403e-07
9.10158e-08
2.00306e-07
7.76633e-07
7.6528e-07
6.97172e-07
1.43695e-07
6.95878e-07
6.92228e-07
7.65754e-07
7.74958e-07
7.70768e-07
7.0037e-07
6.93425e-07
6.98125e-07
6.95462e-07
7.70093e-07
7.13617e-07
7.68244e-07
6.99523e-07
6.95849e-07
6.85975e-07
6.94645e-07
7.65081e-07
7.64183e-07
1.95223e-07
6.94084e-07
6.92059e-07
6.93516e-07
1.40056e-07
1.40557e-07
5.7851e-07
5.71977e-08
6.59858e-07
9.84903e-08
4.55678e-07
3.88531e-08
5.36408e-08
7.55217e-07
5.17881e-08
6.90976e-07
3.62555e-08
6.94036e-07
3.51433e-08
5.17837e-08
1.71129e-07
5.17843e-08
6.85954e-07
3.51423e-08
1.19751e-07
3.51424e-08
6.88641e-07
8.84122e-07
6.00618e-07
8.65439e-07
7.44307e-07
8.67397e-07
7.62104e-07
5.67011e-08
3.74827e-08
1.5491e-07
1.84132e-07
2.11486e-07
3.82698e-08
5.52673e-08
1.29657e-07
1.29268e-07
1.29657e-07
1.83344e-07
1.84013e-07
1.83344e-07
1.84014e-07
6.40109e-07
6.12856e-07
8.88997e-07
6.63681e-07
6.8786e-07
2.25742e-07
7.85105e-07
4.12376e-07
1.16476e-07
6.60123e-07
7.65416e-07
1.64464e-07
7.37199e-07
3.23958e-07
1.29657e-07
1.29215e-07
1.29657e-07
1.83346e-07
1.84015e-07
1.83239e-07
1.84015e-07
8.92262e-07
8.80709e-07
7.68789e-07
7.67223e-07
9.15151e-07
8.73286e-07
7.82281e-07
7.67688e-07
6.96278e-07
6.80915e-07
7.61007e-07
7.72604e-07
6.51238e-07
6.98612e-07
1.29566e-07
3.59113e-08
1.29566e-07
5.18272e-08
1.83832e-07
5.31904e-08
1.83831e-07
8.91771e-07
9.02558e-07
9.00425e-07
9.26161e-07
9.20204e-07
9.30843e-07
9.30086e-07
7.76247e-07
6.9964e-07
6.98957e-07
7.71926e-07
7.75524e-07
7.76494e-07
7.00132e-07
1.29566e-07
6.46286e-08
1.29566e-07
5.64651e-08
1.83829e-07
9.3926e-08
1.83828e-07
9.02177e-07
8.97024e-07
9.00591e-07
9.29095e-07
9.31181e-07
9.01477e-07
9.29665e-07
7.72271e-07
6.96693e-07
6.88501e-07
7.72194e-07
7.72468e-07
7.7022e-07
6.93464e-07
1.2957e-07
1.09328e-07
1.29575e-07
1.18498e-07
1.8384e-07
1.55273e-07
1.83851e-07
8.99936e-07
7.28848e-07
8.69093e-07
1.16503e-07
9.14952e-07
1.89269e-07
8.20288e-07
7.76447e-07
7.00066e-07
7.00327e-07
7.75655e-07
7.76534e-07
7.76232e-07
7.00357e-07
1.29576e-07
8.3005e-08
1.29572e-07
1.55175e-07
1.83853e-07
1.19308e-07
1.83846e-07
7.82122e-07
8.79495e-07
8.90174e-07
9.05331e-07
8.37256e-07
8.84343e-07
9.23296e-07
7.68441e-07
6.92956e-07
5.87749e-07
6.55197e-07
7.69188e-07
7.32384e-07
6.93e-07
1.29567e-07
3.81198e-08
1.29567e-07
9.20469e-08
1.83836e-07
5.64659e-08
1.83836e-07
8.79138e-07
8.9643e-07
8.89393e-07
8.73102e-07
9.13109e-07
8.94171e-07
8.88158e-07
7.74401e-07
6.96367e-07
6.95182e-07
7.56322e-07
7.63173e-07
7.67277e-07
6.9986e-07
1.29568e-07
3.51759e-08
1.29567e-07
5.34428e-08
1.83837e-07
5.18269e-08
1.83835e-07
3.48389e-07
8.84497e-07
5.55119e-07
6.88429e-07
3.62674e-07
9.14265e-07
4.43854e-07
6.84896e-07
6.89499e-07
3.77118e-07
6.20203e-07
7.58767e-07
4.1549e-07
6.0436e-07
1.29658e-07
1.29268e-07
1.29657e-07
1.83242e-07
1.84017e-07
1.83343e-07
1.84014e-07
6.73838e-07
8.91069e-07
6.95476e-07
9.16771e-07
7.4675e-07
9.14443e-07
7.66646e-07
6.68129e-08
6.38762e-08
4.15611e-07
7.31228e-07
9.36923e-08
5.51849e-07
4.63269e-08
1.29657e-07
1.29268e-07
1.29657e-07
1.83342e-07
1.84013e-07
1.83343e-07
1.84013e-07
7.48025e-07
8.42664e-07
7.25149e-07
8.81228e-07
7.60725e-07
8.47545e-07
7.60547e-07
5.71864e-08
5.55261e-08
2.13801e-07
1.82463e-07
5.67487e-08
2.07519e-07
5.55531e-08
1.84008e-07
1.83339e-07
1.84008e-07
1.83338e-07
1.84008e-07
1.83339e-07
1.84008e-07
6.93581e-07
2.39768e-07
7.56513e-07
7.01522e-07
6.30433e-07
3.70621e-07
6.60457e-07
4.02928e-07
1.65628e-07
7.31849e-07
7.35731e-07
4.04536e-07
1.65465e-07
7.29516e-07
1.84009e-07
1.83235e-07
1.84009e-07
1.8334e-07
1.84009e-07
1.83234e-07
1.8401e-07
9.12867e-07
8.26089e-07
8.30882e-07
4.57803e-07
8.92284e-07
8.07313e-07
8.83328e-07
7.57942e-07
7.69161e-07
5.20501e-07
6.67557e-07
7.589e-07
7.64671e-07
5.91135e-07
1.83826e-07
5.32421e-08
1.83826e-07
5.1827e-08
1.83827e-07
5.3242e-08
1.83826e-07
9.23344e-07
9.28224e-07
9.30481e-07
9.15215e-07
9.28872e-07
9.29526e-07
9.31316e-07
7.73761e-07
7.74015e-07
7.75285e-07
7.73484e-07
7.74287e-07
7.73732e-07
7.74772e-07
1.83823e-07
9.38742e-08
1.83823e-07
5.65286e-08
1.83823e-07
9.39812e-08
1.83823e-07
9.31218e-07
7.45269e-07
8.73253e-07
9.29077e-07
9.31016e-07
5.50973e-07
7.1397e-07
7.75516e-07
7.76496e-07
7.76753e-07
7.74842e-07
7.75486e-07
7.75983e-07
7.7676e-07
1.83835e-07
1.55283e-07
1.83846e-07
1.18566e-07
1.83835e-07
1.55194e-07
1.83846e-07
7.3667e-07
2.51478e-07
7.95282e-07
4.60936e-07
4.27737e-07
5.74608e-07
8.37462e-07
7.76208e-07
7.76809e-07
7.75178e-07
7.69449e-07
7.75856e-07
7.767e-07
7.68557e-07
1.83849e-07
1.1928e-07
1.83843e-07
1.54941e-07
1.83849e-07
1.19295e-07
1.83843e-07
8.32435e-07
8.11182e-07
8.0374e-07
8.94681e-07
8.63986e-07
6.65348e-07
6.64967e-07
7.65038e-07
7.64727e-07
7.40572e-07
5.67636e-07
7.67402e-07
7.57922e-07
7.42009e-07
1.83832e-07
5.65422e-08
1.83832e-07
9.20578e-08
1.83832e-07
5.65424e-08
1.83832e-07
7.93585e-07
6.83159e-07
5.74954e-07
6.13027e-07
3.80572e-07
7.33277e-07
4.00668e-07
7.70049e-07
7.31054e-07
7.31436e-07
7.04635e-07
7.70977e-07
6.89923e-07
7.29357e-07
1.83833e-07
5.18271e-08
1.83831e-07
5.34823e-08
1.83833e-07
5.18271e-08
1.83831e-07
5.74001e-07
8.72126e-07
4.36995e-07
6.61527e-07
5.88709e-07
2.55378e-07
5.40119e-07
6.92884e-07
7.44199e-07
5.76399e-07
5.20751e-07
6.80828e-07
7.37145e-07
6.80194e-07
1.84012e-07
1.83337e-07
1.84009e-07
1.83238e-07
1.84013e-07
1.83337e-07
1.84009e-07
6.91746e-07
8.54618e-07
7.58794e-07
5.35223e-07
6.69649e-07
6.4133e-07
7.54758e-07
6.58624e-08
9.27542e-08
6.64279e-07
7.42789e-07
6.49818e-08
9.26189e-08
5.90007e-07
1.84007e-07
1.83338e-07
1.84008e-07
1.83337e-07
1.84007e-07
1.83338e-07
1.84008e-07
7.65184e-07
7.83029e-07
7.22784e-07
5.62792e-07
6.93935e-07
6.4098e-07
6.78874e-07
5.65278e-08
5.53872e-08
2.10021e-07
1.84585e-07
5.70707e-08
2.17679e-07
5.52831e-08
1.84013e-07
1.83344e-07
1.84013e-07
1.29268e-07
1.29657e-07
1.29268e-07
1.29657e-07
6.13223e-07
7.3369e-07
8.37177e-07
8.96703e-07
8.09205e-07
8.29969e-07
8.8654e-07
4.0704e-07
1.6814e-07
7.51632e-07
7.4663e-07
4.04271e-07
1.68498e-07
7.57349e-07
1.84014e-07
1.83238e-07
1.84015e-07
1.29269e-07
1.29657e-07
1.29215e-07
1.29658e-07
8.7882e-07
5.36492e-07
8.94717e-07
5.32007e-07
7.97535e-07
2.36262e-07
8.8547e-07
7.69039e-07
7.6894e-07
7.36797e-07
6.5265e-07
7.6715e-07
7.69325e-07
7.51005e-07
1.83831e-07
5.31885e-08
1.83831e-07
3.51761e-08
1.29567e-07
3.59111e-08
1.29566e-07
9.3084e-07
9.31143e-07
9.32257e-07
8.63577e-07
9.02373e-07
9.02055e-07
9.02907e-07
7.74601e-07
7.74007e-07
7.75714e-07
7.7499e-07
7.75382e-07
7.75264e-07
7.76009e-07
1.83829e-07
9.38002e-08
1.83828e-07
3.81323e-08
1.29566e-07
6.45505e-08
1.29566e-07
9.31955e-07
8.1072e-07
8.83924e-07
9.02584e-07
9.02623e-07
8.92762e-07
9.00641e-07
7.76764e-07
7.7635e-07
7.76726e-07
7.75818e-07
7.76428e-07
7.76546e-07
7.76234e-07
1.8384e-07
1.55122e-07
1.8385e-07
8.22962e-08
1.2957e-07
1.09128e-07
1.29576e-07
7.65106e-07
6.6738e-07
8.68953e-07
8.96894e-07
8.92549e-07
8.9633e-07
8.2613e-07
7.76634e-07
7.75818e-07
7.63345e-07
7.74702e-07
7.76414e-07
7.75806e-07
7.72631e-07
1.83853e-07
1.19306e-07
1.83846e-07
1.09097e-07
1.29576e-07
8.29845e-08
1.29572e-07
8.96853e-07
6.24591e-07
5.89583e-07
6.80207e-07
8.93567e-07
2.64471e-07
6.69759e-07
7.71e-07
7.66551e-07
7.03491e-07
7.54534e-07
7.66459e-07
7.66831e-07
6.86329e-07
1.83836e-07
5.64661e-08
1.83835e-07
6.32029e-08
1.29568e-07
3.81196e-08
1.29568e-07
3.36112e-07
6.03754e-07
2.98958e-07
5.91413e-07
6.02025e-07
6.84377e-07
3.70421e-07
7.71047e-07
7.31785e-07
6.47119e-07
6.70011e-07
7.69638e-07
7.39588e-07
6.08294e-07
1.83837e-07
5.18272e-08
1.83835e-07
3.60625e-08
1.29568e-07
3.51732e-08
1.29567e-07
4.99131e-07
1.82365e-07
5.6745e-07
8.33484e-07
8.25421e-07
2.13105e-07
6.4682e-07
7.27738e-07
7.6052e-07
6.89996e-07
7.42399e-07
7.2071e-07
7.65798e-07
6.98834e-07
1.84017e-07
1.83343e-07
1.84014e-07
1.29215e-07
1.29658e-07
1.29268e-07
1.29657e-07
7.34884e-07
4.30293e-07
7.48484e-07
3.01332e-07
8.59829e-07
4.00834e-07
6.91949e-07
6.49157e-08
9.19245e-08
6.65854e-07
7.57249e-07
6.48217e-08
9.16385e-08
6.50696e-07
1.84013e-07
1.83343e-07
1.84013e-07
1.29268e-07
1.29657e-07
1.29268e-07
1.29657e-07
5.16934e-08
3.50871e-08
3.51424e-08
5.17915e-08
5.17912e-08
3.50878e-08
5.1691e-08
6.68671e-08
3.62864e-07
6.23294e-08
7.49389e-07
4.92918e-07
9.09503e-08
4.63006e-08
5.1703e-08
3.51424e-08
3.51301e-08
5.17914e-08
5.17912e-08
5.17729e-08
3.50948e-08
5.67425e-08
1.84598e-07
5.54294e-08
2.15109e-07
2.12687e-07
5.66447e-08
5.53353e-08
5.16924e-08
5.17906e-08
5.16843e-08
5.17842e-08
5.17903e-08
5.16854e-08
5.16905e-08
6.70234e-08
7.41855e-07
4.77859e-07
9.16632e-08
4.88187e-07
9.14271e-08
6.72721e-08
5.17046e-08
5.17904e-08
5.17839e-08
5.1788e-08
5.179e-08
5.17802e-08
5.1698e-08
6.42064e-08
3.67997e-08
3.51506e-08
5.17958e-08
5.43546e-08
5.18095e-08
4.36404e-08
7.56941e-07
6.96306e-07
6.89988e-07
7.59154e-07
7.14699e-07
7.55507e-07
6.88232e-07
9.13069e-08
3.51857e-08
1.0111e-07
5.36383e-08
5.18936e-08
1.44084e-07
6.28671e-08
4.09703e-07
7.5861e-07
1.6373e-07
7.44166e-07
1.63069e-07
7.40183e-07
4.07202e-07
6.43823e-08
5.17955e-08
5.46113e-08
5.18034e-08
5.45943e-08
5.18089e-08
6.46079e-08
7.57954e-07
7.46807e-07
6.49568e-07
7.46161e-07
6.69195e-07
7.48555e-07
7.55395e-07
9.12146e-08
5.37393e-08
5.1926e-08
1.43908e-07
5.19164e-08
1.4392e-07
9.11398e-08
5.71345e-07
1.64428e-07
4.76557e-08
5.73681e-08
2.27275e-07
7.00651e-08
4.85313e-07
7.70147e-07
6.82407e-07
6.9678e-07