/*--------------------------------*- C++ -*----------------------------------*\
| =========                 |                                                 |
| \\      /  F ield         | OpenFOAM: The Open Source CFD Toolbox           |
|  \\    /   O peration     | Version:  5.0                                   |
|   \\  /    A nd           | Web:      www.OpenFOAM.org                      |
|    \\/     M anipulation  |                                                 |
\*---------------------------------------------------------------------------*/
FoamFile
{
    version     2.0;
    format      ascii;
    class       volVectorField;
    location    "0.6";
    object      U;
}
// * * * * * * * * * * * * * * * * * * * * * * * * * * * * * * * * * * * * * //

dimensions      [0 1 -1 0 0 0 0];

internalField   nonuniform List<vector> 
8192
(
(-0.000875407 0.00154986 -0.000248443)
(0.0102959 0.00643725 0.0004418)
(0.00134231 0.00630859 -0.000996931)
(-0.00745759 -0.00192805 -0.000581958)
(0.00509751 0.00167535 0.000111375)
(0.000764183 -0.000414215 3.7379e-05)
(0.000481348 -5.55006e-05 -1.65585e-06)
(0.000878284 -6.52734e-05 -2.22527e-06)
(0.000824155 -4.84757e-05 -3.30089e-07)
(0.000820136 -3.17763e-05 1.02173e-07)
(0.000810176 -2.06551e-05 6.73749e-08)
(0.000804918 -1.33607e-05 5.29227e-08)
(0.000801484 -8.4704e-06 -1.45639e-08)
(0.000798289 -4.97263e-06 6.3598e-08)
(0.000795275 -3.15372e-06 4.24106e-08)
(0.000793303 -2.08074e-06 2.57685e-07)
(0.000791612 -1.33675e-06 4.71907e-08)
(0.000789821 -8.3824e-07 5.57639e-08)
(0.000788038 -5.72193e-07 5.54525e-08)
(0.000786422 -6.09211e-07 1.06707e-07)
(0.000785429 -7.051e-07 6.69426e-08)
(0.000784252 -2.19121e-07 6.70456e-08)
(0.000782576 -2.93254e-07 6.27559e-08)
(0.000781135 -1.40755e-07 4.17568e-08)
(0.000779822 5.40488e-08 2.07885e-08)
(0.000778396 2.16742e-07 1.27953e-08)
(0.000776878 1.78752e-07 5.51278e-08)
(0.000775649 9.39507e-08 4.52796e-08)
(0.000774139 2.0737e-07 2.60744e-08)
(0.000772645 -7.53326e-08 3.80854e-08)
(0.000771066 -4.47031e-07 7.03993e-08)
(0.00076934 -5.46594e-07 4.87648e-08)
(0.00076842 -6.22058e-07 8.45512e-08)
(0.000767518 -1.95506e-07 3.80653e-08)
(0.000766159 2.88572e-08 4.39824e-08)
(0.000764453 2.30766e-07 3.77246e-08)
(0.000762725 1.42852e-07 4.15917e-08)
(0.000761216 3.23886e-07 2.66876e-08)
(0.000760371 5.51653e-07 7.02062e-08)
(0.000759379 1.76284e-07 6.95855e-08)
(0.000757672 2.65172e-09 2.45006e-08)
(0.000756261 -3.03075e-08 7.21321e-08)
(0.000755446 -6.83152e-07 8.65828e-08)
(0.000753786 -5.62843e-07 2.80042e-09)
(0.000751883 -3.55331e-07 3.54691e-08)
(0.000750656 -8.92041e-08 1.24618e-08)
(0.000749621 3.34212e-08 5.76131e-08)
(0.000748603 -1.1382e-07 4.17594e-08)
(0.000746828 -3.39505e-07 2.95537e-08)
(0.0007452 -3.55101e-07 -4.10541e-11)
(-7.9394e-05 0.00395296 0.000123837)
(-0.00208573 -0.00484455 -8.36203e-05)
(-0.00320873 -0.00194664 -0.0002829)
(0.0190753 -0.0131885 0.00435351)
(-0.00093085 -0.0170019 0.00423861)
(0.00371459 -3.64417e-05 2.98946e-05)
(0.000588596 -1.89117e-05 5.03997e-07)
(0.000914987 -4.06618e-05 -1.62426e-06)
(0.000838732 -2.59481e-05 -3.94553e-07)
(0.000834211 -1.73954e-05 1.46355e-07)
(0.00081976 -1.12049e-05 1.83112e-08)
(0.000811502 -7.01311e-06 4.7323e-08)
(0.000805256 -4.40254e-06 4.22577e-08)
(0.000800704 -3.04739e-06 3.91174e-08)
(0.000797221 -1.86685e-06 4.22922e-08)
(0.00079445 -1.13658e-06 1.60187e-07)
(0.000792121 -6.3568e-07 4.72634e-08)
(0.000790355 -3.76366e-07 8.99204e-08)
(0.000788626 -2.18613e-07 -4.11093e-08)
(0.000786888 1.05893e-08 2.00403e-08)
(0.000785484 2.79065e-07 2.82364e-08)
(0.000783864 1.42039e-07 5.00975e-08)
(0.000782414 3.47295e-07 4.40879e-08)
(0.000781381 2.83599e-07 4.53667e-08)
(0.000779997 1.45457e-07 6.42805e-08)
(0.00077835 -5.93472e-08 5.88036e-08)
(0.000776813 -7.84172e-08 4.4626e-08)
(0.00077549 -1.54193e-07 4.24415e-08)
(0.00077398 -4.70012e-07 9.2387e-08)
(0.000772215 -4.30131e-07 1.43407e-09)
(0.000770919 -2.37969e-07 -1.36524e-07)
(0.000769565 5.90822e-08 2.27784e-08)
(0.000768653 9.03806e-07 1.05114e-07)
(0.000767805 4.57489e-07 2.80364e-07)
(0.00076612 2.06858e-07 4.53743e-08)
(0.000764579 1.93024e-08 2.44461e-08)
(0.00076328 1.85832e-07 4.19233e-08)
(0.000762065 3.4255e-07 5.17218e-08)
(0.000760224 6.11347e-07 6.90658e-08)
(0.000758502 2.27052e-07 2.31866e-08)
(0.000757379 9.69975e-08 2.13408e-08)
(0.000755788 8.31557e-10 6.09396e-08)
(0.00075446 -1.44874e-07 7.71516e-08)
(0.000753933 -6.94984e-07 6.19238e-08)
(0.000752787 -1.2344e-07 4.41263e-08)
(0.000751108 4.8093e-08 7.26103e-08)
(0.000749549 3.64766e-07 8.1401e-08)
(0.000748042 6.5697e-08 4.05947e-08)
(0.000746735 -1.32126e-07 6.41157e-08)
(0.000745757 -1.81968e-07 1.10865e-07)
(0.00137311 0.000947065 8.74497e-05)
(0.000247888 0.000258771 2.63347e-05)
(0.00177493 -0.00401137 -2.28171e-05)
(-0.0115271 0.0119303 0.000981274)
(0.00282156 0.00148281 0.000976029)
(0.00202965 -0.00170339 -0.000272775)
(0.000316609 -6.13478e-06 3.06839e-06)
(0.000902277 -1.7725e-05 -2.34382e-06)
(0.000853464 -2.99911e-06 -4.93931e-08)
(0.000838637 -4.54539e-08 1.21838e-07)
(0.000823205 1.06741e-06 4.50536e-08)
(0.000813454 1.09835e-06 5.36834e-08)
(0.000806463 8.39583e-07 4.25317e-08)
(0.000801472 5.74018e-07 4.53769e-08)
(0.000797673 4.08191e-07 4.60184e-08)
(0.000794848 2.57998e-07 3.076e-08)
(0.000792566 1.99286e-07 4.44994e-08)
(0.000790345 2.23733e-07 2.59128e-08)
(0.000788522 1.0994e-07 1.38036e-07)
(0.000787043 1.08658e-07 1.19961e-07)
(0.000785591 1.59528e-07 2.71556e-08)
(0.000784334 1.4337e-07 4.26389e-08)
(0.00078275 3.44302e-07 1.96993e-08)
(0.000780879 3.17799e-07 7.20752e-08)
(0.000779391 1.18544e-07 4.73402e-08)
(0.000778115 4.01111e-08 5.22155e-08)
(0.00077676 -2.36274e-08 2.49658e-08)
(0.000775162 -1.34593e-08 5.58271e-08)
(0.000773797 -7.06332e-08 6.66209e-09)
(0.000772939 3.20969e-07 8.12535e-08)
(0.00077168 5.06389e-07 1.54719e-07)
(0.000770765 6.37538e-07 5.23643e-08)
(0.000768914 7.88998e-07 2.23238e-08)
(0.000766642 4.14813e-07 4.42655e-08)
(0.000765608 2.05908e-07 8.92269e-08)
(0.000764425 1.54659e-07 6.07253e-08)
(0.000763128 7.30898e-08 6.89251e-08)
(0.000761745 -1.47926e-08 4.19973e-08)
(0.000760223 -1.20511e-07 2.57679e-08)
(0.000758734 1.088e-07 5.32196e-08)
(0.000757388 1.30813e-07 7.58784e-08)
(0.000755959 1.57952e-07 6.64255e-08)
(0.000754579 5.75825e-07 7.3727e-08)
(0.000753817 6.86115e-07 1.48679e-07)
(0.000752816 3.22874e-07 8.49638e-08)
(0.000751267 2.27982e-07 5.09245e-08)
(0.000749643 2.70168e-07 7.09012e-08)
(0.000747982 4.23494e-07 7.47895e-08)
(0.000746524 2.37786e-07 -1.24887e-08)
(0.000745589 1.32608e-07 1.17144e-07)
(-0.00108219 -0.00330513 -0.00074746)
(-0.00188045 -0.00522713 -0.000461871)
(0.000205316 0.000630988 7.81485e-06)
(-0.0012917 -0.000437181 -0.000255214)
(-0.00024506 0.00110158 -0.000210029)
(0.00110547 0.00117888 3.78801e-05)
(0.000560259 -0.000119878 4.22238e-05)
(0.00095238 4.55246e-05 -2.25191e-06)
(0.000860687 3.54882e-05 -4.65892e-07)
(0.000839216 2.32904e-05 4.83111e-08)
(0.000821135 1.53388e-05 3.79696e-09)
(0.00081118 9.9966e-06 2.69654e-08)
(0.000804577 6.13633e-06 4.09166e-08)
(0.000800149 4.01141e-06 4.27538e-08)
(0.000796816 2.72797e-06 4.03927e-08)
(0.000794183 1.8036e-06 4.12624e-08)
(0.000792074 1.04586e-06 4.49171e-08)
(0.000790241 6.56597e-07 5.34569e-08)
(0.000788481 5.05961e-07 4.68764e-08)
(0.000786949 6.24843e-08 2.28961e-08)
(0.000785526 1.66408e-07 7.22915e-08)
(0.000784093 3.17447e-08 4.71556e-08)
(0.00078263 -1.292e-07 2.4089e-08)
(0.000781096 -7.89408e-08 5.72555e-08)
(0.000779648 1.1961e-07 2.10953e-07)
(0.000778173 2.43187e-07 2.856e-08)
(0.000776746 3.46954e-07 6.15047e-08)
(0.000775431 4.82968e-07 5.41384e-08)
(0.000774396 7.918e-07 -4.07541e-08)
(0.000772933 6.34949e-07 3.48655e-08)
(0.000771309 3.17057e-07 7.40756e-08)
(0.000769912 3.29882e-07 2.68416e-09)
(0.000768368 -3.70024e-07 3.48954e-08)
(0.000767073 -8.56527e-08 4.31777e-08)
(0.000765793 6.14255e-08 6.13174e-08)
(0.000764412 5.06612e-08 4.22631e-08)
(0.000763068 1.86173e-08 3.96196e-08)
(0.000761823 -8.60309e-08 4.25521e-08)
(0.000760379 -1.80628e-07 1.34013e-08)
(0.000758816 -8.21358e-08 -7.05424e-08)
(0.00075744 9.71679e-08 6.06216e-08)
(0.000756342 1.97177e-07 7.97659e-08)
(0.000755117 3.69595e-07 9.5828e-08)
(0.000753612 6.24054e-07 -1.09302e-07)
(0.000752211 2.23443e-07 4.84431e-08)
(0.000751039 1.17345e-07 4.31617e-08)
(0.00074979 8.23449e-08 7.41748e-08)
(0.000747999 3.28817e-07 4.17945e-08)
(0.000746367 2.04338e-07 4.83315e-08)
(0.000745294 2.56318e-07 1.64144e-07)
(-0.00733955 -0.0103829 0.00149015)
(0.0277083 0.0115292 0.00959913)
(0.00166637 0.000821196 0.000112753)
(-0.00229518 0.00257622 0.000863049)
(-0.000815259 -0.0011624 -0.000180634)
(0.000220367 0.000489052 1.23867e-05)
(0.000847174 3.80323e-05 9.33847e-06)
(0.000833019 0.000114694 -3.28103e-06)
(0.000825293 7.11868e-05 8.47944e-08)
(0.000813206 4.19371e-05 1.26455e-08)
(0.000806432 2.56617e-05 4.64665e-08)
(0.000801852 1.56103e-05 5.84614e-08)
(0.000798918 9.91711e-06 3.00518e-07)
(0.000797172 5.97723e-06 4.91474e-08)
(0.000794888 3.45802e-06 2.38997e-08)
(0.000792729 2.07414e-06 3.04786e-08)
(0.000791122 1.34252e-06 4.45669e-08)
(0.000789663 7.4952e-07 4.10956e-08)
(0.000787776 5.45395e-07 6.22644e-08)
(0.000786617 6.70387e-07 1.40795e-07)
(0.000785553 1.63779e-07 6.2294e-08)
(0.000783965 2.4656e-07 5.68987e-08)
(0.000782613 9.97114e-08 7.46057e-08)
(0.000781192 1.02676e-07 9.04704e-08)
(0.000779794 7.95629e-08 6.50124e-08)
(0.000778397 6.53629e-08 6.13989e-08)
(0.000777056 2.05311e-07 6.36476e-08)
(0.000775712 3.14661e-07 6.23996e-08)
(0.00077398 4.14067e-07 2.41518e-08)
(0.000772338 2.65138e-07 1.29185e-07)
(0.000771293 6.23932e-08 5.74261e-08)
(0.000769903 -2.79328e-07 1.10873e-08)
(0.000768393 -4.5298e-08 4.30537e-07)
(0.000767182 2.66565e-09 5.03317e-08)
(0.000765779 -5.49042e-08 6.29693e-08)
(0.000764371 -8.82821e-08 4.66529e-08)
(0.000762957 -9.80743e-08 -6.32709e-08)
(0.000761498 -9.26749e-08 5.25223e-08)
(0.00076023 -1.67374e-07 4.29809e-08)
(0.000759082 -1.71963e-07 9.69364e-08)
(0.000757737 5.60865e-08 6.01759e-08)
(0.000756297 1.69532e-07 4.11817e-07)
(0.000755109 8.88215e-08 5.67399e-09)
(0.00075363 8.44984e-08 6.4309e-08)
(0.00075218 -6.21179e-08 4.60951e-08)
(0.00075109 -1.93317e-07 4.86639e-08)
(0.000749907 -5.22599e-07 8.60278e-09)
(0.000748133 -8.49449e-07 2.45312e-08)
(0.000746426 -2.74786e-07 5.93867e-08)
(0.000745016 4.19344e-08 5.01668e-08)
(0.0164463 0.00417991 -0.0115184)
(0.00227133 -0.0201597 0.000565792)
(-0.00439716 -0.0014568 0.000351163)
(0.0065464 -0.0230732 0.000809026)
(-0.00332682 -0.00154766 -0.00614701)
(-0.00198611 0.00150172 -0.000122601)
(0.000994703 0.000182031 1.22086e-06)
(0.000740011 0.000111276 -2.61322e-06)
(0.000768675 6.19929e-05 1.88045e-07)
(0.00078196 3.89757e-05 1.34592e-07)
(0.000788018 2.37895e-05 7.60572e-08)
(0.000791371 1.45843e-05 6.13134e-08)
(0.000792457 9.26931e-06 6.80266e-08)
(0.000792027 5.56934e-06 4.60696e-08)
(0.000791909 3.21442e-06 1.62835e-07)
(0.000791522 1.89949e-06 1.05974e-07)
(0.000790409 1.23373e-06 4.77556e-08)
(0.000789238 8.56449e-07 6.37136e-08)
(0.000788377 5.44629e-07 2.38667e-08)
(0.000786469 7.63071e-07 1.48394e-07)
(0.000784993 6.19243e-07 1.1638e-07)
(0.000784012 4.24966e-07 5.22084e-08)
(0.000782449 3.41606e-07 7.54474e-08)
(0.000781071 2.15611e-07 6.66602e-08)
(0.000779601 1.68575e-07 6.03442e-08)
(0.000778329 7.11286e-08 2.39588e-08)
(0.000777056 -6.90929e-08 3.61985e-08)
(0.000775689 -2.09577e-07 1.15382e-09)
(0.000774331 -9.9395e-08 2.16626e-08)
(0.000772491 -3.3224e-07 -6.71315e-08)
(0.000770629 -1.79642e-07 2.61302e-08)
(0.000769777 -1.29491e-07 1.53601e-07)
(0.000768722 -1.04493e-07 9.4495e-09)
(0.000767061 -8.48119e-08 -4.29206e-07)
(0.00076568 -1.71392e-07 -5.94263e-09)
(0.000764359 -6.9003e-08 4.85302e-08)
(0.000763064 -2.18868e-08 -3.85481e-09)
(0.000761738 1.10344e-07 4.71111e-08)
(0.000760281 1.92454e-07 6.21685e-08)
(0.000759096 1.81362e-07 5.88431e-08)
(0.000757866 1.68118e-07 7.46287e-08)
(0.000756382 4.0815e-07 2.59843e-07)
(0.000755009 2.67659e-07 4.3885e-08)
(0.000753424 4.28816e-08 5.63897e-08)
(0.000751865 -3.71001e-08 3.40466e-08)
(0.000750466 -1.8454e-07 4.4788e-08)
(0.000748974 -4.9947e-07 2.86337e-08)
(0.000748313 -7.30591e-07 6.81972e-08)
(0.000747482 -5.13293e-07 1.09851e-07)
(0.000745586 -3.25193e-07 1.2433e-07)
(0.00367464 0.00360114 -0.00247303)
(0.00277426 0.0244614 0.00143342)
(0.00362592 -0.0243133 0.00215484)
(-0.0164999 -0.00568121 0.000674211)
(0.000668796 0.00756488 0.000190518)
(0.00216281 -0.00398208 0.000621404)
(0.000380536 0.000107808 2.27202e-05)
(0.000745917 5.99786e-05 -1.57354e-06)
(0.000734926 3.2963e-05 -2.70333e-07)
(0.0007652 2.09562e-05 1.36443e-07)
(0.000775782 1.26218e-05 4.19105e-08)
(0.000783602 7.88248e-06 5.99955e-08)
(0.000787588 4.59678e-06 4.96434e-08)
(0.000789566 2.93489e-06 5.09277e-08)
(0.000790278 1.96532e-06 5.1686e-08)
(0.00079024 1.27236e-06 5.14618e-08)
(0.00078981 7.19695e-07 4.86206e-08)
(0.000788796 5.8212e-07 3.35259e-08)
(0.000787655 5.02155e-07 9.0777e-08)
(0.000786706 1.07993e-07 6.03178e-08)
(0.000785126 3.84516e-07 -2.09899e-08)
(0.000783615 1.57742e-07 4.15245e-08)
(0.000782349 1.78141e-07 1.94556e-08)
(0.000780973 8.84874e-08 4.04144e-08)
(0.000779612 2.4507e-07 1.80676e-09)
(0.0007781 4.67005e-08 6.34764e-08)
(0.000776706 -1.46705e-07 7.67231e-08)
(0.000775676 -3.0485e-07 7.13481e-08)
(0.00077383 -8.32993e-07 -5.69538e-08)
(0.000772241 -8.52462e-07 1.00443e-07)
(0.00077155 -5.21082e-07 2.08419e-08)
(0.000770001 -1.4607e-08 5.21947e-08)
(0.000768452 -8.72085e-09 6.15175e-08)
(0.0007671 -6.71056e-08 5.5126e-08)
(0.0007658 -7.49242e-09 1.69741e-07)
(0.000764559 4.11422e-08 1.97107e-07)
(0.000763181 6.56589e-08 4.89353e-08)
(0.000761765 2.5902e-08 7.05225e-08)
(0.000760317 4.39215e-08 3.54421e-08)
(0.00075905 2.07589e-07 -5.65841e-08)
(0.000758018 -1.75865e-08 4.02269e-08)
(0.00075642 -2.41734e-07 -2.86502e-08)
(0.000754651 -1.14355e-07 8.26709e-08)
(0.000753249 -2.7854e-07 5.28394e-08)
(0.000751896 -1.23223e-07 7.54923e-09)
(0.000750514 -3.55773e-08 4.89532e-08)
(0.000749228 -6.24608e-09 8.37743e-08)
(0.000748121 1.24769e-07 4.52741e-08)
(0.000746943 -2.82915e-07 -1.88656e-08)
(0.000746063 -3.25387e-07 5.25551e-08)
(0.0169084 0.0195754 -4.29029e-05)
(-0.0125007 0.000811562 -0.0010176)
(0.0502291 -0.0167717 0.00277418)
(0.00156288 -0.0142456 0.000956197)
(0.012707 -0.00689427 -0.0014312)
(-0.00241814 -0.00373528 0.000501248)
(0.00035033 7.61745e-05 3.38008e-05)
(0.000695652 -2.17293e-05 -1.51843e-06)
(0.00071967 -9.83666e-06 1.63963e-08)
(0.000756444 -6.34408e-06 1.6523e-07)
(0.000771617 -3.72863e-06 6.66127e-08)
(0.000781304 -2.23375e-06 6.57676e-08)
(0.00078625 -1.37656e-06 5.65157e-08)
(0.000788724 -8.73482e-07 5.03349e-08)
(0.000789821 -5.08405e-07 5.10005e-08)
(0.000789959 -3.51404e-07 4.93791e-08)
(0.000789541 -1.36828e-07 1.29258e-07)
(0.000788963 -1.92608e-07 6.66303e-08)
(0.000787782 -1.74632e-07 7.91182e-08)
(0.00078632 -1.18794e-07 1.57102e-08)
(0.000785055 -2.12129e-07 4.48204e-08)
(0.000783752 -8.37038e-08 4.67302e-08)
(0.000782362 -2.87768e-07 3.64564e-08)
(0.000781154 -2.26816e-07 4.38223e-08)
(0.000779548 -5.2258e-07 1.14751e-07)
(0.000777839 -3.13492e-07 4.60707e-08)
(0.000776618 -1.47974e-07 -2.37669e-07)
(0.000774835 -1.91666e-07 4.91222e-08)
(0.000773653 -3.59054e-07 1.48931e-07)
(0.000772888 2.03726e-07 6.68965e-08)
(0.000771681 2.60299e-07 9.23574e-08)
(0.00077042 -2.49097e-08 4.1451e-08)
(0.000768657 -2.21209e-08 4.19866e-08)
(0.000767064 9.9909e-08 4.68904e-08)
(0.000765816 6.33385e-08 6.28785e-08)
(0.000764451 -7.37495e-08 3.99821e-08)
(0.000763045 -1.79695e-07 5.57153e-08)
(0.000761711 -2.00106e-07 4.45008e-08)
(0.000760507 -7.5499e-08 4.22669e-08)
(0.000759019 -5.90327e-08 8.35921e-08)
(0.000757305 -1.38612e-07 5.15083e-08)
(0.000756262 -2.39089e-07 6.20666e-08)
(0.000754965 -1.77306e-07 2.61421e-08)
(0.000753415 -1.47141e-07 4.44277e-08)
(0.00075217 -1.5964e-07 6.36995e-08)
(0.000750614 1.83187e-08 4.60005e-08)
(0.000749176 3.89165e-07 4.07772e-08)
(0.000747969 2.94653e-07 5.32901e-08)
(0.000746929 2.14844e-07 -2.51404e-08)
(0.000746344 -8.09791e-08 5.86145e-08)
(-0.0237865 -0.00491282 0.00190625)
(-0.0234073 -0.00451609 0.00159183)
(-0.0103116 0.00263944 -0.00225977)
(0.000163351 -0.00514513 0.000219356)
(0.0218306 -0.0028965 0.000477532)
(0.0438888 -0.00726481 0.00113972)
(0.000289221 -0.000147915 -6.97008e-07)
(0.000739439 -9.24164e-05 -2.27408e-06)
(0.000754302 -5.26719e-05 -1.87453e-08)
(0.000772926 -3.10714e-05 1.0181e-07)
(0.000780981 -1.86958e-05 4.83381e-08)
(0.00078658 -1.12303e-05 5.33661e-08)
(0.000789313 -6.88307e-06 4.89419e-08)
(0.000790666 -4.51351e-06 5.15126e-08)
(0.00079094 -2.6778e-06 4.51688e-08)
(0.000790711 -1.52376e-06 9.53684e-08)
(0.000790013 -9.24754e-07 5.94373e-08)
(0.000788752 -7.17133e-07 4.8748e-07)
(0.000787749 -5.85297e-07 5.56868e-08)
(0.000786661 -2.77827e-07 2.83911e-08)
(0.000785172 -2.72298e-09 3.79979e-08)
(0.000783523 -3.2855e-07 7.55599e-08)
(0.000782172 -3.289e-07 2.52195e-08)
(0.000780684 -3.68208e-07 5.08632e-08)
(0.000779508 -4.97225e-07 -2.16133e-08)
(0.000778571 -3.68916e-07 6.01774e-08)
(0.000776861 -2.13731e-07 4.73707e-08)
(0.000775415 -9.03028e-08 5.32319e-08)
(0.000774325 2.8219e-07 7.88859e-08)
(0.000773015 3.41687e-07 -2.89335e-08)
(0.000771262 3.99331e-07 4.29313e-09)
(0.000769646 2.02991e-07 1.12858e-07)
(0.000768607 -1.1292e-07 9.30771e-09)
(0.000767206 -1.54867e-07 7.21146e-08)
(0.000765583 -1.72369e-07 1.24137e-07)
(0.000764256 -3.38284e-07 1.55754e-08)
(0.000763025 -1.83526e-07 -1.85253e-08)
(0.000761896 -2.42321e-07 5.83766e-08)
(0.000760494 -3.07689e-07 8.87632e-08)
(0.000758972 -3.2071e-07 3.92446e-08)
(0.000757794 -1.71964e-07 5.37167e-08)
(0.000756373 -5.54428e-08 1.77702e-08)
(0.000754768 1.32861e-07 3.19385e-08)
(0.000753272 7.07704e-08 3.86528e-08)
(0.000752104 2.17797e-07 5.89419e-08)
(0.000751199 9.01167e-08 5.17936e-08)
(0.000749572 2.25255e-07 2.53864e-08)
(0.000747901 4.15007e-07 4.4279e-08)
(0.000746473 6.59421e-07 -5.35644e-08)
(0.000745892 5.05946e-07 9.14862e-08)
(-0.0415048 -0.00288852 0.00293902)
(0.0216109 -0.00204698 -0.000412766)
(0.00506501 -0.0193726 0.00117213)
(0.00945863 -0.0124815 0.000416602)
(0.0031449 0.00379772 -0.000144789)
(0.00230266 0.00147501 -4.72423e-06)
(0.000493652 -7.79206e-05 -1.62765e-06)
(0.000830896 -9.36673e-05 -2.37272e-06)
(0.000796483 -6.16998e-05 -2.96268e-07)
(0.00079919 -3.85266e-05 6.11128e-08)
(0.000796586 -2.41947e-05 6.66754e-08)
(0.000796173 -1.53341e-05 3.90845e-08)
(0.00079471 -9.62654e-06 2.39667e-07)
(0.000794021 -5.65987e-06 7.43392e-08)
(0.000793583 -3.56713e-06 4.88492e-08)
(0.000792165 -2.2151e-06 4.58797e-08)
(0.000790559 -1.50708e-06 4.42572e-08)
(0.000789394 -9.44072e-07 6.70419e-08)
(0.000788336 -6.57345e-07 7.33594e-08)
(0.000787051 -7.17351e-07 -3.77727e-08)
(0.000784993 -8.52588e-07 1.29198e-08)
(0.000783347 -5.15047e-07 1.50835e-07)
(0.000782316 -2.71933e-07 5.35072e-08)
(0.000780947 -1.93453e-07 4.62292e-08)
(0.000779552 8.89384e-08 6.68393e-08)
(0.000778197 5.85237e-08 6.90426e-08)
(0.000776969 -5.14703e-08 4.48582e-08)
(0.000775456 7.24677e-08 3.92646e-08)
(0.000774191 1.36661e-07 7.2763e-08)
(0.000773032 -7.63044e-08 7.80631e-08)
(0.000771504 -1.59745e-07 1.1455e-07)
(0.000769779 -2.34564e-07 8.68747e-08)
(0.00076821 -4.07168e-07 1.37545e-08)
(0.000766991 -3.86933e-07 2.17733e-08)
(0.000765588 -1.6023e-07 4.7801e-08)
(0.000764438 7.2789e-08 4.59121e-08)
(0.000763166 -2.86819e-09 5.48358e-08)
(0.000761557 -1.66757e-07 6.5775e-08)
(0.000760412 -5.47674e-07 5.69932e-08)
(0.000759191 -2.67246e-07 5.80257e-08)
(0.000757639 -2.23672e-07 5.7803e-08)
(0.000756644 -3.67069e-07 8.85179e-08)
(0.000755123 -3.15074e-07 3.3328e-08)
(0.00075352 1.75189e-07 2.59241e-08)
(0.000752193 9.67368e-08 3.70169e-08)
(0.00075062 7.82638e-10 4.68141e-08)
(0.000749577 -3.36806e-07 6.83339e-08)
(0.000748506 4.14241e-08 4.95896e-08)
(0.000747027 2.26237e-07 -5.94035e-08)
(0.000744892 3.31822e-07 6.00879e-08)
(-0.00138849 -0.00236399 -0.00085761)
(0.0234872 -0.00198648 -0.00351037)
(-0.000389694 -0.00731474 0.00491226)
(-0.00788111 -0.00845692 -3.20445e-05)
(0.0153079 -0.00365126 -0.00374984)
(0.000745586 -0.00234591 0.000649518)
(0.00147084 -0.000171014 -1.03582e-06)
(0.0014743 -0.000103744 3.70562e-07)
(0.00137947 -7.64783e-05 3.36793e-07)
(0.00137133 -4.98754e-05 3.50518e-07)
(0.00135388 -3.23211e-05 3.81317e-07)
(0.00134458 -2.08845e-05 2.90969e-07)
(0.00133854 -1.32422e-05 2.61597e-07)
(0.00133302 -7.739e-06 3.67814e-07)
(0.00132792 -4.90109e-06 3.41923e-07)
(0.0013245 -3.21927e-06 6.29024e-07)
(0.00132156 -2.06165e-06 3.31838e-07)
(0.00131856 -1.25614e-06 2.35843e-07)
(0.00131553 -8.72192e-07 3.80691e-07)
(0.00131284 -9.30822e-07 3.62376e-07)
(0.00131109 -1.03477e-06 3.38048e-07)
(0.00130899 -2.52576e-07 3.72551e-07)
(0.00130619 -3.71661e-07 4.10921e-07)
(0.00130381 -1.62698e-07 2.81794e-07)
(0.00130156 1.92054e-07 2.31597e-07)
(0.00129913 4.66766e-07 2.17446e-07)
(0.00129664 3.60718e-07 2.85917e-07)
(0.00129461 1.66406e-07 3.23763e-07)
(0.00129196 3.44064e-07 3.47074e-07)
(0.00128936 -2.11685e-07 3.58849e-07)
(0.00128679 -8.54823e-07 3.5033e-07)
(0.00128388 -9.31986e-07 2.36586e-07)
(0.00128224 -9.58329e-07 3.12613e-07)
(0.00128078 -2.80204e-07 2.69776e-07)
(0.00127854 1.20121e-07 3.11829e-07)
(0.00127566 4.51369e-07 3.19593e-07)
(0.0012727 2.43031e-07 3.13112e-07)
(0.00127012 5.37102e-07 2.988e-07)
(0.00126862 9.36378e-07 2.79383e-07)
(0.00126696 3.73941e-07 3.74585e-07)
(0.00126418 4.34447e-08 2.7815e-07)
(0.00126177 -3.92933e-08 3.41388e-07)
(0.00126038 -1.04687e-06 3.5998e-07)
(0.0012576 -8.51338e-07 2.04078e-07)
(0.00125449 -5.76379e-07 3.20505e-07)
(0.0012524 -2.11658e-07 1.88476e-07)
(0.00125056 -8.30159e-09 2.7641e-07)
(0.00124883 -2.72311e-07 3.06572e-07)
(0.00124588 -5.78243e-07 3.12334e-07)
(0.00124313 -5.77072e-07 1.92792e-07)
(0.000308451 0.00632134 0.00012387)
(6.69328e-05 -0.00182126 -0.000216224)
(0.00600694 -0.00482303 -0.00248083)
(0.0322157 0.00113879 0.00465554)
(0.0051711 -0.0189851 -0.0263051)
(0.00293592 -0.000636992 -0.00345308)
(0.00180237 -3.89922e-05 -5.06998e-06)
(0.00153288 -5.67794e-05 3.61656e-07)
(0.0014016 -3.64536e-05 3.49887e-07)
(0.00139289 -2.47976e-05 3.46835e-07)
(0.0013685 -1.60728e-05 3.36976e-07)
(0.00135464 -1.0069e-05 3.37364e-07)
(0.00134423 -6.32164e-06 3.34401e-07)
(0.00133665 -4.43365e-06 3.32814e-07)
(0.00133086 -2.71217e-06 3.34662e-07)
(0.00132625 -1.67737e-06 8.22299e-07)
(0.00132238 -9.15685e-07 3.33811e-07)
(0.00131938 -5.59533e-07 3.94167e-07)
(0.00131644 -2.72007e-07 1.92426e-07)
(0.00131353 7.1675e-08 2.91503e-07)
(0.00131117 4.77196e-07 -6.42275e-08)
(0.00130844 2.57443e-07 3.62122e-07)
(0.00130595 6.38672e-07 3.01702e-07)
(0.00130423 5.47368e-07 5.50139e-07)
(0.0013019 3.03675e-07 3.19844e-07)
(0.00129905 -2.67295e-08 3.33415e-07)
(0.00129643 -7.73193e-08 4.63263e-07)
(0.00129423 -2.69316e-07 3.17805e-07)
(0.00129164 -9.08141e-07 3.77447e-07)
(0.00128864 -7.46766e-07 2.44276e-07)
(0.00128658 -4.38853e-07 5.07952e-08)
(0.0012844 3.09657e-08 2.70992e-07)
(0.00128273 1.46684e-06 3.30702e-07)
(0.00128125 8.86745e-07 6.73612e-07)
(0.00127848 3.56077e-07 3.25117e-07)
(0.00127577 1.24217e-08 2.45585e-07)
(0.00127352 2.85794e-07 3.144e-07)
(0.00127151 5.62194e-07 3.70757e-07)
(0.00126847 1.0139e-06 4.01667e-07)
(0.00126558 4.56352e-07 2.99405e-07)
(0.00126361 1.55613e-07 2.81752e-07)
(0.00126097 -4.31772e-08 3.52812e-07)
(0.00125878 -3.20087e-07 2.99316e-07)
(0.0012578 -1.12644e-06 3.66352e-07)
(0.00125582 -2.35835e-07 3.38654e-07)
(0.00125309 -1.92491e-08 3.28204e-07)
(0.00125053 5.46573e-07 4.01564e-07)
(0.00124801 7.78723e-08 2.9891e-07)
(0.00124577 -2.55938e-07 3.06173e-07)
(0.00124409 -3.21038e-07 4.04419e-07)
(0.00202855 0.00168022 0.000240765)
(0.0008856 5.00017e-06 0.00156772)
(0.00199028 -0.00330545 -0.000421491)
(0.000109485 -0.000821132 0.00184963)
(0.0211358 -0.0102384 -0.00377884)
(-0.00498481 0.0107788 -0.00344713)
(0.00157137 3.8076e-05 9.78046e-06)
(0.00149954 -1.76857e-05 3.75236e-07)
(0.00141974 1.53248e-06 5.41177e-07)
(0.00139687 3.60364e-06 3.4844e-07)
(0.00137234 3.90315e-06 3.4213e-07)
(0.0013568 3.09327e-06 3.37712e-07)
(0.00134561 2.15348e-06 3.3504e-07)
(0.00133755 1.41471e-06 3.33793e-07)
(0.00133137 9.57961e-07 3.32207e-07)
(0.00132675 5.95748e-07 3.16892e-07)
(0.00132297 4.16438e-07 3.3099e-07)
(0.00131936 3.92032e-07 2.91667e-07)
(0.00131632 1.60902e-07 4.66517e-07)
(0.00131377 1.71537e-07 4.16389e-07)
(0.00131132 2.656e-07 2.61158e-07)
(0.00130919 2.30317e-07 3.23639e-07)
(0.00130655 5.67049e-07 3.42557e-07)
(0.00130339 5.55261e-07 3.05184e-07)
(0.00130084 1.66133e-07 3.29359e-07)
(0.00129865 6.20958e-08 3.24623e-07)
(0.00129633 -1.82439e-08 1.23532e-07)
(0.00129357 1.63947e-08 3.2351e-07)
(0.00129137 -9.28292e-08 2.04242e-07)
(0.00128995 6.24557e-07 3.58795e-07)
(0.00128776 9.74978e-07 4.17668e-07)
(0.00128626 1.11932e-06 4.67064e-07)
(0.00128331 1.29165e-06 3.11479e-07)
(0.00127939 7.11397e-07 2.79751e-07)
(0.00127745 3.05516e-07 3.62583e-07)
(0.00127557 1.81379e-07 3.36511e-07)
(0.00127339 1.17598e-07 2.91707e-07)
(0.00127102 -1.19448e-08 3.0794e-07)
(0.00126848 -1.6866e-07 3.0151e-07)
(0.00126589 1.35614e-07 3.28087e-07)
(0.00126355 1.66727e-07 3.2813e-07)
(0.00126118 2.38074e-07 3.71933e-07)
(0.00125903 9.834e-07 4.76851e-07)
(0.00125771 1.11156e-06 3.55723e-07)
(0.00125588 6.05014e-07 3.37777e-07)
(0.00125338 4.42206e-07 3.09177e-07)
(0.00125068 4.78005e-07 3.70282e-07)
(0.00124783 6.76277e-07 3.41769e-07)
(0.0012454 3.62068e-07 2.23051e-07)
(0.00124385 2.11162e-07 5.02369e-07)
(0.000915057 0.00213918 -0.000336818)
(0.00258327 0.00143828 0.0442268)
(0.00139109 0.000194631 -6.92553e-05)
(-1.37218e-05 -0.00287813 0.00210312)
(0.000161107 -0.000818417 -0.00162984)
(0.000623339 0.00265462 0.00049035)
(0.00148787 -0.000166425 6.9904e-05)
(0.0015733 7.84504e-05 3.78935e-07)
(0.00142789 6.05489e-05 3.55879e-07)
(0.00139568 3.95879e-05 2.53744e-07)
(0.00136774 2.59802e-05 3.4081e-07)
(0.00135238 1.68928e-05 3.36675e-07)
(0.00134208 1.03732e-05 3.34667e-07)
(0.00133513 6.75284e-06 3.33073e-07)
(0.00132982 4.5756e-06 3.31233e-07)
(0.00132556 3.02142e-06 3.30068e-07)
(0.00132212 1.74815e-06 3.29821e-07)
(0.00131905 1.11254e-06 3.33089e-07)
(0.00131616 7.78662e-07 3.31567e-07)
(0.00131366 9.16303e-08 2.87792e-07)
(0.00131124 2.21816e-07 3.63216e-07)
(0.00130882 7.69375e-09 3.29308e-07)
(0.00130635 -2.69662e-07 3.10725e-07)
(0.00130372 -1.8127e-07 3.81637e-07)
(0.00130128 1.33033e-07 5.37832e-07)
(0.00129882 3.67924e-07 2.65414e-07)
(0.00129638 5.67877e-07 3.896e-07)
(0.00129414 8.50548e-07 3.82074e-07)
(0.00129239 1.45373e-06 2.56103e-07)
(0.00128997 1.17037e-06 2.98321e-07)
(0.00128719 6.93617e-07 3.65207e-07)
(0.00128478 7.14853e-07 2.69154e-07)
(0.00128221 -4.82932e-07 3.22135e-07)
(0.00128001 -1.77791e-07 3.17773e-07)
(0.00127782 1.10836e-07 3.38904e-07)
(0.00127554 9.9721e-08 2.94815e-07)
(0.00127328 1.02863e-08 3.06049e-07)
(0.00127115 -1.63543e-07 3.33485e-07)
(0.00126865 -3.76746e-07 1.90193e-07)
(0.001266 -2.07196e-07 3.07003e-08)
(0.00126374 1.54023e-07 3.2469e-07)
(0.00126198 4.23291e-07 3.445e-07)
(0.00125986 7.07357e-07 5.10864e-07)
(0.00125732 1.01613e-06 -3.16872e-08)
(0.00125498 3.54168e-07 3.45951e-07)
(0.00125292 1.93406e-07 3.12975e-07)
(0.00125081 9.21608e-08 3.62137e-07)
(0.00124786 4.73891e-07 3.0513e-07)
(0.00124518 3.44256e-07 3.6872e-07)
(0.00124338 4.2504e-07 5.33618e-07)
(-0.0126178 -0.0243105 0.0456294)
(0.0783385 0.00916132 0.00539901)
(-0.00612129 0.00234097 -0.00458252)
(0.00120905 0.00185941 0.000503778)
(-0.000471466 -0.00279801 -0.000588192)
(0.000484411 0.00120626 0.000150832)
(0.000974051 9.58854e-05 -1.71806e-05)
(0.00137835 0.000182875 3.56437e-07)
(0.00137053 0.000113875 3.04883e-07)
(0.00135325 6.71504e-05 4.13804e-07)
(0.00134371 4.11401e-05 3.44799e-07)
(0.00133713 2.50175e-05 5.10376e-07)
(0.00133283 1.59167e-05 5.64677e-07)
(0.00133024 9.58556e-06 3.32488e-07)
(0.00132667 5.54355e-06 2.90277e-07)
(0.00132319 3.31722e-06 3.41686e-07)
(0.00132056 2.15067e-06 3.29523e-07)
(0.00131814 1.18624e-06 3.24744e-07)
(0.00131503 8.92151e-07 3.22709e-07)
(0.00131307 1.07356e-06 4.51534e-07)
(0.00131122 2.6962e-07 3.63005e-07)
(0.00130858 3.93984e-07 5.7233e-07)
(0.00130632 1.53855e-07 3.46191e-07)
(0.0013039 1.37304e-07 3.71989e-07)
(0.00130153 1.33449e-07 2.47907e-07)
(0.00129919 6.37836e-08 3.60983e-07)
(0.00129693 3.15668e-07 3.77353e-07)
(0.00129467 5.03941e-07 3.32581e-07)
(0.00129176 6.93213e-07 2.93434e-07)
(0.00128899 4.51801e-07 4.25272e-07)
(0.00128718 1.40423e-07 3.48253e-07)
(0.00128478 -4.41775e-07 2.82506e-07)
(0.00128219 -5.25192e-08 1.34365e-06)
(0.00128013 -2.4889e-08 3.24863e-07)
(0.00127779 -7.36218e-08 3.4985e-07)
(0.00127544 -1.49264e-07 3.17683e-07)
(0.00127306 -2.14781e-07 -7.82477e-08)
(0.00127054 -2.00532e-07 3.1514e-07)
(0.00126843 -3.2518e-07 3.1197e-07)
(0.00126655 -2.78683e-07 3.23703e-07)
(0.00126434 1.27049e-07 3.25042e-07)
(0.00126187 3.49451e-07 1.09797e-06)
(0.00125977 1.35226e-07 1.26885e-07)
(0.00125726 1.13921e-07 2.57002e-07)
(0.00125485 -1.84426e-07 3.1058e-07)
(0.00125305 -3.62153e-07 3.12044e-07)
(0.00125103 -8.97421e-07 9.70311e-08)
(0.00124814 -1.36871e-06 2.83727e-07)
(0.00124532 -4.64546e-07 3.509e-07)
(0.00124289 8.26289e-08 3.23032e-07)
(0.00138845 0.033092 -0.0271703)
(-0.00950654 -0.00598725 -0.0108847)
(0.016847 0.00104922 0.00132205)
(-0.00869024 -0.00942049 4.13219e-05)
(-0.0355155 0.00353112 0.0562744)
(-0.00405156 0.00115948 -0.000733949)
(0.00071858 0.000738264 -2.42594e-05)
(0.0012347 0.000173399 3.50549e-07)
(0.00128147 9.57301e-05 2.61536e-07)
(0.00130423 6.03643e-05 3.85105e-07)
(0.00131476 3.68469e-05 2.88675e-07)
(0.00132065 2.25913e-05 2.99087e-07)
(0.00132267 1.43733e-05 3.68721e-07)
(0.00132209 8.632e-06 3.30859e-07)
(0.00132194 4.95987e-06 6.45518e-07)
(0.0013213 2.92095e-06 4.04547e-07)
(0.00131944 1.9033e-06 3.29769e-07)
(0.00131747 1.31276e-06 3.69302e-07)
(0.00131601 8.49494e-07 3.02185e-07)
(0.00131287 1.19825e-06 4.98561e-07)
(0.00131039 9.72892e-07 4.55374e-07)
(0.00130867 6.95286e-07 3.29507e-07)
(0.00130603 5.57372e-07 3.18552e-07)