/*--------------------------------*- C++ -*----------------------------------*\
| =========                 |                                                 |
| \\      /  F ield         | OpenFOAM: The Open Source CFD Toolbox           |
|  \\    /   O peration     | Version:  5.0                                   |
|   \\  /    A nd           | Web:      www.OpenFOAM.org                      |
|    \\/     M anipulation  |                                                 |
\*---------------------------------------------------------------------------*/
FoamFile
{
    version     2.0;
    format      ascii;
    class       volVectorField;
    location    "0.6";
    object      U_0;
}
// * * * * * * * * * * * * * * * * * * * * * * * * * * * * * * * * * * * * * //

dimensions      [0 1 -1 0 0 0 0];

internalField   nonuniform List<vector> 
8192
(
(-0.00123977 0.000894635 -0.000217995)
(0.00984114 0.00738111 0.000334018)
(0.00562032 0.0048098 -0.000859102)
(-0.00883564 -0.00427317 -0.000401009)
(0.00798729 0.000846875 0.000439803)
(0.000792716 -0.000564672 2.59344e-05)
(0.000515823 -7.27959e-05 -1.614e-06)
(0.000923324 -4.92268e-05 -2.14092e-06)
(0.000851907 -3.41199e-05 -3.92429e-07)
(0.000842432 -2.12739e-05 1.10969e-07)
(0.000828767 -1.3422e-05 6.99078e-08)
(0.00082133 -8.52321e-06 7.03648e-08)
(0.000816454 -5.29435e-06 -3.17127e-09)
(0.000812338 -2.94841e-06 7.49822e-08)
(0.000808796 -1.86157e-06 4.88018e-08)
(0.000806365 -1.22891e-06 8.10892e-08)
(0.00080433 -7.14664e-07 5.10177e-08)
(0.000802219 -2.60191e-07 7.49355e-08)
(0.000800063 -1.90557e-07 6.10913e-08)
(0.000798495 -2.52208e-07 1.10703e-07)
(0.000797008 -2.29558e-07 5.20567e-08)
(0.000795302 -5.16771e-08 5.97061e-08)
(0.000793702 -1.03984e-07 2.2116e-08)
(0.000792171 -5.68787e-08 4.6585e-08)
(0.00079044 1.30916e-07 4.12539e-08)
(0.000788786 2.73091e-07 2.48935e-08)
(0.000787349 2.02573e-07 6.02657e-08)
(0.000785971 1.18253e-07 5.24604e-08)
(0.000783991 3.10081e-07 6.87013e-08)
(0.000782108 -1.45351e-07 7.74447e-08)
(0.000780776 -5.51658e-07 -5.29198e-08)
(0.000779125 -4.50719e-07 5.92675e-08)
(0.000777465 -2.05916e-07 -1.66853e-08)
(0.000776335 -2.40384e-07 5.292e-08)
(0.000775123 1.09516e-07 6.22236e-08)
(0.000773372 3.0165e-07 5.43341e-08)
(0.000771473 6.096e-08 1.32494e-07)
(0.00076974 1.51427e-07 4.59958e-08)
(0.000768312 3.55528e-07 -3.39075e-08)
(0.000767172 4.19266e-07 5.85823e-08)
(0.000765902 1.2345e-07 3.02844e-08)
(0.000764273 -1.71698e-08 7.49463e-08)
(0.000763006 -2.10572e-07 9.08287e-08)
(0.000761426 -2.3257e-07 2.68609e-07)
(0.000759791 -1.6803e-07 3.32808e-08)
(0.000758397 -1.86957e-07 2.61558e-08)
(0.00075702 -2.82599e-07 6.07293e-08)
(0.000755646 -5.57841e-07 4.22675e-08)
(0.000754119 -4.58351e-07 3.36148e-08)
(0.000752531 -2.58532e-07 7.53643e-08)
(-7.15299e-05 0.00349425 0.00011721)
(-0.00168201 -0.00480635 -9.57083e-05)
(-0.00127309 -0.000790658 -0.000307619)
(0.018643 -0.0108807 0.00582093)
(-0.00338734 -0.016224 0.0033566)
(0.00449279 -0.000190095 0.000119607)
(0.000655462 2.26904e-06 6.3963e-07)
(0.000951413 8.343e-07 -1.73626e-06)
(0.000858736 -4.47556e-07 -5.02988e-07)
(0.00084976 -1.87478e-06 1.22463e-07)
(0.000833503 -1.64949e-06 -2.11429e-08)
(0.00082461 -1.1445e-06 4.63407e-08)
(0.000818104 -7.68242e-07 4.46205e-08)
(0.000813397 -7.62691e-07 4.39234e-08)
(0.000809786 -4.32054e-07 4.67597e-08)
(0.000806938 -2.66059e-07 -2.22667e-09)
(0.000804544 -7.53794e-08 5.07262e-08)
(0.000802446 -4.88693e-08 5.11723e-08)
(0.000800514 2.02977e-07 6.20455e-08)
(0.000798618 2.30422e-07 2.30116e-08)
(0.000796985 2.6626e-07 9.26096e-08)
(0.000795285 2.03758e-07 6.69498e-08)
(0.000793543 3.84294e-07 9.21337e-08)
(0.000792262 3.13334e-07 3.66859e-08)
(0.00079073 8.3512e-08 -1.38695e-08)
(0.000788864 5.68708e-09 1.24752e-07)
(0.000787156 -7.88907e-08 3.30032e-08)
(0.000785757 -2.28994e-07 5.08502e-08)
(0.000783844 -8.44818e-07 1.13458e-08)
(0.000781718 -4.8225e-07 5.67698e-08)
(0.00078053 -3.98618e-07 1.34889e-07)
(0.000779427 -1.93018e-07 4.94734e-08)
(0.000777774 3.43113e-07 2.10761e-07)
(0.000776655 8.33335e-07 1.43914e-07)
(0.000775313 1.03223e-07 4.83793e-08)
(0.000773127 -1.35945e-07 6.0191e-08)
(0.000771526 -6.03536e-08 5.50565e-08)
(0.000770205 1.25477e-07 4.98621e-08)
(0.000768634 2.87884e-07 2.27731e-08)
(0.000766987 4.19239e-07 4.76406e-09)
(0.000765356 -1.08863e-08 4.78673e-08)
(0.00076388 -2.16183e-07 6.68389e-08)
(0.000762585 -5.58811e-07 2.30648e-08)
(0.000761404 -3.76356e-07 1.90304e-08)
(0.000759979 -1.26273e-07 6.00012e-08)
(0.000758425 -1.3474e-07 5.65974e-08)
(0.000757024 4.7985e-08 9.6128e-08)
(0.000755679 -1.01713e-07 4.49261e-08)
(0.000754078 -1.91145e-07 -1.70756e-08)
(0.000753045 -2.1804e-07 2.36006e-08)
(0.00200871 -0.000363972 6.02127e-05)
(0.0010214 0.000648836 3.71842e-06)
(0.00187102 -0.00343935 -2.68029e-05)
(-0.010355 0.00991002 0.000966019)
(0.00305671 0.00167028 0.00123176)
(0.00244445 -0.000194797 -0.000198108)
(0.000304704 4.39563e-05 3.61342e-06)
(0.000884567 2.85055e-05 -2.44689e-06)
(0.000848465 2.2315e-05 -3.22069e-08)
(0.000840913 1.40582e-05 1.14955e-07)
(0.000829676 9.17088e-06 4.73972e-08)
(0.00082243 5.87146e-06 7.08303e-08)
(0.000816931 3.67408e-06 4.85661e-08)
(0.000812759 2.28839e-06 5.02666e-08)
(0.000809418 1.46085e-06 5.08114e-08)
(0.000806811 9.18212e-07 -7.85197e-08)
(0.000804602 5.42744e-07 5.03969e-08)
(0.000802567 3.50162e-07 -1.50746e-08)
(0.000800412 1.73732e-07 -3.59423e-08)
(0.000798572 1.87531e-07 4.75012e-08)
(0.000796973 2.64148e-07 3.1348e-08)
(0.000795446 1.67664e-07 4.72504e-08)
(0.000793836 2.63036e-07 5.44821e-08)
(0.000791792 2.64632e-07 -6.71265e-08)
(0.000790054 2.05274e-08 4.63941e-08)
(0.000788581 -3.84646e-08 3.91557e-08)
(0.000787056 -9.50083e-08 6.04399e-08)
(0.000785016 -7.36058e-08 6.21947e-08)
(0.000783679 -1.28043e-07 -1.1126e-07)
(0.000782671 4.226e-07 6.84551e-08)
(0.000781141 7.78679e-07 9.8021e-08)
(0.000780052 7.51337e-07 6.74647e-08)
(0.000778745 6.6036e-07 2.13473e-07)
(0.00077603 5.8219e-07 -7.75772e-09)
(0.000773908 7.41258e-08 8.99163e-08)
(0.000773167 -6.59125e-08 5.72974e-08)
(0.000771799 4.50031e-08 6.4234e-08)
(0.000770173 4.14806e-09 5.94781e-08)
(0.000768676 8.43933e-08 4.47837e-08)
(0.000766795 -9.64868e-08 2.89052e-08)
(0.000765107 -1.00873e-07 3.55332e-08)
(0.00076359 -1.01424e-07 6.23507e-08)
(0.00076281 4.33745e-07 3.4935e-08)
(0.00076197 1.92633e-07 7.9722e-08)
(0.000760096 6.805e-08 7.93393e-08)
(0.000758616 1.35409e-07 1.20502e-07)
(0.000757062 2.80741e-07 1.48011e-07)
(0.000755347 1.48947e-07 7.39149e-08)
(0.00075398 8.98338e-08 5.0028e-08)
(0.00075304 7.72622e-08 6.90748e-08)
(0.00120609 -0.00501754 -0.000281338)
(0.00164036 -0.00369872 0.000441928)
(0.000121603 0.000969913 2.09153e-05)
(-0.00130245 -0.00151424 -0.000331127)
(-0.000602291 0.00104407 -0.000172921)
(0.000795724 0.00122792 3.45749e-05)
(0.000512769 -0.000101008 3.99272e-05)
(0.000903627 5.46028e-05 -1.99904e-06)
(0.000840455 4.10321e-05 -3.84533e-07)
(0.000833173 2.64696e-05 1.21584e-07)
(0.000823171 1.71736e-05 3.12199e-08)
(0.000817677 1.10563e-05 2.95587e-08)
(0.000813586 6.78137e-06 4.72052e-08)
(0.000810606 4.35784e-06 4.93729e-08)
(0.000808058 2.92797e-06 4.63254e-08)
(0.000805781 1.89602e-06 4.53845e-08)
(0.000803828 1.03101e-06 5.10329e-08)
(0.000801982 5.69613e-07 1.08239e-07)
(0.000800309 2.08038e-07 4.30102e-08)
(0.00079873 2.44858e-08 4.84096e-08)
(0.000796959 -2.39027e-08 7.44018e-08)
(0.000795282 -1.20833e-07 5.08064e-08)
(0.000793662 -2.56981e-07 1.75374e-08)
(0.000791957 -1.97493e-07 6.05058e-08)
(0.00079035 -2.20349e-08 1.58854e-09)
(0.00078872 1.70862e-07 3.25368e-08)
(0.000787112 2.71818e-07 6.29468e-08)
(0.000785716 3.82847e-07 8.29686e-08)
(0.000784462 9.6868e-07 6.58246e-08)
(0.000782848 7.52113e-07 2.46124e-08)
(0.000780935 7.6094e-07 1.87589e-08)
(0.000779272 6.77323e-07 -1.50394e-08)
(0.000777557 -1.60869e-07 2.47174e-08)
(0.000775918 -4.4068e-07 4.57241e-08)
(0.000774502 4.13923e-08 5.22113e-08)
(0.000773091 1.35487e-07 8.07446e-08)
(0.000771614 3.24108e-08 4.58365e-08)
(0.000770254 -7.49753e-08 5.06239e-08)
(0.000768508 -3.80041e-07 -7.60761e-09)
(0.000766756 -2.69176e-07 6.20999e-08)
(0.00076535 9.50979e-08 5.523e-08)
(0.000764547 3.85749e-07 3.02026e-08)
(0.000762949 6.47042e-07 6.37853e-08)
(0.000760943 2.77372e-07 2.12377e-08)
(0.000759904 -3.90423e-08 4.70592e-08)
(0.000758688 -7.92427e-10 4.26305e-08)
(0.000757038 -6.7679e-08 8.00941e-08)
(0.000755439 5.39433e-08 3.25896e-08)
(0.000753985 2.41447e-07 3.92902e-08)
(0.000752836 2.21883e-07 4.47167e-08)
(-0.0125643 -0.00766389 0.00239804)
(0.0107362 0.00443133 0.0126358)
(0.00223474 4.3265e-05 0.00042253)
(-0.0021729 0.00381438 0.000521253)
(-0.00181119 -0.000945438 -0.000131191)
(-0.000192475 0.000365871 2.15133e-05)
(0.000784865 5.37114e-07 3.35823e-06)
(0.000803649 8.35846e-05 -2.71187e-06)
(0.00081289 5.40406e-05 1.28468e-07)
(0.000810836 3.2359e-05 5.50665e-08)
(0.00081025 2.01063e-05 4.8505e-08)
(0.00080934 1.22916e-05 4.14036e-08)
(0.000808495 7.85198e-06 1.18205e-07)
(0.000807903 4.70728e-06 5.44899e-08)
(0.000806315 2.63177e-06 3.52231e-08)
(0.000804424 1.51193e-06 2.64628e-08)
(0.000802934 1.00185e-06 5.07025e-08)
(0.000801533 5.15745e-07 4.88901e-08)
(0.000799728 3.88688e-07 1.98758e-07)
(0.000798281 3.21425e-07 -4.47893e-08)
(0.000796792 4.26346e-08 6.44228e-08)
(0.000795157 1.94539e-07 3.1343e-08)
(0.000793742 6.19628e-08 2.36251e-07)
(0.000792087 7.9952e-08 9.64454e-08)
(0.000790514 1.08033e-07 7.12071e-08)
(0.000788948 8.04729e-08 6.5808e-08)
(0.000787318 1.66239e-07 6.8176e-08)
(0.000785882 1.77323e-07 3.33798e-08)
(0.000784133 1.27501e-07 9.4561e-09)
(0.000782403 4.46612e-08 2.14766e-08)
(0.00078104 9.58424e-08 5.46667e-08)
(0.000778895 -3.54632e-07 7.32593e-08)
(0.000777346 -2.70256e-07 7.29017e-08)
(0.000776284 -1.36826e-07 5.48041e-08)
(0.000774629 -7.17049e-08 5.16285e-08)
(0.000773155 -1.29019e-07 4.50113e-08)
(0.000771536 -2.26816e-07 2.29608e-08)
(0.000769658 -1.78555e-07 4.74019e-08)
(0.000768436 -2.43116e-07 1.17454e-07)
(0.000767391 -6.93516e-09 -1.64008e-08)
(0.000765925 2.04526e-07 5.64135e-08)
(0.000764277 5.05383e-07 1.58691e-07)
(0.00076267 1.17841e-07 5.73811e-08)
(0.000761109 1.45333e-07 4.26865e-08)
(0.000759746 1.0894e-07 4.42077e-08)
(0.00075858 -1.32403e-07 4.78416e-08)
(0.00075713 -4.479e-07 -3.36555e-08)
(0.000755733 -3.74884e-07 -5.67047e-08)
(0.000754183 -3.12097e-07 4.49398e-09)
(0.000752463 9.74352e-08 9.41535e-08)
(0.0142526 0.00271124 -0.00970172)
(0.0042685 -0.00565989 0.000208807)
(-0.00489395 -0.0026023 0.000261868)
(0.0088087 -0.0246683 0.000476992)
(-0.00457115 -0.00157799 -0.00260638)
(-0.000760911 0.000665225 -6.68593e-05)
(0.00101563 0.000114125 2.43568e-06)
(0.000750817 6.85786e-05 -2.55195e-06)
(0.000775395 3.55973e-05 1.87536e-08)
(0.000790483 2.31282e-05 1.14722e-07)
(0.000797924 1.41412e-05 8.47011e-08)
(0.000802258 8.70357e-06 1.60621e-07)
(0.000804045 5.60022e-06 7.01604e-08)
(0.000804043 3.30145e-06 5.04172e-08)
(0.000804042 1.75144e-06 7.91522e-08)
(0.000803731 9.63713e-07 7.8971e-08)
(0.000802575 6.47173e-07 5.32775e-08)
(0.000801211 4.17008e-07 6.74447e-08)
(0.000800062 2.37879e-07 2.38953e-08)
(0.000798295 4.00143e-07 9.41887e-08)
(0.000796798 3.5975e-07 -1.73246e-07)
(0.000795305 3.31008e-07 1.52232e-07)
(0.000793518 2.61516e-07 1.57597e-07)
(0.000792014 1.2858e-07 7.54036e-08)
(0.00079035 1.26047e-07 6.24096e-08)
(0.000788792 3.05243e-08 6.45946e-08)
(0.000787232 -8.39397e-08 3.9396e-08)
(0.000785666 -1.8572e-07 1.00899e-08)
(0.000784295 -2.22496e-07 7.4978e-08)
(0.000782806 -4.20364e-07 2.56999e-08)
(0.000780435 -6.96645e-07 -3.53559e-09)
(0.000778815 -5.15166e-07 -1.52096e-08)
(0.000777831 -1.13942e-07 1.28969e-08)
(0.000776167 -1.87552e-07 6.15639e-08)
(0.000774512 -1.55006e-07 -2.84469e-08)
(0.000772898 -1.15595e-07 1.031e-07)
(0.000771553 -6.42457e-08 8.06817e-08)
(0.000770236 1.33365e-07 5.61435e-08)
(0.000768724 3.39004e-07 1.1959e-07)
(0.000767316 1.63224e-07 6.99353e-08)
(0.000765989 2.11939e-07 2.00878e-08)
(0.000764437 1.5722e-07 -2.26106e-08)
(0.000762498 1.61367e-07 3.29085e-08)
(0.000760933 5.88622e-08 3.8585e-08)
(0.000759557 1.89152e-07 3.3717e-08)
(0.000757995 -8.28887e-08 4.7082e-08)
(0.000756739 -4.05515e-07 -3.64657e-08)
(0.000755612 -4.89065e-07 6.21233e-08)
(0.000754576 -4.26021e-07 7.19359e-08)
(0.000753104 -1.64946e-07 1.73767e-07)
(0.00500183 0.003265 -0.00295965)
(-0.000509521 0.0189824 0.000147428)
(0.00439047 -0.0270579 0.00193376)
(-0.0174022 -0.004537 -0.00109655)
(0.000439027 0.00520906 1.70698e-05)
(0.00177237 -0.0042488 0.000551321)
(0.000398609 9.35325e-05 2.75182e-05)
(0.000779993 2.19994e-05 -1.50638e-06)
(0.000756223 8.54208e-06 -4.13937e-07)
(0.000783885 5.72995e-06 1.2969e-07)
(0.000792131 3.10528e-06 3.625e-08)
(0.000798607 1.93718e-06 6.14312e-08)
(0.000801707 9.35461e-07 5.36871e-08)
(0.00080307 6.40964e-07 5.59319e-08)
(0.00080338 5.43841e-07 5.8052e-08)
(0.000803037 4.17602e-07 5.58148e-08)
(0.000802246 2.33402e-07 5.30358e-08)
(0.000801018 2.12287e-07 4.03901e-08)
(0.000799704 2.67085e-07 5.11854e-08)
(0.00079843 1.1348e-07 5.67067e-08)
(0.000796702 1.60025e-07 4.46376e-08)
(0.000795031 -5.12207e-08 4.64738e-08)
(0.000793487 8.63911e-08 -3.75794e-09)
(0.000791916 -2.98579e-08 5.89495e-08)
(0.000790391 -2.62448e-09 2.32901e-08)
(0.000788685 1.06343e-07 1.70016e-07)
(0.000787049 -1.00249e-07 5.73565e-08)
(0.00078571 -1.41753e-07 8.31983e-08)
(0.000783843 -4.9996e-07 5.88846e-08)
(0.000781815 -8.23331e-07 1.64587e-08)
(0.000780926 -7.1437e-07 1.35433e-07)
(0.000779628 -1.86892e-07 1.10891e-07)
(0.000777758 -1.43091e-07 5.40764e-08)
(0.000776235 -1.48859e-07 -4.50909e-08)
(0.00077472 -8.43764e-08 8.11791e-08)
(0.00077327 1.01794e-07 3.49456e-08)
(0.000771847 9.41751e-08 4.73854e-08)
(0.000770162 4.18752e-08 8.50394e-08)
(0.000768472 1.46468e-07 5.28437e-08)
(0.000767231 3.04315e-07 9.64827e-09)
(0.000765916 1.81088e-08 4.30042e-08)
(0.000764212 -2.21355e-07 5.67961e-09)
(0.000762546 -2.95022e-07 -1.09966e-08)
(0.000761143 -1.53283e-07 5.03445e-08)
(0.00075957 -1.89435e-07 2.77145e-09)
(0.000757838 -1.42693e-08 4.89946e-08)
(0.000756626 1.99658e-08 9.35949e-08)
(0.000755712 -2.88008e-07 7.10388e-08)
(0.000754597 -1.45555e-07 1.05745e-07)
(0.0007532 -3.0812e-07 7.53161e-08)
(0.000577696 0.0189981 0.000904403)
(0.0114707 0.00523491 0.000622926)
(0.0238494 -0.00308772 0.00273498)
(0.00184951 -0.0159428 0.00106702)
(0.0128102 -0.00640683 -0.00126433)
(-0.00288514 -0.00453585 0.000447202)
(0.000406337 6.5616e-05 3.66304e-05)
(0.000751965 -3.95203e-05 -1.2513e-06)
(0.000755101 -2.24058e-05 -5.98153e-08)
(0.000783703 -1.4731e-05 1.98435e-07)
(0.000793188 -9.27063e-06 7.13335e-08)
(0.000799549 -5.84001e-06 7.07701e-08)
(0.000802426 -3.69483e-06 6.16549e-08)
(0.000803555 -2.34006e-06 5.59887e-08)
(0.000803762 -1.3908e-06 5.68768e-08)
(0.000803342 -9.17421e-07 5.43195e-08)
(0.000802317 -5.88711e-07 1.2161e-07)
(0.000801251 -3.88237e-07 7.30604e-08)
(0.000799937 -3.77982e-07 8.12946e-08)
(0.00079816 -3.43621e-07 1.1565e-07)
(0.000796592 -3.44676e-07 5.05885e-08)
(0.000795212 -1.84689e-07 5.82664e-08)
(0.000793545 -3.19556e-07 3.39557e-08)
(0.000791903 -1.72247e-07 5.04693e-08)
(0.00079052 -3.36138e-07 4.42876e-08)
(0.00078867 -3.31829e-07 5.06354e-08)
(0.000786923 -5.68548e-08 1.40285e-09)
(0.000785169 -9.7973e-08 3.12167e-08)
(0.000783448 -2.3874e-07 4.90895e-08)
(0.000782545 2.74894e-07 6.56525e-08)
(0.000781236 4.45659e-07 9.09785e-08)
(0.000779532 1.5562e-07 5.67568e-08)
(0.00077788 2.17998e-07 5.06948e-08)
(0.000776241 8.21319e-08 4.91443e-08)
(0.000774826 -4.95836e-10 5.07289e-08)
(0.000773121 -8.36954e-08 5.1708e-08)
(0.000771478 -2.29316e-07 5.80321e-08)
(0.000770301 -2.44437e-07 2.10206e-09)
(0.000769051 6.03669e-08 4.07833e-08)
(0.000767155 1.42441e-07 7.41074e-08)
(0.000765332 -7.78172e-08 1.71424e-07)
(0.000764047 -1.45141e-07 5.00231e-08)
(0.000762585 -1.85527e-07 6.47573e-09)
(0.000761066 -1.82404e-07 5.00385e-08)
(0.000759733 -1.47851e-07 6.17882e-08)
(0.000758258 5.96245e-08 4.59644e-08)
(0.000756398 4.05075e-07 5.22371e-08)
(0.000755407 5.53678e-07 7.18918e-08)
(0.00075456 8.6451e-08 6.30393e-09)
(0.00075367 -7.71613e-08 4.4281e-09)
(-0.0273315 -0.0076698 0.0027389)
(-0.0204147 -0.00243759 0.000574076)
(-0.0201858 0.00109577 -0.00200684)
(-0.00101508 -0.00458998 -0.000471356)
(0.014254 -0.00367755 -0.000640873)
(0.0337221 -0.00836918 0.00117996)
(0.000358128 -0.000112912 -5.18272e-07)
(0.000792903 -8.54757e-05 -2.21853e-06)
(0.000787482 -5.07736e-05 -1.30697e-07)
(0.000800427 -3.08731e-05 1.28762e-07)
(0.000803328 -1.89604e-05 5.79887e-08)
(0.000805631 -1.1577e-05 6.2954e-08)
(0.000806116 -7.16716e-06 5.52958e-08)
(0.000805972 -4.68823e-06 5.7199e-08)
(0.000805173 -2.77489e-06 4.1915e-08)
(0.000804048 -1.61883e-06 9.7069e-08)
(0.000802913 -1.06333e-06 7.60807e-08)
(0.000801286 -8.18002e-07 5.87343e-09)
(0.000799763 -6.38948e-07 5.98241e-08)
(0.000798475 -3.70229e-07 2.87225e-08)
(0.000796903 -2.37249e-07 4.88769e-08)
(0.000795065 -2.59305e-07 -5.30623e-09)
(0.000793505 -3.07406e-07 5.57915e-08)
(0.000791899 -2.57848e-07 5.50651e-08)
(0.000790195 -2.56852e-07 6.89001e-08)
(0.000789037 -4.21442e-07 5.6037e-08)
(0.000787343 -1.73555e-07 2.25086e-08)
(0.000785485 -8.0217e-08 2.57987e-07)
(0.00078431 1.90421e-07 9.96251e-08)
(0.000782669 5.01421e-07 3.95622e-08)
(0.000780775 3.91507e-07 1.69872e-07)
(0.000779341 2.40906e-07 6.82189e-08)
(0.000777665 -4.10968e-08 8.70737e-08)
(0.000775961 -5.6122e-08 -1.77745e-08)
(0.000774513 -2.75608e-08 5.97314e-08)
(0.000772985 -2.08512e-07 9.13505e-08)
(0.000771648 2.66782e-08 9.15209e-08)
(0.000770525 -1.88951e-08 4.3445e-08)
(0.000768956 -3.43273e-07 8.26302e-08)
(0.000767058 -6.20159e-07 3.76401e-08)
(0.000765557 -2.45212e-07 5.46799e-08)
(0.000764079 -1.65434e-07 -2.23914e-08)
(0.000762501 -4.59919e-08 4.51288e-08)
(0.000761192 4.78857e-08 4.50535e-08)
(0.000759873 1.80475e-07 5.53124e-08)
(0.000758528 1.98221e-07 1.35182e-08)
(0.000757241 4.29793e-07 6.32838e-08)
(0.000755311 1.07179e-06 2.60402e-08)
(0.000753809 8.26169e-07 -9.29139e-08)
(0.000753186 3.91955e-07 9.15473e-08)
(-0.0381788 -0.0133897 0.00308737)
(0.0229685 -0.00134506 -0.000344362)
(0.00926918 -0.0250352 0.00288741)
(0.00723338 -0.0128987 0.000984337)
(0.00402141 0.00340395 -8.84097e-05)
(0.00174661 0.0015405 -3.01455e-05)
(0.000501689 -6.36696e-05 -1.37417e-06)
(0.000866956 -8.38826e-05 -2.12613e-06)
(0.000823592 -5.37795e-05 -3.16451e-07)
(0.000823711 -3.29918e-05 9.16101e-08)
(0.000817458 -2.03947e-05 6.20352e-08)
(0.000814385 -1.27753e-05 4.1834e-08)
(0.000811096 -7.9185e-06 5.18693e-08)
(0.000809082 -4.55653e-06 6.93749e-08)
(0.000807623 -2.85656e-06 5.22627e-08)
(0.000805496 -1.67625e-06 4.99354e-08)
(0.000803328 -1.0141e-06 5.08658e-08)
(0.000801788 -5.49514e-07 2.76567e-07)
(0.000800502 -2.70912e-07 8.00525e-08)
(0.000798665 -3.1143e-07 6.32654e-08)
(0.000796733 -2.5743e-07 3.63697e-08)
(0.000795127 -2.29244e-07 8.67695e-08)
(0.000793549 -6.92738e-08 5.66346e-08)
(0.000791969 -7.21748e-08 4.6316e-08)
(0.00079032 1.48614e-07 6.04876e-08)
(0.000788778 1.24756e-07 -3.13364e-09)
(0.000787352 -5.21326e-08 2.83427e-08)
(0.000785625 1.2984e-07 4.95621e-08)
(0.000784174 3.37374e-07 5.10198e-10)
(0.000782793 -1.24392e-07 4.77612e-08)
(0.000780907 -1.11335e-07 9.7685e-08)
(0.00077899 -1.24759e-07 -3.7552e-08)
(0.000777509 -2.86299e-07 6.97947e-08)
(0.00077626 -2.87235e-07 1.57331e-07)
(0.000774637 1.08871e-08 2.08114e-08)
(0.00077319 1.99748e-07 5.23563e-08)
(0.000771716 3.21504e-07 1.87215e-08)
(0.000769839 6.05713e-08 4.44615e-08)
(0.000768302 -3.07213e-07 1.53321e-08)
(0.000767281 -4.55729e-07 6.44446e-08)
(0.000765903 -2.18333e-07 6.21477e-08)
(0.000764297 -1.81645e-07 2.42239e-08)
(0.000762853 -6.40698e-08 4.17523e-08)
(0.000761348 2.22526e-07 3.92848e-08)
(0.000759919 1.24014e-07 1.41516e-08)
(0.000758567 1.58797e-07 4.65639e-08)
(0.000757485 2.01344e-08 7.68899e-09)
(0.000755896 -1.68427e-08 1.91532e-08)
(0.000753695 2.89268e-07 -4.66533e-08)
(0.000752151 2.38265e-07 6.39356e-08)
(-0.00132878 -0.00294581 -0.000774661)
(0.0238257 -0.00285981 -0.00481121)
(0.0133314 -0.00866404 0.00378607)
(-0.00727553 -0.00974998 0.00153677)
(0.015587 -0.003873 -0.00445734)
(0.000735002 -0.00274849 0.000629178)
(0.00155216 -0.000211498 -5.8795e-07)
(0.00153811 -7.79213e-05 3.92771e-07)
(0.00141798 -5.37707e-05 3.38688e-07)
(0.00140212 -3.33549e-05 3.6154e-07)
(0.00137939 -2.09718e-05 3.9164e-07)
(0.00136698 -1.33048e-05 3.5844e-07)
(0.00135885 -8.26426e-06 3.44321e-07)
(0.00135204 -4.60515e-06 3.56654e-07)
(0.0013462 -2.90189e-06 3.48901e-07)
(0.00134214 -1.91478e-06 4.0295e-07)
(0.00133872 -1.12421e-06 3.39752e-07)
(0.00133528 -4.53285e-07 3.5268e-07)
(0.00133175 -3.29426e-07 3.89914e-07)
(0.00132911 -4.36524e-07 3.51651e-07)
(0.0013267 -3.73553e-07 3.19911e-07)
(0.00132386 -1.18089e-08 3.67752e-07)
(0.00132115 -1.13676e-07 3.73204e-07)
(0.00131865 -4.64032e-08 2.89574e-07)
(0.00131582 2.9204e-07 3.13796e-07)
(0.00131307 5.56557e-07 2.51754e-07)
(0.00131068 3.97218e-07 3.06629e-07)
(0.00130844 2.0086e-07 3.4148e-07)
(0.00130515 4.79183e-07 3.82337e-07)
(0.00130199 -3.05207e-07 5.50023e-07)
(0.00129974 -9.71153e-07 2.4709e-07)
(0.00129692 -7.90886e-07 2.43206e-07)
(0.00129426 -3.94722e-07 2.51581e-07)
(0.00129249 -3.35045e-07 3.39257e-07)
(0.00129043 2.39592e-07 3.29502e-07)
(0.00128745 5.47046e-07 3.22565e-07)
(0.00128424 1.3213e-07 4.33802e-07)
(0.00128132 3.0502e-07 3.02463e-07)
(0.00127904 6.78046e-07 1.23406e-07)
(0.00127719 6.95218e-07 3.48404e-07)
(0.00127495 2.04019e-07 2.84434e-07)
(0.00127223 -1.20086e-08 3.52836e-07)
(0.00127024 -4.27854e-07 3.73492e-07)
(0.00126751 -4.25832e-07 7.45845e-07)
(0.00126472 -3.25998e-07 2.9377e-07)
(0.00126242 -3.40874e-07 3.21866e-07)
(0.00126011 -4.17209e-07 2.99904e-07)
(0.00125791 -8.55728e-07 3.02457e-07)
(0.00125529 -7.46427e-07 3.16529e-07)
(0.00125257 -4.6031e-07 3.55765e-07)
(0.000307089 0.0058473 0.000109903)
(0.000267538 -0.00191987 -0.000218378)
(0.00652049 -0.00487578 -0.00210351)
(0.0354041 1.1164e-05 0.00604871)
(0.000455728 -0.0382897 0.012313)
(0.00400485 -0.000462959 -0.00334869)
(0.00196878 7.7171e-06 -5.47737e-06)
(0.00158364 5.31314e-06 3.81076e-07)
(0.00142833 1.99617e-06 3.86174e-07)
(0.00141335 -1.28171e-06 3.53505e-07)
(0.00138657 -1.55118e-06 3.05842e-07)
(0.00137196 -1.13987e-06 3.43691e-07)
(0.00136129 -7.84125e-07 3.40698e-07)
(0.00135359 -9.36053e-07 3.39044e-07)
(0.00134767 -5.22886e-07 3.37436e-07)
(0.00134301 -3.47673e-07 2.13039e-07)
(0.00133909 -5.67422e-08 3.35513e-07)
(0.00133564 -4.49107e-08 1.34217e-07)
(0.00133244 3.4428e-07 4.35953e-07)
(0.00132932 3.92108e-07 2.97993e-07)
(0.00132665 4.71099e-07 3.88948e-07)
(0.0013238 3.4622e-07 3.72672e-07)
(0.00132092 7.0354e-07 6.20306e-07)
(0.00131885 5.83267e-07 2.93397e-07)
(0.00131632 2.26942e-07 1.23997e-07)
(0.00131316 6.31154e-08 4.7309e-07)
(0.0013103 -7.16964e-08 3.14967e-07)
(0.00130797 -3.65035e-07 3.35564e-07)
(0.00130483 -1.41145e-06 3.57229e-07)
(0.00130137 -8.06879e-07 3.37061e-07)
(0.00129941 -6.43471e-07 3.64901e-07)
(0.00129752 -3.01912e-07 3.01187e-07)
(0.00129487 7.43483e-07 4.87534e-07)
(0.00129299 1.38504e-06 4.81301e-07)
(0.00129066 2.1901e-07 3.31813e-07)
(0.00128707 -1.96779e-07 3.58103e-07)
(0.00128438 -4.31679e-08 3.40646e-07)
(0.00128221 2.74568e-07 3.54545e-07)
(0.00127951 5.9971e-07 3.10939e-07)
(0.00127671 7.07784e-07 3.34313e-07)
(0.00127404 2.39927e-08 2.80403e-07)
(0.00127152 -3.3531e-07 3.62857e-07)
(0.00126934 -8.80439e-07 2.40953e-07)
(0.0012675 -7.32573e-07 3.9792e-07)
(0.00126514 -2.42197e-07 3.51191e-07)
(0.00126255 -2.5699e-07 2.75919e-07)
(0.00126019 1.33974e-07 3.77253e-07)
(0.00125786 -1.44202e-07 3.09079e-07)
(0.00125523 -3.34128e-07 1.4139e-07)
(0.0012535 -3.7903e-07 2.11067e-07)
(0.00273691 0.000133619 0.00015726)
(0.00184568 0.000722204 -1.58743e-05)
(0.00255081 -0.00290752 -0.000416018)
(-0.000824168 -0.000135537 0.00161569)
(0.0273754 -0.0273605 -0.0105244)
(-0.0042142 0.0107679 -0.00282274)
(0.00155605 0.000256677 1.21267e-05)
(0.00147055 5.16652e-05 3.82255e-07)
(0.00140961 3.94566e-05 5.40205e-07)
(0.00139764 2.47161e-05 3.50295e-07)
(0.00137955 1.60206e-05 3.45609e-07)
(0.00136793 1.02253e-05 3.49684e-07)
(0.0013591 6.38259e-06 3.40722e-07)
(0.00135236 3.96672e-06 3.39567e-07)
(0.00134694 2.51498e-06 3.37049e-07)
(0.00134272 1.57955e-06 1.74762e-07)
(0.0013391 9.22108e-07 3.35464e-07)
(0.00133578 5.92877e-07 3.02222e-07)
(0.00133229 2.42503e-07 3.00464e-07)
(0.00132926 2.87417e-07 3.31634e-07)
(0.00132664 4.08494e-07 2.59309e-07)
(0.00132414 2.68256e-07 3.29769e-07)
(0.00132144 4.62518e-07 3.30153e-07)
(0.00131805 4.85668e-07 -5.71951e-08)
(0.00131517 1.94675e-08 2.74741e-07)
(0.0013127 -4.91418e-08 3.13871e-07)
(0.00131014 -1.14898e-07 3.48812e-07)
(0.00130677 -6.06951e-08 3.20407e-07)
(0.0013046 -1.52322e-07 2.73845e-08)
(0.00130296 7.62192e-07 2.9787e-07)
(0.00130038 1.3111e-06 3.36942e-07)
(0.00129865 1.26416e-06 3.16062e-07)
(0.00129636 1.10404e-06 5.3022e-07)
(0.00129183 9.2225e-07 2.61884e-07)
(0.00128845 1.22377e-07 3.66341e-07)
(0.00128712 -1.21737e-07 2.97871e-07)
(0.00128483 8.04164e-08 2.80489e-07)
(0.00128212 1.38593e-08 3.55554e-07)
(0.00127958 9.99974e-08 3.28441e-07)
(0.00127646 -1.32267e-07 3.08463e-07)
(0.00127364 -1.58227e-07 1.21794e-07)
(0.00127111 -1.20594e-07 3.5135e-07)
(0.00126975 7.88586e-07 3.16929e-07)
(0.00126832 4.67016e-07 2.74678e-07)
(0.00126532 2.63761e-07 3.37664e-07)
(0.00126289 3.18813e-07 4.02971e-07)
(0.00126025 4.89132e-07 4.96226e-07)
(0.00125732 3.14632e-07 3.41613e-07)
(0.00125501 1.72968e-07 3.08434e-07)
(0.00125346 1.37214e-07 2.98086e-07)
(0.00187716 0.000886559 -0.000123277)
(0.00242033 0.00139413 0.0016613)
(0.000885032 0.000728684 -7.92063e-05)
(0.000195239 -0.00235745 0.00239788)
(-0.000468997 -0.00125887 -0.00150727)
(0.000206396 0.00277152 0.000453727)
(0.00131718 -6.29072e-05 6.67053e-05)
(0.00149582 9.24467e-05 3.36783e-07)
(0.0013943 6.87152e-05 3.49986e-07)
(0.0013838 4.40752e-05 2.86631e-07)
(0.00136829 2.84786e-05 3.44216e-07)
(0.00135981 1.82924e-05 3.35476e-07)
(0.0013534 1.11984e-05 3.38982e-07)
(0.00134871 7.17723e-06 3.38485e-07)
(0.00134466 4.79151e-06 3.36867e-07)
(0.001341 3.11176e-06 3.34952e-07)
(0.00133785 1.69883e-06 3.36223e-07)
(0.00133479 9.73286e-07 3.85312e-07)
(0.00133206 3.57832e-07 2.93311e-07)
(0.00132953 2.34041e-08 3.20105e-07)
(0.00132662 -3.71984e-08 3.68286e-07)
(0.00132387 -2.0022e-07 3.32167e-07)
(0.00132118 -4.38666e-07 3.22566e-07)
(0.0013183 -3.34034e-07 3.84038e-07)
(0.00131565 -6.19078e-08 3.22678e-07)
(0.001313 2.67976e-07 2.69377e-07)
(0.00131028 4.6252e-07 3.89754e-07)
(0.00130792 7.10032e-07 3.92464e-07)
(0.00130586 1.68751e-06 3.37683e-07)
(0.0013032 1.30604e-06 4.72656e-07)
(0.00130003 1.2799e-06 3.06753e-07)
(0.00129725 1.17365e-06 3.05365e-07)
(0.00129443 -2.40852e-07 3.16392e-07)
(0.00129175 -6.40558e-07 3.25442e-07)
(0.00128936 8.73257e-08 3.28511e-07)
(0.00128701 2.16594e-07 3.37206e-07)
(0.00128455 3.26014e-08 3.04343e-07)
(0.00128224 -1.50816e-07 3.37586e-07)
(0.00127933 -6.35359e-07 1.88176e-07)
(0.00127638 -4.60223e-07 3.06197e-07)
(0.00127406 1.32179e-07 2.63144e-07)
(0.0012727 6.4838e-07 2.84971e-07)
(0.00127007 1.07588e-06 3.75915e-07)
(0.00126683 5.58507e-07 2.31368e-07)
(0.00126495 1.235e-09 3.30435e-07)
(0.00126283 2.94413e-08 3.16017e-07)
(0.00126018 -1.14847e-07 3.79461e-07)
(0.00125746 1.07976e-07 2.31725e-07)
(0.001255 3.85534e-07 3.0988e-07)
(0.00125311 3.87312e-07 2.21589e-07)
(-0.0134875 -0.0223188 0.0290497)
(0.0189927 0.0155601 0.0745433)
(0.00514738 0.00239695 0.00534154)
(-0.00220065 0.00180955 -0.00812311)
(-0.00148338 -0.0026392 -0.000326528)
(-7.21155e-05 0.00100022 0.000152133)
(0.000785863 -7.51631e-05 -2.25838e-05)
(0.0013294 0.000134331 3.84018e-07)
(0.0013485 8.69126e-05 4.54896e-07)
(0.00134694 5.19329e-05 4.1548e-07)
(0.00134707 3.2246e-05 2.58164e-07)
(0.00134617 1.9676e-05 3.59954e-07)
(0.00134511 1.25754e-05 3.36835e-07)
(0.0013443 7.54462e-06 3.371e-07)
(0.00134182 4.25156e-06 3.64443e-07)
(0.00133883 2.4633e-06 3.2437e-07)
(0.00133641 1.64124e-06 3.35533e-07)
(0.00133409 8.52303e-07 3.32274e-07)
(0.0013311 6.9275e-07 4.93579e-07)
(0.00132877 5.89149e-07 1.20481e-07)
(0.00132636 7.83532e-08 3.64064e-07)
(0.00132365 3.2386e-07 2.96314e-07)
(0.00132128 1.05936e-07 5.36303e-07)
(0.00131852 1.05232e-07 3.79114e-07)
(0.00131592 1.87826e-07 2.58491e-07)
(0.00131335 8.35264e-08 3.66421e-07)
(0.00131069 2.61493e-07 3.8264e-07)
(0.00130829 3.15333e-07 3.18892e-07)
(0.00130534 3.05358e-07 5.30828e-07)
(0.00130244 1.61344e-07 3.04847e-07)
(0.0013002 1.80487e-07 3.28292e-07)
(0.00129674 -5.55922e-07 3.3297e-07)
(0.00129409 -3.48165e-07 3.26219e-07)
(0.00129224 -1.79651e-07 3.24872e-07)
(0.00128952 -9.82698e-08 3.25201e-07)
(0.00128705 -2.04844e-07 3.17547e-07)
(0.00128437 -3.81048e-07 2.82003e-07)
(0.00128128 -3.13835e-07 3.12063e-07)
(0.00127919 -4.21905e-07 4.68216e-07)
(0.00127742 -6.97346e-08 4.38329e-08)
(0.00127503 3.28185e-07 3.22707e-07)
(0.00127228 7.72392e-07 5.2378e-07)
(0.00126963 1.69648e-07 3.0065e-07)
(0.00126697 1.80681e-07 -5.90275e-09)
(0.00126466 3.83649e-08 3.06606e-07)
(0.00126274 -2.84311e-07 3.14522e-07)
(0.00126035 -8.04373e-07 1.26478e-07)
(0.00125795 -7.50142e-07 9.57166e-08)
(0.00125534 -5.19994e-07 3.12179e-07)
(0.00125249 1.66435e-07 4.20167e-07)
(-0.00406696 0.0180295 -0.0185011)
(-0.0075526 0.000345355 -0.0285328)
(0.013972 -0.000142957 0.00106993)
(-0.00440217 -0.0121864 -0.000497202)
(-0.0363139 -0.0191927 0.042457)
(-0.000862332 -1.34136e-05 -0.000415487)
(0.000769386 0.000424489 -2.25886e-05)
(0.00124874 0.000105453 3.59284e-07)
(0.00128956 5.39274e-05 2.70145e-07)
(0.00131506 3.53422e-05 3.88556e-07)
(0.00132773 2.16444e-05 3.16624e-07)
(0.00133507 1.33375e-05 4.46536e-07)
(0.00133815 8.61786e-06 3.69546e-07)
(0.00133825 5.08863e-06 3.35234e-07)
(0.00133828 2.72148e-06 3.3498e-07)
(0.00133772 1.51056e-06 3.57156e-07)
(0.00133582 1.02134e-06 3.35556e-07)
(0.0013336 6.65542e-07 3.74811e-07)
(0.00133172 4.06519e-07 2.90121e-07)
(0.00132875 6.97654e-07 4.56789e-07)
(0.00132629 6.12648e-07 -9.03405e-09)
(0.0013239 5.56255e-07 6.01824e-07)
(0.00132091 4.25425e-07 4.26675e-07)