/*--------------------------------*- C++ -*----------------------------------*\
| =========                 |                                                 |
| \\      /  F ield         | OpenFOAM: The Open Source CFD Toolbox           |
|  \\    /   O peration     | Version:  5.0                                   |
|   \\  /    A nd           | Web:      www.OpenFOAM.org                      |
|    \\/     M anipulation  |                                                 |
\*---------------------------------------------------------------------------*/
FoamFile
{
    version     2.0;
    format      ascii;
    class       surfaceVectorField;
    location    "0.6";
    object      Uf;
}
// * * * * * * * * * * * * * * * * * * * * * * * * * * * * * * * * * * * * * //

dimensions      [0 1 -1 0 0 0 0];

internalField   nonuniform List<vector> 
24376
(
(0.00554257 0.0048074 0.000211617)
(-0.0004774 0.0020114 -6.23031e-05)
(-0.00113193 -0.000407062 -0.000649232)
(0.00307375 0.00568428 -0.000152585)
(0.0124075 0.00139259 -0.001576)
(0.01391 0.00793262 -0.000146278)
(0.011521 0.00248204 0.000356766)
(0.00851827 0.00776675 0.000168588)
(0.0162018 0.00387558 -0.000652872)
(1.46636e-05 0.00371365 -0.000566673)
(0.00150952 0.00318218 0.000112069)
(-0.000498704 0.00407368 -0.00187754)
(0.00274311 0.016154 0.000307622)
(-0.008601 -0.00864876 -0.00027403)
(-0.00245855 -0.00181389 -0.000882879)
(-0.000692892 0.00292864 -0.00129328)
(-0.00910293 -0.00297495 -0.000575963)
(-0.0195477 -0.0093795 9.40306e-06)
(-0.00251316 -0.00462703 -0.000128735)
(-0.00363034 -0.00626415 -0.000593252)
(-0.00366314 0.00447248 0.00147661)
(0.0127779 0.00403255 -0.00134503)
(0.0146418 -0.00501603 -0.000659995)
(0.00991444 -0.00663282 -0.000332285)
(0.00782363 -0.00251183 -7.84705e-05)
(0.00932845 -0.0126679 -0.00114963)
(0.00240376 -1.27586e-05 -0.000534605)
(0.00170575 -0.00126378 0.000245301)
(0.00109321 -0.000222346 3.75987e-05)
(0.00092732 -0.000171846 3.37924e-05)
(0.000536951 -0.000819513 4.26359e-05)
(0.000319331 -3.36726e-05 -1.72112e-06)
(0.000498241 -5.7088e-05 -3.29506e-06)
(0.000511392 -3.69628e-05 -1.2656e-06)
(0.000809671 -9.38996e-05 -2.34157e-06)
(0.000347218 -4.66057e-05 -2.26886e-06)
(0.000606663 -6.06775e-05 -2.04758e-06)
(0.000674752 -9.37631e-05 -2.34052e-06)
(0.000839374 -5.68773e-05 -1.27799e-06)
(0.000896636 -5.04994e-05 -1.92477e-06)
(0.00117629 -8.45085e-05 -1.49199e-06)
(0.000618089 -6.08737e-05 -3.96904e-06)
(0.000624903 -5.70718e-05 -4.49295e-06)
(0.00106042 -0.000112369 -4.07117e-06)
(0.00106962 -0.000100935 -4.75745e-06)
(0.000824489 -4.01287e-05 -1.14029e-07)
(0.000831444 -3.82345e-05 -3.62321e-07)
(0.00110181 -6.2477e-05 1.1002e-07)
(0.00081442 -2.62175e-05 8.47796e-08)
(0.000827174 -2.53693e-05 1.24264e-07)
(0.00109574 -4.08258e-05 2.00613e-07)
(0.000807419 -1.70091e-05 6.01511e-08)
(0.000814968 -1.67108e-05 4.2843e-08)
(0.00108203 -2.64881e-05 1.70729e-07)
(0.000803031 -1.09164e-05 1.91904e-08)
(0.00080821 -1.06331e-05 5.01228e-08)
(0.00107475 -1.71226e-05 1.70322e-07)
(0.000800079 -6.72208e-06 2.45043e-08)
(0.00080337 -6.76779e-06 1.38469e-08)
(0.00107001 -1.08563e-05 1.78804e-07)
(0.0007966 -4.06347e-06 5.30077e-08)
(0.000799496 -4.56706e-06 5.13577e-08)
(0.00106566 -6.35581e-06 1.60231e-07)
(0.000794223 -2.61741e-06 1.50013e-07)
(0.000796248 -2.76845e-06 4.23514e-08)
(0.0010616 -4.0274e-06 1.79514e-07)
(0.000792474 -1.70887e-06 1.52472e-07)
(0.000793877 -8.70078e-07 2.08936e-07)
(0.0010589 -2.65001e-06 1.26195e-07)
(0.000790757 -1.08758e-06 5.14759e-08)
(0.000791867 -1.05913e-06 4.7227e-08)
(0.00105659 -1.6992e-06 1.74372e-07)
(0.000788871 -7.05259e-07 5.56083e-08)
(0.000790088 -7.99138e-07 7.28422e-08)
(0.00105419 -1.04719e-06 1.72469e-07)
(0.000787285 -5.90696e-07 8.10717e-08)
(0.000788332 -7.31098e-07 7.17158e-09)
(0.00105178 -7.22193e-07 1.74816e-07)
(0.000785684 -6.5714e-07 8.68314e-08)
(0.000786655 -1.77651e-07 6.33738e-08)
(0.00104963 -7.70016e-07 2.82757e-07)
(0.00078509 -4.62188e-07 6.69941e-08)
(0.000785456 2.56256e-07 4.75895e-08)
(0.00104826 -8.69936e-07 1.4898e-07)
(0.000783347 -2.56176e-07 6.49014e-08)
(0.000784058 -4.47127e-07 5.85715e-08)
(0.00104662 -2.35848e-07 1.82362e-07)
(0.000781877 -2.17029e-07 5.22597e-08)
(0.000782495 -6.18403e-07 5.34219e-08)
(0.00104439 -3.32458e-07 2.04091e-07)
(0.000780383 -4.33839e-08 3.1276e-08)
(0.000781258 -1.66437e-07 4.35617e-08)
(0.00104247 -1.51726e-07 1.74343e-07)
(0.000779235 1.35369e-07 1.67932e-08)
(0.000779909 3.32828e-07 4.25345e-08)
(0.00104069 1.23051e-07 1.34454e-07)
(0.000777573 1.97753e-07 3.39548e-08)
(0.000778373 2.59615e-07 3.57994e-08)
(0.00103876 3.41754e-07 8.57798e-08)
(0.000776251 1.36365e-07 5.02053e-08)
(0.000776846 -2.00319e-07 4.98769e-08)
(0.00103676 2.69735e-07 1.83467e-07)
(0.000774902 1.50642e-07 3.568e-08)
(0.000775569 1.28108e-08 4.38606e-08)
(0.00103513 1.30178e-07 1.68737e-07)
(0.000773379 6.6063e-08 3.2078e-08)
(0.000774059 1.21932e-06 5.92307e-08)
(0.00103305 2.75717e-07 -7.17324e-09)
(0.00077197 -2.61123e-07 5.42372e-08)
(0.00077243 8.65014e-08 1.97597e-08)
(0.001031 -1.43509e-07 1.90442e-07)
(0.000770083 -4.96797e-07 5.95855e-08)
(0.000770993 -6.7142e-07 -3.30621e-08)
(0.00102893 -6.50927e-07 3.50495e-07)
(0.00076877 -5.84315e-07 6.66524e-08)
(0.000769452 -5.0374e-07 3.57716e-08)
(0.00102661 -7.3929e-07 1.53038e-07)
(0.000768144 -4.08849e-07 6.13155e-08)
(0.000768536 -1.0024e-06 9.48327e-08)
(0.00102533 -7.90193e-07 2.14904e-07)
(0.000766764 -8.33597e-08 4.10229e-08)
(0.000767662 2.33116e-07 1.59215e-07)
(0.00102415 -2.37855e-07 1.56426e-07)
(0.000765425 1.2978e-07 4.08545e-08)
(0.00076614 2.44955e-08 4.46783e-08)
(0.00102235 7.44893e-08 1.68479e-07)
(0.000763458 1.86822e-07 3.96575e-08)
(0.000764516 1.59551e-07 3.10854e-08)
(0.00102005 3.41067e-07 8.70609e-08)
(0.000762047 2.33341e-07 3.41419e-08)
(0.000763002 2.09914e-07 4.17575e-08)
(0.00101771 1.92941e-07 1.64589e-07)
(0.000760555 4.37734e-07 4.84402e-08)
(0.000761641 6.47061e-07 3.92047e-08)
(0.00101567 4.30494e-07 1.03608e-07)
(0.000760193 3.64027e-07 6.9896e-08)
(0.000760298 -2.01744e-06 6.9636e-08)
(0.00101449 7.44016e-07 1.98428e-07)
(0.000758396 8.94947e-08 4.705e-08)
(0.000758941 3.43446e-07 4.6386e-08)
(0.00101317 2.75112e-07 1.72723e-07)
(0.000756973 -1.38228e-08 4.8309e-08)
(0.000757526 4.11564e-08 2.29207e-08)
(0.00101093 2.30482e-08 1.66456e-07)
(0.000755721 -3.56629e-07 7.93552e-08)
(0.000756024 2.04864e-08 6.65358e-08)
(0.00100902 -3.48004e-08 1.54445e-07)
(0.000754937 -6.23016e-07 4.47045e-08)
(0.000754953 1.69984e-06 8.18672e-08)
(0.00100791 -8.65009e-07 1.56474e-07)
(0.000752606 -4.59119e-07 1.91297e-08)
(0.00075386 2.36221e-06 3.23621e-08)
(0.00100569 -7.07091e-07 7.46245e-08)
(0.000751298 -2.22308e-07 2.39689e-08)
(0.000752335 -2.76534e-07 3.97977e-08)
(0.00100319 -4.65855e-07 1.65361e-07)
(0.00075003 -2.79102e-08 3.50306e-08)
(0.000750882 3.57347e-07 4.2536e-08)
(0.00100153 -1.50431e-07 1.13122e-07)
(0.000749261 -4.01772e-08 4.96887e-08)
(0.000749585 -6.85686e-07 6.95071e-08)
(0.00100009 1.25598e-08 1.48852e-07)
(0.000747754 -2.26629e-07 3.56585e-08)
(0.000748322 1.62354e-07 4.11771e-08)
(0.000998716 -1.93066e-07 1.73319e-07)
(0.000745921 -3.47301e-07 1.47608e-08)
(0.000746781 6.51892e-07 4.68347e-08)
(0.000996356 -4.58874e-07 1.4874e-07)
(0.000745479 9.44629e-07 5.5412e-08)
(0.000994167 -4.66087e-07 1.01838e-07)
(-0.000867201 -0.00044433 2.01428e-05)
(0.000646856 0.00230232 0.000105643)
(0.000114529 0.00513715 0.000122464)
(-0.00273978 -0.00291303 -0.000216444)
(-0.000918919 -0.00203911 -2.86428e-05)
(-0.0010094 -0.0033329 -0.000145058)
(0.0037985 0.00384699 -9.76233e-05)
(0.00541333 -0.00434046 -7.28948e-05)
(0.0102817 0.00410525 -9.13148e-05)
(0.010125 -0.00657048 0.000177851)
(0.0020601 0.000556884 0.000139896)
(0.0046041 -0.00852133 -0.000118477)
(0.00369052 0.00262337 0.000147791)
(-0.0026196 -0.0025715 -0.000831572)
(-0.00574139 0.00700546 -0.000580477)
(0.00104132 0.00240146 -1.55854e-05)
(0.00440717 -0.00615379 -8.12406e-05)
(0.0125735 -0.00411679 0.00117445)
(0.00670425 -0.00680066 0.001935)
(0.0174408 -0.0106324 0.00171918)
(0.0361005 -0.0161064 0.00122579)
(0.0160781 0.00138933 0.00172303)
(-0.00667732 -0.00685789 0.00354022)
(-0.00148202 -0.0158567 0.00190554)
(0.00195688 -0.00782694 0.00109988)
(0.00122123 -0.0192477 0.000182334)
(-9.70056e-05 -0.00870458 0.00186295)
(0.00412485 -0.00126164 9.75829e-05)
(0.000247109 -0.00493001 -0.000119896)
(0.00228945 -0.000284251 3.99622e-05)
(0.00430476 -0.000471405 0.000154702)
(0.00488476 -0.000352935 -0.000224923)
(0.000362744 -8.26236e-07 -2.62266e-06)
(0.000565015 -1.32412e-05 -1.85682e-07)
(0.000509171 -2.09669e-05 -2.94039e-06)
(0.000570731 -3.42684e-05 6.22224e-07)
(0.000990531 -2.65555e-05 2.05538e-07)
(0.000370631 2.74649e-06 1.54755e-07)
(0.000605398 1.31356e-05 -4.76069e-06)
(0.000638486 2.26585e-05 2.85956e-06)
(0.000858726 -3.33074e-05 -1.00961e-06)
(0.000908632 -3.49278e-05 -1.98404e-06)
(0.00122393 -4.87206e-05 -1.24643e-06)
(0.000629603 -2.88994e-05 -4.89897e-06)
(0.000644443 -1.40963e-05 -4.51945e-06)
(0.00105454 -4.2248e-05 -5.33324e-06)
(0.00109415 -3.51763e-06 -4.92922e-06)
(0.000840244 -2.16732e-05 -1.24187e-07)
(0.000846098 -1.56476e-05 -2.21973e-07)
(0.00112017 -3.12009e-05 8.87613e-08)
(0.000825859 -1.43012e-05 8.23541e-08)
(0.000836424 -9.53648e-06 1.34096e-07)
(0.00111355 -2.10965e-05 2.01371e-07)
(0.000815487 -9.1097e-06 3.28124e-08)
(0.000821483 -5.51797e-06 3.16824e-08)
(0.00109413 -1.36388e-05 1.74327e-07)
(0.000808122 -5.70825e-06 4.47912e-08)
(0.000812478 -3.25455e-06 5.05032e-08)
(0.00108307 -8.54104e-06 1.77584e-07)
(0.000802866 -3.72518e-06 4.06881e-08)
(0.000805859 -2.00075e-06 4.23947e-08)
(0.00107474 -5.36209e-06 1.75503e-07)
(0.000798832 -2.45731e-06 4.07043e-08)
(0.000801088 -1.31163e-06 4.22472e-08)
(0.00106868 -3.74052e-06 1.74243e-07)
(0.000795807 -1.50183e-06 1.0122e-07)
(0.000797447 -7.92556e-07 4.41553e-08)
(0.00106404 -2.28951e-06 1.7529e-07)
(0.000793219 -8.86213e-07 1.03743e-07)
(0.000794649 -1.78916e-07 9.54734e-08)
(0.00106035 -1.40698e-06 2.25874e-07)
(0.000791135 -5.06065e-07 6.8585e-08)
(0.000792344 -2.7057e-07 4.58814e-08)
(0.00105725 -7.75682e-07 1.75672e-07)
(0.000789583 -2.97515e-07 2.44266e-08)
(0.00079035 -8.23721e-07 5.79166e-08)
(0.00105487 -4.6795e-07 1.85858e-07)
(0.000787683 -1.04049e-07 -1.05444e-08)
(0.000788574 2.10898e-06 4.84631e-08)
(0.00105253 -2.4531e-07 1.79707e-08)
(0.000786186 1.44784e-07 2.4137e-08)
(0.000786966 -4.00218e-08 7.00009e-08)
(0.00105021 4.11322e-08 1.69933e-07)
(0.000784718 2.10574e-07 3.91634e-08)
(0.000785537 2.0196e-07 2.7696e-08)
(0.00104833 3.7813e-07 1.80703e-07)
(0.000783027 2.44635e-07 4.70937e-08)
(0.000784099 1.82476e-07 4.63682e-08)
(0.00104615 1.99741e-07 1.52516e-07)
(0.000781944 3.15457e-07 4.47271e-08)
(0.000782582 -1.60595e-06 3.18936e-08)
(0.00104418 4.92984e-07 2.12186e-07)
(0.000780714 2.1455e-07 5.48206e-08)
(0.00078113 5.63036e-07 5.87209e-08)
(0.0010428 4.15484e-07 1.05249e-07)
(0.000779172 4.30873e-08 6.15429e-08)
(0.000779694 1.13594e-08 5.58104e-08)
(0.00104095 2.24566e-07 2.05969e-07)
(0.000777574 -6.88792e-08 5.1717e-08)
(0.000778233 8.23492e-08 5.55095e-08)
(0.0010387 -4.30383e-08 2.00841e-07)
(0.000776132 -1.16293e-07 4.35341e-08)
(0.000776787 7.06076e-08 3.47959e-08)
(0.00103662 -7.78683e-08 1.55702e-07)
(0.000774767 -3.12053e-07 6.74064e-08)
(0.000775326 5.53983e-08 4.91343e-08)
(0.00103486 -2.11755e-07 1.65151e-07)
(0.000773135 -4.50078e-07 4.69249e-08)
(0.000773888 -4.13423e-07 4.95245e-08)
(0.00103281 -6.89077e-07 3.06679e-07)
(0.000771478 -3.3408e-07 -6.7523e-08)
(0.000772577 2.23053e-06 4.13438e-08)
(0.00103043 -5.88449e-07 4.25256e-08)
(0.000770324 -8.949e-08 -5.68976e-08)
(0.0007713 2.88634e-07 9.0978e-09)
(0.00102875 -3.38411e-07 8.16392e-08)
(0.000768835 4.81312e-07 6.39334e-08)
(0.000770165 6.19917e-07 3.75713e-08)
(0.00102698 4.50239e-08 9.9719e-08)
(0.000768533 6.80717e-07 1.92712e-07)
(0.000768783 -3.06199e-06 6.3719e-08)
(0.00102569 1.18532e-06 2.2015e-07)
(0.000766898 3.32212e-07 1.62906e-07)
(0.000767224 5.4617e-07 1.62315e-07)
(0.00102453 6.72117e-07 1.70095e-07)
(0.000765278 1.13109e-07 3.49134e-08)
(0.000765864 3.55972e-07 6.73006e-08)
(0.0010223 2.81467e-07 1.67559e-07)
(0.000763977 1.02542e-07 3.3182e-08)
(0.000764502 1.17142e-07 4.25857e-08)
(0.00102018 1.5862e-08 1.65605e-07)
(0.00076265 2.64167e-07 4.68211e-08)
(0.000763204 1.58144e-07 5.54242e-08)
(0.0010184 2.35813e-07 1.68598e-07)
(0.00076132 4.76907e-07 6.03911e-08)
(0.000761905 1.86428e-08 4.68596e-08)
(0.00101679 4.52372e-07 2.10298e-07)
(0.000759136 4.19259e-07 4.61333e-08)
(0.000760223 -7.30242e-07 4.74169e-08)
(0.00101434 8.12623e-07 1.49335e-07)
(0.000757984 1.62045e-07 2.2264e-08)
(0.000758618 1.01177e-07 3.82031e-08)
(0.00101204 3.41702e-07 1.66416e-07)
(0.0007567 4.89294e-08 4.11341e-08)
(0.000757384 -2.27033e-08 4.86096e-08)
(0.00101049 1.26305e-07 1.65518e-07)
(0.000754954 -7.19988e-08 6.90431e-08)
(0.000755874 6.39819e-07 6.36826e-08)
(0.00100838 -2.11728e-08 1.57597e-07)
(0.000754128 -4.19844e-07 6.954e-08)
(0.00075452 5.3278e-07 7.54393e-08)
(0.00100662 -2.3248e-07 2.03679e-07)
(0.000753574 -4.093e-07 5.30278e-08)
(0.000753875 1.38122e-07 1.05301e-07)
(0.00100587 -9.10713e-07 2.55592e-07)
(0.000751922 -3.76998e-08 5.83639e-08)
(0.000752802 1.41358e-07 6.4545e-08)
(0.00100431 -1.79638e-07 1.63309e-07)
(0.000750319 2.06381e-07 7.70043e-08)
(0.000751187 3.21833e-08 6.17674e-08)
(0.0010021 1.4422e-08 2.1292e-07)
(0.000748761 2.15277e-07 6.10041e-08)
(0.000749596 2.39219e-07 7.61511e-08)
(0.00100004 4.5567e-07 1.17616e-07)
(0.000747354 -3.31846e-08 5.23516e-08)
(0.000748012 2.64058e-07 5.76921e-08)
(0.000998027 7.17846e-08 1.63584e-07)
(0.000746219 -1.5704e-07 8.74832e-08)
(0.000746629 1.12815e-07 2.58135e-08)
(0.000996252 -1.94032e-07 1.85453e-07)
(0.000745673 -1.24112e-07 1.14004e-07)
(0.000994925 -2.51503e-07 2.33587e-07)
(0.000693759 0.000603033 5.69023e-05)
(0.000145455 -0.000425138 -0.000330005)
(0.00170082 0.00131364 0.000193822)
(0.000866022 -0.00187559 1.76698e-06)
(-0.001171 -0.00234811 -0.000299135)
(0.000673015 8.95655e-05 0.00151529)
(0.000389686 -0.00277983 7.68286e-05)
(-0.000884995 -0.00263118 0.00166068)
(0.00088728 -0.00287424 0.000295569)
(0.000849374 0.000366324 0.000853175)
(0.000621389 0.00169773 -0.00237897)
(0.00125366 2.73195e-05 0.000122259)
(-0.00412175 0.00661407 0.000646429)
(0.000990124 -0.00151593 -7.50111e-06)
(0.00188261 -0.00365841 -0.000258494)
(0.00411922 0.000471435 0.000160213)
(-0.00661959 -0.00323277 0.000321404)
(0.00643848 0.00215163 0.00016811)
(0.000397012 -0.0142601 0.000895331)
(0.00410865 -0.0011297 0.000922704)
(0.0023604 -7.00055e-05 0.00150157)
(0.00641612 -0.00185762 -0.00108506)
(0.00213961 0.0160388 3.30681e-05)
(-0.0150606 0.00952634 -0.000333143)
(-0.00305606 0.00341701 0.00118853)
(-0.00579764 0.00691615 0.00176421)
(0.00383308 0.00965424 -0.000531409)
(-0.0206619 -0.00229848 0.000341086)
(-0.00994879 -0.00788639 0.000891606)
(0.00696289 -0.0052578 0.00319)
(0.00325682 0.00430354 -0.000364021)
(0.0052049 0.00102314 -7.11593e-05)
(-0.00763664 -0.00316272 -0.000294981)
(0.00217835 -0.00103085 -6.13726e-05)
(0.00163037 -0.00147305 -0.000589097)
(1.5416e-05 -0.00240106 -0.000657867)
(0.000353659 -7.77569e-05 2.37088e-05)
(0.000395362 -1.95023e-05 2.29241e-06)
(0.00034844 -1.91652e-05 6.24067e-06)
(0.000551604 -3.63063e-06 7.65542e-06)
(0.000262742 -1.46327e-05 -4.14073e-07)
(0.000869374 -1.03645e-05 -1.19698e-06)
(0.000927328 5.05724e-06 -2.29787e-06)
(0.00120091 -1.77054e-05 -1.69819e-06)
(0.00064525 -1.58678e-05 -4.49556e-06)
(0.000653775 -3.47684e-05 -4.67638e-06)
(0.00110728 -1.59446e-05 -4.87403e-06)
(0.0011161 -6.2098e-05 -5.00991e-06)
(0.0008469 -1.52276e-06 3.61943e-08)
(0.000857075 1.09226e-05 -2.57643e-07)
(0.0011366 -7.33316e-07 1.58108e-07)
(0.0008298 5.10797e-07 8.34582e-08)
(0.000838926 9.75128e-06 8.50744e-08)
(0.00111776 1.77909e-06 1.96474e-07)
(0.000817925 1.08288e-06 4.93671e-08)
(0.00082217 7.48902e-06 2.44253e-08)
(0.00109777 2.48528e-06 1.78604e-07)
(0.000809599 9.6901e-07 4.81094e-08)
(0.000812317 5.26877e-06 4.03244e-08)
(0.00108513 2.09581e-06 1.81305e-07)
(0.000803771 7.06843e-07 4.39539e-08)
(0.00080552 3.48356e-06 4.17242e-08)
(0.00107603 1.49653e-06 1.75507e-07)
(0.00079944 4.91131e-07 4.56976e-08)
(0.000800811 2.30065e-06 4.40654e-08)
(0.00106951 9.94366e-07 1.75334e-07)
(0.000796135 3.33119e-07 3.83917e-08)
(0.000797245 1.54047e-06 4.32056e-08)
(0.00106452 6.83076e-07 1.74943e-07)
(0.000793674 2.28651e-07 3.76275e-08)
(0.000794516 1.02035e-06 3.60112e-08)
(0.0010608 4.26873e-07 1.8018e-07)
(0.000791511 2.11505e-07 3.52091e-08)
(0.00079232 6.67099e-07 4.47083e-08)
(0.00105777 3.07862e-07 1.72322e-07)
(0.000789239 1.66855e-07 8.19561e-08)
(0.000790293 -1.86999e-07 3.96848e-08)
(0.00105485 3.07882e-07 2.02541e-07)
(0.000787867 1.09299e-07 1.29001e-07)
(0.000788502 5.17626e-07 9.2456e-08)
(0.00105242 1.35421e-07 2.78784e-07)
(0.000786235 1.34085e-07 7.35734e-08)
(0.000786996 1.60274e-07 7.14288e-08)
(0.00105041 1.40098e-07 1.77389e-07)
(0.000784993 1.51451e-07 3.48948e-08)
(0.000785559 4.14733e-08 4.97235e-08)
(0.00104846 2.12564e-07 1.68374e-07)
(0.000783608 2.43804e-07 3.11728e-08)
(0.000784213 1.64939e-07 4.48973e-08)
(0.00104676 1.86843e-07 1.70928e-07)
(0.000781792 3.31055e-07 4.58789e-08)
(0.00078269 -1.51341e-07 2.18941e-08)
(0.00104465 4.55676e-07 1.05902e-07)
(0.000780061 2.18203e-07 5.97116e-08)
(0.000780988 4.53541e-08 6.46654e-08)
(0.00104213 4.3653e-07 2.35886e-07)
(0.000778775 7.93398e-08 4.97771e-08)
(0.00077952 -6.48987e-08 1.29147e-07)
(0.00104012 1.42338e-07 1.6643e-07)
(0.000777432 8.25193e-09 3.8595e-08)
(0.000778144 -5.94838e-08 4.03878e-08)
(0.00103838 5.11034e-08 1.76042e-07)
(0.000776005 -1.8545e-08 4.03915e-08)
(0.000776753 1.69377e-07 4.32352e-08)
(0.00103655 -2.09357e-08 1.66504e-07)
(0.000774462 -4.20372e-08 3.12524e-08)
(0.000775297 -1.57308e-08 5.49827e-08)
(0.00103437 1.46768e-09 1.88678e-07)
(0.000773228 1.25106e-07 4.39461e-08)
(0.000774097 3.71258e-07 -1.7046e-08)
(0.00103259 -8.17312e-08 1.01343e-07)
(0.000772502 4.1365e-07 1.17975e-07)
(0.000772936 7.88669e-07 5.80595e-08)
(0.00103145 4.72763e-07 2.13558e-07)
(0.00077101 5.71943e-07 1.03558e-07)
(0.000771495 3.74238e-07 1.14397e-07)
(0.00102972 7.40684e-07 1.73392e-07)
(0.000770306 7.13244e-07 3.73488e-08)
(0.000770338 5.19491e-07 2.75242e-08)
(0.00102851 8.78431e-07 1.16945e-07)
(0.000767281 6.01964e-07 3.32912e-08)
(0.000768641 -3.00217e-07 2.86096e-08)
(0.00102611 1.04033e-06 1.19564e-07)
(0.000766302 3.10393e-07 6.67392e-08)
(0.000766858 2.31054e-07 4.37216e-08)
(0.00102301 5.63105e-07 1.56387e-07)
(0.000765017 1.80291e-07 7.49806e-08)
(0.000765701 2.77389e-07 7.52722e-08)
(0.00102153 2.55712e-07 1.66825e-07)
(0.00076375 1.13887e-07 6.48239e-08)
(0.000764419 -1.6343e-07 5.14942e-08)
(0.00102 1.68019e-07 1.79612e-07)
(0.00076246 2.91623e-08 5.54654e-08)
(0.000763098 1.08024e-07 5.42724e-08)
(0.00101826 9.53441e-08 1.6528e-07)
(0.000761013 -6.76357e-08 3.38851e-08)
(0.000761784 6.29882e-08 4.22747e-08)
(0.00101639 -1.33687e-08 1.72497e-07)
(0.000759395 -5.89121e-09 3.94895e-08)
(0.000760301 -1.43541e-07 1.95846e-08)
(0.00101435 -1.44586e-07 1.48804e-07)
(0.000758121 1.19803e-07 6.45455e-08)
(0.000758775 1.03111e-07 -8.66144e-09)
(0.00101231 1.22207e-07 1.5985e-07)
(0.000756672 1.44378e-07 7.11534e-08)
(0.000757414 9.92986e-08 6.825e-08)
(0.00101047 1.4877e-07 1.66948e-07)
(0.000755324 3.66824e-07 7.00751e-08)
(0.000756151 4.19324e-07 7.30957e-08)
(0.00100857 1.98013e-07 1.82311e-07)
(0.000753913 6.30953e-07 1.11191e-07)
(0.000754848 4.65114e-07 8.47775e-08)
(0.00100681 7.79612e-07 1.77049e-07)
(0.000753607 5.0455e-07 1.16831e-07)
(0.000753715 -1.30201e-06 1.96881e-08)
(0.00100576 8.98838e-07 1.76256e-07)
(0.000751983 2.75443e-07 6.79494e-08)
(0.000752513 2.90746e-07 6.67035e-08)
(0.00100435 4.63944e-07 1.80366e-07)
(0.000750485 2.49069e-07 6.09098e-08)
(0.000751153 6.63942e-08 4.70431e-08)
(0.00100232 3.35094e-07 1.77271e-07)
(0.000748752 3.46808e-07 7.28448e-08)
(0.000749717 -5.25309e-09 7.2538e-08)
(0.00100016 3.74087e-07 2.18719e-07)
(0.000747301 3.30668e-07 3.11636e-08)
(0.00074799 4.22925e-07 5.8292e-08)
(0.000997904 5.49885e-07 1.63478e-07)
(0.000745906 1.85213e-07 5.23079e-08)
(0.000746445 1.84252e-07 1.79214e-08)
(0.00099596 2.99927e-07 1.64578e-07)
(0.000745442 -1.0022e-06 1.40644e-07)
(0.000994721 1.71885e-07 1.96017e-07)
(-0.00291379 -0.00458618 -0.000557109)
(-0.00525377 -0.0099854 0.000744281)
(0.000249495 0.000324943 -0.000425959)
(-0.0061476 0.0102638 0.00129813)
(-0.00436231 -0.0100416 0.00230245)
(-0.0162264 0.0173747 0.00153683)
(-0.00156034 -0.00156412 -0.000442029)
(-0.00220921 -0.00226751 0.000329324)
(0.0124252 -0.00110423 0.00132048)
(-0.00642925 -0.0017065 -0.00158502)
(-0.00272655 -0.0033583 0.00140227)
(-0.00155682 0.000209411 -0.0015918)
(-0.000619916 -0.0040303 -0.000180256)
(-0.00101789 -0.0072695 -0.00123297)
(-0.00166587 -0.00430601 0.000137314)
(-1.31514e-05 9.70804e-05 -0.000123656)
(0.000935842 0.000477144 6.02839e-05)
(0.00079821 0.000412809 -7.41853e-05)
(0.0010297 -0.00167916 7.06692e-05)
(0.000175982 -0.000485956 0.00021127)
(0.00109276 -0.00179544 0.000289458)
(0.000480066 -0.000801974 -0.000197708)
(-0.00177156 0.000588429 -0.000225097)
(-0.00196069 0.00324862 0.000490295)
(-0.00043964 -0.00206472 0.00162333)
(-0.00088621 0.000152577 -8.4177e-05)
(-0.00236034 3.80811e-05 -0.000669687)
(-0.000793685 4.99997e-05 -4.88035e-05)
(0.0031794 0.000695939 0.000845447)
(-0.00112261 0.00336154 0.000809925)
(0.00661101 -0.000959335 -0.00116276)
(-0.00428058 -0.0122185 0.000558675)
(-0.00214498 -0.00380847 -0.003044)
(-0.00133474 -0.00157367 0.000609515)
(-0.00272507 -0.00153547 6.28543e-05)
(-0.00274638 0.00103857 -6.81345e-05)
(-0.00145285 0.00356185 0.0024207)
(-0.00255313 0.00139463 -0.00131741)
(-0.0114821 -0.00230072 0.000298577)
(0.00106051 0.00803372 3.96768e-05)
(-8.55994e-05 0.00170102 -0.000104315)
(-0.000562716 0.000688724 -0.000506897)
(0.00940874 0.000927623 0.000274712)
(0.00127238 0.00577627 0.000123444)
(0.000620579 0.000974448 1.30006e-05)
(0.000467165 0.000634094 1.59556e-05)
(0.00154137 0.00197813 7.4656e-05)
(0.00134415 4.95131e-06 2.26709e-05)
(0.000525169 -0.000117113 3.64211e-05)
(0.00056942 -0.000101914 5.05835e-05)
(0.000768471 -0.000146719 7.76228e-05)
(0.000411525 -7.44717e-05 2.10825e-05)
(0.000888602 4.0508e-05 -1.35919e-06)
(0.000892699 8.69519e-05 -2.76647e-06)
(0.00126284 6.19875e-05 -1.71509e-06)
(0.000692097 1.64428e-05 -5.60351e-06)
(0.0006947 7.38934e-05 -5.12681e-06)
(0.00116599 2.41323e-05 -5.16238e-06)
(0.00117965 0.000151518 -4.0545e-06)
(0.000850155 2.93913e-05 -2.08875e-07)
(0.00084299 5.87001e-05 -1.90549e-07)
(0.00114429 4.80185e-05 7.22259e-08)
(0.00082842 1.93159e-05 2.60613e-08)
(0.000826211 3.51437e-05 3.04783e-08)
(0.00111745 3.14392e-05 1.74556e-07)
(0.000815557 1.26686e-05 1.53774e-08)
(0.000813783 2.18757e-05 2.51318e-08)
(0.00109444 2.06595e-05 1.68275e-07)
(0.000807446 8.06709e-06 3.39387e-08)
(0.000806516 1.36863e-05 4.27134e-08)
(0.00108178 1.34447e-05 1.70018e-07)
(0.000802151 5.07421e-06 4.18349e-08)
(0.000801748 8.29772e-06 1.70717e-07)
(0.00107333 8.25478e-06 1.75616e-07)
(0.000798346 3.3699e-06 4.15737e-08)
(0.000798661 5.27177e-06 4.59506e-08)
(0.00106764 5.38212e-06 1.74274e-07)
(0.000795412 2.26593e-06 4.08274e-08)
(0.000795852 3.43389e-06 3.21462e-08)
(0.00106332 3.65179e-06 1.7325e-07)
(0.000793066 1.42485e-06 4.30891e-08)
(0.000793456 2.19049e-06 3.58705e-08)
(0.00105987 2.41251e-06 1.72319e-07)
(0.000791115 8.5129e-07 4.91856e-08)
(0.000791598 1.31274e-06 4.4742e-08)
(0.0010571 1.39701e-06 1.74404e-07)
(0.000789406 5.81303e-07 5.01677e-08)
(0.000789952 7.41985e-07 4.72762e-08)
(0.00105465 8.84568e-07 1.33976e-07)
(0.000787616 2.84294e-07 3.48901e-08)
(0.000788128 3.2528e-07 5.45704e-08)
(0.00105232 6.42311e-07 2.18279e-07)
(0.000786273 1.14429e-07 4.75859e-08)
(0.000786783 1.89991e-07 8.18456e-08)
(0.0010503 7.70573e-08 1.64164e-07)
(0.000784782 9.90978e-08 5.97276e-08)
(0.000785539 1.08399e-07 6.72928e-08)
(0.00104838 1.94112e-07 1.742e-07)
(0.00078339 -4.87018e-08 3.5626e-08)
(0.000784029 1.18832e-07 5.20271e-08)
(0.00104646 1.97192e-08 1.73448e-07)
(0.000781823 -1.04078e-07 4.0667e-08)
(0.000782621 4.29127e-07 4.93473e-08)
(0.00104449 -1.99431e-07 1.45109e-07)
(0.000780421 2.03032e-08 1.3408e-07)
(0.000781144 8.76465e-08 7.3863e-08)
(0.00104241 -1.30106e-07 1.68144e-07)
(0.000778878 1.81379e-07 1.19785e-07)
(0.000779721 9.74478e-08 1.37983e-07)
(0.00104046 1.26322e-07 1.72121e-07)
(0.000777445 2.95054e-07 4.50271e-08)
(0.000778285 5.96055e-09 4.49795e-08)
(0.00103849 3.05555e-07 1.69427e-07)
(0.000776088 4.1494e-07 5.78227e-08)
(0.000776901 4.85034e-08 6.25762e-08)
(0.00103656 4.57416e-07 1.75767e-07)
(0.000774852 6.37335e-07 6.70715e-09)
(0.000775572 6.34935e-07 5.8269e-08)
(0.00103478 6.66758e-07 1.1098e-07)
(0.000773834 7.13399e-07 -2.9562e-09)
(0.000774188 9.68272e-07 -8.30113e-09)
(0.00103339 1.12277e-06 9.55539e-08)
(0.000771957 4.76053e-07 5.44644e-08)
(0.000772636 4.04806e-07 8.20254e-08)
(0.00103145 9.02661e-07 2.40481e-07)
(0.000770714 3.23467e-07 3.83911e-08)
(0.000771301 2.80199e-07 6.57508e-08)
(0.00102925 5.05337e-07 1.64089e-07)
(0.000769106 -1.99614e-08 1.87847e-08)
(0.000769908 3.02505e-08 6.88573e-09)
(0.00102735 5.22368e-07 2.24526e-07)
(0.000767674 -2.27883e-07 3.90353e-08)
(0.000768381 -2.12354e-07 2.32716e-07)
(0.00102529 -4.26478e-07 1.67915e-07)
(0.000766472 -1.21365e-08 5.22447e-08)
(0.000767127 6.63604e-08 4.67547e-08)
(0.00102354 -1.31722e-07 1.65564e-07)
(0.000765121 5.6045e-08 5.17932e-08)
(0.000765786 2.52425e-07 6.21434e-08)
(0.0010218 8.61309e-08 1.68918e-07)
(0.000763686 3.46442e-08 4.09418e-08)
(0.000764392 -1.20645e-08 4.4458e-08)
(0.00101998 7.51911e-08 1.63765e-07)
(0.000762464 -3.36905e-08 4.10854e-08)
(0.000763013 -1.14469e-07 -1.18256e-08)
(0.00101817 1.44518e-08 1.71468e-07)
(0.000761111 -1.33315e-07 2.79812e-08)
(0.00076166 2.49436e-07 4.75372e-08)
(0.00101649 -1.24787e-07 1.53931e-07)
(0.000759626 -1.31397e-07 -2.85576e-08)
(0.000760304 -2.50776e-07 2.81911e-08)
(0.00101451 -2.78687e-07 1.86711e-07)
(0.000758093 7.48835e-09 -4.98065e-09)
(0.000758949 7.22704e-07 1.3197e-08)
(0.00101241 -1.44666e-07 1.38753e-07)
(0.000756893 1.47157e-07 7.01908e-08)
(0.000757588 -1.39023e-07 6.03988e-08)
(0.00101059 1.25596e-07 1.70393e-07)
(0.000755681 2.8336e-07 8.77945e-08)
(0.00075632 1.31789e-07 2.45792e-07)
(0.00100916 3.10234e-07 1.74971e-07)
(0.000754484 4.96785e-07 -6.70567e-09)
(0.000755113 4.11031e-07 5.0751e-08)
(0.00100749 5.38476e-07 1.56751e-07)
(0.000752779 4.2381e-07 -3.04538e-08)
(0.000753621 -1.11918e-06 -2.24967e-08)
(0.00100546 8.20092e-07 1.85353e-07)
(0.000751664 1.7041e-07 4.58032e-08)
(0.000752195 2.25914e-07 4.72691e-08)
(0.00100359 2.88806e-07 1.49705e-07)
(0.000750431 9.98505e-08 5.86636e-08)
(0.000751064 4.49572e-08 4.59128e-08)
(0.00100198 1.55376e-07 1.57169e-07)
(0.000749025 2.05543e-07 5.79896e-08)
(0.000749848 1.00778e-06 4.13888e-08)
(0.0010003 8.72529e-08 9.73652e-08)
(0.000747011 2.66596e-07 4.5062e-08)
(0.000748066 1.25609e-06 3.31628e-08)
(0.00099793 4.01354e-07 1.65547e-07)
(0.000745863 2.3032e-07 1.0622e-07)
(0.000746397 -3.40834e-08 5.38591e-08)
(0.000995774 2.74297e-07 1.63182e-07)
(0.000745155 -1.26507e-06 1.07156e-07)
(0.000994336 3.40679e-07 1.92863e-07)
(-0.00688178 0.00449568 0.00190103)
(0.0133943 -0.0128733 -0.000277074)
(-0.00667081 -0.0106599 0.000804754)
(0.00661213 0.015453 0.00595882)
(0.0211227 0.00382273 0.00284827)
(0.00093784 0.0192596 0.0041666)
(0.0137765 0.00827625 0.00379753)
(0.0611263 0.013487 0.023903)
(0.00959421 0.0153953 -0.0817325)
(0.0255568 0.00453578 -0.00579268)
(0.0526804 -0.00469133 0.0558528)
(0.00245212 0.00199096 0.00061284)
(-0.00237599 0.00044783 0.000271693)
(-0.00352596 0.00183453 -0.00427373)
(0.000943581 -0.00552913 -0.000218188)
(-0.000463821 0.000864749 0.000669913)
(0.00263058 -0.00737922 -0.00113426)
(0.00129979 -0.00231615 -0.00254135)
(0.000598095 0.0002768 -0.0007194)
(-0.0081215 -0.00283872 0.00921127)
(-0.00302452 0.00339521 -0.00211774)
(0.00113217 0.00236462 0.00165686)
(0.000482613 0.00261894 -0.00258012)
(0.00135798 0.00433572 0.00497745)
(-0.00021702 0.00191303 0.000482779)
(0.00283409 0.00239189 0.00254282)
(-0.000905873 0.00217108 0.000951164)
(-0.00499 0.00217298 0.000452537)
(-0.002746 -5.77633e-05 0.000765482)
(-0.00191418 0.00287699 0.000845949)
(-0.000370699 -0.00065255 -8.96175e-05)
(0.000140216 -0.000254104 -0.000111545)
(0.000548553 0.00251505 -0.000138721)
(-0.000915156 -0.00145267 -0.000347283)
(-0.00145826 0.000304155 -7.75797e-05)
(0.000423182 0.00062356 5.06356e-06)
(0.000435203 0.000544114 -5.48684e-06)
(-9.61461e-05 0.000627718 -3.77144e-06)
(0.000346819 0.000289258 1.3968e-05)
(0.000401353 0.000693906 6.7239e-05)
(0.00093527 0.000208416 6.75505e-05)
(0.000711465 2.84527e-05 3.28096e-05)
(0.000903235 8.43965e-05 1.08417e-05)
(0.00097198 9.97418e-05 -3.89409e-06)
(0.000936769 3.60961e-05 1.58988e-05)
(0.000830635 9.29474e-05 -1.59867e-06)
(0.000786515 0.000127425 -2.94713e-06)
(0.00110568 0.000148784 -1.79797e-06)
(0.000616678 0.00011184 -3.14792e-06)
(0.000609341 0.000105866 -2.44172e-06)
(0.00107163 0.000202452 1.84345e-06)
(0.00106712 0.000185771 2.87563e-06)
(0.0008181 5.65667e-05 4.87318e-08)
(0.000796984 7.2435e-05 1.3642e-07)
(0.00109791 9.2531e-05 1.83613e-07)
(0.000809075 3.3802e-05 2.95505e-08)
(0.000797583 4.4616e-05 7.36189e-08)
(0.00108323 5.45438e-05 1.75052e-07)
(0.000803982 2.06376e-05 5.2462e-08)
(0.000797225 2.64774e-05 6.12619e-08)
(0.00107507 3.34009e-05 1.72472e-07)
(0.000799928 1.27646e-05 1.7945e-07)
(0.000796611 1.68117e-05 5.98874e-08)
(0.00106949 2.03139e-05 1.84626e-07)
(0.00079809 7.94781e-06 1.74873e-07)
(0.000795688 8.38233e-06 1.84272e-07)
(0.00106587 1.29169e-05 2.03104e-07)
(0.000796028 4.71803e-06 3.65276e-08)
(0.0007946 6.03119e-06 4.76085e-08)
(0.00106371 7.7814e-06 1.76366e-07)
(0.000793724 2.7663e-06 2.71881e-08)
(0.000793398 4.80968e-06 9.33673e-08)
(0.00106078 4.50078e-06 1.54749e-07)
(0.00079185 1.70845e-06 3.75205e-08)
(0.000792126 2.96776e-06 6.82264e-08)