/*--------------------------------*- C++ -*----------------------------------*\
| =========                 |                                                 |
| \\      /  F ield         | OpenFOAM: The Open Source CFD Toolbox           |
|  \\    /   O peration     | Version:  5.0                                   |
|   \\  /    A nd           | Web:      www.OpenFOAM.org                      |
|    \\/     M anipulation  |                                                 |
\*---------------------------------------------------------------------------*/
FoamFile
{
    version     2.0;
    format      ascii;
    class       surfaceVectorField;
    location    "0.6";
    object      Uf_0;
}
// * * * * * * * * * * * * * * * * * * * * * * * * * * * * * * * * * * * * * //

dimensions      [0 1 -1 0 0 0 0];

internalField   nonuniform List<vector> 
24376
(
(0.00392413 0.00521799 0.000149932)
(-0.00065565 0.00150027 -5.03926e-05)
(-0.00128426 -0.00102559 -0.000580547)
(0.00328101 0.00619216 -5.2165e-05)
(0.0101822 0.000904124 -0.00199324)
(0.0142512 0.00866245 4.77349e-05)
(0.0118611 0.00355983 0.000356224)
(0.00827558 0.0100682 0.000182412)
(0.0156735 0.00414499 -0.00101462)
(0.000973038 0.00311872 -0.000436721)
(0.00747444 0.00161138 3.74704e-05)
(-0.00121469 0.00268603 -0.00177766)
(0.00551453 0.0102355 0.000340392)
(-0.0115271 -0.00990279 -0.0010128)
(-0.00445169 -0.00385251 -0.0013665)
(-0.00335902 -0.000106077 -0.00193805)
(-0.0109436 -0.00540579 -0.000104731)
(-0.024152 -0.0111026 -0.00204129)
(-5.64907e-05 -0.00382381 -0.000131226)
(-0.000533648 -0.00520564 -0.00106193)
(-0.00278827 0.00281481 0.00225304)
(0.0152176 0.00408905 -0.00105702)
(0.016095 -0.0107903 0.00118564)
(0.00948265 -0.00652265 -0.000277444)
(0.0145024 -0.00563269 0.000661449)
(0.00962841 -0.013524 -0.00127209)
(0.00678504 -0.00129321 -0.000954397)
(0.00158157 -0.00152831 0.00024489)
(0.00115561 -0.00032125 3.28911e-05)
(0.00104051 -0.000311973 2.80821e-06)
(0.000550959 -0.00104905 2.67832e-05)
(0.000340713 -5.31545e-05 -1.83285e-06)
(0.000524922 -6.74085e-05 -3.46091e-06)
(0.0005577 -4.8464e-05 -1.49152e-06)
(0.000861167 -0.000119657 -2.00678e-06)
(0.000375072 -6.62745e-05 -2.50512e-06)
(0.000639748 -0.000100258 -1.95437e-06)
(0.000721223 -0.00013533 -2.55351e-06)
(0.000872217 -4.16759e-05 -1.26696e-06)
(0.000937369 -2.3614e-05 -1.93859e-06)
(0.00123072 -6.35741e-05 -1.58075e-06)
(0.00065088 -5.77583e-05 -4.20292e-06)
(0.000666708 -4.82712e-05 -4.81251e-06)
(0.00110791 -0.000111099 -4.33686e-06)
(0.00113481 -8.85987e-05 -5.05352e-06)
(0.000849236 -2.7699e-05 -1.40812e-07)
(0.000855322 -1.84507e-05 -4.47708e-07)
(0.00113494 -4.39453e-05 1.00347e-07)
(0.000834467 -1.73492e-05 9.04453e-08)
(0.000846096 -1.21116e-05 1.16716e-07)
(0.00112227 -2.73144e-05 2.07337e-07)
(0.000824743 -1.09734e-05 7.01362e-08)
(0.000831135 -8.02111e-06 2.43824e-08)
(0.00110408 -1.71969e-05 1.76573e-07)
(0.000818617 -6.90931e-06 3.36087e-08)
(0.00082297 -5.08402e-06 5.83527e-08)
(0.00109415 -1.0914e-05 1.83526e-07)
(0.00081452 -4.12176e-06 3.58928e-08)
(0.000817279 -3.26171e-06 2.07246e-08)
(0.00108765 -6.77931e-06 1.84126e-07)
(0.000810318 -2.40516e-06 6.18962e-08)
(0.000812867 -2.32568e-06 5.94528e-08)
(0.00108219 -3.77678e-06 1.60853e-07)
(0.000807535 -1.54534e-06 6.49403e-08)
(0.000809291 -1.35659e-06 4.77808e-08)
(0.0010775 -2.38173e-06 1.85678e-07)
(0.000805297 -9.71871e-07 6.60583e-08)
(0.000806651 -1.47314e-06 3.94313e-08)
(0.00107425 -1.57185e-06 2.48692e-07)
(0.00080339 -4.87501e-07 6.29727e-08)
(0.000804437 -3.85265e-07 5.0872e-08)
(0.00107153 -9.19439e-07 1.77601e-07)
(0.000801025 -2.25385e-07 6.80156e-08)
(0.000802333 -5.7246e-07 6.30539e-08)
(0.00106875 -3.56738e-07 1.73918e-07)
(0.00079922 -2.21373e-07 8.58892e-08)
(0.000800289 -5.94903e-07 6.15684e-08)
(0.00106591 -2.59992e-07 1.76357e-07)
(0.000797838 -2.40887e-07 8.13893e-08)
(0.000798556 -6.21598e-08 6.68573e-08)
(0.0010638 -3.44366e-07 1.3357e-07)
(0.000796085 -1.40646e-07 5.58802e-08)
(0.000796997 -1.81912e-07 7.23332e-08)
(0.00106185 -3.01556e-07 1.83844e-07)
(0.000794523 -7.78221e-08 4.09171e-08)
(0.000795294 1.22513e-07 6.3328e-08)
(0.00105958 -3.1743e-08 1.61051e-07)
(0.000792937 -8.04388e-08 3.43466e-08)
(0.000793622 3.72102e-07 5.71248e-08)
(0.00105743 -1.0883e-07 1.45434e-07)
(0.000791359 3.69887e-08 4.39203e-08)
(0.000792217 -1.53616e-07 4.16355e-08)
(0.00105541 -5.1641e-08 1.81322e-07)
(0.000789515 2.01981e-07 3.30763e-08)
(0.000790585 -3.83482e-07 1.36922e-08)
(0.00105313 2.11478e-07 2.15875e-07)
(0.000788107 2.37843e-07 4.2574e-08)
(0.000788825 -1.02139e-06 7.4823e-08)
(0.00105093 4.14824e-07 2.57045e-07)
(0.000786633 1.60426e-07 5.63643e-08)
(0.000787253 3.29489e-07 4.66345e-08)
(0.00104901 2.99895e-07 1.76715e-07)
(0.000785127 2.14136e-07 6.05783e-08)
(0.000785864 -7.03969e-09 5.16553e-08)
(0.0010472 1.59556e-07 1.82128e-07)
(0.000782868 8.24367e-08 7.30716e-08)
(0.000783918 -4.03187e-07 4.00236e-08)
(0.00104457 3.94632e-07 3.0059e-07)
(0.000781478 -3.48441e-07 1.22829e-08)
(0.000781913 -2.4177e-07 6.71072e-08)
(0.00104205 -2.25279e-07 1.5937e-07)
(0.000779976 -5.01204e-07 3.15623e-09)
(0.000780653 1.95748e-06 4.09844e-08)
(0.00104026 -7.61405e-07 -1.18748e-08)
(0.000778355 -3.28356e-07 2.1303e-08)
(0.000779276 9.73549e-07 5.43705e-08)
(0.00103802 -6.20802e-07 1.88961e-07)
(0.000776712 -2.23145e-07 1.81065e-08)
(0.00077762 2.18368e-07 9.7038e-08)
(0.00103586 -3.00319e-07 1.51792e-07)
(0.00077587 -6.54884e-08 5.75704e-08)
(0.000776495 4.39967e-08 9.84169e-08)
(0.00103441 -2.87714e-07 8.69839e-08)
(0.000774218 2.05553e-07 5.82801e-08)
(0.000775218 1.39835e-07 5.53015e-08)
(0.00103277 1.74554e-07 1.75797e-07)
(0.000772496 1.81343e-07 9.34021e-08)
(0.00077325 9.64625e-08 5.72626e-08)
(0.00103041 4.24348e-07 2.09689e-07)
(0.000770495 1.06179e-07 8.92585e-08)
(0.000771499 7.05103e-08 9.37754e-08)
(0.00102786 9.65447e-08 1.76894e-07)
(0.00076912 2.53446e-07 6.05653e-09)
(0.000769972 3.44205e-08 4.7929e-08)
(0.00102553 2.28223e-07 1.64363e-07)
(0.000767558 3.87387e-07 1.23231e-08)
(0.000768473 2.39362e-07 -5.5672e-09)
(0.00102368 5.16787e-07 1.857e-07)
(0.000766673 2.71403e-07 4.44377e-08)
(0.000767079 -9.17634e-07 3.16732e-08)
(0.00102218 5.57242e-07 1.88055e-07)
(0.00076509 5.31615e-08 5.26085e-08)
(0.000765629 1.72567e-07 3.90758e-08)
(0.00102043 1.63734e-07 1.73108e-07)
(0.0007636 -1.13841e-07 8.28851e-08)
(0.000764077 -9.47253e-08 7.08926e-08)
(0.00101825 -1.45892e-08 1.69991e-07)
(0.000762235 -2.21567e-07 1.79692e-07)
(0.000762795 -3.64983e-07 5.69467e-08)
(0.00101662 -3.19213e-07 1.7695e-07)
(0.000760612 -2.0031e-07 1.50981e-07)
(0.000761415 -3.71024e-07 1.4382e-07)
(0.00101447 -3.29201e-07 1.90024e-07)
(0.000759062 -1.77491e-07 2.97194e-08)
(0.000759885 1.71174e-07 4.6641e-08)
(0.00101225 -2.47014e-07 1.69726e-07)
(0.000757734 -2.34764e-07 4.34373e-08)
(0.000758411 -2.25938e-08 4.13766e-08)
(0.00101041 -2.63916e-07 1.55711e-07)
(0.000756354 -4.20178e-07 5.15012e-08)
(0.000757022 -1.39131e-07 7.84287e-08)
(0.00100857 -3.49904e-07 1.85208e-07)
(0.000754807 -5.08111e-07 3.79425e-08)
(0.000755662 -3.52031e-07 4.35968e-08)
(0.00100678 -7.06784e-07 1.69753e-07)
(0.000753429 -3.58472e-07 5.44832e-08)
(0.000754099 -2.13461e-07 8.26961e-09)
(0.0010047 -6.02389e-07 1.58439e-07)
(0.000752788 -4.68927e-07 4.94825e-08)
(0.00100255 -3.59421e-07 2.62369e-07)
(-0.000425304 -0.000654668 1.07861e-05)
(0.000968592 0.00153088 8.87112e-05)
(0.000117781 0.00467077 0.000102933)
(-0.00176237 -0.00212981 -0.000236951)
(-0.000330303 -0.00191024 -4.59949e-05)
(-0.000707232 -0.00336311 -0.000164857)
(0.00391268 0.00382462 -1.13661e-05)
(0.00454158 -0.00479153 1.959e-05)
(0.0107341 0.0042079 8.8556e-05)
(0.00974832 -0.00662036 0.000409553)
(0.00224181 0.000450213 0.000107235)
(0.00530918 -0.00806588 0.00019159)
(0.00379029 0.00241875 8.46319e-05)
(-0.000943607 0.0012133 -0.000951911)
(-0.00404268 0.00715447 -0.000475491)
(0.00208369 0.00208123 -4.94229e-05)
(0.00529243 -0.00524369 0.000133237)
(0.0103803 -0.0017578 0.00117292)
(0.0060195 -0.00386443 0.00258509)
(0.0174108 -0.00870835 0.00266163)
(0.0319568 -0.0141363 0.00112611)
(0.0138562 0.00211375 0.00258052)
(-0.00847558 -0.00552028 0.00371144)
(-0.00574702 -0.015362 0.00139887)
(0.000350243 -0.00993847 0.000977613)
(-0.00392986 -0.019456 0.00112395)
(0.00408848 -0.00653282 0.00133319)
(0.00486178 -0.000818023 0.000162371)
(0.0016097 -0.00496195 -0.00011084)
(0.00223485 -0.000372047 8.69939e-05)
(0.00520748 -0.000709286 0.00025243)
(0.00587839 -0.000620123 -5.97298e-05)
(0.000400421 8.45081e-06 -3.09872e-06)
(0.000627519 1.47141e-06 -3.64706e-07)
(0.000551158 1.80495e-06 -3.0847e-06)
(0.000628501 1.0484e-06 3.63888e-07)
(0.00109271 4.02927e-06 6.24241e-07)
(0.000430319 9.83154e-06 6.25229e-07)
(0.000651288 2.30269e-05 -6.54584e-06)
(0.000748783 2.8446e-05 5.80622e-06)
(0.000883681 1.93582e-07 -1.11982e-06)
(0.00091799 1.87041e-05 -2.09157e-06)
(0.00126752 3.07372e-06 -1.41645e-06)
(0.000663246 1.17208e-06 -5.24833e-06)
(0.000679084 2.9255e-05 -4.79611e-06)
(0.00110508 4.19077e-06 -5.74605e-06)
(0.00115279 7.01718e-05 -5.11368e-06)
(0.00085743 -1.16093e-06 -1.90365e-07)
(0.000853601 1.40356e-05 -2.67597e-07)
(0.00114353 7.74305e-07 6.71037e-08)
(0.000840179 -1.76217e-06 5.06833e-08)
(0.000845336 7.17315e-06 1.18709e-07)
(0.00113156 -1.57825e-06 2.00699e-07)
(0.000828789 -1.39708e-06 1.25879e-08)
(0.000831589 4.25014e-06 1.31272e-08)
(0.00111003 -1.60034e-06 1.77978e-07)
(0.000821062 -9.56431e-07 4.54809e-08)
(0.00082352 2.53271e-06 5.85855e-08)
(0.00109828 -1.14219e-06 1.82432e-07)
(0.000815614 -7.65467e-07 4.42721e-08)
(0.000817517 1.51467e-06 4.65933e-08)
(0.0010897 -7.76183e-07 1.81343e-07)
(0.000811455 -5.97426e-07 4.53411e-08)
(0.000813078 8.3832e-07 4.7095e-08)
(0.00108349 -8.49372e-07 1.80884e-07)
(0.000808311 -3.49083e-07 2.22745e-08)
(0.000809602 5.48191e-07 4.87856e-08)
(0.00107873 -4.7747e-07 1.79559e-07)
(0.000805683 -1.7075e-07 2.42412e-08)
(0.000806875 5.73305e-07 -4.03732e-08)
(0.00107497 -3.06866e-07 1.25103e-07)
(0.000803473 -6.21286e-08 5.09492e-08)
(0.000804573 3.1638e-07 5.05615e-08)
(0.00107182 -6.60608e-08 1.81364e-07)
(0.000801448 7.70131e-08 5.66072e-08)
(0.000802507 -5.45664e-07 1.80489e-08)
(0.00106905 -4.689e-08 2.11824e-07)
(0.000799596 2.16695e-07 4.25348e-08)
(0.000800463 3.48419e-07 1.30516e-08)
(0.00106648 2.73628e-07 1.33728e-07)
(0.000797713 2.48335e-07 5.77994e-08)
(0.000798595 3.77166e-07 3.52564e-08)
(0.00106397 3.11265e-07 1.71185e-07)
(0.000796213 2.35019e-07 7.97838e-08)
(0.000796979 -3.65312e-07 6.19788e-08)
(0.00106182 3.68679e-07 1.81158e-07)
(0.000794359 2.93997e-07 7.95377e-08)
(0.000795366 2.33396e-07 5.71001e-08)
(0.00105954 2.74989e-07 1.91552e-07)
(0.000792872 3.48825e-07 6.44186e-08)
(0.000793689 5.51363e-07 7.33079e-08)
(0.00105723 5.43917e-07 1.54805e-07)
(0.000791555 1.98459e-07 1.14162e-08)
(0.000792027 -1.14233e-06 -1.52203e-08)
(0.00105556 4.483e-07 2.21482e-07)
(0.000789789 4.46119e-08 5.54194e-08)
(0.000790392 1.76514e-08 1.62623e-08)
(0.00105353 1.55227e-07 1.63717e-07)
(0.000787989 -3.65884e-08 7.88923e-08)
(0.000788723 2.1482e-08 8.19541e-08)
(0.00105101 3.44013e-08 1.21825e-07)
(0.000786413 -1.53919e-07 4.19239e-08)
(0.000787106 6.12154e-09 4.67215e-08)
(0.00104873 -7.52935e-08 1.97922e-07)
(0.000784985 -5.36809e-07 3.11043e-08)
(0.000785387 -2.63433e-07 5.65224e-08)
(0.00104686 -2.97015e-07 1.8058e-07)
(0.000782659 -6.63591e-07 3.40507e-08)
(0.000783762 2.09505e-06 -4.99572e-08)
(0.00104434 -1.12813e-06 6.56323e-08)
(0.000781006 -4.40448e-07 9.5817e-08)
(0.000782194 -2.59444e-08 6.26124e-08)
(0.00104155 -6.44565e-07 1.67291e-07)
(0.000780026 -2.95851e-07 9.21945e-08)
(0.000780835 -6.94519e-09 1.16455e-07)
(0.00103997 -5.21044e-07 2.62241e-07)
(0.000778761 7.49633e-08 1.30092e-07)
(0.000779739 -1.19258e-07 5.84691e-08)
(0.00103847 -2.47465e-07 2.26227e-07)
(0.000776883 5.88147e-07 1.77348e-07)
(0.000778259 5.27886e-07 2.12117e-07)
(0.00103632 5.43298e-07 1.81268e-07)
(0.000776314 4.68393e-07 9.61614e-08)
(0.000776343 -3.45803e-06 6.8078e-08)
(0.00103482 1.10919e-06 3.36506e-07)
(0.000774148 -1.63239e-08 5.42833e-08)
(0.000774611 8.98312e-07 6.91478e-08)
(0.00103299 1.61116e-07 1.75745e-07)
(0.000772235 -9.8161e-08 5.76245e-08)
(0.000773147 6.15688e-07 5.87442e-08)
(0.0010301 -1.66362e-07 1.70404e-07)
(0.000770917 3.25328e-08 5.24601e-08)
(0.000771662 4.9754e-08 5.96452e-08)
(0.00102795 -5.17608e-08 1.56322e-07)
(0.000769368 2.06655e-07 3.63218e-08)
(0.000770189 5.21791e-08 5.46701e-08)
(0.00102621 2.00022e-07 1.74637e-07)
(0.00076788 3.53541e-07 1.37714e-08)
(0.000768655 3.58545e-07 3.37784e-08)
(0.00102407 4.43797e-07 1.62212e-07)
(0.000766155 2.04243e-07 2.6309e-08)
(0.000766891 -6.80349e-07 1.68346e-08)
(0.00102185 5.63512e-07 1.7556e-07)
(0.000764548 -1.13503e-07 5.73502e-08)
(0.000765231 4.00864e-07 4.17003e-08)
(0.0010197 6.55319e-09 1.66098e-07)
(0.000763275 -3.87445e-07 4.49586e-08)
(0.000763735 -3.25987e-07 6.45948e-08)
(0.0010177 -2.75746e-07 1.69499e-07)
(0.000761991 -4.67612e-07 2.10482e-08)
(0.000762697 -7.02959e-07 2.89999e-08)
(0.00101596 -7.19625e-07 1.78856e-07)
(0.000760692 -2.51353e-07 3.95095e-08)
(0.000761687 -1.29221e-07 4.93762e-08)
(0.00101445 -5.54464e-07 1.38834e-07)
(0.000759228 -1.30505e-07 5.82999e-08)
(0.000760037 -1.02604e-07 6.96703e-08)
(0.00101256 -1.84235e-07 1.91774e-07)
(0.000757652 -4.34054e-08 7.63567e-08)
(0.000758521 4.34484e-08 8.85499e-08)
(0.00101049 -1.95865e-07 1.77917e-07)
(0.000756379 -2.68412e-08 7.05349e-08)
(0.000757043 -1.75666e-06 1.2207e-07)
(0.00100861 9.09795e-08 2.73593e-07)
(0.000754967 -1.46416e-07 1.39347e-08)
(0.000755513 -3.98818e-07 5.94205e-08)
(0.00100677 -1.22957e-07 1.7246e-07)
(0.00075332 -2.04589e-07 3.25635e-09)
(0.000754029 2.22348e-07 1.64762e-08)
(0.00100465 -2.62637e-07 1.59353e-07)
(0.000753043 1.44685e-07 4.63377e-08)
(0.00100327 -2.98535e-07 7.52115e-08)
(0.00208222 0.000142263 3.1975e-05)
(0.0016074 -0.00223251 -0.000110563)
(0.00237281 -0.000115177 0.000147119)
(0.000963351 -0.00139458 -1.15372e-05)
(0.00133088 -0.000238623 0.000222823)
(0.00143354 0.00068552 -1.82692e-05)
(0.00133088 -0.000238623 0.000222823)
(0.00133088 -0.000238623 0.000222823)
(0.00133088 -0.000238623 0.000222823)
(0.00143354 0.00068552 -1.82692e-05)
(0.00143354 0.00068552 -1.82692e-05)
(0.00143354 0.00068552 -1.82692e-05)
(-0.00398122 0.00545827 0.000634932)
(0.000996311 -0.00118778 -2.94382e-06)
(0.00221092 -0.00317343 -0.000275558)
(0.00425066 0.000331858 0.000130248)
(-0.00536583 -0.00345177 0.000285118)
(0.0064698 0.00203523 0.00010764)
(0.000418386 -0.0135594 0.000827614)
(0.00463051 -0.000926169 0.000690552)
(0.00210613 0.000190137 0.00151608)
(0.00634443 -0.00189139 -0.00177534)
(0.00291181 0.014176 0.000234175)
(-0.0151409 0.0087889 -0.000477287)
(-0.00146244 0.00277225 0.00100774)
(-0.00482393 0.00595805 0.00170102)
(0.00357227 0.00879042 -8.48072e-05)
(-0.0197804 -0.00167709 0.000349439)
(-0.0103725 -0.00721929 0.000990718)
(0.00518184 -0.00426849 0.00331392)
(0.00684216 0.00467004 -0.000376182)
(0.00563813 0.00239293 -0.000110112)
(-0.00616352 -0.00180528 -0.000323344)
(0.00196163 -0.000108496 -2.46912e-05)
(0.00182372 -0.000351063 -0.000486)
(0.000760842 -0.000767171 -0.000498936)
(0.000344793 -1.85874e-05 2.50002e-05)
(0.000403649 4.2274e-05 2.43833e-06)
(0.000331511 2.73999e-05 6.47274e-06)
(0.000534507 8.18852e-05 8.70508e-06)
(0.000253596 3.11539e-05 3.50313e-08)
(0.00085916 2.54113e-05 -1.23994e-06)
(0.000894097 3.62217e-05 -2.22296e-06)
(0.00117756 4.00853e-05 -1.59247e-06)
(0.000633473 3.48762e-05 -4.58446e-06)
(0.000626227 7.34062e-06 -4.67323e-06)
(0.0010889 7.30711e-05 -4.93953e-06)
(0.00106627 1.06617e-05 -4.89877e-06)
(0.000846232 1.8188e-05 4.135e-08)
(0.00084446 2.83779e-05 -2.0837e-07)
(0.00112904 3.08858e-05 1.68246e-07)
(0.000834518 1.16154e-05 8.11872e-08)
(0.000837043 1.94772e-05 1.18269e-07)
(0.00111928 1.93871e-05 2.03961e-07)
(0.000825823 7.52171e-06 5.911e-08)
(0.000826423 1.30496e-05 3.93086e-08)
(0.00110461 1.25957e-05 1.84762e-07)
(0.000819445 4.77313e-06 5.97018e-08)
(0.000820053 8.31289e-06 5.01945e-08)
(0.00109518 8.04836e-06 1.92724e-07)
(0.000814711 2.98146e-06 4.94161e-08)
(0.000815259 5.37836e-06 4.78856e-08)
(0.00108802 5.02833e-06 1.82635e-07)
(0.000810993 1.87476e-06 5.05389e-08)
(0.000811682 3.43675e-06 4.98198e-08)
(0.00108256 3.12756e-06 1.81637e-07)
(0.000808023 1.18962e-06 -1.38332e-08)
(0.000808738 2.2258e-06 4.85684e-08)
(0.00107818 1.98792e-06 1.80138e-07)
(0.000805673 7.30539e-07 -1.40823e-08)
(0.000806296 1.35756e-06 -1.65676e-08)
(0.00107477 1.24888e-06 1.88185e-07)
(0.000803589 4.46484e-07 1.76717e-08)
(0.000804215 9.19422e-07 5.07149e-08)
(0.00107185 7.32426e-07 1.77781e-07)
(0.000801526 2.61975e-07 -2.55051e-08)
(0.000802275 1.04118e-06 4.6582e-08)
(0.00106917 4.71519e-07 1.07877e-07)
(0.000799347 1.80629e-07 5.76608e-09)
(0.00080036 5.68716e-07 3.53397e-09)
(0.00106635 2.08118e-07 2.12066e-07)
(0.000797855 2.25827e-07 3.94272e-08)
(0.000798651 6.26099e-08 4.79554e-08)
(0.00106392 2.37474e-07 1.89604e-07)
(0.000796115 2.15921e-07 3.92966e-08)
(0.000796966 -1.87996e-07 5.28749e-08)
(0.0010618 3.36321e-07 1.76848e-07)
(0.000794727 2.15334e-07 5.08651e-08)
(0.000795364 -1.78927e-08 4.90284e-08)
(0.0010598 2.1796e-07 1.76184e-07)
(0.00079283 2.63834e-07 -6.30285e-09)
(0.000793749 -2.19486e-07 3.60098e-08)
(0.00105764 3.62777e-07 2.56766e-07)
(0.000790842 1.42619e-07 -1.03842e-08)
(0.000791875 -1.04222e-07 -3.31035e-09)
(0.00105492 3.7515e-07 1.38456e-07)
(0.00078932 -8.95923e-09 4.27761e-08)
(0.000790202 -2.5864e-07 2.39913e-08)
(0.00105261 1.99975e-08 1.89786e-07)
(0.000787825 -6.67275e-08 4.97944e-08)
(0.000788651 -1.54037e-07 3.58462e-08)
(0.00105064 -4.38032e-08 1.80371e-07)
(0.000786174 -8.43104e-08 6.1317e-08)
(0.000787084 5.25302e-08 6.16933e-08)
(0.0010486 -1.04953e-07 1.78606e-07)
(0.000784053 -1.00816e-07 -2.45054e-08)
(0.000785366 -5.11719e-09 7.25816e-08)
(0.00104589 -6.71505e-08 2.0519e-07)
(0.000783372 1.47192e-07 -2.14309e-08)
(0.000784071 -1.33999e-06 -2.27179e-08)
(0.00104414 -1.40183e-07 3.38833e-07)
(0.000781808 6.00584e-07 8.32334e-08)
(0.000782759 -1.24262e-06 4.65337e-08)
(0.00104282 5.92396e-07 2.6068e-07)
(0.000780643 7.65012e-07 8.27476e-08)
(0.000781038 -8.84682e-07 5.83899e-08)
(0.00104076 1.04489e-06 2.01768e-07)
(0.000779315 7.05863e-07 1.40446e-07)
(0.000779662 -1.9166e-06 2.62127e-08)
(0.00103935 1.00775e-06 2.8174e-07)
(0.000777833 6.21287e-07 1.02892e-07)
(0.000778151 7.15008e-07 1.19095e-07)
(0.00103755 8.82201e-07 1.55017e-07)
(0.000774458 3.28237e-07 4.1064e-08)
(0.000775974 -1.67776e-07 1.89832e-08)
(0.00103393 7.5222e-07 1.02717e-07)
(0.000773624 4.12843e-09 7.36119e-08)
(0.000774205 9.55785e-08 7.10638e-08)
(0.00103118 9.82515e-08 1.68217e-07)
(0.000772573 -1.04719e-08 6.07646e-08)
(0.000773129 1.41437e-08 6.9021e-08)
(0.00103015 -9.38245e-08 1.7353e-07)
(0.000770957 2.45819e-08 6.18568e-08)
(0.000771706 4.1375e-08 5.50353e-08)
(0.00102832 6.27098e-08 1.82128e-07)
(0.0007694 4.42583e-08 5.21331e-08)
(0.000770213 6.33709e-08 5.5051e-08)
(0.00102614 9.00368e-09 1.7577e-07)
(0.00076788 -6.01877e-09 3.68469e-08)
(0.000768592 4.57811e-07 1.8588e-08)
(0.00102413 9.21954e-08 1.6661e-07)
(0.000765749 -9.8679e-08 3.22182e-08)
(0.000766776 2.66297e-07 4.55025e-08)
(0.00102163 -1.14377e-07 1.61034e-07)
(0.000764506 -1.01148e-07 4.89378e-08)
(0.000765228 1.34105e-07 4.53816e-08)
(0.00101938 -1.2955e-07 1.68933e-07)
(0.000762844 1.66078e-07 4.86471e-08)
(0.000764068 3.71354e-08 4.62766e-08)
(0.00101735 -1.11009e-07 1.6169e-07)
(0.000762776 3.13226e-07 5.73216e-08)
(0.00076288 -2.10534e-06 4.93602e-08)
(0.00101628 6.11165e-07 1.45968e-07)
(0.000760967 1.30361e-07 7.95307e-08)
(0.000761457 2.25159e-07 5.04798e-08)
(0.00101514 3.29825e-07 1.76911e-07)
(0.000759285 1.01719e-07 9.99145e-08)
(0.00076 2.86189e-07 6.31993e-08)
(0.00101271 1.65905e-07 1.63379e-07)
(0.000757883 2.08052e-07 1.34253e-07)
(0.000758652 -1.23828e-07 8.15664e-08)
(0.00101075 2.27111e-07 1.79043e-07)
(0.000756178 2.14864e-07 1.10974e-07)
(0.00075705 1.69837e-07 1.14053e-07)
(0.00100866 3.84936e-07 5.47612e-08)
(0.000754621 1.19399e-07 6.19751e-08)
(0.000755393 -7.15847e-08 5.32522e-08)
(0.00100634 2.31789e-07 1.58339e-07)
(0.00075349 8.35499e-08 5.95485e-08)
(0.000753982 -3.20299e-07 4.46591e-08)
(0.00100449 1.31401e-07 1.83787e-07)
(0.000752938 1.20359e-07 5.68957e-08)
(0.00100325 1.07238e-07 1.57576e-07)
(0.00171026 -0.00435835 8.01747e-05)
(-0.00797416 -0.00819768 0.00150491)
(0.00165353 -0.00108089 -0.000130952)
(-0.00749073 0.00297996 0.00312574)
(-0.00773436 -0.00760787 0.00445007)
(-0.00595509 0.00713487 -0.000744004)
(0.00106763 -0.00101623 0.00272015)
(0.00174679 -0.0011034 0.00430703)
(0.0087042 -0.00177546 -0.00740994)
(0.00171026 -0.00435835 8.01747e-05)
(0.00171026 -0.00435835 8.01747e-05)
(0.00171026 -0.00435835 8.01747e-05)
(0.00133088 -0.000238623 0.000222823)
(0.00171026 -0.00435835 8.01747e-05)
(0.00171026 -0.00435835 8.01747e-05)
(-0.000479014 -0.000271752 -0.000155048)
(0.00117817 0.000988141 0.000221723)
(0.000503321 0.000849299 -4.78556e-05)
(0.000689225 -0.00136518 0.000231492)
(0.000689225 -0.00136518 0.000231492)
(0.000689225 -0.00136518 0.000231492)
(0.000689225 -0.00136518 0.000231492)
(-0.00184849 0.00019092 -0.00022568)
(-0.00173768 0.00153442 9.5063e-05)
(-0.000303946 -0.00207646 0.00208984)
(-0.000726975 -0.000306139 -0.000106205)
(-0.00240454 -0.000276094 -0.000620798)
(-0.00062257 -0.000346232 -6.76154e-05)
(0.00451923 -0.000268783 0.000589269)
(-0.00132054 0.000436917 0.00133218)
(0.00728221 -0.00205928 -0.00187717)
(-0.00506399 -0.0155715 0.000965101)
(-0.00185106 -0.00475123 -0.00433031)
(-0.00196701 -0.00167701 -0.000178012)
(-0.00288135 -0.00156763 0.00114083)
(-0.00173768 0.00153442 9.5063e-05)
(-0.00173768 0.00153442 9.5063e-05)
(-0.00173768 0.00153442 9.5063e-05)
(-0.012202 -0.00142941 0.000288379)
(0.000525213 0.00771152 8.91803e-05)
(-0.000301234 0.00173571 -8.32947e-05)
(-0.000885444 0.000693733 -0.00041217)
(0.00907288 0.000988111 0.000310046)
(0.000844697 0.00561325 0.000142042)
(0.000311586 0.00108845 1.25299e-05)
(0.000170065 0.000685789 1.03566e-05)
(0.00107767 0.00201585 6.52551e-05)
(0.00125152 3.52253e-05 1.88978e-05)
(0.000481961 -9.41541e-05 3.49046e-05)
(0.000521602 -8.65964e-05 4.78666e-05)
(0.000694819 -0.000112975 7.36758e-05)
(0.000371807 -5.84961e-05 1.99916e-05)
(0.000857024 4.78196e-05 -1.19205e-06)
(0.000853638 7.18814e-05 -2.35545e-06)
(0.00119973 7.35247e-05 -1.51181e-06)
(0.000644955 3.08679e-05 -5.29626e-06)
(0.000645761 7.22419e-05 -4.64157e-06)
(0.00108431 5.26842e-05 -4.81521e-06)
(0.00109304 0.000145485 -3.7213e-06)
(0.000838183 3.37532e-05 -1.31558e-07)
(0.000826672 5.12136e-05 -1.28033e-07)
(0.00111738 5.48736e-05 9.24797e-08)
(0.000827109 2.18231e-05 7.64166e-08)
(0.000822004 3.12704e-05 8.83252e-08)
(0.00110848 3.52724e-05 1.83632e-07)
(0.000820199 1.4116e-05 3.03895e-08)
(0.00081671 1.97432e-05 3.98624e-08)
(0.00109573 2.28261e-05 1.75906e-07)
(0.000815397 8.91952e-06 3.8379e-08)
(0.000813509 1.24273e-05 3.54811e-08)
(0.00108874 1.46743e-05 1.71704e-07)
(0.000812006 5.57e-06 4.82887e-08)
(0.000811041 7.58466e-06 8.27049e-08)
(0.00108349 8.98987e-06 1.81038e-07)
(0.000809275 3.64314e-06 4.78496e-08)
(0.000809255 4.80872e-06 5.19314e-08)
(0.00107966 5.76753e-06 1.80942e-07)
(0.00080688 2.41216e-06 4.58551e-08)
(0.000807187 3.19237e-06 4.07742e-08)
(0.00107636 3.85974e-06 1.79527e-07)
(0.000804751 1.46365e-06 4.82078e-08)
(0.000805103 2.03786e-06 3.59237e-08)
(0.00107339 2.50389e-06 1.76553e-07)
(0.000802901 8.00388e-07 7.96266e-08)
(0.000803381 1.1792e-06 5.08677e-08)
(0.00107084 1.36492e-06 1.81561e-07)
(0.000801119 3.88884e-07 7.56349e-08)
(0.000801758 6.23033e-07 7.85644e-08)
(0.00106839 7.71449e-07 2.22314e-07)
(0.000799536 1.16292e-07 4.5709e-08)
(0.000800018 1.86539e-07 1.20884e-07)
(0.00106618 2.82935e-07 2.02371e-07)
(0.000797856 2.99303e-10 6.14015e-08)
(0.000798506 4.12483e-07 1.81012e-09)
(0.00106413 2.39449e-08 1.59912e-07)
(0.000796083 -7.23523e-08 6.26079e-08)
(0.000796875 -1.95221e-10 6.94123e-08)
(0.00106179 -3.05505e-08 1.78999e-07)
(0.000794477 -1.88885e-07 3.41772e-08)
(0.000795219 -2.88472e-08 4.10747e-08)
(0.00105957 -1.60526e-07 1.78264e-07)
(0.000792793 -2.27246e-07 3.90148e-08)
(0.000793702 -2.45136e-07 1.26894e-07)
(0.00105742 -3.47824e-07 1.86217e-07)
(0.000791177 -1.09792e-07 3.10565e-08)
(0.000792022 1.02465e-08 7.84756e-08)
(0.00105513 -2.65763e-07 1.70528e-07)
(0.000789526 7.43828e-08 1.70577e-08)
(0.000790432 -1.29434e-08 3.63978e-08)
(0.001053 -4.19714e-08 1.64543e-07)
(0.000787883 2.21324e-07 4.7737e-08)
(0.000788834 -4.03287e-08 4.91724e-08)
(0.00105086 2.19419e-07 1.73092e-07)
(0.000786394 3.27315e-07 7.29545e-08)
(0.000787215 -2.37168e-08 6.55614e-08)
(0.0010487 3.67169e-07 1.72978e-07)
(0.0007851 6.75671e-07 7.43993e-08)
(0.000785799 -5.23342e-07 5.81742e-08)
(0.00104682 5.4644e-07 1.8716e-07)
(0.000783726 8.6043e-07 4.5225e-08)
(0.000784298 -1.92902e-06 3.76404e-08)
(0.00104516 1.3281e-06 1.99447e-07)
(0.000781881 7.56525e-07 2.16866e-08)
(0.000782625 -3.75979e-08 2.30445e-08)
(0.00104302 1.02908e-06 1.14485e-07)
(0.000780042 7.19145e-07 1.86506e-09)
(0.000780987 -2.21256e-07 3.67128e-08)
(0.00104048 1.02042e-06 1.5234e-07)
(0.000778511 2.58358e-07 4.8328e-09)
(0.000779084 -2.24154e-07 2.911e-08)
(0.00103826 9.25486e-07 5.24002e-08)
(0.000776629 -3.00731e-07 3.52175e-08)
(0.000777452 1.76621e-06 4.88095e-08)
(0.001036 -2.0086e-07 1.28977e-07)
(0.000775227 -1.99719e-07 4.89667e-08)
(0.000776101 -3.29594e-07 5.02641e-08)
(0.00103384 -5.40619e-07 1.72858e-07)
(0.000773795 8.84252e-08 6.64735e-08)
(0.000774565 4.36816e-08 5.19199e-08)
(0.00103193 6.4359e-08 1.68036e-07)
(0.000772355 8.39651e-08 6.3296e-08)
(0.000773123 -1.4846e-07 6.28779e-08)
(0.00103005 1.76041e-07 1.76932e-07)
(0.000770889 -2.12656e-08 4.82294e-08)
(0.000771575 4.11924e-08 3.43986e-08)
(0.00102808 3.25061e-08 1.68082e-07)
(0.00076953 -2.27461e-07 2.15171e-08)
(0.000769956 -1.71952e-07 4.90129e-08)
(0.00102624 -1.12896e-07 1.75773e-07)
(0.000767471 -3.24626e-07 2.72354e-08)
(0.000768472 2.53891e-06 5.49232e-08)
(0.00102392 -5.077e-07 7.26351e-08)
(0.000766155 -8.70951e-08 5.8666e-08)
(0.000767073 -3.12797e-07 2.28496e-08)
(0.00102157 -3.64699e-07 1.9745e-07)
(0.000764686 2.40379e-07 4.27201e-08)
(0.000765637 9.94687e-08 5.58217e-08)
(0.0010197 1.13639e-07 1.72568e-07)
(0.000764216 5.16355e-07 4.69888e-08)
(0.000764412 -3.75673e-07 9.44468e-08)
(0.00101862 5.17065e-07 1.10269e-07)
(0.000761607 4.62263e-07 4.2518e-08)
(0.00076281 -1.04195e-06 6.05832e-08)
(0.00101651 8.61459e-07 1.97366e-07)
(0.000760411 1.19213e-07 3.41445e-08)
(0.000761026 4.034e-07 3.19621e-08)
(0.00101389 4.17939e-07 1.34087e-07)
(0.000759376 -1.99232e-08 4.48456e-08)
(0.000759825 -1.32971e-08 4.56334e-08)
(0.00101243 -1.89036e-08 1.54653e-07)
(0.000757982 -3.42255e-08 6.13566e-08)
(0.000758634 -5.89574e-09 4.52361e-08)
(0.00101076 1.43244e-08 1.57619e-07)
(0.000756031 -6.88639e-09 5.63491e-08)
(0.000757084 -4.60164e-07 2.32193e-08)
(0.00100861 -9.1263e-08 2.63403e-07)
(0.000754885 1.47667e-07 3.59389e-08)
(0.000755586 -3.3387e-07 -1.20575e-08)
(0.00100645 8.09595e-08 1.63893e-07)
(0.000753202 2.31668e-07 4.20026e-08)
(0.000754084 9.94971e-08 2.18921e-08)
(0.00100449 3.13491e-07 1.63822e-07)
(0.00075265 3.5475e-07 6.94351e-08)
(0.00100297 3.04597e-07 1.18146e-07)
(-0.0178806 0.00530077 0.00363634)
(0.00715975 -0.00821579 0.000582925)
(-0.0123842 -0.00749685 0.0015306)
(-0.00375796 0.0113507 0.00873122)
(0.0197209 0.0013535 0.00662024)
(-0.00341674 0.0200389 0.00506396)
(0.00770423 -0.00799889 0.00857116)
(0.0112289 0.00511618 -0.00383188)
(0.0112289 0.00511618 -0.00383188)
(0.0112289 0.00511618 -0.00383188)
(0.0112289 0.00511618 -0.00383188)
(-0.000623515 0.0019282 0.000471875)
(-0.00251772 -0.000709107 0.000315422)
(0.00417657 0.00161262 0.00503046)
(0.00179029 -0.0070862 -0.000159873)
(-0.000967619 -0.00031722 0.000641684)
(0.00307145 -0.0094001 -0.0011253)
(0.00447359 -0.00113539 0.000593486)
(0.00273824 0.00138315 5.81132e-05)
(0.00564697 -0.000632466 0.0016246)
(0.00154935 0.00263598 -0.000142586)
(0.000995927 0.00181591 -0.00338846)
(0.000896258 0.00131712 -0.00107967)
(0.00172607 0.00251874 0.00229166)
(-0.000623515 0.0019282 0.000471875)
(-0.000623515 0.0019282 0.000471875)
(-0.000623515 0.0019282 0.000471875)
(-0.00173768 0.00153442 9.5063e-05)
(-0.000623515 0.0019282 0.000471875)
(-0.000623515 0.0019282 0.000471875)
(-0.000905684 -0.000186822 -6.24296e-05)
(-0.000468925 -0.000319781 -7.62581e-05)
(-0.0014506 0.000616569 -0.000269817)
(-0.00179555 -0.00123327 -0.000235585)
(-0.00262978 0.000641878 8.63877e-05)
(8.66736e-05 0.000581474 9.48354e-06)
(0.000124226 0.000345861 8.36604e-06)
(-0.000497396 0.000487743 9.01028e-09)
(-6.27226e-05 6.4654e-05 1.55013e-05)
(-7.80338e-05 0.000545517 8.71289e-05)
(0.000766015 0.000117958 6.14152e-05)
(0.000650242 4.13696e-06 2.56635e-05)
(0.000843684 3.5173e-05 5.30085e-06)
(0.000883326 3.44716e-05 -1.21127e-05)
(0.000884901 7.40248e-06 1.24293e-05)
(0.000810711 6.88174e-05 -1.29217e-06)
(0.000777233 8.60795e-05 -2.63191e-06)
(0.00106652 0.000108958 -1.69619e-06)
(0.00058203 8.00305e-05 -2.67582e-06)
(0.0005884 6.60115e-05 -2.13975e-06)
(0.00100727 0.000146645 2.35787e-06)
(0.00102831 0.000111469 3.19616e-06)
(0.000811337 4.32033e-05 9.17791e-08)
(0.000794142 4.82994e-05 7.36106e-08)
(0.00108069 7.04766e-05 1.88113e-07)
(0.000810264 2.62347e-05 5.17868e-08)
(0.000800659 3.06249e-05 8.48943e-08)
(0.00107889 4.21459e-05 1.77832e-07)
(0.000809871 1.62002e-05 4.49554e-08)
(0.000804087 1.82243e-05 6.6603e-08)
(0.00107866 2.61762e-05 1.79692e-07)
(0.000808681 1.00725e-05 7.97917e-08)
(0.000805799 1.17647e-05 1.01013e-07)
(0.00107776 1.59838e-05 1.89147e-07)
(0.000808294 6.28014e-06 8.63577e-08)
(0.00080627 5.37034e-06 9.41826e-08)
(0.0010768 1.02137e-05 2.26306e-07)
(0.000807214 3.66986e-06 4.48596e-08)
(0.000805973 4.09975e-06 5.24536e-08)
(0.0010761 6.12595e-06 1.82033e-07)
(0.000805326 2.07203e-06 3.08444e-08)
(0.000805179 4.06874e-06 5.71876e-08)
(0.00107407 3.44167e-06 1.42308e-07)
(0.000803585 1.25697e-06 3.85787e-08)