/*--------------------------------*- C++ -*----------------------------------*\
| =========                 |                                                 |
| \\      /  F ield         | OpenFOAM: The Open Source CFD Toolbox           |
|  \\    /   O peration     | Version:  5.0                                   |
|   \\  /    A nd           | Web:      www.OpenFOAM.org                      |
|    \\/     M anipulation  |                                                 |
\*---------------------------------------------------------------------------*/
FoamFile
{
    version     2.0;
    format      ascii;
    class       volScalarField;
    location    "0.5";
    object      alpha.water;
}
// * * * * * * * * * * * * * * * * * * * * * * * * * * * * * * * * * * * * * //

dimensions      [0 0 0 0 0 0 0];

internalField   nonuniform List<scalar> 
4720
(
0.999995
1
0.999791
0.994611
0.999361
0.705212
-2.45078e-19
3.02689e-16
1.85451e-18
2.17552e-21
1.58099e-25
1.70027e-29
6.67922e-33
2.8355e-36
1.20028e-39
5.46998e-43
1.75864e-46
9.41898e-50
4.22695e-53
1.20224e-56
5.57945e-60
1.18726e-63
1.29923e-66
1.20521e-70
2.87429e-73
6.7621e-77
1.11864e-79
3.93085e-84
2.75271e-85
3.90272e-89
5.37343e-92
2.26963e-96
1.38524e-98
1.31455e-101
1.59476e-105
3.88688e-108
1.76214e-111
6.25328e-114
1.37642e-117
7.032e-121
6.89337e-125
3.63467e-127
3.02826e-131
8.54675e-133
9.49595e-137
2.98045e-139
1.55854e-143
2.65254e-145
8.24249e-147
1.5936e-148
1.00001
1.00001
0.999986
1.00349
0.999926
1
-3.26834e-15
-4.81173e-18
-1.30394e-25
1.39186e-21
3.80828e-24
5.06733e-28
1.12965e-31
4.4725e-35
1.87123e-38
1.41949e-41
1.00019e-43
1.86794e-47
1.10056e-51
3.9558e-55
1.70954e-58
7.17387e-62
3.42611e-65
1.5767e-68
4.41753e-72
8.65894e-75
1.7959e-79
3.50884e-82
1.63847e-84
5.55288e-90
1.50271e-91
4.75506e-94
-1.06449e-112
2.02796e-102
4.53168e-105
3.23093e-107
6.89763e-111
2.66892e-116
2.64267e-116
6.99961e-120
3.40216e-124
3.25731e-126
1.32478e-130
1.37272e-145
1.19535e-136
5.89905e-140
2.83606e-142
2.28956e-145
1.56331e-146
6.2371e-148
0.99999
0.999976
0.999992
1
1.00005
1.00003
-8.60625e-18
-4.21787e-19
-2.67401e-23
6.57007e-21
2.76609e-22
4.65723e-25
2.68517e-29
3.31976e-33
1.33846e-36
5.72554e-40
2.44719e-43
1.06629e-46
4.11698e-50
1.49985e-53
8.2315e-57
2.47395e-60
1.56606e-63
3.42139e-67
1.90579e-70
1.33878e-73
5.21361e-77
1.69084e-80
2.03379e-83
1.25196e-86
3.44015e-91
1.12475e-93
2.25492e-95
9.94692e-99
5.86927e-103
2.1194e-106
5.83442e-109
9.09738e-114
1.02269e-114
7.71009e-118
1.04481e-121
2.54695e-125
1.20918e-127
2.02688e-132
4.59674e-134
9.53711e-138
4.49288e-140
9.04499e-144
1.69514e-145
4.2222e-147
1.00001
0.999996
0.999998
1.00007
0.999997
0.999406
0.0444255
-1.23519e-18
-4.66457e-21
-1.5792e-23
1.84103e-22
6.81561e-25
2.96506e-29
9.28996e-33
3.86217e-36
1.62223e-39
6.81122e-43
3.32658e-46
1.10924e-49
4.87222e-53
2.12636e-56
8.31903e-60
6.41008e-63
1.87767e-66
1.05987e-69
3.82256e-73
6.26596e-76
4.17061e-79
1.88347e-82
3.2481e-87
8.47312e-89
1.30051e-91
6.43774e-95
8.90833e-100
2.18771e-101
2.35578e-105
2.39152e-109
1.66581e-111
1.03995e-113
1.93193e-118
1.12071e-121
1.47158e-123
1.18929e-128
2.09552e-130
2.42741e-133
1.2119e-136
1.98085e-140
1.24651e-143
1.95925e-145
2.97352e-147
0.999996
1.00002
1
0.999993
1.00007
1.00038
0.527169
-1.36516e-17
-4.24459e-20
-4.76065e-23
2.45462e-21
8.23736e-24
3.28401e-27
3.39352e-31
1.02223e-34
4.2722e-38
1.77436e-41
7.47715e-45
3.11022e-48
1.30689e-51
5.37908e-55
2.31468e-58
9.17457e-62
3.88463e-65
1.4569e-68
1.01505e-71
3.04959e-75
1.43748e-78
2.18848e-81
2.4102e-84
1.02334e-87
8.12574e-93
3.90941e-95
1.27843e-98
1.79783e-101
5.16673e-105
8.86384e-107
7.61909e-111
6.22334e-114
3.04624e-116
1.30115e-121
1.08392e-124
1.39059e-127
1.76595e-129
6.91931e-133
2.82874e-136
3.0415e-138
4.06469e-142
1.84693e-144
3.15875e-146
1.00002
1.00002
0.999994
0.999945
0.999878
1.00052
0.633294
-2.11753e-18
-1.2827e-19
-5.50065e-23
2.74275e-21
1.02243e-23
7.12149e-28
2.03523e-31
8.50633e-35
3.57062e-38
1.49573e-41
6.28325e-45
2.60826e-48
1.24866e-51
4.23161e-55
1.89504e-58
7.70147e-62
4.02344e-65
1.52853e-68
1.4148e-71
2.09761e-75
1.9522e-78
2.81455e-81
3.86564e-84
6.02232e-87
5.04889e-92
1.8285e-94
2.247e-99
1.61943e-101
7.63975e-105
1.58721e-107
5.67327e-110
4.25182e-115
1.81486e-116
1.13507e-119
5.64941e-122
1.43182e-125
3.2187e-131
1.67892e-133
1.00077e-135
2.20365e-138
5.87407e-144
3.58396e-145
2.18354e-146
1.00001
0.999973
1
1.00005
0.999935
0.999382
0.356438
-5.17781e-19
-1.74839e-20
-6.16819e-24
2.43702e-22
1.02206e-24
3.73045e-29
9.85849e-33
4.11307e-36
1.72251e-39
7.21926e-43
3.10075e-46
1.23489e-49
5.29872e-53
3.63808e-56
7.65928e-60
4.77036e-63
1.43957e-66
1.46452e-69
2.00488e-73
1.07724e-76
1.22311e-79
3.85425e-82
2.99814e-87
2.97375e-90
1.69014e-92
2.32434e-97
1.05579e-98
2.52019e-102
2.7729e-105
1.74029e-109
5.42622e-111
9.15448e-115
1.64181e-118
1.35054e-121
1.07149e-123
7.06492e-128
2.06067e-131
5.1676e-134
8.66378e-139
4.11379e-140
4.46951e-144
1.95314e-145
6.7013e-147
0.999986
0.999986
1
1.00003
1.00016
1.00017
0.00769048
-2.88035e-19
-1.15539e-23
6.2662e-21
2.01158e-22
3.25272e-25
1.88962e-29
2.38914e-33
9.63152e-37
4.10473e-40
1.77093e-43
7.21152e-47
3.47339e-50
8.65703e-54
4.91493e-57
2.37358e-60
9.54988e-64
1.96897e-67
3.52107e-70
6.7668e-74
7.40459e-77
3.24566e-81
1.5148e-84
2.13959e-86
7.07296e-91
5.82821e-93
2.7679e-96
1.87672e-100
1.69304e-103
3.08897e-105
1.70852e-109
3.57685e-112
2.33708e-115
3.43689e-118
2.9228e-122
5.93991e-125
6.75411e-128
2.64663e-131
8.04303e-136
1.38325e-138
5.85746e-141
1.03421e-144
1.28091e-145
4.08608e-147
0.999983
1.00001
0.999224
0.997586
1.00715
1.00017
-9.59634e-16
-3.66054e-18
-1.05821e-37
1.84264e-21
6.53074e-24
3.53695e-27
3.17295e-31
8.36539e-35
3.45108e-38
1.44835e-41
6.04513e-45
2.51975e-48
1.07089e-51
4.46187e-55
1.66906e-58
8.19194e-62
2.78374e-65
1.38478e-68
3.7645e-71
2.22381e-77
8.40357e-79
5.53344e-82
1.23031e-85
1.62735e-88
2.75061e-90
-2.18007e-109
1.36918e-97
3.10999e-102
1.38339e-103
1.08945e-107
2.07357e-110
4.17208e-115
1.70115e-118
7.56581e-120
4.55067e-123
2.4607e-125
7.40905e-131
1.37753e-145
1.01533e-136
3.66521e-141
7.23444e-142
9.90098e-145
2.17954e-146
4.92385e-148
1.00002
1
1.00302
0.998642
0.988465
1
-4.86998e-17
7.26851e-16
1.30039e-18
1.93037e-20
1.86217e-23
4.23291e-28
7.31899e-32
3.02924e-35
1.26829e-38
5.48895e-42
2.22694e-45
9.96694e-49
3.83305e-52
2.27556e-55
4.01115e-59
2.98189e-62
7.2354e-66
4.84616e-69
2.67983e-72
7.90345e-76
1.10008e-78
2.58177e-82
4.45535e-85
1.87502e-88
2.82527e-91
2.92107e-94
4.49456e-98
2.18455e-100
4.64722e-105
1.27096e-107
4.93316e-110
2.88294e-114
6.53385e-116
4.0055e-120
1.01305e-124
1.09214e-127
6.9368e-129
1.13518e-132
1.25637e-135
1.70903e-138
2.11779e-142
3.93177e-145
1.2434e-146
1.79495e-148
1.00002
0.999388
0.997793
1.04491
1.01317
0.706075
1.45544e-13
2.29707e-15
1.97148e-17
8.35548e-20
2.4868e-23
2.53689e-27
1.5845e-30
1.18947e-33
8.53723e-37
6.08464e-40
4.32843e-43
3.07427e-46
2.17905e-49
1.54012e-52
1.08752e-55
7.66339e-59
5.38565e-62
3.77807e-65
2.64523e-68
1.84779e-71
1.28894e-74
8.96809e-78
6.2262e-81
4.31531e-84
2.98411e-87
2.05916e-90
1.41841e-93
9.75377e-97
6.68912e-100
4.5851e-103
3.13258e-106
2.13602e-109
1.45401e-112
9.88075e-116
6.69813e-119
4.53453e-122
3.06255e-125
2.06445e-128
1.38949e-131
9.32766e-135
6.24795e-138
4.18182e-141
2.79948e-144
2.73138e-145
0.999968
0.999974
0.999301
1.00065
1.00014
1
2.546e-10
1.91768e-15
2.75506e-18
2.21627e-20
2.36802e-23
3.28097e-26
1.11083e-29
5.70986e-33
3.98053e-36
2.77984e-39
1.9785e-42
1.41772e-45
1.00107e-48
6.82768e-52
4.84542e-55
3.36795e-58
2.3331e-61
1.60166e-64
1.10777e-67
7.64281e-71
5.243e-74
3.60123e-77
2.47273e-80
1.64064e-83
1.13711e-86
7.77283e-90
5.29266e-93
3.54819e-96
2.39826e-99
1.62626e-102
1.10072e-105
7.43662e-109
4.99702e-112
3.34722e-115
2.23411e-118
1.49653e-121
1.0007e-124
6.62869e-128
4.43158e-131
2.93753e-134
1.95655e-137
1.28024e-140
8.49935e-144
2.75475e-145
0.999988
0.999993
1.00004
1.00004
1.00007
0.999996
2.26571e-07
3.96495e-15
5.51747e-18
7.56166e-20
3.7578e-21
1.71958e-23
3.32556e-27
4.14782e-31
2.88069e-34
2.13936e-37
1.52903e-40
1.08851e-43
7.73877e-47
5.48918e-50
3.88643e-53
2.74651e-56
1.9359e-59
1.36281e-62
9.56962e-66
6.70518e-69
4.69157e-72
3.27483e-75
2.28065e-78
1.58666e-81
1.10131e-84
7.6285e-88
5.27663e-91
3.64081e-94
2.50525e-97
1.72194e-100
1.1813e-103
8.08557e-107
5.52589e-110
3.7678e-113
2.56315e-116
1.74114e-119
1.18038e-122
7.98586e-126
5.39734e-129
3.63952e-132
2.4481e-135
1.64416e-138
1.10176e-141
7.04206e-145
1.00002
0.999997
0.999991
1.00002
1.00001
1.00025
0.0517958
3.79209e-13
4.57565e-16
3.28714e-19
3.48558e-21
3.90181e-24
1.6876e-27
1.03176e-30
7.24618e-34
5.08777e-37
3.55559e-40
2.47838e-43
1.72517e-46
1.19997e-49
8.31868e-53
5.75853e-56
3.97564e-59
2.74634e-62
1.88646e-65
1.29723e-68
8.90109e-72
6.09804e-75
4.17557e-78
2.83851e-81
1.93594e-84
1.31753e-87
8.92166e-91
6.04688e-94
4.09295e-97
2.75653e-100
1.85937e-103
1.25075e-106
8.39266e-110
5.6228e-113
3.76138e-116
2.52264e-119
1.6756e-122
1.11901e-125
7.39515e-129
4.9162e-132
3.25496e-135
2.15181e-138
1.41923e-141
8.24411e-145
0.999994
0.999988
0.999983
0.999975
1.00001
1
0.528654
6.75158e-12
8.18156e-15
6.4029e-18
5.17659e-20
1.56226e-22
8.87559e-26
2.145e-29
1.41792e-32
1.00609e-35
7.03939e-39
4.9127e-42
3.42151e-45
2.37782e-48
1.65102e-51
1.14407e-54
7.9095e-58
5.46188e-61
3.76366e-64
2.58781e-67
1.77754e-70
1.21856e-73
8.33358e-77
5.69131e-80
3.87914e-83
2.63851e-86
1.79244e-89
1.21518e-92
8.22308e-96
5.55732e-99
3.74748e-102
2.5216e-105
1.69437e-108
1.13703e-111
7.61672e-115
5.09433e-118
3.40095e-121
2.26572e-124
1.5075e-127
1.00111e-130
6.63594e-134
4.39341e-137
2.90235e-140
1.16013e-143
0.999975
1
1.00001
0.999971
0.999922
0.999115
0.634393
6.85442e-12
8.2963e-15
6.5154e-18
5.19356e-20
1.53731e-22
8.51503e-26
2.12912e-29
1.41371e-32
1.00228e-35
7.01297e-39
4.89395e-42
3.40886e-45
2.36889e-48
1.64335e-51
1.13846e-54
7.87036e-58
5.43149e-61
3.74079e-64
2.57076e-67
1.76518e-70
1.20958e-73
8.27153e-77
5.6482e-80
3.84611e-83
2.61368e-86
1.77492e-89
1.20341e-92
8.13808e-96
5.49616e-99
3.70468e-102
2.49261e-105
1.6751e-108
1.12349e-111
7.52161e-115
5.02897e-118
3.35521e-121
2.23313e-124
1.48446e-127
9.84849e-131
6.52029e-134
4.3145e-137
2.85026e-140
1.14094e-143
1.00002
1.00003
1.00001
1.00002
0.999991
0.999993
0.361401
3.56721e-13
4.42944e-16
3.23948e-19
5.17073e-21
1.0713e-23
2.82439e-27
1.14953e-30
8.08022e-34
5.72225e-37
4.0083e-40
2.80132e-43
1.95809e-46
1.36515e-49
9.51568e-53
6.60624e-56
4.57384e-59
3.16816e-62
2.18862e-65
1.50764e-68
1.03811e-71
7.13329e-75
4.89229e-78
3.35321e-81
2.2876e-84
1.56138e-87
1.06389e-90
7.23387e-94
4.91369e-97
3.32564e-100
2.24914e-103
1.51871e-106
1.02356e-109
6.87989e-113
4.61974e-116
3.09821e-119
2.0727e-122
1.38362e-125
9.22494e-129
6.13794e-132
4.08139e-135
2.70439e-138
1.79205e-141
9.76969e-145
1.00001
0.999982
0.999986
0.999975
1.00009
1.0002
0.0140866
7.03758e-15
6.8107e-18
8.64723e-20
3.07353e-21
1.37074e-23
2.66282e-27
3.39915e-31
2.35973e-34
1.74979e-37
1.24944e-40
8.89053e-44
6.31595e-47
4.47733e-50
3.16949e-53
2.23859e-56
1.57731e-59
1.10975e-62
7.79051e-66
5.45674e-69
3.81573e-72
2.6623e-75
1.85328e-78
1.28851e-81
8.94187e-85
6.19137e-88
4.27963e-91
2.95166e-94
2.03114e-97
1.39581e-100
9.5709e-104
6.54763e-107
4.47365e-110
3.04965e-113
2.07426e-116
1.40877e-119
9.54795e-123
6.45684e-126
4.36032e-129
2.93826e-132
1.9751e-135
1.32594e-138
8.88601e-142
6.21133e-145
0.999958
0.999946
0.998189
0.998501
0.995735
1.00017
1.22847e-08
3.44976e-15
4.73138e-18
2.95697e-20
5.67174e-23
1.5299e-25
3.69366e-29
1.11559e-32
7.72343e-36
5.47071e-39
3.82683e-42
2.6743e-45
1.86626e-48
1.30087e-51
9.05475e-55
6.29274e-58
4.36575e-61
3.02184e-64
2.09161e-67
1.44277e-70
9.93292e-74
6.8322e-77
4.69129e-80
3.21409e-83
2.20171e-86
1.49976e-89
1.02217e-92
6.94741e-96
4.71441e-99
3.19571e-102
2.16187e-105
1.45915e-108
9.83818e-112
6.62496e-115
4.44565e-118
2.98086e-121
1.99556e-124
1.33181e-127
8.88427e-131
5.92097e-134
3.92997e-137
2.61021e-140
1.72487e-143
2.78804e-145
1
0.996394
0.99012
0.991279
0.998711
0.998511
4.46189e-12
2.10799e-15
3.38217e-18
4.19998e-19
1.2749e-21
7.82928e-26
1.25895e-29
9.54749e-33
6.84997e-36
4.82373e-39
3.39217e-42
2.38261e-45
1.67008e-48
1.16792e-51
8.15559e-55
5.68219e-58
3.95088e-61
2.74337e-64
1.9006e-67
1.31382e-70
9.07078e-74
6.24855e-77
4.29415e-80
2.9482e-83
2.01932e-86
1.37963e-89
9.41224e-93
6.40874e-96
4.35425e-99
2.95435e-102
2.00042e-105
1.35164e-108
9.11876e-112
6.13931e-115
4.125e-118
2.76772e-121
1.85328e-124
1.23797e-127
8.25798e-131
5.49757e-134
3.65278e-137
2.42389e-140
1.6051e-143
2.7814e-145
1.00002
1.00002
0.998005
0.990283
1.00069
0.706454
4.79205e-14
2.92413e-16
1.89083e-18
2.32819e-21
1.7181e-25
1.81922e-29
7.10851e-33
3.03873e-36
1.29783e-39
5.68164e-43
2.35206e-46
1.02813e-49
4.52598e-53
2.77937e-56
9.65161e-60
5.05318e-63
2.32744e-66
9.52542e-70
6.21085e-73
3.9355e-76
4.23116e-79
9.19081e-83
1.4455e-85
2.84074e-89
1.26913e-91
4.54791e-95
1.76741e-98
2.18745e-101
6.525e-105
8.02223e-108
8.38602e-111
3.04665e-114
7.48493e-117
3.44128e-120
4.12824e-124
1.18016e-127
1.60792e-130
3.20004e-133
1.0501e-136
4.46844e-139
5.00062e-143
3.03555e-145
1.38482e-146
3.35097e-148
0.999961
0.999989
0.999992
0.999855
1
0.999945
1.19426e-10
-4.77245e-18
-1.37489e-25
1.42149e-21
5.2433e-24
2.4231e-27
1.90018e-31
5.03415e-35
2.05515e-38
8.45557e-42
2.87033e-44
2.38241e-46
2.41081e-50
1.07602e-54
4.1356e-58
1.76083e-61
8.51945e-65
3.04436e-68
1.33577e-71
7.68067e-75
2.66625e-78
9.8558e-82
3.82358e-84
3.65851e-88
4.32747e-91
6.12829e-94
6.46913e-98
2.39598e-101
4.10652e-104
2.48453e-107
8.65838e-111
3.23823e-114
8.1735e-116
5.36237e-120
8.18065e-124
6.90543e-127
7.45952e-130
6.64476e-132
3.74262e-136
8.76966e-140
2.55893e-142
2.88512e-145
2.63357e-146
1.10319e-147
0.999994
1.00001
1.00004
1.00002
0.999998
0.999944
1.80813e-07
-4.0905e-19
-2.88998e-23
2.98669e-20
1.90775e-21
3.94959e-24
2.41086e-28
2.39978e-32
9.44852e-36
4.01714e-39
1.70856e-42
7.312e-46
3.10864e-49
1.29645e-52
5.55079e-56
2.31163e-59
1.00601e-62
4.3614e-66
1.80436e-69
7.76865e-73
3.38913e-76
1.68616e-79
1.13789e-82
1.24878e-85
3.60478e-89
1.23084e-92
2.99114e-95
6.69506e-99
3.32136e-102
2.69949e-105
1.33306e-108
7.25227e-112
3.56572e-115
1.08307e-117
8.34299e-121
1.61382e-124
1.20779e-127
2.03479e-130
1.00377e-133
1.39695e-137
7.68332e-140
2.07046e-143
2.61406e-145
1.23441e-146
1
1.00001
1.00001
0.999981
0.999951
1.00023
0.0510948
-1.24465e-18
-4.77913e-21
-1.57702e-23
1.80625e-22
6.48037e-25
2.93085e-29
9.57548e-33
4.00541e-36
1.68106e-39
7.04374e-43
3.01646e-46
1.23374e-49
5.26045e-53
2.17905e-56
8.94174e-60
4.51363e-63
2.62235e-66
1.26879e-69
4.80965e-73
1.61953e-76
8.30583e-79
4.38073e-82
1.92506e-86
6.32907e-89
7.63111e-92
3.01844e-95
4.3724e-99
3.61835e-102
2.25165e-105
1.40302e-108
2.26652e-111
2.55292e-115
1.81387e-118
3.197e-121
1.0348e-123
1.10737e-126
4.60118e-130
9.00881e-134
1.67702e-136
8.06917e-140
8.3431e-144
2.5406e-145
1.1352e-146
0.999999
0.999999
0.999972
0.999977
1.00007
1.00007
0.528587
-1.34598e-17
-4.21797e-20
-4.56259e-23
2.49833e-21
7.81712e-24
7.12818e-28
2.00353e-31
8.40411e-35
3.51677e-38
1.46927e-41
6.13594e-45
2.61323e-48
1.13851e-51
4.43754e-55
1.8619e-58
8.14587e-62
3.80354e-65
2.17306e-68
1.86145e-71
7.7107e-75
1.536e-78
9.0963e-82
2.20474e-84
8.66679e-88
1.56281e-91
2.03366e-94
1.02643e-97
2.03317e-100
1.56052e-104
7.82544e-107
2.77648e-110
2.07535e-112
4.83187e-116
3.55735e-120
3.97351e-122
2.18245e-126
1.50794e-129
6.79904e-133
3.56951e-136
6.79379e-138
3.85274e-142
1.85222e-144
4.4331e-146
0.999974
0.999986
0.999991
1.00001
1.00001
0.999977
0.634389
-2.0374e-18
-1.2229e-19
-5.33053e-23
2.56228e-21
8.43066e-24
6.78668e-28
2.0045e-31
8.36811e-35
3.51459e-38
1.47235e-41
6.45746e-45
2.57298e-48
1.21986e-51
4.48237e-55
2.40844e-58
8.39241e-62
3.36286e-65
1.59177e-68
1.20079e-71
2.697e-75
1.12976e-78
4.97616e-82
2.1812e-84
5.84568e-87
2.74031e-90
8.063e-94
1.02091e-97
2.85416e-101
1.21756e-103
5.27247e-107
4.15762e-110
2.86152e-114
1.99102e-116
8.89428e-120
1.79386e-123
1.43034e-125
7.55874e-129
2.45296e-132
1.62899e-136
2.46383e-139
1.39681e-141
3.19318e-145
3.23187e-146
1.00001
1.00002
1.00001
1.00003
0.999939
0.999799
0.3612
-5.3643e-19
-1.62608e-20
-6.07496e-24
2.61202e-22
1.13139e-24
3.9726e-29
9.88267e-33
4.12066e-36
1.72696e-39
7.24309e-43
3.06433e-46
1.28414e-49
5.42187e-53
3.90415e-56
1.04885e-59
4.24307e-63
2.475e-66
8.56831e-70
3.35887e-73
1.51015e-76
1.13138e-79
3.994e-82
7.35379e-86
2.36927e-89
5.89263e-93
3.22811e-96
3.37183e-99
1.40387e-101
1.13152e-105
6.17195e-109
5.04459e-111
3.08407e-115
2.42503e-117
2.50668e-121
1.05599e-124
2.38165e-127
6.48473e-131
4.15539e-134
9.07863e-138
2.00511e-139
1.64292e-143
2.72222e-145
1.34347e-146
1
1
1.00002
0.999557
0.99996
1.00021
0.0131757
-2.78615e-19
-1.1084e-23
5.41345e-21
1.53979e-22
2.43574e-25
1.41532e-29
1.82806e-33
7.39158e-37
3.15238e-40
1.39886e-43
6.02173e-47
2.88669e-50
1.13565e-53
4.76981e-57
2.06615e-60
1.03053e-63
3.79554e-67
5.31177e-70
1.28119e-73
6.31208e-77
8.7996e-80
3.33401e-83
5.19699e-86
9.61728e-90
6.43317e-93
6.80082e-96
2.8203e-99
8.82134e-103
2.17488e-105
7.98244e-109
6.95089e-112
4.46991e-115
5.87704e-118
1.92561e-121
9.3922e-124
1.17602e-127
3.22395e-131
1.98158e-134
1.13471e-137
2.14205e-140
9.33168e-144
2.45359e-145
1.10117e-146
0.999967
0.999969
0.998861
0.995978
0.999903
1.00006
7.2922e-09
-2.97372e-18
-6.34925e-37
1.81614e-21
5.06373e-24
1.6172e-27
2.23749e-31
6.89829e-35
2.84917e-38
1.19706e-41
5.07539e-45
2.09594e-48
9.02413e-52
3.79041e-55
1.53147e-58
6.94255e-62
2.75613e-65
1.25143e-68
5.63026e-72
2.26134e-75
1.85363e-78
5.05001e-82
3.16212e-85
2.85131e-88
1.75133e-90
2.15261e-94
5.58851e-97
2.77602e-100
1.28738e-103
5.67404e-107
2.84281e-110
2.50291e-113
2.66039e-117
1.294e-119
1.57365e-123
5.52776e-127
8.46642e-130
3.40952e-132
4.00436e-136
9.12887e-139
3.19036e-142
5.77868e-145
3.47657e-146
1.07887e-147
1
0.998141
1.0213
0.996341
1.0754
0.995104
9.33454e-12
5.99359e-16
1.37918e-18
2.68993e-20
2.01225e-23
3.88727e-28
7.93265e-32
3.30565e-35
1.39469e-38
6.02619e-42
2.48244e-45
1.12091e-48
4.75145e-52
1.8854e-55
8.13564e-59
3.82079e-62
1.40038e-65
8.39302e-69
3.72964e-72
1.46255e-75
1.74598e-78
3.09606e-82
2.64516e-84
4.37156e-88
1.37052e-91
4.31567e-94
1.84252e-97
3.78687e-101
3.18946e-104
6.48521e-107
3.22058e-110
6.84159e-114
6.71019e-116
8.91704e-120
6.29039e-123
3.04354e-125
1.36459e-128
1.00587e-132
1.55907e-135
8.36486e-139
1.03496e-141
8.02329e-145
2.50925e-146
3.98183e-148
-4.60832e-16
0.979893
1.42793e-29
0.704644
3.98281e-11
0.979154
9.2631e-10
-3.33264e-14
0.999995
0.0173849
1.00246
7.49479e-08
1
0.0223194
0.0589047
0.999984
0.573933
1.0001
0.0646827
1.00041
0.575143
0.726045
0.999343
1
1.00057
0.727071
1.00003
1
1
1.00042
1.00001
1.00009
1.00001
0.99998
1
1.00002
1.00026
1
0.999139
1.00002
0.999668
1
1
0.999391
0.726942
1.00023
1
1.00039
0.728074
0.578144
1
0.0593178
1.00052
0.579449
1.0001
0.0653341
0.0177631
1.00423
-4.94504e-15
1.0002
0.0230514
1.00346
1.33598e-07
-8.96086e-16
0.698505
-2.86108e-16
0.999418
3.01852e-09
0.696159
1.00342e-10
8.45111e-11
0.973266
2.24137e-09
0.705126
7.87418e-11
0.984167
1.10235e-09
1.75187e-07
1.00004
0.0230201
0.999908
1.72463e-07
1
0.0230276
0.0651944
1.00024
0.575009
0.999937
0.0651647
1.00016
0.575016
0.726966
1.00022
1
1.00065
0.726787
1.00001
1
1.00007
1.00022
1.00007
0.999856
1
1.00006
1
1.00011
0.999595
1.00006
1.00006
1.00002
0.999726
1
1
1.00047
0.727791
1.00037
1
1.00055
0.727833
0.579395
1.00022
0.0661902
1.00012
0.579531
1.00014
0.0661147
0.023795
1
2.28173e-07
1.00034
0.0238354
0.999994
2.84113e-07
2.92537e-09
0.69726
1.90417e-10
1
8.39423e-09
0.700144
1.51499e-10
3.19454e-11
0.982307
5.95562e-10
0.707088
-5.39651e-16
0.999489
0
1.06321e-07
1.00004
0.0223238
1
-2.13932e-14
0.999985
0.0173932
0.0645753
1.00026
0.574951
0.999993
0.0588
1.00038
0.573689
0.726958
1.00014
1
0.999683
0.725791
0.999547
1
1.00006
1.00016
1.00007
1.00023
1
0.999866
1
1.0001
0.999775
1.00006
0.999991
1.00001
1.0005
1
1
1.00057
0.727792
0.999736
1
0.999781
0.726644
0.579466
1.00017
0.0655815
1.00004
0.57806
1
0.0594028
0.0230818
0.99939
1.83249e-07
0.999991
0.0178157
0.999969
-2.29936e-14
7.89117e-09
0.699909
5.35059e-11
0.995001
-1.40688e-14
0.701987
-2.22948e-16
1
0.997057
0.962574
1.00764
1
0.97458
1.02695
0.0671426
0.036039
0.736311
0.704124
0.72906
0.0589176
0.0397085
-2.53018e-21
-1.02737e-15
-2.77452e-18
4.94903e-14
5.02553e-16
9.53566e-13
2.40945e-16
0.978144
1.00002
0.999924
0.999816
1.01807
0.999875
0.999988
0.896097
0.661157
1
1
0.661832
1
0.896576
-2.71783e-17
-6.55143e-16
-8.98537e-17
1.2561e-10
1.05075e-12
5.25603e-09
7.36472e-13
1.00002
1.0002
1.00017
1.00073
1.00032
1.00012
1.0001
1.00007
1.00001
1.00033
1.00002
1.00001
1.00024
1.00009
-5.7984e-18
0.00726315
-1.51955e-16
1.80905e-07
1.97034e-12
0.0126387
1.22261e-12
0.999917
0.999918
0.999861
1.00004
1.00001
1.00008
0.999926
1
0.99997
0.999835
0.999664
0.999929
0.99999
0.999934
-5.6887e-16
0.366042
-1.01178e-16
0.0510785
1.10193e-10
0.367277
1.10195e-10
1.00006
0.999902
0.999882
0.999635
0.999656
0.999901
0.999996
0.999418
0.999787
0.999033
0.99935
0.99934
0.999179
0.998926
0
0.634178
0
0.528665
2.8713e-09
0.63553
2.87129e-09
1.00008
1.00001
1.00018
1.00008
1.00036
0.999978
1.00009
1.00019
1.00108
1.00104
1.00078
1.00099
1.00045
1.00006
0
0.527897
2.1684e-22
0.634671
2.85726e-09
0.529469
2.85726e-09
0.999846
0.999949
1.00003
1.00036
1.00013
1.00009
1.00003
0.999973
0.999362
1.00027
1.00017
0.999943
1.00004
0.99943
-9.44161e-19
0.0448365
-1.32769e-16
0.359408
1.06418e-10
0.0517184
1.06418e-10
0.999998
1.00012
0.999846
0.999721
0.999604
0.999935
1.00007
0.999988
1.00001
0.99897
0.999
0.999979
0.999276
1.00006
-7.05961e-17
-1.05945e-16
-6.29431e-18
0.0132717
1.38489e-12
2.14922e-07
2.29242e-12
1.01449
0.875268
1.02496
1.00046
1.0037
0.86582
1.00922
1
1.00001
1.00025
1.00016
1
1.00127
1.00003
-1.33027e-16
-6.09126e-17
-4.03687e-18
7.29262e-09
1.11483e-12
1.64263e-10
1.89526e-12
0.999342
0.970353
0.999067
1.00928
0.888962
0.974429
0.999839
0.18764
0.426411
0.874133
0.960807
0.504398
0.867699
0.198155
1.47761e-16
-8.23617e-18
-2.35481e-20
3.62091e-12
9.76812e-16
1.04505e-13
1.37119e-15
0.999835
1.0035
1.0004
1.02237
1
0.985862
1.02908
0.0432162
0.0429112
0.772456
0.705161
0.0449103
0.766061
0.0434736
3.61409e-15
2.9495e-12
2.13793e-15
1.65967e-13
3.6282e-15
1.46026e-12
2.1417e-15
1.00689
0.99992
1.00017
0.999749
0.979347
0.999871
0.999796
0.894955
0.666701
1.00085
1.00031
0.894156
0.665245
1.00095
4.43791e-12
8.75436e-09
3.11239e-12
2.48538e-10
2.23738e-12
8.75334e-09
3.11239e-12
1
1.00009
1.00006
0.999983
0.999855
1.00007
1.00001
1.00001
1
0.999902
1
1.00004
1.00003
1.00005
1.02196e-11
0.0134607
5.62934e-12
2.26523e-07
1.02272e-11
0.0134668
5.62934e-12
1.00002
1.00004
0.999925
1.00018
1.00011
1.00006
0.999956
0.999759
1.00011
0.999736
1.00054
0.999842
1.0004
0.999838
6.01431e-10
0.366337
4.35088e-10
0.0518239
6.01449e-10
0.367495
4.35089e-10
1.00001
0.99998
1.00005
0.999635
1.00001
0.999991
1.00009
1.00027
1.00013
1.0004
0.999961
1.0003
1.00003
1.0006
8.6812e-09
0.635316
8.6812e-09
0.528664
8.6812e-09
0.63527
8.6812e-09
1.00004
0.999901
1
1.00024
1.00005
0.999913
0.999983
1.00002
1.00011
1.00024
0.999633
1.00029
1.00012
1.00026
8.65924e-09
0.529442
8.65924e-09
0.634411
8.65924e-09
0.52944
8.65924e-09
0.999975
1.00002
0.999999
1.00009
0.999988
1.00005
1.00002
0.999305
0.999747
0.999038
1.00027
0.999362
0.99964
0.999376
4.01568e-10
0.0524889
5.47411e-10
0.359197
4.01568e-10
0.0524805
5.47482e-10
0.999976
0.999933
1
0.999361
0.999774
0.999981
1
1.00017
1.00017
1.00007
1.00016
1.00019
1.00019
1.00018
6.4321e-12
2.70936e-07
1.20441e-11
0.0140445
6.4321e-12
2.69976e-07
1.20364e-11
1.00201
0.994917
0.999683
1.00239
1.00005
1.00884
0.997706
1
1
1.00037
1.00027
1
1.00007
1.0002
4.78826e-12
3.61031e-10
5.08961e-12
1.2296e-08
4.78832e-12
4.50661e-10
7.16318e-12
0.988321
0.958073
1
1.03593
1.3286
1
1.00006
0.222578
0.386961
0.891396
0.982022
0.184468
0.522072
0.803801
5.07913e-15
3.72237e-13
6.58233e-15
1.27589e-11
5.3905e-15
3.09778e-13
6.59745e-15
1
0.996176
1.04703
1.00164
0.999824
1.01116
1.03928
0.0622376
0.0427234
0.729389
0.705827
0.0780618
0.750515
0.0403581
4.32128e-16
6.20954e-13
2.21149e-16
-7.85955e-20
-8.45871e-22
-5.77759e-17
-4.78902e-19
0.977103
0.999931
0.99965
1.00034
1.00082
0.999937
0.999842
0.895882
0.666814
1
1
0.895513
0.664182
1
9.36611e-13
5.24935e-09
7.34769e-13
-6.11062e-16
-1.80238e-17
-4.42162e-16
-9.09385e-17
0.999827
0.99998
0.999975
1.0005
0.999936
0.999981
1.00006
1
1
0.999947
0.999983
1.00006
1.00004
0.999871
1.96673e-12
0.0126403
1.22131e-12
-8.22108e-18
-5.75666e-18
0.0072574
-1.48448e-16
1.00004
1.00004
0.999948
0.999906
1.0001
1.00003
1.00011
0.999618
1.00012
0.999782
1.00042
0.999827
1.00023
0.999567
1.16351e-10
0.365954
1.16352e-10
0.0443798
-5.86137e-16
0.36538
-1.03728e-16
1.00022
1.00007
1.00015
1.00004
1.00018
1.00011
0.999885
1.00001
0.999919
1.0004
1.00016
1.00012
0.999885
1.0011
2.8671e-09
0.635291
2.8671e-09
0.526966
0
0.633825
0
0.999899
1
1
1.00004
0.999787
0.999965
1.00005
1.00011
1.00009
1.00014
0.999676
0.999995
1.00019
1.00016
2.85309e-09
0.52934
2.85309e-09
0.632996
0
0.527648
2.1684e-22
0.999957
1.00005
1.00002
1.00023
1.00004
1.00004
1.00018
0.999702
0.999828
0.999405
1.00016
0.999677
0.999862
0.999443
1.0218e-10
0.0517827
1.0218e-10
0.357054
-8.08867e-19
0.0448467
-1.27401e-16
1.00012
0.999932
0.999998
0.999983
1.00013
0.99997
0.999816
1
1.00011
0.999894
1.0002
1.00008
1.00017
0.999918
1.37833e-12
2.14677e-07
2.2546e-12
0.00764602
-6.78941e-17
-8.65875e-17
-6.76125e-18
0.999854
1.00744
0.999885
1.00037
0.999804
1.02535
1.00122
1
1
1.00001
1.00006
1
1.00007
1.00003
1.12344e-12
2.2522e-10
1.85496e-12
-6.05964e-15
-1.4307e-16
-5.27113e-15
-1.74198e-17
1.1967
1.00247
1.00049
1.14261
1.06564
0.917366
1.00016
0.139933
0.359586
0.931396
0.976079
0.123068
0.392133
0.929305
1.53993e-15
5.11632e-14
2.04771e-15
-3.0935e-15
-5.75825e-18
-1.00107e-17
-1.82846e-20
1.17298e-08
-4.47246e-18
-2.63398e-17
4.38307e-12
4.38374e-12
-1.25082e-19
2.15626e-08
0.11361
0.843896
0.350931
0.960534
0.910451
0.383303
0.173058
9.38267e-07
-4.8712e-16
1.45699e-27
2.68924e-09
1.85953e-10
1.4852e-08
-4.03379e-15
0.0568268
0.705095
0.0424756
0.758437
0.751746
0.0497341
0.0404553
2.55934e-08
3.98439e-11
6.51777e-08
3.98414e-11
3.98423e-11
4.05104e-08
4.32205e-08
0.155207
0.945514
0.841842
0.360748
0.873023
0.399512
0.205703
1.50735e-06
7.22767e-09
9.20398e-10
7.57487e-08
9.24866e-10
3.59637e-08
1.281e-06
0.143384
0.0235433
-4.10211e-18
1.48518e-08
0.0268781
2.39983e-08
0.141356
1
1.00001
1
1.00002
1.00001
1
1
0.350938
-1.61511e-17
0.627808
0.0198621
2.00043e-06
0.627933
0.350746
0.893584
1.00345
0.660199
1.00169
0.655532
1.00148
0.894168
0.146554
3.03447e-08
0.0310987
1.1184e-07
0.0298031
1.1184e-07
0.147679
1
1.00002
1.00004
1
1.00004
1.00001
1
0.351095
0.0209552
4.84595e-06
0.628746
4.84595e-06
0.627755
0.352247
0.940244
0.759418
0.201512
0.0617626
0.760167
0.205141
0.941817
1.00001
1.00006
1
1.00008
1.00006
1.00002
1.00006
1
0.374803
1
0.574535
0.377187
1.00001
1
1.00014
1.0001
1.00006
0.999972
1.00002
1.00013
1
0.939098
0.0628182
0.761034
0.208849
0.760047
0.207093
0.938893
1.00007
1.00058
1.00007
1.00007
1.00016
1.00014
1.00002
1
0.574384
0.375961
1.00001
0.377707
1.00007
1
1.00001
1
0.827357
0.726831
1
0.828555
1.00006
0.99993
1.00021
0.999336
1.00005
0.999902
0.999814
0.999646
1
0.968032
0.999994
1
0.966197
1
1.00006
1.00004
1.00003
1.00037
1.00001
1.00005
1.00003
0.999921
1.00008
0.726476
1.00008
0.829066
1.00008
0.828219
1
0.999502
1.00023
0.999309
0.999945
0.999338
1.00001
0.999438
1.00003
1
0.963236
1
0.965172
1.00007
1
0.99998
0.999981
1
1
0.999961
1
1.00003
1.00005
0.999881
1.0005
1.00039
1.0001
1.00013
0.999472
1.00001
1
1.00006
1.00001
1.00001
1.00005
0.999986
1
0.999693
1.00037
1.00097
0.999802
1.00001
1.00027
1.00006
1.00007
1.00009
1.00001
1.00005
1.00007
1.00005
1.00007
0.999836
1.00025
0.999819
1.00018
0.999831
1.00007
1.00006
1.00006
1
0.999904
1.00006
0.999968
1.00002
1.00003
1.0001
1
1.00004
1.00015
1.00001
1.00003
0.999884
1.00043
1.00006
0.999998
1.00015
1.00001
0.998413
1
1
1.00001
1
1.00001
1
1.00003
0.999998
0.999637
1.00012
1.00016
1.00016
1.00007
1.00031
1.00003
1.00008
1.00006
1.00002
1.0001
1.00006
1.00009
1.00023
0.999681
1.00014
0.999723
1.00053
0.999704
1.0001
1.00011
1.00006
1
0.999968
1.00007
1.00001
1.00002
1
0.999989
0.96813
1
1
0.966391
1.00007
1.00003
1.00016
0.999989
0.999787
1.00014
1
1.00007
1.00001
0.828604
1
0.727709
0.829874
1.00001
1.00008
0.999761
1
0.999932
0.999063
0.999966
0.99936
0.999398
1.00005
1
0.999984
0.964059
1.00006
0.965039
1
0.999942
1.00037
0.999944
1.0002
0.999924
1.00025
0.999917
1.00007
0.727274
0.830436
1.00006
0.829721
1.00015
1
1
1
0.380836
0.578828
1
0.381483
1
1.0002
0.999641
1
1.0001
1.00028
1.00005
1.00006
0.950658
0.203695
0.760178
0.0624235
0.207246
0.760843
0.952454
1.00011
0.999812
1.00037
1.00025
1.00003
0.999735
1.00024
1.00002
0.578675
1.00005
0.382658
1.00008
0.381706
1
1.00077
1.00022
1.00054
1.00008
1.00086
1.00017
1.00052
0.946926
0.0635492
0.212315
0.761933
0.212231
0.76073
0.947985
0.354552
0.629037
1.61345e-20
0.0203797
0.62932
2.46956e-06
0.354133
0.889069
1.03157
0.664432
1.0009
1.04576
0.666402
0.891472
0.147112
-4.11592e-18
0.0232311
1.69103e-08
2.48191e-08
0.0263549
0.141733
1
1.00007
1.00006
1.00128
1
1.00069
1
0.354484
0.0215732
0.630165
6.06501e-06
0.629217
6.06501e-06
0.356159
0.903083
1
1.02344
0.6771
1.01036
0.671942
0.906755
0.138724
1.33592e-07
1.33599e-07
0.0304023
1.33601e-07
0.0288966
0.138582
6.50125e-10
0.00092167
-4.00285e-17
4.36051e-12
1.69147e-08
4.41695e-12
-4.27034e-16
0.0500685
0.765294
0.0346142
0.701051
0.769973
0.0605529
0.037829
4.72851e-08
-1.97087e-15
-6.90325e-19
9.47464e-12
9.46758e-12
-2.69462e-18
1.70399e-08
0.1225
0.981048
0.366396
0.923255
0.511108
0.964834
0.124537
2.36767e-07
3.0623e-09
0.000119841
3.06244e-09
1.72791e-07
6.62233e-10
2.38647e-07
0.0498874
0.697322
0.740466
0.0424745
0.773541
0.0674018
0.0395754
9.18861e-08
1.28661e-10
7.73602e-11