/*--------------------------------*- C++ -*----------------------------------*\
| =========                 |                                                 |
| \\      /  F ield         | OpenFOAM: The Open Source CFD Toolbox           |
|  \\    /   O peration     | Version:  5.0                                   |
|   \\  /    A nd           | Web:      www.OpenFOAM.org                      |
|    \\/     M anipulation  |                                                 |
\*---------------------------------------------------------------------------*/
FoamFile
{
    version     2.0;
    format      ascii;
    class       surfaceScalarField;
    location    "0.5";
    object      alphaPhi10;
}
// * * * * * * * * * * * * * * * * * * * * * * * * * * * * * * * * * * * * * //

dimensions      [0 3 -1 0 0 0 0];

internalField   nonuniform List<scalar> 
13642
(
9.34271e-10
-4.45862e-10
3.37785e-12
4.7987e-10
-9.90262e-10
1.35085e-10
-1.01527e-10
6.63403e-10
-3.00318e-09
-7.21762e-11
-1.76874e-10
-2.20564e-10
-4.59855e-10
-1.95283e-09
1.8367e-09
3.04284e-09
-3.88656e-09
-4.60628e-10
1.02584e-09
3.53813e-09
9.39601e-10
-4.12e-09
1.26227e-09
5.05743e-11
7.94622e-11
1.00908e-10
-3.30592e-20
3.77397e-21
3.84388e-21
-2.04386e-21
1.93208e-20
-2.9082e-19
2.9954e-19
2.1637e-25
7.03598e-23
-6.26914e-26
-2.6596e-25
1.96044e-24
-7.35494e-24
2.83467e-23
3.74463e-29
1.39578e-26
-2.80624e-29
6.3525e-33
3.34807e-30
4.43265e-33
8.13966e-37
2.40325e-34
1.87181e-35
3.02073e-40
1.76857e-38
-3.48517e-38
1.29116e-43
5.59737e-42
-5.53289e-42
5.53689e-47
1.54029e-45
-1.23706e-44
2.3763e-50
3.89295e-49
5.64342e-48
1.01661e-53
7.97712e-53
4.69078e-50
4.30252e-57
8.02936e-56
3.6145e-55
1.86728e-60
4.89141e-60
-2.42992e-57
7.8916e-64
6.77665e-63
9.05565e-61
3.29175e-67
-3.14677e-67
-1.91294e-65
6.63772e-70
-1.52877e-71
-2.52027e-67
5.8546e-74
-4.86829e-74
-2.58613e-70
4.06412e-76
1.90085e-77
-8.39222e-73
-3.78581e-80
-5.90494e-81
-1.31617e-77
-9.7149e-85
8.98854e-84
-8.06068e-80
-7.02671e-86
2.50437e-87
-1.49768e-82
6.64833e-89
-8.12441e-91
6.78383e-86
-5.54109e-93
1.01783e-94
1.04123e-89
1.12861e-94
-2.59932e-97
2.49106e-92
-6.28339e-99
9.5109e-101
-2.86324e-96
-5.62801e-101
8.1899e-104
1.02865e-98
1.99105e-104
-2.11485e-107
-3.31788e-101
3.5601e-108
-2.12605e-110
1.43134e-104
-9.47869e-111
-1.79367e-113
8.87647e-108
-2.48842e-114
1.35456e-117
1.03804e-110
1.6296e-117
1.60952e-120
-2.26548e-114
-1.03473e-120
7.58221e-124
-1.25553e-117
2.2932e-125
2.38341e-126
-2.7198e-120
-8.01057e-127
-7.15065e-129
7.77314e-124
-2.58688e-130
-7.85986e-134
9.60995e-127
-1.7142e-133
9.5635e-138
6.8488e-130
1.65633e-136
-1.72029e-139
-3.07702e-133
-6.85473e-141
9.59629e-143
-4.54831e-136
7.83153e-143
1.03013e-144
-2.80953e-140
3.82376e-148
-3.372e-149
7.75223e-143
8.16633e-150
5.48544e-153
-1.28648e-145
1.31037e-152
9.24712e-156
-4.8681e-149
4.95337e-154
-2.19291e-158
1.63841e-152
1.19776e-155
-4.29988e-159
7.81157e-155
3.39926e-160
-1.47537e-157
1.42524e-09
-4.02354e-10
-9.32502e-11
9.40799e-10
-5.35002e-10
2.98172e-11
1.06345e-09
3.24294e-10
2.14095e-10
-1.56254e-10
-3.47599e-10
-2.18051e-09
-1.59708e-10
-3.34482e-10
-1.36093e-10
6.04071e-10
8.02069e-10
6.00066e-10
1.02952e-09
-1.51559e-09
1.12113e-09
3.48222e-10
-1.19274e-10
-2.46407e-11
-3.36433e-10
1.23364e-09
-2.91309e-10
-2.16599e-09
-3.33278e-17
-4.50962e-19
6.34107e-18
-2.3151e-17
-1.36446e-18
6.0855e-17
-3.51334e-16
3.42267e-16
1.45111e-21
-3.24302e-21
-9.42108e-23
8.94283e-23
-7.41477e-22
-2.10629e-22
2.93601e-21
1.37144e-28
-2.55995e-25
-3.7517e-28
1.00203e-30
-6.13564e-29
1.59855e-31
2.20096e-35
-1.76699e-32
4.44369e-35
9.64749e-41
-2.84977e-36
1.62679e-38
-6.3248e-44
-1.50829e-39
-4.88024e-41
-1.47207e-46
-4.55859e-43
-8.78594e-44
-2.96915e-49
-8.65326e-47
-2.01746e-47
2.83032e-51
-6.59648e-51
-8.31523e-50
1.21948e-54
-3.91095e-54
-1.4585e-53
4.51788e-59
3.44247e-57
2.86262e-56
1.38814e-62
1.67455e-60
8.83068e-59
6.13639e-66
-2.22341e-65
9.26543e-64
4.30611e-69
-1.31823e-67
-9.08774e-66
1.33719e-72
-4.93232e-73
-4.83727e-69
6.56351e-76
-2.71389e-74
4.56796e-72
3.2056e-79
-2.58127e-78
-1.23619e-75
4.90227e-82
2.22451e-82
1.04278e-78
6.39238e-85
7.04024e-85
6.32812e-82
3.53335e-89
1.34133e-88
8.35473e-85
1.25059e-92
-2.63659e-91
3.06732e-89
5.05244e-94
-1.58856e-94
-5.86184e-91
-2.4811e-98
-8.57206e-98
2.09519e-94
2.81496e-101
-8.97625e-102
1.51964e-97
1.22468e-105
-1.31311e-105
-1.82364e-102
-1.03525e-107
-3.3907e-107
6.08107e-105
-9.57789e-111
-1.15e-110
8.92222e-108
3.24692e-114
-2.49153e-115
-1.41826e-110
-3.55727e-117
-3.60968e-118
-9.2456e-114
4.57535e-120
-2.77443e-121
4.42152e-117
8.76586e-125
-6.25443e-126
-9.08399e-121
-1.77891e-126
-1.14572e-127
4.018e-123
-2.99355e-129
-2.0884e-130
5.31251e-126
7.743e-135
-5.74444e-134
8.52828e-131
-2.68997e-136
-4.74344e-137
2.81656e-132
-1.73631e-139
-1.30507e-140
-2.09859e-136
-1.31654e-143
5.64095e-144
1.54682e-139
3.85569e-146
-1.49999e-146
3.26006e-142
-3.59493e-148
1.34344e-150
2.53744e-145
3.02688e-151
3.36982e-152
-1.63413e-147
1.1006e-153
7.50708e-157
-8.05831e-152
2.25296e-155
1.54566e-158
1.23677e-155
-3.40604e-160
6.48004e-157
1.21902e-09
-1.79258e-10
-6.51254e-11
8.84204e-10
-1.92685e-10
3.08351e-11
1.24876e-09
-5.30446e-11
1.24343e-11
1.25794e-10
-2.37992e-10
1.92589e-10
1.94839e-10
3.2222e-10
3.10098e-10
-5.98446e-11
1.99281e-10
2.06624e-11
-3.39472e-11
-8.2348e-11
-6.98745e-11
9.8473e-10
8.82761e-11
-8.80205e-10
-1.33268e-11
-3.03857e-16
1.43501e-09
-3.83809e-16
1.43504e-09
7.47513e-20
-6.44843e-21
-1.09533e-21
3.34446e-20
1.21195e-19
-1.30169e-18
1.07972e-18
2.96465e-27
1.52666e-25
-2.29037e-25
-1.8896e-29
2.4137e-29
3.88295e-30
1.86383e-32
6.64059e-33
-1.47916e-32
1.92595e-36
1.1753e-36
-1.25171e-35
2.78506e-40
6.22199e-40
-1.0044e-39
1.11305e-43
2.07802e-43
-3.90057e-43
4.72808e-47
6.74118e-47
1.95227e-45
2.22294e-50
2.02315e-50
-3.88469e-48
8.91756e-54
5.9656e-54
-5.1398e-52
3.59825e-57
9.18535e-58
7.09948e-55
2.63474e-60
2.90339e-60
-1.06399e-58
6.3511e-64
7.91134e-65
-1.82513e-61
2.1787e-67
-1.45687e-67
-8.17147e-64
1.12138e-70
-8.66399e-73
-7.80108e-68
4.72378e-74
-2.20085e-74
-6.83271e-71
2.1852e-76
-8.98738e-78
-1.81631e-73
-3.68084e-80
3.15885e-81
4.14882e-77
6.51483e-83
2.28501e-85
1.91195e-80
2.40714e-87
3.08932e-88
-3.49906e-83
-1.43405e-90
-7.96112e-91
-1.46156e-86
4.4381e-92
2.11127e-95
-4.41516e-89
2.30817e-95
4.7392e-98
-1.29733e-92
6.80076e-99
5.33555e-101
4.32588e-96
4.02705e-102
-7.51365e-104
-4.10839e-99
5.33587e-105
1.24217e-108
-5.3384e-102
1.16914e-108
1.05922e-111
-5.3858e-105
4.55362e-111
1.27973e-114
-3.4462e-108
-1.30241e-114
-1.49627e-117
1.10985e-111
-1.16634e-117
-2.52595e-121
1.06942e-114
5.90477e-124
1.03771e-124
-4.49604e-118
-2.93536e-125
3.41698e-127
-6.02255e-121
-9.05248e-128
7.09848e-130
-3.42387e-124
-5.47532e-131
-2.3991e-134
-1.81631e-127
3.39139e-133
7.38428e-137
-1.79989e-130
-3.30089e-137
-7.80075e-140
1.52924e-133
-1.20334e-140
-3.10869e-143
6.59685e-137
1.18683e-143
2.00878e-146
-3.60194e-140
-1.08102e-146
-3.43211e-150
-3.81357e-143
1.37765e-149
-1.39964e-152
-1.35387e-148
4.41313e-153
9.02696e-156
8.59146e-150
2.50641e-154
-2.02623e-158
1.1581e-152
-2.5633e-160
-2.03187e-156
1.34336e-09
-6.73449e-11
-4.44097e-11
1.22538e-09
-8.78163e-11
4.37099e-11
1.24451e-09
-6.62389e-11
-1.19455e-11
1.99304e-10
-2.11611e-10
5.14178e-11
1.93715e-10
3.82622e-10
3.50641e-10
-1.06019e-12
2.2671e-10
-9.95914e-12
-4.10588e-13
1.83728e-11
-3.54609e-11
-4.41358e-11
-1.14312e-12
6.93463e-11
-3.46209e-11
1.4596e-13
-4.71885e-13
4.2972e-12
9.58772e-18
2.69681e-19
-2.422e-19
-1.47298e-20
5.98696e-20
8.27774e-20
4.708e-20
-2.0933e-19
-7.44359e-28
-5.66679e-23
5.98259e-25
-7.95389e-30
-9.24128e-27
1.34629e-29
1.80016e-31
-1.51199e-30
-5.82881e-33
1.0809e-36
-4.12944e-34
-2.14866e-35
-3.95293e-40
-1.39643e-37
-3.06185e-40
-1.63191e-43
-3.11771e-41
-9.81451e-43
-6.53715e-47
-7.87235e-45
-4.49453e-46
-2.58684e-50
-1.92168e-48
-1.0438e-48
-1.00216e-53
-8.2315e-52
-3.19718e-52
-3.84825e-57
-2.2017e-55
-9.73373e-54
-1.50721e-60
-9.83273e-59
-1.09319e-57
-5.63663e-64
-3.53166e-62
7.98658e-61
-1.21942e-67
-4.5751e-66
-2.24322e-64
-7.22386e-71
-1.70182e-69
5.48942e-68
-2.24066e-74
2.94115e-73
-6.98251e-70
-7.81632e-78
6.50158e-76
-3.09583e-73
-1.97663e-81
1.43817e-80
-1.50502e-76
3.79994e-84
-7.93155e-84
-1.4947e-79
-4.03911e-85
-5.76565e-87
3.15127e-82
-1.9934e-89
2.22067e-90
4.2645e-86
1.35863e-91
9.01516e-94
-7.90727e-89
8.08182e-97
-9.3461e-98
-2.9666e-93
2.538e-100
-1.93183e-100
-6.03609e-96
-3.0163e-101
-7.8521e-104
1.41002e-98
-2.05279e-104
1.1349e-106
1.73033e-101
1.15167e-109
1.49375e-110
-2.81579e-105
-1.06934e-110
3.94848e-113
1.05094e-109
4.84091e-114
1.56804e-117
-1.00561e-111
-2.44105e-118
-3.44953e-120
-7.29289e-115
1.77522e-121
-2.43366e-124
-2.04061e-118
-2.06273e-124
3.02218e-125
-4.4078e-121
-2.24168e-128
-1.81892e-129
8.51467e-124
1.80302e-131
5.80103e-133
-1.29517e-127
-5.68501e-134
5.70435e-136
1.76139e-130
-1.18079e-137
3.06083e-141
4.02717e-134
-2.50897e-141
-7.82889e-142
1.35575e-136
-8.78819e-143
1.48274e-145
1.45017e-140
-7.50684e-146
6.44906e-149
8.01071e-143
1.86068e-150
1.80288e-151
-1.0138e-145
4.64738e-152
-4.75451e-155
2.47305e-150
3.32794e-154
1.07671e-157
-9.52395e-153
-8.75435e-158
7.02481e-155
1.29444e-09
7.59772e-11
-2.7145e-11
1.11837e-09
5.01378e-11
-1.12453e-11
1.03274e-09
-5.78201e-12
2.47443e-11
8.40012e-11
-1.44704e-10
1.51125e-10
1.94645e-10
1.5641e-10
3.93604e-10
2.12295e-11
8.12578e-11
1.73832e-11
-4.4414e-11
-7.0957e-11
-7.01708e-11
-9.62336e-11
-3.32111e-11
2.64758e-10
-2.56231e-09
3.88939e-12
-2.04908e-12
-7.09696e-11
5.8803e-12
5.87986e-18
-2.80986e-19
-3.05614e-19
2.82039e-18
-2.05192e-18
1.91773e-17
-2.54842e-17
-9.03949e-26
-8.89077e-23
3.73485e-25
-1.27254e-30
-1.68388e-26
6.65851e-28
1.69762e-30
-3.79676e-30
-2.52201e-31
1.1257e-34
-1.21788e-33
9.50499e-34
7.99598e-39
-3.55929e-37
7.49984e-38
1.51449e-42
-8.81912e-41
-1.70611e-41
6.69087e-46
-1.88022e-44
-4.77246e-44
3.14887e-49
-4.09592e-48
-1.48177e-46
1.47152e-52
-1.78023e-51
-3.54103e-50
6.14086e-56
-4.41915e-55
-1.62564e-53
3.10123e-59
-8.65026e-59
-3.43767e-56
1.42073e-62
-2.12462e-61
5.69419e-59
1.42258e-65
-3.60783e-66
-6.04991e-63
2.70712e-69
-2.26415e-69
-4.84598e-66
1.27661e-72
3.68049e-74
-7.74606e-70
1.78189e-75
-7.69473e-77
-1.91414e-73
-1.67478e-78
-6.47751e-80
4.19055e-75
2.2253e-82
-1.77804e-83
5.39291e-78
1.466e-84
-7.81859e-87
-1.35666e-81
2.26808e-89
-1.177e-89
1.95056e-85
-3.37576e-90
-6.31991e-93
1.49162e-87
-1.05198e-94
7.2357e-96
-1.45683e-90
5.90013e-97
-1.15849e-99
-2.42712e-94
5.63139e-102
-6.98572e-104
1.67388e-97
-3.46348e-104
3.80714e-107
1.10837e-100
2.33443e-107
-3.916e-110
-1.74143e-104
1.29687e-110
2.18365e-113
6.71637e-107
5.02111e-114
-1.61755e-116
-9.2815e-111
-7.60894e-116
1.67009e-118
-2.93841e-113
-1.21886e-120
-1.51208e-122
-1.28871e-116
-8.07342e-123
2.69139e-126
5.1005e-120
3.14581e-126
-4.91363e-130
-3.17118e-123
-1.99895e-130
-1.22409e-132
2.49805e-126
-1.89926e-132
-7.76233e-134
1.90064e-129
-3.36572e-137
-2.19988e-137
-6.29662e-133
-5.81132e-140
-2.17553e-141
1.53313e-135
1.05256e-142
-6.45055e-145
2.47936e-139
-1.78067e-145
-4.28038e-148
6.65115e-142
-2.21256e-147
1.97317e-150
-6.04167e-145
1.21422e-151
1.09635e-153
5.64134e-148
3.32991e-153
1.55542e-156
-1.12645e-151
3.5696e-159
-2.22125e-153
1.29833e-09
2.49206e-10
-1.14591e-10
1.08216e-09
2.31406e-10
-1.46464e-12
1.01524e-09
1.16494e-10
-3.28348e-11
1.31975e-10
-9.51735e-11
5.73468e-11
1.52874e-10
2.90559e-10
3.42198e-10
7.37419e-12
8.12476e-12
-6.03646e-11
1.76863e-10
-3.39242e-12
-3.08843e-11
4.27138e-11
5.7964e-12
-1.47343e-11
-1.10145e-09
9.17697e-13
-1.88027e-12
2.29435e-12
2.0404e-11
5.72981e-18
-3.58433e-19
-2.19276e-19
2.0599e-18
-4.22547e-19
5.72792e-18
-1.2818e-17
1.53749e-26
-9.81931e-23
3.8078e-25
3.23095e-29
-2.70145e-26
-4.34648e-28
2.07705e-30
-4.62106e-30
8.62531e-32
5.57049e-35
-1.55303e-33
8.84866e-34
4.2418e-39
-3.65275e-37
-1.14837e-36
1.85517e-42
-1.07689e-40
-1.63315e-41
8.51548e-46
-3.03623e-44
1.10511e-43
3.90958e-49
-7.86934e-48
3.73951e-47
1.77997e-52
-2.07129e-51
6.12199e-51
8.20786e-56
-4.43148e-55
-8.59659e-53
3.65162e-59
-1.40763e-58
-1.39684e-56
1.63395e-62
-5.42723e-62
-1.09656e-58
9.2934e-66
5.11329e-66
-1.99314e-62
3.16536e-69
-7.64493e-69
8.15588e-66
4.86994e-73
-5.56608e-73
3.36505e-69
1.89863e-76
-4.31948e-76
-3.6075e-73
1.34581e-79
1.67736e-80
1.182e-75
-4.92336e-81
3.74325e-83
4.84e-78
5.38565e-86
-2.97872e-87
1.38995e-83
1.48606e-88
8.14913e-91
-7.98777e-85
-1.14129e-91
-6.39233e-93
-3.20653e-89
6.572e-95
2.97562e-95
-1.54695e-90
-1.2012e-96
1.34534e-98
-5.95913e-94
8.72712e-101
-1.88539e-103
-1.69018e-97
-2.23318e-103
-1.15956e-106
1.30394e-100
3.08567e-107
7.35107e-111
-4.90211e-104
2.22945e-110
1.3662e-114
-5.67879e-107
3.51399e-114
1.39114e-117
1.3229e-110
8.0012e-117
4.47214e-120
2.28497e-113
-1.76348e-119
6.72568e-123
-7.75366e-117
2.26515e-123
6.2776e-127
-1.7131e-120
-5.05193e-126
-6.0067e-129
9.25626e-123
5.0903e-130
1.04802e-132
-5.93794e-126
-7.21337e-132
-5.19766e-136
-4.88753e-129
-9.94104e-135
-1.31289e-139
7.45608e-132
3.3861e-139
7.36817e-142
-3.99296e-136
-4.56408e-142
-2.54911e-146
7.09848e-139
9.8139e-147
-4.73585e-150
2.22529e-143
2.90789e-147
4.34107e-150
-4.20274e-144
6.71102e-152
-1.2303e-155
-2.25058e-148
7.6962e-154
-6.60735e-158
8.73236e-151
-4.96652e-159
1.1627e-154
1.19858e-09
4.73354e-10
-5.69123e-11
9.07096e-10
5.47926e-10
2.369e-11
7.19668e-10
2.99619e-10
1.13785e-12
9.05111e-12
5.64437e-11
1.85175e-10
2.07822e-13
2.0955e-10
1.47376e-10
9.68083e-11
-7.67306e-12
-9.1115e-11
2.48937e-11
1.44388e-10
3.48617e-11
1.47406e-11
-3.22985e-11
-1.56376e-10
-6.90201e-10
-5.23691e-13
1.25573e-12
3.47722e-11
-7.33666e-15
2.53e-19
-1.41181e-20
-8.55292e-21
1.94087e-19
5.08346e-20
-8.90705e-19
-2.40563e-20
5.00007e-26
-6.90331e-25
6.97937e-25
3.28415e-30
-4.03925e-29
-8.72077e-30
2.72533e-31
-1.48015e-32
-5.55126e-33
4.3885e-36
-7.73018e-36
2.78088e-36
3.48973e-40
-1.12306e-39
7.65583e-39
1.51708e-43
-2.7433e-43
1.06437e-42
6.74974e-47
-5.4486e-47
-9.04494e-45
2.98979e-50
-1.78118e-50
-1.44994e-48
1.31716e-53
-4.59595e-54
8.32635e-53
5.69876e-57
-5.29547e-58
-2.84192e-54
2.41671e-60
-1.23237e-60
-1.19413e-57
1.11629e-63
-2.39876e-65
1.26958e-60
-6.07123e-66
-6.33037e-68
-3.42019e-64
2.08456e-70
-3.2126e-71
1.01223e-67
5.8505e-74
1.13264e-74
3.08712e-73
1.45858e-76
4.23465e-79
-2.4624e-73
-5.82359e-79
1.37087e-81
2.18811e-76
-1.9028e-83
-1.70682e-85
2.75195e-80
-7.35328e-87
-1.53504e-88
-3.75042e-83
6.1628e-90
-1.98754e-92
3.98562e-86
-2.58727e-91
-2.96796e-95
9.10016e-89
2.02744e-95
-8.11577e-98
-2.03442e-93
-3.3389e-99
-1.64304e-101
5.92952e-96
-5.40894e-102
-3.3673e-105
3.46013e-100
-3.35168e-105
-2.51726e-109
1.73664e-102
-4.46446e-109
7.35847e-113
1.63877e-105
4.11792e-112
2.88628e-115
-1.07861e-108
-1.29944e-114
1.28735e-117
-3.75609e-114
-4.41898e-118
1.04219e-121
-1.23999e-114
-2.23656e-120
1.88419e-124
5.58622e-118
3.93056e-125
8.81571e-128
2.26873e-121
4.67504e-127
-6.3629e-130
1.05877e-124
-1.24339e-131
1.59376e-134
3.2505e-127
2.75729e-133
1.35828e-136
-1.12829e-131
6.02367e-139
-6.55203e-140
9.19693e-134
-1.55613e-140
7.42074e-145
7.75628e-137
-2.69925e-143
-9.94422e-147
6.55375e-140
7.81561e-149
1.83985e-150
-4.17044e-144
5.96039e-150
9.61042e-154
-1.63006e-146
3.46087e-153
5.98998e-156
2.07102e-150
2.75767e-154
-2.76032e-158
2.98369e-152
4.36893e-160
-3.58048e-155
1.30572e-09
6.19268e-10
-4.26712e-11
8.0583e-10
1.0154e-09
5.59653e-11
-9.5367e-12
1.13111e-09
-4.54326e-11
-3.31674e-10
7.81016e-10
-6.875e-10
-1.87103e-10
-2.4487e-10
5.17394e-12
8.11244e-10
9.83629e-10
4.01148e-10
1.44674e-10
-2.47758e-10
-3.00662e-10
6.19537e-11
-1.56493e-10
-2.17756e-10
-3.9122e-10
-2.7885e-10
1.03799e-09
-3.36943e-11
-7.67309e-14
1.42158e-09
1.96971e-11
1.42175e-09
4.22991e-21
-6.04252e-22
-5.41841e-22
4.77724e-21
1.21936e-19
2.46359e-19
-4.01272e-19
1.4422e-27
9.70312e-26
-1.02231e-25
-1.83822e-30
1.70002e-29
1.10508e-29
1.21822e-32
4.55038e-33
-1.16933e-33
1.20294e-36
8.96901e-37
-1.5142e-36
1.51182e-40
6.4325e-40
-7.68666e-39
6.13188e-44
1.7505e-43
-5.62125e-42
2.55651e-47
3.07443e-47
1.76044e-45
1.14841e-50
9.38748e-51
-1.64931e-49
7.32994e-54
4.67001e-54
5.74724e-51
1.97738e-57
2.91803e-58
2.40017e-54
1.78162e-60
-8.90052e-61
-2.68284e-57
3.45108e-64
2.68434e-64
-5.07004e-61
-3.34064e-67
1.44347e-68
2.65406e-64
6.7685e-71
1.82154e-71
-8.30871e-68
1.56202e-73
-1.54906e-75
2.25779e-71
1.09487e-77
-4.99854e-78
-8.5899e-75
9.77715e-81
-3.53659e-81
1.10334e-76
-4.87496e-83
-9.04491e-86
-6.15924e-80
5.78834e-86
-5.04197e-89
-8.57366e-83
-9.07863e-90
-1.05956e-91
2.03159e-86
9.10387e-93
6.28402e-95
-4.68457e-90
2.09934e-95
9.70334e-98
-5.53553e-93
-3.61051e-99
1.29011e-101
6.82858e-96
-9.2906e-104
2.96978e-105
-4.64882e-100
1.43128e-105
-2.03052e-108
-3.81116e-102
9.63022e-109
2.19667e-113
-9.39888e-106
-6.40517e-113
1.899e-115
6.15194e-109
-1.11975e-114
4.46579e-118
1.46436e-111
-1.83835e-118
1.10127e-121
-4.91321e-115
7.2411e-121
2.08413e-125
-8.46377e-118
1.48927e-124
-7.26368e-129
5.53575e-122
-5.09863e-128
-1.1888e-130
-2.53199e-125
3.07788e-131
9.22907e-135
-7.51928e-128
2.58714e-134
1.33615e-137
-1.30072e-130
-5.20228e-137
-2.38434e-140
-6.04864e-134
1.06935e-140
-4.93185e-145
-1.72776e-138
-1.26716e-144
-1.71797e-149
3.3967e-141
-6.13163e-149
9.55049e-151
-7.93893e-144
9.93705e-150
-3.95851e-153
-7.58363e-147
2.32975e-153
-2.58726e-156
4.66948e-150
1.80311e-154
-1.51646e-157
4.35128e-153
3.92525e-160
-1.38981e-155
1.41416e-09
6.30841e-10
-2.0197e-11
1.80721e-09
1.24854e-09
-6.44133e-10
5.10438e-10
1.08224e-09
-9.29082e-11
1.08099e-09
5.92425e-10
1.76648e-09
-6.4898e-10
1.53562e-09
1.07491e-09
-4.34624e-10
-4.2384e-10
7.89305e-09
1.69596e-09
-4.83654e-09
-1.43579e-09
-1.37766e-09
-3.26753e-09
2.44281e-10
2.08329e-10
5.06146e-11
-3.17082e-10
-2.3646e-10
2.01636e-15
2.11951e-15
-1.82509e-17
-9.76279e-17
5.69684e-17
-1.05227e-16
-6.67187e-15
1.794e-15
2.13483e-15
1.86301e-15
1.86294e-15
1.67246e-21
1.63923e-22
-4.06379e-22
-8.03086e-21
-2.55309e-21
2.3993e-20
-1.37779e-20
6.39136e-28
3.35363e-26
-6.33847e-27
1.74215e-30
8.44295e-30
-4.59427e-32
2.41514e-34
1.08541e-33
-4.48328e-34
6.12663e-38
1.26729e-37
-3.84708e-38
2.34804e-41
3.86748e-41
1.69453e-41
9.86381e-45
9.70025e-45
-2.06848e-44
4.1501e-48
2.54882e-48
-3.53046e-47
1.74287e-51
3.85181e-52
8.6457e-50
7.29828e-55
1.70758e-55
1.07726e-52
3.0513e-58
4.23703e-59
4.66701e-56
1.25903e-61
1.0434e-62
-2.83411e-59
5.29871e-65
4.12761e-66
-4.17958e-62
2.20131e-68
3.26561e-71
2.35159e-66
9.13817e-72
8.30227e-73
-9.2265e-69
3.80013e-75
-4.24846e-77
-7.49166e-73
1.6206e-78
3.55316e-80
-1.2509e-75
1.28945e-80
1.01194e-84
-2.10741e-77
5.26397e-85
-9.33205e-87
-5.07281e-82
-4.39272e-89
-3.24927e-90
3.12165e-85
-8.94684e-92
6.04899e-94
-3.73596e-88
1.27628e-95
-1.91172e-96
-3.87279e-92
-6.47257e-98
-9.73164e-102
-2.59044e-94
5.8462e-100
5.75637e-104
-1.14725e-96
-1.84327e-106
-2.05032e-106
5.97269e-102
-1.04565e-107
-1.26466e-109
9.04945e-104
-1.10305e-110
-1.71621e-112
2.36894e-107
-4.25722e-113
4.2936e-116
1.60392e-111
-3.27237e-118
1.94161e-119
1.04172e-113
2.20104e-120
-1.41772e-121
6.17408e-116
-2.38279e-123
-2.21882e-126
3.20024e-120
-1.72128e-126
-2.85232e-128
1.17934e-123
1.95871e-130
1.3249e-132
-4.18091e-126
-4.25354e-134
-1.01645e-135
-6.75652e-129
2.48318e-135
1.8194e-137
-9.89082e-132
-5.39445e-139
1.30755e-141
-3.54842e-135
1.66146e-142
-1.85314e-144
1.42148e-139
-2.53639e-145
-9.54298e-148
-7.67609e-143
8.09762e-149
6.20355e-152
-8.02945e-146
-4.50024e-152
1.79098e-154
1.96939e-148
2.02076e-153
-4.39201e-157
-2.42832e-151
3.23911e-155
-3.04608e-159
-2.90762e-153
-2.2115e-160
-1.79188e-157
2.96766e-09
-7.0285e-11
4.77486e-09
7.3335e-10
-4.35661e-10
5.65332e-08
5.77378e-10
-7.0559e-10
6.11242e-09
-5.11661e-08
-4.71314e-08
5.31611e-08
-8.87911e-09
3.64812e-10
1.03418e-08
-1.27411e-09
3.14034e-09
2.15243e-09
5.65213e-09
2.0852e-09
-1.28973e-08
1.33298e-09
-6.53623e-09
4.9841e-09
4.152e-10
-1.04044e-09
2.05885e-18
-1.15241e-19
-2.91352e-21
-5.59153e-21
-3.05527e-20
5.51108e-20
-4.08062e-19
-1.5462e-18
7.19393e-25
-2.33215e-26
7.79188e-24
-1.55268e-25
-3.20373e-22
-1.27762e-24
4.34108e-28
-2.89702e-29
6.45156e-31
2.96096e-31
4.7841e-35
-3.47521e-35
6.07459e-39
-1.18557e-37
2.51064e-42
-7.22943e-41
1.074e-45
-2.47154e-44
4.58363e-49
1.10406e-47
1.95146e-52
7.86377e-50
8.28132e-56
2.00482e-55
3.51261e-59
4.12312e-57
1.4907e-62
-1.61059e-59
6.30553e-66
2.97414e-63
2.60621e-69
-5.16286e-66
7.83229e-73
-4.52926e-69
4.57539e-76
-1.66616e-72
-1.91162e-79
7.00896e-76
-9.10327e-83
1.64513e-78
-2.5153e-86
-1.0068e-83
5.35162e-89
-6.59548e-85
6.03744e-92
-6.97691e-89
2.74994e-95
2.25809e-91
1.06102e-98
-1.68973e-95
2.68862e-100
-5.51235e-97
8.23242e-104
-3.20073e-100
4.80663e-107
-9.44449e-104
1.57241e-109
-1.00585e-106
-1.01935e-113
2.34784e-110
-8.61943e-117
-9.32847e-114
1.47368e-119
-2.40155e-116
4.26584e-124
5.38648e-120
8.51996e-126
-7.87728e-123
2.80337e-130
-1.34623e-127
7.90491e-133
-1.05828e-129
-1.2692e-136
1.23243e-132
3.80422e-138
-3.09705e-135
1.55447e-142
-1.28027e-139
-3.8867e-146
-1.06193e-142
6.85488e-148
-1.09091e-145
-1.12157e-151
5.28087e-148
9.78539e-154
4.09163e-152
1.81511e-155
8.59274e-155
-5.77407e-158
2.10953e-09
-4.72743e-10
-8.18496e-11
2.42237e-09
-1.11709e-09
-6.21749e-10
-1.80598e-09
5.62137e-10
2.05692e-09
-6.73943e-10
-2.2939e-09
-2.47442e-09
-6.88623e-09
-1.10793e-09
-2.6727e-09
-1.51486e-08
5.29379e-09
2.65316e-09
-8.42302e-09
-9.21315e-11
1.09535e-09
1.2853e-09
1.3705e-10
1.34931e-10
1.3794e-10
1.0303e-11
6.00184e-11
2.93004e-10
-7.05758e-11
-1.46461e-18
4.04042e-21
2.07306e-19
9.06792e-20
1.06037e-22
1.06872e-18
-1.56946e-18
1.36676e-18
2.65493e-24
3.44501e-22
6.23826e-26
-2.39755e-23
1.82404e-23
-2.24169e-23
4.74259e-23
1.21671e-27
1.22534e-25
-6.8269e-29
1.09201e-30
4.71862e-29
2.01509e-33
1.38919e-34
8.32139e-33
3.32799e-35
7.3912e-38
1.12483e-36
-1.20943e-38
5.73326e-41
5.31277e-40
6.24119e-42
4.18747e-44
2.39308e-43
4.48418e-45
3.01514e-47
1.05031e-46
3.90327e-48
2.172e-50
4.83518e-50
-3.54734e-50
1.5604e-53
1.86226e-53
-3.52434e-55
1.11875e-56
1.47352e-57
-1.60899e-57
7.99428e-60
5.5564e-60
-3.39244e-60
5.69613e-63
-8.46367e-64
6.25512e-64
4.05342e-66
2.69598e-67
2.44118e-67
2.87611e-69
7.72529e-70
-1.32339e-70
2.04047e-72
-8.2679e-73
1.75284e-73
1.44376e-75
3.43408e-76
-7.11265e-77
1.01861e-78
-3.23169e-79
4.91439e-80
7.17132e-82
-2.97795e-82
2.0561e-82
5.04053e-85
1.01522e-85
1.46652e-86
3.53494e-88
4.78965e-89
2.56975e-89
2.47239e-91
-1.86138e-92
-6.56163e-92
1.72641e-94
-4.72354e-95
2.1391e-95
1.20186e-97
8.13524e-98
-7.30862e-98
8.35159e-101
2.87859e-101
1.32322e-101
5.79838e-104
-3.36716e-105
-6.49074e-105
4.01903e-107
-4.04922e-108
1.61134e-108
2.77883e-110
1.41624e-111
5.65358e-111
1.91434e-113
4.50118e-115
-1.01764e-114
1.3148e-116
1.62266e-117
-1.45417e-117
9.01984e-120
-2.2493e-120
1.47896e-120
6.18311e-123
6.73705e-125
-1.02373e-123
4.22686e-126
8.96174e-128
1.13136e-126
2.88211e-129
1.47733e-130
2.93535e-130
1.96144e-132
-8.04141e-134
-2.82743e-133
1.33308e-135
3.04833e-136
-3.90653e-137
9.03325e-139
4.53194e-139
-2.48776e-140
6.10403e-142
-2.84344e-143
5.92368e-143
4.11735e-145
-1.12042e-145
-1.69286e-147
2.7729e-148
-1.3652e-149
6.82512e-149
2.19239e-151
-1.20619e-152
3.58e-152
-3.86112e-153
3.04747e-155
-7.60372e-155
1.54372e-157
-9.21674e-158
2.35526e-09
-4.31395e-10
1.98178e-11
1.88504e-09
-5.7405e-10
-1.11629e-11
1.98461e-09
3.69028e-10
2.14462e-10
-4.47897e-10
-6.55053e-10
-1.80544e-09
-1.74745e-10
1.92801e-10
-1.78648e-10
8.1272e-11
1.50246e-09
-2.63537e-10
1.38184e-09
2.70528e-10
-1.37594e-09
4.52999e-10
5.15092e-10
-3.17541e-10
1.68037e-09
3.4822e-11
-5.24264e-10
2.15394e-09
-9.92947e-11
-3.03808e-09
-3.16256e-16
1.77026e-18
-6.53555e-18
1.19715e-16
-1.21166e-16
-1.64264e-18
6.04774e-16
-4.88789e-16
5.06702e-16
1.0094e-20
-1.13263e-21
6.57359e-23
7.27196e-21
-1.33794e-20
7.22901e-21
-2.16368e-21
1.04383e-27
-2.03076e-24
-4.43526e-28
4.85579e-31
-4.91255e-28
1.94004e-31
4.83346e-34
-2.18792e-31
-1.05227e-34
1.34297e-38
-4.21696e-35
5.43277e-38
-2.44278e-41
-3.10237e-38
4.07084e-41
-3.65325e-45
-2.20396e-41
-2.89385e-44
2.1452e-48
-1.00596e-44
1.89164e-47
4.83241e-51
-3.14723e-48
2.49463e-50
8.68379e-54
-1.55038e-51
5.9809e-54
9.12539e-57
1.39364e-54
-3.0366e-58
9.10554e-60
1.57985e-57
3.19722e-59
7.43957e-63
-1.1281e-61
2.9868e-64
6.27664e-66
-2.32524e-64
1.30318e-65
5.07661e-69
7.11946e-68
6.38553e-69
4.00084e-72
-1.23284e-70
4.1352e-72
3.10029e-75
-1.78995e-73
1.63934e-75
2.37169e-78
2.78056e-78
-2.24e-78
1.79001e-81
1.68284e-80
-8.1786e-82
1.33883e-84
2.8008e-84
1.12734e-85
9.92211e-88
-2.31861e-86
-6.32633e-89
7.3199e-91
3.84801e-89
1.1964e-91
5.29137e-94
-1.93966e-92
2.7692e-94
3.84172e-97
-5.85671e-96
1.63615e-97
2.76932e-100
4.29545e-100
-1.63672e-102
1.98715e-103
-9.52405e-102
4.97333e-104
1.41655e-106
9.28798e-106
3.66796e-107
1.00618e-109
-3.43251e-109
-1.03313e-111
7.10251e-113
-3.56884e-112
1.75193e-113
4.99427e-116
-7.69633e-115
2.45544e-117
3.50023e-119
5.80689e-120
-1.84786e-120
2.44192e-122
-3.49504e-121
-1.49051e-123
1.69659e-125
-9.12607e-125
2.37053e-126
1.17485e-128
-2.22267e-128
-1.98207e-129
8.10898e-132
1.90138e-131
-1.9356e-132
5.57986e-135
9.47416e-134
1.3504e-136
3.83213e-138
2.32874e-137
1.75398e-138
2.62278e-141
-8.99909e-141
-2.55614e-142
1.78653e-144
9.1279e-144
-6.92284e-147
1.21606e-147
-8.55781e-147
4.96413e-148
9.33933e-151
-5.18781e-150
-5.696e-152
5.36505e-152
2.58847e-153
1.633e-154
-7.47135e-157
3.38503e-157
2.14651e-09
-1.89726e-10
7.22475e-11
1.81753e-09
-2.09512e-10
2.86229e-11
2.25101e-09
-6.0452e-11
-4.77432e-11
5.39959e-10
-3.4489e-10
-5.35719e-12
5.276e-10
5.43668e-10
5.33306e-10
-3.73077e-11
-8.74678e-11
5.679e-10
-3.4811e-11
1.35017e-10
1.14819e-09
-2.41979e-10
-2.3162e-10
-3.47703e-11
-2.84927e-11
-6.37134e-10
-4.53465e-11
-3.70677e-14
-2.19015e-15
-4.41669e-14
-4.07495e-15
-9.27366e-16
-8.35201e-20
-2.47413e-20
1.71995e-21
-8.25382e-19
9.74824e-20
1.05698e-19
5.53722e-19
2.91604e-26
1.3123e-24
-3.19739e-26
1.04445e-28
4.04793e-28
9.04805e-30
6.38554e-31
1.87927e-31
-2.20841e-32
2.43027e-34
1.23237e-34
-7.41173e-36
3.2226e-38
5.09752e-38
6.13624e-40
2.05621e-41
2.75557e-41
1.17682e-42
1.52589e-44
1.33686e-44
1.10273e-44
1.09166e-47
6.82315e-48
1.77078e-48
7.76111e-51
2.30496e-51
-2.89468e-51
5.51007e-54
2.01483e-54
1.90792e-54
3.90624e-57
5.91802e-57
2.51325e-57
2.76447e-60
7.55301e-62
-1.09631e-61
1.95205e-63
-3.75095e-64
-9.77638e-65
1.3766e-66
-2.04935e-69
3.21109e-67
9.68858e-70
-1.9905e-70
1.63479e-70
6.80264e-73
-1.3443e-73
-1.07044e-73
4.76549e-76
5.39559e-76
-8.30402e-78
3.33443e-79
5.45345e-81
4.07686e-80
2.3279e-82
1.32979e-83
-1.81715e-83
1.62227e-85
1.16792e-87
1.37282e-86
1.12965e-88
-1.07517e-89
1.47907e-89
7.84783e-92
5.9761e-93
1.54036e-92
5.44471e-95
6.42514e-96
2.20809e-95
3.77785e-98
-4.1609e-99
7.89335e-99
2.60857e-101
2.3293e-103
5.35016e-102
1.79535e-104
4.39456e-106
-2.57907e-105
1.23579e-107
5.73966e-109
1.06053e-108
8.49736e-111
-8.81692e-113
3.58995e-111
5.82657e-114
2.47523e-115
2.21191e-114
3.98712e-117
-3.83649e-119
-1.01082e-117
2.72165e-120
-1.48147e-122
-2.12613e-121
1.85329e-123
1.44333e-124
4.09322e-124
1.26021e-126
1.90771e-127
-1.96768e-127
8.55203e-130
-1.1668e-131
-2.82904e-131
5.79608e-133
4.4517e-134
1.59283e-133
3.92697e-136
-5.47613e-137
9.50395e-137
2.65202e-139
4.81232e-140
-4.21366e-140
1.78586e-142
3.93078e-143
-1.91614e-143
1.20068e-145
5.60863e-147
5.43681e-146
8.03269e-149
1.64936e-149
1.25013e-149
8.95737e-152
1.68253e-153
2.16449e-152
-1.10148e-155
-2.53391e-156
2.25831e-09
-7.80973e-11
8.62904e-11
2.19083e-09
-1.00157e-10
1.68175e-12
2.20515e-09
-7.1294e-11
-4.67385e-12
5.57851e-10
-2.26912e-10
-1.10988e-11
5.19664e-10
5.73849e-10
5.23884e-10
-6.02717e-11
5.12023e-12
6.42368e-10
2.71864e-11
-4.29607e-11
-1.31838e-10
6.52075e-11
-3.48295e-11
2.24243e-10
1.60441e-10
-2.75786e-10
-2.82099e-11
-5.40805e-12
4.27099e-13
-1.15322e-12
2.91228e-12
3.78352e-14
1.89199e-18
-6.06252e-19
1.45848e-20
1.17745e-19
-2.84239e-19
2.13745e-19
4.76848e-19
-1.07332e-24
-2.10243e-22
-6.35302e-25
-9.21813e-29
-4.54087e-26
2.2296e-29
6.34928e-32
-2.25709e-29
-6.00871e-33
-3.17579e-35
-1.17448e-32
2.85026e-35
-2.79089e-38
-5.55468e-36
-3.80965e-39
-1.77669e-41
-2.21641e-39
-3.03568e-42
-1.095e-44
-9.23373e-43
1.47108e-45
-6.65104e-48
-3.61029e-46
2.01995e-49
-3.90952e-51
-2.05902e-49
7.77119e-52
-2.20846e-54
-8.91498e-53
-8.84966e-55
-1.17905e-57
-5.83025e-56
3.47209e-58
-5.67274e-61
-2.66013e-59
8.57677e-61
-2.18739e-64
-1.41338e-62
-9.4262e-65
-3.03469e-68
-7.15901e-66
3.88176e-68
6.15889e-71
-8.70816e-70
-5.5297e-70
9.84257e-74
-1.27245e-72
-4.62194e-73
1.07905e-76
4.92704e-76
8.92056e-76
1.01496e-79
-3.21667e-78
-4.06238e-80
8.81707e-83
9.21586e-83
-1.74266e-83
7.29319e-86
1.61329e-84
-3.28641e-86
5.84087e-89
-5.10358e-87
9.77089e-89
4.54931e-92
1.0479e-91
-3.01658e-93
3.48424e-95
-4.13654e-96
7.89008e-96
2.63169e-98
-8.42351e-98
-2.27757e-98
1.9608e-101
2.84549e-102
8.15632e-102
1.44581e-104
1.46211e-105
-2.59335e-105
1.05715e-107
-1.67159e-107
3.74219e-108
7.67027e-111
3.54324e-110
1.55582e-111
5.52186e-114
1.53083e-113
1.40054e-115
3.94972e-117
-6.98613e-117
-3.25433e-118
2.80796e-120
-1.1222e-120
4.63563e-122
1.98424e-123
-3.30763e-123
7.78341e-125
1.39629e-126
-1.71039e-126
2.01067e-127
9.78215e-130
-1.06662e-128
-1.40279e-130
6.81147e-133
-3.08353e-132
6.80611e-134
4.72569e-136
-8.05181e-135
4.60107e-136
3.26448e-139
-1.18704e-138
-9.60018e-140
2.24847e-142
1.23067e-141
1.12185e-143
1.54147e-145
7.875e-146
8.49988e-146
1.05129e-148
3.1795e-149
-3.9756e-150
-2.73208e-151
-1.04443e-152
-3.69379e-153
-4.9259e-154
6.18591e-155
2.22637e-09
5.68459e-11
8.48338e-11
2.08047e-09
3.7813e-11
-4.93253e-11
2.02679e-09
1.05411e-12
3.03651e-11
4.28921e-10
-1.33617e-10
2.63878e-11
6.19763e-10
4.27561e-10
6.00137e-10
-4.10592e-12
1.80468e-11
3.0919e-10
-4.67623e-11
1.41343e-10
-1.36794e-10
-1.86092e-11
-1.01948e-10
1.77915e-10
-9.7325e-12
8.34169e-11
-3.65672e-09
-8.58625e-11
-4.47225e-12
-4.06746e-12
-7.16879e-11
1.06728e-11
3.10242e-17
-7.70884e-19
2.89569e-19
3.53212e-17
-3.577e-17
3.04487e-17