/*--------------------------------*- C++ -*----------------------------------*\
| =========                 |                                                 |
| \\      /  F ield         | OpenFOAM: The Open Source CFD Toolbox           |
|  \\    /   O peration     | Version:  5.0                                   |
|   \\  /    A nd           | Web:      www.OpenFOAM.org                      |
|    \\/     M anipulation  |                                                 |
\*---------------------------------------------------------------------------*/
FoamFile
{
    version     2.0;
    format      ascii;
    class       volScalarField;
    location    "0.5";
    object      p;
}
// * * * * * * * * * * * * * * * * * * * * * * * * * * * * * * * * * * * * * //

dimensions      [1 -1 -2 0 0 0 0];

internalField   nonuniform List<scalar> 
4720
(
105.533
104.762
107.036
105.499
96.2004
96.6998
97.419
95.243
93.137
90.8038
88.3612
85.8592
83.3335
80.8193
78.3118
75.8219
73.3411
70.8896
68.4569
66.0564
63.6572
61.2796
58.9314
56.5737
54.2425
51.9287
49.6242
47.3157
45.0249
42.7668
40.5032
38.2643
36.0539
33.8307
31.6079
29.4155
27.2791
25.1761
23.0826
20.9834
18.9129
16.8874
14.8633
12.8152
10.7942
8.82129
6.85055
4.87459
2.91933
0.975704
104.517
103.99
103.411
101.993
100.286
102.066
98.218
95.4647
93.2233
90.838
88.3778
85.8648
83.3557
80.8323
78.3124
75.8272
73.3422
70.9098
68.4941
66.0639
63.6648
61.2812
58.9188
56.5724
54.2306
51.9142
49.6122
47.3178
45.0368
42.7693
40.5174
38.2769
36.052
33.8272
31.6114
29.4216
27.2742
25.1606
23.065
20.9823
18.918
16.8905
14.8689
12.8336
10.802
8.81174
6.84179
4.87209
2.91808
0.975266
104.21
103.867
103.391
102.516
101.639
101.244
99.111
96.007
93.5498
91.008
88.4861
85.9163
83.373
80.8508
78.3296
75.8246
73.3589
70.9281
68.5016
66.0606
63.6665
61.2844
58.9129
56.5676
54.2305
51.9068
49.6003
47.3229
45.0438
42.77
40.5211
38.2748
36.0268
33.8185
31.6243
29.4422
27.2759
25.1519
23.0618
20.9843
18.9268
16.8877
14.856
12.8352
10.8123
8.80818
6.83167
4.87327
2.9242
0.974577
104.143
103.937
103.639
103.269
102.859
102.564
100.659
96.5603
93.9142
91.2534
88.6326
86.0346
83.434
80.8792
78.3528
75.8436
73.3678
70.9261
68.4824
66.0647
63.6745
61.2845
58.9174
56.571
54.2482
51.921
49.6017
47.3297
45.0415
42.7613
40.5218
38.2703
36.0248
33.8106
31.6288
29.4567
27.2814
25.148
23.0629
20.992
18.9317
16.8758
14.8386
12.8221
10.8166
8.80983
6.83284
4.88059
2.93039
0.973278
104.397
104.255
104.131
103.887
103.705
103.467
102.603
96.9287
94.1619
91.4305
88.7516
86.0971
83.4905
80.9114
78.3811
75.8644
73.3897
70.9255
68.4681
66.0701
63.6797
61.2852
58.9223
56.5741
54.2541
51.9345
49.6117
47.3256
45.0286
42.755
40.5169
38.2634
36.0209
33.8093
31.6316
29.4658
27.2904
25.1531
23.0666
21.0004
18.9314
16.8635
14.8182
12.8099
10.8137
8.81183
6.83975
4.89508
2.93751
0.96769
104.785
104.66
104.605
104.454
103.986
103.923
103.359
97.2692
94.3754
91.5741
88.8409
86.1525
83.5267
80.9422
78.4124
75.8898
73.4071
70.9345
68.4668
66.059
63.6743
61.2786
58.9228
56.5842
54.2598
51.947
49.6222
47.3204
45.0232
42.7485
40.5113
38.2572
36.0137
33.8105
31.6343
29.4679
27.3034
25.1638
23.0701
21.0005
18.9253
16.8509
14.8058
12.8022
10.8101
8.81606
6.85648
4.91704
2.94671
0.971526
105.18
105.139
105.171
105.142
104.906
104.811
103.458
97.4902
94.5151
91.6181
88.874
86.1731
83.5526
80.9587
78.4089
75.8886
73.4068
70.9421
68.4706
66.0504
63.6672
61.281
58.923
56.593
54.2662
51.9488
49.6291
47.3177
45.0258
42.7581
40.5057
38.2445
36.0072
33.8161
31.6371
29.4615
27.3072
25.1767
23.072
20.9947
18.9186
16.8422
14.8026
12.7992
10.805
8.81761
6.86197
4.91788
2.95366
0.980709
105.469
105.497
105.666
105.92
105.845
105.475
102.356
97.3808
94.4091
91.5407
88.806
86.1285
83.524
80.9398
78.3768
75.8836
73.3939
70.9279
68.483
66.0446
63.6571
61.2767
58.9208
56.5936
54.262
51.9514
49.63
47.3133
45.0343
42.7631
40.5009
38.2415
36.0128
33.8241
31.6356
29.4508
27.3059
25.1868
23.0763
20.9844
18.9123
16.8527
14.8137
12.8039
10.804
8.81971
6.86088
4.90724
2.95131
0.985279
105.803
105.744
106.816
106.878
109.119
106.849
101.615
96.8806
94.0728
91.333
88.674
86.0517
83.4658
80.9009
78.3649
75.8682
73.3642
70.9079
68.4727
66.0511
63.6486
61.2692
58.9261
56.5912
54.2727
51.9526
49.6283
47.3161
45.0319
42.763
40.4885
38.2405
36.0257
33.8269
31.6265
29.4397
27.3036
25.1914
23.0808
20.9844
18.9104
16.8601
14.8289
12.804
10.7992
8.82105
6.85387
4.89644
2.93881
0.98642
105.289
104.801
104.989
107.648
107.248
113.859
99.5446
95.8115
93.5036
91.0034
88.4849
85.9289
83.3724
80.8577
78.3362
75.8358
73.3508
70.8992
68.4626
66.0509
63.6504
61.2732
58.9302
56.5795
54.2559
51.9472
49.6284
47.3158
45.0279
42.7641
40.4913
38.247
36.0451
33.8336
31.6145
29.4244
27.286
25.1854
23.0833
20.9835
18.9124
16.8799
14.8519
12.809
10.7969
8.82738
6.85727
4.88614
2.92875
0.976277
105.532
104.779
107.013
118.305
95.834
96.7292
97.4203
95.2434
93.137
90.8038
88.3613
85.8593
83.3333
80.8194
78.3118
75.8217
73.3411
70.8896
68.457
66.0562
63.6572
61.2797
58.9314
56.5736
54.2425
51.9288
49.6241
47.3157
45.0246
42.7668
40.5032
38.2643
36.0539
33.8306
31.6078
29.4155
27.279
25.1761
23.0825
20.9833
18.9128
16.8875
14.8635
12.8153
10.7942
8.82136
6.85047
4.87452
2.91931
0.975796
104.516
103.989
103.437
101.893
100.274
102.091
98.2188
95.4648
93.2232
90.838
88.3778
85.8648
83.3557
80.8323
78.3123
75.827
73.3421
70.91
68.4939
66.0638
63.6648
61.2812
58.9187
56.5724
54.2306
51.9141
49.6122
47.3178
45.0368
42.7694
40.518
38.277
36.052
33.8269
31.6114
29.4216
27.2741
25.1606
23.0648
20.982
18.918
16.8905
14.8689
12.8334
10.8021
8.81173
6.84168
4.87208
2.91823
0.975208
104.21
103.867
103.39
102.514
101.583
101.254
99.0903
96.0078
93.5502
91.008
88.4861
85.9162
83.373
80.8508
78.3296
75.8246
73.3588
70.9279
68.5017
66.0606
63.6664
61.2844
58.9129
56.5675
54.2305
51.9067
49.6003
47.3229
45.0438
42.7701
40.5208
38.2747
36.0268
33.8185
31.6244
29.4422
27.2757
25.1519
23.0618
20.9843
18.9268
16.8879
14.8559
12.835
10.8123
8.80815
6.83157
4.87333
2.92422
0.97456
104.144
103.937
103.64
103.269
102.855
102.483
100.523
96.5616
93.914
91.2532
88.6326
86.0346
83.4339
80.8792
78.3527
75.8435
73.3677
70.9259
68.4824
66.0646
63.6746
61.2845
58.9174
56.5714
54.2481
51.9208
49.6018
47.3298
45.0416
42.7611
40.5215
38.2704
36.0247
33.8106
31.6288
29.4564
27.2814
25.148
23.0629
20.992
18.9317
16.8757
14.8386
12.8222
10.8167
8.80982
6.83273
4.88056
2.93037
0.973155
104.397
104.254
104.131
103.886
103.607
103.416
102.581
96.9286
94.1617
91.4306
88.7516
86.097
83.4903
80.9114
78.3811
75.8645
73.3897
70.9254
68.468
66.0701
63.6798
61.2852
58.9224
56.5742
54.2538
51.9346
49.6118
47.3256
45.0283
42.7549
40.5169
38.2634
36.0203
33.8093
31.6316
29.4658
27.2906
25.1531
23.0666
21.0004
18.9313
16.8631
14.8182
12.8099
10.8137
8.81181
6.83968
4.89507
2.93746
0.967747
104.785
104.66
104.605
104.452
103.964
104.041
103.382
97.2693
94.3752
91.5743
88.8408
86.1523
83.5269
80.9422
78.4124
75.8898
73.4071
70.9345
68.4667
66.059
63.6746
61.2786
58.9225
56.5841
54.2599
51.947
49.6222
47.3202
45.0231
42.7486
40.5113
38.257
36.0136
33.811
31.6343
29.4679
27.3034
25.1637
23.0701
21.0005
18.9251
16.8505
14.8058
12.8023
10.81
8.81604
6.85635
4.91708
2.94648
0.971501
105.181
105.136
105.17
105.142
104.881
104.66
103.4
97.4902
94.515
91.6181
88.874
86.1731
83.5526
80.9587
78.4089
75.8886
73.4068
70.942
68.4706
66.0504
63.6672
61.281
58.923
56.593
54.2661
51.9488
49.629
47.3178
45.0258
42.758
40.5058
38.2444
36.0071
33.8161
31.637
29.4614
27.3072
25.1766
23.0719
20.9946
18.9185
16.8421
14.8026
12.7991
10.8049
8.81759
6.86232
4.91796
2.95346
0.98083
105.468
105.498
105.666
105.921
105.806
105.353
102.223
97.3816
94.4092
91.5407
88.8059
86.1285
83.5239
80.9398
78.3768
75.8836
73.3942
70.9277
68.4835
66.0445
63.6571
61.2767
58.9208
56.5936
54.2618
51.9514
49.63
47.3131
45.0342
42.763
40.5008
38.2412
36.0128
33.8241
31.6355
29.4507
27.3059
25.1868
23.0762
20.9845
18.9122
16.8527
14.8138
12.8039
10.8039
8.81969
6.86088
4.90722
2.95128
0.985376
105.803
105.746
106.832
106.143
109.228
106.83
101.613
96.8813
94.0728
91.333
88.674
86.0517
83.4658
80.9009
78.3648
75.8684
73.3643
70.9077
68.4727
66.0512
63.6486
61.2693
58.9262
56.5912
54.2728
51.9526
49.6282
47.316
45.032
42.7631
40.4886
38.2403
36.0262
33.8268
31.6262
29.4397
27.3036
25.1913
23.0807
20.9844
18.9105
16.8601
14.8289
12.8038
10.7992
8.82103
6.85382
4.8964
2.93885
0.986416
105.289
104.749
103.565
107.592
108.475
111.241
99.5452
95.812
93.5036
91.0034
88.4849
85.9289
83.3722
80.8577
78.3362
75.836
73.3508
70.8992
68.4627
66.0509
63.6503
61.2731
58.9302
56.5795
54.256
51.9472
49.6284
47.3159
45.0279
42.7641
40.4912
38.247
36.0452
33.8336
31.6144
29.4244
27.286
25.1854
23.0833
20.9834
18.9124
16.8799
14.8519
12.8089
10.7969
8.82735
6.85704
4.88614
2.92885
0.976266
105.533
104.745
107.004
109.731
94.9986
96.7271
97.4195
95.2434
93.1369
90.8037
88.3613
85.8593
83.333
80.8193
78.3117
75.8215
73.341
70.8898
68.4571
66.056
63.6572
61.2797
58.9313
56.5734
54.2425
51.9288
49.6239
47.3156
45.0245
42.7667
40.5032
38.2643
36.0539
33.8305
31.6077
29.4154
27.2789
25.176
23.0825
20.9832
18.9126
16.8875
14.8635
12.8152
10.7941
8.82133
6.85032
4.87441
2.91925
0.975792
104.517
103.988
103.401
101.933
100.249
102.065
98.2176
95.4642
93.2232
90.838
88.3777
85.8647
83.3556
80.8322
78.3122
75.8268
73.3421
70.91
68.4938
66.0637
63.6649
61.2811
58.9182
56.5718
54.2305
51.914
49.612
47.3177
45.0369
42.7693
40.518
38.277
36.0519
33.8269
31.6113
29.4215
27.274
25.1611
23.0647
20.9819
18.918
16.8906
14.8686
12.8328
10.8021
8.8117
6.84158
4.87202
2.9183
0.975013
104.21
103.867
103.39
102.515
101.595
101.284
99.0889
96.0079
93.5507
91.0079
88.486
85.9162
83.3729
80.8507
78.3295
75.8245
73.3588
70.9276
68.5017
66.0605
63.6661
61.2843
58.9126
56.5673
54.2306
51.9066
49.6003
47.3228
45.0438
42.7701
40.5207
38.2743
36.0266
33.8184
31.6244
29.4422
27.2755
25.1519
23.0617
20.9842
18.9268
16.8879
14.8558
12.8348
10.8123
8.80807
6.83144
4.87333
2.92418
0.974273
104.142
103.938
103.64
103.271
102.845
102.5
100.532
96.5619
93.9141
91.2528
88.6325
86.0345
83.4339
80.8791
78.3526
75.8435
73.3678
70.9257
68.4823
66.0644
63.6747
61.2844
58.9174
56.5714
54.2473
51.9205
49.6019
47.3297
45.0415
42.7611
40.5214
38.2704
36.0246
33.8105
31.6288
29.4563
27.2813
25.148
23.063
20.9919
18.9317
16.8757
14.8383
12.8224
10.8167
8.80974
6.83262
4.88051
2.93028
0.972725
104.396
104.254
104.132
103.886
103.666
103.437
102.582
96.9278
94.1615
91.4308
88.7515
86.0969
83.49
80.9113
78.3811
75.8644
73.3896
70.9253
68.4678
66.07
63.6798
61.2852
58.9224
56.5742
54.2535
51.9346
49.6119
47.3255
45.0283
42.7548
40.5169
38.2633
36.0202
33.8092
31.6317
29.4657
27.2906
25.1531
23.0666
21.0004
18.9312
16.8627
14.8182
12.8098
10.8134
8.81174
6.8398
4.89504
2.93733
0.967684
104.785
104.661
104.605
104.453
103.98
103.907
103.383
97.2685
94.375
91.5743
88.8406
86.1522
83.527
80.9421
78.4123
75.8897
73.407
70.9346
68.4666
66.0589
63.6746
61.2783
58.9224
56.585
54.26
51.9468
49.622
47.3201
45.0231
42.7492
40.5114
38.2569
36.0134
33.8113
31.6343
29.4678
27.3033
25.1637
23.07
21.0007
18.925
16.8501
14.8058
12.8023
10.8098
8.81597
6.85627
4.91707
2.9461
0.971461
105.181
105.136
105.169
105.141
104.891
104.698
103.401
97.4888
94.515
91.618
88.8739
86.173
83.5526
80.9587
78.4088
75.8885
73.4067
70.9418
68.4705
66.0504
63.6671
61.2809
58.9229
56.5929
54.2659
51.9487
49.6289
47.3177
45.0261
42.758
40.5056
38.2442
36.007
33.8159
31.6367
29.4613
27.3071
25.1766
23.0719
20.9945
18.9185
16.842
14.8026
12.7992
10.8047
8.81752
6.86241
4.91781
2.95293
0.980782
105.468
105.499
105.667
105.939
105.821
105.34
102.245
97.381
94.4094
91.5405
88.8058
86.1284
83.5238
80.9397
78.3768
75.8835
73.3944
70.9274
68.4836
66.0445
63.657
61.2767
58.921
56.5935
54.2617
51.9514
49.6303
47.3129
45.0339
42.763
40.5007
38.2411
36.0127
33.824
31.6354
29.4506
27.3058
25.1865
23.0762
20.9845
18.9121
16.8527
14.814
12.8038
10.8038
8.81962
6.86082
4.90717
2.95127
0.98539
105.803
105.745
106.798
107.489
107.978
106.775
101.616
96.8807
94.073
91.3329
88.6738
86.0516
83.4657
80.9008
78.3648
75.8686
73.3642
70.9075
68.4728
66.0512
63.6485
61.2692
58.9261
56.5911
54.2726
51.9525
49.6281
47.3159
45.032
42.7632
40.4884
38.2402
36.0268
33.8268
31.626
29.4398
27.3036
25.1911
23.0806
20.9843
18.9105
16.8602
14.8288
12.8036
10.7991
8.82093
6.85371
4.89633
2.93892
0.986324
105.287
104.667
104.337
106.749
108.268
108.78
99.5459
95.8118
93.5036
91.0032
88.485
85.9286
83.372
80.8577
78.3361
75.8362
73.3507
70.8992
68.4627
66.0508
63.6501
61.273
58.9301
56.5794
54.2559
51.9471
49.6282
47.3158
45.028
42.764
40.4909
38.2469
36.0456
33.8335
31.6142
29.4246
27.286
25.1853
23.0832
20.9834
18.9124
16.8797
14.8518
12.8088
10.7968
8.82727
6.85688
4.88584
2.92883
0.97619
98.0694
102.521
95.8837
96.7295
98.0782
102.216
95.8712
98.7506
101.052
99.2576
102.118
98.7594
101.056
99.1833
100.223
102.237
101.763
101.26
100.1
102.259
101.77
102.214
103.304
102.983
102.523
102.252
103.174
103.001
103.232
103.782
103.482
103.443
103.246
103.802
103.486
103.643
104.633
104.2
104.031
103.645
104.603
104.218
104.197
105.266
104.59
104.673
104.227
105.192
104.623
104.486
106.227
103.886
105.468
104.492
106.22
103.751
103.501
109.022
102.298
106.841
103.423
109.019
102.274
104.065
96.2916
96.6115
111.774
104.112
96.3241
96.6082
98.078
101.719
95.8781
96.7591
98.0795
102.075
95.8973
98.7551
101.053
99.1751
102.076
98.742
101.06
99.1753
100.087
102.232
101.769
101.278
100.082
102.217
101.778
102.253
103.19
102.995
102.621
102.257
103.2
102.991
103.249
103.754
103.484
103.444
103.248
103.762
103.489
103.644
104.619
104.224
103.934
103.646
104.593
104.223
104.236
105.192
104.624
104.718
104.238
105.204
104.624
104.492
106.207
103.742
105.352
104.494
106.187
103.745
103.415
108.915
102.266
106.87
103.414
108.991
102.311
104.125
96.4027
96.603
109.209
104.173
96.5186
96.6037
98.0798
101.912
95.9015
96.6457
98.0715
101.705
95.9008
98.7442
101.068
99.1831
102.041
98.7404
101.057
99.2565
100.091
102.247
101.779
101.3
100.211
102.226
101.767
102.256
103.192
102.979
102.535
102.22
103.267
102.948
103.246
103.731
103.494
103.47
103.226
103.802
103.496
103.648
104.606
104.22
103.889
103.648
104.764
104.205
104.239
105.206
104.621
104.71
104.228
105.229
104.585
104.494
106.188
103.758
105.422
104.487
106.181
103.891
103.423
109.019
102.33
106.768
103.501
109.04
102.31
104.199
96.5256
96.609
109.138
104.133
96.4657
96.6122
95.9007
98.8982
104.405
95.5216
95.9452
100.809
96.8059
95.4699
97.9145
97.0183
96.732
97.4822
95.31
97.8275
96.4904
97.8702
96.4757
97.4196
96.4977
97.8711
96.4831
100.973
100.775
100.424
100.28
104.939
100.768
100.422
100.08
101.31
101.292
102.077
101.386
101.294
100.046
96.8175
98.4916
97.2449
98.2184
96.8253
98.4899
97.2532
101.532
102.317
102.126
101.707
101.559
102.311
102.122
101.613
101.407
101.628
101.241
101.416
101.613
101.611
97.679
99.9427
98.1843
99.0962
97.6879
99.8192
98.1934
102.692
103.317
103.181
102.855
102.682
103.302
103.176
102.665
102.453
102.747
102.514
102.457
102.72
102.67
98.6142
102.342
99.0953
100.533
98.6242
102.227
99.1051
103.545
103.795
103.727
103.675
103.578
103.793
103.716
103.445
103.4
103.602
103.579
103.483
103.57
103.538
98.9975
103.203
99.1419
102.588
99.0037
103.225
99.1466
104.026
104.483
104.437
103.966
104.05
104.481
104.43
104.01
103.831
104.184
103.97
103.809
104.077
104.023
99.3489
103.504
99.6254
103.379
99.354
103.488
99.6318
104.862
105.323
105.191
104.946
104.865
105.315
105.191
104.846
104.692
104.954
104.67
104.588
104.914
104.742
100.126
102.872
100.13
103.367
100.136
102.742
100.141
105.67
105.995
105.909
105.814
105.708
106.001
105.913
105.404
105.226
105.599
105.688
105.231
105.539
105.394
100.069
102.249
99.818
102.233
100.08
102.236
99.8279
108.823
127.099
108.087
108.584
107.837
110.976
117.926
106.843
106.394
107.401
106.85
106.405
107.406
106.826
99.6234
101.101
98.9701
101.614
99.6334
101.101
98.9798
182.21
99.4876
93.2253
108.745
193.478
95.3557
93.2301
93.84
111.673
99.8156
115.093
115.469
100.269
95.5531
98.1915
97.9374
96.9462
99.5453
98.2003
97.9376
96.9543
95.9793
96.2381
95.5856
97.4301
96.1095
96.2011
97.635
95.2313
97.7981
97.595
96.7335
94.9565
96.7837
97.7878
96.4963
97.8729
96.4813
97.4205
96.4962
97.8727
96.4811
102.787
100.765
100.436
100.273
103.231
100.769
100.422
100.174
101.312
101.334
102.088
100.146
101.375
101.343
96.8237
98.4882
97.2523
98.2185
96.8229
98.4873
97.2525
101.513
102.312
102.123
101.596
101.518
102.312
102.126
101.605
101.409
101.646
101.26
101.608
101.407
101.637
97.6869
99.8079
98.1927
99.0839
97.6867
99.7999
98.1927
102.682
103.295
103.176
102.884
102.689
103.297
103.175
102.661
102.444
102.731
102.486
102.653
102.469
102.727
98.6233
102.201
99.1043
100.523
98.6233
102.216
99.1043
103.511
103.791
103.713
103.675
103.508
103.788
103.718
103.445
103.354
103.437
103.411
103.455
103.339
103.433
99.0002
103.229
99.1423
102.583
99.0001
103.223
99.1423
103.999
104.496
104.43
104.016
104.003
104.494
104.436
103.991
103.806
104.068
103.905
104.05
103.8
104.077
99.35
103.489
99.6284
103.384
99.3504
103.491
99.6284
104.838
105.31
105.193
104.866
104.836
105.311
105.191
104.795
104.586
104.98
104.635
104.772
104.627
104.909
100.134
102.732
100.14
103.334
100.134
102.733
100.14
105.637
106.017
105.889
105.938
105.636
106.025
105.899
105.385
105.259
105.464
105.345
105.39
105.262
105.499
100.079
102.231
99.8265
102.233
100.079
102.23
99.8262
107.86
109.986
118.379
108.289
107.921
108.428
110.386
106.895
106.407
107.35
106.829
106.885
106.41
107.361
99.6325
101.102
98.9785
101.614
99.6323
101.102
98.9785
161.649
101.071
93.2597
108.537
174.726
92.2672
93.4096
103.407
123.004
96.5262
110.976
94.4962
134.454
117.262
98.1995
97.9379
96.9528
99.5456
98.1993
97.9378
96.9528
96.1493
96.1405
98.1088
94.9134
96.2146
97.2462
104.227
94.5161
97.7711
96.3664
96.6799
95.0263
95.9107
97.7847
96.4975
97.871
96.4826
97.4194
96.4901
97.8703
96.4751
103.571
100.764
100.433
100.25
102.466
100.763
100.439
100.217
101.333
101.36
102.062
100.22
101.397
101.358
96.8238
98.4875
97.2538
98.2174
96.8154
98.4885
97.2462
101.524
102.314
102.133
101.641
101.518
102.314
102.13
101.597
101.411
101.604
101.289
101.599
101.417
101.623
97.6877
99.815
98.1935
99.1015
97.6791
99.9226
98.1844
102.689
103.295
103.175
102.85
102.689
103.295
103.186
102.755
102.439
102.783
102.505
102.704
102.443
102.839
98.6243
102.218
99.1052
100.655
98.6146
102.353
99.0956
103.509
103.786
103.728
103.661
103.503
103.788
103.751
103.451
103.312
103.487
103.436
103.451
103.312
103.741
99.0032
103.219
99.1464
102.599
98.9967
103.197
99.1414
104.006
104.496
104.434
103.979
104.019
104.493
104.438
103.994
103.792
104.06
103.921
103.996
103.789
104.055
99.3548
103.499
99.6317
103.361
99.35
103.516
99.6252
104.841
105.312
105.191
104.917
104.847
105.312
105.204
104.797
104.644
104.949
104.695
104.795
104.644
104.935
100.135
102.743
100.141
103.434
100.124
102.871
100.131
105.634
106.032
105.908
105.822
105.634
106.037
105.928
105.372
105.274
105.511
105.336
105.372
105.286
105.512
100.079
102.234
99.8271
102.365
100.069
102.247
99.8169
107.95
108.503
110.54
108.01
107.976
109.736
110.138
106.91
106.406
107.421
106.77
106.917
106.406
107.435
99.633
101.101
98.9799
101.617
99.6229
101.1
98.9703
108.61
92.8684
93.4949
123.455
111.18
98.4269
93.6428
94.7602
119.617
102.35
109.553
95.4767
116.188
102.469
98.1999
97.9372
96.9544
99.5452
98.1909
97.9372
96.9464
97.1031
97.846
96.0718
98.0743
96.0783
97.111
97.845
109.228
104.535
95.3307
101.961
107.585
94.4565
104.563
98.975
98.8798
98.8078
95.8833
98.88
98.5921
98.8561
94.82
96.7345
97.8099
96.6574
96.5617
94.6827
97.8096
97.1067
98.0749
97.8418
96.0715
96.074
97.1165
97.8438
101.804
104.071
106.987
94.6354
102.334
96.5474
108.892
98.8831
95.8751
98.8945
98.7902
98.8852
98.5638
98.766
99.306
99.7361
98.0298
98.7614
99.6588
98.0369
99.3634
101.088
101.167
101.061
101.05
101.169
101.071
101.072
100.3
99.286
100.589
99.2104
99.2994
100.598
100.331
100.082
102.152
101.235
101.35
101.418
101.333
100.104
99.286
98.759
99.6725
98.0272
99.6919
98.0291
99.2732
101.103
101.054
101.185
101.077
101.179
101.07
101.126
100.271
99.1888
99.3028
100.608
99.3003
100.604
100.247
101.746
101.318
100.842
100.146
101.345
100.772
101.734
101.801
101.758
102.209
102.221
101.755
102.208
101.819
102.225
101.305
102.196
101.772
101.271
102.206
102.191
101.613
101.259
101.417
101.619
101.419
101.615
101.61
101.76
100.115
101.364
100.731
101.363
100.751
101.76
101.774
102.315
101.756
102.204
101.759
102.232
101.78
102.241
101.775
101.191
102.206
101.234
102.204
102.238
102.674
102.356
102.551
102.233
102.363
102.589
102.666
102.942
102.988
103.176
103.175
102.928
103.092
102.887
102.822
102.81
102.956
103.006
102.81
102.955
102.82
102.68
102.513
102.464
102.731
102.447
102.736
102.646
102.676
102.245
102.357
102.617
102.36
102.61
102.676
102.871
103.215
103
103.079
102.987
103.101
102.896
102.824
103.008
102.825
102.96
102.815
102.979
102.828
103.424
103.216
103.288
103.244
103.218
103.296
103.42
103.568
103.664
103.821
103.778
103.625
103.75
103.679
103.478
103.396
103.638
103.492
103.407
103.637
103.479
103.444
103.461
103.439
103.641
103.315
103.562
103.45
103.412
103.245
103.228
103.29
103.214
103.292
103.411
103.569
103.851
103.632
103.756
103.626
103.749
103.569
103.483
103.488
103.405
103.658
103.406
103.637
103.481
103.907
103.739
103.81
103.652
103.75
103.821
103.906
104.19
104.331
104.423
104.591
104.371
104.414
104.456
104.089
103.965
104.307
104.212
103.973
104.308
104.087
104.035
103.97
103.807
104.077
103.805
104.105
104.055
103.906
103.647
103.761
103.815
103.749
103.818
103.918
104.194
104.597
104.264
104.415
104.391
104.415
104.157
104.082
104.215
103.966
104.31
103.968
104.312
104.06
104.601
104.421
104.439
104.206
104.416
104.441
104.599
104.859
104.999
105.099
105.193
104.994
105.098
104.867
104.807
104.594
104.936
104.607
104.633
104.944
104.798
104.769
104.656
104.584
104.971
104.595
104.918
104.765
104.604
104.21
104.404
104.451
104.43
104.447
104.609
104.87
105.192
105.015
105.106
105.019
105.107
104.88
104.808
104.617
104.653
104.936
104.655
104.94
104.81
105.228
105.052
104.258
104.489
105.061
104.222
105.216
105.749
105.842
105.964
106.213
105.747
105.97
105.753
105.37
104.136
105.447
103.802
104.054
105.479
105.379
105.384
105.392
105.332
105.524
105.223
105.531
105.414
105.232
104.492
105.061
104.16
105.059
104.188
105.235
105.759
106.233
105.744
105.963
105.868
105.966
105.75
105.383
103.767
104.025
105.492
104.052
105.497
105.372
105.542
105.441
103.503
103.451
105.448
103.522
105.582
106.385
109.212
107.953
108.989
111.774
108.314
106.211
104.917
103.228
104.493
102.301
103.227
104.37
105.008
106.858
106.855
106.409
107.465
106.409
107.358
106.873
105.496
103.427
105.455
103.524
105.453
103.522
105.46
106.739
109.036
107.751
108.412
108.231
108.46
106.971
104.683
102.286
103.238
104.14
103.234
104.237
104.704
99.0581
103.367
97.7052
104.089
102.786
97.7254
99.0189
98.8269
95.1338
95.6024
96.3775
94.856
98.5993
95.4876
98.7358
99.1114
97.2007
96.6176
99.1195
98.7112
97.2031
99.3576
111.168
129.569
100.27
117.103
111.909
99.4638
99.1542
104.1
103.702
97.698
103.059
97.7144
99.1524
99.0286
96.2949
95.2952
95.4842
94.6167
98.4168
95.4831
98.7379
96.6117
99.125
97.201
99.1207
98.7181
97.2024
97.1411
97.8397
96.0667
98.0799
97.1321
96.0622
97.8386
107.833
101.333
94.3023
101.678
103.152
102.982
94.1501
98.8821
98.8847
98.8597
95.8932
98.8611
98.877
98.7657
94.227
96.7452
97.7701
98.4864
95.7125
95.4036
97.7788
97.1292
98.0802
97.839
96.0561
96.0581
97.1079
97.838
103.215
101.684
99.4112
94.5266
101.636
93.8167
101.883
98.6977
95.8993
98.8666
98.9436
98.8729
98.8136
98.6006
99.2725
99.6151
98.0235
98.7481
99.2664
99.6014
98.0215
101.157
101.192
101.084
101.049
101.146
101.195
101.09
100.229
99.3016
100.612
99.1747
100.233
99.3042
100.615
100.197
102.082
101.316
101.353
101.374
101.346
100.224
99.2831
98.7433
99.6004
98.0209
99.6056
98.0205
99.2926
101.169
101.053
101.201
101.098
101.201
101.096
101.182
100.23
99.1749
99.3015
100.609
99.305
100.614
100.237
101.744
101.365
100.715
100.081
101.751
101.361
100.707
101.768
101.74
102.209
102.23
101.796
101.74
102.218
102.266
101.162
102.208
101.777
102.248
101.163
102.209
101.603
101.267
101.407
101.61
101.407
101.605
101.603
101.731
100.08
101.314
100.706
101.341
100.703
101.714
101.761
102.222
101.722
102.191
101.738
102.2
101.766
102.267
101.781
101.142
102.21
101.159
102.209
102.246
102.675
102.356
102.623
102.256
102.675
102.358
102.627
102.885
103.061
103.091
103.171
103.02
102.966
103.155
102.84
102.83
102.958
103.002
102.835
102.843
102.971
102.688
102.493
102.485
102.803
102.413
102.829
102.695
102.677
102.257
102.362
102.588
102.358
102.614
102.68
102.885
103.163
103.037
103.115
102.971
103.135
102.931
102.847
103.002
102.831
102.976
102.84
102.974
102.855
103.412
103.237
103.289
103.249
103.423
103.229
103.289
103.571
103.632
103.656
103.733
103.576
103.63
103.656
103.484
103.408
103.614
103.484
103.493
103.411
103.613
103.445
103.464
103.369
103.428
103.34
103.435
103.443
103.418
103.251
103.258
103.294
103.232
103.29
103.412
103.571
103.754
103.653
103.693
103.631
103.684
103.59
103.485
103.483
103.411
103.63
103.411
103.637
103.486
103.902
103.756
103.813
103.644
103.926
103.741
103.812
104.19
104.185
104.445
104.643
104.185
104.204
104.435
104.092
103.963
104.314
104.224
104.092
103.963
104.313
103.991
103.906
103.826
104.062
103.8
104.06
103.988
103.894
103.644
103.74
103.811
103.753
103.81
103.901
104.166
104.602
104.187
104.402
104.201
104.4
104.168
104.065
104.225
103.965
104.308
103.963
104.312
104.074
104.62
104.405
104.455
104.23
104.615
104.428
104.466
104.874
105.024
105.141
105.195
104.896
104.994
105.134
104.816
104.654
104.933
104.624
104.814
104.666
104.935
104.779
104.59
104.708
104.964
104.605
104.958
104.79
104.626
104.227
104.401
104.459
104.414
104.468
104.635
104.874
105.284
105
105.111
104.996
105.172
104.883
104.816
104.624
104.634
104.942
104.659
104.938
104.817
105.237
105.063
104.142
104.494
105.239
105.063
104.138
105.742
105.755
105.959
106.186
105.75
105.752
105.958
105.38
104.015
105.489
103.74
105.376
104.01
105.499
105.382
105.351
105.263
105.495
105.263
105.495
105.376
105.23
104.494
105.063
104.15
105.062
104.14
105.226
105.737
106.188
105.757
105.956
105.752
105.957
105.735
105.378
103.741
104.015
105.503
104.016
105.513
105.367
105.441
105.458
103.521
103.414
105.447
105.461
103.525
106.268
107.401
108.437
108.906
106.442
107.336
108.584
105.133
103.219
104.077
102.278
104.929
103.223
104.097
106.901
106.831
106.411
107.404
106.41
107.379
106.909
105.439
103.414
105.463
103.524
105.463
103.527
105.448
106.339
108.94
107.778
107.943
107.663
108.016
106.445
105.075
102.294
103.243
104.51
103.24
104.317
105.046
98.9474
103.485
97.6746
104.148
99.0304
102.781
97.6638
98.3226
95.2425
95.4418
96.4639
98.2948
95.1167
95.4125
98.695
99.1228
97.1983
96.6021
98.706
99.1224
97.1954
91.9762
109.749
119.652
104.932
118.826
98.9236
94.3026
99.0947
104.148
103.736
97.6792
103.068
97.6632
99.2225
98.3973
96.5078
93.988
95.4188
94.1772
98.3133
95.4039
98.6892
96.6023
99.1225
97.1929
99.1222
98.6888
97.193
97.1208
97.8407
96.0606
98.0765
97.1065
96.0664
97.8443
101.097
98.2194
94.0567
102.717
99.1562
98.8649
94.9915
98.7469
98.8653
98.8732
95.9049
98.6623
98.8711
98.7175
95.3916
96.6457
97.8956
97.3718
97.847
95.1322
97.8159
97.1282
98.0763
97.8489
96.0731
96.0753
97.1172
97.8472
102.48
101.125
100.098
93.5126
100.442
93.3373
101.559
98.7696
95.9058
98.8757
98.821
98.8768
98.7422
98.7197
99.3266
99.6197
98.0243
98.7434
99.3106
99.6391
98.0262
101.198
101.201
101.1
101.059
101.194
101.192
101.102
100.278
99.301
100.602
99.1881
100.253
99.2972
100.6
100.213
102.057
101.358
101.363
101.387
101.362
100.191
99.3491
98.7473
99.7441
98.0275
99.6664
98.0335
99.4021
101.202
101.058
101.185
101.098
101.187
101.105
101.192
100.308
99.2098
99.2832
100.589
99.2965
100.596
100.338
101.71
101.303
100.716
100.105
101.704
101.305
100.726
101.738
101.876
102.217
102.246
101.771
101.73
102.19
102.235
101.157
102.21
101.783
102.233
101.195
102.213
101.593
101.296
101.411
101.689
101.418
101.643
101.589
101.704
100.135
101.28
100.817
101.302
100.754
101.693
101.757
102.327
101.772
102.192
101.794
102.2
101.782
102.209
101.778
101.274
102.206
101.235
102.215
102.169
102.692
102.365
102.574
102.248
102.687
102.368
102.579
102.959
103.034
103.144
103.182
102.95
103.025
103.143
102.866
102.822
102.994
102.982
102.864
102.826
102.991
102.733
102.499
102.441
102.715
102.436
102.736
102.713
102.697
102.237
102.364
102.539
102.372
102.569
102.691
103.006
103.177
103.001
103.277
103.026
103.168
102.976
102.87
102.974
102.824
103.004
102.822
102.995
102.868
103.412
103.255
103.297
103.241
103.407
103.252
103.3
103.573
103.681
103.673
103.727
103.62
103.695
103.679
103.472
103.411
103.628
103.5
103.493
103.415
103.626
103.489
103.498
103.33
103.789
103.311
103.606
103.617
103.443
103.238
103.247
103.293
103.246
103.303
103.44
103.583
103.749
103.669
103.678
103.659
103.679
103.735
103.472
103.505
103.411
103.622
103.42
103.623
103.494
103.898
103.743
103.812
103.653
103.901
103.736
103.816
104.195
104.5
104.403
104.605
104.261
104.361
104.404
104.082
103.969
104.308
104.218
104.102
103.974
104.303
104.114
103.95
103.808
104.19
103.819
104.129
104.059
103.929
103.657
103.728
103.809
103.73
103.819
103.915
104.198
104.622
104.362
104.57
104.393
104.411
104.399
104.087
104.217
103.968
104.306
103.977
104.304
104.091
104.646
104.417
104.456
104.228
104.644
104.419
104.459
104.895
104.994
105.116
105.206
104.88
104.998
105.107
104.826
104.619
104.944
104.613
104.822
104.623
104.946
104.814
104.699
104.645
104.928
104.646
104.872
104.816
104.651
104.228
104.415
104.46
104.418
104.454
104.649
104.958
105.207
105.041
105.104
105.024
105.104
104.931
104.831
104.602
104.587
104.94
104.616
104.948
104.824
105.222
105.064
104.167
104.493
105.224
105.066
104.191
105.731
105.776
105.955
106.181
105.735
105.749
105.964
105.363
104.031
105.5
103.774
105.362
104.035
105.508
105.374
105.389
105.279
105.578
105.267
105.521
105.383
105.216