/*--------------------------------*- C++ -*----------------------------------*\
| =========                 |                                                 |
| \\      /  F ield         | OpenFOAM: The Open Source CFD Toolbox           |
|  \\    /   O peration     | Version:  5.0                                   |
|   \\  /    A nd           | Web:      www.OpenFOAM.org                      |
|    \\/     M anipulation  |                                                 |
\*---------------------------------------------------------------------------*/
FoamFile
{
    version     2.0;
    format      ascii;
    class       surfaceScalarField;
    location    "0.5";
    object      phi;
}
// * * * * * * * * * * * * * * * * * * * * * * * * * * * * * * * * * * * * * //

dimensions      [0 3 -1 0 0 0 0];

internalField   nonuniform List<scalar> 
13642
(
1.0815e-09
4.37526e-11
3.66854e-12
1.16791e-09
-4.21225e-10
1.24747e-10
5.67604e-10
1.22642e-09
-3.56686e-09
4.54921e-10
5.35424e-10
3.23299e-10
8.49218e-10
-1.58464e-09
1.85146e-09
1.90617e-09
2.49622e-09
-3.44263e-10
2.06517e-10
3.50991e-12
1.40479e-10
-1.77492e-09
1.15527e-10
6.62145e-11
-3.35826e-11
-1.56727e-10
-1.94797e-11
1.36616e-10
-1.67729e-11
-9.48011e-12
-7.88095e-12
-3.75672e-11
-2.12108e-11
1.28282e-09
-2.7805e-11
-2.95681e-11
-1.98472e-10
-2.10812e-10
-3.4282e-10
-3.72471e-10
1.35404e-09
-8.79944e-12
6.97902e-13
1.39155e-09
-1.95431e-12
5.64007e-13
1.4121e-09
3.03483e-13
-2.30823e-14
1.42443e-09
9.71299e-13
-4.00451e-14
1.43239e-09
5.40426e-13
8.36527e-14
1.4351e-09
2.59889e-13
-5.11444e-13
1.43759e-09
3.7244e-13
8.02426e-14
1.43975e-09
-3.23612e-13
6.91289e-13
1.44087e-09
3.48383e-13
-2.72474e-14
1.44156e-09
-7.94708e-13
-7.70573e-14
1.44034e-09
3.59255e-12
-9.98107e-13
1.44124e-09
-4.57596e-13
6.45691e-13
1.44134e-09
-1.2472e-13
8.444e-15
1.44147e-09
-4.37879e-13
2.64965e-13
1.44206e-09
1.02748e-12
-1.65409e-12
1.44191e-09
1.29173e-13
8.73607e-14
1.4423e-09
7.65972e-13
-8.05252e-13
1.44175e-09
4.74995e-13
-1.97064e-12
1.4422e-09
-4.44252e-13
4.37785e-13
1.44242e-09
1.70101e-13
1.99924e-14
1.44141e-09
-5.34229e-13
-7.977e-13
1.44177e-09
-1.7283e-13
-2.42393e-13
1.44097e-09
-7.24886e-13
3.03228e-12
1.44158e-09
-5.05509e-13
1.61508e-12
1.44231e-09
-1.63609e-12
2.92669e-13
1.44232e-09
1.13537e-13
3.98393e-14
1.44231e-09
2.20163e-13
-7.50963e-15
1.44144e-09
3.78458e-13
-1.17318e-12
1.44113e-09
2.61567e-13
6.19518e-15
1.44095e-09
6.0712e-13
-7.00196e-13
1.4427e-09
-2.77507e-12
6.08127e-13
1.44197e-09
4.79596e-13
1.47209e-13
1.44192e-09
1.21928e-13
1.65467e-14
1.44233e-09
5.67509e-14
-1.68088e-13
1.44267e-09
-6.66806e-13
2.26754e-13
1.4413e-09
3.54529e-12
-1.83529e-12
1.44153e-09
-4.77409e-13
3.76188e-13
1.44182e-09
2.91576e-13
-1.14609e-12
1.44229e-09
1.38712e-14
-1.09906e-13
1.44218e-09
1.23252e-13
1.40736e-13
1.44151e-09
-2.88114e-13
2.95003e-13
1.64094e-12
-1.41206e-12
1.69384e-09
-1.92084e-10
-6.91286e-11
1.60244e-09
-3.66234e-10
3.63767e-11
2.29179e-09
3.16753e-10
2.20309e-10
2.4321e-10
-8.02704e-10
-3.07713e-09
1.82376e-10
6.47391e-11
2.17504e-10
1.14115e-09
1.44251e-09
1.15521e-09
1.72492e-09
-1.7676e-10
4.1242e-10
-2.26457e-10
2.34024e-10
-2.1381e-10
-1.43717e-11
2.58798e-10
9.58475e-11
-1.26464e-10
-3.3685e-11
1.73205e-11
1.83043e-10
-1.32716e-11
-1.30696e-11
-2.38469e-11
-6.76087e-11
-4.88819e-11
1.32818e-09
-8.52361e-11
-3.1868e-11
-2.28139e-10
-2.25822e-10
-3.97324e-10
-3.87586e-10
1.37086e-09
-5.09337e-11
-5.29369e-13
1.39736e-09
-2.85489e-11
9.89628e-14
1.41423e-09
-1.65556e-11
-4.83704e-15
1.42484e-09
-9.69363e-12
4.58255e-14
1.43128e-09
-5.88937e-12
-2.2201e-14
1.4352e-09
-3.69472e-12
3.16877e-14
1.43789e-09
-2.28412e-12
-2.62628e-14
1.43864e-09
-5.90668e-13
-4.41311e-13
1.43967e-09
-4.89966e-13
-1.57417e-13
1.43986e-09
-9.61871e-13
5.36133e-15
1.44237e-09
-1.45311e-13
1.2164e-12
1.44182e-09
-4.53659e-16
7.48208e-14
1.44192e-09
-1.35446e-12
1.13061e-12
1.44198e-09
-9.7018e-14
-3.8248e-13
1.44178e-09
-1.04236e-12
2.29047e-12
1.44226e-09
5.62577e-13
-9.14321e-13
1.4421e-09
2.57241e-13
6.53574e-13
1.44173e-09
1.71488e-13
6.58417e-13
1.44199e-09
-2.51984e-13
-4.72259e-13
1.44206e-09
8.34492e-14
-2.79619e-15
1.4411e-09
-5.82133e-13
9.9893e-13
1.44096e-09
1.26194e-14
-5.65863e-14
1.44145e-09
4.43206e-13
-1.65893e-12
1.44123e-09
8.43962e-13
-1.13908e-12
1.44309e-09
-4.37207e-12
8.69989e-13
1.44265e-09
5.82402e-13
-3.39897e-14
1.4422e-09
7.12344e-13
-4.49208e-14
1.44169e-09
8.76375e-13
1.07228e-14
1.44221e-09
-3.98382e-14
-2.13854e-13
1.44233e-09
3.2739e-14
4.47745e-13
1.44096e-09
-1.07741e-12
-3.31756e-13
1.44128e-09
2.68788e-13
-1.0728e-13
1.44147e-09
-5.42838e-14
-1.70137e-14
1.44134e-09
4.32533e-14
1.45237e-13
1.44096e-09
5.6361e-13
-8.4747e-13
1.4427e-09
9.42969e-14
1.71379e-12
1.4423e-09
-9.40316e-15
-6.84548e-14
1.44153e-09
1.52873e-13
9.06336e-13
1.4424e-09
9.49409e-13
-1.80284e-12
1.44218e-09
4.15623e-13
-7.34379e-14
1.44173e-09
5.64179e-13
-4.01583e-13
-1.28269e-13
1.44649e-12
1.41959e-09
-1.78078e-10
-4.47189e-11
1.26877e-09
-2.31384e-10
1.59476e-11
1.77693e-09
-1.76074e-10
-1.5333e-11
2.08855e-10
-5.01102e-10
1.88409e-10
2.77067e-10
4.04943e-10
3.96103e-10
1.78201e-10
1.74861e-10
-1.01383e-10
-4.28169e-11
-4.85539e-12
-2.24712e-11
5.04862e-11
-8.71772e-12
-1.44418e-11
-3.10966e-11
3.43969e-12
-4.12034e-12
8.06545e-12
2.37118e-11
1.39396e-09
-9.76788e-11
-3.31139e-11
-2.4624e-10
-2.50713e-10
-4.22392e-10
-4.29054e-10
1.40772e-09
-6.40411e-11
-6.56648e-13
1.41813e-09
-3.91738e-11
2.16499e-13
1.42601e-09
-2.44191e-11
-2.09447e-14
1.43144e-09
-1.5112e-11
-1.22104e-14
1.43516e-09
-9.58823e-12
-2.31257e-14
1.4375e-09
-6.02004e-12
-9.57379e-15
1.43894e-09
-3.71119e-12
3.84922e-15
1.44057e-09
-2.26871e-12
7.65239e-14
1.44118e-09
-9.02594e-13
-1.65962e-13
1.44139e-09
-3.16132e-12
2.00714e-12
1.44099e-09
2.71001e-13
-2.117e-14
1.4416e-09
-5.73281e-13
-4.23737e-14
1.44203e-09
-5.60364e-13
-1.22409e-12
1.44233e-09
-3.6981e-13
-1.51234e-14
1.44206e-09
8.72843e-14
-8.41313e-13
1.44197e-09
-1.10253e-13
7.55597e-13
1.44128e-09
1.06615e-12
-1.30705e-13
1.44148e-09
5.20687e-13
-5.67181e-13
1.44131e-09
-1.54062e-13
5.41296e-14
1.44142e-09
-2.0436e-13
1.6554e-13
1.44177e-09
2.40733e-13
-1.1889e-12
1.44235e-09
8.58781e-13
-1.43387e-12
1.44241e-09
4.0029e-13
-2.11272e-14
1.44359e-09
5.65158e-13
-9.09838e-13
1.44067e-09
-5.07874e-13
-9.43626e-13
1.44122e-09
3.03848e-13
-2.75467e-13
1.4416e-09
2.7525e-13
5.15289e-14
1.44224e-09
2.14217e-13
2.24025e-14
1.44215e-09
2.12892e-14
2.28694e-14
1.4419e-09
-2.06154e-14
3.03659e-13
1.4416e-09
-3.7154e-13
-4.10095e-13
1.4414e-09
1.18399e-12
-7.15975e-13
1.44135e-09
-5.67341e-15
1.05452e-14
1.44127e-09
4.43545e-13
-3.25789e-13
1.4411e-09
5.11069e-13
2.20284e-13
1.44305e-09
-1.97722e-12
1.26022e-13
1.44259e-09
3.73006e-13
7.58636e-14
1.44243e-09
1.46858e-13
1.65071e-13
1.44158e-09
-2.11392e-13
2.01621e-12
1.44146e-09
5.60523e-13
-2.75237e-14
1.44166e-09
2.72295e-13
9.16824e-14
8.52682e-14
-4.18979e-13
1.4843e-09
-2.02094e-10
-7.14038e-11
1.47845e-09
-2.48598e-10
2.30614e-11
1.55411e-09
-2.55303e-10
3.58748e-12
2.64891e-10
-4.33432e-10
8.912e-11
2.59838e-10
4.50504e-10
4.22126e-10
6.17143e-11
2.48806e-10
-7.073e-11
2.51087e-11
-9.5613e-12
-4.83139e-11
1.88049e-11
-1.83319e-11
5.74022e-11
-1.22448e-10
8.36727e-12
-1.0622e-11
9.06558e-11
3.40469e-11
1.4722e-09
-6.44339e-11
-3.18447e-11
-2.68641e-10
-2.805e-10
-4.51194e-10
-4.73276e-10
1.4531e-09
-4.2479e-11
-2.45804e-12
1.44507e-09
-3.105e-11
-8.36923e-14
1.4423e-09
-2.1423e-11
-2.03537e-13
1.44112e-09
-1.35038e-11
-3.94125e-13
1.44121e-09
-9.62423e-12
-2.77742e-14
1.44133e-09
-6.09982e-12
-1.24627e-14
1.44135e-09
-3.73549e-12
2.32131e-14
1.44131e-09
-2.21625e-12
6.18609e-15
1.44181e-09
-1.82513e-12
4.49277e-13
1.44149e-09
-8.52621e-13
-1.97926e-12
1.4421e-09
-4.72765e-13
1.40133e-13
1.44215e-09
-9.06212e-13
2.80874e-13
1.442e-09
-4.96238e-13
8.83607e-14
1.44199e-09
-3.5617e-13
-1.43545e-15
1.44169e-09
1.21424e-12
-8.25381e-13
1.44156e-09
7.8421e-14
-5.79624e-14
1.44221e-09
2.72704e-13
1.32371e-13
1.44219e-09
2.13856e-14
4.99584e-13
1.44206e-09
-4.3141e-14
8.90611e-16
1.44208e-09
6.60235e-13
-8.91619e-13
1.44278e-09
1.18351e-12
-1.65505e-12
1.44169e-09
3.12451e-13
1.62304e-12
1.44194e-09
2.69408e-13
-1.22538e-13
1.44151e-09
4.47815e-14
9.39839e-13
1.4414e-09
-3.63418e-13
-3.64578e-14
1.44171e-09
7.0773e-14
-7.98759e-14
1.44173e-09
1.77093e-13
7.97423e-14
1.44196e-09
2.26483e-14
-4.22195e-14
1.44204e-09
-5.52497e-14
-3.99188e-15
1.44195e-09
2.0901e-13
-1.42956e-13
1.44158e-09
-4.06109e-13
3.98805e-13
1.44183e-09
9.26767e-13
1.11314e-14
1.44193e-09
-8.35657e-14
-2.32469e-14
1.44193e-09
5.06495e-14
3.91218e-13
1.44211e-09
5.18529e-13
-1.86815e-13
1.44175e-09
-2.10218e-12
4.83168e-13
1.44208e-09
2.5158e-13
-2.00262e-13
1.44217e-09
2.1197e-13
-1.57857e-13
1.44202e-09
1.08873e-12
-1.15305e-12
1.44091e-09
1.66346e-12
1.5071e-14
1.44114e-09
5.30141e-14
-1.32216e-14
-3.44223e-12
2.60865e-12
1.39347e-09
-1.53602e-10
-5.30775e-11
1.32692e-09
-1.89307e-10
7.26129e-12
1.29427e-09
-2.5345e-10
3.08231e-11
1.45726e-10
-3.75242e-10
1.52351e-10
2.55108e-10
2.30465e-10
4.52479e-10
7.26066e-11
1.14834e-10
-3.63934e-11
-5.30895e-12
6.29231e-12
-4.32918e-12
-1.88356e-11
-6.67974e-12
2.35522e-11
-1.31402e-10
6.74832e-12
-5.60862e-12
5.61075e-11
7.41544e-11
1.46938e-09
-5.42464e-11
-3.61945e-11
-2.61217e-10
-2.68049e-10
-4.4865e-10
-4.6546e-10
1.46433e-09
-3.76647e-11
2.54224e-13
1.45746e-09
-2.46615e-11
5.02218e-13
1.45234e-09
-1.62661e-11
-9.79644e-15
1.44881e-09
-1.02483e-11
3.19013e-13
1.44711e-09
-8.66745e-12
7.9286e-13
1.44562e-09
-4.57569e-12
8.19219e-16
1.44381e-09
-1.41167e-12
-4.88076e-13
1.44259e-09
-2.42697e-13
-7.43774e-13
1.4423e-09
-1.33711e-12
-1.79749e-13
1.44205e-09
-4.56201e-13
-1.24237e-13
1.44163e-09
1.41008e-13
-1.69863e-13
1.44283e-09
-3.91059e-12
1.80955e-12
1.44198e-09
3.34051e-13
2.25107e-14
1.44237e-09
-1.09124e-12
3.32252e-13
1.44222e-09
2.76913e-13
1.08362e-12
1.44215e-09
-7.48654e-14
2.16041e-13
1.4422e-09
2.87961e-13
-7.64936e-14
1.44227e-09
-1.66441e-13
1.02693e-13
1.4423e-09
-7.22378e-14
-1.79525e-14
1.4422e-09
-1.56238e-13
9.04488e-13
1.44134e-09
5.47426e-14
1.97908e-12
1.44146e-09
2.79104e-13
-9.23042e-14
1.44205e-09
-2.07094e-13
-1.19089e-13
1.44156e-09
2.02699e-12
-1.50056e-12
1.44174e-09
-1.39056e-14
-5.31768e-13
1.44185e-09
-1.02723e-13
5.98949e-14
1.44181e-09
1.63661e-13
5.20244e-14
1.44189e-09
-8.91343e-14
2.49797e-14
1.44132e-09
1.10107e-12
-5.85442e-13
1.44149e-09
1.11516e-13
-7.20759e-14
1.44161e-09
-2.44626e-13
-2.83662e-13
1.44215e-09
-2.3647e-13
6.23728e-13
1.44193e-09
2.4107e-13
-1.08302e-13
1.44216e-09
3.66364e-13
-5.41721e-13
1.44247e-09
1.44365e-13
5.99513e-14
1.44155e-09
-1.05724e-12
-1.24964e-13
1.4419e-09
-1.32518e-13
3.0899e-14
1.44254e-09
-4.39808e-13
1.66571e-14
1.44234e-09
-1.41712e-12
2.70415e-12
1.44128e-09
2.61249e-12
1.12442e-13
1.44149e-09
-6.90256e-13
5.31428e-13
-3.06069e-13
-1.71298e-12
1.38319e-09
-7.3992e-11
-7.3908e-11
1.2802e-09
-1.05743e-10
1.94306e-11
1.30525e-09
-2.37656e-10
-4.08023e-11
2.00045e-10
-3.76244e-10
4.69988e-11
2.50634e-10
3.63629e-10
4.45005e-10
6.27956e-11
9.37126e-11
-7.87658e-11
1.2232e-10
1.1075e-11
-4.58221e-11
7.01431e-11
-2.72028e-12
-3.26757e-11
-1.14918e-10
2.62801e-12
-1.09007e-12
-2.05139e-12
1.15432e-10
1.49639e-09
-3.67397e-11
-3.84539e-11
-2.71914e-10
-2.68819e-10
-4.71982e-10
-4.62726e-10
1.48458e-09
-2.60565e-11
2.32408e-13
1.47173e-09
-1.16216e-11
-1.70572e-13
1.46216e-09
-6.67886e-12
-1.17162e-15
1.4555e-09
-3.60233e-12
4.21055e-14
1.45001e-09
-1.93739e-12
-1.18983e-12
1.44693e-09
-1.47069e-12
1.41387e-14
1.44552e-09
-4.23883e-13
4.39783e-13
1.44463e-09
-4.12834e-14
6.96997e-13
1.44344e-09
-1.26003e-13
4.14123e-15
1.44321e-09
-3.56397e-13
1.6496e-13
1.4433e-09
-1.25748e-13
2.13138e-13
1.44198e-09
-5.60958e-13
-2.01376e-12
1.44253e-09
1.14236e-13
-3.35796e-13
1.44178e-09
-7.78773e-14
-2.81215e-13
1.44206e-09
1.1139e-13
-1.29429e-13
1.44182e-09
-7.22671e-14
2.22471e-13
1.44205e-09
-3.95056e-15
5.047e-14
1.44222e-09
4.28042e-13
-7.78333e-13
1.44234e-09
-2.26571e-13
2.73773e-14
1.4423e-09
2.19631e-13
-3.4616e-13
1.44217e-09
3.91206e-13
-2.22138e-13
1.44084e-09
4.15877e-12
-2.55823e-12
1.44118e-09
-5.10781e-13
-4.71337e-14
1.44217e-09
-7.469e-13
1.78276e-12
1.44192e-09
1.14516e-13
1.14289e-13
1.44169e-09
1.92979e-13
-6.54275e-14
1.44149e-09
-3.56732e-13
7.20081e-13
1.44151e-09
-2.32592e-13
1.19748e-13
1.44195e-09
2.96912e-14
6.27569e-13
1.44188e-09
7.98302e-14
1.04867e-13
1.44181e-09
-4.12643e-13
2.37248e-13
1.44216e-09
-7.064e-13
1.10791e-13
1.442e-09
1.85431e-13
2.1808e-13
1.44204e-09
3.05245e-13
2.02482e-14
1.44207e-09
1.88078e-13
-7.66513e-14
1.44138e-09
1.24324e-13
-4.85051e-13
1.4413e-09
-7.18633e-14
2.09442e-14
1.44104e-09
-1.10904e-13
-7.46053e-14
1.44126e-09
-2.30603e-13
-1.40679e-12
1.44305e-09
9.48686e-13
-1.25223e-13
1.44245e-09
-8.63243e-13
7.79286e-13
-8.50972e-13
1.60978e-12
1.26268e-09
8.9465e-11
-3.72417e-11
1.07981e-09
8.22431e-11
-5.10372e-12
1.12477e-09
-2.92716e-10
1.01433e-11
1.67581e-10
-5.12749e-10
2.0011e-10
1.81517e-10
3.75394e-10
3.36757e-10
1.23492e-10
1.55129e-10
-1.25159e-10
1.41392e-11
2.22856e-11
-3.70306e-11
4.29137e-11
-2.25756e-11
-5.59304e-12
-1.71988e-10
-1.98454e-12
3.54828e-12
1.24295e-10
4.61286e-11
1.55043e-09
1.71866e-11
-3.51877e-11
-2.9573e-10
-2.90211e-10
-4.96999e-10
-4.86215e-10
1.50914e-09
1.73433e-11
-2.0721e-12
1.48421e-09
1.31395e-11
1.77355e-13
1.46835e-09
9.40055e-12
-2.05784e-13
1.45846e-09
6.35478e-12
-4.42839e-14
1.45218e-09
4.03096e-12
3.46963e-13
1.44824e-09
2.50327e-12
1.77193e-15
1.44552e-09
2.48213e-12
-1.66481e-13
1.44443e-09
1.07496e-12
-1.99298e-14
1.44367e-09
6.86561e-13
-1.86562e-14
1.44282e-09
5.67346e-13
-3.51986e-14
1.44314e-09
-4.46589e-13
5.27702e-14
1.44256e-09
1.00641e-13
-6.37125e-14
1.44218e-09
1.15002e-13
3.81525e-13
1.44208e-09
1.44151e-15
-4.5369e-15
1.44206e-09
1.74737e-13
-6.34243e-14
1.44209e-09
-4.69265e-15
-1.20303e-13
1.44179e-09
5.38838e-13
-2.6345e-13
1.4417e-09
-2.40318e-13
7.49001e-13
1.44177e-09
-2.5323e-13
-4.76743e-14
1.44202e-09
-2.00903e-13
1.64146e-13
1.44075e-09
3.8014e-12
-2.14914e-12
1.44204e-09
7.10752e-13
2.14635e-12
1.44227e-09
-8.24646e-13
7.63276e-14
1.44191e-09
-1.82938e-13
-2.08067e-13
1.44195e-09
-1.37088e-13
2.05956e-13
1.4417e-09
3.14711e-13
1.22827e-13
1.4421e-09
1.34348e-13
-8.92587e-13
1.44194e-09
5.69328e-14
-1.29995e-13
1.44188e-09
4.82508e-14
3.58378e-14
1.44176e-09
-1.50053e-13
3.49651e-13
1.44146e-09
1.89771e-14
-1.28866e-13
1.44238e-09
-2.59118e-12
9.5747e-13
1.44258e-09
-4.77106e-15
-9.51644e-15
1.44149e-09
1.82171e-12
-4.2403e-13
1.44179e-09
-4.22983e-13
3.07545e-13
1.44127e-09
4.04028e-13
2.4259e-13
1.44134e-09
-3.53068e-13
2.09647e-13
1.44123e-09
1.83164e-14
-1.40476e-14
1.44155e-09
-7.95197e-13
2.39999e-13
1.44179e-09
6.33911e-13
8.00267e-14
1.44246e-09
-7.69324e-14
-1.46151e-12
-2.57875e-13
-1.21508e-12
1.24455e-09
3.05845e-10
-7.20379e-11
7.83764e-10
4.94836e-10
4.8223e-11
4.39565e-10
8.8913e-11
-3.73683e-11
1.27117e-11
7.01274e-12
-6.61236e-10
2.70929e-10
1.14779e-10
4.79752e-10
-2.50595e-11
1.89961e-10
-4.61934e-10
1.85533e-10
3.69514e-11
-2.85144e-10
7.53879e-11
3.6853e-11
-1.42257e-11
2.69293e-11
-2.41693e-11
-2.53872e-11
-9.19193e-11
-5.33893e-12
8.26302e-15
6.46713e-11
3.25787e-11
1.53684e-09
8.10961e-11
-3.88893e-11
-2.87998e-10
-2.90538e-10
-4.87545e-10
-4.95756e-10
1.49998e-09
5.52029e-11
-9.5444e-13
1.47667e-09
3.63157e-11
1.45013e-13
1.46294e-09
2.32483e-11
-1.01329e-13
1.45458e-09
1.48075e-11
-5.83625e-14
1.44946e-09
9.27089e-12
-6.89454e-14
1.44638e-09
5.68561e-12
-6.11286e-14
1.44507e-09
3.59914e-12
2.06805e-13
1.4439e-09
2.27073e-12
-1.52859e-14
1.44326e-09
1.10695e-12
2.51069e-13
1.4429e-09
1.22808e-12
-2.63733e-13
1.44207e-09
1.24394e-12
-8.21679e-13
1.4424e-09
-1.60501e-13
-3.9548e-14
1.44248e-09
4.2296e-14
-4.91684e-15
1.44223e-09
2.70925e-13
-4.67102e-14
1.44226e-09
-5.38252e-13
6.66392e-13
1.44266e-09
-4.47681e-13
1.82517e-14
1.44103e-09
-1.97817e-12
4.12973e-12
1.44153e-09
-6.19467e-13
-1.27377e-13
1.44151e-09
-2.74079e-13
3.32356e-14
1.44054e-09
4.09913e-13
3.46445e-13
1.44201e-09
4.9092e-14
2.27669e-12
1.44211e-09
5.90555e-13
1.11471e-14
1.44258e-09
-3.62375e-12
2.31799e-12
1.44206e-09
3.63843e-13
-3.53602e-14
1.44188e-09
1.02218e-13
-5.92637e-14
1.44185e-09
1.10295e-13
2.23975e-13
1.44204e-09
1.73063e-14
-6.88814e-14
1.44205e-09
-3.26707e-13
3.69212e-13
1.4418e-09
3.22131e-14
2.68518e-13
1.44204e-09
-3.70291e-13
-2.10463e-14
1.44241e-09
-2.51664e-13
-1.01957e-13
1.44141e-09
-4.92074e-13
-1.10402e-12
1.44126e-09
-1.68742e-13
3.18659e-13
1.44188e-09
6.52512e-13
5.50528e-13
1.44156e-09
4.76336e-14
-1.55662e-13
1.44197e-09
2.26667e-13
-2.2796e-13
1.44168e-09
1.57489e-13
-2.26299e-13
1.44108e-09
6.01558e-13
1.86299e-14
1.4416e-09
-1.1266e-12
-1.81754e-13
1.44144e-09
5.21871e-13
2.63837e-13
1.44279e-09
-3.15008e-12
1.73045e-12
-4.16367e-13
-5.24587e-13
1.03014e-09
6.83532e-10
-1.8933e-11
9.67381e-10
1.19085e-09
-6.33203e-10
-2.28543e-10
1.02149e-09
-4.42284e-10
6.99529e-11
-1.44702e-10
7.80478e-10
-8.84236e-10
2.08378e-10
4.54339e-10
-3.57553e-10
9.72226e-10
1.53586e-09
6.69344e-10
-4.44956e-10
-1.18421e-09
-4.30156e-10
-7.60547e-10
1.22186e-10
-6.35052e-11
6.91957e-11
-9.96331e-11
-2.82437e-11
-4.48037e-11
-1.54702e-12
2.4736e-10
2.91085e-11
1.09999e-11
-5.2541e-11
-7.74859e-11
-1.0058e-10
-2.97411e-12
-2.98641e-12
-4.54986e-12
1.50891e-09
1.68548e-10
-4.04184e-11
-2.8932e-10
-2.86795e-10
-4.90169e-10
-4.89633e-10
1.47313e-09
9.29994e-11
-1.99318e-12
1.45664e-09
5.29623e-11
-1.27778e-13
1.44924e-09
3.0936e-11
-2.59013e-13
1.44561e-09
1.85438e-11
-5.419e-14
1.44379e-09
1.11454e-11
5.74668e-15
1.44306e-09
6.47969e-12
-1.81498e-14
1.44257e-09
4.14609e-12
-3.7451e-14
1.44239e-09
2.42024e-12
3.77976e-14
1.44225e-09
1.51131e-12
-2.48018e-13
1.44242e-09
9.86778e-13
1.01023e-13
1.44206e-09
7.98138e-13
8.3795e-13
1.44191e-09
7.215e-13
-7.24371e-13
1.44189e-09
6.35409e-14
1.33632e-15
1.44162e-09
4.70721e-13
6.61309e-14
1.44167e-09
-6.91858e-14
-5.34806e-13
1.44098e-09
2.61522e-13
-3.35378e-14
1.44268e-09
2.15291e-13
-3.90642e-12
1.44225e-09
-2.89163e-13
8.13182e-14
1.44146e-09
-2.9317e-13
7.9427e-13
1.44207e-09
1.82472e-13
-3.9337e-13
1.44283e-09
-7.87273e-13
7.34204e-14
1.44263e-09
1.95342e-13
5.83881e-13
1.44153e-09
-2.85745e-13
-2.24116e-12
1.44194e-09
1.27613e-13
-1.85047e-13
1.44179e-09
-8.47256e-13
1.09904e-12
1.44141e-09
-6.85081e-13
1.16273e-12
1.44143e-09
1.2852e-13
-1.26306e-13
1.44126e-09
2.89772e-13
-4.55892e-13
1.4423e-09
-1.84762e-12
8.45443e-13
1.44235e-09
-1.72767e-13
-2.48005e-13
1.44194e-09
8.40719e-13
-6.86328e-13
1.44194e-09
-4.0173e-13
-9.1305e-14
1.44233e-09
-4.74221e-13
-8.19099e-14
1.44154e-09
3.2004e-12
-1.75759e-12
1.44145e-09
3.60645e-13
-2.23804e-13
1.44154e-09
4.61127e-14
8.53557e-14
1.44206e-09
-6.02401e-14
-3.00677e-13
1.44238e-09
4.25847e-13
-1.45593e-13
1.44117e-09
5.06526e-13
-4.18845e-13
1.44157e-09
2.64222e-13
-1.37486e-13
1.44127e-09
5.63901e-13
-3.41939e-12
-2.52474e-12
1.16121e-13
2.40913e-09
-7.67234e-11
3.93909e-09
-1.29051e-10
-2.2061e-09
6.31367e-08
-1.45957e-10
-2.26014e-09
5.52864e-09
-6.03564e-08
-4.14012e-08
4.4292e-08
-6.22929e-09
7.196e-10
3.97475e-09
-6.71182e-10
-7.20668e-10
8.5265e-10
-8.36652e-10
9.76305e-10
-2.71635e-10
6.89183e-10
-4.3303e-09
2.45467e-09
3.2078e-10
8.65667e-10
-4.7172e-11
-6.88238e-11
2.07538e-10
7.00221e-11
-9.73463e-12
-2.51031e-11
-7.66194e-11
-5.01072e-11
1.37063e-09
-2.61768e-11
-2.49856e-10
-2.24062e-10
-4.22789e-10
-3.80038e-10
1.40116e-09
-5.85142e-13
1.41778e-09
2.86966e-13
1.42773e-09
2.1385e-13
1.43287e-09
2.11197e-13
1.43547e-09
1.13058e-14
1.43906e-09
4.82045e-13
1.44039e-09
-8.37859e-14
1.44071e-09
-3.62531e-13
1.44092e-09
-6.69893e-14
1.44195e-09
1.8323e-13
1.44172e-09
-3.50062e-13
1.44133e-09
1.31176e-14
1.44139e-09
1.4897e-14
1.44189e-09
5.28703e-14
1.44185e-09
1.64024e-14
1.44199e-09
4.01485e-14
1.44168e-09
1.4345e-13
1.44198e-09
1.41058e-12
1.44191e-09
-7.20431e-13
1.44167e-09
-1.13072e-14
1.44253e-09
6.67739e-13
1.4426e-09
1.55932e-13
1.44204e-09
-1.24135e-12
1.44091e-09
-4.83032e-13
1.4416e-09
-9.26976e-13
1.4418e-09
-1.06551e-12
1.44162e-09
1.00671e-13
1.44231e-09
1.25967e-12
1.44152e-09
-1.01662e-12
1.44163e-09
-4.02668e-15
1.44218e-09
7.04718e-13
1.44175e-09
1.1842e-13
1.44144e-09
-2.47582e-13
1.44245e-09
1.8883e-12
1.44208e-09
8.35086e-13
1.44182e-09
-3.49466e-14
1.44154e-09
9.65542e-14
1.44218e-09
3.5135e-13
1.44215e-09
1.58948e-13
1.44252e-09
-2.55616e-13
1.44196e-09
1.78633e-12
-6.15261e-14
2.26023e-09
2.5241e-11
-7.94714e-11
3.08671e-09
-5.38571e-10
-6.17786e-10
-7.25469e-10
1.01718e-09
1.41861e-09
-5.21438e-10
-1.56412e-10
-2.27693e-09
1.37562e-10
-9.30469e-10
2.53807e-09
-3.37094e-09
7.71394e-10
1.51793e-09
-6.46706e-09
6.91748e-10
3.29405e-10
3.77103e-10
-2.24427e-10
9.14469e-10
1.99279e-10
1.19999e-10
-5.42475e-11
-3.793e-11
-1.84671e-10
-9.3358e-11
9.34107e-12
4.20831e-10
-4.10669e-11
1.08442e-12
-6.85196e-11
-9.77225e-11
-7.21606e-11
2.15866e-09
-4.06351e-11
2.97115e-11
-4.86791e-10
-5.25331e-10
-4.86792e-10
-5.2533e-10
2.26814e-09
-1.27361e-11
-7.80761e-13
2.32578e-09
-3.01622e-12
-3.41905e-13
2.35715e-09
3.03955e-13
-7.61768e-14
2.37619e-09
1.33631e-12
-5.77679e-13
2.38832e-09
9.52672e-13
-5.61454e-13
2.39262e-09
2.33548e-13
5.93761e-13
2.3964e-09
5.46334e-13
1.50608e-13
2.39961e-09
7.98221e-13
-1.43611e-13
2.40132e-09
4.60731e-13
-1.47833e-14
2.40227e-09
-1.03824e-12
-1.53173e-13
2.40064e-09
2.22311e-12
-8.46605e-13
2.40189e-09
-6.08399e-13
2.00984e-13
2.40211e-09
-1.05119e-13
-4.43408e-14
2.40214e-09
6.74329e-13
-3.65087e-13
2.40308e-09
-1.81102e-12
-7.31328e-13
2.40299e-09
3.64737e-13
-4.86666e-14
2.40336e-09
-1.34937e-12
8.4715e-13
2.40275e-09
-1.71469e-12
1.68466e-12
2.40349e-09
8.28863e-13
-2.99675e-13
2.40385e-09
2.64634e-13
-3.1809e-14
2.40209e-09
-7.99799e-13
-2.66052e-12
2.40264e-09
-3.70522e-13
2.67414e-13
2.40148e-09
5.52069e-12
-2.29847e-12
2.4021e-09
3.41275e-12
-1.73968e-12
2.40346e-09
-1.5851e-12
-5.23221e-13
2.40391e-09
4.3734e-13
-3.13597e-13
2.40373e-09
4.50206e-13
1.55142e-14
2.40233e-09
4.63017e-13
7.44397e-13
2.40159e-09
8.58566e-13
-1.11312e-14
2.40139e-09
-1.64697e-12
8.70942e-13
2.40393e-09
-7.40684e-13
-1.69125e-12
2.40318e-09
8.91735e-13
-1.16528e-13
2.40297e-09
3.02914e-13
2.86025e-14
2.40353e-09
5.29353e-14
-7.99741e-14
2.40427e-09
2.21821e-12
-8.43539e-14
2.40201e-09
4.0438e-12
-3.28931e-12
2.4025e-09
-2.33985e-13
-1.19884e-13
2.4027e-09
-1.649e-12
-2.10351e-13
2.40344e-09
-5.3427e-13
-9.84124e-14
2.40328e-09
1.05451e-13
1.89681e-13
2.40208e-09
9.51534e-13
-4.55105e-13
-6.08882e-13
-5.22557e-13
2.63314e-09
-2.17781e-10
4.07207e-11
2.55582e-09
-4.03139e-10
-2.1771e-11
3.22875e-09
3.62804e-10
2.01804e-10
-4.10485e-11
-1.1155e-09
-2.41528e-09
1.70548e-10
5.98089e-10
1.6582e-10
6.97667e-11
1.78334e-09
-2.6735e-10
1.20328e-09
-3.38308e-10
1.82825e-10
-2.01393e-10
-1.0954e-10
4.25384e-10
-1.57959e-10
-2.93468e-10
-3.76122e-10
2.38036e-10
1.81306e-10
4.08207e-10
-1.56925e-10
1.321e-11
4.63416e-11
5.46398e-10
-3.6275e-11
-1.7966e-12
-1.20631e-10
-1.63796e-10
-1.26526e-10
2.22997e-09
-1.2995e-10
3.19088e-11
-5.57852e-10
-5.44366e-10
-5.57843e-10
-5.44364e-10
2.29417e-09
-7.80041e-11
5.45898e-13
2.33505e-09
-4.37122e-11
-7.40287e-14
2.36072e-09
-2.53706e-11
5.09119e-16
2.37693e-09
-1.47963e-11
-5.05669e-14
2.38676e-09
-8.97504e-12
6.58788e-14
2.39276e-09
-5.67273e-12
-4.78173e-14
2.39687e-09
-3.51694e-12
-1.67126e-14
2.39803e-09
-1.18851e-12
4.58857e-13
2.39966e-09
-1.36869e-12
1.00242e-13
2.40005e-09
-1.44257e-12
4.16971e-14
2.40331e-09
-4.25362e-13
5.84131e-13
2.40278e-09
-9.10716e-15
-7.42059e-15
2.40296e-09
3.44114e-13
5.21109e-13
2.40292e-09
-1.25666e-13
4.82988e-13
2.4027e-09
5.75501e-13
1.44771e-13
2.40369e-09
-2.40044e-12
8.55528e-13
2.40326e-09
3.43047e-13
-6.52664e-13
2.4025e-09
3.44202e-13
-6.80455e-13
2.40292e-09
-6.45188e-13
5.35595e-13
2.40312e-09
5.47336e-14
-1.82315e-14
2.40148e-09
2.7493e-12
-9.3493e-13
2.4013e-09
-1.71786e-13
-8.48563e-14
2.40236e-09
8.06317e-13
1.97771e-12
2.40213e-09
1.30059e-12
1.19565e-12
2.40475e-09
-2.80854e-12
-5.36637e-13
2.40414e-09
1.04827e-12
-4.66549e-14
2.40347e-09
8.19879e-13
2.56345e-13
2.40263e-09
1.20803e-12
1.01933e-13
2.40339e-09
-2.80707e-13
1.61044e-13
2.40356e-09
-6.11216e-13
-7.63817e-13
2.40152e-09
-7.50778e-13
1.7139e-12
2.40179e-09
4.48491e-13
7.22921e-14
2.40208e-09
-4.88336e-15
7.91719e-16
2.40188e-09
2.99509e-13
9.44458e-14
2.40164e-09
8.07309e-13
7.99813e-13
2.40404e-09
3.20863e-14
3.32894e-12
2.4035e-09
2.01577e-14
2.21892e-13
2.40252e-09
2.84936e-13
-4.72348e-14
2.40355e-09
-1.73871e-12
-1.62664e-12
2.4032e-09
6.12522e-13
-2.34223e-13
2.40267e-09
7.21091e-13
3.68145e-13
-2.23193e-13
3.39867e-13
2.35022e-09
-1.90426e-10
7.77027e-11
2.20894e-09
-2.48594e-10
2.67667e-12
2.78968e-09
-1.85789e-10
-4.7442e-11
6.24479e-10
-6.13159e-10
-8.20349e-12
6.12452e-10
6.2938e-10
6.17665e-10
-6.23902e-11
1.70107e-10
5.4099e-10
-1.65024e-10
1.40804e-10
-4.48812e-14
-7.98683e-11
-1.17105e-10
1.50861e-10
3.64639e-11
9.69312e-12
-1.2684e-10
-1.95234e-11
1.36901e-11
-1.96873e-11
1.15121e-11
1.40848e-10
2.33318e-09
-1.49118e-10
3.3153e-11
-5.91065e-10
-5.99083e-10
-5.91058e-10
-5.99079e-10
2.35126e-09
-9.73407e-11
6.12053e-13
2.36739e-09
-5.93832e-11
-2.28558e-13
2.37904e-09
-3.70193e-11
-1.56951e-15
2.38723e-09
-2.2958e-11
-1.61648e-14
2.39281e-09
-1.45548e-11
-4.05717e-15
2.39629e-09
-9.12296e-12
-1.76861e-14
2.39847e-09
-5.62602e-12
-2.23137e-14
2.40091e-09
-3.4353e-12
-5.98564e-14
2.40175e-09
-2.58381e-12
2.6309e-13
2.40225e-09
-7.09324e-13
7.93611e-13
2.40164e-09
8.31745e-14
7.35089e-14
2.40261e-09
-9.99193e-13
-4.05286e-14
2.40315e-09
-9.21043e-13
-4.84922e-13
2.40372e-09
-7.09905e-13
2.63745e-14
2.40317e-09
-9.36619e-13
1.23021e-12
2.40295e-09
-7.67109e-13
-6.68561e-13
2.40186e-09
3.34675e-12
-2.07074e-12
2.40213e-09
2.5389e-13
-7.93902e-13
2.4018e-09
-1.8589e-13
-1.12778e-13
2.40183e-09
3.21841e-13
-1.61287e-13
2.40284e-09
-6.53865e-13
1.18305e-12
2.40372e-09
-4.03033e-12
1.5213e-12
2.40379e-09
8.58605e-13
-1.52377e-13
2.40575e-09
-2.32486e-12
7.40768e-13
2.40154e-09
-4.54961e-13
9.0756e-13
2.40167e-09
3.8535e-13
2.45698e-13
2.4024e-09
3.90454e-13
-2.49317e-13
2.40345e-09
7.68624e-14
9.81006e-14
2.40324e-09
1.37533e-14
-6.76481e-14
2.40295e-09
-4.27566e-14
2.5982e-14
2.40242e-09
-6.00064e-13
-2.59777e-14
2.4019e-09
-5.62422e-13
8.0945e-13
2.40177e-09
1.86108e-13
-5.57327e-14
2.40181e-09
-1.99691e-13
1.39131e-13
2.40205e-09
9.52755e-13
-1.66917e-13
2.40458e-09
-2.62836e-12
2.54687e-13
2.40398e-09
8.65535e-13
-1.66125e-13
2.40382e-09
8.37767e-13
-2.28162e-13
2.40243e-09
1.14458e-13
1.56106e-12
2.40209e-09
8.60833e-13
6.56381e-14
2.40238e-09
4.3951e-13
7.92485e-14
-1.59672e-12
2.54072e-13
2.4001e-09
-2.18637e-10
5.67155e-11
2.4488e-09
-2.6314e-10
-1.10689e-11
2.52192e-09
-2.6353e-10
8.27108e-12
6.26392e-10
-4.52037e-10
6.99311e-12
5.88752e-10
6.37903e-10
5.89928e-10
6.42486e-11
7.3724e-11
6.69514e-10
-3.61844e-11
-1.44903e-10
-2.95303e-11
-2.99442e-11
-1.42193e-10
1.44631e-10
1.70542e-11
3.99826e-11
-9.77242e-11
-9.73383e-11
2.12384e-11
-2.18283e-11
5.2242e-11
1.4341e-10
2.46025e-09
-9.70077e-11
3.17996e-11
-6.29786e-10
-6.58171e-10
-6.29789e-10
-6.58251e-10
2.42191e-09
-6.383e-11
2.39783e-12
2.40941e-09
-4.69032e-11
-1.5389e-14
2.40424e-09
-3.21591e-11
1.69028e-13
2.40217e-09
-2.17089e-11
5.1545e-13
2.40208e-09
-1.44331e-11
9.28365e-15
2.40215e-09
-9.16679e-12
1.25662e-14
2.40214e-09
-5.52252e-12
-2.64855e-14
2.40208e-09
-3.30315e-12
-2.3633e-14
2.40271e-09
-2.29368e-12
-4.26745e-13
2.40221e-09
-1.31029e-12
-8.45877e-13
2.40333e-09
-7.35588e-13
-1.50377e-13
2.40334e-09
-6.77347e-13
-6.55518e-14
2.40324e-09
-7.50859e-13
2.21125e-14
2.40311e-09
-5.00026e-13
-7.49649e-14
2.40262e-09
-6.23385e-13
-6.58467e-13
2.40238e-09
-7.22991e-13
1.30619e-13
2.4035e-09
3.43552e-13
1.97975e-12
2.40333e-09
-3.61301e-14
9.2263e-13
2.40312e-09
1.40232e-14
-2.25173e-14
2.40321e-09
-1.58537e-12
9.01229e-13
2.40433e-09
-5.09199e-12
1.64409e-12
2.4028e-09
6.65667e-13
-1.56665e-12
2.40294e-09
5.2422e-13
6.43918e-14
2.40224e-09
1.46886e-13
-8.51268e-13
2.40213e-09
-4.22547e-13
3.66818e-14
2.40247e-09
5.50751e-14
-9.67859e-14
2.40273e-09
2.96814e-13
-9.16926e-14
2.40306e-09
-6.11029e-16
-2.94738e-13
2.40316e-09
-1.66109e-13
6.54069e-14
2.40301e-09
-1.03637e-13
6.67777e-14
2.40233e-09
-7.27906e-13
1.20826e-12
2.40267e-09
-8.72204e-13
-1.76981e-14
2.40292e-09
-1.01466e-13
1.15986e-14
2.40318e-09
2.33998e-13
-3.03531e-13
2.40311e-09
7.92891e-13
4.64731e-14
2.40283e-09
-3.90427e-12
2.04157e-12
2.40305e-09
2.65098e-13
1.79033e-13
2.40328e-09
2.95194e-13
1.50106e-13
2.4029e-09
-4.5864e-13
-1.93444e-13
2.40133e-09
2.77291e-12
-3.29833e-13
2.40168e-09
3.12579e-14
4.44285e-14
-1.70348e-12
1.23924e-12
2.32992e-09
-1.75849e-10
7.42328e-11
2.29382e-09
-2.05919e-10
-1.38171e-11
2.29243e-09
-2.51283e-10
2.00569e-11
5.05124e-10
-3.68077e-10
-2.3202e-13
6.82807e-10
5.05153e-10
6.68068e-10
-3.6554e-11
7.25205e-11
3.41903e-10
-1.06439e-10
2.33707e-10
7.76986e-11
4.70674e-12
-1.33854e-10
1.40773e-10
1.79114e-11
-1.07236e-10
-7.72883e-11
-6.62295e-11
1.58721e-11
-2.44517e-11
2.54638e-11
1.26634e-10
2.44447e-09
-7.97748e-11
3.62426e-11
-6.23223e-10
-6.43842e-10
-6.23203e-10
-6.43836e-10
2.43716e-09
-5.59809e-11
-2.46841e-13
2.42689e-09
-3.57218e-11
-3.66864e-13
2.41905e-09
-2.42096e-11
-3.88807e-14
2.4136e-09
-1.48762e-11
-9.6416e-13
2.41099e-09
-1.11128e-11
1.84793e-13
2.40866e-09
-6.79699e-12
1.7908e-14
2.4059e-09
-3.86944e-12
6.69733e-13
2.40405e-09
-2.42048e-12
2.63637e-13
2.40353e-09
-2.05743e-12
1.52614e-13
2.40309e-09
-9.44401e-13
1.11326e-14
2.4025e-09
-6.29959e-13
3.44382e-13
2.40429e-09
-3.31529e-12
2.66392e-12
2.40314e-09
4.8155e-13
-7.90843e-14
2.40366e-09
1.00089e-12
-1.71414e-12
2.40349e-09
4.64724e-13
1.48093e-13
2.40334e-09
-5.09863e-14
-3.32988e-13
2.40336e-09
4.27941e-13
-2.06263e-13
2.40359e-09
-1.86283e-13
-3.27304e-15
2.40365e-09
-8.10157e-14
-1.46275e-14
2.40348e-09
9.72476e-14
-6.31414e-13
2.40208e-09
1.46398e-13
-1.87567e-12
2.40235e-09
2.64715e-13
1.47668e-14
2.40312e-09
-4.70371e-13
9.75242e-14
2.4024e-09
-9.38169e-13