/*--------------------------------*- C++ -*----------------------------------*\
| =========                 |                                                 |
| \\      /  F ield         | OpenFOAM: The Open Source CFD Toolbox           |
|  \\    /   O peration     | Version:  5.0                                   |
|   \\  /    A nd           | Web:      www.OpenFOAM.org                      |
|    \\/     M anipulation  |                                                 |
\*---------------------------------------------------------------------------*/
FoamFile
{
    version     2.0;
    format      ascii;
    class       volScalarField;
    location    "0.5";
    object      rAU;
}
// * * * * * * * * * * * * * * * * * * * * * * * * * * * * * * * * * * * * * //

dimensions      [-1 3 1 0 0 0 0];

internalField   nonuniform List<scalar> 
4720
(
9.73278e-07
9.73267e-07
9.72273e-07
8.5681e-07
8.95605e-07
1.05904e-07
1.29269e-07
3.92421e-07
3.93663e-07
3.94697e-07
3.9573e-07
3.96762e-07
3.97794e-07
3.98825e-07
3.99856e-07
4.00885e-07
4.01915e-07
4.02943e-07
4.0397e-07
4.04998e-07
4.06024e-07
4.07049e-07
4.08074e-07
4.09098e-07
4.10121e-07
4.11144e-07
4.12166e-07
4.13187e-07
4.14207e-07
4.15227e-07
4.16245e-07
4.17263e-07
4.1828e-07
4.19297e-07
4.20313e-07
4.21327e-07
4.22341e-07
4.23355e-07
4.24367e-07
4.25378e-07
4.26389e-07
4.27399e-07
4.28408e-07
4.29417e-07
4.30424e-07
4.3143e-07
4.32437e-07
4.33441e-07
4.34445e-07
4.36221e-07
9.73253e-07
9.73383e-07
9.73246e-07
9.72559e-07
9.02074e-07
6.93336e-07
1.29269e-07
3.9242e-07
3.93663e-07
3.94696e-07
3.9573e-07
3.96762e-07
3.97794e-07
3.98825e-07
3.99856e-07
4.00885e-07
4.01915e-07
4.02943e-07
4.0397e-07
4.04998e-07
4.06024e-07
4.07049e-07
4.08074e-07
4.09098e-07
4.10121e-07
4.11144e-07
4.12166e-07
4.13187e-07
4.14207e-07
4.15227e-07
4.16245e-07
4.17263e-07
4.1828e-07
4.19297e-07
4.20313e-07
4.21327e-07
4.22341e-07
4.23355e-07
4.24367e-07
4.25378e-07
4.26389e-07
4.27399e-07
4.28408e-07
4.29417e-07
4.30424e-07
4.3143e-07
4.32437e-07
4.33441e-07
4.34445e-07
4.36221e-07
9.73267e-07
9.73425e-07
9.73546e-07
9.73593e-07
9.03168e-07
7.00099e-07
3.51717e-08
3.92419e-07
3.93662e-07
3.94696e-07
3.9573e-07
3.96762e-07
3.97794e-07
3.98825e-07
3.99856e-07
4.00885e-07
4.01915e-07
4.02943e-07
4.0397e-07
4.04998e-07
4.06024e-07
4.07049e-07
4.08074e-07
4.09098e-07
4.10121e-07
4.11144e-07
4.12166e-07
4.13187e-07
4.14207e-07
4.15227e-07
4.16245e-07
4.17263e-07
4.1828e-07
4.19297e-07
4.20313e-07
4.21327e-07
4.22341e-07
4.23355e-07
4.24367e-07
4.25378e-07
4.26389e-07
4.27399e-07
4.28408e-07
4.29417e-07
4.30424e-07
4.3143e-07
4.32437e-07
4.33441e-07
4.34445e-07
4.36221e-07
9.73284e-07
9.73441e-07
9.73555e-07
9.73602e-07
9.0314e-07
6.93627e-07
3.67536e-08
3.92418e-07
3.93661e-07
3.94696e-07
3.95729e-07
3.96762e-07
3.97794e-07
3.98825e-07
3.99856e-07
4.00885e-07
4.01915e-07
4.02943e-07
4.0397e-07
4.04998e-07
4.06024e-07
4.07049e-07
4.08074e-07
4.09098e-07
4.10121e-07
4.11144e-07
4.12166e-07
4.13187e-07
4.14207e-07
4.15227e-07
4.16245e-07
4.17263e-07
4.1828e-07
4.19297e-07
4.20313e-07
4.21327e-07
4.22341e-07
4.23355e-07
4.24367e-07
4.25378e-07
4.26389e-07
4.27399e-07
4.28408e-07
4.29417e-07
4.30424e-07
4.3143e-07
4.32437e-07
4.33441e-07
4.34445e-07
4.36221e-07
9.73294e-07
9.73465e-07
9.73575e-07
9.73636e-07
9.02933e-07
6.99378e-07
7.04173e-08
3.92419e-07
3.93662e-07
3.94696e-07
3.95729e-07
3.96762e-07
3.97794e-07
3.98825e-07
3.99856e-07
4.00885e-07
4.01915e-07
4.02943e-07
4.0397e-07
4.04998e-07
4.06024e-07
4.07049e-07
4.08074e-07
4.09098e-07
4.10121e-07
4.11144e-07
4.12166e-07
4.13187e-07
4.14207e-07
4.15227e-07
4.16245e-07
4.17263e-07
4.1828e-07
4.19297e-07
4.20313e-07
4.21327e-07
4.22341e-07
4.23355e-07
4.24367e-07
4.25378e-07
4.26389e-07
4.27399e-07
4.28408e-07
4.29417e-07
4.30424e-07
4.3143e-07
4.32437e-07
4.33441e-07
4.34445e-07
4.36221e-07
9.7329e-07
9.73474e-07
9.73576e-07
9.73578e-07
9.02645e-07
7.00787e-07
8.81986e-08
3.92419e-07
3.93662e-07
3.94696e-07
3.95729e-07
3.96762e-07
3.97794e-07
3.98825e-07
3.99856e-07
4.00885e-07
4.01915e-07
4.02943e-07
4.0397e-07
4.04998e-07
4.06024e-07
4.07049e-07
4.08074e-07
4.09098e-07
4.10121e-07
4.11144e-07
4.12166e-07
4.13187e-07
4.14207e-07
4.15226e-07
4.16245e-07
4.17263e-07
4.1828e-07
4.19297e-07
4.20313e-07
4.21327e-07
4.22341e-07
4.23355e-07
4.24367e-07
4.25378e-07
4.26389e-07
4.27399e-07
4.28408e-07
4.29417e-07
4.30424e-07
4.3143e-07
4.32437e-07
4.33441e-07
4.34445e-07
4.36221e-07
9.7329e-07
9.73447e-07
9.73616e-07
9.73665e-07
9.02911e-07
6.9407e-07
5.3171e-08
3.92418e-07
3.93661e-07
3.94695e-07
3.95729e-07
3.96762e-07
3.97794e-07
3.98825e-07
3.99856e-07
4.00885e-07
4.01915e-07
4.02943e-07
4.0397e-07
4.04998e-07
4.06024e-07
4.07049e-07
4.08074e-07
4.09098e-07
4.10121e-07
4.11144e-07
4.12166e-07
4.13187e-07
4.14207e-07
4.15226e-07
4.16245e-07
4.17263e-07
4.1828e-07
4.19297e-07
4.20313e-07
4.21327e-07
4.22341e-07
4.23355e-07
4.24367e-07
4.25378e-07
4.26389e-07
4.27399e-07
4.28408e-07
4.29417e-07
4.30424e-07
4.3143e-07
4.32437e-07
4.33441e-07
4.34445e-07
4.36221e-07
9.73248e-07
9.73423e-07
9.7364e-07
9.73601e-07
9.02845e-07
6.98212e-07
3.54487e-08
3.92418e-07
3.93661e-07
3.94695e-07
3.95729e-07
3.96762e-07
3.97794e-07
3.98825e-07
3.99856e-07
4.00885e-07
4.01915e-07
4.02943e-07
4.0397e-07
4.04998e-07
4.06024e-07
4.07049e-07
4.08074e-07
4.09098e-07
4.10121e-07
4.11144e-07
4.12166e-07
4.13187e-07
4.14207e-07
4.15227e-07
4.16245e-07
4.17263e-07
4.1828e-07
4.19297e-07
4.20313e-07
4.21327e-07
4.22341e-07
4.23355e-07
4.24367e-07
4.25378e-07
4.26389e-07
4.27399e-07
4.28408e-07
4.29417e-07
4.30424e-07
4.3143e-07
4.32437e-07
4.33441e-07
4.34445e-07
4.36221e-07
9.73216e-07
9.73292e-07
9.7197e-07
8.91205e-07
8.98171e-07
7.00249e-07
1.29212e-07
3.92417e-07
3.93661e-07
3.94695e-07
3.95729e-07
3.96762e-07
3.97794e-07
3.98825e-07
3.99856e-07
4.00885e-07
4.01915e-07
4.02943e-07
4.0397e-07
4.04998e-07
4.06024e-07
4.07049e-07
4.08074e-07
4.09098e-07
4.10121e-07
4.11144e-07
4.12166e-07
4.13187e-07
4.14207e-07
4.15227e-07
4.16245e-07
4.17263e-07
4.1828e-07
4.19297e-07
4.20313e-07
4.21327e-07
4.22341e-07
4.23355e-07
4.24367e-07
4.25378e-07
4.26389e-07
4.27399e-07
4.28408e-07
4.29417e-07
4.30424e-07
4.3143e-07
4.32437e-07
4.33441e-07
4.34445e-07
4.36221e-07
9.73124e-07
9.72035e-07
9.52922e-07
8.87344e-07
5.84009e-07
5.99984e-07
1.29268e-07
3.92419e-07
3.93662e-07
3.94696e-07
3.9573e-07
3.96762e-07
3.97794e-07
3.98825e-07
3.99856e-07
4.00885e-07
4.01915e-07
4.02943e-07
4.0397e-07
4.04998e-07
4.06024e-07
4.07049e-07
4.08074e-07
4.09098e-07
4.10121e-07
4.11144e-07
4.12166e-07
4.13187e-07
4.14207e-07
4.15227e-07
4.16245e-07
4.17263e-07
4.1828e-07
4.19297e-07
4.20313e-07
4.21327e-07
4.22341e-07
4.23355e-07
4.24367e-07
4.25378e-07
4.26389e-07
4.27399e-07
4.28408e-07
4.29417e-07
4.30424e-07
4.3143e-07
4.32437e-07
4.33441e-07
4.34445e-07
4.36221e-07
9.81686e-07
9.81441e-07
9.79536e-07
8.93882e-07
9.19122e-07
1.50854e-07
1.83346e-07
5.049e-07
5.06387e-07
5.07526e-07
5.08664e-07
5.09801e-07
5.10936e-07
5.12069e-07
5.13202e-07
5.14333e-07
5.15461e-07
5.16589e-07
5.17715e-07
5.18838e-07
5.19961e-07
5.21082e-07
5.22201e-07
5.23319e-07
5.24435e-07
5.25549e-07
5.26662e-07
5.27773e-07
5.28882e-07
5.2999e-07
5.31097e-07
5.322e-07
5.33304e-07
5.34405e-07
5.35504e-07
5.36602e-07
5.37699e-07
5.38793e-07
5.39886e-07
5.40977e-07
5.42066e-07
5.43155e-07
5.44241e-07
5.45325e-07
5.46408e-07
5.4749e-07
5.48569e-07
5.49647e-07
5.50723e-07
5.53038e-07
9.81668e-07
9.81777e-07
9.81549e-07
9.81288e-07
9.32218e-07
7.66393e-07
1.83342e-07
5.04897e-07
5.06386e-07
5.07526e-07
5.08664e-07
5.09801e-07
5.10936e-07
5.12069e-07
5.13202e-07
5.14333e-07
5.15461e-07
5.16589e-07
5.17715e-07
5.18838e-07
5.19961e-07
5.21082e-07
5.22201e-07
5.23319e-07
5.24435e-07
5.25549e-07
5.26662e-07
5.27773e-07
5.28882e-07
5.2999e-07
5.31097e-07
5.322e-07
5.33304e-07
5.34405e-07
5.35504e-07
5.36602e-07
5.37699e-07
5.38793e-07
5.39886e-07
5.40978e-07
5.42066e-07
5.43155e-07
5.44241e-07
5.45325e-07
5.46408e-07
5.4749e-07
5.48568e-07
5.49647e-07
5.50723e-07
5.53038e-07
9.81701e-07
9.8186e-07
9.81919e-07
9.81884e-07
9.32463e-07
7.76063e-07
5.18235e-08
5.04894e-07
5.06384e-07
5.07525e-07
5.08663e-07
5.098e-07
5.10936e-07
5.12069e-07
5.13202e-07
5.14333e-07
5.15461e-07
5.16589e-07
5.17715e-07
5.18838e-07
5.19961e-07
5.21082e-07
5.22201e-07
5.23319e-07
5.24435e-07
5.25549e-07
5.26662e-07
5.27773e-07
5.28882e-07
5.2999e-07
5.31097e-07
5.322e-07
5.33304e-07
5.34405e-07
5.35504e-07
5.36602e-07
5.37699e-07
5.38793e-07
5.39886e-07
5.40977e-07
5.42066e-07
5.43155e-07
5.44241e-07
5.45325e-07
5.46408e-07
5.4749e-07
5.48568e-07
5.49647e-07
5.50723e-07
5.53038e-07
9.81713e-07
9.81858e-07
9.81935e-07
9.81938e-07
9.3249e-07
7.76898e-07
5.44727e-08
5.04891e-07
5.06382e-07
5.07524e-07
5.08662e-07
5.098e-07
5.10936e-07
5.12069e-07
5.13202e-07
5.14333e-07
5.15461e-07
5.16589e-07
5.17715e-07
5.18838e-07
5.19961e-07
5.21082e-07
5.22201e-07
5.23319e-07
5.24435e-07
5.25549e-07
5.26662e-07
5.27773e-07
5.28882e-07
5.2999e-07
5.31097e-07
5.322e-07
5.33304e-07
5.34405e-07
5.35504e-07
5.36602e-07
5.37699e-07
5.38793e-07
5.39886e-07
5.40977e-07
5.42066e-07
5.43155e-07
5.44241e-07
5.45325e-07
5.46408e-07
5.4749e-07
5.48569e-07
5.49647e-07
5.50723e-07
5.53038e-07
9.81725e-07
9.81878e-07
9.81942e-07
9.81956e-07
9.31934e-07
7.76838e-07
1.02191e-07
5.04894e-07
5.06384e-07
5.07524e-07
5.08662e-07
5.098e-07
5.10936e-07
5.12069e-07
5.13202e-07
5.14333e-07
5.15461e-07
5.16589e-07
5.17715e-07
5.18838e-07
5.19961e-07
5.21082e-07
5.22201e-07
5.23319e-07
5.24435e-07
5.25549e-07
5.26662e-07
5.27773e-07
5.28882e-07
5.2999e-07
5.31097e-07
5.322e-07
5.33304e-07
5.34405e-07
5.35504e-07
5.36602e-07
5.37699e-07
5.38793e-07
5.39886e-07
5.40977e-07
5.42066e-07
5.43155e-07
5.44241e-07
5.45325e-07
5.46408e-07
5.4749e-07
5.48568e-07
5.49647e-07
5.50723e-07
5.53038e-07
9.81716e-07
9.81888e-07
9.81969e-07
9.8198e-07
9.32229e-07
7.69343e-07
1.26855e-07
5.04894e-07
5.06383e-07
5.07524e-07
5.08662e-07
5.098e-07
5.10936e-07
5.12069e-07
5.13202e-07
5.14333e-07
5.15461e-07
5.16589e-07
5.17715e-07
5.18838e-07
5.19961e-07
5.21082e-07
5.22201e-07
5.23319e-07
5.24435e-07
5.25549e-07
5.26662e-07
5.27773e-07
5.28882e-07
5.2999e-07
5.31097e-07
5.322e-07
5.33304e-07
5.34405e-07
5.35504e-07
5.36602e-07
5.37699e-07
5.38793e-07
5.39886e-07
5.40977e-07
5.42066e-07
5.43155e-07
5.44241e-07
5.45325e-07
5.46408e-07
5.4749e-07
5.48569e-07
5.49647e-07
5.50723e-07
5.53038e-07
9.81719e-07
9.81879e-07
9.81998e-07
9.82022e-07
9.32514e-07
7.76623e-07
7.80426e-08
5.04891e-07
5.06382e-07
5.07524e-07
5.08662e-07
5.098e-07
5.10936e-07
5.12069e-07
5.13202e-07
5.14333e-07
5.15461e-07
5.16589e-07
5.17715e-07
5.18838e-07
5.19961e-07
5.21082e-07
5.22201e-07
5.23319e-07
5.24435e-07
5.25549e-07
5.26662e-07
5.27773e-07
5.28882e-07
5.2999e-07
5.31097e-07
5.322e-07
5.33304e-07
5.34405e-07
5.35504e-07
5.36602e-07
5.37699e-07
5.38793e-07
5.39886e-07
5.40977e-07
5.42066e-07
5.43154e-07
5.44241e-07
5.45325e-07
5.46408e-07
5.4749e-07
5.48569e-07
5.49647e-07
5.50723e-07
5.53038e-07
9.8169e-07
9.81844e-07
9.82019e-07
9.8178e-07
9.31508e-07
7.7413e-07
5.25171e-08
5.04892e-07
5.06382e-07
5.07524e-07
5.08662e-07
5.098e-07
5.10936e-07
5.12069e-07
5.13202e-07
5.14333e-07
5.15461e-07
5.16589e-07
5.17715e-07
5.18838e-07
5.19961e-07
5.21082e-07
5.22201e-07
5.23319e-07
5.24435e-07
5.25549e-07
5.26662e-07
5.27773e-07
5.28882e-07
5.2999e-07
5.31097e-07
5.322e-07
5.33304e-07
5.34405e-07
5.35504e-07
5.36602e-07
5.37699e-07
5.38793e-07
5.39886e-07
5.40977e-07
5.42066e-07
5.43155e-07
5.44241e-07
5.45325e-07
5.46408e-07
5.4749e-07
5.48569e-07
5.49647e-07
5.50723e-07
5.53038e-07
9.81638e-07
9.81689e-07
9.80431e-07
9.27801e-07
9.23217e-07
7.75765e-07
1.83229e-07
5.04889e-07
5.06382e-07
5.07524e-07
5.08662e-07
5.098e-07
5.10936e-07
5.12069e-07
5.13202e-07
5.14333e-07
5.15461e-07
5.16589e-07
5.17715e-07
5.18838e-07
5.19961e-07
5.21082e-07
5.22201e-07
5.23319e-07
5.24435e-07
5.25549e-07
5.26662e-07
5.27773e-07
5.28882e-07
5.2999e-07
5.31097e-07
5.32201e-07
5.33304e-07
5.34405e-07
5.35504e-07
5.36602e-07
5.37699e-07
5.38793e-07
5.39886e-07
5.40977e-07
5.42066e-07
5.43154e-07
5.44241e-07
5.45325e-07
5.46408e-07
5.4749e-07
5.48569e-07
5.49647e-07
5.50723e-07
5.53038e-07
9.81537e-07
9.79251e-07
8.55628e-07
8.81249e-07
6.58478e-07
6.75219e-07
1.83337e-07
5.04895e-07
5.06384e-07
5.07525e-07
5.08663e-07
5.098e-07
5.10936e-07
5.12069e-07
5.13202e-07
5.14333e-07
5.15461e-07
5.16589e-07
5.17715e-07
5.18838e-07
5.19961e-07
5.21082e-07
5.22201e-07
5.23319e-07
5.24435e-07
5.25549e-07
5.26662e-07
5.27773e-07
5.28882e-07
5.2999e-07
5.31097e-07
5.32201e-07
5.33304e-07
5.34405e-07
5.35504e-07
5.36602e-07
5.37699e-07
5.38793e-07
5.39886e-07
5.40977e-07
5.42066e-07
5.43154e-07
5.44241e-07
5.45325e-07
5.46408e-07
5.4749e-07
5.48569e-07
5.49647e-07
5.50723e-07
5.53038e-07
9.73281e-07
9.73271e-07
9.70208e-07
9.06126e-07
9.24696e-07
1.51007e-07
1.8335e-07
3.92421e-07
3.93663e-07
3.94696e-07
3.9573e-07
3.96762e-07
3.97794e-07
3.98825e-07
3.99856e-07
4.00885e-07
4.01915e-07
4.02943e-07
4.0397e-07
4.04998e-07
4.06024e-07
4.07049e-07
4.08074e-07
4.09098e-07
4.10121e-07
4.11144e-07
4.12166e-07
4.13187e-07
4.14207e-07
4.15226e-07
4.16245e-07
4.17263e-07
4.1828e-07
4.19297e-07
4.20313e-07
4.21327e-07
4.22341e-07
4.23355e-07
4.24367e-07
4.25378e-07
4.26389e-07
4.27399e-07
4.28408e-07
4.29417e-07
4.30424e-07
4.3143e-07
4.32437e-07
4.33441e-07
4.34445e-07
4.36221e-07
9.7321e-07
9.73376e-07
9.73276e-07
9.73181e-07
9.30896e-07
7.65499e-07
1.83346e-07
3.9242e-07
3.93663e-07
3.94696e-07
3.9573e-07
3.96762e-07
3.97794e-07
3.98825e-07
3.99856e-07
4.00885e-07
4.01915e-07
4.02943e-07
4.0397e-07
4.04998e-07
4.06024e-07
4.07049e-07
4.08074e-07
4.09098e-07
4.10121e-07
4.11144e-07
4.12166e-07
4.13187e-07
4.14207e-07
4.15227e-07
4.16245e-07
4.17263e-07
4.1828e-07
4.19297e-07
4.20313e-07
4.21327e-07
4.22341e-07
4.23355e-07
4.24367e-07
4.25378e-07
4.26389e-07
4.27399e-07
4.28408e-07
4.29417e-07
4.30424e-07
4.3143e-07
4.32437e-07
4.33441e-07
4.34445e-07
4.36221e-07
9.73268e-07
9.7345e-07
9.73535e-07
9.73577e-07
9.32607e-07
7.76216e-07
5.18233e-08
3.92419e-07
3.93662e-07
3.94696e-07
3.9573e-07
3.96762e-07
3.97794e-07
3.98825e-07
3.99856e-07
4.00885e-07
4.01915e-07
4.02943e-07
4.0397e-07
4.04998e-07
4.06024e-07
4.07049e-07
4.08074e-07
4.09098e-07
4.10121e-07
4.11144e-07
4.12166e-07
4.13187e-07
4.14207e-07
4.15226e-07
4.16245e-07
4.17263e-07
4.1828e-07
4.19297e-07
4.20313e-07
4.21327e-07
4.22341e-07
4.23355e-07
4.24367e-07
4.25378e-07
4.26389e-07
4.27399e-07
4.28408e-07
4.29417e-07
4.30424e-07
4.3143e-07
4.32437e-07
4.33441e-07
4.34445e-07
4.36221e-07
9.73286e-07
9.73449e-07
9.73554e-07
9.73593e-07
9.32392e-07
7.76951e-07
5.44124e-08
3.92418e-07
3.93661e-07
3.94696e-07
3.95729e-07
3.96762e-07
3.97794e-07
3.98825e-07
3.99856e-07
4.00885e-07
4.01915e-07
4.02943e-07
4.0397e-07
4.04998e-07
4.06024e-07
4.07049e-07
4.08074e-07
4.09098e-07
4.10121e-07
4.11144e-07
4.12166e-07
4.13187e-07
4.14207e-07
4.15226e-07
4.16245e-07
4.17263e-07
4.1828e-07
4.19297e-07
4.20313e-07
4.21327e-07
4.22341e-07
4.23355e-07
4.24367e-07
4.25378e-07
4.26389e-07
4.27399e-07
4.28408e-07
4.29417e-07
4.30424e-07
4.3143e-07
4.32437e-07
4.33441e-07
4.34445e-07
4.36221e-07
9.73294e-07
9.73462e-07
9.73533e-07
9.7361e-07
9.32318e-07
7.76683e-07
1.0214e-07
3.92419e-07
3.93662e-07
3.94696e-07
3.95729e-07
3.96762e-07
3.97794e-07
3.98825e-07
3.99856e-07
4.00885e-07
4.01915e-07
4.02943e-07
4.0397e-07
4.04998e-07
4.06024e-07
4.07049e-07
4.08074e-07
4.09098e-07
4.10121e-07
4.11144e-07
4.12166e-07
4.13187e-07
4.14207e-07
4.15226e-07
4.16245e-07
4.17263e-07
4.1828e-07
4.19297e-07
4.20313e-07
4.21327e-07
4.22341e-07
4.23355e-07
4.24367e-07
4.25378e-07
4.26389e-07
4.27399e-07
4.28408e-07
4.29417e-07
4.30424e-07
4.3143e-07
4.32436e-07
4.33441e-07
4.34445e-07
4.36221e-07
9.73268e-07
9.73462e-07
9.73583e-07
9.73657e-07
9.32614e-07
7.75225e-07
1.2675e-07
3.92419e-07
3.93662e-07
3.94696e-07
3.95729e-07
3.96762e-07
3.97794e-07
3.98825e-07
3.99856e-07
4.00885e-07
4.01915e-07
4.02943e-07
4.0397e-07
4.04998e-07
4.06024e-07
4.07049e-07
4.08074e-07
4.09098e-07
4.10121e-07
4.11144e-07
4.12166e-07
4.13187e-07
4.14207e-07
4.15226e-07
4.16245e-07
4.17263e-07
4.1828e-07
4.19297e-07
4.20313e-07
4.21327e-07
4.22341e-07
4.23355e-07
4.24367e-07
4.25378e-07
4.26389e-07
4.27399e-07
4.28408e-07
4.29417e-07
4.30424e-07
4.3143e-07
4.32437e-07
4.33441e-07
4.34445e-07
4.36221e-07
9.73288e-07
9.73472e-07
9.73614e-07
9.73701e-07
9.32651e-07
7.76079e-07
7.79878e-08
3.92418e-07
3.93661e-07
3.94695e-07
3.95729e-07
3.96762e-07
3.97794e-07
3.98825e-07
3.99856e-07
4.00885e-07
4.01915e-07
4.02943e-07
4.0397e-07
4.04998e-07
4.06024e-07
4.07049e-07
4.08074e-07
4.09098e-07
4.10121e-07
4.11144e-07
4.12166e-07
4.13187e-07
4.14207e-07
4.15226e-07
4.16245e-07
4.17263e-07
4.1828e-07
4.19297e-07
4.20313e-07
4.21327e-07
4.22341e-07
4.23355e-07
4.24367e-07
4.25378e-07
4.26389e-07
4.27399e-07
4.28408e-07
4.29417e-07
4.30424e-07
4.3143e-07
4.32437e-07
4.33441e-07
4.34445e-07
4.36221e-07
9.73267e-07
9.73441e-07
9.73639e-07
9.73183e-07
9.32018e-07
7.76028e-07
5.2467e-08
3.92418e-07
3.93661e-07
3.94695e-07
3.95729e-07
3.96762e-07
3.97794e-07
3.98825e-07
3.99856e-07
4.00885e-07
4.01915e-07
4.02943e-07
4.0397e-07
4.04998e-07
4.06024e-07
4.07049e-07
4.08074e-07
4.09098e-07
4.10121e-07
4.11144e-07
4.12166e-07
4.13187e-07
4.14207e-07
4.15226e-07
4.16245e-07
4.17263e-07
4.1828e-07
4.19297e-07
4.20313e-07
4.21327e-07
4.22341e-07
4.23355e-07
4.24367e-07
4.25378e-07
4.26389e-07
4.27399e-07
4.28408e-07
4.29417e-07
4.30424e-07
4.3143e-07
4.32437e-07
4.33441e-07
4.34445e-07
4.36221e-07
9.73197e-07
9.73338e-07
9.71543e-07
9.22423e-07
9.31126e-07
7.75342e-07
1.83233e-07
3.92417e-07
3.93661e-07
3.94695e-07
3.95729e-07
3.96762e-07
3.97794e-07
3.98825e-07
3.99856e-07
4.00885e-07
4.01915e-07
4.02943e-07
4.0397e-07
4.04998e-07
4.06024e-07
4.07049e-07
4.08074e-07
4.09098e-07
4.10121e-07
4.11144e-07
4.12166e-07
4.13187e-07
4.14207e-07
4.15226e-07
4.16245e-07
4.17263e-07
4.1828e-07
4.19297e-07
4.20313e-07
4.21327e-07
4.22341e-07
4.23355e-07
4.24367e-07
4.25378e-07
4.26389e-07
4.27399e-07
4.28408e-07
4.29417e-07
4.30424e-07
4.3143e-07
4.32437e-07
4.33441e-07
4.34445e-07
4.36221e-07
9.73137e-07
9.69542e-07
9.37833e-07
8.87135e-07
7.27593e-07
6.61583e-07
1.83343e-07
3.92419e-07
3.93662e-07
3.94696e-07
3.9573e-07
3.96762e-07
3.97794e-07
3.98825e-07
3.99856e-07
4.00885e-07
4.01915e-07
4.02943e-07
4.0397e-07
4.04998e-07
4.06024e-07
4.07049e-07
4.08074e-07
4.09098e-07
4.10121e-07
4.11144e-07
4.12166e-07
4.13187e-07
4.14207e-07
4.15226e-07
4.16245e-07
4.17263e-07
4.1828e-07
4.19297e-07
4.20313e-07
4.21327e-07
4.22341e-07
4.23355e-07
4.24367e-07
4.25378e-07
4.26389e-07
4.27399e-07
4.28408e-07
4.29417e-07
4.30424e-07
4.3143e-07
4.32437e-07
4.33441e-07
4.34445e-07
4.36221e-07
3.51426e-08
4.78589e-07
3.51427e-08
1.50606e-07
5.17855e-08
5.28763e-07
5.1785e-08
3.51433e-08
7.00371e-07
3.57716e-08
7.69115e-07
5.1786e-08
7.76868e-07
5.29323e-08
3.72451e-08
7.008e-07
7.7192e-08
7.76051e-07
5.50974e-08
7.76781e-07
1.11579e-07
1.13021e-07
6.93682e-07
6.9142e-07
7.76964e-07
1.60556e-07
7.7717e-07
7.63249e-07
6.91626e-07
7.00971e-07
6.94949e-07
7.76488e-07
7.64611e-07
7.75831e-07
7.70611e-07
6.94556e-07
7.00728e-07
6.93753e-07
7.69326e-07
7.69695e-07
7.71665e-07
7.66464e-07
6.89978e-07
6.93826e-07
1.13331e-07
7.76558e-07
7.63808e-07
7.76464e-07
1.6097e-07
7.78771e-08
7.00531e-07
3.72622e-08
7.73606e-07
1.12555e-07
7.7498e-07
5.5139e-08
3.57855e-08
6.93188e-07
3.51433e-08
7.7449e-07
5.29682e-08
7.34379e-07
5.17867e-08
3.5142e-08
1.04078e-07
3.51426e-08
6.66635e-07
5.17775e-08
1.47167e-07
5.17857e-08
5.17855e-08
5.4971e-07
5.17843e-08
1.50894e-07
5.17855e-08
5.87363e-07
5.17844e-08
5.17855e-08
7.76727e-07
5.29751e-08
7.67054e-07
5.17861e-08
7.76825e-07
5.29753e-08
5.51479e-08
7.76328e-07
1.1161e-07
7.75389e-07
5.51463e-08
7.75945e-07
1.11596e-07
1.60572e-07
7.76808e-07
7.63013e-07
7.76743e-07
1.60522e-07
7.76892e-07
7.64836e-07
7.65468e-07
7.7577e-07
7.69111e-07
7.7546e-07
7.64975e-07
7.76295e-07
7.70381e-07
7.69943e-07
7.69994e-07
7.65655e-07
7.7639e-07
7.68479e-07
7.71921e-07
7.67881e-07
7.63293e-07
7.76714e-07
1.61022e-07
7.76463e-07
7.62354e-07
7.76022e-07
1.60967e-07
1.12601e-07
7.73838e-07
5.51974e-08
7.75771e-07
1.12614e-07
7.73779e-07
5.51998e-08
5.30141e-08
7.27718e-07
5.17855e-08
7.75771e-07
5.30154e-08
7.32712e-07
5.17834e-08
5.17765e-08
1.47363e-07
5.17857e-08
6.92794e-07
5.1776e-08
1.48528e-07
5.17858e-08
5.17854e-08
5.79314e-07
5.17846e-08
1.06543e-07
3.51425e-08
6.54198e-07
3.51424e-08
5.17864e-08
7.76672e-07
5.29324e-08
6.92828e-07
3.51432e-08
7.00337e-07
3.57717e-08
5.50938e-08
7.76463e-07
1.11555e-07
7.00746e-07
3.72417e-08
7.00494e-07
7.71559e-08
1.6043e-07
7.77206e-07
7.63525e-07
6.97237e-07
1.12891e-07
6.96006e-07
6.90215e-07
7.65144e-07
7.76555e-07
7.69841e-07
7.00857e-07
6.92374e-07
6.9945e-07
6.94518e-07
7.69155e-07
7.7296e-07
7.67721e-07
6.99719e-07
6.94838e-07
7.00058e-07
6.9381e-07
7.6254e-07
7.76303e-07
1.60914e-07
6.97604e-07
6.89788e-07
6.98188e-07
1.13237e-07
1.12569e-07
7.74111e-07
5.51443e-08
7.00699e-07
7.78652e-08
7.00292e-07
3.72653e-08
5.29706e-08
7.3687e-07
5.17838e-08
7.00189e-07
3.57874e-08
6.87278e-07
3.51432e-08
5.17779e-08
1.48712e-07
5.17856e-08
6.03951e-07
3.5142e-08
1.05036e-07
3.51425e-08
6.92405e-07
8.6354e-07
4.37313e-07
9.25457e-07
7.61083e-07
8.76246e-07
7.20243e-07
5.48819e-08
3.63463e-08
1.1584e-07
1.50504e-07
1.64651e-07
3.72125e-08
5.36392e-08
1.29658e-07
1.29269e-07
1.29658e-07
1.8335e-07
1.84018e-07
1.83347e-07
1.84017e-07
8.12815e-07
9.03145e-07
9.01432e-07
9.31985e-07
9.01992e-07
9.32665e-07
9.29571e-07
3.11576e-07
9.41696e-08
6.97828e-07
7.67131e-07
1.34253e-07
7.71015e-07
2.34819e-07
1.29658e-07
1.29213e-07
1.29658e-07
1.83346e-07
1.84016e-07
1.83236e-07
1.84016e-07
9.03014e-07
9.03142e-07
9.03194e-07
9.3271e-07
9.32489e-07
9.32764e-07
9.32676e-07
7.76421e-07
6.95585e-07
7.00788e-07
7.77124e-07
7.70733e-07
7.77094e-07
6.99971e-07
1.29566e-07
3.54337e-08
1.29566e-07
5.18233e-08
1.83832e-07
5.244e-08
1.83831e-07
9.02789e-07
9.02778e-07
9.02427e-07
9.32688e-07
9.32493e-07
9.32614e-07
9.32163e-07
7.77066e-07
7.00207e-07
6.99011e-07
7.73943e-07
7.76694e-07
7.768e-07
6.99993e-07
1.29566e-07
5.3959e-08
1.29566e-07
5.44127e-08
1.83831e-07
7.8872e-08
1.83829e-07
9.02889e-07
9.02628e-07
9.02605e-07
9.32335e-07
9.32154e-07
9.32377e-07
9.3234e-07
7.71089e-07
6.97073e-07
6.88515e-07
7.7294e-07
7.7254e-07
7.7049e-07
6.87977e-07
1.29568e-07
8.83854e-08
1.2957e-07
1.02147e-07
1.83836e-07
1.27097e-07
1.83842e-07
9.0314e-07
9.03092e-07
9.0312e-07
9.32422e-07
9.32515e-07
9.32495e-07
9.32486e-07
7.77298e-07
7.00517e-07
7.00755e-07
7.76324e-07
7.76782e-07
7.77479e-07
7.00963e-07
1.2957e-07
7.05114e-08
1.29568e-07
1.2683e-07
1.83842e-07
1.02291e-07
1.83836e-07
9.02538e-07
9.02915e-07
9.03124e-07
9.3265e-07
9.32407e-07
9.32631e-07
9.32577e-07
7.74879e-07
6.93907e-07
7.00876e-07
7.75518e-07
7.75213e-07
7.75497e-07
6.94644e-07
1.29566e-07
3.67696e-08
1.29566e-07
7.79256e-08
1.8383e-07
5.44473e-08
1.83831e-07
9.02674e-07
9.0268e-07
9.02267e-07
9.32199e-07
9.31654e-07
9.31198e-07
9.29143e-07
7.75566e-07
7.003e-07
6.8803e-07
7.70149e-07
7.76286e-07
7.70172e-07
7.00574e-07
1.29566e-07
3.51745e-08
1.29566e-07
5.24707e-08
1.83831e-07
5.18232e-08
1.83831e-07
8.99414e-07
1.98304e-07
7.44342e-07
9.24736e-07
9.22762e-07
2.94152e-07
6.555e-07
7.58637e-07
6.9334e-07
6.99195e-07
7.76078e-07
7.67357e-07
7.73452e-07
6.87344e-07
1.29657e-07
1.29268e-07
1.29657e-07
1.83233e-07
1.84014e-07
1.83342e-07
1.84013e-07
5.98525e-07
6.76282e-07
6.72036e-07
5.78525e-07
2.76213e-07
4.65654e-07
7.38681e-07
6.16998e-08
6.01086e-08
2.03596e-07
5.59487e-07
9.41637e-08
3.05171e-07
4.31226e-08
1.29657e-07
1.29269e-07
1.29658e-07
1.83343e-07
1.84014e-07
1.83348e-07
1.84016e-07
7.59883e-07
8.82895e-07
8.07485e-07
9.14826e-07
7.55114e-07
8.8873e-07
5.94603e-07
5.41713e-08
5.38492e-08
1.81173e-07
1.50933e-07
5.40028e-08
1.7792e-07
5.38669e-08
1.84013e-07
1.83343e-07
1.84012e-07
1.83346e-07
1.84013e-07
1.83343e-07
1.84012e-07
9.04928e-07
9.32445e-07
9.28795e-07
9.3143e-07
8.67437e-07
9.32363e-07
9.281e-07
3.09652e-07
1.35831e-07
7.71354e-07
7.68843e-07
3.09746e-07
1.36093e-07
7.71716e-07
1.8401e-07
1.83232e-07
1.84011e-07
1.83342e-07
1.84011e-07
1.83232e-07
1.84011e-07
9.32014e-07
9.32578e-07
9.32525e-07
9.32365e-07
9.31827e-07
9.32544e-07
9.32544e-07
7.74551e-07
7.67428e-07
7.7574e-07
7.74737e-07
7.7502e-07
7.64797e-07
7.76084e-07
1.83826e-07
5.24857e-08
1.83826e-07
5.18236e-08
1.83827e-07
5.24857e-08
1.83826e-07
9.32407e-07
9.32526e-07
9.32192e-07
9.32345e-07
9.32394e-07
9.32485e-07
9.32097e-07
7.72485e-07
7.77029e-07
7.74096e-07
7.76872e-07
7.74056e-07
7.76984e-07
7.73064e-07
1.83825e-07
7.88483e-08
1.83824e-07
5.44737e-08
1.83825e-07
7.89167e-08
1.83824e-07
9.32177e-07
9.32266e-07
9.32154e-07
9.3178e-07
9.32359e-07
9.3233e-07
9.32135e-07
7.75283e-07
7.7648e-07
7.77262e-07
7.76176e-07
7.75556e-07
7.75962e-07
7.77436e-07
1.83832e-07
1.27128e-07
1.83838e-07
1.02189e-07
1.83832e-07
1.2709e-07
1.83839e-07
9.3237e-07
9.32207e-07
9.32276e-07
9.32257e-07
9.32236e-07
9.32312e-07
9.32277e-07
7.76738e-07
7.76771e-07
7.7689e-07
7.72872e-07
7.76509e-07
7.76915e-07
7.7698e-07
1.83838e-07
1.02305e-07
1.83831e-07
1.26798e-07
1.83838e-07
1.02304e-07
1.83832e-07
9.32214e-07
9.32557e-07
9.32405e-07
9.32414e-07
9.32306e-07
9.3253e-07
9.32385e-07
7.69507e-07
7.72795e-07
7.66729e-07
7.76332e-07
7.69932e-07
7.7081e-07
7.70109e-07
1.83824e-07
5.45075e-08
1.83826e-07
7.79448e-08
1.83824e-07
5.45101e-08
1.83826e-07
9.31537e-07
9.30761e-07
9.30008e-07
9.31218e-07
9.31761e-07
9.31458e-07
9.31047e-07
7.75218e-07
7.75886e-07
7.763e-07
7.7466e-07
7.75305e-07
7.76188e-07
7.76331e-07
1.83826e-07
5.18234e-08
1.83826e-07
5.25146e-08
1.83826e-07
5.18234e-08
1.83826e-07
9.24199e-07
4.8447e-07
6.13048e-07
9.27254e-07
9.24572e-07
8.99292e-07
7.75075e-07
7.59213e-07
7.64353e-07
7.72355e-07
7.75639e-07
7.5914e-07
7.6367e-07
7.73371e-07
1.84009e-07
1.83336e-07
1.84008e-07
1.83229e-07
1.84009e-07
1.83336e-07
1.84008e-07
3.01008e-07
4.37217e-07
7.34932e-07
6.85011e-07
3.84947e-07
5.62338e-07
7.57771e-07
6.34061e-08
8.366e-08
2.78361e-07
6.30627e-07
6.20391e-08
9.18463e-08
2.36948e-07
1.84008e-07
1.83343e-07
1.84011e-07
1.83337e-07
1.84009e-07
1.83344e-07
1.84011e-07
7.6129e-07
8.99669e-07
6.05163e-07
8.94694e-07
6.9058e-07
8.85717e-07
6.67763e-07
5.49469e-08
5.38193e-08
1.62237e-07
1.5116e-07
5.55635e-08
1.71058e-07
5.3724e-08
1.84018e-07
1.83347e-07
1.84017e-07
1.2927e-07
1.29658e-07
1.29269e-07
1.29658e-07
8.6647e-07
9.32668e-07
9.27834e-07
9.02647e-07
8.75542e-07
9.02891e-07
8.99229e-07
3.12016e-07
1.36324e-07
7.71547e-07
7.65145e-07
3.12193e-07
1.3593e-07
7.72599e-07
1.84015e-07
1.83235e-07
1.84016e-07
1.29269e-07
1.29658e-07
1.29213e-07
1.29658e-07
9.31844e-07
9.32703e-07
9.32748e-07
9.03097e-07
9.02617e-07
9.03092e-07
9.03257e-07
7.75359e-07
7.71379e-07
7.76382e-07
7.76611e-07
7.75127e-07
7.7026e-07
7.76114e-07
1.83832e-07
5.24398e-08
1.83831e-07
3.51745e-08
1.29567e-07
3.54333e-08
1.29566e-07
9.32678e-07
9.32641e-07
9.32436e-07
9.0262e-07
9.03224e-07
9.03127e-07
9.03176e-07
7.74081e-07
7.76315e-07
7.74164e-07
7.76842e-07
7.7359e-07
7.77149e-07
7.74025e-07
1.8383e-07
7.87828e-08
1.83829e-07
3.6752e-08
1.29566e-07
5.39036e-08
1.29566e-07
9.32533e-07
9.32575e-07
9.32276e-07
9.03166e-07
9.03146e-07
9.03124e-07
9.02624e-07
7.76872e-07
7.74819e-07
7.77721e-07
7.7718e-07
7.76131e-07
7.75874e-07
7.77461e-07
1.83836e-07
1.27045e-07
1.83842e-07
7.03922e-08
1.29568e-07
8.83154e-08
1.29571e-07
9.32153e-07
9.32633e-07
9.32575e-07
9.03132e-07
9.0209e-07
9.03049e-07
9.03204e-07
7.77231e-07
7.76871e-07
7.76649e-07
7.73074e-07
7.7701e-07
7.76997e-07
7.76574e-07
1.83842e-07
1.0226e-07
1.83836e-07
8.81417e-08
1.29571e-07
7.04814e-08
1.29568e-07
9.32565e-07
9.32704e-07
9.3258e-07
9.03154e-07
9.03169e-07
9.03184e-07
9.03163e-07
7.74667e-07
7.74114e-07
7.70457e-07
7.76221e-07
7.73368e-07
7.74416e-07
7.71134e-07
1.8383e-07
5.44476e-08
1.83831e-07
5.32157e-08
1.29566e-07
3.67692e-08
1.29566e-07
9.3221e-07
9.32142e-07
9.31607e-07
9.03091e-07
9.03093e-07
9.02635e-07
9.01947e-07
7.76013e-07
7.76151e-07
7.76083e-07
7.76328e-07
7.76281e-07
7.76418e-07
7.76188e-07
1.83831e-07
5.18232e-08
1.83831e-07
3.5447e-08
1.29566e-07
3.51716e-08
1.29566e-07
9.24793e-07
9.21701e-07
9.10404e-07
9.01621e-07
8.9829e-07
8.91529e-07
8.94453e-07
7.61675e-07
7.64147e-07
7.73286e-07
7.75787e-07
7.59399e-07
7.64539e-07
7.73603e-07
1.84014e-07
1.83342e-07
1.84013e-07
1.29213e-07
1.29657e-07
1.29268e-07
1.29657e-07
7.77064e-07
5.22014e-07
7.61339e-07
6.51683e-07
8.7956e-07
2.85747e-07
6.89044e-07
5.9204e-08
7.82697e-08
3.92057e-07
5.99464e-07
5.87391e-08
8.0052e-08
3.78198e-07
1.84014e-07
1.83348e-07
1.84015e-07
1.29268e-07
1.29657e-07
1.29269e-07
1.29658e-07
5.16915e-08
3.50861e-08
3.51426e-08
5.17919e-08
5.17919e-08
3.5087e-08
5.1689e-08
5.94011e-08
1.85742e-07
5.3021e-08
4.97392e-07
2.90764e-07
7.99542e-08
4.15137e-08
5.16887e-08
3.51423e-08
3.50984e-08
5.17921e-08
5.17908e-08
5.17171e-08
3.5091e-08
5.46238e-08
1.50546e-07
5.38043e-08
1.77025e-07
1.70268e-07
5.42449e-08
5.37311e-08
5.16904e-08
5.17912e-08
5.16828e-08
5.17853e-08
5.17912e-08
5.16834e-08
5.16888e-08
6.058e-08
4.80497e-07
2.62558e-07
7.90169e-08
2.76302e-07
8.06813e-08
6.21649e-08
5.16897e-08
5.17914e-08
5.17832e-08
5.17064e-08
5.17896e-08
5.17158e-08
5.16895e-08
5.97565e-08
3.59334e-08
3.5148e-08
5.1793e-08
5.30669e-08
5.18033e-08
4.05757e-08
7.60445e-07
7.00103e-07
6.91773e-07
7.76484e-07
7.75716e-07
7.67469e-07
6.88727e-07
7.69237e-08
3.51568e-08
8.68494e-08
5.28057e-08
5.18225e-08
1.24713e-07
5.26459e-08
3.09448e-07
7.65087e-07
1.34494e-07
7.71157e-07
1.33634e-07
7.70069e-07
3.09432e-07
5.99071e-08
5.17921e-08
5.32431e-08
5.17968e-08
5.31974e-08
5.18026e-08
6.0011e-08
7.62281e-07
7.76263e-07
7.74995e-07
7.68327e-07
7.7545e-07
7.67617e-07
7.62193e-07
7.69668e-08
5.28808e-08
5.1816e-08
1.24878e-07
5.18218e-08
1.24768e-07
7.70348e-08
4.17742e-07
1.25766e-07
4.34918e-08
5.49385e-08
1.7731e-07
6.40223e-08
3.29201e-07
7.75665e-07
7.0096e-07
7.01008e-07
7.77601e-07
7.77545e-07