/*--------------------------------*- C++ -*----------------------------------*\
| =========                 |                                                 |
| \\      /  F ield         | OpenFOAM: The Open Source CFD Toolbox           |
|  \\    /   O peration     | Version:  5.0                                   |
|   \\  /    A nd           | Web:      www.OpenFOAM.org                      |
|    \\/     M anipulation  |                                                 |
\*---------------------------------------------------------------------------*/
FoamFile
{
    version     2.0;
    format      ascii;
    class       volVectorField;
    location    "0.5";
    object      U;
}
// * * * * * * * * * * * * * * * * * * * * * * * * * * * * * * * * * * * * * //

dimensions      [0 1 -1 0 0 0 0];

internalField   nonuniform List<vector> 
4720
(
(0.000955096 -0.000203483 -1.34042e-06)
(-0.000481307 -0.000442409 1.31927e-05)
(0.00354365 -0.00040573 -0.000149493)
(0.00089873 -0.00400014 0.000240182)
(0.00624024 0.00821077 0.000305332)
(0.000411305 3.06297e-05 -6.04173e-05)
(0.000221789 -4.74445e-06 -1.80486e-06)
(0.000721678 2.57862e-05 -2.37165e-06)
(0.000779422 2.06733e-05 1.01875e-07)
(0.000810298 1.28856e-05 1.30719e-07)
(0.000824365 8.37059e-06 1.08968e-07)
(0.00083219 5.20788e-06 7.85905e-08)
(0.000836448 3.38238e-06 1.80581e-09)
(0.000837807 2.5211e-06 6.726e-08)
(0.000837521 1.57412e-06 5.31852e-08)
(0.000837296 1.04733e-06 5.17474e-08)
(0.000836615 5.15815e-07 5.52307e-08)
(0.000835567 3.12589e-07 5.79639e-08)
(0.000833703 -2.65997e-07 2.84365e-08)
(0.000831976 -7.55053e-08 7.09002e-08)
(0.000830777 4.6337e-08 4.31874e-08)
(0.000829156 2.06025e-07 5.09603e-08)
(0.000827793 2.03633e-07 1.4505e-08)
(0.000826388 1.46865e-07 4.91143e-08)
(0.000824855 2.54372e-07 2.81037e-08)
(0.000823204 3.99851e-07 6.58021e-09)
(0.000821611 2.77464e-07 6.23965e-08)
(0.000820365 2.64872e-07 5.14457e-08)
(0.000818482 4.98589e-07 1.25132e-07)
(0.000816731 4.90215e-08 3.191e-08)
(0.000815143 -3.50166e-07 3.28614e-08)
(0.000813433 -4.36918e-07 9.04504e-08)
(0.000812321 -4.03169e-07 9.37142e-08)
(0.000811112 -4.2397e-09 5.92963e-08)
(0.000809605 1.76193e-07 4.42794e-08)
(0.000807788 3.36581e-07 4.13679e-08)
(0.000805914 1.20396e-07 2.8371e-08)
(0.000804205 2.91603e-07 3.47904e-08)
(0.000803244 5.39842e-07 7.43294e-08)
(0.000802125 2.01885e-07 5.52821e-08)
(0.00080033 6.50546e-08 2.96745e-08)
(0.000798887 1.57267e-07 7.71295e-08)
(0.00079781 -1.7871e-07 5.50859e-09)
(0.000795945 -4.12892e-07 8.052e-09)
(0.000794096 -1.91733e-07 4.6519e-08)
(0.000792879 -1.71381e-08 3.47174e-08)
(0.000791582 -1.60943e-07 4.88687e-08)
(0.000790343 -1.24328e-07 4.34305e-08)
(0.000788613 -2.05265e-07 3.45176e-08)
(0.000786923 -3.34827e-07 -2.96518e-09)
(0.000733918 3.27928e-05 -3.71594e-06)
(0.00101845 -0.000218594 3.30095e-06)
(0.00133589 0.00112433 8.48039e-06)
(0.00106803 -0.00101686 -7.67012e-05)
(0.000459426 -0.00095415 4.05824e-05)
(0.00214844 0.00038348 5.99563e-05)
(0.000373801 -3.89858e-05 -2.62467e-06)
(0.000776834 -4.65978e-05 -2.48425e-06)
(0.000795045 -2.46369e-05 -1.32646e-07)
(0.000816375 -1.23998e-05 7.0487e-08)
(0.000826465 -6.54686e-06 4.17791e-08)
(0.000832912 -3.40414e-06 5.61885e-08)
(0.000836131 -1.83249e-06 5.12374e-08)
(0.000837436 -1.30393e-06 5.02939e-08)
(0.000837746 -7.07224e-07 4.90141e-08)
(0.000837049 -4.37665e-07 2.79436e-08)
(0.000835922 -2.098e-07 4.61105e-08)
(0.000834642 -1.82482e-07 8.07086e-08)
(0.000833818 -2.27167e-07 1.26868e-07)
(0.000832829 -5.62486e-08 3.01485e-08)
(0.000831048 3.62764e-08 1.1294e-07)
(0.000829519 1.35445e-07 6.82068e-08)
(0.000827823 4.37687e-07 1.63947e-07)
(0.000826387 3.71575e-07 5.76006e-08)
(0.000824968 4.26205e-07 6.73237e-08)
(0.000823138 1.46885e-07 7.37541e-08)
(0.000821508 1.34735e-07 3.77703e-08)
(0.000820193 -6.59363e-08 4.90647e-08)
(0.000818322 -4.34351e-07 5.24994e-08)
(0.000816331 -2.18052e-07 8.09467e-08)
(0.000815049 -1.36685e-07 -1.50466e-07)
(0.000813528 1.31506e-07 -2.48108e-08)
(0.000812471 7.97305e-07 9.78784e-08)
(0.000811443 3.4752e-07 2.156e-07)
(0.000809611 1.20161e-08 4.67039e-08)
(0.000807774 -1.56388e-07 3.31605e-08)
(0.00080627 5.76461e-08 7.19807e-08)
(0.000805073 2.88186e-07 9.30439e-09)
(0.000803149 5.79932e-07 9.60038e-08)
(0.000801302 2.86661e-07 1.47223e-07)
(0.000800039 1.27045e-07 6.244e-08)
(0.000798573 2.71994e-08 7.09417e-08)
(0.000796879 -1.97466e-07 2.61427e-08)
(0.000795898 -6.85037e-07 1.07038e-07)
(0.000794824 -1.1855e-07 5.61384e-08)
(0.000792948 9.92811e-09 7.80591e-08)
(0.000791572 2.52251e-07 5.11489e-08)
(0.000790317 3.18503e-08 5.18898e-08)
(0.000788617 -1.54137e-07 -5.21693e-08)
(0.000787354 -1.55543e-07 1.15502e-07)
(0.000646593 -0.000188342 -3.49133e-06)
(0.000888616 -0.00025574 1.66861e-06)
(0.000869133 -0.000205975 -6.12391e-07)
(0.000967493 -0.000614063 6.40274e-06)
(0.000288633 -0.000396131 -7.02006e-06)
(8.45478e-05 -6.26829e-05 1.40087e-06)
(0.000256158 -3.72872e-05 1.93546e-06)
(0.000838255 -7.26115e-05 -2.30938e-06)
(0.000822373 -4.61652e-05 -5.34719e-08)
(0.000833011 -2.66157e-05 1.08536e-07)
(0.000835663 -1.601e-05 4.67081e-08)
(0.000838111 -9.62126e-06 5.35579e-08)
(0.000839089 -5.98021e-06 5.01316e-08)
(0.000839223 -3.73112e-06 5.28681e-08)
(0.00083861 -2.32815e-06 5.4622e-08)
(0.000837922 -1.59536e-06 5.92571e-08)
(0.000836937 -9.598e-07 4.98735e-08)
(0.000835547 -4.75755e-07 7.31451e-08)
(0.000833863 -1.11011e-07 1.13498e-07)
(0.000832306 -1.73023e-07 4.48016e-08)
(0.000831016 -1.14093e-07 5.49687e-09)
(0.000829655 -8.38565e-08 4.89103e-08)
(0.000828085 -8.97399e-08 3.46803e-08)
(0.000826369 -5.12798e-08 6.71042e-08)
(0.00082457 -3.28497e-07 3.87938e-08)
(0.000822837 -2.52346e-07 2.26936e-08)
(0.000821344 -1.33427e-07 5.73309e-08)
(0.000819656 -9.34086e-08 5.6557e-08)
(0.000818294 -2.17593e-07 1.66851e-08)
(0.000817106 3.1617e-07 2.98177e-08)
(0.000815582 4.55408e-07 2.64033e-07)
(0.000814599 5.48266e-07 6.52152e-08)
(0.000812587 6.52373e-07 1.13549e-08)
(0.000810126 2.29732e-07 5.45615e-08)
(0.000808972 -1.13097e-08 9.62884e-08)
(0.000807845 -1.15748e-07 5.85838e-08)
(0.000806469 -2.73358e-09 8.47184e-08)
(0.000804855 -6.10593e-08 5.59867e-08)
(0.000803238 -1.68043e-07 2.78627e-08)
(0.000801555 -1.83952e-08 2.23291e-08)
(0.000800004 1.14194e-07 6.76288e-08)
(0.000798482 1.77579e-07 -1.19428e-08)
(0.000796923 3.7651e-07 6.2356e-08)
(0.000796048 6.3186e-07 1.48834e-07)
(0.000794969 3.84467e-07 8.88896e-08)
(0.000793343 3.29811e-07 5.24784e-08)
(0.00079161 5.02902e-07 9.78537e-08)
(0.000789835 4.30754e-07 7.84579e-08)
(0.000788384 1.10864e-07 6.06422e-08)
(0.000787306 -3.89449e-09 1.37474e-07)
(0.000656869 -0.000129573 -4.10031e-06)
(0.000997377 -0.00015325 2.17922e-06)
(0.000857688 -9.72556e-05 -2.07632e-07)
(0.000894004 -0.00027442 4.16231e-06)
(0.000550763 -0.000141521 6.78377e-06)
(0.000226053 8.83081e-06 2.25935e-05)
(0.000499562 -0.00012668 3.80845e-05)
(0.000923194 -6.03899e-05 -1.98885e-06)
(0.000853016 -3.91092e-05 -4.7998e-07)
(0.000854288 -2.64811e-05 8.70624e-08)
(0.000847836 -1.73168e-05 2.43479e-08)
(0.000845526 -1.12469e-05 3.62958e-08)
(0.00084354 -7.32993e-06 4.95723e-08)
(0.000842029 -4.56387e-06 5.19598e-08)
(0.000840434 -2.69858e-06 5.07997e-08)
(0.000838772 -1.55854e-06 5.31436e-08)
(0.00083733 -1.18201e-06 9.02798e-08)
(0.000835709 -8.7838e-07 4.38497e-08)
(0.0008342 -7.68286e-07 4.32177e-08)
(0.000832828 -6.4755e-07 3.79472e-08)
(0.000831162 -3.21461e-07 6.33274e-08)
(0.000829551 -3.31228e-07 5.23957e-08)
(0.000827865 -3.7699e-07 -1.19464e-08)
(0.00082609 -2.90982e-07 -1.51914e-07)
(0.000824718 -3.05281e-07 1.00778e-07)
(0.000823384 -5.68479e-08 4.98257e-08)
(0.000821708 1.10535e-07 6.33364e-08)
(0.000820089 3.2389e-07 6.10305e-08)
(0.000818833 6.21936e-07 2.63977e-08)
(0.00081717 4.142e-07 4.09991e-08)
(0.000815334 2.09434e-07 1.06509e-07)
(0.000813768 2.54592e-07 -7.88499e-09)
(0.000812068 -4.12852e-07 6.4303e-08)
(0.000810611 -9.64837e-08 4.81467e-08)
(0.000809179 1.18592e-07 6.97735e-08)
(0.000807785 1.29392e-07 2.12452e-07)
(0.000806338 4.73231e-08 7.14779e-08)
(0.000804866 -1.26421e-07 5.53878e-08)
(0.000803203 -2.71905e-07 1.81714e-08)
(0.000801655 -2.76608e-07 3.63422e-08)
(0.000800284 -5.76446e-08 5.67996e-08)
(0.000798898 5.86088e-08 6.58106e-08)
(0.000797443 2.64925e-07 5.55515e-08)
(0.000795903 6.35869e-07 -1.08318e-07)
(0.000794442 1.81868e-07 5.6424e-08)
(0.000793092 8.20229e-08 4.47079e-08)
(0.000791695 6.7898e-08 7.83907e-08)
(0.000789824 2.92471e-07 4.67847e-08)
(0.000788071 2.23787e-07 5.03747e-08)
(0.00078722 2.80783e-07 1.84525e-07)
(0.000626853 -0.000146808 -3.66812e-06)
(0.00092618 -0.000176072 1.30812e-06)
(0.00073901 -0.000216228 5.01271e-07)
(0.000727551 -0.000322073 7.23316e-06)
(0.000238873 -0.000210105 -1.2517e-06)
(-8.47463e-05 -2.49969e-05 1.9911e-06)
(0.000628003 -7.79828e-05 3.15017e-05)
(0.000872112 -4.09989e-05 -2.7015e-06)
(0.000864845 -2.67863e-05 2.99083e-08)
(0.000860443 -2.05074e-05 9.91325e-08)
(0.000854833 -1.39153e-05 7.13416e-08)
(0.000850678 -9.39667e-06 4.52126e-08)
(0.000847495 -5.96306e-06 8.95455e-08)
(0.000845046 -4.01212e-06 5.56324e-08)
(0.000842387 -2.75055e-06 4.77415e-08)
(0.00083983 -1.80086e-06 3.03961e-08)
(0.000837795 -9.92695e-07 4.77617e-08)
(0.00083607 -6.92603e-07 5.0077e-08)
(0.000834156 -2.50127e-07 4.90729e-08)
(0.000832869 6.35098e-08 1.30467e-07)
(0.000831415 -7.77091e-08 6.80999e-08)
(0.00082959 1.113e-07 2.34755e-08)
(0.000828139 3.06072e-08 8.5855e-08)
(0.000826463 1.07439e-07 1.01104e-07)
(0.000824865 2.39005e-07 1.47318e-07)
(0.000823358 1.00826e-07 6.88012e-08)
(0.000821819 1.61948e-07 6.96956e-08)
(0.00082029 2.0858e-07 2.26215e-08)
(0.000818402 3.02601e-07 2.94315e-08)
(0.000816584 1.34013e-07 1.53689e-08)
(0.000815377 -2.91138e-08 5.88364e-08)
(0.000813819 -3.27769e-07 9.30393e-09)
(0.000812147 -4.35138e-08 4.21197e-07)
(0.00081079 2.14028e-08 5.48726e-08)
(0.000809254 6.45979e-08 4.45015e-08)
(0.000807755 -2.57268e-08 4.98051e-08)
(0.000806149 -1.42689e-07 -8.78714e-08)
(0.000804458 -1.42129e-07 7.36568e-08)
(0.000803053 -1.85611e-07 4.83803e-08)
(0.000801825 -1.22585e-07 9.26702e-08)
(0.000800424 -3.66456e-08 5.17841e-08)
(0.000798883 1.061e-08 3.81169e-07)
(0.000797641 -1.92573e-08 1.34738e-08)
(0.00079594 1.93796e-08 4.2533e-08)
(0.000794274 -1.16934e-07 7.48791e-08)
(0.0007932 -2.3175e-07 5.17091e-08)
(0.000791872 -5.31303e-07 1.46879e-08)
(0.000790029 -7.65971e-07 4.12261e-08)
(0.000788363 -2.01616e-07 5.33835e-08)
(0.000786679 1.57534e-07 2.71873e-08)
(0.000626946 -9.07576e-05 -3.02971e-06)
(0.000909872 -0.000122117 1.41553e-06)
(0.000707381 -0.000175856 -1.69421e-06)
(0.000844741 -0.000227001 2.82117e-06)
(0.000216144 -0.000262626 1.59942e-05)
(0.000616988 -5.09579e-05 -6.37211e-06)
(0.000992382 -2.42283e-05 1.1583e-05)
(0.000887235 -3.66274e-05 -2.79586e-06)
(0.00087901 -2.63039e-05 6.03411e-09)
(0.000870505 -1.48041e-05 9.32557e-08)
(0.000861821 -8.94845e-06 6.65356e-08)
(0.000855531 -5.31538e-06 1.51687e-07)
(0.000850315 -3.05727e-06 6.69257e-08)
(0.000846074 -1.96543e-06 5.29534e-08)
(0.000843218 -1.37691e-06 7.71712e-08)
(0.000840982 -1.02058e-06 7.83376e-08)
(0.000838723 -5.70003e-07 5.1524e-08)
(0.000836641 -2.45514e-07 6.92068e-08)
(0.000835147 -1.37287e-07 3.12013e-08)
(0.000833044 3.25569e-07 8.07683e-08)
(0.000831221 1.98384e-07 -3.66042e-08)
(0.000829687 2.44708e-07 4.0385e-08)
(0.00082786 1.91794e-07 1.8129e-07)
(0.00082635 1.20727e-07 -2.20883e-08)
(0.00082471 1.42957e-07 5.20208e-08)
(0.000823286 5.71472e-08 4.13832e-08)
(0.000821842 -9.67499e-08 4.12494e-08)
(0.000820263 -2.38471e-07 5.16015e-09)
(0.000818737 -2.31342e-07 3.52491e-08)
(0.000816753 -4.14977e-07 -1.05117e-07)
(0.000814757 -2.9136e-07 2.71181e-08)
(0.00081375 -2.082e-07 1.1732e-08)
(0.000812506 -1.39711e-07 1.97294e-08)
(0.000810746 -7.26051e-08 -3.56229e-07)
(0.00080912 -1.54588e-07 4.20021e-08)
(0.000807526 -3.63508e-08 5.01487e-08)
(0.000806194 -7.43577e-08 7.17849e-08)
(0.000804815 7.19366e-08 5.69343e-08)
(0.000803229 1.63765e-07 5.96306e-08)
(0.000801842 8.86928e-08 5.58451e-08)
(0.00080045 1.47981e-07 7.58732e-08)
(0.00079892 3.18479e-07 2.60104e-07)
(0.000797454 1.71349e-07 3.65746e-08)
(0.000795782 -3.08574e-08 1.13184e-09)
(0.00079413 -3.01331e-08 3.83851e-08)
(0.000792578 -1.60828e-07 4.76552e-08)
(0.000791031 -5.03983e-07 -4.92996e-08)
(0.000790241 -6.78875e-07 5.99842e-08)
(0.000789225 -5.53048e-07 9.55415e-08)
(0.000787276 -3.97493e-07 1.24277e-07)
(0.000586384 6.02786e-06 -3.21233e-06)
(0.000805121 -1.71738e-05 1.07619e-06)
(0.00059891 -0.000132464 1.36626e-07)
(0.000686734 -0.000341648 1.04001e-05)
(0.000328244 -0.00036199 -6.17787e-08)
(0.000369091 -0.000259067 -4.16896e-06)
(0.000424171 2.6976e-05 4.73643e-05)
(0.000975013 -8.56387e-06 -1.96526e-06)
(0.00089239 -4.14219e-06 -4.56618e-07)
(0.000882255 -5.28533e-09 1.18356e-07)
(0.00086676 8.38585e-07 3.41112e-08)
(0.000858081 1.04824e-06 4.81419e-08)
(0.000851706 7.34211e-07 5.01903e-08)
(0.00084716 6.55854e-07 4.55997e-08)
(0.000843578 5.10104e-07 4.55103e-08)
(0.000840845 4.35672e-07 5.43679e-08)
(0.000838768 2.38561e-07 5.28715e-08)
(0.000836613 2.11505e-07 5.29016e-08)
(0.00083487 1.81574e-07 4.79801e-08)
(0.000833287 -2.24956e-07 6.34422e-08)
(0.000831311 1.7978e-08 4.25734e-08)
(0.000829579 -8.9091e-08 4.73976e-08)
(0.000827982 5.89614e-08 4.42727e-08)
(0.0008264 6.4095e-08 4.5957e-08)
(0.000824785 3.14734e-07 6.1306e-10)
(0.000823058 8.47755e-08 5.96719e-08)
(0.00082145 -1.27402e-07 6.69908e-08)
(0.000820124 -2.36763e-07 8.04877e-08)
(0.000818184 -7.37039e-07 -2.32423e-08)
(0.000816513 -8.10413e-07 1.06985e-07)
(0.000815639 -4.66969e-07 1.75974e-08)
(0.000814012 -5.68723e-08 7.16671e-08)
(0.000812319 -1.77984e-07 5.34805e-08)
(0.000810774 -1.74912e-07 4.95944e-08)
(0.000809301 -1.5711e-07 1.60742e-07)
(0.000807857 3.5403e-09 5.41819e-08)
(0.000806285 1.17536e-07 5.19647e-08)
(0.000804755 5.99255e-08 5.45577e-08)
(0.000803073 9.25286e-08 4.5494e-08)
(0.000801804 3.1186e-07 7.71428e-08)
(0.00080071 6.71743e-08 4.54709e-08)
(0.000798911 -1.08527e-07 -3.21518e-08)
(0.000797204 -1.23782e-07 4.25007e-08)
(0.000795688 -2.62287e-07 4.84427e-08)
(0.000794112 -1.01407e-07 3.82619e-08)
(0.00079261 -1.64605e-08 5.11574e-08)
(0.000791229 -1.35892e-08 -5.5748e-08)
(0.000789973 7.46117e-08 3.0904e-08)
(0.000788725 -3.21666e-07 1.69589e-07)
(0.000787865 -3.29439e-07 6.26514e-08)
(0.000601863 8.13095e-05 -3.90399e-06)
(0.000726847 0.000104966 2.87383e-06)
(0.000286994 -0.000424064 6.82919e-07)
(0.000404003 -0.000555415 -3.40589e-05)
(-7.87498e-05 -0.000531533 2.83158e-06)
(0.000190374 -0.000283931 -1.38695e-05)
(0.000473774 2.30556e-05 2.67733e-05)
(0.000947333 3.48137e-05 -2.37406e-06)
(0.000890022 2.75743e-05 -1.21156e-07)
(0.000876736 1.86913e-05 1.11514e-07)
(0.000863131 1.23457e-05 4.18405e-08)
(0.000855393 7.95437e-06 5.24602e-08)
(0.000849818 5.00619e-06 4.95841e-08)
(0.000845789 3.09235e-06 4.99923e-08)
(0.000842939 1.89915e-06 8.10247e-08)
(0.000840639 1.26229e-06 5.24332e-08)
(0.000838441 7.87821e-07 1.17298e-07)
(0.000836568 4.52e-07 9.22304e-08)
(0.000834601 4.33385e-07 -1.77797e-07)
(0.000832839 1.28647e-07 3.24646e-08)
(0.000831392 -3.76143e-08 5.13664e-08)
(0.000829737 -5.47756e-08 6.44069e-08)
(0.000828051 -2.13593e-07 4.14241e-08)
(0.000826668 -2.18005e-07 4.91601e-08)
(0.000824734 -5.98903e-07 1.38895e-07)
(0.000822733 -3.39591e-07 5.26262e-08)
(0.00082144 -1.63164e-07 1.13061e-08)
(0.000819504 -2.62494e-07 1.55064e-07)
(0.000818026 -3.63257e-07 1.35863e-07)
(0.000817097 2.65814e-07 4.19381e-08)
(0.000815704 4.22358e-07 9.83816e-08)
(0.000814115 1.19919e-07 2.22693e-07)
(0.00081236 2.0936e-07 5.43472e-08)
(0.000810773 1.41365e-07 5.76321e-08)
(0.000809344 1.16683e-07 7.37209e-08)
(0.00080787 -9.56827e-08 6.32148e-08)
(0.000806264 -2.14287e-07 6.03973e-08)
(0.000804783 -1.53764e-07 5.39817e-08)
(0.000803543 2.64628e-08 4.39586e-08)
(0.00080181 1.59861e-07 1.61062e-08)
(0.000799924 -5.57932e-09 2.52998e-08)
(0.000798682 -2.95151e-08 7.39833e-08)
(0.000797264 -2.81963e-08 -6.6099e-08)
(0.000795812 -1.25876e-07 4.7292e-08)
(0.000794439 -4.84492e-08 6.10863e-08)
(0.000792689 8.38248e-08 4.70257e-08)
(0.000791146 4.30605e-07 4.09483e-08)
(0.000789857 3.02226e-07 5.5584e-08)
(0.000788729 2.53002e-07 6.10872e-08)
(0.000788089 -7.42026e-08 1.24632e-08)
(0.00063769 0.0005398 -3.15661e-06)
(0.00018333 0.000873875 -1.55495e-05)
(0.00161933 0.000973917 -3.468e-05)
(-0.00197541 0.000417347 3.75385e-05)
(0.00103905 0.00790542 9.54246e-05)
(3.03318e-05 -0.00169905 -1.16891e-05)
(0.000628541 5.23541e-05 1.1825e-07)
(0.000939089 9.64138e-05 -2.74667e-06)
(0.000872007 5.64204e-05 -2.64158e-07)
(0.000863078 3.42426e-05 6.62155e-08)
(0.000853246 2.07161e-05 6.58355e-08)
(0.000848847 1.27618e-05 4.76746e-08)
(0.000845591 7.82668e-06 5.0301e-08)
(0.000843253 4.56628e-06 5.45664e-08)
(0.000841275 2.99447e-06 4.58177e-08)
(0.000839447 1.91322e-06 1.12148e-07)
(0.000837748 1.19812e-06 9.70784e-08)
(0.000836166 6.44263e-07 4.32028e-08)
(0.000834463 4.45562e-07 4.81818e-08)
(0.000832697 4.09975e-07 6.78236e-08)
(0.000831082 1.27487e-07 5.29451e-08)
(0.000829361 -1.44378e-07 7.18161e-08)
(0.00082778 -2.03462e-07 9.73884e-10)
(0.000825922 -2.67119e-07 5.64798e-08)
(0.000824637 -4.79614e-07 -3.26929e-08)
(0.000823606 -3.33107e-07 6.55533e-08)
(0.000821549 -1.78583e-07 2.49521e-08)
(0.000819876 -1.43281e-07 4.08431e-08)
(0.000818845 1.53442e-07 9.9692e-08)
(0.000817494 3.11209e-07 -1.25326e-08)
(0.000815455 3.90841e-07 -8.41691e-10)
(0.000813743 2.73293e-07 1.35953e-07)
(0.000812345 -2.7706e-08 -3.76609e-07)
(0.000810657 -7.19829e-08 7.20664e-08)
(0.000809005 -7.23712e-08 1.68623e-07)
(0.000807443 -1.98646e-07 4.52498e-08)
(0.000806214 -9.25098e-08 9.08056e-08)
(0.000805057 -1.48339e-07 4.87779e-08)
(0.000803465 -2.78717e-07 1.05621e-07)
(0.000801764 -3.72765e-07 4.00576e-08)
(0.000800473 -2.09778e-07 5.73056e-08)
(0.000798884 -2.36929e-07 2.02081e-09)
(0.000797085 -5.47599e-08 4.11896e-08)
(0.000795664 2.3939e-08 4.50046e-08)
(0.000794375 2.56068e-08 6.19899e-08)
(0.000793207 -6.44632e-08 4.64268e-08)
(0.000791499 2.02934e-07 2.03436e-08)
(0.000789748 3.84933e-07 4.77075e-08)
(0.000788254 6.17683e-07 -5.52213e-08)
(0.000787638 5.10627e-07 9.56902e-08)
(0.00102994 0.000113511 -2.30835e-06)
(0.00130054 0.000371827 -2.5403e-05)
(0.00305981 -0.000469708 0.000384625)
(-0.00810362 0.00207284 0.00041043)
(-0.0133014 0.0121766 0.000495308)
(0.0652207 -0.00135081 0.000530996)
(0.000543756 0.000235524 -3.18322e-07)
(0.000825328 0.000108797 -1.64085e-06)
(0.000811804 6.24748e-05 -2.43331e-07)
(0.000831862 3.49935e-05 1.49126e-07)
(0.000836127 2.04663e-05 8.67022e-08)
(0.000839188 1.2012e-05 7.55882e-08)
(0.000839515 7.21348e-06 6.21673e-08)
(0.000839713 4.74087e-06 8.56191e-08)
(0.0008396 2.88357e-06 5.54724e-08)
(0.000838379 1.75449e-06 6.78116e-08)
(0.000836845 1.17399e-06 5.0171e-08)
(0.000835622 8.54376e-07 9.94891e-08)
(0.000834304 6.99354e-07 6.57795e-08)
(0.000832439 2.49582e-07 2.90685e-08)
(0.000830698 1.24415e-07 3.79839e-08)
(0.000829325 5.85018e-09 6.21129e-08)
(0.0008279 -3.88976e-08 5.98345e-08)
(0.000826327 1.66849e-08 5.07215e-08)
(0.000824656 3.35023e-07 4.35279e-08)
(0.000823113 1.92406e-07 5.57652e-08)
(0.00082168 1.46435e-08 2.76655e-08)
(0.00081992 2.43011e-07 5.09504e-08)
(0.000818593 4.07015e-07 5.26299e-08)
(0.000817392 -4.6985e-08 4.89115e-08)
(0.000815654 -2.03747e-07 5.66893e-08)
(0.00081359 -2.97817e-07 3.80802e-08)
(0.000811929 -4.54101e-07 1.94974e-08)
(0.000810719 -3.19796e-07 2.3091e-08)
(0.000809187 -9.27031e-08 4.04801e-08)
(0.000807847 1.5903e-07 9.23221e-08)
(0.000806329 1.83676e-07 3.72234e-08)
(0.000804552 -7.99374e-08 5.255e-08)
(0.000803265 -4.98255e-07 5.33055e-08)
(0.000801899 -2.58606e-07 5.93529e-08)
(0.000800097 -2.11802e-07 5.69298e-08)
(0.000798877 -3.74772e-07 8.94489e-08)
(0.00079759 -2.10612e-07 7.30326e-08)
(0.000795911 2.05902e-07 3.01218e-08)
(0.000794327 1.52641e-08 3.75833e-08)
(0.000792908 -1.49476e-08 5.94452e-08)
(0.000791704 -2.4677e-07 8.88191e-08)
(0.00079037 5.23278e-08 5.50172e-08)
(0.000788871 2.30395e-07 -6.26815e-08)
(0.000786682 3.46455e-07 6.46151e-08)
(0.00141158 -0.000232725 -1.61926e-06)
(0.000116536 -0.000644146 -1.57788e-05)
(0.00407993 -0.000520567 -6.11061e-05)
(-0.00135462 -0.00926239 -0.000271571)
(-0.000485675 0.0049208 -0.00130635)
(-0.000963859 0.00158704 -0.000157863)
(0.000761156 -2.43759e-05 -8.19822e-07)
(0.00122458 3.8739e-05 3.03507e-07)
(0.00130857 3.13696e-05 3.24553e-07)
(0.00135605 1.93872e-05 3.50369e-07)
(0.00137702 1.25651e-05 3.68459e-07)
(0.00138874 7.76708e-06 3.37128e-07)
(0.00139504 5.02536e-06 2.71488e-07)
(0.00139689 3.75178e-06 3.84913e-07)
(0.00139622 2.34681e-06 3.57848e-07)
(0.00139563 1.5828e-06 3.01653e-07)
(0.00139433 7.75508e-07 3.50845e-07)
(0.00139249 5.07947e-07 2.43052e-07)
(0.00138943 -3.36495e-07 3.50366e-07)
(0.00138659 -1.04547e-07 3.23678e-07)
(0.00138455 1.10944e-07 3.48159e-07)
(0.0013818 3.98156e-07 3.73204e-07)
(0.00137947 3.83343e-07 2.67607e-07)
(0.00137716 2.87969e-07 3.03109e-07)
(0.00137457 5.37306e-07 2.59834e-07)
(0.00137182 7.87502e-07 2.65319e-07)
(0.00136925 5.21599e-07 2.98425e-07)
(0.00136718 4.32758e-07 3.45643e-07)
(0.00136401 7.9945e-07 3.83773e-07)
(0.00136105 -1.21077e-09 3.45637e-07)
(0.00135845 -6.57271e-07 2.55257e-07)
(0.00135552 -7.15391e-07 3.3841e-07)
(0.00135361 -6.18258e-07 3.50463e-07)
(0.00135176 4.94696e-08 3.00934e-07)
(0.00134933 3.54876e-07 3.29284e-07)
(0.00134626 6.06617e-07 3.23213e-07)
(0.00134308 2.68843e-07 3.19974e-07)
(0.00134019 5.13712e-07 2.97334e-07)
(0.00133853 9.37284e-07 3.01467e-07)
(0.00133669 4.22469e-07 3.21775e-07)
(0.00133379 1.2485e-07 2.96913e-07)
(0.00133131 2.24748e-07 3.61177e-07)
(0.00132955 -3.53178e-07 2.75748e-07)
(0.00132649 -6.49503e-07 3.30632e-07)
(0.00132343 -3.50706e-07 3.49596e-07)
(0.00132136 -1.09853e-07 3.09936e-07)
(0.00131911 -2.84544e-07 2.94666e-07)
(0.00131705 -2.876e-07 3.23179e-07)
(0.00131414 -4.10815e-07 3.09617e-07)
(0.00131127 -5.48024e-07 1.92688e-07)
(0.00117243 1.75229e-05 -5.10127e-07)
(0.00166734 -0.000253887 1.19922e-06)
(0.0018806 0.00117029 1.14719e-05)
(0.001521 -0.00142526 -0.000173189)
(-0.00155543 -0.000958735 6.07981e-05)
(0.00315358 -0.000300931 0.000171443)
(0.00115679 -0.000103202 -1.33528e-06)
(0.00130785 -7.18857e-05 3.39112e-07)
(0.00133247 -3.81881e-05 3.31763e-07)
(0.0013654 -1.93503e-05 3.45375e-07)
(0.00138037 -1.02689e-05 3.44508e-07)
(0.00138996 -5.35046e-06 3.47361e-07)
(0.0013946 -2.89135e-06 3.50054e-07)
(0.00139634 -2.05497e-06 3.48142e-07)
(0.00139659 -1.13489e-06 3.48147e-07)
(0.00139528 -7.31667e-07 2.8483e-07)
(0.00139336 -3.6359e-07 3.48191e-07)
(0.00139121 -3.44001e-07 4.1513e-07)
(0.00138959 -3.63762e-07 4.21237e-07)
(0.00138779 -9.14372e-08 3.18953e-07)
(0.00138493 8.8943e-08 4.37392e-07)
(0.00138235 2.25786e-07 3.52648e-07)
(0.00137952 7.7297e-07 6.80154e-07)
(0.00137721 6.78156e-07 6.03389e-07)
(0.00137486 7.41464e-07 3.31006e-07)
(0.00137172 3.12023e-07 4.44973e-07)
(0.00136895 2.57556e-07 3.19028e-07)
(0.0013668 -1.25313e-07 3.41341e-07)
(0.00136368 -8.34138e-07 3.45199e-07)
(0.00136035 -4.27021e-07 3.47672e-07)
(0.00135832 -2.70861e-07 2.14524e-09)
(0.00135589 1.53826e-07 2.25955e-07)
(0.00135402 1.35515e-06 3.5642e-07)
(0.00135222 7.77879e-07 5.28295e-07)
(0.00134922 1.20111e-07 3.47972e-07)
(0.00134617 -1.94575e-07 3.29268e-07)
(0.00134364 1.19113e-07 3.62467e-07)
(0.00134163 4.95389e-07 9.7542e-08)
(0.00133847 9.85312e-07 4.43855e-07)
(0.00133537 5.58866e-07 4.61423e-07)
(0.0013332 2.14641e-07 3.48356e-07)
(0.00133075 2.47196e-09 3.85085e-07)
(0.00132803 -3.62304e-07 3.94696e-07)
(0.00132639 -1.10799e-06 5.31965e-07)
(0.0013245 -2.17694e-07 3.71922e-07)
(0.00132147 -7.59952e-08 3.6972e-07)
(0.00131916 3.64014e-07 2.67202e-07)
(0.00131695 2.33947e-08 3.23635e-07)
(0.00131418 -2.89413e-07 1.13695e-07)
(0.00131211 -2.86188e-07 4.21721e-07)
(0.00108124 -0.000203612 1.26643e-06)
(0.00152912 -0.000280196 6.09308e-07)
(0.00140489 -0.000224062 -1.46313e-06)
(0.00163962 -0.000674728 7.8023e-06)
(0.00126362 -0.000516773 2.59127e-05)
(0.00092688 0.000600725 8.92027e-06)
(0.00135266 -0.000179558 1.37892e-05)
(0.00140406 -0.000112314 3.62049e-07)
(0.0013745 -7.14543e-05 5.302e-07)
(0.0013911 -4.10524e-05 3.47503e-07)
(0.0013946 -2.46568e-05 3.48232e-07)
(0.001398 -1.47956e-05 3.48728e-07)
(0.00139918 -9.18921e-06 3.48855e-07)
(0.0013991 -5.7345e-06 3.49458e-07)
(0.00139789 -3.59173e-06 3.49278e-07)
(0.0013966 -2.49112e-06 3.49028e-07)
(0.00139482 -1.52697e-06 3.52013e-07)
(0.00139249 -8.3923e-07 3.17303e-07)
(0.00138975 -3.61132e-07 3.92027e-07)
(0.00138716 -3.5932e-07 3.35267e-07)
(0.00138495 -2.58648e-07 2.37721e-07)
(0.00138265 -1.65542e-07 3.44806e-07)
(0.00138003 -1.39612e-07 3.66322e-07)
(0.00137711 -6.02897e-08 3.18009e-07)
(0.0013741 -5.57956e-07 2.80319e-07)
(0.00137121 -4.19483e-07 2.90886e-07)
(0.0013687 -2.05141e-07 3.54724e-07)
(0.00136582 -1.18504e-07 3.36599e-07)
(0.00136364 -3.29323e-07 2.17914e-07)
(0.00136176 5.93126e-07 2.6831e-07)
(0.00135917 8.84899e-07 5.66065e-07)
(0.00135755 9.81334e-07 4.88613e-07)
(0.00135438 1.07894e-06 3.18363e-07)
(0.00135021 4.14518e-07 3.62415e-07)
(0.00134811 -1.58586e-08 3.78253e-07)
(0.00134626 -1.75742e-07 3.49212e-07)
(0.00134394 1.54929e-08 3.23854e-07)
(0.00134127 -7.02673e-08 3.65278e-07)
(0.0013386 -2.33863e-07 3.18924e-07)
(0.00133573 -3.27029e-08 3.28063e-07)
(0.00133309 1.82182e-07 3.6793e-07)
(0.00133059 3.01439e-07 2.95138e-07)
(0.00132817 7.1327e-07 3.22422e-07)
(0.00132667 1.03431e-06 3.7044e-07)
(0.00132472 6.96435e-07 3.38196e-07)
(0.00132209 5.88653e-07 3.25383e-07)
(0.00131923 8.13855e-07 4.23461e-07)
(0.00131624 6.89881e-07 3.59869e-07)
(0.00131377 2.07329e-07 3.46373e-07)
(0.00131198 2.00796e-08 5.16113e-07)
(0.0010847 -0.000136228 -1.256e-07)
(0.00163411 -0.000159088 8.32402e-07)
(0.00140215 -9.75428e-05 9.59231e-07)
(0.00147705 -0.000280155 2.86669e-06)
(0.00159196 -3.20591e-05 -2.03414e-05)
(0.00119167 0.000424658 3.07288e-05)
(0.0011563 -0.000359089 6.25736e-05)
(0.00153951 -9.16886e-05 3.49923e-07)
(0.00142229 -5.90943e-05 3.51473e-07)
(0.00142423 -4.01031e-05 2.54863e-07)
(0.00141339 -2.6251e-05 3.58113e-07)
(0.00140941 -1.70459e-05 3.55681e-07)
(0.001406 -1.11355e-05 3.50513e-07)
(0.00140338 -6.92764e-06 3.51244e-07)
(0.00140067 -4.09201e-06 3.50008e-07)
(0.00139788 -2.35078e-06 3.48785e-07)
(0.00139543 -1.79115e-06 3.04679e-07)
(0.00139268 -1.29738e-06 2.8375e-07)
(0.0013902 -1.17741e-06 3.41616e-07)
(0.00138793 -1.02772e-06 3.19283e-07)
(0.00138518 -5.65373e-07 2.46823e-07)
(0.0013825 -5.63451e-07 3.44687e-07)
(0.00137966 -6.76425e-07 2.64237e-07)
(0.00137669 -5.17026e-07 1.2685e-07)
(0.00137441 -5.27045e-07 7.93247e-07)
(0.00137216 -1.09823e-07 3.24881e-07)
(0.00136933 2.01297e-07 4.07076e-07)
(0.00136665 6.00697e-07 3.86506e-07)
(0.00136457 1.19079e-06 3.58669e-07)
(0.00136186 8.19507e-07 3.20053e-07)
(0.0013588 5.05883e-07 4.19368e-07)
(0.00135612 5.77706e-07 2.78803e-07)
(0.00135331 -5.50334e-07 3.66287e-07)
(0.00135085 -1.95508e-07 3.3357e-07)
(0.00134848 1.9352e-07 3.53206e-07)
(0.00134621 1.86327e-07 5.13262e-07)
(0.00134377 3.03766e-08 3.42541e-07)
(0.00134132 -2.16911e-07 3.55953e-07)
(0.00133852 -5.14262e-07 2.08272e-07)
(0.00133589 -4.97292e-07 3.27947e-07)
(0.00133361 -7.5075e-08 3.42517e-07)
(0.00133141 2.05351e-07 3.43337e-07)
(0.00132894 5.29415e-07 4.5188e-07)
(0.00132636 1.01643e-06 -1.59935e-08)
(0.00132393 2.76972e-07 3.60048e-07)
(0.00132161 1.36786e-07 3.29611e-07)
(0.00131928 7.30799e-08 3.89629e-07)
(0.00131619 4.18677e-07 3.20072e-07)
(0.00131334 3.51604e-07 3.44192e-07)
(0.00131182 4.54684e-07 6.39467e-07)
(0.00106346 -0.0001573 8.51432e-07)
(0.00157381 -0.000189588 2.43319e-07)
(0.00127035 -0.000226153 2.26746e-06)
(0.001492 -0.000344334 5.99329e-06)
(0.000896274 -0.000311163 2.80799e-05)
(0.00138004 1.9013e-05 -7.87088e-05)
(0.00106435 -0.000294896 3.86856e-05)
(0.00145042 -6.02161e-05 3.81969e-07)
(0.00143899 -3.9193e-05 3.07553e-07)
(0.00143244 -3.0536e-05 4.47434e-07)
(0.00142361 -2.08043e-05 3.63881e-07)
(0.00141702 -1.41212e-05 3.14037e-07)
(0.00141191 -8.94659e-06 3.23072e-07)
(0.00140796 -6.03479e-06 3.52541e-07)
(0.00140364 -4.13677e-06 3.76846e-07)
(0.00139949 -2.69973e-06 3.55585e-07)
(0.00139615 -1.47563e-06 3.48436e-07)
(0.00139327 -1.01907e-06 3.42893e-07)
(0.00139009 -3.08646e-07 3.26525e-07)
(0.00138793 1.59025e-07 4.32917e-07)
(0.00138553 -1.29491e-07 3.79595e-07)
(0.00138252 1.5439e-07 3.16752e-07)
(0.00138009 5.07444e-08 4.22475e-07)
(0.0013773 1.55631e-07 3.88264e-07)
(0.00137462 3.89158e-07 3.52762e-07)
(0.00137213 1.07703e-07 3.79079e-07)
(0.00136959 2.46201e-07 3.95893e-07)
(0.00136705 3.41822e-07 2.95221e-07)
(0.0013639 5.24748e-07 3.03866e-07)
(0.0013609 2.64914e-07 3.17062e-07)
(0.00135886 4.21742e-10 3.68288e-07)
(0.00135623 -5.42208e-07 2.88999e-07)
(0.00135341 -5.17896e-08 7.73672e-07)
(0.00135114 1.4723e-08 3.43261e-07)
(0.00134859 1.44679e-07 2.77381e-07)
(0.00134605 -4.82049e-08 3.37534e-07)
(0.00134344 -2.54431e-07 2.13753e-07)
(0.00134059 -2.6991e-07 3.1101e-07)
(0.00133825 -3.51541e-07 3.32725e-07)
(0.00133628 -2.24616e-07 3.3324e-07)
(0.00133397 -4.03897e-08 3.34075e-07)
(0.00133134 9.34469e-08 9.8305e-07)
(0.00132918 -3.03551e-08 2.53837e-07)
(0.00132635 1.28397e-08 2.38973e-07)
(0.00132362 -2.70102e-07 5.52679e-07)
(0.00132183 -4.22486e-07 3.31293e-07)
(0.00131958 -9.18193e-07 1.34711e-07)
(0.00131658 -1.25589e-06 3.33949e-07)
(0.0013138 -3.63229e-07 3.9477e-07)
(0.00131098 2.38529e-07 2.75627e-07)
(0.00105462 -9.33028e-05 -7.76747e-07)
(0.00154257 -0.000116808 7.69876e-07)
(0.00121092 -0.000164364 -1.71577e-06)
(0.00137015 -0.00022333 2.76736e-06)
(0.00122277 -0.000460951 4.10695e-05)
(0.000532444 -0.000420392 2.10015e-05)
(0.000920459 -8.671e-05 -6.45331e-06)
(0.00147305 -5.46835e-05 3.85009e-07)
(0.00146004 -3.98555e-05 3.07081e-07)
(0.0014474 -2.22192e-05 3.59368e-07)
(0.00143405 -1.33989e-05 3.17293e-07)
(0.00142433 -7.95021e-06 4.91689e-07)
(0.00141617 -4.52979e-06 3.87686e-07)
(0.00140944 -2.91473e-06 3.5236e-07)
(0.00140487 -2.03101e-06 3.54084e-07)
(0.00140123 -1.51059e-06 3.64063e-07)
(0.00139755 -8.37265e-07 3.48569e-07)