/*--------------------------------*- C++ -*----------------------------------*\
| =========                 |                                                 |
| \\      /  F ield         | OpenFOAM: The Open Source CFD Toolbox           |
|  \\    /   O peration     | Version:  5.0                                   |
|   \\  /    A nd           | Web:      www.OpenFOAM.org                      |
|    \\/     M anipulation  |                                                 |
\*---------------------------------------------------------------------------*/
FoamFile
{
    version     2.0;
    format      ascii;
    class       volVectorField;
    location    "0.5";
    object      U_0;
}
// * * * * * * * * * * * * * * * * * * * * * * * * * * * * * * * * * * * * * //

dimensions      [0 1 -1 0 0 0 0];

internalField   nonuniform List<vector> 
4720
(
(0.000871393 -0.000282707 -2.14558e-06)
(-0.000310204 -0.000528429 1.39761e-06)
(0.00335258 -0.00054797 -0.000104338)
(-0.00165441 -0.0062904 -5.48707e-05)
(0.00771602 0.00956541 0.000162273)
(0.000624127 0.000180032 -5.91066e-05)
(0.000388101 -1.95592e-05 -1.27052e-06)
(0.000825536 3.62886e-06 -2.59546e-06)
(0.000830173 4.69941e-06 8.65914e-08)
(0.000840751 2.16926e-06 1.42857e-07)
(0.000842321 1.34856e-06 1.12914e-07)
(0.000843372 7.29564e-07 9.91289e-08)
(0.000843259 4.68741e-07 -1.43231e-09)
(0.000842449 3.48293e-07 6.018e-08)
(0.000841221 2.4153e-07 5.42144e-08)
(0.000839977 3.12279e-07 1.59191e-07)
(0.000838592 1.27088e-07 5.40372e-08)
(0.000837012 2.44364e-07 8.26211e-08)
(0.000835396 2.62258e-07 6.05495e-08)
(0.000833829 8.19507e-08 1.27412e-07)
(0.000832311 3.53943e-08 8.59453e-08)
(0.000830651 3.18297e-08 -7.75285e-08)
(0.000829077 -7.27048e-08 3.79812e-08)
(0.000827653 5.90079e-08 4.80334e-08)
(0.000825882 3.7308e-07 3.08153e-08)
(0.000824354 5.06302e-07 9.33125e-08)
(0.000823121 2.5083e-07 4.71331e-08)
(0.000821581 1.70619e-07 5.2373e-08)
(0.000819803 4.18987e-07 5.81508e-08)
(0.000818129 -1.02893e-07 7.24993e-08)
(0.00081656 -3.28393e-07 -2.92477e-08)
(0.000814706 -2.12559e-07 -3.12324e-08)
(0.00081304 -1.65722e-07 9.24363e-08)
(0.000812325 1.19707e-07 5.96789e-08)
(0.000811288 2.23235e-07 4.84059e-08)
(0.000809408 3.13935e-07 5.73209e-08)
(0.000807419 3.58528e-07 3.02975e-08)
(0.000805634 2.65138e-07 1.78466e-08)
(0.000804249 4.12693e-07 -2.86708e-08)
(0.000803113 4.11562e-07 7.85641e-08)
(0.000801867 2.48117e-08 3.17962e-08)
(0.000800151 -9.85108e-08 7.70903e-08)
(0.000798942 -4.79872e-07 3.02158e-08)
(0.000797403 -3.94655e-07 1.36997e-07)
(0.000795652 -2.78111e-07 2.91844e-08)
(0.000794283 -2.05525e-07 3.9518e-08)
(0.000792825 -2.28113e-07 4.87872e-08)
(0.000791439 -5.78129e-07 4.21835e-08)
(0.000789768 -6.03205e-07 4.00927e-09)
(0.000788007 -2.7598e-07 8.26991e-08)
(0.000677854 -9.88336e-05 -3.81444e-06)
(0.000893314 -0.000310687 2.96752e-06)
(0.00107403 0.000790852 4.01582e-06)
(0.000645391 -0.000641942 -5.58844e-05)
(-1.88527e-05 -0.000635803 1.7723e-05)
(0.00235376 0.000382991 5.54984e-05)
(0.000447506 4.43593e-06 -2.63602e-06)
(0.00084402 -1.62873e-05 -2.54273e-06)
(0.000835798 -9.3706e-06 -1.55886e-07)
(0.000843225 -5.07941e-06 8.32025e-08)
(0.000843644 -2.82219e-06 3.95609e-08)
(0.000844056 -1.52418e-06 5.56224e-08)
(0.000843462 -8.75886e-07 5.31806e-08)
(0.000842517 -5.51959e-07 5.36548e-08)
(0.000841488 -3.55921e-07 5.26544e-08)
(0.000840002 -2.97516e-07 3.96635e-08)
(0.000838547 -1.67909e-07 5.09877e-08)
(0.00083723 -2.4911e-07 8.89515e-08)
(0.000835335 -1.40681e-07 2.89908e-08)
(0.000833633 -7.3217e-08 2.4153e-08)
(0.000832177 1.04987e-07 8.86417e-08)
(0.000830518 7.19294e-08 1.72638e-08)
(0.000829081 3.7632e-07 2.60655e-07)
(0.000827921 3.24917e-07 3.19188e-08)
(0.000826468 2.08442e-07 -2.6853e-08)
(0.00082449 2.20275e-07 1.01581e-07)
(0.000822687 4.34336e-08 1.11412e-07)
(0.000821521 -1.35584e-07 5.09465e-08)
(0.000819573 -6.61394e-07 9.81843e-09)
(0.000817514 -4.05166e-07 5.27266e-08)
(0.000816471 -3.4345e-07 1.30735e-07)
(0.000815236 -7.66726e-08 5.47604e-08)
(0.000813781 5.9921e-07 2.13628e-07)
(0.000812307 1.17611e-06 9.52584e-08)
(0.000810709 4.15436e-07 4.9467e-08)
(0.000809116 1.88582e-07 4.20954e-08)
(0.000807637 5.92232e-08 4.58718e-08)
(0.00080617 2.02538e-07 5.57962e-08)
(0.000804547 3.66781e-07 2.00486e-08)
(0.000802807 4.98585e-07 8.85446e-09)
(0.000801266 1.13718e-07 5.99882e-08)
(0.000799834 -1.65772e-07 6.09125e-08)
(0.000798532 -4.55645e-07 6.26906e-08)
(0.000797395 -3.72463e-07 9.86682e-08)
(0.000795868 -8.09926e-08 5.83478e-08)
(0.000794291 -1.48526e-07 5.1097e-08)
(0.000792751 -8.21184e-08 4.52734e-08)
(0.000791175 -1.51873e-07 5.66585e-08)
(0.000789776 -2.70116e-07 8.19716e-08)
(0.000788843 -2.92207e-07 2.98798e-08)
(0.000612386 -0.000223662 -3.45865e-06)
(0.000807396 -0.000261008 1.80577e-06)
(0.000721023 -0.000179783 -1.42259e-07)
(0.000801365 -0.000481702 6.42882e-06)
(0.000200509 -0.000102445 -6.42318e-06)
(0.000120837 0.000150631 2.66233e-06)
(0.000266605 -1.44644e-05 2.0691e-06)
(0.000867368 -2.39641e-05 -2.33924e-06)
(0.000844203 -1.62113e-05 -7.32376e-08)
(0.000849007 -8.52783e-06 1.03862e-07)
(0.000846804 -4.96809e-06 4.3609e-08)
(0.000845826 -2.88395e-06 5.38445e-08)
(0.000844487 -1.7821e-06 5.13567e-08)
(0.000843106 -1.1293e-06 5.26662e-08)
(0.000841544 -7.89032e-07 5.46257e-08)
(0.000840216 -7.33098e-07 5.85007e-08)
(0.000838655 -5.90873e-07 4.81719e-08)
(0.000837048 -6.59209e-07 7.78101e-08)
(0.000835617 -8.06287e-07 1.30614e-07)
(0.000834136 -4.16899e-07 4.67302e-08)
(0.000832492 -3.71079e-07 3.50348e-08)
(0.000830987 -1.24738e-07 4.82653e-08)
(0.00082939 1.13157e-08 7.31154e-08)
(0.000827439 -6.15648e-09 -9.63162e-08)
(0.000825748 -2.42385e-07 6.71386e-08)
(0.000824145 -3.02338e-07 1.07978e-07)
(0.000822676 -2.04719e-07 3.83313e-08)
(0.000820702 -1.45788e-07 6.67883e-08)
(0.000819469 -2.43919e-07 -8.75211e-08)
(0.000818531 3.74204e-07 3.23462e-08)
(0.000816973 6.99715e-07 7.67158e-08)
(0.000815883 7.22194e-07 7.24095e-08)
(0.000814602 5.89287e-07 1.1105e-07)
(0.000812089 3.47943e-07 1.17469e-08)
(0.00081005 5.42397e-08 8.78096e-08)
(0.000808961 7.71206e-08 4.96167e-08)
(0.000807435 9.9468e-08 5.8144e-08)
(0.000806016 3.99521e-08 6.97996e-08)
(0.000804616 1.32088e-07 4.69739e-08)
(0.000802793 2.02519e-08 5.30212e-08)
(0.000801034 1.14809e-07 6.62398e-08)
(0.00079944 7.94757e-08 8.37415e-08)
(0.000798688 5.74006e-07 6.83055e-08)
(0.000797875 2.25107e-07 8.15534e-08)
(0.000795936 7.88685e-08 6.15616e-08)
(0.000794283 1.29904e-07 1.23455e-07)
(0.000792822 2.73689e-07 1.1642e-07)
(0.000791205 1.70569e-07 7.58185e-08)
(0.000789599 2.13426e-07 5.89895e-08)
(0.000788707 1.39538e-07 1.11319e-07)
(0.000638327 -0.000108712 -4.12157e-06)
(0.000949083 -0.000111898 2.14714e-06)
(0.000787547 -2.9447e-05 -1.59734e-07)
(0.000821471 -0.000142657 3.61243e-06)
(0.000494406 1.12661e-05 6.98018e-06)
(0.000209474 0.000139221 2.24445e-05)
(0.000498662 -0.00010591 3.80372e-05)
(0.000925299 -1.08293e-05 -2.00504e-06)
(0.000855409 -6.06305e-06 -4.72642e-07)
(0.000857433 -4.94773e-06 8.80508e-08)
(0.000850787 -3.45168e-06 7.91784e-08)
(0.000848091 -2.33142e-06 3.93749e-08)
(0.000845687 -1.58921e-06 4.77438e-08)
(0.000843778 -1.01109e-06 5.13202e-08)
(0.000841996 -6.11867e-07 5.2988e-08)
(0.000840259 -3.08269e-07 5.51949e-08)
(0.000838647 -2.97095e-07 7.38125e-08)
(0.000836967 -1.73897e-07 3.01862e-08)
(0.000835643 -2.21762e-07 7.80924e-08)
(0.000834181 -3.95455e-07 2.99799e-08)
(0.000832545 -4.17426e-07 7.7864e-08)
(0.000830997 -3.04538e-07 5.28138e-08)
(0.00082923 -4.67973e-07 1.10426e-08)
(0.000827605 -3.08043e-07 4.27679e-08)
(0.000826099 -1.97098e-07 -3.85956e-09)
(0.00082454 3.00544e-08 2.41358e-08)
(0.000822884 2.02312e-07 6.61065e-08)
(0.000821473 3.27848e-07 7.32918e-08)
(0.000820222 9.15095e-07 -2.02504e-09)
(0.000818691 6.65017e-07 3.02184e-08)
(0.0008169 6.50781e-07 1.03969e-08)
(0.000815092 5.30039e-07 -1.60937e-08)
(0.000813309 -1.89031e-07 7.23395e-09)
(0.000811636 -4.28849e-07 4.99263e-08)
(0.000810369 5.16069e-08 4.75072e-08)
(0.000809172 -3.59596e-08 5.30534e-08)
(0.00080759 -6.26573e-08 2.49346e-07)
(0.00080621 -4.8841e-08 1.00878e-07)
(0.000804522 -3.85206e-07 -5.82704e-09)
(0.000802785 -2.92485e-07 -6.63502e-08)
(0.000801339 4.33419e-08 6.17665e-08)
(0.000800406 2.98939e-07 1.70605e-07)
(0.00079871 5.40327e-07 6.41125e-08)
(0.000796772 1.86765e-07 1.89084e-08)
(0.000795745 -1.49609e-07 5.16311e-08)
(0.000794532 -3.10732e-08 4.46142e-08)
(0.000792798 -2.96557e-08 9.00491e-08)
(0.000791098 4.61905e-08 3.00713e-08)
(0.000789734 1.91023e-07 4.58258e-08)
(0.000788402 2.53877e-07 5.87416e-08)
(0.000618212 -8.85253e-05 -3.59743e-06)
(0.000903586 -0.000105282 1.32866e-06)
(0.000704224 -0.000124144 4.92553e-07)
(0.000687651 -0.000204603 7.22632e-06)
(0.000200041 -9.12755e-05 -1.68809e-07)
(-0.000116567 7.96461e-05 1.02798e-05)
(0.000613467 -5.66697e-05 3.23658e-05)
(0.000856107 5.79001e-07 -2.76939e-06)
(0.000851478 1.66606e-06 5.44579e-08)
(0.000852385 -1.57158e-06 7.66346e-08)
(0.000850151 -1.5626e-06 5.23421e-08)
(0.000848205 -1.44915e-06 2.35491e-08)
(0.000846169 -9.65689e-07 8.86825e-08)
(0.000844349 -6.67831e-07 5.36738e-08)
(0.000842435 -3.96515e-07 4.31011e-08)
(0.000840617 -1.85302e-07 3.95648e-08)
(0.000838828 2.48626e-08 4.91347e-08)
(0.000837146 1.27511e-07 4.86432e-08)
(0.000835344 3.25001e-07 6.73342e-08)
(0.000833895 2.66509e-07 -6.72142e-08)
(0.000832609 -1.57912e-07 7.21143e-08)
(0.000830928 5.10743e-09 7.68407e-08)
(0.000829389 2.0256e-08 3.47477e-07)
(0.000827781 8.78126e-08 1.04832e-07)
(0.000826173 1.60433e-07 8.86588e-08)
(0.000824645 5.05818e-08 5.79566e-08)
(0.000823046 1.43566e-07 6.94707e-08)
(0.000821588 1.44571e-07 1.31765e-08)
(0.000819884 1.21281e-07 1.05487e-08)
(0.000818193 6.53799e-08 2.93777e-08)
(0.000816798 6.28287e-08 5.29941e-08)
(0.00081483 -4.63943e-07 6.65626e-08)
(0.000813402 -2.49327e-07 7.88385e-08)
(0.000812391 -9.22275e-08 5.30148e-08)
(0.000810541 1.40912e-07 8.13168e-08)
(0.000808818 -1.43655e-08 4.93869e-08)
(0.000807419 -9.91463e-08 3.51417e-08)
(0.000805614 -1.24106e-07 6.87102e-08)
(0.000804314 -2.13469e-07 1.19184e-07)
(0.00080333 -4.81545e-08 -7.42067e-08)
(0.000801774 6.94307e-08 3.99838e-08)
(0.000800059 3.87296e-07 1.37986e-07)
(0.000798544 6.57467e-08 6.56457e-08)
(0.00079701 1.66112e-07 -1.5526e-07)
(0.000795662 8.90796e-08 4.48758e-08)
(0.000794432 -1.606e-07 4.94105e-08)
(0.000792918 -4.57217e-07 -4.57319e-08)
(0.00079148 -3.92287e-07 3.48162e-08)
(0.000789853 -3.09465e-07 4.45342e-08)
(0.000788154 1.84106e-08 7.65458e-08)
(0.000623986 -1.64346e-05 -2.9529e-06)
(0.000903755 -3.75708e-05 1.35499e-06)
(0.000695555 -7.19906e-05 -1.7154e-06)
(0.000823281 -0.000105729 2.88529e-06)
(0.000184054 -0.00014794 1.75593e-05)
(0.000581115 3.717e-05 -7.17765e-06)
(0.000969357 1.50976e-06 1.19248e-05)
(0.000854673 -6.83948e-06 -2.83507e-06)
(0.000852971 -7.29205e-06 4.04523e-08)
(0.000853456 -2.83797e-06 1.41438e-07)
(0.000850991 -1.53752e-06 6.2833e-08)
(0.000848873 -8.083e-07 6.20849e-08)
(0.000846689 -3.72329e-07 9.28211e-08)
(0.000844505 -1.86752e-07 4.99838e-08)
(0.000842611 -1.77983e-08 1.11242e-07)
(0.000840793 -3.12288e-08 9.6097e-08)
(0.000839042 1.0398e-08 5.12681e-08)
(0.000837343 1.18619e-07 6.49864e-08)
(0.000835817 8.5082e-08 2.59269e-08)
(0.000833577 4.61192e-07 9.76991e-08)
(0.000832218 6.73166e-07 1.41858e-07)
(0.00083122 3.45817e-07 4.9357e-08)
(0.000829333 3.19739e-07 6.08466e-08)
(0.00082778 1.45073e-07 7.89337e-08)
(0.000826053 1.3894e-07 5.78503e-08)
(0.000824518 7.2539e-08 5.55664e-08)
(0.000823001 -9.35611e-08 4.05835e-08)
(0.000821444 -2.14705e-07 1.91833e-08)
(0.000820121 -1.98168e-07 1.08551e-07)
(0.000818616 -4.16757e-07 8.90821e-08)
(0.000816239 -7.2386e-07 -1.25555e-08)
(0.000814703 -4.26431e-07 2.41298e-08)
(0.000813775 -1.03321e-07 1.72422e-08)
(0.000812123 -2.05482e-07 6.03717e-08)
(0.000810466 -2.93991e-07 2.84211e-08)
(0.000808872 -9.02204e-08 4.78669e-08)
(0.000807454 -2.48821e-08 5.08748e-08)
(0.000806069 9.42205e-08 7.82842e-08)
(0.000804619 3.38885e-07 9.63082e-08)
(0.00080314 2.02441e-07 6.40578e-08)
(0.000801883 2.02405e-07 3.46771e-08)
(0.0008004 1.52224e-07 -9.45741e-09)
(0.000798433 2.26694e-07 2.07086e-08)
(0.000796802 8.71267e-08 6.695e-08)
(0.000795338 1.24497e-07 4.11274e-08)
(0.000793852 -1.2461e-07 4.70832e-08)
(0.000792514 -4.63087e-07 -4.70684e-07)
(0.000791286 -5.21161e-07 6.28473e-08)
(0.000790249 -4.27687e-07 1.16141e-07)
(0.000788765 -1.83999e-07 1.82273e-07)
(0.000590488 7.61512e-05 -3.36178e-06)
(0.000819415 6.20304e-05 1.00218e-06)
(0.000609995 -2.88437e-05 7.47072e-08)
(0.000680621 -0.000201928 1.01834e-05)
(0.000300684 -0.000232343 3.98555e-07)
(0.000315623 -0.000161495 -4.11604e-06)
(0.000395929 4.76422e-05 4.74705e-05)
(0.000924076 1.28484e-06 -1.99927e-06)
(0.000856638 -9.09442e-07 -4.34918e-07)
(0.000859648 6.88246e-07 1.02447e-07)
(0.000852726 6.34199e-07 1.80817e-08)
(0.000849683 6.41023e-07 4.76961e-08)
(0.000846959 4.16346e-07 6.02189e-08)
(0.000844799 3.06807e-07 6.18873e-08)
(0.000842635 1.56818e-07 4.46859e-08)
(0.000840656 1.93396e-07 5.23296e-08)
(0.000839017 1.89879e-07 5.23404e-08)
(0.00083724 1.01641e-07 4.42311e-08)
(0.000835771 1.74099e-07 5.1498e-08)
(0.000834628 -3.94758e-08 6.78336e-08)
(0.000832462 5.23099e-07 -3.02779e-08)
(0.000830484 2.01525e-07 4.60137e-08)
(0.000829136 2.06593e-07 4.0037e-08)
(0.000827554 6.58678e-08 4.67919e-08)
(0.000826081 5.78176e-08 6.14357e-09)
(0.000824354 1.82019e-07 1.3142e-07)
(0.000822688 -7.50862e-08 5.67823e-08)
(0.000821459 -8.97274e-08 3.89809e-08)
(0.000819635 -4.64453e-07 6.97099e-08)
(0.00081754 -8.38922e-07 1.4886e-08)
(0.000816791 -6.54755e-07 1.59883e-07)
(0.00081561 -1.52652e-07 7.15238e-08)
(0.000813681 -1.996e-07 5.91135e-08)
(0.000812155 -2.12085e-07 -1.33284e-07)
(0.000810687 -1.92664e-07 7.6065e-08)
(0.000809156 -4.72425e-08 6.60223e-08)
(0.00080765 -2.38908e-08 5.2158e-08)
(0.000806069 -1.70679e-08 6.25935e-08)
(0.000804448 6.56845e-08 4.82983e-08)
(0.000803158 1.60948e-07 -1.9355e-08)
(0.00080171 -4.00965e-09 4.50363e-08)
(0.000800088 -2.85286e-07 7.99701e-09)
(0.000798462 -3.83968e-07 3.962e-08)
(0.000796882 -2.46244e-07 4.98242e-08)
(0.000795398 -1.93515e-07 4.21611e-09)
(0.0007937 -3.6344e-08 5.17743e-08)
(0.000792426 -4.5232e-08 1.06039e-07)
(0.000791529 -2.74789e-07 6.70403e-08)
(0.000790283 -1.31053e-07 9.26173e-08)
(0.000788917 -2.50664e-07 7.97822e-08)
(0.000610284 0.000138828 -3.91796e-06)
(0.000762639 0.000162171 2.66007e-06)
(0.000350804 -0.000270714 1.62762e-07)
(0.000410406 -0.000326195 -3.11406e-05)
(-9.23069e-05 -0.000414654 3.53336e-06)
(0.000100762 -0.00015991 -1.43606e-05)
(0.000435168 3.34216e-05 2.6795e-05)
(0.00088453 1.0525e-05 -2.42416e-06)
(0.000852523 8.20137e-06 -1.84562e-07)
(0.000855382 5.08316e-06 9.82886e-08)
(0.000850923 3.30008e-06 3.78995e-08)
(0.000848593 2.12162e-06 5.12173e-08)
(0.000846265 1.35107e-06 4.96027e-08)
(0.000844177 8.4812e-07 5.20654e-08)
(0.000842466 4.67818e-07 2.01088e-07)
(0.000840832 3.61916e-07 5.24854e-08)
(0.000838925 2.04311e-07 1.10398e-07)
(0.000837322 2.14202e-07 9.2458e-08)
(0.00083564 2.59188e-07 9.62459e-08)
(0.000834012 6.65374e-08 4.55251e-08)
(0.000832518 -3.39522e-07 4.77214e-08)
(0.000830823 -1.56967e-07 6.40133e-08)
(0.000829163 -2.65999e-07 4.15101e-08)
(0.000827593 -1.35332e-07 5.15338e-08)
(0.000826197 -2.84032e-07 4.25892e-08)
(0.000824351 -3.66587e-07 4.76219e-08)
(0.000822661 -3.91467e-08 3.89184e-08)
(0.00082096 3.90272e-08 7.00118e-08)
(0.00081919 -8.06072e-08 4.22587e-08)
(0.000818385 3.89148e-07 -1.15982e-07)
(0.000817102 5.42756e-07 9.37838e-08)
(0.000815275 1.38349e-07 3.27812e-08)
(0.000813702 1.82967e-07 5.8987e-08)
(0.000812134 3.23507e-08 4.56739e-08)
(0.000810674 1.01627e-08 5.35074e-08)
(0.000809084 -1.76539e-07 1.62931e-08)
(0.000807492 -1.39504e-07 5.42293e-08)
(0.000806181 -2.18313e-07 5.82098e-08)
(0.000804841 5.31542e-08 4.26358e-08)
(0.000803052 1.18822e-07 1.07993e-07)
(0.000801325 -1.04245e-07 1.44564e-08)
(0.000799927 -8.68103e-08 4.83524e-08)
(0.000798485 -1.87341e-07 6.50052e-08)
(0.000797042 -2.13575e-07 5.38672e-08)
(0.000795602 -9.85808e-08 6.09774e-08)
(0.000794038 1.29035e-07 4.80869e-08)
(0.000792216 5.07489e-07 6.41487e-08)
(0.000791181 6.36411e-07 7.46611e-08)
(0.000790287 1.28148e-07 4.36792e-08)
(0.000789241 -1.96751e-08 9.60934e-08)
(0.000641517 0.000526026 -3.245e-06)
(0.000318396 0.000815455 -1.30188e-05)
(0.00176986 0.000896809 -4.2452e-05)
(-0.00177565 0.000629632 3.915e-05)
(0.000934697 0.00562696 -1.61535e-05)
(-0.000294185 -0.00152439 -1.52039e-05)
(0.000502712 -3.45589e-06 -4.05492e-07)
(0.000891335 1.87722e-05 -2.54181e-06)
(0.000849756 1.07548e-05 -3.91413e-07)
(0.000853427 7.24156e-06 6.3462e-08)
(0.000848963 4.54784e-06 1.97746e-08)
(0.000847208 2.96247e-06 4.90706e-08)
(0.000845343 1.86269e-06 5.10961e-08)
(0.00084368 1.14202e-06 5.20923e-08)
(0.000842017 7.87197e-07 3.38412e-08)
(0.00084032 4.12723e-07 1.09341e-07)
(0.000838828 2.49042e-07 3.78463e-08)
(0.000837305 1.85694e-07 1.25787e-08)
(0.000835584 4.49294e-08 2.05235e-08)
(0.000833879 1.07915e-07 8.36324e-08)
(0.000832183 -2.95027e-08 5.44659e-08)
(0.000830577 -1.13725e-07 7.41875e-08)
(0.000829165 -1.6546e-07 6.14973e-08)
(0.000827535 -2.06532e-07 5.50446e-08)
(0.000825795 -3.48946e-07 7.21717e-08)
(0.000824664 -4.36565e-07 6.27495e-08)
(0.000823197 -1.14591e-07 3.56369e-08)
(0.000821409 -7.96748e-08 5.00255e-08)
(0.000820072 1.68103e-07 9.29301e-08)
(0.000818318 5.02231e-07 3.59524e-08)
(0.000816475 2.20605e-07 1.39488e-07)
(0.000815158 1.06959e-07 5.42405e-08)
(0.000813547 2.53625e-08 5.35542e-08)
(0.000811938 -1.63337e-07 -1.50542e-08)
(0.000810426 -2.25722e-07 2.49899e-08)
(0.00080897 -3.29448e-07 4.91686e-08)
(0.000807599 -3.34959e-07 6.77007e-08)
(0.00080631 -1.63916e-07 6.3295e-08)
(0.000804869 -3.96996e-07 9.00561e-08)
(0.000802961 -5.44607e-07 3.74941e-08)
(0.000801453 -2.05042e-07 5.5651e-08)
(0.000799986 -8.29748e-08 -2.3833e-08)
(0.000798305 2.24088e-07 7.41393e-08)
(0.000796994 2.49681e-07 5.32105e-08)
(0.000795827 3.03678e-07 7.16956e-08)
(0.000794456 2.72565e-07 2.58409e-08)
(0.000793058 4.56873e-07 3.53847e-08)
(0.000791051 1.07464e-06 2.52045e-08)
(0.000789462 8.30296e-07 -8.49859e-08)
(0.000788778 3.68696e-07 9.58196e-08)
(0.000983459 9.25119e-05 -1.32629e-06)
(0.00125852 0.000280999 -1.53252e-05)
(0.00419731 -0.000455476 0.000294376)
(-0.00855153 0.00356911 0.000560684)
(-0.0100247 -0.0125712 0.000906898)
(0.0443018 -0.00599962 0.000516841)
(0.000569694 5.53557e-05 -1.52706e-08)
(0.000882571 2.31448e-05 -1.52579e-06)
(0.000838016 1.45233e-05 -4.39664e-08)
(0.000847487 7.78172e-06 1.96085e-07)
(0.000845484 4.51122e-06 1.19522e-07)
(0.00084518 2.54224e-06 1.20152e-07)
(0.000843954 1.48634e-06 1.16334e-07)
(0.00084281 9.01675e-07 5.60628e-08)
(0.00084154 5.17767e-07 5.67735e-08)
(0.00084015 2.75097e-07 7.53115e-08)
(0.000838636 2.50295e-07 5.34902e-08)
(0.000837063 9.01865e-08 3.92111e-07)
(0.00083554 1.8173e-08 7.98797e-08)
(0.000833918 -5.90576e-08 4.56445e-08)
(0.00083224 -2.12045e-08 1.3117e-07)
(0.000830654 4.37582e-08 7.42042e-08)
(0.000829049 3.79127e-08 6.017e-08)
(0.000827367 -2.66166e-08 5.13405e-08)
(0.000825913 1.33749e-07 5.47083e-08)
(0.000824648 4.37189e-08 4.92857e-08)
(0.00082311 -1.13038e-07 7.96161e-08)
(0.000821314 -1.65857e-08 4.83895e-08)
(0.000819916 2.50751e-08 4.23407e-08)
(0.000818448 -2.32242e-07 9.48371e-08)
(0.000816606 -1.26228e-07 4.96588e-08)
(0.00081503 -1.65284e-07 4.92247e-08)
(0.000813365 -4.89826e-07 9.53018e-08)
(0.000811822 -5.74132e-07 1.4424e-07)
(0.000810468 -1.83214e-07 4.21771e-08)
(0.00080895 1.14137e-07 5.19193e-08)
(0.000807701 1.6782e-07 2.71937e-08)
(0.000806106 -2.96045e-08 5.15885e-08)
(0.000804368 -3.73615e-07 5.98108e-09)
(0.000803295 -5.27363e-07 6.44139e-08)
(0.000801905 -2.5522e-07 6.12109e-08)
(0.000800464 -1.98581e-07 3.64721e-08)
(0.0007989 -1.24035e-07 7.64189e-08)
(0.00079714 3.12145e-07 2.12142e-08)
(0.000795629 2.04685e-07 -1.39501e-08)
(0.000794227 1.75174e-07 -1.13306e-08)
(0.000793214 6.7372e-08 2.71257e-08)
(0.000791641 -9.56828e-09 2.54476e-08)
(0.000789389 3.78631e-07 -4.05e-08)
(0.000787747 2.42005e-07 6.74247e-08)
(0.00132019 -0.000309277 -1.40082e-06)
(0.000284586 -0.000684114 -3.61416e-05)
(0.00437085 -0.000744085 -1.08469e-05)
(-0.00582622 -0.0104742 -0.00399034)
(0.00147968 0.00651183 -0.00165116)
(-0.000296397 0.00191567 -0.000171892)
(0.00119047 -5.78166e-05 -2.29898e-07)
(0.0013717 7.90241e-06 3.33326e-07)
(0.00137837 8.97242e-06 3.38045e-07)
(0.00139768 4.3484e-06 3.83548e-07)
(0.00140118 2.70605e-06 3.97438e-07)
(0.00140351 1.47245e-06 3.93512e-07)
(0.0014038 9.29957e-07 2.92563e-07)
(0.00140267 7.27654e-07 3.53101e-07)
(0.00140069 4.87668e-07 3.53504e-07)
(0.00139867 5.30331e-07 4.46644e-07)
(0.00139639 2.21032e-07 3.52849e-07)
(0.00139382 3.80305e-07 3.80523e-07)
(0.00139109 3.70983e-07 4.03411e-07)
(0.00138849 8.56914e-08 3.91571e-07)
(0.00138602 6.64065e-08 5.13967e-07)
(0.00138323 1.52992e-07 2.28157e-07)
(0.00138061 2.2174e-08 3.25157e-07)
(0.00137826 1.71881e-07 3.0213e-07)
(0.00137537 6.92749e-07 3.05343e-07)
(0.00137276 9.46552e-07 3.40674e-07)
(0.00137064 5.0015e-07 2.89299e-07)
(0.00136819 3.13071e-07 3.50095e-07)
(0.00136516 6.9791e-07 3.74836e-07)
(0.00136231 -1.95681e-07 4.92563e-07)
(0.00135971 -5.8719e-07 7.39568e-08)
(0.00135659 -3.89123e-07 1.59392e-07)
(0.00135395 -2.76962e-07 3.79904e-07)
(0.00135275 1.9409e-07 2.96717e-07)
(0.00135094 4.18591e-07 3.29542e-07)
(0.00134777 5.76655e-07 3.27746e-07)
(0.00134444 5.83423e-07 3.28928e-07)
(0.00134144 4.86344e-07 2.71951e-07)
(0.00133923 7.79349e-07 1.42166e-07)
(0.00133739 6.944e-07 3.57861e-07)
(0.00133518 7.59609e-08 2.97969e-07)
(0.00133233 -1.09043e-07 3.6627e-07)
(0.00133042 -7.51232e-07 2.69399e-07)
(0.00132777 -6.2409e-07 5.3097e-07)
(0.00132482 -4.58338e-07 3.31189e-07)
(0.00132256 -3.54757e-07 2.80851e-07)
(0.0013201 -3.55437e-07 2.99759e-07)
(0.00131785 -8.77497e-07 3.16666e-07)
(0.00131502 -9.27411e-07 2.45779e-07)
(0.00131205 -4.77994e-07 3.76691e-07)
(0.00111517 -0.000114762 -6.05544e-07)
(0.00153596 -0.000338355 9.29603e-07)
(0.00163832 0.000840923 -7.20508e-07)
(0.00118366 -0.0011469 -0.000136993)
(-0.00120245 0.000126957 4.34095e-06)
(0.00308933 -0.000335464 0.000107184)
(0.00133043 -1.49991e-05 -1.4815e-06)
(0.00140055 -3.05407e-05 3.64396e-07)
(0.00138801 -1.74346e-05 3.45572e-07)
(0.00140194 -9.54587e-06 3.88302e-07)
(0.0014035 -5.33916e-06 3.47171e-07)
(0.00140474 -2.89647e-06 3.50012e-07)
(0.00140411 -1.66089e-06 3.51779e-07)
(0.00140273 -1.08762e-06 3.50011e-07)
(0.00140111 -6.95761e-07 3.50055e-07)
(0.00139871 -5.82781e-07 2.87192e-07)
(0.00139634 -3.12182e-07 3.49568e-07)
(0.00139414 -4.25417e-07 4.04497e-07)
(0.00139106 -2.15189e-07 3.1583e-07)
(0.00138828 -9.52347e-08 3.16677e-07)
(0.00138585 1.95475e-07 3.96603e-07)
(0.00138311 1.55631e-07 2.4699e-08)
(0.00138062 6.95448e-07 5.79603e-07)
(0.00137865 6.05288e-07 3.10819e-07)
(0.00137627 4.54411e-07 7.30317e-08)
(0.00137294 4.02395e-07 4.42303e-07)
(0.00136992 1.29683e-07 3.92181e-07)
(0.00136795 -2.20485e-07 3.42658e-07)
(0.00136474 -1.13787e-06 3.61812e-07)
(0.00136134 -6.78504e-07 1.60776e-07)
(0.00135961 -5.57711e-07 3.69309e-07)
(0.00135753 -1.18657e-07 3.35423e-07)
(0.00135511 1.10524e-06 5.88794e-07)
(0.00135272 1.87326e-06 4.19671e-07)
(0.00135007 6.54504e-07 3.41924e-07)
(0.00134732 2.56962e-07 3.37356e-07)
(0.00134483 1.25306e-07 3.27361e-07)
(0.00134246 3.86026e-07 3.87947e-07)
(0.00133968 7.24974e-07 3.23505e-07)
(0.00133673 8.41916e-07 3.51632e-07)
(0.0013342 2.00258e-07 3.47012e-07)
(0.00133178 -2.42841e-07 3.62427e-07)
(0.00132957 -6.96746e-07 3.18719e-07)
(0.00132772 -7.06998e-07 3.32328e-07)
(0.00132523 -1.66926e-07 3.66976e-07)
(0.00132261 -2.74885e-07 2.87619e-07)
(0.00132007 -6.73138e-08 3.15329e-07)
(0.00131743 -2.11525e-07 3.31321e-07)
(0.00131504 -4.2982e-07 3.40416e-07)
(0.00131342 -4.63846e-07 2.27431e-07)
(0.00104695 -0.00023607 1.26026e-06)
(0.00144869 -0.000281613 7.86549e-07)
(0.0012551 -0.000191933 -1.43729e-06)
(0.00147127 -0.000535834 9.6152e-06)
(0.00117875 -0.000194826 2.79693e-05)
(0.000983893 0.000862964 1.68279e-05)
(0.00140931 -0.000108194 1.33936e-05)
(0.00144482 -4.59608e-05 3.66552e-07)
(0.0014046 -3.0476e-05 5.38194e-07)
(0.00141292 -1.63482e-05 3.53627e-07)
(0.00140956 -9.57818e-06 3.52482e-07)
(0.00140814 -5.60861e-06 3.51474e-07)
(0.00140608 -3.46544e-06 3.51422e-07)
(0.00140388 -2.18704e-06 3.51252e-07)
(0.00140133 -1.4865e-06 3.50602e-07)
(0.00139915 -1.29659e-06 3.49441e-07)
(0.00139659 -1.00734e-06 3.50805e-07)
(0.00139395 -1.07568e-06 3.15849e-07)
(0.00139151 -1.29051e-06 4.4647e-07)
(0.00138901 -6.84411e-07 3.38785e-07)
(0.00138633 -5.9606e-07 2.9257e-07)
(0.00138385 -2.12863e-07 3.43131e-07)
(0.00138117 -9.98094e-09 3.30586e-07)
(0.00137795 1.5551e-08 -1.40836e-07)
(0.00137511 -4.46952e-07 3.90689e-07)
(0.00137235 -4.93178e-07 4.25733e-07)
(0.00136986 -3.15043e-07 3.27102e-07)
(0.00136661 -1.93089e-07 3.41061e-07)
(0.0013646 -3.70811e-07 6.46127e-08)
(0.00136304 6.60919e-07 2.83013e-07)
(0.00136042 1.17344e-06 3.37081e-07)
(0.00135867 1.19812e-06 3.38197e-07)
(0.00135643 9.7498e-07 4.23794e-07)
(0.00135218 5.88135e-07 3.0489e-07)
(0.00134891 7.25512e-08 3.82577e-07)
(0.00134711 7.0304e-08 3.35483e-07)
(0.0013446 1.69175e-07 2.96808e-07)
(0.00134218 6.73488e-08 3.80672e-07)
(0.00133979 1.61272e-07 3.4462e-07)
(0.00133673 2.00889e-08 3.77574e-07)
(0.00133382 1.7765e-07 3.69033e-07)
(0.00133122 1.76878e-07 3.94044e-07)
(0.00132984 9.61697e-07 3.16005e-07)
(0.00132843 5.0369e-07 2.88374e-07)
(0.00132537 2.85697e-07 2.14926e-07)
(0.00132269 3.16975e-07 4.22949e-07)
(0.00132018 4.92204e-07 4.16563e-07)
(0.0013174 3.45132e-07 3.56015e-07)
(0.00131472 3.37421e-07 3.45201e-07)
(0.00131316 2.08331e-07 3.39861e-07)
(0.00106601 -0.000113294 -1.31677e-07)
(0.00158554 -0.000115462 8.11835e-07)
(0.00133115 -2.77504e-05 9.79745e-07)
(0.00140473 -0.000144228 2.29345e-06)
(0.00153666 0.00013568 -1.98775e-05)
(0.00117535 0.000595594 3.08454e-05)
(0.0011616 -0.000288223 6.23233e-05)
(0.00154298 -2.32329e-05 3.51831e-07)
(0.00142563 -1.34788e-05 3.56162e-07)
(0.00142835 -1.03772e-05 2.57296e-07)
(0.00141709 -7.12076e-06 4.14742e-07)
(0.00141248 -4.73492e-06 3.55251e-07)
(0.00140844 -3.23075e-06 3.51268e-07)
(0.00140524 -2.0362e-06 3.51667e-07)
(0.00140224 -1.21603e-06 3.5001e-07)
(0.00139933 -6.27947e-07 3.49526e-07)
(0.00139663 -5.85957e-07 3.47993e-07)
(0.00139379 -3.43326e-07 2.70908e-07)
(0.00139156 -4.45018e-07 3.59735e-07)
(0.00138915 -6.95432e-07 3.05207e-07)
(0.00138644 -6.83986e-07 3.59079e-07)
(0.00138385 -5.13997e-07 3.48355e-07)
(0.0013809 -7.8247e-07 3.13332e-07)
(0.0013781 -5.32573e-07 2.87876e-07)
(0.00137564 -3.99257e-07 2.63512e-07)
(0.00137311 -2.20223e-08 2.96209e-07)
(0.00137029 3.17983e-07 4.09362e-07)
(0.00136788 5.99303e-07 3.82712e-07)
(0.00136581 1.57806e-06 2.83795e-07)
(0.00136327 1.14002e-06 5.19337e-07)
(0.00136027 1.10033e-06 3.14048e-07)
(0.00135727 9.45088e-07 3.16508e-07)
(0.00135434 -2.89143e-07 2.93513e-07)
(0.00135159 -6.36197e-07 3.42881e-07)
(0.00134942 1.06429e-07 3.19482e-07)
(0.00134744 -3.01602e-08 3.37594e-07)
(0.00134483 -1.05241e-07 5.67647e-07)
(0.00134245 -1.14342e-07 4.05131e-07)
(0.00133962 -6.6065e-07 2.03215e-07)
(0.00133675 -5.30481e-07 1.92931e-07)
(0.00133439 5.39577e-08 3.42986e-07)
(0.00133276 4.90127e-07 5.29546e-07)
(0.00132998 8.89445e-07 3.85846e-07)
(0.00132687 4.11049e-07 2.49407e-07)
(0.00132499 -1.58377e-07 3.0893e-07)
(0.00132286 -1.8522e-08 3.30815e-07)
(0.0013201 -6.61507e-08 4.06247e-07)
(0.00131723 9.56507e-08 2.11458e-07)
(0.00131487 2.98559e-07 3.23491e-07)
(0.00131274 4.09901e-07 2.68326e-07)
(0.00105496 -9.66869e-05 9.94427e-07)
(0.00155184 -0.000116103 2.69652e-07)
(0.00123615 -0.000130522 2.20579e-06)
(0.00145307 -0.000222226 5.95795e-06)
(0.00085859 -0.000176179 2.8998e-05)
(0.00135592 0.000158302 -7.51319e-05)
(0.00104188 -0.000223391 4.01939e-05)
(0.00142877 -2.28016e-06 3.69247e-07)
(0.00142054 4.39486e-07 3.03103e-07)
(0.0014211 -4.16848e-06 4.36546e-07)
(0.00141677 -3.61724e-06 2.70955e-07)
(0.00141311 -3.07872e-06 3.88555e-07)
(0.00140952 -1.9901e-06 3.17089e-07)
(0.00140644 -1.39881e-06 3.51182e-07)
(0.00140311 -8.98094e-07 3.03113e-07)
(0.00139996 -4.91765e-07 3.51387e-07)
(0.00139695 -9.46977e-08 3.49248e-07)
(0.00139413 8.96607e-08 3.41114e-07)
(0.00139107 4.6051e-07 3.3659e-07)
(0.00138871 4.33652e-07 7.02037e-08)
(0.00138657 -2.15666e-07 3.80773e-07)
(0.00138373 4.59401e-10 6.66166e-07)
(0.00138115 1.94644e-08 1.01134e-06)
(0.00137844 1.12549e-07 3.94934e-07)
(0.00137575 2.85186e-07 2.97154e-07)
(0.00137325 3.1421e-08 3.6444e-07)
(0.00137064 2.16192e-07 3.96097e-07)
(0.00136817 2.55576e-07 3.03094e-07)
(0.00136526 2.94494e-07 5.20279e-07)
(0.00136243 1.99342e-07 3.96602e-07)
(0.00136016 1.30355e-07 3.63389e-07)
(0.00135693 -7.19805e-07 3.38024e-07)
(0.00135445 -3.26258e-07 4.19238e-07)
(0.00135268 -1.10024e-07 3.3571e-07)
(0.00134967 2.44635e-07 3.79826e-07)
(0.00134684 -2.27262e-08 3.34595e-07)
(0.0013445 -2.11147e-07 3.4464e-07)
(0.00134149 -2.56351e-07 3.36492e-07)
(0.00133927 -3.93773e-07 4.8257e-07)
(0.00133762 -1.27452e-07 -2.71586e-08)
(0.0013351 9.4065e-08 3.20653e-07)
(0.00133226 5.60323e-07 5.10634e-07)
(0.00132974 7.85967e-08 3.26089e-07)
(0.00132712 1.93881e-07 -2.033e-07)
(0.00132482 -7.54554e-10 3.33579e-07)
(0.0013228 -3.27853e-07 3.29393e-07)
(0.00132032 -8.5263e-07 1.19836e-07)
(0.00131785 -7.81349e-07 3.32913e-07)
(0.0013151 -5.17481e-07 3.61457e-07)
(0.00131228 6.5315e-08 3.84354e-07)
(0.00105196 -1.73764e-05 -7.35324e-07)
(0.00153769 -3.01838e-05 7.0272e-07)
(0.00120072 -5.74107e-05 -1.71546e-06)
(0.00135075 -9.77621e-05 2.79124e-06)
(0.00119321 -0.000331136 4.30292e-05)
(0.000501308 -0.000301869 2.39193e-05)
(0.0008632 -9.81431e-06 -6.45355e-06)
(0.00142825 -1.24222e-05 3.77851e-07)
(0.00142382 -1.28512e-05 2.98159e-07)
(0.00142341 -5.25577e-06 4.06814e-07)
(0.00141856 -2.9042e-06 3.12639e-07)
(0.00141459 -1.58937e-06 3.385e-07)
(0.00141059 -7.25106e-07 4.17281e-07)
(0.00140664 -4.17114e-07 3.52185e-07)
(0.0014034 -1.48824e-07 4.26905e-07)
(0.00140035 -1.5289e-07 3.97208e-07)