/*--------------------------------*- C++ -*----------------------------------*\
| =========                 |                                                 |
| \\      /  F ield         | OpenFOAM: The Open Source CFD Toolbox           |
|  \\    /   O peration     | Version:  5.0                                   |
|   \\  /    A nd           | Web:      www.OpenFOAM.org                      |
|    \\/     M anipulation  |                                                 |
\*---------------------------------------------------------------------------*/
FoamFile
{
    version     2.0;
    format      ascii;
    class       surfaceVectorField;
    location    "0.5";
    object      Uf;
}
// * * * * * * * * * * * * * * * * * * * * * * * * * * * * * * * * * * * * * //

dimensions      [0 1 -1 0 0 0 0];

internalField   nonuniform List<vector> 
13642
(
(0.000647603 -0.000322906 5.92372e-06)
(0.000844507 3.27817e-05 -2.52818e-06)
(0.00118334 -0.000218104 3.80749e-07)
(0.000697955 -0.000424076 -6.81229e-05)
(0.000268572 -0.000314974 8.24682e-06)
(-0.000182386 -0.000543277 6.20691e-06)
(0.00135413 -0.00280148 0.000110233)
(0.00243977 0.000915237 -7.05061e-05)
(0.0038118 -0.000463149 -0.000177708)
(0.0010853 -0.00376214 -8.36666e-05)
(0.00127735 -0.00292588 0.00112704)
(0.000771291 -0.00369963 -9.35179e-05)
(0.00202401 -0.00749993 1.33694e-05)
(0.000561426 -0.00472245 9.4725e-05)
(0.00123434 -0.00409347 0.000370272)
(-0.00103991 0.00566933 0.000213026)
(0.00340954 0.000453307 0.000499354)
(-0.00326954 -0.0132968 0.00141781)
(0.00196522 0.00987164 8.24041e-05)
(3.43812e-05 0.002271 0.000237037)
(0.00133865 0.0126046 0.000499988)
(0.00422601 -0.0013977 5.08644e-05)
(-0.00109807 -0.00122583 -3.34656e-05)
(0.000628951 5.1148e-05 -1.9167e-05)
(0.00110089 -0.000398832 -0.00014456)
(0.000226832 0.00012392 -0.000125333)
(0.000184787 2.22213e-05 -4.09319e-06)
(0.00032366 1.87105e-05 -2.67036e-06)
(0.000232604 -4.96887e-05 -3.01921e-06)
(0.000396707 -1.08326e-05 -1.86244e-06)
(7.47601e-05 -7.15082e-05 4.00076e-06)
(0.000356367 5.46474e-05 -7.54221e-06)
(0.000201208 -0.000188391 1.06874e-05)
(0.000757573 2.32306e-05 -1.1353e-06)
(0.000749256 -2.05456e-05 -2.42795e-06)
(0.000973128 3.22626e-05 -1.31614e-06)
(0.000469757 3.67079e-05 -2.9829e-06)
(0.000498963 -7.88896e-06 -2.37945e-06)
(0.000811407 6.89351e-05 -2.89124e-06)
(0.000881588 -2.72703e-05 -2.17518e-06)
(0.00079806 1.67807e-05 1.16292e-07)
(0.000787234 -6.48926e-06 -1.53852e-08)
(0.001044 2.60214e-05 2.08721e-07)
(0.000818556 1.06288e-05 1.19847e-07)
(0.000813336 -1.4384e-06 1.00603e-07)
(0.00108317 1.61364e-05 2.0882e-07)
(0.000829018 6.78975e-06 9.3784e-08)
(0.000825415 2.22931e-07 7.53734e-08)
(0.00110069 1.04678e-05 1.82386e-07)
(0.000834625 4.29543e-06 4.02106e-08)
(0.000832551 7.12096e-07 6.73895e-08)
(0.00111046 6.48748e-06 1.8289e-07)
(0.000837658 2.95188e-06 3.45223e-08)
(0.00083629 3.95434e-07 2.65216e-08)
(0.00111574 4.20387e-06 1.90233e-07)
(0.000837604 2.04776e-06 6.02249e-08)
(0.000837621 1.89792e-07 5.87769e-08)
(0.00111735 3.13644e-06 1.60746e-07)
(0.000837433 1.31081e-06 5.24665e-08)
(0.000837634 2.71458e-07 5.10996e-08)
(0.00111687 1.96046e-06 1.89971e-07)
(0.000837063 7.81657e-07 5.34885e-08)
(0.000837173 -2.35411e-07 3.98455e-08)
(0.00111646 1.31506e-06 2.20735e-07)
(0.000836095 4.14235e-07 5.65969e-08)
(0.000836269 2.5294e-07 5.06706e-08)
(0.00111547 6.45662e-07 1.84643e-07)
(0.00083488 2.33891e-08 4.3205e-08)
(0.000835104 -5.75875e-07 6.93363e-08)
(0.00111403 4.10268e-07 1.81633e-07)
(0.000832567 -1.70782e-07 4.96615e-08)
(0.000833761 2.59828e-06 7.76521e-08)
(0.00111156 -3.01246e-07 1.35448e-07)
(0.000831481 -1.46037e-08 5.70482e-08)
(0.000832403 -3.30314e-07 5.05243e-08)
(0.00110929 -9.00261e-08 2.17258e-07)
(0.000829949 1.26156e-07 4.70726e-08)
(0.000830913 -8.98556e-08 7.80638e-08)
(0.00110766 7.86403e-08 1.84848e-07)
(0.000828429 2.0483e-07 3.27385e-08)
(0.000829338 -3.1487e-07 5.95836e-08)
(0.00110548 3.0209e-07 1.97586e-07)
(0.000827187 1.75258e-07 3.18041e-08)
(0.000827808 7.37428e-07 8.92261e-08)
(0.00110363 2.93488e-07 1.01326e-07)
(0.000825523 2.00602e-07 3.86124e-08)
(0.000826387 9.25311e-08 5.33575e-08)
(0.00110177 2.17417e-07 1.87813e-07)
(0.000824169 3.27088e-07 1.73454e-08)
(0.000824911 5.47645e-07 4.77137e-08)
(0.00109971 3.95839e-07 1.43114e-07)
(0.000822289 3.38677e-07 3.44795e-08)
(0.000823171 3.38959e-07 4.01671e-08)
(0.00109751 5.93677e-07 8.44785e-08)
(0.00082099 2.7117e-07 5.69229e-08)
(0.000821559 -3.16418e-07 5.00834e-08)
(0.00109543 3.99532e-07 2.04279e-07)
(0.000819556 3.81693e-07 8.8277e-08)
(0.000820279 1.20925e-07 5.02552e-08)
(0.00109377 3.48815e-07 1.83386e-07)
(0.000817434 2.73876e-07 7.85355e-08)
(0.000818402 -3.79065e-07 8.88155e-08)
(0.00109125 6.4902e-07 1.4208e-07)
(0.000816098 -1.50509e-07 3.23856e-08)
(0.000816531 -1.22401e-07 5.64284e-08)
(0.00108889 2.39054e-08 1.69181e-07)
(0.000814108 -3.93528e-07 6.16469e-08)
(0.000815096 -5.12408e-07 -5.88023e-08)
(0.00108679 -5.03718e-07 3.32837e-07)
(0.00081292 -4.20049e-07 9.20818e-08)
(0.00081348 -3.56662e-07 3.28198e-08)
(0.00108448 -5.76155e-07 2.61591e-07)
(0.000811806 -2.03767e-07 7.65106e-08)
(0.000812396 -1.15218e-06 9.57963e-08)
(0.00108296 -5.10714e-07 1.94947e-07)
(0.000810294 8.59483e-08 5.17902e-08)
(0.000811277 7.98055e-08 1.37448e-07)
(0.00108144 2.26149e-08 1.82322e-07)
(0.000808773 2.56362e-07 4.28241e-08)
(0.000809608 1.54464e-07 4.54917e-08)
(0.00107947 2.65534e-07 1.79626e-07)
(0.000806778 2.28522e-07 3.48715e-08)
(0.000807781 2.65027e-07 3.72642e-08)
(0.00107703 4.71599e-07 1.20666e-07)
(0.0008051 2.05973e-07 3.15797e-08)
(0.000806092 1.82829e-07 5.01758e-08)
(0.0010745 1.94619e-07 1.79482e-07)
(0.000803502 4.15684e-07 5.45537e-08)
(0.000804639 4.23572e-07 2.20474e-08)
(0.0010722 4.02658e-07 1.4378e-07)
(0.000802988 3.70916e-07 6.48087e-08)
(0.000803197 -1.9325e-06 8.51666e-08)
(0.00107089 7.38563e-07 2.08709e-07)
(0.000801097 1.33491e-07 4.24823e-08)
(0.000801713 3.33361e-07 1.01253e-07)
(0.00106941 3.12177e-07 1.85685e-07)
(0.000799587 1.11146e-07 5.33947e-08)
(0.000800185 8.45937e-08 4.60573e-08)
(0.00106706 9.49523e-08 1.78759e-07)
(0.000798339 -1.06703e-08 4.13301e-08)
(0.00079873 3.93012e-08 7.40356e-08)
(0.0010651 1.91007e-07 1.68934e-07)
(0.000797055 -2.95765e-07 6.77991e-09)
(0.000797345 -4.60926e-07 1.58257e-08)
(0.00106368 -2.65944e-07 1.88706e-07)
(0.000794833 -3.02346e-07 2.72796e-08)
(0.000795922 2.44615e-06 5.75448e-08)
(0.00106122 -5.31198e-07 8.51933e-08)
(0.000793504 -1.04462e-07 4.062e-08)
(0.00079446 -3.28794e-07 5.13287e-08)
(0.00105876 -2.71219e-07 1.95093e-07)
(0.000792209 -8.90185e-08 4.17909e-08)
(0.000792913 2.00442e-07 5.63882e-08)
(0.00105712 -6.34956e-08 1.1897e-07)
(0.000791017 -1.42641e-07 4.61504e-08)
(0.000791577 9.51818e-09 5.00088e-08)
(0.00105535 -2.22743e-07 1.70483e-07)
(0.000789515 -1.64784e-07 3.89754e-08)
(0.00079033 8.44193e-08 4.76601e-08)
(0.0010537 -2.05964e-07 1.82477e-07)
(0.000787711 -2.70026e-07 1.57819e-08)
(0.000788615 -1.96979e-07 -8.82583e-09)
(0.00105138 -3.0804e-07 1.90068e-07)
(0.000787138 1.11984e-06 5.62685e-08)
(0.0010491 -4.41426e-07 1.04334e-07)
(0.00101427 -9.28586e-05 -2.08665e-07)
(0.000690255 -0.000143919 -3.60364e-06)
(0.000953174 2.51579e-05 -3.29749e-06)
(0.000957631 0.000452646 5.88981e-06)
(0.000953533 -0.000273854 2.48478e-06)
(0.0013429 -0.00023624 2.04276e-06)
(0.00136687 5.40917e-05 -3.40963e-05)
(0.00110251 0.000236383 3.934e-06)
(0.00160824 0.00114731 1.12832e-05)
(0.000579072 -0.000975062 1.47037e-06)
(0.00101776 -0.000597843 -3.51492e-05)
(0.00129452 -0.00122106 -0.000153641)
(0.000434228 -0.000728511 -1.54833e-05)
(0.000154141 -0.00155919 4.83178e-07)
(0.000517867 -0.000620982 -8.56786e-06)
(0.000505426 -0.00340079 -5.93883e-05)
(7.14102e-05 -0.00429602 3.97684e-05)
(0.000616786 -0.00344267 -6.92417e-05)
(0.000486023 -0.00513708 0.000207653)
(-0.00393031 0.000525718 8.06516e-05)
(0.00098165 -0.00335393 0.000161551)
(0.000228888 -0.000673527 2.78643e-05)
(-0.000222895 -0.00139235 4.67697e-05)
(0.000587305 0.00253924 5.80604e-05)
(0.000136603 -0.00166303 0.000136008)
(0.00245862 -0.000566441 3.11788e-05)
(0.00174983 0.0011383 1.8212e-05)
(0.00257891 -0.00283033 -0.000101021)
(0.000319542 -0.00015219 -3.31353e-06)
(0.00030861 -5.1311e-05 -3.42911e-06)
(0.000433653 -4.87655e-05 -3.26605e-06)
(0.000396755 -3.93165e-05 -1.43529e-06)
(0.000633268 -6.09285e-05 -2.56045e-06)
(0.000226216 -3.61478e-05 2.99129e-06)
(0.000641344 -0.000372564 1.64965e-06)
(0.0004637 -6.95455e-05 1.15541e-05)
(0.000784357 -3.56209e-05 -1.30883e-06)
(0.000807544 -6.29823e-05 -2.39681e-06)
(0.00104234 -5.92417e-05 -1.41959e-06)
(0.000539974 -5.45644e-05 -3.29702e-06)
(0.000534489 -5.4716e-05 -3.7451e-06)
(0.000940411 -0.000100416 -3.25351e-06)
(0.000917363 -9.95069e-05 -3.78364e-06)
(0.000807971 -1.85204e-05 -3.11126e-08)
(0.000808709 -3.75617e-05 -9.30588e-08)
(0.00106376 -3.14125e-05 1.50647e-07)
(0.000821976 -9.47429e-06 5.61377e-08)
(0.000824693 -2.10124e-05 8.95117e-08)
(0.00109089 -1.5875e-05 1.86853e-07)
(0.000830269 -4.97601e-06 4.89814e-08)
(0.000831064 -1.21613e-05 4.42436e-08)
(0.00110342 -8.40786e-06 1.83753e-07)
(0.000834867 -2.61857e-06 5.37137e-08)
(0.000835512 -7.10677e-06 5.48732e-08)
(0.00111144 -4.3773e-06 1.87345e-07)
(0.000837005 -1.5683e-06 5.07658e-08)
(0.00083761 -4.3093e-06 5.06845e-08)
(0.00111537 -2.36192e-06 1.84877e-07)
(0.000837663 -1.00567e-06 4.96542e-08)
(0.000838329 -2.69818e-06 5.1581e-08)
(0.00111689 -1.67945e-06 1.87826e-07)
(0.000837609 -5.72488e-07 3.84823e-08)
(0.000838178 -1.66481e-06 5.18181e-08)
(0.00111717 -9.21059e-07 1.84695e-07)
(0.000836418 -3.2377e-07 3.70242e-08)
(0.000837486 -4.29681e-07 4.36004e-08)
(0.00111617 -5.84666e-07 1.64055e-07)
(0.0008354 -1.96146e-07 6.3404e-08)
(0.00083643 -3.55735e-07 4.7992e-08)
(0.00111464 -2.86695e-07 1.77995e-07)
(0.000833894 -2.04818e-07 1.03781e-07)
(0.000835094 -6.97008e-07 7.69269e-08)
(0.00111293 -2.63242e-07 1.85571e-07)
(0.00083374 -1.41735e-07 7.85236e-08)
(0.00083384 -1.05095e-07 1.20183e-07)
(0.00111171 -2.95464e-07 2.46197e-07)
(0.00083182 -1.00009e-08 7.15311e-08)
(0.000832568 -3.27472e-10 3.74751e-08)
(0.00111031 -7.38429e-08 1.88886e-07)
(0.000830283 8.5845e-08 9.05807e-08)
(0.000831032 -9.75839e-07 5.92185e-08)
(0.00110799 6.26097e-08 2.41011e-07)
(0.000828725 2.86518e-07 1.16062e-07)
(0.000829587 -6.97637e-08 5.85586e-08)
(0.00110594 1.80616e-07 1.65291e-07)
(0.000827023 4.04641e-07 1.10791e-07)
(0.000827954 -7.48106e-07 9.93138e-08)
(0.00110367 6.05329e-07 2.98561e-07)
(0.000825723 3.98881e-07 6.24606e-08)
(0.000826378 4.02992e-07 6.23524e-08)
(0.0011018 5.24865e-07 1.37733e-07)
(0.000824059 2.86589e-07 7.05378e-08)
(0.000824769 1.83919e-07 5.30588e-08)
(0.00109991 5.83834e-07 2.16089e-07)
(0.000822277 1.40812e-07 5.57679e-08)
(0.000822988 1.22375e-07 4.82238e-08)
(0.00109743 2.29454e-07 2.15917e-07)
(0.000820866 3.44309e-08 4.34157e-08)
(0.000821426 -1.79476e-07 4.75506e-08)
(0.00109523 1.96146e-07 1.58743e-07)
(0.000819352 -2.50086e-07 5.07815e-08)
(0.000819924 5.93241e-08 5.28108e-08)
(0.0010935 -9.56244e-08 1.82201e-07)
(0.000817257 -3.26236e-07 6.67186e-08)
(0.000818308 -4.13056e-07 3.45923e-08)
(0.001091 -6.34245e-07 2.31871e-07)
(0.000815639 -1.77381e-07 -3.47233e-08)
(0.000816719 8.93727e-09 5.53822e-08)
(0.00108834 -3.22536e-07 1.78379e-07)
(0.000814376 -2.63156e-09 -8.76581e-08)
(0.000815315 3.13294e-07 5.67834e-08)
(0.00108668 -2.03773e-07 9.8258e-08)
(0.000812722 4.64301e-07 3.65146e-08)
(0.000814063 5.95458e-07 2.02022e-08)
(0.00108471 1.42666e-07 1.23921e-07)
(0.000812247 5.72482e-07 1.56721e-07)
(0.000812529 -3.07892e-06 5.46167e-08)
(0.00108325 1.07623e-06 2.2386e-07)
(0.000810478 1.7982e-07 1.31178e-07)
(0.000810784 4.09373e-07 1.35081e-07)
(0.00108183 5.62699e-07 1.78696e-07)
(0.00080871 -7.21599e-08 3.99343e-08)
(0.000809292 4.99774e-07 7.14961e-08)
(0.00107942 6.60637e-08 1.77747e-07)
(0.000806918 -4.94044e-08 5.25646e-08)
(0.000807809 6.13708e-07 4.58722e-08)
(0.00107697 -1.75482e-07 1.79852e-07)
(0.000805701 1.7288e-07 4.06523e-08)
(0.000806369 -2.78459e-08 7.83495e-08)
(0.00107496 8.83795e-08 1.68556e-07)
(0.000804273 4.34014e-07 5.26407e-08)
(0.000804964 2.28411e-08 3.26455e-08)
(0.00107335 3.91788e-07 2.01369e-07)
(0.000802022 4.33342e-07 1.21606e-07)
(0.000803194 -7.50283e-07 6.19333e-08)
(0.00107081 7.82622e-07 1.61702e-07)
(0.000800712 2.06877e-07 1.04845e-07)
(0.000801429 1.86831e-07 8.47761e-08)
(0.00106834 4.22763e-07 1.72781e-07)
(0.000799338 7.71376e-08 6.66895e-08)
(0.000800022 -3.76622e-08 6.50344e-08)
(0.00106662 1.70843e-07 1.77008e-07)
(0.000797792 -8.50986e-08 4.85491e-08)
(0.000798527 2.99538e-08 2.94994e-08)
(0.00106466 1.48357e-08 1.84528e-07)
(0.00079611 -4.41177e-07 6.65777e-08)
(0.000796901 3.89593e-07 4.42493e-08)
(0.00106246 -2.79885e-07 1.34791e-07)
(0.000795604 -4.01881e-07 8.15958e-08)
(0.000795973 6.50622e-08 1.27936e-07)
(0.00106115 -8.96513e-07 2.62635e-07)
(0.000793926 -5.43307e-08 6.70954e-08)
(0.000794896 -6.47601e-09 7.2514e-08)
(0.00105966 -1.68122e-07 1.73011e-07)
(0.00079205 1.31052e-07 6.46081e-08)
(0.000793145 1.05091e-07 6.52687e-08)
(0.00105721 -3.30335e-08 2.21607e-07)
(0.000791078 1.42084e-07 5.15192e-08)
(0.000791591 6.5147e-07 7.45013e-08)
(0.00105537 3.08132e-07 8.58402e-08)
(0.000789516 -6.11149e-08 -1.23941e-10)
(0.000790076 2.84673e-07 6.51738e-08)
(0.00105364 2.76225e-08 1.71758e-07)
(0.000787831 -1.5484e-07 3.1641e-08)
(0.0007885 3.8572e-07 4.23645e-09)
(0.0010514 -2.21775e-07 1.55241e-07)
(0.00078733 -8.75354e-08 1.26488e-07)
(0.00104973 -2.20865e-07 2.47367e-07)
(0.000850054 -0.00022203 -9.12218e-07)
(0.000651731 -0.000133425 -3.79582e-06)
(0.000863916 -0.000195977 -2.09189e-06)
(0.000758231 -0.000230865 5.28489e-07)
(0.000942997 -0.000173019 1.92392e-06)
(0.00120887 -0.000267968 9.98959e-07)
(0.0010598 -0.000409951 2.89401e-06)
(0.00086341 -0.000131399 -4.10011e-07)
(0.00113701 -0.000215018 -5.7734e-07)
(0.000497273 -0.000468807 -2.54379e-06)
(0.000930749 -0.000373214 5.28253e-06)
(0.00130355 -0.000644395 9.63781e-06)
(0.000659683 -0.000359317 9.80961e-06)
(0.00096415 -0.000453668 -9.51363e-07)
(0.000943103 -0.000443897 5.86892e-06)
(0.000143491 -0.000530005 4.0631e-06)
(0.000415872 -0.000373113 -1.19701e-05)
(0.000367562 -0.000301531 2.24706e-06)
(0.000510848 -0.000384774 -8.51774e-06)
(-7.37761e-05 5.76633e-05 8.00306e-07)
(0.000213588 -0.000158524 -4.65926e-06)
(0.000479785 -5.63621e-05 5.06898e-05)
(0.000154035 -0.000103533 7.04278e-06)
(0.000204111 3.69203e-05 -1.15405e-05)
(0.000294988 -0.000111298 2.10175e-05)
(0.000310675 -4.07687e-05 1.20834e-06)
(0.00028733 -4.8836e-05 3.99123e-06)
(0.000454279 -6.50494e-05 6.47134e-06)
(0.000224807 -3.83125e-05 -8.06904e-07)
(0.000823204 -5.93927e-05 -1.18179e-06)
(0.000880724 -7.21764e-05 -2.14911e-06)
(0.00112116 -9.24627e-05 -1.46874e-06)
(0.000582816 -7.27344e-05 -4.34586e-06)
(0.000593404 -7.55354e-05 -4.62997e-06)
(0.000999745 -0.000130173 -4.69334e-06)
(0.00101551 -0.000135435 -4.97004e-06)
(0.000829696 -3.63937e-05 2.75057e-08)
(0.000837694 -4.7228e-05 -2.66726e-07)
(0.00109844 -5.88097e-05 1.50057e-07)
(0.000834191 -2.13146e-05 7.76324e-08)
(0.00084365 -2.88325e-05 9.77994e-08)
(0.00111206 -3.3834e-05 1.9626e-07)
(0.000837188 -1.28167e-05 5.01319e-08)
(0.00084175 -1.79376e-05 3.5528e-08)
(0.00111513 -2.03334e-05 1.84901e-07)
(0.000838738 -7.80133e-06 5.18453e-08)
(0.000841818 -1.10792e-05 4.49268e-08)
(0.00111806 -1.22084e-05 1.85546e-07)
(0.000839277 -4.85603e-06 5.14994e-08)
(0.000841315 -7.01578e-06 4.98519e-08)
(0.00111913 -7.58471e-06 1.85459e-07)
(0.000839007 -3.02986e-06 5.37448e-08)
(0.000840626 -4.39632e-06 5.24139e-08)
(0.00111916 -4.73281e-06 1.86142e-07)
(0.000838218 -1.96187e-06 5.69388e-08)
(0.000839522 -2.70495e-06 5.27109e-08)
(0.00111825 -2.95994e-06 1.86381e-07)
(0.000837542 -1.27768e-06 5.45668e-08)
(0.000838347 -1.65038e-06 5.62004e-08)
(0.00111726 -2.04324e-06 1.90129e-07)
(0.000836277 -7.17856e-07 6.15055e-08)
(0.000837133 -6.5532e-07 7.00766e-08)
(0.00111588 -1.24338e-06 1.77775e-07)
(0.000834784 -2.93442e-07 9.33152e-08)
(0.000835628 -2.29081e-06 5.84974e-08)
(0.00111402 -6.57492e-07 2.85841e-07)
(0.000832944 -1.42007e-07 7.9161e-08)
(0.000834031 1.95999e-07 7.83579e-08)
(0.0011118 -2.36072e-07 1.84335e-07)
(0.000831689 -1.43568e-07 2.51555e-08)
(0.000832567 -4.13821e-07 4.13744e-08)
(0.00110973 -2.66171e-07 1.82929e-07)
(0.000830343 -9.89798e-08 2.71966e-08)
(0.000831089 -4.0372e-07 3.44121e-08)
(0.00110798 -1.86371e-07 1.23274e-07)
(0.000828925 -8.67973e-08 4.17976e-08)
(0.000829603 -2.65923e-07 5.0653e-08)
(0.00110615 -1.24699e-07 1.83695e-07)
(0.000827182 -7.0516e-08 5.08871e-08)
(0.000827975 6.26442e-08 1.13669e-08)
(0.00110406 -1.14676e-07 1.42036e-07)
(0.000825559 -1.89844e-07 5.29535e-08)
(0.00082623 -7.89776e-08 -4.24051e-08)
(0.00110174 -5.57848e-08 2.2122e-07)
(0.000823591 -2.90433e-07 3.07463e-08)
(0.000824644 7.62262e-07 6.97859e-08)
(0.00109934 -4.43226e-07 1.76779e-07)
(0.000822138 -1.92905e-07 4.00068e-08)
(0.000823111 3.71565e-07 3.62597e-08)
(0.00109703 -3.35914e-07 1.5457e-07)
(0.000820481 -1.13424e-07 5.6944e-08)
(0.000821526 -1.09731e-07 6.03336e-08)
(0.00109502 -1.69284e-07 1.85028e-07)
(0.000818987 -1.55481e-07 3.66273e-08)
(0.000819872 -1.45279e-07 5.87937e-08)
(0.00109274 -1.05956e-07 1.90491e-07)
(0.000817639 4.92048e-08 2.32493e-08)
(0.000818564 1.70813e-07 2.15414e-08)
(0.00109097 -2.73458e-07 1.22474e-07)
(0.000816426 3.85767e-07 1.46888e-07)
(0.000817138 6.08202e-07 3.54084e-08)
(0.00108943 4.54648e-07 1.09698e-07)
(0.00081492 5.01822e-07 1.64655e-07)
(0.000815458 2.82957e-07 1.85271e-07)
(0.00108738 6.70153e-07 1.80264e-07)
(0.000814055 6.00303e-07 3.82935e-08)
(0.000814183 3.98747e-07 2.86651e-08)
(0.00108608 7.648e-07 1.35611e-07)
(0.000810882 4.41119e-07 3.29515e-08)
(0.000812327 -3.57658e-07 3.78289e-08)
(0.00108348 8.65655e-07 1.33219e-07)
(0.000809672 1.09249e-07 7.54184e-08)
(0.000810368 2.13577e-07 5.13541e-08)
(0.00108017 3.22125e-07 1.66345e-07)
(0.000808373 -6.35127e-08 7.74419e-08)
(0.000809075 1.93112e-07 8.30309e-08)
(0.00107854 -1.35842e-08 1.82423e-07)
(0.000807223 -5.92585e-08 7.1647e-08)
(0.000807815 1.50012e-07 1.35518e-07)
(0.00107705 -1.45745e-07 1.80449e-07)
(0.000805672 -3.18874e-08 7.0357e-08)
(0.000806404 1.48806e-08 7.80981e-08)
(0.00107521 6.37963e-09 1.80434e-07)
(0.000804033 -1.14535e-07 4.1929e-08)
(0.000804861 -1.43828e-08 5.56872e-08)
(0.00107306 -6.56633e-08 1.94116e-07)
(0.000802378 -9.32422e-08 2.50967e-08)
(0.000803221 -2.58732e-07 2.3017e-08)
(0.00107092 -2.00953e-07 1.57803e-07)
(0.00080078 4.78791e-08 4.49719e-08)
(0.000801605 8.22979e-07 2.93356e-08)
(0.00106864 -2.5549e-08 1.42397e-07)
(0.000799266 1.45877e-07 2.78552e-08)
(0.000800144 -3.93622e-09 6.22142e-08)
(0.00106655 1.48188e-07 1.78374e-07)
(0.000797752 2.77014e-07 2.51951e-08)
(0.00079869 3.07164e-07 2.69339e-08)
(0.00106453 2.39509e-07 1.60955e-07)
(0.000796189 5.04146e-07 1.05582e-07)
(0.000797183 3.53274e-07 5.89537e-08)
(0.00106255 5.4489e-07 1.88194e-07)
(0.000795798 5.08201e-07 1.18871e-07)
(0.000795975 -1.36423e-06 2.02577e-08)
(0.00106136 8.33087e-07 1.83283e-07)
(0.000794087 3.57147e-07 7.06896e-08)
(0.000794705 2.56891e-07 7.26568e-08)
(0.00105985 5.40451e-07 1.80258e-07)
(0.000792545 4.1633e-07 7.51591e-08)
(0.000793218 1.00957e-07 4.85931e-08)
(0.00105771 4.59232e-07 1.84627e-07)
(0.000790627 4.66839e-07 8.81588e-08)
(0.000791652 -1.45054e-07 8.81222e-08)
(0.00105542 6.58379e-07 2.76802e-07)
(0.000789122 2.70858e-07 6.95528e-08)
(0.00078983 3.8392e-07 6.26213e-08)
(0.00105304 5.60318e-07 1.73954e-07)
(0.000787793 5.35022e-08 9.90465e-08)
(0.000788227 1.86163e-07 5.55084e-08)
(0.00105108 1.59097e-07 1.79851e-07)
(0.000787263 5.81903e-08 1.61e-07)
(0.00104965 8.09256e-09 1.54079e-07)
(0.000888804 -0.000141407 -9.61589e-07)
(0.000641861 -0.000151419 -3.88421e-06)
(0.000870783 -0.0001329 -3.42499e-06)
(0.000883536 -0.000125262 9.86191e-07)
(0.000961778 -0.000185891 1.74367e-06)
(0.00131574 -0.000156169 1.37247e-06)
(0.000926905 -0.000185808 1.97662e-06)
(0.000798349 -0.000190524 1.4682e-07)
(0.00112992 -9.73992e-05 3.67505e-07)
(0.000630693 -0.00018584 5.90956e-06)
(0.000810777 -0.000322814 5.69774e-06)
(0.00118552 -0.000277288 4.65368e-06)
(0.000618663 -0.000294825 3.06735e-06)
(0.00107263 -0.00014673 1.08233e-06)
(0.00100506 -0.000289744 -4.88777e-06)
(0.000498627 -0.00018355 9.14898e-06)
(0.000591827 -0.000116169 4.88257e-06)
(0.000540305 -0.000210365 4.65163e-06)
(0.000891669 -0.000112182 5.09442e-06)
(0.000221005 0.000113551 9.00348e-06)
(0.000459221 -2.4398e-05 1.60663e-05)
(0.000178669 -5.55852e-05 7.72482e-06)
(0.000284926 -0.000217712 1.73422e-05)
(0.000414911 7.63809e-05 4.59272e-05)
(0.00116156 -0.000123011 2.07902e-05)
(0.000461557 -9.91725e-05 3.17472e-05)
(0.000530487 -0.000125896 4.65859e-05)
(0.00065784 -0.000181708 7.25307e-05)
(0.000322871 -8.83765e-05 1.85887e-05)
(0.000869411 -4.9753e-05 -1.23466e-06)
(0.000897653 -4.76112e-05 -2.34517e-06)
(0.00123135 -7.60393e-05 -1.38691e-06)
(0.000635836 -7.0592e-05 -5.01918e-06)
(0.000663905 -2.81274e-05 -5.73621e-06)
(0.00106791 -0.000129101 -4.84419e-06)
(0.00112018 -3.18051e-05 -6.44212e-06)
(0.000856445 -3.27972e-05 -1.96552e-07)
(0.00085893 -3.13267e-05 -2.25036e-07)
(0.00113765 -4.91017e-05 6.65171e-08)
(0.000850042 -2.19005e-05 5.57154e-08)
(0.000857366 -2.28533e-05 9.30974e-08)
(0.00113926 -3.32921e-05 1.85787e-07)
(0.000846752 -1.42828e-05 3.03199e-08)
(0.000851334 -1.57368e-05 4.78447e-08)
(0.00113061 -2.17839e-05 1.78353e-07)
(0.000844405 -9.28903e-06 4.29319e-08)
(0.000848102 -9.90015e-06 4.07542e-08)
(0.00112747 -1.41464e-05 1.68017e-07)
(0.000842812 -5.94735e-06 5.07657e-08)
(0.000845518 -7.04213e-06 6.95589e-08)
(0.00112477 -9.23272e-06 1.86167e-07)
(0.000841241 -3.63153e-06 5.13799e-08)
(0.000843538 -4.45459e-06 5.37961e-08)
(0.00112271 -5.74576e-06 1.86588e-07)
(0.000839622 -2.12875e-06 5.19713e-08)
(0.000841411 -2.72266e-06 4.92706e-08)
(0.00112055 -3.3953e-06 1.87733e-07)
(0.000837972 -1.37033e-06 7.17057e-08)
(0.000839301 -1.61221e-06 4.17699e-08)
(0.00111833 -1.95466e-06 1.8679e-07)
(0.000836637 -1.03024e-06 6.70722e-08)
(0.000837562 -1.32511e-06 6.90207e-08)
(0.00111638 -1.48658e-06 2.08621e-07)
(0.000834842 -8.23351e-07 4.35338e-08)
(0.00083589 -6.17841e-07 4.69633e-08)
(0.00111419 -1.08788e-06 8.65503e-08)
(0.000833583 -7.07937e-07 4.05833e-08)
(0.000834178 -3.41923e-07 4.61453e-08)
(0.0011122 -9.72846e-07 1.92466e-07)
(0.000832008 -4.84558e-07 5.06332e-08)
(0.000832849 -6.54147e-07 8.42073e-08)
(0.00111038 -8.37636e-07 1.99199e-07)
(0.000830325 -3.26343e-07 5.78633e-08)
(0.000831289 -3.5752e-07 6.57136e-08)
(0.00110817 -4.43417e-07 1.88928e-07)
(0.00082873 -3.54102e-07 2.02349e-08)
(0.00082957 -2.56115e-07 3.79356e-08)
(0.00110603 -4.4734e-07 1.84358e-07)
(0.000826975 -3.34e-07 -8.19081e-08)
(0.000828002 8.71467e-07 3.69543e-08)
(0.00110376 -5.26708e-07 1.42783e-07)
(0.000825322 -2.98129e-07 -2.56084e-08)
(0.000826276 5.61755e-08 -2.5405e-08)
(0.00110139 -4.04004e-07 1.80483e-07)
(0.00082412 -1.81104e-07 7.531e-08)
(0.000824792 1.94974e-07 1.24048e-07)
(0.00109957 -4.16163e-07 1.89971e-07)
(0.000822543 2.68172e-08 5.65789e-08)
(0.000823371 1.52609e-08 5.93135e-08)
(0.00109777 -8.33357e-08 2.08033e-07)
(0.00082091 2.17179e-07 6.21838e-08)
(0.000821763 -3.07272e-08 6.6516e-08)
(0.00109552 1.55916e-07 1.82448e-07)
(0.000819362 4.72866e-07 4.37196e-08)
(0.00082019 4.69362e-07 4.1826e-08)
(0.00109337 4.62293e-07 1.37738e-07)
(0.00081821 5.18101e-07 3.36961e-08)
(0.000818617 8.39762e-07 2.79146e-08)
(0.0010917 9.06362e-07 9.92888e-08)
(0.000816053 3.11849e-07 7.37436e-08)
(0.000816877 2.21282e-07 2.8184e-08)
(0.00108952 6.16854e-07 2.62557e-07)
(0.000814655 2.32006e-07 4.93299e-08)
(0.000815355 1.9044e-07 8.26726e-08)
(0.00108706 3.57658e-07 1.75141e-07)
(0.000812883 -7.90255e-08 2.81977e-08)
(0.000813793 3.15956e-08 7.09469e-10)
(0.00108494 4.16149e-07 2.27906e-07)
(0.000811296 -2.54717e-07 5.62274e-08)
(0.000812108 -2.55928e-07 2.4275e-07)
(0.00108269 -4.81593e-07 1.78445e-07)
(0.00080995 1.10206e-08 5.89567e-08)
(0.000810701 4.97467e-08 5.15096e-08)
(0.00108073 -1.45996e-07 1.76218e-07)
(0.000808444 1.2399e-07 1.41091e-07)
(0.000809217 1.24247e-07 5.71375e-08)
(0.00107883 1.56056e-07 1.83882e-07)
(0.000807067 8.83702e-08 1.41987e-07)
(0.00080777 1.58601e-08 1.31129e-07)
(0.001077 1.57859e-07 1.77209e-07)
(0.000805607 -3.95221e-08 6.34353e-08)
(0.000806244 -3.86181e-08 -8.19673e-09)
(0.00107506 3.88499e-08 1.79066e-07)
(0.00080406 -1.9914e-07 3.67854e-08)
(0.000804662 1.45821e-07 6.45223e-08)
(0.00107309 -1.71666e-07 1.7179e-07)
(0.000802367 -2.74256e-07 2.7254e-08)
(0.000803128 -2.82806e-07 3.32758e-08)
(0.00107086 -3.93083e-07 1.98238e-07)
(0.000801017 -1.6716e-07 4.65678e-08)
(0.00080174 6.44185e-07 6.45062e-08)
(0.00106877 -3.8695e-07 1.78775e-07)
(0.000799591 4.6416e-10 6.13037e-08)
(0.000800354 -5.7978e-08 5.42919e-08)
(0.00106695 -6.63598e-08 1.76751e-07)
(0.000798118 1.61735e-07 6.06826e-08)
(0.000798891 3.50759e-08 2.2349e-07)
(0.00106515 1.3198e-07 1.96909e-07)
(0.000796747 4.5034e-07 -2.63582e-08)
(0.000797542 3.58431e-07 3.45126e-08)
(0.00106319 3.9717e-07 1.67947e-07)
(0.000795084 4.08938e-07 -2.59724e-08)
(0.000795922 -1.45045e-06 -3.28927e-08)
(0.00106113 8.26151e-07 2.01102e-07)
(0.000793804 1.31961e-07 5.05677e-08)
(0.000794358 1.73265e-07 6.56516e-08)
(0.00105919 2.2942e-07 1.66342e-07)
(0.000792401 7.49626e-08 6.15441e-08)
(0.000793146 1.45717e-07 4.82085e-08)
(0.00105735 1.09404e-07 1.68421e-07)
(0.000790871 1.8015e-07 6.25925e-08)
(0.000791784 7.4707e-07 4.65393e-08)
(0.00105549 7.04889e-08 1.1835e-07)
(0.000788818 2.5814e-07 4.85792e-08)
(0.000789927 1.13936e-06 4.40054e-08)
(0.00105301 3.55574e-07 1.76079e-07)
(0.000787507 2.52277e-07 1.17429e-07)
(0.000788217 3.62448e-08 5.18791e-08)
(0.0010507 2.87696e-07 1.74544e-07)
(0.00078695 -2.34911e-06 1.05856e-07)
(0.00104952 3.67734e-07 3.05441e-07)
(0.000834413 -0.000161435 -1.18083e-06)
(0.0006269 -0.000115086 -3.34891e-06)
(0.000845159 -0.000152054 -2.51295e-06)
(0.000792981 -0.000196143 9.04827e-07)
(0.000918026 -0.000141555 1.36182e-06)
(0.00125 -0.00018283 5.71501e-07)
(0.000771933 -0.000269133 3.8661e-06)
(0.000723196 -0.000189142 -5.96472e-07)
(0.00100468 -0.000221191 1.70843e-06)
(0.000346966 -0.000247444 1.57785e-06)
(0.000786146 -0.000279475 5.02717e-06)
(0.00110977 -0.000333204 7.80261e-06)
(0.000607401 -0.000159357 9.57143e-06)
(0.000548725 -0.000294173 -1.5323e-06)
(0.00107733 -0.00017659 6.4682e-06)
(0.00038436 -0.000215946 6.33898e-07)
(0.000273142 -0.000231663 -2.73585e-07)
(0.000386958 -0.000108241 4.74482e-06)
(0.000352706 -0.000245159 -1.03198e-06)
(0.000151545 -7.47283e-05 1.6253e-06)
(4.11486e-05 -0.000101101 1.64598e-06)
(-0.000178962 -8.0171e-06 -8.15734e-06)
(0.000115276 -7.93296e-05 9.07589e-06)
(0.000203504 7.83141e-06 1.88456e-05)
(0.0012465 -0.000148977 7.01858e-05)
(0.000525812 -7.9984e-05 5.15943e-05)
(0.000696372 -6.64758e-05 2.70751e-05)
(0.000769377 -7.69503e-05 4.49067e-05)
(0.000703146 -3.86612e-05 2.31959e-05)
(0.000867745 -3.38949e-05 -1.33624e-06)
(0.000879673 -4.00835e-05 -2.74868e-06)
(0.00116127 -5.06075e-05 -1.61609e-06)
(0.000618266 1.63466e-06 -3.62562e-06)
(0.000634436 -2.45245e-05 -3.12363e-06)
(0.00106189 2.79017e-05 3.15633e-07)
(0.00110168 -3.33524e-05 2.47492e-06)
(0.000863063 -2.36479e-05 6.45091e-08)
(0.000871927 -2.77763e-05 1.79712e-08)
(0.00115192 -3.29896e-05 2.04506e-07)
(0.000857328 -1.72124e-05 8.52416e-08)
(0.000865474 -1.81513e-05 9.61941e-08)
(0.00114644 -2.55217e-05 2.1628e-07)
(0.000852645 -1.16567e-05 5.82813e-08)
(0.000858327 -1.19486e-05 6.89386e-08)
(0.00113922 -1.73598e-05 1.89475e-07)
(0.000848912 -7.68043e-06 6.73718e-08)
(0.000853104 -7.51344e-06 9.845e-08)
(0.00113385 -1.17589e-05 2.04736e-07)
(0.000846262 -4.98791e-06 7.25944e-08)
(0.000848905 -6.34204e-06 7.82356e-08)
(0.0011297 -7.45483e-06 2.28021e-07)
(0.000843749 -3.38154e-06 5.16882e-08)
(0.00084556 -3.34155e-06 5.42929e-08)
(0.0011265 -5.02346e-06 1.87885e-07)
(0.000841056 -2.27586e-06 3.90716e-08)
(0.000842802 -1.02891e-06 6.24564e-08)
(0.00112301 -3.44366e-06 1.62578e-07)
(0.000838718 -1.39691e-06 3.90761e-08)
(0.000840406 -1.7655e-07 5.43669e-08)
(0.00111966 -2.25029e-06 1.49515e-07)
(0.000836926 -8.42697e-07 4.89189e-08)
(0.000838259 -9.70798e-07 4.96428e-08)
(0.00111697 -1.23417e-06 1.77268e-07)
(0.000835167 -4.71436e-07 4.95751e-08)
(0.000836356 -3.3058e-07 5.96419e-08)
(0.00111467 -8.55834e-07 1.7938e-07)
(0.000833311 -9.3359e-08 8.97571e-08)
(0.000834651 1.01983e-07 4.01371e-08)
(0.00111212 -2.79387e-07 1.76953e-07)
(0.000832402 -7.07705e-09 9.92936e-08)
(0.000832957 -2.82285e-06 1.05618e-07)
(0.0011104 1.11268e-07 2.75637e-07)
(0.000830314 1.67652e-08 4.57948e-08)
(0.000831318 2.40671e-07 1.57478e-08)
(0.00110847 -1.036e-07 1.85686e-07)
(0.00082895 7.09665e-08 5.46553e-08)
(0.000829638 -7.84686e-07 3.19302e-08)
(0.00110605 1.32845e-07 2.01047e-07)
(0.000827277 6.90107e-08 9.34773e-08)
(0.000827999 1.98741e-07 1.33573e-07)
(0.00110411 4.06758e-08 2.38292e-07)
(0.000825658 1.73201e-07 1.24204e-07)
(0.000826406 -5.36285e-08 3.9508e-08)
(0.00110188 1.31535e-07 1.94266e-07)
(0.000824113 1.69938e-07 1.08072e-07)
(0.000824787 2.05883e-07 9.96696e-08)
(0.00109974 3.14082e-07 1.79557e-07)
(0.000822586 1.31378e-07 6.92483e-08)
(0.000823322 -1.18773e-07 5.50922e-08)
(0.00109774 1.04265e-07 1.88183e-07)
(0.000821046 1.85257e-07 4.6166e-08)
(0.00082183 -5.14514e-08 5.54725e-08)
(0.0010957 2.04074e-07 1.81537e-07)
(0.000819433 2.55576e-07 2.60254e-08)
(0.000820277 -1.1107e-07 1.38908e-08)
(0.00109367 2.75201e-07 2.27594e-07)
(0.000817395 2.18333e-07 2.24024e-08)
(0.000818569 3.88429e-08 3.23403e-08)
(0.00109115 4.13674e-07 2.80903e-07)
(0.000815921 5.2475e-08 3.70958e-08)
(0.000816669 1.97666e-07 -4.48742e-08)
(0.00108874 1.99463e-07 1.7666e-07)
(0.000814716 -1.78394e-07 3.40779e-08)
(0.000815067 -1.46391e-07 4.29772e-08)
(0.00108712 -1.43461e-08 1.75323e-07)
(0.000812909 -1.85686e-07 2.15186e-07)
(0.000813784 1.43014e-06 1.0518e-08)
(0.00108502 -4.34988e-07 1.059e-07)
(0.000811485 -1.10657e-08 2.38092e-07)
(0.000812326 -9.79271e-09 2.20463e-07)