/*--------------------------------*- C++ -*----------------------------------*\
| =========                 |                                                 |
| \\      /  F ield         | OpenFOAM: The Open Source CFD Toolbox           |
|  \\    /   O peration     | Version:  5.0                                   |
|   \\  /    A nd           | Web:      www.OpenFOAM.org                      |
|    \\/     M anipulation  |                                                 |
\*---------------------------------------------------------------------------*/
FoamFile
{
    version     2.0;
    format      ascii;
    class       surfaceVectorField;
    location    "0.5";
    object      Uf_0;
}
// * * * * * * * * * * * * * * * * * * * * * * * * * * * * * * * * * * * * * //

dimensions      [0 1 -1 0 0 0 0];

internalField   nonuniform List<vector> 
13642
(
(0.000803025 -0.000405527 -3.74571e-07)
(0.000774623 -0.000171863 -2.98001e-06)
(0.00109579 -0.000295992 4.48202e-07)
(0.0010356 -0.000538196 -5.14524e-05)
(0.000291555 -0.000482727 2.18257e-06)
(-1.28117e-05 -0.000606271 5.19922e-07)
(0.000809326 -0.00341823 -7.96123e-05)
(0.0022133 0.00056816 -5.01609e-05)
(0.00405557 -0.000645254 -0.00010123)
(0.000809326 -0.00341823 -7.96123e-05)
(0.000809326 -0.00341823 -7.96123e-05)
(0.000809326 -0.00341823 -7.96123e-05)
(0.000803025 -0.000405527 -3.74571e-07)
(0.000809326 -0.00341823 -7.96123e-05)
(0.000809326 -0.00341823 -7.96123e-05)
(0.00101848 0.0079146 0.000269413)
(0.00476568 0.000464474 0.000145844)
(-0.00276508 -0.00735516 0.00256357)
(0.00298607 0.0127886 -1.51161e-05)
(0.000553618 0.00573905 0.000521559)
(0.0030567 0.0171925 7.52093e-05)
(0.00443149 0.00427777 8.98592e-05)
(-0.000765357 -0.000768751 -1.57398e-05)
(0.000866885 0.000148831 -1.67468e-05)
(0.00126278 -0.000228795 -0.000186873)
(0.00054004 0.000320837 -0.000118894)
(0.000321591 1.33238e-05 -4.5636e-06)
(0.000443479 1.43613e-06 -2.68155e-06)
(0.000372477 -4.52153e-05 -2.90705e-06)
(0.000654386 -3.3135e-05 -1.32872e-06)
(0.000190784 -8.17857e-05 3.65567e-06)
(0.000595726 2.75584e-05 -8.6093e-06)
(0.000401656 -0.000211996 1.04754e-05)
(0.000826291 4.16396e-06 -1.25488e-06)
(0.000834778 -8.77192e-06 -2.5691e-06)
(0.00109862 5.76563e-06 -1.68611e-06)
(0.000570126 1.61664e-05 -3.47038e-06)
(0.000587764 -5.39793e-06 -2.89061e-06)
(0.000970779 3.34255e-05 -3.87276e-06)
(0.00101369 -1.50278e-05 -3.02749e-06)
(0.00083712 3.43475e-06 1.14715e-07)
(0.000832986 -3.47545e-06 -3.46471e-08)
(0.00110427 6.83591e-06 1.46736e-07)
(0.000841326 1.75905e-06 1.2789e-07)
(0.000841988 -1.84965e-06 1.1303e-07)
(0.00111922 3.25883e-06 1.98961e-07)
(0.000842976 1.03916e-06 1.06024e-07)
(0.000842982 -9.15057e-07 7.62377e-08)
(0.00112175 2.02731e-06 1.69058e-07)
(0.000843367 5.99195e-07 4.88647e-08)
(0.000843714 -4.66038e-07 7.73756e-08)
(0.00112344 1.101e-06 2.04339e-07)
(0.000842814 4.08536e-07 2.93638e-08)
(0.000843361 -3.08909e-07 2.58742e-08)
(0.00112353 6.99349e-07 1.76066e-07)
(0.000841884 2.94929e-07 5.71982e-08)
(0.000842483 -1.42024e-07 5.69174e-08)
(0.00112256 5.37973e-07 1.80074e-07)
(0.000840542 2.76893e-07 1.06685e-07)
(0.000841355 2.33707e-08 5.34344e-08)
(0.00112095 3.64599e-07 1.86115e-07)
(0.00083936 2.19714e-07 1.06631e-07)
(0.00083999 -3.20525e-07 9.9427e-08)
(0.00111932 4.21305e-07 1.91498e-07)
(0.000837778 1.85707e-07 6.83245e-08)
(0.00083857 1.39418e-07 5.25124e-08)
(0.00111749 1.7406e-07 1.85011e-07)
(0.000836185 2.53308e-07 7.15889e-08)
(0.000837121 2.82279e-07 8.57863e-08)
(0.00111542 3.12335e-07 1.84752e-07)
(0.000834648 1.72134e-07 9.39698e-08)
(0.000835366 5.97952e-08 4.47702e-08)
(0.00111324 3.1662e-07 1.77885e-07)
(0.000833044 5.86799e-08 1.06685e-07)
(0.000833731 1.47497e-08 7.57823e-08)
(0.00111116 8.38211e-08 1.88281e-07)
(0.000831482 3.36125e-08 4.23452e-09)
(0.000832244 -3.42091e-08 8.72935e-08)
(0.00110917 5.09004e-08 1.83736e-07)
(0.00082986 -2.04208e-08 -1.97921e-08)
(0.000830584 8.56069e-08 -3.01323e-08)
(0.00110694 9.2411e-08 1.73112e-07)
(0.000828348 -6.86939e-09 4.30057e-08)
(0.000829079 -6.9297e-07 1.49318e-07)
(0.00110484 -2.52654e-08 2.22021e-07)
(0.000826874 2.15994e-07 3.94271e-08)
(0.000827787 -1.15931e-07 3.99761e-08)
(0.00110296 1.15444e-07 1.88549e-07)
(0.000824902 4.3967e-07 6.2054e-08)
(0.000826175 -7.08113e-07 1.98112e-09)
(0.00110062 5.32914e-07 2.35539e-07)
(0.00082388 3.78606e-07 7.02301e-08)
(0.000824422 -2.55113e-06 9.7447e-08)
(0.00109856 7.26427e-07 3.28393e-07)
(0.000822359 2.10737e-07 4.97522e-08)
(0.000822904 5.31876e-07 7.92726e-08)
(0.00109688 3.7549e-07 1.52207e-07)
(0.000820659 2.94764e-07 5.5261e-08)
(0.000821551 1.43496e-07 5.16598e-08)
(0.00109488 2.41845e-07 1.84446e-07)
(0.000818971 1.58129e-07 6.53228e-08)
(0.000819688 9.11789e-09 3.39846e-08)
(0.00109248 5.58449e-07 2.06713e-07)
(0.00081735 -2.15608e-07 2.16418e-08)
(0.000817822 -5.32354e-10 6.26129e-08)
(0.00109022 -1.49287e-07 1.9377e-07)
(0.000815664 -2.70494e-07 -3.02397e-08)
(0.000816516 1.42778e-06 5.07439e-08)
(0.00108814 -4.57791e-07 6.11431e-08)
(0.000813874 -1.89148e-07 3.05826e-08)
(0.000814971 4.40731e-07 1.1764e-08)
(0.00108565 -3.00841e-07 1.55061e-07)
(0.000812404 -2.30518e-08 7.60627e-08)
(0.00081341 6.57942e-07 1.53032e-07)
(0.00108349 -2.21342e-07 1.75556e-07)
(0.000812115 1.71455e-07 5.40441e-08)
(0.000812316 -2.02604e-06 7.74687e-08)
(0.00108254 1.56899e-07 1.67901e-07)
(0.000810261 2.68571e-07 5.2862e-08)
(0.000810999 3.18344e-07 4.89364e-08)
(0.00108111 3.20913e-07 1.78891e-07)
(0.000808527 3.36225e-07 4.38134e-08)
(0.000809262 1.66746e-07 4.97081e-08)
(0.00107859 4.45295e-07 2.18253e-07)
(0.000806362 3.11847e-07 2.4074e-08)
(0.000807528 4.16883e-08 3.80846e-08)
(0.00107593 4.70976e-07 1.6978e-07)
(0.000805066 3.38892e-07 -5.40486e-09)
(0.000805902 1.76805e-07 3.68214e-08)
(0.00107354 3.75741e-07 1.66109e-07)
(0.000803482 4.12128e-07 2.49301e-08)
(0.000804398 2.82683e-07 -4.31109e-09)
(0.00107174 5.96021e-07 1.93289e-07)
(0.000802628 2.18247e-07 5.51874e-08)
(0.00080296 -1.03437e-06 4.37093e-08)
(0.00107025 5.52981e-07 1.96645e-07)
(0.000801043 -3.68306e-08 5.44362e-08)
(0.000801566 7.95746e-08 4.58922e-08)
(0.00106852 5.03863e-08 1.80196e-07)
(0.00079943 -2.89133e-07 5.36602e-08)
(0.000799992 -1.26178e-07 6.90014e-08)
(0.00106624 -1.03777e-07 1.78545e-07)
(0.000798274 -4.37277e-07 8.35901e-08)
(0.000798737 4.77852e-07 4.64532e-08)
(0.00106468 -6.15552e-07 1.53654e-07)
(0.000796502 -3.36401e-07 8.31073e-08)
(0.000797399 -4.62178e-07 1.17833e-07)
(0.00106258 -5.09373e-07 1.99425e-07)
(0.000794927 -2.41829e-07 3.43496e-08)
(0.00079576 2.30731e-08 4.37661e-08)
(0.00106024 -3.68224e-07 1.53438e-07)
(0.000793597 -2.16816e-07 4.41512e-08)
(0.000794287 -8.25485e-08 4.53075e-08)
(0.00105842 -2.80141e-07 1.70061e-07)
(0.000792114 -4.03068e-07 4.54864e-08)
(0.000792788 -7.85601e-08 4.70303e-08)
(0.00105646 -2.91775e-07 1.78332e-07)
(0.000790628 -5.90663e-07 2.31022e-08)
(0.000791307 -4.08896e-07 4.9421e-08)
(0.00105464 -7.27813e-07 1.73237e-07)
(0.000788896 -4.39642e-07 4.33423e-08)
(0.000789772 9.98407e-07 4.29904e-08)
(0.0010524 -7.65308e-07 1.11742e-07)
(0.000788425 -4.99746e-07 5.62895e-08)
(0.00105003 -3.76987e-07 2.70117e-07)
(0.000917382 -0.000204725 -4.24586e-07)
(0.00064512 -0.000223857 -3.63654e-06)
(0.000896513 -0.000106798 -3.53709e-06)
(0.000751308 0.0002399 3.4915e-06)
(0.000850355 -0.000301721 2.38665e-06)
(0.00121464 -0.000324521 1.84335e-06)
(0.000989127 7.46919e-05 -2.59244e-05)
(0.000897528 0.000220835 1.93678e-06)
(0.00135617 0.000815887 3.43734e-06)
(0.000218969 -0.000637851 -6.8238e-06)
(0.000723378 -0.000390651 -2.47278e-05)
(0.00091453 -0.000894421 -0.00011293)
(0.00015887 -0.000428366 -1.08641e-05)
(9.08007e-05 -0.000894228 -3.71202e-05)
(0.000211833 -0.000295472 -7.60979e-06)
(-0.00050451 -0.00309747 -5.53775e-05)
(-0.00050451 -0.00309747 -5.53775e-05)
(-0.00050451 -0.00309747 -5.53775e-05)
(-0.00050451 -0.00309747 -5.53775e-05)
(-0.00284896 0.000385478 0.000197138)
(0.000783497 -0.00355262 0.000116864)
(-0.000148608 -0.000231873 1.46921e-05)
(-0.000449027 -0.000828129 -5.96569e-06)
(2.98059e-05 0.00281025 8.44266e-06)
(0.000223254 -0.00190201 0.000110641)
(0.0026793 -0.000521873 3.05182e-05)
(0.00198278 0.00129943 2.53015e-05)
(0.00285676 -0.00294478 -0.000104896)
(0.000383328 -0.000124041 -4.05919e-06)
(0.00040218 -1.09584e-05 -3.5898e-06)
(0.000497526 -1.02352e-05 -3.53483e-06)
(0.00045413 8.05402e-06 -1.55726e-06)
(0.000743167 -4.48668e-07 -2.72747e-06)
(0.000263012 7.49766e-08 2.89091e-06)
(0.000751198 -0.000326852 -2.99765e-07)
(0.000523126 -8.19598e-06 1.14722e-05)
(0.000835055 -1.28301e-05 -1.3497e-06)
(0.000855694 -1.87256e-05 -2.44099e-06)
(0.00112228 -2.3414e-05 -1.64353e-06)
(0.000603562 -2.20344e-05 -3.66902e-06)
(0.000587658 -1.73485e-05 -3.99525e-06)
(0.0010371 -4.82447e-05 -3.82744e-06)
(0.00099991 -3.81013e-05 -4.06706e-06)
(0.000840885 -7.2257e-06 -3.63807e-08)
(0.00084 -1.22434e-05 -1.14562e-07)
(0.00111191 -1.34026e-05 1.47778e-07)
(0.000843127 -3.95117e-06 6.13889e-08)
(0.000846116 -6.72896e-06 9.35322e-08)
(0.00112258 -7.31264e-06 1.8957e-07)
(0.00084395 -2.17339e-06 4.7589e-08)
(0.000845224 -3.92427e-06 4.1585e-08)
(0.00112357 -4.08067e-06 1.83175e-07)
(0.000843754 -1.20014e-06 5.44019e-08)
(0.000844941 -2.25105e-06 5.47334e-08)
(0.0011244 -2.21032e-06 1.86769e-07)
(0.00084298 -7.13975e-07 5.34177e-08)
(0.000843975 -1.36947e-06 5.22687e-08)
(0.00112378 -1.26839e-06 1.86935e-07)
(0.000841962 -4.53972e-07 5.31548e-08)
(0.000842811 -8.99314e-07 5.31605e-08)
(0.00112262 -8.19791e-07 1.87016e-07)
(0.000840876 -3.26728e-07 4.6161e-08)
(0.000841516 -6.32101e-07 5.364e-08)
(0.0011213 -5.25841e-07 1.86021e-07)
(0.000839117 -2.32734e-07 4.53237e-08)
(0.000840109 2.07023e-08 4.90821e-08)
(0.00111936 -4.40148e-07 1.75486e-07)
(0.000837984 -2.08496e-07 6.99635e-08)
(0.000838601 -3.95135e-07 4.95798e-08)
(0.00111744 -2.40046e-07 1.82032e-07)
(0.000836354 -1.94913e-07 5.89808e-08)
(0.000837139 -6.30359e-08 8.33808e-08)
(0.00111568 -3.37264e-07 2.11872e-07)
(0.000834352 -1.0696e-07 2.65727e-08)
(0.000835476 8.45357e-07 7.98023e-08)
(0.0011132 -1.77935e-07 1.65771e-07)
(0.000832952 1.58562e-08 5.6387e-08)
(0.000833884 -2.09113e-07 3.54416e-08)
(0.00111096 -8.42259e-08 1.83544e-07)
(0.000831355 8.84633e-08 5.29642e-08)
(0.000832334 -1.24177e-07 6.18383e-08)
(0.00110901 1.50231e-07 1.91293e-07)
(0.000829688 2.24076e-07 1.38921e-07)
(0.000830753 -8.93105e-09 3.27645e-08)
(0.00110682 1.1378e-07 1.97917e-07)
(0.000828576 3.50627e-07 1.46323e-07)
(0.000829235 7.31256e-07 1.66885e-07)
(0.00110485 5.35884e-07 4.37517e-08)
(0.000827208 2.66698e-07 2.54223e-09)
(0.00082768 -8.22899e-07 -3.21987e-08)
(0.00110328 4.65102e-07 2.14742e-07)
(0.00082556 2.14356e-07 3.73438e-08)
(0.000826108 -1.18399e-07 2.01428e-08)
(0.00110137 3.31427e-07 1.48673e-07)
(0.000823473 1.31882e-07 1.06495e-07)
(0.000824318 -1.89696e-07 1.0478e-07)
(0.00109872 3.11335e-07 6.30021e-08)
(0.000822066 -4.60471e-08 8.11889e-08)
(0.000822681 -4.63363e-08 7.48718e-08)
(0.0010963 8.65583e-08 2.09446e-07)
(0.000820791 -3.98406e-07 3.0389e-08)
(0.000821111 -2.64216e-07 5.88674e-08)
(0.00109473 -1.78035e-07 1.86217e-07)
(0.00081832 -5.33321e-07 3.12657e-08)
(0.000819521 2.52821e-06 -3.88513e-08)
(0.00109216 -8.99632e-07 8.52984e-08)
(0.000816972 -3.74318e-07 9.17187e-08)
(0.000818022 -3.99243e-07 4.25364e-08)
(0.00108943 -5.41835e-07 1.92088e-07)
(0.000815896 -2.10103e-07 9.27599e-08)
(0.000816722 -5.62029e-08 1.03726e-07)
(0.00108804 -4.5058e-07 2.45138e-07)
(0.000814536 2.61163e-07 1.34169e-07)
(0.00081556 -1.41292e-07 6.3585e-08)
(0.00108638 -9.76646e-08 2.06624e-07)
(0.000813059 8.87571e-07 1.54462e-07)
(0.000814191 5.52054e-07 1.62339e-07)
(0.00108445 8.52226e-07 1.83316e-07)
(0.000811477 7.95893e-07 7.23698e-08)
(0.000812198 -2.75703e-06 5.35026e-08)
(0.00108252 1.52469e-06 2.37412e-07)
(0.000809896 3.02044e-07 4.57823e-08)
(0.000810379 3.87436e-07 6.86383e-08)
(0.00108039 5.3497e-07 1.80558e-07)
(0.000808398 1.23923e-07 4.3983e-08)
(0.000809038 2.20854e-07 4.58561e-08)
(0.00107822 2.22772e-07 1.74238e-07)
(0.000806925 1.30858e-07 5.08325e-08)
(0.000807536 -1.59163e-07 5.20079e-08)
(0.00107623 9.22644e-08 1.90573e-07)
(0.000805295 2.84634e-07 3.79279e-08)
(0.000806093 1.8491e-07 6.27979e-08)
(0.00107432 2.94282e-07 1.89892e-07)
(0.000803776 4.32663e-07 1.44533e-08)
(0.000804581 4.55184e-07 3.35113e-08)
(0.00107211 5.45877e-07 1.68238e-07)
(0.000801932 3.06211e-07 3.44134e-08)
(0.0008028 -6.96307e-07 3.09378e-08)
(0.00106977 6.70251e-07 1.85704e-07)
(0.000800602 -2.59842e-08 6.04502e-08)
(0.00080115 -6.38081e-08 6.3114e-08)
(0.00106773 1.56988e-07 1.74376e-07)
(0.000799086 -3.10664e-07 6.18013e-08)
(0.000799637 1.92412e-07 7.2327e-08)
(0.00106581 -2.04306e-07 1.57901e-07)
(0.000798069 -4.14066e-07 8.06739e-08)
(0.00079861 -5.40343e-07 6.54981e-08)
(0.00106405 -5.76195e-07 2.09734e-07)
(0.000796613 -2.26772e-07 7.85142e-08)
(0.000797635 -4.44733e-08 9.01108e-08)
(0.00106256 -5.3973e-07 1.45671e-07)
(0.000795085 -1.14749e-07 5.47235e-08)
(0.000795902 -3.49126e-08 5.99547e-08)
(0.00106055 -1.23959e-07 1.86808e-07)
(0.000793522 -1.15332e-07 4.81861e-08)
(0.000794287 -7.39896e-09 8.72762e-08)
(0.00105845 -2.11706e-07 1.80602e-07)
(0.000791944 -1.16985e-07 5.09642e-08)
(0.000792786 -1.02477e-08 8.08467e-08)
(0.00105641 -7.47161e-08 1.82649e-07)
(0.000790443 -2.10977e-07 6.93112e-08)
(0.00079119 -4.24472e-07 6.62385e-08)
(0.0010543 -1.81699e-07 1.81847e-07)
(0.000789226 -2.81158e-07 5.59336e-08)
(0.000789687 -5.29223e-08 7.04805e-08)
(0.00105241 -3.49968e-07 2.31926e-07)
(0.000788775 3.22716e-07 7.05993e-08)
(0.00105113 -3.78027e-07 8.48709e-08)
(0.000784949 -0.000242329 -8.27316e-07)
(0.000625356 -0.000132099 -3.79011e-06)
(0.000829667 -0.000229866 -2.08311e-06)
(0.000641028 -0.000220409 8.32078e-07)
(0.00087824 -0.000140327 1.97645e-06)
(0.00112804 -0.000271311 1.30832e-06)
(0.000871848 -0.000330692 3.14219e-06)
(0.000754285 -7.48227e-05 -1.50997e-07)
(0.000988063 -0.000185858 5.18281e-07)
(0.000370992 -0.000228921 -2.13726e-06)
(0.000811418 -0.000259846 5.02062e-06)
(0.00113632 -0.000508768 1.0266e-05)
(0.00054807 -0.000182011 9.24675e-06)
(0.00082938 -0.00019607 2.94835e-07)
(0.000834093 -0.000254481 4.98411e-06)
(-3.89273e-05 -0.000168753 2.61901e-06)
(0.000382438 -6.11341e-05 -9.19729e-06)
(0.000283106 -7.55651e-05 2.11674e-06)
(0.000424349 -7.78018e-05 -7.22413e-06)
(1.61916e-05 0.000261192 2.83719e-06)
(0.000248804 9.3791e-05 -2.13401e-06)
(0.000517527 0.00014812 5.205e-05)
(0.0001777 7.90096e-05 7.43034e-06)
(0.000247968 0.000270569 -1.0339e-05)
(0.000304008 -8.56439e-05 2.11457e-05)
(0.000331321 -8.88828e-06 1.2199e-06)
(0.000297012 -2.50043e-05 4.06589e-06)
(0.000473435 -2.87023e-05 6.77058e-06)
(0.000236723 -1.67971e-05 -7.89292e-07)
(0.000848364 -2.0089e-05 -1.20661e-06)
(0.000896334 -2.09254e-05 -2.17214e-06)
(0.00115609 -3.49624e-05 -1.56541e-06)
(0.000610196 -2.91885e-05 -4.49577e-06)
(0.000611955 -3.28736e-05 -4.75021e-06)
(0.0010437 -6.19751e-05 -4.91375e-06)
(0.00104399 -6.82577e-05 -5.1368e-06)
(0.00084854 -1.23708e-05 1.52831e-08)
(0.000849806 -1.40552e-05 -2.7294e-07)
(0.0011244 -2.33437e-05 1.55328e-07)
(0.000847478 -6.74854e-06 7.37452e-08)
(0.00085322 -7.63017e-06 9.59563e-08)
(0.00113096 -1.2438e-05 1.9991e-07)
(0.000846386 -3.92636e-06 4.87251e-08)
(0.000848795 -4.59e-06 6.13937e-08)
(0.00112818 -7.27314e-06 1.86416e-07)
(0.000845127 -2.33321e-06 5.2601e-08)
(0.000846958 -2.71164e-06 4.66097e-08)
(0.00112698 -4.24628e-06 1.8707e-07)
(0.000843788 -1.45581e-06 5.20112e-08)
(0.000845087 -1.71607e-06 4.95503e-08)
(0.00112528 -2.62377e-06 1.86537e-07)
(0.000842335 -9.5922e-07 5.36456e-08)
(0.000843442 -1.10392e-06 5.19932e-08)
(0.0011235 -1.65817e-06 1.86564e-07)
(0.000840806 -7.61074e-07 5.65625e-08)
(0.00084177 -7.4607e-07 5.38068e-08)
(0.00112144 -1.13777e-06 1.86781e-07)
(0.000839554 -6.62008e-07 5.33379e-08)
(0.000840237 -4.83273e-07 5.68478e-08)
(0.00111968 -1.01484e-06 1.89975e-07)
(0.000837739 -6.2503e-07 6.29862e-08)
(0.000838651 4.2308e-08 6.09922e-08)
(0.00111762 -7.99105e-07 1.73639e-07)
(0.000836369 -7.32724e-07 1.04203e-07)
(0.000837007 -6.33642e-07 5.39981e-08)
(0.0011155 -8.67446e-07 2.04852e-07)
(0.000834853 -6.11655e-07 8.86855e-08)
(0.00083563 5.47166e-07 1.04353e-07)
(0.00111356 -1.0484e-06 1.98715e-07)
(0.000833407 -3.93996e-07 4.08844e-08)
(0.000834159 -4.3128e-07 3.83551e-08)
(0.00111157 -5.50655e-07 1.87476e-07)
(0.000831596 -2.47948e-07 4.16479e-08)
(0.000832518 1.03007e-07 5.64494e-08)
(0.00110941 -4.8357e-07 1.8794e-07)
(0.000830342 -5.67327e-08 6.06864e-08)
(0.000830992 -4.04262e-07 5.05395e-08)
(0.00110742 -1.688e-07 1.82926e-07)
(0.000828355 2.58239e-09 -1.15734e-08)
(0.00082931 -7.08425e-07 4.2079e-08)
(0.00110528 6.67368e-10 3.19535e-07)
(0.000826562 -1.24233e-07 -1.46148e-08)
(0.000827522 -3.24534e-07 -2.67741e-08)
(0.00110269 4.69727e-09 1.67635e-07)
(0.000824938 -2.72352e-07 8.7552e-08)
(0.000825924 -4.30515e-07 3.16395e-08)
(0.00110043 -3.44668e-07 2.09595e-07)
(0.000823401 -2.53544e-07 7.31659e-08)
(0.000824343 -2.93961e-07 6.60571e-08)
(0.00109825 -3.97758e-07 1.87572e-07)
(0.000821854 -1.75263e-07 5.25553e-08)
(0.00082278 5.80429e-09 5.22189e-08)
(0.00109627 -2.59881e-07 1.77529e-07)
(0.000819746 -1.94838e-07 -1.03421e-08)
(0.000821088 -8.19044e-08 7.004e-08)
(0.00109365 -1.69438e-07 2.1784e-07)
(0.000819244 6.50451e-08 -2.76063e-08)
(0.000819846 -1.28402e-06 -4.47731e-08)
(0.00109203 -3.07365e-07 3.58074e-07)
(0.000817642 5.36908e-07 5.4524e-08)
(0.000818611 -1.09218e-06 3.12823e-08)
(0.00109079 5.17561e-07 2.35358e-07)
(0.000816479 7.10951e-07 7.45633e-08)
(0.000816937 -8.83874e-07 4.35563e-08)
(0.00108869 9.36576e-07 2.06351e-07)
(0.000815152 6.55761e-07 9.17235e-08)
(0.000815488 -2.01462e-06 2.81579e-08)
(0.00108728 9.60155e-07 2.9527e-07)
(0.000813731 4.68653e-07 6.14137e-08)
(0.000813955 6.38155e-07 5.91417e-08)
(0.00108552 7.82133e-07 1.64819e-07)
(0.000810664 2.01137e-07 4.97664e-08)
(0.000811862 -2.71911e-07 3.08366e-08)
(0.00108213 4.68039e-07 1.40609e-07)
(0.000809639 6.56766e-08 6.87191e-08)
(0.000810209 -1.57718e-07 6.76584e-08)
(0.00107948 6.33955e-08 1.74744e-07)
(0.000808171 8.82908e-08 5.3879e-08)
(0.000809067 3.86921e-07 5.1335e-08)
(0.00107804 7.37123e-08 1.63625e-07)
(0.000806691 6.97193e-08 6.397e-08)
(0.000807512 -1.37821e-08 1.53745e-07)
(0.00107602 1.34321e-07 1.66409e-07)
(0.000805336 8.60059e-08 5.83903e-08)
(0.000806113 -1.16651e-07 8.5339e-08)
(0.0010741 5.36505e-08 1.87363e-07)
(0.000803794 7.61873e-08 4.99966e-08)
(0.000804569 5.80974e-07 2.05734e-08)
(0.0010722 1.4668e-07 1.73671e-07)
(0.000801832 6.75159e-08 5.96285e-08)
(0.000802789 -2.83665e-07 -6.6645e-09)
(0.00106976 2.01704e-08 1.90963e-07)
(0.000800287 9.71478e-08 7.4988e-08)
(0.000801187 3.21335e-08 6.40032e-08)
(0.00106743 1.4623e-07 1.76534e-07)
(0.000798739 3.26665e-07 7.60259e-08)
(0.000799923 -2.42191e-07 1.27173e-07)
(0.00106533 1.28177e-07 2.15112e-07)
(0.000798652 3.9961e-07 7.49274e-08)
(0.000798699 -2.0949e-06 6.6209e-08)
(0.00106426 7.67852e-07 1.64402e-07)
(0.000796899 1.5201e-07 7.15606e-08)
(0.000797324 1.96309e-07 5.02309e-08)
(0.00106315 3.64398e-07 1.85468e-07)
(0.000795008 1.04378e-07 9.2499e-08)
(0.000795841 3.54135e-07 5.65964e-08)
(0.00106065 1.82283e-07 1.87315e-07)
(0.000793532 2.01775e-07 1.19939e-07)
(0.000794407 -9.71096e-08 8.40348e-08)
(0.00105848 2.23439e-07 1.84646e-07)
(0.000792054 2.22145e-07 9.61254e-08)
(0.00079281 1.45641e-07 1.03235e-07)
(0.0010565 3.82947e-07 1.67237e-07)
(0.000790399 1.91991e-07 6.74066e-08)
(0.000791151 -2.35441e-08 5.29449e-08)
(0.0010543 2.5785e-07 1.65498e-07)
(0.000788971 1.76493e-07 8.51462e-08)
(0.000789666 -1.10765e-07 5.24076e-08)
(0.00105216 2.75424e-07 1.7844e-07)
(0.000788554 -1.15974e-06 8.50302e-08)
(0.00105093 1.73934e-07 2.33364e-07)
(0.000851766 -0.000110305 -9.88261e-07)
(0.000628269 -0.0001036 -3.8595e-06)
(0.000852169 -0.000111003 -3.43759e-06)
(0.000822642 -7.06862e-05 9.94085e-07)
(0.000926335 -0.000123178 1.7379e-06)
(0.00126731 -0.00011368 1.35991e-06)
(0.000848659 -8.60335e-05 1.72572e-06)
(0.000745886 -0.000110757 1.66409e-07)
(0.00105935 -2.85987e-05 2.66676e-07)
(0.000560692 -4.00647e-05 5.8571e-06)
(0.000754561 -0.000206438 5.41937e-06)
(0.0011131 -0.000143443 3.45177e-06)
(0.000555994 -0.000161793 2.89838e-06)
(0.00100228 8.29233e-06 1.19095e-06)
(0.000942698 -0.000146902 -4.97192e-06)
(0.000430055 -2.08366e-06 8.81842e-06)
(0.000547303 3.80244e-05 5.13344e-06)
(0.000486045 -6.67918e-05 4.76065e-06)
(0.000835192 4.75421e-05 5.49987e-06)
(0.000209454 0.00024015 9.61479e-06)
(0.000436343 0.000114398 1.60742e-05)
(0.000162807 7.32198e-05 8.42611e-06)
(0.000268026 -9.49682e-05 1.71257e-05)
(0.000398003 0.000221445 4.55966e-05)
(0.00115853 -8.93973e-05 2.08127e-05)
(0.00046253 -7.81533e-05 3.1698e-05)
(0.000528726 -0.000105017 4.6506e-05)
(0.00065693 -0.000148157 7.24061e-05)
(0.000321427 -6.94911e-05 1.85142e-05)
(0.000871297 -8.44695e-06 -1.23909e-06)
(0.000890703 -1.2691e-06 -2.38721e-06)
(0.00123414 -1.70311e-05 -1.34839e-06)
(0.000637846 -2.98396e-05 -5.09972e-06)
(0.000659982 1.00644e-05 -5.83472e-06)
(0.00107093 -6.57014e-05 -4.98492e-06)
(0.00111267 2.68661e-05 -6.52949e-06)
(0.000859529 -5.50557e-06 -1.92388e-07)
(0.000853443 3.97737e-07 -2.09092e-07)
(0.00114052 -9.77093e-06 6.43001e-08)
(0.000853179 -4.19995e-06 8.36161e-08)
(0.000854909 -1.80494e-06 8.23427e-08)
(0.00114289 -7.66248e-06 1.92091e-07)
(0.000849506 -2.89173e-06 5.92832e-08)
(0.000850469 -1.9179e-06 6.57603e-08)
(0.00113394 -5.28622e-06 1.78788e-07)
(0.000846792 -1.96043e-06 4.3558e-08)
(0.000848148 -1.19998e-06 3.1462e-08)
(0.00113029 -3.53317e-06 1.76597e-07)
(0.000844724 -1.30024e-06 4.95315e-08)
(0.000845928 -1.14474e-06 6.82132e-08)
(0.00112706 -2.40998e-06 1.86239e-07)
(0.000842854 -8.11543e-07 5.21538e-08)
(0.000844063 -7.84061e-07 5.2497e-08)
(0.00112451 -1.52365e-06 1.86623e-07)
(0.000841151 -4.60117e-07 5.40911e-08)
(0.000842216 -6.93564e-07 4.80446e-08)
(0.00112212 -9.1395e-07 1.90365e-07)
(0.000839405 -3.02684e-07 6.45007e-08)
(0.000840438 -3.5512e-07 4.73798e-08)
(0.00111979 -4.68108e-07 1.88901e-07)
(0.000837856 -2.35516e-07 5.20063e-08)
(0.000838737 -4.01107e-07 6.14736e-08)
(0.00111764 -4.41526e-07 2.11323e-07)
(0.000836168 -1.97822e-07 5.41316e-08)
(0.000837056 5.37643e-08 3.94147e-08)
(0.00111538 -2.58612e-07 1.45325e-07)
(0.000835109 -3.08581e-07 5.40439e-08)
(0.000835493 -2.32153e-07 7.27133e-08)
(0.0011136 -3.3339e-07 1.92516e-07)
(0.000833205 -4.06437e-07 5.39143e-08)
(0.000834038 4.41881e-08 -1.86171e-08)
(0.00111167 -5.45444e-07 1.78804e-07)
(0.000831895 -3.61e-07 6.53429e-08)
(0.000832577 -8.9929e-08 7.49891e-08)
(0.00110949 -5.50706e-07 1.7361e-07)
(0.000830035 -3.86229e-07 3.19349e-08)
(0.000830963 -7.95458e-08 6.48273e-08)
(0.00110742 -4.09267e-07 1.85515e-07)
(0.000828421 -3.88033e-07 2.69002e-08)
(0.000829309 -1.94575e-07 1.7926e-07)
(0.00110507 -6.25222e-07 1.51006e-07)
(0.000826881 -2.52588e-07 1.94616e-08)
(0.000827693 5.01196e-08 7.37999e-08)
(0.00110285 -4.20308e-07 1.5417e-07)
(0.000825309 -8.35581e-08 1.01337e-08)
(0.000826136 -5.30385e-08 4.23996e-08)
(0.00110087 -2.98178e-07 1.56882e-07)
(0.000823689 1.16156e-07 4.51145e-08)
(0.000824593 -9.62388e-08 4.10462e-08)
(0.00109883 4.016e-09 1.73764e-07)
(0.000822143 2.6506e-07 6.9698e-08)
(0.000822965 -6.02151e-08 6.77886e-08)
(0.00109659 2.60147e-07 1.85717e-07)
(0.000820878 6.21379e-07 3.56453e-08)
(0.000821531 -3.44625e-07 4.32341e-08)
(0.00109468 4.63576e-07 1.7508e-07)
(0.000819488 7.90095e-07 1.40916e-08)
(0.000820053 -1.67071e-06 4.26185e-09)
(0.00109302 1.24658e-06 1.94948e-07)
(0.000817807 6.57901e-07 2.03108e-08)
(0.000818442 2.35353e-08 2.97981e-08)
(0.00109098 9.02519e-07 1.1462e-07)
(0.000816007 5.90429e-07 -2.84425e-09)
(0.000816849 -2.18436e-07 3.16955e-08)
(0.00108858 8.75554e-07 1.57079e-07)
(0.000814194 1.70616e-07 -4.43352e-09)
(0.000814961 -1.28726e-07 2.52345e-08)
(0.00108618 7.37563e-07 7.18212e-08)
(0.00081245 -3.08903e-07 2.85734e-08)
(0.000813355 1.79478e-06 4.30362e-08)
(0.00108382 -2.39087e-07 1.17359e-07)
(0.000810886 -1.88696e-07 4.87171e-08)
(0.000812013 -2.42163e-07 5.14705e-08)
(0.00108161 -5.32523e-07 1.81586e-07)
(0.000809893 7.83727e-09 5.02794e-08)
(0.000810455 -8.40579e-08 6.4412e-08)
(0.0010799 7.9018e-08 1.27828e-07)
(0.000808357 -4.93043e-08 1.51169e-07)
(0.000808995 6.71257e-08 5.12201e-08)
(0.00107831 -3.30599e-08 2.04437e-07)
(0.000806841 -5.57513e-08 1.75135e-07)
(0.000807505 2.65255e-08 1.42244e-07)
(0.00107621 -8.3949e-08 1.77144e-07)
(0.000805501 -2.16971e-07 4.75422e-08)
(0.000805912 -1.46338e-07 8.47943e-08)
(0.00107433 -8.15916e-08 1.66631e-07)
(0.000803549 -3.38859e-07 -3.60793e-08)
(0.000804418 2.52562e-06 5.66783e-08)
(0.00107207 -5.22928e-07 7.98389e-08)
(0.000802111 -1.24623e-07 -2.31164e-09)
(0.000803058 -4.24781e-07 -7.02785e-08)
(0.00106977 -4.11483e-07 1.83671e-07)
(0.000800657 1.71101e-07 1.16169e-07)
(0.000801557 -4.80136e-08 5.08752e-08)
(0.00106786 4.86498e-08 1.80991e-07)
(0.000799997 4.19596e-07 1.17375e-07)
(0.000800232 -1.97584e-07 1.54295e-07)
(0.00106658 3.94533e-07 1.00517e-07)
(0.000797388 3.636e-07 4.15174e-08)
(0.000798627 -9.01466e-07 6.48791e-08)
(0.00106434 7.14886e-07 1.93682e-07)
(0.000796265 1.86296e-08 3.52647e-08)
(0.000796891 2.58087e-07 -6.81757e-08)
(0.00106182 2.98907e-07 1.41277e-07)
(0.000795202 -9.03592e-08 4.81237e-08)
(0.000795704 3.40443e-08 4.82535e-08)
(0.00106037 -1.53993e-07 1.63647e-07)
(0.000793839 -3.03647e-08 6.73247e-08)
(0.000794482 -7.83307e-08 4.70124e-08)
(0.0010587 -2.47976e-08 1.66521e-07)
(0.000791687 8.25586e-09 6.00693e-08)
(0.000792858 -5.71555e-07 2.21586e-08)
(0.00105645 -4.79032e-08 2.92154e-07)
(0.000790563 1.18585e-07 3.79461e-08)
(0.000791289 -3.87529e-07 3.24437e-08)
(0.00105417 7.09206e-08 1.72835e-07)
(0.000789007 2.22441e-07 5.22817e-08)
(0.000789793 3.31906e-08 4.518e-08)
(0.0010523 2.44791e-07 1.75467e-07)
(0.000788278 1.57458e-07 6.76437e-08)
(0.00105057 3.31889e-07 8.64061e-08)
(0.000817246 -9.69007e-05 -1.13521e-06)
(0.000621099 -4.73114e-05 -3.27517e-06)
(0.000836584 -9.26061e-05 -2.41243e-06)
(0.00076415 -0.00011471 9.10745e-07)
(0.00090367 -6.45446e-05 1.34182e-06)
(0.00122771 -0.000110692 5.90531e-07)
(0.00073131 -0.00016436 3.85832e-06)
(0.00069989 -9.40953e-05 -6.11425e-07)
(0.000970185 -0.000127333 1.67131e-06)
(0.00030495 -0.000129068 2.29734e-06)
(0.000755466 -0.000163741 5.0558e-06)
(0.00107036 -0.000213415 7.77717e-06)
(0.000568727 -4.60273e-05 9.43652e-06)
(0.000508416 -0.000166319 -2.34385e-07)
(0.001039 -5.46822e-05 6.1035e-06)
(0.000338862 -9.82009e-05 1.18615e-06)
(0.000235309 -0.000111423 -1.34443e-07)
(0.000348941 6.6255e-06 5.18678e-06)
(0.000313797 -0.00011922 -1.19258e-06)
(0.000122121 1.97873e-05 5.74379e-06)
(0.000154015 9.21346e-06 6.90722e-06)
(-0.000148234 9.50103e-05 -3.3178e-06)
(8.45729e-05 2.70313e-05 1.33026e-05)
(0.000168507 0.000124641 2.49575e-05)
(0.0012551 -8.81093e-05 7.05446e-05)
(0.000517515 -6.15565e-05 5.42514e-05)
(0.000681277 -4.22873e-05 2.78452e-05)
(0.000749966 -4.17368e-05 4.65721e-05)
(0.000687381 -2.09792e-05 2.35892e-05)
(0.000851709 1.12235e-06 -1.35793e-06)
(0.00085539 -1.72418e-06 -2.80223e-06)
(0.00114244 -8.50581e-07 -1.57242e-06)
(0.000604388 3.50787e-05 -3.71394e-06)
(0.000615914 7.41749e-06 -3.19699e-06)
(0.00103848 8.03615e-05 1.32239e-07)
(0.00106986 1.65268e-05 2.35683e-06)
(0.000852828 4.77742e-08 6.55426e-08)
(0.000852224 -3.25155e-06 4.74551e-08)
(0.00113601 1.05278e-06 2.00608e-07)
(0.000851228 -1.56709e-06 6.44923e-08)
(0.00085292 -1.43478e-06 1.09036e-07)
(0.00113674 -2.87003e-06 1.5878e-07)
(0.000849243 -1.50589e-06 3.79503e-08)
(0.000850571 -1.52819e-06 5.75876e-08)
(0.00113346 -2.58992e-06 1.9029e-07)
(0.000847257 -1.2075e-06 5.61052e-08)
(0.000848539 -6.83602e-07 4.2817e-08)
(0.00113066 -2.26393e-06 1.82489e-07)
(0.000845228 -8.16808e-07 7.11838e-08)
(0.000846429 -5.75455e-07 9.07518e-08)
(0.00112784 -1.4779e-06 1.83043e-07)
(0.000843383 -5.32217e-07 4.83892e-08)
(0.000844427 -5.03494e-07 5.18288e-08)
(0.0011254 -1.03332e-06 1.87252e-07)
(0.000841518 -2.90943e-07 4.13335e-08)
(0.000842523 -2.95221e-07 7.71717e-08)
(0.00112277 -6.47305e-07 1.80583e-07)
(0.00083978 -8.02536e-08 4.43482e-08)
(0.000840705 -1.30964e-07 6.78309e-08)
(0.00112029 -3.38533e-07 1.81531e-07)
(0.0008379 7.61701e-08 4.88891e-08)
(0.000838935 4.95537e-08 5.02014e-08)
(0.00111789 -3.49176e-08 1.78192e-07)
(0.000836346 2.26224e-07 5.79857e-08)
(0.000837244 9.50451e-08 5.68148e-08)
(0.00111564 1.08586e-07 1.78402e-07)
(0.000834479 2.95764e-07 8.16169e-11)
(0.00083558 1.73886e-07 4.66306e-08)
(0.00111321 3.92755e-07 1.80354e-07)
(0.000833324 5.43668e-08 2.42776e-09)
(0.000833736 4.62115e-07 1.52425e-08)
(0.00111131 3.50081e-07 1.17939e-07)
(0.000831772 -7.64282e-08 7.44768e-08)
(0.000832413 -1.55602e-07 1.06986e-07)
(0.00110959 -1.86789e-07 1.85828e-07)
(0.00083014 1.26793e-08 2.12115e-07)
(0.000831074 1.94463e-07 6.30989e-08)
(0.00110733 2.78342e-09 1.69226e-07)
(0.000828612 5.40235e-08 2.26193e-07)
(0.000829361 -6.84363e-09 2.04162e-07)
(0.00110527 1.98602e-08 1.66254e-07)
(0.000826948 1.24111e-07 9.67479e-08)
(0.000827781 -7.55233e-08 9.18828e-08)
(0.00110311 1.00181e-07 1.99929e-07)
(0.000825447 1.05525e-07 7.33126e-08)
(0.000826113 -3.88216e-07 7.32545e-08)
(0.00110096 2.2281e-07 2.00519e-07)
(0.000823823 9.70592e-08 6.37119e-08)
(0.000824581 -1.0735e-07 5.67615e-08)
(0.00109895 4.10014e-08 1.88694e-07)
(0.000822269 1.44069e-07 4.13325e-08)
(0.000823024 -5.26026e-08 5.50271e-08)
(0.00109684 1.79879e-07 1.81296e-07)
(0.000820818 1.3293e-07 1.1863e-08)
(0.000821516 -6.65763e-08 1.61799e-08)
(0.00109488 2.00074e-07 1.53388e-07)
(0.000818982 9.33394e-08 1.99602e-08)
(0.000820003 -1.42378e-07 5.95499e-08)
(0.00109257 2.07888e-07 9.92768e-08)
(0.000817519 6.41047e-08 4.11822e-08)
(0.000818405 -7.58793e-08 5.92299e-08)
(0.00109031 1.32361e-07 1.81142e-07)
(0.000815922 -2.00474e-07 5.97762e-08)
(0.000816519 -2.02549e-08 2.02193e-08)
(0.00108848 9.65919e-08 1.72211e-07)
(0.000813802 -3.56669e-07 7.26986e-08)
(0.000814766 -5.40511e-07 4.53462e-08)
(0.00108588 -5.91874e-07 2.61805e-07)
(0.000813114 -1.70802e-07 6.59307e-08)