/*--------------------------------*- C++ -*----------------------------------*\
| =========                 |                                                 |
| \\      /  F ield         | OpenFOAM: The Open Source CFD Toolbox           |
|  \\    /   O peration     | Version:  5.0                                   |
|   \\  /    A nd           | Web:      www.OpenFOAM.org                      |
|    \\/     M anipulation  |                                                 |
\*---------------------------------------------------------------------------*/
FoamFile
{
    version     2.0;
    format      ascii;
    class       surfaceScalarField;
    location    "1.6";
    object      alphaPhi10;
}
// * * * * * * * * * * * * * * * * * * * * * * * * * * * * * * * * * * * * * //

dimensions      [0 3 -1 0 0 0 0];

internalField   nonuniform List<scalar> 
25552
(
-6.24181e-09
2.18115e-09
6.91472e-08
1.62925e-09
1.40872e-09
1.22695e-09
-9.23784e-09
4.62339e-08
-6.75621e-09
-2.65988e-09
1.57022e-08
3.02153e-09
-9.6248e-09
-1.17431e-08
-9.94501e-09
-1.1972e-08
2.50655e-09
3.61425e-09
-2.69072e-09
-1.13758e-08
-9.52143e-09
-5.05006e-09
-3.32482e-09
-6.21373e-08
6.42429e-09
-5.77658e-11
1.40843e-08
-6.59221e-10
-6.84782e-09
-7.11338e-09
-2.30202e-09
9.57369e-09
8.43908e-09
8.63043e-09
1.02445e-08
-4.21333e-09
1.04968e-10
-6.9098e-10
6.46658e-09
-2.3473e-16
-3.30109e-20
-7.21624e-18
5.84245e-18
-3.78546e-16
9.28804e-16
-3.29141e-16
-2.04668e-24
-2.68176e-22
-9.88495e-23
-1.49508e-21
1.84767e-21
8.62562e-21
-2.01235e-20
1.96026e-26
2.97893e-27
1.33896e-27
5.85041e-28
-5.76268e-28
7.95805e-30
2.22872e-31
-3.42511e-31
-1.32417e-32
1.25765e-35
-2.53068e-34
2.77571e-35
3.97572e-39
-4.9304e-38
-8.61557e-39
1.69381e-42
-1.07031e-41
2.13557e-42
7.274e-46
-2.93594e-45
7.05927e-47
3.11171e-49
-6.67869e-49
-1.29497e-48
1.32352e-52
-2.31125e-52
4.76379e-51
5.61091e-56
-6.50316e-56
1.12259e-53
2.36378e-59
-1.00132e-59
6.1457e-57
9.91382e-63
-5.14164e-63
-3.92861e-61
4.15934e-66
-1.22367e-66
1.51268e-64
1.73641e-69
-2.31552e-70
9.03099e-67
7.20705e-73
-1.57844e-73
-1.00354e-69
2.95018e-76
-4.5409e-77
6.56299e-74
1.22585e-79
1.89468e-80
-2.37702e-77
5.25339e-83
-6.01176e-84
-2.56326e-79
2.22308e-86
3.25029e-87
-4.75255e-82
9.71625e-90
-5.44687e-92
-7.56068e-86
5.30389e-93
-7.43513e-94
2.19005e-88
2.07295e-96
-4.9182e-97
4.11912e-92
1.06884e-99
5.4606e-100
-2.05078e-95
4.15475e-103
7.46541e-104
-4.49676e-99
6.03851e-106
-2.1257e-107
6.25275e-101
1.06669e-108
-2.25491e-109
1.75771e-104
2.0113e-112
7.84829e-114
-2.199e-107
1.52634e-115
2.79528e-116
-1.43912e-110
1.42228e-118
1.46452e-120
-2.94099e-114
2.39274e-121
2.59352e-122
-5.11394e-117
2.4369e-125
-1.70627e-125
4.44537e-122
1.27512e-128
-2.63058e-129
9.61724e-127
2.10429e-131
1.0749e-132
9.45171e-128
9.31033e-135
8.49722e-137
-3.69954e-130
1.94747e-137
3.18278e-138
-3.40616e-133
4.35452e-140
1.62192e-140
-3.50296e-136
7.10764e-144
-1.48407e-145
9.65669e-141
1.05048e-146
1.17945e-148
-9.2879e-143
1.59078e-150
4.393e-151
-2.6304e-145
4.39521e-153
-1.32687e-155
-3.2393e-150
1.77185e-153
1.0044e-156
-4.27872e-152
1.46149e-158
-1.31265e-157
8.92134e-10
-2.65067e-09
4.12444e-09
6.88942e-08
-5.44905e-08
6.9251e-08
1.91576e-08
1.33836e-08
1.30583e-08
1.59815e-08
-4.24229e-09
-2.11638e-08
-5.36741e-08
-9.52974e-09
7.37665e-09
-6.41256e-09
-2.50636e-08
-2.93683e-08
-1.13486e-07
-3.32335e-08
-5.47788e-09
-1.22366e-09
1.12025e-09
3.3004e-08
-1.18633e-08
-1.91722e-09
4.43641e-09
-3.66344e-08
-5.99698e-10
-5.56498e-10
-1.6397e-09
-8.69441e-10
2.16908e-09
-4.64381e-14
1.74282e-15
7.8913e-18
-1.14883e-15
-3.74025e-13
-1.19563e-13
3.38149e-13
-2.41408e-15
-1.09674e-14
-1.93954e-15
-1.76692e-15
6.45866e-22
-1.51845e-18
2.40279e-21
-1.0049e-19
1.41024e-19
1.97975e-19
1.59733e-18
-2.8004e-26
-3.81079e-22
5.58614e-26
3.35901e-28
-6.72592e-26
5.67846e-31
1.65197e-31
-2.07082e-29
1.61918e-32
2.90486e-35
-1.57476e-32
4.13365e-35
3.86276e-39
-9.11732e-37
3.97402e-38
1.35146e-42
-1.62676e-40
4.51553e-42
5.88196e-46
-4.69285e-44
4.02117e-46
2.60674e-49
-1.17033e-47
8.13046e-49
1.12885e-52
-3.49831e-51
4.02499e-52
4.8619e-56
8.20481e-56
-1.21517e-55
2.08749e-59
-1.88956e-58
-3.39211e-57
8.88244e-63
-3.42017e-62
-3.1132e-61
3.76995e-66
-1.29364e-65
-1.00214e-63
1.6005e-69
-3.8161e-69
6.84196e-69
6.83311e-73
-4.89826e-73
-1.3392e-70
2.90647e-76
-1.31185e-75
-2.24965e-73
1.26465e-79
-4.93804e-80
9.13099e-77
5.52852e-83
2.72602e-83
1.22519e-79
2.1818e-86
-9.88576e-88
-8.97431e-83
9.6233e-90
-4.87062e-90
-1.90233e-86
5.30436e-93
2.16716e-93
-2.59215e-88
1.91506e-96
-1.44076e-96
-2.34863e-92
1.12744e-99
7.2849e-101
-1.50584e-96
8.72285e-103
1.4606e-103
-1.57617e-98
2.21058e-106
-2.47414e-105
3.49757e-102
1.33637e-109
-1.30863e-107
4.32436e-104
7.80044e-113
1.64875e-113
-2.86171e-110
7.39681e-116
8.72757e-116
1.13083e-111
2.61821e-119
-1.76227e-120
-5.50743e-115
3.94868e-122
2.05718e-124
-9.07e-121
4.84206e-124
-1.1882e-125
-7.61484e-121
2.81944e-128
-1.16818e-128
2.41974e-124
1.13932e-131
4.42998e-132
-2.25554e-127
7.49681e-135
4.22279e-137
8.89819e-131
1.54341e-138
-9.46757e-139
7.86464e-136
6.80111e-142
1.11075e-142
4.18293e-139
4.43709e-145
3.00466e-145
4.83005e-139
9.22882e-149
2.96323e-150
3.02189e-144
9.4542e-151
-1.77603e-150
-5.20765e-146
-1.86364e-153
-8.25901e-154
-3.43347e-149
5.02874e-154
8.64921e-157
-2.70506e-152
3.82879e-158
-2.17029e-155
7.27501e-09
1.31952e-08
-3.00523e-08
-5.54552e-09
-3.37487e-08
-1.91703e-08
-2.38973e-08
2.72877e-10
6.60016e-08
1.79841e-07
-1.03204e-07
7.44939e-08
-3.91089e-08
-3.31581e-08
-3.72325e-08
-2.30759e-08
2.25241e-08
-3.74999e-09
2.85562e-08
9.59643e-10
5.06959e-08
-1.56812e-08
-1.5243e-08
1.3383e-07
-3.52104e-07
-1.89519e-08
3.18739e-07
-2.24673e-08
-2.4037e-08
-1.48489e-08
-1.85456e-08
-2.02157e-08
-4.82929e-08
1.30338e-09
1.02026e-08
-6.93991e-08
-1.88066e-10
1.11799e-09
3.25005e-09
6.83787e-09
-8.46792e-09
-2.40399e-11
1.19967e-13
1.43531e-09
4.97294e-12
1.43504e-09
7.43647e-20
6.72468e-19
-3.90127e-19
1.45489e-19
-1.57504e-17
-1.42068e-18
9.57878e-18
4.84664e-19
6.51465e-18
5.27526e-19
2.6381e-25
-6.82515e-22
-5.70806e-23
1.0227e-27
-1.11655e-25
-5.87482e-27
3.26433e-29
-4.07223e-29
-2.92041e-30
2.43712e-32
-1.12773e-32
-9.52702e-34
7.08735e-37
4.02916e-36
-4.14502e-37
1.79723e-40
-1.42132e-39
-2.4799e-40
7.51337e-44
-4.83335e-43
-6.35259e-44
3.16865e-47
-2.04945e-46
-5.15331e-47
1.32909e-50
-4.23556e-50
5.70944e-50
5.55094e-54
-2.96618e-54
-1.23327e-52
2.30889e-57
-1.31843e-57
1.7179e-56
9.55221e-61
-2.42175e-60
-1.25493e-59
3.93833e-64
-1.12918e-63
-2.26602e-63
1.61868e-67
-2.36481e-67
-3.70973e-66
6.62572e-71
-6.65283e-71
5.80886e-69
2.72212e-74
-4.25104e-74
-1.28874e-71
1.09512e-77
-1.6961e-77
1.30091e-74
4.53603e-81
-1.72673e-82
-4.17681e-78
1.80633e-84
-8.27152e-85
-1.95435e-81
7.22386e-88
-4.50337e-88
-1.46217e-86
3.41605e-91
-6.10913e-91
-7.58267e-89
1.47123e-94
-1.55469e-94
1.02585e-92
5.43298e-98
-7.45915e-98
4.33144e-96
3.57217e-101
-2.68605e-100
-4.10169e-99
1.42006e-103
6.76798e-105
-9.07318e-100
2.93778e-107
-3.48854e-109
-1.01818e-102
1.05045e-110
8.37674e-112
-1.27172e-106
1.11097e-114
-1.7386e-115
7.42834e-110
-1.62981e-118
-2.3966e-119
-1.43129e-113
7.28774e-121
3.79417e-122
-5.40381e-117
2.21461e-123
7.70098e-125
-2.52791e-119
4.56872e-127
5.02159e-126
-3.8155e-124
1.17766e-130
8.20627e-131
1.02198e-125
4.52339e-133
-3.9053e-134
-1.63498e-128
7.92289e-137
-9.91523e-136
-4.6212e-132
1.21594e-140
4.20338e-139
-1.12654e-135
2.41948e-143
1.95311e-143
8.53171e-138
8.215e-147
1.59151e-145
4.091e-142
6.14827e-149
-1.83857e-150
-1.72184e-144
-7.28621e-154
2.76515e-153
-8.44194e-148
2.75629e-153
-1.77553e-158
6.24142e-151
-4.87804e-158
1.10398e-154
1.24023e-08
7.57465e-09
2.85323e-08
4.86359e-08
-1.27729e-07
2.69612e-07
-1.73645e-07
1.039e-08
-5.0951e-09
-4.32187e-08
4.18871e-08
6.40198e-08
-4.72343e-07
2.38436e-07
-1.61596e-07
4.60802e-08
-2.3089e-08
7.14198e-08
2.43283e-08
5.73741e-08
-2.9776e-08
-6.06976e-08
-4.19766e-08
6.1799e-08
-3.86342e-09
-3.26143e-08
-1.21419e-07
-5.10989e-08
1.766e-07
-1.18105e-08
-2.78205e-08
-3.29787e-08
-2.70388e-08
1.62912e-09
-1.53397e-08
2.33045e-09
-6.67205e-10
1.26182e-08
-1.99407e-11
-7.51737e-12
6.26984e-11
-9.78123e-11
8.13718e-11
9.32032e-17
4.96284e-19
-1.96558e-08
-1.25082e-18
9.31973e-17
9.33294e-17
9.3112e-17
1.74159e-24
1.92598e-22
-3.43101e-22
2.70533e-19
2.69347e-19
2.70679e-19
2.71664e-19
-4.57761e-27
6.21113e-26
1.33772e-26
5.74167e-29
8.52127e-29
2.53441e-30
8.83136e-32
-4.25353e-32
-1.82191e-33
2.29449e-35
-1.36841e-34
1.82426e-36
1.66952e-39
-1.07254e-38
-3.63651e-41
5.93205e-43
-2.46652e-42
-1.21735e-42
2.59805e-46
-6.28982e-46
-7.13323e-47
1.13466e-49
-1.75709e-49
-7.15995e-50
4.91355e-53
-2.21912e-53
1.51016e-52
2.11095e-56
-1.37593e-56
-4.90213e-55
8.99989e-60
-7.07648e-60
8.71795e-59
3.81529e-63
-2.2752e-63
-1.94895e-61
1.612e-66
-4.77041e-67
5.03332e-65
6.79666e-70
6.86178e-70
-2.61096e-67
2.85715e-73
-1.08325e-74
-4.09721e-72
1.1979e-76
1.51491e-77
-1.67676e-73
4.90931e-80
-1.88982e-80
-1.99684e-76
2.05083e-83
-3.96209e-84
-1.12867e-80
9.63197e-87
6.39784e-92
-3.22273e-83
3.98506e-90
-4.32701e-90
-1.07298e-86
1.67616e-93
3.19265e-94
2.32534e-90
1.20463e-96
1.09008e-97
-7.21042e-93
7.34033e-100
-3.67049e-101
-9.49335e-96
1.94384e-103
-4.49183e-103
-2.66364e-98
1.12725e-106
2.81352e-108
-1.53108e-102
9.16818e-110
1.48917e-110
-7.74642e-106
2.83231e-113
-1.24004e-115
-3.05222e-109
1.17317e-116
-2.99416e-118
3.62036e-112
2.46377e-119
-3.39904e-120
-4.4124e-116
8.83367e-122
1.84971e-122
-6.06204e-118
1.33288e-125
5.63248e-126
1.40037e-121
6.8048e-129
-1.54691e-130
3.19803e-124
1.04641e-131
-3.83335e-134
4.94147e-128
1.94047e-135
-6.19886e-137
4.0288e-134
2.48716e-138
-1.34563e-140
3.00819e-134
1.6169e-141
2.54197e-142
-2.99132e-137
5.02615e-145
3.00851e-147
1.10293e-140
2.49127e-148
3.47138e-148
-6.40931e-143
1.53267e-151
7.65998e-152
-1.52183e-147
1.77567e-153
-8.10646e-155
-6.85748e-151
-2.86889e-157
5.20797e-153
-2.14658e-08
-8.38182e-09
-1.01102e-08
-1.83992e-08
-1.13149e-07
-3.97204e-08
1.3803e-07
-5.91359e-08
-1.88763e-08
2.3125e-07
-1.84461e-08
-1.68102e-08
-7.40931e-08
-9.74805e-09
-4.54453e-09
-2.17444e-08
5.18123e-09
-2.08385e-08
1.6566e-08
-2.50488e-08
-4.176e-09
-9.88694e-08
2.13699e-07
1.83788e-07
8.91527e-09
-6.91843e-08
2.32947e-08
1.56535e-08
-3.38859e-08
1.62282e-07
-5.69506e-08
4.7833e-07
-5.13901e-07
-1.08667e-09
3.06107e-09
-5.96948e-10
-3.46729e-09
1.31666e-09
-2.34761e-09
2.94915e-10
-3.72945e-10
-1.53143e-10
3.62766e-11
6.1487e-16
-6.89866e-19
-2.17123e-08
1.69399e-18
6.52262e-16
5.50981e-16
6.68739e-16
-1.62496e-18
2.49244e-24
8.19601e-21
8.23652e-22
5.88555e-18
5.8849e-18
5.8864e-18
5.8879e-18
2.4902e-25
1.25597e-24
-7.59012e-26
9.04388e-29
3.10682e-28
-5.10113e-30
1.95941e-32
-7.1999e-32
2.96104e-32
1.61363e-35
-8.23159e-35
1.00719e-36
3.54601e-39
-3.45638e-39
-4.9414e-39
1.26675e-42
-5.43311e-43
-2.60422e-42
5.55122e-46
6.54869e-47
-7.77636e-46
2.44909e-49
2.06307e-50
-2.30222e-48
1.07191e-52
4.82307e-54
5.20643e-52
4.65497e-56
3.06465e-57
-8.68876e-55
2.007e-59
-7.68587e-60
1.01526e-57
8.60956e-63
1.50185e-64
2.12742e-61
3.66773e-66
5.05722e-67
-6.76967e-64
1.5529e-69
1.40024e-70
9.95437e-68
6.5629e-73
-5.35937e-74
1.66745e-70
2.76182e-76
4.36501e-78
-2.10665e-74
1.18542e-79
-1.32686e-80
-4.94481e-76
5.07143e-83
-2.37911e-84
-2.50627e-80
2.13334e-86
-1.03208e-87
-3.8343e-83
5.83237e-90
2.48933e-91
1.69336e-86
4.19828e-93
4.89689e-94
-2.24454e-89
2.60645e-96
9.65625e-97
-1.57249e-92
9.762e-100
2.58913e-100
-3.12669e-96
9.42655e-103
-2.01457e-104
-1.20753e-97
2.17771e-106
-2.00799e-107
1.0862e-102
8.87153e-110
9.05164e-111
5.01852e-105
6.85638e-113
3.74127e-114
-3.00388e-109
4.52773e-116
2.23518e-116
-4.6069e-111
2.01194e-119
-6.03637e-120
-4.2812e-114
-7.30579e-125
6.76675e-124
5.10281e-120
7.83995e-126
2.92363e-127
2.08479e-121
1.25546e-129
-1.05277e-129
-1.92501e-126
-1.33462e-132
-3.10346e-131
1.90136e-129
2.92166e-136
-1.46383e-134
-6.29563e-133
6.66828e-139
5.12234e-139
-1.45957e-134
1.66503e-141
1.74722e-141
2.81361e-136
1.49749e-144
-1.65114e-145
4.37223e-141
5.46068e-147
7.71184e-148
2.07442e-142
2.4087e-150
1.26929e-150
-2.45077e-146
1.80468e-154
5.58839e-154
-2.79316e-149
6.93834e-158
-1.89454e-152
-1.26921e-08
-1.97829e-09
-4.67386e-10
-4.1853e-09
4.70478e-08
1.68743e-08
-1.078e-08
1.34972e-08
-6.09038e-10
1.9427e-08
5.8544e-08
3.46845e-09
-5.59777e-08
2.35473e-08
2.36005e-08
6.21261e-09
4.99579e-09
-6.40008e-10
6.0344e-09
2.28648e-08
-4.15399e-08
-2.83174e-08
-2.14546e-08
1.84856e-08
3.93403e-09
4.53629e-09
5.27544e-09
2.65935e-09
-1.64493e-08
-1.16337e-09
2.88756e-10
-1.95458e-10
4.56644e-11
6.44299e-11
-1.74622e-16
3.65801e-17
-1.82663e-08
3.80908e-17
3.31888e-17
-5.87443e-17
-5.09915e-16
1.06468e-16
3.00572e-25
-7.45031e-22
-4.09642e-22
5.72196e-18
5.72251e-18
5.72323e-18
5.72069e-18
1.58751e-25
-1.3026e-25
6.88277e-26
2.63765e-28
2.05073e-28
1.37028e-29
2.55184e-32
-2.22064e-32
1.84765e-32
1.04109e-35
-8.80425e-36
-1.40595e-36
2.07236e-39
5.27561e-39
4.49368e-39
7.3135e-43
1.17671e-42
-4.15267e-42
3.32133e-46
4.0984e-46
3.01043e-45
1.51505e-49
1.28107e-49
5.47878e-49
6.81889e-53
7.17819e-53
-5.03176e-51
3.03089e-56
1.48021e-56
-2.14099e-54
1.33402e-59
4.57581e-60
2.10474e-57
5.81481e-63
-2.05221e-63
-1.78984e-60
2.51023e-66
6.55341e-67
1.45224e-63
1.07862e-69
1.63829e-70
9.44087e-68
4.61576e-73
2.38542e-74
-3.60909e-70
2.08327e-76
-3.19545e-77
2.0604e-73
9.56669e-80
1.51545e-80
-5.73454e-76
3.73636e-83
-1.09823e-84
-3.30207e-81
1.71379e-86
-1.37466e-88
-1.63196e-82
1.08079e-89
8.86253e-91
-6.16591e-86
1.05368e-92
4.80559e-93
-8.21054e-89
6.27358e-96
6.17012e-96
-1.24623e-91
1.55149e-99
-2.35577e-100
4.34347e-96
3.98118e-103
2.09068e-104
7.10394e-99
4.04971e-106
7.47667e-108
-3.98746e-101
3.12831e-109
3.50113e-110
-7.88205e-105
9.00454e-113
-5.53059e-115
-1.99501e-108
6.77734e-116
-3.21346e-117
-4.31021e-111
3.71576e-119
2.92526e-120
-7.55814e-114
1.29764e-122
-1.29472e-123
-1.71212e-120
8.6198e-126
-1.35002e-126
5.802e-122
1.07479e-127
8.27345e-130
-4.01076e-124
1.37473e-130
1.70673e-133
-1.052e-126
1.49703e-134
-5.1876e-137
-3.46417e-130
7.13251e-138
9.20234e-140
5.50072e-135
2.61473e-141
-5.04979e-143
5.06705e-136
1.66979e-144
-1.74981e-146
-1.68673e-140
3.45406e-147
1.18727e-148
-5.89803e-144
2.75513e-151
2.02401e-153
2.31068e-147
-5.46677e-153
1.41854e-155
2.35151e-149
1.27525e-157
1.16473e-154
5.53664e-08
-2.09567e-08
1.32948e-07
4.07467e-08
2.35393e-08
1.77411e-08
-1.17081e-08
-1.19586e-08
-1.17676e-08
-1.29492e-08
-3.4011e-08
-1.00243e-07
-2.60088e-08
-3.29963e-08
3.06078e-08
3.76533e-08
-2.47383e-08
-1.63145e-08
-1.13129e-08
-1.34445e-08
-6.83091e-09
-1.79922e-08
-7.24935e-09
-8.77119e-09
2.78484e-08
2.64237e-09
-6.26816e-08
-3.66966e-08
-3.27289e-09
2.11514e-08
-9.10385e-09
-1.01091e-08
-7.59754e-09
2.90617e-08
3.63413e-09
1.31465e-08
1.53729e-08
-1.6789e-10
6.96992e-09
1.45655e-08
1.2838e-10
-2.25707e-09
-1.87546e-08
-6.17969e-10
1.30313e-10
-2.05144e-11
-9.39718e-11
2.56512e-10
-4.48314e-16
-5.03614e-18
-3.4828e-08
-3.4828e-08
-4.44657e-18
-4.49056e-16
-4.54799e-16
-4.48115e-16
2.51674e-24
1.34177e-21
1.20491e-22
2.55174e-19
2.5395e-19
2.56884e-19
2.56699e-19
4.64882e-27
1.81281e-25
-4.96325e-27
-4.51078e-29
5.07527e-29
8.57097e-31
8.76433e-32
5.36039e-32
4.13891e-33
2.84689e-35
1.27101e-34
-3.72833e-37
2.20697e-39
1.42628e-38
1.24205e-39
7.84503e-43
2.92216e-42
2.60184e-43
3.37859e-46
7.56984e-46
-1.04765e-46
1.45372e-49
2.12768e-49
2.60775e-49
6.21658e-53
5.44297e-53
1.05606e-51
2.6435e-56
6.76571e-57
-1.34266e-56
1.1191e-59
3.9265e-60
-3.50966e-58
4.70404e-63
8.17111e-64
-4.51581e-61
1.96761e-66
2.10215e-67
-1.29327e-67
8.19676e-70
5.67423e-71
1.14166e-67
3.41794e-73
2.56497e-74
4.11751e-72
1.41773e-76
1.67063e-77
-3.58527e-74
5.79168e-80
4.15645e-82
2.29901e-78
2.38402e-83
-4.20522e-85
5.63536e-82
1.09612e-86
-3.07076e-88
-9.03851e-84
5.66214e-90
4.85397e-90
-3.7213e-86
1.90609e-93
8.54109e-95
-1.27892e-93
7.77542e-97
-1.71321e-98
6.46815e-96
3.49615e-100
-1.54072e-102
-2.56118e-96
1.32108e-103
3.70288e-105
5.62795e-101
6.03988e-107
-1.55649e-108
3.21008e-103
2.79365e-110
8.30955e-113
-7.84785e-106
1.39187e-113
-4.55795e-116
4.92694e-109
1.08243e-116
-6.46245e-119
-5.65948e-113
1.78052e-119
-4.39423e-121
-1.3408e-116
1.3968e-122
9.01461e-124
-1.90924e-118
1.14338e-125
-2.79352e-128
-1.67914e-121
2.16464e-129
-5.78752e-132
-7.86919e-125
1.39827e-132
4.25793e-134
1.83141e-127
4.2179e-136
7.83622e-138
7.02903e-131
3.07531e-139
1.81168e-141
1.21815e-136
7.8114e-142
9.44397e-144
-1.34687e-137
4.81251e-145
1.51352e-148
-6.65341e-141
2.41363e-147
-2.96176e-149
-1.30785e-143
1.60472e-151
-1.65121e-154
2.09627e-150
1.14608e-153
-2.49041e-156
1.50657e-151
3.53179e-157
-3.4889e-153
-3.81921e-08
2.47101e-08
4.85466e-09
-5.43373e-08
-3.17858e-08
-1.62665e-08
-7.51282e-09
-5.95851e-08
-1.14648e-08
2.48018e-08
9.56599e-08
3.36898e-08
-3.63556e-07
2.88042e-08
9.36043e-08
1.95713e-08
2.67514e-08
1.98975e-08
1.55274e-08
-2.57698e-08
2.29707e-09
4.77198e-09
3.70551e-09
2.93935e-09
5.6013e-10
-1.2504e-07
1.00291e-08
1.78684e-08
1.73662e-08
1.81607e-08
1.57166e-08
-4.23543e-10
1.9377e-08
-4.38916e-09
-4.70865e-09
-1.03832e-08
-2.14348e-11
-8.45743e-11
1.46144e-09
-2.64478e-11
1.45687e-09
2.96124e-21
6.85958e-19
-4.70481e-19
-3.95136e-17
-1.56651e-19
5.37377e-17
-2.92307e-18
5.21897e-18
5.58126e-18
1.48888e-19
5.54682e-18
-7.57943e-26
1.25662e-22
8.26144e-25
4.65957e-28
1.28127e-26
-9.28126e-28
2.87499e-29
4.27119e-30
6.28095e-32
2.193e-32
1.09691e-32
6.90105e-35
7.1267e-37
5.46285e-37
7.88899e-38
1.69002e-40
8.04906e-41
3.0538e-41
7.03165e-44
1.77709e-44
-7.95962e-44
2.96343e-47
6.18978e-48
2.41619e-47
1.24364e-50
4.00177e-52
1.96311e-49
5.19592e-54
3.18007e-55
9.38734e-53
2.16386e-57
8.06828e-59
-1.22447e-55
8.96122e-61
2.97535e-62
-5.55165e-59
3.69218e-64
5.73493e-66
-2.03749e-63
1.52055e-67
2.98856e-69
4.91505e-66
6.2348e-71
3.8754e-72
-8.31384e-69
2.53468e-74
-9.61005e-77
-9.73545e-73
1.03222e-77
-1.87385e-80
-1.46154e-75
4.16299e-81
9.40397e-83
-6.9151e-79
1.76943e-84
6.14935e-87
-2.58265e-82
6.73111e-88
2.49585e-90
-5.68855e-85
2.91443e-91
4.98087e-93
-4.51281e-90
1.44382e-94
-3.52011e-97
-4.08282e-91
4.53428e-98
-3.16037e-99
6.85495e-96
2.54363e-101
3.21608e-103
-1.83839e-97
1.13379e-104
5.3095e-106
-1.12679e-101
4.80784e-108
-3.67367e-110
9.16048e-105
2.24967e-111
-2.15656e-114
-5.46322e-107
7.27478e-115
1.56819e-116
-5.22509e-110
4.23359e-118
-6.78766e-120
2.79954e-113
1.4308e-120
1.8684e-124
-2.32927e-117
3.50829e-124
7.68392e-127
-6.12622e-120
6.75554e-129
7.53393e-130
1.16596e-124
7.80773e-131
3.96574e-134
-7.11617e-128
1.52549e-133
2.43769e-135
1.76792e-129
-1.90847e-139
-4.5013e-139
1.24195e-132
3.19284e-140
4.37069e-142
-7.61782e-136
4.91689e-144
5.66195e-146
-6.25842e-139
2.18223e-147
6.70722e-149
1.61376e-143
1.08426e-149
-5.16473e-152
-9.62301e-147
-1.43588e-153
-8.08602e-154
4.66955e-150
6.89787e-154
-1.50477e-156
4.35152e-153
6.47112e-159
-4.76237e-155
-9.92664e-10
-8.75596e-09
-2.23712e-08
3.58031e-08
3.23619e-08
8.07533e-08
1.55767e-08
6.5763e-09
-9.18286e-09
1.56184e-08
3.10651e-08
2.86399e-08
4.71008e-08
2.92733e-08
-3.51194e-09
1.80205e-08
4.87426e-08
7.97978e-09
5.1995e-08
1.69719e-08
-7.43291e-10
-6.95796e-11
-3.98417e-09
-2.69351e-09
1.39275e-08
7.44516e-09
1.09976e-08
1.67962e-08
3.04011e-08
7.20296e-09
5.22911e-09
-2.56114e-09
-1.30471e-08
-1.65657e-09
2.19357e-09
5.72147e-10
-1.86023e-09
3.64363e-10
1.41606e-13
-5.15334e-13
-2.46877e-08
1.82564e-12
-2.46878e-08
1.03501e-21
1.21489e-21
-4.70547e-21
4.07118e-20
4.96817e-20
1.32856e-20
5.96615e-19
-1.2426e-27
8.18069e-26
-1.26282e-25
1.22228e-28
1.44002e-27
-1.86299e-29
2.2396e-31
1.29176e-30
1.18507e-32
3.47143e-35
6.79626e-35
2.01107e-35
4.40762e-39
2.04399e-38
4.95811e-39
1.59668e-42
5.18617e-42
6.83963e-42
6.87991e-46
1.42445e-45
2.82473e-45
2.97678e-49
3.64969e-49
8.35256e-48
1.28067e-52
9.9937e-53
2.48178e-52
5.47742e-56
3.54731e-56
-3.07628e-54
2.32987e-59
2.47783e-60
-3.38043e-57
9.849e-63
-1.22266e-63
-6.96673e-61
4.14491e-66
3.39604e-67
-2.90421e-64
1.73691e-69
1.27931e-69
4.44216e-67
7.24233e-73
-2.04168e-74
-5.37692e-70
3.17179e-76
6.99021e-77
-2.46472e-74
1.60053e-79
1.28088e-81
-2.01519e-76
5.52343e-83
1.46003e-85
-4.09214e-80
2.22645e-86
3.42461e-87
4.80603e-84
9.14415e-90
-2.91089e-91
-2.49558e-86
3.82429e-93
-8.0736e-94
-9.45256e-90
3.34492e-96
-7.9241e-98
-2.40912e-93
1.49439e-98
-3.80017e-101
-4.88334e-95
1.04551e-102
-4.5681e-104
-1.27553e-100
2.98679e-106
-1.04628e-106
3.86557e-105
1.79375e-109
-5.26784e-110
3.51116e-107
2.79308e-112
5.51032e-114
-3.11206e-108
7.69829e-116
2.49495e-117
-1.37282e-110
3.56372e-119
-2.31769e-118
-3.66472e-114
8.74306e-123
-4.15647e-124
7.77341e-120
6.20269e-126
1.41893e-127
1.18095e-123
2.35997e-128
1.58888e-129
-1.64151e-124
3.00129e-131
-5.19481e-133
-2.16818e-127
3.13454e-134
6.35921e-135
-5.38871e-130
3.93294e-138
1.78068e-138
-8.33258e-134
1.56398e-141
-2.30916e-142
-9.74779e-139
3.15807e-145
-6.18356e-145
1.21196e-141
6.11072e-148
-1.09054e-148
-5.28458e-145
2.03014e-150
1.06091e-151
-6.1394e-147
1.17623e-153
-4.14713e-154
-1.37635e-149
1.18856e-153
-5.53138e-157
-2.70437e-152
-3.95682e-158
3.06236e-156
5.17464e-08
6.84078e-08
1.73276e-08
5.62508e-08
1.85222e-08
1.6077e-08
2.10387e-08
-1.38431e-08
3.09201e-08
1.99156e-08
-7.08314e-09
7.48104e-08
6.60074e-08
-6.99114e-09
1.17537e-09
2.81539e-08
-5.86383e-09
-3.21602e-08
-2.18467e-08
6.32444e-10
-4.94905e-08
-1.9579e-09
-1.73286e-09
3.7753e-09
2.68669e-09
-5.45984e-09
1.41656e-15
-3.47341e-16
-6.31017e-19
-2.28154e-17
1.2653e-17
-7.63535e-16
-9.08799e-15
8.49691e-15
-2.93544e-16
-4.00807e-16
-4.01074e-16
7.78707e-25
4.16385e-23
3.3805e-21
-1.8009e-22
2.07415e-21
-6.18335e-21
-1.24974e-26
-7.62556e-28
1.36703e-27
1.31338e-29
2.06648e-31
1.66631e-31
1.15776e-35
-2.69562e-35
3.74699e-39
1.85149e-38
1.59507e-42
-1.78178e-41
6.8425e-46
-7.54864e-45
2.92329e-49
1.74649e-47
1.24086e-52
-1.24376e-51
5.25025e-56
1.31218e-53
2.22061e-59
-1.38767e-56
9.34296e-63
-1.13927e-59
3.87514e-66
3.05292e-63
1.60902e-69
4.52925e-67
6.65728e-73
-8.5408e-70
2.76149e-76
2.85863e-73
1.1457e-79
1.01123e-75
4.79887e-83
2.95533e-80
2.09626e-86
-3.38496e-82
1.09703e-89
-3.07565e-86
1.0948e-92
-1.47904e-88
2.31538e-96
-1.79702e-92
1.90357e-99
2.6207e-96
2.772e-102
-4.65673e-98
1.19447e-105
-2.02365e-101
5.70496e-109
-1.58446e-104
1.77463e-112
-1.91533e-108
3.5668e-115
-3.55743e-110
1.96071e-118
-2.23628e-114
9.46362e-122
8.13221e-118
2.9427e-124
-2.9638e-120
2.04343e-128
-1.33453e-127
7.43792e-132
2.3427e-128
6.8035e-135
1.23403e-132
4.18577e-137
-2.80134e-133
3.86857e-141
6.06543e-137
4.97547e-144
-1.47473e-139
3.75387e-147
-9.03927e-143
1.21599e-150
8.21177e-146
2.61469e-154
-1.24011e-149
7.47343e-154
5.8316e-152
4.83503e-156
3.48237e-09
-4.93076e-09
-6.9808e-08
-2.88172e-08
-6.16309e-08
-1.40517e-07
-1.90185e-09
-3.45135e-09
-4.16948e-09
4.36538e-09
3.87684e-09
5.18438e-09
-8.37865e-09
8.35154e-09
4.85482e-09
-1.84386e-09
-1.65639e-08
6.07774e-08
-2.62151e-08
7.45214e-09
-1.50315e-08
-4.75895e-08
6.73457e-08
3.87674e-07
2.31445e-09
-1.69118e-07
-1.10861e-09
-1.94928e-07
8.23089e-09
-1.8389e-08
-1.83147e-08
-2.12004e-08
-1.87693e-08
-2.06725e-08
-1.80369e-09
1.33813e-10
-8.43735e-10
2.45187e-08
8.07924e-15
-4.72652e-17
1.03708e-18
2.89662e-16
2.33398e-16
-1.23029e-14
1.24146e-14
-9.19962e-15
5.02639e-23
2.2769e-21
1.23402e-22
5.75418e-21
-1.4634e-20
1.03013e-20
-1.16419e-20
1.50589e-25
4.7543e-26
-1.04198e-27
1.80546e-26
-4.23906e-27
-9.73287e-30
2.49833e-29
-8.80599e-30
-1.73037e-32
1.69364e-33
-5.72726e-33
4.8724e-35
4.42677e-37
-1.76176e-36
-2.19295e-39
3.41462e-40
-8.47861e-40
-3.93208e-41
2.48031e-43
-3.62702e-43
-6.21912e-45
1.75283e-46
-2.13954e-46
-8.15024e-48
1.23439e-49
-7.06283e-50
-4.02858e-51
8.66235e-53
-5.28624e-53
-1.22722e-53
6.05062e-56
-1.29371e-56
-9.7934e-58
4.21387e-59
-1.03915e-59
5.01262e-60
2.92446e-62
-1.78136e-63
4.79103e-64
2.02119e-65
-1.76077e-66
2.13008e-67
1.39278e-68
9.16738e-70
6.35476e-71
9.56386e-72
-6.04532e-73
-1.12278e-73
6.54286e-75
-1.3222e-76
4.26169e-76
4.4632e-78
-1.91766e-79
-9.46186e-80
3.03506e-81
-4.24332e-83
2.39028e-82
2.05706e-84
-2.44939e-86
8.47066e-86
1.38939e-87
-1.64784e-89
6.58872e-89
9.35544e-91
2.48967e-94
-2.47864e-92
6.27821e-94
3.03252e-94
-1.29483e-95
4.20262e-97
1.57502e-97
4.92122e-101
2.8063e-100
-2.22215e-101
-6.2152e-101
1.86939e-103
-9.30863e-105
2.39976e-104
1.24192e-106
1.06554e-107
1.33351e-107
8.2217e-110
6.13758e-111
7.22454e-111
5.42358e-113
7.86973e-114
-5.69407e-114
3.56995e-116
-2.8965e-117
3.1796e-117
2.34503e-119
3.78664e-121
-1.02947e-123
1.53614e-122
-7.76619e-124
1.19923e-123
1.00378e-125
9.66418e-127
1.30335e-127
6.54032e-129
-3.67943e-131
9.87481e-131
4.25054e-132
4.93797e-133
7.27028e-134
2.7538e-135
1.14754e-135
-2.53416e-140
1.77907e-138
-1.22341e-139
2.52711e-139
1.14634e-141
-1.34483e-142
1.8168e-142
7.37331e-145
-8.13876e-146
-1.89705e-145
4.72871e-148
-2.21005e-149
1.97008e-149
2.92881e-151
-1.22447e-152
2.72968e-152
3.19784e-155
7.78451e-155
3.60453e-09
-1.15239e-07
-5.45704e-08
-1.63543e-07
1.79585e-08
-4.70191e-08
9.58875e-08
-5.59623e-10
-1.34505e-11
3.43074e-10
-2.74609e-09
-1.02247e-09
1.67531e-08
6.01577e-08
6.58913e-09
2.98306e-09
6.90714e-09
1.65706e-08
-1.01283e-07
-1.11617e-09
-7.66011e-08
2.33489e-08
-8.31295e-08
2.31086e-08
2.41155e-08
-3.13175e-07
-5.88509e-09
-2.29228e-08
-2.82142e-07
1.73689e-08
2.2462e-08
1.73473e-08
3.33939e-08
1.41447e-08
1.70531e-08
1.91773e-09
9.48692e-09
-7.85963e-10
-5.15352e-11
-2.82122e-08
-4.92674e-14
1.11479e-14
2.974e-15
5.98587e-17
-3.86768e-15
-1.03474e-12
1.50204e-13
1.25945e-12
-3.15799e-14
-5.09807e-14
-9.64864e-15
-9.57893e-15
7.22723e-21
-8.53878e-18
-2.11069e-21
3.20357e-19
6.39346e-18
6.69371e-19
6.43392e-18
5.98828e-25
-1.81615e-21
-5.16002e-26
-1.5735e-27
-8.02975e-25
-1.54069e-30
1.47088e-30
-4.80153e-28
-9.87462e-33
5.83541e-34
-5.18594e-32
-1.5255e-35
1.27643e-37
-2.52347e-35
-2.5021e-38
7.90084e-41
-1.16005e-38
-8.03616e-42
6.23785e-44
-4.7128e-42
-8.69554e-46
4.65471e-47
-1.90242e-45
1.12046e-47
3.40643e-50
-8.0191e-49
6.2859e-52
2.4762e-53
-3.23542e-52
3.29221e-54
1.78785e-56
-1.22994e-55
-8.79585e-57
1.2834e-59
-5.39024e-59
-1.93759e-61
9.16007e-63
-4.36255e-62
-1.10303e-63
6.49962e-66
-7.00406e-66
3.4524e-67
4.59227e-69
5.34977e-70
-9.49774e-71
3.23068e-72
-3.3232e-72
1.35798e-73
2.26107e-75
-6.02667e-77
2.0911e-76
1.57589e-78
-1.97308e-79
-1.31226e-80
1.0938e-81
5.06702e-83
5.64959e-83
7.56213e-85
-4.31047e-85
2.03601e-86
5.20693e-88
2.32703e-88
-3.94475e-90
3.57282e-91
-2.51149e-91
3.69862e-92
2.44491e-94
2.21189e-95
1.44936e-95
1.66884e-97
1.73151e-98
1.70412e-98
1.13562e-100
-1.19495e-100
3.25754e-101
7.6999e-104
-4.3206e-104
5.73019e-105
5.20455e-107
1.3065e-107
2.96185e-108
3.50791e-110
-4.21879e-111
-7.42821e-112
2.35705e-113
1.36064e-114
1.51211e-114
1.57978e-116
-1.76577e-117
4.42034e-118
1.05492e-119
-1.71971e-120
2.34607e-120
7.02107e-123
3.33775e-124
2.36094e-126
4.66388e-126
3.95578e-127
-5.22528e-127
3.08844e-129
6.21266e-130
1.06175e-130
2.04053e-132
1.54542e-133
-3.41727e-135
1.34648e-135
-2.62415e-137
3.07548e-136
8.85662e-139
6.64819e-140
-3.7898e-139
5.80608e-142
-6.67369e-145
2.54844e-143
3.80005e-145
2.50507e-145
8.06914e-146
2.48099e-148
-3.21953e-151
3.06098e-149
2.10953e-151
5.29667e-152
2.35604e-152
5.44213e-156
3.12339e-157
-9.61861e-08
-4.87235e-08
3.3648e-09
-1.01276e-07
-9.84806e-08
-9.49524e-08
-9.04182e-08
-1.08249e-07
-1.05935e-07
-1.08524e-07
-1.08275e-07
8.48728e-09
1.30603e-08
1.6036e-08
2.79287e-08
-1.75021e-08
2.50854e-08
1.61546e-07
1.02624e-09
-1.33404e-08
-9.77786e-08
1.94982e-09
1.02772e-08
-2.12849e-08
-1.11647e-08
1.11732e-07
6.50537e-08
2.13116e-07
1.96227e-07
-4.42797e-08
-2.54911e-08
1.83005e-08
-2.28311e-08
1.94897e-08
1.63456e-07
5.36034e-08
1.48948e-09
-1.53361e-08
5.09914e-09
6.35348e-09
-5.12279e-08
3.77675e-11
-5.90955e-12
1.78985e-13
-1.97859e-12
3.1692e-12
1.26832e-13
-4.39441e-20
-8.3375e-18
4.12918e-19
1.9525e-18
-2.51155e-17
2.52401e-18
-2.35741e-17
-1.26327e-17
-4.23453e-18
-1.25892e-17
1.86097e-23
-4.02808e-21
5.02513e-23
1.88766e-26
-1.77275e-24
6.00822e-27
1.67201e-29
-8.35279e-28
2.21165e-30
1.29445e-32
-4.69681e-31
6.06745e-34
7.82787e-36
-2.06117e-34
3.07762e-37
5.34745e-39
-8.86383e-38
4.75177e-41
3.73618e-42
-3.71296e-41
4.65936e-45
2.59916e-45
-1.76202e-44
-7.82567e-49
1.80098e-48
-7.71206e-48
-8.1742e-52
1.24422e-51
-1.53696e-51
-7.3197e-53
8.5683e-55
-7.89753e-55
7.95434e-58
5.89049e-58
-7.7024e-58
-7.42007e-60
4.03766e-61
-2.79404e-61
2.49893e-62
2.7612e-64
-2.40281e-64
5.02448e-66
1.88505e-67
3.47902e-68
-1.68093e-68
1.28304e-70
-4.96211e-71
2.93723e-72
8.70415e-74
1.33416e-73
5.60635e-75
5.89628e-77
-2.93936e-77
2.138e-78
3.98499e-80
-4.58044e-81
6.38665e-82
2.68526e-83
1.82383e-83
1.90388e-86
1.80857e-86
4.61471e-87
-6.49861e-89
1.21569e-89
-8.8392e-90
1.84085e-90
8.15008e-93
1.79373e-93
2.20742e-95
5.46009e-96
-3.47538e-97
6.02888e-99
3.64523e-99
1.04568e-99
1.05791e-100
2.42527e-102
2.12904e-103
-3.60256e-104
1.61231e-105
3.45419e-106
8.4924e-107
1.0698e-108
-1.23443e-109
-1.96545e-110
7.08107e-112
-5.36806e-113
3.76461e-113
4.68055e-115
1.66529e-116
6.44164e-117
3.08611e-118
2.45464e-119
4.33728e-120
2.02893e-121
1.88813e-121
4.86074e-123
1.33188e-124
2.05985e-125
8.3608e-126
8.72831e-128
9.5703e-129
4.11475e-131
5.71551e-131
-9.35054e-131
1.59276e-133
3.73794e-134
-2.08412e-134
-1.86113e-137
2.43775e-137
1.19848e-137
-6.34944e-139
1.58626e-140
4.31098e-141
-3.91964e-142
1.03043e-143
1.79051e-144
2.07768e-144
6.67858e-147
1.12673e-147
5.35741e-148
4.29572e-150
7.19248e-151
7.52845e-152
-1.95514e-153
-2.8062e-154
1.45099e-08
-9.33291e-08
1.48788e-07
-2.06757e-08
3.2889e-07
-1.18733e-08
-3.44508e-07
-3.05843e-08
-2.19357e-08
-4.76834e-09
3.53115e-07
-1.54585e-08
-1.61848e-07
-3.8311e-08
-1.43132e-08
8.76003e-08
-4.65169e-08
-2.31101e-08
-8.91555e-08
6.50454e-09
5.71067e-09
1.33607e-07
2.15624e-08
-4.44867e-07
5.29917e-09
-1.7682e-08
4.26845e-09
-1.80499e-08
1.62816e-07
-5.5611e-08
2.82947e-09
-1.56986e-08
6.05079e-09
5.82964e-10
6.48233e-08
-4.0369e-11
1.93102e-10
-1.77769e-10
1.89426e-10