/*--------------------------------*- C++ -*----------------------------------*\
| =========                 |                                                 |
| \\      /  F ield         | OpenFOAM: The Open Source CFD Toolbox           |
|  \\    /   O peration     | Version:  5.0                                   |
|   \\  /    A nd           | Web:      www.OpenFOAM.org                      |
|    \\/     M anipulation  |                                                 |
\*---------------------------------------------------------------------------*/
FoamFile
{
    version     2.0;
    format      ascii;
    class       volScalarField;
    location    "1.6";
    object      alpha.water;
}
// * * * * * * * * * * * * * * * * * * * * * * * * * * * * * * * * * * * * * //

dimensions      [0 0 0 0 0 0 0];

internalField   nonuniform List<scalar> 
8577
(
1.00282
1.00898
1.08803
1.10423
0.980703
1.00196
-1.10583e-14
-3.66209e-18
7.17983e-17
6.67236e-18
2.9632e-20
4.49458e-24
2.89878e-28
9.65592e-32
3.93961e-35
1.64399e-38
6.69997e-42
2.80735e-45
1.16913e-48
4.63367e-52
2.0393e-55
8.48192e-59
3.70612e-62
1.31149e-65
5.29911e-69
3.11744e-72
1.76977e-75
4.36762e-79
8.7038e-82
2.13679e-85
2.68008e-88
2.07211e-92
6.92456e-95
2.39339e-97
4.804e-101
4.56523e-104
2.15401e-107
6.00584e-110
5.432e-114
4.1663e-118
3.20616e-120
2.32458e-123
2.56421e-126
8.94695e-129
9.34968e-133
2.55598e-135
4.45443e-139
2.25762e-143
1.08368e-144
4.68586e-146
1.03842
1.03615
1.02877
0.982099
1.02932
0.957919
-1.51234e-19
-5.32955e-18
-1.82057e-21
2.94519e-19
5.41474e-21
8.05903e-24
1.19019e-27
1.26123e-31
4.36576e-35
1.79901e-38
7.57804e-42
3.16667e-45
1.335e-48
5.31592e-52
2.20147e-55
9.10812e-59
4.41044e-62
1.96179e-65
9.17703e-69
5.69318e-72
1.52068e-75
5.69483e-79
5.92802e-82
2.38039e-85
1.08585e-88
2.17817e-91
2.33838e-95
4.4074e-98
1.09711e-101
2.14963e-104
8.09509e-108
5.62798e-112
2.19902e-113
1.38425e-116
2.02021e-120
2.56756e-123
1.90619e-127
3.76306e-131
1.36756e-133
5.56523e-137
1.83533e-139
3.2086e-143
2.74097e-145
2.81977e-146
1.01075
1.00488
1
1.00729
1.05663
0.990705
0.049214
-1.56469e-17
-4.57033e-19
2.79989e-23
3.15542e-20
8.41688e-22
3.16246e-25
8.4322e-30
2.22881e-33
8.99332e-37
3.66569e-40
1.4943e-43
6.09951e-47
2.46016e-50
1.00193e-53
4.04391e-57
1.63848e-60
6.68297e-64
2.69222e-67
1.23494e-70
5.0123e-74
1.73163e-77
7.70469e-81
7.00351e-84
1.3924e-87
4.78837e-91
8.59519e-93
9.74971e-96
1.16301e-99
3.14739e-103
1.38851e-106
2.20847e-110
2.33974e-112
2.05164e-115
5.18662e-119
1.31077e-122
3.1269e-125
3.63865e-129
4.37878e-132
2.07695e-135
8.50478e-138
4.11658e-141
1.03282e-144
1.41325e-145
1.17628
0.967625
1.02399
1.0294
0.988933
0.984829
0.878024
-7.95723e-18
2.6283e-15
4.1159e-17
5.12248e-20
1.61633e-21
4.42469e-24
4.81801e-28
4.42651e-32
1.61233e-35
6.62777e-39
2.75209e-42
1.12656e-45
4.60351e-49
1.89199e-52
7.7077e-56
3.45611e-59
1.42423e-62
6.87649e-66
2.33441e-69
8.93191e-73
8.575e-76
3.91255e-79
7.55245e-83
1.46326e-85
2.03373e-88
3.7795e-92
8.25947e-96
2.21512e-98
3.95385e-102
1.48214e-105
1.94158e-108
1.17861e-110
6.18431e-114
7.60991e-118
2.35822e-120
2.60453e-124
4.99018e-127
5.36499e-130
2.05886e-133
5.20247e-137
2.27041e-140
1.78445e-143
2.82653e-145
1.05804
1.00195
0.952169
1
1.05346
1.01276
1.00015
-3.0612e-24
-4.2857e-19
2.53541e-16
5.88804e-18
3.99585e-21
4.44356e-24
1.08776e-27
1.33576e-31
4.53953e-35
1.87367e-38
7.82394e-42
3.2621e-45
1.36025e-48
5.62275e-52
2.37032e-55
9.63591e-59
4.02397e-62
1.64778e-65
8.89569e-69
2.9826e-72
1.64505e-75
8.17197e-79
4.34014e-82
3.71922e-85
5.19016e-89
1.68526e-91
2.89675e-95
5.50064e-99
3.69515e-102
2.07513e-104
7.09545e-108
6.05671e-112
1.19487e-114
1.95453e-118
4.13569e-122
1.50326e-125
6.67225e-128
3.97361e-130
1.38134e-133
9.83742e-136
6.16977e-139
6.75066e-142
3.5032e-145
1.02675
1.02591
1.02551
0.983892
1.01825
0.987711
1.00054
-2.00357e-20
-8.78829e-19
2.01169e-16
4.93295e-18
3.60624e-21
3.50411e-24
8.05077e-28
1.0663e-31
3.70018e-35
1.53435e-38
6.48445e-42
2.68741e-45
1.13986e-48
4.70948e-52
1.93456e-55
7.98316e-59
3.46006e-62
1.3908e-65
1.43509e-68
2.82878e-72
1.15442e-75
1.32486e-78
1.89066e-81
2.43538e-84
2.33679e-88
6.5221e-92
3.5103e-95
7.04451e-98
1.58831e-101
7.11657e-105
1.44758e-107
1.39088e-111
3.12201e-115
6.42504e-117
2.34594e-119
1.12815e-122
1.41211e-126
4.28872e-130
4.11478e-133
6.73983e-137
1.79022e-140
9.10052e-144
2.73614e-145
1.03542
0.954933
0.79553
0.989895
0.931318
1.04698
1.00004
-1.22099e-17
3.11484e-15
3.88078e-17
4.81375e-20
1.67884e-21
5.01978e-24
5.78132e-28
4.98696e-32
1.79747e-35
7.38556e-39
3.04298e-42
1.25294e-45
5.14318e-49
2.22755e-52
8.66446e-56
3.62893e-59
1.44502e-62
7.35768e-66
2.43534e-69
9.64799e-73
4.86504e-76
9.0503e-79
1.50313e-82
3.40543e-86
3.76791e-89
7.03812e-93
6.51896e-96
2.05622e-99
3.19734e-102
1.15944e-105
3.84339e-108
3.37438e-111
3.93718e-114
3.45664e-118
2.94732e-121
1.14547e-124
1.13301e-128
1.18688e-130
2.6236e-134
2.59488e-136
7.51938e-140
3.96608e-144
3.31148e-145
1.04095
1.00093
0.987431
1.03183
1.0163
1.00017
0.697758
-1.8765e-17
-1.40414e-19
4.7179e-23
3.28025e-20
8.96273e-22
3.47972e-25
9.40273e-30
2.46528e-33
9.94619e-37
4.05289e-40
1.64946e-43
6.71779e-47
2.7467e-50
1.10311e-53
4.51924e-57
1.84918e-60
7.26005e-64
2.91987e-67
1.31739e-70
6.72048e-74
2.10435e-77
7.87765e-81
9.48521e-84
1.7318e-87
2.89888e-90
1.64888e-93
3.19212e-97
2.03163e-100
4.79613e-103
5.90627e-107
1.56272e-109
8.72435e-113
5.77271e-117
1.36794e-120
1.73026e-122
1.7681e-125
1.00771e-128
1.13914e-132
1.43018e-136
5.7739e-140
2.19174e-143
2.77943e-145
5.06656e-146
0.996119
1.00357
0.9996
1.0064
0.999891
1
0.0112206
-3.46404e-18
-2.12964e-21
2.24818e-19
6.04102e-21
9.40118e-24
1.14751e-27
1.28989e-31
4.592e-35
1.89269e-38
7.90675e-42
3.28523e-45
1.36638e-48
5.61205e-52
2.29227e-55
9.57277e-59
3.86867e-62
1.62111e-65
1.71364e-68
3.64765e-72
1.19447e-75
5.18592e-79
2.26558e-82
9.54267e-86
1.25818e-87
3.91353e-91
2.57429e-95
7.02357e-99
4.42049e-101
2.15253e-104
9.10583e-108
1.20398e-111
2.20579e-115
2.45033e-117
5.25345e-120
8.47359e-123
1.47268e-126
1.10302e-130
3.30134e-134
1.59115e-137
1.99316e-139
4.22862e-142
7.82859e-145
5.68964e-146
1.04914
1.01225
0.880252
0.99955
0.85085
0.979553
-2.30073e-20
-7.99168e-22
6.79806e-17
7.25841e-18
3.00753e-20
3.93768e-24
2.67285e-28
9.08093e-32
3.72765e-35
1.5599e-38
6.32608e-42
2.60368e-45
1.08492e-48
4.97516e-52
1.82812e-55
7.45765e-59
3.00588e-62
1.28215e-65
6.60664e-69
2.35239e-72
1.81119e-75
5.45826e-79
2.00024e-81
3.93609e-85
1.45031e-88
4.93729e-91
3.811e-94
1.74231e-97
8.64606e-102
4.35498e-104
6.35392e-107
6.31037e-111
4.19859e-113
5.41355e-117
4.6832e-121
1.15467e-124
2.92859e-126
7.33614e-130
1.19429e-132
1.07051e-135
4.39541e-139
2.62565e-142
3.2982e-145
4.07024e-146
0.988213
1.01507
1.00199
0.990072
1.01452
0.999314
8.68601e-10
3.76417e-16
1.25862e-17
1.21758e-17
3.57869e-19
3.40372e-22
2.52051e-26
8.58989e-30
6.36562e-33
4.49697e-36
3.10632e-39
2.14336e-42
1.47638e-45
1.01448e-48
6.96295e-52
4.76963e-55
3.2592e-58
2.22367e-61
1.51381e-64
1.02827e-67
6.97661e-71
4.72353e-74
3.18986e-77
2.15032e-80
1.44594e-83
9.70006e-87
6.50017e-90
4.34757e-93
2.90331e-96
1.93541e-99
1.28656e-102
8.52989e-106
5.64754e-109
3.73501e-112
2.46493e-115
1.62393e-118
1.06761e-121
7.00306e-125
4.58697e-128
2.99647e-131
1.95381e-134
1.27249e-137
8.26846e-141
3.46023e-144
1.04199
0.991253
1.05745
0.885206
0.969756
0.97835
5.48627e-09
2.23445e-15
4.21569e-18
5.47862e-18
3.63307e-20
7.47328e-23
2.06514e-26
4.05997e-30
2.67181e-33
1.95435e-36
1.37588e-39
9.61842e-43
6.7173e-46
4.68008e-49
3.25603e-52
2.2598e-55
1.56489e-58
1.08205e-61
7.46539e-65
5.13709e-68
3.5283e-71
2.41771e-74
1.65239e-77
1.12724e-80
7.67461e-84
5.21426e-87
3.53859e-90
2.3967e-93
1.61918e-96
1.09169e-99
7.34468e-103
4.93003e-106
3.30419e-109
2.2082e-112
1.4721e-115
9.79958e-119
6.51018e-122
4.31746e-125
2.85981e-128
1.88994e-131
1.24577e-134
8.19838e-138
5.38302e-141
2.36772e-144
0.96453
0.987545
0.976449
1.01673
1.09899
1.02531
0.0559454
2.1667e-12
4.90314e-15
4.6744e-18
1.34996e-19
3.98227e-22
1.80034e-25
6.8218e-29
4.23964e-32
2.97733e-35
2.10074e-38
1.46768e-41
1.0219e-44
7.1105e-48
4.93889e-51
3.42687e-54
2.37176e-57
1.64028e-60
1.13104e-63
7.78913e-67
5.35643e-70
3.67519e-73
2.51732e-76
1.72603e-79
1.17927e-82
8.04849e-86
5.488e-89
3.73303e-92
2.53098e-95
1.71542e-98
1.16075e-101
7.83851e-105
5.28575e-108
3.5564e-111
2.38736e-114
1.60039e-117
1.07312e-120
7.17214e-124
4.7873e-127
3.19114e-130
2.12223e-133
1.40893e-136
9.33443e-140
3.69434e-143
1.34644
1
1.00224
1.00228
1.01165
0.960482
0.87876
2.62038e-12
1.97394e-16
1.90823e-16
4.23232e-18
1.57582e-20
4.83831e-24
9.71251e-28
6.56362e-31
4.86263e-34
3.47786e-37
2.46768e-40
1.74747e-43
1.23446e-46
8.69989e-50
6.11282e-53
4.28055e-56
2.99198e-59
2.08431e-62
1.44809e-65
1.00427e-68
6.94272e-72
4.79088e-75
3.29728e-78
2.26263e-81
1.54828e-84
1.05684e-87
7.19817e-91
4.89137e-94
3.31713e-97
2.244e-100
1.51407e-103
1.01917e-106
6.844e-110
4.58401e-113
3.06925e-116
2.0484e-119
1.36308e-122
9.04664e-126
5.99612e-129
3.96443e-132
2.61595e-135
1.72184e-138
6.71885e-142
1.03476
0.95084
0.989213
0.874012
1.01483
1.03425
1.00034
1.25652e-10
1.40931e-15
1.82679e-15
8.47398e-17
1.23258e-19
9.33491e-24
3.13377e-27
2.20742e-30
1.61302e-33
1.16332e-36
8.30524e-40
5.9104e-43
4.19713e-46
2.97665e-49
2.10599e-52
1.48569e-55
1.04624e-58
7.34855e-62
5.14692e-65
3.59956e-68
2.51096e-71
1.74627e-74
1.21181e-77
8.38851e-81
5.79079e-84
3.99015e-87
2.7419e-90
1.87938e-93
1.28601e-96
8.77659e-100
5.97235e-103
4.0563e-106
2.74992e-109
1.86006e-112
1.25552e-115
8.45443e-119
5.67777e-122
3.80601e-125
2.54548e-128
1.69832e-131
1.13103e-134
7.51285e-138
2.95385e-141
1.02365
1.05338
1
0.985099
0.994148
0.961572
1.00105
2.16734e-10
2.63345e-15
3.17275e-15
1.52313e-16
2.30612e-19
1.41572e-23
4.33957e-27
3.15399e-30
2.26482e-33
1.60566e-36
1.13158e-39
7.95597e-43
5.5829e-46
3.91171e-49
2.7368e-52
1.91072e-55
1.3317e-58
9.2613e-62
6.42582e-65
4.45529e-68
3.08249e-71
2.12741e-74
1.46573e-77
1.00684e-80
6.89949e-84
4.72375e-87
3.22797e-90
2.1995e-93
1.49629e-96
1.01566e-99
6.87903e-103
4.65213e-106
3.1394e-109
2.11407e-112
1.42112e-115
9.52901e-119
6.37068e-122
4.2519e-125
2.83195e-128
1.88155e-131
1.24897e-134
8.27679e-138
3.24899e-141
1.03641
0.998531
0.850538
1.01805
0.97801
1.05047
1.00137
2.58241e-11
1.46365e-16
1.40684e-16
2.57306e-18
8.83015e-21
3.92661e-24
8.71975e-28
5.64748e-31
4.22561e-34
3.05346e-37
2.18193e-40
1.55509e-43
1.10511e-46
7.83153e-50
5.53082e-53
3.89076e-56
2.73189e-59
1.91316e-62
1.33362e-65
9.28195e-69
6.44072e-72
4.45647e-75
3.07596e-78
2.11476e-81
1.45259e-84
9.95496e-88
6.79979e-91
4.63287e-94
3.14892e-97
2.13508e-100
1.44388e-103
9.74421e-107
6.55427e-110
4.40194e-113
2.95077e-116
1.97173e-119
1.31371e-122
8.73601e-126
5.7955e-129
3.83663e-132
2.53468e-135
1.67255e-138
6.56003e-142
1.0416
0.999886
1.00707
1.04247
1
1.0086
0.697092
1.7298e-12
3.78322e-15
2.7793e-18
1.37072e-19
3.27875e-22
1.40289e-25
6.26259e-29
4.05336e-32
2.84686e-35
2.00243e-38
1.39834e-41
9.72421e-45
6.75535e-48
4.68877e-51
3.24814e-54
2.24565e-57
1.55048e-60
1.06878e-63
7.35008e-67
5.04653e-70
3.45821e-73
2.36619e-76
1.61764e-79
1.10394e-82
7.52194e-86
5.11719e-89
3.47266e-92
2.35182e-95
1.59132e-98
1.07461e-101
7.24479e-105
4.87804e-108
3.27704e-111
2.19659e-114
1.472e-117
9.83119e-121
6.55635e-124
4.36655e-127
2.90329e-130
1.92508e-133
1.27518e-136
8.44094e-140
3.34012e-143
1.02155
1.01688
0.972235
0.92477
1.00861
0.98481
0.017203
2.46848e-15
2.97825e-18
2.70323e-18
3.50878e-20
4.58538e-23
1.06354e-26
3.00581e-30
2.08409e-33
1.5263e-36
1.08185e-39
7.61793e-43
5.35558e-46
3.7561e-49
2.6298e-52
1.83656e-55
1.27933e-58
8.89588e-62
6.17269e-65
4.27222e-68
2.95218e-71
2.03533e-74
1.39954e-77
9.60925e-81
6.58283e-84
4.49476e-87
3.06439e-90
2.0845e-93
1.41444e-96
9.58155e-100
6.47724e-103
4.3697e-106
2.9429e-109
1.97773e-112
1.32528e-115
8.86664e-119
5.92009e-122
3.94187e-125
2.62139e-128
1.74e-131
1.15223e-134
7.61581e-138
5.02098e-141
2.23382e-144
1.04095
1.01331
1
1.07249
1.01157
1.03902
6.6805e-10
1.56897e-16
7.5351e-18
7.2914e-18
2.99467e-19
3.74422e-22
2.08293e-26
6.46478e-30
4.79831e-33
3.38007e-36
2.33428e-39
1.60945e-42
1.1084e-45
7.61732e-49
5.22724e-52
3.57937e-55
2.44626e-58
1.67018e-61
1.138e-64
7.73766e-68
5.25546e-71
3.56308e-74
2.41063e-77
1.62894e-80
1.09844e-83
7.38825e-87
4.96055e-90
3.32548e-93
2.22528e-96
1.48754e-99
9.92268e-103
6.60352e-106
4.38798e-109
2.9114e-112
1.92824e-115
1.27531e-118
8.41844e-122
5.54443e-125
3.64587e-128
2.39315e-131
1.56794e-134
1.02628e-137
6.70038e-141
2.86672e-144
0.992981
1.03701
0.997605
0.951341
1.03084
0.996931
2.2521e-10
-1.78752e-18
2.71872e-17
3.51013e-18
1.78199e-20
3.19016e-24
1.9778e-28
6.41844e-32
2.62113e-35
1.12407e-38
4.44966e-42
1.8507e-45
7.99585e-49
4.07614e-52
1.43416e-55
5.97009e-59
2.66491e-62
1.01485e-65
7.19667e-69
1.31992e-71
3.0054e-75
5.08851e-79
1.02109e-81
1.90121e-85
1.86116e-88
1.69567e-92
3.31392e-95
1.2537e-97
4.0143e-101
2.09347e-104
3.72617e-107
1.40633e-110
5.77164e-115
1.9326e-116
6.92454e-120
3.10017e-124
8.61967e-127
7.20644e-131
3.10321e-133
2.07012e-135
4.00496e-139
2.08884e-142
3.76699e-145
3.62359e-146
1.04452
1.05722
1.46246
1.01185
0.99658
1.08375
2.40046e-08
-1.32129e-17
-1.20081e-21
4.2142e-19
5.5317e-21
8.72445e-24
1.3317e-27
1.32757e-31
4.58543e-35
1.88559e-38
7.84382e-42
3.56462e-45
1.51659e-48
5.82334e-52
2.45176e-55
9.91272e-59
4.75059e-62
1.83482e-65
9.02695e-69
2.96576e-72
1.70616e-75
5.74675e-79
1.63775e-81
3.38699e-85
4.04417e-88
3.78501e-91
3.35649e-94
7.87967e-98
4.57455e-101
1.70894e-104
2.86057e-108
1.65588e-111
6.32133e-113
4.8865e-116
3.77011e-120
4.71679e-124
1.57956e-127
4.56066e-129
2.49079e-132
1.70311e-136
1.76304e-139
2.19045e-143
3.11772e-145
3.85312e-146
1.03197
1.04581
1.00837
1.06374
1.09811
1.06227
0.0550257
-1.06271e-17
-3.11531e-19
3.24594e-23
3.50785e-20
9.65725e-22
3.90515e-25
1.09828e-29
2.86756e-33
1.15858e-36
4.74595e-40
1.94492e-43
7.98301e-47
3.23695e-50
1.32739e-53
5.36534e-57
2.20289e-60
9.16057e-64
3.99939e-67
1.4918e-70
6.53276e-74
2.40782e-77
9.68998e-81
9.38475e-84
1.94427e-87
6.86868e-91
6.29773e-94
5.71582e-97
1.58935e-100
2.21427e-103
1.85327e-106
4.47428e-110
3.37504e-113
9.28595e-116
1.33086e-118
8.90137e-123
1.46779e-126
6.12192e-129
2.26024e-131
3.72781e-135
9.32691e-138
3.09151e-141
2.30987e-144
1.47625e-145
0.560816
0.904449
1
1
0.780436
0.99507
0.879003
9.34342e-13
2.65536e-15
4.29957e-17
5.07465e-20
1.57989e-21
4.37261e-24
4.86397e-28
4.43708e-32
1.61228e-35
6.62835e-39
2.73368e-42
1.12246e-45
4.60912e-49
1.88739e-52
7.69762e-56
3.18194e-59
1.43231e-62
5.46672e-66
2.24193e-69
8.78996e-73
1.33939e-75
8.19426e-79
9.82348e-83
1.26495e-85
9.44577e-89
2.43646e-92
6.99904e-96
8.19799e-99
1.61093e-102
1.51345e-105
2.34305e-108
1.95814e-112
3.38254e-114
9.70036e-118
1.63853e-120
1.60807e-123
1.23644e-127
8.57563e-131
2.44412e-133
1.18253e-136
7.23438e-141
1.59399e-144
2.67592e-145
0.832634
0.999761
0.968593
1.04535
0.713787
1.01219
1.00031
5.08363e-11
-4.29218e-19
2.61836e-16
6.05059e-18
3.99589e-21
4.34509e-24
1.06461e-27
1.31281e-31
4.45572e-35
1.84077e-38
7.68532e-42
3.21579e-45
1.33398e-48
5.51787e-52
2.2907e-55
9.50197e-59
3.9236e-62
1.68498e-65
9.91467e-69
2.82229e-72
1.12241e-75
4.58203e-79
2.77129e-82
2.57183e-85
4.198e-89
1.42382e-91
2.77656e-95
4.82251e-98
5.75799e-102
1.82715e-104
7.36052e-108
4.59516e-110
1.1058e-113
1.05338e-117
1.3851e-119
6.18684e-123
3.02704e-126
6.98987e-130
1.27747e-133
1.99154e-135
1.03819e-138
6.40777e-142
9.76359e-145
1.0202
1.03283
1.01386
0.73756
0.973965
0.972284
1.00105
1.03777e-10
-8.76703e-19
2.05975e-16
5.04148e-18
3.76422e-21
3.98834e-24
9.49743e-28
1.20398e-31
4.12694e-35
1.70881e-38
7.14541e-42
2.98102e-45
1.3053e-48
5.21833e-52
2.25432e-55
9.07114e-59
3.71443e-62
1.56331e-65
6.32224e-69
2.645e-72
1.04713e-75
4.24122e-79
1.03755e-81
1.8759e-84
9.33632e-88
1.08218e-91
6.93009e-95
1.04038e-98
2.02926e-101
8.40713e-105
1.61619e-107
1.52374e-111
2.10424e-113
9.07428e-117
5.50509e-121
7.18839e-123
2.88535e-126
5.01977e-130
6.25304e-134
1.66315e-136
4.03386e-139
6.77962e-143
2.7635e-145
1.02681
1.02197
0.94533
1.05261
0.993964
1.0001
1.00115
1.18663e-11
2.89649e-15
3.83626e-17
4.89451e-20
1.70027e-21
5.02725e-24
5.70235e-28
4.95433e-32
1.78952e-35
7.35254e-39
3.03559e-42
1.24899e-45
5.11311e-49
2.20707e-52
8.66412e-56
3.55607e-59
1.47297e-62
6.24444e-66
3.24532e-69
1.02003e-72
4.59832e-76
8.09861e-79
1.26466e-82
3.24773e-86
1.25311e-89
5.02687e-93
5.77866e-96
1.6565e-98
3.98187e-102
8.12555e-106
4.91449e-108
1.21641e-111
9.21151e-116
2.38852e-118
2.6745e-122
4.28399e-124
2.32569e-127
7.87283e-131
5.52188e-135
3.54044e-138
2.46262e-141
2.88312e-144
3.6696e-145
1.02251
1.01539
0.987164
1.04691
0.983163
1.00807
0.69736
-2.27892e-17
-1.4057e-19
5.16541e-23
3.28816e-20
8.98159e-22
3.4863e-25
9.40052e-30
2.463e-33
9.93875e-37
4.05038e-40
1.64779e-43
6.72368e-47
2.73028e-50
1.10159e-53
4.50973e-57
1.85785e-60
7.2486e-64
3.50873e-67
1.32855e-70
6.74694e-74
3.90779e-77
8.4401e-81
1.38314e-83
2.93111e-87
7.26765e-91
1.06662e-93
5.4347e-97
1.19821e-100
8.7079e-104
1.12902e-106
3.65081e-110
6.62433e-113
5.06139e-115
1.49615e-118
1.52579e-121
2.06915e-125
2.27293e-129
1.70777e-132
3.09247e-136
1.43335e-139
6.139e-143
2.8461e-145
6.66828e-146
1.03197
1.03889
0.990311
0.930254
1.05799
0.981584
0.0166294
-3.8647e-18
-2.64423e-21
1.95599e-19
5.42886e-21
9.08819e-24
1.17189e-27
1.26387e-31
4.4539e-35
1.8344e-38
7.65503e-42
3.1582e-45
1.31156e-48
5.42559e-52
2.20814e-55
9.23613e-59
3.74516e-62
1.56843e-65
6.35319e-69
2.58049e-72
1.04085e-75
4.54416e-79
1.70153e-82
6.87444e-86
7.46776e-88
2.81317e-91
2.47085e-94
1.407e-97
5.38407e-101
2.92823e-104
1.0095e-107
8.41105e-111
6.56453e-115
4.39815e-117
7.41108e-121
7.3215e-125
7.52934e-127
1.32603e-129
1.49643e-132
9.53868e-137
8.10137e-140
7.31922e-143
8.17733e-145
4.95533e-146
1.0363
1.00934
1.0343
1.10385
1.18581
1.02087
2.31072e-10
-1.41321e-21
4.25209e-17
5.28295e-18
2.26349e-20
2.94873e-24
2.00757e-28
6.79987e-32
2.78791e-35
1.16201e-38
4.75262e-42
2.00973e-45
8.17224e-49
3.31434e-52
1.39539e-55
5.95266e-59
2.27682e-62
9.35958e-66
5.69908e-69
2.50311e-72
1.04491e-75
3.1807e-79
1.06583e-81
4.31486e-85
3.56276e-89
6.17705e-91
1.58557e-94
1.06e-98
5.71802e-102
4.27955e-104
1.84932e-107
1.89996e-111
4.2852e-113
1.46673e-116
7.56528e-120
1.57188e-122
3.22944e-126
5.54011e-130
8.36854e-134
1.29973e-135
8.30552e-139
4.23526e-142
3.61498e-145
4.76312e-146
-6.38963e-14
0.995418
2.31471e-05
0.999648
4.22487e-07
1.02074
3.45111e-07
0.000500274
0.988713
0.484384
0.920352
1.21962e-05
0.997852
0.476786
0.712653
1.00271
1
1.00488
0.714776
1.0054
1.00001
1
0.992231
1.00023
0.953331
1
0.995697
1.00006
1.00122
0.991863
1.00117
1.02453
1.00078
1.0023
1.00161
1.0019
1.01416
1.00051
0.994943
1.00201
1.02269
1.00111
1.00071
1.00605
1.00033
1.04671
1.00257
1.02168
1.00086
1.00001
0.986743
0.75012
1.0055
1.00018
0.985776
0.74791
0.62426
0.997977
0.0181318
1
0.625038
0.987395
0.0224696
0.000461919
1
-1.91158e-18
1.0428
0.0015447
1
1.84658e-07
5.78876e-07
1.0242
6.74691e-07
0.99764
2.35007e-07
1.05446
7.44571e-07
0.00100199
1.00315
0.479053
1.06622
1.33157e-06
1.0257
0.47827
0.713949
1.00872
1.00001
1.06013
0.715202
1.01069
1.00002
1
0.988556
1.00027
0.976512
1
0.975157
1.00006
1.00145
1.00713
1.00256
1.01261
1.00104
1.01715
1.00161
1.00305
1.01668
1.00168
0.953553
1.00202
1.03668
1.00099
1.00277
1.02325
1.00166
1.00908
1.00251
1.03321
1.00097
1.00065
0.95878
0.745234
1.00869
1.00036
0.97667
0.745694
0.624451
0.996124
0.0230467
0.981501
0.624539
1.00489
0.0236631
0.00165831
0.999999
2.16982e-07
1.02848
0.00162185
1
1.06646e-07
1.92994e-07
1.05532
6.79834e-07
0.985772
-1.87563e-17
1.06611
1.38778e-20
0.000283932
1.03226
0.476954
1.08988
-5.54167e-20
1.03653
0.478745
0.714891
1.01233
1.00001
1.06545
0.713746
1.01081
1
1
0.976627
1.00028
1
1
1.00038
1.00014
1.00157
1.02479
1.00248
1.01718
1.00121
1.03203
1.00123
1.00291
1.02391
1.00148
0.978256
1.00179
1.01055
1.00035
1.00273
1.0377
1.0016
0.994856
1.00144
1.04445
1.00026
1.0007
0.985901
0.750764
1.00628
1
0.980043
0.750343
0.624976
1.00047
0.0232526
0.997213
0.62413
1.00462
0.0182292
0.00152951
0.999881
4.99878e-08
1.07806
0.000602556
1
-4.40734e-20
1.06245
1.01614
0.974808
1.02243
1
1.02115
0.984583
0.878969
0.877633
0.956029
1.01106
0.988368
0.87413
0.864591
-1.21929e-16
-6.54506e-23
-8.43151e-17
4.97589e-10
1.14246e-13
7.64249e-10
1.14273e-13
0.928696
1.07373
1.00066
1.01272
0.897463
1.07422
1.00559
0.976077
0.959649
0.981531
0.950192
0.959338
0.974837
0.964932
-8.09775e-23
0.00148062
-3.5569e-22
1.51995e-08
2.32688e-12
0.00391549
2.32695e-12
0.963448
0.998338
0.997277
1.09257
0.853394
0.999081
0.998044
0.993361
1.00205
0.978229
0.975676
1.00121
0.965677
0.997213
-1.03908e-19
0.699652
-2.6157e-17
0.0547338
3.63142e-09
0.702131
2.24749e-09
0.983463
0.988757
1.00952
0.920415
0.997025
0.988982
1.0898
0.896576
0.978488
0.886288
0.980624
0.97609
0.887594
0.943882
-1.01373e-18
1.00004
-4.32583e-22
0.878747
8.48549e-10
1.00033
9.40563e-09
1.01092
1.02373
0.996776
0.920994
1.04753
1.41039
1.04809
1.009
1.01027
1.01168
1.01909
1.01044
1.01312
1.00964
-3.30876e-25
1.00022
-1.12139e-17
1.00069
4.54615e-08
1.00052
8.79066e-08
0.981275
0.960474
1.00212
1.00211
0.978063
0.970636
1.03659
0.998771
0.999052
0.913444
0.968491
0.999021
0.965201
0.999783
-5.0452e-19
1.00006
-8.43103e-16
1.00158
9.28316e-08
1.00008
4.95727e-08
1.02976
1.01112
1.03387
0.956956
1.05306
1.01348
1.05063
1.01254
1.02142
1.04088
1.0498
1.02053
1.05421
1.01515
-3.80172e-15
0.85187
-2.12862e-17
1.00144
9.62886e-09
0.852084
6.0936e-10
0.866951
1.0354
0.969389
1.04578
0.883602
1.08949
0.96755
0.989715
1
0.970509
1.00039
0.999555
0.969524
0.99196
-9.63792e-15
0.0661311
-2.21636e-16
0.698082
1.7585e-09
0.0755703
2.40104e-09
0.976603
0.9814
0.997402
1.03827
0.93258
1
0.934704
1.00061
1
1.01612
0.999928
1
1.01608
1.00041
-1.64292e-17
-1.12587e-21
-7.18793e-19
0.0163893
8.81568e-13
3.00068e-08
1.53443e-12
0.961246
0.989628
1.06163
0.989
1.19271
1.00529
0.99109
0.947566
0.999022
0.946483
1.00969
0.999207
0.943147
0.946811
-2.51858e-18
-4.45694e-20
-4.15619e-18
4.42286e-10
7.21707e-14
1.80651e-10
7.21467e-14
0.99392
1.00125
0.920262
1.0178
0.952631
1.00475
1.00084
0.876163
0.858165
0.988674
0.999919
0.854035
0.992746
0.867084
5.57184e-13
9.50701e-10
5.57222e-13
3.51826e-10
5.58974e-13
1.05085e-09
5.57238e-13
0.860477
1.07232
1.0082
1.00614
0.972157
1.03177
1.05413
0.665825
0.969108
0.828744
1.00683
0.986354
0.967215
0.831044
3.25779e-12
0.00428792
3.25782e-12
5.55322e-09
3.25782e-12
0.00414358
3.25781e-12
0.911594
0.979561
1
1.07753
0.989743
0.961003
0.9944
0.999324
1.00251
0.99795
1.04298
0.997164
1.00623
1.00238
5.86797e-09
0.701749
6.49541e-09
0.0556921
5.40037e-09
0.70188
6.49541e-09
0.93867
0.993085
1.06935
0.969922
0.962949
1
1.05486
0.912134
0.980544
0.956746
0.977091
0.953883
0.992988
0.906341
1.48102e-09
1.0003
1.77116e-08
0.879039
1.4335e-09
1.00025
1.79622e-08
1.02157
1.1582
0.99971
0.746912
1.0045
1
0.995626
1.00753
1.01173
1.00473
1.05498
1.00877
1.01209
1
7.55875e-08
1.00145
1.42593e-07
1.00076
7.58335e-08
1.00052
1.42507e-07
1
0.996056
0.968383
0.996263
0.779672
1
0.977867
1.00405
0.998511
1.00142
0.956239
1.00359
0.998705
0.99975
1.48659e-07
1.00051
7.98759e-08
1.00162
1.48795e-07
1.0001
7.98839e-08
1.03455
0.994024
1.04445
0.999233
1.04038
1.00616
1.01568
1.00284
1.0185
1.05051
1.03282
1.00583
1.01768
1.06869
1.69363e-08
0.850954
1.23404e-09
1.0011
1.6703e-08
0.851539
1.21567e-09
0.919886
1.11857
0.993741
1.02263
1
1.0522
1.0074
0.995374
1.00008
0.966036
1.00949
0.992826
1.0001
0.961826
4.83944e-09
0.0785351
7.69706e-09
0.697437
4.83944e-09
0.0763415
7.72694e-09
0.937694
1.02726
0.914384
1.06058
1.06426
1.04437
1.03007
0.999938
0.999923
1.00166
0.901709
1
0.994154
0.996704
3.75108e-12
3.78163e-08
6.8972e-12
0.0173157
3.75107e-12
3.54132e-08
6.83985e-12
1.18539
0.960747
0.985322
1.10151
1.05361
0.851457
1
0.950893
0.999307
1.00251
1.03691
0.951066
0.999403
1.02091
2.42793e-13
2.68942e-10
2.42786e-13
5.36444e-10
2.42793e-13
1.32108e-10
2.5641e-13
0.95579
1.01802
0.991576
1.03017
0.932601
1.05276
1.00761
0.821292
0.873365
0.999613
0.978095
0.755273
0.999584
0.888395
1.26929e-13
7.50786e-10
1.27329e-13
-1.04902e-18
-1.6759e-16
-9.43785e-17
-1.30597e-16
1.00391
1.02679
1.06353
1.01589
1.01188
1.01833
1.09562
1
0.987165
1.03429
1.09076
1
0.983034
1.09934
3.60821e-12
0.0037546
3.60839e-12
-4.80009e-18
-1.00448e-21
0.00157295
-1.23178e-20
1
0.995684
1.01594
1.10808
1.09753
1
0.998509
1.00172
1.01076
1.0195
1.06144
1.00103
1.01259
1.05494
2.74575e-09
0.701578
2.24685e-09
0.0493077
-2.70027e-18
0.699204
-1.89102e-17
0.980395
1.01284
1.01856
1.00701
1
1.01712
1.00538
0.995582
0.997461
0.929715
0.996373
0.991257
0.99837
0.934277
7.34824e-10
1.00025
9.49296e-09
0.878331
-5.84419e-19
1.00002
-8.52228e-22
1.00675
0.880651
0.992615
1.01495
1.04181
0.864575
0.980592
1.00299
1.01269
0.950268
1.01342
1.00393
1.01245
0.948144
4.57866e-08
1.00143
8.8563e-08
1.00015
-5.10717e-24
1.00028
-1.47809e-17
0.785449
0.952056
1.02991
0.983638
0.955246
1.01142
0.963257
1.00135
1
1.01257
0.968886
1.00499
1.00022
1.01913
9.27768e-08
1.00061
4.96338e-08
1.00054
-3.83186e-19
1.00003
-8.45211e-16
1.02836
1.00339
1.00542
0.984908
1.0342
0.982311
1.00136
0.995405
1.00604
1.00491
0.996995
0.995407
1.00474
1.00177
9.93112e-09
0.850763
5.9405e-10
1.00007
-3.94967e-15
0.851474
-2.2002e-17
0.916358
1.02817
0.99803
0.978326
0.938916
1.00305
1.04151
0.991788
1
0.992075
1.00761
0.990719
1.00022
0.993512
1.73813e-09
0.0720577
2.4596e-09
0.697575
-9.61713e-15
0.0636701
-2.02615e-16
1.0118
1.02302
1.05143
0.996682
0.985025
1.18861
1.06412
0.999749
0.993968
0.978973
0.961948
0.998742
0.997599
0.998467
8.54291e-13
2.83765e-08
1.45189e-12
0.0113975
-1.76913e-17
-1.27658e-21
-8.64054e-19
1.05154
0.861025
0.982089
1.11134
1.23156
1.03655
0.99781
0.96564
1.00156
1.04713
1.04667
0.964336
1.00006
1.04791
3.27083e-14
4.86835e-11
3.2685e-14
-2.21164e-21
-4.44705e-18
-3.67204e-21
-6.22122e-18
0.130308
0.110477
0
1.00425e-07
1.00426e-07
0.136337
0.126397
0.923826
0.964763
1
0.996871
0.968197
1
0.922743
0.258612
-1.73473e-21
0.395094
2.81457e-08
2.81457e-08
0.394881
0.25929
0.882813
1.0039
0.86261
0.984626
0.97364
0.8754
0.860983
0.121768
4.22491e-07
0.132406
4.22496e-07
4.22496e-07
0.136832
0.132389
0.933689
1.00353
0.96068
1.00385
0.96557
1.00008
0.938415
0.246782
3.45111e-07
3.45111e-07
0.389193
3.45111e-07
0.395099
0.242077
0.529187
0.422634
0.0252626
0.00095494
0.422446
0.0368091
0.572348
0.986591
0.977197
0.998229
0.981056
0.910202
0.999053
0.978575
0.796729
0.132995
0.995974
0.477324
0.148855
1
0.804118
0.98551
0.920403
0.940926
0.934614
0.950747
0.972165
0.989858
0.565972
1.22015e-05
0.456306
0.035056
0.426659
0.0427529
0.483562
0.995299
0.968781
0.894707
0.992872
0.894681
0.998324
0.993425
0.755621
0.476387
0.158465
0.999835
0.170938
0.999814
0.778308
1
1
0.964182
0.712743
1.00011
0.965518
1.00018
0.990037
0.949866
1
0.999805
0.95761
0.999946
0.996311
1.00108
1.00012
1
1
1.00051
0.999928
1.00162
0.995887
0.984346
1.00051
1.00088
1.00039
0.997011
0.996342
1.00012
0.713636
1
0.963723
1
0.962108
1
0.998094
1.00266
0.953559
0.999806
0.953645
1
0.994829
1.00146
1.00001
1.00052
1
1.00074
0.999474
1.00113
0.979309
0.997074
1
1
0.99457
0.999993
0.980565
0.956612
0.961168
1.00047
0.988848
0.893101
0.998934
0.957271
0.997253
1
1.00061
1.00027
1
1.00013
0.999431
0.89428
0.983232
0.974816
0.954269
0.991344
0.892498
0.927778
0.997263
1
0.994906
0.999986
0.994702
0.999988
0.970361
0.962857
0.960307
0.804035
0.998661
0.858667
0.99924
0.95936
1
1.0004
1
1.00022
0.999972
1.00037
0.999319
1.00522
1.00502
1.00165
1.00094
1.00496
1.00174
1.00566
1.00567
0.991317
1.00338
0.976337
1.02551
1.00122
1.00417
1.00302
1.00088
1.00336
1.00126
1.00096
1.00328
1.00329
1.0092
1.05253
1.0114
1.02813
1.01094
1.03822
1.00881
1.00556
1.00148
1.0046
1.00159
1.00488
1.00246
1.00503
1.01401
1.00211
1.11133
1.00538
1.08355
1.00628
1.01383
1.00395
1.00236
1.00142
1.00391
1.00196
1.00449
1.00337
1.00114
1.0034
1.0007
1.00204
1.00334
1.00071
1.00179
1.00524
0.993915
1.00608
1.02037
1.0222
1.00622
1.00158
1.0028
1.00015
1.00194
1.00063
1.00035
1.00249
1.00187
1.00011
0.996691
0.999148
1.00548
0.999196
0.987277
0.998689
1.00161
1.0029
1.0035
1.00087
1.00382
1.00169
1.00134
1.00581
1.01801
1.04335
1.00661
1.04242
1.00661
1.00341
1.00249
1.00139
1.00043
1.00264
1.00095
1.00282
1.0023
1.00514
1.00512
1.00147
1.00011
1.00443
1.0015
1.00544
1.00086
1.01255
1.00155
1.00757
1.0131
1.00127
1.00656
1.00478
1.00169
1.00087
1.00065
1.00249
1.00084
1.00595
1.01009
1.04826
1.01864
1.05147
1.01955
1.04928
1.00842
1.00513
1.00094
1.00476
1.00194
1.00471
1.00227
1.00439
1.00186
1.01835
1.01433
1.00453
1.01436
1.00417
0.999711
1.00427
1.00159
1.00277
1.00096
1.0032
1.00134
1.00398
0.999631
1
1
1.00007
0.999997
1.00001
0.999671
0.957729
0.786508
0.993762
0.984931
0.789456
0.992761
0.967983
0.999951
0.832066
1
0.74978
0.830492
1
1
0.98984
1.002
0.99928
0.979194
0.994457
0.966521
0.990444
0.999829
1.00071
0.999865
1.00001
0.999814
1.00048
0.999981
0.948379
0.980454
0.797025
0.991586
0.7941
0.988605
0.950048
0.999918
0.747781
0.828123
0.999999
0.829747
1
0.999977
0.954763
1
0.264338
0.624849
1.00001
0.266934
0.954379
1.00107
1.0311
1.00007
0.987636
1.01235
1.00037
1.00205
0.846586
0.1087
0.642642
0.0220285
0.109813
0.640933
0.844929
1.00052
1
1
1.00585
1
1.01182
1.00023
0.955155
0.624122
1
0.267975
1.00017
0.267477
0.956364
1
1.00683
0.97113
0.999906
1
1
0.999931
0.842872
0.0223239
0.12188
0.643292
0.112973
0.641785
0.838261
0.213267
0.452995
-6.77626e-24
0.000891931
0.451117
2.10036e-08
0.217362
0.879544
1.0086
0.803294
1
1.00357
0.88647
0.796797
0.163141
-1.42959e-16
0.0804239
3.90252e-08
3.90252e-08
0.152045
0.0881277
0.956124
1.05206
0.998979
0.968486
0.999245
0.983386
0.956087
0.204892
0.00119915
0.453683
5.08077e-07
0.451892
5.08077e-07
0.205266
0.878634
1
1.01154
0.802419
1.01913
0.890932
0.796557
0.161824
1.84658e-07
1.84657e-07
0.0877203
1.84658e-07
0.155245
0.0900204
0.137605
0.141631
5.78882e-07
5.7888e-07
0.152513
5.78882e-07
0.132493