/*--------------------------------*- C++ -*----------------------------------*\
| =========                 |                                                 |
| \\      /  F ield         | OpenFOAM: The Open Source CFD Toolbox           |
|  \\    /   O peration     | Version:  5.0                                   |
|   \\  /    A nd           | Web:      www.OpenFOAM.org                      |
|    \\/     M anipulation  |                                                 |
\*---------------------------------------------------------------------------*/
FoamFile
{
    version     2.0;
    format      ascii;
    class       volScalarField;
    location    "1.6";
    object      p;
}
// * * * * * * * * * * * * * * * * * * * * * * * * * * * * * * * * * * * * * //

dimensions      [1 -1 -2 0 0 0 0];

internalField   nonuniform List<scalar> 
8577
(
97.9343
97.0367
104.025
110.884
101.157
106.19
96.5806
92.565
89.9608
87.4
84.8787
82.3761
79.8948
77.4574
75.0309
72.6313
70.2483
67.8991
65.5719
63.2662
60.9694
58.6927
56.4457
54.1911
51.9589
49.7487
47.5422
45.3328
43.1429
40.9771
38.8074
36.6622
34.5455
32.4191
30.2865
28.185
26.1364
24.1234
22.1183
20.1068
18.1229
16.1833
14.245
12.2801
10.3436
8.4535
6.56468
4.67153
2.79845
0.935516
95.9612
85.6465
86.5763
108.731
101.887
95.336
96.0127
92.5045
89.9829
87.4465
84.9216
82.4076
79.9381
77.4799
75.0392
72.6436
70.2506
67.9121
65.5891
63.2695
60.975
58.6971
56.4388
54.1932
51.9509
49.7322
47.5304
45.3346
43.1502
40.9803
38.8224
36.6759
34.5425
32.4142
30.2899
28.1924
26.1324
24.108
22.1009
20.1056
18.1279
16.187
14.2542
12.3005
10.3522
8.44601
6.55708
4.67016
2.79813
0.935323
103.372
80.2501
82.9998
106.441
102.583
99.401
96.6644
92.7731
90.1138
87.5073
84.964
82.4208
79.9319
77.4836
75.0479
72.6348
70.267
67.9377
65.6117
63.2713
60.9788
58.6994
56.4294
54.1857
51.9521
49.7282
47.5209
45.3406
43.1603
40.9813
38.8267
36.6749
34.5222
32.4001
30.2994
28.2076
26.1334
24.0993
22.0978
20.1084
18.1379
16.1846
14.2383
12.2999
10.3618
8.44191
6.54813
4.67109
2.80373
0.935372
146.566
74.207
114.831
106.808
97.5378
96.8331
99.0624
93.6679
90.0574
87.5479
84.9718
82.4548
79.9389
77.4787
75.0512
72.6428
70.2686
67.9317
65.5911
63.2754
60.9888
58.6995
56.4338
54.1883
51.9657
49.7394
47.5203
45.3469
43.1551
40.9719
38.8274
36.6704
34.5172
32.3955
30.3068
28.2243
26.1394
24.0959
22.0994
20.1166
18.1428
16.1732
14.2211
12.2898
10.368
8.44388
6.54858
4.67818
2.80915
0.931125
102.94
102.384
107.241
112.465
114.507
103.569
99.0704
93.6302
89.9903
87.5005
84.9403
82.4173
79.9285
77.4702
75.0572
72.6506
70.2811
67.9234
65.5703
63.2746
60.9918
58.6991
56.4402
54.1932
51.9738
49.7539
47.5303
45.3429
43.1429
40.9646
38.8218
36.6625
34.5148
32.3944
30.3079
28.2338
26.1496
24.1005
22.1021
20.1225
18.1414
16.1604
14.2006
12.2781
10.3647
8.44511
6.55636
4.69192
2.81704
0.928812
95.5917
99.5822
101.926
84.5065
98.5337
102.574
98.4875
93.5558
89.8921
87.4363
84.8968
82.3892
79.9187
77.4658
75.0571
72.6526
70.2863
67.9239
65.5654
63.2685
60.99
58.696
56.4406
54.2032
51.9788
49.7676
47.5404
45.3359
43.1358
40.9579
38.8161
36.657
34.507
32.396
30.312
28.2363
26.1613
24.1108
22.1058
20.124
18.1354
16.1464
14.1871
12.2681
10.3598
8.44964
6.57235
4.71656
2.82703
0.931693
98.961
102.764
103.601
95.1304
98.8162
99.1671
97.837
93.2269
89.7222
87.316
84.8415
82.3608
79.9144
77.4678
75.0485
72.6485
70.2828
67.9306
65.5681
63.2547
60.9735
58.6942
56.4398
54.2115
51.9857
49.7658
47.5465
45.3328
43.1366
40.9663
38.8102
36.6435
34.4997
32.402
30.3142
28.2302
26.1664
24.1256
22.1079
20.116
18.128
16.1376
14.1829
12.2653
10.355
8.45104
6.57839
4.7161
2.83207
0.940691
98.3763
98.557
99.0607
97.376
100.248
96.1781
96.173
92.1475
89.7205
87.2633
84.8028
82.3351
79.8978
77.4561
75.0203
72.6469
70.2719
67.9179
65.5819
63.2476
60.9648
58.6892
56.4364
54.2126
51.9851
49.7709
47.5483
45.3309
43.1487
40.9729
38.8052
36.6403
34.5037
32.4092
30.3129
28.2197
26.1666
24.1353
22.1132
20.1101
18.1232
16.1502
14.1961
12.2703
10.3543
8.45332
6.57683
4.70514
2.83057
0.944793
99.4301
98.7027
104.335
102.091
98.7993
92.6281
95.2227
92.1253
89.7135
87.268
84.8065
82.3429
79.8919
77.449
75.0287
72.6429
70.2489
67.8986
65.5712
63.2555
60.9583
58.6825
56.4421
54.2078
51.9868
49.77
47.5449
45.329
43.1413
40.971
38.794
36.6413
34.5226
32.4136
30.3048
28.2092
26.1645
24.1392
22.117
20.1082
18.1209
16.1564
14.209
12.2697
10.3498
8.45375
6.56912
4.69315
2.81732
0.945773
97.9248
97.4904
108.202
95.3717
94.2643
104.442
95.4413
92.2576
89.8067
87.3071
84.8301
82.3465
79.8748
77.4467
75.0271
72.6313
70.248
67.8978
65.5681
63.2616
60.9609
58.6857
56.4457
54.1973
51.9762
49.7663
47.5455
45.331
43.1392
40.9729
38.7977
36.6478
34.5382
32.4205
30.2922
28.1911
26.141
24.1315
22.1184
20.1062
18.1217
16.1738
14.2283
12.2722
10.3427
8.45636
6.57107
4.68206
2.80463
0.935733
98.369
97.3635
100.438
103.703
97.6183
104.509
96.578
92.5656
89.9606
87.4
84.8788
82.3761
79.8946
77.4574
75.0309
72.6312
70.2483
67.8992
65.572
63.2659
60.9694
58.6928
56.4458
54.191
51.959
49.7487
47.5421
45.3328
43.1428
40.9771
38.8073
36.6623
34.5455
32.4189
30.2864
28.1849
26.1364
24.1234
22.1183
20.1066
18.1228
16.1834
14.2452
12.2801
10.3436
8.45355
6.56458
4.67147
2.79841
0.935596
95.6688
94.3269
81.5825
102.381
109.402
103.753
95.9931
92.5048
89.9829
87.4465
84.9216
82.4076
79.9381
77.4799
75.0392
72.6433
70.2506
67.9123
65.5889
63.2694
60.9751
58.6972
56.4388
54.193
51.951
49.7322
47.5303
45.3346
43.1502
40.9804
38.8229
36.676
34.5425
32.4141
30.2899
28.1923
26.1324
24.108
22.1007
20.1055
18.1279
16.1871
14.2541
12.3002
10.3523
8.44602
6.55699
4.67012
2.79833
0.935275
115.568
149.916
134.791
113.701
101.281
99.7412
96.5003
92.7739
90.1142
87.5073
84.964
82.4207
79.9319
77.4836
75.0479
72.6348
70.267
67.9376
65.6119
63.2713
60.9783
58.6994
56.4292
54.1856
51.952
49.7281
47.5209
45.3405
43.1603
40.9814
38.8265
36.6748
34.5223
32.4002
30.2995
28.2076
26.1333
24.0994
22.0978
20.1083
18.138
16.1847
14.2382
12.2997
10.3618
8.44185
6.54811
4.67112
2.80372
0.93537
105.323
89.1683
110.715
101.326
69.939
99.9736
99.1217
93.6684
90.0579
87.5475
84.9718
82.4547
79.9389
77.4787
75.0512
72.6428
70.2686
67.9315
65.5911
63.2753
60.989
58.6995
56.4338
54.1884
51.9655
49.7393
47.5204
45.347
43.1551
40.9717
38.8273
36.6705
34.5172
32.3955
30.3068
28.2243
26.1392
24.0959
22.0993
20.1166
18.1428
16.1732
14.2209
12.2899
10.3681
8.4439
6.54848
4.67814
2.80914
0.930973
101.482
105.133
107.706
97.7389
159.939
109.471
99.0752
93.6285
89.9905
87.5005
84.9404
82.417
79.9281
77.4701
75.0572
72.6507
70.2811
67.9234
65.5702
63.2747
60.9919
58.699
56.4401
54.1933
51.9736
49.754
47.5305
45.3428
43.1427
40.9645
38.8218
36.6625
34.5143
32.3943
30.3079
28.2338
26.1498
24.1004
22.1021
20.1228
18.1413
16.16
14.2006
12.2781
10.3647
8.44509
6.5563
4.69179
2.81695
0.928866
94.7756
101.869
102.082
85.5366
107.019
105.831
98.4926
93.5544
89.8923
87.4365
84.8967
82.3891
79.9189
77.4657
75.057
72.6525
70.2863
67.924
65.5653
63.2684
60.9904
58.696
56.4405
54.2032
51.9788
49.7678
47.5403
45.3358
43.1358
40.958
38.8161
36.6565
34.5068
32.3962
30.312
28.2362
26.1613
24.1108
22.1058
20.124
18.1353
16.146
14.1871
12.2681
10.3597
8.44962
6.57232
4.71658
2.82653
0.931659
98.9958
98.9957
95.9169
95.4876
98.0339
99.5688
97.8416
93.2241
89.7227
87.3158
84.8415
82.3608
79.9144
77.4678
75.0485
72.6485
70.2827
67.9305
65.5681
63.2547
60.9733
58.6942
56.4397
54.2115
51.9856
49.7657
47.5464
45.3328
43.1367
40.9664
38.8103
36.6432
34.4997
32.402
30.3142
28.2302
26.1664
24.1256
22.1078
20.1162
18.128
16.1375
14.1829
12.2653
10.3549
8.45102
6.57846
4.7162
2.83209
0.940876
98.4071
97.6448
100.371
98.4106
95.7807
96.0583
96.1737
92.1479
89.7205
87.2632
84.8028
82.335
79.8978
77.4561
75.0203
72.6469
70.2722
67.9176
65.5819
63.2475
60.9648
58.6892
56.4365
54.2125
51.985
49.7709
47.5485
45.3307
43.1486
40.9729
38.8051
36.64
34.5038
32.4092
30.3129
28.2197
26.1666
24.1353
22.1132
20.11
18.1231
16.1502
14.1961
12.2703
10.3543
8.4533
6.57682
4.70512
2.83053
0.944834
98.3358
98.1201
97.1803
101.145
101.071
91.2976
95.124
92.1258
89.7137
87.268
84.8065
82.3429
79.8919
77.449
75.0286
72.6431
70.249
67.8985
65.5714
63.2556
60.9583
58.6826
56.442
54.2078
51.9867
49.77
47.5448
45.329
43.1413
40.9712
38.794
36.6411
34.523
32.4136
30.3047
28.2092
26.1645
24.1391
22.1169
20.1081
18.1209
16.1564
14.209
12.2696
10.3498
8.45378
6.56907
4.69313
2.81739
0.945772
97.5287
97.5076
100.327
109.2
100.376
100.805
95.4396
92.2583
89.8066
87.3071
84.8302
82.3464
79.8746
77.4467
75.0271
72.6316
70.248
67.8977
65.5681
63.2614
60.9606
58.6856
56.4457
54.1973
51.9762
49.7664
47.5454
45.331
43.1392
40.9729
38.7975
36.6478
34.5384
32.4205
30.2922
28.1912
26.141
24.1315
22.1184
20.1062
18.1216
16.1738
14.2283
12.2722
10.3427
8.45638
6.57095
4.68204
2.80466
0.93572
96.6016
101.279
99.4839
103.956
97.5949
103.217
96.5625
92.5654
89.9606
87.3999
84.8788
82.3762
79.8943
77.4575
75.0308
72.6309
70.2483
67.8992
65.5721
63.2656
60.9691
58.6929
56.4456
54.1908
51.9591
49.7487
47.5419
45.3328
43.1424
40.977
38.8074
36.6623
34.5455
32.4187
30.2863
28.1849
26.1363
24.1233
22.1183
20.1065
18.1226
16.1834
14.2452
12.2802
10.3436
8.4536
6.56445
4.67136
2.79834
0.935575
95.7103
95.1531
148.454
118.425
102.835
106.188
96.0292
92.504
89.9828
87.4464
84.9215
82.4075
79.938
77.4798
75.0391
72.6425
70.2505
67.9123
65.5888
63.2693
60.9751
58.6972
56.4378
54.1923
51.9512
49.7321
47.5302
45.3345
43.1504
40.9804
38.8229
36.6759
34.5423
32.4141
30.2898
28.1922
26.1323
24.1085
22.1006
20.1054
18.1279
16.1872
14.2539
12.2998
10.3523
8.44599
6.55691
4.67003
2.79839
0.935091
96.3841
110.075
154.33
117.182
102.081
100.639
96.5018
92.7741
90.1147
87.5072
84.9639
82.4207
79.9318
77.4835
75.0478
72.6347
70.2669
67.9374
65.6118
63.2712
60.9781
58.6993
56.4291
54.1855
51.9521
49.728
47.5207
45.3405
43.1603
40.9814
38.8264
36.6744
34.5223
32.4003
30.2995
28.2076
26.1331
24.0993
22.0977
20.1082
18.138
16.1847
14.2378
12.2995
10.3618
8.44172
6.54799
4.67106
2.80365
0.93507
98.0342
36.1929
129.384
97.8695
133.921
99.023
99.1176
93.6697
90.0573
87.5471
84.9717
82.4545
79.9388
77.4786
75.0511
72.6427
70.2685
67.9312
65.591
63.2752
60.9891
58.6994
56.4338
54.1885
51.9651
49.7391
47.5205
45.3469
43.1551
40.9717
38.8271
36.6705
34.5171
32.3954
30.3069
28.2242
26.1391
24.096
22.0994
20.1165
18.1427
16.1729
14.2206
12.2901
10.3681
8.44386
6.54837
4.67804
2.80901
0.930636
144.203
103.171
105.44
109.263
175.35
104.63
99.0707
93.6291
89.9897
87.5008
84.9403
82.4166
79.9279
77.47
75.0572
72.6506
70.281
67.9233
65.5701
63.2747
60.9919
58.6987
56.4398
54.1934
51.9733
49.754
47.5305
45.3428
43.1426
40.9644
38.8222
36.6625
34.5142
32.3943
30.3079
28.2338
26.1501
24.1004
22.1021
20.1229
18.1411
16.1596
14.2007
12.278
10.3644
8.44502
6.55646
4.69162
2.81687
0.92876
96.7344
98.5665
103.727
175.614
106.25
107.374
98.5004
93.5548
89.8915
87.4366
84.8965
82.389
79.9189
77.4657
75.0568
72.6524
70.2862
67.924
65.5651
63.2684
60.9905
58.696
56.4403
54.2036
51.9789
49.7677
47.5402
45.3358
43.1358
40.9583
38.8162
36.6563
34.5066
32.3969
30.3119
28.2361
26.1613
24.1107
22.1058
20.1241
18.1352
16.1456
14.1871
12.2681
10.3595
8.44955
6.57231
4.71656
2.82607
0.931623
99.2812
100.426
98.2435
93.5645
93.2771
98.5718
97.8387
93.2232
89.7222
87.3158
84.8414
82.3607
79.9143
77.4677
75.0484
72.6484
70.2827
67.9303
65.568
63.2547
60.9733
58.6941
56.4396
54.2114
51.9854
49.7657
47.5463
45.333
43.137
40.9663
38.8101
36.6431
34.4996
32.4019
30.3141
28.23
26.1664
24.1255
22.1077
20.1161
18.1279
16.1374
14.1829
12.2653
10.3547
8.45095
6.57865
4.71592
2.83205
0.940858
99.1301
99.0599
98.6505
99.026
95.8267
96.1326
96.1881
92.1478
89.7207
87.2632
84.8027
82.335
79.8977
77.456
75.0202
72.6468
70.2723
67.9173
65.582
63.2475
60.9647
58.6893
56.4365
54.2125
51.985
49.7709
47.5484
45.3306
43.1483
40.9729
38.805
36.6399
34.5037
32.4091
30.3128
28.2196
26.1665
24.1351
22.1131
20.11
18.123
16.1501
14.196
12.2703
10.3542
8.45324
6.57677
4.70507
2.83053
0.94484
98.8496
99.1344
100.154
100.406
103.095
110.534
95.1372
92.1255
89.7137
87.2679
84.8064
82.3428
79.8918
77.4489
75.0286
72.6432
70.249
67.8983
65.5713
63.2555
60.9582
58.6827
56.442
54.2077
51.9863
49.77
47.5447
45.3289
43.1414
40.9713
38.7939
36.641
34.5237
32.4135
30.3045
28.2092
26.1644
24.1389
22.1168
20.108
18.121
16.1564
14.2089
12.2694
10.3497
8.45375
6.56897
4.69306
2.81753
0.945683
97.6797
98.0786
100.938
109.562
127.215
103.035
95.4353
92.2579
89.8065
87.307
84.8301
82.3463
79.8744
77.4467
75.027
72.6318
70.2479
67.8976
65.5686
63.2613
60.9605
58.6856
56.4457
54.1972
51.9761
49.7663
47.5451
45.331
43.1393
40.9729
38.7971
36.6479
34.5387
32.4204
30.292
28.1913
26.1411
24.1314
22.1184
20.1061
18.1216
16.1737
14.2282
12.272
10.3427
8.45638
6.57078
4.68193
2.80465
0.935649
97.6806
101.122
97.5226
104.851
97.6839
102.086
97.539
96.2813
100.068
97.0644
103.166
96.065
97.8928
96.9794
98.1226
100.248
98.9098
99.2731
98.1595
99.7369
98.9125
99.187
102.395
99.4274
102.188
99.1917
107.521
99.453
98.9929
105.937
97.7781
112.683
99.0375
101.208
97.7607
98.5621
99.0579
97.6332
105.697
98.5476
99.4251
97.6064
97.7389
97.1849
96.837
98.9573
97.708
97.1878
96.8392
96.5997
101.385
97.1924
95.9721
96.6051
101.649
97.271
97.3555
101.783
96.0771
92.2583
97.3767
102.776
95.9633
96.1678
100.645
96.6037
101.592
96.1914
100.612
96.6072
97.7062
102.262
97.5585
103.489
97.5112
103.693
97.5767
96.2415
97.9492
97.0273
105.59
96.2138
98.7699
97.0281
98.1738
99.7343
98.9085
100.487
98.1851
99.7199
98.9196
99.1914
105.531
99.3821
98.8432
99.1998
101.756
99.4246
98.9757
101.56
97.8252
104.937
98.9895
101.726
97.7925
98.6136
100.355
97.7271
106.477
98.5594
101.054
97.6158
97.7716
97.2122
96.8356
98.5824
97.5056
97.0489
96.8366
96.6072
101.646
97.2862
96.1259
96.6219
93.9596
97.2146
97.3849
100.517
95.957
110.733
97.4334
100.256
95.9551
96.1699
100.581
96.5995
100.763
96.0956
100.566
96.5798
97.628
103.739
97.6079
102.962
97.5938
104.394
97.5336
96.2574
98.481
97.0184
107.107
96.2945
98.4719
96.9937
98.1758
99.982
98.9243
101.558
98.1459
99.6755
98.9188
99.2054
101.816
99.3927
99.5356
99.2044
101.471
99.3938
99.0205
102.127
97.871
104.153
98.9756
102.912
97.8312
98.6516
98.0764
97.667
107.668
98.6201
98.5858
97.6394
97.5884
97.1864
96.8449
99.0919
97.4101
98.1406
96.8367
96.6306
96.7898
97.2401
96.137
96.6303
100.141
97.1141
97.4786
100.25
95.9799
110.744
97.4359
101.007
96.045
96.0775
100.544
96.5904
106.911
96.1361
100.518
96.5998
145.503
98.8391
102.571
97.9898
98.9301
97.1013
104.903
100.127
102.247
111.127
106.477
107.507
100.269
101.829
94.6218
96.4831
94.5729
96.5829
94.6304
96.4849
94.5816
100.416
100.301
97.9281
103.905
98.79
100.379
97.5597
70.7574
98.2879
93.5571
93.7711
98.2511
92.0222
71.8144
94.433
96.3551
94.4968
96.0015
94.4411
96.3795
94.5056
106.222
107.544
103.438
99.9443
130.452
108.145
99.4787
99.9883
98.4344
100.149
101.893
98.2922
102.444
99.7036
94.9022
98.4998
94.8726
96.5157
94.9109
98.4806
94.8778
79.2522
116.32
112.59
98.8756
79.8419
120.632
119.612
104.834
97.1951
100.959
96.2867
97.4687
100.548
110.261
95.1464
99.4171
94.9324
99.1103
95.1593
99.43
94.9382
86.1114
89.2969
97.8286
163.266
97.7255
219.911
104.168
97.0679
99.2253
97.3415
102.58
99.2247
97.0142
97.1154
94.9911
98.1178
94.6634
99.0786
94.9943
98.1143
94.6648
101.503
99.1982
97.3639
97.8813
101.893
98.2256
100.649
98.2386
99.197
110.568
106.143
99.1835
101.047
98.1807
94.7538
97.8732
94.3889
98.4941
94.7558
97.8831
94.3934
97.8984
93.8007
96.7481
96.2903
99.1629
93.9301
98.188
97.2916
97.9697
100.585
99.4566
97.8717
99.5391
97.6647
94.3324
96.9848
94.0036
97.8433
94.3393
97.0197
94.0152
98.3818
105.404
101.768
102.962
94.5514
102.689
103.511
96.4889
96.1133
95.9109
96.1874
96.0274
96.0467
96.5165
93.9379
95.8693
93.9796
96.174
93.9445
95.6647
93.987
103.344
116.532
94.7329
101.036
101.938
105.332
101.845
99.3345
97.9141
106.293
92.5647
97.9151
106.307
99.3266
93.8386
95.5637
93.8675
95.1277
93.8469
95.5627
93.8758
131.469
109.708
109.219
100.571
111.701
101.476
99.4949
96.8874
96.5764
98.8773
99.8396
96.5685
99.2586
96.8911
94.0599
95.9671
94.2455
95.4417
94.0678
95.9683
94.2533
98.5393
95.6288
104.821
97.627
93.6201
95.1366
97.7796
100.735
101.702
103.508
104.214
102.178
103.722
102.73
94.6293
96.487
94.5805
96.5671
94.6291
96.4889
94.5803
112.115
100.226
97.3957
102.736
102.387
99.982
97.4653
177.96
99.1684
121.408
104.563
69.5856
99.3466
119.961
94.4398
96.3479
94.5049
96.0045
94.4396
96.3473
94.5047
106.123
102.353
99.6144
102.612
102.781
101.057
100.26
99.2339
98.494
101.122
99.9643
99.2189
98.7509
101.174
94.91
98.4741
94.8737
96.4859
94.9098
98.4696
94.8737
108.205
117.011
105.745
69.8662
105.187
104.225
113.592
103.619
99.3568
102.528
98.7908
103.841
99.017
102.086
95.1575
99.4263
94.9336
99.124
95.1581
99.444
94.9337
91.1716
125.201
99.0372
159.62
92.6227
122.167
99.565
96.9103
99.3672
100.844
116.605
97.0035
99.4159
100.865
94.9901
98.1141
94.6608
99.0716
94.99
98.1098
94.6607
116.208
98.1987
101.769
109.716
119.554
98.8913
99.7763
98.1137
99.2286
101.283
106.09
98.1242
99.1672
101.23
94.7532
97.8843
94.389
98.4964
94.754
97.8874
94.389
96.2832
95.4857
97.0542
95.1334
96.503
95.1514
96.5374
97.2369
97.895
98.2887
98.8547
97.2938
97.8086
104.666
94.335
97.021
94.0133
97.8371
94.3345
97.0213
94.0133
93.9372
107.675
101.263
95.8573
94.8794
97.7812
102.33
96.9756
96.2526
97.496
96.1715
96.4594
96.272
98.4404
93.9421
95.6527
93.9856
96.186
93.9417
95.6548
93.986
100.826
95.7648
109.908
103.262
107.157
101.053
95.7044
99.1957
98.0302
105.93
116.649
99.2522
98.5028
105.889
93.8461
95.5634
93.8752
95.1337
93.8459
95.56
93.8751
109.039
102.211
101.019
99.726
108.719
107.527
99.3019
96.9479
96.5277
99.8726
100.771
96.9144
96.5614
100.024
94.0669
95.9686
94.252
95.4368
94.0668
95.9673
94.2519
94.0621
94.1642
97.6174
97.5953
96.3289
97.2929
99.0393
99.778
100.183
102.511
105.299
116.549
102.399
103.028
94.63
96.4896
94.5813
96.5668
94.6214
96.488
94.5723
101.326
100.038
97.5749
104.305
102.152
100.746
100.799
129.593
100.322
112.856
107.408
130.092
100.476
119.846
94.441
96.3556
94.506
96.0387
94.4325
96.3711
94.4979
102.36
99.5571
102.365
103.093
110.982
99.9504
100.865
99.4077
99.1541
101.343
100.668
99.318
99.2668
102.036
94.9106
98.4771
94.8779
96.6345
94.9021
98.4801
94.8727
99.9622
99.9545
101.029
101.992
101.136
109.667
100.944
101.322
98.7426
102.722
99.1994
100.903
98.9568
101.63
95.1598
99.4365
94.9387
99.06
95.1476
99.4322
94.933
88.3608
121.99
98.7211
80.8714
88.8691
125.739
98.809
97.274
99.6221
101.057
104.025
97.1868
99.62
101.058
94.9943
98.1141
94.6649
99.0655
94.9907
98.1121
94.6627
118.628
81.4681
106.044
112.495
105.02
93.9859
100.03
98.1641
99.0226
100.293
107.015
98.1052
99.0056
101.835
94.7577
97.8901
94.3933
98.4945
94.7558
97.8803
94.3886
97.1034
94.8563
96.6644
96.4358
96.7875
96.3331
97.0042
97.3522
97.6751
97.8423
98.6215
97.3536
98.0711
97.8709
94.3382
97.0185
94.0154
97.8215
94.3311
96.9861
94.0039
98.9735
100.984
99.4279
96.265
97.3511
99.6985
103.684
96.2592
96.2993
95.4708
96.1179
96.3587
96.3197
95.3645
93.9438
95.6797
93.9876
96.1888
93.9372
95.8947
93.9793
101.137
101.687
92.9538
100.461
99.9428
114.792
94.2021
99.1416
98.89
91.4845
110.568
99.0334
99.3429
91.6825
93.8465
95.5604
93.8758
95.2257
93.8383
95.5668
93.8676
106.109
103.468
98.3853
122.099
108.307
99.8612
88.4462
96.7789
96.6814
100.528
102.324
96.8199
96.6603
100.674
94.0674
95.9665
94.2532
95.4361
94.0593
95.9671
94.2455
100.524
101.647
97.5362
97.6781
97.5767
100.604
101.033
98.8083
101.159
100.857
100.968
101.28
100.881
98.8979
98.7598
97.0893
98.9423
97.5118
97.0986
98.9502
98.79
100.39
105.334
101.897
103.95
104.68
100.353
101.933
101.033
97.6721
101.113
97.5351
97.5833
100.22
101.153
98.7473
101.21
101.911
100.994
101.107
100.92
98.9451
98.6334
97.5065
97.1367
98.8142
97.1215
98.9115
98.748
97.3002
97.6267
97.2128
96.2892
97.7483
96.598
99.3148
97.1205
115.022
97.58
99.7773
103.248
97.7312
98.0134
97.8159
97.4201
97.8072
96.9689
96.4828
97.8142
98.3775
70.6845
103.345
99.622
90.0457
98.3165
91.6389
71.1957
94.3988
96.1375
100.874
96.6267
97.9767
97.1477
109.314
98.5596
104.044
104.732
99.1424
104.251
97.569
98.2712
100.896
96.9847
97.1445
97.7835
98.1565
97.8087
97.7034
99.0305
98.4062
98.7717
98.1311
98.4063
98.8007
99.0327
100.98
103.513
99.0279
100.533
103.283
99.0245
100.291
99.4539
99.217
99.1783
98.9209
99.2377
99.1699
99.4889
99.2522
98.9916
98.4556
101.368
98.4779
100.811
99.2148
99.0374
98.1413
98.4064
98.8096
98.407
98.8067
99.033
99.5756
99.8162
102.535
99.0206
102.339
99.0371
99.4336
99.4952
98.9183
99.2329
99.1804
99.2402
99.2495
99.4833
98.156
99.292
98.8956
99.192
98.9897
98.9181
98.1085
103.438
116.101
100.439
101.981
104.738
100.38
103.441
100.118
99.6454
99.8096
99.4385
99.6464
99.7966
99.9649
105.961
96.6803
101.019
101.913
100.827
99.9943
95.345
103.448
99.1924
98.9244
98.9385
98.9727
98.9362
102.634
103.348
110.987
126.13
100.377
105.439
100.335
103.215
99.9017
99.4778
99.6485
99.7966
99.6433
99.7696
99.8786
98.0093
99.4476
98.2513
99.0011
99.4456
98.2436
98.0297
98.3454
117.657
96.9446
108.661
111.836
97.3005
98.6493
98.4534
98.4376
97.8957
97.7629
98.4238
97.9059
98.4458
97.0491
114.007
99.3295
101.483
99.2544
105.08
97.0136
98.0098
99.0285
99.4754
98.2866
99.4513
98.3474
98.0013
99.4745
101.219
122.873
96.4853
112.695
96.682
99.2602
98.4742
97.8259
98.4238
97.879
98.4449
98.0151
98.3775
98.9302
99.7637
98.1625
98.5422
99.7803
98.1608
98.9399
98.5478
105.204
97.6896
98.1359
100.289
97.6786
98.8367
98.4665
98.0409
98.0335
97.6129
98.0063
97.957
98.4899
97.9497
106.336
99.1751
101.573
99.1978
100.946
98.1975
98.7872
98.6662
99.7891
98.1293
99.8552
98.2663
98.8341
98.6801
97.9536
104.91
97.6447
104.505
97.6631
98.2993
98.3969
97.6323
97.9733
97.9712
98.0607
97.9838
98.4045
97.276
97.7303
97.0981
97.8372
97.7239
97.0943
97.3089
96.7461
96.6494
96.6222
96.9373
96.57
96.6634
97.6353
97.0371
97.1974
96.8674
96.8406
97.1774
96.8683
97.2699
97.2922
99.1823
97.8811
98.2532
97.8632
98.4123
97.3194
97.2801
97.6368
97.685
97.0622
97.7002
97.096
97.2907
96.7358
96.9819
96.5458
96.7313
96.5305
96.7082
97.0359
97.0317
96.8484
97.1909
96.8703
97.2237
96.8952
97.0321
96.5066
96.7225
96.5152
96.6072
96.7236
96.5244
96.5091
98.3085
104.837
98.6423
101.291
104.267
98.4949
99.4774
97.2979
95.9081
97.6859
97.2039
95.9184
97.7029
97.3107
96.4622
96.0743
96.1286
97.5805
97.5971
96.3404
96.3503
96.5075
96.6092
96.7407
96.5303
96.7519
96.5305
96.5224
98.6038
101.01
103.733
99.2371
103.685
99.2228
98.5633
97.284
97.2233
95.8849
97.6843
95.9126
97.7011
97.2795
97.8631
98.0428
97.3832
97.3698
98.0591
97.2933
97.8356
97.2258
101.999
96.6774
103.188
98.356
96.6573
97.2426
96.7335
96.3735
97.4362
95.996
96.2968
97.4684
96.6605
99.3225
92.4625
97.9884
105.948
97.9424
105.982
99.2942
97.8694
97.3731
98.0819
97.1905
98.0701
97.2321
97.8538
97.2724
105.125
97.5147
96.5422
97.9945
96.6114
97.3355
96.64
95.9688
95.9254
97.4585
96.1355
97.4748
96.488
96.6258
97.1697
96.3733
96.1922
97.1164
96.3889
96.6391
98.6633
98.8671
97.015
100.648
99.3677
98.626
97.0989
97.8265
96.6769
98.5958
96.6065
96.678
97.9199
98.4769
97.0209
104.28
96.4979
100.209
96.5363
100.812
96.944
96.7018
96.1967
97.1189
96.4006
97.094
96.4039
96.665
98.6283
100.639
99.0861
97.0808
99.6389
98.7452
97.1408
97.6967
96.6037
96.7208
98.4716
96.6952
97.6625
98.4992
100.986
100.73
97.487
97.691
101.688
97.5421
101.753
99.0132
100.416
101.103
102.503
98.9831
100.439
101.165
98.6953
97.116
98.8288
97.5629
98.7203
97.0954
98.8334
102.987
103.943
109.381
102.539
103.837
98.6039
104.025
106.872
97.5744
106.207
97.4691
97.5846
98.7847
102.09
99.0128
103.181
100.921
101.338
100.41
101.263
98.8853
98.6853
97.5666
97.1205
98.8622
97.0913
98.8512
98.5292
95.3209
98.5645
96.2692
96.2812
95.81
97.8137
97.6717
98.7707
101.992
97.6206
97.9386
98.4037
101.443
97.9528
98.3614
96.9508
97.7329
97.0936
97.7548
96.8163
97.7083
127.909
105.015
99.8229
112.775
99.6973
113.019
130.644
106.405
96.1819
97.4138
97.3119
97.6444
97.9165
106.07
98.7912
99.69
101.509
98.1227
101.412
98.031
99.1252
98.3464
97.0763
97.1097
97.7381
96.9188
97.71
98.2625
99.0099
98.4106
98.8082
98.1811
99.0231
98.4108
98.8073
98.9472
102.395
99.0741
99.7476
99.1898
101.977
99.0373
99.544
99.2276
99.1718
98.9119
99.5406
99.2257
99.1509
99.2163
100.261
99.0528
101.602
98.9823
101.157
99.2155
98.9975
98.1828
98.3587
98.7913
98.3858
98.8007
98.9824
99.0911
99.7341
101.94
99.0642
101.922
99.0545
99.0247
99.6004
98.9169
99.2154
99.1451
99.2195
99.1737
99.5598
100.194
98.9978
98.9549
99.1949
102.591
99.1996
99.0007
103.1
95.1681
100.358
112.164
102.921
94.4837
100.368
99.8993
99.6562
99.7844
99.3973
99.9421
99.6614
99.7795
102.875
99.1565
99.3281
110.403
99.2046
102.458
100.499
98.8136
99.1952
98.8947
99.027
99.2209
99.0283
98.8039
103.019
103.873
111.842
100.363
112.223
100.355
102.96
100.241
99.482
99.6563
99.801
99.6595
99.7888
100.103
97.9919
99.4692
98.2516
98.9694
98.0156
99.4729
98.2302
98.0316
93.9598
96.6295
101.661
98.2078
93.5404
96.6159
98.332
98.4529
97.9603
97.7283
98.3594
98.4046
97.9483
97.0179
105.411
99.5365
101.097
99.4842
101.057
97.1778
98.002
99.0002
99.4617
98.2642
99.4719
98.2634
97.9797
97.7202
101.674
94.2928
96.5804
94.2097
96.5703
97.5937
98.401
97.8412
98.4593
97.9216
98.5043
97.948
98.3292
98.7876
99.8344
98.2188
98.5026
98.8376
99.7996
98.1395
98.2602
101.365
97.6366
99.0264
98.2832
101.471
97.5868
98.3928
98.0528
97.9832
97.639
98.443
97.9929
97.9624
98.4562
108.282
99.0366
100.654
99.062
100.887
98.3147
98.8335
98.7101
99.9554
98.1428
99.8272
98.1729
98.7884
98.2404
101.267
101.241
97.4355
101.403
97.5337
98.1863
98.4024
97.6595
98.0394
97.9697
98.024
97.9695
98.4144
97.2851
97.6626
97.163
97.5205
97.2891
97.6923
97.0873
96.7747
96.6209
96.8415
97.2388
96.9649
96.6573
96.8014
97.1519
97.1899
96.8739
96.8331
97.061
97.1963
96.8565
97.148
98.6895
97.6596
97.9087
97.9141
97.8886
97.0739
97.2783
97.5573
97.7199
97.084
97.7327
97.0997
97.3208
96.7242
97.0645
97.4852
96.8269
96.7723
96.8074
96.9277
97.0147
96.8353
97.1683
96.8659
97.2021
96.8855
97.0388
96.5225
96.7157
96.5305
96.6117
96.5293
96.7101
96.5323
99.1526
104.288
99.5386
105.092
98.2539
103.707
99.6768
97.2899
95.8245
97.6657
97.2831
97.2903
95.8827
97.6692
96.7365
96.0819
96.2895
95.5543
96.2786
96.1536
96.2217
96.5094
96.6178
96.717
96.5343
96.7565
96.5348
96.5057
100.28
96.6153
101.347
98.3828
102.22
100.006
98.4266
97.2706
97.2405
95.8576
97.6443
95.7818
97.6653
97.2436
97.7301
98.1037
97.1828
97.4038
97.7997
98.1392
97.2379
97.3826
97.3684
96.4831
100.109
97.4051
97.3867
96.4716
96.7809
96.5746
97.4425
95.9562
97.1051
96.4906
97.4063
99.0073
112.495
98.8093
106.615
98.686
106.108
99.1747
97.6823
97.4142
98.2414
97.2743
98.1926
97.2404
97.6635
97.9631
101.88
97.1477
96.4141
97.9381
96.4505
97.456
96.8745
95.9562
96.2347
97.369
96.3531
97.3647
96.7521
96.6494
97.2102
96.3774
96.143
96.6826
97.2737
96.39
98.6793
100.86
97.0851
100.56
98.612
99.6699
97.1297
97.2785
96.6984
98.4213
96.5907
97.3434
96.6639
98.3623
96.8392
100.17
96.6595
100.727
96.5922
101.111
96.8729
96.3972
96.1185
97.3517
96.4712
97.3015
96.4387
96.5003
98.7595
100.564
99.3972
97.1701
99.4072
98.9462
97.1707
97.3208
96.5833
96.5852
98.3195
96.6273
97.5445
98.3197
97.337
98.5036
97.3747
97.7266
107.729
97.4719
105.115
98.9658
101.228
101.434
103.704
98.957
101.198
101.465
98.6892
97.1575
98.884
97.6105
98.6513
97.1617
99.0054
99.384
103.015
101.69
104.198
102.358
102.642
99.9791
97.7901
97.6809
100.958
97.5424
97.5518
99.5267
99.8948
99.0396
105.216
101.371
101.416
101.163
101.393
99.0327
98.716
97.5698
97.1232
99.096
97.1497
99.0238
98.7659
106.779
97.8681
98.0251
96.2268
131.819
97.8745
98.3833
99.7599
101.706
98.1841
98.9101
99.4927
102.528
98.1937
98.066
96.9955
97.774
97.015
98.1654
96.9633
97.7906
129.321
106.828
100.682
108.178
100.514
107.067
129.046
109.352
96.2538
98.0405
98.0236
97.652
98.1048
109.598
99.914
98.4307
103.586
98.3173
102.19
98.2293
99.9849
98.0347
97.0047
97.1186
97.8023
97.0381
97.7965
97.98
98.9899
98.3498
98.7872
98.1696
98.9746
98.3672
98.7822
99.1826
103.092
99.0722
99.6577
99.0106
101.685
99.0535
99.6459
99.2208
99.1439
98.928
99.6142
99.2308
99.1443
99.389
102.104
99.7507
103.463
99.5021
101.351
99.414
98.9913
98.1686
98.3627
98.75
98.3767
98.7743
98.9958
99.0326
99.662
102.339
99.1636
101.731
99.0349
99.1116
99.5818
98.9298
99.2219
99.1709
99.2371
99.1429
99.5682
99.8024
98.9062
99.0403
99.2085
98.8285
98.9919
99.0733
101.648
110.441
100.33
100.137
103.253
111.105
100.333
100.113
99.6728
99.8093
99.3923
100.095
99.665
99.8036
101.879
99.4488
99.4666
104.823
99.29
98.6938
101.68
99.756
99.209
98.9559
99.0815
98.9649
99.0879
101.235
101.204
100.309
113.269
100.367
111.36
100.342
103.339
100.124
99.4035
99.6716
99.8161
99.6718
99.8048
100.138
97.948
99.4607
98.3853
98.9891
97.9467
99.46
98.2837
97.4613
94.0222
96.6154
103.158
97.4946
93.4726
96.6519
98.3651
98.6093
97.9223
97.7737
98.3329
98.43
97.8994
97.3248
104.003
99.6519
101.034
99.6436
101.031
97.2959
98.1507
98.9775
99.4683
98.2642
99.4719
98.2531
98.073
97.4798
102.527
93.9029
96.7324
93.5234
96.7819
97.4585
98.3538
97.7746
98.4782
97.9257
98.4305
97.9081
98.3592
98.8018
99.8607
98.2532
98.5606
98.8281
99.8566
98.1603
98.3296
101.228
97.387
98.4384
98.1885
101.365
97.4435
98.4031
98.0686
97.995
97.6163
98.4166
98.0211
97.9492
98.2066
107.802
98.9955
100.548
98.9661
100.42
98.2241
98.7979
98.5668
99.8994
98.1991
99.8828
98.1629
98.9237
98.3954
98.1787
104.142
97.5625
101.786
97.8627
98.4378
98.4037
97.6261
98.0574
97.9953
98.0261
97.9418
98.5184
97.4022
97.645
97.1119
97.3167
97.3128
97.6631
97.0686
96.576
97.3623
96.8265
97.9097
96.2845
97.3948
96.8044
97.0573
97.1741
96.8765
96.8391
97.0533
97.151
96.8705
97.2699
98.5767
97.6321
99.0811
97.7886
97.9149
97.3279
97.3475
97.5463
97.6779
97.1104
97.7041
97.0859
97.3489
97.1091
97.5171
97.7023
97.1645
98.7995
96.7927
96.9163
97.0717
96.839
97.1846
96.8681
97.1483
96.875
97.0605
96.4983
96.7751
96.5359
96.634
96.4998
96.7155
96.5381
97.7753
100.832
99.0615
102.222
98.451
100.526
97.821
97.2054
95.9215
97.635
97.1512
97.2368
96.0313
97.639
96.4454
96.1607
96.3254
95.5473