/*--------------------------------*- C++ -*----------------------------------*\
| =========                 |                                                 |
| \\      /  F ield         | OpenFOAM: The Open Source CFD Toolbox           |
|  \\    /   O peration     | Version:  5.0                                   |
|   \\  /    A nd           | Web:      www.OpenFOAM.org                      |
|    \\/     M anipulation  |                                                 |
\*---------------------------------------------------------------------------*/
FoamFile
{
    version     2.0;
    format      ascii;
    class       surfaceScalarField;
    location    "1.6";
    object      phi;
}
// * * * * * * * * * * * * * * * * * * * * * * * * * * * * * * * * * * * * * //

dimensions      [0 3 -1 0 0 0 0];

internalField   nonuniform List<scalar> 
25552
(
-3.79425e-09
-9.43438e-12
1.73012e-09
-5.46592e-10
-7.60347e-10
-9.46484e-10
6.23027e-12
-2.10884e-09
-4.16199e-10
1.52001e-10
-6.5206e-09
-1.98116e-09
-3.42727e-10
-2.07313e-09
-1.49144e-09
-4.35488e-09
9.48987e-09
6.82683e-09
-9.53231e-10
-1.62739e-09
1.83848e-10
4.61697e-09
2.68741e-09
-6.44356e-09
-2.03616e-10
-2.07272e-09
-2.27838e-09
1.50817e-09
4.18689e-10
1.30684e-09
7.17307e-10
2.62176e-09
1.57042e-09
1.6642e-09
3.33777e-09
-2.87171e-09
1.70866e-10
4.47948e-11
2.01902e-09
-5.1051e-11
2.25355e-10
1.63569e-12
5.61831e-11
-5.03683e-11
-1.08029e-10
-1.03005e-10
1.37555e-09
-1.76943e-11
-3.89324e-11
-2.55384e-10
-2.48562e-10
-4.38548e-10
-4.26576e-10
1.36599e-09
-1.69978e-11
-1.06537e-12
1.36561e-09
-1.45261e-11
-5.7246e-14
1.36691e-09
-1.01009e-11
-7.82774e-16
1.3689e-09
-6.88306e-12
-3.20182e-13
1.37037e-09
-4.54637e-12
-1.31702e-13
1.37128e-09
-2.93063e-12
3.51001e-13
1.37185e-09
-1.85939e-12
1.98126e-13
1.37231e-09
2.06439e-13
-1.32886e-12
1.37262e-09
-7.766e-13
7.75561e-15
1.37263e-09
-2.52392e-13
1.46328e-13
1.37259e-09
-4.57672e-13
4.22378e-13
1.37258e-09
-2.04499e-13
-5.10987e-14
1.37299e-09
-7.05164e-14
-8.75943e-13
1.37301e-09
9.33276e-15
-7.46576e-14
1.37294e-09
-3.32307e-13
4.84986e-13
1.37322e-09
-3.73252e-13
9.14004e-14
1.37316e-09
2.101e-13
-6.83636e-13
1.37311e-09
-1.17768e-12
-3.92306e-13
1.37322e-09
-6.66642e-14
6.83829e-13
1.37323e-09
4.42094e-14
7.51781e-15
1.37318e-09
-2.09037e-13
-1.06328e-12
1.37337e-09
-3.99678e-13
-9.06211e-14
1.37263e-09
-9.85121e-13
3.72312e-12
1.37297e-09
-8.386e-13
2.87315e-12
1.37308e-09
-5.86431e-13
6.55766e-14
1.37387e-09
-2.43096e-12
1.6892e-12
1.37364e-09
1.62741e-13
2.06048e-14
1.37341e-09
4.30524e-13
-1.40416e-13
1.37281e-09
6.69674e-14
3.23832e-14
1.37267e-09
5.73076e-13
-7.70482e-13
1.37444e-09
-2.95781e-12
7.08485e-13
1.37374e-09
4.65308e-13
8.58827e-14
1.37366e-09
1.32037e-13
-9.97438e-15
1.37395e-09
-4.34665e-14
-2.28228e-13
1.37454e-09
2.38023e-12
-4.42969e-13
1.37303e-09
3.59045e-12
-1.39367e-12
1.3734e-09
-5.88489e-13
1.80927e-15
1.37358e-09
2.55911e-14
-2.95819e-13
1.37382e-09
-4.83746e-13
2.04671e-13
1.37373e-09
3.66891e-14
1.42251e-13
1.37328e-09
-3.71488e-13
6.74158e-13
1.30033e-12
-1.17461e-12
-1.13516e-09
-9.19924e-10
2.23658e-09
-1.535e-09
1.35457e-09
-2.1249e-09
2.22836e-09
-9.01003e-10
-1.50882e-09
3.77947e-10
-1.06724e-09
-6.80623e-10
5.53206e-10
-2.22837e-09
3.42305e-09
1.55063e-09
-5.67314e-10
-5.86826e-09
-2.66778e-09
3.72316e-09
-9.43442e-10
1.21035e-09
3.56268e-09
7.86554e-10
4.71864e-10
-2.39652e-10
-1.09548e-09
7.67112e-11
-1.22832e-10
-4.72091e-10
-3.85748e-10
1.83909e-10
7.96761e-10
-2.00742e-11
-2.15639e-11
1.80784e-10
-2.28121e-11
-3.45262e-11
-9.68104e-12
-8.56949e-11
3.74153e-12
6.75112e-12
1.50377e-12
1.5728e-12
1.352e-09
-7.78296e-11
-2.94257e-11
-2.38506e-10
-2.29462e-10
-4.08058e-10
-3.86452e-10
1.36334e-09
-2.87957e-11
3.65692e-13
1.36978e-09
-2.13719e-11
3.11752e-13
1.37174e-09
-1.22797e-11
1.27265e-13
1.37254e-09
-7.82985e-12
5.63111e-14
1.37282e-09
-4.90623e-12
1.24541e-14
1.37297e-09
-3.15454e-12
1.89505e-14
1.37301e-09
-1.98304e-12
4.32099e-14
1.37314e-09
-1.1487e-12
1.19171e-12
1.37321e-09
-9.52221e-13
7.72674e-14
1.37302e-09
9.4911e-13
-1.03141e-12
1.37289e-09
-1.83855e-12
1.49592e-12
1.37282e-09
-1.55233e-13
6.53673e-15
1.37283e-09
1.50562e-13
-2.27752e-13
1.37287e-09
1.07806e-13
-1.4122e-13
1.37301e-09
6.53192e-13
-1.11261e-12
1.37356e-09
-5.87537e-13
-3.32708e-13
1.37347e-09
9.86413e-14
2.19275e-13
1.37284e-09
-5.09321e-14
-4.85079e-13
1.37306e-09
3.96196e-14
-3.07417e-13
1.37317e-09
1.33786e-13
-1.74644e-13
1.37236e-09
-9.20054e-13
1.54593e-12
1.37263e-09
-1.75057e-13
-4.75859e-13
1.37304e-09
3.44649e-13
-1.7253e-12
1.37322e-09
6.02928e-13
-1.59831e-12
1.37406e-09
-3.77745e-12
2.37586e-12
1.37409e-09
-4.53138e-12
2.09497e-12
1.37341e-09
8.86444e-13
-2.99142e-14
1.37384e-09
-3.45368e-14
5.92396e-14
1.37392e-09
1.02408e-13
-1.05583e-13
1.37401e-09
4.56914e-14
4.57137e-13
1.37271e-09
-1.23835e-12
-4.04659e-13
1.37307e-09
1.58553e-13
-4.02865e-14
1.37295e-09
5.6553e-13
-3.03989e-13
1.37233e-09
-9.78907e-14
6.88717e-13
1.37318e-09
7.58734e-13
7.77312e-13
1.37455e-09
3.82209e-13
1.84538e-12
1.37394e-09
-2.52428e-14
5.11615e-14
1.37357e-09
1.71899e-13
2.33581e-13
1.37408e-09
-1.80129e-12
8.0673e-13
1.37384e-09
3.29568e-13
-5.40198e-14
1.37356e-09
1.14949e-12
-1.23656e-12
-2.07672e-13
1.2176e-12
4.92464e-09
2.88933e-09
-9.72396e-09
2.10096e-09
2.75804e-10
-1.00489e-08
-6.63316e-10
-5.02853e-09
-3.51538e-08
5.24995e-08
9.39736e-08
-9.1866e-08
-3.11258e-09
1.05759e-09
-1.93226e-09
-2.16634e-09
-2.77099e-09
-7.85646e-09
5.17968e-09
7.61435e-09
1.05516e-08
-7.11919e-09
-2.27625e-10
-3.30556e-08
-6.42391e-08
8.7604e-08
8.7619e-09
-8.76863e-10
-6.71429e-10
-1.16478e-09
4.56038e-10
-6.91197e-10
1.54068e-09
2.20121e-09
4.11808e-10
-3.4625e-09
-2.05309e-10
-8.43641e-10
4.9733e-10
-3.80897e-12
5.55428e-10
-1.0646e-10
9.37757e-12
-2.43226e-11
9.24009e-11
2.90044e-11
1.41558e-09
-1.55268e-11
-3.33236e-11
-2.50946e-10
-2.53875e-10
-4.19764e-10
-4.42511e-10
-1.96865e-11
-2.62797e-11
-3.15385e-11
1.39095e-09
-3.43558e-12
-8.29557e-13
1.38561e-09
-1.60056e-11
-1.26897e-13
1.38072e-09
-7.5409e-12
4.12981e-14
1.37797e-09
-5.16193e-12
-6.93872e-15
1.37619e-09
-3.20917e-12
5.41885e-15
1.37504e-09
-2.07797e-12
9.79073e-15
1.37433e-09
-1.33093e-12
2.04552e-14
1.374e-09
-9.58583e-13
1.05522e-13
1.3738e-09
-7.32328e-13
-4.13785e-14
1.37371e-09
2.29792e-13
7.8522e-13
1.37281e-09
5.89816e-13
-1.54313e-12
1.37307e-09
-4.71594e-13
5.36547e-14
1.37315e-09
-6.35403e-13
7.05236e-13
1.37348e-09
-3.25851e-13
9.9326e-14
1.3732e-09
-5.23811e-13
1.46518e-12
1.37271e-09
-3.40386e-13
2.49196e-13
1.37247e-09
-7.36608e-13
1.09243e-12
1.37274e-09
-3.88751e-13
8.25239e-14
1.37281e-09
-2.51052e-15
-1.05342e-14
1.37259e-09
-1.07845e-13
4.83976e-13
1.37324e-09
6.69168e-13
-2.22146e-12
1.37379e-09
1.02436e-12
-1.72176e-12
1.37366e-09
4.83553e-13
7.14742e-15
1.37469e-09
6.58735e-13
-1.06251e-12
1.37328e-09
-9.70238e-14
-2.24699e-12
1.37284e-09
-6.58548e-14
-4.00314e-12
1.37336e-09
6.09713e-13
-2.30604e-13
1.37348e-09
-1.70464e-13
3.96731e-14
1.3736e-09
1.09319e-13
-1.0627e-13
1.37348e-09
-1.49472e-13
3.28256e-13
1.37313e-09
-4.17554e-13
-4.56293e-13
1.37294e-09
-4.29343e-13
7.8901e-13
1.37306e-09
2.83405e-13
1.7689e-13
1.37315e-09
3.78186e-13
-5.59961e-13
1.37333e-09
4.80177e-13
1.1554e-13
1.37459e-09
-3.71852e-13
-5.05573e-13
1.37415e-09
1.72388e-13
2.48717e-13
1.37414e-09
1.73624e-13
1.40163e-14
1.37333e-09
-6.55663e-14
-9.19431e-13
1.37315e-09
6.01144e-13
-8.93769e-14
1.37343e-09
3.66682e-13
4.95434e-13
-1.08755e-12
4.28314e-13
1.92343e-09
7.45548e-10
-4.044e-10
-7.12504e-08
-5.58008e-11
1.70442e-07
-1.01215e-07
-2.80205e-10
-5.9681e-10
-3.54e-09
6.58688e-09
3.83221e-08
-1.04833e-07
8.52003e-08
-2.08546e-08
1.48751e-08
9.25834e-09
-1.65418e-08
-1.2473e-09
-6.34434e-09
-5.78171e-10
2.83877e-10
2.35054e-09
-1.27282e-09
-7.83426e-10
-1.53388e-09
3.23223e-09
3.57743e-09
3.49734e-09
-4.19027e-09
-1.82479e-09
-7.7391e-10
-1.98474e-09
-1.97011e-11
1.50089e-09
-4.21447e-10
-2.17591e-10
-8.42149e-10
-9.88985e-11
1.51085e-11
1.4203e-11
-1.05898e-10
1.75485e-10
-3.78523e-11
2.13241e-10
-7.79187e-12
-9.33087e-12
-3.64106e-11
-6.97226e-11
-6.76654e-11
1.4061e-09
3.22333e-12
-2.46246e-11
-2.5717e-10
-2.64148e-10
-4.2585e-10
-4.41009e-10
1.3938e-09
-1.42936e-12
-2.37864e-12
1.38613e-09
-4.51196e-13
4.83187e-13
1.38135e-09
-4.18094e-13
-5.27924e-14
1.37819e-09
-1.87021e-13
5.97965e-14
1.37625e-09
-1.91559e-13
5.9588e-15
1.37506e-09
-1.89722e-13
3.64647e-15
1.37423e-09
-1.45503e-13
-1.46363e-14
1.37354e-09
-6.31494e-14
-4.8109e-16
1.37325e-09
2.17565e-13
2.77809e-13
1.37381e-09
-2.35073e-14
4.02295e-14
1.37346e-09
-1.23474e-13
-5.93451e-15
1.37346e-09
-1.77226e-13
-4.56327e-13
1.37327e-09
-1.2569e-13
-1.69498e-14
1.37297e-09
1.30285e-12
-1.51389e-12
1.37292e-09
-7.83731e-14
-2.07921e-13
1.37326e-09
5.36033e-14
-1.11259e-12
1.37303e-09
4.10034e-13
-5.50467e-13
1.37314e-09
-3.95742e-14
-5.20936e-14
1.37341e-09
6.73481e-13
-1.03753e-12
1.37399e-09
1.12538e-12
-1.01772e-12
1.373e-09
4.88082e-13
1.54743e-12
1.37317e-09
4.72738e-13
-1.29425e-13
1.37308e-09
3.78144e-13
3.83378e-13
1.37319e-09
-2.21716e-13
3.88301e-14
1.37327e-09
-4.38515e-14
-8.08228e-14
1.37358e-09
3.8523e-13
-6.80839e-14
1.37347e-09
-3.57269e-14
-4.50319e-16
1.37355e-09
-5.98941e-14
1.06037e-13
1.37357e-09
-2.45547e-13
9.13279e-14
1.37313e-09
-3.19255e-13
3.61265e-13
1.37341e-09
-2.91505e-13
-4.05796e-13
1.37352e-09
8.4752e-14
9.60592e-14
1.37359e-09
1.91153e-13
1.26725e-13
1.37377e-09
5.79434e-13
-2.63055e-13
1.3735e-09
-1.02618e-12
9.29387e-13
1.37394e-09
3.37443e-13
-5.99326e-13
1.37408e-09
7.36316e-14
-4.18364e-14
1.37394e-09
1.58391e-12
-1.50691e-12
1.37277e-09
1.81963e-12
-4.4354e-14
1.37319e-09
-2.87623e-14
-1.98402e-14
-1.78841e-12
7.16155e-13
4.23694e-09
7.93079e-09
-5.39276e-10
5.17752e-08
-2.58135e-08
1.2374e-08
-4.97757e-08
-1.79078e-09
-1.14636e-09
-4.60687e-09
2.7876e-09
4.75642e-09
-1.80173e-09
-7.1983e-09
2.76335e-09
1.94879e-09
4.28789e-09
-1.98753e-09
-5.80376e-09
8.23617e-10
-6.97497e-11
-8.20993e-09
1.60631e-09
3.64667e-08
-2.28246e-08
3.24885e-09
7.11407e-09
2.9828e-09
7.78117e-10
1.43059e-07
-6.78905e-08
9.36527e-08
-1.82944e-07
-1.93985e-10
1.92675e-09
-1.28293e-10
-1.02368e-10
-1.50211e-09
-4.46238e-11
-5.70711e-11
5.35118e-11
-6.47153e-11
1.12898e-10
-3.57408e-11
2.09e-10
1.31535e-13
-4.02773e-12
-3.45901e-11
-6.69228e-11
-6.50784e-11
-2.77214e-12
1.40327e-09
1.27568e-11
-2.45046e-11
-2.60195e-10
-2.60934e-10
-4.32082e-10
-4.35124e-10
1.39358e-09
9.86585e-12
-1.67488e-12
1.38617e-09
6.49828e-12
3.8542e-13
1.38152e-09
4.13291e-12
2.64362e-14
1.37842e-09
2.75562e-12
9.72521e-14
1.37655e-09
1.6691e-12
-4.115e-14
1.37519e-09
9.05481e-13
2.21616e-13
1.37432e-09
6.08067e-13
8.97864e-14
1.37373e-09
5.29133e-13
-2.65901e-14
1.37365e-09
2.22838e-13
5.26459e-14
1.37336e-09
-2.51883e-14
2.7643e-13
1.37305e-09
8.15932e-14
9.56608e-14
1.37304e-09
-1.11428e-13
-5.39132e-14
1.37314e-09
3.10627e-13
-5.43982e-13
1.37336e-09
2.82813e-13
8.13582e-13
1.3733e-09
-6.08954e-14
4.99971e-14
1.37332e-09
3.43979e-13
-2.94032e-13
1.3735e-09
-3.35885e-13
5.79272e-13
1.3735e-09
3.60118e-15
-2.14286e-14
1.37362e-09
-1.03458e-13
6.69644e-13
1.3729e-09
3.19109e-13
1.55454e-12
1.37295e-09
3.46097e-13
1.09036e-13
1.37363e-09
-1.34148e-13
-5.06561e-14
1.37296e-09
1.7142e-12
-6.44228e-13
1.37319e-09
-6.34907e-14
-3.66072e-13
1.37327e-09
-7.98472e-14
-2.90183e-14
1.37325e-09
8.48962e-14
3.43417e-13
1.37329e-09
3.65703e-15
-5.49985e-14
1.37307e-09
6.66553e-13
-4.97086e-13
1.37316e-09
-1.05065e-13
-2.13016e-13
1.37339e-09
-2.00935e-13
-3.32957e-13
1.37365e-09
-1.40464e-13
-3.98478e-13
1.37357e-09
2.7765e-13
-9.37741e-14
1.37383e-09
5.60779e-13
-6.26556e-13
1.37402e-09
3.04477e-13
9.78816e-14
1.37355e-09
-3.73086e-13
-1.75875e-13
1.37376e-09
-2.55165e-13
3.83139e-13
1.37418e-09
-3.33239e-13
-7.22966e-15
1.3744e-09
-1.3145e-12
2.6872e-12
1.37272e-09
3.90426e-12
-4.02644e-13
1.37303e-09
-8.03548e-13
4.58954e-13
-1.65589e-13
-8.79011e-13
9.08336e-11
-2.12909e-09
-1.10154e-09
3.33078e-09
1.92502e-09
5.05798e-09
-2.38534e-09
-4.01852e-09
-5.79136e-10
-4.74573e-10
-3.83563e-10
1.9057e-10
1.30239e-09
-6.34824e-10
-1.93383e-09
-1.65868e-09
2.9299e-09
-1.29203e-10
7.91814e-10
-1.37648e-09
-2.87816e-09
-6.05409e-10
1.53473e-09
3.32532e-09
-3.68434e-10
2.80171e-10
6.92358e-10
-2.0614e-10
-3.97957e-10
-9.82857e-11
-2.72126e-12
1.23338e-11
1.11665e-11
7.75066e-11
-3.64567e-11
2.12471e-10
4.5077e-12
-6.18725e-12
-1.1263e-12
-3.56607e-11
-6.94683e-11
-6.80794e-11
1.39696e-09
2.85418e-11
-2.76543e-11
-2.60621e-10
-2.5886e-10
-4.33741e-10
-4.31887e-10
1.38833e-09
2.13487e-11
-2.89417e-12
1.38224e-09
1.20719e-11
4.7988e-13
1.37881e-09
7.69857e-12
-1.91171e-13
1.37678e-09
4.82876e-12
-9.82611e-14
1.37527e-09
3.02089e-12
1.13674e-13
1.3745e-09
1.84221e-12
-2.07174e-13
1.37395e-09
1.19713e-12
-7.09632e-14
1.37362e-09
7.66354e-13
6.62791e-14
1.3733e-09
6.05009e-13
-7.36986e-14
1.37304e-09
3.92971e-13
-1.77287e-13
1.37301e-09
1.81479e-13
-7.84371e-14
1.37388e-09
1.19516e-12
-2.18473e-12
1.37322e-09
4.38264e-13
5.41452e-13
1.37324e-09
2.57591e-13
5.58099e-15
1.373e-09
2.03103e-13
-1.03365e-14
1.3728e-09
-8.2821e-14
6.35971e-13
1.37376e-09
9.55771e-13
-2.23324e-12
1.37384e-09
-8.79217e-15
-4.76593e-14
1.37363e-09
2.03956e-13
-7.72148e-14
1.37345e-09
7.96339e-13
-2.77694e-13
1.37224e-09
4.06964e-12
-2.49046e-12
1.3726e-09
-4.42649e-13
-3.53066e-14
1.37362e-09
-8.25768e-13
1.54578e-12
1.37338e-09
1.68329e-13
3.2541e-14
1.37308e-09
2.11017e-13
2.3691e-14
1.3731e-09
8.49464e-13
-7.57876e-13
1.37317e-09
5.94368e-14
-1.06864e-13
1.37354e-09
-2.17207e-13
5.27838e-13
1.37342e-09
-9.33652e-15
3.94545e-14
1.37342e-09
-7.20722e-13
5.34214e-13
1.37396e-09
-8.57678e-13
1.95394e-13
1.37378e-09
2.98923e-13
1.65564e-13
1.37363e-09
5.39786e-13
1.80489e-13
1.37369e-09
3.28302e-13
-7.30629e-14
1.37311e-09
3.35416e-13
-1.19678e-13
1.37303e-09
-1.37859e-13
-3.6846e-14
1.37287e-09
-1.20362e-13
-4.24454e-14
1.37267e-09
1.50713e-12
-2.62582e-12
1.37491e-09
1.22204e-12
4.47506e-13
1.37448e-09
-6.21424e-13
2.51409e-13
-8.20858e-13
1.84815e-12
-3.15731e-10
1.18319e-09
1.05332e-08
-4.43575e-09
-3.37172e-09
-3.04189e-09
5.1172e-10
3.57262e-10
4.71161e-10
-5.02581e-10
2.00495e-09
-3.06374e-09
1.18153e-09
-1.91416e-10
2.33207e-10
1.61235e-10
-6.41515e-10
-3.79966e-10
-9.86833e-10
-3.88733e-10
1.96734e-09
-2.11805e-10
-4.50735e-10
1.22228e-09
2.56897e-09
-2.05899e-09
1.07069e-09
-2.19134e-09
-1.63436e-09
-1.40004e-09
9.61089e-10
1.04985e-09
8.62561e-10
-1.29391e-11
-9.31088e-09
-1.39026e-09
1.14208e-08
-7.06713e-10
1.19061e-09
1.46344e-09
-5.62694e-12
4.17485e-11
-2.69017e-09
-1.40473e-10
4.21861e-11
-1.22998e-11
-2.79458e-11
1.38532e-10
-3.52672e-11
-7.68105e-12
1.93923e-10
1.49988e-11
6.59921e-12
-3.69657e-11
-6.59839e-11
-6.96229e-11
1.37205e-09
1.36781e-11
-2.52751e-11
-2.5514e-10
-2.44782e-10
-4.26007e-10
-4.0599e-10
1.37367e-09
2.1713e-11
-1.99487e-12
1.37379e-09
1.15129e-11
4.21034e-13
1.37368e-09
7.81665e-12
-4.60763e-14
1.37359e-09
4.86906e-12
9.75905e-15
1.37345e-09
3.11722e-12
3.37879e-15
1.37327e-09
1.96203e-12
2.68837e-14
1.37308e-09
1.33644e-12
1.13683e-14
1.37295e-09
8.52933e-13
1.99225e-14
1.37299e-09
3.70284e-13
1.70154e-13
1.37361e-09
-3.79096e-13
1.42703e-13
1.37378e-09
1.37867e-13
-1.39478e-13
1.37267e-09
5.61127e-14
2.25224e-12
1.37292e-09
2.03556e-13
-2.27196e-14
1.37316e-09
-5.79161e-13
6.1176e-13
1.37327e-09
5.58643e-14
4.42016e-14
1.37346e-09
1.98449e-13
-4.62211e-13
1.37273e-09
-4.50317e-13
2.15426e-12
1.37308e-09
-3.54167e-13
1.50305e-14
1.37361e-09
-3.71081e-13
6.70311e-14
1.3719e-09
5.67331e-12
-3.14548e-12
1.37325e-09
7.33269e-13
2.00312e-12
1.37365e-09
-8.61313e-13
4.51121e-14
1.3733e-09
-1.14775e-13
-3.40207e-13
1.37333e-09
9.06668e-14
7.21266e-14
1.3733e-09
1.48557e-13
1.13008e-13
1.37348e-09
6.74063e-14
6.15306e-13
1.37344e-09
2.81879e-14
9.5638e-14
1.37346e-09
-1.54012e-13
-7.33475e-14
1.37366e-09
-1.13446e-13
-7.18862e-14
1.37349e-09
-5.60954e-14
-4.84408e-13
1.37384e-09
-1.54444e-12
3.53059e-13
1.37428e-09
-1.32116e-14
-1.16066e-13
1.37318e-09
1.95266e-12
-2.98567e-13
1.37326e-09
9.94287e-14
1.49131e-13
1.373e-09
4.4904e-13
1.60912e-13
1.37303e-09
-3.40531e-13
1.68203e-13
1.3729e-09
5.74182e-15
1.35489e-14
1.37333e-09
-7.04362e-13
1.78141e-12
1.37381e-09
6.84624e-13
5.88593e-14
1.37411e-09
-1.60579e-13
-7.57013e-13
-2.17107e-13
-1.26421e-12
1.04906e-09
3.16268e-10
5.46412e-10
1.23728e-09
-5.99229e-10
2.22533e-11
-2.41657e-09
1.21632e-09
1.43414e-09
8.1514e-10
6.99037e-10
1.85598e-10
4.26775e-09
-4.53702e-10
-1.74391e-09
-1.48689e-09
1.8182e-10
-1.64969e-09
1.38493e-09
-5.15054e-11
-4.62344e-09
7.84397e-10
2.50561e-09
1.85961e-09
2.28193e-09
-9.79415e-09
-2.32274e-10
1.26595e-10
2.46633e-09
2.34518e-09
9.46775e-10
-6.96325e-10
3.27315e-09
-1.3931e-09
4.85678e-10
-1.6694e-09
-6.03044e-11
-1.78717e-11
1.47784e-11
-2.44801e-11
8.78779e-11
1.36348e-09
5.45084e-11
-3.43736e-11
-2.2839e-10
-2.46286e-10
-3.88686e-10
-4.25007e-10
-1.61737e-11
-1.83279e-11
-2.93602e-11
-3.13843e-11
1.35727e-09
2.03878e-11
-5.3872e-13
1.36382e-09
1.53172e-11
-1.50751e-13
1.36674e-09
8.58146e-12
1.64151e-16
1.36906e-09
5.48086e-12
-3.7029e-15
1.37049e-09
3.3983e-12
9.30416e-15
1.37146e-09
2.10353e-12
5.35271e-15
1.37203e-09
1.3439e-12
1.32273e-14
1.37229e-09
1.01846e-12
2.43151e-14
1.37264e-09
-1.35714e-12
1.83792e-12
1.37285e-09
-1.10918e-13
2.39914e-13
1.37296e-09
-2.01976e-12
1.52082e-12
1.37316e-09
-1.63583e-13
9.59513e-14
1.37312e-09
6.47173e-14
2.87938e-14
1.37314e-09
1.73177e-13
3.85852e-15
1.3729e-09
9.45044e-13
-1.27766e-12
1.37311e-09
-1.55901e-13
1.96048e-14
1.37282e-09
-7.47689e-13
1.24129e-12
1.37285e-09
-3.02864e-13
-1.60997e-13
1.37249e-09
1.03623e-13
-7.63809e-14
1.37194e-09
1.74532e-13
2.67952e-14
1.37365e-09
7.33547e-13
3.24735e-12
1.3737e-09
7.78869e-13
-6.92813e-14
1.37406e-09
-3.3184e-12
2.11512e-12
1.37384e-09
1.05207e-13
2.25343e-14
1.37303e-09
1.15842e-12
-2.31833e-13
1.37318e-09
1.2318e-13
-1.04498e-13
1.37331e-09
6.71014e-14
-1.08765e-13
1.37329e-09
-2.70742e-13
3.33697e-13
1.37364e-09
-5.57384e-13
6.67429e-14
1.37373e-09
-2.31132e-13
4.46419e-14
1.37393e-09
-1.53261e-13
-8.03223e-14
1.37331e-09
-2.89295e-13
-6.25701e-13
1.37288e-09
1.59064e-13
2.73517e-13
1.37372e-09
8.19509e-13
3.0404e-13
1.37333e-09
3.3274e-13
1.5841e-13
1.37366e-09
3.46837e-13
-2.23246e-13
1.37339e-09
1.39083e-13
-1.98183e-13
1.37289e-09
5.02292e-13
9.97848e-15
1.37336e-09
-1.02019e-12
-1.59375e-13
1.37315e-09
6.45752e-13
2.50787e-13
1.37462e-09
-3.50572e-12
1.88123e-12
-3.10533e-13
-5.1462e-13
4.16569e-09
-1.06744e-09
-1.39315e-09
-5.62948e-10
-1.91301e-09
-2.27479e-09
1.05821e-09
5.50548e-10
1.63319e-09
1.4529e-09
1.60418e-09
1.25238e-09
1.36494e-09
2.73521e-09
3.81654e-10
9.25379e-10
-4.60522e-09
-2.28339e-09
-1.73138e-09
5.56526e-09
-2.6554e-10
-6.51495e-10
-7.28587e-10
-2.25705e-10
-7.35169e-10
5.0355e-10
3.38534e-10
2.13926e-10
1.83331e-10
6.00281e-11
1.94477e-10
-8.92226e-11
-3.48609e-10
-4.11817e-10
-2.00001e-09
1.16901e-10
-2.72521e-10
2.56745e-09
-7.74933e-11
-7.48899e-12
1.80403e-13
6.39688e-11
2.08331e-11
1.31772e-09
2.92499e-12
-3.45873e-11
-2.28934e-10
-2.24026e-10
-3.95661e-10
-3.82956e-10
1.3381e-09
-3.79389e-13
3.6543e-13
1.35234e-09
1.09276e-12
-1.98784e-14
1.36031e-09
5.57469e-13
4.67147e-14
1.36525e-09
4.9855e-13
2.99235e-14
1.36824e-09
3.43617e-13
3.8159e-14
1.37011e-09
1.6525e-13
2.63899e-14
1.37134e-09
5.95359e-14
1.57625e-14
1.37195e-09
5.86191e-13
-2.09414e-13
1.37252e-09
-5.33269e-14
-1.90542e-12
1.3726e-09
3.07571e-13
-5.20666e-13
1.3726e-09
-4.95247e-13
-1.53549e-12
1.37266e-09
-7.5228e-13
5.20158e-13
1.37289e-09
-1.49076e-13
-1.95845e-14
1.37256e-09
1.16624e-12
-6.59773e-13
1.37295e-09
-5.62777e-14
6.1372e-13
1.37274e-09
1.06696e-13
-4.40776e-14
1.37317e-09
3.58001e-14
-1.19634e-12
1.37327e-09
-4.51219e-13
6.52469e-14
1.37303e-09
-3.10362e-13
6.70859e-13
1.37337e-09
-7.62311e-14
-6.69339e-14
1.37368e-09
3.31835e-13
1.07747e-13
1.37366e-09
1.32279e-13
6.93075e-13
1.37275e-09
-3.23025e-13
-2.06846e-12
1.37291e-09
1.64204e-13
-1.93878e-13
1.37377e-09
1.03925e-12
-7.1735e-13
1.373e-09
7.95098e-14
8.34415e-13
1.37289e-09
2.04074e-13
-1.07526e-14
1.37256e-09
6.58791e-13
-5.7716e-13
1.37436e-09
-3.07942e-12
7.41987e-13
1.37403e-09
4.46311e-14
6.35274e-14
1.37359e-09
1.0069e-12
-7.01652e-13
1.37366e-09
-2.70364e-13
-7.37856e-14
1.3741e-09
-3.1054e-13
4.10788e-14
1.37354e-09
2.83752e-12
-1.44773e-12
1.37305e-09
1.13962e-12
-3.14669e-13
1.37303e-09
3.24357e-13
5.59385e-14
1.37386e-09
-1.2087e-12
5.21527e-13
1.37413e-09
-1.06153e-13
3.43488e-13
1.37299e-09
5.93251e-13
-4.69978e-13
1.37338e-09
3.75269e-13
-1.16414e-13
1.37299e-09
8.65024e-13
-3.98139e-12
-2.14513e-12
3.40089e-14
6.02236e-09
1.47249e-11
4.44915e-10
3.77468e-10
2.52197e-09
-2.51862e-09
2.30473e-09
-6.463e-09
-1.53399e-09
1.02791e-08
-1.83722e-09
6.68894e-10
6.01883e-10
6.9073e-11
2.87352e-10
-1.6272e-09
-1.7036e-11
-1.74268e-10
2.41226e-09
-7.22395e-10
-1.49856e-09
-2.36922e-10
-2.01522e-09
8.75588e-10
4.63331e-10
9.13224e-10
-3.18385e-11
1.03242e-12
1.68036e-10
-2.9628e-11
1.95213e-11
-2.31217e-11
-6.11433e-11
-4.10883e-11
4.21832e-14
1.63112e-13
-1.97505e-12
1.30721e-09
-3.03572e-11
-2.22109e-10
-2.32344e-10
-3.71257e-10
-3.98141e-10
1.33428e-09
2.70478e-14
1.35008e-09
1.44639e-13
1.35936e-09
-3.42353e-14
1.36457e-09
3.98251e-13
1.36783e-09
1.72602e-13
1.36989e-09
-3.36442e-13
1.37113e-09
-1.90183e-13
1.37202e-09
2.81325e-13
1.37237e-09
-8.9216e-15
1.37269e-09
3.1579e-14
1.37279e-09
-5.52652e-13
1.37285e-09
-5.58784e-13
1.37237e-09
8.53503e-13
1.37278e-09
8.16437e-13
1.37278e-09
-1.31427e-13
1.37288e-09
4.12587e-14
1.37298e-09
5.0116e-13
1.37329e-09
9.00808e-13
1.3732e-09
-9.15567e-13
1.37314e-09
-2.33613e-14
1.3737e-09
1.14927e-12
1.37366e-09
5.2072e-13
1.37339e-09
-1.98987e-12
1.37249e-09
-1.26665e-12
1.37296e-09
1.02288e-12
1.37363e-09
-5.80242e-13
1.37384e-09
8.33417e-14
1.37426e-09
2.3138e-13
1.37247e-09
-7.49256e-13
1.37292e-09
-2.9569e-14
1.37372e-09
7.27399e-13
1.37349e-09
1.37255e-13
1.37339e-09
-2.22884e-13
1.37459e-09
1.64008e-12
1.37348e-09
-2.57048e-13
1.37367e-09
-5.42113e-13
1.37324e-09
-5.51925e-13
1.37353e-09
-2.93306e-13
1.37392e-09
2.49206e-13
1.37444e-09
-2.30397e-13
1.37329e-09
2.17339e-12
2.2864e-14
-2.94613e-09
-7.13467e-09
-2.44742e-09
2.55923e-08
-2.86425e-09
1.99468e-08
-3.33035e-09
-5.16901e-09
-2.52828e-09
-2.42386e-09
-2.92129e-09
-1.94676e-09
-2.27092e-09
1.68589e-09
-1.85489e-09
-1.05931e-09
-4.21295e-09
-2.41425e-09
2.09398e-09
2.01117e-09
-1.92871e-09
3.59267e-09
-9.16181e-09
7.2774e-09
2.01688e-09
5.94335e-09
-9.37994e-09
-3.31619e-09
7.85701e-09
-4.31044e-10
5.68015e-10
-8.07376e-10
3.4939e-10
-5.02385e-09
-2.1519e-10
-2.11582e-10
-5.37076e-10
4.71703e-09
-2.19873e-10
-1.84643e-10
6.51611e-10
-3.07723e-12
2.77114e-10
-2.04378e-10
-1.98144e-10
-1.99753e-10
2.28429e-09
-4.48976e-11
3.97106e-11
-6.07616e-10
-5.92716e-10
-6.07417e-10
-5.92762e-10
2.2708e-09
-3.60592e-11
1.09386e-12
2.27268e-09
-2.83631e-11
2.83249e-13
2.27595e-09
-1.91787e-11
8.83079e-15
2.28017e-09
-1.2763e-11
4.14396e-13
2.28336e-09
-8.24723e-12
1.49161e-13
2.28484e-09
-5.45875e-12
-2.87442e-13
2.286e-09
-3.44479e-12
-2.26976e-13
2.28688e-09
-2.45158e-12
-8.79596e-13
2.28754e-09
-1.47603e-12
-2.45497e-14
2.28763e-09
-8.16537e-13
-3.38423e-14
2.28733e-09
-7.94328e-13
-4.15416e-13
2.28755e-09
-3.90054e-13
-3.90386e-13
2.28825e-09
-1.44542e-13
7.97033e-13
2.28818e-09
6.90097e-14
-7.55605e-14
2.28817e-09
4.0269e-13
-4.61729e-14
2.28856e-09
-2.06224e-13
-6.17348e-14
2.28859e-09
4.81998e-13
-2.28701e-13
2.28846e-09
-1.84412e-12
-2.98211e-13
2.28875e-09
5.4399e-13
4.69366e-13
2.28888e-09
1.20244e-14
2.31339e-14
2.2883e-09
-4.6461e-13
3.76167e-13
2.28864e-09
2.03693e-13
-1.27955e-13
2.28758e-09
5.33245e-12
-1.38089e-12
2.2879e-09
4.35194e-12
-2.93231e-12
2.28842e-09
-8.25248e-13
-3.56688e-13
2.28972e-09
3.54548e-13
4.84827e-13
2.28927e-09
3.52457e-13
1.06041e-13
2.28882e-09
2.57853e-13
1.59547e-13
2.2878e-09
5.61686e-13
-6.15339e-14
2.28762e-09
-1.86703e-12
9.50964e-13
2.29016e-09
-7.89877e-13
-1.614e-12
2.2894e-09
8.25959e-13
-1.33729e-13
2.28911e-09
2.92777e-13
5.16093e-14
2.28956e-09
-8.22228e-14
-7.06773e-14
2.29052e-09
1.5534e-12
1.66758e-13
2.28821e-09
4.03045e-12
-3.2032e-12
2.28884e-09
-8.92472e-13
-2.88244e-14
2.28884e-09
-6.62353e-13
3.14132e-13
2.28928e-09
-7.35233e-14
-2.4068e-13
2.28916e-09
2.23378e-14
1.96718e-13
2.28825e-09
6.72625e-13
7.7457e-13
-6.06454e-13
-4.43797e-13
3.07291e-09
-5.86278e-09
-4.37118e-10
-3.30009e-09
3.38677e-09
7.27992e-09
-5.67567e-09
-7.72427e-09
3.58668e-10
1.37075e-09
8.1345e-10
1.14235e-09
-9.51953e-10
1.46109e-09
4.04235e-09
3.39517e-09
-3.97248e-09
-2.76159e-09
-2.16452e-09
-4.51077e-10
4.14091e-08
-4.70846e-10
-1.6558e-09
-3.90775e-08
2.4848e-10
-1.2159e-09
-2.26824e-09
-6.33068e-09
3.48733e-09
-2.98755e-09
1.59571e-09
3.64741e-09
1.67427e-09
2.39765e-09
-1.62716e-09
7.16834e-11
3.22772e-09
-7.114e-10
1.71462e-09
-2.67546e-09
-5.15376e-11
1.14036e-10
-5.11636e-11
5.40438e-10
-4.02609e-10
-1.1446e-10
-7.98931e-11
8.01565e-12
1.50693e-11
1.51049e-11
3.4257e-12
3.57461e-12
2.25533e-09
-1.37091e-10
2.81593e-11
-5.69566e-10
-5.40745e-10
-5.69876e-10
-5.40746e-10
2.27158e-09
-5.18219e-11
-3.54812e-13
2.28231e-09
-3.87244e-11
-2.72071e-13
2.28566e-09
-2.2508e-11
-9.93329e-14
2.28716e-09
-1.43284e-11
-5.69234e-14
2.28776e-09
-8.97264e-12
-8.3989e-15
2.28804e-09
-5.79354e-12
-2.67471e-14
2.28816e-09
-3.65442e-12
4.73649e-14
2.28842e-09
-2.37933e-12
7.98087e-13
2.28849e-09
-1.49878e-12
-2.90886e-14
2.28817e-09
-2.76424e-12
1.20497e-12
2.2881e-09
1.94e-12
-1.1976e-12
2.28804e-09
-3.27608e-13
-1.30012e-14
2.28817e-09
2.35104e-13
-7.32847e-13
2.28803e-09
-2.78521e-14
1.01535e-13
2.28833e-09
-1.73973e-12
7.48615e-13
2.28924e-09
-2.90982e-12
1.49182e-12
2.28893e-09
1.699e-13
8.71812e-13
2.28796e-09
-7.01283e-14
-1.24681e-12
2.28825e-09
6.36624e-14
-7.00701e-14
2.2884e-09
-3.96302e-13
1.2846e-13
2.28711e-09
4.8212e-12
-2.41106e-12
2.28746e-09
-1.91809e-13
-3.81908e-13
2.28846e-09
6.54918e-13
2.00262e-12
2.28874e-09
9.21164e-13
1.60629e-12
2.29e-09
-2.7824e-12
3.11784e-12
2.28991e-09
1.62383e-12
9.60374e-13
2.28892e-09
1.2576e-12
9.54502e-14
2.28939e-09
1.08347e-14
-1.22371e-13
2.28961e-09
2.14892e-13
5.93985e-14
2.28968e-09
-6.53487e-13
-7.92724e-13
2.2877e-09
-8.67207e-13
1.68646e-12
2.28808e-09
3.29396e-13
1.00951e-13
2.28786e-09
2.00759e-13
4.10399e-14
2.28704e-09
1.1512e-12
2.95357e-13
2.2884e-09
1.19569e-12
-2.08028e-13
2.29038e-09
3.64135e-13
3.54449e-12
2.28953e-09
4.28658e-14
-3.37904e-14
2.28904e-09
2.68402e-13
-1.9933e-13
2.28966e-09
1.07572e-12
-9.56876e-13
2.28925e-09
5.84774e-13
-1.99751e-13
2.28889e-09
1.36123e-12
-1.56064e-12
-3.20752e-13
2.42906e-13
-2.03506e-08
1.70024e-08
4.42754e-09
-1.70469e-09
-9.47929e-10
-1.01174e-09
-1.30391e-09
2.27718e-10
3.28308e-09
6.64372e-10
3.21318e-10
1.18974e-09
3.21991e-09
3.93483e-08
2.31695e-10
-4.44414e-08
4.51847e-10
-9.146e-09
2.69792e-10
-2.79358e-09
6.91559e-09
1.80588e-09
2.94794e-09
1.53696e-09
-1.90712e-09
3.55926e-08
-3.72409e-08
-2.78594e-10
2.29702e-09
7.16395e-09
-3.06868e-10
-3.47019e-09
5.17776e-10
2.8622e-10
-4.19089e-09
4.69304e-09
1.02167e-09
2.45993e-09
-6.03895e-10
-5.06329e-11
-7.52011e-09
-5.6923e-11
-1.00612e-10
2.95305e-11
-5.60974e-11
5.94611e-11
1.24641e-10
2.36422e-09
-3.81968e-11
3.34928e-11
-5.85727e-10
-6.15703e-10
-5.85721e-10
-6.15821e-10
-4.45049e-11
-3.81926e-11
-4.45097e-11
2.32121e-09
-1.07096e-11
8.55043e-13
2.31071e-09
-2.87656e-11
1.76918e-13
2.30211e-09
-1.4054e-11
-2.53246e-14
2.2971e-09
-9.51868e-12
2.98133e-15
2.29394e-09
-5.94122e-12
-1.35682e-14
2.29186e-09
-3.80538e-12
-1.48294e-14
2.29057e-09
-2.40288e-12
-2.13336e-14
2.28993e-09
-1.65145e-12
-3.89783e-14
2.28955e-09
-1.27582e-12
6.47122e-14
2.28947e-09
6.58393e-14
-2.00508e-12
2.28808e-09
5.54201e-13
1.20232e-12
2.2886e-09
-7.91288e-13
-8.22508e-15
2.28847e-09
2.90488e-14
1.03296e-12
2.28913e-09
-6.11151e-13
3.73075e-14
2.28864e-09
1.60974e-12
-1.37896e-12
2.28787e-09
-5.03298e-13
-1.35689e-12
2.28735e-09
2.86232e-12
-1.05115e-12
2.28779e-09
-5.1497e-13
1.3077e-13
2.28773e-09
2.11372e-13
-5.62331e-14
2.28737e-09
9.63953e-13
-4.73654e-13
2.28866e-09
-8.43544e-13
2.20151e-12
2.28947e-09
-4.44027e-12
1.76774e-12
2.28931e-09
1.01334e-12
-1.47658e-13
2.29108e-09
-2.71067e-12
8.51651e-13
2.28889e-09
9.15436e-14
-2.88451e-12
2.28793e-09
3.42493e-14
-1.41373e-12
2.28869e-09
3.85244e-13
-7.44879e-14
2.28899e-09
-1.86369e-13
-1.81573e-14
2.28903e-09
-1.16723e-14
1.13955e-13
2.28892e-09
-1.92967e-13
1.84081e-14
2.28832e-09
-6.56207e-13
-4.049e-14
2.28778e-09
2.46312e-12
-7.6759e-13
2.28788e-09
1.89427e-13
1.07642e-13
2.28821e-09
6.27006e-13
-3.47935e-13
2.28884e-09
9.52748e-13
-2.5531e-13
2.29048e-09
-2.0198e-12
2.52587e-13
2.28991e-09
1.13483e-12
-2.56261e-13
2.28988e-09
5.44271e-13
-2.30512e-13
2.28857e-09
5.06631e-13
9.65116e-13
2.28814e-09
9.14707e-13
1.88734e-14
2.2886e-09
5.57325e-13
8.41562e-13
-1.87438e-12
9.62239e-13
-1.86951e-09
4.08397e-08
-7.15845e-10
-1.60486e-09
-3.6503e-08
-1.27346e-09
-2.85366e-08
-1.67254e-09
4.42086e-09
8.68934e-10
2.61928e-08
6.81057e-10
3.5698e-08
-1.17875e-09
1.22078e-09
-3.61026e-08
-3.19696e-10
-2.08767e-10
-2.92661e-09
-4.23666e-09
6.15409e-10
4.28249e-09
2.47382e-09
2.74167e-08
-2.1648e-09
-3.92377e-09
-3.1805e-09
-2.10452e-09
-1.60503e-08
-1.06458e-09
-3.08451e-11
-1.32721e-10
-1.89179e-10
-5.70225e-10
1.98755e-09
-1.81105e-10
2.01962e-10
3.57517e-11
-3.33188e-11
-1.42495e-10
1.19205e-10
-1.61581e-10
6.33837e-10
-2.50431e-11
4.86145e-12
-1.10309e-12
-1.57641e-10
-1.67897e-10
-1.63638e-10
2.35582e-09
5.36122e-12
2.47697e-11
-5.95474e-10
-6.15235e-10
-5.95504e-10
-6.15273e-10
2.32479e-09
-2.64856e-12
2.33338e-12
2.31233e-09
-8.57186e-13
-4.47046e-13
2.30327e-09
-7.5715e-13
6.6106e-14
2.29767e-09
-3.84973e-13
-3.67422e-14
2.29413e-09
-3.52763e-13
-1.20758e-14
2.29196e-09
-3.035e-13
-3.91504e-15
2.29045e-09
-2.36258e-13
1.53976e-14
2.28926e-09
-1.53657e-13
2.20829e-14
2.28866e-09
2.70969e-13
6.32742e-13
2.28963e-09
-2.81044e-13
-1.26861e-13
2.28907e-09
-1.93328e-13
-4.81658e-14
2.28913e-09
-2.21451e-13
-2.75462e-13
2.28875e-09
-1.94781e-13
-4.47227e-14