/*--------------------------------*- C++ -*----------------------------------*\
| =========                 |                                                 |
| \\      /  F ield         | OpenFOAM: The Open Source CFD Toolbox           |
|  \\    /   O peration     | Version:  5.0                                   |
|   \\  /    A nd           | Web:      www.OpenFOAM.org                      |
|    \\/     M anipulation  |                                                 |
\*---------------------------------------------------------------------------*/
FoamFile
{
    version     2.0;
    format      ascii;
    class       volScalarField;
    location    "1.6";
    object      rAU;
}
// * * * * * * * * * * * * * * * * * * * * * * * * * * * * * * * * * * * * * //

dimensions      [-1 3 1 0 0 0 0];

internalField   nonuniform List<scalar> 
8577
(
9.66753e-07
9.64165e-07
8.85236e-07
8.76892e-07
8.10382e-07
6.82723e-07
1.29267e-07
3.9242e-07
3.93663e-07
3.94697e-07
3.95731e-07
3.96763e-07
3.97795e-07
3.98827e-07
3.99857e-07
4.00887e-07
4.01916e-07
4.02944e-07
4.03972e-07
4.04999e-07
4.06025e-07
4.0705e-07
4.08076e-07
4.09099e-07
4.10123e-07
4.11145e-07
4.12167e-07
4.13188e-07
4.14209e-07
4.15228e-07
4.16246e-07
4.17265e-07
4.18282e-07
4.19298e-07
4.20314e-07
4.21329e-07
4.22342e-07
4.23356e-07
4.24368e-07
4.2538e-07
4.26391e-07
4.27401e-07
4.28409e-07
4.29418e-07
4.30425e-07
4.31432e-07
4.32438e-07
4.33443e-07
4.34447e-07
4.36223e-07
8.93639e-07
8.69168e-07
6.31707e-07
8.23491e-07
6.68624e-07
3.82801e-07
1.29215e-07
3.92421e-07
3.93663e-07
3.94697e-07
3.95731e-07
3.96763e-07
3.97795e-07
3.98827e-07
3.99857e-07
4.00887e-07
4.01916e-07
4.02944e-07
4.03972e-07
4.04999e-07
4.06025e-07
4.0705e-07
4.08076e-07
4.09099e-07
4.10123e-07
4.11145e-07
4.12167e-07
4.13188e-07
4.14209e-07
4.15228e-07
4.16246e-07
4.17265e-07
4.18282e-07
4.19298e-07
4.20314e-07
4.21329e-07
4.22342e-07
4.23356e-07
4.24368e-07
4.2538e-07
4.26391e-07
4.27401e-07
4.28409e-07
4.29418e-07
4.30425e-07
4.31432e-07
4.32438e-07
4.33443e-07
4.34447e-07
4.36223e-07
8.89887e-07
7.92357e-07
5.01739e-07
7.69463e-07
6.74817e-07
5.66067e-07
3.69285e-08
3.92285e-07
3.93663e-07
3.94697e-07
3.95731e-07
3.96763e-07
3.97795e-07
3.98827e-07
3.99857e-07
4.00887e-07
4.01916e-07
4.02944e-07
4.03972e-07
4.04999e-07
4.06025e-07
4.0705e-07
4.08076e-07
4.09099e-07
4.10123e-07
4.11145e-07
4.12167e-07
4.13188e-07
4.14209e-07
4.15228e-07
4.16246e-07
4.17265e-07
4.18282e-07
4.19298e-07
4.20314e-07
4.21329e-07
4.22342e-07
4.23356e-07
4.24368e-07
4.2538e-07
4.26391e-07
4.27401e-07
4.28409e-07
4.29418e-07
4.30425e-07
4.31432e-07
4.32438e-07
4.33443e-07
4.34447e-07
4.36223e-07
7.2226e-07
6.80411e-07
8.6913e-07
8.86499e-07
7.6543e-07
5.32219e-07
2.10865e-07
1.29778e-07
3.93453e-07
3.94697e-07
3.95731e-07
3.96763e-07
3.97795e-07
3.98827e-07
3.99857e-07
4.00887e-07
4.01916e-07
4.02944e-07
4.03972e-07
4.04999e-07
4.06025e-07
4.0705e-07
4.08076e-07
4.09099e-07
4.10123e-07
4.11145e-07
4.12167e-07
4.13188e-07
4.14209e-07
4.15228e-07
4.16246e-07
4.17265e-07
4.18282e-07
4.19298e-07
4.20314e-07
4.21329e-07
4.22342e-07
4.23356e-07
4.24368e-07
4.2538e-07
4.26391e-07
4.27401e-07
4.28409e-07
4.29418e-07
4.30425e-07
4.31432e-07
4.32438e-07
4.33443e-07
4.34447e-07
4.36223e-07
8.21818e-07
8.6798e-07
6.9706e-07
7.32466e-07
6.59709e-07
6.92107e-07
6.9599e-07
1.2972e-07
3.93453e-07
3.94697e-07
3.95731e-07
3.96763e-07
3.97795e-07
3.98827e-07
3.99857e-07
4.00887e-07
4.01916e-07
4.02944e-07
4.03972e-07
4.04999e-07
4.06025e-07
4.0705e-07
4.08076e-07
4.09099e-07
4.10123e-07
4.11145e-07
4.12167e-07
4.13188e-07
4.14209e-07
4.15228e-07
4.16246e-07
4.17265e-07
4.18282e-07
4.19298e-07
4.20314e-07
4.21329e-07
4.22342e-07
4.23356e-07
4.24368e-07
4.2538e-07
4.26391e-07
4.27401e-07
4.28409e-07
4.29418e-07
4.30425e-07
4.31432e-07
4.32438e-07
4.33443e-07
4.34447e-07
4.36223e-07
8.9668e-07
8.82108e-07
6.26009e-07
5.13876e-07
8.81977e-07
5.32749e-07
6.97799e-07
1.2972e-07
3.93454e-07
3.94697e-07
3.95731e-07
3.96763e-07
3.97795e-07
3.98827e-07
3.99857e-07
4.00887e-07
4.01916e-07
4.02944e-07
4.03972e-07
4.04999e-07
4.06025e-07
4.0705e-07
4.08076e-07
4.09099e-07
4.10123e-07
4.11145e-07
4.12167e-07
4.13188e-07
4.14209e-07
4.15228e-07
4.16246e-07
4.17265e-07
4.18282e-07
4.19298e-07
4.20314e-07
4.21329e-07
4.22342e-07
4.23356e-07
4.24368e-07
4.2538e-07
4.26391e-07
4.27401e-07
4.28409e-07
4.29418e-07
4.30425e-07
4.31432e-07
4.32438e-07
4.33443e-07
4.34447e-07
4.36223e-07
9.61292e-07
7.27549e-07
1.44324e-07
8.51125e-07
6.42504e-07
6.69514e-07
6.93981e-07
1.29724e-07
3.93454e-07
3.94697e-07
3.95731e-07
3.96763e-07
3.97795e-07
3.98827e-07
3.99857e-07
4.00887e-07
4.01916e-07
4.02944e-07
4.03972e-07
4.04999e-07
4.06025e-07
4.0705e-07
4.08076e-07
4.09099e-07
4.10123e-07
4.11145e-07
4.12167e-07
4.13188e-07
4.14209e-07
4.15228e-07
4.16246e-07
4.17265e-07
4.18282e-07
4.19298e-07
4.20314e-07
4.21329e-07
4.22342e-07
4.23356e-07
4.24368e-07
4.2538e-07
4.26391e-07
4.27401e-07
4.28409e-07
4.29418e-07
4.30425e-07
4.31432e-07
4.32438e-07
4.33443e-07
4.34447e-07
4.36223e-07
9.65573e-07
8.91967e-07
8.04654e-07
8.90692e-07
8.79469e-07
6.71867e-07
1.04089e-07
3.92286e-07
3.93664e-07
3.94697e-07
3.95731e-07
3.96763e-07
3.97795e-07
3.98827e-07
3.99857e-07
4.00887e-07
4.01916e-07
4.02944e-07
4.03972e-07
4.04999e-07
4.06025e-07
4.0705e-07
4.08076e-07
4.09099e-07
4.10123e-07
4.11145e-07
4.12167e-07
4.13188e-07
4.14209e-07
4.15228e-07
4.16246e-07
4.17265e-07
4.18282e-07
4.19298e-07
4.20314e-07
4.21329e-07
4.22342e-07
4.23356e-07
4.24368e-07
4.2538e-07
4.26391e-07
4.27401e-07
4.28409e-07
4.29418e-07
4.30425e-07
4.31432e-07
4.32438e-07
4.33443e-07
4.34447e-07
4.36223e-07
9.68371e-07
9.65604e-07
8.32076e-07
8.64604e-07
6.63101e-07
6.90395e-07
3.55764e-08
3.92422e-07
3.93664e-07
3.94698e-07
3.95731e-07
3.96764e-07
3.97795e-07
3.98827e-07
3.99857e-07
4.00887e-07
4.01916e-07
4.02944e-07
4.03972e-07
4.04999e-07
4.06025e-07
4.0705e-07
4.08076e-07
4.09099e-07
4.10123e-07
4.11145e-07
4.12167e-07
4.13188e-07
4.14209e-07
4.15228e-07
4.16246e-07
4.17265e-07
4.18282e-07
4.19298e-07
4.20314e-07
4.21329e-07
4.22342e-07
4.23356e-07
4.24368e-07
4.2538e-07
4.26391e-07
4.274e-07
4.28409e-07
4.29418e-07
4.30425e-07
4.31432e-07
4.32438e-07
4.33443e-07
4.34447e-07
4.36223e-07
9.61567e-07
9.67434e-07
5.45287e-07
5.82736e-07
1.75492e-07
5.23512e-07
1.29211e-07
3.92422e-07
3.93664e-07
3.94698e-07
3.95731e-07
3.96763e-07
3.97795e-07
3.98827e-07
3.99857e-07
4.00887e-07
4.01916e-07
4.02944e-07
4.03972e-07
4.04999e-07
4.06025e-07
4.0705e-07
4.08076e-07
4.09099e-07
4.10123e-07
4.11145e-07
4.12167e-07
4.13188e-07
4.14209e-07
4.15228e-07
4.16246e-07
4.17265e-07
4.18282e-07
4.19298e-07
4.20314e-07
4.21329e-07
4.22342e-07
4.23356e-07
4.24368e-07
4.2538e-07
4.26391e-07
4.274e-07
4.28409e-07
4.29418e-07
4.30425e-07
4.31432e-07
4.32438e-07
4.33443e-07
4.34447e-07
4.36223e-07
9.64715e-07
9.20933e-07
9.06246e-07
7.78175e-07
9.20207e-07
7.2327e-07
1.83329e-07
5.04895e-07
5.06387e-07
5.07528e-07
5.08666e-07
5.09804e-07
5.1094e-07
5.12073e-07
5.13205e-07
5.14336e-07
5.15465e-07
5.16592e-07
5.17718e-07
5.18842e-07
5.19965e-07
5.21086e-07
5.22205e-07
5.23323e-07
5.24439e-07
5.25552e-07
5.26666e-07
5.27777e-07
5.28886e-07
5.29994e-07
5.311e-07
5.32204e-07
5.33307e-07
5.34409e-07
5.35508e-07
5.36606e-07
5.37703e-07
5.38796e-07
5.3989e-07
5.40981e-07
5.4207e-07
5.43158e-07
5.44245e-07
5.45329e-07
5.46412e-07
5.47494e-07
5.48572e-07
5.49651e-07
5.50727e-07
5.53042e-07
9.15241e-07
8.83266e-07
4.66713e-07
4.25446e-07
8.59015e-07
5.2073e-07
1.83226e-07
5.04898e-07
5.06387e-07
5.07528e-07
5.08666e-07
5.09804e-07
5.10939e-07
5.12073e-07
5.13205e-07
5.14336e-07
5.15465e-07
5.16592e-07
5.17718e-07
5.18842e-07
5.19965e-07
5.21086e-07
5.22205e-07
5.23322e-07
5.24439e-07
5.25552e-07
5.26666e-07
5.27777e-07
5.28886e-07
5.29994e-07
5.311e-07
5.32204e-07
5.33307e-07
5.34409e-07
5.35508e-07
5.36606e-07
5.37703e-07
5.38796e-07
5.3989e-07
5.40981e-07
5.4207e-07
5.43158e-07
5.44245e-07
5.45329e-07
5.46412e-07
5.47494e-07
5.48572e-07
5.49651e-07
5.50727e-07
5.53042e-07
8.61497e-07
2.61528e-07
3.1003e-07
4.06526e-07
6.35315e-07
6.94779e-07
5.46875e-08
5.04671e-07
5.06385e-07
5.07527e-07
5.08665e-07
5.09803e-07
5.10939e-07
5.12073e-07
5.13205e-07
5.14336e-07
5.15465e-07
5.16592e-07
5.17718e-07
5.18842e-07
5.19965e-07
5.21086e-07
5.22204e-07
5.23322e-07
5.24439e-07
5.25553e-07
5.26666e-07
5.27777e-07
5.28886e-07
5.29994e-07
5.311e-07
5.32204e-07
5.33307e-07
5.34409e-07
5.35508e-07
5.36606e-07
5.37703e-07
5.38796e-07
5.3989e-07
5.40981e-07
5.4207e-07
5.43158e-07
5.44245e-07
5.45329e-07
5.46412e-07
5.47494e-07
5.48572e-07
5.49651e-07
5.50727e-07
5.53042e-07
4.91855e-07
5.55328e-07
4.94034e-07
5.64018e-07
5.50303e-07
4.75114e-07
2.86365e-07
1.84064e-07
5.06037e-07
5.07527e-07
5.08665e-07
5.09803e-07
5.10939e-07
5.12073e-07
5.13205e-07
5.14336e-07
5.15465e-07
5.16592e-07
5.17718e-07
5.18842e-07
5.19965e-07
5.21086e-07
5.22204e-07
5.23323e-07
5.24439e-07
5.25553e-07
5.26666e-07
5.27777e-07
5.28886e-07
5.29994e-07
5.311e-07
5.32204e-07
5.33307e-07
5.34409e-07
5.35508e-07
5.36606e-07
5.37703e-07
5.38796e-07
5.3989e-07
5.40981e-07
5.4207e-07
5.43158e-07
5.44245e-07
5.45329e-07
5.46412e-07
5.47494e-07
5.48572e-07
5.49651e-07
5.50727e-07
5.53042e-07
4.36484e-07
7.1991e-07
8.60146e-07
1.81254e-07
3.6512e-07
7.27629e-07
7.70708e-07
1.83948e-07
5.06037e-07
5.07527e-07
5.08666e-07
5.09803e-07
5.10939e-07
5.12073e-07
5.13205e-07
5.14336e-07
5.15465e-07
5.16592e-07
5.17718e-07
5.18842e-07
5.19965e-07
5.21086e-07
5.22205e-07
5.23323e-07
5.24439e-07
5.25553e-07
5.26666e-07
5.27777e-07
5.28886e-07
5.29994e-07
5.311e-07
5.32204e-07
5.33307e-07
5.34409e-07
5.35508e-07
5.36606e-07
5.37703e-07
5.38796e-07
5.3989e-07
5.40981e-07
5.4207e-07
5.43158e-07
5.44245e-07
5.45329e-07
5.46412e-07
5.47494e-07
5.48572e-07
5.4965e-07
5.50727e-07
5.53042e-07
9.12549e-07
9.17662e-07
8.31616e-07
5.7642e-07
5.8615e-07
5.21767e-07
7.7212e-07
1.83948e-07
5.06038e-07
5.07527e-07
5.08666e-07
5.09803e-07
5.10939e-07
5.12073e-07
5.13205e-07
5.14336e-07
5.15465e-07
5.16592e-07
5.17718e-07
5.18842e-07
5.19965e-07
5.21086e-07
5.22205e-07
5.23323e-07
5.24439e-07
5.25552e-07
5.26666e-07
5.27777e-07
5.28886e-07
5.29994e-07
5.311e-07
5.32204e-07
5.33307e-07
5.34409e-07
5.35508e-07
5.36606e-07
5.37703e-07
5.38796e-07
5.3989e-07
5.40981e-07
5.4207e-07
5.43158e-07
5.44245e-07
5.45329e-07
5.46412e-07
5.47494e-07
5.48572e-07
5.4965e-07
5.50727e-07
5.53042e-07
9.72098e-07
9.25106e-07
2.51075e-07
8.49495e-07
7.46797e-07
7.43815e-07
7.64466e-07
1.83947e-07
5.0604e-07
5.07528e-07
5.08666e-07
5.09804e-07
5.1094e-07
5.12073e-07
5.13205e-07
5.14336e-07
5.15465e-07
5.16592e-07
5.17718e-07
5.18842e-07
5.19965e-07
5.21086e-07
5.22205e-07
5.23323e-07
5.24439e-07
5.25552e-07
5.26666e-07
5.27777e-07
5.28886e-07
5.29994e-07
5.311e-07
5.32204e-07
5.33307e-07
5.34409e-07
5.35508e-07
5.36606e-07
5.37703e-07
5.38796e-07
5.3989e-07
5.40981e-07
5.4207e-07
5.43158e-07
5.44245e-07
5.45329e-07
5.46412e-07
5.47494e-07
5.48572e-07
5.49651e-07
5.50727e-07
5.53041e-07
9.72104e-07
9.6218e-07
8.80388e-07
9.16963e-07
8.94294e-07
7.41624e-07
1.48084e-07
5.04675e-07
5.06388e-07
5.07529e-07
5.08667e-07
5.09804e-07
5.1094e-07
5.12073e-07
5.13205e-07
5.14336e-07
5.15465e-07
5.16592e-07
5.17718e-07
5.18842e-07
5.19965e-07
5.21086e-07
5.22205e-07
5.23323e-07
5.24439e-07
5.25553e-07
5.26666e-07
5.27777e-07
5.28886e-07
5.29994e-07
5.311e-07
5.32204e-07
5.33307e-07
5.34409e-07
5.35508e-07
5.36606e-07
5.37703e-07
5.38796e-07
5.3989e-07
5.40981e-07
5.4207e-07
5.43158e-07
5.44245e-07
5.45329e-07
5.46412e-07
5.47494e-07
5.48572e-07
5.49651e-07
5.50727e-07
5.53042e-07
9.75222e-07
9.76848e-07
7.7688e-07
7.37312e-07
6.4331e-07
5.21381e-07
5.26805e-08
5.04902e-07
5.0639e-07
5.0753e-07
5.08667e-07
5.09804e-07
5.1094e-07
5.12073e-07
5.13206e-07
5.14336e-07
5.15465e-07
5.16592e-07
5.17718e-07
5.18842e-07
5.19965e-07
5.21086e-07
5.22205e-07
5.23323e-07
5.24439e-07
5.25553e-07
5.26666e-07
5.27777e-07
5.28886e-07
5.29994e-07
5.311e-07
5.32204e-07
5.33307e-07
5.34409e-07
5.35508e-07
5.36606e-07
5.37703e-07
5.38796e-07
5.3989e-07
5.40981e-07
5.4207e-07
5.43158e-07
5.44245e-07
5.45329e-07
5.46412e-07
5.47493e-07
5.48572e-07
5.49651e-07
5.50727e-07
5.53042e-07
9.7061e-07
9.44712e-07
8.86117e-07
3.38241e-07
6.0583e-07
7.4869e-07
1.83228e-07
5.04903e-07
5.0639e-07
5.0753e-07
5.08667e-07
5.09804e-07
5.1094e-07
5.12073e-07
5.13205e-07
5.14336e-07
5.15465e-07
5.16592e-07
5.17718e-07
5.18842e-07
5.19965e-07
5.21086e-07
5.22205e-07
5.23323e-07
5.24439e-07
5.25552e-07
5.26666e-07
5.27777e-07
5.28886e-07
5.29994e-07
5.311e-07
5.32204e-07
5.33307e-07
5.34409e-07
5.35508e-07
5.36606e-07
5.37703e-07
5.38797e-07
5.3989e-07
5.40981e-07
5.4207e-07
5.43158e-07
5.44245e-07
5.45329e-07
5.46412e-07
5.47494e-07
5.48572e-07
5.49651e-07
5.50727e-07
5.53042e-07
9.09977e-07
8.65568e-07
7.93905e-07
7.21988e-07
9.13722e-07
6.60844e-07
1.83342e-07
3.92419e-07
3.93663e-07
3.94697e-07
3.95731e-07
3.96763e-07
3.97795e-07
3.98827e-07
3.99857e-07
4.00886e-07
4.01916e-07
4.02944e-07
4.03972e-07
4.04999e-07
4.06025e-07
4.0705e-07
4.08076e-07
4.09099e-07
4.10122e-07
4.11145e-07
4.12167e-07
4.13188e-07
4.14209e-07
4.15228e-07
4.16246e-07
4.17265e-07
4.18282e-07
4.19298e-07
4.20314e-07
4.21329e-07
4.22342e-07
4.23356e-07
4.24368e-07
4.2538e-07
4.26391e-07
4.274e-07
4.28409e-07
4.29418e-07
4.30425e-07
4.31432e-07
4.32438e-07
4.33443e-07
4.34447e-07
4.36223e-07
9.60639e-07
8.86274e-07
3.52624e-07
7.53102e-07
9.20545e-07
7.36319e-07
1.83219e-07
3.92421e-07
3.93663e-07
3.94697e-07
3.95731e-07
3.96763e-07
3.97795e-07
3.98827e-07
3.99857e-07
4.00886e-07
4.01916e-07
4.02944e-07
4.03972e-07
4.04999e-07
4.06025e-07
4.0705e-07
4.08076e-07
4.09099e-07
4.10122e-07
4.11145e-07
4.12167e-07
4.13188e-07
4.14209e-07
4.15228e-07
4.16246e-07
4.17265e-07
4.18282e-07
4.19298e-07
4.20314e-07
4.21329e-07
4.22342e-07
4.23356e-07
4.24368e-07
4.2538e-07
4.26391e-07
4.274e-07
4.28409e-07
4.29418e-07
4.30425e-07
4.31432e-07
4.32438e-07
4.33443e-07
4.34447e-07
4.36223e-07
8.94149e-07
8.37455e-07
5.23846e-07
7.25974e-07
8.61565e-07
7.071e-07
5.46243e-08
3.92285e-07
3.93663e-07
3.94697e-07
3.95731e-07
3.96763e-07
3.97795e-07
3.98827e-07
3.99857e-07
4.00886e-07
4.01916e-07
4.02944e-07
4.03972e-07
4.04999e-07
4.06025e-07
4.0705e-07
4.08076e-07
4.09099e-07
4.10123e-07
4.11145e-07
4.12167e-07
4.13188e-07
4.14209e-07
4.15228e-07
4.16246e-07
4.17265e-07
4.18282e-07
4.19298e-07
4.20314e-07
4.21329e-07
4.22342e-07
4.23356e-07
4.24368e-07
4.2538e-07
4.26391e-07
4.274e-07
4.28409e-07
4.29418e-07
4.30425e-07
4.31432e-07
4.32438e-07
4.33443e-07
4.34447e-07
4.36223e-07
1.14777e-07
4.20339e-07
3.76872e-07
6.90089e-07
2.11146e-07
6.21553e-07
2.86473e-07
1.84069e-07
3.93453e-07
3.94697e-07
3.95731e-07
3.96763e-07
3.97795e-07
3.98827e-07
3.99857e-07
4.00886e-07
4.01916e-07
4.02944e-07
4.03972e-07
4.04999e-07
4.06025e-07
4.0705e-07
4.08076e-07
4.09099e-07
4.10122e-07
4.11145e-07
4.12167e-07
4.13188e-07
4.14209e-07
4.15228e-07
4.16246e-07
4.17265e-07
4.18282e-07
4.19298e-07
4.20314e-07
4.21329e-07
4.22342e-07
4.23356e-07
4.24368e-07
4.2538e-07
4.26391e-07
4.274e-07
4.28409e-07
4.29418e-07
4.30425e-07
4.31432e-07
4.32438e-07
4.33443e-07
4.34447e-07
4.36223e-07
2.54625e-07
4.28755e-07
7.91816e-07
5.95596e-07
1.70631e-07
7.08506e-07
7.70409e-07
1.83953e-07
3.93453e-07
3.94697e-07
3.95731e-07
3.96763e-07
3.97795e-07
3.98827e-07
3.99857e-07
4.00886e-07
4.01916e-07
4.02944e-07
4.03972e-07
4.04999e-07
4.06025e-07
4.0705e-07
4.08076e-07
4.09099e-07
4.10123e-07
4.11145e-07
4.12167e-07
4.13188e-07
4.14209e-07
4.15228e-07
4.16246e-07
4.17265e-07
4.18282e-07
4.19298e-07
4.20314e-07
4.21329e-07
4.22342e-07
4.23356e-07
4.24368e-07
4.2538e-07
4.26391e-07
4.274e-07
4.28409e-07
4.29418e-07
4.30425e-07
4.31432e-07
4.32438e-07
4.33443e-07
4.34447e-07
4.36223e-07
9.62194e-07
9.25489e-07
8.51618e-07
2.47432e-07
3.87559e-07
4.85003e-07
7.71607e-07
1.83953e-07
3.93454e-07
3.94697e-07
3.95731e-07
3.96763e-07
3.97795e-07
3.98827e-07
3.99857e-07
4.00886e-07
4.01916e-07
4.02944e-07
4.03972e-07
4.04999e-07
4.06025e-07
4.0705e-07
4.08076e-07
4.09099e-07
4.10123e-07
4.11145e-07
4.12167e-07
4.13188e-07
4.14209e-07
4.15228e-07
4.16246e-07
4.17265e-07
4.18282e-07
4.19298e-07
4.20314e-07
4.21329e-07
4.22342e-07
4.23356e-07
4.24368e-07
4.2538e-07
4.26391e-07
4.274e-07
4.28409e-07
4.29418e-07
4.30425e-07
4.31432e-07
4.32438e-07
4.33443e-07
4.34447e-07
4.36223e-07
9.6857e-07
9.06139e-07
6.94579e-07
5.16729e-07
6.3361e-07
7.42072e-07
7.65099e-07
1.83952e-07
3.93454e-07
3.94697e-07
3.95731e-07
3.96763e-07
3.97795e-07
3.98827e-07
3.99857e-07
4.00887e-07
4.01916e-07
4.02944e-07
4.03972e-07
4.04999e-07
4.06025e-07
4.0705e-07
4.08076e-07
4.09099e-07
4.10123e-07
4.11145e-07
4.12167e-07
4.13188e-07
4.14208e-07
4.15228e-07
4.16246e-07
4.17265e-07
4.18282e-07
4.19298e-07
4.20314e-07
4.21329e-07
4.22342e-07
4.23356e-07
4.24368e-07
4.2538e-07
4.26391e-07
4.274e-07
4.28409e-07
4.29418e-07
4.30425e-07
4.31432e-07
4.32438e-07
4.33443e-07
4.34447e-07
4.36223e-07
9.67364e-07
9.02391e-07
8.4095e-07
7.7822e-07
8.60738e-07
7.33662e-07
1.48055e-07
3.92286e-07
3.93664e-07
3.94697e-07
3.95731e-07
3.96763e-07
3.97795e-07
3.98827e-07
3.99857e-07
4.00887e-07
4.01916e-07
4.02944e-07
4.03972e-07
4.04999e-07
4.06025e-07
4.0705e-07
4.08076e-07
4.09099e-07
4.10122e-07
4.11145e-07
4.12167e-07
4.13188e-07
4.14208e-07
4.15228e-07
4.16246e-07
4.17265e-07
4.18282e-07
4.19298e-07
4.20314e-07
4.21329e-07
4.22342e-07
4.23356e-07
4.24368e-07
4.2538e-07
4.26391e-07
4.274e-07
4.28409e-07
4.29418e-07
4.30425e-07
4.31432e-07
4.32438e-07
4.33443e-07
4.34447e-07
4.36223e-07
9.657e-07
9.66988e-07
8.53583e-07
4.08165e-07
7.31005e-07
5.68507e-07
5.2642e-08
3.92422e-07
3.93664e-07
3.94698e-07
3.95731e-07
3.96763e-07
3.97795e-07
3.98827e-07
3.99857e-07
4.00887e-07
4.01916e-07
4.02944e-07
4.03972e-07
4.04999e-07
4.06025e-07
4.0705e-07
4.08076e-07
4.09099e-07
4.10122e-07
4.11145e-07
4.12167e-07
4.13188e-07
4.14209e-07
4.15228e-07
4.16246e-07
4.17265e-07
4.18282e-07
4.19298e-07
4.20314e-07
4.21329e-07
4.22342e-07
4.23356e-07
4.24368e-07
4.2538e-07
4.26391e-07
4.274e-07
4.28409e-07
4.29418e-07
4.30425e-07
4.31432e-07
4.32438e-07
4.33443e-07
4.34447e-07
4.36223e-07
9.65433e-07
8.84663e-07
9.27263e-07
7.29239e-07
5.09844e-07
7.14871e-07
1.83233e-07
3.92422e-07
3.93664e-07
3.94698e-07
3.95731e-07
3.96763e-07
3.97795e-07
3.98827e-07
3.99857e-07
4.00887e-07
4.01916e-07
4.02944e-07
4.03972e-07
4.04999e-07
4.06025e-07
4.0705e-07
4.08076e-07
4.09099e-07
4.10123e-07
4.11145e-07
4.12167e-07
4.13188e-07
4.14209e-07
4.15228e-07
4.16246e-07
4.17265e-07
4.18282e-07
4.19298e-07
4.20314e-07
4.21329e-07
4.22342e-07
4.23356e-07
4.24368e-07
4.2538e-07
4.26391e-07
4.274e-07
4.28409e-07
4.29418e-07
4.30425e-07
4.31432e-07
4.32438e-07
4.33443e-07
4.34447e-07
4.36223e-07
3.51463e-08
6.42116e-07
3.51588e-08
7.25647e-07
5.17919e-08
7.52828e-07
5.18158e-08
3.5179e-08
5.60065e-07
6.49038e-08
3.99894e-07
5.18356e-08
6.41756e-07
9.32783e-08
1.0857e-07
6.90516e-07
6.95991e-07
6.70664e-07
1.54916e-07
7.58011e-07
7.70538e-07
6.98481e-07
5.95425e-07
7.01552e-07
4.83665e-07
7.69975e-07
6.21252e-07
7.7494e-07
6.99388e-07
5.58057e-07
7.00731e-07
7.43974e-07
7.73196e-07
7.21568e-07
7.75717e-07
6.9947e-07
6.72192e-07
7.00342e-07
6.34196e-07
7.76763e-07
7.30713e-07
7.74695e-07
6.99895e-07
6.80804e-07
6.97782e-07
7.26369e-07
7.70896e-07
6.93272e-07
7.72429e-07
6.95897e-07
5.32929e-07
1.21913e-07
7.32539e-07
7.70262e-07
5.23888e-07
1.7055e-07
8.62043e-08
6.41483e-07
3.57798e-08
7.04083e-07
1.23874e-07
6.58858e-07
5.28983e-08
3.51787e-08
6.91667e-07
3.51455e-08
7.26897e-07
5.18954e-08
7.51006e-07
5.17909e-08
5.17914e-08
7.59487e-07
5.1815e-08
7.09092e-07
5.1801e-08
7.56535e-07
5.18146e-08
5.18487e-08
7.25802e-07
9.35324e-08
7.11706e-07
5.18215e-08
7.0934e-07
9.34683e-08
1.54957e-07
7.50602e-07
7.70271e-07
6.88729e-07
1.55194e-07
7.61003e-07
7.70259e-07
7.68803e-07
5.96255e-07
7.74683e-07
5.49762e-07
7.71783e-07
5.83327e-07
7.75908e-07
7.73864e-07
7.30167e-07
7.75215e-07
7.01314e-07
7.73333e-07
7.20471e-07
7.77185e-07
7.76654e-07
7.45242e-07
7.74009e-07
4.51003e-07
7.74411e-07
7.52339e-07
7.75413e-07
7.69123e-07
6.8699e-07
7.72115e-07
7.24364e-07
7.68374e-07
6.6052e-07
7.72693e-07
7.69811e-07
4.57296e-07
1.69642e-07
7.22666e-07
7.69135e-07
5.43948e-07
1.70109e-07
1.23823e-07
6.68914e-07
5.29288e-08
4.99975e-07
1.23834e-07
7.53124e-07
5.29541e-08
5.19046e-08
7.50233e-07
5.17907e-08
7.0787e-07
5.19029e-08
7.41564e-07
5.17925e-08
5.17951e-08
7.24951e-07
5.18146e-08
5.49746e-07
3.51484e-08
6.8302e-07
3.51576e-08
5.18302e-08
7.20454e-07
9.33696e-08
6.76003e-07
3.51581e-08
6.82246e-07
6.44037e-08
1.55232e-07
7.64544e-07
7.70679e-07
6.6138e-07
1.0898e-07
6.91113e-07
6.95936e-07
7.72482e-07
5.75721e-07
7.75262e-07
6.87885e-07
6.96928e-07
6.5639e-07
7.01001e-07
7.73122e-07
7.13817e-07
7.76051e-07
6.86302e-07
6.99953e-07
6.75214e-07
7.00228e-07
7.75287e-07
7.53837e-07
7.74924e-07
4.65777e-07
6.99705e-07
6.81024e-07
7.01225e-07
7.65862e-07
6.73189e-07
7.72537e-07
6.33926e-07
6.99994e-07
6.75856e-07
6.97595e-07
7.68909e-07
5.44039e-07
1.7135e-07
6.90052e-07
6.95733e-07
4.84007e-07
1.21954e-07
1.23875e-07
7.67484e-07
5.2912e-08
6.10307e-07
8.61888e-08
6.82149e-07
3.57746e-08
5.18977e-08
7.46542e-07
5.17926e-08
6.76596e-07
3.5183e-08
6.84193e-07
3.5146e-08
6.46608e-07
6.64825e-07
4.60754e-07
8.73065e-07
6.44289e-07
8.20461e-07
5.46135e-07
2.85354e-07
2.07216e-07
4.006e-07
7.36888e-07
5.70682e-07
2.06548e-07
2.68576e-07
1.29657e-07
1.29268e-07
1.29658e-07
1.83337e-07
1.84014e-07
1.83344e-07
1.84016e-07
2.88116e-07
8.60965e-07
8.71386e-07
7.89118e-07
2.85305e-07
8.86097e-07
8.13422e-07
5.54846e-07
3.9269e-07
4.96364e-07
4.28863e-07
4.74114e-07
5.49931e-07
4.25219e-07
1.29658e-07
3.52361e-08
1.29567e-07
1.8324e-07
1.84017e-07
5.20134e-08
1.83834e-07
6.31392e-07
5.47191e-07
7.96382e-07
7.10638e-07
2.52487e-07
5.83922e-07
5.86042e-07
7.22019e-07
6.96816e-07
4.49278e-07
6.08461e-07
7.69981e-07
5.14701e-07
6.56053e-07
1.29566e-07
1.04712e-07
1.29513e-07
5.46278e-08
1.83831e-07
1.49835e-07
1.83725e-07
8.06432e-07
6.86846e-07
8.78446e-07
5.71566e-07
6.79699e-07
3.87983e-07
7.20029e-07
3.3702e-07
4.93537e-07
2.20868e-07
6.05378e-07
6.06453e-07
2.97815e-07
3.14495e-07
3.52933e-08
6.93535e-07
3.52763e-08
2.85787e-07
5.20158e-08
7.63947e-07
5.19796e-08
7.26668e-07
7.91126e-07
7.76872e-07
2.38443e-07
4.89945e-07
5.51327e-07
6.22464e-07
7.69745e-07
6.98895e-07
6.78502e-07
7.54809e-07
7.73344e-07
7.40655e-07
6.96455e-07
3.5277e-08
6.97603e-07
3.52786e-08
7.70677e-07
5.19814e-08
7.73204e-07
5.1985e-08
7.97029e-07
7.27132e-07
8.73736e-07
8.42643e-07
8.07445e-07
8.34829e-07
8.87679e-07
7.54564e-07
6.82067e-07
2.8316e-07
5.84468e-07
7.54956e-07
4.86457e-07
6.8934e-07
3.52789e-08
6.95257e-07
3.52768e-08
7.72411e-07
5.19858e-08
7.69628e-07
5.19811e-08
8.71952e-07
8.908e-07
8.82565e-07
7.47095e-07
8.83231e-07
8.90611e-07
9.16855e-07
7.71308e-07
6.95341e-07
6.78047e-07
7.39227e-07
7.6864e-07
7.46945e-07
6.9423e-07
3.52763e-08
1.83571e-07
3.52933e-08
7.62969e-07
5.198e-08
2.50785e-07
5.20163e-08
1.9559e-07
8.23056e-07
4.4678e-07
8.83891e-07
3.09609e-07
8.81118e-07
4.97335e-07
6.76696e-07
6.91452e-07
4.46037e-07
7.43102e-07
7.41716e-07
5.36556e-07
6.00202e-07
1.29513e-07
3.75646e-08
1.29567e-07
1.48074e-07
1.83726e-07
5.57682e-08
1.83832e-07
4.53916e-07
5.22518e-07
6.18533e-07
7.04639e-07
3.85457e-07
6.68134e-07
4.35302e-07
7.59779e-07
6.97098e-07
6.89922e-07
7.5071e-07
7.70803e-07
7.55492e-07
6.94559e-07
1.29567e-07
3.51712e-08
1.29567e-07
5.26329e-08
1.83834e-07
5.18208e-08
1.83835e-07
4.16763e-07
5.89166e-07
6.76833e-07
3.53023e-07
6.31126e-07
5.14138e-07
5.86595e-07
4.47147e-07
6.73764e-07
3.43923e-07
7.08828e-07
7.4118e-07
4.57957e-07
3.4589e-07
1.29658e-07
1.29268e-07
1.29658e-07
1.83232e-07
1.84018e-07
1.83345e-07
1.84016e-07
6.48142e-07
9.02589e-07
7.16538e-07
8.81169e-07
7.50387e-07
8.85397e-07
8.4912e-07
2.77605e-07
2.60675e-07
6.25556e-07
7.22109e-07
2.66715e-07
6.32952e-07
2.48647e-07
1.84009e-07
1.83338e-07
1.84011e-07
1.83332e-07
1.84009e-07
1.83338e-07
1.84011e-07
2.62903e-07
8.84268e-07
7.15094e-07
8.28769e-07
7.57773e-07
8.30331e-07
8.01679e-07
1.79655e-07
4.82318e-07
2.53024e-07
6.71379e-07
3.12728e-07
5.04349e-07
2.60672e-07
1.84012e-07
5.20307e-08
1.83829e-07
1.83216e-07
1.84012e-07
5.20249e-08
1.83829e-07
2.68613e-07
5.26857e-07
6.13476e-07
7.90837e-07
7.95314e-07
6.78607e-07
8.15696e-07
7.56933e-07
7.57464e-07
6.4435e-07
6.87999e-07
7.42283e-07
7.59023e-07
6.71702e-07
1.83826e-07
1.49933e-07
1.8372e-07
5.46861e-08
1.83826e-07
1.49868e-07
1.8372e-07
3.2012e-07
3.99919e-07
5.09758e-07
2.69069e-07
5.44793e-07
4.29598e-07
2.97744e-07
3.59036e-07
6.14251e-07
4.25707e-07
5.09724e-07
4.00415e-07
6.6724e-07
3.59986e-07
5.20152e-08
7.66111e-07
5.19792e-08
2.86434e-07
5.20152e-08
7.6517e-07
5.19792e-08
5.15685e-07
5.51302e-07
5.61642e-07
1.84719e-07
4.43056e-07
3.76591e-07
5.13879e-07
7.50529e-07
7.61054e-07
7.57615e-07
7.09626e-07
7.52834e-07
7.63136e-07
6.64965e-07
5.1981e-08
7.72817e-07
5.19847e-08
7.69835e-07
5.1981e-08
7.72178e-07
5.19846e-08
4.91226e-07
8.75841e-07
7.93054e-07
5.7461e-07
2.03633e-07
8.69318e-07
8.48894e-07
7.56283e-07
7.37497e-07
6.95051e-07
4.64889e-07
7.5169e-07
7.39221e-07
6.73573e-07
5.19853e-08
7.68164e-07
5.19807e-08
7.71158e-07
5.19853e-08
7.68529e-07
5.19808e-08
8.95196e-07
9.07072e-07
8.46291e-07
5.88096e-07
9.1472e-07
9.15226e-07
9.11325e-07
7.34349e-07
7.58763e-07
6.95536e-07
7.4046e-07
7.44237e-07
7.60084e-07
7.24474e-07
5.19796e-08
2.50958e-07
5.20157e-08
7.67135e-07
5.19796e-08
2.50751e-07
5.20158e-08
3.65457e-07
8.27501e-07
4.64558e-07
8.95453e-07
6.69202e-07
8.46665e-07
7.42199e-07
6.97369e-07
7.43549e-07
5.25116e-07
7.33316e-07
6.94109e-07
7.45338e-07
5.27514e-07
1.83722e-07
5.59225e-08
1.83827e-07
1.48065e-07
1.83722e-07
5.57979e-08
1.83827e-07
3.58427e-07
5.78085e-07
3.11186e-07
5.90275e-07
6.87291e-07
7.61959e-07
6.93383e-07
7.35961e-07
7.52593e-07
7.02598e-07
3.7109e-07
7.4946e-07
7.19229e-07
5.58505e-07
1.83829e-07
5.18209e-08
1.8383e-07
5.26848e-08
1.83829e-07
5.18213e-08
1.83831e-07
6.51166e-07
3.67647e-07
5.6e-07
5.75461e-07
7.76187e-07
2.11901e-07
6.38384e-07
4.5523e-07
7.38321e-07
6.50178e-07
7.31628e-07
4.51957e-07
7.33097e-07
7.0269e-07
1.84014e-07
1.8334e-07
1.84011e-07
1.83229e-07
1.84014e-07
1.83341e-07
1.84011e-07
7.63865e-07
9.22323e-07
8.91538e-07
8.72859e-07
6.49222e-07
8.64092e-07
8.82472e-07
2.07928e-07
2.5582e-07
7.45106e-07
6.26171e-07
2.01488e-07
7.47528e-07
2.87009e-07
1.84014e-07
1.83343e-07
1.84016e-07
1.29268e-07
1.29657e-07
1.29268e-07
1.29658e-07
8.63547e-07
9.01315e-07
9.14326e-07
8.97674e-07
8.80387e-07
8.79976e-07
8.59622e-07
6.71245e-07
6.11576e-07
7.05384e-07
7.28754e-07
6.58828e-07
6.36054e-07
7.06245e-07
1.84016e-07
5.20038e-08
1.83834e-07
1.29211e-07
1.29658e-07
3.52358e-08
1.29567e-07
8.80571e-07
8.83828e-07
8.61733e-07
8.19387e-07
8.75079e-07
8.8752e-07
8.71823e-07
7.72732e-07
7.71116e-07
7.38022e-07
7.19099e-07
7.72502e-07
7.64944e-07
7.13532e-07
1.83831e-07
1.4973e-07
1.83725e-07
3.69292e-08
1.29566e-07
1.0458e-07
1.29513e-07
4.95929e-07
4.4445e-07
7.00488e-07
6.28885e-07
6.40608e-07
7.45374e-07
6.80738e-07
6.82384e-07
7.27787e-07
4.05611e-07
6.73407e-07
6.17203e-07
7.48097e-07
3.88415e-07
5.20158e-08
7.66628e-07
5.19796e-08
2.11281e-07
3.52923e-08
6.94151e-07
3.52763e-08
6.47069e-07
2.47002e-07
5.26712e-07
7.1628e-07
8.53132e-07
1.91376e-07
4.94363e-07
7.64734e-07
7.73048e-07
4.38787e-07
7.43091e-07
7.61756e-07
7.70925e-07
4.26368e-07
5.19813e-08
7.72545e-07
5.1985e-08
6.95942e-07
3.5277e-08
6.97638e-07
3.52786e-08
1.9066e-07
4.91437e-07
8.70741e-07
4.93179e-07
3.4305e-07
6.06297e-07
7.46925e-07
7.66532e-07
7.60956e-07
6.63679e-07
5.01739e-07
7.62645e-07
7.6773e-07
6.81506e-07
5.19857e-08
7.68854e-07
5.19811e-08
6.97813e-07
3.5279e-08
6.95303e-07
3.52769e-08
9.07189e-07
8.30537e-07
9.04348e-07
7.14755e-07
8.86291e-07
8.20938e-07
8.83692e-07
7.17854e-07
7.68555e-07
7.38088e-07
7.25109e-07
7.00878e-07
7.71892e-07
7.45279e-07
5.19799e-08
2.50719e-07
5.20163e-08
6.93976e-07
3.52764e-08
1.83371e-07
3.52934e-08
6.86931e-07
6.2484e-07
7.81061e-07
7.9438e-07
6.47278e-07
8.36735e-07
8.70225e-07
6.91758e-07
7.54382e-07
6.46376e-07
7.37239e-07
6.83996e-07
7.61091e-07
6.44107e-07
1.83726e-07
5.56014e-08
1.83832e-07
1.04055e-07
1.29513e-07
3.74682e-08
1.29567e-07
7.81125e-07
6.1518e-07
5.95178e-07
6.45209e-07
8.1887e-07
6.74358e-07
6.87874e-07
7.55594e-07
7.04834e-07
5.2086e-07
5.37931e-07
7.43552e-07
7.27692e-07
6.45787e-07
1.83834e-07
5.1821e-08
1.83835e-07
3.55823e-08
1.29567e-07
3.51619e-08
1.29567e-07
7.02051e-07
2.40472e-07
7.43831e-07
6.61068e-07
6.42381e-07
7.59822e-07
6.29943e-07
5.19385e-07
7.49941e-07
6.99475e-07
7.21661e-07
5.08402e-07
7.56437e-07
7.08295e-07
1.84018e-07
1.83345e-07
1.84016e-07
1.29212e-07
1.29658e-07
1.29269e-07
1.29658e-07
5.88752e-08
3.93392e-08
3.51477e-08
5.18e-08
5.18012e-08
4.02939e-08
5.85051e-08
3.76486e-07
4.16631e-07
6.88352e-07
7.36674e-07
5.15539e-07
7.59752e-07
2.82475e-07
6.79569e-08
3.51528e-08
5.61725e-08
5.18255e-08
5.18135e-08
8.18925e-08
4.65712e-08
2.86764e-07
7.32784e-07
2.60431e-07
5.91953e-07
5.74137e-07
2.75499e-07
2.62314e-07
5.87468e-08
5.17987e-08
5.91694e-08
5.17942e-08
5.17986e-08
5.93123e-08
5.89371e-08
3.93359e-07
7.47346e-07
4.98235e-07
7.52902e-07
5.07728e-07
7.58097e-07
4.06871e-07
6.73591e-08
5.18235e-08
5.18047e-08
8.13052e-08
5.1811e-08
8.17148e-08
6.69333e-08
1.0596e-07
5.86323e-08
3.6098e-08
5.18579e-08
8.54943e-08
5.36006e-08
7.57334e-08
6.47045e-07
4.20964e-07
6.72686e-07
5.88751e-07
3.64238e-07
7.49764e-07
5.02504e-07
1.94743e-07
4.0345e-08
6.48969e-07
9.35456e-08
6.0254e-08
7.48525e-07
1.47361e-07
5.90394e-07
3.71126e-07
4.42587e-07
3.45667e-07
4.43472e-07
4.84184e-07
5.93269e-07
1.03382e-07
5.18415e-08
8.71705e-08
5.3488e-08
8.67713e-08
5.37975e-08
1.04399e-07
6.83058e-07
5.42822e-07
3.11217e-07
7.12238e-07
3.12e-07
7.28589e-07
6.74168e-07
1.83439e-07
9.32072e-08
6.08835e-08
7.45247e-07
6.10255e-08
7.50814e-07
1.86254e-07
7.71881e-07
6.95743e-07
4.1386e-07
1.54376e-07
7.65723e-07
5.10784e-07
6.98716e-07
7.11551e-07
3.6239e-07
6.99538e-07