/*--------------------------------*- C++ -*----------------------------------*\
| =========                 |                                                 |
| \\      /  F ield         | OpenFOAM: The Open Source CFD Toolbox           |
|  \\    /   O peration     | Version:  5.0                                   |
|   \\  /    A nd           | Web:      www.OpenFOAM.org                      |
|    \\/     M anipulation  |                                                 |
\*---------------------------------------------------------------------------*/
FoamFile
{
    version     2.0;
    format      ascii;
    class       volVectorField;
    location    "1.6";
    object      U;
}
// * * * * * * * * * * * * * * * * * * * * * * * * * * * * * * * * * * * * * //

dimensions      [0 1 -1 0 0 0 0];

internalField   nonuniform List<vector> 
8577
(
(-0.00242444 -0.00170502 -0.000824531)
(-0.00107893 0.00453283 0.00025772)
(-0.000768287 -0.00579151 -0.000267119)
(0.0121088 0.0093114 -0.000607909)
(0.0150315 0.00822233 5.58194e-06)
(0.017646 -0.00495345 0.000920634)
(0.000529815 -4.32908e-05 5.3178e-07)
(0.000828479 -2.75683e-05 -2.90048e-06)
(0.000805278 -1.81736e-05 -2.74432e-07)
(0.000804654 -1.18715e-05 1.07608e-08)
(0.000802817 -7.3725e-06 6.68244e-08)
(0.000802312 -4.69797e-06 4.23275e-08)
(0.000801879 -2.92993e-06 -9.57921e-09)
(0.000800951 -1.75177e-06 7.06064e-08)
(0.000799739 -1.11308e-06 5.13897e-08)
(0.000798512 -7.11917e-07 2.65646e-08)
(0.000797183 -4.66957e-07 5.29641e-08)
(0.000795795 -2.36513e-07 7.93967e-08)
(0.000794151 -2.19685e-07 6.58821e-08)
(0.00079259 -2.01526e-07 1.81736e-07)
(0.000791279 -2.19212e-07 6.12366e-08)
(0.000789844 -4.36088e-08 6.38979e-08)
(0.000788296 -6.95323e-08 1.81264e-09)
(0.000786861 -4.87709e-08 4.63776e-08)
(0.000785444 1.6111e-07 1.33829e-09)
(0.000783898 2.96079e-07 6.42488e-08)
(0.000782395 1.55996e-07 6.16205e-08)
(0.000781061 9.48183e-08 4.97313e-08)
(0.000779486 2.04421e-07 4.39275e-08)
(0.000778017 -1.95507e-07 4.20692e-08)
(0.000776483 -4.62023e-07 7.77322e-08)
(0.000774808 -5.05334e-07 -5.52425e-08)
(0.00077348 -3.42151e-07 8.04862e-08)
(0.000772398 -5.23403e-08 1.07484e-07)
(0.000771103 6.2141e-08 4.60922e-08)
(0.000769482 -7.21016e-08 4.40229e-08)
(0.000767824 -2.21145e-07 2.97364e-08)
(0.000766085 1.51999e-07 3.63302e-08)
(0.000765209 4.7934e-07 8.21935e-08)
(0.000764179 1.82428e-07 1.03446e-07)
(0.000762445 7.09031e-08 2.57328e-08)
(0.000761033 5.55631e-08 7.02462e-08)
(0.000760056 -5.82358e-07 8.15802e-08)
(0.000758298 -5.85282e-07 1.03671e-08)
(0.000756541 -3.73869e-07 3.42214e-08)
(0.000755381 -2.27972e-07 2.88945e-08)
(0.000754052 -1.94039e-07 5.66318e-08)
(0.000752826 -1.93929e-07 4.09629e-08)
(0.000751232 -3.29011e-07 4.81062e-08)
(0.00074968 -3.3928e-07 3.44582e-09)
(-0.00294474 -0.000732116 0.000388821)
(0.00474449 -0.0157418 0.000551465)
(-0.00679926 0.0253934 0.00139206)
(-0.0186503 -0.0243058 -0.000163869)
(-0.00988272 -0.0169595 0.000336146)
(-0.000526225 0.00480478 0.000230847)
(0.000359397 6.76001e-05 -2.96624e-07)
(0.00080274 -2.91525e-05 -1.90688e-06)
(0.000799269 -1.8091e-05 1.38038e-07)
(0.000805327 -1.35677e-05 1.19047e-07)
(0.000805677 -8.74632e-06 7.21025e-08)
(0.000804819 -5.6904e-06 5.81538e-08)
(0.000803555 -3.64689e-06 5.36712e-08)
(0.000802097 -2.42122e-06 4.97618e-08)
(0.000800568 -1.54038e-06 5.1438e-08)
(0.000799071 -1.01292e-06 1.85538e-07)
(0.000797617 -6.12201e-07 4.97851e-08)
(0.000795996 -3.86149e-07 5.80464e-08)
(0.00079437 -1.30534e-07 1.16601e-07)
(0.000792791 -7.51476e-08 2.55318e-08)
(0.000791267 6.30237e-08 8.39152e-08)
(0.000789768 2.78684e-08 5.68811e-08)
(0.000788229 2.00274e-07 1.09992e-07)
(0.000787014 2.49281e-07 2.06913e-07)
(0.000785681 1.47445e-07 -4.30523e-08)
(0.000783885 -5.46586e-08 3.05506e-08)
(0.000782274 -1.02632e-07 3.70444e-08)
(0.000780969 -1.72153e-07 4.47559e-08)
(0.000779244 -4.60763e-07 7.00223e-08)
(0.00077753 -3.1721e-07 6.56201e-08)
(0.000776369 -2.64358e-07 -1.28464e-07)
(0.000775054 -9.32594e-08 2.36326e-08)
(0.000773884 4.57675e-07 1.31305e-07)
(0.000772744 4.80949e-07 1.22868e-07)
(0.00077103 1.41281e-07 4.72285e-08)
(0.000769504 1.14759e-07 3.83402e-08)
(0.000768244 1.25042e-07 4.26826e-08)
(0.000766933 3.03145e-07 4.95536e-09)
(0.000765104 5.69473e-07 7.60234e-08)
(0.000763371 2.25882e-07 2.3175e-08)
(0.000762116 1.70716e-08 5.0553e-08)
(0.000760426 -9.65966e-08 8.25967e-08)
(0.000759053 -2.59736e-07 7.88812e-08)
(0.000758427 -6.39508e-07 9.16162e-08)
(0.000757198 -1.42597e-07 5.78107e-08)
(0.000755466 -8.28629e-08 6.47581e-08)
(0.000754173 1.50732e-07 5.18577e-08)
(0.000752875 -2.06334e-08 4.94071e-08)
(0.000751283 -1.81797e-07 -8.37094e-08)
(0.00075012 -1.77936e-07 1.06425e-07)
(0.01003 -0.00558642 -0.000594355)
(-0.00534614 -0.00504189 0.00555868)
(0.0573692 -0.0221549 0.00261468)
(-0.029396 0.0093891 -0.00272524)
(-0.00173381 0.00738986 -0.00158101)
(0.00627951 0.00168992 0.000248821)
(0.000468828 -0.000197279 3.78828e-05)
(0.000850292 -7.89163e-05 -2.68726e-06)
(0.000825574 -1.34798e-05 -8.87486e-08)
(0.000816567 -1.54363e-05 -6.1446e-09)
(0.000812815 -8.04148e-06 4.72956e-08)
(0.000808781 -5.23597e-06 4.16995e-08)
(0.000806025 -3.22615e-06 4.87512e-08)
(0.000803622 -2.05122e-06 5.10718e-08)
(0.000801524 -1.32561e-06 5.18078e-08)
(0.000799688 -8.61001e-07 5.54357e-08)
(0.000797977 -6.30751e-07 5.26682e-08)
(0.000796404 -5.71222e-07 1.48088e-08)
(0.000794543 -5.53653e-07 7.95236e-08)
(0.000792834 -3.01242e-07 4.4254e-08)
(0.000791408 -1.67849e-07 2.22425e-07)
(0.000790015 -3.15284e-08 5.06534e-08)
(0.000788571 7.01429e-08 5.17789e-08)
(0.000786792 1.05698e-07 7.2013e-08)
(0.000785062 -1.47568e-07 6.26651e-08)
(0.000783585 -1.26245e-07 3.22902e-08)
(0.000782249 -1.06083e-07 7.3399e-08)
(0.000780616 -6.68645e-08 6.04141e-08)
(0.000779308 -1.03777e-07 -1.11806e-09)
(0.000778267 4.02564e-07 2.10387e-08)
(0.000776766 4.61116e-07 2.15556e-07)
(0.00077571 4.78333e-07 6.84558e-08)
(0.000774195 4.33817e-07 -1.13604e-08)
(0.000771999 2.50552e-07 -2.37131e-08)
(0.000770642 1.39603e-08 8.5348e-08)
(0.00076946 1.07732e-07 5.30033e-08)
(0.000768057 1.92089e-08 6.13637e-08)
(0.000766637 -6.6488e-08 5.32773e-08)
(0.000765108 -1.85775e-07 2.5282e-08)
(0.000763486 -7.23066e-08 6.68605e-08)
(0.000762041 -1.37638e-08 7.22589e-08)
(0.000760688 7.62415e-08 4.73585e-08)
(0.000759381 4.68675e-07 1.59325e-07)
(0.000758449 5.58919e-07 1.24223e-07)
(0.00075724 2.87987e-07 8.57034e-08)
(0.000755749 2.96549e-07 4.01473e-08)
(0.000754131 4.24285e-07 1.18058e-08)
(0.000752412 4.17775e-07 8.34352e-08)
(0.000751041 1.28869e-07 7.41245e-08)
(0.000750127 9.24204e-08 1.11926e-07)
(-0.0182233 0.000391969 0.0013911)
(-0.0118318 0.00206183 -0.00382016)
(0.0187572 0.0147342 -0.00235577)
(-0.00472462 0.00646117 -0.000423279)
(0.00909532 0.0288589 0.00382081)
(-0.00907112 -0.00304127 -0.000506961)
(0.00170992 4.22754e-05 -5.78747e-06)
(0.000491955 -3.41977e-05 -1.39939e-06)
(0.000890364 8.77347e-07 -1.39524e-06)
(0.000812334 -6.82217e-06 -4.61855e-07)
(0.000818569 -3.10867e-06 1.5659e-07)
(0.000810921 -2.18625e-06 -2.26315e-08)
(0.000807587 -1.40657e-06 5.57048e-08)
(0.000804505 -8.78624e-07 5.03414e-08)
(0.000802076 -5.2471e-07 4.98576e-08)
(0.000799952 -3.35078e-07 4.88628e-08)
(0.000797988 -2.95895e-07 4.92314e-08)
(0.000796099 -2.86217e-07 6.28621e-08)
(0.000794713 -3.37616e-07 4.00351e-08)
(0.000793277 -1.90184e-07 2.71349e-08)
(0.000791607 -2.12967e-07 -5.38798e-08)
(0.000790067 -2.08481e-07 4.91728e-08)
(0.0007884 -3.37143e-07 9.15421e-09)
(0.000786743 -2.70499e-07 6.64123e-08)
(0.000785391 -1.61436e-07 1.0373e-07)
(0.000783938 5.37686e-08 4.23126e-08)
(0.000782349 2.24269e-07 6.10537e-08)
(0.000780972 3.54515e-07 5.93691e-08)
(0.000779829 7.1046e-07 3.65078e-08)
(0.000778232 5.33868e-07 3.89477e-08)
(0.000776458 3.3032e-07 6.3784e-08)
(0.000775015 4.47911e-07 7.35848e-09)
(0.000773595 -9.02031e-08 4.44309e-08)
(0.000772217 -9.80357e-08 4.75585e-08)
(0.00077085 7.40232e-08 5.7098e-08)
(0.00076951 1.55103e-08 4.5786e-08)
(0.000768026 -1.79802e-08 5.88419e-08)
(0.000766677 -1.22719e-07 3.76184e-08)
(0.000765097 -2.50667e-07 1.43589e-08)
(0.000763586 -1.93331e-07 3.89294e-08)
(0.000762301 6.50324e-09 5.22207e-08)
(0.000761027 1.32451e-07 6.27391e-08)
(0.000759653 2.82443e-07 2.19551e-07)
(0.000758196 4.74385e-07 -8.93938e-08)
(0.000756866 1.58319e-07 4.9845e-08)
(0.000755633 1.08931e-07 5.93128e-08)
(0.000754321 7.93472e-08 6.90882e-08)
(0.000752504 3.84643e-07 4.93588e-08)
(0.000750873 2.5733e-07 4.92878e-08)
(0.000749843 2.48259e-07 1.72466e-07)
(0.0377769 -0.00374217 -0.00341836)
(-0.00883898 -0.0134764 0.000746777)
(0.0043217 0.00789349 0.000406963)
(-0.00820126 -0.012527 0.0086786)
(0.00801702 -0.00774674 0.00113405)
(-0.0140839 0.000386123 -0.000758249)
(0.00118576 0.000614015 0.000130088)
(0.00045582 8.31489e-06 -1.31536e-06)
(0.000888688 5.06495e-06 -1.33872e-06)
(0.00081155 3.41822e-06 -4.16257e-07)
(0.000818662 2.28304e-06 1.71824e-07)
(0.000810939 1.35003e-06 2.22707e-07)
(0.000807679 9.05444e-07 2.7623e-07)
(0.000804737 5.40867e-07 5.15332e-08)
(0.00080221 3.11857e-07 4.39807e-08)
(0.000799978 2.00287e-07 2.97343e-08)
(0.000798041 1.59181e-07 5.01278e-08)
(0.000796354 1.65668e-07 5.21415e-08)
(0.000794666 2.12624e-07 5.02024e-08)
(0.000792992 2.75867e-08 9.38747e-08)
(0.000791388 -1.35624e-07 6.32279e-08)
(0.000789862 3.41569e-08 3.78971e-08)
(0.000788496 -1.69882e-08 6.76843e-08)
(0.000787015 4.40151e-08 9.69097e-08)
(0.000785469 1.34901e-07 9.45393e-08)
(0.000784067 -1.15064e-07 7.58104e-08)
(0.000782623 1.58422e-07 6.82649e-08)
(0.000781219 2.96076e-07 4.86733e-08)
(0.000779526 3.88627e-07 1.91352e-08)
(0.000777784 2.20244e-07 2.71675e-08)
(0.000776652 7.9459e-08 1.09445e-08)
(0.00077518 -1.60349e-07 1.81885e-08)
(0.000773509 1.13124e-07 3.17222e-07)
(0.000772203 6.96615e-08 4.96222e-08)
(0.000770783 7.65385e-08 5.34986e-08)
(0.000769345 -6.75786e-08 4.64849e-08)
(0.000767885 -1.43828e-07 -1.21221e-07)
(0.000766348 -1.2466e-07 6.07039e-08)
(0.000765022 -1.8923e-07 4.49508e-08)
(0.000763809 -1.22886e-07 -9.05355e-08)
(0.000762448 4.01868e-08 7.23695e-08)
(0.000761031 1.14819e-07 3.97026e-07)
(0.000759805 7.42938e-08 8.62235e-09)
(0.00075829 9.50591e-08 5.34896e-08)
(0.000756781 -3.79791e-08 8.45888e-08)
(0.000755649 -1.82365e-07 4.83933e-08)
(0.000754474 -4.85003e-07 4.69806e-09)
(0.000752632 -8.57746e-07 1.13097e-08)
(0.000750864 -2.79846e-07 5.99577e-08)
(0.000749497 5.6523e-08 5.29564e-08)
(-0.00310282 -0.00468733 0.000198946)
(0.00817541 -0.0119672 -0.000507738)
(-0.00160213 0.00365393 0.000517281)
(0.0221036 0.00980449 -7.3498e-06)
(-0.0181447 -0.00167295 -0.000427854)
(-0.000987727 -0.00163666 -0.000213586)
(0.000923754 4.63209e-05 0.000112591)
(0.000455355 8.44515e-06 -1.85181e-06)
(0.000883453 1.71622e-05 -1.51638e-06)
(0.000808856 1.20965e-05 -5.16407e-07)
(0.00081593 7.31264e-06 1.60605e-07)
(0.000809165 4.58957e-06 4.35872e-08)
(0.000806557 2.92715e-06 8.59423e-08)
(0.000803751 1.80882e-06 5.19304e-08)
(0.000801644 1.10494e-06 1.27943e-07)
(0.000799758 6.92194e-07 1.0679e-07)
(0.000797943 4.41749e-07 5.12493e-08)
(0.000796164 2.54399e-07 5.1769e-08)
(0.000794539 7.64361e-08 2.22482e-08)
(0.000792841 1.85335e-07 4.30228e-08)
(0.000791614 3.75708e-07 -1.45757e-07)
(0.000790215 2.54795e-07 9.31704e-08)
(0.000788412 2.2527e-07 5.65389e-08)
(0.000786932 1.46767e-07 1.74192e-08)
(0.000785192 1.56058e-07 6.00792e-08)
(0.000783967 2.39516e-07 -3.13251e-08)
(0.000782862 7.89244e-09 3.92102e-08)
(0.000781257 -1.03313e-07 -9.07521e-09)
(0.000779731 -3.74652e-08 2.84902e-08)
(0.000777844 -3.38678e-07 -7.36673e-08)
(0.000775982 -2.62855e-07 2.72744e-08)
(0.000775055 -2.27548e-07 1.99172e-07)
(0.000773882 -1.85562e-07 1.21991e-08)
(0.00077217 -1.10227e-07 -2.61645e-07)
(0.000770678 -1.4715e-07 3.54262e-08)
(0.000769235 -5.95047e-08 4.35411e-08)
(0.000767956 -7.00625e-08 6.60896e-08)
(0.000766622 3.60175e-08 4.73735e-08)
(0.000765101 1.75229e-07 6.11303e-08)
(0.000763874 1.74054e-07 5.97541e-08)
(0.000762598 2.04258e-07 3.15497e-08)
(0.000761069 3.93884e-07 2.57432e-07)
(0.000759628 2.46687e-07 3.84259e-08)
(0.000758057 3.36542e-08 5.34695e-08)
(0.00075652 -3.99442e-08 4.28916e-08)
(0.000755077 -1.9855e-07 4.54665e-08)
(0.000753481 -5.33311e-07 -6.77452e-08)
(0.000752764 -7.85671e-07 7.5115e-08)
(0.000752017 -5.13361e-07 2.67497e-07)
(0.000750123 -3.22814e-07 1.2641e-07)
(-0.00201635 0.00123638 0.000224671)
(-5.46611e-05 9.71192e-05 -0.00034283)
(0.00273451 0.00248485 0.000735084)
(0.00490979 -0.00664192 -0.000292024)
(-0.00578372 0.000426777 0.00119265)
(-0.00279659 -0.0104185 -0.00114781)
(0.00165607 -0.000226893 0.000196257)
(0.000479092 3.34261e-05 -1.6639e-07)
(0.00085894 1.52817e-05 -1.41815e-06)
(0.000798854 1.66965e-05 -4.17392e-07)
(0.000809151 9.15192e-06 1.52431e-07)
(0.000805378 6.09671e-06 3.74179e-08)
(0.000804154 3.76131e-06 5.52214e-08)
(0.000802429 2.41395e-06 5.2121e-08)
(0.000800796 1.58798e-06 5.30763e-08)
(0.000799139 1.02991e-06 5.15358e-08)
(0.000797487 6.39832e-07 5.18282e-08)
(0.000795893 4.28796e-07 6.80963e-08)
(0.000794576 3.62165e-07 5.29555e-08)
(0.000793363 2.89175e-07 6.16464e-08)
(0.000791471 4.29654e-07 7.16216e-08)
(0.000789671 1.44796e-07 4.65138e-08)
(0.000788359 2.00194e-07 4.98788e-08)
(0.000786926 8.03026e-08 5.06823e-08)
(0.000785584 1.04582e-07 1.469e-08)
(0.00078388 2.00479e-07 9.70473e-08)
(0.000782194 -9.56297e-08 5.58497e-08)
(0.000781163 -3.39412e-07 4.44398e-08)
(0.000779234 -8.26889e-07 -5.53513e-08)
(0.000777506 -7.89129e-07 3.97606e-08)
(0.000776795 -4.1209e-07 2.64463e-08)
(0.000775281 -6.9157e-09 1.48282e-07)
(0.000773659 -2.05347e-08 3.85146e-08)
(0.000772254 -1.11898e-07 3.98703e-08)
(0.000770848 -8.82999e-08 6.34436e-08)
(0.000769442 -2.4348e-08 7.08485e-08)
(0.000768005 -9.57558e-09 4.81889e-08)
(0.000766654 2.388e-09 4.24157e-08)
(0.000765194 7.18599e-08 9.21682e-08)
(0.000763844 2.66546e-07 -5.29572e-08)
(0.000762721 4.30993e-08 4.05656e-08)
(0.000761082 -1.73311e-07 -3.06031e-08)
(0.000759354 -1.25818e-07 6.34633e-08)
(0.000757931 -2.30487e-07 5.54821e-08)
(0.000756492 -7.33224e-08 1.65655e-08)
(0.000755035 -2.47954e-09 5.01101e-08)
(0.000753745 -1.18972e-08 1.05273e-07)
(0.000752663 1.79862e-07 3.68051e-08)
(0.000751452 -2.66973e-07 6.47751e-09)
(0.000750542 -3.17071e-07 -1.17215e-08)
(-0.000312517 -6.94273e-06 1.8832e-05)
(0.00227145 0.00697414 0.000328123)
(0.00417863 0.00296252 0.000257426)
(0.000231887 -0.010199 0.00024398)
(0.00737878 0.00362039 -0.0012808)
(-0.0411219 0.00754641 -0.000486907)
(0.000714224 0.000183949 4.62112e-06)
(0.000808851 6.17448e-05 -2.69793e-06)
(0.000800608 1.25568e-05 -2.25026e-08)
(0.000800989 1.44621e-05 1.06649e-09)
(0.000802537 7.8784e-06 4.47163e-08)
(0.000802339 5.20386e-06 4.38867e-08)
(0.000801896 3.25478e-06 5.09715e-08)
(0.000800998 2.06971e-06 4.98759e-08)
(0.00079989 1.33089e-06 4.95989e-08)
(0.000798557 9.01344e-07 5.07747e-08)
(0.000797181 6.51203e-07 1.58566e-07)
(0.00079581 5.78322e-07 1.44373e-07)
(0.00079436 5.20799e-07 8.74268e-08)
(0.000792921 2.60221e-07 7.43516e-08)
(0.000791431 -4.7211e-08 4.78105e-08)
(0.000789926 8.76369e-08 5.59621e-08)
(0.000788331 -6.34903e-08 3.10305e-08)
(0.000786811 -4.39189e-08 4.811e-08)
(0.000785341 -2.19201e-07 6.24688e-08)
(0.000783716 -3.10667e-07 4.8774e-08)
(0.000782187 -1.16144e-07 -1.04924e-07)
(0.000780347 -1.27129e-07 1.60542e-07)
(0.000779175 -3.2385e-07 1.5913e-07)
(0.000778368 2.44306e-07 6.11941e-08)
(0.000776964 3.58998e-07 9.18857e-08)
(0.000775547 3.28476e-08 1.47067e-07)
(0.000773752 -2.96311e-09 4.30783e-08)
(0.000772086 9.92802e-08 4.6736e-08)
(0.000770789 5.04929e-08 4.418e-08)
(0.000769334 -1.22668e-07 6.81893e-08)
(0.00076799 -3.23652e-07 6.00583e-08)
(0.000766724 -1.2205e-07 6.37802e-08)
(0.00076543 1.30437e-09 4.26514e-08)
(0.000763837 2.39884e-08 8.52998e-08)
(0.000762048 -5.37859e-08 2.282e-08)
(0.000760859 -8.79264e-08 6.61918e-08)
(0.000759558 8.94906e-09 5.68661e-08)
(0.000758124 -6.2538e-08 4.52024e-08)
(0.000756807 -4.99454e-08 3.86961e-08)
(0.000755155 1.04741e-07 4.58439e-08)
(0.00075371 4.74975e-07 4.14097e-08)
(0.000752447 3.47185e-07 5.21984e-08)
(0.000751405 2.60114e-07 7.24871e-08)
(0.000750851 -5.6709e-08 5.08411e-08)
(-1.4072e-05 0.00101517 4.80894e-05)
(0.00455351 -0.0025801 0.000184618)
(-0.00115503 -0.00410992 -0.000656282)
(0.0159143 -0.0107326 -0.000364594)
(0.00821644 -0.00662245 0.000128057)
(0.00967966 0.00395214 0.000886443)
(0.000347827 4.01544e-05 2.64686e-05)
(0.000766381 2.45311e-05 -2.60681e-06)
(0.000784231 1.13762e-05 2.11972e-07)
(0.000792779 7.19429e-06 6.22636e-08)
(0.000797457 3.97909e-06 6.25928e-08)
(0.000799525 2.48725e-06 5.35902e-08)
(0.000800189 1.48934e-06 5.24303e-08)
(0.000799994 8.4818e-07 5.32203e-08)
(0.000799317 5.38858e-07 5.28379e-08)
(0.000798276 3.42725e-07 1.0809e-07)
(0.000797075 2.98696e-07 5.67728e-08)
(0.000795724 2.13271e-07 7.80599e-09)
(0.000794174 1.98549e-07 -1.91989e-08)
(0.000792651 1.86006e-07 9.29666e-08)
(0.000791255 9.30313e-08 4.89942e-08)
(0.000789651 -1.03816e-07 -3.11154e-08)
(0.000788195 -1.83816e-07 5.82492e-08)
(0.000786734 -1.81245e-07 5.28952e-08)
(0.000785253 -2.53024e-07 4.16852e-08)
(0.000784012 -2.5525e-07 6.08354e-08)
(0.000782426 -1.12706e-07 2.19264e-08)
(0.000780906 1.53821e-08 4.72153e-08)
(0.000779699 3.37618e-07 1.01593e-07)
(0.000778358 3.61829e-07 -2.3443e-08)
(0.000776529 3.33538e-07 3.35754e-09)
(0.000774826 1.94265e-07 9.75402e-08)
(0.000773742 -1.84256e-07 -3.16398e-07)
(0.00077232 -1.55975e-07 6.18627e-08)
(0.000770571 -6.434e-08 2.64316e-08)
(0.000768976 5.62958e-08 5.98068e-08)
(0.000768007 3.5534e-07 7.58185e-08)
(0.000767061 3.67602e-08 4.67903e-08)
(0.000765377 -1.76196e-07 8.36472e-08)
(0.000763775 -2.53781e-07 3.99886e-08)
(0.000762582 -1.40425e-07 5.95722e-08)
(0.000761162 -7.33124e-08 9.41178e-09)
(0.000759386 1.65207e-07 5.40199e-08)
(0.000757858 1.61791e-07 3.99837e-08)
(0.000756702 1.97184e-07 7.13408e-08)
(0.00075569 1.16267e-07 9.73766e-09)
(0.000754045 2.66654e-07 1.7023e-08)
(0.000752391 4.54038e-07 3.67678e-08)
(0.000750947 7.4696e-07 -7.43971e-08)
(0.000750283 5.07407e-07 8.83588e-08)
(-0.000971919 -0.00377778 2.89542e-05)
(0.0103282 -0.00143154 -2.12775e-05)
(-0.00657697 0.000885591 0.000844856)
(-0.00246713 -0.00166607 -0.000421466)
(-0.00181824 6.64923e-05 -3.06798e-05)
(0.0198429 0.00500613 0.000236893)
(0.000378438 -5.50816e-05 2.50057e-07)
(0.000770901 -2.31545e-05 -1.88027e-06)
(0.000779096 -1.27751e-05 1.91697e-08)
(0.000791638 -6.16845e-06 1.14288e-07)
(0.000796591 -3.33598e-06 1.07841e-07)
(0.000799191 -1.91674e-06 7.81004e-08)
(0.000799825 -1.12846e-06 6.37079e-08)
(0.000799797 -5.78678e-07 4.02537e-08)
(0.000799251 -3.70733e-07 5.07391e-08)
(0.000798252 -2.45542e-07 7.58968e-08)
(0.000797015 -1.84855e-07 4.91229e-08)
(0.000795682 -1.60356e-07 5.20737e-08)
(0.000794323 -1.29085e-07 6.27791e-10)
(0.000792787 -1.80224e-07 5.15056e-08)
(0.000791068 -1.78554e-07 1.18643e-07)
(0.000789581 -1.61819e-07 8.81184e-08)
(0.000788236 -2.4911e-08 4.98309e-08)
(0.000786727 -8.16297e-08 4.75798e-08)
(0.000785252 7.71349e-08 6.36472e-08)
(0.000783894 7.20413e-08 -4.27788e-08)
(0.000782528 -1.33848e-08 6.5097e-08)
(0.00078091 4.80783e-08 4.66316e-08)
(0.000779606 1.11618e-07 4.59881e-08)
(0.000778361 -1.22286e-07 4.91269e-08)
(0.000776751 -1.62106e-07 1.31466e-07)
(0.000774899 -1.59951e-07 1.14298e-09)
(0.000773315 -1.78946e-07 -5.21493e-08)
(0.000772238 -3.71966e-07 3.79565e-08)
(0.000771055 -1.18647e-07 4.85336e-08)
(0.000769858 5.19035e-08 6.36117e-08)
(0.000767965 2.86653e-07 1.37889e-08)
(0.00076606 -9.43944e-08 4.76505e-08)
(0.000765069 -4.95339e-07 5.54052e-08)
(0.000763884 -2.30593e-07 5.95851e-08)
(0.000762276 -1.74047e-07 5.72372e-08)
(0.000761242 -3.41813e-07 9.15319e-08)
(0.000759852 -2.78344e-07 3.01889e-08)
(0.000758163 1.94006e-07 1.22232e-08)
(0.000756748 7.41671e-08 1.66457e-08)
(0.000755239 6.77414e-08 3.99133e-08)
(0.000754128 -1.71743e-07 3.64378e-08)
(0.000753042 7.44769e-08 3.08333e-08)
(0.000751456 1.77714e-07 -1.68345e-08)
(0.000749288 3.09201e-07 6.32958e-08)
(-0.00628613 -0.00255634 0.00119642)
(-0.00625555 0.00425408 -1.18791e-05)
(-0.00248749 -0.01001 -0.000525725)
(-0.000855014 -0.0049792 -0.00155474)
(-0.0146347 -0.103763 -0.00106636)
(-0.0085701 -0.0226103 0.00378225)
(0.00155266 -0.000132013 4.655e-05)
(0.00137542 -5.24263e-05 3.67265e-07)
(0.00133746 -3.37875e-05 3.335e-07)
(0.00133845 -2.18065e-05 3.503e-07)
(0.00133639 -1.35034e-05 3.83047e-07)
(0.00133615 -8.62374e-06 2.79357e-07)
(0.00133592 -5.40149e-06 2.68091e-07)
(0.00133458 -3.18383e-06 2.79493e-07)
(0.00133259 -2.02929e-06 3.33603e-07)
(0.00133065 -1.31526e-06 2.99578e-07)
(0.00132851 -8.59801e-07 3.35162e-07)
(0.00132626 -4.47573e-07 3.67243e-07)
(0.00132346 -4.59804e-07 3.84452e-07)
(0.00132087 -4.25142e-07 5.0094e-07)
(0.00131876 -3.73199e-07 4.48167e-07)
(0.00131634 4.04865e-09 3.71515e-07)
(0.00131376 -3.64398e-08 2.59617e-07)
(0.00131138 -3.70411e-09 2.86476e-07)
(0.00130903 3.56957e-07 2.16908e-07)
(0.00130648 5.79045e-07 3.16901e-07)
(0.00130399 3.17155e-07 3.05275e-07)
(0.00130184 1.55055e-07 3.29927e-07)
(0.00129909 3.10302e-07 4.1059e-07)
(0.00129651 -4.04895e-07 3.0927e-07)
(0.00129402 -8.97233e-07 3.5842e-07)
(0.0012912 -8.79162e-07 1.19563e-07)
(0.00128901 -5.63778e-07 3.32325e-07)
(0.0012873 -4.89767e-08 3.62186e-07)
(0.00128512 1.61422e-07 3.16057e-07)
(0.00128238 -4.76384e-08 3.20252e-07)
(0.00127959 -2.82496e-07 3.03938e-07)
(0.00127669 2.84627e-07 3.2177e-07)
(0.00127514 8.39877e-07 2.95903e-07)
(0.00127344 3.87474e-07 3.90103e-07)
(0.00127061 1.45636e-07 2.8058e-07)
(0.00126819 9.08329e-08 3.43151e-07)
(0.00126657 -8.9916e-07 3.60151e-07)
(0.00126368 -8.84289e-07 2.10486e-07)
(0.0012608 -5.87666e-07 3.0181e-07)
(0.00125879 -3.81875e-07 2.73273e-07)
(0.0012565 -3.11761e-07 2.90112e-07)
(0.0012545 -3.69718e-07 3.07691e-07)
(0.0012518 -5.56187e-07 3.37068e-07)
(0.00124914 -5.44483e-07 2.01089e-07)
(0.00102142 -0.0290289 0.000485573)
(0.0219119 0.00322706 0.00165265)
(-0.0442396 -0.0617691 -0.00120575)
(-0.0162056 -0.0042657 -0.0274133)
(0.0240757 -0.0213927 0.000189325)
(-0.0300688 0.0180672 0.000246521)
(0.00110706 0.000178098 -3.9904e-05)
(0.00134039 -5.66381e-05 2.85435e-07)
(0.00133227 -3.48502e-05 3.38486e-07)
(0.00134191 -2.54602e-05 3.36262e-07)
(0.00134246 -1.63186e-05 3.36227e-07)
(0.00134108 -1.05235e-05 3.35285e-07)
(0.00133906 -6.7118e-06 3.3505e-07)
(0.00133668 -4.48286e-06 3.33333e-07)
(0.00133416 -2.84496e-06 3.36478e-07)
(0.00133169 -1.86999e-06 8.53877e-07)
(0.00132926 -1.15106e-06 3.34701e-07)
(0.00132655 -7.74024e-07 3.88945e-07)
(0.00132388 -3.39905e-07 3.65995e-07)
(0.0013213 -1.55271e-07 3.00459e-07)
(0.00131881 1.26564e-07 3.45358e-07)
(0.00131629 5.50385e-08 3.66833e-07)
(0.00131368 3.83524e-07 8.55404e-07)
(0.00131167 4.72787e-07 8.10097e-07)
(0.00130941 3.37264e-07 3.97884e-08)
(0.00130639 -2.25991e-08 3.21122e-07)
(0.0013037 -1.14795e-07 2.91602e-07)
(0.0013015 -3.02941e-07 3.24356e-07)
(0.00129864 -9.02165e-07 2.9167e-07)
(0.00129576 -5.88562e-07 3.33447e-07)
(0.00129389 -4.77907e-07 4.83062e-08)
(0.00129178 -1.94928e-07 2.77564e-07)
(0.00128979 8.08965e-07 4.89711e-07)
(0.00128782 8.76087e-07 4.39585e-07)
(0.00128496 2.84065e-07 3.28137e-07)
(0.00128238 2.17391e-07 3.07259e-07)
(0.00128024 2.43935e-07 3.08868e-07)
(0.00127806 5.27764e-07 5.95733e-08)
(0.00127504 9.72702e-07 4.04852e-07)
(0.00127213 4.67602e-07 3.00755e-07)
(0.00126998 5.03864e-08 3.25291e-07)
(0.00126721 -1.89617e-07 3.90896e-07)
(0.00126496 -4.63553e-07 3.03038e-07)
(0.00126384 -1.03938e-06 3.84535e-07)
(0.00126175 -2.64409e-07 3.44211e-07)
(0.00125894 -2.17143e-07 3.28789e-07)
(0.00125677 2.13731e-07 2.92493e-07)
(0.00125453 -5.68241e-08 2.96848e-07)
(0.0012519 -3.38503e-07 7.21533e-08)
(0.00124997 -3.17102e-07 3.96381e-07)
(-0.000836831 -0.00959316 -0.000181951)
(-0.00936477 -0.0234895 -0.0382613)
(0.0375411 -0.00377393 0.00856041)
(0.0063818 0.00115782 -0.0264904)
(0.0209323 0.00173319 -0.00427005)
(-0.0252951 0.00234052 -0.00521766)
(0.00112765 -0.000546402 6.69146e-05)
(0.00142082 -0.000137655 2.99768e-07)
(0.00137801 -2.61026e-05 5.32394e-07)
(0.00136206 -2.79361e-05 3.42071e-07)
(0.00135535 -1.48292e-05 3.39493e-07)
(0.00134834 -9.60924e-06 3.36899e-07)
(0.00134359 -5.93677e-06 3.35473e-07)
(0.00133948 -3.76986e-06 3.35164e-07)
(0.00133591 -2.41858e-06 3.34242e-07)
(0.00133279 -1.56374e-06 3.34454e-07)
(0.0013299 -1.13098e-06 3.33498e-07)
(0.00132729 -9.85973e-07 1.79353e-07)
(0.00132424 -9.36849e-07 3.59081e-07)
(0.00132145 -5.14381e-07 3.22205e-07)
(0.00131903 -3.01551e-07 5.17569e-07)
(0.00131666 -9.27419e-08 3.31925e-07)
(0.00131428 8.70774e-08 3.21685e-07)
(0.00131132 1.64962e-07 2.73003e-07)
(0.00130841 -2.73799e-07 3.15306e-07)
(0.00130591 -1.82463e-07 3.07675e-07)
(0.00130364 -1.43961e-07 3.06499e-07)
(0.00130086 -6.05774e-08 3.158e-07)
(0.00129874 -1.19161e-07 2.16317e-07)
(0.00129704 7.47343e-07 2.36337e-07)
(0.00129452 9.06887e-07 4.91896e-07)
(0.00129281 8.76257e-07 4.69947e-07)
(0.00129034 7.22568e-07 1.99129e-07)
(0.00128664 4.1931e-07 1.27999e-07)
(0.0012843 2.16626e-08 3.59433e-07)
(0.00128233 1.54185e-07 3.31716e-07)
(0.00127997 5.18271e-08 2.83795e-07)
(0.00127759 -7.30186e-08 3.47947e-07)
(0.00127506 -2.55228e-07 3.01548e-07)
(0.00127228 -9.81487e-08 3.454e-07)
(0.00126978 -2.36097e-08 3.60907e-07)
(0.00126755 1.37989e-07 3.30312e-07)
(0.00126551 8.42681e-07 6.10186e-07)
(0.00126394 9.28056e-07 3.31757e-07)
(0.00126184 5.47877e-07 3.39102e-07)
(0.00125939 5.29113e-07 3.28643e-07)
(0.00125671 6.85286e-07 3.07153e-07)
(0.00125381 6.56069e-07 3.22227e-07)
(0.00125148 2.13237e-07 3.59356e-07)
(0.00124996 1.50657e-07 4.87011e-07)
(0.0256603 -0.0087259 -0.0314911)
(0.0286696 0.0291272 0.0258983)
(-0.024366 0.0098561 -0.0290095)
(-0.000401539 0.0494094 0.00215331)
(-0.00379183 0.00788744 -0.0260209)
(1.19014e-05 -0.00258447 0.00119674)
(0.000923031 0.000295413 -0.000141053)
(0.00147583 -0.000107099 7.92046e-07)
(0.00148866 -3.6343e-07 3.21828e-07)
(0.0013564 -1.23087e-05 3.89124e-07)
(0.00136562 -5.78468e-06 3.42344e-07)
(0.00135235 -3.98576e-06 2.98459e-07)
(0.00134646 -2.60398e-06 3.36653e-07)
(0.00134114 -1.60563e-06 3.35466e-07)
(0.00133695 -9.1823e-07 3.34151e-07)
(0.00133332 -5.6344e-07 3.33148e-07)
(0.00133 -4.86491e-07 3.33591e-07)
(0.0013268 -4.30047e-07 3.82648e-07)
(0.00132448 -5.3227e-07 3.24438e-07)
(0.0013221 -3.37667e-07 2.962e-07)
(0.00131934 -3.96825e-07 1.67797e-07)
(0.00131678 -3.70026e-07 3.28612e-07)
(0.00131401 -5.80403e-07 2.8332e-07)
(0.00131122 -4.61426e-07 3.68907e-07)
(0.00130898 -3.02529e-07 4.87587e-07)
(0.00130655 5.97697e-08 2.63112e-07)
(0.00130385 3.69033e-07 3.90294e-07)
(0.00130153 6.53595e-07 3.76598e-07)
(0.00129964 1.31411e-06 3.42611e-07)
(0.00129704 1.01161e-06 3.00187e-07)
(0.00129405 7.1551e-07 3.51938e-07)
(0.00129154 9.08222e-07 2.86698e-07)
(0.00128921 9.39911e-11 3.167e-07)
(0.00128694 -1.24239e-07 3.17515e-07)
(0.00128462 1.40929e-07 2.78163e-07)
(0.00128242 3.45874e-08 3.06309e-07)
(0.00127995 -4.49088e-08 3.22812e-07)
(0.00127768 -2.06675e-07 2.43226e-07)
(0.00127501 -4.84163e-07 1.92904e-07)
(0.00127242 -4.06649e-07 3.24609e-07)
(0.00127028 9.20386e-09 3.14842e-07)
(0.00126829 3.33852e-07 4.81006e-07)
(0.00126594 5.63438e-07 6.82886e-07)
(0.00126347 8.06728e-07 -3.94884e-08)
(0.00126124 2.69146e-07 3.26576e-07)
(0.0012591 1.79069e-07 3.32528e-07)
(0.00125692 1.08112e-07 3.60998e-07)
(0.00125393 5.63064e-07 2.87055e-07)
(0.00125126 4.1746e-07 3.59114e-07)
(0.00124952 4.16181e-07 5.49517e-07)
(0.0604748 0.054314 0.0120769)
(0.0093413 -0.00406765 -0.00410294)
(0.0208803 0.000504555 0.00148391)
(-0.0186887 0.0113083 0.00599827)
(-0.0122967 -0.0106216 -0.0568765)
(-0.0403846 -0.00103474 -0.00355429)
(0.00080967 -0.000162382 2.8717e-05)
(0.00136621 2.30997e-05 5.5417e-07)
(0.00148545 1.02453e-05 6.79052e-07)
(0.0013552 6.66878e-06 4.21694e-07)
(0.00136584 4.3699e-06 3.63347e-07)
(0.00135237 2.56974e-06 8.08447e-07)
(0.00134659 1.78115e-06 5.23135e-07)
(0.00134161 1.02527e-06 3.36405e-07)
(0.00133722 5.43856e-07 3.42922e-07)
(0.00133334 3.28e-07 3.19818e-07)
(0.00133007 2.69168e-07 3.32686e-07)
(0.00132723 2.66785e-07 3.29502e-07)
(0.00132436 3.66643e-07 3.09144e-07)
(0.00132163 1.05879e-07 3.68505e-07)
(0.00131899 -1.91481e-07 3.60941e-07)
(0.00131643 8.13812e-08 4.27404e-07)
(0.00131417 -9.36282e-09 4.6559e-07)
(0.00131167 6.29355e-08 3.75237e-07)
(0.00130907 2.31397e-07 2.8085e-07)
(0.00130675 -2.38604e-07 3.7826e-07)
(0.00130437 2.33911e-07 3.79577e-07)
(0.00130203 4.65934e-07 3.13571e-07)
(0.00129918 6.60295e-07 2.85815e-07)
(0.00129628 3.93825e-07 2.97336e-07)
(0.00129438 1.82269e-07 -5.30413e-09)
(0.0012919 -2.32479e-07 2.52038e-07)
(0.00128904 2.50306e-07 6.44414e-07)
(0.00128681 1.22419e-07 3.20173e-07)
(0.00128449 1.58331e-07 2.76033e-07)
(0.00128209 -9.82747e-08 3.1442e-07)
(0.00127967 -2.59336e-07 -8.35366e-08)
(0.00127704 -2.52938e-07 2.74147e-07)
(0.00127481 -3.67367e-07 3.15853e-07)
(0.0012729 -2.3974e-07 7.04174e-08)
(0.00127071 8.19236e-08 4.12575e-07)
(0.00126824 2.46964e-07 1.03351e-06)
(0.0012661 9.94419e-08 1.44534e-07)
(0.00126356 1.16588e-07 2.61754e-07)
(0.00126105 -1.60412e-07 5.62894e-07)
(0.00125919 -3.43584e-07 3.14314e-07)
(0.00125718 -8.3201e-07 8.90178e-08)
(0.00125419 -1.37067e-06 2.38474e-07)
(0.00125129 -4.47959e-07 3.62092e-07)
(0.00124892 1.03709e-07 3.44056e-07)
(-0.0048087 -0.0331053 0.0015843)
(-0.0123296 -0.010539 0.000518084)
(-0.0107906 0.013307 -0.000308971)
(0.011649 -0.0202488 0.00207719)
(-0.03188 0.0395186 -0.00887593)
(-0.00874813 -0.0124313 -0.00165129)
(0.00101366 -0.000206647 -0.000101044)
(0.00136247 2.52562e-05 6.12249e-07)
(0.00147332 3.14009e-05 6.11493e-07)
(0.00134903 2.20081e-05 2.66043e-07)
(0.00136039 1.33796e-05 2.98035e-07)
(0.00134905 8.39197e-06 3.44119e-07)
(0.00134449 5.41467e-06 3.87633e-07)
(0.00133957 3.32533e-06 3.35749e-07)
(0.00133607 1.98039e-06 5.0427e-07)
(0.00133297 1.21967e-06 4.27576e-07)
(0.00132992 7.84023e-07 3.3305e-07)
(0.00132692 4.40112e-07 3.32313e-07)
(0.00132427 1.61877e-07 3.02404e-07)
(0.0013214 3.71628e-07 3.36206e-07)
(0.00131931 6.50106e-07 2.72201e-08)
(0.00131701 4.58591e-07 3.42202e-07)