/*--------------------------------*- C++ -*----------------------------------*\
| =========                 |                                                 |
| \\      /  F ield         | OpenFOAM: The Open Source CFD Toolbox           |
|  \\    /   O peration     | Version:  5.0                                   |
|   \\  /    A nd           | Web:      www.OpenFOAM.org                      |
|    \\/     M anipulation  |                                                 |
\*---------------------------------------------------------------------------*/
FoamFile
{
    version     2.0;
    format      ascii;
    class       volVectorField;
    location    "1.6";
    object      U_0;
}
// * * * * * * * * * * * * * * * * * * * * * * * * * * * * * * * * * * * * * //

dimensions      [0 1 -1 0 0 0 0];

internalField   nonuniform List<vector> 
8577
(
(-0.00261247 -0.00164268 -0.000810377)
(-0.00209504 0.00296151 0.000324622)
(-0.00238366 -0.00554984 -0.000460391)
(0.011577 0.0107809 -0.000441222)
(0.0129582 0.00845033 -0.0001459)
(-0.000819978 -0.00431735 -0.000116551)
(0.000482534 -1.96214e-05 6.48169e-07)
(0.000792618 -2.72488e-05 -2.46792e-06)
(0.000780309 -1.50393e-05 -3.49503e-07)
(0.00078974 -8.8484e-06 3.71232e-08)
(0.00079275 -5.07918e-06 6.75134e-08)
(0.000795237 -3.24557e-06 6.17405e-08)
(0.000797073 -2.02544e-06 -5.97349e-09)
(0.000797099 -8.73521e-07 5.8538e-08)
(0.000796101 -6.04283e-07 4.67378e-08)
(0.000795398 -5.53331e-07 3.2252e-07)
(0.00079455 -3.88997e-07 5.31983e-08)
(0.000793499 -3.26944e-07 6.35712e-08)
(0.000791363 -7.94146e-07 4.6698e-08)
(0.000789792 -7.00607e-07 1.02725e-07)
(0.000789038 -4.79474e-07 7.14681e-08)
(0.000787665 -3.70454e-08 6.60504e-08)
(0.000786148 -7.5676e-08 2.3101e-08)
(0.000784494 3.9298e-08 4.49652e-08)
(0.000783122 2.18195e-07 7.83228e-08)
(0.000781768 2.1195e-07 5.5663e-08)
(0.000780218 1.58584e-07 4.21158e-08)
(0.000779026 4.63576e-08 4.71847e-08)
(0.000776999 1.3376e-07 4.91062e-08)
(0.00077499 -2.86071e-07 6.64177e-08)
(0.000773816 -6.68092e-07 -5.75834e-08)
(0.000772118 -5.22101e-07 6.17838e-09)
(0.000770594 -3.35557e-07 8.40719e-08)
(0.000769759 4.69592e-08 6.06113e-09)
(0.000768416 1.07453e-07 4.51239e-08)
(0.000766658 2.81346e-08 5.65841e-08)
(0.000765038 1.08054e-07 4.02905e-08)
(0.00076339 1.62919e-07 1.67425e-08)
(0.000761943 3.91258e-07 1.44518e-08)
(0.000760825 4.52226e-07 6.22157e-08)
(0.000759558 1.10105e-07 2.7088e-08)
(0.000757905 1.44e-08 6.17737e-08)
(0.000756595 -2.10119e-07 9.28335e-08)
(0.000755169 -3.00033e-07 2.32108e-07)
(0.000753639 -1.14301e-07 3.77582e-08)
(0.000752109 6.13802e-09 1.71348e-08)
(0.000750701 -1.22521e-07 5.04552e-08)
(0.00074947 -4.63878e-07 3.93793e-08)
(0.00074784 -3.61158e-07 -2.26422e-09)
(0.000746173 -2.17235e-07 7.3562e-08)
(-0.00286968 -0.000518089 0.000373975)
(0.00244432 -0.0195474 2.71973e-05)
(0.0205954 0.0165069 -0.00349991)
(-0.0188645 -0.0159956 -0.000283366)
(-0.0103426 -0.017726 0.000771502)
(-0.000675359 0.00160329 0.000298186)
(0.000392943 4.75413e-05 -1.22287e-06)
(0.000787956 -4.1563e-05 -1.88342e-06)
(0.000784605 -2.35557e-05 5.49304e-08)
(0.000793658 -1.6506e-05 1.00545e-07)
(0.000796789 -1.03597e-05 6.10939e-08)
(0.000798127 -6.54021e-06 5.48689e-08)
(0.00079846 -4.13244e-06 5.223e-08)
(0.000797993 -2.95938e-06 4.51561e-08)
(0.000797027 -1.83953e-06 4.68745e-08)
(0.000795934 -1.18356e-06 -3.30118e-09)
(0.000794597 -7.49764e-07 3.7857e-08)
(0.000792836 -5.6359e-07 6.30857e-08)
(0.000791897 -4.61383e-07 5.49821e-08)
(0.000790889 1.50482e-08 3.16617e-08)
(0.000789344 1.76368e-07 1.079e-07)
(0.000787767 9.7324e-08 5.78235e-08)
(0.000786047 1.81325e-07 4.29716e-08)
(0.000784797 1.87136e-07 2.39247e-08)
(0.000783209 2.68609e-07 2.8253e-08)
(0.000781484 2.61775e-08 5.72788e-08)
(0.000779964 -9.85587e-08 1.12872e-07)
(0.000778472 -2.62551e-07 4.95829e-08)
(0.000776764 -8.66871e-07 6.97587e-08)
(0.000774947 -4.76671e-07 9.22646e-08)
(0.00077375 -4.14086e-07 1.37747e-07)
(0.000772665 -2.25004e-07 4.66268e-08)
(0.000771453 4.11268e-07 1.91856e-07)
(0.00076989 6.87514e-07 2.7749e-07)
(0.000768043 2.59735e-07 4.86705e-08)
(0.000766561 2.19329e-07 3.74931e-08)
(0.000765215 1.97425e-07 4.35497e-08)
(0.000763794 2.3899e-07 5.34068e-08)
(0.000762214 3.74182e-07 2.04853e-08)
(0.000760516 4.62058e-07 3.97651e-09)
(0.000758985 4.69018e-08 5.69376e-08)
(0.000757577 -2.74703e-07 6.4241e-08)
(0.000756229 -4.98247e-07 3.06591e-08)
(0.00075509 -3.08188e-07 1.4741e-07)
(0.000753743 -1.1533e-07 4.14901e-08)
(0.000752196 -1.39413e-07 5.5477e-08)
(0.000750725 3.74558e-09 6.0674e-08)
(0.000749303 -1.43597e-07 1.39472e-08)
(0.00074781 -2.68716e-07 8.30689e-08)
(0.000746862 -2.18054e-07 2.9506e-08)
(0.0111129 -0.0016461 -0.000735248)
(0.00447329 -0.00757889 1.31265e-05)
(0.00979529 -0.00479797 0.000126208)
(-0.0131265 0.0014028 0.000382697)
(-0.00121882 0.00590697 -0.00128561)
(0.00650634 0.00191334 0.00037765)
(0.000453573 -0.000194644 3.83681e-05)
(0.00083348 -8.8873e-05 -3.0934e-06)
(0.000812635 -2.15582e-05 -1.26074e-08)
(0.000806538 -2.13932e-05 -3.36593e-08)
(0.0008054 -1.21202e-05 4.30692e-08)
(0.000803141 -7.89064e-06 3.77616e-08)
(0.000801624 -4.98751e-06 4.52216e-08)
(0.000800013 -3.17948e-06 4.93779e-08)
(0.000798352 -1.98371e-06 5.01687e-08)
(0.000796779 -1.21235e-06 5.58174e-08)
(0.000795338 -7.95674e-07 5.31803e-08)
(0.000793868 -4.55624e-07 -1.86351e-08)
(0.000792092 -8.59911e-08 1.1332e-07)
(0.000790592 -7.11199e-08 4.1488e-08)
(0.000789141 -1.75524e-08 -1.45737e-09)
(0.000787669 -1.341e-07 4.53365e-08)
(0.000786259 -9.12873e-08 3.32542e-08)
(0.000784601 -1.01793e-07 6.34522e-09)
(0.000782919 -2.28623e-07 5.24312e-08)
(0.000781308 -4.15554e-08 2.79764e-08)
(0.000779858 -1.08331e-07 8.94633e-09)
(0.000778069 -5.36879e-08 5.78646e-08)
(0.000776736 -2.85284e-08 -5.48664e-08)
(0.000775561 4.78204e-07 2.28079e-08)
(0.000774134 7.83946e-07 8.74609e-08)
(0.000773149 7.17299e-07 7.58173e-08)
(0.000771732 4.06619e-07 2.91905e-07)
(0.000769565 1.57508e-07 1.20086e-07)
(0.000767828 4.7643e-08 8.94632e-08)
(0.000766578 1.39519e-07 5.31071e-08)
(0.00076506 1.18242e-07 1.13998e-07)
(0.000763607 8.61688e-08 5.31587e-08)
(0.000762218 1.60423e-07 4.65811e-08)
(0.000760412 5.38632e-08 1.27576e-07)
(0.000758636 2.69151e-08 6.33225e-08)
(0.000757225 1.32503e-10 5.96332e-08)
(0.000756557 4.27823e-07 4.13638e-08)
(0.000755651 1.88218e-07 8.25306e-08)
(0.000753853 4.11834e-08 8.67011e-08)
(0.000752259 4.75891e-08 3.49015e-08)
(0.000750697 1.86021e-07 4.62613e-08)
(0.00074913 9.78427e-08 4.85778e-08)
(0.000747754 1.05198e-07 5.48344e-08)
(0.00074678 6.34861e-08 6.83874e-08)
(-0.0256898 0.00367036 -0.00224562)
(0.00117094 0.0022235 -0.00154344)
(0.0133082 0.0150173 -0.00205439)
(-0.000990797 0.00565307 -0.000151917)
(0.00224674 0.0341371 0.00276723)
(-0.0057562 -0.00524893 -0.000180525)
(0.00173007 5.6586e-05 -5.93897e-06)
(0.000476356 -3.88324e-05 -1.78528e-06)
(0.000880946 -1.22885e-05 -1.21126e-06)
(0.00080571 -1.5601e-05 -4.95084e-07)
(0.000813845 -8.90764e-06 1.74677e-07)
(0.000807147 -5.85443e-06 -3.24488e-07)
(0.000804414 -3.9508e-06 5.55057e-08)
(0.000801788 -2.36819e-06 4.86879e-08)
(0.000799511 -1.25671e-06 4.45942e-08)
(0.000797435 -7.03805e-07 4.39225e-08)
(0.000795553 -5.12145e-07 4.6331e-08)
(0.000793731 -3.71571e-07 1.06494e-07)
(0.000792382 -3.03467e-07 6.71571e-08)
(0.000790978 -2.29112e-07 2.75778e-08)
(0.000789267 -2.4177e-07 9.8697e-08)
(0.000787676 -2.23094e-07 5.11123e-08)
(0.000786088 -2.46955e-07 2.89289e-08)
(0.000784626 -1.61736e-07 7.80128e-08)
(0.000783285 -1.40531e-07 3.89077e-08)
(0.000781636 -3.02074e-10 1.83335e-07)
(0.000779949 1.87723e-07 6.27326e-08)
(0.000778572 3.37633e-07 8.41721e-08)
(0.000777426 8.34234e-07 -4.18577e-09)
(0.000775959 6.88544e-07 2.56663e-08)
(0.000774043 7.88662e-07 2.0123e-08)
(0.000772188 7.56916e-07 3.16962e-09)
(0.000770749 2.23656e-07 4.74627e-08)
(0.00076944 -5.73504e-08 4.97863e-08)
(0.000768019 1.01122e-07 6.77577e-08)
(0.000766649 5.17992e-08 6.94065e-08)
(0.000765148 1.98299e-09 4.02404e-08)
(0.000763846 -5.2391e-08 4.61251e-08)
(0.000762173 -4.04714e-07 -1.35852e-08)
(0.000760349 -3.56906e-07 2.79749e-08)
(0.000758918 3.16625e-08 3.82739e-10)
(0.000758076 4.2953e-07 4.06029e-08)
(0.000756461 5.76593e-07 4.92378e-08)
(0.000754603 2.87096e-07 1.19861e-08)
(0.000753564 -2.17764e-08 4.04735e-08)
(0.000752375 -3.4254e-08 1.3873e-07)
(0.000750785 -1.90047e-10 7.14385e-08)
(0.0007492 9.94382e-08 1.27167e-08)
(0.000747764 2.47471e-07 4.01566e-08)
(0.000746651 2.26156e-07 4.21747e-08)
(0.0339197 -0.00402695 -0.00124462)
(-0.00819555 -0.0136405 0.000597687)
(0.00395718 0.00843398 0.000438864)
(-0.00573263 -0.00627155 0.0114216)
(0.00517134 -0.0200289 0.0106658)
(-0.0131643 -0.00144809 -0.000825903)
(0.00110175 0.000442939 0.000124555)
(0.000431805 -1.20913e-05 -1.67919e-06)
(0.000885022 -1.00634e-05 -1.33629e-06)
(0.000810656 -5.82309e-06 -4.92553e-07)
(0.000817651 -3.40576e-06 1.6615e-07)
(0.000809376 -2.19404e-06 1.67701e-08)
(0.000806007 -9.77685e-07 1.25551e-07)
(0.000803396 -7.87467e-07 5.06676e-08)
(0.000800441 -7.65955e-07 2.23205e-08)
(0.000797715 -5.6494e-07 1.46595e-08)
(0.000795756 -2.61229e-07 4.73554e-08)
(0.000794131 -8.07625e-08 4.70335e-08)
(0.000792272 4.71781e-08 6.00593e-08)
(0.000790671 4.41416e-08 8.99272e-08)
(0.000789151 -1.25056e-07 6.54269e-08)
(0.000787666 1.08954e-07 2.05237e-08)
(0.000786338 7.79165e-08 2.00401e-08)
(0.000784736 1.58525e-07 1.02102e-07)
(0.000783122 1.33518e-07 8.5328e-08)
(0.000781718 -9.11922e-08 3.3917e-08)
(0.000780278 9.14323e-08 6.86609e-08)
(0.000778872 1.2184e-07 2.64768e-08)
(0.000777168 1.79444e-07 -4.22796e-09)
(0.000775496 8.55197e-08 3.2973e-08)
(0.000774212 1.61977e-07 5.2803e-08)
(0.000772438 -2.08301e-07 3.99148e-08)
(0.000770711 1.18129e-07 3.93068e-08)
(0.000769411 5.02043e-08 4.96232e-08)
(0.000767964 1.23962e-07 3.97376e-08)
(0.000766453 -1.63285e-08 4.96077e-08)
(0.00076493 -1.03223e-07 6.46386e-08)
(0.0007631 -1.88374e-07 6.89317e-08)
(0.00076184 -3.00279e-07 1.2338e-07)
(0.00076096 -1.74466e-07 1.00515e-07)
(0.000759619 9.00486e-08 4.34444e-08)
(0.000757903 3.50113e-07 1.44995e-07)
(0.000756374 8.98974e-08 5.86522e-08)
(0.0007549 9.64517e-08 -9.90661e-08)
(0.000753449 4.05571e-08 4.81492e-08)
(0.000752285 -1.27154e-07 4.76585e-08)
(0.000750864 -3.63643e-07 -2.63555e-08)
(0.000749439 -3.48283e-07 -1.95742e-07)
(0.000747905 -2.85847e-07 9.08555e-10)
(0.00074619 9.76729e-08 9.54426e-08)
(-0.00213452 -0.00598994 8.00643e-05)
(0.00824135 -0.012531 -0.000485273)
(-0.000538498 0.00200702 0.000515952)
(0.00819053 -0.000816143 0.000454546)
(-0.014211 -0.000395547 -0.000107615)
(-0.00254675 -0.00283984 -0.000337748)
(0.000800121 0.00010255 0.000118868)
(0.000456567 -2.34878e-05 -1.6989e-06)
(0.000892273 2.62078e-06 -1.56176e-06)
(0.000814001 4.49606e-06 -3.81724e-07)
(0.000818312 3.22669e-06 1.53046e-07)
(0.00081014 2.3024e-06 1.38455e-07)
(0.000806147 1.89072e-06 4.14742e-08)
(0.000802038 1.05986e-06 4.43693e-08)
(0.000799782 3.91506e-07 8.20004e-08)
(0.000798062 1.45161e-07 7.76563e-08)
(0.000796156 1.19009e-07 4.87569e-08)
(0.000794114 -3.33437e-08 3.88209e-08)
(0.000792536 -6.4322e-08 2.2759e-08)
(0.000790761 1.5233e-07 5.47847e-08)
(0.000789347 3.33133e-07 1.64761e-07)
(0.000787929 2.81634e-07 3.63398e-07)
(0.000786149 2.4584e-07 7.61187e-08)
(0.000784695 1.09173e-07 5.32138e-08)
(0.000782973 1.24282e-07 -3.66118e-08)
(0.000781583 1.3374e-07 5.30702e-08)
(0.000780216 -4.03383e-08 4.06331e-08)
(0.00077868 -2.16644e-07 5.95418e-08)
(0.000777379 -2.34158e-07 9.36578e-08)
(0.000775935 -4.25325e-07 6.67424e-08)
(0.000773674 -7.21693e-07 -9.31577e-09)
(0.000772132 -4.82833e-07 -8.64828e-09)
(0.000771072 -3.35347e-07 8.19783e-09)
(0.000769445 -1.88666e-07 5.56162e-08)
(0.000767935 -1.9398e-07 3.14772e-08)
(0.000766365 -5.94901e-08 4.29056e-08)
(0.000764934 -1.0674e-08 4.3077e-08)
(0.000763602 2.02323e-07 3.86211e-08)
(0.000762193 4.07762e-07 9.72392e-08)
(0.000760838 2.7342e-07 7.11767e-08)
(0.000759573 2.35362e-07 4.22866e-08)
(0.000758075 1.23264e-07 -1.40939e-08)
(0.000756143 1.26888e-07 3.24175e-08)
(0.000754542 -2.58939e-08 6.00994e-08)
(0.000753286 -5.4281e-09 5.02693e-08)
(0.000751872 -1.76151e-07 4.52313e-08)
(0.000750513 -5.38445e-07 -3.40974e-07)
(0.0007493 -5.59437e-07 5.84728e-08)
(0.000748323 -4.73238e-07 1.32618e-07)
(0.000746886 -1.73743e-07 1.75838e-07)
(-0.00168391 0.00116165 0.000208957)
(-0.0010415 0.000507838 -0.000252151)
(0.000892637 0.00291494 0.000652567)
(0.00472126 -0.00538141 -0.000526049)
(-0.00538949 -0.000640985 0.00120245)
(-0.00230144 -0.011822 -0.00126075)
(0.00175886 -0.000407974 0.000200025)
(0.000517291 1.33581e-05 2.21764e-07)
(0.000882347 1.10026e-05 -1.66196e-06)
(0.000810972 1.52347e-05 -3.76486e-07)
(0.000814752 8.77151e-06 1.23309e-07)
(0.000807608 6.15718e-06 2.94134e-08)
(0.000804393 3.67519e-06 4.75384e-08)
(0.000801485 2.52558e-06 4.84008e-08)
(0.000799276 1.85801e-06 5.27859e-08)
(0.000797362 1.25297e-06 5.17746e-08)
(0.000795526 7.39212e-07 5.13315e-08)
(0.000793897 5.20477e-07 7.33323e-08)
(0.0007925 5.12991e-07 5.42309e-08)
(0.000791164 1.84165e-07 5.89478e-08)
(0.000789309 3.85133e-07 -6.06737e-08)
(0.000787553 9.32002e-08 4.60976e-08)
(0.00078612 2.10885e-07 -5.96201e-08)
(0.000784582 7.91361e-08 5.75497e-08)
(0.000783151 1.26588e-07 1.19095e-07)
(0.000781511 2.62044e-07 1.85943e-07)
(0.000779841 -8.64792e-10 5.02979e-08)
(0.000778631 -5.14324e-08 7.07064e-08)
(0.00077691 -4.39998e-07 4.01672e-08)
(0.000774891 -7.57008e-07 4.69139e-08)
(0.000774144 -6.13728e-07 1.44428e-07)
(0.000772925 -1.73032e-07 7.12578e-08)
(0.000771081 -1.6961e-07 3.92102e-08)
(0.00076959 -1.37884e-07 -8.54041e-08)
(0.000768127 -1.04967e-07 1.65149e-07)
(0.000766684 -3.00594e-08 1.46617e-07)
(0.000765257 4.7822e-08 5.11122e-08)
(0.000763623 4.13865e-08 5.67993e-08)
(0.000761927 1.66456e-07 5.16194e-08)
(0.000760743 3.20834e-07 1.14795e-08)
(0.000759429 4.02019e-08 4.30077e-08)
(0.000757766 -1.90004e-07 5.80301e-09)
(0.000756188 -2.5657e-07 6.07543e-08)
(0.000754734 -1.23281e-07 5.12598e-08)
(0.000753263 -7.29272e-08 1.11512e-09)
(0.000751622 -8.01679e-09 4.9217e-08)
(0.000750389 -3.26757e-08 3.59156e-08)
(0.000749525 -2.63705e-07 6.75351e-08)
(0.000748396 -1.40696e-07 2.1254e-07)
(0.000746998 -3.02644e-07 2.28624e-08)
(-0.000710708 -3.80549e-06 1.85226e-05)
(0.00206753 0.00662073 0.000338064)
(0.0028227 0.000694804 0.000413443)
(0.000513626 -0.00924019 0.000228421)
(0.00847156 0.00511282 -0.00135946)
(-0.0406271 0.00734257 -0.00054564)
(0.000797702 0.000220101 7.23814e-06)
(0.000848462 9.45039e-05 -2.07399e-06)
(0.000819783 2.72155e-05 -1.15806e-07)
(0.000810952 2.27835e-05 5.39678e-08)
(0.000806795 1.27815e-05 4.51113e-08)
(0.000803663 8.14724e-06 4.53418e-08)
(0.000801539 5.01035e-06 5.17776e-08)
(0.000799723 3.13005e-06 4.80438e-08)
(0.000798162 2.00543e-06 4.85061e-08)
(0.000796645 1.26497e-06 5.02765e-08)
(0.000795228 8.88171e-07 9.51059e-08)
(0.000793823 6.64943e-07 5.15821e-08)
(0.00079211 5.13491e-07 -1.44086e-07)
(0.000790597 3.16337e-07 4.067e-08)
(0.000789231 3.03454e-08 4.69676e-08)
(0.000787709 1.08662e-07 5.37279e-08)
(0.00078613 -7.92971e-08 5.72815e-08)
(0.000784588 -2.59295e-08 4.80942e-08)
(0.0007832 -1.94192e-07 5.68797e-08)
(0.000781423 -2.69782e-07 5.0597e-08)
(0.000779823 -3.9409e-08 -3.46537e-09)
(0.000778134 5.02747e-08 4.94316e-08)
(0.000776502 -1.74603e-07 5.14539e-08)
(0.000775724 3.28622e-07 5.03912e-08)
(0.000774409 5.32533e-07 9.24269e-08)
(0.00077269 1.88905e-07 3.39976e-08)
(0.000771117 2.70516e-07 5.04913e-08)
(0.000769527 5.40797e-08 4.57934e-08)
(0.000768071 2.77565e-08 4.57642e-08)
(0.000766556 -1.38156e-07 3.02394e-08)
(0.000765023 -1.56949e-07 5.71717e-08)
(0.00076375 -2.8319e-07 4.39997e-08)
(0.000762541 3.86629e-08 3.93496e-08)
(0.000760679 1.42043e-07 7.12864e-08)
(0.000758934 -7.59128e-08 1.58006e-08)
(0.000757705 -1.01509e-07 4.747e-08)
(0.000756228 -1.52096e-07 -7.71739e-09)
(0.000754773 -1.48967e-07 5.01661e-08)
(0.000753431 -3.87481e-08 7.07214e-08)
(0.000751923 8.6581e-08 4.5386e-08)
(0.000750194 4.60834e-07 5.88919e-08)
(0.000749168 5.48951e-07 6.77992e-08)
(0.000748283 1.41879e-07 4.2272e-08)
(0.000747438 -6.23846e-08 9.51338e-08)
(-1.68034e-05 0.000984263 4.28879e-05)
(0.00488564 -0.00243182 0.000187383)
(-0.000851758 -0.00355766 -0.000654868)
(0.0151177 -0.011724 -0.000398897)
(0.0107513 -0.0166156 0.000703389)
(0.00765493 0.00548453 0.000708335)
(0.000351419 6.81503e-05 2.67311e-05)
(0.000768055 6.78926e-05 -2.51274e-06)
(0.000783977 3.57014e-05 8.7336e-08)
(0.000792672 2.08321e-05 6.02795e-08)
(0.000796311 1.18338e-05 5.77718e-08)
(0.000797804 7.17314e-06 5.26423e-08)
(0.000798064 4.31547e-06 5.10706e-08)
(0.000797692 2.31489e-06 5.38855e-08)
(0.000796921 1.49594e-06 5.36637e-08)
(0.00079595 1.07765e-06 1.19666e-07)
(0.000794766 7.06687e-07 2.6738e-08)
(0.000793422 3.42854e-07 3.47126e-08)
(0.00079206 3.19968e-07 5.11737e-08)
(0.000790558 5.43421e-07 7.05194e-08)
(0.000789049 2.36949e-07 4.78109e-08)
(0.000787417 -3.10079e-08 7.92848e-08)
(0.000785953 -1.21838e-07 4.53909e-09)
(0.000784441 -1.75166e-07 5.21825e-08)
(0.000782849 -2.49677e-07 3.39794e-08)
(0.000781707 -3.41246e-07 6.11449e-08)
(0.000780242 -1.4082e-07 3.36782e-08)
(0.000778464 -6.30769e-08 4.85863e-08)
(0.000777258 1.55322e-07 1.1243e-07)
(0.000775773 4.79355e-07 4.12028e-08)
(0.000773967 3.35898e-07 1.48663e-07)
(0.000772595 1.86135e-07 6.58843e-08)
(0.000770911 -1.95813e-08 7.64135e-08)
(0.000769286 -1.16788e-07 -2.1175e-08)
(0.000767887 -1.7409e-07 2.9787e-08)
(0.000766454 -1.21266e-07 6.29764e-08)
(0.000765078 -1.70895e-07 -4.11786e-08)
(0.000763868 -1.021e-07 4.89209e-08)
(0.000762459 -4.17858e-07 8.92517e-08)
(0.0007606 -6.52457e-07 3.6149e-08)
(0.000759125 -2.6727e-07 5.16876e-08)
(0.000757672 -1.74641e-07 -2.50437e-08)
(0.00075613 -5.10316e-08 4.9394e-08)
(0.000754877 1.38644e-07 4.51736e-08)
(0.000753558 1.05488e-07 5.46024e-08)
(0.000752245 8.14433e-08 4.94862e-08)
(0.000750964 3.32819e-07 3.28358e-08)
(0.000749123 9.78023e-07 3.08081e-08)
(0.000747632 6.82502e-07 -5.33743e-08)
(0.000746895 3.5872e-07 8.92644e-08)
(-0.000776092 -0.00374713 3.73217e-06)
(0.0108244 -0.0015968 -8.65902e-06)
(-0.00659673 0.00116163 0.000782361)
(-0.00537039 -0.00285855 -0.00220788)
(-0.00571169 -0.00663366 -0.00131479)
(0.0185318 0.00561666 0.000409286)
(0.000357511 -2.35828e-05 8.65717e-07)
(0.000740609 7.71964e-06 -1.74384e-06)
(0.000761056 5.6587e-06 4.53289e-08)
(0.000780979 4.82862e-06 1.40595e-07)
(0.000789641 3.25926e-06 1.23449e-07)
(0.000794219 1.94507e-06 1.74617e-07)
(0.000795438 1.18219e-06 6.0528e-08)
(0.000796182 1.13767e-06 -6.50496e-08)
(0.000796605 6.99305e-07 5.39461e-08)
(0.000795651 4.77232e-07 5.05967e-08)
(0.000794305 2.5473e-07 4.76544e-08)
(0.000793336 3.03562e-07 1.22003e-07)
(0.000792359 3.15681e-07 6.38697e-08)
(0.000790491 -2.54603e-07 -2.50572e-08)
(0.000788512 -2.98076e-07 -3.88144e-09)
(0.000787261 -2.64526e-07 1.71558e-07)
(0.000785952 -1.00913e-07 6.14393e-08)
(0.000784431 -1.08644e-07 4.7569e-08)
(0.000782996 -5.81671e-08 -6.33126e-08)
(0.000781562 1.10166e-07 3.42752e-08)
(0.000780174 -9.41702e-09 3.62561e-08)
(0.000778505 9.12866e-08 4.74672e-08)
(0.000777179 4.41399e-07 -9.37293e-11)
(0.000775947 -1.15169e-07 1.26758e-07)
(0.00077404 -1.85415e-07 8.64867e-08)
(0.000772245 -2.37985e-07 3.75738e-08)
(0.000770739 -5.70093e-07 2.60906e-08)
(0.000769336 -4.95577e-07 1.55508e-07)
(0.000768067 -1.94633e-07 1.17752e-07)
(0.000766561 -7.34818e-08 7.81522e-08)
(0.000765048 -3.17855e-08 4.60991e-08)
(0.000763442 -1.05732e-07 4.87796e-08)
(0.000761856 -4.15893e-07 5.27647e-09)
(0.000760871 -5.20614e-07 6.58957e-08)
(0.000759534 -2.38014e-07 6.08471e-08)
(0.000757976 -1.76581e-07 2.359e-08)
(0.00075662 -5.31377e-08 5.3057e-08)
(0.000754968 1.95952e-07 3.41352e-08)
(0.000753359 1.81282e-07 -3.21815e-08)
(0.000752205 2.63237e-07 5.43237e-08)
(0.00075131 7.40551e-08 7.38227e-08)
(0.000749598 5.4645e-08 1.56358e-08)
(0.000747494 3.52605e-07 -3.21861e-08)
(0.000746141 2.28026e-07 6.68697e-08)
(-0.00639931 -0.00270346 0.00119092)
(-0.00560516 0.0037238 0.00116795)
(-0.00227374 -0.0101413 -0.00072371)
(-0.000589604 -0.0052044 -0.00116894)
(-0.0152712 -0.107635 -0.00112987)
(-0.0068226 -0.0219574 -4.25767e-05)
(0.00144892 -0.000133864 4.29715e-05)
(0.00132681 -6.61406e-05 3.4889e-07)
(0.00130256 -3.81604e-05 3.02992e-07)
(0.00131813 -2.31033e-05 3.37819e-07)
(0.00132302 -1.37771e-05 3.75195e-07)
(0.00132706 -8.78991e-06 3.26306e-07)
(0.00133005 -5.50717e-06 2.49348e-07)
(0.00133006 -2.80045e-06 3.5749e-07)
(0.00132842 -1.85286e-06 3.4486e-07)
(0.00132717 -1.43995e-06 6.82437e-07)
(0.00132568 -9.48729e-07 3.35025e-07)
(0.00132391 -6.70539e-07 3.55336e-07)
(0.00132047 -1.25625e-06 3.75654e-07)
(0.00131791 -1.09865e-06 4.01078e-07)
(0.00131652 -7.13103e-07 3.12397e-07)
(0.00131417 -7.24846e-09 3.77854e-07)
(0.00131165 -5.61338e-08 2.90299e-07)
(0.00130899 9.21658e-08 2.84951e-07)
(0.00130671 4.43686e-07 3.88732e-07)
(0.0013044 4.62585e-07 2.32319e-07)
(0.00130186 3.29599e-07 2.71983e-07)
(0.0012999 9.17382e-08 3.26954e-07)
(0.00129656 2.20622e-07 3.15918e-07)
(0.00129324 -5.26999e-07 3.35703e-07)
(0.00129125 -1.14836e-06 2.3724e-07)
(0.00128841 -9.03621e-07 1.56576e-07)
(0.00128594 -5.57608e-07 3.60269e-07)
(0.00128456 7.40063e-08 2.07727e-07)
(0.00128232 2.12972e-07 3.07064e-07)
(0.00127939 8.48637e-08 3.25743e-07)
(0.00127665 1.57855e-07 3.1717e-07)
(0.00127387 3.01009e-07 2.59458e-07)
(0.00127158 7.32146e-07 1.7881e-07)
(0.00126978 7.41456e-07 3.43208e-07)
(0.00126755 1.98251e-07 2.76212e-07)
(0.0012648 3.61203e-08 3.41143e-07)
(0.00126278 -4.19071e-07 3.70651e-07)
(0.00126031 -4.96201e-07 6.89131e-07)
(0.0012577 -2.34986e-07 3.25676e-07)
(0.00125523 -6.95293e-08 3.14901e-07)
(0.00125284 -2.07049e-07 2.90162e-07)
(0.00125083 -7.21613e-07 2.99389e-07)
(0.00124809 -5.81776e-07 2.57808e-07)
(0.00124527 -3.89753e-07 3.4942e-07)
(0.00140574 -0.0297469 0.000256692)
(0.0201662 0.00543088 0.00173358)
(-0.0246509 -0.0578755 -0.0259448)
(-0.0136683 0.00628223 -0.00130095)
(0.0218181 -0.0194065 2.21889e-05)
(-0.0297502 0.0142409 0.000846164)
(0.00123882 8.7439e-05 -2.33669e-05)
(0.00132941 -8.68986e-05 2.89558e-07)
(0.0013178 -5.04462e-05 4.05871e-07)
(0.00132975 -3.44896e-05 3.32234e-07)
(0.00133299 -2.16096e-05 3.32249e-07)
(0.00133392 -1.35785e-05 3.32623e-07)
(0.00133365 -8.53961e-06 3.34126e-07)
(0.00133234 -5.94498e-06 3.31277e-07)
(0.00133039 -3.70422e-06 3.31923e-07)
(0.0013284 -2.41226e-06 2.28382e-07)
(0.00132611 -1.51503e-06 3.24988e-07)
(0.00132318 -1.13895e-06 2.42569e-07)
(0.00132136 -8.64485e-07 3.28076e-07)
(0.0013195 -9.09404e-08 3.01627e-07)
(0.001317 2.17424e-07 3.4974e-07)
(0.00131438 1.2623e-07 3.68772e-07)
(0.00131152 3.50812e-07 3.10052e-07)
(0.0013095 3.87541e-07 2.86009e-07)
(0.00130691 4.90045e-07 2.52663e-07)
(0.00130397 8.66004e-08 3.67046e-07)
(0.00130139 -1.10745e-07 3.8765e-07)
(0.00129895 -4.21926e-07 3.26176e-07)
(0.00129611 -1.44402e-06 4.04672e-07)
(0.00129312 -8.00523e-07 3.68225e-07)
(0.00129118 -6.75387e-07 3.61007e-07)
(0.00128936 -3.7519e-07 2.97449e-07)
(0.00128733 7.6515e-07 6.33296e-07)
(0.00128479 1.15617e-06 7.48906e-07)
(0.00128175 4.40238e-07 3.28063e-07)
(0.00127925 3.57205e-07 3.08783e-07)
(0.00127699 3.5363e-07 3.08488e-07)
(0.00127467 4.5327e-07 3.6108e-07)
(0.00127197 7.38398e-07 3.09356e-07)
(0.0012691 8.00144e-07 3.27523e-07)
(0.0012666 1.12651e-07 3.26614e-07)
(0.0012642 -4.09159e-07 3.56564e-07)
(0.001262 -7.81689e-07 2.48075e-07)
(0.00126021 -6.32038e-07 4.5406e-07)
(0.00125794 -2.35149e-07 2.69125e-07)
(0.00125538 -2.92327e-07 2.46618e-07)
(0.00125297 1.9104e-08 4.35395e-07)
(0.00125058 -2.22711e-07 1.89664e-07)
(0.00124807 -4.55501e-07 3.53427e-07)
(0.00124642 -3.82181e-07 2.22792e-07)
(0.00130777 -0.00546063 -0.00201901)
(-0.00735245 0.00198851 0.0697541)
(0.0106383 -0.013559 0.0548206)
(0.0224211 -6.35205e-05 -0.000238646)
(0.0181327 0.00402782 -0.0041349)
(-0.0329926 0.00260433 -0.00264828)
(0.00112575 -0.000552509 6.51723e-05)
(0.00141037 -0.000159812 3.67062e-07)
(0.00136996 -4.14484e-05 5.23224e-07)
(0.00135473 -3.85773e-05 3.39614e-07)
(0.00134952 -2.18757e-05 3.37306e-07)
(0.00134361 -1.41237e-05 3.34035e-07)
(0.00133973 -8.86272e-06 3.34694e-07)
(0.00133619 -5.62444e-06 3.34406e-07)
(0.00133289 -3.50329e-06 3.33046e-07)
(0.00132994 -2.14341e-06 3.30407e-07)
(0.0013273 -1.4362e-06 3.31494e-07)
(0.00132473 -8.94922e-07 2.22215e-07)
(0.00132179 -3.84426e-07 3.70193e-07)
(0.00131926 -2.49242e-07 3.18106e-07)
(0.0013168 -1.19055e-07 2.05557e-07)
(0.00131434 -2.4063e-07 3.25345e-07)
(0.00131198 -1.30173e-07 3.50447e-07)
(0.00130916 -9.77323e-08 -1.11071e-07)
(0.00130633 -3.92206e-07 3.56693e-07)
(0.00130365 -6.14037e-08 2.98569e-07)
(0.00130122 -1.53179e-07 -2.01234e-08)
(0.00129824 -4.19722e-08 3.13044e-07)
(0.0012961 -2.17147e-08 1.2663e-07)
(0.00129421 8.43961e-07 2.4869e-07)
(0.00129179 1.31111e-06 3.26052e-07)
(0.00129021 1.19045e-06 3.24289e-07)
(0.00128785 6.8251e-07 7.9762e-07)
(0.00128415 2.91382e-07 4.27077e-07)
(0.00128132 7.22279e-08 3.68314e-07)
(0.00127927 2.00049e-07 3.3194e-07)
(0.00127677 1.81408e-07 3.50215e-07)
(0.00127435 1.25975e-07 3.45218e-07)
(0.00127201 1.9668e-07 3.29545e-07)
(0.00126899 6.74517e-08 4.40501e-07)
(0.00126604 1.94691e-08 3.48083e-07)
(0.00126369 4.11442e-08 3.34797e-07)
(0.0012625 7.89637e-07 2.73872e-07)
(0.001261 4.49829e-07 2.75101e-07)
(0.00125814 2.20331e-07 3.40991e-07)
(0.00125555 2.02614e-07 2.90956e-07)
(0.00125293 3.57277e-07 3.68291e-07)
(0.00125024 2.30453e-07 1.51804e-07)
(0.0012479 1.67016e-07 2.91537e-07)
(0.00124632 1.11816e-07 2.97332e-07)
(0.0810361 -0.0168168 -0.0759683)
(0.0360996 0.0309058 0.0098471)
(0.00723912 0.000698328 -3.86384e-05)
(0.0067128 0.0402508 0.00179389)
(-0.00137599 -0.00243038 -0.0246179)
(0.00460539 -0.00565304 0.00394999)
(0.00098034 0.000309443 -0.000130075)
(0.00147553 -0.000125526 5.05111e-07)
(0.00148783 -1.67659e-05 3.10675e-07)
(0.00135467 -2.29992e-05 2.74535e-07)
(0.00136387 -1.27956e-05 3.3835e-07)
(0.00135037 -8.406e-06 -9.01955e-08)
(0.00134438 -5.71126e-06 3.33211e-07)
(0.00133911 -3.39214e-06 3.34699e-07)
(0.00133479 -1.75181e-06 3.32941e-07)
(0.00133101 -9.57627e-07 3.31666e-07)
(0.00132769 -7.1805e-07 3.31879e-07)
(0.00132451 -5.02196e-07 3.90258e-07)
(0.00132218 -4.5809e-07 3.56759e-07)
(0.00131984 -4.15815e-07 2.97432e-07)
(0.00131701 -4.22827e-07 4.02369e-07)
(0.00131436 -3.92424e-07 3.29717e-07)
(0.0013117 -4.64163e-07 3.03346e-07)
(0.00130917 -3.16443e-07 3.34153e-07)
(0.00130696 -2.73742e-07 3.28823e-07)
(0.00130427 -1.58028e-08 4.37324e-07)
(0.00130142 3.25906e-07 3.89328e-07)
(0.00129911 6.33356e-07 3.94036e-07)
(0.00129722 1.4809e-06 2.6991e-07)
(0.00129478 1.21829e-06 4.69692e-07)
(0.00129161 1.33478e-06 3.08085e-07)
(0.00128857 1.3195e-06 3.06734e-07)
(0.0012862 3.75437e-07 3.20805e-07)
(0.00128403 -7.6744e-08 3.18293e-07)
(0.00128164 1.80973e-07 3.57611e-07)
(0.00127938 8.93079e-08 3.26498e-07)
(0.0012769 6.38989e-09 3.01138e-07)
(0.00127469 -1.00649e-07 3.33072e-07)
(0.00127189 -6.80414e-07 1.7801e-07)
(0.00126888 -6.16317e-07 3.19051e-07)
(0.00126656 1.97655e-08 2.16838e-07)
(0.00126516 6.9852e-07 3.61384e-07)
(0.00126251 9.69222e-07 3.69398e-07)
(0.00125949 5.672e-07 2.08129e-07)
(0.00125762 3.70077e-08 2.23205e-07)
(0.00125555 -7.06569e-09 4.59395e-07)
(0.001253 4.63851e-09 3.57657e-07)
(0.00125034 1.7535e-07 5.85766e-08)
(0.00124791 4.03012e-07 3.08637e-07)
(0.00124608 3.9774e-07 2.19168e-07)
(0.110912 0.0808046 0.0210616)
(0.00925513 -0.00389495 -0.00511974)
(0.019465 0.000262306 0.0013609)
(-0.0418899 0.0394645 0.0497128)
(-0.0607839 -0.0451522 -0.0874556)
(-0.0402576 -0.00312583 -0.00596064)
(0.000764461 -0.000473571 2.41298e-05)
(0.00135414 -2.52898e-07 6.10983e-08)
(0.00148953 -1.15183e-06 6.65875e-07)
(0.00135944 -4.69829e-07 4.12596e-07)
(0.00136786 -1.35532e-07 3.60263e-07)
(0.00135252 -2.78374e-07 3.63421e-07)
(0.00134603 4.15676e-07 3.39907e-07)
(0.00134116 -6.00577e-08 3.34914e-07)
(0.00133594 -4.97746e-07 3.16739e-07)
(0.00133124 -4.55413e-07 2.6037e-07)
(0.00132787 -1.36545e-07 3.31377e-07)
(0.00132506 2.80414e-08 3.29654e-07)
(0.0013219 2.13033e-07 3.29101e-07)
(0.00131931 2.12219e-07 3.31067e-07)
(0.00131683 -1.243e-07 3.62702e-07)
(0.00131429 2.2328e-07 3.14342e-07)
(0.00131207 1.30205e-07 3.21359e-07)
(0.00130941 2.20325e-07 3.74896e-07)
(0.00130671 2.31514e-07 2.71099e-07)
(0.0013044 -2.11573e-07 3.10982e-07)
(0.00130203 1.45485e-07 3.79249e-07)
(0.00129968 2.36758e-07 2.90866e-07)
(0.00129682 3.91136e-07 4.81587e-07)
(0.00129402 2.30092e-07 3.10982e-07)
(0.0012919 2.9441e-07 3.35736e-07)
(0.001289 -3.10032e-07 3.1294e-07)
(0.0012861 2.56286e-07 3.12107e-07)
(0.00128391 1.15385e-07 3.20833e-07)
(0.00128153 2.16035e-07 2.93761e-07)
(0.00127906 -3.33769e-08 3.21557e-07)
(0.00127653 -2.1062e-07 3.23649e-07)
(0.00127349 -3.42525e-07 3.12593e-07)
(0.00127137 -5.10794e-07 4.78575e-07)
(0.00126987 -3.02912e-07 3.30889e-07)
(0.00126768 1.65052e-07 3.22055e-07)
(0.00126487 5.41813e-07 4.96887e-07)
(0.00126233 1.28405e-07 2.98002e-07)
(0.00125983 1.0532e-07 -1.26651e-07)
(0.00125741 -5.80651e-08 3.13052e-07)
(0.00125551 -2.75145e-07 3.13229e-07)
(0.00125316 -6.89361e-07 1.40529e-07)
(0.00125073 -6.9327e-07 -2.74466e-07)
(0.00124817 -4.59598e-07 3.11351e-07)
(0.00124532 1.68945e-07 4.35412e-07)
(-0.00345601 -0.0291462 0.00100795)
(-0.0110572 -0.0125321 0.000214267)
(-0.0120308 0.0122112 -0.00145985)
(-2.36226e-05 -0.016825 0.00910062)
(-0.0337865 0.0261113 -0.00100187)
(-0.0144247 -0.0118821 -0.00143499)
(0.000886438 -0.000151961 -9.25679e-05)
(0.00135924 1.3206e-06 1.60408e-07)
(0.00148306 2.28016e-05 5.90525e-07)
(0.00135584 1.82875e-05 3.9993e-07)
(0.00136395 1.17864e-05 3.00406e-07)
(0.00135096 7.69479e-06 4.54487e-07)
(0.0013446 5.49459e-06 3.11783e-07)
(0.00133793 3.2024e-06 3.33537e-07)
(0.00133427 1.54694e-06 3.55705e-07)
(0.00133145 8.02875e-07 3.46976e-07)
(0.00132829 5.54148e-07 3.31711e-07)
(0.00132494 1.92423e-07 3.30762e-07)
(0.0013224 7.94509e-08 2.92249e-07)
(0.00131942 4.44701e-07 4.27114e-07)
(0.00131703 6.39284e-07 5.04215e-07)
(0.00131468 5.27299e-07 7.34586e-07)
(0.0013117 4.41439e-07 3.22317e-07)