/*--------------------------------*- C++ -*----------------------------------*\
| =========                 |                                                 |
| \\      /  F ield         | OpenFOAM: The Open Source CFD Toolbox           |
|  \\    /   O peration     | Version:  5.0                                   |
|   \\  /    A nd           | Web:      www.OpenFOAM.org                      |
|    \\/     M anipulation  |                                                 |
\*---------------------------------------------------------------------------*/
FoamFile
{
    version     2.0;
    format      ascii;
    class       surfaceVectorField;
    location    "1.6";
    object      Uf;
}
// * * * * * * * * * * * * * * * * * * * * * * * * * * * * * * * * * * * * * //

dimensions      [0 1 -1 0 0 0 0];

internalField   nonuniform List<vector> 
25552
(
(-0.00227201 0.00141287 -0.000283586)
(-0.00277131 -2.82843e-05 -1.563e-05)
(-0.00435527 -0.00213068 8.57795e-05)
(-0.00091565 -0.00163759 -2.3114e-05)
(-0.00225955 -0.00227952 0.000169631)
(0.000156264 -0.00283567 -0.00121379)
(1.48931e-05 -0.00234854 -9.2095e-05)
(0.00280335 -0.0063097 0.00045355)
(-0.00453049 0.00434697 -8.39952e-05)
(-0.000618794 0.000454488 -0.000294044)
(0.00504102 -0.0195098 0.00039893)
(-0.00506392 -0.00592373 -0.00317803)
(-0.000819267 -0.00507722 0.000650548)
(-0.00495569 -0.00271653 0.000179487)
(-0.00356519 0.00514707 0.000818866)
(-0.00446227 0.00420514 -0.00087172)
(-0.00372456 0.00459576 0.00189735)
(-0.0047055 0.00539774 0.00136458)
(-0.00227584 -0.0135034 0.000133813)
(-0.00763483 -0.00485948 0.000289987)
(-0.00240343 -0.00606757 3.65574e-05)
(0.011003 0.00320777 -0.000191085)
(0.0180264 0.00800886 0.000267663)
(0.00981974 0.00731261 -0.00128747)
(0.000485764 -0.00595698 -3.39119e-05)
(0.0069467 -0.00754795 -0.000413819)
(0.00542472 0.00266137 0.000133276)
(0.00265227 0.0179383 -0.0014214)
(-0.000904105 0.00498216 0.000473404)
(0.00128392 0.0155489 0.00142772)
(0.00261617 0.00853272 -0.000608666)
(0.0249424 -0.00817616 -0.000459367)
(0.0149517 0.00124508 0.00244066)
(0.0158335 -0.00984657 -7.12003e-05)
(0.0317868 -0.00513731 0.00724129)
(0.0272954 -0.00279092 -0.00228348)
(0.00162489 -0.00319411 0.000479714)
(0.0127192 0.00053199 0.000621899)
(0.0081643 -0.0112599 0.00161511)
(0.000484278 -7.52705e-05 7.02773e-06)
(0.000533904 -3.68186e-05 -2.10669e-06)
(0.000498618 4.84563e-06 -1.23473e-06)
(0.000874514 -7.25963e-05 1.13052e-05)
(0.000477802 4.52136e-05 -9.56751e-07)
(0.00102478 -0.000174038 2.56666e-05)
(0.000977122 0.000143867 4.93547e-06)
(0.000812331 -2.28725e-05 -1.58789e-06)
(0.00081561 -1.30746e-05 -2.40368e-06)
(0.00110195 -3.99973e-05 -1.76287e-06)
(0.000604459 -2.9421e-05 -4.03738e-06)
(0.000588313 -8.58019e-07 -3.61264e-06)
(0.00103798 -5.82258e-05 -3.79897e-06)
(0.00100965 3.74639e-06 -3.84111e-06)
(0.000805104 -1.50236e-05 -1.31882e-07)
(0.000802273 -1.25352e-05 -6.81969e-08)
(0.00107137 -2.59805e-05 1.25114e-07)
(0.000803299 -9.62276e-06 3.87834e-08)
(0.00080499 -1.06915e-05 6.4904e-08)
(0.00107155 -1.6839e-05 1.75819e-07)
(0.000802491 -6.03567e-06 5.458e-08)
(0.000804247 -7.41984e-06 6.94635e-08)
(0.0010696 -1.0438e-05 1.78317e-07)
(0.000802088 -3.81424e-06 1.63826e-08)
(0.000803566 -5.04623e-06 5.02406e-08)
(0.00106923 -6.66086e-06 1.62018e-07)
(0.000801385 -2.34104e-06 3.05006e-08)
(0.000802717 -3.32661e-06 2.2046e-08)
(0.0010689 -4.16571e-06 1.71654e-07)
(0.000800355 -1.43253e-06 6.10012e-08)
(0.000801524 -2.14018e-06 6.01841e-08)
(0.00106777 -2.4678e-06 1.956e-07)
(0.000799137 -9.12564e-07 3.89812e-08)
(0.000800153 -1.35524e-06 5.14139e-08)
(0.00106617 -1.57119e-06 1.87423e-07)
(0.000797853 -5.89476e-07 3.97601e-08)
(0.000798791 1.50174e-07 1.06051e-07)
(0.00106458 -1.01359e-06 1.11075e-07)
(0.000796489 -3.51772e-07 6.61761e-08)
(0.0007974 -5.63843e-07 5.13746e-08)
(0.00106285 -6.63379e-07 1.77618e-07)
(0.000794963 -2.28102e-07 7.26416e-08)
(0.000795895 -1.82893e-07 6.87216e-08)
(0.00106103 -3.42043e-07 1.83977e-07)
(0.000793405 -2.10608e-07 1.2379e-07)
(0.00079426 -3.31007e-07 9.12416e-08)
(0.0010588 -3.39744e-07 1.97674e-07)
(0.000791871 -2.10366e-07 1.21505e-07)
(0.00079269 -1.47617e-07 1.03634e-07)
(0.00105673 -3.13334e-07 1.73655e-07)
(0.000790592 -1.31439e-07 6.25668e-08)
(0.000791273 -5.08043e-08 7.25759e-08)
(0.00105502 -2.96205e-07 1.31864e-07)
(0.000789084 -5.65664e-08 3.28652e-08)
(0.000789806 6.711e-09 6.03895e-08)
(0.00105309 -1.97801e-08 1.7187e-07)
(0.000787537 -5.91549e-08 2.4088e-08)
(0.000788262 -2.38498e-07 5.59022e-08)
(0.00105103 -5.29861e-08 1.99508e-07)
(0.000786193 5.61363e-08 2.38651e-08)
(0.000786938 -2.67372e-07 1.26645e-07)
(0.00104912 -2.62375e-08 1.79248e-07)
(0.000784662 2.28573e-07 3.27835e-08)
(0.000785562 1.50214e-07 -2.0857e-08)
(0.00104724 2.59034e-07 1.40445e-07)
(0.000783141 2.2606e-07 6.29351e-08)
(0.000783892 -8.40401e-07 4.73997e-08)
(0.00104519 4.37562e-07 1.5467e-07)
(0.000781722 1.25417e-07 5.56778e-08)
(0.000782335 -4.74816e-08 4.93325e-08)
(0.00104319 2.36576e-07 2.07883e-07)
(0.000780243 1.49603e-07 4.68303e-08)
(0.000781015 3.14285e-08 4.72436e-08)
(0.00104145 1.24937e-07 1.74037e-07)
(0.000778741 4.52015e-09 4.29987e-08)
(0.000779365 -1.48323e-07 5.69749e-08)
(0.00103929 2.57362e-07 1.20138e-07)
(0.000777379 -3.28723e-07 5.98951e-08)
(0.000777773 -2.83058e-07 5.38447e-08)
(0.00103726 -3.00201e-07 1.68173e-07)
(0.000775495 -4.83672e-07 1.12657e-08)
(0.000776426 -6.96363e-07 -2.5366e-08)
(0.00103525 -6.79628e-07 3.58784e-07)
(0.000774229 -4.23768e-07 1.26006e-08)
(0.000774931 -5.91674e-07 -1.5805e-08)
(0.001033 -6.92248e-07 3.15911e-07)
(0.000772843 -1.97291e-07 9.39809e-08)
(0.000773682 -4.12979e-07 1.05895e-07)
(0.00103124 -4.52964e-07 1.74981e-07)
(0.000771837 4.88247e-09 7.67977e-08)
(0.000772571 -1.70873e-06 1.15176e-07)
(0.00102985 -5.06585e-08 2.56188e-07)
(0.000770264 -4.9594e-09 4.50579e-08)
(0.000771066 1.14177e-07 4.66604e-08)
(0.00102811 1.11782e-07 1.72468e-07)
(0.000768698 -1.466e-07 3.68819e-08)
(0.000769493 3.01487e-07 4.11816e-08)
(0.00102593 -5.987e-08 1.63797e-07)
(0.000766935 -3.46308e-08 3.30323e-08)
(0.000768034 4.68085e-08 3.62095e-08)
(0.00102371 -2.5182e-07 1.72322e-07)
(0.000765429 3.15619e-07 5.92548e-08)
(0.000766509 3.9982e-07 2.06428e-08)
(0.00102139 2.18313e-07 1.31792e-07)
(0.000764995 3.3093e-07 9.28163e-08)
(0.000765157 -2.05976e-06 7.91084e-08)
(0.00102018 6.59609e-07 2.05283e-07)
(0.000763188 1.26683e-07 6.46013e-08)
(0.000763775 3.2343e-07 6.33104e-08)
(0.00101881 2.84951e-07 1.7418e-07)
(0.000761731 6.32354e-08 4.79826e-08)
(0.00076228 9.16072e-08 3.81429e-08)
(0.00101653 1.0827e-07 1.69007e-07)
(0.000760491 -2.63299e-07 7.59114e-08)
(0.00076073 -3.01015e-08 7.64214e-08)
(0.00101461 7.3198e-08 1.57522e-07)
(0.000759412 -5.83819e-07 4.59846e-08)
(0.000759555 1.64532e-06 8.02307e-08)
(0.00101331 -7.40759e-07 1.46822e-07)
(0.000757187 -4.79608e-07 2.22906e-08)
(0.000758363 2.47731e-06 5.09917e-08)
(0.00101099 -7.34786e-07 9.88989e-08)
(0.000756001 -3.00943e-07 3.15588e-08)
(0.000756869 -4.05295e-07 4.6016e-08)
(0.00100867 -4.80768e-07 1.68034e-07)
(0.000754717 -2.11011e-07 4.27589e-08)
(0.000755423 1.75925e-08 4.68263e-08)
(0.00100709 -3.04924e-07 1.53141e-07)
(0.000753468 -1.93984e-07 4.87997e-08)
(0.000754113 -3.31939e-07 5.42448e-08)
(0.00100528 -2.529e-07 1.77864e-07)
(0.000752043 -2.61449e-07 4.45335e-08)
(0.000752851 2.51295e-08 4.5185e-08)
(0.00100366 -2.81824e-07 1.74222e-07)
(0.000750424 -3.34144e-07 2.57828e-08)
(0.000751258 -2.5398e-07 -1.78016e-08)
(0.00100152 -4.42599e-07 2.00711e-07)
(0.0007499 8.87394e-07 5.49355e-08)
(0.000999411 -4.41881e-07 1.07922e-07)
(-0.00272012 -0.00249375 0.000387869)
(-0.00521369 -0.00275794 0.000706875)
(-0.00256091 -0.00161737 0.000446954)
(-0.00367293 -0.00122687 1.40441e-05)
(0.00642276 -0.0331692 0.000271359)
(0.00508957 -0.00999669 0.000464501)
(0.0138298 0.0266632 0.0141274)
(0.00958712 -0.0107857 0.000255959)
(-0.00128924 -0.0180597 -0.0104108)
(0.00514152 0.00452279 0.00486974)
(0.0102047 0.0213567 0.000737808)
(-0.00936663 0.00813133 0.0012104)
(-0.00652504 0.0272418 0.000442117)
(-0.021298 0.00785378 -0.00067707)
(-0.0209085 0.0408949 0.00140227)
(-0.0147973 -0.00972823 0.00168765)
(-0.00135315 -0.00871122 -0.000268953)
(0.0122232 -0.0174882 0.00409335)
(-0.02454 -0.0250256 -0.000535426)
(0.00264681 -0.0110955 0.000489683)
(0.00900303 -0.00198709 0.00339037)
(-0.0115501 -0.0707402 0.00185532)
(-0.0339978 -0.0657116 0.00497325)
(-0.00707019 -0.00935955 3.04865e-05)
(-0.00449394 -0.00900874 0.000111464)
(-0.00228055 -0.00748293 0.00014422)
(-0.00192831 -0.0130356 -0.000850437)
(-0.00704556 -0.0131005 6.10195e-05)
(0.00149527 0.00145877 0.000108895)
(0.0044872 -0.00315122 3.16902e-05)
(-0.00366461 0.00573554 -3.23048e-05)
(0.016684 0.00218413 0.000604071)
(-0.00592505 0.00725127 0.000636944)
(0.000190427 3.28438e-05 1.28882e-05)
(0.000413408 6.3882e-05 -1.64893e-06)
(0.000428305 3.93846e-05 -2.32103e-06)
(0.000591303 0.000108059 -4.51175e-06)
(0.000327521 -5.2098e-05 -1.6521e-05)
(9.18356e-05 9.13236e-05 4.26895e-05)
(0.000812912 0.000246022 -0.000146957)
(0.000274378 4.43462e-05 1.03843e-05)
(0.000218136 8.00076e-05 2.86893e-05)
(0.000485192 1.78154e-05 -4.80864e-06)
(0.000258989 1.86354e-05 -2.08023e-06)
(0.000798427 -2.36235e-05 -8.84758e-07)
(0.000826516 -5.75095e-05 -2.29707e-06)
(0.00107156 -4.28953e-05 -1.2926e-06)
(0.000564511 -2.26499e-06 -3.41491e-06)
(0.000543105 -3.77653e-05 -3.98915e-06)
(0.000965817 4.42681e-06 -4.63461e-06)
(0.000914679 -7.52247e-05 -4.20603e-06)
(0.000803539 -1.58301e-05 1.28546e-07)
(0.000812421 -2.12357e-05 2.46448e-08)
(0.00106577 -2.64706e-05 1.95735e-07)
(0.000805751 -1.11578e-05 9.55825e-08)
(0.000810947 -1.57301e-05 5.64513e-08)
(0.00107362 -1.9514e-05 1.94614e-07)
(0.000805325 -7.21886e-06 6.51304e-08)
(0.000809246 -9.02033e-06 5.96991e-08)
(0.00107407 -1.25324e-05 1.85464e-07)
(0.000804225 -4.66897e-06 5.59132e-08)
(0.0008068 -5.74036e-06 4.99266e-08)
(0.00107295 -8.10697e-06 1.81462e-07)
(0.000802818 -3.03425e-06 5.17171e-08)
(0.00080479 -3.58993e-06 5.12112e-08)
(0.00107131 -5.17934e-06 1.79263e-07)
(0.000801342 -1.98094e-06 5.05997e-08)
(0.00080286 -2.30371e-06 5.04168e-08)
(0.00106939 -3.45204e-06 1.79268e-07)
(0.00079981 -1.27674e-06 1.18466e-07)
(0.000801046 -1.44536e-06 5.16229e-08)
(0.00106736 -2.19267e-06 1.79876e-07)
(0.000798335 -8.12624e-07 1.17684e-07)
(0.000799379 -8.35623e-07 1.20487e-07)
(0.00106538 -1.44145e-06 2.37237e-07)
(0.000796832 -4.99212e-07 5.39144e-08)
(0.000797797 -6.91351e-07 5.12266e-08)
(0.00106344 -8.81631e-07 1.81192e-07)
(0.000795185 -2.58383e-07 8.73143e-08)
(0.0007962 6.87761e-07 3.64276e-08)
(0.00106127 -5.80086e-07 1.25131e-07)
(0.000793578 -1.0285e-07 7.1081e-08)
(0.000794457 -1.32971e-06 9.80623e-08)
(0.00105912 -2.3522e-07 2.51405e-07)
(0.000792013 -6.08409e-09 5.47141e-08)
(0.000792812 -1.12054e-07 3.48929e-08)
(0.00105705 -1.15209e-07 1.76589e-07)
(0.000790497 4.54517e-08 7.04024e-08)
(0.000791338 1.08474e-07 1.5317e-07)
(0.00105504 9.47938e-08 1.64277e-07)
(0.000789007 1.14044e-07 8.34279e-08)
(0.000789892 7.75213e-08 5.37672e-08)
(0.00105303 4.14535e-08 1.68532e-07)
(0.000787574 2.2477e-07 1.58437e-07)
(0.0007884 4.68798e-07 8.08853e-08)
(0.00105096 2.91899e-07 1.19616e-07)
(0.000786392 1.98379e-07 8.19702e-08)
(0.000786903 -4.20872e-07 1.39463e-07)
(0.00104934 3.61034e-07 1.5808e-07)
(0.00078484 4.64251e-08 -6.26253e-09)
(0.000785372 7.05253e-08 9.80643e-09)
(0.00104755 2.42354e-07 1.85642e-07)
(0.00078299 -7.86377e-08 3.37965e-08)
(0.000783735 -3.63455e-08 3.14204e-08)
(0.00104514 -3.86289e-08 1.50023e-07)
(0.000781631 -1.37381e-07 4.08989e-08)
(0.000782262 2.82191e-08 5.52217e-08)
(0.00104299 -1.08713e-07 1.58286e-07)
(0.00078021 -3.16412e-07 5.73851e-08)
(0.000780793 9.51086e-08 5.2585e-08)
(0.00104124 -2.37547e-07 1.64894e-07)
(0.000778273 -3.89009e-07 6.78219e-08)
(0.000779276 -6.52829e-07 3.44521e-08)
(0.00103894 -6.81464e-07 2.5054e-07)
(0.00077696 -2.90792e-07 -3.13915e-08)
(0.000777898 -1.23978e-07 4.33294e-08)
(0.00103665 -4.52886e-07 1.48808e-07)
(0.000775732 -1.78835e-07 -5.24397e-08)
(0.000776568 2.43626e-07 4.35459e-08)
(0.00103513 -3.71132e-07 8.63432e-08)
(0.000774373 1.82121e-07 7.74517e-08)
(0.000775382 4.25396e-07 4.60442e-08)
(0.00103342 -1.44094e-07 9.24071e-08)
(0.000773393 4.69308e-07 1.27088e-07)
(0.000774039 -2.66017e-06 5.99721e-08)
(0.00103183 6.3332e-07 2.90593e-07)
(0.000771958 3.11168e-07 8.50603e-08)
(0.000772372 -3.18514e-06 4.95776e-08)
(0.00103028 6.78518e-07 2.76548e-07)
(0.000770137 1.28024e-07 4.27857e-08)
(0.000770836 6.2192e-07 6.62883e-08)
(0.00102799 2.12673e-07 1.69922e-07)
(0.000768939 1.19899e-07 4.05107e-08)
(0.000769482 -2.41854e-08 4.56718e-08)
(0.00102594 1.66075e-07 1.73781e-07)
(0.000767556 2.14066e-07 2.38248e-08)
(0.000768151 7.15806e-08 5.20231e-08)
(0.00102424 1.84489e-07 1.65513e-07)
(0.000766177 4.36268e-07 4.04784e-08)
(0.000766785 3.18777e-08 2.91164e-08)
(0.0010225 4.15455e-07 1.93359e-07)
(0.000764033 3.97731e-07 4.96074e-08)
(0.000765106 -8.62363e-07 5.06527e-08)
(0.00102007 7.71087e-07 1.49609e-07)
(0.000762818 1.21509e-07 3.68597e-08)
(0.000763428 1.10208e-07 4.50177e-08)
(0.00101775 3.46742e-07 1.67695e-07)
(0.000761342 -3.9745e-08 6.65699e-08)
(0.000762078 3.92365e-07 6.14059e-08)
(0.00101605 3.3729e-08 1.54227e-07)
(0.000759593 -1.78141e-07 8.07395e-08)
(0.000760557 -6.77913e-08 6.49776e-08)
(0.00101382 -1.43107e-07 2.03236e-07)
(0.000758665 -4.49564e-07 8.52468e-08)
(0.000759217 5.24471e-07 1.19103e-07)
(0.00101201 -3.61644e-07 2.07618e-07)
(0.000758025 -3.91129e-07 7.47186e-08)
(0.000758438 2.63713e-07 1.0792e-07)
(0.00101114 -8.39445e-07 2.60876e-07)
(0.0007563 -1.12739e-07 6.12833e-08)
(0.000757219 -1.73848e-08 7.17571e-08)
(0.00100947 -2.03503e-07 1.70635e-07)
(0.000754707 3.3899e-08 5.83099e-08)
(0.000755607 1.18171e-07 5.24527e-08)
(0.0010072 -1.50003e-07 1.7963e-07)
(0.000753608 6.50755e-08 5.06328e-08)
(0.000754152 -1.23602e-06 3.18318e-08)
(0.00100547 1.82232e-07 2.07999e-07)
(0.000752105 -1.01191e-07 -1.71309e-08)
(0.000752643 2.25732e-07 6.64212e-08)
(0.0010037 -3.87287e-08 1.64415e-07)
(0.000750579 -1.79867e-07 1.13291e-08)
(0.000751162 7.8589e-07 -4.79245e-09)
(0.00100159 -2.6015e-07 1.05187e-07)
(0.000750124 -1.41723e-07 1.09176e-07)
(0.00100005 -2.47519e-07 2.27638e-07)
(0.0118023 -0.0028745 -0.00125222)
(0.00940032 0.00866222 0.00044911)
(0.00277796 -0.00527794 -0.00194391)
(0.00127367 -0.00629869 0.000215287)
(-0.043688 -0.00330157 0.00510045)
(-0.0240224 0.0139998 0.00573385)
(-0.00794378 -0.00198465 0.0039655)
(0.0120444 -0.00260143 0.0018286)
(-0.00526623 -0.0286864 -0.0281142)
(-0.00923483 -0.0114622 0.0419849)
(-0.00282464 -0.00103536 0.0751537)
(-0.0308626 -0.0238093 -0.0734709)
(-0.0535268 0.0372474 -0.00218992)
(-0.0159916 -0.0126587 0.0139508)
(-0.0341794 0.0231203 -0.00400785)
(0.0302835 0.025881 -0.000132611)
(0.0264955 -0.00374884 0.00368926)
(0.0566905 -0.0938603 -0.00796898)
(0.0525773 -0.0262806 0.0041448)
(0.0727851 -0.0142812 0.00478668)
(-0.0251728 -0.00747483 -0.00105882)
(0.0068504 0.0212161 0.00281266)
(-0.017849 -0.000678353 -0.00186663)
(-0.0158918 0.0177884 -0.026437)
(-0.0390749 0.00270928 -0.0513775)
(-0.0105695 0.0220054 0.0700591)
(-0.00958073 0.0078401 0.0070064)
(-0.00836437 -0.00847062 -0.00126721)
(-0.00640337 -0.00978885 -0.000621609)
(-0.0111162 -0.00198369 -0.00305567)
(0.00434272 -0.000367017 -0.00122014)
(0.00243138 0.00822485 -0.000998885)
(-0.0146731 -0.0046012 -0.000621843)
(0.0209491 0.025441 -0.000781128)
(0.00342485 0.00490028 -0.000603874)
(-0.00330508 0.00967877 -0.00276921)
(0.00446186 0.00243828 5.51205e-05)
(0.00801876 0.000655304 0.000155013)
(0.00472547 0.000773093 0.00027368)
(0.00483899 -4.52358e-05 0.000166229)
(0.000433822 0.00266707 0.00044423)
(0.0010099 -0.00022917 1.73501e-05)
(0.000333726 -0.000111147 1.75991e-05)
(0.00043443 -0.000288282 4.51258e-05)
(0.000616656 -0.000272223 7.39244e-05)
(0.000275062 -0.000122981 1.83532e-05)
(0.000835969 -4.62088e-05 -1.38843e-06)
(0.000611401 -4.59072e-05 -1.82868e-06)
(0.00113556 -0.000108286 -1.47683e-06)
(0.000593955 -5.89392e-05 -5.43475e-06)
(0.000600887 -9.75844e-05 -2.48739e-06)
(0.000993524 -0.000105978 -5.16471e-06)
(0.00104736 -0.000194591 2.2484e-06)
(0.000578692 -5.81675e-05 -4.56577e-06)
(0.00104846 -7.76995e-05 -1.31327e-06)
(0.000972575 -9.31865e-05 -5.54408e-06)
(0.000819817 -1.44578e-05 -4.74601e-08)
(0.000857969 -2.53361e-06 -7.41996e-07)
(0.00110179 -1.97912e-05 1.4197e-07)
(0.000815064 -1.17401e-05 2.05668e-08)
(0.00081445 -1.17804e-05 -2.34e-07)
(0.00108931 -2.16862e-05 1.75298e-07)
(0.000810601 -6.63918e-06 4.44985e-08)
(0.000815692 -5.53934e-06 1.01943e-07)
(0.00108408 -1.14354e-05 1.82835e-07)
(0.000807404 -4.23139e-06 4.52242e-08)
(0.000809851 -3.78441e-06 9.53398e-09)
(0.00107856 -7.4226e-06 1.79233e-07)
(0.000804788 -2.63888e-06 4.99111e-08)
(0.000806806 -2.34817e-06 5.2228e-08)
(0.00107481 -4.58146e-06 1.79495e-07)
(0.000802554 -1.68853e-06 5.14397e-08)
(0.000804064 -1.5175e-06 5.07066e-08)
(0.00107155 -2.91054e-06 1.79171e-07)
(0.000800582 -1.09338e-06 5.36212e-08)
(0.0008018 -9.70068e-07 5.08327e-08)
(0.00106872 -1.87209e-06 1.78964e-07)
(0.000798839 -7.45914e-07 5.40524e-08)
(0.00079982 -6.9732e-07 5.21492e-08)
(0.00106624 -1.21237e-06 1.83072e-07)
(0.000797175 -6.00996e-07 3.37446e-08)
(0.000797983 -5.317e-07 5.09498e-08)
(0.00106394 -8.80864e-07 1.75343e-07)
(0.000795588 -5.6244e-07 4.71558e-08)
(0.000796251 1.66516e-07 3.88354e-08)
(0.00106185 -7.78597e-07 2.16058e-07)
(0.000793534 -4.27488e-07 6.18945e-08)
(0.000794628 4.26579e-07 5.97794e-08)
(0.00105939 -7.45251e-07 9.9497e-08)
(0.000792154 -2.34567e-07 1.33311e-07)
(0.000793055 -3.40419e-07 3.56945e-08)
(0.00105714 -4.07811e-07 1.78961e-07)
(0.000790679 -9.97107e-08 1.36567e-07)
(0.000791508 -4.57783e-07 8.42725e-08)
(0.00105522 -2.347e-07 2.10955e-07)
(0.000789357 1.9291e-08 5.1216e-08)
(0.000790041 -2.34313e-07 4.99131e-08)
(0.00105334 -6.21351e-08 1.8061e-07)
(0.000787686 8.7915e-08 6.18927e-08)
(0.000788485 -3.75941e-07 3.04666e-08)
(0.00105143 7.86102e-08 2.48584e-07)
(0.000785906 -2.08947e-08 6.73406e-08)
(0.000786768 -2.4383e-07 6.92127e-08)
(0.00104905 1.3533e-07 1.87127e-07)
(0.000784269 -1.3691e-07 4.74825e-08)
(0.000785227 -5.2665e-07 8.31973e-08)
(0.00104674 -2.10684e-07 2.29165e-07)
(0.000782932 -1.16167e-07 5.28381e-08)
(0.000783761 -2.77415e-07 3.73014e-08)
(0.00104475 -1.54354e-07 1.78338e-07)
(0.000781489 -8.64802e-08 6.69086e-08)
(0.000782299 -1.78812e-09 6.72264e-08)
(0.00104294 -1.25022e-07 1.73123e-07)
(0.000779881 -8.53148e-08 2.96577e-08)
(0.000780794 -7.66671e-08 5.98916e-08)
(0.00104074 -6.3721e-08 1.97742e-07)
(0.000778777 1.49314e-07 9.95686e-09)
(0.000779568 4.74811e-07 1.76949e-08)
(0.00103903 -1.11469e-07 6.21844e-08)
(0.000777617 4.31831e-07 1.18267e-07)
(0.00077825 7.25469e-07 2.99932e-08)
(0.00103766 5.74953e-07 8.66816e-08)
(0.000776081 4.69722e-07 1.42029e-07)
(0.000776612 3.41814e-07 1.3967e-07)
(0.00103564 6.84001e-07 1.73051e-07)
(0.000775201 4.56082e-07 2.85602e-08)
(0.000775363 4.64771e-07 3.79071e-08)
(0.00103426 6.77295e-07 1.19337e-07)
(0.000772953 3.42213e-07 -1.75348e-08)
(0.000773895 -6.83267e-08 1.65353e-08)
(0.00103227 5.78192e-07 5.95231e-08)
(0.000771257 1.32293e-07 3.08004e-08)
(0.000772108 -4.62897e-08 1.19227e-08)
(0.00102932 3.34931e-07 -2.8518e-08)
(0.00077011 6.08318e-08 6.91807e-08)
(0.000770746 4.27768e-07 7.1223e-08)
(0.00102747 1.78114e-08 1.598e-07)
(0.000768739 6.34844e-08 5.71822e-08)
(0.000769485 -1.19373e-07 4.93947e-08)
(0.00102589 1.30959e-07 1.72795e-07)
(0.000767373 -2.36262e-08 5.73218e-08)
(0.000768042 7.64112e-08 6.01028e-08)
(0.00102402 3.5518e-08 1.65441e-07)
(0.000765881 -1.26113e-07 3.9284e-08)
(0.000766657 -1.04283e-07 4.54479e-08)
(0.00102211 -6.97533e-08 1.8685e-07)
(0.000764267 -1.29058e-07 4.60648e-08)
(0.000765103 -2.90776e-07 1.98204e-08)
(0.00102008 -2.20501e-07 1.47029e-07)
(0.000762747 -4.30442e-08 6.95589e-08)
(0.000763536 -2.98432e-07 5.2895e-08)
(0.00101788 -8.52276e-08 2.09182e-07)
(0.000761401 3.1225e-08 5.98126e-08)
(0.000762171 1.96627e-07 6.22398e-08)
(0.00101591 -1.86867e-08 1.78248e-07)
(0.00076005 2.72398e-07 1.03325e-07)
(0.000760858 2.61902e-07 5.50488e-08)
(0.00101412 1.07115e-07 1.40853e-07)
(0.000758744 5.13783e-07 1.41779e-07)
(0.000759517 3.3192e-07 1.89438e-07)
(0.00101245 6.55678e-07 1.74603e-07)
(0.000758047 4.23495e-07 1.04969e-07)
(0.000758322 -2.56568e-07 1.74145e-08)
(0.00101119 7.43488e-07 1.43338e-07)
(0.000756414 2.92267e-07 6.29323e-08)
(0.000757053 1.18724e-07 6.77742e-08)
(0.00100954 4.17932e-07 1.80524e-07)
(0.000755022 3.60398e-07 2.59809e-08)
(0.000755691 1.19356e-07 4.973e-08)
(0.00100757 4.12831e-07 1.68713e-07)
(0.000753194 4.21031e-07 4.76096e-08)
(0.000754226 -4.49906e-08 4.0447e-08)
(0.00100542 5.54786e-07 1.21682e-07)
(0.000751723 2.73366e-07 7.87813e-08)
(0.000752458 4.11742e-07 6.6397e-08)
(0.00100311 5.36922e-07 1.62549e-07)
(0.00075051 1.1065e-07 9.30195e-08)
(0.000750957 2.50694e-07 6.17062e-08)
(0.00100126 1.71053e-07 1.91732e-07)
(0.000749985 -7.42183e-07 1.42196e-07)
(0.00100004 1.21538e-07 1.88173e-07)
(0.00463075 -0.000684045 0.00479134)
(-0.00630957 0.00223516 0.00194321)
(-0.00472634 0.00121239 0.00144184)
(-0.0451373 0.0160413 -0.0569851)
(-0.0537368 0.00327805 -4.91061e-05)
(-0.0578771 -0.00506148 0.136303)
(-0.134526 -0.0275512 -0.0809564)
(-0.000680022 0.00493737 -0.00239894)
(-0.0100366 -0.00178567 -0.00281058)
(-0.0111866 0.0105918 -0.000723914)
(-0.015777 0.000150248 0.00224943)
(-0.0176332 0.0222932 0.030646)
(-0.0389286 0.00856813 -0.0838414)
(-0.00532187 -0.00621276 0.0681372)
(0.0118298 -0.00336896 -0.0166771)
(0.0355216 0.0110698 -0.000259787)
(0.0124294 0.027646 -0.00146422)
(0.0232446 0.0249002 -0.00330533)
(0.0152474 0.0037245 -0.00184922)
(0.0151657 0.0112724 -0.00167822)
(0.00137934 0.00693345 0.000764261)
(0.000674366 0.00823862 -0.000558293)
(0.00740219 0.00700493 -0.00058497)
(0.00590297 0.018762 -0.000253987)
(-0.00551336 0.00233472 -0.000715654)
(0.00439631 0.0182523 0.00106099)
(0.00769892 0.014328 0.00258546)
(-0.00381612 0.01064 0.000255267)
(0.0117386 0.0270536 0.000700204)
(0.00997683 0.0194343 0.00156208)
(0.00676172 0.0217068 0.000622126)
(0.0108609 0.00920801 0.000443751)
(0.0103102 0.0236067 -0.000284972)
(-0.00608788 0.000233973 -0.000213823)
(-0.0142659 -0.00209468 0.000125003)
(-0.00400395 -0.00467943 -8.98699e-05)
(-0.00662024 -0.00258414 -0.000259652)
(-0.012301 -0.00410082 -0.000674087)
(0.000938168 -0.000493741 4.76106e-05)
(0.00139005 -0.000179072 1.03094e-05)
(0.00146355 0.00016834 -4.08697e-05)
(0.00175466 0.000174638 -8.46082e-05)
(0.00166386 -5.68357e-05 2.31886e-05)
(0.000358365 -3.5728e-05 -3.32324e-06)
(0.000504201 -3.44972e-05 -3.59508e-06)
(0.000503088 -2.30377e-05 -5.69151e-07)
(0.000819747 -5.81379e-05 -1.79721e-06)
(0.000344716 -3.043e-05 -1.59697e-06)
(0.000660096 -7.4601e-05 -4.88871e-06)
(0.000640619 -6.05079e-05 1.32573e-06)
(0.000828743 -2.97115e-06 -9.28702e-07)
(0.000889526 2.37709e-06 -1.36698e-06)
(0.00118951 2.56959e-07 -1.03318e-06)
(0.000607487 -2.29106e-05 -4.1357e-06)
(0.000623972 -3.8546e-08 -4.82606e-06)
(0.00100594 -5.54359e-05 -5.11422e-06)
(0.00104175 -1.72083e-06 -6.19417e-06)
(0.000819881 -4.96602e-06 -1.52734e-07)
(0.000811942 -1.05203e-06 -4.39056e-07)
(0.00108436 -9.56545e-06 6.18857e-08)
(0.000813775 -2.64761e-06 6.70083e-08)
(0.000818615 -3.31436e-07 1.64207e-07)
(0.0010921 -4.44667e-06 2.06266e-07)
(0.000809386 -1.79654e-06 1.65239e-08)
(0.00081093 -3.0652e-07 1.00038e-07)
(0.00108164 -3.08601e-06 1.77453e-07)
(0.000805961 -1.14268e-06 5.3024e-08)
(0.000807633 -1.36845e-07 1.65967e-07)
(0.00107702 -2.00527e-06 1.82583e-07)
(0.000803256 -7.01724e-07 5.00995e-08)
(0.000804621 -1.39892e-07 5.09373e-08)
(0.00107282 -1.24213e-06 1.79191e-07)
(0.000801007 -4.29925e-07 4.93603e-08)
(0.000802143 -1.38281e-07 4.69192e-08)
(0.00106951 -7.2147e-07 1.78256e-07)
(0.000798972 -3.15493e-07 4.9047e-08)
(0.000799965 -1.05846e-07 3.92985e-08)
(0.00106664 -4.49259e-07 1.7713e-07)
(0.000797023 -2.91057e-07 5.60446e-08)
(0.000798014 -4.5849e-08 4.96796e-08)
(0.001064 -3.91193e-07 1.77397e-07)
(0.000795321 -3.11908e-07 5.14523e-08)
(0.000796226 1.57656e-07 5.75018e-08)
(0.00106145 -3.58132e-07 1.90622e-07)
(0.000794111 -2.63924e-07 3.35871e-08)
(0.000794689 -1.70015e-08 4.51187e-08)
(0.00105959 -4.34943e-07 1.78699e-07)
(0.000792381 -2.01572e-07 -1.33594e-08)
(0.000793134 -8.91292e-08 6.05048e-08)
(0.00105769 -2.63926e-07 1.76073e-07)
(0.000790858 -2.10725e-07 -2.36997e-09)
(0.000791497 -1.27684e-07 4.67406e-09)
(0.00105548 -3.04896e-07 1.5292e-07)
(0.000789238 -2.72792e-07 2.91699e-08)
(0.000789965 -9.03814e-08 4.3535e-08)
(0.00105342 -2.89253e-07 1.74811e-07)
(0.000787552 -3.03832e-07 3.77741e-08)
(0.000788448 9.35057e-07 3.84193e-08)
(0.0010512 -4.58773e-07 9.95934e-08)
(0.000786026 -2.15984e-07 8.5065e-08)
(0.000786879 -5.61412e-08 8.1661e-08)
(0.00104898 -3.65962e-07 1.6426e-07)
(0.00078472 -5.38677e-08 7.30308e-08)
(0.00078543 3.83246e-08 9.91344e-08)
(0.00104718 -2.31982e-07 1.18989e-07)
(0.000783095 1.38992e-07 5.16802e-08)
(0.000784002 2.92603e-07 5.90615e-08)
(0.00104525 5.67691e-08 1.46771e-07)
(0.000781672 2.89371e-07 6.02116e-08)
(0.000782486 -2.81867e-08 6.46593e-08)
(0.0010431 2.96651e-07 1.71071e-07)
(0.000780348 5.32432e-07 4.7942e-08)
(0.000781095 4.78778e-07 5.40212e-08)
(0.00104125 5.04055e-07 1.21752e-07)
(0.000779202 6.22192e-07 3.77274e-08)
(0.000779677 7.98516e-07 2.78215e-08)
(0.00103974 1.01229e-06 1.2249e-07)
(0.000777173 4.32126e-07 5.13619e-08)
(0.000778008 3.45667e-07 3.30576e-08)
(0.00103763 7.72738e-07 2.50138e-07)
(0.0007758 3.89097e-07 3.55801e-08)
(0.000776555 3.3417e-07 3.73643e-08)
(0.00103525 5.22915e-07 1.66157e-07)
(0.000774295 1.78938e-07 2.58889e-08)
(0.000775097 2.668e-07 1.27735e-08)
(0.00103328 6.78067e-07 1.91468e-07)
(0.000772904 -9.41182e-08 4.59942e-08)
(0.000773552 -1.56138e-07 1.80826e-07)
(0.0010314 -4.50546e-08 1.7367e-07)
(0.000771501 -1.20331e-08 5.23267e-08)
(0.00077221 -3.08235e-08 4.85903e-08)
(0.00102958 -1.11137e-07 1.67641e-07)
(0.000770233 4.47759e-08 5.14438e-08)
(0.000770817 2.70274e-07 5.52983e-08)
(0.00102774 1.07476e-07 1.67971e-07)
(0.000768733 -1.22974e-09 5.23119e-08)
(0.000769427 -2.50189e-08 4.61354e-08)
(0.00102596 2.50488e-08 1.708e-07)
(0.000767346 -7.03331e-08 4.82335e-08)
(0.000767956 -4.18645e-08 -3.11895e-08)
(0.00102399 -3.14445e-08 1.76052e-07)
(0.000765931 -1.86673e-07 2.59923e-08)
(0.000766512 -1.71311e-07 4.91612e-08)
(0.00102218 -1.64697e-07 1.75015e-07)
(0.000764264 -2.22008e-07 2.66404e-08)
(0.00076506 -2.22323e-07 2.96549e-08)
(0.00102005 -3.67415e-07 1.87902e-07)
(0.000763005 -9.34448e-08 4.5573e-08)
(0.000763697 -2.02621e-07 -2.58031e-08)
(0.001018 -2.9999e-07 1.49462e-07)
(0.000761657 6.9458e-08 5.74783e-08)
(0.000762375 5.88011e-08 6.22951e-08)
(0.00101629 7.85355e-09 1.74269e-07)
(0.000760292 2.07424e-07 1.41121e-07)
(0.000761029 1.32377e-07 2.29883e-07)
(0.00101466 2.33152e-07 1.75277e-07)
(0.000758986 3.78385e-07 6.51263e-08)
(0.000759729 4.0053e-07 1.14087e-07)
(0.0010128 4.2294e-07 1.55731e-07)
(0.000757442 3.16401e-07 -1.97958e-08)
(0.000758243 -7.08037e-07 -1.79521e-08)
(0.00101083 6.40557e-07 2.15025e-07)
(0.000756296 1.33632e-07 5.45774e-08)
(0.000756823 2.32398e-07 6.72169e-08)
(0.00100905 2.13733e-07 1.38041e-07)
(0.00075499 9.41434e-08 6.4199e-08)
(0.000755641 5.06175e-08 5.3853e-08)
(0.00100737 1.44e-07 1.65887e-07)
(0.000753532 2.31949e-07 5.92265e-08)
(0.000754398 1.08685e-06 3.68932e-08)
(0.00100562 9.37297e-08 9.23417e-08)
(0.000751517 3.21006e-07 4.93233e-08)
(0.000752568 1.24632e-06 3.03343e-08)
(0.00100322 4.73853e-07 1.64818e-07)
(0.000750375 2.52796e-07 1.10858e-07)
(0.000750868 -1.96643e-08 5.46227e-08)
(0.00100107 3.37395e-07 1.65936e-07)
(0.00074967 -1.22048e-06 1.12711e-07)
(0.000999682 3.3222e-07 2.02505e-07)
(0.0216905 -0.0127023 -0.000461519)
(0.0190148 -0.00443633 -2.42616e-05)
(0.0157138 -0.00161675 -0.00222387)
(0.0713471 -0.00335356 0.0414123)
(0.100549 0.00581642 -0.0206355)
(0.0191611 -0.0328383 0.00989749)
(0.0236509 -0.00398599 -0.0398054)
(-0.00428404 -0.00936168 0.000244651)
(0.000448259 -0.00342994 -3.88298e-05)
(-0.00286243 -0.0146039 -0.000921306)
(-0.00854022 -0.00834055 -0.000527118)
(-0.0113926 -0.00930208 0.00207671)
(0.00430692 0.00132111 7.10984e-05)
(0.00521165 0.0214946 -8.28593e-05)
(0.00659281 0.000903448 -0.00157368)
(0.00981964 0.0058192 0.000257019)
(0.00826249 0.00496296 0.000857982)
(-0.00470959 -0.000570326 0.00692447)
(0.00167931 -0.017296 0.00556506)
(0.00566387 -0.00245449 0.00396597)
(0.000166401 -0.00930574 0.00256128)
(-0.0205035 -0.00675685 -0.00656748)
(-0.0170019 -0.00892419 0.0012832)
(-0.0298537 -0.00666992 0.0291612)
(-0.0187731 -0.0271235 -0.0182552)
(-0.00435527 -0.00966269 -0.00108811)
(0.0169403 -0.00917584 0.00451883)
(0.00480381 0.00887142 0.00147678)
(-0.00185266 0.00182303 0.00315684)
(0.0220278 -0.0145498 0.114409)
(-0.00886842 -0.0181667 -0.0542941)
(0.0113934 -0.00660623 0.0748969)
(0.0036319 0.00222951 -0.146304)
(-0.00523693 0.0023038 -0.000508472)
(-0.0183137 -0.00327897 0.00215893)
(-0.00122004 0.000946107 -0.000365219)
(-0.0138791 -0.00121574 -0.000335749)
(-0.0199436 2.87028e-06 -0.00120225)
(0.000423309 0.000642887 6.21768e-05)
(0.00162896 0.000676431 5.38497e-05)
(0.00126826 0.000634245 0.000132438)
(0.00101479 0.000656734 -5.17074e-05)
(0.00107066 0.000336331 6.99961e-05)
(0.000338375 1.3088e-05 -1.82639e-06)
(0.000494175 9.00642e-06 -3.26745e-06)
(0.000453401 3.88902e-07 -6.5274e-07)
(0.000759044 1.31353e-05 -7.41996e-07)
(0.00032748 9.29607e-06 -1.08033e-06)
(0.000633588 2.88872e-05 3.16596e-06)
(0.000616127 1.88563e-05 5.18068e-06)
(0.000485021 8.19621e-06 -5.27134e-07)
(0.000827074 4.24185e-06 -8.7764e-07)
(0.000886071 9.40766e-06 -1.42755e-06)
(0.00118707 7.65512e-06 -1.02758e-06)
(0.000614633 8.15429e-06 -3.71431e-06)
(0.00061638 4.46274e-06 -4.76017e-06)
(0.00102066 1.63435e-05 -4.54468e-06)
(0.00102785 8.62884e-06 -6.10125e-06)
(0.000819753 2.85082e-06 -1.22313e-07)
(0.000810203 7.26142e-06 -4.66332e-07)
(0.00108338 5.0435e-06 9.69091e-08)