/*--------------------------------*- C++ -*----------------------------------*\
| =========                 |                                                 |
| \\      /  F ield         | OpenFOAM: The Open Source CFD Toolbox           |
|  \\    /   O peration     | Version:  5.0                                   |
|   \\  /    A nd           | Web:      www.OpenFOAM.org                      |
|    \\/     M anipulation  |                                                 |
\*---------------------------------------------------------------------------*/
FoamFile
{
    version     2.0;
    format      ascii;
    class       surfaceVectorField;
    location    "1.6";
    object      Uf_0;
}
// * * * * * * * * * * * * * * * * * * * * * * * * * * * * * * * * * * * * * //

dimensions      [0 1 -1 0 0 0 0];

internalField   nonuniform List<vector> 
25552
(
(-0.00266099 0.000658652 -0.000243066)
(-0.00278394 -0.000118422 -2.08088e-05)
(-0.00450587 -0.00217307 4.48968e-05)
(-0.00275331 0.000586849 -7.13665e-05)
(-0.0025349 -0.00199242 0.000118447)
(-0.00212985 -0.000437077 -0.00123414)
(-0.0026568 -0.00271146 -0.000198604)
(0.000931198 -0.00959623 0.000126339)
(-0.00385009 0.00334265 0.000673311)
(-0.00620491 0.00142041 -1.79806e-05)
(0.00287694 -0.0125623 0.000891132)
(-0.00669919 -0.0094662 -0.00157379)
(-0.00483568 -0.000523313 -0.000271724)
(-0.00555065 -0.0029994 0.000128329)
(-0.00494995 0.00258409 -0.000513097)
(-0.00385009 0.00334265 0.000673311)
(-0.00385009 0.00334265 0.000673311)
(-0.00385009 0.00334265 0.000673311)
(-0.00190506 -0.00510337 -0.000432723)
(-0.00308212 -0.005697 -0.000515243)
(-0.0032124 -0.00576584 -0.000216102)
(0.00792519 0.00383413 -8.77536e-06)
(0.0131121 0.00888935 0.000145711)
(0.00930542 0.00830286 -0.000978104)
(0.00210147 0.00305944 -0.000417269)
(0.00556534 -0.00690416 -0.0007617)
(0.002032 0.00266691 0.000151531)
(0.00415676 0.0208084 -0.0019614)
(-0.00206686 0.00675821 0.000436204)
(-2.74029e-05 0.0192668 0.00148832)
(0.00232726 0.0117243 -0.00100982)
(0.022232 -0.00664223 -0.00383806)
(0.0161294 -0.000711922 0.00173436)
(0.0116139 -0.00818128 -0.00165349)
(0.0286805 -0.00607118 0.00563651)
(0.00333444 0.00614819 -0.0012667)
(0.000123289 -0.00279144 -9.00952e-05)
(-0.0067392 0.00348161 -0.00076803)
(-0.00644975 -0.0101069 -0.000439699)
(0.000439756 -4.3589e-05 6.16243e-06)
(0.000483459 -1.8579e-05 -2.11773e-06)
(0.00044656 6.94253e-06 -9.87314e-07)
(0.000806028 -5.4383e-05 1.06762e-05)
(0.000409276 7.37665e-05 -2.48923e-06)
(0.000929329 -0.000125747 2.16008e-05)
(0.000834659 0.00018676 -3.10507e-06)
(0.000781904 -2.1146e-05 -1.40906e-06)
(0.000790287 -2.49112e-05 -2.17567e-06)
(0.00105971 -4.66947e-05 -1.58182e-06)
(0.000566693 -2.07726e-05 -4.00902e-06)
(0.000547543 -9.88461e-06 -3.38109e-06)
(0.00097036 -5.7712e-05 -3.85202e-06)
(0.000945524 -3.04731e-05 -3.4676e-06)
(0.000786436 -1.19448e-05 -1.56253e-07)
(0.000782457 -1.5497e-05 -1.47286e-07)
(0.00104143 -2.65998e-05 1.01106e-07)
(0.000791256 -6.96441e-06 5.23133e-08)
(0.000791699 -1.11397e-05 6.8834e-08)
(0.00105393 -1.59758e-05 1.77855e-07)
(0.000794101 -4.16267e-06 6.46279e-08)
(0.00079477 -7.14948e-06 6.43037e-08)
(0.00105789 -9.42813e-06 1.67798e-07)
(0.000796212 -2.6357e-06 2.78945e-08)
(0.000796682 -4.55442e-06 5.83047e-08)
(0.00106115 -6.01774e-06 1.66049e-07)
(0.00079746 -1.44967e-06 2.62717e-08)
(0.000797766 -2.87178e-06 2.31282e-08)
(0.00106356 -3.76631e-06 1.78187e-07)
(0.000796474 -7.38946e-07 5.26398e-08)
(0.000797546 -2.1583e-06 5.1847e-08)
(0.00106358 -1.83699e-06 1.57956e-07)
(0.000795777 -5.78816e-07 1.84584e-07)
(0.000796564 -1.34397e-06 4.68062e-08)
(0.00106226 -1.22857e-06 1.83637e-07)
(0.000794977 -4.71191e-07 1.87903e-07)
(0.000795666 -1.43737e-06 1.59609e-07)
(0.00106128 -9.96638e-07 2.4249e-07)
(0.000794073 -3.5798e-07 5.83831e-08)
(0.000794574 -6.89945e-07 4.55277e-08)
(0.00106012 -6.68863e-07 1.78511e-07)
(0.000792708 -5.6047e-07 5.51373e-08)
(0.000793167 -7.05124e-07 6.33284e-08)
(0.0010587 -4.98741e-07 1.61102e-07)
(0.00079014 -7.47391e-07 7.47023e-08)
(0.00079163 1.87595e-06 5.08401e-08)
(0.00105592 -1.0252e-06 1.6333e-07)
(0.000789575 -5.90076e-07 8.71014e-08)
(0.00079034 -3.38564e-07 6.71932e-08)
(0.00105385 -8.99629e-07 2.71953e-07)
(0.000788359 -2.5833e-07 6.87601e-08)
(0.000789191 -7.69699e-08 8.96841e-08)
(0.00105278 -5.96288e-07 2.33033e-07)
(0.000786963 -5.63545e-08 4.45826e-08)
(0.000787716 -5.68242e-07 6.1937e-08)
(0.00105092 -2.21469e-08 1.71085e-07)
(0.000785335 -1.82073e-08 3.40296e-08)
(0.000786098 2.94148e-07 3.30363e-08)
(0.0010489 -6.59049e-08 1.52271e-07)
(0.000783685 1.28718e-07 6.16387e-08)
(0.000784646 3.17199e-08 3.44449e-08)
(0.00104674 6.57319e-08 1.78133e-07)
(0.000782542 2.15073e-07 6.69965e-08)
(0.000783166 -9.23968e-07 5.32879e-08)
(0.00104491 3.3094e-07 2.14584e-07)
(0.000780975 1.85275e-07 4.88915e-08)
(0.000781626 3.75973e-07 5.64709e-08)
(0.00104308 3.37267e-07 1.74008e-07)
(0.000779553 1.02488e-07 4.46495e-08)
(0.000780091 2.55596e-07 7.7494e-08)
(0.00104104 2.44092e-07 1.53634e-07)
(0.000778278 9.0045e-08 4.81452e-08)
(0.000778749 -1.50756e-07 4.83838e-08)
(0.00103946 6.90479e-08 1.72821e-07)
(0.000775723 -7.60894e-08 5.77593e-08)
(0.000776882 1.15868e-06 5.94325e-08)
(0.00103678 1.77191e-07 2.35946e-07)
(0.000774441 -4.77022e-07 4.43667e-09)
(0.000774968 -2.57044e-08 7.93412e-08)
(0.00103412 -4.06535e-07 1.76555e-07)
(0.000773056 -5.9512e-07 -2.57125e-08)
(0.000773783 1.9675e-06 4.00821e-08)
(0.00103253 -9.08224e-07 -2.76243e-08)
(0.000771269 -4.28858e-07 4.5113e-08)
(0.000772391 1.13272e-06 2.64026e-08)
(0.00103027 -7.12861e-07 8.77112e-08)
(0.000770071 -1.44359e-07 4.50787e-08)
(0.000771023 3.96491e-07 1.37964e-07)
(0.00102827 -4.46583e-07 1.61756e-07)
(0.0007693 7.71967e-08 2.55864e-08)
(0.000769824 7.53311e-07 1.41775e-07)
(0.00102716 6.04828e-08 1.48678e-08)
(0.000767423 6.78062e-08 5.08522e-08)
(0.00076823 2.21658e-07 4.68972e-08)
(0.00102537 1.60213e-07 1.55569e-07)
(0.000765914 6.80818e-08 4.84398e-08)
(0.000766609 1.21848e-07 4.70386e-08)
(0.00102302 5.64992e-08 1.70945e-07)
(0.000764153 1.35478e-07 2.85201e-08)
(0.000765126 2.2994e-08 4.19201e-08)
(0.00102084 1.32954e-07 1.65982e-07)
(0.00076275 2.77053e-07 1.55975e-08)
(0.000763592 1.41879e-07 3.50746e-08)
(0.00101863 2.31964e-07 1.62977e-07)
(0.000761196 4.21732e-07 3.83263e-08)
(0.000762079 2.81847e-07 1.74685e-08)
(0.00101676 5.61702e-07 1.82882e-07)
(0.000760326 2.81218e-07 4.46573e-08)
(0.00076067 -9.4296e-07 3.30961e-08)
(0.0010153 5.96841e-07 1.89895e-07)
(0.000758746 6.22671e-08 4.44255e-08)
(0.000759272 1.68564e-07 4.20128e-08)
(0.00101355 1.54178e-07 1.68558e-07)
(0.000757224 -9.78251e-08 7.72988e-08)
(0.000757741 -2.2143e-08 6.30073e-08)
(0.00101135 2.52601e-08 1.75015e-07)
(0.00075582 -2.55062e-07 1.62449e-07)
(0.000756412 -3.48092e-07 6.17463e-08)
(0.00100969 -3.14595e-07 1.77145e-07)
(0.000754502 -2.07195e-07 1.34963e-07)
(0.00075513 -3.49032e-07 1.89759e-07)
(0.00100774 -3.98117e-07 1.74176e-07)
(0.000752827 -5.41e-08 2.74497e-08)
(0.000753691 2.03719e-07 3.96241e-08)
(0.00100567 -1.74644e-07 1.66567e-07)
(0.000751379 -5.81718e-08 3.37899e-08)
(0.000752152 8.49247e-08 3.63059e-08)
(0.00100367 -3.16956e-08 1.25778e-07)
(0.000750111 -2.93148e-07 4.4919e-08)
(0.000750713 -3.13085e-07 5.55646e-08)
(0.00100177 -1.64785e-07 1.79154e-07)
(0.000748679 -4.12533e-07 1.85639e-08)
(0.000749386 -3.13005e-07 2.66632e-08)
(0.00100015 -5.92746e-07 1.66184e-07)
(0.000746996 -2.89218e-07 3.56374e-08)
(0.000747825 9.51203e-07 4.04023e-08)
(0.000997966 -4.71467e-07 8.88693e-08)
(0.000746518 -4.59229e-07 5.1534e-08)
(0.000995724 -3.03494e-07 2.51121e-07)
(-0.00262819 -0.0017548 0.000335184)
(-0.00467311 -0.00113137 0.000552001)
(-0.00268289 -0.00122908 0.00032475)
(-0.00531607 -0.0117319 -7.14619e-05)
(0.00390364 -0.0296861 0.000441415)
(-1.2374e-05 -0.0112667 0.000162713)
(-0.00223454 -0.00956652 0.00238193)
(-0.00223454 -0.00956652 0.00238193)
(-0.00223454 -0.00956652 0.00238193)
(-0.00223454 -0.00956652 0.00238193)
(-0.0144962 0.00969645 -0.00239594)
(0.01247 -0.00496921 -0.00252331)
(0.0248669 0.0224875 -0.00687012)
(0.0326695 0.00997821 -0.00128301)
(0.0200128 0.0387161 -0.00235528)
(-0.000631561 -0.0056671 0.000103102)
(-0.00409177 -0.00421443 -0.000397088)
(0.00799583 -0.00525708 0.000436854)
(-0.0229667 -0.0146898 -0.000947582)
(-0.0021086 -0.0103672 0.000224639)
(-0.0029872 -0.00150172 0.00083006)
(-0.0154104 -0.0475799 0.00337071)
(-0.0261216 -0.0583047 0.00870289)
(-0.00560407 -0.0070683 0.000148183)
(-0.00240913 -0.00929172 0.000349477)
(-0.00551253 -0.00781137 0.000254455)
(-0.00149683 -0.0173899 -0.0010694)
(-0.00729374 -0.0130211 0.000954293)
(0.00132443 -1.26062e-05 0.000167735)
(0.0039322 -0.00444009 5.1515e-05)
(-0.0030291 0.0010268 8.68693e-05)
(0.0118662 -0.00301389 0.000269855)
(-0.00649163 0.00350759 0.000787711)
(0.000155085 -5.49778e-05 1.102e-05)
(0.000401764 2.09846e-05 -1.92283e-06)
(0.000432641 2.54873e-05 -3.27183e-06)
(0.000659668 6.53621e-05 -2.8019e-06)
(0.000453278 -7.66134e-05 4.17976e-06)
(3.45497e-05 -0.000126105 3.42409e-05)
(0.00102182 0.000195546 -5.85874e-05)
(0.000270425 5.05398e-05 1.06582e-05)
(0.000203433 8.96041e-05 3.07663e-05)
(0.000474657 1.11964e-05 -4.84391e-06)
(0.000257686 1.73491e-05 -2.31008e-06)
(0.000783267 -3.25623e-05 -9.14564e-07)
(0.000810718 -6.56992e-05 -2.48841e-06)
(0.00105868 -6.42308e-05 -1.31516e-06)
(0.000554737 -1.15585e-05 -4.09144e-06)
(0.00052575 -3.81915e-05 -4.02261e-06)
(0.000958651 -1.90703e-05 -4.59892e-06)
(0.00089889 -7.77015e-05 -4.21874e-06)
(0.000790549 -2.0032e-05 7.77302e-08)
(0.00079862 -2.64879e-05 2.11615e-08)
(0.0010512 -3.7001e-05 1.71659e-07)
(0.000795686 -1.34338e-05 8.08258e-08)
(0.000800098 -1.96251e-05 3.34428e-08)
(0.0010617 -2.54978e-05 1.87883e-07)
(0.00079773 -8.45059e-06 5.79824e-08)
(0.000801095 -1.16656e-05 5.20816e-08)
(0.00106489 -1.59847e-05 1.80826e-07)
(0.000798482 -5.33672e-06 5.35499e-08)
(0.000800634 -7.43502e-06 4.63152e-08)
(0.00106602 -1.00594e-05 1.79372e-07)
(0.00079837 -3.5461e-06 4.86942e-08)
(0.000800042 -4.68092e-06 4.87258e-08)
(0.00106605 -6.33602e-06 1.80593e-07)
(0.000797578 -2.39963e-06 4.6015e-08)
(0.000799003 -3.07263e-06 4.7267e-08)
(0.00106517 -4.45218e-06 1.77548e-07)
(0.000796513 -1.51165e-06 2.17948e-08)
(0.000797689 -1.90466e-06 4.85216e-08)
(0.00106371 -2.77187e-06 1.76228e-07)
(0.000795346 -9.6673e-07 1.72713e-08)
(0.000796357 -1.07911e-06 2.62581e-08)
(0.00106217 -1.79791e-06 1.21778e-07)
(0.000793769 -6.56707e-07 5.04673e-08)
(0.000794968 -5.67511e-07 4.55186e-08)
(0.00106035 -1.1324e-06 1.73355e-07)
(0.000791992 -5.12503e-07 5.90352e-08)
(0.000793352 -9.13407e-07 2.22253e-08)
(0.00105801 -8.51273e-07 2.13327e-07)
(0.000791817 -2.23244e-07 4.33257e-08)
(0.000791994 -1.1676e-07 8.41511e-08)
(0.00105663 -6.62934e-07 1.9828e-07)
(0.000789939 9.56821e-08 6.97687e-08)
(0.00079074 4.82699e-08 3.65749e-08)
(0.0010552 -3.79462e-08 1.80919e-07)
(0.000788709 1.36858e-07 8.28699e-08)
(0.000789243 -4.90405e-07 5.32214e-08)
(0.00105317 1.96896e-07 1.80015e-07)
(0.000786782 1.39311e-07 5.03999e-08)
(0.000787718 -4.01948e-08 5.158e-08)
(0.00105107 1.11777e-07 1.74892e-07)
(0.000785455 1.8423e-07 3.34512e-08)
(0.000786153 -4.20181e-07 3.81129e-08)
(0.00104878 2.66069e-07 2.08866e-07)
(0.000784051 2.27859e-07 2.60882e-08)
(0.000784699 1.5306e-07 1.5135e-08)
(0.00104715 2.87338e-07 1.57114e-07)
(0.000782268 1.47431e-07 4.27613e-08)
(0.000783064 -1.39199e-07 4.03421e-08)
(0.00104506 3.79327e-07 1.43612e-07)
(0.000780765 -3.61709e-08 8.50667e-08)
(0.000781396 1.08998e-07 4.26276e-08)
(0.00104273 5.6389e-08 1.92435e-07)
(0.000779207 -1.80529e-07 8.12376e-08)
(0.000779911 3.49118e-08 6.09093e-08)
(0.00104068 -1.04652e-07 1.93846e-07)
(0.000777663 -5.64615e-07 5.96676e-08)
(0.000778271 -1.84748e-07 5.37237e-08)
(0.00103871 -3.42238e-07 1.79483e-07)
(0.000775847 -6.71833e-07 8.10081e-08)
(0.00077675 1.3934e-06 7.44619e-09)
(0.00103644 -1.15544e-06 1.84385e-07)
(0.000774225 -4.45389e-07 1.14999e-07)
(0.000775254 -2.62546e-07 5.75363e-08)
(0.00103404 -6.38597e-07 2.00328e-07)
(0.000773257 -3.19575e-07 9.22015e-08)
(0.000773942 2.99401e-08 1.12604e-07)
(0.00103247 -5.44737e-07 2.63026e-07)
(0.00077204 9.30324e-08 1.19219e-07)
(0.000772907 -6.83737e-08 6.1222e-08)
(0.00103101 -3.00097e-07 2.33054e-07)
(0.00077083 5.49348e-07 2.34659e-07)
(0.000771593 5.51167e-07 2.4188e-07)
(0.00102939 5.88209e-07 1.36267e-07)
(0.000768847 4.73691e-07 1.63116e-07)
(0.000769728 5.2764e-07 1.98788e-07)
(0.00102734 9.2184e-07 2.32129e-07)
(0.000767285 2.39538e-07 4.30835e-08)
(0.000767935 3.09088e-07 6.90669e-08)
(0.0010249 3.49987e-07 1.72472e-07)
(0.000765893 2.0838e-07 4.05204e-08)
(0.000766569 4.76463e-08 4.53001e-08)
(0.0010229 2.88267e-07 1.68964e-07)
(0.000764545 2.18201e-07 4.84767e-08)
(0.000765138 -1.36926e-07 7.87739e-08)
(0.0010211 2.75528e-07 1.71424e-07)
(0.000762938 3.06565e-07 3.69511e-08)
(0.0007637 2.16419e-07 5.32827e-08)
(0.00101923 3.4613e-07 1.77964e-07)
(0.000761467 4.18107e-07 1.22334e-08)
(0.000762216 4.32674e-07 3.35332e-08)
(0.00101709 5.5629e-07 1.60515e-07)
(0.000759653 2.54544e-07 3.04489e-08)
(0.000760464 -4.79136e-07 6.57761e-08)
(0.00101481 6.31101e-07 1.69182e-07)
(0.000758304 -1.13851e-07 6.05882e-08)
(0.00075881 5.43009e-08 6.013e-08)
(0.00101279 7.97762e-08 1.69181e-07)
(0.000756905 -3.8644e-07 4.74552e-08)
(0.000757401 4.28397e-08 6.19371e-08)
(0.00101089 -3.41931e-07 1.61117e-07)
(0.000755646 -4.03246e-07 8.90167e-08)
(0.000756393 -7.3743e-07 3.60115e-08)
(0.00100911 -6.39968e-07 1.8166e-07)
(0.000754406 -2.11788e-07 9.44664e-08)
(0.000755371 -3.84383e-08 1.1497e-07)
(0.00100765 -4.70113e-07 1.29736e-07)
(0.000753048 -1.27368e-07 4.84814e-08)
(0.000753798 5.63485e-08 6.40956e-08)
(0.00100584 -1.75239e-07 1.73912e-07)
(0.000751374 -6.78554e-08 5.80747e-08)
(0.000752228 -7.17875e-08 4.51893e-08)
(0.00100379 -2.1587e-07 2.03908e-07)
(0.000750052 -6.99034e-08 3.73177e-08)
(0.000750711 1.45393e-07 5.34676e-08)
(0.00100185 1.14248e-08 1.2747e-07)
(0.000748546 -2.06138e-07 4.84975e-08)
(0.000749216 -3.11767e-07 3.12625e-08)
(0.000999939 -1.83154e-07 1.78009e-07)
(0.000747202 -2.43393e-07 5.62956e-08)
(0.000747782 -9.10012e-08 6.89516e-08)
(0.000997939 -3.62108e-07 2.40134e-07)
(0.000746821 1.7385e-07 4.89467e-08)
(0.000996644 -3.00118e-07 8.55515e-08)
(0.0158485 -0.000331037 -0.00192151)
(0.00946274 0.0143151 -0.00216817)
(0.00221588 -0.00147938 -0.00261311)
(0.00231817 -0.00561692 -2.61028e-06)
(-0.00122006 -0.00527141 0.00237489)
(0.00343978 -0.00241492 -0.000362212)
(-0.00663674 0.00330236 -0.00486153)
(0.0031296 -0.00329601 -0.00152382)
(-0.001661 -0.0174151 0.0654291)
(0.0027726 -0.0144832 0.00963428)
(0.00355521 -0.0113176 -0.045419)
(0.0145804 -0.015591 -0.0320302)
(-0.00122006 -0.00527141 0.00237489)
(-0.00122006 -0.00527141 0.00237489)
(-0.00122006 -0.00527141 0.00237489)
(0.00857812 0.00471544 -0.00142847)
(-0.0149406 -0.00102321 -0.000278382)
(-0.00266099 0.000658652 -0.000243066)
(-0.0149406 -0.00102321 -0.000278382)
(-0.00266099 0.000658652 -0.000243066)
(-0.0131703 -0.0175205 0.000762808)
(0.0108648 0.00670063 0.000769886)
(-0.0099458 -0.00302211 -0.000196141)
(-0.00294479 0.0112314 3.93157e-05)
(-0.0127752 0.00102698 -0.0115085)
(-0.000817762 0.00498868 0.013881)
(0.0149876 -0.00178203 -0.00315774)
(-0.00788708 -0.0134652 -2.74751e-05)
(-0.00205185 -0.0112208 0.00169589)
(-0.0100156 -0.00422239 -0.00236138)
(0.00694574 -0.00375917 -0.000182892)
(0.00276348 0.00714265 -0.000753972)
(-0.0132181 -0.00509021 -0.000557185)
(0.0232307 0.0230449 -0.000572026)
(0.00379232 0.00264461 -0.000478959)
(-0.00390698 0.00726312 -0.00275983)
(0.00474689 0.0028612 0.000121605)
(0.0106955 0.00110566 0.000905962)
(0.00440008 0.0011273 0.000355944)
(0.00523325 -0.000104614 0.000297749)
(0.000356121 0.00259729 0.000729343)
(0.000991209 -0.000209326 1.7359e-05)
(0.00032443 -0.000109884 1.83611e-05)
(0.000414426 -0.00028771 4.56997e-05)
(0.000597691 -0.000269125 7.41358e-05)
(0.00025442 -0.000118832 1.8572e-05)
(0.000820954 -5.52266e-05 -1.55351e-06)
(0.000595397 -5.37538e-05 -2.22132e-06)
(0.00112193 -0.000124343 -1.40677e-06)
(0.000576498 -6.50294e-05 -5.99862e-06)
(0.000584761 -0.000103248 -2.79333e-06)
(0.000975127 -0.00012261 -5.60769e-06)
(0.00103427 -0.000211814 1.84247e-06)
(0.000564613 -6.6727e-05 -4.85681e-06)
(0.00103653 -9.1225e-05 -1.63044e-06)
(0.000960985 -0.000106309 -5.7713e-06)
(0.000808602 -2.14757e-05 -2.31299e-08)
(0.000846791 -1.24696e-05 -6.11934e-07)
(0.0010913 -3.15033e-05 1.46128e-07)
(0.000806756 -1.67582e-05 4.6924e-09)
(0.000806124 -1.91331e-05 -2.64372e-07)
(0.00108064 -2.99852e-05 1.72829e-07)
(0.000804335 -1.00061e-05 4.04162e-08)
(0.000809623 -1.05832e-05 1.08873e-07)
(0.00107746 -1.69979e-05 1.80867e-07)
(0.000802556 -6.43955e-06 4.14904e-08)
(0.000805144 -7.09837e-06 -1.43363e-07)
(0.00107338 -1.10072e-05 1.76549e-07)
(0.000800927 -4.08379e-06 4.72991e-08)
(0.000803019 -4.55978e-06 5.03637e-08)
(0.00107067 -6.92511e-06 1.7859e-07)
(0.000799244 -2.58179e-06 4.97732e-08)
(0.000800901 -2.89486e-06 4.90329e-08)
(0.0010681 -4.40196e-06 1.78712e-07)
(0.000797588 -1.59815e-06 5.29921e-08)
(0.000798931 -1.75579e-06 4.73814e-08)
(0.00106562 -2.7435e-06 1.7805e-07)
(0.000796047 -1.00408e-06 5.44992e-08)
(0.000797107 -1.11638e-06 4.98699e-08)
(0.00106336 -1.67788e-06 1.81161e-07)
(0.000794681 -6.25704e-07 1.72842e-08)
(0.000795446 -7.86554e-07 4.97556e-08)
(0.00106132 -1.11594e-06 1.78946e-07)
(0.000793042 -2.70867e-07 4.73212e-08)
(0.000793799 1.08753e-08 4.39297e-08)
(0.0010593 -6.75273e-07 1.23401e-07)
(0.000791196 -7.85579e-08 7.74155e-08)
(0.000792237 3.04002e-07 9.02385e-08)
(0.00105694 -2.35208e-07 1.75934e-07)
(0.000789969 -4.43448e-08 2.00222e-08)
(0.000790785 -2.73017e-07 3.45329e-08)
(0.00105493 -1.60181e-07 1.73603e-07)
(0.000788332 -7.58078e-08 2.19321e-08)
(0.000789204 5.29063e-07 4.86198e-08)
(0.00105297 -6.83038e-08 1.15907e-07)
(0.000787025 -1.12701e-07 3.92973e-08)
(0.000787673 -2.49298e-07 4.82244e-08)
(0.001051 -1.87365e-07 1.72317e-07)
(0.000785402 -9.65386e-08 1.9804e-08)
(0.000786173 2.03884e-07 3.10915e-08)
(0.00104912 -1.1073e-07 1.41458e-07)
(0.000783804 -1.65188e-07 2.93809e-08)
(0.000784613 -2.82198e-08 4.2179e-08)
(0.00104688 -9.97628e-08 1.95081e-07)
(0.000782065 -1.35119e-07 4.02077e-08)
(0.000783102 5.0269e-07 4.56694e-08)
(0.00104462 -3.10415e-07 1.49756e-07)
(0.000780581 -7.49328e-08 1.84644e-08)
(0.000781472 9.36548e-08 1.05656e-07)
(0.00104248 -5.14796e-08 1.73194e-07)
(0.000779056 -8.10183e-08 3.33977e-08)
(0.000779904 6.73846e-08 3.58395e-08)
(0.00104054 -1.30755e-07 1.73185e-07)
(0.000777233 -4.11121e-08 1.51691e-09)
(0.000778321 -5.49891e-08 7.10184e-08)
(0.00103816 -4.783e-08 1.9243e-07)
(0.00077627 2.24758e-07 -1.60415e-08)
(0.000777081 -8.0102e-07 -2.95261e-08)
(0.00103642 -2.51216e-08 2.80391e-07)
(0.000774734 6.31027e-07 5.51242e-08)
(0.00077576 -1.22023e-06 2.42371e-08)
(0.00103489 6.61083e-07 2.43722e-07)
(0.0007737 7.50633e-07 8.16409e-08)
(0.000774088 -9.28931e-07 5.37919e-08)
(0.00103296 1.04753e-06 1.99635e-07)
(0.00077246 5.62008e-07 1.83827e-07)
(0.000772669 -2.0659e-06 3.94934e-08)
(0.00103168 9.53876e-07 2.91577e-07)
(0.000770762 2.82103e-07 2.06022e-07)
(0.000771241 4.23325e-07 1.69684e-07)
(0.00102979 5.44565e-07 1.99605e-07)
(0.00076854 1.02593e-07 1.0478e-07)
(0.000769502 -1.96909e-08 8.49363e-08)
(0.00102686 2.24445e-07 2.76232e-07)
(0.000767229 9.35668e-08 7.12908e-08)
(0.000767923 6.78511e-08 7.86105e-08)
(0.00102457 5.99355e-08 1.73598e-07)
(0.000765853 1.28884e-07 8.35431e-08)
(0.000766613 -1.1569e-07 6.12568e-08)
(0.00102293 1.69784e-07 1.73913e-07)
(0.000764275 1.0221e-07 8.35878e-08)
(0.000765104 9.12983e-08 7.71192e-08)
(0.00102091 1.49825e-07 1.64148e-07)
(0.000762935 1.23284e-07 4.98709e-08)
(0.000763727 6.35601e-08 4.96419e-08)
(0.00101898 1.06072e-07 1.704e-07)
(0.000761402 1.07159e-07 8.70659e-08)
(0.000762196 5.84499e-07 1.64979e-08)
(0.00101711 1.78551e-07 1.65981e-07)
(0.000759435 4.03933e-08 9.5459e-08)
(0.000760381 8.379e-07 7.77753e-08)
(0.0010147 6.06574e-08 1.21589e-07)
(0.000757924 1.35279e-08 6.14784e-08)
(0.000758777 2.19302e-07 3.18526e-08)
(0.00101234 2.31921e-08 1.63605e-07)
(0.000756692 2.13912e-07 5.05013e-08)
(0.00075765 -4.54802e-08 5.0118e-08)
(0.00101046 2.06383e-08 1.57077e-07)
(0.000756397 3.08058e-07 6.19409e-08)
(0.000756509 -1.68447e-06 4.53008e-08)
(0.00100953 6.0873e-07 1.34912e-07)
(0.00075473 1.14723e-07 8.46152e-08)
(0.000755127 1.46471e-07 4.72584e-08)
(0.00100833 3.19024e-07 1.77525e-07)
(0.000752997 4.43853e-08 6.08092e-08)
(0.000753709 3.74418e-07 6.35873e-08)
(0.001006 1.30757e-07 1.74216e-07)
(0.000751481 1.16784e-07 4.05796e-08)
(0.000752317 1.04552e-07 8.68156e-08)
(0.0010039 1.25102e-07 1.65243e-07)
(0.00074988 1.41945e-07 4.74192e-08)
(0.000750741 1.34769e-07 5.88499e-08)
(0.00100181 2.71649e-07 1.87158e-07)
(0.000748453 1.01519e-07 5.17051e-08)
(0.000749165 -7.77437e-08 3.06472e-08)
(0.000999684 1.64148e-07 1.53814e-07)
(0.000747207 8.43482e-08 6.16089e-08)
(0.000747759 -2.68205e-07 4.74955e-08)
(0.000997829 1.36107e-07 1.67744e-07)
(0.000746715 1.0224e-07 5.52811e-08)
(0.000996549 8.7651e-08 1.56798e-07)
(-0.0297141 0.000420699 0.00199941)
(-0.00808713 -0.00997471 -0.000170509)
(-0.00893859 0.0242457 -0.00292336)
(-0.0320368 0.00824381 -0.0829781)
(-0.035012 -0.00168714 -0.0214258)
(-0.0789461 -0.00351316 0.231085)
(-0.119041 -0.0196459 -0.107473)
(0.0234126 0.00758115 -0.00113141)
(-0.00164977 0.00569301 -0.00168723)
(-0.00828791 0.00859043 -0.00563981)
(-0.0162657 -0.000303573 0.00233612)
(-1.35269e-05 0.0179956 0.0336723)
(-0.0508766 0.0275396 -0.0591935)
(0.00335263 -0.0185641 0.0275985)
(0.0246635 -0.0158362 -0.0145721)
(0.0313588 0.0112648 -0.000469926)
(0.00925233 0.0290038 -0.00151925)
(0.0166185 0.0290106 -0.0031496)
(0.0125721 0.000956881 -0.00196823)
(0.0161465 0.0139777 -0.00135317)
(0.0078877 0.00658298 0.000531882)
(0.000471088 0.00931641 -0.000329821)
(0.00782197 0.00544135 -0.00163297)
(0.010643 0.0159588 0.000436208)
(-0.00387795 0.00266765 -0.000463448)
(0.00358244 0.0228904 0.000759361)
(0.00188071 0.0179755 0.00156156)
(-0.00608824 0.0203344 0.00234944)
(0.00680632 0.0333838 0.000405127)
(0.00549601 0.0235549 0.0011254)
(0.00560783 0.023476 0.000221004)
(0.0118051 0.0117314 -0.000675119)
(0.0112344 0.0289904 -0.00132823)
(-0.00477405 0.000706506 -9.57416e-05)
(-0.00892358 -0.00289364 4.43545e-06)
(-0.00339258 -0.00587684 5.5198e-05)
(-0.00405482 -0.00626982 -0.000400832)
(-0.00800197 -0.0058798 4.2293e-06)
(0.00098813 -0.000536707 4.87503e-05)
(0.00139389 -0.000189684 1.05247e-05)
(0.00145674 0.000202831 -4.31806e-05)
(0.00177491 0.000193139 -8.41861e-05)
(0.00167272 -4.94525e-05 2.36176e-05)
(0.000346218 -3.90332e-05 -3.63227e-06)
(0.000490469 -3.94916e-05 -3.90641e-06)
(0.000483748 -2.88171e-05 -8.98327e-07)
(0.000807205 -6.72237e-05 -2.18679e-06)
(0.000328509 -3.34762e-05 -1.78769e-06)
(0.000644598 -8.48658e-05 -5.37022e-06)
(0.000617651 -6.96842e-05 1.1489e-06)
(0.000821555 -1.39442e-05 -8.5329e-07)
(0.000882984 -1.26052e-05 -1.27377e-06)
(0.00118439 -1.45272e-05 -9.85436e-07)
(0.000595849 -3.08675e-05 -4.23009e-06)
(0.000610949 -1.11708e-05 -4.84175e-06)
(0.00099748 -6.8391e-05 -5.14478e-06)
(0.00103205 -1.75205e-05 -6.07733e-06)
(0.000814743 -1.22554e-05 -1.60313e-07)
(0.000808183 -1.08516e-05 -4.93819e-07)
(0.00108019 -1.93001e-05 5.9787e-08)
(0.000809854 -7.38153e-06 -7.48243e-08)
(0.000815748 -6.7436e-06 1.70414e-07)
(0.00108886 -1.08516e-05 2.03256e-07)
(0.000806001 -4.90293e-06 -1.34553e-07)
(0.000808262 -4.29643e-06 -1.53859e-07)
(0.00107876 -7.13022e-06 1.8521e-07)
(0.000803157 -3.15975e-06 5.20979e-08)
(0.00080521 -2.92495e-06 9.05285e-08)
(0.0010744 -4.83103e-06 1.78801e-07)
(0.000800687 -1.81263e-06 4.66417e-08)
(0.000802592 -1.73126e-06 4.96778e-08)
(0.00107045 -2.88017e-06 1.78496e-07)
(0.000798491 -9.80347e-07 4.42584e-08)
(0.000799976 -9.10252e-07 3.34573e-08)
(0.00106715 -1.50426e-06 1.76633e-07)
(0.000796498 -6.08006e-07 4.51264e-08)
(0.000797575 -5.02977e-07 2.9291e-08)
(0.00106422 -8.30716e-07 1.75482e-07)
(0.000794648 -4.4188e-07 7.64031e-08)
(0.000795655 -3.56562e-07 4.68432e-08)
(0.00106162 -6.15098e-07 1.76101e-07)
(0.000792964 -3.3753e-07 8.68321e-08)
(0.000793931 -7.57134e-08 7.6764e-08)
(0.00105912 -4.36883e-07 1.97249e-07)
(0.00079182 -2.66302e-07 4.73738e-08)
(0.000792327 -3.64385e-07 6.36082e-08)
(0.00105728 -3.80778e-07 1.90771e-07)
(0.000790071 -2.35439e-07 6.3126e-08)
(0.000790824 -5.34089e-09 5.87525e-08)
(0.00105541 -3.22464e-07 1.78158e-07)
(0.000788486 -2.32435e-07 7.49122e-08)
(0.000789209 -9.34083e-08 8.2062e-08)
(0.00105314 -3.32298e-07 2.25438e-07)
(0.000786845 -2.35021e-07 4.00241e-08)
(0.000787671 -1.18574e-07 3.5818e-08)
(0.00105102 -3.07759e-07 1.77722e-07)
(0.000785335 -2.04359e-07 5.3463e-08)
(0.000786213 -8.86771e-08 2.44845e-08)
(0.00104889 -3.55559e-07 1.95532e-07)
(0.00078399 -1.51137e-07 5.84665e-08)
(0.000784681 1.7856e-07 9.00572e-08)
(0.0010469 -2.39089e-07 1.45979e-07)
(0.00078252 -7.04388e-08 1.11098e-07)
(0.000783203 4.43423e-08 6.21178e-08)
(0.00104512 -2.07136e-07 2.03127e-07)
(0.000780703 9.36807e-08 1.23053e-07)
(0.000781677 -2.41275e-07 1.08626e-07)
(0.00104295 -8.05245e-09 2.2475e-07)
(0.000779277 2.62654e-07 7.3449e-08)
(0.000780114 -9.64576e-08 6.56968e-08)
(0.00104068 2.56814e-07 1.78309e-07)
(0.000777943 5.85855e-07 4.00071e-08)
(0.000778722 -5.31331e-07 5.53245e-08)
(0.00103884 4.85495e-07 1.92076e-07)
(0.000776815 7.61412e-07 1.07356e-08)
(0.000777297 -2.15209e-06 -4.20687e-09)
(0.00103732 1.15757e-06 2.35536e-07)
(0.000774984 7.38587e-07 2.28955e-08)
(0.000775728 2.35407e-08 2.93197e-08)
(0.00103537 9.53418e-07 1.14458e-07)
(0.000773131 7.72794e-07 1.1649e-08)
(0.000774127 -1.8509e-07 3.6463e-08)
(0.00103282 1.06172e-06 1.51552e-07)
(0.000771352 4.90369e-07 2.53092e-08)
(0.000772313 -4.60377e-07 2.15422e-08)
(0.00103038 1.03821e-06 8.39105e-08)
(0.000770168 8.31967e-08 4.86241e-08)
(0.00077073 -3.56348e-08 4.33848e-08)
(0.00102848 2.99546e-07 1.77498e-07)
(0.000768667 2.18611e-08 5.87692e-08)
(0.000769425 1.70578e-08 4.97047e-08)
(0.00102673 -6.70472e-08 1.70582e-07)
(0.000767405 7.64683e-08 6.85818e-08)
(0.000767991 -4.52615e-07 5.37476e-08)
(0.00102483 1.41047e-07 1.8912e-07)
(0.000765844 2.68988e-08 5.4828e-08)
(0.000766551 -2.26955e-08 5.95071e-08)
(0.00102302 7.05536e-08 1.72082e-07)
(0.000764486 -2.51955e-08 4.31818e-08)
(0.000765039 -1.13857e-07 5.24395e-08)
(0.00102102 4.18644e-09 1.75538e-07)
(0.000763112 -2.28498e-07 1.62792e-08)
(0.000763473 4.01284e-08 5.75284e-08)
(0.00101927 -7.652e-08 1.64162e-07)
(0.00076121 -3.80818e-07 7.18841e-09)
(0.000762007 2.62612e-06 5.48972e-08)
(0.00101703 -5.42564e-07 6.34722e-08)
(0.000759614 -1.62682e-07 1.41831e-08)
(0.000760654 1.66799e-06 6.42448e-08)
(0.00101461 -4.86612e-07 1.23166e-07)
(0.000758344 2.30535e-07 2.04866e-08)
(0.000759268 -1.81352e-07 2.19136e-08)
(0.00101274 2.5714e-08 1.82733e-07)
(0.000757622 5.03038e-07 4.4919e-08)
(0.00075799 -3.34709e-07 9.27988e-08)
(0.00101162 5.64025e-07 1.25583e-07)
(0.000755248 4.31889e-07 3.06177e-08)
(0.000756418 -9.68239e-07 5.3945e-08)
(0.00100948 7.72907e-07 2.02619e-07)
(0.00075407 1.32707e-07 2.62254e-08)
(0.000754751 4.77563e-07 -4.354e-08)
(0.00100705 4.27148e-07 1.22565e-07)
(0.000753048 -2.80133e-08 8.95866e-08)
(0.000753507 -1.15922e-08 4.43113e-08)
(0.00100559 7.61569e-09 1.60797e-07)
(0.000751687 -1.72272e-08 1.05094e-07)
(0.00075233 5.79731e-08 9.31941e-08)
(0.00100396 -2.06599e-08 1.67409e-07)
(0.000749818 4.96089e-08 4.20866e-08)
(0.000750824 -3.09928e-07 2.25415e-08)
(0.00100189 2.22423e-09 2.4311e-07)
(0.000748619 1.73432e-07 2.64325e-08)
(0.000749319 -2.76637e-07 -9.15128e-08)
(0.000999768 1.37394e-07 1.64595e-07)
(0.000747023 2.36817e-07 4.11653e-08)
(0.000747835 6.45309e-08 2.05326e-08)
(0.000997839 3.25242e-07 1.62503e-07)
(0.000746421 3.65071e-07 6.88087e-08)
(0.000996364 3.11948e-07 1.17525e-07)
(0.0217176 -0.010247 0.000329993)
(0.0173322 -0.00526601 0.00134196)
(0.0137939 -0.00217388 -0.0011985)
(0.0775625 0.000929792 0.0514649)
(0.0976965 0.00156348 -0.0283167)
(0.0208658 -0.03336 0.0322877)
(0.0332678 -0.000538243 -0.0632264)
(-0.00218919 -0.0109686 8.64515e-05)
(0.00053122 -0.00147438 -0.000110906)
(-0.00228228 -0.0147418 -0.00141259)
(-0.00633302 -0.00910401 -0.000616661)
(-0.0130045 -0.0100716 0.00228345)
(0.00524391 6.58156e-05 7.27267e-06)
(0.00457684 0.0211693 -0.000272619)
(0.0051838 0.00124256 -0.00137322)
(0.00910601 0.00751236 -1.62662e-05)
(0.0088549 0.00404567 0.000919288)
(-0.0100395 0.00089839 0.00975597)
(0.00316173 -0.0166903 0.00642643)
(0.00545105 0.00856661 0.0041538)
(0.0161694 -0.00611015 0.00410028)
(-0.0151302 -0.00531954 -0.00115006)
(-0.0122321 0.000299792 0.0628958)
(-0.0181406 -0.00195077 -0.0101758)
(-0.00733931 -0.0126906 -0.0359779)
(-0.00462594 -0.0240554 0.00629873)
(0.0314183 -0.0158574 0.00586115)
(0.00400603 0.0115295 0.00579337)
(-0.0126178 -0.00597555 0.00935795)
(0.028632 -0.0191611 0.106564)
(-0.0213259 -0.0363872 -0.0842653)
(0.00146093 -0.00507403 0.127919)
(0.00481631 -0.0132005 -0.174579)
(-0.00625012 0.00414853 -0.000664003)
(-0.0229023 -0.00486208 -0.000126872)
(-0.000425225 -0.000437392 -0.000389574)
(-0.0135999 -0.00335854 -0.000546356)
(-0.0181984 -0.00162626 -0.00138668)
(0.000139039 0.000415407 6.6389e-05)
(0.00155825 0.000588609 4.41806e-05)
(0.00126165 0.000427525 0.000129084)
(0.000942099 0.000443342 -6.59897e-05)
(0.00105093 0.000228717 6.76625e-05)
(0.000313635 -5.53726e-06 -1.8461e-06)
(0.00047993 -8.38252e-06 -3.50282e-06)
(0.000435507 -2.27552e-05 -8.74676e-07)
(0.00073635 -1.00476e-05 -1.0308e-06)
(0.000309663 -1.13348e-05 -1.18729e-06)
(0.000600269 -5.54756e-06 3.18448e-06)
(0.000598748 -1.69929e-05 5.13523e-06)
(0.000461473 -7.88066e-06 -8.45278e-07)
(0.000826312 -7.94392e-06 -9.14558e-07)
(0.000888648 -1.00904e-05 -1.44903e-06)
(0.00118727 -5.60759e-06 -1.02542e-06)
(0.000605816 -6.4695e-06 -3.77107e-06)
(0.000611454 -1.22507e-05 -4.69597e-06)
(0.00101814 1.57041e-07 -4.53982e-06)
(0.00102663 -6.63796e-06 -5.95916e-06)
(0.000819074 -4.61482e-06 -1.63309e-07)