/*--------------------------------*- C++ -*----------------------------------*\
| =========                 |                                                 |
| \\      /  F ield         | OpenFOAM: The Open Source CFD Toolbox           |
|  \\    /   O peration     | Version:  5.0                                   |
|   \\  /    A nd           | Web:      www.OpenFOAM.org                      |
|    \\/     M anipulation  |                                                 |
\*---------------------------------------------------------------------------*/
FoamFile
{
    version     2.0;
    format      ascii;
    class       surfaceScalarField;
    location    "0.1";
    object      alphaPhi10;
}
// * * * * * * * * * * * * * * * * * * * * * * * * * * * * * * * * * * * * * //

dimensions      [0 3 -1 0 0 0 0];

internalField   nonuniform List<scalar> 
12667
(
1.42243e-09
3.00074e-11
-7.18505e-11
1.40124e-09
-2.98983e-11
4.88311e-11
1.2427e-09
1.42358e-10
6.68778e-11
2.23098e-10
-1.50612e-10
3.18065e-10
1.32128e-10
5.80444e-10
9.1961e-11
6.17532e-11
-6.71689e-11
5.33352e-11
5.58312e-11
5.25382e-11
2.61513e-11
1.13814e-09
1.53177e-14
1.09857e-12
2.07119e-10
-2.45649e-22
5.10722e-23
-4.37162e-23
1.32452e-24
-2.38498e-23
-6.11e-23
4.55295e-22
4.88175e-26
-1.02465e-25
-7.67156e-27
7.17128e-27
-8.35562e-25
1.35712e-25
-7.82435e-24
5.41899e-30
-8.40747e-28
-1.95567e-30
1.78359e-34
-3.55143e-32
-8.35858e-35
5.1469e-38
-6.7489e-36
3.28105e-37
1.73328e-41
-1.2851e-39
-1.38392e-40
6.30308e-45
-2.50845e-43
-5.92783e-43
2.38661e-48
-5.40874e-47
1.97699e-46
9.2607e-52
-1.0984e-50
-1.13128e-49
3.8646e-55
-1.3702e-54
-1.0919e-52
1.4388e-58
-4.52668e-58
-9.63859e-56
6.08287e-62
-1.09268e-61
-3.02228e-59
2.52243e-65
-4.79627e-65
3.9122e-62
1.03074e-68
-1.2588e-68
-1.58179e-65
4.28574e-72
-4.75202e-72
9.84558e-71
1.88467e-75
-3.10891e-77
-9.43793e-72
5.84243e-78
-4.42216e-79
-8.77e-75
2.54492e-81
-1.29218e-82
-4.23677e-78
2.66509e-84
-7.72702e-87
-6.4275e-81
-3.07286e-87
-3.57899e-89
5.46179e-84
-3.38265e-90
-7.04783e-93
5.04058e-87
4.30466e-94
8.71191e-96
6.41891e-91
4.39999e-97
8.72325e-99
-1.23192e-93
1.50814e-99
-1.06904e-102
-1.71666e-96
-1.18881e-104
-1.42685e-106
-3.25691e-101
1.53566e-106
5.72442e-109
3.3173e-104
-1.94887e-109
-8.3052e-113
2.30383e-106
-1.53516e-112
5.18128e-116
1.66723e-109
6.46498e-116
9.71013e-119
-9.71333e-113
4.88932e-119
-4.75219e-122
-2.19276e-116
1.39725e-121
-1.94418e-124
-5.01493e-119
-6.96105e-128
-1.80785e-127
2.33648e-122
6.19026e-128
-1.19347e-131
-3.85418e-125
-4.30808e-132
-5.01953e-134
-1.5563e-128
1.79051e-134
-1.88273e-138
-2.36361e-131
-3.2221e-140
-8.21083e-140
-2.46062e-135
-9.29577e-141
9.7389e-144
3.31306e-138
8.9631e-144
1.16161e-145
-5.73369e-141
6.12103e-148
9.33021e-150
-1.19339e-144
-9.97646e-151
1.33748e-153
-3.10032e-148
1.83797e-153
2.41905e-155
-1.35585e-150
5.52063e-156
5.34004e-158
-2.59344e-153
2.53984e-158
1.20486e-159
-5.72449e-157
3.52884e-162
7.31454e-159
1.4576e-09
6.01994e-11
-9.33617e-11
1.39558e-09
5.0619e-12
1.40463e-11
1.38907e-09
1.24831e-10
-3.82045e-12
2.77921e-10
-7.89288e-12
9.69838e-11
1.42435e-10
5.5049e-10
1.995e-10
-2.21932e-11
1.13957e-10
6.13327e-11
1.21281e-10
-3.59491e-10
-4.99633e-10
1.12001e-09
-1.57559e-10
-1.68788e-09
-8.76372e-18
6.23142e-20
2.13395e-19
-7.13084e-18
-7.51793e-20
-6.38335e-17
-1.45115e-16
2.24486e-16
5.96569e-24
-2.94118e-21
-2.57394e-23
-2.80196e-22
-2.68293e-21
-1.06629e-21
7.2426e-21
2.05636e-28
-2.72311e-25
-2.98832e-28
6.89453e-32
-6.60263e-29
1.13442e-31
1.28868e-35
-1.97622e-32
6.7774e-35
2.50961e-39
-5.02071e-36
1.95052e-38
7.1848e-43
-1.44863e-39
-5.14726e-42
2.44126e-46
-3.30002e-43
-7.54648e-44
1.00496e-49
-5.312e-47
-1.11027e-47
4.0574e-53
-1.92739e-51
9.29813e-51
1.69615e-56
-2.96074e-54
-2.97948e-54
6.85684e-60
-2.79758e-57
-2.4746e-57
2.84298e-63
-1.34022e-60
6.6018e-60
1.18918e-66
2.70457e-65
3.25371e-64
2.0707e-69
1.35879e-68
-1.7208e-66
3.32241e-73
-1.18624e-71
-1.60203e-70
2.05145e-76
4.49949e-75
1.87567e-73
3.04574e-80
1.78747e-78
-2.79889e-76
3.96916e-82
-8.71156e-84
-2.79421e-79
-2.97041e-86
5.46521e-85
5.22689e-83
-1.94452e-89
8.72795e-89
9.52304e-86
-9.69119e-95
-1.06515e-91
2.85013e-89
-3.25238e-95
-1.0774e-94
1.64246e-92
-3.00748e-98
-3.57313e-98
-5.43441e-96
1.96794e-101
2.20274e-102
-2.12433e-98
9.39814e-105
-9.92737e-106
-1.73597e-101
-5.5133e-108
1.01856e-108
2.00882e-104
-7.55733e-112
6.05543e-112
8.88194e-108
1.80637e-114
-1.20213e-114
3.46727e-112
5.12087e-121
-3.0023e-118
-3.27049e-114
-1.88047e-120
6.42426e-123
1.87928e-117
5.36684e-124
-3.84479e-126
-1.21637e-120
-8.5438e-127
-2.97795e-129
1.80653e-123
2.83834e-130
-2.33629e-132
1.15892e-127
4.33607e-136
-3.62187e-134
-1.90131e-130
8.88771e-136
-2.15738e-137
-7.25858e-133
-2.95066e-140
-1.56161e-142
-3.47124e-136
-1.04618e-143
-7.03493e-146
-4.85305e-140
4.84787e-146
-1.23817e-147
8.04604e-143
-2.29056e-149
-2.04607e-151
1.71802e-145
3.49266e-152
1.75413e-154
-5.27455e-149
2.01384e-154
1.47575e-156
-9.13486e-152
2.34315e-156
1.61383e-158
8.32797e-155
3.75388e-161
2.16039e-157
1.43808e-09
5.13172e-11
-6.73909e-11
1.38247e-09
2.97583e-11
5.28455e-11
1.36632e-09
1.43099e-10
-3.47381e-12
1.79527e-10
4.18442e-11
1.4401e-10
2.27139e-10
3.99332e-10
3.57407e-10
-6.4964e-11
3.67182e-10
4.80917e-11
-1.68022e-10
-1.16441e-10
-1.23837e-10
1.03091e-09
-2.86303e-11
-7.2325e-10
-2.66828e-14
-2.53494e-16
-3.22938e-17
4.82867e-16
-2.34017e-12
-1.20327e-13
1.85788e-13
-6.0424e-16
-8.61215e-16
-5.83893e-16
-5.77529e-16
4.72118e-20
-3.21775e-22
-1.73885e-21
-4.15205e-20
1.19993e-19
-1.21874e-18
1.09527e-18
3.01641e-27
-3.4362e-27
-2.28091e-25
1.78701e-30
-8.20253e-31
3.79168e-30
1.45718e-33
-4.59845e-34
-5.68583e-33
3.33744e-37
-1.13902e-37
-1.66601e-36
1.39751e-40
-1.47369e-41
1.64342e-39
5.88102e-44
1.02898e-44
1.16155e-42
2.47254e-47
1.10143e-47
1.43146e-46
1.25027e-50
3.80583e-51
-3.00873e-48
4.73239e-54
6.00318e-55
-1.38012e-51
1.80532e-57
7.12782e-58
2.18431e-55
1.87564e-60
1.41856e-61
-7.05575e-58
3.11553e-64
7.98118e-65
-1.89334e-61
7.88707e-68
-3.43243e-68
5.63953e-65
5.35707e-71
-1.14409e-71
3.47443e-68
2.21213e-74
-1.35343e-74
1.82785e-72
2.08281e-76
-6.49578e-78
-1.12781e-73
3.21887e-81
-2.1227e-81
-2.32698e-77
3.86019e-83
-1.06349e-85
-2.92831e-80
1.48408e-86
9.46867e-89
-1.682e-83
3.28289e-91
-8.71898e-92
-9.45482e-88
2.01399e-92
8.4152e-95
-1.31474e-89
2.84035e-97
2.38711e-98
-8.73537e-94
-2.96622e-101
8.48068e-102
-1.8687e-96
4.32753e-102
1.70729e-105
-1.77616e-99
-1.10672e-105
-6.47486e-109
1.91583e-102
2.06663e-111
2.85277e-112
-1.01062e-105
2.30203e-111
3.55347e-115
-1.75545e-108
6.41919e-116
-1.08726e-117
-3.66186e-112
-4.60095e-118
-4.60957e-121
3.42745e-115
1.07241e-121
-8.61668e-126
-2.03124e-118
1.07948e-124
-1.38155e-127
-1.96922e-121
4.89778e-131
-1.16286e-131
-5.70735e-125
1.11725e-131
-2.50552e-134
-6.44652e-128
7.48258e-134
2.88845e-137
-1.05223e-130
3.40516e-138
3.39212e-140
2.84739e-135
1.54775e-140
-2.85675e-144
4.47329e-138
3.60137e-144
-5.03389e-147
-5.25428e-141
3.50888e-147
5.44695e-151
-7.40089e-144
-1.32947e-151
1.92489e-153
-5.58475e-147
-7.38031e-154
2.15469e-156
1.26302e-150
1.91885e-155
-1.08224e-158
1.14067e-152
-8.7888e-161
-4.65192e-156
1.48404e-09
4.54036e-11
-6.44331e-11
1.48717e-09
2.01317e-11
4.39669e-11
1.52703e-09
1.18135e-10
-2.62098e-11
3.15893e-10
-4.1872e-11
6.91325e-11
2.55481e-10
5.67388e-10
3.98088e-10
-3.08472e-11
3.39503e-10
8.71854e-12
1.09589e-11
6.58389e-11
-5.59352e-11
-1.02363e-11
4.37761e-11
-4.25528e-11
-1.24122e-14
2.9349e-15
9.22569e-16
8.22053e-15
3.34226e-16
7.09301e-21
-2.57117e-21
-1.07716e-21
3.1093e-22
-2.71874e-19
1.10838e-19
1.56693e-19
8.15861e-28
-5.61612e-25
-3.51283e-26
1.46662e-31
-2.25669e-28
7.7804e-30
1.28612e-34
-2.03158e-32
9.81421e-34
-7.92263e-39
-1.76559e-36
-3.83446e-36
-3.74285e-42
-1.0725e-39
-1.64586e-39
-1.58766e-45
-3.48634e-43
-3.002e-43
-6.71488e-49
-1.52796e-46
3.39889e-46
-2.8436e-52
-3.41711e-50
4.22818e-51
-1.15855e-55
3.99704e-54
1.29895e-52
-4.84591e-59
3.91932e-57
8.72113e-56
-2.96823e-62
-5.32895e-61
1.78291e-58
-8.86282e-66
-1.1372e-63
-1.43591e-61
8.4198e-68
2.79246e-67
-2.29728e-64
-7.66798e-73
1.78037e-70
-1.14174e-67
-1.26858e-75
9.46031e-74
-8.65526e-71
-2.05776e-79
8.21583e-77
-8.31166e-74
7.47147e-85
3.2434e-80
5.07865e-78
5.68088e-84
1.36413e-84
-1.83159e-80
-1.78046e-86
-2.17536e-87
2.3454e-83
-2.05005e-89
2.702e-91
2.06592e-86
3.07416e-95
2.59319e-94
-1.08466e-89
-4.55249e-97
-1.048e-97
-7.62885e-93
2.52186e-102
-8.44873e-101
-4.51399e-97
-6.81967e-103
-2.2243e-105
1.05824e-99
1.88037e-108
-8.32189e-108
-1.79802e-103
2.82384e-109
2.21395e-111
-1.77064e-105
6.97715e-113
5.82464e-114
-1.48525e-108
1.03098e-115
-1.12669e-116
7.33011e-112
-2.51541e-118
-5.27036e-120
6.46507e-116
1.54843e-121
3.52861e-124
-1.99124e-118
2.96247e-127
-5.73175e-128
-1.17184e-121
-2.10337e-128
-1.25173e-129
-1.23266e-125
7.00802e-132
1.14141e-133
-9.77057e-129
2.83216e-134
2.91148e-136
-1.03823e-131
3.30776e-138
-6.31809e-141
2.07491e-134
1.01733e-141
-2.22409e-142
-9.0259e-138
6.27818e-144
1.52589e-146
-1.50924e-140
9.3479e-148
3.01544e-149
-1.88364e-144
1.91439e-151
-1.36006e-152
1.15385e-147
-1.47737e-153
-2.56421e-155
2.02046e-150
1.51602e-155
-2.19917e-158
-4.84596e-153
-2.63377e-159
-4.21842e-156
1.48748e-09
5.65638e-12
-3.01927e-11
1.46789e-09
-8.21157e-13
6.53084e-12
1.52524e-09
2.54396e-11
4.10594e-11
2.28307e-10
-3.15388e-12
1.2966e-10
2.82174e-10
3.8881e-10
4.70262e-10
-1.86098e-11
2.56181e-10
9.34915e-11
-1.09332e-10
-4.32684e-11
-5.26212e-11
-3.6698e-11
-7.50404e-12
1.38605e-10
-2.45943e-09
1.81226e-12
-1.3458e-12
-8.47859e-11
4.19219e-15
7.69418e-20
2.3822e-20
-1.62934e-20
-4.2689e-19
-1.51014e-20
8.37014e-18
-8.0155e-18
-7.6885e-26
-1.47757e-24
-2.98143e-25
1.06577e-29
1.21365e-28
-3.15424e-28
-2.60397e-32
1.97791e-32
-2.92731e-31
6.93613e-36
3.05324e-36
1.1978e-34
1.06546e-39
1.2422e-39
7.06035e-38
4.49208e-43
1.25904e-43
-1.7035e-41
1.86631e-46
4.50022e-47
1.18757e-45
8.00102e-50
-1.12591e-50
-1.06354e-47
3.37662e-53
-1.52286e-53
-1.04812e-50
7.34043e-57
-1.19396e-56
5.67117e-54
5.66111e-60
-1.80228e-60
-2.61161e-57
2.41261e-63
1.027e-63
-3.95122e-60
8.79901e-66
-6.44567e-67
-3.33774e-63
2.32317e-70
4.8131e-70
1.69998e-66
1.67085e-73
1.26467e-73
-9.66109e-70
1.28737e-75
-8.94819e-78
3.58522e-73
-1.89648e-78
2.20599e-80
3.07385e-75
1.21342e-82
-1.75795e-84
6.39319e-79
1.55171e-84
6.40439e-88
-1.12571e-81
2.25257e-90
6.6524e-91
-2.16045e-85
-1.10691e-91
-1.92747e-94
3.30268e-88
-7.45018e-95
4.20024e-97
3.82665e-91
2.06005e-97
1.19769e-100
-1.35889e-94
5.81178e-104
-5.74367e-104
-3.01906e-98
-3.54105e-105
2.0557e-107
1.17532e-101
1.64075e-107
-1.08076e-110
2.52336e-104
-1.39024e-110
-1.82244e-113
5.52544e-107
5.52748e-114
-8.05445e-117
-5.66227e-111
4.14144e-117
-5.79292e-120
-7.94247e-114
-8.91025e-121
-3.19636e-123
3.244e-117
-6.36708e-123
2.29376e-126
6.33195e-120
4.36888e-126
1.46447e-129
-3.22358e-123
-1.13951e-130
-2.03459e-134
6.21341e-127
-1.22446e-132
6.6213e-137
1.06157e-129
2.86336e-139
4.75221e-140
7.45159e-135
5.69001e-139
3.6714e-142
-8.26194e-136
5.74263e-143
-8.80423e-147
-3.64045e-139
-1.8228e-145
-2.10289e-149
2.9119e-142
-1.19246e-148
-3.96973e-152
1.53369e-145
8.70562e-152
-1.6804e-154
-9.31807e-149
2.14205e-154
1.31324e-158
-8.8245e-152
5.83735e-160
1.34199e-154
1.51532e-09
-2.48796e-11
-1.16682e-10
1.50092e-09
-2.21866e-11
8.88132e-12
1.64797e-09
-8.24111e-11
-2.9566e-11
2.40955e-10
2.58176e-11
2.65922e-11
3.502e-10
3.74962e-10
5.98108e-10
-2.85942e-11
-1.30929e-10
-4.46562e-11
4.42794e-10
7.0554e-12
1.76415e-11
2.09208e-11
-2.14989e-11
-2.34842e-11
-1.01999e-09
3.34137e-13
-1.36992e-12
2.42425e-11
-2.47948e-14
-8.04805e-20
-3.44363e-20
2.74303e-20
4.73127e-19
1.60837e-18
-2.24385e-18
2.67799e-19
2.51917e-26
-4.77291e-24
7.40351e-25
1.95719e-29
-5.70096e-28
-7.6155e-29
1.39439e-33
-1.41652e-31
-2.29044e-32
-1.52991e-37
-3.39286e-35
-1.65972e-35
-6.07132e-41
-8.82495e-39
-1.14698e-37
-2.59633e-44
-2.20673e-42
-2.28867e-41
-1.33689e-47
-5.04806e-46
2.17239e-44
-5.65544e-51
-1.53133e-49
-1.76198e-48
-2.29259e-54
-3.26663e-53
-3.90359e-51
5.38381e-58
-1.47931e-56
-7.01312e-54
-3.90986e-61
-2.78782e-60
2.21728e-58
-1.63126e-64
-1.92891e-64
1.04312e-60
2.06476e-66
1.4944e-66
-5.09936e-63
-2.53151e-71
3.26142e-70
-1.07857e-66
-9.15862e-73
9.32062e-74
1.64539e-69
1.09536e-75
4.89499e-78
2.66704e-73
-1.45118e-79
1.29971e-81
3.1238e-76
-4.99746e-83
3.15215e-84
7.96167e-80
1.35163e-87
-1.53452e-88
-3.61288e-82
1.72748e-88
2.73866e-91
1.75654e-85
-1.34801e-91
-5.04996e-95
1.46907e-88
5.63942e-95
-2.18535e-97
-8.35271e-92
5.7112e-98
-2.77976e-101
-1.27212e-94
4.40895e-102
-2.32806e-104
-1.70903e-98
-1.50645e-104
-3.14021e-108
7.89948e-102
1.53058e-107
3.24063e-111
-2.35533e-104
1.5613e-110
9.35749e-115
-2.77245e-107
4.4381e-114
4.96319e-118
-8.96908e-112
9.61241e-121
1.83275e-121
2.36348e-114
-8.45962e-121
-5.6535e-125
1.37312e-117
2.28754e-123
5.55594e-127
-3.13557e-120
5.63851e-127
3.32789e-130
-9.8854e-124
-7.52693e-133
2.53198e-134
3.10502e-127
1.66722e-133
2.66472e-136
-3.80896e-130
3.02909e-136
-8.4167e-140
-7.69597e-133
2.06428e-139
1.09938e-143
-3.06544e-136
-3.71279e-142
4.06518e-147
3.49535e-139
1.07003e-148
-1.33311e-150
-5.81528e-143
8.25577e-149
3.46554e-153
-9.6858e-146
6.22858e-152
4.08545e-157
-1.00489e-148
1.52641e-154
9.70064e-158
1.57152e-151
3.33154e-160
5.16337e-155
1.45689e-09
-5.41377e-11
-5.66474e-11
1.48929e-09
-2.73055e-11
1.83431e-12
1.54276e-09
-1.26035e-10
-1.50859e-11
2.03452e-10
-3.02905e-11
1.12074e-10
3.07921e-10
4.24835e-10
5.59175e-10
8.27276e-11
-2.4424e-11
-1.31167e-11
1.68083e-10
1.02937e-10
1.01376e-10
3.97217e-11
7.36314e-12
-2.51294e-10
-4.49918e-10
-9.61659e-13
3.07587e-13
-3.11478e-11
-9.787e-15
2.29297e-21
3.73261e-22
-1.64328e-21
1.70761e-19
4.79035e-21
-2.46803e-19
5.22093e-20
1.94536e-27
3.04017e-26
1.56677e-26
5.50125e-30
8.2513e-30
-1.06746e-29
7.75178e-34
2.48871e-33
-3.68528e-34
1.81942e-37
6.21306e-37
-1.49644e-36
7.60107e-41
1.61973e-40
-7.84661e-41
3.18956e-44
4.25362e-44
1.49024e-43
1.33617e-47
1.0854e-47
-1.90317e-45
5.58976e-51
2.9318e-51
-6.28991e-49
2.33196e-54
8.74383e-55
1.24179e-52
9.03207e-58
3.54725e-58
-1.03953e-55
3.0854e-61
-1.00598e-61
-5.88811e-59
1.70458e-64
4.82392e-65
5.67362e-62
1.39707e-67
1.03716e-69
-1.45955e-64
2.86232e-71
-1.45361e-71
2.70681e-68
3.82945e-75
1.04311e-75
4.68071e-71
1.11436e-76
2.59252e-78
-9.68401e-74
7.21516e-81
3.2253e-82
-2.38623e-77
-3.96762e-83
-2.08214e-85
4.74981e-80
-9.78851e-87
3.44788e-89
1.89654e-83
-3.6038e-91
1.38319e-92
-9.78544e-88
-1.53039e-93
-1.10951e-94
-5.82623e-90
5.53508e-96
-4.68165e-98
-9.71262e-93
5.2276e-102
-7.23548e-102
-7.81846e-97
-7.79049e-103
-1.83834e-106
2.27375e-99
-8.43175e-106
7.89702e-110
7.2691e-103
7.1165e-109
-5.86017e-112
-5.79735e-106
4.63485e-114
1.03643e-115
-6.6204e-109
9.81101e-116
5.80514e-118
1.45361e-112
-4.85509e-118
9.8156e-122
3.58174e-115
4.55554e-122
-4.25977e-125
-2.85914e-120
9.54188e-125
1.81193e-128
-1.00616e-121
2.08504e-128
2.58943e-131
-1.16627e-125
1.51526e-134
8.049e-135
9.86033e-129
4.1519e-137
7.46556e-138
-1.29676e-131
8.67823e-138
-2.07749e-140
-1.46597e-134
-1.44526e-140
-8.21358e-144
2.14101e-137
-1.01728e-143
-9.3428e-148
1.67363e-140
8.06502e-150
9.75546e-151
-4.74312e-144
7.70442e-150
7.8209e-154
-5.43075e-147
-3.11413e-153
-1.4553e-156
4.46215e-150
2.07748e-155
-1.70873e-158
5.78332e-153
8.81218e-161
-4.80506e-156
1.47328e-09
-5.83048e-11
-6.76832e-11
1.44497e-09
-2.46465e-11
4.11932e-11
1.49762e-09
-1.91909e-10
2.33414e-12
1.96418e-10
3.71019e-12
1.41556e-10
2.69057e-10
3.60958e-10
5.22775e-10
2.57806e-11
5.16141e-11
-5.74126e-11
1.6965e-10
2.86933e-11
1.76693e-11
6.28871e-12
-2.40835e-11
-3.02713e-11
-2.29404e-11
-3.9312e-15
1.42159e-09
1.91525e-11
1.42175e-09
1.21888e-20
-3.46444e-22
-1.22827e-21
5.54356e-21
2.42456e-20
2.8454e-19
-3.24463e-19
1.18395e-27
1.05686e-25
-1.02231e-25
1.49187e-30
1.45203e-29
1.09456e-29
6.79053e-34
4.80539e-33
-1.00534e-32
8.57315e-38
1.34888e-36
-3.75585e-36
3.56576e-41
4.08394e-40
-2.52474e-39
1.65377e-44
1.11201e-43
-2.44952e-42
6.31022e-48
1.1894e-47
6.67276e-46
3.20445e-51
3.28216e-51
-9.35147e-49
3.78642e-54
4.45334e-54
-2.95669e-51
4.5999e-58
4.93263e-58
-5.68979e-55
1.13745e-60
6.54765e-61
-8.70491e-58
7.6697e-65
-1.33836e-64
-2.02815e-62
-4.49546e-67
1.78246e-68
4.1643e-64
1.86923e-71
2.74988e-71
-7.00148e-68
1.35484e-73
2.42227e-75
-8.38626e-71
2.27614e-78
-4.35531e-78
-2.66692e-74
-2.44263e-82
-2.33415e-81
7.92087e-77
-3.72276e-83
-5.66435e-86
-3.9689e-81
7.08101e-86
-6.2268e-89
-9.15087e-83
4.1704e-92
-1.20069e-91
-2.00474e-87
6.71808e-93
2.84753e-95
6.89921e-90
5.90151e-96
6.18558e-98
1.49866e-93
-9.36573e-100
7.44929e-102
2.58985e-96
2.5511e-103
-5.58091e-106
2.52153e-100
-1.22001e-106
-8.54769e-109
-1.08715e-102
2.33329e-109
2.16716e-113
-7.85996e-106
-6.89961e-113
1.212e-115
-7.28228e-110
-2.3088e-115
3.76291e-119
5.20277e-112
-9.52042e-119
7.10926e-122
-7.18064e-116
2.7764e-121
1.04665e-125
-4.72129e-118
1.48106e-124
1.08084e-128
-4.87258e-122
-1.18409e-127
3.01327e-132
1.22794e-124
7.63096e-132
9.03926e-135
-2.45986e-128
2.50914e-134
2.83345e-138
-7.10111e-131
-4.07823e-138
6.41711e-142
5.07703e-135
9.03255e-142
-4.29347e-145
2.67834e-138
2.85178e-144
-9.88221e-148
3.60849e-141
-9.13735e-149
-7.52359e-151
-7.72153e-144
-2.30838e-150
-1.96109e-155
1.47852e-147
2.42129e-154
-7.83079e-157
1.37843e-150
1.19462e-155
-8.18754e-159
-5.00494e-153
2.93984e-161
-6.70338e-156
1.45307e-09
-3.08645e-11
-8.34079e-11
1.40219e-09
1.9206e-11
7.71437e-12
1.34468e-09
-1.50231e-10
6.68748e-12
7.97515e-11
1.73145e-10
1.93251e-10
2.5197e-10
1.42572e-10
5.02889e-10
1.1189e-10
1.3964e-10
-8.42245e-11
-8.42722e-11
9.53727e-12
-1.37694e-11
2.27721e-10
-5.03827e-13
-2.72507e-10
-4.36179e-16
1.70291e-15
-3.06745e-17
1.42783e-18
9.94427e-18
-7.50287e-17
-1.98927e-15
8.16874e-16
5.7087e-23
-9.33506e-27
-1.65224e-24
-3.94433e-22
-2.61207e-23
1.27521e-21
1.67228e-22
5.29541e-30
2.78536e-28
1.40045e-28
3.05568e-32
1.18588e-34
-1.8908e-32
6.44825e-36
4.81028e-38
-8.27602e-36
4.87085e-40
7.10381e-42
1.36259e-38
1.94379e-43
2.06482e-45
-7.49636e-43
8.05871e-47
-1.78842e-49
8.15288e-45
3.34314e-50
-2.6918e-52
-1.28984e-48
1.38762e-53
-1.76122e-55
-5.1264e-51
5.73815e-57
-1.05855e-58
-1.08864e-54
2.37213e-60
-5.63101e-62
9.51885e-58
-4.6665e-64
-1.05801e-65
2.17081e-60
3.97167e-67
2.31259e-69
2.90252e-63
1.64611e-70
1.95774e-72
1.50555e-67
6.79633e-74
5.19164e-76
-2.51232e-71
4.85603e-77
2.6744e-79
8.56567e-74
1.38031e-80
9.96255e-83
2.07982e-76
-6.03713e-84
-1.73307e-86
-3.34296e-80
2.36778e-86
-8.59317e-90
-6.97955e-83
-5.61877e-89
6.97106e-93
1.39695e-85
-9.48422e-92
6.26169e-96
1.21343e-88
2.57459e-95
-3.64879e-99
-3.02148e-92
2.26884e-100
-1.2862e-102
-4.5386e-95
-1.80356e-102
2.24205e-106
1.59613e-99
-3.22365e-105
-7.06492e-109
4.96092e-102
-1.28776e-109
1.67363e-112
1.90354e-105
-1.10429e-111
4.50357e-116
4.21903e-108
1.37242e-114
3.53852e-117
3.74434e-112
8.74725e-118
9.04464e-122
-1.41578e-114
1.52879e-122
9.85342e-126
-6.4345e-118
-2.0348e-125
7.05161e-129
1.46953e-120
-1.84584e-126
-1.91237e-130
2.48708e-123
3.62887e-130
7.19178e-134
-2.59787e-127
-9.39416e-135
-1.45712e-137
-1.76315e-131
-1.56902e-137
3.94197e-142
9.41402e-134
-3.35198e-139
-1.98297e-144
2.76033e-136
-1.87394e-143
-3.66047e-147
2.41973e-140
6.4668e-147
3.51228e-150
-6.15345e-143
3.33555e-149
5.5288e-154
-3.48739e-146
-3.38271e-152
-2.13258e-155
3.77215e-149
8.26618e-155
-2.91435e-158
4.30111e-154
1.02858e-156
-4.16608e-160
-3.81692e-155
6.74754e-162
3.31425e-158
1.42451e-09
-4.6081e-11
1.4277e-09
2.64992e-11
1.35414e-09
-9.49269e-11
1.86613e-10
2.21621e-11
3.47237e-10
2.66582e-10
7.32425e-10
3.4375e-11
-7.9099e-11
6.74752e-11
3.1171e-11
3.68065e-11
6.41311e-11
3.50641e-11
9.16593e-11
3.00408e-11
1.51787e-09
-2.79126e-10
-2.16895e-09
9.32549e-20
-1.172e-21
5.72953e-22
-7.93412e-24
-3.06998e-21
1.98146e-21
-9.60001e-20
9.70708e-21
1.39625e-26
-6.60208e-27
-7.83364e-25
-2.80086e-27
-2.08609e-24
-9.26742e-26
4.82348e-30
-6.45546e-30
7.32152e-35
-9.16427e-34
2.26545e-38
5.06737e-37
9.55325e-42
-4.13817e-40
4.03602e-45
-4.98212e-44
1.70102e-48
2.42099e-46
7.1703e-52
-3.41149e-49
3.00989e-55
2.07363e-52
1.2641e-58
-1.50864e-56
5.31834e-62
-5.8285e-59
2.23543e-65
2.65324e-62
9.33127e-69
-1.13391e-65
3.2165e-72
1.26892e-68
1.62544e-75
-1.28479e-71
6.68873e-79
3.22901e-75
1.0274e-81
-4.68563e-79
1.51927e-84
-1.62297e-81
-1.76189e-87
2.45088e-84
2.69808e-90
-3.05258e-87
2.44561e-94
-2.05247e-90
-3.29772e-97
6.32811e-94
-4.47471e-100
6.88329e-97
2.93583e-104
-1.35721e-100
1.49603e-106
-3.52108e-103
-3.14954e-111
-2.27141e-107
1.04964e-112
-2.50631e-109
1.32502e-115
-1.79143e-112
2.91418e-119
2.191e-116
-3.60379e-122
4.74731e-119
1.45775e-125
-1.12334e-122
2.44268e-129
2.80884e-126
-1.0124e-131
1.08499e-128
-1.60223e-137
2.71742e-133
4.68771e-138
-4.80645e-135
3.98323e-143
-1.8806e-138
2.40447e-144
-2.09825e-141
4.57037e-149
-8.3371e-145
-1.49728e-150
2.17854e-147
1.16289e-154
6.4432e-151
5.30432e-156
-1.22147e-153
2.71271e-158
-1.33517e-157
9.27527e-160
2.29535e-09
4.2954e-11
6.86336e-11
2.38707e-09
-6.86014e-11
1.06481e-12
2.1385e-09
2.32732e-10
1.29815e-10
8.39312e-10
-3.32861e-10
1.01025e-10
3.42281e-10
9.03126e-10
5.33419e-10
2.06429e-10
1.3203e-10
-2.96449e-10
3.18152e-10
1.61984e-10
2.05817e-10
7.93365e-11
-2.57503e-11
3.23894e-10
1.29926e-13
5.11756e-12
4.49572e-11
3.82293e-20
-2.75476e-23
7.61594e-21
-4.02616e-22
1.98062e-22
-5.43878e-20
3.25815e-20
-3.80718e-20
6.6884e-25
3.10736e-25
6.92277e-27
-7.42453e-25
-2.80317e-23
3.0602e-24
-3.08471e-23
2.00087e-28
-4.60997e-27
1.0225e-29
5.69967e-33
-2.959e-31
-1.19859e-34
2.85996e-36
-9.543e-35
1.52248e-37
1.95118e-39
-3.10301e-38
3.72831e-40
1.3269e-42
-1.03377e-41
-5.73683e-43
9.02141e-46
-4.1231e-45
2.67657e-46
6.14566e-49
-1.31649e-48
1.33885e-49
4.35842e-52
-5.36663e-52
9.6537e-53
2.89459e-55
-9.75944e-56
2.29015e-56
2.00983e-58
1.00425e-59
-8.98627e-60
1.46474e-61
-9.5072e-62
9.5143e-62
9.80467e-65
-3.37673e-65
-2.08562e-65
6.71191e-68
-3.28084e-68
-1.17631e-68
4.59271e-71
3.74607e-72
-3.57591e-72
3.29106e-74
-1.76928e-74
-1.45802e-74
2.27941e-77
-5.31602e-78
1.47236e-78
1.57937e-80
-7.19055e-83
-3.84199e-81
1.09294e-83
-1.80862e-84
6.16441e-84
7.53141e-87
-1.2599e-87
2.35498e-87
5.1187e-90
1.28258e-90
-5.21012e-91
3.47723e-93
2.11026e-93
-9.03382e-94
2.39077e-96
1.08486e-96
-9.82396e-97
1.64779e-99
7.08474e-100
5.51075e-100
1.12174e-102
7.97517e-103
3.46544e-103
7.71621e-106
1.91052e-106
2.07876e-106
5.30736e-109
4.1325e-110
1.79679e-109
3.61153e-112
8.56672e-113
-4.89933e-113
2.4508e-115
-2.90751e-116
4.5637e-118
1.65848e-118
-3.9995e-119
1.99438e-119
1.12128e-121
-1.34506e-122
1.2445e-123
7.56638e-125
-1.3805e-124
5.79655e-125
5.09701e-128
-1.25585e-128
-1.21503e-128
3.42043e-131
-8.31124e-132
-1.13779e-131
2.30476e-134
-4.43611e-135
2.20788e-135
1.5463e-137
1.60859e-137
5.352e-138
1.03647e-140
-4.63088e-141
-1.29331e-141
6.86903e-144
6.72604e-145
5.81975e-145
4.58954e-147
-2.54689e-147
2.25261e-147
2.87017e-150
5.68452e-151
-1.49744e-151
3.56035e-152
-2.99496e-155
-1.92027e-153
3.58433e-153
1.02988e-155
2.89648e-156
3.00409e-157
7.5955e-159
2.32177e-09
8.00492e-11
5.35477e-11
2.30625e-09
-2.31341e-13
-3.03493e-11
2.23163e-09
2.33012e-10
3.25296e-11
7.52449e-10
-4.46398e-11
-2.94734e-11
2.63128e-10
7.77878e-10
2.53661e-10
-3.23682e-13
-7.59159e-11
5.90932e-10
2.51106e-10
-1.29277e-11
7.13861e-10
-1.77182e-10
-4.79328e-11
1.97091e-09
-3.79916e-11
-2.19828e-09
-1.13112e-16
-1.05808e-19
-3.40795e-19
8.08724e-18
-9.5469e-19
1.07027e-20
7.19671e-17
-2.30881e-16
2.62016e-16
1.754e-22
-2.70622e-21
6.61756e-24
1.76687e-21
-6.40557e-21
2.60261e-21
3.63854e-21
1.98805e-27
-2.19771e-24
6.27548e-29
7.68222e-31
-5.71188e-28
1.93291e-31
1.35566e-34
-2.57998e-31
-2.70927e-35
2.58263e-38
-9.74061e-35
4.60446e-38
2.89846e-41
-2.2645e-38
3.03552e-41
3.44264e-44
-4.86805e-42
-2.09162e-44
2.29136e-47
-1.01874e-45
2.06709e-47
1.55131e-50
-2.34785e-49
1.89617e-50
1.09688e-53
-3.5696e-52
-7.26398e-54
7.96956e-57
-8.65409e-55
-5.09993e-57
5.94724e-60
-1.19508e-57
3.6347e-60
3.71342e-63
6.02898e-62
5.12904e-64
2.58636e-66
9.5275e-65
-3.2476e-66
1.79424e-69
-6.00224e-68
9.67149e-71
1.24431e-72
1.16157e-71
1.45079e-72
8.6096e-76
2.17257e-74
3.26555e-76
5.9401e-79
9.52091e-79
-3.08105e-79
4.09907e-82
7.64557e-81
2.46264e-82
2.82801e-85
1.64757e-84
1.52048e-85
1.94426e-88
-7.37425e-87
-6.88903e-89
1.37715e-91
-5.23638e-90
-1.92995e-92
9.22076e-95
-1.19699e-92
1.25146e-95
6.26495e-98
2.20705e-97
-4.54558e-98
4.2775e-101
-3.23053e-101
-2.45265e-101
2.91545e-104
6.48944e-104
2.40304e-104
1.98593e-107
4.60295e-106
2.10539e-107
1.35089e-110
3.32084e-110
-9.13711e-111
9.1666e-114
-3.54554e-112
1.72133e-114
6.20972e-117
-7.7707e-116
-1.25516e-117
4.20218e-120
-6.3914e-119
4.94182e-121
2.83753e-123
-5.93438e-122
-1.19376e-124
1.91275e-126
-3.05174e-125
1.82001e-126
1.28612e-129
-2.13657e-128
-1.0596e-129
8.62647e-133
-8.08472e-132
-1.62724e-133
5.78812e-136
8.44721e-135
1.4229e-136
3.88324e-139
2.36787e-138
2.01673e-139
2.59773e-142
1.65633e-141
1.11366e-142
1.73242e-145
-3.2753e-145
4.05189e-146
1.15449e-148
-2.98033e-147
-4.67382e-149
1.86477e-151
7.77968e-151
-5.63753e-152
6.02836e-152
-5.27438e-155
9.84675e-155
7.19177e-157
1.86913e-157
2.34815e-09
9.8587e-11
7.29244e-11
2.33148e-09
6.00091e-11
1.44029e-11
2.35813e-09
2.31156e-10
-5.22891e-11
6.30804e-10
9.86497e-11
-4.30577e-11
5.71311e-10
6.43953e-10
5.79034e-10
1.11921e-10
-1.30403e-10
7.22855e-10
-5.08889e-11
-1.86795e-11
1.187e-09
-1.82984e-10
-3.3371e-10
-7.77877e-11
-1.03506e-10
-5.16341e-10
-1.54269e-13
-3.82816e-14
3.01051e-16
-3.81531e-17
2.55351e-14
-1.49826e-12
9.74462e-14
1.56331e-12
-7.66973e-17
2.73441e-16
1.75542e-15
1.71909e-15
-2.3756e-20
-2.29948e-21
2.33368e-21
-8.74541e-19
9.84371e-20
5.82575e-20
5.54004e-19
3.04347e-26
-1.00261e-24
-3.267e-26
1.3094e-28
-5.10557e-29
8.80805e-30
4.42206e-32
-3.42926e-32
-2.98633e-33
1.61026e-35
-1.8347e-35
-4.62513e-36
1.12008e-38
-8.11583e-39
7.56621e-40
7.85089e-42
-2.45393e-42
4.18423e-42
5.48333e-45
-3.3876e-46
6.85165e-45
3.81893e-48
6.68461e-51
5.54664e-49
2.65352e-51
-7.26112e-53
-8.6747e-52
1.84038e-54
7.99567e-55
1.81818e-54
1.2766e-57
6.45604e-58
6.0584e-58
8.83251e-61
4.85544e-62
-1.63475e-61
6.09338e-64
2.77324e-65
4.33272e-64
4.20015e-67
-4.46903e-68
3.39651e-67
2.88931e-70
-3.53216e-71
-6.75198e-72
1.98373e-73
-4.49067e-74
-3.08503e-75
1.36008e-76
-1.75484e-77
-3.03902e-77
9.31136e-80
5.57713e-81
-2.83025e-80
6.36354e-83
1.11888e-83
3.35283e-85
4.34253e-86
-7.32399e-88
1.22504e-86
2.95818e-89
3.4394e-90
1.02181e-90
2.00963e-92
1.00916e-92
-2.65429e-93
1.36483e-95
2.96371e-96
6.30788e-96
9.26895e-99
1.17e-99
2.87472e-99
6.27494e-102
-5.37511e-103
3.89884e-102
4.23823e-105
-4.68193e-106
-6.46509e-107
2.86144e-108
9.65389e-110
-4.6328e-109
1.92799e-111
5.71823e-113
5.3032e-112
1.29565e-114
3.18831e-116
6.59877e-115
8.69967e-118
-5.55217e-120
-1.11062e-118
5.83418e-121
-4.63032e-122
-5.60038e-123
3.90563e-124
1.23432e-125
6.58939e-125
2.61192e-127
-1.80398e-128
1.81892e-128
1.74325e-130
1.65317e-131
3.57765e-131
1.16168e-133
3.73518e-134
7.06446e-134
7.73866e-137
1.45041e-137
2.75878e-137
5.14479e-140
-3.13987e-141
4.12931e-142
3.41143e-143
-7.00793e-145
4.11866e-145
2.25976e-146
1.36398e-148
-2.00857e-147
1.47059e-149
1.48867e-150
5.20819e-150
4.61982e-152
-1.37999e-153
1.8948e-152
-1.77699e-156
-1.88744e-156
2.37374e-09
6.92681e-11
9.82921e-11
2.45207e-09
4.46645e-11
-1.90918e-12
2.4642e-09
1.93818e-10
9.43654e-12
7.72359e-10
-2.70776e-11
-3.52451e-11
5.57379e-10
7.93215e-10
5.83799e-10
-7.53877e-11
-5.03934e-11
8.0944e-10
1.21646e-10
-2.09224e-11
3.8614e-10
9.5065e-11
-1.2486e-10
1.18123e-10
1.11276e-10
-5.85676e-10
1.79179e-13
-2.16682e-13
3.32271e-14
3.52361e-15
9.74346e-14
5.57299e-14
7.30477e-20
2.37658e-20
1.30169e-21
-1.5455e-20
-4.67348e-19
8.282e-20
2.46613e-19
9.19106e-27
1.28582e-23
4.39192e-26
3.89037e-29
-7.261e-28
1.77084e-29
1.24503e-32
-5.22024e-31
5.45106e-33
5.82367e-36
1.65148e-34
2.46982e-36
4.10419e-39
-1.24585e-37
-8.80992e-40
2.90881e-42
-5.76007e-41
-1.02361e-42
2.04998e-45
-3.20202e-44
5.69251e-46
1.44035e-48
-9.75658e-48
6.02831e-49
1.01226e-51
-7.37001e-51
5.41224e-52
7.0867e-55
-2.32667e-54
4.25104e-55
4.94669e-58
-1.16098e-57
-3.45356e-58
3.44941e-61
-3.27569e-60
-1.46629e-61
2.40026e-64
6.30872e-64
1.49287e-65
1.66903e-67
-1.41717e-68
-1.9922e-68
1.15792e-70
4.49433e-70
-7.15045e-71
8.02381e-74
1.01103e-72
3.38602e-74
5.55697e-77
7.42238e-76
6.51019e-77
3.8407e-80
1.67664e-80
1.16407e-80
2.64591e-83
-1.57862e-82
3.39565e-84
1.82087e-86
1.67589e-86
8.30926e-87
1.25106e-89
1.27248e-89
-9.65647e-90
8.56896e-93
3.06166e-93
-2.45143e-93
5.86837e-96
-1.55251e-95
2.55639e-96
4.02097e-99
-5.57787e-99
2.04513e-99
2.74813e-102
1.12136e-101
3.45308e-103
1.87164e-105
-1.86398e-105
-1.34577e-105
1.27366e-108
7.5973e-108
3.38623e-109
8.65726e-112
-3.76844e-111
8.8606e-112
5.86566e-115
-7.9963e-116
1.51322e-116
3.96926e-118
9.95352e-118
-2.33665e-118
2.68406e-121
-1.02524e-120
-3.5258e-122
1.81242e-124
-1.25965e-123
8.4577e-125
1.2229e-127
1.33574e-127
4.17795e-128
8.23493e-131
7.20692e-131
1.50698e-131
5.52697e-134
-1.09043e-133
2.49548e-134
3.7051e-137
-2.35904e-136
6.09971e-138
2.48139e-140
2.95894e-140
9.18023e-142
1.65902e-143
1.69187e-143
1.94105e-144
1.10669e-146
-1.44745e-146
2.71086e-147
7.22407e-150
-9.85457e-150
-2.67129e-151
-3.39066e-151
1.43747e-153
-5.20337e-154
-5.04909e-156
-5.51974e-156
2.42418e-09
1.89709e-11
8.75254e-11
2.45353e-09
1.382e-11
-3.50186e-11
2.58155e-09
6.15485e-11
4.79856e-11
6.02134e-10
1.79018e-11
7.127e-11
6.67267e-10
6.91524e-10
6.49577e-10
1.78039e-10
-1.24931e-10
6.77536e-10
1.86162e-10
-3.23835e-10
2.77191e-10
-6.64317e-11
-1.88104e-10
3.79145e-10
1.10469e-10
-5.13547e-10
-3.7442e-09
-6.74301e-11
-1.89262e-12
-3.66111e-12
-4.83724e-11
3.88394e-14
9.2044e-19
7.9775e-20
1.21591e-20
2.25762e-17
-2.56118e-17
1.67961e-17
-1.54582e-17
-1.42615e-25
3.52786e-23
1.77946e-24
3.91616e-28
1.54322e-27
1.08063e-28
1.89555e-31
5.72609e-31
-2.19379e-31
8.2583e-35
1.62884e-34
2.0431e-34
5.83005e-38
3.67646e-38
1.08053e-37