/*--------------------------------*- C++ -*----------------------------------*\
| =========                 |                                                 |
| \\      /  F ield         | OpenFOAM: The Open Source CFD Toolbox           |
|  \\    /   O peration     | Version:  5.0                                   |
|   \\  /    A nd           | Web:      www.OpenFOAM.org                      |
|    \\/     M anipulation  |                                                 |
\*---------------------------------------------------------------------------*/
FoamFile
{
    version     2.0;
    format      ascii;
    class       volScalarField;
    location    "0.1";
    object      alpha.water;
}
// * * * * * * * * * * * * * * * * * * * * * * * * * * * * * * * * * * * * * //

dimensions      [0 0 0 0 0 0 0];

internalField   nonuniform List<scalar> 
4398
(
0.999994
1
1.00005
1.00006
0.999976
0.208029
-2.59885e-18
2.02753e-17
2.6301e-19
1.90451e-23
3.53331e-28
1.29385e-31
5.45836e-35
2.26433e-38
9.58468e-42
4.08125e-45
1.44532e-48
6.84438e-52
3.05804e-55
7.70607e-59
4.83693e-62
1.97983e-65
1.13217e-68
-1.20521e-92
4.19459e-75
2.47499e-79
-3.83523e-96
5.0707e-85
-4.57195e-103
5.54475e-92
7.24839e-96
5.14528e-98
1.30416e-100
1.26897e-119
2.43442e-110
4.99368e-110
1.43097e-113
7.21326e-133
1.14353e-119
-3.43955e-139
9.16503e-130
5.52506e-131
1.65361e-132
1.95242e-135
2.4965e-146
2.77055e-142
2.22156e-145
3.3433e-147
1.68918e-149
7.22494e-152
1.00001
1.00001
0.999981
0.99994
1.00006
1
-3.53922e-24
-6.15465e-30
-4.81482e-38
7.82082e-25
6.12529e-27
7.58843e-31
8.75812e-50
1.13123e-37
2.60254e-40
6.69379e-44
3.34859e-47
1.6379e-50
7.22542e-54
3.64274e-57
1.94066e-60
2.56526e-64
1.75354e-68
1.12553e-70
1.23306e-73
1.05675e-77
7.45851e-81
2.91409e-85
1.52484e-86
4.81883e-91
1.31291e-94
1.09682e-96
-1.03954e-115
3.92405e-103
9.70893e-107
4.69531e-110
1.43371e-112
6.36155e-116
1.20287e-119
3.4814e-123
0
1.21846e-127
1.06572e-131
9.55635e-136
2.46537e-137
2.90439e-141
3.38237e-145
1.22596e-145
1.59548e-147
1.25993e-149
0.999988
0.999975
0.999994
1
1.00002
1.00002
-4.56312e-19
-5.52571e-26
6.16288e-36
4.85207e-21
4.83902e-23
4.19086e-27
5.29158e-31
2.20287e-34
9.40356e-38
4.04271e-41
1.6503e-44
6.91396e-48
2.86077e-51
1.16753e-54
4.56978e-58
1.96946e-61
8.7905e-65
3.59827e-68
1.55034e-71
4.94353e-75
1.55202e-79
2.11889e-103
7.55894e-86
8.08492e-89
3.05314e-91
5.62109e-94
4.05852e-98
1.6331e-102
1.82734e-103
7.00502e-109
-3.02546e-126
3.89167e-115
1.59479e-117
3.55035e-120
4.13677e-124
2.96321e-126
6.36327e-129
7.43174e-146
3.18943e-139
9.3536e-139
5.2314e-144
3.01531e-145
1.45497e-146
1.65662e-148
1.00001
0.999995
0.999998
1.00007
0.999975
0.999384
-1.1435e-14
-1.50201e-23
4.93038e-35
1.51071e-21
1.43768e-23
1.35554e-27
2.44773e-31
1.07893e-34
4.72852e-38
2.00833e-41
9.01726e-45
4.06984e-48
1.72218e-51
5.39258e-55
2.64801e-58
2.00043e-62
4.06944e-65
2.1302e-68
2.0943e-71
2.04722e-74
3.92727e-93
2.43435e-82
1.04702e-84
2.8065e-87
4.87102e-92
2.55539e-94
8.61998e-98
8.18363e-101
1.19945e-104
1.8212e-107
1.29755e-109
9.97668e-113
1.33986e-116
1.50767e-119
-4.45099e-145
1.30247e-126
3.22221e-151
2.8888e-133
1.32603e-136
1.15699e-145
3.45638e-142
2.36693e-145
9.63711e-147
1.19055e-148
0.999995
1.00002
0.999997
0.99999
1.00008
1.00051
0.149462
-1.76908e-21
6.08702e-49
2.12043e-23
3.96197e-23
3.48362e-25
2.49681e-29
3.1813e-33
1.35578e-36
5.7517e-40
2.40078e-43
1.00932e-46
3.87023e-50
1.89128e-53
6.84685e-57
1.90119e-60
1.26719e-63
6.35059e-67
1.58322e-71
2.84628e-74
5.85696e-77
9.96581e-81
1.02876e-82
2.71439e-86
4.11351e-90
7.49389e-94
1.10512e-95
9.48134e-99
5.44404e-104
1.38856e-105
2.57713e-110
4.9199e-113
1.06068e-115
4.57749e-118
5.82794e-122
6.03351e-126
2.50554e-130
8.84779e-131
1.32636e-134
9.80721e-141
1.09341e-140
4.85605e-146
1.24494e-145
1.62854e-147
1.00002
1.00002
0.99999
0.999942
0.999869
1.00041
0.157423
-9.24543e-22
1.57772e-33
7.53697e-21
1.04489e-22
2.33779e-26
5.30053e-30
2.20764e-33
9.47177e-37
4.05218e-40
1.71062e-43
7.60968e-47
2.32263e-50
1.46064e-53
6.98579e-57
2.61457e-61
1.43272e-63
4.7921e-67
2.1937e-71
3.68663e-74
5.29389e-77
7.08668e-80
1.06679e-83
1.26806e-86
7.624e-91
-1.63938e-115
1.87824e-96
2.09078e-99
6.06649e-104
9.91383e-122
3.01644e-109
3.56964e-112
2.60907e-115
3.31386e-119
4.33914e-125
9.45276e-125
6.27733e-128
3.31196e-134
1.12901e-145
1.92488e-138
2.48672e-140
4.5765e-144
1.24428e-145
1.68755e-147
1.00002
0.999969
1.00001
1.00005
0.999913
0.999257
0.0595245
-9.49484e-24
1.01929e-40
2.79055e-21
2.66721e-23
2.15848e-27
2.49769e-31
1.04597e-34
4.37798e-38
1.82027e-41
7.734e-45
3.42893e-48
1.32989e-51
4.22969e-55
2.34231e-58
4.39109e-62
4.98901e-65
1.72325e-68
2.36598e-72
1.57918e-74
3.08594e-78
1.21079e-103
1.64767e-84
1.66341e-88
7.458e-92
5.45019e-110
5.76307e-99
1.00631e-101
3.15604e-104
9.44458e-107
5.79101e-110
6.53703e-114
3.45815e-119
1.69869e-120
1.48757e-124
3.1416e-126
2.32228e-129
9.67407e-146
1.33648e-145
7.08146e-140
8.043e-142
4.54624e-145
1.46284e-146
1.53162e-148
0.999985
0.999986
1.00001
1.00003
1.00017
1.00033
-1.74247e-17
-1.92907e-26
-6.16293e-36
3.49907e-21
3.45101e-23
2.89648e-27
3.52381e-31
1.4639e-34
6.27432e-38
2.62867e-41
1.11681e-44
4.44221e-48
2.00086e-51
7.73995e-55
3.28145e-58
1.09459e-61
6.85284e-65
4.5634e-69
2.14399e-71
4.99908e-75
2.34771e-79
2.71849e-82
1.50388e-84
8.04734e-89
1.1162e-106
3.49832e-94
2.97488e-98
-1.52107e-124
7.90743e-127
7.58785e-107
2.4069e-111
5.20094e-114
-3.3461e-139
2.3247e-119
3.19318e-124
4.39201e-127
4.72671e-130
4.54912e-136
5.20401e-136
1.12518e-145
2.76547e-142
1.63942e-145
7.375e-147
7.7537e-149
0.999982
1.00002
0.999988
0.999955
1.00016
1.00011
-3.48785e-21
-2.65073e-38
-9.62949e-38
3.77052e-23
3.75639e-25
3.0426e-29
2.7565e-33
1.08128e-36
4.46745e-40
1.78362e-43
7.31187e-47
3.15033e-50
1.37546e-53
4.44319e-57
2.25039e-60
9.83855e-64
2.43248e-67
6.46707e-71
3.46586e-74
1.76228e-77
2.52661e-80
5.20661e-84
6.30643e-88
3.02592e-91
8.07276e-93
1.46383e-96
7.60814e-101
1.39347e-103
1.11024e-107
4.51112e-110
5.86954e-135
3.43794e-119
6.09026e-119
4.7434e-122
-5.3743e-141
1.53343e-130
6.14287e-134
5.69228e-135
1.12031e-145
1.78269e-141
1.61605e-145
5.46307e-146
6.89593e-148
5.24946e-150
1.00003
1
1.00001
1.00002
0.999706
0.95422
-1.65436e-27
1.70371e-17
2.36678e-19
1.81136e-23
3.42785e-28
1.24313e-31
5.21408e-35
2.19831e-38
9.17763e-42
3.81866e-45
1.57918e-48
6.71541e-52
2.70609e-55
1.2884e-58
1.26953e-62
1.51269e-65
5.83989e-69
3.26837e-72
6.08353e-76
3.62965e-100
2.91983e-82
6.68857e-86
7.60935e-89
-2.2324e-106
4.78054e-96
4.99151e-99
2.66808e-101
0
-3.09807e-123
8.9935e-111
-7.38638e-130
3.00052e-117
1.8787e-123
1.6984e-126
6.50858e-127
3.36571e-130
2.04764e-133
1.00463e-135
3.15124e-140
1.52896e-142
2.63319e-145
3.41605e-147
1.81339e-149
7.63577e-152
1.00003
1.00003
1.00002
0.999976
0.999976
0.231214
2.90326e-17
1.48102e-16
3.45814e-18
7.37532e-22
1.75434e-26
1.10578e-29
8.10423e-33
5.68799e-36
3.98505e-39
2.7874e-42
1.94618e-45
1.3567e-48
9.44428e-52
6.5641e-55
4.55234e-58
3.15086e-61
2.17608e-64
1.49921e-67
1.03074e-70
7.07528e-74
4.84568e-77
3.31513e-80
2.26334e-83
1.54197e-86
1.04708e-89
7.1048e-93
4.8181e-96
3.25545e-99
2.19514e-102
1.47955e-105
9.94991e-109
6.67265e-112
4.47259e-115
2.98808e-118
1.99462e-121
1.32865e-124
8.83541e-128
5.85101e-131
3.86362e-134
2.56798e-137
1.69229e-140
1.11665e-143
2.72823e-145
1.67521e-146
0.999963
0.999977
0.999978
0.999986
1.00004
1
1.98693e-14
2.41963e-21
2.34671e-23
4.36129e-23
5.79327e-25
9.98022e-29
1.96681e-32
3.50142e-35
3.86211e-38
3.44109e-41
2.84523e-44
2.25359e-47
1.56363e-50
1.14969e-53
8.54581e-57
5.88161e-60
4.26252e-63
2.96046e-66
2.03946e-69
1.44012e-72
9.94486e-76
6.83268e-79
4.75338e-82
3.22416e-85
2.18646e-88
1.52914e-91
1.05298e-94
7.14555e-98
4.81256e-101
3.29558e-104
2.21486e-107
1.52535e-110
1.03218e-113
6.97495e-117
4.69037e-120
3.1496e-123
2.11318e-126
1.41438e-129
9.48097e-133
6.23835e-136
4.20849e-139
2.75636e-142
3.09491e-145
1.56874e-145
0.999986
0.999993
1.00005
1.00004
1.00003
0.999988
8.10044e-09
8.90878e-19
2.41963e-21
4.43406e-20
6.35814e-22
1.1693e-25
2.53296e-29
1.81203e-32
1.29388e-35
9.15419e-39
6.45683e-42
4.54594e-45
3.19282e-48
2.23861e-51
1.56648e-54
1.09359e-57
7.61809e-61
5.29844e-64
3.67685e-67
2.54577e-70
1.76008e-73
1.21402e-76
8.35464e-80
5.74212e-83
3.93775e-86
2.69438e-89
1.84124e-92
1.25535e-95
8.53922e-99
5.80048e-102
3.93163e-105
2.65902e-108
1.7957e-111
1.21009e-114
8.13712e-118
5.46407e-121
3.66151e-124
2.44789e-127
1.63442e-130
1.08887e-133
7.23821e-137
4.8059e-140
3.18217e-143
2.80049e-145
1.00002
0.999992
0.999991
1.00002
0.999992
1.00011
3.07254e-06
7.22016e-18
1.35199e-20
1.67381e-20
2.26725e-22
4.40947e-26
1.30882e-29
1.02403e-32
7.6688e-36
5.57143e-39
3.9954e-42
2.83901e-45
2.00368e-48
1.40933e-51
9.86483e-55
6.90622e-58
4.81659e-61
3.35313e-64
2.32264e-67
1.60895e-70
1.11297e-73
7.70274e-77
5.31166e-80
3.64259e-83
2.50299e-86
1.71389e-89
1.17256e-92
7.99133e-96
5.44603e-99
3.69027e-102
2.50181e-105
1.69635e-108
1.14643e-111
7.71279e-115
5.18103e-118
3.49019e-121
2.33853e-124
1.56624e-127
1.04511e-130
6.96775e-134
4.64048e-137
3.06886e-140
2.03114e-143
2.76755e-145
0.999993
0.999988
0.999981
0.999978
1.00005
1.00033
0.171779
8.69339e-17
1.38418e-19
1.50762e-19
2.34966e-21
9.84849e-25
4.22134e-28
2.99873e-31
2.13877e-34
1.51499e-37
1.07019e-40
7.54673e-44
5.30932e-47
3.72579e-50
2.6102e-53
1.82449e-56
1.27244e-59
8.86166e-63
6.15697e-66
4.26839e-69
2.95451e-72
2.04112e-75
1.40619e-78
9.67531e-82
6.64334e-85
4.55189e-88
3.11349e-91
2.12503e-94
1.44705e-97
9.83935e-101
6.67601e-104
4.51944e-107
3.0554e-110
2.06094e-113
1.38706e-116
9.32364e-120
6.25401e-123
4.18494e-126
2.79688e-129
1.86523e-132
1.24111e-135
8.24749e-139
5.46737e-142
4.62615e-145
0.999971
1.00001
1.00001
0.999966
0.999868
0.998458
0.162273
9.08981e-17
1.42241e-19
1.53044e-19
2.26102e-21
8.83729e-25
3.81934e-28
2.71565e-31
1.93621e-34
1.37153e-37
9.68864e-41
6.83146e-44
4.80679e-47
3.37258e-50
2.36286e-53
1.65189e-56
1.15205e-59
8.02272e-63
5.57441e-66
3.86474e-69
2.67548e-72
1.84745e-75
1.27293e-78
8.75871e-82
6.01383e-85
4.12016e-88
2.81849e-91
1.92355e-94
1.30984e-97
8.90674e-101
6.04275e-104
4.09047e-107
2.76506e-110
1.865e-113
1.25508e-116
8.4356e-120
5.65832e-123
3.78659e-126
2.53038e-129
1.68745e-132
1.12281e-135
7.4607e-139
4.94481e-142
4.43926e-145
1.00002
1.00003
1.00001
1.00002
0.99994
1
0.0875666
7.7929e-18
2.64352e-20
4.1773e-20
5.85472e-22
9.82678e-26
1.80804e-29
1.277e-32
9.06059e-36
6.38188e-39
4.48737e-42
3.15516e-45
2.21368e-48
1.5494e-51
1.08369e-54
7.56367e-58
5.26621e-61
3.66036e-64
2.54e-67
1.7591e-70
1.21527e-73
8.38177e-77
5.76701e-80
3.96463e-83
2.7191e-86
1.85952e-89
1.26975e-92
8.65361e-96
5.88565e-99
3.99648e-102
2.70949e-105
1.83088e-108
1.23567e-111
8.32726e-115
5.59834e-118
3.75746e-121
2.51654e-124
1.68258e-127
1.12313e-130
7.48107e-134
4.97431e-137
3.30097e-140
2.18365e-143
2.77157e-145
1.00001
0.999977
0.999987
1.00002
1.00021
1.0007
6.02197e-07
7.25574e-19
3.76993e-21
3.59346e-20
5.14721e-22
9.36928e-26
1.97534e-29
1.40873e-32
1.00405e-35
7.09229e-39
4.99729e-42
3.51688e-45
2.46924e-48
1.73033e-51
1.21014e-54
8.44733e-58
5.88251e-61
4.09027e-64
2.83773e-67
1.9643e-70
1.3576e-73
9.36464e-77
6.44414e-80
4.42843e-83
3.03662e-86
2.0775e-89
1.41943e-92
9.67616e-96
6.58157e-99
4.47072e-102
3.03001e-105
2.04869e-108
1.38355e-111
9.32209e-115
6.26778e-118
4.20863e-121
2.81994e-124
1.88509e-127
1.25856e-130
8.38491e-134
5.57398e-137
3.70066e-140
2.45094e-143
2.78556e-145
0.999949
0.999944
1.00004
1.00003
1.00013
1.00013
1.01183e-12
3.76993e-21
1.75314e-23
3.86979e-22
5.74501e-24
9.55008e-28
1.24323e-31
8.13057e-35
5.52246e-38
3.74558e-41
2.5755e-44
1.78751e-47
1.24675e-50
8.6562e-54
5.99529e-57
4.16936e-60
2.90747e-63
2.0111e-66
1.39549e-69
9.62847e-73
6.64504e-76
4.58897e-79
3.15989e-82
2.18097e-85
1.48975e-88
1.01342e-91
6.91011e-95
4.70065e-98
3.19835e-101
2.18108e-104
1.47289e-107
9.92987e-111
6.69986e-114
4.51596e-117
3.03147e-120
2.03351e-123
1.35894e-126
9.07867e-130
6.06384e-133
4.03172e-136
2.69111e-139
1.78503e-142
2.86162e-145
1.22064e-145
1.00001
1.00001
0.999994
0.999981
0.999684
0.95316
3.52378e-16
1.17689e-16
2.72755e-18
5.82155e-22
1.43076e-26
9.08879e-30
6.65584e-33
4.67057e-36
3.27244e-39
2.28879e-42
1.59787e-45
1.11394e-48
7.74977e-52
5.37985e-55
3.72927e-58
2.57963e-61
1.78057e-64
1.22729e-67
8.43987e-71
5.79082e-74
3.96984e-77
2.71504e-80
1.8523e-83
1.2626e-86
8.58524e-90
5.82498e-93
3.94642e-96
2.6678e-99
1.80017e-102
1.21295e-105
8.15615e-109
5.47135e-112
3.66541e-115
2.45034e-118
1.63493e-121
1.08926e-124
7.2399e-128
4.80438e-131
3.18364e-134
2.10517e-137
1.38905e-140
9.15676e-144
2.7293e-145
1.47641e-146
1.00002
1.00002
0.999967
0.999938
1.00012
0.224283
4.76671e-18
2.0818e-17
2.76474e-19
2.09936e-23
3.83077e-28
1.39876e-31
5.88658e-35
2.47322e-38
1.0442e-41
4.38282e-45
1.8453e-48
7.80415e-52
3.42256e-55
1.45361e-58
5.84759e-62
2.87846e-65
1.32567e-68
5.68504e-72
3.95823e-75
2.57726e-78
8.82134e-82
4.10759e-85
6.33145e-88
1.93531e-91
1.26467e-94
6.40214e-98
1.2742e-100
3.74394e-104
2.84342e-107
4.01407e-110
4.69852e-113
8.8632e-117
1.65643e-119
4.29872e-123
2.39723e-126
2.10574e-129
3.62743e-132
1.98138e-135
2.62022e-139
4.76069e-142
4.52758e-145
7.07738e-147
3.59394e-149
1.43731e-151
0.999957
0.999992
0.999995
1
1.0001
1
8.59723e-15
-8.39578e-30
-1.35666e-43
5.11294e-24
4.40497e-26
4.74249e-30
-7.00649e-49
0
3.62968e-40
3.21518e-43
4.6008e-47
2.77102e-50
1.54261e-53
5.61336e-57
2.6846e-60
1.79345e-63
8.08999e-67
3.01227e-70
1.52384e-73
9.84533e-77
8.64164e-80
3.2455e-83
1.84836e-86
2.78151e-89
3.18406e-92
9.97386e-96
4.92319e-99
4.49893e-102
2.00452e-105
1.8198e-108
1.8737e-111
2.97517e-115
2.23762e-118
4.46124e-121
1.88293e-124
2.65228e-127
1.3943e-130
6.9544e-134
5.31e-137
3.14527e-140
1.59082e-143
2.35746e-145
3.24727e-147
2.5092e-149
0.999994
1.00001
1.00004
1.00002
0.999954
1.00001
5.2335e-09
-2.07599e-26
-6.16332e-36
2.84101e-20
3.25575e-22
2.17139e-26
7.58176e-31
2.99878e-34
1.27772e-37
5.38104e-41
2.28063e-44
9.8273e-48
4.20705e-51
1.72863e-54
8.42817e-58
3.83585e-61
1.50575e-64
6.73225e-68
3.25921e-71
2.03647e-74
9.96212e-78
7.3831e-81
3.32445e-84
2.93486e-87
2.48498e-90
1.3832e-93
1.12911e-96
6.46029e-100
3.25236e-103
1.76127e-106
1.65599e-109
4.83438e-113
3.93938e-116
4.43865e-119
2.02527e-122
1.49679e-125
2.64281e-128
1.32075e-131
2.52614e-135
2.79078e-138
2.02402e-141
1.23712e-144
4.77432e-146
4.61786e-148
1.00001
1.00001
1.00001
0.999979
0.999937
1.00011
2.48104e-06
-6.51046e-24
-1.20764e-40
1.33039e-21
1.29913e-23
1.29686e-27
2.42708e-31
1.08603e-34
4.79703e-38
2.1408e-41
9.08704e-45
3.91538e-48
1.72296e-51
9.82507e-55
6.82043e-58
1.62997e-61
7.94616e-65
1.45975e-67
5.62992e-71
1.55138e-74
3.36966e-77
1.88714e-80
2.61e-84
2.74041e-87
1.03471e-90
2.35538e-93
9.57205e-97
1.14242e-99
1.47534e-102
2.57977e-106
8.75561e-110
1.25831e-112
1.05148e-115
2.47885e-119
1.35444e-122
3.35024e-125
1.13747e-128
3.93394e-132
2.64948e-135
2.46397e-138
1.81195e-141
1.65174e-144
4.62385e-146
4.44612e-148
0.999999
0.999998
0.999972
0.999975
1.00011
0.999934
0.162338
-9.20329e-22
1.11634e-41
1.6922e-21
4.99507e-23
4.02325e-26
6.32644e-30
2.52958e-33
1.08958e-36
4.62093e-40
1.99194e-43
8.75082e-47
3.89452e-50
1.69462e-53
7.37308e-57
4.52674e-60
2.48925e-63
1.39061e-66
7.06072e-70
2.48203e-73
6.24161e-76
3.46007e-79
1.21005e-82
3.12441e-86
7.70403e-89
5.45934e-92
2.00406e-95
8.10925e-99
4.63869e-102
8.06791e-105
5.49244e-108
3.13688e-111
1.28074e-114
5.18706e-118
2.46942e-121
5.5442e-124
2.71561e-127
2.20766e-130
7.96242e-134
6.76211e-137
4.37758e-140
3.06782e-143
2.61175e-145
4.32801e-147
0.999972
0.999988
0.999991
1.00001
0.999989
1.00013
0.162946
-8.97687e-22
-1.57772e-33
3.30494e-21
6.23001e-23
2.23589e-26
5.44128e-30
2.3319e-33
9.9198e-37
4.21982e-40
1.79136e-43
7.82291e-47
3.53976e-50
1.55276e-53
7.68315e-57
4.47903e-60
1.42477e-63
1.10087e-66
6.81013e-70
1.92646e-73
2.0253e-76
1.19653e-79
5.71517e-83
1.03361e-85
9.26987e-89
2.70854e-92
1.00139e-95
1.62843e-98
1.16949e-101
3.75413e-105
1.99979e-108
1.59505e-111
3.89525e-115
7.73407e-118
9.57473e-121
4.27777e-124
1.76865e-127
9.09692e-131
8.7661e-134
5.95762e-137
6.51539e-140
4.01343e-143
2.63519e-145
4.30448e-147
1.00001
1.00002
1.00001
1.00003
0.999897
0.999355
0.0737008
-7.35013e-24
-4.93037e-35
3.23045e-21
3.06749e-23
2.48989e-27
2.99404e-31
1.24443e-34
5.31292e-38
2.25323e-41
9.3679e-45
4.03485e-48
1.87966e-51
7.31024e-55
4.40278e-58
1.96108e-61
7.64464e-65
6.44789e-68
2.44518e-71
1.54442e-74
3.95525e-78
3.2645e-81
8.98744e-84
8.87613e-87
1.14572e-90
7.18526e-94
4.16322e-97
7.26003e-100
4.0697e-103
9.49694e-107
1.01222e-109
1.15241e-112
6.65311e-116
1.76546e-119
1.50503e-122
2.08101e-125
1.21892e-128
1.12313e-131
3.03691e-135
2.15211e-138
3.38472e-141
1.08953e-144
4.73507e-146
4.5796e-148
1
1
1.00002
1.00001
1.00007
1.00034
4.77326e-07
-6.6938e-27
3.94375e-42
2.66703e-21
2.61306e-23
2.15861e-27
2.68179e-31
1.12542e-34
4.79628e-38
2.03417e-41
8.84774e-45
4.03222e-48
1.82386e-51
6.64717e-55
4.66514e-58
1.68468e-61
8.59449e-65
4.11601e-68
2.84597e-71
1.24224e-74
1.33727e-77
7.3527e-81
2.07672e-84
1.13069e-87
1.8198e-90
1.18318e-93
4.32912e-97
1.14044e-100
1.69518e-103
1.09612e-106
8.79619e-110
1.01459e-112
3.80571e-116
4.38459e-119
2.06388e-122
1.11234e-125
7.00942e-129
5.18739e-132
3.98442e-135
1.92031e-138
9.53144e-142
1.26727e-144
3.32554e-146
3.08469e-148
0.999964
0.999971
1.00003
0.999967
1.00009
1.00014
4.47635e-13
-1.19619e-37
3.94213e-43
9.92078e-24
1.39343e-25
1.36615e-29
5.41132e-34
1.87229e-37
6.32635e-41
2.60395e-44
1.52175e-47
5.28823e-51
2.49538e-54
1.04739e-57
9.07979e-61
8.22901e-64
4.39283e-67
9.37141e-71
6.26009e-74
9.6594e-77
7.82905e-80
1.81586e-83
3.1565e-86
1.27823e-89
7.03208e-93
5.47124e-96
8.53679e-99
7.22095e-102
7.48594e-106
8.04335e-109
6.25095e-112
4.58155e-115
1.81704e-118
1.66049e-121
1.86762e-124
1.29989e-127
5.99868e-131
2.17598e-134
1.90623e-137
6.56056e-141
9.75216e-144
1.7492e-145
2.05703e-147
1.50454e-149
1
1.00002
0.99999
1.00002
0.999841
0.949531
8.4676e-17
1.83325e-17
2.7158e-19
2.30088e-23
3.86896e-28
1.38475e-31
5.8167e-35
2.44907e-38
1.02948e-41
4.33384e-45
1.81724e-48
7.67557e-52
3.32178e-55
1.35841e-58
5.85879e-62
2.67515e-65
1.13344e-68
5.96063e-72
2.71367e-75
1.73673e-78
8.0838e-82
3.7979e-85
2.90436e-88
7.6366e-92
4.91581e-95
2.79249e-98
6.14271e-101
4.85467e-104
4.7678e-107
1.78762e-110
1.52663e-113
4.77106e-117
9.92873e-121
1.75253e-123
1.52048e-126
1.12654e-129
5.17055e-133
9.26795e-136
1.97178e-139
4.44191e-142
4.07316e-145
6.384e-147
3.71145e-149
1.56206e-151
-3.52118e-17
0.950987
-1.23229e-21
0.200485
4.32539e-12
0.941006
4.65911e-11
-8.54194e-23
0.999998
-1.17725e-17
1
4.3854e-09
1
3.03931e-07
-6.69544e-19
0.999928
0.132739
1.00001
5.11176e-06
1.00071
0.160422
0.260998
0.999187
0.929116
1.00123
0.261755
0.999852
0.940638
0.967336
1.00058
0.972243
1.00035
0.972564
0.999542
0.989747
0.979701
1.00032
0.968397
0.998386
0.963862
1.00008
0.965461
0.930096
0.999264
0.270878
1.0008
0.934263
1.00027
0.270306
0.130965
0.999993
-1.06159e-19
1.00167
0.155746
1.00015
4.78176e-06
-8.85362e-18
1
-4.0439e-20
1.00002
3.6202e-07
1
4.68979e-09
-1.51708e-20
0.196149
-6.71957e-18
0.929613
4.55326e-11
0.199377
5.06192e-12
1.51574e-11
0.935319
1.32136e-10
0.201852
1.23866e-11
0.945282
1.41164e-10
7.96766e-09
0.99999
5.09551e-07
1
7.76535e-09
1
4.91758e-07
6.63531e-06
1.0001
0.135318
1.00003
6.60353e-06
1.00055
0.159004
0.271904
1.00128
0.898836
1.00163
0.261699
0.999685
0.944784
0.950937
1.00031
0.962062
0.998774
0.971854
0.999963
0.965935
0.978068
0.997781
0.961992
1.00011
0.960879
0.999605
0.951106
0.903637
1.00107
0.272587
1.0017
0.929145
1.00021
0.267628
0.13677
1.00022
6.32493e-06
1.00012
0.157313
1.00017
6.58821e-06
4.88717e-07
1
7.94953e-09
1.00064
4.89945e-07
1
7.60857e-09
2.62212e-10
0.221312
1.38848e-11
0.9339
1.31481e-10
0.206107
1.3981e-11
6.0162e-12
0.931536
4.35818e-11
0.200874
-9.97586e-20
0.951823
-2.13795e-21
5.44211e-09
1.00002
3.18671e-07
1
-4.32258e-22
1
-2.40299e-17
5.29893e-06
1.00015
0.140248
1
-2.42187e-19
1.00051
0.132861
0.270501
1.00105
0.897795
0.999558
0.262861
0.999427
0.931121
0.959148
0.999911
0.989107
1.00025
0.983098
0.999805
0.980272
0.977256
0.998291
0.975351
1.0001
0.979579
1.00072
0.969299
0.916869
1.0007
0.27163
0.999602
0.931942
0.999726
0.264499
0.136353
1.00018
5.21261e-06
1.00003
0.129391
1.00001
-1.21405e-19
3.08446e-07
1
4.79455e-09
1
-5.34181e-18
1
-1.96433e-25
1.18809e-10
0.220251
5.50186e-12
0.952176
-2.03691e-21
0.193195
-3.21599e-18
0.991545
0.999902
1
0.99962
1
0.999833
1
6.70955e-07
-3.96496e-16
0.282812
0.201632
0.286051
-4.83712e-18
5.16114e-07
-7.08627e-49
-4.21099e-26
9.86123e-35
5.28109e-18
2.94052e-20
1.05796e-16
8.06063e-19
1
1.00003
1
0.999988
1.00001
0.999837
0.999964
0.822498
0.318618
1
1
0.318905
1
0.8278
2.52435e-32
-3.12011e-21
-1.79365e-25
8.37389e-15
1.05796e-16
1.79974e-10
8.37389e-15
1.00001
1.00022
1.00017
1.00094
1.0003
1.00013
1.00009
1
1
1.00041
1.00001
1
1.00036
1
-5.40579e-24
-7.58152e-18
4.42819e-14
5.35229e-09
8.07852e-13
5.55197e-07
1.12953e-12
0.999908
0.99989
0.999862
1.00001
1.00001
1.00009
0.999881
1.00001
1
0.999792
0.999421
1
0.999989
0.999787
-1.82089e-17
0.0592672
-3.19442e-23
2.60881e-06
5.15348e-12
0.0479029
5.15868e-12
1.00007
0.999902
0.999865
0.999531
0.999638
0.9999
1.00002
0.999881
0.999822
0.998914
0.998934
0.999395
0.998946
0.999022
-9.03847e-19
0.167736
-6.64921e-18
0.144542
8.79364e-11
0.14971
8.79351e-11
1.00008
1.00003
1.0002
1.00013
1.00044
0.99997
1.00012
0.999987
1.00132
1.0013
1.00155
1.00099
1.00082
0.999424
-3.35137e-18
0.149408
-5.34582e-19
0.178236
8.34148e-11
0.154613
8.3415e-11
0.999836
0.999928
1.00004
1.00045
1.0001
1.00011
1.00001
0.999945
0.999311
1.00033
1.00019
0.999843
1.00049
0.99911
-4.57889e-23
-1.21622e-15
-1.66165e-17
0.0561487
5.46585e-12
2.46185e-06
5.46401e-12
1
0.999981
0.999773
0.999613
0.999556
0.999867
0.999895
1
1
0.998933
0.998485
1
0.999138
1
5.7883e-14
-2.00244e-16
-2.17984e-24
5.77653e-07
8.16188e-13
4.99701e-09
7.59977e-13
1.00011
1.00013
1
1.00023
1.00016
1.00005
1
0.911623
1
1
1
1
1
0.917553
2.99479e-39
-7.73234e-49
6.31089e-33
2.077e-10
2.66903e-14
2.91734e-14
5.6318e-17
1
0.999853
0.997332
0.9999
1
0.999912
0.995554
0.0196063
0.101232
0.794371
0.937854
0.120178
0.787853
0.0120018
3.9445e-34
-7.39406e-21
6.16286e-36
1.24919e-16
1.06041e-18
6.62851e-18
2.192e-20
0.975422
0.9999
0.999999
0.999469
1
0.999938
1
3.04799e-06
2.14595e-06
0.28773
0.201071
2.84036e-06
0.288228
1.96977e-06
6.28342e-18
3.35407e-16
2.35846e-17
2.9475e-17
4.79491e-18
3.36694e-16
2.55338e-17
1
0.999903
1.00002
0.999689
0.999997
0.999841
1.00003
0.826136
0.320301
1
1
0.819483
0.320134
1
3.12631e-16
3.27746e-10
1.95567e-14
1.99811e-14
3.11988e-16
3.08177e-10
1.96691e-14
1
1.00011
1.00004
0.999924
0.999827
1.00008
0.999984
1
1
0.999657
1
1
1
0.999992
3.21937e-12
5.92091e-07
3.93284e-12
8.63623e-09
3.21937e-12
7.05548e-07
3.77819e-12
1.00003
1.00005
0.999879
1.0002
1.00009
1.00008
0.999903
0.999956
1
0.999133
1.00133
0.999978
1.00007
0.998655
3.05178e-11
0.0912859
2.28334e-11
3.2372e-06
3.01605e-11
0.043215
2.28334e-11
1
0.999977
1.0001
0.999415
1.00015
1.00001
1.00015
1.00019
1.00029
1.00092
0.999213
1.00031
1.00015
1.00112
3.11325e-10
0.18327
3.11321e-10
0.146296
3.11325e-10
0.178487
3.11321e-10
1.00009
0.999863
1.00005
1.00041
0.999939
0.999891
1
1.00004
1.00023
1.00048
1.00001
1.00042
1.00035
1.00043
3.25181e-10
0.159057
3.25188e-10
0.181886
3.25185e-10
0.170967
3.25187e-10
0.999961
1.00002
0.999988
1.00008
0.999957
1.00006
1.00001
0.999561
0.999396
0.998162
1.00136
0.999991
0.998792
0.998827
2.39552e-11
3.18642e-06
3.23862e-11
0.0615687
2.39552e-11
2.95362e-06
3.23872e-11
0.999932
1.00004
0.999988
0.998855
1.00003
0.999977
1.00001
1.00003
1.00012
1.00005
1.0001
1.00003
1.00002
1.00048
3.26103e-12
8.24779e-09
1.00473e-12
7.06444e-07
3.95491e-12
8.57435e-09
3.26103e-12
1.00005
0.999913
1
1.00079
0.999893
0.999982
1
0.914537
0.993318
1
1.00058
0.90143
0.999635
1
7.09402e-15
7.41796e-15
3.23942e-16
2.99143e-10
5.36481e-14
5.54649e-14
3.53846e-16
1
0.9999
0.979246
1.00122
1.00001
1
0.990753
0.0275237
0.103478
0.793129
0.930551
0.0111044
0.12995
0.782424
2.94999e-17
3.5068e-17
6.65043e-18
3.80756e-16
2.77558e-17
3.38676e-17
6.98048e-18
0.981887
1.00004
1
0.999991
1
0.999973
1
1.36338e-06
1.68474e-06
0.288449
0.200992
2.25527e-06
0.288643
9.88478e-07
2.81949e-20
1.07164e-16
8.25588e-19
1.49389e-40
6.16297e-36
1.65436e-27
0
1.00003
0.999911
1.00003
1.00031
1
0.999924
0.999806
0.831245
0.32133
1
1
0.815694
0.318834
1
1.07164e-16
1.84128e-10
8.59723e-15
0
-5.04871e-32
-3.63627e-25
-1.31771e-25
0.999787
0.999972
0.999967
1.0006
0.999873
0.999957
1.00008
1
1
1.00012
0.999992
1
1.00001
0.999834
7.93649e-13
4.81434e-07
1.0569e-12
-7.80697e-20
-2.46667e-24
-1.10978e-17
7.80899e-14
1.00006
1.00005
0.999907
0.999875
1.00013
1.00004
1.00011
0.999852
1.00001
0.999715
1.00073
0.999947
1.00011
0.998397
5.86013e-12
0.0918647
5.86064e-12
-4.49356e-15
-4.11711e-18
0.0557906
-1.90538e-23
1.00026
1.0001
1.00018
1.00002
1.00019
1.00013
0.999841
1.00037
0.999843
1.00031
1.00002
0.999331
0.999362
1.00162
8.51422e-11
0.151562
8.51418e-11
0.132542
-4.81139e-19
0.159539
-2.42895e-18
0.999862
0.999999
0.999999
1.00002
0.999757
0.999956
1.00007
1.00001
1.00023
1.00035
0.999013
0.9995
1.00071
1.00021
8.39514e-11
0.143259
8.39515e-11
0.157495
-1.78832e-18
0.147904
-3.94638e-19
0.999958
1.00006
1.00001
1.00025
1.00003
1.00004
1.00019
0.999551
0.999408
0.99995
1.00062
0.999637
0.999429
0.997575
5.62825e-12
2.49726e-06
5.62432e-12
0.0574342
-4.21732e-23
-1.09107e-14
-1.33876e-16
1.00017
0.999911
1.00002
0.999963
1.00016
0.999967
0.999803
1
1.00003
0.999543
1.00021
1
1.00002
0.999233
8.26882e-13
5.46631e-09
4.47635e-13
-6.07648e-17
-4.714e-18
-3.76349e-20
-6.11494e-25
0.999768
0.999863
1
1.00016
0.999752
0.999801
1
0.918233
0.990973
1
1.00001
0.900881
1
1
5.46429e-16
2.77724e-15
8.4676e-17
-2.65417e-26
8.25983e-28
-2.11758e-25
4.82681e-32
1.00001
1.00016
0.979914
0.999715
1
1.00019
1
0.0137089
0.107779
0.78993
0.941295
0.0148974
0.11714
0.792713
8.4192e-19
6.95372e-18
2.67596e-20
-7.32687e-32
9.85979e-35
-5.68394e-29
3.08153e-36
1.12309e-09
-9.86134e-18
-3.38215e-17
3.59804e-13
3.59853e-13
-1.60232e-24
8.59012e-10
0.0149103
0.794474
0.103686
0.94125
0.79444
0.114664
0.0153614
3.83837e-09
-1.26897e-21
-6.58913e-17
1.10113e-11
1.68523e-11
7.89558e-08
-1.89699e-20
1.44391e-06
0.225372
1.51763e-06
0.28498
0.288615
2.2531e-06
1.07181e-06
3.60326e-09
4.32541e-12
4.69042e-09
4.32539e-12
4.32545e-12
6.99949e-09
2.66168e-09
0.0242095
0.942896
0.791635
0.11593
0.786568
0.11334
0.0184257
1.34287e-08
4.65911e-11
4.65911e-11
2.67524e-07
4.65911e-11
1.7405e-07
1.46671e-08
0.0323156
-7.04791e-19
7.14634e-22
9.75232e-10
4.50081e-07
9.68969e-10
0.0270645
0.910046
1
1
1.00001
1
1
0.921238
0.0621609
-2.15867e-20
0.248352
8.04065e-08
8.04065e-08
0.246407
0.05079
0.824865
1
0.32207
1
0.319293
1
0.821332
0.0292912
4.88992e-09
1.43254e-06
4.3854e-09
9.36193e-07
4.3854e-09
0.0343851
0.916547
1
1
0.996177
1
0.997315
0.907918
0.0558653
3.03931e-07
3.03931e-07
0.256991
3.03931e-07
0.251497
0.0658076
0.816698
0.356204
0.0335679
1.02616e-05
0.355743
0.0389893
0.821688
1
1.00007
1
1
1
1
0.998686
0.91718
0.0501766
0.97086
0.148273
0.0576837
0.958518
0.925599
1
1.00003
1.00001
0.999389
1
1.00028
1
0.820849
5.11176e-06
0.363957
0.043935
0.354741
0.034261
0.812823
1
1.00118
1
1.00004
1.00002
1.00008
1
0.901674
0.136652
0.0603317
0.949573
0.0749906
0.968152
0.915315
1
1
0.362746
0.266715
1
0.363501
1
0.999995
1.00026
0.999339
1.00008
1.00049
0.999816
0.999447
1
0.838203
1
0.935075
0.830092
1
1
1.00001
1.00003
1.00022
0.999272
1.00001
1.00026
0.999983
1.00002
0.26643
1
0.369501
1
0.362096
1
0.999458
1.00118
0.999183
0.999793
0.998377
0.999707
0.999783
1
0.909642
0.824043
1
0.838735
0.999994
1
1
1
0.97676
0.970636
1
0.987118
0.999994
0.999987
0.999773
1.00058
1.00062
1.0002
1.0002
0.99922
1
0.972149
1.00001
0.984402
0.98856
1
1
0.999957
0.999169
1.00061
1.00198
0.999878
0.999617
1.0001
1.00001
0.951318
1.00001
0.980855
1
0.964032
1.00001
1.00006
0.999409
1.00042
0.999773
1.00033
0.999635
1.00007
1.00002
0.959969
0.981675
1
0.963147
1
1
1
1.00002
0.978865
0.971711
1.00007
0.97128
1
0.999857
1.00047
1.0003
1.00014
0.999866
0.99988
0.998082
1
0.97867
1
0.971498
0.973479
1
0.999997
0.999712
0.999963
0.999569
0.999164
1.00002
0.999945
1.00075
1
0.97758
1
0.95929
1
0.978051
1.0001
1.00001
0.998668
1.00005
0.999955
1.00102
0.999726
1.00006
1
0.96022
0.970287
1
0.973942
1
1
1
1
0.835598
0.931904
1
0.82807
1
1.00001
1.00025
0.999999
0.999854
1.00023
1.00002
0.99998
1
0.366666
1
0.269575
0.366845
1
1
0.999794
1.00009
0.99931
0.997726
0.999953
0.99997
0.999561
1
0.917037
0.999998
0.824613
1
0.8352
1
0.999958
1.00087
0.999759
1.00004
0.999295
1.00014
0.999984
1
0.268265
0.372356
1
0.365812
1
1
0.91937
0.968567
0.0565327
0.14872
0.953835
0.0617978
0.924605
0.999999
0.99935
1
1.00009
1.00025
1
1
0.826303
0.0329802
0.356871
2.00566e-06
0.0333182
0.35397
0.827541
1
0.999105
1.00019
1.00073
1
0.999667
1.00011
0.914552
0.134064
0.948985
0.0653042
0.966915
0.0673201
0.91645
1.00002
1.00044
1.00165
1.00001
1.00287
1.00001
1.00018
0.822141
4.78176e-06
0.0334058
0.355984
0.0388232
0.357694
0.826269
0.0586748
0.244655
-3.46945e-21
8.68968e-08
0.242618
8.68968e-08
0.0531891
0.824642
1
0.321981
1
1
0.319863
0.831159
0.0276942
-8.67362e-22
-4.71605e-17
9.64747e-10
9.64747e-10
4.93843e-07
0.0216087
0.908404
1.00001
1.00001
1.00002
1
1
0.911052
0.0632396
3.6202e-07
0.247945
3.6202e-07
0.242732
3.6202e-07
0.0602165
0.828819
1
1
0.323156
1
0.32017
0.819563
0.0233091
5.4684e-09
4.68979e-09
1.32102e-06
4.68979e-09
1.01049e-06
0.0342626
5.3256e-09
-1.14339e-16
-2.09444e-21
1.41263e-11
8.98166e-08
2.17162e-11
-1.40212e-20
4.80875e-07
0.30024
-1.37706e-15
0.193776
0.308427
-5.48926e-19
4.75367e-07
8.31794e-10
-6.23509e-21
-5.29209e-17
2.88394e-13
2.89259e-13
-1.59431e-21
7.71932e-10
0.0128279
0.954235
0.130798
0.785522
0.1015
0.791845
0.0242628
7.18749e-09
4.55326e-11
3.03746e-07
4.55326e-11
1.65029e-07
5.84256e-11
2.09314e-08
1.41484e-06
0.219443