/*--------------------------------*- C++ -*----------------------------------*\
| =========                 |                                                 |
| \\      /  F ield         | OpenFOAM: The Open Source CFD Toolbox           |
|  \\    /   O peration     | Version:  5.0                                   |
|   \\  /    A nd           | Web:      www.OpenFOAM.org                      |
|    \\/     M anipulation  |                                                 |
\*---------------------------------------------------------------------------*/
FoamFile
{
    version     2.0;
    format      ascii;
    class       volVectorField;
    location    "0.1";
    object      ddt0(rho,U);
}
// * * * * * * * * * * * * * * * * * * * * * * * * * * * * * * * * * * * * * //

dimensions      [1 -2 -2 0 0 0 0];

internalField   nonuniform List<vector> 
4398
(
(-1.16093 -1.09279 0.393272)
(6.16111 -1.18663 -0.172559)
(5.43006 -0.52677 -0.942049)
(0.797256 -4.21724 1.92663)
(-41.1 -8.2897 4.12783)
(199.334 22.4139 73.5164)
(-2.67137 8.03689 0.695386)
(-6.81584 2.80359 0.355755)
(-8.24556 0.854227 0.0350316)
(-9.45986 2.33982 -0.0405689)
(-10.231 1.64851 0.222206)
(-10.8064 1.6077 0.0868175)
(-7.76016 3.65049 -0.233396)
(-4.69299 1.36185 0.0995697)
(-3.15689 0.027782 0.0299634)
(-1.38057 0.631636 -0.225009)
(1.08586 0.10922 0.0810555)
(4.40665 1.62745 0.192408)
(7.27493 3.15904 0.146471)
(7.88932 1.50104 -0.197533)
(7.71367 1.45129 -0.0519718)
(10.9465 0.666065 0.164742)
(10.6675 -0.75755 0.0129177)
(9.6145 -0.636316 -0.112546)
(12.1622 -2.93869 0.145162)
(12.4433 -4.0573 0.161165)
(9.20104 -1.88891 -0.0508058)
(7.61403 0.0845917 -0.0155367)
(11.1593 0.67017 -0.397674)
(11.9222 1.02174 -0.118979)
(11.4501 3.57594 0.112465)
(15.5074 3.2483 0.198709)
(14.8635 0.26126 -0.0422804)
(9.4669 -0.996072 -0.066137)
(10.3632 -0.233125 -0.0905785)
(17.8188 0.111702 0.0191445)
(25.461 -1.31048 -0.282174)
(28.2696 -2.08226 0.00365957)
(26.8353 -1.39575 0.103471)
(27.2799 -0.31387 -0.158877)
(32.7957 0.636841 -0.0260528)
(36.0958 1.12539 0.179186)
(30.6774 1.45164 0.0512423)
(27.8577 1.67934 -0.396991)
(34.2275 0.347518 0.0397327)
(38.0843 -1.52444 0.169981)
(35.1601 -1.87696 -0.0305289)
(34.2629 -1.31088 -0.0705578)
(35.4582 -1.49771 0.0227065)
(32.8122 -0.381237 0.0779887)
(-1.31117 2.25691 0.677954)
(0.468942 2.45165 -1.068)
(-3.14433 -10.7003 -0.149745)
(-5.58125 -8.50713 -0.428392)
(-9.48588 -7.76825 4.31624)
(-655.756 7.38885 58.7736)
(3.59623 7.7925 0.129404)
(-7.12214 6.77665 -0.179094)
(-7.8303 6.70253 -0.0064276)
(-8.91715 3.7068 -0.0184666)
(-10.9757 3.96794 0.00614593)
(-9.25338 1.29064 0.00472553)
(-7.28147 1.74438 -0.00646131)
(-8.01663 1.6581 0.0102799)
(-4.05219 1.14077 -0.370896)
(-1.71509 0.0405569 -0.401995)
(1.89201 1.70485 0.0459487)
(7.61321 4.04033 0.311302)
(5.94603 4.32303 -0.279652)
(5.24449 0.639919 -0.103301)
(7.40737 1.06571 0.273765)
(9.32467 0.787816 0.180356)
(10.3316 -1.62538 -0.451188)
(8.9238 -0.581444 -0.0686254)
(9.69139 -1.07345 0.0870368)
(12.1294 -2.57175 -0.119283)
(11.9115 -2.73613 -0.164647)
(10.8492 0.932185 -0.00320175)
(11.6192 2.67106 0.0174033)
(13.0306 1.04205 0.224399)
(12.6832 2.60512 0.147365)
(11.7326 1.46793 0.096044)
(11.4817 -2.9269 -0.181538)
(10.9284 -2.83388 -0.181696)
(12.0794 0.698908 0.0189185)
(17.0735 1.68781 -0.0398211)
(23.6414 -0.634105 -0.0590418)
(27.6524 -2.33179 0.0535633)
(28.1609 -1.76672 -0.0301153)
(28.9676 -0.200092 -0.295526)
(33.2109 1.00597 0.114032)
(35.7382 -0.00845865 0.521525)
(31.884 -0.788286 -0.0720281)
(28.3168 1.12478 -0.223652)
(31.7268 1.32725 0.0868667)
(35.9555 -1.27772 0.0574597)
(35.8494 -1.86686 -0.0574467)
(35.4697 -0.18755 0.0390422)
(35.7482 0.253702 -0.0221736)
(33.2414 -0.234897 -0.000233852)
(-0.898786 -4.62278 0.0398911)
(-10.0706 -2.86486 -0.0810784)
(-8.28399 -5.99951 0.0716298)
(-11.7954 -1.40797 -1.23968)
(14.884 -10.7681 -5.15731)
(-372.496 -40.1215 23.8507)
(26.5369 16.4207 2.43996)
(-12.0411 12.7505 0.511258)
(-12.1143 8.36198 0.651125)
(-12.8729 5.81253 -0.00171125)
(-13.2542 3.78902 0.00393792)
(-13.5819 3.7462 -0.00253983)
(-7.30189 -0.426846 -0.00503789)
(-5.44787 -0.355584 -2.81148e-05)
(-5.17966 1.04428 0.00248794)
(-0.672672 -0.136072 0.308916)
(6.08601 1.77186 0.261114)
(7.67756 1.999 -0.240699)
(3.01999 -0.234697 0.162785)
(3.82299 0.621899 0.053832)
(7.89821 1.71364 -0.19898)
(7.58135 0.767498 -0.061349)
(8.96115 -0.23003 -0.0869838)
(10.3032 -0.0587915 0.0605093)
(9.67452 1.89087 -0.0580657)
(10.3678 0.822436 -0.028431)
(13.5864 -1.13501 0.192787)
(14.3717 1.44695 -0.0112762)
(11.2925 1.07286 0.513708)
(11.844 -0.367287 0.17416)
(11.9801 -0.136242 -0.10335)
(8.58928 -1.20644 -0.122064)
(9.49183 -2.85198 -0.224427)
(14.0029 -2.33124 0.0440573)
(16.0116 1.03164 -0.0175599)
(16.1488 2.51961 -0.0414315)
(20.437 0.154113 -0.0150771)
(26.8566 -1.7822 -0.00159499)
(29.5014 -0.913723 -0.0829966)
(30.7456 0.55968 0.0156538)
(33.0327 1.29854 0.0791882)
(33.8533 -1.23117 0.223113)
(32.0975 -3.02909 -0.11165)
(30.5 -0.826147 -0.121375)
(31.2209 1.4955 0.215845)
(34.0942 -0.41722 -0.0137502)
(36.5255 -0.747178 -0.0898457)
(36.9124 1.0485 0.146629)
(35.3995 0.992653 0.0344197)
(32.7894 -0.596454 -0.00164097)
(0.907576 -4.43704 -0.567964)
(-1.2968 -4.96084 -0.181803)
(-1.35537 4.72286 -0.0543017)
(7.83954 0.929628 1.96308)
(-13.6272 23.6084 -0.894761)
(-35.8435 21.9417 -4.33317)
(-73.9492 19.1835 1.76046)
(-23.4013 8.70866 1.32099)
(-16.4747 4.65029 0.198255)
(-14.6352 4.07502 -0.257736)
(-13.558 1.60323 -0.00315479)
(-14.5293 1.81437 0.00682737)
(-12.4041 1.13541 0.0432285)
(-6.17631 -0.503669 -0.0142592)
(-3.78129 1.25398 -0.0144184)
(-0.802407 1.67516 0.0141518)
(4.55878 1.63486 -0.0508872)
(5.10251 -1.0783 -0.119868)
(4.22792 -3.53668 -0.0177847)
(7.67978 0.768054 -0.0419006)
(7.58686 1.77155 0.275762)
(6.89562 0.425407 0.0278345)
(9.30025 1.51106 0.125512)
(11.5773 1.08106 0.346419)
(10.7903 2.93901 -0.297273)
(8.34638 3.49363 -0.170284)
(12.6966 1.67692 0.0591877)
(13.6047 0.264405 0.0187839)
(9.34927 -2.08264 0.165473)
(11.5206 -2.06194 -0.162448)
(11.632 -1.68232 -0.0888817)
(8.33657 -2.17846 0.137888)
(10.0777 -1.34682 -0.00866017)
(15.7857 -0.81692 0.200763)
(18.1408 0.181833 0.00103671)
(15.9725 1.78799 -0.168741)
(18.2646 1.08909 -0.0555989)
(26.3209 -0.559989 0.0259086)
(31.0893 0.267655 -0.062311)
(31.7313 1.2388 0.161044)
(30.9685 0.321064 0.0154768)
(30.3301 -2.76232 -0.0192101)
(32.3952 -4.19212 -0.041028)
(33.9726 -1.69813 0.133674)
(32.2335 0.476691 0.239151)
(33.1542 0.287744 -0.101942)
(37.6843 0.63774 -0.0639195)
(37.6424 2.20048 -0.00263466)
(33.6911 1.08381 -0.00742042)
(32.7496 -0.632312 0.00360713)
(-1.5507 3.79042 -0.558381)
(1.3432 -1.94013 0.23374)
(-0.866901 -0.555104 0.876562)
(-6.75684 -5.73843 0.162179)
(-9.59884 -34.073 7.24012)
(-3.96026 -49.8689 13.9866)
(-381.57 22.487 -32.7347)
(-22.032 2.35791 -0.400455)
(-17.9226 0.62259 0.000789282)
(-16.69 -0.158685 0.36986)
(-16.0799 -0.603907 0.126219)
(-14.1688 -2.27679 -0.370094)
(-10.2012 0.426181 -0.383993)
(-5.29604 0.332732 0.00693963)
(-2.45802 1.84134 0.058703)
(-0.197009 1.83853 0.0236402)
(2.64121 2.1621 -0.0168638)
(1.21285 -0.543039 0.00191258)
(5.3361 -2.46039 -0.266517)
(10.4535 -0.764996 0.130695)
(7.46632 0.126316 0.153435)
(7.25802 -0.272311 -0.237189)
(9.77835 0.817932 -0.378854)
(12.0901 1.71189 0.144585)
(12.6877 1.5351 -0.158036)
(8.78626 3.02655 0.0544559)
(9.54866 2.43423 0.289674)
(9.67026 -1.10587 0.0220935)
(8.38722 -2.29729 -0.301754)
(12.3443 -1.90317 -0.23143)
(11.8322 -1.4108 0.169389)
(9.00965 -1.68394 0.0247937)
(11.1931 -1.11865 -0.232884)
(15.9144 0.045271 0.00142179)
(19.2694 0.195312 -0.0326715)
(17.2809 1.00324 -0.00706486)
(17.5019 1.81407 -0.0782365)
(25.8331 1.27862 0.0541096)
(31.7502 0.524892 0.0861628)
(30.8098 0.698769 0.0890953)
(28.0293 -0.823286 -0.100596)
(28.2148 -2.79057 -0.271759)
(33.4321 -3.3056 0.0379273)
(36.3358 -1.75043 0.512074)
(33.7013 -0.41654 -0.0458241)
(34.2976 0.813858 -0.138072)
(38.9188 2.12337 0.0712604)
(37.4677 2.91023 0.0265375)
(31.8578 1.79252 -0.192542)
(32.2296 0.136753 -0.0192555)
(-6.26655 0.568841 1.36906)
(-6.76335 -0.0924426 0.445547)
(-6.04638 -5.15222 -0.188024)
(-30.6558 -2.55743 -1.10831)
(-5.01744 6.90358 -12.5466)
(-50.2389 -4.76487 28.6196)
(-97.6567 22.1013 -68.7243)
(-23.8637 -1.67941 -0.329494)
(-19.6246 -3.30186 -0.0173742)
(-16.1718 -4.0053 0.412085)
(-16.2086 -1.62213 -0.048001)
(-13.2372 -0.596296 -0.133241)
(-9.14643 1.47264 0.183821)
(-4.40599 1.60372 0.0174464)
(-1.90141 0.474099 -0.0659575)
(-0.401647 0.644903 -0.017704)
(1.57777 0.491597 0.00245953)
(-0.675484 0.50472 0.104369)
(3.95427 -0.6748 -0.0760786)
(10.9117 -2.60548 -0.110166)
(8.20068 -2.32524 0.0254816)
(7.76172 -0.966684 -0.372588)
(11.7798 -0.387859 -0.254681)
(12.4719 1.76952 0.138326)
(12.4345 1.14626 0.135658)
(9.46687 1.01598 0.0333597)
(7.52787 1.39297 -0.123572)
(7.69304 -0.97227 -0.16325)
(8.35449 -0.475893 -0.128194)
(12.628 -0.0773635 0.252195)
(11.9047 -0.669149 0.153038)
(8.70308 -1.44 -0.329059)
(12.2402 -1.14905 -0.158383)
(17.4273 1.01443 0.0842976)
(19.3392 0.993154 0.138725)
(17.9963 -0.291495 -0.126246)
(18.6074 1.46075 0.0283134)
(24.7094 2.2162 -0.0584101)
(30.3658 0.328911 -0.0779989)
(30.0447 -0.4318 0.0989831)
(26.6068 -1.20191 -0.0588478)
(27.2293 -1.51526 -0.158775)
(33.6975 -1.30391 0.124351)
(37.5835 -1.04931 0.130207)
(35.4394 -0.608154 -0.279001)
(36.3297 0.891494 0.00636114)
(40.3046 2.51724 -0.116886)
(37.2273 2.13699 0.136495)
(30.2246 1.99712 -0.618367)
(30.3398 1.17448 -0.00557522)
(-2.39355 -4.30811 0.391885)
(-5.87406 2.26704 -0.899202)
(-3.9666 -2.16759 -0.540137)
(0.932188 -2.95918 1.31796)
(13.2106 12.053 -1.85548)
(41.2447 2.62213 -10.2349)
(-68.2826 -12.886 -4.05235)
(-23.1494 -10.3948 -0.734014)
(-20.8383 -5.37584 0.274006)
(-14.5841 -5.39464 0.00885111)
(-11.8192 -3.34532 0.00556816)
(-10.2994 -1.59283 0.00193236)
(-7.45383 0.325312 -0.0093992)
(-6.54581 0.394712 -0.00396939)
(-3.6553 -3.10384 0.00634871)
(-0.17581 -0.366337 0.0062654)
(2.466 -1.35345 -0.00829478)
(-0.24644 -0.734326 -0.210299)
(1.44704 1.4686 0.0686429)
(8.3932 -2.29448 0.101941)
(9.51589 -2.9926 0.0866285)
(9.67829 -1.08325 0.014222)
(13.1998 -0.909307 0.167449)
(14.0042 0.538141 -0.00504008)
(11.7459 0.420819 -0.126981)
(9.09503 0.101829 -0.116542)
(7.06048 0.51406 -0.0855328)
(7.33718 -0.701915 0.167157)
(9.5056 1.00892 0.0516561)
(12.1017 1.34322 0.050064)
(10.1292 -1.11534 0.0235312)
(8.41151 -1.26345 -0.107487)
(14.2634 0.0958675 -0.0278348)
(18.5897 1.65969 0.0319316)
(17.6359 0.401606 -0.109096)
(17.8694 -1.71771 -0.319445)
(20.6356 0.439133 0.00756757)
(24.4158 2.40702 0.0292654)
(28.4422 0.595394 -0.000219431)
(28.8972 -1.54886 0.10986)
(26.6753 -1.42033 -0.0592023)
(28.0878 -0.128592 -0.105074)
(34.0145 0.931441 0.00824252)
(37.2056 0.0768765 0.0716592)
(36.1283 -0.528826 -0.0332666)
(38.2035 0.699864 0.00644216)
(40.4729 1.05662 0.0105055)
(36.8173 0.0789869 -0.0333212)
(30.6535 0.446467 -0.187545)
(28.2627 1.46036 0.0241775)
(1.9649 6.78401 -0.669073)
(-4.1507 4.8563 0.278105)
(-12.6108 3.38321 0.0712982)
(-5.64069 2.74957 0.163056)
(-13.3136 -19.4834 5.18964)
(-5.57002 -65.1009 18.2194)
(-198.473 -37.9836 1.97288)
(-18.3369 -13.2392 0.111513)
(-13.3506 -6.57554 0.379945)
(-13.6264 -2.43609 -0.00185586)
(-11.4546 -2.66025 0.00603996)
(-8.64756 -1.00389 -0.00296933)
(-6.66327 -1.7788 -0.00484706)
(-8.69623 -1.59348 0.0106923)
(-2.84494 -1.86233 -0.0110273)
(1.7822 -0.501686 0.00144267)
(1.1194 -3.35573 0.39387)
(2.85467 -3.14316 -0.21221)
(1.99659 0.14177 0.258409)
(5.3391 -0.0279813 0.0237875)
(9.71834 -1.65301 -0.137886)
(10.3634 -1.13813 0.107288)
(13.8079 0.357706 0.026617)
(14.1331 -0.426564 0.00664668)
(11.8886 -0.327319 -0.0244855)
(9.58404 0.526474 0.0705006)
(6.52095 -0.0925167 -0.0450445)
(8.31538 -0.227203 -0.0778686)
(10.9098 0.796335 -0.0921291)
(9.9701 0.732112 0.252907)
(8.65035 -1.81776 -0.144171)
(10.2193 -0.423717 -0.131637)
(15.8941 2.08401 0.0460249)
(17.8063 1.56535 0.0246209)
(15.1169 -0.633882 -0.0110538)
(18.0483 -2.17197 0.0854923)
(23.7636 -0.294629 0.0476972)
(24.9014 1.83556 -0.0633182)
(25.4214 0.925828 0.118513)
(27.5287 -1.32596 0.0336668)
(28.3847 -0.779862 -0.106436)
(30.169 1.62826 0.058327)
(33.9528 2.78146 -0.065316)
(35.7588 0.366291 -0.00664116)
(36.22 -0.469538 -0.00229733)
(38.3104 0.559096 0.0131704)
(39.5267 -0.420338 -0.013148)
(36.4663 -1.56314 -0.0520322)
(31.9509 -1.11026 0.0112891)
(27.9519 0.700048 0.131911)
(-4.73687 6.20756 0.714402)
(-10.0335 3.67641 -0.913165)
(-6.58102 9.31299 -0.844493)
(-22.6052 14.2863 -0.344213)
(-40.1599 0.485663 4.78472)
(-143.409 -2.97482 -11.0482)
(16.6993 -30.5429 0.925915)
(-1.27472 -7.47396 0.209425)
(-7.33176 -4.46301 0.340996)
(-9.69175 -2.59903 -0.0186014)
(-10.0247 -1.4883 -0.00550205)
(-9.19913 -1.48429 0.0124031)
(-8.18901 -3.97513 0.11498)
(-6.6505 -1.73371 -0.000936332)
(-2.28793 0.19044 -0.134309)
(-2.04747 -1.96776 0.10702)
(-0.832108 -2.68972 0.160144)
(4.12952 -2.34909 -0.309663)
(5.33707 -1.93255 0.205434)
(6.14833 0.936536 0.0742418)
(8.13157 -0.298654 -0.120056)
(12.1929 -0.0779982 0.113435)
(14.0871 1.07896 0.0180778)
(13.1489 -1.55493 -0.0623104)
(12.938 -0.908094 0.0217402)
(9.3866 0.106478 0.217412)
(6.11933 0.0756255 -0.164774)
(8.45021 0.276246 -0.0505303)
(10.703 -0.454665 0.527104)
(8.83136 -0.0944975 0.0877195)
(8.68964 -0.913567 -0.172831)
(13.2899 0.905528 -0.0980892)
(16.7457 3.61351 0.20665)
(15.1905 1.62235 0.064201)
(12.9655 -1.39543 -0.185524)
(18.2971 -1.91684 0.099262)
(25.6454 -1.09684 0.138646)
(25.9384 0.178826 -0.0583215)
(24.489 1.18919 0.000671698)
(26.7685 0.604279 -0.0490953)
(30.3707 0.308234 0.154177)
(32.5378 3.02495 0.0735405)
(32.4333 3.95161 -0.0349584)
(33.1438 0.820359 -0.189185)
(36.3716 -0.897647 0.0175056)
(38.2627 0.427936 0.136455)
(37.8195 -0.555855 -0.0723754)
(35.9568 -2.72684 0.0773417)
(33.4829 -1.73393 0.132787)
(28.7713 -0.619425 -0.0279104)
(-1.17114 -5.19829 -0.545773)
(-0.174796 -2.30237 0.409275)
(0.665621 7.81049 2.07385)
(1.40786 7.33713 1.41547)
(-61.4741 37.5442 -0.450207)
(-19.3693 20.3443 -7.51321)
(12.1254 0.882569 0.744948)
(-1.5083 -0.610318 0.283263)
(-7.26557 -1.47534 0.0392499)
(-9.90892 -1.34044 -0.0208849)
(-10.0623 -1.28879 0.268291)
(-11.7583 -1.50483 -0.179572)
(-6.96901 -2.57363 0.00795606)
(-3.4896 -1.16467 0.0608066)
(-3.14224 -1.00652 0.0055133)
(-1.81648 -1.85894 0.278246)
(0.644839 -0.475577 -0.148311)
(3.80144 -0.323585 -0.0903372)
(6.10734 -0.253315 0.142077)
(7.37681 1.22549 -0.0141197)
(8.45182 1.141 -0.0970256)
(12.0864 0.891592 -0.122169)
(11.9566 0.144474 -0.000567048)
(11.6527 -1.84257 0.0769641)
(13.966 -2.6845 0.238223)
(10.8129 -2.46433 0.0891494)
(6.73458 -0.241237 -0.191485)
(7.65186 0.00288293 0.0568503)
(10.4474 -0.908863 0.251396)
(9.39524 0.365138 -0.0431293)
(9.90289 1.56411 -0.0621019)
(15.8787 2.57424 0.0436919)
(16.7844 3.33877 0.194126)
(11.5446 1.07102 -0.268177)
(10.696 -1.24001 -0.0787755)
(18.4228 -1.01233 0.11556)
(26.3835 -1.62111 0.0071627)
(27.7576 -1.15999 0.0149671)
(25.9502 0.244322 0.0110084)
(26.4266 0.719056 -0.00424774)
(31.4122 0.654737 -0.0103137)
(34.7203 2.65778 0.0129048)
(31.1913 3.50285 -0.00114892)
(29.6984 1.25636 -0.139359)
(35.7322 -0.726245 0.10365)
(38.7344 -0.460611 0.185982)
(35.5814 -0.867782 -0.0564811)
(34.9963 -2.58678 -0.129422)
(34.5848 -2.22437 0.157971)
(30.8921 -1.00732 -0.0035039)
(-0.734068 -0.955728 0.70727)
(6.97963 -1.05488 0.0357744)
(4.59036 -0.823232 -2.11464)
(4.71854 -3.18811 2.71014)
(-46.8978 -8.30289 12.3606)
(303.461 32.5604 -126.216)
(-15.064 3.12485 0.0271465)
(-7.8146 1.85356 0.686826)
(-8.6658 0.497422 -0.00924155)
(-9.61793 2.21055 -0.0715727)
(-10.3453 1.5889 0.311339)
(-10.9802 1.61625 0.178488)
(-7.98542 3.65007 -0.372358)
(-4.9108 1.30115 0.254471)
(-3.37971 -0.0360989 0.0567824)
(-1.58113 0.580836 -0.528137)
(0.901978 0.108385 0.229813)
(4.23515 1.64631 0.291146)
(7.02412 3.16794 0.343775)
(7.58071 1.51785 -0.624236)
(7.52639 1.41076 -0.104648)
(10.7797 0.569949 0.394243)
(10.4152 -0.794518 0.0316227)
(9.29522 -0.653612 -0.32189)
(11.8504 -2.94728 0.192343)
(12.1898 -4.02924 0.340267)
(8.94734 -1.87339 -0.0695744)
(7.34681 0.0677562 -0.0136095)
(10.9139 0.627931 -0.624717)
(11.6967 0.989397 -0.214887)
(11.181 3.43732 0.230538)
(15.1002 3.13518 0.337918)
(14.4484 0.267942 -0.0355844)
(9.25508 -0.916046 -0.124705)
(10.3168 -0.115397 -0.124333)
(17.5815 0.194243 0.0134677)
(25.0855 -1.23216 -0.340048)
(27.9985 -2.02271 -0.0321526)
(26.5568 -1.40182 0.243933)
(26.9753 -0.364853 -0.173786)
(32.4818 0.64849 -0.059525)
(35.7713 1.10487 0.283075)
(30.2728 1.34016 0.0745725)
(27.5856 1.63642 -0.557954)
(34.0462 0.387465 0.142176)
(37.795 -1.48567 0.521103)
(34.8877 -1.89076 -0.0680417)
(34.013 -1.33578 -0.274215)
(35.1619 -1.61906 0.138126)
(32.3386 -0.373998 0.14074)
(-0.809139 2.26297 1.39587)
(0.958718 2.62787 -2.72292)
(-2.92751 -10.9809 -0.363469)
(-4.16154 -7.24162 1.28122)
(-18.8542 -9.22219 0.897271)
(141.587 -51.5519 813.005)
(3.7188 -5.53352 -2.65283)
(-5.80237 5.72688 -0.579516)
(-7.1822 6.50958 -0.101186)
(-8.72504 3.67345 -0.0282903)
(-10.9797 3.98129 0.00195688)
(-9.36808 1.30724 0.00144764)
(-7.46282 1.77023 -0.0133724)
(-8.24967 1.68932 0.00872285)
(-4.2749 1.15562 -0.520063)
(-1.928 0.0747827 -0.974613)
(1.65023 1.72717 -0.14536)
(7.34455 4.04823 0.474734)
(5.70296 4.28231 -0.459488)
(5.03781 0.622615 -0.34114)
(7.18094 1.01037 0.566947)
(9.13413 0.677296 0.542168)
(10.1431 -1.82027 -0.847312)
(8.66283 -0.725827 -0.176885)
(9.37084 -1.12268 0.174248)
(11.7875 -2.68866 -0.22388)
(11.6061 -2.85079 -0.345922)
(10.5598 0.828571 0.0154251)
(11.3751 2.60834 0.0292159)
(12.7199 0.888054 0.350348)
(12.3413 2.43381 0.301426)
(11.5646 1.36425 0.156389)
(11.3505 -2.8917 -0.366042)
(10.75 -2.7376 -0.342306)
(11.7868 0.720706 0.0935131)
(16.753 1.6877 -0.0351296)
(23.3777 -0.614818 -0.0803392)
(27.3519 -2.32157 0.144298)
(27.8598 -1.8091 -0.117122)
(28.6764 -0.24418 -0.626739)
(32.8981 0.939081 0.216355)
(35.3369 -0.0210476 0.740411)
(31.5913 -0.799587 -0.168912)
(28.135 1.12033 -0.527103)
(31.4724 1.30115 0.200869)
(35.6238 -1.27731 0.108841)
(35.5337 -1.87549 -0.153172)
(35.1812 -0.233821 0.119272)
(35.3996 0.129401 0.103025)
(32.9251 -0.330514 0.00894983)
(-0.243379 -4.68391 -0.214703)
(-9.65728 -2.79043 -0.738568)
(-7.85071 -6.02749 1.17134)
(-11.3037 -1.06559 -1.79779)
(19.9576 -8.244 -6.77142)
(-411.172 54.4376 -159.8)
(39.1172 34.654 -6.8608)
(-12.0663 14.0626 1.55333)
(-11.2945 9.06259 1.27712)
(-12.7697 6.1684 -0.00675189)
(-13.3046 4.00441 -0.00703277)
(-13.7387 3.87247 -0.00461111)
(-7.50785 -0.35109 -0.0101321)
(-5.67907 -0.310617 0.00114018)
(-5.39848 1.08061 -0.00491883)
(-0.863394 -0.124734 0.482701)
(5.86997 1.78217 0.622809)
(7.42751 1.99457 -0.558798)
(2.73845 -0.249055 0.179913)
(3.4964 0.595265 0.0808859)
(7.59394 1.73719 -0.492933)
(7.23946 0.732703 -0.219108)
(8.66572 -0.331929 -0.227871)
(10.1657 -0.186854 0.147147)
(9.39653 1.72922 -0.100347)
(10.0318 0.772211 -0.0489459)
(13.3492 -1.11654 0.507464)
(14.1694 1.50978 0.00939276)
(10.9852 1.15756 0.803749)
(11.4832 -0.318388 0.292493)
(11.7733 -0.00762436 -0.237525)
(8.43963 -1.0772 -0.24408)
(9.32589 -2.82724 -0.411458)
(13.7742 -2.34166 0.144789)
(15.8453 0.965626 0.0734047)
(15.9089 2.49096 -0.0440885)
(20.0751 0.136671 -0.00487182)
(26.5087 -1.78916 -0.0404715)
(29.1548 -0.928703 -0.102182)
(30.4103 0.54556 0.0376747)
(32.758 1.34177 0.167605)
(33.5978 -1.21935 0.40104)
(31.702 -3.01618 -0.0886063)
(30.2091 -0.871249 -0.228039)
(31.0458 1.47034 0.34115)
(33.8267 -0.491084 -0.0265582)
(36.1949 -0.726495 -0.190937)
(36.5182 1.01859 0.347287)
(35.042 0.973105 0.137975)
(32.5906 -0.627562 0.00777884)
(1.56685 -4.40598 -1.07344)
(-0.814974 -4.97018 -0.277568)
(-0.848258 5.05665 0.0647538)
(8.79167 1.03268 2.46965)
(-20.595 20.2713 -5.57638)
(-92.8657 -3.02019 -11.2962)
(-6.99209 9.92423 -17.1313)
(-26.8776 10.7963 2.56871)
(-16.9766 5.67108 0.157162)
(-15.045 4.66423 -0.478408)
(-13.8461 1.91771 -0.017944)
(-14.8168 1.96521 0.000316558)
(-12.6863 1.20515 0.0733216)
(-6.45806 -0.442973 -0.0252137)
(-4.04534 1.26188 -0.024421)
(-1.04761 1.65986 0.0102409)
(4.29675 1.63702 -0.0037565)
(4.80223 -1.0442 -0.218754)
(3.9571 -3.50395 0.00485)
(7.52032 0.825535 -0.187256)
(7.35031 1.86385 0.533806)
(6.54784 0.473611 0.0547317)
(8.99512 1.6097 0.241629)
(11.2415 1.18386 0.520128)
(10.5657 2.95384 -0.704527)
(8.22872 3.64743 -0.274368)
(12.5322 1.82445 0.153024)
(13.3981 0.414442 0.0235844)
(9.08837 -1.99043 0.31462)
(11.2655 -1.89615 -0.294898)
(11.3911 -1.4847 -0.148885)
(8.03882 -2.05138 0.269808)
(9.77188 -1.35162 0.0303669)
(15.4941 -0.835691 0.324794)
(17.8252 0.145798 0.00276042)
(15.7126 1.65498 -0.516398)
(18.0279 0.982138 -0.110356)
(26.023 -0.647097 0.0280105)
(30.7787 0.284632 -0.187593)
(31.5134 1.23371 0.17043)
(30.6882 0.310723 0.0728778)
(29.8902 -2.85918 0.0381743)
(32.0308 -4.2656 -0.156876)
(33.7428 -1.6164 0.37112)
(31.9429 0.36172 0.32788)
(32.8796 0.152606 -0.262001)
(37.4232 0.502348 -0.134446)
(37.3038 2.09771 0.0028926)
(33.3415 1.06088 0.00242474)
(32.496 -0.592047 0.00568483)
(-0.977115 3.92831 -1.01968)
(2.08451 -2.00142 0.396196)
(-0.291206 -0.393356 1.29549)
(-6.85065 -5.97743 0.303269)
(-10.377 -37.9089 9.1152)
(-13.0838 1.26711 21.5142)
(-243.475 12.9135 -53.4704)
(-24.507 3.07743 -0.970589)
(-18.9764 1.11099 -0.0049663)
(-17.4667 0.186488 0.72642)
(-16.6764 -0.428843 0.233264)
(-14.6308 -2.17892 -0.72944)
(-10.5197 0.518627 -0.551149)
(-5.60427 0.399534 -0.000249567)
(-2.77129 1.94017 0.0975496)
(-0.394845 1.93154 0.0482866)
(2.48707 2.22435 -0.0413688)
(1.00165 -0.457414 0.0041588)
(5.08347 -2.34657 -0.406124)
(10.2021 -0.643791 0.321372)
(7.15145 0.176733 0.285502)
(6.92497 -0.201133 -0.615053)
(9.55129 0.898866 -0.59569)
(11.8487 1.82681 0.300824)
(12.4745 1.68797 -0.350502)
(8.61724 3.12231 0.0762366)
(9.30789 2.50873 0.723266)
(9.39962 -1.10102 0.0611482)
(8.09956 -2.26369 -0.60197)
(12.1154 -1.79588 -0.464898)
(11.5778 -1.36431 0.348113)
(8.6075 -1.75978 0.0781675)
(10.8453 -1.15932 -0.377696)
(15.6465 0.0271115 -0.0110022)
(18.9597 0.187911 -0.00394169)
(16.9518 0.983059 -0.00175486)
(17.1965 1.79052 -0.176716)
(25.6395 1.23971 0.0180779)
(31.5056 0.495056 0.180633)
(30.4404 0.665977 0.0939618)
(27.6395 -0.919064 -0.146643)
(27.88 -2.83839 -0.367368)
(33.2606 -3.28122 -0.00380612)
(35.9936 -1.75244 0.905611)
(33.2551 -0.478116 -0.128176)
(34.0043 0.781708 -0.425699)
(38.6281 2.0088 0.273053)
(37.2136 2.82952 -0.107666)
(31.6782 1.67136 -0.346618)
(32.0089 0.130723 -0.0378704)
(-5.87705 0.536169 1.95308)
(-6.29882 -0.172075 0.717819)
(-5.79813 -5.41801 -0.179537)
(-31.1741 -2.67473 -1.89772)
(-0.246176 8.76293 -22.8866)
(44.3068 52.9285 229.142)
(26.3458 13.801 -28.1487)
(-26.3706 -2.34922 -0.693981)
(-20.5985 -3.54257 -0.005598)
(-16.9724 -4.17753 0.538944)
(-16.8055 -1.69895 -0.0909822)
(-13.6276 -0.599514 -0.215483)
(-9.46613 1.50433 0.0791364)
(-4.67896 1.62346 0.0237606)
(-2.13227 0.544525 -0.0538986)
(-0.691705 0.719255 -0.0273713)
(1.30764 0.507569 0.0105894)
(-0.910427 0.468571 0.134923)
(3.72914 -0.673403 -0.168658)
(10.6741 -2.57504 -0.313355)
(7.90273 -2.30491 0.0463194)
(7.45319 -0.922975 -0.562226)
(11.5309 -0.314734 -0.417861)
(12.2271 1.81788 0.582239)
(12.1887 1.24944 0.226705)
(9.25351 1.04389 0.0139073)
(7.25138 1.38806 -0.268481)
(7.43626 -0.979807 -0.436624)
(8.22158 -0.459889 -0.195427)
(12.389 -0.0962598 0.540236)
(11.4348 -0.757634 0.270088)
(8.29568 -1.48196 -0.509615)
(12.0059 -1.10395 -0.234824)
(17.1765 1.00065 0.161765)
(19.0203 0.954576 0.296407)
(17.715 -0.343445 -0.285366)
(18.3466 1.44409 0.0817052)
(24.403 2.1528 -0.064607)
(30.0624 0.212822 -0.144455)
(29.7438 -0.44332 0.261966)
(26.3076 -1.23519 -0.0571721)
(26.9398 -1.45523 -0.415296)
(33.3909 -1.29025 0.192602)
(37.247 -1.11632 0.209449)
(35.1112 -0.537789 -0.660184)
(35.9886 0.959714 0.00651017)
(39.9822 2.61106 -0.0122063)
(36.8802 2.1115 0.272698)
(29.9673 2.01548 -0.967929)
(30.2452 1.21106 -0.00276901)
(-1.90685 -4.55215 0.82541)
(-5.50435 2.27023 -1.51846)
(-3.47283 -2.39725 -0.669681)
(2.15065 -2.78928 1.62844)
(12.135 15.2365 13.6273)
(4.36745 -13.9573 -35.8014)
(-112.814 -12.4618 -36.8474)
(-25.1731 -11.9975 -1.93256)
(-21.2806 -6.20818 0.431072)
(-15.1557 -5.87345 -0.00345128)
(-12.2044 -3.58493 -0.00425756)
(-10.625 -1.71559 -0.000591196)
(-7.74249 0.233398 -0.0148408)
(-6.80524 0.35237 -0.00890025)
(-3.89999 -3.1648 0.00673749)
(-0.441678 -0.422258 0.00431913)
(2.174 -1.3634 -0.0056029)
(-0.476027 -0.778398 -0.388178)
(1.27765 1.44296 0.241799)
(8.165 -2.33073 0.291652)
(9.21732 -3.06042 0.265492)
(9.4115 -1.09882 0.0183782)
(12.9804 -0.961664 0.251786)
(13.8011 0.5369 -0.015361)
(11.5083 0.422704 -0.372555)
(8.79171 0.128153 -0.262747)
(6.77608 0.519756 -0.255849)
(7.09334 -0.669964 0.304239)
(9.20391 0.933804 0.0882985)
(11.7425 1.17103 0.11796)
(9.84603 -1.2474 0.0428504)
(8.17609 -1.24129 -0.333509)
(13.9507 0.141307 -0.0562323)
(18.2173 1.66188 0.137665)
(17.2783 0.37317 -0.279653)
(17.5671 -1.75825 -0.659214)
(20.3158 0.373158 0.00502953)
(24.0975 2.33874 0.0566211)
(28.2622 0.496514 -0.0171908)
(28.6309 -1.72046 0.17831)
(26.3753 -1.52931 -0.16063)
(27.8119 -0.223714 -0.300446)
(33.6844 0.908338 -0.0806073)
(36.9345 0.082123 0.174946)
(35.8512 -0.510695 -0.0966018)
(37.9393 0.720953 0.0163359)
(40.065 1.09276 0.00548593)
(36.4689 0.105217 -0.101746)
(30.5512 0.488674 -0.357466)
(27.9731 1.48586 0.0596015)
(2.66863 6.77042 -0.592471)
(-3.70614 4.8164 0.0359289)
(-12.1607 3.35853 0.747915)
(-5.91036 2.49811 0.94388)
(-14.3808 -22.2198 -15.7199)
(2.53249 -44.2039 66.3381)
(-82.6516 -3.20708 27.0319)
(-19.3216 -14.4761 0.488154)
(-12.9026 -7.35325 0.500779)
(-13.688 -2.84799 -0.0113978)
(-11.6071 -2.90262 0.00149228)
(-8.8538 -1.15147 -0.0122458)
(-6.88369 -1.86177 -0.00955111)
(-8.93109 -1.64616 0.0200653)
(-3.09304 -1.91901 -0.0354423)
(1.55544 -0.546881 -0.00451186)
(0.863954 -3.35477 0.583289)
(2.59953 -3.1649 -0.46408)
(1.78099 0.124276 0.394546)
(5.04776 -0.113529 0.0817207)
(9.44533 -1.72353 -0.266845)
(10.0738 -1.17546 0.282413)
(13.5765 0.392022 0.0294904)
(13.9559 -0.442378 -0.00067666)
(11.6771 -0.332515 -0.0615854)
(9.37556 0.556601 0.153612)
(6.25119 -0.0945155 0.0761855)
(7.95684 -0.268228 -0.105803)
(10.5217 0.759929 -0.289484)
(9.65988 0.722457 0.379011)
(8.42227 -1.81171 -0.29423)
(10.0334 -0.449059 -0.308812)
(15.635 2.07372 0.120647)
(17.4632 1.57018 0.0371892)
(14.7446 -0.647603 -0.00949947)
(17.7201 -2.22811 0.213814)
(23.468 -0.326041 0.120656)
(24.5538 1.85289 -0.139413)
(24.9889 0.890174 0.192706)
(27.2153 -1.46494 -0.0188563)
(28.1815 -0.789634 -0.332978)
(29.9872 1.59274 0.140959)
(33.7717 2.83392 -0.177786)
(35.4738 0.351137 -0.00324447)
(35.9118 -0.454002 -0.00562141)
(37.9919 0.552812 0.013584)
(39.2112 -0.469995 -0.0421184)
(36.1266 -1.3723 -0.139509)
(31.6932 -1.05738 0.0311805)
(27.7725 0.690061 0.232331)
(-4.2281 6.17392 0.664742)
(-9.61864 3.4932 -2.70873)
(-6.43615 9.77328 -1.51952)
(-20.031 13.1294 -0.186094)
(-27.8933 5.68453 24.3318)
(-144.419 48.1243 -16.8261)
(38.8096 -34.9046 5.96857)
(-0.0214874 -6.90659 0.423271)
(-6.75808 -4.46305 0.664305)
(-9.59773 -2.692 -0.0114028)
(-10.0817 -1.57953 -0.0163216)
(-9.32717 -1.59421 0.00472218)
(-8.36009 -4.051 0.168397)
(-6.87742 -1.74244 -0.00460511)
(-2.52393 0.180124 -0.245469)
(-2.24153 -1.96538 0.355668)
(-1.09519 -2.75149 0.431436)
(3.87659 -2.40507 -0.745573)
(5.0881 -2.01528 0.568804)
(5.85404 0.861403 0.118447)
(7.89342 -0.264261 -0.273695)
(12.0576 -0.00270417 0.220379)
(13.8941 1.18924 0.0666908)
(12.8967 -1.52324 -0.16047)
(12.758 -0.892618 -0.0118756)
(9.08749 0.00655826 0.414783)
(5.74577 -0.0385605 -0.373232)
(8.16279 0.193446 -0.131456)
(10.4413 -0.455601 0.876443)
(8.52525 -0.0461537 0.164012)
(8.38642 -0.817998 -0.314325)
(13.0339 0.943082 -0.219371)
(16.4705 3.57731 0.762711)
(14.8135 1.56872 0.118759)
(12.5313 -1.41131 -0.530542)
(17.9732 -1.91001 0.223251)
(25.4174 -1.06819 0.175377)
(25.6144 0.233429 -0.0191036)
(24.1134 1.33895 -0.014022)
(26.5346 0.873779 -0.0791244)
(30.1998 0.458113 0.248817)
(32.3397 3.17657 0.292311)
(32.1281 4.04891 -0.0633037)
(32.826 0.905153 -0.315644)
(36.1051 -0.868995 0.0145185)
(37.9173 0.474096 0.261095)
(37.6585 -0.484305 -0.139187)
(35.7362 -2.61756 0.24415)
(33.1299 -1.51407 0.560904)
(28.4288 -0.615025 -0.0646161)
(-0.650922 -5.25414 -1.6963)
(0.931211 -2.38437 1.53613)
(-0.132615 8.11368 4.26009)
(0.489702 6.43687 0.807654)
(-54.2212 36.9422 -41.897)
(-88.2699 3.69008 1.33222)
(9.29007 8.77135 -1.52353)
(-2.38615 0.211671 0.605855)
(-7.64826 -1.28461 0.016038)
(-10.0883 -1.31217 -0.0241791)
(-10.238 -1.29744 0.374754)
(-11.9472 -1.52147 -0.385867)
(-7.06362 -2.61795 -0.0100454)
(-3.64298 -1.22365 0.137063)
(-3.37696 -1.04302 0.014083)
(-2.10814 -1.90702 1.13876)
(0.315622 -0.516982 -0.290115)
(3.51975 -0.307704 -0.356439)
(5.86714 -0.229237 0.256797)
(7.23153 1.24042 0.0625248)
(8.36653 1.15422 -0.159086)
(11.8916 0.94753 -0.140529)
(11.6707 0.133281 0.00431701)
(11.3571 -1.83354 0.189199)
(13.5902 -2.74809 0.399624)
(10.4425 -2.55926 0.207171)
(6.48661 -0.267211 -0.300831)
(7.43576 0.00502163 0.117787)
(10.2234 -0.917949 0.674009)
(9.206 0.381901 -0.0736355)
(9.66197 1.62023 -0.161)
(15.5286 2.61815 0.0682361)
(16.4116 3.27354 0.594198)
(11.2265 1.00246 -0.386741)
(10.3991 -1.17348 -0.195045)
(18.1508 -0.771126 0.195063)
(26.1481 -1.48536 -0.00886825)
(27.5621 -1.03702 0.0145755)
(25.7871 0.421467 0.0467324)
(26.1136 0.91873 0.0191059)
(31.0622 0.775019 -0.00398781)
(34.4728 2.74272 0.031104)
(30.9268 3.52151 0.00917396)
(29.3272 1.26126 -0.235196)
(35.376 -0.671079 0.140505)
(38.47 -0.387822 0.277886)
(35.3452 -0.767921 -0.109225)
(34.8427 -2.60308 -0.418416)
(34.1967 -2.14837 0.419991)
(30.4332 -0.978557 0.0052933)
(-1.21508 -0.882235 0.313192)
(5.92372 -1.45064 0.208647)
(5.68704 -0.843087 -1.17169)
(1.50121 -4.17846 0.867105)
(-30.2169 -5.07938 -5.76284)
(104.241 42.2514 -119.495)
(-10.6591 4.53027 0.613343)
(-6.75116 2.72373 0.331709)
(-8.31009 0.846505 -0.0452225)
(-9.4366 2.3395 -0.0355205)