/*--------------------------------*- C++ -*----------------------------------*\
| =========                 |                                                 |
| \\      /  F ield         | OpenFOAM: The Open Source CFD Toolbox           |
|  \\    /   O peration     | Version:  5.0                                   |
|   \\  /    A nd           | Web:      www.OpenFOAM.org                      |
|    \\/     M anipulation  |                                                 |
\*---------------------------------------------------------------------------*/
FoamFile
{
    version     2.0;
    format      ascii;
    class       volVectorField;
    location    "0.1";
    object      ddtCorrDdt0(U);
}
// * * * * * * * * * * * * * * * * * * * * * * * * * * * * * * * * * * * * * //

dimensions      [0 1 -2 0 0 0 0];

internalField   nonuniform List<vector> 
4398
(
(-0.00116158 -0.00109278 0.000393282)
(0.00615962 -0.00118662 -0.00017256)
(0.00543311 -0.000526735 -0.00094204)
(0.000794457 -0.00421716 0.00192662)
(-0.0410943 -0.00828971 0.00412785)
(0.279835 0.027989 0.106978)
(-0.00321852 0.009683 0.000837815)
(-0.00821185 0.00337782 0.00042862)
(-0.00993441 0.00102919 4.22067e-05)
(-0.0113974 0.00281906 -4.88781e-05)
(-0.0123265 0.00198616 0.000267719)
(-0.0130198 0.00193699 0.000104599)
(-0.00934959 0.00439818 -0.000281201)
(-0.00565421 0.00164078 0.000119964)
(-0.00380348 3.34723e-05 3.61005e-05)
(-0.00166334 0.000761007 -0.000271095)
(0.00130826 0.00013159 9.76572e-05)
(0.00530922 0.00196079 0.000231817)
(0.00876497 0.00380607 0.000176471)
(0.0095052 0.00180849 -0.000237991)
(0.00929358 0.00174855 -6.26166e-05)
(0.0131886 0.000802487 0.000198484)
(0.0128525 -0.000912711 1.55635e-05)
(0.0115837 -0.000766646 -0.000135598)
(0.0146532 -0.0035406 0.000174894)
(0.0149919 -0.00488831 0.000194174)
(0.0110856 -0.0022758 -6.12118e-05)
(0.00917353 0.000101918 -1.8719e-05)
(0.0134449 0.000807433 -0.000479126)
(0.0143642 0.00123101 -0.000143348)
(0.0137952 0.00430836 0.0001355)
(0.0186836 0.00391362 0.000239408)
(0.0179078 0.000314772 -5.09402e-05)
(0.0114059 -0.00120009 -7.96831e-05)
(0.0124858 -0.000280873 -0.000109131)
(0.0214684 0.00013458 2.30656e-05)
(0.0306759 -0.00157889 -0.000339969)
(0.0340598 -0.00250875 4.40912e-06)
(0.0323317 -0.00168163 0.000124664)
(0.0328674 -0.000378157 -0.000191418)
(0.0395129 0.000767278 -3.13889e-05)
(0.0434889 0.00135589 0.000215886)
(0.0369607 0.00174896 6.17378e-05)
(0.0335635 0.0020233 -0.000478303)
(0.0412379 0.000418697 4.78708e-05)
(0.0458847 -0.00183667 0.000204797)
(0.0423615 -0.00226139 -3.67819e-05)
(0.0412806 -0.00157937 -8.50094e-05)
(0.0427207 -0.00180447 2.73572e-05)
(0.0395328 -0.000459322 9.39622e-05)
(-0.00131154 0.00225691 0.000677959)
(0.000469775 0.00245163 -0.001068)
(-0.003144 -0.0107004 -0.000149745)
(-0.00558059 -0.00850721 -0.000428396)
(-0.00950064 -0.00776719 0.00431623)
(-0.566872 0.00421871 0.0550593)
(0.00433281 0.00938855 0.000155908)
(-0.0085809 0.00816464 -0.000215776)
(-0.00943409 0.00807534 -7.7441e-06)
(-0.0107436 0.00446602 -2.22489e-05)
(-0.0132237 0.00478065 7.40474e-06)
(-0.0111487 0.00155499 5.69341e-06)
(-0.00877285 0.00210167 -7.78471e-06)
(-0.00965859 0.00199771 1.23854e-05)
(-0.00488216 0.00137442 -0.000446862)
(-0.00206638 4.88638e-05 -0.000484332)
(0.00227954 0.00205403 5.53598e-05)
(0.00917254 0.00486787 0.000375063)
(0.0071639 0.00520846 -0.00033693)
(0.00631867 0.000770987 -0.000124459)
(0.00892454 0.00128398 0.000329838)
(0.0112345 0.000949176 0.000217296)
(0.0124478 -0.00195829 -0.000543601)
(0.0107516 -0.000700535 -8.26812e-05)
(0.0116764 -0.00129331 0.000104864)
(0.0146138 -0.00309849 -0.000143714)
(0.0143513 -0.00329655 -0.00019837)
(0.0130714 0.00112311 -3.85754e-06)
(0.013999 0.00321814 2.09678e-05)
(0.0156995 0.00125549 0.000270361)
(0.0152809 0.00313869 0.000177548)
(0.0141357 0.00176859 0.000115716)
(0.0138334 -0.00352639 -0.00021872)
(0.0131667 -0.00341431 -0.000218911)
(0.0145535 0.000842058 2.27934e-05)
(0.0205705 0.00203351 -4.79772e-05)
(0.0284836 -0.000763982 -7.11347e-05)
(0.0333161 -0.00280938 6.45341e-05)
(0.0339288 -0.00212857 -3.62835e-05)
(0.0349007 -0.000241075 -0.000356056)
(0.0400131 0.00121201 0.000137387)
(0.0430581 -1.01911e-05 0.000628344)
(0.0384145 -0.000949743 -8.67808e-05)
(0.0341167 0.00135516 -0.000269461)
(0.0382251 0.00159909 0.000104659)
(0.0433199 -0.00153943 6.92286e-05)
(0.043192 -0.00224922 -6.92128e-05)
(0.0427345 -0.000225963 4.70388e-05)
(0.0430701 0.000305665 -2.67152e-05)
(0.0400498 -0.000283008 -2.81749e-07)
(-0.000899157 -0.0046228 3.9897e-05)
(-0.0100683 -0.00286487 -8.10773e-05)
(-0.00828619 -0.00599954 7.16301e-05)
(-0.0117928 -0.00140801 -0.00123968)
(0.0148851 -0.0107683 -0.00515732)
(-0.372497 -0.0401897 0.0238463)
(0.0319718 0.019784 0.00293972)
(-0.0145074 0.015362 0.000615973)
(-0.0145956 0.0100747 0.000784488)
(-0.0155095 0.00700305 -2.06174e-06)
(-0.0159689 0.00456508 4.74448e-06)
(-0.0163638 0.0045135 -3.06004e-06)
(-0.00879746 -0.000514273 -6.06975e-06)
(-0.0065637 -0.000428414 -3.38732e-08)
(-0.00624055 0.00125817 2.99752e-06)
(-0.000810448 -0.000163943 0.000372188)
(0.00733255 0.00213477 0.000314596)
(0.00925007 0.00240844 -0.000289999)
(0.00363855 -0.000282767 0.000196127)
(0.00460601 0.000749276 6.48578e-05)
(0.00951591 0.00206463 -0.000239735)
(0.00913415 0.000924696 -7.39145e-05)
(0.0107966 -0.000277145 -0.0001048)
(0.0124135 -7.08332e-05 7.29028e-05)
(0.011656 0.00227816 -6.99587e-05)
(0.0124913 0.000990887 -3.42542e-05)
(0.0163691 -0.00136748 0.000232273)
(0.0173153 0.00174331 -1.35858e-05)
(0.0136055 0.00129261 0.000618925)
(0.0142699 -0.000442515 0.000209832)
(0.0144339 -0.000164147 -0.000124518)
(0.0103485 -0.00145354 -0.000147066)
(0.0114359 -0.00343612 -0.000270394)
(0.0168709 -0.00280872 5.30811e-05)
(0.0192911 0.00124294 -2.11565e-05)
(0.0194564 0.00303567 -4.99175e-05)
(0.024623 0.000185678 -1.81652e-05)
(0.0323573 -0.00214722 -1.92167e-06)
(0.0355438 -0.00110087 -9.99959e-05)
(0.0370429 0.000674313 1.886e-05)
(0.0397984 0.00156451 9.54074e-05)
(0.0407871 -0.00148334 0.000268811)
(0.0386717 -0.00364951 -0.000134518)
(0.036747 -0.000995358 -0.000146235)
(0.0376155 0.0018018 0.000260055)
(0.0410774 -0.000502675 -1.65665e-05)
(0.0440067 -0.000900215 -0.000108248)
(0.0444727 0.00126325 0.000176662)
(0.0426499 0.00119597 4.14695e-05)
(0.0395053 -0.00071862 -1.97707e-06)
(0.000908149 -0.00443703 -0.000567972)
(-0.00129433 -0.00496081 -0.0001818)
(-0.0013559 0.00472285 -5.43019e-05)
(0.00783601 0.000929535 0.00196306)
(-0.013617 0.0236091 -0.00089475)
(-0.0358037 0.0219611 -0.00433319)
(-0.0890954 0.0231127 0.00212104)
(-0.0281944 0.0104924 0.00159156)
(-0.019849 0.00560276 0.000238861)
(-0.0176328 0.00490966 -0.000310525)
(-0.016335 0.0019316 -3.80095e-06)
(-0.0175052 0.00218599 8.22574e-06)
(-0.0149447 0.00136797 5.20825e-05)
(-0.00744134 -0.00060683 -1.71797e-05)
(-0.00455577 0.00151082 -1.73716e-05)
(-0.000966755 0.00201827 1.70503e-05)
(0.00549251 0.00196971 -6.13099e-05)
(0.0061476 -0.00129916 -0.00014442)
(0.00509388 -0.00426106 -2.14273e-05)
(0.00925275 0.000925366 -5.04826e-05)
(0.00914079 0.0021344 0.000332244)
(0.00830797 0.000512539 3.35355e-05)
(0.0112051 0.00182056 0.000151219)
(0.0139485 0.00130248 0.000417372)
(0.0130003 0.00354098 -0.000358161)
(0.0100559 0.00420919 -0.000205161)
(0.0152971 0.00202039 7.13105e-05)
(0.0163911 0.00031856 2.26312e-05)
(0.0112642 -0.0025092 0.000199365)
(0.0138803 -0.00248426 -0.00019572)
(0.0140145 -0.0020269 -0.000107086)
(0.0100441 -0.00262465 0.00016613)
(0.0121418 -0.00162268 -1.04339e-05)
(0.019019 -0.000984241 0.000241883)
(0.0218564 0.000219076 1.24905e-06)
(0.019244 0.00215421 -0.000203302)
(0.0220056 0.00131215 -6.69866e-05)
(0.031712 -0.000674685 3.12152e-05)
(0.037457 0.000322476 -7.50735e-05)
(0.0382305 0.00149253 0.000194029)
(0.0373114 0.000386824 1.86467e-05)
(0.0365422 -0.00332809 -2.31446e-05)
(0.0390304 -0.00505075 -4.94314e-05)
(0.0409308 -0.00204594 0.000161053)
(0.0388355 0.000574327 0.000288134)
(0.0399448 0.000346679 -0.000122822)
(0.0454028 0.000768361 -7.70115e-05)
(0.0453523 0.00265118 -3.17429e-06)
(0.0405917 0.00130579 -8.94027e-06)
(0.0394574 -0.000761822 4.34594e-06)
(-0.00154957 0.00379043 -0.000558396)
(0.0013408 -0.00194014 0.000233738)
(-0.000867183 -0.000555117 0.000876563)
(-0.00675723 -0.00573844 0.00016218)
(-0.00960354 -0.0340728 0.00724003)
(-0.00398458 -0.0498729 0.0139792)
(-0.504792 0.0300767 -0.0711185)
(-0.0265446 0.00284085 -0.000482476)
(-0.0215935 0.000750109 9.50942e-07)
(-0.0201084 -0.000191186 0.000445614)
(-0.0193734 -0.000727599 0.000152071)
(-0.0170708 -0.00274311 -0.000445896)
(-0.0122906 0.000513472 -0.000462642)
(-0.00638077 0.000400882 8.36101e-06)
(-0.00296147 0.00221849 7.07265e-05)
(-0.00023736 0.00221509 2.84821e-05)
(0.00318218 0.00260493 -2.03179e-05)
(0.00146126 -0.000654264 2.30431e-06)
(0.00642903 -0.00296433 -0.000321105)
(0.0125946 -0.000921681 0.000157464)
(0.00899556 0.000152188 0.000184861)
(0.0087446 -0.000328086 -0.00028577)
(0.0117811 0.00098546 -0.000456451)
(0.0145664 0.00206252 0.000174198)
(0.0152864 0.00184951 -0.000190404)
(0.0105859 0.00364645 6.56095e-05)
(0.0115044 0.00293281 0.000349005)
(0.0116509 -0.00133237 2.66187e-05)
(0.0101051 -0.00276782 -0.000363559)
(0.0148726 -0.00229298 -0.000278832)
(0.0142556 -0.00169975 0.000204084)
(0.010855 -0.00202884 2.98719e-05)
(0.0134857 -0.00134778 -0.000280584)
(0.019174 5.45434e-05 1.713e-06)
(0.0232162 0.000235315 -3.93632e-05)
(0.0208203 0.00120872 -8.51188e-06)
(0.0210866 0.00218563 -9.42609e-05)
(0.0311242 0.0015405 6.51923e-05)
(0.0382533 0.0006324 0.000103811)
(0.0371202 0.00084189 0.000107344)
(0.0337703 -0.000991911 -0.0001212)
(0.0339938 -0.00336214 -0.000327421)
(0.0402796 -0.00398266 4.56955e-05)
(0.043778 -0.00210895 0.000616956)
(0.0406039 -0.000501856 -5.52098e-05)
(0.0413224 0.000980551 -0.000166352)
(0.0468901 0.00255828 8.58559e-05)
(0.0451418 0.0035063 3.19728e-05)
(0.0383829 0.00215966 -0.000231978)
(0.0388309 0.000164763 -2.31994e-05)
(-0.00626715 0.000568837 0.00136907)
(-0.00676644 -9.24551e-05 0.000445547)
(-0.00604477 -0.00515222 -0.000188024)
(-0.0306529 -0.00255747 -0.00110832)
(-0.00501371 0.00690375 -0.0125469)
(-0.0502418 -0.00476786 0.0286166)
(-0.108401 0.0268839 -0.0871571)
(-0.0287514 -0.00202338 -0.000396981)
(-0.0236441 -0.00397815 -2.09328e-05)
(-0.0194841 -0.00482566 0.000496488)
(-0.0195285 -0.00195437 -5.78326e-05)
(-0.0159484 -0.000718429 -0.000160531)
(-0.0110198 0.00177426 0.000221471)
(-0.00530842 0.00193219 2.10198e-05)
(-0.00229085 0.000571203 -7.94668e-05)
(-0.000483912 0.000776992 -2.13301e-05)
(0.00190092 0.000592286 2.96329e-06)
(-0.000813836 0.000608097 0.000125746)
(0.00476417 -0.000813012 -9.1661e-05)
(0.0131467 -0.00313913 -0.000132731)
(0.00988033 -0.0028015 3.07008e-05)
(0.00935147 -0.00116468 -0.000448902)
(0.0141926 -0.0004673 -0.000306845)
(0.0150264 0.00213195 0.000166657)
(0.0149813 0.00138104 0.000163444)
(0.0114059 0.00122407 4.01924e-05)
(0.00906972 0.00167827 -0.000148882)
(0.00926873 -0.00117141 -0.000196687)
(0.0100657 -0.000573365 -0.00015445)
(0.0152145 -9.3209e-05 0.00030385)
(0.014343 -0.000806203 0.000184383)
(0.0104856 -0.00173493 -0.000396456)
(0.0147472 -0.0013844 -0.000190823)
(0.0209968 0.0012222 0.000101563)
(0.0233002 0.00119657 0.000167139)
(0.0216823 -0.000351199 -0.000152104)
(0.0224186 0.00175994 3.41126e-05)
(0.0297704 0.00267012 -7.03737e-05)
(0.0365853 0.000396278 -9.39746e-05)
(0.0361984 -0.000520241 0.000119257)
(0.0320564 -0.00144808 -7.0901e-05)
(0.0328064 -0.00182562 -0.000191295)
(0.0405995 -0.00157097 0.00014982)
(0.0452813 -0.00126422 0.000156876)
(0.042698 -0.000732716 -0.000336146)
(0.0437707 0.00107409 7.66402e-06)
(0.0485597 0.00303282 -0.000140826)
(0.0448521 0.00257469 0.000164452)
(0.0364151 0.00240617 -0.00074502)
(0.036554 0.00141504 -6.71713e-06)
(-0.00239448 -0.00430811 0.000391899)
(-0.00587129 0.00226705 -0.000899203)
(-0.00396541 -0.00216759 -0.000540135)
(0.000930275 -0.00295913 0.00131795)
(0.0132144 0.0120532 -0.0018555)
(0.0412877 0.00261855 -0.0102346)
(-0.0878931 -0.017012 -0.0145224)
(-0.0278908 -0.0125239 -0.000884354)
(-0.0251063 -0.00647692 0.000330128)
(-0.0175712 -0.00649957 1.0664e-05)
(-0.01424 -0.00403051 6.70863e-06)
(-0.0124089 -0.00191908 2.32815e-06)
(-0.00898051 0.000391942 -1.13243e-05)
(-0.00788652 0.000475557 -4.7824e-06)
(-0.00440397 -0.00373957 7.64905e-06)
(-0.00021182 -0.00044137 7.54867e-06)
(0.00297109 -0.00163067 -9.99371e-06)
(-0.000296916 -0.00088473 -0.000253372)
(0.00174342 0.0017694 8.27023e-05)
(0.0101123 -0.00276444 0.00012282)
(0.0114649 -0.00360554 0.000104372)
(0.0116606 -0.00130512 1.7135e-05)
(0.0159034 -0.00109555 0.000201746)
(0.0168725 0.000648363 -6.07238e-06)
(0.0141517 0.000507011 -0.000152989)
(0.0109579 0.000122686 -0.000140413)
(0.00850661 0.00061935 -0.000103052)
(0.00883998 -0.000845681 0.000201395)
(0.0114525 0.00121556 6.22363e-05)
(0.0145803 0.00161834 6.03181e-05)
(0.0122039 -0.00134378 2.83509e-05)
(0.0101344 -0.00152223 -0.000129502)
(0.0171849 0.000115503 -3.35359e-05)
(0.0223973 0.00199963 3.84718e-05)
(0.0212481 0.000483863 -0.000131441)
(0.0215294 -0.00206953 -0.000384874)
(0.0248622 0.000529076 9.11755e-06)
(0.0294166 0.00290002 3.52595e-05)
(0.0342677 0.000717343 -2.64375e-07)
(0.0348159 -0.00186609 0.000132361)
(0.0321389 -0.00171124 -7.13281e-05)
(0.0338407 -0.000154931 -0.000126595)
(0.0409813 0.00112222 9.93074e-06)
(0.044826 9.26223e-05 8.63364e-05)
(0.0435281 -0.00063714 -4.00803e-05)
(0.0460283 0.00084321 7.76164e-06)
(0.0487626 0.00127303 1.26573e-05)
(0.0443582 9.51649e-05 -4.01461e-05)
(0.0369319 0.000537912 -0.000225958)
(0.0340514 0.00175947 2.91296e-05)
(0.00196515 0.00678403 -0.00066908)
(-0.00414896 0.0048563 0.000278107)
(-0.0126139 0.00338322 7.13023e-05)
(-0.00564301 0.00274956 0.000163058)
(-0.0133168 -0.0194828 0.0051895)
(-0.00558878 -0.0650919 0.0182162)
(-0.239124 -0.0457633 0.00237697)
(-0.0220926 -0.0159508 0.000134353)
(-0.0160851 -0.00792234 0.000457765)
(-0.0164174 -0.00293505 -2.23598e-06)
(-0.0138007 -0.00320512 7.27705e-06)
(-0.0104187 -0.0012095 -3.5775e-06)
(-0.00802803 -0.00214314 -5.83983e-06)
(-0.0104774 -0.00191986 1.28823e-05)
(-0.00342764 -0.00224378 -1.32859e-05)
(0.00214722 -0.000604441 1.73815e-06)
(0.00134867 -0.00404305 0.000474542)
(0.00343936 -0.00378694 -0.000255674)
(0.00240553 0.000170808 0.000311336)
(0.00643264 -3.37124e-05 2.86596e-05)
(0.0117088 -0.00199158 -0.000166128)
(0.012486 -0.00137124 0.000129263)
(0.016636 0.000430972 3.20687e-05)
(0.0170278 -0.000513933 8.00805e-06)
(0.0143236 -0.00039436 -2.95006e-05)
(0.011547 0.000634306 8.49405e-05)
(0.00785656 -0.000111466 -5.42705e-05)
(0.0100185 -0.000273739 -9.38176e-05)
(0.0131443 0.00095944 -0.000110999)
(0.0120122 0.000882063 0.000304707)
(0.0104221 -0.00219007 -0.0001737)
(0.0123124 -0.000510502 -0.000158599)
(0.0191495 0.00251086 5.54517e-05)
(0.0214534 0.00188597 2.96637e-05)
(0.0182132 -0.000763713 -1.33179e-05)
(0.0217449 -0.00261683 0.000103003)
(0.0286309 -0.000354975 5.74665e-05)
(0.0300016 0.00221152 -7.6287e-05)
(0.0306282 0.00111546 0.000142787)
(0.0331671 -0.00159754 4.05624e-05)
(0.0341985 -0.000939593 -0.000128237)
(0.0363482 0.00196176 7.02735e-05)
(0.040907 0.00335116 -7.8694e-05)
(0.0430829 0.000441315 -8.00139e-06)
(0.0436386 -0.000565708 -2.76787e-06)
(0.0461572 0.000673609 1.5868e-05)
(0.0476225 -0.000506432 -1.5841e-05)
(0.0439353 -0.0018833 -6.26893e-05)
(0.0384951 -0.00133766 1.36014e-05)
(0.033677 0.000843431 0.000158929)
(-0.00473651 0.00620757 0.0007144)
(-0.0100324 0.00367641 -0.000913161)
(-0.00657988 0.00931306 -0.000844494)
(-0.0226024 0.0142864 -0.000344214)
(-0.0401665 0.000485464 0.00478456)
(-0.143263 -0.00283768 -0.0110323)
(0.0201197 -0.0367987 0.00111556)
(-0.00153581 -0.00900477 0.00025232)
(-0.00883344 -0.00537713 0.000410838)
(-0.0116768 -0.00313136 -2.24113e-05)
(-0.012078 -0.00179313 -6.62897e-06)
(-0.0110833 -0.0017883 1.49435e-05)
(-0.00986628 -0.00478932 0.00013853)
(-0.00801265 -0.00208881 -1.12811e-06)
(-0.00275654 0.000229445 -0.000161818)
(-0.00246684 -0.00237079 0.00012894)
(-0.00100254 -0.00324062 0.000192944)
(0.00497533 -0.00283023 -0.000373088)
(0.00643021 -0.00232837 0.000247511)
(0.00740762 0.00112836 8.94479e-05)
(0.00979707 -0.000359824 -0.000144646)
(0.0146903 -9.39738e-05 0.000136669)
(0.0169724 0.00129995 2.17804e-05)
(0.0158421 -0.0018734 -7.50728e-05)
(0.015588 -0.00109409 2.6193e-05)
(0.0113092 0.000128287 0.000261943)
(0.00737268 9.1115e-05 -0.000198523)
(0.010181 0.000332826 -6.08798e-05)
(0.0128952 -0.000547789 0.000635065)
(0.0106402 -0.000113852 0.000105686)
(0.0104694 -0.00110068 -0.00020823)
(0.0160119 0.001091 -0.00011818)
(0.0201756 0.00435362 0.000248976)
(0.0183018 0.00195464 7.73506e-05)
(0.015621 -0.00168124 -0.000223523)
(0.0220447 -0.00230945 0.000119593)
(0.0308981 -0.00132149 0.000167044)
(0.031251 0.000215453 -7.02669e-05)
(0.0295048 0.00143276 8.09275e-07)
(0.0322512 0.000728047 -5.91509e-05)
(0.0365912 0.000371366 0.000185756)
(0.0392021 0.00364452 8.86031e-05)
(0.0390763 0.00476098 -4.21186e-05)
(0.0399322 0.000988384 -0.000227934)
(0.0438212 -0.0010815 2.10911e-05)
(0.0460996 0.000515586 0.000164404)
(0.0455656 -0.000669705 -8.71993e-05)
(0.0433214 -0.00328535 9.31827e-05)
(0.0403408 -0.00208907 0.000159985)
(0.0346643 -0.000746295 -3.3627e-05)
(-0.00117042 -0.00519826 -0.000545779)
(-0.000174464 -0.00230238 0.000409275)
(0.000662606 0.00781046 0.00207385)
(0.00140473 0.00733707 0.00141547)
(-0.0614544 0.0375492 -0.000450269)
(-0.0220754 0.0386323 -0.00838757)
(0.0146089 0.00106334 0.000897528)
(-0.00181723 -0.000735322 0.000341281)
(-0.0087537 -0.00177752 4.7289e-05)
(-0.0119385 -0.00161499 -2.51626e-05)
(-0.0121232 -0.00155276 0.000323242)
(-0.0141667 -0.00181305 -0.000216351)
(-0.0083964 -0.00310076 9.58562e-06)
(-0.00420433 -0.00140322 7.3261e-05)
(-0.00378584 -0.00121267 6.64253e-06)
(-0.00218853 -0.00223969 0.000335236)
(0.000776915 -0.000572984 -0.000178688)
(0.00458005 -0.000389861 -0.00010884)
(0.00735824 -0.000305199 0.000171177)
(0.00888772 0.00147649 -1.70116e-05)
(0.0101829 0.0013747 -0.000116898)
(0.0145619 0.00107421 -0.000147191)
(0.0144055 0.000174066 -6.8319e-07)
(0.0140394 -0.00221997 9.27278e-05)
(0.0168265 -0.00323434 0.000287015)
(0.0130275 -0.00296907 0.000107409)
(0.00811396 -0.000290647 -0.000230705)
(0.00921911 3.47341e-06 6.84943e-05)
(0.0125872 -0.00109502 0.000302887)
(0.0113196 0.000439925 -5.1963e-05)
(0.0119312 0.00188447 -7.48216e-05)
(0.019131 0.0031015 5.26409e-05)
(0.0202222 0.00402261 0.000233887)
(0.0139091 0.00129038 -0.000323104)
(0.0128867 -0.00149399 -9.49102e-05)
(0.0221962 -0.00121968 0.000139228)
(0.0317874 -0.00195314 8.62976e-06)
(0.0334429 -0.00139757 1.80327e-05)
(0.0312653 0.000294364 1.32631e-05)
(0.0318393 0.000866332 -5.11776e-06)
(0.037846 0.00078884 -1.24262e-05)
(0.0418316 0.00320214 1.5548e-05)
(0.0375799 0.0042203 -1.38424e-06)
(0.0357812 0.00151369 -0.000167903)
(0.0430509 -0.000874994 0.000124879)
(0.0466679 -0.000554953 0.000224074)
(0.0428692 -0.00104552 -6.80496e-05)
(0.0421642 -0.0031166 -0.00015593)
(0.0416685 -0.00267996 0.000190327)
(0.0372194 -0.00121364 -4.22157e-06)
(-0.0007343 -0.000955721 0.000707267)
(0.00697695 -0.00105486 3.57749e-05)
(0.00459312 -0.000823192 -0.00211463)
(0.00472155 -0.00318803 0.00271013)
(-0.0468959 -0.00830168 0.0123606)
(0.468475 0.0492938 -0.0877784)
(-0.0181494 0.00376489 3.27066e-05)
(-0.00941518 0.00223321 0.000827502)
(-0.0104407 0.000599303 -1.11344e-05)
(-0.0115879 0.00266331 -8.62322e-05)
(-0.0124642 0.00191433 0.000375107)
(-0.0132292 0.00194729 0.000215046)
(-0.00962099 0.00439767 -0.000448624)
(-0.00591662 0.00156765 0.000306592)
(-0.00407194 -4.34926e-05 6.84125e-05)
(-0.00190498 0.000699802 -0.00063631)
(0.00108672 0.000130584 0.000276883)
(0.00510258 0.00198351 0.000350779)
(0.00846279 0.00381679 0.000414187)
(0.00913339 0.00182874 -0.000752092)
(0.00906794 0.00169971 -0.000126083)
(0.0129876 0.000686686 0.000474991)
(0.0125484 -0.00095725 3.80996e-05)
(0.0111991 -0.000787484 -0.000387819)
(0.0142776 -0.00355094 0.000231738)
(0.0146865 -0.0048545 0.00040996)
(0.0107799 -0.00225709 -8.38246e-05)
(0.00885158 8.1634e-05 -1.6397e-05)
(0.0131493 0.000756543 -0.000752671)
(0.0140924 0.00119205 -0.0002589)
(0.0134711 0.00414135 0.000277756)
(0.0181931 0.00377732 0.00040713)
(0.0174078 0.000322822 -4.28728e-05)
(0.0111507 -0.00110367 -0.000150248)
(0.0124299 -0.000139033 -0.000149799)
(0.0211826 0.000234027 1.62261e-05)
(0.0302235 -0.00148453 -0.000409697)
(0.0337332 -0.002437 -3.87381e-05)
(0.0319961 -0.00168894 0.000293896)
(0.0325003 -0.000439582 -0.000209381)
(0.0391346 0.000781313 -7.17169e-05)
(0.0430979 0.00133117 0.000341055)
(0.0364733 0.00161465 8.98464e-05)
(0.0332357 0.00197158 -0.000672234)
(0.0410196 0.000466826 0.000171297)
(0.0455362 -0.00178997 0.000627835)
(0.0420334 -0.00227802 -8.19779e-05)
(0.0409796 -0.00160937 -0.00033038)
(0.0423637 -0.00195068 0.000166417)
(0.0389622 -0.0004506 0.000169566)
(-0.000808735 0.00226298 0.00139587)
(0.000959918 0.00262787 -0.00272292)
(-0.00292628 -0.0109811 -0.00036347)
(-0.00416607 -0.00724142 0.00128123)
(-0.0188686 -0.00922126 0.000897456)
(0.0953997 -0.0472912 0.784589)
(0.00448048 -0.0066669 -0.00319618)
(-0.00699081 0.00689985 -0.000698212)
(-0.00865325 0.00784287 -0.000121911)
(-0.0105121 0.00442584 -3.40847e-05)
(-0.0132286 0.00479674 2.35768e-06)
(-0.0112868 0.00157498 1.74415e-06)
(-0.00899135 0.00213281 -1.61114e-05)
(-0.00993936 0.00203533 1.05095e-05)
(-0.00515048 0.00139231 -0.000626582)
(-0.00232289 9.00997e-05 -0.00117423)
(0.00198823 0.00208092 -0.000175132)
(0.00884886 0.00487739 0.000571969)
(0.00687104 0.00515941 -0.0005536)
(0.00606965 0.000750139 -0.000411012)
(0.00865173 0.00121731 0.000683069)
(0.011005 0.00081602 0.000653215)
(0.0122206 -0.0021931 -0.00102086)
(0.0104371 -0.000874491 -0.000213114)
(0.0112902 -0.00135263 0.000209938)
(0.0142018 -0.00323935 -0.000269735)
(0.0139833 -0.00343468 -0.000416773)
(0.0127227 0.000998278 1.85845e-05)
(0.0137049 0.00314257 3.51998e-05)
(0.0153252 0.00106994 0.000422107)
(0.014869 0.0029323 0.000363164)
(0.0139333 0.00164367 0.000188421)
(0.0136753 -0.00348397 -0.000441015)
(0.0129518 -0.00329831 -0.000412417)
(0.014201 0.00086832 0.000112666)
(0.0201843 0.00203337 -4.23248e-05)
(0.0281659 -0.000740745 -9.67943e-05)
(0.032954 -0.00279707 0.000173853)
(0.0335661 -0.00217963 -0.000141111)
(0.0345499 -0.000294193 -0.000755107)
(0.0396363 0.00113142 0.000260669)
(0.0425746 -2.53586e-05 0.000892061)
(0.0380618 -0.000963358 -0.000203509)
(0.0338975 0.00134979 -0.000635064)
(0.0379186 0.00156765 0.000242011)
(0.0429203 -0.00153893 0.000131134)
(0.0428117 -0.00225963 -0.000184544)
(0.042387 -0.000281712 0.000143701)
(0.0426501 0.000155905 0.000124127)
(0.0396688 -0.000398209 1.07829e-05)
(-0.000242749 -0.00468392 -0.000214703)
(-0.00965421 -0.00279044 -0.000738565)
(-0.00785616 -0.00602744 0.00117134)
(-0.0113032 -0.00106557 -0.00179778)
(0.0199617 -0.00824451 -0.0067714)
(-0.411178 0.0546408 -0.159836)
(0.0471291 0.0417518 -0.00826602)
(-0.0145377 0.0169429 0.00187148)
(-0.0136078 0.0109188 0.0015387)
(-0.0153852 0.0074318 -8.13481e-06)
(-0.0160297 0.00482459 -8.47322e-06)
(-0.0165526 0.00466562 -5.55555e-06)
(-0.00904561 -0.000423 -1.22074e-05)
(-0.00684225 -0.000374237 1.37371e-06)
(-0.0065042 0.00130194 -5.92631e-06)
(-0.00104023 -0.000150282 0.000581567)
(0.00707225 0.00214719 0.000750373)
(0.0089488 0.0024031 -0.00067325)
(0.00329933 -0.000300067 0.000216763)
(0.00421253 0.000717187 9.74529e-05)
(0.00914933 0.002093 -0.000593895)
(0.00872224 0.000882775 -0.000263986)
(0.0104406 -0.000399915 -0.000274544)
(0.0122478 -0.000225125 0.000177286)
(0.0113211 0.0020834 -0.0001209)
(0.0120865 0.000930375 -5.89709e-05)
(0.0160834 -0.00134523 0.000611402)
(0.0170715 0.00181902 1.13166e-05)
(0.0132352 0.00139465 0.000968372)
(0.0138351 -0.0003836 0.000352401)
(0.0141847 -9.18598e-06 -0.000286175)
(0.0101682 -0.00129783 -0.000294072)
(0.011236 -0.00340631 -0.000495732)
(0.0165954 -0.00282127 0.000174445)
(0.0190907 0.00116341 8.84394e-05)
(0.0191674 0.00300116 -5.31186e-05)
(0.0241869 0.000164664 -5.86967e-06)
(0.0319382 -0.00215561 -4.87609e-05)
(0.0351263 -0.00111892 -0.000123111)
(0.036639 0.000657301 4.53911e-05)
(0.0394675 0.00161659 0.000201934)
(0.0404793 -0.00146909 0.00048318)
(0.0381952 -0.00363395 -0.000106755)
(0.0363965 -0.0010497 -0.000274746)
(0.0374045 0.0017715 0.000411024)
(0.040755 -0.000591668 -3.19979e-05)
(0.0436084 -0.000875296 -0.000230044)
(0.0439978 0.00122722 0.000418418)
(0.0422193 0.00117242 0.000166234)
(0.0392658 -0.000756099 9.37209e-06)
(0.00156657 -0.00440595 -0.00107343)
(-0.000813849 -0.00497017 -0.000277568)
(-0.000848668 0.00505666 6.47536e-05)
(0.00879453 0.00103275 0.00246963)
(-0.0205813 0.0202722 -0.00557646)
(-0.0927765 -0.00299845 -0.0112959)
(-0.00842375 0.0119568 -0.02064)
(-0.0323826 0.0130076 0.00309483)
(-0.0204537 0.00683263 0.000189352)
(-0.0181265 0.00561956 -0.000576396)
(-0.016682 0.0023105 -2.16193e-05)
(-0.0178516 0.00236773 3.81395e-07)
(-0.0152847 0.00145199 8.83393e-05)
(-0.00778079 -0.000533702 -3.0378e-05)
(-0.0048739 0.00152034 -2.94228e-05)
(-0.00126218 0.00199984 1.23384e-05)
(0.0051768 0.00197231 -4.52591e-06)
(0.00578582 -0.00125808 -0.000263558)
(0.00476759 -0.00422162 5.84337e-06)
(0.00906063 0.00099462 -0.000225609)
(0.0088558 0.0022456 0.00064314)
(0.00788896 0.000570615 6.59418e-05)
(0.0108375 0.0019394 0.000291119)
(0.0135439 0.00142634 0.00062666)
(0.0127298 0.00355885 -0.000848828)
(0.00991412 0.00439449 -0.000330564)
(0.015099 0.00219813 0.000184366)
(0.0161423 0.000499328 2.84149e-05)
(0.0109498 -0.00239811 0.00037906)
(0.0135729 -0.00228452 -0.000355299)
(0.0137242 -0.0017888 -0.000179379)
(0.00968532 -0.00247154 0.000325069)
(0.0117733 -0.00162846 3.65866e-05)
(0.0186676 -0.00100686 0.000391318)
(0.0214762 0.00017566 3.32581e-06)
(0.0189308 0.00199395 -0.000622167)
(0.0217203 0.0011833 -0.000132959)
(0.031353 -0.000779635 3.37475e-05)
(0.0370828 0.000342931 -0.000226016)
(0.037968 0.0014864 0.000205338)
(0.0369737 0.000374365 8.78046e-05)
(0.0360123 -0.00344479 4.59931e-05)
(0.0385913 -0.00513928 -0.000189007)
(0.040654 -0.00194747 0.000447132)
(0.0384854 0.000435807 0.000395036)
(0.039614 0.000183862 -0.000315664)
(0.0450882 0.000605239 -0.000161983)
(0.0449444 0.00252736 3.48506e-06)
(0.0401705 0.00127817 2.92138e-06)
(0.0391518 -0.00071331 6.84919e-06)
(-0.000977456 0.00392831 -0.00101968)
(0.00208208 -0.00200145 0.000396197)
(-0.0002889 -0.000393347 0.00129549)
(-0.00685089 -0.00597744 0.000303269)
(-0.0103813 -0.0379089 0.00911514)
(-0.0131619 0.00128246 0.0214934)
(-0.512042 0.0561056 -0.0440484)
(-0.0295265 0.00370775 -0.00116938)
(-0.0228631 0.00133855 -5.98349e-06)
(-0.0210442 0.000224685 0.000875205)
(-0.0200921 -0.000516678 0.000281041)
(-0.0176274 -0.00262521 -0.000878843)
(-0.0126743 0.000624852 -0.000664036)
(-0.00675213 0.000481366 -3.00683e-07)
(-0.0033389 0.00233755 0.00011753)
(-0.000475717 0.00232716 5.81766e-05)
(0.00299646 0.00267994 -4.98419e-05)
(0.0012068 -0.000551101 5.0106e-06)
(0.00612466 -0.00282719 -0.000489306)
(0.0122917 -0.000775652 0.000387195)
(0.0086162 0.000212931 0.000343978)
(0.00834333 -0.000242329 -0.000741028)
(0.0115076 0.00108297 -0.000717698)
(0.0142756 0.00220097 0.000362438)
(0.0150295 0.0020337 -0.000422292)
(0.0103822 0.00376182 9.18513e-05)
(0.0112143 0.00302257 0.000871405)
(0.0113248 -0.00132653 7.36725e-05)
(0.00975851 -0.00272734 -0.000725266)
(0.0145968 -0.00216371 -0.000560118)
(0.0139492 -0.00164374 0.000419413)
(0.0103705 -0.00212021 9.41777e-05)
(0.0130666 -0.00139677 -0.000455055)
(0.0188513 3.26645e-05 -1.32557e-05)
(0.022843 0.000226398 -4.74902e-06)
(0.0204238 0.00118441 -2.11429e-06)
(0.0207187 0.00215725 -0.000212911)
(0.030891 0.00149362 2.17806e-05)
(0.0379586 0.000596454 0.00021763)
(0.0366751 0.000802381 0.000113207)
(0.0333006 -0.00110731 -0.000176678)
(0.0335903 -0.00341974 -0.000442612)
(0.040073 -0.00395328 -4.58568e-06)
(0.0433657 -0.00211138 0.0010911)
(0.0400664 -0.000576043 -0.000154429)
(0.040969 0.000941817 -0.000512891)
(0.0465398 0.00242024 0.00032898)
(0.0448357 0.00340906 -0.000129718)
(0.0381665 0.00201368 -0.000417612)
(0.0385649 0.000157498 -4.5627e-05)
(-0.00587544 0.00053618 0.00195308)
(-0.00630065 -0.000172083 0.000717821)
(-0.0057964 -0.00541799 -0.000179535)
(-0.0311744 -0.00267477 -0.00189773)
(-0.000243001 0.00876325 -0.0228874)
(0.0442897 0.0529651 0.229188)
(0.0583328 0.017525 -0.0337199)
(-0.0317718 -0.00283038 -0.000836121)
(-0.0248175 -0.00426816 -6.74458e-06)
(-0.0204486 -0.00503317 0.00064933)
(-0.0202475 -0.00204693 -0.000109617)
(-0.0164187 -0.000722306 -0.000259618)
(-0.011405 0.00181245 9.5345e-05)
(-0.0056373 0.00195598 2.86273e-05)
(-0.002569 0.000656054 -6.49381e-05)
(-0.000833379 0.000866572 -3.29774e-05)
(0.00157547 0.000611529 1.27583e-05)
(-0.0010969 0.000564543 0.000162558)
(0.00449294 -0.000811328 -0.000203202)
(0.0128603 -0.00310246 -0.000377536)
(0.00952136 -0.002777 5.58065e-05)
(0.00897974 -0.00111202 -0.000677381)
(0.0138926 -0.000379198 -0.000503447)
(0.0147314 0.00219022 0.000701492)
(0.0146851 0.00150535 0.000273138)
(0.0111488 0.0012577 1.67558e-05)
(0.0087366 0.00167237 -0.000323471)
(0.00895935 -0.00118049 -0.000526053)
(0.00990552 -0.000554083 -0.000235455)
(0.0149265 -0.000115976 0.000650887)
(0.0137769 -0.000912813 0.000325407)
(0.0099948 -0.0017855 -0.000613994)
(0.014465 -0.00133006 -0.000282921)
(0.0206945 0.0012056 0.000194897)
(0.022916 0.00115009 0.000357117)
(0.0213433 -0.000413789 -0.000343814)
(0.0221043 0.00173986 9.844e-05)
(0.0294012 0.00259373 -7.78398e-05)
(0.0362197 0.000256412 -0.000174042)
(0.0358359 -0.000534121 0.000315622)
(0.0316959 -0.00148818 -6.8882e-05)
(0.0324575 -0.00175329 -0.000500357)
(0.04023 -0.00155452 0.00023205)
(0.0448759 -0.00134496 0.000252348)
(0.0423027 -0.000647938 -0.000795402)
(0.0433598 0.00115628 7.84358e-06)
(0.0481714 0.00314586 -1.47064e-05)
(0.044434 0.00254397 0.000328552)
(0.0361052 0.00242828 -0.00116618)
(0.03644 0.0014591 -3.33616e-06)
(-0.00190692 -0.00455214 0.000825408)