/*--------------------------------*- C++ -*----------------------------------*\
| =========                 |                                                 |
| \\      /  F ield         | OpenFOAM: The Open Source CFD Toolbox           |
|  \\    /   O peration     | Version:  5.0                                   |
|   \\  /    A nd           | Web:      www.OpenFOAM.org                      |
|    \\/     M anipulation  |                                                 |
\*---------------------------------------------------------------------------*/
FoamFile
{
    version     2.0;
    format      ascii;
    class       surfaceVectorField;
    location    "0.1";
    object      ddtCorrDdt0(Uf);
}
// * * * * * * * * * * * * * * * * * * * * * * * * * * * * * * * * * * * * * //

dimensions      [0 1 -2 0 0 0 0];

internalField   nonuniform List<vector> 
12667
(
(-0.000801135 -0.00360437 -0.00194004)
(0.262146 0.00588954 -0.00386312)
(0.267632 -0.00348704 0.000864011)
(0.0110603 -0.00431052 -0.000239573)
(0.525697 0.00508191 -0.00020378)
(0.538899 -0.00356024 -0.000232592)
(0.00376578 -0.0081755 0.000325394)
(0.523346 -0.00305966 -0.000305536)
(0.539091 -0.00518461 -0.00188755)
(-0.00280221 -0.0438591 0.00279983)
(0.529148 -0.0110451 0.000527895)
(0.556946 -0.0110227 0.00403683)
(0.0207792 -0.0481247 0.000748449)
(-0.0095974 -0.0497246 0.00474472)
(0.0147882 -0.0677902 0.00475844)
(0.533889 -0.0227366 0.0021018)
(0.652277 -0.0644989 0.00811916)
(-0.0916784 -0.201466 0.112431)
(-0.0607453 -0.0219416 0.0189426)
(-0.208474 -0.145337 0.0895205)
(-0.0578605 -0.0634412 0.0360189)
(0.494368 -0.0323354 0.0888925)
(-0.216036 0.00336619 0.0330047)
(0.48927 0.794484 -0.168728)
(0.301473 0.0170445 0.0135717)
(-0.0124891 0.0186832 -0.00114418)
(-0.00147295 0.0151047 0.000892408)
(0.276205 0.00476397 0.00123365)
(0.438145 0.0289839 0.00161145)
(-0.025857 0.0436502 -0.000446639)
(0.0104089 0.0101816 -0.00298402)
(-0.00712576 0.0943343 -0.000210064)
(-0.00890932 0.000563591 -0.000601694)
(0.457636 0.00467079 -0.00195225)
(0.57228 0.00053916 0.00119034)
(-0.00724938 0.00525697 -0.00183414)
(-0.00514272 0.00361434 -0.0017727)
(-0.0101181 0.00305649 -0.00246983)
(-0.00519903 0.0014893 -0.00296121)
(-0.0111372 0.000573143 0.000329904)
(0.41964 0.00377379 0.000797876)
(0.531542 -0.000485537 8.46211e-05)
(-0.0117486 0.00117585 7.73549e-05)
(0.425571 0.00468717 0.000208188)
(0.539105 0.000995401 -0.000685901)
(-0.0129387 0.00113415 -1.27608e-05)
(0.425014 0.00458053 2.93094e-05)
(0.539253 0.000929061 0.00131971)
(-0.0131461 0.00207703 5.0118e-05)
(0.42654 0.00311548 -2.95311e-05)
(0.540626 0.00105873 0.000561813)
(-0.00553799 0.00216704 8.1528e-05)
(0.428925 0.00767244 0.000157311)
(0.543437 0.00269775 -0.00218554)
(-0.00574743 0.000525237 0.000157193)
(0.429579 0.00408837 -0.000140441)
(0.545419 0.00133808 0.00156519)
(-0.00188607 -0.000248099 0.00029891)
(0.430897 0.00107667 0.000125599)
(0.545409 -0.000418078 5.13523e-05)
(-0.00144378 -6.78529e-05 0.000274086)
(0.43193 0.0070891 2.56865e-07)
(0.54513 -0.000352098 -0.00203132)
(0.0040672 0.000497581 0.000261648)
(0.43364 0.000363351 0.000160088)
(0.546315 4.57695e-05 0.000154332)
(0.00648933 0.00141288 0.000176103)
(0.436507 0.0041954 0.00021959)
(0.548491 0.000773155 0.00105954)
(0.0110322 0.00122551 1.05363e-05)
(0.435915 0.0140429 -0.000206257)
(0.548104 0.00146445 0.000654015)
(0.00805694 0.000364701 -0.000151933)
(0.434443 0.00136881 -2.00383e-05)
(0.546123 0.00035273 -0.00136109)
(0.0105073 0.000136881 -0.000194043)
(0.435081 0.00128431 -0.000125168)
(0.546042 -0.000189556 -2.30555e-05)
(0.0158273 -7.91971e-05 -4.80183e-05)
(0.436689 -0.000587244 -8.01075e-05)
(0.547563 -6.62393e-05 0.00194534)
(0.0098604 -0.000385554 0.000196823)
(0.436161 -0.00873109 5.72789e-05)
(0.547004 -0.000198052 0.000441408)
(0.0133405 -0.000868557 0.000312005)
(0.435355 0.00275552 0.000340528)
(0.546172 -0.000454165 -0.00142356)
(0.0159847 -0.001549 0.00014678)
(0.43609 -0.00785039 0.000215755)
(0.546454 -0.000888014 0.000565874)
(0.0139779 -0.00121178 -0.000126909)
(0.435481 -0.0106885 3.35559e-05)
(0.545185 -0.00128191 0.000563686)
(0.00823296 -0.00017624 -0.000188924)
(0.432786 -0.0084269 -0.000123148)
(0.54191 -0.000233592 -0.000200015)
(0.0100671 0.000167826 -9.86289e-05)
(0.431139 0.000416289 -6.77079e-05)
(0.540185 0.000284134 0.000368755)
(0.0167945 0.000157321 -3.43493e-05)
(0.431654 0.0102234 -7.84574e-05)
(0.5402 -3.55904e-05 -0.00152189)
(0.0119701 0.000882007 -4.14638e-06)
(0.430759 0.00208245 1.77588e-05)
(0.538351 1.65388e-05 -0.0010387)
(0.015591 0.00136809 0.000215007)
(0.429837 0.0144029 -2.62601e-05)
(0.537518 0.000996193 0.000971568)
(0.0218047 0.000465174 0.000196387)
(0.431097 0.0117697 0.000204709)
(0.539051 0.00061936 0.00121086)
(0.0140852 -0.000485504 -7.66514e-05)
(0.430334 -0.00773508 -7.97434e-05)
(0.537731 -0.000354264 0.00117781)
(0.00871772 -4.33395e-07 -5.16648e-06)
(0.427504 -0.00876661 -1.39074e-05)
(0.53414 -0.000614768 -0.000180811)
(0.0161214 0.0011346 0.00012083)
(0.427637 0.000258784 8.90357e-05)
(0.534341 0.000918928 -0.000865461)
(0.0268003 0.000597575 -8.8939e-05)
(0.430596 0.0015112 9.96276e-05)
(0.537329 0.00182945 -9.42275e-05)
(0.0346183 -0.000577881 -0.000288447)
(0.434031 0.000307856 -0.000174869)
(0.53947 -8.29573e-05 -0.000911941)
(0.0334902 -0.000121569 -0.000204211)
(0.435401 -0.00677016 -0.000244344)
(0.539035 -0.0004525 0.000454293)
(0.0311536 0.000722087 -8.25875e-05)
(0.433964 -0.00949493 -2.41914e-05)
(0.537239 0.000977231 0.00109741)
(0.0345691 0.00084778 0.000117759)
(0.434054 -0.0072808 0.000131425)
(0.538107 0.00112166 -0.000703486)
(0.0444566 0.000704731 0.000143591)
(0.437896 0.00114911 0.000208696)
(0.541971 0.00085315 -0.00123226)
(0.0425087 0.000179843 -4.03028e-05)
(0.439689 0.000353517 8.63078e-05)
(0.543678 0.000467322 0.00112696)
(0.0314768 -0.000332235 -0.000176283)
(0.435614 0.00832358 -0.000154822)
(0.539208 -0.000640793 0.000975762)
(0.0356336 -0.000432393 -6.89387e-05)
(0.432816 0.0164727 -0.000142587)
(0.535828 -0.000882374 -0.00138458)
(0.0467804 -0.000714545 -2.21029e-05)
(0.435923 0.00344612 5.69189e-05)
(0.538594 -0.000595014 -0.000114362)
(0.0450172 -0.00113598 -3.30314e-05)
(0.438291 -0.00614823 -7.10014e-05)
(0.54075 -0.000841515 0.0013667)
(0.0397056 -0.00122621 0.000255332)
(0.436494 -0.00674662 0.00011677)
(0.538643 -0.00114373 -9.18353e-05)
(0.0428338 -0.00155383 0.000366592)
(0.435064 -8.89798e-05 0.000319897)
(0.537138 -0.00112796 -0.00094023)
(0.0425761 -0.00139629 0.000215382)
(0.434451 0.00762419 0.000106569)
(0.536175 -0.00202505 0.000119413)
(0.431893 0.00504622 5.55184e-05)
(0.532162 -0.000915456 0.000512224)
(-0.00218031 -0.0032793 -0.00212808)
(0.261057 -0.000845247 -0.00395792)
(0.266911 -0.00247774 0.00147039)
(0.00277598 -0.0103658 -0.000269709)
(0.516979 -0.000208934 -0.00013996)
(0.53117 -0.00420972 -0.00209383)
(-0.00860778 -0.0208185 -0.00010331)
(0.510388 -0.01843 -2.2083e-05)
(0.52491 -0.0167026 0.00106953)
(-0.0042182 -0.0293425 0.00189043)
(0.501408 -0.00836566 -0.000223733)
(0.523397 -0.02453 -0.000899985)
(0.00579272 -0.0446131 0.000377171)
(-0.00549101 -0.0328041 -0.00147367)
(0.0103869 -0.0373235 0.000397842)
(0.475004 -0.00420217 0.00171548)
(-0.00838548 -0.0157653 0.0254397)
(0.485342 -0.0107213 0.00173283)
(0.535211 -0.0340575 0.00966712)
(3.11389 -0.0311709 -0.0586057)
(1.74152 -0.0706779 -0.0946875)
(-1.43141 0.0206073 0.0231443)
(2.22372 0.0607396 -0.0746302)
(-6.80113 -0.0893927 0.283108)
(-0.00141597 0.0588725 -0.000704359)
(0.277347 0.00394438 0.000909859)
(0.000528492 -0.0091714 0.000270994)
(0.308453 0.0165049 0.000305987)
(0.441286 -0.0221009 7.8391e-05)
(0.0111542 0.0415012 -0.00125649)
(0.0319133 0.140872 -0.000351393)
(0.0338395 0.108773 -0.00816316)
(-0.00909347 0.00254711 -0.000553586)
(0.462772 0.0130735 -0.00202913)
(0.588258 0.00274091 7.33616e-05)
(-0.00665535 -0.00376697 -0.00232211)
(-0.00866967 0.00787571 -0.00195045)
(-0.00456237 -0.0174062 -0.00369825)
(-0.00220619 0.00617532 -0.00345968)
(-0.0096865 0.000247248 0.000676353)
(0.416706 0.0127897 0.00113695)
(0.533725 -0.000678529 -0.00027918)
(-0.0116954 7.80789e-05 0.000160201)
(0.425381 0.0044474 0.00015671)
(0.541379 -0.0018109 -0.000936672)
(-0.0147198 0.000161525 1.25583e-05)
(0.425129 0.00507087 0.000102194)
(0.540133 -0.000223922 0.000306464)
(-0.00757359 -0.000101512 7.76015e-05)
(0.426222 -4.20085e-05 0.000124519)
(0.542072 -0.000820154 0.000311027)
(-0.00995353 0.000243485 -6.45606e-05)
(0.429358 -0.0034494 0.000229403)
(0.543625 -0.000222813 -2.89061e-05)
(-0.00935161 0.000150805 -0.000172121)
(0.429471 -2.93899e-05 -0.000182873)
(0.542425 2.42923e-05 0.00195406)
(-0.000462308 -0.000289105 -0.000173014)
(0.430355 0.00168217 1.07612e-05)
(0.544161 -0.00021857 -0.00200912)
(-0.00367137 2.65007e-05 -0.000113793)
(0.43233 -0.00526452 3.60395e-05)
(0.545695 -0.000668158 -0.000752532)
(0.00825578 0.00099358 0.000118011)
(0.434857 0.00677028 0.000114056)
(0.546977 0.000422155 0.00104796)
(0.0100896 0.000954564 -0.000162633)
(0.43647 0.0115197 -0.000193106)
(0.549351 0.000674208 0.00084907)
(0.0042127 0.000177657 -0.000236891)
(0.434956 0.0235036 -0.000448848)
(0.547721 -0.000457162 -0.000746688)
(0.00842524 0.000613641 6.76058e-06)
(0.435001 -0.000303773 8.71968e-05)
(0.545759 -0.0005089 -0.000678523)
(0.00946649 0.00133647 -1.12469e-05)
(0.435981 -0.00137229 8.68087e-05)
(0.546584 0.00138979 0.00182286)
(0.0129371 0.00086104 2.51458e-05)
(0.43609 0.00181785 0.000143275)
(0.547608 0.00124104 0.00123359)
(0.0119308 0.000741691 0.000200894)
(0.436007 -0.0125038 0.000155378)
(0.546493 0.000811849 -0.00209338)
(0.00961236 0.000753932 0.000244317)
(0.43536 -0.013608 0.000140318)
(0.545553 0.00120615 -0.000864158)
(0.0137256 -0.000160804 0.000102589)
(0.43494 0.000108323 0.000142929)
(0.545992 0.000827461 0.000597735)
(0.0155146 -0.00107515 3.7367e-05)
(0.434331 -0.00125531 0.000229909)
(0.544985 -0.000456022 -0.000706322)
(0.0132007 -0.000340913 -1.94872e-06)
(0.4337 -0.00579332 6.7172e-05)
(0.542284 -0.00103583 -0.000622764)
(0.0129484 0.000398371 -4.7533e-05)
(0.432065 0.00224424 -0.000113759)
(0.540286 0.000492886 -0.000143057)
(0.0150048 -0.000327725 -2.63796e-05)
(0.430753 0.0156868 3.67572e-05)
(0.540147 -0.000469483 0.000107881)
(0.0164104 0.000241159 -4.34105e-06)
(0.43148 0.00665401 2.11779e-05)
(0.538936 -0.00127659 0.00147193)
(0.0142344 0.00105594 -3.66309e-05)
(0.430862 0.00133155 4.08636e-05)
(0.537415 0.000902857 0.00197668)
(0.0139885 -0.000315954 -7.13329e-05)
(0.429385 -0.00200595 -1.61014e-05)
(0.538004 0.00061791 0.000795991)
(0.0136284 -0.0012896 -1.702e-05)
(0.429117 -0.0131082 6.32811e-06)
(0.537562 -0.00104033 -0.00103099)
(0.0126834 -3.4213e-05 8.02627e-05)
(0.429069 -0.0103635 0.000193655)
(0.535653 -0.00067878 -0.00152979)
(0.0164602 0.00121156 6.78303e-05)
(0.429189 0.00559031 -0.00015569)
(0.535123 0.00104961 -1.92666e-05)
(0.0246936 0.000470219 1.37828e-05)
(0.429669 0.00843401 -0.000122279)
(0.53604 0.00119053 -0.000307655)
(0.0322246 -0.0008333 -0.000130745)
(0.432401 -0.0010957 6.40829e-05)
(0.538588 -0.000375886 -0.000246458)
(0.0344271 -0.000685247 -6.43921e-05)
(0.435582 -0.0043104 -5.70555e-05)
(0.540596 -0.000944411 0.00134671)
(0.033401 0.000514145 0.000189773)
(0.435457 -0.00552998 6.14934e-05)
(0.539012 0.000238446 -0.000194171)
(0.0363734 0.00118011 0.000222338)
(0.434882 -0.00172337 0.000284012)
(0.537801 0.00141482 -0.00271547)
(0.0436775 0.000419253 0.000151451)
(0.436941 0.00516071 0.000153512)
(0.540652 0.00120844 0.000554664)
(0.0424965 -0.000963788 -2.81377e-05)
(0.437961 0.00151472 0.000108368)
(0.541784 -0.000389368 0.00311033)
(0.0342959 -0.000975241 -0.000121131)
(0.435606 -0.00488962 -0.000147312)
(0.538517 -0.00165257 0.000248398)
(0.0338984 5.08025e-05 -1.67906e-05)
(0.434103 0.000439289 -0.000118226)
(0.53655 -0.000714851 -0.00115472)
(0.0425631 -4.96919e-05 8.05947e-06)
(0.435797 0.00570426 6.93395e-05)
(0.538812 0.000249481 0.000374749)
(0.0440858 -0.000705104 7.8743e-05)
(0.437472 -0.000880837 9.72487e-05)
(0.540263 -0.00043992 0.000303951)
(0.0423048 -0.00039612 0.000181274)
(0.436879 -0.00797235 0.000181092)
(0.538606 -0.000598522 -0.000665641)
(0.0431323 -0.000166438 5.9938e-05)
(0.435349 -0.000382317 0.000171212)
(0.536794 2.39331e-05 0.000630504)
(0.0430383 -0.000576662 -5.32792e-05)
(0.433942 0.00407453 -7.39179e-05)
(0.535659 -0.000545405 0.000924496)
(0.432616 0.0033476 1.72493e-05)
(0.534358 -0.000930157 3.02263e-05)
(-0.00152831 -0.00378721 -0.00197107)
(0.260956 -0.00852223 -0.00419219)
(0.265559 -0.00384622 0.000184934)
(-0.0188365 -0.00542032 0.000107626)
(0.514882 -0.00550065 0.000185692)
(0.521215 -0.00383265 -4.03669e-05)
(0.00284731 -0.00702302 -0.000142439)
(0.508595 0.00584609 8.47194e-05)
(0.51356 -0.00702655 -0.000312181)
(-0.033083 -0.0196031 -0.00375629)
(0.50197 0.0069822 0.000355103)
(0.498999 -0.00664303 -0.00252443)
(-0.0213561 0.0140267 0.00146386)
(-0.0273939 -0.0169199 -0.00616175)
(-0.0209113 0.00931152 0.00219128)
(0.472149 -0.0245076 -0.00242297)
(0.042291 -0.0426737 0.00268323)
(0.441834 0.0216086 -0.00152758)
(0.500193 -0.0238899 -0.0109347)
(0.297616 0.11606 0.0289794)
(0.11601 -0.154456 0.041673)
(-0.396371 -0.38531 0.00652494)
(0.068361 -0.183953 0.0337421)
(0.361476 -0.238378 0.0551186)
(0.0976857 0.147885 -0.00923877)
(0.276063 0.0544715 -0.00852135)
(-0.0272572 0.0290645 -0.00864241)
(0.343098 0.0887632 0.00567285)
(-0.0868624 0.10646 0.338054)
(0.0661131 0.415937 -0.00346105)
(-0.171168 0.287478 0.494856)
(0.115163 -0.0129679 -0.0114522)
(0.312884 -0.08537 -0.00689343)
(0.347866 -0.0965591 -0.0173954)
(0.100976 -0.0142824 -0.0168075)
(-0.00992567 -0.00578963 -0.000339633)
(0.441901 0.0176773 -0.000892434)
(0.58644 -0.0139302 0.0019955)
(-0.0164245 -0.000790384 -0.0022369)
(-0.00580702 0.00151319 -0.00130947)
(-0.00970317 -0.00310687 -0.00466545)
(0.00257162 0.00107599 -0.00468722)
(-0.019889 -0.00309783 0.000617629)
(0.419972 0.00715922 0.000676826)
(0.525656 -0.0059535 0.00452115)
(-0.0109204 -0.00256431 9.872e-05)
(0.426082 0.00973546 0.000171879)
(0.539725 -0.00543794 0.000149349)
(-0.020964 -0.00112471 0.000214147)
(0.426953 0.00408685 0.000161783)
(0.540516 -0.00348792 -0.000624385)
(-0.0117515 -0.00133899 0.000276286)
(0.425961 0.00931069 -2.82604e-05)
(0.540647 -0.00131797 -0.000341412)
(-0.0058446 -0.00216613 0.000111225)
(0.428335 0.00236085 0.000119165)
(0.544502 -0.00292681 -0.000998677)
(-0.00727804 -0.000979808 -5.2764e-08)
(0.430964 -0.000875812 -1.66798e-05)
(0.545443 -0.00224522 0.000105913)
(-0.00519218 -0.000235784 0.000219807)
(0.431285 0.000826136 0.000273721)
(0.544564 -0.000333725 -0.000198089)
(0.00355882 0.000201276 0.000263863)
(0.432879 0.00187629 0.000238802)
(0.545945 -0.000496252 0.00106232)
(0.0110503 0.000991645 -0.000196962)
(0.435849 0.000507957 -2.1154e-05)
(0.548012 0.000553343 0.00107736)
(0.00745826 0.000322189 -0.000479239)
(0.435636 -0.00527116 -0.000368447)
(0.547424 0.000862108 -0.000349019)
(-0.000145243 -0.000348279 -0.000124932)
(0.434125 -0.0178399 -9.07249e-05)
(0.546658 -0.000624945 0.00210991)
(0.00934441 0.00057995 0.000167245)
(0.436161 0.00248921 0.000148318)
(0.548456 -0.000382648 -0.000422959)
(0.00966467 0.00106166 0.000241312)
(0.436581 0.00875631 5.97903e-05)
(0.54822 0.00122609 -0.00165163)
(0.0086339 0.000445482 0.000273503)
(0.435322 0.000531667 0.000145123)
(0.546829 0.000755674 -0.00125852)
(0.0130011 0.000319407 9.48065e-05)
(0.43585 0.00554667 0.00021355)
(0.546946 0.000115898 -0.000897029)
(0.0117197 0.00068496 3.89289e-05)
(0.435816 0.00391195 -5.82542e-06)
(0.546169 0.000564567 0.00145797)
(0.0116016 0.00050025 0.000270222)
(0.434711 0.0141767 6.57553e-05)
(0.544363 0.000528182 -0.000231949)
(0.0134457 -0.000389407 0.000259766)
(0.433224 0.00778437 0.000270794)
(0.542838 -1.82404e-05 -0.000433686)
(0.0192541 3.61534e-06 -4.45807e-05)
(0.434193 -0.00021157 5.69517e-05)
(0.543084 -0.00088925 0.0012065)
(0.0153567 0.000877885 -2.95159e-05)
(0.433155 0.00869173 -0.000233026)
(0.540897 0.000806313 -6.08155e-05)
(0.0118907 0.000592927 8.43197e-05)
(0.430397 -0.00697197 0.000142302)
(0.538007 0.000732974 0.0016802)
(0.016685 0.000996316 6.63764e-05)
(0.431983 -0.015844 0.000210739)
(0.540087 0.000541264 0.00122895)
(0.0121598 0.00130155 6.1411e-05)
(0.431237 -0.00584805 0.000138012)
(0.5399 0.00200782 -0.00128929)
(0.0085013 -0.000114096 6.15526e-05)
(0.427604 -0.00868781 3.24711e-05)
(0.536632 0.0015157 -0.0012307)
(0.014351 -0.00132827 0.000216945)
(0.427592 -0.002243 0.000145884)
(0.536106 -0.00077165 -0.00168748)
(0.019458 -0.0004866 -4.21885e-05)
(0.430119 -0.000671394 0.000173988)
(0.536738 -0.00117698 0.000150177)
(0.0190543 0.000722524 -0.00034581)
(0.430699 0.00379598 -0.000369171)
(0.53667 0.000309909 0.00214318)
(0.0198257 0.000301388 -7.2037e-05)
(0.429146 0.0121 -0.000201948)
(0.535549 0.000592358 6.04069e-05)
(0.0294664 -0.00104542 0.00013781)
(0.430722 0.000977182 0.000181253)
(0.536798 -0.000497946 -0.00109966)
(0.0352272 -0.00143228 6.87934e-05)
(0.435099 -0.00206465 0.000184545)
(0.53979 -0.00163189 -3.05338e-05)
(0.035856 -0.000473662 0.000155664)
(0.436656 0.00140828 -7.42588e-06)
(0.540175 -0.0011747 -0.000192579)
(0.0382438 0.000584043 0.000215227)
(0.436205 0.00728793 0.000212247)
(0.539309 8.16442e-05 -0.000500015)
(0.0413542 3.2091e-05 0.000110443)
(0.436248 0.00495787 8.16764e-05)
(0.539706 0.000897735 0.00120053)
(0.0401427 -0.00131851 -1.07279e-05)
(0.436271 -0.00622108 0.000104773)
(0.540102 -0.000763593 0.00140588)
(0.0372646 -0.000926396 -0.000144416)
(0.436095 -0.014078 -4.6432e-05)
(0.538813 -0.00138597 -0.00113953)
(0.0362742 0.000605086 -3.21529e-05)
(0.436015 -0.00945194 -0.000130853)
(0.538216 1.23062e-05 -0.000529301)
(0.0388833 0.000516032 0.00015852)
(0.435683 0.00460324 0.000127705)
(0.538939 0.00126062 0.00112868)
(0.0432503 -0.000217005 0.000199572)
(0.436556 0.00336774 0.000193297)
(0.539687 -0.000289142 -0.000419871)
(0.0447679 0.000643009 0.000171034)
(0.437952 -0.000736768 0.000199405)
(0.53922 -1.11914e-05 -0.000833878)
(0.0442319 0.0014637 3.74307e-05)
(0.436371 0.00212993 9.24499e-05)
(0.537202 0.00141574 0.00103829)
(0.0411127 0.000769951 -3.41714e-06)
(0.433073 -0.000210308 7.03624e-05)
(0.534993 0.00154689 0.000617026)
(0.431658 -0.00456191 0.000167601)
(0.534006 0.000153837 -0.000126851)
(0.00193108 -0.000985225 -0.00203689)
(0.26154 -0.000636886 -0.00425416)
(0.266922 -0.00135528 -0.00127136)
(-0.00466522 0.00339202 0.000162819)
(0.520271 -0.00462973 0.000295062)
(0.527224 -0.000340885 -0.000274552)
(0.00259594 0.00984356 0.000582171)
(0.516969 0.00376108 0.000198222)
(0.521399 0.00751396 -5.9077e-05)
(0.00942868 0.0320514 0.000281722)
(0.518802 -0.00469304 0.000756456)
(0.524413 0.0128476 0.00426078)
(0.0131757 0.0247247 -4.17666e-05)
(0.00681716 0.0308326 -0.00287661)
(0.0135495 0.0272756 -0.000506144)
(0.43473 0.0371267 0.00113181)
(-0.026914 0.0545381 0.000387156)
(0.464619 0.0116821 -0.000367467)
(0.484518 0.0409667 -0.00124408)
(0.312551 0.0207448 0.0124525)
(-0.0284459 0.136235 -0.00127272)
(-0.0375228 0.23555 0.052843)
(0.4538 -0.00396475 0.00507012)
(0.471605 0.187133 -0.0169103)
(0.0504229 -0.017491 0.349946)
(0.161263 0.0563527 -0.00354322)
(0.18731 0.0247533 -0.00234857)
(0.301661 -0.100339 0.0145763)
(-0.0671255 -0.0261204 -0.000544936)
(-0.0236753 -0.0240059 0.000123511)
(0.44126 0.00246801 0.000515989)
(0.537601 -0.0453409 0.00349489)
(-0.0287321 0.0263183 -0.00115979)
(-0.018595 -0.0146245 0.00173805)
(-0.0315478 0.067023 -0.000932553)
(-0.0200249 -0.0193681 0.00101362)
(-0.0173749 -0.0103703 0.000231241)
(0.437436 0.00356066 0.000158088)
(0.544062 -0.0179537 0.000738752)
(-0.0178278 -0.00592861 0.000234945)
(0.431667 -3.24948e-06 0.000269239)
(0.544542 -0.0100033 -0.0025664)
(-0.0148589 -0.00330614 -8.05624e-05)
(0.430253 -0.000341458 -6.24944e-05)
(0.545339 -0.00615912 -0.000380955)
(-0.0201466 -0.00159369 -0.000185429)
(0.428118 -0.00487745 -0.000183656)
(0.542797 -0.00295569 0.00223132)
(-0.00976029 -0.00147658 -8.695e-06)
(0.428491 0.000416976 -7.14536e-05)
(0.542491 -0.00181468 0.000919616)
(-0.00512884 -0.000944291 0.000257)
(0.431635 -0.000380535 4.81336e-05)
(0.545683 -0.00209669 -0.000485131)
(-0.00398371 0.000193933 0.000292727)
(0.432707 0.00225404 0.000311401)
(0.54635 -0.000596719 -0.00180564)
(0.00202539 0.000836129 -4.61315e-05)
(0.433687 0.00225203 3.87195e-05)
(0.546808 0.000135492 6.28584e-05)
(0.0089302 0.000623986 -0.000192527)
(0.435583 0.00523463 -0.000109292)
(0.548685 0.000897408 -0.000197169)
(0.00340681 -0.000471064 1.99774e-05)
(0.434259 -0.00191675 -9.61159e-06)
(0.547886 0.000351412 -0.000374877)
(0.00680316 -0.000249045 0.000182449)
(0.434401 -0.00744625 0.000110943)
(0.546173 -0.000371378 -0.000428032)
(0.0116292 0.000621508 4.08918e-05)
(0.437242 0.00188664 4.29217e-05)
(0.548073 0.000570262 -0.000996317)
(0.00664494 0.000303182 -3.64261e-05)
(0.436186 0.00118329 -0.000328088)
(0.548006 0.000495257 0.00179014)
(0.0100059 0.000121069 8.51487e-05)
(0.435102 0.00066746 2.20817e-05)
(0.546226 -0.000154504 0.000394198)
(0.0124136 9.67617e-05 0.000112988)
(0.435824 0.00274168 7.97e-05)
(0.546257 0.000132195 0.000558539)
(0.0155126 0.0003115 2.09782e-05)
(0.436094 -0.000397814 8.02479e-06)
(0.546069 -0.00030636 0.00254941)
(0.0104405 0.000954547 6.62629e-05)
(0.435524 0.00156808 -2.66668e-05)
(0.545269 0.00026423 -0.00148846)
(0.00965303 0.00082185 6.80482e-05)
(0.433066 0.00963187 4.8591e-05)
(0.543222 0.000661994 -0.00119576)
(0.0209363 0.000580963 -0.000131402)
(0.433895 0.00948359 -7.48074e-05)
(0.543317 0.000270096 0.000447546)
(0.011861 0.000621208 -6.13259e-05)
(0.433202 -0.00349441 -9.55657e-05)
(0.542312 0.000789364 0.00072906)
(0.0107006 0.000699259 0.0002687)
(0.430488 -0.0152503 0.000213784)
(0.539816 0.00117299 0.000897345)
(0.0170232 0.00080955 0.000282397)
(0.432109 -0.00252966 0.000281713)
(0.540525 0.00148316 -0.00251329)
(0.0110046 0.000328487 0.000109105)
(0.43062 -0.00316037 -1.43833e-05)
(0.538618 0.00135249 -0.000617225)
(0.00909776 -0.000552488 0.000116767)
(0.426493 -0.00382201 0.000107257)
(0.534506 0.000381755 0.0015199)
(0.0151826 -0.000917068 0.000102919)
(0.427134 0.00450795 0.000235444)
(0.534178 -0.000811434 -0.00011606)
(0.0228495 -0.000424153 -0.000152825)
(0.430736 1.08256e-06 -5.29873e-06)
(0.536999 -0.000795134 0.00112541)
(0.0208694 0.000392483 -0.000225361)
(0.431723 -0.00363933 -0.000250244)
(0.537336 3.90912e-05 0.00104358)
(0.0176051 0.000359957 5.12227e-05)
(0.429111 0.00181259 -7.92282e-05)
(0.535041 0.00048 -0.00137971)
(0.0263788 -0.000869723 0.000227988)
(0.429188 0.00246949 -1.64425e-05)
(0.535815 -0.000357147 -0.0012177)
(0.0370308 -0.00145267 0.000108385)
(0.434374 0.00205866 0.000229323)
(0.539749 -0.00193106 -0.000111204)
(0.0379265 -0.000703917 4.90893e-05)
(0.437598 0.0119506 6.57706e-05)
(0.541155 -0.001505 0.000201344)
(0.0384804 -3.93738e-05 7.87371e-05)
(0.437039 0.0109032 -6.80796e-06)
(0.540395 -0.000549426 0.00082334)
(0.0360879 -0.000670793 7.59988e-05)
(0.435457 -0.00147167 3.95675e-05)
(0.539591 2.81139e-05 0.000759234)
(0.0370891 -0.00168917 6.91152e-05)
(0.434996 -0.0101566 0.000119793)
(0.538926 -0.00120183 -0.000748026)
(0.040992 -0.000785757 -3.28434e-05)
(0.437218 -0.0101001 -8.02818e-06)
(0.539484 -0.00142502 -0.000996084)
(0.0408106 0.000726069 2.89253e-05)
(0.437896 -0.0103273 0.000120801)
(0.539854 0.000855708 0.000935768)
(0.0368842 0.000516776 0.000162461)
(0.435419 -0.00280581 0.000115856)
(0.538431 0.00120138 0.00124117)
(0.042979 -0.000152753 0.000193127)
(0.435722 0.00136931 0.000166678)
(0.538671 -0.000187351 -0.00121923)
(0.0478072 0.000536935 0.000120854)
(0.438817 0.00770141 0.000121055)
(0.540732 -0.000508906 -0.000660355)
(0.0429221 0.00136008 0.000125388)
(0.437401 0.00977261 5.91399e-06)
(0.538737 0.00099905 0.00120511)
(0.0383042 0.000938321 0.000241351)
(0.432545 0.00142588 0.000207479)
(0.534078 0.00141009 7.34618e-05)
(0.430486 -0.00801359 0.000310191)
(0.532233 0.000704336 -0.000597522)
(-0.00341322 0.00285175 -0.00192372)
(0.260575 0.00925246 -0.00376156)
(0.266651 0.00372134 -0.00130807)
(0.00647496 0.00361779 0.000330498)
(0.52121 0.000999296 0.000285924)
(0.532078 0.00216718 0.000596363)
(-0.00956039 0.00655522 0.000372322)
(0.521002 -0.00492715 0.000125189)
(0.530544 0.00541007 0.00197131)
(0.0186627 0.00773367 0.00329516)
(0.518245 -0.00771898 0.000174867)
(0.533037 0.00826188 0.000325263)
(-0.015524 -0.0086496 -0.000467894)
(0.0145081 0.0101379 0.00528879)
(-0.0140159 -0.0106861 -0.00294915)
(0.4745 0.00985194 0.00206211)
(-0.053232 0.0173714 0.00304705)
(0.488375 -0.0770988 0.00191143)
(0.510763 0.0094249 0.0152)
(0.284602 0.050024 0.0186454)
(-0.0214974 0.0344336 0.0348818)
(-0.0364988 0.0426736 0.0207949)
(0.33229 -0.0790737 0.0223274)
(0.30506 0.0410757 0.030268)
(-0.262111 0.101 0.0242807)
(-0.068182 0.0533479 -0.00958783)
(-0.0601437 -0.0158006 0.060193)
(0.00712643 -0.108001 -0.0207752)
(0.0461416 -0.03722 0.0513072)
(-0.0218541 -0.0168711 0.000550683)
(0.460832 0.00639067 0.000676226)
(0.586681 -0.0297273 -0.00138134)
(-0.0286847 -0.0332351 -0.00109978)
(-0.0259694 -0.0087751 -0.000250063)
(-0.0301256 -0.0661 -0.00168735)
(-0.0290834 -0.0131597 -0.000398588)
(-0.0218152 -0.00840929 0.00019605)
(0.447968 -0.00227534 9.04658e-05)
(0.571026 -0.013553 -0.00159874)
(-0.0184376 -0.00494402 -2.80919e-05)
(0.436015 0.00229091 0.00027318)
(0.554558 -0.00760755 0.00218011)
(-0.0203736 -0.00365458 -0.000165548)
(0.431873 -0.00122346 -8.93167e-05)
(0.549382 -0.00456223 0.00154406)
(-0.0138026 -0.00200887 -6.97173e-05)
(0.430184 0.0011545 6.66168e-05)
(0.546119 -0.00376802 -0.00266581)
(-0.0108106 -0.000498339 -1.46639e-05)
(0.430377 -0.00322375 4.96527e-05)
(0.545596 -0.000686249 -0.001841)
(-0.0019515 2.45089e-06 0.000102449)
(0.432264 0.000985381 -7.0396e-05)
(0.546976 -0.000736468 0.000916867)
(-0.00393984 0.000658796 5.74816e-05)
(0.433531 0.00897118 5.82249e-05)
(0.547355 0.000166898 0.000605932)
(0.00342129 0.00116205 -2.43931e-05)
(0.434323 0.00676511 2.03791e-05)
(0.547823 0.000525847 0.000475241)
(0.00291244 0.000591436 7.35913e-05)
(0.434867 0.00218291 3.04739e-05)
(0.548281 0.0013248 7.2819e-05)
(3.40746e-06 -0.00100865 8.13151e-05)
(0.432256 0.00316948 0.000128)
(0.545818 -0.000227725 0.000157246)
(0.0128516 -0.000656505 -2.85623e-05)
(0.43484 -0.00139974 -1.41452e-05)
(0.546923 -0.00134879 -0.00118914)
(0.0123467 0.000266878 -0.000325939)
(0.438393 -0.012138 -3.20321e-05)
(0.549526 0.000694632 0.00105097)
(0.00564939 -3.82289e-05 -0.000269692)
(0.435804 -0.000350988 -0.000434956)
(0.547326 0.000210795 0.00300849)
(0.0118484 1.00772e-05 1.66146e-05)
(0.435164 -0.00689146 -5.72764e-05)
(0.546391 -0.000181363 -0.00184547)
(0.0116841 0.000555826 -2.52405e-05)
(0.436507 -0.000161637 -4.22535e-05)
(0.546766 0.00018541 -0.00180166)
(0.017463 0.000910647 -3.96092e-05)
(0.436542 0.00699901 -0.000194092)
(0.546358 0.0006854 0.000994943)
(0.0131165 0.00110571 -4.43626e-05)
(0.435772 0.000364858 1.94393e-05)
(0.545593 0.000884364 -0.00116262)
(0.00803966 0.0012203 -9.42255e-05)
(0.433212 0.00597183 -6.11657e-05)
(0.542868 0.000853967 0.000415586)
(0.0149823 0.000464467 -3.89648e-05)
(0.432955 0.00236965 -0.000103631)
(0.543253 0.000943094 0.00273918)
(0.00830285 -0.000456841 0.000179447)
(0.432051 -0.00271382 0.000206293)
(0.542018 -7.66076e-05 0.000482663)
(0.0119078 -0.000444791 0.000226776)
(0.430497 -0.00170635 0.000225452)
(0.538858 -0.000235206 -0.00317681)
(0.0178334 -0.000333467 -1.49739e-05)
(0.432238 -0.00665351 0.000237296)
(0.54028 0.000151929 -0.00109074)
(0.0106653 -0.00104651 -1.62692e-05)
(0.42972 -0.00133311 -1.08836e-05)
(0.538491 -0.000180001 0.00372172)
(0.0110814 -0.00144367 0.000225894)
(0.425998 0.00834424 2.57436e-05)
(0.533906 -0.00165346 -1.76298e-05)
(0.0158906 -0.000619592 0.000127302)
(0.428166 -0.00271405 0.000180781)
(0.534628 -0.00120715 -0.00293277)
(0.0224132 4.2489e-05 -0.000102641)
(0.431561 0.00034047 -0.000120608)
(0.537805 -3.76602e-05 0.000238017)
(0.0240188 0.000352983 -0.000104164)
(0.432114 0.00242419 -0.000106329)
(0.53827 0.000126812 -2.57662e-05)
(0.0176477 0.000536463 -0.000146913)
(0.429344 0.000945234 -0.000140659)
(0.535063 0.000499047 -0.00031168)
(0.0245476 0.000170733 -1.5184e-05)
(0.428733 0.00921497 -0.000160565)
(0.533793 0.000164444 0.00110124)
(0.0376178 -0.000374064 0.000186758)
(0.4337 0.00548461 0.000189317)
(0.538364 -0.000478796 -0.00016949)
(0.0388557 -0.000205981 9.89574e-06)
(0.437816 -0.000166497 0.000120805)
(0.541915 -0.000863374 0.000293836)
(0.0354286 0.000111418 -4.59919e-05)
(0.437434 -3.77185e-05 -0.000121286)
(0.541235 4.48299e-05 0.00189289)
(0.0321264 -0.000420944 8.33368e-05)
(0.434788 -0.0036039 6.15487e-05)
(0.53889 0.000121467 -0.000257169)
(0.0358982 -0.00100866 4.26888e-05)
(0.434257 -0.0117126 0.000211063)
(0.538278 -0.000477309 -0.00216719)
(0.0445626 -0.000489528 0.000145577)
(0.437859 -0.00858066 0.000129884)
(0.541369 -0.000634112 0.000394684)
(0.043008 0.000298765 0.000207733)
(0.438871 -0.00572311 0.000243215)
(0.541481 0.000605331 0.00201023)
(0.0382624 0.000255074 0.000120057)
(0.435363 -0.00470251 -1.83428e-05)
(0.537631 0.000588834 -0.000710887)
(0.0443426 -5.14228e-05 9.4619e-05)
(0.435344 0.00139695 6.58033e-05)
(0.537555 -8.96453e-05 -0.0020219)
(0.0494659 -5.0419e-05 6.15025e-06)
(0.438826 0.0173168 -0.000296149)
(0.540708 -0.000743534 0.000496507)
(0.0408114 0.000104028 8.79436e-05)
(0.437604 0.0125206 -5.32244e-05)
(0.539604 -0.000555524 0.0019765)
(0.0359083 2.26124e-05 0.000276288)
(0.432452 0.00490396 -6.72861e-05)
(0.534617 -0.00030358 -0.000546571)
(0.430459 0.00160686 0.000248277)
(0.531364 -0.00013604 -0.00117334)
(-0.0129987 0.00198085 -0.00155326)
(0.260622 -0.0105017 -0.00368763)
(0.26475 0.00208473 0.00318869)
(-0.000498146 0.000593747 8.06692e-05)
(0.519694 -0.00121845 7.04695e-05)
(0.529019 0.0019238 0.00104556)
(-0.0123557 -0.000306588 -7.22824e-05)
(0.520082 -0.00573732 4.72803e-05)
(0.529394 -0.000632454 -0.000296362)
(-0.0693276 0.00524663 -0.00432448)
(0.520231 0.00342415 0.000437731)
(0.523326 -0.000101411 -0.00230546)
(-0.0217606 0.0120792 0.00111567)