/*--------------------------------*- C++ -*----------------------------------*\
| =========                 |                                                 |
| \\      /  F ield         | OpenFOAM: The Open Source CFD Toolbox           |
|  \\    /   O peration     | Version:  5.0                                   |
|   \\  /    A nd           | Web:      www.OpenFOAM.org                      |
|    \\/     M anipulation  |                                                 |
\*---------------------------------------------------------------------------*/
FoamFile
{
    version     2.0;
    format      ascii;
    class       volScalarField;
    location    "0.1";
    object      p_rgh;
}
// * * * * * * * * * * * * * * * * * * * * * * * * * * * * * * * * * * * * * //

dimensions      [1 -1 -2 0 0 0 0];

internalField   nonuniform List<scalar> 
4398
(
101.475
101.406
101.414
101.37
101.357
103.32
98.4264
94.6845
92.1719
89.6059
87.0504
84.4965
81.9517
79.4427
76.9452
74.4746
72.0178
69.5943
67.1933
64.8165
62.4466
60.0986
57.7816
55.4578
53.1587
50.8821
48.6118
46.3374
44.0828
41.86
39.6359
37.4356
35.2681
33.0894
30.9012
28.747
26.6507
24.5932
22.5445
20.4953
18.4673
16.4872
14.5115
12.5069
10.531
8.60524
6.68185
4.75197
2.84344
0.948179
101.499
101.422
101.392
101.295
101.29
101.198
98.0673
94.7296
92.2085
89.6438
87.0828
84.5182
81.9882
79.4623
76.9514
74.4831
72.0196
69.6096
67.2174
64.8212
62.4524
60.1004
57.7724
55.4559
53.1473
50.8639
48.5989
46.34
44.0929
41.8652
39.6527
37.4474
35.2545
33.0733
30.901
28.7543
26.648
24.5774
22.5268
20.487
18.4714
16.4918
14.5226
12.5276
10.5407
8.59635
6.67222
4.75241
2.84785
0.954493
101.497
101.424
101.32
101.263
101.22
100.983
98.413
94.9045
92.3266
89.7047
87.1303
84.5351
81.985
79.4688
76.9623
74.4772
72.0351
69.6319
67.2308
64.8212
62.4563
60.1051
57.7659
55.4531
53.15
50.8589
48.5872
46.3462
44.1045
41.867
39.6589
37.4488
35.2398
33.0609
30.9113
28.7707
26.6473
24.5678
22.5187
20.4853
18.4769
16.4894
14.5102
12.5294
10.5518
8.59371
6.66416
4.75241
2.85177
0.951488
101.463
101.405
101.356
101.321
101.289
101.051
99.7922
95.0959
92.4381
89.7916
87.1764
84.5903
82.0056
79.4721
76.9701
74.4873
72.0394
69.6289
67.2153
64.8269
62.4671
60.1063
57.7694
55.4552
53.1631
50.8694
48.5864
46.3518
44.1015
41.8612
39.6546
37.4404
35.2309
33.0561
30.9178
28.7872
26.6538
24.5635
22.521
20.4973
18.4859
16.4765
14.4807
12.5148
10.5545
8.59312
6.66229
4.75977
2.85435
0.946974
101.468
101.397
101.39
101.316
101.439
101.522
100.113
95.1431
92.518
89.8217
87.194
84.5821
82.0151
79.4749
76.9822
74.4984
72.0537
69.6223
67.1964
64.8286
62.472
60.1074
57.7768
55.4589
53.1735
50.8872
48.5998
46.3496
44.0891
41.8517
39.6474
37.4312
35.2298
33.0564
30.918
28.7952
26.6633
24.5699
22.5334
20.5105
18.4848
16.4612
14.4581
12.4954
10.5492
8.59419
6.66796
4.77162
2.86066
0.941618
101.517
101.406
101.375
101.296
101.103
101.159
100.894
95.1467
92.5049
89.8162
87.1867
84.5758
82.0132
79.4774
76.9887
74.5054
72.0609
69.6236
67.1897
64.8161
62.4662
60.1018
57.7776
55.4712
53.1806
50.9018
48.611
46.3437
44.0823
41.8461
39.6431
37.4255
35.2232
33.0589
30.9231
28.7993
26.6781
24.5826
22.5333
20.5083
18.4754
16.4425
14.4441
12.4908
10.5473
8.60229
6.6904
4.79992
2.87811
0.947673
101.485
101.412
101.358
101.325
101.356
101.613
99.0516
95.0675
92.4137
89.7464
87.155
84.5617
82.0191
79.4844
76.9822
74.5016
72.0573
69.6273
67.1901
64.8025
62.4502
60.099
57.7738
55.4795
53.1879
50.9027
48.6172
46.3404
44.0839
41.85
39.639
37.4161
35.2178
33.0667
30.9278
28.7941
26.6816
24.592
22.5324
20.498
18.467
16.437
14.4435
12.4905
10.5436
8.60718
6.70432
4.8105
2.88811
0.955496
101.475
101.43
101.361
101.273
101.364
101.334
99.2299
94.867
92.2971
89.6805
87.1026
84.53
81.9992
79.4706
76.9522
74.4988
72.0459
69.6151
67.203
64.7956
62.4402
60.0936
57.772
55.48
53.1873
50.9044
48.6177
46.3364
44.0903
41.8555
39.6292
37.4116
35.2234
33.0756
30.9279
28.7842
26.6833
24.6085
22.5382
20.489
18.4627
16.4499
14.4574
12.4948
10.545
8.6085
6.6984
4.79837
2.88944
0.967578
101.542
101.447
101.375
101.318
101.223
100.97
98.3844
94.7052
92.2006
89.6325
87.0728
84.5172
81.9802
79.4555
76.9557
74.4928
72.0217
69.5962
67.1937
64.8035
62.4339
60.0884
57.7771
55.4737
53.1842
50.9063
48.615
46.3366
44.0892
41.8564
39.6212
37.4124
35.2395
33.083
30.9238
28.7794
26.6852
24.6155
22.5464
20.4919
18.4632
16.4601
14.4738
12.4966
10.5399
8.60811
6.68813
4.77257
2.8725
0.963015
101.518
101.451
101.422
101.356
101.376
101.334
98.0538
94.6709
92.1759
89.5995
87.0512
84.4912
81.9444
79.4432
76.948
74.4756
72.0176
69.5916
67.1864
64.8072
62.4376
60.0931
57.7809
55.4633
53.1734
50.9002
48.615
46.3372
44.0852
41.8566
39.6223
37.421
35.2578
33.088
30.91
28.762
26.6676
24.6075
22.5492
20.4954
18.466
16.4747
14.4895
12.4977
10.532
8.61017
6.68626
4.75792
2.8473
0.952049
101.474
101.406
101.412
101.368
101.301
102.96
98.4279
94.6851
92.1718
89.6058
87.0506
84.4965
81.9517
79.4428
76.9452
74.4744
72.0178
69.5944
67.1934
64.8163
62.4465
60.0987
57.7816
55.4577
53.1588
50.8822
48.6118
46.3374
44.0826
41.8599
39.6359
37.4357
35.2681
33.0893
30.9011
28.7469
26.6504
24.5933
22.5447
20.4952
18.4673
16.4873
14.5115
12.5065
10.531
8.6055
6.68182
4.75188
2.84349
0.948184
101.498
101.421
101.393
101.292
101.285
101.342
98.0672
94.7299
92.2084
89.6437
87.0828
84.5181
81.9881
79.4623
76.9512
74.4829
72.0197
69.6097
67.2173
64.821
62.4527
60.1005
57.7722
55.4559
53.1473
50.8638
48.5988
46.3399
44.0929
41.8652
39.6527
37.4475
35.2543
33.0732
30.901
28.7543
26.6479
24.5774
22.5266
20.4868
18.4715
16.492
14.5226
12.5273
10.5407
8.59631
6.67217
4.75244
2.84785
0.954503
101.497
101.424
101.317
101.262
101.139
100.969
98.4098
94.9053
92.3269
89.7047
87.1303
84.5351
81.9849
79.4688
76.9623
74.4773
72.0353
69.6318
67.2309
64.8212
62.456
60.105
57.7658
55.4534
53.1499
50.8588
48.5873
46.3462
44.1047
41.8671
39.6588
37.4488
35.2397
33.0609
30.9113
28.7707
26.6472
24.5677
22.5187
20.4852
18.4769
16.4895
14.5102
12.5293
10.5519
8.59369
6.66406
4.75252
2.85178
0.951505
101.464
101.405
101.356
101.32
101.285
101.059
99.8004
95.0971
92.4381
89.7915
87.1764
84.5903
82.0056
79.472
76.97
74.4872
72.0393
69.6288
67.2153
64.8267
62.4673
60.1063
57.7694
55.4555
53.1629
50.8693
48.5864
46.3518
44.1016
41.8611
39.6545
37.4404
35.2309
33.0561
30.918
28.7868
26.6537
24.5635
22.521
20.4975
18.4861
16.4765
14.4805
12.5149
10.5547
8.593
6.66222
4.76002
2.85434
0.946968
101.468
101.396
101.39
101.315
101.388
101.594
100.107
95.1433
92.5178
89.8222
87.194
84.5818
82.0148
79.4748
76.9822
74.4983
72.0536
69.6222
67.1962
64.8287
62.4721
60.1071
57.7766
55.4589
53.1734
50.8872
48.5999
46.3496
44.0889
41.8515
39.6475
37.4312
35.2298
33.0563
30.918
28.7952
26.6635
24.5699
22.5334
20.5106
18.4847
16.4609
14.4581
12.4958
10.5491
8.59406
6.66816
4.77145
2.8605
0.94159
101.516
101.406
101.376
101.294
101.076
101.321
100.636
95.1469
92.5047
89.8165
87.1867
84.5758
82.0131
79.4774
76.9887
74.5054
72.0609
69.6236
67.1896
64.8159
62.4662
60.1016
57.7775
55.4719
53.1806
50.9019
48.6109
46.3436
44.0822
41.8462
39.6432
37.4253
35.2231
33.0595
30.9232
28.7992
26.6782
24.5825
22.5333
20.5085
18.4754
16.4423
14.4441
12.4909
10.5469
8.60227
6.69099
4.80012
2.87783
0.94766
101.485
101.409
101.357
101.324
101.315
101.432
99.5373
95.0672
92.4137
89.7464
87.155
84.5616
82.0191
79.4844
76.9822
74.5016
72.0573
69.6271
67.1899
64.8026
62.4503
60.099
57.7738
55.4795
53.1878
50.9026
48.6171
46.3405
44.0839
41.85
39.639
37.416
35.2178
33.0667
30.9277
28.7939
26.6816
24.592
22.5323
20.4981
18.4669
16.4368
14.4435
12.4905
10.5435
8.60716
6.70466
4.81045
2.88799
0.955597
101.475
101.431
101.362
101.272
101.311
101.338
99.2111
94.8675
92.2972
89.6804
87.1025
84.5299
81.9991
79.4706
76.9521
74.4988
72.046
69.615
67.2032
64.7955
62.4401
60.0937
57.772
55.48
53.1873
50.9044
48.6177
46.3364
44.0901
41.8557
39.6291
37.4115
35.2234
33.0756
30.9279
28.7843
26.6833
24.6084
22.5383
20.4889
18.4626
16.4499
14.4574
12.4948
10.545
8.60848
6.69835
4.7983
2.88942
0.967676
101.543
101.444
101.372
101.321
101.224
100.947
98.3848
94.7058
92.2007
89.6325
87.0727
84.5172
81.9802
79.4555
76.9556
74.4928
72.022
69.596
67.1938
64.8035
62.4338
60.0884
57.7771
55.4736
53.1842
50.9064
48.6149
46.3367
44.0894
41.8564
39.6211
37.4123
35.2397
33.083
30.9236
28.7795
26.6852
24.6154
22.5464
20.4918
18.4633
16.4602
14.4737
12.4965
10.5399
8.60818
6.68803
4.77257
2.87267
0.963071
101.517
101.451
101.423
101.358
101.352
101.086
98.0544
94.6715
92.1759
89.5995
87.0513
84.4911
81.9441
79.4434
76.9479
74.4759
72.0175
69.5915
67.1865
64.8071
62.4376
60.093
57.7809
55.4633
53.1735
50.9004
48.6149
46.3372
44.0853
41.8565
39.6222
37.421
35.2579
33.0879
30.9099
28.7621
26.6677
24.6074
22.5492
20.4954
18.466
16.4747
14.4894
12.4976
10.532
8.61021
6.68616
4.75776
2.84737
0.952035
101.474
101.405
101.413
101.371
101.325
102.886
98.4271
94.6849
92.1717
89.6057
87.0506
84.4965
81.9511
79.4428
76.9452
74.474
72.0178
69.5944
67.1934
64.816
62.4462
60.0987
57.7814
55.4576
53.1587
50.8822
48.6117
46.3373
44.0824
41.8598
39.6359
37.4357
35.268
33.0891
30.901
28.7469
26.6502
24.5933
22.5448
20.495
18.4672
16.4873
14.5115
12.5063
10.531
8.60563
6.68172
4.75173
2.84349
0.94814
101.499
101.419
101.393
101.294
101.274
101.303
98.0667
94.7291
92.2084
89.6436
87.0827
84.5181
81.988
79.4622
76.951
74.4825
72.02
69.6101
67.2171
64.8208
62.4528
60.1006
57.7719
55.4557
53.1473
50.8637
48.5986
46.3399
44.0928
41.8653
39.6527
37.4475
35.2542
33.0731
30.901
28.7542
26.6478
24.5777
22.5265
20.4866
18.4714
16.4921
14.5224
12.527
10.5407
8.59632
6.67201
4.75244
2.84787
0.954435
101.497
101.424
101.318
101.261
101.153
100.932
98.4114
94.9054
92.3272
89.7046
87.1302
84.535
81.9849
79.4687
76.9622
74.4774
72.0355
69.6315
67.2306
64.8211
62.4558
60.1049
57.7657
55.4533
53.1499
50.8587
48.5874
46.3461
44.1048
41.8671
39.6587
37.4486
35.2395
33.061
30.9113
28.7706
26.6472
24.5677
22.5185
20.4851
18.4769
16.4895
14.51
12.5292
10.552
8.5936
6.66396
4.75259
2.85175
0.95144
101.462
101.406
101.356
101.322
101.275
101.06
99.8072
95.0975
92.438
89.7912
87.1763
84.5902
82.0055
79.472
76.97
74.4872
72.0392
69.6284
67.2152
64.8266
62.4673
60.1063
57.7694
55.4556
53.1626
50.869
48.5864
46.3517
44.1016
41.8609
39.6544
37.4404
35.2308
33.0562
30.918
28.7866
26.6534
24.5634
22.5211
20.4976
18.486
16.4765
14.4803
12.5149
10.5547
8.59283
6.66211
4.75997
2.85427
0.946851
101.468
101.395
101.391
101.316
101.379
101.415
100.109
95.1423
92.5179
89.8222
87.194
84.5815
82.0145
79.4747
76.9822
74.4983
72.0535
69.6222
67.196
64.8287
62.4721
60.1068
57.7763
55.459
53.1732
50.8871
48.6
46.3495
44.0887
41.8513
39.6475
37.4311
35.2288
33.0563
30.9179
28.7951
26.6635
24.5699
22.5333
20.5107
18.4845
16.4607
14.4582
12.4962
10.549
8.59387
6.66829
4.77165
2.86033
0.941504
101.516
101.407
101.375
101.295
101.099
101.378
100.617
95.1461
92.5048
89.8165
87.1864
84.5756
82.0133
79.4773
76.9886
74.5053
72.0608
69.6237
67.1895
64.8158
62.4661
60.1013
57.7773
55.4719
53.1806
50.9018
48.6108
46.3434
44.0821
41.8463
39.6432
37.4251
35.2229
33.0594
30.9232
28.7991
26.6781
24.5824
22.5332
20.5085
18.4752
16.4419
14.4445
12.491
10.5465
8.6022
6.69147
4.80006
2.87751
0.947578
101.486
101.408
101.356
101.324
101.323
101.44
99.027
95.0661
92.4138
89.7463
87.1549
84.5615
82.019
79.4843
76.9821
74.5015
72.0572
69.6268
67.1899
64.8026
62.4503
60.0989
57.7738
55.4794
53.1876
50.9025
48.6169
46.3405
44.0838
41.85
39.6389
37.4158
35.2177
33.0667
30.9275
28.7936
26.6815
24.592
22.5322
20.4981
18.4668
16.4367
14.4437
12.4905
10.5434
8.6071
6.70486
4.81029
2.88781
0.95553
101.474
101.432
101.362
101.273
101.335
101.135
99.2251
94.8672
92.2974
89.6803
87.1024
84.5298
81.999
79.4705
76.952
74.4987
72.0461
69.6148
67.2033
64.7955
62.4399
60.0936
57.7719
55.4799
53.1872
50.9044
48.6176
46.336
44.0899
41.8557
39.6289
37.4113
35.2233
33.0755
30.9278
28.7843
26.6833
24.6082
22.5382
20.4889
18.4624
16.4498
14.4575
12.4948
10.5449
8.60841
6.69831
4.79825
2.88936
0.967643
101.542
101.442
101.371
101.318
101.223
100.913
98.3847
94.7054
92.201
89.6324
87.0726
84.5171
81.9801
79.4554
76.9555
74.4929
72.022
69.5958
67.1939
64.8035
62.4337
60.0884
57.777
55.4735
53.184
50.9064
48.6147
46.3359
44.0896
41.8564
39.621
37.4122
35.2398
33.083
30.9234
28.7795
26.6853
24.6151
22.5463
20.4916
18.4634
16.4602
14.4736
12.4963
10.5398
8.60821
6.68792
4.77252
2.87273
0.96286
101.516
101.452
101.424
101.356
101.376
101.027
98.054
94.6712
92.1758
89.5994
87.0513
84.4909
81.9437
79.4433
76.9478
74.4761
72.0173
69.5914
67.1864
64.8071
62.4374
60.0929
57.7808
55.4632
53.1735
50.9004
48.6147
46.3372
44.0855
41.8564
39.6221
37.421
35.258
33.0876
30.9094
28.7621
26.6678
24.6074
22.5491
20.4954
18.4659
16.4746
14.4893
12.4975
10.532
8.61019
6.68597
4.75754
2.8475
0.951962
99.4992
101.308
99.1386
103.174
99.5072
101.203
99.1467
99.4435
101.009
99.4928
101.297
99.4538
101.007
99.4825
100.01
100.824
101.108
100.98
100.009
101.079
100.861
101.913
101.478
101.088
101.103
101.848
101.522
101.265
101.351
101.343
101.098
101.597
101.455
101.356
101.552
101.194
101.483
101.185
101.356
101.154
101.463
101.233
101.155
101.407
101.494
101.447
101.25
101.258
101.42
101.197
101.054
99.9832
101.704
100.732
101.043
99.9991
99.5244
101.146
99.2243
100.943
99.5317
101.141
99.2335
99.101
103.344
99.4307
101.199
99.1103
103.136
99.4391
99.5043
101.216
99.1448
102.987
99.5054
101.241
99.147
99.4534
101.002
99.493
101.309
99.4487
100.989
99.4819
100.025
101.059
100.832
100.954
100.01
101.375
100.786
101.756
101.59
101.023
101.266
101.932
101.511
101.519
101.382
101.122
101.153
101.564
101.263
101.199
101.318
101.156
101.968
101.268
101.377
101.182
101.787
101.498
101.571
101.273
101.275
101.726
101.217
101.337
101.405
100.658
101.047
99.9942
101.189
100.789
101.028
100.016
99.515
101.104
99.2326
101.007
99.5198
101.06
99.2362
99.1079
102.997
99.4363
101.048
99.1046
102.965
99.437
99.5085
101.287
99.1497
103.386
99.5003
101.411
99.1424
99.4495
100.98
99.4795
101.257
99.4382
100.952
99.4857
100.014
101.221
100.732
100.927
100.004
101.245
100.892
101.757
101.669
101.097
101.097
102.019
101.493
101.655
101.403
101.22
101.465
101.502
101.496
101.203
101.029
101.11
101.911
101.321
101.651
101.123
101.608
101.213
101.145
101.343
101.283
101.426
101.207
101.336
101.587
100.754
101.043
100.001
101.213
100.915
101.012
99.9956
99.5158
101.027
99.237
100.903
99.5291
100.983
99.2271
99.1059
103.179
99.4399
101.027
99.0968
103.629
99.4315
101.238
101.317
101.194
101.327
101.307
101.322
101.192
101.525
101.486
103.147
103.364
102.697
101.534
101.484
96.7766
98.0729
96.6549
98.4273
96.7855
98.0734
96.6638
101.18
101.259
101.129
101.284
101.175
101.245
101.131
100.803
101.643
101.158
101.209
101.716
101.154
100.792
96.6631
98.4313
96.7808
98.0675
96.6715
98.4308
96.7896
101.127
101.208
101.128
101.313
101.152
101.201
101.123
101.129
101.191
101.236
100.985
101.206
101.23
101.13
96.8927
99.2838
96.9594
98.4114
96.9014
99.2631
96.9686
101.229
101.369
101.322
101.286
101.219
101.351
101.321
101.097
100.748
100.996
101.041
100.776
101.03
101.127
97.4721
98.8895
97.0499
99.822
97.4825
98.952
97.059
101.32
101.193
101.19
101.399
101.355
101.191
101.174
101.181
101.378
101.5
101.635
101.44
101.491
101.31
97.4335
100.671
97.7601
100.138
97.4426
101.072
97.7696
101.21
101.229
101.24
101.08
101.241
101.225
101.233
101.155
101.266
101.455
101.363
101.196
101.365
101.247
97.7058
99.9025
97.5
100.686
97.7154
99.8685
97.5095
101.365
101.332
101.274
101.406
101.366
101.321
101.272
101.476
101.637
101.65
101.447
101.559
101.678
101.601
97.0907
99.9069
97.5327
99.0414
97.1
99.9221
97.5432
101.24
101.256
101.096
101.324
101.276
101.265
101.084
101.136
101.231
101.266
101.621
101.229
101.232
101.137
96.9811
98.3651
96.8746
99.2136
96.9904
98.3644
96.8834
101.041
101.203
101.033
101.219
101.046
101.196
101.029
100.937
101.017
101.088
100.948
101.04
101.09
100.988
96.7553
98.0011
96.6097
98.3844
96.764
98.0014
96.6184
101.018
101.37
101.241
101.36
101.009
101.364
101.187
100.037
101.072
101.218
101.112
100.743
101.266
100.125
96.6249
98.4006
96.7455
98.0545
96.6337
98.4012
96.7543
101.272
101.311
101.19
101.388
101.243
101.311
101.194
101.53
101.481
103.008
103.128
101.547
102.665
101.471
96.7845
98.0736
96.6627
98.4279
96.7844
98.0736
96.6625
101.159
101.237
101.124
101.348
101.161
101.248
101.126
100.943
101.506
101.158
101.373
100.901
101.697
101.16
96.6701
98.4303
96.7884
98.067
96.6695
98.4293
96.7881
101.102
101.202
101.124
101.158
101.104
101.203
101.131
101.116
101.255
101.188
100.944
101.12
101.274
101.107
96.9002
99.2636
96.9676
98.4092
96.8999
99.2641
96.9677
101.218
101.346
101.321
101.323
101.219
101.349
101.32
101.051
100.757
101.115
101.044
101.083
100.755
101.264
97.4823
98.9038
97.0578
99.8252
97.4821
99.156
97.0578
101.289
101.188
101.172
101.501
101.286
101.185
101.179
101.221
101.356
101.115
101.375
101.265
101.334
101.18
97.4408
100.62
97.7675
99.8601
97.4406
100.796
97.7673
101.183
101.245
101.235
101.168
101.187
101.241
101.243
101.192
101.111
101.192
101.294
101.26
101.115
101.18
97.7144
99.9158
97.5088
100.711
97.7147
100.221
97.5092
101.342
101.314
101.275
101.293
101.341
101.316
101.272
101.328
101.367
101.535
101.555
101.445
101.452
101.303
97.0985
99.9155
97.5433
99.03
97.0982
99.9209
97.5433
101.209
101.253
101.084
101.562
101.206
101.242
101.085
101.127
101.231
101.062
101.188
101.13
101.231
101.185
96.9892
98.364
96.8822
99.226
96.9892
98.3646
96.8819
101.039
101.198
101.048
101.345
101.041
101.2
101.059
101.099
101.117
101.111
101.009
101.066
101.087
101.115
96.7628
98.0015
96.6174
98.3853
96.7626
98.0012
96.6173
101.007
101.361
101.252
101.616
101.003
101.357
101.118
100.129
100.633
101.304
101.003
100.069
100.575
101.406
96.6326
98.4018
96.7531
98.0542
96.6324
98.4017
96.7531
101.166
101.328
101.195
101.311
101.316
101.324
101.199
101.527
101.481
102.946
103.194
101.547
102.74
101.48
96.7852
98.0734
96.6633
98.4266
96.7762
98.0731
96.6541
101.161
101.244
101.127
101.294
101.165
101.245
101.147
100.941
101.474
101.173
101.295
100.97
101.779
101.172
96.6699
98.4285
96.7893
98.0667
96.6606
98.4285
96.7809
101.112
101.205
101.135
101.212
101.104
101.208
101.138
101.117
101.301
101.115
100.922
101.116
101.27
101.081
96.9009
99.265
96.9688
98.4136
96.8923
99.2802
96.9598
101.218
101.346
101.319
101.282
101.223
101.346
101.335
101.105
100.728
101.412
101.071
101.096
100.753
101.585
97.4821
98.9688
97.0592
99.7884
97.4719
99.52
97.0501
101.301
101.182
101.183
101.367
101.294
101.184
101.212
101.477
101.327
101.289
101.41
101.285
101.479
101.746
97.4425
100.915
97.7691
100.251
97.4335
100.578
97.7595
101.19
101.241
101.244
101.098
101.202
101.236
101.247
101.196
101.049
101.153
101.772
101.341
101.232
101.15
97.7163
99.934
97.5103
100.789
97.7069
99.93
97.5004
101.341
101.317
101.272
101.355
101.345
101.317
101.287
101.337
101.342
101.421
101.439
101.338
101.341
102.268
97.099
99.9208
97.5434
99.087
97.0894
99.9173
97.5331
101.204
101.246
101.084
101.327
101.201
101.242
101.099
101.12
101.233
101.154
101.155
101.119
101.233
101.257
96.9904
98.3658
96.8827
99.25
96.9813
98.367
96.8738
101.044
101.201
101.072
101.218
101.047
101.209
101.075
101.047
101.171
101.126
100.896
101.142
101.102
101.128
96.7635
98.0008
96.6184
98.3849
96.7547
98.0004
96.6097
101.004
101.353
101.329
101.39
101.013
101.353
101.389
100.009
100.582
101.239
101.014
99.9832
100.612
101.26
96.6332
98.4009
96.7542
98.0537
96.6242
98.4003
96.7455
100.629
100.647
99.5082
99.5097
99.5189
100.629
100.646
100.188
101.264
100.993
101.187
101.316
100.792
100.215
99.6994
99.1219
99.7524
99.1482
99.1304
99.742
99.7019
101.527
103.275
101.481
102.927
102.592
101.545
101.473
100.63
99.5057
100.645
99.5185
99.5158
100.632
100.647
100.21
101.192
101.331
100.744
101.37
100.768
100.188
99.6977
99.1447
99.1281
99.7417
99.1267
99.7418
99.6956
98.8985
100.132
98.6092
99.4526
100.135
98.6152
98.9532
101.137
101.214
101.087
101.007
101.214
101.103
101.231
99.9079
99.1334
101.183
99.5138
99.1384
101.387
100.069
100.848
101.237
101.407
101.153
101.573
101.155
100.89
98.8949
99.4509
100.135
98.6119
100.135
98.6112
98.8785
101.146
101.006
101.225
101.163
101.219
101.115
101.146
99.8599
99.4942
99.138
101.029
99.1368
101.237
99.8376
100.979
101.258
98.9339
100.04
101.461
98.8884
100.988
101.113
101.103
101.097
100.815
101.089
101.1
101.134
101.056
99.8096
101.337
100.807
99.5537
101.167
101.338
101.128
100.993
101.236
101.266
101.205
101.234
101.123
101.034
100.03
101.024
98.9023
101.36
98.8767
101.063
101.106
101.257
101.077
101.104
101.078
101.105
101.105
101.603
100.695
99.6212
101.249
100.169
101.098
101.177
101.271
101.564
101.873
101.298
101.567
102.03
101.25
101.371
101.305
101.346
101.316
101.349
101.279
101.272
101.206
101.251
101.23
101.226
101.198
101.229
101.206
101.102
101.038
100.831
101.117
100.787
101.124
101.101
101.286
101.297
101.575
101.588
101.558
101.946
101.336
101.234
101.642
101.087
101.273
101.373
101.238
101.147
101.207
101.339
101.302
101.228
101.257
101.228
101.207
101.271
101.267
101.322
101.427
101.267
101.583
101.27
101.183
101.295
101.246
101.352
101.221
101.165
101.308
101.186
101.276
101.166
101.223
101.623
101.17
101.181
101.183
101.552
101.479
101.49
101.286
101.485
101.191
101.271
101.744
101.268
101.206
101.265
101.46
101.271
101.206
101.403
101.268
101.113
101.245
101.149
101.207
101.186
101.456
101.265
101.171
101.21
101.17
101.191
101.162
101.135
101.195
101.111
101.141
101.092
101.161
101.212
101.393
101.4
101.455
101.498
101.315
101.495
101.185
101.17
101.291
101.257
101.128
101.294
101.184
101.152
100.807
101.317
101.647
101.173
101.367
101.387
101.163
101.101
101.148
101.52
101.146
101.136
101.162
101.218
101.488
101.102
101.311
101.267
101.34
101.235
101.186
101.264
101.157
101.296
101.132
101.294
101.187
101.323
101.276
101.201
101.2
101.275
101.171
101.322
101.194
101.297
101.269
101.302
101.294
101.268
101.189
101.326
101.567
101.258
101.625
101.734
101.273
101.305
101.429
101.444
101.365
101.688
101.599
101.667
101.406
101.328
101.144
101.275
101.25
101.274
101.214
101.331
101.202
101.316
101.278
101.276
101.414
101.284
101.214
101.346
101.639
101.281
101.302
101.684
101.291
101.359
101.157
101.422
99.7092
100.968
101.318
99.5963
101.231
101.199
101.424
101.071
101.036
101.282
101.082
101.197
101.043
98.9029
101.099
100.012
98.8967
101.273
101.017
101.135
101.408
101.233
101.273
101.231
101.24
101.135
101.158
100.78
101.164
99.5761
101.185
99.5918
101.168
101.202
101.138
101.356
101.099
101.828
101.097
101.201
101.045
100.013
98.827
100.888
98.8662
101.159
101.087
99.7611
101.174
99.0381
99.5549
101.413
99.0435
99.8582
100.604
101.022
100.952
101.156
101.019
101.205
100.632
98.9875
98.6011
100.014
99.2342
98.6076
100.033
99.0777
100.971
100.946
101.073
101.106
101.057
101.098
101.002
99.7685
99.5574
100.985
99.0424
101.36
99.0407
99.7191
100.673
101.163
101.023
100.827
101.018
101.176
100.719
98.9697
99.2316
98.6034
100.015
98.6041
100.037
98.9783
99.5822
99.7229
99.0128
99.111
99.714
99.0218
99.5836
101.496
103.136
101.346
103.307
102.613
101.526
101.336
100.638
99.4579
100.526
99.4412
99.4681
100.637
100.525
99.9709
101.076
100.804
101.234
100.676
101.27
99.995
99.5814
99.1079
99.712
99.0204
99.7142
99.0184
99.5814
101.519
103.476
103.337
101.326
102.634
101.582
101.316
100.641
99.4374
99.4669
100.525
99.4644
100.644
100.525
100.632
100.644
99.5166
99.5052
100.632
99.5176
100.642
100.15
101.34
100.751
101.217
100.169
101.381
100.741
99.6932
99.1256
99.7391
99.1462
99.6946
99.1261
99.7362
101.527
103.599
101.47
102.845
102.51
101.544
101.455
100.632
99.5055
100.643
99.5168
99.5179
100.632
100.643
100.154
101.274
101.317
100.753
101.356
100.81
100.146
99.6918
99.1474
99.1254
99.7375
99.1256
99.734
99.6932
98.9135
100.145
98.6096
99.453
98.904
100.153
98.6108
101.18
101.232
101.206
100.998
101.159
101.236
101.184
99.837
99.1357
100.976
99.4945
99.8366
99.1342
101.201
100.973
101.338
101.364
101.168
101.589
101.162
101.003
99.0144
99.4512
100.142
98.6152
100.148
98.6129
98.9639
101.216
100.991
101.242
101.228
101.24
101.22
101.29
99.8915
99.488
99.1349
100.965
99.1348
101.207
99.9223
100.996
101.014
98.8542
100.06
101.047
101.317
98.8716
101.1
101.07
101.104
101.064
101.104
101.067
101.102
101.148
99.5632
101.276
101.366
101.115
99.5358
101.692
101.115
100.944
101.292
101.094
101.274
101.154
101.116
100.997
100.048
100.926
98.8667
101.277
98.8765
101.002
101.1
101.204
100.748
101.098
101.101
101.102
101.093
101.289
100.862
99.7077
101.219
99.7696
101.311
101.278
101.38
101.649
101.583
101.201
101.349
101.583
101.848
101.24
101.086
101.451
101.214
101.127
101.163
101.262
101.217
101.3
101.228
101.337
101.214
101.272
101.23
101.063
100.84
100.728
101.289
100.748
101.257
101.084
101.378
101.252
101.58
101.562
101.569
101.833
101.377
101.223
101.099
101.145
101.334
101.164
101.346
101.139
101.224
102.063
101.231
101.235
101.267
101.23
101.232
101.273
101.269
101.249
101.326
101.273
101.272
101.234
101.199
101.306
101.159
101.185
101.196
101.354
101.156
101.196
101.335
101.173
101.075
101.192
101.375
101.176
101.208
101.314
101.319
101.079
101.331
101.185
101.067
101.275
101.513
101.277
101.309
101.275
101.334
101.275
101.191
101.198
101.212
101.173
101.223
101.165
101.199
101.2
101.2
101.373
101.182
101.265
101.18
101.202
101.158
101.151
101.255
101.487
101.161
101.151
101.271
101.283
101.127
101.328
101.46
101.207
101.179
101.298
101.193
101.182
101.296
101.345
101.19
101.184
101.295
101.218
101.29
101.128
101.153
101.114
101.151
101.199
101.158
101.19
101.149
101.191
101.153
101.194
101.159
101.183
101.485
101.131
101.291
101.17
101.287
101.175
101.194
101.523
101.18
101.292
101.421
101.296
101.195
101.341
101.278
101.241
101.524
101.337
101.284
101.219
101.196
101.273
101.282
101.327
101.211
101.263
101.304
101.415
101.222
101.309
101.41
101.382
101.558
101.273
101.442
101.213
101.343
101.177
101.416
101.302
101.333
101.347
101.491
101.291
101.245
101.286
101.22
101.357
101.178
102.04
101.283
101.321
101.284
101.423
101.202
101.428
101.554
101.283
101.277
101.607
101.298
101.404
101.205
101.138
99.6478
101.111
101.203
101.512
99.5864
101.196
101.316
101.103
101.026
101.202
101.293
101.113
101.132
98.9869
100.84
100.025
101.15
98.8928
101.108
101.123
101.172
101.234
101.164
101.233
101.161
101.122
101.319
100.823
101.242
99.7081
101.303
99.8185
101.291
101.19
101.028
101.23
101.118
101.365
101.126
101.185
101.073
100.04
98.8849
100.925
98.9408
101.123
101.109
99.7796
101.106
99.0417
99.5294
99.7948
101.261
99.0425
100.775
101.027
100.764
101.099
100.756
101.031
101.044
98.9365
98.598
100.004
99.2354
98.9445
98.595
100.021
101.192
100.955
101.107
101.124
101.108
101.118
101.134
99.9411
99.5322
101.033
99.0432
101.242
99.0422
99.7944
100.78
101.085
101.038
100.891
101.035
101.103
100.832
98.941
99.2377
98.5907
100.014
98.5923
100.031
98.9527
99.5784
99.7143
99.0186
99.1074
99.5795
99.714
99.0201
101.523
103.292
101.335
103.153
101.58
102.601
101.333
100.645
99.4647
100.525
99.4369
100.644
99.4657
100.525
99.9591
101.015
100.623
101.269
100.576
101.338
99.9899
99.5784
99.106
99.7156
99.0203
99.7148
99.0205
99.5809
101.527
103.197
103.209
101.313
102.518
101.587
101.317
100.646
99.4371
99.4651
100.524
99.4655
100.648
100.524
100.632
100.645
99.5187
99.5068
100.633
99.5158
100.647
100.21
101.28
100.83
101.207
100.167
101.275
100.755
99.6983
99.1281
99.7375
99.1481
99.6959
99.1275
99.7408
101.517
103.138
101.481
103.004
102.707
101.525
101.476
100.63
99.5108
100.648
99.508
99.5189
100.63
100.648
100.233
101.199
101.226
101.083
101.257
100.781
100.336
99.7019
99.1517
99.123
99.7524
99.1316
99.7441
99.705
98.9624
100.146
98.622
99.4465
99.0308
100.155
98.6245
101.299
101.24
101.247
100.959
101.413
101.238
101.225
99.945
99.1351
101.092
99.4993
100.107
99.1342
101.266
100.882
101.274
101.597
101.178
101.804
101.174
100.958
98.9506
99.4482
100.14
98.6272
100.152
98.6306
99.0591
101.323
100.949
101.233
101.202
101.233
101.219
101.472
100.037
99.5133
99.1339
101.191
99.1363
101.35
100.263
100.988
100.955
98.8934
100.038
100.997
101.355
98.891
101.089
101.285
101.093
101.215
101.091
101.166
101.086
101.084
99.742
101.172
100.825
101.282
99.4525
101.231
101.115
100.923
101.244
101.058
101.258
101.115
101.117
100.952
100.038
101.202
98.8855
101.453
98.8904
100.955
101.09
101.359
101.163
101.077
101.184
101.081
101.093
101.229
100.744
99.7783
101.211
99.5811
101.15
101.361
101.364
101.599
101.589
101.341
101.376
101.568
101.951
101.258
101.877
101.325
101.388
101.375
101.091
101.316
101.243
101.218
101.238
101.378
101.238
101.181
101.241
101.087
101.061
100.695
100.944
100.717
100.975
101.079
101.363
101.411
101.542
101.889
101.571
102.027
101.356
101.272
101.386
101.222
101.377
101.302
101.541
101.266
101.246
101.516
101.16
101.246
101.156
101.243
101.245
101.275
101.279
101.238
101.29
101.276
101.279
101.345
101.12
101.431
101.162
101.154
101.179
101.361
101.163
101.21
101.665
101.184
101.18
101.208
101.627
101.184
101.489
101.553
101.429
101.517
101.336
101.333
101.493
101.274
101.252
101.281
101.375
101.281
101.726
101.27
101.279
101.178
101.217
101.215
101.193
101.183
101.591
101.217
101.17
101.048
101.183
101.187
101.184
101.219
101.16
101.146
101.243
101.224
101.159
101.141
101.095
101.06
101.828
101.322
101.392
101.188
101.207
101.325
101.194
101.123
101.291
101.41
101.195
101.185
101.286
101.241
101.563
101.132
101.186
101.16
101.283
101.163
101.161
101.116
101.133
101.188
101.136
101.067
101.162
101.332
101.389
101.152
101.531
101.255
101.346
101.593
101.192
101.288
101.287
101.282
101.216
101.284
101.191
101.365
101.295
101.262
101.116
101.36
101.295
101.217
101.215
101.405
101.302
101.331
101.22
101.258
101.294
101.378
101.274
101.268
101.571
101.386
101.641
101.263
101.36
101.429
101.351
101.22
101.344
101.238
101.33
101.364
101.092
101.301
101.179
101.299
101.154
101.364
101.215
101.332
101.307
101.287
101.354
101.289
101.213
101.385
101.722
101.599
101.232
101.726
101.247
101.371
101.195
101.213
99.8788
100.961
101.352
101.347
99.6293
101.181
101.342
101.088
101.014
101.181
101.032
101.077
101.045
99.0376
100.908
100.013
101.103
98.9323
101.21
101.119