/*--------------------------------*- C++ -*----------------------------------*\
| =========                 |                                                 |
| \\      /  F ield         | OpenFOAM: The Open Source CFD Toolbox           |
|  \\    /   O peration     | Version:  5.0                                   |
|   \\  /    A nd           | Web:      www.OpenFOAM.org                      |
|    \\/     M anipulation  |                                                 |
\*---------------------------------------------------------------------------*/
FoamFile
{
    version     2.0;
    format      ascii;
    class       surfaceScalarField;
    location    "0.1";
    object      phi;
}
// * * * * * * * * * * * * * * * * * * * * * * * * * * * * * * * * * * * * * //

dimensions      [0 3 -1 0 0 0 0];

internalField   nonuniform List<scalar> 
12667
(
1.42578e-09
2.36572e-11
-6.88565e-11
1.42231e-09
-3.9311e-11
3.57046e-11
1.26303e-09
1.20797e-10
5.52996e-11
2.62882e-10
-1.68453e-10
3.28853e-10
1.20183e-10
6.11582e-10
7.92133e-11
1.80265e-11
-8.97616e-11
1.15211e-10
5.0942e-11
8.07839e-11
7.58628e-11
-2.77381e-10
6.27768e-11
1.72874e-12
2.12366e-10
-3.84429e-11
2.16932e-10
1.94295e-11
-1.13266e-11
-3.86587e-11
-7.3539e-11
-7.3513e-11
1.40816e-09
-1.12103e-11
-3.23176e-11
-2.59369e-10
-2.45977e-10
-4.44283e-10
-4.14108e-10
1.4182e-09
-8.34292e-12
-1.05032e-12
1.42519e-09
-6.83659e-12
1.80196e-13
1.43026e-09
-4.82342e-12
-4.42452e-14
1.43366e-09
-3.28652e-12
3.91795e-13
1.43577e-09
-2.2401e-12
-9.87043e-14
1.43725e-09
-1.39056e-12
1.60028e-13
1.43809e-09
-8.26464e-13
1.05933e-13
1.43883e-09
-1.13295e-12
3.23631e-13
1.43904e-09
-2.16776e-13
-5.25717e-14
1.43923e-09
-1.23084e-13
1.81484e-14
1.44001e-09
-6.72978e-13
-2.60929e-14
1.4397e-09
2.66201e-14
7.27123e-14
1.43975e-09
-3.54159e-14
2.28969e-13
1.43984e-09
1.71184e-13
-2.81357e-13
1.43998e-09
1.13179e-13
-4.92698e-13
1.44e-09
-1.58678e-13
2.40393e-14
1.43994e-09
1.51372e-13
-8.73398e-15
1.43996e-09
1.85947e-13
3.32076e-15
1.43969e-09
1.51896e-13
3.98506e-14
1.43963e-09
-4.98325e-15
7.45894e-14
1.44015e-09
-2.25585e-13
-6.34053e-14
1.43991e-09
1.58105e-13
8.48744e-14
1.44003e-09
-1.83435e-13
-3.86357e-14
1.44007e-09
-6.94173e-15
-4.23576e-14
1.43989e-09
1.42254e-13
-1.23893e-13
1.44081e-09
-5.61734e-13
1.42643e-12
1.44133e-09
1.77383e-13
3.1436e-15
1.43906e-09
-3.54749e-13
1.81756e-12
1.43902e-09
-2.54872e-13
-1.39555e-12
1.43898e-09
-5.6711e-13
-2.9483e-13
1.43982e-09
1.19902e-12
-2.46702e-12
1.44028e-09
-1.22814e-12
7.23221e-13
1.43959e-09
1.46737e-14
3.39874e-13
1.43959e-09
-3.71771e-13
-4.43452e-14
1.44032e-09
2.47374e-12
-5.96055e-13
1.44033e-09
2.06686e-12
-2.37867e-12
1.43983e-09
3.33838e-13
-1.02814e-13
1.4405e-09
3.26307e-13
-1.60151e-12
1.44041e-09
-9.63464e-14
-1.04551e-13
1.44043e-09
-6.45034e-13
5.90969e-16
1.43973e-09
5.89852e-13
-7.10846e-13
1.11277e-12
7.55937e-13
1.45643e-09
4.90742e-11
-9.29578e-11
1.39725e-09
-6.58503e-12
2.64609e-11
1.41474e-09
1.01075e-10
2.22223e-12
2.94699e-10
-6.39304e-11
7.70982e-11
1.56581e-10
5.66995e-10
2.14847e-10
-3.77921e-11
2.09802e-10
5.07469e-11
7.19443e-11
-8.9432e-11
-2.60525e-10
1.87279e-10
2.88887e-11
1.33789e-10
-3.44617e-11
-2.02421e-12
1.86687e-10
-1.84934e-11
-4.72148e-12
-2.31021e-11
-6.48593e-11
-3.90249e-11
1.40225e-09
-4.15068e-11
-3.22593e-11
-2.42556e-10
-2.53209e-10
-4.08888e-10
-4.3504e-10
1.4188e-09
-2.4284e-11
-6.17051e-13
1.42733e-09
-1.55741e-11
2.15859e-13
1.43239e-09
-9.88293e-12
-6.07185e-15
1.43533e-09
-6.25733e-12
2.45411e-14
1.43708e-09
-4.01059e-12
1.97541e-14
1.4382e-09
-2.50869e-12
-4.0197e-15
1.43894e-09
-1.57724e-12
1.2438e-14
1.43898e-09
-1.10955e-13
-1.06966e-12
1.43922e-09
-2.11629e-13
-2.60184e-13
1.43977e-09
-1.0409e-12
3.7668e-13
1.43964e-09
-5.22219e-13
-1.89624e-14
1.43969e-09
2.6781e-13
-3.05493e-13
1.43987e-09
3.12874e-13
-5.2613e-13
1.44012e-09
-1.13274e-13
3.39444e-14
1.43983e-09
2.04907e-13
1.99557e-13
1.43957e-09
1.26008e-13
-2.74224e-14
1.43985e-09
-9.29062e-14
-2.97924e-14
1.44e-09
4.36555e-14
-1.37476e-14
1.43992e-09
2.42996e-13
-1.56244e-14
1.43996e-09
-4.92823e-14
-6.88461e-15
1.44004e-09
-2.99088e-13
2.11495e-15
1.44035e-09
-3.22855e-14
-1.08781e-13
1.44014e-09
-1.03443e-14
3.84362e-14
1.44013e-09
-7.35062e-14
8.90692e-14
1.44004e-09
5.66828e-14
1.76911e-13
1.44008e-09
-4.20442e-14
-5.59624e-13
1.43979e-09
3.73757e-13
9.88251e-14
1.44001e-09
-6.69331e-13
1.0563e-13
1.44002e-09
-1.49264e-13
-1.14776e-13
1.43993e-09
-1.12891e-13
-3.61645e-13
1.43961e-09
-1.08191e-12
2.6035e-12
1.43893e-09
2.59251e-13
-8.0076e-13
1.43895e-09
6.56371e-14
-6.78848e-14
1.43861e-09
-5.30147e-14
2.53305e-14
1.44101e-09
3.62023e-13
-2.84998e-13
1.44091e-09
-1.43637e-13
2.31273e-12
1.44048e-09
9.69701e-13
-2.02567e-13
1.43965e-09
-1.30808e-13
1.29506e-12
1.44005e-09
1.02545e-13
-6.00227e-13
1.43975e-09
-2.01227e-13
-1.38698e-13
1.43972e-09
-1.72741e-13
7.88664e-13
5.47769e-14
-3.7422e-13
1.43484e-09
4.67439e-11
-4.36225e-11
1.36556e-09
2.53816e-11
3.73077e-11
1.3409e-09
1.38809e-10
-1.30609e-11
1.55433e-10
3.70879e-11
1.6245e-10
2.10252e-10
3.7237e-10
3.39377e-10
-2.29562e-11
3.19979e-10
3.92571e-11
-1.80846e-10
-2.66266e-11
-8.05673e-11
1.21259e-10
-1.49781e-11
9.12864e-13
-4.73681e-11
2.52235e-12
1.99317e-10
7.10844e-12
-2.19676e-11
-9.12721e-11
-2.80112e-11
-2.15998e-12
-8.19329e-12
-7.57817e-12
-2.39781e-12
1.42752e-09
-4.49215e-11
-3.616e-11
-2.53622e-10
-2.56236e-10
-4.33848e-10
-4.4424e-10
1.43482e-09
-3.12151e-11
-3.83867e-13
1.43731e-09
-1.81694e-11
1.10617e-13
1.43869e-09
-1.12536e-11
-1.56791e-14
1.43932e-09
-6.90582e-12
2.35044e-14
1.43961e-09
-4.30116e-12
-4.91598e-15
1.43976e-09
-2.66395e-12
-1.2673e-15
1.43981e-09
-1.6515e-12
1.54367e-14
1.44002e-09
-9.93833e-13
6.65138e-13
1.44011e-09
-6.52857e-13
3.56599e-13
1.44002e-09
3.21894e-13
-1.27605e-12
1.43952e-09
4.77911e-13
-5.06709e-13
1.43971e-09
-3.42968e-13
4.20557e-13
1.43983e-09
-3.09292e-13
4.96399e-13
1.43959e-09
9.77863e-14
2.36705e-14
1.43986e-09
-7.77627e-14
1.94413e-14
1.43979e-09
3.0524e-14
1.65791e-13
1.43989e-09
-1.51672e-13
-3.30189e-14
1.43989e-09
2.1832e-15
2.76782e-14
1.44023e-09
2.67502e-13
-3.7426e-13
1.44033e-09
-1.5435e-13
7.8112e-15
1.43993e-09
8.54266e-14
1.91641e-14
1.43987e-09
-8.7079e-15
4.51996e-14
1.43983e-09
5.07507e-15
2.6424e-14
1.43977e-09
1.96968e-14
-1.86523e-14
1.43998e-09
-1.87101e-13
3.26658e-14
1.44005e-09
-3.80571e-13
2.70847e-13
1.44064e-09
3.28014e-13
-5.35876e-13
1.43977e-09
1.70584e-12
-1.49423e-12
1.43993e-09
-4.12739e-13
1.02348e-13
1.44007e-09
-2.45438e-13
-4.57155e-15
1.43987e-09
-4.24832e-13
-4.48076e-13
1.4388e-09
-9.48053e-13
2.27763e-12
1.43925e-09
-4.62655e-13
7.7491e-14
1.43923e-09
-9.45239e-13
9.18873e-13
1.43939e-09
1.38109e-12
-1.17519e-12
1.44076e-09
-1.95338e-12
4.40568e-13
1.44096e-09
2.52671e-13
5.19965e-13
1.44035e-09
6.44257e-13
-1.65123e-13
1.43999e-09
-1.67925e-13
6.35899e-13
1.43962e-09
3.50251e-14
1.4188e-13
1.4399e-09
-4.29367e-13
-2.43056e-14
5.7154e-14
-6.28397e-13
1.48321e-09
4.17804e-11
-8.93596e-11
1.47041e-09
9.69072e-12
2.84884e-11
1.50269e-09
1.15782e-10
-9.25099e-12
3.06184e-10
-3.47938e-11
6.79823e-11
2.50172e-10
5.55334e-10
3.94903e-10
-3.82762e-11
3.10739e-10
1.83353e-11
1.53844e-11
-7.98475e-12
-6.95958e-11
2.30091e-11
2.89974e-11
2.55739e-11
-6.29228e-11
9.07354e-12
4.52167e-13
1.46581e-11
3.87384e-11
1.46485e-09
-1.79726e-11
-3.58823e-11
-2.94073e-10
-2.42101e-10
-5.1658e-10
-4.03169e-10
1.45705e-09
-2.26443e-11
-7.55265e-13
1.45026e-09
-1.15287e-11
1.40683e-13
1.44642e-09
-7.34577e-12
-6.57996e-14
1.44397e-09
-4.47843e-12
1.22882e-14
1.4425e-09
-2.81545e-12
-1.01748e-14
1.44154e-09
-1.70738e-12
1.80681e-15
1.44096e-09
-1.07806e-12
5.28858e-15
1.4406e-09
-6.57501e-13
1.18148e-14
1.44032e-09
1.65604e-14
-3.84756e-13
1.43996e-09
-2.72736e-13
9.50184e-13
1.44007e-09
-5.87611e-13
9.43116e-13
1.44016e-09
-2.54354e-13
-1.76534e-13
1.43985e-09
-6.06896e-14
5.71112e-14
1.43995e-09
1.65029e-13
-1.65893e-13
1.43975e-09
-1.78351e-13
2.96612e-13
1.44008e-09
3.98676e-13
-6.90314e-13
1.43979e-09
8.27656e-14
5.05991e-14
1.43984e-09
-1.39502e-13
8.6273e-14
1.44009e-09
-3.51015e-13
3.67197e-13
1.43988e-09
4.64494e-14
2.52232e-15
1.43976e-09
2.17241e-13
-4.22345e-15
1.43976e-09
-1.37913e-14
1.39278e-14
1.43983e-09
-4.49102e-14
-1.29409e-14
1.44005e-09
-7.28322e-14
-1.22537e-13
1.43981e-09
-6.04441e-13
6.61208e-13
1.44002e-09
-2.87439e-13
-2.9278e-13
1.43974e-09
9.19168e-14
5.14815e-13
1.4404e-09
-2.22635e-13
1.27614e-12
1.44007e-09
-2.88135e-13
2.06897e-13
1.43991e-09
-2.33708e-13
1.51263e-13
1.43942e-09
2.46854e-12
-2.39774e-12
1.43998e-09
1.83272e-12
-3.34343e-12
1.43974e-09
-8.44398e-14
-1.26823e-13
1.43998e-09
2.23167e-13
-1.40253e-12
1.43944e-09
4.6031e-13
1.4568e-12
1.44046e-09
-1.83182e-12
-1.139e-12
1.44013e-09
6.43696e-13
-5.34133e-14
1.44034e-09
3.07111e-13
1.26301e-13
1.44008e-09
1.55227e-13
-5.3256e-14
1.43986e-09
1.17346e-13
1.38651e-13
1.43943e-09
9.28338e-14
-9.06525e-14
-1.17314e-12
1.93762e-13
1.47422e-09
9.26487e-12
-5.28223e-11
1.46344e-09
7.29596e-12
1.31863e-11
1.51402e-09
3.71048e-11
2.809e-11
2.20033e-10
8.43465e-12
1.29099e-10
2.74653e-10
3.88759e-10
4.5825e-10
-2.10866e-11
2.37864e-10
9.38515e-11
-9.0595e-11
-6.94699e-12
-1.36778e-11
-4.32194e-12
2.13394e-11
3.60729e-12
-1.19096e-10
1.90433e-11
-8.54959e-12
6.54103e-11
4.31919e-11
1.49034e-09
5.89382e-13
-2.60806e-11
-2.725e-10
-2.86046e-10
-4.48738e-10
-4.75541e-10
1.47039e-09
5.57431e-14
-2.74623e-12
1.45854e-09
-1.65738e-13
4.8818e-13
1.45132e-09
2.20805e-14
-1.63664e-13
1.44691e-09
-2.45604e-13
1.93218e-13
1.44441e-09
5.77133e-13
-8.85133e-13
1.44262e-09
9.05237e-14
-2.52024e-14
1.44168e-09
-1.49456e-13
1.48958e-14
1.44116e-09
-1.39843e-13
7.71189e-15
1.44078e-09
-9.55298e-14
4.80667e-13
1.44036e-09
2.56924e-13
-1.17285e-13
1.43996e-09
-1.13433e-13
-8.07658e-14
1.4401e-09
4.48526e-13
-8.3794e-13
1.43997e-09
1.14632e-13
-4.59729e-14
1.43997e-09
-7.62821e-14
2.35641e-13
1.44002e-09
3.52182e-14
-2.70922e-13
1.43997e-09
3.40882e-14
4.16028e-13
1.44004e-09
-2.29056e-14
4.13032e-14
1.43954e-09
-5.0768e-13
8.70368e-13
1.43941e-09
-2.03385e-13
-2.87799e-14
1.43961e-09
-5.49889e-13
4.04406e-13
1.43988e-09
-2.57832e-14
-2.66386e-14
1.43981e-09
7.33951e-14
-1.60931e-14
1.43994e-09
-1.23983e-13
-4.24188e-14
1.43983e-09
8.595e-14
-4.07974e-14
1.43989e-09
1.05516e-13
-7.72054e-13
1.43971e-09
-5.84185e-14
-4.30934e-14
1.44009e-09
-2.43655e-13
-3.23188e-14
1.44005e-09
-1.47419e-13
-3.24866e-14
1.43971e-09
-7.2825e-13
7.79753e-13
1.43978e-09
-4.90607e-13
1.89072e-13
1.43973e-09
1.99478e-13
2.32363e-12
1.4403e-09
2.39018e-13
1.02668e-12
1.44015e-09
4.20943e-13
-3.43983e-13
1.4408e-09
-2.04288e-12
1.61641e-12
1.44096e-09
1.71059e-13
1.36748e-13
1.43866e-09
-2.75734e-13
7.48211e-13
1.43976e-09
-6.08974e-13
1.54557e-13
1.44026e-09
-2.21161e-13
3.10844e-14
1.44011e-09
3.25702e-12
-2.95605e-12
1.43982e-09
-1.90038e-12
2.31548e-12
1.44026e-09
-1.03869e-12
6.93179e-13
-2.8234e-13
3.06159e-13
1.50925e-09
-1.61437e-11
-9.49534e-11
1.50325e-09
-5.68871e-12
1.8987e-11
1.63743e-09
-6.90744e-11
-2.80018e-11
2.31753e-10
4.53096e-11
4.47969e-11
3.54396e-10
3.6726e-10
6.02353e-10
-2.77892e-11
-1.30904e-10
-2.78156e-11
4.18262e-10
2.39077e-11
3.92791e-11
4.50311e-11
-7.59128e-12
-1.00627e-10
-1.68743e-10
8.55096e-13
2.28504e-12
1.13516e-10
5.20866e-11
1.48892e-09
1.85735e-11
-2.67362e-11
-2.83081e-10
-2.74415e-10
-4.71006e-10
-4.51669e-10
1.47002e-09
2.1681e-11
-2.71519e-12
1.45834e-09
1.10732e-11
4.33877e-13
1.45137e-09
7.11704e-12
-1.39282e-13
1.44706e-09
4.25438e-12
-1.7171e-13
1.44421e-09
2.53572e-12
8.88478e-13
1.44271e-09
1.588e-12
-6.65686e-15
1.44161e-09
9.49393e-13
6.46452e-15
1.44092e-09
5.59803e-13
-1.55827e-14
1.44052e-09
3.59532e-13
-5.14322e-14
1.44042e-09
-3.11051e-13
6.59479e-13
1.44047e-09
1.47011e-13
-3.25032e-13
1.4401e-09
2.10304e-13
6.11008e-13
1.43982e-09
3.45614e-13
4.90648e-14
1.43975e-09
4.38722e-13
-4.44526e-13
1.43999e-09
8.53199e-14
-2.92625e-13
1.43946e-09
-3.00054e-13
8.62897e-13
1.43981e-09
-3.33166e-13
-4.26016e-14
1.44004e-09
2.30745e-13
-9.68742e-13
1.43969e-09
-1.57465e-13
3.09991e-13
1.43968e-09
-1.17838e-13
-4.27332e-13
1.43972e-09
-5.31891e-14
-8.61109e-15
1.43994e-09
-1.20107e-13
-2.43768e-14
1.43991e-09
-6.74199e-14
-2.34608e-14
1.43984e-09
-6.49759e-14
2.31687e-13
1.43999e-09
-1.62853e-13
1.19588e-13
1.43991e-09
-1.62731e-13
1.91337e-13
1.43995e-09
-1.98393e-13
-7.69046e-14
1.43986e-09
-1.55396e-13
9.80991e-14
1.44005e-09
6.74447e-14
-9.78039e-13
1.4397e-09
2.0919e-13
-3.50209e-13
1.43979e-09
2.85299e-13
-1.75823e-13
1.44084e-09
-1.5249e-12
7.22254e-13
1.44077e-09
1.93537e-13
3.04551e-13
1.43978e-09
1.39584e-13
-1.18308e-12
1.43996e-09
-1.06181e-15
-5.62841e-15
1.43971e-09
2.23581e-13
-2.48822e-13
1.4394e-09
1.43522e-13
-4.41571e-13
1.43947e-09
-2.27941e-13
-5.90717e-14
1.4392e-09
3.74149e-13
3.15166e-12
1.44047e-09
-7.32567e-13
-2.43268e-12
1.44065e-09
-5.71641e-13
-6.47133e-13
-8.74583e-14
7.87938e-14
1.46244e-09
-4.88686e-11
-4.08315e-11
1.48609e-09
-2.57317e-11
-3.60679e-12
1.54142e-09
-1.29556e-10
5.15351e-12
2.15134e-10
-3.58802e-11
9.93715e-11
3.10595e-10
4.36381e-10
5.61135e-10
6.92983e-11
-3.49509e-12
-2.30471e-11
1.72377e-10
5.43243e-11
6.4201e-11
-7.83144e-12
-2.05669e-11
-9.0127e-11
-3.60236e-11
-1.51979e-11
-3.60175e-13
2.80115e-11
2.35702e-11
1.46559e-09
4.4327e-11
-3.3482e-11
-2.43608e-10
-2.95585e-10
-4.03821e-10
-5.14853e-10
1.45757e-09
3.0902e-11
-1.18631e-12
1.45056e-09
1.79295e-11
1.47467e-13
1.44666e-09
1.10686e-11
-5.69583e-14
1.44416e-09
6.7636e-12
3.5499e-15
1.44254e-09
4.1567e-12
-1.53723e-14
1.44157e-09
2.56427e-12
-4.01525e-16
1.44096e-09
1.55193e-12
-1.92282e-15
1.44058e-09
9.44494e-13
-1.37089e-14
1.44039e-09
5.44583e-13
1.02527e-14
1.4402e-09
5.42908e-13
-6.70657e-13
1.44e-09
-8.61981e-13
1.20375e-12
1.43983e-09
2.005e-13
1.86022e-13
1.43987e-09
3.22547e-13
-2.53264e-14
1.43995e-09
7.78827e-15
3.49628e-13
1.4397e-09
7.42482e-14
2.60377e-13
1.44001e-09
-6.13321e-14
-5.49387e-13
1.4396e-09
1.20469e-13
-4.56486e-14
1.43984e-09
8.55547e-15
-1.93444e-14
1.4399e-09
7.9063e-14
-3.00617e-13
1.4398e-09
-1.09721e-13
9.07958e-14
1.43998e-09
-2.23941e-13
-1.71506e-15
1.43995e-09
-5.88033e-14
-2.56383e-14
1.4398e-09
2.85962e-13
-1.97174e-13
1.43976e-09
4.09195e-14
-7.06184e-14
1.43978e-09
-1.72875e-14
-1.57282e-13
1.43977e-09
-1.0071e-13
-4.48199e-14
1.43974e-09
-1.37585e-13
-1.99332e-14
1.43974e-09
-9.5278e-14
-5.69168e-14
1.4401e-09
-2.40229e-13
-5.0575e-14
1.44041e-09
-6.15456e-13
5.19361e-13
1.44061e-09
-8.69194e-14
1.79193e-13
1.44014e-09
2.73747e-13
-1.32933e-12
1.44086e-09
-8.62968e-13
3.45906e-13
1.43944e-09
1.25392e-12
3.05821e-13
1.43964e-09
4.07648e-13
-6.09768e-13
1.43991e-09
-1.39984e-13
9.5879e-14
1.43918e-09
1.03978e-13
7.73829e-13
1.43894e-09
1.37978e-13
-1.24971e-13
1.43852e-09
6.96256e-13
1.02479e-13
1.44157e-09
-3.41048e-12
-3.69794e-13
1.44145e-09
-4.78778e-13
3.25399e-14
1.05353e-12
8.04846e-13
1.47369e-09
-5.41461e-11
-7.95287e-11
1.43338e-09
-2.19799e-11
3.65619e-11
1.49337e-09
-1.79542e-10
-9.99483e-12
1.83233e-10
2.96708e-11
1.30154e-10
2.57317e-10
3.47063e-10
5.1005e-10
4.08312e-11
4.62309e-11
-5.29162e-11
1.49087e-10
2.35091e-11
-6.28985e-12
-1.62863e-11
-4.62854e-11
4.53528e-11
-4.68181e-11
-1.01036e-11
9.08126e-12
2.04366e-11
2.74038e-11
1.4286e-09
4.01916e-11
-3.50106e-11
-2.56926e-10
-2.54346e-10
-4.44393e-10
-4.33781e-10
1.43566e-09
2.4336e-11
-4.97667e-13
1.43787e-09
1.55739e-11
1.43884e-13
1.43904e-09
9.90998e-12
-2.17429e-14
1.43952e-09
6.27038e-12
1.66914e-14
1.43974e-09
3.93478e-12
-4.91667e-15
1.43981e-09
2.49372e-12
-2.20661e-15
1.43987e-09
1.4802e-12
8.82404e-15
1.43988e-09
9.23791e-13
1.14012e-14
1.43992e-09
1.42486e-12
-9.22687e-13
1.44003e-09
1.36749e-13
2.89591e-13
1.4397e-09
6.98588e-13
-1.22619e-12
1.43975e-09
-5.52105e-13
7.05866e-13
1.43997e-09
1.04058e-13
-8.04477e-15
1.43967e-09
2.98819e-13
1.58587e-15
1.43995e-09
-1.86623e-13
-2.06381e-14
1.43972e-09
1.53535e-13
1.47844e-14
1.4399e-09
-4.95217e-14
-7.07688e-15
1.43999e-09
-6.59983e-14
-2.24406e-14
1.43993e-09
2.82889e-13
-1.45878e-13
1.43995e-09
-2.42931e-14
-1.06615e-13
1.43999e-09
-3.82075e-13
1.23296e-13
1.43978e-09
1.04045e-13
5.32348e-14
1.43966e-09
1.55489e-13
2.52285e-13
1.4397e-09
5.30413e-14
-4.0197e-14
1.43976e-09
2.55524e-14
-1.04576e-13
1.43962e-09
7.53848e-14
-2.39012e-14
1.4396e-09
-9.47894e-14
-2.42503e-14
1.44009e-09
-6.57463e-13
7.67585e-14
1.4402e-09
-6.13563e-13
2.70344e-13
1.44029e-09
-2.11027e-13
-4.85422e-13
1.44033e-09
-7.98856e-14
-4.45836e-14
1.43977e-09
-5.52308e-13
1.39076e-12
1.43939e-09
-2.03106e-13
-2.81712e-13
1.44073e-09
2.93378e-13
-3.70425e-13
1.43994e-09
5.91641e-13
6.06622e-13
1.43961e-09
1.41075e-13
5.5005e-14
1.44002e-09
1.82318e-13
-4.90066e-13
1.4395e-09
6.55346e-13
5.26832e-15
1.43921e-09
9.68588e-13
2.2541e-14
1.43901e-09
-2.91676e-12
-2.86625e-13
1.44128e-09
-3.01407e-12
2.61774e-13
5.78143e-13
-8.40714e-13
1.45238e-09
-2.49412e-11
-9.2694e-11
1.40559e-09
2.75228e-11
-2.7146e-12
1.36129e-09
-1.40427e-10
5.18525e-12
1.02832e-10
1.77049e-10
1.95256e-10
2.6532e-10
1.35643e-10
5.14864e-10
8.02396e-11
1.39246e-10
-8.06452e-11
-3.6007e-11
-1.55763e-11
-5.35705e-11
1.72376e-10
-2.20227e-11
-8.12068e-11
-4.61252e-11
-3.22556e-12
2.06647e-10
1.82835e-11
2.74705e-12
-2.972e-11
-9.47458e-11
-5.38615e-11
1.40327e-09
1.10552e-11
-3.18104e-11
-2.54422e-10
-2.42724e-10
-4.36444e-10
-4.0874e-10
1.41949e-09
8.81511e-12
-7.00367e-13
1.42775e-09
7.08243e-12
2.28631e-13
1.43268e-09
4.99192e-12
-2.93465e-15
1.4355e-09
3.41078e-12
2.43765e-14
1.43716e-09
2.24841e-12
2.84609e-14
1.43821e-09
1.46063e-12
-1.30603e-14
1.43878e-09
8.91252e-13
1.78546e-14
1.43926e-09
-9.845e-15
4.55854e-13
1.43933e-09
4.34904e-13
9.12507e-13
1.43946e-09
-6.76081e-14
7.17223e-14
1.43986e-09
3.36203e-13
-3.77824e-14
1.43983e-09
2.66028e-13
-7.88902e-13
1.43984e-09
2.20236e-14
7.07832e-14
1.44002e-09
-2.77653e-13
3.88813e-13
1.43989e-09
-7.05426e-14
1.08366e-14
1.43978e-09
2.47357e-13
2.25188e-14
1.43986e-09
-3.98921e-13
2.63447e-13
1.43981e-09
6.10503e-15
-2.31908e-14
1.43996e-09
-6.20782e-14
1.87939e-13
1.44e-09
6.6617e-15
-7.11573e-14
1.43967e-09
7.27288e-14
-1.15689e-13
1.43971e-09
8.02067e-14
-7.31837e-15
1.43977e-09
8.8055e-14
8.3122e-15
1.43974e-09
5.98079e-14
3.24042e-14
1.43983e-09
-1.24298e-13
6.43977e-14
1.43939e-09
2.07898e-13
3.08741e-13
1.43874e-09
9.10059e-13
-3.52616e-13
1.44e-09
-9.87788e-13
-9.27548e-13
1.44069e-09
-2.86213e-12
1.56397e-12
1.44036e-09
1.63977e-13
-3.86464e-14
1.44013e-09
8.8571e-14
6.84696e-14
1.4404e-09
-9.74216e-14
-7.25094e-13
1.44019e-09
-2.58117e-14
3.71641e-14
1.44033e-09
1.75635e-14
1.44129e-13
1.43975e-09
1.54475e-12
-3.66527e-13
1.44024e-09
2.94513e-13
-6.47163e-13
1.44013e-09
3.79683e-13
-8.67897e-14
1.44033e-09
9.75481e-13
-5.06657e-13
1.44114e-09
1.59966e-13
-3.38265e-15
1.43797e-09
-2.57742e-13
5.13709e-13
1.44012e-09
-4.70708e-12
-4.58699e-13
8.96079e-13
2.67161e-15
1.42743e-09
-5.5176e-11
1.43334e-09
2.86863e-11
1.36146e-09
-8.53526e-11
1.84846e-10
3.92551e-11
3.48211e-10
2.63744e-10
7.31227e-10
4.39877e-11
-6.88885e-11
7.14339e-11
3.41182e-11
2.68882e-11
3.43614e-11
4.29437e-11
9.61936e-11
1.60016e-10
7.76693e-11
-1.55828e-10
-1.78051e-10
-3.15992e-11
3.11935e-12
1.92012e-10
-1.86199e-11
-5.13608e-12
-2.93471e-11
-5.78027e-11
-5.26261e-11
1.40967e-09
-3.24708e-11
-2.46838e-10
-2.59556e-10
-4.15804e-10
-4.44835e-10
1.41893e-09
-1.10086e-12
1.4255e-09
1.6574e-13
1.43035e-09
-6.38671e-14
1.43354e-09
-2.82744e-13
1.43612e-09
-8.5233e-14
1.43736e-09
-3.20657e-14
1.43824e-09
-1.16716e-13
1.43876e-09
-4.688e-13
1.43924e-09
1.23644e-14
1.43933e-09
-2.42723e-13
1.43959e-09
6.88495e-15
1.43994e-09
1.09935e-13
1.43991e-09
-2.26291e-13
1.43987e-09
-2.1249e-13
1.43984e-09
2.01207e-13
1.44021e-09
-1.82833e-15
1.44e-09
-2.7639e-13
1.43971e-09
6.52394e-14
1.43972e-09
-1.66686e-15
1.43979e-09
-6.81137e-14
1.43962e-09
2.50853e-14
1.43972e-09
1.47942e-15
1.43996e-09
-4.43954e-14
1.44008e-09
-3.27308e-14
1.44013e-09
2.1219e-16
1.43969e-09
-1.14147e-12
1.43956e-09
3.52324e-13
1.44031e-09
-9.18642e-13
1.4395e-09
-3.45115e-13
1.43998e-09
5.98563e-13
1.44014e-09
3.61773e-13
1.44005e-09
4.36308e-14
1.44068e-09
-3.09095e-13
1.44123e-09
-1.07175e-13
1.43924e-09
9.40197e-13
1.43914e-09
6.97656e-13
1.43993e-09
-1.28831e-13
1.4407e-09
8.15726e-13
1.44102e-09
1.34e-13
1.4414e-09
-5.97197e-15
1.43741e-09
1.06516e-13
1.34978e-13
2.29893e-09
3.65004e-11
7.21263e-11
2.40798e-09
-7.83224e-11
-1.24891e-11
2.15808e-09
2.10614e-10
9.30517e-11
9.0643e-10
-3.50804e-10
9.46721e-11
3.32433e-10
9.4199e-10
5.23469e-10
6.9131e-11
6.75907e-11
7.79876e-11
2.22385e-10
1.10986e-10
2.00148e-10
1.79503e-10
-6.68247e-11
-3.34012e-10
2.44064e-10
2.4912e-11
1.41372e-10
-1.72989e-10
9.67396e-12
6.45151e-10
5.25611e-11
-1.18573e-13
-1.72429e-10
-1.80018e-10
-1.79389e-10
2.34923e-09
-1.93589e-11
3.23429e-11
-6.17941e-10
-5.78389e-10
-6.1794e-10
-5.78388e-10
2.36254e-09
-1.41544e-11
1.06261e-12
2.37504e-09
-1.14306e-11
-1.90593e-13
2.38342e-09
-8.04477e-12
6.40375e-14
2.38921e-09
-5.47381e-12
4.68635e-13
2.39265e-09
-3.72632e-12
-1.94864e-14
2.39516e-09
-2.30618e-12
-1.26463e-13
2.39668e-09
-1.41105e-12
-8.31188e-14
2.39784e-09
-1.66448e-12
7.93435e-13
2.39829e-09
-4.44678e-13
-1.10809e-13
2.39871e-09
-2.26331e-13
-4.68253e-14
2.39959e-09
-8.85031e-13
7.01789e-14
2.39932e-09
-1.08491e-15
4.72093e-15
2.39947e-09
-4.34259e-14
-2.59903e-13
2.39957e-09
5.07502e-14
1.91928e-13
2.39975e-09
-8.04027e-13
1.54537e-13
2.39974e-09
-1.2488e-13
1.24898e-14
2.39968e-09
1.79984e-13
-1.24793e-14
2.39971e-09
2.45462e-13
8.16433e-15
2.39941e-09
1.98806e-13
-4.92131e-14
2.39936e-09
-2.3642e-14
1.51789e-14
2.39994e-09
-3.33695e-13
1.19893e-14
2.3997e-09
3.22728e-13
1.08611e-14
2.39979e-09
-2.97797e-13
2.12349e-14
2.39976e-09
-6.12085e-14
1.93511e-14
2.39969e-09
-5.12856e-13
2.33394e-13
2.40096e-09
-1.04543e-14
3.48056e-13
2.40163e-09
2.47683e-13
4.95049e-14
2.39846e-09
-5.4546e-13
-1.18979e-12
2.39849e-09
-2.02775e-13
4.71658e-13
2.39845e-09
7.48717e-13
5.37976e-14
2.3995e-09
-5.47652e-12
2.31807e-12
2.40011e-09
8.92306e-13
-6.88321e-13
2.39915e-09
1.07624e-13
1.84541e-15
2.39907e-09
-5.04038e-13
5.52142e-15
2.39995e-09
3.6776e-12
-7.81084e-13
2.40039e-09
-1.90867e-12
-1.29336e-12
2.3996e-09
-7.04794e-13
5.04496e-13
2.40054e-09
-3.9947e-12
1.45248e-12
2.40031e-09
-3.01382e-13
1.12273e-13
2.40031e-09
-8.92984e-13
8.77276e-15
2.39935e-09
-1.6682e-12
7.98986e-13
3.05288e-12
4.94704e-14
2.32315e-09
6.86478e-11
5.17479e-11
2.30657e-09
-1.27496e-11
-2.25285e-11
2.25799e-09
2.09182e-10
5.22447e-11
7.66203e-10
-1.01794e-10
-2.07564e-11
2.77424e-10
7.95002e-10
2.68208e-10
-2.54651e-11
-9.19457e-11
6.62875e-10
2.41884e-10
-2.11423e-11
-3.28412e-10
4.70799e-11
-5.22023e-11
1.40092e-10
-4.60415e-12
1.98046e-10
-1.49467e-10
4.69917e-12
-6.10201e-12
5.55834e-10
-5.175e-11
-2.49522e-12
-9.59973e-11
-1.55459e-10
-9.92615e-11
2.33831e-09
-6.91122e-11
3.2257e-11
-5.70989e-10
-6.05547e-10
-5.70991e-10
-6.05546e-10
2.36347e-09
-4.05772e-11
6.33965e-13
2.37846e-09
-2.60048e-11
-1.96852e-13
2.38691e-09
-1.64981e-11
-5.87339e-15
2.39193e-09
-1.04599e-11
-1.78926e-14
2.39487e-09
-6.69272e-12
3.69649e-14
2.39674e-09
-4.1928e-12
-8.25762e-17
2.39798e-09
-2.63608e-12
-1.28147e-14
2.39812e-09
-1.78318e-12
-1.10178e-12
2.39862e-09
-7.88475e-13
-4.2035e-13
2.39935e-09
-2.61789e-13
-3.20483e-13
2.39928e-09
-8.01556e-13
-3.28438e-14
2.39926e-09
-2.21482e-13
-8.05157e-14
2.39965e-09
-4.91514e-13
-4.80238e-13
2.39996e-09
-1.5815e-13
-6.34697e-14
2.39953e-09
1.99964e-13
-3.63577e-13
2.39927e-09
8.95972e-14
1.91455e-14
2.39958e-09
-1.73284e-13
7.73118e-15
2.39977e-09
4.19499e-14
-1.0579e-14
2.3997e-09
2.80101e-13
-3.52015e-14
2.39975e-09
-7.81218e-14
-2.50122e-15
2.39984e-09
-4.20284e-13
7.15483e-15
2.40013e-09
-6.29684e-14
-4.93915e-16
2.39994e-09
-5.10878e-15
-4.85432e-14
2.40005e-09
-4.79719e-14
-2.00717e-14
2.3999e-09
1.0202e-13
-2.75551e-13
2.39991e-09
-3.57172e-14
-5.3759e-13
2.39938e-09
9.08731e-13
-2.17052e-14
2.39991e-09
-8.36049e-13
-1.16871e-13
2.39976e-09
-2.2808e-13
7.56536e-14
2.39969e-09
-4.15654e-13
8.77076e-13
2.3993e-09
4.63553e-14
-2.52269e-12
2.39831e-09
3.00347e-13
7.82994e-13
2.39836e-09
1.09977e-13
-1.03068e-13
2.39798e-09
-7.25138e-14
-1.75415e-14
2.40138e-09
-7.04297e-13
6.95101e-13
2.40076e-09
-2.09576e-13
1.24186e-12
2.40034e-09
-5.88424e-13
1.06393e-13
2.39917e-09
-1.76373e-13
-1.33904e-12
2.3998e-09
-2.22822e-12
6.95839e-13
2.3994e-09
-4.44961e-13
-1.82079e-13
2.39936e-09
6.66695e-14
-8.98184e-13
1.15049e-12
-6.14422e-13
2.34446e-09
9.24011e-11
8.8178e-11
2.31437e-09
5.52581e-11
-6.08741e-13
2.33104e-09
2.2788e-10
-4.84231e-11
6.04303e-10
9.39526e-11
-3.77171e-11
5.52758e-10
6.16551e-10
5.61843e-10
1.04172e-10
-8.60361e-11
6.7177e-10
-5.96525e-11
-2.59499e-11
3.62589e-10
-3.56918e-11
-2.07273e-10
1.14115e-10
-8.3771e-11
-1.49968e-10
-1.99058e-10
-6.1347e-12
1.31688e-11
5.94188e-10
2.14348e-13
-6.41437e-11
-2.07338e-10
-6.50518e-11
-1.689e-11
-1.81144e-11
-1.6e-11
-1.484e-11
2.37976e-09
-7.47954e-11
3.61879e-11
-6.04655e-10
-6.18554e-10
-6.04656e-10
-6.18544e-10
2.39065e-09
-5.21672e-11
2.94579e-13
2.39524e-09
-3.03808e-11
-9.48621e-14
2.3975e-09
-1.88138e-11
1.5457e-14
2.39863e-09
-1.15543e-11
-4.15751e-15
2.39911e-09
-7.17952e-12
-6.16157e-15
2.39936e-09
-4.45779e-12
-1.09939e-15
2.3995e-09
-2.76957e-12
7.51568e-16
2.3998e-09
-1.69018e-12
2.608e-13
2.39998e-09
-1.1994e-12
5.8468e-13
2.3998e-09
-1.03603e-12
-3.25978e-13
2.39914e-09
5.20231e-13
-1.18197e-12
2.39944e-09
-2.91604e-13
1.80599e-13
2.39949e-09
-4.85859e-13
4.42073e-13
2.39925e-09
1.17561e-13
-1.96521e-14
2.39955e-09
-1.39941e-13
6.41298e-14
2.39962e-09
3.36246e-14
1.56468e-13
2.39956e-09
-2.23959e-13
7.39437e-14
2.3996e-09
2.19376e-15
1.34643e-14
2.40008e-09
-4.57273e-13
-1.19048e-13
2.40017e-09
-1.7452e-13
1.16483e-14
2.39965e-09
1.59121e-13
-3.04482e-14
2.39966e-09
4.19256e-14
-5.43899e-14
2.39965e-09
6.68905e-14
-2.27521e-14
2.39958e-09
5.41563e-14
-3.07395e-14
2.39977e-09
-2.71784e-13
2.19888e-13
2.39986e-09
-4.99352e-13
6.61318e-13
2.40075e-09
-6.31698e-13
1.30543e-13
2.39935e-09
-9.11598e-13
-7.18397e-15
2.39962e-09
-2.11499e-13
-1.82022e-13
2.39974e-09
-5.12464e-13
-2.18667e-14
2.39964e-09
-4.97992e-13
2.06683e-13
2.39814e-09
2.77176e-12
1.31797e-12
2.39893e-09
-5.15909e-13
-7.60739e-14
2.39888e-09
5.35797e-13
3.63095e-13
2.39878e-09
-2.98526e-12
1.21397e-12
2.40077e-09
-1.48814e-12
-2.64976e-13
2.40101e-09
2.7157e-13
-5.75872e-13
2.4002e-09
1.20661e-13
3.56869e-13
2.39965e-09
-2.89019e-13
-7.49819e-13
2.39918e-09
9.90034e-15
1.64537e-13
2.39964e-09
-4.86257e-13
7.40789e-14
9.74115e-14
-7.29774e-13
2.37068e-09
6.24295e-11
6.9937e-11
2.43572e-09
3.44481e-11
-1.57322e-11
2.4366e-09
1.91867e-10
2.58775e-11
7.59607e-10
-1.94361e-11
-3.64697e-11
5.46706e-10
7.78256e-10
5.69877e-10
8.60729e-11
-5.7042e-11
7.77836e-10
1.27405e-10
-1.74666e-10
1.22564e-10
-3.27808e-11
-1.45274e-10
1.16585e-10
9.70116e-11
-1.58106e-10
-2.84067e-10
-3.88894e-11
4.91433e-11
8.26265e-12
3.90971e-11
2.26453e-10
2.44426e-09
-3.05447e-11
3.59139e-11
-7.14311e-10
-5.65839e-10
-7.1431e-10
-5.65855e-10
2.42807e-09
-3.7472e-11
7.5366e-13
2.41717e-09
-1.92773e-11
-9.0618e-14
2.41055e-09
-1.22779e-11
3.92607e-14
2.40648e-09
-7.46456e-12
-1.30206e-14
2.40397e-09
-4.70102e-12
1.30737e-14
2.40237e-09
-2.85128e-12
6.42701e-15
2.40141e-09
-1.80147e-12
-1.10257e-14
2.40081e-09
-1.09468e-12
7.9288e-16
2.40032e-09
-1.23324e-12
1.34715e-13
2.39977e-09
-1.88864e-13
6.40893e-13
2.40002e-09
4.05121e-13
7.94688e-13
2.39999e-09
-3.87597e-13
-6.14008e-14
2.39961e-09
-6.65275e-14
1.9315e-14
2.39967e-09
-7.35998e-14
-4.30039e-14
2.39946e-09
6.47685e-13
-2.74524e-13
2.39986e-09
-1.20796e-12
1.53456e-13
2.39959e-09
1.14388e-13
-2.31162e-14
2.39968e-09
1.85356e-13
-1.93451e-13
2.39992e-09
-4.3734e-13
1.07486e-13
2.39966e-09
9.76086e-14
-1.28381e-14
2.3995e-09
3.42493e-13
-1.7732e-14
2.39951e-09
4.75547e-14
1.62709e-14
2.39958e-09
-1.9718e-14
1.53698e-14
2.39979e-09
-3.93126e-13
1.2459e-13
2.39957e-09
1.42524e-12
-8.0193e-13
2.39975e-09
-3.29653e-13
-6.32838e-13
2.39958e-09
1.4479e-13
-7.97152e-14
2.40019e-09
-3.78282e-13
1.45033e-13
2.39984e-09
5.85824e-13
-2.29897e-13
2.39953e-09
1.5994e-13
-2.03243e-13
2.39909e-09
-1.36431e-12
-1.08482e-12
2.39997e-09
-1.18863e-12
-2.59677e-13
2.39927e-09
-1.17443e-13
1.89414e-13
2.39959e-09
-1.28426e-12
1.06508e-13
2.3991e-09
5.21188e-13
-1.55817e-12
2.40048e-09
-4.38876e-12
3.91757e-13
2.39985e-09
7.71381e-13
7.90524e-14
2.40014e-09
2.40544e-13
-2.77201e-13
2.39968e-09
1.31684e-13
1.66935e-15
2.39964e-09
1.93324e-13
-1.03211e-14
2.39902e-09
9.90128e-14
-5.26939e-14
-2.24602e-12
9.0755e-13
2.41321e-09
2.35928e-11
7.28055e-11
2.44998e-09
2.17044e-11
-1.08295e-11
2.56988e-09
7.33378e-11
2.67183e-11
6.15085e-10
2.97397e-11
3.68182e-11
6.60441e-10
6.90037e-10
6.47431e-10
1.16325e-10
-1.37266e-10
6.40226e-10
1.78425e-10
-1.82622e-10
3.96975e-10
-5.75897e-11
-1.96097e-10
3.24349e-10
9.97674e-11
-5.67404e-10
-7.9981e-11
-8.88324e-11
3.53684e-11
-3.63641e-11
3.26131e-11
1.37196e-10
2.49208e-09
1.02001e-12
2.59917e-11
-6.26617e-10
-6.61273e-10
-6.26601e-10
-6.61219e-10
2.44922e-09
-1.3579e-13
2.75198e-12
2.43128e-09
1.89099e-13
-1.02772e-12
2.41881e-09
-8.82671e-14
1.04889e-13
2.41146e-09
2.99294e-13
-2.07542e-13
2.40719e-09
-2.14078e-12
8.30252e-13
2.4042e-09
8.61464e-14
1.20322e-14
2.40262e-09
-2.08073e-13
2.51026e-15
2.40172e-09
-1.84795e-13
-4.38082e-15
2.40109e-09
2.7665e-14
-1.71048e-13
2.40042e-09
7.11521e-13
-3.65022e-13
2.39981e-09
1.59656e-13
7.70643e-13
2.39998e-09
-2.31874e-12
9.26488e-13
2.3998e-09
9.53937e-14
-3.38116e-14
2.3997e-09
3.49727e-13
-1.00815e-13
2.39985e-09
3.9875e-14
1.88048e-13
2.39972e-09
2.60613e-14
-6.83067e-13
2.39989e-09
1.27348e-15
-1.52074e-14
2.3992e-09
2.56834e-12
-8.19679e-13
2.3991e-09
-3.13672e-13
-5.73496e-14
2.3993e-09
1.23717e-13
1.75531e-13
2.3996e-09
-4.06178e-14
6.21539e-14
2.39958e-09
7.86685e-14
-8.14028e-15
2.39968e-09
-1.68021e-13
8.45304e-15
2.39948e-09
-3.39321e-13
1.21094e-13
2.39966e-09
1.44119e-13
3.44421e-13
2.39936e-09
-1.35928e-13
6.55645e-14
2.39983e-09
-3.16058e-13
-2.35826e-14
2.39968e-09
-1.89933e-13