/*--------------------------------*- C++ -*----------------------------------*\
| =========                 |                                                 |
| \\      /  F ield         | OpenFOAM: The Open Source CFD Toolbox           |
|  \\    /   O peration     | Version:  5.0                                   |
|   \\  /    A nd           | Web:      www.OpenFOAM.org                      |
|    \\/     M anipulation  |                                                 |
\*---------------------------------------------------------------------------*/
FoamFile
{
    version     2.0;
    format      ascii;
    class       volScalarField;
    location    "0.1";
    object      rAU;
}
// * * * * * * * * * * * * * * * * * * * * * * * * * * * * * * * * * * * * * //

dimensions      [-1 3 1 0 0 0 0];

internalField   nonuniform List<scalar> 
4398
(
9.73293e-07
9.7346e-07
9.73558e-07
9.73631e-07
9.02549e-07
4.36294e-08
1.29268e-07
3.9242e-07
3.93663e-07
3.94696e-07
3.9573e-07
3.96762e-07
3.97794e-07
3.98825e-07
3.99856e-07
4.00885e-07
4.01915e-07
4.02943e-07
4.03971e-07
4.04998e-07
4.06024e-07
4.07049e-07
4.08074e-07
4.09098e-07
4.10121e-07
4.11144e-07
4.12166e-07
4.13187e-07
4.14207e-07
4.15227e-07
4.16245e-07
4.17264e-07
4.18281e-07
4.19297e-07
4.20313e-07
4.21327e-07
4.22341e-07
4.23355e-07
4.24367e-07
4.25378e-07
4.26389e-07
4.27399e-07
4.28408e-07
4.29417e-07
4.30424e-07
4.31431e-07
4.32437e-07
4.33442e-07
4.34445e-07
4.36221e-07
9.73282e-07
9.73454e-07
9.73526e-07
9.73568e-07
9.03075e-07
6.88415e-07
1.29269e-07
3.9242e-07
3.93663e-07
3.94696e-07
3.9573e-07
3.96762e-07
3.97794e-07
3.98825e-07
3.99856e-07
4.00885e-07
4.01915e-07
4.02943e-07
4.03971e-07
4.04998e-07
4.06024e-07
4.07049e-07
4.08074e-07
4.09098e-07
4.10121e-07
4.11144e-07
4.12166e-07
4.13187e-07
4.14207e-07
4.15227e-07
4.16245e-07
4.17264e-07
4.18281e-07
4.19297e-07
4.20313e-07
4.21327e-07
4.22341e-07
4.23355e-07
4.24367e-07
4.25378e-07
4.2639e-07
4.27399e-07
4.28408e-07
4.29417e-07
4.30424e-07
4.31431e-07
4.32437e-07
4.33442e-07
4.34445e-07
4.36221e-07
9.73279e-07
9.73433e-07
9.73552e-07
9.7366e-07
9.03048e-07
6.99926e-07
1.29215e-07
3.92419e-07
3.93662e-07
3.94696e-07
3.9573e-07
3.96762e-07
3.97794e-07
3.98825e-07
3.99856e-07
4.00885e-07
4.01915e-07
4.02943e-07
4.03971e-07
4.04998e-07
4.06024e-07
4.07049e-07
4.08074e-07
4.09098e-07
4.10121e-07
4.11144e-07
4.12166e-07
4.13187e-07
4.14207e-07
4.15227e-07
4.16245e-07
4.17264e-07
4.18281e-07
4.19297e-07
4.20313e-07
4.21327e-07
4.22341e-07
4.23355e-07
4.24367e-07
4.25378e-07
4.2639e-07
4.27399e-07
4.28408e-07
4.29417e-07
4.30424e-07
4.31431e-07
4.32437e-07
4.33442e-07
4.34445e-07
4.36221e-07
9.7329e-07
9.73445e-07
9.73535e-07
9.73615e-07
9.0296e-07
6.92853e-07
3.5168e-08
3.92418e-07
3.93661e-07
3.94696e-07
3.95729e-07
3.96762e-07
3.97794e-07
3.98825e-07
3.99856e-07
4.00885e-07
4.01915e-07
4.02943e-07
4.03971e-07
4.04998e-07
4.06024e-07
4.07049e-07
4.08074e-07
4.09098e-07
4.10121e-07
4.11144e-07
4.12166e-07
4.13187e-07
4.14207e-07
4.15227e-07
4.16245e-07
4.17264e-07
4.1828e-07
4.19297e-07
4.20313e-07
4.21327e-07
4.22341e-07
4.23355e-07
4.24367e-07
4.25378e-07
4.26389e-07
4.27399e-07
4.28408e-07
4.29417e-07
4.30424e-07
4.31431e-07
4.32437e-07
4.33442e-07
4.34445e-07
4.36221e-07
9.73289e-07
9.73451e-07
9.73538e-07
9.73618e-07
9.02639e-07
6.98535e-07
4.09818e-08
3.92418e-07
3.93661e-07
3.94696e-07
3.95729e-07
3.96762e-07
3.97794e-07
3.98825e-07
3.99856e-07
4.00885e-07
4.01915e-07
4.02943e-07
4.03971e-07
4.04998e-07
4.06024e-07
4.07049e-07
4.08074e-07
4.09098e-07
4.10121e-07
4.11144e-07
4.12166e-07
4.13187e-07
4.14207e-07
4.15227e-07
4.16245e-07
4.17264e-07
4.1828e-07
4.19297e-07
4.20313e-07
4.21327e-07
4.22341e-07
4.23355e-07
4.24367e-07
4.25378e-07
4.26389e-07
4.27399e-07
4.28408e-07
4.29417e-07
4.30424e-07
4.31431e-07
4.32437e-07
4.33442e-07
4.34445e-07
4.36221e-07
9.73282e-07
9.7345e-07
9.73525e-07
9.73541e-07
9.02411e-07
7.00664e-07
4.1455e-08
3.92418e-07
3.93661e-07
3.94696e-07
3.95729e-07
3.96762e-07
3.97794e-07
3.98825e-07
3.99856e-07
4.00885e-07
4.01915e-07
4.02943e-07
4.03971e-07
4.04998e-07
4.06024e-07
4.07049e-07
4.08074e-07
4.09098e-07
4.10121e-07
4.11144e-07
4.12166e-07
4.13187e-07
4.14207e-07
4.15227e-07
4.16245e-07
4.17264e-07
4.1828e-07
4.19297e-07
4.20313e-07
4.21327e-07
4.22341e-07
4.23355e-07
4.24367e-07
4.25378e-07
4.26389e-07
4.27399e-07
4.28408e-07
4.29417e-07
4.30424e-07
4.31431e-07
4.32437e-07
4.33441e-07
4.34445e-07
4.36221e-07
9.73295e-07
9.73419e-07
9.7354e-07
9.73613e-07
9.02781e-07
6.92431e-07
3.72932e-08
3.92418e-07
3.93662e-07
3.94696e-07
3.95729e-07
3.96762e-07
3.97794e-07
3.98825e-07
3.99856e-07
4.00885e-07
4.01915e-07
4.02943e-07
4.0397e-07
4.04998e-07
4.06024e-07
4.07049e-07
4.08074e-07
4.09098e-07
4.10121e-07
4.11144e-07
4.12166e-07
4.13187e-07
4.14207e-07
4.15227e-07
4.16245e-07
4.17264e-07
4.18281e-07
4.19297e-07
4.20313e-07
4.21327e-07
4.22341e-07
4.23355e-07
4.24367e-07
4.25378e-07
4.26389e-07
4.27399e-07
4.28408e-07
4.29417e-07
4.30424e-07
4.31431e-07
4.32437e-07
4.33442e-07
4.34445e-07
4.36221e-07
9.73273e-07
9.73433e-07
9.73536e-07
9.73633e-07
9.02797e-07
6.97472e-07
3.51572e-08
3.92419e-07
3.93662e-07
3.94696e-07
3.9573e-07
3.96762e-07
3.97794e-07
3.98825e-07
3.99856e-07
4.00885e-07
4.01915e-07
4.02943e-07
4.0397e-07
4.04998e-07
4.06024e-07
4.07049e-07
4.08074e-07
4.09098e-07
4.10121e-07
4.11144e-07
4.12166e-07
4.13187e-07
4.14207e-07
4.15227e-07
4.16245e-07
4.17264e-07
4.18281e-07
4.19297e-07
4.20313e-07
4.21327e-07
4.22341e-07
4.23355e-07
4.24367e-07
4.25378e-07
4.26389e-07
4.27399e-07
4.28408e-07
4.29417e-07
4.30424e-07
4.31431e-07
4.32437e-07
4.33442e-07
4.34445e-07
4.36221e-07
9.73257e-07
9.73445e-07
9.73536e-07
9.73602e-07
9.03169e-07
7.00359e-07
1.29268e-07
3.9242e-07
3.93663e-07
3.94696e-07
3.9573e-07
3.96762e-07
3.97794e-07
3.98825e-07
3.99856e-07
4.00885e-07
4.01915e-07
4.02943e-07
4.03971e-07
4.04998e-07
4.06024e-07
4.07049e-07
4.08074e-07
4.09098e-07
4.10121e-07
4.11144e-07
4.12166e-07
4.13187e-07
4.14207e-07
4.15227e-07
4.16245e-07
4.17264e-07
4.18281e-07
4.19297e-07
4.20313e-07
4.21327e-07
4.22341e-07
4.23355e-07
4.24367e-07
4.25378e-07
4.26389e-07
4.27399e-07
4.28408e-07
4.29417e-07
4.30424e-07
4.31431e-07
4.32437e-07
4.33442e-07
4.34445e-07
4.36221e-07
9.73297e-07
9.73461e-07
9.73551e-07
9.73619e-07
9.01677e-07
3.60276e-07
1.29269e-07
3.9242e-07
3.93663e-07
3.94696e-07
3.9573e-07
3.96762e-07
3.97794e-07
3.98825e-07
3.99856e-07
4.00885e-07
4.01915e-07
4.02943e-07
4.03971e-07
4.04998e-07
4.06024e-07
4.07049e-07
4.08074e-07
4.09098e-07
4.10121e-07
4.11144e-07
4.12166e-07
4.13187e-07
4.14207e-07
4.15227e-07
4.16245e-07
4.17264e-07
4.18281e-07
4.19297e-07
4.20313e-07
4.21327e-07
4.22341e-07
4.23355e-07
4.24367e-07
4.25378e-07
4.26389e-07
4.27399e-07
4.28408e-07
4.29417e-07
4.30424e-07
4.31431e-07
4.32437e-07
4.33442e-07
4.34445e-07
4.36221e-07
9.81727e-07
9.8187e-07
9.81925e-07
9.81907e-07
9.31298e-07
6.46851e-08
1.83339e-07
5.04897e-07
5.06386e-07
5.07526e-07
5.08664e-07
5.09801e-07
5.10937e-07
5.1207e-07
5.13202e-07
5.14333e-07
5.15461e-07
5.16589e-07
5.17715e-07
5.18839e-07
5.19961e-07
5.21083e-07
5.22201e-07
5.23319e-07
5.24435e-07
5.25549e-07
5.26662e-07
5.27774e-07
5.28882e-07
5.2999e-07
5.31097e-07
5.32201e-07
5.33304e-07
5.34405e-07
5.35504e-07
5.36602e-07
5.37699e-07
5.38793e-07
5.39886e-07
5.40978e-07
5.42067e-07
5.43155e-07
5.44241e-07
5.45325e-07
5.46409e-07
5.4749e-07
5.48569e-07
5.49647e-07
5.50724e-07
5.53038e-07
9.81701e-07
9.81869e-07
9.81915e-07
9.81968e-07
9.31997e-07
7.61672e-07
1.83344e-07
5.04897e-07
5.06385e-07
5.07526e-07
5.08663e-07
5.09801e-07
5.10936e-07
5.1207e-07
5.13202e-07
5.14333e-07
5.15461e-07
5.16589e-07
5.17715e-07
5.18839e-07
5.19961e-07
5.21083e-07
5.22201e-07
5.23319e-07
5.24435e-07
5.25549e-07
5.26662e-07
5.27774e-07
5.28882e-07
5.2999e-07
5.31097e-07
5.32201e-07
5.33304e-07
5.34405e-07
5.35504e-07
5.36603e-07
5.37699e-07
5.38793e-07
5.39886e-07
5.40978e-07
5.42067e-07
5.43155e-07
5.44241e-07
5.45325e-07
5.46408e-07
5.4749e-07
5.48569e-07
5.49647e-07
5.50724e-07
5.53038e-07
9.81713e-07
9.8187e-07
9.81912e-07
9.8197e-07
9.32351e-07
7.74714e-07
1.83236e-07
5.04894e-07
5.06384e-07
5.07525e-07
5.08663e-07
5.098e-07
5.10936e-07
5.12069e-07
5.13202e-07
5.14333e-07
5.15461e-07
5.16589e-07
5.17715e-07
5.18839e-07
5.19961e-07
5.21083e-07
5.22201e-07
5.23319e-07
5.24435e-07
5.25549e-07
5.26662e-07
5.27774e-07
5.28882e-07
5.29991e-07
5.31097e-07
5.32201e-07
5.33304e-07
5.34405e-07
5.35504e-07
5.36603e-07
5.37699e-07
5.38793e-07
5.39886e-07
5.40978e-07
5.42067e-07
5.43155e-07
5.44241e-07
5.45325e-07
5.46408e-07
5.4749e-07
5.48569e-07
5.49647e-07
5.50724e-07
5.53038e-07
9.81716e-07
9.81863e-07
9.81904e-07
9.81949e-07
9.32226e-07
7.7589e-07
5.1801e-08
5.04892e-07
5.06382e-07
5.07524e-07
5.08662e-07
5.098e-07
5.10936e-07
5.12069e-07
5.13202e-07
5.14333e-07
5.15461e-07
5.16589e-07
5.17715e-07
5.18839e-07
5.19961e-07
5.21083e-07
5.22201e-07
5.23319e-07
5.24435e-07
5.25549e-07
5.26662e-07
5.27774e-07
5.28882e-07
5.29991e-07
5.31097e-07
5.32201e-07
5.33304e-07
5.34405e-07
5.35504e-07
5.36603e-07
5.37699e-07
5.38793e-07
5.39886e-07
5.40978e-07
5.42067e-07
5.43155e-07
5.44241e-07
5.45325e-07
5.46409e-07
5.4749e-07
5.48569e-07
5.49647e-07
5.50724e-07
5.53038e-07
9.8172e-07
9.81862e-07
9.81892e-07
9.81934e-07
9.31215e-07
7.71296e-07
6.08527e-08
5.04892e-07
5.06382e-07
5.07524e-07
5.08662e-07
5.098e-07
5.10936e-07
5.12069e-07
5.13202e-07
5.14333e-07
5.15461e-07
5.16589e-07
5.17715e-07
5.18838e-07
5.19961e-07
5.21083e-07
5.22201e-07
5.23319e-07
5.24435e-07
5.25549e-07
5.26662e-07
5.27774e-07
5.28882e-07
5.29991e-07
5.31097e-07
5.32201e-07
5.33304e-07
5.34406e-07
5.35504e-07
5.36603e-07
5.37699e-07
5.38793e-07
5.39886e-07
5.40978e-07
5.42067e-07
5.43155e-07
5.44241e-07
5.45325e-07
5.46409e-07
5.4749e-07
5.48569e-07
5.49647e-07
5.50724e-07
5.53038e-07
9.81706e-07
9.81864e-07
9.81907e-07
9.81927e-07
9.31568e-07
7.64925e-07
6.17989e-08
5.04892e-07
5.06382e-07
5.07524e-07
5.08662e-07
5.098e-07
5.10936e-07
5.12069e-07
5.13202e-07
5.14333e-07
5.15461e-07
5.16589e-07
5.17715e-07
5.18838e-07
5.19961e-07
5.21083e-07
5.22201e-07
5.23319e-07
5.24435e-07
5.25549e-07
5.26662e-07
5.27774e-07
5.28882e-07
5.29991e-07
5.31097e-07
5.32201e-07
5.33304e-07
5.34405e-07
5.35504e-07
5.36603e-07
5.37699e-07
5.38793e-07
5.39886e-07
5.40978e-07
5.42067e-07
5.43155e-07
5.44241e-07
5.45325e-07
5.46409e-07
5.4749e-07
5.48569e-07
5.49647e-07
5.50724e-07
5.53038e-07
9.81719e-07
9.8185e-07
9.81902e-07
9.81912e-07
9.32044e-07
7.73347e-07
5.55553e-08
5.04892e-07
5.06382e-07
5.07524e-07
5.08662e-07
5.098e-07
5.10936e-07
5.12069e-07
5.13202e-07
5.14333e-07
5.15461e-07
5.16589e-07
5.17715e-07
5.18839e-07
5.19961e-07
5.21083e-07
5.22201e-07
5.23319e-07
5.24435e-07
5.25549e-07
5.26662e-07
5.27774e-07
5.28882e-07
5.29991e-07
5.31097e-07
5.32201e-07
5.33304e-07
5.34405e-07
5.35504e-07
5.36603e-07
5.37699e-07
5.38793e-07
5.39886e-07
5.40978e-07
5.42067e-07
5.43155e-07
5.44241e-07
5.45325e-07
5.46408e-07
5.4749e-07
5.48569e-07
5.49647e-07
5.50723e-07
5.53038e-07
9.81713e-07
9.8186e-07
9.81902e-07
9.81968e-07
9.30607e-07
7.74734e-07
5.17909e-08
5.04894e-07
5.06384e-07
5.07525e-07
5.08663e-07
5.098e-07
5.10936e-07
5.12069e-07
5.13202e-07
5.14333e-07
5.15461e-07
5.16589e-07
5.17715e-07
5.18839e-07
5.19961e-07
5.21083e-07
5.22201e-07
5.23319e-07
5.24435e-07
5.25549e-07
5.26662e-07
5.27774e-07
5.28882e-07
5.29991e-07
5.31097e-07
5.32201e-07
5.33304e-07
5.34406e-07
5.35504e-07
5.36603e-07
5.37699e-07
5.38793e-07
5.39886e-07
5.40978e-07
5.42067e-07
5.43155e-07
5.44241e-07
5.45325e-07
5.46408e-07
5.4749e-07
5.48569e-07
5.49647e-07
5.50723e-07
5.53038e-07
9.81686e-07
9.81853e-07
9.81913e-07
9.81952e-07
9.32429e-07
7.76282e-07
1.83341e-07
5.04897e-07
5.06385e-07
5.07526e-07
5.08663e-07
5.09801e-07
5.10936e-07
5.1207e-07
5.13202e-07
5.14333e-07
5.15461e-07
5.16589e-07
5.17715e-07
5.18839e-07
5.19961e-07
5.21083e-07
5.22201e-07
5.23319e-07
5.24435e-07
5.25549e-07
5.26662e-07
5.27774e-07
5.28882e-07
5.29991e-07
5.31097e-07
5.32201e-07
5.33304e-07
5.34405e-07
5.35504e-07
5.36602e-07
5.37699e-07
5.38793e-07
5.39886e-07
5.40978e-07
5.42067e-07
5.43155e-07
5.44241e-07
5.45325e-07
5.46409e-07
5.4749e-07
5.48569e-07
5.49647e-07
5.50723e-07
5.53038e-07
9.81729e-07
9.81874e-07
9.8194e-07
9.81971e-07
9.31853e-07
4.20781e-07
1.83343e-07
5.04897e-07
5.06386e-07
5.07526e-07
5.08664e-07
5.09801e-07
5.10937e-07
5.1207e-07
5.13202e-07
5.14333e-07
5.15461e-07
5.16589e-07
5.17715e-07
5.18839e-07
5.19961e-07
5.21083e-07
5.22201e-07
5.23319e-07
5.24435e-07
5.25549e-07
5.26662e-07
5.27774e-07
5.28882e-07
5.2999e-07
5.31097e-07
5.32201e-07
5.33304e-07
5.34405e-07
5.35504e-07
5.36602e-07
5.37699e-07
5.38793e-07
5.39886e-07
5.40978e-07
5.42067e-07
5.43155e-07
5.44241e-07
5.45325e-07
5.46409e-07
5.4749e-07
5.48569e-07
5.49647e-07
5.50723e-07
5.53038e-07
9.73296e-07
9.7346e-07
9.73513e-07
9.73535e-07
9.31787e-07
6.4451e-08
1.83344e-07
3.9242e-07
3.93663e-07
3.94696e-07
3.9573e-07
3.96762e-07
3.97794e-07
3.98825e-07
3.99856e-07
4.00885e-07
4.01915e-07
4.02943e-07
4.0397e-07
4.04998e-07
4.06024e-07
4.07049e-07
4.08074e-07
4.09098e-07
4.10121e-07
4.11144e-07
4.12166e-07
4.13187e-07
4.14207e-07
4.15227e-07
4.16245e-07
4.17263e-07
4.1828e-07
4.19297e-07
4.20313e-07
4.21327e-07
4.22341e-07
4.23355e-07
4.24367e-07
4.25378e-07
4.26389e-07
4.27399e-07
4.28408e-07
4.29417e-07
4.30424e-07
4.31431e-07
4.32437e-07
4.33441e-07
4.34445e-07
4.36221e-07
9.73237e-07
9.7345e-07
9.73537e-07
9.73643e-07
9.3212e-07
7.59194e-07
1.83348e-07
3.9242e-07
3.93663e-07
3.94696e-07
3.9573e-07
3.96762e-07
3.97794e-07
3.98825e-07
3.99856e-07
4.00885e-07
4.01915e-07
4.02943e-07
4.0397e-07
4.04998e-07
4.06024e-07
4.07049e-07
4.08074e-07
4.09098e-07
4.10121e-07
4.11144e-07
4.12166e-07
4.13187e-07
4.14207e-07
4.15227e-07
4.16245e-07
4.17263e-07
4.1828e-07
4.19297e-07
4.20313e-07
4.21327e-07
4.22341e-07
4.23355e-07
4.24367e-07
4.25378e-07
4.26389e-07
4.27399e-07
4.28408e-07
4.29417e-07
4.30424e-07
4.31431e-07
4.32437e-07
4.33441e-07
4.34445e-07
4.36221e-07
9.73281e-07
9.73457e-07
9.73539e-07
9.73647e-07
9.3246e-07
7.74431e-07
1.8324e-07
3.92419e-07
3.93662e-07
3.94696e-07
3.9573e-07
3.96762e-07
3.97794e-07
3.98825e-07
3.99856e-07
4.00885e-07
4.01915e-07
4.02943e-07
4.0397e-07
4.04998e-07
4.06024e-07
4.07049e-07
4.08074e-07
4.09098e-07
4.10121e-07
4.11144e-07
4.12166e-07
4.13187e-07
4.14207e-07
4.15227e-07
4.16245e-07
4.17263e-07
4.1828e-07
4.19297e-07
4.20313e-07
4.21327e-07
4.22341e-07
4.23355e-07
4.24367e-07
4.25378e-07
4.26389e-07
4.27399e-07
4.28408e-07
4.29417e-07
4.30424e-07
4.31431e-07
4.32437e-07
4.33441e-07
4.34445e-07
4.36221e-07
9.73292e-07
9.73451e-07
9.73538e-07
9.73603e-07
9.32176e-07
7.7615e-07
5.18017e-08
3.92418e-07
3.93661e-07
3.94696e-07
3.95729e-07
3.96762e-07
3.97794e-07
3.98825e-07
3.99856e-07
4.00885e-07
4.01915e-07
4.02943e-07
4.0397e-07
4.04998e-07
4.06024e-07
4.07049e-07
4.08074e-07
4.09098e-07
4.10121e-07
4.11144e-07
4.12166e-07
4.13187e-07
4.14207e-07
4.15227e-07
4.16245e-07
4.17263e-07
4.1828e-07
4.19297e-07
4.20313e-07
4.21327e-07
4.22341e-07
4.23355e-07
4.24367e-07
4.25378e-07
4.26389e-07
4.27399e-07
4.28408e-07
4.29417e-07
4.30424e-07
4.31431e-07
4.32437e-07
4.33441e-07
4.34445e-07
4.36221e-07
9.7329e-07
9.73446e-07
9.73501e-07
9.73583e-07
9.31816e-07
7.72022e-07
6.04548e-08
3.92418e-07
3.93661e-07
3.94696e-07
3.95729e-07
3.96762e-07
3.97794e-07
3.98825e-07
3.99856e-07
4.00885e-07
4.01915e-07
4.02943e-07
4.0397e-07
4.04998e-07
4.06024e-07
4.07049e-07
4.08074e-07
4.09098e-07
4.10121e-07
4.11144e-07
4.12166e-07
4.13187e-07
4.14207e-07
4.15227e-07
4.16245e-07
4.17263e-07
4.1828e-07
4.19297e-07
4.20313e-07
4.21327e-07
4.22341e-07
4.23355e-07
4.24367e-07
4.25378e-07
4.26389e-07
4.27399e-07
4.28408e-07
4.29417e-07
4.30424e-07
4.31431e-07
4.32437e-07
4.33441e-07
4.34445e-07
4.36221e-07
9.73256e-07
9.73443e-07
9.73536e-07
9.73617e-07
9.32344e-07
7.72232e-07
6.16425e-08
3.92418e-07
3.93661e-07
3.94696e-07
3.95729e-07
3.96762e-07
3.97794e-07
3.98825e-07
3.99856e-07
4.00885e-07
4.01915e-07
4.02943e-07
4.0397e-07
4.04998e-07
4.06024e-07
4.07049e-07
4.08074e-07
4.09098e-07
4.10121e-07
4.11144e-07
4.12166e-07
4.13187e-07
4.14207e-07
4.15227e-07
4.16245e-07
4.17263e-07
4.1828e-07
4.19297e-07
4.20313e-07
4.21327e-07
4.22341e-07
4.23355e-07
4.24367e-07
4.25378e-07
4.26389e-07
4.27399e-07
4.28408e-07
4.29417e-07
4.30424e-07
4.31431e-07
4.32437e-07
4.33441e-07
4.34445e-07
4.36221e-07
9.73289e-07
9.73448e-07
9.73538e-07
9.73615e-07
9.32396e-07
7.72824e-07
5.54097e-08
3.92418e-07
3.93661e-07
3.94696e-07
3.95729e-07
3.96762e-07
3.97794e-07
3.98825e-07
3.99856e-07
4.00885e-07
4.01915e-07
4.02943e-07
4.0397e-07
4.04998e-07
4.06024e-07
4.07049e-07
4.08074e-07
4.09098e-07
4.10121e-07
4.11144e-07
4.12166e-07
4.13187e-07
4.14207e-07
4.15227e-07
4.16245e-07
4.17263e-07
4.1828e-07
4.19297e-07
4.20313e-07
4.21327e-07
4.22341e-07
4.23355e-07
4.24367e-07
4.25378e-07
4.26389e-07
4.27399e-07
4.28408e-07
4.29417e-07
4.30424e-07
4.31431e-07
4.32437e-07
4.33441e-07
4.34445e-07
4.36221e-07
9.73292e-07
9.7345e-07
9.7353e-07
9.73631e-07
9.31121e-07
7.75817e-07
5.17914e-08
3.92419e-07
3.93662e-07
3.94696e-07
3.9573e-07
3.96762e-07
3.97794e-07
3.98825e-07
3.99856e-07
4.00885e-07
4.01915e-07
4.02943e-07
4.0397e-07
4.04998e-07
4.06024e-07
4.07049e-07
4.08074e-07
4.09098e-07
4.10121e-07
4.11144e-07
4.12166e-07
4.13187e-07
4.14207e-07
4.15227e-07
4.16245e-07
4.17263e-07
4.1828e-07
4.19297e-07
4.20313e-07
4.21327e-07
4.22341e-07
4.23355e-07
4.24367e-07
4.25378e-07
4.26389e-07
4.27399e-07
4.28408e-07
4.29417e-07
4.30424e-07
4.31431e-07
4.32437e-07
4.33441e-07
4.34445e-07
4.36221e-07
9.73237e-07
9.73414e-07
9.73548e-07
9.7361e-07
9.32764e-07
7.75425e-07
1.83345e-07
3.9242e-07
3.93663e-07
3.94696e-07
3.9573e-07
3.96762e-07
3.97794e-07
3.98825e-07
3.99856e-07
4.00885e-07
4.01915e-07
4.02943e-07
4.0397e-07
4.04998e-07
4.06024e-07
4.07049e-07
4.08074e-07
4.09098e-07
4.10121e-07
4.11144e-07
4.12166e-07
4.13187e-07
4.14207e-07
4.15227e-07
4.16245e-07
4.17263e-07
4.1828e-07
4.19297e-07
4.20313e-07
4.21327e-07
4.22341e-07
4.23355e-07
4.24367e-07
4.25378e-07
4.26389e-07
4.27399e-07
4.28408e-07
4.29417e-07
4.30424e-07
4.31431e-07
4.32437e-07
4.33441e-07
4.34445e-07
4.36221e-07
9.73297e-07
9.73458e-07
9.73548e-07
9.73625e-07
9.3222e-07
4.27323e-07
1.83347e-07
3.9242e-07
3.93663e-07
3.94696e-07
3.9573e-07
3.96762e-07
3.97794e-07
3.98825e-07
3.99856e-07
4.00885e-07
4.01915e-07
4.02943e-07
4.0397e-07
4.04998e-07
4.06024e-07
4.07049e-07
4.08074e-07
4.09098e-07
4.10121e-07
4.11144e-07
4.12166e-07
4.13187e-07
4.14207e-07
4.15227e-07
4.16245e-07
4.17263e-07
4.1828e-07
4.19297e-07
4.20313e-07
4.21327e-07
4.22341e-07
4.23355e-07
4.24367e-07
4.25378e-07
4.26389e-07
4.27399e-07
4.28408e-07
4.29417e-07
4.30424e-07
4.31431e-07
4.32437e-07
4.33441e-07
4.34445e-07
4.36221e-07
3.51425e-08
3.52791e-07
3.51426e-08
6.45612e-08
5.17845e-08
4.16421e-07
5.17854e-08
3.51425e-08
6.99987e-07
3.51521e-08
7.62766e-07
5.17846e-08
7.75908e-07
5.18053e-08
3.51573e-08
6.99392e-07
4.03326e-08
7.72399e-07
5.18173e-08
7.73325e-07
6.0101e-08
4.67747e-08
6.92123e-07
2.98996e-07
7.76254e-07
6.88292e-08
7.75529e-07
3.67791e-07
4.30094e-07
7.00282e-07
4.65396e-07
7.72492e-07
4.99079e-07
7.67244e-07
5.68329e-07
4.90371e-07
7.00736e-07
4.36072e-07
7.63718e-07
5.43991e-07
7.6553e-07
5.05946e-07
2.99648e-07
6.9247e-07
4.72961e-08
7.74217e-07
3.68037e-07
7.74001e-07
6.92467e-08
4.02716e-08
7.00357e-07
3.51573e-08
7.73194e-07
5.99332e-08
7.75672e-07
5.1816e-08
3.5152e-08
6.9016e-07
3.51425e-08
7.76253e-07
5.18038e-08
7.59707e-07
5.17848e-08
3.51426e-08
4.3062e-08
3.51425e-08
4.21996e-07
5.17853e-08
6.42362e-08
5.17846e-08
5.17843e-08
4.11456e-07
5.17853e-08
6.47304e-08
5.17843e-08
4.09957e-07
5.17853e-08
5.17845e-08
7.76332e-07
5.18045e-08
7.61964e-07
5.17846e-08
7.7646e-07
5.18045e-08
5.18162e-08
7.72535e-07
6.02294e-08
7.75494e-07
5.18169e-08
7.71086e-07
6.01282e-08
6.91023e-08
7.74104e-07
3.64314e-07
7.75403e-07
6.89343e-08
7.73177e-07
3.6019e-07
4.96638e-07
7.69249e-07
5.55741e-07
7.67098e-07
5.07156e-07
7.71809e-07
5.53725e-07
5.34479e-07
7.60659e-07
4.97657e-07
7.74755e-07
5.36048e-07
7.64799e-07
5.05028e-07
3.61722e-07
7.73077e-07
6.9322e-08
7.7209e-07
3.62242e-07
7.73232e-07
6.92023e-08
6.01049e-08
7.7596e-07
5.18173e-08
7.75937e-07
5.99925e-08
7.73832e-07
5.18154e-08
5.18046e-08
7.62722e-07
5.17846e-08
7.75812e-07
5.18045e-08
7.6301e-07
5.17846e-08
5.17852e-08
6.4297e-08
5.17844e-08
4.22964e-07
5.17852e-08
6.45891e-08
5.17844e-08
5.17845e-08
4.13885e-07
5.17853e-08
4.34399e-08
3.51424e-08
3.54264e-07
3.51425e-08
5.17846e-08
7.76094e-07
5.18053e-08
6.87156e-07
3.51424e-08
7.00504e-07
3.5152e-08
5.18167e-08
7.73424e-07
6.00343e-08
7.00663e-07
3.51573e-08
6.99536e-07
4.02717e-08
6.90192e-08
7.74701e-07
3.63031e-07
6.95282e-07
4.6899e-08
6.94493e-07
2.92255e-07
5.22414e-07
7.72309e-07
5.86082e-07
7.00681e-07
5.09788e-07
6.98414e-07
5.13035e-07
5.42008e-07
7.64597e-07
5.11345e-07
6.99218e-07
4.96987e-07
6.99426e-07
4.4164e-07
3.67342e-07
7.73947e-07
6.91004e-08
6.95411e-07
3.01059e-07
6.9725e-07
4.69221e-08
5.98913e-08
7.74138e-07
5.18174e-08
7.00909e-07
4.01227e-08
7.00044e-07
3.51571e-08
5.18056e-08
7.63499e-07
5.17847e-08
7.00466e-07
3.51518e-08
6.89165e-07
3.51424e-08
5.17852e-08
6.43432e-08
5.17846e-08
3.60529e-07
3.51425e-08
4.30629e-08
3.51424e-08
6.03032e-07
9.02579e-07
6.9938e-07
9.31735e-07
6.58911e-07
9.32443e-07
7.76165e-07
5.16552e-08
3.50629e-08
4.79641e-08
6.41756e-08
7.04544e-08
3.50663e-08
5.16472e-08
1.29657e-07
1.29269e-07
1.29658e-07
1.83344e-07
1.84015e-07
1.83348e-07
1.84017e-07
9.02802e-07
9.03056e-07
9.03189e-07
9.32529e-07
9.32152e-07
9.32434e-07
9.32791e-07
2.22255e-07
5.03175e-08
6.97788e-07
7.62344e-07
7.35874e-08
7.74028e-07
1.62602e-07
1.29658e-07
1.29268e-07
1.29658e-07
1.83348e-07
1.84017e-07
1.83345e-07
1.84016e-07
9.03092e-07
9.03131e-07
9.0318e-07
9.32477e-07
9.32498e-07
9.32781e-07
9.32711e-07
7.73022e-07
6.89003e-07
7.00528e-07
7.766e-07
7.62903e-07
7.7639e-07
6.97856e-07
1.29658e-07
3.51573e-08
1.29566e-07
1.8324e-07
1.84015e-07
5.17931e-08
1.83832e-07
9.02691e-07
9.02598e-07
9.02369e-07
9.3246e-07
9.32369e-07
9.32418e-07
9.31875e-07
7.75774e-07
6.9993e-07
6.98336e-07
7.72307e-07
7.7687e-07
7.75697e-07
6.97893e-07
1.29566e-07
3.72525e-08
1.29567e-07
5.17999e-08
1.83828e-07
5.53079e-08
1.83834e-07
9.02814e-07
9.02518e-07
9.02597e-07
9.3175e-07
9.32012e-07
9.32132e-07
9.32462e-07
7.73298e-07
6.97767e-07
6.86714e-07
7.69275e-07
7.73482e-07
7.67494e-07
6.89856e-07
1.29566e-07
4.17513e-08
1.29566e-07
6.07864e-08
1.83831e-07
6.13982e-08
1.83829e-07
9.03203e-07
9.02967e-07
9.03118e-07
9.32031e-07
9.32738e-07
9.32188e-07
9.3241e-07
7.74579e-07
7.00777e-07
7.00531e-07
7.76345e-07
7.7688e-07
7.76051e-07
6.94489e-07
1.29566e-07
4.09844e-08
1.29566e-07
6.1619e-08
1.8383e-07
6.07475e-08
1.83831e-07
9.02439e-07
9.02747e-07
9.03098e-07
9.32352e-07
9.32378e-07
9.32451e-07
9.32414e-07
7.73501e-07
6.92879e-07
7.00374e-07
7.74144e-07
7.73117e-07
7.75269e-07
6.90959e-07
1.29567e-07
3.51684e-08
1.29566e-07
5.53942e-08
1.83834e-07
5.18018e-08
1.83828e-07
9.02848e-07
9.02867e-07
9.02085e-07
9.31862e-07
9.31918e-07
9.32064e-07
9.31776e-07
7.75368e-07
7.00456e-07
6.87095e-07
7.66454e-07
7.75893e-07
7.68486e-07
6.99083e-07
1.29566e-07
1.29215e-07
1.29658e-07
5.17927e-08
1.83832e-07
1.83239e-07
1.84015e-07
9.03184e-07
9.03094e-07
9.02945e-07
9.32631e-07
9.32533e-07
9.3239e-07
9.32194e-07
3.44137e-07
6.86671e-07
6.99124e-07
7.76662e-07
7.60566e-07
7.75312e-07
2.68948e-07
1.29658e-07
1.29269e-07
1.29658e-07
1.83345e-07
1.84016e-07
1.83348e-07
1.84017e-07
6.99419e-07
9.02242e-07
6.60362e-07
9.31925e-07
7.75949e-07
9.31861e-07
6.46635e-07
5.24766e-08
3.89538e-08
1.41491e-07
4.3583e-07
5.76648e-08
1.95364e-07
3.55354e-08
1.29658e-07
1.29268e-07
1.29657e-07
1.83348e-07
1.84017e-07
1.83344e-07
1.84015e-07
6.50564e-07
9.32241e-07
7.7624e-07
9.31083e-07
6.55685e-07
9.3209e-07
7.75532e-07
5.16529e-08
5.16527e-08
7.05771e-08
6.48305e-08
5.16584e-08
7.0728e-08
5.16448e-08
1.8401e-07
1.83344e-07
1.84012e-07
1.83339e-07
1.8401e-07
1.83344e-07
1.84012e-07
9.32099e-07
9.32208e-07
9.32702e-07
9.3167e-07
9.32119e-07
9.32167e-07
9.32701e-07
2.19522e-07
7.37941e-08
7.73524e-07
7.62086e-07
2.19976e-07
7.36963e-08
7.7375e-07
1.84012e-07
1.83341e-07
1.84011e-07
1.83344e-07
1.84012e-07
1.83341e-07
1.84011e-07
9.31999e-07
9.32615e-07
9.3256e-07
9.32252e-07
9.31677e-07
9.32617e-07
9.32494e-07
7.72973e-07
7.62386e-07
7.72026e-07
7.74922e-07
7.73085e-07
7.58507e-07
7.74884e-07
1.8401e-07
5.1791e-08
1.83826e-07
1.83236e-07
1.84011e-07
5.17931e-08
1.83826e-07
9.32135e-07
9.32302e-07
9.31591e-07
9.32101e-07
9.3212e-07
9.32352e-07
9.31863e-07
7.71948e-07
7.75514e-07
7.64736e-07
7.74994e-07
7.72478e-07
7.76341e-07
7.61571e-07
1.83822e-07
5.54058e-08
1.83829e-07
5.18005e-08
1.83822e-07
5.54839e-08
1.83829e-07
9.31941e-07
9.32015e-07
9.32274e-07
9.31086e-07
9.32171e-07
9.32147e-07
9.32146e-07
7.74322e-07
7.74133e-07
7.73489e-07
7.67807e-07
7.75722e-07
7.73967e-07
7.71308e-07
1.83826e-07
6.16225e-08
1.83824e-07
6.07151e-08
1.83826e-07
6.16807e-08
1.83824e-07
9.32258e-07
9.3181e-07
9.32122e-07
9.31669e-07
9.31757e-07
9.31949e-07
9.32127e-07
7.75331e-07
7.72938e-07
7.70571e-07
7.72673e-07
7.76283e-07
7.7407e-07
7.73159e-07
1.83824e-07
6.08914e-08
1.83825e-07
6.17561e-08
1.83824e-07
6.07717e-08
1.83825e-07
9.31849e-07
9.32355e-07
9.32162e-07
9.31994e-07
9.31706e-07
9.32283e-07
9.32257e-07
7.69328e-07
7.63698e-07
7.53847e-07
7.72042e-07
7.71795e-07
7.61127e-07
7.61215e-07
1.83829e-07
5.18016e-08
1.83822e-07
5.5536e-08
1.83829e-07
5.18004e-08
1.83822e-07
9.31688e-07
9.32211e-07
9.31906e-07
9.29785e-07
9.31901e-07
9.32261e-07
9.32063e-07
7.75248e-07
7.75092e-07
7.75247e-07
7.74965e-07
7.75184e-07
7.74415e-07
7.74451e-07
1.83826e-07
1.83235e-07
1.8401e-07
5.17931e-08
1.83826e-07
1.83236e-07
1.84011e-07
9.32054e-07
9.31978e-07
9.32336e-07
9.32429e-07
9.31655e-07
9.31871e-07
9.32311e-07
3.33112e-07
7.24912e-07
7.74426e-07
7.75855e-07
3.34102e-07
7.18439e-07
7.74746e-07
1.8401e-07
1.83344e-07
1.84012e-07
1.83341e-07
1.84011e-07
1.83344e-07
1.84012e-07
7.75983e-07
9.31596e-07
6.44452e-07
9.31903e-07
7.76217e-07
9.31741e-07
6.22881e-07
5.26789e-08
5.80502e-08
1.94493e-07
4.19926e-07
5.26157e-08
5.80601e-08
1.92896e-07
1.84012e-07
1.83339e-07
1.8401e-07
1.83343e-07
1.84012e-07
1.83339e-07
1.8401e-07
6.77186e-07
9.32447e-07
7.75711e-07
9.02932e-07
6.64966e-07
9.03028e-07
6.99493e-07
5.16541e-08
5.16527e-08
7.06495e-08
6.42622e-08
5.16592e-08
7.07374e-08
5.16458e-08
1.84015e-07
1.83348e-07
1.84016e-07
1.29268e-07
1.29658e-07
1.29269e-07
1.29658e-07
9.32199e-07
9.3242e-07
9.32513e-07
9.03052e-07
9.02494e-07
9.02793e-07
9.02243e-07
2.22955e-07
7.38179e-08
7.73896e-07
7.5895e-07
2.21517e-07
7.36429e-08
7.74027e-07
1.84017e-07
1.83345e-07
1.84015e-07
1.29269e-07
1.29658e-07
1.29269e-07
1.29658e-07
9.31793e-07
9.32709e-07
9.32653e-07
9.02958e-07
9.02404e-07
9.02929e-07
9.03188e-07
7.73798e-07
7.6288e-07
7.7543e-07
7.76411e-07
7.73306e-07
7.62761e-07
7.7471e-07
1.84015e-07
5.17914e-08
1.83831e-07
1.29216e-07
1.29658e-07
3.51572e-08
1.29567e-07
9.32426e-07
9.32644e-07
9.32446e-07
9.02402e-07
9.03041e-07
9.03178e-07
9.03234e-07
7.74404e-07
7.74416e-07
7.67093e-07
7.75994e-07
7.74076e-07
7.74277e-07
7.65752e-07
1.83828e-07
5.54002e-08
1.83834e-07
3.5168e-08
1.29566e-07
3.73144e-08
1.29567e-07
9.32501e-07
9.3246e-07
9.32164e-07
9.03064e-07
9.03209e-07
9.0304e-07
9.02384e-07
7.74237e-07
7.72331e-07
7.73991e-07
7.75869e-07
7.71034e-07
7.71757e-07
7.75562e-07
1.83831e-07
6.12157e-08
1.83829e-07
4.03526e-08
1.29566e-07
4.14044e-08
1.29566e-07
9.31637e-07
9.32375e-07
9.32302e-07
9.03049e-07
9.01852e-07
9.02882e-07
9.03071e-07
7.75662e-07
7.7522e-07
7.76272e-07
7.68428e-07
7.7376e-07
7.75835e-07
7.7651e-07
1.8383e-07
6.06425e-08
1.8383e-07
4.14001e-08
1.29566e-07
4.09107e-08
1.29566e-07
9.32056e-07
9.3255e-07
9.32471e-07
9.03028e-07
9.02891e-07
9.03103e-07
9.0314e-07
7.71378e-07
7.68086e-07
7.65713e-07
7.74049e-07
7.69354e-07
7.69908e-07
7.61579e-07
1.83834e-07
5.18009e-08
1.83828e-07
3.72625e-08
1.29567e-07
3.5168e-08
1.29566e-07
9.32106e-07
9.32318e-07
9.32082e-07
9.02875e-07
9.03008e-07
9.02891e-07
9.02207e-07
7.75509e-07
7.74369e-07
7.69968e-07
7.76187e-07
7.75217e-07
7.74775e-07
7.70447e-07
1.83831e-07
1.83239e-07
1.84015e-07
3.5157e-08
1.29567e-07
1.29215e-07
1.29658e-07
9.31538e-07
9.31994e-07
9.32258e-07
9.03147e-07
9.01583e-07
9.02089e-07
9.02753e-07
3.43585e-07
7.14734e-07
7.75208e-07
7.7563e-07
3.38758e-07
7.28131e-07
7.75793e-07
1.84015e-07
1.83348e-07
1.84017e-07
1.29269e-07
1.29658e-07
1.29269e-07
1.29658e-07
7.7623e-07
9.3204e-07
6.38119e-07
9.0177e-07
6.99643e-07
9.02924e-07
6.65184e-07
5.23822e-08
5.79186e-08
1.95358e-07
4.32908e-07
5.24973e-08
5.77673e-08
1.96287e-07
1.84016e-07
1.83344e-07
1.84015e-07
1.29269e-07
1.29658e-07
1.29268e-07
1.29658e-07
5.16844e-08
3.50845e-08
3.51424e-08
5.17914e-08
5.17912e-08
3.50844e-08
5.16847e-08
5.25507e-08
1.42168e-07
3.89998e-08
4.29152e-07
1.97164e-07
5.77177e-08
3.56034e-08
5.16869e-08
3.51426e-08
3.50886e-08
5.17918e-08
5.17919e-08
5.16951e-08
3.50852e-08
5.1654e-08
6.44708e-08
5.16505e-08
7.05378e-08
7.05727e-08
5.16583e-08
5.16478e-08
5.16837e-08
5.17905e-08
5.16774e-08
5.17843e-08
5.17903e-08
5.1677e-08
5.1684e-08
5.27054e-08
4.22698e-07
1.9475e-07
5.80494e-08
1.95474e-07
5.78821e-08
5.27478e-08
5.16875e-08
5.17912e-08
5.17856e-08
5.16886e-08
5.17913e-08
5.16947e-08
5.16808e-08
5.32478e-08
3.50977e-08
3.51437e-08
5.17914e-08
5.17138e-08
5.17951e-08
3.60731e-08
3.49207e-07
6.99336e-07
6.84642e-07
7.75704e-07
7.75469e-07
7.51923e-07
2.74652e-07
5.47134e-08
3.51446e-08
4.59258e-08
5.18114e-08
5.17971e-08
6.73202e-08
3.69729e-08
2.21344e-07
7.61297e-07
7.38113e-08
7.73609e-07
7.36635e-08
7.73896e-07
2.20255e-07
5.3302e-08
5.17906e-08
5.17071e-08
5.17892e-08
5.17131e-08
5.17944e-08
5.34194e-08
3.45916e-07
7.75987e-07
7.75192e-07
7.33623e-07
7.75581e-07
7.36951e-07
3.41436e-07
5.48311e-08
5.18107e-08
5.17909e-08
6.78364e-08
5.17959e-08
6.75964e-08
5.49859e-08
2.17863e-07
5.30653e-08
3.63643e-08
5.18235e-08
7.7435e-08