/*--------------------------------*- C++ -*----------------------------------*\
| =========                 |                                                 |
| \\      /  F ield         | OpenFOAM: The Open Source CFD Toolbox           |
|  \\    /   O peration     | Version:  5.0                                   |
|   \\  /    A nd           | Web:      www.OpenFOAM.org                      |
|    \\/     M anipulation  |                                                 |
\*---------------------------------------------------------------------------*/
FoamFile
{
    version     2.0;
    format      ascii;
    class       volVectorField;
    location    "0.1";
    object      U;
}
// * * * * * * * * * * * * * * * * * * * * * * * * * * * * * * * * * * * * * //

dimensions      [0 1 -1 0 0 0 0];

internalField   nonuniform List<vector> 
4398
(
(0.00073563 4.00188e-06 -4.80897e-06)
(0.00084727 -3.54225e-05 3.00959e-06)
(0.000942278 8.21971e-05 -3.70348e-07)
(0.000483059 -0.000147559 9.02969e-06)
(0.000832914 0.000106023 -6.21208e-06)
(0.000610814 -1.67857e-05 0.000105043)
(0.000516639 4.81691e-05 -1.81414e-06)
(0.000852758 -1.27326e-06 -2.18463e-06)
(0.000829152 -2.02949e-06 -1.99268e-07)
(0.000838275 -2.13853e-06 9.39103e-08)
(0.000838978 -1.61985e-06 1.03134e-07)
(0.000840044 -1.14404e-06 6.97895e-08)
(0.000839908 -6.92618e-07 6.36137e-08)
(0.000839275 -5.04132e-07 3.66554e-08)
(0.000838337 -3.11509e-07 5.72718e-08)
(0.000837152 -1.32828e-07 5.5015e-08)
(0.00083579 -1.01528e-07 5.47764e-08)
(0.0008343 -1.08258e-07 7.72441e-08)
(0.000832959 6.19903e-09 6.56727e-08)
(0.00083148 1.40472e-08 4.66635e-08)
(0.000829822 -5.41866e-08 7.64633e-08)
(0.000828259 -6.33644e-08 6.10534e-08)
(0.000826746 5.32951e-09 5.9965e-08)
(0.000825214 -8.50973e-09 4.58503e-08)
(0.000823623 -1.51902e-07 7.00365e-08)
(0.000822045 -1.85324e-07 6.60079e-08)
(0.000820411 -1.19239e-07 4.57309e-08)
(0.000818771 -7.85485e-08 5.24292e-08)
(0.000817346 -3.18071e-08 4.4749e-09)
(0.000815881 5.89798e-08 4.2634e-08)
(0.000814316 1.96945e-07 5.99206e-08)
(0.000812814 2.37319e-07 7.10549e-08)
(0.000811238 2.56235e-07 4.52113e-08)
(0.000809935 2.27586e-07 9.14501e-08)
(0.00080891 3.41366e-07 3.46791e-08)
(0.000806828 3.52499e-07 6.96522e-08)
(0.000804627 3.0687e-07 3.20112e-08)
(0.000803184 4.20924e-07 -8.70224e-09)
(0.000801872 4.07985e-07 1.07261e-08)
(0.000800792 3.20597e-07 2.81502e-08)
(0.000799248 4.25948e-08 5.11241e-08)
(0.000797541 -3.11128e-07 6.85056e-08)
(0.000796235 -1.03577e-06 5.54623e-08)
(0.00079506 -4.74889e-07 2.888e-08)
(0.00079346 -1.27932e-07 3.90829e-08)
(0.000792007 1.34902e-08 1.45559e-08)
(0.000790754 -2.65573e-07 4.15056e-08)
(0.000789269 -4.42512e-07 4.55204e-08)
(0.000787673 -9.12658e-07 1.24227e-08)
(0.000785581 -2.88933e-07 1.00349e-07)
(0.000692063 3.24016e-05 -5.25489e-06)
(0.000925499 -2.74193e-05 2.08934e-06)
(0.00083456 8.96436e-05 -1.72828e-06)
(0.000778462 -0.000129944 4.82467e-06)
(0.000767105 0.000149482 6.36729e-06)
(0.00269961 0.000917023 0.000154598)
(0.00043179 -3.47638e-05 -6.70154e-07)
(0.000839431 -1.95065e-05 -2.18728e-06)
(0.000829432 -1.19492e-05 -9.3173e-08)
(0.000839092 -8.42285e-06 1.06583e-07)
(0.000840351 -5.57581e-06 5.48558e-08)
(0.000841143 -3.65125e-06 5.89347e-08)
(0.000840777 -2.38681e-06 5.22984e-08)
(0.000839949 -1.49439e-06 5.48997e-08)
(0.000838856 -9.29772e-07 5.61956e-09)
(0.000837434 -5.56784e-07 -1.23485e-08)
(0.000835869 -2.78657e-07 -1.33487e-07)
(0.000834501 -2.80366e-08 6.46595e-08)
(0.000833018 1.4806e-07 1.91379e-08)
(0.00083137 2.22173e-08 4.73577e-08)
(0.000829838 4.00844e-08 -6.38415e-08)
(0.000828395 4.23078e-08 6.46698e-08)
(0.000826777 -3.09836e-09 6.03567e-09)
(0.000825036 -3.9135e-08 4.67633e-08)
(0.000823481 -8.11284e-08 6.24741e-08)
(0.000822031 -9.32649e-08 4.14722e-08)
(0.00082049 -1.15511e-07 3.68838e-08)
(0.000818924 1.87105e-08 5.08081e-08)
(0.000817413 1.67505e-07 5.42326e-08)
(0.00081597 1.23356e-07 7.5533e-08)
(0.000814458 1.09906e-07 6.385e-08)
(0.000812875 6.42504e-08 -2.19445e-08)
(0.000811316 1.01181e-08 3.44821e-08)
(0.000809805 3.55517e-08 1.51426e-08)
(0.00080816 -1.6297e-07 4.87591e-08)
(0.000806668 -3.11281e-07 4.15879e-08)
(0.000805263 -1.46063e-07 3.87537e-08)
(0.000803674 6.03927e-08 -8.29404e-09)
(0.00080214 2.91581e-07 1.17556e-07)
(0.000800331 3.51505e-07 -1.79732e-09)
(0.000798659 -5.43715e-08 2.46987e-08)
(0.000797047 -1.04842e-07 1.24424e-07)
(0.000796253 -1.33462e-07 3.31007e-08)
(0.000795438 -3.80523e-07 1.17648e-07)
(0.000793739 -3.037e-07 3.01432e-08)
(0.000791964 -4.38554e-09 7.66871e-08)
(0.000790383 -7.11921e-08 4.17732e-08)
(0.000789026 -1.44974e-07 4.27478e-08)
(0.000787379 -3.4681e-07 5.72262e-08)
(0.000786581 -3.52446e-07 7.54384e-08)
(0.000668236 3.79568e-05 -3.72819e-06)
(0.000921982 1.92764e-05 2.37002e-06)
(0.000809598 7.97045e-05 -6.3331e-08)
(0.000679624 4.54954e-05 8.5214e-06)
(0.000389904 2.0143e-05 -2.25292e-05)
(0.000426005 0.000177597 1.63977e-05)
(0.000462012 2.16182e-05 2.30317e-07)
(0.000849218 -3.68014e-05 -2.64191e-06)
(0.000842677 -2.20868e-05 1.93325e-08)
(0.000846326 -1.34237e-05 8.85386e-08)
(0.000845001 -8.31544e-06 5.28645e-08)
(0.000844069 -5.15508e-06 5.59784e-08)
(0.000842629 -3.22271e-06 5.30626e-08)
(0.000841113 -2.00523e-06 5.36014e-08)
(0.00083952 -1.25425e-06 5.29838e-08)
(0.000837973 -8.17448e-07 1.09406e-07)
(0.000836455 -4.37126e-07 6.68118e-08)
(0.000834836 -1.78903e-07 4.62048e-09)
(0.000833022 -1.70413e-07 7.77983e-08)
(0.000831346 -5.11488e-08 7.24948e-08)
(0.000829847 5.32533e-08 1.74036e-07)
(0.000828205 5.36053e-08 5.28829e-08)
(0.000826645 -3.55743e-09 5.00227e-08)
(0.000825116 -1.43044e-08 -1.25118e-07)
(0.000823555 1.04959e-07 3.66437e-08)
(0.000822002 8.25063e-08 5.04835e-08)
(0.000820551 6.3522e-08 5.7447e-08)
(0.000819125 8.98334e-08 4.85907e-08)
(0.000817476 7.67879e-08 1.1166e-07)
(0.000815809 1.02183e-08 6.97743e-08)
(0.000814242 -1.1981e-07 4.30202e-08)
(0.000812689 -1.84352e-07 3.85074e-08)
(0.000811202 -2.14723e-07 2.54957e-08)
(0.000809718 -2.55224e-07 4.68143e-08)
(0.000808477 -2.995e-07 2.90897e-08)
(0.00080685 -2.494e-07 4.72374e-09)
(0.000805092 -2.21508e-07 4.62984e-08)
(0.000803732 -1.73368e-07 5.31575e-08)
(0.000802235 -1.8751e-07 1.95215e-08)
(0.00080036 -2.89698e-07 1.52598e-07)
(0.000798678 5.43116e-08 5.90255e-08)
(0.000797442 1.53014e-07 9.8151e-08)
(0.00079589 5.26737e-07 6.18553e-09)
(0.000794847 6.96725e-08 5.36475e-08)
(0.00079393 6.98908e-08 1.07224e-07)
(0.000792297 -7.63842e-08 4.14972e-08)
(0.000790578 1.40322e-07 4.87126e-08)
(0.000788925 9.35508e-08 6.47247e-08)
(0.000787416 1.46828e-07 5.45233e-08)
(0.000786455 8.65251e-08 6.8777e-08)
(0.00067309 3.77417e-05 -5.4479e-06)
(0.000975666 1.50571e-05 2.59423e-06)
(0.000869972 0.000109668 -1.54978e-06)
(0.000866631 2.21046e-06 5.72528e-06)
(0.000645241 0.000115161 8.23983e-06)
(0.000239616 -1.32381e-05 2.17012e-05)
(0.000511769 -8.99782e-05 7.63322e-06)
(0.000887174 -2.34865e-05 -2.62339e-06)
(0.000858264 -2.16107e-05 -9.0927e-08)
(0.000856457 -1.17763e-05 5.59329e-08)
(0.00085078 -7.34349e-06 3.9635e-08)
(0.000847566 -4.46232e-06 5.49223e-08)
(0.00084475 -2.76703e-06 5.69287e-08)
(0.000842432 -1.6982e-06 5.07631e-08)
(0.000840355 -1.05759e-06 4.95342e-08)
(0.000838464 -6.29823e-07 5.58043e-08)
(0.000836672 -3.87962e-07 2.77828e-08)
(0.000834838 -2.3239e-07 8.97585e-08)
(0.00083318 -1.63704e-07 6.00428e-08)
(0.000831651 -5.43226e-08 1.42125e-07)
(0.000829969 2.23226e-08 8.24511e-08)
(0.000828325 6.63779e-08 5.01999e-08)
(0.000826692 1.38952e-07 7.18638e-08)
(0.000825173 1.88978e-07 1.31411e-07)
(0.000823602 2.12924e-07 3.00192e-08)
(0.000821979 2.64478e-07 4.65597e-08)
(0.0008205 1.79616e-07 2.76508e-08)
(0.000818941 -1.46656e-08 5.37366e-08)
(0.000817314 -1.71312e-07 6.73076e-08)
(0.000815724 -1.87564e-07 3.26186e-08)
(0.000814215 -1.9576e-07 4.2686e-08)
(0.000812757 -1.75225e-07 6.64743e-08)
(0.000811228 -1.63031e-07 5.72077e-08)
(0.000809699 -1.80585e-07 6.52281e-08)
(0.000808167 -2.35711e-07 -8.11431e-08)
(0.000806766 -4.15334e-07 2.09388e-07)
(0.000805357 -3.09503e-07 7.1381e-08)
(0.000803717 -4.00848e-07 5.3337e-08)
(0.000801995 -3.86165e-07 -6.53797e-08)
(0.000800633 -4.99143e-07 -1.91382e-08)
(0.000799212 -1.07771e-07 -5.4992e-08)
(0.000797637 8.08957e-08 7.64545e-09)
(0.000796149 3.53865e-07 1.77259e-07)
(0.000794867 8.65678e-07 3.62388e-08)
(0.000793557 2.57327e-07 1.14937e-07)
(0.000792052 3.34251e-08 5.06694e-08)
(0.000790595 2.10763e-09 4.20414e-08)
(0.000789034 2.00501e-08 -1.26143e-07)
(0.000787369 9.57027e-08 4.49141e-08)
(0.000786289 1.92363e-07 9.04088e-08)
(0.000643919 1.93322e-05 -3.64196e-06)
(0.00100492 3.56387e-06 1.51594e-06)
(0.000811956 6.65067e-05 9.49751e-08)
(0.000920763 -4.73061e-05 5.24768e-06)
(0.000450946 0.000208885 -8.51968e-06)
(-3.94614e-05 0.000440138 8.69413e-06)
(0.000355848 -0.000181762 3.05117e-05)
(0.000954217 -6.13941e-06 -1.26493e-06)
(0.000859535 -8.98593e-06 -5.95917e-07)
(0.000864305 -4.37403e-06 1.79025e-08)
(0.000854227 -2.85301e-06 3.57702e-08)
(0.00084984 -1.68006e-06 3.68396e-08)
(0.000846116 -1.00532e-06 -6.26539e-08)
(0.000843268 -6.1306e-07 5.12316e-08)
(0.000840867 -3.55851e-07 5.89226e-08)
(0.000838817 -2.0605e-07 5.54075e-08)
(0.000836956 -1.36513e-07 6.09561e-08)
(0.000835119 -1.11701e-07 4.71374e-08)
(0.000833247 2.45706e-08 1.89743e-08)
(0.000831579 9.68171e-08 3.92058e-08)
(0.000829999 8.45843e-08 6.66413e-08)
(0.000828351 7.50248e-08 6.0081e-08)
(0.000826798 3.34785e-08 -5.68458e-10)
(0.000825209 9.91752e-08 7.18596e-08)
(0.00082365 -6.66609e-08 3.84361e-08)
(0.00082196 -4.08003e-08 5.52814e-08)
(0.000820202 -8.53879e-09 7.07066e-08)
(0.000818686 -9.00144e-08 6.32622e-08)
(0.000817261 -1.45609e-07 2.15601e-08)
(0.000815778 -1.48055e-07 2.83394e-08)
(0.000814258 -1.06779e-07 7.00829e-08)
(0.00081273 -9.58878e-08 6.2082e-08)
(0.000811195 -1.34938e-07 9.16849e-08)
(0.000809628 -1.0346e-07 4.89574e-08)
(0.000808184 -1.10212e-07 4.53674e-08)
(0.000806758 -9.12655e-08 5.05911e-08)
(0.000805112 -1.83045e-07 -1.30154e-07)
(0.000803636 -2.0131e-07 8.09024e-08)
(0.000802112 -2.51763e-07 1.24103e-07)
(0.000800707 -1.47844e-07 2.63576e-08)
(0.000799402 -2.40291e-08 4.79361e-08)
(0.000798019 2.77899e-07 -2.49693e-08)
(0.00079687 2.08719e-07 -1.02544e-08)
(0.000794725 3.43404e-07 1.33486e-07)
(0.000792889 1.36976e-07 5.21283e-08)
(0.000791979 -8.43677e-09 4.65229e-08)
(0.000790562 -1.88148e-07 -3.64702e-08)
(0.000789043 -3.77594e-07 8.49446e-08)
(0.000787631 -2.91161e-07 3.07312e-08)
(0.000786094 2.65052e-08 8.42613e-08)
(0.000656049 -1.78704e-06 -4.97697e-06)
(0.00103176 4.07882e-06 1.4746e-06)
(0.000830886 -1.61207e-05 -7.86922e-07)
(0.00114455 5.70398e-05 2.01867e-06)
(0.000228803 1.16239e-05 2.9228e-05)
(-3.58945e-06 -0.000189065 -1.90466e-05)
(0.000464135 -2.33371e-06 5.02605e-05)
(0.000953363 6.93984e-06 -1.29102e-06)
(0.000859042 8.75263e-06 -6.00949e-07)
(0.00086418 4.33481e-06 2.53248e-07)
(0.000854181 2.79111e-06 3.62962e-08)
(0.000849897 1.70603e-06 3.54645e-08)
(0.000846097 1.08567e-06 7.37374e-08)
(0.000843252 6.72589e-07 5.45073e-08)
(0.000840869 4.35695e-07 4.23426e-08)
(0.000838741 2.74255e-07 4.90559e-08)
(0.000836793 1.4548e-07 5.28443e-08)
(0.00083504 4.60187e-08 3.43473e-08)
(0.000833442 1.72168e-08 3.49428e-08)
(0.000831726 2.57533e-08 1.55157e-07)
(0.000829942 -2.87928e-08 5.5016e-08)
(0.000828261 -6.53123e-08 -3.52199e-08)
(0.000826722 -5.91545e-08 1.37158e-08)
(0.000825047 -1.48755e-07 -3.85916e-07)
(0.000823427 -1.11271e-07 6.79999e-08)
(0.000822052 -2.41129e-07 5.13495e-08)
(0.000820437 -1.56071e-07 5.13095e-08)
(0.000818769 -4.95789e-08 3.05372e-08)
(0.000817241 -1.17226e-09 3.51025e-08)
(0.000815773 2.11675e-08 7.61934e-08)
(0.00081428 4.73586e-08 8.9546e-08)
(0.000812722 2.20264e-08 1.95018e-08)
(0.000811218 3.40664e-09 3.83872e-08)
(0.00080973 -2.48737e-08 -2.94687e-07)
(0.000808183 -9.51286e-10 6.11204e-08)
(0.000806675 -9.85203e-08 4.06048e-08)
(0.000805219 -1.36862e-07 2.14676e-08)
(0.000803631 -8.0312e-08 4.01511e-08)
(0.000802062 4.47812e-08 4.20473e-08)
(0.000800918 2.76908e-07 -5.91957e-08)
(0.000799744 2.15467e-07 5.90478e-08)
(0.000797928 4.07282e-07 7.2858e-09)
(0.00079623 9.48245e-08 3.24054e-08)
(0.000794776 -2.70112e-07 4.76658e-08)
(0.000793117 1.23352e-07 -3.63372e-09)
(0.000791645 -7.59133e-08 4.5899e-08)
(0.000790133 -2.95085e-07 -5.04833e-07)
(0.000788905 -7.44497e-07 -4.27003e-08)
(0.000787874 -3.2187e-07 -4.16441e-08)
(0.00078662 8.70063e-09 7.92236e-08)
(0.000651962 -2.28272e-05 -3.62426e-06)
(0.000981766 -1.06939e-05 1.30317e-06)
(0.000871331 -7.92766e-05 3.69753e-07)
(0.00089901 1.22502e-05 8.07897e-06)
(0.000438775 -0.000163455 1.09277e-05)
(-0.000583457 -0.000625623 -2.1246e-05)
(0.000184536 0.000130119 1.26987e-05)
(0.000896833 2.3092e-05 -2.34043e-06)
(0.000857582 2.089e-05 -1.64705e-07)
(0.000856803 1.1412e-05 9.47952e-08)
(0.000850912 7.13644e-06 4.11662e-08)
(0.000847691 4.305e-06 5.24394e-08)
(0.000844813 2.63209e-06 4.94576e-08)
(0.00084245 1.62359e-06 5.11519e-08)
(0.000840365 9.78888e-07 5.14627e-08)
(0.000838452 5.85173e-07 5.28942e-08)
(0.000836669 3.5288e-07 5.32644e-08)
(0.000834958 2.32889e-07 1.76334e-08)
(0.000833221 1.24523e-07 2.46912e-07)
(0.000831521 -3.8332e-08 5.29297e-08)
(0.000829885 -1.21785e-07 6.23393e-08)
(0.000828313 -9.18616e-08 6.27613e-08)
(0.000826694 -9.45425e-08 9.13393e-08)
(0.000825144 -1.21279e-07 3.98684e-08)
(0.000823534 -3.61922e-08 4.44198e-08)
(0.000821905 -3.16549e-08 4.3326e-08)
(0.000820442 -4.53117e-08 4.60191e-08)
(0.00081888 1.71732e-08 7.42326e-08)
(0.000817349 7.34503e-08 5.74019e-08)
(0.000815839 1.35318e-07 5.48222e-08)
(0.000814259 1.00002e-07 5.00541e-08)
(0.000812675 5.08288e-08 4.95779e-08)
(0.000811137 1.17505e-08 4.22455e-08)
(0.000809622 -3.02119e-08 4.84756e-08)
(0.000808092 -1.09311e-07 4.14409e-08)
(0.000806589 -1.83191e-07 1.61242e-08)
(0.000805135 -1.53484e-07 5.1455e-08)
(0.000803863 -7.10655e-08 6.43325e-08)
(0.00080256 2.59579e-08 7.39127e-08)
(0.000800921 1.73067e-07 5.04343e-08)
(0.000799565 -7.68783e-08 5.86637e-08)
(0.000797867 -4.28329e-07 3.70891e-08)
(0.000796023 -1.43866e-07 -3.05029e-08)
(0.000794761 -1.86747e-07 5.88763e-08)
(0.000793131 -2.16377e-07 6.43843e-08)
(0.000791454 -4.03168e-08 4.14476e-08)
(0.000789726 -8.94622e-08 -2.4844e-07)
(0.000789009 -4.26548e-08 6.57342e-08)
(0.000788569 -4.0584e-07 3.09246e-08)
(0.000786489 -2.36647e-07 1.18761e-08)
(0.000676137 -4.65596e-05 -4.84487e-06)
(0.000960351 -3.42883e-05 2.43482e-06)
(0.000847075 -0.000117824 -2.59587e-06)
(0.000843691 -6.50081e-05 6.64981e-06)
(0.000297476 -0.000152716 6.046e-06)
(0.000235644 -0.000309761 1.21721e-05)
(0.000359007 0.000137983 6.94759e-06)
(0.000854083 3.60672e-05 -2.53711e-06)
(0.000842356 2.20145e-05 -4.99221e-08)
(0.000846853 1.334e-05 9.51398e-08)
(0.000845219 8.26305e-06 4.85715e-08)
(0.000844219 5.11249e-06 5.61941e-08)
(0.000842716 3.17016e-06 5.17553e-08)
(0.000841167 1.96877e-06 5.20816e-08)
(0.000839559 1.20968e-06 5.08389e-08)
(0.000837952 7.27373e-07 5.45397e-08)
(0.000836348 4.29548e-07 8.4201e-08)
(0.000834752 1.91906e-07 4.1123e-08)
(0.000833101 2.23588e-08 -1.97669e-08)
(0.000831417 -4.7967e-09 9.40982e-08)
(0.000829875 -1.1945e-08 3.8969e-08)
(0.000828294 7.4072e-09 6.18039e-08)
(0.000826686 5.33543e-09 5.51015e-08)
(0.000825119 6.31581e-08 5.4018e-08)
(0.000823538 -8.79962e-09 4.91048e-08)
(0.00082204 6.74895e-08 6.24702e-08)
(0.000820498 5.49049e-08 3.63474e-08)
(0.000818918 6.75917e-08 6.27056e-08)
(0.000817389 1.15143e-07 6.00819e-08)
(0.000815806 4.1896e-08 1.17188e-07)
(0.000814175 -8.81892e-09 4.23745e-08)
(0.000812612 -2.28802e-08 4.80107e-08)
(0.000811117 -1.9835e-08 4.98604e-08)
(0.000809579 -9.46894e-09 5.39759e-08)
(0.000807992 -7.94205e-08 5.13981e-08)
(0.000806621 -3.52381e-07 6.41256e-08)
(0.00080536 -2.75104e-07 6.25426e-08)
(0.000803856 -8.5989e-08 2.47674e-08)
(0.000802366 -1.48493e-07 7.0359e-08)
(0.000800789 -2.38581e-07 1.04125e-07)
(0.000798992 -1.74516e-07 3.76756e-08)
(0.000797844 -3.67691e-07 5.75221e-08)
(0.000796532 -1.15438e-07 -1.38538e-08)
(0.000794686 -1.18924e-07 3.58919e-08)
(0.000793301 -3.90625e-08 4.09936e-08)
(0.000791805 1.85919e-07 4.99592e-08)
(0.000790132 3.75178e-07 3.99897e-08)
(0.000788511 1.19016e-06 4.03083e-08)
(0.000787633 2.15551e-07 7.4336e-08)
(0.000787425 -7.02106e-08 8.39154e-08)
(0.000689198 -3.0145e-05 -5.37513e-06)
(0.000923816 7.6286e-06 1.08897e-06)
(0.000851072 -0.000143948 9.81062e-07)
(0.000655519 0.000115674 9.11841e-06)
(0.00013256 -0.000319972 3.5823e-06)
(0.00061849 -0.00021422 -2.68903e-05)
(0.000465903 5.19631e-05 -1.21549e-06)
(0.00084209 1.88585e-05 -2.14098e-06)
(0.000829602 1.22113e-05 -9.07557e-08)
(0.000839463 8.52447e-06 1.12253e-07)
(0.000840535 5.65187e-06 5.41096e-08)
(0.000841268 3.67417e-06 5.97695e-08)
(0.000840848 2.28855e-06 6.96998e-08)
(0.000839977 1.49883e-06 5.36797e-08)
(0.0008388 9.42726e-07 4.01529e-08)
(0.000837468 5.71154e-07 5.77308e-08)
(0.000835995 3.22287e-07 -8.80764e-08)
(0.000834446 1.65974e-07 2.82932e-08)
(0.000832974 1.51209e-08 6.36622e-08)
(0.000831478 -2.13835e-08 4.16674e-08)
(0.0008299 3.81338e-08 4.43265e-08)
(0.000828335 2.65958e-08 7.57372e-08)
(0.000826763 5.92919e-08 5.33903e-08)
(0.000825126 4.49182e-08 4.7469e-08)
(0.00082354 1.49796e-07 6.32722e-08)
(0.000821985 1.75273e-07 7.40907e-08)
(0.000820442 1.09567e-07 4.17649e-08)
(0.000818955 6.15562e-08 1.14291e-07)
(0.000817317 2.71781e-08 1.0828e-07)
(0.000815684 -5.64611e-08 6.11931e-08)
(0.000814178 -7.03574e-08 3.35564e-08)
(0.000812661 -7.90775e-09 4.47637e-08)
(0.000811153 8.16757e-08 5.83354e-08)
(0.000809548 1.61309e-07 5.58234e-08)
(0.000807664 1.77657e-07 2.96996e-08)
(0.000806344 1.71358e-07 4.56533e-08)
(0.000805467 2.51168e-07 1.10553e-07)
(0.000804021 2.48204e-08 1.21795e-07)
(0.000802368 5.3302e-09 5.00471e-08)
(0.000800889 -5.61216e-08 4.1829e-08)
(0.000799403 4.00113e-09 6.35825e-08)
(0.000797942 3.08545e-07 5.18959e-08)
(0.000796334 4.44178e-07 3.37217e-08)
(0.000794856 2.4856e-07 -4.77985e-09)
(0.000793512 1.37443e-07 4.71454e-08)
(0.000791973 1.11648e-07 5.31968e-08)
(0.000790981 4.02861e-07 4.97191e-08)
(0.000788808 7.6921e-07 8.3144e-08)
(0.000786995 1.46283e-06 4.51873e-08)
(0.000786306 4.1255e-07 5.26696e-08)
(0.000740574 -1.34325e-05 -4.36984e-06)
(0.000841792 2.70193e-05 3.02185e-06)
(0.000981556 -6.01336e-05 -5.35409e-06)
(0.000501705 0.000120093 4.90113e-06)
(0.000488881 -0.000157411 6.16795e-06)
(0.000487209 -0.00161229 -5.73873e-05)
(0.000450062 -4.83817e-05 -7.27305e-07)
(0.000853849 2.2443e-06 -2.20895e-06)
(0.000829747 2.79378e-06 -2.05705e-07)
(0.000838563 2.52418e-06 9.31221e-08)
(0.000839094 1.86514e-06 7.46854e-08)
(0.000839974 1.29506e-06 3.29541e-08)
(0.000839971 8.98003e-07 3.43183e-07)
(0.000839468 5.51231e-07 -9.18891e-08)
(0.00083839 3.41988e-07 5.63861e-08)
(0.000837169 1.84979e-07 4.77815e-08)
(0.000835837 9.15913e-08 5.62331e-08)
(0.000834366 2.2502e-08 4.32674e-08)
(0.000832865 -2.39314e-08 6.70767e-08)
(0.000831445 1.11487e-08 7.87045e-08)
(0.000829934 -2.16692e-08 3.47895e-08)
(0.000828321 -5.07806e-08 4.86571e-09)
(0.000826708 -8.20347e-08 5.86799e-08)
(0.000825233 -6.42461e-08 5.97933e-08)
(0.000823701 -1.17241e-08 7.12717e-08)
(0.00082199 2.42667e-09 -3.87296e-08)
(0.000820356 3.70612e-08 2.77217e-08)
(0.000818815 -2.20576e-08 5.85598e-08)
(0.000817241 -1.10164e-07 6.94882e-08)
(0.000815684 1.14417e-09 4.86331e-08)
(0.000814235 4.73143e-08 4.73775e-08)
(0.000812802 1.11828e-07 5.6909e-08)
(0.000811329 1.69341e-07 6.24864e-08)
(0.000809699 1.79376e-07 -3.97419e-08)
(0.000808004 4.79053e-07 1.03129e-07)
(0.000806712 1.17752e-06 5.71866e-08)
(0.000805177 8.67532e-07 -4.49679e-08)
(0.000803549 5.06756e-07 6.70113e-08)
(0.000802266 1.98296e-07 2.22205e-08)
(0.000800788 1.0931e-07 5.10432e-08)
(0.000799448 1.21191e-07 4.10428e-08)
(0.000798394 -1.5645e-08 3.90549e-08)
(0.000796457 -1.99788e-07 5.71277e-08)
(0.000794302 -9.61188e-08 4.57963e-08)
(0.00079313 -3.79165e-08 7.4375e-08)
(0.000792137 -1.39045e-07 9.94152e-08)
(0.000790952 -1.1009e-08 1.0044e-07)
(0.000789833 -3.20741e-07 3.49477e-08)
(0.000787185 3.57426e-07 3.56914e-08)
(0.000785077 2.21593e-07 7.39965e-08)
(0.0012146 9.18522e-06 4.20233e-07)
(0.00137784 -6.52018e-05 1.22487e-06)
(0.00161939 0.000124369 5.86904e-06)
(0.00088649 -0.00028761 1.97904e-05)
(0.00268812 0.000435344 1.24416e-05)
(0.00230084 0.000138113 8.97208e-05)
(0.00154951 0.000143847 -7.36997e-07)
(0.00142138 -1.73692e-06 3.56233e-07)
(0.00138162 -3.24811e-06 3.45172e-07)
(0.00139685 -3.47804e-06 3.42043e-07)
(0.00139811 -2.64235e-06 4.02774e-07)
(0.00139993 -1.85289e-06 4.01027e-07)
(0.0013997 -1.12379e-06 6.46399e-07)
(0.00139863 -7.98039e-07 3.46102e-07)
(0.00139712 -5.08606e-07 3.55242e-07)
(0.00139515 -2.22482e-07 4.17396e-07)
(0.00139289 -1.79751e-07 3.6687e-07)
(0.00139047 -1.58778e-07 3.75772e-07)
(0.00138814 9.06573e-10 3.82601e-07)
(0.00138563 4.50824e-09 2.85527e-07)
(0.00138295 -1.12147e-07 5.09099e-07)
(0.00138035 -1.18815e-07 3.83226e-07)
(0.00137781 -1.67058e-08 4.33942e-07)
(0.00137523 -3.98407e-08 3.1178e-07)
(0.00137257 -2.01823e-07 3.62246e-07)
(0.00136995 -2.25978e-07 3.77441e-07)
(0.00136727 -1.47838e-07 3.34231e-07)
(0.00136458 -1.01046e-07 3.41383e-07)
(0.00136215 -4.01766e-08 2.74413e-07)
(0.00135968 6.25953e-08 3.20087e-07)
(0.00135708 2.05443e-07 3.62292e-07)
(0.00135452 2.6134e-07 3.72303e-07)
(0.00135193 3.28505e-07 3.37338e-07)
(0.00134975 3.18265e-07 4.31203e-07)
(0.00134792 4.81627e-07 3.25018e-07)
(0.00134455 4.44959e-07 3.50634e-07)
(0.00134108 4.19269e-07 3.67352e-07)
(0.00133872 5.4698e-07 1.8272e-07)
(0.00133644 5.44991e-07 2.74542e-07)
(0.0013345 4.47837e-07 3.04269e-07)
(0.00133194 5.22824e-08 3.3507e-07)
(0.00132912 -4.28148e-07 3.60294e-07)
(0.00132682 -1.45279e-06 3.07949e-07)
(0.0013249 -5.40476e-07 2.85587e-07)
(0.00132236 -9.77619e-08 3.60655e-07)
(0.0013199 6.82111e-08 4.23024e-07)
(0.00131774 -3.72652e-07 3.21018e-07)
(0.00131523 -6.26183e-07 2.97955e-07)
(0.00131263 -1.29705e-06 3.18657e-07)
(0.00130932 -3.69135e-07 3.63605e-07)
(0.00112336 4.40858e-05 -8.76354e-07)
(0.00149835 -5.25906e-05 3.85355e-07)
(0.00137519 0.000182723 1.89064e-06)
(0.00121342 -0.000252731 2.6209e-06)
(0.0023103 0.00051083 4.41178e-06)
(0.000929586 -0.0012356 0.000404461)
(0.00129039 -0.000101114 -5.52644e-07)
(0.00139896 -3.26421e-05 3.48238e-07)
(0.00138202 -2.0011e-05 3.35174e-07)
(0.00139816 -1.40796e-05 3.47452e-07)
(0.00140036 -9.328e-06 3.50197e-07)
(0.00140172 -6.11698e-06 3.50879e-07)
(0.00140114 -4.02034e-06 3.51011e-07)
(0.00139977 -2.51807e-06 3.51134e-07)
(0.00139795 -1.57402e-06 2.97306e-07)
(0.0013956 -9.67633e-07 1.92836e-07)
(0.00139304 -5.0525e-07 -1.76405e-07)
(0.00139074 -1.15278e-07 1.63473e-07)
(0.00138825 1.30424e-07 2.99416e-07)
(0.00138552 -1.55412e-09 2.87082e-07)
(0.00138296 5.16942e-08 2.16505e-07)
(0.00138056 2.78143e-08 3.98073e-07)
(0.00137784 -2.50183e-08 2.51245e-07)
(0.001375 -8.36665e-08 3.25228e-07)
(0.00137241 -1.0873e-07 3.59817e-07)
(0.00136994 -1.31069e-07 3.18726e-07)
(0.00136737 -1.67424e-07 3.05149e-07)
(0.00136477 3.85829e-09 3.42061e-07)
(0.00136224 1.73746e-07 3.43361e-07)
(0.00135976 1.15573e-07 3.72622e-07)
(0.00135722 9.93419e-08 3.69382e-07)
(0.00135467 6.50684e-08 2.56059e-07)
(0.0013521 4.97975e-08 2.97426e-07)
(0.00134957 7.57191e-08 2.70978e-07)
(0.00134679 -2.19415e-07 3.48133e-07)
(0.00134435 -4.0829e-07 3.32006e-07)
(0.001342 -1.94811e-07 3.4094e-07)
(0.00133932 6.37609e-08 3.45755e-08)
(0.00133683 3.28669e-07 3.93857e-07)
(0.00133389 4.4695e-07 2.65894e-07)
(0.00133115 -1.25512e-07 3.11053e-07)
(0.00132852 -1.35413e-07 4.09785e-07)
(0.00132709 -8.35854e-08 2.93991e-07)
(0.00132545 -4.1819e-07 3.40527e-07)
(0.00132256 -3.66325e-07 3.30915e-07)
(0.00131974 3.12379e-08 3.39792e-07)
(0.00131716 -1.05249e-07 3.0857e-07)
(0.00131492 -2.16558e-07 3.40875e-07)
(0.00131219 -5.06237e-07 3.46599e-07)
(0.00131073 -5.1899e-07 3.00123e-07)
(0.00109875 6.57341e-05 1.60452e-06)
(0.00154449 3.60895e-05 1.617e-06)
(0.00134521 0.000149457 -1.5168e-06)
(0.001351 0.000101596 5.6806e-06)
(0.00148531 -0.000228273 -1.29787e-05)
(0.00189451 -0.000884547 -0.000269997)
(0.0013598 7.41286e-05 3.03412e-07)
(0.00141606 -6.21006e-05 3.39682e-07)
(0.00140415 -3.71622e-05 4.75087e-07)
(0.00141034 -2.25663e-05 3.5297e-07)
(0.00140816 -1.3971e-05 3.51835e-07)
(0.00140663 -8.65714e-06 3.5224e-07)
(0.00140424 -5.41068e-06 3.49848e-07)
(0.00140172 -3.36969e-06 3.5038e-07)
(0.00139907 -2.10885e-06 3.49745e-07)
(0.0013965 -1.37195e-06 4.26831e-07)
(0.00139397 -7.43738e-07 4.71587e-07)
(0.00139127 -3.42599e-07 2.468e-07)
(0.00138828 -3.10756e-07 5.08296e-07)
(0.00138554 -1.04684e-07 3.76648e-07)
(0.00138299 5.54263e-08 4.59443e-07)
(0.00138025 5.26874e-08 3.2281e-07)
(0.00137767 -4.42993e-08 3.37172e-07)
(0.00137512 -5.13486e-08 1.42739e-07)
(0.00137251 9.37775e-08 2.62712e-07)
(0.00136987 7.77332e-08 3.38157e-07)
(0.00136743 8.76266e-08 3.78563e-07)
(0.00136501 1.12016e-07 3.42216e-07)
(0.00136229 1.03694e-07 4.22745e-07)
(0.00135958 2.14589e-08 3.69465e-07)
(0.00135702 -1.16918e-07 3.14766e-07)
(0.00135445 -1.88675e-07 3.12312e-07)
(0.00135194 -2.68584e-07 3.02263e-07)
(0.00134941 -3.2303e-07 2.93047e-07)
(0.00134731 -4.10831e-07 3.3297e-07)
(0.00134458 -2.59075e-07 2.9023e-07)
(0.00134167 -3.02483e-07 3.31614e-07)
(0.00133938 -2.17747e-07 2.75294e-07)
(0.00133692 -2.72797e-07 3.14673e-07)
(0.00133393 -4.22236e-07 4.99147e-07)
(0.00133121 1.41272e-07 3.49609e-07)
(0.00132917 2.07237e-07 4.0954e-07)
(0.00132647 6.87583e-07 4.17174e-07)
(0.00132454 -7.6901e-09 3.10865e-07)
(0.00132292 9.90748e-08 3.75671e-07)
(0.00132022 -1.28191e-07 3.31816e-07)
(0.00131743 1.98373e-07 3.03732e-07)
(0.00131473 7.64316e-08 3.9322e-07)
(0.00131225 1.789e-07 3.43403e-07)
(0.0013106 1.1477e-07 2.89585e-07)
(0.00109075 6.46621e-05 -2.53009e-07)
(0.00158874 4.09963e-05 8.44607e-07)
(0.00143538 0.000170741 9.18299e-07)
(0.00139961 3.25924e-05 1.92597e-06)
(0.00205137 0.000417681 -2.61743e-05)
(0.0010647 0.000514639 -0.00012132)
(0.00255768 -0.000483468 3.29751e-05)
(0.00147863 -3.92441e-05 3.62391e-07)
(0.0014306 -3.62433e-05 3.91207e-07)
(0.00142741 -1.98228e-05 3.1094e-07)
(0.0014179 -1.23538e-05 3.52197e-07)
(0.00141252 -7.50651e-06 3.53363e-07)
(0.00140781 -4.64469e-06 3.59463e-07)
(0.00140393 -2.85466e-06 3.48897e-07)
(0.00140047 -1.77232e-06 3.47649e-07)
(0.00139732 -1.05845e-06 3.50999e-07)
(0.00139434 -6.55804e-07 3.36194e-07)
(0.00139128 -3.94998e-07 5.5576e-07)
(0.00138855 -2.72289e-07 3.93384e-07)
(0.00138598 -1.01566e-07 4.26544e-07)
(0.00138316 -1.80906e-09 4.01979e-07)
(0.00138043 8.9514e-08 3.44796e-07)
(0.00137771 1.71736e-07 3.71433e-07)
(0.00137518 2.56836e-07 4.18272e-07)
(0.00137258 2.5476e-07 2.72141e-07)
(0.00136993 3.53078e-07 4.37307e-07)
(0.00136742 2.5297e-07 3.28463e-07)
(0.00136479 1.70933e-08 3.43115e-07)
(0.00136212 -1.66097e-07 3.71951e-07)
(0.00135948 -1.85874e-07 3.09775e-07)
(0.00135696 -1.97755e-07 3.23986e-07)
(0.00135448 -1.98341e-07 3.66356e-07)
(0.00135193 -2.15328e-07 3.29537e-07)
(0.00134939 -2.45667e-07 3.43501e-07)
(0.00134687 -3.17856e-07 7.42029e-08)
(0.00134448 -6.17827e-07 4.77584e-07)
(0.00134205 -4.68454e-07 4.91906e-07)
(0.00133936 -5.56709e-07 3.35434e-07)
(0.00133658 -4.03214e-07 -8.27297e-09)
(0.00133441 -6.07602e-07 1.04464e-07)
(0.00133194 -8.08991e-08 2.26581e-07)
(0.0013292 1.15295e-07 2.9938e-07)
(0.00132682 3.80014e-07 4.52748e-07)
(0.00132471 1.16914e-06 3.49361e-07)
(0.00132241 2.64141e-07 3.89396e-07)
(0.00131987 -2.08075e-08 2.84498e-07)
(0.00131742 -9.41479e-08 3.09117e-07)
(0.0013149 -4.49836e-08 9.20941e-08)
(0.00131224 1.23291e-07 3.2323e-07)
(0.00131036 2.70486e-07 3.5738e-07)
(0.00107097 3.3545e-05 8.14716e-07)
(0.0016657 1.58118e-05 5.13232e-07)
(0.00134945 0.000113013 2.50061e-06)
(0.00169328 -5.84872e-05 6.57107e-06)
(0.00149489 0.000564482 -2.74519e-05)
(0.00240165 0.00111438 -0.000419972)
(0.00106211 -0.000471722 5.0102e-05)
(0.00159034 -1.06885e-05 4.10677e-07)
(0.00143267 -1.50455e-05 3.57814e-07)
(0.00144045 -7.38351e-06 1.98131e-07)
(0.00142369 -4.8395e-06 3.775e-07)
(0.00141635 -2.87979e-06 2.48106e-07)
(0.00141011 -1.75311e-06 2.69124e-07)
(0.00140534 -1.06939e-06 3.50821e-07)
(0.00140134 -6.30894e-07 3.60575e-07)
(0.00139791 -3.67222e-07 3.54822e-07)
(0.0013948 -2.40754e-07 3.52202e-07)
(0.00139175 -1.91557e-07 3.35011e-07)
(0.00138865 3.96172e-08 3.34151e-07)
(0.00138588 1.27233e-07 3.91055e-07)
(0.00138323 1.12687e-07 3.72139e-07)
(0.00138047 1.06589e-07 2.5006e-07)
(0.00137788 7.70455e-08 2.81765e-07)
(0.00137523 1.41116e-07 3.67924e-07)
(0.00137263 -4.70251e-08 3.07254e-07)
(0.00136987 -7.73421e-09 3.33298e-07)
(0.00136701 9.06183e-09 4.13857e-07)
(0.00136449 -9.16231e-08 3.63858e-07)
(0.00136203 -1.6956e-07 2.79604e-07)
(0.00135954 -1.60072e-07 2.91373e-07)
(0.001357 -1.23066e-07 3.74143e-07)
(0.00135443 -1.38544e-07 3.59407e-07)
(0.00135188 -1.70428e-07 9.47321e-07)
(0.00134928 -1.57385e-07 3.36846e-07)
(0.00134685 -1.1298e-07 3.3442e-07)
(0.0013444 -1.32004e-07 3.32564e-07)
(0.00134174 -1.89775e-07 4.2305e-08)
(0.00133946 -2.19597e-07 3.12396e-07)
(0.00133685 -2.85341e-07 5.24374e-07)
(0.00133433 -1.82138e-07 1.66368e-07)
(0.00133211 -1.08713e-07 4.0913e-07)
(0.00132975 3.51596e-07 2.3677e-07)
(0.00132778 2.86898e-07 1.48124e-07)
(0.0013244 4.68776e-07 5.27361e-07)
(0.00132144 1.64113e-07 3.18707e-07)
(0.00131978 3.46371e-09 2.82872e-07)
(0.0013174 -2.26033e-07 2.64493e-07)
(0.00131501 -4.22125e-07 1.09931e-07)
(0.00131265 -4.03977e-07 3.03223e-07)
(0.00131011 3.04763e-08 3.23185e-07)
(0.00107168 -1.44155e-06 -1.29301e-06)
(0.00167615 1.74719e-05 1.14216e-06)
(0.00133918 -7.56265e-06 -1.36263e-06)
(0.00179909 0.000103428 2.27729e-06)
(0.00107931 -0.000126883 0.000155543)
(-0.000364544 -0.00130393 -6.83188e-05)
(0.00150963 -2.13755e-05 7.73608e-05)
(0.00158914 1.14658e-05 3.94986e-07)
(0.00143194 1.44143e-05 3.58477e-07)
(0.00144026 7.15116e-06 4.56944e-07)
(0.00142359 4.59565e-06 4.76992e-07)
(0.00141642 2.79638e-06 3.31673e-07)
(0.0014101 1.7585e-06 1.64225e-07)
(0.00140535 1.08899e-06 3.52902e-07)
(0.00140136 7.02687e-07 3.45524e-07)
(0.00139782 4.43691e-07 3.46324e-07)
(0.00139456 2.39697e-07 3.49134e-07)