/*--------------------------------*- C++ -*----------------------------------*\
| =========                 |                                                 |
| \\      /  F ield         | OpenFOAM: The Open Source CFD Toolbox           |
|  \\    /   O peration     | Version:  5.0                                   |
|   \\  /    A nd           | Web:      www.OpenFOAM.org                      |
|    \\/     M anipulation  |                                                 |
\*---------------------------------------------------------------------------*/
FoamFile
{
    version     2.0;
    format      ascii;
    class       volVectorField;
    location    "0.1";
    object      U_0;
}
// * * * * * * * * * * * * * * * * * * * * * * * * * * * * * * * * * * * * * //

dimensions      [0 1 -1 0 0 0 0];

internalField   nonuniform List<vector> 
4398
(
(0.000737119 3.25626e-06 -4.91157e-06)
(0.000844035 -3.75079e-05 3.0245e-06)
(0.000942982 8.06025e-05 -3.29426e-07)
(0.000475792 -0.000151316 9.33014e-06)
(0.00081441 0.000109017 -6.45153e-06)
(0.000605012 -2.3418e-05 6.86265e-05)
(0.000519615 5.06459e-05 -1.78782e-06)
(0.000851697 5.45755e-07 -2.1502e-06)
(0.000827643 -1.06063e-06 -2.1793e-07)
(0.000837229 -1.62266e-06 1.05431e-07)
(0.000838227 -1.31062e-06 2.06948e-07)
(0.00083957 -9.01352e-07 5.62407e-08)
(0.00083947 -4.64019e-07 7.7784e-08)
(0.000838774 -3.14071e-07 4.4432e-08)
(0.000837998 -2.16609e-07 4.54896e-08)
(0.000836853 -1.13333e-07 -9.12785e-09)
(0.000835553 -7.51334e-08 4.70946e-08)
(0.000834281 -1.50531e-08 1.60156e-08)
(0.000832563 -5.87843e-08 3.37052e-08)
(0.000830952 -8.26088e-08 4.94847e-08)
(0.000829592 -5.51825e-08 6.36588e-08)
(0.000828002 -3.62372e-08 4.21021e-08)
(0.000826445 -8.62901e-08 6.33393e-08)
(0.000824855 -1.15228e-07 5.31509e-08)
(0.000823232 7.57436e-08 1.98432e-08)
(0.000821632 1.18879e-07 3.33552e-08)
(0.000820173 8.99018e-08 6.57857e-08)
(0.000818762 6.19898e-08 5.04382e-08)
(0.000817065 5.17409e-08 1.17924e-07)
(0.000815465 -6.14924e-08 6.9352e-08)
(0.000813983 -2.09893e-07 3.80045e-08)
(0.000812345 -2.1887e-07 2.04914e-08)
(0.000810925 -1.88201e-07 6.61758e-08)
(0.00080943 -1.16807e-07 5.73824e-08)
(0.000807771 -1.1578e-07 7.01304e-08)
(0.000806291 -3.32722e-07 2.21783e-08)
(0.00080507 -1.75902e-07 -1.88941e-08)
(0.000803773 -2.59175e-07 5.14006e-08)
(0.000801999 -1.93739e-07 1.41212e-07)
(0.000800339 -3.67075e-09 -1.13627e-08)
(0.000798924 -3.51686e-08 5.1677e-08)
(0.00079734 9.33218e-08 1.45756e-08)
(0.000795553 2.06095e-07 1.10694e-07)
(0.000794477 5.76442e-07 -4.65533e-08)
(0.00079342 3.35265e-07 4.16248e-08)
(0.000791805 1.71496e-07 1.23742e-07)
(0.000790223 4.99779e-08 3.7327e-08)
(0.000788647 5.97299e-08 3.6079e-08)
(0.000787301 1.0314e-07 5.90984e-08)
(0.000786143 1.76437e-07 7.60725e-08)
(0.000692147 3.28831e-05 -5.31173e-06)
(0.000923197 -2.82847e-05 2.06877e-06)
(0.000831413 9.19072e-05 -1.45922e-06)
(0.000775532 -0.000133032 4.84752e-06)
(0.000763606 0.000145852 5.13629e-06)
(0.00323312 0.00089227 8.9319e-05)
(0.000424345 -3.41981e-05 -7.52191e-07)
(0.000835162 -1.87371e-05 -2.13052e-06)
(0.000826684 -1.21648e-05 -1.08948e-07)
(0.000837493 -8.58092e-06 1.13121e-07)
(0.000839317 -5.73789e-06 5.20544e-08)
(0.000840432 -3.80997e-06 5.64033e-08)
(0.000840233 -2.59516e-06 5.27724e-08)
(0.000839489 -1.66039e-06 4.95317e-08)
(0.000838403 -1.05656e-06 1.23084e-07)
(0.000837144 -7.53317e-07 7.50694e-08)
(0.00083575 -4.57503e-07 3.66347e-08)
(0.00083419 -3.47249e-07 1.21691e-08)
(0.00083267 -3.3987e-07 9.88663e-08)
(0.000831146 -1.26183e-07 3.58397e-08)
(0.000829562 -1.66767e-08 4.36492e-08)
(0.000827966 -5.7851e-08 4.68795e-08)
(0.000826358 7.09419e-08 9.95218e-08)
(0.00082496 6.78607e-08 5.99756e-08)
(0.000823443 7.52148e-08 3.95358e-08)
(0.000821759 1.10876e-07 6.47393e-08)
(0.000820195 1.03058e-07 6.92782e-08)
(0.000818653 -1.09923e-08 5.12627e-08)
(0.000817041 -2.23758e-07 4.33138e-08)
(0.000815338 -1.27759e-07 9.13236e-09)
(0.000813805 -1.10579e-07 3.55685e-08)
(0.000812399 -3.37388e-08 3.78484e-08)
(0.000810931 1.17021e-07 7.79204e-08)
(0.000809445 4.19431e-08 8.16351e-08)
(0.000807765 5.06591e-08 5.94509e-08)
(0.000806468 1.83875e-07 6.05332e-08)
(0.00080502 5.62562e-08 6.86925e-08)
(0.000803279 -1.23226e-07 3.65685e-08)
(0.000802068 -3.57937e-07 6.25995e-08)
(0.000800647 -2.30003e-07 7.93798e-08)
(0.000799175 -1.43483e-07 3.42048e-08)
(0.000797815 6.27207e-08 -5.65501e-08)
(0.000796429 4.71854e-07 3.09056e-08)
(0.000794437 5.41889e-07 7.72399e-08)
(0.000792629 2.89797e-07 3.31847e-08)
(0.000791431 1.24948e-07 4.35294e-08)
(0.000790105 -1.8075e-08 5.66092e-08)
(0.00078882 5.4992e-09 5.43817e-08)
(0.000787269 3.68736e-08 8.54163e-08)
(0.000785949 1.25404e-08 8.21196e-08)
(0.000668003 3.95688e-05 -3.77151e-06)
(0.00092102 2.08516e-05 2.36577e-06)
(0.00080758 8.29791e-05 -9.98031e-08)
(0.000677395 5.0222e-05 8.66298e-06)
(0.000361062 2.21269e-05 -2.34545e-05)
(0.000852893 0.0003131 -3.9296e-06)
(0.0004348 2.47151e-05 -2.27669e-06)
(0.000849709 -4.08067e-05 -2.41814e-06)
(0.000840042 -2.43501e-05 -1.41948e-07)
(0.000845345 -1.46468e-05 9.44268e-08)
(0.000844249 -9.02136e-06 4.63943e-08)
(0.000843538 -5.56674e-06 5.68188e-08)
(0.000842183 -3.46627e-06 5.54393e-08)
(0.000840714 -2.16892e-06 5.39527e-08)
(0.000839143 -1.36481e-06 5.2616e-08)
(0.000837609 -8.65549e-07 2.46354e-08)
(0.000836065 -5.6246e-07 5.9955e-08)
(0.000834431 -4.00592e-07 8.20402e-08)
(0.000832841 -2.7538e-07 -7.46585e-10)
(0.000831356 -1.37419e-07 3.80145e-08)
(0.000829677 -1.62969e-07 6.95845e-08)
(0.000828111 -8.54822e-08 4.86917e-08)
(0.000826601 -8.12956e-08 6.58126e-08)
(0.000824858 -2.94441e-08 3.66447e-08)
(0.000823284 -1.22342e-07 5.81739e-08)
(0.000821665 -1.36565e-07 4.80585e-08)
(0.000820018 -1.09903e-08 2.95299e-08)
(0.000818353 -1.28655e-07 5.60582e-08)
(0.000816919 -1.00092e-07 -3.17322e-08)
(0.000815607 -2.11757e-08 2.59946e-08)
(0.0008141 1.25096e-07 6.18565e-08)
(0.000812629 1.9342e-07 6.67816e-08)
(0.000811019 1.50458e-07 8.15105e-08)
(0.000809347 2.02724e-07 5.90142e-08)
(0.000807948 1.75195e-07 5.2662e-08)
(0.000806297 3.8256e-07 5.91516e-08)
(0.000804686 6.74811e-08 5.44795e-08)
(0.000803257 1.17834e-07 5.46066e-08)
(0.000801867 4.75737e-08 4.74975e-08)
(0.000800609 7.98113e-09 7.23861e-08)
(0.000799291 2.57286e-07 4.84149e-08)
(0.000798108 -5.97893e-08 1.4e-08)
(0.000796149 -3.359e-07 7.78749e-09)
(0.000794246 -3.54153e-07 5.31948e-08)
(0.000792896 7.68516e-09 1.12782e-07)
(0.000791419 -2.40968e-08 5.12659e-08)
(0.000790073 -2.26617e-08 5.27157e-08)
(0.000788715 -1.65899e-07 9.78306e-08)
(0.000787306 -1.11141e-07 5.69563e-08)
(0.000786082 -1.59405e-08 8.24188e-08)
(0.000673093 3.98365e-05 -5.48001e-06)
(0.000975523 1.74919e-05 2.60913e-06)
(0.000870841 0.000113467 -1.58611e-06)
(0.000864454 6.88334e-06 5.95839e-06)
(0.000652249 0.000122911 8.34554e-06)
(0.000114017 -6.63417e-06 1.97855e-05)
(0.000564879 -7.91456e-05 7.41123e-06)
(0.000886519 -2.73815e-05 -2.81455e-06)
(0.000858975 -2.37037e-05 -1.68759e-07)
(0.000856812 -1.31143e-05 1.1557e-07)
(0.000850765 -8.15428e-06 3.61411e-08)
(0.000847436 -4.9434e-06 4.87957e-08)
(0.000844518 -2.96046e-06 4.17515e-08)
(0.000842138 -1.8581e-06 5.31276e-08)
(0.000840047 -1.10168e-06 5.35067e-08)
(0.000838156 -6.52105e-07 4.75872e-08)
(0.000836337 -4.59717e-07 2.54049e-08)
(0.000834553 -2.95694e-07 8.75658e-08)
(0.000833001 -1.99629e-07 -8.87378e-09)
(0.000831289 -1.33281e-07 4.57831e-08)
(0.000829628 -1.76842e-07 1.775e-08)
(0.000828069 -9.99938e-08 5.20436e-08)
(0.000826428 -2.1676e-07 5.71311e-08)
(0.000824908 -2.19766e-07 3.1868e-07)
(0.00082331 -2.46426e-07 7.82287e-08)
(0.000821899 -2.50508e-07 6.83317e-08)
(0.000820207 -1.45975e-07 5.21665e-08)
(0.000818544 3.60206e-08 5.20856e-08)
(0.000817177 2.52543e-07 3.32187e-08)
(0.000815621 2.11524e-07 7.58573e-08)
(0.000814073 2.01626e-07 6.46219e-08)
(0.000812431 1.23027e-07 3.52897e-08)
(0.000810942 7.96253e-08 3.6082e-08)
(0.000809475 7.1282e-08 1.18211e-08)
(0.000807987 1.09306e-07 6.36487e-08)
(0.000806331 -4.93533e-09 5.8459e-08)
(0.000804687 3.03535e-08 6.18957e-08)
(0.000803253 1.33336e-07 4.37854e-08)
(0.00080193 6.03423e-07 -1.16516e-08)
(0.000800909 4.995e-07 4.87184e-08)
(0.00079909 3.12254e-07 5.21415e-08)
(0.000797074 8.50718e-08 5.57693e-08)
(0.000796063 -4.68352e-07 1.19998e-07)
(0.000794869 -3.17267e-07 4.87225e-08)
(0.000793043 -3.36761e-07 2.06601e-07)
(0.000791393 -1.84108e-07 4.63222e-08)
(0.000789928 -2.51481e-07 6.01459e-08)
(0.00078871 -2.5274e-07 1.14257e-07)
(0.000787456 -4.23372e-08 5.80919e-08)
(0.000786109 -5.4982e-08 7.97897e-08)
(0.000644103 2.10666e-05 -3.6329e-06)
(0.00100618 5.58229e-06 1.51035e-06)
(0.000812597 6.98495e-05 2.98276e-08)
(0.000928425 -4.43377e-05 5.10042e-06)
(0.000460386 0.000213873 -9.51667e-06)
(-4.55141e-05 0.000513233 1.73642e-05)
(0.000385871 -0.00018471 3.53786e-05)
(0.000956182 -6.92188e-06 -1.29359e-06)
(0.000860148 -9.84647e-06 -6.03735e-07)
(0.000864938 -5.08745e-06 1.61389e-07)
(0.000854552 -3.40287e-06 6.94276e-09)
(0.000850084 -2.12765e-06 6.30907e-08)
(0.000846073 -1.44484e-06 -1.68616e-07)
(0.000843058 -8.84279e-07 4.73328e-08)
(0.000840663 -6.12491e-07 3.83577e-08)
(0.000838419 -3.99713e-07 4.52105e-08)
(0.000836516 -2.60557e-07 4.25643e-08)
(0.00083476 -1.86438e-07 5.30132e-08)
(0.000833047 -7.90183e-08 9.52207e-08)
(0.000831387 -1.69873e-07 5.07359e-08)
(0.00082972 -9.0408e-08 3.20061e-08)
(0.000828063 -6.3488e-08 4.26744e-08)
(0.000826454 5.66974e-08 1.24852e-07)
(0.000824824 5.18166e-08 4.29035e-08)
(0.000823249 9.33696e-08 6.84669e-08)
(0.000821794 1.47795e-07 8.17402e-08)
(0.000820379 5.77757e-09 4.15271e-08)
(0.000818851 1.58704e-07 5.0098e-08)
(0.000817138 1.37444e-07 8.37758e-08)
(0.000815542 1.48094e-07 7.69876e-08)
(0.000813989 9.20957e-08 3.05705e-08)
(0.000812476 4.79983e-08 3.58563e-08)
(0.000810954 1.32947e-07 7.41607e-08)
(0.000809383 8.93223e-08 4.70182e-08)
(0.000807852 1.63169e-07 6.04665e-08)
(0.000806197 6.86511e-08 5.54101e-08)
(0.000804857 3.47142e-07 9.93303e-08)
(0.00080397 3.2383e-07 5.50618e-08)
(0.000802321 3.1293e-07 9.43395e-08)
(0.000800241 1.6933e-07 5.60317e-08)
(0.00079877 -2.78261e-07 4.01442e-08)
(0.000797131 -1.71557e-07 -3.3311e-07)
(0.000795648 -1.24756e-08 5.20014e-08)
(0.000794412 -9.78606e-08 3.09922e-07)
(0.000793064 -9.1508e-08 5.40272e-08)
(0.000791526 9.91148e-08 4.85331e-08)
(0.000789988 4.35547e-07 1.06853e-07)
(0.000788978 5.35943e-07 4.60829e-08)
(0.000787556 1.31961e-07 2.10117e-08)
(0.000786202 -2.50429e-08 9.14903e-08)
(0.000656406 -7.90428e-07 -5.08683e-06)
(0.00103371 5.66451e-06 1.37633e-06)
(0.000832825 -1.4465e-05 -7.74885e-07)
(0.00115286 6.10245e-05 1.89371e-06)
(0.000234562 1.2937e-05 3.04761e-05)
(8.31946e-05 -0.000171888 -5.26347e-05)
(0.000471358 -4.41038e-06 5.68542e-05)
(0.000955067 5.23514e-06 -1.30593e-06)
(0.000859833 8.30535e-06 -5.90751e-07)
(0.000864931 4.07569e-06 2.70197e-07)
(0.000854501 2.61316e-06 2.93299e-08)
(0.000849908 1.52695e-06 8.68589e-08)
(0.000846087 8.08683e-07 6.30762e-09)
(0.000843189 5.09994e-07 4.84828e-08)
(0.000840659 2.62411e-07 7.26593e-08)
(0.000838601 1.42783e-07 5.86039e-08)
(0.000836607 1.20872e-07 5.47094e-08)
(0.000834782 8.08286e-08 4.46131e-08)
(0.000833024 8.49922e-08 5.69759e-08)
(0.000831276 4.20192e-08 8.28873e-08)
(0.000829763 1.02394e-07 5.49195e-08)
(0.000828253 2.62736e-08 -7.33162e-08)
(0.000826572 -1.42707e-08 9.79002e-08)
(0.000824954 3.92505e-08 1.00701e-07)
(0.000823429 9.67116e-08 2.76316e-08)
(0.000821789 1.37133e-07 1.0465e-07)
(0.000820219 9.49303e-08 6.7603e-08)
(0.000818707 -2.62742e-08 5.48869e-08)
(0.000817162 -4.85381e-08 7.17692e-08)
(0.000815563 -5.43495e-08 2.26078e-08)
(0.000813948 -8.81632e-08 1.35504e-07)
(0.000812481 -3.16145e-08 1.16157e-07)
(0.000810992 -4.726e-08 8.41184e-08)
(0.000809511 -1.75006e-08 3.61325e-08)
(0.000807961 -1.07961e-08 3.25182e-08)
(0.000806559 2.14815e-08 5.6032e-08)
(0.000805004 1.4784e-07 2.74252e-08)
(0.000803208 -1.42756e-07 -3.23921e-08)
(0.000801734 -3.62509e-07 5.47241e-08)
(0.000800169 -3.95461e-07 5.33579e-08)
(0.000798664 -2.34227e-07 8.06003e-08)
(0.000797407 -2.67939e-07 -4.97359e-08)
(0.000796156 2.7876e-09 8.89857e-08)
(0.00079477 1.245e-07 6.79292e-08)
(0.000793289 2.57407e-07 -2.14459e-07)
(0.000792049 2.95462e-07 4.60801e-08)
(0.000790471 6.80232e-07 1.339e-07)
(0.000788327 5.88706e-07 -4.22482e-08)
(0.000786753 2.44947e-07 1.62809e-07)
(0.000785974 2.39884e-07 8.03152e-08)
(0.000652908 -2.29094e-05 -3.63445e-06)
(0.00098397 -1.05096e-05 1.95875e-06)
(0.00087503 -7.96514e-05 2.8908e-07)
(0.000904714 1.32007e-05 8.21932e-06)
(0.000442918 -0.000160136 1.06942e-05)
(-0.000639733 -0.000651294 -2.11431e-05)
(0.000185797 0.000139836 1.39502e-05)
(0.000890172 2.40531e-05 -2.75831e-06)
(0.000860021 2.1443e-05 -1.73576e-07)
(0.000857772 1.18714e-05 8.19001e-08)
(0.000851338 7.45716e-06 3.46393e-08)
(0.000847812 4.54335e-06 5.22343e-08)
(0.000844792 2.87928e-06 5.39416e-08)
(0.00084237 1.75633e-06 5.31191e-08)
(0.000840201 1.16186e-06 5.11227e-08)
(0.00083824 7.38164e-07 5.24844e-08)
(0.000836437 4.69228e-07 5.49813e-08)
(0.000834714 3.00419e-07 7.02946e-09)
(0.000832998 9.04553e-08 7.36239e-08)
(0.000831408 1.8783e-07 5.37005e-08)
(0.000829701 2.05058e-07 4.76377e-08)
(0.000827917 1.17164e-07 4.93541e-08)
(0.00082647 2.10014e-07 8.92673e-08)
(0.000824963 1.41271e-07 4.95213e-08)
(0.00082337 1.96341e-07 5.54297e-08)
(0.000821791 9.74195e-08 5.96283e-08)
(0.000820174 8.08308e-08 3.89362e-08)
(0.000818672 -7.25552e-09 2.90628e-08)
(0.000817103 -8.97506e-08 4.19516e-08)
(0.000815493 -1.68202e-07 4.84322e-08)
(0.000814017 -1.06729e-07 4.49903e-08)
(0.000812527 -4.28378e-08 3.89208e-08)
(0.000810972 -6.16244e-08 5.06398e-08)
(0.000809429 -6.12178e-08 5.59031e-08)
(0.0008079 -1.0795e-07 5.57992e-08)
(0.000806394 -8.67562e-08 9.12277e-08)
(0.000804651 -1.72394e-07 4.84784e-08)
(0.000803333 7.47021e-08 7.06408e-08)
(0.000802007 -6.30761e-08 4.47611e-08)
(0.000800403 -9.24583e-08 1.61456e-07)
(0.000798932 3.67576e-08 5.09371e-08)
(0.000797429 1.94851e-07 4.5689e-08)
(0.000796139 1.80177e-07 1.78767e-08)
(0.00079473 2.28932e-08 4.53058e-08)
(0.000793276 -5.42541e-08 4.39607e-08)
(0.000792052 -1.53348e-07 4.3536e-08)
(0.000790351 -4.39967e-07 5.05333e-08)
(0.00078843 -3.2523e-07 2.07341e-08)
(0.000787113 3.28002e-08 6.04051e-08)
(0.000785598 1.59498e-07 8.7449e-08)
(0.000676824 -4.81773e-05 -4.86158e-06)
(0.000962033 -3.59491e-05 2.43926e-06)
(0.000850045 -0.000120944 -1.81464e-06)
(0.000851943 -6.90847e-05 6.66671e-06)
(0.000301616 -0.00014972 5.09565e-06)
(0.000237005 -0.000314132 3.94669e-06)
(0.000363356 0.00011701 6.0969e-06)
(0.000859843 4.03276e-05 -2.35776e-06)
(0.00084247 2.40749e-05 -1.90876e-07)
(0.000847307 1.45042e-05 9.69476e-08)
(0.00084526 8.94512e-06 4.3177e-08)
(0.000844135 5.51707e-06 5.51673e-08)
(0.000842572 3.43161e-06 5.21112e-08)
(0.000841023 2.14854e-06 5.09607e-08)
(0.000839374 1.33063e-06 5.04578e-08)
(0.000837727 8.91157e-07 4.95623e-08)
(0.000836055 5.45349e-07 5.44955e-09)
(0.000834305 3.83674e-07 6.4064e-08)
(0.000832881 2.78556e-07 6.46772e-10)
(0.000831417 1.26716e-07 4.45771e-08)
(0.000829673 4.03157e-09 6.67788e-08)
(0.000828258 9.28692e-08 4.87937e-08)
(0.000826601 -1.6198e-08 3.81246e-08)
(0.000824935 -4.65064e-08 4.74121e-08)
(0.000823373 -5.88062e-08 4.56686e-08)
(0.000821643 -6.32559e-08 6.10794e-08)
(0.000820088 -3.73294e-08 7.11275e-08)
(0.000818494 -3.85774e-08 6.44804e-08)
(0.000816961 -7.10606e-08 4.95287e-08)
(0.000815542 -2.1539e-08 2.22215e-07)
(0.000814105 2.45298e-08 7.36303e-08)
(0.000812538 1.89225e-08 5.58523e-08)
(0.00081097 6.13489e-08 4.13186e-08)
(0.000809454 4.93654e-08 4.75624e-08)
(0.000807929 1.11443e-07 5.46224e-08)
(0.000806479 1.43894e-07 5.29453e-08)
(0.000805205 2.23015e-07 5.88957e-08)
(0.000803344 3.90147e-07 2.78082e-08)
(0.000801524 2.52084e-07 8.95058e-08)
(0.000800292 3.57439e-07 4.45927e-08)
(0.000799021 1.27607e-07 5.49628e-08)
(0.000797584 1.01437e-07 4.41236e-08)
(0.000795939 5.32034e-08 6.60791e-08)
(0.000794477 6.15112e-08 5.87416e-08)
(0.000793069 3.55975e-08 4.67667e-08)
(0.000791569 -1.75478e-07 4.69632e-08)
(0.000790259 -6.36373e-07 3.78705e-08)
(0.00078892 -3.50541e-07 4.99644e-08)
(0.000787358 -1.20415e-07 4.27015e-08)
(0.000785735 -6.52304e-08 4.8539e-08)
(0.000689957 -3.26123e-05 -5.42804e-06)
(0.000923965 6.0327e-06 1.24385e-06)
(0.000851723 -0.000148722 -7.70203e-08)
(0.000656904 0.000110855 9.15414e-06)
(0.000119676 -0.000335999 3.64778e-06)
(0.000801932 -0.000195138 -3.93962e-05)
(0.000447909 6.89646e-05 -2.09615e-06)
(0.000839046 2.08059e-05 -2.09791e-06)
(0.000828157 1.38137e-05 -1.36162e-07)
(0.0008387 9.48577e-06 1.20851e-07)
(0.000840007 6.27771e-06 5.47357e-08)
(0.00084086 4.05239e-06 5.72128e-08)
(0.000840544 2.49585e-06 3.6651e-08)
(0.000839721 1.61095e-06 5.5879e-08)
(0.000838615 1.03205e-06 7.31602e-08)
(0.000837249 6.40431e-07 4.56145e-08)
(0.000835797 4.28923e-07 2.10194e-08)
(0.000834377 3.01663e-07 8.84947e-08)
(0.000832674 3.22727e-07 4.3576e-08)
(0.000831063 2.0207e-07 5.1096e-08)
(0.000829657 1.03502e-07 6.41586e-08)
(0.000827891 6.80432e-08 3.73324e-08)
(0.000826295 -9.91256e-08 6.16339e-08)
(0.00082491 -4.84161e-08 5.888e-08)
(0.00082335 -2.43113e-07 4.80341e-08)
(0.000821818 -2.27528e-07 2.45696e-08)
(0.000820205 -1.6552e-07 6.91229e-08)
(0.00081863 -8.47836e-08 5.34652e-08)
(0.000817125 6.57307e-10 -3.96485e-08)
(0.000815612 1.02775e-07 3.97281e-08)
(0.000814068 9.94315e-08 7.55375e-08)
(0.000812573 2.02898e-08 5.3969e-08)
(0.00081101 -3.35796e-08 7.26663e-08)
(0.000809491 -1.14021e-07 3.69687e-08)
(0.000808017 -1.14634e-07 4.51378e-08)
(0.000806532 -3.17327e-08 4.03075e-08)
(0.000804957 -6.63271e-08 3.37759e-08)
(0.000803366 -2.57191e-07 7.69191e-08)
(0.000801963 -1.03689e-07 4.3359e-08)
(0.000800245 -8.11819e-08 -2.67663e-08)
(0.000798609 1.93861e-08 7.89038e-08)
(0.000797335 -5.68261e-08 5.38746e-08)
(0.000796088 -3.78969e-08 3.19889e-08)
(0.000794708 -1.47322e-07 -2.85364e-08)
(0.00079298 -1.97188e-07 3.597e-08)
(0.000791214 -9.31665e-08 5.05764e-08)
(0.000790136 -2.28965e-08 3.3239e-08)
(0.000789078 -1.04544e-07 7.36483e-08)
(0.000787474 -1.5676e-07 1.03182e-07)
(0.000785829 -2.94952e-07 9.39201e-08)
(0.000742293 -1.53368e-05 -4.40054e-06)
(0.000840421 2.56209e-05 3.10283e-06)
(0.000980467 -6.48588e-05 -5.46712e-06)
(0.000503213 0.000118691 3.57338e-06)
(0.000515581 -0.000163521 7.06378e-06)
(0.000435862 -0.00165539 -5.62722e-05)
(0.000450494 -4.98433e-05 -5.98728e-07)
(0.000853918 2.87337e-06 -2.12519e-06)
(0.000828635 3.48898e-06 -2.24741e-07)
(0.000837793 3.11507e-06 9.96825e-08)
(0.000838404 2.3339e-06 -9.62738e-09)
(0.000839365 1.70934e-06 6.47953e-08)
(0.000839494 1.31532e-06 6.25706e-08)
(0.000839176 8.59953e-07 5.3775e-08)
(0.00083815 5.65198e-07 4.49836e-08)
(0.000836966 3.71483e-07 1.03537e-07)
(0.000835626 2.50999e-07 6.75019e-08)
(0.000834169 1.7844e-07 3.56425e-08)
(0.000832754 1.7595e-07 2.96413e-08)
(0.000831141 9.07283e-08 2.88008e-08)
(0.000829504 8.70934e-08 6.23871e-08)
(0.000828005 3.8702e-08 -5.92708e-08)
(0.000826456 1.76286e-07 5.70471e-08)
(0.000824757 1.59161e-07 4.3811e-08)
(0.00082315 1.33306e-07 1.48875e-08)
(0.000821742 6.57553e-08 4.98302e-08)
(0.000820266 -1.46842e-08 8.79265e-08)
(0.000818701 3.98233e-08 6.35546e-08)
(0.000817195 9.08135e-08 4.13803e-08)
(0.000815665 -7.87605e-09 5.53975e-08)
(0.000814001 -2.74133e-08 5.03507e-08)
(0.000812371 -7.65957e-08 4.04549e-08)
(0.000810802 -2.10735e-07 4.93678e-08)
(0.000809353 -1.4509e-07 -9.6158e-08)
(0.000808033 -2.60613e-07 6.31635e-08)
(0.000806541 -3.44314e-07 1.37463e-07)
(0.000804925 -4.57464e-07 5.41254e-08)
(0.000803299 -2.57501e-07 4.59015e-08)
(0.000801747 -1.35061e-07 5.94559e-08)
(0.000800448 -2.31475e-07 6.39964e-08)
(0.000799054 -6.21506e-08 3.03743e-08)
(0.000797514 1.87091e-08 7.31207e-08)
(0.000795828 -5.94935e-08 5.59681e-08)
(0.00079428 -4.10633e-07 8.03649e-08)
(0.000793139 -2.46041e-07 9.35848e-08)
(0.000791789 -6.08237e-08 1.28354e-08)
(0.000790246 2.25697e-07 6.9851e-08)
(0.000788755 9.07654e-09 3.01287e-08)
(0.000787127 -1.19068e-07 7.77176e-08)
(0.000786298 -1.32212e-07 8.60208e-08)
(0.0012152 8.317e-06 3.52183e-07)
(0.00137275 -6.7781e-05 1.13263e-06)
(0.00162211 0.000123057 6.03587e-06)
(0.000871726 -0.000293586 2.06583e-05)
(0.00270888 0.000440709 1.18017e-06)
(0.00225045 8.38537e-05 9.74837e-05)
(0.00156505 0.000153071 -7.73767e-07)
(0.00142066 1.62933e-06 3.56084e-07)
(0.00137975 -1.56682e-06 3.44922e-07)
(0.00139549 -2.62892e-06 3.58612e-07)
(0.00139712 -2.15757e-06 5.40623e-07)
(0.00139935 -1.50083e-06 4.1852e-07)
(0.00139925 -7.74851e-07 3.92233e-07)
(0.0013981 -4.89247e-07 3.19418e-07)
(0.00139678 -3.33249e-07 3.41544e-07)
(0.00139488 -1.95315e-07 2.29569e-07)
(0.00139272 -1.22054e-07 3.17033e-07)
(0.00139058 -2.26327e-08 3.12024e-07)
(0.00138774 -1.1588e-07 3.02363e-07)
(0.0013851 -1.50708e-07 4.2446e-07)
(0.00138279 -5.28944e-08 3.57925e-07)
(0.00138011 2.23004e-08 3.06199e-07)
(0.00137755 -1.37624e-07 3.48283e-07)
(0.00137496 -1.86351e-07 3.84667e-07)
(0.00137226 1.26446e-07 3.19754e-07)
(0.00136954 1.73292e-07 2.9798e-07)
(0.00136711 1.4019e-07 3.49768e-07)
(0.00136476 1.10696e-07 3.35622e-07)
(0.00136193 9.96928e-08 4.24567e-07)
(0.00135927 -7.36636e-08 3.66908e-07)
(0.00135682 -2.53456e-07 3.10844e-07)
(0.00135416 -2.90713e-07 2.96133e-07)
(0.0013518 -3.34665e-07 3.42745e-07)
(0.00134919 -2.27098e-07 3.57141e-07)
(0.00134632 -2.65561e-07 3.53607e-07)
(0.00134395 -6.21287e-07 2.95108e-07)
(0.00134203 -3.46679e-07 2.66996e-07)
(0.00133984 -4.7169e-07 3.41396e-07)
(0.00133683 -3.20686e-07 4.97456e-07)
(0.00133409 1.43798e-08 2.44998e-07)
(0.00133177 -6.03908e-08 3.41116e-07)
(0.00132913 1.81457e-07 2.97671e-07)
(0.00132615 4.13235e-07 3.93771e-07)
(0.0013243 9.88573e-07 1.55224e-07)
(0.00132254 5.26907e-07 3.60853e-07)
(0.00131987 2.55404e-07 6.79846e-07)
(0.0013172 9.18739e-08 3.35209e-07)
(0.00131459 1.25108e-07 3.60774e-07)
(0.00131238 2.44842e-07 3.80508e-07)
(0.00131054 2.89562e-07 3.07848e-07)
(0.00112218 4.45223e-05 -9.21134e-07)
(0.00149494 -5.38008e-05 1.20153e-06)
(0.00137168 0.0001857 2.19882e-06)
(0.00120808 -0.00025876 2.68465e-06)
(0.00231336 0.000510143 5.15549e-06)
(0.000476585 -0.00120305 0.000121257)
(0.00127154 -9.13968e-05 -5.00955e-07)
(0.00139181 -3.06906e-05 3.50212e-07)
(0.00137754 -2.01463e-05 3.46864e-07)
(0.0013957 -1.42815e-05 3.52124e-07)
(0.00139887 -9.59325e-06 3.49934e-07)
(0.00140079 -6.36317e-06 3.50072e-07)
(0.0014005 -4.33353e-06 3.51664e-07)
(0.00139927 -2.78922e-06 3.48425e-07)
(0.00139745 -1.77035e-06 4.14678e-07)
(0.00139538 -1.25211e-06 4.86029e-07)
(0.00139309 -7.71657e-07 4.08925e-07)
(0.00139047 -5.96003e-07 3.79326e-07)
(0.00138792 -5.44159e-07 4.05375e-07)
(0.00138539 -1.88693e-07 2.4435e-07)
(0.00138276 6.5481e-10 2.96928e-07)
(0.00138003 -3.74492e-08 2.65039e-07)
(0.00137736 2.33719e-07 4.2692e-07)
(0.00137512 2.09294e-07 3.65394e-07)
(0.0013726 1.50249e-07 3.22617e-07)
(0.0013698 2.50225e-07 3.72039e-07)
(0.00136719 2.53384e-07 3.87656e-07)
(0.00136461 4.75374e-08 3.39261e-07)
(0.0013619 -3.01701e-07 3.37601e-07)
(0.0013591 -1.06351e-07 2.95285e-07)
(0.00135656 -8.28711e-08 3.00779e-07)
(0.00135409 -8.80271e-11 3.18592e-07)
(0.00135163 1.65516e-07 3.86038e-07)
(0.0013492 1.26107e-08 3.80366e-07)
(0.00134647 7.13118e-08 3.24486e-07)
(0.00134432 3.06511e-07 3.44907e-07)
(0.00134188 1.01339e-07 3.47054e-07)
(0.001339 -2.12121e-07 3.85235e-07)
(0.00133696 -5.84664e-07 3.19587e-07)
(0.00133461 -3.39934e-07 4.12506e-07)
(0.0013322 -1.90869e-07 3.04489e-07)
(0.00132995 1.15788e-07 2.36869e-07)
(0.00132755 7.7815e-07 3.04573e-07)
(0.00132419 9.28968e-07 8.40786e-08)
(0.00132123 5.161e-07 3.04152e-07)
(0.00131927 1.96426e-07 3.18556e-07)
(0.00131706 -2.56607e-08 2.90648e-07)
(0.0013149 5.66985e-08 4.04794e-07)
(0.00131235 1.48111e-07 4.27418e-07)
(0.00131012 8.36966e-08 3.26083e-07)
(0.00109722 6.73375e-05 1.60842e-06)
(0.00154271 3.76677e-05 2.19931e-06)
(0.00134213 0.000152834 -1.57634e-06)
(0.00134791 0.000106063 5.82407e-06)
(0.00144727 -0.000230602 -7.88212e-06)
(0.00242552 -0.000931862 -0.000408612)
(0.00128414 7.01142e-05 -1.04033e-06)
(0.00141683 -6.88749e-05 3.65047e-07)
(0.00139965 -4.09881e-05 1.97411e-07)
(0.00140881 -2.46288e-05 3.52376e-07)
(0.00140711 -1.51638e-05 3.52061e-07)
(0.00140599 -9.3533e-06 3.51745e-07)
(0.00140376 -5.82117e-06 3.51978e-07)
(0.00140133 -3.64249e-06 3.49963e-07)
(0.00139872 -2.28609e-06 3.50088e-07)
(0.00139614 -1.43256e-06 3.25664e-07)
(0.00139355 -9.45345e-07 6.36024e-07)
(0.00139086 -6.75421e-07 3.76039e-07)
(0.00138825 -4.47763e-07 2.63367e-07)
(0.00138578 -2.10421e-07 3.30972e-07)
(0.00138298 -2.87496e-07 3.61135e-07)
(0.0013804 -1.29391e-07 3.73109e-07)
(0.00137786 -4.9581e-08 3.99613e-07)
(0.00137485 6.83437e-08 3.10261e-07)
(0.00137231 -1.16743e-07 3.57556e-07)
(0.00136967 -1.97754e-07 3.47702e-07)
(0.00136685 -2.19466e-08 2.66319e-07)
(0.00136406 -2.53184e-07 3.40198e-07)
(0.00136173 -2.14375e-07 2.36072e-07)
(0.00135955 -7.80137e-08 3.037e-07)
(0.00135696 1.1849e-07 3.69889e-07)
(0.00135447 2.41469e-07 3.7127e-07)
(0.00135181 2.40405e-07 3.95777e-07)
(0.00134907 3.55033e-07 3.75452e-07)
(0.00134668 3.33954e-07 3.30023e-07)
(0.00134399 6.50087e-07 3.50256e-07)
(0.00134138 1.24388e-07 3.31508e-07)
(0.00133898 2.01117e-07 3.35551e-07)
(0.00133668 8.04653e-08 3.35097e-07)
(0.00133458 4.0556e-08 3.60369e-07)
(0.00133234 3.97002e-07 3.13343e-07)
(0.00133034 -1.2183e-07 2.79943e-07)
(0.00132717 -5.58407e-07 3.49073e-07)
(0.00132397 -5.47714e-07 3.60693e-07)
(0.00132162 5.07939e-08 3.93079e-07)
(0.00131919 3.74463e-09 3.34501e-07)
(0.00131703 -5.26744e-08 3.46368e-07)
(0.0013148 -2.53566e-07 4.80099e-07)
(0.00131241 -1.72853e-07 3.10875e-07)
(0.00131025 -5.42705e-09 3.24653e-07)
(0.00108953 6.6659e-05 -2.37253e-07)
(0.00158774 4.35317e-05 8.49266e-07)
(0.00143566 0.000174055 9.24778e-07)
(0.00139461 3.73082e-05 2.1402e-06)
(0.00207102 0.000430808 -2.71115e-05)
(0.00100136 0.000552002 -0.000151412)
(0.00272753 -0.000434369 4.63454e-05)
(0.00148045 -4.65867e-05 3.84462e-07)
(0.00143194 -4.01061e-05 2.72684e-07)
(0.00142825 -2.21971e-05 4.12403e-07)
(0.00141812 -1.37727e-05 3.56598e-07)
(0.00141257 -8.34074e-06 3.51663e-07)
(0.0014077 -5.00853e-06 3.4226e-07)
(0.00140373 -3.13327e-06 3.53632e-07)
(0.00140024 -1.83981e-06 3.52721e-07)
(0.00139707 -1.08823e-06 3.47797e-07)
(0.00139405 -7.77072e-07 2.97547e-07)
(0.0013911 -5.06375e-07 4.14462e-07)
(0.0013885 -3.63799e-07 3.18889e-07)
(0.0013856 -2.54885e-07 3.36161e-07)
(0.00138286 -3.40019e-07 2.7748e-07)
(0.00138033 -2.00384e-07 3.43811e-07)
(0.00137761 -4.30115e-07 3.42692e-07)
(0.00137504 -4.26141e-07 6.54324e-07)
(0.00137227 -4.23542e-07 4.33453e-07)
(0.00136992 -5.07402e-07 3.78203e-07)
(0.00136712 -3.32439e-07 3.34969e-07)
(0.00136438 -3.37114e-08 3.38392e-07)
(0.00136212 3.33819e-07 3.01513e-07)
(0.00135952 2.33545e-07 3.76463e-07)
(0.00135696 2.19466e-07 3.58547e-07)
(0.00135424 1.28035e-07 3.04159e-07)
(0.00135177 1.35001e-07 2.94944e-07)
(0.00134932 1.28567e-07 2.81609e-07)
(0.00134683 2.0682e-07 3.37792e-07)
(0.00134405 8.02877e-08 3.98466e-07)
(0.00134131 1.19906e-07 3.46876e-07)
(0.00133894 2.83304e-07 3.3093e-07)
(0.00133676 1.00733e-06 2.45192e-07)
(0.00133501 8.38093e-07 3.81109e-07)
(0.001332 5.19497e-07 3.36305e-07)
(0.00132876 1.53483e-07 3.23133e-07)
(0.00132702 -7.21773e-07 3.50682e-07)
(0.00132496 -5.37477e-07 2.8769e-07)
(0.00132192 -5.01176e-07 5.23434e-07)
(0.00131914 -2.22624e-07 2.42782e-07)
(0.00131673 -3.18243e-07 3.17019e-07)
(0.00131475 -3.60578e-07 3.94971e-07)
(0.00131266 -7.01521e-08 3.2887e-07)
(0.00131034 -1.19207e-07 3.25922e-07)
(0.00107016 3.52836e-05 9.04017e-07)
(0.00166576 1.80581e-05 4.89197e-07)
(0.00134895 0.000116085 2.40613e-06)
(0.001701 -5.54271e-05 6.40387e-06)
(0.00150445 0.000576331 -2.98159e-05)
(0.00240998 0.00108926 -0.000390077)
(0.00108684 -0.000485251 5.47336e-05)
(0.00159516 -1.24812e-05 3.79909e-07)
(0.00143448 -1.66794e-05 3.57505e-07)
(0.00144199 -8.65488e-06 3.40212e-07)
(0.00142458 -5.77552e-06 3.26315e-07)
(0.00141704 -3.60799e-06 9.20285e-08)
(0.00141033 -2.46045e-06 1.2888e-07)
(0.00140532 -1.51316e-06 3.49989e-07)
(0.00140129 -1.08027e-06 3.38015e-07)
(0.00139748 -7.22888e-07 3.43506e-07)
(0.00139429 -4.68115e-07 3.45736e-07)
(0.00139139 -3.5706e-07 3.49196e-07)
(0.00138857 -1.98127e-07 3.96854e-07)
(0.00138581 -3.56924e-07 4.13622e-07)
(0.00138305 -1.90234e-07 3.07428e-07)
(0.00138029 -1.76481e-07 4.87662e-08)
(0.00137758 3.05084e-08 4.22745e-07)
(0.00137487 -8.49285e-09 3.13679e-07)
(0.00137222 7.4855e-08 3.86426e-07)
(0.00136978 1.96848e-07 3.52459e-07)
(0.00136745 -4.36257e-08 2.55024e-07)
(0.0013649 2.52658e-07 3.42497e-07)
(0.00136207 1.97957e-07 4.18017e-07)
(0.0013594 1.9252e-07 4.00157e-07)
(0.00135682 1.39979e-07 2.96432e-07)
(0.00135437 1.13237e-07 3.18608e-07)
(0.00135181 2.43617e-07 3.81242e-07)
(0.00134916 1.5744e-07 3.38591e-07)
(0.00134662 2.80429e-07 3.39999e-07)
(0.00134388 1.30019e-07 3.40362e-07)
(0.00134163 5.94008e-07 3.69587e-07)
(0.00134009 5.55034e-07 3.29808e-07)
(0.00133736 5.47453e-07 4.23557e-07)
(0.00133397 3.02842e-07 3.25605e-07)
(0.00133148 -4.01059e-07 3.00121e-07)
(0.00132878 -2.6766e-07 -1.28095e-07)
(0.0013263 -3.43337e-08 3.4345e-07)
(0.00132425 -1.6059e-07 1.04346e-06)
(0.00132201 -1.66664e-07 3.43983e-07)
(0.00131942 1.91451e-07 3.87701e-07)
(0.00131685 8.05919e-07 5.95492e-07)
(0.00131511 9.432e-07 2.78687e-07)
(0.00131272 2.80106e-07 3.12958e-07)
(0.00131049 -3.81939e-08 3.32221e-07)
(0.00107114 -2.41761e-07 -1.409e-06)
(0.00167699 1.91371e-05 9.47835e-07)
(0.00134041 -5.54497e-06 -1.38044e-06)
(0.0018081 0.000107881 2.33813e-06)
(0.00107861 -0.000126413 0.000169592)
(-0.00045809 -0.00138281 -0.000372539)
(0.00151143 -2.27105e-05 7.8751e-05)
(0.00159353 9.52017e-06 3.82505e-07)
(0.00143392 1.39694e-05 3.59204e-07)
(0.00144199 6.88642e-06 4.6183e-07)
(0.00142449 4.39686e-06 3.66576e-07)
(0.00141675 2.55876e-06 3.80486e-07)
(0.00141034 1.36136e-06 3.2115e-07)
(0.00140547 8.38131e-07 3.48442e-07)
(0.00140124 3.9379e-07 3.56152e-07)
(0.00139785 1.93042e-07 3.53167e-07)
(0.00139451 1.93127e-07 3.47184e-07)