/*--------------------------------*- C++ -*----------------------------------*\
| =========                 |                                                 |
| \\      /  F ield         | OpenFOAM: The Open Source CFD Toolbox           |
|  \\    /   O peration     | Version:  5.0                                   |
|   \\  /    A nd           | Web:      www.OpenFOAM.org                      |
|    \\/     M anipulation  |                                                 |
\*---------------------------------------------------------------------------*/
FoamFile
{
    version     2.0;
    format      ascii;
    class       surfaceVectorField;
    location    "0.1";
    object      Uf;
}
// * * * * * * * * * * * * * * * * * * * * * * * * * * * * * * * * * * * * * //

dimensions      [0 1 -1 0 0 0 0];

internalField   nonuniform List<vector> 
12667
(
(0.000853759 -1.57037e-05 -9.00991e-07)
(0.000713847 1.77252e-05 -5.03193e-06)
(0.000975113 6.59355e-06 -3.28022e-06)
(0.000849986 2.33678e-05 1.32018e-06)
(0.000886384 -2.93951e-05 2.54947e-06)
(0.00111256 -5.03121e-05 1.97075e-06)
(0.000753299 -3.26429e-05 4.32811e-06)
(0.000888419 9.01472e-05 -1.04932e-06)
(0.00128083 0.000103283 2.97824e-06)
(0.00062591 2.14579e-05 -1.12921e-06)
(0.00063076 -0.000125462 6.92718e-06)
(0.000684774 -0.000217584 1.65568e-05)
(0.000286149 -2.31342e-05 2.13842e-06)
(0.00145615 0.000103554 -1.71833e-05)
(0.000188603 -8.9001e-05 7.55243e-06)
(0.000563484 5.36143e-05 -3.76081e-06)
(0.00138198 0.000167609 -1.78307e-05)
(0.00109581 -0.000264706 -8.29335e-05)
(0.00048472 -8.55119e-06 9.63559e-06)
(0.000768555 -9.29734e-05 -1.23255e-05)
(0.000721654 -0.000112518 -3.14503e-05)
(0.00263649 -1.42897e-05 9.96858e-05)
(0.000596564 -1.16172e-05 5.66755e-05)
(0.000606502 2.05307e-05 0.000179306)
(0.000901947 2.44459e-05 0.000169884)
(0.000364676 1.66063e-05 -2.02303e-06)
(0.000513943 3.31715e-05 -3.43113e-06)
(0.000482614 5.75588e-05 -1.19849e-06)
(0.000860868 8.00667e-05 -2.19311e-06)
(0.000366723 5.29747e-05 -2.34602e-06)
(0.0006976 1.80987e-05 -2.79015e-06)
(0.000697353 0.000115057 -3.48631e-06)
(0.000831591 -1.65125e-06 -1.19227e-06)
(0.000846095 -8.28347e-06 -2.18595e-06)
(0.00113707 -1.50509e-06 -1.42627e-06)
(0.000613891 1.16946e-05 -4.05103e-06)
(0.000582195 1.23294e-05 -3.99254e-06)
(0.00105156 2.80926e-05 -4.24737e-06)
(0.000980138 2.94158e-05 -4.18757e-06)
(0.000835877 -2.08399e-06 -5.27267e-08)
(0.000829292 -6.15259e-06 -1.4622e-07)
(0.00110539 -2.6388e-06 1.31531e-07)
(0.00083835 -1.87927e-06 9.85208e-08)
(0.000838684 -5.03184e-06 1.00247e-07)
(0.00111756 -2.80828e-06 1.95363e-07)
(0.000839684 -1.38202e-06 8.64673e-08)
(0.000839665 -3.54316e-06 7.8995e-08)
(0.00111854 -2.1311e-06 1.84305e-07)
(0.000840037 -9.18402e-07 6.67026e-08)
(0.000840593 -2.40947e-06 6.43621e-08)
(0.00111999 -1.49846e-06 2.06068e-07)
(0.000839629 -5.98406e-07 5.01389e-08)
(0.000840343 -1.6391e-06 5.7956e-08)
(0.0011198 -9.08206e-07 1.81792e-07)
(0.000838863 -4.07852e-07 4.69602e-08)
(0.000839612 -1.0155e-06 4.57775e-08)
(0.00111895 -6.51085e-07 1.94587e-07)
(0.000837726 -2.22197e-07 5.61437e-08)
(0.000838597 -6.02379e-07 3.14457e-08)
(0.00111773 -4.10057e-07 1.91398e-07)
(0.00083653 -1.17183e-07 5.48957e-08)
(0.000837293 -8.24165e-07 2.13332e-08)
(0.00111615 -1.77655e-07 2.023e-07)
(0.000835031 -1.04892e-07 6.60066e-08)
(0.000835829 -1.57388e-07 -3.93551e-08)
(0.00111434 -1.40639e-07 1.83188e-07)
(0.000833533 -5.10481e-08 7.14603e-08)
(0.0008344 -8.91914e-08 7.09518e-08)
(0.00111238 -1.33518e-07 1.86119e-07)
(0.000832373 1.01219e-08 5.61712e-08)
(0.000832989 -4.86725e-07 4.24053e-08)
(0.00111055 3.5528e-09 1.83879e-07)
(0.000830594 -2.00588e-08 6.15586e-08)
(0.000831425 1.92156e-08 4.70106e-08)
(0.00110856 9.27772e-09 1.88488e-07)
(0.000829033 -5.8774e-08 6.87608e-08)
(0.00082983 -2.55158e-08 6.31088e-09)
(0.00110639 -8.3167e-08 1.95662e-07)
(0.000827492 -2.90284e-08 6.05094e-08)
(0.000828327 1.23095e-07 6.28616e-08)
(0.0011043 -9.10899e-08 1.70075e-07)
(0.000825991 -1.58791e-09 5.29099e-08)
(0.000826762 8.12287e-08 3.30003e-08)
(0.00110228 -5.68814e-09 1.5917e-07)
(0.000824426 -8.0183e-08 5.79396e-08)
(0.000825125 -1.13666e-07 4.63068e-08)
(0.00110022 -2.41752e-08 1.84389e-07)
(0.000822823 -1.68608e-07 6.80228e-08)
(0.000823552 1.08226e-07 6.62553e-08)
(0.0010981 -1.76862e-07 1.82671e-07)
(0.00082127 -1.52292e-07 5.58726e-08)
(0.000822038 1.32693e-07 5.37401e-08)
(0.001096 -2.05651e-07 1.82924e-07)
(0.000819561 -9.89e-08 4.9079e-08)
(0.000820451 1.08188e-07 4.13074e-08)
(0.00109384 -1.33538e-07 1.84117e-07)
(0.000817974 -5.51852e-08 2.84596e-08)
(0.000818848 -3.5426e-09 5.16187e-08)
(0.00109168 -8.97975e-08 1.85767e-07)
(0.000816718 1.3572e-08 2.35484e-08)
(0.00081738 -1.60065e-07 2.93538e-08)
(0.00108975 -3.59919e-08 1.78545e-07)
(0.000815043 1.27941e-07 5.12746e-08)
(0.000815925 1.11972e-07 5.90835e-08)
(0.00108778 6.07875e-08 1.85359e-07)
(0.000813576 2.17125e-07 6.5486e-08)
(0.000814387 -1.29667e-07 6.18853e-08)
(0.0010857 2.01194e-07 1.79108e-07)
(0.000812069 2.46774e-07 5.81371e-08)
(0.000812845 -4.89774e-09 2.45552e-08)
(0.00108366 2.4933e-07 1.78583e-07)
(0.000810444 2.41915e-07 6.83235e-08)
(0.000811277 1.00179e-07 3.98467e-08)
(0.00108158 2.9237e-07 1.73889e-07)
(0.000809444 2.84458e-07 6.30735e-08)
(0.00080987 -3.94846e-07 5.32964e-08)
(0.00107984 2.72925e-07 2.51385e-07)
(0.00080822 3.46931e-07 5.21602e-08)
(0.000808535 1.2445e-07 4.17191e-08)
(0.00107841 4.11497e-07 1.79983e-07)
(0.000805447 3.29692e-07 5.08376e-08)
(0.000806748 -2.48424e-07 5.562e-08)
(0.00107569 3.98729e-07 2.6998e-07)
(0.000803923 3.63879e-07 1.16608e-08)
(0.000804945 -1.78149e-07 3.53824e-08)
(0.00107285 3.63069e-07 1.0912e-07)
(0.000802403 4.14456e-07 1.00891e-09)
(0.000803429 -3.95658e-07 -8.49814e-09)
(0.00107095 4.83952e-07 1.6384e-07)
(0.000801385 3.64304e-07 1.94354e-08)
(0.000802006 8.3497e-07 6.41408e-08)
(0.00106915 4.76488e-07 5.46635e-08)
(0.000800158 1.81639e-07 3.96336e-08)
(0.000800562 -8.53664e-07 1.31764e-08)
(0.00106764 3.84217e-07 2.14191e-07)
(0.000798292 -1.34212e-07 5.98122e-08)
(0.000798953 1.01806e-08 3.79114e-08)
(0.00106559 4.74386e-08 1.94681e-07)
(0.000796823 -6.73337e-07 6.19859e-08)
(0.000797294 -2.57459e-07 9.64647e-08)
(0.00106333 -3.69638e-07 1.74827e-07)
(0.000795758 -7.55415e-07 4.21752e-08)
(0.000796244 1.70996e-06 4.42815e-08)
(0.00106153 -1.24428e-06 1.47207e-07)
(0.000794299 -3.01464e-07 3.39799e-08)
(0.000795249 1.42607e-06 7.32639e-08)
(0.00105998 -5.07683e-07 5.7818e-08)
(0.000792568 -5.72428e-08 2.68231e-08)
(0.0007936 2.29916e-07 3.46131e-08)
(0.00105791 -1.12847e-07 1.71002e-07)
(0.000791482 -1.25999e-07 2.80266e-08)
(0.000791986 2.24318e-07 4.56215e-08)
(0.00105595 4.08506e-08 9.60048e-08)
(0.000789989 -3.54015e-07 4.35124e-08)
(0.000790568 -6.61114e-08 4.16394e-08)
(0.00105425 -3.19112e-07 1.70568e-07)
(0.000788557 -6.77513e-07 2.89766e-08)
(0.000789148 -4.41804e-07 4.41341e-08)
(0.00105225 -5.34347e-07 1.75229e-07)
(0.000786738 -6.0089e-07 5.63725e-08)
(0.000787526 4.03272e-07 3.48245e-08)
(0.00105015 -1.10485e-06 1.3957e-07)
(0.000786081 7.594e-07 8.78937e-08)
(0.00104745 -3.29034e-07 2.12459e-07)
(0.000872112 2.5011e-06 -1.584e-06)
(0.00068015 3.67689e-05 -4.49154e-06)
(0.000907712 3.82437e-05 -4.49653e-06)
(0.000835006 3.10927e-05 1.81162e-07)
(0.00092374 -4.92399e-06 2.22968e-06)
(0.00121192 -4.00049e-05 1.52513e-06)
(0.000843784 -2.0114e-05 1.54711e-06)
(0.000822079 7.54291e-05 -8.95807e-07)
(0.00110488 0.000136183 2.95073e-07)
(0.000701664 5.62982e-05 5.85285e-06)
(0.000729043 -4.76145e-05 6.67304e-06)
(0.000995942 -0.000191337 4.02098e-06)
(0.000372812 3.79827e-05 6.28164e-06)
(0.00134999 0.000175438 9.92712e-06)
(0.000511541 0.000372555 2.02812e-06)
(0.000530579 0.000112401 2.52888e-06)
(0.000499027 9.33441e-05 -1.58782e-06)
(0.000510655 0.000150931 6.68895e-06)
(0.00127391 0.000238857 1.44902e-05)
(0.00154713 0.00106211 5.43894e-05)
(0.00247628 0.000623637 0.000100283)
(0.00177944 0.000406998 9.59394e-05)
(0.000337451 0.000343086 9.47099e-05)
(0.00367363 0.000221585 0.000107169)
(0.000326909 3.04003e-05 -2.59919e-06)
(0.000440189 5.99662e-06 -6.26502e-07)
(0.000442289 -2.25684e-05 -2.77192e-06)
(0.000445708 -5.47856e-05 -1.30113e-06)
(0.000718258 -5.70671e-05 -8.84371e-07)
(0.00021915 1.22311e-05 -2.05219e-07)
(0.000615264 9.87707e-05 -4.32696e-06)
(0.000370195 5.09593e-05 1.03895e-06)
(0.000828098 -1.57291e-05 -1.14057e-06)
(0.000844325 -3.06701e-05 -2.41459e-06)
(0.0011192 -2.60743e-05 -1.42634e-06)
(0.000574097 -1.34163e-05 -3.95364e-06)
(0.000599312 -2.19414e-05 -3.69582e-06)
(0.000967783 -2.26096e-05 -4.15305e-06)
(0.00102968 -4.26282e-05 -3.83235e-06)
(0.000836227 -1.01866e-05 6.67232e-09)
(0.000836054 -1.79085e-05 -3.69203e-08)
(0.00110572 -1.59801e-05 1.5325e-07)
(0.000839603 -6.9998e-06 8.07279e-08)
(0.000842709 -1.14628e-05 9.75608e-08)
(0.00111863 -1.12512e-05 1.97324e-07)
(0.000840932 -4.61384e-06 5.68946e-08)
(0.000842676 -7.25974e-06 5.38601e-08)
(0.00112035 -7.45191e-06 1.86515e-07)
(0.000841017 -3.01924e-06 5.56177e-08)
(0.000842606 -4.58748e-06 5.74566e-08)
(0.00112143 -4.88412e-06 1.87946e-07)
(0.000840399 -1.94075e-06 5.35986e-08)
(0.000841703 -2.93458e-06 5.26805e-08)
(0.00112096 -3.20358e-06 1.87908e-07)
(0.000839415 -1.21217e-06 3.02676e-08)
(0.000840531 -1.83205e-06 5.42505e-08)
(0.00111986 -2.00623e-06 1.86535e-07)
(0.000838216 -7.43338e-07 -3.36159e-09)
(0.000839188 -1.14959e-06 2.93017e-08)
(0.0011184 -1.2519e-06 1.86836e-07)
(0.000836614 -4.17766e-07 -7.2898e-08)
(0.000837703 -8.0714e-08 4.85285e-08)
(0.00111652 -7.62208e-07 1.32697e-07)
(0.000835139 -1.53387e-07 -3.44455e-08)
(0.000836162 -1.53651e-07 -3.33373e-08)
(0.00111445 -3.91954e-07 1.72826e-07)
(0.000833845 5.99834e-08 4.1906e-08)
(0.000834668 -7.54274e-07 3.464e-08)
(0.00111262 -7.16575e-08 2.04085e-07)
(0.00083216 8.51589e-08 3.32432e-08)
(0.00083302 -3.7769e-07 4.84681e-08)
(0.00111063 1.39242e-07 1.8425e-07)
(0.000830591 3.1148e-08 -8.2241e-09)
(0.000831358 1.93318e-07 5.99262e-08)
(0.00110844 1.03316e-08 1.69558e-07)
(0.000829099 4.11957e-08 3.93613e-10)
(0.000829843 2.25413e-07 5.50972e-08)
(0.0011064 4.58893e-08 1.57909e-07)
(0.000827653 1.9612e-08 3.53621e-08)
(0.0008283 -8.14533e-08 5.87763e-08)
(0.00110448 3.5061e-08 1.85868e-07)
(0.000825904 -2.1111e-08 2.6393e-08)
(0.000826711 1.47063e-07 2.80292e-08)
(0.00110231 -1.40583e-08 1.93788e-07)
(0.000824184 -6.0125e-08 5.46162e-08)
(0.000825076 9.02638e-08 -3.91775e-08)
(0.00110002 -6.14008e-08 1.81782e-07)
(0.00082277 -8.71947e-08 5.19765e-08)
(0.000823518 -6.64248e-08 4.95589e-08)
(0.00109795 -9.49293e-08 1.81593e-07)
(0.000821291 -1.04384e-07 3.91787e-08)
(0.000822017 3.11528e-08 4.59778e-08)
(0.00109599 -1.12167e-07 1.82068e-07)
(0.000819687 -4.84213e-08 4.38438e-08)
(0.000820521 1.73074e-07 4.71654e-08)
(0.00109393 -1.41468e-07 1.81358e-07)
(0.000818161 9.30842e-08 5.25198e-08)
(0.000819025 -3.50348e-08 4.96994e-08)
(0.00109185 1.12844e-08 1.81721e-07)
(0.000816657 1.45438e-07 6.48795e-08)
(0.000817445 -2.1222e-07 8.29463e-08)
(0.00108982 1.70626e-07 1.81834e-07)
(0.000815291 1.16633e-07 6.96933e-08)
(0.000815889 -2.28651e-08 7.26536e-08)
(0.00108786 1.19465e-07 1.7569e-07)
(0.000813639 8.70855e-08 2.09662e-08)
(0.00081435 -7.31218e-09 5.34351e-08)
(0.00108584 1.04624e-07 1.82986e-07)
(0.0008121 3.71927e-08 6.25995e-09)
(0.000812782 -5.18623e-08 8.28142e-09)
(0.00108377 6.46594e-08 1.85172e-07)
(0.000810528 2.28309e-08 2.48154e-08)
(0.000811259 3.99174e-08 2.99889e-08)
(0.00108171 2.99578e-08 1.8895e-07)
(0.000809034 -6.36783e-08 3.19456e-08)
(0.000809762 -2.95531e-08 3.09785e-08)
(0.00107969 5.56354e-08 1.52056e-07)
(0.000807358 -2.37103e-07 4.51746e-08)
(0.000808319 2.62224e-07 3.89244e-08)
(0.00107748 -1.91193e-07 1.84611e-07)
(0.000805975 -2.28698e-07 4.01712e-08)
(0.000806759 -4.68719e-07 2.31558e-08)
(0.00107551 -3.59786e-07 1.84354e-07)
(0.000804483 -4.28671e-08 1.52371e-08)
(0.000805177 -1.04332e-07 4.2526e-08)
(0.00107363 -1.70437e-07 1.73289e-07)
(0.000802937 1.75951e-07 5.46113e-08)
(0.000803703 -7.87612e-08 2.24317e-08)
(0.0010715 6.20768e-08 1.6059e-07)
(0.000801269 3.21534e-07 5.78976e-08)
(0.000802188 -7.53422e-07 6.85385e-08)
(0.00106949 3.10125e-07 3.08244e-07)
(0.000799405 1.48629e-07 1.14466e-08)
(0.000800345 1.80202e-07 7.54002e-08)
(0.00106711 3.99228e-07 1.37903e-07)
(0.000797938 -7.95988e-08 7.4546e-08)
(0.000798668 4.55391e-08 4.18621e-08)
(0.00106491 -8.99416e-08 1.74179e-07)
(0.00079628 -1.19148e-07 7.87763e-08)
(0.000797244 -3.67138e-08 1.11287e-07)
(0.00106278 -1.20127e-07 1.7822e-07)
(0.000796139 -2.56955e-07 7.53613e-08)
(0.000796071 2.50247e-07 1.96431e-08)
(0.00106167 -1.08524e-07 1.62783e-07)
(0.000794619 -3.42123e-07 7.39089e-08)
(0.000795142 -9.91056e-08 8.56477e-08)
(0.00106044 -3.99357e-07 2.92465e-07)
(0.000792926 -1.54088e-07 5.3408e-08)
(0.000793834 6.67838e-07 6.86835e-08)
(0.00105815 -3.35012e-07 1.66054e-07)
(0.000791014 -3.77786e-08 5.92355e-08)
(0.000792131 -8.99231e-08 5.90921e-08)
(0.00105585 1.34262e-08 2.40817e-07)
(0.000789788 -1.08072e-07 4.22603e-08)
(0.000790481 7.03649e-08 4.52429e-08)
(0.00105377 -8.82204e-08 1.45705e-07)
(0.000788183 -2.45861e-07 4.99848e-08)
(0.000788976 -1.37827e-07 5.37362e-08)
(0.00105197 -1.80766e-07 1.68219e-07)
(0.000786734 -3.49627e-07 6.63295e-08)
(0.000787397 -1.181e-07 5.58747e-08)
(0.00104979 -4.26524e-07 2.14485e-07)
(0.000786518 3.73819e-08 7.21077e-08)
(0.00104865 -4.35718e-07 1.56152e-07)
(0.000859186 2.86197e-05 -6.80098e-07)
(0.000670663 3.5023e-05 -4.58805e-06)
(0.000883494 5.18454e-05 -2.0338e-06)
(0.000816074 4.94804e-05 1.15375e-06)
(0.000948824 1.89793e-05 2.48212e-06)
(0.00123324 2.76829e-05 2.07103e-06)
(0.00079974 6.26056e-05 4.22761e-06)
(0.000839785 0.000103589 -8.06554e-07)
(0.0010774 0.00011458 -4.7366e-07)
(0.000370078 2.85976e-05 -1.21744e-05)
(0.000773128 2.76225e-05 7.12334e-06)
(0.00101531 7.35456e-05 8.29178e-06)
(0.0005006 0.000107497 8.39254e-06)
(0.000886595 2.60395e-05 -2.06644e-05)
(0.00080804 5.00482e-05 -9.92628e-07)
(0.000322055 6.82761e-05 -7.7593e-06)
(0.000761083 7.09773e-05 -3.44824e-06)
(0.000411224 0.000116758 -7.10057e-06)
(0.000615771 1.8224e-05 -3.61052e-05)
(0.000383901 0.000316221 -2.84769e-06)
(0.000765787 0.000158994 1.65711e-05)
(0.00115219 -5.28527e-05 7.31801e-05)
(0.00017636 -0.000177882 1.9506e-05)
(0.000912749 0.000245363 7.7232e-07)
(0.000449342 5.1897e-05 6.68482e-07)
(0.000460819 -7.47231e-06 -8.50891e-07)
(0.000472212 2.52848e-06 -2.41502e-06)
(0.000760093 3.99057e-05 1.48426e-06)
(0.000208389 3.93807e-05 3.92027e-07)
(0.000865818 0.000135116 1.07113e-05)
(0.000265718 0.000126744 1.24159e-05)
(0.00029413 -2.56011e-05 3.07501e-06)
(0.000465473 -9.70989e-05 7.94829e-06)
(0.000537406 -8.97796e-05 -4.44641e-06)
(0.00029231 -2.84105e-05 -2.29903e-06)
(0.000843022 -2.94465e-05 -1.31173e-06)
(0.000868196 -3.31932e-05 -2.63265e-06)
(0.00113264 -4.9451e-05 -1.61913e-06)
(0.000600289 -2.33047e-05 -4.24223e-06)
(0.000606476 -5.53475e-05 -3.8347e-06)
(0.00102686 -3.78037e-05 -4.38323e-06)
(0.00105145 -0.000112301 -4.20397e-06)
(0.000845674 -1.77567e-05 5.39242e-08)
(0.00085047 -2.302e-05 -3.57972e-08)
(0.00112341 -2.96245e-05 1.67855e-07)
(0.000845479 -1.08704e-05 7.07074e-08)
(0.000851391 -1.3373e-05 7.22357e-08)
(0.00112833 -1.7995e-05 1.93681e-07)
(0.000844629 -6.73577e-06 5.44209e-08)
(0.000847891 -8.26657e-06 4.62497e-08)
(0.00112658 -1.11432e-05 1.87073e-07)
(0.000843353 -4.18921e-06 5.45209e-08)
(0.000845818 -5.06292e-06 5.54503e-08)
(0.00112535 -6.90611e-06 1.88546e-07)
(0.000841877 -2.61416e-06 5.33319e-08)
(0.00084369 -3.14719e-06 5.49956e-08)
(0.00112344 -4.31669e-06 1.87087e-07)
(0.000840323 -1.62986e-06 5.32927e-08)
(0.000841772 -1.94543e-06 5.21822e-08)
(0.00112142 -2.68746e-06 1.86933e-07)
(0.000838727 -1.03592e-06 8.11855e-08)
(0.000839937 -1.20372e-06 5.1259e-08)
(0.0011193 -1.68155e-06 1.87135e-07)
(0.000837223 -6.27349e-07 8.81156e-08)
(0.000838218 -7.22963e-07 8.26049e-08)
(0.00111724 -1.0947e-06 2.19556e-07)
(0.000835652 -3.08056e-07 3.57262e-08)
(0.000836564 -4.74001e-07 4.72973e-08)
(0.00111521 -5.90432e-07 2.03791e-07)
(0.000833989 -1.7466e-07 4.11976e-08)
(0.000834837 2.33256e-07 4.71895e-08)
(0.00111305 -2.60751e-07 1.21521e-07)
(0.000832093 -1.108e-07 7.51474e-08)
(0.000833101 3.45645e-07 6.89206e-08)
(0.00111065 -2.40584e-07 1.59866e-07)
(0.000830601 1.03549e-09 1.23249e-07)
(0.000831498 -2.4757e-07 1.0731e-07)
(0.00110844 -7.79164e-08 2.0586e-07)
(0.000829078 5.34292e-08 1.13479e-07)
(0.000829908 -2.22833e-07 1.28244e-07)
(0.00110642 5.43398e-08 2.09039e-07)
(0.000827352 2.50331e-08 5.14532e-08)
(0.000828265 7.03162e-08 5.15414e-08)
(0.00110423 5.31464e-08 1.85314e-07)
(0.000825922 -8.92921e-09 -3.75199e-08)
(0.000826668 -5.58105e-08 6.09432e-08)
(0.00110216 -2.39284e-08 1.84756e-07)
(0.00082431 4.53083e-08 -4.4263e-08)
(0.000825144 2.18653e-08 3.14658e-09)
(0.00110012 -3.28265e-08 1.91459e-07)
(0.000822792 9.37362e-08 4.35614e-08)
(0.000823579 -1.0844e-07 3.33314e-08)
(0.00109803 9.93682e-08 1.81446e-07)
(0.000821231 7.30172e-08 5.39641e-08)
(0.000821991 1.55795e-09 4.85216e-08)
(0.00109594 8.01197e-08 1.84132e-07)
(0.000819869 7.66736e-08 5.30203e-08)
(0.000820526 1.90529e-07 4.25489e-08)
(0.00109399 7.55743e-08 1.63437e-07)
(0.00081837 8.33127e-08 8.01153e-08)
(0.000819033 -1.09728e-07 5.11636e-08)
(0.00109207 1.00925e-07 1.82493e-07)
(0.000816595 4.35135e-08 9.07237e-08)
(0.000817395 6.06149e-08 8.94838e-08)
(0.00108988 9.02411e-08 1.82696e-07)
(0.000815019 -5.47752e-08 5.64014e-08)
(0.000815766 -6.16707e-09 5.11964e-08)
(0.0010877 1.58386e-08 1.83361e-07)
(0.000813465 -1.52071e-07 4.07645e-08)
(0.000814229 3.58747e-09 4.28531e-08)
(0.00108563 -1.18364e-07 1.8235e-07)
(0.000811897 -1.99533e-07 3.20036e-08)
(0.000812723 1.38971e-08 5.24908e-08)
(0.00108357 -1.86514e-07 1.79753e-07)
(0.000810496 -2.34967e-07 3.61517e-08)
(0.000811215 -1.31761e-07 4.13517e-08)
(0.00108157 -2.41654e-07 1.81715e-07)
(0.000809019 -2.77355e-07 3.79547e-08)
(0.000809709 -2.67506e-07 5.60212e-08)
(0.00107956 -2.89127e-07 1.93559e-07)
(0.000807836 -2.74458e-07 1.69105e-08)
(0.000808322 2.30131e-07 -2.60267e-08)
(0.00107789 -3.55166e-07 1.52945e-07)
(0.000805841 -2.35459e-07 2.55046e-08)
(0.000806808 1.19456e-06 1.07056e-07)
(0.00107572 -2.54238e-07 1.04396e-07)
(0.000804432 -1.97446e-07 4.97269e-08)
(0.000805225 -2.88495e-07 5.88397e-08)
(0.00107338 -2.61996e-07 1.84103e-07)
(0.000803014 -1.80437e-07 3.63447e-08)
(0.000803724 -1.71235e-07 5.32473e-08)
(0.00107155 -1.95557e-07 1.78453e-07)
(0.000801411 -2.38588e-07 8.60391e-08)
(0.000802115 -2.95844e-07 -2.29291e-08)
(0.00106958 -2.30154e-07 1.55681e-07)
(0.000799333 -1.17746e-07 1.05826e-07)
(0.000800497 -6.5898e-07 6.67298e-08)
(0.00106715 -3.55967e-07 2.91828e-07)
(0.000798107 1.03647e-07 7.85822e-08)
(0.000798945 -3.20991e-07 2.01676e-09)
(0.00106494 9.77916e-08 1.81454e-07)
(0.000796623 3.39818e-07 5.21824e-08)
(0.000797539 -6.54598e-07 5.28982e-08)
(0.00106331 1.80125e-07 2.22984e-07)
(0.000795244 2.98275e-07 2.99092e-08)
(0.000796019 9.5467e-07 9.17224e-08)
(0.00106118 6.0716e-07 1.18192e-07)
(0.000794538 6.97816e-08 8.04275e-08)
(0.000794857 -1.34778e-06 4.49431e-08)
(0.00105969 3.09912e-08 1.98732e-07)
(0.000793191 -3.22437e-09 7.43706e-08)
(0.000793744 1.74016e-07 1.11081e-07)
(0.00105843 8.44828e-08 2.02226e-07)
(0.000791404 3.19358e-08 4.51038e-08)
(0.000792175 4.4289e-07 4.60833e-08)
(0.00105626 -1.02288e-07 1.67875e-07)
(0.000789758 1.16943e-07 5.67162e-08)
(0.000790587 -1.15227e-07 4.5377e-08)
(0.001054 1.69347e-07 2.0755e-07)
(0.000788113 1.20182e-07 5.96255e-08)
(0.00078898 2.39898e-08 -3.0709e-08)
(0.00105183 8.49912e-08 1.82224e-07)
(0.000786831 1.16686e-07 6.1648e-08)
(0.000787393 -2.93551e-07 4.97187e-08)
(0.00104983 1.62864e-07 1.73844e-07)
(0.000786372 3.90041e-08 7.95929e-08)
(0.00104853 1.00648e-07 1.43422e-07)
(0.000888149 2.64031e-05 -1.42818e-06)
(0.000658504 3.1304e-05 -4.54493e-06)
(0.000881917 5.12019e-05 -4.32092e-06)
(0.000878733 6.23468e-05 5.22912e-07)
(0.000990293 7.2463e-06 2.05508e-06)
(0.0012822 2.80267e-05 1.63823e-06)
(0.00089624 5.5957e-05 2.08655e-06)
(0.000840964 8.64044e-05 -7.27401e-07)
(0.00115268 0.000140205 -2.70629e-07)
(0.00072901 7.74938e-05 7.40127e-06)
(0.000893697 -2.5914e-05 5.48648e-06)
(0.00113312 1.74014e-05 3.58806e-06)
(0.000595648 -1.23854e-05 2.56019e-06)
(0.00132222 0.000208152 -9.44553e-07)
(0.000940246 0.000117638 -1.74111e-05)
(0.000538892 0.000113841 8.28395e-06)
(0.000739127 8.87055e-05 1.36027e-06)
(0.000573532 5.45327e-05 4.60821e-06)
(0.00109983 0.000213177 3.16761e-06)
(0.000151625 9.48279e-05 3.58397e-05)
(0.000661504 1.19345e-05 1.22799e-05)
(0.000218561 4.21723e-05 -5.37428e-06)
(0.000157115 0.000344377 2.96827e-05)
(0.000343311 4.65264e-05 2.04689e-05)
(0.000596896 -0.000168564 0.000153529)
(0.000436478 -0.000107543 7.23225e-06)
(0.000505497 5.35928e-06 6.7976e-06)
(0.000843298 -0.000162789 1.17618e-05)
(0.000367285 -6.52211e-05 2.06577e-06)
(0.000865068 -2.25489e-05 -1.35758e-06)
(0.000920696 -1.32802e-05 -1.94416e-06)
(0.0011829 -3.13653e-05 -1.59687e-06)
(0.000696031 -8.59103e-06 -5.90938e-06)
(0.000573021 -4.14289e-06 -4.05551e-06)
(0.00122268 -8.69641e-06 -6.44692e-06)
(0.000954247 4.79938e-07 -4.01934e-06)
(0.000858772 -1.66951e-05 -1.75211e-08)
(0.000858899 -1.66993e-05 -3.43422e-07)
(0.00114443 -2.8927e-05 1.52785e-07)
(0.000853093 -9.56064e-06 4.77866e-08)
(0.000860381 -8.4853e-06 3.69177e-08)
(0.00114193 -1.57996e-05 1.97451e-07)
(0.000849168 -5.90338e-06 4.72761e-08)
(0.000852503 -5.39601e-06 3.77026e-08)
(0.00113434 -9.84863e-06 1.85861e-07)
(0.000846077 -3.61495e-06 5.59252e-08)
(0.000848703 -3.28331e-06 4.5881e-08)
(0.00113004 -5.98442e-06 1.88767e-07)
(0.000843565 -2.23279e-06 5.38469e-08)
(0.000845433 -2.06009e-06 -2.86261e-09)
(0.00112628 -3.70586e-06 1.87298e-07)
(0.000841367 -1.378e-06 5.01488e-08)
(0.00084285 -1.24687e-06 5.09974e-08)
(0.00112318 -2.27643e-06 1.87381e-07)
(0.000839394 -8.43777e-07 5.26682e-08)
(0.000840611 -7.85756e-07 5.42284e-08)
(0.00112041 -1.41496e-06 1.86813e-07)
(0.000837559 -5.08931e-07 4.1798e-08)
(0.00083864 -4.78299e-07 5.56059e-08)
(0.00111789 -8.44135e-07 1.86999e-07)
(0.000835775 -3.10201e-07 5.87607e-08)
(0.000836814 1.20235e-08 4.43695e-08)
(0.0011155 -5.21883e-07 1.66773e-07)
(0.000833955 -1.98058e-07 7.49055e-08)
(0.000834978 -1.97635e-07 6.8448e-08)
(0.00111306 -3.13694e-07 2.32834e-07)
(0.000832412 -1.09031e-07 1.01071e-07)
(0.000833214 -4.24984e-07 3.95086e-08)
(0.00111087 -2.17996e-07 2.32393e-07)
(0.00083086 -1.60122e-08 1.12298e-07)
(0.000831615 -1.83605e-07 9.06654e-08)
(0.00110881 -7.79442e-08 1.76068e-07)
(0.000829091 4.43432e-08 6.63307e-08)
(0.000829984 -4.37245e-08 7.45462e-08)
(0.00110657 1.02568e-08 1.87099e-07)
(0.000827555 1.02653e-07 6.10284e-08)
(0.000828338 1.18669e-07 5.51404e-08)
(0.00110438 7.79459e-08 1.7586e-07)
(0.00082586 1.63957e-07 1.01628e-07)
(0.000826745 -1.28003e-07 3.56476e-08)
(0.0011022 1.55344e-07 1.98623e-07)
(0.000824473 2.00947e-07 8.07314e-08)
(0.000825191 2.85585e-07 1.01636e-07)
(0.00110017 2.22907e-07 1.48663e-07)
(0.000822738 2.38693e-07 3.82868e-08)
(0.000823626 5.91747e-08 3.42277e-08)
(0.00109809 2.33842e-07 1.85636e-07)
(0.000821203 2.2206e-07 3.71082e-08)
(0.00082197 -9.95491e-08 5.09205e-08)
(0.00109596 3.08778e-07 1.87064e-07)
(0.000819787 8.25058e-08 4.06896e-08)
(0.000820351 -2.50011e-07 4.91787e-08)
(0.00109396 2.16293e-07 2.00504e-07)
(0.000818116 -9.2964e-08 6.052e-08)
(0.000818814 3.30209e-08 5.84994e-08)
(0.00109187 1.21383e-09 1.82195e-07)
(0.000816498 -1.79435e-07 4.99686e-08)
(0.000817287 1.54144e-07 4.44339e-08)
(0.00108972 -1.68705e-07 1.81499e-07)
(0.000814958 -1.91661e-07 3.76507e-08)
(0.000815751 -9.76723e-09 3.0479e-08)
(0.0010876 -1.86719e-07 1.81783e-07)
(0.000813463 -1.85496e-07 5.45764e-08)
(0.000814236 -3.17462e-08 5.63845e-08)
(0.00108559 -1.96758e-07 1.80375e-07)
(0.000812057 -1.6913e-07 6.18425e-08)
(0.000812743 -5.13868e-08 6.42781e-08)
(0.00108362 -1.86783e-07 1.74566e-07)
(0.000810401 -1.71805e-07 6.12167e-08)
(0.000811211 -4.25663e-07 7.44463e-08)
(0.00108158 -1.8918e-07 2.13143e-07)
(0.000808998 -2.0814e-07 -7.93463e-09)
(0.000809663 -2.02043e-07 5.70928e-08)
(0.00107954 -2.13126e-07 1.65375e-07)
(0.000807331 -3.25494e-07 6.40774e-08)
(0.000808176 6.44879e-08 -1.78879e-08)
(0.00107752 -2.76784e-07 2.05417e-07)
(0.000806194 -3.62435e-07 1.40406e-07)
(0.000806762 -1.55907e-07 1.2999e-07)
(0.00107562 -5.1658e-07 2.42899e-07)
(0.000804511 -3.55161e-07 6.23618e-08)
(0.000805234 -2.01399e-07 -2.93866e-08)
(0.0010737 -3.88978e-07 1.89385e-07)
(0.000802925 -3.93509e-07 -6.00294e-09)
(0.000803676 -1.63052e-07 6.71197e-08)
(0.00107154 -4.78779e-07 1.86242e-07)
(0.000801161 -4.42636e-07 -4.22661e-08)
(0.000802054 1.71904e-06 2.93618e-08)
(0.00106929 -3.9469e-07 5.81492e-08)
(0.000799992 -3.03517e-07 -3.70595e-08)
(0.00080067 1.2739e-06 3.60971e-09)
(0.00106752 -5.53372e-07 1.08376e-08)
(0.000798376 -1.34666e-08 -2.36829e-08)
(0.000799307 -5.85845e-08 -3.52793e-09)
(0.00106558 -9.4335e-08 1.71344e-07)
(0.000797037 2.17338e-07 9.24263e-08)
(0.000797828 1.54548e-07 -8.6619e-09)
(0.00106342 9.80954e-08 1.06933e-07)
(0.000795273 6.09693e-07 1.06771e-07)
(0.000796509 3.18187e-07 8.35024e-08)
(0.00106148 3.66939e-07 2.49842e-07)
(0.000794373 5.61596e-07 7.5576e-08)
(0.000794796 -1.2639e-06 8.48625e-08)
(0.00105979 1.01741e-06 1.1977e-07)
(0.000792732 1.4541e-07 8.28133e-08)
(0.000793223 4.43317e-07 8.35329e-08)
(0.00105799 2.60734e-07 1.73484e-07)
(0.000791398 1.77712e-08 4.63567e-08)
(0.000792016 2.11121e-07 4.85962e-08)
(0.00105596 6.30885e-09 1.82396e-07)
(0.000789805 1.10762e-08 -4.2025e-08)
(0.000790579 1.06514e-07 2.78559e-09)
(0.00105401 -4.60202e-08 1.73093e-07)
(0.000788244 5.78649e-08 -4.06403e-08)
(0.000789038 8.03741e-08 -2.0599e-08)
(0.00105197 -1.24667e-08 1.82085e-07)
(0.000786573 1.44018e-07 6.76545e-08)
(0.0007875 6.34689e-08 3.78226e-08)
(0.0010498 1.09497e-07 1.70522e-07)
(0.000786192 -8.00594e-07 8.7335e-08)
(0.00104832 2.31424e-07 1.84496e-07)
(0.000882769 1.14507e-05 -1.06387e-06)
(0.000649984 6.94172e-06 -4.30947e-06)
(0.000857443 2.64386e-05 -2.49814e-06)
(0.000874563 3.50248e-05 8.05693e-07)
(0.00101834 5.4556e-06 1.49527e-06)
(0.00133531 9.68785e-06 8.81976e-07)
(0.000902997 9.61916e-06 2.67047e-06)
(0.000821421 2.76901e-05 -3.45973e-07)
(0.0010807 8.97597e-05 1.58443e-06)
(0.000523887 0.00012345 -3.9285e-06)
(0.00103266 6.28202e-06 3.63317e-06)
(0.00130702 -5.28966e-05 6.67292e-06)
(0.000653937 0.0001292 1.14551e-05)
(0.000925618 0.000286237 -1.46144e-05)
(0.00109107 0.000237785 3.09504e-05)
(0.000476385 6.27156e-05 -3.77154e-06)
(0.000565796 0.000155369 3.7126e-06)
(0.000493461 0.000279133 3.02063e-06)
(0.000686087 0.000331003 -1.80554e-05)
(-2.6869e-05 8.25034e-05 4.00344e-06)
(0.000130007 0.000327333 1.14366e-05)
(-4.10435e-05 0.000224357 3.86341e-06)
(8.14361e-05 0.000253429 9.4345e-06)
(0.000337166 0.000798748 2.90057e-06)
(0.00112976 1.05393e-05 1.97667e-05)
(0.00026985 -0.00022571 2.38292e-05)
(0.000376359 -0.000101333 3.36148e-05)
(0.000507148 -0.000244495 5.23341e-05)
(0.000409569 -0.000110272 1.7507e-05)
(0.000880124 -7.56221e-06 -9.30533e-07)
(0.00095379 4.35504e-07 -1.27798e-06)
(0.00127228 -8.41396e-06 -1.09188e-06)
(0.00064497 -6.29735e-05 -5.36581e-06)
(0.000677031 -2.55613e-05 -5.76655e-06)
(0.0010621 -0.000144257 -4.12621e-06)
(0.00112554 -5.73868e-05 -3.42987e-06)
(0.000866633 -6.68074e-06 -2.89108e-07)
(0.000859288 4.11085e-08 -5.98433e-07)
(0.0011461 -1.20157e-05 5.35151e-08)
(0.000857966 -3.61377e-06 2.68335e-08)
(0.000864243 -1.21986e-07 1.35575e-07)
(0.00115238 -5.87877e-06 2.16568e-07)
(0.000852046 -2.26673e-06 3.63047e-08)
(0.000854204 1.62197e-08 3.60332e-08)
(0.00113896 -3.84626e-06 1.81738e-07)
(0.000847801 -1.3428e-06 -1.2891e-08)
(0.000849869 -1.80062e-07 3.6152e-08)
(0.0011331 -2.27993e-06 1.98322e-07)
(0.000844682 -8.09254e-07 -5.72965e-09)
(0.000846106 4.22292e-07 5.54176e-09)
(0.00112811 -1.37922e-06 1.43856e-07)
(0.000841995 -4.84497e-07 5.50758e-08)
(0.00084326 6.61079e-08 5.28695e-08)
(0.00112431 -8.41225e-07 1.86218e-07)
(0.000839817 -2.80975e-07 5.71656e-08)
(0.000840868 -1.08933e-07 5.06326e-08)
(0.0011211 -4.93372e-07 1.87408e-07)
(0.000837882 -1.71293e-07 5.81809e-08)
(0.000838779 -1.01729e-07 5.22317e-08)
(0.00111836 -2.86636e-07 1.86872e-07)
(0.000836043 -1.24111e-07 5.4049e-08)
(0.000836874 -6.93585e-08 5.69002e-08)
(0.00111588 -1.88634e-07 2.10106e-07)
(0.000834188 -4.35871e-08 3.30604e-08)
(0.00083508 1.86177e-07 4.07424e-08)
(0.00111343 -1.51629e-07 1.79523e-07)
(0.000832348 6.06822e-08 2.90868e-08)
(0.000833344 -8.20395e-08 2.69585e-08)
(0.00111095 3.20939e-08 1.81213e-07)
(0.000830825 9.07026e-08 5.29192e-08)
(0.000831653 3.23767e-07 9.71816e-08)
(0.00110873 1.12025e-07 1.42984e-07)
(0.000829156 7.98061e-08 6.33622e-08)
(0.000829971 8.25882e-08 6.08287e-08)
(0.00110662 9.86355e-08 1.81953e-07)
(0.000827567 5.42583e-08 2.97659e-08)
(0.000828306 -5.48529e-08 1.24305e-08)
(0.00110441 9.08071e-08 1.95943e-07)
(0.000826017 6.63164e-08 3.5634e-08)
(0.00082676 2.52762e-08 6.57367e-09)
(0.00110234 5.5262e-08 1.70269e-07)
(0.000824413 1.62835e-08 5.51532e-08)
(0.000825128 2.44184e-08 -1.57028e-07)
(0.00110022 1.20146e-07 2.03988e-07)
(0.00082288 -5.37347e-08 4.68561e-08)
(0.000823538 -1.63767e-08 5.3218e-08)
(0.00109814 -5.6843e-08 1.8518e-07)
(0.000821028 -2.46747e-08 6.29915e-08)
(0.000822006 -3.62283e-07 5.33154e-08)
(0.00109592 -2.42672e-08 2.26263e-07)
(0.000819401 -4.92637e-08 6.69855e-08)
(0.00082032 -1.44861e-07 6.10081e-08)
(0.00109361 2.61522e-10 1.80647e-07)
(0.000817958 -1.17803e-07 4.24177e-08)
(0.000818728 -3.90917e-07 4.68997e-08)
(0.00109159 -9.08187e-08 2.02242e-07)
(0.000816566 -1.46832e-07 2.49487e-08)
(0.000817251 -1.82946e-08 2.83313e-08)
(0.00108965 -1.57585e-07 1.80367e-07)
(0.000814989 -1.27424e-07 4.92046e-08)
(0.000815775 5.19795e-08 5.22664e-08)
(0.00108766 -1.54063e-07 1.80291e-07)
(0.000813525 -1.01335e-07 6.60837e-08)
(0.000814269 -8.76409e-08 7.98145e-08)
(0.00108563 -1.14923e-07 1.78908e-07)
(0.000811932 -1.15407e-07 7.68788e-08)
(0.000812726 6.0642e-08 4.07919e-08)
(0.00108358 -1.17216e-07 1.78647e-07)