/*--------------------------------*- C++ -*----------------------------------*\
| =========                 |                                                 |
| \\      /  F ield         | OpenFOAM: The Open Source CFD Toolbox           |
|  \\    /   O peration     | Version:  5.0                                   |
|   \\  /    A nd           | Web:      www.OpenFOAM.org                      |
|    \\/     M anipulation  |                                                 |
\*---------------------------------------------------------------------------*/
FoamFile
{
    version     2.0;
    format      ascii;
    class       surfaceVectorField;
    location    "0.1";
    object      Uf_0;
}
// * * * * * * * * * * * * * * * * * * * * * * * * * * * * * * * * * * * * * //

dimensions      [0 1 -1 0 0 0 0];

internalField   nonuniform List<vector> 
12667
(
(0.000853228 -1.7119e-05 -9.44856e-07)
(0.000714633 1.71804e-05 -5.11165e-06)
(0.000976157 5.78663e-06 -3.39006e-06)
(0.000848174 2.15277e-05 1.34809e-06)
(0.000883616 -3.1189e-05 2.54663e-06)
(0.00110839 -5.26445e-05 1.90606e-06)
(0.000749328 -3.53183e-05 4.49876e-06)
(0.000887197 9.04498e-05 -8.94321e-07)
(0.00128255 0.00010183 3.15228e-06)
(0.000626668 2.22002e-05 -1.18861e-06)
(0.000625662 -0.000129875 7.08883e-06)
(0.000673759 -0.000222451 1.7434e-05)
(0.000255627 -1.9947e-05 1.8174e-06)
(0.00146616 0.000103478 -2.02327e-05)
(0.000157099 -8.02619e-05 5.96765e-06)
(0.000552855 6.0204e-05 -4.19651e-06)
(0.00137643 0.000169989 -1.8073e-05)
(0.00105157 -0.000250179 -5.87314e-05)
(0.000477504 -4.86445e-05 1.18815e-05)
(0.00086894 -7.92003e-05 2.40341e-06)
(0.000712633 -0.000162134 -3.57712e-05)
(0.00211147 2.8247e-05 9.53629e-05)
(0.000614346 -1.61083e-05 3.8564e-05)
(0.000643941 7.0496e-06 6.97533e-05)
(0.000937943 6.39138e-06 0.000125749)
(0.000366749 1.76732e-05 -1.98839e-06)
(0.000514659 3.58884e-05 -3.44395e-06)
(0.000483197 6.02468e-05 -1.17909e-06)
(0.000867619 8.47407e-05 -2.13524e-06)
(0.000371008 5.4564e-05 -2.26899e-06)
(0.000699786 1.94599e-05 -2.71682e-06)
(0.000706058 0.000117803 -3.38483e-06)
(0.000830039 -2.57172e-07 -1.18438e-06)
(0.00084343 -7.26051e-06 -2.14036e-06)
(0.00113618 1.08755e-06 -1.40664e-06)
(0.000613843 1.42725e-05 -4.07727e-06)
(0.000580694 1.45422e-05 -4.00078e-06)
(0.00105258 3.36928e-05 -4.30204e-06)
(0.000977193 3.45099e-05 -4.18711e-06)
(0.000834726 -1.34155e-06 -5.63024e-08)
(0.000827164 -5.70012e-06 -1.63439e-07)
(0.0011037 -1.31372e-06 1.25765e-07)
(0.000837453 -1.46669e-06 1.56173e-07)
(0.000837361 -4.78681e-06 1.09276e-07)
(0.00111636 -2.12579e-06 1.96069e-07)
(0.000839105 -1.10606e-06 1.31619e-07)
(0.000838772 -3.44408e-06 1.29501e-07)
(0.00111767 -1.7341e-06 1.79487e-07)
(0.000839667 -6.82757e-07 6.70089e-08)
(0.000840001 -2.43969e-06 5.6322e-08)
(0.00111946 -1.20109e-06 1.9726e-07)
(0.000839081 -3.89069e-07 6.11134e-08)
(0.000839851 -1.6964e-06 6.52782e-08)
(0.00111936 -6.19435e-07 1.71693e-07)
(0.000838423 -2.65356e-07 4.49606e-08)
(0.000839131 -1.09352e-06 4.69818e-08)
(0.00111844 -4.01659e-07 1.84098e-07)
(0.000837486 -1.64988e-07 1.81897e-08)
(0.000838201 -6.83151e-07 8.42868e-08)
(0.00111739 -2.74929e-07 1.79113e-07)
(0.000836174 -9.42395e-08 1.89743e-08)
(0.000836999 1.34136e-07 3.29708e-08)
(0.00111587 -1.54324e-07 1.62138e-07)
(0.000834921 -4.51029e-08 3.15601e-08)
(0.000835651 -3.40864e-07 4.18646e-08)
(0.00111414 -9.85934e-08 1.87437e-07)
(0.000833553 -3.69117e-08 2.48575e-08)
(0.000834236 -3.78912e-07 1.40923e-08)
(0.00111243 -1.88429e-08 1.85254e-07)
(0.000831604 -7.06928e-08 4.15924e-08)
(0.000832616 4.05387e-07 6.62857e-08)
(0.00111015 -8.73322e-08 1.81181e-07)
(0.000830313 -6.89001e-08 5.65695e-08)
(0.000831049 -1.70986e-07 4.26622e-08)
(0.00110803 -1.16659e-07 1.86962e-07)
(0.000828818 -4.57129e-08 5.28839e-08)
(0.000829577 -7.93082e-08 5.3654e-08)
(0.00110619 -5.40385e-08 1.92655e-07)
(0.000827221 -6.12557e-08 5.27173e-08)
(0.000827984 -1.17078e-08 4.44908e-08)
(0.00110406 -6.96839e-09 1.87264e-07)
(0.000825674 -1.00754e-07 5.82467e-08)
(0.000826401 -1.20829e-07 8.14305e-08)
(0.001102 -1.11957e-07 1.76327e-07)
(0.000823996 -1.97724e-08 3.65023e-08)
(0.000824907 1.4742e-07 5.65632e-08)
(0.00109991 -1.50789e-07 1.85243e-07)
(0.000822451 9.73043e-08 2.65971e-08)
(0.000823338 -1.36246e-07 2.96895e-08)
(0.00109775 1.01095e-07 1.82093e-07)
(0.000820873 1.04395e-07 4.95653e-08)
(0.000821696 -1.70435e-07 4.90473e-08)
(0.00109559 1.46086e-07 1.79905e-07)
(0.000819468 7.59502e-08 5.81144e-08)
(0.000820184 -1.56962e-07 6.7532e-08)
(0.00109364 1.15046e-07 1.84185e-07)
(0.000817999 5.6867e-08 8.41703e-08)
(0.000818708 -2.5225e-08 5.08504e-08)
(0.00109176 8.63429e-08 1.73855e-07)
(0.000816167 -4.85789e-09 9.36456e-08)
(0.000817053 1.44681e-07 8.06188e-08)
(0.0010895 7.57169e-08 1.81869e-07)
(0.000814777 -1.3567e-07 5.36832e-08)
(0.000815402 -1.92797e-07 3.92422e-08)
(0.00108737 -6.7578e-08 1.84326e-07)
(0.000813165 -2.1438e-07 2.92507e-08)
(0.000813894 1.78046e-07 3.67865e-08)
(0.0010854 -2.31675e-07 1.82962e-07)
(0.000811551 -2.0354e-07 4.33264e-08)
(0.000812372 1.25357e-07 2.91699e-08)
(0.00108325 -2.54792e-07 1.83123e-07)
(0.000810223 -1.52515e-07 6.17805e-08)
(0.000810928 -1.53348e-07 7.20481e-08)
(0.00108136 -2.61433e-07 1.81162e-07)
(0.000808603 -1.16294e-07 6.37544e-08)
(0.000809438 -2.36218e-08 6.95087e-08)
(0.00107931 -1.71953e-07 1.75458e-07)
(0.000807085 -2.24217e-07 4.61618e-08)
(0.000807768 -1.93848e-08 6.47907e-08)
(0.00107704 -1.90671e-07 1.78737e-07)
(0.000805564 -2.54336e-07 1.64849e-09)
(0.000806379 -3.601e-07 4.13558e-08)
(0.00107512 -4.77005e-07 1.90176e-07)
(0.000804486 -2.17526e-07 1.62423e-08)
(0.000805045 2.92115e-08 2.48992e-08)
(0.00107355 -2.6129e-07 1.05165e-07)
(0.000802933 -2.26467e-07 9.62925e-08)
(0.000803526 -3.57807e-07 4.39845e-08)
(0.00107181 -3.65433e-07 1.91216e-07)
(0.000801116 -9.87344e-08 6.49483e-08)
(0.000802033 9.04688e-07 1.01906e-07)
(0.00106942 -2.57213e-07 1.2844e-07)
(0.000799633 -1.94148e-08 2.01474e-08)
(0.000800493 -1.93788e-07 3.40086e-08)
(0.00106721 5.35453e-09 1.82826e-07)
(0.00079815 2.90568e-08 3.3132e-08)
(0.00079905 -1.04796e-07 4.29409e-08)
(0.00106535 -4.77797e-08 1.78392e-07)
(0.000796484 1.49691e-07 6.26202e-08)
(0.000797577 1.13109e-07 -2.09873e-08)
(0.00106323 1.37389e-07 1.79419e-07)
(0.000794779 3.91212e-07 3.20947e-08)
(0.000795991 3.73688e-07 7.08e-08)
(0.00106085 3.09665e-07 1.75759e-07)
(0.000794192 4.55891e-07 -2.47776e-09)
(0.000794457 1.22778e-06 1.53433e-08)
(0.00105939 7.82508e-07 -8.47842e-09)
(0.000792523 2.53406e-07 8.26706e-08)
(0.000793025 4.45774e-07 3.74048e-08)
(0.00105798 4.31086e-07 1.71702e-07)
(0.00079107 1.10756e-07 8.05475e-08)
(0.000791618 4.05275e-08 8.36355e-08)
(0.00105584 2.1345e-07 1.80738e-07)
(0.000789387 5.48524e-08 3.67032e-08)
(0.000790164 5.27663e-07 4.69681e-08)
(0.00105371 7.0926e-08 1.56463e-07)
(0.000787984 8.14285e-08 4.75852e-08)
(0.000788734 -1.06962e-07 4.52303e-08)
(0.00105162 9.24187e-08 1.68712e-07)
(0.000786701 1.39778e-07 6.75829e-08)
(0.000787285 1.76007e-07 7.22574e-08)
(0.00104984 1.73991e-07 1.57424e-07)
(0.000786046 1.23989e-07 7.90961e-08)
(0.00104834 2.33e-07 1.82095e-07)
(0.000871141 2.30942e-06 -1.6227e-06)
(0.000680075 3.78344e-05 -4.54162e-06)
(0.000907164 3.87027e-05 -4.52295e-06)
(0.000832223 3.17913e-05 3.05364e-07)
(0.000922108 -4.36835e-06 2.21727e-06)
(0.00120907 -4.10428e-05 1.51914e-06)
(0.00083951 -2.0525e-05 1.69311e-06)
(0.000819497 7.75314e-05 -7.7951e-07)
(0.00110155 0.000138804 2.99475e-07)
(0.000699638 5.28489e-05 5.03999e-06)
(0.000726463 -4.61394e-05 6.75525e-06)
(0.000991808 -0.000195896 4.09192e-06)
(0.000358878 3.85292e-05 7.65222e-06)
(0.00135071 0.000172559 1.08109e-05)
(0.000487484 0.000374222 3.31925e-06)
(0.000527453 0.000104511 1.59739e-06)
(0.000507944 7.33846e-05 -4.48887e-06)
(0.000494882 0.000152981 7.0959e-06)
(0.00127149 0.000235654 1.29007e-05)
(0.00180837 0.00105922 1.92946e-05)
(0.00181979 0.000595038 5.51746e-05)
(0.0024697 0.000386358 8.39572e-05)
(0.000598561 0.000326721 6.64843e-05)
(0.00342925 0.000243091 -5.28754e-06)
(0.000319875 3.28042e-05 -2.46783e-06)
(0.000435562 7.93979e-06 -6.61275e-07)
(0.000438957 -2.11719e-05 -2.80425e-06)
(0.000433751 -5.9509e-05 -1.55972e-06)
(0.000706528 -5.39281e-05 -9.09169e-07)
(0.000214933 1.51472e-05 -7.10914e-07)
(0.000601055 0.000106348 -4.05497e-06)
(0.000359829 5.87061e-05 1.28253e-06)
(0.000824565 -1.5452e-05 -1.12007e-06)
(0.000842436 -3.20624e-05 -2.27433e-06)
(0.00111349 -2.47139e-05 -1.40966e-06)
(0.000570979 -1.16748e-05 -3.91394e-06)
(0.000595567 -2.18007e-05 -3.58327e-06)
(0.000961842 -1.81381e-05 -4.11277e-06)
(0.00102142 -4.27251e-05 -3.68982e-06)
(0.000834134 -1.03734e-05 2.05013e-09)
(0.000833363 -1.92559e-05 -1.25448e-07)
(0.00110211 -1.61555e-05 1.53454e-07)
(0.000838316 -7.15987e-06 8.25976e-08)
(0.000841419 -1.22396e-05 1.03774e-07)
(0.0011166 -1.14312e-05 1.97812e-07)
(0.000840085 -4.77424e-06 5.42281e-08)
(0.000841783 -7.72832e-06 4.92243e-08)
(0.00111909 -7.66558e-06 1.87619e-07)
(0.000840402 -3.20276e-06 5.45884e-08)
(0.000841985 -4.91098e-06 5.6611e-08)
(0.00112061 -5.08657e-06 1.88064e-07)
(0.000839898 -2.12792e-06 5.11525e-08)
(0.000841208 -3.10975e-06 5.41058e-08)
(0.00112037 -3.46435e-06 1.86222e-07)
(0.000838971 -1.35857e-06 8.6296e-08)
(0.000840102 -1.9718e-06 5.17422e-08)
(0.00111938 -2.2248e-06 1.86001e-07)
(0.00083781 -9.0499e-07 9.90845e-08)
(0.000838773 -1.26064e-06 8.785e-08)
(0.00111793 -1.41346e-06 1.85595e-07)
(0.00083644 -6.05458e-07 5.58582e-08)
(0.000837377 -1.18659e-08 4.98524e-08)
(0.00111626 -1.00271e-06 1.74208e-07)
(0.000834979 -4.02394e-07 2.44058e-08)
(0.000835908 -1.00622e-06 4.82948e-08)
(0.00111442 -6.1458e-07 2.17931e-07)
(0.000833407 -3.43561e-07 5.55037e-08)
(0.000834311 4.02803e-07 4.71046e-08)
(0.00111233 -4.71626e-07 1.27983e-07)
(0.000831953 -2.33061e-07 6.73631e-08)
(0.000832755 1.8629e-07 4.90599e-08)
(0.00111029 -4.42015e-07 1.87025e-07)
(0.000830313 -7.14473e-08 3.97432e-08)
(0.000831251 -4.18943e-08 3.69271e-08)
(0.00110827 -1.57438e-07 1.79301e-07)
(0.000828769 -3.72573e-08 4.52639e-08)
(0.00082962 1.86617e-07 5.66169e-08)
(0.00110616 -8.01096e-09 1.61607e-07)
(0.000827205 6.52492e-09 7.31922e-08)
(0.000828038 6.92379e-08 4.77856e-08)
(0.001104 -4.76501e-08 1.76308e-07)
(0.00082559 6.94018e-08 7.9755e-08)
(0.000826479 3.15586e-07 8.26672e-08)
(0.00110186 1.52331e-07 1.5622e-07)
(0.000824263 7.15366e-08 4.9759e-08)
(0.000824909 -2.14415e-07 4.83101e-08)
(0.00110004 1.38577e-07 1.8692e-07)
(0.000822579 9.30396e-08 5.21335e-08)
(0.000823363 -4.20785e-09 4.88549e-08)
(0.00109802 1.12732e-07 1.83825e-07)
(0.000820959 1.06968e-07 6.7008e-08)
(0.000821712 -9.83651e-08 5.63989e-08)
(0.00109578 1.80551e-07 1.82547e-07)
(0.000819429 4.60509e-08 6.02733e-08)
(0.000820107 -2.05777e-07 4.9404e-08)
(0.00109369 1.78221e-07 1.83313e-07)
(0.00081785 -1.17341e-07 4.72895e-08)
(0.000818503 3.8925e-08 5.36604e-08)
(0.00109163 1.82725e-08 1.79945e-07)
(0.000816238 -1.75774e-07 2.62285e-08)
(0.00081698 2.74127e-07 5.79078e-09)
(0.00108947 -2.6273e-07 1.78402e-07)
(0.000814468 -1.19172e-07 2.23463e-08)
(0.000815473 1.07076e-07 1.75635e-08)
(0.00108722 -1.17055e-07 1.80307e-07)
(0.000813112 -7.21708e-08 3.67081e-08)
(0.000813953 -3.5818e-09 4.87125e-08)
(0.00108518 -9.67249e-08 1.78068e-07)
(0.000811711 4.16173e-08 5.78781e-08)
(0.000812514 -4.23024e-09 5.2315e-08)
(0.00108325 -1.69134e-08 1.78587e-07)
(0.000810183 7.94937e-08 7.97771e-08)
(0.000810975 -1.8899e-07 7.97154e-08)
(0.00108128 1.41268e-07 1.83202e-07)
(0.000808668 4.62997e-08 7.05465e-08)
(0.000809396 -1.47294e-07 7.03246e-08)
(0.00107932 2.72769e-08 1.88579e-07)
(0.000806931 1.17246e-07 5.99919e-08)
(0.000807857 2.33033e-07 5.60565e-08)
(0.00107712 6.09854e-08 1.81702e-07)
(0.00080594 1.20085e-07 6.46116e-08)
(0.000806382 -7.58516e-07 5.98424e-08)
(0.00107539 2.45193e-07 1.61682e-07)
(0.000804044 -3.34569e-08 5.26355e-08)
(0.000804853 3.63579e-07 6.1586e-08)
(0.00107345 7.87976e-08 1.90425e-07)
(0.000802635 -2.40545e-07 4.958e-08)
(0.000803268 6.03623e-08 4.55875e-08)
(0.00107114 -1.67673e-07 1.40942e-07)
(0.000801464 -2.9399e-07 7.09871e-08)
(0.000801968 -2.69066e-07 5.50485e-08)
(0.00106952 -4.71301e-07 2.34025e-07)
(0.000799831 -1.86756e-07 5.67993e-08)
(0.000800628 9.61525e-08 7.58829e-08)
(0.00106763 -2.84969e-07 1.70513e-07)
(0.000798522 -4.04127e-08 -1.11587e-08)
(0.000799233 -2.33e-07 4.13098e-08)
(0.00106569 -1.67176e-07 1.71615e-07)
(0.00079705 2.67225e-07 -1.28357e-08)
(0.000797961 1.20958e-07 -2.1275e-08)
(0.00106388 8.92546e-08 1.7662e-07)
(0.000795678 5.06861e-07 5.40656e-08)
(0.000796289 5.89816e-07 1.93465e-08)
(0.00106199 6.25002e-07 1.52686e-07)
(0.00079328 4.15882e-07 5.52191e-08)
(0.000794342 -2.94514e-07 6.52173e-08)
(0.00105932 7.35429e-07 3.71776e-07)
(0.000792128 2.07397e-07 3.83555e-08)
(0.000792763 2.16863e-07 7.29832e-08)
(0.00105693 4.02948e-07 1.65159e-07)
(0.000790685 5.34582e-08 5.00673e-08)
(0.000791425 4.39303e-08 4.73976e-08)
(0.00105535 1.60687e-07 1.74978e-07)
(0.00078953 -6.29149e-09 5.54958e-08)
(0.000790089 -9.98931e-09 5.46624e-08)
(0.00105358 -2.18679e-08 1.88268e-07)
(0.000788062 2.11816e-08 6.98943e-08)
(0.000788768 -9.3976e-08 7.61061e-08)
(0.00105186 3.10989e-08 1.76862e-07)
(0.000786516 2.47106e-08 8.37685e-08)
(0.000787288 7.94049e-08 7.11863e-08)
(0.00104981 9.24924e-08 1.92134e-07)
(0.000786016 4.83899e-08 8.22692e-08)
(0.00104803 4.81185e-08 1.76624e-07)
(0.000858773 3.02133e-05 -7.0389e-07)
(0.000670548 3.68436e-05 -4.62576e-06)
(0.000882614 5.34531e-05 -2.0499e-06)
(0.00081446 5.19051e-05 1.13339e-06)
(0.000948271 2.12072e-05 2.48745e-06)
(0.00123187 2.92597e-05 2.0596e-06)
(0.000796735 6.6606e-05 4.28014e-06)
(0.000839211 0.000107789 -8.42957e-07)
(0.00107485 0.000117906 -4.97909e-07)
(0.000349733 3.14961e-05 -1.27439e-05)
(0.000770924 3.44543e-05 7.31068e-06)
(0.00101265 7.81425e-05 8.51288e-06)
(0.000499975 0.000109872 9.67999e-06)
(0.00086937 2.74496e-05 -2.07726e-05)
(0.000806559 5.1388e-05 1.29202e-06)
(0.00029361 4.01643e-05 -7.19949e-06)
(0.000753436 8.50599e-05 -5.72426e-06)
(0.000397095 0.000116797 -6.63282e-06)
(0.000582319 1.90913e-05 -3.90668e-05)
(0.000688657 0.000247113 -1.79421e-05)
(0.000703008 0.000258042 1.8079e-06)
(0.00194466 8.76925e-06 4.87963e-05)
(0.000418414 5.07e-05 1.70145e-05)
(0.00138467 0.00040312 -9.12591e-05)
(0.000456153 5.09834e-05 1.59145e-06)
(0.000438978 -2.42751e-05 -2.32197e-06)
(0.000481737 1.65481e-06 -3.49423e-06)
(0.000716151 4.26687e-05 6.4981e-07)
(0.000182882 3.25462e-05 1.19843e-05)
(0.000925432 0.000125488 1.21673e-05)
(0.000273303 0.000104088 2.35636e-05)
(0.000316687 -2.21678e-05 2.78e-06)
(0.000514407 -9.45699e-05 7.33875e-06)
(0.00054939 -0.000105759 -3.16323e-06)
(0.0003025 -2.34823e-05 -2.57529e-06)
(0.000840534 -3.25811e-05 -1.28042e-06)
(0.000868114 -3.84789e-05 -2.61634e-06)
(0.00113327 -5.48408e-05 -1.5815e-06)
(0.000604601 -2.78693e-05 -3.84538e-06)
(0.000597424 -5.82778e-05 -3.99131e-06)
(0.00103541 -4.88068e-05 -3.9388e-06)
(0.00102698 -0.000120723 -4.11266e-06)
(0.000844219 -1.95e-05 -2.37994e-08)
(0.000849508 -2.55579e-05 -1.55354e-07)
(0.00111985 -3.26691e-05 1.61116e-07)
(0.000844554 -1.1835e-05 7.04184e-08)
(0.000851079 -1.48561e-05 1.04998e-07)
(0.00112708 -1.96378e-05 1.96291e-07)
(0.00084401 -7.29461e-06 5.16048e-08)
(0.000847507 -9.10509e-06 4.12677e-08)
(0.00112568 -1.20926e-05 1.86788e-07)
(0.000842868 -4.51684e-06 5.61292e-08)
(0.000845487 -5.55953e-06 5.28072e-08)
(0.00112476 -7.46002e-06 1.88212e-07)
(0.000841456 -2.81781e-06 5.46962e-08)
(0.00084335 -3.40788e-06 4.85954e-08)
(0.00112297 -4.64372e-06 1.87671e-07)
(0.000839938 -1.767e-06 5.32846e-08)
(0.000841426 -2.12887e-06 5.35402e-08)
(0.00112102 -2.90571e-06 1.8722e-07)
(0.000838344 -1.11526e-06 3.86303e-08)
(0.000839595 -1.31404e-06 5.30613e-08)
(0.00111893 -1.82545e-06 1.86872e-07)
(0.000836867 -7.14054e-07 4.22895e-08)
(0.000837883 -7.83867e-07 3.61113e-08)
(0.00111687 -1.14905e-06 2.2636e-07)
(0.000835267 -4.81552e-07 7.0994e-08)
(0.000836201 -5.48348e-07 4.26799e-08)
(0.00111481 -7.53903e-07 1.52667e-07)
(0.000833605 -3.38006e-07 4.06601e-08)
(0.000834492 8.97349e-08 8.4803e-08)
(0.00111265 -5.38006e-07 2.11277e-07)
(0.000832086 -2.06422e-07 1.86277e-08)
(0.000832921 4.68276e-07 -4.81018e-09)
(0.00111055 -3.61571e-07 1.58048e-07)
(0.00083057 -1.5019e-07 5.37944e-08)
(0.000831322 -2.59912e-08 4.18988e-08)
(0.00110857 -1.7392e-07 1.76361e-07)
(0.000828829 -1.24238e-07 5.91414e-08)
(0.000829653 7.3978e-08 4.36673e-08)
(0.00110633 -2.25232e-07 2.04906e-07)
(0.00082738 -8.33896e-08 5.72494e-08)
(0.00082809 -1.21588e-07 5.03677e-08)
(0.00110426 -1.07437e-07 1.85344e-07)
(0.000825719 -5.53781e-08 5.12333e-08)
(0.000826514 8.18121e-08 6.14718e-08)
(0.00110223 -6.54383e-08 2.06889e-07)
(0.000824126 -7.58782e-08 4.74059e-08)
(0.000824883 -2.36416e-08 1.77662e-07)
(0.00109986 1.94498e-08 1.71541e-07)
(0.000822418 -1.29451e-07 5.31178e-08)
(0.000823297 1.60757e-07 6.82013e-08)
(0.0010978 -1.19542e-07 1.83623e-07)
(0.000820845 -7.37977e-08 3.87971e-08)
(0.000821782 1.17595e-08 5.81951e-08)
(0.00109567 -1.6716e-07 1.75791e-07)
(0.000819211 -6.98039e-08 4.27898e-08)
(0.000820113 1.29676e-07 4.08482e-08)
(0.00109343 -1.64685e-08 1.6547e-07)
(0.000817582 -1.14378e-07 1.21768e-08)
(0.000818448 1.59385e-07 5.40719e-08)
(0.00109121 -1.90919e-07 1.80318e-07)
(0.000816261 -6.0646e-08 -2.87792e-09)
(0.000817048 -6.21255e-08 7.43242e-10)
(0.00108933 -1.57233e-07 1.85522e-07)
(0.000814863 5.19369e-08 4.39199e-08)
(0.000815614 -3.75054e-08 5.0926e-08)
(0.00108758 -4.95947e-08 1.78915e-07)
(0.000813369 1.59247e-07 6.43183e-08)
(0.000814087 -3.33242e-08 6.32392e-08)
(0.00108553 1.21793e-07 1.79598e-07)
(0.00081188 1.71946e-07 7.41437e-08)
(0.00081253 -5.41362e-08 5.10356e-08)
(0.00108355 2.17445e-07 1.80694e-07)
(0.000810148 1.76583e-07 7.02659e-08)
(0.000810981 6.31194e-08 5.87963e-08)
(0.00108142 1.95431e-07 1.80883e-07)
(0.000808563 1.88964e-07 5.58391e-08)
(0.000809411 -1.99061e-07 3.54176e-08)
(0.00107921 2.78879e-07 1.89666e-07)
(0.000807318 2.78845e-07 5.59058e-08)
(0.000807968 2.90071e-07 5.81554e-08)
(0.00107732 2.54575e-07 1.51831e-07)
(0.000805303 2.25069e-07 5.68163e-08)
(0.000806314 1.27146e-07 5.88053e-08)
(0.00107514 5.16324e-07 1.61392e-07)
(0.000804067 9.26497e-08 5.45431e-08)
(0.000804686 4.16358e-08 5.81876e-08)
(0.00107303 9.59343e-08 1.78349e-07)
(0.000802465 8.27147e-08 5.10532e-08)
(0.000803255 4.11294e-08 4.9196e-08)
(0.00107112 1.59475e-07 1.89622e-07)
(0.000801303 2.77835e-08 5.99379e-08)
(0.000801899 -4.86013e-07 1.79229e-08)
(0.00106927 6.40195e-08 1.64419e-07)
(0.000799879 1.32595e-07 6.04042e-08)
(0.000800759 -1.1478e-06 6.05522e-08)
(0.00106759 2.42686e-08 2.62057e-07)
(0.000798734 9.87974e-08 3.12127e-08)
(0.00079919 -6.34401e-07 5.02782e-08)
(0.00106582 3.27144e-07 1.76555e-07)
(0.000797332 -1.97802e-07 1.08947e-08)
(0.000797591 1.83523e-08 3.48846e-08)
(0.00106422 -9.08096e-08 1.78273e-07)
(0.000794927 -3.45024e-07 3.04842e-08)
(0.000796106 3.30321e-06 6.38928e-08)
(0.00106166 -4.47153e-07 6.551e-08)
(0.000793679 -1.7329e-07 8.29791e-08)
(0.000794557 -4.67792e-07 5.09587e-08)
(0.00105911 -4.50934e-07 1.6978e-07)
(0.000792139 -8.20096e-09 8.20331e-08)
(0.000792969 3.54773e-08 1.59691e-07)
(0.00105726 2.92395e-08 1.96955e-07)
(0.000790748 -2.33795e-08 5.19906e-08)
(0.000791406 -6.39445e-08 4.8794e-08)
(0.0010553 -1.01761e-08 1.7829e-07)
(0.000789383 -9.42585e-08 7.52663e-08)
(0.000790001 -1.57595e-07 5.64308e-08)
(0.00105355 -3.76681e-08 1.79057e-07)
(0.000787988 -1.38528e-07 7.73997e-08)
(0.000788713 -1.24036e-07 1.06044e-07)
(0.00105176 -2.09732e-07 1.73224e-07)
(0.000786645 -6.35552e-08 6.96837e-08)
(0.000787381 -7.71205e-08 5.75241e-08)
(0.00104986 -1.41997e-07 1.78034e-07)
(0.000786096 -1.81767e-08 8.11043e-08)
(0.00104817 -1.06838e-08 1.73373e-07)
(0.000888219 2.86679e-05 -1.43678e-06)
(0.000658598 3.35711e-05 -4.55646e-06)
(0.000881311 5.32477e-05 -4.35659e-06)
(0.000878648 6.54633e-05 5.12207e-07)
(0.00099085 9.45584e-06 2.05974e-06)
(0.00128163 3.05118e-05 1.65217e-06)
(0.000896399 6.01926e-05 2.18489e-06)
(0.000841719 9.06289e-05 -7.78141e-07)
(0.00115325 0.000143761 -2.92624e-07)
(0.000728185 8.42178e-05 7.54947e-06)
(0.00089644 -2.26317e-05 5.5294e-06)
(0.00112953 2.20958e-05 3.80323e-06)
(0.000595556 -3.09671e-06 2.06712e-06)
(0.00132666 0.00021791 -9.4625e-07)
(0.000938433 0.000133112 -1.91066e-05)
(0.000542688 0.000115616 9.26719e-06)
(0.000730249 9.7254e-05 1.41433e-06)
(0.0005787 6.74618e-05 4.23286e-06)
(0.00111109 0.000223202 3.09597e-06)
(9.60604e-05 4.96435e-05 3.15041e-05)
(0.000627138 1.94532e-05 1.10226e-05)
(0.000142267 4.24273e-05 2.30191e-05)
(8.03846e-05 0.000433328 2.61799e-05)
(0.000220537 7.13433e-05 1.49703e-05)
(0.000652596 -0.000184703 6.42875e-05)
(0.000461356 -9.11883e-05 6.79013e-06)
(0.000546998 1.29821e-05 7.12338e-06)
(0.00093135 -0.000143745 1.61668e-05)
(0.000377762 -6.91424e-05 1.62305e-06)
(0.000866817 -2.55432e-05 -1.49209e-06)
(0.000921351 -1.45908e-05 -2.05407e-06)
(0.00118349 -3.69841e-05 -1.72148e-06)
(0.0007004 -8.89854e-06 -5.51587e-06)
(0.000568887 -6.34134e-06 -3.95697e-06)
(0.00123999 -9.49656e-06 -6.08607e-06)
(0.000950522 -2.23608e-06 -3.87697e-06)
(0.00085933 -1.84107e-05 -2.66411e-08)
(0.000859561 -1.77826e-05 -3.86247e-07)
(0.00114546 -3.19049e-05 1.54083e-07)
(0.000853195 -1.06351e-05 7.58683e-08)
(0.000860875 -9.33541e-06 1.38479e-07)
(0.00114253 -1.76557e-05 1.93314e-07)
(0.000849092 -6.54936e-06 4.24663e-08)
(0.000852659 -6.01457e-06 2.15419e-08)
(0.00113444 -1.09635e-05 1.85767e-07)
(0.000845894 -3.95225e-06 4.52747e-08)
(0.00084876 -3.63025e-06 5.59432e-08)
(0.00113 -6.64207e-06 1.8783e-07)
(0.000843289 -2.40946e-06 4.74377e-08)
(0.000845295 -2.19116e-06 -6.34325e-08)
(0.00112611 -3.98449e-06 1.86091e-07)
(0.000841062 -1.48001e-06 5.33171e-08)
(0.000842598 -1.38976e-06 5.02302e-08)
(0.00112293 -2.49569e-06 1.86676e-07)
(0.000839082 -8.76963e-07 5.05479e-08)
(0.000840355 -8.73921e-07 4.59322e-08)
(0.00112014 -1.47074e-06 1.86085e-07)
(0.00083726 -5.55942e-07 3.64996e-08)
(0.000838288 -5.32519e-07 4.63989e-08)
(0.00111761 -8.70167e-07 1.85772e-07)
(0.000835434 -3.77732e-07 5.64753e-08)
(0.000836426 -5.37106e-07 3.39846e-08)
(0.00111519 -6.18394e-07 2.02829e-07)
(0.000833708 -2.47677e-07 3.93615e-08)
(0.000834656 -2.08765e-07 7.02895e-08)
(0.00111283 -4.01035e-07 2.15709e-07)
(0.000832229 -1.66465e-07 1.84459e-08)
(0.000833024 -2.76062e-07 4.31735e-08)
(0.00111075 -2.81714e-07 2.25596e-07)
(0.000830407 -1.55055e-07 3.17711e-08)
(0.000831338 8.6518e-08 4.82595e-08)
(0.00110844 -1.94083e-07 1.96211e-07)
(0.000828886 -1.3843e-07 3.48913e-08)
(0.000829674 -4.28735e-08 2.48781e-08)
(0.00110625 -2.5843e-07 1.86124e-07)
(0.0008272 -1.58358e-07 5.45865e-08)
(0.000828066 -8.81686e-08 4.7359e-08)
(0.0011042 -1.50189e-07 1.90291e-07)
(0.00082567 -2.18262e-07 1.87864e-07)
(0.000826441 1.43062e-07 9.09916e-08)
(0.00110202 -3.23438e-07 1.74999e-07)
(0.000824098 -2.33092e-07 1.98492e-07)
(0.000824866 2.37463e-07 1.80792e-07)
(0.00109997 -3.22953e-07 1.64752e-07)
(0.000822613 -2.48467e-07 7.32818e-08)
(0.000823279 1.66212e-08 7.33478e-08)
(0.00109779 -3.34984e-07 1.8571e-07)
(0.000821119 -1.98258e-07 6.02517e-08)
(0.000821846 3.30641e-07 7.5036e-08)
(0.00109591 -3.78955e-07 1.54334e-07)
(0.000819296 -5.50059e-08 5.21261e-08)
(0.000820293 3.18739e-07 4.68468e-08)
(0.00109367 -2.39207e-07 1.92233e-07)
(0.000817869 1.44248e-07 4.26551e-08)
(0.000818698 -4.8639e-08 5.10918e-08)
(0.00109146 1.15461e-09 1.85729e-07)
(0.00081641 2.3204e-07 5.45313e-08)
(0.000817157 -1.96064e-07 5.84973e-08)
(0.00108965 2.93181e-07 1.83406e-07)
(0.000814849 2.06576e-07 7.02414e-08)
(0.000815581 -1.38115e-08 7.64225e-08)
(0.00108757 2.22535e-07 1.81451e-07)
(0.000813276 1.62338e-07 4.99604e-08)
(0.000814031 5.93281e-09 4.75962e-08)
(0.00108551 2.10546e-07 1.81649e-07)
(0.000811615 1.01333e-07 3.56857e-08)
(0.000812453 3.52693e-09 3.5573e-08)
(0.00108334 1.25531e-07 1.88312e-07)
(0.000810266 7.5455e-08 2.39553e-08)
(0.000810948 -5.01986e-07 5.51213e-08)
(0.00108135 1.07313e-07 2.04939e-07)
(0.000808674 9.02883e-08 3.77268e-08)
(0.000809429 -2.55127e-08 2.94197e-08)
(0.0010794 9.99246e-08 1.74294e-07)
(0.000807247 5.22033e-08 6.10546e-08)
(0.00080792 -2.10007e-07 6.20576e-08)
(0.00107741 1.58063e-07 2.07744e-07)
(0.000805428 1.27036e-08 6.01768e-08)
(0.000806264 9.30893e-10 5.69345e-08)
(0.00107519 3.76762e-08 2.16125e-07)
(0.000804013 8.18288e-08 5.28434e-08)
(0.000804772 -1.53978e-07 8.0613e-08)
(0.001073 7.51296e-08 1.85347e-07)
(0.000802519 3.68307e-07 1.60755e-08)
(0.000803612 1.45355e-07 4.94236e-08)
(0.0010711 2.0832e-07 1.71027e-07)
(0.000801381 5.51478e-07 1.8524e-08)
(0.000802126 7.56729e-07 4.1344e-08)
(0.00106935 8.05375e-07 5.74672e-08)
(0.000800259 4.05906e-07 5.04294e-08)
(0.000800575 6.06062e-07 5.2375e-08)
(0.00106796 6.68796e-07 1.93103e-08)
(0.00079791 1.98698e-07 5.39548e-08)
(0.00079893 1.77863e-07 4.61429e-08)
(0.00106554 4.15875e-07 1.97531e-07)
(0.000796431 -1.91555e-07 8.78738e-08)
(0.000797103 1.45971e-07 -1.3867e-07)
(0.00106291 1.19278e-07 1.68564e-07)
(0.000795624 -3.92833e-07 8.43712e-08)
(0.000795855 7.31695e-07 8.59997e-08)
(0.00106154 -5.95062e-07 3.03237e-07)
(0.000793984 -3.27011e-07 1.27637e-07)
(0.000794641 -2.68816e-07 1.79322e-07)
(0.00105991 -4.27372e-07 1.78373e-07)
(0.00079213 -2.60458e-07 1.26486e-07)
(0.000793053 5.89859e-07 1.30314e-07)
(0.00105748 -4.18968e-07 1.72017e-07)
(0.000790724 -2.17784e-07 5.32319e-08)
(0.000791459 -1.17298e-07 4.74277e-08)
(0.00105527 -2.03366e-07 1.75796e-07)
(0.000789209 -2.5211e-07 8.7193e-08)
(0.000789958 -5.52051e-08 8.34993e-08)
(0.00105333 -2.84862e-07 1.7444e-07)
(0.000788183 -1.47571e-07 8.61828e-08)
(0.000788844 -1.95419e-06 8.01698e-08)
(0.00105173 -3.06659e-07 2.71013e-07)
(0.000786675 -4.86577e-08 6.89375e-08)
(0.000787506 -1.35237e-08 3.95518e-08)
(0.00105006 -5.62446e-08 1.77015e-07)
(0.000786156 -9.65855e-08 8.564e-08)
(0.00104823 -8.70943e-08 1.73921e-07)
(0.000883331 1.3327e-05 -1.06213e-06)
(0.000650254 8.45076e-06 -4.35987e-06)
(0.000857134 2.81751e-05 -2.49451e-06)
(0.000875794 3.77052e-05 7.70336e-07)
(0.00101994 7.03735e-06 1.44334e-06)
(0.00133597 1.18202e-05 8.67825e-07)
(0.000905867 1.27748e-05 2.56428e-06)
(0.000822711 2.99992e-05 -3.72529e-07)
(0.00108078 9.2967e-05 1.5752e-06)
(0.000530984 0.000127764 -4.64212e-06)
(0.00104064 9.44763e-06 3.49707e-06)
(0.00131471 -4.98824e-05 6.5498e-06)
(0.000656778 0.000133724 1.06679e-05)
(0.000933635 0.000294109 -1.67143e-05)
(0.00109087 0.000244024 2.95482e-05)
(0.000482769 7.37237e-05 -4.69825e-06)
(0.000608091 0.000158886 3.20603e-06)
(0.00049922 0.000280763 1.96845e-06)
(0.000696298 0.00033866 -2.03837e-05)
(-2.58264e-05 0.00011717 6.1574e-06)
(0.000246098 0.000376736 1.7174e-05)
(-0.000120597 0.000251255 7.48524e-06)
(5.81489e-05 0.000239635 1.49058e-05)
(0.000343776 0.000919624 2.2631e-05)
(0.00115097 6.44484e-06 2.13683e-05)
(0.000282218 -0.00022882 2.48894e-05)
(0.000391009 -0.000105639 3.78345e-05)
(0.000524624 -0.000249106 5.48417e-05)
(0.000402015 -0.000111249 1.98282e-05)
(0.000881215 -8.38369e-06 -9.48777e-07)
(0.000955625 -1.73919e-06 -1.29976e-06)
(0.00127567 -9.70155e-06 -1.06388e-06)
(0.000645296 -6.55655e-05 -5.41228e-06)
(0.000677162 -2.65147e-05 -5.79974e-06)
(0.00106318 -0.000149159 -4.23737e-06)
(0.00112691 -5.84545e-05 -3.4863e-06)
(0.000867411 -7.46774e-06 -2.21298e-07)
(0.00085999 -6.37394e-07 -5.97243e-07)
(0.00114731 -1.32629e-05 5.24101e-08)
(0.000858435 -4.24544e-06 8.41909e-08)
(0.000864935 -1.39149e-06 2.15793e-07)
(0.00115346 -6.87116e-06 2.70584e-07)
(0.00085232 -2.76547e-06 3.50076e-08)
(0.000854527 -3.87779e-07 1.81363e-08)
(0.00113957 -4.5892e-06 1.84271e-07)
(0.000848002 -1.78636e-06 -5.27252e-08)
(0.000849996 -3.48005e-08 7.49748e-08)
(0.00113356 -2.86782e-06 1.69794e-07)
(0.000844435 -1.16465e-06 -6.06769e-08)
(0.00084608 4.4595e-07 -8.11544e-08)
(0.0011282 -1.95265e-06 1.71294e-07)
(0.000841836 -7.48429e-07 4.28467e-08)
(0.000843123 -1.81242e-07 4.79078e-08)
(0.00112419 -1.19872e-06 1.86304e-07)
(0.000839507 -5.06136e-07 4.1783e-08)
(0.000840661 5.28521e-08 5.55085e-08)
(0.00112098 -8.46382e-07 1.82606e-07)
(0.000837447 -3.30157e-07 4.38879e-08)
(0.00083851 6.81082e-08 5.19072e-08)
(0.00111795 -5.613e-07 1.82218e-07)
(0.000835646 -2.23509e-07 4.77871e-08)
(0.000836561 1.15027e-09 4.86369e-08)
(0.0011154 -3.64336e-07 1.64382e-07)
(0.00083389 -1.32745e-07 7.41102e-08)
(0.000834771 -3.09251e-08 4.88132e-08)
(0.00111307 -2.71749e-07 1.85459e-07)
(0.000832203 -1.24431e-07 7.29855e-08)
(0.000833035 -3.01682e-08 7.60983e-08)
(0.00111081 -1.38573e-07 1.75131e-07)
(0.000830561 -1.30153e-07 4.1374e-08)
(0.000831331 5.00848e-07 6.68116e-08)
(0.0011086 -2.63399e-07 1.59651e-07)
(0.000828882 -7.69523e-08 3.73386e-08)
(0.000829742 5.47195e-08 4.34628e-08)
(0.00110638 -1.40321e-07 1.84974e-07)
(0.000827241 -3.41453e-09 8.37501e-08)
(0.000828158 -1.62964e-07 -1.53209e-08)
(0.00110418 -1.19985e-07 1.93919e-07)
(0.000825676 5.42578e-08 8.38908e-08)
(0.000826513 -4.18749e-08 1.11376e-07)
(0.00110202 4.36029e-08 1.95152e-07)
(0.000823968 7.25865e-08 5.56811e-08)
(0.000824889 2.63476e-07 7.18022e-08)
(0.00109984 2.16619e-08 1.93051e-07)
(0.000822564 1.20574e-07 7.51015e-08)
(0.000823339 -1.4767e-07 4.80493e-08)
(0.00109773 8.41123e-08 1.80079e-07)
(0.000821047 7.68089e-08 6.164e-08)
(0.000821791 -6.80098e-07 9.31952e-08)
(0.00109579 1.72322e-07 2.49428e-07)
(0.000819663 8.22166e-08 4.58112e-08)
(0.000820299 4.79224e-09 5.45651e-08)
(0.00109391 -1.89241e-08 1.8909e-07)
(0.000818005 1.48077e-07 6.69316e-08)
(0.000818779 7.36141e-08 5.24925e-08)
(0.00109187 2.05681e-07 1.82834e-07)
(0.000816292 1.42767e-07 8.03828e-08)
(0.00081715 2.22059e-08 7.77725e-08)
(0.0010896 1.677e-07 1.80964e-07)
(0.000814801 1.20104e-07 5.37863e-08)
(0.000815553 -8.43387e-08 4.97977e-08)
(0.00108747 1.70307e-07 1.81898e-07)
(0.000813207 7.00539e-08 3.32125e-08)
(0.000813968 5.15202e-08 8.30373e-08)
(0.00108541 1.16037e-07 1.8308e-07)
(0.000811707 9.04593e-08 5.50025e-08)
(0.000812478 1.3013e-07 7.60068e-08)
(0.00108342 8.06178e-08 1.69155e-07)
(0.000810176 1.11141e-07 6.05937e-08)