/*--------------------------------*- C++ -*----------------------------------*\
| =========                 |                                                 |
| \\      /  F ield         | OpenFOAM: The Open Source CFD Toolbox           |
|  \\    /   O peration     | Version:  5.0                                   |
|   \\  /    A nd           | Web:      www.OpenFOAM.org                      |
|    \\/     M anipulation  |                                                 |
\*---------------------------------------------------------------------------*/
FoamFile
{
    version     2.0;
    format      ascii;
    class       volScalarField;
    location    "1.3";
    object      alpha.water;
}
// * * * * * * * * * * * * * * * * * * * * * * * * * * * * * * * * * * * * * //

dimensions      [0 0 0 0 0 0 0];

internalField   nonuniform List<scalar> 
7898
(
1.01358
1.01902
1.04352
1.0008
0.876873
1
-9.33711e-21
-1.51728e-19
7.93687e-17
4.22055e-18
7.49783e-21
3.79445e-25
4.22131e-29
1.63118e-32
6.67812e-36
2.76303e-39
1.12512e-42
4.6502e-46
1.93221e-49
7.69906e-53
3.42073e-56
1.40158e-59
5.45582e-63
2.14434e-66
8.58782e-70
5.21476e-73
2.86411e-76
6.34612e-80
1.72579e-82
2.88459e-86
3.41294e-89
2.61311e-93
1.26964e-95
3.45199e-98
6.23482e-102
2.10621e-105
1.57497e-108
8.49777e-111
6.4151e-115
4.2042e-119
1.26904e-121
3.32163e-124
4.4155e-127
1.32262e-129
1.18644e-133
3.35075e-136
5.536e-140
2.58126e-144
3.18472e-145
1.58885e-146
1.01052
0.96656
1.0463
0.971744
0.985398
0.993745
-3.42401e-15
-3.77272e-20
-5.99095e-23
5.47016e-20
2.1903e-21
3.66419e-24
2.59716e-28
3.04723e-32
1.16233e-35
4.79931e-39
2.08894e-42
8.62968e-46
3.50676e-49
1.39275e-52
5.75873e-56
2.35137e-59
1.04153e-62
5.00494e-66
2.05434e-69
1.02419e-72
4.36666e-76
1.36446e-79
1.7113e-82
4.89789e-86
2.52191e-89
5.54533e-92
6.59652e-96
9.59356e-99
2.34632e-102
4.04354e-105
1.91717e-108
1.32629e-112
4.83464e-114
2.94014e-117
4.60625e-121
6.24575e-124
3.96667e-128
7.77415e-132
1.52633e-134
1.84772e-137
2.58399e-140
4.07075e-144
2.41051e-145
1.45806e-146
0.996283
1.01279
0.986599
1.03348
0.755685
0.979279
0.00353566
-1.80617e-19
-1.4195e-20
4.82123e-19
2.5707e-20
1.61321e-23
7.79655e-28
1.85672e-31
7.26715e-35
2.9952e-38
1.24454e-41
5.23231e-45
2.24071e-48
8.76775e-52
3.80065e-55
1.51921e-58
7.06936e-62
2.60168e-65
1.18114e-68
6.42257e-72
3.70004e-75
7.68277e-79
5.19569e-82
1.24512e-84
1.52663e-88
3.18681e-92
2.04368e-93
2.90991e-96
2.53064e-100
1.01853e-103
3.48846e-107
4.81725e-111
5.52814e-113
6.46978e-116
1.00646e-119
2.22177e-123
7.61451e-126
9.65966e-130
1.02818e-132
7.93188e-136
3.00984e-138
1.23062e-141
4.06089e-145
7.10404e-146
1.0016
1.05481
1
0.938098
1.01145
0.988679
0.656296
-8.47034e-25
-1.72315e-19
9.2824e-20
4.22495e-20
1.34223e-21
1.14196e-24
3.52943e-29
7.46819e-33
3.01292e-36
1.23791e-39
5.15401e-43
2.10996e-46
8.51701e-50
3.49984e-53
1.41538e-56
6.78287e-60
2.71664e-63
1.32663e-66
5.13251e-70
1.65767e-73
2.403e-76
1.10103e-79
1.57015e-83
4.20909e-86
5.99879e-89
1.38433e-92
1.73209e-96
7.02608e-99
1.0059e-102
4.58853e-106
4.72157e-109
3.02322e-111
1.29999e-114
2.41387e-118
6.55386e-121
4.98732e-125
1.21974e-127
1.44796e-130
4.51555e-134
1.35045e-137
5.77046e-141
3.79437e-144
2.13901e-145
1.01308
1.00724
0.971156
0.952975
1.00916
1.01845
0.99682
-2.50268e-17
9.43995e-15
1.78992e-16
1.3427e-19
1.79918e-21
3.67195e-24
4.07015e-28
4.5679e-32
1.69892e-35
6.98898e-39
2.88299e-42
1.18732e-45
4.88523e-49
1.99845e-52
8.36163e-56
3.35679e-59
1.39578e-62
5.61041e-66
2.39188e-69
9.79366e-73
4.89089e-76
2.41253e-79
1.35074e-82
1.19901e-85
1.73563e-89
5.05697e-92
7.32911e-96
1.46018e-99
1.11407e-102
4.34657e-105
3.20459e-108
2.02025e-112
5.92844e-115
8.0911e-119
1.43501e-122
5.10486e-126
3.40114e-128
9.24868e-131
3.08926e-134
3.12851e-136
1.90256e-139
2.09105e-142
2.9253e-145
1.04946
1.01193
1.00963
1.02845
0.990925
1.00996
1.00017
-3.0614e-17
8.23726e-15
1.48084e-16
1.25133e-19
1.5647e-21
2.87749e-24
3.09571e-28
3.82358e-32
1.4372e-35
5.93185e-39
2.46213e-42
1.01286e-45
4.22859e-49
1.71763e-52
7.03427e-56
2.87428e-59
1.23079e-62
5.06491e-66
3.54697e-69
9.05425e-73
3.8162e-76
3.85725e-79
5.7076e-82
7.15546e-85
7.77747e-89
2.21598e-92
1.11207e-95
1.64111e-98
3.46487e-102
2.19247e-105
3.70844e-108
4.197e-112
1.18903e-115
1.97985e-117
6.92307e-120
3.20632e-123
3.97911e-127
1.56082e-130
1.22006e-133
3.58578e-137
7.71181e-141
4.11676e-144
2.70239e-145
1.06179
1.04395
0.977512
1.02172
1.00893
1.01609
0.955302
-4.01744e-19
-2.26443e-18
7.58151e-20
4.03981e-20
1.3944e-21
1.28466e-24
4.04777e-29
8.09836e-33
3.2582e-36
1.33843e-39
5.50509e-43
2.26611e-46
9.26977e-50
4.30622e-53
1.5567e-56
6.86862e-60
2.595e-63
1.50576e-66
4.38776e-70
1.70771e-73
9.49018e-77
3.0546e-79
3.97378e-83
6.44756e-87
1.10049e-89
1.55876e-93
1.40954e-96
5.42431e-100
1.5431e-102
2.92412e-106
1.42924e-108
9.72024e-112
1.13912e-114
7.55529e-119
7.20568e-122
2.61729e-125
2.95557e-129
3.18733e-131
4.70149e-135
7.11082e-137
1.61056e-140
7.32874e-145
2.29316e-145
0.990576
0.99336
0.96953
1.0227
1.03979
0.999908
0.480712
-5.17269e-19
-2.92558e-20
2.54944e-19
2.68618e-20
1.8941e-23
8.09879e-28
1.9157e-31
7.59383e-35
3.12114e-38
1.28973e-41
5.31534e-45
2.25205e-48
9.4466e-52
3.72157e-55
1.6573e-58
6.84549e-62
2.52984e-65
1.05078e-68
7.47871e-72
6.69386e-75
2.00863e-78
4.07191e-82
1.49308e-84
2.29629e-88
5.53648e-91
3.51556e-94
5.85465e-98
5.16114e-101
1.20102e-103
1.63513e-107
2.78266e-110
2.05992e-113
1.92022e-117
4.28847e-121
4.07199e-123
7.42345e-126
2.6384e-129
1.73486e-133
3.73056e-137
2.02317e-140
7.0907e-144
2.74502e-145
3.53928e-146
1.00746
1.09294
1.00134
0.982388
0.983714
1.00449
-4.12336e-15
-2.64705e-18
-1.68579e-23
5.63205e-20
2.58566e-21
3.62102e-24
2.24229e-28
3.00897e-32
1.16144e-35
4.7862e-39
1.98976e-42
8.23835e-46
3.40994e-49
1.39981e-52
5.65137e-56
2.34995e-59
9.35678e-63
3.94689e-66
5.66022e-69
9.85366e-73
2.96245e-76
1.29777e-79
5.11361e-83
2.79661e-86
3.38181e-88
7.91799e-92
5.62948e-96
1.58306e-99
1.10013e-101
3.2858e-105
2.06345e-108
2.61874e-112
5.04661e-116
6.71801e-118
1.34163e-120
2.18704e-123
3.65887e-127
2.74234e-131
8.90659e-135
4.58784e-138
3.84618e-140
1.15192e-142
3.72314e-145
3.03734e-146
1.02061
0.994201
0.984696
1.00505
1.0059
1.00747
-6.24195e-20
-8.5898e-19
9.18878e-17
4.49709e-18
6.83095e-21
2.98263e-25
3.74009e-29
1.45607e-32
5.98866e-36
2.4944e-39
1.01009e-42
4.16519e-46
1.70406e-49
7.65408e-53
2.85491e-56
1.17363e-59
4.70553e-63
1.89039e-66
1.48596e-69
3.43145e-73
2.33729e-76
8.11007e-80
2.41358e-82
5.18324e-86
2.21095e-89
7.6075e-92
5.53617e-95
2.56352e-98
1.52429e-102
3.07102e-105
5.91463e-108
1.35536e-111
6.75256e-114
8.80512e-118
8.20603e-122
2.14813e-125
3.61175e-127
1.09213e-130
1.68271e-133
1.84197e-136
1.06556e-139
3.84082e-143
2.78792e-145
2.26261e-146
1.02157
1.0293
1.01427
1.02109
0.992687
1.00054
1.27851e-10
1.54557e-16
9.8326e-17
1.08002e-17
7.80915e-20
2.61732e-23
2.45078e-27
1.38693e-30
1.0116e-33
7.02269e-37
4.82831e-40
3.31774e-43
2.27466e-46
1.55563e-49
1.06266e-52
7.24395e-56
4.92583e-59
3.34437e-62
2.26561e-65
1.5314e-68
1.03372e-71
6.96442e-75
4.68032e-78
3.13968e-81
2.10079e-84
1.40244e-87
9.35227e-91
6.22528e-94
4.13679e-97
2.7443e-100
1.81552e-103
1.198e-106
7.89439e-110
5.19637e-113
3.41331e-116
2.23843e-119
1.46489e-122
9.56493e-126
6.23636e-129
4.05576e-132
2.6329e-135
1.7073e-138
1.10449e-141
6.96208e-145
1.03661
1.01008
1.05039
1.02359
1.02253
0.991962
4.35338e-09
9.48082e-16
1.75824e-18
7.16264e-19
1.96655e-20
2.89316e-23
3.08837e-27
9.19158e-31
6.79237e-34
4.84913e-37
3.38743e-40
2.36287e-43
1.64527e-46
1.14237e-49
7.92055e-53
5.47848e-56
3.78e-59
2.60439e-62
1.79063e-65
1.22792e-68
8.40375e-72
5.73825e-75
3.90802e-78
2.65616e-81
1.80154e-84
1.21979e-87
8.2503e-91
5.56838e-94
3.74837e-97
2.51858e-100
1.68857e-103
1.12962e-106
7.54515e-110
5.02534e-113
3.33878e-116
2.2153e-119
1.46684e-122
9.6944e-126
6.40144e-129
4.21699e-132
2.77086e-135
1.81768e-138
1.18977e-141
7.33927e-145
0.954726
0.979142
0.968633
1.03568
0.779188
1.03419
0.00832174
3.78742e-13
4.14252e-16
3.13243e-19
3.15423e-20
1.34075e-22
4.57282e-26
1.52223e-29
8.33238e-33
5.90972e-36
4.27782e-39
3.03029e-42
2.13834e-45
1.50852e-48
1.06087e-51
7.45381e-55
5.21943e-58
3.65054e-61
2.5451e-64
1.77123e-67
1.23035e-70
8.52461e-74
5.89372e-77
4.07976e-80
2.81044e-83
1.93425e-86
1.32953e-89
9.11408e-93
6.22587e-96
4.25006e-99
2.89621e-102
1.96912e-105
1.33663e-108
9.05111e-112
6.1135e-115
4.12286e-118
2.78074e-121
1.8688e-124
1.25428e-127
8.40605e-131
5.61926e-134
3.74935e-137
2.49632e-140
1.01159e-143
1.00696
1.04989
0.942273
0.999231
0.986942
0.989416
0.65661
5.3653e-11
4.57294e-17
7.13099e-17
2.45677e-18
3.20511e-21
7.32832e-25
3.72806e-28
2.64749e-31
1.88819e-34
1.32594e-37
9.27798e-41
6.47703e-44
4.51046e-47
3.13414e-50
2.17165e-53
1.5e-56
1.03431e-59
7.10999e-63
4.87546e-66
3.33678e-69
2.27756e-72
1.55212e-75
1.05484e-78
7.14965e-82
4.83377e-85
3.26017e-88
2.19441e-91
1.47397e-94
9.88123e-98
6.60971e-101
4.41031e-104
2.93635e-107
1.95062e-110
1.29269e-113
8.56705e-117
5.6578e-120
3.72688e-123
2.44835e-126
1.60672e-129
1.05195e-132
6.87508e-136
4.48236e-139
1.73682e-142
1.36505
0.983578
1
0.966477
0.985921
1.01035
0.986456
5.19558e-12
4.19721e-14
1.6139e-15
3.26815e-18
4.1038e-21
2.50687e-24
1.04655e-27
6.98069e-31
5.21973e-34
3.81291e-37
2.74868e-40
1.97295e-43
1.4106e-46
1.00575e-49
7.14438e-53
5.05461e-56
3.56596e-59
2.50706e-62
1.75625e-65
1.22734e-68
8.55004e-72
5.93504e-75
4.1089e-78
2.83633e-81
1.95176e-84
1.34002e-87
9.17305e-91
6.26169e-94
4.26604e-97
2.89815e-100
1.96284e-103
1.3266e-106
8.94796e-110
6.02105e-113
4.04258e-116
2.70775e-119
1.80865e-122
1.2058e-125
8.0202e-129
5.32147e-132
3.5245e-135
2.32814e-138
9.11105e-142
1.04822
0.996814
0.964135
0.982286
1.00111
1.00935
1.00019
2.39432e-11
5.7143e-14
2.82333e-15
6.25474e-18
3.41118e-21
2.06042e-24
1.04466e-27
7.06735e-31
5.26348e-34
3.84635e-37
2.77486e-40
1.99306e-43
1.42562e-46
1.016e-49
7.21775e-53
5.10802e-56
3.60307e-59
2.53252e-62
1.77367e-65
1.23957e-68
8.63592e-72
5.99607e-75
4.15233e-78
2.86464e-81
1.96998e-84
1.35259e-87
9.264e-91
6.32318e-94
4.30658e-97
2.92528e-100
1.9817e-103
1.33996e-106
9.03793e-110
6.08099e-113
4.08305e-116
2.73392e-119
1.82474e-122
1.21558e-125
8.0794e-129
5.35575e-132
3.54657e-135
2.34423e-138
9.18266e-142
1.01715
0.999989
0.854542
1.09066
0.97965
1.00954
0.952911
2.63364e-12
3.61411e-17
3.35832e-17
1.35324e-18
3.06439e-21
8.73858e-25
3.79935e-28
2.67269e-31
1.91415e-34
1.3458e-37
9.42442e-41
6.58302e-44
4.58628e-47
3.18826e-50
2.20941e-53
1.52614e-56
1.05262e-59
7.24204e-63
4.96501e-66
3.39888e-69
2.32058e-72
1.58046e-75
1.07402e-78
7.27352e-82
4.92276e-85
3.32502e-88
2.23907e-91
1.50444e-94
1.00875e-97
6.74877e-101
4.50445e-104
3.00111e-107
1.99339e-110
1.32235e-113
8.75723e-117
5.78223e-120
3.80791e-123
2.50346e-126
1.64224e-129
1.07524e-132
7.02723e-136
4.58774e-139
1.78433e-142
0.992436
0.734604
0.928369
1.01556
0.987154
1
0.482592
5.77061e-13
6.46411e-16
4.7568e-19
2.93906e-20
9.23978e-23
3.33378e-26
1.28984e-29
7.4159e-33
5.26214e-36
3.79001e-39
2.68407e-42
1.8885e-45
1.32947e-48
9.34453e-52
6.55378e-55
4.5855e-58
3.20254e-61
2.23263e-64
1.55157e-67
1.07624e-70
7.44927e-74
5.14831e-77
3.55269e-80
2.44556e-83
1.68092e-86
1.15328e-89
7.89159e-93
5.38748e-96
3.67391e-99
2.49969e-102
1.69781e-105
1.15124e-108
7.78707e-112
5.25515e-115
3.54626e-118
2.38293e-121
1.5993e-124
1.07166e-127
7.16844e-131
4.7812e-134
3.18544e-137
2.1207e-140
8.63375e-144
0.949877
1.04677
1.02039
1.01284
0.982073
0.999899
1.61449e-06
4.64294e-15
6.79023e-18
8.20229e-19
1.61235e-20
1.86725e-23
2.28761e-27
8.58376e-31
6.29916e-34
4.51892e-37
3.17757e-40
2.2271e-43
1.55741e-46
1.08634e-49
7.56495e-53
5.25459e-56
3.64042e-59
2.51801e-62
1.73786e-65
1.19673e-68
8.22871e-72
5.64429e-75
3.86184e-78
2.63875e-81
1.79884e-84
1.22249e-87
8.29526e-91
5.61696e-94
3.79412e-97
2.55879e-100
1.72207e-103
1.15663e-106
7.75657e-110
5.19083e-113
3.46395e-116
2.30827e-119
1.53509e-122
1.01814e-125
6.74498e-129
4.46068e-132
2.94315e-135
1.93821e-138
1.27319e-141
7.67938e-145
1.02644
0.983942
0.983643
0.991999
1.00116
1.00832
5.07665e-10
1.87312e-16
6.9716e-17
6.70429e-18
3.78397e-20
1.19948e-23
1.59892e-27
8.88114e-31
6.46526e-34
4.58891e-37
3.20113e-40
2.22739e-43
1.54766e-46
1.07281e-49
7.42365e-53
5.12446e-56
3.52948e-59
2.42793e-62
1.66641e-65
1.14103e-68
7.803e-72
5.32524e-75
3.62604e-78
2.46547e-81
1.67271e-84
1.13167e-87
7.64209e-91
5.15117e-94
3.46519e-97
2.32834e-100
1.56101e-103
1.04411e-106
6.97336e-110
4.64823e-113
3.09263e-116
2.05469e-119
1.36232e-122
9.01057e-126
5.95055e-129
3.92242e-132
2.58033e-135
1.69546e-138
1.1111e-141
7.0358e-145
1.00344
1.01688
1.00485
1.02833
0.995091
1.00052
5.50839e-11
-1.96323e-19
3.90394e-17
2.34197e-18
5.08871e-21
3.31514e-25
3.21776e-29
1.21852e-32
4.9938e-36
2.09994e-39
8.40282e-43
3.49085e-46
1.4449e-49
7.39541e-53
2.58659e-56
1.07225e-59
4.869e-63
1.61416e-66
7.24045e-70
8.3631e-73
1.65338e-76
8.93593e-80
1.88278e-82
3.63227e-86
2.06102e-89
2.59863e-93
6.71044e-96
1.65085e-98
6.55095e-102
1.82367e-105
5.23571e-108
2.05947e-111
7.85445e-116
2.73515e-117
7.55603e-121
2.21262e-125
1.51398e-127
1.35774e-131
3.31661e-134
2.95544e-136
5.25986e-140
2.38527e-143
2.80743e-145
1.56301e-146
1.03996
0.984375
1.13955
1.00183
1.01377
0.988211
3.94253e-09
-1.80517e-21
-8.24868e-23
4.81329e-20
2.34173e-21
3.82344e-24
2.49684e-28
3.04112e-32
1.16372e-35
4.79574e-39
2.00597e-42
1.10298e-45
4.64931e-49
1.56702e-52
6.35257e-56
2.56979e-59
1.07808e-62
4.73819e-66
2.10136e-69
7.52881e-73
4.25995e-76
1.36542e-79
3.96113e-82
8.08089e-86
9.23227e-89
8.87664e-92
8.03776e-95
1.69858e-98
9.65309e-102
4.38216e-105
6.1543e-109
2.771e-112
1.39097e-113
1.01977e-116
7.12993e-121
9.1346e-125
3.19532e-128
1.05794e-129
4.66093e-133
3.2614e-137
3.57263e-140
3.68224e-144
2.73455e-145
2.26357e-146
1.00616
1.00685
0.837928
1.00694
1.00934
1.02523
0.00768544
-3.17555e-19
-2.53974e-20
4.87947e-19
2.92759e-20
3.27406e-23
4.81308e-27
7.23612e-31
2.39745e-34
9.84815e-38
4.12971e-41
1.73896e-44
7.36649e-48
3.01966e-51
1.27777e-54
5.24052e-58
2.26214e-61
9.83142e-65
4.41679e-68
1.71058e-71
9.24443e-75
2.89225e-78
1.20946e-81
1.93764e-84
3.33909e-88
1.07704e-91
1.72201e-94
1.96048e-97
4.03729e-101
4.65223e-104
3.673e-107
1.12888e-110
9.53477e-114
3.40711e-116
3.22064e-119
2.27062e-123
4.84935e-127
1.75546e-129
6.32297e-132
1.15486e-135
2.38609e-138
8.7975e-142
4.9421e-145
7.38329e-146
1.05741
1.06763
0.974457
1.08236
0.997231
0.992823
0.656788
2.77803e-11
-1.7662e-19
9.54798e-20
4.1418e-20
1.32554e-21
1.15929e-24
3.62521e-29
7.54425e-33
3.04174e-36
1.25037e-39
5.14866e-43
2.1038e-46
8.61346e-50
3.52291e-53
1.42492e-56
5.96835e-60
2.80123e-63
1.06389e-66
4.80297e-70
1.6478e-73
3.88977e-76
2.51692e-79
2.18548e-83
3.61774e-86
2.7259e-89
9.71936e-93
1.41008e-96
1.84723e-99
5.54702e-103
5.22443e-106
6.79602e-109
4.27874e-113
7.11046e-115
2.87409e-118
4.33502e-121
4.23793e-124
3.57111e-128
2.43801e-131
4.85024e-134
3.16656e-137
1.5451e-141
4.35459e-145
1.85609e-145
1.02158
0.830488
1.00783
0.942876
0.984489
1.0151
0.987193
1.95017e-12
9.68474e-15
1.84307e-16
1.34747e-19
1.76379e-21
3.5988e-24
4.01234e-28
4.4948e-32
1.66866e-35
6.86988e-39
2.83365e-42
1.17154e-45
4.80227e-49
1.96337e-52
8.06774e-56
3.32313e-59
1.36326e-62
5.82479e-66
2.81601e-69
9.32767e-73
3.69385e-76
1.50043e-79
8.83526e-83
8.22401e-86
1.33129e-89
4.79213e-92
1.00906e-95
1.67052e-98
2.71293e-102
4.49155e-105
3.06352e-108
1.35874e-110
3.51497e-114
2.98377e-118
4.70401e-120
2.06938e-123
8.27998e-127
2.13616e-130
3.32749e-134
6.66976e-136
3.04956e-139
1.87215e-142
4.68918e-145
1.03238
0.995312
0.968277
0.980535
1.00566
1
1.00024
9.24203e-12
8.42301e-15
1.51366e-16
1.25044e-19
1.68052e-21
3.28221e-24
3.59751e-28
4.21741e-32
1.57476e-35
6.49363e-39
2.68182e-42
1.10475e-45
4.68571e-49
1.87825e-52
7.91221e-56
3.1877e-59
1.289e-62
5.33353e-66
2.24364e-69
9.10424e-73
3.50847e-76
1.41053e-79
3.10837e-82
5.609e-85
2.80424e-88
3.57449e-92
2.12613e-95
3.47545e-99
4.64709e-102
2.78138e-105
4.38227e-108
4.80009e-112
5.97934e-114
2.75547e-117
1.54163e-121
2.09872e-123
9.92806e-127
1.63401e-130
1.85455e-134
2.14665e-137
1.19607e-139
1.89912e-143
2.72983e-145
0.99873
0.969865
0.931491
1.0744
1.01274
1.01017
0.952356
1.02849e-12
-2.25541e-18
7.47956e-20
4.10974e-20
1.40689e-21
1.26377e-24
3.94126e-29
8.01213e-33
3.22516e-36
1.32469e-39
5.47192e-43
2.25035e-46
9.15549e-50
4.27213e-53
1.5669e-56
6.58112e-60
2.70205e-63
1.21146e-66
6.49969e-70
1.83628e-73
1.32604e-76
2.72692e-79
2.85645e-83
6.20457e-87
2.39856e-90
9.64866e-94
1.44995e-96
5.59863e-99
1.30195e-102
1.72884e-106
1.11666e-108
3.35827e-112
2.5337e-116
7.50465e-119
7.05372e-123
1.63572e-124
6.47611e-128
1.92546e-131
1.18412e-135
2.30569e-138
1.82037e-141
1.3095e-144
2.09307e-145
1.18846
0.711604
0.941205
1.02649
0.981982
0.997207
0.482359
-8.69328e-19
-2.89771e-20
2.50194e-19
2.69467e-20
1.84444e-23
7.4967e-28
1.80877e-31
7.20947e-35
2.96261e-38
1.22193e-41
5.03428e-45
2.14918e-48
8.75868e-52
3.54572e-55
1.56107e-58
6.81605e-62
2.43142e-65
3.24661e-68
9.20634e-72
5.97512e-75
4.39079e-78
4.6692e-82
2.33535e-84
1.05413e-87
1.11738e-91
2.04904e-94
1.31655e-97
2.78353e-101
1.90004e-104
3.76135e-107
8.43402e-111
1.61239e-113
1.17998e-115
3.37139e-119
3.60342e-122
5.14287e-126
6.69864e-130
2.73621e-133
9.11048e-137
5.99491e-140
2.7134e-143
2.7844e-145
4.71815e-146
1.00538
0.989298
1.00352
0.993375
0.981331
0.986476
4.63194e-07
-2.95582e-18
-2.89205e-23
4.97094e-20
2.39556e-21
3.60433e-24
2.27015e-28
2.90559e-32
1.1177e-35
4.6058e-39
1.91517e-42
7.86015e-46
3.23786e-49
1.33388e-52
5.38609e-56
2.25321e-59
8.97627e-63
3.75957e-66
1.47974e-69
5.98902e-73
2.55735e-76
1.00077e-79
3.98632e-83
1.62324e-86
2.02146e-88
7.66338e-92
6.39954e-95
3.69488e-98
1.38569e-101
7.10056e-105
1.98362e-108
2.11646e-111
1.47444e-115
1.15784e-117
1.83589e-121
1.74249e-125
2.28479e-127
3.53734e-130
3.25539e-133
1.52064e-137
1.68319e-140
3.05982e-143
3.51885e-145
2.45465e-146
1.02074
0.996373
0.951916
1.00202
0.997899
1.00833
3.12209e-10
-5.44884e-19
6.69364e-17
3.33566e-18
5.11835e-21
2.33689e-25
2.9223e-29
1.13239e-32
4.65377e-36
1.931e-39
7.87953e-43
3.29379e-46
1.33177e-49
5.40764e-53
2.25644e-56
9.6627e-60
3.70816e-63
1.51373e-66
7.98159e-70
3.55013e-73
2.54188e-76
4.90613e-80
1.95689e-82
7.27967e-86
6.39304e-90
9.77625e-92
3.10245e-95
2.13791e-99
6.28063e-103
6.33495e-105
2.49879e-108
2.8462e-112
6.86263e-114
2.27629e-117
1.08051e-120
2.56513e-123
5.18946e-127
9.56564e-131
3.02748e-134
1.98069e-136
1.51803e-139
6.52638e-143
2.86962e-145
2.7653e-146
-1.21561e-23
1
-2.79335e-18
1.00054
4.89643e-08
1
1.63756e-07
-3.63149e-15
0.995134
0.268052
0.991629
2.25707e-06
1.00406
0.271967
0.514134
0.986249
1
1.0249
0.515483
0.991904
1
1
0.989909
1.00026
0.991266
1
1.00505
1.00011
1.00071
1.02084
1.0002
1.0143
1.0008
1.02075
1.0008
1.00118
1.01409
1.00013
1.01002
1.00149
1.0105
1.00044
1.00005
1.0113
1.00008
1.01547
1.00074
1.01257
1.00022
1
0.999597
0.590933
1.00075
1.00002
0.991928
0.590613
0.30996
1.02392
5.24667e-05
0.999925
0.304326
1.02336
0.000370844
-4.63248e-18
1
-8.6725e-22
1.00852
1.8559e-07
0.997047
4.00732e-08
7.9127e-08
0.999942
2.35552e-07
1.00073
7.9663e-08
0.999686
2.45035e-07
3.14048e-06
1.01203
0.275984
0.987165
1.2499e-05
1.01685
0.275973
0.515322
0.994781
1.00008
1.0312
0.516813
1.01727
1
1.00019
1.00437
1
0.999269
1
0.992601
1.00023
1.00133
1.02022
1.00138
1.01114
1.00076
1.02084
1.00102
1.00199
1.01054
1.00076
1.00142
1.0014
1.00762
1.00026
1.00107
1.01307
1.00042
1.01125
1.00091
1.02771
1.00027
1.00024
0.988422
0.589856
0.995664
1.00002
0.995682
0.588479
0.31621
1.02329
0.000400644
0.998198
0.33355
1.02282
0.000479271
3.27916e-07
0.996557
6.57294e-08
1.00825
3.7077e-07
0.995173
6.48149e-08
4.96435e-08
0.999158
1.85682e-07
1.00009
1.364e-21
1
-1.76727e-17
5.07125e-05
1.01642
0.276101
0.971573
-2.33952e-24
1.01893
0.271922
0.516412
1.01481
1.00008
1.02659
0.516019
1.0081
1.00001
1.00014
0.996884
1
1.00009
1
0.992996
1.0002
1.00131
1.01288
1.00128
1.02908
1.00074
0.999396
1.00045
1.00189
1.00507
1.00064
1.00177
1.00101
0.999304
1.00001
1.00154
0.991348
1.00045
1.00955
1.00072
0.977359
1.00005
1.00023
0.99129
0.588856
0.998431
1
1
0.590207
0.330676
1.02305
0.000413775
0.992921
0.316823
1.01945
0.000101032
2.70433e-07
0.9953
4.13571e-08
1.0088
-7.72522e-22
1
-3.68016e-25
0.997333
1.01199
0.986889
0.881363
0.995205
1.01777
0.986964
0.705658
0.690062
1.00075
1.00003
1.00051
0.704113
0.690894
-6.22611e-17
-1.08976e-19
-8.41139e-17
5.4325e-11
3.06309e-14
1.77398e-10
3.09279e-14
0.960623
1.00459
0.95847
1.01667
0.970989
0.967214
0.874114
0.970385
1
0.967102
0.993324
0.999988
0.960865
0.970474
-1.13062e-18
-3.70377e-18
-6.31933e-17
2.45438e-09
3.96958e-13
4.72158e-07
3.9682e-13
0.657574
1.02922
0.927358
0.771641
0.754046
1.06498
0.96276
1.0142
1.00754
0.96124
0.995339
1.01035
0.962051
1.01577
-2.22625e-16
0.448588
-1.04709e-16
0.00743529
1.74754e-10
0.450802
1.20342e-10
0.9906
1.05932
0.952887
1.00047
0.996023
1.08426
1.12708
0.961352
0.991655
0.881744
0.998111
0.990597
0.869081
0.952022
-1.60497e-20
0.960629
-2.17735e-16
0.657307
2.17977e-08
0.954887
4.24963e-10
1.01071
1.01699
1.01069
1.00408
1.02717
1.02472
1.01449
1.00928
1.01133
1.01376
1.02017
1.01083
1.0128
1.00937
-8.8327e-16
1.00002
-4.85148e-20
0.988085
1.35036e-09
1.00009
6.17043e-09
0.986812
0.983327
1.00058
0.993428
0.986268
0.994605
0.995841
1.00365
1.0078
1.00383
1.00964
1.00797
1.00368
1.00396
8.14534e-23
0.993771
-4.62447e-18
1.00033
7.04766e-09
0.985345
2.21592e-09
1.03769
1.01476
1.0313
0.988747
1.06258
1.0024
1.02506
1.00772
1.00168
1.02055
1.01736
1.00222
1.02072
1.00783
-1.2645e-17
0.627129
-1.07239e-16
0.954802
7.9067e-10
0.628017
3.51207e-08
1.0007
1.03791
0.932443
0.997728
1.00598
0.995705
0.953136
0.992297
0.998459
1
0.999882
0.99873
0.995203
0.997082
-2.04116e-15
0.0118142
-1.32217e-15
0.482667
2.02538e-10
0.017269
3.17091e-10
1.00221
0.922125
1.00491
0.975127
1.00013
0.923068
0.995066
1
1
1.01034
1.00192
1
1.00601
1
-4.01827e-16
-1.07072e-16
-4.23918e-17
2.05863e-06
2.30431e-12
1.18161e-08
1.78973e-12
1.01029
0.984065
0.99966
1.00029
1.00733
0.976223
0.999572
0.773536
0.943966
1.00559
1.00838
0.939593
1.00614
0.775402
-7.62777e-17
-1.04803e-20
-5.01645e-17
2.13826e-10
3.59275e-14
4.6953e-11
3.56107e-14
0.99768
1.0217
0.988065
1.0018
1.00149
1.01972
0.983668
0.702488
0.689865
1.00223
1.00058
0.703585
1.00274
0.689397
1.78563e-13
3.26423e-10
1.56698e-13
1.28352e-10
1.77418e-13
3.39697e-10
1.56697e-13
0.954258
1.00825
1.00004
1.01848
0.954249
1.03076
1.02502
0.958656
0.995545
0.954294
0.989267
0.963758
0.993482
0.957889
1.40618e-12
4.09739e-07
1.41816e-12
2.81076e-09
1.40618e-12
4.53191e-07
1.41141e-12
0.843313
0.971288
1.02288
0.981366
1.04787
1.02721
1.04065
1.02218
1.01089
1.01216
1.03982
1.01539
1.01095
1.03815
6.96988e-10
0.45085
4.74591e-10
0.00825606
7.58894e-10
0.4507
4.74591e-10
0.9988
1.05169
1.12121
1.03032
0.985453
1.0179
1.16872
0.90573
0.999906
0.91277
0.997482
0.902067
1
0.901482
3.5505e-08
0.948424
8.64708e-10
0.656905
3.7554e-08
0.953834
9.36315e-10
1.01331
1.01564
1.00569
0.984154
1.0387
1.02084
1.03215
1.00699
1.01022
1.00755
1.01079
1.00725
1.01057
1.00623
3.22276e-09
1.0002
1.21334e-08
0.98693
3.25285e-09
1.00006
1.21233e-08
0.971102
1.01141
0.999314
1.00114
0.97572
1.00002
0.975206
1.00215
1.00834
0.99995
1.0072
1.00275
1.00826
0.987168
1.3647e-08
0.984079
5.29023e-09
1.00032
1.36732e-08
0.985071
5.11858e-09
1.06727
1
1.02966
0.988654
1.06687
1.0504
1.05503
1.0074
1.00228
1.01738
1.01172
1.00597
1.00301
1.01758
1.6038e-09
0.62761
5.55172e-08
0.951179
1.46859e-09
0.62773
5.56948e-08
0.993412
0.992945
0.948533
0.987149
1.00293
1
0.964189
0.988001
0.998566
0.957261
1
0.985873
0.999318
0.948658
7.36739e-10
0.0185035
1.26872e-09
0.482682
7.36739e-10
0.0174732
8.01696e-10
0.99384
0.952782
0.998514
1.01006
1.00386
0.999999
0.994116
0.984093
0.999451
0.981539
0.999804
0.989788
0.998891
0.981259
1.13032e-11
1.93629e-08
6.70182e-12
4.24093e-07
1.18363e-11
1.70833e-08
6.70197e-12
1.00679
0.992859
0.999363
1.00275
1.00392
0.992269
0.996889
0.779824
0.938756
1.00402
1.00807
0.778914
0.940205
1.00365
2.21904e-13
1.08466e-10
3.18345e-13
5.69013e-10
2.21906e-13
1.06622e-10
3.20471e-13
1.00209
1.02806
0.990288
1.0049
1.00258
1.05068
0.9872
0.703566
0.69029
1.00303
1.00065
0.70346
1.00272
0.68895
3.38473e-14
2.01368e-10
3.41677e-14
-1.02444e-19
-6.32048e-17
-1.07653e-17
-8.74594e-17
0.966712
1.02752
1.01481
1.02369
0.941875
1.01408
1.02699
0.965559
0.98611
0.989099
0.988202
0.965885
0.985237
0.990797
5.59279e-13
3.28483e-07
5.59412e-13
-6.08958e-18
-1.78653e-18
-1.38778e-20
-1.97794e-18
1.02927
1.00863
1.00567
0.952619
1.02394
0.99602
0.990326
1.01851
1.01213
1.03435
1.02565
1.0186
1.01257
1.03407
1.72197e-10
0.450381
1.23029e-10
0.00380692
-2.35956e-16
0.447957
-1.58517e-16
0.977037
0.990001
1.00903
0.962946
1.01103
0.999348
0.992793
0.921874
0.998248
0.922147
0.998181
0.913164
0.995419
0.959135
2.50352e-08
0.949253
3.79328e-10
0.655834
-2.00313e-20
0.95885
-2.00019e-16
1.02551
1.0248
0.984196
0.998148
1.04071
1.02404
0.954289
1.00776
1.01112
1.00395
1.01627
1.00691
1.01195
1.01396
1.37552e-09
1.00023
6.1634e-09
0.996523
-7.40436e-16
1.00006
-4.70966e-20
0.991021
0.99567
1.00302
1
0.989378
0.968186
1
1.00079
1.00593
0.986627
0.999975
1.00094
1.00617
0.999361
7.07758e-09
0.984647
2.21623e-09
1.00014
-1.37454e-22
0.992913
-4.75442e-18
1.02729
1.03373
0.993523
1.02441
1.02097
1.01821
0.933447
1.00663
1.00212
1.0149
1.01043
1.00557
1.00269
1.01546
7.86026e-10
0.627554
3.51776e-08
0.954368
-1.38191e-17
0.627163
-1.27959e-16
1
0.978884
0.912359
1.01219
0.971156
1
0.904814
0.977622
0.998897
0.972746
0.999377
0.977435
0.999574
0.948173
2.02507e-10
0.0161649
3.17113e-10
0.480512
-3.79693e-15
0.0109331
-1.95718e-16
0.979336
0.989542
0.995884
0.991309
0.980621
0.959393
0.99981
0.983133
0.997061
0.9794
0.989911
0.982435
0.997023
0.986909
2.16582e-12
9.63078e-09
1.41593e-12
-2.39006e-16
-3.91279e-18
-5.32557e-17
-1.34858e-17
1.00386
1.00281
0.992283
0.990881
1.00424
1.03186
1
0.783855
0.94483
1.0019
1.00801
0.784723
0.946145
1.00198
4.94742e-14
4.8523e-11
4.91197e-14
-1.75403e-17
-8.56367e-17
-6.33937e-20
-5.20189e-17
0.0383612
0.0291658
-2.40917e-21
1.00726e-08
1.00726e-08
0.0356912
0.0324597
0.827698
1.00057
0.915539
0.999976
1.00085
0.91654
0.830468
0.113463
-8.08642e-20
0.196429
3.78954e-08
3.78954e-08
0.196579
0.108253
0.703487
1.0007
0.689636
1.00203
1.00148
0.703744
0.6885
0.0402888
4.89643e-08
0.037329
4.89643e-08
4.89643e-08
0.0428613
0.0351676
0.826972
0.999773
1.00119
0.9175
1.00114
0.913917
0.82775
0.115029
1.63756e-07
1.63756e-07
0.197565
1.63756e-07
0.199619
0.116607
0.47285
0.362476
0.00644678
1.33965e-06
0.362606
0.00960019
0.471654
0.977537
0.908901
1.00016
0.986373
0.969908
0.999639
0.973187
0.657233
0.0593699
0.940378
0.263208
0.0716165
0.944105
0.669128
0.963752
0.992061
0.996654
0.954742
0.999929
0.978144
0.963482
0.486005
2.25707e-06
0.368302
0.00724397
0.36263
0.00452046
0.486203
0.979925
1.0005
1.00641
1
1.00977
0.999995
0.980816
0.659747
0.265907
0.0689848
0.938067
0.0706773
0.942283
0.663399
1.00399
0.999666
0.803226
0.514724
0.999209
0.79936
1.00293
1.01012
0.995816
1.00035
0.978625
1.01079
1
1.00844
1.00192
0.942986
1.00018
1
0.94837
1.00011
1.0018
1.01658
1.01319
1.01077
1.00617
1.01073
0.980721
1.01923
1.00369
0.514894
0.999108
0.802395
0.998836
0.799923
1.00266
1.00846
1.00422
1.06299
1.00078
1.07011
1.00081
1.01003
1.00194
1.00007
0.943182
1.0001
0.946929
1.00016
1.00147
0.999949
0.999858
1
1
0.999405
0.999999
1
0.96325
0.941937
1.00066
0.967189
0.934186
1.00032
0.957927
0.999662
1
1.0015
1.00077
1
1.00127
1.00003
0.953211
0.999996
0.994476
0.873919
0.992482
0.86927
0.901106
0.997623
1.00007
0.999242
1
0.999177
1
0.996171
0.964705
0.998446
0.851732
1
0.917878
1
0.966165
1
1.00109
1
1.00047
1.00001
1.00122
1
1.00454
1.00367
1.00119
1.00089
1.00344
1.00118
1.00461
1.00348
1.00525
1.01107
1.02083
1.00518
1.01048
1.00309
1.00043
0.999923
1.00168
1.00043
1.00003
1.0021
0.999209
1.00771
1.01944
1.01064
1.01077
1.01135
1.01144
1.00694
1.00476
1.00151
1.00351
1.00149
1.00366
1.00191
1.00447
1.00461
1.02064
1.00494
1.00996
1.00492
1.01032
1.0058
1.00146
1.00107
1.00081
1.00285
1.00079
1.00272
1.00186
1.00128
1.00423
1.0004
1.00132
1.00387
1.00053
1.00137
1.00006
0.996771
1.00426
1.01422
1.00094
1.00348
1.00007
0.999403
0.99996
1.00113
1.00026
0.999912
1.00067
0.99843
1.00352
1.01
1.00841
1.00077
1.00819
1.00354
1.00307
1.00171
1.00177
1.00307
1.00083
1.00378
1.0012
1.0015
1.00009
1.01217
1.00117
1.00313
1.00146
1.00361
1.00018
0.998862
1.00052
0.999664
1.00041
0.999963
1.00089
0.998034
1.0022
1.00026
1.00039
1
1.00027
1.00041
1.0023
1.01172
1.02515
1.00281
1.01172
1.02476
1.00198
1.01175
1.00373
1.00072
1.00105
1.0002
1.00098
1.00083
1.0041
1.00711
1.01411
1.00269
1.0182
1.00207
1.01957
1.00694
1.00242
1
1.00071
1.00086
1.00066
1.00123
1.00235
1.01169
1.01259
1.02512
1.00169
1.02465
1.00184
1.01154
1.00383
1.0004
1.00121
1.00056
1.00139
1.00085
1.00346
0.999999
1
0.919256
1.00002
1
0.918789
1
0.975414
0.864136
0.999336
0.996579
0.872813
0.996266
0.996038
0.999995
0.749432
1
0.591013
0.743685
0.999997
1
0.98772
1.00067
0.998825
0.987301
0.999074
0.987162
0.984482
1
1.00024
0.999985
0.917275
1.00014
0.918341
0.999735
0.96034
0.990612
0.968863
0.998225
0.913879
0.992835
0.98219
0.998684
0.590916
0.752721
0.999948
0.745806
0.999983
0.996186
0.716175
0.991155
0.0895953
0.310025
0.991413
0.0969133
0.716939
1.00163
1.01914
1.00118
1.02349
1.01886
1.00553
1.00062
0.664562
0.0279903
0.423222
0.000222756
0.0320692
0.416393
0.666171
1
1.00051
0.999915
0.988907
1
1
0.999865
0.7131
0.306379
0.995676
0.109833
0.994052
0.103565
0.71398
1.00371
1.02353
1.0189
1.00522
1.01889
1.00685
1.0043
0.659216
0.000243338
0.0378679
0.418409
0.0355328
0.414256
0.658976
0.0819311
0.213348
-1.00601e-18
4.56182e-08
0.219958
4.56182e-08
0.0766693
0.695579
1
0.515724
0.999155
1
0.695013
0.518972
0.0413141
-1.77957e-19
0.00440208
8.25917e-09
8.25917e-09
0.0369528
0.00542903
0.774541
1.00851
0.938574
1.00498
0.936856
1.00555
0.776918
0.0825155
1.8559e-07
0.223786
1.8559e-07
0.223793