/*--------------------------------*- C++ -*----------------------------------*\
| =========                 |                                                 |
| \\      /  F ield         | OpenFOAM: The Open Source CFD Toolbox           |
|  \\    /   O peration     | Version:  5.0                                   |
|   \\  /    A nd           | Web:      www.OpenFOAM.org                      |
|    \\/     M anipulation  |                                                 |
\*---------------------------------------------------------------------------*/
FoamFile
{
    version     2.0;
    format      ascii;
    class       surfaceScalarField;
    location    "1.3";
    object      alphaPhi10;
}
// * * * * * * * * * * * * * * * * * * * * * * * * * * * * * * * * * * * * * //

dimensions      [0 3 -1 0 0 0 0];

internalField   nonuniform List<scalar> 
23560
(
3.66838e-09
1.56235e-09
8.1516e-08
6.42419e-09
-3.33073e-09
8.21188e-09
1.41101e-08
2.14352e-08
3.94837e-08
4.04862e-08
-3.17993e-08
1.78847e-08
2.74871e-08
1.10467e-08
-4.079e-08
1.13945e-08
5.05583e-09
3.97308e-09
-2.31119e-08
-1.83793e-08
-1.46877e-08
-1.70328e-08
-7.49462e-09
-1.08238e-08
-3.28616e-08
-2.0516e-08
-1.15048e-07
-8.81328e-09
1.71668e-08
5.94371e-09
8.68545e-09
-9.96682e-09
2.7148e-09
6.02111e-11
-4.86785e-10
-4.39373e-10
2.21691e-17
4.79086e-21
-1.72127e-18
6.14747e-19
-3.27823e-17
1.68374e-16
-1.56631e-16
2.87431e-24
2.76039e-22
5.20921e-24
6.55455e-22
3.20579e-21
1.03094e-20
-2.55111e-20
1.76086e-26
1.12479e-26
1.37851e-27
3.0061e-28
-7.12996e-28
9.78537e-30
2.53114e-32
-4.15276e-31
3.87427e-32
1.98917e-36
-2.3122e-36
3.98848e-35
7.24047e-40
-6.03e-39
1.63968e-39
2.97724e-43
-1.5512e-42
-6.61899e-42
1.22759e-46
-3.81657e-46
-1.94636e-45
5.05629e-50
-1.16685e-49
-2.10808e-49
2.07526e-53
-2.21573e-53
4.30409e-52
8.5019e-57
-7.08888e-57
1.29164e-54
3.47305e-60
-3.21397e-60
-5.67281e-58
1.4142e-63
-3.39852e-64
-2.59771e-61
5.77455e-67
9.65836e-70
3.89398e-64
2.33551e-70
-7.37332e-71
-3.23485e-67
9.42284e-74
-1.6499e-74
-1.14699e-70
3.75499e-77
1.19376e-78
1.69137e-74
1.52454e-80
-4.87243e-81
3.38992e-78
6.39261e-84
-4.27475e-84
5.77502e-80
2.737e-87
-9.72674e-88
-1.20585e-82
1.18405e-90
1.01954e-91
-3.48988e-87
8.83953e-94
-2.44889e-94
4.8023e-89
2.32581e-97
1.36586e-99
-9.68204e-94
6.91386e-101
7.37515e-101
-1.80333e-96
6.89801e-104
1.15987e-104
-1.24844e-100
9.9087e-107
-8.55999e-108
4.13484e-102
1.1422e-109
-2.99612e-110
3.378e-105
1.64922e-113
2.43626e-114
-1.47574e-108
1.09704e-116
-3.97632e-118
-1.45293e-111
1.47936e-119
7.21293e-121
-4.45438e-116
4.70272e-122
5.06184e-123
-8.3285e-119
1.75673e-126
-5.68713e-126
4.44515e-122
7.28293e-130
-2.88878e-130
9.61176e-127
8.575e-133
4.39177e-134
-2.30788e-128
1.66783e-135
-1.75898e-137
-2.18613e-131
2.81759e-138
5.42218e-139
2.39876e-134
5.93299e-141
2.84217e-141
-8.51068e-137
8.45826e-145
-1.0352e-146
1.34786e-140
1.28833e-147
-3.23262e-148
1.98879e-143
1.83264e-151
1.6048e-152
-3.32319e-146
2.76111e-153
-9.30082e-157
6.01801e-151
4.60786e-154
1.30637e-157
3.61787e-153
4.6112e-159
-1.40895e-157
1.15771e-08
1.95355e-09
-6.94184e-09
5.06455e-10
6.63952e-09
-6.18774e-08
-2.33006e-08
-1.80185e-08
7.12153e-10
2.46929e-09
-4.10537e-09
8.34999e-09
6.47973e-09
-8.07184e-08
-3.88189e-08
-2.62689e-08
-1.76914e-08
-4.23342e-08
-3.01623e-08
5.75682e-08
-5.77204e-09
-2.6186e-08
-4.17398e-08
-9.38968e-09
-6.10082e-09
2.06851e-08
2.57687e-08
1.59191e-08
-4.14148e-08
-9.67172e-09
-1.99695e-08
-1.64153e-08
2.78181e-08
2.58482e-08
2.62825e-08
2.8957e-08
8.7666e-10
4.97729e-10
-2.99321e-10
-2.34681e-09
1.43902e-09
-1.91185e-14
1.88513e-16
5.23679e-18
-1.05505e-16
-1.82821e-13
-5.92724e-14
5.10037e-14
-2.0819e-15
-2.90462e-15
-1.62711e-15
-1.62858e-15
1.45173e-21
-3.43747e-20
2.10772e-21
-2.05731e-20
4.08394e-20
-4.81243e-20
5.84265e-20
1.18595e-28
-6.07031e-24
4.51821e-26
5.24849e-29
-1.02879e-27
-4.15003e-30
1.15841e-31
-4.76938e-31
4.29483e-33
1.19773e-35
-2.2626e-34
2.06445e-35
1.08193e-39
-1.98319e-38
-1.01045e-39
3.85523e-43
-4.34e-42
9.21008e-43
1.60137e-46
-1.05858e-45
8.37081e-46
6.97776e-50
-2.4983e-49
-4.13268e-48
2.85766e-53
-7.35774e-53
6.55282e-52
1.16666e-56
-1.28332e-56
-9.67271e-55
4.82137e-60
-2.9996e-60
-1.87674e-57
1.98271e-63
-6.68517e-64
-5.00214e-62
8.16195e-67
-7.92085e-67
1.42369e-64
3.34495e-70
5.75889e-71
1.54195e-68
1.38744e-73
2.76008e-74
-5.53564e-70
5.75927e-77
1.38025e-77
-1.3343e-73
2.41429e-80
3.36891e-82
-1.53132e-77
1.05033e-83
-9.31444e-85
-6.14699e-81
4.03162e-87
1.34042e-87
4.15612e-83
1.77145e-90
-1.74774e-91
-9.02484e-87
1.43452e-93
6.01503e-95
-6.11432e-89
3.06987e-97
-1.06063e-97
1.2466e-92
2.33748e-100
6.3578e-102
2.29965e-96
2.01158e-103
2.47289e-104
-1.44403e-99
2.78365e-107
-3.07879e-106
2.45901e-102
5.40387e-111
-3.92891e-108
2.09399e-104
1.46722e-113
3.41653e-114
-8.53136e-110
1.01823e-116
-3.36217e-117
-1.29548e-111
8.5637e-120
-9.55544e-121
1.3755e-115
7.84058e-123
4.42577e-125
-9.08228e-121
9.49961e-125
-4.87505e-126
-3.57886e-121
2.97317e-129
-4.20156e-129
9.21012e-125
2.26303e-132
1.3586e-133
-1.6106e-128
1.39572e-135
4.47488e-136
6.51508e-132
1.3018e-139
-2.04023e-140
7.86082e-136
9.89973e-143
2.48333e-143
4.18101e-139
9.73506e-146
1.23354e-145
5.31598e-140
-2.91571e-148
4.70406e-150
3.59661e-144
2.79475e-151
-1.82215e-150
3.70201e-146
5.55485e-154
-1.01793e-154
1.30618e-151
3.20961e-154
3.37193e-157
-2.80876e-153
1.61704e-158
-4.53433e-156
-1.56222e-08
3.43003e-09
-5.13453e-10
1.59273e-08
7.40467e-09
-4.79805e-08
1.03686e-07
-2.30489e-08
2.39537e-08
-3.2058e-08
5.12261e-08
1.57723e-08
1.91018e-08
1.44041e-08
2.22626e-08
2.50268e-08
3.09659e-08
9.52978e-08
9.91383e-08
5.53181e-08
-1.95364e-08
-3.4018e-08
4.2878e-08
-1.70957e-08
-2.92433e-08
-4.22149e-09
-2.04273e-08
-6.28642e-10
-7.68049e-09
-5.46301e-09
-3.61303e-10
1.91305e-10
-2.34218e-08
-1.5384e-08
-1.92385e-08
-1.98993e-08
-2.7882e-08
-5.37931e-09
-1.65561e-09
-2.67237e-08
-2.36184e-09
1.63215e-08
-2.79592e-09
2.64464e-09
-1.36026e-08
-8.9547e-12
9.56987e-16
1.43464e-09
2.29113e-13
1.43504e-09
7.40678e-20
3.75474e-19
5.11673e-21
7.02482e-19
5.40043e-18
6.62497e-19
-7.94755e-18
4.81657e-19
1.19561e-18
4.81518e-19
-3.71725e-26
-6.47255e-22
-2.92322e-24
3.12159e-28
-1.10817e-25
1.26825e-28
9.64405e-31
-3.70554e-29
-3.05058e-32
3.3592e-35
1.71326e-33
-6.13307e-35
6.98858e-39
3.48381e-37
3.91601e-38
2.80924e-42
-7.89445e-41
1.68892e-41
1.17159e-45
-1.16325e-44
1.78713e-44
4.9133e-49
-7.1694e-48
9.80284e-48
2.04014e-52
-2.64871e-51
3.9077e-51
8.46533e-56
2.6297e-54
-3.29222e-53
3.61318e-59
-4.72581e-59
-7.4005e-57
1.43991e-62
-1.65573e-61
-5.69649e-61
5.87457e-66
-5.02968e-65
-1.34813e-63
2.43321e-69
-1.07933e-69
8.89424e-67
9.98353e-73
-2.56317e-72
-1.2153e-70
6.04338e-76
7.31629e-77
-6.80379e-73
1.23225e-79
1.42894e-78
-1.01437e-75
1.33408e-82
-8.10404e-82
-3.86429e-80
3.06439e-86
-4.97181e-86
9.72707e-83
9.48349e-90
-2.32158e-89
-1.48556e-86
5.04556e-92
-2.24508e-92
-9.48604e-89
2.79274e-95
-3.95258e-96
6.79726e-92
7.80741e-99
-7.95565e-99
4.3261e-96
7.22489e-102
-5.88259e-101
-4.10818e-99
8.18529e-104
1.12958e-105
-8.7458e-101
9.86976e-108
8.1751e-109
-2.38503e-103
5.66859e-111
1.40499e-112
-2.32308e-107
-8.33448e-115
4.7027e-117
2.73738e-111
-9.87275e-118
-3.2551e-119
8.69008e-115
1.38424e-121
-1.16007e-123
-5.32291e-118
5.00714e-124
4.19104e-126
-3.39389e-120
7.87872e-128
1.08442e-126
-4.79389e-123
-2.35585e-131
2.27564e-130
4.83548e-126
3.60119e-133
-3.03274e-133
-5.82247e-130
-2.72555e-138
-1.86476e-136
-2.7751e-133
-7.55427e-141
-6.34238e-140
2.05276e-136
1.39507e-143
2.49798e-144
1.72997e-138
-5.12142e-147
2.7155e-146
2.95075e-142
3.11969e-149
1.73307e-150
-6.72419e-145
-7.92161e-153
1.13693e-153
-5.46077e-149
1.32159e-153
1.38199e-157
7.02362e-152
-1.92624e-157
1.37616e-155
6.17154e-09
1.20652e-08
-1.57987e-09
7.25134e-09
5.66355e-09
7.13101e-09
4.86633e-09
5.86896e-08
1.27793e-09
2.1305e-08
-1.03244e-08
6.55783e-08
1.41714e-08
-8.84641e-09
1.19244e-08
2.34071e-08
-5.13493e-09
9.58132e-09
3.27519e-08
-3.88243e-08
-3.07938e-08
-2.63506e-08
-4.20919e-08
1.07042e-07
2.2599e-09
1.74781e-08
-2.3811e-08
1.24841e-08
-7.74278e-08
-8.90581e-08
-9.34289e-08
-7.8314e-08
8.01797e-10
-1.58901e-08
1.82537e-09
1.11397e-11
1.34199e-08
-3.90263e-12
4.76238e-12
9.05592e-12
-2.48723e-11
1.58074e-11
9.11577e-17
4.89891e-19
-1.96558e-08
7.82392e-19
2.75245e-25
1.91978e-22
-3.4098e-22
2.69972e-19
2.69356e-19
2.7146e-19
2.70091e-19
-5.43445e-27
8.84975e-26
1.33567e-26
6.58311e-29
2.39711e-29
2.51648e-30
6.61354e-32
1.72077e-32
3.77212e-34
2.21309e-36
-2.19398e-35
9.55176e-37
2.0507e-40
-2.04633e-40
7.73405e-40
8.19803e-44
-1.56055e-43
-4.96046e-44
3.49884e-47
-4.39757e-47
7.68234e-48
1.48592e-50
-1.43481e-50
2.43584e-50
6.27449e-54
9.0572e-54
1.00099e-52
2.63164e-57
-4.54757e-57
-2.592e-56
1.09639e-60
-3.69948e-60
5.40997e-59
4.55294e-64
-8.84282e-64
-7.64757e-63
1.89309e-67
-2.58281e-67
7.35271e-66
7.89736e-71
2.45418e-70
3.16789e-68
3.27328e-74
5.11767e-74
1.19622e-71
1.36765e-77
6.72276e-78
3.86212e-74
5.54368e-81
-3.05516e-80
-9.31184e-77
2.04454e-84
-1.55728e-85
-1.6976e-82
1.37286e-87
3.95787e-88
-7.9982e-84
6.33104e-91
-1.44501e-90
3.10225e-87
2.27133e-94
6.66962e-95
1.30137e-90
2.64951e-97
2.52621e-98
-1.35294e-93
1.57499e-100
-1.04296e-101
-2.43799e-96
2.54605e-104
-1.85519e-103
-1.16185e-98
2.4423e-107
-1.55348e-108
-5.16834e-103
2.19969e-110
1.74944e-111
-2.04695e-106
9.86131e-114
-1.49498e-115
-5.90658e-110
2.37017e-117
-1.24653e-117
-6.74623e-113
5.71996e-120
-2.73083e-121
-3.50739e-116
2.15182e-122
4.27759e-123
-1.59395e-118
2.55427e-126
7.41855e-127
1.08151e-121
1.61289e-129
1.26045e-130
1.29806e-124
2.44801e-132
-9.88614e-134
-2.80186e-128
3.92978e-136
-1.66709e-137
4.02971e-134
5.99316e-139
-1.4099e-140
6.68883e-135
3.2021e-142
5.59604e-143
-6.74693e-138
4.1801e-146
2.32017e-147
9.99612e-141
5.33918e-149
2.34102e-148
-1.50087e-143
5.4001e-152
2.43456e-152
-2.19774e-148
3.70185e-153
-3.11712e-155
-1.10591e-152
-2.608e-157
-5.24163e-154
-1.13841e-08
2.87568e-09
5.16677e-10
8.44405e-09
-1.42157e-08
2.1095e-07
-3.00614e-08
-7.07888e-08
-6.31138e-08
-6.3277e-08
-6.95118e-08
-2.1462e-08
-6.60711e-08
-1.18872e-08
-1.19654e-09
-6.66614e-09
4.17169e-09
-3.27856e-08
6.75162e-09
4.26097e-08
-8.8771e-12
2.66575e-08
3.40239e-08
4.25815e-09
1.69197e-08
-6.18383e-10
-9.0412e-09
-3.76374e-09
-4.47741e-08
2.64031e-08
1.64919e-08
-3.78671e-08
-2.84546e-08
-1.89919e-09
3.5934e-09
-3.82725e-10
-3.19716e-09
1.12704e-09
-2.50432e-09
1.38584e-11
-6.72486e-11
-7.00634e-11
5.75381e-11
6.21957e-16
-6.86798e-19
-2.17123e-08
1.37857e-18
6.2213e-16
6.2177e-16
6.20093e-16
-1.70195e-18
8.93202e-24
8.19633e-21
8.28166e-22
5.88611e-18
5.88561e-18
5.88904e-18
5.8858e-18
8.08175e-27
1.28576e-24
-7.65896e-26
-1.11657e-28
2.12494e-28
-9.53409e-30
3.8536e-32
-7.44385e-32
-3.82926e-33
1.50718e-35
-6.94317e-35
1.595e-36
1.53788e-39
-2.60956e-39
7.61314e-40
5.42627e-43
-2.14637e-43
5.75414e-43
2.27068e-46
-1.89968e-46
1.00216e-45
9.51656e-50
-3.77619e-50
3.21946e-49
3.97083e-53
-2.58497e-54
2.03216e-52
1.65041e-56
8.68107e-59
-5.78348e-55
6.83632e-60
-1.47113e-59
1.25675e-57
2.82821e-63
7.36219e-64
4.72735e-62
1.16056e-66
-5.91072e-67
4.51012e-65
4.74883e-70
1.87287e-71
8.59101e-68
1.95148e-73
-1.06831e-74
1.54093e-70
7.70846e-77
-1.06164e-78
-4.68515e-74
3.23118e-80
-5.10191e-81
-1.74677e-76
1.45734e-83
-5.54078e-85
-7.60395e-81
5.47502e-87
-2.62061e-88
2.23245e-83
-1.06974e-90
1.16601e-91
8.72064e-87
9.77132e-94
2.04219e-94
-4.46596e-90
1.1034e-96
2.44868e-97
-2.85204e-93
2.52921e-100
7.44865e-101
-3.12669e-96
2.28681e-103
7.79592e-105
-5.48016e-98
7.11512e-107
-5.37179e-108
4.7678e-104
3.17244e-110
3.52621e-112
-3.05435e-106
1.8457e-113
1.11196e-114
-3.53281e-109
-5.76319e-116
8.74616e-118
6.82013e-112
6.29096e-120
3.68258e-120
-1.62826e-114
-5.74552e-123
-8.85517e-125
5.10115e-120
5.05048e-126
-9.14028e-129
2.64113e-122
2.1143e-130
-3.59017e-130
2.1063e-126
-1.75183e-132
-9.4426e-132
1.90081e-129
6.38836e-137
-4.02533e-135
-6.29639e-133
1.04239e-139
3.83544e-139
1.11564e-134
2.78357e-142
4.60523e-142
1.36286e-136
2.71966e-145
-6.42005e-146
5.92061e-141
8.16197e-148
2.62786e-148
6.44733e-143
7.4658e-151
3.94578e-151
1.69487e-147
-1.24441e-153
1.76329e-154
-4.47464e-150
4.53944e-158
-1.09285e-152
-1.79349e-10
5.31814e-09
6.40236e-09
-1.7304e-08
3.92183e-08
3.9061e-09
-1.39157e-08
1.10867e-08
-2.64918e-08
-1.58425e-08
-4.61764e-08
1.59519e-07
1.27695e-09
3.00554e-08
-2.36823e-09
-6.73494e-09
-5.17067e-09
-2.21778e-08
-1.27376e-08
1.14645e-07
-2.64539e-08
-1.69042e-08
-2.459e-08
-1.20142e-07
8.83794e-08
1.77916e-07
-1.01833e-08
2.64546e-08
-2.71356e-08
3.81184e-08
-4.83533e-09
9.11343e-09
-7.12739e-09
-4.92322e-09
8.47789e-09
-4.78097e-08
-2.04072e-08
5.22684e-08
4.28108e-09
3.17994e-09
4.65967e-09
2.16737e-09
-1.43525e-08
-1.19607e-09
4.45573e-11
6.14985e-11
7.81357e-12
1.22131e-10
-1.58088e-16
3.65935e-17
-1.82663e-08
3.63853e-17
3.28593e-17
-1.57435e-16
-1.58845e-16
-1.60389e-16
5.84021e-24
-7.45332e-22
-4.00016e-22
5.72343e-18
5.72385e-18
5.72147e-18
5.72147e-18
-1.44421e-26
-1.34487e-25
8.74817e-26
8.92662e-29
-2.28997e-30
9.86273e-30
4.02662e-32
-8.8555e-32
1.07806e-32
9.27091e-36
-4.82109e-35
1.7304e-35
4.95746e-40
-5.54262e-39
1.12874e-39
1.47623e-43
-1.13963e-42
8.46146e-43
6.74401e-47
-2.75106e-46
5.69746e-46
3.07402e-50
-7.02003e-50
6.49367e-49
1.37923e-53
1.73632e-54
-3.17932e-52
6.09891e-57
-2.3807e-57
-4.3542e-55
2.66076e-60
-4.84029e-62
5.99689e-58
1.14882e-63
5.73601e-64
3.73866e-61
4.89894e-67
-1.72733e-67
2.85591e-64
2.07551e-70
1.54696e-71
3.2722e-68
8.80196e-74
-5.23937e-74
1.28888e-70
3.90133e-77
-1.43427e-77
1.63653e-73
1.28988e-80
1.20137e-80
-5.09034e-77
6.80567e-84
-1.93013e-85
8.59852e-82
3.26994e-87
2.19054e-89
9.49697e-85
2.16384e-90
2.41988e-91
3.89435e-87
2.72406e-93
8.47451e-94
1.8382e-89
7.30929e-97
1.6736e-96
3.04505e-93
4.26697e-100
-4.56085e-101
1.85099e-96
-8.29678e-104
7.1525e-105
1.56244e-99
1.11988e-106
4.70689e-108
-1.08175e-101
7.64991e-110
1.49924e-110
-2.8644e-106
2.04757e-113
-2.97978e-114
1.13067e-108
2.08471e-116
-1.32613e-117
-1.25765e-112
-5.31236e-120
1.89404e-120
-1.94452e-114
4.53278e-123
-4.43997e-125
-1.71295e-120
-1.66202e-126
-2.55338e-127
1.60623e-122
2.97199e-128
3.32669e-130
4.23806e-127
3.33883e-131
6.11135e-134
1.41937e-128
-3.71778e-135
-8.31634e-138
-4.82391e-132
1.9575e-138
-3.93749e-141
8.93615e-134
2.76654e-142
-2.93868e-143
1.57564e-136
4.04091e-145
-4.95009e-147
1.46885e-141
3.05673e-147
6.96999e-149
-5.8981e-144
1.13167e-151
1.9311e-153
2.31064e-147
-5.34023e-153
1.71825e-156
1.56568e-149
1.00424e-157
1.16449e-154
1.90727e-08
-3.66896e-09
1.58299e-08
-1.11135e-09
-4.62755e-08
2.91999e-08
-3.96347e-08
-3.55622e-08
1.17963e-07
-3.38688e-09
-3.85607e-09
-8.12125e-09
-4.59192e-08
-7.45392e-09
-1.33193e-08
-7.60006e-09
2.30175e-08
-3.07326e-08
1.02512e-09
-1.06556e-08
-5.5547e-09
-3.143e-09
-3.61173e-09
-2.03325e-08
1.83298e-08
-5.48752e-08
-5.91578e-08
-6.60642e-10
-2.87962e-09
-4.7282e-09
1.44441e-08
-1.96651e-08
2.57449e-09
2.81401e-09
6.38098e-09
-1.1961e-08
2.6166e-09
5.26799e-10
2.83696e-09
-3.56045e-10
3.56153e-11
1.42529e-12
-1.87176e-10
1.26616e-10
-4.49954e-16
-4.56496e-18
-3.4828e-08
-3.4828e-08
-4.48076e-18
-4.5004e-16
-4.50275e-16
-4.50166e-16
3.06734e-25
1.33213e-21
1.23536e-22
2.55241e-19
2.55069e-19
2.55121e-19
2.5559e-19
4.13842e-27
1.70713e-25
-4.10165e-27
-3.11343e-29
4.51063e-29
8.45972e-31
6.12198e-32
-2.95196e-33
4.28755e-34
3.29191e-36
7.0772e-37
5.06703e-38
5.09103e-40
1.68717e-40
7.40274e-40
2.01971e-43
5.34518e-44
1.90032e-44
8.2748e-47
7.12825e-48
-4.44082e-47
3.38178e-50
7.63021e-52
8.42985e-50
1.37795e-53
-1.49258e-55
4.34071e-52
5.60524e-57
2.39854e-59
2.3707e-55
2.27873e-60
-2.06224e-62
9.84295e-59
9.18123e-64
4.93808e-65
-1.37019e-61
3.71813e-67
-7.81396e-69
2.07051e-65
1.49847e-70
-3.15111e-72
-1.21017e-68
6.06761e-74
-4.55852e-76
2.3181e-72
2.40566e-77
1.10075e-78
8.07601e-75
9.61859e-81
-2.08712e-83
2.28421e-78
3.85515e-84
-1.19559e-86
5.63624e-82
1.94979e-87
-7.75179e-90
-1.05956e-84
1.32558e-90
9.161e-91
-1.47082e-86
3.44322e-94
1.18875e-95
-1.93697e-93
1.28789e-97
8.22951e-100
6.02214e-96
6.19812e-101
-2.41412e-103
-3.92025e-97
1.87682e-104
1.90389e-106
5.62832e-101
9.57183e-108
1.54412e-109
-1.91215e-103
6.24795e-111
-1.40239e-113
-1.78951e-106
4.10783e-114
4.31369e-117
1.84206e-109
2.61924e-117
-2.7341e-120
-1.21781e-113
5.83759e-120
2.75418e-121
-9.37883e-116
3.4665e-123
3.0037e-124
-3.48222e-119
3.25885e-126
-3.05767e-129
-2.83407e-122
4.67979e-130
-5.26766e-133
-1.01401e-125
5.16504e-133
5.62207e-135
3.47302e-128
8.83288e-137
9.27205e-138
1.28841e-131
5.60119e-140
-1.64624e-142
1.21817e-136
1.64518e-142
1.09131e-144
-1.96625e-138
1.14746e-145
-3.99029e-149
-2.97269e-141
8.02693e-148
2.89045e-151
-2.89692e-144
2.51118e-152
-2.72286e-155
2.07765e-150
3.03518e-153
9.62425e-157
1.50644e-151
2.21309e-157
-3.99457e-154
-2.14253e-09
2.00201e-09
5.34391e-10
9.08243e-09
1.05351e-09
3.19374e-09
-7.79398e-10
-4.16547e-09
-2.64589e-08
1.87296e-09
-3.84638e-08
1.57733e-08
3.09011e-08
7.41486e-08
2.67268e-09
4.59821e-09
2.42892e-08
1.7982e-08
1.44169e-09
4.63315e-09
-7.3014e-09
1.85633e-08
1.83433e-08
1.60697e-08
-4.44783e-10
2.09154e-08
2.55925e-09
-1.01064e-07
1.79609e-08
8.95098e-10
6.55796e-09
-1.57864e-09
-3.8397e-09
-2.46384e-09
-9.76847e-11
4.72486e-13
1.42405e-09
3.91266e-11
1.42462e-09
2.88628e-21
-1.59835e-20
-2.40199e-20
2.51117e-21
6.84658e-20
7.38894e-18
-4.95406e-19
5.431e-18
5.58049e-18
4.38859e-18
5.57492e-18
-1.64082e-25
-7.31159e-24
-2.81674e-25
2.76976e-28
-6.24389e-28
2.37296e-28
2.03641e-30
-1.55959e-31
9.61987e-32
3.82986e-35
2.16253e-34
5.07634e-35
6.70409e-39
1.82797e-38
1.43514e-38
2.67994e-42
4.31203e-42
2.54536e-41
1.11545e-45
9.99335e-46
-4.98693e-45
4.6495e-49
2.66044e-49
7.7662e-48
1.95411e-52
7.99575e-53
1.52493e-50
7.9842e-56
1.89422e-56
1.06944e-53
3.39537e-59
2.63313e-60
5.60238e-57
1.35687e-62
5.08363e-63
-1.67454e-59
5.07837e-66
2.39907e-67
4.21499e-64
2.29319e-69
-1.72194e-70
1.25884e-66
1.05996e-72
4.9348e-74
-2.29771e-69
3.74532e-76
-2.33631e-77
2.6577e-75
1.60615e-79
-2.37557e-80
1.10401e-76
2.22598e-83
2.22194e-84
-1.1452e-79
9.18771e-86
-5.36955e-88
-1.07493e-82
3.34522e-90
1.86602e-91
-7.40938e-86
1.55642e-92
2.35084e-94
-4.68042e-90
2.79109e-95
-1.81546e-99
-1.993e-92
-1.71266e-99
-6.76303e-100
6.82951e-96
2.24306e-102
4.49034e-104
-4.49202e-99
2.25706e-105
3.95913e-107
-1.34205e-101
1.26172e-108
-1.69848e-111
-1.66584e-104
2.41097e-112
-5.04184e-114
-9.43879e-108
-7.62824e-115
3.03102e-117
9.40079e-111
-9.49356e-119
4.91905e-121
2.22076e-114
8.27815e-121
-8.52431e-125
-1.63436e-117
1.91534e-124
2.64301e-127
3.09946e-122
-4.15333e-128
1.13137e-130
1.16595e-124
3.95383e-131
-4.76434e-134
-7.11624e-128
5.56528e-134
2.81492e-136
5.21443e-130
-2.86655e-137
1.19576e-138
8.259e-133
1.56389e-140
-3.57422e-143
-8.97778e-137
-5.91724e-146
5.89269e-147
-5.37208e-142
3.8619e-148
8.75721e-150
-1.01922e-143
1.01067e-149
-1.78296e-152
-9.62326e-147
-1.79647e-153
-2.18641e-154
4.66949e-150
3.84555e-154
-7.28385e-157
4.35138e-153
7.11969e-159
-4.76262e-155
2.63349e-08
2.89562e-10
1.71191e-09
8.2424e-09
8.02654e-09
5.73778e-09
8.94709e-09
1.41091e-10
-6.14474e-08
9.47056e-09
-3.42486e-11
5.06896e-09
2.58005e-08
3.7681e-08
5.73683e-09
4.54568e-09
3.46598e-08
2.57559e-08
2.58102e-08
2.70671e-08
1.1365e-08
2.52882e-08
-1.52202e-07
-9.60961e-08
1.25997e-08
2.56568e-08
4.36478e-08
-4.14038e-08
1.61323e-08
1.06307e-08
8.8168e-09
9.35565e-09
1.01442e-08
1.57582e-08
1.45215e-08
1.3737e-08
1.30507e-08
2.80528e-08
1.34727e-08
1.55887e-08
5.45514e-08
-5.46585e-10
2.48196e-09
1.03085e-10
-2.37337e-09
-4.83918e-11
-7.58476e-13
8.09848e-15
-2.46878e-08
1.06946e-12
-2.46878e-08
1.67978e-21
2.73881e-22
-4.67326e-21
5.94766e-21
-1.53477e-20
1.32034e-19
-1.36736e-19
1.14052e-26
7.12521e-26
-9.59815e-26
4.98187e-29
6.3876e-28
-1.43703e-30
9.02909e-32
1.96684e-31
1.24264e-33
1.14466e-35
2.27211e-35
-2.89238e-38
1.47364e-39
4.07782e-39
2.73442e-39
5.55131e-43
8.63605e-43
2.32107e-42
2.27995e-46
2.10427e-46
-4.86585e-46
9.37295e-50
4.1008e-50
1.84168e-48
3.84445e-53
1.03883e-53
-1.37321e-51
1.57295e-56
2.33538e-57
2.99199e-55
6.41694e-60
6.90725e-61
-1.90412e-58
2.60812e-63
3.64299e-64
7.45692e-61
1.05679e-66
1.73581e-68
2.18716e-64
4.27077e-70
-4.97815e-72
-3.64823e-68
1.71981e-73
-1.12846e-74
-1.04378e-71
7.49e-77
9.12975e-79
-4.16694e-75
4.88862e-80
-3.18512e-81
-1.50831e-76
1.25157e-83
-1.33973e-85
-3.60991e-81
4.66765e-87
6.29391e-88
4.80557e-84
1.80072e-90
-2.66719e-92
-1.56732e-86
7.72488e-94
-8.7606e-95
2.35956e-90
6.99953e-97
-1.02719e-98
-7.19346e-94
3.93188e-99
1.54842e-101
-1.11313e-95
2.02379e-103
-4.73953e-105
-1.27419e-100
4.66092e-107
-2.51199e-108
2.44534e-103
2.67692e-110
-8.13506e-111
1.78463e-107
2.74233e-113
1.66713e-114
-1.93232e-108
1.20433e-116
-2.19221e-118
-4.23846e-112
8.90976e-120
4.11906e-121
-2.20698e-115
-6.21006e-124
-4.56961e-124
-5.30438e-120
-1.70702e-127
-4.26013e-127
1.17967e-123
6.13149e-129
3.82344e-130
-1.65501e-125
6.9244e-132
-3.60921e-134
-5.15978e-128
9.15291e-135
1.08864e-135
-4.16786e-131
4.00529e-139
1.69249e-139
1.74468e-134
4.3866e-142
-2.18758e-143
-9.74771e-139
-1.47245e-145
-7.35836e-146
1.21192e-141
1.74912e-148
-2.18847e-150
-5.88758e-145
2.98394e-151
-1.94481e-152
2.12516e-147
-5.04438e-154
-6.31243e-155
-3.06703e-150
5.22999e-154
-4.14266e-157
-5.89847e-153
-1.34388e-158
3.05726e-156
3.5003e-08
6.57037e-08
-2.01185e-09
-2.25524e-09
-3.22442e-09
-3.09897e-09
2.88669e-08
1.05672e-07
3.72821e-08
3.88876e-08
3.75404e-08
3.7566e-08
6.60984e-08
2.21137e-08
-1.13885e-08
1.75395e-08
1.32722e-08
-8.59664e-09
-8.34086e-09
-9.09958e-09
-7.55369e-09
4.94405e-08
1.94472e-08
-9.37232e-08
3.60893e-09
-2.31746e-08
-1.58562e-08
1.36875e-09
3.02577e-08
2.61369e-08
1.75996e-08
-5.57483e-08
-2.18938e-09
-5.14911e-09
2.99255e-09
1.76074e-09
1.12838e-09
-2.88121e-16
-7.41342e-17
-1.78591e-20
1.38206e-18
-2.8396e-18
1.1565e-16
-5.21017e-16
7.69157e-16
2.56127e-24
-5.99689e-24
4.28251e-24
-2.63593e-22
-9.73108e-22
-3.15834e-22
8.97854e-27
6.18734e-28
2.90538e-28
1.08302e-29
2.07545e-32
1.60125e-32
1.81723e-36
8.75842e-36
6.75068e-40
3.65585e-39
2.77597e-43
-4.69048e-42
1.1433e-46
-1.64084e-45
4.69985e-50
-2.01117e-49
1.92405e-53
-1.5934e-52
7.86406e-57
1.73495e-54
3.21344e-60
3.40533e-59
1.30986e-63
-3.88996e-62
5.27792e-67
-4.18293e-65
2.12722e-70
-5.74656e-68
8.55536e-74
-7.73551e-71
3.48269e-77
2.47195e-74
1.4704e-80
1.00615e-76
5.71824e-84
4.65302e-81
2.50359e-87
-1.07358e-82
1.31184e-90
-4.26119e-87
1.16478e-93
-9.70501e-90
2.72197e-97
6.29278e-94
4.74452e-100
-1.80264e-96
4.6825e-103
-3.90924e-99
1.98868e-106
-2.67541e-102
2.10458e-109
-1.39089e-105
7.73839e-114
-2.63412e-109
1.1065e-116
-5.0206e-112
3.26501e-119
8.51495e-115
1.31834e-122
4.94342e-120
4.59574e-125
-2.14171e-121
2.91496e-129
-1.34533e-127
1.59917e-132
2.17671e-128
6.9046e-136
1.23251e-132
7.2547e-138
-9.1913e-134
6.35352e-142
-5.35911e-138
6.47835e-145
-9.24307e-141
1.24275e-147
-1.17002e-144
1.37988e-151
2.52277e-147
-3.61626e-154
-8.35224e-151
4.06674e-154
7.59594e-153
5.72089e-156
1.75135e-08
-1.30667e-08
-5.07816e-08
-3.53379e-09
-9.55415e-09
-2.8123e-09
7.41791e-09
9.43247e-09
4.25224e-08
7.11325e-09
7.60537e-09
7.26815e-09
9.64042e-09
9.20173e-09
9.3433e-09
1.37201e-07
3.77312e-09
7.21402e-09
3.24171e-09
8.21757e-10
-3.92479e-08
2.49325e-07
9.4418e-08
7.78736e-08
1.67402e-07
6.77791e-08
-2.75676e-09
3.2511e-08
1.03321e-08
-1.9132e-07
-3.75136e-08
-1.55917e-08
-4.39218e-08
1.5278e-08
-1.48199e-09
-3.98393e-07
-1.51513e-07
5.58691e-08
-1.71651e-10
1.66851e-09
1.1738e-10
-7.49597e-10
3.32386e-10
5.13786e-16
6.49858e-19
-4.96657e-20
2.5151e-18
8.61149e-19
-4.75776e-16
6.26093e-16
-4.93945e-16
-7.07546e-24
4.64745e-21
-4.51884e-24
2.25414e-20
-2.6716e-20
2.37867e-20
-2.99387e-20
1.55327e-25
1.28975e-25
-1.37735e-27
3.11114e-27
-3.05074e-27
-1.03816e-29
1.47397e-30
-8.26378e-30
-5.49458e-32
1.21287e-34
-1.53307e-33
2.80115e-36
5.599e-38
-4.22589e-37
3.65142e-39
4.20944e-41
-1.95031e-40
-1.76928e-42
2.97501e-44
-8.32633e-44
4.14897e-45
2.06413e-47
-4.0821e-47
6.57369e-48
1.42952e-50
-1.58161e-50
-9.69588e-52
9.86429e-54
-6.27166e-54
3.07407e-54
6.78259e-57
-2.22604e-57
5.28655e-59
4.64895e-60
-1.02789e-60
-1.77114e-61
3.17458e-63
-4.33931e-65
-1.08807e-63
2.15951e-66
-3.12008e-67
2.92453e-67
1.46472e-69
-4.16154e-71
3.72362e-71
9.89872e-73
1.20344e-74
-2.27132e-74
6.66528e-76
1.98838e-77
-3.83993e-77
4.47685e-79
-1.28062e-79
1.2142e-79
2.99631e-82
2.64977e-83
5.55345e-83
1.99794e-85
1.02001e-86
1.48286e-86
1.32738e-88
1.01762e-89
3.06098e-89
8.78767e-92
-3.85674e-93
-6.91086e-94
5.79463e-95
2.78109e-95
-1.13867e-98
3.80966e-98
1.41936e-98
4.93741e-101
2.49876e-101
-8.08014e-102
-1.40269e-101
1.63364e-104
-7.02303e-105
1.01648e-105
1.06462e-107
8.92883e-109
2.06744e-108
6.90955e-111
6.60216e-112
1.56986e-111
4.46375e-114
7.05616e-115
2.53711e-116
2.87595e-117
-1.54463e-118
1.55872e-118
1.84913e-120
2.29681e-122
-1.02446e-123
1.18451e-123
-1.01576e-124
7.42932e-125
7.55756e-127
4.71432e-128
2.0051e-128
4.8036e-130
-1.73282e-131
3.08361e-132
3.04615e-133
6.23974e-134
-1.19749e-135
1.92195e-136
1.22934e-136
-2.49735e-140
1.20729e-139
-1.67295e-140
9.41201e-142
7.55526e-143
-1.24851e-144
-1.41577e-143
4.71623e-146
-1.45527e-146
-3.55206e-147
2.93411e-149
-2.09137e-150
2.07028e-150
1.34204e-152
8.86896e-154
6.41305e-153
2.88542e-156
8.93566e-156
-5.83638e-09
-1.29385e-07
3.41425e-08
-1.16932e-07
-2.89357e-09
1.05888e-08
-5.93256e-08
6.33837e-09
-5.49843e-08
-1.57647e-09
1.6796e-09
-7.1071e-09
-2.06622e-09
-5.38315e-09
-7.68242e-09
-7.04019e-09
-5.80694e-09
7.53808e-10
3.05553e-08
3.30832e-08
3.66295e-08
2.87404e-08
3.02511e-08
-3.44053e-07
-2.20351e-10
8.0208e-09
-2.00527e-07
9.99277e-09
8.16042e-09
-1.57769e-08
-5.92293e-09
-1.76617e-08
1.25997e-08
3.23488e-09
4.32097e-09
1.87278e-09
1.6445e-09
-2.10645e-08
3.98141e-14
9.60084e-17
2.60128e-15
7.9345e-17
-9.99861e-17
-1.94812e-13
8.03403e-14
6.77032e-14
-1.11848e-14
-1.14467e-14
-9.38769e-15
-9.36044e-15
1.0007e-20
-1.75718e-19
-1.84519e-21
-6.699e-20
1.71069e-19
-3.26773e-20
2.61543e-19
-1.57004e-26
-2.95472e-23
-3.94845e-26
8.80282e-28
-1.09729e-26
2.14198e-30
1.15005e-30
-2.94413e-30
-1.90497e-33
1.49031e-34
-3.96466e-34
-3.10172e-36
2.01484e-38
2.6079e-38
7.896e-39
1.54227e-41
-1.09741e-40
-3.75786e-42
1.19794e-44
-4.4805e-44
-1.69692e-45
8.72724e-48
-1.44408e-47
1.15107e-48
6.31171e-51
-9.73831e-51
3.74467e-52
4.53603e-54
4.84149e-54
-2.67436e-54
3.23705e-57
-9.16543e-58
1.04432e-57
2.29554e-60
-1.96089e-61
1.92091e-61
1.61884e-63
9.9305e-64
-3.86998e-64
1.13388e-66
4.83268e-67
-2.78757e-68
7.91421e-70
-1.84678e-69
2.4536e-70
5.50315e-73
-6.02174e-73
1.23467e-75
3.80513e-76
7.47574e-77
4.81408e-77
2.61824e-79
2.14314e-80
-1.78642e-80
1.79359e-82
1.28877e-83
-1.20476e-83
1.22379e-85
-3.88113e-86
1.02341e-86
8.31699e-89
9.77465e-89
-1.28859e-89
5.62903e-92
-1.78508e-92
-1.89508e-94
3.79832e-95
-4.71245e-97
2.60353e-96
2.55615e-98
2.73331e-99
3.69747e-99
1.71402e-101
-1.47267e-101
-6.66104e-103
1.14542e-104
-8.2631e-106
4.10797e-105
7.62663e-108
2.86492e-108
6.87523e-109
5.06184e-111
-2.18104e-111
1.17144e-111
3.34985e-114
-7.00749e-115
-1.17766e-115
2.21109e-117
7.93993e-119
8.39884e-119
1.45298e-120
-9.58501e-121
3.1838e-121
9.51406e-124
-4.33229e-125
2.36633e-126
6.21629e-127
1.21923e-127
-4.37143e-128
4.04857e-130
5.56109e-131
-9.39767e-133
2.63056e-133
1.48958e-133
-3.41709e-135
1.7072e-136
3.58641e-137
6.37711e-137
1.10386e-139
5.81614e-140
-5.29394e-140
7.1104e-143
7.4348e-144
-3.77435e-144
4.57008e-146
1.70965e-146
5.73518e-147
2.93948e-149
8.31548e-150
2.00872e-150
7.1037e-152
7.34197e-153
-1.30632e-153
1.23841e-157
3.21588e-157
-1.36444e-08
-9.54094e-08
-8.26225e-08
-2.77125e-07
3.2992e-09
4.08791e-07
-4.20218e-07
-1.55582e-07
4.1041e-09
3.35073e-09
6.83858e-09
9.26522e-08
1.34997e-08
-4.26433e-09
6.4672e-08
8.56925e-09
3.51601e-08
2.64754e-08
2.87954e-08
3.68136e-08
-7.33801e-09
1.46502e-08
3.00326e-08
8.08945e-09
3.25271e-08
-1.80239e-08
-1.68501e-07
-2.54565e-09
2.95636e-08
-1.35291e-07
-3.20665e-09
-2.90852e-08
-1.17557e-08
3.91456e-09
-2.87625e-08
9.54836e-09
1.49609e-07
3.4008e-08
-1.1024e-09
-1.27294e-08
-7.11326e-10
4.08586e-09
-2.46947e-08
1.52497e-11
-7.06864e-13
-1.38305e-13
-1.78241e-12
5.14891e-13
5.68412e-15
-8.80005e-20
-8.99579e-18
-1.44863e-21
1.98463e-18
1.75083e-18
2.79411e-18
1.15179e-18
-1.26444e-17
-9.84299e-18
-1.26485e-17
1.66793e-25
-3.78571e-21
4.39935e-24
1.04045e-27
-1.77602e-24
-1.10961e-28
3.07886e-33
-7.70541e-28
-4.48836e-32
1.32739e-33
-4.06609e-31
3.48645e-35
4.40422e-37
-1.76998e-34
-1.15035e-38
2.82743e-40
-7.38819e-38
-1.23311e-41
2.01102e-43
-2.95395e-41
6.37144e-45
1.45217e-46
-1.34429e-44
-2.76147e-48
1.03437e-49
-5.81234e-48
5.90407e-51
7.31017e-53
-1.08349e-51
-1.49482e-53
5.14767e-56
-1.01007e-54
8.70727e-57
3.61768e-59
-5.57621e-58
-6.53465e-61
2.53236e-62
-1.82557e-61
1.12056e-62
1.76718e-65
-1.44453e-64
1.65761e-67
1.229e-68
-7.15218e-68
-1.0935e-69
8.5142e-72
-4.70655e-72
-6.51428e-73
5.88127e-75
2.08856e-74
-6.24093e-76
4.05418e-78
-1.51321e-77
1.19696e-78
2.7844e-81
8.67887e-82
8.05422e-83
1.90547e-84
1.59427e-84
1.9356e-86
1.30266e-87
1.60267e-88
2.52752e-89
8.88461e-91
-3.50615e-90
4.72516e-92
6.03879e-94
1.68116e-94
2.20809e-95
4.10111e-97
-1.1336e-97
6.03323e-99
2.77325e-100
7.01357e-101
1.01909e-101
1.86743e-103
1.41421e-104
-1.29394e-104
1.25653e-106
2.72846e-107
1.468e-107
8.43857e-110
-2.89621e-110
2.20001e-110
5.6504e-113
-1.58588e-113
3.8684e-114
3.77624e-116
-1.16284e-117
-5.58293e-117
2.51637e-119
8.76299e-121
-1.56484e-121
1.67223e-122
-8.19549e-123
2.20241e-123
1.10925e-125
1.89908e-125
-1.35702e-126
7.343e-129
2.48182e-129
4.11663e-131
4.85648e-132
-2.27305e-131
1.59282e-133
3.20716e-135
-5.55695e-135
-1.78478e-136
2.11208e-138
5.99058e-139
-2.39751e-139
1.38751e-141
1.69604e-142
-2.69006e-142
9.09549e-145
2.38591e-145
-1.31949e-145
5.94598e-148
1.61515e-148
4.99476e-149
4.09005e-151
7.74862e-152
-3.60523e-152
-5.69736e-154
3.26188e-155
3.83867e-08
-4.6461e-09
3.08655e-08
4.17904e-08
5.09748e-09
-2.04709e-08
3.1666e-08
2.02067e-07