/*--------------------------------*- C++ -*----------------------------------*\
| =========                 |                                                 |
| \\      /  F ield         | OpenFOAM: The Open Source CFD Toolbox           |
|  \\    /   O peration     | Version:  5.0                                   |
|   \\  /    A nd           | Web:      www.OpenFOAM.org                      |
|    \\/     M anipulation  |                                                 |
\*---------------------------------------------------------------------------*/
FoamFile
{
    version     2.0;
    format      ascii;
    class       volScalarField;
    location    "1.3";
    object      p;
}
// * * * * * * * * * * * * * * * * * * * * * * * * * * * * * * * * * * * * * //

dimensions      [1 -1 -2 0 0 0 0];

internalField   nonuniform List<scalar> 
7898
(
103.991
104.124
104.859
96.7291
103.733
97.8978
95.6554
92.5665
90.2328
87.7964
85.3355
82.8608
80.388
77.9414
75.5105
73.1024
70.7067
68.3422
65.9998
63.6796
61.367
59.0744
56.8082
54.538
52.2919
50.0644
47.8395
45.6138
43.4075
41.2266
39.0412
36.881
34.7501
32.6093
30.4629
28.3491
26.2878
24.2627
22.2469
20.2213
18.2251
16.2743
14.3257
12.3475
10.3999
8.49809
6.59784
4.69555
2.81263
0.940495
109.093
100.25
94.9851
94.1771
99.3752
97.903
95.756
92.8138
90.4059
87.9106
85.4117
82.9078
80.4373
77.9725
75.5224
73.1146
70.7103
68.3591
66.023
63.6845
61.3728
59.076
56.804
54.5388
52.279
50.0438
47.8265
45.6149
43.4147
41.2286
39.056
36.8947
34.7465
32.6039
30.4657
28.3554
26.2836
24.2458
22.2243
20.2194
18.2304
16.2784
14.3334
12.3688
10.4092
8.49203
6.59204
4.69481
2.81362
0.940322
107.602
106.187
58.8946
100.537
112.121
103.385
97.6202
93.4191
90.7302
88.0708
85.5088
82.9533
80.4507
77.9873
75.5371
73.1101
70.7255
68.3809
66.0397
63.6836
61.3733
59.0789
56.7929
54.533
52.2826
50.0408
47.817
45.6208
43.4249
41.2303
39.0605
36.8938
34.7264
32.5905
30.4769
28.3707
26.2823
24.2358
22.2217
20.2215
18.2378
16.2732
14.3165
12.3689
10.4192
8.48887
6.5852
4.69663
2.81817
0.940749
104.823
104.015
99.2547
102.45
104.059
102.17
99.8963
94.387
90.6694
88.136
85.5392
83
80.4678
77.9908
75.5457
73.1204
70.7305
68.3763
66.02
63.6887
61.3859
59.0795
56.7966
54.5346
52.2936
50.0514
47.8165
45.6273
43.4193
41.2207
39.0613
36.8895
34.7212
32.586
30.4835
28.3874
26.2889
24.2317
22.2227
20.2273
18.2425
16.2611
14.2983
12.3554
10.4236
8.48979
6.58461
4.70309
2.82405
0.93562
83.8823
108.96
108.403
97.6386
101.626
101.7
99.9278
94.4265
90.699
88.157
85.5471
82.988
80.4761
77.9914
75.5539
73.1308
70.7441
68.369
66.0005
63.6917
61.3887
59.0795
56.802
54.5384
52.3022
50.0665
47.8265
45.6228
43.4074
41.2138
39.0562
36.8821
34.7198
32.5852
30.4849
28.3967
26.2993
24.2347
22.2259
20.2342
18.2416
16.2492
14.2782
12.3448
10.4207
8.49121
6.59252
4.71777
2.83204
0.933612
109.519
102.571
102.553
100.33
98.5884
98.965
99.0333
94.3188
90.6219
88.113
85.5166
82.9706
80.4647
77.9909
75.5648
73.1384
70.7523
68.3717
65.9937
63.6751
61.3812
59.0723
56.8021
54.5483
52.3079
50.0805
47.8366
45.6161
43.4004
41.2072
39.0504
36.8764
34.7122
32.5872
30.4882
28.3989
26.3104
24.2503
22.2309
20.2364
18.2362
16.2358
14.2651
12.335
10.4166
8.49561
6.60788
4.74185
2.84169
0.936588
72.7606
111.566
107.932
102.875
100.787
99.4081
99.1751
94.0726
90.4625
87.9816
85.4539
82.9358
80.4601
77.9907
75.5519
73.1326
70.7479
68.3766
65.9966
63.6659
61.3703
59.073
56.8019
54.5562
52.313
50.0774
47.8426
45.6131
43.401
41.2152
39.0438
36.8629
34.7052
32.5935
30.4911
28.3937
26.3163
24.2619
22.2325
20.2287
18.2289
16.2268
14.2605
12.3326
10.4122
8.49736
6.61426
4.74153
2.84755
0.945802
88.3457
108.741
127.746
105.598
104.182
99.2401
97.8939
92.9116
90.4189
87.8893
85.3899
82.8932
80.433
77.9725
75.5198
73.1285
70.7347
68.3632
66.0084
63.659
61.3605
59.0676
56.7962
54.5563
52.3104
50.0826
47.8444
45.6102
43.4137
41.2229
39.0405
36.8604
34.7102
32.6006
30.4904
28.3832
26.3161
24.273
22.2385
20.2234
18.2245
16.2399
14.2742
12.3374
10.4106
8.49956
6.61281
4.7305
2.84548
0.949646
107.449
129.08
99.7823
97.8396
98.6426
99.6868
96.2401
92.6618
90.2684
87.8086
85.3399
82.8679
80.4074
77.9543
75.5203
73.1216
70.7136
68.3482
66.0039
63.6706
61.3549
59.0618
56.8049
54.5543
52.319
50.0836
47.8422
45.611
43.4069
41.2211
39.0285
36.8608
34.7275
32.6058
30.4823
28.372
26.3107
24.2775
22.2428
20.2219
18.223
16.2476
14.2898
12.3376
10.4062
8.49944
6.60521
4.71877
2.83259
0.950325
104.747
103.027
100.572
99.2983
98.1154
98.0723
95.8869
92.5714
90.2169
87.7669
85.3174
82.8432
80.3735
77.9466
75.5144
73.104
70.7073
68.3432
65.9972
63.6743
61.3571
59.0654
56.8084
54.5436
52.306
50.0795
47.8429
45.6121
43.4044
41.223
39.0321
36.8672
34.7426
32.6101
30.4694
28.3571
26.2992
24.272
22.2458
20.2205
18.2236
16.2625
14.3036
12.3386
10.3983
8.5009
6.60422
4.7063
2.81991
0.941217
104.365
104.577
102.446
95.5414
98.2084
97.8929
95.6565
92.5671
90.2327
87.7964
85.3356
82.8608
80.3879
77.9415
75.5105
73.1022
70.7067
68.3423
65.9999
63.6792
61.367
59.0744
56.8082
54.5379
52.2919
50.0644
47.8393
45.6138
43.4073
41.2263
39.0411
36.8811
34.7501
32.6091
30.4629
28.3491
26.2876
24.2627
22.2468
20.2213
18.225
16.2744
14.3258
12.3476
10.3999
8.49826
6.59773
4.69553
2.81259
0.940582
105.552
98.925
95.7096
94.0533
97.9171
97.8095
95.7513
92.8141
90.4058
87.9106
85.4117
82.9077
80.4373
77.9725
75.5224
73.1144
70.7103
68.3593
66.0229
63.6844
61.3729
59.076
56.8039
54.5387
52.2791
50.0439
47.8264
45.6149
43.4147
41.2286
39.0566
36.8948
34.7464
32.604
30.4656
28.3554
26.2835
24.2458
22.2243
20.2187
18.2305
16.2785
14.3333
12.3686
10.4093
8.49209
6.5919
4.6948
2.81381
0.940273
110.784
110.206
59.6716
95.9991
104.487
101.098
97.556
93.4204
90.7309
88.0708
85.5088
82.9533
80.4506
77.9873
75.5371
73.1101
70.7255
68.3808
66.0398
63.6835
61.3731
59.0789
56.7928
54.5328
52.2826
50.0407
47.8169
45.6207
43.425
41.2304
39.0602
36.8937
34.7265
32.5906
30.477
28.3707
26.2822
24.2358
22.2217
20.2214
18.2379
16.2733
14.3165
12.3687
10.4192
8.48873
6.58501
4.69667
2.81818
0.940737
104.829
104.538
97.8018
94.7789
106.216
102.02
99.9304
94.3878
90.67
88.1352
85.5393
83
80.4678
77.9907
75.5457
73.1204
70.7305
68.3762
66.0199
63.6886
61.3859
59.0794
56.7967
54.5347
52.2932
50.0512
47.8167
45.6274
43.4194
41.2206
39.0611
36.8895
34.7211
32.586
30.4835
28.3873
26.2889
24.2317
22.2226
20.2273
18.2426
16.2611
14.2983
12.3556
10.4237
8.48975
6.58451
4.70307
2.82404
0.935501
81.8901
104.771
104.006
97.5905
101.041
101.309
99.8909
94.4253
90.6992
88.157
85.5472
82.9879
80.4759
77.9914
75.554
73.1308
70.7441
68.369
66.0005
63.6917
61.3887
59.0795
56.802
54.5385
52.3021
50.0665
47.8266
45.6228
43.4072
41.2137
39.0561
36.8821
34.7199
32.5852
30.4849
28.3967
26.2993
24.2346
22.2259
20.2344
18.2415
16.2488
14.2782
12.3447
10.4207
8.49119
6.59246
4.71767
2.83195
0.933658
110.271
102.582
100.83
99.3605
98.5485
98.8826
99.0457
94.3177
90.6221
88.1129
85.5165
82.9706
80.4648
77.9908
75.5648
73.1383
70.7522
68.3718
65.9936
63.6749
61.3817
59.0722
56.802
54.5483
52.308
50.0806
47.8366
45.6161
43.4004
41.2073
39.0504
36.8759
34.7121
32.5872
30.4883
28.3989
26.3104
24.2503
22.2308
20.2365
18.2361
16.2354
14.2651
12.335
10.4165
8.49559
6.60785
4.74186
2.84139
0.936554
65.5891
98.7186
109.562
102.619
100.897
99.5294
99.2211
94.0698
90.463
87.9814
85.4539
82.9358
80.4601
77.9907
75.5518
73.1326
70.7479
68.3765
65.9966
63.6659
61.3702
59.073
56.8018
54.5562
52.3129
50.0774
47.8425
45.6131
43.401
41.2152
39.0439
36.8628
34.7051
32.5934
30.4911
28.3936
26.3163
24.2618
22.2325
20.2288
18.2289
16.2267
14.2605
12.3326
10.4121
8.49734
6.61435
4.74164
2.84751
0.945925
92.4144
110.093
108.877
99.947
100.49
99.2257
97.8057
92.9121
90.419
87.8893
85.3899
82.8932
80.433
77.9724
75.5198
73.1284
70.735
68.363
66.0086
63.6591
61.3604
59.0676
56.7963
54.5563
52.3103
50.0826
47.8444
45.6101
43.4135
41.2229
39.0404
36.8603
34.7102
32.6006
30.4904
28.3831
26.3161
24.273
22.2385
20.2233
18.2244
16.24
14.2743
12.3374
10.4105
8.49954
6.6128
4.73048
2.8455
0.949789
115.251
102.363
103.22
97.215
98.4388
99.1355
96.2679
92.6623
90.2685
87.8086
85.3399
82.8679
80.4074
77.9543
75.5203
73.1218
70.7137
68.3482
66.0039
63.6706
61.3549
59.0619
56.8049
54.5543
52.319
50.0836
47.8421
45.6109
43.4069
41.2212
39.0286
36.8608
34.7279
32.6059
30.4822
28.3721
26.311
24.2774
22.2427
20.2219
18.2231
16.2476
14.2898
12.3375
10.4061
8.49939
6.60515
4.71874
2.83264
0.950326
105.001
103.424
100.567
97.9699
97.8568
98.0493
95.888
92.572
90.2168
87.7669
85.3175
82.8432
80.3733
77.9467
75.5144
73.1042
70.7072
68.3432
65.9972
63.6741
61.357
59.0654
56.8084
54.5436
52.3061
50.0794
47.8427
45.6121
43.4045
41.2229
39.0319
36.8673
34.7427
32.6098
30.4694
28.3572
26.2992
24.2719
22.2458
20.2205
18.2235
16.2625
14.3036
12.3383
10.3983
8.50092
6.60413
4.7063
2.81997
0.941202
104.592
104.008
104.018
96.4842
97.7766
97.8792
95.6558
92.5669
90.2327
87.7963
85.3356
82.861
80.3877
77.9414
75.5104
73.1019
70.7066
68.3423
66
63.679
61.3669
59.0744
56.8081
54.5377
52.2918
50.0644
47.8391
45.6137
43.4071
41.2262
39.0412
36.8812
34.7501
32.6089
30.4628
28.349
26.2876
24.2627
22.2468
20.221
18.2248
16.2744
14.3259
12.3477
10.3999
8.49819
6.59759
4.69548
2.81249
0.940596
105.714
102.605
102.627
33.0277
98.0472
97.8478
95.7475
92.8133
90.4058
87.9105
85.4116
82.9077
80.4372
77.9724
75.5223
73.1141
70.7103
68.3594
66.0227
63.6842
61.3729
59.0761
56.8033
54.5381
52.2792
50.0438
47.8262
45.6148
43.4148
41.2289
39.0566
36.8947
34.7463
32.604
30.4656
28.3553
26.2834
24.2462
22.2241
20.2187
18.2304
16.2786
14.3332
12.3681
10.4093
8.49209
6.59174
4.69474
2.81393
0.940077
106.032
109.76
43.2353
90.0628
106.727
99.6695
97.5424
93.4201
90.7314
88.0707
85.5086
82.9532
80.4506
77.9872
75.537
73.11
70.7254
68.3805
66.0398
63.6834
61.3729
59.0788
56.7927
54.5327
52.2826
50.0406
47.8172
45.6207
43.4249
41.2304
39.0601
36.8933
34.7265
32.5907
30.4771
28.3706
26.282
24.2358
22.2216
20.2213
18.2379
16.2735
14.3164
12.3685
10.4191
8.48859
6.58485
4.69663
2.81815
0.940408
109.425
106.434
97.3843
117.539
105.622
101.688
99.9325
94.3889
90.6693
88.1351
85.5391
82.9999
80.4677
77.9907
75.5456
73.1203
70.7304
68.376
66.0198
63.6884
61.3859
59.0794
56.7966
54.5348
52.293
50.051
47.8168
45.6273
43.4195
41.2205
39.061
36.8894
34.721
32.5859
30.4835
28.3872
26.2887
24.2317
22.2227
20.2272
18.2425
16.261
14.2981
12.3557
10.4237
8.48946
6.58442
4.70302
2.8239
0.935176
101.577
110.082
105.386
101.672
101.31
101.186
99.8787
94.4259
90.6984
88.1573
85.5471
82.9878
80.4756
77.9913
75.5539
73.1308
70.744
68.3689
66.0004
63.6918
61.3888
59.0791
56.802
54.5385
52.3018
50.0666
47.8267
45.6227
43.4071
41.2133
39.056
36.882
34.7199
32.5851
30.4849
28.3966
26.2992
24.2346
22.2258
20.2346
18.2412
16.2484
14.2784
12.3446
10.4204
8.49112
6.5926
4.71757
2.83186
0.933568
104.149
102.841
100.778
100.276
98.4337
99.0247
99.0486
94.3182
90.6214
88.1131
85.5163
82.9705
80.4654
77.9908
75.5648
73.1382
70.7522
68.3719
65.9934
63.6748
61.3818
59.072
56.8019
54.5483
52.3082
50.0805
47.8365
45.616
43.4003
41.2078
39.0505
36.8757
34.7119
32.5871
30.4884
28.3988
26.3104
24.2502
22.2308
20.2366
18.2359
16.235
14.2651
12.335
10.4163
8.49552
6.60785
4.74186
2.84092
0.93652
70.5357
100.381
96.7138
93.6469
99.154
99.3249
99.2281
94.0691
90.4625
87.9815
85.4538
82.9357
80.46
77.9906
75.5518
73.1325
70.7478
68.3763
65.9965
63.6659
61.3704
59.0729
56.8017
54.5561
52.3126
50.0773
47.8424
45.6133
43.4013
41.2152
39.0437
36.8626
34.705
32.5933
30.491
28.3934
26.3162
24.2618
22.2324
20.2288
18.2288
16.2265
14.2605
12.3326
10.412
8.49727
6.61444
4.74131
2.84739
0.945881
54.5772
111.388
108.021
100.052
101.063
99.3028
97.8349
92.9118
90.4192
87.8892
85.3898
82.8931
80.4329
77.9724
75.5197
73.1284
70.7352
68.3627
66.0087
63.659
61.3603
59.0677
56.7963
54.5562
52.3102
50.0825
47.8443
45.6099
43.4135
41.223
39.0404
36.8602
34.7102
32.6005
30.4903
28.3831
26.316
24.2729
22.2384
20.2234
18.2243
16.2399
14.2742
12.3373
10.4104
8.49947
6.61274
4.73044
2.84548
0.949764
108.397
81.573
102.148
96.2395
98.926
99.5339
96.2068
92.662
90.2687
87.8085
85.3398
82.8678
80.4073
77.9542
75.5202
73.1219
70.7137
68.3481
66.0039
63.6706
61.3548
59.0618
56.8049
54.5542
52.3188
50.0836
47.842
45.6109
43.4069
41.2213
39.0284
36.8607
34.728
32.6059
30.482
28.3722
26.3109
24.2773
22.2426
20.2218
18.2231
16.2476
14.2897
12.3373
10.406
8.49931
6.605
4.71867
2.83264
0.950233
104.696
102.945
103.192
99.365
97.6954
98.0213
95.8896
92.5717
90.2169
87.7667
85.3175
82.8431
80.3731
77.9468
75.5143
73.1044
70.7072
68.3431
65.9971
63.674
61.3567
59.0653
56.8083
54.5436
52.3061
50.0792
47.8424
45.6122
43.4047
41.2228
39.0318
36.8675
34.7432
32.6094
30.4694
28.3574
26.2993
24.2719
22.2457
20.2204
18.2235
16.2623
14.3036
12.3382
10.3982
8.50087
6.60399
4.70607
2.81996
0.941135
96.3784
97.8167
96.0215
97.8994
96.3783
97.8078
96.0295
96.2384
99.8529
97.1342
97.7979
96.2578
98.1855
97.0483
97.9024
102.277
100.21
100.804
97.8905
101.092
100.225
100.394
106.014
99.7526
101.524
100.395
102.141
99.7432
100.064
99.7087
99.0171
101.437
100.088
99.6949
98.9859
99.1023
99.9933
98.9819
98.9732
99.0749
99.8713
98.9848
99.0529
99.037
98.864
99.2493
99.0591
99.0398
98.8718
98.892
99.4674
97.3776
99.2626
98.9152
99.153
97.3767
97.6399
99.0306
96.6511
99.141
97.6354
98.9669
96.7212
96.6992
97.9038
96.5447
98.0566
96.6834
97.926
96.5481
96.3744
97.8019
96.0233
97.8792
96.3771
97.7608
96.0324
96.2538
97.8755
97.117
97.6773
96.2164
98.1458
97.0991
97.9182
101.24
100.222
99.7324
97.9202
102.26
100.227
100.394
101.927
99.733
101.037
100.401
101.818
99.7184
100.07
99.6778
99.0249
101.216
100.088
99.7261
98.9941
99.1169
99.8763
99.002
98.8896
99.076
99.7601
98.9942
99.0874
99.0299
98.8673
99.3693
99.0876
102.908
98.8618
98.9155
99.3514
97.3852
99.7033
98.9102
99.6739
97.315
97.2233
98.9609
96.694
99.0432
97.6843
98.9294
96.675
96.6849
97.9333
96.541
98.0332
96.6958
97.9204
96.5374
96.3823
97.7708
96.0457
97.8645
96.3807
97.7382
96.0289
96.205
98.1415
97.0932
98.2582
96.2368
98.2826
97.1219
97.9137
101.413
100.226
99.7708
97.8977
100.33
100.201
100.407
102.066
99.71
100.471
100.407
101.461
99.6994
100.08
99.5335
99.0263
103.088
100.07
99.813
99.0473
99.1108
99.7109
99.0093
99.062
99.1174
99.8807
98.9796
99.1381
101.302
98.8641
99.3396
99.1132
101.859
98.8517
98.9127
99.1768
97.2795
99.2743
98.8874
99.0662
97.2732
97.6669
98.9497
96.6728
98.2608
97.7372
98.7856
96.6837
96.7063
97.9155
96.5427
98.0291
96.6855
97.9172
96.543
97.8055
97.1219
97.3064
103.319
98.6857
96.8744
97.2486
97.7807
98.1032
97.8817
97.9091
97.8828
97.7547
98.1391
94.2784
95.6523
94.3169
95.656
94.2866
95.6522
94.3253
97.7676
105.104
69.2978
97.0546
98.5236
110.312
108.864
97.1848
97.6009
99.6002
97.8482
97.6188
100.539
97.1544
94.5133
96.8459
95.0667
95.7547
94.5216
96.8509
95.0762
115.232
97.4273
111.041
108.584
101.433
100.868
109.815
101.039
99.1588
103.974
101.156
98.9739
103.72
100.934
95.6476
99.6149
96.2162
97.5662
95.6572
99.4991
96.2256
101.86
104.243
109.61
104.249
101.427
106.851
114.654
105.182
101.253
106.48
101.884
101.402
106.11
103.896
96.022
99.8178
95.8504
99.9249
96.0177
99.7641
95.8563
100.286
99.8023
98.9322
101.092
99.3119
100.345
98.6689
99.345
100.704
99.4635
101.958
100.675
99.2719
99.3604
95.8734
98.9409
95.7968
99.8861
95.8802
98.9507
95.8057
99.0124
101.278
101.68
98.3277
98.9882
100.188
101.308
98.8284
99.1647
99.3373
98.967
99.1587
99.3181
98.8739
95.7416
98.8539
95.5132
99.0448
95.7492
98.8308
95.5205
101.918
100.082
100.413
99.2715
100.223
101.202
100.812
99.1349
99.3506
99.5413
99.5473
99.3129
99.5604
99.1427
95.5411
98.3166
95.3683
99.2951
95.5547
98.3436
95.3644
100.397
104.014
103.108
100.453
100.718
100.253
100.966
99.2696
99.4175
97.8126
99.2394
99.3886
97.1546
100.152
95.2369
96.3135
94.886
97.8208
95.2456
96.2024
94.8951
98.8344
95.7331
98.6363
99.4432
98.719
95.622
98.2452
98.7616
98.5001
100.222
99.1805
98.5006
99.3563
98.7469
94.6082
95.7891
94.4774
96.321
94.6174
95.7881
94.4858
98.7417
98.3414
97.8248
97.8876
98.1843
99.0979
97.7953
98.1254
98.0616
98.1991
98.0576
98.0072
98.2104
98.0855
94.3808
95.8115
94.3262
95.8869
94.3892
95.812
94.3344
97.9947
97.0548
97.3095
97.8084
98.1251
97.1411
97.8591
97.7686
98.1378
97.8835
97.8837
97.7632
97.8863
98.1381
94.2854
95.6528
94.3241
95.6567
94.2852
95.6533
94.3238
96.9933
102.689
101.863
97.4922
97.0535
102.391
101.284
97.135
97.5629
97.353
97.5571
97.167
97.553
96.1207
94.5202
96.8317
95.0761
95.7478
94.5195
96.8345
95.0763
99.9609
107.342
103.612
102.302
104.277
99.8709
106.698
101.394
99.1128
102.944
102.877
100.628
99.1208
103.419
95.6562
99.4769
96.2243
97.5362
95.656
99.4673
96.2245
101.552
101.286
113.793
111.027
100.321
101.003
128.816
102.263
101.274
106.078
100.831
103.704
101.3
104.67
96.0143
100.04
95.8546
99.9368
96.0149
99.8386
95.8557
99.0229
100.278
98.5097
101.413
99.0868
99.5433
102.995
99.3221
100.654
99.1259
101.194
99.2923
100.602
99.4704
95.8772
98.9517
95.8027
99.8857
95.8775
98.9467
95.8025
99.104
103.109
101.47
98.5166
98.8122
101.23
102.508
98.8044
99.1799
99.2273
98.8023
98.7757
99.1544
99.2755
95.7464
98.8526
95.5173
99.0463
95.7469
98.8561
95.5182
101.178
101.65
100.787
99.2229
101.062
105.504
105.425
99.2334
99.3094
99.5451
99.2447
99.1397
99.3592
99.5264
95.5531
98.349
95.3618
99.1962
95.5512
98.3488
95.362
100.804
100.283
101.091
100.481
100.928
100.332
101.564
100.129
99.4436
96.81
99.2163
99.7309
99.4021
99.8645
95.2438
96.208
94.8953
97.8264
95.2431
96.2633
94.8954
98.6771
95.2773
98.1563
103.236
99.0354
103.212
98.5681
98.3789
98.4456
99.004
99.1178
98.1169
98.444
99.143
94.6169
95.7849
94.4849
96.1892
94.6166
95.7818
94.4849
98.1334
97.6567
97.7568
97.9596
98.0562
97.6718
97.6526
98.1324
98.0499
98.1917
98.0412
98.1326
98.0592
98.1936
94.3879
95.8128
94.3332
95.8897
94.3877
95.8127
94.3333
98.1903
96.9535
98.3984
98.4408
98.2689
99.0933
97.2837
97.7571
98.1405
97.8578
97.8757
97.7613
97.8732
98.1358
94.2863
95.6535
94.3248
95.6558
94.278
95.6535
94.3164
97.1903
100.019
101.237
97.9696
97.727
99.014
102.266
97.35
97.5267
96.6746
97.843
97.3513
97.5448
96.751
94.5202
96.8289
95.077
95.7503
94.5114
96.8415
95.068
102.973
98.4008
100.65
106.876
103.391
97.6849
102.048
100.846
99.1569
102.451
99.6072
100.833
99.2046
102.361
95.6571
99.4914
96.2261
97.5983
95.6476
99.5935
96.2165
99.8422
100.999
108.674
108.113
100.948
100.119
108.478
101.384
101.012
103.245
100.485
102.362
100.815
102.875
96.0188
100.008
95.8582
99.9023
96.0235
99.8326
95.8504
99.049
99.4888
100.682
102.505
100.343
99.425
103.363
99.3586
100.589
100.151
101.212
99.372
100.667
100.187
95.881
98.9459
95.8057
99.9169
95.8734
98.9359
95.7964
98.8669
102.166
98.2438
98.4135
97.3454
99.4435
98.4731
98.8836
99.0844
99.0803
99.0385
98.8639
99.0682
99.9203
95.7503
98.8573
95.5219
99.0348
95.7429
98.8583
95.5135
100.589
102.534
102.417
100.155
101.015
102.036
107.896
99.2048
99.3315
99.3355
99.3397
99.1287
99.3481
99.3289
95.5527
98.3434
95.3648
99.1368
95.5406
98.3166
95.3688
100.033
103.671
99.7406
99.428
102.109
103.567
101.426
99.3376
99.3264
104.902
99.4194
99.3958
99.4173
104.999
95.2444
96.2724
94.895
97.8973
95.2363
96.3265
94.8851
98.9987
101.355
98.4099
98.1011
98.8871
104.059
98.6065
98.533
98.3728
98.1703
98.4327
98.5414
98.3605
98.7099
94.617
95.7821
94.486
96.2505
94.6077
95.7846
94.4778
98.0629
97.9003
98.3932
98.3806
98.1181
103.082
98.1788
98.1278
98.0572
98.2001
98.0185
98.139
98.077
98.2027
94.3888
95.8118
94.3345
95.8891
94.3801
95.8112
94.3263
96.8845
97.1938
96.2215
96.3858
96.2303
96.9759
97.0855
97.4729
97.8416
96.9813
97.8197
97.8384
96.9886
97.4682
97.2648
96.2309
96.7167
96.0286
96.2334
96.702
97.3678
97.7688
97.9072
98.1497
97.8762
97.8718
97.7615
98.16
96.8607
96.3797
97.0733
96.2243
96.225
96.8621
97.0627
97.4825
97.8091
97.8308
96.9939
97.835
96.9872
97.4851
97.253
96.0242
96.2294
96.6788
96.2272
96.6991
97.2412
97.1815
97.3445
96.575
96.2658
97.286
96.5614
97.1913
97.1248
108.214
97.4544
100.925
97.7967
97.4685
97.1705
98.28
97.1093
98.4281
97.1586
96.8858
98.4537
98.2769
97.1837
97.8146
97.5644
96.9871
97.6108
105.495
97.1765
97.1945
96.2689
97.2049
96.514
97.2379
96.5623
97.1431
97.1973
98.2433
98.1219
97.5809
99.0056
97.5093
97.1913
98.2031
97.0878
96.7618
98.3493
96.8169
98.3904
98.1343
100.754
100.05
99.7015
97.8889
100.073
99.7135
100.737
101.431
116.777
101.11
103.557
114.222
101.14
101.408
101.565
100.239
101.073
100.224
100.288
101.069
101.554
100.735
100.799
99.1013
102.921
99.0782
103.116
100.784
100.755
97.8782
100.078
99.7395
100.083
99.7362
100.759
101.143
105.148
113.419
101.055
115.538
101.077
101.083
101.54
100.228
100.249
101.059
100.26
101.068
101.504
100.998
100.642
100.204
100.402
100.58
100.222
101.001
100.157
106.115
99.9683
110.084
105.151
99.9638
100.91
100.973
100.372
99.845
99.7641
100.38
99.7933
100.995
103.273
102.396
101.016
104.873
101.09
106.348
103.678
100.938
100.399
100.589
100.198
100.603
100.218
101.065
100.148
101.178
106.349
99.9851
105.315
99.9779
100.114
100.997
99.7856
100.372
99.7713
100.377
99.7874
100.999
99.5039
100.315
99.4054
100.058
100.314
99.4062
99.5036
99.7302
99.5005
99.193
99.7039
99.5042
99.1537
99.8099
99.3816
99.3366
99.086
98.9799
99.3199
99.0314
99.608
99.2649
101.739
100.628
99.1958
100.723
99.2266
99.3267
99.5121
100.129
100.308
99.3904
100.296
99.4061
99.4999
99.6872
99.6932
99.5114
99.1885
99.5211
99.1597
99.6695
99.3824
98.9971
99.3418
99.0508
99.3405
99.0343
99.3917
98.8417
99.0557
98.8675
99.0825
99.0053
98.8494
98.8292
99.084
99.2701
99.4097
100.02
98.526
99.3473
99.0845
98.9946
99.0014
99.1172
98.9771
98.9938
99.0676
98.8528
98.8154
98.9639
99.1986
99.2363
99.1716
99.2908
98.786
98.8346
99.0953
99.0482
98.8523
99.0064
98.88
98.8064
99.0751
99.8548
98.4839
99.3132
98.5807
99.3505
99.0554
98.8177
98.9857
99.0261
99.0585
98.9964
99.0722
98.9515
99.017
99.1082
98.9636
99.0423
99.1039
98.9667
99.0127
99.2757
100.143
99.0417
99.014
100.132
98.9764
99.2807
99.2211
99.1188
98.9246
98.8749
99.1396
98.8945
99.2395
99.1008
99.1981
99.3193
99.4887
99.3115
99.4614
99.1086
99.0189
99.0485
99.0818
98.9558
99.0874
98.9635
99.0255
99.2693
99.035
100.149
98.9882
100.141
98.983
99.2571
99.2227
98.8755
99.1343
98.8948
99.1466
98.8936
99.2266
98.7645
99.1001
98.3917
98.9102
99.1013
98.4013
98.7659
100.569
103.874
99.4716
99.1515
101.801
98.9808
104.307
99.2287
97.9259
98.6052
97.402
97.9839
98.622
99.2344
99.2851
99.2671
99.4159
96.8467
99.4317
96.8745
99.9596
98.7651
98.9161
99.1058
98.4252
99.118
98.415
98.7666
101.462
99.1584
100.526
99.516
100.844
99.1079
102.465
99.1533
97.395
97.9961
98.6145
97.9817
98.6269
99.0717
98.3423
98.639
97.3229
97.5749
98.6625
97.0092
98.3177
98.2167
99.0371
98.2058
98.9772
99.0184
98.1993
98.21
97.8477
97.0285
97.5132
96.7169
96.9014
97.398
97.8684
98.7595
99.1355
98.4776
98.9714
98.5008
99.1937
98.7376
98.5045
97.5403
98.7761
97.4832
98.7027
97.0828
98.5364
98.2257
98.9764
99.0515
98.1988
99.0282
98.2425
98.2302
97.8274
96.7383
96.9007
97.3347
96.8786
97.4043
97.8116
97.4846
97.8683
96.5255
96.6914
97.7565
96.5313
97.6026
98.1052
98.1147
98.4949
97.9161
98.1276
98.0765
98.3855
97.403
96.51
97.4595
96.5551
96.5181
97.5358
97.433
98.1362
98.059
98.035
98.1928
98.0457
98.2002
98.1277
97.4515
96.6783
97.7646
96.5255
97.7951
96.5251
97.4401
98.1229
97.9162
98.1147
98.368
98.1255
98.126
98.3605
97.3672
96.551
96.5088
97.3783
96.5112
97.3673
97.4029
96.8524
97.0724
96.221
96.3749
96.8537
96.2203
97.0726
97.4956
97.8338
96.9913
97.7908
97.4895
97.8413
96.9889
97.2266
96.2252
96.6511
96.0128
97.2249
96.2225
96.6563
97.7732
97.8776
98.144
97.8662
97.8788
97.7711
98.142
96.8535
96.3756
97.0728
96.2207
96.2204
96.8567
97.0703
97.4931
97.7803
97.8175
96.956
97.8419
96.9933
97.4821
97.2254
96.0142
96.2254
96.5842
96.2218
96.667
97.2192
97.024
97.211
96.5371
96.2511
97.1568
97.2093
96.4904
97.2676
98.0296
97.6596
97.9407
97.2257
98.0397
97.7308
98.0936
96.7929
98.387
97.1246
98.1799
96.7824
98.3834
97.2724
97.597
97.5146
96.4913
97.5257
96.3287
97.2092
97.1687
96.2339
97.2692
96.479
97.2214
96.568
97.0193
97.3679
98.6643
98.1236
97.8288
98.0749
97.787
97.4321
98.1598
97.1128
96.7144
98.3932
96.7769
98.386
98.1297
100.721
100.071
99.6699
97.9341
100.737
100.061
99.6763
100.802
99.8825
101.037
103.224
100.903
100.191
101.018
101.51
100.219
101.05
100.225
101.494
100.208
101.038
100.701
99.6962
99.1409
102.75
99.127
102.283
100.86
100.711
97.9293
100.02
99.6756
100.043
99.6809
100.697
101.008
102.004
103.493
100.963
101.578
100.994
100.8
101.498
100.228
100.211
101.011
100.224
101.024
101.414
100.67
100.654
100.189
100.395
101.286
100.619
100.196
100.765
109.461
99.9967
101.702
100.192
110.34
100.02
100.483
100.365
99.7723
99.7313
100.728
100.36
99.8195
102.384
100.497
101.349
103.95
101.295
104.573
102.52
100.559
100.397
100.647
100.144
100.639
100.176
100.24
100.837
101.739
106.929
100.062
108.336
100.043
100.337
102.478
99.7411
100.339
99.8154
100.35
99.8035
99.7812
99.5178
100.344
99.4518
100.073
99.5182
100.297
99.3637
99.6902
99.4888
99.1845
99.7897
99.6706
99.5146
99.2089
99.4334
99.3658
99.0655
98.9813
99.4304
99.3584
99.05
99.3183
101.315
100.588
99.4732
100.598
99.4911
99.323
99.5137
100.102
100.312
99.396
100.321
99.4576
99.4966
99.6984
99.5856
100.024
99.1296
99.4126
99.1527
99.7018
99.45
99.0279
99.355
99.0665
99.404
99.0496
99.4486
98.8014
99.0223
98.93
99.0695
98.831
99.0227
98.8251
99.1064
98.5306
99.2904
99.8576
99.0249
98.5397
99.2923
98.9976
98.9923
99.0595
98.9916
98.9483
98.9997
99.0593
98.8366
98.8096
99.0597
100.726
99.0842
100.678
98.8529
98.8054
99.133
99.0222
98.8444
99.0218
98.9471
98.7829
99.0451
99.8086
98.4973
99.2783
98.5098
99.29
98.9975
98.999
98.9932
99.0189
99.0642
98.9961
99.0565
99.0284
99.0422
99.1012
98.9563
99.0699
99.0323
99.1092
98.9637
99.2444
100.192
98.9781
99.0417
99.2525
100.122
98.9837
99.2141
99.1303
98.8835
98.8631
99.2349
99.1394
98.9023
99.4682
99.3074
99.3662
99.4364
99.3663
99.5125
99.1228
99.0448
99.102
99.0858
98.9594
99.1098
98.9674
99.055
99.2244
97.9423
105.255
99.0825
100.454
98.9174
99.2399
99.2102
98.8618
99.1143
98.9453
99.1351
98.8912
99.2294
98.7916
99.1129
98.4379
98.913
98.7868
99.1042
98.4368
99.1853
99.9589
99.0167
99.6007
99.0329
99.9754
99.3864
98.9819
98.0288
98.6072
97.3907
98.9909
97.8569
98.6202
99.2343
99.1377
99.4825
106.739
99.4122
98.798
99.6956
98.7884
98.9105
99.103
98.4098
99.1011
98.4348
98.8103
98.9574
98.9197
108.926
97.9527
104.106
99.6656
98.7868
99.2872
97.3644
97.7496
98.6223
98.9047
98.6377
99.0023
97.9824
98.3956
96.5053
97.4604
97.1702
98.468
96.8003
98.2568
99.012
98.1868
98.969
98.2577
98.9375
98.1899
97.799
96.9327
97.3457
96.6744
97.8225
96.9449
97.3777
98.5904
99.05
98.3887
99.2504
98.4232
98.658
98.5354
98.5634
97.7654
98.5907
97.1567
98.6432
97.3367
98.4429
98.2479
98.9775
98.6687
98.1619
98.8141
98.1896
98.2676
97.7748
96.6699
96.8907
97.4044
96.8851
97.3995
97.829
97.4205
97.738
96.5208
96.688
97.4255
97.7063
96.5196
98.1186
98.1095
98.3731
97.9309
98.1472
98.1072
98.3757
97.3695
96.5031
97.3675
96.5384
97.3688
96.5029
97.3624
98.1314
98.0438
98.0568
98.1939
98.067
98.1912
98.1404
97.4144
96.6927
97.6959
96.5213
97.6941
96.5198
97.4189
98.1698
97.9238
98.1316
98.383
98.1117
98.3316
98.3781
97.3556
96.5371
96.5103
97.3602
96.5057
97.4003
97.3612
96.8602
97.0796
96.2248
96.3838
96.8635
96.2251
97.0878
97.4718
97.8084
97.051
97.744
97.4749
97.8154
97.0181
97.2357
96.2301
96.6323
96.0388
97.2275
96.2312
96.6491
97.7501
97.8722
98.1082
97.8841
97.8801
97.763
98.1237
96.8767
96.3892
97.1988
96.222
96.2302
96.987
97.1112
97.4568
97.732
97.8149
96.9784
97.8182
96.9941
97.4512
97.2539
96.0376
96.2346
96.7206
96.238
96.6865
97.3608
97.281
97.3365
96.6554
96.1969
97.3147
97.3498
96.5044
97.5086
98.0357
97.8904
98.1474
97.4839
98.0508
97.9056
98.1209
96.737
98.402
97.0914
98.1176
96.7835
98.4107
97.311
97.5553
97.5482
97.0332
97.5445
96.7927
97.2462
97.219
96.2152
97.3455
96.5554
97.3335
96.4716
97.1605
97.5148
98.0707
98.0983
97.9161
97.9997
97.9071
97.5079
98.1205
97.0968
96.8594
98.4058
96.8056
98.4097
98.1527
100.743
100.014
99.6477
97.9144
100.7
100.028
99.6143
100.598
99.6481
100.948
100.174
100.98
99.8121
100.931
101.387
100.201
100.999
100.223
101.399
100.227
100.994
100.889
99.6408
99.1552
102.282
99.1623
102.297
100.905
100.747
97.9118
100.024
99.6877
100.037
99.625
100.741
100.623
100.227
100.163
100.899
100.043
100.908
100.652
101.393
100.216
100.18
101
100.238
100.998
101.367
100.137
100.651
100.129
100.41
100.329
100.637
100.138
100.822
108.255
100.073
102.856
100.468
98.5629
100.127
99.6072
100.336
99.8292
99.7123
99.4013
100.344
99.8284
101.051
100.463
100.904
103.175
100.953
102.991
110.295
100.284
100.412
100.631
100.135
100.631
100.142
100.114
99.9011
101.601
98.2663
100.133
97.6822
100.117
100.175
99.6869
99.7168
100.349
99.8666
100.349
99.8317
99.7069
99.4858
100.306
99.4416
100.064
99.4996
100.302
99.3987
99.6948
99.8013
99.0603
99.8417
99.6961
99.9537
99.0566
99.4556
99.4031
99.0602
99.0036
99.448
99.36
99.0458
99.5712
101.267
100.717
99.485
100.631
100.408
99.4622
99.5227
100.064
100.303
99.4306
100.304
99.3962
99.5671
99.9876
99.2868
100.984
99.1099
100.212
99.1044
99.8459
99.4386
99.0064
99.4082
99.1116
99.3651
99.0773
99.4472
98.7834
99.0306
98.8832
99.0736
98.7846
99.0242
98.8421
98.9284
98.7316
99.2587
99.6993
98.9722
98.371
99.2372
98.9354
98.9924
99.0734
98.976
98.9422
98.9962
99.0451
98.8883
98.9251
99.1316
99.4717
99.1562
99.7523
98.9
98.7926
99.0755
99.0143
98.8854
99.0181
98.8408
98.8385
98.8983
99.726
98.4591
99.3703
98.5169
99.2328
98.8833
98.9845
98.9777
99.0013
99.0473
99.0085
99.0594
98.9484
99.064
99.1213
98.9622
99.0879
99.0561
99.1351
98.9653
99.2576
99.0329
98.9774
101.392
99.2583
99.4727
98.962
99.2023
99.1039
98.9232
98.8629
99.2006
99.1151
98.9672
99.1583
99.3245
99.3518
99.3045
99.3574
99.3021
99.1579
99.0643
99.1197
99.1994
98.9776
99.1964
98.9767
99.0714
99.2459
102.151
99.6623
98.841
99.0722
98.8417
99.2319
99.2145
98.8623
99.1111
98.9193
99.1219
98.9311
99.2172
98.8132
99.1101
98.3422
98.911
98.8039
99.1057
98.3121
100.457
101.237
97.8188
98.8855
101.113
101.972
97.5037
99.1387
97.739
98.613
97.2789
99.026
98.0403
98.628
99.0923
99.3309
99.3608
106.279
99.2705