/*--------------------------------*- C++ -*----------------------------------*\
| =========                 |                                                 |
| \\      /  F ield         | OpenFOAM: The Open Source CFD Toolbox           |
|  \\    /   O peration     | Version:  5.0                                   |
|   \\  /    A nd           | Web:      www.OpenFOAM.org                      |
|    \\/     M anipulation  |                                                 |
\*---------------------------------------------------------------------------*/
FoamFile
{
    version     2.0;
    format      ascii;
    class       surfaceScalarField;
    location    "1.3";
    object      phi;
}
// * * * * * * * * * * * * * * * * * * * * * * * * * * * * * * * * * * * * * //

dimensions      [0 3 -1 0 0 0 0];

internalField   nonuniform List<scalar> 
23560
(
4.6345e-10
-5.14386e-09
1.08819e-08
-1.72742e-09
-8.19216e-09
2.88113e-10
-4.54568e-10
7.6145e-09
-1.25681e-09
-8.62988e-10
-5.39114e-10
-3.47982e-10
6.42432e-10
-2.8436e-10
-1.63917e-09
-2.1887e-09
7.83517e-11
8.18953e-10
9.1253e-13
1.08911e-09
7.50738e-10
1.75705e-10
-6.7088e-10
-1.06836e-10
-1.11412e-08
-2.05858e-08
6.54519e-08
-3.1539e-08
-1.0116e-10
3.22011e-10
9.69721e-11
-1.00925e-10
-3.38099e-10
1.18484e-10
-5.50916e-11
2.20344e-10
-3.08558e-11
1.89536e-10
7.32286e-12
-8.66404e-12
-2.9783e-11
-5.94582e-11
-5.70019e-11
1.34918e-09
-1.65426e-11
-3.20853e-11
-2.37247e-10
-2.35723e-10
-4.08174e-10
-4.05081e-10
1.36694e-09
-1.35225e-11
-7.07187e-13
1.37621e-09
-7.83319e-12
3.42497e-13
1.38068e-09
-4.61486e-12
-3.53799e-14
1.38393e-09
-2.65958e-12
-3.61844e-14
1.38702e-09
-2.54584e-12
3.85982e-13
1.38645e-09
-1.23036e-12
-4.29322e-13
1.38685e-09
-5.43862e-13
1.08495e-13
1.3876e-09
-9.64481e-13
7.10783e-13
1.3878e-09
1.04958e-14
-1.08072e-13
1.38775e-09
-1.84678e-13
-1.95098e-13
1.38827e-09
-4.64383e-13
1.75868e-13
1.38815e-09
2.09535e-14
-7.19422e-14
1.38825e-09
1.59622e-13
6.55953e-13
1.38852e-09
-2.52835e-13
2.31301e-13
1.38816e-09
1.14483e-13
1.64001e-13
1.38814e-09
-1.15691e-13
6.24227e-14
1.38845e-09
-1.05632e-12
6.16445e-13
1.3887e-09
-1.9416e-12
3.33139e-13
1.38849e-09
-4.92943e-13
6.84703e-13
1.38841e-09
1.81768e-13
-1.62458e-14
1.38827e-09
-1.26206e-13
-1.05027e-12
1.3885e-09
2.69722e-13
-7.31679e-13
1.38763e-09
-9.2503e-13
3.7281e-12
1.38785e-09
-7.91695e-13
2.8011e-12
1.38801e-09
-7.71178e-13
1.3187e-13
1.38874e-09
-2.59044e-12
1.84538e-12
1.38835e-09
2.66982e-13
2.3588e-13
1.38806e-09
7.26004e-14
-3.84527e-13
1.3873e-09
4.09666e-13
-4.28153e-13
1.38697e-09
8.42049e-13
-5.39056e-13
1.38944e-09
-4.78366e-12
1.66301e-12
1.3885e-09
5.72159e-13
1.59253e-13
1.38817e-09
9.60003e-14
2.04247e-13
1.38834e-09
-1.00787e-13
-2.06369e-13
1.38961e-09
2.38738e-12
-1.02766e-13
1.38762e-09
3.96975e-12
-2.11456e-12
1.388e-09
-6.52934e-13
-2.37533e-14
1.38821e-09
-6.20558e-13
3.2153e-13
1.38833e-09
-1.41632e-13
6.98863e-14
1.38828e-09
-5.9096e-14
1.82926e-13
1.38771e-09
-5.241e-13
8.2289e-13
1.26454e-12
-1.15036e-12
2.94367e-09
-2.33873e-09
-5.55786e-09
-2.0059e-09
4.53369e-09
-1.46135e-09
-2.93094e-09
-6.87439e-09
-2.15499e-09
-8.09597e-09
-1.13785e-08
-3.87061e-09
-3.01749e-09
-1.98765e-08
2.20115e-08
4.27188e-08
-2.67921e-09
-3.37904e-09
2.75332e-09
1.29898e-09
6.3928e-10
2.28063e-10
8.20752e-09
-4.57073e-09
-4.50412e-09
-1.83922e-09
5.63774e-09
-1.78216e-09
-3.82934e-10
9.88785e-10
-5.25329e-10
-9.35577e-11
-7.59927e-10
-3.19964e-10
-1.35719e-09
4.3374e-10
2.80177e-10
-2.23425e-10
1.87831e-10
-1.17576e-10
-1.27009e-10
-3.774e-11
-2.27852e-13
1.81847e-10
3.56438e-11
-3.39112e-11
-7.72607e-11
-6.77724e-11
-1.1442e-12
-1.8167e-13
1.00617e-12
-2.58793e-13
1.36045e-09
-7.08933e-11
-2.61478e-11
-2.40856e-10
-2.37364e-10
-4.09213e-10
-3.92509e-10
1.37282e-09
-2.54803e-11
-3.86917e-13
1.38047e-09
-1.59333e-11
4.82924e-13
1.38382e-09
-8.0273e-12
8.21953e-14
1.38599e-09
-4.86446e-12
4.24741e-14
1.3866e-09
-2.85136e-12
-3.05068e-13
1.38717e-09
-1.7313e-12
-4.50351e-14
1.38763e-09
-9.68635e-13
-1.59412e-14
1.38736e-09
-2.54801e-13
-4.09041e-13
1.38796e-09
-7.03021e-13
1.27032e-13
1.38812e-09
-7.98796e-13
4.58461e-13
1.38835e-09
-6.39534e-13
-4.76244e-14
1.38814e-09
1.65667e-13
6.3487e-14
1.38838e-09
-9.67349e-13
8.89657e-13
1.38775e-09
2.71068e-13
1.00035e-13
1.38863e-09
1.03755e-12
-1.80557e-12
1.389e-09
7.72657e-13
-1.25971e-12
1.38877e-09
-3.24312e-14
-8.06708e-13
1.3879e-09
-1.60939e-13
-9.21967e-13
1.38816e-09
1.13903e-13
-8.75805e-13
1.3883e-09
1.94731e-13
-1.58946e-13
1.38754e-09
-8.76925e-13
1.50587e-12
1.38758e-09
-2.29439e-13
4.47276e-13
1.38804e-09
3.66755e-13
-1.76335e-12
1.38822e-09
6.17473e-13
-1.59432e-12
1.38896e-09
-3.96368e-12
2.43492e-12
1.38895e-09
-4.4156e-12
1.82608e-12
1.38804e-09
1.27689e-12
-1.03854e-13
1.38831e-09
-4.26763e-14
-1.63228e-13
1.38878e-09
-4.43093e-14
-2.91419e-14
1.38909e-09
1.97162e-13
3.3e-13
1.38692e-09
-1.41657e-12
-1.20656e-12
1.38752e-09
2.71418e-13
-3.05653e-13
1.38747e-09
5.83832e-14
7.83647e-14
1.38708e-09
2.92207e-13
-5.21879e-15
1.38779e-09
9.14821e-13
7.57262e-13
1.38937e-09
3.10154e-13
2.07659e-12
1.38866e-09
-8.29124e-14
1.3414e-13
1.38823e-09
1.37374e-13
-3.31529e-13
1.38838e-09
-2.13939e-12
1.83819e-12
1.38807e-09
3.56278e-13
-1.00135e-13
1.38819e-09
2.00972e-13
-8.5331e-13
-2.39122e-13
1.20653e-12
1.55506e-09
-1.94341e-10
-1.34205e-09
6.28682e-12
-1.68536e-10
2.34474e-09
1.54008e-08
9.78238e-10
3.37364e-09
2.25763e-09
6.22218e-09
-2.34054e-10
4.7432e-09
-3.47821e-09
-3.55591e-09
4.95896e-10
7.33895e-09
-3.58418e-09
8.86012e-09
-3.64516e-08
-1.24834e-08
-5.43592e-09
2.31072e-08
-5.35647e-09
-6.26476e-09
4.60573e-09
5.14787e-09
2.58189e-10
-3.25886e-10
-8.03345e-10
-2.6213e-10
-2.17989e-10
-7.28474e-10
-7.40087e-11
-1.3352e-09
-2.12827e-10
-3.00797e-10
-1.03802e-09
-2.32831e-09
3.87995e-09
4.06983e-10
4.77302e-09
-1.71538e-09
-1.00208e-10
-3.36441e-09
-6.5301e-11
6.04862e-12
-1.40808e-11
4.48423e-11
2.84909e-11
1.44658e-09
-7.76809e-12
-2.8353e-11
-2.58671e-10
-2.8513e-10
-4.16837e-10
-4.74034e-10
-1.30336e-11
-1.17187e-11
-2.19204e-11
1.40409e-09
2.13045e-11
-4.23205e-12
1.39583e-09
-7.08307e-12
-5.53256e-13
1.39055e-09
-2.38797e-12
-3.46459e-13
1.38958e-09
-3.37277e-12
-5.24593e-13
1.38906e-09
-2.17048e-12
-1.62402e-13
1.38853e-09
-1.13758e-12
-3.76523e-14
1.38827e-09
-6.71288e-13
-1.55944e-14
1.38894e-09
-9.27295e-13
3.69446e-14
1.38857e-09
-1.94344e-13
-1.2754e-13
1.38857e-09
3.01161e-13
-1.09651e-12
1.3876e-09
5.02157e-13
-1.73708e-13
1.38831e-09
-4.88669e-13
-5.33409e-14
1.38812e-09
-5.24527e-14
-7.23482e-13
1.3887e-09
-2.58337e-13
-5.10866e-14
1.38827e-09
4.42651e-13
1.02313e-12
1.3878e-09
7.3207e-14
1.15518e-12
1.38789e-09
7.26579e-13
-8.5151e-13
1.38802e-09
-2.85401e-13
-8.70046e-15
1.38793e-09
-1.89617e-14
2.08589e-13
1.38769e-09
-1.08265e-13
5.37083e-13
1.3883e-09
7.29797e-13
-2.23122e-12
1.38881e-09
1.06684e-12
-1.81273e-12
1.38865e-09
4.93734e-13
2.46867e-14
1.38966e-09
6.52941e-13
-1.05913e-12
1.38808e-09
-6.58341e-14
-2.33026e-12
1.38748e-09
2.14244e-13
-4.03415e-12
1.38834e-09
3.43829e-13
6.32238e-14
1.3884e-09
-1.6637e-13
5.4146e-14
1.38832e-09
5.03369e-14
-2.3205e-14
1.38814e-09
7.01357e-14
3.00711e-13
1.3875e-09
-3.01637e-13
-4.88248e-13
1.3879e-09
-6.20617e-14
-7.46117e-14
1.38766e-09
3.77896e-13
-8.51617e-14
1.38744e-09
8.93093e-14
4.15252e-13
1.3875e-09
6.57167e-13
1.95785e-13
1.38928e-09
-1.43245e-12
-4.34769e-14
1.38879e-09
3.63901e-13
4.54418e-14
1.38864e-09
1.83453e-13
9.30581e-14
1.38812e-09
3.89256e-13
-2.01068e-12
1.38783e-09
6.75315e-13
-2.63974e-14
1.38771e-09
3.24555e-13
-3.09401e-15
-1.86086e-12
7.99574e-13
-3.30458e-09
2.49794e-09
2.57302e-10
3.57586e-10
-5.62704e-11
6.67282e-10
-2.28281e-10
-1.0735e-08
1.08826e-09
8.31344e-09
3.67798e-09
7.4104e-09
-1.38907e-09
3.11817e-09
-1.52594e-08
6.1199e-09
-5.50848e-10
7.1798e-10
2.371e-09
-1.0822e-09
-1.45593e-09
2.2404e-10
-1.10811e-09
-8.93831e-10
-1.76106e-10
3.24412e-09
-2.35798e-09
9.54945e-10
-2.41593e-10
2.49922e-10
-9.46018e-10
1.0506e-09
-1.03285e-10
7.54596e-10
1.08398e-10
-1.75007e-11
-7.42209e-10
-9.93603e-11
7.72056e-12
7.6107e-12
-2.21296e-11
1.06159e-10
-1.99958e-10
2.01398e-10
-4.21336e-12
-4.99005e-12
1.38291e-09
-8.33614e-12
-2.26535e-11
-2.49738e-10
-2.53489e-10
-4.10578e-10
-4.16791e-10
1.38813e-09
-1.05065e-11
-1.77362e-12
1.38985e-09
-4.82739e-12
7.27421e-13
1.38915e-09
-3.04725e-12
3.70962e-13
1.38891e-09
-2.0384e-12
1.1912e-13
1.38889e-09
-1.08994e-12
-1.01962e-14
1.38869e-09
-4.51289e-13
4.63096e-15
1.3883e-09
-3.91684e-13
-1.18213e-13
1.38838e-09
-3.46745e-13
8.94998e-14
1.38801e-09
4.68276e-14
6.24878e-13
1.38855e-09
1.24437e-13
-1.59375e-13
1.38843e-09
-5.55503e-13
1.86411e-13
1.38871e-09
-1.07639e-13
-2.20799e-13
1.3886e-09
-2.39589e-13
8.09452e-14
1.38823e-09
1.18309e-12
-3.70863e-13
1.38833e-09
-4.23938e-15
-2.44406e-14
1.38826e-09
5.67921e-15
7.7714e-13
1.38815e-09
-1.44879e-13
-3.83238e-14
1.38825e-09
-5.06019e-15
-1.15442e-13
1.38859e-09
7.63825e-13
-1.22669e-12
1.38906e-09
1.10921e-12
-8.58354e-13
1.38801e-09
4.61309e-13
1.6457e-12
1.38816e-09
4.32116e-13
-9.27304e-14
1.38814e-09
3.17452e-13
3.44003e-13
1.3879e-09
-3.83687e-13
5.4398e-13
1.38809e-09
-9.01993e-14
1.07982e-13
1.38841e-09
2.92992e-14
-1.76062e-14
1.38826e-09
5.62885e-15
-3.48625e-14
1.3884e-09
-1.8084e-13
8.25501e-14
1.38833e-09
1.98697e-13
-5.84794e-14
1.38798e-09
-3.10382e-13
3.5008e-13
1.38784e-09
-3.5382e-13
4.22077e-13
1.38809e-09
6.07502e-14
5.76643e-14
1.38817e-09
1.15332e-13
-1.1048e-13
1.38846e-09
5.63164e-13
-2.00434e-13
1.38792e-09
-1.39816e-12
5.04946e-13
1.38823e-09
2.34795e-13
-1.92077e-13
1.38851e-09
4.87139e-14
-1.42962e-13
1.38864e-09
1.85311e-12
-1.59619e-12
1.38727e-09
2.15213e-12
-1.12526e-13
1.38772e-09
-7.10943e-14
-5.23759e-14
-1.94533e-12
3.95244e-13
1.05737e-09
-7.57367e-10
-3.43958e-09
3.33055e-09
1.96208e-09
-6.7366e-09
-9.5174e-10
4.88303e-10
8.69123e-10
9.64832e-10
4.32953e-10
2.97104e-09
-3.48771e-10
3.01227e-10
-3.05989e-10
1.54293e-10
1.9924e-10
-3.33793e-09
-1.13848e-09
9.26406e-09
-1.45826e-09
-1.68631e-10
-1.39529e-09
-8.49484e-10
4.71574e-10
1.35542e-10
-1.2162e-09
-3.06896e-10
2.38975e-09
1.72671e-09
4.84801e-10
-9.68664e-09
5.08538e-09
-3.15395e-10
-3.00554e-10
2.71612e-10
2.71926e-10
7.24121e-11
-9.53804e-11
-1.08193e-10
9.86088e-11
-9.32295e-12
1.14288e-10
-3.56602e-11
2.10368e-10
-5.98438e-12
-5.17136e-12
-3.77912e-11
-6.41434e-11
-6.9334e-11
7.71709e-12
1.40617e-09
-4.97757e-12
-2.40554e-11
-2.62316e-10
-2.61901e-10
-4.29791e-10
-4.31459e-10
1.39924e-09
-9.9365e-13
-2.5824e-12
1.39493e-09
-9.5366e-13
4.45587e-13
1.39166e-09
1.65472e-13
5.86637e-14
1.39107e-09
-2.18948e-12
7.47444e-13
1.39034e-09
-3.11758e-13
-3.02214e-14
1.38887e-09
1.64399e-12
-5.89828e-13
1.38872e-09
-4.8048e-13
2.66988e-13
1.38838e-09
4.24726e-14
-3.60212e-14
1.38812e-09
3.69995e-13
-5.86249e-14
1.38771e-09
2.20807e-13
3.18164e-13
1.38903e-09
-4.06674e-12
2.18635e-12
1.38836e-09
5.54399e-13
9.82419e-15
1.38871e-09
-7.40179e-13
1.4906e-13
1.38856e-09
2.74834e-13
1.05406e-12
1.3886e-09
-7.3171e-14
1.87565e-14
1.3885e-09
2.50919e-13
-1.54389e-13
1.38864e-09
-3.55465e-13
6.39638e-14
1.38865e-09
-8.51618e-15
-1.18241e-14
1.38865e-09
2.32455e-15
7.52052e-13
1.3879e-09
3.25498e-13
1.51971e-12
1.3879e-09
3.38163e-13
1.16941e-13
1.38855e-09
-9.36284e-14
-1.35932e-13
1.38783e-09
1.6172e-12
-5.87413e-13
1.38807e-09
8.44781e-14
-7.14707e-13
1.38812e-09
-1.25797e-13
-2.81698e-14
1.3882e-09
-6.92904e-14
1.03113e-14
1.38816e-09
-4.29708e-14
8.31561e-14
1.38841e-09
-2.83784e-13
-1.56557e-13
1.38758e-09
8.58034e-13
1.62016e-13
1.38796e-09
-4.0589e-13
-2.90767e-13
1.38817e-09
-2.68338e-13
-3.06087e-13
1.38811e-09
2.01806e-13
-9.302e-14
1.38835e-09
5.28433e-13
-6.54239e-13
1.38854e-09
2.86383e-13
8.37946e-14
1.38797e-09
-5.37504e-13
-2.97241e-13
1.38823e-09
-6.2215e-14
3.55807e-14
1.38865e-09
-4.47813e-13
7.02111e-14
1.38889e-09
-1.23755e-12
2.84301e-12
1.38737e-09
3.95551e-12
-2.82083e-13
1.3876e-09
-7.7081e-13
4.69782e-13
-1.87222e-13
-9.16287e-13
-2.6203e-09
1.0948e-09
1.26238e-09
4.54084e-10
-1.89078e-09
-4.0113e-09
-7.80687e-10
2.47132e-09
4.21145e-09
4.38066e-09
4.87568e-10
-5.82072e-09
-6.58194e-10
2.80766e-09
-1.74764e-09
1.10556e-10
4.40093e-10
1.96937e-09
1.54417e-09
-1.52803e-08
-1.78577e-10
-1.05973e-09
-4.02195e-09
4.09019e-09
1.91884e-08
8.37028e-09
-5.18202e-09
1.59625e-09
-4.51328e-09
-1.66632e-09
3.10322e-10
-6.93105e-10
-9.75817e-10
-3.49751e-09
-2.73517e-09
8.65933e-10
1.09842e-09
2.7402e-09
1.87459e-10
-3.77647e-10
2.32343e-11
-2.12407e-10
3.79361e-10
-1.05587e-10
1.79712e-11
6.13895e-13
-5.49714e-11
1.41974e-10
-3.67501e-11
2.13694e-10
-8.23109e-13
-5.22026e-12
3.30292e-12
-3.74276e-11
-6.75242e-11
-6.92522e-11
1.41237e-09
1.01528e-11
-2.5101e-11
-2.64091e-10
-2.64841e-10
-4.35061e-10
-4.38408e-10
1.40257e-09
1.19056e-11
-3.07466e-12
1.39616e-09
5.04606e-12
4.21179e-13
1.3935e-09
3.11489e-12
-2.82461e-13
1.39054e-09
1.53662e-12
-7.59264e-13
1.38933e-09
9.48909e-13
-2.92317e-14
1.38967e-09
7.33966e-13
5.93778e-13
1.38905e-09
4.82271e-13
-3.12935e-13
1.38876e-09
3.0932e-13
4.02979e-14
1.3891e-09
2.21235e-13
-1.84966e-13
1.38917e-09
1.24054e-13
2.4726e-14
1.38768e-09
-1.59914e-13
-2.41488e-12
1.38861e-09
4.64737e-13
-8.41031e-13
1.38805e-09
3.60858e-15
-1.9147e-13
1.38835e-09
1.27624e-13
-1.53043e-13
1.38815e-09
3.35794e-14
9.3171e-14
1.38803e-09
1.22573e-13
2.35111e-13
1.38896e-09
1.06063e-12
-2.35593e-12
1.38896e-09
2.85942e-14
-4.00886e-14
1.38871e-09
2.43441e-13
-8.40872e-16
1.38847e-09
8.44085e-13
-2.89555e-13
1.38727e-09
3.88161e-12
-2.34803e-12
1.38751e-09
-4.07606e-13
6.35758e-14
1.38846e-09
-8.45779e-13
1.49668e-12
1.38827e-09
1.47177e-13
1.16178e-13
1.38822e-09
2.18514e-13
-2.98565e-13
1.38795e-09
7.27111e-13
-5.39303e-13
1.38793e-09
-2.30703e-14
-7.22062e-15
1.38765e-09
-5.37355e-14
3.85925e-14
1.3885e-09
1.38447e-13
-1.39398e-13
1.38821e-09
-5.69513e-13
4.43718e-13
1.38858e-09
-8.1193e-13
1.74843e-13
1.38838e-09
2.5121e-13
1.44582e-13
1.38823e-09
4.73058e-13
1.9359e-13
1.38824e-09
3.62257e-13
-9.19221e-14
1.38754e-09
2.28124e-13
-6.57345e-14
1.38752e-09
-9.0351e-14
4.23802e-14
1.38734e-09
-1.64575e-13
-1.04846e-13
1.38719e-09
1.54132e-12
-2.63162e-12
1.38953e-09
1.20506e-12
4.01791e-13
1.38892e-09
-7.29413e-13
5.66031e-13
-8.49259e-13
1.83423e-12
1.25123e-09
-1.46616e-09
1.63991e-09
-1.4e-09
7.90497e-10
3.59361e-10
2.52375e-09
-1.77775e-09
-1.89586e-09
3.96236e-10
4.83918e-10
-6.58279e-10
-7.82156e-10
5.60281e-10
-2.19514e-09
1.10481e-09
1.91155e-08
2.72287e-09
1.38879e-09
5.11933e-10
2.08487e-09
2.74734e-09
-8.94923e-09
-1.45986e-09
-2.22979e-08
-4.43141e-09
5.24581e-09
2.21981e-09
2.22499e-09
1.51062e-09
-9.37676e-10
-4.33888e-11
2.66333e-09
-3.87741e-09
-1.73226e-11
-7.06429e-10
2.57194e-10
9.93066e-11
3.67252e-10
-9.87151e-11
1.02559e-10
-4.14869e-11
-1.24462e-10
1.62105e-10
-3.67076e-11
-4.94838e-12
1.93e-10
7.66888e-12
8.7324e-12
-3.53764e-11
-6.74627e-11
-6.49065e-11
1.38891e-09
-5.37989e-12
-2.51759e-11
-2.56095e-10
-2.50204e-10
-4.24971e-10
-4.16918e-10
1.39123e-09
1.15268e-11
-1.91115e-12
1.39078e-09
5.01279e-12
5.12379e-13
1.39019e-09
3.73521e-12
-1.78494e-14
1.38951e-09
2.20534e-12
2.55804e-14
1.38908e-09
1.39706e-12
-4.60996e-15
1.38892e-09
8.93111e-13
2.02027e-14
1.38889e-09
5.31377e-13
1.40873e-14
1.38888e-09
3.63304e-13
-2.71661e-14
1.38828e-09
5.57307e-13
2.68881e-13
1.38892e-09
-5.72657e-13
5.81346e-14
1.38855e-09
2.32592e-13
-2.5546e-14
1.38804e-09
2.97772e-14
9.43803e-13
1.38812e-09
3.30014e-14
-1.04294e-13
1.38859e-09
-1.38174e-12
1.02843e-12
1.38864e-09
7.50688e-14
-9.74308e-14
1.38855e-09
3.46709e-13
-1.40292e-13
1.38776e-09
-5.15987e-13
2.36784e-12
1.38819e-09
-3.77669e-13
-3.66505e-14
1.38877e-09
-3.73425e-13
2.97328e-14
1.38698e-09
5.89218e-12
-3.27e-12
1.38832e-09
7.18653e-13
1.80985e-12
1.38841e-09
-5.53964e-13
4.78733e-14
1.38809e-09
-2.26863e-13
-3.09835e-13
1.38818e-09
-4.03002e-14
9.35942e-14
1.38826e-09
4.40022e-14
7.84004e-14
1.38833e-09
-2.33123e-13
8.82546e-13
1.38828e-09
4.98136e-14
-3.38978e-14
1.38823e-09
-1.78216e-14
1.17268e-14
1.38827e-09
3.86908e-13
-2.97838e-13
1.38814e-09
-3.20156e-14
-4.1497e-13
1.38846e-09
-1.48837e-12
3.47008e-13
1.38898e-09
-3.10352e-13
3.48689e-14
1.38784e-09
1.48529e-12
1.17791e-13
1.38766e-09
5.28876e-13
1.35564e-14
1.38742e-09
3.25286e-13
1.38603e-13
1.38759e-09
-2.76075e-13
8.98394e-15
1.38743e-09
-3.34882e-14
2.74232e-14
1.38784e-09
-6.54084e-13
1.78035e-12
1.38827e-09
6.98134e-13
7.21308e-14
1.38869e-09
-1.02536e-13
-1.04313e-12
-1.78483e-13
-1.33512e-12
4.15211e-10
5.47797e-09
-2.42833e-09
-1.04894e-09
4.0829e-10
-4.93671e-10
-2.13956e-09
-5.26876e-10
1.99702e-09
-2.55839e-09
-3.89824e-09
4.98649e-09
1.47713e-09
8.23586e-10
-4.80032e-10
1.60821e-10
-1.98151e-09
2.02219e-10
-1.74936e-09
1.44522e-09
1.35602e-09
7.92885e-10
5.39587e-10
-1.48178e-09
-6.45768e-10
1.83587e-09
-3.26013e-10
-3.49268e-09
2.62859e-09
-1.63961e-10
-7.05473e-10
1.01488e-10
1.23172e-10
6.44775e-10
-1.53419e-10
-9.92262e-12
1.75976e-11
8.91565e-11
5.6588e-11
1.40413e-09
4.11802e-11
-2.80556e-11
-2.59015e-10
-2.43463e-10
-4.36652e-10
-3.99811e-10
-1.30804e-11
-1.65572e-11
-2.05454e-11
-2.81301e-11
1.38858e-09
1.26555e-11
-2.42925e-12
1.3891e-09
1.10397e-11
2.37339e-14
1.38846e-09
5.80178e-12
-1.07071e-13
1.38849e-09
3.53377e-12
2.01644e-13
1.38824e-09
2.46532e-12
-1.6856e-15
1.38818e-09
1.49723e-12
-2.42983e-14
1.38859e-09
4.37659e-13
6.23377e-14
1.3887e-09
4.34776e-13
1.05024e-14
1.3885e-09
1.28214e-13
4.46806e-13
1.38882e-09
2.6544e-13
-1.72041e-14
1.38803e-09
2.47733e-13
-2.49273e-14
1.38825e-09
2.14762e-12
-2.12979e-12
1.38851e-09
-1.02089e-13
-1.27633e-13
1.3888e-09
-6.59257e-13
3.92854e-13
1.38812e-09
1.02622e-12
-1.73107e-12
1.38869e-09
-5.20923e-13
1.99704e-14
1.3876e-09
-1.67355e-12
3.10467e-12
1.38787e-09
-6.38816e-13
-1.55211e-13
1.38775e-09
-1.20996e-13
-1.38873e-13
1.38671e-09
7.23098e-13
-7.37616e-14
1.38856e-09
6.06042e-13
3.43269e-12
1.3885e-09
7.15909e-13
4.89407e-14
1.38916e-09
-3.25546e-12
2.03249e-12
1.38866e-09
1.92971e-13
7.27775e-14
1.38811e-09
7.20258e-13
-2.24299e-13
1.38809e-09
-2.03618e-13
2.65076e-13
1.38836e-09
-2.5505e-13
-2.65888e-13
1.38833e-09
-2.91377e-13
3.6562e-13
1.38821e-09
-2.86068e-13
3.78962e-13
1.38823e-09
-3.7767e-13
7.33822e-13
1.3885e-09
-2.62609e-13
-3.89222e-14
1.38795e-09
-3.88416e-13
-5.62714e-13
1.38744e-09
5.01248e-14
1.47073e-13
1.38833e-09
6.71499e-13
-9.04719e-14
1.38792e-09
9.67299e-13
-3.25378e-14
1.38818e-09
2.36443e-13
-1.75975e-13
1.38781e-09
1.0234e-13
-8.61321e-15
1.38737e-09
3.83471e-13
2.16867e-14
1.38794e-09
-1.13303e-12
-9.42363e-14
1.38777e-09
6.16524e-13
2.52179e-13
1.38915e-09
-3.2973e-12
1.80475e-12
-2.58565e-13
-4.61387e-13
-3.75012e-09
-2.85081e-09
1.87449e-09
4.91741e-09
1.15654e-09
4.57614e-09
4.47578e-09
4.76839e-09
-1.79187e-08
1.48071e-09
4.63952e-10
9.97193e-10
-2.35079e-09
5.54703e-10
1.91214e-09
9.64018e-10
4.78485e-09
-2.84549e-09
-1.22418e-09
-1.79526e-09
2.12416e-09
-1.74222e-10
2.76749e-09
3.58538e-09
4.11511e-09
2.71799e-09
-2.9372e-10
-2.88405e-10
-5.96799e-10
-1.73774e-09
-2.88174e-09
-3.16511e-09
-1.55052e-09
2.18578e-10
-7.97511e-10
-1.79325e-09
-2.24969e-09
2.5787e-11
5.73408e-11
1.3318e-09
7.09201e-10
1.76502e-10
2.46372e-10
-1.48352e-10
2.60202e-10
-5.34723e-10
-3.85232e-11
-7.5098e-13
2.18734e-13
8.53939e-12
3.05161e-11
1.37216e-09
1.42543e-11
-3.05838e-11
-2.4332e-10
-2.43401e-10
-4.14312e-10
-4.13597e-10
1.37638e-09
8.68995e-12
-1.91901e-13
1.38144e-09
6.00045e-12
4.96906e-14
1.38389e-09
3.39858e-12
2.4509e-14
1.38551e-09
2.21463e-12
-2.52207e-13
1.38635e-09
1.83254e-12
-1.83522e-13
1.38737e-09
4.96447e-13
-2.82827e-15
1.38756e-09
3.3619e-13
-7.55487e-14
1.38751e-09
4.59277e-13
4.52675e-14
1.38812e-09
-1.78254e-14
-4.50904e-13
1.38837e-09
-5.17216e-14
7.12952e-14
1.38853e-09
1.53549e-13
-5.28341e-14
1.38847e-09
1.06869e-13
2.09978e-12
1.38837e-09
-1.78682e-13
1.73808e-13
1.38787e-09
-4.31321e-13
2.70315e-13
1.38815e-09
-1.32731e-13
8.81053e-13
1.38758e-09
8.10339e-14
-4.3306e-14
1.38886e-09
7.62285e-14
-3.02806e-12
1.38858e-09
-4.69825e-13
9.56538e-14
1.38804e-09
-4.03801e-13
8.17819e-13
1.38862e-09
-6.28096e-15
1.40177e-13
1.38879e-09
3.29627e-13
9.63782e-14
1.38875e-09
9.8356e-14
6.52147e-13
1.38781e-09
-2.74526e-13
-2.05854e-12
1.38792e-09
1.86881e-13
-1.06208e-13
1.38841e-09
1.07307e-12
-8.56799e-13
1.388e-09
1.03305e-13
8.91648e-14
1.3881e-09
2.22233e-13
-5.84198e-13
1.38803e-09
1.3807e-13
-3.7104e-13
1.38806e-09
-2.63468e-14
-2.91939e-13
1.38856e-09
-4.72453e-13
-4.11558e-13
1.38817e-09
8.44318e-13
-7.28056e-13
1.38821e-09
-3.72672e-13
-6.46892e-14
1.38853e-09
-2.97404e-13
2.40045e-14
1.38798e-09
2.27073e-12
-1.06271e-12
1.38804e-09
9.34506e-13
-2.36889e-14
1.38772e-09
4.99089e-13
4.38093e-14
1.3884e-09
-1.09311e-12
5.16197e-13
1.38852e-09
-1.93319e-15
2.64851e-13
1.38765e-09
-1.70478e-13
-9.79494e-14
1.3879e-09
4.94872e-13
-1.3384e-13
1.38762e-09
8.45724e-13
-3.85895e-12
-1.71963e-12
-4.5888e-14
1.01324e-09
6.31202e-09
-1.35488e-12
5.6428e-10
-1.26311e-09
-4.1762e-10
8.19487e-09
-2.88096e-09
-2.63485e-09
-7.21623e-10
-2.5838e-09
-2.05059e-09
1.2793e-09
5.12605e-10
6.80792e-10
2.72583e-10
7.30525e-10
6.03556e-10
7.96066e-10
8.57372e-11
1.57042e-09
5.35788e-10
8.42715e-11
4.84958e-10
1.22425e-09
-4.78534e-10
-9.37431e-11
-4.0911e-10
-8.15642e-11
-2.85058e-11
-2.34383e-10
1.01595e-10
5.15728e-12
-9.65566e-11
1.67027e-10
-3.84365e-11
-3.71907e-11
-3.23793e-11
6.41227e-12
1.99923e-10
3.29832e-12
-2.03728e-11
-3.2149e-11
-6.23553e-11
-6.23767e-11
1.36837e-09
-3.37551e-11
-2.44606e-10
-2.45115e-10
-4.21861e-10
-4.23053e-10
1.37428e-09
-6.34268e-13
1.37874e-09
-1.08656e-13
1.38245e-09
-7.94427e-16
1.38406e-09
1.45897e-13
1.3849e-09
1.31082e-13
1.38721e-09
4.67642e-13
1.38773e-09
-1.1059e-13
1.38797e-09
-2.38653e-13
1.3879e-09
-2.33793e-14
1.3881e-09
2.04986e-13
1.38815e-09
-1.16071e-13
1.3884e-09
3.37471e-14
1.38791e-09
-5.9897e-13
1.3882e-09
-9.74645e-13
1.38811e-09
2.49407e-14
1.3882e-09
5.52222e-14
1.38816e-09
2.29691e-13
1.38835e-09
6.81262e-13
1.38844e-09
-5.06616e-13
1.3883e-09
2.80457e-14
1.38871e-09
1.21581e-12
1.3888e-09
2.20218e-13
1.38843e-09
-1.86715e-12
1.38754e-09
-1.17285e-12
1.38798e-09
1.08319e-12
1.38811e-09
-3.16549e-14
1.38781e-09
3.86867e-13
1.38801e-09
5.20291e-13
1.38835e-09
3.92803e-13
1.38793e-09
-4.93025e-14
1.38864e-09
7.66988e-13
1.38831e-09
1.43513e-13
1.38845e-09
-4.17445e-13
1.3896e-09
1.24357e-12
1.38746e-09
-4.99315e-13
1.38819e-09
-9.33177e-14
1.38789e-09
-5.09437e-13
1.38823e-09
-2.59185e-13
1.38812e-09
-1.21239e-13
1.38878e-09
-2.51292e-13
1.38777e-09
2.13208e-12
9.35409e-14
1.07897e-08
-6.13114e-09
5.52394e-09
3.06333e-09
-3.12256e-09
3.34559e-09
1.091e-09
1.19145e-09
5.73629e-09
7.19318e-10
1.27613e-09
8.94544e-10
1.43672e-09
9.70527e-10
1.11307e-09
4.00915e-09
4.7866e-10
9.06717e-10
-3.05301e-09
4.83063e-09
1.28559e-09
1.90054e-09
1.17589e-08
2.21546e-08
-6.25841e-08
2.4302e-08
-2.29531e-09
-7.12026e-09
-1.1913e-09
4.69448e-09
2.42979e-10
1.20072e-09
4.93789e-10
9.08346e-10
-2.97981e-09
3.44789e-09
4.59156e-09
-5.18746e-09
-2.3022e-09
1.86224e-10
1.25026e-10
-2.45367e-10
1.83325e-09
-1.42406e-10
6.8202e-12
5.69443e-10
2.491e-11
-1.16964e-12
-1.36285e-10
-1.48614e-10
-1.4164e-10
2.25884e-09
-1.87379e-11
3.2163e-11
-5.71373e-10
-5.674e-10
-5.71372e-10
-5.67411e-10
2.28224e-09
-1.67782e-11
5.67217e-13
2.29618e-09
-9.63861e-12
-1.07122e-13
2.30247e-09
-5.52704e-12
-6.66005e-14
2.30739e-09
-3.05221e-12
-4.70457e-13
2.31196e-09
-2.05704e-12
-8.41744e-13
2.31121e-09
-1.38256e-12
4.96632e-13
2.31175e-09
-5.69268e-13
2.02528e-13
2.31281e-09
-1.17078e-12
1.24947e-12
2.31305e-09
-2.07474e-13
6.76465e-14
2.31306e-09
-1.95348e-13
-1.30575e-13
2.31377e-09
-4.56883e-13
-1.08432e-13
2.3137e-09
8.94597e-14
-3.6559e-13
2.31386e-09
3.66002e-13
-6.02751e-13
2.31395e-09
-5.81801e-13
2.07146e-13
2.31371e-09
3.75304e-13
-6.57934e-14
2.3137e-09
3.25389e-14
-2.74716e-14
2.31408e-09
1.23236e-12
-4.43284e-13
2.3144e-09
-2.55656e-12
9.53894e-13
2.31429e-09
8.68443e-13
3.88857e-13
2.31427e-09
2.21807e-13
-5.20628e-14
2.31365e-09
-3.2649e-13
3.29737e-13
2.3139e-09
-5.06951e-13
1.28339e-13
2.31275e-09
5.56142e-12
-1.46593e-12
2.31288e-09
4.46689e-12
-2.8791e-12
2.31347e-09
-8.86426e-13
-4.26201e-13
2.31473e-09
4.9141e-13
5.42875e-13
2.31412e-09
4.84521e-13
4.18721e-13
2.31352e-09
6.12418e-13
1.26024e-13
2.31221e-09
8.00435e-13
-7.53154e-13
2.31187e-09
-1.06006e-12
6.93995e-13
2.31527e-09
-6.60485e-13
-1.86058e-12
2.3143e-09
1.07201e-12
-2.01442e-13
2.31364e-09
2.3835e-13
-1.3893e-13
2.31396e-09
-1.66749e-13
-6.60767e-14
2.31584e-09
1.61873e-12
-7.32537e-14
2.31286e-09
4.20671e-12
-3.6365e-12
2.31341e-09
-9.7182e-13
-9.53416e-16
2.31356e-09
-1.86855e-13
2.75208e-13
2.3139e-09
-1.55862e-13
-1.33517e-13
2.31383e-09
-4.71337e-14
2.13951e-13
2.31274e-09
7.00095e-13
8.20383e-13
-6.16301e-13
-3.99537e-13
-1.09246e-09
-4.57985e-09
-7.74555e-09
7.89433e-09
-5.27387e-10
2.77358e-09
-1.52151e-09
-1.00162e-09
-5.95945e-09
-2.5821e-10
1.58616e-08
-2.20343e-09
7.19844e-10
-2.81979e-09
-1.78119e-09
-1.65635e-09
-1.90286e-09
5.27245e-10
-3.72978e-08
2.47797e-09
-6.23571e-09
4.16936e-08
-1.16537e-09
1.19103e-10
-2.29048e-10
3.68705e-09
2.28594e-10
-1.34696e-09
6.88784e-10
-1.71333e-09
-3.73127e-10
-1.06106e-09
1.76954e-10
3.29647e-10
-7.94143e-10
4.01055e-10
3.41091e-10
-4.54606e-10
-1.58046e-10
-8.55382e-11
-5.56419e-12
5.47247e-10
9.2737e-11
-1.26136e-10
-1.55163e-10
-1.25816e-10
3.09422e-12
3.66794e-12
5.03221e-12
4.48595e-12
2.27341e-09
-1.02127e-10
2.63849e-11
-5.72344e-10
-5.48939e-10
-5.72262e-10
-5.48921e-10
2.28795e-09
-3.19406e-11
3.1256e-13
2.30097e-09
-2.16839e-11
-4.49362e-13
2.30634e-09
-1.07313e-11
-6.69005e-14
2.30989e-09
-6.48615e-12
-6.17972e-14
2.31099e-09
-3.7616e-12
3.25144e-13
2.31196e-09
-2.36871e-12
2.73352e-14
2.31275e-09
-1.33087e-12
9.45641e-15
2.31241e-09
-1.61445e-13
-1.03673e-12
2.31334e-09
-8.95345e-13
-9.5388e-14
2.31359e-09
4.56953e-13
-4.31293e-13
2.31387e-09
-7.89307e-13
1.35876e-14
2.31365e-09
3.52407e-13
1.46011e-14
2.31401e-09
9.71229e-13
-7.33169e-14
2.31308e-09
4.87318e-13
-5.14998e-14
2.31423e-09
-4.25738e-12
1.67007e-12
2.31503e-09
-3.19205e-12
1.15298e-12
2.31453e-09
1.24964e-13
7.87942e-13
2.3132e-09
-1.33398e-13
-2.04047e-12
2.31352e-09
-1.12538e-13
-2.29918e-13
2.31372e-09
-3.00425e-13
1.4066e-13
2.3125e-09
4.74265e-12
-2.36833e-12
2.31255e-09
-2.53945e-13
1.25027e-13
2.31361e-09
7.14607e-13
2.00341e-12
2.31388e-09
9.5527e-13
1.6219e-12
2.31502e-09
-2.89637e-12
3.28065e-12
2.31489e-09
1.58043e-12
8.46142e-13
2.31355e-09
1.62752e-12
7.10038e-14
2.31382e-09
-4.58834e-15
1.64377e-13
2.31459e-09
3.99546e-14
-5.04595e-14
2.31492e-09
-4.17237e-13
-6.60475e-13
2.31204e-09
-1.00567e-12
1.99579e-12
2.31237e-09
3.91608e-13
2.67898e-14
2.3124e-09
2.51371e-13
2.63491e-14
2.3119e-09
3.70664e-13
-5.23242e-14
2.31309e-09
1.39519e-12
-2.26015e-13
2.31539e-09
2.47624e-13
3.72697e-12
2.3144e-09
-2.21194e-14
1.64247e-13
2.31383e-09
2.37619e-13
-1.95649e-13
2.31386e-09
8.22487e-13
8.34202e-13
2.3134e-09
5.43715e-13
-2.4251e-13
2.31363e-09
4.95333e-13
-8.74683e-13
-3.50003e-13
2.07993e-13
7.71994e-10
-4.5304e-09
-1.75501e-08
5.09189e-09
4.0161e-09
1.43607e-09
1.33041e-08
-1.93277e-09
1.17022e-09
-1.29436e-09
2.71287e-09
1.99174e-09
1.08213e-08
-4.37262e-09
-4.61749e-08
-2.02914e-10
7.44302e-10
2.50878e-10
2.16687e-10
1.25672e-09
-4.63886e-09
-5.02817e-08
6.18062e-08
-8.96127e-08
1.30977e-07
-3.74722e-09
1.87445e-08
1.14333e-09
-1.40253e-08
-1.97176e-09
-1.47525e-10
-4.88742e-09
-1.8864e-09
-4.103e-10
-1.21173e-09
3.65197e-09
4.74389e-09
7.11264e-09
2.46104e-10
1.0467e-09
-9.58315e-10
-3.01392e-11
-7.41699e-09
-1.10189e-10
-6.97668e-11
1.9883e-11
-2.4756e-11
5.57331e-11
1.29096e-10
2.4074e-09
-1.58953e-11
2.78882e-11
-5.81817e-10
-6.55842e-10
-5.81862e-10
-6.55884e-10
-2.92476e-11
-1.58838e-11
-2.92542e-11
2.33427e-09
3.25771e-11
4.47494e-12
2.32346e-09
-1.20002e-11
6.23127e-13
2.31606e-09
-4.00616e-12
3.36289e-13
2.31498e-09
-6.43831e-12
5.1877e-13
2.3145e-09
-3.57005e-12
1.4635e-13
2.3139e-09
-1.76192e-12
1.56301e-14
2.31368e-09
-1.08511e-12
1.80151e-14
2.31467e-09
-9.60558e-13
-1.16425e-13
2.3142e-09
-7.13511e-13
1.86968e-13
2.31439e-09
-1.05345e-12
2.25682e-13
2.31278e-09
4.60121e-13
1.94868e-13
2.31391e-09
-8.34853e-13
-6.35434e-15
2.31366e-09
3.48664e-13
1.52245e-13
2.3146e-09
-4.96781e-13
-1.3594e-14
2.31384e-09
-6.68676e-13
-1.81247e-12
2.31307e-09
1.62437e-13
-1.44699e-12
2.31305e-09
-5.12582e-13
-2.08337e-13
2.31331e-09
-3.60977e-13
-6.30827e-14
2.31305e-09
2.3647e-13
1.01265e-13
2.31266e-09
1.17634e-12
-5.68537e-13
2.31387e-09
-9.39808e-13
2.21412e-12
2.31463e-09
-4.68459e-12
1.83774e-12
2.31445e-09
1.04478e-12
-1.43292e-13
2.31619e-09
-2.72805e-12
8.59408e-13
2.31377e-09
1.46139e-13
-2.97295e-12
2.31261e-09
1.10211e-13
-1.42373e-12
2.31381e-09
5.68463e-13
-1.01246e-13
2.31404e-09
-1.80651e-13
-2.38614e-14
2.31385e-09
1.26615e-13
6.21916e-14
2.31361e-09
8.315e-14
2.42495e-14
2.31266e-09
-4.86599e-13
-7.16853e-14
2.31293e-09
-1.4058e-13
1.70338e-13
2.31256e-09
4.38158e-13
8.57203e-14
2.31242e-09
7.78966e-13
1.31789e-13
2.31299e-09
1.18368e-12
-1.69607e-13
2.31527e-09
-2.21413e-12
1.20947e-13
2.31468e-09
9.19083e-13
-3.15994e-13
2.31451e-09
4.24839e-13
7.32921e-14
2.31347e-09
5.69647e-13
-7.2284e-13
2.31292e-09
9.99704e-13
6.44568e-14
2.31284e-09
5.1394e-13
5.7044e-14
-2.47292e-12
1.45145e-12
2.48199e-11
2.24317e-09
-9.91085e-09
5.03638e-09
3.21412e-09
-2.76959e-09
5.43256e-09
1.20632e-08
-1.20757e-08
1.9082e-09
-1.83632e-10
4.10319e-10
-4.52714e-10
-4.33261e-09
-4.32847e-09
2.22472e-08
1.87302e-09
-4.18236e-11
-2.21817e-08
2.43185e-09
-6.88621e-10
-7.10774e-09
4.74715e-10
7.46604e-10
7.01132e-09
-4.36275e-10
-1.86293e-08
-8.54264e-09
-1.19428e-09
3.53766e-08
-2.13117e-09
-1.88771e-09
-1.67379e-09
-8.56607e-10
2.65166e-09
-2.82341e-09
2.46925e-09
-2.75866e-09
4.17542e-09
6.76334e-10
-4.8592e-10
5.25713e-10
-2.97372e-10
-4.59418e-09
-1.29018e-10
6.56394e-11
1.26929e-11
3.10009e-11
-5.89714e-11
7.86563e-11
-5.83369e-10
5.84724e-10
-1.80107e-11
4.1451e-12
-3.37839e-12
2.30601e-09
-1.46364e-11
2.27039e-11
-5.72054e-10
-5.79987e-10
-5.72086e-10
-5.80025e-10
2.30888e-09
-1.81899e-11