/*--------------------------------*- C++ -*----------------------------------*\
| =========                 |                                                 |
| \\      /  F ield         | OpenFOAM: The Open Source CFD Toolbox           |
|  \\    /   O peration     | Version:  5.0                                   |
|   \\  /    A nd           | Web:      www.OpenFOAM.org                      |
|    \\/     M anipulation  |                                                 |
\*---------------------------------------------------------------------------*/
FoamFile
{
    version     2.0;
    format      ascii;
    class       volScalarField;
    location    "1.3";
    object      rAU;
}
// * * * * * * * * * * * * * * * * * * * * * * * * * * * * * * * * * * * * * //

dimensions      [-1 3 1 0 0 0 0];

internalField   nonuniform List<scalar> 
7898
(
9.66791e-07
9.66759e-07
8.86602e-07
8.49896e-07
2.0732e-07
6.94189e-07
1.29269e-07
3.9242e-07
3.93663e-07
3.94697e-07
3.95731e-07
3.96763e-07
3.97795e-07
3.98826e-07
3.99857e-07
4.00886e-07
4.01916e-07
4.02944e-07
4.03972e-07
4.04999e-07
4.06025e-07
4.0705e-07
4.08075e-07
4.09099e-07
4.10122e-07
4.11145e-07
4.12167e-07
4.13188e-07
4.14208e-07
4.15228e-07
4.16246e-07
4.17265e-07
4.18282e-07
4.19298e-07
4.20314e-07
4.21328e-07
4.22342e-07
4.23356e-07
4.24368e-07
4.25379e-07
4.26391e-07
4.274e-07
4.28409e-07
4.29418e-07
4.30425e-07
4.31432e-07
4.32438e-07
4.33443e-07
4.34447e-07
4.36222e-07
8.9206e-07
9.27079e-07
8.85718e-07
4.37277e-07
8.17686e-07
6.23334e-07
1.29211e-07
3.92421e-07
3.93663e-07
3.94697e-07
3.95731e-07
3.96763e-07
3.97795e-07
3.98826e-07
3.99857e-07
4.00886e-07
4.01916e-07
4.02944e-07
4.03972e-07
4.04999e-07
4.06025e-07
4.0705e-07
4.08075e-07
4.09099e-07
4.10122e-07
4.11145e-07
4.12167e-07
4.13188e-07
4.14208e-07
4.15228e-07
4.16246e-07
4.17265e-07
4.18281e-07
4.19298e-07
4.20314e-07
4.21328e-07
4.22342e-07
4.23356e-07
4.24368e-07
4.25379e-07
4.26391e-07
4.274e-07
4.28409e-07
4.29418e-07
4.30425e-07
4.31432e-07
4.32438e-07
4.33443e-07
4.34447e-07
4.36222e-07
6.34242e-07
9.50194e-07
8.07744e-07
8.9197e-07
1.28611e-07
5.0166e-07
3.53031e-08
3.92287e-07
3.93663e-07
3.94697e-07
3.95731e-07
3.96763e-07
3.97795e-07
3.98826e-07
3.99857e-07
4.00886e-07
4.01916e-07
4.02944e-07
4.03972e-07
4.04999e-07
4.06025e-07
4.0705e-07
4.08075e-07
4.09099e-07
4.10122e-07
4.11145e-07
4.12167e-07
4.13188e-07
4.14208e-07
4.15228e-07
4.16246e-07
4.17265e-07
4.18281e-07
4.19298e-07
4.20314e-07
4.21328e-07
4.22342e-07
4.23356e-07
4.24368e-07
4.25379e-07
4.26391e-07
4.274e-07
4.28409e-07
4.29418e-07
4.30425e-07
4.31432e-07
4.32438e-07
4.33443e-07
4.34447e-07
4.36222e-07
8.92581e-07
8.75089e-07
8.59212e-07
3.25484e-07
8.74378e-07
5.839e-07
9.32864e-08
1.2987e-07
3.93455e-07
3.94698e-07
3.95731e-07
3.96763e-07
3.97795e-07
3.98826e-07
3.99857e-07
4.00886e-07
4.01916e-07
4.02944e-07
4.03972e-07
4.04999e-07
4.06025e-07
4.0705e-07
4.08075e-07
4.09099e-07
4.10122e-07
4.11145e-07
4.12167e-07
4.13188e-07
4.14208e-07
4.15228e-07
4.16246e-07
4.17265e-07
4.18282e-07
4.19298e-07
4.20314e-07
4.21328e-07
4.22342e-07
4.23356e-07
4.24368e-07
4.25379e-07
4.26391e-07
4.274e-07
4.28409e-07
4.29418e-07
4.30425e-07
4.31432e-07
4.32438e-07
4.33443e-07
4.34447e-07
4.36222e-07
8.94327e-07
8.72267e-07
4.30126e-07
7.02504e-07
8.9343e-07
6.95294e-07
6.42879e-07
1.2972e-07
3.93454e-07
3.94697e-07
3.95731e-07
3.96763e-07
3.97795e-07
3.98826e-07
3.99857e-07
4.00886e-07
4.01916e-07
4.02944e-07
4.03972e-07
4.04999e-07
4.06025e-07
4.0705e-07
4.08075e-07
4.09099e-07
4.10122e-07
4.11145e-07
4.12167e-07
4.13188e-07
4.14208e-07
4.15228e-07
4.16246e-07
4.17265e-07
4.18282e-07
4.19298e-07
4.20314e-07
4.21328e-07
4.22342e-07
4.23356e-07
4.24368e-07
4.25379e-07
4.26391e-07
4.274e-07
4.28409e-07
4.29418e-07
4.30425e-07
4.31432e-07
4.32438e-07
4.33443e-07
4.34447e-07
4.36222e-07
8.89777e-07
8.90881e-07
8.61989e-07
9.49355e-07
8.47118e-07
6.90193e-07
6.93707e-07
1.2972e-07
3.93453e-07
3.94696e-07
3.9573e-07
3.96763e-07
3.97795e-07
3.98826e-07
3.99857e-07
4.00886e-07
4.01916e-07
4.02944e-07
4.03971e-07
4.04999e-07
4.06025e-07
4.0705e-07
4.08075e-07
4.09099e-07
4.10122e-07
4.11145e-07
4.12167e-07
4.13188e-07
4.14208e-07
4.15228e-07
4.16246e-07
4.17265e-07
4.18282e-07
4.19298e-07
4.20314e-07
4.21328e-07
4.22342e-07
4.23356e-07
4.24368e-07
4.25379e-07
4.26391e-07
4.274e-07
4.28409e-07
4.29418e-07
4.30425e-07
4.31432e-07
4.32438e-07
4.33443e-07
4.34446e-07
4.36222e-07
6.50009e-07
6.01091e-07
4.89633e-07
9.58332e-07
8.82625e-07
6.86822e-07
3.72243e-07
1.29724e-07
3.93453e-07
3.94697e-07
3.9573e-07
3.96763e-07
3.97795e-07
3.98826e-07
3.99857e-07
4.00886e-07
4.01916e-07
4.02944e-07
4.03971e-07
4.04999e-07
4.06025e-07
4.0705e-07
4.08075e-07
4.09099e-07
4.10122e-07
4.11145e-07
4.12167e-07
4.13188e-07
4.14208e-07
4.15228e-07
4.16246e-07
4.17265e-07
4.18282e-07
4.19298e-07
4.20314e-07
4.21328e-07
4.22342e-07
4.23356e-07
4.24368e-07
4.25379e-07
4.26391e-07
4.274e-07
4.28409e-07
4.29418e-07
4.30425e-07
4.31432e-07
4.32438e-07
4.33443e-07
4.34446e-07
4.36222e-07
8.5526e-07
5.72508e-07
3.50612e-07
8.85585e-07
8.85403e-07
6.968e-07
6.46924e-08
3.92285e-07
3.93662e-07
3.94697e-07
3.9573e-07
3.96763e-07
3.97795e-07
3.98826e-07
3.99857e-07
4.00886e-07
4.01916e-07
4.02944e-07
4.03971e-07
4.04999e-07
4.06025e-07
4.0705e-07
4.08075e-07
4.09099e-07
4.10122e-07
4.11145e-07
4.12167e-07
4.13188e-07
4.14208e-07
4.15228e-07
4.16246e-07
4.17265e-07
4.18282e-07
4.19298e-07
4.20314e-07
4.21328e-07
4.22342e-07
4.23356e-07
4.24368e-07
4.25379e-07
4.26391e-07
4.274e-07
4.28409e-07
4.29418e-07
4.30425e-07
4.31432e-07
4.32438e-07
4.33443e-07
4.34446e-07
4.36222e-07
8.92265e-07
8.18276e-07
8.68286e-07
9.481e-07
7.99904e-07
6.97471e-07
3.51707e-08
3.9242e-07
3.93663e-07
3.94697e-07
3.9573e-07
3.96763e-07
3.97795e-07
3.98826e-07
3.99857e-07
4.00886e-07
4.01916e-07
4.02944e-07
4.03971e-07
4.04999e-07
4.06025e-07
4.0705e-07
4.08075e-07
4.09099e-07
4.10122e-07
4.11145e-07
4.12167e-07
4.13188e-07
4.14208e-07
4.15228e-07
4.16246e-07
4.17265e-07
4.18282e-07
4.19298e-07
4.20314e-07
4.21328e-07
4.22342e-07
4.23356e-07
4.24368e-07
4.25379e-07
4.26391e-07
4.274e-07
4.28409e-07
4.29418e-07
4.30425e-07
4.31432e-07
4.32438e-07
4.33443e-07
4.34446e-07
4.36222e-07
9.66812e-07
9.55178e-07
9.48366e-07
8.84011e-07
8.88686e-07
6.94274e-07
1.29268e-07
3.92419e-07
3.93663e-07
3.94697e-07
3.9573e-07
3.96763e-07
3.97795e-07
3.98826e-07
3.99857e-07
4.00886e-07
4.01916e-07
4.02944e-07
4.03971e-07
4.04999e-07
4.06025e-07
4.0705e-07
4.08075e-07
4.09099e-07
4.10122e-07
4.11145e-07
4.12167e-07
4.13188e-07
4.14208e-07
4.15228e-07
4.16246e-07
4.17265e-07
4.18282e-07
4.19298e-07
4.20314e-07
4.21328e-07
4.22342e-07
4.23356e-07
4.24368e-07
4.25379e-07
4.26391e-07
4.274e-07
4.28409e-07
4.29418e-07
4.30425e-07
4.31432e-07
4.32438e-07
4.33443e-07
4.34446e-07
4.36223e-07
9.76147e-07
9.73055e-07
9.00857e-07
7.91996e-07
8.50289e-07
7.58262e-07
1.83342e-07
5.04897e-07
5.06386e-07
5.07527e-07
5.08666e-07
5.09803e-07
5.10939e-07
5.12072e-07
5.13205e-07
5.14336e-07
5.15464e-07
5.16592e-07
5.17718e-07
5.18841e-07
5.19964e-07
5.21085e-07
5.22204e-07
5.23322e-07
5.24438e-07
5.25552e-07
5.26665e-07
5.27776e-07
5.28885e-07
5.29993e-07
5.311e-07
5.32203e-07
5.33307e-07
5.34408e-07
5.35507e-07
5.36605e-07
5.37702e-07
5.38796e-07
5.39889e-07
5.40981e-07
5.42069e-07
5.43158e-07
5.44244e-07
5.45328e-07
5.46411e-07
5.47493e-07
5.48572e-07
5.4965e-07
5.50726e-07
5.53041e-07
9.1867e-07
9.09981e-07
9.18532e-07
4.64267e-07
9.21925e-07
6.7251e-07
1.83226e-07
5.04899e-07
5.06388e-07
5.07528e-07
5.08666e-07
5.09803e-07
5.10939e-07
5.12072e-07
5.13205e-07
5.14336e-07
5.15464e-07
5.16592e-07
5.17718e-07
5.18841e-07
5.19964e-07
5.21085e-07
5.22204e-07
5.23322e-07
5.24438e-07
5.25552e-07
5.26665e-07
5.27776e-07
5.28885e-07
5.29993e-07
5.311e-07
5.32203e-07
5.33307e-07
5.34408e-07
5.35507e-07
5.36605e-07
5.37702e-07
5.38796e-07
5.39889e-07
5.40981e-07
5.4207e-07
5.43158e-07
5.44244e-07
5.45328e-07
5.46411e-07
5.47493e-07
5.48572e-07
5.4965e-07
5.50726e-07
5.53041e-07
7.62413e-07
8.76757e-07
7.35413e-07
7.97584e-07
1.94312e-07
7.06611e-07
5.22248e-08
5.04678e-07
5.06387e-07
5.07529e-07
5.08666e-07
5.09804e-07
5.10939e-07
5.12072e-07
5.13205e-07
5.14336e-07
5.15464e-07
5.16592e-07
5.17718e-07
5.18841e-07
5.19964e-07
5.21085e-07
5.22204e-07
5.23322e-07
5.24438e-07
5.25552e-07
5.26665e-07
5.27776e-07
5.28885e-07
5.29993e-07
5.311e-07
5.32203e-07
5.33307e-07
5.34408e-07
5.35507e-07
5.36605e-07
5.37702e-07
5.38796e-07
5.39889e-07
5.40981e-07
5.42069e-07
5.43158e-07
5.44244e-07
5.45328e-07
5.46411e-07
5.47493e-07
5.48572e-07
5.4965e-07
5.50726e-07
5.53041e-07
9.09503e-07
8.72082e-07
7.72474e-07
5.08589e-07
8.75876e-07
6.68681e-07
1.33671e-07
1.84252e-07
5.06042e-07
5.07529e-07
5.08667e-07
5.09804e-07
5.10939e-07
5.12072e-07
5.13205e-07
5.14336e-07
5.15464e-07
5.16592e-07
5.17718e-07
5.18841e-07
5.19964e-07
5.21085e-07
5.22204e-07
5.23322e-07
5.24438e-07
5.25552e-07
5.26665e-07
5.27776e-07
5.28885e-07
5.29993e-07
5.311e-07
5.32203e-07
5.33307e-07
5.34408e-07
5.35507e-07
5.36605e-07
5.37702e-07
5.38796e-07
5.39889e-07
5.40981e-07
5.42069e-07
5.43158e-07
5.44244e-07
5.45328e-07
5.46411e-07
5.47493e-07
5.48572e-07
5.4965e-07
5.50726e-07
5.53041e-07
2.79467e-07
4.72431e-07
8.97707e-07
7.44279e-07
8.10608e-07
7.29216e-07
6.45562e-07
1.83948e-07
5.06038e-07
5.07527e-07
5.08666e-07
5.09803e-07
5.10939e-07
5.12072e-07
5.13205e-07
5.14336e-07
5.15464e-07
5.16592e-07
5.17718e-07
5.18841e-07
5.19964e-07
5.21085e-07
5.22204e-07
5.23322e-07
5.24438e-07
5.25552e-07
5.26665e-07
5.27776e-07
5.28885e-07
5.29993e-07
5.311e-07
5.32204e-07
5.33307e-07
5.34408e-07
5.35507e-07
5.36605e-07
5.37702e-07
5.38796e-07
5.39889e-07
5.40981e-07
5.42069e-07
5.43158e-07
5.44244e-07
5.45328e-07
5.46411e-07
5.47493e-07
5.48572e-07
5.4965e-07
5.50726e-07
5.53041e-07
8.24569e-07
9.02156e-07
8.23243e-07
8.00914e-07
9.04559e-07
7.36788e-07
7.68259e-07
1.83947e-07
5.06036e-07
5.07526e-07
5.08665e-07
5.09803e-07
5.10939e-07
5.12072e-07
5.13205e-07
5.14336e-07
5.15464e-07
5.16592e-07
5.17718e-07
5.18841e-07
5.19964e-07
5.21085e-07
5.22204e-07
5.23322e-07
5.24438e-07
5.25552e-07
5.26665e-07
5.27776e-07
5.28885e-07
5.29993e-07
5.311e-07
5.32204e-07
5.33307e-07
5.34408e-07
5.35507e-07
5.36605e-07
5.37702e-07
5.38796e-07
5.39889e-07
5.40981e-07
5.42069e-07
5.43158e-07
5.44244e-07
5.45328e-07
5.46411e-07
5.47493e-07
5.48572e-07
5.4965e-07
5.50726e-07
5.53041e-07
4.52548e-07
7.97073e-07
2.70041e-07
8.08558e-07
8.75167e-07
7.10139e-07
4.585e-07
1.83947e-07
5.06037e-07
5.07527e-07
5.08665e-07
5.09803e-07
5.10939e-07
5.12072e-07
5.13205e-07
5.14336e-07
5.15464e-07
5.16592e-07
5.17718e-07
5.18841e-07
5.19964e-07
5.21085e-07
5.22204e-07
5.23322e-07
5.24438e-07
5.25552e-07
5.26665e-07
5.27776e-07
5.28885e-07
5.29993e-07
5.311e-07
5.32204e-07
5.33307e-07
5.34408e-07
5.35507e-07
5.36605e-07
5.37702e-07
5.38796e-07
5.39889e-07
5.40981e-07
5.42069e-07
5.43158e-07
5.44244e-07
5.45328e-07
5.46411e-07
5.47493e-07
5.48572e-07
5.4965e-07
5.50726e-07
5.53041e-07
8.96458e-07
1.38964e-07
3.13237e-07
9.26067e-07
8.71075e-07
7.59061e-07
9.4226e-08
5.04673e-07
5.06384e-07
5.07527e-07
5.08665e-07
5.09803e-07
5.10939e-07
5.12072e-07
5.13205e-07
5.14336e-07
5.15464e-07
5.16592e-07
5.17718e-07
5.18841e-07
5.19964e-07
5.21085e-07
5.22204e-07
5.23322e-07
5.24438e-07
5.25552e-07
5.26665e-07
5.27776e-07
5.28885e-07
5.29993e-07
5.311e-07
5.32204e-07
5.33307e-07
5.34408e-07
5.35507e-07
5.36605e-07
5.37702e-07
5.38796e-07
5.39889e-07
5.40981e-07
5.42069e-07
5.43158e-07
5.44244e-07
5.45328e-07
5.46411e-07
5.47493e-07
5.48572e-07
5.4965e-07
5.50726e-07
5.53041e-07
7.39287e-07
7.11796e-07
8.86954e-07
9.52884e-07
8.78684e-07
7.53581e-07
5.18045e-08
5.04896e-07
5.06386e-07
5.07527e-07
5.08665e-07
5.09803e-07
5.10939e-07
5.12072e-07
5.13205e-07
5.14336e-07
5.15464e-07
5.16592e-07
5.17718e-07
5.18841e-07
5.19964e-07
5.21085e-07
5.22204e-07
5.23322e-07
5.24438e-07
5.25552e-07
5.26665e-07
5.27776e-07
5.28885e-07
5.29993e-07
5.311e-07
5.32204e-07
5.33307e-07
5.34408e-07
5.35507e-07
5.36605e-07
5.37702e-07
5.38796e-07
5.39889e-07
5.40981e-07
5.42069e-07
5.43158e-07
5.44244e-07
5.45328e-07
5.46411e-07
5.47493e-07
5.48572e-07
5.4965e-07
5.50726e-07
5.53041e-07
9.70821e-07
9.66374e-07
9.57893e-07
9.51605e-07
9.17675e-07
7.6269e-07
1.8334e-07
5.04895e-07
5.06385e-07
5.07527e-07
5.08665e-07
5.09803e-07
5.10939e-07
5.12072e-07
5.13205e-07
5.14336e-07
5.15464e-07
5.16592e-07
5.17718e-07
5.18841e-07
5.19964e-07
5.21085e-07
5.22204e-07
5.23322e-07
5.24438e-07
5.25552e-07
5.26665e-07
5.27776e-07
5.28885e-07
5.29993e-07
5.311e-07
5.32204e-07
5.33307e-07
5.34408e-07
5.35507e-07
5.36605e-07
5.37702e-07
5.38796e-07
5.39889e-07
5.40981e-07
5.42069e-07
5.43158e-07
5.44244e-07
5.45328e-07
5.46411e-07
5.47493e-07
5.48572e-07
5.4965e-07
5.50726e-07
5.53041e-07
9.70403e-07
9.67411e-07
8.54351e-07
9.23548e-07
9.20118e-07
7.66307e-07
1.83346e-07
3.9242e-07
3.93663e-07
3.94697e-07
3.95731e-07
3.96763e-07
3.97795e-07
3.98826e-07
3.99857e-07
4.00886e-07
4.01916e-07
4.02944e-07
4.03971e-07
4.04999e-07
4.06025e-07
4.0705e-07
4.08075e-07
4.09099e-07
4.10122e-07
4.11145e-07
4.12167e-07
4.13188e-07
4.14208e-07
4.15228e-07
4.16246e-07
4.17264e-07
4.18281e-07
4.19298e-07
4.20314e-07
4.21328e-07
4.22342e-07
4.23356e-07
4.24368e-07
4.25379e-07
4.2639e-07
4.274e-07
4.28409e-07
4.29418e-07
4.30425e-07
4.31432e-07
4.32438e-07
4.33443e-07
4.34446e-07
4.36222e-07
9.61088e-07
8.73903e-07
7.6229e-07
6.81394e-07
9.1094e-07
6.48347e-07
1.83234e-07
3.92421e-07
3.93663e-07
3.94697e-07
3.95731e-07
3.96763e-07
3.97795e-07
3.98826e-07
3.99857e-07
4.00886e-07
4.01916e-07
4.02944e-07
4.03971e-07
4.04999e-07
4.06025e-07
4.0705e-07
4.08075e-07
4.09099e-07
4.10122e-07
4.11145e-07
4.12167e-07
4.13188e-07
4.14208e-07
4.15228e-07
4.16246e-07
4.17264e-07
4.18281e-07
4.19298e-07
4.20314e-07
4.21328e-07
4.22342e-07
4.23356e-07
4.24368e-07
4.25379e-07
4.2639e-07
4.274e-07
4.28409e-07
4.29418e-07
4.30425e-07
4.31432e-07
4.32438e-07
4.33443e-07
4.34446e-07
4.36222e-07
9.62624e-07
9.17681e-07
2.29607e-07
5.008e-07
8.07651e-07
7.47749e-07
5.21956e-08
3.92287e-07
3.93663e-07
3.94697e-07
3.95731e-07
3.96763e-07
3.97795e-07
3.98826e-07
3.99857e-07
4.00886e-07
4.01916e-07
4.02944e-07
4.03971e-07
4.04999e-07
4.06025e-07
4.0705e-07
4.08075e-07
4.09099e-07
4.10122e-07
4.11145e-07
4.12167e-07
4.13188e-07
4.14208e-07
4.15228e-07
4.16246e-07
4.17264e-07
4.18281e-07
4.19298e-07
4.20314e-07
4.21328e-07
4.22342e-07
4.23356e-07
4.24368e-07
4.25379e-07
4.2639e-07
4.274e-07
4.28409e-07
4.29418e-07
4.30425e-07
4.31432e-07
4.32438e-07
4.33443e-07
4.34446e-07
4.36222e-07
8.95873e-07
9.02168e-07
4.12623e-07
5.17315e-07
8.47161e-07
6.95049e-07
1.33612e-07
1.84256e-07
3.93455e-07
3.94698e-07
3.95731e-07
3.96763e-07
3.97795e-07
3.98826e-07
3.99857e-07
4.00886e-07
4.01916e-07
4.02944e-07
4.03971e-07
4.04999e-07
4.06025e-07
4.0705e-07
4.08075e-07
4.09099e-07
4.10122e-07
4.11145e-07
4.12167e-07
4.13188e-07
4.14208e-07
4.15228e-07
4.16246e-07
4.17264e-07
4.18281e-07
4.19298e-07
4.20314e-07
4.21328e-07
4.22342e-07
4.23356e-07
4.24368e-07
4.25379e-07
4.2639e-07
4.274e-07
4.28409e-07
4.29418e-07
4.30425e-07
4.31432e-07
4.32438e-07
4.33443e-07
4.34446e-07
4.36222e-07
3.72471e-07
2.2558e-07
8.68697e-07
7.64838e-07
8.42298e-07
7.3111e-07
6.55739e-07
1.83953e-07
3.93454e-07
3.94697e-07
3.95731e-07
3.96763e-07
3.97795e-07
3.98826e-07
3.99857e-07
4.00886e-07
4.01916e-07
4.02944e-07
4.03971e-07
4.04999e-07
4.06025e-07
4.0705e-07
4.08075e-07
4.09099e-07
4.10122e-07
4.11145e-07
4.12167e-07
4.13188e-07
4.14208e-07
4.15228e-07
4.16246e-07
4.17264e-07
4.18281e-07
4.19298e-07
4.20314e-07
4.21328e-07
4.22342e-07
4.23356e-07
4.24368e-07
4.25379e-07
4.2639e-07
4.274e-07
4.28409e-07
4.29418e-07
4.30425e-07
4.31432e-07
4.32438e-07
4.33442e-07
4.34446e-07
4.36222e-07
8.24181e-07
9.12481e-07
7.783e-07
5.01391e-07
4.95745e-07
7.15451e-07
7.67323e-07
1.83952e-07
3.93453e-07
3.94696e-07
3.9573e-07
3.96763e-07
3.97795e-07
3.98826e-07
3.99857e-07
4.00886e-07
4.01916e-07
4.02944e-07
4.03971e-07
4.04999e-07
4.06025e-07
4.0705e-07
4.08075e-07
4.09099e-07
4.10122e-07
4.11145e-07
4.12167e-07
4.13188e-07
4.14208e-07
4.15228e-07
4.16246e-07
4.17264e-07
4.18281e-07
4.19298e-07
4.20314e-07
4.21328e-07
4.22342e-07
4.23356e-07
4.24368e-07
4.25379e-07
4.2639e-07
4.274e-07
4.28409e-07
4.29418e-07
4.30425e-07
4.31432e-07
4.32438e-07
4.33442e-07
4.34446e-07
4.36222e-07
6.62758e-07
7.65238e-07
6.73181e-07
3.74679e-07
8.85945e-07
7.27027e-07
4.53469e-07
1.83952e-07
3.93453e-07
3.94697e-07
3.9573e-07
3.96763e-07
3.97795e-07
3.98826e-07
3.99857e-07
4.00886e-07
4.01916e-07
4.02944e-07
4.03971e-07
4.04999e-07
4.06025e-07
4.0705e-07
4.08075e-07
4.09099e-07
4.10122e-07
4.11145e-07
4.12167e-07
4.13188e-07
4.14208e-07
4.15228e-07
4.16246e-07
4.17264e-07
4.18281e-07
4.19298e-07
4.20314e-07
4.21328e-07
4.22342e-07
4.23356e-07
4.24368e-07
4.25379e-07
4.2639e-07
4.274e-07
4.28409e-07
4.29418e-07
4.30425e-07
4.31432e-07
4.32438e-07
4.33443e-07
4.34446e-07
4.36222e-07
4.94082e-07
1.36231e-07
2.55771e-07
9.13719e-07
8.15483e-07
7.28175e-07
9.41627e-08
3.92285e-07
3.93662e-07
3.94697e-07
3.9573e-07
3.96763e-07
3.97795e-07
3.98826e-07
3.99857e-07
4.00886e-07
4.01916e-07
4.02944e-07
4.03971e-07
4.04999e-07
4.06025e-07
4.0705e-07
4.08075e-07
4.09099e-07
4.10122e-07
4.11145e-07
4.12167e-07
4.13188e-07
4.14208e-07
4.15228e-07
4.16246e-07
4.17264e-07
4.18281e-07
4.19298e-07
4.20314e-07
4.21328e-07
4.22342e-07
4.23356e-07
4.24368e-07
4.25379e-07
4.2639e-07
4.274e-07
4.28409e-07
4.29418e-07
4.30425e-07
4.31432e-07
4.32438e-07
4.33443e-07
4.34446e-07
4.36222e-07
6.21953e-07
7.29766e-07
7.88322e-07
9.02143e-07
8.8215e-07
6.7757e-07
5.18108e-08
3.9242e-07
3.93663e-07
3.94697e-07
3.9573e-07
3.96763e-07
3.97795e-07
3.98826e-07
3.99857e-07
4.00886e-07
4.01916e-07
4.02944e-07
4.03971e-07
4.04999e-07
4.06025e-07
4.0705e-07
4.08075e-07
4.09099e-07
4.10122e-07
4.11145e-07
4.12167e-07
4.13188e-07
4.14208e-07
4.15228e-07
4.16246e-07
4.17265e-07
4.18281e-07
4.19298e-07
4.20314e-07
4.21328e-07
4.22342e-07
4.23356e-07
4.24368e-07
4.25379e-07
4.2639e-07
4.274e-07
4.28409e-07
4.29418e-07
4.30425e-07
4.31432e-07
4.32438e-07
4.33443e-07
4.34446e-07
4.36222e-07
9.66705e-07
9.63677e-07
7.5435e-07
9.22297e-07
8.77432e-07
7.58784e-07
1.83345e-07
3.92419e-07
3.93663e-07
3.94697e-07
3.9573e-07
3.96763e-07
3.97795e-07
3.98826e-07
3.99857e-07
4.00886e-07
4.01916e-07
4.02944e-07
4.03971e-07
4.04999e-07
4.06025e-07
4.0705e-07
4.08075e-07
4.09099e-07
4.10122e-07
4.11145e-07
4.12167e-07
4.13188e-07
4.14208e-07
4.15228e-07
4.16246e-07
4.17264e-07
4.18281e-07
4.19298e-07
4.20314e-07
4.21328e-07
4.22342e-07
4.23356e-07
4.24368e-07
4.25379e-07
4.2639e-07
4.274e-07
4.28409e-07
4.29418e-07
4.30425e-07
4.31432e-07
4.32438e-07
4.33443e-07
4.34446e-07
4.36222e-07
3.51437e-08
6.93205e-07
3.51503e-08
7.5732e-07
5.1788e-08
7.66438e-07
5.18024e-08
3.51569e-08
6.20547e-07
4.7094e-08
6.82725e-07
5.18154e-08
7.4014e-07
6.93476e-08
6.86493e-08
5.37901e-07
6.91464e-07
7.00235e-07
9.9652e-08
6.96408e-07
7.6537e-07
6.95576e-07
5.4578e-07
6.9923e-07
6.79715e-07
7.7003e-07
7.22733e-07
7.70221e-07
6.98909e-07
6.71637e-07
7.00557e-07
7.37754e-07
7.70367e-07
7.5875e-07
7.74805e-07
6.99511e-07
6.70768e-07
7.00754e-07
7.41106e-07
7.74349e-07
7.38335e-07
7.73679e-07
7.00167e-07
6.7091e-07
6.95466e-07
7.31391e-07
7.73896e-07
6.79256e-07
7.69693e-07
6.91855e-07
6.60976e-07
8.00011e-08
7.66295e-07
7.6603e-07
6.22186e-07
1.15131e-07
4.98021e-08
6.79312e-07
3.51625e-08
7.52452e-07
7.26461e-08
7.18674e-07
5.1837e-08
3.51508e-08
6.89424e-07
3.51427e-08
7.6691e-07
5.18044e-08
7.29656e-07
5.17847e-08
5.1788e-08
7.66778e-07
5.18026e-08
7.64152e-07
5.17878e-08
7.66599e-07
5.18016e-08
5.18155e-08
7.37184e-07
6.96676e-08
6.48329e-07
5.18181e-08
7.5333e-07
6.97168e-08
9.97037e-08
6.71801e-07
7.65896e-07
7.38039e-07
9.99015e-08
7.56406e-07
7.65951e-07
7.6959e-07
7.10763e-07
7.68648e-07
6.97622e-07
7.68286e-07
7.01272e-07
7.71761e-07
7.70602e-07
7.67386e-07
7.73413e-07
7.26398e-07
7.69903e-07
7.5337e-07
7.75034e-07
7.74787e-07
7.61978e-07
7.73691e-07
7.3677e-07
7.74496e-07
7.71518e-07
7.76771e-07
7.72099e-07
6.77584e-07
7.6974e-07
6.95803e-07
7.74039e-07
6.57128e-07
7.69995e-07
7.66501e-07
6.11865e-07
1.14915e-07
7.10401e-07
7.65938e-07
6.55755e-07
1.14699e-07
7.34959e-08
7.15585e-07
5.18404e-08
7.17595e-07
7.51469e-08
7.4966e-07
5.18453e-08
5.18039e-08
7.2029e-07
5.17847e-08
7.50549e-07
5.18024e-08
6.97503e-07
5.17853e-08
5.17877e-08
7.6181e-07
5.18011e-08
6.94326e-07
3.51436e-08
6.96979e-07
3.51499e-08
5.18208e-08
7.53481e-07
6.97273e-08
4.58024e-07
3.51575e-08
6.90554e-07
4.74022e-08
9.9875e-08
7.58329e-07
7.65786e-07
6.88487e-07
6.88815e-08
6.9494e-07
6.91484e-07
7.6825e-07
6.86144e-07
7.70003e-07
6.90359e-07
6.93253e-07
6.00433e-07
6.9996e-07
7.70184e-07
7.44044e-07
7.74548e-07
6.82128e-07
6.99711e-07
6.84472e-07
7.0002e-07
7.75155e-07
7.58404e-07
7.76326e-07
6.79092e-07
6.99817e-07
6.80144e-07
7.01254e-07
7.73475e-07
6.1621e-07
7.69861e-07
6.79165e-07
7.00097e-07
4.81103e-07
6.94723e-07
7.6595e-07
6.80614e-07
1.14772e-07
6.78232e-07
6.9193e-07
6.76576e-07
7.9864e-08
7.49103e-08
7.61179e-07
5.18422e-08
6.07342e-07
5.03601e-08
6.94606e-07
3.51633e-08
5.18021e-08
7.12928e-07
5.17852e-08
6.92122e-07
3.51509e-08
6.81912e-07
3.51426e-08
6.64357e-07
8.69905e-07
5.59149e-07
3.41423e-07
7.33873e-07
9.00748e-07
6.52686e-07
1.50699e-07
1.01653e-07
6.93591e-07
7.6572e-07
7.69322e-07
1.05836e-07
1.44828e-07
1.29658e-07
1.29269e-07
1.29658e-07
1.83347e-07
1.84016e-07
1.83348e-07
1.84016e-07
7.2388e-07
6.74362e-07
4.00924e-07
8.33445e-07
7.91958e-07
5.31805e-07
2.95289e-07
5.31631e-07
6.88656e-07
4.23011e-07
6.94765e-07
7.59656e-07
5.24252e-07
4.44642e-07
1.29658e-07
3.51689e-08
1.29567e-07
1.8323e-07
1.84016e-07
5.18036e-08
1.83834e-07
9.33953e-08
8.52858e-07
2.9125e-07
1.78392e-07
1.80707e-07
8.46075e-07
7.35668e-07
7.58742e-07
6.90643e-07
3.91298e-07
6.55062e-07
7.52392e-07
4.84123e-07
6.92064e-07
1.29567e-07
6.12717e-08
1.29566e-07
5.21862e-08
1.83833e-07
8.93844e-08
1.83831e-07
5.7427e-07
8.61349e-07
3.44481e-07
8.78415e-07
5.11308e-07
8.6007e-07
4.54869e-07
4.74386e-07
6.01477e-07
2.10638e-07
6.91469e-07
6.88857e-07
2.71438e-07
3.70342e-07
1.2943e-07
3.99494e-07
3.52761e-08
1.33671e-07
1.8356e-07
4.69162e-07
5.19793e-08
8.87287e-07
8.87973e-07
8.95987e-07
8.95878e-07
8.95291e-07
9.15598e-07
9.02719e-07
7.69235e-07
6.98546e-07
6.84098e-07
7.63059e-07
7.73154e-07
7.52277e-07
6.9725e-07
3.52761e-08
6.93345e-07
3.52762e-08
6.54296e-07
5.19792e-08
7.67651e-07
5.19795e-08
8.25842e-07
8.22662e-07
8.68917e-07
8.57472e-07
8.64176e-07
8.99037e-07
9.09716e-07
7.59199e-07
6.96571e-07
6.95401e-07
7.43486e-07
7.68723e-07
7.56089e-07
6.93874e-07
3.52762e-08
6.1319e-07
3.52761e-08
7.68387e-07
5.19795e-08
6.38433e-07
5.19789e-08
8.71655e-07
8.8235e-07
8.74739e-07
8.44072e-07
8.75512e-07
8.99381e-07
9.24533e-07
7.71191e-07
6.97871e-07
6.97367e-07
7.48508e-07
7.69285e-07
7.71083e-07
6.9803e-07
3.52761e-08
8.69163e-08
1.29429e-07
4.58118e-07
5.19786e-08
1.2493e-07
1.83556e-07
8.93433e-07
8.7464e-07
6.52356e-07
8.9082e-07
9.0626e-07
8.91977e-07
7.54719e-07
6.97594e-07
6.78829e-07
6.85109e-07
7.68812e-07
7.58788e-07
7.10631e-07
6.5179e-07
1.29566e-07
3.55927e-08
1.29566e-07
9.41751e-08
1.83831e-07
5.26761e-08
1.83832e-07
8.83569e-07
5.97673e-07
8.79099e-07
8.5156e-07
9.18676e-07
7.25121e-07
9.16398e-07
7.68692e-07
6.99038e-07
6.73404e-07
7.74079e-07
7.7269e-07
7.17763e-07
6.96212e-07
1.29567e-07
1.29214e-07
1.29657e-07
5.18037e-08
1.83833e-07
1.83236e-07
1.84016e-07
6.71256e-07
7.93903e-07
6.91073e-07
9.06353e-07
7.54852e-07
8.38902e-07
7.47453e-07
1.85763e-07
3.34341e-07
6.90856e-07
7.68505e-07
4.17003e-07
7.4688e-07
1.32697e-07
1.29657e-07
1.29268e-07
1.29657e-07
1.83346e-07
1.84015e-07
1.83345e-07
1.84015e-07
7.38118e-07
8.87077e-07
6.06437e-07
8.8216e-07
7.69801e-07
8.60231e-07
6.36886e-07
1.49898e-07
1.44682e-07
7.66425e-07
7.60623e-07
1.50154e-07
7.63761e-07
1.44632e-07
1.84011e-07
1.83343e-07
1.84012e-07
1.83342e-07
1.84011e-07
1.83343e-07
1.84012e-07
7.66326e-07
6.43232e-07
8.0498e-07
8.6293e-07
7.82126e-07
5.44855e-07
8.89213e-07
4.84079e-07
7.14434e-07
4.66492e-07
6.58264e-07
5.00485e-07
6.90975e-07
4.93441e-07
1.84012e-07
5.18046e-08
1.83829e-07
1.83227e-07
1.84012e-07
5.18054e-08
1.83829e-07
2.4048e-07
8.50717e-07
8.59928e-07
5.42078e-07
8.67965e-07
8.733e-07
9.17186e-07
7.64924e-07
7.41587e-07
6.75378e-07
7.13657e-07
7.66793e-07
7.42356e-07
7.0344e-07
1.83828e-07
8.94298e-08
1.83826e-07
5.22275e-08
1.83828e-07
8.93999e-08
1.83827e-07
4.97687e-07
9.18455e-07
5.58665e-07
8.31047e-07
6.50295e-07
8.76053e-07
3.33531e-07
3.32562e-07
7.47512e-07
3.09247e-07
6.93993e-07
3.23954e-07
7.67293e-07
3.20653e-07
1.83558e-07
4.62334e-07
5.19788e-08
1.33665e-07
1.83557e-07
4.66782e-07
5.19788e-08
9.14848e-07
9.25588e-07
8.84442e-07
8.58596e-07
7.85878e-07
8.74364e-07
9.06569e-07
7.48406e-07
7.58095e-07
7.30581e-07
7.38613e-07
7.49609e-07
7.59248e-07
6.35975e-07
5.19786e-08
7.68048e-07
5.1979e-08
6.45098e-07
5.19785e-08
7.67886e-07
5.1979e-08
8.15943e-07
9.17882e-07
8.32268e-07
8.55806e-07
6.73111e-07
8.9374e-07
7.183e-07
7.54473e-07
7.63698e-07
7.06047e-07
7.1994e-07
7.51147e-07
7.61934e-07
6.30119e-07
5.1979e-08
6.29036e-07
5.19783e-08
7.67145e-07
5.1979e-08
6.31702e-07
5.19782e-08
8.61912e-07
9.15284e-07
8.43296e-07
8.33797e-07
9.0476e-07
9.15267e-07
8.97415e-07
7.60981e-07
7.65906e-07
7.30583e-07
7.00996e-07
7.6259e-07
7.63899e-07
7.45222e-07
5.1978e-08
1.24963e-07
1.83553e-07
4.50877e-07
5.19781e-08
1.24925e-07
1.83553e-07
8.74371e-07
8.62863e-07
7.53184e-07
8.51081e-07
8.60525e-07
9.02197e-07
7.45873e-07
6.4457e-07
7.59057e-07
5.02086e-07
7.64262e-07
6.45969e-07
7.60072e-07
4.4619e-07
1.83826e-07
5.27375e-08
1.83827e-07
9.42169e-08
1.83827e-07
5.26884e-08
1.83827e-07
8.96562e-07
7.61548e-07
8.61294e-07
8.58319e-07
8.767e-07
8.65243e-07
9.08424e-07
6.28044e-07
7.60949e-07
6.18988e-07
7.36405e-07
6.73118e-07
7.49322e-07
6.1071e-07
1.83828e-07
1.83233e-07
1.84011e-07
5.18109e-08
1.83828e-07
1.83233e-07
1.84011e-07
7.11628e-07
8.84266e-07
7.18622e-07
9.1046e-07
6.65505e-07
8.68256e-07
6.9656e-07
1.8937e-07
4.13819e-07
7.51435e-07
7.51299e-07
1.88436e-07
4.18702e-07
7.47514e-07
1.8401e-07
1.83341e-07
1.8401e-07
1.8334e-07
1.8401e-07
1.83341e-07
1.8401e-07
7.72299e-07
9.10855e-07
6.02594e-07
8.81656e-07
6.97045e-07
8.47033e-07
5.6033e-07
1.50486e-07
1.44707e-07
7.66519e-07
7.6882e-07
1.5012e-07
7.66312e-07
1.44636e-07
1.84016e-07
1.83347e-07
1.84016e-07
1.29269e-07
1.29658e-07
1.29269e-07
1.29658e-07
7.77654e-07
8.08586e-07
8.90905e-07
8.99368e-07
6.74729e-07
8.78382e-07
8.99096e-07
5.07655e-07
6.41529e-07
6.26752e-07
6.30784e-07
5.06779e-07
6.34984e-07
6.53545e-07
1.84016e-07
5.18055e-08
1.83833e-07
1.29212e-07
1.29658e-07
3.51689e-08
1.29567e-07
9.06792e-07
9.16356e-07
8.67698e-07
7.25123e-07
8.76511e-07
8.80408e-07
8.57644e-07
7.62948e-07
7.57674e-07
7.51517e-07
7.56331e-07
7.65968e-07
7.61766e-07
7.14813e-07
1.83833e-07
8.93343e-08
1.83831e-07
3.53143e-08
1.29567e-07
6.12092e-08
1.29566e-07
8.28833e-07
9.10271e-07
7.4147e-07
7.3761e-07
8.51861e-07
8.7332e-07
8.60232e-07
3.65399e-07
7.4828e-07
3.69262e-07
7.22373e-07
3.50453e-07
7.16293e-07
4.60377e-07
1.8356e-07
4.63466e-07
5.19793e-08
9.31818e-08
1.29431e-07
3.92131e-07
3.52762e-08
9.28412e-07
9.28417e-07
8.21777e-07
8.63594e-07
8.56382e-07
8.72528e-07
7.12392e-07
7.73151e-07
7.63464e-07
6.73774e-07
7.50902e-07
7.70264e-07
7.63312e-07
6.84289e-07
5.1979e-08
7.68473e-07
5.19795e-08
6.40461e-07
3.52761e-08
6.93411e-07
3.52762e-08
5.31845e-07
5.86349e-07
5.58709e-07
6.59017e-07
5.56453e-07
4.31314e-07
6.6805e-07
7.70748e-07
7.67569e-07
6.06301e-07
7.22672e-07
7.67569e-07
7.6808e-07
6.82391e-07
5.19794e-08
6.37632e-07
5.19787e-08
6.93744e-07
3.52762e-08
6.06038e-07
3.52761e-08
9.17609e-07
8.42192e-07
8.1344e-07
8.7695e-07
8.83695e-07
8.43898e-07
6.62471e-07
7.71385e-07
7.67971e-07
7.42931e-07
7.34728e-07
7.7026e-07
7.70578e-07
7.52274e-07
5.19786e-08
1.24907e-07
1.83555e-07
3.69639e-07
3.52761e-08
8.69291e-08
1.29429e-07
5.50103e-07
8.22465e-07
3.60456e-07
6.8488e-07
4.61006e-07
6.48008e-07
2.48524e-07
5.90805e-07
7.57434e-07
5.234e-07
7.4831e-07
5.85193e-07
7.53778e-07
4.59805e-07
1.83832e-07
5.26169e-08
1.83832e-07
6.46729e-08
1.29566e-07
3.55574e-08
1.29567e-07
8.59555e-07
8.59547e-07
9.0368e-07
8.45404e-07
7.95581e-07
7.40181e-07
8.91912e-07
6.20583e-07
7.31239e-07
6.07014e-07
6.68194e-07
6.20221e-07
7.32624e-07
5.92869e-07
1.83833e-07
1.83237e-07
1.84015e-07
3.51706e-08
1.29567e-07
1.29214e-07
1.29658e-07
7.24663e-07
8.94623e-07
6.69437e-07
8.57844e-07
6.92444e-07
6.94028e-07
6.76193e-07
1.92185e-07
4.31931e-07
7.67219e-07
7.64625e-07
1.92269e-07
4.34145e-07
7.67176e-07
1.84015e-07
1.83345e-07
1.84015e-07
1.29268e-07
1.29658e-07
1.29269e-07
1.29658e-07
5.36548e-08
3.61286e-08
3.51439e-08
5.17942e-08
5.17948e-08
3.63594e-08
5.33459e-08
2.26571e-07
6.93785e-07
2.67969e-07
7.62646e-07
7.6617e-07
3.52744e-07
1.65178e-07
5.78147e-08
3.51467e-08
4.31677e-08
5.18087e-08
5.18011e-08
6.34257e-08
3.91715e-08
1.50436e-07
7.60164e-07
1.44577e-07
7.68225e-07
7.69485e-07
1.50269e-07
1.4456e-07
5.37725e-08
5.17936e-08
5.35712e-08
5.17886e-08
5.17942e-08
5.38679e-08
5.34851e-08
2.25858e-07
7.63462e-07
7.65918e-07
3.53637e-07
7.69086e-07
3.52199e-07
2.25997e-07
5.79638e-08
5.18083e-08
5.17948e-08
6.35178e-08
5.18004e-08
6.34996e-08
5.80432e-08
9.2998e-08
5.35303e-08
3.53959e-08
5.18224e-08
7.81685e-08
5.22001e-08
6.35936e-08
5.78584e-07
2.73898e-07
6.95587e-07
6.69242e-07
4.94364e-07
7.61892e-07
4.64876e-07
1.34772e-07
3.73191e-08
3.28076e-07
6.88126e-08
5.53136e-08
4.26301e-07
9.5707e-08
5.15387e-07
6.96146e-07
7.35374e-07
4.88235e-07
7.49164e-07
5.2675e-07
5.08511e-07
9.4071e-08
5.18207e-08
7.86885e-08
5.21691e-08
7.8336e-08
5.21493e-08
9.45062e-08
5.95717e-07
7.11224e-07
7.10148e-07
7.50264e-07
6.67878e-07
7.52635e-07
5.97502e-07
1.34511e-07
6.89516e-08
5.53265e-08
4.13107e-07
5.54326e-08
4.2305e-07
1.35694e-07
7.64532e-07
6.87911e-07
1.47333e-07
9.95518e-08
7.56006e-07
2.0381e-07
6.94598e-07
7.67532e-07
6.38316e-07
6.97455e-07
6.35776e-07
7.03101e-07