/*--------------------------------*- C++ -*----------------------------------*\
| =========                 |                                                 |
| \\      /  F ield         | OpenFOAM: The Open Source CFD Toolbox           |
|  \\    /   O peration     | Version:  5.0                                   |
|   \\  /    A nd           | Web:      www.OpenFOAM.org                      |
|    \\/     M anipulation  |                                                 |
\*---------------------------------------------------------------------------*/
FoamFile
{
    version     2.0;
    format      ascii;
    class       volVectorField;
    location    "1.3";
    object      U;
}
// * * * * * * * * * * * * * * * * * * * * * * * * * * * * * * * * * * * * * //

dimensions      [0 1 -1 0 0 0 0];

internalField   nonuniform List<vector> 
7898
(
(-0.00135865 -0.00629354 0.000337632)
(0.00208411 0.00279264 -0.000256917)
(-0.00218859 -0.00409973 -2.90448e-05)
(0.00743037 0.0136963 0.00341857)
(0.00145798 0.000749655 -0.000118131)
(0.00137033 -0.00117349 0.000135643)
(0.000421513 3.09969e-05 -1.86868e-06)
(0.000803105 2.88028e-06 -2.11479e-06)
(0.000798546 -1.90198e-06 -1.97998e-07)
(0.000808577 -1.64492e-06 1.00769e-07)
(0.000810065 -1.1246e-06 8.91518e-08)
(0.00081073 -8.39758e-07 5.5676e-08)
(0.000811138 -3.31408e-07 4.01029e-08)
(0.000810267 1.15787e-07 7.5128e-08)
(0.000808482 5.64515e-08 4.94731e-08)
(0.000807326 7.45994e-08 4.44619e-08)
(0.000806039 -1.25446e-07 4.97992e-08)
(0.000804499 -7.01133e-08 7.77756e-08)
(0.00080308 -7.26247e-08 7.4702e-08)
(0.000801671 -4.01763e-08 2.073e-07)
(0.000800148 -1.15227e-07 5.5364e-08)
(0.000798671 5.91586e-08 8.14576e-08)
(0.000797121 -9.17811e-08 -1.05199e-08)
(0.000795511 2.44156e-09 4.61924e-08)
(0.000794061 2.23571e-07 6.80693e-08)
(0.000792717 4.09047e-07 7.23693e-08)
(0.000791204 2.63253e-07 6.36387e-08)
(0.00078971 1.63775e-07 4.87421e-08)
(0.000788079 2.66198e-07 4.71538e-08)
(0.000786582 -8.30899e-08 1.94287e-07)
(0.000785003 -4.0176e-07 7.41987e-08)
(0.000783243 -4.50818e-07 -2.85732e-08)
(0.000781869 -3.04354e-07 8.28658e-08)
(0.000780777 -4.2182e-08 1.11304e-07)
(0.000779415 1.46123e-07 5.37171e-08)
(0.000777719 1.87024e-07 7.9248e-08)
(0.000775964 2.37272e-07 9.24152e-08)
(0.000774098 3.06913e-07 1.35302e-08)
(0.000773374 6.88437e-07 1.1439e-07)
(0.00077247 2.20718e-07 7.66241e-08)
(0.000770572 2.95724e-08 3.02764e-08)
(0.000769012 -1.13816e-07 7.49047e-08)
(0.000768218 -8.29881e-07 9.16933e-08)
(0.000766505 -6.63385e-07 -6.91662e-09)
(0.00076456 -3.91874e-07 2.75385e-08)
(0.000763406 -2.31114e-07 -8.23642e-08)
(0.000762053 -2.0943e-07 6.12074e-08)
(0.000760797 -1.79744e-07 3.25491e-08)
(0.000759154 -3.60183e-07 4.49428e-08)
(0.000757583 -3.21852e-07 -2.27153e-09)
(-0.000228518 -0.013867 -0.000508354)
(0.00297774 0.0045458 0.00124014)
(-0.0104988 0.00736018 6.17191e-05)
(-0.0408087 -0.0226885 0.00417209)
(0.0161033 0.00951867 -0.000195488)
(0.00105785 -0.00410488 -2.61375e-05)
(0.000407178 -2.05509e-05 4.6417e-07)
(0.000829731 -3.18666e-05 -1.62107e-06)
(0.000800537 -1.82344e-05 -1.7703e-07)
(0.000811979 -9.46059e-06 1.31719e-07)
(0.000812234 -5.01579e-06 5.83071e-08)
(0.000812386 -2.80658e-06 5.94311e-08)
(0.00081155 -1.45724e-06 4.55079e-08)
(0.00081025 -1.09382e-06 4.66753e-08)
(0.000809024 -5.67412e-07 4.87604e-08)
(0.000807458 -2.57439e-07 3.56441e-08)
(0.000805984 7.59143e-08 5.49885e-08)
(0.000804688 2.16042e-07 8.18087e-08)
(0.000803225 4.89687e-07 4.58754e-08)
(0.000801668 2.45937e-07 2.66774e-08)
(0.000800171 3.43024e-07 1.09515e-07)
(0.000798511 2.32826e-07 6.1625e-08)
(0.000796979 3.76276e-07 4.55324e-08)
(0.000795919 3.60695e-07 5.02318e-08)
(0.00079448 2.9683e-07 -3.17701e-08)
(0.00079255 1.4387e-07 2.27585e-08)
(0.000790856 1.54681e-08 7.18278e-08)
(0.000789568 -9.43094e-08 4.56374e-08)
(0.000787851 -3.90533e-07 6.98622e-08)
(0.000786066 -2.64651e-07 4.70828e-08)
(0.000784835 -2.32513e-07 -1.34732e-07)
(0.000783515 -6.85105e-08 1.04743e-08)
(0.000782308 5.07806e-07 1.35551e-07)
(0.00078112 5.09034e-07 1.05999e-07)
(0.000779309 9.94628e-08 4.62015e-08)
(0.000777637 1.40127e-07 3.19779e-08)
(0.000776434 2.02432e-07 4.40894e-08)
(0.000775311 4.4651e-07 1.01918e-08)
(0.000773264 8.01046e-07 8.10134e-10)
(0.000771323 2.89084e-07 4.3784e-07)
(0.000770147 1.41986e-07 6.23939e-08)
(0.00076854 5.09953e-08 6.79537e-08)
(0.000767163 -1.22234e-07 7.99598e-08)
(0.000766546 -7.38986e-07 9.76299e-08)
(0.000765344 -1.99447e-07 5.92055e-08)
(0.000763554 -1.25299e-07 4.5082e-08)
(0.00076212 8.50643e-08 8.88551e-08)
(0.000760662 -3.1448e-08 4.74171e-08)
(0.000759177 -1.51791e-07 -8.18938e-08)
(0.000758125 -1.9924e-07 1.0819e-07)
(-0.00226531 -0.026631 9.28467e-05)
(0.00833791 0.00489741 -0.000196627)
(-0.0200338 0.00363232 0.0023575)
(0.0330964 -0.0190752 0.000439933)
(0.00158527 -0.00151217 0.00110525)
(-0.0538065 -0.00118412 -0.00122373)
(0.000331299 -0.000133174 1.79338e-05)
(0.000932176 -5.31004e-05 -9.64588e-07)
(0.000827281 1.67573e-06 -1.07955e-06)
(0.000825151 -7.48927e-06 7.29286e-08)
(0.000818406 -3.47302e-06 2.60018e-08)
(0.000815191 -2.39569e-06 3.8787e-08)
(0.000813286 -1.63697e-06 4.68116e-08)
(0.000811384 -1.1003e-06 4.90576e-08)
(0.00080953 -6.92754e-07 5.11547e-08)
(0.000808131 -4.68758e-07 5.25231e-08)
(0.000806631 -2.28875e-07 4.86489e-08)
(0.000805015 -1.24995e-07 -2.19301e-08)
(0.000803116 -2.01792e-07 9.93316e-08)
(0.000801485 -1.14046e-07 3.9646e-08)
(0.00080013 -6.57829e-08 1.43998e-08)
(0.000798709 7.07184e-09 4.60106e-08)
(0.000797277 2.2667e-07 3.76707e-08)
(0.000795407 1.7447e-07 7.31873e-08)
(0.000793787 -7.59097e-08 5.32784e-08)
(0.000792364 -1.52002e-07 4.67181e-08)
(0.000790906 -9.20535e-08 3.18037e-08)
(0.000789205 -5.66436e-08 6.13573e-08)
(0.000787869 -8.09119e-08 -7.80766e-11)
(0.000786784 3.96922e-07 1.93223e-08)
(0.000785251 4.7086e-07 1.98384e-07)
(0.000784168 4.81201e-07 6.40434e-08)
(0.000782589 4.67499e-07 -1.49646e-08)
(0.000780263 2.19507e-07 -2.56282e-08)
(0.000778951 -2.28363e-08 9.53099e-08)
(0.000777846 1.14564e-07 5.43142e-08)
(0.000776345 1.14259e-07 6.42316e-08)
(0.000774842 2.0235e-08 5.09437e-08)
(0.000773173 -1.87181e-07 2.36817e-08)
(0.000771643 9.49065e-08 3.35596e-08)
(0.000770273 1.40997e-07 6.50659e-08)
(0.000768683 2.41107e-07 -1.6401e-08)
(0.000767234 5.93246e-07 5.26262e-08)
(0.000766413 7.21015e-07 1.38735e-07)
(0.000765331 3.49428e-07 9.14035e-08)
(0.000763763 2.63355e-07 9.75916e-08)
(0.000762171 3.27376e-07 1.59861e-07)
(0.000760502 4.29698e-07 8.20312e-08)
(0.00075895 2.0533e-07 5.65584e-08)
(0.000758019 1.4133e-07 1.24723e-07)
(-0.0104479 -0.000911398 0.000388254)
(-0.0216253 0.00593507 0.000583976)
(-0.00844157 -0.00567021 -0.00188441)
(-0.00729061 -0.00618043 0.000844126)
(0.00600534 -0.000145677 -0.00207984)
(0.00062975 0.000425178 -6.23352e-05)
(0.000898022 -3.0244e-06 3.19256e-06)
(0.000434884 -1.17543e-05 -7.11697e-07)
(0.000868446 7.63572e-06 -1.03938e-06)
(0.000805699 -5.79994e-06 -6.01698e-08)
(0.000818628 -2.43442e-06 1.9692e-07)
(0.000814696 -1.7988e-06 5.22113e-08)
(0.00081318 -1.34138e-06 6.47214e-08)
(0.000811438 -8.64927e-07 5.55434e-08)
(0.000809819 -4.26061e-07 5.12787e-08)
(0.000808041 -2.88503e-07 4.77311e-08)
(0.000806416 -3.83273e-07 5.12505e-08)
(0.000804724 -3.81544e-07 8.27366e-08)
(0.00080324 -5.5594e-07 2.97338e-08)
(0.000801839 -5.08048e-07 3.43208e-08)
(0.000800323 -3.30427e-07 7.67587e-08)
(0.000798877 -2.54857e-07 5.33364e-08)
(0.000797187 -3.12262e-07 -1.44652e-08)
(0.000795541 -2.18757e-07 6.62351e-08)
(0.000794071 -4.58672e-08 1.96203e-07)
(0.000792531 1.16047e-07 3.30452e-08)
(0.000790975 2.38888e-07 6.02406e-08)
(0.000789582 3.89648e-07 5.96552e-08)
(0.000788416 7.22783e-07 -1.27927e-08)
(0.000786752 5.37674e-07 4.09116e-08)
(0.000784935 3.18211e-07 8.21959e-08)
(0.000783506 4.24927e-07 4.74922e-08)
(0.000781977 -1.50206e-07 9.2138e-08)
(0.000780505 -1.32674e-07 5.26409e-08)
(0.000779177 9.01571e-08 6.32066e-08)
(0.000777808 2.3811e-08 4.84412e-08)
(0.000776316 -4.19643e-08 4.05454e-08)
(0.000774934 2.42507e-08 4.84235e-08)
(0.000773358 -1.80321e-07 1.34945e-08)
(0.000771733 -5.96654e-08 2.21027e-08)
(0.000770329 1.73564e-08 3.57078e-08)
(0.000769103 1.34251e-07 3.00633e-08)
(0.000767759 3.38963e-07 6.77086e-08)
(0.000766237 6.17994e-07 -1.04641e-07)
(0.000764768 2.28846e-07 5.04615e-08)
(0.000763523 1.42935e-07 1.12195e-07)
(0.000762325 1.10163e-07 5.88569e-08)
(0.000760507 3.39922e-07 4.10589e-08)
(0.000758813 2.05549e-07 4.91436e-08)
(0.000757692 2.75679e-07 1.50597e-07)
(-0.000771357 -0.00759362 0.000951148)
(0.000143968 0.00679166 -0.000212493)
(0.00408506 -0.00463412 -1.26918e-05)
(0.00498738 -0.00332 0.000742466)
(-0.00402351 -0.00451834 -0.000561376)
(0.00239856 0.00579043 -4.59939e-05)
(0.00160635 0.00143116 0.000111814)
(0.000489119 -2.32814e-05 -9.48575e-07)
(0.00090001 -1.04365e-05 -1.15094e-06)
(0.000812407 -6.66464e-06 -5.47759e-07)
(0.000823445 -3.0697e-06 1.7522e-07)
(0.000816577 -1.951e-06 1.53304e-08)
(0.000814467 -8.69761e-07 8.68897e-08)
(0.000812536 -5.82721e-07 5.10268e-08)
(0.000810256 -5.24237e-07 4.43064e-08)
(0.000808188 -2.87716e-07 5.25565e-08)
(0.000806517 -9.31499e-08 4.96045e-08)
(0.000804802 -6.70586e-08 4.92408e-08)
(0.000802961 2.37358e-07 7.91171e-08)
(0.00080177 4.19105e-07 1.07136e-07)
(0.000800449 1.50227e-07 6.70058e-08)
(0.000798735 1.91246e-07 6.74402e-08)
(0.000797325 2.90339e-08 6.92696e-08)
(0.000795743 5.29902e-08 9.56906e-08)
(0.000794207 7.46032e-08 8.18264e-08)
(0.000792719 -9.24916e-08 6.70949e-08)
(0.000791246 1.7689e-07 6.84406e-08)
(0.000789804 3.22936e-07 5.38925e-08)
(0.000788047 3.9046e-07 1.41779e-08)
(0.000786271 2.08945e-07 6.13618e-08)
(0.000785104 7.91109e-08 7.91167e-08)
(0.000783578 -1.82046e-07 2.1112e-08)
(0.000781889 2.70257e-08 -8.51822e-09)
(0.000780563 3.91918e-08 5.05089e-08)
(0.000779146 1.25748e-07 5.04623e-08)
(0.00077768 -2.44501e-08 5.1366e-08)
(0.000776346 -8.44679e-08 6.16949e-08)
(0.00077467 -2.74222e-07 5.66088e-08)
(0.000773069 -2.30169e-07 4.5116e-08)
(0.000771891 -1.97841e-07 -5.9011e-08)
(0.000770515 1.65471e-08 8.52977e-08)
(0.000769082 1.00341e-07 3.94855e-07)
(0.000767834 6.11321e-08 1.15787e-08)
(0.000766271 4.41959e-08 4.12209e-08)
(0.000764734 -8.38822e-08 7.19129e-08)
(0.000763613 -1.82288e-07 5.06515e-08)
(0.000762416 -4.77389e-07 1.76752e-08)
(0.00076062 -8.97581e-07 -1.37989e-08)
(0.000758863 -2.84219e-07 5.76364e-08)
(0.00075742 2.61796e-08 5.04292e-08)
(-0.00455321 0.0064696 0.000326627)
(-0.00905219 0.00324433 4.95353e-05)
(-0.00116986 0.00272218 -0.000470824)
(0.00470926 0.00198698 0.000421349)
(0.00138083 0.00746281 0.000280271)
(0.001566 -0.00352537 0.000138545)
(0.00196963 -1.86036e-05 0.000109228)
(0.000489424 -9.73575e-06 -1.21653e-06)
(0.0009042 4.56364e-06 -1.24875e-06)
(0.000815047 4.14581e-06 -5.76757e-07)
(0.000824567 1.83564e-06 1.67433e-07)
(0.00081747 9.60727e-07 1.19124e-08)
(0.000814904 7.06632e-07 2.72581e-08)
(0.000811878 2.96408e-07 4.6012e-08)
(0.000810193 -2.19986e-08 7.22793e-08)
(0.000808583 1.17931e-08 9.39458e-08)
(0.000806694 4.71566e-08 5.08325e-08)
(0.000805137 1.87999e-07 5.23665e-08)
(0.000803847 1.55466e-07 2.50377e-08)
(0.000801729 5.4788e-07 1.49973e-07)
(0.000800037 3.74426e-07 -1.50256e-07)
(0.000798725 3.12544e-07 3.97472e-08)
(0.000797014 1.64429e-07 5.27127e-08)
(0.000795597 1.70743e-07 6.63238e-08)
(0.00079389 1.9133e-07 4.69608e-08)
(0.000792658 2.41991e-07 -2.45319e-08)
(0.000791494 -9.97105e-09 3.93584e-08)
(0.000789846 -1.33966e-07 -6.7256e-09)
(0.000788271 -3.35139e-08 2.27767e-08)
(0.00078636 -3.19764e-07 -5.48796e-08)
(0.000784445 -2.0992e-07 2.65037e-08)
(0.000783439 -2.22671e-07 1.84903e-07)
(0.000782253 -1.85607e-07 1.7717e-08)
(0.000780627 -1.27895e-07 4.92538e-08)
(0.000779097 -1.22838e-07 -2.34786e-08)
(0.000777544 -7.37221e-08 4.30776e-08)
(0.000776004 -5.63087e-08 5.93044e-08)
(0.000774754 -1.25573e-07 5.2106e-08)
(0.000773455 8.24211e-08 6.18171e-08)
(0.000772042 9.83732e-08 5.83256e-08)
(0.000770701 1.50758e-07 5.4269e-08)
(0.000769158 3.75615e-07 2.60941e-07)
(0.000767688 2.70189e-07 4.42074e-08)
(0.000766056 1.59986e-08 5.18099e-08)
(0.000764486 -4.40463e-08 3.96128e-08)
(0.000763034 -1.90904e-07 4.45631e-08)
(0.000761435 -5.09494e-07 -6.89618e-08)
(0.000760754 -7.54387e-07 7.382e-08)
(0.000759969 -5.32448e-07 1.14043e-07)
(0.000758015 -3.36453e-07 1.26393e-07)
(-0.0043485 -0.0221475 0.000509934)
(0.00884621 -0.0154521 -0.000715428)
(-0.00143389 -0.00801913 -0.000181576)
(-0.00463972 0.000413309 -0.00055231)
(-0.00367181 0.00635776 -0.000636026)
(0.00506071 0.000832384 0.000176022)
(0.00162083 -0.000677777 -2.08596e-05)
(0.000489496 1.86856e-05 3.57321e-07)
(0.000868684 1.40195e-06 -1.4047e-06)
(0.000808771 9.3907e-06 -4.1958e-07)
(0.000819452 3.86054e-06 1.64029e-07)
(0.000815162 2.64398e-06 3.59638e-08)
(0.000813635 1.34232e-06 5.38325e-08)
(0.000811625 8.89012e-07 4.9855e-08)
(0.000809901 6.41606e-07 5.22643e-08)
(0.000808275 3.72444e-07 5.20742e-08)
(0.000806737 3.01073e-07 4.73344e-08)
(0.000804937 2.42059e-07 4.39295e-08)
(0.000803409 2.21726e-07 4.37618e-08)
(0.000802041 -1.58842e-07 5.98788e-08)
(0.000800152 1.10388e-07 2.1725e-08)
(0.00079847 -2.34195e-08 4.48609e-08)
(0.000797146 2.32395e-07 6.22716e-08)
(0.000795775 1.17301e-07 4.63835e-08)
(0.000794294 2.74626e-07 1.07922e-08)
(0.000792467 2.34728e-07 1.00622e-07)
(0.000790776 -9.87386e-08 7.31403e-08)
(0.000789776 -2.95374e-07 4.6599e-08)
(0.000787818 -8.70282e-07 -5.79261e-08)
(0.000786053 -8.41608e-07 5.4219e-08)
(0.000785228 -5.38732e-07 2.90527e-08)
(0.000783612 -6.68368e-08 1.05138e-07)
(0.00078201 -9.4444e-08 4.06321e-08)
(0.000780643 -1.31883e-07 7.44812e-08)
(0.000779215 -1.83582e-07 8.04473e-08)
(0.000777765 -5.53123e-08 5.53829e-08)
(0.000776281 1.20042e-08 5.10921e-08)
(0.000774844 1.60227e-07 8.46582e-08)
(0.000773348 6.05815e-08 6.06815e-08)
(0.000771975 2.12919e-07 -5.45979e-08)
(0.00077086 1.69206e-09 4.49019e-08)
(0.00076923 -2.27811e-07 -2.03716e-08)
(0.000767384 -1.7573e-07 5.83354e-08)
(0.000765878 -2.65278e-07 5.49192e-08)
(0.000764477 -9.43019e-08 9.95588e-09)
(0.000763034 -3.46e-08 5.08293e-08)
(0.000761716 -4.12648e-08 1.13256e-07)
(0.000760596 1.6178e-07 4.07042e-08)
(0.000759395 -2.85131e-07 1.87205e-08)
(0.000758504 -3.16239e-07 5.60784e-08)
(0.0188468 -0.0118088 -0.00150116)
(-0.0352332 0.0291519 -0.00175131)
(-0.0111384 -0.00476871 -0.00173376)
(-0.00050001 0.00515554 0.00065229)
(-0.00428287 -0.00102867 -0.000298335)
(0.00235457 0.000769135 0.000201539)
(0.000497555 0.000170454 4.57769e-05)
(0.000869458 5.27795e-05 -1.79335e-06)
(0.000816688 1.06029e-06 -3.3126e-07)
(0.000818169 8.48471e-06 2.9228e-08)
(0.000816093 4.18574e-06 3.2085e-08)
(0.000814305 2.96833e-06 4.49257e-08)
(0.0008127 1.81978e-06 4.66802e-08)
(0.000810996 1.09245e-06 4.63505e-08)
(0.000809543 7.19636e-07 5.12769e-08)
(0.000808154 4.17861e-07 5.00475e-08)
(0.000806528 7.03186e-08 1.22001e-07)
(0.000805036 -1.06009e-07 5.72048e-08)
(0.000803345 -3.12393e-08 8.48704e-08)
(0.000801589 -1.58802e-07 -5.37733e-09)
(0.000800206 -2.01309e-07 4.69627e-08)
(0.000798876 -6.64446e-08 6.40649e-08)
(0.000797189 -1.76278e-07 9.61548e-09)
(0.000795649 -2.11141e-07 4.69797e-08)
(0.000794035 -5.5419e-07 1.14674e-07)
(0.000792191 -4.6704e-07 5.61726e-08)
(0.000790831 -2.03736e-07 4.29241e-08)
(0.000788885 -2.58498e-07 3.82238e-08)
(0.000787593 -4.22496e-07 1.29477e-07)
(0.000786781 1.47403e-07 7.14745e-08)
(0.000785418 2.60375e-07 9.31945e-08)
(0.000783998 6.99809e-09 4.23388e-08)
(0.000782173 3.02544e-08 4.44204e-08)
(0.000780517 6.87704e-08 5.58864e-08)
(0.000779194 2.47865e-08 4.45817e-08)
(0.00077779 -6.32347e-08 6.46866e-08)
(0.000776274 -8.03863e-08 5.79448e-08)
(0.000774814 -1.72255e-07 5.88859e-08)
(0.00077352 -4.74331e-08 4.36319e-08)
(0.000771968 -4.32227e-08 6.33938e-08)
(0.00077015 -1.26065e-07 2.02844e-08)
(0.000768938 -2.30236e-07 5.74063e-08)
(0.000767643 -2.01525e-07 5.78585e-08)
(0.00076616 -1.07655e-07 4.6552e-08)
(0.000764776 -5.04847e-08 7.01085e-08)
(0.000763101 1.0839e-07 4.74442e-08)
(0.000761682 4.29161e-07 4.66615e-08)
(0.00076045 3.60596e-07 5.34281e-08)
(0.00075938 2.70916e-07 1.13414e-08)
(0.000758766 -2.36191e-08 -1.00286e-08)
(-0.00273323 0.00483292 0.000554829)
(0.00702649 -0.00645889 -0.00271539)
(0.000639796 0.00597499 0.000483495)
(0.0105933 -0.0013733 0.000234817)
(0.00398331 0.00317564 -0.000119731)
(-0.00196001 0.00140279 -7.50392e-05)
(0.000338956 4.28936e-06 5.70743e-07)
(0.000828015 1.4523e-05 -2.14203e-06)
(0.000807042 9.49303e-06 -1.72586e-08)
(0.000812608 6.40619e-06 9.08261e-08)
(0.000812521 3.80678e-06 5.08642e-08)
(0.000812185 2.54247e-06 4.15767e-08)
(0.000811277 1.49582e-06 4.18033e-08)
(0.000810242 6.78223e-07 5.11338e-08)
(0.000809052 5.18933e-07 4.78412e-08)
(0.00080746 3.09431e-07 1.07987e-07)
(0.000806081 1.46397e-07 8.85593e-08)
(0.000804809 2.01082e-08 1.0187e-07)
(0.000803343 -1.84668e-07 5.37167e-08)
(0.00080183 -1.06041e-07 1.36632e-07)
(0.000800268 -7.96051e-08 5.66907e-08)
(0.000798503 -2.34057e-07 7.05975e-08)
(0.000796967 -3.96317e-07 -9.43669e-10)
(0.000795306 -3.47203e-07 5.40695e-08)
(0.000793978 -4.96891e-07 -1.77621e-08)
(0.000792908 -3.99281e-07 5.36768e-08)
(0.00079104 -2.49351e-07 2.33212e-08)
(0.000789505 -1.34694e-07 5.36255e-08)
(0.000788326 2.94536e-07 1.07949e-07)
(0.000786907 3.18832e-07 -7.70452e-09)
(0.000785052 3.90522e-07 1.70053e-09)
(0.000783322 2.185e-07 4.36196e-08)
(0.000782087 -9.57266e-08 -1.84753e-07)
(0.000780636 -8.46332e-08 1.71612e-08)
(0.00077905 -6.54527e-08 2.19419e-08)
(0.000777634 -2.21826e-07 1.33052e-08)
(0.000776146 -2.79068e-07 -7.81801e-08)
(0.000774886 -2.13153e-07 4.38581e-08)
(0.00077351 -3.31668e-07 8.87378e-08)
(0.000771877 -3.30701e-07 4.06778e-08)
(0.000770627 -1.88808e-07 5.89522e-08)
(0.000769137 1.78322e-10 2.44786e-08)
(0.000767539 3.51233e-07 4.28779e-08)
(0.000766068 1.63452e-07 4.00257e-08)
(0.000764748 2.20631e-07 7.05234e-08)
(0.000763633 1.84646e-07 5.15876e-08)
(0.000762029 4.00707e-07 3.21617e-08)
(0.000760396 4.85847e-07 4.14697e-08)
(0.000758914 7.24202e-07 -6.29431e-08)
(0.000758192 4.70581e-07 8.74314e-08)
(-0.00381414 -0.00273015 -4.70537e-05)
(0.00479398 0.00491228 0.000181551)
(0.00383659 -0.00129859 0.000236273)
(0.0017874 -0.000469465 9.32712e-05)
(-0.00181964 -0.00591344 8.7325e-05)
(0.00166065 -0.000376648 1.12879e-05)
(0.000448142 -8.64162e-06 -2.60884e-06)
(0.000819676 9.43629e-06 -2.35198e-06)
(0.000806054 4.63367e-06 -2.25667e-07)
(0.000811023 2.62817e-06 7.05906e-08)
(0.000811235 1.4289e-06 7.81289e-08)
(0.000811398 6.76335e-07 8.35514e-08)
(0.000810358 2.72217e-07 6.17505e-08)
(0.000809768 5.69894e-07 6.32361e-08)
(0.000809078 2.95836e-07 5.16031e-08)
(0.000807686 1.16288e-07 6.73698e-08)
(0.000806165 1.89884e-07 4.70169e-08)
(0.000804622 8.35128e-08 8.55359e-08)
(0.000803187 -5.79734e-08 8.35097e-08)
(0.000801721 -1.26966e-07 7.3935e-08)
(0.000800047 -1.85714e-07 1.95602e-08)
(0.000798483 -2.24069e-07 3.44308e-08)
(0.00079705 -5.21652e-08 5.73535e-08)
(0.000795527 -1.01541e-07 4.4953e-08)
(0.000793974 1.11897e-07 6.83497e-08)
(0.000792504 -3.48677e-08 5.91728e-08)
(0.000791166 -4.06487e-08 1.12468e-07)
(0.000789566 9.71253e-08 4.1148e-08)
(0.000788159 1.23759e-07 2.82251e-08)
(0.000786899 -1.00661e-07 4.18345e-08)
(0.00078529 -1.36153e-07 1.1061e-07)
(0.000783389 -1.40744e-07 -2.25989e-08)
(0.000781795 -2.02247e-07 -6.74105e-08)
(0.000780556 -3.17236e-07 1.86101e-07)
(0.000779024 -9.15688e-08 6.34648e-08)
(0.000777525 -2.69809e-08 6.66338e-08)
(0.000776287 -2.37729e-08 4.24819e-08)
(0.000774751 -1.72933e-07 5.04652e-08)
(0.000773376 -6.55714e-07 5.6257e-08)
(0.000772149 -2.84569e-07 6.0934e-08)
(0.000770567 -1.84035e-07 5.56916e-08)
(0.000769613 -3.30626e-07 8.46765e-08)
(0.000767847 -2.85393e-07 2.35351e-08)
(0.000765995 2.12649e-07 1.15322e-07)
(0.000764801 6.51315e-08 1.97735e-08)
(0.000763324 6.4878e-08 4.59476e-08)
(0.000762054 -1.14895e-07 1.16446e-08)
(0.000760849 8.53169e-08 4.49082e-08)
(0.000759346 2.07773e-07 -3.41114e-08)
(0.000757275 2.83634e-07 6.59327e-08)
(0.00420549 0.00244403 0.000667903)
(0.00733885 0.00526437 0.000133873)
(-2.91813e-05 0.00210657 -0.00079701)
(0.0108928 0.00730119 0.000316179)
(0.00669391 -0.00649525 0.00111365)
(0.00149605 -0.00603451 0.00172863)
(0.00129171 9.56367e-05 -5.458e-07)
(0.00134699 9.05464e-06 3.33083e-07)
(0.00133469 -1.94015e-07 3.04664e-07)
(0.00134966 -8.3354e-07 3.47417e-07)
(0.00135124 -6.72489e-07 3.83866e-07)
(0.00135186 -6.61338e-07 2.56765e-07)
(0.00135223 -1.26205e-07 2.83853e-07)
(0.00135067 3.98169e-07 3.61245e-07)
(0.00134769 2.23367e-07 3.47723e-07)
(0.00134568 2.0666e-07 3.30111e-07)
(0.00134346 -1.49471e-07 3.38227e-07)
(0.00134089 -7.9111e-08 3.59748e-07)
(0.0013385 -1.07516e-07 3.90857e-07)
(0.00133615 -8.92919e-08 5.16392e-07)
(0.00133365 -1.40379e-07 3.31877e-07)
(0.00133108 1.82078e-07 3.74717e-07)
(0.0013285 -3.16562e-08 2.43957e-07)
(0.00132592 6.64149e-08 2.90235e-07)
(0.00132347 4.36053e-07 3.43245e-07)
(0.00132117 7.44839e-07 3.0487e-07)
(0.00131868 4.8395e-07 3.07974e-07)
(0.0013163 2.62921e-07 3.31657e-07)
(0.00131349 4.05286e-07 3.55877e-07)
(0.00131085 -2.40606e-07 4.99709e-07)
(0.00130828 -8.04608e-07 3.54523e-07)
(0.00130535 -7.94599e-07 1.60013e-07)
(0.00130309 -5.0547e-07 3.35729e-07)
(0.00130138 -3.49202e-08 3.7181e-07)
(0.00129914 2.84748e-07 3.3616e-07)
(0.00129628 3.58904e-07 3.41901e-07)
(0.00129331 4.00597e-07 3.63829e-07)
(0.00129023 5.08398e-07 2.15297e-07)
(0.0012889 1.1211e-06 3.20478e-07)
(0.00128737 4.72851e-07 5.02423e-07)
(0.00128433 8.43911e-08 2.85158e-07)
(0.0012817 -1.57537e-07 3.4818e-07)
(0.00128034 -1.26091e-06 3.66361e-07)
(0.00127751 -9.95748e-07 1.82779e-07)
(0.00127433 -5.99668e-07 2.70441e-07)
(0.00127233 -3.68618e-07 1.91762e-07)
(0.00127006 -3.0722e-07 2.99039e-07)
(0.00126802 -3.39766e-07 3.33985e-07)
(0.00126524 -6.05834e-07 3.42514e-07)
(0.00126254 -5.24238e-07 1.7615e-07)
(-0.00389765 -0.0275311 -0.00177746)
(0.00496786 -0.00157474 -5.90728e-05)
(-0.0173848 0.00424424 0.00199758)
(-0.051646 -0.0144517 0.0353468)
(0.0181506 0.00391552 0.000256849)
(0.00621312 0.0066731 -0.000298098)
(0.00123533 -3.48626e-05 1.97051e-05)
(0.0013857 -4.33863e-05 3.53183e-07)
(0.00133523 -2.50649e-05 3.29534e-07)
(0.00135349 -1.27758e-05 3.40329e-07)
(0.00135377 -6.65001e-06 3.38797e-07)
(0.00135396 -3.6492e-06 3.38123e-07)
(0.00135256 -1.82197e-06 3.63716e-07)
(0.00135042 -1.43104e-06 3.36574e-07)
(0.00134839 -7.30556e-07 3.37101e-07)
(0.00134581 -3.1775e-07 3.07299e-07)
(0.00134337 1.56491e-07 3.27898e-07)
(0.00134119 3.55621e-07 3.97017e-07)
(0.00133871 8.09513e-07 3.08222e-07)
(0.00133612 4.2304e-07 3.06456e-07)
(0.00133366 5.76189e-07 3.97362e-07)
(0.00133091 3.90333e-07 3.72586e-07)
(0.0013283 7.17554e-07 5.9574e-07)
(0.0013265 6.76137e-07 5.67779e-07)
(0.00132412 5.53241e-07 1.55024e-07)
(0.0013209 2.7355e-07 3.22075e-07)
(0.00131807 6.93411e-08 3.70544e-07)
(0.00131589 -1.78858e-07 3.28661e-07)
(0.00131303 -7.80397e-07 3.08666e-07)
(0.00131006 -5.16205e-07 9.44128e-08)
(0.0013081 -4.24559e-07 3.76987e-08)
(0.00130597 -1.52459e-07 2.65902e-07)
(0.00130392 8.88892e-07 4.99623e-07)
(0.00130189 9.28778e-07 4.4527e-07)
(0.00129888 2.26964e-07 3.2455e-07)
(0.00129609 2.34712e-07 3.12462e-07)
(0.00129403 3.24855e-07 3.11396e-07)
(0.00129212 7.23836e-07 1.14815e-07)
(0.00128885 1.27913e-06 3.30387e-07)
(0.00128563 5.48357e-07 7.92607e-07)
(0.00128353 2.21642e-07 3.39675e-07)
(0.00128091 1.80982e-08 3.65039e-07)
(0.00127865 -2.77653e-07 3.04177e-07)
(0.00127756 -1.18004e-06 4.24119e-07)
(0.00127551 -3.38972e-07 3.59349e-07)
(0.00127261 -2.35095e-07 3.26256e-07)
(0.00127021 1.82069e-07 3.66971e-07)
(0.00126772 -4.52048e-08 3.09853e-07)
(0.00126527 -2.79049e-07 3.69334e-08)
(0.00126352 -3.42593e-07 4.02458e-07)
(0.00442072 -0.0165413 -0.00326666)
(0.00193481 0.00724418 0.00246226)
(9.83212e-05 -0.00768368 0.00964777)
(0.0132555 -0.0225559 -0.0180672)
(0.0114538 0.0304107 0.00376928)
(-0.0247651 -0.0031532 -0.00628466)
(0.000829236 -0.000399154 5.22703e-05)
(0.00154558 -8.10631e-05 4.37989e-07)
(0.00137427 5.93208e-06 1.61708e-07)
(0.00137274 -1.0572e-05 3.45251e-07)
(0.00136267 -4.72865e-06 3.85941e-07)
(0.0013579 -3.39987e-06 3.39526e-07)
(0.00135501 -2.36323e-06 3.38111e-07)
(0.00135204 -1.59899e-06 3.37814e-07)
(0.00134909 -1.01183e-06 3.37632e-07)
(0.00134679 -6.96195e-07 3.3352e-07)
(0.0013443 -3.43045e-07 3.33741e-07)
(0.0013417 -2.02648e-07 1.90085e-07)
(0.00133858 -3.61313e-07 3.72393e-07)
(0.00133586 -1.97763e-07 3.23104e-07)
(0.0013336 -1.26033e-07 2.57411e-07)
(0.00133125 -2.56429e-09 3.30011e-07)
(0.00132885 3.29011e-07 3.06248e-07)
(0.00132571 3.09693e-07 2.93436e-07)
(0.00132296 -1.40539e-07 3.45239e-07)
(0.00132056 -2.21514e-07 3.24562e-07)
(0.00131812 -1.19438e-07 1.11089e-07)
(0.00131524 -3.95558e-08 3.20623e-07)
(0.00131308 -8.64312e-08 2.18199e-07)
(0.00131131 7.47941e-07 2.38397e-07)
(0.00130874 9.29116e-07 4.74223e-07)
(0.00130699 8.91999e-07 4.8406e-07)
(0.00130443 7.87535e-07 1.98172e-07)
(0.00130054 3.78808e-07 1.34508e-07)
(0.00129826 -2.74479e-08 3.69744e-07)
(0.0012964 1.66222e-07 3.35343e-07)
(0.00129392 1.91196e-07 2.89134e-07)
(0.00129142 4.77407e-08 3.49917e-07)
(0.00128868 -2.47642e-07 3.0254e-07)
(0.00128604 1.07014e-07 3.13249e-07)
(0.00128366 1.9106e-07 3.56451e-07)
(0.00128108 3.58502e-07 1.40516e-07)
(0.00127885 1.00808e-06 3.12349e-07)
(0.00127744 1.15852e-06 3.4463e-07)
(0.00127551 6.29912e-07 3.09983e-07)
(0.00127298 4.76862e-07 4.06882e-07)
(0.0012703 5.37778e-07 5.18679e-07)
(0.00126744 6.83568e-07 3.3518e-07)
(0.00126487 3.36301e-07 3.31025e-07)
(0.00126332 2.22912e-07 5.23948e-07)
(-0.0143893 -0.00371713 -0.00155782)
(0.0034071 0.0168863 0.00279703)
(0.00460503 -0.00764134 -0.00452959)
(0.0111895 -0.00283266 0.00560509)
(-0.00391508 0.0051698 0.00510393)
(0.00736463 -0.0110845 -0.00360215)
(0.000558539 8.5963e-05 -5.01721e-05)
(0.0012796 -3.55254e-05 9.27667e-07)
(0.00144293 1.18542e-05 3.10023e-07)
(0.00134046 -9.79142e-06 6.09404e-07)
(0.00136278 -4.07305e-06 3.42997e-07)
(0.00135694 -2.99933e-06 3.38458e-07)
(0.00135483 -2.20792e-06 3.37847e-07)
(0.00135212 -1.4055e-06 3.37758e-07)
(0.00134953 -6.99789e-07 3.37044e-07)
(0.00134665 -4.52685e-07 3.36463e-07)
(0.00134399 -5.93329e-07 3.3444e-07)
(0.00134117 -5.76396e-07 3.45548e-07)
(0.00133872 -8.99347e-07 3.24795e-07)
(0.00133642 -8.11268e-07 3.02761e-07)
(0.0013339 -5.54524e-07 3.51295e-07)
(0.00133148 -4.38135e-07 3.37151e-07)
(0.00132869 -5.68659e-07 2.66804e-07)
(0.00132591 -4.06411e-07 3.92963e-07)
(0.00132346 -1.34666e-07 4.73639e-07)
(0.00132093 1.70862e-07 2.717e-07)
(0.0013183 4.00236e-07 3.89458e-07)
(0.00131593 7.09555e-07 3.94713e-07)
(0.00131401 1.33229e-06 2.20173e-07)
(0.00131132 1.02212e-06 3.05211e-07)
(0.00130827 7.10679e-07 3.77852e-07)
(0.00130578 8.79404e-07 3.01054e-07)
(0.00130328 -1.19244e-07 4.0167e-07)
(0.00130087 -1.77355e-07 3.28516e-07)
(0.00129862 1.58465e-07 3.28016e-07)
(0.00129637 4.41439e-08 3.10711e-07)
(0.00129388 -7.06493e-08 3.05516e-07)
(0.00129157 5.71386e-09 3.38672e-07)
(0.00128892 -3.63299e-07 1.92723e-07)
(0.00128617 -1.9401e-07 2.76395e-07)
(0.00128384 3.74249e-08 2.97236e-07)
(0.00128192 3.4652e-07 3.17424e-07)
(0.00127965 6.57646e-07 4.578e-07)
(0.00127708 1.0089e-06 -4.06557e-08)
(0.00127465 3.63492e-07 3.25018e-07)
(0.00127249 2.18023e-07 5.60813e-07)
(0.00127046 1.31951e-07 3.28899e-07)
(0.00126747 4.8464e-07 3.04103e-07)
(0.00126469 3.35265e-07 3.75641e-07)
(0.00126282 4.49214e-07 5.19549e-07)
(0.00864244 0.0166991 -0.050691)
(-0.0211913 0.0101231 -0.0133153)
(0.000238694 -0.00765713 0.00463892)
(0.00275991 -0.0142735 0.00252051)
(0.000984289 -0.00139225 -0.00438431)
(0.00589285 0.000863403 -0.00102013)
(0.00111603 0.000576354 -0.00014274)
(0.00144777 -8.0575e-05 2.98256e-08)
(0.00149739 -1.96788e-05 6.04534e-07)
(0.00135255 -1.23438e-05 4.19939e-07)
(0.00137123 -5.78534e-06 3.61569e-07)
(0.00136027 -3.59746e-06 3.41009e-07)
(0.00135703 -1.65322e-06 3.08608e-07)
(0.00135394 -1.09075e-06 3.37914e-07)
(0.00135029 -9.16642e-07 3.62551e-07)
(0.00134693 -5.17627e-07 3.56805e-07)
(0.00134415 -1.87284e-07 3.37111e-07)
(0.00134132 -1.44271e-07 3.34154e-07)
(0.0013383 3.62784e-07 3.2772e-07)
(0.00133629 6.51624e-07 3.38439e-07)
(0.00133407 1.88935e-07 3.67502e-07)
(0.00133123 2.795e-07 5.73358e-07)
(0.00132889 4.27433e-08 3.95849e-07)
(0.00132626 5.56097e-08 3.78061e-07)
(0.00132369 1.33584e-07 2.65991e-07)
(0.00132123 -1.81505e-07 3.66892e-07)
(0.00131879 2.68116e-07 3.83528e-07)
(0.0013164 5.10272e-07 3.2922e-07)
(0.00131346 6.72215e-07 3.01493e-07)
(0.00131052 3.83807e-07 5.17003e-07)
(0.00130855 1.85304e-07 2.97988e-07)
(0.00130595 -2.70269e-07 2.63436e-07)
(0.00130311 1.17575e-07 3.13205e-07)
(0.00130089 1.02393e-07 3.25345e-07)
(0.00129854 2.37423e-07 3.11611e-07)
(0.00129611 -2.56727e-08 3.24082e-07)
(0.00129387 -1.55038e-07 3.15886e-07)
(0.00129105 -4.43564e-07 3.20351e-07)
(0.00128843 -4.03393e-07 3.20683e-07)
(0.00128655 -3.32832e-07 7.12054e-08)
(0.00128434 6.68005e-08 4.78959e-07)
(0.00128185 2.53416e-07 1.0236e-06)
(0.00127967 1.06153e-07 1.29342e-07)
(0.00127706 5.5114e-08 2.38637e-07)
(0.00127452 -2.16618e-07 5.07499e-07)
(0.00127269 -3.45875e-07 3.19082e-07)
(0.00127063 -8.31337e-07 1.31225e-07)
(0.0012677 -1.43649e-06 2.76248e-07)
(0.00126482 -4.74479e-07 3.67492e-07)
(0.00126234 6.05897e-08 3.23832e-07)
(0.00134657 0.00337621 -0.000698819)
(-0.00123153 -0.00824168 0.0012402)
(-0.00705578 0.00854349 -0.00324421)
(0.000757329 -0.0172109 -0.0042951)
(-0.0215967 0.00603584 0.000512213)
(-0.00193902 -0.00342498 0.00127852)
(0.000693092 0.000824958 -3.1203e-05)
(0.00146198 -4.15657e-05 5.77039e-08)
(0.0015067 5.075e-06 5.63908e-07)
(0.00135809 5.25655e-06 3.80029e-07)
(0.00137379 2.02555e-06 3.02275e-07)
(0.00136215 9.65567e-07 3.1411e-07)
(0.00135799 7.77452e-07 1.78379e-08)
(0.00135306 2.55635e-07 3.35532e-07)
(0.00135025 -1.52067e-07 3.68559e-07)
(0.00134757 -7.12109e-08 4.12841e-07)
(0.00134446 2.22552e-08 3.36695e-07)
(0.00134186 2.60838e-07 3.18402e-07)
(0.00133972 2.21419e-07 3.11915e-07)
(0.0013362 8.59583e-07 5.21364e-07)
(0.00133344 6.20764e-07 4.07561e-08)