/*--------------------------------*- C++ -*----------------------------------*\
| =========                 |                                                 |
| \\      /  F ield         | OpenFOAM: The Open Source CFD Toolbox           |
|  \\    /   O peration     | Version:  5.0                                   |
|   \\  /    A nd           | Web:      www.OpenFOAM.org                      |
|    \\/     M anipulation  |                                                 |
\*---------------------------------------------------------------------------*/
FoamFile
{
    version     2.0;
    format      ascii;
    class       volVectorField;
    location    "1.3";
    object      U_0;
}
// * * * * * * * * * * * * * * * * * * * * * * * * * * * * * * * * * * * * * //

dimensions      [0 1 -1 0 0 0 0];

internalField   nonuniform List<vector> 
7898
(
(-0.00139729 -0.00616575 0.0003629)
(0.00201155 0.00212763 -0.000263934)
(-0.0035564 -0.00465136 0.000189792)
(0.00673748 0.00829318 0.00377166)
(0.001728 0.000631714 -7.83025e-05)
(0.00148506 -0.00128422 0.000136926)
(0.000477707 2.63203e-05 -1.02408e-06)
(0.000847303 2.33197e-05 -2.34319e-06)
(0.000819847 1.31058e-05 -1.02288e-07)
(0.000821106 8.42577e-06 9.62924e-08)
(0.000817481 5.42942e-06 9.52307e-08)
(0.00081526 3.39275e-06 6.95496e-08)
(0.00081371 2.2723e-06 2.2306e-07)
(0.000812119 1.43045e-06 6.34747e-08)
(0.000810182 8.68859e-07 5.03066e-08)
(0.000808493 5.84905e-07 3.81726e-08)
(0.000806787 2.05885e-07 5.052e-08)
(0.000805111 1.09639e-07 8.64441e-08)
(0.000803477 -1.13564e-08 8.1909e-08)
(0.00080209 -1.70494e-07 1.11368e-07)
(0.000800723 -1.18741e-07 6.35167e-08)
(0.00079879 4.28882e-08 4.84868e-08)
(0.000797325 1.56056e-07 6.57929e-08)
(0.000796045 4.20971e-08 4.8126e-08)
(0.000794352 1.39319e-07 1.81386e-10)
(0.000792734 2.52706e-07 7.3394e-08)
(0.000791273 2.17311e-07 3.40351e-08)
(0.000790058 8.47522e-08 5.21905e-08)
(0.000788065 1.57972e-07 4.65468e-08)
(0.000786082 -2.87768e-07 7.53996e-08)
(0.000784828 -6.46572e-07 -5.77555e-08)
(0.000783136 -4.98804e-07 1.85732e-08)
(0.000781595 -3.15444e-07 8.53675e-08)
(0.000780774 9.60046e-08 5.35414e-09)
(0.000779563 1.03707e-07 5.96905e-08)
(0.000777774 1.63003e-07 6.70594e-08)
(0.000775985 1.5113e-07 6.26039e-08)
(0.000774366 1.3962e-07 4.37336e-08)
(0.000772905 3.42458e-07 4.45661e-08)
(0.00077177 4.53788e-07 7.72629e-08)
(0.000770555 1.10705e-07 3.26306e-08)
(0.000768887 1.66516e-08 7.43741e-08)
(0.00076761 -2.20785e-07 9.30689e-08)
(0.000766117 -2.02721e-07 2.43323e-07)
(0.000764436 1.0868e-08 3.62238e-08)
(0.00076286 1.67214e-07 -7.76702e-08)
(0.000761733 4.87807e-08 5.12865e-08)
(0.000760651 -3.92787e-07 6.50305e-08)
(0.000758903 -3.92865e-07 -1.88718e-08)
(0.000757165 -2.39137e-07 8.49705e-08)
(-0.000486377 -0.0144383 -0.000482607)
(0.00146543 0.00495195 0.00110459)
(-0.00829519 0.00531021 0.000234566)
(0.00403707 -0.00166054 0.000816826)
(0.0189109 0.00888799 -5.16475e-05)
(0.000964486 -0.00360898 -3.68174e-05)
(0.000476089 1.81366e-05 8.77324e-07)
(0.000849945 1.76038e-05 -1.60947e-06)
(0.000808605 9.93233e-06 -1.08391e-07)
(0.000815534 6.99674e-06 1.25817e-07)
(0.000814041 4.69459e-06 6.17445e-08)
(0.000813435 3.10686e-06 5.70492e-08)
(0.000812188 2.13042e-06 4.72311e-08)
(0.000810767 1.26492e-06 5.0695e-08)
(0.000809549 7.78138e-07 5.24678e-08)
(0.000808035 5.10149e-07 2.4839e-08)
(0.000806541 4.33541e-07 5.78932e-08)
(0.000805115 4.79086e-07 9.23662e-08)
(0.000803578 6.32393e-07 5.06743e-08)
(0.000802019 4.43056e-07 2.85836e-08)
(0.00080051 3.31925e-07 9.57951e-08)
(0.000799095 2.29254e-07 6.08493e-08)
(0.000797281 6.14302e-07 1.89162e-08)
(0.000795773 4.25038e-07 3.20482e-08)
(0.000794401 2.76024e-07 6.10513e-08)
(0.000792691 4.67494e-08 9.86214e-08)
(0.00079108 -1.56704e-08 3.90081e-08)
(0.000789549 -2.00906e-07 4.96058e-08)
(0.000787776 -7.3725e-07 4.96232e-08)
(0.000785975 -4.27432e-07 6.71382e-08)
(0.000784819 -3.64798e-07 1.34065e-07)
(0.000783669 -1.73601e-07 5.43462e-08)
(0.000782459 4.59463e-07 2.02012e-07)
(0.00078089 7.49602e-07 2.76862e-07)
(0.000779047 3.07495e-07 4.58107e-08)
(0.000777569 1.40391e-07 3.39321e-08)
(0.000776194 7.23352e-08 4.22223e-08)
(0.000774761 1.88473e-07 5.8295e-08)
(0.000773257 2.85016e-07 4.15837e-08)
(0.000771585 4.14459e-07 6.60287e-09)
(0.000769991 1.22295e-08 5.79164e-08)
(0.00076856 -2.74605e-07 6.17725e-08)
(0.000767221 -5.19762e-07 2.24161e-08)
(0.000766176 -3.19711e-07 8.2692e-08)
(0.000764834 -9.433e-08 5.30012e-08)
(0.000763203 4.21065e-08 8.24993e-08)
(0.000761553 3.132e-07 7.31423e-08)
(0.000760092 2.75636e-09 4.62265e-08)
(0.00075874 -1.89101e-07 7.93586e-08)
(0.000757851 -2.14371e-07 2.45142e-08)
(-0.00357499 -0.0350309 0.000775349)
(0.00162817 0.0053698 0.000317823)
(-0.0237287 0.00144025 0.00188494)
(0.0362259 -0.0175348 0.00153567)
(8.84825e-05 -0.00121336 0.00120913)
(-0.045316 -0.00140763 -0.00108275)
(0.000312124 -9.35803e-05 1.63899e-05)
(0.000895396 -3.14933e-06 -9.90282e-07)
(0.000807188 2.41998e-05 -7.32795e-07)
(0.00081455 5.21983e-06 7.05648e-08)
(0.000812611 3.80886e-06 2.15278e-08)
(0.000812049 1.6966e-06 4.40636e-08)
(0.000811404 8.31414e-07 4.80713e-08)
(0.000810426 4.71698e-07 5.09499e-08)
(0.000809238 2.78614e-07 5.27123e-08)
(0.000808061 1.35083e-07 5.1662e-08)
(0.000806747 1.2957e-07 4.62486e-08)
(0.000805357 6.83231e-08 -1.89128e-08)
(0.00080343 -3.37954e-08 9.79406e-08)
(0.000801711 6.48425e-08 4.38888e-08)
(0.000800454 7.23159e-08 3.59467e-08)
(0.000799139 5.26195e-08 4.78374e-08)
(0.000797566 -6.80869e-08 2.79334e-08)
(0.000795618 9.4029e-08 -9.49929e-08)
(0.000793876 -1.31116e-07 8.30894e-08)
(0.000792367 -4.77429e-08 2.83603e-08)
(0.000790963 -7.87083e-08 6.16379e-08)
(0.000789159 -2.00773e-08 5.86312e-08)
(0.000787786 -1.76197e-08 -3.5649e-08)
(0.000786552 5.34345e-07 2.71564e-08)
(0.000785148 8.23852e-07 9.19444e-08)
(0.000784166 7.53946e-07 7.22169e-08)
(0.000782746 4.67209e-07 2.92899e-07)
(0.00078058 1.85899e-07 1.16383e-07)
(0.000778798 8.45503e-08 9.37095e-08)
(0.000777478 1.47476e-07 5.48157e-08)
(0.000776044 1.08704e-07 1.26032e-07)
(0.000774629 2.45334e-08 4.68715e-08)
(0.000773185 1.30367e-07 4.40031e-08)
(0.000771426 3.04342e-08 3.20264e-08)
(0.000769693 -1.39493e-08 6.41182e-08)
(0.000768224 -9.78541e-08 -5.32206e-09)
(0.000767558 4.26506e-07 4.16262e-08)
(0.000766652 1.75319e-07 8.12066e-08)
(0.000764891 -7.6425e-09 4.64073e-08)
(0.00076337 -2.71261e-08 3.11193e-08)
(0.000761684 1.32571e-07 7.93711e-08)
(0.000760023 1.45402e-07 5.75102e-08)
(0.000758637 1.73962e-07 5.90668e-08)
(0.000757667 9.50829e-08 6.81435e-08)
(-0.0102034 -0.00630087 0.000704018)
(-0.0233341 0.0048687 0.00048897)
(-0.00930748 -0.00218257 -0.00190577)
(-0.00225274 -0.00419915 0.000223204)
(0.00858857 0.00173912 -0.00250167)
(0.000747833 0.000727089 -1.5961e-05)
(0.00084306 7.45615e-08 5.14127e-06)
(0.000393398 -6.44105e-06 -5.25852e-07)
(0.000838016 1.0598e-05 -1.01708e-06)
(0.000790169 -3.4607e-06 -3.44764e-07)
(0.000809644 -8.12663e-07 1.96753e-07)
(0.000809717 -9.13314e-07 4.56335e-08)
(0.000810662 -6.5506e-07 6.46671e-08)
(0.000810079 -4.06332e-07 5.5098e-08)
(0.00080913 -2.39673e-07 5.30294e-08)
(0.00080785 -7.82814e-08 5.18953e-08)
(0.000806459 -1.72227e-07 5.22382e-08)
(0.000804912 -2.73633e-07 9.12479e-08)
(0.000803575 -4.49504e-07 3.0234e-08)
(0.000802153 -2.799e-07 3.31414e-08)
(0.000800496 -1.99522e-07 6.68929e-08)
(0.00079892 -1.99448e-07 5.10926e-08)
(0.000797332 -3.91364e-07 2.46429e-09)
(0.000795694 -3.03521e-07 6.48009e-08)
(0.000794223 -1.71971e-07 2.5455e-08)
(0.000792757 1.03099e-07 3.53027e-08)
(0.000791115 2.23464e-07 6.66417e-08)
(0.000789625 3.70024e-07 8.82774e-08)
(0.000788467 8.41392e-07 8.87597e-08)
(0.000787023 7.15451e-07 3.02613e-08)
(0.000785087 8.35076e-07 1.6818e-08)
(0.000783217 7.90496e-07 -2.35712e-08)
(0.000781745 2.1628e-07 6.64806e-08)
(0.00078041 -6.69252e-08 5.2957e-08)
(0.000778998 6.9563e-08 4.80949e-08)
(0.000777598 4.93857e-08 8.45313e-08)
(0.00077604 4.12207e-08 5.11132e-08)
(0.000774787 -3.86976e-08 5.32883e-08)
(0.000773264 -2.92879e-07 1.03826e-08)
(0.000771404 -2.76905e-07 -3.71411e-08)
(0.00076983 7.8438e-08 6.15424e-08)
(0.000769109 4.56335e-07 6.1287e-08)
(0.000767559 6.089e-07 6.2402e-08)
(0.000765629 2.86075e-07 1.48775e-08)
(0.000764578 -5.07303e-08 5.73992e-08)
(0.000763376 -6.70457e-08 5.70433e-08)
(0.000761766 -3.99334e-08 5.89006e-08)
(0.000760142 5.80058e-08 3.25672e-08)
(0.000758674 2.18145e-07 3.95981e-08)
(0.000757514 2.13337e-07 5.09655e-08)
(0.000297062 -0.0010478 -0.000631868)
(0.00263125 0.00771505 0.000152099)
(0.00387613 -0.00359575 8.21136e-05)
(0.00387109 -0.00320542 0.000879571)
(-0.00258481 -0.00483393 -0.000588845)
(0.00244876 0.00473117 -5.3672e-05)
(0.00153515 0.0013351 0.000110513)
(0.000450052 -3.72709e-05 -1.54891e-06)
(0.000875973 -2.23853e-05 -1.06121e-06)
(0.000800132 -1.29142e-05 -6.3331e-07)
(0.000815833 -6.46707e-06 1.81136e-07)
(0.000812266 -3.66075e-06 2.57696e-08)
(0.00081205 -1.96439e-06 8.68605e-08)
(0.000810953 -1.18335e-06 5.17784e-08)
(0.000809652 -7.16871e-07 4.54277e-08)
(0.000808148 -4.84038e-07 3.63748e-08)
(0.000806505 -2.33074e-07 5.02459e-08)
(0.000805013 -1.39196e-07 4.75973e-08)
(0.000803424 5.72634e-08 2.22335e-07)
(0.000802027 5.03365e-08 -4.04363e-09)
(0.000800557 -2.28193e-07 6.74421e-08)
(0.000798903 -7.18825e-09 1.95118e-08)
(0.000797439 2.0056e-08 2.34703e-07)
(0.000795895 4.11494e-08 1.018e-07)
(0.000794385 1.64136e-07 1.66151e-07)
(0.000792861 4.05129e-08 6.69116e-08)
(0.000791294 1.29446e-07 6.91758e-08)
(0.000789926 1.45381e-07 2.80407e-08)
(0.000788211 2.18329e-07 1.14293e-08)
(0.000786537 1.22664e-07 1.34384e-08)
(0.000785234 2.07824e-07 -2.91597e-08)
(0.000783387 -2.06218e-07 4.18516e-08)
(0.000781671 1.08014e-07 1.16421e-07)
(0.000780395 6.13338e-08 5.0637e-08)
(0.000778943 1.65661e-07 7.22435e-08)
(0.000777442 1.71984e-08 4.7459e-08)
(0.000775933 -5.40351e-08 7.30523e-09)
(0.000774213 -5.0073e-08 7.43065e-08)
(0.000772889 -1.85567e-07 9.83848e-08)
(0.000771892 -1.22813e-07 8.51061e-08)
(0.000770609 1.66359e-07 5.33268e-08)
(0.000768884 4.88988e-07 1.48452e-07)
(0.00076734 1.52704e-07 5.92552e-08)
(0.000765825 1.40639e-07 -1.85508e-07)
(0.000764448 9.1149e-08 5.79996e-08)
(0.000763383 -1.17893e-07 4.82561e-08)
(0.00076184 -4.0238e-07 -1.43481e-08)
(0.000760345 -3.73995e-07 -2.42067e-07)
(0.000758826 -3.13612e-07 1.74656e-09)
(0.00075713 8.74412e-08 9.08146e-08)
(-0.0057135 0.00206295 0.00101256)
(-0.00990675 0.00215176 3.18118e-06)
(-0.00138818 0.00120266 -0.000450388)
(0.00515467 0.00306067 0.000413429)
(0.00130911 0.00763021 0.000236362)
(0.00154451 -0.00363708 0.00013131)
(0.00198724 -0.000126163 0.000111031)
(0.000474617 -3.08551e-05 -1.61772e-06)
(0.000896053 -1.35133e-05 -1.19764e-06)
(0.000810246 -6.94273e-06 -6.21815e-07)
(0.000821268 -4.855e-06 1.69359e-07)
(0.000815375 -3.03582e-06 2.58895e-08)
(0.000813775 -1.83463e-06 1.00373e-07)
(0.000811648 -1.18072e-06 4.78687e-08)
(0.00081001 -7.36791e-07 1.74929e-07)
(0.000808458 -5.35085e-07 7.40845e-08)
(0.000806892 -2.94223e-07 5.21927e-08)
(0.000805276 -6.45696e-08 6.37775e-08)
(0.000803811 -7.23012e-08 1.78576e-08)
(0.000801796 2.02596e-07 5.52746e-08)
(0.000800423 3.46397e-07 1.52479e-07)
(0.00079923 2.07995e-07 6.82608e-08)
(0.000797393 1.77252e-07 7.63981e-08)
(0.000795874 1.07633e-07 6.80465e-08)
(0.000794222 7.68235e-08 6.38302e-08)
(0.000792712 4.17505e-08 5.81237e-08)
(0.000791245 -7.84647e-08 4.17945e-08)
(0.000789734 -2.31331e-07 7.12834e-08)
(0.000788436 -2.44256e-07 5.85581e-08)
(0.000787008 -4.2723e-07 2.93174e-08)
(0.000784675 -7.09751e-07 -9.42084e-09)
(0.000783091 -4.87753e-07 -1.0555e-08)
(0.000782079 -3.03904e-07 1.88636e-08)
(0.00078048 -1.54819e-07 5.24112e-08)
(0.000778941 -1.61526e-07 5.9651e-08)
(0.000777323 -2.58366e-08 4.51945e-08)
(0.000775956 3.28257e-08 6.17232e-08)
(0.000774624 1.41932e-07 5.30216e-08)
(0.000773175 3.32224e-07 1.10055e-07)
(0.000771845 2.51173e-07 7.06207e-08)
(0.000770594 2.26434e-07 2.76784e-08)
(0.00076909 1.28026e-07 -1.8344e-08)
(0.000767122 1.58422e-07 3.10596e-08)
(0.000765552 1.52853e-08 5.26749e-08)
(0.000764256 1.24408e-07 4.90104e-08)
(0.000762762 -1.38356e-07 4.54235e-08)
(0.00076145 -5.2781e-07 -3.5109e-07)
(0.000760256 -5.5244e-07 6.0121e-08)
(0.000759252 -4.55717e-07 1.09928e-07)
(0.000757797 -1.65779e-07 1.76525e-07)
(0.00440875 -0.0281978 9.71622e-05)
(0.0173362 -0.012063 -0.000299595)
(-0.00283017 -0.00742339 -7.08147e-05)
(-0.00521329 0.000672798 -0.000425586)
(-0.00433285 0.00679273 -0.000769499)
(0.00522772 0.000639629 0.000177188)
(0.00161846 -0.000713997 -1.39451e-05)
(0.000492835 1.69164e-06 2.66501e-07)
(0.000873041 -1.59144e-05 -1.38058e-06)
(0.00081082 -2.14339e-06 -4.17631e-07)
(0.000820721 -3.45269e-06 1.68141e-07)
(0.000816047 -2.00517e-06 3.66659e-08)
(0.000814373 -1.47818e-06 5.59318e-08)
(0.000812328 -9.09718e-07 5.06368e-08)
(0.000810462 -5.56616e-07 5.09264e-08)
(0.000808703 -2.8245e-07 5.27112e-08)
(0.000807094 -1.43912e-07 5.03235e-08)
(0.000805291 -2.9501e-08 4.44392e-08)
(0.000803757 9.79528e-08 5.01548e-08)
(0.000802548 -8.70339e-08 6.05368e-08)
(0.000800561 2.98015e-07 -4.34826e-08)
(0.000798689 2.67861e-08 5.07818e-08)
(0.000797312 8.54244e-08 -3.58047e-08)
(0.000795768 1.12509e-08 4.62744e-08)
(0.000794302 2.34078e-08 -4.90552e-09)
(0.000792667 1.95696e-07 1.93532e-07)
(0.000790953 -3.40487e-08 5.282e-08)
(0.00078972 -7.48099e-08 7.46871e-08)
(0.000787969 -4.67375e-07 3.99899e-08)
(0.000785959 -7.73685e-07 4.4982e-08)
(0.000785163 -7.30441e-07 1.39486e-07)
(0.000783899 -2.03461e-07 7.11034e-08)
(0.00078209 -1.76801e-07 4.09168e-08)
(0.000780575 -1.50775e-07 3.17684e-08)
(0.000779105 -1.388e-07 1.4978e-07)
(0.000777686 4.0141e-09 5.89262e-08)
(0.000776143 1.34482e-07 4.97255e-08)
(0.000774586 1.29391e-07 5.61496e-08)
(0.000773024 1.78832e-07 5.00888e-08)
(0.000771758 3.18504e-07 1.20083e-08)
(0.000770453 2.20533e-08 4.25054e-08)
(0.000768798 -2.38059e-07 5.9182e-09)
(0.000767198 -3.34968e-07 6.1446e-08)
(0.000765781 -1.63661e-07 5.10745e-08)
(0.000764257 -1.68699e-07 3.82572e-09)
(0.00076257 -3.50634e-08 4.88922e-08)
(0.000761327 -3.53027e-08 2.15961e-08)
(0.00076044 -2.87165e-07 7.09729e-08)
(0.000759318 -1.49183e-07 1.89056e-07)
(0.000757905 -3.04131e-07 7.22232e-08)
(0.0246664 -0.00771116 -0.00175586)
(-0.0622762 0.0263716 -0.00051474)
(-0.0136515 0.00409751 -0.0021871)
(-0.00327753 0.00538439 0.000620589)
(-0.0046752 -0.00157496 -0.000346317)
(0.00229881 5.19353e-05 0.000193637)
(0.000492096 0.000162975 4.36734e-05)
(0.00088108 3.48482e-05 -1.73255e-06)
(0.000828309 -1.28752e-05 -3.88096e-07)
(0.000825947 -9.05682e-07 3.57571e-08)
(0.000821418 -1.99573e-06 3.44563e-08)
(0.000817836 -9.96146e-07 4.07518e-08)
(0.000815141 -6.44805e-07 4.77387e-08)
(0.000812798 -4.05433e-07 4.85958e-08)
(0.000810793 -2.7003e-07 5.09584e-08)
(0.000808973 -1.28895e-07 5.11568e-08)
(0.000807207 -1.77411e-07 1.27153e-07)
(0.000805577 -1.69968e-07 6.04984e-08)
(0.000803739 -2.51641e-08 8.88676e-08)
(0.000802045 -1.53336e-08 5.47785e-08)
(0.000800565 -2.69659e-07 4.61979e-08)
(0.000798963 -1.02496e-07 6.66612e-08)
(0.000797373 -2.0407e-07 7.02502e-08)
(0.000795796 -1.24612e-07 5.1151e-08)
(0.000794452 -2.60018e-07 4.28632e-08)
(0.00079264 -3.3212e-07 2.02692e-08)
(0.000790907 -6.90478e-08 3.85531e-08)
(0.000789196 2.56914e-10 3.79134e-08)
(0.000787567 -2.08405e-07 2.95572e-08)
(0.000786685 2.86985e-07 7.04794e-08)
(0.000785393 4.58389e-07 9.17703e-08)
(0.000783787 1.52614e-07 4.93695e-08)
(0.000782146 2.75957e-07 5.04277e-08)
(0.00078053 8.32571e-08 4.71432e-08)
(0.000779136 4.67514e-08 4.94049e-08)
(0.000777666 -9.79141e-08 3.16297e-08)
(0.000776113 -1.17314e-07 1.68995e-08)
(0.000774679 -1.48338e-07 2.48749e-08)
(0.00077341 8.27178e-08 3.99785e-08)
(0.000771648 1.42482e-07 7.69305e-08)
(0.000769898 -6.55864e-08 1.72349e-08)
(0.000768645 -1.23618e-07 4.97499e-08)
(0.000767218 -1.67417e-07 5.76432e-08)
(0.000765762 -1.65046e-07 5.06726e-08)
(0.000764418 -1.33273e-07 5.66978e-08)
(0.00076293 2.26339e-08 4.53796e-08)
(0.000761136 4.02097e-07 5.76186e-08)
(0.000760116 5.92915e-07 7.07045e-08)
(0.000759239 1.38941e-07 -6.41739e-09)
(0.000758362 -6.31684e-08 1.03782e-07)
(-0.00284593 0.00483591 0.000581279)
(0.00857758 0.00109579 -0.00219255)
(0.0007589 0.00556541 0.000718501)
(0.0107723 -0.00171398 0.000204982)
(0.00412241 0.00218459 -0.000106661)
(-0.00220481 0.0011461 -8.87017e-05)
(0.000340671 1.3517e-06 4.67537e-07)
(0.000850955 1.94415e-06 -2.13947e-06)
(0.000823603 1.28371e-06 1.24455e-08)
(0.000824373 1.41133e-06 9.53403e-08)
(0.000820591 6.81456e-07 5.74916e-08)
(0.000817728 5.76574e-07 5.10258e-08)
(0.000815106 3.38849e-07 4.42873e-08)
(0.000812793 1.90924e-07 5.01086e-08)
(0.000810805 1.26013e-07 5.09684e-08)
(0.000808818 4.64988e-08 1.10022e-07)
(0.000807042 4.15311e-08 2.47084e-08)
(0.00080548 -9.26437e-09 5.47415e-07)
(0.00080395 -1.10064e-07 5.28262e-08)
(0.000802243 1.42349e-07 9.35755e-08)
(0.000800453 -2.33973e-08 4.89987e-08)
(0.000798773 -1.15106e-07 5.47245e-08)
(0.000797286 -1.9345e-07 1.91933e-08)
(0.000795702 -1.88526e-07 5.42596e-08)
(0.000794046 -1.95746e-07 6.74392e-08)
(0.000792909 -4.41172e-07 6.32771e-08)
(0.000791371 -2.34e-07 3.05362e-08)
(0.000789548 -1.35246e-07 5.39615e-08)
(0.000788328 1.08694e-07 5.40811e-08)
(0.000786791 4.04445e-07 4.49574e-08)
(0.000784993 3.45338e-07 1.30296e-07)
(0.000783668 1.54538e-07 6.76959e-08)
(0.000782002 -8.29784e-08 9.28485e-08)
(0.000780288 -1.92462e-07 5.90594e-08)
(0.000778879 -2.15119e-07 5.29944e-08)
(0.000777481 -3.31692e-07 8.55322e-08)
(0.000776082 -3.40281e-07 5.92927e-08)
(0.000774837 -2.43472e-07 7.14304e-08)
(0.000773388 -4.66091e-07 8.36317e-08)
(0.000771573 -6.79914e-07 3.77084e-08)
(0.000770121 -2.85167e-07 4.86528e-08)
(0.000768672 -1.69726e-07 -1.63091e-08)
(0.000767148 -2.34567e-08 4.62753e-08)
(0.000765826 5.04244e-08 4.38183e-08)
(0.000764492 7.43246e-08 5.68712e-08)
(0.000763238 1.28691e-08 5.6895e-10)
(0.000762037 2.56332e-07 3.23245e-08)
(0.000760108 9.08545e-07 2.48631e-08)
(0.000758497 6.81698e-07 -1.00371e-07)
(0.000757808 3.60745e-07 9.14403e-08)
(-0.00408916 -0.00305766 -8.76937e-05)
(0.00451589 0.00493385 0.000179408)
(0.00334898 -0.00102698 0.00022852)
(0.00118854 -0.000350192 7.71349e-05)
(-0.0018473 -0.00526559 9.23127e-05)
(0.00171804 -0.000429509 1.24981e-05)
(0.000482061 -1.94357e-05 -2.01301e-06)
(0.000856306 7.33574e-06 -2.48442e-06)
(0.0008272 5.5626e-06 -1.43798e-07)
(0.000825178 4.31127e-06 5.41904e-08)
(0.000820359 2.96885e-06 8.11048e-08)
(0.000817397 1.83841e-06 3.27127e-07)
(0.000814651 1.00407e-06 6.59299e-08)
(0.000812527 7.27565e-07 6.96677e-08)
(0.00081061 4.68357e-07 5.63363e-08)
(0.000808866 2.32113e-07 6.92998e-08)
(0.000807136 2.1032e-07 4.75176e-08)
(0.000805386 2.90845e-08 3.35259e-07)
(0.000803928 -8.54244e-08 2.60303e-08)
(0.000802153 -3.50418e-07 -8.61115e-09)
(0.000800244 -2.0914e-07 2.60606e-08)
(0.000798752 -1.35304e-07 8.56571e-08)
(0.000797283 -1.9612e-07 6.02869e-08)
(0.000795796 -1.04538e-07 5.01088e-08)
(0.00079414 7.91409e-08 4.03242e-08)
(0.000792596 1.40521e-07 -8.59211e-08)
(0.000791293 -6.02811e-08 5.77742e-08)
(0.000789625 6.19558e-08 5.03036e-08)
(0.000788241 3.48519e-07 3.80098e-09)
(0.000786979 -1.47774e-07 3.39121e-08)
(0.000785078 -2.18915e-07 7.73557e-08)
(0.00078325 -2.81757e-07 5.5251e-08)
(0.000781713 -6.47796e-07 1.99852e-08)
(0.000780367 -6.11115e-07 3.16207e-08)
(0.000778964 -2.62283e-07 2.77929e-07)
(0.000777511 -6.60264e-08 4.3198e-08)
(0.000776226 -2.90675e-08 4.78172e-08)
(0.000774525 -1.43369e-07 4.86779e-08)
(0.000772868 -4.07079e-07 8.65078e-09)
(0.000771878 -5.31209e-07 6.6045e-08)
(0.000770539 -2.51515e-07 6.17227e-08)
(0.000768973 -1.86137e-07 2.30708e-08)
(0.000767493 -8.01429e-08 3.77321e-08)
(0.000765883 1.83396e-07 4.58277e-08)
(0.00076437 1.53925e-07 -3.31709e-08)
(0.000763155 1.40662e-07 5.20925e-08)
(0.000762252 -1.47553e-07 4.29423e-08)
(0.000760641 -1.01237e-07 2.25503e-08)
(0.00075854 2.87732e-07 -2.69069e-08)
(0.000757063 2.29981e-07 6.62061e-08)
(0.00421269 0.00260058 0.000706553)
(0.00725029 0.00452747 0.000132236)
(-0.00173623 0.00275557 -0.000490815)
(0.0115887 0.00748642 0.0019499)
(0.00606379 -0.00538577 0.00108979)
(0.001636 -0.00622349 0.00176544)
(0.00141565 8.64558e-05 1.92499e-07)
(0.00140646 3.75436e-05 3.52508e-07)
(0.00136285 2.04404e-05 3.34353e-07)
(0.00136601 1.28423e-05 3.57606e-07)
(0.00136078 8.15659e-06 3.87138e-07)
(0.00135763 4.99128e-06 3.5106e-07)
(0.00135541 3.33261e-06 5.21242e-07)
(0.00135292 2.12731e-06 2.14993e-07)
(0.00134982 1.28807e-06 3.38589e-07)
(0.00134713 8.62901e-07 3.24491e-07)
(0.00134437 2.84523e-07 3.3961e-07)
(0.00134164 1.31108e-07 3.70499e-07)
(0.00133898 -3.0424e-08 3.89428e-07)
(0.00133668 -2.63485e-07 3.99457e-07)
(0.0013344 -1.43985e-07 4.3625e-07)
(0.00133125 1.51409e-07 2.06662e-07)
(0.00132878 2.92655e-07 3.40726e-07)
(0.00132664 1.17397e-07 2.89405e-07)
(0.00132389 3.27232e-07 2.28342e-07)
(0.00132124 5.49395e-07 3.7535e-07)
(0.00131883 4.2084e-07 2.57102e-07)
(0.00131683 1.556e-07 3.40336e-07)
(0.00131354 2.59974e-07 3.50691e-07)
(0.00131026 -5.14965e-07 3.52813e-07)
(0.00130815 -1.10757e-06 2.33628e-07)
(0.00130533 -8.63226e-07 1.99632e-07)
(0.00130282 -5.27155e-07 3.63682e-07)
(0.00130148 1.6431e-07 2.11742e-07)
(0.00129946 2.07984e-07 3.31061e-07)
(0.00129648 3.25596e-07 3.24183e-07)
(0.00129347 2.82629e-07 3.65592e-07)
(0.00129074 2.83014e-07 2.91698e-07)
(0.00128843 6.51292e-07 1.98309e-07)
(0.00128658 7.37731e-07 3.87276e-07)
(0.00128444 1.89783e-07 2.84458e-07)
(0.00128168 2.27204e-08 3.54024e-07)
(0.00127971 -4.52776e-07 3.7534e-07)
(0.00127714 -3.82649e-07 7.0151e-07)
(0.0012743 -7.01566e-08 3.31223e-07)
(0.00127177 1.49094e-07 1.84283e-07)
(0.00126979 2.63621e-08 2.80985e-07)
(0.00126798 -6.18645e-07 5.13557e-07)
(0.00126507 -6.33888e-07 2.10814e-07)
(0.00126215 -4.24148e-07 3.73466e-07)
(-0.00376687 -0.0286323 -0.00148255)
(0.00316644 -0.000184178 0.00209632)
(-0.00914321 -0.000874305 0.00102151)
(-0.00710998 0.0163561 -0.00510105)
(0.0180458 0.00319738 0.000463828)
(0.00627479 0.00605768 -0.000355813)
(0.0013785 5.59394e-05 2.05798e-05)
(0.00141015 2.43378e-05 3.71298e-07)
(0.00134478 1.30906e-05 3.31723e-07)
(0.0013574 9.25533e-06 3.5252e-07)
(0.00135566 6.23351e-06 3.38788e-07)
(0.001355 4.14501e-06 3.3956e-07)
(0.00135317 2.85215e-06 3.52973e-07)
(0.00135094 1.64494e-06 3.37082e-07)
(0.00134896 1.0104e-06 3.36953e-07)
(0.00134649 6.67735e-07 2.22505e-07)
(0.00134405 5.93306e-07 3.39052e-07)
(0.0013417 6.79021e-07 4.02015e-07)
(0.00133915 9.75467e-07 3.10705e-07)
(0.00133658 6.80452e-07 3.05226e-07)
(0.00133409 5.5694e-07 3.4343e-07)
(0.00133168 3.8121e-07 3.70697e-07)
(0.00132871 1.01661e-06 2.94765e-07)
(0.00132634 7.43102e-07 2.94601e-07)
(0.00132406 5.25095e-07 3.17106e-07)
(0.00132112 1.34883e-07 4.51832e-07)
(0.00131842 2.62788e-08 3.44117e-07)
(0.00131593 -3.2547e-07 3.29591e-07)
(0.00131301 -1.25029e-06 3.66969e-07)
(0.00131005 -7.26518e-07 3.36033e-07)
(0.00130817 -6.00331e-07 3.6144e-07)
(0.00130625 -2.97916e-07 3.08725e-07)
(0.00130424 8.37537e-07 6.39919e-07)
(0.00130169 1.25518e-06 8.83297e-07)
(0.00129864 4.94455e-07 2.88022e-07)
(0.00129613 2.3121e-07 3.12852e-07)
(0.00129385 1.54728e-07 3.12437e-07)
(0.00129152 3.70989e-07 3.71073e-07)
(0.00128893 5.83596e-07 3.48609e-07)
(0.00128612 7.15152e-07 3.19809e-07)
(0.00128352 5.97396e-08 3.36661e-07)
(0.00128108 -4.12261e-07 3.56821e-07)
(0.00127888 -8.09233e-07 2.41065e-07)
(0.00127723 -6.47455e-07 3.4101e-07)
(0.00127499 -2.02287e-07 3.35003e-07)
(0.0012723 -2.30588e-08 3.76875e-07)
(0.00126962 4.72995e-07 3.68403e-07)
(0.00126716 -5.9324e-09 3.13714e-07)
(0.00126485 -3.25282e-07 3.64339e-07)
(0.0012633 -3.69662e-07 2.10913e-07)
(0.00470472 -0.0153779 -0.00356684)
(-0.00213107 0.00902087 4.12228e-05)
(0.00127809 -0.00696541 0.00604893)
(0.00333463 -0.0153644 -0.0153016)
(0.0149545 0.0368043 0.00412971)
(-0.0288217 -0.00322603 -0.00627238)
(0.000756423 -0.000301663 5.07768e-05)
(0.00149112 -1.64511e-05 4.30459e-07)
(0.00134522 3.44909e-05 4.65854e-07)
(0.00135746 5.51623e-06 3.40585e-07)
(0.0013544 4.47247e-06 3.39843e-07)
(0.00135341 1.73316e-06 3.39693e-07)
(0.00135228 7.40524e-07 3.38198e-07)
(0.00135062 3.82932e-07 3.38182e-07)
(0.0013486 2.10648e-07 3.37307e-07)
(0.00134661 6.27151e-08 3.32256e-07)
(0.00134438 9.85309e-08 2.91422e-07)
(0.00134211 3.30286e-08 1.88543e-07)
(0.00133898 -1.50531e-07 3.7152e-07)
(0.00133615 2.30604e-08 3.25717e-07)
(0.00133403 2.86304e-08 2.87808e-07)
(0.00133182 4.70128e-08 3.31409e-07)
(0.00132923 -6.49273e-08 3.57655e-07)
(0.00132602 1.97422e-07 -1.67217e-07)
(0.00132313 -2.35057e-07 3.91312e-07)
(0.00132061 -8.81242e-08 3.02299e-07)
(0.00131825 -9.84581e-08 3.4023e-07)
(0.00131524 1.02899e-08 3.19287e-07)
(0.00131304 6.4942e-09 1.63889e-07)
(0.00131108 9.27606e-07 2.59996e-07)
(0.00130869 1.36975e-06 3.32152e-07)
(0.00130712 1.2442e-06 3.20102e-07)
(0.00130475 7.82472e-07 8.04671e-07)
(0.00130105 3.25639e-07 4.27047e-07)
(0.00129817 1.18462e-07 3.66883e-07)
(0.00129605 2.1423e-07 3.34715e-07)
(0.00129365 1.87084e-07 3.64051e-07)
(0.00129127 5.40099e-08 3.40158e-07)
(0.00128885 1.77018e-07 3.27508e-07)
(0.00128592 3.6977e-08 3.39904e-07)
(0.00128303 -2.96083e-08 3.53395e-07)
(0.0012806 -9.57435e-08 2.63791e-07)
(0.00127942 7.86925e-07 3.32797e-07)
(0.00127791 4.43591e-07 2.76526e-07)
(0.00127509 1.55797e-07 9.34807e-08)
(0.00127261 9.26925e-08 2.84768e-07)
(0.00126982 2.85874e-07 3.8579e-07)
(0.00126698 3.08094e-07 2.19362e-07)
(0.00126462 2.75817e-07 3.33516e-07)
(0.00126301 1.56232e-07 2.98006e-07)
(-0.0152449 -0.0104811 4.46486e-05)
(0.00119467 0.0171603 0.00312173)
(0.00360366 -0.00553624 -0.00443912)
(0.0122331 -0.00205754 -0.00103333)
(-0.0052436 0.00583416 0.00444133)
(0.00736996 -0.0148004 -0.00394294)
(0.000324934 -3.31154e-05 -4.37195e-05)
(0.00119301 -3.85466e-05 1.29242e-06)
(0.00140271 1.33762e-05 2.95026e-07)
(0.00132016 -7.87194e-06 4.902e-07)
(0.00135096 -2.55121e-06 3.40209e-07)
(0.00135035 -2.18615e-06 3.38058e-07)
(0.00135149 -1.49362e-06 3.37742e-07)
(0.00135029 -9.052e-07 3.37716e-07)
(0.00134857 -5.17626e-07 3.3665e-07)
(0.00134636 -2.13405e-07 3.36439e-07)
(0.00134402 -3.24777e-07 3.37992e-07)
(0.00134139 -4.40856e-07 3.56296e-07)
(0.00133914 -7.49008e-07 3.05139e-07)
(0.0013368 -5.23845e-07 3.15278e-07)
(0.00133412 -3.96099e-07 2.83e-07)
(0.00133156 -3.78208e-07 3.32214e-07)
(0.0013289 -6.67625e-07 2.76906e-07)
(0.00132613 -5.08677e-07 3.69863e-07)
(0.0013237 -2.9743e-07 2.47938e-07)
(0.00132129 1.57853e-07 2.72675e-07)
(0.00131854 3.79498e-07 4.00461e-07)
(0.00131607 6.80744e-07 3.8997e-07)
(0.00131415 1.49108e-06 3.52567e-07)
(0.00131175 1.25392e-06 4.85959e-07)
(0.00130856 1.39441e-06 3.06001e-07)
(0.00130551 1.36381e-06 6.39144e-08)
(0.00130308 3.54205e-07 3.13913e-07)
(0.00130086 -9.63128e-08 3.30143e-07)
(0.0012985 1.39471e-07 3.33951e-07)
(0.00129621 7.94401e-08 3.42685e-07)
(0.00129365 2.75225e-08 3.1934e-07)
(0.0012915 -7.87072e-08 3.31692e-07)
(0.00128891 -5.1394e-07 2.22392e-07)
(0.00128587 -4.84898e-07 1.43009e-07)
(0.00128335 9.93518e-08 3.0267e-07)
(0.0012821 7.48335e-07 4.92496e-07)
(0.00127955 1.01727e-06 3.7593e-07)
(0.00127643 5.56293e-07 2.19222e-07)
(0.00127454 -1.26658e-09 3.3909e-07)
(0.00127246 -5.41856e-08 3.5445e-07)
(0.00126989 -6.30391e-08 3.39025e-07)
(0.00126714 9.66279e-08 2.14786e-07)
(0.00126465 3.47063e-07 3.136e-07)
(0.00126276 3.70533e-07 2.39673e-07)
(0.00918463 0.0297635 -0.00439954)
(-0.0122877 0.00945525 -0.00368781)
(-0.000480512 -0.00626972 0.00398935)
(0.00291286 -0.0142687 0.00320084)
(0.00169814 -0.00219148 -0.00479671)
(0.00675317 -0.000595406 -0.00156599)
(0.000997768 0.000523395 -0.00014069)
(0.00137496 -0.000112443 -3.88685e-07)
(0.00146728 -3.60585e-05 5.95906e-07)
(0.00133728 -2.09305e-05 4.09644e-07)
(0.00136158 -1.0475e-05 3.60758e-07)
(0.00135477 -5.95461e-06 4.16177e-07)
(0.00135391 -3.1633e-06 2.97717e-07)
(0.00135185 -1.924e-06 3.37048e-07)
(0.00134947 -1.18051e-06 2.92378e-07)
(0.00134685 -7.90114e-07 3.42005e-07)
(0.0013441 -3.7995e-07 3.3702e-07)
(0.00134159 -2.43318e-07 3.29341e-07)
(0.00133888 1.07352e-07 5.20645e-07)
(0.0013366 1.42252e-07 2.40587e-07)
(0.00133421 -2.87916e-07 3.66897e-07)
(0.00133148 1.78785e-08 3.46011e-07)
(0.00132907 2.9396e-08 8.27671e-07)
(0.00132648 3.98482e-08 3.79184e-07)
(0.00132396 2.6356e-07 3.66724e-07)
(0.00132146 -3.33003e-10 3.68676e-07)
(0.0013189 2.04883e-07 3.83723e-07)
(0.00131662 2.76785e-07 2.96176e-07)
(0.00131375 4.38904e-07 5.97067e-07)
(0.00131094 2.75794e-07 3.32382e-07)
(0.00130882 3.543e-07 -2.32537e-07)
(0.00130581 -3.11374e-07 3.15608e-07)
(0.00130292 2.28253e-07 9.08488e-07)
(0.00130077 1.35729e-07 3.24796e-07)
(0.00129839 2.9629e-07 3.37644e-07)
(0.00129591 2.97737e-08 3.19109e-07)
(0.00129345 -1.08008e-07 2.45431e-08)
(0.00129059 -1.37167e-07 3.00127e-07)
(0.00128835 -3.32796e-07 4.34471e-07)
(0.00128669 -2.0863e-07 3.0111e-07)
(0.00128457 2.78834e-07 3.27402e-07)
(0.00128174 7.49208e-07 5.16967e-07)
(0.00127918 2.28254e-07 2.98355e-07)
(0.00127663 1.7701e-07 -3.0068e-07)
(0.00127432 1.78842e-08 3.24704e-07)
(0.00127254 -2.58011e-07 3.1718e-07)
(0.00127 -7.57967e-07 1.72591e-07)
(0.00126749 -7.48216e-07 -2.21821e-08)
(0.00126495 -5.11231e-07 3.18405e-07)
(0.00126212 1.53684e-07 4.11004e-07)
(0.000597788 0.00465891 0.00475527)
(-0.00114523 -0.00971116 0.000815032)
(-0.00827251 0.008115 -0.00325355)
(-0.00125938 -0.013394 -0.00255902)
(-0.0223288 0.00556917 0.000350303)
(-0.00278385 -0.0029356 0.00127024)
(0.000692163 0.000781099 -3.19679e-05)
(0.00143915 -7.69853e-05 -2.9292e-07)
(0.00149723 -1.77049e-05 5.61067e-07)
(0.00135243 -8.92556e-06 3.71489e-07)
(0.00136977 -6.59026e-06 3.02639e-07)
(0.00135954 -4.19892e-06 3.47252e-07)
(0.00135656 -2.52378e-06 3.80461e-07)
(0.00135278 -1.66203e-06 3.39524e-07)
(0.00135 -1.07203e-06 6.98564e-07)
(0.00134737 -7.81067e-07 3.51764e-07)
(0.0013447 -4.2379e-07 3.3712e-07)
(0.001342 -7.88896e-08 3.84252e-07)
(0.00133962 -9.1407e-08 2.84732e-07)
(0.00133631 4.06062e-07 3.80956e-07)
(0.00133397 5.82608e-07 5.13851e-07)
(0.00133196 3.88097e-07 3.91653e-07)
(0.00132893 3.01607e-07 3.28328e-07)