/*--------------------------------*- C++ -*----------------------------------*\
| =========                 |                                                 |
| \\      /  F ield         | OpenFOAM: The Open Source CFD Toolbox           |
|  \\    /   O peration     | Version:  5.0                                   |
|   \\  /    A nd           | Web:      www.OpenFOAM.org                      |
|    \\/     M anipulation  |                                                 |
\*---------------------------------------------------------------------------*/
FoamFile
{
    version     2.0;
    format      ascii;
    class       surfaceVectorField;
    location    "1.3";
    object      Uf;
}
// * * * * * * * * * * * * * * * * * * * * * * * * * * * * * * * * * * * * * //

dimensions      [0 1 -1 0 0 0 0];

internalField   nonuniform List<vector> 
23560
(
(0.000277515 -0.00175196 4.04562e-05)
(-0.00060523 -0.0154213 -0.000226359)
(0.00142341 -0.00192476 0.000544333)
(0.0116481 -0.00517537 -0.000163872)
(-0.00190011 -0.0245601 -0.000957642)
(0.00598377 0.00086319 -0.000426406)
(-0.00108662 -0.00180126 -0.000105036)
(0.00253092 0.00569379 0.000491612)
(0.00471148 0.00402851 -6.20547e-05)
(-0.00206292 0.00399903 -0.000448471)
(-0.00128872 -0.00201411 -0.000435053)
(-0.000831828 0.00328689 -2.89098e-05)
(0.00153353 0.000866217 -0.000161579)
(-0.000866219 -0.000849116 -0.000286678)
(-0.00198808 -0.00425941 -0.000327892)
(0.00522155 0.00976295 0.00156478)
(0.0131143 0.000934201 0.000905815)
(0.0304929 0.00976343 0.000503093)
(0.00866218 1.08754e-05 0.00567532)
(0.00376895 0.0129813 0.00246108)
(0.00716254 0.00813882 0.00140803)
(0.00168154 0.0122949 0.00164603)
(-0.00637894 -0.00022531 0.004241)
(-0.00101166 -0.00298402 0.00173167)
(0.00682706 0.00981953 -0.00890941)
(0.00570043 0.0137728 -0.0164627)
(0.0175698 0.0187312 0.0523457)
(0.0127321 0.0197834 -0.0252218)
(0.000963426 0.00163 -0.000225795)
(0.00306493 0.00146037 -3.43874e-05)
(0.00530813 0.00115391 -0.000127137)
(0.00116598 0.000429413 -8.06578e-05)
(0.00321362 -0.000678422 -6.65536e-05)
(0.00112583 -0.000611115 7.28165e-05)
(0.00130884 -0.000654276 0.000104691)
(0.00194395 -0.00209593 0.000176312)
(0.000292704 4.21127e-05 -1.5684e-06)
(0.000449036 2.38278e-05 -3.22016e-06)
(0.000405971 2.16936e-05 -1.9361e-06)
(0.000710157 5.23036e-05 -1.67328e-06)
(0.000282527 3.07439e-05 -1.38314e-06)
(0.000564028 9.4971e-05 2.99357e-06)
(0.000540727 6.6345e-05 2.9079e-06)
(0.000796759 4.89935e-07 -1.15671e-06)
(0.000816418 -1.22236e-05 -1.86793e-06)
(0.00107505 5.96747e-06 -1.425e-06)
(0.000561531 1.2068e-05 -3.67884e-06)
(0.000557923 8.57408e-07 -3.60387e-06)
(0.000966093 2.87005e-05 -3.63173e-06)
(0.000958771 5.45225e-06 -3.63908e-06)
(0.000805663 -1.77349e-06 -4.86633e-08)
(0.000799542 -9.97234e-06 -1.87514e-07)
(0.00106662 -1.048e-06 1.42233e-07)
(0.000809537 -1.38484e-06 9.49623e-08)
(0.000810278 -5.76535e-06 1.16244e-07)
(0.00107912 -1.23923e-06 1.97068e-07)
(0.000810574 -9.82225e-07 7.24193e-08)
(0.00081115 -3.38995e-06 7.37295e-08)
(0.00108065 -8.98543e-07 1.7843e-07)
(0.000810899 -5.85666e-07 4.7892e-08)
(0.000811558 -1.94984e-06 5.75535e-08)
(0.00108129 -7.50548e-07 1.78226e-07)
(0.000811123 -1.07883e-07 5.76098e-08)
(0.000811344 -1.86281e-06 4.28054e-08)
(0.00108168 -2.28807e-07 1.9967e-07)
(0.000809209 8.6129e-08 6.23047e-08)
(0.000810259 -8.98506e-07 6.09016e-08)
(0.00108047 2.56978e-07 1.58702e-07)
(0.000807876 6.55225e-08 4.69683e-08)
(0.000808753 -3.96401e-07 4.91168e-08)
(0.00107809 1.39909e-07 1.84926e-07)
(0.000806745 -2.53908e-08 4.71297e-08)
(0.000807392 -7.01611e-07 4.0053e-08)
(0.0010765 1.40629e-07 2.15046e-07)
(0.000805299 -9.77884e-08 6.37829e-08)
(0.000806012 7.62034e-09 5.23938e-08)
(0.00107475 -1.37458e-07 1.73811e-07)
(0.000803717 -7.13686e-08 7.62393e-08)
(0.000804594 -1.33824e-07 7.97921e-08)
(0.00107269 -7.46121e-08 1.68848e-07)
(0.000802466 -5.64057e-08 1.4098e-07)
(0.000803153 -3.35861e-07 6.02887e-08)
(0.00107079 -9.00704e-08 1.87348e-07)
(0.000800855 -7.76894e-08 1.31357e-07)
(0.000801669 1.51252e-08 1.16989e-07)
(0.00106891 -6.47341e-08 1.74644e-07)
(0.000799378 -2.80619e-08 6.84066e-08)
(0.00080016 1.15001e-07 8.24396e-08)
(0.0010669 -1.27803e-07 2.10436e-07)
(0.000797998 -1.62871e-08 3.54835e-08)
(0.000798591 -1.81809e-07 7.15413e-08)
(0.00106487 1.20618e-07 1.89133e-07)
(0.000796268 -4.46848e-08 1.78272e-08)
(0.00079705 8.21649e-08 1.75063e-08)
(0.00106281 -6.17186e-08 1.85423e-07)
(0.000794735 1.12971e-07 5.71274e-08)
(0.000795715 -8.28729e-08 4.82121e-08)
(0.00106072 3.44283e-08 1.7973e-07)
(0.000793401 3.1628e-07 7.02186e-08)
(0.000794271 -7.55236e-07 1.81496e-08)
(0.00105877 3.29812e-07 2.07372e-07)
(0.000792031 3.36173e-07 6.80054e-08)
(0.000792634 -1.38554e-06 4.75639e-08)
(0.00105694 5.76943e-07 1.92902e-07)
(0.000790414 2.1353e-07 5.61928e-08)
(0.00079103 -3.51099e-07 6.77332e-08)
(0.00105494 3.73601e-07 2.09883e-07)
(0.000788872 2.1497e-07 4.79482e-08)
(0.000789639 1.29219e-07 4.71897e-08)
(0.001053 2.13348e-07 1.74776e-07)
(0.0007873 9.16088e-08 1.20697e-07)
(0.000787965 -8.955e-08 5.8508e-08)
(0.00105079 3.35742e-07 1.22705e-07)
(0.000785942 -2.42375e-07 1.34261e-07)
(0.000786324 1.91021e-07 1.20685e-07)
(0.00104872 -1.61848e-07 1.38028e-07)
(0.000783975 -4.26282e-07 2.28289e-08)
(0.000784919 -6.53886e-07 -3.02668e-08)
(0.00104664 -6.03184e-07 3.60932e-07)
(0.000782619 -3.77609e-07 2.71289e-08)
(0.000783379 -5.5858e-07 -9.04946e-09)
(0.0010443 -6.22709e-07 3.14192e-07)
(0.000781246 -1.73309e-07 9.70805e-08)
(0.000782089 -5.43083e-07 1.09208e-07)
(0.00104248 -4.04912e-07 1.80166e-07)
(0.000780194 5.1941e-08 8.25196e-08)
(0.000780949 -1.82084e-06 1.08652e-07)
(0.00104108 -3.85511e-08 2.65869e-07)
(0.000778514 1.66567e-07 6.64785e-08)
(0.000779362 1.87312e-07 4.99593e-08)
(0.00103928 2.15436e-07 1.85093e-07)
(0.000776901 2.1214e-07 8.58295e-08)
(0.000777678 5.08406e-08 5.56129e-08)
(0.001037 2.72964e-07 1.53434e-07)
(0.000775029 2.72082e-07 5.2985e-08)
(0.000776199 2.86346e-07 6.82523e-08)
(0.00103464 3.18935e-07 1.51118e-07)
(0.000773401 4.97616e-07 6.39446e-08)
(0.000774705 5.87476e-07 1.1861e-08)
(0.00103216 4.07655e-07 1.45161e-07)
(0.000773344 4.5465e-07 9.5513e-08)
(0.000773319 -3.33124e-06 5.76001e-08)
(0.00103114 9.04767e-07 2.54835e-07)
(0.00077139 1.25175e-07 5.34574e-08)
(0.000771896 3.97701e-07 2.57232e-07)
(0.00102992 3.46784e-07 1.79702e-07)
(0.000769778 -4.20996e-08 5.25837e-08)
(0.000770359 6.66052e-08 4.63352e-08)
(0.00102745 5.69818e-08 1.81539e-07)
(0.000768453 -4.71738e-07 8.32964e-08)
(0.000768776 -6.9797e-08 7.14292e-08)
(0.00102536 -1.35676e-07 1.60403e-07)
(0.000767742 -7.46658e-07 4.24035e-08)
(0.00076769 1.65026e-06 8.58265e-08)
(0.00102428 -1.04539e-06 1.6566e-07)
(0.000765229 -5.27671e-07 1.03057e-08)
(0.000766526 2.73902e-06 4.53566e-08)
(0.00102201 -8.29567e-07 6.46914e-08)
(0.000764037 -3.11518e-07 -2.7396e-08)
(0.000764952 -4.49679e-07 4.3372e-08)
(0.00101944 -4.95771e-07 1.6855e-07)
(0.000762751 -2.20275e-07 -1.06003e-08)
(0.00076348 -4.26598e-07 -1.86411e-08)
(0.00101787 -2.99866e-07 1.85806e-07)
(0.000761422 -1.94591e-07 4.68826e-08)
(0.000762087 -9.71859e-08 7.50312e-08)
(0.00101606 -2.58325e-07 1.72922e-07)
(0.00076001 -2.69936e-07 3.87441e-08)
(0.00076073 -4.04767e-08 3.99831e-08)
(0.00101441 -2.59755e-07 1.78045e-07)
(0.000758309 -3.41023e-07 2.13428e-08)
(0.000759166 -3.58318e-07 -1.84755e-08)
(0.00101219 -4.83008e-07 2.09928e-07)
(0.000757854 8.6297e-07 5.29592e-08)
(0.00101006 -4.23045e-07 1.1091e-07)
(0.00705594 -0.0101753 -0.000453878)
(0.00596868 -0.00701152 -0.000395143)
(-0.00119967 -0.0240492 -0.0011113)
(-0.00479498 0.00642164 0.0004547)
(0.00565782 0.0033901 0.000521757)
(0.00430479 0.000464834 -0.000291553)
(-0.00700623 0.0099238 -0.000973699)
(-0.0164328 0.00360514 0.000997408)
(-0.00515137 0.0114393 0.00266233)
(0.0193915 -0.00280873 0.000136719)
(0.0272538 -0.00177328 -0.000386458)
(0.00927093 0.00509183 -0.000125872)
(0.00722752 -0.011449 4.30518e-05)
(0.00433769 0.000692231 -0.00397457)
(0.00319291 -0.00042119 0.00440283)
(0.00937702 -0.000862414 0.00854532)
(-0.0050213 0.00800029 -0.000241297)
(-0.00806996 -0.000422857 -0.000152218)
(-0.0103153 0.00822158 -0.00100982)
(-0.0177882 0.00524734 0.000258228)
(-0.00610049 -0.0178591 0.00265901)
(-0.029569 -0.00271923 0.00229218)
(-0.0529291 -0.0262832 0.00656139)
(-0.0435939 -0.0109923 -0.00015144)
(-0.0214033 -0.0537034 -0.000589171)
(0.0258895 0.00547019 1.41259e-05)
(0.0134101 0.00695882 4.716e-05)
(0.0166634 0.00776702 -0.000354917)
(0.00364699 0.00112644 0.00066612)
(-0.009417 -0.000938919 -0.00035844)
(0.00500313 0.000706474 0.00244867)
(0.000891026 0.00190961 -0.000202026)
(0.0139875 -0.00903865 0.00241326)
(0.0147794 -0.00380739 0.000627615)
(0.0197707 -0.0161479 0.00139041)
(0.00453697 0.00515956 0.000848099)
(0.000491011 -0.00332742 9.95857e-06)
(0.00212365 -0.00126915 8.73854e-05)
(0.00178459 -0.00209313 6.72142e-05)
(0.000747081 -0.00139635 -7.12733e-05)
(0.000824979 -0.00746878 -0.000101538)
(0.000358008 -1.7536e-05 2.22545e-06)
(0.000398804 6.75e-07 -7.69673e-07)
(0.000430824 -2.76276e-05 -2.13719e-06)
(0.000683186 -2.6622e-05 7.18295e-06)
(0.000321687 -1.80804e-05 1.68479e-05)
(0.000732905 -2.41853e-05 1.17537e-05)
(0.000642897 4.49401e-05 3.91124e-05)
(0.000276273 -1.35615e-05 8.34237e-07)
(0.000424828 -2.15298e-06 1.84532e-06)
(0.000560803 1.19203e-05 -1.87824e-06)
(0.000295043 -3.06632e-06 -9.3233e-07)
(0.000803413 -2.50527e-05 -8.99285e-07)
(0.000880953 -5.23842e-05 -1.29283e-06)
(0.00110771 -3.76265e-05 -1.12268e-06)
(0.000570072 -3.37587e-05 -3.66246e-06)
(0.000561808 -5.25664e-05 -4.83851e-06)
(0.000968552 -5.45771e-05 -3.55957e-06)
(0.000929015 -9.54307e-05 -5.32574e-06)
(0.000809131 -1.38489e-05 -2.27062e-08)
(0.000813909 -1.87907e-05 -6.28292e-07)
(0.00106788 -2.16496e-05 1.58457e-07)
(0.000812044 -7.23892e-06 9.50249e-08)
(0.000818565 -1.17272e-05 1.02324e-07)
(0.00108274 -1.11182e-05 2.04692e-07)
(0.000812418 -3.91155e-06 5.88689e-08)
(0.00081532 -5.89665e-06 4.21545e-08)
(0.001083 -5.8329e-06 1.84701e-07)
(0.000812102 -2.13213e-06 5.24717e-08)
(0.000813788 -3.56632e-06 4.9109e-08)
(0.00108317 -3.22789e-06 1.82472e-07)
(0.000810879 -1.27559e-06 4.60914e-08)
(0.000812418 -2.08636e-06 4.61597e-08)
(0.00108206 -1.63961e-06 1.65179e-07)
(0.000809629 -8.30701e-07 4.77175e-08)
(0.000810817 -1.26433e-06 4.78665e-08)
(0.00108034 -1.26243e-06 1.77894e-07)
(0.00080833 -4.12476e-07 4.22044e-08)
(0.000809277 -7.06002e-07 4.99576e-08)
(0.00107871 -6.48984e-07 1.78808e-07)
(0.000806602 -9.08164e-08 4.53132e-08)
(0.000807794 -1.85355e-07 4.40836e-08)
(0.00107663 -2.87595e-07 1.59077e-07)
(0.00080539 1.45955e-07 6.83943e-08)
(0.000806307 -5.10422e-07 5.18187e-08)
(0.00107468 1.16203e-07 1.85554e-07)
(0.000803931 3.5282e-07 6.38478e-08)
(0.000804851 -5.78837e-07 2.99393e-08)
(0.00107294 2.85831e-07 2.01567e-07)
(0.000802512 3.67851e-07 3.62795e-08)
(0.00080317 -4.62537e-07 7.26035e-08)
(0.00107097 6.496e-07 1.76203e-07)
(0.000800849 2.94465e-07 6.8083e-08)
(0.000801576 1.19586e-07 3.31617e-08)
(0.0010689 3.34488e-07 1.81413e-07)
(0.00079945 2.87943e-07 8.55778e-08)
(0.00080015 -6.96937e-07 6.19575e-08)
(0.00106691 4.59606e-07 2.22124e-07)
(0.000797558 3.04528e-07 5.35813e-08)
(0.00079861 1.9492e-07 5.38178e-08)
(0.00106471 3.1158e-07 1.82543e-07)
(0.000796536 3.68488e-07 4.78814e-08)
(0.000797128 7.44653e-07 4.16016e-08)
(0.00106264 5.46915e-07 8.69166e-08)
(0.000795227 3.28773e-07 9.24386e-09)
(0.000795663 5.53479e-07 6.17095e-08)
(0.00106121 5.18416e-07 1.13706e-07)
(0.000793584 2.20374e-07 -4.51446e-09)
(0.000794134 -2.31872e-08 1.07541e-08)
(0.0010593 4.25036e-07 1.36303e-07)
(0.00079158 7.96893e-08 4.72854e-08)
(0.000792457 -1.14847e-07 3.47383e-08)
(0.00105672 2.0871e-07 1.3011e-07)
(0.000790227 -3.94033e-08 5.87367e-08)
(0.000790881 8.11275e-08 5.18157e-08)
(0.00105446 4.24046e-08 1.31778e-07)
(0.000788808 -2.42374e-07 5.7746e-08)
(0.000789386 1.38434e-07 5.34973e-08)
(0.00105273 -1.36584e-07 1.67595e-07)
(0.000786882 -3.27611e-07 5.84761e-08)
(0.00078786 -6.22227e-07 3.48921e-08)
(0.00105044 -5.85465e-07 2.50455e-07)
(0.000785423 -2.48587e-07 -4.37962e-08)
(0.000786425 -1.62492e-07 3.32025e-08)
(0.00104806 -3.90428e-07 1.96866e-07)
(0.000784204 -1.50537e-07 -6.21518e-08)
(0.000785043 2.59252e-07 3.18257e-08)
(0.00104646 -3.28536e-07 8.63303e-08)
(0.000782828 2.19557e-07 7.29931e-08)
(0.000783842 4.35658e-07 3.72588e-08)
(0.00104474 -1.10485e-07 9.44949e-08)
(0.000781781 5.0842e-07 1.2078e-07)
(0.000782448 -2.79132e-06 6.02933e-08)
(0.00104312 6.98349e-07 2.95425e-07)
(0.000780311 3.04312e-07 7.61096e-08)
(0.000780692 -3.10375e-06 4.01855e-08)
(0.0010415 7.18906e-07 2.64975e-07)
(0.000778338 1.19788e-07 3.90919e-08)
(0.00077913 8.95856e-07 7.07557e-08)
(0.0010391 1.63214e-07 1.68077e-07)
(0.000777038 1.7127e-07 3.80318e-08)
(0.000777741 -2.98854e-08 4.31461e-08)
(0.00103686 1.87419e-07 1.64477e-07)
(0.000775855 3.24433e-07 2.71459e-08)
(0.00077639 -3.09711e-08 5.41605e-08)
(0.00103523 2.63643e-07 1.71168e-07)
(0.000774583 6.23724e-07 5.50243e-09)
(0.000775077 1.37555e-07 3.05678e-08)
(0.00103372 5.85173e-07 1.88872e-07)
(0.000771941 5.45144e-07 2.19258e-07)
(0.000773218 -9.86466e-07 1.22459e-08)
(0.00103106 1.04009e-06 1.11343e-07)
(0.000770844 2.15558e-07 2.50175e-07)
(0.000771483 1.88659e-07 2.357e-07)
(0.00102847 4.1872e-07 1.56215e-07)
(0.000769392 9.65045e-08 6.5173e-08)
(0.00077021 4.05063e-08 6.37299e-08)
(0.00102684 1.81814e-07 1.75143e-07)
(0.000767756 -3.55925e-08 7.39549e-08)
(0.000768611 2.0236e-07 2.57764e-08)
(0.00102472 3.45468e-08 1.70356e-07)
(0.000766733 -4.30515e-07 8.87921e-08)
(0.000767198 6.32365e-07 6.6293e-08)
(0.00102291 -1.99943e-07 2.08433e-07)
(0.000766194 -4.69299e-07 7.84236e-08)
(0.00076648 2.13998e-07 1.18182e-07)
(0.00102206 -9.59512e-07 2.74257e-07)
(0.000764399 -1.62384e-07 5.21459e-08)
(0.000765337 -5.71022e-08 7.53045e-08)
(0.00102043 -2.69209e-07 1.76608e-07)
(0.000762762 -2.01495e-08 6.69618e-08)
(0.000763658 9.44368e-08 7.13368e-08)
(0.00101808 -1.80197e-07 1.53189e-07)
(0.000761453 2.68259e-08 6.81424e-08)
(0.000762146 -1.46801e-06 1.24358e-07)
(0.00101616 1.33567e-07 2.61355e-07)
(0.000759891 -9.1601e-08 -1.72187e-08)
(0.000760582 2.44026e-07 6.47241e-08)
(0.00101419 -3.83264e-08 1.63856e-07)
(0.000758576 -1.75508e-07 1.31192e-08)
(0.000759063 1.37401e-07 -1.26677e-08)
(0.00101222 -2.1542e-07 1.26123e-07)
(0.000758072 -1.63186e-07 1.16457e-07)
(0.00101082 -2.70917e-07 2.28881e-07)
(0.00254508 -0.0186525 -3.20793e-05)
(-0.00186557 -0.0148618 -0.000232826)
(0.00637163 -0.0160974 -0.00128885)
(0.00261089 -0.030988 5.14872e-06)
(-0.000402874 0.0040542 0.00150575)
(-0.0116375 0.0070155 0.000323775)
(0.0040683 0.00646216 0.00308084)
(-0.0146306 0.00292496 -0.000364025)
(-0.00202247 0.010094 0.0014602)
(0.00110257 0.0067504 -0.000542643)
(0.0148737 -0.0139837 0.000299844)
(-0.000559492 0.00277133 0.00530403)
(0.0113383 -0.0103284 0.00148755)
(0.00833103 -0.00102275 0.000653757)
(0.00851716 0.00234512 -0.000260532)
(-0.00118777 0.0010819 -0.000179295)
(-0.0175783 0.0102324 -0.000853895)
(0.00930543 0.00653399 -0.000715284)
(0.00364478 0.00730857 0.00177263)
(0.00724021 0.00878705 -0.00728911)
(-0.0298158 0.00803756 -0.00116657)
(-0.00393131 -0.016232 0.00145287)
(-0.023332 0.00266995 0.00461796)
(-0.0150828 0.0159948 0.000138074)
(0.0149458 -0.003311 -0.00218002)
(0.0109836 -0.0133679 0.00169451)
(0.0297162 -0.0221218 0.00103171)
(0.0123678 -0.00307843 0.00106446)
(-0.00222413 -0.00388559 -0.000251972)
(-0.0115333 -0.00957736 -0.000815407)
(0.00575023 -0.00312404 -0.00113881)
(0.0138679 -0.00259826 -0.000177495)
(0.00808276 0.00868477 0.00302003)
(0.00761123 0.000882126 0.000851526)
(0.00590459 0.0159128 0.00241035)
(0.0115316 0.00253252 -0.00022711)
(0.00286474 -0.00356246 0.00173371)
(-0.00987756 -0.00403544 0.000702004)
(-0.00368572 -0.0277055 0.000288597)
(0.0069928 0.00293203 0.00310323)
(-0.0385629 -0.00483339 -0.000897432)
(-0.0453673 -0.00374309 0.000968835)
(-0.0162975 -0.00255798 -0.000527313)
(-0.0262266 -0.00119009 -0.000134727)
(-0.0530671 -0.00319644 -0.00269318)
(0.000619457 -0.000244812 2.19089e-06)
(0.000274049 -7.16908e-05 8.85967e-06)
(0.000399685 -0.000166891 3.10917e-05)
(0.000455193 -0.0001886 3.58829e-05)
(0.000270155 -8.70136e-05 8.58563e-06)
(0.000854281 -2.57213e-05 -1.02205e-06)
(0.000600648 -2.29674e-05 -7.95994e-07)
(0.00123888 -6.70818e-05 -1.21107e-06)
(0.000612238 -6.81795e-05 -5.136e-06)
(0.000674863 -2.06586e-05 -5.60707e-06)
(0.000986596 -0.000124533 -5.48607e-06)
(0.00112197 -1.76728e-05 -4.30576e-06)
(0.000598325 -3.85102e-05 -3.60636e-06)
(0.000977616 -3.4648e-05 -4.10786e-07)
(0.000974741 -6.47681e-05 -4.5045e-06)
(0.000827558 -2.90527e-06 -5.03502e-07)
(0.000847864 1.57113e-05 -1.05947e-06)
(0.00110077 3.8039e-06 -2.83235e-08)
(0.000821077 -5.48181e-06 4.94729e-08)
(0.000815425 -5.21326e-06 6.37939e-09)
(0.00109895 -9.03063e-06 1.55587e-07)
(0.000816368 -2.93453e-06 3.23923e-08)
(0.000818517 -1.75414e-06 1.11461e-07)
(0.00109054 -4.10084e-06 1.64524e-07)
(0.000814207 -2.01645e-06 4.2798e-08)
(0.000814943 -2.47271e-06 4.54991e-08)
(0.00108655 -2.89778e-06 1.5468e-07)
(0.000812318 -1.36872e-06 4.79342e-08)
(0.000813233 -1.58816e-06 5.57665e-08)
(0.00108415 -2.0001e-06 1.72662e-07)
(0.000810423 -8.96594e-07 5.01058e-08)
(0.000811411 -8.30756e-07 5.23005e-08)
(0.00108171 -1.34965e-06 1.78493e-07)
(0.000808704 -5.80792e-07 5.18387e-08)
(0.000809675 -4.89277e-07 5.12167e-08)
(0.00107931 -8.5229e-07 1.78925e-07)
(0.00080752 -3.48855e-07 5.05866e-08)
(0.000808086 -6.7456e-07 5.01271e-08)
(0.00107746 -5.82476e-07 1.81514e-07)
(0.000805745 -1.76952e-07 1.33708e-08)
(0.000806523 -1.41101e-07 4.99497e-08)
(0.00107547 -2.8596e-07 1.72957e-07)
(0.000804192 -1.63381e-07 3.86813e-08)
(0.000804869 2.18232e-07 3.04032e-08)
(0.00107336 -1.63822e-07 1.23888e-07)
(0.000802083 -1.57933e-07 6.94984e-08)
(0.000803178 3.6318e-07 6.45327e-08)
(0.00107085 -2.81552e-07 1.69879e-07)
(0.000800948 -8.99221e-08 2.70269e-08)
(0.000801662 -3.52745e-07 3.69834e-08)
(0.00106867 -1.55905e-07 1.75534e-07)
(0.000799302 -2.93672e-08 3.02001e-08)
(0.000800226 -3.77901e-08 4.55792e-08)
(0.00106687 -9.59078e-08 1.41459e-07)
(0.000798102 1.16836e-07 4.1842e-08)
(0.000798793 -1.85765e-07 4.96735e-08)
(0.00106498 2.25378e-09 1.75031e-07)
(0.000796328 2.00578e-07 5.54233e-08)
(0.000797232 3.17692e-07 1.16028e-08)
(0.00106306 2.7784e-07 2.28422e-07)
(0.000794546 4.93198e-08 6.3236e-08)
(0.000795474 5.24405e-08 6.97112e-08)
(0.00106056 2.42081e-07 2.34342e-07)
(0.00079308 -1.13944e-07 4.99993e-08)
(0.000793929 5.1948e-07 1.24741e-07)
(0.00105838 -1.08224e-07 1.33909e-07)
(0.000791643 -1.22037e-07 3.92632e-08)
(0.000792447 -2.03664e-07 3.98816e-08)
(0.00105646 -1.86758e-07 1.7573e-07)
(0.000790095 -7.43542e-08 4.65758e-08)
(0.000790941 -1.35055e-08 4.60222e-08)
(0.00105451 -1.05746e-07 1.86006e-07)
(0.000788459 -6.87739e-08 3.06493e-08)
(0.000789393 -7.69655e-08 6.05062e-08)
(0.00105222 -4.80997e-08 2.02312e-07)
(0.000787317 1.5793e-07 9.61908e-09)
(0.000788142 5.17831e-07 -6.43536e-09)
(0.00105047 -8.36716e-08 6.36055e-08)
(0.000786119 4.33879e-07 1.08825e-07)
(0.000786768 7.55554e-07 3.0117e-08)
(0.00104904 5.72431e-07 8.40295e-08)
(0.000784547 4.76029e-07 1.31235e-07)
(0.000785093 3.49011e-07 1.4029e-07)
(0.00104699 6.99988e-07 1.75821e-07)
(0.000783643 4.74352e-07 2.45518e-08)
(0.000783837 4.60682e-07 5.57678e-08)
(0.00104558 6.866e-07 1.21394e-07)
(0.000781286 3.43541e-07 -2.02948e-08)
(0.000782283 -4.63621e-08 3.85867e-08)
(0.00104351 6.27517e-07 5.72313e-08)
(0.000779482 9.8373e-08 3.48219e-08)
(0.000780384 1.50593e-07 1.35063e-08)
(0.0010404 2.99157e-07 -2.822e-08)
(0.000778507 4.58427e-08 7.48184e-08)
(0.000779064 2.41227e-07 7.92582e-08)
(0.00103861 -2.51421e-08 1.76349e-07)
(0.00077709 1.14412e-07 5.92714e-08)
(0.000777827 -1.16506e-07 5.13777e-08)
(0.00103712 1.40393e-07 1.75388e-07)
(0.000775597 6.72615e-08 5.75897e-08)
(0.00077633 3.51842e-08 5.23885e-08)
(0.00103513 1.52728e-07 1.71448e-07)
(0.000774054 -8.34408e-08 3.73169e-08)
(0.000774888 4.89319e-08 4.96836e-08)
(0.00103313 3.39879e-08 1.8731e-07)
(0.000772266 -4.61808e-08 2.86191e-08)
(0.000773265 -2.10054e-07 1.85881e-08)
(0.00103092 -2.17412e-07 1.47237e-07)
(0.000771058 1.17945e-07 4.93078e-08)
(0.000771688 -4.31383e-08 2.78312e-08)
(0.00102884 1.0096e-07 1.67829e-07)
(0.000769498 1.91036e-07 2.4345e-08)
(0.000770301 2.62185e-07 5.03868e-08)
(0.00102697 1.66028e-07 1.66989e-07)
(0.000767959 4.17122e-07 1.8102e-08)
(0.000768893 6.18486e-08 6.83116e-09)
(0.00102488 2.99804e-07 1.91405e-07)
(0.000766575 6.57111e-07 9.56673e-08)
(0.000767496 4.54263e-07 6.01674e-08)
(0.00102304 8.00665e-07 1.80382e-07)
(0.000766148 5.35278e-07 1.15076e-07)
(0.000766325 -9.88348e-07 1.7047e-08)
(0.00102193 9.39766e-07 1.68232e-07)
(0.00076447 3.06404e-07 9.44966e-08)
(0.000765049 2.50621e-07 7.09325e-08)
(0.00102042 4.8967e-07 1.72173e-07)
(0.000762991 2.95356e-07 1.28717e-07)
(0.000763643 1.26114e-07 1.04893e-07)
(0.00101837 3.70108e-07 1.74467e-07)
(0.00076131 3.78521e-07 1.20958e-07)
(0.000762248 2.67101e-07 1.09359e-07)
(0.00101623 4.32577e-07 6.89229e-08)
(0.000759761 3.17548e-07 6.92986e-08)
(0.000760505 4.62544e-07 6.1545e-08)
(0.00101397 5.56633e-07 1.67507e-07)
(0.000758309 1.7334e-07 9.06305e-08)
(0.000758881 2.21893e-07 5.2851e-08)
(0.00101191 2.70815e-07 1.68582e-07)
(0.000757855 -1.26992e-06 1.3766e-07)
(0.00101067 1.82121e-07 2.08507e-07)
(-0.00792212 -0.00060341 0.000237696)
(-0.00533305 0.00748884 0.000146664)
(-0.0128803 -0.00377585 5.03693e-05)
(-0.00718998 -0.00428913 0.00071669)
(-0.00903104 0.000674721 -0.000293194)
(-0.00833536 -0.00800294 0.00177137)
(-0.00433671 0.00273695 -0.00107134)
(-0.0256865 0.00352385 7.53514e-05)
(-0.00409912 0.00325611 0.000125669)
(-0.014414 0.00863981 0.00166093)
(-0.00880954 0.00281879 0.000327502)
(-0.0177141 -0.00227766 -0.00116583)
(-0.00332334 -0.00869368 -0.00155955)
(-0.000820414 0.00931106 -0.000559992)
(-0.00344703 -0.00614296 -0.00305116)
(0.00186483 -0.0182744 -0.000668084)
(0.0052566 -0.00802673 0.000143667)
(-0.0201737 -0.00856059 0.000605075)
(-0.0147968 -0.00655382 0.00189548)
(0.0108507 -0.0129032 0.000384358)
(-0.0138864 -0.00415822 -0.000110385)
(-0.00592312 -0.000666337 -0.000532306)
(-0.00266832 -0.00329574 -0.00144221)
(0.00415744 -0.00224444 -0.000178357)
(0.0016772 0.00531411 -0.00100202)
(-0.0308964 0.00379003 -0.00218095)
(0.022457 0.0205867 -0.00232064)
(-0.00909471 0.0135556 -0.00246579)
(-0.00230576 0.0117586 -0.00172048)
(0.00237735 -0.00174486 -0.000118263)
(-0.00899852 0.000278197 0.000535803)
(0.00999215 -0.0134726 -0.000873472)
(0.00458782 0.00122662 7.16892e-05)
(-0.0071724 0.0167487 -0.000274509)
(0.00102944 -0.000690307 -8.74941e-05)
(0.00120735 -0.00020784 -0.000266182)
(0.00138274 0.000378129 -0.000593525)
(0.000942549 -0.000466733 5.84078e-05)
(0.000698081 -9.15074e-05 3.5746e-05)
(0.000872308 9.02052e-05 2.16441e-05)
(0.000950961 6.36065e-05 -1.76534e-05)
(0.00100654 -9.93538e-06 1.45345e-05)
(0.000473273 -7.62839e-06 9.53529e-07)
(0.0004762 -2.01887e-05 -2.98674e-06)
(0.000455765 -1.24574e-05 1.63203e-07)
(0.00071761 -1.95073e-05 -9.37851e-07)
(0.000815077 9.20091e-07 -5.49937e-07)
(0.000884228 -6.1476e-06 -1.09516e-06)
(0.00115569 9.74498e-06 -9.40255e-07)
(0.000589932 -1.65421e-05 -3.63186e-06)
(0.000598791 -1.36269e-05 -4.69671e-06)
(0.000969869 -4.12667e-05 -4.5302e-06)
(0.000984544 -3.64363e-05 -6.12495e-06)
(0.000816547 -4.11773e-06 6.83331e-08)
(0.000809053 -7.73295e-06 -3.03965e-07)
(0.00107308 -7.79568e-06 9.02552e-08)
(0.000815958 -2.11671e-06 1.24589e-07)
(0.000821037 -3.54607e-06 1.8607e-07)
(0.0010907 -3.25373e-06 2.18246e-07)
(0.000813957 -1.57017e-06 5.84643e-08)
(0.000815637 -2.23406e-06 3.37709e-08)
(0.00108582 -2.39906e-06 1.99337e-07)
(0.000812226 -1.10323e-06 6.01339e-08)
(0.000813824 -1.49151e-06 7.58055e-08)
(0.001084 -1.77465e-06 1.86714e-07)
(0.000810635 -6.45565e-07 5.34118e-08)
(0.000811987 -7.95966e-07 5.32851e-08)
(0.00108178 -1.13521e-06 1.79877e-07)
(0.000808949 -3.57304e-07 4.95055e-08)
(0.000810037 -3.28928e-07 4.77925e-08)
(0.00107967 -5.62925e-07 1.79997e-07)
(0.000807154 -3.35873e-07 4.94902e-08)
(0.000808114 -2.84931e-07 5.01438e-08)
(0.00107735 -3.70594e-07 1.73737e-07)
(0.000805637 -3.82409e-07 6.69884e-08)
(0.000806466 -2.51751e-07 5.04275e-08)
(0.0010752 -4.88301e-07 1.83765e-07)
(0.00080387 -4.68714e-07 5.62437e-08)
(0.000804763 3.39331e-08 6.59887e-08)
(0.00107295 -4.7897e-07 2.0989e-07)
(0.000802631 -5.32001e-07 3.20266e-08)
(0.000803101 8.99982e-08 5.44254e-08)
(0.00107098 -7.27643e-07 1.70617e-07)
(0.000801017 -4.19266e-07 5.55329e-08)
(0.000801805 -4.00988e-07 7.07283e-08)
(0.00106913 -6.59658e-07 1.87598e-07)
(0.000799639 -2.92654e-07 6.50513e-08)
(0.000800386 -7.75494e-08 7.18822e-08)
(0.00106711 -4.42475e-07 1.66634e-07)
(0.000798048 -2.8355e-07 1.94464e-08)
(0.000798806 -1.72284e-07 6.03883e-08)
(0.00106518 -3.46496e-07 1.81666e-07)
(0.000796307 -2.65524e-07 2.58721e-08)
(0.000797256 8.49108e-07 2.74022e-08)
(0.00106294 -4.40461e-07 1.58702e-07)
(0.000794845 -1.3234e-07 1.31198e-07)
(0.000795642 -3.0368e-09 8.09629e-08)
(0.00106073 -3.12584e-07 1.75389e-07)
(0.000793294 3.50641e-08 1.1465e-07)
(0.000794139 4.06045e-09 1.39014e-07)
(0.00105876 -9.02664e-08 2.15406e-07)
(0.000791722 1.77448e-07 4.66386e-08)
(0.000792625 -1.03386e-07 5.007e-08)
(0.00105673 1.43455e-07 1.74293e-07)
(0.000790274 3.14244e-07 5.9948e-08)
(0.000791111 -3.60413e-09 6.43406e-08)
(0.00105464 3.19562e-07 1.69825e-07)
(0.000788973 5.56163e-07 2.34427e-08)
(0.000789693 5.43004e-07 5.67738e-08)
(0.00105276 5.49601e-07 1.14213e-07)
(0.000787747 6.30258e-07 1.4051e-08)
(0.000788232 7.87046e-07 6.92603e-10)
(0.00105122 1.02754e-06 1.32372e-07)
(0.000785668 4.27977e-07 6.15472e-08)
(0.000786511 3.26706e-07 5.11367e-08)
(0.00104904 7.79899e-07 2.5695e-07)
(0.000784269 3.71552e-07 6.48495e-08)
(0.000785019 3.05454e-07 8.06563e-08)
(0.0010466 5.14445e-07 1.69884e-07)
(0.000782784 1.37451e-07 6.98081e-08)
(0.000783542 2.23978e-07 3.43021e-08)
(0.00104465 6.52166e-07 1.91395e-07)
(0.000781184 -1.41443e-07 7.23956e-08)
(0.000781933 -2.70202e-07 4.18099e-08)
(0.00104263 -1.34725e-07 2.00796e-07)
(0.000779825 -2.1293e-08 5.79221e-08)
(0.000780534 -6.34016e-08 5.15749e-08)
(0.00104069 -1.55014e-07 1.78933e-07)
(0.000778548 5.69944e-08 5.58262e-08)
(0.000779162 2.05561e-08 5.68345e-08)
(0.0010389 1.24311e-07 1.72356e-07)
(0.000777015 -9.06644e-09 4.44945e-08)
(0.000777744 3.94177e-09 4.99036e-08)
(0.00103709 3.39775e-08 1.70932e-07)
(0.000775645 -8.86708e-09 4.44832e-08)
(0.000776331 -1.26402e-07 5.11202e-08)
(0.0010351 -5.63068e-08 1.7673e-07)
(0.000774159 -7.80033e-08 3.09644e-08)
(0.000774802 1.38626e-07 5.25161e-08)
(0.00103325 1.49823e-08 1.69371e-07)
(0.00077253 -1.20012e-07 1.77973e-08)
(0.000773213 -2.16144e-07 2.93053e-08)
(0.00103114 -2.7181e-07 1.89189e-07)
(0.000771022 -2.11664e-08 2.89032e-08)
(0.000771812 -2.45936e-07 -1.84541e-08)
(0.00102895 -1.26838e-07 1.92682e-07)
(0.000769736 7.57858e-08 3.28864e-08)
(0.000770422 4.21486e-08 6.05028e-08)
(0.00102708 2.73906e-08 1.7415e-07)
(0.000768361 2.36576e-07 4.88802e-08)
(0.000769092 7.98697e-08 2.12459e-07)
(0.00102551 2.40386e-07 1.65224e-07)
(0.000767105 4.78436e-07 -1.84397e-08)
(0.000767796 3.89284e-07 3.96436e-08)
(0.0010237 4.98305e-07 1.60681e-07)
(0.000765394 4.2348e-07 -2.71135e-08)
(0.000766254 -9.64689e-07 -3.171e-08)
(0.00102166 8.13445e-07 1.95609e-07)
(0.000764166 1.85904e-07 8.1319e-08)
(0.000764751 1.61705e-07 6.11872e-08)
(0.00101971 2.96169e-07 1.60178e-07)
(0.000762916 1.26554e-07 8.55343e-08)
(0.000763568 3.34881e-08 8.14234e-08)
(0.00101801 1.80479e-07 1.62604e-07)
(0.000761592 2.25008e-07 4.99606e-08)
(0.000762371 1.27157e-06 3.82661e-08)
(0.00101639 1.21057e-07 8.96738e-08)
(0.000759455 2.72756e-07 4.51001e-08)
(0.000760563 1.47406e-06 1.363e-08)
(0.00101399 4.12281e-07 1.63203e-07)
(0.000758315 2.40603e-07 9.98549e-08)
(0.000758838 -4.8606e-08 5.339e-08)
(0.00101175 2.70407e-07 1.66091e-07)
(0.000757556 -1.32757e-06 1.00513e-07)
(0.00101026 3.62446e-07 1.88222e-07)
(-0.000494797 -0.00316999 0.000428111)
(-0.00181279 -0.00470203 0.000770468)
(8.74683e-08 -0.0103119 0.000130709)
(0.000146213 -0.00469754 0.0006659)
(0.00238825 0.00587059 -0.000193552)
(-0.00117237 0.00990056 -0.00134697)
(0.0067855 0.00284763 -0.000272565)
(0.00467506 0.00631054 0.000347246)
(0.00831947 0.00472298 0.000213333)
(0.0092363 0.00641921 0.000406583)
(0.00414412 0.00429685 5.14615e-05)
(-0.00711627 0.00248917 0.000192836)
(0.00333486 -0.00243882 -8.04134e-06)
(0.00499029 -0.00359873 0.000246348)
(0.0167026 -0.00365562 -0.000171397)
(0.0117196 -0.00410624 0.000123936)
(0.00190422 0.000321434 4.69916e-05)
(-0.00795364 -0.00332809 0.000431336)
(0.0113191 -0.00339282 0.000589478)
(0.00623476 -0.00759166 0.00185272)
(-6.94666e-05 0.0173871 5.4497e-05)
(0.00160921 -0.0155311 0.000843919)
(0.013315 -0.028869 -0.00107058)
(0.00810641 -0.0208264 0.00123466)
(-0.00450011 -0.0309708 -0.00380533)
(0.00327865 -0.00161555 0.000416259)
(-0.0029653 0.0144994 -4.75749e-05)
(-0.00254033 0.00365755 0.000797712)
(-0.00768275 -0.00710757 -0.000682982)
(0.00410635 -0.000174611 -0.000189532)
(-0.00304509 0.00144189 -0.000318834)
(-0.00725253 -0.00838127 -0.00193726)
(-0.012108 -0.00392706 -0.000232959)
(0.00304004 0.00374568 -0.000168026)
(0.00285675 0.00524975 3.48901e-05)
(0.00258024 0.00249699 6.46571e-08)
(0.00160977 0.00322943 0.000158527)
(0.00491075 0.00541788 5.81396e-05)
(0.000904795 0.000947736 4.54028e-05)
(0.00148942 0.00128236 4.2025e-05)
(0.00196499 0.00116875 0.000109041)
(0.00140641 0.00170433 -7.39028e-06)
(0.00108382 0.000668627 6.50926e-05)
(0.000337611 -3.48187e-05 -2.43737e-06)
(0.000497408 -1.9758e-05 -3.35144e-06)
(0.000487628 -1.76936e-05 -1.13341e-07)
(0.000809496 -4.17913e-05 -9.66441e-07)
(0.000357787 -2.53388e-05 -2.56369e-06)
(0.000607275 -8.26144e-05 -4.85553e-07)
(0.000656417 -5.8086e-05 -3.53451e-06)
(0.000482883 -2.28166e-05 4.47632e-08)
(0.000828785 -8.55119e-06 -8.4945e-07)
(0.000902105 -3.67077e-06 -1.19985e-06)
(0.0011987 -1.50577e-05 -1.00319e-06)