/*--------------------------------*- C++ -*----------------------------------*\
| =========                 |                                                 |
| \\      /  F ield         | OpenFOAM: The Open Source CFD Toolbox           |
|  \\    /   O peration     | Version:  5.0                                   |
|   \\  /    A nd           | Web:      www.OpenFOAM.org                      |
|    \\/     M anipulation  |                                                 |
\*---------------------------------------------------------------------------*/
FoamFile
{
    version     2.0;
    format      ascii;
    class       surfaceVectorField;
    location    "1.3";
    object      Uf_0;
}
// * * * * * * * * * * * * * * * * * * * * * * * * * * * * * * * * * * * * * //

dimensions      [0 1 -1 0 0 0 0];

internalField   nonuniform List<vector> 
23560
(
(-2.01155e-05 -0.00202044 4.95872e-05)
(-0.000790015 -0.0158235 -0.000200772)
(0.00140769 -0.00178259 0.000585216)
(0.0105871 -0.00426926 -0.000138575)
(-0.00214968 -0.0256109 -0.000924772)
(0.00517334 0.000557706 -0.000374403)
(-0.000614455 -0.0023907 3.84833e-05)
(0.00173849 0.00461911 0.000420328)
(0.00463092 0.00332755 -6.09291e-05)
(-0.00112199 0.00333073 -0.000141679)
(-0.000765172 -0.00226735 -9.82772e-05)
(0.000380352 0.00219919 0.000883252)
(-0.000467324 -0.000969131 -8.20348e-05)
(-0.00396695 -0.00202193 5.46404e-05)
(-0.00365265 -0.00455883 3.12503e-05)
(0.00638138 0.00550222 0.00170719)
(0.0134839 -0.0010325 0.000956418)
(0.0275909 0.00723452 0.0001411)
(0.0103564 -0.00203195 0.0042887)
(0.0045008 0.00900982 0.00212435)
(0.00568365 0.00509668 0.00158938)
(0.000469082 0.00858591 0.00192492)
(-0.00804033 -0.00388426 0.00347248)
(-0.00339417 -0.00673337 0.00164015)
(0.00667135 0.0064093 -0.0164977)
(0.00642581 0.00960578 -0.0254794)
(0.0166742 0.0118336 0.0709145)
(0.0129243 0.0117595 -0.025827)
(0.00138397 0.00158956 -0.000230638)
(0.0028528 0.00146184 -2.56893e-05)
(0.00552942 0.000726943 -0.000149315)
(0.00142933 0.000243078 -8.11827e-06)
(0.00337858 -0.000754152 -6.05365e-05)
(0.00121698 -0.000689361 7.3877e-05)
(0.00142226 -0.000754675 0.000110461)
(0.00205579 -0.00222775 0.000180097)
(0.000335383 3.31902e-05 -1.33563e-06)
(0.000489103 2.25453e-05 -2.87011e-06)
(0.00046844 2.17316e-05 -1.15065e-06)
(0.000791201 4.59166e-05 -8.19318e-07)
(0.000327759 2.41854e-05 -1.14667e-06)
(0.000630433 7.64424e-05 3.48025e-06)
(0.000612022 5.3394e-05 3.42141e-06)
(0.000825253 1.82144e-05 -1.22311e-06)
(0.000848624 2.26197e-05 -1.97633e-06)
(0.00112688 3.04316e-05 -1.50483e-06)
(0.000601684 2.02862e-05 -3.87496e-06)
(0.000600949 1.70459e-05 -3.80645e-06)
(0.00102384 3.84932e-05 -4.10658e-06)
(0.00102146 3.03846e-05 -4.06836e-06)
(0.000821745 1.07665e-05 -3.03052e-09)
(0.000814226 1.25659e-05 -1.0534e-07)
(0.00109135 1.67731e-05 1.26585e-07)
(0.000818923 6.92808e-06 9.57617e-08)
(0.00081832 8.08206e-06 1.11055e-07)
(0.00109356 1.0634e-05 1.90991e-07)
(0.000816272 4.41142e-06 8.23944e-08)
(0.000815761 5.15756e-06 7.84876e-08)
(0.00108913 6.79301e-06 1.7799e-07)
(0.000814335 2.83271e-06 1.4628e-07)
(0.000814348 3.24495e-06 6.32994e-08)
(0.00108644 4.19201e-06 1.88642e-07)
(0.000812967 1.85151e-06 1.43293e-07)
(0.000812949 1.35214e-06 1.35146e-07)
(0.00108456 2.80246e-06 1.91383e-07)
(0.000811139 1.14975e-06 5.68928e-08)
(0.000811443 1.26956e-06 5.70848e-08)
(0.00108252 1.77888e-06 1.82913e-07)
(0.000809286 7.26928e-07 4.42416e-08)
(0.000809865 9.40863e-07 5.13872e-08)
(0.00108 1.07847e-06 1.78687e-07)
(0.000807675 3.95457e-07 4.43443e-08)
(0.000808264 3.21017e-08 3.15058e-08)
(0.00107781 7.23903e-07 2.25934e-07)
(0.000805894 1.57777e-07 6.84763e-08)
(0.000806664 5.67946e-07 5.42066e-08)
(0.00107558 2.45204e-07 1.73459e-07)
(0.000804335 4.91606e-08 8.41773e-08)
(0.000805113 1.69418e-07 8.94052e-08)
(0.00107338 1.20374e-07 1.83232e-07)
(0.000802667 -9.08997e-08 9.6634e-08)
(0.000803528 -1.80273e-07 6.62916e-08)
(0.00107123 -2.08902e-08 2.05648e-07)
(0.000801507 -1.44626e-07 8.74502e-08)
(0.000802055 3.10891e-07 6.9976e-08)
(0.00106939 -2.1699e-07 2.49786e-07)
(0.000799811 -3.7952e-08 5.60042e-08)
(0.000800617 1.48327e-07 7.96559e-08)
(0.00106756 -1.31363e-07 1.48172e-07)
(0.000797856 9.9454e-08 5.71371e-08)
(0.000798942 2.66071e-07 5.4668e-08)
(0.00106502 9.71486e-08 1.88955e-07)
(0.000796845 9.90947e-08 5.69623e-08)
(0.000797303 -1.30482e-06 4.23545e-08)
(0.00106306 2.24356e-07 2.02331e-07)
(0.000795172 9.06924e-08 2.41613e-08)
(0.000795909 3.38036e-08 4.00871e-08)
(0.00106134 7.97472e-08 1.80356e-07)
(0.000793538 1.95994e-07 3.67761e-08)
(0.000794376 2.76143e-07 3.06164e-08)
(0.00105912 2.33275e-07 1.9174e-07)
(0.000791961 2.35014e-07 5.37208e-08)
(0.000792712 2.67369e-07 8.60077e-08)
(0.00105699 4.01051e-07 1.94244e-07)
(0.000790647 1.51052e-07 4.31099e-08)
(0.000791176 3.3667e-07 3.65216e-08)
(0.00105505 3.19075e-07 1.31831e-07)
(0.000789261 1.2135e-07 4.93695e-08)
(0.000789804 -9.18643e-08 5.08981e-08)
(0.00105344 1.20176e-07 1.80714e-07)
(0.000786869 -6.48277e-08 6.09686e-08)
(0.00078792 3.01993e-07 4.8085e-08)
(0.0010508 2.08973e-07 2.75493e-07)
(0.000785464 -4.67114e-07 8.84298e-09)
(0.000786029 -4.81517e-07 7.12689e-08)
(0.00104817 -4.01366e-07 2.18405e-07)
(0.000784074 -5.72711e-07 -1.96031e-08)
(0.000784824 1.86424e-06 3.81548e-08)
(0.00104649 -8.7707e-07 -2.1581e-08)
(0.000782276 -4.07153e-07 5.19599e-08)
(0.000783402 1.06344e-06 3.64597e-08)
(0.00104423 -6.81015e-07 9.2004e-08)
(0.000781085 -1.09784e-07 4.53733e-08)
(0.000782027 4.51901e-07 1.4369e-07)
(0.00104221 -4.213e-07 1.65966e-07)
(0.00078034 9.98546e-08 3.25139e-08)
(0.000780832 7.90476e-07 1.41108e-07)
(0.00104113 1.30157e-07 1.47808e-08)
(0.000778639 1.33346e-07 6.33738e-08)
(0.000779305 2.02644e-07 5.27506e-08)
(0.00103951 1.55845e-07 1.76108e-07)
(0.000776892 1.57068e-07 6.48323e-08)
(0.000777671 2.22079e-09 5.04957e-08)
(0.00103712 2.443e-07 2.14291e-07)
(0.000775113 1.45377e-07 5.31716e-08)
(0.00077609 2.35383e-07 5.24131e-08)
(0.00103473 2.16879e-07 1.99928e-07)
(0.000773739 2.41008e-07 4.41497e-08)
(0.000774563 1.06821e-07 5.10143e-08)
(0.00103255 2.11317e-07 1.64407e-07)
(0.000772119 3.98106e-07 6.09094e-08)
(0.000773081 3.15702e-07 4.30749e-08)
(0.00103067 4.96875e-07 1.83258e-07)
(0.000771322 2.82299e-07 5.49536e-08)
(0.000771678 -1.13286e-06 4.19329e-08)
(0.00102917 5.95759e-07 1.95048e-07)
(0.000769732 6.36926e-08 5.34959e-08)
(0.000770273 1.82911e-07 4.52735e-08)
(0.0010275 1.50244e-07 1.74567e-07)
(0.000768207 -1.0203e-07 8.37186e-08)
(0.000768724 -1.35882e-08 6.80733e-08)
(0.00102528 1.9686e-08 1.71393e-07)
(0.000766845 -2.11756e-07 1.68173e-07)
(0.000767415 -3.50359e-07 5.77425e-08)
(0.00102366 -3.36781e-07 1.7897e-07)
(0.00076536 -9.59594e-08 1.39805e-07)
(0.000766146 -2.75153e-07 1.63007e-07)
(0.00102163 -2.92685e-07 1.70695e-07)
(0.000763584 8.90168e-08 -2.07058e-08)
(0.000764635 3.35442e-07 4.46125e-08)
(0.00101937 -2.96443e-08 1.68478e-07)
(0.000762177 1.08015e-07 -1.32116e-08)
(0.000763032 4.77909e-07 2.41455e-09)
(0.00101731 1.58154e-07 9.03666e-08)
(0.000761352 -1.71936e-07 5.81564e-08)
(0.000761643 -8.35024e-07 6.22144e-08)
(0.00101576 3.75714e-08 1.63686e-07)
(0.000759759 -3.92826e-07 2.30921e-08)
(0.000760371 -1.54257e-07 5.56285e-08)
(0.00101431 -5.05716e-07 1.67597e-07)
(0.000758052 -3.16025e-07 3.30336e-08)
(0.000758822 1.07814e-06 3.02434e-08)
(0.00101199 -5.13376e-07 8.79817e-08)
(0.000757508 -4.85213e-07 5.47424e-08)
(0.00100966 -3.31643e-07 2.66037e-07)
(0.00652349 -0.00932871 -0.000429877)
(0.00702895 -0.00732967 -0.000495899)
(-0.00150613 -0.0254577 -0.00107253)
(-0.00238128 0.00519074 0.000524702)
(0.0015468 0.00518899 0.000711206)
(0.00231589 0.00238388 0.0018963)
(-0.00832524 0.00605805 -0.0012884)
(-0.0185598 0.00183331 0.000838101)
(-0.00853598 0.00590452 0.0024872)
(0.0170881 -0.00116349 0.000108434)
(0.0226001 -0.00136722 5.38538e-05)
(0.00802133 0.0051797 -0.000127447)
(0.00706082 -0.0110292 0.000583654)
(0.00231589 0.00238388 0.0018963)
(0.00231589 0.00238388 0.0018963)
(0.00231589 0.00238388 0.0018963)
(-0.00633634 0.00747064 7.70273e-05)
(-0.00567098 0.00085781 -0.000356672)
(-0.00686795 0.00291274 -0.00112556)
(-0.0149712 0.00279158 0.000579455)
(0.00498002 -0.00230547 0.00021691)
(-0.00304213 0.00385601 0.000456017)
(-0.00077063 -0.000856185 0.00166041)
(0.00214316 -0.00229714 0.00053549)
(-0.00490685 -0.0173538 0.000835238)
(0.0273009 0.0048959 0.000127218)
(0.0138586 0.00664508 0.000115042)
(0.0211409 0.00732988 -0.000190198)
(0.00421617 -0.000550241 0.000137398)
(-0.00448121 -0.000888734 -0.000839639)
(0.00414209 -0.000531681 7.76376e-05)
(0.00527799 0.00350966 -0.00219675)
(0.019701 -0.0147835 0.000353473)
(0.0164166 -0.00328209 0.00133497)
(0.018067 -0.00674791 0.00193188)
(0.00474835 -0.00205489 -2.86887e-05)
(0.000561991 -0.00312959 5.58047e-07)
(0.00217469 -0.000937546 7.42772e-05)
(0.00186955 -0.00179973 6.44979e-05)
(0.000816087 -0.000992819 -7.0282e-05)
(0.000684078 -0.00706742 -0.000118255)
(0.000416065 3.51131e-06 2.56655e-06)
(0.000467631 2.03251e-05 -1.99945e-07)
(0.000482768 1.16645e-05 -1.95721e-06)
(0.000779976 3.08239e-05 7.7922e-06)
(0.000381115 1.50282e-05 1.68871e-05)
(0.000825477 7.68002e-06 1.33275e-05)
(0.000740075 0.000104216 4.09319e-05)
(0.000311337 1.94159e-05 9.54352e-07)
(0.000468189 5.17308e-05 2.37236e-06)
(0.000602845 6.04296e-05 -1.63744e-06)
(0.000328847 2.85204e-05 -7.45263e-07)
(0.000814955 1.37693e-05 -8.59177e-07)
(0.00087267 6.4236e-06 -1.29988e-06)
(0.00113005 2.09708e-05 -1.20657e-06)
(0.000604842 9.32774e-06 -3.70243e-06)
(0.000575399 -4.60987e-07 -4.72144e-06)
(0.0010219 1.21084e-05 -3.86419e-06)
(0.000946252 -1.29395e-05 -5.02015e-06)
(0.000814169 8.46502e-06 8.6746e-09)
(0.000807897 1.19979e-05 -4.20593e-07)
(0.00107669 1.15115e-05 1.46995e-07)
(0.000814361 5.84604e-06 9.37912e-08)
(0.000815042 5.56348e-06 9.81909e-08)
(0.00108647 8.12603e-06 2.00036e-07)
(0.00081374 3.90098e-06 5.93976e-08)
(0.000813326 3.93119e-06 4.16361e-08)
(0.00108485 5.46405e-06 1.82017e-07)
(0.00081289 2.6188e-06 5.21417e-08)
(0.000812742 2.3672e-06 5.05564e-08)
(0.00108422 3.62594e-06 1.77328e-07)
(0.000811383 1.69781e-06 4.89625e-08)
(0.000811796 1.38179e-06 4.76512e-08)
(0.00108268 2.49128e-06 1.70666e-07)
(0.000810151 1.02161e-06 5.15811e-08)
(0.000810596 8.18387e-07 5.08224e-08)
(0.00108086 1.45493e-06 1.7915e-07)
(0.000808862 6.44187e-07 3.86579e-08)
(0.000809393 5.46058e-07 5.259e-08)
(0.00107926 8.9427e-07 1.80205e-07)
(0.000807206 4.71857e-07 4.13608e-08)
(0.000808048 5.08247e-07 3.82505e-08)
(0.00107726 5.88942e-07 1.52264e-07)
(0.000805884 4.56306e-07 7.51242e-08)
(0.000806644 1.09933e-07 5.20709e-08)
(0.0010753 5.13423e-07 1.88128e-07)
(0.000804304 5.55715e-07 7.1527e-08)
(0.000805236 -4.05226e-07 3.67267e-08)
(0.00107341 5.79053e-07 2.18578e-07)
(0.000802852 5.37755e-07 3.96325e-08)
(0.000803504 -3.19934e-07 7.43074e-08)
(0.00107136 8.0393e-07 1.77694e-07)
(0.000801203 3.87508e-07 6.21786e-08)
(0.000801865 3.77978e-07 3.62362e-08)
(0.0010693 5.61754e-07 1.80589e-07)
(0.000799803 2.80606e-07 7.83278e-08)
(0.000800482 2.15987e-07 6.58709e-08)
(0.0010673 4.44432e-07 1.58941e-07)
(0.000798326 4.21717e-07 3.98894e-08)
(0.000799117 1.89926e-07 5.43433e-08)
(0.00106539 3.05232e-07 1.75886e-07)
(0.000796351 5.197e-07 2.54801e-08)
(0.000797424 -1.09749e-06 2.34248e-08)
(0.001063 8.15454e-07 1.99651e-07)
(0.000795172 3.50555e-07 4.65452e-08)
(0.000795696 -9.69347e-07 -3.14724e-08)
(0.00106106 5.8407e-07 2.14804e-07)
(0.000793497 1.61423e-07 7.98304e-08)
(0.000794138 1.80655e-07 7.20704e-08)
(0.00105923 4.00559e-07 1.95048e-07)
(0.000791935 1.55494e-08 6.88242e-08)
(0.000792529 -2.05634e-08 6.34909e-08)
(0.0010569 9.08163e-08 1.98831e-07)
(0.000790284 -1.08259e-07 4.43053e-08)
(0.000791022 9.63322e-08 5.0323e-08)
(0.00105475 5.30421e-09 2.03436e-07)
(0.000788734 -4.68993e-07 4.96145e-08)
(0.000789354 -1.28898e-07 5.41185e-08)
(0.00105274 -2.63188e-07 1.80615e-07)
(0.000786813 -5.8239e-07 5.8378e-08)
(0.000787781 1.23911e-06 6.9871e-09)
(0.00105039 -9.93768e-07 1.44713e-07)
(0.000785316 -3.96125e-07 1.00591e-07)
(0.000786264 -1.56658e-07 4.71473e-08)
(0.00104801 -5.76975e-07 1.50658e-07)
(0.000784288 -2.69229e-07 9.42182e-08)
(0.000784984 7.12836e-08 1.13005e-07)
(0.00104649 -4.82565e-07 2.59227e-07)
(0.000783037 1.42832e-07 1.28156e-07)
(0.000783917 -4.01847e-08 6.32816e-08)
(0.00104496 -2.35758e-07 2.30537e-07)
(0.000781833 6.04487e-07 2.39425e-07)
(0.000782602 6.01548e-07 2.47455e-07)
(0.00104335 6.485e-07 1.37607e-07)
(0.000779835 5.28617e-07 1.61372e-07)
(0.000780735 6.00304e-07 1.96622e-07)
(0.00104129 1.00239e-06 2.32537e-07)
(0.000778313 2.23969e-07 3.98733e-08)
(0.000778922 2.41137e-07 6.97601e-08)
(0.00103884 4.00975e-07 1.7426e-07)
(0.000776888 1.06374e-07 3.80759e-08)
(0.000777524 2.60603e-08 4.43739e-08)
(0.00103685 1.85801e-07 1.66688e-07)
(0.000775507 1.30386e-07 5.02562e-08)
(0.000776119 1.46905e-07 8.41273e-08)
(0.00103502 1.13532e-07 1.71166e-07)
(0.000773927 2.36729e-07 4.99419e-08)
(0.000774695 8.24407e-08 5.25832e-08)
(0.00103314 2.79731e-07 1.84565e-07)
(0.000772562 3.49717e-07 2.40987e-08)
(0.000773221 3.06051e-07 4.27934e-08)
(0.00103109 4.34306e-07 1.64503e-07)
(0.000770665 2.13406e-07 3.22517e-08)
(0.000771506 -4.69565e-07 1.93146e-08)
(0.00102885 5.64805e-07 1.6411e-07)
(0.000769313 -1.31144e-07 5.98439e-08)
(0.000769842 8.84579e-08 6.10173e-08)
(0.00102675 3.59845e-08 1.70008e-07)
(0.000767862 -3.97146e-07 4.21004e-08)
(0.000768392 1.71937e-07 2.82252e-08)
(0.00102482 -3.43433e-07 1.58775e-07)
(0.000766695 -4.19767e-07 5.25448e-08)
(0.000767389 -8.49461e-07 3.20212e-08)
(0.00102305 -6.64498e-07 1.83099e-07)
(0.00076552 -2.07055e-07 6.78511e-08)
(0.000766414 -1.30373e-07 8.19493e-08)
(0.0010217 -4.83583e-07 1.37376e-07)
(0.00076409 -2.61326e-08 6.77457e-08)
(0.000764863 2.53045e-07 4.97043e-08)
(0.00101991 -1.48309e-07 1.77271e-07)
(0.000762332 1.77612e-07 7.78222e-08)
(0.000763287 -8.74325e-08 5.68093e-08)
(0.00101775 9.52389e-09 2.42641e-07)
(0.000760769 1.58025e-07 5.96885e-08)
(0.000761619 1.67757e-07 7.62567e-08)
(0.00101559 3.93098e-07 1.1095e-07)
(0.000759443 -9.31434e-08 6.27875e-08)
(0.000760057 -3.04162e-07 5.18683e-08)
(0.00101362 -1.58802e-09 1.73683e-07)
(0.000758153 -2.01732e-07 5.19447e-08)
(0.000758689 -5.32468e-08 6.92127e-08)
(0.00101179 -2.57191e-07 2.42508e-07)
(0.000757759 2.32411e-07 4.63289e-08)
(0.00101057 -2.92017e-07 7.48718e-08)
(0.00246476 -0.0170767 0.000347169)
(-0.00307977 -0.0194453 -4.29811e-05)
(0.0109924 -0.0329792 -0.00205024)
(0.00292875 -0.0409619 0.00133707)
(-0.00534925 0.00275068 0.00136233)
(-0.0150134 0.00521127 0.000431921)
(-0.000251462 0.00719534 0.000236497)
(-0.0184674 0.00273769 -0.000119354)
(-0.00492696 0.0097059 0.00161235)
(-0.00248174 0.00631908 -0.000210181)
(0.00201498 -0.0101618 -0.000137568)
(-0.00790009 0.00145246 0.00352954)
(-0.00211086 -0.00416205 8.55837e-05)
(0.00858694 -0.00183359 0.000875633)
(0.00782044 0.00220707 -6.37674e-05)
(-0.00171095 0.00202053 -4.05121e-06)
(-0.0141624 0.00984834 -0.000772078)
(-0.000251462 0.00719534 0.000236497)
(-0.000251462 0.00719534 0.000236497)
(-0.000251462 0.00719534 0.000236497)
(-0.0283752 0.00478673 -0.0024949)
(-0.00856015 -0.0152218 0.00075976)
(-0.02636 0.000466371 0.00373273)
(-0.0145847 0.0117741 -0.000300378)
(0.0206389 -0.00469656 -0.00272438)
(0.0097088 -0.0187754 0.00419397)
(0.035132 -0.0202309 0.00219844)
(0.0103771 -7.17924e-06 0.00122388)
(0.00202058 -0.0034364 0.000382309)
(-0.0165645 -0.0126295 -0.000401029)
(0.00627842 -0.00363401 -0.000231804)
(0.0148078 -0.000899735 0.000472892)
(0.00723801 0.012846 0.0023613)
(0.0144486 0.0149697 0.00115207)
(0.0133134 0.0278398 0.00315768)
(0.0170673 0.00513519 -4.30316e-05)
(-0.00773794 0.00170656 -0.000174799)
(-0.0139152 -0.00432311 0.000446104)
(-0.00174721 -0.0271186 0.000514564)
(0.00525306 0.00240487 0.00268745)
(-0.0299257 -0.00482115 -0.000708981)
(-0.0386432 -0.00391541 0.000803649)
(-0.0137831 -0.002304 -0.00039407)
(-0.0225277 -0.000267832 -0.000228045)
(-0.0483097 -0.00251969 -0.00240011)
(0.000584726 -0.000164348 -1.46621e-06)
(0.000268561 -3.34146e-05 7.93406e-06)
(0.000375666 -0.000120159 2.87235e-05)
(0.000430308 -0.0001283 3.28863e-05)
(0.000264187 -5.44011e-05 7.95543e-06)
(0.000826336 1.05208e-05 -8.61581e-07)
(0.00056073 3.69688e-06 -6.80662e-07)
(0.00119326 -9.80023e-06 -9.98414e-07)
(0.000587065 -1.68588e-05 -5.10706e-06)
(0.000623276 2.29005e-05 -5.717e-06)
(0.000942556 -4.62824e-05 -5.55846e-06)
(0.00103096 4.25126e-05 -4.42386e-06)
(0.000564822 -1.74219e-05 -3.36003e-06)
(0.000915192 -7.82277e-06 2.90838e-07)
(0.000924555 -4.18692e-05 -4.26702e-06)
(0.000813505 1.47129e-05 -3.31247e-07)
(0.000822602 2.92027e-05 -8.74939e-07)
(0.0010762 2.93453e-05 -3.75906e-08)
(0.000813161 4.51457e-06 4.60543e-08)
(0.00080236 3.98139e-06 -1.371e-07)
(0.001086 5.36803e-06 1.82606e-07)
(0.000812297 2.75307e-06 3.27921e-08)
(0.000811127 3.13565e-06 1.0914e-07)
(0.0010835 4.14066e-06 1.73513e-07)
(0.000811778 1.26415e-06 4.60668e-08)
(0.000810883 1.01781e-06 4.48486e-08)
(0.00108273 1.71488e-06 1.81199e-07)
(0.000810937 6.51615e-07 4.95101e-08)
(0.000811033 4.2472e-07 5.63692e-08)
(0.00108184 7.85969e-07 1.80779e-07)
(0.000809854 3.75187e-07 5.18308e-08)
(0.000810253 1.58735e-07 5.30239e-08)
(0.00108052 4.27315e-07 1.80488e-07)
(0.000808621 2.06872e-07 5.21874e-08)
(0.000809184 7.21591e-08 5.28709e-08)
(0.00107892 2.44631e-07 1.80726e-07)
(0.000807465 1.32327e-07 4.89562e-08)
(0.000807956 3.23498e-09 5.17787e-08)
(0.00107733 9.88993e-08 1.76835e-07)
(0.000806042 9.89562e-08 1.36784e-08)
(0.000806603 -7.09774e-08 4.92434e-08)
(0.00107557 1.1405e-07 1.77906e-07)
(0.000804548 1.72803e-08 3.94951e-08)
(0.000805135 4.43079e-07 3.61676e-08)
(0.00107374 5.06758e-08 1.13055e-07)
(0.00080235 1.55077e-08 7.09234e-08)
(0.000803502 5.66569e-07 6.40873e-08)
(0.0010712 -9.21633e-08 1.71321e-07)
(0.000801146 6.8578e-08 3.9919e-08)
(0.000801932 -9.75526e-08 3.85151e-08)
(0.00106893 4.39514e-08 1.79561e-07)
(0.000799755 6.24709e-08 4.18901e-08)
(0.000800475 -1.88145e-07 5.14198e-08)
(0.00106724 5.04732e-08 1.90948e-07)
(0.000798484 -7.71439e-09 3.78886e-08)
(0.000799029 -1.54316e-07 4.9465e-08)
(0.00106548 4.98162e-08 1.76609e-07)
(0.000796532 1.29452e-08 -3.35102e-08)
(0.000797449 -5.77978e-07 1.51989e-08)
(0.0010634 -6.65071e-08 1.75949e-07)
(0.000794759 -1.85075e-08 -5.98008e-09)
(0.000795656 -3.10317e-07 -1.5096e-08)
(0.00106082 1.45725e-07 1.50642e-07)
(0.00079305 -8.94425e-08 5.57335e-08)
(0.00079405 -6.26245e-07 5.42722e-08)
(0.0010585 -1.83086e-07 2.47679e-07)
(0.000791694 -6.32207e-08 4.49938e-08)
(0.000792562 -1.56198e-07 3.18315e-08)
(0.00105649 -6.79335e-08 1.70094e-07)
(0.000790138 -4.94021e-08 6.0135e-08)
(0.000791039 1.04831e-07 6.41398e-08)
(0.00105461 -8.85832e-08 1.77667e-07)
(0.000788334 -1.88489e-08 1.1506e-08)
(0.000789392 -3.73577e-08 7.34543e-08)
(0.0010522 -4.89374e-09 1.93809e-07)
(0.000787262 2.58276e-07 -4.25622e-09)
(0.000788126 -7.13234e-07 2.65554e-08)
(0.00105041 -5.56276e-09 2.7358e-07)
(0.000785739 6.79053e-07 5.95402e-08)
(0.000786788 -1.10709e-06 2.87088e-08)
(0.00104882 7.30975e-07 2.43052e-07)
(0.00078472 7.8891e-07 8.20838e-08)
(0.000785118 -9.29271e-07 5.43812e-08)
(0.00104692 1.0968e-06 2.02382e-07)
(0.000783468 6.10622e-07 1.82523e-07)
(0.000783691 -1.94051e-06 2.43228e-08)
(0.00104564 9.99073e-07 2.87064e-07)
(0.000781775 3.26598e-07 2.04668e-07)
(0.000782245 4.45994e-07 1.7969e-07)
(0.00104375 6.24841e-07 2.02747e-07)
(0.000779566 1.3524e-07 1.0505e-07)
(0.000780495 6.11242e-08 8.46699e-08)
(0.00104081 2.55769e-07 2.76117e-07)
(0.000778143 1.16003e-07 7.42686e-08)
(0.000778898 2.02963e-07 7.09022e-08)
(0.00103848 1.01506e-07 1.70875e-07)
(0.000776745 1.28096e-07 9.0413e-08)
(0.000777538 -1.13032e-07 6.96735e-08)
(0.00103676 1.80853e-07 1.75968e-07)
(0.000775346 6.6632e-08 8.64642e-08)
(0.000776042 1.26488e-07 8.85728e-08)
(0.00103484 1.47894e-07 1.67815e-07)
(0.0007739 7.7434e-08 4.54377e-08)
(0.000774708 1.06012e-07 5.00799e-08)
(0.00103295 3.92717e-08 1.6913e-07)
(0.000772387 8.04163e-08 3.80166e-08)
(0.000773224 4.21195e-07 2.71929e-08)
(0.00103102 1.53693e-07 1.68811e-07)
(0.000770475 8.2493e-09 4.80673e-08)
(0.000771415 1.11799e-08 -2.55735e-09)
(0.00102867 3.37056e-08 1.78612e-07)
(0.000768983 -5.58888e-08 2.94087e-08)
(0.000769761 2.18869e-07 6.28303e-08)
(0.00102636 -2.17788e-08 1.66369e-07)
(0.000767636 1.64245e-07 1.81448e-08)
(0.000768666 3.97547e-07 2.79825e-08)
(0.00102441 -9.67988e-08 1.46581e-07)
(0.000767451 3.00951e-07 6.14103e-08)
(0.000767558 -2.09218e-06 5.20141e-08)
(0.00102349 6.06715e-07 1.48036e-07)
(0.000765685 8.38661e-08 6.38123e-08)
(0.000766141 1.94557e-07 4.8042e-08)
(0.00102228 3.09455e-07 1.77919e-07)
(0.000764129 -1.73813e-08 3.87656e-08)
(0.000764735 3.10249e-07 5.19033e-08)
(0.00101999 7.40772e-08 1.78566e-07)
(0.000762534 5.26979e-08 5.52378e-08)
(0.000763373 3.88469e-07 4.40813e-08)
(0.00101799 3.27832e-08 1.52054e-07)
(0.000760802 1.38985e-07 6.8444e-08)
(0.000761725 -2.89671e-07 6.91359e-08)
(0.00101575 2.09223e-07 2.32768e-07)
(0.000759328 1.59678e-07 5.82883e-08)
(0.000760082 -1.01756e-07 4.50387e-08)
(0.0010135 2.26748e-07 1.61433e-07)
(0.000758093 1.34534e-07 6.36038e-08)
(0.000758655 -3.0644e-07 4.93324e-08)
(0.00101163 2.24889e-07 1.73264e-07)
(0.000757591 1.45303e-07 5.95545e-08)
(0.00101034 1.25658e-07 1.57955e-07)
(-0.00740036 -0.00429995 0.00047068)
(-0.00276985 -0.00262946 -0.000192254)
(-0.0128589 -0.00990107 0.000678941)
(-0.00583887 -0.00339599 0.00064875)
(-0.00656863 0.000104721 -4.97796e-05)
(-0.00641227 -0.00720853 0.00146627)
(-0.00144423 0.0014536 -0.000337247)
(-0.0266623 0.00281421 7.8448e-05)
(-0.00455944 0.00281633 4.44278e-05)
(-0.0157693 0.00793692 0.00149574)
(-0.0106716 0.00128364 0.000356707)
(-0.0214159 -0.000710941 -0.0011216)
(-0.0024991 -0.00486053 -0.00145175)
(-0.00167964 0.0109213 -0.00056238)
(-0.00406406 -0.00259481 -0.00307096)
(-0.00134953 -0.0113049 -0.00113559)
(0.00393517 -0.00531271 -0.000186804)
(-0.0167631 -0.00951527 0.000226097)
(-0.00759413 -0.0043293 0.000487828)
(0.0205508 -0.00683011 -0.000536513)
(-0.00403827 0.00189357 -0.000364671)
(-0.00465151 0.000523603 -0.000728204)
(-0.0014385 -0.00344823 -0.00176958)
(0.00539129 -0.00205166 -0.000508156)
(-0.00149667 0.00755368 -0.000479366)
(-0.0278425 0.00546663 -0.00156252)
(0.00940144 0.0144589 -0.000343491)
(-0.00987952 0.0171652 -0.00261861)
(-0.00279427 0.0101514 -0.0022733)
(0.00322324 -0.00101319 5.34069e-05)
(-0.00886687 0.000591526 0.00156179)
(0.0155518 -0.0191662 -0.00126415)
(0.00980773 0.000688168 0.000350934)
(-0.00890236 0.0204004 -0.000141442)
(0.000293908 -0.000222673 -8.0358e-05)
(0.00147416 -0.000695769 -0.000276212)
(0.00129812 0.00110137 -0.000680568)
(0.000918735 -0.000508744 5.72581e-05)
(0.000639427 -8.27313e-05 3.62695e-05)
(0.000825751 8.98062e-05 2.23493e-05)
(0.000846976 5.6476e-05 -1.56454e-05)
(0.000966225 -4.43816e-06 1.63683e-05)
(0.000418077 4.97622e-06 7.0734e-07)
(0.000436682 -1.33416e-05 -2.6916e-06)
(0.000414048 -1.83216e-05 -2.44706e-09)
(0.000659244 -1.60103e-05 -6.54205e-08)
(0.00079435 3.57097e-06 -6.81033e-07)
(0.000856995 -1.21827e-05 -1.03915e-06)
(0.00112036 1.19871e-05 -8.4788e-07)
(0.000559236 -9.96657e-06 -3.36947e-06)
(0.000571772 -1.42933e-05 -4.63544e-06)
(0.000923839 -3.39592e-05 -4.27667e-06)
(0.000947367 -4.11371e-05 -5.88273e-06)
(0.000805103 -2.13711e-06 -7.40942e-08)
(0.000795151 -1.00831e-05 -4.89037e-07)
(0.00105516 -5.66631e-06 8.58866e-08)
(0.000809267 -8.62972e-07 1.21218e-07)
(0.000812739 -4.5245e-06 1.88944e-07)
(0.0010803 -1.68193e-06 2.13237e-07)
(0.000810563 -7.84229e-07 5.51472e-08)
(0.000810991 -2.60038e-06 3.57016e-08)
(0.00108003 -1.54973e-06 1.80577e-07)
(0.000810445 -5.30737e-07 5.98841e-08)
(0.000811356 -1.49366e-06 7.57638e-08)
(0.00108108 -1.07434e-06 1.84311e-07)
(0.000809655 -3.2303e-07 5.4064e-08)
(0.000810516 -8.83289e-07 5.34382e-08)
(0.00108019 -6.55766e-07 1.81616e-07)
(0.000808546 -1.59003e-07 5.24625e-08)
(0.000809391 -5.56512e-07 4.92286e-08)
(0.00107885 -3.7865e-07 1.81037e-07)
(0.000807149 -1.25239e-07 5.20667e-08)
(0.000807999 -2.46812e-07 4.4135e-08)
(0.0010771 -1.45843e-07 1.80335e-07)
(0.000805719 -2.22914e-07 7.17368e-08)
(0.000806482 -2.93525e-07 5.1242e-08)
(0.00107524 -2.48502e-07 1.81594e-07)
(0.00080416 -3.6154e-07 6.07508e-08)
(0.000804962 1.82213e-08 6.94226e-08)
(0.00107315 -3.57245e-07 2.06661e-07)
(0.000802991 -3.64729e-07 3.16872e-08)
(0.0008035 8.53284e-08 1.26284e-07)
(0.00107136 -5.99255e-07 1.76878e-07)
(0.000801286 -2.39724e-07 5.00117e-08)
(0.00080209 -2.77842e-08 1.45489e-08)
(0.00106948 -4.01872e-07 1.85235e-07)
(0.000799715 -1.99485e-07 5.89953e-08)
(0.000800526 -2.55588e-07 6.71675e-08)
(0.00106731 -2.9781e-07 1.83207e-07)
(0.000798074 -2.95376e-07 2.67862e-08)
(0.000798911 -4.95783e-08 3.53022e-08)
(0.00106524 -2.88828e-07 1.77569e-07)
(0.000796566 -3.47457e-07 3.36227e-08)
(0.000797386 -1.59717e-07 1.18584e-07)
(0.00106312 -5.29495e-07 1.44295e-07)
(0.000794895 -2.37767e-07 4.51342e-08)
(0.000795795 7.91652e-09 8.33006e-08)
(0.00106091 -4.06099e-07 1.65496e-07)
(0.000793552 -3.44794e-08 3.03773e-08)
(0.000794304 1.0065e-07 9.58032e-08)
(0.00105896 -2.347e-07 1.08523e-07)
(0.000791899 1.63263e-07 5.09672e-08)
(0.000792809 -4.37959e-08 5.11072e-08)
(0.00105702 1.30476e-07 1.78684e-07)
(0.000790376 2.96721e-07 7.74561e-08)
(0.000791204 -3.85514e-08 6.79087e-08)
(0.00105483 3.01481e-07 1.85436e-07)
(0.000788968 6.05633e-07 8.85185e-08)
(0.000789776 -5.86575e-07 5.8159e-08)
(0.00105285 5.25384e-07 2.04145e-07)
(0.000787877 7.78441e-07 5.95197e-08)
(0.000788339 -2.20612e-06 5.00945e-08)
(0.00105131 1.16624e-06 2.42961e-07)
(0.000786046 7.75245e-07 2.35418e-08)
(0.00078678 7.1361e-08 2.18499e-08)
(0.00104938 9.84686e-07 1.19944e-07)
(0.000784162 8.12793e-07 -3.37024e-09)
(0.000785161 -1.1771e-07 -6.17081e-09)
(0.00104682 1.11474e-06 1.50638e-07)
(0.000782367 5.03478e-07 2.14406e-08)
(0.000783302 -4.5148e-07 9.1402e-09)
(0.00104436 1.07715e-06 9.49729e-08)
(0.000781144 7.47217e-08 5.97209e-08)
(0.000781708 -4.18468e-08 9.14509e-08)
(0.00104241 2.85243e-07 1.84449e-07)
(0.000779648 1.29764e-09 5.05267e-08)
(0.000780403 3.31604e-08 5.1797e-08)
(0.00104064 -8.1619e-08 1.76455e-07)
(0.000778373 5.94775e-08 6.63074e-08)
(0.00077897 3.994e-07 6.01692e-08)
(0.00103875 1.04517e-07 1.40929e-07)
(0.000776769 4.53045e-08 6.78275e-08)
(0.00077752 -2.68094e-08 6.59952e-08)
(0.00103691 6.44129e-08 1.78199e-07)
(0.000775357 1.27397e-09 5.22004e-08)
(0.000775987 8.52088e-08 2.92092e-08)
(0.00103484 3.43716e-08 1.70567e-07)
(0.00077414 -1.65749e-07 3.18421e-08)
(0.0007745 -1.78796e-07 6.37974e-08)
(0.00103315 -5.87024e-08 1.70713e-07)
(0.000772341 -2.84895e-07 -1.33719e-08)
(0.000773076 1.75084e-06 5.43837e-08)
(0.00103109 -4.0341e-07 1.07257e-07)
(0.000770572 -9.92882e-08 1.21854e-08)
(0.000771648 1.3081e-06 2.39825e-08)
(0.00102864 -3.80901e-07 1.07118e-07)
(0.000769246 2.67328e-07 6.14147e-08)
(0.000770219 -1.01401e-08 5.74346e-08)
(0.00102659 8.88949e-08 1.77258e-07)
(0.000768781 5.32594e-07 6.18443e-08)
(0.000768996 -4.71452e-07 1.04869e-07)
(0.0010256 6.02335e-07 1.46019e-07)
(0.000766266 4.47537e-07 3.8647e-08)
(0.000767449 -1.08189e-06 6.08286e-08)
(0.00102355 8.13086e-07 1.95784e-07)
(0.00076511 1.17724e-07 3.61318e-08)
(0.000765727 4.52261e-07 -8.53154e-08)
(0.00102103 4.21184e-07 1.27524e-07)
(0.000764034 -5.88855e-08 5.72213e-08)
(0.000764513 1.88868e-07 5.76994e-08)
(0.00101956 -2.59985e-08 1.47926e-07)
(0.000762699 -5.34937e-08 5.79717e-08)
(0.00076338 2.70829e-08 5.26497e-08)
(0.00101792 -6.06156e-08 1.89323e-07)
(0.000760755 9.02129e-09 4.57379e-08)
(0.000761803 -3.2507e-07 2.22763e-08)
(0.00101583 -5.14863e-08 2.21366e-07)
(0.000759569 1.38051e-07 3.60816e-08)
(0.000760243 -2.83352e-07 -1.0475e-07)
(0.00101364 7.73169e-08 1.63154e-07)
(0.0007579 2.15742e-07 4.52801e-08)
(0.00075875 8.65231e-08 2.06723e-08)
(0.00101166 2.82604e-07 1.6563e-07)
(0.000757322 3.23419e-07 7.08901e-08)
(0.00101014 2.91935e-07 1.27467e-07)
(0.00320812 0.00273154 -0.000936306)
(-2.01155e-05 -0.00202044 4.95872e-05)
(-2.01155e-05 -0.00202044 4.95872e-05)
(-2.01155e-05 -0.00202044 4.95872e-05)
(0.00295948 0.00575524 3.00375e-05)
(0.00151027 0.0103046 -0.000445685)
(0.00842326 0.00483445 -0.000124008)
(0.00238325 0.00655884 0.000378365)
(0.00613863 0.00526028 0.000264811)
(0.00746395 0.00843572 0.000521036)
(0.00286328 0.00543747 0.000216266)
(0.00011192 0.00479281 -0.00010934)
(0.00392672 -0.00173007 1.42743e-05)
(0.00456682 -0.00189571 0.00031508)
(0.01503 -0.00308962 -9.27643e-05)
(0.0132135 -0.00210895 0.000338135)
(0.000846792 0.000875354 0.000120451)
(-0.00929773 -0.00326513 0.000457803)
(0.0100296 -0.00359107 0.000660038)
(0.00464927 -0.0065227 0.00202902)
(-0.000121468 0.0132116 0.000113667)
(-0.000615079 -0.0153616 0.000727758)
(0.0194603 -0.0210782 -0.00035632)
(0.00407056 -0.0233046 0.00151175)
(0.00432476 -0.0387255 -0.00502528)
(0.00416344 -0.00388618 0.000542672)
(-0.00107458 0.0140772 0.000386094)
(-0.00202018 0.00264808 0.000800758)
(-0.00702519 -0.00736603 -0.000813165)
(0.00462041 -0.0010532 -0.000172982)
(-0.00143459 0.00128941 -0.000300904)
(-0.00709301 -0.00834139 -0.00189275)
(-0.0109789 -0.00407914 -0.000293336)
(0.00316986 0.00271265 -0.000153385)
(0.0029655 0.00406301 4.91184e-05)
(0.00247654 0.00174738 -6.19343e-06)
(0.00180196 0.00267282 0.000161186)
(0.004971 0.00406579 4.39383e-05)
(0.000793686 0.000838569 4.6477e-05)
(0.00141251 0.0012186 4.15031e-05)
(0.00192648 0.00104446 0.000108941)
(0.00130032 0.0016223 -1.00782e-05)
(0.001053 0.000610827 6.51774e-05)
(0.000305466 -4.46923e-05 -2.62646e-06)
(0.000471539 -3.16459e-05 -3.62626e-06)
(0.000454231 -3.55969e-05 -6.54093e-07)
(0.000757034 -6.22144e-05 -1.5271e-06)
(0.000327871 -3.56774e-05 -2.77468e-06)
(0.000560094 -9.90156e-05 -8.662e-07)
(0.000614252 -7.43648e-05 -3.93744e-06)
(0.000442375 -3.40071e-05 -5.13975e-07)
(0.00081297 -1.76513e-05 -8.4733e-07)
(0.000886013 -2.11544e-05 -1.12942e-06)
(0.00117163 -2.92219e-05 -9.72309e-07)
(0.000595457 -2.48096e-05 -3.97365e-06)
(0.000599801 -2.3101e-05 -5.00663e-06)