/*--------------------------------*- C++ -*----------------------------------*\
| =========                 |                                                 |
| \\      /  F ield         | OpenFOAM: The Open Source CFD Toolbox           |
|  \\    /   O peration     | Version:  5.0                                   |
|   \\  /    A nd           | Web:      www.OpenFOAM.org                      |
|    \\/     M anipulation  |                                                 |
\*---------------------------------------------------------------------------*/
FoamFile
{
    version     2.0;
    format      ascii;
    class       surfaceScalarField;
    location    "0.9";
    object      alphaPhi10;
}
// * * * * * * * * * * * * * * * * * * * * * * * * * * * * * * * * * * * * * //

dimensions      [0 3 -1 0 0 0 0];

internalField   nonuniform List<scalar> 
30991
(
2.19214e-08
-2.81316e-09
5.6545e-08
-1.51964e-07
3.12607e-08
-7.13303e-08
1.73008e-08
7.70475e-08
2.29977e-08
-5.02385e-09
-6.51026e-09
-7.30869e-09
-3.35126e-09
3.33276e-09
-5.52671e-09
-7.31268e-08
1.16672e-07
-1.99295e-07
-4.44508e-08
1.63255e-08
1.39677e-08
1.74165e-08
1.51097e-08
-3.1839e-09
-2.30038e-08
-1.37021e-08
-2.34598e-08
-1.83493e-08
-5.60014e-09
3.11033e-08
-3.91369e-09
3.54458e-08
-6.21084e-10
2.21927e-07
3.81099e-08
-6.75833e-08
-4.4209e-08
3.27459e-09
7.57576e-11
-7.72369e-10
-9.78626e-10
-2.62112e-19
4.19667e-21
6.11807e-19
5.31603e-20
-4.6744e-19
2.98821e-18
-2.9041e-18
3.1708e-24
4.63499e-22
1.96447e-24
1.06491e-23
-6.73992e-23
3.15079e-22
-1.1697e-20
3.63732e-26
5.14579e-26
-8.21453e-28
1.30593e-29
2.19529e-29
1.6122e-30
2.34126e-34
2.51265e-32
3.371e-34
6.99194e-38
3.06125e-36
8.38031e-38
2.73294e-41
6.88084e-40
2.27526e-40
1.0643e-44
1.78537e-43
-3.20734e-43
4.12975e-48
4.5036e-47
-5.31881e-47
1.59481e-51
1.52954e-50
2.49013e-49
6.12623e-55
3.05421e-54
5.9952e-53
2.346e-58
8.27511e-58
-8.74246e-56
8.89276e-62
2.76361e-61
-1.14434e-59
3.35256e-65
3.80724e-65
2.72105e-62
1.31839e-68
1.44412e-68
3.26327e-65
4.72325e-72
6.71439e-72
4.92118e-69
2.1167e-75
6.34675e-76
7.45833e-73
5.77999e-79
-3.91089e-80
5.47799e-75
2.22648e-82
1.89461e-82
-1.99984e-79
1.16999e-86
-6.46883e-86
3.28696e-82
9.43551e-89
1.60703e-90
5.80223e-85
2.22771e-92
9.51272e-94
-1.44303e-88
2.97931e-94
4.67801e-96
9.04905e-92
1.59777e-99
1.63286e-100
1.4251e-95
-5.34605e-101
2.42531e-102
4.1215e-98
2.10985e-104
3.24539e-105
-1.24858e-100
5.37182e-108
3.46621e-109
5.06402e-104
-7.37403e-111
-7.25343e-113
-3.9131e-106
-1.92403e-114
1.64166e-116
-1.07456e-111
2.12243e-117
-2.6279e-120
2.44729e-113
-6.73144e-121
3.5866e-122
4.79989e-116
7.76193e-124
1.20305e-124
-9.37465e-120
-7.51682e-127
-1.43494e-127
9.26856e-124
-2.34038e-130
-8.32309e-132
9.60995e-127
-1.35088e-133
2.31432e-135
2.86551e-129
1.87595e-136
5.71686e-140
-2.54724e-133
3.91868e-140
6.84727e-141
6.93495e-136
1.95948e-142
6.84679e-144
7.52386e-139
1.51021e-146
-9.60709e-148
-1.87041e-142
2.79821e-149
-1.33744e-150
3.75266e-145
1.11478e-152
-6.80355e-154
-6.67659e-148
1.84157e-153
-2.3428e-157
6.1879e-152
8.53902e-155
-6.4689e-158
5.51002e-154
1.30924e-159
-1.46937e-157
-1.42029e-08
2.79606e-08
-1.29609e-07
-4.3767e-08
5.92414e-07
-2.44967e-08
-2.5218e-08
-2.43081e-08
-2.22053e-08
-3.76631e-08
-4.23327e-08
-3.87924e-08
-3.7955e-08
8.79315e-09
2.46422e-08
-1.14856e-08
1.9268e-08
-1.39907e-08
-3.29661e-08
8.07517e-10
2.24894e-08
-2.53858e-08
8.19743e-08
-2.55252e-10
8.52447e-09
-3.86197e-08
1.96565e-08
-2.98053e-08
2.40617e-09
3.5015e-08
2.05876e-08
-5.15886e-08
-2.77372e-08
1.03803e-09
1.88859e-09
9.25416e-10
-3.82269e-10
-4.95784e-09
1.19109e-16
3.94067e-18
5.83892e-18
-1.63089e-15
1.4074e-17
-4.70408e-16
-2.04163e-16
2.77925e-15
1.45084e-21
-5.34305e-21
3.79019e-21
-1.15452e-21
1.19902e-19
2.57597e-20
-1.45088e-19
-3.51408e-27
-2.91348e-25
1.01487e-25
2.56518e-29
-6.57504e-29
8.66192e-30
8.15489e-33
9.27399e-32
5.6385e-33
-4.94882e-38
1.59229e-35
8.51599e-37
-7.53052e-41
1.6557e-39
-1.5323e-39
-3.19532e-44
3.14895e-43
-1.87562e-43
-1.33885e-47
1.11308e-46
2.84769e-46
-2.53539e-51
4.94611e-50
3.6943e-49
-1.49105e-54
9.02567e-54
-6.14434e-53
-8.30585e-58
6.72659e-57
7.45257e-55
-3.46264e-61
3.51764e-61
8.20825e-58
-1.4222e-64
2.51249e-64
1.44961e-62
-5.65336e-68
-5.20877e-68
-1.43424e-65
-2.35022e-71
4.32063e-71
3.73414e-69
-9.24369e-75
-1.04287e-74
2.62616e-71
-3.62671e-78
-9.86347e-78
-5.18918e-75
-1.09736e-81
1.3416e-81
9.58284e-78
6.96118e-86
8.77625e-85
6.31017e-81
-1.95334e-88
4.09462e-88
4.61174e-84
-5.83715e-92
-2.44014e-91
2.79898e-88
5.53024e-94
-1.81672e-94
8.10868e-92
-3.46353e-98
-4.82338e-98
5.44246e-94
3.1071e-101
-1.13182e-101
-6.82002e-98
2.96482e-104
-3.548e-105
-5.41127e-100
-7.00166e-108
-1.07135e-106
2.4133e-104
-6.90223e-111
-3.00289e-109
-1.83166e-106
4.91393e-114
2.33352e-115
7.72901e-110
1.0119e-117
-2.51059e-117
2.30159e-113
5.2863e-120
-1.20738e-120
3.32654e-116
9.57969e-124
-1.54116e-125
-9.08357e-121
8.95374e-126
-2.67428e-127
3.34314e-122
-2.15503e-129
-1.76517e-129
4.64747e-125
2.45206e-133
2.6783e-133
-3.82076e-129
-9.43001e-137
7.24762e-138
1.17003e-131
-1.46382e-139
1.25453e-140
7.85978e-136
-4.46715e-144
5.85398e-144
4.18024e-139
4.75815e-146
5.95991e-146
9.6185e-141
-3.36357e-148
6.74293e-150
5.67617e-144
2.55267e-151
-1.98033e-150
-3.52783e-147
2.84694e-153
1.50434e-156
-7.16363e-151
9.88292e-155
1.82033e-157
-4.46695e-154
3.0047e-159
1.49847e-156
-1.17177e-08
-2.29155e-08
-1.18246e-08
-2.85369e-08
1.22855e-08
3.23451e-09
-2.162e-08
-2.3365e-08
2.68072e-09
5.88238e-09
-1.61046e-08
-1.88694e-09
-1.23463e-08
2.00095e-10
-3.19069e-08
-1.82676e-08
2.31037e-08
1.43094e-09
4.28641e-10
-9.72803e-09
3.17194e-09
-8.3401e-09
-3.24315e-08
8.89806e-08
-5.12232e-08
-6.15581e-08
-1.50284e-08
-9.84212e-10
8.61062e-09
9.30632e-10
1.47989e-09
-9.59601e-09
-1.38265e-11
-3.73033e-16
1.43501e-09
-1.44081e-15
1.43504e-09
7.4864e-20
1.64496e-18
4.3902e-23
1.07943e-21
5.94036e-19
-1.81109e-18
-5.0427e-19
-4.53809e-27
1.51045e-22
-3.20984e-25
9.6908e-29
2.28053e-27
-2.97757e-31
2.90752e-32
-6.2927e-31
-1.23846e-32
1.71578e-36
2.24189e-34
1.92801e-36
3.09797e-40
1.20954e-37
1.55125e-38
9.16238e-44
2.28836e-41
4.9183e-42
3.36828e-47
5.38196e-45
4.0202e-45
1.47404e-50
1.20482e-48
-3.10818e-48
5.06561e-54
4.58908e-52
-1.15101e-51
1.70357e-57
1.80362e-55
9.87859e-54
1.71992e-60
4.78218e-59
6.91642e-57
2.00198e-64
1.40321e-62
5.8623e-61
1.60114e-68
4.41319e-66
-7.57093e-64
1.90891e-71
2.23998e-69
2.82516e-67
5.08457e-75
1.0656e-72
5.31505e-70
1.99311e-76
2.21267e-76
-3.6153e-73
-4.49276e-80
1.51394e-79
2.23421e-76
6.21197e-83
9.1024e-84
1.18059e-79
9.06197e-88
4.2278e-87
-4.35412e-83
-2.10315e-90
1.39559e-90
-1.48603e-86
4.43883e-92
2.47975e-93
-4.0115e-89
2.36658e-95
6.67723e-97
1.51307e-92
6.7865e-99
2.44811e-100
4.32589e-96
4.3542e-102
-2.24896e-102
-4.10839e-99
1.45615e-104
1.96413e-106
-4.10392e-102
1.9077e-108
2.37691e-110
-6.83635e-105
4.65125e-111
-3.95175e-113
-8.06971e-108
-1.2599e-114
1.59408e-118
-2.1329e-111
-1.14911e-117
2.3768e-120
1.21099e-114
1.72748e-122
-2.28423e-124
-4.57493e-118
7.12866e-125
-1.92589e-126
-3.47973e-121
-6.1492e-128
-1.83965e-128
2.50299e-124
-5.02196e-131
1.84382e-132
1.1388e-127
3.42134e-133
-5.37401e-135
-3.00484e-130
-2.96063e-137
-8.84209e-138
1.33422e-133
-1.14489e-140
-5.14084e-141
7.73334e-137
1.20544e-143
2.30578e-145
4.73002e-139
-9.88957e-147
1.22325e-147
-3.8946e-143
1.99538e-149
-4.83981e-151
-1.4071e-145
-9.84506e-153
1.1755e-154
-1.0853e-149
5.36395e-154
-3.53457e-158
7.11899e-153
-3.91177e-158
1.37444e-155
9.17204e-09
-3.03162e-08
-2.17235e-08
-2.15251e-08
2.17928e-08
-2.48659e-08
-3.27168e-08
-5.77434e-08
2.30553e-07
9.16577e-08
-6.73386e-08
-3.228e-08
-3.19556e-08
-3.1636e-08
-1.93784e-08
-2.529e-08
-1.91159e-08
-1.41415e-08
-1.67621e-08
-2.71494e-08
-1.83787e-08
8.46004e-09
1.55893e-08
-1.39462e-08
-1.85491e-08
-2.36221e-09
3.60912e-09
-2.81852e-08
-2.75056e-09
-1.42279e-08
-4.60719e-10
-9.8637e-09
-2.35264e-08
-1.25933e-08
-1.16315e-09
2.54813e-07
5.31364e-07
-2.80026e-07
-3.92852e-07
7.47706e-10
-7.77333e-09
9.01295e-10
-2.48604e-10
6.34921e-09
-6.07635e-11
-2.18963e-12
6.0439e-12
2.59256e-11
8.21195e-16
2.71163e-19
-1.03966e-18
1.23736e-18
1.6303e-17
4.2494e-16
5.60067e-17
-4.89653e-16
-7.08745e-19
-6.93439e-18
-8.11184e-19
4.15278e-25
1.4144e-21
3.1809e-23
-1.09453e-27
3.1747e-25
1.57568e-26
5.36923e-30
9.1767e-29
3.03458e-30
7.95035e-34
1.17028e-31
1.15049e-33
-5.21801e-38
1.7235e-35
5.09158e-37
-2.58817e-41
3.47273e-39
1.12649e-40
-1.07877e-44
8.969e-43
2.4214e-44
-4.45696e-48
2.29329e-46
3.82066e-47
-1.8329e-51
5.9842e-50
6.27933e-50
-7.52025e-55
1.35565e-53
2.28973e-52
-3.09219e-58
3.27112e-57
8.08009e-56
-1.26756e-61
8.59316e-61
5.72731e-60
-5.18154e-65
4.77901e-65
8.31957e-65
-2.11219e-68
4.13125e-68
2.78864e-66
-8.51686e-72
2.68114e-71
2.56721e-68
-3.33902e-75
-8.54562e-75
1.92352e-71
-1.15612e-78
-7.78972e-79
2.91892e-74
-5.46208e-82
-1.08785e-81
-5.26565e-78
-6.08085e-85
-1.32035e-85
-2.46741e-82
-4.49089e-89
2.4348e-89
2.18638e-84
1.15118e-91
-1.38132e-91
1.04009e-87
-7.37907e-96
-1.76822e-96
-4.26296e-93
1.52031e-98
2.96956e-99
3.7437e-94
-2.15171e-101
4.62861e-104
1.80598e-97
-1.92837e-104
-4.57725e-105
-4.32358e-100
1.02676e-108
1.40772e-109
-6.23342e-104
-9.11386e-111
3.92213e-112
1.33822e-106
5.04658e-114
1.39055e-116
-3.65556e-111
-1.11689e-118
-3.91228e-118
-6.78388e-114
6.02257e-121
4.06009e-122
3.24373e-117
1.35857e-123
3.67977e-124
2.75458e-119
1.07257e-127
-1.39009e-127
2.18213e-122
8.95464e-131
-3.95091e-132
3.08659e-126
7.335e-134
-2.91966e-134
8.33411e-129
9.85419e-138
-2.00468e-138
4.02709e-134
4.09827e-140
-5.43795e-141
2.10495e-135
-5.95088e-143
4.79712e-144
-6.13315e-139
-6.81385e-146
2.32412e-148
1.15121e-141
4.11772e-150
1.21426e-149
6.27358e-145
3.10158e-152
1.07203e-154
1.6514e-148
9.90245e-154
-5.34999e-156
1.96603e-152
-2.22763e-157
4.24943e-154
2.07915e-08
-1.56692e-09
-5.56061e-08
-3.82089e-09
-5.44937e-08
-4.58341e-08
-1.84241e-08
1.9438e-07
7.29668e-10
-2.19485e-08
-1.45392e-08
-2.12186e-08
-2.15398e-10
-4.06567e-08
1.60252e-08
-2.81032e-09
8.96907e-09
-5.76973e-08
5.1181e-09
-7.49514e-08
5.76353e-08
-1.78058e-09
1.29437e-08
-8.70268e-10
-1.55258e-09
-1.8641e-09
-3.76363e-10
-4.81252e-09
-2.35031e-08
6.158e-08
2.91879e-08
-5.55837e-09
-2.39287e-07
-2.28211e-08
2.95256e-07
-3.46089e-07
-1.59366e-09
2.83974e-09
-1.17799e-09
-3.24326e-09
2.64143e-09
-2.49642e-09
3.54486e-13
1.341e-11
-1.47259e-10
2.82381e-11
6.24033e-16
-6.56508e-19
-2.17123e-08
-1.85575e-18
1.42297e-24
8.19398e-21
8.28755e-22
5.88553e-18
5.88563e-18
5.88935e-18
5.88612e-18
3.18241e-27
1.27989e-24
-7.15813e-26
-5.58689e-29
2.16223e-28
-9.8822e-30
3.77885e-32
2.63567e-32
-3.35657e-33
1.11352e-36
3.95495e-36
6.87198e-38
2.79826e-40
2.16538e-39
5.0243e-41
1.09149e-43
4.5648e-43
1.08363e-42
4.29394e-47
9.24887e-47
1.99207e-45
1.68319e-50
2.74917e-50
1.61903e-49
6.56457e-54
5.86733e-54
3.30049e-52
2.55248e-57
7.40638e-58
-5.20582e-56
9.85188e-61
9.12356e-61
2.70835e-58
3.86172e-64
3.40531e-65
4.97473e-62
1.44266e-67
1.16681e-67
4.8392e-65
5.45279e-71
4.47791e-72
4.00946e-68
2.16993e-74
2.25911e-75
2.53408e-72
5.64722e-78
4.55125e-79
5.29823e-75
2.91191e-81
6.45439e-82
3.62367e-78
2.44083e-84
4.90339e-86
1.25443e-81
3.80521e-88
9.48967e-90
1.42306e-83
-3.22865e-90
-1.14185e-92
5.73597e-87
-7.28862e-96
8.80559e-95
-5.08984e-90
6.47724e-97
5.42843e-98
3.88984e-94
2.70156e-101
1.91597e-102
-3.15258e-96
-1.0671e-104
-2.48237e-105
-4.14844e-99
2.65249e-107
-7.29365e-109
2.88898e-103
1.42905e-110
2.8714e-111
8.17971e-107
7.57897e-114
-4.0418e-116
-1.1214e-109
-6.8711e-116
5.51319e-118
3.8403e-112
-1.20488e-122
7.28564e-122
-5.41018e-115
-7.65523e-123
2.80563e-125
5.10054e-120
3.56899e-126
3.94899e-128
-1.35342e-122
-1.20733e-130
-5.51695e-131
2.10622e-126
-1.87618e-132
-2.20436e-132
1.90062e-129
-4.5925e-138
-7.04898e-136
-6.29663e-133
2.29728e-140
1.08105e-139
-9.35573e-135
1.59631e-142
-3.19982e-143
1.19487e-137
-8.99564e-146
-9.06808e-147
2.97615e-141
-1.65602e-147
4.96915e-149
1.42854e-143
2.11943e-151
3.79199e-152
2.20739e-147
-1.08609e-153
3.0729e-155
9.19529e-151
4.20614e-158
-1.96466e-153
1.92243e-08
-8.74182e-08
4.20752e-08
1.08545e-08
1.16001e-08
3.77781e-08
9.81182e-09
-2.3087e-08
-2.48475e-09
-5.54942e-08
-1.38173e-08
1.78612e-08
2.97938e-08
1.14017e-08
5.08477e-09
1.64615e-07
6.19087e-08
-2.74908e-07
1.73781e-07
5.53534e-09
7.52158e-09
8.13258e-09
-2.06255e-08
-2.05757e-08
-2.29082e-08
-2.17555e-08
-1.00811e-08
-1.71671e-09
-2.92628e-09
-1.07137e-09
-4.77458e-08
9.37586e-09
-3.94476e-08
7.6701e-08
-6.40104e-10
-2.55933e-09
-1.77094e-09
2.5894e-08
-2.939e-08
-9.17663e-09
2.04701e-08
-7.43046e-10
6.13593e-09
6.07712e-10
5.83637e-09
7.95972e-09
-2.04111e-08
-9.21293e-10
-1.28295e-10
1.44491e-10
-1.05604e-10
4.11818e-11
-1.58413e-16
3.65937e-17
-1.82663e-08
3.64164e-17
3.28841e-17
-1.58197e-16
-1.58108e-16
-1.5873e-16
-8.00742e-25
-1.05447e-21
-4.02571e-22
5.72345e-18
5.72185e-18
5.72169e-18
5.72416e-18
-1.82139e-26
-2.6619e-25
9.98491e-26
9.47856e-29
-2.8114e-29
9.74311e-30
3.80014e-32
-8.41289e-32
1.11111e-32
-7.55282e-37
-1.64209e-35
1.83353e-35
-4.74003e-40
-2.80333e-39
7.26225e-40
-1.93751e-43
-7.36461e-43
7.6052e-45
-7.8418e-47
-1.9374e-46
1.37901e-45
-3.16359e-50
-4.97212e-50
1.9302e-49
-1.2745e-53
-1.1336e-53
-6.7335e-52
-5.13487e-57
-3.43285e-57
1.14852e-55
-2.06347e-60
-1.09254e-60
7.72065e-58
-8.29545e-64
-1.64562e-64
4.08926e-61
-3.34835e-67
-1.20156e-67
3.58792e-64
-1.3544e-70
-1.21955e-71
3.01377e-68
-5.42946e-74
-2.10438e-74
7.96025e-71
-2.16613e-77
6.11137e-81
4.1255e-74
-1.3637e-80
1.08495e-81
2.78398e-77
-3.45652e-84
-1.93424e-86
8.06973e-81
-1.19126e-87
-3.07729e-89
8.05303e-84
-3.65282e-91
-2.47212e-92
8.71975e-87
6.92364e-94
1.35842e-94
2.36439e-89
-8.90022e-97
2.81544e-97
1.70121e-92
1.10531e-100
-8.07376e-103
4.50076e-97
-2.13083e-103
2.41849e-105
1.45816e-99
3.78895e-107
1.08606e-108
-2.40383e-102
2.99101e-110
2.77458e-111
5.74615e-106
5.31544e-114
-2.84938e-115
8.42561e-110
9.61445e-117
7.58162e-119
-1.422e-112
-1.54662e-119
9.93748e-122
-3.47309e-115
2.52499e-123
-1.35824e-125
-1.71313e-120
-4.63908e-126
-2.24638e-128
3.96411e-123
4.62978e-129
3.33867e-131
2.57353e-125
1.19937e-132
-1.99611e-133
1.36325e-127
-9.04331e-135
-3.5102e-138
4.7824e-131
5.4387e-139
6.24877e-141
1.98097e-134
-3.70807e-142
-5.07585e-145
1.04025e-137
8.51055e-146
-3.80686e-148
3.16234e-141
2.97274e-147
4.70659e-149
-5.89812e-144
7.47172e-152
3.86527e-154
1.02777e-148
-3.80242e-153
-2.91679e-157
6.77265e-150
7.03916e-158
1.16382e-154
1.57586e-09
-3.84631e-09
-1.11778e-08
2.36864e-08
1.36257e-08
-2.11952e-08
4.47785e-08
-6.0804e-09
-1.38863e-08
-1.99317e-08
-1.34307e-09
-1.49976e-08
9.12036e-09
-7.96587e-09
-1.26646e-08
-3.24598e-08
-1.63718e-08
-6.20697e-09
-6.4844e-09
-2.90938e-08
2.47556e-09
-2.41575e-08
1.07567e-08
-4.24891e-09
-1.82371e-08
1.05376e-08
2.07061e-09
6.841e-10
7.1254e-10
3.82146e-09
8.62846e-09
-8.14356e-09
3.3471e-09
9.14523e-10
-4.19043e-09
-2.87278e-10
3.88078e-12
-2.68717e-11
-8.9342e-11
2.24111e-11
2.54419e-19
2.0508e-19
1.57352e-18
2.39691e-16
1.77528e-17
-2.85901e-16
1.72163e-17
-3.03894e-18
-3.69653e-18
1.00238e-18
-3.67961e-18
3.31915e-25
4.17268e-22
-6.61004e-23
-3.4432e-28
5.93917e-26
4.80013e-27
7.41872e-30
1.2951e-29
8.33599e-31
1.15188e-33
9.58292e-34
4.53685e-34
1.08033e-38
6.98905e-38
2.36565e-37
-1.2801e-42
2.78398e-41
1.14481e-40
-8.75359e-46
6.60926e-45
5.65647e-45
-4.76779e-49
1.4709e-48
1.93441e-48
-2.42218e-52
3.67851e-52
3.67453e-50
-1.18794e-55
6.82783e-56
5.54402e-53
-5.66674e-59
-3.43503e-59
1.85258e-56
-2.56531e-62
9.04588e-63
2.25348e-59
-1.7959e-65
3.69757e-66
3.66535e-62
-5.43795e-69
-1.16051e-70
4.4516e-66
-2.47009e-72
1.47547e-73
-3.37768e-69
-9.36128e-76
-1.50205e-77
9.32701e-73
-1.01281e-78
3.14691e-80
4.24879e-75
-2.3753e-82
-1.69148e-84
-4.11408e-79
-1.03767e-85
2.00332e-88
-3.88425e-83
-1.45663e-89
1.74003e-91
3.98537e-86
-1.92071e-91
1.10092e-92
6.2049e-88
1.64655e-95
-1.03261e-97
-2.03703e-93
-4.49223e-99
7.43588e-101
5.92679e-96
-4.08433e-102
-5.9163e-105
-1.89034e-97
-3.46392e-105
1.64392e-107
-2.09088e-102
-3.44355e-109
-3.02897e-111
1.46671e-103
5.931e-112
8.11417e-115
5.18876e-108
-1.20326e-114
-1.33625e-116
1.42376e-110
-3.20645e-118
5.55236e-121
2.7854e-114
-1.82166e-120
1.14702e-122
2.83637e-116
3.2578e-124
7.9647e-126
4.61575e-120
6.90424e-127
-4.50891e-130
5.80282e-123
1.79134e-131
-2.59092e-134
-1.67112e-126
2.99161e-133
-2.18977e-136
4.17741e-129
2.19469e-137
1.50061e-139
1.9971e-132
-9.52528e-141
3.64199e-143
1.21817e-136
-1.36779e-143
1.94335e-145
2.06456e-139
5.48658e-147
2.27004e-150
-6.42082e-143
2.39637e-149
-1.27848e-152
1.37239e-145
-7.62019e-153
3.47593e-156
2.07111e-150
7.60122e-154
-1.87646e-158
8.99869e-152
3.18892e-158
8.14023e-154
-4.57648e-08
2.2254e-08
5.4029e-08
8.22561e-09
6.45394e-09
9.81051e-09
4.57178e-09
8.6579e-09
1.54388e-08
1.57921e-08
1.28195e-08
-8.37237e-08
3.04629e-08
1.10063e-08
5.19138e-08
5.69968e-08
6.29923e-08
5.55937e-08
5.6558e-08
1.59572e-08
1.32078e-08
1.87471e-08
-3.72253e-07
-2.78923e-07
-1.03687e-07
-2.64726e-07
1.5052e-08
-1.78656e-08
-4.03957e-08
-1.62321e-08
1.1031e-08
7.63037e-09
4.16873e-10
-2.82826e-08
-2.73026e-08
3.00585e-08
2.23068e-09
-3.55034e-09
-2.60674e-10
-3.9344e-09
5.05725e-09
-8.41323e-11
5.0075e-12
1.42013e-09
4.57728e-11
1.42175e-09
3.80789e-21
-2.0266e-20
1.52797e-20
4.98503e-19
1.86056e-19
-6.93571e-19
2.02457e-19
-3.38817e-27
-2.07625e-24
6.03018e-26
1.71816e-28
-2.14797e-28
8.47482e-29
2.65131e-32
-1.3771e-31
2.02323e-32
3.81321e-38
-2.94281e-35
1.04203e-35
-4.36733e-40
-5.37943e-39
-1.03454e-39
-1.99295e-43
-1.29429e-42
-2.36893e-42
-8.44593e-47
-3.40756e-46
3.30163e-45
-3.45476e-50
-7.98848e-50
4.01484e-48
-1.18708e-53
-2.69853e-53
6.43459e-51
-6.01638e-57
-6.43005e-57
1.05947e-54
-1.53758e-60
-3.43879e-60
-2.06593e-57
-1.03326e-63
-3.17469e-64
1.25222e-60
-9.10804e-67
-5.72539e-68
7.44313e-64
-1.70449e-70
-4.58289e-72
-2.74402e-68
5.67977e-74
6.48677e-75
-2.29536e-70
-3.10797e-77
-1.02465e-77
4.98309e-74
-7.55276e-81
-9.17067e-81
1.10317e-76
-5.43229e-83
7.39837e-86
2.2792e-80
5.70754e-86
-7.70641e-89
-1.55978e-83
-9.57468e-90
4.54858e-92
4.56578e-86
8.98799e-93
9.70339e-95
-4.6846e-90
2.18416e-95
6.09507e-98
3.15853e-93
-3.52018e-99
-6.00545e-101
6.82858e-96
1.55637e-103
4.2462e-105
7.01341e-99
1.52799e-105
4.39252e-107
-2.8561e-102
9.82452e-109
9.14007e-113
4.0102e-105
-4.03921e-113
-9.65211e-115
-5.86825e-109
-1.08124e-114
4.26674e-117
2.07998e-111
-1.70951e-118
2.57874e-121
-8.78118e-115
7.46023e-121
3.08508e-124
1.99128e-117
1.54284e-124
1.63116e-128
1.08497e-121
-4.98147e-128
-8.34529e-131
1.16594e-124
3.18467e-131
1.27217e-134
-9.56121e-128
2.83758e-134
1.07541e-137
-1.04926e-130
-5.08281e-137
-3.7743e-140
1.81717e-133
1.13243e-140
8.81076e-145
6.33072e-140
-1.16536e-144
4.6814e-148
-7.30612e-141
-2.74049e-149
2.0657e-150
-1.00834e-143
9.94351e-150
-7.53451e-153
-9.62333e-147
-1.27172e-153
-3.31524e-155
4.66948e-150
2.91086e-154
-4.32423e-157
4.35135e-153
1.97531e-159
-1.57354e-155
2.70194e-09
-4.34082e-10
2.61258e-09
3.16364e-10
-2.10151e-08
-1.00109e-08
-2.09389e-08
9.1047e-09
-1.33744e-08
2.03834e-08
-7.01548e-09
6.50227e-08
-2.60863e-08
1.39883e-08
1.55483e-08
1.77686e-08
1.58776e-08
1.02792e-09
3.47406e-09
3.48326e-08
5.03022e-09
3.92059e-09
2.92587e-09
-3.50057e-09
1.52231e-07
2.37918e-07
1.09105e-07
-9.9222e-10
-1.09073e-08
-1.08622e-08
-2.70914e-09
1.4091e-08
-1.46958e-08
-1.70416e-08
-1.91475e-08
-1.39326e-08
2.12655e-10
2.63562e-09
3.72751e-10
-2.23064e-09
-1.09248e-09
-7.56561e-13
6.10411e-15
-2.46878e-08
1.06968e-12
-2.46878e-08
1.67443e-21
1.72733e-22
-4.48295e-21
4.65611e-21
-1.50776e-20
9.20123e-20
-1.00078e-19
1.0924e-26
2.9363e-27
-9.19032e-26
3.62061e-29
1.25039e-29
-6.60496e-31
1.53636e-32
-2.85387e-32
-4.04358e-33
1.1794e-36
-2.42839e-36
-2.24443e-36
4.19641e-40
-4.40172e-40
-5.52994e-40
1.6735e-43
-1.30803e-43
2.60734e-43
6.66897e-47
-2.94313e-47
-1.80234e-46
2.64965e-50
-1.45776e-50
1.33068e-49
1.0485e-53
-1.99053e-54
-5.17587e-52
4.13609e-57
-3.92393e-58
-1.87604e-55
1.62415e-60
-1.19184e-61
-3.5481e-58
6.35501e-64
-1.22113e-65
-4.09889e-62
2.47661e-67
7.01798e-70
5.85054e-65
9.62025e-71
5.56306e-72
-3.27889e-68
3.7207e-74
-1.86918e-76
8.07917e-72
1.54413e-77
7.19583e-79
1.21126e-74
1.99512e-80
-1.27356e-82
-8.13167e-77
2.56775e-84
1.44429e-86
-6.20032e-82
7.12261e-88
6.73909e-90
3.84557e-84
1.99317e-91
8.90285e-94
-3.50844e-87
1.25043e-94
-5.59438e-96
4.47273e-91
4.69084e-98
-3.80353e-100
2.65847e-94
8.44339e-100
5.33618e-102
-3.51382e-96
2.21391e-104
1.9566e-106
-1.27434e-100
-5.49567e-108
5.17088e-108
2.44513e-103
-6.94524e-111
6.42976e-112
1.78455e-107
-3.38486e-113
-7.30057e-116
-5.14113e-110
1.53324e-117
-2.73995e-118
-1.65612e-112
4.06353e-120
-3.68815e-121
-1.72147e-115
-2.15275e-123
-1.42765e-124
1.9192e-119
-1.53963e-126
-1.35022e-127
1.17937e-123
8.84322e-130
3.81628e-131
-6.15762e-126
7.67596e-133
-1.62698e-134
-1.63265e-128
3.24018e-135
1.2087e-136
-5.222e-132
-4.15988e-139
6.21386e-140
-8.69749e-135
1.97925e-142
-8.63328e-144
-9.74774e-139
-2.4082e-145
-8.67819e-147
1.21191e-141
9.75597e-149
-4.02139e-150
-5.88762e-145
2.32951e-153
5.74911e-153
1.35241e-147
8.45129e-154
-7.56248e-156
-8.58018e-152
3.00988e-154
-3.24364e-157
-1.16852e-153
-6.09271e-159
-1.77766e-157
-3.23498e-09
-2.41803e-08
4.60189e-09
-6.90021e-09
6.69554e-08
2.38686e-08
-9.21352e-08
5.66685e-08
3.35541e-08
5.33508e-08
3.1756e-09
-2.2982e-08
-1.00643e-08
-2.24292e-08
-1.75486e-09
3.48478e-08
-1.42e-08
-2.19493e-08
3.01018e-08
-1.47645e-09
-2.03377e-08
-1.31979e-08
-1.31249e-08
2.66465e-08
2.20498e-08
-6.58161e-09
-5.6484e-08
2.17687e-10
-5.80261e-09
3.39846e-09
1.15725e-09
-3.71849e-10
-4.17506e-17
1.97058e-17
2.21441e-21
-1.83453e-19
-7.81048e-19
9.87671e-18
-1.11196e-16
1.24406e-16
2.57853e-24
-2.28843e-24
-5.69383e-22
-1.66093e-23
-7.98828e-22
-3.63495e-22
2.05878e-26
-5.29504e-28
6.27471e-30
1.72968e-30
1.79475e-34
1.93798e-33
5.73967e-38
8.18945e-37
2.22079e-41
2.38313e-40
8.78628e-45
-3.471e-43
3.47256e-48
-8.91592e-47
1.36493e-51
-4.72737e-49
5.31367e-55
4.85042e-53
2.0668e-58
-9.39016e-56
8.14557e-62
-1.83337e-59
3.23958e-65
-5.84141e-62
1.19996e-68
1.0842e-65
4.253e-72
-1.53223e-68
1.71989e-75
-5.42618e-72
2.92355e-79
1.13e-75
9.95166e-83
1.36874e-77
4.82811e-86
-1.00616e-83
1.07339e-88
-7.83688e-85
7.70703e-92
-1.01612e-88
4.33755e-95
2.3834e-91
3.43273e-98
-3.6237e-94
2.8579e-100
-1.19816e-96
9.86678e-104
-2.34686e-100
5.90539e-107
-2.69738e-103
1.61011e-109
3.81308e-106
-8.63836e-114
-5.89042e-110
-6.12647e-117
-1.10706e-112
1.89136e-119
1.81806e-115
1.6386e-123
2.33491e-119
1.19281e-125
1.48697e-123
5.64121e-130
-1.34606e-127
8.61142e-133
-1.01459e-129
-5.94635e-137
1.23244e-132
4.05548e-138
-1.4747e-135
1.9445e-142
4.1783e-138
-9.01894e-148
-4.38875e-143
7.23834e-148
7.03809e-145
-9.94284e-152
2.32459e-147
1.81377e-153
2.47073e-151
2.15579e-154
1.02979e-153
1.16101e-157
-2.05485e-09
4.12075e-09
-2.04582e-08
-1.52597e-08
8.47784e-08
1.75215e-09
-1.7067e-08
-6.32277e-08
-2.38359e-09
2.58105e-08
2.50474e-07
-7.169e-09
-1.23783e-07
2.23867e-07
1.39505e-08
-4.77772e-08
2.36071e-09
-1.54111e-07
-1.33426e-07
-5.8327e-08
8.7938e-09
-4.55885e-08
2.53896e-08
-1.64869e-07
4.55801e-09
2.15727e-09
1.19075e-10
-1.27338e-09
-4.61242e-09
1.74266e-17
-3.70704e-20
1.93454e-19
1.37849e-17
-7.32302e-20
-2.18789e-17
2.26796e-17
-2.79339e-17
1.35839e-24
6.68839e-21
-2.97798e-24
2.5362e-21
-8.1857e-21
2.71066e-21
-7.99028e-21
1.03919e-25
3.59164e-25
6.71203e-28
4.32006e-28
4.48604e-28
-2.4007e-30
2.52659e-32
2.79205e-31
-8.33678e-35
5.24631e-36
9.44046e-35
-1.49599e-38
3.66302e-39
3.95671e-38
-7.91199e-41
2.43836e-42
1.86433e-41
1.14014e-43
1.58588e-45
8.16132e-45
1.04152e-46
1.027e-48
3.47619e-48
1.97253e-49
6.62718e-52
1.45611e-51
1.87583e-53
4.25314e-55
6.48327e-55
1.40228e-57
2.70801e-58
4.02503e-58
4.12796e-59
1.71617e-61
1.07214e-61
5.52429e-62
1.0825e-64
6.27359e-65
-2.17307e-65
6.77192e-68
-7.97101e-69
4.11321e-68
4.20028e-71
2.74669e-71
-1.14069e-71
2.58155e-74
2.09013e-75
4.7588e-76
1.57038e-77
1.42622e-78
1.07084e-78
9.44443e-81
1.41728e-81
5.15794e-82
5.60115e-84
-1.08321e-84
-1.3794e-84
3.26298e-87
2.79221e-88
1.99346e-88
1.85845e-90
1.86619e-91
2.6055e-91
1.02882e-93
6.69223e-95
3.25698e-95
5.47223e-97
5.00274e-98
1.61256e-97
2.74205e-100
1.48274e-101
4.93887e-101
1.2332e-103
-5.14421e-104
3.77032e-104
4.40015e-107
-1.54589e-106
-8.29004e-107
4.75647e-111
8.81977e-111
7.95684e-111
-1.25055e-113
7.78171e-114
4.30534e-113
-1.83634e-116
-1.94749e-116
-9.32306e-116
-1.85688e-119
-1.22125e-119
9.18135e-121
-1.6336e-122
-4.24974e-124
-1.02375e-123
-1.33508e-125
8.4758e-127
1.19472e-126
-1.0412e-128
-8.59866e-130
6.44401e-130
-7.85972e-132
-7.91025e-134
-3.35293e-133
-5.79609e-135
4.89349e-137
-4.21284e-136
-4.19806e-138
-1.44552e-138
-2.48773e-140
-2.99336e-141
3.34231e-142
2.88926e-142
-2.10807e-144
-1.33715e-144
-4.39021e-145
-1.47164e-147
7.46454e-148
3.78296e-148
-9.84482e-151
-7.90036e-152
9.30367e-152
-4.79829e-153
1.32693e-155
-4.0458e-154
4.23665e-158
-4.23215e-157
-1.09788e-08
1.10181e-07
-1.88976e-07
-3.16614e-07
-6.28589e-08
1.56651e-08
-1.01986e-08
4.83998e-07
1.97805e-08
-7.58581e-08
4.26186e-07
-1.65575e-09
2.45712e-09
1.15854e-07
-5.6578e-08
-1.66667e-07
-4.72141e-08
-4.4473e-09
1.88714e-08
4.18271e-08
1.00355e-08
-1.23517e-08
-6.72922e-09
-3.07351e-09
-5.28763e-08
1.47129e-07
-1.02419e-07
-3.26709e-07
-6.50573e-09
8.62563e-09
-2.35485e-09
-1.94731e-08
6.46881e-08
-7.30658e-09
5.32435e-09
-5.70557e-09
6.86969e-09
-6.58198e-08
1.46189e-08
1.4898e-09
3.93983e-10
2.15043e-09
-7.62826e-10
-1.77365e-08
-5.87342e-17
-4.87086e-17
-4.38397e-18
5.57964e-17
-1.72514e-17
7.01747e-15
-1.20761e-15
3.10103e-15
-9.13981e-15
-9.13729e-15
-9.22989e-15
-9.20042e-15
9.99674e-21
-4.11477e-21
-3.44859e-21
1.19153e-19
-1.42934e-20
1.05857e-19
4.20934e-20
-5.60099e-26
-2.97715e-24
-9.71448e-26
-1.06886e-28
-3.72015e-28
-1.09735e-29
-4.03549e-32
6.86632e-32
-5.94437e-33
-3.33681e-35
1.22542e-33
-1.18756e-36
-2.20974e-38
3.67909e-37
9.71739e-40
-1.4511e-41
1.13009e-41
1.59356e-43
-9.52478e-45
5.57797e-45
1.03356e-47
-6.23573e-48
3.86323e-48
-4.81064e-49
-4.07358e-51
2.2919e-51
6.99195e-53
-2.65691e-54
6.07969e-54
-1.50073e-54
-1.7288e-57
3.47133e-57
-5.87499e-58
-1.12496e-60
3.45622e-61
-2.10971e-62
-7.30803e-64
-1.39245e-64
-3.26017e-65
-4.74383e-67
2.92568e-67
1.23531e-68
-3.07925e-70
-2.52202e-70
-2.60056e-71
-1.99525e-73
-3.16658e-73
-3.10401e-74
-1.29176e-76
3.41425e-77
2.48092e-78
-8.36808e-80
2.00645e-80
-2.09424e-82
-5.42049e-83
-1.67696e-83
3.45463e-85
-3.51054e-86
-1.81856e-86
1.40668e-87
-2.2718e-89
3.60705e-89
-6.52324e-90
-1.47025e-92
-1.65556e-92
3.89227e-94
-9.5231e-96
-7.2455e-96
-2.58965e-97
-6.17413e-99
-8.33047e-100
2.86066e-100
-4.00102e-102
-6.80815e-102
2.29696e-103
-2.59307e-105
1.40312e-105
-1.51367e-105
-1.68092e-108
-1.05378e-108
-5.79071e-110
-1.0891e-111
-7.82684e-112
9.9467e-113
-7.05914e-115
-7.16887e-115
5.46097e-116
-4.57786e-118
8.96239e-119
1.19932e-119
-2.96471e-121
-5.69711e-121
-9.18167e-122
-1.91856e-124
-1.02574e-124
2.37034e-126
-1.24271e-127
4.09965e-129
-7.24941e-129
-8.04182e-131
1.27995e-131
5.025e-134
-5.203e-134
1.16792e-133
-3.23984e-135
-3.37158e-137
2.68766e-137
-6.84276e-138
-2.18238e-140
2.45982e-141
-7.33891e-141
-1.41104e-143
1.15655e-143
-1.70508e-144
-9.1154e-147
-6.21403e-147
2.06597e-147
-5.77706e-150
-4.04421e-150
3.85652e-151
4.91179e-152
2.01115e-153
-3.76298e-154
-4.85459e-157
3.34607e-157
1.19812e-08
-9.42785e-08
2.20977e-08
1.19365e-07
-2.28585e-08
3.38345e-07
-7.47968e-11
5.11158e-09
-1.5069e-07
3.69084e-09
-1.46051e-07
-7.62981e-09
-2.03764e-07
-1.45946e-09
2.47316e-07
2.13542e-08
-8.15723e-09
1.09634e-08
2.23622e-09
-7.42047e-08
-6.04459e-09
2.65495e-08
3.37545e-08
3.06127e-08
1.19417e-08
-8.71491e-08
1.22308e-08
2.70252e-08
4.67477e-07
6.63397e-08
-1.41934e-08
-1.39863e-08
-1.28025e-08
-1.14041e-08
3.54343e-08
3.87098e-08
-1.45585e-09
-5.51156e-09
6.33546e-10
5.23216e-09
-3.78058e-08
-4.99392e-11
-8.32384e-15
5.97692e-15
-1.99335e-14
-3.45759e-14
6.46026e-16
-8.14591e-20
7.98551e-18
8.62182e-22
-1.74437e-18
-2.6416e-18
-7.94751e-19
-2.18807e-18
9.50096e-27
2.77733e-21
8.68701e-26
6.85833e-28
1.12823e-25
1.40626e-29
3.79469e-31
2.47882e-29
-2.94625e-32
1.89578e-34
1.28268e-32
-1.80068e-35
4.86272e-38
2.90439e-36
-1.57409e-39
9.76509e-42
8.23386e-40
1.19439e-42
6.93053e-45
1.15975e-42
1.2226e-44
5.44213e-48
2.94929e-46
1.66414e-48
3.72829e-51
2.42785e-49
-3.8461e-51
2.50186e-54
2.22327e-52
1.15435e-54
1.66805e-57
7.01967e-56
-3.10622e-57
1.0975e-60
7.03014e-59
-1.94398e-61
7.08285e-64
7.60093e-63
3.84203e-64
4.48966e-67
3.20197e-65
2.28882e-67
2.78963e-70
-4.90462e-69
-3.41785e-71
1.66364e-73
3.30385e-72
-5.76735e-73
9.59987e-77
2.54385e-76
-2.81137e-76
5.26687e-80
3.13619e-78
-1.09283e-79
2.60799e-83
3.27283e-82
-7.40804e-83
1.07151e-86
1.94025e-86
1.93671e-86
2.3142e-90
2.47771e-90
2.76042e-89
-1.92057e-93
1.04987e-90
3.35449e-93
-3.73999e-96
4.19579e-96
2.20808e-95
-4.1757e-99
1.04305e-97
6.03326e-99
-3.96602e-102
5.88129e-103
1.01911e-101
-3.47051e-105
-1.40023e-105
-6.84787e-105
-2.86535e-108
3.72491e-108
1.16603e-108
-2.27648e-111
1.05731e-110
7.541e-111
-1.76223e-114
-1.40188e-114
2.15878e-114
-1.33945e-117
7.49806e-118
-1.50412e-117
-1.00065e-120
-2.94977e-122
-2.43679e-121
-7.36123e-124
4.21299e-123
8.70283e-124
-5.3569e-127
2.9046e-128
-5.78682e-127
-3.86013e-130
4.62112e-131
3.31494e-131
-2.75865e-133
4.78138e-132
1.59283e-133
-1.95643e-136
1.19346e-135
2.77056e-137
-1.37782e-139
-1.05131e-139
-2.4242e-139
-9.6489e-143
-6.55879e-143
-4.69445e-143
-6.73191e-146
-3.41043e-146
8.42233e-146
-4.68713e-149
-1.39908e-150
2.35172e-149
1.11107e-153
7.0994e-153
2.13528e-152
7.03166e-155
7.27221e-156
1.40149e-07
7.59645e-09
3.11612e-09
-1.93215e-08
-8.74097e-08
-2.8747e-08
-2.46431e-07
4.53978e-09
6.21985e-09
-1.73862e-08
2.30376e-07
2.51103e-09
9.87256e-08
1.28939e-09
-4.73518e-08
-1.02478e-07
3.87662e-09
-1.49484e-08
3.96335e-08
8.72643e-09
-3.30276e-08
2.41326e-09
-1.3946e-08
-1.47932e-08
-1.56595e-08
-1.13879e-08
-1.48769e-08
-6.68073e-09
-1.1092e-08