/*--------------------------------*- C++ -*----------------------------------*\
| =========                 |                                                 |
| \\      /  F ield         | OpenFOAM: The Open Source CFD Toolbox           |
|  \\    /   O peration     | Version:  5.0                                   |
|   \\  /    A nd           | Web:      www.OpenFOAM.org                      |
|    \\/     M anipulation  |                                                 |
\*---------------------------------------------------------------------------*/
FoamFile
{
    version     2.0;
    format      ascii;
    class       volScalarField;
    location    "0.9";
    object      alpha.water;
}
// * * * * * * * * * * * * * * * * * * * * * * * * * * * * * * * * * * * * * //

dimensions      [0 0 0 0 0 0 0];

internalField   nonuniform List<scalar> 
10411
(
1.02528
1.03896
1.15904
0.835201
1.11764
0.937488
-2.26084e-18
-4.94816e-20
7.95869e-17
8.78398e-19
7.34966e-23
1.7663e-27
6.11019e-31
2.46235e-34
9.77077e-38
4.03394e-41
1.56222e-44
6.62652e-48
2.72939e-51
1.00047e-54
4.83636e-58
1.94284e-61
7.88142e-65
2.55969e-68
9.83421e-72
6.53158e-75
2.16336e-78
6.75996e-82
1.44463e-83
3.12788e-87
1.12677e-90
1.26606e-94
3.14645e-97
6.20901e-100
1.24646e-103
1.81946e-106
6.57826e-110
1.98086e-112
1.3206e-116
1.76917e-120
8.10073e-123
8.45084e-126
7.17237e-129
2.66578e-131
2.6595e-135
6.32632e-138
8.94877e-142
3.1012e-145
6.5914e-146
2.31554e-147
1.02535
0.873905
1.02293
1.02496
0.893158
1.00003
-9.17351e-22
-2.54717e-19
-3.68182e-25
3.84079e-20
7.03547e-22
1.77002e-25
8.00053e-30
2.56519e-33
1.03501e-36
4.26777e-40
2.75539e-43
1.03145e-46
3.27226e-50
1.22411e-53
4.99919e-57
2.03146e-60
9.78637e-64
5.11359e-67
1.74258e-70
1.25391e-73
6.25923e-77
1.22809e-80
3.43473e-83
4.93504e-87
1.72047e-90
6.6364e-93
1.45693e-96
1.45253e-99
2.38373e-103
9.92091e-106
3.67278e-109
1.73669e-113
6.1295e-115
4.23869e-118
5.43597e-122
7.53175e-125
4.82477e-129
8.37195e-133
2.48303e-135
7.49364e-138
3.00773e-141
5.14889e-145
7.675e-146
3.27229e-147
1.08642
0.954473
0.831312
1.0346
0.996974
1.01654
-2.37918e-20
-1.60001e-19
-1.3428e-21
2.02784e-19
2.58489e-21
1.22454e-24
1.40916e-28
2.39171e-32
8.75945e-36
3.60898e-39
1.506e-42
6.37539e-46
2.68025e-49
1.04076e-52
4.76365e-56
1.80616e-59
8.64775e-63
3.04159e-66
1.29653e-69
1.0487e-72
3.6518e-76
9.51605e-80
8.89757e-83
2.47079e-85
1.93347e-89
4.47967e-93
2.8768e-94
3.1795e-97
2.57056e-101
9.55501e-105
6.6146e-108
5.96356e-112
1.03495e-113
1.24633e-116
1.7288e-120
5.73697e-124
1.25715e-126
1.23685e-130
3.03714e-133
7.85827e-137
6.64568e-139
3.20716e-142
2.83741e-145
2.84669e-146
1.06117
1.00277
1.09058
0.953619
0.971744
1.00801
0.26307
-9.75588e-18
-1.95954e-19
-5.04868e-32
9.25739e-21
1.08634e-22
1.46381e-26
1.10762e-30
3.97102e-34
1.5948e-37
6.42109e-41
2.68241e-44
1.04598e-47
4.14731e-51
1.73965e-54
6.67021e-58
3.92036e-61
1.33584e-64
1.86022e-67
3.38344e-71
8.36474e-75
2.37149e-77
1.37415e-80
7.57281e-85
3.85289e-87
4.50359e-90
9.60337e-94
1.65215e-97
5.58064e-100
9.83272e-104
2.86366e-107
5.51078e-110
2.63576e-112
7.8461e-116
1.02172e-119
3.54599e-122
3.34883e-126
9.69656e-129
1.02497e-131
4.07239e-135
8.00471e-139
4.63642e-142
5.68686e-145
4.35539e-146
0.996623
1.01502
1.04599
0.99861
1.02762
1.03493
0.816574
-8.91797e-16
-9.60482e-19
8.24464e-20
6.50768e-20
1.42362e-21
4.98489e-25
1.59561e-29
4.99881e-33
2.02527e-36
8.1614e-40
3.30878e-43
1.3383e-46
5.41829e-50
2.16732e-53
9.27435e-57
3.52999e-60
1.55398e-63
5.64795e-67
2.59962e-70
1.01204e-73
5.18818e-77
2.75978e-80
2.58015e-83
2.67282e-86
2.75059e-90
7.28868e-93
7.5224e-97
2.00316e-100
2.5361e-103
1.68652e-105
6.5633e-109
3.75219e-113
1.59739e-115
2.61068e-119
2.77309e-123
1.0208e-126
1.55912e-128
2.53389e-131
7.29659e-135
6.68953e-137
3.18355e-140
3.55273e-143
2.68284e-145
1.03096
1.01198
1.0309
1.03397
0.97166
1.00071
0.923603
-2.4842e-15
-5.3674e-18
1.61329e-19
6.75001e-20
1.31554e-21
4.88444e-25
1.61444e-29
5.05587e-33
2.0433e-36
8.28402e-40
3.39774e-43
1.36265e-46
5.70596e-50
2.24052e-53
8.99522e-57
3.59284e-60
1.65601e-63
7.01956e-67
3.63494e-70
1.17559e-73
6.01022e-77
7.48516e-80
1.92484e-82
1.7927e-85
1.84422e-89
9.31511e-93
2.05699e-96
3.60857e-99
9.34427e-103
3.42572e-106
7.5276e-109
5.25472e-113
4.94858e-116
3.80563e-118
1.39638e-120
5.3857e-124
6.22736e-128
1.40519e-131
2.0382e-134
2.40703e-137
2.55679e-141
1.37102e-144
1.90084e-145
0.998437
1.03125
1.0896
1.08966
1.15055
0.982925
0.732039
-2.06493e-15
-1.26408e-18
-2.01947e-31
1.11158e-20
1.32152e-22
1.77216e-26
1.32888e-30
4.78153e-34
1.91773e-37
7.70217e-41
3.11422e-44
1.2642e-47
5.06104e-51
2.71286e-54
8.1663e-58
3.72069e-61
1.32833e-64
1.05934e-67
2.1014e-71
8.38225e-75
3.21861e-78
1.82097e-80
1.90322e-84
2.69311e-88
8.71239e-91
8.45997e-95
1.78524e-97
1.20832e-100
7.87904e-104
1.89684e-107
9.1695e-110
8.49044e-113
9.62436e-116
4.75627e-120
7.72758e-123
9.98405e-126
4.4221e-130
2.80647e-132
4.8903e-136
3.24884e-138
1.24436e-142
2.82248e-145
3.90106e-146
1.01358
1.06771
1.02332
0.997667
1.06115
1.03267
0.151742
-4.40816e-17
-5.14768e-20
2.65002e-19
3.18722e-21
9.77805e-25
9.92597e-29
2.07055e-32
7.81185e-36
3.19883e-39
1.32093e-42
5.4039e-46
2.32663e-49
9.7757e-53
3.73574e-56
1.76118e-59
7.45744e-63
2.38444e-66
1.22924e-69
8.99279e-73
1.09807e-75
5.85596e-79
4.28379e-83
2.47694e-85
3.7311e-89
8.55218e-92
5.97478e-95
8.01693e-99
4.1776e-102
1.63483e-104
2.80412e-108
7.03703e-111
3.61874e-114
7.96714e-118
1.3099e-121
6.16271e-124
5.6187e-127
3.91946e-130
2.29782e-134
6.13553e-138
8.11751e-141
2.06897e-144
2.54295e-145
1.78429e-146
0.968964
0.981173
1.00934
1.05813
0.979978
0.9859
-1.67605e-19
-6.86954e-18
2.39639e-21
3.89981e-20
7.28961e-22
1.78655e-25
8.24631e-30
2.63338e-33
1.0628e-36
4.31569e-40
1.78511e-43
7.33277e-47
3.04519e-50
1.20187e-53
4.766e-57
2.00227e-60
7.79022e-64
3.32324e-67
9.57176e-70
1.17486e-73
2.66444e-77
1.60498e-80
4.49562e-84
7.42048e-87
5.03877e-89
8.08495e-93
9.75243e-97
1.74748e-100
1.64583e-102
7.04786e-106
3.81159e-109
4.80934e-113
6.29509e-117
9.27956e-119
1.76112e-121
3.02662e-124
5.987e-128
3.85525e-132
2.16419e-135
1.84584e-138
9.38428e-141
1.65931e-143
2.37909e-145
1.02078e-146
1.0386
0.999626
1.01787
1.01612
1.00248
1.0016
-1.11435e-31
-1.46807e-20
9.19827e-17
6.28677e-19
4.52386e-23
3.82969e-27
8.33824e-31
3.17434e-34
1.3053e-37
5.77281e-41
2.20149e-44
9.08808e-48
3.80386e-51
2.59933e-54
6.71367e-58
3.04641e-61
1.03203e-64
5.16186e-68
4.31366e-71
7.86287e-75
1.66635e-77
5.29928e-81
4.3051e-84
7.20139e-87
5.80183e-90
5.62078e-93
4.31251e-96
2.61749e-99
3.07548e-103
4.12316e-106
1.22204e-108
1.39761e-112
7.45714e-115
1.38202e-118
8.06876e-123
2.2961e-126
4.21353e-128
1.75066e-131
1.28766e-134
1.59336e-137
5.71511e-141
3.79381e-144
1.68187e-145
5.89007e-147
1.06917
1.05865
1.05863
0.983971
1.10675
0.930594
2.49499e-12
7.03593e-17
1.15057e-16
4.65736e-18
5.23344e-21
2.34836e-25
7.05176e-29
5.11673e-32
3.48929e-35
2.34583e-38
1.5761e-41
1.05855e-44
7.09753e-48
4.75024e-51
3.17831e-54
2.12333e-57
1.41634e-60
9.43883e-64
6.28143e-67
4.17387e-70
2.77217e-73
1.83854e-76
1.21729e-79
8.05211e-83
5.31927e-86
3.50631e-89
2.31123e-92
1.52206e-95
1.00129e-98
6.58194e-102
4.3185e-105
2.82872e-108
1.8518e-111
1.212e-114
7.92225e-118
5.17457e-121
3.37729e-124
2.19926e-127
1.43186e-130
9.30726e-134
6.04336e-137
3.9232e-140
2.54e-143
2.81765e-145
0.998373
0.978091
1
1.03788
0.988032
0.999598
6.75429e-10
3.63436e-15
8.38348e-18
5.34547e-19
1.40967e-21
4.60869e-25
2.40844e-28
1.6273e-31
1.12934e-34
7.81094e-38
5.38658e-41
3.71041e-44
2.5492e-47
1.74492e-50
1.19443e-53
8.1573e-57
5.55784e-60
3.7801e-63
2.56679e-66
1.73892e-69
1.17584e-72
7.93788e-76
5.34621e-79
3.58877e-82
2.40734e-85
1.61341e-88
1.08058e-91
7.21673e-95
4.80607e-98
3.19886e-101
2.12495e-104
1.409e-107
9.32683e-111
6.15807e-114
4.05628e-117
2.66984e-120
1.75422e-123
1.15009e-126
7.54125e-130
4.93347e-133
3.22092e-136
2.09743e-139
1.36404e-142
3.24767e-145
1.07341
0.999885
0.934946
1.04084
1.00096
1.01845
2.54198e-07
1.28086e-14
9.27418e-18
2.58328e-18
8.91506e-21
2.58227e-23
1.7729e-26
3.62359e-30
1.80177e-33
1.3177e-36
9.42133e-40
6.60293e-43
4.62118e-46
3.23439e-49
2.25917e-52
1.57658e-55
1.09744e-58
7.63393e-62
5.29559e-65
3.66914e-68
2.53831e-71
1.75235e-74
1.2075e-77
8.32564e-81
5.72596e-84
3.93226e-87
2.69756e-90
1.84604e-93
1.25941e-96
8.58776e-100
5.84808e-103
3.97407e-106
2.69687e-109
1.82617e-112
1.2338e-115
8.32481e-119
5.61091e-122
3.7755e-125
2.53778e-128
1.70255e-131
1.13944e-134
7.61318e-138
5.07645e-141
2.27132e-144
0.999525
1.09087
0.856341
0.931719
0.999635
1.0038
0.268638
3.77216e-12
4.5302e-15
3.33592e-18
1.8155e-19
2.42616e-22
1.00199e-25
6.31493e-29
4.30962e-32
2.92744e-35
1.98103e-38
1.33862e-41
9.0333e-45
6.08769e-48
4.09701e-51
2.75181e-54
1.84369e-57
1.23457e-60
8.24424e-64
5.50118e-67
3.66559e-70
2.43793e-73
1.62148e-76
1.07354e-79
7.10273e-83
4.6933e-86
3.09349e-89
2.03668e-92
1.33959e-95
8.79174e-99
5.76296e-102
3.7714e-105
2.46325e-108
1.60655e-111
1.046e-114
6.82528e-118
4.42892e-121
2.87227e-124
1.85556e-127
1.19948e-130
7.74089e-134
4.98921e-137
3.20965e-140
1.25504e-143
1.01383
1.00387
1.0367
1.06097
1.00183
1.03149
0.816738
1.45451e-10
5.46163e-17
4.37223e-17
1.10583e-18
2.08984e-21
9.23991e-25
4.96618e-28
3.3835e-31
2.36521e-34
1.63726e-37
1.12878e-40
7.76351e-44
5.3264e-47
3.65019e-50
2.49594e-53
1.70229e-56
1.15939e-59
7.8786e-63
5.34135e-66
3.61664e-69
2.44353e-72
1.64678e-75
1.10801e-78
7.44035e-82
4.985e-85
3.33534e-88
2.22685e-91
1.48383e-94
9.87505e-98
6.55763e-101
4.3446e-104
2.8744e-107
1.8993e-110
1.25275e-113
8.25013e-117
5.42352e-120
3.5577e-123
2.3307e-126
1.52415e-129
9.94816e-133
6.48538e-136
4.21915e-139
1.63158e-142
1.0089
1.02562
1.03357
1.05056
0.967456
1.0028
0.915202
1.02349e-11
1.77602e-15
5.65595e-17
9.63374e-19
1.97553e-21
9.39024e-25
5.11687e-28
3.4855e-31
2.43361e-34
1.68411e-37
1.16056e-40
7.97866e-44
5.47101e-47
3.74424e-50
2.5583e-53
1.74395e-56
1.18656e-59
8.05547e-63
5.45614e-66
3.69161e-69
2.49253e-72
1.67916e-75
1.12945e-78
7.57451e-82
5.06858e-85
3.38937e-88
2.26289e-91
1.50675e-94
1.0019e-97
6.64925e-101
4.40455e-104
2.91416e-107
1.92444e-110
1.26864e-113
8.35127e-117
5.48576e-120
3.59419e-123
2.35182e-126
1.53622e-129
1.00139e-132
6.52461e-136
4.24543e-139
1.64289e-142
0.95897
1
0.966318
1.03309
1.05048
0.974863
0.735171
1.40246e-11
1.25965e-14
1.0406e-17
2.09766e-19
2.88545e-22
1.19287e-25
7.36142e-29
4.99912e-32
3.39237e-35
2.29026e-38
1.54436e-41
1.03925e-44
6.98346e-48
4.68798e-51
3.1396e-54
2.09724e-57
1.40088e-60
9.33707e-64
6.20874e-67
4.12588e-70
2.73678e-73
1.8124e-76
1.19856e-79
7.90514e-83
5.21491e-86
3.43525e-89
2.25815e-92
1.48279e-95
9.71384e-99
6.35682e-102
4.15468e-105
2.71176e-108
1.76497e-111
1.14841e-114
7.46518e-118
4.84124e-121
3.13358e-124
2.02608e-127
1.30794e-130
8.43905e-134
5.43127e-137
3.49639e-140
1.3742e-143
1.04803
1.03648
1.00022
1.0011
1.03624
1.0138
0.157311
1.16197e-13
8.26149e-17
2.74329e-18
8.97504e-21
2.08223e-23
1.33534e-26
3.10211e-30
1.63517e-33
1.18281e-36
8.38908e-40
5.85386e-43
4.07963e-46
2.84122e-49
1.9778e-52
1.37461e-55
9.53711e-59
6.61033e-62
4.57496e-65
3.15928e-68
2.1789e-71
1.50037e-74
1.03181e-77
7.08734e-81
4.86254e-84
3.33135e-87
2.27878e-90
1.55554e-93
1.05983e-96
7.21465e-100
4.90257e-103
3.32549e-106
2.25355e-109
1.52405e-112
1.02844e-115
6.93351e-119
4.66498e-122
3.13286e-125
2.10136e-128
1.40708e-131
9.39739e-135
6.26993e-138
4.18008e-141
1.91895e-144
1.0836
0.728771
1.01402
1.06552
0.909331
0.997679
1.88627e-07
9.09924e-17
7.33509e-19
5.36874e-19
2.0657e-21
5.79841e-25
2.99664e-28
1.76991e-31
1.20486e-34
8.42572e-38
5.83863e-41
4.03094e-44
2.77746e-47
1.90975e-50
1.31156e-53
8.98855e-57
6.14699e-60
4.19804e-63
2.86272e-66
1.94804e-69
1.32413e-72
8.98272e-76
6.08137e-79
4.11193e-82
2.77603e-85
1.8682e-88
1.25606e-91
8.42912e-95
5.64477e-98
3.77581e-101
2.5213e-104
1.68093e-107
1.11932e-110
7.43947e-114
4.93181e-117
3.2661e-120
2.15955e-123
1.42407e-126
9.38448e-130
6.1766e-133
4.05521e-136
2.65847e-139
1.73855e-142
3.39491e-145
0.999196
0.980743
0.996516
1.0822
0.953058
1.00092
4.91612e-11
7.97954e-17
9.08703e-17
2.53037e-18
3.5778e-21
1.25749e-24
2.16426e-28
1.12036e-31
8.15389e-35
5.73199e-38
3.95967e-41
2.7337e-44
1.88558e-47
1.29802e-50
8.92254e-54
6.11985e-57
4.19015e-60
2.86649e-63
1.95711e-66
1.3337e-69
9.08105e-73
6.17171e-76
4.1851e-79
2.83604e-82
1.91799e-85
1.29371e-88
8.71434e-92
5.86101e-95
3.93509e-98
2.63927e-101
1.76698e-104
1.18051e-107
7.87691e-111
5.2472e-114
3.48953e-117
2.31809e-120
1.53714e-123
1.01685e-126
6.71817e-130
4.43152e-133
2.91809e-136
1.91943e-139
1.25925e-142
3.20805e-145
0.93541
0.966544
1.04542
1.0352
1.02985
0.932511
9.64615e-13
-4.36805e-20
3.9141e-17
6.94225e-19
1.47575e-22
2.8544e-27
8.33841e-31
3.35497e-34
1.34014e-37
5.55602e-41
2.13551e-44
8.60724e-48
3.58267e-51
1.83334e-54
6.04817e-58
2.57274e-61
1.23408e-64
3.89029e-68
1.52955e-71
1.38353e-74
1.25359e-77
2.37292e-81
3.67391e-84
9.14607e-88
1.66148e-90
1.76084e-94
2.53447e-97
6.22224e-100
1.42449e-103
7.59129e-107
1.25545e-109
4.61902e-113
9.52028e-117
6.25373e-119
6.51771e-123
5.04848e-127
1.98382e-129
4.75836e-133
7.53526e-136
6.40928e-138
9.23525e-142
7.43931e-145
6.64355e-146
2.84451e-147
1
0.978402
1
0.997255
0.993835
0.999278
3.73731e-10
-3.08692e-19
-1.77182e-25
3.67323e-20
7.04883e-22
1.8749e-25
8.47338e-30
2.62504e-33
1.0532e-36
4.26305e-40
2.00177e-43
3.30562e-46
1.16645e-49
1.93904e-53
7.12196e-57
2.7999e-60
1.25483e-63
5.12061e-67
2.0614e-70
8.62608e-74
3.59226e-77
1.4695e-80
8.57914e-83
1.23067e-86
7.37919e-90
8.7493e-93
7.95569e-96
1.44726e-99
1.00582e-102
7.32982e-106
1.24e-109
4.15085e-113
1.74826e-114
1.08069e-117
6.01306e-122
1.04678e-125
4.01382e-129
1.19286e-130
4.96739e-134
4.65173e-138
6.11593e-141
6.86032e-145
1.59047e-145
6.59423e-147
0.98581
0.990044
1.0262
1.03212
1.01264
1.01904
2.31459e-07
-2.70567e-19
-1.41062e-21
2.29739e-19
5.26267e-21
1.02973e-23
1.98886e-27
1.87547e-31
6.11652e-35
2.50875e-38
1.04198e-41
4.34165e-45
1.80641e-48
7.40382e-52
3.12251e-55
1.26633e-58
5.41292e-62
2.25288e-65
1.26946e-68
4.12829e-72
3.00645e-75
7.0735e-79
3.40637e-82
4.57389e-85
9.4817e-89
3.36498e-92
1.32978e-94
6.08152e-98
1.06003e-101
1.37547e-104
7.58894e-108
3.18276e-111
1.89592e-114
5.89711e-117
5.05472e-120
4.88384e-124
1.87947e-127
5.06186e-130
1.07237e-132
1.07411e-136
3.78789e-139
1.75727e-142
3.0297e-145
3.44073e-146
0.816484
1.16622
0.879436
0.971371
1.01807
1.01582
0.268096
-1.01951e-17
-1.97426e-19
-5.04874e-32
9.48361e-21
1.12056e-22
1.51321e-26
1.13848e-30
4.0846e-34
1.64064e-37
6.60512e-41
2.67029e-44
1.06591e-47
4.30673e-51
1.72214e-54
6.81159e-58
3.09379e-61
1.48983e-64
4.85619e-68
3.16998e-71
7.36188e-75
3.75897e-77
2.59573e-80
1.12039e-84
3.27818e-87
1.4859e-90
6.92096e-94
1.18725e-97
8.31287e-101
3.25114e-104
3.41055e-107
4.33496e-110
2.4169e-114
4.90537e-116
9.33663e-120
4.20723e-122
3.40463e-125
4.68466e-129
3.08064e-132
4.2796e-135
2.96396e-138
1.13092e-142
2.76515e-145
4.60844e-146
0.827394
1.02145
1.01243
1.03012
1.03005
1.02865
0.816421
7.23853e-11
-9.60141e-19
8.32736e-20
6.36867e-20
1.40331e-21
4.98322e-25
1.5494e-29
4.87774e-33
1.96887e-36
7.96154e-40
3.2249e-43
1.32627e-46
5.30127e-50
2.10852e-53
8.6147e-57
3.47544e-60
1.43857e-63
7.35617e-67
3.22923e-70
9.73049e-74
3.64275e-77
1.55242e-80
1.88219e-83
1.31045e-86
1.51849e-90
6.41694e-93
1.39479e-96
5.2114e-99
5.39619e-103
1.31626e-105
6.46674e-109
3.01086e-111
6.8656e-115
5.31292e-119
9.82658e-121
2.67323e-124
1.23851e-127
3.13965e-131
5.53171e-135
1.055e-136
4.96951e-140
3.30378e-143
2.81839e-145
0.963739
1.01565
0.941527
1.00843
0.984204
1.01221
0.915026
9.21869e-13
-5.64752e-18
1.33001e-19
6.69817e-20
1.41043e-21
5.17147e-25
1.62177e-29
5.07629e-33
2.05194e-36
8.31436e-40
3.37266e-43
1.35923e-46
5.98334e-50
2.23616e-53
9.96624e-57
3.75847e-60
1.46923e-63
5.81172e-67
3.07137e-70
1.06136e-73
3.70463e-77
1.46753e-80
1.04242e-82
1.49955e-85
6.87919e-89
1.53824e-92
4.39675e-96
4.87683e-100
1.61514e-102
6.86378e-106
1.09388e-108
6.5609e-113
1.14986e-114
4.72212e-118
1.78623e-122
4.15881e-124
1.84774e-127
3.36516e-131
2.76929e-135
6.62247e-138
2.09258e-140
3.72333e-144
2.10072e-145
1.03003
0.640498
0.993358
1.0056
0.864113
0.987417
0.733876
-1.69985e-15
-1.27817e-18
-1.68981e-36
1.08517e-20
1.28435e-22
1.74085e-26
1.30306e-30
4.67313e-34
1.87372e-37
7.52436e-41
3.06692e-44
1.24216e-47
4.89982e-51
2.8699e-54
8.28721e-58
3.38249e-61
1.53377e-64
8.13953e-68
2.04264e-71
9.41925e-75
3.21622e-77
1.96688e-80
1.01878e-84
3.05082e-88
1.27634e-91
5.84592e-95
1.01554e-97
4.8422e-100
7.50701e-104
1.64787e-107
1.61442e-109
3.52218e-113
4.9602e-117
6.71205e-120
4.48707e-124
3.5772e-126
2.08278e-129
1.84471e-132
8.33519e-137
1.8779e-138
1.19101e-141
3.83048e-145
6.48431e-146
1.09374
0.716393
1.14661
0.963957
1.03161
0.991634
0.160354
-4.07964e-18
-3.88247e-20
2.61986e-19
3.08059e-21
8.0543e-25
7.70019e-29
1.74661e-32
6.67185e-36
2.72743e-39
1.12712e-42
4.65e-46
2.07571e-49
8.36112e-53
3.32663e-56
1.52737e-59
7.38801e-63
2.30774e-66
6.71631e-69
1.09289e-72
6.06789e-76
1.71488e-79
7.25437e-83
9.56341e-85
2.11358e-88
2.09738e-92
5.37847e-95
2.75843e-98
3.96066e-102
5.39847e-105
4.6879e-108
1.53039e-111
2.80507e-114
2.00686e-116
4.40552e-120
6.72913e-123
2.09232e-126
1.47228e-130
6.0507e-134
2.49702e-137
3.22387e-140
1.41592e-143
2.74104e-145
2.87619e-146
0.977228
0.994084
1
1.01365
1.04953
1.02001
1.92066e-07
-5.86661e-18
1.6262e-21
3.63469e-20
6.94235e-22
1.72498e-25
7.52999e-30
2.43151e-33
9.82631e-37
3.98845e-40
1.64769e-43
6.61804e-47
2.73179e-50
1.11001e-53
4.35916e-57
1.87964e-60
7.1754e-64
3.07843e-67
1.14925e-70
4.63385e-74
2.6134e-77
8.25269e-81
3.19918e-84
1.44089e-87
2.90335e-89
1.05671e-92
9.02994e-96
4.08229e-99
1.8403e-102
1.02377e-105
4.48693e-109
2.76654e-112
1.96097e-116
1.62381e-118
2.57416e-122
2.49326e-126
3.54986e-128
4.50203e-131
2.36817e-134
1.7141e-138
3.99579e-141
1.72655e-144
1.55828e-145
7.36513e-147
1.05251
0.99535
1.04813
0.999337
1.00633
1.00066
2.10032e-11
-1.03337e-20
6.71642e-17
5.15233e-19
5.10109e-23
4.1915e-27
8.84909e-31
3.35098e-34
1.37151e-37
5.91443e-41
2.34293e-44
1.05569e-47
4.08531e-51
1.67252e-54
7.34229e-58
3.29917e-61
1.17725e-64
5.34562e-68
3.02404e-71
1.08928e-74
1.4113e-77
2.70029e-81
3.68536e-83
1.06096e-86
7.38622e-91
1.03713e-92
4.75651e-96
4.48235e-100
1.74697e-103
9.71172e-106
3.87779e-109
5.51543e-113
7.656e-115
2.40043e-118
1.26307e-121
2.87027e-124
7.465e-128
1.65629e-131
5.72945e-135
2.1866e-137
1.19631e-140
8.21637e-144
2.26191e-145
9.42865e-147
-5.41121e-17
1.00073
-1.32063e-19
0.931042
8.929e-10
1.00116
2.87955e-08
-4.20381e-26
1.01261
0.107107
1
3.42366e-07
1.00447
0.102124
0.236863
1.02623
0.84099
1.02043
0.244932
1.02467
0.838764
0.963842
1.02332
1.00006
1.00035
0.963179
1.01841
1.00007
1.00008
0.993404
1.00008
1.0304
1.00007
1.00577
1.00046
1.00049
1.05427
1.00006
1.00927
1.00079
1.02574
1.00022
1.00003
1.06532
0.972914
0.957848
1.00036
1.02878
0.968566
0.887745
1.02397
0.255817
1.01156
0.890168
1.02626
0.262759
0.115303
1
-1.38777e-20
0.990751
0.122599
1
1.20526e-07
8.67362e-22
0.856496
-3.59858e-15
1.00175
1.6978e-08
0.842649
7.68149e-10
1.99982e-09
1.00151
4.90195e-08
0.936233
1.92497e-09
1
5.01836e-08
5.39183e-07
1.00247
0.104614
0.999994
4.99719e-07
1.00092
0.108503
0.245445
1.02928
0.837568
1.01487
0.247074
1.03159
0.837574
0.962006
1.01769
1
1.01369
0.962138
1.02041
1.00018
1.00017
1.01814
1.00113
1.03245
1.00007
1.01448
1.00077
1.00147
1.02456
1.00073
1.01099
1.00075
1.00072
1.00013
1.00098
1.03034
0.967636
1.00181
1.00047
1.00564
0.967696
0.889767
1.02131
0.264259
1
0.886927
1.01838
0.267606
0.121985
1
1.98101e-07
1.0055
0.119874
1
2.02035e-07
2.78269e-08
0.835445
1.35277e-09
1.00097
2.81593e-08
0.82706
2.2418e-09
9.30595e-10
1
3.11269e-08
0.930782
-4.90106e-17
0.998081
-2.62152e-19
3.85152e-07
0.996911
0.104252
1
-2.16667e-20
0.988367
0.104111
0.246678
1.02361
0.837791
1.0178
0.238373
1.00759
0.840321
0.962168
1.0162
1
1.01259
0.963196
1.01468
1.00005
1.00018
1.0153
1.00129
1.01896
1.00005
1.03005
1.00024
1.00118
1.00108
1.00056
1.01481
1.00004
0.996151
1.00004
1.00133
0.957983
0.968319
1.01087
1.00038
0.953435
0.971331
0.886113
1
0.262356
0.993795
0.886118
0.991569
0.259124
0.118957
1
1.25485e-07
0.984793
0.114448
1
0
1.68743e-08
0.823644
1.17321e-09
1.00027
-1.73472e-21
0.867433
-2.48354e-15
1.00374
1.03186
1.00818
1.11579
1
0.946485
1.00826
0.304714
0.223727
1
0.938031
0.999307
0.303509
0.224747
-8.11162e-19
-2.0432e-22
-2.35744e-17
9.25207e-13
6.50489e-15
2.83649e-11
3.48592e-15
0.976741
1.02238
1.0216
1.03461
0.984549
1.05495
1.03042
0.999974
0.91461
0.991149
0.999768
0.913707
0.99594
1
-9.20431e-19
-2.37166e-17
-2.19416e-17
3.33184e-10
8.04275e-12
3.27857e-08
4.02297e-12
1.02854
1.02053
1.02511
1.0351
1.06099
0.970592
1.04696
1.01102
1.00092
1.03389
1.01686
1.00167
1.03605
1.01202
-5.88527e-19
0.116848
-3.47331e-17
2.03598e-07
8.35159e-12
0.1233
5.97428e-12
1.02773
1.02638
1.06757
1
1.00167
0.984583
1.0087
0.963079
0.996411
0.962142
1.00899
0.995562
0.978863
0.984804
-1.25122e-16
0.722663
-5.08981e-19
0.267065
1.99532e-09
0.721981
1.99532e-09
1.0126
1.01428
1.02224
1.03895
0.844379
1.007
1.24056
1.00438
1.0159
1.01466
1.03302
1.01577
1.01784
1.00325
-1.20553e-16
0.918617
-5.81114e-17
0.817597
6.8347e-08
0.91509
6.30303e-10
1.01933
0.991283
1.11674
1.00095
0.972657
0.971786
1.00153
0.995102
1.0101
0.960536
0.981946
1.00682
0.892798
0.992847
-1.55182e-16
0.821364
-2.45242e-13
0.917552
7.27948e-10
0.82103
1.0521e-07
1.01582
0.903546
1.15058
1.19027
1.00749
1.09408
1.02993
0.998247
0.994883
0.999103
0.950367
0.995389
0.991552
0.997829
-1.25215e-13
0.278938
-2.04575e-15
0.733991
6.35868e-09
0.287993
6.35862e-09
1.03465
0.805676
1.05318
1.05189
1.0781
0.769201
1.05176
0.994185
1.0028
0.991813
1.03064
1.00385
0.981211
0.99519
-3.17372e-15
-9.34287e-18
-5.48863e-16
0.156697
4.0743e-11
1.05503e-06
4.07576e-11
1.0149
0.919344
0.987793
1
0.982702
0.957116
0.996707
1
0.999783
0.989204
0.985872
0.999416
0.998868
1
-4.92787e-17
-1.79281e-21
-6.19409e-18
1.41884e-07
2.18018e-14
1.07036e-10
2.18908e-14
1.00101
1.05651
1
0.96512
1.00183
1.0974
0.998119
0.506922
0.660543
1.00469
1.00171
0.661396
1.00526
0.508479
-1.36082e-17
-1.47072e-16
-1.43283e-18
2.15536e-11
1.91002e-15
1.40411e-12
5.28193e-15
1
1.11073
1.00487
1.06656
1
0.934818
0.995508
0.305224
0.235733
0.999141
0.931619
0.306624
0.999894
0.233289
4.1122e-14
6.21064e-11
2.09491e-14
2.60326e-12
4.10806e-14
6.35677e-11
2.09492e-14
1.00119
1.01609
1.02753
1.00155
0.970438
1.04124
1.04802
0.999692
0.915968
0.988016
0.989931
0.999426
0.914844
0.985001
5.33884e-13
4.62027e-08
2.32581e-13
6.26872e-10
5.52269e-13
2.81975e-07
2.12004e-12
1.04172
0.996593
1.1697
1.01397
1
0.897947
1.26972
1.00853
1.00011
1.04472
1.02558
1.00842
0.999922
1.04562
7.10709e-12
0.124493
2.12675e-11
2.94841e-07
3.40982e-11
0.12433
2.12675e-11
1.02134
0.981796
1.00457
1.00324
1.01941
0.979635
0.999245
0.948508
0.995987
0.912408
1.00934
0.932827
0.993111
0.944221
5.41483e-09
0.718865
5.41483e-09
0.268412
5.41483e-09
0.721343
5.41483e-09
0.84434
0.903885
1.36875
0.88571
1.02239
1
1.36298
1.0045
1.0138
0.995827
1.02344
1.00288
1.01352
1.00328
1.04748e-07
0.913161
1.30817e-09
0.81651
1.04793e-07
0.913991
1.33999e-09
0.997229
1
1.0114
0.946877
0.979023
0.971583
1.0198
0.99831
1.01088
0.915151
1.00966
0.996208
1.0119
0.999028
1.58105e-09
0.81982
1.68262e-07
0.916335
1.57083e-09
0.821258
1.70772e-07
1.03919
1.12666
1.01983
0.864114
1.05142
1.13145
1.08623
0.999673
0.997412
0.988482
1.01335
0.999174
0.998274
0.987829
1.80774e-08
0.289387
1.80775e-08
0.732507
1.80774e-08
0.288034
1.80775e-08
1.11754
0.750887
1.05566
1.02093
0.925937
0.891316
1.07287
0.990234
1
0.997442
1.0077
0.978072
0.997295
0.912839
1.59554e-10
1.25557e-06
1.98374e-10
0.160279
1.59558e-10
1.20929e-06
2.41519e-10
0.905694
1.01208
0.996737
1
0.948864
1.05865
0.993061
1.00225
1
1.01967
0.993803
1.00038
0.999991
1.02083
1.32701e-13
2.29956e-10
1.3264e-13
2.39332e-07
1.32705e-13
2.34553e-10
1.3264e-13
1.00041
1.02183
0.991302
1
1.0006
1.0086
0.994739
0.508493
0.663557
1.00172
1.00079
0.510181
0.663608
1.00177
1.11876e-14
3.57082e-12
3.20519e-14
4.83173e-11
1.11877e-14
3.87561e-12
3.195e-14
1
0.965396
0.974792
0.968058
0.997196
1.00423
0.975736
0.306514
0.233042
0.996731
0.934252
0.308174
0.997813
0.229662
7.03821e-15
3.06456e-11
3.77032e-15
-3.5416e-18
-7.57392e-19
-3.65399e-22
-2.65107e-17
0.974204
1.00372
1.01056
1.00095
0.947077
1.02585
1.01907
0.999906
0.912933
0.987737
0.987996
0.9999
0.911407
0.993078
6.34811e-12
6.27928e-09
3.17209e-12
-1.80049e-20
-4.52238e-18
-1.20675e-19
-1.79831e-17
0.952881
0.853594
1.21979
1.00953
1.02551
1.00399
0.952645
1.01131
1
1.02298
1.02103
1.01105
1
1.00981
8.59783e-12
0.123613
5.98846e-12
-5.88695e-19
-6.23536e-19
0.116551
-3.85195e-17
1.01548
1.00657
0.852851
1.15438
1.02209
1.00201
1.01491
0.96391
0.997688
0.999303
1.02544
0.963855
0.998683
1.00552
2.01169e-09
0.718636
2.01169e-09
0.263485
-1.34942e-16
0.721232
-2.19426e-18
1.00214
0.99003
1.10093
1.0273
0.964308
0.942621
0.979827
1.00194
1.01435
1.0239
1.02713
1.00276
1.01387
1.01744
6.82576e-08
0.912241
6.86247e-10
0.816507
-1.26298e-16
0.91757
-7.35105e-17
0.972031
0.956822
1.00949
0.985887
0.990009
1.00771
1.01788
0.999613
1.00826
0.982545
1.01392
1
1.00415
0.995884
7.69721e-10
0.820285
1.10246e-07
0.922008
-2.02772e-16
0.82098
-2.39664e-13
0.991015
1.11499
0.928152
0.972366
1.02626
1.1412
0.870951
1.00552
0.999612
0.997315
0.999351
1.00444
1.00095
1.00047
6.32335e-09
0.28655
6.32335e-09
0.732027
-1.14567e-13
0.278058
-1.02648e-15
1.02556
1.05122
0.986682
1.03259
0.963225
1.05048
1.00529
0.954516
0.989318
0.898231
1.00645
0.957609
0.992392
0.893058
3.85756e-11
1.03574e-06
3.88391e-11
0.152406
-8.03974e-15
-1.28384e-18
-1.33913e-15
0.99413
1.0069
0.9981
1.12222
0.957685
1.01377
0.999511
0.999413
1
0.965102
1.03261
0.996485
1
0.964044
2.42216e-14
1.11477e-10
2.45366e-14
-3.26631e-19
-6.75574e-17
-7.77855e-21
-4.27946e-18
1.00156
1
0.995073
1.03757
1.00062
1.00477
0.996115
0.507913
0.66389
1.00182
1.00071
0.507299
0.662004
1.0016
1.91089e-15
1.92402e-12
5.22552e-15
8.47033e-25
-1.23931e-17
-7.01672e-17
-1.34175e-18
3.78416e-07
-4.36342e-16
-2.09011e-18
1.04876e-10
1.04886e-10
-1.29524e-17
2.64219e-07
0.578477
1.00195
0.712447
1.00083
1.00192
0.710867
0.577934
0.00961515
-7.60133e-20
0.0326812
5.51699e-09
5.51699e-09
0.0352043
0.00738604
0.305302
0.935935
0.234006
0.999425
0.999167
0.305913
0.227609
8.0356e-07
1.02677e-09
6.13499e-07
8.92905e-10
8.92905e-10
1.23844e-06
4.85431e-07
0.576779
1.00108
1.002
0.707923
1.00261
0.70892
0.578477
0.0109966
2.87955e-08
2.87955e-08
0.039317
2.87955e-08
0.0369785
0.0125328
0.430663
0.157326
0.000206539
7.14127e-08
0.159059
0.000419
0.429531
0.992793
1.00896
1
1.02023
1.00973
0.99933
0.99473
0.500925
0.00865662
0.737137
0.113004
0.0111851
0.736552
0.496593
0.999926
0.999982
0.910892
0.980458
0.913546
0.989598
0.999846
0.427804
3.42366e-07
0.163531
0.000617814
0.160422
0.000538327
0.429432
0.987418
1.00192
0.991882
0.992826
0.994916
0.994073
0.985274
0.509465
0.106274
0.00977448
0.759231
0.00899518
0.750658
0.515292
1.00156
0.940093
0.504822
0.237376
0.939982
0.504919
1.00133
1.0018
1.01744
1.00664
1.02607
1.01676
1.00626
1.00167
1.00013
0.687478
1
0.840094
0.691156
1
1.00019
1.01083
1.01765
1.00061
1.04683
1.00025
1.04099
1.00941
1.00199
0.241697
0.934537
0.504815
0.936385
0.503829
1.00173
1.00181
1.02501
1.0162
1.00647
1.0184
1.00669
1.00174
1.00018
0.838875
0.686674
1
0.690387
0.999939
1.0002
0.998179
1
1
0.963454
0.999989
1
0.999343
0.994179
1.00177
1.01257
1.01906
0.999395
1.01104
0.99195
1.00039
1.00003
1.00196
1.0003
1.00014
1.00247
0.999998
0.960078
0.988805
0.995886
0.91331
0.99425
0.952332
0.951588
0.998841
0.963064
0.999857
0.999985
0.999861
1.00002
0.99895
0.999178
1.01853
0.981131
1.01115
1
1.01142
1
1.0012
1.00068
1.00011
1.00212
1.00013
1.00264
1.00164
0.999569
1.00192
1.00007
1.00008
1.00143
1
0.999721
0.976434
0.996929
1.00115
0.951999
1.00008
0.999839
0.968731
0.987775
1
1.00039
1.00024
0.999883
1.00061
0.995403
1.00192
1.03469
1.01494
0.997962
1.01516
0.998159
1.00228
0.999226
1.00022
1.00129
1
1.0013
1
0.998212
0.991115
0.959065
0.996702
1.00069
0.998787
0.999299
0.994605
0.989077
1.0012
0.999964
1.00075
0.99992
1.00106
0.994309
1.00072
1.00382
1.0003
1.00065
1.00394
1.00035
1.00105
0.992097
1.02351
1.01556
1.08594
1.02243
1.01274
1
0.996364
1
1.00194
1.00009
1
1.00144
0.996084
0.999467
0.980254
1.01405
0.885594
1.00437
0.883089
0.996363
1.0011
1.00137
1.00419
1.00047
1.00429
1.00143
1.00051
0.989796
1.02355
1.00699
1.01081
1.02193
1.01138
0.988254
0.996644
1.00071
1
1.00084
1.00018
1.00202
0.996465
0.99983
1
1.00002
1.00001
1.00014
1.00001
1.0001
1.00722
1.04661
1.01321
1.07049
1.04477
1.00631
1.01069
1.00277
1
1.0011
0.971714
1
1.00088
1.0023
0.995394
0.949411
0.998931
0.951407
0.995813
0.953334
0.993407
1.00013
1.00063
1.00037
1.00024
1.00048
1.00053
1.00001
1.00681
1.05583
1.01729
1.00583
1.02966
1.00579
1.00625
1.00321
0.970277
1
1.00166
1
1.00133
1.00324
1
1.00004
0.66708
0.889399
1.00011
0.666758
1.00003
0.99957
0.970017
1.00358
1.03162
0.958466
1.00235
0.997089
1
0.592698
0.971304
0.257826
0.592909
0.97148
1.00005
0.98904
1.01616
1.00092
0.998559
1.00307
1
0.978103
1
0.888696
1.00001
0.665413
1.00029
0.667348
0.999831
0.995507
1.02701
0.978063
1.00001
0.958896
1.00015
0.993976
1.00002
0.258833
0.589102
0.970015
0.591379
0.971342
1
0.577991
0.837331
0.00837668
0.117348
0.837192
0.0114589
0.578362
1.00005
1.00082
0.855461
0.999872
1.00088
0.854966
1.00019
0.369265
4.60917e-05
0.128136
2.38487e-08
9.58363e-05
0.131008
0.369638
1.00185
0.986157
1
1.01831
0.999987
1.02053
1.00016
0.575884
0.120646
0.834908
0.0134488
0.834952
0.0128663
0.579209
1.00019
0.999969
1.00088
0.855558
1.00163
0.855052
0.999985
0.368838
1.20526e-07
0.000148205
0.13242
0.000121806
0.130886
0.369886
0.00371035
0.0283265
0
3.28995e-09
0.0312837
3.28995e-09
0.00197681
0.259344
0.956707
0.172391
0.854909
0.955649
0.255203
0.174221
3.27271e-07
-2.98151e-15
-1.06278e-15
1.06107e-10
1.06043e-10
-5.36236e-16
3.40085e-07
0.506918
1.00154
0.662329
1.00314