/*--------------------------------*- C++ -*----------------------------------*\
| =========                 |                                                 |
| \\      /  F ield         | OpenFOAM: The Open Source CFD Toolbox           |
|  \\    /   O peration     | Version:  5.0                                   |
|   \\  /    A nd           | Web:      www.OpenFOAM.org                      |
|    \\/     M anipulation  |                                                 |
\*---------------------------------------------------------------------------*/
FoamFile
{
    version     2.0;
    format      ascii;
    class       volScalarField;
    location    "0.9";
    object      p;
}
// * * * * * * * * * * * * * * * * * * * * * * * * * * * * * * * * * * * * * //

dimensions      [1 -1 -2 0 0 0 0];

internalField   nonuniform List<scalar> 
10411
(
104.347
93.0301
98.1551
145.143
104.36
97.494
93.8121
90.1695
87.8296
85.4237
83.0227
80.6124
78.2039
75.8227
73.4534
71.1051
68.7712
66.4679
64.181
61.9274
59.6753
57.4373
55.2305
53.0188
50.83
48.6617
46.4971
44.3292
42.1797
40.0586
37.9326
35.8297
33.7553
31.6733
29.5847
27.5277
25.5249
23.5562
21.5971
19.6294
17.6905
15.7966
13.9048
11.9844
10.0926
8.24775
6.40568
4.55853
2.73106
0.913181
107.517
88.638
111.468
104.162
93.3737
97.1258
93.2896
90.0855
87.8482
85.4637
83.0614
80.6385
78.2426
75.8472
73.4626
71.1178
68.775
66.486
64.2138
61.9314
59.678
57.4393
55.2223
53.0231
50.8224
48.6446
46.4848
44.3317
42.1923
40.0615
37.9464
35.8434
33.7536
31.6672
29.5871
27.534
25.5197
23.5394
21.5757
19.6274
17.696
15.8005
13.9116
12.0029
10.1013
8.24111
6.40044
4.55742
2.73213
0.913072
84.7318
69.3885
110.932
104.692
108.552
93.798
92.6582
90.3402
88.0135
85.5599
83.1339
80.6753
78.2549
75.863
73.4788
71.1152
68.7926
66.5082
64.2248
61.9289
59.6783
57.4432
55.2191
53.0113
50.8205
48.6384
46.4731
44.3362
42.197
40.063
37.9512
35.8427
33.7337
31.6562
29.5993
27.5511
25.5207
23.5308
21.5739
19.63
17.7046
15.796
13.8956
12.0045
10.1106
8.2357
6.38626
4.55651
2.73371
0.912785
107.184
90.423
106.07
110.552
108.849
99.6206
96.2042
91.0196
88.3075
85.7474
83.2327
80.7611
78.2933
75.8778
73.4941
71.1291
68.7979
66.5028
64.2055
61.933
59.6905
57.4433
55.2203
53.0172
50.8352
48.6491
46.4729
44.3424
42.194
40.0536
37.9518
35.8381
33.7285
31.6506
29.606
27.5673
25.5268
23.5268
21.574
19.6351
17.7073
15.7847
13.878
11.9913
10.1166
8.2384
6.38855
4.56393
2.74025
0.907885
106.911
98.7493
107.225
101.501
99.2908
103.666
97.5285
91.993
88.3454
85.8276
83.2808
80.7756
78.3194
75.8909
73.5122
71.1438
68.8151
66.4973
64.1869
61.9339
59.6927
57.4413
55.2241
53.0191
50.8424
48.6662
46.4837
44.3376
42.1806
40.0453
37.9459
35.83
33.7255
31.6487
29.6051
27.5762
25.5372
23.5318
21.5786
19.6439
17.7067
15.7699
13.8569
11.9804
10.1134
8.23954
6.39582
4.57789
2.74838
0.905923
93.1292
102.785
98.7747
94.9437
92.8043
94.3765
96.4511
91.8543
88.3677
85.8577
83.2983
80.7882
78.3265
75.9007
73.5252
71.1565
68.8267
66.5036
64.1854
61.9281
59.6895
57.4393
55.2252
53.03
50.8483
48.6776
46.494
44.3327
42.1748
40.0385
37.94
35.824
33.7174
31.6508
29.6108
27.5781
25.546
23.5417
21.5814
19.6446
17.7015
15.7585
13.8445
11.9709
10.1081
8.24374
6.4123
4.60156
2.75788
0.908842
96.524
111.713
95.9224
116.403
107.094
111.482
97.766
91.2668
88.4754
85.818
83.2822
80.775
78.3329
75.9069
73.5174
71.1523
68.824
66.5106
64.1887
61.9165
59.6782
57.4383
55.2245
53.0381
50.8541
48.6791
46.5008
44.3299
42.1768
40.049
37.9342
35.8107
33.7103
31.6565
29.6125
27.573
25.5519
23.5546
21.583
19.6369
17.6946
15.7509
13.8409
11.9685
10.1043
8.24574
6.41868
4.60198
2.764
0.918032
101.686
106.24
-28.9128
111.119
101.558
104.705
95.9263
90.6959
88.1928
85.6577
83.1793
80.7148
78.2969
75.884
73.4826
71.1466
68.8108
66.4964
64.2006
61.9082
59.6663
57.4321
55.2212
53.0384
50.8499
48.6817
46.5018
44.3258
42.1859
40.0534
37.9297
35.8074
33.7138
31.6628
29.6098
27.5585
25.5512
23.5657
21.5888
19.6311
17.6891
15.7608
13.8529
11.9732
10.103
8.24806
6.41734
4.59106
2.76194
0.921988
115.477
132.511
82.4024
93.7855
117.451
93.2676
93.1659
90.1232
87.8757
85.4904
83.0823
80.6631
78.2553
75.8556
73.4776
71.1355
68.7807
66.473
64.1867
61.9138
59.6576
57.4257
55.2274
53.0361
50.8612
48.6833
46.5
44.3267
42.1813
40.0534
37.919
35.809
33.7339
31.6693
29.6025
27.5504
25.5448
23.5701
21.5932
19.6296
17.6877
15.7688
13.867
11.9737
10.0992
8.24942
6.41022
4.57998
2.74916
0.923343
94.0195
93.2342
90.9687
103.972
99.2505
95.4959
92.8895
90.0456
87.8087
85.4153
83.0289
80.6145
78.2034
75.835
73.4623
71.1094
68.7728
66.4663
64.1793
61.9102
59.6536
57.4256
55.229
53.0238
50.8437
48.6771
46.4997
44.3275
42.178
40.0543
37.9213
35.8148
33.7488
31.6734
29.5909
27.5363
25.5347
23.5656
21.5965
19.6285
17.6888
15.7858
13.8858
11.9767
10.093
8.25288
6.41288
4.56952
2.73838
0.913329
104.331
93.9372
91.4005
91.2284
99.519
97.5232
93.8123
90.17
87.8296
85.4237
83.0228
80.6125
78.2037
75.8228
73.4534
71.105
68.7712
66.468
64.1811
61.9273
59.6753
57.4374
55.2304
53.0187
50.8301
48.6617
46.497
44.3292
42.1795
40.0585
37.9325
35.8299
33.7553
31.6732
29.5846
27.5276
25.5247
23.5563
21.5971
19.6292
17.6904
15.7967
13.9049
11.9844
10.0926
8.24777
6.4056
4.55846
2.73102
0.913256
107.003
98.7245
96.4092
104.164
102.796
97.2607
93.2889
90.0856
87.848
85.4637
83.0614
80.6385
78.2426
75.8471
73.4626
71.1177
68.7749
66.4861
64.2137
61.9313
59.6781
57.4394
55.2221
53.023
50.8224
48.6447
46.4847
44.3317
42.1923
40.0615
37.9469
35.8434
33.7535
31.6671
29.5871
27.5339
25.5196
23.5394
21.5757
19.6274
17.696
15.8005
13.9115
12.0027
10.1013
8.24114
6.40033
4.55749
2.73214
0.913018
79.0457
77.7454
92.1379
104.751
111.192
93.8709
92.6311
90.3409
88.0138
85.5599
83.1339
80.6753
78.2548
75.863
73.4788
71.1152
68.7926
66.508
64.2249
61.9289
59.678
57.4432
55.2189
53.0112
50.8205
48.6384
46.473
44.3362
42.197
40.0631
37.951
35.8426
33.7338
31.6563
29.5994
27.5512
25.5204
23.5308
21.5739
19.6299
17.7047
15.7961
13.8956
12.0043
10.1106
8.23568
6.38623
4.55654
2.73372
0.912775
85.4325
82.789
122.163
103.641
88.8889
100.254
96.1092
91.0208
88.3076
85.7471
83.2326
80.761
78.2933
75.8778
73.494
71.129
68.7979
66.5027
64.2054
61.9329
59.6906
57.4433
55.2203
53.0173
50.8352
48.6489
46.473
44.3425
42.1941
40.0535
37.9517
35.8382
33.7285
31.6506
29.6061
27.5674
25.5267
23.5268
21.574
19.635
17.7074
15.7846
13.8778
11.9914
10.1166
8.23846
6.38844
4.56389
2.74024
0.907741
105.074
97.3625
106.561
100.045
109.027
102.604
97.5731
91.9927
88.3457
85.8277
83.2808
80.7756
78.319
75.8909
73.5123
71.1437
68.8151
66.4973
64.1866
61.934
59.6928
57.4413
55.224
53.0192
50.8422
48.6663
46.4838
44.3375
42.1804
40.0452
37.9459
35.83
33.7254
31.6486
29.6051
27.5762
25.5372
23.5317
21.5786
19.6443
17.7066
15.7696
13.8569
11.9803
10.1134
8.23952
6.39576
4.57785
2.74832
0.905974
94.3236
101.209
102.581
112.251
80.5956
95.4246
96.4671
91.853
88.368
85.8577
83.2982
80.7881
78.3266
75.9007
73.5251
71.1565
68.8267
66.5037
64.1853
61.9279
59.6896
57.4393
55.2251
53.03
50.8484
48.6776
46.4939
44.3325
42.1748
40.0387
37.94
35.8235
33.7173
31.6508
29.6107
27.5781
25.546
23.5416
21.5814
19.6446
17.7014
15.758
13.8445
11.9709
10.108
8.24372
6.41227
4.60159
2.75762
0.908812
101.241
108.497
121.506
113.543
111.961
104.168
97.882
91.2666
88.4752
85.8179
83.282
80.775
78.3329
75.9068
73.5173
71.1523
68.824
66.5104
64.1887
61.9165
59.6781
57.4383
55.2245
53.0381
50.8538
48.6791
46.5007
44.3299
42.1769
40.0489
37.9344
35.8105
33.7103
31.6564
29.6123
27.5728
25.5518
23.5546
21.583
19.637
17.6946
15.7507
13.8409
11.9685
10.1042
8.24572
6.41877
4.60207
2.76396
0.918141
102.014
114.548
62.7953
103.648
101.283
102.426
95.7393
90.6964
88.1929
85.6577
83.1793
80.7148
78.2969
75.884
73.4826
71.1465
68.811
66.4961
64.2008
61.9082
59.6662
57.4322
55.2213
53.0384
50.8497
48.6817
46.5022
44.3257
42.1858
40.0534
37.9296
35.8074
33.7138
31.6628
29.6098
27.5585
25.5512
23.5656
21.5888
19.631
17.689
15.7609
13.8528
11.9732
10.1029
8.24804
6.41734
4.59104
2.762
0.922044
130.327
98.2329
66.273
95.4938
121.978
94.062
93.1466
90.1237
87.8758
85.4905
83.0823
80.6631
78.2553
75.8555
73.4776
71.1357
68.7809
66.4729
64.1868
61.9138
59.6576
57.4257
55.2274
53.0361
50.8612
48.6833
46.4999
44.3267
42.1813
40.0536
37.919
35.8089
33.7344
31.6693
29.6024
27.5504
25.545
23.5699
21.593
19.6295
17.6878
15.7689
13.867
11.9735
10.0991
8.24936
6.41018
4.57995
2.7492
0.92334
96.951
93.7621
85.0858
87.7677
97.3837
95.5012
92.8888
90.046
87.8086
85.4153
83.029
80.6143
78.2033
75.835
73.4622
71.1097
68.7728
66.4662
64.1794
61.9102
59.6535
57.4256
55.229
53.0238
50.8438
48.6771
46.4996
44.3275
42.1779
40.0543
37.9211
35.8148
33.7489
31.6731
29.5908
27.5363
25.5347
23.5656
21.5965
19.6285
17.6888
15.7857
13.8858
11.9766
10.093
8.25289
6.41263
4.56952
2.73848
0.913319
114.434
97.6646
91.0062
99.7367
99.2284
97.6277
93.8122
90.1698
87.8296
85.4236
83.0228
80.6126
78.2035
75.8228
73.4533
71.1046
68.7711
66.4679
64.1811
61.9271
59.6752
57.4375
55.2303
53.0185
50.8301
48.6617
46.4969
44.3292
42.1793
40.0585
37.9326
35.8299
33.7553
31.6729
29.5845
27.5276
25.5247
23.5563
21.5971
19.6291
17.6903
15.7967
13.905
11.9845
10.0926
8.24784
6.40546
4.55835
2.73093
0.913216
120.053
100.219
96.3909
101.952
104.471
98.1418
93.288
90.085
87.848
85.4636
83.0613
80.6384
78.2425
75.8471
73.4625
71.1176
68.7748
66.4862
64.2135
61.9312
59.6783
57.4394
55.2219
53.0228
50.8224
48.6446
46.4844
44.3316
42.1924
40.0614
37.9469
35.8434
33.7534
31.6669
29.587
27.5338
25.5196
23.5398
21.5755
19.6272
17.696
15.8006
13.9114
12.0023
10.1013
8.24115
6.40018
4.55742
2.73208
0.912825
74.8369
79.9715
134.367
103.427
111.657
91.4047
92.6382
90.3412
88.0143
85.5598
83.1338
80.6752
78.2548
75.8629
73.4787
71.1151
68.7926
66.5077
64.2247
61.9288
59.6778
57.4431
55.2188
53.0111
50.8205
48.6382
46.473
44.3361
42.197
40.0632
37.9509
35.8422
33.7339
31.6564
29.5994
27.5511
25.5202
23.5308
21.5738
19.6298
17.705
15.7962
13.8955
12.0041
10.1106
8.23561
6.38612
4.55649
2.73368
0.912466
108.282
87.3867
117.721
103.35
96.6694
100.307
96.1232
91.0212
88.3075
85.7468
83.2325
80.7608
78.2932
75.8777
73.494
71.129
68.7978
66.5025
64.2053
61.9327
59.6907
57.4432
55.2202
53.0173
50.8343
48.6487
46.4732
44.3424
42.194
40.0534
37.9515
35.8382
33.7284
31.6506
29.606
27.5673
25.5266
23.5268
21.5741
19.6352
17.7073
15.7846
13.8776
11.9915
10.1166
8.23847
6.38834
4.56381
2.7401
0.907416
122.896
106.093
102.394
100.815
102.884
102.453
97.5543
91.9932
88.3449
85.828
83.2808
80.7747
78.3188
75.8908
73.5122
71.1436
68.815
66.4972
64.1865
61.934
59.6928
57.4414
55.2238
53.0193
50.842
48.6662
46.4838
44.3375
42.1803
40.0452
37.9459
35.83
33.7253
31.6486
29.605
27.5761
25.5375
23.5317
21.5786
19.6444
17.7064
15.769
13.857
11.9803
10.1134
8.23946
6.39591
4.57777
2.74823
0.905882
78.83
99.7722
106.984
107.632
84.1917
95.358
96.4877
91.8536
88.3672
85.8578
83.298
80.788
78.3267
75.9006
73.525
71.1564
68.8266
66.5038
64.1851
61.9278
59.6895
57.4392
55.225
53.03
50.8484
48.6774
46.4938
44.3324
42.1747
40.0392
37.9401
35.8233
33.7171
31.6507
29.6107
27.578
25.546
23.5416
21.5813
19.6447
17.7013
15.7576
13.8445
11.9709
10.1078
8.24365
6.41228
4.60157
2.75721
0.908779
103.81
120.077
111.06
109.803
115.211
105.079
97.8342
91.2654
88.4753
85.8178
83.282
80.7749
78.3328
75.9068
73.5173
71.1522
68.8239
66.51
64.1886
61.9165
59.6783
57.4382
55.2245
53.0381
50.8536
48.679
46.5006
44.3301
42.1772
40.0489
37.9342
35.8104
33.7102
31.6563
29.6122
27.5726
25.5518
23.5545
21.5829
19.637
17.6945
15.7506
13.8408
11.9685
10.1041
8.24565
6.41905
4.60186
2.76386
0.91825
110.011
114.045
101.1
117.346
100.989
98.8546
95.7982
90.6961
88.1931
85.6576
83.1793
80.7147
78.2968
75.8839
73.4825
71.1465
68.8112
66.4958
64.2009
61.9082
59.6662
57.4322
55.2213
53.0383
50.8496
48.6817
46.5021
44.3254
42.1857
40.0535
37.9295
35.8072
33.7138
31.6628
29.6096
27.5585
25.5512
23.5655
21.5887
19.631
17.6889
15.7608
13.8527
11.9732
10.1027
8.24798
6.41728
4.591
2.76198
0.922043
112.622
69.5568
73.1102
97.2874
99.5691
98.9778
93.1642
90.1234
87.8759
85.4903
83.0822
80.663
78.2552
75.8555
73.4775
71.1359
68.7809
66.4727
64.1868
61.9138
59.6575
57.4256
55.2274
53.036
50.8611
48.6832
46.4998
44.3262
42.1812
40.0536
37.9189
35.8088
33.7349
31.6693
29.6022
27.5505
25.545
23.5698
21.5929
19.6295
17.6878
15.7689
13.8668
11.9733
10.099
8.24926
6.41004
4.57988
2.74931
0.923254
95.4746
92.4348
97.568
73.605
96.9275
95.5222
92.8889
90.0459
87.8087
85.4152
83.0291
80.6142
78.2031
75.835
73.4622
71.1099
68.7727
66.4661
64.1794
61.9101
59.6534
57.4255
55.2289
53.0237
50.8437
48.677
46.4993
44.3275
42.1779
40.054
37.921
35.8149
33.7492
31.6727
29.5907
27.5365
25.5348
23.5655
21.5964
19.6285
17.6888
15.7856
13.8858
11.9764
10.0929
8.2528
6.41248
4.56926
2.73846
0.913249
94.8555
98.5586
95.0364
97.4977
94.8588
98.5738
95.0447
94.2104
94.0316
93.9417
97.2755
94.2081
94.3611
93.8374
92.9922
97.3863
95.3097
93.7484
92.9517
97.5484
95.3203
97.4956
100.235
97.877
100.709
97.527
99.4911
97.8758
98.0738
92.6221
96.4126
102.739
98.079
96.2865
96.4162
96.1529
108.512
97.3375
95.7567
96.1424
102.2
97.3476
97.5191
104.239
97.7967
104.47
97.5384
102.821
97.8184
97.5673
94.5738
95.363
103.335
97.6229
93.7565
95.2327
94.5899
94.0972
93.8317
93.214
94.509
94.1061
93.8356
94.0435
95.5897
94.8779
95.5093
94.0466
95.4291
94.8911
94.854
98.5924
95.0411
97.646
94.862
98.6473
95.0401
94.2096
94.3424
93.7626
98.3707
94.1975
94.6698
93.7712
92.9498
97.8429
95.3145
92.5847
93.007
98.8185
95.3227
97.5194
99.453
97.8601
100.356
97.5243
98.5775
97.8723
98.0785
97.4071
96.4153
104.095
98.0693
98.0888
96.421
96.1425
102.205
97.3525
95.4564
96.1356
102.368
97.3397
97.5479
102.716
97.8213
100.203
97.5618
103.126
97.8124
97.6203
93.6004
95.212
99.4411
97.6268
94.083
95.2093
94.4621
94.1093
93.8359
93.5
94.474
94.0739
93.8432
94.0429
95.5067
94.88
95.5267
94.0363
96.1212
94.8589
94.8677
98.6497
95.0406
97.6385
94.8593
98.5564
95.0384
94.2127
93.4918
93.7331
97.3086
94.2019
94.1065
93.814
93.0011
98.2487
95.312
92.7275
93.0777
106.143
95.2917
97.5296
98.2019
97.8763
97.5259
97.508
99.0138
97.8755
98.0662
98.1264
96.4343
103.051
98.0576
96.556
96.4321
96.1451
102.258
97.3324
95.3974
96.1446
102.189
97.3257
97.5752
102.764
97.8029
101.924
97.5676
105.588
97.7641
97.638
92.789
95.2988
111.114
97.5762
101.092
95.4255
94.4954
94.0702
93.848
104.885
94.5804
94.1396
93.8362
94.0396
95.7676
94.8627
95.5251
94.036
96.5552
94.865
97.528
97.2529
100.738
99.2193
97.3883
105.219
100.338
98.3563
96.9182
99.3189
97.5092
99.3148
98.4087
96.8684
92.2224
93.6789
92.1718
93.8124
92.231
93.679
92.1804
86.6746
89.2515
91.4066
102.182
86.6317
90.386
92.3731
96.1489
96.4247
96.8045
97.1559
96.4381
97.8723
96.1147
92.0042
92.9795
91.9037
93.2895
92.012
92.9775
91.9113
94.502
100.941
107.116
115.453
97.2899
103.921
106.193
93.7516
92.971
92.2286
93.7595
92.9856
91.9691
93.8534
91.9414
94.6225
92.5449
92.6325
91.9492
94.5008
92.5527
109.98
86.7068
111.838
87.8585
110.166
85.1102
108.598
97.6463
100.401
107.539
99.7718
100.378
110.197
101.185
93.2265
97.3862
93.2575
96.1132
93.2355
97.4024
93.262
116.114
79.4863
124.251
108.414
128.766
51.2893
121.476
99.3771
99.85
99.6949
103.39
99.8543
100.214
99.2512
93.5782
96.5996
93.2249
97.5733
93.5736
96.6206
93.2348
95.9167
89.1227
113.927
94.4427
95.1287
89.7619
104.197
94.8535
96.5023
105.65
96.3672
96.6333
94.9193
95.0888
93.2189
97.4529
93.5919
96.4543
93.2278
97.4997
93.5874
98.9182
108.408
126.027
109.96
99.1254
102.585
109.288
97.2974
98.3958
96.7723
106.891
98.3187
95.679
97.2559
93.7083
96.5996
93.723
97.8349
93.7157
96.4803
93.7328
128.016
113.724
92.6369
101.725
126.121
113.364
91.7184
95.5866
99.2177
102.704
104.197
99.3432
104.529
95.8379
93.3329
93.585
92.2827
95.7579
93.3428
93.5758
92.2919
107.264
100.19
94.3654
123.07
105.911
96.5029
94.5849
96.2562
97.4696
97.4608
93.2856
97.4843
95.9245
96.2531
91.7849
92.7425
91.8297
93.1463
91.7925
92.7424
91.8378
96.3328
100.179
98.9678
96.1311
96.3056
104.427
98.8101
95.2464
96.0383
94.6857
95.5054
96.0495
94.6975
95.2088
91.8241
93.394
92.1017
92.8894
91.8323
93.3939
92.1101
97.2878
115.407
100.116
99.1662
96.7967
105.767
99.8899
98.268
96.7949
99.3412
97.5434
98.2738
99.3504
96.6809
92.23
93.6787
92.1794
93.8123
92.2299
93.6784
92.1793
86.0528
92.7273
93.7058
103.071
102.109
110.155
102.458
96.2738
96.5132
96.112
98.8741
96.2344
96.6542
96.4385
92.0108
93.1518
91.909
93.2881
92.01
93.1345
91.9087
93.3258
99.8231
109.28
111.271
87.9417
104.266
120.485
93.5684
92.8728
92.3613
94.1645
93.6598
92.8139
92.6962
91.949
94.4877
92.5522
92.6382
91.949
94.4764
92.5522
112.044
84.6618
106.331
96.314
106.426
87.1185
105.353
98.7548
100.573
107.031
100.251
104.75
100.794
97.4504
93.2353
97.4603
93.2583
96.1156
93.2351
97.4215
93.2588
129.514
46.2873
123.25
99.4411
118.618
145.702
115.407
98.9409
99.5768
100.409
103.449
98.9563
99.5885
99.772
93.5704
96.6271
93.2335
97.5667
93.5702
96.62
93.2336
94.924
95.7804
106.025
89.8791
98.7177
104.381
107.469
94.6259
95.4653
96.0716
95.3964
94.9397
95.7422
95.4036
93.2269
97.5101
93.5862
96.4666
93.228
97.5149
93.5874
99.0173
103.436
112.657
112.882
123.588
102.487
102.415
97.0698
98.5133
101.163
104.244
97.0309
98.3735
100.827
93.7129
96.4823
93.7318
97.809
93.712
96.4724
93.732
129.355
117.838
91.6689
99.8671
92.2589
111.761
97.7715
101
99.1483
100.789
102.412
98.2955
99.1862
103.814
93.3424
93.5667
92.2905
95.7709
93.342
93.5661
92.2901
131.463
96.1061
94.7782
105.006
111.868
104.257
96.2591
96.3099
97.5317
97.0258
93.7904
96.2824
97.5484
97.3197
91.7912
92.7419
91.8373
93.1628
91.791
92.7417
91.8373
96.2835
102.17
99.7395
96.9057
96.3086
102.021
98.0652
95.2676
96.0593
94.7409
95.5017
95.2857
96.0722
94.7601
91.8312
93.3934
92.1093
92.8884
91.8311
93.3933
92.1093
96.6242
91.3368
99.5558
100.533
96.3458
103.116
100.559
98.3044
96.5434
99.2912
97.6406
98.2814
99.2941
96.5886
92.2307
93.6785
92.18
93.812
92.222
93.6787
92.1712
102.543
110.17
96.5515
105.063
104.583
111.962
97.2155
96.398
96.5919
96.544
100.863
96.3737
96.7095
97.391
92.0106
92.9314
91.9108
93.2884
92.0022
92.9315
91.9036
89.6077
121.088
115.699
115.018
77.0697
92.9175
122.683
93.1899
92.7244
94.7004
90.9654
93.3197
92.7008
99.849
91.9493
94.5035
92.5528
92.6601
91.9418
94.6104
92.545
104.62
89.8598
87.0137
106.146
107.29
86.4013
82.6951
99.5645
100.377
97.1091
103.632
99.1952
100.345
97.348
93.2354
97.454
93.262
96.2056
93.2267
97.4016
93.2577
107.526
117.972
111.398
102.969
110.247
117.632
110.894
98.9969
99.7691
100.759
102.284
98.891
99.7582
100.584
93.5729
96.6343
93.2363
97.5207
93.5773
96.5953
93.2257
101.089
111.048
106.843
84.5326
100.345
101.617
106.098
94.6328
95.4195
94.0541
95.3874
94.6402
95.5322
91.6986
93.231
97.5122
93.5898
96.4502
93.2219
97.4668
93.5924
103.078
103.427
102.558
91.2815
101.771
105.698
108.247
96.9477
98.5116
106.085
100.946
96.9058
98.1969
105.697
93.7153
96.4721
93.7335
97.7367
93.7073
96.5833
93.7236
100.999
109.934
98.8903
107.241
96.3945
109.569
98.0917
100.227
99.8859
85.8814
98.5718
99.4433
99.505
88.6194
93.342
93.5774
92.291
95.9465
93.3323
93.5837
92.2816
99.758
95.9797
95.7537
106.623
108.676
88.0429
95.8237
96.3111
97.5337
96.2526
103.469
96.3394
97.5443
96.8877
91.7922
92.7421
91.8379
93.1712
91.7844
92.7423
91.8299
96.3228
101.869
98.0671
97.2988
96.332
101.41
98.5579
95.2424
96.0796
94.746
95.5146
95.2429
96.0827
94.7276
91.8319
93.3936
92.1101
92.8891
91.8235
93.3937
92.1018
96.9306
96.3835
95.451
94.8651
95.4617
96.9308
96.3906
97.9572
99.3357
97.6255
98.5539
99.3401
97.6138
97.9658
96.4407
94.835
96.5855
95.0462
94.8455
96.5226
96.494
98.3195
97.472
96.8322
99.3254
99.3126
98.2961
96.8231
96.9323
94.8596
96.3736
95.4627
95.4592
96.9346
96.3865
97.9386
98.5571
99.374
97.5994
99.3411
97.6083
97.9274
96.4296
95.0428
94.8376
96.4743
94.8392
96.4948
96.419
94.7674
95.7004
94.2175
94.219
95.6444
94.2203
94.7676
95.5836
97.4251
94.7682
95.4894
97.6236
94.7473
95.6335
94.2721
93.2863
94.5767
93.9734
93.2427
94.6783
94.3828
96.1692
97.2019
96.4206
97.7136
96.4189
95.7883
96.1909
94.7154
94.2105
95.6536
94.2425
95.6165
94.2266
94.6831
95.4874
94.3291
97.3111
94.702
97.2315
94.6503
95.4802
94.1859
93.7516
93.1728
94.6684
93.1933
94.4439
94.2195
93.964
93.7229
93.8518
92.9823
93.7347
93.8368
93.9529
95.013
93.6502
95.8504
97.3576
93.6369
95.843
95.049
95.3328
95.0084
96.2317
95.3269
95.0344
96.2344
95.3237
93.7147
93.7278
92.92
92.9589
92.9512
92.1484
93.6478
93.9603
92.9495
93.7321
93.8585
93.7236
93.8448
93.9411
94.9602
97.4683
93.8611
95.7796
93.6342
95.8131
94.8797
95.3255
95.3328
95.0348
96.2368
95.0321
96.2343
95.3212
96.9108
98.4192
96.9178
97.5135
98.4224
96.935
96.9512
99.4991
105.011
99.2277
99.6439
104.612
99.1321
99.9424
98.2663
97.8481
98.1255
97.8969
97.8511
98.114
98.3187
97.707
104.625
100.552
106.316
100.592
102.729
98.002
96.8683
97.5246
98.4244
96.9357
98.4207
96.9413
96.8629
99.75
99.6001
104.33
99.099
104.61
99.1204
99.8166
98.2612
97.8959
97.8444
98.0815
97.8467
98.1431
98.2883
98.2136
98.5806
97.7103
98.0809
98.5492
97.7145
98.2351
101.317
96.8034
95.8214
98.8441
96.7809
95.8036
102.962
98.1028
97.1092
96.1193
96.4136
97.1032
96.1142
98.2041
99.2448
103.014
99.7218
99.9223
99.7796
99.9415
99.1389
98.1908
98.0814
98.5526
97.7098
98.5542
97.7109
98.2352
101.2
95.9919
95.7664
95.6785
96.3219
95.9091
102.402
97.673
96.4268
97.1126
96.2053
97.1062
96.1625
98.6212
95.6705
96.048
96.2171
96.1516
96.048
96.2199
95.6988
98.2371
98.9413
98.7129
114.358
98.757
98.3567
99.4858
96.7505
96.6782
98.5635
97.3451
96.679
98.54
96.7762
95.2452
96.9767
96.5619
97.5805
97.4946
99.166
94.9945
95.6943
96.1531
96.1184
96.2167
96.139
96.2351
95.6505
98.2269
102.136
97.4337
98.3011
98.6532
98.3377
98.2125
96.7619
97.3483
96.6544
98.4857
96.6674
98.5947
96.7701
98.3346
98.6609
97.8736
97.5175
98.647
97.8849
98.3217
98.7586
101.697
99.3751
105.245
101.339
98.6202
99.1651
98.5194
97.9823
98.3774
97.8193
98.0128
98.3911
98.5673
97.6039
107.542
98.4036
100.509
98.273
99.6817
98.2111
98.3258
97.5174
98.6358
97.8819
98.6523
97.8838
98.3791
98.7837
103.082
100.374
98.6884
100.528
98.6918
98.777
98.5471
97.8216
98.0183
98.3866
98.0248
98.3844
98.5482
97.6245
98.1979
96.5612
97.5935
98.2022
96.5573
97.6057
96.9056
95.3433
96.6224
95.3051
96.3902
96.4984
96.4925
96.3112
95.7298
95.5243
95.3026
95.7399
95.556
96.3123
95.3347
103.363
99.111
100.837
99.2082
101.035
98.5409
97.638
97.6095
98.2121
96.5255
98.2069
96.5325
97.6515
96.1986
93.8501
100.178
96.597
96.2531
96.5723
96.3338
96.3034
95.2707
95.6996
95.5669
95.728
95.5767
96.2855
94.1402
94.8039
93.7845
94.5526
94.797
93.7172
94.152
94.6869
93.9174
95.3096
94.0995
93.9052
95.351
94.6743
93.3076
93.768
93.853
93.8361
93.7793
93.7807
93.317
96.2807
93.1573
97.5136
96.7012
97.4996
97.0473
96.2659
94.1292
94.5254
94.8464
93.6772
94.8067
93.7078
94.1371
94.6971
94.1006
93.9049
95.3824
93.9458
95.3708
94.7016
93.2915
93.8322
93.7825
93.7183
93.7804
93.7439
93.2662
94.2379
94.6662
93.9748
94.0517
94.5736
93.9829
94.2693
97.0427
96.0178
98.9142
95.567
96.0132
97.1464
98.7707
95.3891
94.6234
95.6789
94.8916
94.6323
95.4019
95.6786
95.275
95.5068
96.0545
94.7092
96.0589
94.7079
95.2799
94.2258
94.0473
94.5473
93.9795
94.5469
93.9787
94.2173
97.0218
95.5062
96.0239
98.5914
96.0305
96.9503
98.5268
95.3787
94.8917
94.6292
95.6603
94.6279
95.3804
95.6663
96.94
96.372
95.4618
94.856
96.9363
95.4629
96.375
97.9053
99.4122
97.5806
98.6036
97.9291
99.4507
97.5839
96.4073
94.8318
96.4638
95.0416
96.4047
94.8304
96.4645
98.2644
97.5931
96.6641
99.3068
99.3311
98.2672
96.6346
96.9382
94.8593
96.4045
95.4612
95.4627
96.9318
96.3855
97.8871
98.628
99.5036
97.5895
99.4826
97.5877
97.9063
96.4164
95.0421
94.8302
96.4782
94.8292
96.4642
96.4164
94.6819
95.6426
94.2491
94.2069
94.6626
95.6029
94.2465
95.336
106.634
94.7689
100.639
95.4378
97.4501
94.7885
94.2141
93.1533
94.6874
93.7438
94.2679
93.1509
94.7399
96.3066
97.5261
96.4951
96.7891
96.5757
96.5034
96.3412
94.7066
94.1973
95.6963
94.2362
95.6081
94.2382
94.7297
95.1753
94.9034
94.1169
94.7455
99.2158
94.775
95.2528
94.1546
93.7864
93.2248
94.7438
93.1401
94.7698
94.3473
93.9346
93.7177
93.8585
92.9785
93.9304
93.6724
93.8435
94.5471
94.7548
95.7708
98.2492
94.7583
95.3394
95.7132
95.3725
95.038
96.231
95.3282
95.3358
95.0333
96.2291
93.4088
96.6161
92.7503
92.6823
92.7753
92.4513
93.746
93.9219
93.0173
93.5645
93.8289
93.6109
93.8271
93.9006
94.3228
98.1138
95.3521
95.6152
95.1823
95.6713
94.3789
95.3948
95.3352
95.0137
96.2369
95.0296
96.2317
95.3757
96.5608
98.4241
96.9364
97.5145
96.9424
98.4218
96.9414
99.656
104.795
99.057
105.089
99.7205
107.176
99.0462
98.2594
97.8439
98.0793
97.8688
98.2634
97.8475
98.08
98.0556
100.485
100.348
102.026
100.431
97.9054
104.115
96.8073
97.5165
98.4056
96.9201
98.4129
96.9333
96.8626
99.5432
98.978
101.91
99.0634
102.384
99.062
99.5072
98.2549
97.8786
97.8337
98.0979
97.845
98.0836
98.2473
98.206
98.5225
97.7091
98.0755
98.204
98.5072
97.7096
97.2793
96.6867
95.5968
96.7233
97.1403
97.3882
95.4248
98.3849
97.1058
96.2005
96.4161
97.1536
97.0957
96.2504
99.0576
102.704
99.7171
102.282
99.6532
99.8093
98.9239
98.2604
98.0749
98.5283
97.7126
98.5248
97.709
98.1815
97.3616
104.831
96.7469
95.4777
97.0809
95.2365
97.8267
97.1694
96.4163
97.0904
96.3158
97.095
96.3142
97.8505
95.6895
96.0631
96.2124
96.1386
95.674
96.068
96.2115
98.9589
97.2673
98.3187
102.055
98.3478
111.505
98.1271
96.9736
96.6385
98.516
97.3501
96.7597
96.6194
98.446
94.6114
95.5195
95.5825
92.4875
95.7211
94.5197
94.6282
95.7022
96.1379
96.0175
96.2091
96.0724
96.2086
95.689
98.9012
102.158
117.568
98.1702
110.017
98.1545
98.7921
96.8652
97.3462
96.5552
98.4892
96.5893
98.4572
96.8598
98.4822
98.6344
97.885
97.5375
98.4209
98.6377
97.895
98.6762
100.328
98.7196
102.558
98.7208
100.105
98.8216
98.5389
98.0189
98.364
97.8223
98.5486
98.0269
98.3553
97.1105
109.092
98.4902
108.35
98.4829
111.216
97.0165
98.5523
97.5402
98.6314
97.8869
98.62
97.8971
98.6381
98.7671
102.978
102.35
98.3992
101.226
98.4729
98.9326
98.5389
97.8196
97.9986
98.3414
98.0209
98.3497
98.5144
97.6854
98.2163
96.5675
97.6196
97.6769
98.2186
96.6448
95.6264
96.3974
96.5929
93.936
96.6704
96.4825
96.581
96.2599
95.6824
95.5561
95.2216
96.2719
95.6923
95.5762
100.186
107.213
99.1593
104.133
99.1713
102.816
98.0543
97.6554
97.6179
98.2218
96.498
98.2196
96.5597
97.5582
100.003
93.8602
102.481
96.545
102.628
96.5524
100.458
96.2358
95.2775
95.8331
95.604
95.7617
95.6345
96.2075
93.9576
94.886
93.6558
94.4373
94.0954
94.9048
93.6829
94.726
93.8927
95.3952
94.1234
94.7105
93.8574
95.3883
93.2578
93.7809
93.6983
93.8396
93.2521
93.7836
93.701
96.2809
93.4412
97.5459
95.8288
97.5567
96.1947
96.3036
93.9677
94.455
94.8721
93.6892
94.8962
93.7167
93.9955
94.7379
94.1151
93.9245
95.32
93.8507
95.3563
94.7523
93.2685
93.8418
93.7799
93.7419
93.7835
93.7262
93.2693
94.2258
94.5399
93.977
94.0398
94.2181
94.5292
93.9785
96.8478
96.0625
98.7929
95.4067
96.8819
96.094
98.7719
95.3684
94.6275
95.6502
94.8716
95.373
94.6309
95.6017
95.2571
95.5147
96.0838
94.7672
96.0829
94.7745
95.2525
94.2376
94.037
94.5304
93.9806
94.5248
93.9798
94.2454
96.8169
95.9765
96.0485
98.8245
96.0759
96.8443
99.1597
95.385
94.8643
94.636
95.5815
94.633
95.3986
95.5606
96.9335
96.4026
95.462
94.8672
96.9319
95.4584
96.3959
97.9623
99.5346
97.6318
98.6137
97.9386
99.5708
97.6366
96.4161
94.8347
96.52
95.0391
96.4145
94.8376
96.506
98.3345
97.6576
96.7943
99.2547
99.2819
98.3732
96.6722
96.9291
94.8704
96.3819
95.4506
95.4611
96.9256
96.3912
97.9735
98.5583
99.5992
97.6798
99.5958
97.6315
97.9805
96.4361
95.0455
94.836
96.6
94.8446
96.4922
96.4939
94.7089
95.7076
94.2472
94.2157
94.7069
95.7288
94.2525
95.2825
93.9497
94.7473
94.0193
95.2929
93.8391
94.7903
94.2489
93.2073
94.7741
93.8114
94.3419
93.1762
94.9088
96.3975
98.2856
96.5018
96.5635
96.5826
96.4485
96.3851
94.7333
94.2138
95.7471
94.2373
95.7429
94.2526
94.7677
95.2848
93.8114
99.3443
94.7352
93.8417
94.7553
95.3786
94.2223
93.7828
93.2806
94.7351
93.1874
94.7791
94.6239
93.9126
93.5544
93.851
93.0494
93.8975
93.5587
93.8665
94.0587
98.0487
95.6173
97.9533
94.1145
96.1419
95.6879
95.362
95.0014
96.2404
95.312
95.357
95.015
96.25
93.1119
95.4619
92.6935
94.3761
92.6705
95.65
93.0534
93.9129
93.0064
93.5834
93.8771
93.5092
93.8739
93.9096
94.0319
112.143
102.243
95.8585
104.714
95.7792
94.2355
95.3561
95.3104
94.9713
96.2628
94.994
96.2594
95.3366
96.7103
98.3962
96.9148
97.5275
96.9139
98.388
96.9355
99.3651
101.619
99.0692
103.866
99.4181
105.792
99.0889
98.2335
97.8351
98.0605
97.8921
98.2595
97.8483
98.0551
95.7662
98.2579
100.619
96.8109
100.313
97.0726
100.13
96.6291
97.5202
98.3824
96.9359
98.3848
96.9444
96.8061
99.4787
98.6767
96.478
99.1312
96.1994
99.0764
99.46
98.2145
97.8992
97.8506
98.0988
97.8562
98.0658
98.2258
98.1992
98.5316
97.7156
98.0629
98.1907
98.5654
97.7189
97.4276
96.3579
95.5037
95.8537
97.7628
96.4316
95.584
97.1219
97.0768
96.3315
96.4285
97.3588
97.073
96.333
99.1099
102.173
99.7656
99.9416
99.7703
99.9609
99.1
98.2006
98.0627
98.5898
97.7171
98.4741
97.7219
98.2579
97.2807
97.6102
99.2511
95.8239
96.4792
95.7557
97.8244
97.063
96.4323
97.0779
96.3185
97.0778
96.3174
97.0871
95.7308
96.0011
96.2171
96.142
95.7293
95.9845
96.209
90.5018
111.571
98.3046
102.214
105.72
128.267
99.7241
96.7728
96.5194
98.5491
97.3255
96.7928
96.4984
98.5239
94.6024
95.3222
95.3689
91.7452
95.3167
91.7012
94.5999
95.7586
96.1442
96.0968
96.211
95.992
96.2112
95.7607
90.5339
102.047
75.9267
98.3103
79.8124
97.8728
90.5168
96.7523
97.3267
96.4738
98.5289
96.4859
98.5231
96.7473
98.7595
98.625
97.883
97.5553
98.7252
98.6456
97.8898
98.6351
100.113
98.3408
107.323
98.7084
99.0154
98.5789
98.5143
97.9863
98.3235
97.7902
98.5139
97.9955
98.3
97.0986
101.073
98.2357
106.841
98.2072
105.46
97.1669
98.7857
97.5621
98.6202
97.8871
98.6271
97.8955
98.7947
98.5852
109.215
99.3557
98.5377
98.9603
98.5226
99.4562
98.5112
97.7759
97.9735
98.289
97.9943
98.2893
98.6088
97.5855
98.2274
96.556
97.6363
97.5597
98.2433
96.4203
103.405
106.21
96.3827
92.6045
107.102
108.178
96.6519
96.2385
96.0584
95.6551
95.3371
96.2173
95.9059
95.6697
97.3411
119.906
99.4509
91.1885
99.4622
86.8186
97.6443
97.5886
97.6239