/*--------------------------------*- C++ -*----------------------------------*\
| =========                 |                                                 |
| \\      /  F ield         | OpenFOAM: The Open Source CFD Toolbox           |
|  \\    /   O peration     | Version:  5.0                                   |
|   \\  /    A nd           | Web:      www.OpenFOAM.org                      |
|    \\/     M anipulation  |                                                 |
\*---------------------------------------------------------------------------*/
FoamFile
{
    version     2.0;
    format      ascii;
    class       surfaceScalarField;
    location    "0.9";
    object      phi;
}
// * * * * * * * * * * * * * * * * * * * * * * * * * * * * * * * * * * * * * //

dimensions      [0 3 -1 0 0 0 0];

internalField   nonuniform List<scalar> 
30991
(
1.81807e-08
2.1417e-09
4.45722e-08
-9.98533e-08
1.33984e-07
-1.06931e-07
-3.24084e-09
1.6853e-08
-7.3087e-10
-2.24453e-09
-2.46189e-09
-4.63016e-09
-1.64116e-09
-6.15571e-09
-5.08396e-10
-2.24872e-08
3.22188e-08
-3.60695e-09
6.75045e-09
1.95067e-09
-2.39339e-10
-9.0754e-10
-3.45551e-09
1.07303e-09
2.95319e-10
-2.87471e-09
3.07008e-11
5.36922e-09
1.79652e-10
1.48829e-09
1.33527e-10
2.55108e-09
-1.7476e-09
-2.05545e-08
2.47468e-08
2.27381e-08
-2.87488e-08
4.30172e-10
1.53179e-10
-8.01999e-11
-5.48433e-10
-3.68687e-11
2.04514e-10
1.04281e-11
-5.79571e-12
-4.05294e-11
-6.91862e-11
-7.56371e-11
1.31246e-09
4.55482e-11
-3.00758e-11
-2.45711e-10
-2.417e-10
-4.17638e-10
-4.0796e-10
1.31495e-09
2.00442e-11
-2.02043e-12
1.32263e-09
1.01363e-11
3.06507e-13
1.32996e-09
5.40628e-12
-1.43037e-13
1.33661e-09
3.29438e-12
-8.54823e-14
1.34181e-09
2.08265e-12
3.86636e-14
1.34332e-09
8.58156e-13
-6.61714e-13
1.34522e-09
4.86339e-13
7.11384e-14
1.3463e-09
1.65231e-12
-4.14171e-13
1.34744e-09
3.52262e-14
-1.62814e-14
1.34838e-09
-5.25504e-14
-1.1275e-13
1.34693e-09
1.41997e-12
-3.5807e-13
1.34802e-09
2.3883e-14
1.44997e-12
1.34967e-09
4.52512e-13
-4.29479e-13
1.34943e-09
3.75107e-13
-6.41609e-13
1.34902e-09
4.88118e-13
8.87678e-14
1.34931e-09
-5.05707e-13
1.73822e-13
1.34947e-09
2.70459e-13
-2.28529e-14
1.34959e-09
-1.87781e-12
3.09223e-13
1.34999e-09
5.27409e-13
-6.48322e-13
1.35014e-09
4.75801e-14
-6.68045e-14
1.34972e-09
1.02057e-12
-2.847e-12
1.35006e-09
2.77546e-13
2.41137e-13
1.34954e-09
-8.61435e-13
3.79316e-12
1.35009e-09
-8.66313e-13
2.92318e-12
1.35001e-09
-3.72501e-13
1.71901e-13
1.35073e-09
1.10129e-13
-1.12016e-12
1.35069e-09
1.33129e-13
-7.05975e-14
1.35026e-09
4.04205e-14
-9.66352e-13
1.34977e-09
4.90656e-13
-1.59371e-12
1.34952e-09
8.2876e-13
-7.47072e-13
1.35185e-09
-4.10474e-12
1.25007e-12
1.35101e-09
6.25028e-13
6.83133e-14
1.35084e-09
1.15785e-13
2.59318e-14
1.35104e-09
-3.98883e-14
-2.04757e-13
1.35211e-09
2.26461e-12
-1.91189e-13
1.3508e-09
2.22449e-12
-1.01721e-12
1.35099e-09
-5.82836e-13
1.47874e-13
1.35099e-09
-7.5984e-14
2.22652e-13
1.35131e-09
-3.60492e-13
5.75506e-14
1.35126e-09
-1.0658e-14
1.48201e-13
1.35097e-09
-5.85871e-13
7.12567e-13
1.47619e-12
-1.33955e-12
3.54564e-09
-1.84324e-07
-6.73568e-08
1.90922e-07
5.91035e-08
1.04547e-09
2.40287e-10
3.75224e-10
2.03921e-09
-2.45836e-10
-3.81491e-09
-1.35842e-09
3.15708e-11
8.61652e-10
-2.85927e-09
1.87599e-09
-1.04428e-09
1.16591e-09
-2.26798e-09
5.75687e-09
1.40937e-08
1.82884e-09
-1.94114e-08
1.88072e-09
6.33454e-09
3.72603e-11
7.54717e-10
-9.00724e-09
-2.14972e-09
-3.89854e-10
-1.91931e-09
1.44527e-08
-9.99385e-09
3.75263e-12
8.30633e-10
-1.19122e-10
3.55833e-11
-7.50842e-10
-3.22713e-11
-2.30006e-11
1.81192e-10
2.42519e-11
-5.82212e-12
-2.97056e-11
-6.09135e-11
-5.37305e-11
1.2657e-09
-6.84162e-12
-2.38502e-11
-2.28404e-10
-2.18297e-10
-3.84686e-10
-3.5809e-10
1.29509e-09
-7.67378e-12
-1.70998e-12
1.31357e-09
-8.69053e-12
2.97879e-13
1.326e-09
-7.06755e-12
-9.02742e-15
1.33408e-09
-4.74394e-12
-8.62749e-14
1.33915e-09
-2.64984e-12
-3.7854e-13
1.34252e-09
-2.47565e-12
-6.69014e-14
1.34481e-09
-1.7826e-12
-2.57931e-14
1.34607e-09
-2.95938e-13
7.08353e-13
1.34694e-09
-1.15068e-12
3.37155e-13
1.34723e-09
-1.24453e-12
9.39606e-13
1.34893e-09
-3.99036e-13
1.62276e-13
1.34869e-09
2.50961e-13
6.2978e-14
1.34889e-09
2.14588e-13
9.8969e-14
1.34868e-09
1.30571e-13
5.12842e-13
1.3488e-09
3.04905e-13
1.3455e-13
1.35017e-09
-9.32017e-13
-8.78575e-13
1.35015e-09
5.32545e-13
-1.67812e-13
1.34934e-09
2.72366e-13
-1.26794e-12
1.34962e-09
3.88268e-13
-5.48904e-14
1.34964e-09
1.61002e-13
-5.82777e-14
1.34942e-09
-3.95342e-13
1.71326e-12
1.34923e-09
3.26061e-13
2.23395e-13
1.34968e-09
2.56696e-13
-1.48565e-12
1.3499e-09
5.47083e-13
-1.56137e-12
1.35108e-09
-3.70709e-12
2.22787e-12
1.35129e-09
-2.7096e-12
2.69023e-12
1.35058e-09
9.14717e-13
-1.52679e-15
1.35066e-09
-3.66231e-13
3.96917e-13
1.35115e-09
1.9499e-14
4.2408e-14
1.35145e-09
3.074e-14
5.63096e-13
1.34951e-09
-1.04732e-12
-1.05703e-12
1.35005e-09
1.84655e-13
-4.84635e-14
1.35036e-09
-5.77485e-14
-7.65929e-14
1.34999e-09
2.14888e-13
1.59658e-13
1.35072e-09
9.82656e-13
5.89408e-13
1.35183e-09
1.08135e-13
1.0526e-12
1.35131e-09
6.45487e-14
-9.89641e-14
1.35057e-09
4.59924e-13
2.40767e-13
1.35193e-09
-2.26905e-12
5.68985e-13
1.35131e-09
6.24667e-13
1.06385e-15
1.35137e-09
2.82939e-13
-9.17489e-13
-1.6079e-13
1.40962e-12
9.66418e-10
-6.97055e-09
8.47127e-09
-2.44218e-09
-3.02697e-10
-4.03407e-09
-1.46355e-09
-2.77842e-09
8.57874e-09
-6.15719e-11
-7.30061e-10
-1.60908e-09
1.04865e-09
1.35206e-09
2.09739e-09
5.01961e-10
4.96566e-09
-1.42415e-09
-6.14087e-09
4.53196e-09
-7.5222e-10
-1.84656e-09
4.15766e-10
9.76328e-09
-4.46604e-09
-2.23214e-08
1.47131e-08
-2.44043e-10
-3.67383e-10
6.49177e-10
4.09793e-10
-4.47535e-10
-2.12348e-11
-3.02363e-12
-3.22213e-12
1.19449e-11
1.55353e-11
1.23495e-09
-1.36854e-10
-2.00433e-11
-2.01456e-10
-2.09144e-10
-3.3244e-10
-3.41874e-10
1.28339e-09
-5.59804e-11
-1.85389e-13
1.31188e-09
-3.78874e-11
6.54084e-13
1.32678e-09
-2.21376e-11
1.17393e-13
1.33559e-09
-1.38314e-11
2.2071e-13
1.34109e-09
-8.60299e-12
4.17331e-13
1.34398e-09
-5.44955e-12
7.54977e-14
1.34558e-09
-3.40391e-12
2.38138e-14
1.34737e-09
-2.11555e-12
5.02897e-14
1.34782e-09
-1.20023e-12
-3.70997e-13
1.34861e-09
-3.39319e-12
1.39673e-12
1.34801e-09
2.69725e-13
-3.11237e-14
1.34887e-09
-5.01856e-13
-4.93031e-14
1.34893e-09
5.62704e-14
1.4851e-13
1.34938e-09
-2.33291e-13
-1.81151e-14
1.35005e-09
2.46607e-13
-5.52057e-13
1.34862e-09
-1.96296e-13
7.63594e-13
1.3488e-09
-8.50686e-13
1.28054e-12
1.3492e-09
-3.35385e-13
2.8411e-13
1.349e-09
1.6248e-14
6.47839e-13
1.34911e-09
-9.113e-14
2.28006e-13
1.34964e-09
4.16161e-13
-1.26251e-12
1.35063e-09
1.02547e-12
-1.61922e-12
1.35043e-09
4.94731e-13
4.25482e-14
1.35146e-09
6.91764e-13
-1.09481e-12
1.35004e-09
-2.27573e-14
-2.18733e-12
1.34979e-09
1.32214e-13
-2.5194e-12
1.35048e-09
5.26951e-13
-2.31357e-13
1.3507e-09
-1.08407e-13
-4.11432e-13
1.35091e-09
-3.62642e-15
-1.21753e-13
1.35081e-09
-7.80567e-14
2.79215e-13
1.35045e-09
-2.80264e-13
-3.47774e-13
1.35036e-09
-1.18188e-13
4.49137e-13
1.35023e-09
1.56228e-13
-4.04771e-14
1.35024e-09
3.42222e-13
-8.24165e-14
1.35042e-09
5.71073e-13
2.7507e-13
1.35237e-09
-1.82202e-12
1.66418e-14
1.35184e-09
4.81742e-13
1.49591e-13
1.35188e-09
1.00212e-12
-5.59535e-13
1.35059e-09
-3.86055e-13
-5.61227e-13
1.35074e-09
5.76663e-13
-8.66843e-14
1.35069e-09
2.44566e-13
1.01429e-13
-1.70298e-12
7.31121e-13
-2.81736e-10
3.36494e-09
-4.40632e-12
-3.05384e-09
-4.32704e-09
-4.2188e-09
-3.70786e-10
-1.05066e-08
-2.62785e-08
6.35424e-08
-3.37358e-09
-7.18553e-10
1.47144e-10
8.42366e-10
-2.23194e-09
-4.19675e-09
-1.75278e-09
-3.40773e-09
-3.14461e-10
1.20355e-10
-2.95131e-09
-2.55536e-09
-8.53339e-10
-2.15726e-11
-1.41627e-09
4.84654e-09
9.97748e-11
-4.51826e-09
-1.38014e-09
4.74744e-09
1.05119e-09
2.43122e-09
3.70178e-09
5.59877e-09
2.45888e-09
-6.17716e-08
9.22082e-08
-2.29564e-08
-2.16679e-08
6.72318e-10
-8.42804e-10
-2.58428e-11
-3.14366e-10
5.10693e-10
-1.57686e-10
2.10741e-11
-9.59098e-12
9.98944e-11
4.63081e-11
1.3396e-09
-2.67609e-11
-3.61996e-11
-2.42079e-10
-2.37686e-10
-4.02552e-10
-4.05062e-10
-2.9089e-11
-4.62776e-11
-5.07729e-11
1.33332e-09
-4.86845e-11
-1.066e-12
1.33903e-09
-4.33146e-11
-3.45697e-13
1.34234e-09
-2.54702e-11
-3.46165e-14
1.34466e-09
-1.61959e-11
8.51281e-15
1.34635e-09
-1.03429e-11
2.80307e-14
1.3473e-09
-6.40178e-12
-2.08488e-15
1.34783e-09
-3.91283e-12
-1.44519e-14
1.34813e-09
-2.36406e-12
-2.35201e-14
1.34852e-09
-1.53825e-12
-2.59967e-14
1.3484e-09
-9.24954e-13
-2.30397e-12
1.34912e-09
-4.82317e-13
7.50519e-14
1.34885e-09
-1.9936e-13
1.50654e-14
1.34934e-09
-1.01003e-13
-2.71796e-13
1.34923e-09
-1.56992e-14
-4.69444e-14
1.34908e-09
1.46997e-12
-1.00856e-12
1.34943e-09
-7.73548e-13
3.00094e-13
1.34991e-09
1.09925e-13
-1.36336e-12
1.34936e-09
-4.13192e-13
7.01211e-13
1.34953e-09
-1.08256e-13
3.01812e-14
1.34986e-09
7.99563e-13
-1.14006e-12
1.35061e-09
1.34191e-12
-1.60234e-12
1.34976e-09
2.16011e-13
1.7425e-12
1.34993e-09
5.4145e-13
-1.38484e-13
1.34989e-09
4.22726e-13
3.84826e-13
1.35008e-09
-1.27321e-13
-1.04188e-14
1.35027e-09
7.57304e-14
-5.62804e-14
1.35062e-09
6.45526e-13
-4.01127e-13
1.35052e-09
2.50213e-14
3.7858e-14
1.35079e-09
-1.75382e-13
-3.37787e-14
1.35081e-09
2.29947e-13
-2.65756e-13
1.35053e-09
-4.56276e-13
5.16277e-13
1.35067e-09
-5.89636e-13
3.88873e-13
1.35084e-09
-1.59409e-13
1.95743e-13
1.35111e-09
-8.63783e-13
9.90635e-13
1.35135e-09
6.66207e-13
-2.98846e-13
1.35067e-09
-1.50786e-12
4.10992e-13
1.35129e-09
3.12012e-13
-4.22027e-13
1.35168e-09
8.61365e-14
5.59985e-13
1.35137e-09
1.09216e-12
-1.14409e-12
1.35033e-09
1.62076e-12
8.82235e-15
1.35064e-09
-1.84383e-14
-3.66584e-14
-1.93579e-12
4.62071e-13
2.15698e-09
4.13935e-10
-1.96462e-09
-4.15343e-10
-7.54825e-09
1.19546e-09
-4.27083e-09
5.9648e-09
4.65882e-09
1.65918e-09
6.4579e-10
-1.68154e-09
-4.84011e-10
-1.39425e-10
3.77927e-09
-2.37996e-09
-2.94769e-09
-1.13774e-09
-1.0162e-09
-1.70816e-08
2.54487e-08
-5.01342e-09
1.84808e-10
-4.46028e-09
1.2897e-09
4.61186e-10
1.95273e-09
9.13677e-10
-3.58712e-09
-2.36552e-09
6.6096e-09
7.82798e-09
-1.11162e-07
3.71749e-08
5.08651e-08
1.46444e-08
-3.11535e-10
-7.5114e-10
-1.87217e-10
-4.22011e-10
1.67189e-09
-8.05921e-11
1.84848e-11
-1.39554e-11
-5.48372e-11
1.309e-10
-2.06531e-10
2.0559e-10
-1.41687e-11
-1.16545e-11
1.37094e-09
-5.77372e-11
-2.66171e-11
-2.493e-10
-2.52873e-10
-4.13834e-10
-4.19287e-10
1.36316e-09
-3.38457e-11
-1.73873e-12
1.35863e-09
-2.13338e-11
3.56722e-13
1.35436e-09
-1.20615e-11
1.04224e-13
1.35339e-09
-1.01498e-11
7.6655e-13
1.35193e-09
-4.95072e-12
1.22397e-14
1.35053e-09
-2.53533e-12
3.88259e-14
1.34964e-09
-2.44863e-12
9.98514e-13
1.34939e-09
-1.2473e-12
-5.66145e-16
1.34909e-09
-5.78793e-13
-1.51044e-14
1.34917e-09
-3.25101e-13
-1.88231e-13
1.34927e-09
-2.04518e-13
-4.45879e-14
1.34931e-09
-5.06777e-14
-2.67381e-14
1.3493e-09
-1.55318e-14
6.81226e-14
1.3495e-09
4.45266e-14
1.29073e-12
1.34944e-09
-2.36555e-13
-4.06422e-13
1.34945e-09
2.16469e-13
-4.14673e-14
1.35013e-09
-6.46043e-14
-9.58948e-13
1.35018e-09
-4.14803e-14
-3.13403e-14
1.35009e-09
9.96119e-14
8.67907e-13
1.34947e-09
1.78143e-13
1.85997e-12
1.34958e-09
3.75431e-13
-1.89606e-13
1.35037e-09
-5.6371e-14
-1.13593e-13
1.34983e-09
1.62559e-12
-5.85222e-13
1.35013e-09
-1.75177e-13
-1.80782e-13
1.35043e-09
-1.30545e-13
-2.11023e-14
1.35011e-09
3.15128e-13
7.20374e-13
1.35029e-09
-9.66743e-14
1.3462e-14
1.35028e-09
-7.36611e-14
-2.41398e-14
1.35042e-09
-6.02141e-15
1.57509e-13
1.35063e-09
-1.43441e-13
-4.62635e-13
1.35102e-09
-6.58414e-14
-8.59921e-13
1.35088e-09
2.35667e-13
-2.04786e-13
1.35109e-09
3.30304e-13
-1.35029e-12
1.35149e-09
2.13865e-13
9.64762e-14
1.35085e-09
-4.9406e-13
-3.41488e-13
1.35126e-09
-9.41036e-13
8.79102e-13
1.35177e-09
-4.27673e-13
3.74195e-14
1.35175e-09
-1.38692e-12
2.51707e-12
1.3503e-09
3.24658e-12
-1.51042e-13
1.35055e-09
-7.37851e-13
4.79512e-13
-1.73719e-13
-9.48541e-13
-4.29445e-09
6.07421e-09
-5.35036e-10
-7.779e-10
-1.31239e-10
-1.40235e-09
1.25774e-09
2.06972e-09
-1.2447e-09
-7.80786e-09
5.62708e-09
1.35576e-09
4.13462e-09
-1.69838e-09
8.98489e-10
-3.44389e-08
2.29071e-08
-1.87335e-08
2.92931e-08
1.12667e-09
1.17051e-09
2.56454e-10
-6.23847e-10
-6.5502e-10
-2.3162e-09
-1.31879e-09
8.70339e-09
-5.48805e-09
-4.68437e-09
-6.74741e-10
-3.74743e-08
1.30405e-08
1.65952e-08
1.18628e-08
9.17783e-10
-2.62111e-09
-1.3701e-10
-2.02376e-09
-5.79558e-09
4.61366e-09
-4.73893e-10
3.67957e-09
3.67522e-10
8.89365e-10
3.52161e-10
-5.07486e-10
-1.10154e-09
-3.48917e-11
-6.1064e-12
-1.95483e-11
-6.39044e-11
1.24451e-10
-3.64981e-11
2.14064e-10
-1.68735e-11
-4.90522e-12
1.34456e-11
-3.61601e-11
-6.68822e-11
-6.61898e-11
1.40745e-09
-4.72859e-11
-2.74367e-11
-2.59983e-10
-2.61368e-10
-4.30604e-10
-4.38527e-10
1.3871e-09
-1.15882e-11
-1.96187e-12
1.373e-09
-7.6644e-12
3.92925e-13
1.36477e-09
-3.53142e-12
-3.25811e-13
1.35777e-09
-2.31642e-12
-8.4002e-13
1.35409e-09
-1.25371e-12
-1.1153e-14
1.3523e-09
-6.54966e-13
-7.55536e-14
1.3513e-09
-3.76148e-13
-1.0432e-12
1.35035e-09
-2.72647e-13
1.4002e-14
1.34995e-09
5.31027e-13
-6.72331e-13
1.34976e-09
-2.91053e-13
2.0286e-13
1.34958e-09
1.55949e-13
-1.32466e-13
1.3494e-09
2.156e-13
-2.76189e-14
1.34946e-09
-8.91325e-14
6.82228e-14
1.3495e-09
1.19564e-13
-4.62971e-14
1.34938e-09
-3.4311e-14
-1.4196e-14
1.34958e-09
1.64653e-14
7.48895e-14
1.34989e-09
4.57313e-13
-7.51196e-13
1.35013e-09
-9.23019e-14
-1.16193e-13
1.35025e-09
2.24501e-13
-1.64591e-13
1.3503e-09
4.10181e-13
-2.00895e-13
1.34891e-09
4.68538e-12
-2.84342e-12
1.34936e-09
-4.70221e-13
4.48572e-14
1.35045e-09
-8.02875e-13
1.41342e-12
1.35013e-09
1.67429e-13
5.66771e-14
1.35004e-09
2.8199e-13
-2.52415e-13
1.35033e-09
-1.64277e-13
2.57557e-13
1.35051e-09
-3.62249e-14
-1.683e-13
1.35056e-09
-1.10333e-13
5.54628e-14
1.35061e-09
-4.05384e-14
4.69263e-14
1.35067e-09
-5.80756e-13
4.31653e-13
1.35123e-09
-6.86326e-13
1.21076e-13
1.35114e-09
2.16661e-13
1.6077e-13
1.35097e-09
5.07669e-13
3.93957e-14
1.35104e-09
2.71324e-13
-8.3925e-14
1.35054e-09
1.00816e-13
-6.07145e-14
1.35043e-09
-1.11619e-13
-6.81767e-13
1.35031e-09
-1.73993e-13
-1.06274e-13
1.35033e-09
1.31306e-12
-2.69096e-12
1.35239e-09
1.0839e-12
1.16638e-13
1.35182e-09
-7.54879e-13
6.01071e-13
-8.50009e-13
1.79141e-12
3.22203e-10
1.8649e-09
-1.53927e-09
-6.22871e-10
1.03334e-08
8.56169e-10
-2.14724e-08
6.4448e-10
3.65367e-09
1.02338e-10
3.69748e-09
2.18485e-09
2.10827e-09
-5.32115e-10
4.73772e-09
-5.99237e-09
-3.21491e-10
-1.85432e-09
-7.63537e-10
-1.77462e-09
5.28492e-09
-8.92441e-10
-2.86411e-09
7.57387e-10
1.345e-08
-5.80202e-09
-2.22011e-09
-3.51432e-10
-1.79007e-09
-1.1797e-09
1.3363e-09
1.12459e-09
1.45494e-09
1.85556e-09
-5.77139e-09
-1.00696e-10
9.87865e-12
-3.56866e-12
-2.94964e-11
1.23882e-10
1.54308e-09
1.35461e-10
-3.99721e-11
-3.02876e-10
-3.03122e-10
-5.23468e-10
-5.15908e-10
2.82754e-12
-5.21881e-12
1.33264e-11
-4.12533e-12
1.44664e-09
5.21545e-11
-3.07491e-12
1.40436e-09
3.11856e-11
-5.70034e-13
1.38052e-09
1.64401e-11
-3.31654e-13
1.36755e-09
9.48654e-12
-8.93913e-14
1.35993e-09
5.33482e-12
-4.53757e-14
1.35554e-09
3.14251e-12
-2.05885e-15
1.3529e-09
1.94387e-12
5.60073e-14
1.35141e-09
1.1502e-12
-1.48375e-14
1.35059e-09
6.13751e-13
-3.8423e-14
1.34969e-09
8.32035e-13
6.45197e-13
1.34987e-09
-4.9314e-13
6.6849e-14
1.34961e-09
5.03143e-13
-4.12158e-14
1.34958e-09
3.03204e-13
-5.86248e-16
1.34957e-09
9.23703e-14
-1.09171e-13
1.34958e-09
2.02037e-13
-2.62222e-14
1.34959e-09
4.8631e-14
-2.16199e-14
1.34938e-09
5.27566e-13
-2.27435e-13
1.34943e-09
-2.22863e-13
7.07152e-13
1.34962e-09
-1.97789e-13
-1.22853e-14
1.35007e-09
-3.10051e-13
1.67247e-13
1.34868e-09
4.30961e-12
-2.42863e-12
1.35037e-09
6.39385e-13
2.43306e-12
1.35036e-09
-3.91456e-13
1.35848e-14
1.35009e-09
-1.60052e-13
-3.02114e-13
1.35014e-09
1.31139e-13
6.75482e-14
1.35021e-09
1.4744e-13
1.38136e-13
1.35042e-09
6.73133e-14
-3.75961e-13
1.35087e-09
-3.50932e-13
-6.10349e-14
1.35079e-09
3.0916e-14
2.43824e-15
1.35068e-09
1.41063e-12
-1.27789e-12
1.3506e-09
-2.49785e-14
-4.20139e-13
1.35097e-09
-1.35186e-12
3.50292e-13
1.35138e-09
-6.88676e-14
-6.63913e-14
1.3508e-09
5.41256e-13
5.92172e-13
1.3508e-09
2.27516e-13
8.47298e-14
1.35038e-09
4.18768e-13
1.40926e-13
1.35053e-09
-2.76045e-13
4.72051e-14
1.3504e-09
-1.53708e-14
1.94712e-15
1.35084e-09
-8.20447e-13
1.71506e-12
1.35123e-09
6.60659e-13
5.55752e-14
1.35165e-09
-5.76354e-15
-1.1612e-12
-2.16755e-13
-1.25712e-12
1.21041e-09
1.021e-10
3.3971e-09
-8.39422e-10
-8.40302e-10
-1.32626e-09
-1.51266e-09
-6.128e-10
-5.06475e-10
2.55574e-09
7.46685e-09
-8.90331e-09
-5.50685e-09
-3.05895e-09
-4.89024e-09
-4.34992e-09
-2.40245e-09
-4.90135e-09
-1.56741e-08
-5.51727e-10
-3.15928e-09
1.13107e-09
-1.72959e-07
-6.29292e-08
7.40679e-08
2.05183e-07
5.30793e-09
1.85383e-09
-2.54061e-09
3.77649e-10
-4.9988e-09
6.53579e-10
-1.26878e-09
-1.27835e-09
-2.28122e-09
4.17476e-09
8.86118e-10
-3.36609e-09
4.44085e-10
-4.89444e-10
2.52533e-09
-2.00026e-10
-1.67908e-11
2.47796e-11
1.44849e-10
4.71881e-11
1.42225e-09
1.47742e-10
-3.04341e-11
-2.70897e-10
-2.50526e-10
-4.56745e-10
-4.25964e-10
1.39365e-09
8.14476e-11
-7.9754e-13
1.3779e-09
4.66103e-11
2.2787e-13
1.36726e-09
2.70087e-11
7.32967e-15
1.36053e-09
1.61744e-11
-1.07959e-14
1.3561e-09
9.7783e-12
-2.85108e-14
1.3534e-09
5.88195e-12
-4.9074e-14
1.35178e-09
3.63321e-12
-6.67813e-14
1.35067e-09
2.28133e-12
3.77184e-15
1.35001e-09
5.29897e-13
7.71833e-13
1.34986e-09
-1.1995e-13
1.13774e-12
1.34945e-09
-4.98369e-13
4.57661e-13
1.34973e-09
1.46049e-13
1.27835e-13
1.34961e-09
4.20336e-13
6.07614e-14
1.34958e-09
2.98072e-13
-1.13741e-13
1.34951e-09
1.04911e-12
-7.15979e-13
1.35009e-09
-4.79095e-13
1.71171e-14
1.34855e-09
-2.03119e-12
4.17325e-12
1.34922e-09
-6.43243e-13
-1.68781e-13
1.34923e-09
-1.2402e-13
-7.5031e-15
1.34853e-09
1.13319e-12
-6.68635e-13
1.35003e-09
3.78377e-13
2.51156e-12
1.35018e-09
5.84468e-13
-1.05783e-14
1.35105e-09
-3.04809e-12
1.85927e-12
1.35086e-09
4.21689e-14
6.80446e-14
1.35e-09
1.33032e-12
-2.61965e-13
1.3503e-09
-1.09083e-13
3.16968e-14
1.35087e-09
-2.92561e-13
-1.44764e-13
1.35017e-09
8.88426e-13
-4.67341e-13
1.35048e-09
-1.90342e-13
-2.00667e-14
1.35071e-09
4.79212e-13
7.59704e-13
1.35107e-09
-2.5804e-13
-6.59747e-14
1.3507e-09
-3.63632e-13
-5.59428e-13
1.35037e-09
6.54907e-14
2.44671e-13
1.35096e-09
5.72069e-13
-5.73086e-13
1.35061e-09
1.86847e-13
4.31495e-13
1.35105e-09
2.12627e-13
-1.92087e-13
1.35078e-09
3.84547e-14
-1.59895e-14
1.35034e-09
4.30721e-13
2.87104e-14
1.35089e-09
-1.16188e-12
-1.82707e-13
1.35075e-09
5.59233e-13
2.53642e-13
1.35207e-09
-3.06504e-12
1.74967e-12
-3.56047e-13
-5.06513e-13
-1.61241e-09
-4.16256e-09
3.29172e-09
2.67423e-09
1.16499e-08
3.17049e-09
-2.14136e-08
2.43479e-09
4.15836e-09
7.7778e-10
2.0537e-09
1.75321e-09
-6.79455e-09
-3.3323e-10
1.065e-09
1.33269e-09
1.45411e-10
4.07418e-09
-1.75469e-09
1.6703e-09
-2.54926e-09
-2.86739e-09
-2.652e-09
-1.43243e-08
5.45756e-09
2.17478e-08
-6.79338e-09
5.21372e-10
-1.27294e-09
2.18839e-10
-1.48041e-09
-1.63351e-10
-5.78427e-10
7.34924e-10
-2.37728e-10
2.44583e-10
8.3945e-11
-1.46618e-10
-5.22824e-10
-3.15001e-10
9.00498e-10
-2.69164e-11
-1.0456e-11
8.15756e-12
1.2077e-11
1.71378e-11
1.28587e-09
5.36395e-11
-2.3236e-11
-2.20914e-10
-2.12513e-10
-3.82625e-10
-3.5252e-10
1.32628e-09
4.06321e-11
3.07399e-13
1.34157e-09
3.06058e-11
6.35685e-13
1.34736e-09
2.09821e-11
1.81268e-13
1.34913e-09
1.43152e-11
5.08492e-14
1.34936e-09
9.64896e-12
-1.29866e-13
1.34948e-09
5.70174e-12
3.03182e-14
1.3492e-09
3.89768e-12
1.79386e-14
1.34968e-09
1.03996e-12
7.70908e-13
1.34942e-09
1.57883e-12
-7.62429e-13
1.34929e-09
1.15125e-12
-1.10107e-12
1.34897e-09
3.69705e-13
-5.11235e-13
1.34907e-09
4.73028e-13
-3.72528e-13
1.34882e-09
7.91229e-13
-6.76459e-14
1.34887e-09
1.83411e-13
1.32226e-13
1.34904e-09
2.3069e-13
7.07957e-13
1.34837e-09
3.33215e-13
-6.76117e-14
1.35033e-09
2.25556e-13
-4.14883e-12
1.34996e-09
-2.20344e-13
2.75363e-14
1.34949e-09
-2.93565e-13
7.2018e-13
1.35014e-09
4.31597e-14
5.17388e-13
1.35047e-09
-7.9306e-13
9.20043e-13
1.35036e-09
2.43915e-13
5.25401e-13
1.34962e-09
-3.1425e-13
-1.90952e-12
1.3497e-09
2.15908e-13
-1.76763e-13
1.35064e-09
1.21556e-12
-7.4611e-13
1.35031e-09
1.22489e-13
1.67144e-13
1.35011e-09
6.21357e-14
-7.95478e-14
1.35055e-09
8.8277e-14
4.23391e-13
1.35044e-09
-1.7311e-13
1.56614e-13
1.35101e-09
-4.68239e-13
4.47775e-13
1.35075e-09
7.59427e-13
-7.04802e-13
1.35092e-09
-4.02804e-13
-6.65111e-14
1.35141e-09
-3.77129e-13
5.05783e-15
1.35099e-09
2.23821e-12
-1.20643e-12
1.35043e-09
1.78626e-12
-9.91904e-13
1.35048e-09
1.72952e-13
3.12728e-14
1.35121e-09
-1.06591e-12
4.07665e-13
1.35168e-09
-2.46084e-13
2.35802e-13
1.35049e-09
5.27689e-13
-4.73892e-13
1.35089e-09
3.00457e-13
-1.30684e-13
1.35053e-09
6.62353e-13
-3.35458e-12
-2.4085e-12
9.9192e-14
-1.62801e-09
-1.69066e-09
7.33732e-09
-3.82767e-09
-1.56673e-09
1.67395e-09
-7.52099e-09
1.5271e-10
7.26106e-09
-4.94452e-10
-3.33778e-10
-3.96315e-10
-8.31138e-10
2.05569e-09
3.36607e-09
-1.73371e-10
2.08276e-09
-2.68337e-09
-2.59208e-09
-3.83431e-09
7.86515e-09
-5.05164e-09
3.62128e-11
-2.1213e-11
7.42161e-10
-1.69135e-09
1.955e-09
2.00478e-10
-5.653e-10
1.36573e-10
7.00487e-12
2.21244e-10
-3.03459e-11
1.81327e-12
1.6636e-10
-2.07546e-11
3.51857e-12
-2.51282e-11
-5.40047e-11
-4.14578e-11
1.2949e-09
-2.24074e-11
-2.23005e-10
-2.37996e-10
-3.71123e-10
-4.0173e-10
1.31651e-09
-1.60444e-12
1.32875e-09
1.51739e-13
1.33699e-09
5.55377e-14
1.34112e-09
2.20338e-13
1.34318e-09
1.5778e-13
1.34645e-09
6.56052e-13
1.34795e-09
-8.21596e-14
1.34779e-09
-1.07634e-12
1.3483e-09
-3.11058e-14
1.34877e-09
-1.00521e-14
1.34967e-09
-3.46399e-14
1.34886e-09
-1.15867e-12
1.3477e-09
4.12018e-13
1.34856e-09
-2.12631e-14
1.34881e-09
-2.98197e-14
1.34933e-09
3.02211e-14
1.34918e-09
1.43996e-13
1.34961e-09
9.81781e-13
1.34985e-09
-6.27262e-13
1.34987e-09
8.55578e-14
1.35037e-09
1.14815e-12
1.35049e-09
-5.51509e-13
1.35022e-09
-2.27473e-12
1.3494e-09
-1.36981e-12
1.35005e-09
1.02062e-12
1.34999e-09
6.46026e-13
1.35001e-09
1.92948e-13
1.35048e-09
1.13747e-12
1.35067e-09
1.39616e-12
1.35052e-09
-5.07335e-15
1.35121e-09
7.34622e-13
1.35093e-09
1.51e-13
1.35091e-09
-2.06316e-13
1.35195e-09
1.36781e-12
1.35064e-09
5.97832e-14
1.35103e-09
-2.48071e-14
1.3507e-09
-4.10768e-13
1.3511e-09
-7.35693e-13
1.35145e-09
2.19166e-13
1.35195e-09
-2.43648e-13
1.35098e-09
1.83059e-12
-5.14944e-14
-3.66589e-08
6.45579e-09
2.8758e-08
-1.50745e-09
2.39724e-08
1.90851e-09
8.23337e-10
-2.40766e-08
-1.71483e-09
3.3937e-09
8.6953e-09
-3.62573e-09
-7.50896e-09
1.91747e-09
6.68391e-10
2.17074e-09
-1.46637e-09
-5.48186e-10
-1.35318e-09
-2.63609e-08
2.03996e-09
-1.8531e-09
1.19916e-09
2.66275e-08
2.43027e-09
6.07934e-10
1.1921e-10
-4.53322e-10
-3.04172e-09
-1.5914e-10
4.04649e-12
6.06772e-10
3.30219e-11
-1.13346e-13
-1.70105e-10
-1.6516e-10
-1.76363e-10
2.19611e-09
7.9268e-11
3.02921e-11
-5.81025e-10
-5.68185e-10
-5.8103e-10
-5.68182e-10
2.19389e-09
3.78835e-11
1.9475e-12
2.20629e-09
2.03402e-11
9.05894e-15
2.2173e-09
1.14386e-11
2.79699e-14
2.22775e-09
7.05889e-12
-5.42209e-13
2.23587e-09
4.43305e-12
-5.54548e-13
2.2383e-09
2.12775e-12
1.94287e-13
2.24119e-09
1.2792e-12
1.67244e-13
2.24292e-09
4.39166e-13
7.29809e-13
2.24473e-09
2.69173e-13
-5.16322e-14
2.24597e-09
-1.37022e-13
1.56702e-13
2.24402e-09
1.30854e-12
1.29087e-13
2.24567e-09
8.05937e-14
1.75218e-12
2.24806e-09
6.50465e-13
1.51369e-13
2.2477e-09
-1.34561e-12
3.41823e-13
2.24721e-09
8.14117e-13
-1.18902e-13
2.24768e-09
-4.13867e-14
-2.40958e-13
2.24793e-09
6.01725e-13
-5.79739e-14
2.24813e-09
1.11039e-12
-1.99587e-14
2.2489e-09
-6.56907e-13
-3.27226e-13
2.24923e-09
5.52225e-14
-9.82451e-14
2.24822e-09
-1.18851e-12
2.33937e-13
2.24883e-09
-6.85943e-13
1.01759e-12
2.24806e-09
4.681e-12
-1.00288e-12
2.24869e-09
4.17431e-12
-2.98382e-12
2.24904e-09
-4.41007e-13
-2.66708e-13
2.25028e-09
-6.66741e-13
-3.25327e-13
2.25019e-09
3.00177e-13
3.7869e-14
2.24949e-09
1.6224e-13
5.15841e-13
2.24844e-09
4.35553e-13
-2.80765e-13
2.24832e-09
-1.63214e-12
9.08785e-13
2.2516e-09
-5.33974e-13
-2.0971e-12
2.2507e-09
1.03736e-12
-1.64211e-13
2.25036e-09
3.21552e-13
3.09307e-14
2.25071e-09
-7.43002e-14
-8.39845e-14
2.25236e-09
1.69211e-12
-1.1001e-13
2.25039e-09
3.50957e-12
-2.73279e-12
2.25078e-09
-4.03824e-13
-2.0175e-13
2.25057e-09
-8.1536e-13
-2.11478e-13
2.25113e-09
-4.84076e-13
-5.04974e-14
2.25105e-09
-4.71637e-14
2.0006e-13
2.25038e-09
5.43682e-13
7.23137e-13
-6.72705e-13
-5.02075e-13
3.95916e-09
1.83031e-07
-9.85959e-10
-1.81649e-07
-4.20906e-09
1.70432e-09
9.0935e-10
-8.11505e-09
-1.71967e-09
7.17354e-09
4.75088e-11
1.24947e-09
-5.15161e-09
6.09948e-08
-1.26092e-09
-5.67091e-08
8.77305e-10
1.96579e-10
3.18201e-09
7.03084e-09
1.85043e-08
1.55663e-09
8.24772e-11
5.95482e-10
-2.27468e-08
-5.46579e-09
1.53401e-08
-1.94634e-08
-1.47458e-10
-3.56069e-10
8.90712e-10
8.00485e-10
5.06452e-08
-6.32174e-10
7.1793e-11
2.30495e-09
2.19823e-09
-5.4588e-08
2.30011e-09
3.24059e-11
4.03626e-10
2.23165e-11
-3.73863e-10
-2.38459e-09
-1.41778e-10
5.91755e-12
-6.4997e-11
5.44754e-10
-4.24278e-12
-1.27443e-10
-1.46737e-10
-1.30856e-10
1.15144e-11
1.12366e-11
2.12778e-11
2.13545e-11
2.11907e-09
8.49106e-13
1.96852e-11
-5.36983e-10
-5.04456e-10
-5.36982e-10
-5.05861e-10
2.15864e-09
-5.13106e-12
1.63478e-12
2.1893e-09
-9.87542e-12
-2.64896e-13
2.20925e-09
-8.64606e-12
2.19187e-14
2.22253e-09
-6.4798e-12
7.76672e-14
2.23093e-09
-4.76425e-12
3.51567e-13
2.23648e-09
-3.54801e-12
3.15178e-14
2.24023e-09
-2.46008e-12
-2.05627e-14
2.24244e-09
-5.20931e-13
-4.93435e-13
2.24391e-09
-1.02651e-12
2.39084e-13
2.24445e-09
1.38599e-12
-1.03576e-12
2.24672e-09
-6.51264e-13
-3.95756e-14
2.24659e-09
4.25212e-13
-3.60611e-14
2.24693e-09
6.02717e-14
4.8639e-13
2.24649e-09
3.29088e-13
-5.79501e-13
2.24711e-09
6.37049e-13
-1.53747e-13
2.24913e-09
-2.91138e-12
1.24625e-13
2.24887e-09
7.78376e-13
8.58994e-14
2.24767e-09
3.53524e-13
8.6189e-13
2.2481e-09
-2.01391e-12
1.04871e-12
2.24826e-09
-2.85188e-14
3.9528e-14
2.24764e-09
3.26631e-12
-1.9386e-12
2.24739e-09
4.56895e-13
-4.94883e-13
2.24851e-09
5.06063e-13
1.73902e-12
2.24889e-09
8.41227e-13
1.56631e-12
2.25064e-09
-2.72742e-12
2.93049e-12
2.25103e-09
1.14578e-12
6.48492e-13
2.24998e-09
1.31105e-12
1.92273e-13
2.24995e-09
1.15079e-12
-4.11228e-13
2.25076e-09
9.12031e-14
-2.76794e-13
2.25111e-09
-4.81229e-13
-7.98397e-13
2.2484e-09
-8.45973e-13
2.09044e-12
2.24903e-09
3.67705e-13
1.12662e-13
2.24944e-09
-1.31739e-14
-4.44131e-14
2.24897e-09
2.87916e-13
3.73471e-13
2.25019e-09
1.34141e-12
-1.88737e-13
2.25189e-09
1.6538e-13
2.77534e-12
2.25117e-09
1.87368e-13
1.04297e-13
2.25026e-09
6.4605e-13
-2.52662e-13
2.25189e-09
-1.13337e-12
-3.75238e-13
2.25116e-09
9.72484e-13
-2.51335e-13
2.25109e-09
3.2711e-13
-6.10883e-13
-2.56484e-13
3.12516e-13
1.58055e-10
-4.50985e-08
-7.99349e-09
5.75307e-08
-4.45026e-09
-2.79788e-08
-4.15815e-10
7.49873e-11
-2.07152e-09
-9.73201e-10
3.13643e-08
1.2961e-11
-1.09406e-08
7.15729e-10
1.17909e-08
-1.31385e-09
-2.65164e-10
3.30752e-09
-2.53833e-09
4.17617e-10
-5.55019e-09
1.26972e-09
-6.74235e-11
1.46344e-09
-4.49431e-10
-2.25509e-08
3.81468e-08
2.2028e-08
-3.54722e-08
5.16472e-09
2.10447e-09
-4.52587e-09
1.36576e-09
-9.6011e-10
-3.14899e-09
4.23396e-09
-9.85615e-10
-8.50177e-11
4.46431e-10
1.88341e-09
-5.49315e-09
-5.4406e-11
-1.15912e-11
-8.33888e-12
-1.15822e-11
2.51961e-12
8.33986e-11
2.05721e-09
-2.09307e-10
2.03567e-11
-4.66767e-10
-4.77064e-10
-4.66635e-10
-4.77077e-10
2.13437e-09
-8.28441e-11
2.39885e-13
2.18344e-09
-5.78112e-11
-6.03525e-13
2.20883e-09
-3.39207e-11
-1.16338e-13
2.224e-09
-2.12525e-11
-2.56277e-13
2.23336e-09
-1.33077e-11
-4.40732e-13
2.23838e-09
-8.40818e-12
-9.68022e-14
2.24127e-09
-5.23571e-12
-5.08717e-14
2.24416e-09
-3.23472e-12
-6.99488e-14
2.24501e-09
-1.93053e-12
-2.42163e-13
2.24632e-09
-3.11225e-13
1.86861e-12
2.24565e-09
1.22722e-13
-2.02678e-14
2.24699e-09
-8.35534e-13
-8.03633e-15
2.24715e-09
4.61431e-13
-2.78846e-13
2.24808e-09
-4.60891e-13
-1.60441e-14
2.24843e-09
-2.7965e-13
1.62202e-13
2.2467e-09
3.05171e-13
-5.58772e-13
2.24673e-09
3.42649e-12
-1.22794e-12
2.24741e-09
1.27816e-13
-3.15418e-16
2.247e-09
-5.36887e-14
-7.25657e-13
2.24704e-09
5.76648e-13
-2.45386e-13
2.2484e-09
-4.04865e-13
1.22893e-12
2.24982e-09
-4.03292e-12
1.62486e-12
2.24964e-09
1.04792e-12
-1.39101e-13
2.2514e-09
-2.6639e-12
8.15411e-13
2.24925e-09
2.0609e-13
-2.80606e-12
2.24857e-09
2.89849e-13
-8.21408e-13
2.24961e-09
7.00968e-13
-4.98672e-13
2.25017e-09
-1.13071e-13
4.41138e-13
2.25031e-09
-1.78641e-14
-1.42296e-14
2.2503e-09
-6.48661e-14
1.12414e-14
2.24975e-09
-4.9988e-13
-1.3802e-14
2.24934e-09
1.88037e-12
-5.36376e-13
2.24905e-09
1.54991e-13
1.94439e-13
2.24931e-09
5.72497e-13
-5.27081e-13
2.25009e-09
1.10155e-12
-1.7419e-13
2.25265e-09
-2.41144e-12
1.16757e-13
2.25197e-09
1.23885e-12
-1.55343e-13
2.25202e-09
5.56657e-13
-4.5904e-13
2.25012e-09
-1.00051e-13
3.4804e-13
2.25006e-09
8.93539e-13
9.25987e-14
2.25016e-09
4.17135e-13
-6.80058e-14
-2.343e-12
1.36201e-12
-4.78129e-09
-4.96171e-10
-1.02434e-09
-5.22947e-10
6.97122e-09
-1.8698e-09
2.81867e-08
2.23427e-09
1.82301e-09
2.07802e-10
-3.0582e-08
5.17458e-10
-3.19784e-09
-4.20599e-11
1.03817e-09
-5.53748e-11
1.73964e-09
-1.07415e-09
6.3645e-09
4.984e-09
-1.81107e-08
-1.17589e-09
-1.2208e-09
-6.85509e-10
-6.56227e-10
2.36849e-09
2.47698e-10
6.99485e-09
1.96375e-09
-1.01422e-07
-2.87827e-09
-1.97217e-09
-1.64777e-09
-1.20858e-09
1.09129e-07
-3.12731e-09
-1.85298e-11
7.99655e-10
1.53727e-09
1.09938e-09
-2.90465e-10
-1.3361e-10
-8.68639e-11
3.80611e-11
-2.77916e-11
3.63773e-11
1.73827e-10
2.21512e-09
-6.48848e-11
3.5757e-11
-5.55567e-10
-5.58162e-10
-5.5552e-10
-5.56303e-10
-7.05736e-11
-6.48901e-11
-7.05643e-11
2.21279e-09
-8.28248e-11
1.12327e-12
2.22553e-09
-7.13372e-11
3.1928e-13
2.23317e-09
-4.17136e-11
2.45148e-14
2.2381e-09
-2.62607e-11
2.35847e-14
2.24156e-09
-1.67299e-11
-2.77838e-14
2.24355e-09
-1.03676e-11
-2.55815e-14
2.24472e-09
-6.3577e-12
-1.21693e-14
2.24535e-09
-3.83418e-12
2.63715e-15
2.24612e-09
-2.63115e-12
-1.26321e-14
2.246e-09
-1.40054e-12
-9.98625e-13
2.24727e-09
-8.82141e-13
-8.44854e-14
2.24699e-09
-4.94785e-13
7.37554e-14
2.24769e-09