/*--------------------------------*- C++ -*----------------------------------*\
| =========                 |                                                 |
| \\      /  F ield         | OpenFOAM: The Open Source CFD Toolbox           |
|  \\    /   O peration     | Version:  5.0                                   |
|   \\  /    A nd           | Web:      www.OpenFOAM.org                      |
|    \\/     M anipulation  |                                                 |
\*---------------------------------------------------------------------------*/
FoamFile
{
    version     2.0;
    format      ascii;
    class       volScalarField;
    location    "0.9";
    object      rAU;
}
// * * * * * * * * * * * * * * * * * * * * * * * * * * * * * * * * * * * * * //

dimensions      [-1 3 1 0 0 0 0];

internalField   nonuniform List<scalar> 
10411
(
8.29944e-07
8.63302e-07
8.04105e-07
1.91517e-07
8.14769e-07
3.17328e-07
1.29269e-07
3.92423e-07
3.93665e-07
3.94699e-07
3.95732e-07
3.96764e-07
3.97796e-07
3.98827e-07
3.99857e-07
4.00887e-07
4.01916e-07
4.02945e-07
4.03972e-07
4.04999e-07
4.06025e-07
4.07051e-07
4.08076e-07
4.091e-07
4.10123e-07
4.11146e-07
4.12167e-07
4.13188e-07
4.14209e-07
4.15228e-07
4.16247e-07
4.17265e-07
4.18282e-07
4.19298e-07
4.20314e-07
4.21329e-07
4.22343e-07
4.23356e-07
4.24369e-07
4.2538e-07
4.26391e-07
4.27401e-07
4.2841e-07
4.29419e-07
4.30426e-07
4.31432e-07
4.32438e-07
4.33443e-07
4.34447e-07
4.36223e-07
6.24795e-07
1.70344e-07
8.7997e-07
8.86136e-07
5.85173e-07
6.93836e-07
1.29269e-07
3.92424e-07
3.93666e-07
3.94699e-07
3.95732e-07
3.96764e-07
3.97796e-07
3.98827e-07
3.99857e-07
4.00887e-07
4.01916e-07
4.02945e-07
4.03972e-07
4.04999e-07
4.06025e-07
4.07051e-07
4.08076e-07
4.091e-07
4.10123e-07
4.11146e-07
4.12167e-07
4.13188e-07
4.14209e-07
4.15228e-07
4.16247e-07
4.17265e-07
4.18282e-07
4.19298e-07
4.20314e-07
4.21329e-07
4.22343e-07
4.23356e-07
4.24369e-07
4.2538e-07
4.26391e-07
4.27401e-07
4.2841e-07
4.29419e-07
4.30426e-07
4.31432e-07
4.32438e-07
4.33443e-07
4.34447e-07
4.36223e-07
6.59706e-07
3.65966e-07
1.73553e-07
8.90005e-07
7.99191e-07
6.88439e-07
3.51788e-08
3.92423e-07
3.93665e-07
3.94698e-07
3.95732e-07
3.96764e-07
3.97795e-07
3.98827e-07
3.99857e-07
4.00887e-07
4.01916e-07
4.02945e-07
4.03972e-07
4.04999e-07
4.06025e-07
4.07051e-07
4.08076e-07
4.091e-07
4.10123e-07
4.11146e-07
4.12167e-07
4.13188e-07
4.14209e-07
4.15228e-07
4.16247e-07
4.17265e-07
4.18282e-07
4.19298e-07
4.20314e-07
4.21329e-07
4.22343e-07
4.23356e-07
4.24369e-07
4.2538e-07
4.26391e-07
4.27401e-07
4.2841e-07
4.29419e-07
4.30426e-07
4.31432e-07
4.32438e-07
4.33443e-07
4.34447e-07
4.36223e-07
6.78383e-07
7.92143e-07
6.63027e-07
7.30813e-07
6.73013e-07
6.89362e-07
4.69219e-08
3.92285e-07
3.93663e-07
3.94697e-07
3.95731e-07
3.96763e-07
3.97795e-07
3.98827e-07
3.99857e-07
4.00887e-07
4.01916e-07
4.02945e-07
4.03972e-07
4.04999e-07
4.06025e-07
4.07051e-07
4.08076e-07
4.091e-07
4.10123e-07
4.11146e-07
4.12167e-07
4.13188e-07
4.14209e-07
4.15228e-07
4.16247e-07
4.17265e-07
4.18282e-07
4.19298e-07
4.20314e-07
4.21329e-07
4.22343e-07
4.23356e-07
4.24369e-07
4.2538e-07
4.26391e-07
4.27401e-07
4.2841e-07
4.29419e-07
4.30426e-07
4.31432e-07
4.32438e-07
4.33443e-07
4.34447e-07
4.36223e-07
8.82595e-07
8.59533e-07
6.80799e-07
8.2857e-07
7.3274e-07
6.88744e-07
1.56346e-07
1.29869e-07
3.93452e-07
3.94696e-07
3.9573e-07
3.96763e-07
3.97795e-07
3.98827e-07
3.99857e-07
4.00887e-07
4.01916e-07
4.02945e-07
4.03972e-07
4.04999e-07
4.06025e-07
4.07051e-07
4.08076e-07
4.091e-07
4.10123e-07
4.11146e-07
4.12167e-07
4.13188e-07
4.14209e-07
4.15228e-07
4.16247e-07
4.17265e-07
4.18282e-07
4.19298e-07
4.20314e-07
4.21329e-07
4.22343e-07
4.23356e-07
4.24369e-07
4.2538e-07
4.26391e-07
4.27401e-07
4.2841e-07
4.29419e-07
4.30426e-07
4.31432e-07
4.32438e-07
4.33443e-07
4.34447e-07
4.36223e-07
8.77137e-07
8.8759e-07
8.02412e-07
8.48515e-07
7.77758e-07
6.45102e-07
2.83793e-07
1.2972e-07
3.93451e-07
3.94695e-07
3.9573e-07
3.96763e-07
3.97795e-07
3.98827e-07
3.99857e-07
4.00887e-07
4.01916e-07
4.02945e-07
4.03972e-07
4.04999e-07
4.06025e-07
4.07051e-07
4.08076e-07
4.091e-07
4.10123e-07
4.11146e-07
4.12167e-07
4.13188e-07
4.14209e-07
4.15228e-07
4.16247e-07
4.17265e-07
4.18282e-07
4.19298e-07
4.20314e-07
4.21329e-07
4.22343e-07
4.23356e-07
4.24369e-07
4.2538e-07
4.26391e-07
4.27401e-07
4.2841e-07
4.29419e-07
4.30426e-07
4.31432e-07
4.32438e-07
4.33443e-07
4.34447e-07
4.36223e-07
6.54686e-07
8.83587e-07
6.58753e-07
6.67455e-07
8.74348e-07
4.78085e-07
1.15011e-07
3.92278e-07
3.93658e-07
3.94695e-07
3.9573e-07
3.96763e-07
3.97795e-07
3.98827e-07
3.99857e-07
4.00887e-07
4.01916e-07
4.02945e-07
4.03972e-07
4.04999e-07
4.06025e-07
4.07051e-07
4.08076e-07
4.091e-07
4.10123e-07
4.11146e-07
4.12167e-07
4.13188e-07
4.14209e-07
4.15228e-07
4.16247e-07
4.17265e-07
4.18282e-07
4.19298e-07
4.20314e-07
4.21329e-07
4.22343e-07
4.23356e-07
4.24369e-07
4.2538e-07
4.26391e-07
4.27401e-07
4.2841e-07
4.29419e-07
4.30426e-07
4.31432e-07
4.32438e-07
4.33443e-07
4.34447e-07
4.36223e-07
8.82623e-07
8.77111e-07
6.05855e-07
5.48713e-07
6.48552e-07
6.76846e-07
4.11171e-08
3.92414e-07
3.9366e-07
3.94695e-07
3.9573e-07
3.96763e-07
3.97795e-07
3.98827e-07
3.99857e-07
4.00887e-07
4.01916e-07
4.02945e-07
4.03972e-07
4.04999e-07
4.06025e-07
4.07051e-07
4.08076e-07
4.091e-07
4.10123e-07
4.11146e-07
4.12167e-07
4.13188e-07
4.14209e-07
4.15228e-07
4.16247e-07
4.17265e-07
4.18282e-07
4.19298e-07
4.20314e-07
4.21329e-07
4.22343e-07
4.23356e-07
4.24369e-07
4.2538e-07
4.26391e-07
4.27401e-07
4.2841e-07
4.29419e-07
4.30426e-07
4.31432e-07
4.32438e-07
4.33443e-07
4.34447e-07
4.36223e-07
7.70763e-07
8.22794e-07
8.69441e-07
7.8794e-07
4.99782e-07
5.50332e-07
3.51627e-08
3.92419e-07
3.93662e-07
3.94696e-07
3.9573e-07
3.96763e-07
3.97795e-07
3.98827e-07
3.99857e-07
4.00887e-07
4.01916e-07
4.02945e-07
4.03972e-07
4.04999e-07
4.06025e-07
4.07051e-07
4.08076e-07
4.091e-07
4.10123e-07
4.11146e-07
4.12167e-07
4.13188e-07
4.14209e-07
4.15228e-07
4.16247e-07
4.17265e-07
4.18282e-07
4.19298e-07
4.20314e-07
4.21329e-07
4.22343e-07
4.23356e-07
4.24369e-07
4.2538e-07
4.26391e-07
4.27401e-07
4.2841e-07
4.29419e-07
4.30426e-07
4.31432e-07
4.32438e-07
4.33443e-07
4.34447e-07
4.36223e-07
8.89438e-07
8.62155e-07
6.52069e-07
6.50643e-07
8.60483e-07
6.89957e-07
1.29269e-07
3.92422e-07
3.93664e-07
3.94698e-07
3.95731e-07
3.96764e-07
3.97795e-07
3.98827e-07
3.99857e-07
4.00887e-07
4.01916e-07
4.02945e-07
4.03972e-07
4.04999e-07
4.06025e-07
4.07051e-07
4.08076e-07
4.091e-07
4.10123e-07
4.11146e-07
4.12167e-07
4.13188e-07
4.14209e-07
4.15228e-07
4.16247e-07
4.17265e-07
4.18282e-07
4.19298e-07
4.20314e-07
4.21329e-07
4.22343e-07
4.23356e-07
4.24369e-07
4.2538e-07
4.26391e-07
4.27401e-07
4.2841e-07
4.29419e-07
4.30426e-07
4.31432e-07
4.32438e-07
4.33443e-07
4.34447e-07
4.36223e-07
6.803e-07
5.85568e-07
4.50364e-07
3.92869e-07
7.14799e-07
3.85573e-07
1.83343e-07
5.04904e-07
5.06392e-07
5.07532e-07
5.08669e-07
5.09806e-07
5.10941e-07
5.12074e-07
5.13207e-07
5.14337e-07
5.15466e-07
5.16593e-07
5.17719e-07
5.18843e-07
5.19966e-07
5.21087e-07
5.22206e-07
5.23324e-07
5.2444e-07
5.25554e-07
5.26667e-07
5.27778e-07
5.28887e-07
5.29995e-07
5.31101e-07
5.32205e-07
5.33308e-07
5.3441e-07
5.35509e-07
5.36607e-07
5.37704e-07
5.38798e-07
5.39891e-07
5.40982e-07
5.42071e-07
5.43159e-07
5.44246e-07
5.4533e-07
5.46413e-07
5.47495e-07
5.48574e-07
5.49652e-07
5.50728e-07
5.53043e-07
2.72627e-07
2.9909e-07
5.20058e-07
8.20789e-07
5.89011e-07
7.23205e-07
1.83229e-07
5.04908e-07
5.06394e-07
5.07533e-07
5.08669e-07
5.09806e-07
5.10941e-07
5.12074e-07
5.13207e-07
5.14338e-07
5.15466e-07
5.16593e-07
5.17719e-07
5.18843e-07
5.19966e-07
5.21087e-07
5.22206e-07
5.23323e-07
5.2444e-07
5.25554e-07
5.26667e-07
5.27778e-07
5.28887e-07
5.29995e-07
5.31101e-07
5.32205e-07
5.33308e-07
5.3441e-07
5.35509e-07
5.36607e-07
5.37704e-07
5.38797e-07
5.39891e-07
5.40982e-07
5.42071e-07
5.4316e-07
5.44246e-07
5.4533e-07
5.46413e-07
5.47495e-07
5.48573e-07
5.49652e-07
5.50728e-07
5.53043e-07
4.98862e-07
4.15409e-07
3.09747e-07
8.01333e-07
6.10631e-07
7.08928e-07
5.18039e-08
5.04905e-07
5.06392e-07
5.07531e-07
5.08669e-07
5.09805e-07
5.10941e-07
5.12074e-07
5.13206e-07
5.14337e-07
5.15466e-07
5.16593e-07
5.17719e-07
5.18843e-07
5.19966e-07
5.21087e-07
5.22206e-07
5.23323e-07
5.2444e-07
5.25554e-07
5.26667e-07
5.27778e-07
5.28887e-07
5.29995e-07
5.31101e-07
5.32205e-07
5.33308e-07
5.3441e-07
5.35509e-07
5.36607e-07
5.37704e-07
5.38798e-07
5.39891e-07
5.40982e-07
5.42071e-07
5.4316e-07
5.44246e-07
5.4533e-07
5.46413e-07
5.47495e-07
5.48573e-07
5.49652e-07
5.50728e-07
5.53043e-07
4.94381e-07
6.68363e-07
2.93816e-07
7.69531e-07
3.14013e-07
7.4117e-07
6.91475e-08
5.04672e-07
5.06387e-07
5.07528e-07
5.08666e-07
5.09804e-07
5.1094e-07
5.12073e-07
5.13206e-07
5.14337e-07
5.15466e-07
5.16593e-07
5.17719e-07
5.18843e-07
5.19966e-07
5.21087e-07
5.22206e-07
5.23324e-07
5.2444e-07
5.25553e-07
5.26667e-07
5.27778e-07
5.28887e-07
5.29995e-07
5.31101e-07
5.32205e-07
5.33308e-07
5.3441e-07
5.35509e-07
5.36607e-07
5.37704e-07
5.38798e-07
5.39891e-07
5.40982e-07
5.42071e-07
5.43159e-07
5.44246e-07
5.4533e-07
5.46413e-07
5.47495e-07
5.48573e-07
5.49652e-07
5.50728e-07
5.53043e-07
6.69854e-07
8.42062e-07
7.07093e-07
4.20931e-07
4.07328e-07
6.9919e-07
2.17219e-07
1.84247e-07
5.06035e-07
5.07525e-07
5.08665e-07
5.09803e-07
5.1094e-07
5.12073e-07
5.13206e-07
5.14337e-07
5.15465e-07
5.16593e-07
5.17719e-07
5.18843e-07
5.19966e-07
5.21087e-07
5.22206e-07
5.23324e-07
5.2444e-07
5.25553e-07
5.26667e-07
5.27778e-07
5.28887e-07
5.29995e-07
5.31101e-07
5.32205e-07
5.33308e-07
5.3441e-07
5.35509e-07
5.36607e-07
5.37704e-07
5.38798e-07
5.39891e-07
5.40982e-07
5.42071e-07
5.43159e-07
5.44246e-07
5.4533e-07
5.46413e-07
5.47495e-07
5.48573e-07
5.49652e-07
5.50728e-07
5.53043e-07
8.75901e-07
9.20702e-07
7.02008e-07
6.88348e-07
5.59441e-07
7.21464e-07
3.54403e-07
1.83945e-07
5.06032e-07
5.07524e-07
5.08664e-07
5.09803e-07
5.10939e-07
5.12073e-07
5.13206e-07
5.14337e-07
5.15465e-07
5.16593e-07
5.17719e-07
5.18843e-07
5.19966e-07
5.21087e-07
5.22206e-07
5.23324e-07
5.2444e-07
5.25553e-07
5.26667e-07
5.27778e-07
5.28887e-07
5.29995e-07
5.31102e-07
5.32205e-07
5.33308e-07
5.3441e-07
5.35509e-07
5.36607e-07
5.37704e-07
5.38798e-07
5.39891e-07
5.40982e-07
5.42071e-07
5.43159e-07
5.44246e-07
5.4533e-07
5.46413e-07
5.47495e-07
5.48573e-07
5.49652e-07
5.50728e-07
5.53043e-07
8.20914e-07
3.68359e-07
5.49951e-07
6.24825e-07
5.14479e-07
5.72015e-07
1.63695e-07
5.04654e-07
5.06375e-07
5.07522e-07
5.08663e-07
5.09802e-07
5.10939e-07
5.12073e-07
5.13206e-07
5.14337e-07
5.15465e-07
5.16593e-07
5.17719e-07
5.18843e-07
5.19966e-07
5.21087e-07
5.22206e-07
5.23324e-07
5.2444e-07
5.25554e-07
5.26667e-07
5.27778e-07
5.28887e-07
5.29995e-07
5.31101e-07
5.32205e-07
5.33308e-07
5.3441e-07
5.35509e-07
5.36607e-07
5.37704e-07
5.38798e-07
5.39891e-07
5.40982e-07
5.42071e-07
5.43159e-07
5.44246e-07
5.4533e-07
5.46413e-07
5.47495e-07
5.48574e-07
5.49652e-07
5.50728e-07
5.53043e-07
9.1517e-07
5.56585e-07
2.932e-07
7.10103e-07
7.25388e-07
7.37418e-07
6.07602e-08
5.04881e-07
5.06378e-07
5.07523e-07
5.08664e-07
5.09803e-07
5.10939e-07
5.12073e-07
5.13206e-07
5.14337e-07
5.15465e-07
5.16593e-07
5.17719e-07
5.18843e-07
5.19966e-07
5.21087e-07
5.22205e-07
5.23324e-07
5.2444e-07
5.25554e-07
5.26667e-07
5.27778e-07
5.28887e-07
5.29995e-07
5.31101e-07
5.32205e-07
5.33308e-07
5.3441e-07
5.35509e-07
5.36607e-07
5.37704e-07
5.38798e-07
5.39891e-07
5.40982e-07
5.42071e-07
5.43159e-07
5.44246e-07
5.4533e-07
5.46413e-07
5.47495e-07
5.48574e-07
5.49652e-07
5.50728e-07
5.53043e-07
8.54845e-07
1.62281e-07
4.76111e-07
7.32568e-07
3.28461e-07
7.10661e-07
5.17909e-08
5.04896e-07
5.06385e-07
5.07527e-07
5.08665e-07
5.09803e-07
5.1094e-07
5.12073e-07
5.13206e-07
5.14337e-07
5.15465e-07
5.16593e-07
5.17719e-07
5.18843e-07
5.19966e-07
5.21087e-07
5.22206e-07
5.23324e-07
5.2444e-07
5.25554e-07
5.26667e-07
5.27778e-07
5.28887e-07
5.29995e-07
5.31101e-07
5.32205e-07
5.33308e-07
5.3441e-07
5.35509e-07
5.36607e-07
5.37704e-07
5.38798e-07
5.39891e-07
5.40982e-07
5.42071e-07
5.43159e-07
5.44246e-07
5.4533e-07
5.46413e-07
5.47495e-07
5.48573e-07
5.49652e-07
5.50728e-07
5.53043e-07
9.06448e-07
8.4429e-07
5.84047e-07
3.60146e-07
6.88912e-07
7.51643e-07
1.83346e-07
5.04902e-07
5.06389e-07
5.07529e-07
5.08667e-07
5.09805e-07
5.1094e-07
5.12074e-07
5.13206e-07
5.14337e-07
5.15466e-07
5.16593e-07
5.17719e-07
5.18843e-07
5.19966e-07
5.21087e-07
5.22206e-07
5.23324e-07
5.2444e-07
5.25554e-07
5.26667e-07
5.27778e-07
5.28887e-07
5.29995e-07
5.31101e-07
5.32205e-07
5.33308e-07
5.3441e-07
5.35509e-07
5.36607e-07
5.37704e-07
5.38798e-07
5.39891e-07
5.40982e-07
5.42071e-07
5.43159e-07
5.44246e-07
5.4533e-07
5.46413e-07
5.47495e-07
5.48574e-07
5.49652e-07
5.50728e-07
5.53043e-07
3.73815e-07
4.45688e-07
5.01385e-07
7.2931e-07
6.65364e-07
3.94416e-07
1.83347e-07
3.92423e-07
3.93665e-07
3.94698e-07
3.95732e-07
3.96764e-07
3.97796e-07
3.98827e-07
3.99857e-07
4.00887e-07
4.01916e-07
4.02945e-07
4.03972e-07
4.04999e-07
4.06025e-07
4.07051e-07
4.08076e-07
4.091e-07
4.10123e-07
4.11146e-07
4.12167e-07
4.13188e-07
4.14209e-07
4.15228e-07
4.16247e-07
4.17265e-07
4.18282e-07
4.19298e-07
4.20314e-07
4.21329e-07
4.22343e-07
4.23356e-07
4.24368e-07
4.2538e-07
4.26391e-07
4.27401e-07
4.2841e-07
4.29418e-07
4.30426e-07
4.31432e-07
4.32438e-07
4.33443e-07
4.34447e-07
4.36223e-07
3.28924e-07
4.35682e-07
4.89856e-07
4.33447e-07
8.99781e-07
7.27145e-07
1.83349e-07
3.92424e-07
3.93666e-07
3.94699e-07
3.95732e-07
3.96764e-07
3.97796e-07
3.98827e-07
3.99857e-07
4.00887e-07
4.01916e-07
4.02945e-07
4.03972e-07
4.04999e-07
4.06025e-07
4.07051e-07
4.08076e-07
4.091e-07
4.10123e-07
4.11146e-07
4.12167e-07
4.13188e-07
4.14209e-07
4.15228e-07
4.16247e-07
4.17265e-07
4.18282e-07
4.19298e-07
4.20314e-07
4.21329e-07
4.22343e-07
4.23356e-07
4.24368e-07
4.2538e-07
4.26391e-07
4.27401e-07
4.2841e-07
4.29418e-07
4.30426e-07
4.31432e-07
4.32438e-07
4.33443e-07
4.34447e-07
4.36223e-07
6.87234e-07
7.84833e-07
5.2675e-07
6.82497e-07
4.14731e-07
7.28377e-07
5.18407e-08
3.92423e-07
3.93665e-07
3.94698e-07
3.95732e-07
3.96764e-07
3.97795e-07
3.98827e-07
3.99857e-07
4.00887e-07
4.01916e-07
4.02945e-07
4.03972e-07
4.04999e-07
4.06025e-07
4.07051e-07
4.08076e-07
4.091e-07
4.10123e-07
4.11146e-07
4.12167e-07
4.13188e-07
4.14209e-07
4.15228e-07
4.16247e-07
4.17265e-07
4.18282e-07
4.19298e-07
4.20314e-07
4.21329e-07
4.22343e-07
4.23356e-07
4.24369e-07
4.2538e-07
4.26391e-07
4.27401e-07
4.2841e-07
4.29418e-07
4.30426e-07
4.31432e-07
4.32438e-07
4.33443e-07
4.34447e-07
4.36223e-07
2.39909e-07
7.07336e-07
3.05254e-07
5.51084e-07
3.87365e-07
7.52154e-07
6.91026e-08
3.92285e-07
3.93663e-07
3.94697e-07
3.95731e-07
3.96763e-07
3.97795e-07
3.98827e-07
3.99857e-07
4.00887e-07
4.01916e-07
4.02945e-07
4.03972e-07
4.04999e-07
4.06025e-07
4.07051e-07
4.08076e-07
4.091e-07
4.10123e-07
4.11146e-07
4.12167e-07
4.13188e-07
4.14209e-07
4.15228e-07
4.16247e-07
4.17265e-07
4.18282e-07
4.19298e-07
4.20314e-07
4.21329e-07
4.22343e-07
4.23356e-07
4.24369e-07
4.2538e-07
4.26391e-07
4.27401e-07
4.2841e-07
4.29418e-07
4.30426e-07
4.31432e-07
4.32438e-07
4.33443e-07
4.34447e-07
4.36223e-07
2.25067e-07
4.43733e-07
8.4559e-07
6.93612e-07
6.92277e-07
7.16273e-07
2.16662e-07
1.84252e-07
3.93452e-07
3.94696e-07
3.9573e-07
3.96763e-07
3.97795e-07
3.98827e-07
3.99857e-07
4.00887e-07
4.01916e-07
4.02944e-07
4.03972e-07
4.04999e-07
4.06025e-07
4.07051e-07
4.08076e-07
4.091e-07
4.10123e-07
4.11146e-07
4.12167e-07
4.13188e-07
4.14209e-07
4.15228e-07
4.16247e-07
4.17265e-07
4.18282e-07
4.19298e-07
4.20314e-07
4.21329e-07
4.22343e-07
4.23356e-07
4.24369e-07
4.2538e-07
4.26391e-07
4.27401e-07
4.2841e-07
4.29418e-07
4.30426e-07
4.31432e-07
4.32438e-07
4.33443e-07
4.34447e-07
4.36223e-07
5.42402e-07
9.21936e-07
3.94754e-07
7.6769e-07
4.69054e-07
7.31564e-07
3.55451e-07
1.8395e-07
3.93451e-07
3.94695e-07
3.9573e-07
3.96763e-07
3.97795e-07
3.98827e-07
3.99857e-07
4.00887e-07
4.01916e-07
4.02944e-07
4.03972e-07
4.04999e-07
4.06025e-07
4.07051e-07
4.08076e-07
4.091e-07
4.10123e-07
4.11146e-07
4.12167e-07
4.13188e-07
4.14209e-07
4.15228e-07
4.16247e-07
4.17265e-07
4.18282e-07
4.19298e-07
4.20314e-07
4.21329e-07
4.22343e-07
4.23356e-07
4.24369e-07
4.2538e-07
4.26391e-07
4.27401e-07
4.2841e-07
4.29419e-07
4.30426e-07
4.31432e-07
4.32438e-07
4.33443e-07
4.34447e-07
4.36223e-07
8.96234e-07
1.29299e-07
5.40872e-07
5.8866e-07
2.80857e-07
6.71547e-07
1.6316e-07
3.92278e-07
3.93658e-07
3.94695e-07
3.9573e-07
3.96763e-07
3.97795e-07
3.98827e-07
3.99857e-07
4.00887e-07
4.01916e-07
4.02944e-07
4.03972e-07
4.04999e-07
4.06025e-07
4.07051e-07
4.08076e-07
4.091e-07
4.10123e-07
4.11146e-07
4.12167e-07
4.13188e-07
4.14209e-07
4.15228e-07
4.16247e-07
4.17265e-07
4.18282e-07
4.19298e-07
4.20314e-07
4.21329e-07
4.22343e-07
4.23356e-07
4.24369e-07
4.2538e-07
4.26391e-07
4.27401e-07
4.2841e-07
4.29419e-07
4.30426e-07
4.31432e-07
4.32438e-07
4.33443e-07
4.34447e-07
4.36223e-07
8.37455e-07
1.48852e-07
4.23953e-07
4.44748e-07
8.70111e-07
7.06286e-07
6.08962e-08
3.92414e-07
3.9366e-07
3.94695e-07
3.9573e-07
3.96763e-07
3.97795e-07
3.98827e-07
3.99857e-07
4.00887e-07
4.01916e-07
4.02944e-07
4.03972e-07
4.04999e-07
4.06025e-07
4.07051e-07
4.08076e-07
4.091e-07
4.10123e-07
4.11146e-07
4.12167e-07
4.13188e-07
4.14209e-07
4.15228e-07
4.16247e-07
4.17265e-07
4.18282e-07
4.19298e-07
4.20314e-07
4.21329e-07
4.22343e-07
4.23356e-07
4.24369e-07
4.2538e-07
4.26391e-07
4.27401e-07
4.2841e-07
4.29418e-07
4.30426e-07
4.31432e-07
4.32438e-07
4.33443e-07
4.34447e-07
4.36223e-07
8.78526e-07
6.35099e-07
5.9195e-07
6.59401e-07
8.47669e-07
7.5856e-07
5.17899e-08
3.92419e-07
3.93662e-07
3.94696e-07
3.9573e-07
3.96763e-07
3.97795e-07
3.98827e-07
3.99857e-07
4.00887e-07
4.01916e-07
4.02944e-07
4.03972e-07
4.04999e-07
4.06025e-07
4.07051e-07
4.08076e-07
4.091e-07
4.10123e-07
4.11146e-07
4.12167e-07
4.13188e-07
4.14209e-07
4.15228e-07
4.16247e-07
4.17265e-07
4.18282e-07
4.19298e-07
4.20314e-07
4.21329e-07
4.22343e-07
4.23356e-07
4.24369e-07
4.2538e-07
4.26391e-07
4.27401e-07
4.2841e-07
4.29419e-07
4.30426e-07
4.31432e-07
4.32438e-07
4.33443e-07
4.34447e-07
4.36223e-07
9.07979e-07
8.22802e-07
6.89097e-07
7.51269e-07
5.39573e-07
7.49289e-07
1.8335e-07
3.92422e-07
3.93664e-07
3.94698e-07
3.95731e-07
3.96764e-07
3.97795e-07
3.98827e-07
3.99857e-07
4.00887e-07
4.01916e-07
4.02945e-07
4.03972e-07
4.04999e-07
4.06025e-07
4.07051e-07
4.08076e-07
4.091e-07
4.10123e-07
4.11146e-07
4.12167e-07
4.13188e-07
4.14209e-07
4.15228e-07
4.16247e-07
4.17265e-07
4.18282e-07
4.19298e-07
4.20314e-07
4.21329e-07
4.22343e-07
4.23356e-07
4.24369e-07
4.2538e-07
4.26391e-07
4.27401e-07
4.2841e-07
4.29419e-07
4.30426e-07
4.31432e-07
4.32438e-07
4.33443e-07
4.34447e-07
4.36223e-07
3.51426e-08
6.92155e-07
3.51438e-08
3.89037e-07
5.17851e-08
7.55776e-07
5.17881e-08
3.51488e-08
6.90686e-07
3.91915e-08
7.54041e-07
5.17992e-08
7.22732e-07
5.74041e-08
4.53521e-08
6.92142e-07
1.739e-07
7.20391e-07
6.70815e-08
7.61236e-07
2.37051e-07
4.11535e-07
6.84527e-07
6.9635e-07
6.97631e-07
5.04276e-07
7.28824e-07
7.68135e-07
6.95859e-07
5.5211e-07
6.98893e-07
7.06464e-07
7.67375e-07
6.54079e-07
7.73809e-07
6.9887e-07
6.6743e-07
6.97745e-07
6.83876e-07
7.73224e-07
7.48281e-07
7.69714e-07
6.96183e-07
6.6517e-07
4.56996e-07
4.92598e-07
7.7018e-07
6.80258e-07
5.33444e-07
2.23229e-07
6.72435e-07
4.64452e-08
7.37039e-07
3.02889e-07
7.00178e-07
6.85635e-08
3.94795e-08
6.96279e-07
3.51477e-08
6.81103e-07
5.8434e-08
7.55943e-07
5.17973e-08
3.51437e-08
1.87079e-07
3.51425e-08
7.5572e-07
5.17883e-08
2.41088e-07
5.1784e-08
5.17849e-08
7.52634e-07
5.17882e-08
3.93221e-07
5.17847e-08
7.61799e-07
5.17889e-08
5.17989e-08
6.84635e-07
5.73693e-08
7.3721e-07
5.17989e-08
7.50037e-07
5.75598e-08
6.7214e-08
7.6554e-07
2.36297e-07
7.15513e-07
6.7336e-08
7.34108e-07
2.35947e-07
5.01899e-07
7.18046e-07
7.68799e-07
7.57847e-07
5.0116e-07
7.45882e-07
7.69072e-07
7.67636e-07
7.33442e-07
7.73479e-07
7.0529e-07
7.67763e-07
7.17e-07
7.74683e-07
7.72576e-07
7.46437e-07
7.691e-07
7.55263e-07
7.70244e-07
7.67768e-07
7.70232e-07
7.70443e-07
6.85467e-07
5.2888e-07
6.85306e-07
7.70588e-07
5.84653e-07
5.28024e-07
3.03213e-07
6.9608e-07
6.87881e-08
7.2914e-07
2.98678e-07
7.09288e-07
6.89869e-08
5.84283e-08
7.52104e-07
5.17971e-08
7.56462e-07
5.82797e-08
7.56888e-07
5.17969e-08
5.17883e-08
2.31433e-07
5.17836e-08
7.42453e-07
5.17886e-08
2.22312e-07
5.17846e-08
5.17848e-08
7.58958e-07
5.17893e-08
3.01417e-07
3.51425e-08
6.69636e-07
3.51441e-08
5.17983e-08
7.21172e-07
5.74462e-08
6.92696e-07
3.51487e-08
5.75127e-07
3.9034e-08
6.73198e-08
7.33947e-07
2.36328e-07
6.93643e-07
4.54989e-08
6.378e-07
1.73354e-07
5.01418e-07
7.35422e-07
7.68206e-07
6.87854e-07
4.08093e-07
6.71108e-07
6.96141e-07
7.6849e-07
7.06079e-07
7.72994e-07
6.83512e-07
6.96658e-07
6.71731e-07
6.9856e-07
7.70707e-07
7.65966e-07
7.69313e-07
6.83985e-07
6.99145e-07
6.41096e-07
6.98356e-07
7.70223e-07
4.61262e-07
5.30292e-07
6.77756e-07
6.96037e-07
3.46002e-07
4.48248e-07
2.97634e-07
7.36122e-07
6.88317e-08
5.44928e-07
2.20894e-07
5.56068e-07
4.66821e-08
5.826e-08
7.64904e-07
5.17967e-08
4.83429e-07
3.94527e-08
6.94232e-07
3.51475e-08
5.17884e-08
2.20452e-07
5.1785e-08
6.88258e-07
3.51436e-08
1.93716e-07
3.51425e-08
6.90319e-07
8.36772e-07
6.94682e-07
4.95878e-07
7.55549e-07
8.19569e-07
7.58767e-07
7.2224e-08
4.45556e-08
6.84041e-07
4.07821e-07
7.47806e-07
4.93086e-08
6.54395e-08
1.29658e-07
1.29269e-07
1.29658e-07
1.83347e-07
1.84017e-07
1.83348e-07
1.84018e-07
7.92529e-07
8.79869e-07
8.82334e-07
6.51568e-07
7.16819e-07
7.58713e-07
7.41575e-07
7.56317e-07
2.65308e-07
6.04874e-07
7.55547e-07
3.47974e-07
6.90571e-07
6.89244e-07
1.29658e-07
1.29225e-07
1.29658e-07
1.8335e-07
1.84019e-07
1.60825e-07
1.84019e-07
8.85806e-07
8.33406e-07
8.81963e-07
6.14448e-07
9.07079e-07
4.76895e-07
8.36204e-07
7.7398e-07
6.96071e-07
6.73262e-07
7.54068e-07
7.65635e-07
7.34453e-07
6.98041e-07
1.29567e-07
3.95943e-08
1.29567e-07
5.18406e-08
1.83836e-07
5.85759e-08
1.83834e-07
8.80036e-07
8.75113e-07
8.829e-07
3.07244e-07
6.9897e-07
7.55738e-07
7.39213e-07
5.30283e-07
6.50582e-07
4.15822e-07
7.17083e-07
7.20163e-07
5.24142e-07
5.13701e-07
1.29566e-07
1.12156e-07
1.29574e-07
6.90513e-08
1.83832e-07
1.58425e-07
1.83849e-07
7.0703e-07
7.69234e-07
7.56571e-07
5.61945e-07
2.07989e-07
4.30784e-07
3.74597e-07
7.67296e-07
6.96512e-07
6.8326e-07
7.45709e-07
7.70923e-07
7.43198e-07
6.98477e-07
1.29444e-07
2.73726e-07
3.52761e-08
2.17314e-07
1.83584e-07
3.49366e-07
5.19783e-08
8.61652e-07
8.32973e-07
8.50124e-07
8.38143e-07
7.77312e-07
8.1707e-07
9.05738e-07
7.16417e-07
6.93949e-07
3.55269e-07
6.07816e-07
7.64182e-07
3.34152e-07
6.16996e-07
3.5276e-08
1.59483e-07
1.29445e-07
3.54832e-07
5.19783e-08
2.20024e-07
1.83587e-07
8.78235e-07
2.52892e-07
6.59758e-07
7.76981e-07
8.97633e-07
4.71608e-07
3.58297e-07
7.46981e-07
6.33039e-07
6.68148e-07
4.64776e-07
7.15671e-07
6.27893e-07
6.73331e-07
1.29573e-07
4.7899e-08
1.29565e-07
1.6317e-07
1.83845e-07
7.08414e-08
1.83825e-07
6.65354e-07
1.44316e-07
6.91907e-07
6.81362e-07
6.4654e-07
1.81048e-07
7.45924e-07
7.02184e-07
6.9695e-07
5.78505e-07
7.40654e-07
7.68043e-07
6.36366e-07
6.35791e-07
1.29565e-07
3.51653e-08
1.29565e-07
6.07033e-08
1.83824e-07
5.18015e-08
1.83827e-07
6.56974e-07
6.14738e-07
5.58262e-07
4.95215e-07
4.64836e-07
7.81896e-07
6.13504e-07
7.5465e-07
6.90519e-07
5.80555e-07
6.3618e-07
7.58566e-07
7.08175e-07
6.88721e-07
1.29566e-07
1.29211e-07
1.29658e-07
5.17911e-08
1.83832e-07
1.83233e-07
1.84017e-07
6.8025e-07
8.59885e-07
6.92945e-07
7.9375e-07
7.38568e-07
7.9463e-07
7.28212e-07
9.80592e-08
9.40553e-08
6.8478e-07
7.62563e-07
1.34703e-07
7.3838e-07
6.77668e-08
1.29658e-07
1.29269e-07
1.29658e-07
1.8335e-07
1.84018e-07
1.83348e-07
1.84017e-07
7.55483e-07
7.79821e-07
7.01922e-07
7.39485e-07
7.26416e-07
5.94742e-07
6.69018e-07
7.23394e-08
6.61754e-08
7.38699e-07
3.85591e-07
7.23783e-08
7.40111e-07
6.618e-08
1.84012e-07
1.83344e-07
1.84013e-07
1.83343e-07
1.84012e-07
1.83344e-07
1.84013e-07
5.90155e-07
4.15195e-07
5.73088e-07
7.40718e-07
7.55825e-07
8.10478e-07
7.74198e-07
7.50555e-07
3.49035e-07
6.20287e-07
6.87682e-07
7.53346e-07
3.48709e-07
6.34236e-07
1.84014e-07
6.14846e-08
1.83832e-07
1.83229e-07
1.84015e-07
6.14838e-08
1.83832e-07
8.40757e-07
5.25539e-07
5.04712e-07
5.22144e-07
5.44442e-07
2.85551e-07
5.17631e-07
7.47117e-07
7.49392e-07
7.08777e-07
6.96131e-07
7.4975e-07
7.42115e-07
7.01848e-07
1.83832e-07
5.86558e-08
1.8383e-07
5.18036e-08
1.83833e-07
5.86557e-08
1.8383e-07
6.21727e-07
5.70715e-07
4.85637e-07
2.99408e-07
5.69011e-07
4.72914e-07
4.05337e-07
4.24435e-07
7.16872e-07
3.4616e-07
7.57385e-07
4.08992e-07
7.07974e-07
4.21142e-07
1.83827e-07
1.58075e-07
1.83845e-07
6.91672e-08
1.83827e-07
1.58287e-07
1.83845e-07
2.09623e-07
2.1586e-07
3.77403e-07
2.74166e-07
5.04355e-07
2.41331e-07
3.82482e-07
7.54549e-07
7.62706e-07
7.18475e-07
6.93039e-07
7.47658e-07
7.63695e-07
6.78764e-07
1.8358e-07
3.49695e-07
5.19776e-08
2.16754e-07
1.8358e-07
3.48631e-07
5.19777e-08
6.47214e-07
6.61951e-07
5.88329e-07
4.21917e-07
4.19302e-07
5.55638e-07
6.10776e-07
7.48738e-07
7.57751e-07
3.59492e-07
7.346e-07
7.3112e-07
7.56668e-07
5.37506e-07
5.19776e-08
2.2011e-07
1.83581e-07
3.53424e-07
5.19776e-08
2.2046e-07
1.8358e-07
8.45124e-07
4.82715e-07
4.69138e-07
2.21466e-07
6.6048e-07
6.95448e-07
7.07491e-07
7.66397e-07
7.37704e-07
5.76303e-07
6.78847e-07
7.4419e-07
7.47973e-07
5.68435e-07
1.83839e-07
7.09743e-08
1.83818e-07
1.62745e-07
1.83839e-07
7.08886e-08
1.83818e-07
5.24585e-07
1.68323e-07
6.03206e-07
8.78639e-07
6.99515e-07
2.82166e-07
7.32271e-07
6.35133e-07
7.55817e-07
5.32064e-07
7.25291e-07
6.07552e-07
7.40344e-07
3.76391e-07
1.83817e-07
5.18017e-08
1.83821e-07
6.09321e-08
1.83817e-07
5.1803e-08
1.83821e-07
3.83054e-07
8.36901e-07
5.51687e-07
6.02168e-07
4.17426e-07
8.97409e-07
5.58263e-07
7.5636e-07
7.53391e-07
6.71309e-07
7.17123e-07
7.57597e-07
7.55896e-07
6.57819e-07
1.83826e-07
1.83229e-07
1.84012e-07
5.179e-08
1.83826e-07
1.83229e-07
1.84013e-07
6.66142e-07
6.93221e-07
6.8372e-07
4.74511e-07
6.81176e-07
5.83923e-07
6.86509e-07
9.82473e-08
1.35333e-07
7.44509e-07
7.41337e-07
9.84264e-08
1.35501e-07
7.43235e-07
1.84013e-07
1.83344e-07
1.84012e-07
1.83347e-07
1.84013e-07
1.83344e-07
1.84012e-07
7.30429e-07
4.2814e-07
5.46689e-07
4.33602e-07
6.56052e-07
7.51773e-07
4.57035e-07
7.24673e-08
6.58774e-08
7.26792e-07
3.94506e-07
7.25317e-08
7.2749e-07
6.58895e-08
1.84017e-07
1.83348e-07
1.84018e-07
1.29269e-07
1.29658e-07
1.29269e-07
1.29658e-07
8.05879e-07
8.9678e-07
9.20411e-07
8.94663e-07
6.87324e-07
8.4331e-07
8.90036e-07
7.55383e-07
3.43347e-07
6.61171e-07
6.98736e-07
7.57501e-07
3.42233e-07
6.72995e-07
1.84019e-07
1.60825e-07
1.84019e-07
1.29269e-07
1.29659e-07
1.29225e-07
1.29659e-07
3.24474e-07
2.86772e-07
5.48868e-07
6.24632e-07
6.63309e-07
5.82653e-07
3.96004e-07
7.63196e-07
7.60383e-07
7.42202e-07
7.33277e-07
7.56888e-07
7.5793e-07
7.42803e-07
1.83836e-07
5.85781e-08
1.83834e-07
3.51816e-08
1.29568e-07
3.95831e-08
1.29567e-07
5.22868e-07
6.11632e-07
4.72075e-07
7.52721e-07
8.01336e-07
8.04068e-07
7.78161e-07
5.17039e-07
7.31292e-07
7.15714e-07
7.51829e-07
5.22281e-07
7.43773e-07
7.3973e-07
1.83832e-07
1.57798e-07
1.83849e-07
4.69468e-08
1.29567e-07
1.11683e-07
1.29574e-07
6.93153e-07
7.2381e-07
6.86099e-07
8.72618e-07
7.52534e-07
6.94314e-07
8.01418e-07
7.54655e-07
7.6068e-07
6.84159e-07
7.31702e-07
7.58661e-07
7.63036e-07
6.772e-07
1.83584e-07
3.4897e-07
5.19783e-08
1.56261e-07
1.29444e-07
2.72546e-07
3.52761e-08
4.37223e-07
5.23641e-07
5.45755e-07
5.29048e-07
5.51625e-07
6.93515e-07
6.60549e-07
7.6096e-07
7.6338e-07
6.52602e-07
7.36883e-07
7.60453e-07
7.6733e-07
6.93013e-07
5.19783e-08
2.20351e-07
1.83585e-07
2.81665e-07
3.52761e-08
1.59311e-07
1.29445e-07
6.33338e-07
5.97752e-07
2.97077e-07
3.99938e-07
6.49083e-07
5.95639e-07
1.95511e-07
7.64286e-07
7.67238e-07
6.34414e-07
6.95477e-07
7.62634e-07
7.69759e-07
7.43825e-07
1.83844e-07
7.07344e-08
1.83825e-07
1.15041e-07
1.29573e-07
4.78427e-08
1.29565e-07
8.04446e-07
8.20627e-07
8.1036e-07
6.57971e-07
7.55486e-07
8.83436e-07
8.71019e-07
4.861e-07
6.87781e-07
3.22788e-07
6.12049e-07
4.91724e-07
6.8199e-07
2.96852e-07
1.83824e-07
5.18025e-08
1.83827e-07
4.11537e-08
1.29565e-07
3.51625e-08
1.29565e-07
7.27034e-07
8.67882e-07
5.98642e-07
8.6587e-07
3.58095e-07
6.65019e-07
6.81536e-07
7.43601e-07
7.56194e-07
5.04368e-07
6.28114e-07
7.40198e-07
7.52134e-07
4.93434e-07
1.83831e-07
1.83232e-07
1.84017e-07
3.51626e-08
1.29567e-07
1.29211e-07
1.29658e-07
7.40281e-07
5.98977e-07
7.03167e-07
6.66458e-07
6.95056e-07
6.86907e-07
6.46362e-07
9.82603e-08
1.35371e-07
7.59964e-07
7.54734e-07
9.80634e-08
1.35186e-07
7.623e-07
1.84018e-07
1.83348e-07
1.84017e-07
1.2927e-07
1.29658e-07
1.29269e-07
1.29658e-07
5.17113e-08
3.50933e-08
3.51425e-08
5.17917e-08
5.17915e-08
3.50966e-08
5.1704e-08
1.12014e-07
6.91139e-07
1.08242e-07
7.59514e-07
7.6607e-07
1.53185e-07
7.76951e-08
5.21911e-08
3.51429e-08
3.6253e-08
5.17945e-08
5.17924e-08
5.34948e-08
3.53675e-08
7.22929e-08
3.99993e-07
6.60325e-08
7.38818e-07
7.41256e-07
7.23616e-08
6.56901e-08
5.17108e-08
5.17909e-08
5.16985e-08
5.17846e-08
5.17906e-08
5.17045e-08
5.17039e-08
1.11965e-07
7.58031e-07
7.62761e-07
1.51756e-07
7.65683e-07
1.52501e-07
1.12097e-07
5.22706e-08
5.17939e-08
5.17859e-08
5.37124e-08
5.17916e-08
5.36028e-08
5.23297e-08
8.62869e-08
4.12997e-08
3.51679e-08
5.18052e-08
6.07707e-08
5.18487e-08
5.92858e-08
6.84666e-07
6.93821e-07
6.90024e-07
7.48557e-07
7.49158e-07
7.44336e-07
6.25344e-07
9.72968e-08
3.54693e-08
1.16819e-07
5.77672e-08
5.23257e-08
1.66757e-07
6.65174e-08
7.55855e-07
7.54923e-07
3.46008e-07
6.12852e-07
3.45858e-07
6.44993e-07
7.5764e-07
8.618e-08
5.18046e-08
6.0955e-08
5.18517e-08
6.08961e-08
5.18538e-08
8.61105e-08
6.56475e-07
7.39008e-07
6.40775e-07
6.92732e-07
7.23319e-07
7.15537e-07
6.29987e-07
9.84575e-08
5.75947e-08
5.22926e-08
1.75493e-07
5.23132e-08
1.71326e-07
9.95639e-08
7.6144e-07
3.25503e-07
6.74633e-08
6.6616e-08
4.1416e-07
9.77873e-08
6.90754e-07
7.6795e-07
6.89016e-07
6.96066e-07
7.58688e-07
7.43103e-07