/*--------------------------------*- C++ -*----------------------------------*\
| =========                 |                                                 |
| \\      /  F ield         | OpenFOAM: The Open Source CFD Toolbox           |
|  \\    /   O peration     | Version:  5.0                                   |
|   \\  /    A nd           | Web:      www.OpenFOAM.org                      |
|    \\/     M anipulation  |                                                 |
\*---------------------------------------------------------------------------*/
FoamFile
{
    version     2.0;
    format      ascii;
    class       volVectorField;
    location    "0.9";
    object      U;
}
// * * * * * * * * * * * * * * * * * * * * * * * * * * * * * * * * * * * * * //

dimensions      [0 1 -1 0 0 0 0];

internalField   nonuniform List<vector> 
10411
(
(0.0259942 -0.0138635 -0.00388555)
(-0.00437557 -0.0130175 0.00096589)
(0.0308476 0.000829895 0.00160119)
(-0.00187381 -0.00366708 -0.00128165)
(0.0120174 0.0207602 -0.00351628)
(0.000690765 -0.000901664 -0.000133654)
(0.000507009 -1.97935e-06 -1.08605e-06)
(0.000813134 2.2417e-05 -2.09629e-06)
(0.000768129 1.57265e-05 -2.25824e-07)
(0.000777517 1.0713e-05 1.12461e-07)
(0.000779239 7.35109e-06 9.54914e-08)
(0.000782046 4.80986e-06 6.44986e-08)
(0.000784132 3.23354e-06 3.88191e-10)
(0.000784484 2.43279e-06 6.61836e-08)
(0.000783827 1.5041e-06 4.53531e-08)
(0.000783204 7.62703e-07 1.32848e-08)
(0.000782302 3.89566e-07 5.13612e-08)
(0.000781507 1.29384e-07 8.22127e-08)
(0.000779713 -2.6129e-07 4.24585e-08)
(0.000778029 -4.48113e-07 1.0581e-07)
(0.000777509 -5.00041e-07 4.50273e-08)
(0.000776398 -1.24311e-07 4.33904e-08)
(0.000774644 -1.82429e-07 4.98727e-08)
(0.000773155 -1.84978e-07 4.5276e-08)
(0.000771827 4.72652e-08 5.63202e-08)
(0.000770407 3.11188e-07 7.76315e-08)
(0.00076909 1.99233e-07 3.83509e-08)
(0.000767898 1.14605e-07 4.49598e-08)
(0.000766266 1.67023e-07 1.23292e-07)
(0.00076477 -1.30744e-07 3.83399e-08)
(0.000763362 -4.62343e-07 7.41294e-08)
(0.000761831 -5.46033e-07 -4.41058e-08)
(0.000760552 -4.3831e-07 7.91178e-08)
(0.000759391 -1.97668e-07 5.46463e-08)
(0.000758168 1.3751e-07 4.00058e-08)
(0.000756602 2.51424e-07 4.85206e-08)
(0.000754889 2.59867e-07 1.18723e-07)
(0.000753172 3.51574e-07 -1.22152e-08)
(0.000752479 6.72303e-07 1.01935e-07)
(0.000751584 2.11234e-07 1.38829e-07)
(0.00074981 -1.22536e-08 2.53703e-08)
(0.000748359 -4.43851e-08 7.26924e-08)
(0.000747505 -6.22888e-07 8.88939e-08)
(0.000745992 -5.23213e-07 2.2888e-08)
(0.00074425 -3.39417e-07 3.83326e-08)
(0.000742996 -2.05431e-07 4.48719e-08)
(0.000741675 -3.19209e-07 5.12178e-08)
(0.000740498 -2.30639e-07 4.08724e-08)
(0.00073899 -3.87825e-07 4.3073e-08)
(0.000737501 -3.7427e-07 6.74146e-09)
(0.023148 -0.0199285 0.00301077)
(0.0309542 0.00231886 -0.00084441)
(0.0304282 -0.0117534 0.00192498)
(-0.0197516 -0.0100805 -9.5537e-05)
(0.00950548 0.00212228 -0.00198457)
(-0.00451589 -0.000880136 -0.000221267)
(0.000441804 7.27634e-05 -9.18258e-07)
(0.000775935 2.55938e-05 -1.39057e-06)
(0.00074859 8.73834e-06 -2.47983e-07)
(0.000769853 2.261e-06 1.27386e-07)
(0.000775688 1.53087e-07 4.37696e-08)
(0.000780389 -3.7874e-07 5.60108e-08)
(0.000782577 -5.23546e-07 4.34409e-08)
(0.000783467 -7.38504e-07 4.5753e-08)
(0.000783549 -4.92711e-07 4.77061e-08)
(0.000783036 -4.59055e-07 5.75489e-08)
(0.000782152 -1.252e-07 5.67162e-08)
(0.000780919 -9.52418e-08 8.73721e-08)
(0.000779994 -5.87037e-08 6.61602e-08)
(0.00077893 2.40359e-07 2.76161e-08)
(0.000777436 4.76816e-07 6.4797e-08)
(0.00077588 1.93044e-07 7.16634e-08)
(0.000774318 2.8684e-07 4.79782e-08)
(0.000773414 4.96443e-07 3.49587e-08)
(0.000772329 3.47134e-07 5.02825e-08)
(0.000770517 1.56698e-07 1.13152e-08)
(0.000768879 1.23041e-07 6.30975e-08)
(0.000767624 -9.98673e-08 4.46346e-08)
(0.000766072 -4.89222e-07 6.39919e-08)
(0.000764391 -3.68577e-07 8.87502e-08)
(0.000763137 -2.76323e-07 -1.10281e-07)
(0.000761881 -1.35499e-07 2.292e-08)
(0.000760819 3.33883e-07 1.29915e-07)
(0.000759878 3.05602e-07 1.15808e-07)
(0.000758266 7.93937e-09 6.87339e-08)
(0.000756596 -2.90709e-08 4.103e-08)
(0.000755375 6.4453e-08 4.04629e-08)
(0.000754306 3.42498e-07 8.53515e-09)
(0.000752355 7.11212e-07 1.25485e-09)
(0.000750495 3.42109e-07 2.9746e-08)
(0.000749458 1.7917e-07 5.79687e-08)
(0.000747992 4.34791e-08 6.27688e-08)
(0.000746672 -1.08851e-07 7.30259e-08)
(0.000745952 -6.03993e-07 3.93973e-08)
(0.000744707 -1.02574e-07 5.30412e-08)
(0.000742911 -1.75056e-08 5.70672e-08)
(0.000741775 2.953e-07 5.92281e-08)
(0.000740645 6.62865e-08 -3.29871e-09)
(0.000739048 -7.11251e-08 3.48995e-08)
(0.000737994 -1.79621e-07 1.10307e-07)
(-0.0536289 -0.0263155 0.00277364)
(0.00353047 -0.00592375 0.00316153)
(0.00603823 -0.00511194 -4.40515e-05)
(-0.00326364 0.020558 -0.000943154)
(-0.00198174 -0.00599635 0.00110931)
(0.00660508 0.00153843 -0.000102183)
(0.000179676 2.21174e-06 5.31128e-06)
(0.000738387 -4.86864e-05 -1.4832e-06)
(0.000738499 -2.4476e-05 -4.20441e-08)
(0.000766663 -1.71485e-05 1.52016e-07)
(0.000775873 -1.08678e-05 6.91571e-08)
(0.000781163 -7.13943e-06 6.95934e-08)
(0.000783661 -4.71253e-06 6.5101e-08)
(0.00078451 -3.04757e-06 5.54411e-08)
(0.000784171 -1.95368e-06 5.25301e-08)
(0.00078366 -1.25088e-06 5.51803e-08)
(0.000782755 -8.06426e-07 3.98038e-08)
(0.000781589 -4.2974e-07 9.70554e-08)
(0.000780132 -1.79612e-07 1.20313e-07)
(0.000778697 -1.19319e-07 4.74321e-08)
(0.000777447 -9.88411e-08 8.64481e-08)
(0.000776156 -8.33979e-09 4.45944e-08)
(0.00077502 1.69205e-07 4.78206e-08)
(0.000773226 2.51907e-07 2.0112e-08)
(0.000771399 -2.523e-08 8.791e-08)
(0.000770124 -1.40872e-08 3.67835e-08)
(0.000768769 -2.23057e-08 7.29647e-08)
(0.000767135 -1.87598e-08 5.37776e-08)
(0.000765934 -7.43143e-08 1.36894e-08)
(0.000765041 3.28342e-07 2.27797e-08)
(0.000763657 4.37473e-07 1.5763e-07)
(0.000762594 4.76535e-07 9.15187e-08)
(0.000761102 4.64332e-07 -4.19181e-09)
(0.000758981 2.64363e-07 6.17902e-09)
(0.000757748 -3.1636e-08 8.59776e-08)
(0.000756672 1.68143e-08 4.44686e-08)
(0.000755352 7.28995e-09 1.84258e-07)
(0.000753978 -8.1093e-08 5.07281e-08)
(0.000752474 -2.64191e-07 2.49344e-08)
(0.000750916 1.11533e-09 5.20363e-08)
(0.000749435 1.27756e-07 2.32649e-08)
(0.000747999 1.99166e-07 5.56654e-08)
(0.000746698 5.54143e-07 8.48194e-08)
(0.000746003 6.57181e-07 1.39417e-07)
(0.000744986 3.64519e-07 8.24608e-08)
(0.000743494 3.53305e-07 2.19163e-08)
(0.000741781 6.45488e-07 1.95256e-08)
(0.00074004 5.21348e-07 8.12455e-08)
(0.000738688 2.64612e-07 5.96976e-08)
(0.000737811 1.53606e-07 1.19671e-07)
(0.0183883 0.00245096 -0.00141668)
(0.0186511 -0.0063612 0.00543375)
(0.0397151 0.0233724 -0.00153393)
(-0.00706675 -0.00562339 0.000687728)
(-0.00156634 0.000990183 0.00697759)
(0.00365781 -0.00408831 8.31074e-05)
(0.000473834 -0.000150522 4.81637e-05)
(0.000800648 -0.000125547 -2.64722e-06)
(0.000787737 -4.14356e-05 -1.50577e-07)
(0.000786922 -3.19385e-05 9.20403e-09)
(0.000788241 -1.85178e-05 4.63928e-08)
(0.00078811 -1.15547e-05 8.15428e-09)
(0.000787709 -7.37141e-06 5.25772e-08)
(0.000786927 -4.53874e-06 5.00039e-08)
(0.000785802 -2.72617e-06 4.62634e-08)
(0.000784475 -1.58297e-06 4.63003e-08)
(0.000783182 -1.14403e-06 4.77901e-08)
(0.000781705 -7.30268e-07 1.73814e-08)
(0.000780384 -6.82743e-07 2.98073e-08)
(0.000779032 -3.87169e-07 2.49339e-08)
(0.000777575 -3.11339e-07 5.08677e-08)
(0.000776215 -1.82606e-07 4.59394e-08)
(0.000774643 -2.91952e-07 1.8445e-08)
(0.00077317 -3.68197e-07 7.45533e-08)
(0.000771996 -2.04919e-07 6.62897e-08)
(0.000770521 -3.86886e-08 4.1906e-08)
(0.000768873 1.60929e-07 5.89481e-08)
(0.000767559 4.16436e-07 5.53641e-08)
(0.000766505 7.69471e-07 2.35484e-08)
(0.000765027 6.2423e-07 4.72422e-08)
(0.000763317 3.63777e-07 7.50886e-08)
(0.00076191 4.7953e-07 -2.31022e-08)
(0.000760549 -4.02924e-08 4.45032e-08)
(0.000759256 -4.4744e-09 4.59779e-08)
(0.000757956 2.26292e-07 5.3956e-08)
(0.000756645 9.98479e-08 7.13051e-08)
(0.000755253 2.45936e-08 3.43632e-08)
(0.000753967 -1.24057e-07 3.17681e-08)
(0.000752459 -2.40693e-07 2.11058e-08)
(0.000750985 -2.15663e-07 3.08007e-08)
(0.000749705 -2.75939e-08 -4.8081e-08)
(0.000748522 1.22215e-07 7.53553e-08)
(0.00074724 3.22981e-07 1.95614e-07)
(0.000745709 6.15317e-07 -1.10183e-07)
(0.000744323 1.68525e-07 3.19163e-08)
(0.000743258 8.75035e-08 8.7744e-08)
(0.000741981 1.83279e-08 7.72682e-08)
(0.000740165 3.46259e-07 4.7378e-08)
(0.000738584 2.16108e-07 4.86677e-08)
(0.000737471 2.75038e-07 1.62666e-07)
(-0.000139105 -0.00489544 0.000760567)
(0.0146101 -0.0131535 0.000756778)
(-0.010861 -0.0115902 6.48869e-05)
(0.0449249 0.00615362 0.00190381)
(-0.00607293 0.0183123 -0.00408324)
(0.0020999 -0.00256291 0.000525146)
(0.0012592 -0.000204318 -1.26874e-06)
(0.000441125 -5.44994e-05 -2.35884e-06)
(0.000858357 -3.86711e-05 -1.26054e-06)
(0.000795498 -3.07419e-05 -4.29989e-07)
(0.000801489 -1.81081e-05 1.4707e-07)
(0.000795177 -1.15873e-05 1.01687e-07)
(0.000792481 -6.82419e-06 2.61333e-07)
(0.000790348 -4.36475e-06 4.98004e-08)
(0.000787884 -2.85525e-06 6.60256e-09)
(0.000785649 -1.85608e-06 6.98168e-08)
(0.000783828 -1.09375e-06 4.6557e-08)
(0.000782171 -7.40485e-07 4.82212e-08)
(0.000780565 -3.49645e-07 1.95038e-07)
(0.000779164 -2.11518e-07 6.53439e-08)
(0.000777705 -6.14954e-08 5.90025e-08)
(0.000776184 -5.25561e-08 3.71445e-08)
(0.000774791 5.57163e-09 6.62362e-08)
(0.000773338 7.81959e-08 7.99016e-08)
(0.000771813 1.4516e-07 6.69722e-08)
(0.000770582 -5.02419e-08 4.61626e-08)
(0.000769335 1.48654e-07 6.53831e-08)
(0.00076789 2.67883e-07 6.19251e-08)
(0.000766187 3.98419e-07 2.0539e-08)
(0.000764526 2.94053e-07 -4.77496e-10)
(0.000763469 1.25048e-07 5.36254e-08)
(0.000762084 -1.16535e-07 1.92431e-08)
(0.000760494 1.65237e-07 3.18936e-08)
(0.000759312 8.99843e-08 4.70307e-08)
(0.000757877 7.7201e-08 6.92848e-08)
(0.000756419 -1.48779e-08 4.48346e-08)
(0.000755073 -2.30304e-08 1.55379e-08)
(0.000753648 -5.41185e-08 7.48196e-08)
(0.000752362 -1.29267e-07 4.02997e-08)
(0.000751184 -9.87836e-08 -1.49841e-07)
(0.000749858 6.30048e-08 6.34945e-08)
(0.000748436 1.51534e-07 4.08262e-07)
(0.000747311 6.88324e-08 2.17601e-08)
(0.000745806 2.48676e-08 3.65208e-08)
(0.000744324 -3.57094e-08 7.45844e-08)
(0.000743305 -1.67858e-07 4.78184e-08)
(0.000742103 -5.22354e-07 1.78527e-09)
(0.000740286 -8.25567e-07 3.49238e-08)
(0.000738592 -2.7419e-07 4.48886e-08)
(0.0007372 3.24748e-08 4.81156e-08)
(-0.00785262 -0.020311 0.00070782)
(-0.0042704 -2.22709e-05 -0.00055931)
(-0.0123581 -0.0304373 -9.13416e-05)
(0.0238288 -0.0193823 0.000295242)
(-0.0128873 0.00596089 -0.000645146)
(-0.000921594 -0.00767457 -0.000359236)
(0.00119937 -6.03243e-05 1.12347e-05)
(0.000491501 -5.09825e-05 -1.10611e-06)
(0.00088659 -4.54941e-05 -1.25557e-06)
(0.000812679 -1.93009e-05 -3.53926e-07)
(0.000812349 -1.18214e-05 1.56431e-07)
(0.000802314 -6.78935e-06 9.35065e-08)
(0.0007968 -3.76766e-06 6.01049e-08)
(0.000791927 -2.40797e-06 3.94036e-08)
(0.000788963 -1.63569e-06 1.35824e-07)
(0.000786693 -1.10527e-06 7.79625e-08)
(0.000784587 -6.94988e-07 4.73929e-08)
(0.000782641 -4.2506e-07 3.83069e-08)
(0.000781048 -3.09517e-07 2.9842e-08)
(0.000779394 -1.23776e-07 1.81807e-07)
(0.000777774 -7.08596e-08 4.82632e-08)
(0.000776299 -3.23141e-09 2.94492e-08)
(0.000774806 6.82246e-08 5.14258e-08)
(0.000773344 6.35029e-08 5.57532e-08)
(0.000771836 1.16806e-07 6.10295e-08)
(0.000770525 1.28063e-07 5.15106e-08)
(0.00076927 -7.36202e-08 5.035e-08)
(0.000767869 -2.16024e-07 5.46227e-09)
(0.000766535 -1.61904e-07 2.7898e-08)
(0.000764683 -4.12304e-07 -1.25241e-07)
(0.000762803 -2.07893e-07 2.40263e-08)
(0.000761958 -1.9679e-07 1.84535e-07)
(0.000760807 -1.62833e-07 1.17433e-08)
(0.000759145 -1.20574e-07 5.30159e-08)
(0.000757824 -2.16654e-07 5.64531e-08)
(0.000756519 -1.21095e-07 4.16418e-08)
(0.000755204 -2.2224e-08 5.73177e-08)
(0.000753836 1.23736e-07 4.86387e-08)
(0.000752404 1.82978e-07 5.99849e-08)
(0.000751226 1.67837e-07 5.5099e-08)
(0.000750018 1.37195e-07 6.11468e-08)
(0.000748528 2.84973e-07 2.66623e-07)
(0.000747081 2.26996e-07 3.77591e-08)
(0.000745579 1.6915e-08 5.11572e-08)
(0.000744083 -2.97568e-08 1.95199e-08)
(0.000742653 -1.93799e-07 4.34585e-08)
(0.000741163 -5.46615e-07 -7.2228e-08)
(0.00074048 -7.58896e-07 6.56641e-08)
(0.000739658 -5.29108e-07 9.81562e-08)
(0.000737774 -3.30289e-07 1.24102e-07)
(0.0208034 -0.0214498 -0.00118593)
(0.0121901 -0.00413461 0.00154438)
(-0.0210284 0.0205882 -0.00185639)
(0.00100695 0.00409058 0.00182907)
(0.010731 -0.00562896 -0.00109968)
(-0.000158938 0.00406716 -0.00307326)
(0.000994966 -6.87905e-05 -6.13041e-06)
(0.00098079 5.88602e-05 -2.75264e-06)
(0.000871877 1.06324e-07 -6.4412e-07)
(0.000837859 7.28916e-06 -6.55794e-08)
(0.000817266 3.0692e-06 2.89433e-08)
(0.000805329 2.14686e-06 7.08843e-09)
(0.00079801 9.50223e-07 2.88132e-08)
(0.000793045 6.357e-07 3.97128e-08)
(0.000789533 4.7905e-07 4.67837e-08)
(0.000786838 3.4791e-07 4.72557e-08)
(0.000784687 1.83917e-07 4.67136e-08)
(0.000782657 1.00732e-07 7.72672e-08)
(0.000780944 1.0659e-07 5.38248e-08)
(0.000779463 -2.47175e-08 6.53696e-08)
(0.000777856 7.09353e-08 2.90653e-08)
(0.000776357 7.89185e-08 4.25733e-08)
(0.000774874 1.38298e-07 3.52107e-08)
(0.000773398 9.61664e-08 4.41396e-08)
(0.000771893 3.12494e-07 1.27724e-07)
(0.000770344 7.75416e-08 5.37266e-08)
(0.000768906 -1.17906e-07 5.25103e-08)
(0.000767782 -2.57469e-07 4.54794e-08)
(0.000765945 -7.39848e-07 -3.7879e-08)
(0.000764472 -8.37866e-07 1.10752e-07)
(0.000763742 -5.03024e-07 1.49206e-08)
(0.000762144 -2.95247e-08 1.0398e-07)
(0.000760591 -6.93609e-09 3.88857e-08)
(0.000759248 -4.41499e-08 6.03392e-08)
(0.000757878 2.36912e-09 1.46316e-07)
(0.000756663 1.72038e-07 1.47353e-07)
(0.000755379 6.28919e-08 4.89795e-08)
(0.000753904 2.63243e-08 2.10738e-08)
(0.000752416 5.54542e-08 3.45011e-08)
(0.000751125 2.21283e-07 -5.67485e-08)
(0.000750003 3.45448e-08 4.0593e-08)
(0.000748546 -1.63749e-07 -5.67202e-09)
(0.000746975 -1.3313e-07 6.60309e-08)
(0.000745485 -2.46448e-07 5.28425e-08)
(0.000744061 -1.08163e-07 1.13936e-08)
(0.000742662 -3.35136e-08 4.82355e-08)
(0.000741401 -3.79009e-08 7.17393e-08)
(0.000740313 1.11256e-07 2.84051e-08)
(0.000739138 -2.94316e-07 5.90998e-09)
(0.000738273 -3.27886e-07 3.63131e-08)
(0.00752225 0.0040508 0.000134617)
(0.0101502 0.0096977 -0.000464511)
(-0.0065574 0.00474116 0.00559169)
(-0.042425 -0.00911991 -0.00239187)
(-0.00409205 -0.0155748 0.00121903)
(0.0176482 -0.0113945 0.00104616)
(0.000603652 0.000233811 6.64258e-05)
(0.000882746 0.000115059 -2.24385e-06)
(0.000822518 5.77579e-05 -3.15141e-07)
(0.000816456 3.16147e-05 5.30007e-08)
(0.000805961 1.73783e-05 -2.9795e-08)
(0.000799695 1.00349e-05 3.44888e-08)
(0.000794929 5.86947e-06 4.06558e-08)
(0.00079135 3.4718e-06 4.18413e-08)
(0.00078861 2.12076e-06 4.41692e-08)
(0.000786328 1.27053e-06 4.72683e-08)
(0.00078428 8.80651e-07 1.23872e-07)
(0.000782546 6.28083e-07 1.69324e-07)
(0.000780892 5.58313e-07 3.07541e-08)
(0.00077935 3.3279e-07 3.04448e-08)
(0.000777905 2.10705e-07 5.00326e-08)
(0.000776383 4.94027e-08 5.61103e-08)
(0.000774828 -1.5043e-07 3.15752e-08)
(0.000773561 -1.97884e-07 4.41022e-08)
(0.000771811 -6.05923e-07 1.36541e-07)
(0.000769986 -3.13345e-07 4.40423e-08)
(0.000768852 -1.54596e-07 -2.26644e-07)
(0.000767095 -2.12662e-07 4.21516e-08)
(0.000765815 -3.03463e-07 1.0528e-07)
(0.000764986 2.66898e-07 6.73876e-08)
(0.000763818 2.57488e-07 8.88796e-08)
(0.000762581 -8.95059e-09 4.85339e-08)
(0.000760789 -5.48395e-08 4.12938e-08)
(0.000759157 5.72788e-08 4.79054e-08)
(0.000758095 1.06019e-07 5.45564e-08)
(0.000756595 -8.57132e-09 3.15305e-08)
(0.000755022 -5.0647e-08 4.36234e-08)
(0.000753826 -1.74206e-07 6.35231e-08)
(0.000752647 -4.19611e-08 4.18121e-08)
(0.000751199 -1.10859e-08 8.52508e-08)
(0.000749536 -5.72899e-08 2.06349e-08)
(0.00074832 -3.59484e-08 4.00194e-08)
(0.00074698 7.07328e-09 7.25193e-08)
(0.000745613 -9.068e-08 4.4735e-08)
(0.000744351 -6.71744e-08 6.65691e-08)
(0.000742742 5.31792e-08 4.50737e-08)
(0.000741345 4.3588e-07 3.99223e-08)
(0.000740161 3.09132e-07 5.22695e-08)
(0.000739118 2.34487e-07 -1.6849e-08)
(0.000738549 -8.28763e-08 4.18137e-08)
(-0.0072544 0.00918298 0.000476552)
(0.00564751 -0.00463125 -0.00377036)
(0.013332 -0.00114361 0.000347632)
(-0.0106482 0.0311627 0.00100939)
(-0.00200755 -0.000397623 0.000140037)
(0.000479447 -0.000979983 0.000402016)
(0.000227323 0.000130757 4.55586e-06)
(0.000757721 7.71337e-05 -1.53033e-06)
(0.000768642 4.71572e-05 1.64975e-07)
(0.000787229 2.98872e-05 1.92017e-07)
(0.00079021 1.85556e-05 8.04044e-08)
(0.0007909 1.177e-05 6.11315e-08)
(0.000789781 7.35295e-06 4.59462e-08)
(0.000788345 4.34382e-06 5.34029e-08)
(0.000786773 2.82578e-06 5.19098e-08)
(0.000785283 1.99634e-06 1.2635e-07)
(0.00078388 1.3267e-06 6.91992e-08)
(0.000782253 9.40109e-07 -1.10254e-08)
(0.000780573 6.83957e-07 3.92595e-08)
(0.000779028 8.03667e-07 6.84366e-08)
(0.000777501 5.89442e-07 4.25785e-08)
(0.000775907 1.06288e-07 7.60023e-08)
(0.000774566 -1.30645e-07 8.37848e-09)
(0.000772832 -2.41291e-07 5.11459e-08)
(0.000771752 -4.7969e-07 -4.23809e-08)
(0.000770911 -3.24401e-07 5.6839e-08)
(0.000769034 -2.07675e-07 1.6463e-08)
(0.000767598 -1.06259e-07 1.00977e-07)
(0.000766544 2.4872e-07 6.72629e-08)
(0.000765172 3.46214e-07 -2.75067e-08)
(0.000763395 4.02846e-07 7.64065e-09)
(0.000761751 2.15558e-07 7.44599e-08)
(0.000760674 -1.84324e-07 -3.19801e-07)
(0.000759448 -1.1253e-07 4.21608e-08)
(0.000757796 -1.85444e-07 2.39623e-08)
(0.000756468 -4.25399e-07 6.74223e-08)
(0.000755173 -3.07018e-07 -4.56171e-08)
(0.000753915 -2.42686e-07 6.13917e-08)
(0.00075262 -3.34299e-07 9.62363e-08)
(0.000751106 -3.34849e-07 3.8875e-08)
(0.000749972 -2.13052e-07 5.61625e-08)
(0.000748628 -1.42567e-07 1.4901e-08)
(0.000746908 1.33043e-07 1.71762e-08)
(0.000745393 8.76131e-08 3.62294e-08)
(0.000744242 1.18771e-07 6.65352e-08)
(0.000743289 5.34981e-08 5.08207e-08)
(0.000741719 2.33976e-07 1.91128e-08)
(0.000740059 4.23602e-07 4.36873e-08)
(0.000738648 6.9172e-07 -5.77119e-08)
(0.00073808 5.16075e-07 8.99501e-08)
(-0.0033813 0.00278205 0.000837264)
(-0.0247455 0.000684819 -0.000707086)
(-0.00335121 0.0233182 -0.000195439)
(0.00959498 -0.0464309 -0.00113469)
(-0.00531873 0.0205797 -0.0018658)
(0.00268561 -0.000229731 0.000198286)
(0.00042191 -4.57203e-05 4.50503e-07)
(0.000796333 1.73437e-05 -1.63033e-06)
(0.000763165 2.04304e-05 -2.81778e-07)
(0.0007805 1.73623e-05 1.29733e-07)
(0.000783182 1.28079e-05 8.35455e-08)
(0.00078561 8.68792e-06 1.37335e-07)
(0.000785596 5.79314e-06 1.13872e-07)
(0.00078566 4.21341e-06 7.38216e-08)
(0.000785657 2.73382e-06 5.41098e-08)
(0.000784441 1.87677e-06 4.37786e-08)
(0.000782951 1.08357e-06 4.37359e-08)
(0.000781736 6.22487e-07 4.17949e-08)
(0.000780717 4.9265e-07 6.88372e-08)
(0.000779228 -6.22042e-08 -1.43599e-08)
(0.00077703 -3.05322e-07 1.31194e-08)
(0.000775482 -5.66096e-08 4.89135e-08)
(0.000774395 8.73182e-08 5.34794e-08)
(0.000773128 6.13446e-09 5.05283e-08)
(0.000771711 3.46903e-07 4.43669e-08)
(0.00077033 6.72719e-08 4.12156e-08)
(0.000769128 -5.57544e-08 8.84214e-08)
(0.000767666 1.12117e-07 4.57508e-08)
(0.000766379 1.85118e-07 7.72553e-08)
(0.000765176 -1.10247e-07 4.12201e-08)
(0.000763652 -1.37049e-07 1.03269e-07)
(0.000761846 -1.3829e-07 -1.12778e-08)
(0.00076038 -7.59191e-08 2.97383e-08)
(0.000759158 -2.37832e-07 1.94237e-07)
(0.000757706 -1.23596e-07 3.84949e-08)
(0.000756445 5.88896e-08 7.56718e-08)
(0.000755253 -1.61755e-08 4.38583e-08)
(0.000753794 -1.67973e-07 4.99791e-08)
(0.000752534 -6.11537e-07 5.37008e-08)
(0.000751354 -2.83197e-07 5.8062e-08)
(0.000749779 -2.31481e-07 5.94188e-08)
(0.000748754 -4.14719e-07 8.16006e-08)
(0.000747268 -4.482e-07 3.94879e-08)
(0.000745594 6.24411e-08 2.62955e-08)
(0.000744307 3.09799e-08 2.01525e-08)
(0.000742884 7.0622e-08 2.32396e-08)
(0.000741803 -2.02893e-07 1.03396e-07)
(0.000740728 3.72188e-08 4.53959e-08)
(0.000739218 1.49638e-07 -7.28511e-08)
(0.000737044 3.17748e-07 5.88519e-08)
(0.0328259 -0.0246469 0.0246402)
(-0.00774041 -0.00817295 -0.0225577)
(-0.0580663 0.0359288 -0.0044994)
(-0.01389 -0.0107656 -0.0012632)
(-0.0264392 0.0260972 0.0238152)
(-0.000305903 -0.00687661 -0.0022091)
(0.0014954 1.71982e-05 -2.75113e-07)
(0.00135641 4.26416e-05 3.3315e-07)
(0.00128257 2.9896e-05 2.92487e-07)
(0.00129723 2.02557e-05 3.36627e-07)
(0.00129948 1.37703e-05 3.63921e-07)
(0.00130364 8.93916e-06 2.59511e-07)
(0.00130678 5.94009e-06 2.46338e-07)
(0.00130718 4.37185e-06 3.40328e-07)
(0.00130596 2.72095e-06 3.35613e-07)
(0.00130483 1.43465e-06 3.08707e-07)
(0.00130328 7.7446e-07 3.26921e-07)
(0.00130185 3.69172e-07 3.34027e-07)
(0.00129888 -2.67646e-07 3.72154e-07)
(0.00129615 -6.05663e-07 3.80389e-07)
(0.00129516 -6.7472e-07 3.01489e-07)
(0.00129321 -8.54474e-08 3.56817e-07)
(0.00129035 -2.2707e-07 3.11635e-07)
(0.00128793 -1.86775e-07 2.7753e-07)
(0.00128571 2.33176e-07 3.38613e-07)
(0.00128333 6.2935e-07 3.49324e-07)
(0.00128116 3.96987e-07 2.50384e-07)
(0.00127925 2.0232e-07 3.19565e-07)
(0.00127646 2.95977e-07 4.28239e-07)
(0.00127388 -2.88696e-07 3.59741e-07)
(0.00127158 -8.87937e-07 3.62682e-07)
(0.00126897 -9.36907e-07 1.27105e-07)
(0.0012669 -7.24244e-07 3.29818e-07)
(0.00126512 -3.02125e-07 3.90542e-07)
(0.00126308 2.76581e-07 3.06517e-07)
(0.00126047 4.65986e-07 3.14121e-07)
(0.00125756 4.51886e-07 4.01425e-07)
(0.0012547 5.88727e-07 1.84493e-07)
(0.00125348 1.1059e-06 2.95526e-07)
(0.00125197 4.23061e-07 4.07729e-07)
(0.00124912 1.34272e-08 2.75967e-07)
(0.00124668 -5.90355e-08 3.39112e-07)
(0.00124525 -9.79313e-07 3.54062e-07)
(0.00124275 -8.19119e-07 2.31118e-07)
(0.00123991 -5.534e-07 3.20561e-07)
(0.00123779 -3.66232e-07 2.80942e-07)
(0.00123553 -4.98795e-07 2.81663e-07)
(0.00123359 -4.39185e-07 3.02748e-07)
(0.00123103 -6.42909e-07 3.3019e-07)
(0.00122846 -6.04014e-07 2.14451e-07)
(-0.0151725 -0.047574 -0.151679)
(-0.0119419 0.000962041 0.00421586)
(-0.00722945 0.0146619 -0.0487347)
(-0.00113982 0.00155658 -0.00639575)
(0.00764568 0.0251079 -0.0541416)
(-0.00281815 -0.000724808 -0.00189882)
(0.00133568 0.000226225 -4.09584e-07)
(0.00129727 4.9424e-05 1.00257e-07)
(0.00124966 1.92415e-05 3.9616e-07)
(0.00128338 6.93204e-06 3.22314e-07)
(0.00129261 2.31783e-06 3.23029e-07)
(0.00130019 7.21244e-07 3.24728e-07)
(0.00130375 1.67373e-08 3.25063e-07)
(0.0013052 -6.49347e-07 3.24595e-07)
(0.00130529 -4.61131e-07 3.25282e-07)
(0.00130444 -5.31299e-07 3.03662e-07)
(0.00130301 -8.89782e-08 3.43305e-07)
(0.00130097 -1.29762e-07 3.90024e-07)
(0.00129928 -8.15662e-08 3.86527e-07)
(0.00129743 3.86454e-07 2.94882e-07)
(0.00129502 7.61884e-07 2.19557e-07)
(0.0012924 3.47913e-07 3.56934e-07)
(0.00128989 6.23242e-07 2.69167e-07)
(0.00128845 8.59556e-07 2.64687e-07)
(0.0012865 6.43127e-07 3.31848e-07)
(0.00128345 3.02534e-07 3.13869e-07)
(0.00128075 2.36495e-07 4.41464e-07)
(0.0012787 -1.91026e-07 3.19217e-07)
(0.00127607 -9.63911e-07 3.16916e-07)
(0.0012732 -6.76273e-07 3.04831e-07)
(0.00127125 -5.19238e-07 6.31085e-08)
(0.00126927 -2.64596e-07 2.69655e-07)
(0.00126744 6.2823e-07 4.76293e-07)
(0.00126583 6.1281e-07 4.61075e-07)
(0.00126319 7.87473e-08 3.49157e-07)
(0.00126039 -3.24968e-08 2.99126e-07)
(0.00125831 1.07837e-07 2.98083e-07)
(0.0012565 5.66238e-07 8.83676e-08)
(0.00125334 1.15639e-06 3.28127e-07)
(0.0012503 6.39929e-07 3.0096e-07)
(0.00124849 3.04911e-07 3.234e-07)
(0.00124605 1.69075e-08 3.14849e-07)
(0.00124388 -2.51149e-07 2.9284e-07)
(0.00124267 -9.71743e-07 3.32531e-07)
(0.00124058 -1.96641e-07 3.4006e-07)
(0.00123771 -1.1454e-07 3.13663e-07)
(0.00123575 4.14355e-07 2.8201e-07)
(0.00123377 6.6287e-08 2.35596e-07)
(0.00123114 -1.91157e-07 2.63661e-07)
(0.00122935 -3.23555e-07 4.01324e-07)
(-0.0966091 -0.030908 0.0392098)
(-0.0353113 0.00500595 0.0237204)
(-0.00292658 -0.00781571 0.00901927)
(-0.0215727 -0.00523426 0.000791216)
(0.0300321 -0.034889 -0.00510106)
(-0.00167134 0.0242674 -0.00405573)
(0.000670813 3.41579e-05 6.52345e-06)
(0.00122986 -6.95956e-05 3.56404e-07)
(0.00122857 -3.47861e-05 4.96333e-07)
(0.00127583 -2.50425e-05 3.20425e-07)
(0.00129158 -1.59793e-05 3.22976e-07)
(0.00130069 -1.05468e-05 3.23886e-07)
(0.00130502 -6.98355e-06 3.25134e-07)
(0.00130655 -4.52574e-06 3.26263e-07)
(0.0013061 -2.90779e-06 3.25932e-07)
(0.00130529 -1.8609e-06 3.25266e-07)
(0.00130378 -1.24487e-06 3.09e-07)
(0.00130186 -7.14672e-07 3.47299e-07)
(0.00129953 -3.8726e-07 5.00676e-07)
(0.00129721 -2.3266e-07 3.1941e-07)
(0.00129511 -1.70075e-07 3.3128e-07)
(0.00129303 -1.73061e-08 3.21892e-07)
(0.00129098 3.15767e-07 3.31049e-07)
(0.00128794 4.10331e-07 3.187e-07)
(0.00128501 -1.05019e-07 3.53263e-07)
(0.00128282 -3.74444e-08 3.15263e-07)
(0.00128055 -3.21172e-08 3.19846e-07)
(0.00127775 -6.22815e-09 3.12737e-07)
(0.00127586 -1.24766e-07 1.87513e-07)
(0.00127445 6.18406e-07 2.2514e-07)
(0.0012721 8.70108e-07 4.19687e-07)
(0.0012704 8.72478e-07 5.25254e-07)
(0.00126799 7.78148e-07 2.02936e-07)
(0.00126442 4.74016e-07 1.70059e-07)
(0.00126227 -3.10011e-08 3.36569e-07)
(0.00126051 1.61638e-08 3.25871e-07)
(0.0012583 2.9315e-08 4.25526e-07)
(0.00125601 -1.0872e-07 3.41734e-07)
(0.00125356 -3.84142e-07 2.99248e-07)
(0.0012509 -2.34393e-08 3.5124e-07)
(0.00124834 1.55573e-07 5.7625e-08)
(0.00124599 3.20647e-07 3.41797e-07)
(0.00124402 9.79303e-07 3.18471e-07)
(0.00124282 1.08207e-06 3.39966e-07)
(0.00124099 6.69619e-07 3.32764e-07)
(0.00123855 6.15984e-07 2.73975e-07)
(0.00123576 9.98347e-07 2.89801e-07)
(0.00123284 8.11477e-07 3.20472e-07)
(0.00123055 3.91277e-07 3.20327e-07)
(0.0012291 2.38208e-07 5.00873e-07)
(-0.00399874 0.00655135 0.00424311)
(-0.000962 -0.0107082 -0.0259291)
(-0.00347531 0.00674704 0.00113838)
(0.0132849 0.0124565 -0.002641)
(-0.0283865 -0.00783956 0.0888572)
(0.0332953 0.00416755 0.00112042)
(0.00156317 -0.000167202 5.20652e-05)
(0.00131875 -0.000204191 2.09521e-07)
(0.00130473 -6.61372e-05 2.67765e-07)
(0.00130694 -5.12355e-05 2.27337e-07)
(0.00131077 -2.96022e-05 3.27112e-07)
(0.00131146 -1.84569e-05 2.96607e-07)
(0.00131129 -1.1771e-05 3.27022e-07)
(0.0013103 -7.23011e-06 3.2699e-07)
(0.00130862 -4.31617e-06 3.26196e-07)
(0.00130653 -2.49692e-06 3.25637e-07)
(0.00130445 -1.80541e-06 3.25355e-07)
(0.00130205 -1.13663e-06 2.33268e-07)
(0.00129989 -1.05477e-06 3.1752e-07)
(0.0012977 -6.34253e-07 2.93832e-07)
(0.00129529 -5.22848e-07 2.19066e-07)
(0.00129301 -3.45623e-07 3.21609e-07)
(0.00129042 -5.95909e-07 2.67052e-07)
(0.00128792 -6.14335e-07 4.17629e-07)
(0.00128594 -3.82399e-07 7.70714e-07)
(0.00128354 -7.01242e-08 2.65916e-07)
(0.00128079 2.76907e-07 3.85003e-07)
(0.00127858 7.47293e-07 3.87204e-07)
(0.00127685 1.43443e-06 3.37817e-07)
(0.00127444 1.14911e-06 3.07491e-07)
(0.00127156 7.72224e-07 3.62876e-07)
(0.00126915 9.55189e-07 2.47515e-07)
(0.00126693 4.70394e-08 3.00274e-07)
(0.00126482 3.52983e-09 3.15321e-07)
(0.00126262 3.59907e-07 3.39894e-07)
(0.00126047 1.61951e-07 3.23858e-07)
(0.00125815 2.81375e-08 2.93447e-07)
(0.00125599 -2.15709e-07 2.54792e-07)
(0.00125345 -4.58867e-07 1.93906e-07)
(0.00125098 -4.49119e-07 1.23851e-07)
(0.00124892 -6.52329e-08 1.86454e-07)
(0.00124707 2.81267e-07 3.60187e-07)
(0.00124483 6.17497e-07 6.29388e-07)
(0.00124227 1.00294e-06 -4.95508e-08)
(0.00123999 2.82678e-07 3.29821e-07)
(0.00123811 1.52386e-07 3.75613e-07)
(0.00123598 2.39851e-08 3.70104e-07)
(0.001233 5.05574e-07 2.89165e-07)
(0.00123041 3.65552e-07 3.68005e-07)
(0.00122856 4.55015e-07 5.28438e-07)
(0.00539684 -0.0225639 0.0093541)
(-0.0218049 0.0144216 0.00295025)
(-0.000375505 -0.0177327 -0.002275)
(0.00374928 0.00867732 -0.00939403)
(-0.00420513 0.00332208 0.0210139)
(-0.0369775 0.00683843 0.00359243)
(0.000881664 -0.00127886 -2.69073e-06)
(0.0013032 -0.000181357 -3.95023e-07)
(0.0014254 -6.5791e-05 6.10344e-07)
(0.00132176 -5.15624e-05 3.89568e-07)
(0.00133274 -3.02603e-05 3.54235e-07)
(0.00132309 -1.9323e-05 9.43282e-07)
(0.00131913 -1.13575e-05 5.13507e-07)
(0.00131591 -7.26282e-06 3.29316e-07)
(0.00131204 -4.74698e-06 2.91027e-07)
(0.00130844 -3.07711e-06 3.81233e-07)
(0.00130549 -1.79693e-06 3.26275e-07)
(0.00130281 -1.21079e-06 3.24091e-07)
(0.00130016 -5.5203e-07 4.72388e-07)
(0.00129788 -2.92683e-07 3.40807e-07)
(0.00129547 -1.11423e-07 3.56923e-07)
(0.00129295 -8.88449e-08 3.65768e-07)
(0.00129065 5.09205e-10 3.50204e-07)
(0.00128822 8.89286e-08 3.41345e-07)
(0.00128569 2.59435e-07 2.44818e-07)
(0.00128364 -1.05448e-07 3.56262e-07)
(0.00128156 2.38879e-07 3.73341e-07)
(0.00127919 4.42792e-07 3.2908e-07)
(0.00127635 6.7963e-07 2.81339e-07)
(0.00127361 5.02364e-07 2.99238e-07)
(0.00127184 2.5086e-07 3.45467e-07)
(0.00126949 -1.67551e-07 2.54287e-07)
(0.0012668 3.24013e-07 2.9215e-07)
(0.00126481 1.71389e-07 3.15735e-07)
(0.00126247 1.54552e-07 3.35878e-07)
(0.00126009 -2.94914e-08 3.12762e-07)
(0.00125783 -9.16151e-08 9.52354e-08)
(0.0012554 -1.24668e-07 3.3451e-07)
(0.00125327 -2.43096e-07 2.99845e-07)
(0.00125139 -1.61282e-07 -4.71305e-08)
(0.00124925 1.57495e-07 3.96484e-07)
(0.00124684 3.21499e-07 1.11342e-06)
(0.00124492 1.03639e-07 1.33689e-07)
(0.0012424 2.05839e-08 2.2808e-07)
(0.00123992 -1.61046e-07 3.43838e-07)
(0.00123823 -3.28473e-07 3.07824e-07)
(0.0012362 -8.99172e-07 8.56582e-08)
(0.00123326 -1.33424e-06 2.82524e-07)
(0.00123048 -4.59827e-07 3.35933e-07)
(0.00122808 6.86104e-08 3.22756e-07)
(-0.00408241 -0.0107119 0.00431335)
(-0.00623908 0.0052292 -0.00474241)
(-0.0192684 0.00466224 -0.00601176)
(-9.5275e-05 -0.00389951 0.00497988)
(-0.0259738 -0.0564482 -0.0353295)
(0.0128765 -0.0188629 -0.00546893)
(0.000683442 0.000343279 -0.000136832)
(0.00147509 -0.000164003 -1.82118e-07)
(0.00147402 -7.77606e-05 5.27348e-07)
(0.00135134 -3.37851e-05 3.76618e-07)
(0.00135132 -2.08156e-05 2.9703e-07)
(0.00133524 -1.20687e-05 3.97596e-07)
(0.00132646 -6.78043e-06 3.65485e-07)
(0.00131863 -4.33033e-06 3.29723e-07)
(0.00131389 -2.93444e-06 4.98339e-07)
(0.00131024 -1.96673e-06 3.3458e-07)
(0.0013068 -1.2196e-06 3.25896e-07)
(0.00130361 -7.32884e-07 2.99082e-07)
(0.00130104 -5.07136e-07 3.09813e-07)
(0.00129826 -1.71833e-07 4.88814e-07)
(0.00129555 -8.97189e-08 3.38458e-07)
(0.00129315 2.52849e-08 3.27753e-07)
(0.00129065 1.26674e-07 2.92876e-07)
(0.00128824 9.92997e-08 3.45055e-07)