/*--------------------------------*- C++ -*----------------------------------*\
| =========                 |                                                 |
| \\      /  F ield         | OpenFOAM: The Open Source CFD Toolbox           |
|  \\    /   O peration     | Version:  5.0                                   |
|   \\  /    A nd           | Web:      www.OpenFOAM.org                      |
|    \\/     M anipulation  |                                                 |
\*---------------------------------------------------------------------------*/
FoamFile
{
    version     2.0;
    format      ascii;
    class       volVectorField;
    location    "0.9";
    object      U_0;
}
// * * * * * * * * * * * * * * * * * * * * * * * * * * * * * * * * * * * * * //

dimensions      [0 1 -1 0 0 0 0];

internalField   nonuniform List<vector> 
10411
(
(0.0138618 -0.0179742 0.000167377)
(0.00421894 -0.00491555 0.00159645)
(0.0330262 -0.00109007 0.00160563)
(-0.00233809 -0.0121564 0.000121524)
(0.013343 0.0218415 -0.00419483)
(0.000571034 -0.000438338 -0.000144733)
(0.000461777 1.58014e-05 -1.21734e-06)
(0.000805223 3.76768e-05 -2.22125e-06)
(0.000769238 2.97098e-05 -1.68773e-07)
(0.000777767 2.10428e-05 9.39644e-08)
(0.000778983 1.4433e-05 7.59424e-08)
(0.000781234 9.45019e-06 6.98756e-08)
(0.0007829 6.19348e-06 -1.34152e-10)
(0.000783204 4.2221e-06 7.00129e-08)
(0.000782618 2.71464e-06 4.49552e-08)
(0.00078197 1.61256e-06 8.19436e-08)
(0.000781218 1.05622e-06 4.74031e-08)
(0.000780105 8.76803e-07 2.8389e-08)
(0.000778599 5.90326e-07 4.86922e-08)
(0.000777452 2.92243e-07 2.01647e-07)
(0.000776324 1.28043e-07 4.44109e-08)
(0.000774968 5.63401e-08 2.04518e-08)
(0.000773712 -2.58693e-07 5.17512e-08)
(0.000772449 1.52589e-07 4.09114e-08)
(0.000771131 4.39453e-07 6.07946e-08)
(0.000769841 4.26016e-07 6.99674e-08)
(0.000768604 2.6084e-07 5.935e-08)
(0.000767506 1.59401e-07 4.70206e-08)
(0.000765844 4.21722e-07 5.80054e-08)
(0.000764275 -1.92725e-07 5.69854e-08)
(0.000763051 -6.32608e-07 -6.75517e-08)
(0.000761436 -5.4285e-07 -5.72123e-10)
(0.000760321 -4.65235e-07 7.5857e-08)
(0.000759603 -1.97286e-07 8.48221e-08)
(0.000758426 7.58944e-08 4.0431e-08)
(0.000757035 2.10027e-07 5.37345e-08)
(0.000755329 2.50898e-07 8.72864e-08)
(0.000753778 2.14766e-07 3.08586e-08)
(0.000752612 3.83264e-07 5.53845e-08)
(0.000751633 4.43767e-07 6.25713e-08)
(0.000750561 7.15505e-08 2.80772e-08)
(0.000749058 2.31791e-09 7.28998e-08)
(0.000747834 -2.90902e-07 9.1834e-08)
(0.000746627 -4.02378e-07 2.42608e-07)
(0.00074525 -1.86464e-07 3.41147e-08)
(0.000743864 -1.11854e-07 1.64117e-08)
(0.000742598 -1.77412e-07 6.21729e-08)
(0.000741321 -5.48508e-07 3.73396e-08)
(0.000739747 -4.40488e-07 -1.59456e-08)
(0.000738097 -2.60485e-07 6.47296e-08)
(0.000359909 0.000820029 0.00750365)
(0.0032087 0.00729583 -0.00412931)
(0.0346992 -0.0124497 0.00164328)
(-0.01779 -0.00953516 -0.000201923)
(0.00491493 -0.000807117 0.000835902)
(-0.00296126 -0.0015216 -8.42798e-05)
(0.000480506 5.11113e-05 -5.00064e-07)
(0.000791382 5.20626e-05 -1.92576e-06)
(0.000752443 2.68787e-05 -2.20872e-07)
(0.000767282 1.41897e-05 9.35135e-08)
(0.000772056 7.78616e-06 3.35899e-08)
(0.000776873 4.51493e-06 5.6007e-08)
(0.000779635 2.66055e-06 5.20215e-08)
(0.000781071 1.35818e-06 4.79626e-08)
(0.00078145 8.12031e-07 4.92179e-08)
(0.000781344 4.17769e-07 1.69133e-07)
(0.000780867 3.72537e-07 4.65227e-08)
(0.000779979 9.1582e-08 6.11525e-08)
(0.000778668 7.07139e-08 4.01911e-08)
(0.000777289 1.63323e-07 1.97274e-08)
(0.000776116 2.18605e-07 6.89595e-08)
(0.000774499 3.00595e-07 6.9011e-08)
(0.000773762 8.74271e-07 5.41363e-08)
(0.000773156 4.05736e-07 1.37895e-07)
(0.000771329 3.37897e-07 5.1033e-08)
(0.000769669 9.83933e-08 7.21144e-08)
(0.000768371 3.99151e-09 2.58463e-08)
(0.000767407 -2.15915e-07 4.28262e-08)
(0.000765556 -9.25687e-07 -1.59118e-08)
(0.000763541 -5.30917e-07 1.7742e-08)
(0.000762812 -5.18112e-07 1.44987e-07)
(0.000761973 -2.7415e-07 4.52517e-08)
(0.000760772 3.80291e-07 2.06149e-07)
(0.000759687 5.76535e-07 2.83084e-08)
(0.000758375 2.13208e-07 4.07117e-08)
(0.000756869 5.5428e-08 3.10401e-08)
(0.000755577 -3.39831e-08 3.72203e-08)
(0.000754314 1.60355e-07 5.22183e-08)
(0.000752939 3.41789e-07 3.68782e-08)
(0.000751422 5.59535e-07 5.2419e-08)
(0.000750075 2.3276e-07 5.58597e-08)
(0.000748771 -2.26082e-07 4.74043e-08)
(0.00074751 -5.02833e-07 2.91771e-08)
(0.000746574 -2.14943e-07 1.96305e-08)
(0.000745363 -6.42983e-08 4.64169e-08)
(0.000743958 -7.46824e-08 6.8047e-08)
(0.000742506 -5.78479e-08 4.85725e-08)
(0.000741202 -1.65526e-07 4.92695e-08)
(0.000739703 -3.65144e-07 1.90109e-08)
(0.000738675 -2.49906e-07 2.20727e-08)
(-0.0594097 -0.0293384 0.00408259)
(-0.0156561 -0.00607678 0.00267965)
(-0.00520074 0.00296726 0.00205872)
(-0.00516473 0.020886 -0.000841797)
(-0.00317024 -0.00311871 0.00326881)
(0.00701903 0.00156191 -0.000183843)
(0.000234988 2.57696e-05 5.2519e-06)
(0.000716607 2.66407e-06 -1.11446e-06)
(0.000721241 -1.71267e-06 -8.21886e-08)
(0.000753721 -5.68716e-06 1.68707e-07)
(0.000766783 -4.78321e-06 7.5586e-08)
(0.000774761 -3.59652e-06 6.81012e-08)
(0.000778914 -2.54882e-06 5.64257e-08)
(0.00078087 -1.71412e-06 5.43075e-08)
(0.000781429 -1.12313e-06 5.3093e-08)
(0.000781412 -6.93288e-07 5.45466e-08)
(0.000780806 -6.19725e-07 4.3494e-08)
(0.000779726 -5.10979e-07 7.61541e-08)
(0.000778687 -5.69835e-07 8.61719e-08)
(0.000777635 -2.37599e-07 9.47397e-08)
(0.000776493 -5.59728e-08 3.98355e-08)
(0.000775783 7.86801e-08 3.77533e-08)
(0.000773839 4.18202e-07 4.07124e-08)
(0.000771774 5.47016e-08 -2.09048e-07)
(0.000770744 -2.17593e-07 3.62767e-08)
(0.000769422 -1.38204e-07 4.70771e-08)
(0.000768211 -1.55345e-07 3.27487e-08)
(0.000766347 -1.45433e-07 6.14703e-08)
(0.000765455 -3.18635e-07 -9.26531e-08)
(0.00076479 4.04258e-07 2.60696e-08)
(0.000763376 7.9115e-07 8.69283e-08)
(0.00076256 7.37662e-07 9.33069e-08)
(0.000761382 4.93082e-07 3.35711e-07)
(0.000759391 4.20503e-07 1.28654e-07)
(0.000757772 1.88767e-07 7.76941e-08)
(0.000756725 1.3796e-07 4.97058e-08)
(0.000755459 1.15813e-07 5.43454e-08)
(0.000754245 9.78955e-09 5.63461e-08)
(0.000753108 -2.82853e-09 4.10402e-08)
(0.000751494 -1.8083e-07 9.09379e-08)
(0.000749577 -1.3107e-07 6.39059e-08)
(0.00074814 -3.2325e-09 6.75324e-08)
(0.000747852 5.17978e-07 2.064e-07)
(0.000747179 2.50793e-07 7.76518e-08)
(0.000745429 1.23778e-07 7.98076e-08)
(0.000743873 8.32671e-08 7.07352e-08)
(0.000742487 2.08877e-07 5.33436e-08)
(0.000740938 1.10853e-07 5.08769e-08)
(0.000739648 2.5787e-08 6.00817e-08)
(0.000738863 6.14517e-08 6.92129e-08)
(0.00431846 0.0142707 -0.000321033)
(0.023738 -0.00566958 0.00571932)
(0.0450348 0.0297459 -0.00160552)
(-0.0093832 -0.00790322 0.000772198)
(-0.00176639 -0.000779339 0.000442188)
(0.0034972 -0.000107256 -0.000147718)
(0.000363761 -7.966e-05 4.0049e-05)
(0.000708846 -0.000117886 -2.12047e-06)
(0.000741861 -4.09027e-05 -8.63993e-09)
(0.000763423 -3.20291e-05 6.95475e-08)
(0.00077466 -1.86937e-05 6.49579e-08)
(0.00077966 -1.17489e-05 -2.10178e-07)
(0.000781985 -7.49585e-06 5.28354e-08)
(0.000782851 -4.56655e-06 5.10702e-08)
(0.000782724 -2.65255e-06 4.58774e-08)
(0.000781973 -1.58707e-06 4.49126e-08)
(0.000781096 -1.14767e-06 4.94259e-08)
(0.000780043 -8.04729e-07 1.87114e-08)
(0.000779012 -5.46391e-07 3.78224e-08)
(0.000777933 -4.07587e-07 2.47821e-08)
(0.000776511 -2.81006e-07 7.2764e-08)
(0.000775091 -3.49585e-07 4.65353e-08)
(0.000773731 -8.02101e-07 -3.09864e-08)
(0.000772361 -3.16282e-07 5.71329e-08)
(0.000771088 -2.05196e-07 1.77627e-08)
(0.000769748 5.43048e-08 6.45603e-08)
(0.000768362 1.9951e-07 5.97735e-08)
(0.000767204 3.49976e-07 7.70739e-08)
(0.000766242 1.04514e-06 -1.47914e-09)
(0.000764925 7.34103e-07 4.58203e-08)
(0.000763223 8.10058e-07 1.48013e-08)
(0.000761595 7.84829e-07 -7.22391e-09)
(0.000760371 2.3298e-07 3.21609e-08)
(0.000759304 -8.62751e-08 4.60108e-08)
(0.000758021 7.38314e-08 2.01796e-08)
(0.000756777 7.61659e-08 2.39425e-07)
(0.000755417 1.11913e-07 3.33101e-08)
(0.000754166 -6.63923e-08 4.00259e-08)
(0.000752701 -3.45674e-07 1.43029e-08)
(0.000751263 -4.18876e-07 3.35802e-08)
(0.000750297 -1.89589e-07 4.71325e-08)
(0.00074958 1.94952e-07 1.52102e-07)
(0.000747824 5.37204e-07 4.16757e-08)
(0.000746077 2.85882e-07 1.01254e-08)
(0.000745151 -1.53039e-08 -4.90392e-08)
(0.000744062 -1.30682e-09 2.64191e-07)
(0.000742537 3.84534e-08 8.1551e-08)
(0.000740971 9.37968e-08 1.80706e-08)
(0.000739638 3.26845e-07 4.02236e-08)
(0.000738566 2.41135e-07 4.21593e-08)
(-0.000878596 0.00373859 0.00148685)
(0.0145108 -0.0117785 0.00102451)
(-0.0228103 -0.0134656 0.00045849)
(0.0410743 0.011059 0.0019779)
(-0.000815515 0.0184223 -0.00197743)
(-0.00227308 -0.00202594 -2.58843e-05)
(0.00108387 -0.000325607 -5.87299e-06)
(0.000397934 -0.000101305 -2.6547e-06)
(0.000837735 -6.40365e-05 -1.21038e-06)
(0.000781606 -4.35577e-05 -4.21437e-07)
(0.000792225 -2.49069e-05 1.48627e-07)
(0.000788812 -1.54102e-05 2.5913e-09)
(0.000787925 -9.05541e-06 9.495e-08)
(0.000786944 -5.69164e-06 4.83182e-08)
(0.000785165 -3.7029e-06 -3.97934e-09)
(0.0007833 -2.33823e-06 -2.74916e-08)
(0.000781787 -1.2996e-06 4.62277e-08)
(0.00078048 -7.83439e-07 4.8745e-08)
(0.000779186 -3.42952e-07 4.76445e-08)
(0.000777969 -1.50399e-07 -2.26149e-08)
(0.000776568 -2.14742e-07 5.97478e-08)
(0.000775135 -1.00494e-07 2.5429e-07)
(0.000773885 -9.25597e-08 5.3817e-08)
(0.000772523 -1.2543e-08 9.00722e-08)
(0.000771209 1.45218e-07 7.21988e-08)
(0.000769928 4.34173e-08 5.87398e-08)
(0.000768578 1.82734e-07 6.45173e-08)
(0.000767399 2.05842e-07 3.02595e-08)
(0.000765928 1.99767e-07 3.80837e-09)
(0.000764488 1.05082e-07 4.64578e-08)
(0.000763431 1.88195e-07 4.48252e-08)
(0.000761833 -2.00614e-07 3.68629e-08)
(0.00076029 1.16781e-07 4.33377e-08)
(0.000759191 3.65228e-08 4.75258e-08)
(0.000757975 7.90185e-08 4.32613e-08)
(0.000756772 -5.35139e-08 4.30059e-08)
(0.000755281 -1.98118e-07 4.30606e-08)
(0.000753674 -7.076e-08 4.56726e-08)
(0.000752669 -9.82405e-08 9.23726e-08)
(0.000751691 9.65683e-08 6.87589e-08)
(0.000750345 3.12776e-07 4.99071e-08)
(0.000749046 4.81906e-07 1.78255e-07)
(0.000747962 1.35177e-07 5.80269e-08)
(0.000746485 1.12019e-07 -1.83541e-07)
(0.000745067 7.55471e-09 1.14066e-07)
(0.00074394 -1.46241e-07 4.45537e-08)
(0.000742605 -4.30648e-07 -3.92761e-08)
(0.000741297 -3.70464e-07 -9.88134e-09)
(0.000739826 -2.95911e-07 1.09452e-08)
(0.000738156 9.84814e-08 9.16371e-08)
(-0.00679831 -0.0241349 0.000204186)
(-0.00588028 0.000239845 -0.000636043)
(-0.0113144 -0.0246933 -0.00311877)
(0.0204451 -0.0184557 0.00128995)
(-0.00942686 0.00913997 0.000101909)
(0.00027784 -0.00691961 -0.000348821)
(0.00127963 -0.000165825 1.69515e-05)
(0.000512282 -9.02471e-05 -1.54435e-06)
(0.000892257 -6.74697e-05 -1.26301e-06)
(0.000812379 -3.26266e-05 -4.352e-07)
(0.000809989 -1.99871e-05 1.41152e-07)
(0.000799562 -1.18123e-05 3.16035e-08)
(0.000794189 -6.92776e-06 6.09436e-08)
(0.000789577 -4.38482e-06 3.82593e-08)
(0.000786939 -2.94284e-06 7.41829e-08)
(0.000784992 -1.8771e-06 8.35703e-08)
(0.000783048 -1.10241e-06 4.6246e-08)
(0.000781244 -5.74832e-07 6.49179e-08)
(0.000779805 -3.04584e-07 1.72343e-08)
(0.000778095 -1.16365e-07 5.47821e-08)
(0.000776574 -5.05218e-08 -8.4878e-08)
(0.000775244 2.63972e-08 8.06552e-08)
(0.000773841 6.42316e-08 5.83957e-08)
(0.000772658 4.75186e-08 3.56572e-08)
(0.000771158 3.3998e-08 5.79497e-08)
(0.000769793 5.12642e-08 4.16625e-08)
(0.000768564 -8.30189e-08 3.59385e-08)
(0.000767223 -1.60893e-07 1.25341e-08)
(0.000766114 -1.8692e-07 7.9752e-08)
(0.000764908 -3.47801e-07 8.35669e-08)
(0.00076284 -6.21189e-07 -1.04823e-08)
(0.000761504 -4.57533e-07 -1.28591e-08)
(0.000760667 -3.22493e-07 9.99364e-09)
(0.000759255 -1.87125e-07 7.40056e-08)
(0.000757908 -1.95696e-07 -3.85544e-09)
(0.000756431 -1.26513e-07 4.57073e-08)
(0.000755397 -1.59978e-07 6.08264e-08)
(0.000754292 1.02971e-07 5.16226e-08)
(0.000752911 2.63249e-07 1.15506e-07)
(0.000751776 1.9816e-07 6.76691e-08)
(0.000750778 2.64707e-07 2.79401e-08)
(0.000749356 3.38276e-07 -4.53259e-08)
(0.00074736 2.76241e-07 3.12111e-08)
(0.000745918 4.68498e-08 5.25356e-08)
(0.000744829 8.00611e-08 4.47479e-08)
(0.000743517 -1.37355e-07 4.68497e-08)
(0.000742261 -4.69272e-07 -3.46674e-07)
(0.000741143 -5.21553e-07 5.88468e-08)
(0.000740225 -4.38128e-07 1.07575e-07)
(0.000738812 -1.62938e-07 1.79343e-07)
(0.0191968 -0.0203043 -0.000957806)
(0.0102253 -0.00545594 0.00125776)
(-0.014219 0.000893339 -0.00590209)
(-0.0249543 0.0079342 0.00171653)
(0.0103404 -0.00484238 -0.000638964)
(-0.000193344 0.00318381 -0.00297789)
(0.000952385 -6.50472e-05 -9.88008e-06)
(0.00099974 4.24748e-05 -2.63497e-06)
(0.000879537 -1.4697e-05 -5.36062e-07)
(0.000841263 -3.2761e-06 -6.38774e-08)
(0.000818393 -4.03141e-06 -1.80258e-08)
(0.000805232 -2.48675e-06 1.07283e-08)
(0.000797268 -1.97751e-06 2.94143e-08)
(0.000791962 -1.20544e-06 3.875e-08)
(0.000788324 -6.1917e-07 4.51656e-08)
(0.000785616 -3.48635e-07 4.56532e-08)
(0.000783425 -2.0076e-07 4.43872e-08)
(0.000781483 -1.66063e-07 4.16741e-08)
(0.000779761 -7.06208e-08 9.5446e-08)
(0.000778287 -2.57445e-07 5.13641e-08)
(0.000776746 -4.35905e-08 4.31066e-08)
(0.000775278 -6.34674e-08 4.12503e-08)
(0.00077391 1.24719e-07 3.63159e-08)
(0.000772485 1.45399e-08 4.45712e-08)
(0.000771213 -8.39112e-09 6.95834e-09)
(0.000769781 1.36939e-07 1.26296e-07)
(0.000768314 -4.81558e-08 5.39861e-08)
(0.00076727 -1.06803e-07 7.46582e-08)
(0.000765697 -4.6803e-07 6.20636e-08)
(0.000763949 -8.61143e-07 2.04174e-08)
(0.000763299 -7.14363e-07 1.34611e-07)
(0.000762211 -1.97406e-07 5.99301e-08)
(0.000760631 -1.84914e-07 5.63614e-08)
(0.000759352 -1.35768e-07 -4.85613e-08)
(0.000758052 -1.53838e-07 7.43311e-08)
(0.000756818 -1.17067e-08 5.65006e-08)
(0.000755568 1.75061e-07 4.83822e-08)
(0.000754203 3.13625e-08 5.41469e-08)
(0.000752787 1.43885e-07 4.40441e-08)
(0.000751691 2.89222e-07 6.69012e-09)
(0.000750518 8.24193e-09 4.02371e-08)
(0.000749058 -3.21822e-07 -6.5137e-10)
(0.000747596 -3.40672e-07 3.39809e-08)
(0.000746239 -1.33862e-07 4.99932e-08)
(0.000744838 -9.39539e-08 7.80643e-11)
(0.000743255 8.16901e-09 4.77353e-08)
(0.000742128 -1.63011e-08 1.4079e-08)
(0.000741341 -2.84517e-07 6.43251e-08)
(0.000740283 -1.37191e-07 1.69103e-07)
(0.000738905 -3.16794e-07 6.48247e-08)
(0.00815744 0.00516002 7.41191e-05)
(0.010527 0.0084709 -0.000695892)
(-0.0188314 0.00168496 0.00277705)
(-0.0155095 -0.0134344 -0.00110455)
(-0.00610823 -0.0175834 0.00132184)
(0.00926363 -0.0105119 0.000651872)
(0.000578387 0.000203665 6.24955e-05)
(0.000910664 0.000102911 -2.56363e-06)
(0.000837785 4.85527e-05 -2.72269e-07)
(0.000825854 2.51653e-05 4.15114e-08)
(0.000811074 1.30558e-05 1.01645e-09)
(0.000802195 7.2325e-06 3.08637e-08)
(0.00079583 4.09055e-06 3.69729e-08)
(0.0007913 2.34056e-06 3.92139e-08)
(0.000788024 1.39817e-06 4.35821e-08)
(0.000785523 7.92357e-07 4.36427e-08)
(0.000783281 3.20224e-07 1.02126e-07)
(0.000781409 1.84718e-07 4.51419e-08)
(0.000779693 5.30302e-08 8.3213e-08)
(0.00077813 7.53789e-08 3.6302e-08)
(0.000776818 -7.36683e-08 4.58178e-08)
(0.000775454 -5.77701e-08 4.31566e-08)
(0.000773938 -1.72571e-07 1.96043e-08)
(0.000772491 -1.15387e-07 4.43739e-08)
(0.00077131 -2.28136e-07 3.72513e-08)
(0.000769743 -2.75627e-07 4.04928e-08)
(0.00076826 -2.07743e-08 -7.07547e-10)
(0.000766701 -4.08759e-08 2.08034e-08)
(0.000765176 -1.50925e-07 2.44034e-08)
(0.000764607 3.41943e-07 7.26506e-08)
(0.000763675 4.47612e-07 8.69335e-08)
(0.000762169 1.63503e-07 1.08517e-07)
(0.000760746 2.6415e-07 5.22318e-08)
(0.000759296 1.1085e-07 4.40788e-08)
(0.000758064 6.09434e-08 3.77505e-08)
(0.000756843 -1.01671e-07 5.30376e-08)
(0.00075545 -2.33201e-07 5.31843e-08)
(0.000754253 -1.71465e-07 2.63854e-08)
(0.000753232 7.92618e-08 3.87809e-08)
(0.000751606 1.42139e-07 6.92896e-08)
(0.000750014 -5.16498e-08 1.39693e-08)
(0.000748922 -8.88213e-08 4.74378e-08)
(0.000747598 -1.55513e-07 2.1272e-08)
(0.000746228 -1.1592e-07 4.83989e-08)
(0.000745008 -6.44053e-08 5.47999e-08)
(0.000743615 1.00169e-07 4.38496e-08)
(0.000741896 4.79322e-07 5.95804e-08)
(0.000740994 5.86937e-07 7.16637e-08)
(0.000740194 9.01881e-08 2.19492e-09)
(0.000739377 -8.04047e-08 1.00125e-07)
(-0.00579172 0.0112348 0.000392361)
(-0.00536431 -0.00729526 -0.00199871)
(0.0151617 0.00963432 0.00079845)
(-0.0123839 0.034759 0.00228743)
(-0.00909567 -0.0020169 0.000806553)
(-0.00239306 -0.000263558 0.000270952)
(0.000202621 0.000138222 4.91996e-06)
(0.000780443 8.29538e-05 -1.60367e-06)
(0.000783431 5.05758e-05 1.62891e-07)
(0.000796874 3.14761e-05 1.98695e-07)
(0.000795974 1.92886e-05 7.58087e-08)
(0.000794027 1.20432e-05 5.36667e-08)
(0.000791156 7.38827e-06 3.66281e-08)
(0.000788598 4.38909e-06 4.83236e-08)
(0.00078639 2.73056e-06 4.45075e-08)
(0.00078427 1.76759e-06 1.072e-07)
(0.000782666 1.06387e-06 9.25423e-08)
(0.00078115 5.83678e-07 3.89252e-08)
(0.000779625 3.93082e-07 5.22664e-08)
(0.00077813 3.53199e-07 7.67626e-08)
(0.000776581 1.86263e-07 4.71955e-08)
(0.000775156 2.89411e-08 5.05595e-08)
(0.00077384 -1.91669e-07 4.89033e-09)
(0.000772418 -2.09288e-07 4.95983e-08)
(0.000771015 -3.58687e-07 6.49814e-08)
(0.000770043 -4.68168e-07 5.43962e-08)
(0.000768609 -2.40073e-07 1.68392e-08)
(0.000767109 -1.13007e-07 7.30507e-08)
(0.000766176 1.65176e-07 -2.20457e-07)
(0.000764695 5.44528e-07 2.7888e-08)
(0.000763073 3.67627e-07 1.65324e-07)
(0.000761979 2.03208e-07 6.34597e-08)
(0.000760564 4.02867e-08 6.39224e-08)
(0.000759097 -1.23971e-07 1.16419e-08)
(0.000757786 -1.89841e-07 2.44162e-08)
(0.000756451 -2.82766e-07 5.74289e-08)
(0.000755482 -3.43655e-07 9.76045e-08)
(0.000754594 -1.85158e-07 4.12498e-08)
(0.000753179 -4.26081e-07 8.15411e-08)
(0.000751527 -6.48727e-07 3.47854e-08)
(0.00075023 -2.61499e-07 4.3839e-08)
(0.00074893 -1.59169e-07 -2.36189e-08)
(0.000747564 -2.15807e-08 4.257e-08)
(0.000746354 1.73428e-07 3.95408e-08)
(0.000745109 1.49085e-07 5.30139e-08)
(0.000743934 1.66659e-07 -9.20368e-09)
(0.000742734 4.15484e-07 3.34297e-08)
(0.000740851 1.09264e-06 2.52158e-08)
(0.000739449 8.47803e-07 -7.12612e-08)
(0.00073889 4.17346e-07 9.13837e-08)
(-0.00446131 0.00034554 0.000792527)
(-0.0257873 0.00286787 0.000309947)
(-0.00592097 0.0158838 -0.000543819)
(0.0134167 -0.0410968 6.79212e-06)
(-0.00895106 0.02068 -0.00209351)
(0.00287234 -3.82008e-05 0.000222653)
(0.000430779 -2.76619e-05 -1.85055e-07)
(0.000806565 3.61537e-05 -1.88275e-06)
(0.000773257 3.29623e-05 -2.85041e-07)
(0.000786606 2.52989e-05 1.16076e-07)
(0.000786693 1.78389e-05 8.76906e-08)
(0.000787265 1.18137e-05 6.87312e-08)
(0.000786229 7.67251e-06 3.94795e-07)
(0.000785458 5.25263e-06 4.40238e-08)
(0.000784736 3.38519e-06 5.4723e-08)
(0.000783433 2.25404e-06 6.25574e-08)
(0.000781797 1.55732e-06 4.54564e-08)
(0.000780568 1.10326e-06 7.00384e-08)
(0.000779403 7.27231e-07 7.34969e-08)
(0.000777869 2.8525e-07 4.56228e-08)
(0.000776412 1.86591e-07 1.29565e-08)
(0.000774982 8.03632e-08 5.35164e-08)
(0.000773642 3.61694e-08 5.14137e-08)
(0.000772285 -2.1586e-08 4.46145e-08)
(0.000770991 6.14376e-08 5.76436e-08)
(0.000769896 7.16653e-08 4.04399e-08)
(0.000768707 -9.9708e-08 4.99231e-08)
(0.000767208 6.7708e-08 4.37765e-08)
(0.000765997 2.18393e-07 -9.4704e-08)
(0.000764857 -1.97328e-07 3.11053e-08)
(0.000763245 -1.18369e-07 8.63911e-08)
(0.000761759 -2.16649e-07 5.32953e-08)
(0.000760337 -5.54929e-07 2.4745e-08)
(0.00075901 -4.13984e-07 -1.1804e-08)
(0.000757867 -1.52287e-07 3.86304e-08)
(0.000756652 9.65898e-08 5.91116e-08)
(0.000755574 3.15248e-07 -2.632e-08)
(0.000754152 -2.54686e-08 4.71066e-08)
(0.000752656 -3.38626e-07 7.55725e-09)
(0.000751815 -4.80958e-07 6.32159e-08)
(0.000750629 -2.56228e-07 6.30127e-08)
(0.000749223 -2.18325e-07 2.04155e-08)
(0.000748014 -1.551e-07 4.32886e-08)
(0.00074644 -1.86969e-09 2.10465e-08)
(0.000744998 6.39463e-08 -3.43173e-08)
(0.000743945 1.13176e-07 -3.78121e-08)
(0.000743049 9.34491e-09 1.81962e-08)
(0.000741527 6.34492e-09 1.75373e-08)
(0.000739334 3.86239e-07 -4.63438e-08)
(0.000737801 2.52114e-07 6.22323e-08)
(0.00751948 -0.0218871 -0.0140712)
(0.00440139 -0.00186471 -0.025351)
(-0.0575998 0.0526071 -0.00390737)
(-0.0139538 -0.00722787 0.00739389)
(-0.0227268 0.020018 0.0271233)
(-0.000575689 -0.00490154 -0.00224199)
(0.00140643 9.66796e-05 -4.23715e-07)
(0.00134949 6.86383e-05 3.32946e-07)
(0.00128843 5.14124e-05 3.09122e-07)
(0.00130045 3.54785e-05 3.42638e-07)
(0.0013009 2.39455e-05 3.00643e-07)
(0.00130346 1.55099e-05 3.31302e-07)
(0.00130542 1.00608e-05 2.47492e-07)
(0.00130535 6.84909e-06 2.54967e-07)
(0.00130398 4.38532e-06 3.30884e-07)
(0.00130263 2.61406e-06 3.62337e-07)
(0.00130115 1.68624e-06 3.23482e-07)
(0.00129922 1.39015e-06 8.28167e-08)
(0.00129658 8.96791e-07 3.73386e-07)
(0.00129452 3.91823e-07 5.13429e-07)
(0.00129267 1.73416e-07 3.06383e-07)
(0.00129037 1.5923e-07 3.24154e-07)
(0.00128815 -3.1977e-07 3.11519e-07)
(0.00128601 2.82901e-07 2.75827e-07)
(0.00128378 7.53117e-07 3.41016e-07)
(0.00128156 7.8499e-07 3.39719e-07)
(0.00127949 4.78298e-07 2.84135e-07)
(0.00127767 2.59918e-07 3.28777e-07)
(0.00127484 6.33414e-07 4.22892e-07)
(0.00127214 -3.75394e-07 4.85706e-07)
(0.00127008 -1.09038e-06 2.38342e-07)
(0.00126735 -9.26507e-07 1.3546e-07)
(0.00126547 -7.35029e-07 3.2946e-07)
(0.00126428 -2.7268e-07 3.14385e-07)
(0.0012623 2.00972e-07 3.06007e-07)
(0.0012599 4.12974e-07 3.1007e-07)
(0.00125698 4.42631e-07 4.03212e-07)
(0.00125435 4.04286e-07 2.80506e-07)
(0.00125247 7.13249e-07 2.09216e-07)
(0.00125084 7.19741e-07 3.34663e-07)
(0.00124893 1.20727e-07 2.7499e-07)
(0.00124642 4.24864e-09 3.46696e-07)
(0.00124452 -5.57514e-07 3.65597e-07)
(0.00124238 -6.57704e-07 7.08402e-07)
(0.00123998 -3.47005e-07 3.15022e-07)
(0.00123771 -2.27775e-07 3.14722e-07)
(0.00123553 -2.69832e-07 2.97642e-07)
(0.00123346 -8.37373e-07 2.95104e-07)
(0.00123081 -7.11243e-07 2.13442e-07)
(0.00122801 -4.61393e-07 3.35143e-07)
(0.0255386 -0.0171601 -0.0756979)
(-0.031514 0.00873547 -0.0111847)
(-0.0155639 0.00143392 -0.0738484)
(0.00142618 0.00125545 -0.00704853)
(0.00437332 0.029883 -0.0495339)
(0.00200451 -0.000910129 -0.00114754)
(0.00140901 0.000149379 -2.53157e-06)
(0.00132036 8.94643e-05 -8.1495e-08)
(0.00125748 4.68786e-05 3.65487e-07)
(0.0012816 2.52917e-05 3.28638e-07)
(0.00128871 1.41504e-05 3.17964e-07)
(0.00129588 8.33408e-06 3.22431e-07)
(0.00129981 4.97213e-06 3.23226e-07)
(0.00130171 2.61042e-06 3.22994e-07)
(0.00130199 1.5723e-06 3.25731e-07)
(0.00130156 8.24356e-07 6.45055e-07)
(0.00130058 6.86152e-07 3.26049e-07)
(0.00129893 1.81328e-07 3.94495e-07)
(0.00129666 1.12414e-07 2.88523e-07)
(0.00129435 2.91966e-07 2.90611e-07)
(0.00129235 4.06969e-07 3.33183e-07)
(0.00128964 4.90404e-07 3.3462e-07)
(0.00128822 1.39348e-06 2.75186e-07)
(0.00128711 6.97445e-07 3.9783e-07)
(0.00128415 6.19393e-07 3.14933e-07)
(0.0012813 2.22438e-07 4.18392e-07)
(0.00127903 6.75924e-08 2.98303e-07)
(0.00127735 -3.50394e-07 3.17803e-07)
(0.00127432 -1.5515e-06 3.33765e-07)
(0.00127104 -8.96883e-07 -4.13132e-08)
(0.00126975 -8.36586e-07 3.56539e-07)
(0.00126828 -4.50454e-07 2.90303e-07)
(0.00126626 7.27451e-07 6.42854e-07)
(0.00126444 9.86347e-07 3.17756e-07)
(0.00126219 3.5078e-07 2.81981e-07)
(0.0012596 7.13013e-08 2.63132e-07)
(0.00125741 -3.50575e-08 3.01974e-07)
(0.00125533 3.14038e-07 3.59051e-07)
(0.00125293 6.52882e-07 3.40526e-07)
(0.00125035 9.23947e-07 3.76949e-07)
(0.00124812 3.68421e-07 3.19175e-07)
(0.00124588 -3.44919e-07 3.20973e-07)
(0.00124378 -7.68449e-07 2.42533e-07)
(0.00124229 -4.93798e-07 4.149e-07)
(0.00124025 -1.53254e-07 2.79655e-07)
(0.00123791 -1.91754e-07 3.25612e-07)
(0.0012355 -6.19228e-08 2.84815e-07)
(0.00123323 -2.46503e-07 2.84899e-07)
(0.00123075 -5.77425e-07 1.87083e-07)
(0.00122903 -4.25682e-07 2.06373e-07)
(-0.107679 -0.0360324 0.0460272)
(-0.048718 -0.00589765 0.0149353)
(-0.0329486 -0.00854802 0.00613056)
(-0.026235 -0.00408498 0.00224414)
(0.0385841 -0.0418309 -0.00102413)
(0.000394767 0.0216778 -0.00412307)
(0.000827245 0.000151638 8.03846e-06)
(0.00120436 5.89765e-06 3.29771e-07)
(0.00120705 4.10574e-07 4.86792e-07)
(0.00125924 -6.32499e-06 3.15285e-07)
(0.00127952 -5.52232e-06 3.1852e-07)
(0.00129188 -4.26417e-06 3.19028e-07)
(0.0012982 -3.06025e-06 3.21976e-07)
(0.00130106 -2.07817e-06 3.23711e-07)
(0.00130172 -1.37538e-06 3.24054e-07)
(0.00130151 -8.54432e-07 3.25492e-07)
(0.00130034 -8.39228e-07 3.21145e-07)
(0.0012985 -7.4327e-07 2.74707e-07)
(0.00129672 -8.52147e-07 3.94449e-07)
(0.00129489 -3.59229e-07 3.76465e-07)
(0.00129291 -9.14477e-08 3.1339e-07)
(0.0012916 9.90751e-08 3.26747e-07)
(0.00128841 6.22088e-07 3.38856e-07)
(0.00128503 1.21003e-07 4.02642e-08)
(0.00128318 -3.74699e-07 2.74898e-07)
(0.00128087 -2.19451e-07 3.23804e-07)
(0.00127877 -2.15106e-07 1.7474e-07)
(0.00127565 -1.75307e-07 3.11592e-07)
(0.00127416 -4.43151e-07 2.25396e-08)
(0.00127304 7.18957e-07 2.47583e-07)
(0.00127064 1.31126e-06 3.21646e-07)
(0.0012693 1.21297e-06 3.21618e-07)
(0.00126726 7.99658e-07 8.49614e-07)
(0.0012638 6.71357e-07 4.48953e-07)
(0.00126115 2.53926e-07 3.06159e-07)
(0.00125942 1.85391e-07 3.20151e-07)
(0.00125728 1.69657e-07 2.69565e-07)
(0.0012552 9.768e-09 3.47003e-07)
(0.00125322 -3.11302e-08 3.18425e-07)
(0.00125048 -2.57998e-07 4.15765e-07)
(0.00124734 -1.76726e-07 3.56374e-07)
(0.001245 5.94359e-08 3.55071e-07)
(0.00124434 9.23196e-07 4.51878e-07)
(0.00124315 5.52615e-07 2.68724e-07)
(0.00124037 3.34527e-07 3.2551e-07)
(0.00123783 2.55716e-07 3.62138e-07)
(0.00123547 3.75647e-07 3.17749e-07)
(0.00123282 2.50763e-07 1.6141e-07)
(0.00123059 7.53475e-08 3.09343e-07)
(0.00122926 1.13659e-07 2.94545e-07)
(0.00285138 0.0160461 -0.00563194)
(0.00315179 0.00708449 -0.022063)
(0.00075873 0.0133454 -0.00179453)
(0.0108419 0.00937725 -0.00227232)
(-0.0279527 -0.00965058 0.129653)
(0.028551 -0.00405666 -0.000913725)
(0.00110416 4.41763e-05 4.38531e-05)
(0.0011952 -0.000185411 1.99806e-07)
(0.00124195 -5.90213e-05 3.07395e-07)
(0.00127412 -4.719e-05 2.16688e-07)
(0.00129125 -2.71535e-05 3.18559e-07)
(0.00129893 -1.70188e-05 -1.89833e-08)
(0.00130253 -1.08707e-05 3.21327e-07)
(0.0013038 -6.58537e-06 3.24381e-07)
(0.00130352 -3.78993e-06 3.2368e-07)
(0.00130223 -2.24456e-06 3.22638e-07)
(0.00130072 -1.63789e-06 3.24052e-07)
(0.00129892 -1.12075e-06 2.48147e-07)
(0.00129714 -8.00953e-07 3.19225e-07)
(0.0012953 -6.36911e-07 2.88599e-07)
(0.00129293 -4.49405e-07 3.51585e-07)
(0.00129053 -5.40356e-07 3.24138e-07)
(0.00128824 -1.2591e-06 1.02484e-07)
(0.00128587 -5.043e-07 3.654e-07)
(0.00128372 -3.76364e-07 2.78599e-07)
(0.0012815 5.60386e-08 3.66486e-07)
(0.00127909 3.3191e-07 3.82583e-07)
(0.00127707 6.54696e-07 3.94204e-07)
(0.00127543 1.80221e-06 2.76591e-07)
(0.00127322 1.29524e-06 4.81782e-07)
(0.00127036 1.36503e-06 2.98595e-07)
(0.00126764 1.35487e-06 2.88378e-07)
(0.00126558 3.75875e-07 2.25938e-07)
(0.00126375 -1.18421e-07 3.15733e-07)
(0.00126158 1.54867e-07 2.68384e-07)
(0.0012595 1.30156e-07 5.37039e-07)
(0.0012572 1.51631e-07 2.94983e-07)
(0.00125508 -1.39517e-07 3.1688e-07)
(0.0012526 -5.91068e-07 2.25765e-07)
(0.00125017 -6.99389e-07 2.8313e-07)
(0.00124852 -2.77349e-07 2.56882e-07)
(0.00124725 3.60345e-07 5.29471e-07)
(0.00124439 8.90321e-07 3.5772e-07)
(0.00124155 5.52208e-07 2.0942e-07)
(0.00123987 4.28407e-08 2.11141e-07)
(0.00123796 3.05764e-08 6.86958e-07)
(0.00123549 5.26375e-08 3.75835e-07)
(0.00123286 1.7203e-07 9.9074e-08)
(0.00123057 5.01811e-07 3.04232e-07)
(0.00122879 4.16498e-07 2.15864e-07)
(0.0118805 -0.0271133 0.0213883)
(-0.0255893 0.0147457 0.00384613)
(0.0144148 -0.0138645 0.00449619)
(0.0132033 0.0208781 -0.0145173)
(-0.0113107 0.000221261 0.0283947)
(-0.0394602 0.00641698 0.00228261)
(0.000589839 -0.00132932 -6.62957e-06)
(0.00120598 -0.000267218 -4.18963e-07)
(0.00139284 -9.3389e-05 5.83369e-07)
(0.0012992 -6.50249e-05 3.98623e-07)
(0.00131734 -3.71892e-05 3.44776e-07)
(0.00131229 -2.31469e-05 3.6355e-07)
(0.00131127 -1.35805e-05 3.02933e-07)
(0.00130993 -8.57159e-06 3.25251e-07)
(0.00130716 -5.58784e-06 2.26777e-07)
(0.0013042 -3.53061e-06 1.23887e-07)
(0.00130174 -1.94562e-06 3.23014e-07)
(0.00129954 -1.17923e-06 3.21263e-07)
(0.00129733 -4.99003e-07 3.07733e-07)
(0.00129533 -1.74095e-07 2.14746e-07)
(0.00129304 -3.25115e-07 3.58008e-07)
(0.00129059 -1.24435e-07 9.66973e-07)
(0.00128846 -9.77806e-08 3.13453e-07)
(0.00128614 -2.1234e-08 3.58509e-07)
(0.00128389 2.76315e-07 2.664e-07)
(0.00128176 3.03541e-08 3.50727e-07)
(0.00127952 2.88865e-07 3.72104e-07)
(0.00127748 3.60834e-07 3.15839e-07)
(0.00127495 4.21976e-07 5.15447e-07)
(0.00127248 2.65315e-07 5.42579e-07)
(0.0012707 3.32494e-07 3.40305e-07)
(0.00126806 -2.99393e-07 3.05648e-07)
(0.00126541 2.54209e-07 3.01681e-07)
(0.00126352 1.00051e-07 3.15434e-07)
(0.00126146 1.50901e-07 2.707e-07)
(0.00125941 -9.57793e-08 3.11381e-07)
(0.00125695 -3.22281e-07 3.34639e-07)
(0.00125428 -1.48281e-07 2.82947e-07)
(0.00125253 -1.98912e-07 4.1477e-07)
(0.00125088 9.54561e-08 3.11604e-07)
(0.00124866 4.74982e-07 3.169e-07)
(0.00124645 7.27889e-07 5.79051e-07)
(0.00124457 2.03389e-07 2.80914e-07)
(0.00124209 1.2812e-07 -2.79562e-07)
(0.00123971 -9.52414e-08 3.88054e-07)
(0.00123784 -3.13397e-07 3.07608e-07)
(0.00123564 -7.93409e-07 1.13966e-07)
(0.00123338 -7.40437e-07 1.02084e-07)
(0.00123089 -4.87633e-07 3.12346e-07)
(0.00122812 1.66391e-07 4.17189e-07)
(-0.00327229 -0.0144322 0.000864461)
(-0.00815343 0.00421511 -0.00478634)
(-0.0197598 -0.00720237 -0.00620978)
(-0.00334429 -0.00990793 -0.0137841)
(-0.0113928 -0.0256262 -0.0221384)
(0.0139056 -0.0209423 -0.00540903)
(0.000903971 0.000338391 -0.000130714)
(0.00149808 -0.000233682 -4.7118e-07)
(0.00147121 -0.000104148 5.40548e-07)
(0.00134429 -5.04234e-05 3.59471e-07)
(0.00134378 -3.12791e-05 2.92094e-07)
(0.00132856 -1.86076e-05 3.09476e-07)
(0.00132082 -1.09398e-05 3.68437e-07)
(0.00131384 -6.95547e-06 3.26907e-07)
(0.00130985 -4.66989e-06 3.43571e-07)
(0.0013068 -2.98139e-06 3.75218e-07)
(0.00130367 -1.75484e-06 3.25e-07)
(0.00130073 -9.27127e-07 3.64387e-07)
(0.0012984 -4.58502e-07 2.83809e-07)
(0.00129552 -1.12324e-07 3.71942e-07)
(0.00129299 -1.11052e-08 1.73412e-07)
(0.00129081 7.48924e-08 5.69878e-07)
(0.00128837 1.28708e-07 3.01633e-07)