/*--------------------------------*- C++ -*----------------------------------*\
| =========                 |                                                 |
| \\      /  F ield         | OpenFOAM: The Open Source CFD Toolbox           |
|  \\    /   O peration     | Version:  5.0                                   |
|   \\  /    A nd           | Web:      www.OpenFOAM.org                      |
|    \\/     M anipulation  |                                                 |
\*---------------------------------------------------------------------------*/
FoamFile
{
    version     2.0;
    format      ascii;
    class       surfaceVectorField;
    location    "0.9";
    object      Uf;
}
// * * * * * * * * * * * * * * * * * * * * * * * * * * * * * * * * * * * * * //

dimensions      [0 1 -1 0 0 0 0];

internalField   nonuniform List<vector> 
30991
(
(0.0435876 -0.0107313 -0.000603407)
(0.0272506 0.00642082 -0.00150194)
(0.02069 -0.0309766 0.0356476)
(0.0430759 -0.0316827 -0.0798524)
(0.01332 -0.0124933 0.107152)
(-2.30052e-05 -0.0208299 -0.0855161)
(-0.00775035 -0.00605603 0.00110411)
(-0.0078193 -0.0113126 0.00336882)
(0.00175059 -0.0103074 0.00189443)
(0.0167644 -0.0268568 0.00289177)
(-0.00786682 -0.0294707 -0.0013221)
(-0.0158967 -0.0554202 -0.00757388)
(0.00733871 -0.0196394 0.00072422)
(0.0147148 0.000867697 0.00141889)
(0.00463337 -0.0015181 0.00118186)
(0.0171735 -0.00362395 -0.0179824)
(0.0042555 0.00406155 0.0257668)
(-0.00150845 -0.0313024 -0.00288473)
(0.0302783 -8.7136e-05 0.00540109)
(0.0186397 0.00207861 0.00163515)
(-0.00227414 4.10314e-05 0.00305317)
(-0.00865656 0.00182303 0.00315334)
(-0.0330002 -0.0164293 0.00193181)
(-0.0102397 -0.00137348 -0.00089543)
(0.00281515 -0.00127168 -0.00036934)
(0.000355555 -0.00881253 -0.00229899)
(-0.00293081 0.00036605 -0.00313719)
(-8.11005e-05 0.0159691 0.00209094)
(0.00170856 -0.0015859 -0.000172674)
(0.0141571 0.0134536 -0.000737165)
(0.00126551 0.00282557 -0.00118)
(0.0242741 0.0270775 0.000518329)
(0.00416096 0.0157119 -0.0017859)
(-0.00126054 0.0112512 -0.0164379)
(0.00890827 0.0204551 0.0197913)
(0.0228018 0.0298538 0.018186)
(0.00200805 0.0344559 -0.0229909)
(-0.00408876 0.00116409 0.000116845)
(0.001455 -0.000439454 -4.41571e-05)
(0.00122402 -0.000952465 -2.20788e-05)
(0.000837757 -0.00129708 -0.000438576)
(0.000349743 -1.35552e-05 -8.91697e-07)
(0.000484524 6.0117e-06 -2.90044e-06)
(0.000495229 3.08927e-05 -8.03813e-07)
(0.000837678 2.99689e-06 -1.08923e-06)
(0.000384468 1.49149e-05 -2.72255e-06)
(0.000656309 -2.68604e-05 1.18471e-06)
(0.000717503 4.47572e-05 -3.89451e-06)
(0.000775075 1.90729e-05 -1.16136e-06)
(0.000794534 3.36563e-05 -1.74343e-06)
(0.00108477 3.25293e-05 -1.3229e-06)
(0.000581565 1.68061e-05 -3.84338e-06)
(0.000572071 2.65935e-05 -3.93045e-06)
(0.000988492 3.4272e-05 -4.26712e-06)
(0.000965586 5.28504e-05 -4.31919e-06)
(0.000775018 1.32206e-05 -5.67371e-08)
(0.000758359 1.47819e-05 -2.36904e-07)
(0.00102535 2.28113e-05 6.96993e-08)
(0.000778015 9.0326e-06 1.03979e-07)
(0.000773685 7.46051e-06 1.19923e-07)
(0.00103737 1.54843e-05 1.88307e-07)
(0.000780796 6.08089e-06 8.00001e-08)
(0.000777464 3.97131e-06 6.96305e-08)
(0.00103936 1.05607e-05 1.66161e-07)
(0.000783173 4.02196e-06 3.24538e-08)
(0.000781218 2.41523e-06 6.02547e-08)
(0.00104284 6.87451e-06 1.69359e-07)
(0.000784687 2.8333e-06 3.32752e-08)
(0.000783354 1.52389e-06 2.19146e-08)
(0.00104546 4.58682e-06 1.76263e-07)
(0.000784038 1.9686e-06 5.57717e-08)
(0.000783975 6.26696e-07 5.59683e-08)
(0.00104583 3.40232e-06 1.41307e-07)
(0.000783625 1.13352e-06 2.93242e-08)
(0.000783688 3.54474e-07 4.65296e-08)
(0.0010449 2.11253e-06 1.77532e-07)
(0.000782732 5.76195e-07 3.23169e-08)
(0.00078312 1.20197e-06 3.54169e-08)
(0.00104402 1.09868e-06 1.53381e-07)
(0.000781877 2.59517e-07 6.6782e-08)
(0.000782227 2.55756e-08 5.40387e-08)
(0.00104279 5.82013e-07 1.73071e-07)
(0.000780915 -6.589e-08 6.2342e-08)
(0.000781213 -3.808e-08 8.47924e-08)
(0.00104168 2.49278e-07 1.67802e-07)
(0.000778573 -3.54672e-07 7.41242e-08)
(0.000779854 1.02698e-06 5.43093e-08)
(0.0010393 -2.64468e-07 1.55399e-07)
(0.000777702 -4.74069e-07 7.54285e-08)
(0.000778479 1.72399e-08 6.67132e-08)
(0.00103709 -5.26888e-07 2.45433e-07)
(0.000777162 -3.12236e-07 4.42091e-08)
(0.000777472 3.26017e-07 5.49122e-08)
(0.00103633 -5.8738e-07 1.51076e-07)
(0.000775537 -1.53361e-07 4.66305e-08)
(0.000776139 2.69732e-07 5.75269e-08)
(0.0010348 -1.04879e-07 1.40473e-07)
(0.000773818 -1.83703e-07 4.75751e-08)
(0.000774481 3.50324e-07 4.89255e-08)
(0.0010325 -2.0475e-07 1.76607e-07)
(0.000772504 -6.88934e-08 5.07964e-08)
(0.000773285 -3.62254e-07 4.01174e-08)
(0.00103054 -1.85877e-07 1.80276e-07)
(0.000771126 1.79185e-07 6.69725e-08)
(0.000772078 1.9337e-07 5.33014e-08)
(0.00102877 1.4022e-07 1.70404e-07)
(0.000769729 2.55228e-07 5.79974e-08)
(0.000770462 -1.34002e-06 4.44733e-08)
(0.00102687 4.70269e-07 1.86692e-07)
(0.000768498 1.56932e-07 4.16543e-08)
(0.000768985 3.75647e-07 5.07242e-08)
(0.00102513 2.9811e-07 1.38268e-07)
(0.000767124 1.40806e-07 8.41136e-08)
(0.000767761 3.38247e-08 4.47972e-08)
(0.00102357 1.58462e-07 1.6734e-07)
(0.000765433 1.81865e-08 8.08294e-08)
(0.000766169 7.2415e-07 9.3642e-08)
(0.00102136 2.315e-07 2.79621e-08)
(0.000764186 -2.96491e-07 5.6229e-08)
(0.00076458 1.96562e-07 6.35451e-08)
(0.00101933 -2.0972e-07 1.81775e-07)
(0.000762455 -5.04175e-07 1.50303e-08)
(0.000763249 -6.08932e-07 -1.80758e-08)
(0.00101747 -6.7514e-07 3.59321e-07)
(0.000761326 -4.92188e-07 1.74867e-08)
(0.000761856 -6.11227e-07 -1.05929e-08)
(0.0010154 -7.4147e-07 3.15477e-07)
(0.000759856 -3.18026e-07 6.68859e-08)
(0.000760685 -2.62325e-07 1.04517e-07)
(0.00101373 -5.81277e-07 1.7738e-07)
(0.000758838 -3.01311e-08 4.73284e-08)
(0.000759635 7.74104e-08 8.52269e-08)
(0.00101225 -2.49896e-07 1.12785e-07)
(0.000757398 1.94449e-07 4.42619e-08)
(0.000758217 9.34018e-08 5.43699e-08)
(0.00101063 2.07045e-07 1.64992e-07)
(0.000755742 2.55644e-07 8.36107e-08)
(0.000756599 2.83056e-08 4.47753e-08)
(0.00100854 3.58705e-07 1.19604e-07)
(0.000754059 3.05706e-07 5.32741e-08)
(0.000755132 3.42956e-07 7.95928e-08)
(0.00100622 3.55876e-07 8.81019e-08)
(0.00075252 5.11889e-07 4.48422e-08)
(0.000753739 5.78204e-07 -1.84002e-09)
(0.00100394 4.7015e-07 1.30053e-07)
(0.00075242 4.4184e-07 1.20376e-07)
(0.000752417 -2.85845e-06 5.15949e-08)
(0.00100298 8.89102e-07 2.29499e-07)
(0.000750563 9.95248e-08 8.21172e-08)
(0.00075104 4.3445e-07 8.42875e-08)
(0.00100178 3.17148e-07 1.70462e-07)
(0.000749081 -2.83144e-08 4.90241e-08)
(0.000749634 8.03321e-08 4.16695e-08)
(0.000999465 5.86841e-10 1.67957e-07)
(0.000747808 -3.33548e-07 8.07907e-08)
(0.000748175 -2.76235e-08 6.77306e-08)
(0.000997521 -5.17103e-08 1.55849e-07)
(0.00074702 -5.73066e-07 5.59011e-08)
(0.000747088 1.5654e-06 8.09599e-08)
(0.000996379 -8.011e-07 1.56587e-07)
(0.000744925 -4.31343e-07 3.06079e-08)
(0.000745972 1.53483e-06 3.11427e-08)
(0.00099437 -6.71166e-07 1.14951e-07)
(0.000743663 -2.72445e-07 4.16012e-08)
(0.000744478 -4.01402e-07 4.56869e-08)
(0.000992082 -4.46409e-07 1.72575e-07)
(0.000742304 -2.62303e-07 4.80439e-08)
(0.000742953 -5.22347e-08 5.09696e-08)
(0.000990392 -2.85831e-07 1.7628e-07)
(0.000741121 -2.74937e-07 4.60467e-08)
(0.000741725 -2.47364e-07 5.52229e-08)
(0.000988605 -4.09002e-07 1.67727e-07)
(0.000739742 -3.09208e-07 4.19724e-08)
(0.000740571 -7.30001e-09 1.87869e-08)
(0.000987046 -3.34912e-07 1.71753e-07)
(0.000738233 -3.81049e-07 2.49128e-08)
(0.000739019 -4.0055e-07 3.89863e-08)
(0.000985009 -5.15367e-07 1.99879e-07)
(0.000737747 1.00741e-06 5.85241e-08)
(0.000982981 -4.89142e-07 9.69347e-08)
(0.0258274 -0.0106298 0.00194622)
(0.0033033 -0.0323777 -0.14741)
(0.0154915 -0.0176365 -0.0538662)
(0.0126117 -0.0259107 0.152688)
(0.0156766 -0.0528751 0.0472684)
(0.0100501 -0.0139531 0.0059061)
(0.00238399 0.0143817 0.0199162)
(0.00363666 -0.0622463 0.00954248)
(0.0195711 -0.0632711 0.00356195)
(0.0334822 -0.00294742 0.0101879)
(0.0455925 -0.0457586 -0.00489497)
(0.0486415 -0.016292 -0.00417342)
(0.0158771 0.000378555 0.00244497)
(0.00845356 -0.0103146 -0.000522452)
(0.0273942 -0.000334002 -0.00387954)
(0.0179625 0.0212391 -0.000275409)
(0.0460912 0.000553523 -0.000833013)
(0.0186866 0.0139567 -0.000150664)
(0.00542147 -0.000629007 0.00381509)
(0.00442366 -0.0171904 0.00134375)
(0.0336636 -0.0096468 0.00177572)
(0.0153474 0.00546103 0.000688803)
(0.0265069 -0.0129381 -0.00387879)
(-0.0148281 -0.00560481 0.00050934)
(-0.0151122 -0.0088099 0.000826387)
(9.1866e-05 -0.0139175 0.00077608)
(-0.00181937 0.00224916 -0.000138291)
(-0.0268024 -0.0147423 -0.00180309)
(-0.00133704 0.00639369 0.0028568)
(-0.000929706 0.00354344 -0.000577554)
(0.00235285 -0.00570839 -0.00012932)
(0.00989693 0.00502847 0.00289036)
(0.0237949 -0.00781947 -0.000173998)
(-0.000303522 -4.45667e-05 -2.21104e-05)
(-0.00789512 0.00106885 0.000125968)
(-0.00113212 -0.000107019 -0.000136658)
(-0.00323449 0.000422593 -0.000308178)
(-0.00489653 -0.0030645 -0.00060072)
(0.000306131 5.57042e-05 1.22738e-06)
(0.000462627 6.81381e-05 -7.19918e-07)
(0.000429269 5.08765e-05 -2.88978e-06)
(0.000424523 7.18448e-05 5.31619e-07)
(0.000739288 0.000120652 -1.10268e-06)
(0.000281792 6.26954e-05 -2.32793e-06)
(0.000577833 0.000100534 6.52762e-06)
(0.000509694 0.000121449 -9.40837e-06)
(0.000747461 1.71689e-05 -8.19466e-07)
(0.000757161 -5.05538e-06 -1.43689e-06)
(0.0010366 3.75089e-05 -1.01966e-06)
(0.0005406 2.78585e-05 -3.70178e-06)
(0.00051668 2.78592e-05 -3.78405e-06)
(0.000910499 5.1855e-05 -3.96069e-06)
(0.000847551 5.55608e-05 -2.50734e-06)
(0.000763313 5.50073e-06 -6.03603e-08)
(0.000743545 -5.65913e-06 -1.45014e-07)
(0.000999126 1.39899e-05 8.08555e-08)
(0.000772688 1.20739e-06 8.55914e-08)
(0.000768258 -6.39637e-06 1.39701e-07)
(0.00102662 4.59652e-06 1.86082e-07)
(0.000778476 -1.1274e-07 4.98882e-08)
(0.000775781 -5.19164e-06 5.64634e-08)
(0.00103415 1.23546e-06 1.71993e-07)
(0.000781688 -4.5112e-07 4.97279e-08)
(0.000780776 -3.47796e-06 6.28021e-08)
(0.00104029 1.71252e-07 1.68895e-07)
(0.000783127 -6.3099e-07 4.45966e-08)
(0.000783119 -1.93891e-06 5.4271e-08)
(0.00104316 -2.53405e-07 1.55021e-07)
(0.000783573 -6.15647e-07 4.67292e-08)
(0.000783989 -1.80792e-06 5.05971e-08)
(0.00104433 -6.93925e-07 1.70797e-07)
(0.000783388 -4.75888e-07 5.26259e-08)
(0.00078386 -1.29927e-06 5.01181e-08)
(0.00104442 -4.76921e-07 1.72606e-07)
(0.000782598 -2.92182e-07 5.71327e-08)
(0.000783348 -2.1528e-07 5.63646e-08)
(0.00104374 -4.95177e-07 2.09461e-07)
(0.000781591 -1.10226e-07 7.20392e-08)
(0.000782454 -8.35441e-07 4.826e-08)
(0.00104258 -1.07089e-07 1.90708e-07)
(0.000780251 -7.69787e-08 7.67696e-08)
(0.000781254 -9.01834e-07 9.22137e-08)
(0.00104094 -1.12502e-07 2.20297e-07)
(0.000779729 9.07796e-08 4.68944e-08)
(0.000780063 -2.88599e-07 9.32365e-08)
(0.00103964 -7.0135e-08 1.81474e-07)
(0.000778091 3.5855e-07 4.62006e-08)
(0.000778813 1.81156e-07 3.75241e-08)
(0.00103818 3.13407e-07 1.76265e-07)
(0.000776711 3.34975e-07 6.82291e-08)
(0.000777441 1.54602e-07 7.56226e-08)
(0.00103623 6.1935e-07 1.77481e-07)
(0.000775104 2.39927e-07 5.98246e-08)
(0.000776018 9.38913e-08 5.81289e-08)
(0.00103414 2.70479e-07 1.98085e-07)
(0.000773687 3.91608e-07 4.14705e-08)
(0.000774669 2.18831e-07 4.78994e-08)
(0.00103211 4.55041e-07 1.78831e-07)
(0.000772999 4.21812e-07 4.26182e-08)
(0.00077332 -6.67634e-07 2.75354e-08)
(0.00103093 6.77999e-07 1.27721e-07)
(0.000771514 2.51947e-07 3.0805e-08)
(0.000771864 3.80752e-07 6.90962e-08)
(0.00102941 4.95131e-07 1.63264e-07)
(0.000769587 1.39875e-07 3.71981e-08)
(0.000770321 1.94362e-07 2.40494e-08)
(0.00102698 2.29616e-07 1.07852e-07)
(0.000768283 1.16221e-08 5.3869e-08)
(0.000768824 2.76544e-07 6.80311e-08)
(0.00102481 1.79768e-07 1.67887e-07)
(0.000766841 -2.94483e-07 5.43102e-08)
(0.00076738 1.14457e-07 4.92061e-08)
(0.00102316 -1.45446e-07 1.67698e-07)
(0.000765267 -4.28919e-07 7.63672e-08)
(0.000766003 -2.80517e-07 3.88407e-08)
(0.00102107 -7.26567e-07 2.55926e-07)
(0.000763715 -3.22464e-07 -1.07341e-08)
(0.000764716 2.30921e-07 5.5765e-08)
(0.00101879 -5.22425e-07 1.80799e-07)
(0.000762528 -2.05933e-07 -4.37014e-08)
(0.000763397 1.81454e-07 2.36743e-08)
(0.0010172 -3.9778e-07 9.53348e-08)
(0.000761221 9.91187e-08 7.6401e-08)
(0.000762237 3.85995e-07 5.72194e-08)
(0.00101558 -2.00048e-07 9.12788e-08)
(0.00076046 3.19747e-07 1.22864e-07)
(0.00076096 -2.61063e-06 6.28618e-08)
(0.00101413 4.81057e-07 2.80246e-07)
(0.00075915 1.56817e-07 9.22781e-08)
(0.00075943 -1.9046e-06 6.09933e-08)
(0.00101285 4.59206e-07 3.03405e-07)
(0.000757333 -1.056e-08 5.48863e-08)
(0.000758007 6.41756e-07 7.73557e-08)
(0.00101073 4.33433e-08 1.68463e-07)
(0.000755965 1.76765e-08 4.07466e-08)
(0.000756634 -2.56464e-07 4.27493e-08)
(0.00100849 -3.07839e-08 1.8776e-07)
(0.000754833 2.03433e-07 2.4504e-08)
(0.000755364 1.36293e-08 1.1236e-07)
(0.00100684 8.61451e-08 1.70011e-07)
(0.000753595 5.26798e-07 4.89613e-09)
(0.000754142 2.14465e-08 2.96316e-08)
(0.0010054 4.54369e-07 1.95806e-07)
(0.000751118 5.26718e-07 1.5496e-08)
(0.000752415 -7.2933e-07 1.30946e-08)
(0.00100285 9.33803e-07 1.14123e-07)
(0.000750029 2.60665e-07 4.3853e-08)
(0.000750705 1.28352e-07 4.08911e-08)
(0.0010004 4.91019e-07 1.64393e-07)
(0.00074881 1.11345e-07 6.0368e-08)
(0.000749447 -4.0066e-08 4.06168e-08)
(0.000998974 2.42041e-07 1.62749e-07)
(0.000747227 -3.26625e-08 6.78958e-08)
(0.000747996 1.48814e-07 5.92171e-08)
(0.00099702 3.01933e-08 1.73987e-07)
(0.000746257 -3.56346e-07 5.62167e-08)
(0.000746685 6.79256e-07 7.89226e-08)
(0.000995277 -1.8e-07 1.95433e-07)
(0.000745492 -3.5336e-07 4.62172e-08)
(0.000745978 7.46101e-08 8.94071e-08)
(0.000994309 -7.87868e-07 2.18431e-07)
(0.000743843 -6.00529e-08 5.50536e-08)
(0.000744847 4.44551e-08 6.7751e-08)
(0.000992643 -1.49607e-07 1.60327e-07)
(0.000742069 1.38849e-07 5.81473e-08)
(0.000743202 3.16171e-07 3.94918e-08)
(0.000990309 -6.60225e-08 1.77172e-07)
(0.000741459 1.80828e-07 2.79742e-08)
(0.000741778 -1.55698e-06 3.93768e-08)
(0.000988761 3.54828e-07 1.93325e-07)
(0.000739769 -2.39841e-09 1.57946e-08)
(0.000740342 4.27854e-07 3.89734e-08)
(0.000987206 6.62867e-08 1.64423e-07)
(0.000738454 -1.25356e-07 7.25916e-08)
(0.000738868 1.93441e-07 4.72986e-08)
(0.000985091 -1.31141e-07 1.1839e-07)
(0.000737903 -1.09729e-07 1.14989e-07)
(0.00098367 -2.51588e-07 2.34508e-07)
(-0.0152113 -0.0115919 0.000885499)
(-0.066879 -0.0164016 0.000278616)
(-0.0637515 -0.00916614 0.0067718)
(-0.0100575 -0.0292931 0.000247885)
(-0.00163201 0.00362351 0.00490999)
(0.0386498 -0.0103583 0.000817675)
(-0.0140045 -0.00428478 0.00244645)
(0.00738501 -0.0332597 0.0010684)
(-0.00598497 -0.00628905 0.00686043)
(0.000588735 -0.0263593 0.00270485)
(0.00411433 0.00872196 -0.000211824)
(0.0398953 -0.0192236 0.00102572)
(0.0135457 -0.00493859 0.000839265)
(0.0129211 -0.00103809 5.70878e-05)
(-0.00500371 0.017111 -0.00129776)
(0.00118943 0.0158146 -0.00174814)
(0.00300909 0.0147983 7.90728e-05)
(-0.00816585 0.0109867 -0.000285416)
(0.00642461 0.0183006 -0.0005621)
(-0.00339076 -0.0134789 0.00141762)
(-0.00178655 -0.00173643 0.00064121)
(0.00335548 -0.00549202 9.69022e-05)
(-0.00098992 0.00254033 -0.000719315)
(-0.011756 -0.0111791 0.00780691)
(0.000275471 -0.00922125 -0.00357156)
(-0.00113623 -0.0170423 -0.017851)
(-0.0228089 -0.00557646 0.0117644)
(-0.00019994 0.00289829 -1.64302e-05)
(0.00349195 0.00186689 -9.29364e-06)
(0.00616723 0.00197283 6.60971e-05)
(0.0042988 0.00486676 -0.000141345)
(0.00793424 0.00441223 -0.000357553)
(0.000201437 -1.54603e-05 6.54424e-06)
(0.000255531 3.58373e-05 4.20135e-06)
(0.00021566 -3.81901e-05 8.5626e-06)
(0.000303065 5.26297e-06 9.56683e-06)
(0.000147297 -8.0311e-06 2.10341e-06)
(0.000729303 -3.65852e-05 -7.62858e-07)
(0.000769517 -0.000101124 -2.06521e-06)
(0.000984125 -5.9141e-05 -8.38063e-07)
(0.000476818 -3.1118e-05 -3.97338e-06)
(0.000495015 -8.09795e-05 -4.30504e-06)
(0.00078684 -4.05543e-05 -4.20823e-06)
(0.00080917 -0.000153034 -3.83619e-06)
(0.000756422 -2.08135e-05 5.4954e-08)
(0.000763118 -4.12834e-05 -9.63107e-08)
(0.000983537 -2.9631e-05 1.54489e-07)
(0.000771694 -1.40092e-05 1.106e-07)
(0.000776793 -2.78858e-05 8.06098e-08)
(0.00102125 -2.10955e-05 2.02997e-07)
(0.000778928 -9.0042e-06 6.93752e-08)
(0.000782057 -1.62617e-05 5.77749e-08)
(0.00103373 -1.34236e-05 1.78243e-07)
(0.000782574 -5.92637e-06 6.73479e-08)
(0.000784637 -1.01403e-05 3.88738e-08)
(0.00104092 -8.84311e-06 1.84349e-07)
(0.000784265 -3.88032e-06 6.02727e-08)
(0.000785685 -6.29488e-06 5.88391e-08)
(0.00104434 -5.84804e-06 1.95011e-07)
(0.000784422 -2.5008e-06 5.39861e-08)
(0.000785719 -3.97971e-06 5.27225e-08)
(0.00104553 -3.78665e-06 1.78117e-07)
(0.000783834 -1.60239e-06 5.38547e-08)
(0.000784986 -2.48098e-06 4.93967e-08)
(0.00104513 -2.43073e-06 1.75206e-07)
(0.000783354 -1.02872e-06 4.74945e-08)
(0.000784068 -1.53896e-06 5.07403e-08)
(0.00104447 -1.55589e-06 1.7668e-07)
(0.000782099 -6.18144e-07 6.84203e-08)
(0.000782969 -8.71414e-07 4.37969e-08)
(0.00104327 -1.02565e-06 1.55415e-07)
(0.000781047 -3.04716e-07 1.0868e-07)
(0.000781647 -2.45884e-06 5.72184e-08)
(0.00104173 -5.72206e-07 2.43284e-07)
(0.000779199 -1.49475e-07 8.38842e-08)
(0.000780258 1.95076e-07 7.50601e-08)
(0.00103983 -2.83436e-07 1.71835e-07)
(0.000778192 -1.09083e-07 6.69339e-08)
(0.000778865 -3.62264e-07 3.6183e-08)
(0.00103795 -1.7599e-07 1.70613e-07)
(0.000776738 -5.36049e-08 6.55279e-08)
(0.000777511 4.05406e-08 6.86579e-08)
(0.00103628 -1.34458e-07 1.79966e-07)
(0.000775504 8.04044e-08 4.6207e-08)
(0.000776185 -1.67755e-07 4.52669e-08)
(0.00103459 -1.28229e-08 1.71613e-07)
(0.000774408 2.10543e-07 3.39707e-08)
(0.000774831 1.7699e-07 3.31328e-08)
(0.001033 2.42486e-07 1.4465e-07)
(0.000772114 1.13382e-07 5.40002e-08)
(0.000773198 -1.40613e-07 4.73327e-08)
(0.00103058 3.31119e-07 2.09772e-07)
(0.000770743 -1.96604e-08 6.23549e-08)
(0.000771698 -6.08212e-07 7.70998e-08)
(0.0010282 -6.51246e-08 2.3548e-07)
(0.000769505 -1.81952e-08 5.48684e-08)
(0.000770323 -2.39332e-07 3.93448e-08)
(0.00102647 -2.57658e-08 1.8537e-07)
(0.000767934 -2.05333e-08 6.33742e-08)
(0.000768821 1.15726e-08 6.59564e-08)
(0.00102466 -2.72115e-08 2.02997e-07)
(0.000766537 -4.65283e-08 3.37398e-08)
(0.000767347 -6.47844e-08 5.45708e-08)
(0.00102244 -1.2494e-08 1.81893e-07)
(0.000765388 1.2695e-07 1.82331e-08)
(0.000766219 2.95289e-07 1.86189e-08)
(0.0010209 -9.954e-08 1.07109e-07)
(0.000764511 3.8289e-07 9.01834e-08)
(0.000765034 7.26251e-07 3.5011e-08)
(0.00101974 4.73374e-07 8.88263e-08)
(0.000762956 4.56998e-07 1.24585e-07)
(0.000763487 3.49716e-07 1.16359e-07)
(0.00101788 6.5379e-07 1.71858e-07)
(0.000762101 4.70436e-07 4.36785e-08)
(0.000762252 4.88074e-07 3.42082e-08)
(0.0010165 6.74507e-07 1.14761e-07)
(0.000759872 3.64379e-07 9.91985e-10)
(0.000760825 -1.60263e-08 2.01557e-08)
(0.00101455 6.2124e-07 5.9556e-08)
(0.000758309 1.1641e-07 4.60658e-08)
(0.000759119 9.29338e-08 2.60785e-08)
(0.0010117 3.6919e-07 4.27311e-08)
(0.000757278 -7.41841e-09 6.52296e-08)
(0.000757852 3.69704e-07 6.99668e-08)
(0.00101001 -3.13185e-08 1.56851e-07)
(0.000755991 1.20536e-08 1.14341e-07)
(0.000756658 -7.59153e-08 5.78869e-08)
(0.00100859 1.6489e-08 1.47359e-07)
(0.0007547 -3.68878e-08 1.17514e-07)
(0.000755303 -2.53478e-09 1.0931e-07)
(0.00100683 1.83024e-08 1.61801e-07)
(0.000753237 -1.72614e-07 3.78352e-08)
(0.000753973 -5.44581e-08 4.12481e-08)
(0.00100499 -9.49063e-08 1.81543e-07)
(0.000751641 -1.31579e-07 3.84811e-08)
(0.000752467 -1.9517e-07 2.30201e-08)
(0.00100302 -3.24166e-07 1.49614e-07)
(0.000750198 6.4416e-08 3.7655e-08)
(0.00075095 -8.2151e-08 4.14185e-08)
(0.00100091 -1.1162e-08 1.89358e-07)
(0.000748743 1.6345e-07 3.94602e-08)
(0.00074957 1.08391e-07 -1.2408e-08)
(0.000998887 1.41664e-07 1.64541e-07)
(0.000747365 3.766e-07 7.02379e-08)
(0.000748261 2.36996e-07 6.55104e-08)
(0.000996995 2.59907e-07 1.61879e-07)
(0.000746087 6.05646e-07 1.1211e-07)
(0.000746969 3.94751e-07 1.40217e-07)
(0.00099536 7.66723e-07 1.7973e-07)
(0.000745792 5.10894e-07 1.10948e-07)
(0.000745856 -1.25714e-06 1.46171e-08)
(0.000994413 8.69624e-07 1.6665e-07)
(0.000744131 3.58913e-07 5.21978e-08)
(0.000744655 3.31778e-07 5.71886e-08)
(0.000992989 5.17069e-07 1.72812e-07)
(0.000742793 4.99352e-07 2.07213e-08)
(0.000743376 6.88902e-07 5.48302e-08)
(0.000991024 4.84644e-07 1.37277e-07)
(0.000740722 5.83437e-07 5.03761e-08)
(0.000741881 -2.64905e-07 4.83969e-08)
(0.000988771 8.21918e-07 1.36816e-07)
(0.000739456 3.93019e-07 7.04748e-08)
(0.000740103 3.94975e-07 6.43117e-08)
(0.000986439 6.66412e-07 1.59908e-07)
(0.00073808 2.09126e-07 8.96754e-08)
(0.000738636 1.67206e-07 5.41827e-08)
(0.000984619 3.27944e-07 1.69257e-07)
(0.000737641 -1.16218e-06 1.41169e-07)
(0.000983456 1.95907e-07 2.00547e-07)
(0.0161536 0.00337934 -0.00104596)
(0.0322886 -0.0109325 0.000787045)
(0.00618701 -5.28524e-05 -0.00106341)
(0.010282 0.00127794 -0.00244178)
(0.00507683 -0.0129466 0.00305576)
(0.0404197 0.00636571 -0.00438155)
(0.00943119 0.00443858 0.00358982)
(0.0111829 -0.00737123 -0.00840159)
(0.0157721 -0.0111669 -0.0210145)
(0.0156087 -0.0102448 0.0508183)
(0.0154932 0.00380532 -0.00269667)
(-0.000341932 0.00859875 0.00104888)
(0.0151871 -0.00176123 0.00828054)
(-0.0116457 -0.0100793 -0.0011649)
(0.0213839 0.0307357 0.00152304)
(0.0402083 0.0130211 -0.00803358)
(0.0167931 0.0336416 0.00297085)
(-0.0326001 -0.0130617 0.00407125)
(-0.00300574 -0.00337559 0.00102047)
(0.00114643 -0.0110507 -0.00138672)
(-0.0282342 -0.00455549 0.00342088)
(0.0244337 -0.0127727 -0.000153036)
(0.0314217 0.0101947 -0.00125326)
(0.0325493 -0.000257725 -6.69519e-05)
(0.0164322 0.0354093 -0.00113188)
(0.0463159 0.00914217 4.60957e-05)
(-0.000238031 -0.00279949 -0.000193986)
(-0.0107702 0.00688317 -0.00044994)
(0.00902753 -0.004113 -0.00057376)
(-0.00210621 0.00460886 0.000948998)
(0.00110753 -0.00313267 0.000894514)
(0.00356318 -0.00723091 0.00303105)
(0.00882613 0.00114977 0.00507272)
(-0.00556369 0.0166518 0.00421741)
(-0.00585448 0.010193 0.00268539)
(0.000214706 0.00383898 -0.0493999)
(-0.00562934 -0.00157279 0.0737403)
(-0.00137457 0.0012036 -0.0183588)
(-0.00832617 -0.00744611 -0.017329)
(0.00368586 -0.00798454 0.000449204)
(0.00801081 -0.00228839 0.00111741)
(-0.000245876 -0.00583603 -0.00010586)
(0.00480959 -0.00373345 2.71799e-05)
(0.0132142 -0.00176198 0.000409044)
(0.00149583 -0.000267296 4.71294e-05)
(0.000405925 -0.000249779 4.00148e-05)
(0.000391902 -0.000113676 3.63207e-05)
(0.0007007 -0.000177634 7.99211e-05)
(0.000439144 -0.000111961 2.50771e-05)
(0.000791104 -8.35052e-05 -1.39931e-06)
(0.000560966 -7.91223e-05 -2.45497e-06)
(0.0010597 -0.000164869 -1.63327e-06)
(0.000572969 -8.01314e-05 -5.23734e-06)
(0.000562571 -9.10764e-05 -2.12408e-06)
(0.000952787 -0.000123385 -4.68878e-06)
(0.000958726 -0.000160898 3.00586e-06)
(0.000560061 -8.5949e-05 -4.35629e-06)
(0.000945182 -0.000136826 -1.53141e-06)
(0.000946085 -0.000150018 -5.04731e-06)
(0.000785846 -3.66886e-05 -7.07128e-08)
(0.000823047 -3.5903e-05 -7.0556e-07)
(0.00104623 -5.37864e-05 1.20898e-07)
(0.000787665 -2.52303e-05 2.77923e-08)
(0.00079121 -3.18803e-05 -2.10393e-07)
(0.00104693 -4.1587e-05 1.57291e-07)
(0.000788068 -1.50374e-05 2.72798e-08)
(0.000794865 -1.87097e-05 9.67313e-08)
(0.0010495 -2.406e-05 1.73274e-07)
(0.000787886 -9.46374e-06 3.03585e-08)
(0.000791643 -1.18739e-05 5.49205e-08)
(0.00104978 -1.50058e-05 1.75215e-07)
(0.000787337 -5.95553e-06 5.1291e-08)
(0.000790095 -7.56797e-06 1.56955e-07)
(0.0010495 -9.57119e-06 1.76406e-07)
(0.00078636 -3.63275e-06 4.81343e-08)
(0.000788638 -4.67511e-06 4.99022e-08)
(0.00104861 -5.88442e-06 1.74752e-07)
(0.000785147 -2.15476e-06 4.62819e-08)
(0.000786843 -2.85192e-06 2.6433e-08)
(0.00104721 -3.52117e-06 1.73638e-07)
(0.000783796 -1.36357e-06 4.70449e-08)
(0.000785062 -1.71974e-06 5.80586e-08)
(0.0010455 -2.03995e-06 1.73161e-07)
(0.000782509 -9.37215e-07 3.25906e-08)
(0.000783505 -1.11683e-06 4.71735e-08)
(0.00104382 -1.47472e-06 1.72756e-07)
(0.000780927 -7.06513e-07 2.35924e-08)
(0.000781938 -6.70256e-07 3.28013e-08)
(0.00104188 -9.33449e-07 5.82738e-08)
(0.000779838 -5.35003e-07 2.73714e-08)
(0.000780474 -3.48831e-07 1.12423e-07)
(0.00104014 -8.68756e-07 1.77195e-07)
(0.000778184 -3.49266e-07 3.78967e-08)
(0.000779098 -1.43908e-07 4.51389e-08)
(0.00103837 -5.10711e-07 1.73901e-07)
(0.000776972 -2.46993e-07 4.84044e-08)
(0.00077764 -7.27689e-08 5.49351e-08)
(0.00103643 -4.17093e-07 1.58977e-07)
(0.00077542 -2.37262e-07 3.21966e-08)
(0.000776199 -1.1289e-08 4.1542e-08)
(0.00103461 -2.64115e-07 1.70174e-07)
(0.000773852 -3.30062e-07 4.64902e-08)
(0.000774717 1.055e-06 4.23406e-08)
(0.00103253 -4.43931e-07 1.21747e-07)
(0.000772575 -2.86584e-07 7.04228e-08)
(0.000773254 -5.54118e-07 7.72275e-08)
(0.00103054 -4.91266e-07 1.8659e-07)
(0.000771375 -1.2183e-07 5.41017e-08)
(0.000771905 7.8593e-08 6.6631e-08)
(0.00102897 -2.93659e-07 1.03412e-07)
(0.000769595 6.10888e-08 5.04243e-08)
(0.000770552 -2.94856e-07 4.40343e-08)
(0.00102703 -5.44064e-08 2.06318e-07)
(0.000768234 2.88642e-07 5.71567e-08)
(0.000769104 -7.71052e-08 6.21656e-08)
(0.00102483 2.18918e-07 1.72143e-07)
(0.000766965 5.92897e-07 3.94613e-08)
(0.000767725 5.6841e-07 5.86446e-08)
(0.00102307 5.81864e-07 1.13594e-07)
(0.000765943 6.96873e-07 3.53916e-08)
(0.000766346 9.52156e-07 2.20437e-08)
(0.00102168 1.10195e-06 9.02478e-08)
(0.000764016 4.94044e-07 6.1161e-08)
(0.000764777 1.52982e-07 2.33824e-08)
(0.00101973 8.8667e-07 2.5691e-07)
(0.000762673 4.21635e-07 2.60086e-08)
(0.000763393 3.82741e-07 6.4357e-08)
(0.00101744 5.68e-07 1.62734e-07)
(0.000761217 2.197e-07 1.06899e-08)
(0.000761997 2.98254e-07 -1.92955e-09)
(0.00101553 7.17359e-07 1.88581e-07)
(0.000759897 -2.2389e-08 4.52403e-08)
(0.000760521 -8.96627e-08 3.81984e-08)
(0.00101374 3.37353e-09 1.68267e-07)
(0.000758578 1.10873e-07 4.99657e-08)
(0.000759284 5.32313e-08 4.65043e-08)
(0.00101204 -4.7229e-10 1.65943e-07)
(0.000757358 1.6309e-07 6.26279e-08)
(0.000757917 4.52894e-07 6.16204e-08)
(0.00101029 2.93099e-07 1.48409e-07)
(0.000755889 6.22324e-08 5.28399e-08)
(0.000756532 1.75219e-08 5.80699e-08)
(0.00100856 1.309e-07 1.69818e-07)
(0.000754633 -4.97084e-08 3.30661e-08)
(0.000755163 -1.22588e-07 2.49505e-08)
(0.0010067 2.63655e-08 1.66179e-07)
(0.000753241 -1.82357e-07 2.64386e-08)
(0.000753807 1.60428e-07 5.32938e-08)
(0.00100498 -1.69883e-07 1.54292e-07)
(0.000751688 -2.28182e-07 2.59517e-08)
(0.00075241 -3.17741e-07 3.07027e-08)
(0.00100296 -3.4978e-07 1.92806e-07)
(0.000750373 -1.21658e-07 -8.62797e-09)
(0.000751085 -4.09849e-07 -5.95204e-08)
(0.00100098 -3.32391e-07 1.86357e-07)
(0.00074908 4.72877e-08 1.36182e-08)
(0.000749782 -1.10598e-07 7.70674e-09)
(0.000999313 -4.64134e-08 1.76423e-07)
(0.000747845 2.22568e-07 1.35466e-07)
(0.000748479 -5.98187e-07 2.41809e-07)
(0.000997798 2.01741e-07 2.15665e-07)
(0.000746604 4.69104e-07 4.27625e-08)
(0.000747276 4.60512e-07 1.08687e-07)
(0.000996034 4.70239e-07 1.51146e-07)
(0.000744852 3.9199e-07 -3.91549e-08)
(0.000745758 -1.04038e-06 -3.68309e-08)
(0.00099399 8.0913e-07 1.86297e-07)
(0.000743831 1.28027e-07 5.98216e-08)
(0.000744323 2.14884e-07 5.32504e-08)
(0.000992157 2.25602e-07 1.44093e-07)
(0.00074268 5.29263e-08 8.25077e-08)
(0.000743282 5.92139e-08 6.77812e-08)
(0.000990685 1.19945e-07 1.93196e-07)
(0.000741151 1.82243e-07 6.23276e-08)
(0.000742042 7.49424e-07 3.95267e-08)
(0.000988983 2.11565e-08 1.07709e-07)
(0.000739233 2.81203e-07 4.80226e-08)
(0.000740226 1.11011e-06 4.11509e-08)
(0.000986585 4.25917e-07 1.64707e-07)
(0.000738057 2.45564e-07 1.0565e-07)
(0.000738588 -1.2606e-08 4.67781e-08)
(0.000984497 2.9083e-07 1.62332e-07)
(0.000737336 -1.32105e-06 1.05391e-07)
(0.000983016 3.65027e-07 1.87021e-07)
(0.00516877 -0.00529422 -0.000702093)
(0.00413406 0.00124098 0.000594832)
(0.00349828 -0.002932 -0.000392501)
(-0.00418579 0.0012452 0.00114711)
(0.0180796 -0.00942202 -0.000706719)
(0.00286934 -0.005832 0.00221854)
(0.00491521 -0.0127784 0.00029103)
(0.00374353 -0.013822 0.00119288)
(0.00305635 -0.0139393 0.000717278)
(-0.0158647 -0.00722858 0.00127018)
(0.0133257 -0.00771519 0.00077479)
(-0.0100005 -0.0200892 -0.00063642)
(-0.0208642 0.0032607 -0.000388046)
(-0.00132984 -0.00651356 0.000650393)
(0.0090111 -0.000324191 0.000987546)
(0.0350233 0.00709259 3.42789e-05)
(0.0281291 -0.000613923 -0.00108243)
(0.0332839 -0.00577273 -0.000907118)
(0.0496246 -0.00804738 -0.000808553)
(0.0464171 -0.0157697 -0.0136569)
(0.0492328 -0.00787237 0.0203563)
(0.0478418 0.0173325 0.000421848)
(-0.00176357 -0.0167989 -0.00426918)
(0.0425633 0.00503332 -0.00138112)
(0.0395127 0.0153705 0.00220982)
(0.0128491 0.00549879 0.000697043)
(0.0218195 0.0232802 -0.00729124)
(0.0254872 0.0108903 0.00139552)
(-0.00781699 0.0106688 -0.00131301)
(-0.0056297 0.00212427 -0.000746233)
(-0.023572 0.0196582 -0.000664666)
(-0.018638 0.00575095 -0.00201067)
(-0.00114593 0.0159131 -0.0888989)
(-0.00411521 0.0209577 0.0297291)
(-0.00439094 0.0196952 0.0406775)
(-0.0159837 0.023438 0.0117101)
(-0.00531078 0.00369983 0.000258865)
(0.00713955 -0.00639792 0.00120289)
(-0.00177754 -0.00199292 0.000271774)
(0.00492551 -0.00501186 0.000521153)
(0.00117202 -0.00338055 0.00133717)
(0.00076451 -0.000733225 3.79354e-05)
(0.00112561 -0.00021909 3.37526e-06)
(0.00133432 -0.000165405 -3.89619e-06)
(0.00131546 -0.000289534 -4.37936e-05)
(0.00124112 -0.000170965 1.59366e-05)
(0.000488831 -8.9932e-05 8.89737e-07)
(0.000486109 -5.94797e-05 -3.96221e-06)
(0.000463039 -4.18918e-05 -9.25086e-07)
(0.000729286 -9.60065e-05 -2.26933e-06)
(0.000808021 -3.47078e-05 -8.45402e-07)
(0.000872474 -4.25791e-05 -1.25806e-06)
(0.00114188 -5.2231e-05 -1.14073e-06)
(0.000588898 -5.58675e-05 -3.89464e-06)
(0.000597337 -4.22036e-05 -5.0012e-06)
(0.00097756 -0.000118142 -4.58581e-06)
(0.000990442 -8.66881e-05 -6.24864e-06)
(0.000801859 -2.44271e-05 -1.41554e-07)
(0.000804089 -2.4911e-05 -3.91957e-07)
(0.00105863 -4.11522e-05 8.95904e-08)
(0.000797627 -1.48488e-05 1.24386e-07)
(0.000806919 -1.56712e-05 1.51751e-07)
(0.00106712 -2.41842e-05 1.95778e-07)
(0.000793571 -9.20652e-06 1.81484e-07)
(0.000798745 -8.84272e-06 9.75967e-08)
(0.00105913 -1.54552e-05 1.81557e-07)
(0.000791455 -5.59487e-06 1.55601e-07)