/*--------------------------------*- C++ -*----------------------------------*\
| =========                 |                                                 |
| \\      /  F ield         | OpenFOAM: The Open Source CFD Toolbox           |
|  \\    /   O peration     | Version:  5.0                                   |
|   \\  /    A nd           | Web:      www.OpenFOAM.org                      |
|    \\/     M anipulation  |                                                 |
\*---------------------------------------------------------------------------*/
FoamFile
{
    version     2.0;
    format      ascii;
    class       surfaceVectorField;
    location    "0.9";
    object      Uf_0;
}
// * * * * * * * * * * * * * * * * * * * * * * * * * * * * * * * * * * * * * //

dimensions      [0 1 -1 0 0 0 0];

internalField   nonuniform List<vector> 
30991
(
(0.0282812 -0.0132952 -0.000154187)
(0.0159412 0.00104819 -0.00133325)
(0.0107649 -0.0410646 -0.00459752)
(0.0174411 -0.0289451 0.00710779)
(-0.00100612 -0.00949977 -0.0251145)
(0.0160086 -0.0307772 0.00595867)
(-0.0138983 -0.00333286 0.00145431)
(-0.000136483 -0.00667733 0.00503122)
(0.017489 -0.00676649 0.000598909)
(0.00838459 -0.0231574 0.000924293)
(0.00838459 -0.0231574 0.000924293)
(0.00838459 -0.0231574 0.000924293)
(0.00838459 -0.0231574 0.000924293)
(0.013363 -0.00142023 0.00142109)
(0.00726646 -0.00769723 0.000693772)
(0.0261546 0.002715 -0.00960075)
(0.00632026 0.00334911 0.0217542)
(0.00150971 -0.0433681 -0.0202596)
(0.0318228 -0.00636181 0.0206624)
(0.0212442 0.000921896 0.00147136)
(-0.00762899 -0.00205025 0.00335214)
(-0.0181138 0.00695149 0.000919171)
(-0.0407717 -0.0100144 0.00089309)
(-0.00346617 -0.00616541 -0.000316254)
(-0.00427262 -0.00436246 3.28713e-05)
(-0.000328489 -0.020417 0.000482326)
(-0.00599943 -0.0202596 -0.00607832)
(0.00133383 0.0198269 0.00297543)
(0.0011412 0.00299288 -0.00131269)
(0.0220095 0.0138333 -0.00085186)
(0.0018081 0.0076291 -0.00173078)
(0.0194649 0.0280931 0.000696291)
(0.0051408 0.0173002 -0.00210016)
(-0.00513112 0.00756558 -0.0184193)
(0.00935679 0.0218126 0.0263193)
(0.0216442 0.0337651 0.013703)
(0.00388431 0.037107 -0.0238319)
(-0.0040684 0.00184769 0.00015791)
(0.00153702 -0.000175797 -4.69485e-05)
(0.000715443 -0.000392275 -4.35691e-05)
(0.000624563 -0.000562418 -0.000453528)
(0.00031718 3.60808e-06 -9.69832e-07)
(0.000463096 2.1211e-05 -2.85082e-06)
(0.000459922 2.88182e-05 -9.31041e-07)
(0.000775866 4.02587e-05 -1.31702e-06)
(0.000338925 2.15915e-05 -2.15835e-06)
(0.000611685 1.29209e-05 1.14095e-06)
(0.000643808 6.17742e-05 -2.86342e-06)
(0.000774499 3.36946e-05 -1.19535e-06)
(0.000798303 4.29243e-05 -2.07351e-06)
(0.00107736 5.31575e-05 -1.30763e-06)
(0.000569867 3.03042e-05 -3.69899e-06)
(0.000565024 2.92549e-05 -3.82389e-06)
(0.000978772 6.42111e-05 -4.05612e-06)
(0.000957948 6.14106e-05 -4.17478e-06)
(0.000775578 2.53777e-05 -3.74474e-08)
(0.00076084 2.73941e-05 -1.94823e-07)
(0.00102883 4.05611e-05 9.36273e-08)
(0.000778122 1.7739e-05 8.49563e-08)
(0.000772524 1.77185e-05 9.37389e-08)
(0.00103911 2.82606e-05 1.8764e-07)
(0.000780281 1.19424e-05 7.291e-08)
(0.00077552 1.12512e-05 5.47662e-08)
(0.00103994 1.91892e-05 1.63064e-07)
(0.000782181 7.82236e-06 3.48821e-08)
(0.000779053 7.2321e-06 6.29413e-08)
(0.00104235 1.248e-05 1.66402e-07)
(0.000783355 5.20811e-06 3.4928e-08)
(0.000781268 4.60249e-06 2.59437e-08)
(0.00104416 8.12713e-06 1.75263e-07)
(0.000782893 3.46862e-06 5.74882e-08)
(0.000782138 2.74186e-06 5.89878e-08)
(0.00104428 5.5356e-06 1.93878e-07)
(0.000782379 2.16378e-06 6.34434e-08)
(0.000782034 1.68866e-06 4.70866e-08)
(0.0010433 3.54998e-06 1.73093e-07)
(0.000781555 1.33448e-06 6.46789e-08)
(0.000781657 1.96608e-06 1.25538e-07)
(0.0010423 2.11331e-06 1.51376e-07)
(0.000780848 9.6654e-07 3.78991e-08)
(0.000781042 6.4622e-07 4.69629e-08)
(0.00104118 1.37123e-06 1.68481e-07)
(0.000779223 7.3361e-07 3.85374e-08)
(0.000780042 4.04286e-07 4.47708e-08)
(0.00103966 1.13348e-06 1.56853e-07)
(0.000778073 4.41332e-07 1.25145e-07)
(0.000778633 6.59155e-07 4.44417e-08)
(0.00103759 7.43558e-07 1.63403e-07)
(0.000776919 2.10169e-07 1.23054e-07)
(0.000777371 1.77859e-07 1.10687e-07)
(0.00103599 3.42033e-07 1.63466e-07)
(0.000775622 9.22031e-08 3.24352e-08)
(0.00077622 4.6988e-08 5.66852e-08)
(0.0010345 1.50729e-07 1.73619e-07)
(0.000774305 -1.01126e-07 3.60965e-08)
(0.000774733 6.72661e-09 4.47314e-08)
(0.00103267 1.07785e-07 1.67905e-07)
(0.000773152 -5.31172e-08 4.6333e-08)
(0.000773737 -3.26847e-07 5.29438e-08)
(0.00103093 -2.89231e-07 1.65165e-07)
(0.000771735 2.95976e-07 5.08498e-08)
(0.000772802 1.1266e-07 8.94033e-08)
(0.00102923 2.17745e-07 1.70098e-07)
(0.000770519 4.32737e-07 6.53795e-08)
(0.00077123 -6.72446e-07 5.59138e-08)
(0.00102746 5.96285e-07 1.78785e-07)
(0.000769201 3.43454e-07 6.46604e-08)
(0.000769755 5.37529e-07 7.10409e-08)
(0.0010257 6.05503e-07 1.65845e-07)
(0.000768055 2.10136e-07 5.31873e-08)
(0.000768487 -5.07774e-07 4.25982e-08)
(0.00102405 3.69569e-07 2.01911e-07)
(0.000766768 2.9052e-07 5.25113e-08)
(0.000767457 5.53614e-08 4.49234e-08)
(0.00102259 2.09659e-07 1.70732e-07)
(0.000764939 1.14595e-07 5.74956e-08)
(0.0007657 -1.68618e-07 2.10468e-08)
(0.00102034 5.27568e-07 2.567e-07)
(0.000763722 -4.12597e-07 -5.26355e-09)
(0.000763908 -3.90263e-07 3.73637e-08)
(0.00101821 -2.8406e-07 1.7134e-07)
(0.000762263 -5.87743e-07 -3.40724e-08)
(0.000762931 2.36971e-06 3.87179e-08)
(0.00101656 -8.61495e-07 -2.52517e-08)
(0.000760758 -5.04055e-07 3.76304e-08)
(0.000761704 1.06533e-06 2.23398e-08)
(0.00101439 -7.34679e-07 8.04704e-08)
(0.000759999 -3.31303e-07 8.03381e-08)
(0.000760546 2.70017e-07 1.41003e-07)
(0.00101289 -6.00132e-07 1.57393e-07)
(0.000759074 -6.07385e-08 6.26335e-08)
(0.000759645 -1.52509e-06 5.65653e-08)
(0.00101194 -2.34983e-07 2.36943e-07)
(0.000757684 1.4294e-07 4.70807e-08)
(0.000758401 -7.03881e-09 4.05714e-08)
(0.00101036 1.38433e-07 1.58661e-07)
(0.000756307 2.30456e-07 7.05052e-08)
(0.000756952 -7.22974e-08 4.23873e-08)
(0.00100847 3.115e-07 2.04481e-07)
(0.000754398 2.32838e-07 5.90813e-08)
(0.000755453 7.42863e-08 6.22533e-08)
(0.00100616 3.46765e-07 2.58271e-07)
(0.000753314 2.98989e-07 4.31178e-08)
(0.000754046 1.23169e-07 4.15385e-08)
(0.00100406 3.09526e-07 1.55418e-07)
(0.000751933 4.13507e-07 5.89768e-08)
(0.000752775 3.234e-07 4.61313e-08)
(0.00100254 5.48257e-07 1.74016e-07)
(0.000751239 2.57716e-07 4.53295e-08)
(0.000751528 -1.08616e-06 5.74951e-08)
(0.00100124 5.81754e-07 1.90615e-07)
(0.000749825 3.69449e-08 5.04816e-08)
(0.000750318 1.60404e-07 4.19684e-08)
(0.000999744 9.61386e-08 1.66779e-07)
(0.000748431 -1.44247e-07 8.2364e-08)
(0.000748914 -1.62434e-09 6.0152e-08)
(0.000997736 3.28328e-09 1.68266e-07)
(0.000747112 -3.46623e-07 1.67198e-07)
(0.000747672 -3.49679e-07 6.05055e-08)
(0.000996177 -4.24208e-07 1.72353e-07)
(0.00074611 -2.94454e-07 1.38393e-07)
(0.000746601 -2.2196e-07 1.31119e-07)
(0.000994503 -5.30041e-07 1.93633e-07)
(0.000744437 -1.4917e-07 2.52659e-08)
(0.000745306 2.14184e-07 4.02658e-08)
(0.000992617 -2.66734e-07 1.56307e-07)
(0.000743285 -1.44623e-07 3.92853e-08)
(0.000743911 1.93638e-07 4.22293e-08)
(0.000990787 -1.69814e-07 1.00408e-07)
(0.000741971 -3.62904e-07 4.976e-08)
(0.000742552 -3.37307e-09 5.53727e-08)
(0.000989066 -2.23622e-07 1.67422e-07)
(0.00074053 -4.94514e-07 1.07051e-08)
(0.000741261 -3.41897e-07 4.33046e-08)
(0.000987392 -6.92941e-07 1.61741e-07)
(0.000738951 -3.50514e-07 2.43797e-08)
(0.000739725 9.90088e-07 1.53262e-09)
(0.000985277 -5.75865e-07 8.9075e-08)
(0.000738386 -4.77874e-07 4.34012e-08)
(0.000983054 -3.60939e-07 2.57794e-07)
(0.00919023 0.00253761 0.00233488)
(-0.0130722 0.00182788 -0.0792057)
(0.000797905 -0.00703356 -0.0157117)
(-0.0198475 -0.00131044 0.13613)
(-0.0243991 0.000163005 -0.0389018)
(0.0126251 0.00944974 0.00663422)
(-0.00254986 0.0107823 0.0101225)
(-0.0106061 0.00219 0.0120803)
(-0.00648359 0.00394239 0.00539437)
(0.0185924 -0.00333827 -0.00665281)
(0.0185924 -0.00333827 -0.00665281)
(0.0185924 -0.00333827 -0.00665281)
(0.0185924 -0.00333827 -0.00665281)
(0.00632255 -0.0232567 -0.00266883)
(-0.0167332 0.00672213 -0.00362021)
(0.0188396 0.00738446 -0.00210037)
(0.00629906 0.00783308 -0.00609335)
(0.00881119 0.0234858 -0.00150343)
(0.0154184 -0.0032869 0.00283646)
(0.00810298 -0.0107544 0.000712602)
(0.0326068 -0.0103042 0.00170081)
(0.0207886 -0.00183113 0.000602757)
(0.0320233 -0.0160308 -0.00203456)
(-0.013346 -0.00685682 0.000551027)
(-0.0157752 -0.00884665 0.000829549)
(0.00104019 -0.0142588 -0.000196885)
(-1.62745e-06 0.00223695 -0.000200425)
(-0.0236029 -0.0139858 -0.00202143)
(-0.00288022 0.00329376 0.0054908)
(-0.00672447 0.000410994 0.000423622)
(-0.00134328 -0.0100727 0.000289683)
(0.00458586 0.00180864 0.00299149)
(0.0181877 -0.0098978 0.00032128)
(0.000375285 -0.00107553 4.12619e-05)
(-0.00438059 -0.000470969 -6.44651e-05)
(-0.00127794 -0.000588634 -7.43053e-05)
(-0.00141115 0.000136486 -0.000167668)
(-0.00294087 -0.00381411 -0.00034278)
(0.000341278 2.8566e-05 9.91333e-07)
(0.000469286 4.31313e-05 -5.72404e-07)
(0.000450856 3.80356e-05 -2.60026e-06)
(0.000496327 7.30345e-05 1.62082e-06)
(0.000791615 8.57593e-05 -1.17085e-06)
(0.000314499 3.89985e-05 -2.17481e-06)
(0.000631789 5.37617e-05 6.09274e-06)
(0.000554758 8.15685e-05 -8.52927e-06)
(0.000756043 3.94747e-05 -1.0736e-06)
(0.000753995 4.30118e-05 -1.52011e-06)
(0.00105587 7.07634e-05 -1.46389e-06)
(0.00055325 3.39902e-05 -3.79735e-06)
(0.000549051 5.29466e-05 -4.09643e-06)
(0.000929829 5.95014e-05 -4.29631e-06)
(0.00092057 9.78731e-05 -4.59255e-06)
(0.000762278 2.05363e-05 -6.37307e-08)
(0.000736842 1.93791e-05 -1.5153e-07)
(0.00100496 3.68786e-05 5.90035e-08)
(0.000769278 1.0989e-05 6.35615e-08)
(0.000760501 7.12178e-06 1.3111e-07)
(0.00102444 1.97407e-05 1.71665e-07)
(0.000774798 6.15108e-06 4.47948e-08)
(0.000769419 2.61375e-06 5.4588e-08)
(0.00103038 1.09683e-05 1.643e-07)
(0.00077845 3.58804e-06 5.40149e-08)
(0.000775817 8.50397e-07 6.20541e-08)
(0.00103638 6.4245e-06 1.7034e-07)
(0.00078053 2.00957e-06 4.99927e-08)
(0.000779275 2.07227e-07 5.42236e-08)
(0.00103972 3.81634e-06 1.70628e-07)
(0.000781386 1.08519e-06 4.859e-08)
(0.000780971 -1.01921e-07 5.1135e-08)
(0.00104139 1.9843e-06 1.70821e-07)
(0.000781422 6.14963e-07 1.09156e-07)
(0.000781439 -1.23205e-07 5.11554e-08)
(0.00104172 1.19217e-06 1.71663e-07)
(0.000781203 3.9516e-07 1.07848e-07)
(0.000781378 1.35864e-07 1.1184e-07)
(0.00104145 6.21062e-07 1.95594e-07)
(0.00078041 2.32105e-07 5.38353e-08)
(0.000780836 -6.88081e-08 4.50084e-08)
(0.00104073 5.29344e-07 1.68917e-07)
(0.000779474 8.11513e-08 5.06752e-08)
(0.000779852 -4.53899e-08 6.86533e-08)
(0.00103945 1.36455e-07 1.63179e-07)
(0.00077788 1.17003e-07 2.99625e-08)
(0.000778677 7.47412e-07 6.31815e-08)
(0.00103766 9.15639e-08 1.83106e-07)
(0.000776739 1.90955e-07 4.43356e-08)
(0.000777462 -8.86038e-08 5.72336e-08)
(0.00103582 2.27644e-07 1.68641e-07)
(0.000775383 2.59587e-07 6.89852e-08)
(0.000776304 3.02529e-07 5.43975e-08)
(0.00103423 3.12787e-07 1.5122e-07)
(0.000773763 5.87341e-07 6.1576e-08)
(0.000775141 4.48911e-07 5.33821e-08)
(0.00103207 3.95499e-07 1.61361e-07)
(0.000773844 6.40078e-07 9.60024e-08)
(0.000773801 -2.19402e-06 4.74244e-08)
(0.00103099 1.13388e-06 1.74284e-07)
(0.000772225 3.71827e-07 9.44779e-08)
(0.000772465 4.67696e-07 -3.55764e-08)
(0.00103013 5.5159e-07 1.67566e-07)
(0.000770396 2.18183e-07 6.15703e-08)
(0.000771036 -7.54274e-08 4.36549e-08)
(0.00102774 4.78645e-07 1.69251e-07)
(0.00076902 5.12074e-08 4.89877e-08)
(0.000769545 1.57483e-08 5.95957e-08)
(0.00102548 1.60416e-07 2.08128e-07)
(0.000767827 -1.05927e-07 3.43335e-08)
(0.000768291 -2.44122e-10 2.92975e-08)
(0.0010237 3.5792e-08 1.20084e-07)
(0.000766807 -5.70689e-07 1.34665e-08)
(0.000766877 -3.12618e-07 5.21482e-08)
(0.00102238 -2.83155e-07 1.66681e-07)
(0.000764267 -7.28364e-07 9.09792e-10)
(0.000765506 3.50761e-06 -5.42824e-08)
(0.00101994 -1.23859e-06 1.57381e-08)
(0.0007631 -5.24516e-07 8.13447e-08)
(0.000764165 -4.05647e-07 2.19058e-08)
(0.00101729 -7.139e-07 1.55034e-07)
(0.000762488 -3.96169e-07 9.51352e-08)
(0.000763094 6.64353e-09 1.15958e-07)
(0.00101628 -6.77349e-07 2.72331e-07)
(0.000761384 5.2968e-08 1.25675e-07)
(0.000762266 -4.19527e-08 6.92793e-08)
(0.00101513 -3.62302e-07 2.27279e-07)
(0.000760193 4.78382e-07 1.17256e-07)
(0.000761077 6.02715e-07 2.7093e-07)
(0.00101352 5.53871e-07 1.32957e-07)
(0.000759089 3.94929e-07 3.45081e-08)
(0.000759539 9.92256e-07 7.84811e-08)
(0.00101206 7.81441e-07 -3.00289e-08)
(0.000757602 1.34343e-07 3.58774e-08)
(0.000758074 2.92877e-07 5.92029e-08)
(0.00101028 2.81994e-07 1.61676e-07)
(0.000756212 1.07364e-08 3.41292e-08)
(0.000756797 2.3112e-08 4.0373e-08)
(0.00100824 6.33646e-08 1.67522e-07)
(0.000754977 6.31558e-08 4.4717e-08)
(0.000755518 -3.05232e-08 4.57828e-08)
(0.0010065 -3.45203e-08 1.68026e-07)
(0.000753557 2.51044e-07 4.45506e-08)
(0.000754279 1.70102e-07 5.42822e-08)
(0.00100482 2.37197e-07 1.73511e-07)
(0.000752303 4.50628e-07 4.46462e-08)
(0.000753023 3.9896e-07 3.89592e-08)
(0.00100293 4.97335e-07 1.56289e-07)
(0.000750621 3.96198e-07 5.41388e-08)
(0.000751458 -6.8731e-07 7.16785e-08)
(0.00100089 7.41741e-07 1.71268e-07)
(0.000749499 3.40956e-09 5.16333e-08)
(0.000749826 5.8733e-09 5.98828e-08)
(0.000999099 3.0059e-07 1.60509e-07)
(0.00074809 -3.64415e-07 3.82935e-08)
(0.000748455 4.39694e-07 5.74683e-08)
(0.000997323 -2.855e-07 1.42808e-07)
(0.000747045 -3.58932e-07 2.44052e-08)
(0.000747681 -8.74315e-07 1.17789e-07)
(0.000995647 -6.35641e-07 1.79478e-07)
(0.000745973 -1.39643e-07 3.30196e-08)
(0.000746876 -2.87934e-08 4.86411e-08)
(0.000994434 -3.5437e-07 1.2942e-07)
(0.00074472 -6.94888e-08 5.72286e-08)
(0.000745396 -6.09951e-08 6.31123e-08)
(0.000992807 -1.08776e-07 1.79297e-07)
(0.000743187 -6.62677e-08 5.83127e-08)
(0.000743916 -1.05147e-07 6.93911e-08)
(0.000990935 -1.33218e-07 2.06083e-07)
(0.000741811 -1.11671e-07 4.89209e-08)
(0.000742496 7.92272e-08 5.09581e-08)
(0.000989001 -5.98853e-08 1.63386e-07)
(0.000740594 -2.65305e-07 3.41448e-08)
(0.00074107 -5.49541e-07 5.00732e-08)
(0.000987217 -2.06015e-07 1.69539e-07)
(0.000738926 -3.07542e-07 2.05413e-08)
(0.000739676 5.21593e-07 3.95463e-08)
(0.000985226 -4.71285e-07 2.29265e-07)
(0.000738769 9.76426e-08 4.56428e-08)
(0.000983852 -3.37794e-07 7.35373e-08)
(-0.0273315 -0.0240672 -0.0042147)
(-0.0884176 -0.0172441 0.000286768)
(-0.0784797 -0.02878 0.00827593)
(-0.0130024 -0.0374119 0.00109432)
(-0.0194464 -0.00152437 0.00187283)
(0.00728069 -0.020391 0.00149047)
(-0.0344188 0.000929105 0.000209322)
(0.000116649 -0.0269161 0.000606043)
(-0.0217383 -0.00696687 0.00517776)
(0.00721606 -0.00237905 -0.00116008)
(0.000838572 0.00935851 0.000810474)
(0.0282812 -0.0132952 -0.000154187)
(0.000838572 0.00935851 0.000810474)
(0.0282812 -0.0132952 -0.000154187)
(-0.0051001 0.0184035 -0.00104607)
(-0.000526294 0.016339 -0.00135985)
(0.00173332 0.0154985 1.22472e-05)
(-0.010537 0.0113778 -8.5405e-05)
(0.00631101 0.0199582 -0.000520362)
(-0.00538587 -0.00404602 0.00150614)
(-0.01004 0.00128292 0.00150093)
(0.00276461 -0.00962761 0.000981506)
(0.00322118 0.00433916 0.000692906)
(-0.00136629 -0.0060981 0.00149001)
(-0.00136629 -0.0060981 0.00149001)
(-0.00136629 -0.0060981 0.00149001)
(-0.00136629 -0.0060981 0.00149001)
(0.000638643 0.0023366 -4.55817e-05)
(0.00460285 0.00293662 -0.000226937)
(0.00645939 0.00187211 2.04437e-05)
(0.00477685 0.00683647 -0.000111243)
(0.00834211 0.00393053 -0.000459148)
(0.000273015 2.00261e-05 8.07497e-06)
(0.000327375 5.18513e-05 4.7485e-06)
(0.000267264 1.18904e-05 8.30384e-06)
(0.000391621 4.63077e-05 9.84719e-06)
(0.000188314 2.09303e-05 1.95472e-06)
(0.000710575 4.76418e-07 -5.98495e-07)
(0.000712727 -5.23044e-05 -1.61747e-06)
(0.000960483 4.28086e-06 -8.0668e-07)
(0.000481939 3.23459e-05 -3.33788e-06)
(0.000458252 -1.17062e-05 -3.35499e-06)
(0.000806154 7.06051e-05 -3.44578e-06)
(0.000750439 -3.01396e-05 -2.87522e-06)
(0.000741286 -3.69926e-06 4.32181e-08)
(0.000731551 -2.06187e-05 -4.54143e-08)
(0.000964146 -6.51047e-07 1.51017e-07)
(0.000760999 -5.23533e-06 1.22162e-07)
(0.000758572 -1.9813e-05 1.19127e-07)
(0.00100648 -6.00607e-06 2.00138e-07)
(0.000771437 -4.19006e-06 7.18448e-08)
(0.000770721 -1.23612e-05 7.02719e-08)
(0.00102315 -5.15276e-06 1.75721e-07)
(0.000777199 -3.07284e-06 6.22653e-08)
(0.000777211 -8.23375e-06 -7.10382e-08)
(0.00103332 -3.93035e-06 1.74165e-07)
(0.000780121 -2.13161e-06 5.53669e-08)
(0.000780449 -5.26367e-06 5.46305e-08)
(0.00103855 -2.80453e-06 1.71976e-07)
(0.000781291 -1.41872e-06 5.37004e-08)
(0.00078186 -3.34994e-06 5.26888e-08)
(0.00104096 -1.89615e-06 1.71702e-07)
(0.000781441 -9.08279e-07 5.38195e-08)
(0.000782077 -2.07641e-06 4.94852e-08)
(0.00104158 -1.24925e-06 1.71614e-07)
(0.000781232 -6.56519e-07 4.90221e-08)
(0.000781693 -1.4179e-06 4.97296e-08)
(0.00104146 -7.7386e-07 1.75883e-07)
(0.000780306 -5.6537e-07 5.98188e-08)
(0.000780951 -6.59129e-07 4.64599e-08)
(0.00104057 -7.29476e-07 1.7178e-07)
(0.000779164 -5.40398e-07 8.11614e-08)
(0.000779884 -8.40158e-07 4.74328e-08)
(0.00103911 -6.27124e-07 2.04703e-07)
(0.000778188 -4.0377e-07 9.04545e-08)
(0.000778849 4.7172e-07 6.19972e-08)
(0.0010377 -7.10991e-07 1.54958e-07)
(0.000777044 -1.46815e-07 6.72964e-08)
(0.000777784 -4.01987e-07 5.97609e-08)
(0.00103626 -2.98414e-07 1.72213e-07)
(0.00077603 1.13321e-08 3.87947e-08)
(0.000776502 -4.2335e-07 5.62998e-08)
(0.0010347 -7.37103e-08 1.89689e-07)
(0.000775306 2.48387e-07 3.92324e-08)
(0.000775437 -3.20326e-07 4.21443e-08)
(0.00103369 8.88776e-08 1.67748e-07)
(0.000772328 2.3651e-07 -8.4128e-08)
(0.000773785 -9.86044e-07 4.86302e-09)
(0.00103112 5.20145e-07 2.26433e-07)
(0.0007714 -8.14024e-08 -8.64246e-08)
(0.000772067 -2.08937e-07 -7.59575e-08)
(0.0010284 8.78526e-08 1.7927e-07)
(0.000770035 -1.77911e-07 4.16752e-08)
(0.000770916 2.51795e-07 2.70197e-08)
(0.00102696 -2.96146e-07 1.47575e-07)
(0.000768843 -1.46772e-07 3.99152e-08)
(0.000769585 3.85508e-08 5.58187e-08)
(0.00102515 -1.78828e-07 1.53851e-07)
(0.000767444 -1.50391e-07 4.7105e-08)
(0.000768287 8.06292e-08 4.62611e-08)
(0.00102349 -1.85225e-07 1.68085e-07)
(0.000765505 -2.32007e-07 -1.5567e-08)
(0.000766775 -7.28557e-08 6.92721e-08)
(0.001021 -1.6037e-07 2.04574e-07)
(0.000765453 4.26977e-08 -3.33105e-08)
(0.000765849 -1.04451e-06 -4.70661e-08)
(0.00101981 -3.80893e-07 3.76397e-07)
(0.000763918 5.97644e-07 5.64894e-08)
(0.000764858 -1.10731e-06 3.59449e-08)
(0.00101892 5.61608e-07 2.36076e-07)
(0.000763018 7.64415e-07 9.01166e-08)
(0.0007633 -8.64114e-07 5.08648e-08)
(0.00101701 1.05121e-06 1.923e-07)
(0.000761971 6.1541e-07 2.14471e-07)
(0.000762077 -2.03051e-06 4.30415e-08)
(0.00101593 9.75314e-07 2.84677e-07)
(0.000760543 4.56804e-07 2.32215e-07)
(0.000760877 4.92818e-07 1.83936e-07)
(0.00101432 6.4637e-07 1.8547e-07)
(0.000758411 3.04671e-07 1.03182e-07)
(0.000759347 5.24534e-08 8.73323e-08)
(0.0010116 5.4593e-07 3.07197e-07)
(0.000757268 1.63371e-07 6.37043e-08)
(0.000757897 9.52994e-08 4.89368e-08)
(0.00100946 2.21346e-07 1.66476e-07)
(0.00075611 1.2689e-07 5.20249e-08)
(0.000756751 -1.17696e-07 1.44565e-07)
(0.00100807 1.61676e-07 1.63697e-07)
(0.000754803 6.28179e-08 5.53455e-08)
(0.000755438 2.24044e-08 4.38278e-08)
(0.00100637 1.42735e-07 1.63105e-07)
(0.000753691 3.48247e-09 4.86956e-08)
(0.000754205 -2.10254e-07 4.8186e-08)
(0.00100472 9.77877e-09 1.76586e-07)
(0.000752411 -9.18019e-08 6.59814e-08)
(0.000752904 4.33656e-07 2.76716e-08)
(0.00100317 -1.69794e-08 1.61618e-07)
(0.000750544 -1.55958e-07 7.74261e-08)
(0.000751378 1.12122e-06 6.22591e-08)
(0.00100099 -2.19414e-07 8.64757e-08)
(0.000748727 -6.71708e-08 6.57186e-08)
(0.000749937 6.19265e-07 5.55192e-08)
(0.000998457 -1.53898e-07 1.67708e-07)
(0.000747763 2.57293e-07 1.36945e-07)
(0.00074886 -6.81385e-08 1.09817e-07)
(0.000996568 2.81017e-08 1.71192e-07)
(0.000747892 3.84427e-07 1.42046e-07)
(0.000747838 -2.22833e-06 1.24038e-07)
(0.000996096 7.20587e-07 1.33302e-07)
(0.000746262 1.87305e-07 7.87294e-08)
(0.000746628 2.48352e-07 4.38886e-08)
(0.000995166 4.01704e-07 1.73945e-07)
(0.000744612 1.03529e-07 7.52728e-08)
(0.00074529 3.15371e-07 1.53842e-08)
(0.000992899 2.29152e-07 1.6802e-07)
(0.000743122 1.46053e-07 6.2042e-08)
(0.000743967 5.36881e-08 1.67463e-07)
(0.00099085 1.69492e-07 1.68805e-07)
(0.000741794 1.5988e-07 5.21106e-08)
(0.000742512 1.13561e-07 6.74473e-08)
(0.000988978 2.92262e-07 1.62567e-07)
(0.000740148 6.83329e-08 5.54779e-08)
(0.000740954 -2.24341e-08 3.44738e-08)
(0.00098688 1.80808e-07 1.55073e-07)
(0.000739317 4.3614e-08 6.46459e-08)
(0.000739643 -1.84228e-07 5.01527e-08)
(0.000985121 5.05673e-08 1.70083e-07)
(0.000738714 1.33356e-07 5.56861e-08)
(0.000984062 8.75554e-08 1.55579e-07)
(0.0101682 0.0106789 -0.000438482)
(0.005265 -0.00599173 -0.000268155)
(-0.00688637 0.0183854 0.000814378)
(0.00123515 0.00908812 -0.000932742)
(0.01085 -0.0135168 0.00291476)
(0.0415781 0.00162066 -0.00282841)
(0.0159959 0.0022972 0.00343002)
(0.0172988 -0.00736055 -0.00411077)
(0.0224133 -0.00637635 -0.0189973)
(0.0206016 -0.00701155 0.0476082)
(0.0247182 0.00626199 -0.00313738)
(0.00303529 0.0107385 0.00194386)
(0.0203783 0.00283069 0.00361365)
(-0.00489621 -0.00809206 0.00056673)
(0.0199385 0.026209 0.00128693)
(0.0496518 0.00773065 -0.00763193)
(0.0230567 0.0311949 0.00140941)
(-0.0430907 -0.0103995 0.00311632)
(-0.0045131 -0.00133109 0.000897994)
(-0.00295578 -0.00856986 -0.00211919)
(-0.0214591 -0.00638931 0.00367027)
(0.0221443 -0.00720392 0.000556685)
(0.0375464 0.017256 -0.000819913)
(0.0321733 0.00548283 0.00030262)
(0.021593 0.0451617 -0.00185819)
(0.0537676 0.0117927 0.000438146)
(0.00111844 -0.00421814 0.000107016)
(-0.0125197 0.00414278 -0.00043115)
(0.00698987 -0.00613216 -0.000541021)
(-0.00504085 0.00112171 0.00128617)
(-0.000375922 -0.00400458 0.000819245)
(0.00346654 -0.00546501 -0.000431803)
(0.0108207 0.000133106 0.00200602)
(-0.00416465 0.00994944 0.000418303)
(-0.0076655 0.00770757 -0.000603738)
(-0.000154276 -0.00149639 -0.0719414)
(-0.0101578 -0.00597606 0.098308)
(0.00316311 -0.00456143 -0.0129318)
(-0.00956115 -0.00972556 -0.0237905)
(0.0023583 -0.00710199 0.000352666)
(0.00717647 0.000277156 0.00110137)
(0.0010107 -0.00371987 -0.000195119)
(0.00327662 0.00146444 0.000102604)
(0.012262 0.00252428 -5.76192e-05)
(0.00122711 -9.60585e-05 3.56666e-05)
(0.000333591 -0.000149014 3.54148e-05)
(0.000285895 -6.3976e-05 3.21575e-05)
(0.000520662 -6.82215e-05 6.87486e-05)
(0.000343758 -5.50036e-05 2.10563e-05)
(0.000728354 -7.94071e-05 -1.0649e-06)
(0.000501571 -0.000115616 -2.47662e-06)
(0.000952021 -0.000151649 -1.23078e-06)
(0.000477401 -5.43368e-05 -4.33602e-06)
(0.000458379 -0.000107479 -1.44583e-06)
(0.000799691 -7.3895e-05 -3.69924e-06)
(0.000795653 -0.000189985 3.97152e-06)
(0.000511632 -0.000113985 -4.06509e-06)
(0.000859854 -0.000191249 -1.39781e-06)
(0.000880014 -0.000190752 -4.79934e-06)
(0.000754773 -3.64673e-05 3.0441e-08)
(0.000789798 -5.51111e-05 -6.0951e-07)
(0.000991905 -4.9962e-05 1.4286e-07)
(0.00077035 -2.53636e-05 6.72534e-08)
(0.000772514 -4.11341e-05 -1.75945e-07)
(0.00101877 -3.96096e-05 1.70328e-07)
(0.000777725 -1.52224e-05 -7.2565e-08)
(0.000783443 -2.34569e-05 1.06792e-07)
(0.00103296 -2.29236e-05 1.73437e-07)
(0.000781051 -9.62305e-06 -7.87139e-08)
(0.000784236 -1.44196e-05 -1.03793e-07)
(0.0010393 -1.43838e-05 1.85248e-07)
(0.000782594 -6.03168e-06 5.19531e-08)
(0.000784955 -8.97356e-06 7.38927e-08)
(0.00104226 -9.18328e-06 1.70503e-07)
(0.00078287 -3.60986e-06 4.84746e-08)
(0.000784898 -5.47228e-06 4.96942e-08)
(0.00104333 -5.57596e-06 1.71689e-07)
(0.00078242 -2.11998e-06 4.53952e-08)
(0.000783945 -3.25381e-06 2.0949e-08)
(0.00104312 -3.22124e-06 1.70134e-07)
(0.000781493 -1.36744e-06 4.71685e-08)
(0.000782637 -1.96716e-06 8.71051e-09)
(0.0010421 -1.91581e-06 1.68591e-07)
(0.000780646 -9.76255e-07 3.40736e-08)
(0.000781442 -1.31988e-06 4.78268e-08)
(0.00104091 -1.39278e-06 1.69821e-07)
(0.000779431 -6.75601e-07 2.82638e-08)
(0.000780262 -6.3799e-07 3.37282e-08)
(0.00103948 -9.6274e-07 1.42238e-07)
(0.000778581 -4.77011e-07 3.13043e-08)
(0.000779099 -2.53685e-07 4.27334e-08)
(0.00103808 -6.73672e-07 1.75095e-07)
(0.000777224 -3.44317e-07 4.87654e-08)
(0.000777951 -4.16798e-07 1.08357e-09)
(0.00103662 -5.22249e-07 1.70027e-07)
(0.000775787 -3.15284e-07 5.96539e-08)
(0.00077654 -2.99866e-07 6.62559e-08)
(0.00103472 -3.65205e-07 1.67414e-07)
(0.000774402 -5.7577e-07 7.78685e-09)
(0.000775113 -2.96582e-07 1.50413e-07)
(0.00103281 -4.4497e-07 1.69988e-07)
(0.000773024 -5.59268e-07 1.30592e-08)
(0.000773808 -4.34166e-07 1.14153e-08)
(0.00103099 -1.0306e-06 1.32827e-07)
(0.000771756 -2.60756e-07 3.74541e-08)
(0.000772442 -1.40628e-07 7.36026e-08)
(0.00102911 -4.10291e-07 1.56946e-07)
(0.000770416 -7.54869e-08 4.11541e-08)
(0.000771148 -5.76956e-08 4.49807e-08)
(0.00102741 -2.9078e-07 1.89902e-07)
(0.000769016 1.26884e-07 6.21677e-08)
(0.000769838 -9.69709e-08 6.16501e-08)
(0.00102563 5.51717e-08 1.83181e-07)
(0.000767775 2.74719e-07 6.84209e-08)
(0.00076847 -3.22518e-08 6.21454e-08)
(0.00102373 2.6571e-07 1.6779e-07)
(0.000766708 6.97447e-07 3.78098e-08)
(0.000767301 -4.48402e-07 5.36667e-08)
(0.00102214 5.02336e-07 1.71276e-07)
(0.000765685 8.8967e-07 2.21631e-08)
(0.000766085 -1.87763e-06 1.16462e-09)
(0.00102084 1.42367e-06 2.0001e-07)
(0.000764053 7.72069e-07 3.03157e-08)
(0.000764706 3.46257e-07 4.6139e-08)
(0.00101907 1.01467e-06 9.2437e-08)
(0.000762424 7.97447e-07 3.79218e-09)
(0.000763327 -1.5248e-07 2.98133e-08)
(0.00101679 1.08754e-06 1.44789e-07)
(0.000760872 5.08991e-07 1.24623e-08)
(0.000761714 -4.55973e-07 1.48195e-08)
(0.00101462 1.06985e-06 7.68364e-08)
(0.000759895 7.34025e-08 3.90837e-08)
(0.000760331 7.32755e-08 3.77493e-08)
(0.00101298 3.04428e-07 1.67328e-07)
(0.000758655 -6.24688e-09 3.30992e-08)
(0.000759247 -7.21679e-09 4.67683e-08)
(0.00101153 -1.02348e-07 1.6531e-07)
(0.000757414 7.49983e-08 1.29768e-07)
(0.000757998 -8.29931e-10 3.17204e-08)
(0.0010098 1.14349e-07 1.67995e-07)
(0.000756095 9.40341e-08 1.364e-07)
(0.000756775 4.50319e-08 1.41215e-07)
(0.00100814 1.03161e-07 1.56363e-07)
(0.000754758 2.27882e-08 3.6667e-08)
(0.000755349 5.73692e-08 3.81854e-08)
(0.00100631 1.31772e-07 1.67076e-07)
(0.000753512 -2.0599e-07 2.71684e-08)
(0.00075392 -1.23285e-07 4.28493e-08)
(0.00100462 -1.02955e-07 1.55064e-07)
(0.000751901 -3.82263e-07 2.39386e-08)
(0.000752685 1.65739e-06 5.33377e-08)
(0.00100265 -4.68371e-07 1.05942e-07)
(0.000750742 -3.04268e-07 4.03543e-08)
(0.000751477 8.08003e-07 5.11696e-08)
(0.00100072 -5.59132e-07 1.75474e-07)
(0.000749908 2.62242e-09 9.96013e-08)
(0.000750321 2.32136e-07 4.85198e-08)
(0.000999408 -2.33469e-07 1.51267e-07)
(0.000749041 3.66026e-07 9.6906e-08)
(0.000749313 2.63695e-07 1.65179e-07)
(0.000998413 2.77649e-07 1.01867e-07)
(0.000746601 4.11582e-07 2.59054e-08)
(0.000747893 -1.18842e-06 4.98513e-08)
(0.000996109 7.13762e-07 1.92454e-07)
(0.000745663 1.35335e-07 -1.94478e-08)
(0.000746281 3.97373e-07 -8.67077e-08)
(0.000993814 4.19045e-07 1.20514e-07)
(0.000744623 -8.30752e-09 1.07528e-07)
(0.000745109 3.75511e-08 3.25132e-08)
(0.000992512 1.37684e-08 1.60059e-07)
(0.000743476 1.85672e-08 1.72899e-07)
(0.000744001 -2.43153e-09 1.54372e-07)
(0.00099101 1.46348e-08 1.53317e-07)
(0.00074152 6.61166e-08 4.98205e-08)
(0.000742571 -4.56244e-07 2.11375e-08)
(0.000989011 4.55454e-08 2.63835e-07)
(0.00074047 2.10286e-07 2.91438e-08)
(0.000741134 -3.32147e-07 4.09465e-09)
(0.000986913 1.32913e-07 1.61705e-07)
(0.000738913 2.84003e-07 4.11912e-08)
(0.000739732 1.33813e-07 2.55844e-08)
(0.000985105 4.14328e-07 1.61573e-07)
(0.000738361 3.64661e-07 6.68982e-08)
(0.00098368 3.28816e-07 1.15778e-07)
(0.00143957 -0.00136833 -0.00062165)
(0.00285489 0.00161118 0.00120372)
(0.00180828 0.00346844 0.00113957)
(-0.00342332 0.0199274 -0.00133953)
(0.0184901 -0.00912598 -0.000867485)
(0.00288454 -0.00600445 0.00258018)
(0.00546288 -0.012744 0.000438647)
(0.00407396 -0.0141472 0.00140962)
(0.00623641 -0.0111573 0.000567352)
(-0.0178093 -0.00905217 0.00168422)
(0.0124353 -0.0112563 0.000762421)
(-0.0142856 -0.0184921 -0.000367125)
(-0.0355191 0.00030211 0.00119973)
(-0.0263711 -0.00978104 -0.000988406)
(0.00538182 -0.000309584 0.00115311)
(0.0322186 0.00714115 6.18297e-05)
(0.0310546 0.000550493 -0.00144854)
(0.0263953 0.00200476 0.00101682)
(0.0545406 -0.00366412 -0.00140134)
(0.0509289 -0.005968 -0.0152257)
(0.0522201 -0.00657296 0.0211136)
(0.0491811 0.0209007 0.00081403)
(-0.00301719 -0.0222032 -0.00645592)
(0.0425217 0.00603116 -0.000372803)
(0.0276139 0.0136855 0.00312003)
(0.0107188 0.0188128 0.000628836)
(0.0228836 0.0241118 -0.00194441)
(0.018236 0.0128357 0.0017495)
(-0.00368922 0.0133841 -0.000791505)
(0.0030054 0.000861585 0.000941723)
(-0.0171291 0.0153211 -0.000745636)
(-0.0208445 0.00336701 -0.000831237)
(0.00457946 0.0207089 -0.11184)
(-0.00865476 0.0111539 0.0310987)
(-0.00600031 0.0206618 0.0651976)
(-0.0113535 0.0224923 0.00700489)
(-0.00922856 0.00289533 -7.59133e-05)
(-0.00231684 -0.00691877 0.00127605)
(-0.00151369 -0.00173843 2.50636e-05)
(0.000487973 -0.0040367 0.000206659)
(-0.00403709 -0.00304596 0.000399124)
(0.000508475 -0.00089727 3.47025e-05)
(0.000957143 -0.000299812 -1.3143e-06)
(0.00117723 -0.000335112 -7.50039e-06)
(0.00108584 -0.000429796 -4.97434e-05)
(0.0011268 -0.000262802 1.31114e-05)
(0.000434357 -0.000155308 5.51634e-07)
(0.000452179 -9.95218e-05 -4.02745e-06)
(0.000438665 -0.00010223 -1.23782e-06)
(0.000666646 -0.000158316 -2.39371e-06)
(0.00079113 -5.38005e-05 -8.16037e-07)
(0.000864996 -7.30373e-05 -1.2367e-06)
(0.00111529 -7.87127e-05 -1.05334e-06)
(0.000563103 -8.65091e-05 -3.76228e-06)
(0.000586912 -7.70288e-05 -5.00169e-06)
(0.000935107 -0.000162966 -4.49669e-06)
(0.000969623 -0.000139065 -6.18532e-06)
(0.000790682 -3.42354e-05 -1.36498e-07)
(0.000796992 -4.10416e-05 -4.28318e-07)
(0.0010404 -5.42913e-05 7.85103e-08)
(0.000789969 -2.01601e-05 7.5633e-08)
(0.000801107 -2.46136e-05 1.44889e-07)
(0.00105478 -3.10481e-05 1.8883e-07)
(0.000788265 -1.22338e-05 4.87556e-08)
(0.000794187 -1.40028e-05 1.70974e-08)
(0.00105055 -1.92785e-05 1.66396e-07)
(0.000787484 -7.37407e-06 7.16417e-08)