/*--------------------------------*- C++ -*----------------------------------*\
| =========                 |                                                 |
| \\      /  F ield         | OpenFOAM: The Open Source CFD Toolbox           |
|  \\    /   O peration     | Version:  5.0                                   |
|   \\  /    A nd           | Web:      www.OpenFOAM.org                      |
|    \\/     M anipulation  |                                                 |
\*---------------------------------------------------------------------------*/
FoamFile
{
    version     2.0;
    format      ascii;
    class       surfaceScalarField;
    location    "2";
    object      alphaPhi10;
}
// * * * * * * * * * * * * * * * * * * * * * * * * * * * * * * * * * * * * * //

dimensions      [0 3 -1 0 0 0 0];

internalField   nonuniform List<scalar> 
27511
(
1.84795e-08
1.60386e-08
2.11769e-08
1.46684e-08
1.55345e-08
2.58322e-08
2.46602e-08
-2.18226e-08
2.41154e-08
-2.65736e-08
-2.49878e-08
2.73782e-08
-2.1981e-08
1.31923e-07
-5.41537e-08
3.10681e-08
-1.59566e-08
1.68989e-07
-4.89234e-08
1.10197e-07
2.63477e-08
2.71547e-08
2.46341e-08
2.31345e-08
-2.1277e-08
-1.95098e-08
-2.1054e-08
1.1327e-08
-5.75533e-09
-2.86587e-09
-4.72412e-09
3.80254e-10
-3.3733e-10
7.83476e-09
-1.93557e-15
-6.58286e-20
-6.29183e-17
1.73009e-18
3.96481e-15
-2.75044e-15
7.43243e-16
4.55916e-23
-2.9909e-21
-1.11349e-22
-8.4604e-21
7.10334e-22
-5.94472e-20
5.77872e-20
-1.42014e-26
-4.49029e-25
3.26294e-27
4.94466e-27
-2.15687e-27
-3.75183e-30
3.42992e-30
-6.85147e-30
7.61457e-32
1.09215e-34
-4.42963e-33
-2.69413e-33
2.63672e-38
-5.7915e-37
8.38213e-37
1.09862e-41
-1.27286e-40
1.77401e-39
4.71271e-45
-3.22606e-44
2.78564e-43
2.01879e-48
-7.97938e-48
1.31053e-45
8.60025e-52
-2.17205e-51
6.49807e-50
3.67125e-55
-5.93881e-55
-4.10254e-52
1.55626e-58
-1.59641e-58
-1.54256e-55
6.57005e-62
-3.776e-62
-3.89568e-59
2.80316e-65
-8.10827e-66
-7.32937e-62
1.16665e-68
-3.32872e-69
2.99059e-65
4.82161e-72
-2.70082e-72
1.39011e-68
2.01305e-75
-2.20531e-76
3.82755e-73
9.41799e-79
1.25183e-79
-2.5345e-74
5.09418e-82
2.07641e-83
-2.4886e-77
1.9715e-85
1.03278e-86
-5.52662e-81
7.92123e-89
-1.25472e-90
-5.81661e-85
4.00038e-92
8.274e-94
3.26178e-87
2.02788e-95
-7.20341e-97
5.18107e-91
1.41996e-98
5.14498e-99
-6.15323e-94
4.9882e-102
7.08548e-103
-4.49563e-99
1.11936e-104
-6.05389e-106
3.58537e-101
1.67076e-107
-1.02988e-107
9.3742e-103
3.3264e-111
4.54344e-112
-1.23795e-106
2.47208e-114
1.0111e-116
-1.77046e-110
2.33597e-117
9.04287e-119
2.57579e-113
3.90959e-120
6.84225e-121
-3.05169e-116
3.76608e-124
-1.61592e-124
7.9169e-121
1.8316e-127
-3.00502e-128
9.8011e-127
2.53971e-130
5.48497e-132
-1.34256e-125
1.95471e-133
-1.82464e-135
-3.98847e-129
3.09691e-136
3.08934e-137
2.09764e-132
1.02785e-138
2.57186e-139
-1.09753e-134
1.19577e-142
-1.21116e-143
-1.34193e-138
1.25621e-145
4.76846e-146
-3.99902e-141
2.06991e-149
1.36393e-150
-1.2628e-145
2.5961e-152
-3.20049e-155
8.9382e-150
5.18161e-153
9.89775e-156
-9.9501e-151
6.83154e-158
-7.16215e-158
7.1471e-09
2.7105e-08
1.96906e-08
1.36968e-08
3.95639e-08
4.30223e-08
5.34341e-08
-3.38249e-08
-3.39031e-08
-2.64049e-08
-1.67975e-08
1.7175e-08
-1.50613e-09
-1.6768e-08
-1.68121e-08
1.92808e-08
2.50294e-08
-2.94243e-08
2.09586e-08
2.28614e-08
-2.01282e-08
3.68312e-08
3.11666e-08
3.58888e-08
-6.95019e-08
-2.1055e-08
-1.88121e-09
-2.33681e-09
-2.71398e-09
7.52241e-10
4.73247e-09
2.418e-14
2.79115e-15
1.78158e-08
2.68375e-15
1.78158e-08
8.67075e-22
-1.36442e-18
-3.50866e-22
-3.13208e-19
1.51059e-19
1.58798e-19
1.84325e-18
-1.35029e-18
-1.51293e-18
-1.35075e-18
-2.40458e-26
-1.55077e-22
1.72264e-26
6.28665e-28
-3.63204e-26
-2.4341e-29
7.49026e-31
-1.33002e-29
-1.28721e-31
1.44932e-34
-7.41551e-32
-1.5713e-35
1.74567e-38
-1.23715e-34
3.02458e-38
6.39768e-42
-6.89691e-39
3.74059e-41
2.76219e-45
-1.7895e-42
1.42111e-44
1.20376e-48
-3.46487e-46
5.11649e-47
5.19948e-52
-1.34482e-49
1.17336e-50
2.2364e-55
-3.52899e-53
7.57385e-54
9.57014e-59
-2.28881e-57
8.97129e-57
4.06079e-62
-1.85394e-60
-3.04385e-60
1.72058e-65
-5.33096e-64
-6.42638e-63
7.33112e-69
-1.39635e-67
3.8046e-66
3.17908e-72
-1.08077e-70
-8.45845e-69
1.34432e-75
-3.43868e-74
2.98455e-72
5.65652e-79
-1.86979e-78
-1.08342e-76
2.44586e-82
1.37569e-81
1.00359e-78
9.98768e-86
-3.97405e-85
1.04136e-82
4.25089e-89
-1.683e-88
3.4755e-86
2.01369e-92
8.04663e-93
-7.69351e-88
8.82375e-96
2.66936e-95
-1.20607e-91
4.92491e-99
3.25268e-100
-3.78132e-95
4.62307e-102
3.68835e-103
-4.91786e-98
1.12244e-105
-1.92948e-104
-1.0077e-101
6.57206e-109
-5.51442e-107
5.59624e-103
3.77903e-112
1.44794e-112
1.40144e-107
3.62734e-115
3.33714e-115
2.33993e-110
1.19779e-118
-5.86024e-119
-4.42929e-115
2.2478e-121
2.77052e-123
-9.01488e-121
2.7513e-123
-4.51217e-125
-3.28345e-120
2.14224e-127
-4.88293e-128
6.43614e-123
7.08683e-131
1.4976e-131
-8.61786e-127
4.91294e-134
-3.42892e-135
-3.59148e-130
1.0644e-137
-2.98961e-139
7.88272e-136
4.27117e-141
2.05429e-142
4.19359e-139
3.49956e-144
1.33828e-144
2.10175e-138
3.98969e-147
7.91632e-149
-9.601e-142
1.67625e-150
-4.29901e-150
-3.50979e-145
-1.37929e-153
-1.23929e-153
-3.69258e-149
8.74653e-154
8.92485e-157
-6.58175e-152
9.04956e-158
-1.4633e-154
3.18258e-08
7.1221e-09
6.13819e-08
-6.31538e-09
2.11562e-09
-3.8311e-08
3.04467e-08
7.12529e-08
4.0712e-09
7.11386e-09
9.1547e-09
2.44885e-09
1.74884e-09
3.25028e-08
2.07203e-08
3.67378e-08
1.84922e-08
-3.57554e-08
1.86862e-08
-1.40371e-07
8.26595e-08
-1.51917e-08
4.84895e-08
-2.82192e-08
3.03782e-09
-1.50008e-08
-1.42395e-08
-1.55724e-08
-1.53128e-08
-9.12493e-09
-2.11879e-08
-2.12539e-08
-2.14707e-08
-2.20849e-08
-2.48164e-08
-1.27726e-08
-2.07998e-09
-1.80945e-07
6.15764e-11
2.77329e-09
2.71561e-09
6.73702e-09
-9.71658e-09
-7.17648e-11
1.18039e-14
1.43462e-09
1.16504e-11
1.43504e-09
4.00051e-19
-1.35019e-18
-5.74826e-09
-1.42283e-18
1.8824e-24
-8.81194e-22
-1.80531e-23
7.40526e-20
7.40628e-20
7.3775e-20
7.39724e-20
1.52389e-27
-1.61587e-25
-1.03055e-26
-5.19248e-29
-5.31001e-29
-2.72455e-30
9.31425e-32
-9.0824e-32
-2.21411e-33
2.05936e-35
2.94746e-35
1.01848e-36
1.64612e-39
-1.24417e-38
5.21244e-41
6.10081e-43
-2.68533e-42
-4.25809e-45
2.60896e-46
-7.85032e-46
-8.51753e-47
1.1114e-49
-2.22121e-49
1.50194e-50
4.70314e-53
-4.56427e-53
-2.64015e-52
1.97873e-56
-9.08449e-57
3.91033e-55
8.28127e-60
-8.40014e-60
-1.73146e-59
3.45005e-63
-2.09452e-63
-5.27785e-62
1.43151e-66
-7.01361e-67
-5.2807e-66
5.91084e-70
-2.08274e-71
-3.69003e-68
2.43294e-73
-6.28971e-74
9.67504e-72
9.96541e-77
-1.48247e-78
2.04514e-74
4.08436e-80
-5.25974e-81
-2.19245e-78
1.65974e-83
7.92726e-86
-5.10678e-81
6.73483e-87
-1.10766e-87
-1.33604e-86
2.8207e-90
-1.23198e-90
1.44109e-87
1.1698e-93
-3.70356e-94
-1.74517e-90
4.57443e-97
-2.6553e-97
4.38904e-96
2.56905e-100
-1.04718e-99
-4.05027e-99
4.52022e-103
3.81033e-104
-1.87834e-99
1.09602e-106
2.15216e-108
-4.85399e-102
3.66389e-110
-6.09015e-111
4.32131e-106
1.26492e-113
-1.12074e-113
3.94274e-109
4.68669e-117
3.68023e-118
-7.94185e-113
4.13518e-120
3.21594e-121
-1.17254e-116
1.23561e-122
8.39182e-124
-7.67397e-119
2.77374e-126
6.99582e-125
-8.35747e-122
8.30683e-130
1.18331e-130
-2.2112e-125
8.67174e-133
1.21283e-132
-2.12078e-129
5.9731e-136
-7.20134e-135
-1.36576e-131
1.1479e-139
-1.99765e-138
2.8492e-136
7.72175e-143
5.8731e-143
4.63065e-137
5.97279e-146
2.48255e-145
1.12962e-142
2.48378e-148
9.52524e-150
-2.20065e-144
4.95743e-152
1.23902e-152
-1.69552e-147
2.55031e-153
-2.76287e-157
1.00179e-150
-2.01027e-157
1.10463e-154
3.47576e-08
1.10828e-08
2.44446e-08
-6.93624e-08
-1.43025e-07
3.47504e-08
1.64583e-07
-4.77152e-08
-1.84618e-08
-1.37585e-07
4.28555e-08
-1.38779e-07
6.50143e-08
-3.97906e-08
-4.64807e-08
-4.64883e-08
-4.05984e-08
-3.25626e-08
-3.36958e-08
-2.83824e-08
-2.92924e-08
5.65748e-09
2.12828e-07
3.35922e-09
4.05207e-09
6.14053e-09
4.69451e-09
9.95348e-09
-5.59399e-08
-5.4643e-08
-5.30917e-08
-5.14431e-08
-1.65268e-08
3.0152e-08
2.45131e-08
2.03175e-08
-1.93736e-08
-1.18666e-07
-6.11056e-08
1.70036e-07
-2.80504e-08
2.50205e-09
-1.48266e-08
3.32616e-09
-1.60044e-09
1.12199e-08
-8.97128e-11
-2.51754e-12
5.67163e-11
-9.71889e-11
2.33166e-10
9.35457e-17
5.04382e-19
-1.96558e-08
-1.21311e-18
1.01999e-16
9.07369e-17
8.644e-17
5.68554e-19
3.56849e-25
2.07162e-22
-3.50512e-22
2.70171e-19
2.66945e-19
2.65343e-19
2.72871e-19
3.89722e-26
1.52673e-25
1.14172e-26
1.64817e-28
2.12925e-27
3.53057e-30
3.92639e-32
1.40784e-30
-1.27725e-32
2.73609e-35
1.88039e-34
1.63389e-35
5.07053e-39
6.49305e-38
2.86796e-39
1.66379e-42
1.29874e-41
-1.06274e-42
7.33137e-46
3.29239e-45
-2.01725e-46
3.27496e-49
8.77533e-49
-1.19464e-49
1.44804e-52
1.47468e-52
1.94915e-51
6.33636e-56
5.8073e-56
3.56447e-55
2.74856e-59
4.70348e-60
-6.03688e-59
1.18422e-62
2.89297e-64
-7.45781e-61
5.08679e-66
3.80797e-67
2.6086e-64
2.1827e-69
1.1229e-70
-1.80708e-67
9.29293e-73
2.57075e-73
4.00267e-70
3.94277e-76
4.76524e-77
7.20181e-74
1.64706e-79
-1.04818e-79
-8.89091e-76
7.1673e-83
-4.925e-84
3.85741e-80
3.42227e-86
3.96017e-87
-1.18298e-82
1.33854e-89
-2.13733e-89
-3.44296e-86
6.17476e-93
1.36278e-93
3.20027e-90
5.151e-96
3.54228e-97
-2.73612e-92
3.43943e-99
-1.59121e-100
-3.82906e-95
9.82051e-103
-3.73631e-102
-2.12132e-97
4.86671e-106
-1.12747e-107
-4.54632e-102
4.24259e-109
9.96415e-110
-5.30061e-105
1.17241e-112
-1.61222e-115
-5.16527e-108
5.80135e-116
3.2786e-116
-2.05009e-112
1.29583e-118
-1.08219e-119
-1.52311e-115
5.15449e-121
1.01535e-121
-2.86692e-117
8.66029e-125
7.62344e-125
3.25982e-120
4.26035e-128
2.87454e-130
-3.85223e-124
8.20596e-131
-1.35971e-131
-7.34996e-128
1.20721e-134
-2.74068e-136
4.0326e-134
1.20741e-137
-1.14884e-139
-7.25458e-135
9.16927e-141
1.04185e-142
-4.57251e-137
3.39477e-144
1.41605e-145
-5.03812e-140
1.27407e-147
3.71933e-147
-2.02485e-142
6.24333e-151
3.2601e-151
-3.72032e-148
2.27241e-153
-2.96148e-154
-3.71345e-150
-1.22514e-156
-1.04215e-153
7.39109e-09
-8.76749e-09
1.75842e-07
-6.00765e-08
2.87959e-08
-5.73468e-09
-1.41348e-08
-6.013e-09
-8.04717e-09
-8.07075e-09
7.23044e-08
1.71445e-07
1.71854e-07
-6.83038e-08
-3.75008e-09
3.13138e-07
-2.8534e-08
-2.71247e-08
-2.88379e-08
-2.80076e-08
-6.56842e-08
-6.43417e-09
2.2501e-08
-1.55921e-09
1.90513e-08
1.28493e-08
1.06496e-08
3.84668e-08
-4.76214e-08
3.76927e-08
-7.41325e-08
-4.76789e-08
2.1633e-08
1.10688e-08
-2.43613e-08
-1.85657e-09
-1.98876e-08
2.39414e-09
-4.28707e-09
2.27951e-08
-2.43121e-09
-3.31571e-11
-6.90916e-11
-8.68345e-11
7.77597e-11
9.08552e-16
-7.34897e-19
-2.17123e-08
8.63676e-18
8.96463e-16
9.3837e-16
-2.65759e-16
-4.63412e-18
1.52143e-24
8.23019e-21
8.20556e-22
5.88512e-18
5.88308e-18
5.90081e-18
5.87574e-18
2.95327e-25
1.33802e-24
-8.3643e-26
1.57511e-27
2.69809e-27
8.36265e-30
2.77697e-31
2.46904e-30
7.25332e-31
3.14658e-35
4.79655e-34
1.793e-34
1.11946e-38
1.38083e-37
5.08765e-38
4.5507e-42
3.23989e-41
-9.81068e-42
1.98229e-45
8.32365e-45
-1.69089e-44
8.66439e-49
2.2298e-48
-1.25356e-47
3.76511e-52
6.44305e-52
-1.01123e-50
1.62649e-55
1.52274e-55
2.30182e-53
6.98605e-59
1.35683e-59
-7.95887e-56
2.99197e-62
1.25342e-62
4.2828e-60
1.27722e-65
3.27575e-66
-7.21094e-63
5.38401e-69
3.71176e-70
-4.79578e-66
2.27431e-72
8.50353e-74
2.1077e-69
9.83232e-76
9.54528e-78
2.04714e-73
4.38336e-79
-2.00385e-80
1.97946e-76
1.78379e-82
-5.43528e-84
1.94025e-79
8.77743e-86
-1.08428e-87
7.07246e-82
4.7317e-89
7.72868e-91
-4.97401e-85
2.05421e-92
2.17397e-93
-2.42955e-89
1.19313e-95
8.15824e-96
-1.79468e-91
6.19784e-99
1.20757e-99
-5.3368e-96
1.28742e-101
2.01154e-103
-1.72339e-96
1.36393e-105
-1.92475e-106
2.71961e-101
5.23147e-109
1.11266e-109
7.81664e-105
4.7918e-112
2.11362e-113
2.23984e-108
9.5442e-115
1.97726e-116
1.76617e-111
1.39577e-118
-9.26987e-119
-1.85995e-113
3.87967e-122
-1.57063e-123
5.12461e-120
2.80832e-125
2.20398e-126
1.77362e-119
5.88284e-129
-5.75823e-129
-1.92384e-126
5.45189e-133
-3.61186e-130
1.90469e-129
1.37984e-135
-1.47094e-133
-6.28883e-133
5.35048e-138
2.05082e-137
1.472e-132
1.33667e-140
1.64885e-140
7.57195e-136
1.3416e-143
-2.01144e-144
4.00617e-140
6.61843e-146
6.13318e-147
-1.48638e-142
1.56964e-149
6.60132e-150
-1.85103e-145
1.18412e-152
4.23545e-153
-2.52316e-148
2.63401e-157
-2.59819e-151
-1.06658e-08
-1.98081e-08
-3.92774e-07
2.66144e-08
7.69203e-09
4.21419e-09
3.69569e-08
-1.68771e-08
-1.48265e-08
-2.80795e-09
1.73857e-08
2.43497e-08
5.05352e-09
3.11631e-08
-5.928e-09
6.07886e-08
3.52091e-09
7.49013e-09
-1.58798e-08
-2.07517e-08
3.5678e-08
-8.73603e-09
-3.39023e-08
4.74131e-08
-2.83541e-09
3.51541e-08
3.5247e-08
3.41907e-08
3.49472e-09
9.006e-09
4.32154e-09
1.80084e-09
-1.87415e-08
-1.11859e-09
2.33535e-10
-1.01909e-10
-9.21099e-11
1.19089e-10
-3.25443e-16
3.65476e-17
-1.82663e-08
4.25979e-17
3.33595e-17
8.11817e-16
-2.64473e-15
1.52325e-15
-2.80408e-24
-6.94153e-22
-4.36338e-22
5.72141e-18
5.72176e-18
5.71305e-18
5.73192e-18
1.74588e-25
-7.56964e-26
6.94544e-26
1.41216e-27
1.87059e-27
1.8717e-29
2.45001e-31
2.54679e-30
-9.04925e-31
2.345e-35
6.97692e-34
-1.41738e-33
8.11789e-39
1.68367e-37
5.59167e-38
3.32871e-42
3.4355e-41
-1.10188e-40
1.46226e-45
8.96559e-45
-1.93386e-43
6.45669e-49
2.36282e-48
1.26765e-47
2.8349e-52
7.2106e-52
1.02415e-50
1.23676e-55
1.62334e-55
-3.32459e-53
5.38215e-59
4.45712e-59
-8.09576e-56
2.30559e-62
-1.59332e-62
-8.92911e-59
9.82874e-66
3.15874e-66
1.34297e-64
4.21994e-69
-2.7614e-70
-3.1386e-66
1.80912e-72
3.40472e-73
3.87077e-69
9.59658e-76
-6.38269e-77
-2.72993e-73
8.58786e-79
6.56025e-80
-6.94393e-75
1.78699e-82
-5.77851e-84
4.81032e-79
9.10449e-86
-2.42857e-88
-1.0738e-81
9.48466e-89
4.17654e-90
-5.41555e-85
1.28191e-91
4.95945e-92
-1.35446e-87
9.10585e-95
7.33531e-95
-2.10312e-90
1.33865e-98
-8.56853e-100
5.62983e-95
5.29612e-102
5.13323e-104
-5.11411e-98
3.5103e-105
3.42872e-107
-5.29815e-100
2.5584e-108
6.33048e-109
-9.45713e-104
7.37703e-112
-1.24891e-112
4.98926e-107
6.38401e-115
1.88234e-116
-9.93733e-110
7.58304e-118
1.02826e-118
-5.64814e-113
1.03831e-121
-2.12188e-123
-1.71198e-120
1.4253e-124
-3.3069e-126
1.14855e-121
1.45149e-126
2.07058e-129
-6.30827e-123
1.32235e-129
1.15456e-131
-1.49882e-125
2.13995e-133
-2.88059e-136
-5.04835e-129
5.96479e-137
1.9808e-139
1.58051e-132
2.60867e-140
-4.89339e-142
6.74738e-135
1.56521e-143
-1.00797e-145
-3.31845e-139
7.02106e-147
4.14906e-148
-5.89735e-144
1.6348e-150
2.48595e-152
2.31086e-147
-4.93283e-153
8.05151e-155
3.59865e-148
1.82034e-157
1.16643e-154
4.62199e-08
-1.49829e-08
1.38449e-07
2.03084e-08
3.59474e-08
1.03897e-08
-3.82929e-09
-6.22821e-08
-1.00891e-07
-3.88567e-08
-2.2818e-08
6.27626e-10
2.43168e-08
-2.50486e-08
2.66387e-08
-2.07466e-08
-1.8485e-08
2.19141e-08
2.31261e-09
-1.09281e-08
3.23154e-08
1.82699e-08
1.99761e-08
3.59805e-09
1.34135e-08
2.18155e-09
1.88068e-08
-2.74962e-09
-1.31315e-09
-1.62445e-08
-5.32067e-10
-1.65423e-10
2.61817e-10
-1.23112e-10
2.13097e-10
-3.95545e-16
-6.19069e-18
-3.4828e-08
-3.4828e-08
-4.29564e-18
-3.78698e-16
-8.35929e-16
-1.90952e-16
5.21878e-25
1.47591e-21
1.09313e-22
2.54039e-19
2.53388e-19
2.63191e-19
2.50438e-19
7.0162e-26
1.94801e-25
-5.17184e-27
4.62869e-29
7.68066e-29
6.09411e-31
3.23742e-32
3.21875e-31
3.98097e-33
3.02736e-35
4.16543e-34
-3.64117e-36
5.88248e-39
9.99609e-38
-9.72503e-40
1.85513e-42
1.40811e-41
3.88116e-43
8.10863e-46
3.24561e-45
-2.00009e-46
3.61379e-49
8.87985e-49
1.10534e-48
1.59716e-52
2.48814e-52
7.01656e-51
6.99935e-56
1.96035e-56
1.81126e-54
3.04695e-59
1.53251e-59
-1.04447e-57
1.31628e-62
2.81358e-63
-7.18161e-60
5.63904e-66
8.07862e-67
-1.01933e-65
2.40431e-69
3.55051e-70
-6.21831e-67
1.02623e-72
8.01309e-74
6.87538e-71
4.36846e-76
7.61607e-77
-3.81919e-73
1.81405e-79
-3.54614e-81
2.34792e-78
7.6305e-83
-8.26781e-85
-2.19189e-80
3.65894e-86
-2.69173e-87
-1.66888e-83
2.06467e-89
9.85277e-90
-9.50094e-86
6.5424e-93
1.96998e-94
8.69301e-94
2.77469e-96
-2.22686e-97
8.00072e-96
1.29444e-99
-1.45541e-101
-5.24088e-96
5.02765e-103
-5.37325e-105
5.62733e-101
2.44662e-106
-9.36709e-108
3.21768e-103
1.22824e-109
4.67065e-112
-5.82306e-105
7.25738e-113
9.90074e-115
-1.21245e-109
5.42132e-116
1.17566e-118
-5.10419e-112
1.13129e-118
-3.07721e-121
-7.90549e-115
6.03871e-122
2.99452e-123
-7.22341e-118
4.99306e-125
-1.43345e-127
-6.80165e-121
1.04372e-128
-6.2879e-132
-2.68047e-124
5.67704e-132
1.01728e-133
9.63872e-127
1.91653e-135
2.48027e-137
1.82143e-130
1.60001e-138
7.40677e-141
1.2178e-136
4.3591e-141
3.67177e-143
-3.83081e-137
2.19759e-144
3.6776e-149
-3.68621e-140
9.907e-147
-1.40365e-148
-6.24395e-143
7.78607e-151
-9.12615e-154
2.15799e-150
1.93014e-153
2.70243e-155
5.14354e-151
8.89084e-157
-1.80658e-152
-7.88598e-09
4.39142e-08
-5.4156e-08
-3.23993e-08
-1.1181e-08
-1.48344e-08
-7.63017e-08
-1.09096e-07
-1.70552e-07
1.89314e-08
2.38408e-08
1.10352e-08
1.21169e-08
-9.29293e-09
1.22259e-08
-4.62192e-08
4.45987e-08
5.5446e-08
1.33827e-07
-8.97661e-08
-2.18414e-07
-3.95622e-07
-8.54409e-07
5.17713e-08
5.58794e-08
5.09203e-08
1.39093e-07
1.3626e-07
1.35627e-07
1.30768e-07
3.90772e-08
-4.25508e-09
2.27669e-08
-2.36466e-08
2.68356e-08
-3.27656e-08
2.20563e-08
1.63404e-08
2.51577e-08
3.71812e-08
2.6977e-09
1.3596e-08
2.56054e-09
2.02001e-09
-2.20334e-08
-1.82648e-10
-1.6165e-10
1.59534e-09
2.03771e-11
1.47979e-09
4.72782e-16
4.33671e-18
4.58199e-09
4.58199e-09
4.32835e-18
4.72813e-16
4.74023e-16
4.72307e-16
2.27257e-24
6.25073e-23
-4.78958e-23
2.5996e-21
2.71406e-21
2.65835e-21
2.59912e-21
-1.17697e-27
-6.7291e-27
-3.31088e-27
7.82731e-29
2.82744e-30
4.71108e-31
1.49747e-31
-2.16e-32
-1.44535e-34
1.98991e-35
4.50129e-35
-2.26455e-37
1.5087e-39
1.65536e-39
-3.90152e-41
5.53445e-43
7.26388e-43
-1.05873e-45
2.37525e-46
1.19891e-46
-2.16839e-47
1.0179e-49
-9.55141e-51
1.81821e-49
4.34035e-53
-4.32875e-54
1.70246e-52
1.83997e-56
3.36822e-58
-1.11416e-55
7.75714e-60
1.29965e-60
8.46593e-60
3.25355e-63
1.72353e-64
6.35608e-63
1.35888e-66
1.25851e-67
-3.75299e-65
5.64464e-70
1.10554e-71
9.58571e-69
2.33332e-73
-3.39193e-76
5.68865e-73
9.62038e-77
1.62508e-78
-1.60939e-74
3.9627e-80
1.67811e-81
-5.83233e-78
1.63591e-83
1.87647e-85
-3.68243e-81
6.58815e-87
3.6828e-88
-2.34451e-84
2.73978e-90
9.01655e-92
-3.41113e-90
1.17249e-93
-1.90688e-96
-1.76587e-90
4.68447e-97
-1.25458e-98
7.10637e-96
2.25559e-100
6.38601e-102
-8.83132e-97
9.10441e-104
5.45111e-105
-4.7373e-100
3.64767e-107
3.77948e-109
1.84827e-103
1.91014e-110
-1.37419e-113
-4.58806e-107
1.27493e-113
7.91709e-115
-1.87273e-109
3.8723e-117
-7.16334e-121
2.26083e-113
4.19809e-120
2.92096e-122
1.21032e-115
1.62188e-123
1.10316e-125
-3.43291e-119
3.36204e-127
3.13491e-129
1.16622e-124
2.99696e-130
-3.27403e-132
3.59766e-127
5.95961e-133
5.53145e-135
9.66088e-129
2.67835e-136
-1.55327e-137
1.61583e-132
1.38462e-139
2.86065e-142
-4.23192e-135
3.26043e-143
1.7117e-145
-1.60282e-138
1.27563e-146
3.80979e-148
-9.67711e-143
1.51195e-149
-4.57998e-151
-9.62147e-147
3.17017e-154
-3.49588e-153
4.66996e-150
1.89254e-153
-3.19741e-156
4.35163e-153
8.41322e-159
-1.31935e-153
-1.35608e-08
1.50697e-08
6.27565e-08
1.59057e-08
3.50731e-08
8.96286e-09
-3.05771e-08
-1.96548e-08
3.10305e-08
3.40001e-08
-9.12797e-10
4.08447e-08
2.05169e-08
1.52247e-08
2.33708e-08
2.39693e-08
1.63936e-08
-2.26561e-08
1.19264e-09
2.1594e-08
1.38925e-08
4.13912e-08
3.76339e-08
1.31479e-08
3.57105e-08
-6.09239e-10
-8.04277e-09
-8.93257e-09
-3.4689e-09
2.74778e-09
1.70017e-08
-7.7575e-12
-9.10454e-12
-2.46864e-08
1.51044e-11
-2.46878e-08
9.2944e-22
-8.96721e-21
-1.80658e-21
-4.30285e-19
4.55542e-20
-1.18248e-18
5.98878e-19
-9.7375e-19
-9.59829e-19
-1.1286e-18
-9.59876e-19
-1.47064e-26
-3.25374e-24
2.07431e-25
8.89632e-28
1.36712e-27
3.14388e-29
1.59886e-30
1.13904e-29
1.85844e-31
1.06055e-34
7.49259e-33
7.88212e-35
1.45601e-38
6.2471e-37
2.39462e-39
5.19092e-42
1.5052e-40
1.07054e-41
2.26183e-45
3.64693e-44
-1.43741e-44
9.98176e-49
1.5165e-47
-3.44944e-49
4.38499e-52
2.69874e-51
1.39416e-50
1.9142e-55
2.17574e-55
-1.24345e-54
8.30622e-59
2.313e-58
-8.90469e-57
3.57571e-62
7.15446e-62
-5.56715e-60
1.52958e-65
7.47276e-67
-2.52436e-63
6.51923e-69
9.25766e-69
-3.6625e-66
2.76198e-72
-1.74515e-73
-1.96654e-69
1.22061e-75
1.20084e-76
-5.56237e-74
5.78366e-79
-5.96934e-80
-7.36613e-76
2.17254e-82
8.75769e-83
-8.21608e-80
8.97947e-86
-2.52498e-87
1.64186e-83
3.74436e-89
3.53768e-90
-5.33603e-86
1.55682e-92
-1.28514e-92
1.61996e-88
1.53709e-95
-2.60191e-96
-1.15675e-92
8.07099e-98
-4.90615e-100
-2.32386e-94
5.9762e-102
4.14365e-103
-1.27407e-100
1.6102e-105
-7.04335e-105
4.44611e-105
8.93092e-109
-8.87017e-109
-1.42165e-105
1.04977e-111
-1.43514e-113
-1.70062e-108
3.361e-115
2.45766e-115
-3.2878e-111
1.59259e-118
-8.02023e-118
-8.09241e-114
4.72303e-122
-5.6302e-122
-1.13823e-117
3.68839e-125
-8.60329e-125
1.18643e-123
1.20945e-127
6.18885e-129
-1.13014e-123
1.58641e-130
-1.26441e-131
-1.37574e-126
1.56464e-133
2.6722e-134
-1.95085e-129
2.5513e-137
2.33873e-137
-2.84094e-132
8.10555e-141
-1.94408e-141
-9.7491e-139
2.96479e-144
-6.89425e-144
1.21207e-141
3.56512e-147
-2.00547e-147
1.12495e-143
1.64485e-149
3.80956e-151
-4.48584e-146
1.06482e-152
-4.78852e-153
-9.40465e-149
2.94471e-153
-1.93121e-156
-1.20217e-151
-4.78634e-158
3.06172e-156
5.1624e-08
1.63815e-08
3.57925e-08
2.31244e-09
1.28166e-08
-1.08058e-08
2.10618e-08
3.12918e-08
4.5379e-08
3.80712e-08
2.1105e-07
3.1879e-07
-6.42233e-08
-3.51564e-09
-2.66696e-08
-8.08834e-09
2.40225e-07
9.09917e-08
-4.80394e-08
1.86324e-07
5.59227e-09
7.99251e-08
4.20214e-08
-1.15785e-07
-9.95601e-08
4.34809e-08
-9.36653e-08
6.46646e-08
6.37838e-08
5.46729e-08
5.73367e-08
4.63652e-08
4.44839e-08
4.65398e-08
-3.44154e-08
1.34982e-08
-4.80801e-08
5.03294e-08
-8.51322e-08
-3.42564e-08
-3.61837e-08
-3.32767e-08
-8.09887e-08
-8.32591e-08
-7.78414e-08
-5.28489e-12
-1.89539e-09
4.45636e-09
2.46847e-09
-7.48534e-09
-2.5527e-13
2.53267e-15
6.166e-18
-1.63412e-15
-2.60927e-15
2.0824e-13
-3.84792e-13
4.38373e-13
1.18547e-14
-4.10563e-16
-4.20006e-16
-1.99327e-23
3.97218e-21
-1.49966e-19
1.48084e-20
-1.99132e-19
3.16958e-19
-5.88994e-26
2.31907e-26
5.62198e-27
2.31751e-29
1.86574e-29
2.66419e-31
8.06999e-34
-1.07684e-33
9.20454e-38
8.63597e-37
3.62928e-41
7.15351e-40
1.52661e-44
5.02071e-44
6.42452e-48
-4.87646e-47
2.69218e-51
5.64503e-50
1.12564e-54
9.13832e-53
4.70589e-58
9.13391e-57
1.96081e-61
6.2862e-59
8.07657e-65
-2.17777e-62
3.32548e-68
-6.84685e-66
1.36145e-71
-1.87743e-69
5.58544e-75
-6.56713e-74
2.2911e-78
-2.34517e-75
9.38221e-82
-3.62273e-78
3.91589e-85
-3.22598e-81
2.30592e-88
-1.44979e-84
3.39255e-91
-1.65473e-87
4.88904e-95
7.53598e-92
3.41974e-98
-3.52441e-95
5.84384e-101
-5.83324e-97
2.17973e-104
-3.65572e-100
7.46032e-108
-3.36812e-103
2.77942e-111
-7.11099e-110
4.42567e-114
2.91997e-109
4.94617e-117
-1.50073e-112
1.58706e-120
-2.66714e-116
4.04258e-123
-4.40812e-119
3.26503e-127
-1.13974e-127
1.0761e-130
-2.76894e-127
1.07799e-133
1.2496e-132
5.73024e-136
-2.77745e-132
5.70324e-140
3.66565e-135
7.54949e-143
-2.03098e-138
4.05098e-146
-9.75732e-142
1.53484e-149
5.76255e-145
1.04132e-152
-2.12878e-148
2.96049e-153
4.71681e-151
2.29833e-154
2.0659e-07
4.2987e-09
1.47624e-08
-3.71351e-08
1.9064e-07
1.90844e-07
1.57819e-07
7.53008e-10
1.09661e-10
2.43109e-07
1.59048e-08
2.64448e-07
-7.8403e-09
1.94734e-07
2.03102e-07
4.09606e-08
1.36416e-07
1.47784e-07
1.48663e-07
4.14096e-08
-2.62605e-08
-1.62049e-07
-1.94277e-08
8.26109e-09
-1.869e-07
-3.12901e-09
-2.21224e-08
7.68007e-10
-4.04967e-10
1.50692e-10
2.38069e-08
3.21581e-16
-1.51727e-16
1.18883e-18
-1.00293e-16
3.66918e-17
-1.26555e-15
-8.68856e-16
2.502e-15
4.21858e-23
-7.52678e-21
1.59393e-22
-1.23312e-19
1.47671e-19
-1.07461e-19
1.59729e-19
1.56127e-25
-3.47023e-24
-2.19802e-27
1.62413e-26
-1.11117e-26
-7.14247e-30
2.79092e-28
-2.01695e-28
-2.9629e-31
1.35164e-31
-3.96331e-31
-2.65968e-34
1.11468e-35
-7.4843e-35
6.3785e-37
5.96278e-39
-1.67287e-38
-1.85389e-39
4.49531e-42
-8.07977e-42
-1.73694e-44
3.20211e-45
-1.08725e-45
4.3255e-46
2.25031e-48
-1.35645e-48
-5.57893e-53
1.576e-51
-5.35123e-52
2.94151e-52
1.09926e-54
1.90999e-55
-2.30167e-56
7.63956e-58
-4.47152e-59
-1.5483e-59
5.2886e-61
-7.58806e-62
7.76589e-63
3.64639e-64
-5.28805e-65
3.552e-65
2.50697e-67
4.52083e-68
-3.5951e-68
1.71719e-70
2.62253e-72
-2.04613e-72
1.17201e-73
-2.47412e-75
1.74479e-74
7.9794e-77
5.45495e-78
3.18436e-77
5.41595e-80
-2.66616e-81
1.66909e-81
3.66472e-83
1.96777e-85
2.50509e-85
2.47177e-86
-9.97445e-88
1.7237e-87
1.66252e-89
-1.67415e-91
2.18183e-91
1.11484e-92
5.25195e-93
3.25709e-94
7.4596e-96
2.58931e-96
4.73959e-101
4.98226e-99
-4.48857e-100
-7.70865e-100
3.32198e-102
2.7544e-103
-2.78934e-103
2.20952e-105
3.78223e-106
1.84624e-106
1.46503e-108
1.66291e-109
-6.47328e-110
9.6879e-112
1.44866e-112
-1.16222e-112
6.39567e-115
-1.05491e-116
5.29218e-116
4.21646e-118
4.33563e-119
-1.15168e-123
2.77379e-121
-3.52949e-123
2.35367e-122
1.82096e-124
1.34867e-125
1.03059e-126
1.19285e-127
-5.77328e-130
2.11627e-130
7.80274e-131
8.9872e-132
4.23151e-133
5.0916e-134
1.97874e-134
-3.41762e-140
3.31474e-137
-6.59427e-139
6.27281e-139
2.153e-140
-5.47833e-144
6.53159e-141
1.39773e-143
-8.26797e-145
-5.33414e-145
9.05361e-147
-1.20947e-148
2.06991e-148
5.75985e-150
-1.10116e-153
1.47621e-151
6.55946e-154
1.08052e-153
5.77177e-09
-3.6553e-07
-3.79545e-07
7.86218e-09
2.00662e-08
2.72923e-09
-1.50282e-08
-2.1355e-07
-1.91607e-07
-1.88994e-07
1.1701e-08
-1.17908e-08
1.83288e-08
-2.94214e-09
5.34172e-09
1.4255e-09
-3.88335e-08
3.07883e-08
-7.35955e-09
-3.07327e-08
1.90715e-08
-1.97142e-08
-3.74158e-07
-3.08707e-07
1.22461e-09
1.86404e-08
-1.68935e-08
-2.44824e-07
2.02296e-08
1.50362e-08
2.25945e-09
6.51791e-09
6.63251e-10
2.01973e-09
-2.63017e-08
1.18516e-13
-2.42715e-15
7.98125e-15
6.02001e-15
1.41556e-14
3.73402e-15
8.01189e-21
-5.62524e-18
4.52843e-22
-1.31683e-18
7.26989e-18
-2.01917e-18
7.13779e-18
-5.2949e-18
-5.58788e-18
-5.29499e-18
6.66712e-25
-5.12654e-22
5.69091e-26
-2.90051e-28
-5.83904e-25
1.83546e-29
1.91504e-29
-4.3579e-28
8.42797e-32
4.28446e-33
-1.07748e-31
1.01895e-34
8.70377e-37
-3.60393e-35
8.98267e-38
5.94187e-40
-1.50576e-38
1.07172e-41
4.44389e-43
-6.28853e-42
6.92285e-45
3.23149e-46
-2.46573e-45
-2.454e-47
2.31915e-49
-1.14974e-48
-5.84916e-51
1.65619e-52
-4.84482e-52
1.32728e-53
1.17768e-55
-1.31334e-55
-3.80871e-56
8.34229e-59
-9.57445e-59
2.34171e-60
5.8869e-62
-7.39946e-62
3.95105e-63
4.13528e-65
-1.36767e-65
4.15829e-66
2.89653e-68
-1.03953e-68
1.01339e-68
2.0229e-71
-4.38459e-72
1.46832e-72
1.40718e-74
-3.7779e-76
2.89929e-77
9.7596e-78
1.1646e-79
5.51268e-79
6.74868e-81
-1.60992e-81
5.74441e-82
4.65266e-84
-2.06434e-85
-6.95256e-87
3.19808e-87
1.08135e-87
9.797e-89
2.1923e-90
3.60949e-92
4.22356e-91
1.50026e-93
1.55243e-94
6.62545e-95
1.02485e-96
8.78245e-98
7.70219e-98
6.98375e-100
-2.42654e-100
6.8876e-101
4.74585e-103
-1.86667e-103
8.35247e-105
3.21713e-106
1.18406e-106
2.28024e-107
2.1762e-109
-4.24487e-111
-5.18576e-111
1.46902e-112
1.55648e-115
-1.59985e-115
9.89898e-116
1.26728e-117
2.75444e-117
6.64983e-119
-1.58267e-119
1.8655e-119
4.45564e-122
2.47028e-123
9.63151e-124
2.98171e-125
4.10641e-126
-9.52214e-127
1.99068e-128
8.02259e-130
-1.25191e-130
1.32685e-131
1.0308e-133
-3.41873e-135
8.83885e-135
-1.39147e-136
1.303e-135
5.87056e-138
2.7765e-138
-2.24007e-138
3.88948e-141
1.32403e-142
4.54923e-142
2.57263e-144
1.58574e-145
7.02763e-145
1.69774e-147
1.11342e-148
3.31472e-149
1.14898e-150
1.00695e-151
2.24395e-152
7.89383e-155
2.84892e-157
1.07296e-08
-1.52108e-07
-7.49048e-08
-1.94993e-07
-1.76606e-07
-1.70148e-07
-1.8749e-07
-1.62312e-07
2.56494e-08
7.15788e-07
9.53453e-09
7.26456e-09
7.18586e-07
8.33658e-09
5.21988e-09
1.61746e-08
1.07228e-08
6.41091e-08
1.52323e-08
4.2527e-08
2.08684e-08
1.87174e-08
2.34597e-07
-6.55422e-09
2.2515e-08
1.97299e-08
-2.5935e-08
7.69948e-09
-4.10209e-08
4.49021e-09
-3.80817e-07
7.65287e-09
-6.39398e-07
-3.24135e-09
1.1894e-08
1.19415e-08
-2.1857e-08
-1.52112e-08
-1.72003e-08
-1.70975e-08
-2.22768e-08
-2.50503e-08
-2.06468e-08
1.5773e-08
2.05056e-07
5.20007e-08
2.12774e-10
-1.73292e-08
5.40198e-09
6.53574e-09
-4.69357e-08
-2.11455e-11
-1.42323e-11
-8.18692e-12
6.33244e-12
8.11169e-12
2.47982e-13
4.79172e-18
-5.50237e-18
6.10516e-19
-5.28193e-18
6.64761e-19
3.66583e-23
-5.22765e-21
1.29929e-22
-5.4506e-20
-5.43028e-20
-5.45423e-20
-5.44746e-20
3.14635e-26
-2.33133e-24
9.83348e-27
2.65339e-29
-8.56981e-28
1.93655e-30
1.3398e-32
-6.08861e-31
2.25926e-33
5.76722e-36
-2.15869e-34
1.98982e-37
3.75102e-39
-1.07597e-37
6.27316e-41
2.94582e-42
-4.56138e-41
-1.67727e-45
2.26698e-45
-2.127e-44
-4.58117e-47
1.70601e-48
-9.6183e-48
1.22491e-49
1.27069e-51
-2.27741e-51
-5.54307e-52
9.39629e-55
-9.82308e-55
-5.68952e-56
6.90794e-58
-1.02276e-57
1.29433e-59
5.04481e-61
-4.78452e-61
1.34664e-61
3.66294e-64
-3.1535e-64
1.16871e-65
2.64601e-67
-1.17626e-68
7.16882e-68
1.90091e-70
-1.34243e-71
-1.12377e-71
1.358e-73
1.37078e-73
2.88176e-74
9.66732e-77
-4.34297e-77
2.0177e-78
6.85158e-80
-1.04831e-80
-2.20601e-81
4.83275e-83
2.81533e-83
1.76222e-86
3.40145e-86
6.6429e-87
-3.0168e-88
2.38603e-89
-1.6579e-89
9.31889e-90
1.66708e-92
3.39381e-93
2.20069e-95
1.1625e-95
-1.09746e-96
5.98736e-99
8.06915e-99
1.77993e-99
1.05772e-100
5.57455e-102
-3.94474e-104
5.92478e-103
3.84489e-105
1.04286e-105
-1.57571e-106
2.64485e-108
-6.27817e-109
9.51219e-110
1.81318e-111
-6.81562e-113
5.68386e-113
1.24024e-114
1.57267e-115
-2.48475e-116
8.45635e-118
9.1157e-119
1.23164e-119
5.74593e-121
7.32545e-122
-1.06693e-122
3.89534e-124
7.80434e-125
3.05708e-125
2.63427e-127
2.65683e-128
-2.57134e-129
1.77922e-130
-2.43962e-130
1.59251e-133
1.19957e-133
-5.93074e-134
-1.38432e-135
8.0607e-137
4.23797e-137
-2.6349e-138
5.4008e-140
2.04682e-140
-2.08841e-144
3.60969e-143
3.91776e-144
8.03254e-144
2.40571e-146
3.72025e-147
1.18203e-147
1.56801e-149
9.50889e-151
-1.56431e-150
-7.39666e-153
-2.01358e-154
7.50184e-09
-5.2275e-07
-3.80446e-07
2.42997e-08
1.64856e-07
-2.94998e-07
-4.70541e-08
-2.93552e-08
-4.51487e-08
-2.22389e-08
-6.4659e-08
-3.30625e-08
-3.23379e-07
-4.96839e-09
-8.89319e-08
-3.13032e-08
2.82379e-09
8.34842e-09
6.64721e-09
1.16219e-08
-3.18634e-08
-2.5222e-08
-3.18646e-08
-1.06893e-08
3.19739e-08
1.18197e-08
-9.3164e-08
-3.34828e-08
-3.06322e-07
5.94206e-09
7.69902e-09