/*--------------------------------*- C++ -*----------------------------------*\
| =========                 |                                                 |
| \\      /  F ield         | OpenFOAM: The Open Source CFD Toolbox           |
|  \\    /   O peration     | Version:  5.0                                   |
|   \\  /    A nd           | Web:      www.OpenFOAM.org                      |
|    \\/     M anipulation  |                                                 |
\*---------------------------------------------------------------------------*/
FoamFile
{
    version     2.0;
    format      ascii;
    class       volScalarField;
    location    "2";
    object      alpha.water;
}
// * * * * * * * * * * * * * * * * * * * * * * * * * * * * * * * * * * * * * //

dimensions      [0 0 0 0 0 0 0];

internalField   nonuniform List<scalar> 
9228
(
0.872299
1.03449
0.949541
1.04174
0.982936
1.00407
-3.36933e-20
-1.43408e-19
5.04871e-32
8.94161e-18
1.46376e-19
5.6537e-23
2.59263e-27
6.71975e-31
2.68507e-34
1.15053e-37
4.61421e-41
2.00215e-44
8.93434e-48
3.32647e-51
1.76205e-54
6.91652e-58
2.66779e-61
9.34046e-65
5.45845e-68
6.96848e-71
3.51188e-74
4.16616e-78
7.20778e-81
2.35079e-84
4.08885e-87
2.73296e-91
1.30013e-93
4.3053e-96
9.2194e-100
8.398e-103
3.89523e-106
1.04443e-108
7.64842e-113
7.1556e-117
3.54515e-119
5.74355e-122
3.44303e-125
1.68328e-127
2.12299e-131
3.80064e-134
4.60765e-138
4.18698e-142
1.13678e-143
2.09722e-145
1.01123
0.976466
1.05183
1.03739
0.984704
0.992124
-5.6238e-18
-9.70644e-23
-2.0195e-31
4.74102e-19
2.25739e-20
3.84581e-23
4.50344e-27
5.6456e-31
1.91114e-34
7.79437e-38
3.26249e-41
1.36776e-44
5.86177e-48
2.34571e-51
9.85627e-55
4.10305e-58
2.23484e-61
1.08304e-64
3.59174e-68
2.14047e-71
7.46152e-75
2.84079e-78
1.70594e-81
1.22775e-84
3.59216e-88
1.03826e-90
1.37339e-94
2.90355e-97
8.09652e-101
1.17178e-103
4.98068e-107
3.5483e-111
1.29501e-112
9.64985e-116
1.3018e-119
1.65148e-122
1.32576e-126
2.69178e-130
6.02611e-133
1.12786e-135
5.1424e-139
1.07588e-142
2.93838e-145
5.25509e-146
0.973815
0.99469
1.01618
1.04891
1.03769
1.00728
0.203779
-2.65584e-26
2.17947e-15
1.95413e-17
4.61314e-20
1.7373e-21
4.30898e-24
3.54026e-28
3.4433e-32
1.28039e-35
5.23508e-39
2.14235e-42
8.75929e-46
3.56714e-49
1.45455e-52
5.90263e-56
2.39785e-59
9.70458e-63
3.94725e-66
1.63868e-69
6.64922e-73
2.56772e-76
1.14172e-79
6.96446e-83
1.81604e-86
6.86063e-90
5.02933e-92
3.65977e-95
5.14776e-99
2.04417e-102
9.86716e-106
1.40523e-109
1.34881e-111
1.03896e-114
2.64738e-118
5.09203e-122
1.49147e-124
2.11719e-128
2.81242e-131
4.70945e-135
3.21282e-137
2.50519e-140
4.14609e-144
2.53383e-145
0.990097
1.07061
0.982531
1.02775
1.00971
0.998607
1
-3.2292e-18
-6.61036e-19
4.88875e-17
1.91347e-18
3.62151e-21
5.77611e-24
1.9228e-27
2.06277e-31
6.43884e-35
2.64622e-38
1.11502e-41
4.63346e-45
1.9218e-48
8.02159e-52
3.31312e-55
1.50769e-58
6.27821e-62
2.76754e-65
1.06579e-68
4.07664e-72
4.04191e-75
1.27807e-78
3.33796e-82
7.02359e-85
9.53951e-88
2.32469e-91
3.56482e-95
9.19937e-98
2.17085e-101
7.88805e-105
9.98669e-108
6.43328e-110
4.0044e-113
3.91978e-117
1.61813e-119
2.10779e-123
2.60354e-126
2.78888e-129
1.34955e-132
2.6433e-136
9.65656e-140
7.22236e-143
4.39491e-145
1.00975
0.939916
0.975764
0.954842
0.954744
1.00948
1.00046
-6.41014e-17
-1.27296e-18
2.43197e-16
1.66322e-17
4.79913e-20
9.06727e-24
1.92081e-27
4.17066e-31
1.48081e-34
6.07779e-38
2.5654e-41
1.07867e-44
4.56386e-48
1.89115e-51
8.62861e-55
3.31663e-58
1.41679e-61
5.89437e-65
4.5529e-68
1.17708e-71
7.27843e-75
1.01142e-77
2.71623e-81
3.02154e-84
2.67393e-88
1.72647e-90
2.33326e-94
3.0345e-98
2.71188e-101
1.79523e-103
5.14364e-107
3.12404e-111
8.96497e-114
6.14081e-118
1.82754e-121
6.94361e-125
6.68121e-127
3.31432e-129
9.45608e-133
7.95316e-135
4.34844e-138
4.95054e-141
8.71096e-145
1.03068
1.01721
1.0129
0.976265
1.01849
1.02987
1.0009
-1.39826e-16
-1.58578e-18
1.87792e-16
1.34642e-17
4.02711e-20
7.56051e-24
1.47451e-27
3.32355e-31
1.19633e-34
4.96926e-38
2.18181e-41
8.9726e-45
4.15458e-48
1.65561e-51
6.67726e-55
2.80255e-58
1.44577e-61
5.01616e-65
1.6202e-67
1.95559e-71
7.14252e-75
1.36815e-77
2.50578e-80
3.2442e-83
2.02057e-87
3.65641e-91
2.91011e-94
6.48943e-97
1.17002e-100
6.31455e-104
2.01318e-106
1.20262e-110
1.90862e-114
7.46528e-116
2.46609e-118
1.07056e-121
1.23177e-125
3.56752e-129
4.29006e-132
3.58219e-136
9.67012e-140
8.67783e-143
2.82956e-145
1.0371
1.00374
1.05503
0.996283
1.02178
1.04729
1.0008
-2.34278e-17
-1.67374e-18
4.57039e-17
1.82412e-18
3.63503e-21
6.50218e-24
2.33353e-27
2.40787e-31
7.35237e-35
3.01685e-38
1.26118e-41
5.26582e-45
2.19511e-48
9.44409e-52
3.7977e-55
1.60363e-58
6.49118e-62
3.23672e-65
1.12227e-68
4.52346e-72
2.24757e-75
3.71682e-78
6.28407e-82
1.64724e-85
1.68854e-88
3.33853e-92
3.16256e-95
1.39565e-98
1.86805e-101
4.96429e-105
2.05701e-107
1.50892e-110
1.76757e-113
1.82969e-117
1.57589e-120
4.42452e-124
6.01877e-128
6.33546e-130
1.37293e-133
1.17048e-135
3.53381e-139
2.31042e-143
7.09491e-145
1.05759
1.04132
0.947131
0.987939
1.17658
0.993643
0.921961
-4.55467e-18
2.94338e-15
2.53136e-17
5.17988e-20
1.94031e-21
4.55452e-24
3.54457e-28
3.64936e-32
1.36824e-35
5.60005e-39
2.29296e-42
9.37477e-46
3.83241e-49
1.55733e-52
6.35896e-56
2.5866e-59
1.0403e-62
4.2028e-66
1.75857e-69
8.08034e-73
2.84519e-76
1.11548e-79
8.06194e-83
2.0236e-86
2.3016e-89
1.16004e-92
2.64493e-96
1.50756e-99
3.26498e-102
3.43671e-106
6.94335e-109
5.47373e-112
4.05538e-116
9.0976e-120
8.38892e-122
1.00147e-124
6.06892e-128
5.19504e-132
9.19714e-136
3.23612e-139
1.24984e-142
2.93013e-145
9.05365e-146
0.975993
0.964086
0.988013
1.05962
1.02694
1.00778
0.107909
-6.4901e-19
8.07795e-31
6.14489e-19
2.41957e-20
3.36697e-23
4.68029e-27
5.97247e-31
2.02476e-34
8.28234e-38
3.45881e-41
1.44671e-44
6.06539e-48
2.52574e-51
1.03043e-54
4.31737e-58
1.78497e-61
7.41189e-65
6.71545e-68
1.57054e-71
5.60677e-75
2.41102e-78
1.00853e-81
3.98675e-85
6.12776e-87
2.5472e-90
1.61108e-94
4.19499e-98
1.75782e-100
8.78581e-104
5.24201e-107
5.32602e-111
1.27351e-114
1.28538e-116
2.76348e-119
4.46155e-122
9.1961e-126
6.98526e-130
1.98274e-133
1.02337e-136
1.49069e-138
2.43056e-141
3.24891e-144
1.40006e-145
1.10761
0.998939
1.02882
1.0011
1.11748
1.0415
-8.94319e-18
6.34291e-17
8.46566e-37
7.67932e-18
3.1052e-19
3.35072e-22
1.10229e-26
1.77147e-30
7.01368e-34
2.91057e-37
1.1667e-40
4.75474e-44
1.94948e-47
8.9285e-51
3.29151e-54
1.34097e-57
5.20964e-61
2.09861e-64
9.9708e-68
3.62767e-71
2.08448e-74
8.96145e-78
5.23309e-80
9.2956e-84
2.96386e-87
1.06897e-89
7.78734e-93
2.89787e-96
1.57911e-100
5.94096e-103
1.35918e-105
1.27623e-109
6.96152e-112
8.94881e-116
8.13954e-120
1.92428e-123
4.59759e-125
1.21936e-128
1.90213e-131
1.62808e-134
3.38053e-138
3.92443e-141
9.01335e-145
1.27934e-145
1.00417
1.10039
1.10864
1.00589
0.978709
1.00568
9.70592e-10
2.28273e-15
1.63276e-17
1.30369e-17
1.22394e-18
7.85949e-21
2.10117e-24
1.99064e-28
1.18216e-31
8.52704e-35
5.87621e-38
4.02046e-41
2.74736e-44
1.87354e-47
1.27645e-50
8.68076e-54
5.89021e-57
3.99147e-60
2.69961e-63
1.8219e-66
1.22833e-69
8.26521e-73
5.54829e-76
3.71847e-79
2.48649e-82
1.65888e-85
1.10579e-88
7.35768e-92
4.8893e-95
3.2435e-98
2.146e-101
1.4163e-104
9.33605e-108
6.14779e-111
4.04051e-114
2.65126e-117
1.73635e-120
1.13464e-123
7.40472e-127
4.81978e-130
3.13193e-133
2.03344e-136
1.31733e-139
5.09381e-143
0.977677
1
1.0077
1.0026
1.02268
0.995628
1.54868e-07
1.84042e-14
2.05369e-17
8.06177e-18
2.94574e-19
5.76555e-22
9.93101e-26
2.33986e-29
1.49692e-32
1.08727e-35
7.71593e-39
5.40617e-42
3.78328e-45
2.64149e-48
1.84258e-51
1.28209e-54
8.90358e-58
6.17737e-61
4.27312e-64
2.94981e-67
2.03292e-70
1.39783e-73
9.58697e-77
6.56381e-80
4.4904e-83
3.06168e-86
2.08368e-89
1.41662e-92
9.60987e-96
6.50442e-99
4.3942e-102
2.9602e-105
1.99183e-108
1.33643e-111
8.94653e-115
5.97843e-118
3.98821e-121
2.65705e-124
1.76596e-127
1.17171e-130
7.75491e-134
5.12358e-137
3.3777e-140
1.34737e-143
1.03407
0.74219
1.05948
1.01635
1.01785
1.00556
0.210588
5.16596e-12
2.23488e-14
5.22314e-16
6.661e-19
1.09935e-21
6.73578e-25
2.55925e-28
1.62282e-31
1.18764e-34
8.62258e-38
6.18037e-41
4.40732e-44
3.1344e-47
2.22304e-50
1.57259e-53
1.10857e-56
7.79681e-60
5.46337e-63
3.81789e-66
2.66224e-69
1.85046e-72
1.28276e-75
8.88854e-79
6.13852e-82
4.22996e-85
2.9101e-88
1.99587e-91
1.36345e-94
9.30452e-98
6.3366e-101
4.30408e-104
2.91793e-107
1.97272e-110
1.33006e-113
8.95085e-117
6.01953e-120
4.03707e-123
2.70292e-126
1.8061e-129
1.20369e-132
8.00474e-136
5.31081e-139
2.09102e-142
0.893966
1.10577
0.959306
1.01221
0.985509
1.00198
1.00006
2.95689e-11
1.57927e-16
2.03089e-16
1.78625e-17
1.08039e-19
3.94401e-23
5.49949e-27
3.02465e-30
2.24754e-33
1.61786e-36
1.14368e-39
8.07247e-43
5.69196e-46
4.00744e-49
2.81513e-52
1.97193e-55
1.38005e-58
9.62761e-62
6.70249e-65
4.65998e-68
3.23162e-71
2.23782e-74
1.54552e-77
1.06485e-80
7.31958e-84
5.01858e-87
3.43468e-90
2.34578e-93
1.59929e-96
1.08786e-99
7.38167e-103
4.99722e-106
3.37569e-109
2.27459e-112
1.53264e-115
1.0292e-118
6.89243e-122
4.60333e-125
3.07091e-128
2.04364e-131
1.35739e-134
8.99379e-138
3.52896e-141
0.98351
0.995736
1.00132
0.889416
0.926804
1.00801
1.00126
6.52917e-10
2.1189e-15
1.61289e-15
2.03222e-16
1.89185e-18
7.61542e-22
6.40137e-26
3.39136e-29
2.4817e-32
1.7274e-35
1.18906e-38
8.17629e-42
5.61401e-45
3.85233e-48
2.63957e-51
1.80478e-54
1.23315e-57
8.41043e-61
5.72519e-64
3.89531e-67
2.64581e-70
1.79337e-73
1.21389e-76
8.20393e-80
5.53388e-83
3.72953e-86
2.50847e-89
1.68437e-92
1.13005e-95
7.56709e-99
5.05626e-102
3.37457e-105
2.24984e-108
1.49772e-111
9.95781e-115
6.60767e-118
4.37576e-121
2.89435e-124
1.91131e-127
1.25977e-130
8.29319e-134
5.44913e-137
2.12254e-140
1.0121
1.0055
0.970987
1.0035
1.00228
1.01557
1.00157
7.07782e-10
3.56203e-15
2.98371e-15
3.6929e-16
3.506e-18
1.45631e-21
1.19174e-25
6.20055e-29
4.53308e-32
3.1459e-35
2.15805e-38
1.47871e-41
1.01133e-44
6.9065e-48
4.70926e-51
3.20509e-54
2.17833e-57
1.4776e-60
1.00019e-63
6.76895e-67
4.57246e-70
3.08215e-73
2.07488e-76
1.39309e-79
9.33518e-83
6.25335e-86
4.18232e-89
2.79038e-92
1.85962e-95
1.23712e-98
8.21592e-102
5.45099e-105
3.61024e-108
2.38724e-111
1.57656e-114
1.03902e-117
6.83075e-121
4.4851e-124
2.94014e-127
1.92354e-130
1.2578e-133
8.215e-137
3.18462e-140
1.04718
1.04356
0.934563
0.93734
1.18114
1.02712
1.00388
2.74801e-10
1.45041e-16
1.48581e-16
1.20212e-17
6.45925e-20
2.25878e-23
3.76377e-27
2.12483e-30
1.58513e-33
1.15532e-36
8.25895e-40
5.88786e-43
4.19337e-46
2.98085e-49
2.11378e-52
1.49292e-55
1.05387e-58
7.43222e-62
5.20186e-65
3.64274e-68
2.54489e-71
1.77337e-74
1.23457e-77
8.54206e-81
5.91216e-84
4.08429e-87
2.81263e-90
1.93387e-93
1.32437e-96
9.05548e-100
6.1792e-103
4.20703e-106
2.85286e-109
1.93269e-112
1.30696e-115
8.80994e-119
5.92168e-122
3.9722e-125
2.65833e-128
1.77658e-131
1.18328e-134
7.87696e-138
3.12343e-141
1.04307
0.99575
1.00089
0.770052
1.15431
1.0175
0.918004
1.3241e-12
3.37267e-14
7.44947e-16
7.69751e-19
1.25272e-21
6.69495e-25
2.69361e-28
1.79309e-31
1.30854e-34
9.41385e-38
6.70873e-41
4.75983e-44
3.36752e-47
2.37745e-50
1.67347e-53
1.17426e-56
8.22101e-60
5.74043e-63
3.99598e-66
2.7747e-69
1.92139e-72
1.32702e-75
9.15325e-79
6.30131e-82
4.32718e-85
2.96489e-88
2.02527e-91
1.37985e-94
9.38768e-98
6.37151e-101
4.31423e-104
2.91702e-107
1.96714e-110
1.32293e-113
8.88559e-117
5.95275e-120
3.97865e-123
2.65497e-126
1.76805e-129
1.17383e-132
7.78295e-136
5.15587e-139
2.02681e-142
1.04468
1.1902
0.987548
1.01151
1.04701
1.03965
0.117514
6.23984e-14
5.32105e-17
7.50077e-18
1.38232e-19
1.97864e-22
4.55761e-26
1.34824e-29
8.92604e-33
6.5787e-36
4.71951e-39
3.34421e-42
2.36486e-45
1.66911e-48
1.17608e-51
8.26625e-55
5.79613e-58
4.05614e-61
2.83301e-64
1.9735e-67
1.37215e-70
9.52111e-74
6.5887e-77
4.55261e-80
3.13849e-83
2.15628e-86
1.47921e-89
1.01237e-92
6.91221e-96
4.71094e-99
3.20407e-102
2.17465e-105
1.47277e-108
9.95516e-112
6.71096e-115
4.51467e-118
3.03148e-121
2.02993e-124
1.35756e-127
9.05858e-131
6.03061e-134
4.00865e-137
2.65871e-140
1.07053e-143
1.00898
1.04054
0.995663
1.00629
1
1.03632
3.95354e-08
2.24072e-14
2.457e-17
8.32997e-18
6.79815e-19
4.64485e-21
1.64942e-24
1.59832e-28
8.89708e-32
6.47185e-35
4.48223e-38
3.07324e-41
2.10546e-44
1.43944e-47
9.82491e-51
6.69104e-54
4.54764e-57
3.0874e-60
2.09166e-63
1.41401e-66
9.54691e-70
6.43405e-73
4.32677e-76
2.90608e-79
1.94766e-82
1.30195e-85
8.68616e-89
5.78685e-92
3.84794e-95
2.55581e-98
1.69401e-101
1.12019e-104
7.39469e-108
4.87528e-111
3.20823e-114
2.10792e-117
1.38239e-120
9.04556e-124
5.90927e-127
3.85328e-130
2.508e-133
1.63093e-136
1.05781e-139
4.101e-143
1.00585
1.03889
1.05782
1.0042
0.993736
1.00614
5.96027e-10
-1.2245e-19
-1.08148e-25
4.02238e-18
1.17546e-19
7.64402e-23
2.43892e-27
5.51764e-31
2.20386e-34
9.81506e-38
3.70227e-41
1.55669e-44
7.12888e-48
4.25283e-51
1.33168e-54
6.33835e-58
2.52602e-61
7.76413e-65
7.0329e-68
6.40032e-71
2.79609e-74
5.65125e-78
1.36612e-80
1.64904e-84
5.08221e-87
3.5022e-91
5.72759e-94
2.14383e-96
7.76449e-100
2.7241e-103
4.71223e-106
2.4096e-109
1.06231e-113
3.21317e-115
1.18067e-118
4.45049e-123
1.06746e-125
8.75661e-130
5.11688e-132
3.51248e-134
6.01445e-138
3.33059e-141
4.20495e-144
1.61556e-145
1.05308
1.01592
1.00623
1.02411
1.01015
1.00014
1.35062e-07
-1.33519e-22
-2.01948e-31
6.03678e-19
2.78027e-20
4.40531e-23
4.85862e-27
6.19206e-31
2.09515e-34
8.51467e-38
3.54651e-41
1.5178e-44
6.42875e-48
2.58405e-51
1.10948e-54
4.497e-58
2.24385e-61
9.4236e-65
3.99461e-68
1.52124e-71
7.44019e-75
2.87025e-78
8.46712e-81
1.73639e-84
1.72317e-87
2.05475e-90
2.1794e-93
4.39712e-97
2.74719e-100
1.31018e-103
3.0713e-107
1.05174e-110
3.75807e-112
3.24939e-115
2.7648e-119
3.48653e-123
1.17091e-126
2.87063e-128
1.60067e-131
1.40716e-135
1.41866e-138
1.49425e-142
4.20565e-145
7.974e-146
1.06158
1
1.00844
1.00255
1.03758
1.00625
0.210328
2.19073e-12
2.17422e-15
1.93896e-17
4.99508e-20
1.97167e-21
5.10494e-24
4.32601e-28
4.10259e-32
1.52005e-35
6.21936e-39
2.54697e-42
1.04281e-45
4.24911e-49
1.73525e-52
7.04188e-56
2.88249e-59
1.17332e-62
4.8752e-66
1.92161e-69
7.94031e-73
3.08664e-76
1.23742e-79
8.03146e-83
2.17449e-86
8.23696e-90
3.65416e-93
4.50188e-96
1.29545e-99
1.77597e-102
1.06177e-105
2.70358e-109
1.86449e-112
3.87152e-115
6.14075e-118
6.20699e-122
8.26921e-126
2.83087e-128
1.32408e-130
2.11163e-134
3.90865e-137
2.03284e-140
7.30417e-144
2.63231e-145
0.998314
0.975495
0.998459
0.992665
0.987538
1.00021
1.00002
1.06692e-11
-6.81e-19
5.06527e-17
1.98151e-18
3.64884e-21
5.6739e-24
1.90188e-27
2.05092e-31
6.39287e-35
2.62645e-38
1.09935e-41
4.58203e-45
1.91222e-48
7.94488e-52
3.28532e-55
1.40268e-58
6.28414e-62
2.41891e-65
1.02417e-68
3.99915e-72
6.19547e-75
3.28576e-78
4.45257e-82
6.13709e-85
4.65901e-88
1.51828e-91
2.98858e-95
3.32064e-98
7.2539e-102
7.28102e-105
1.22176e-107
1.09816e-111
2.11097e-113
9.41684e-117
4.40228e-120
8.27386e-123
1.01776e-126
4.02709e-130
1.33155e-132
6.9834e-136
4.38981e-140
9.99262e-144
2.74803e-145
1.00268
0.978575
1.01412
1.00482
1
1.01161
1.00116
2.91182e-10
-1.27508e-18
2.50734e-16
1.71414e-17
4.92712e-20
9.04214e-24
1.89032e-27
4.13995e-31
1.46323e-34
6.0399e-38
2.54496e-41
1.08555e-44
4.51323e-48
1.87191e-51
7.92752e-55
3.34004e-58
1.44491e-61
6.15143e-65
5.99129e-68
1.11238e-71
4.17191e-75
1.72189e-78
1.14263e-81
2.0089e-84
2.18353e-88
1.11289e-90
2.39319e-94
5.3382e-97
3.74731e-101
1.53829e-103
6.06111e-107
4.19623e-109
9.59331e-113
7.45232e-117
1.09777e-118
3.85867e-122
1.91661e-125
4.79898e-129
7.5911e-133
1.46343e-134
5.34937e-138
4.2997e-141
5.5758e-144
1.06468
1.02084
0.98481
1.02116
1.0067
1.00328
1.00148
3.34249e-10
-1.54126e-18
1.93087e-16
1.37865e-17
4.12693e-20
8.17338e-24
1.69113e-27
3.69101e-31
1.31239e-34
5.44154e-38
2.3156e-41
9.72372e-45
5.14721e-48
1.82082e-51
8.5676e-55
3.41654e-58
1.29076e-61
6.70456e-65
2.20721e-68
9.83072e-72
3.99317e-75
1.53058e-78
1.31879e-80
2.50814e-83
1.10266e-86
1.06879e-90
7.26083e-94
8.13516e-98
2.0723e-100
1.10928e-103
2.00887e-106
1.54295e-110
2.40706e-112
9.34431e-116
4.18308e-120
7.54953e-122
2.93813e-125
6.59437e-129
4.73691e-133
9.56445e-136
4.67953e-138
4.36431e-142
3.02027e-145
1.02806
0.9977
0.986576
0.983556
1.06027
0.995763
1.00347
1.29475e-10
-1.71202e-18
4.41717e-17
1.77475e-18
3.6261e-21
6.52019e-24
2.31734e-27
2.39375e-31
7.32988e-35
3.00815e-38
1.2595e-41
5.25354e-45
2.1877e-48
9.44791e-52
3.80458e-55
1.57856e-58
6.61867e-62
2.86289e-65
1.46194e-68
4.79198e-72
1.96083e-75
3.27089e-78
5.69578e-82
1.57595e-85
6.11565e-89
2.47477e-92
2.78325e-95
7.72111e-98
1.91994e-101
3.45338e-105
1.48761e-107
4.90124e-111
4.46595e-115
1.27597e-117
1.48042e-121
1.75809e-123
8.92326e-127
3.09849e-130
2.66254e-134
9.53874e-138
4.98312e-141
1.80664e-143
1.02632e-144
1.0446
1.02258
1.06561
1.0063
1.15955
0.989079
0.918444
5.3297e-13
3.0425e-15
2.67675e-17
5.19232e-20
1.92692e-21
4.52108e-24
3.53821e-28
3.64281e-32
1.36547e-35
5.58913e-39
2.28842e-42
9.36335e-46
3.82373e-49
1.55489e-52
6.34531e-56
2.59706e-59
1.03876e-62
4.52946e-66
1.75991e-69
7.8026e-73
3.96363e-76
1.1691e-79
1.11167e-82
2.3575e-86
8.04031e-90
7.43082e-93
3.84811e-96
9.02726e-100
7.61209e-103
6.71031e-106
2.70556e-109
4.16154e-112
3.1538e-114
1.02285e-117
9.86709e-121
1.50433e-124
1.56776e-128
7.91287e-132
2.18898e-135
8.23985e-139
3.27591e-142
3.32388e-145
1.34121e-145
1.03695
0.977726
0.98683
1.04565
1.00146
1.04043
0.117518
-8.43418e-19
-1.77913e-26
5.77709e-19
2.22508e-20
3.06543e-23
4.5324e-27
5.75165e-31
1.92887e-34
7.88123e-38
3.29136e-41
1.36589e-44
5.69934e-48
2.38881e-51
9.75468e-55
4.12818e-58
1.68558e-61
7.09589e-65
2.86014e-68
1.22516e-71
5.02449e-75
2.11316e-78
8.0411e-82
3.25158e-85
3.6177e-87
1.51124e-90
1.26859e-93
7.18379e-97
2.18995e-100
1.9652e-103
6.76431e-107
4.31227e-110
3.59955e-114
2.2963e-116
4.30934e-120
4.40241e-124
3.83811e-126
6.75166e-129
8.04936e-132
6.42884e-136
6.37465e-139
4.89628e-142
3.4498e-144
1.3063e-145
0.963579
1.01571
1
0.992648
0.982734
1.01936
2.66528e-08
7.39409e-17
-2.40333e-23
5.53565e-18
2.30159e-19
2.61419e-22
9.01127e-27
1.39313e-30
5.4898e-34
2.26508e-37
9.15955e-41
3.81743e-44
1.54012e-47
6.20822e-51
2.68574e-54
1.08808e-57
4.13909e-61
1.69974e-64
8.90055e-68
6.52184e-71
3.11905e-74
5.7612e-78
8.18608e-81
7.07052e-84
5.37821e-88
1.29308e-89
4.00233e-93
1.90412e-97
7.98526e-101
6.54384e-103
4.91586e-106
3.63612e-110
7.10909e-112
2.29872e-115
1.23975e-118
2.68793e-121
5.13443e-125
2.4661e-128
1.34478e-132
1.55201e-134
1.25522e-137
6.31531e-141
1.21014e-144
1.57107e-145
2.162e-05
0.987253
0.00542394
1.00485
3.70952e-05
0.989443
0.00934994
0.0382957
1.00964
0.644591
0.99303
0.0425324
1.00883
0.64492
0.901617
1.00012
1
1.00678
0.899881
1.0008
1.00001
1.00001
1.0196
1.00073
1.00049
1.00002
1.02169
1.00125
1.00206
0.999827
1.00236
1.00588
1.00253
0.999353
1.00252
1.0019
1.02395
1.00318
1.01628
1.00153
1.01135
1.00348
1.00228
0.986786
1.00194
1.03926
1.00511
0.9981
1.00217
1.00017
1.00883
0.94219
1.00383
1.00038
1.01185
0.936525
0.821302
1.00268
0.18224
1.03478
0.819036
0.987237
0.181114
0.0688315
1.01341
-2.35196e-17
1.02738
0.0745333
1.01621
1.50899e-06
4.77903e-05
0.990967
0.0100046
1.00594
3.91907e-05
1.00129
0.0106547
0.0416584
1.00876
0.644385
1.00028
0.0434843
1.00881
0.644083
0.900049
1.0071
1.00014
1.00619
0.899714
1.00523
1
1.00015
1.03165
1.00164
1.0009
0.999748
1.01581
1.00138
1.00291
0.99966
1.00295
1.01446
1.00262
1.00084
1.00248
1.00188
1.01202
1.00362
1.01081
1.0015
1.0119
1.00324
1.00523
1.00283
1.00297
0.997502
1.0046
1.00674
1.00221
1.001
1.01355
0.944126
0.999388
1.00035
1.0235
0.946121
0.818452
0.960726
0.179597
1.04225
0.817153
0.959686
0.166317
0.0766905
1.01455
1.56682e-06
1.0212
0.0778652
1.01801
2.17567e-06
3.03131e-05
1.0004
0.00985538
1.00386
2.01059e-05
1.00294
0.00579074
0.045686
1.00904
0.644097
1.0097
0.0443454
1.01243
0.643564
0.899799
1.00487
1.00017
1.00611
0.900872
1.00749
1
0.999945
1.0122
1.00148
1.00525
0.999888
1.00844
1.00104
1.00279
0.999987
1.00284
1.01374
1.00239
1
1.00214
1.00177
1.0106
1.00357
0.991977
1.00183
1.01375
1.00329
1.00493
0.996326
1.00287
0.991685
1.00341
0.997799
1.00181
1.00096
1.04215
0.945166
0.99398
1.00015
1.03131
0.943177
0.817321
0.967951
0.144757
1.03136
0.818713
1
0.148777
0.0788751
1.01596
1.53727e-06
0.988344
0.0682157
1.0221
-1.50129e-17
0.983006
0.967288
0.904147
0.920986
0.96939
0.988638
0.927222
0.92399
1
0.993432
1.00454
1
0.945583
1.00002
-1.10536e-18
-6.86618e-16
-4.23079e-18
4.99986e-10
6.75819e-13
3.98554e-09
5.84648e-13
1.00296
1.06513
1.01913
1.00175
1.00428
1.04169
1.01816
0.99903
1
0.974038
0.992414
1
0.97844
0.998116
-2.83267e-19
0.0322676
-2.6058e-21
1.216e-07
5.95782e-12
0.0388168
2.96281e-12
1.0106
1.01711
1.0026
1.05782
1.00014
1.02465
0.996925
0.999768
1.00496
1.001
1.00709
1.00626
0.999585
1.00015
-2.75454e-22
0.936666
-8.56478e-21
0.210338
1.97132e-09
0.935347
3.67649e-10
0.996896
0.999999
0.995637
0.999818
0.979649
0.93053
0.801416
0.924015
1
1.00433
0.998397
1
1.00206
0.919202
-5.08045e-23
1.00022
-4.38332e-19
1.00022
1.02709e-08
1.0009
1.15034e-07
0.940674
1
0.979386
0.744581
0.768552
0.997594
0.97414
0.995698
1.00511
0.937851
1.01743
1.00446
0.96661
0.999928
-3.78478e-18
1.00083
-9.9234e-17
1.00135
2.72571e-07
1.00156
2.80096e-07
1.03659
1.01186
1.03074
1
0.969663
0.994835
1.01898
1.00636
1.00591
1.04206
1.04023
1.00725
1.04776
1.01165
-2.00201e-15
1.00063
-2.29419e-18
1.00173
3.26032e-07
1.00154
2.8963e-07
1.12042
1.10558
0.911813
1.09541
1.01743
1.08197
0.562084
1.00329
1.01873
1.03682
1.07005
1.01709
1.01616
1.00256
-1.82233e-16
1
-2.03483e-16
1.00401
1.11577e-07
1
1.45057e-08
0.956042
1.13695
1.0745
1.30594
0.810748
0.607789
1.32519
0.996876
1.00005
1.0113
1.03008
1.0004
1.00376
0.999635
-3.16515e-17
0.278594
-2.49751e-15
0.918884
4.64755e-10
0.291453
2.48483e-09
0.89719
0.973327
0.954801
1.07087
0.993748
0.980166
1.02057
0.998177
0.998557
0.98971
1.05949
0.998938
1.06626
0.999481
-7.53298e-17
-6.86222e-19
-9.02983e-19
0.116173
1.37102e-11
5.24839e-07
2.3508e-11
1.03232
1.04806
1.00789
1.04263
0.993152
0.9947
1.05083
1.00008
1.00313
0.971914
1.04469
1.00043
1.00707
1
-1.17762e-18
-4.4901e-18
-9.16736e-18
2.43722e-08
3.63987e-12
1.5857e-09
5.44372e-12
0.973665
1.01934
0.973018
0.9938
0.980843
1.00838
0.999723
0.914914
0.999121
1
1.00563
0.91439
1
0.998538
5.02473e-12
7.40446e-09
2.86659e-12
1.08865e-09
4.79936e-12
7.38011e-09
2.86659e-12
1.00065
1.02765
1.01667
1.01719
1.00409
1.0254
1.02065
1
1.00002
0.991753
0.999112
1.00015
1.00067
0.992577
2.54255e-11
0.039714
1.25973e-11
1.6381e-07
2.54378e-11
0.0400569
1.25973e-11
1.00071
1.0043
1.01868
1.03923
0.988456
1.01609
0.999958
1.00042
1.00614
0.999718
1.00586
1.00027
1.00642
1.00014
3.53894e-09
0.934711
7.31423e-10
0.210626
3.52855e-09
0.934458
7.28322e-10
1.01905
1
0.907976
0.946705
0.96665
0.999952
0.995658
0.933941
0.998922
0.994646
1.00532
0.930559
0.997575
0.999099
1.81553e-08
1.00098
1.80608e-07
1.00019
1.80072e-08
1.00109
1.76904e-07
0.99331
1.01347
0.983611
1.08717
1.06739
0.954003
0.906543
0.991724
1.0017
0.976837
1.01157
0.99063
1.00086
1.0258
4.12104e-07
1.00205
4.55596e-07
1.00142
4.24382e-07
1.00166
4.60546e-07
0.9809
1.00178
1.02176
1.00815
0.86743
0.951904
1.01688
1.00402
1.00362
1.04362
1.01665
1.00386
1.00256
1.03916
5.05072e-07
1.00209
4.65029e-07
1.00176
4.99526e-07
1.00158
4.57854e-07
0.940079
1
1.00679
0.993568
0.996253
1.03832
0.809681
1.00352
1.01114
1.00822
1.00611
1.0041
1.00633
1.00647
1.95319e-07
1
2.4182e-08
1.00336
2.05353e-07
1
2.43479e-08
0.949879
0.929127
1.13771
1
1.09381
0.96934
1.09271
0.993521
1.0001
0.84462
1.0232
0.998569
1.00016
0.862109
8.97016e-10
0.283342
4.55018e-09
0.918436
8.96112e-10
0.281946
4.37876e-09
0.960534
0.953708
1.00469
1.0071
1.16494
0.862434
0.96594
1.00406
1.00156
1.05056
1.04172
1.00183
1.00051
1.07069
5.2936e-11
7.2937e-07
9.3913e-11
0.118195
5.29359e-11
6.20847e-07
9.40459e-11
1.03672
1.03545
1.029
0.994921
1.05363
1
1.05478
1.00123
1.00633
1.04969
1.03058
1.00213
1.0018
1.04797
1.49474e-11
2.13538e-09
2.7063e-11
3.93086e-08
1.49474e-11
2.95451e-09
2.70775e-11
0.975713
1.01615
0.973707
0.998498
0.983665
1.01211
0.985633
0.921502
1.00005
0.999305
1.00577
0.920463
1
1.00028
6.22919e-13
3.94692e-09
5.93106e-13
-6.70335e-19
-1.13435e-18
-6.24913e-16
-3.86628e-18
1.00146
1.03062
1.01318
1.01632
1.00489
1.02711
1.03075
1
1.00407
0.992146
0.999145
1
1.00506
0.995778
5.9814e-12
0.0394546
2.9757e-12
-7.73018e-18
-3.31954e-19
0.0328511
-2.52116e-21
1.01947
1.00883
1.00861
1.01317
1.00425
1.00017
1.00057
1.0015
1.00653
1.00225
1.00621
1.00168
1.00679
1.00188
1.97269e-09
0.934774
3.6544e-10
0.204075
-5.26348e-22
0.936075
-8.40281e-21
0.988822
1.0042
1.00321
0.917767
0.990632
0.99462
1.00985
0.993659
0.999232
0.991535
1.0009
0.999293
0.999635
0.9733
1.02189e-08
1.00095
1.15303e-07
1
-5.33386e-23
1.0002
-3.40254e-19
1.01881
0.979518
0.923192
1.00158
1.0313
0.95615
0.886437
0.987495
1
0.954001
1.01746
0.985916
1.00035
0.954834
2.70515e-07
1.00196
3.02353e-07
1.00052
-4.00756e-18
1.00083
-1.13197e-16
0.886312
0.999355
1.01391
0.998759
0.859098
0.95668
1.00304
1.00137
1.00021
0.99953
1
1.00161
1.00015
0.985633
3.1083e-07
1.00211
2.96521e-07
1.00085
-1.87722e-15
1.00061
-1.57951e-18
1.02853
1.05249
0.93059
1.04255
0.970897
0.968938
0.974265
1.00359
1.00723
0.968982
0.98906
1.00214
1.00644
0.969584
1.16051e-07
1
1.46419e-08
1.00096
-1.82775e-16
1
-1.88863e-16
1.14756
0.800343
1.12044
0.951972
0.971457
1.0736
1.09166
0.982441
1.0004
0.916378
0.934276
0.983598
0.999011
0.958979
4.67815e-10
0.281778
2.79257e-09
0.921997
-3.4599e-17
0.278493
-4.31271e-15
1.15457
0.894698
1
0.997545
1.06209
0.940765
1.06188
0.999068
1.00067
1.00472
1.04007
0.999007
1.0018
1.00708
1.36749e-11
6.72514e-07
2.3468e-11
0.109632
-5.02624e-16
-7.99948e-17
-7.35434e-17
1.04467
0.959224
1.01553
0.917991
0.975337
0.968794
1.00928
1.00006
1.00376
1.01283
1.00095
1.00026
1.00101
1.00197
3.99213e-12
1.6195e-09
6.40106e-12
-9.7948e-18
-2.72383e-18
-3.52036e-18
-6.92827e-18
0.280785
0.392008
-3.33068e-19
5.00058e-05
1.25963e-07
0.25228
0.392999
1
0.998023
1
0.988308
0.998931
1
1
0.482212
0.000830098
0.528529
0.00728565
0.00297381
0.528504
0.482216
0.915119
1.00497
1
1
1
0.917948
1
0.292993
3.30336e-05
0.394998
4.70471e-07
6.20019e-07
0.292036
0.393042
1.00007
0.988711
0.998691
1
0.998267
1.00002
1
0.482252
0.00847485
0.00402553
0.529043
0.00380425
0.52861
0.483608
0.796769
0.706783
0.117813
0.041413
0.706616
0.123619
0.798705
1.00015
1.00138
1.00162
1.0092
1.00139
1.00174
1.00057
0.960137
0.353804
1
0.644798
0.356019
1
0.960111
0.999994
0.991467
1.0002
0.995464
1
0.991639
1
0.79439
0.0413121
0.708086
0.127531
0.707123
0.126943
0.798393
1.00065
1.00904
1.00209
1.00236
1.0025
1.00225
1.00026
0.959424
0.644684
0.360204
1
0.35763
1.00001
0.958793
1.0002
1.00023
1.00004
0.901005
1.00004
1.00018
1.00091
0.999021
0.980748
1.00008
0.99988
0.983477
1.00019
1.00039
1.00034
1.00028
1.00003
1.00005
1.00049
1.00001
1.00147
1.00001
1.00677
1.00639
0.999352
1.00589
0.999048
0.999741
1.00086
0.9001
1
1.00026
1.00005
1.00103
1.00024
0.999191
0.999434
0.993039
1.00055
0.986181
1.00038
0.998773
1.00066
1.00021
1.00078
1.00003
1.00097
1.00026
1.00051
1
0.997489
1.00004
1.00003
0.998014
1.00012
1.00006
1.01059
0.995875
1.00999
1.01104
1.0176
1.00568
1.01119
1.0004
1.00006
1.00245
1.00165
1.00016
1.00291
1.00037
0.927458
1
1.00001
0.999896
0.999277
0.997725
0.929501
0.998699
1.00018
0.999471
1
0.999732
1.00018
1
1.00778
1.0165
1.01928
1.00379
1.03035
1.00532
1.00577
1.00059
1.00194
1.00021
1.00299
1.00059
1.00316
1.00035
1.00502
1.00659
1.0028
1.00215
1.00632
1.00303
1.00728
1.00739
0.995493
1.00569
0.993051
0.990746
1.00386
1.00772
1.005
1.00203
1.00418
1.00246
1.0023
1.00408
1.00521
0.99939
1.01523
1.00257
0.920054
1.0034
0.915006
0.988104
1.00578
1.00264
1.00564
1.00314
1.00609
1.00334
1.00422
1.00646
1.00295
0.99307
1.004
0.999364
1.00485
1.0049
1.00507
1.00296
1.00254
1.00398
1.00282
1.00416
1.00466
1.00188
1.00158
1.00119
1.00173
1.00148
1.00118
1.00218
1.0128
1.02017
1.02166
1.02126
1.02171
1.01985
1.01129
1.00672
1.00224
1.00865
1.00287
1.00232
1.00922
1.0063
1.00531
1.01362
1.00631
1.04232
1.00442
1.04034
1.00398
1.00191
1.00209
1.0012
1.00137
1.00142
1.00177
1.00183
1.01227
1.01534
1.01828
1.01837
1.01591
1.01929
1.01382
1.0068
1.00332
1.00242
1.00853
1.00256
1.00872
1.00665
1.00494
1.00803
1.00324
1.00165
1.00733
1.00348
1.00614
0.998426
0.910018
1.00417
0.980062
0.927143
1.00428
1.00002
1.0043
1.00334
1.0042
1.00206
1.00362
1.00395
1.00524
1.00417
1.04629
1.01393
1.01288
1.0157
1.01265
1.00378
1.00519
1.00326
1.00741
1.00388
1.00713
1.00421
1.00472
0.995263
1
1.01572
1.00344
0.994747
1.00412
0.996947
1.00412
1.0028
1.00383
1.00368
1.00418
1.00421
1.00376
0.999805
1.00109
1
1.00031
1.00095
1.00001
0.999927
0.983224
0.866028
0.996725
1.02168
0.878131
0.994552
1
1
1
1
0.940623
1
0.999997
1.00018
0.996615
1.03403
1.00004
0.950432
0.999954
1.02074
0.99049
0.999155
1.00097
1.00038
1
1.00115
1.00041
0.998495
0.946096
1.03686
0.999959
0.974397
0.937093
0.983119
0.917942
0.991218
0.938712
1
0.999998
1
1
0.978754
1
1
0.654368
0.820619
0.999996
0.654329
1.00019
0.998806
1.01925
1
1.0041
0.997456
1
0.998924
1
0.38844
0.874769
0.184255
0.389783
0.874601
1.00029
1.00057
1.02612
1.00264
1.04099
1.00089
1.01658
1.00053
1.00035
0.820035
1
0.654037
1.00003
0.653682
1.00006
0.998357
0.999998
0.961384
1
0.961509
1
0.999723
1
0.180149
0.394712
0.87741
0.390582
0.877315
0.998024
0.517572
0.774491
0.00554001
0.0709539
0.773038
0.00653951
0.517505
1
0.999797
1.00094
1.01411
1.00031
1.00046
1.00043
0.518992
0.00348145
0.344706
5.30702e-07
0.00534974
0.517368
0.345608
1.00083
1.05923
1.00397
1.05095
1.00162
1.05217
1.00017
0.519463
0.0707187
0.769265
0.00931099
0.777975
0.00704007
0.519482
1
1.01717
0.986052
1
1.0025
0.99896
1.00016
0.517899
1.50899e-06
0.00687766
0.348416
0.00665191
0.522492
0.346394
0.298204
0.396465
7.0636e-07
7.09759e-05
0.297756
7.0636e-07
0.397225
1
0.999187
1.00001
0.995411
1.00007
0.998385
1
0.483565
0.00434911
0.529704
0.0108033
0.483911
0.00434414
0.528675
0.916
1.00679
0.999525
1
1
0.918234
0.998704
0.296532
6.23288e-05
0.395255
7.92172e-07
7.92172e-07
0.295081
0.396463
1.00001
1.00071
0.999236