/*--------------------------------*- C++ -*----------------------------------*\
| =========                 |                                                 |
| \\      /  F ield         | OpenFOAM: The Open Source CFD Toolbox           |
|  \\    /   O peration     | Version:  5.0                                   |
|   \\  /    A nd           | Web:      www.OpenFOAM.org                      |
|    \\/     M anipulation  |                                                 |
\*---------------------------------------------------------------------------*/
FoamFile
{
    version     2.0;
    format      ascii;
    class       volScalarField;
    location    "2";
    object      p;
}
// * * * * * * * * * * * * * * * * * * * * * * * * * * * * * * * * * * * * * //

dimensions      [1 -1 -2 0 0 0 0];

internalField   nonuniform List<scalar> 
9228
(
110.362
99.2768
109.93
97.4852
109.388
104.067
98.6365
93.628
90.6378
87.8247
85.149
82.5546
80.0172
77.544
75.0968
72.6861
70.2977
67.9442
65.6146
63.3102
61.0142
58.7378
56.4902
54.2341
52.0027
49.7911
47.5833
45.3729
43.1818
41.0149
38.8448
36.6987
34.5811
32.4527
30.3191
28.218
26.1683
24.1522
22.1457
20.131
18.1446
16.2037
14.2644
12.2955
10.3566
8.46433
6.5756
4.67833
2.80261
0.937028
101.533
97.6368
102.826
102.767
102.24
100.754
98.1987
93.1296
90.3212
87.6555
85.0532
82.4981
80.0049
77.533
75.0852
72.6867
70.2924
67.9558
65.634
63.3123
61.0173
58.7355
56.4777
54.2344
51.992
49.7739
47.5708
45.3746
43.1894
41.0187
38.8591
36.711
34.5755
32.4466
30.3209
28.2226
26.1616
24.1353
22.1251
20.1289
18.1502
16.2075
14.2711
12.315
10.3638
8.45491
6.56169
4.67514
2.80291
0.936703
89.9501
109.165
102.525
101.495
98.6394
98.5033
96.8622
93.2091
89.7718
87.3719
84.8861
82.3894
79.9247
77.4913
75.0656
72.6601
70.296
67.9689
65.6463
63.3082
61.0163
58.7388
56.4701
54.226
51.9936
49.7684
47.5601
45.3796
43.1987
41.0191
38.8636
36.7107
34.557
32.4337
30.3321
28.238
26.1619
24.126
22.1223
20.1311
18.1575
16.2025
14.2547
12.3159
10.375
8.45193
6.55577
4.67644
2.80572
0.936653
105.012
101.218
99.1895
101.174
100.34
98.3216
96.0457
92.5047
89.4171
87.1651
84.7476
82.326
79.872
77.4499
75.0462
72.6529
70.2893
67.9589
65.623
63.31
61.0256
58.7382
56.4748
54.2291
52.0048
49.779
47.5597
45.386
43.1936
41.0097
38.8642
36.7061
34.5517
32.4286
30.3384
28.2544
26.1678
24.1225
22.123
20.1367
18.1627
16.1917
14.2376
12.3033
10.3799
8.45419
6.55709
4.68396
2.81222
0.931875
100.15
102.015
101.795
164.76
85.092
93.5004
94.9837
92.1667
89.2561
87.0432
84.666
82.2552
79.8423
77.4273
75.0424
72.6544
70.2974
67.947
65.6009
63.3081
61.0277
58.7368
56.479
54.2326
52.0137
49.7939
47.5697
45.3809
43.1814
41.0022
38.8586
36.6982
34.5493
32.4273
30.3397
28.2633
26.1767
24.1263
22.1266
20.1462
18.1617
16.1774
14.2167
12.2925
10.3776
8.45544
6.56366
4.6977
2.82025
0.929819
100.769
102.364
104.98
108.305
107.701
96.7987
95.6026
92.2931
89.3381
87.0794
84.6788
82.2614
79.8455
77.433
75.0502
72.6623
70.3063
67.9507
65.5966
63.3025
61.0248
58.7346
56.4804
54.243
52.0184
49.8082
47.5805
45.376
43.1747
40.9955
38.8526
36.6924
34.5412
32.4289
30.3427
28.2659
26.1895
24.1362
22.1298
20.1463
18.1559
16.1652
14.2038
12.2823
10.3719
8.45965
6.58035
4.72165
2.83025
0.93274
97.7581
96.8204
100.304
99.0042
95.4092
98.737
97.0247
92.7412
89.515
87.177
84.7574
82.3161
79.8964
77.4685
75.0621
72.6708
70.311
67.9634
65.6033
63.2931
61.015
58.7349
56.4793
54.2521
52.0263
49.806
47.5865
45.3722
43.1757
41.0045
38.8472
36.6793
34.5344
32.4354
30.3458
28.2599
26.193
24.1498
22.1317
20.1386
18.1488
16.1567
14.1999
12.2801
10.3681
8.46148
6.58649
4.72186
2.83524
0.941856
98.2004
99.5628
94.105
158.352
126.901
108.905
96.7091
92.8244
89.7438
87.3606
84.8721
82.3932
79.9462
77.4993
75.0618
72.6861
70.3095
67.9565
65.6201
63.2893
61.0073
58.7316
56.4789
54.254
52.0256
49.8118
47.589
45.369
43.1868
41.0106
38.8424
36.6761
34.5389
32.4417
30.3429
28.2468
26.192
24.1614
22.1375
20.1329
18.1441
16.169
14.2122
12.2848
10.3665
8.46362
6.58487
4.71071
2.83316
0.945761
100.688
109.05
100.886
96.2615
114.638
104.524
96.5497
92.9216
90.2541
87.6247
85.0401
82.4994
80.0005
77.529
75.0911
72.6967
70.2994
67.9468
65.6181
63.2997
61.0012
58.7261
56.4843
54.25
52.029
49.8113
47.5869
45.3708
43.1808
41.0093
38.8307
36.6769
34.557
32.4476
30.3356
28.236
26.1859
24.1642
22.1415
20.1314
18.1425
16.1763
14.2264
12.2852
10.3629
8.46517
6.57798
4.70008
2.82278
0.946672
84.302
109.016
108.472
99.276
129.342
106.652
98.3279
93.642
90.6476
87.82
85.1512
82.5521
80.0115
77.5444
75.1016
72.691
70.3003
67.9462
65.6137
63.3045
61.0034
58.7285
56.4877
54.2393
52.0174
49.8059
47.5853
45.371
43.1782
41.0109
38.8343
36.6831
34.5718
32.4526
30.3248
28.2243
26.1777
24.1616
22.1453
20.1305
18.144
16.193
14.2453
12.288
10.3566
8.46853
6.5811
4.68871
2.80829
0.937701
100.502
120.679
116.658
90.2426
104.775
104.07
98.6326
93.6287
90.6378
87.8247
85.1491
82.5547
80.017
77.544
75.0968
72.686
70.2977
67.9443
65.6148
63.3099
61.0141
58.7378
56.4901
54.234
52.0029
49.7911
47.5832
45.3729
43.1815
41.0147
38.8447
36.6988
34.5812
32.4524
30.319
28.218
26.1683
24.1521
22.1456
20.1309
18.1445
16.2038
14.2645
12.2956
10.3566
8.46438
6.57551
4.67832
2.80257
0.937103
90.3018
121.701
102.482
106.637
101.591
100.762
98.1897
93.1299
90.3212
87.6555
85.0531
82.4981
80.0049
77.533
75.0852
72.6865
70.2923
67.956
65.6339
63.3122
61.0174
58.7355
56.4776
54.2341
51.9919
49.7738
47.5707
45.3746
43.1894
41.0187
38.8596
36.7111
34.5755
32.4466
30.3208
28.2226
26.1615
24.1353
22.1251
20.1289
18.1502
16.2076
14.271
12.3147
10.3638
8.45493
6.56159
4.67512
2.8031
0.936655
89.539
96.2696
111.474
100.358
100.996
98.5075
96.7514
93.2075
89.7733
87.3717
84.8861
82.3894
79.9247
77.4913
75.0656
72.6601
70.2961
67.9688
65.6464
63.3081
61.0161
58.7387
56.47
54.2259
51.9936
49.7683
47.5601
45.3796
43.1988
41.0191
38.8632
36.7106
34.5571
32.4338
30.3322
28.238
26.1616
24.126
22.1223
20.131
18.1576
16.2026
14.2548
12.3157
10.375
8.45176
6.55572
4.6765
2.80574
0.936645
103.908
97.7395
98.7462
100.387
99.9644
98.3469
96.0699
92.5054
89.4175
87.1646
84.7476
82.3265
79.872
77.4499
75.0462
72.6529
70.2893
67.9587
65.6228
63.3099
61.0256
58.7382
56.4748
54.2292
52.0047
49.7788
47.5598
45.3861
43.1937
41.0095
38.864
36.7062
34.5517
32.4287
30.3384
28.2544
26.1677
24.1225
22.123
20.1366
18.1627
16.1917
14.2374
12.3034
10.38
8.45418
6.55697
4.68391
2.81222
0.931743
99.8172
109.352
103.044
89.514
82.0634
93.1807
94.9879
92.1641
89.2564
87.0432
84.6661
82.2552
79.8422
77.4273
75.0424
72.6544
70.2973
67.947
65.6008
63.3082
61.0278
58.7368
56.4787
54.2327
52.0135
49.7939
47.5698
45.3808
43.1809
41.0021
38.8586
36.6982
34.5487
32.4273
30.3397
28.2633
26.1767
24.1262
22.1266
20.1464
18.1616
16.177
14.2167
12.2925
10.3776
8.45542
6.56359
4.69766
2.82022
0.929866
100.832
104.036
103.888
105.545
104.782
96.2001
95.6087
92.2883
89.3384
87.0795
84.6787
82.2614
79.8456
77.433
75.0502
72.6622
70.3063
67.9508
65.5965
63.3025
61.025
58.7343
56.4804
54.243
52.0185
49.8083
47.5804
45.3759
43.1747
40.9957
38.8526
36.6919
34.5411
32.429
30.3428
28.2658
26.1896
24.1361
22.1298
20.1463
18.1559
16.1647
14.2038
12.2823
10.3718
8.45964
6.58032
4.72167
2.82997
0.932707
98.2503
98.4631
115.8
103.198
109.131
95.708
97.0067
92.7383
89.5155
87.1768
84.7574
82.3161
79.8963
77.4685
75.0621
72.6708
70.311
67.9633
65.6032
63.2931
61.015
58.7348
56.4793
54.2521
52.026
49.806
47.5864
45.3722
43.1758
41.0045
38.8474
36.6792
34.5343
32.4354
30.3458
28.2597
26.193
24.1498
22.1317
20.1387
18.1488
16.1565
14.1999
12.2801
10.368
8.46146
6.58658
4.72194
2.83525
0.941957
98.0321
95.8553
99.4283
144.903
115.762
97.9662
96.6992
92.8214
89.7444
87.3604
84.8721
82.3932
79.9462
77.4993
75.0617
72.686
70.3098
67.9563
65.6202
63.2893
61.0072
58.7316
56.4789
54.2539
52.0255
49.8118
47.589
45.3687
43.1867
41.0106
38.8423
36.676
34.5389
32.4417
30.3428
28.2468
26.192
24.1613
22.1375
20.1328
18.144
16.1691
14.2122
12.2848
10.3664
8.4636
6.58486
4.71069
2.8331
0.945738
98.45
112.177
99.4612
90.4671
90.4068
95.9709
96.4167
92.9222
90.2541
87.6246
85.0401
82.4994
80.0004
77.529
75.0911
72.6969
70.2994
67.9468
65.6181
63.2998
61.0012
58.7262
56.4843
54.25
52.0289
49.8113
47.5867
45.3709
43.1809
41.0094
38.8308
36.6768
34.5574
32.4477
30.3355
28.2361
26.1861
24.1641
22.1414
20.1313
18.1426
16.1763
14.2264
12.285
10.3629
8.46521
6.57794
4.70005
2.82284
0.946674
93.5243
108.683
106.355
101.472
122.367
104.931
98.3215
93.6427
90.6476
87.82
85.1513
82.552
80.0114
77.5449
75.1015
72.6913
70.3002
67.9461
65.6137
63.3044
61.0033
58.7284
56.4877
54.2393
52.0176
49.806
47.5851
45.371
43.1782
41.0109
38.8341
36.6832
34.572
32.4523
30.3247
28.2245
26.1778
24.1616
22.1452
20.1305
18.144
16.1929
14.2453
12.288
10.3566
8.46855
6.58097
4.68869
2.8083
0.937684
100.269
102.392
105.967
90.5761
104.716
104.063
98.6368
93.6284
90.6377
87.8246
85.1491
82.5548
80.0168
77.544
75.0967
72.6858
70.2976
67.9443
65.6148
63.3097
61.0139
58.7378
56.49
54.2338
52.0028
49.7911
47.583
45.3728
43.1813
41.0146
38.8448
36.6988
34.5811
32.4523
30.3189
28.218
26.1682
24.1521
22.1456
20.1308
18.1444
16.2038
14.2646
12.2957
10.3566
8.46435
6.57537
4.67824
2.80247
0.937054
90.8295
131.853
102.754
99.6148
100.835
100.949
98.192
93.1291
90.3212
87.6554
85.0531
82.498
80.0048
77.5329
75.0851
72.6862
70.2927
67.9561
65.6336
63.312
61.0174
58.7356
56.4769
54.2335
51.9919
49.7738
47.5706
45.3745
43.1895
41.0187
38.8596
36.711
34.5753
32.4465
30.3208
28.2225
26.1614
24.1358
22.1249
20.1287
18.1501
16.2077
14.2708
12.3141
10.3638
8.45492
6.56152
4.67505
2.80316
0.936465
94.4936
87.1448
105.534
102.9
100.468
98.517
96.7593
93.2089
89.773
87.3718
84.886
82.3893
79.9246
77.4912
75.0655
72.66
70.296
67.9685
65.6464
63.308
61.0159
58.7387
56.4699
54.2258
51.9936
49.7682
47.5601
45.3795
43.1988
41.0192
38.8631
36.7102
34.5571
32.4339
30.3323
28.238
26.1615
24.126
22.1222
20.1309
18.1575
16.2027
14.2547
12.3155
10.3749
8.45164
6.55562
4.6765
2.8057
0.936329
96.3647
103.736
98.918
97.5285
109.513
98.0655
96.0704
92.5064
89.417
87.1645
84.7475
82.3264
79.8719
77.4498
75.0461
72.6528
70.2892
67.9585
65.6228
63.3097
61.0256
58.7381
56.4749
54.2292
52.0038
49.7786
47.5599
45.386
43.1936
41.0094
38.8639
36.7062
34.5516
32.4286
30.3385
28.2543
26.1675
24.1224
22.123
20.1366
18.1626
16.1915
14.2372
12.3036
10.38
8.4541
6.55687
4.68382
2.81208
0.931414
98.986
107.992
102.076
80.5144
73.5306
92.9675
94.9845
92.1648
89.2556
87.0436
84.666
82.2552
79.842
77.4272
75.0424
72.6544
70.2973
67.9469
65.6007
63.3082
61.0278
58.7368
56.4783
54.2328
52.0132
49.7939
47.5699
45.3808
43.1807
41.002
38.8586
36.6982
34.5486
32.4272
30.3397
28.2632
26.1765
24.1262
22.1266
20.1467
18.1615
16.1765
14.2168
12.2924
10.3774
8.45535
6.56373
4.69759
2.82007
0.929775
98.7728
102.671
102.493
106.852
104.072
95.9654
95.6113
92.2896
89.3376
87.0797
84.6785
82.2613
79.8456
77.4329
75.0502
72.6621
70.3062
67.9508
65.5964
63.3025
61.0249
58.7338
56.4802
54.2429
52.0185
49.8082
47.5803
45.3757
43.1746
40.9961
38.8527
36.6917
34.5409
32.4297
30.3429
28.2657
26.1896
24.1361
22.1298
20.1464
18.1556
16.1643
14.2038
12.2823
10.3716
8.45956
6.58034
4.72168
2.82952
0.932676
97.9621
98.5716
108.743
110.994
95.9077
96.2986
97.0033
92.7372
89.515
87.1769
84.7573
82.316
79.8963
77.4684
75.062
72.6707
70.3109
67.9631
65.6032
63.2932
61.0153
58.7348
56.4792
54.2521
52.0258
49.8059
47.5863
45.3721
43.1762
41.0045
38.8472
36.679
34.5342
32.4354
30.3458
28.2595
26.1929
24.1497
22.1316
20.1387
18.1487
16.1564
14.1999
12.2801
10.3679
8.46139
6.58662
4.72166
2.8352
0.941898
98.4164
102.74
107.996
94.7058
129.328
96.0258
96.7077
92.8214
89.7441
87.3604
84.872
82.3931
79.9461
77.4992
75.0617
72.686
70.31
67.956
65.6202
63.2892
61.0071
58.7316
56.4791
54.2539
52.0255
49.8118
47.5889
45.3685
43.1864
41.0106
38.8422
36.6759
34.5388
32.4416
30.3427
28.2468
26.192
24.1613
22.1374
20.1328
18.1439
16.169
14.2122
12.2847
10.3663
8.46353
6.58481
4.71064
2.83309
0.945759
97.2008
116.22
101.111
91.6852
87.3129
95.3846
96.438
92.9217
90.2545
87.6243
85.0399
82.4993
80.0004
77.5289
75.091
72.6971
70.2993
67.9466
65.6181
63.2998
61.0011
58.7264
56.4842
54.2499
52.0287
49.8113
47.5863
45.371
43.1811
41.0095
38.8306
36.6767
34.5575
32.4477
30.3354
28.2362
26.1861
24.1639
22.1413
20.1313
18.1426
16.1763
14.2263
12.2848
10.3628
8.4652
6.57782
4.69998
2.82301
0.946579
113.005
109.796
106.414
99.9472
92.1073
103.847
98.3207
93.6423
90.6475
87.8197
85.1513
82.5518
80.0111
77.5448
75.1015
72.6915
70.3002
67.9461
65.6136
63.3043
61.0032
58.7284
56.4877
54.2393
52.0176
49.8059
47.5849
45.371
43.1784
41.0109
38.834
36.6833
34.5724
32.4519
30.3245
28.2246
26.1777
24.1616
22.1452
20.1304
18.1439
16.1928
14.2452
12.2878
10.3565
8.46851
6.58079
4.68859
2.80832
0.93762
101.141
101.774
99.1906
104.071
101.163
101.765
99.1454
99.3711
99.2413
98.0499
100.702
99.2757
99.2374
98.0883
97.8621
97.4282
96.7542
98.4586
97.8912
97.3461
96.7531
96.0661
91.8396
95.0676
98.3707
96.0627
90.2828
94.9681
94.7965
95.1535
94.9789
93.7661
94.7792
93.6221
94.9644
95.46
98.4794
96.5489
96.0859
95.4472
98.0466
96.5411
96.9088
102.986
97.4404
95.605
96.9366
103.176
97.439
96.6345
98.1363
96.2904
101.869
96.6307
96.5447
96.3553
96.642
103.803
99.7011
97.5096
96.6768
102.989
99.7022
100.619
104.587
100.822
105.741
100.515
104.76
100.826
101.149
101.661
99.1344
104.044
101.16
101.976
99.1298
99.267
99.2413
98.0878
100.961
99.2548
99.2362
98.0895
97.8953
97.4723
96.7494
98.4912
97.8906
97.24
96.7594
96.0644
89.6281
94.848
97.9576
96.071
95.6554
94.85
94.8106
93.6216
94.9857
92.9227
94.7797
93.4948
94.9657
95.4228
97.8518
96.5713
95.8633
95.4487
97.869
96.5427
96.9792
102.821
97.4492
96.192
96.7641
102.062
97.4187
96.6272
96.2354
96.3789
96.1902
96.6274
95.3571
96.4334
96.6682
102.97
99.715
95.6921
96.6619
102.903
99.7071
100.572
104.736
100.808
103.912
100.597
104.663
100.812
101.172
101.867
99.134
104.032
101.143
101.798
99.1937
99.2736
99.2139
98.087
102.661
99.3621
99.6207
98.0485
97.8843
97.3669
96.7632
98.5371
97.8465
97.5324
96.7589
96.0532
95.2273
94.8314
98.3728
96.048
94.6635
94.8894
94.7864
93.4626
95.0158
92.5333
94.792
93.3872
94.9919
95.4619
97.9622
96.5699
96.64
95.4781
98.1657
96.5405
96.8885
101.659
97.469
96.4768
96.7139
101.582
97.4488
96.6334
95.1701
96.3706
119.582
96.6272
95.0778
96.3186
96.6515
102.474
99.7781
94.9937
96.6257
103.809
99.8298
100.709
104.207
100.826
104.888
100.616
106.415
100.818
105.475
104.196
104.609
115.467
105.624
102.252
102.186
102.164
103.52
103.892
104.056
103.341
103.209
103.533
96.4917
98.179
96.0864
98.6335
96.5017
98.1776
96.096
100.406
103.307
99.8227
100.572
100.426
100.924
99.8167
99.6466
100.33
100.662
100.772
100.335
99.9066
99.6237
95.6148
97.0411
95.1189
98.1908
95.6239
96.9162
95.1283
98.4141
97.5124
96.3092
100.504
97.5312
98.1693
96.8608
97.7458
98.4654
98.0404
98.48
98.3502
97.9159
97.7532
94.7296
96.4371
93.8372
96.7686
94.7287
96.4285
93.8459
94.0125
86.968
86.2629
99.702
95.3158
81.2927
122.005
98.4107
96.0574
98.1436
98.351
96.0629
97.9388
99.9472
93.6442
95.319
92.965
96.0677
93.6525
95.3231
92.9651
97.0081
100.345
89.1123
145.52
136.955
99.0052
88.7522
95.5602
93.8587
97.4983
93.8937
93.7288
101.898
95.9216
92.9096
95.2057
92.9593
94.9908
92.8999
95.2107
92.921
105.513
103.381
100.531
106.627
100.964
102.599
99.7066
96.3211
95.716
100.118
98.7482
95.8527
101.275
97.0009
93.0762
96.5771
93.6013
95.6156
93.0349
96.5752
93.5922
84.1657
122.127
151.021
103.187
89.8409
122.021
132.571
99.3955
96.7234
105.883
103.012
96.4894
102.608
99.4713
93.6565
97.3018
94.0981
97.0141
93.6368
97.3211
94.1078
108.839
176.911
105.716
159.015
159.45
183.371
177.52
93.482
96.7551
90.7824
104.024
96.7318
89.6451
93.9705
93.9734
96.4307
94.5818
96.696
93.9816
96.4275
94.5802
101.846
101.24
109.599
98.6113
97.8376
102.027
104.498
98.2427
96.3445
107.837
112.393
96.2877
106.072
98.2313
94.6814
98.0705
95.3869
96.4094
94.69
98.0663
95.396
106.954
110.553
110.17
125.825
106.508
112.225
114.123
105.279
102.688
114.777
106.736
102.674
109.088
105.256
96.3516
98.8586
96.4759
98.3254
96.3622
98.856
96.4862
105.056
102.36
101.877
104.747
104.832
101.656
106.153
102.596
103.542
103.337
104.048
102.608
103.35
103.547
96.5009
98.1766
96.0948
98.6342
96.5007
98.1767
96.0947
100.494
100.826
99.8161
100.677
100.337
101.136
99.5488
99.7092
100.322
100.148
100.857
99.6919
100.332
100.074
95.6229
96.9128
95.1277
98.1901
95.6221
96.9099
95.1275
97.4833
98.2185
100.295
100.663
99.5667
97.9445
97.652
97.6695
98.3477
97.8998
98.4664
97.6777
98.3631
97.9646
94.728
96.4264
93.8439
96.7452
94.728
96.4151
93.8435
101.219
86.261
83.9288
105.004
92.4093
103.012
96.033
97.3902
96.0307
97.8885
98.6045
97.688
96.1457
98.6577
93.651
95.3176
92.963
96.0738
93.651
95.3293
92.9587
61.634
101.909
87.8037
90.0747
80.038
111.079
93.4882
95.1127
93.5244
99.7493
92.6866
95.2036
93.5667
104.014
92.898
95.2214
92.9251
94.9871
92.9002
95.2124
92.9229
98.097
105.45
95.7759
104.342
101.041
115.488
102.735
96.396
95.5016
99.3546
96.353
96.436
95.4892
98.3307
93.0381
96.5849
93.5923
95.6108
93.0409
96.5851
93.5912
103.437
121.665
132.813
97.1954
94.2187
102.945
96.0439
99.3213
96.1453
102
96.1024
99.3997
96.1494
101.904
93.6383
97.3228
94.1057
96.9976
93.6449
97.3231
94.1059
113.855
79.6769
115.196
124.039
111.652
74.0159
97.6505
93.53
96.7043
114.535
98.8095
94.2658
96.765
108.267
93.9793
96.365
94.5804
96.7073
93.9797
96.275
94.5817
99.4594
107.895
100.857
87.5386
94.7813
95.8966
109.298
97.6964
96.2279
100.318
96.0203
97.7339
96.1099
107.914
94.6884
98.0705
95.3944
96.4277
94.6881
98.0468
95.3943
102.017
95.6865
110.215
94.5486
106.226
89.156
109.293
105.282
102.693
109.351
104.75
105.286
102.529
109.186
96.3618
98.8546
96.4849
98.3196
96.3614
98.8564
96.4849
104.81
102.346
103.1
105.065
105.246
102.266
101.951
102.559
103.553
103.364
104.014
102.573
103.395
103.55
96.5013
98.1778
96.0956
98.6382
96.4912
98.1794
96.0857
100.406
101.097
100.299
100.323
100.499
100.854
101.757
99.7711
100.313
100.064
101.227
99.7501
100.329
101.331
95.6225
96.9144
95.1287
98.1981
95.6126
97.0386
95.1201
101.65
97.5691
97.2463
101.981
100.36
98.0249
97.7263
97.6961
98.3911
98.1002
98.5216
97.6888
98.4111
98.0567
94.7286
96.4216
93.8458
96.8539
94.7298
96.4148
93.8374
81.779
101.043
95.2943
108.732
91.5402
99.65
96.3503
99.5132
96.0235
102.461
97.9092
101.478
96.1123
96.2737
93.6527
95.3247
92.9648
96.0507
93.6446
95.3414
92.9639
78.772
102.948
92.8555
74.0418
78.3725
99.6668
92.7435
94.7476
93.5332
103.589
93.1901
95.2705
93.5323
103.022
92.901
95.2212
92.9195
94.9802
92.9108
95.2144
92.9562
100.169
110.593
103.611
103.747
99.7618
106.778
94.943
96.2205
95.4375
98.0843
96.1362
96.198
95.4302
98.0621
93.039
96.5984
93.5897
95.6054
93.0808
96.5883
93.5989
99.6701
105.43
78.6223
97.3947
95.3489
108.338
82.4946
99.2422
96.0892
104.307
96.8447
99.4547
96.2406
103.875
93.6353
97.3217
94.1079
96.989
93.6524
97.3023
94.0984
123.463
78.849
95.678
120.389
117.911
50.8873
97.4676
93.2045
97.0688
90.3113
114.864
93.183
97.3481
90.1739
93.9819
96.2954
94.5829
96.7155
93.9733
96.4118
94.5836
91.688
94.7003
98.1202
120.277
106.179
94.2879
107.875
96.6392
95.8216
96.0795
95.3343
96.7717
95.8237
96.0957
94.6895
98.0838
95.396
96.5473
94.6808
98.0739
95.3869
103.218
90.3751
109.23
93.4453
105.138
99.9529
108.903
105.256
102.523
107.594
102.987
105.262
102.453
107.24
96.3618
98.8592
96.4862
98.325
96.3508
98.8599
96.476
102.299
103.253
100.076
101.16
99.997
104.043
103.193
102.046
102.483
100.996
101.784
102.522
101.002
102.045
102.095
100.224
100.79
99.161
100.194
100.79
102.058
102.694
104.08
103.541
103.326
103.33
102.567
103.537
102.869
101.163
103.08
99.9885
99.9539
102.797
103.139
102.043
101.801
102.484
100.998
102.484
101.002
102.043
102.101
99.1454
100.194
100.777
100.187
100.786
102.068
99.397
100.19
98.9203
99.3057
100.206
98.7692
99.3808
99.4185
99.8164
98.9177
99.2094
99.8177
98.9074
99.4101
99.1086
98.6975
98.5948
98.0691
98.6443
98.6041
99.0875
99.6814
100.959
100.314
101.418
100.324
100.088
99.6852
99.4568
99.2849
100.214
98.7139
100.204
98.7505
99.4558
99.4226
99.2248
99.8027
98.894
99.7835
98.8865
99.4388
99.1103
98.083
98.614
98.5993
98.6219
98.6025
99.1158
97.811
98.0739
97.6133
97.8738
98.0856
97.6242
97.8411
97.0688
98.4442
96.8307
97.4382
97.8362
96.82
97.2012
97.2529
97.1236
96.7538
96.7573
97.1348
96.7574
97.4832
97.7039
98.4573
98.3687
97.9471
98.3086
98.0149
97.7486
97.6573
97.883
98.0841
97.6198
98.0894
97.6315
97.724
97.0295
97.5541
97.7096
96.8357
97.776
96.8274
97.1367
97.1804
96.759
97.1258
96.7441
97.134
96.8072
97.2129
95.6535
95.6264
95.8202
96.0686
95.5229
95.8426
95.6359
95.0779
98.5873
94.1463
92.5755
94.99
93.3443
95.139
94.6229
95.1391
94.3113
94.9489
95.1203
94.2554
94.6261
98.0379
98.3669
96.0843
98.1704
96.0676
98.1093
97.8514
95.7011
96.0998
96.0045
95.8321
96.1018
95.872
95.7438
94.877
90.7563
95.2334
93.4376
96.4424
93.3829
94.8331
94.6374
95.0403
95.1373
94.2639
95.1687
94.2905
94.6085
94.6652
94.2431
94.9028
94.7881
94.1893
94.884
95.0947
94.4021
95.9237
94.6545
96.2126
96.4889
94.4698
94.4655
94.609
94.9353
94.8379
94.9668
94.8957
94.8333
94.6346
95.5971
93.2815
93.5823
102.68
93.6503
105.313
96.0287
94.6591
94.7867
94.1647
94.8739
94.1768
94.9177
94.6127
94.3246
94.4302
95.3219
94.4157
96.1382
94.4816
94.2867
94.6203
95.0298
94.8991
94.8201
94.9225
94.842
94.5712
95.9291
95.3128
95.8323
95.4554
95.3106
95.8347
95.9434
96.8843
97.6658
97.754
97.9832
97.8974
97.4129
97.0423
96.4852
96.1824
96.9272
96.5762
96.175
96.9589
96.5009
96.401
96.7139
95.6945
98.9803
95.5155
99.3148
96.509
95.9375
95.5205
95.3299
95.8106
95.3194
95.8517
95.9516
96.8847
97.9203
97.8022
97.3292
98.4097
97.3841
96.9477
96.4918
96.5245
96.1663
96.9132
96.1699
96.9091
96.4821
98.1908
96.941
97.4888
97.0145
96.9006
97.4552
98.3887
98.3926
107.101
99.313
103.708
103.856
99.2542
98.4354
98.1807
97.4895
98.3157
97.4259
97.476
98.279
98.3362
99.431
95.6354
96.2739
102.212
96.4042
102.384
99.3667
98.1779
96.8298
96.8982
97.4373
96.9196
97.4759
98.2261
99.2858
102.714
104.918
99.2384
103.32
99.1879
98.7426
98.192
97.4877
97.4745
98.2717
97.544
98.2961
98.2645
95.5796
97.1506
96.0799
96.6364
97.1247
96.0871
95.5981
99.9126
104.477
96.5514
96.8019
101.181
96.1427
102.93
96.6512
95.9332
97.1081
96.2759
95.9401
97.1235
96.7088
93.4395
105.405
96.6918
92.5164
96.6921
92.8003
94.6613
95.6128
96.6411
97.1104
96.0806
97.1352
96.0869
95.6678
99.6883
100.581
101.545
98.1098
99.8157
96.4322
99.9585
96.403
96.2873
95.9141
97.1197
95.9325
97.133
96.458
97.77
97.2108
97.6516
96.6589
97.2162
97.6705
97.7694
100.225
110.784
101.38
104.023
106.903
101.378
100.229
99.1941
99.2737
100.123
99.6733
99.2141
100.139
99.1862
97.9724
100.287
96.5705
99.6542
96.292
102.896
97.8409
97.7607
96.6734
97.1994
97.7059
97.2108
97.688
97.7419
100.228
103.341
109.099
101.32
108.889
101.355
100.079
99.1877
99.6586
99.1209
100.061
99.1572
100.112
99.1579
103.049
101.383
101.267
100.546
101.414
101.299
103.183
104.134
103.64
103.729
104.509
103.724
104.143
103.731
102.887
100.978
104.094
100.839
100.951
102.903
104.024
105.291
112.022
102.578
109.822
102.598
110.088
105.274
102.96
100.488
101.31
101.285
101.493
101.296
102.908
104.118
105.083
105.275
103.743
104.393
104.081
103.737
102.896
100.835
100.909
103.959
100.942
102.869
103.975
102.843
103.057
99.9957
101.142
102.834
99.9915
103.051
102.046
102.498
100.998
101.648
102.044
102.572
101.003
102.045
100.193
100.78
99.1286
102.05
100.195
100.785
102.568
104.21
103.552
103.345
103.354
102.558
103.55
102.827
101.148
103.025
100.008
99.9993
102.819
103.032
102.05
101.803
102.684
101.01
102.944
101.01
102.05
102.046
99.1293
100.191
100.789
100.194
100.786
102.054
99.4627
100.231
98.6932
99.2575
99.4546
100.221
98.6911
99.4618
99.774
98.9103
99.2497
99.4535
99.7795
98.9167
99.1188
98.6035
98.5992
98.0889
99.1193
98.6062
98.6008
99.7204
100.937
100.315
100.106
100.329
100.092
99.7306
99.4626
99.2514
100.186
98.6952
100.201
98.695
99.4597
99.4689
99.2678
99.8032
98.9263
99.8609
98.9247
99.4843
99.1176
98.0896
98.6141
98.5917
98.6117
98.6006
99.1175
97.6787
98.0803
97.6162
97.8948
97.6885
98.0777
97.6137
96.9138
97.6774
96.9371
97.2838
96.946
97.931
96.8831
97.2973
97.1205
96.7461
96.7525
97.2659
97.117
96.7416
97.6786
98.4963
98.3823
98.0023
98.3686
97.9738
97.681
97.6916
97.8941
98.0341
97.6045
98.056
97.6107
97.6619
97.1336
97.0611
97.2365
96.9113
97.3458
96.8961
97.0148
97.2851
96.757
97.1061
96.8287
97.1114
96.7471
97.2723
95.9421
96.5489
95.8356
96.0403
95.7029
96.4892
95.8334
95.0199
95.5704
93.5179
95.3795
94.9109
95.4091
93.6707
94.6492
95.1354
94.2615
94.8719
94.6111
95.1207
94.2778
96.9648
100.007
95.9402
101.799
95.936
100.896
96.7844
95.9036
96.0403
96.6079
95.7611
96.9879
95.8033
95.9579
94.9742
96.5134
95.4418
93.9549
95.6673
93.8351
94.9362
94.6648
94.9556
95.1301
94.2487
95.1788
94.225
94.6666
94.6037
94.1566
94.9196
94.7783
94.5862
94.1537
94.8668
94.2713
96.0504
94.4415
93.5347
94.2561
95.5041
94.4473
94.5289
94.9569
94.8116
94.9476
94.5492
94.8878
94.8093
94.0371
92.8215
93.5766
94.5126
93.5895
98.8975
94.0302
94.6026
94.8213
94.2333
94.8401
94.1607
94.8597
94.6257
94.3965
93.5193
95.986
94.506
95.8331
94.4307
94.4121
94.5127
94.9712
94.8905
94.8075
94.9152
94.8084
94.4989
95.9423
95.3349
95.8261
95.4327
95.9549
95.3333
95.7885
96.9259
97.7385
97.291
97.8324
96.9129
97.7912
97.2626
96.4809
96.1898
96.9153
96.5549
96.4841
96.1606
96.9094
96.4336
96.3312
95.451
98.186
95.4719
98.2455
96.28
95.932
95.42
95.3561
95.8069
95.3395
95.8279
95.9308
96.942
97.8437
97.8248
97.2457
97.8918
97.258
96.923
96.4784
96.5393
96.1639
96.8824
96.1636
96.9129
96.4727
98.2069
96.9203
97.4961
96.605
98.2461
96.9682
97.4516
98.9516
106.18
99.0713
105.642
98.9963
105.15
98.9759
98.1788
97.5451
98.255
97.4006
98.2062
97.4606
98.2577
99.3115
96.1985
96.3492
101.894
96.0837
101.743
99.3229
98.2177
96.7448
96.8645
97.4351
96.8698
97.509
98.2347
98.769
103.492
102.478
98.7143
104.146
98.8645
98.6437
98.1814
97.4676
97.4385
98.2717
97.5427
98.2492
98.22
95.6659
97.0672
96.0785
96.6287
95.6975
97.2012
96.0805
100.664
105.306
97.135
95.2132
100.14
93.2746
98.0472
96.6685
95.8872
97.0667
96.3703
96.4614
95.8514
97.0936
93.5222
96.7763
97.0143
105.847
97.2007
95.4893
93.42
95.6919
96.6275
97.0473
96.0827
97.0906
96.0815
95.6971
101.497
95.5901
94.8144
99.7487
94.1831
97.2163
102.563
96.6199
96.4145
95.7757
97.1506
95.8146
97.0827
97.2648
97.7375
97.194
97.7152
96.6699
97.7292
97.1928
97.7096
99.9306
99.635
101.295
103.038
99.986
100.054
101.097
99.1371
99.1213
99.9719
99.8093
99.1415
99.1229
99.8804
97.3565
95.7345
95.9135
96.092
96.035
95.8882
97.2247
97.745
96.6714
97.18
97.6901
97.189
97.6943
97.7475
99.9911
103.198
100.132
101.075
100.465
101.001
99.9265
99.1199
99.7224
99.1349
100.128
99.1217
100.048
99.0972
102.783
101.32
101.242
100.511
102.827
101.387
101.249
104.059
105.263
103.753
104.834
104.121
106.418
103.753
102.814
100.891
103.962
100.798
102.981
100.923
103.953
105.275
104.336
102.481
108.036
102.515
108.677
105.269
102.867
100.524
101.322
101.185
101.586
101.243
102.992
104.041
104.759
105.095
103.755
105.28
104.032
103.752
102.788
100.803
100.966
103.906
100.955
102.764
103.922
102.814
103.044
100.008
101.171
102.832
99.9787
103.101
102.047
102.694
101.008
101.786
102.047
102.738
101.011
102.092
100.189
100.793
99.1383
102.068
100.188
100.791
102.542
103.942
103.521
103.475
103.412
102.94
103.539
102.797
101.166
103.235
100.055
99.9956
103.663
103.164
102.047
101.949
102.74
101.009
102.751
101.014
102.041
102.099
99.1582
100.216
100.787
100.201
100.787
102.091
99.4824
100.17
98.6951
99.2894
99.4654
100.157
98.7229
99.5081
99.9192
99.0514
99.477
99.4968
99.9718
98.9177
99.1172
98.6162
98.5862
98.0818
99.119
98.6308
98.5917
99.7784
100.932
100.381
101.191
100.342
100.28
99.7755
99.4598
99.3185
100.203
98.8488
100.145
98.7571
99.4283
99.5326
99.601
99.8563
99.0199
99.8625
98.9497
99.5282
99.1072
98.0698
98.7206
98.5903
98.6559
98.5961
99.1003
97.6815
98.0281
97.6078
97.8755
97.6822
98.0383
97.6062
97.0357
98.959
96.9221
107.004
97.1657
98.083
96.9526
97.2747
97.1143
96.7647
96.7638
97.2627
97.1193
96.7641
97.7725
98.5346
98.4331
98.095
98.4104
98.099
97.7246
97.8458
97.8639
98.0385
97.5952
98.0484
97.6062
97.7579
97.0445
97.7688
97.8716
96.9624
98.9595
96.9808
97.0466
97.38
96.7628
97.1215
96.7752
97.1289
96.7661
97.304
95.6553
96.6645
96.4481
96.047
95.4687
97.1473
95.767
94.7854
96.1349
94.058
94.8518
94.9234
96.6359
94.194
94.6668
95.1775
94.2682
94.8366
94.6686
95.1235
94.2801
99.625
98.0552
96.1492
98.4072
96.3105
95.7389
101.47
95.5802
96.0498
95.8645
95.9012
96.0216
95.8578
95.5723
95.0745
94.6559
99.8482
94.3391
96.8026
94.2514
94.9246
94.6915
94.8677
95.1416
94.2691
95.1284
94.2736
94.6782
94.6451
94.1428
94.8493
94.7753
94.639
94.1658
94.8245
94.1655
96.1567
94.4326
93.4197
94.3947
96.5022
94.4141
94.4833
94.9034
94.7881
94.9616
94.488
94.8788
94.7793
95.1782
92.5692
93.6847
96.4462
93.8083
97.6248
94.9113
94.651
94.7807
94.1784
94.829
94.2066
94.8259
94.6667
94.2406
93.3923
100.114
94.5511
96.1373
94.3773
94.4421
94.5154
94.9617
94.9151
94.7265
94.878
94.7744
94.5441
95.9292
95.3667
95.8245
95.4815
95.9316
95.3508
95.8108
96.8059
97.7571
97.2055
97.7713
96.8936
97.9507
97.1642
96.4498
96.1876
96.883
96.556
96.4807
96.1528
96.84
96.2566
96.1204
95.4403
101.569
95.4391
98.1812
96.2447
95.9265
95.4562
95.4067
95.8781
95.3424
95.8103
95.9422
96.8169
97.8943
98.0276
97.3052
98.1659
97.1379
96.8577
96.4714
96.5414
96.2109
96.9585
96.1572
96.84
96.5543
98.2766
96.995
97.4505
96.7438
98.2986
96.8839
97.4329
98.6717
103.871
98.6403
101.395
98.6736
103.194
98.5417
98.1677
97.447
98.2863
97.4056
98.1674
97.4313
98.2399
99.2119
96.8282
96.2999
103.662
96.123
103.735
99.2835
98.3131
96.9401
96.8904
97.5358
96.8893
97.4377
98.33
98.6719
111.804
103.489
98.4388
103.31
98.2867
98.6355
98.1584
97.4003
97.4666
98.2432
97.4369
98.2279
98.2872
95.6931
97.0913
96.0854
96.6295
95.6888
97.0521
96.0866
102.487
120.828
96.2376
94.7867
103.177
91.4814
98.36
96.3837
95.7375
97.0326
96.291
96.5095
95.7145
97.0507
94.2235
111.448
97.7527
91.5935
97.7173
89.1055
93.7821
95.856
96.6289
97.069