/*--------------------------------*- C++ -*----------------------------------*\
| =========                 |                                                 |
| \\      /  F ield         | OpenFOAM: The Open Source CFD Toolbox           |
|  \\    /   O peration     | Version:  5.0                                   |
|   \\  /    A nd           | Web:      www.OpenFOAM.org                      |
|    \\/     M anipulation  |                                                 |
\*---------------------------------------------------------------------------*/
FoamFile
{
    version     2.0;
    format      ascii;
    class       surfaceScalarField;
    location    "2";
    object      phi;
}
// * * * * * * * * * * * * * * * * * * * * * * * * * * * * * * * * * * * * * //

dimensions      [0 3 -1 0 0 0 0];

internalField   nonuniform List<scalar> 
27511
(
-2.71527e-09
3.35413e-09
-6.04448e-11
1.16804e-09
-4.08113e-09
5.44589e-09
4.66754e-09
1.85893e-09
4.32183e-09
-2.26255e-09
-3.58247e-09
-1.08008e-09
1.5758e-10
-4.23687e-09
4.35652e-09
6.1748e-09
2.36685e-09
8.43683e-09
-1.20199e-09
-4.2865e-09
-2.8893e-09
-1.21169e-09
-4.14266e-09
-4.98598e-09
1.03276e-10
1.28145e-09
2.07563e-10
1.37275e-09
-1.98169e-10
-9.48805e-09
7.35776e-11
1.48959e-10
4.40844e-10
-1.30119e-10
-5.33569e-11
2.38935e-10
2.33946e-11
-5.60809e-13
-3.36343e-11
-1.02052e-10
-5.51009e-11
1.49172e-09
9.60726e-11
-3.62306e-11
-2.85694e-10
-2.78191e-10
-4.79289e-10
-4.66808e-10
1.43971e-09
7.62729e-11
-8.95678e-13
1.41298e-09
4.07275e-11
2.23824e-13
1.3955e-09
2.54925e-11
-1.09978e-13
1.3859e-09
1.53843e-11
-1.35272e-13
1.38027e-09
9.50047e-12
4.8698e-14
1.37628e-09
5.75767e-12
1.78303e-13
1.37351e-09
3.51922e-12
1.84196e-14
1.37213e-09
3.05389e-12
-2.01294e-13
1.37144e-09
1.40998e-12
-4.74289e-14
1.37076e-09
7.38993e-13
-1.17701e-12
1.37072e-09
1.54674e-13
-3.1483e-13
1.37031e-09
4.71496e-13
-7.08909e-14
1.37049e-09
5.36261e-13
-1.23897e-12
1.37059e-09
-3.5569e-13
-1.46752e-13
1.3708e-09
-1.35301e-12
1.04622e-12
1.37074e-09
-3.81175e-14
4.2402e-14
1.37092e-09
6.06449e-13
-8.85669e-13
1.371e-09
6.29594e-13
-3.23836e-13
1.37111e-09
5.12586e-13
-6.02558e-13
1.37116e-09
9.65718e-14
-1.61396e-16
1.3712e-09
-2.01273e-13
-1.04093e-12
1.3713e-09
1.71374e-13
-5.01413e-13
1.37061e-09
-8.79422e-13
3.72648e-12
1.37101e-09
-6.46797e-13
2.67008e-12
1.37135e-09
-9.80131e-13
7.58274e-14
1.37202e-09
-2.579e-12
1.87442e-12
1.37159e-09
3.50586e-13
-1.4183e-13
1.37158e-09
2.227e-13
-6.32001e-14
1.3714e-09
3.83388e-13
-8.22977e-14
1.37096e-09
8.38722e-13
-3.32798e-13
1.37307e-09
-3.45907e-12
8.1154e-13
1.3723e-09
5.73329e-13
8.49994e-14
1.37193e-09
5.5134e-14
-3.27656e-13
1.37221e-09
-5.88439e-14
-2.23401e-13
1.37347e-09
2.27421e-12
-1.453e-13
1.37178e-09
3.39826e-12
-1.76689e-12
1.37192e-09
-4.16286e-13
-2.33932e-15
1.37175e-09
2.26636e-13
-5.36323e-14
1.37294e-09
-1.36585e-12
-1.14136e-14
1.37261e-09
2.22843e-13
1.40079e-13
1.37203e-09
-4.45093e-13
8.04794e-13
1.32241e-12
-1.18266e-12
4.03008e-09
2.6554e-09
-7.06765e-10
-5.78775e-09
-5.5768e-09
1.06441e-08
2.85734e-09
-1.3205e-09
-1.71414e-09
-2.76185e-10
1.48589e-09
-6.0997e-09
4.6847e-10
-8.07721e-11
7.51269e-10
-2.86102e-09
1.72205e-09
-2.72884e-09
-2.7535e-10
1.27589e-09
1.88587e-09
6.88309e-10
2.17712e-09
-4.37842e-10
2.91947e-09
-5.34706e-09
-1.52531e-10
-7.06974e-11
6.61866e-11
1.23137e-10
3.39052e-11
-3.13557e-11
-3.77348e-12
2.8369e-12
5.49001e-12
2.68023e-11
1.42713e-09
2.19987e-11
-3.22413e-11
-2.6024e-10
-2.52022e-10
-4.43567e-10
-4.27338e-10
1.2618e-11
3.32979e-11
1.64261e-11
1.39663e-09
1.07859e-10
-1.08963e-12
1.38699e-09
5.07383e-11
-3.52168e-13
1.37988e-09
3.27106e-11
-8.33752e-14
1.37609e-09
1.92571e-11
-5.66141e-14
1.3738e-09
1.18138e-11
3.06417e-15
1.37235e-09
7.22227e-12
1.18491e-14
1.37141e-09
4.49161e-12
-1.53046e-14
1.37083e-09
3.33482e-12
3.30322e-13
1.37053e-09
1.74744e-12
-8.12136e-15
1.37084e-09
5.54091e-13
-7.60783e-14
1.37041e-09
1.74395e-14
6.12583e-13
1.37026e-09
5.98944e-13
8.59992e-14
1.37073e-09
1.13472e-14
1.11037e-13
1.37009e-09
3.21035e-13
1.8439e-14
1.37013e-09
7.13627e-13
-2.04261e-12
1.37112e-09
-1.0887e-12
1.25961e-13
1.37097e-09
1.86247e-13
6.35916e-13
1.37067e-09
1.86415e-13
8.14931e-13
1.37084e-09
2.54352e-13
1.6412e-13
1.37106e-09
-1.02339e-13
4.2741e-14
1.3703e-09
-7.80368e-13
1.41313e-12
1.37075e-09
-8.33027e-14
-1.24275e-13
1.37122e-09
3.33534e-13
-1.60858e-12
1.37154e-09
5.28397e-13
-1.43597e-12
1.37205e-09
-3.4797e-12
2.05993e-12
1.37225e-09
-4.29695e-12
1.5834e-12
1.3715e-09
1.17933e-12
-2.15179e-14
1.37198e-09
-8.51412e-14
-1.11789e-13
1.37231e-09
1.85794e-13
-7.91153e-14
1.37263e-09
1.24861e-13
4.42828e-13
1.37091e-09
-1.11492e-12
-5.84618e-13
1.37136e-09
2.14755e-13
-4.65982e-14
1.37142e-09
5.42433e-14
-2.56286e-14
1.37112e-09
2.85227e-13
-1.19639e-14
1.37184e-09
9.67333e-13
6.19118e-13
1.37336e-09
2.16334e-13
1.68818e-12
1.37263e-09
-2.32985e-13
5.67066e-13
1.37269e-09
1.24127e-13
6.85316e-14
1.37217e-09
-1.80242e-12
9.70909e-13
1.37208e-09
4.09142e-13
-9.00077e-14
1.37243e-09
1.46069e-13
-9.28517e-13
-1.78519e-13
1.23481e-12
-1.74148e-09
-5.59494e-09
2.27218e-10
7.30018e-09
2.52211e-09
2.07104e-10
-1.28225e-08
6.45596e-09
1.91312e-09
-1.01666e-10
1.64966e-09
1.76224e-10
-5.28013e-10
-2.54301e-09
2.34881e-09
-2.09571e-10
9.31783e-10
3.72179e-11
-2.38574e-09
4.6201e-09
7.53652e-10
-3.1163e-10
-1.83271e-10
-2.3891e-09
3.77558e-10
-2.66745e-09
-1.98927e-10
-1.25345e-09
-1.34134e-09
4.33046e-09
4.67071e-10
3.62428e-10
2.15207e-10
-4.32792e-10
-4.87888e-10
-1.12519e-09
-1.7631e-11
1.66793e-09
7.03502e-11
2.32909e-10
-2.73416e-11
-1.66007e-10
-1.09911e-10
-1.18446e-10
9.06545e-12
-8.07683e-12
8.02594e-11
3.71981e-11
-1.80511e-10
1.866e-10
1.4131e-11
1.77948e-12
1.32414e-09
5.20637e-11
-1.99541e-11
-2.36464e-10
-2.35707e-10
-3.89166e-10
-3.8704e-10
1.34555e-09
3.13062e-11
-1.92673e-12
1.35634e-09
2.12578e-11
7.06744e-13
1.36273e-09
1.34078e-11
-4.98717e-13
1.36602e-09
8.69243e-12
-1.38276e-13
1.36763e-09
5.55448e-12
8.52439e-14
1.36852e-09
3.57303e-12
4.33443e-14
1.36974e-09
1.9934e-12
1.33485e-13
1.37005e-09
1.59005e-12
-1.21484e-13
1.36981e-09
1.29554e-12
-4.50901e-13
1.36948e-09
1.14132e-12
-7.33537e-13
1.37016e-09
3.5637e-14
-6.58563e-14
1.37036e-09
-4.52147e-15
-1.29648e-13
1.3709e-09
-7.86162e-14
-6.99722e-14
1.37057e-09
1.20128e-13
9.8277e-13
1.36995e-09
-1.05838e-13
-2.95112e-13
1.37004e-09
-4.66801e-13
6.33249e-13
1.37051e-09
-2.62836e-13
4.00572e-14
1.37051e-09
1.57532e-13
1.74949e-13
1.37037e-09
-8.76485e-14
1.95813e-13
1.37109e-09
6.87673e-13
-2.11617e-12
1.37174e-09
1.04468e-12
-1.71206e-12
1.37169e-09
4.87683e-13
-2.97122e-14
1.37271e-09
6.61867e-13
-1.08702e-12
1.37139e-09
-8.69883e-14
-2.01409e-12
1.37095e-09
5.40362e-14
-3.84181e-12
1.37176e-09
4.10754e-13
1.74095e-14
1.37183e-09
-1.5182e-13
4.95136e-14
1.37199e-09
1.34266e-13
-4.83187e-14
1.37191e-09
-3.69606e-14
2.8302e-13
1.37155e-09
-3.04773e-13
-3.95849e-13
1.37165e-09
1.24424e-12
-1.08898e-12
1.37145e-09
2.96253e-13
-1.24916e-14
1.37142e-09
9.74993e-14
2.57026e-13
1.37161e-09
5.60566e-13
2.46718e-13
1.37336e-09
-1.52426e-12
1.03579e-14
1.37302e-09
4.91138e-13
-3.58016e-13
1.3729e-09
9.4202e-14
1.6704e-13
1.37204e-09
1.78312e-13
-1.1076e-12
1.37196e-09
5.44711e-13
-3.75513e-14
1.37181e-09
2.38025e-13
6.02491e-14
-1.59809e-12
6.65681e-13
1.11914e-08
-1.64977e-09
4.44491e-09
-1.01453e-09
-1.70346e-08
2.06034e-09
2.19315e-09
2.08506e-09
-2.28361e-09
1.72075e-08
1.91685e-09
-8.74545e-09
-7.15096e-09
5.93789e-10
-2.09666e-09
-5.78917e-10
1.66738e-10
-6.70778e-10
-1.29689e-09
1.01611e-09
-1.62763e-10
-3.09211e-09
5.42638e-09
-2.06214e-09
1.52665e-09
2.17169e-09
5.38441e-10
1.09656e-09
-1.71669e-09
-1.41426e-09
-8.11991e-10
-1.66254e-09
-5.1417e-09
1.70473e-09
-6.4753e-10
1.69877e-09
-1.39441e-10
9.28333e-11
1.99394e-09
-4.74878e-09
2.80145e-09
8.05019e-11
5.44089e-10
1.25168e-10
-6.99277e-11
-6.79829e-10
5.11318e-11
-1.46583e-11
-3.98741e-11
-1.4227e-10
1.45671e-10
-2.98114e-11
1.82267e-10
1.43917e-12
-9.36535e-12
-2.87141e-11
-5.58893e-11
-5.39842e-11
-5.94188e-12
1.30662e-09
7.48709e-12
-2.35158e-11
-2.33292e-10
-2.3194e-10
-3.85654e-10
-3.87613e-10
1.3317e-09
8.53685e-12
-2.21043e-12
1.34647e-09
6.2065e-12
3.38911e-13
1.35488e-09
4.46809e-12
5.67811e-13
1.36057e-09
2.84312e-12
1.90683e-13
1.3642e-09
1.98383e-12
-4.6825e-14
1.3665e-09
1.30819e-12
-2.08004e-14
1.36771e-09
8.37318e-13
-4.04909e-14
1.36863e-09
5.85995e-13
1.19264e-13
1.36923e-09
2.62152e-13
4.86947e-13
1.37e-09
4.93378e-13
-6.72377e-14
1.36997e-09
2.41857e-13
-1.19358e-13
1.37016e-09
-2.4615e-14
-1.18799e-13
1.37013e-09
5.85987e-14
-4.44419e-14
1.37042e-09
-2.56572e-13
1.56439e-13
1.37043e-09
2.9874e-14
-8.59098e-14
1.37075e-09
-2.26069e-15
-7.17e-13
1.37075e-09
-1.08018e-13
-8.44106e-14
1.37086e-09
1.02749e-15
1.24099e-13
1.37124e-09
8.32074e-13
-1.23521e-12
1.37188e-09
1.14349e-12
-1.01959e-12
1.37095e-09
5.15825e-13
1.52128e-12
1.37118e-09
4.63503e-13
-1.35406e-13
1.37116e-09
3.70337e-13
3.815e-13
1.37136e-09
-2.31645e-13
1.6866e-14
1.37147e-09
-4.13545e-14
4.79724e-14
1.37184e-09
3.66271e-13
-2.66122e-13
1.37176e-09
2.47201e-14
-4.83389e-14
1.37191e-09
1.2991e-13
-8.86647e-14
1.37214e-09
-1.44071e-13
-6.76232e-14
1.37184e-09
-3.72496e-13
4.03673e-13
1.37174e-09
8.09559e-13
5.83565e-13
1.37204e-09
4.74688e-14
-1.5673e-14
1.37217e-09
-6.20427e-13
6.20172e-13
1.37239e-09
6.58254e-13
-2.85976e-13
1.37192e-09
-1.51777e-12
4.91387e-13
1.37246e-09
-2.43346e-14
-5.52996e-15
1.37269e-09
8.69987e-14
-2.03514e-13
1.37261e-09
1.30914e-12
-1.03387e-12
1.37149e-09
1.6744e-12
4.36351e-17
1.37184e-09
-6.27196e-14
-3.94939e-14
-1.86643e-12
4.81675e-13
4.39209e-09
5.47699e-09
-5.49877e-09
5.06769e-09
1.24819e-09
3.26194e-09
-1.67976e-09
-1.12732e-09
4.95079e-10
1.06037e-09
-9.58199e-09
-2.10643e-09
3.80691e-10
-1.42521e-09
-1.31075e-09
1.08673e-08
-1.43421e-09
1.26965e-09
-2.3041e-09
-1.2706e-09
8.65208e-10
-1.25914e-09
-1.18594e-09
4.27243e-09
-2.69255e-09
2.15359e-09
1.39014e-10
2.20031e-09
-5.97063e-09
1.47771e-09
1.36543e-09
-6.34386e-10
-7.6135e-09
-3.46269e-09
1.03451e-08
-2.35671e-10
4.12896e-11
-4.33663e-10
1.00086e-09
-3.72819e-10
-2.59944e-11
-2.50214e-11
-2.11839e-11
8.12778e-12
6.40719e-11
-3.12576e-11
1.84759e-10
-1.65691e-12
1.22635e-12
-3.18868e-11
-6.06416e-11
-6.15355e-11
9.93489e-13
1.3041e-09
-2.91065e-11
-2.32839e-11
-2.34282e-10
-2.31668e-10
-3.9152e-10
-3.86703e-10
1.32808e-09
-1.35365e-11
-1.79665e-12
1.3431e-09
-9.22146e-12
4.68134e-13
1.35206e-09
-4.56258e-12
9.82678e-14
1.35936e-09
-5.21592e-12
7.82959e-13
1.36337e-09
-2.03949e-12
2.5301e-14
1.36574e-09
-1.43743e-12
3.82004e-13
1.36729e-09
-9.74113e-13
2.83588e-13
1.36834e-09
-4.07274e-13
-2.43441e-14
1.36874e-09
9.86999e-14
-1.85899e-13
1.36961e-09
-3.32851e-13
7.45023e-15
1.3698e-09
-9.16143e-14
2.00173e-13
1.36996e-09
-9.91458e-14
-2.59155e-14
1.37028e-09
1.54521e-13
-3.48583e-13
1.37058e-09
-1.98327e-13
-2.95383e-13
1.37074e-09
-1.13726e-13
4.11681e-14
1.37096e-09
-2.79264e-13
1.33728e-13
1.37114e-09
-3.92949e-13
1.69869e-13
1.37132e-09
-7.39797e-14
-3.72672e-14
1.37121e-09
9.31777e-14
9.22421e-13
1.37075e-09
2.85318e-13
1.39101e-12
1.37084e-09
3.39133e-13
1.59299e-13
1.37166e-09
-9.16103e-14
-1.99174e-13
1.37102e-09
1.63967e-12
-5.61969e-13
1.37136e-09
1.4792e-13
-6.53155e-13
1.37146e-09
-7.72522e-14
-1.95923e-15
1.37165e-09
1.7515e-13
6.43297e-14
1.37176e-09
-4.57322e-14
1.40189e-14
1.37141e-09
-5.66875e-13
1.10012e-12
1.3715e-09
-1.19728e-13
-5.97922e-14
1.37168e-09
-3.03414e-13
-2.06392e-13
1.37222e-09
-7.31594e-14
3.85484e-13
1.37212e-09
2.64265e-13
-7.94416e-14
1.37227e-09
4.09745e-13
-1.15425e-12
1.3726e-09
2.72946e-13
8.92182e-14
1.37205e-09
-4.56191e-13
-4.81412e-13
1.37243e-09
1.39208e-13
-5.21369e-13
1.37291e-09
-4.21466e-13
4.47211e-14
1.37293e-09
-1.39781e-12
2.70161e-12
1.37145e-09
3.36968e-12
-2.02233e-13
1.37172e-09
-7.89851e-13
4.62436e-13
-1.73093e-13
-8.94649e-13
1.62453e-09
4.6842e-09
-5.92154e-09
4.11212e-09
-1.10997e-09
3.47649e-09
-1.90861e-10
3.16854e-09
1.54925e-09
-2.90244e-09
-4.45267e-10
2.64848e-10
4.66296e-10
-9.97517e-10
7.11641e-10
4.10092e-10
1.02406e-10
-1.35475e-09
-3.76953e-11
8.79944e-10
-4.72954e-11
2.67181e-09
-7.80983e-10
-7.0828e-09
5.34576e-09
5.68418e-10
-4.83435e-10
-1.91476e-10
-4.50562e-10
-1.75127e-09
1.47986e-10
1.69439e-10
1.88441e-09
-8.07114e-11
8.58345e-11
-5.31356e-11
-9.96858e-11
1.47698e-10
-3.41464e-11
1.89232e-10
-1.46888e-11
1.36426e-11
9.90357e-12
-3.41551e-11
-6.46758e-11
-6.51116e-11
1.32262e-09
-4.22913e-11
-2.57408e-11
-2.3708e-10
-2.42875e-10
-3.95237e-10
-4.0845e-10
1.33942e-09
-2.81895e-11
-2.05579e-12
1.34908e-09
-1.92025e-11
3.57042e-13
1.3571e-09
-1.23771e-11
-1.7765e-13
1.36093e-09
-8.25793e-12
-7.72658e-13
1.36413e-09
-5.23288e-12
9.87853e-15
1.36641e-09
-3.35329e-12
-3.53956e-13
1.36781e-09
-2.04806e-12
-3.21474e-13
1.3687e-09
-1.26629e-12
1.09156e-14
1.36944e-09
-1.14128e-14
-5.81646e-13
1.36962e-09
-4.66058e-13
3.61984e-15
1.36983e-09
-7.12482e-14
-1.72957e-13
1.37045e-09
-3.11115e-12
2.45554e-12
1.37031e-09
-8.71034e-15
3.60157e-13
1.37067e-09
-8.92777e-13
3.97336e-13
1.37055e-09
1.47656e-13
-7.75755e-14
1.37018e-09
-2.57182e-13
4.1628e-13
1.37138e-09
9.56518e-13
-2.48011e-12
1.37146e-09
-4.16262e-14
-3.70538e-14
1.37153e-09
1.94616e-13
-9.85486e-14
1.37137e-09
7.17787e-13
-2.0854e-13
1.37019e-09
4.12737e-12
-2.5357e-12
1.37063e-09
-4.93804e-13
3.64083e-14
1.37168e-09
-8.01103e-13
1.45589e-12
1.37154e-09
1.10547e-13
2.44724e-13
1.37139e-09
2.13471e-13
-8.02259e-14
1.37122e-09
1.19383e-12
-7.91641e-13
1.37144e-09
-2.83185e-13
7.34036e-14
1.37213e-09
-1.21728e-13
-1.07674e-12
1.37189e-09
2.16157e-13
-4.56925e-14
1.3719e-09
-5.15351e-13
2.40665e-13
1.37243e-09
-7.12894e-13
1.54268e-13
1.37236e-09
2.47043e-13
1.24082e-13
1.37215e-09
6.23575e-13
3.37095e-14
1.37224e-09
3.04364e-13
-9.24793e-14
1.37164e-09
1.10324e-13
5.58883e-14
1.37157e-09
-7.61347e-14
3.14004e-13
1.37142e-09
-1.48085e-13
-1.10871e-13
1.37145e-09
1.37526e-12
-2.789e-12
1.37347e-09
1.18307e-12
1.76867e-13
1.37309e-09
-5.8627e-13
1.82434e-13
-8.2901e-13
1.85491e-12
-3.17801e-09
1.52544e-09
1.46797e-08
-2.66612e-09
-3.61795e-09
-6.70015e-10
-1.06318e-08
8.47496e-11
6.23681e-09
1.13216e-09
-2.58508e-09
2.09246e-09
2.42648e-09
-6.9521e-09
5.01823e-09
-1.75356e-09
7.86438e-10
-2.90567e-09
4.5081e-09
-6.35308e-10
-7.64417e-11
1.18752e-09
-2.19715e-09
-6.28227e-10
1.71429e-09
-5.90643e-10
1.99461e-09
-1.02672e-09
-6.02291e-10
2.25042e-10
-1.32472e-10
7.04572e-11
-3.99953e-11
-4.84408e-11
1.50451e-10
-3.21151e-11
7.26536e-12
1.7979e-10
-4.65249e-12
7.82682e-12
-3.36477e-11
-6.00451e-11
-6.44218e-11
1.3428e-09
-5.43847e-11
-2.58952e-11
-2.4419e-10
-2.45146e-10
-4.07344e-10
-4.08097e-10
1.35374e-09
-3.69928e-11
-2.09933e-12
1.3595e-09
-2.53013e-11
3.53884e-13
1.36354e-09
-1.63371e-11
-6.58332e-14
1.36593e-09
-1.06437e-11
9.63517e-15
1.36748e-09
-6.76576e-12
-3.78327e-15
1.36844e-09
-4.2907e-12
-7.63039e-15
1.3691e-09
-2.67745e-12
-1.93658e-14
1.3695e-09
-1.60201e-12
-2.34037e-14
1.36963e-09
-5.65071e-13
4.62454e-13
1.37008e-09
-5.33561e-13
-3.24939e-13
1.37052e-09
-7.04312e-13
2.50257e-13
1.37017e-09
-3.29248e-13
-2.37475e-12
1.37057e-09
-2.98322e-13
-5.38977e-14
1.37042e-09
-9.24636e-14
-5.83523e-13
1.37074e-09
-1.26755e-13
1.78031e-14
1.37113e-09
1.47255e-13
-7.24622e-13
1.3704e-09
-5.6092e-13
2.32008e-12
1.37082e-09
-2.51028e-13
-1.43682e-13
1.37133e-09
-2.83e-13
3.78995e-14
1.36981e-09
5.20567e-12
-2.8937e-12
1.37124e-09
7.47845e-13
2.02108e-12
1.37164e-09
-8.56122e-13
2.55141e-14
1.37132e-09
-1.22188e-13
-2.89698e-13
1.37141e-09
4.57852e-14
4.12728e-14
1.37151e-09
-1.35296e-14
1.8968e-13
1.37183e-09
7.7531e-14
8.63118e-13
1.37197e-09
9.05033e-14
-4.66831e-13
1.37184e-09
4.7707e-14
2.23177e-14
1.37194e-09
-2.42932e-13
4.02035e-13
1.3719e-09
-2.70667e-14
-4.01644e-13
1.37229e-09
-1.4025e-12
3.41592e-13
1.37278e-09
-1.76714e-13
-2.58339e-14
1.3718e-09
1.50094e-12
1.38474e-13
1.37188e-09
2.07644e-13
4.7116e-14
1.37153e-09
3.78172e-13
1.06791e-13
1.37169e-09
-2.63066e-13
4.7683e-14
1.37155e-09
-7.43974e-15
1.29916e-14
1.37201e-09
-7.82278e-13
1.71843e-12
1.3725e-09
6.87092e-13
1.6889e-14
1.37267e-09
-1.03779e-13
-6.47673e-13
-1.80838e-13
-1.37402e-12
-6.64593e-10
8.02842e-10
1.70367e-08
-2.03101e-09
1.33642e-09
3.16758e-09
2.43108e-08
1.65814e-08
-5.40352e-08
-4.20981e-10
-3.18235e-09
1.20689e-11
-6.3021e-09
3.62061e-09
5.14235e-09
-3.12554e-09
-4.63653e-10
2.56543e-10
-7.87028e-09
4.79229e-10
-9.64249e-10
1.83753e-08
-3.28213e-09
-2.66794e-10
3.11117e-10
-1.52465e-09
2.57506e-09
-7.59168e-10
-1.64629e-09
-5.21955e-09
3.82e-09
2.91689e-09
1.35249e-09
-1.16258e-08
3.53645e-09
9.90492e-10
-3.89527e-09
-3.07096e-09
-3.21215e-09
9.18789e-09
3.18829e-10
1.14406e-09
9.60302e-10
1.23052e-09
-3.65371e-09
-8.92816e-11
6.3158e-11
-2.67168e-11
-8.09422e-11
1.33783e-10
-3.26743e-11
1.94876e-12
1.77709e-10
-9.47807e-12
1.24234e-11
-3.19059e-11
-6.00457e-11
-5.79769e-11
1.36494e-09
-9.16733e-11
-2.28585e-11
-2.46704e-10
-2.4493e-10
-4.08275e-10
-4.04871e-10
1.37209e-09
-4.2231e-11
-1.92392e-12
1.37347e-09
-2.72759e-11
5.85938e-13
1.37306e-09
-1.59304e-11
9.00832e-15
1.37213e-09
-9.792e-12
8.89789e-14
1.37131e-09
-5.94706e-12
8.79744e-15
1.37135e-09
-4.71091e-12
3.93168e-13
1.37094e-09
-2.21204e-12
-2.70266e-14
1.37032e-09
-9.3125e-13
-2.18426e-14
1.37069e-09
-1.3315e-12
4.45568e-13
1.37003e-09
-1.88356e-13
3.61394e-13
1.37049e-09
-7.43747e-13
-3.66813e-13
1.37065e-09
-4.3832e-13
1.17675e-14
1.37067e-09
-8.20864e-15
-2.55393e-13
1.37066e-09
-6.1663e-13
6.00938e-13
1.37088e-09
-2.62211e-13
-1.94466e-14
1.37045e-09
-7.45918e-14
7.24981e-13
1.37056e-09
-4.34782e-13
-1.68028e-13
1.37065e-09
-1.24777e-13
-1.42995e-13
1.36956e-09
1.15316e-12
-2.77822e-13
1.37136e-09
5.16609e-13
2.95701e-12
1.37152e-09
6.83884e-13
-2.28501e-14
1.37208e-09
-3.4984e-12
2.14839e-12
1.37182e-09
1.3458e-13
7.60014e-14
1.3714e-09
7.74853e-13
-2.45794e-13
1.37157e-09
-3.83378e-14
-8.09827e-14
1.37183e-09
4.60296e-15
-1.26688e-13
1.37168e-09
-2.88978e-14
3.25273e-13
1.37171e-09
1.17465e-14
5.25024e-14
1.372e-09
-1.06757e-13
-3.71867e-13
1.37226e-09
-1.86974e-13
-5.32759e-14
1.37182e-09
-3.54722e-13
-5.63763e-13
1.37144e-09
5.73434e-14
1.82172e-13
1.37242e-09
6.97385e-13
-1.49997e-13
1.3718e-09
1.56813e-13
7.03544e-13
1.3722e-09
1.99603e-13
-1.97663e-13
1.37195e-09
2.0018e-14
-9.55293e-15
1.37149e-09
4.74674e-13
-8.21596e-16
1.37203e-09
-1.12443e-12
-1.83293e-13
1.37199e-09
4.66398e-13
2.67073e-13
1.37315e-09
-2.67337e-12
1.41655e-12
-2.91706e-13
-4.90098e-13
-1.97446e-09
2.23896e-09
7.29271e-10
1.48245e-10
3.29087e-09
-1.93254e-09
-9.28138e-09
7.7748e-09
9.55205e-10
-2.16346e-10
-7.27853e-09
1.11284e-08
-3.99843e-10
-5.25328e-09
3.10338e-10
7.5411e-10
-2.55115e-10
-1.39485e-10
7.637e-11
-3.67147e-10
6.85376e-10
-5.13905e-10
2.44427e-09
2.46052e-09
-7.91595e-10
-3.59928e-09
9.29339e-10
4.37578e-09
-3.40862e-10
1.25464e-09
-6.21889e-09
-1.17668e-10
-1.4784e-11
6.9496e-12
9.02723e-11
3.52299e-11
1.46624e-09
-6.33609e-11
-3.24416e-11
-2.50228e-10
-2.77069e-10
-4.19056e-10
-4.79748e-10
1.50147e-11
7.48892e-12
2.27318e-11
1.04294e-11
1.42509e-09
-4.9374e-11
-1.19613e-12
1.40602e-09
-2.28915e-11
-2.86778e-13
1.39243e-09
-1.35613e-11
-1.3558e-13
1.38411e-09
-7.49737e-12
-1.12828e-13
1.37874e-09
-4.33177e-12
-8.49171e-14
1.37563e-09
-2.74323e-12
-7.72733e-14
1.37323e-09
-1.88134e-12
-4.11382e-13
1.37172e-09
-4.74133e-13
-1.97426e-13
1.37148e-09
-5.23215e-13
-1.29635e-13
1.3709e-09
-4.18277e-13
-2.97232e-13
1.37098e-09
-1.21146e-13
-9.34856e-14
1.37068e-09
1.32937e-14
-4.03256e-13
1.37046e-09
-4.60143e-14
-1.19776e-13
1.37035e-09
5.30746e-13
-3.65613e-13
1.37063e-09
-2.31548e-13
-5.98996e-13
1.37041e-09
7.35417e-14
-4.86123e-14
1.37098e-09
1.11226e-13
-6.96611e-13
1.37089e-09
-3.34834e-13
6.05616e-14
1.37057e-09
-2.05322e-13
4.76669e-13
1.37154e-09
6.64786e-14
1.82481e-13
1.3717e-09
3.18568e-13
1.12816e-13
1.37173e-09
1.25786e-13
6.00192e-13
1.3708e-09
-3.25581e-13
-2.17862e-12
1.37103e-09
1.67236e-13
-1.92455e-13
1.37171e-09
8.9789e-13
-7.40559e-13
1.37146e-09
4.88145e-14
2.27002e-13
1.37155e-09
3.24552e-14
-5.84229e-14
1.3716e-09
-3.6606e-14
1.4835e-14
1.37177e-09
-1.85471e-13
8.55418e-14
1.3721e-09
-3.92189e-13
9.93093e-16
1.37191e-09
7.6509e-13
-7.13128e-13
1.37207e-09
-3.98843e-13
-7.70879e-14
1.37257e-09
-4.08313e-13
4.6438e-16
1.37225e-09
2.22502e-12
-1.17642e-12
1.37163e-09
2.22809e-12
-1.42188e-12
1.37163e-09
2.12764e-13
2.16212e-14
1.37238e-09
-1.15047e-12
4.41309e-13
1.3728e-09
-2.13921e-13
2.82657e-13
1.37162e-09
3.69777e-13
-2.93863e-13
1.37186e-09
3.68469e-13
-1.34366e-13
1.37206e-09
1.07225e-12
-3.93464e-12
-1.52445e-12
-5.68059e-14
1.04388e-09
-1.18829e-09
6.75272e-09
-6.41733e-09
8.603e-09
3.81082e-09
-1.82272e-11
-5.57176e-09
-1.02985e-08
3.51138e-09
3.07449e-08
-3.07808e-08
-2.08234e-09
-2.50021e-09
-1.01285e-10
1.77121e-09
1.38121e-08
-4.36331e-08
1.35989e-08
1.91316e-08
3.58783e-09
2.00204e-09
1.46428e-11
2.42675e-09
1.06559e-08
-2.87315e-08
9.63462e-09
4.90901e-10
-2.04631e-10
-5.12399e-10
4.65602e-10
2.1402e-10
-6.30288e-10
5.8761e-10
3.51929e-10
2.21397e-09
-2.19763e-10
4.30658e-09
-1.40618e-09
-1.48437e-09
-1.37198e-09
-5.12409e-10
-1.85023e-09
-1.23166e-10
9.56373e-11
-3.45806e-10
1.27078e-09
5.63673e-10
1.67101e-09
-3.15965e-09
-4.85816e-11
3.95184e-12
2.62429e-10
-5.85495e-12
3.90992e-11
-6.67306e-11
-7.4484e-11
-1.2215e-10
6.17553e-12
2.13048e-12
4.01529e-12
1.53252e-09
-3.79169e-11
-3.0058e-10
-2.96291e-10
-5.02861e-10
-4.99854e-10
1.46091e-09
-1.1945e-12
1.42412e-09
-3.63348e-13
1.40276e-09
-1.12224e-13
1.38961e-09
2.64413e-14
1.38159e-09
-1.96649e-13
1.3771e-09
-1.67514e-13
1.37463e-09
-1.09153e-13
1.37286e-09
-1.02523e-13
1.37172e-09
4.03936e-14
1.37126e-09
1.26492e-12
1.37117e-09
2.8415e-13
1.37086e-09
4.65233e-13
1.37014e-09
1.32941e-12
1.37055e-09
6.66637e-13
1.37044e-09
1.2464e-13
1.3707e-09
3.64015e-14
1.37082e-09
2.47245e-13
1.37076e-09
-4.97975e-13
1.37096e-09
-2.53638e-13
1.37107e-09
-1.23228e-14
1.37165e-09
1.10977e-12
1.3717e-09
4.76469e-13
1.37145e-09
-2.07259e-12
1.37062e-09
-1.26598e-12
1.37125e-09
9.93211e-13
1.37155e-09
-6.44514e-14
1.37171e-09
2.31022e-13
1.37162e-09
4.25142e-14
1.37157e-09
-1.22282e-13
1.37162e-09
-3.98369e-13
1.37229e-09
7.36137e-13
1.37198e-09
1.36904e-13
1.3722e-09
9.64004e-14
1.37316e-09
1.34665e-12
1.37187e-09
1.99947e-13
1.37223e-09
-2.51858e-14
1.37188e-09
-4.77951e-13
1.37208e-09
-3.70144e-13
1.37262e-09
5.44063e-14
1.37321e-09
-2.26483e-13
1.37189e-09
2.62311e-12
1.15535e-13
-6.62293e-09
1.22607e-09
1.17705e-08
4.10894e-09
3.84761e-09
-1.29589e-09
-3.95185e-09
5.48264e-09
-1.60875e-09
1.87004e-09
-8.7844e-10
-9.14979e-09
-7.26911e-09
5.03899e-09
4.12367e-09
-1.37978e-08
1.36585e-08
3.15645e-09
1.35303e-09
-6.95059e-10
-3.57535e-09
7.8748e-09
6.60169e-10
-1.23731e-10
-8.6262e-09
-5.84813e-09
7.94039e-10
8.51072e-10
-2.50987e-10
1.00562e-09
-1.00781e-09
-2.08411e-10
2.67844e-11
6.87302e-10
6.04365e-11
-5.02736e-11
-1.19978e-10
-2.13999e-10
-1.32226e-10
2.46679e-09
1.41342e-10
3.63746e-11
-6.60771e-10
-6.45217e-10
-6.60801e-10
-6.45219e-10
2.38566e-09
1.17758e-10
7.69336e-13
2.3466e-09
6.18558e-11
-1.40702e-14
2.32031e-09
3.88795e-11
-4.98432e-14
2.30606e-09
2.34192e-11
-4.58963e-13
2.29779e-09
1.4421e-11
-4.55958e-13
2.29149e-09
8.6237e-12
-3.9217e-13
2.28735e-09
5.35102e-12
1.17534e-13
2.28526e-09
3.27304e-12
2.65716e-13
2.28421e-09
2.16483e-12
-9.35772e-14
2.28317e-09
1.39033e-12
-3.83673e-13
2.28306e-09
4.12676e-13
3.02272e-13
2.2825e-09
7.09452e-13
-1.74637e-13
2.28283e-09
8.8293e-13
-1.15702e-13
2.28281e-09
-6.75446e-13
1.59403e-13
2.28318e-09
1.60973e-12
-8.75646e-13
2.28314e-09
1.77465e-13
-7.44177e-14
2.28341e-09
-1.44192e-12
9.90004e-13
2.28351e-09
-2.12886e-12
2.58608e-13
2.2838e-09
-1.11386e-12
4.09288e-13
2.28402e-09
1.05032e-13
-6.83532e-15
2.28356e-09
-4.61919e-13
3.93026e-13
2.28372e-09
2.53611e-13
-3.25604e-13
2.28277e-09
5.07901e-12
-1.2189e-12
2.28318e-09
4.03085e-12
-2.9721e-12
2.28399e-09
-1.1018e-12
-5.00449e-13
2.28516e-09
5.68475e-13
5.63406e-13
2.28449e-09
5.89376e-13
8.62961e-14
2.28423e-09
5.20952e-13
2.71644e-14
2.28376e-09
5.65059e-13
6.32042e-14
2.28322e-09
-1.3175e-12
1.07424e-12
2.28618e-09
-6.58762e-13
-2.10431e-12
2.28533e-09
9.56162e-13
-1.24118e-13
2.28466e-09
1.74163e-13
-4.24679e-13
2.28511e-09
-1.13706e-13
-6.62026e-14
2.28697e-09
1.70118e-12
-8.38263e-14
2.28443e-09
3.90931e-12
-3.26299e-12
2.28471e-09
-6.7505e-13
-1.68353e-14
2.28423e-09
1.20459e-13
3.37371e-13
2.286e-09
-1.99452e-12
-7.39651e-14
2.28556e-09
2.57771e-13
1.76186e-13
2.28446e-09
7.8996e-13
9.12682e-13
-5.73021e-13
-4.49645e-13
5.08003e-10
-1.32682e-08
-6.42355e-10
1.58014e-08
-2.25242e-09
-6.78708e-11
-3.35777e-09
-1.58366e-08
-3.58652e-10
1.15686e-09
1.84638e-08
-3.10638e-09
3.68633e-09
-6.46725e-11
5.27392e-09
-1.07744e-09
-4.71176e-09
1.21302e-08
-2.68143e-09
-7.41643e-09
6.61964e-09
-1.31725e-08
4.52046e-09
-3.23765e-09
-8.85015e-10
-5.82886e-10
2.38455e-09
-5.83318e-10
2.90432e-09
-3.65307e-10
-3.94747e-10
6.81866e-11
2.3928e-11
1.78819e-10
4.89121e-10
-1.44062e-10
-2.80596e-12
-1.07221e-11
8.71266e-12
-3.40929e-12
1.52286e-10
2.36873e-09
4.24871e-11
3.22315e-11
-6.14973e-10
-5.94403e-10
-6.14973e-10
-5.94352e-10
2.09502e-11
4.24808e-11
2.09459e-11
2.32126e-09
1.632e-10
9.81114e-13
2.30686e-09
7.56456e-11
3.2214e-13
2.29653e-09
4.9135e-11
4.95849e-14
2.29098e-09
2.8941e-11
3.38807e-14
2.28766e-09
1.78043e-11
-5.10251e-15
2.28552e-09
1.08332e-11
-9.36672e-15
2.28419e-09
6.71996e-12
-9.61561e-16
2.28327e-09
4.52571e-12
6.55114e-14
2.28291e-09
2.93012e-12
-3.20635e-13
2.28333e-09
9.54756e-13
4.96272e-14
2.28255e-09
2.72652e-12
-8.00508e-13
2.28243e-09
1.04307e-12
4.83877e-16
2.28309e-09
-2.38845e-13
6.99375e-13
2.2821e-09
5.21941e-13
-4.48262e-14
2.28232e-09
-2.10906e-12
1.60328e-12
2.28383e-09
-2.88192e-12
1.82271e-12
2.28345e-09
3.89897e-13
-6.56367e-13
2.28288e-09
2.37771e-13
-8.25539e-13
2.28316e-09
-9.20769e-13
-1.54435e-13
2.28346e-09
9.08331e-14
-8.01306e-14
2.28227e-09
4.57496e-12
-2.27722e-12
2.28283e-09
-6.69022e-14
-2.14193e-13
2.28392e-09
6.64194e-13
1.87614e-12
2.2844e-09
8.26463e-13
1.43707e-12
2.28521e-09
-2.69543e-12
2.98165e-12
2.28531e-09
1.42395e-12
7.68039e-13
2.28425e-09
1.49493e-12
2.59121e-13
2.28477e-09
-7.60657e-14
8.90474e-14
2.28531e-09
5.48684e-14
7.84959e-15
2.28566e-09
-4.78017e-13
-6.46213e-13
2.28321e-09
-8.32309e-13
2.13577e-12
2.28368e-09
4.14072e-13
1.16206e-13
2.28369e-09
2.26795e-13
-5.00004e-15
2.28328e-09
3.8431e-13
-3.60721e-14
2.28449e-09
1.3684e-12
-1.90186e-13
2.28668e-09
1.88837e-13
3.26752e-12
2.28564e-09
1.4809e-12
-5.06214e-13
2.28576e-09
1.80968e-13
-7.52781e-14
2.28496e-09
7.18291e-13
-9.11139e-13
2.28475e-09
6.01805e-13
-1.99487e-13
2.28521e-09
1.87489e-13
-7.77006e-13
-2.71947e-13
2.32402e-13
3.85429e-09
-5.56019e-09
4.94511e-09
-1.70786e-10
-7.29407e-10
-6.83291e-10
-2.59624e-10
-7.88465e-10
8.96584e-10
2.409e-08
8.58932e-10
-2.52327e-09
1.56988e-09
-2.48919e-08
-1.76791e-09
-2.5578e-09
1.14475e-08
-5.25645e-09
-2.65015e-10
-1.60037e-09
2.81597e-09
3.54528e-10
6.64153e-09
-2.04731e-10
5.03245e-10
-1.49275e-10
-8.33776e-10
2.40356e-09
1.41291e-10
2.39497e-09
1.8533e-09
-1.04353e-08
8.7355e-09
-8.14589e-11
-6.82682e-10
4.57161e-09
-2.10235e-09
-4.25308e-09
-2.554e-09
-4.49886e-09
-6.98726e-09
-1.48838e-09
6.5135e-09
2.33468e-09
2.44344e-09
1.00125e-09
-4.81379e-11
5.20028e-10
-4.16034e-10
7.91769e-11
-1.13628e-09
-8.49085e-11
-9.57933e-11
-2.82971e-11
2.20362e-11
5.21952e-11
1.34767e-10
-5.34238e-10
5.52673e-10
3.03671e-11
-1.12851e-12
-5.18523e-12
2.21521e-09
7.8935e-11
2.00996e-11
-5.44078e-10
-5.41331e-10
-5.44089e-10
-5.41357e-10
2.24153e-09
4.56828e-11
1.84529e-12
2.26055e-09
3.16265e-11
-7.11932e-13
2.27041e-09
1.8209e-11
4.47992e-13
2.27575e-09
1.22308e-11
1.5098e-13
2.2783e-09
8.48764e-12
-7.44796e-14
2.27973e-09
5.41953e-12
-5.50024e-14
2.28153e-09
3.08733e-12
-1.68027e-13
2.28201e-09
1.95762e-12
4.66298e-13
2.28177e-09
1.83505e-12
-9.77046e-13
2.28135e-09
1.67459e-12
8.66192e-13
2.2824e-09
4.54848e-14
8.5774e-15
2.28268e-09
2.38249e-13
-7.52319e-13
2.28356e-09
-2.7584e-13
-1.3535e-14
2.28286e-09
1.2951e-12
-1.5747e-12
2.28196e-09
-1.13146e-13
-2.01698e-12
2.28186e-09
1.81078e-12
-5.30193e-13
2.28264e-09
-3.04455e-13
-4.42446e-14
2.28252e-09
-8.44964e-14
-3.78436e-13
2.28225e-09
9.33731e-13
-2.24158e-13
2.28363e-09
-8.42542e-13
2.07873e-12
2.28461e-09
-4.37344e-12
1.77264e-12
2.28453e-09
1.01584e-12
-1.50293e-13
2.28631e-09
-2.7566e-12
8.72689e-13
2.28424e-09
8.59419e-14
-2.58997e-12
2.2833e-09
1.33817e-15
-1.33321e-12
2.28443e-09
7.94272e-13
-2.87117e-13
2.28471e-09
-1.69363e-13
-1.52576e-14
2.28475e-09
1.40071e-13
-5.42243e-14
2.28469e-09
-6.03327e-14
2.47636e-14
2.28409e-09
-5.02704e-13
-2.36624e-14
2.28392e-09
-1.7103e-13
-2.45129e-13
2.28362e-09
4.35349e-13
1.53509e-13
2.28372e-09
5.69154e-13
4.61807e-14
2.28446e-09
1.10371e-12
-1.65604e-13
2.28673e-09
-2.21076e-12
1.91326e-13
2.28632e-09
1.23233e-12
3.4683e-13
2.28613e-09
8.40804e-13
-2.68825e-13
2.28472e-09
9.37236e-14
9.57972e-13
2.28438e-09
8.50481e-13
7.28268e-14
2.2843e-09
4.05004e-13
-6.37947e-14
-2.25757e-12
1.28792e-12
-2.82243e-09
-3.49445e-09
-6.51909e-10
-1.37474e-09
8.49001e-09
-2.07526e-08
-1.48283e-09
2.42254e-09
-1.52819e-09
8.13328e-11
2.12597e-08
3.6844e-09
-1.91851e-08
-6.00841e-10
1.33569e-08
4.79873e-10
3.42223e-10
-1.05472e-09
1.24348e-09
-4.59447e-10
4.35252e-10
2.57255e-09
-8.1459e-10
3.37699e-09
2.44529e-11
-9.22631e-10
-4.34202e-09
2.21775e-09
6.46296e-09
-1.33222e-09
5.99222e-09
3.74896e-10
-7.99566e-09
-2.51104e-09
1.25563e-09
-1.66732e-09
-5.79452e-10
4.27818e-09
5.37219e-12
1.64292e-09
-7.67145e-10
1.35098e-10
-5.29442e-09
1.32061e-10
3.81266e-10
7.93615e-11
-2.74815e-10
-3.73248e-10
5.53749e-11
-1.32975e-10
5.46962e-10
-6.911e-12
6.22933e-13
2.18521e-12
-1.28756e-10
-1.38529e-10
-1.34061e-10
-8.53779e-12
2.1933e-09
9.08075e-12
2.33087e-11
-5.4082e-10
-5.44165e-10
-5.40849e-10
-5.44206e-10
2.22286e-09
1.19186e-11
2.16806e-12
2.24648e-09
8.82258e-12
-3.68935e-13
2.25912e-09
6.52355e-12
-3.23971e-13
2.2677e-09
4.1523e-12
-2.5728e-13
2.27321e-09
2.90535e-12
5.33486e-14
2.2767e-09
1.92913e-12