/*--------------------------------*- C++ -*----------------------------------*\
| =========                 |                                                 |
| \\      /  F ield         | OpenFOAM: The Open Source CFD Toolbox           |
|  \\    /   O peration     | Version:  5.0                                   |
|   \\  /    A nd           | Web:      www.OpenFOAM.org                      |
|    \\/     M anipulation  |                                                 |
\*---------------------------------------------------------------------------*/
FoamFile
{
    version     2.0;
    format      ascii;
    class       volScalarField;
    location    "2";
    object      rAU;
}
// * * * * * * * * * * * * * * * * * * * * * * * * * * * * * * * * * * * * * //

dimensions      [-1 3 1 0 0 0 0];

internalField   nonuniform List<scalar> 
9228
(
2.02674e-07
8.69082e-07
7.15072e-07
9.50321e-07
7.715e-07
6.92883e-07
1.29269e-07
3.92421e-07
3.93663e-07
3.94697e-07
3.95731e-07
3.96764e-07
3.97795e-07
3.98827e-07
3.99857e-07
4.00887e-07
4.01916e-07
4.02944e-07
4.03972e-07
4.04999e-07
4.06025e-07
4.07051e-07
4.08076e-07
4.091e-07
4.10123e-07
4.11146e-07
4.12167e-07
4.13188e-07
4.14209e-07
4.15228e-07
4.16247e-07
4.17265e-07
4.18282e-07
4.19298e-07
4.20314e-07
4.21329e-07
4.22343e-07
4.23356e-07
4.24368e-07
4.2538e-07
4.26391e-07
4.27401e-07
4.2841e-07
4.29418e-07
4.30426e-07
4.31432e-07
4.32438e-07
4.33443e-07
4.34447e-07
4.36223e-07
8.85958e-07
7.85388e-07
6.63149e-07
8.8606e-07
8.22972e-07
6.06682e-07
3.51057e-08
3.92287e-07
3.93663e-07
3.94697e-07
3.95731e-07
3.96764e-07
3.97795e-07
3.98827e-07
3.99857e-07
4.00887e-07
4.01916e-07
4.02944e-07
4.03972e-07
4.04999e-07
4.06025e-07
4.07051e-07
4.08076e-07
4.091e-07
4.10123e-07
4.11146e-07
4.12167e-07
4.13188e-07
4.14209e-07
4.15228e-07
4.16247e-07
4.17265e-07
4.18282e-07
4.19298e-07
4.20314e-07
4.21329e-07
4.22343e-07
4.23356e-07
4.24368e-07
4.2538e-07
4.26391e-07
4.27401e-07
4.2841e-07
4.29418e-07
4.30426e-07
4.31432e-07
4.32438e-07
4.33443e-07
4.34447e-07
4.36223e-07
7.69229e-07
8.55096e-07
6.1897e-07
9.62065e-07
8.91865e-07
6.90295e-07
4.36487e-08
1.2987e-07
3.93455e-07
3.94698e-07
3.95731e-07
3.96764e-07
3.97795e-07
3.98827e-07
3.99857e-07
4.00887e-07
4.01916e-07
4.02944e-07
4.03972e-07
4.04999e-07
4.06025e-07
4.07051e-07
4.08076e-07
4.091e-07
4.10123e-07
4.11146e-07
4.12167e-07
4.13188e-07
4.14209e-07
4.15228e-07
4.16247e-07
4.17265e-07
4.18282e-07
4.19298e-07
4.20314e-07
4.21329e-07
4.22343e-07
4.23356e-07
4.24368e-07
4.2538e-07
4.26391e-07
4.27401e-07
4.2841e-07
4.29418e-07
4.30426e-07
4.31432e-07
4.32438e-07
4.33443e-07
4.34447e-07
4.36223e-07
7.19212e-07
8.66268e-07
7.45624e-07
8.8455e-07
8.77969e-07
6.71673e-07
6.91895e-07
1.29721e-07
3.93455e-07
3.94698e-07
3.95731e-07
3.96764e-07
3.97795e-07
3.98827e-07
3.99857e-07
4.00887e-07
4.01916e-07
4.02944e-07
4.03972e-07
4.04999e-07
4.06025e-07
4.07051e-07
4.08076e-07
4.091e-07
4.10123e-07
4.11146e-07
4.12167e-07
4.13188e-07
4.14209e-07
4.15228e-07
4.16247e-07
4.17265e-07
4.18282e-07
4.19298e-07
4.20314e-07
4.21329e-07
4.22343e-07
4.23356e-07
4.24368e-07
4.2538e-07
4.26391e-07
4.27401e-07
4.2841e-07
4.29418e-07
4.30426e-07
4.31432e-07
4.32438e-07
4.33443e-07
4.34447e-07
4.36223e-07
9.52737e-07
6.33034e-07
4.58085e-07
3.41852e-07
3.8029e-07
6.84182e-07
7.0022e-07
1.2972e-07
3.93454e-07
3.94698e-07
3.95731e-07
3.96764e-07
3.97795e-07
3.98827e-07
3.99857e-07
4.00887e-07
4.01916e-07
4.02944e-07
4.03972e-07
4.04999e-07
4.06025e-07
4.07051e-07
4.08076e-07
4.091e-07
4.10123e-07
4.11146e-07
4.12167e-07
4.13188e-07
4.14209e-07
4.15228e-07
4.16247e-07
4.17265e-07
4.18282e-07
4.19298e-07
4.20314e-07
4.21329e-07
4.22343e-07
4.23356e-07
4.24368e-07
4.2538e-07
4.26391e-07
4.27401e-07
4.2841e-07
4.29418e-07
4.30426e-07
4.31432e-07
4.32438e-07
4.33443e-07
4.34447e-07
4.36223e-07
9.66706e-07
8.93259e-07
6.42631e-07
4.77807e-07
8.717e-07
6.90156e-07
7.00416e-07
1.2972e-07
3.93454e-07
3.94697e-07
3.95731e-07
3.96764e-07
3.97795e-07
3.98827e-07
3.99857e-07
4.00887e-07
4.01916e-07
4.02944e-07
4.03972e-07
4.04999e-07
4.06025e-07
4.07051e-07
4.08076e-07
4.091e-07
4.10123e-07
4.11146e-07
4.12167e-07
4.13188e-07
4.14209e-07
4.15228e-07
4.16247e-07
4.17265e-07
4.18282e-07
4.19298e-07
4.20314e-07
4.21329e-07
4.22343e-07
4.23356e-07
4.24368e-07
4.2538e-07
4.26391e-07
4.27401e-07
4.2841e-07
4.29418e-07
4.30426e-07
4.31432e-07
4.32438e-07
4.33443e-07
4.34447e-07
4.36223e-07
9.60839e-07
9.01637e-07
6.23093e-07
6.27857e-07
6.33409e-07
6.89484e-07
6.98702e-07
1.29724e-07
3.93454e-07
3.94697e-07
3.95731e-07
3.96764e-07
3.97795e-07
3.98827e-07
3.99857e-07
4.00887e-07
4.01916e-07
4.02944e-07
4.03972e-07
4.04999e-07
4.06025e-07
4.07051e-07
4.08076e-07
4.091e-07
4.10123e-07
4.11146e-07
4.12167e-07
4.13188e-07
4.14209e-07
4.15228e-07
4.16247e-07
4.17265e-07
4.18282e-07
4.19298e-07
4.20314e-07
4.21329e-07
4.22343e-07
4.23356e-07
4.24368e-07
4.2538e-07
4.26391e-07
4.27401e-07
4.2841e-07
4.29418e-07
4.30426e-07
4.31432e-07
4.32438e-07
4.33443e-07
4.34447e-07
4.36223e-07
9.57545e-07
8.86741e-07
5.89605e-07
5.16788e-07
6.11161e-07
6.15388e-07
2.80293e-07
1.2969e-07
3.93455e-07
3.94698e-07
3.95731e-07
3.96764e-07
3.97795e-07
3.98827e-07
3.99857e-07
4.00887e-07
4.01916e-07
4.02944e-07
4.03972e-07
4.04999e-07
4.06025e-07
4.07051e-07
4.08076e-07
4.091e-07
4.10123e-07
4.11146e-07
4.12167e-07
4.13188e-07
4.14209e-07
4.15228e-07
4.16247e-07
4.17265e-07
4.18282e-07
4.19298e-07
4.20314e-07
4.21329e-07
4.22343e-07
4.23356e-07
4.24368e-07
4.2538e-07
4.26391e-07
4.27401e-07
4.2841e-07
4.29418e-07
4.30426e-07
4.31432e-07
4.32438e-07
4.33443e-07
4.34447e-07
4.36223e-07
7.91096e-07
7.53528e-07
7.85004e-07
6.51686e-07
5.40054e-07
6.82466e-07
3.9231e-08
3.92287e-07
3.93663e-07
3.94697e-07
3.95731e-07
3.96764e-07
3.97795e-07
3.98827e-07
3.99857e-07
4.00887e-07
4.01916e-07
4.02944e-07
4.03972e-07
4.04999e-07
4.06025e-07
4.07051e-07
4.08076e-07
4.091e-07
4.10123e-07
4.11146e-07
4.12167e-07
4.13188e-07
4.14209e-07
4.15228e-07
4.16247e-07
4.17265e-07
4.18282e-07
4.19298e-07
4.20314e-07
4.21329e-07
4.22343e-07
4.23356e-07
4.24368e-07
4.2538e-07
4.26391e-07
4.27401e-07
4.2841e-07
4.29418e-07
4.30426e-07
4.31432e-07
4.32438e-07
4.33443e-07
4.34447e-07
4.36223e-07
8.40017e-07
6.95232e-07
7.83402e-07
7.80033e-07
8.6482e-07
6.78706e-07
1.29219e-07
3.92421e-07
3.93663e-07
3.94697e-07
3.95731e-07
3.96763e-07
3.97795e-07
3.98827e-07
3.99857e-07
4.00887e-07
4.01916e-07
4.02944e-07
4.03972e-07
4.04999e-07
4.06025e-07
4.07051e-07
4.08076e-07
4.091e-07
4.10123e-07
4.11146e-07
4.12167e-07
4.13188e-07
4.14209e-07
4.15228e-07
4.16247e-07
4.17265e-07
4.18282e-07
4.19298e-07
4.20314e-07
4.21329e-07
4.22343e-07
4.23356e-07
4.24368e-07
4.2538e-07
4.26391e-07
4.27401e-07
4.2841e-07
4.29418e-07
4.30426e-07
4.31432e-07
4.32438e-07
4.33443e-07
4.34447e-07
4.36223e-07
8.01655e-07
8.25422e-07
8.16317e-07
8.67518e-07
8.20717e-07
7.50244e-07
1.83341e-07
5.04898e-07
5.06387e-07
5.07529e-07
5.08667e-07
5.09804e-07
5.1094e-07
5.12073e-07
5.13206e-07
5.14337e-07
5.15465e-07
5.16593e-07
5.17719e-07
5.18842e-07
5.19965e-07
5.21087e-07
5.22205e-07
5.23323e-07
5.24439e-07
5.25553e-07
5.26666e-07
5.27778e-07
5.28886e-07
5.29995e-07
5.31101e-07
5.32205e-07
5.33308e-07
5.3441e-07
5.35508e-07
5.36607e-07
5.37703e-07
5.38797e-07
5.3989e-07
5.40982e-07
5.42071e-07
5.43159e-07
5.44246e-07
5.45329e-07
5.46413e-07
5.47494e-07
5.48573e-07
5.49651e-07
5.50728e-07
5.53043e-07
5.96982e-07
7.26885e-07
7.11288e-07
9.07812e-07
9.21e-07
7.148e-07
5.18215e-08
5.04676e-07
5.06386e-07
5.07529e-07
5.08667e-07
5.09804e-07
5.1094e-07
5.12073e-07
5.13206e-07
5.14337e-07
5.15465e-07
5.16593e-07
5.17719e-07
5.18842e-07
5.19965e-07
5.21087e-07
5.22205e-07
5.23323e-07
5.24439e-07
5.25553e-07
5.26666e-07
5.27778e-07
5.28886e-07
5.29995e-07
5.31101e-07
5.32205e-07
5.33308e-07
5.3441e-07
5.35508e-07
5.36607e-07
5.37703e-07
5.38797e-07
5.3989e-07
5.40982e-07
5.42071e-07
5.43159e-07
5.44246e-07
5.45329e-07
5.46413e-07
5.47494e-07
5.48573e-07
5.49651e-07
5.50728e-07
5.53042e-07
9.04125e-07
1.25989e-07
5.90713e-07
9.58471e-07
8.87693e-07
7.16927e-07
6.45298e-08
1.84251e-07
5.06042e-07
5.0753e-07
5.08667e-07
5.09805e-07
5.1094e-07
5.12073e-07
5.13206e-07
5.14337e-07
5.15465e-07
5.16593e-07
5.17719e-07
5.18842e-07
5.19965e-07
5.21087e-07
5.22205e-07
5.23323e-07
5.24439e-07
5.25553e-07
5.26666e-07
5.27778e-07
5.28886e-07
5.29994e-07
5.31101e-07
5.32205e-07
5.33308e-07
5.3441e-07
5.35508e-07
5.36607e-07
5.37703e-07
5.38797e-07
5.3989e-07
5.40982e-07
5.42071e-07
5.43159e-07
5.44246e-07
5.4533e-07
5.46413e-07
5.47494e-07
5.48573e-07
5.49651e-07
5.50728e-07
5.53042e-07
2.70643e-07
7.1726e-07
8.04584e-07
9.23041e-07
8.54587e-07
7.4597e-07
7.63837e-07
1.83949e-07
5.06041e-07
5.07529e-07
5.08667e-07
5.09805e-07
5.1094e-07
5.12073e-07
5.13206e-07
5.14337e-07
5.15465e-07
5.16593e-07
5.17719e-07
5.18842e-07
5.19965e-07
5.21087e-07
5.22205e-07
5.23323e-07
5.24439e-07
5.25553e-07
5.26666e-07
5.27778e-07
5.28886e-07
5.29994e-07
5.31101e-07
5.32205e-07
5.33308e-07
5.3441e-07
5.35508e-07
5.36607e-07
5.37703e-07
5.38797e-07
5.3989e-07
5.40982e-07
5.42071e-07
5.43159e-07
5.44246e-07
5.45329e-07
5.46413e-07
5.47494e-07
5.48573e-07
5.49651e-07
5.50728e-07
5.53043e-07
8.54725e-07
7.16356e-07
6.40799e-07
3.80881e-07
2.81266e-07
6.55542e-07
7.75112e-07
1.83949e-07
5.0604e-07
5.07529e-07
5.08667e-07
5.09805e-07
5.1094e-07
5.12073e-07
5.13206e-07
5.14337e-07
5.15465e-07
5.16593e-07
5.17719e-07
5.18842e-07
5.19965e-07
5.21087e-07
5.22205e-07
5.23323e-07
5.24439e-07
5.25553e-07
5.26666e-07
5.27778e-07
5.28886e-07
5.29995e-07
5.31101e-07
5.32205e-07
5.33308e-07
5.3441e-07
5.35508e-07
5.36607e-07
5.37703e-07
5.38797e-07
5.3989e-07
5.40982e-07
5.42071e-07
5.43159e-07
5.44246e-07
5.4533e-07
5.46413e-07
5.47494e-07
5.48573e-07
5.49651e-07
5.50728e-07
5.53043e-07
9.59418e-07
9.16102e-07
8.29997e-07
7.24987e-07
6.7468e-07
7.40721e-07
7.741e-07
1.83948e-07
5.06039e-07
5.07529e-07
5.08667e-07
5.09804e-07
5.1094e-07
5.12073e-07
5.13206e-07
5.14337e-07
5.15465e-07
5.16593e-07
5.17719e-07
5.18842e-07
5.19965e-07
5.21087e-07
5.22205e-07
5.23323e-07
5.24439e-07
5.25553e-07
5.26666e-07
5.27778e-07
5.28886e-07
5.29994e-07
5.31101e-07
5.32205e-07
5.33308e-07
5.3441e-07
5.35508e-07
5.36607e-07
5.37703e-07
5.38797e-07
5.3989e-07
5.40982e-07
5.42071e-07
5.43159e-07
5.44246e-07
5.4533e-07
5.46413e-07
5.47494e-07
5.48573e-07
5.49651e-07
5.50728e-07
5.53042e-07
9.65412e-07
9.22588e-07
4.11535e-07
3.26921e-07
4.70259e-07
7.20466e-07
7.69769e-07
1.83948e-07
5.0604e-07
5.07529e-07
5.08667e-07
5.09804e-07
5.1094e-07
5.12073e-07
5.13206e-07
5.14337e-07
5.15465e-07
5.16593e-07
5.17719e-07
5.18842e-07
5.19965e-07
5.21087e-07
5.22205e-07
5.23323e-07
5.24439e-07
5.25553e-07
5.26666e-07
5.27778e-07
5.28886e-07
5.29994e-07
5.31101e-07
5.32205e-07
5.33308e-07
5.3441e-07
5.35508e-07
5.36607e-07
5.37703e-07
5.38797e-07
5.3989e-07
5.40982e-07
5.42071e-07
5.43159e-07
5.44246e-07
5.4533e-07
5.46413e-07
5.47494e-07
5.48573e-07
5.49651e-07
5.50728e-07
5.53042e-07
9.11192e-07
6.71229e-07
4.77459e-07
2.13349e-07
5.60659e-07
7.05014e-07
3.59442e-07
1.83949e-07
5.06041e-07
5.07529e-07
5.08667e-07
5.09804e-07
5.1094e-07
5.12073e-07
5.13206e-07
5.14337e-07
5.15465e-07
5.16593e-07
5.17719e-07
5.18842e-07
5.19965e-07
5.21087e-07
5.22205e-07
5.23323e-07
5.24439e-07
5.25553e-07
5.26666e-07
5.27778e-07
5.28886e-07
5.29994e-07
5.31101e-07
5.32205e-07
5.33308e-07
5.3441e-07
5.35508e-07
5.36607e-07
5.37703e-07
5.38797e-07
5.3989e-07
5.40982e-07
5.42071e-07
5.43159e-07
5.44246e-07
5.4533e-07
5.46413e-07
5.47494e-07
5.48573e-07
5.49651e-07
5.50728e-07
5.53042e-07
5.56586e-07
6.64629e-07
8.31136e-07
5.24847e-07
6.10597e-07
7.18785e-07
5.8227e-08
5.04677e-07
5.06387e-07
5.07529e-07
5.08667e-07
5.09804e-07
5.1094e-07
5.12073e-07
5.13206e-07
5.14337e-07
5.15465e-07
5.16593e-07
5.17719e-07
5.18842e-07
5.19965e-07
5.21087e-07
5.22205e-07
5.23323e-07
5.24439e-07
5.25553e-07
5.26666e-07
5.27778e-07
5.28886e-07
5.29994e-07
5.31101e-07
5.32205e-07
5.33308e-07
5.3441e-07
5.35508e-07
5.36607e-07
5.37703e-07
5.38797e-07
5.3989e-07
5.40982e-07
5.42071e-07
5.43159e-07
5.44246e-07
5.4533e-07
5.46413e-07
5.47494e-07
5.48573e-07
5.49651e-07
5.50728e-07
5.53042e-07
5.92752e-07
5.13992e-07
5.74931e-07
3.14881e-07
4.98334e-07
7.39326e-07
1.83243e-07
5.04898e-07
5.06387e-07
5.07529e-07
5.08667e-07
5.09804e-07
5.1094e-07
5.12073e-07
5.13206e-07
5.14337e-07
5.15465e-07
5.16593e-07
5.17719e-07
5.18842e-07
5.19965e-07
5.21087e-07
5.22205e-07
5.23323e-07
5.24439e-07
5.25553e-07
5.26666e-07
5.27778e-07
5.28886e-07
5.29994e-07
5.31101e-07
5.32205e-07
5.33308e-07
5.3441e-07
5.35508e-07
5.36607e-07
5.37703e-07
5.38797e-07
5.3989e-07
5.40982e-07
5.42071e-07
5.43159e-07
5.44246e-07
5.4533e-07
5.46413e-07
5.47494e-07
5.48573e-07
5.49651e-07
5.50728e-07
5.53043e-07
9.16485e-07
8.81904e-07
8.69111e-07
9.04696e-07
8.99016e-07
7.45549e-07
1.83346e-07
3.92421e-07
3.93663e-07
3.94697e-07
3.95731e-07
3.96763e-07
3.97795e-07
3.98827e-07
3.99857e-07
4.00887e-07
4.01916e-07
4.02944e-07
4.03972e-07
4.04999e-07
4.06025e-07
4.07051e-07
4.08076e-07
4.091e-07
4.10123e-07
4.11146e-07
4.12167e-07
4.13188e-07
4.14209e-07
4.15228e-07
4.16247e-07
4.17265e-07
4.18282e-07
4.19298e-07
4.20314e-07
4.21329e-07
4.22343e-07
4.23356e-07
4.24368e-07
4.2538e-07
4.26391e-07
4.27401e-07
4.2841e-07
4.29418e-07
4.30426e-07
4.31432e-07
4.32438e-07
4.33443e-07
4.34447e-07
4.36223e-07
9.18647e-07
7.1958e-07
6.22906e-07
9.06916e-07
9.31262e-07
7.70633e-07
5.18214e-08
3.92287e-07
3.93663e-07
3.94697e-07
3.95731e-07
3.96763e-07
3.97795e-07
3.98827e-07
3.99857e-07
4.00887e-07
4.01916e-07
4.02944e-07
4.03972e-07
4.04999e-07
4.06025e-07
4.07051e-07
4.08076e-07
4.091e-07
4.10123e-07
4.11146e-07
4.12167e-07
4.13188e-07
4.14209e-07
4.15228e-07
4.16247e-07
4.17265e-07
4.18282e-07
4.19298e-07
4.20314e-07
4.21329e-07
4.22343e-07
4.23356e-07
4.24368e-07
4.2538e-07
4.26391e-07
4.27401e-07
4.2841e-07
4.29418e-07
4.30426e-07
4.31432e-07
4.32438e-07
4.33443e-07
4.34447e-07
4.36223e-07
8.91778e-07
3.79394e-07
8.79377e-07
8.93444e-07
8.64185e-07
7.40762e-07
6.44727e-08
1.84255e-07
3.93455e-07
3.94698e-07
3.95731e-07
3.96764e-07
3.97795e-07
3.98827e-07
3.99857e-07
4.00887e-07
4.01916e-07
4.02944e-07
4.03972e-07
4.04999e-07
4.06025e-07
4.07051e-07
4.08076e-07
4.091e-07
4.10123e-07
4.11146e-07
4.12167e-07
4.13188e-07
4.14209e-07
4.15228e-07
4.16247e-07
4.17265e-07
4.18282e-07
4.19298e-07
4.20314e-07
4.21329e-07
4.22343e-07
4.23356e-07
4.24368e-07
4.2538e-07
4.26391e-07
4.27401e-07
4.2841e-07
4.29418e-07
4.30426e-07
4.31432e-07
4.32438e-07
4.33443e-07
4.34447e-07
4.36223e-07
7.78571e-07
6.98059e-07
7.83615e-07
7.37654e-07
5.45903e-07
7.40065e-07
7.66138e-07
1.83954e-07
3.93455e-07
3.94698e-07
3.95731e-07
3.96764e-07
3.97795e-07
3.98827e-07
3.99857e-07
4.00887e-07
4.01916e-07
4.02944e-07
4.03972e-07
4.04999e-07
4.06025e-07
4.07051e-07
4.08076e-07
4.091e-07
4.10123e-07
4.11146e-07
4.12167e-07
4.13188e-07
4.14209e-07
4.15228e-07
4.16247e-07
4.17265e-07
4.18282e-07
4.19298e-07
4.20314e-07
4.21329e-07
4.22343e-07
4.23356e-07
4.24368e-07
4.2538e-07
4.26391e-07
4.27401e-07
4.2841e-07
4.29418e-07
4.30426e-07
4.31432e-07
4.32438e-07
4.33443e-07
4.34447e-07
4.36223e-07
9.31482e-07
4.90986e-07
5.75643e-07
4.27415e-07
6.75309e-07
6.68566e-07
7.75156e-07
1.83954e-07
3.93454e-07
3.94697e-07
3.95731e-07
3.96764e-07
3.97795e-07
3.98827e-07
3.99857e-07
4.00887e-07
4.01916e-07
4.02944e-07
4.03972e-07
4.04999e-07
4.06025e-07
4.07051e-07
4.08076e-07
4.091e-07
4.10123e-07
4.11146e-07
4.12167e-07
4.13188e-07
4.14209e-07
4.15228e-07
4.16247e-07
4.17265e-07
4.18282e-07
4.19298e-07
4.20314e-07
4.21329e-07
4.22343e-07
4.23356e-07
4.24368e-07
4.2538e-07
4.26391e-07
4.27401e-07
4.2841e-07
4.29418e-07
4.30426e-07
4.31432e-07
4.32438e-07
4.33443e-07
4.34447e-07
4.36223e-07
8.97591e-07
8.71535e-07
8.27889e-07
9.05148e-07
6.1801e-07
7.09365e-07
7.73908e-07
1.83953e-07
3.93454e-07
3.94697e-07
3.95731e-07
3.96763e-07
3.97795e-07
3.98827e-07
3.99857e-07
4.00887e-07
4.01916e-07
4.02944e-07
4.03972e-07
4.04999e-07
4.06025e-07
4.07051e-07
4.08076e-07
4.091e-07
4.10123e-07
4.11146e-07
4.12167e-07
4.13188e-07
4.14209e-07
4.15228e-07
4.16247e-07
4.17265e-07
4.18282e-07
4.19298e-07
4.20314e-07
4.21329e-07
4.22343e-07
4.23356e-07
4.24368e-07
4.2538e-07
4.26391e-07
4.27401e-07
4.2841e-07
4.29418e-07
4.30426e-07
4.31432e-07
4.32438e-07
4.33443e-07
4.34447e-07
4.36223e-07
9.64916e-07
8.91078e-07
7.4251e-07
6.64267e-07
9.07888e-07
6.74553e-07
7.70127e-07
1.83953e-07
3.93454e-07
3.94697e-07
3.95731e-07
3.96763e-07
3.97795e-07
3.98827e-07
3.99857e-07
4.00887e-07
4.01916e-07
4.02944e-07
4.03972e-07
4.04999e-07
4.06025e-07
4.07051e-07
4.08076e-07
4.091e-07
4.10123e-07
4.11146e-07
4.12167e-07
4.13188e-07
4.14209e-07
4.15228e-07
4.16247e-07
4.17265e-07
4.18282e-07
4.19298e-07
4.20314e-07
4.21329e-07
4.22343e-07
4.23356e-07
4.24368e-07
4.2538e-07
4.26391e-07
4.27401e-07
4.2841e-07
4.29418e-07
4.30426e-07
4.31432e-07
4.32438e-07
4.33443e-07
4.34447e-07
4.36223e-07
8.96155e-07
8.32536e-07
7.44485e-07
7.59314e-07
6.87354e-07
5.56254e-07
3.60768e-07
1.83953e-07
3.93454e-07
3.94698e-07
3.95731e-07
3.96764e-07
3.97795e-07
3.98827e-07
3.99857e-07
4.00887e-07
4.01916e-07
4.02944e-07
4.03972e-07
4.04999e-07
4.06025e-07
4.07051e-07
4.08076e-07
4.091e-07
4.10123e-07
4.11146e-07
4.12167e-07
4.13188e-07
4.14209e-07
4.15228e-07
4.16247e-07
4.17265e-07
4.18282e-07
4.19298e-07
4.20314e-07
4.21329e-07
4.22343e-07
4.23356e-07
4.24368e-07
4.2538e-07
4.26391e-07
4.27401e-07
4.2841e-07
4.29418e-07
4.30426e-07
4.31432e-07
4.32438e-07
4.33443e-07
4.34447e-07
4.36223e-07
8.20697e-07
4.42776e-07
8.1784e-07
8.80789e-07
5.51668e-07
7.11267e-07
5.82002e-08
3.92287e-07
3.93663e-07
3.94697e-07
3.95731e-07
3.96763e-07
3.97795e-07
3.98827e-07
3.99857e-07
4.00887e-07
4.01916e-07
4.02944e-07
4.03972e-07
4.04999e-07
4.06025e-07
4.07051e-07
4.08076e-07
4.091e-07
4.10123e-07
4.11146e-07
4.12167e-07
4.13188e-07
4.14209e-07
4.15228e-07
4.16247e-07
4.17265e-07
4.18282e-07
4.19298e-07
4.20314e-07
4.21329e-07
4.22343e-07
4.23356e-07
4.24368e-07
4.2538e-07
4.26391e-07
4.27401e-07
4.2841e-07
4.29418e-07
4.30426e-07
4.31432e-07
4.32438e-07
4.33443e-07
4.34447e-07
4.36223e-07
4.06421e-07
5.42377e-07
6.11572e-07
3.29922e-07
4.49301e-07
7.61879e-07
1.83249e-07
3.92421e-07
3.93663e-07
3.94697e-07
3.95731e-07
3.96763e-07
3.97795e-07
3.98827e-07
3.99857e-07
4.00887e-07
4.01916e-07
4.02944e-07
4.03972e-07
4.04999e-07
4.06025e-07
4.07051e-07
4.08076e-07
4.091e-07
4.10123e-07
4.11146e-07
4.12167e-07
4.13188e-07
4.14209e-07
4.15228e-07
4.16247e-07
4.17265e-07
4.18282e-07
4.19298e-07
4.20314e-07
4.21329e-07
4.22343e-07
4.23356e-07
4.24368e-07
4.2538e-07
4.26391e-07
4.27401e-07
4.2841e-07
4.29418e-07
4.30426e-07
4.31432e-07
4.32438e-07
4.33443e-07
4.34447e-07
4.36223e-07
3.51587e-08
5.62208e-07
3.53562e-08
7.50401e-07
5.18192e-08
6.63766e-07
5.22839e-08
3.64874e-08
6.89161e-07
9.05085e-08
6.94454e-07
5.38978e-08
7.19097e-07
1.29766e-07
2.43121e-07
6.90834e-07
6.99918e-07
7.21427e-07
3.21165e-07
7.55597e-07
7.76373e-07
7.01342e-07
6.8533e-07
7.01254e-07
7.51313e-07
7.74527e-07
7.17257e-07
7.7226e-07
6.98983e-07
6.50898e-07
7.00368e-07
6.57391e-07
7.705e-07
7.31547e-07
7.76021e-07
6.99714e-07
6.71735e-07
7.00659e-07
7.47963e-07
7.75152e-07
7.45236e-07
7.71488e-07
7.00285e-07
5.41914e-07
7.00267e-07
7.41833e-07
7.7278e-07
6.67476e-07
7.74888e-07
6.99543e-07
6.53084e-07
3.31248e-07
7.0598e-07
7.73467e-07
5.839e-07
4.13526e-07
1.59184e-07
6.79641e-07
4.25163e-08
7.31269e-07
2.18861e-07
5.82141e-07
6.22797e-08
3.76459e-08
6.86694e-07
3.51561e-08
7.53411e-07
5.57012e-08
7.20196e-07
5.18139e-08
5.182e-08
6.81807e-07
5.23208e-08
7.5449e-07
5.18191e-08
7.51599e-07
5.23463e-08
5.38995e-08
7.3054e-07
1.29701e-07
7.4441e-07
5.39997e-08
7.2141e-07
1.29546e-07
3.21083e-07
7.59277e-07
7.76309e-07
7.26826e-07
3.20864e-07
7.42407e-07
7.75998e-07
7.75025e-07
7.00559e-07
7.71083e-07
7.42572e-07
7.75936e-07
6.98878e-07
7.74133e-07
7.71513e-07
7.40572e-07
7.73926e-07
6.63837e-07
7.69582e-07
7.43612e-07
7.75569e-07
7.7465e-07
7.46678e-07
7.71057e-07
7.25134e-07
7.73692e-07
7.53144e-07
7.73129e-07
7.68923e-07
6.7606e-07
7.74511e-07
6.62502e-07
7.71451e-07
6.81667e-07
7.74631e-07
7.72482e-07
5.73219e-07
4.22536e-07
6.80176e-07
7.72765e-07
6.09019e-07
4.3156e-07
2.18248e-07
4.89677e-07
6.19903e-08
7.04151e-07
2.17348e-07
4.71319e-07
6.09443e-08
5.57942e-08
6.97111e-07
5.18141e-08
7.56393e-07
5.58551e-08
7.26397e-07
5.18138e-08
5.18183e-08
7.21746e-07
5.23115e-08
6.90633e-07
3.51585e-08
6.91587e-07
3.5371e-08
5.40397e-08
7.25169e-07
1.29537e-07
6.92812e-07
3.66903e-08
6.84357e-07
9.0281e-08
3.20805e-07
7.57251e-07
7.75967e-07
6.70281e-07
2.42034e-07
6.89543e-07
6.99942e-07
7.74269e-07
6.89341e-07
7.73286e-07
6.85898e-07
6.97646e-07
6.58491e-07
7.00896e-07
7.70165e-07
7.50364e-07
7.7512e-07
6.81189e-07
6.99565e-07
6.82082e-07
6.99882e-07
7.74022e-07
7.43756e-07
7.73325e-07
6.04436e-07
7.00175e-07
6.89412e-07
7.00438e-07
7.69731e-07
6.16516e-07
7.75241e-07
5.84933e-07
7.00151e-07
5.60531e-07
7.00228e-07
7.73492e-07
6.25407e-07
4.33161e-07
5.30462e-07
6.9942e-07
6.60483e-07
3.34225e-07
2.17307e-07
5.06406e-07
6.01642e-08
6.6025e-07
1.57443e-07
6.51465e-07
4.09411e-08
5.58765e-08
7.35185e-07
5.18132e-08
5.84299e-07
3.76191e-08
6.88402e-07
3.51557e-08
8.03292e-07
7.43767e-07
5.74068e-07
7.57664e-07
8.39227e-07
8.66493e-07
7.28671e-07
3.81107e-07
6.88959e-07
6.31148e-07
7.50877e-07
7.54423e-07
3.30949e-07
7.62205e-07
1.29658e-07
1.29212e-07
1.29658e-07
1.83347e-07
1.84016e-07
1.83233e-07
1.84016e-07
8.97629e-07
8.71494e-07
8.7051e-07
8.41638e-07
9.14974e-07
8.93218e-07
8.74205e-07
7.1744e-07
6.93405e-07
4.58194e-07
6.84345e-07
7.65452e-07
5.70513e-07
6.57792e-07
1.29567e-07
3.63171e-08
1.29567e-07
5.18216e-08
1.83832e-07
5.37715e-08
1.83832e-07
8.9706e-07
8.97078e-07
8.69392e-07
8.82107e-07
9.06139e-07
9.05156e-07
8.96371e-07
7.71859e-07
6.96329e-07
6.3164e-07
7.59914e-07
7.71275e-07
6.5819e-07
6.97084e-07
1.29419e-07
3.15697e-07
3.52761e-08
6.44756e-08
1.83536e-07
4.03617e-07
5.19791e-08
8.40235e-07
7.48877e-07
7.20104e-07
8.69872e-07
8.179e-07
2.30582e-07
1.84349e-07
3.66289e-07
6.9348e-07
6.79297e-07
7.43116e-07
7.65895e-07
7.24253e-07
2.75865e-07
3.52761e-08
6.97943e-07
3.52805e-08
7.63973e-07
5.19791e-08
7.70064e-07
5.19893e-08
6.32951e-07
6.15466e-07
7.94183e-07
2.15775e-07
2.07105e-07
5.77393e-07
7.07844e-07
7.21815e-07
6.98897e-07
3.25812e-07
7.1001e-07
7.7243e-07
4.15394e-07
6.79562e-07
3.52837e-08
7.00393e-07
3.52876e-08
7.75497e-07
5.19966e-08
7.75232e-07
5.20062e-08
8.61785e-07
8.55386e-07
8.66157e-07
8.55403e-07
7.35506e-07
8.38555e-07
9.05953e-07
7.56242e-07
6.96638e-07
6.87623e-07
7.40065e-07
7.68205e-07
7.55208e-07
6.90823e-07
3.52883e-08
6.99617e-07
3.52832e-08
7.74642e-07
5.20074e-08
7.74443e-07
5.19953e-08
6.30301e-07
6.55711e-07
1.94017e-07
6.976e-07
7.8937e-07
6.94929e-07
1.37881e-07
7.75363e-07
6.94417e-07
6.94629e-07
7.64648e-07
7.65223e-07
7.59409e-07
6.99847e-07
3.52808e-08
6.9155e-07
3.52761e-08
7.67788e-07
5.19912e-08
7.65953e-07
5.19787e-08
3.46144e-07
5.57944e-07
6.90943e-07
5.18985e-07
2.74301e-07
1.43395e-07
5.87496e-07
7.43639e-07
6.94822e-07
6.78918e-07
7.14075e-07
7.68373e-07
6.9793e-07
6.86382e-07
3.52647e-08
4.78806e-08
1.29419e-07
3.60275e-07
5.19789e-08
7.08996e-08
1.83534e-07
5.40471e-07
4.53693e-07
7.19141e-07
5.99919e-07
5.65091e-07
7.19825e-07
8.67652e-07
7.49875e-07
6.75411e-07
5.94682e-07
7.39029e-07
7.52389e-07
6.97641e-07
6.85847e-07
1.29567e-07
3.51777e-08
1.29567e-07
5.81243e-08
1.83834e-07
5.18337e-08
1.83833e-07
8.92105e-07
8.64506e-07
8.83123e-07
8.16399e-07
8.10926e-07
8.9073e-07
9.22667e-07
7.61102e-07
6.93099e-07
4.63201e-07
7.16844e-07
7.63831e-07
6.29593e-07
6.90473e-07
1.29658e-07
1.29269e-07
1.29658e-07
1.83247e-07
1.84016e-07
1.83349e-07
1.84017e-07
8.35302e-07
8.94276e-07
7.93983e-07
8.55815e-07
8.4052e-07
9.00892e-07
8.71063e-07
3.51616e-07
7.51436e-07
7.4548e-07
7.47593e-07
3.5291e-07
7.54213e-07
7.46302e-07
1.84011e-07
1.83229e-07
1.84012e-07
1.83341e-07
1.84012e-07
1.83229e-07
1.84012e-07
9.20794e-07
9.0635e-07
9.11605e-07
8.64119e-07
9.31272e-07
8.3777e-07
8.91014e-07
6.70805e-07
7.65615e-07
6.44547e-07
7.39838e-07
6.68567e-07
7.61777e-07
6.28375e-07
1.83828e-07
5.3832e-08
1.83827e-07
5.18214e-08
1.83828e-07
5.38536e-08
1.83828e-07
8.45193e-07
9.09061e-07
9.10406e-07
9.18205e-07
8.96747e-07
8.63488e-07
9.23315e-07
7.64475e-07
7.61599e-07
7.14971e-07
6.85659e-07
7.69718e-07
7.64168e-07
7.13752e-07
1.83532e-07
4.02441e-07
5.19786e-08
6.45286e-08
1.83532e-07
4.01763e-07
5.19786e-08
8.71249e-07
2.95436e-07
2.21156e-07
7.28255e-07
7.04485e-07
7.93047e-07
5.59047e-07
4.02743e-07
7.58276e-07
6.71253e-07
7.18689e-07
3.71605e-07
7.50437e-07
5.7848e-07
5.19786e-08
7.71328e-07
5.19889e-08
7.65773e-07
5.19786e-08
7.70202e-07
5.19893e-08
2.91186e-07
5.67862e-07
5.8915e-07
4.65878e-07
7.024e-07
4.13882e-07
3.4548e-07
6.41525e-07
7.617e-07
4.95991e-07
6.51655e-07
6.38509e-07
7.59759e-07
6.17699e-07
5.19964e-08
7.74401e-07
5.20062e-08
7.74611e-07
5.19966e-08
7.74262e-07
5.20061e-08
4.7144e-07
5.4538e-07
5.43055e-07
6.1488e-07
2.56415e-07
3.81325e-07
6.53059e-07
7.49928e-07
7.58267e-07
7.1697e-07
7.44626e-07
7.42595e-07
7.52672e-07
7.14906e-07
5.20074e-08
7.72718e-07
5.19951e-08
7.73362e-07
5.20076e-08
7.73528e-07
5.19949e-08
7.82663e-07
6.80337e-07
2.24417e-07
8.53774e-07
8.33344e-07
8.42381e-07
5.05954e-07
7.71413e-07
7.54796e-07
6.79085e-07
6.67291e-07
7.74709e-07
7.54427e-07
6.83086e-07
5.19908e-08
7.65841e-07
5.19781e-08
7.72144e-07
5.19906e-08
7.65209e-07
5.19781e-08
3.0529e-07
2.36735e-07
6.02857e-07
4.81643e-07
6.40265e-07
3.62901e-07
5.02669e-07
6.73512e-07
7.59336e-07
2.5546e-07
6.96802e-07
6.96108e-07
7.51807e-07
2.60605e-07
5.19784e-08
7.07048e-08
1.83528e-07
3.59578e-07
5.19784e-08
7.0507e-08
1.83527e-07
5.47255e-07
2.76944e-07
7.65331e-07
6.43903e-07
5.961e-07
2.28678e-07
3.9558e-07
7.23184e-07
7.68422e-07
6.9435e-07
6.90463e-07
7.16189e-07
7.57051e-07
7.14399e-07
1.83829e-07
5.18335e-08
1.83828e-07
5.82662e-08
1.83829e-07
5.18316e-08
1.83828e-07
7.44947e-07
5.77354e-07
8.47882e-07
2.63955e-07
5.65623e-07
5.50963e-07
5.88314e-07
7.53167e-07
7.64952e-07
7.35764e-07
7.26089e-07
7.52129e-07
7.64225e-07
7.15419e-07
1.84011e-07
1.83343e-07
1.84012e-07
1.83244e-07
1.84011e-07
1.83343e-07
1.84012e-07
8.46396e-07
9.21093e-07
8.56271e-07
8.6244e-07
8.12028e-07
8.72175e-07
8.05945e-07
3.66427e-07
7.60795e-07
7.6716e-07
7.58295e-07
3.63576e-07
7.69475e-07
7.60483e-07
1.84016e-07
1.83233e-07
1.84016e-07
1.29269e-07
1.29658e-07
1.29212e-07
1.29658e-07
8.82842e-07
9.02586e-07
9.12882e-07
8.99237e-07
8.85149e-07
8.82184e-07
8.72535e-07
6.97197e-07
7.63308e-07
6.10242e-07
7.65317e-07
6.79765e-07
7.64928e-07
6.27883e-07
1.83832e-07
5.3802e-08
1.83832e-07
3.51597e-08
1.29567e-07
3.63385e-08
1.29567e-07
8.6851e-07
9.26559e-07
8.7485e-07
8.60834e-07
8.76075e-07
8.8379e-07
8.72858e-07
7.67302e-07
7.72297e-07
7.57837e-07
7.4638e-07
7.6697e-07
7.69505e-07
7.3009e-07
1.83536e-07
4.02498e-07
5.19791e-08
4.36669e-08
1.29419e-07
3.14282e-07
3.52761e-08
4.39848e-07
5.32253e-07
3.46618e-07
2.74886e-07
5.1517e-07
6.35287e-07
6.40811e-07
6.51318e-07
7.42774e-07
5.19603e-07
7.27881e-07
6.42294e-07
7.42779e-07
5.04293e-07
5.19791e-08
7.71777e-07
5.19893e-08
6.91999e-07
3.52751e-08
6.98672e-07
3.52806e-08
8.95598e-07
4.98874e-07
3.24397e-07
8.59514e-07
8.46573e-07
3.82911e-07
2.15803e-07
6.50792e-07
7.586e-07
4.63482e-07
7.27516e-07
6.35275e-07
7.56427e-07
4.75614e-07
5.19967e-08
7.75167e-07
5.20061e-08
7.00141e-07
3.52837e-08
7.00424e-07
3.52877e-08
2.26364e-07
3.67819e-07
6.6134e-07
6.38093e-07
1.88816e-07
6.5999e-07
6.48075e-07
7.60322e-07
7.61891e-07
6.7191e-07
7.25313e-07
7.6181e-07
7.64867e-07
5.98408e-07
5.20075e-08
7.74079e-07
5.19953e-08
7.00427e-07
3.52883e-08
6.99748e-07
3.52833e-08
8.46031e-07
8.11327e-07
6.53038e-07
8.89297e-07
7.76887e-07
7.64998e-07
7.36655e-07
7.69967e-07
7.63887e-07
5.2e-07
6.43895e-07
7.65362e-07
7.67558e-07
5.72361e-07
5.19912e-08
7.65186e-07
5.19786e-08
6.98773e-07
3.5281e-08
6.91506e-07
3.52761e-08
7.86968e-07
2.13235e-07
6.88603e-07
7.11397e-07
7.74248e-07
5.4942e-07
5.73232e-07
5.98091e-07
7.34429e-07
3.73822e-07
4.3847e-07
6.14132e-07
7.33133e-07
3.61198e-07
5.19789e-08
7.03365e-08
1.83532e-07
2.80652e-07
3.5253e-08
4.78579e-08
1.29419e-07
5.5733e-07
2.59871e-07
3.51252e-07
5.01057e-07
5.91255e-07
3.20831e-07
6.82166e-07
7.51547e-07
7.60283e-07
7.37726e-07
7.29557e-07
7.55499e-07
7.52392e-07
6.73997e-07
1.83833e-07
5.18287e-08
1.83832e-07
3.93032e-08
1.29567e-07
3.51669e-08
1.29567e-07
5.76879e-07
4.50701e-07
5.12445e-07
2.67835e-07
4.79258e-07
3.90209e-07
6.66258e-07
7.61627e-07
7.62337e-07
7.35175e-07
7.60692e-07
7.58787e-07
7.627e-07
7.26884e-07
1.84016e-07
1.83347e-07
1.84016e-07
1.29219e-07
1.29658e-07
1.29269e-07
1.29658e-07
6.97685e-08
5.59186e-08
3.51517e-08
5.18264e-08
5.18147e-08
4.64621e-08
8.16109e-08
7.62336e-07
6.74252e-07
6.92642e-07
6.58898e-07
7.58552e-07
7.65434e-07
6.90926e-07
9.3979e-08
3.5201e-08
7.0466e-08
5.21836e-08
5.19601e-08
1.02035e-07
6.4728e-08
3.5786e-07
7.54325e-07
7.58221e-07
7.43073e-07
7.62248e-07
3.54446e-07
7.61543e-07
7.09202e-08
5.18251e-08
8.18548e-08
5.18111e-08
5.18167e-08
7.12773e-08
8.16998e-08
7.60253e-07
6.54656e-07
7.36478e-07
7.63902e-07
7.27898e-07
7.63829e-07
7.60513e-07
9.40289e-08
5.22455e-08
5.2022e-08
1.02127e-07
5.20083e-08
1.02061e-07
9.41371e-08
2.01044e-07
1.06605e-07
3.96134e-08
5.38306e-08
1.51604e-07
5.85089e-08
1.4491e-07
7.67041e-07
6.94996e-07
6.94012e-07
7.48308e-07
7.55218e-07
7.68806e-07
6.97381e-07
4.92286e-07
5.29429e-08
6.93925e-07
1.29775e-07
7.75164e-08
7.67704e-07
3.95616e-07
7.03846e-07
6.96446e-07
7.65221e-07
6.26176e-07
7.62232e-07
6.07543e-07
6.89682e-07
2.00445e-07
5.38844e-08
1.52152e-07
5.87989e-08
1.5178e-07
5.8708e-08
2.01075e-07
7.63697e-07
6.79901e-07
7.49905e-07
7.68635e-07
7.45216e-07
7.68079e-07
7.61584e-07
4.89513e-07
1.29792e-07
7.79105e-08
7.66926e-07
7.77313e-08
7.66756e-07
4.87753e-07
7.73464e-07
6.98646e-07
6.92957e-07
3.22957e-07
7.72248e-07
7.67316e-07
6.99276e-07
7.6678e-07
5.14095e-07
6.98089e-07
7.65635e-07