/*--------------------------------*- C++ -*----------------------------------*\
| =========                 |                                                 |
| \\      /  F ield         | OpenFOAM: The Open Source CFD Toolbox           |
|  \\    /   O peration     | Version:  5.0                                   |
|   \\  /    A nd           | Web:      www.OpenFOAM.org                      |
|    \\/     M anipulation  |                                                 |
\*---------------------------------------------------------------------------*/
FoamFile
{
    version     2.0;
    format      ascii;
    class       volVectorField;
    location    "2";
    object      U;
}
// * * * * * * * * * * * * * * * * * * * * * * * * * * * * * * * * * * * * * //

dimensions      [0 1 -1 0 0 0 0];

internalField   nonuniform List<vector> 
9228
(
(-0.00557813 0.00132337 0.00123274)
(-0.00136916 0.0287092 0.0001355)
(0.00394398 -0.00287487 -0.000104423)
(0.00587507 -0.000496493 -6.27767e-05)
(0.000602569 -0.00244135 -0.00122443)
(-0.000449384 0.00725527 -8.02256e-06)
(0.000594783 7.1141e-05 3.2357e-07)
(0.000928709 5.6151e-05 -2.33189e-06)
(0.000858056 3.7157e-05 -3.61852e-08)
(0.000839909 2.12248e-05 8.89561e-08)
(0.000824653 1.31499e-05 1.03672e-07)
(0.000815288 7.80915e-06 6.38307e-08)
(0.00080952 4.74693e-06 1.5463e-09)
(0.000805169 3.0562e-06 9.39551e-08)
(0.000801577 1.94496e-06 4.84416e-08)
(0.000798866 1.21116e-06 4.39444e-08)
(0.000796763 7.34934e-07 5.26319e-08)
(0.000794839 4.94711e-07 5.36821e-08)
(0.000793069 4.16071e-07 5.91367e-08)
(0.000791426 1.95932e-07 1.94794e-07)
(0.000789875 4.4516e-08 5.74435e-08)
(0.000788412 2.77677e-07 7.46996e-08)
(0.000786993 1.08594e-07 7.19417e-08)
(0.000785555 7.85382e-09 4.49954e-08)
(0.000784075 1.64974e-07 -1.2727e-08)
(0.000782658 2.0055e-07 6.48194e-08)
(0.000781202 1.76731e-07 4.0781e-08)
(0.000779863 9.72959e-08 4.78823e-08)
(0.00077834 2.04754e-07 1.5437e-07)
(0.000776876 -1.99811e-07 1.85565e-07)
(0.000775321 -4.40913e-07 7.66412e-08)
(0.000773686 -4.72988e-07 -5.59168e-08)
(0.000772442 -2.3603e-07 7.85082e-08)
(0.000771394 -4.37611e-08 1.06952e-07)
(0.000770021 1.329e-07 3.78561e-08)
(0.000768382 5.11856e-08 4.55296e-08)
(0.000766916 9.08752e-08 4.67489e-08)
(0.000765223 2.83527e-07 3.71879e-08)
(0.000764345 5.99864e-07 6.77374e-08)
(0.000763408 2.14889e-07 7.74135e-08)
(0.000761567 6.4664e-08 1.27707e-08)
(0.00076005 -3.71631e-08 7.13521e-08)
(0.000759284 -6.23433e-07 8.92427e-08)
(0.000757681 -5.61816e-07 1.17534e-09)
(0.000755796 -2.77619e-07 2.80454e-08)
(0.000754433 -1.63767e-07 5.9741e-08)
(0.000753303 5.0901e-08 6.52306e-08)
(0.000752313 -1.12573e-07 6.40222e-08)
(0.000750573 -3.77206e-07 4.40313e-08)
(0.000749017 -3.07274e-07 1.04926e-08)
(0.00821181 -0.00505308 0.000855272)
(0.00445994 -0.0134078 0.000336482)
(-0.0264667 0.00869206 0.000589509)
(-0.00320662 0.00219606 0.000474121)
(0.0104562 -0.00108709 0.00035208)
(-0.000355108 0.00244519 -2.69587e-05)
(0.000271277 3.41724e-05 1.03701e-06)
(0.000856939 7.45522e-05 -2.43803e-06)
(0.00083156 7.39314e-05 -1.93174e-07)
(0.000818557 3.56752e-05 -3.83747e-08)
(0.000813016 2.26645e-05 3.46781e-08)
(0.000808002 1.33923e-05 3.88507e-08)
(0.000804804 8.24646e-06 4.95689e-08)
(0.000802144 4.93897e-06 4.77291e-08)
(0.000799913 3.01818e-06 4.82528e-08)
(0.000797912 1.86137e-06 6.03718e-08)
(0.000796105 1.3798e-06 2.19986e-09)
(0.000794631 1.03218e-06 7.0327e-08)
(0.000793038 8.40064e-07 1.32956e-07)
(0.000791286 5.36136e-07 2.6756e-08)
(0.000789949 5.43694e-07 9.75086e-08)
(0.000788363 4.48552e-07 5.66612e-08)
(0.00078658 6.20123e-07 1.04316e-07)
(0.0007855 5.17523e-07 2.22362e-07)
(0.000784269 3.61806e-07 6.3699e-08)
(0.000782551 1.1278e-07 7.09282e-08)
(0.000781026 4.30818e-08 2.63725e-08)
(0.000779735 -7.23137e-08 4.70393e-08)
(0.000778063 -3.90676e-07 6.63061e-08)
(0.000776417 -2.9724e-07 7.69598e-08)
(0.000775318 -2.35387e-07 -1.23128e-07)
(0.000774074 -4.98699e-08 2.03624e-08)
(0.00077285 4.8914e-07 1.18581e-07)
(0.000771649 4.8319e-07 1.12003e-07)
(0.000769984 1.24073e-07 4.42607e-08)
(0.000768441 1.96246e-07 3.25774e-08)
(0.000767264 2.65857e-07 7.71302e-08)
(0.00076611 3.82305e-07 4.25895e-09)
(0.000764218 6.9147e-07 1.5181e-08)
(0.000762385 2.85927e-07 3.36426e-08)
(0.000761213 1.18886e-07 5.92078e-08)
(0.000759674 3.43351e-08 6.48233e-08)
(0.000758345 -1.20661e-07 7.42366e-08)
(0.000757738 -6.67152e-07 1.00255e-07)
(0.000756494 -1.57012e-07 6.32434e-08)
(0.000754885 -2.83489e-08 5.38823e-08)
(0.000753422 3.80635e-07 4.79646e-08)
(0.000751822 8.07675e-08 5.03517e-08)
(0.000750498 -8.10594e-08 -7.01962e-08)
(0.000749509 -1.65509e-07 1.0854e-07)
(-0.00828707 -0.0166524 -0.00011359)
(-0.0116326 -0.00663832 -0.00209157)
(0.0265592 0.0147742 0.000317139)
(-6.31882e-05 -0.00276925 0.000291775)
(-0.000734816 0.00189477 -3.91206e-05)
(-0.00144836 -0.00164774 -2.36589e-05)
(0.000415082 -0.000101591 3.68656e-05)
(0.000405659 5.08473e-05 -1.69646e-07)
(0.000826872 6.20223e-05 -1.48279e-06)
(0.000775633 3.12997e-05 -4.39921e-07)
(0.000796651 2.06228e-05 1.98749e-07)
(0.000797174 1.2651e-05 3.49737e-08)
(0.0007989 7.86035e-06 5.70418e-08)
(0.000798602 4.83121e-06 5.3063e-08)
(0.000797712 2.98859e-06 5.34457e-08)
(0.000796806 1.87544e-06 5.38157e-08)
(0.000795719 1.17375e-06 -4.91018e-08)
(0.000794159 7.59178e-07 1.11308e-08)
(0.000792445 3.38746e-07 7.51959e-08)
(0.000791053 3.00409e-07 4.21546e-08)
(0.000789762 2.25601e-07 3.11634e-08)
(0.000788503 7.26306e-08 4.42361e-08)
(0.000787075 1.02125e-07 4.30172e-08)
(0.000785227 2.39088e-07 3.50946e-08)
(0.000783566 -5.42666e-08 4.21178e-08)
(0.000782257 -2.2559e-08 3.01776e-08)
(0.000780971 -2.51392e-08 6.53217e-08)
(0.000779323 2.93383e-10 5.30656e-08)
(0.000778062 -5.02645e-08 -1.61171e-09)
(0.000777075 4.4331e-07 1.91039e-08)
(0.000775633 4.5984e-07 2.45643e-07)
(0.000774591 4.47832e-07 5.71447e-08)
(0.000773105 3.34639e-07 -7.00667e-09)
(0.000770934 1.99363e-07 -2.18807e-08)
(0.000769659 -2.90465e-08 8.84329e-08)
(0.000768557 9.61092e-08 5.08944e-08)
(0.000767147 5.20937e-08 1.36625e-07)
(0.000765752 -4.06867e-08 5.14743e-08)
(0.000764221 -1.84048e-07 2.38602e-08)
(0.000762689 5.70991e-08 8.7449e-08)
(0.000761252 1.24491e-07 6.99575e-08)
(0.000759751 2.30453e-07 5.41258e-08)
(0.000758411 5.65875e-07 9.2112e-08)
(0.00075764 6.61452e-07 1.3781e-07)
(0.000756598 2.79055e-07 7.77688e-08)
(0.000755105 2.83612e-07 1.2087e-07)
(0.00075344 2.58579e-07 5.11992e-08)
(0.000751736 4.05303e-07 7.54645e-08)
(0.00075027 2.29855e-07 5.37806e-08)
(0.000749322 1.40088e-07 1.18978e-07)
(0.0083724 -0.0128535 -0.00367828)
(-0.0123863 -0.00894211 0.000443074)
(-0.00892883 -0.00718467 0.000863053)
(0.0132283 -0.009665 0.000247696)
(-0.00303079 0.00567038 -0.000427965)
(-0.00270094 0.000340888 -0.000257145)
(0.00186152 -0.000160487 7.88072e-05)
(0.000390888 7.95813e-06 -1.586e-06)
(0.000812282 1.80952e-05 -1.27985e-06)
(0.000766347 1.42828e-05 -4.06627e-07)
(0.000789567 9.87467e-06 1.54932e-07)
(0.000791959 6.87982e-06 -3.26415e-07)
(0.000794974 4.26806e-06 5.56038e-08)
(0.00079602 2.79705e-06 4.92678e-08)
(0.000796197 1.83433e-06 4.90825e-08)
(0.000795631 1.22866e-06 4.77646e-08)
(0.000794702 6.07915e-07 5.19218e-08)
(0.000793583 2.61561e-07 4.54583e-08)
(0.000792462 -6.85883e-09 5.07119e-08)
(0.000791143 2.74522e-08 2.1715e-08)
(0.000789663 -4.47193e-08 6.92157e-08)
(0.000788207 -1.17441e-07 4.85826e-08)
(0.000786787 -3.23953e-07 -2.98548e-09)
(0.000785304 -2.84248e-07 6.25734e-08)
(0.000783941 -1.27549e-07 9.02933e-08)
(0.000782587 1.29978e-07 2.87626e-08)
(0.000781054 2.40366e-07 6.22564e-08)
(0.000779704 4.16339e-07 5.39959e-08)
(0.000778614 7.2083e-07 3.85059e-08)
(0.00077705 5.50875e-07 3.57702e-08)
(0.000775318 3.28355e-07 6.47618e-08)
(0.000773912 4.47931e-07 -2.15753e-08)
(0.000772536 -7.73661e-08 4.1976e-08)
(0.000771193 -7.7526e-08 -9.23104e-08)
(0.000769854 1.1853e-07 5.11322e-08)
(0.000768543 5.42651e-08 3.70374e-08)
(0.000767092 4.96727e-08 7.9377e-08)
(0.000765815 -6.82808e-08 4.79118e-08)
(0.000764341 -2.18495e-07 1.37988e-08)
(0.000762771 -1.77735e-07 5.55749e-08)
(0.000761429 -2.35562e-08 5.33008e-08)
(0.000760223 1.23376e-07 8.02275e-08)
(0.00075888 3.33236e-07 1.72786e-07)
(0.000757374 5.97019e-07 -9.79154e-08)
(0.000756017 2.08591e-07 -2.93609e-08)
(0.000754856 1.1662e-07 4.18035e-08)
(0.000753571 7.15152e-08 8.23315e-08)
(0.000751784 3.407e-07 5.0376e-08)
(0.000750162 1.893e-07 4.89313e-08)
(0.000749047 2.59203e-07 1.58173e-07)
(0.0182305 0.00247889 -0.000744897)
(0.00107276 0.000944272 0.00108236)
(-0.0150899 0.000163322 0.00161744)
(0.00649771 0.0130737 -0.00172827)
(-0.0408924 -0.0372321 0.00395986)
(-0.00899931 0.0128494 -0.000750471)
(0.000719515 0.000194485 6.44349e-05)
(0.000378018 -7.62212e-07 -2.21065e-06)
(0.000809434 -8.12555e-06 -9.45405e-07)
(0.000765112 -2.6037e-06 -5.41381e-07)
(0.000787318 -1.19852e-06 1.78938e-07)
(0.000790112 -6.56681e-07 2.60405e-09)
(0.00079376 -6.02148e-09 1.14956e-07)
(0.000795536 -2.69113e-09 5.25321e-08)
(0.000795735 -3.52543e-08 5.55413e-08)
(0.000795262 -5.23621e-08 4.82856e-08)
(0.000794503 3.47225e-09 4.89921e-08)
(0.000793387 -1.56724e-08 4.5867e-08)
(0.000792151 5.34795e-08 4.81813e-08)
(0.000791005 -1.01628e-09 9.38376e-08)
(0.000789582 -1.06397e-07 6.24086e-08)
(0.000788156 2.10289e-08 2.46623e-08)
(0.000786868 3.79393e-08 2.19585e-07)
(0.000785476 7.23137e-08 9.6249e-08)
(0.000784085 1.97575e-07 7.41557e-08)
(0.000782716 -8.46588e-08 6.6604e-08)
(0.000781326 1.57836e-07 6.57762e-08)
(0.000779918 2.74254e-07 5.96033e-08)
(0.000778224 3.82896e-07 2.33211e-07)
(0.000776576 2.25207e-07 1.56499e-08)
(0.000775498 8.30339e-08 5.45697e-08)
(0.000774079 -1.5501e-07 1.91256e-08)
(0.000772445 1.13681e-07 4.30873e-07)
(0.000771177 6.80285e-08 4.76873e-08)
(0.000769824 1.08866e-07 5.0134e-08)
(0.000768471 -7.61267e-08 4.51304e-08)
(0.000766993 -1.53475e-07 6.75583e-08)
(0.000765418 -8.20754e-08 7.76953e-08)
(0.000764085 -1.61702e-07 4.3448e-08)
(0.000762934 -1.52476e-07 -7.91389e-08)
(0.000761628 3.5567e-08 5.90303e-08)
(0.000760195 1.34514e-07 4.05048e-07)
(0.000758999 7.50038e-08 6.78043e-09)
(0.00075748 7.37598e-08 6.49687e-08)
(0.000755995 -2.24881e-08 6.28469e-08)
(0.000754933 -1.69666e-07 4.80456e-08)
(0.000753719 -4.95549e-07 6.29362e-09)
(0.000751882 -8.24547e-07 3.82653e-08)
(0.000750162 -2.93909e-07 5.1539e-08)
(0.000748764 3.58795e-08 5.04315e-08)
(0.00405565 0.00642321 -0.000481837)
(0.00721098 0.00565116 -0.000605546)
(-0.00190672 0.00601413 -0.000250155)
(-0.00571824 0.000382611 0.000342607)
(-0.0072189 -0.0115135 -2.38075e-05)
(0.00866457 0.00424489 0.000804694)
(0.00111554 -0.00094768 -2.98949e-05)
(0.00039182 -4.44444e-05 -1.653e-06)
(0.000822045 -2.70055e-05 -1.23844e-06)
(0.000774961 -1.63211e-05 -5.40146e-07)
(0.000791976 -1.06965e-05 1.52713e-07)
(0.000793432 -6.88444e-06 3.18622e-08)
(0.000795781 -4.12143e-06 8.2335e-08)
(0.000795976 -2.68835e-06 4.48432e-08)
(0.000796131 -1.76343e-06 4.30635e-08)
(0.000795677 -1.1421e-06 8.01564e-08)
(0.000794747 -7.08306e-07 5.0621e-08)
(0.000793644 -4.61055e-07 4.14249e-08)
(0.00079248 -2.57767e-07 2.53206e-08)
(0.000790943 -1.33213e-07 3.92361e-08)
(0.00078969 3.74502e-08 -3.72032e-08)
(0.000788388 6.19445e-08 2.24433e-07)
(0.00078685 1.58577e-07 8.11364e-08)
(0.000785503 8.66796e-08 6.54115e-08)
(0.000783745 9.95648e-08 6.40178e-09)
(0.000782537 1.81118e-07 -2.45416e-08)
(0.000781502 -3.08798e-08 3.83416e-08)
(0.000779982 -1.69624e-07 7.92592e-09)
(0.00077855 -7.12173e-08 3.14567e-08)
(0.000776673 -3.57578e-07 -9.34161e-08)
(0.000774842 -2.53979e-07 2.60379e-08)
(0.000773949 -2.32338e-07 1.62227e-07)
(0.000772815 -1.97139e-07 1.7152e-08)
(0.000771185 -1.40652e-07 -1.90448e-07)
(0.000769674 -1.71592e-07 -5.15466e-08)
(0.000768215 -9.63305e-08 4.56092e-08)
(0.000767086 -8.34686e-08 -3.92196e-09)
(0.000765806 1.34269e-08 4.56426e-08)
(0.000764255 1.53576e-07 5.36131e-08)
(0.000763018 1.75713e-07 5.38253e-08)
(0.000761787 1.81723e-07 4.47195e-08)
(0.000760271 3.68279e-07 2.64141e-07)
(0.000758803 2.58782e-07 3.4218e-08)
(0.000757253 4.60433e-08 2.8009e-08)
(0.000755714 -1.32643e-08 4.4484e-08)
(0.000754268 -1.78262e-07 4.30413e-08)
(0.000752756 -5.29019e-07 -7.4619e-08)
(0.00075204 -7.44253e-07 5.76275e-08)
(0.000751239 -4.83335e-07 1.04786e-07)
(0.00074937 -3.25267e-07 1.26776e-07)
(0.000897021 -0.00111623 0.000223942)
(-0.0166018 -0.00492563 0.00111388)
(0.0471472 0.0150914 -0.00280841)
(0.00542533 -0.0291023 0.0015179)
(-0.0167201 -0.00216594 0.000592144)
(-0.0169858 0.00078409 -2.65397e-05)
(0.00136243 -0.000716502 0.000112704)
(0.000423045 -1.59499e-05 -4.76872e-07)
(0.000837889 -3.32911e-05 -1.5415e-06)
(0.000785377 -2.40862e-05 -4.66664e-07)
(0.000799149 -1.64963e-05 1.3615e-07)
(0.000798356 -1.06974e-05 3.10109e-08)
(0.000799022 -7.15822e-06 5.08721e-08)
(0.000798494 -4.51286e-06 4.9557e-08)
(0.000797676 -2.88489e-06 5.17815e-08)
(0.000796587 -1.74587e-06 5.09463e-08)
(0.000795359 -1.04891e-06 4.92302e-08)
(0.000793952 -6.80712e-07 5.23544e-08)
(0.000792561 -3.85069e-07 8.25697e-08)
(0.000791373 -3.4567e-07 6.10465e-08)
(0.000789824 -1.04774e-07 -5.08746e-08)
(0.000788306 -1.45389e-07 4.50839e-08)
(0.000786898 -6.91133e-09 1.71241e-08)
(0.0007854 -4.74573e-08 5.03912e-08)
(0.000784202 2.27222e-08 1.26232e-07)
(0.000782553 1.79446e-07 1.01736e-07)
(0.000780888 -1.13648e-07 6.9373e-08)
(0.000779869 -2.02127e-07 7.51221e-08)
(0.000777992 -7.78392e-07 -5.60433e-08)
(0.000776351 -7.87424e-07 4.4856e-08)
(0.000775658 -4.39462e-07 2.05124e-08)
(0.000774154 -3.036e-08 5.81062e-08)
(0.000772563 -7.13627e-08 5.69659e-08)
(0.000771212 -1.04417e-07 6.44773e-08)
(0.000769881 -7.54108e-08 6.69447e-08)
(0.000768582 9.22903e-08 1.17852e-07)
(0.000767131 1.31162e-07 4.85185e-08)
(0.000765714 3.2606e-08 5.59946e-08)
(0.000764288 4.12442e-08 3.85441e-08)
(0.000762968 2.03819e-07 -5.65315e-08)
(0.000761867 -2.9959e-10 4.14742e-08)
(0.000760289 -2.38459e-07 -2.14382e-08)
(0.000758595 -1.33151e-07 5.76465e-08)
(0.000757139 -2.56012e-07 5.12243e-08)
(0.000755715 -1.05384e-07 9.10169e-09)
(0.000754291 -2.15662e-08 4.8281e-08)
(0.000753016 -1.58269e-08 3.46205e-08)
(0.000751944 1.31526e-07 5.07782e-08)
(0.000750695 -2.2868e-07 9.50249e-09)
(0.000749774 -3.08651e-07 4.22938e-08)
(-0.000767207 0.00447588 0.00343548)
(-0.000468309 0.0241434 -0.000492407)
(0.0153566 0.000537816 0.00123263)
(0.0162648 -0.0180989 -0.00424138)
(-0.00713802 -0.0318513 0.00328633)
(-0.000319651 0.00310523 -0.00109937)
(0.00139561 -0.000395992 4.47492e-06)
(0.000445265 -1.63334e-05 8.22776e-07)
(0.000854535 -5.76148e-05 -1.13957e-06)
(0.000796132 -3.04336e-05 -4.02679e-07)
(0.000808805 -2.0106e-05 1.68263e-07)
(0.000805169 -1.23146e-05 4.0383e-08)
(0.000803552 -7.7001e-06 5.88211e-08)
(0.000801345 -4.7918e-06 5.14801e-08)
(0.000799606 -2.91815e-06 6.1607e-08)
(0.000797982 -1.85616e-06 4.9796e-08)
(0.000796085 -1.27555e-06 1.1105e-07)
(0.000794478 -8.1715e-07 7.0425e-08)
(0.000792901 -5.18102e-07 6.07066e-08)
(0.000791295 -3.25617e-07 3.59681e-08)
(0.000789942 -3.22211e-07 4.94512e-08)
(0.00078851 -1.97718e-07 2.43177e-08)
(0.000786973 -3.30961e-07 3.81614e-08)
(0.00078554 -1.9956e-07 4.63652e-08)
(0.000784028 -3.36851e-07 6.24453e-08)
(0.000782366 -3.99581e-07 4.73315e-08)
(0.000781025 -1.95363e-07 3.94607e-08)
(0.000779155 -2.98217e-07 1.88209e-07)
(0.000777824 -3.51183e-07 1.47405e-07)
(0.000777103 2.24741e-07 6.70818e-08)
(0.000775793 3.59254e-07 9.11516e-08)
(0.000774412 4.22345e-08 5.15494e-08)
(0.000772723 4.31014e-08 4.1741e-08)
(0.000771181 9.09003e-08 4.43718e-08)
(0.00076992 1.13872e-07 7.16789e-08)
(0.000768473 -2.5628e-09 5.68795e-08)
(0.000767011 -5.96326e-08 5.23318e-08)
(0.000765693 -9.37515e-08 2.91578e-08)
(0.000764467 -2.28354e-08 4.04115e-08)
(0.000762965 -1.82919e-08 7.96717e-08)
(0.000761234 -1.01668e-07 1.83529e-08)
(0.000760107 -1.41247e-07 5.18609e-08)
(0.000758783 -2.86451e-08 6.68826e-08)
(0.00075729 -9.73623e-08 4.34499e-08)
(0.000756009 -7.61413e-08 6.27208e-08)
(0.000754381 5.04426e-08 4.43853e-08)
(0.000752949 4.2407e-07 4.06769e-08)
(0.000751775 2.94046e-07 5.31208e-08)
(0.000750697 1.40339e-07 8.32252e-08)
(0.00075004 -3.49607e-08 5.88632e-08)
(-0.000726624 -0.000253884 0.000750205)
(0.00264855 0.00199974 -0.00168146)
(-0.011679 0.000240931 -0.00132719)
(0.0141996 0.00440264 5.82396e-05)
(-0.00534669 -0.0181925 -0.00236518)
(-0.0313101 0.0166657 -0.00117724)
(0.000409056 0.000152616 3.92606e-05)
(0.00089005 -5.0934e-05 -2.00567e-06)
(0.000849264 -5.79438e-05 -1.68222e-07)
(0.000832683 -2.58348e-05 1.50241e-07)
(0.000821947 -1.60778e-05 6.08654e-08)
(0.000813956 -9.10609e-06 4.45993e-08)
(0.000808482 -5.44304e-06 4.85823e-08)
(0.000804506 -3.37186e-06 4.95622e-08)
(0.000801367 -2.0134e-06 4.06201e-08)
(0.000798653 -1.28837e-06 1.08369e-07)
(0.000796666 -8.63244e-07 1.04444e-07)
(0.000794905 -5.57504e-07 8.18915e-08)
(0.000793179 -4.23228e-07 4.59795e-08)
(0.000791621 -1.49655e-07 7.38518e-08)
(0.000789986 -5.89461e-08 4.51489e-08)
(0.000788298 -2.25948e-07 -3.15393e-08)
(0.000786898 -2.41747e-07 3.59176e-08)
(0.000785396 -2.71798e-07 5.19813e-08)
(0.000783955 -3.31004e-07 2.70481e-08)
(0.000782733 -2.72779e-07 5.05201e-08)
(0.000781017 -1.9578e-07 4.73812e-08)
(0.000779677 -1.69716e-07 7.0539e-08)
(0.000778646 2.41007e-07 7.35134e-08)
(0.000777239 3.18719e-07 -2.12214e-08)
(0.000775428 3.37501e-07 -4.45758e-09)
(0.000773757 2.10526e-07 1.0223e-07)
(0.000772623 -1.40928e-07 -1.8923e-07)
(0.000771299 -1.19213e-07 7.46079e-09)
(0.000769764 -1.37309e-07 2.41045e-08)
(0.000768366 -1.63459e-07 2.88229e-08)
(0.000767019 -1.20655e-07 -6.85326e-08)
(0.000765761 -1.93371e-07 4.33065e-08)
(0.000764382 -2.95358e-07 8.27299e-08)
(0.00076287 -3.23331e-07 3.79175e-08)
(0.000761714 -2.24422e-07 5.60604e-08)
(0.000760382 -8.9345e-08 1.64308e-08)
(0.000758651 1.15706e-07 6.74976e-09)
(0.000757081 8.26162e-08 3.58907e-08)
(0.000755901 1.26436e-07 6.7036e-08)
(0.000754915 7.13872e-08 -7.08496e-09)
(0.000753318 2.01896e-07 2.55516e-08)
(0.000751587 4.00291e-07 4.09168e-08)
(0.000750283 6.6994e-07 -7.2524e-08)
(0.000749639 4.39957e-07 8.64095e-08)
(0.00274249 0.00605989 -0.00018506)
(0.00923653 -0.0129774 -0.00326236)
(-0.00421648 -0.00197805 0.000511783)
(-0.00460887 0.00185697 0.000866528)
(0.0162852 0.0182302 -0.000778951)
(-0.003937 0.018159 -0.00154929)
(0.000752707 -4.06017e-05 3.13322e-06)
(0.000969431 -9.69105e-06 -2.5982e-06)
(0.000875433 -7.46266e-06 -1.88004e-08)
(0.000848695 -3.20392e-06 1.13646e-07)
(0.000829857 -1.73671e-06 9.72529e-08)
(0.000818548 -1.07315e-06 4.65598e-08)
(0.00081077 -6.93001e-07 5.1371e-08)
(0.000805662 -2.55857e-07 -2.1839e-07)
(0.000802229 -1.70933e-07 5.15891e-08)
(0.000799431 -9.17632e-08 6.69162e-08)
(0.000797005 -3.8684e-09 5.14252e-08)
(0.000795032 -1.55392e-08 1.0612e-07)
(0.000793413 -5.73357e-08 9.81009e-08)
(0.000791751 -1.04759e-07 4.11829e-08)
(0.000789848 -2.14215e-07 5.10977e-08)
(0.000788284 -1.95337e-07 9.05618e-08)
(0.000786919 -1.23786e-07 5.87642e-08)
(0.000785432 -1.20395e-07 4.66502e-08)
(0.000784031 3.02955e-09 -6.20409e-08)
(0.000782539 -2.4295e-08 -3.49771e-08)
(0.000781157 -5.72049e-08 1.58724e-07)
(0.000779702 1.23815e-07 4.75524e-08)
(0.000778433 9.22453e-08 3.32612e-08)
(0.000777221 -1.20798e-07 4.5347e-08)
(0.000775655 -1.98243e-07 8.40549e-08)
(0.000773813 -2.07958e-07 -1.35271e-08)
(0.000772312 -2.57737e-07 -1.00285e-07)
(0.000771187 -3.55912e-07 1.98971e-07)
(0.000769866 -1.84884e-07 3.82055e-08)
(0.000768495 -1.51617e-07 -3.2307e-10)
(0.000766975 -1.72429e-07 3.12451e-09)
(0.000765476 -2.337e-07 3.8613e-08)
(0.000764308 -6.03716e-07 5.22892e-08)
(0.000763057 -2.65613e-07 5.69478e-08)
(0.000761529 -1.75385e-07 6.89809e-08)
(0.000760533 -3.84743e-07 7.26982e-08)
(0.000758998 -4.42711e-07 4.07927e-08)
(0.000757302 1.21452e-07 2.3812e-08)
(0.000755993 3.78267e-08 1.85466e-08)
(0.000754473 3.9548e-08 4.01715e-08)
(0.000753356 -3.472e-07 2.35125e-08)
(0.000752355 2.87395e-08 3.29935e-08)
(0.000750733 2.34755e-07 -4.56212e-09)
(0.000748656 2.66534e-07 6.5807e-08)
(-0.00342059 0.0312866 0.000868971)
(0.00250795 -0.0225777 0.000981114)
(0.0130562 -0.00283515 -0.00381378)
(0.00736734 0.00568097 -0.000701368)
(0.0100053 -0.00125325 -0.00161074)
(-0.0070376 0.0155449 -0.000776428)
(0.00169058 0.000198409 -7.33658e-06)
(0.00153032 8.68548e-05 3.75409e-07)
(0.00141932 5.79717e-05 3.51236e-07)
(0.00139327 3.29871e-05 3.56768e-07)
(0.00137026 2.04301e-05 3.86722e-07)
(0.00135604 1.20684e-05 3.15618e-07)
(0.0013473 7.31132e-06 2.59321e-07)
(0.00134049 4.77155e-06 3.3657e-07)
(0.00133474 3.00965e-06 3.40275e-07)
(0.00133043 1.86847e-06 2.84432e-07)
(0.00132703 1.12695e-06 3.31163e-07)
(0.00132388 7.87913e-07 3.20864e-07)
(0.00132094 6.43026e-07 3.84076e-07)
(0.00131823 2.67859e-07 4.53588e-07)
(0.00131569 8.60181e-08 4.20589e-07)
(0.0013132 4.93127e-07 3.55511e-07)
(0.0013108 2.25054e-07 3.43908e-07)
(0.00130842 7.94897e-08 2.83981e-07)
(0.00130597 3.73439e-07 2.65306e-07)
(0.00130359 4.43484e-07 3.45119e-07)
(0.00130118 3.52406e-07 2.77195e-07)
(0.00129903 1.59928e-07 3.28425e-07)
(0.00129638 3.14088e-07 4.64371e-07)
(0.00129378 -4.04765e-07 4.80183e-07)
(0.00129125 -8.55664e-07 3.63858e-07)
(0.0012885 -8.24028e-07 1.18455e-07)
(0.00128642 -3.83103e-07 3.28752e-07)
(0.00128478 -2.96614e-08 3.68402e-07)
(0.00128253 2.65913e-07 3.10841e-07)
(0.00127973 1.37873e-07 2.99798e-07)
(0.00127718 1.36165e-07 3.16812e-07)
(0.00127435 4.64167e-07 2.9713e-07)
(0.0012728 9.91117e-07 2.73192e-07)
(0.00127122 4.23222e-07 3.43524e-07)
(0.00126825 1.27116e-07 2.57686e-07)
(0.00126569 -5.08179e-08 3.43668e-07)
(0.00126436 -9.82601e-07 3.60937e-07)
(0.0012617 -8.71961e-07 2.00086e-07)
(0.00125864 -4.65674e-07 2.86257e-07)
(0.00125632 -3.33658e-07 3.44346e-07)
(0.00125434 1.72093e-08 2.95831e-07)
(0.00125268 -2.58796e-07 3.23699e-07)
(0.00124976 -6.2254e-07 3.42411e-07)
(0.00124708 -5.0095e-07 2.26018e-07)
(0.000419457 -0.0283512 0.0108953)
(0.018023 0.000724391 0.0152985)
(0.0601586 -0.0111331 -0.0034151)
(-0.0276693 0.0162286 -0.00196396)
(-0.00484257 0.00750351 9.23312e-05)
(-0.00100567 0.0029558 0.000294716)
(0.00144313 0.000113025 2.90096e-07)
(0.00142134 0.000108335 3.8024e-07)
(0.00138092 0.000114336 3.488e-07)
(0.00136078 5.42618e-05 3.39834e-07)
(0.00135265 3.46463e-05 3.36949e-07)
(0.00134495 2.04531e-05 3.3563e-07)
(0.00134001 1.25979e-05 3.35045e-07)
(0.00133581 7.48083e-06 3.33384e-07)
(0.00133224 4.57362e-06 3.32768e-07)
(0.00132899 2.80901e-06 2.95078e-07)
(0.00132604 2.0705e-06 -3.25536e-08)
(0.0013236 1.50887e-06 3.97306e-07)
(0.0013209 1.2281e-06 5.16592e-07)
(0.00131799 8.09572e-07 3.02151e-07)
(0.00131578 8.54144e-07 3.90926e-07)
(0.00131312 7.06844e-07 3.66339e-07)
(0.00131021 1.05674e-06 6.46747e-07)
(0.00130842 8.95438e-07 8.04098e-07)
(0.00130629 6.70332e-07 3.1389e-07)
(0.00130337 2.31578e-07 3.35446e-07)
(0.00130081 1.06867e-07 3.0803e-07)
(0.00129865 -1.46834e-07 3.23879e-07)
(0.00129586 -7.95346e-07 2.94095e-07)
(0.00129308 -5.64674e-07 3.30333e-07)
(0.00129129 -4.34382e-07 5.53681e-08)
(0.00128929 -1.31106e-07 2.6366e-07)
(0.00128723 8.52339e-07 4.75111e-07)
(0.00128516 8.83231e-07 4.00596e-07)
(0.00128237 2.51739e-07 3.32003e-07)
(0.00127977 3.00042e-07 3.0789e-07)
(0.00127773 4.30434e-07 3.5694e-07)
(0.00127577 6.24043e-07 7.86704e-08)
(0.00127267 1.1255e-06 3.59393e-07)
(0.00126964 5.40738e-07 3.03834e-07)
(0.0012676 1.85761e-07 3.24346e-07)
(0.00126503 -9.12538e-09 3.61299e-07)
(0.00126284 -2.80581e-07 2.98266e-07)
(0.00126176 -1.0787e-06 5.21222e-07)
(0.00125963 -2.8516e-07 3.49899e-07)
(0.001257 -1.32582e-07 3.33698e-07)
(0.0012546 5.6556e-07 3.00334e-07)
(0.00125192 9.40918e-08 3.01931e-07)
(0.00124967 -1.99595e-07 8.43384e-08)
(0.00124799 -2.97978e-07 3.99958e-07)
(-0.0280423 -0.0164137 0.00154292)
(0.00231822 -0.0140677 -0.0173639)
(-0.00921617 0.027064 -0.007499)
(-0.0042077 0.00990884 0.000200773)
(0.016074 0.00416819 0.00107635)
(-0.00724601 0.00198973 -0.000835429)
(0.00110947 0.000331276 6.25126e-05)
(0.001215 0.000120946 7.07832e-07)
(0.00138055 9.39558e-05 -2.25302e-07)
(0.00129343 4.65793e-05 3.2047e-07)
(0.00132779 3.09944e-05 3.31837e-07)
(0.00132835 1.89913e-05 3.30602e-07)
(0.00133101 1.1836e-05 3.32902e-07)
(0.00133042 7.27805e-06 3.33348e-07)
(0.00132887 4.50492e-06 3.32199e-07)
(0.00132729 2.81385e-06 3.27425e-07)
(0.00132539 1.75808e-06 2.27726e-07)
(0.00132282 1.11543e-06 1.90055e-07)
(0.00132006 4.52258e-07 3.66234e-07)
(0.00131776 4.26028e-07 3.18579e-07)
(0.00131556 3.14608e-07 2.46446e-07)
(0.00131345 1.0391e-07 3.25103e-07)
(0.00131102 1.88559e-07 3.25821e-07)
(0.00130793 4.00798e-07 2.3126e-07)
(0.00130513 -1.3857e-07 3.08815e-07)
(0.00130288 -3.02664e-08 3.01274e-07)
(0.00130071 -1.37408e-08 3.3469e-07)
(0.00129791 4.44061e-08 3.16832e-07)
(0.00129586 -3.46272e-08 2.16473e-07)
(0.00129424 8.07938e-07 2.27438e-07)
(0.0012918 9.06645e-07 5.3025e-07)
(0.00129011 8.31465e-07 4.65828e-07)
(0.00128769 5.7547e-07 2.1381e-07)
(0.00128402 3.26641e-07 1.31044e-07)
(0.00128179 -4.50194e-08 3.59657e-07)
(0.00127995 1.27919e-07 3.30887e-07)
(0.00127758 9.53463e-08 3.78248e-07)
(0.00127522 -3.56513e-08 3.48117e-07)
(0.00127268 -2.51313e-07 3.02833e-07)
(0.00127004 7.63632e-08 3.69845e-07)
(0.00126756 1.78528e-07 3.41501e-07)
(0.00126511 3.75612e-07 2.905e-07)
(0.00126303 1.00025e-06 3.29422e-07)
(0.0012617 1.08954e-06 3.44573e-07)
(0.00125983 5.35269e-07 3.25715e-07)
(0.00125739 5.36068e-07 4.24889e-07)
(0.00125462 4.70205e-07 3.61386e-07)
(0.00125172 6.51525e-07 3.43288e-07)
(0.00124928 3.6116e-07 3.18111e-07)
(0.0012477 2.21553e-07 5.07621e-07)
(-0.00667311 0.00228157 0.00515094)
(-0.0386912 0.0147541 0.0214067)
(0.00562011 0.00164446 0.00365754)
(-0.00414742 -0.00439778 -0.00114573)
(0.0288142 0.00723831 -0.000548394)
(-0.0162133 -0.00681577 -0.0040197)
(-9.07152e-05 -0.00269667 -0.000314622)
(0.00119604 -3.99898e-06 1.45017e-07)
(0.00136303 2.47697e-05 2.74685e-07)
(0.00128135 2.0466e-05 3.86657e-07)
(0.00131797 1.4382e-05 3.28675e-07)
(0.00132087 1.01518e-05 -9.36972e-08)
(0.00132529 6.29625e-06 3.28908e-07)
(0.0013266 4.16898e-06 3.32212e-07)
(0.00132663 2.78313e-06 3.31382e-07)
(0.00132554 1.88797e-06 3.301e-07)
(0.00132391 9.38648e-07 3.33442e-07)
(0.00132197 4.46772e-07 3.1941e-07)
(0.00132003 1.95119e-08 3.14748e-07)
(0.00131782 5.75712e-09 2.91315e-07)
(0.00131538 -1.06296e-07 3.59138e-07)
(0.00131297 -2.30998e-07 3.26578e-07)
(0.00131058 -5.72886e-07 1.74835e-07)
(0.00130801 -4.90626e-07 3.86331e-07)
(0.00130575 -2.59649e-07 7.4569e-07)
(0.00130353 1.96305e-07 2.68831e-07)
(0.0013009 4.05301e-07 3.92828e-07)
(0.00129862 7.47849e-07 3.78311e-07)
(0.00129681 1.3502e-06 3.45092e-07)
(0.00129425 1.03749e-06 2.99434e-07)
(0.00129131 7.11095e-07 3.56057e-07)
(0.00128887 9.07353e-07 2.55039e-07)
(0.00128659 2.48549e-08 3.15215e-07)
(0.00128438 -1.00176e-07 1.56224e-07)
(0.00128212 2.02201e-07 2.97288e-07)
(0.00127994 8.5805e-08 3.03211e-07)
(0.00127752 5.07262e-08 3.5547e-07)
(0.00127534 -1.28246e-07 3.26141e-07)
(0.00127281 -4.23739e-07 1.92825e-07)
(0.00127018 -3.52772e-07 3.18449e-07)
(0.00126797 -2.31938e-08 3.21618e-07)
(0.00126605 3.01274e-07 4.61314e-07)
(0.00126372 6.47139e-07 6.08689e-07)
(0.00126117 9.89752e-07 -3.85555e-08)
(0.00125893 3.51352e-07 2.3837e-07)
(0.00125692 1.9247e-07 3.14007e-07)
(0.00125474 8.28179e-08 3.76719e-07)
(0.00125178 4.95859e-07 2.90291e-07)
(0.00124913 3.19452e-07 3.69087e-07)
(0.00124727 4.28014e-07 5.27704e-07)
(0.00475744 0.004776 -0.000944328)
(-0.0195431 -0.0231905 -0.00134705)
(-7.07206e-05 0.0212278 0.000973224)
(-0.00439704 0.00276705 -0.00491321)
(-0.044171 -0.0103338 0.038649)
(-0.0159027 0.0113057 0.0027459)
(0.000664389 -0.00247588 -6.19459e-05)
(0.00116538 -7.05816e-06 1.1858e-06)
(0.00135855 -1.27419e-05 5.56633e-07)
(0.00128 -4.06748e-06 3.97801e-07)
(0.00131477 -1.97799e-06 3.48107e-07)
(0.00131815 -1.10074e-06 3.74174e-07)
(0.00132347 -3.70655e-08 3.21817e-07)
(0.00132599 -5.57648e-08 3.31724e-07)
(0.001326 -1.33661e-07 3.38981e-07)
(0.00132496 -1.3979e-07 3.33308e-07)
(0.00132358 -2.51091e-08 3.30281e-07)
(0.00132166 -6.27892e-08 3.26026e-07)
(0.0013195 7.05582e-08 3.05256e-07)
(0.0013176 4.63047e-08 3.6986e-07)
(0.00131526 -1.71942e-07 3.61983e-07)
(0.00131287 6.32635e-08 2.89312e-07)
(0.0013107 6.50211e-08 7.74349e-07)
(0.00130833 9.53923e-08 3.75194e-07)
(0.001306 3.38514e-07 2.62606e-07)
(0.00130371 -1.68911e-07 3.51574e-07)
(0.00130139 2.44757e-07 3.78518e-07)
(0.00129908 4.47809e-07 3.29428e-07)
(0.00129621 6.55068e-07 4.99406e-07)
(0.00129343 4.00227e-07 3.01451e-07)
(0.00129163 1.83848e-07 3.49901e-07)
(0.00128924 -2.30307e-07 2.59551e-07)
(0.00128642 2.47233e-07 7.72576e-07)
(0.00128424 1.31082e-07 3.20399e-07)
(0.00128203 1.95293e-07 3.05647e-07)
(0.00127976 -1.21249e-07 3.17338e-07)
(0.00127731 -2.86106e-07 3.63665e-07)
(0.00127463 -2.00616e-07 2.96355e-07)
(0.00127241 -3.13004e-07 3.13251e-07)
(0.00127054 -2.56264e-07 -4.33509e-08)
(0.00126838 8.34124e-08 3.29988e-07)
(0.00126594 2.8457e-07 1.09909e-06)
(0.00126388 1.09194e-07 1.23922e-07)
(0.00126132 9.04556e-08 2.52313e-07)
(0.00125882 -1.24254e-07 3.99936e-07)
(0.00125705 -3.27393e-07 3.13591e-07)
(0.001255 -8.62186e-07 9.8887e-08)
(0.00125202 -1.32892e-06 2.86231e-07)
(0.00124918 -4.83495e-07 3.88554e-07)
(0.00124677 7.40931e-08 3.22974e-07)
(0.00174189 -0.00243013 0.000174508)
(-0.00780212 0.0221207 0.00047097)
(0.0115324 -0.0106951 -0.0022359)
(0.0082106 0.00316257 0.0014965)
(0.000345553 0.00477829 0.0136462)
(0.0107638 0.00231694 0.00396931)
(0.00213729 -0.00491177 -2.59267e-07)
(0.00118817 -0.00011891 3.1764e-06)
(0.00137457 -4.04915e-05 5.534e-07)
(0.00129466 -2.43754e-05 3.17967e-07)
(0.00132161 -1.61629e-05 2.89752e-07)
(0.00132325 -1.04458e-05 3.04422e-07)
(0.00132657 -6.22725e-06 3.36287e-07)
(0.00132646 -4.09403e-06 3.3148e-07)
(0.00132652 -2.73218e-06 3.56459e-07)
(0.00132567 -1.78296e-06 3.92697e-07)
(0.001324 -1.09328e-06 3.30619e-07)
(0.00132208 -7.03416e-07 3.27837e-07)
(0.00132017 -3.72581e-07 3.01143e-07)
(0.00131752 -1.24787e-07 3.42151e-07)
(0.0013154 1.29452e-07 2.43531e-07)
(0.00131326 1.61521e-07 7.64819e-07)
(0.00131062 2.81649e-07 3.42697e-07)
(0.00130835 1.50003e-07 3.23207e-07)