/*--------------------------------*- C++ -*----------------------------------*\
| =========                 |                                                 |
| \\      /  F ield         | OpenFOAM: The Open Source CFD Toolbox           |
|  \\    /   O peration     | Version:  5.0                                   |
|   \\  /    A nd           | Web:      www.OpenFOAM.org                      |
|    \\/     M anipulation  |                                                 |
\*---------------------------------------------------------------------------*/
FoamFile
{
    version     2.0;
    format      ascii;
    class       volVectorField;
    location    "2";
    object      U_0;
}
// * * * * * * * * * * * * * * * * * * * * * * * * * * * * * * * * * * * * * //

dimensions      [0 1 -1 0 0 0 0];

internalField   nonuniform List<vector> 
9228
(
(-0.00614935 0.000531498 0.00133)
(0.00117529 0.0298665 2.69277e-05)
(0.00274216 -0.00600838 -0.000187297)
(0.00717783 0.0025481 -0.000108687)
(0.00223454 -0.00324111 -0.00112714)
(-0.00110488 0.00736643 -8.93777e-06)
(0.000404363 7.02071e-05 -1.09401e-06)
(0.00080952 4.53489e-05 -1.94456e-06)
(0.000789831 3.22791e-05 -1.71226e-07)
(0.00079863 1.89923e-05 1.03382e-07)
(0.000799067 1.19698e-05 9.60095e-08)
(0.000798829 7.13407e-06 6.45357e-08)
(0.000798625 4.39055e-06 -8.00569e-09)
(0.000797284 3.04357e-06 2.26142e-08)
(0.000795349 1.87502e-06 4.48608e-08)
(0.000794042 1.15762e-06 2.65096e-07)
(0.000792737 6.6341e-07 5.11081e-08)
(0.000791153 4.89814e-07 8.03487e-08)
(0.000789587 3.04587e-07 6.43303e-08)
(0.000788323 2.11366e-08 8.47146e-08)
(0.000786985 -1.47225e-08 6.72249e-08)
(0.00078539 6.25204e-08 4.30711e-08)
(0.000783897 -9.46627e-08 2.41814e-08)
(0.000782441 3.86457e-08 4.36147e-08)
(0.000780963 2.10805e-07 7.15019e-08)
(0.00077956 2.71815e-07 7.36461e-08)
(0.000778154 2.64661e-07 5.42132e-08)
(0.00077698 5.80771e-08 4.63176e-08)
(0.000775048 1.53038e-07 5.30327e-08)
(0.000773172 -2.55649e-07 6.27294e-08)
(0.000771995 -6.26795e-07 -5.69871e-08)
(0.000770307 -4.91489e-07 1.19457e-09)
(0.000768786 -2.14492e-07 8.40935e-08)
(0.000767996 1.11346e-07 6.18679e-09)
(0.000766867 5.69266e-08 4.19844e-08)
(0.000765057 -8.66416e-08 7.30591e-08)
(0.000763297 -1.64413e-07 1.52192e-07)
(0.000761713 8.53996e-08 1.42556e-09)
(0.000760265 3.25023e-07 -7.78022e-08)
(0.000759159 4.04784e-07 7.37427e-08)
(0.00075795 1.0142e-07 2.52191e-08)
(0.000756311 6.09722e-09 7.15473e-08)
(0.000755019 -2.91712e-07 9.15745e-08)
(0.000753677 -3.93461e-07 2.43433e-07)
(0.000752171 -2.00936e-07 3.71674e-08)
(0.000750642 -2.40133e-07 6.33666e-08)
(0.000749313 -2.88731e-07 6.34759e-08)
(0.00074812 -5.05072e-07 1.80569e-07)
(0.000746439 -3.21234e-07 -2.26243e-08)
(0.000744713 -2.24723e-07 7.01421e-08)
(0.00952903 -0.0102845 -0.000546041)
(0.00809861 -0.0112643 -0.000433129)
(-0.0255123 0.00949929 0.000815552)
(-0.00328627 0.00275234 0.000502238)
(0.00955554 -0.00110939 0.000302504)
(-0.000495525 0.0021504 -2.15289e-05)
(0.000218591 1.52623e-05 9.28077e-07)
(0.000790854 6.44342e-06 -2.5723e-06)
(0.000786241 3.44522e-05 -6.97052e-08)
(0.000789309 1.25311e-05 -4.99419e-08)
(0.000793903 9.072e-06 3.26775e-08)
(0.00079514 5.35243e-06 3.38114e-08)
(0.000795787 3.37811e-06 4.44187e-08)
(0.000795452 1.80809e-06 4.19447e-08)
(0.000794723 1.18372e-06 4.45607e-08)
(0.000793522 8.13951e-07 3.27312e-08)
(0.000792203 6.55467e-07 4.61392e-08)
(0.000791106 4.99398e-07 6.62416e-08)
(0.000789693 4.27076e-07 6.86838e-08)
(0.000788139 3.30591e-07 2.48032e-08)
(0.000786708 2.49153e-07 9.63568e-08)
(0.000785118 2.30886e-07 6.07431e-08)
(0.000783824 5.40433e-07 8.36607e-08)
(0.000782751 3.73862e-07 1.53518e-08)
(0.000781128 4.11286e-07 -3.95756e-08)
(0.000779391 8.10419e-08 1.51958e-07)
(0.000777904 -4.09451e-08 4.42249e-08)
(0.000776497 -1.98161e-07 4.49764e-08)
(0.000774831 -7.83593e-07 6.01951e-08)
(0.000773032 -4.38591e-07 5.35248e-08)
(0.000771853 -4.28029e-07 1.35505e-07)
(0.000770846 -2.29502e-07 2.98174e-08)
(0.000769693 3.78912e-07 1.85918e-07)
(0.000768109 6.89859e-07 2.39661e-07)
(0.000766331 2.52411e-07 4.5121e-08)
(0.000764885 7.68129e-08 3.99986e-08)
(0.000763529 8.19551e-08 5.08918e-08)
(0.000762126 1.54525e-07 5.34925e-08)
(0.000760566 2.80137e-07 3.43247e-08)
(0.000758967 4.08783e-07 6.65078e-08)
(0.000757473 -8.88447e-09 4.64181e-08)
(0.000755979 -3.15843e-07 6.02967e-08)
(0.000754636 -5.75733e-07 2.91054e-08)
(0.000753612 -2.97606e-07 6.94759e-08)
(0.000752203 -1.16397e-07 4.28733e-08)
(0.000750702 -1.35476e-07 5.22069e-08)
(0.000749347 4.21035e-08 6.27532e-08)
(0.000747959 -1.26955e-07 4.68209e-08)
(0.000746422 -3.31834e-07 8.43842e-08)
(0.000745425 -2.23378e-07 2.84341e-08)
(-0.00975372 -0.0133537 -6.94603e-05)
(-0.00751311 -0.0148748 -0.00165862)
(0.0445265 0.0153639 2.98622e-05)
(-0.000903645 -0.00237013 0.00032121)
(-0.000400747 0.00198434 -0.000120453)
(-0.00153133 -0.00199193 -1.26744e-05)
(0.000386747 -0.000147144 3.6771e-05)
(0.000381788 -1.20888e-06 -5.98185e-07)
(0.000817392 9.86398e-06 -1.48483e-06)
(0.000766826 -7.07281e-07 -4.78105e-07)
(0.000790021 1.25108e-06 2.02064e-07)
(0.000791666 7.0495e-07 3.98627e-08)
(0.00079417 5.3911e-07 5.79163e-08)
(0.000794527 3.53307e-07 5.13269e-08)
(0.000794099 2.60445e-07 5.18908e-08)
(0.000793377 1.29492e-07 2.98708e-08)
(0.000792342 1.65009e-07 3.99237e-08)
(0.000790866 1.52142e-07 4.84228e-08)
(0.000789375 8.38364e-08 5.54699e-09)
(0.000788099 1.10428e-07 4.2653e-08)
(0.000786858 7.51368e-08 6.49204e-08)
(0.000785751 8.84821e-08 4.3757e-08)
(0.000784071 1.9407e-07 8.8074e-08)
(0.000782276 8.7387e-08 -9.76387e-08)
(0.000780594 -2.92954e-07 1.33996e-08)
(0.000778993 -8.63676e-08 2.8864e-08)
(0.000777805 -8.16611e-08 7.27599e-08)
(0.000776055 -3.27768e-08 6.15946e-08)
(0.000774751 -5.14004e-09 -6.15389e-08)
(0.000773622 4.86269e-07 2.52355e-08)
(0.00077226 7.94001e-07 8.03554e-08)
(0.000771316 7.27401e-07 6.78289e-08)
(0.000769932 3.96683e-07 2.93848e-07)
(0.000767833 1.36817e-07 1.12557e-07)
(0.000766097 4.09444e-08 8.58508e-08)
(0.000764843 1.0481e-07 5.12039e-08)
(0.000763393 9.46878e-08 4.80526e-08)
(0.000761958 5.32537e-08 6.62472e-08)
(0.00076058 9.11274e-08 4.42531e-08)
(0.000758794 -7.66299e-08 4.4873e-08)
(0.000757043 -3.0588e-09 4.31173e-08)
(0.000755604 4.58035e-08 5.07274e-08)
(0.000755046 5.47409e-07 2.63653e-07)
(0.000754254 2.52845e-07 8.08226e-08)
(0.000752377 5.96151e-08 6.42546e-08)
(0.000750841 1.78781e-07 5.33972e-08)
(0.000749324 3.20637e-07 6.92247e-08)
(0.000747653 1.62142e-07 7.47154e-08)
(0.000746325 9.28304e-08 6.10852e-08)
(0.000745405 7.72559e-08 6.80626e-08)
(0.00665967 -0.0144267 -0.00338332)
(-0.00651029 -0.00743138 0.000546909)
(-0.00489789 -0.00618976 0.00126797)
(0.0119468 -0.0110893 0.00025248)
(-0.00465312 0.00489135 0.000188947)
(-0.00251736 0.000894191 -0.000261183)
(0.00189739 -0.00045082 7.71864e-05)
(0.000416473 -4.99423e-05 -1.53941e-06)
(0.000841157 -2.45683e-05 -1.30537e-06)
(0.000778241 -1.25328e-05 -2.76453e-07)
(0.000795602 -6.91751e-06 1.63686e-07)
(0.000794203 -3.73603e-06 2.70343e-08)
(0.000795318 -2.3447e-06 5.61715e-08)
(0.000795085 -1.26366e-06 4.87866e-08)
(0.000794432 -5.58773e-07 4.62829e-08)
(0.000793396 -2.43477e-07 4.63726e-08)
(0.000792228 -2.92256e-07 4.48574e-08)
(0.000791002 -2.32182e-07 2.80917e-08)
(0.00078964 -1.64618e-07 -2.07186e-08)
(0.000788128 -2.0425e-07 3.13068e-08)
(0.000786681 -1.18576e-07 6.12506e-08)
(0.000785266 -2.3182e-07 4.53898e-08)
(0.000783821 -4.52449e-07 9.15321e-09)
(0.000782142 -2.91694e-07 6.05662e-08)
(0.00078091 -2.72505e-07 6.08408e-08)
(0.000779656 1.07314e-07 2.76536e-08)
(0.00077797 2.25493e-07 5.65434e-08)
(0.000776593 3.39918e-07 7.92736e-08)
(0.000775478 8.46287e-07 1.72394e-08)
(0.000774027 6.97644e-07 2.33186e-08)
(0.000772148 7.83824e-07 1.78312e-08)
(0.000770344 7.47961e-07 -6.34426e-09)
(0.000768951 2.11892e-07 4.5044e-08)
(0.000767663 -8.88939e-08 3.90365e-08)
(0.00076629 7.05225e-08 5.14016e-08)
(0.000764952 1.47355e-08 3.96456e-08)
(0.000763464 -3.01693e-08 4.2022e-08)
(0.000762122 -5.07369e-08 2.9499e-08)
(0.000760403 -3.49485e-07 -1.32259e-09)
(0.00075885 -2.36847e-07 3.31059e-08)
(0.000757626 5.51514e-08 6.07217e-08)
(0.000756665 3.07996e-07 1.20353e-07)
(0.000754891 6.26462e-07 4.69543e-08)
(0.000752998 3.23032e-07 1.08283e-08)
(0.000752107 3.36506e-08 3.6271e-08)
(0.000751025 1.50541e-08 4.01793e-08)
(0.000749322 -4.85204e-08 7.94704e-08)
(0.000747673 6.89266e-08 1.30169e-08)
(0.000746313 2.61916e-07 4.27108e-08)
(0.000745213 2.16763e-07 4.68221e-08)
(0.0186404 0.00252679 -0.000782378)
(0.00138868 0.0014964 0.00132481)
(-0.0102328 0.00306863 0.00155737)
(0.0368532 0.0310448 -0.0068209)
(-0.0293045 -0.0198471 0.00425225)
(-0.0105935 0.0176896 -0.000975848)
(0.00095273 0.000191032 6.88441e-05)
(0.000437508 -2.69518e-05 -1.89294e-06)
(0.000855106 -2.52001e-05 -1.15215e-06)
(0.000788674 -1.43568e-05 -4.8829e-07)
(0.000800971 -9.31027e-06 1.72444e-07)
(0.000797348 -5.89016e-06 9.03025e-08)
(0.000797236 -3.40442e-06 2.89724e-07)
(0.000796743 -2.26064e-06 5.34658e-08)
(0.000795362 -1.64196e-06 2.41741e-08)
(0.000793702 -1.0991e-06 2.02455e-08)
(0.00079235 -6.43458e-07 4.82441e-08)
(0.000791022 -4.72933e-07 4.6344e-08)
(0.000789409 -3.12637e-07 6.53575e-08)
(0.000788156 -6.86869e-08 6.19605e-08)
(0.000786825 -2.88438e-07 6.43969e-08)
(0.000785335 5.87039e-08 1.29669e-07)
(0.000783999 4.95945e-08 3.85039e-08)
(0.000782503 9.91387e-08 9.63231e-08)
(0.000781094 3.06679e-07 6.85118e-08)
(0.000779614 7.31285e-08 6.50079e-08)
(0.000778093 1.70683e-07 6.59883e-08)
(0.000776825 1.89241e-07 2.68693e-08)
(0.000775192 2.00481e-07 -6.61888e-10)
(0.000773535 8.63688e-08 2.0315e-08)
(0.000772315 1.39442e-07 5.32939e-08)
(0.000770595 -2.3068e-07 3.92496e-08)
(0.000768883 9.21846e-08 2.99521e-08)
(0.000767655 2.11698e-08 4.83546e-08)
(0.000766226 9.39976e-08 5.94059e-08)
(0.000764716 -8.85305e-08 4.6461e-08)
(0.000763311 -1.4938e-07 -8.38549e-08)
(0.00076156 -2.5004e-07 6.29802e-08)
(0.000760349 -2.12201e-07 1.06931e-07)
(0.000759302 2.19403e-08 4.85809e-08)
(0.000757724 1.62852e-07 5.16341e-08)
(0.000756316 4.18571e-07 1.7063e-07)
(0.000755061 1.16931e-07 6.28798e-08)
(0.00075351 1.37118e-07 2.32235e-09)
(0.00075199 9.50657e-08 5.0959e-08)
(0.000750738 -1.36969e-07 4.59602e-08)
(0.000749391 -4.36383e-07 -4.65675e-08)
(0.000748041 -3.62949e-07 1.5149e-08)
(0.000746503 -2.89131e-07 4.09397e-08)
(0.000744809 9.39177e-08 9.05537e-08)
(0.00388731 0.00633725 -0.000452913)
(0.0074893 0.00475577 -0.000566046)
(-0.0035357 0.00637589 -0.000413116)
(-0.00512496 0.0002915 0.000343246)
(-0.00895227 -0.0118725 -1.44061e-05)
(0.00831767 0.00538727 0.000768666)
(0.0012019 -0.000754068 -2.98368e-05)
(0.00043966 -3.7029e-05 -1.20881e-06)
(0.000858738 -2.13557e-05 -1.41085e-06)
(0.000797956 -1.30494e-05 -3.88002e-07)
(0.00080614 -9.0778e-06 1.50383e-07)
(0.000801557 -5.91632e-06 1.43071e-07)
(0.000799837 -3.55621e-06 2.64308e-08)
(0.000797277 -2.40209e-06 4.65832e-08)
(0.000795878 -1.74582e-06 1.08111e-07)
(0.000794641 -1.17941e-06 7.4612e-08)
(0.000793009 -6.69101e-07 4.94546e-08)
(0.000791415 -3.30763e-07 4.99582e-08)
(0.000790143 -1.68057e-07 2.17137e-08)
(0.000788157 1.15573e-07 8.80978e-08)
(0.000786839 3.37704e-07 -2.33774e-08)
(0.000785688 2.46186e-07 3.72299e-08)
(0.000783871 2.18694e-07 1.5764e-07)
(0.000782462 1.38917e-07 2.93602e-08)
(0.000780877 1.03543e-07 5.50147e-08)
(0.000779485 6.42624e-08 5.19509e-08)
(0.000778115 -3.98834e-08 3.76894e-08)
(0.000776628 -1.86924e-07 1.66391e-08)
(0.000775347 -2.16778e-07 1.06698e-07)
(0.000773948 -3.98923e-07 7.71306e-08)
(0.000771751 -6.7307e-07 -1.00332e-08)
(0.000770284 -4.7485e-07 -1.19435e-08)
(0.000769265 -3.45257e-07 1.47521e-08)
(0.000767664 -1.95496e-07 5.0802e-08)
(0.000766152 -2.5151e-07 3.95521e-08)
(0.000764648 -1.0729e-07 4.09982e-08)
(0.000763263 -9.26617e-08 5.75455e-08)
(0.000762045 -6.82907e-09 4.91329e-08)
(0.000760745 2.94591e-07 1.1243e-07)
(0.000759319 1.57225e-07 6.79311e-08)
(0.000758121 2.50406e-07 3.05784e-08)
(0.000756606 3.04123e-07 -3.69575e-08)
(0.000754538 2.45253e-07 2.50174e-08)
(0.000752971 4.6364e-08 4.8271e-08)
(0.000751765 6.79006e-08 3.39227e-08)
(0.000750364 -1.26849e-07 4.48207e-08)
(0.000749044 -4.40578e-07 -3.40461e-07)
(0.00074786 -4.87919e-07 2.61506e-08)
(0.000746885 -4.25976e-07 1.20151e-07)
(0.000745456 -1.62857e-07 1.79349e-07)
(0.000883956 -0.00143938 0.000204106)
(-0.0145682 -0.00438279 0.00123992)
(0.0537916 0.0148674 -0.00580131)
(0.00757003 -0.0306378 0.0042033)
(-0.00172842 -0.00242879 0.000448133)
(-0.0143526 0.00318543 0.000348847)
(0.0013111 -0.000517779 0.000115506)
(0.000446283 -1.12436e-05 7.55024e-08)
(0.000863407 -1.54778e-05 -1.57585e-06)
(0.000803725 -1.01702e-05 -3.19341e-07)
(0.000809867 -6.84746e-06 1.44328e-07)
(0.000804241 -4.24113e-06 4.4299e-08)
(0.000801624 -2.96542e-06 5.40449e-08)
(0.000799004 -1.79072e-06 5.10829e-08)
(0.000796891 -9.93729e-07 5.4179e-08)
(0.000795049 -5.74291e-07 5.21489e-08)
(0.000793412 -3.97531e-07 5.0242e-08)
(0.000791649 -1.86381e-07 4.73146e-08)
(0.000789965 -6.37241e-08 4.77456e-08)
(0.000788786 -1.25829e-07 7.09171e-08)
(0.000786985 2.60637e-07 1.1477e-07)
(0.000785184 -7.37024e-09 4.42997e-08)
(0.000783863 1.30178e-07 -3.71271e-08)
(0.000782357 3.7087e-08 5.21568e-08)
(0.000780999 8.53835e-08 1.30454e-08)
(0.000779435 2.58215e-07 1.92513e-07)
(0.00077778 2.39635e-08 4.84774e-08)
(0.000776606 -3.43601e-08 2.55194e-08)
(0.00077493 -4.33338e-07 5.17876e-08)
(0.000772969 -7.52603e-07 4.51937e-08)
(0.000772224 -5.89423e-07 1.38252e-07)
(0.00077101 -1.62812e-07 1.20745e-07)
(0.000769235 -1.66884e-07 4.30149e-08)
(0.000767775 -1.71821e-07 6.12263e-08)
(0.000766338 -1.75966e-07 1.82464e-07)
(0.000764917 -9.67962e-08 5.61684e-08)
(0.000763437 -1.8036e-09 4.87503e-08)
(0.000762044 1.72942e-07 5.08609e-08)
(0.000760553 1.44818e-07 5.42605e-08)
(0.000759245 2.64358e-07 1.15641e-08)
(0.000757906 2.45986e-09 4.80868e-08)
(0.000756308 -2.91552e-07 5.86986e-09)
(0.000754737 -3.32374e-07 5.84442e-08)
(0.000753287 -1.43649e-07 4.86525e-08)
(0.000751774 -1.21274e-07 8.4263e-09)
(0.000750104 -1.00162e-08 4.71397e-08)
(0.000748944 -3.49769e-08 -1.65765e-07)
(0.000748064 -2.96729e-07 6.6295e-08)
(0.000746918 -1.48526e-07 2.14216e-07)
(0.000745544 -2.97532e-07 1.65599e-09)
(-0.000817457 0.00381806 0.00382498)
(-0.000377836 0.0249367 -0.000722041)
(0.0102847 -0.000344467 0.000540848)
(0.0124753 -0.0313346 -0.00151156)
(-0.0367349 -0.0561334 0.011112)
(-0.00383541 0.000837231 -0.00102593)
(0.00144046 -0.000570056 -3.36282e-06)
(0.000493509 -1.02517e-05 1.00711e-06)
(0.000879138 -2.01858e-05 -1.25163e-06)
(0.000808704 -5.29081e-06 -3.97728e-07)
(0.000813579 -3.64001e-06 1.47415e-07)
(0.000806431 -1.79728e-06 3.76719e-08)
(0.000802915 -1.08082e-06 5.55062e-08)
(0.000799752 -6.61882e-07 4.79262e-08)
(0.000797404 -3.70355e-07 5.07935e-08)
(0.00079539 -2.87217e-07 4.91388e-08)
(0.000793495 -1.81929e-07 1.21222e-07)
(0.000791833 -1.93172e-07 6.68324e-08)
(0.00079022 -9.4255e-08 -1.51437e-07)
(0.000788563 -1.09006e-07 9.43841e-08)
(0.000786987 -3.13999e-07 4.45505e-08)
(0.000785525 -7.95519e-08 4.53818e-08)
(0.000783926 -2.68096e-07 2.85942e-08)
(0.000782406 -1.32647e-07 4.72367e-08)
(0.000781153 -2.28936e-07 7.33321e-08)
(0.000779407 -3.1262e-07 4.47296e-08)
(0.000777749 3.56801e-08 2.50902e-08)
(0.000776059 5.65366e-09 4.64584e-08)
(0.000774454 -1.76852e-07 4.57439e-08)
(0.000773759 3.03182e-07 6.96075e-08)
(0.000772493 4.95092e-07 9.04631e-08)
(0.000770815 1.85702e-07 1.26837e-07)
(0.000769255 3.24484e-07 4.79777e-08)
(0.000767654 1.08134e-07 4.9521e-08)
(0.000766248 5.64504e-08 4.63795e-08)
(0.000764866 -2.26601e-07 5.61896e-08)
(0.0007636 -2.4742e-07 5.71807e-08)
(0.000762228 -1.48835e-07 4.02828e-08)
(0.000760858 7.40376e-08 3.75458e-08)
(0.00075914 1.38295e-07 6.63075e-08)
(0.000757426 -6.6864e-08 1.30554e-08)
(0.000756189 -9.87398e-08 4.71951e-08)
(0.000754725 -1.72065e-07 5.43576e-08)
(0.000753237 -1.37404e-07 4.93596e-08)
(0.000751934 -8.55189e-08 5.72924e-08)
(0.000750473 9.89704e-08 4.49863e-08)
(0.000748687 4.52244e-07 5.47118e-08)
(0.00074772 5.85827e-07 7.11694e-08)
(0.000746892 1.85086e-07 4.00715e-08)
(0.000746013 -5.04741e-08 1.97396e-08)
(-0.00267937 0.000779651 0.000899313)
(-0.00265269 0.00111741 -0.00196411)
(-0.00432786 0.00362909 -0.00134004)
(0.028088 0.00934706 0.000212433)
(0.0184886 -0.0396272 -0.00337425)
(-0.0384097 0.0221041 -0.000359098)
(0.000500893 0.000232913 4.04288e-05)
(0.000902032 5.30777e-05 -2.09829e-06)
(0.000844205 -1.76525e-06 -3.21436e-07)
(0.000824664 6.24187e-06 7.48508e-09)
(0.000814323 2.9369e-06 2.89778e-08)
(0.000807496 2.29227e-06 3.23095e-08)
(0.000803077 1.44017e-06 4.43369e-08)
(0.000799912 6.54486e-07 4.87848e-08)
(0.000797371 5.00229e-07 4.6565e-08)
(0.000795292 3.86278e-07 1.18984e-07)
(0.000793534 2.12571e-07 -1.22542e-08)
(0.000791761 1.73583e-08 4.74103e-07)
(0.000790073 -1.20625e-08 3.58117e-09)
(0.000788513 6.29519e-08 7.27233e-08)
(0.000787024 -3.26137e-08 4.784e-08)
(0.000785244 -2.02336e-07 6.93902e-08)
(0.000783799 -2.7918e-07 6.46992e-09)
(0.000782409 -2.62258e-07 5.09541e-08)
(0.000780777 -3.09914e-07 2.61021e-08)
(0.000779768 -5.16791e-07 5.85761e-08)
(0.000778179 -3.77646e-07 -1.34398e-08)
(0.000776342 -1.80181e-07 3.24931e-07)
(0.000775302 8.49584e-08 9.57818e-08)
(0.000773808 4.35615e-07 3.95491e-08)
(0.000772075 2.82775e-07 1.26343e-07)
(0.000770794 1.5758e-07 6.3835e-08)
(0.000769137 -1.07491e-07 9.3209e-08)
(0.000767439 -9.75117e-08 5.54613e-08)
(0.00076592 -1.59023e-08 2.68579e-08)
(0.000764538 1.67158e-07 9.7352e-08)
(0.000763536 2.20909e-07 6.9089e-08)
(0.000762447 -6.15555e-08 4.98519e-08)
(0.000760912 -3.48766e-07 8.12678e-08)
(0.000759069 -6.14452e-07 3.51018e-08)
(0.00075761 -2.63673e-07 4.44192e-08)
(0.000756177 -1.7892e-07 -2.09528e-08)
(0.000754691 -4.0254e-08 4.17489e-08)
(0.000753397 1.47146e-07 4.13743e-08)
(0.00075207 1.6753e-07 5.34994e-08)
(0.000750775 2.08337e-07 4.75913e-08)
(0.00074955 4.39454e-07 6.50307e-08)
(0.000747726 1.00261e-06 2.59097e-08)
(0.000746122 6.66061e-07 -4.59865e-08)
(0.000745372 3.51081e-07 8.85448e-08)
(0.0105437 0.00847401 -0.00203218)
(0.00936298 -0.0134323 -0.00313358)
(-0.00339999 -0.00168115 -0.000181609)
(-0.00368389 -0.00650087 0.000611786)
(0.0179691 0.0203055 -0.000504985)
(-0.00673802 0.0187913 -0.00166241)
(0.000590208 0.000104461 2.29275e-06)
(0.00085326 6.24545e-05 -2.51732e-06)
(0.000819091 3.14476e-05 -1.58064e-07)
(0.000814744 1.83411e-05 3.78945e-08)
(0.000808747 1.05633e-05 7.43436e-08)
(0.000804625 6.0972e-06 3.35892e-08)
(0.000800905 3.60362e-06 4.71065e-08)
(0.0007986 2.51954e-06 6.63377e-08)
(0.000797083 1.49122e-06 4.93829e-08)
(0.000795038 8.96155e-07 5.282e-08)
(0.000793039 4.87819e-07 4.62615e-08)
(0.000791555 2.56719e-07 2.79608e-07)
(0.000790279 -1.46717e-10 7.30411e-09)
(0.000788538 -1.32907e-07 4.87025e-08)
(0.000786656 -1.54283e-07 9.9145e-08)
(0.000785218 -1.657e-07 1.80416e-07)
(0.000783854 -3.85833e-08 5.59505e-08)
(0.000782371 -8.84388e-08 4.63439e-08)
(0.000780838 -1.33883e-08 2.16336e-08)
(0.000779327 6.00014e-08 5.7546e-08)
(0.000778173 -1.80345e-07 5.22217e-08)
(0.000776639 3.95142e-08 4.74513e-08)
(0.000775223 3.30935e-07 5.97166e-09)
(0.000774004 -1.63313e-07 1.18087e-07)
(0.000772143 -1.77818e-07 6.55957e-08)
(0.000770326 -2.29311e-07 3.50622e-08)
(0.000768937 -5.70031e-07 9.42804e-09)
(0.00076777 -5.13603e-07 2.78939e-08)
(0.000766579 -1.27874e-07 3.6573e-08)
(0.000765162 2.42343e-07 2.44007e-08)
(0.000763314 2.88296e-07 -3.05745e-08)
(0.000761517 5.18756e-08 4.71238e-08)
(0.00076017 -2.99281e-07 9.05618e-09)
(0.00075925 -4.67455e-07 6.31348e-08)
(0.000757973 -2.29809e-07 6.55989e-08)
(0.000756469 -1.97537e-07 2.95063e-08)
(0.000755133 -1.23917e-07 3.72038e-08)
(0.000753495 6.56136e-08 2.93271e-08)
(0.000752009 1.00365e-07 -3.32454e-08)
(0.00075081 1.48301e-07 4.31583e-08)
(0.000749675 -5.24821e-09 1.52326e-08)
(0.000747997 -3.98789e-08 2.53535e-08)
(0.000746064 3.10808e-07 -2.12436e-08)
(0.000744745 2.19946e-07 6.65638e-08)
(-0.00362262 0.0351136 0.000814143)
(0.00464082 -0.0234153 0.000664869)
(0.0119181 -0.000157003 -0.00462606)
(0.00931519 0.0107881 -0.000609654)
(0.0109656 0.000339072 -0.00178145)
(-0.00772673 0.0153801 -0.000884071)
(0.00127096 0.000183265 -9.0165e-06)
(0.0013739 6.29817e-05 3.32316e-07)
(0.00132894 4.53925e-05 3.28046e-07)
(0.00133869 2.61379e-05 3.41239e-07)
(0.00133632 1.63937e-05 3.77836e-07)
(0.00133406 9.6184e-06 3.46863e-07)
(0.0013326 5.86684e-06 2.52024e-07)
(0.00132969 4.13793e-06 5.71407e-08)
(0.0013261 2.53027e-06 3.39617e-07)
(0.00132361 1.53246e-06 5.60485e-07)
(0.00132123 8.76345e-07 3.33481e-07)
(0.00131854 6.908e-07 3.61928e-07)
(0.00131578 4.20899e-07 3.81589e-07)
(0.00131356 -2.86981e-08 3.55358e-07)
(0.00131134 -4.13762e-08 3.63461e-07)
(0.00130868 1.69396e-07 1.69708e-07)
(0.00130617 -5.88591e-08 3.31429e-07)
(0.00130378 9.22953e-08 2.82596e-07)
(0.00130132 4.08452e-07 3.44649e-07)
(0.00129894 5.2637e-07 3.50579e-07)
(0.0012966 4.70486e-07 2.81306e-07)
(0.00129465 1.06541e-07 3.27739e-07)
(0.00129144 2.48497e-07 3.86072e-07)
(0.0012883 -4.84532e-07 3.43366e-07)
(0.00128629 -1.07979e-06 2.46435e-07)
(0.00128345 -8.51691e-07 1.48225e-07)
(0.00128098 -3.60234e-07 3.67117e-07)
(0.00127969 1.97075e-07 2.17773e-07)
(0.00127777 1.76707e-07 3.11502e-07)
(0.00127472 -1.37094e-08 3.36063e-07)
(0.00127174 -2.0043e-07 4.49916e-07)
(0.00126906 1.9683e-07 2.51242e-07)
(0.00126678 6.20344e-07 6.36375e-08)
(0.00126497 6.66275e-07 3.44651e-07)
(0.00126284 1.61703e-07 2.72516e-07)
(0.00126012 1.59624e-09 3.48758e-07)
(0.00125812 -5.6438e-07 3.70428e-07)
(0.00125576 -6.51587e-07 7.08642e-07)
(0.00125317 -3.64475e-07 3.25006e-07)
(0.00125068 -4.33994e-07 3.16139e-07)
(0.00124844 -4.27182e-07 2.95438e-07)
(0.0012465 -7.74012e-07 4.67116e-07)
(0.00124366 -5.36148e-07 2.06139e-07)
(0.00124077 -4.0242e-07 3.38658e-07)
(0.00616471 -0.0170822 -0.000972585)
(-0.000207734 0.0027236 -0.00656755)
(0.0489577 -0.0106377 -0.00249731)
(-0.0240663 0.0142251 -0.00154015)
(-0.00484886 0.00670582 2.02542e-05)
(-0.00111849 0.00235553 0.000332844)
(0.00129238 5.8677e-05 3.33168e-07)
(0.00133922 8.22689e-06 3.45564e-07)
(0.00132488 5.73843e-05 4.22748e-07)
(0.00132438 2.06688e-05 3.39404e-07)
(0.00132871 1.48537e-05 3.30415e-07)
(0.00132862 8.70223e-06 3.31498e-07)
(0.00132834 5.45954e-06 3.32092e-07)
(0.00132694 2.89099e-06 3.3001e-07)
(0.00132517 1.86407e-06 3.30904e-07)
(0.00132288 1.20447e-06 2.69765e-07)
(0.00132053 9.64505e-07 3.20059e-07)
(0.00131849 6.37122e-07 3.9778e-07)
(0.00131596 5.19188e-07 3.32061e-07)
(0.00131333 4.80726e-07 2.98454e-07)
(0.00131099 4.41863e-07 3.18214e-07)
(0.00130832 4.02689e-07 3.67271e-07)
(0.00130602 9.35005e-07 3.00864e-07)
(0.00130424 6.82641e-07 2.51324e-07)
(0.00130163 7.04626e-07 6.0114e-08)
(0.00129866 1.79608e-07 4.84106e-07)
(0.00129613 -1.40204e-08 4.51795e-07)
(0.0012938 -3.18338e-07 3.2468e-07)
(0.00129101 -1.31709e-06 3.87423e-07)
(0.00128805 -7.43389e-07 1.92837e-07)
(0.00128613 -6.91406e-07 3.58319e-07)
(0.00128441 -3.72952e-07 2.77678e-07)
(0.00128246 7.26442e-07 6.1823e-07)
(0.00127987 1.16893e-06 5.56069e-07)
(0.00127692 4.08832e-07 3.24538e-07)
(0.00127445 1.17154e-07 3.09158e-07)
(0.00127216 1.68337e-07 3.10314e-07)
(0.00126987 3.23645e-07 3.64321e-07)
(0.00126721 5.87378e-07 3.33128e-07)
(0.00126449 6.93728e-07 3.59673e-07)
(0.00126202 2.39361e-08 2.57765e-07)
(0.0012595 -4.73383e-07 3.51153e-07)
(0.0012573 -8.73461e-07 2.43884e-07)
(0.00125568 -6.26782e-07 2.93029e-07)
(0.00125332 -2.37243e-07 3.17317e-07)
(0.00125085 -2.8295e-07 3.09431e-07)
(0.00124858 1.18362e-07 4.59186e-07)
(0.0012462 -1.89871e-07 2.54566e-07)
(0.00124365 -5.26113e-07 3.54823e-07)
(0.00124196 -3.83701e-07 2.19326e-07)
(-0.0249302 -0.0123568 0.000759075)
(0.0150273 -0.0161446 -0.054046)
(-0.0122738 0.0240083 -0.0128084)
(-0.00462355 0.0094431 0.000183395)
(0.0158026 0.00368413 0.00106116)
(-0.00715296 0.00130289 -0.000735779)
(0.00105201 0.000174613 6.07479e-05)
(0.00118184 2.68429e-06 8.82096e-07)
(0.00137517 2.32192e-05 -3.30764e-07)
(0.00128542 3.27813e-06 3.17621e-07)
(0.00132125 4.87939e-06 3.29279e-07)
(0.00132225 2.94246e-06 3.30158e-07)
(0.0013253 2.00355e-06 3.3108e-07)
(0.00132517 1.27369e-06 3.31611e-07)
(0.00132398 8.49208e-07 3.31016e-07)
(0.00132248 4.75631e-07 3.00412e-07)
(0.00132052 3.81878e-07 3.36465e-07)
(0.00131798 2.61106e-07 2.51417e-07)
(0.00131559 8.31105e-08 3.16373e-07)
(0.00131346 1.54024e-07 3.19504e-07)
(0.00131124 9.47004e-08 3.04647e-07)
(0.00130929 1.20797e-07 3.26729e-07)
(0.00130652 3.19407e-07 4.5609e-07)
(0.00130349 2.27252e-07 -1.89641e-07)
(0.00130068 -4.18774e-07 3.65485e-07)
(0.00129804 -1.02519e-07 3.01203e-07)
(0.00129598 -8.53814e-08 3.18367e-07)
(0.00129303 5.28721e-09 3.19078e-07)
(0.00129092 2.45869e-08 1.20888e-07)
(0.00128909 8.64785e-07 2.52594e-07)
(0.00128676 1.32643e-06 3.19777e-07)
(0.00128523 1.20386e-06 3.15583e-07)
(0.0012829 6.56806e-07 8.03551e-07)
(0.00127928 2.47515e-07 4.17089e-07)
(0.00127645 5.1506e-08 3.65644e-07)
(0.00127441 1.36081e-07 3.24761e-07)
(0.001272 1.5085e-07 2.77992e-07)
(0.00126958 9.18778e-08 3.61878e-07)
(0.00126723 1.17734e-07 3.25798e-07)
(0.00126427 -9.98562e-08 3.31154e-07)
(0.00126138 9.82911e-09 1.98262e-07)
(0.001259 1.33508e-07 3.05338e-07)
(0.00125794 9.70091e-07 5.22823e-07)
(0.00125656 5.64522e-07 2.72914e-07)
(0.00125361 2.57085e-07 2.12384e-07)
(0.00125112 3.98501e-07 3.10053e-07)
(0.00124856 5.47556e-07 4.28841e-07)
(0.0012457 3.29071e-07 3.34898e-07)
(0.00124343 1.68451e-07 3.1102e-07)
(0.00124191 1.37201e-07 2.95681e-07)
(-0.00613126 0.000925909 0.00472621)
(-0.0281391 0.0104658 0.0154203)
(0.00843832 -0.000693157 0.00394027)
(-0.00396374 -0.00354368 -0.00125317)
(0.0259214 0.00391259 0.000511482)
(-0.0179243 -0.00599766 -0.00422777)
(-9.16647e-05 -0.00308811 -0.000307101)
(0.00128121 -0.00012656 2.62319e-07)
(0.00140939 -2.87962e-05 2.82062e-07)
(0.00130084 -1.31e-05 5.4237e-07)
(0.00132815 -6.60556e-06 3.3257e-07)
(0.00132493 -3.11389e-06 3.13336e-07)
(0.00132619 -1.94134e-06 3.31638e-07)
(0.00132546 -8.82028e-07 3.31787e-07)
(0.00132415 -1.67566e-07 3.3065e-07)
(0.00132228 8.51049e-08 3.29788e-07)
(0.00132025 -1.56126e-07 3.24053e-07)
(0.00131812 -1.06038e-07 2.99221e-07)
(0.00131583 -8.65217e-08 2.17439e-07)
(0.00131335 -3.03952e-07 3.16532e-07)
(0.00131095 -2.02866e-07 3.51355e-07)
(0.0013086 -3.68604e-07 3.22976e-07)
(0.00130615 -7.37998e-07 2.53778e-07)
(0.00130332 -4.74027e-07 3.78381e-07)
(0.00130121 -4.21947e-07 2.36459e-07)
(0.00129908 1.74165e-07 2.72198e-07)
(0.00129626 3.93485e-07 3.84686e-07)
(0.00129394 6.46684e-07 3.81325e-07)
(0.00129208 1.50506e-06 2.92069e-07)
(0.00128967 1.23314e-06 4.73554e-07)
(0.00128654 1.32917e-06 3.07532e-07)
(0.00128356 1.30577e-06 2.99934e-07)
(0.00128126 3.56594e-07 3.19349e-07)
(0.00127911 -1.22081e-07 3.11036e-07)
(0.00127678 1.47312e-07 3.43657e-07)
(0.00127457 4.02099e-08 3.02602e-07)
(0.0012721 -5.64135e-08 2.99559e-07)
(0.00126983 -1.03006e-07 2.43322e-07)
(0.00126697 -5.85527e-07 2.00915e-07)
(0.00126436 -4.05303e-07 3.08535e-07)
(0.00126232 7.71575e-08 3.22489e-07)
(0.0012607 5.27262e-07 4.36466e-07)
(0.00125783 1.02289e-06 3.64725e-07)
(0.00125478 6.32693e-07 2.09046e-07)
(0.00125311 1.23856e-07 2.27838e-07)
(0.0012512 6.53761e-08 3.11942e-07)
(0.00124849 -7.77735e-08 3.77946e-07)
(0.00124573 1.39436e-07 6.1145e-08)
(0.00124341 4.15651e-07 3.13436e-07)
(0.00124158 3.79241e-07 2.27277e-07)
(0.00442813 0.00558275 -0.00114423)
(-0.0221039 -0.0225347 0.000541021)
(0.0030423 0.0173468 -0.00413235)
(0.000322163 -0.0054651 -0.000934978)
(-0.0900563 -0.00429866 0.0507292)
(0.00150736 0.0110944 0.00204978)
(0.000926059 -0.00256226 -6.09755e-05)
(0.00131296 -4.48067e-05 1.46322e-06)
(0.00142233 -2.85073e-05 5.86461e-07)
(0.00131263 -1.53722e-05 4.06009e-07)
(0.00133359 -1.01504e-05 3.53662e-07)
(0.00132798 -6.46651e-06 7.91801e-07)
(0.00132803 -3.56933e-06 5.33532e-07)
(0.00132735 -2.44987e-06 3.32683e-07)
(0.00132516 -1.9001e-06 2.44552e-07)
(0.00132247 -1.30462e-06 2.51843e-07)
(0.00132027 -7.32214e-07 3.2963e-07)
(0.00131806 -5.63707e-07 3.27141e-07)
(0.00131534 -3.36983e-07 3.26895e-07)
(0.00131331 4.80962e-08 2.97663e-07)
(0.00131116 -3.61071e-07 3.61216e-07)
(0.00130862 1.28538e-07 5.84134e-07)
(0.00130639 9.03446e-08 3.6568e-07)
(0.00130389 1.26871e-07 3.6892e-07)
(0.0013015 4.64596e-07 2.4806e-07)
(0.00129906 3.51481e-08 3.59453e-07)
(0.00129656 2.58929e-07 3.77845e-07)
(0.00129441 3.31664e-07 3.05238e-07)
(0.00129164 4.19765e-07 2.6388e-07)
(0.00128886 2.32231e-07 3.76669e-07)
(0.00128683 2.61866e-07 3.38027e-07)
(0.001284 -3.45318e-07 3.12163e-07)
(0.00128111 2.18459e-07 2.95131e-07)
(0.00127902 7.19187e-08 3.22522e-07)
(0.00127666 1.77317e-07 3.0828e-07)
(0.00127416 -1.36136e-07 3.18367e-07)
(0.00127182 -2.7282e-07 1.09659e-08)
(0.00126892 -4.25106e-07 3.14312e-07)
(0.00126686 -3.7851e-07 4.50284e-07)
(0.0012651 -2.80795e-08 2.66392e-07)
(0.00126254 2.53569e-07 3.1256e-07)
(0.00126018 6.32198e-07 5.68107e-07)
(0.00125806 1.70689e-07 2.96922e-07)
(0.00125543 1.60608e-07 -8.36005e-08)
(0.0012529 1.69542e-08 3.3849e-07)
(0.00125087 -2.8591e-07 3.11629e-07)
(0.00124865 -8.00891e-07 1.01006e-07)
(0.00124631 -7.22517e-07 1.30215e-07)
(0.00124372 -4.71673e-07 3.46763e-07)
(0.00124092 1.61558e-07 4.10423e-07)
(0.0022084 -0.00272184 0.000176196)
(-0.00721338 0.0224753 0.000517069)
(0.0131525 -0.00711802 -0.00259344)
(0.00534409 0.00336442 0.00169577)
(0.000336837 0.00652905 0.0128978)
(0.0105416 0.00324781 0.00392028)
(0.00221865 -0.00470369 -5.85161e-06)
(0.00128711 -8.41838e-05 3.48933e-06)
(0.00141953 -2.61498e-05 5.61981e-07)
(0.00132339 -1.56336e-05 3.72074e-07)
(0.00133914 -1.13378e-05 2.95031e-07)
(0.00133306 -7.50706e-06 4.56875e-07)
(0.00133116 -4.46858e-06 1.56796e-08)
(0.00132751 -3.0859e-06 3.31056e-07)
(0.00132556 -2.33187e-06 5.86857e-07)
(0.00132373 -1.60172e-06 3.46346e-07)
(0.00132117 -8.98227e-07 3.30253e-07)
(0.00131861 -4.45153e-07 2.99964e-07)
(0.00131659 -1.93289e-07 2.9406e-07)
(0.00131331 2.97509e-07 5.15279e-07)
(0.00131105 5.84652e-07 1.50472e-07)
(0.00130916 4.26372e-07 3.0321e-07)
(0.00130615 3.83712e-07 4.18998e-07)