/*--------------------------------*- C++ -*----------------------------------*\
| =========                 |                                                 |
| \\      /  F ield         | OpenFOAM: The Open Source CFD Toolbox           |
|  \\    /   O peration     | Version:  5.0                                   |
|   \\  /    A nd           | Web:      www.OpenFOAM.org                      |
|    \\/     M anipulation  |                                                 |
\*---------------------------------------------------------------------------*/
FoamFile
{
    version     2.0;
    format      ascii;
    class       surfaceVectorField;
    location    "2";
    object      Uf;
}
// * * * * * * * * * * * * * * * * * * * * * * * * * * * * * * * * * * * * * //

dimensions      [0 1 -1 0 0 0 0];

internalField   nonuniform List<vector> 
27511
(
(-0.0260498 0.00611497 0.000571603)
(-0.00679354 0.0016871 0.0026821)
(-0.000804975 -0.000725016 0.000513313)
(-0.00279771 0.00425829 -0.000151213)
(-0.00976648 0.00598018 -0.000271017)
(-0.0020572 0.0162942 0.000856055)
(0.000515709 0.0248447 0.00093324)
(-0.00444366 -0.00981415 -0.000403191)
(0.0103202 -0.000349367 -0.000146302)
(0.00307357 -0.00675613 -0.000615474)
(0.00888954 -0.00469984 -0.000715517)
(-0.00257161 -0.00179278 -0.000837036)
(-0.000179386 0.000469611 0.000295155)
(0.00687012 0.00362242 -0.000846229)
(0.0103727 -0.00154512 -7.02359e-05)
(0.0147019 0.00450721 -0.00120097)
(0.00563536 -0.0043108 -0.000320064)
(0.0104515 -0.0119572 0.00168911)
(0.00808191 0.00372181 -0.00023905)
(0.00804874 0.000764956 -0.000855957)
(0.00689298 0.00128566 -0.000129634)
(0.00289072 0.00117492 0.000174309)
(0.00988308 0.00226948 -0.00050742)
(0.011895 0.00439636 0.00033389)
(0.00574609 0.000307572 -0.000505437)
(-0.00793935 0.00381888 -4.86532e-05)
(0.000915191 0.000618156 -0.00110585)
(0.00326305 -0.00372681 -0.000519105)
(0.00848329 -0.000589392 -0.000649197)
(0.00554565 0.0022847 -0.00189648)
(-0.000699352 0.00316452 6.42178e-05)
(0.00141546 0.00219082 0.000108475)
(7.54821e-05 0.00523553 -3.005e-05)
(-0.00116406 0.00801196 -0.000104118)
(0.000506152 5.83556e-05 1.61682e-06)
(0.000566075 5.33916e-05 -2.62488e-06)
(0.000570604 6.93053e-05 -3.81004e-08)
(0.000963337 0.000114786 -3.21935e-08)
(0.00031906 6.34865e-05 2.38758e-05)
(0.000968081 0.000108452 6.79944e-06)
(0.000522694 0.000122315 5.14769e-05)
(0.000880934 4.66572e-05 -1.18441e-06)
(0.000892824 7.09896e-05 -2.38496e-06)
(0.00122951 7.15029e-05 -1.60651e-06)
(0.000676198 4.24757e-05 -4.50223e-06)
(0.00065844 6.23039e-05 -4.14514e-06)
(0.00113441 6.904e-05 -5.07576e-06)
(0.00110487 0.000109529 -4.42487e-06)
(0.000848551 2.91935e-05 2.63649e-08)
(0.000844808 5.62485e-05 -1.1468e-07)
(0.00113869 4.75644e-05 1.44807e-07)
(0.000831166 1.71887e-05 9.63115e-08)
(0.000829233 2.99761e-05 2.52907e-08)
(0.00111659 2.71059e-05 1.97383e-07)
(0.000819274 1.04804e-05 8.37577e-08)
(0.000818835 1.87261e-05 6.9175e-08)
(0.00109746 1.679e-05 1.77502e-07)
(0.000812052 6.27854e-06 3.26986e-08)
(0.000811645 1.12788e-05 5.13407e-08)
(0.00108566 9.9388e-06 1.73999e-07)
(0.000807174 3.90184e-06 4.77357e-08)
(0.000807162 6.95157e-06 2.55576e-08)
(0.00107841 6.02912e-06 1.8226e-07)
(0.000803277 2.50076e-06 7.12057e-08)
(0.000803657 4.20472e-06 7.08421e-08)
(0.00107283 3.91387e-06 1.8781e-07)
(0.000800102 1.57818e-06 4.61937e-08)
(0.000800745 2.56503e-06 4.83472e-08)
(0.00106816 2.4773e-06 1.78769e-07)
(0.000797748 9.73123e-07 4.82868e-08)
(0.000798389 2.22155e-06 5.21581e-08)
(0.00106465 1.53982e-06 1.67465e-07)
(0.000795806 6.14861e-07 5.31568e-08)
(0.000796434 1.02371e-06 2.74159e-08)
(0.0010619 9.30942e-07 1.747e-07)
(0.000793875 4.55404e-07 5.64085e-08)
(0.000794735 5.35502e-07 6.20045e-08)
(0.00105936 6.41312e-07 1.17533e-07)
(0.000792325 3.06037e-07 1.26944e-07)
(0.000793053 1.11866e-07 9.60464e-08)
(0.001057 5.29548e-07 1.60514e-07)
(0.00079056 1.20248e-07 1.26141e-07)
(0.000791356 3.40349e-07 1.10775e-07)
(0.00105483 2.31896e-07 1.72348e-07)
(0.000789152 1.61059e-07 6.60688e-08)
(0.000789912 3.86355e-07 7.7476e-08)
(0.00105278 6.5267e-08 1.13339e-07)
(0.000787695 1.93163e-07 7.33211e-08)
(0.000788387 -2.5577e-07 6.56804e-08)
(0.00105081 3.85402e-07 1.67884e-07)
(0.000786311 5.824e-08 5.84728e-08)
(0.000786786 -9.7106e-07 8.81287e-08)
(0.00104889 1.66824e-07 2.27214e-07)
(0.000784774 8.6389e-08 1.61434e-08)
(0.000785528 -2.73048e-08 1.33679e-07)
(0.00104699 4.36718e-08 1.76444e-07)
(0.000783382 1.82756e-07 2.60339e-08)
(0.000784172 4.33591e-07 2.5486e-08)
(0.00104502 2.69207e-07 1.29974e-07)
(0.00078194 1.88644e-07 5.2804e-08)
(0.000782604 4.49282e-07 6.78738e-08)
(0.00104312 3.22017e-07 1.57749e-07)
(0.000780518 1.37026e-07 4.43305e-08)
(0.000781114 3.6509e-07 3.35767e-08)
(0.00104119 2.64569e-07 1.43231e-07)
(0.000779067 1.51008e-07 1.01109e-07)
(0.000779799 6.8653e-08 4.74608e-08)
(0.00103945 1.28612e-07 1.7332e-07)
(0.000777618 2.53522e-09 1.69963e-07)
(0.000778201 -1.42815e-07 1.10338e-07)
(0.00103736 2.59421e-07 1.20933e-07)
(0.000776207 -3.20324e-07 1.3112e-07)
(0.000776646 1.2137e-07 1.31262e-07)
(0.00103533 -3.02288e-07 1.47312e-07)
(0.000774357 -4.56945e-07 1.0383e-08)
(0.000775319 -6.21646e-07 -2.32435e-08)
(0.00103329 -6.48288e-07 3.58625e-07)
(0.000773128 -3.54546e-07 1.12746e-08)
(0.00077388 -4.56347e-07 -1.77772e-08)
(0.00103109 -6.48508e-07 3.05439e-07)
(0.00077187 -1.39926e-07 9.27256e-08)
(0.000772646 -6.90233e-07 9.85448e-08)
(0.00102943 -3.09567e-07 1.75192e-07)
(0.000770797 4.4542e-08 7.24147e-08)
(0.000771521 -1.81279e-06 1.09478e-07)
(0.00102809 -3.67112e-08 2.65155e-07)
(0.000769116 9.20557e-08 4.16916e-08)
(0.000770002 2.45967e-07 4.10584e-08)
(0.00102627 1.99407e-07 1.6404e-07)
(0.000767677 7.10242e-08 4.6139e-08)
(0.000768412 1.55952e-07 3.90535e-08)
(0.00102405 9.45294e-08 1.67345e-07)
(0.000766144 1.87171e-07 4.19699e-08)
(0.00076709 2.67979e-07 6.19395e-08)
(0.00102205 1.1352e-07 1.66311e-07)
(0.000764477 4.41647e-07 5.24579e-08)
(0.000765666 5.85155e-07 2.07234e-08)
(0.00101979 3.73847e-07 1.5341e-07)
(0.000764235 4.07436e-07 7.25739e-08)
(0.000764282 -2.40882e-06 4.14592e-08)
(0.00101857 7.9549e-07 2.10169e-07)
(0.000762387 1.398e-07 4.51021e-08)
(0.000762896 3.98514e-07 5.5528e-08)
(0.00101731 3.19055e-07 1.73887e-07)
(0.000760771 1.37662e-08 4.20524e-08)
(0.00076139 3.8252e-08 3.59893e-08)
(0.00101491 9.58903e-08 1.52853e-07)
(0.000759528 -3.30208e-07 8.02947e-08)
(0.000759862 -4.07506e-08 6.80877e-08)
(0.00101287 -4.39905e-08 1.57472e-07)
(0.000758824 -5.92634e-07 4.52225e-08)
(0.000758815 1.57203e-06 8.17397e-08)
(0.00101182 -8.03017e-07 1.61456e-07)
(0.000756495 -4.19761e-07 1.46063e-08)
(0.00075771 2.3447e-06 5.07152e-08)
(0.00100969 -7.16888e-07 8.0021e-08)
(0.000755188 -2.20711e-07 4.38884e-08)
(0.000756145 -2.86699e-07 4.56444e-08)
(0.00100722 -3.71647e-07 1.67584e-07)
(0.00075371 -5.6466e-08 6.2485e-08)
(0.000754659 1.558e-07 5.68116e-08)
(0.00100538 -2.48713e-07 1.64965e-07)
(0.000752981 -3.08111e-08 6.46266e-08)
(0.000753363 -9.37223e-07 5.65976e-08)
(0.00100382 3.40552e-08 1.66816e-07)
(0.000751428 -2.44849e-07 5.40298e-08)
(0.000752068 1.52632e-07 5.71869e-08)
(0.0010025 -1.85684e-07 1.7392e-07)
(0.000749745 -3.42251e-07 2.72671e-08)
(0.000750535 -3.04303e-07 -1.30824e-08)
(0.00100016 -4.99873e-07 2.07017e-07)
(0.000749263 9.02464e-07 5.95165e-08)
(0.00099805 -4.04112e-07 1.07292e-07)
(0.00416819 -0.0120822 0.000352142)
(0.00636038 -0.00758584 -0.00155785)
(0.00549719 -0.00211888 0.000828817)
(0.0107729 -0.0079565 -0.00115627)
(-0.0126399 -0.0166859 0.00177806)
(-0.000211583 -0.0106298 0.00212809)
(0.000857346 -0.00854922 0.000956546)
(-0.0126407 -0.00590672 -0.000462247)
(-0.0164141 -0.00392459 -0.00190725)
(-0.00263509 0.00982952 0.00210071)
(0.0142254 -0.0056277 0.000865941)
(0.0146101 -0.0117627 -0.00183274)
(-0.00447939 -0.00265347 0.000653271)
(-0.0169101 0.000964976 1.74975e-05)
(-0.0176919 0.00643723 0.000599998)
(-0.0273503 0.00545316 -0.00230305)
(-0.0112062 0.0205732 0.00117596)
(0.00651016 -0.00216434 0.000707791)
(-0.000656717 0.00202302 -0.000118847)
(0.00647654 0.00380233 0.000641181)
(-0.0090266 0.00401943 0.000376296)
(0.0134101 -0.00204716 0.000139056)
(0.00517893 -0.00610082 0.00010967)
(0.000858434 -0.00130223 0.0001798)
(0.00856184 0.00108463 0.000584405)
(0.0127311 0.000381936 -0.000187525)
(-0.00145231 0.00181147 -7.79938e-05)
(0.000671975 -0.00207644 -6.85746e-05)
(0.000628965 0.00173 5.91922e-05)
(-0.000168638 0.00146239 0.000261941)
(-0.000697347 0.00259321 2.70838e-05)
(0.000297445 -1.11102e-05 1.55394e-05)
(0.000362993 4.47249e-05 5.58084e-07)
(0.000291965 3.36242e-05 3.12667e-06)
(0.000480169 5.49259e-05 4.4129e-06)
(0.000254106 3.47321e-05 -1.15772e-06)
(0.000842793 7.42419e-05 -1.31597e-06)
(0.000556086 6.50422e-05 -9.25774e-07)
(0.00113914 9.14437e-05 -1.42211e-06)
(0.000615954 6.76886e-05 -4.51961e-06)
(0.000596501 6.13673e-05 -4.5505e-06)
(0.00104986 0.000111 -4.96504e-06)
(0.00101145 9.5342e-05 -4.72265e-06)
(0.000552038 3.72823e-05 -3.65088e-06)
(0.000915403 9.84497e-05 -1.85815e-07)
(0.000907447 4.85342e-05 -4.43119e-06)
(0.000823162 5.48096e-05 -1.158e-07)
(0.000829216 7.95417e-05 -8.37983e-07)
(0.00110624 9.41338e-05 1.29707e-07)
(0.000815877 2.9172e-05 -1.86021e-09)
(0.000797095 3.73442e-05 -2.39148e-07)
(0.00108967 4.49685e-05 1.64094e-07)
(0.000810104 1.80299e-05 3.67637e-08)
(0.000804834 2.40283e-05 1.16714e-07)
(0.00108284 2.86554e-05 1.76394e-07)
(0.000806302 1.08202e-05 4.4208e-08)
(0.000802588 1.41181e-05 3.69122e-08)
(0.00107647 1.69227e-05 1.76402e-07)
(0.000803391 6.59325e-06 4.86493e-08)
(0.000801852 8.64426e-06 5.33053e-08)
(0.00107241 1.04222e-05 1.78977e-07)
(0.000800981 3.97889e-06 4.79908e-08)
(0.000800373 5.2743e-06 5.0396e-08)
(0.00106898 6.2099e-06 1.78845e-07)
(0.000798882 2.43996e-06 5.43104e-08)
(0.000798813 3.27377e-06 5.08492e-08)
(0.00106608 3.7959e-06 1.76737e-07)
(0.000796991 1.62066e-06 3.12952e-08)
(0.000797359 2.42592e-06 5.70938e-08)
(0.00106345 2.33519e-06 1.93847e-07)
(0.000795279 1.20605e-06 3.62525e-08)
(0.000795912 1.26871e-06 -2.3451e-08)
(0.00106107 1.72515e-06 1.76528e-07)
(0.000793923 9.36154e-07 1.01631e-07)
(0.000794395 4.01515e-07 4.07289e-08)
(0.00105912 1.27053e-06 1.72539e-07)
(0.000792147 6.88149e-07 7.98731e-08)
(0.000792742 1.2613e-08 1.04076e-07)
(0.00105697 1.03408e-06 2.06878e-07)
(0.000790531 5.39914e-07 6.21209e-08)
(0.000791169 4.32346e-07 3.44553e-08)
(0.00105464 6.72855e-07 1.80161e-07)
(0.000789287 4.96138e-07 7.70914e-08)
(0.000789855 8.17524e-09 6.4336e-08)
(0.00105287 6.98919e-07 1.80854e-07)
(0.000787409 5.3431e-07 8.04809e-08)
(0.000788433 2.3085e-07 5.04487e-08)
(0.00105074 5.77698e-07 1.76133e-07)
(0.000785926 5.68839e-07 1.6332e-07)
(0.000786827 5.12172e-07 7.36665e-08)
(0.00104839 8.38429e-07 7.26894e-08)
(0.000784995 4.39689e-07 1.43056e-07)
(0.000785364 -7.79869e-07 1.28728e-07)
(0.00104696 7.06481e-07 1.80617e-07)
(0.000783414 2.37332e-07 6.73125e-08)
(0.000783918 1.3316e-07 5.29084e-08)
(0.00104528 5.16069e-07 2.06096e-07)
(0.000781752 7.79417e-08 4.86574e-08)
(0.000782404 1.33027e-07 5.05529e-08)
(0.00104296 1.72179e-07 2.1466e-07)
(0.000780363 -1.45977e-08 3.67026e-08)
(0.000780998 1.81163e-07 4.58471e-08)
(0.00104092 7.49742e-08 1.81519e-07)
(0.000779014 -2.31444e-07 5.66697e-08)
(0.000779529 -7.2753e-08 5.00524e-08)
(0.00103919 -1.09574e-07 1.75422e-07)
(0.000777108 -3.43973e-07 7.16313e-08)
(0.000778062 -5.53714e-07 3.23472e-08)
(0.00103696 -5.93011e-07 2.4357e-07)
(0.000775897 -2.66323e-07 -2.30528e-08)
(0.000776746 -5.89963e-08 4.80318e-08)
(0.00103475 -4.30957e-07 1.66072e-07)
(0.000774698 -1.42658e-07 -5.14055e-08)
(0.000775475 2.35768e-07 6.12572e-08)
(0.00103331 -3.34885e-07 9.18745e-08)
(0.000773426 2.19551e-07 6.94565e-08)
(0.000774332 3.7281e-07 3.87536e-08)
(0.00103168 -9.04881e-08 1.00235e-07)
(0.000772261 4.86166e-07 1.15293e-07)
(0.000772978 -2.45049e-06 5.57873e-08)
(0.00103004 6.70739e-07 2.74498e-07)
(0.000770925 3.03687e-07 7.81425e-08)
(0.000771291 -3.02035e-06 4.50613e-08)
(0.0010284 6.8321e-07 2.50656e-07)
(0.000769065 1.60148e-07 3.84209e-08)
(0.000769822 8.2741e-07 6.63468e-08)
(0.00102618 1.87906e-07 1.70039e-07)
(0.000767898 2.31041e-07 5.48469e-08)
(0.000768499 -5.96227e-08 4.17359e-08)
(0.0010241 2.48144e-07 1.64924e-07)
(0.000766652 3.24063e-07 4.07059e-08)
(0.000767205 1.29866e-07 1.06877e-07)
(0.0010225 3.48145e-07 1.66545e-07)
(0.000765405 5.3684e-07 9.71829e-09)
(0.000765931 8.71121e-08 2.78666e-08)
(0.00102094 5.03174e-07 1.92383e-07)
(0.000763032 4.88762e-07 2.44089e-08)
(0.000764219 -7.76404e-07 1.95206e-08)
(0.00101844 9.08485e-07 1.4034e-07)
(0.000761866 2.02433e-07 4.64212e-08)
(0.000762537 1.49273e-07 6.05458e-08)
(0.00101601 4.13332e-07 1.6709e-07)
(0.000760493 7.66237e-08 6.20147e-08)
(0.000761232 3.76341e-08 6.45826e-08)
(0.00101441 1.52323e-07 1.67871e-07)
(0.000758926 -4.3139e-08 6.95285e-08)
(0.000759713 1.97525e-07 5.94746e-08)
(0.00101235 1.26049e-08 1.67958e-07)
(0.000757924 -3.93822e-07 8.72418e-08)
(0.000758378 6.68664e-07 8.31743e-08)
(0.00101059 -2.00621e-07 1.99472e-07)
(0.000757368 -4.1216e-07 8.17549e-08)
(0.000757689 1.49264e-07 1.19032e-07)
(0.00100975 -8.72925e-07 2.52785e-07)
(0.000755579 -9.27004e-08 5.85643e-08)
(0.000756546 -1.60458e-07 7.05061e-08)
(0.00100806 -2.21086e-07 1.96195e-07)
(0.000754223 1.7608e-07 5.09244e-08)
(0.000754995 8.53305e-08 8.73761e-08)
(0.00100594 -8.04653e-08 1.71168e-07)
(0.000752559 2.30747e-07 4.91578e-08)
(0.000753431 -1.23679e-06 4.95819e-08)
(0.00100401 4.73098e-07 2.15964e-07)
(0.00075114 -1.2134e-10 -9.90395e-09)
(0.000751779 2.80234e-07 6.29081e-08)
(0.00100187 8.74297e-08 1.62312e-07)
(0.00074996 -1.23272e-07 1.91449e-08)
(0.000750384 9.98647e-08 -8.20782e-09)
(0.00100008 -1.40327e-07 1.20338e-07)
(0.000749416 -1.21828e-07 1.13759e-07)
(0.000998752 -2.31743e-07 2.28282e-07)
(-0.00417357 -0.0119396 0.000453159)
(-0.00771171 -0.0167737 -0.000138492)
(-0.0145852 -0.0190532 4.42124e-05)
(-0.00275225 -0.021886 0.000344386)
(-0.0206862 -0.0075462 0.000564033)
(0.000448479 0.00061966 -0.000857992)
(-0.00115539 -0.00525888 -0.00256374)
(-0.0154634 -0.00693271 -0.000520968)
(0.0182937 0.0260334 -0.00435926)
(-0.000980585 0.00603441 -0.00188771)
(0.0157512 -0.00788679 -0.00957867)
(0.00168028 0.0140603 -0.00160967)
(0.0143621 0.00630812 0.000570267)
(0.0243156 0.0181737 0.000848287)
(0.0224485 -0.000236031 0.000552634)
(0.0384355 0.00837433 -0.000165824)
(0.0166872 0.0111319 0.000584466)
(8.8614e-05 0.000339403 7.12274e-05)
(0.00879783 -0.00710982 0.000262389)
(-0.00213544 0.00356979 0.000230649)
(0.00179441 -0.00245401 6.81009e-06)
(-0.000741975 -0.00340248 0.000694019)
(-0.000436359 -0.00664667 -0.000253983)
(-0.00256643 -0.00711511 0.000554644)
(-0.000752959 0.00112517 0.000422665)
(0.00240108 -0.0079441 0.000877972)
(0.000474579 0.00022872 0.000393635)
(0.00299034 -0.0055724 -0.000232761)
(0.00320002 -0.000752504 0.00075455)
(-0.0103311 0.000617378 2.51848e-05)
(0.0107521 -0.00139193 0.000636086)
(-0.00516106 -0.00107937 0.000479921)
(-0.00435789 -0.000641345 0.0018865)
(-0.00465807 0.00128892 0.000922149)
(-0.00473708 0.00145107 -1.58007e-05)
(-0.00267645 -0.000465917 -1.90793e-05)
(0.00128291 -5.2438e-05 -8.74444e-05)
(-0.00149353 -0.000912273 0.000333344)
(-0.00149827 -0.000835489 -9.07634e-05)
(-0.00221379 -0.00204083 -1.82714e-05)
(-0.000259987 -0.000714988 -7.00575e-05)
(-0.00126018 -0.00197153 -7.07126e-05)
(-0.00201726 -0.00129112 -8.79955e-05)
(0.0011236 0.000100934 1.14774e-05)
(0.000428492 -0.000107448 3.47486e-05)
(0.000432848 -9.573e-05 1.98357e-05)
(0.000563312 -4.53203e-05 6.4212e-05)
(0.000352751 -3.82716e-05 1.94417e-05)
(0.000427245 5.2352e-05 -5.11007e-07)
(0.000441212 3.8311e-05 -2.36337e-06)
(0.000414634 4.17803e-05 3.94055e-07)
(0.000675147 7.58549e-05 4.1207e-07)
(0.000780435 4.6666e-05 -9.61527e-07)
(0.000819577 3.83951e-05 -1.38132e-06)
(0.00110371 7.7989e-05 -8.13936e-07)
(0.000558576 3.7852e-05 -3.33287e-06)
(0.000556787 3.90538e-05 -4.85072e-06)
(0.000919289 5.00118e-05 -4.11335e-06)
(0.000914266 5.33141e-05 -6.07017e-06)
(0.0007915 2.5963e-05 -1.20691e-07)
(0.00077099 2.30419e-05 -4.23274e-07)
(0.00103453 3.89395e-05 7.61717e-08)
(0.000796285 1.66382e-05 1.16888e-07)
(0.000793109 1.56154e-05 1.76841e-07)
(0.00106222 2.58086e-05 2.12463e-07)
(0.000798475 1.02564e-05 4.60042e-08)
(0.000794567 9.82975e-06 -1.45721e-07)
(0.00106276 1.58211e-05 1.52014e-07)
(0.000798843 6.34627e-06 5.5053e-08)
(0.000796937 6.36032e-06 5.63228e-08)
(0.00106496 9.84816e-06 1.70668e-07)
(0.000798225 3.9102e-06 5.32543e-08)
(0.000797311 4.05634e-06 5.11654e-08)
(0.00106451 6.05463e-06 1.81769e-07)
(0.000797194 2.43219e-06 5.36306e-08)
(0.000796955 2.60425e-06 5.12641e-08)
(0.00106329 3.74675e-06 1.79205e-07)
(0.000796361 1.52471e-06 2.37362e-09)
(0.000796218 1.45009e-06 5.07902e-08)
(0.00106205 2.34464e-06 1.8377e-07)
(0.000795002 9.66531e-07 -1.89952e-08)
(0.000795211 1.15444e-06 1.41003e-09)
(0.00106056 1.46592e-06 1.70774e-07)
(0.000793328 5.4903e-07 4.3153e-08)
(0.000793871 9.388e-07 2.82945e-08)
(0.00105849 9.37302e-07 1.53694e-07)
(0.000791604 3.19584e-07 5.86806e-08)
(0.000792454 8.25446e-07 6.29539e-08)
(0.00105625 3.95502e-07 1.39453e-07)
(0.000790477 2.63017e-07 3.66608e-08)
(0.000791098 2.57245e-08 3.19348e-08)
(0.00105441 3.63219e-07 1.72529e-07)
(0.000789078 1.4914e-07 3.76977e-08)
(0.000789713 -3.25754e-09 5.01895e-08)
(0.00105266 2.70105e-07 1.68785e-07)
(0.000787871 8.7373e-08 4.36268e-08)
(0.000788355 -5.65313e-08 4.64094e-08)
(0.00105098 8.82703e-08 1.71751e-07)
(0.000786177 1.70585e-07 3.90571e-08)
(0.000786931 8.6216e-08 2.00158e-08)
(0.00104905 1.45342e-07 2.24068e-07)
(0.000784322 9.24574e-08 3.86051e-08)
(0.000785266 -7.58151e-08 4.8834e-08)
(0.00104658 3.19943e-07 1.595e-07)
(0.000782878 -3.84178e-08 3.61496e-08)
(0.000783754 -3.33748e-07 6.62056e-08)
(0.00104435 -9.64185e-08 2.05808e-07)
(0.000781662 -2.38487e-08 4.7744e-08)
(0.000782422 -1.87561e-07 2.94701e-08)
(0.00104257 -2.64127e-08 1.75851e-07)
(0.000780175 -1.24269e-08 5.91955e-08)
(0.000781012 1.12202e-07 6.3789e-08)
(0.00104084 -1.944e-08 1.82047e-07)
(0.000778618 -2.49776e-08 2.57356e-08)
(0.000779513 -6.23094e-08 5.35307e-08)
(0.00103862 2.23497e-08 1.8298e-07)
(0.000777553 1.96445e-07 8.74281e-09)
(0.000778338 4.87941e-07 1.84471e-08)
(0.00103696 -4.24459e-08 6.71049e-08)
(0.000776458 4.51573e-07 1.32338e-07)
(0.000777062 7.39858e-07 2.7437e-08)
(0.00103566 6.25624e-07 8.68342e-08)
(0.000774964 4.53838e-07 1.51423e-07)
(0.000775475 3.44734e-07 1.55202e-07)
(0.00103372 6.83243e-07 1.70887e-07)
(0.000774082 3.91253e-07 2.50791e-08)
(0.000774252 4.66981e-07 1.77847e-08)
(0.00103235 6.39649e-07 1.17793e-07)
(0.000771892 2.67022e-07 -1.44413e-08)
(0.000772821 -6.12594e-08 1.74847e-08)
(0.0010304 4.55054e-07 7.08567e-08)
(0.000770196 8.51938e-08 3.32589e-08)
(0.000771063 3.79823e-08 -5.70955e-08)
(0.00102748 2.63002e-07 -2.07582e-08)
(0.00076921 3.35119e-08 6.96695e-08)
(0.000769757 2.88181e-07 6.97825e-08)
(0.00102573 -3.70329e-08 1.7191e-07)
(0.000767818 7.41083e-08 9.37462e-08)
(0.00076855 -1.06317e-07 4.39659e-08)
(0.00102425 1.12014e-07 1.73014e-07)
(0.000766473 5.71786e-09 9.40627e-08)
(0.000767119 9.38486e-08 1.08001e-07)
(0.00102236 7.372e-08 1.68063e-07)
(0.000765007 -1.12345e-07 3.76716e-08)
(0.000765783 -2.57865e-08 4.96931e-08)
(0.00102048 -3.8169e-08 1.84317e-07)
(0.000763384 -6.35117e-08 5.56448e-08)
(0.000764281 -2.12237e-07 1.88295e-08)
(0.00101845 -2.17681e-07 1.4978e-07)
(0.000762026 9.07846e-08 7.87059e-08)
(0.00076273 8.64857e-07 7.15119e-08)
(0.00101636 6.67311e-08 1.1503e-07)
(0.00076051 1.77456e-07 6.20441e-08)
(0.00076134 2.05541e-07 6.16291e-08)
(0.00101441 1.51509e-07 1.68528e-07)
(0.000759089 3.98112e-07 7.31131e-08)
(0.000759987 6.75203e-08 6.71767e-08)
(0.00101243 3.03032e-07 1.81421e-07)
(0.000757795 6.13649e-07 1.14954e-07)
(0.000758645 3.87488e-07 1.32449e-07)
(0.00101072 7.83064e-07 1.80874e-07)
(0.00075737 4.70312e-07 1.07798e-07)
(0.000757507 -1.05169e-06 1.99472e-08)
(0.00100967 8.75494e-07 1.6888e-07)
(0.000755792 2.81333e-07 9.93128e-08)
(0.000756308 3.38249e-07 2.4204e-08)
(0.00100821 4.07162e-07 1.49967e-07)
(0.000754342 2.71099e-07 8.60452e-08)
(0.000754981 6.47585e-08 8.13367e-08)
(0.00100625 4.0984e-07 1.76144e-07)
(0.000752491 3.31919e-07 6.33281e-08)
(0.000753505 1.22355e-07 6.67653e-08)
(0.00100403 3.64392e-07 1.12042e-07)
(0.000751072 3.17606e-07 6.46258e-08)
(0.00075176 3.7309e-07 6.29202e-08)
(0.00100173 5.28414e-07 1.6491e-07)
(0.000749624 1.84985e-07 8.63692e-08)
(0.000750216 1.62733e-07 5.1356e-08)
(0.000999773 2.95507e-07 1.69725e-07)
(0.000749184 -1.0906e-06 1.38575e-07)
(0.000998512 1.80821e-07 1.99786e-07)
(0.0268269 -0.00633859 -0.00138175)
(0.00269563 -0.00494601 -0.00189965)
(0.000618023 -0.0133259 -0.00192084)
(0.000880223 -0.00781014 -0.000811284)
(-0.0029194 -0.00193799 -0.0136234)
(0.00395673 -0.0163435 0.00164805)
(0.0122629 -0.0175126 0.00175496)
(7.16293e-05 -0.00623853 0.000409328)
(0.00546973 -0.00438136 0.000713718)
(-0.0170203 -0.00381561 0.01376)
(-0.0138846 -0.0108273 0.00153182)
(-0.00304536 0.0211154 -0.00699429)
(-0.0144725 -0.00464388 -0.00572007)
(0.00567517 -0.027195 -0.00204998)
(-0.020071 -0.00520787 -0.000840564)
(-0.00555044 -0.00779938 -0.00237844)
(0.0015911 0.0050308 -0.00120794)
(-0.0282622 -0.00802971 0.000333153)
(-0.0141389 -0.015523 0.000504266)
(-0.00208066 0.0121582 -0.00398976)
(-0.00471469 -0.00194775 -0.00360946)
(-0.00738444 -0.0062648 -7.75225e-05)
(-0.00632979 -0.00435345 0.00108439)
(0.0197177 -0.00851174 -0.000343269)
(-0.0145974 -0.0131991 0.00156562)
(-0.0207652 -0.00203457 0.000100855)
(-0.00514843 -0.00366071 0.00473114)
(-0.00890313 -0.00327441 0.000527799)
(-0.00608122 -0.0205091 -0.00198784)
(-0.00816015 -0.0168941 -0.00362646)
(-0.0202777 -0.00969649 0.000154244)
(0.0116405 -0.0198556 2.36275e-05)
(0.0122665 -0.00750425 -0.000396254)
(0.00406476 -0.009945 0.000469415)
(0.00640025 -0.00192973 0.000427484)
(0.00606525 -0.00446424 0.000340147)
(0.000134921 0.000414725 -0.000281867)
(0.000220268 2.5927e-05 -0.000130784)
(0.00399816 0.00593036 -0.000116144)
(0.00690183 0.00251284 -0.000948847)
(-0.00667011 -0.00227998 0.000129244)
(-0.001038 -0.000956051 -0.000144218)
(-0.00517153 -0.00164632 -0.000108401)
(0.00118823 0.00761913 -0.000235235)
(0.0015095 -0.00083047 -0.000274459)
(-0.0050402 0.00026754 -0.000543933)
(-0.000485044 -0.000268961 4.29954e-06)
(0.00166294 0.000173737 4.59223e-05)
(0.00173794 -0.000472604 9.81359e-05)
(0.00163829 -0.00060823 -0.000113701)
(0.00138134 -0.000143797 6.2371e-05)
(0.000282238 2.22676e-05 -2.3049e-06)
(0.000430963 1.52511e-05 -3.31406e-06)
(0.000383752 4.2551e-06 -8.86554e-07)
(0.000657846 5.32807e-06 -1.81761e-06)
(0.000271849 2.23882e-05 -1.98403e-06)
(0.000529129 4.79491e-05 -2.66621e-06)
(0.000511093 4.89313e-05 1.93744e-06)
(0.000407248 1.7568e-05 -3.14122e-07)
(0.000770111 1.61896e-05 -8.43383e-07)
(0.000810858 5.52145e-06 -1.11263e-06)
(0.00108766 2.14324e-05 -9.94696e-07)
(0.000551083 2.10617e-05 -3.58484e-06)
(0.000547889 1.33188e-05 -4.24826e-06)
(0.000910992 3.25941e-05 -4.39068e-06)
(0.000915621 1.72891e-05 -5.22199e-06)
(0.000783351 1.20795e-05 -1.25939e-07)
(0.000765729 6.28326e-06 -4.74004e-07)
(0.00102385 1.73744e-05 6.02053e-08)
(0.000790493 8.37773e-06 -8.56631e-08)
(0.000788442 4.55913e-06 1.66935e-07)
(0.00105377 1.21283e-05 1.92661e-07)
(0.000793878 5.57437e-06 -1.35468e-07)
(0.000791036 3.27572e-06 -1.61906e-07)
(0.00105641 8.51579e-06 2.04283e-07)
(0.000795654 3.53279e-06 5.24369e-08)
(0.000794367 2.08033e-06 8.52799e-08)
(0.00106013 5.28216e-06 1.86311e-07)
(0.000796228 2.31584e-06 4.91752e-08)
(0.000795778 1.44876e-06 5.09e-08)
(0.00106131 3.48301e-06 1.74632e-07)
(0.00079602 1.53159e-06 4.84238e-08)
(0.000795966 9.53495e-07 5.23119e-08)
(0.00106142 2.30873e-06 1.75686e-07)
(0.000795181 9.18387e-07 4.98426e-08)
(0.000795447 6.09106e-07 4.80251e-08)
(0.00106058 1.55831e-06 1.74828e-07)
(0.000794175 4.34794e-07 4.86911e-08)
(0.000794603 4.25456e-07 5.0457e-08)
(0.00105931 7.73282e-07 1.82602e-07)
(0.000792988 1.27394e-07 4.80842e-08)
(0.000793485 1.89965e-07 4.56627e-08)
(0.00105777 3.54166e-07 2.00467e-07)
(0.000791905 1.02912e-08 3.62181e-08)
(0.000792307 3.56831e-07 4.94466e-08)
(0.00105625 6.32654e-09 1.72767e-07)
(0.000790365 -8.62194e-09 4.54577e-08)
(0.000791074 1.74584e-07 5.77763e-08)
(0.00105448 1.66047e-08 1.69867e-07)
(0.000788963 -8.10685e-08 5.89024e-08)
(0.000789623 -1.77342e-08 6.58121e-08)
(0.00105252 -7.55078e-08 1.69305e-07)
(0.000787433 -2.20664e-07 2.28068e-08)
(0.000788182 4.21372e-08 3.66225e-08)
(0.00105059 -1.7422e-07 1.72963e-07)
(0.000786089 -3.04107e-07 2.97835e-08)
(0.000786828 -1.84143e-07 1.083e-07)
(0.00104868 -4.4842e-07 1.8269e-07)
(0.0007846 -2.05923e-07 7.64289e-08)
(0.00078539 2.13997e-08 7.94112e-08)
(0.00104666 -3.87437e-07 1.69973e-07)
(0.000783288 1.17352e-09 5.95377e-08)
(0.000784013 -1.61632e-09 8.22245e-08)
(0.00104485 -1.93599e-07 1.38378e-07)
(0.000781798 1.85155e-07 4.55042e-08)
(0.000782652 -7.70821e-08 4.76833e-08)
(0.00104306 1.63141e-07 1.69709e-07)
(0.000780374 3.28325e-07 5.81275e-08)
(0.00078119 7.31828e-10 6.40163e-08)
(0.00104098 3.22834e-07 1.79528e-07)
(0.000779115 5.68537e-07 4.62534e-08)
(0.000779811 5.91522e-07 5.67996e-08)
(0.00103916 5.82094e-07 1.1152e-07)
(0.000778001 6.35879e-07 3.71385e-08)
(0.000778419 8.1137e-07 1.35858e-07)
(0.00103771 1.03551e-06 1.22059e-07)
(0.000776013 4.3965e-07 5.02614e-08)
(0.000776813 3.65315e-07 2.57101e-08)
(0.00103565 7.94182e-07 2.48499e-07)
(0.00077468 3.88124e-07 2.16068e-08)
(0.000775408 3.27641e-07 5.96657e-08)
(0.00103332 5.19725e-07 1.65535e-07)
(0.000773211 1.85365e-07 1.01904e-08)
(0.000773996 2.61291e-07 -1.22483e-09)
(0.00103139 6.77642e-07 1.9106e-07)
(0.00077187 -7.74461e-08 -2.51462e-08)
(0.000772491 -1.6313e-07 2.36424e-07)
(0.00102956 -2.62556e-08 1.72265e-07)
(0.000770486 2.04715e-08 -2.06115e-08)
(0.000771185 -2.90683e-08 -2.23115e-08)
(0.00102779 -8.88509e-08 1.73782e-07)
(0.000769253 8.64077e-08 4.4087e-08)
(0.000769839 2.56972e-07 5.06331e-08)
(0.00102599 1.60366e-07 1.57777e-07)
(0.00076778 5.19697e-08 5.82007e-08)
(0.000768507 1.7311e-08 4.10839e-08)
(0.00102424 7.00351e-08 1.68119e-07)
(0.000766431 -9.28573e-09 6.36493e-08)
(0.000767043 9.08038e-08 7.34677e-08)
(0.00102231 5.01995e-08 1.66037e-07)
(0.00076513 -1.43365e-07 3.08606e-08)
(0.000765616 -1.00515e-07 6.28036e-08)
(0.00102058 -9.82636e-08 1.668e-07)
(0.000763551 -1.98121e-07 3.46804e-08)
(0.000764213 -2.59398e-07 2.86234e-08)
(0.00101858 -3.21117e-07 1.89777e-07)
(0.000762076 -1.00669e-07 5.44382e-08)
(0.000762852 5.62715e-07 -1.1782e-08)
(0.00101647 -2.65253e-07 1.98675e-07)
(0.000760834 4.98875e-08 6.676e-08)
(0.000761528 3.29339e-08 5.61656e-08)
(0.0010147 -2.3375e-08 1.68418e-07)
(0.000759505 2.28274e-07 1.26492e-07)
(0.000760209 -4.29659e-07 2.42638e-07)
(0.00101314 2.12325e-07 1.99696e-07)
(0.000758226 4.65087e-07 3.74768e-08)
(0.000758939 4.55015e-07 8.97831e-08)
(0.0010113 4.90187e-07 1.54336e-07)
(0.000756571 4.02865e-07 -6.36486e-08)
(0.000757427 -1.04722e-06 -1.64733e-08)
(0.00100927 7.93386e-07 1.92866e-07)
(0.000755483 1.6262e-07 6.21044e-09)
(0.000756006 -1.67594e-08 1.6743e-08)
(0.00100747 2.79972e-07 1.67468e-07)
(0.000754225 9.40745e-08 6.20613e-08)
(0.000754895 5.98066e-08 4.49246e-08)
(0.00100589 1.54545e-07 1.57556e-07)
(0.0007528 2.06067e-07 6.63586e-08)
(0.000753645 8.98313e-07 4.43126e-08)
(0.00100416 7.71666e-08 1.15749e-07)
(0.000750815 2.65023e-07 4.96539e-08)
(0.000751833 1.14685e-06 4.43206e-08)
(0.00100178 4.18279e-07 1.66799e-07)
(0.000749637 2.24241e-07 1.03536e-07)
(0.000750162 -4.28803e-08 5.02352e-08)
(0.000999645 2.54376e-07 1.64716e-07)
(0.000748905 -1.27372e-06 1.04302e-07)
(0.000998157 3.43608e-07 1.90526e-07)
(0.01052 0.00145604 0.000473001)
(0.0111431 0.00410364 -0.000613367)
(0.00924719 0.00401052 -0.00109821)
(0.0121382 -0.00205487 0.000116537)
(0.00298968 -0.00758503 0.00184896)
(0.00781303 0.000922077 0.000651709)
(0.00408943 0.00503592 -0.000328979)
(-0.00241863 0.00337746 0.000357187)
(-0.00121995 -0.00148425 -0.000399481)
(0.00535273 -0.00317687 0.000714633)
(-0.00988152 -0.00338078 -0.00191805)
(0.01172 0.00291907 -0.000419332)
(0.0104844 0.0029734 7.78864e-05)
(-0.0034074 0.0022052 0.000721454)
(0.00257247 -0.00392178 0.000814948)
(-0.00248001 -0.00583803 0.00217253)
(-0.0142945 0.0171686 -0.00119324)
(-0.00911176 -0.0151969 -0.0022319)
(-0.00361021 0.0275726 0.000774934)
(-0.00465149 0.0152032 0.00039786)
(-0.0082729 0.00126469 0.00119639)
(-0.0194256 0.0150428 0.00128766)
(-0.0176885 -0.0141684 0.000287512)
(-0.0188656 0.00452956 0.00341594)
(-0.0257294 0.0122422 0.000487241)
(-0.0205512 0.0288421 -0.000550531)
(0.0041892 -0.00165748 -0.000949758)
(-0.00540067 0.0262347 -0.0018004)
(0.00729203 0.0198845 -0.00477458)
(0.0140879 0.0102843 -0.00144868)
(-0.0235859 -0.0162479 0.00270514)
(0.00604178 -0.0354198 0.00247407)
(-0.0724682 -0.00260106 0.00025584)
(-0.0214291 -0.0412041 -0.00607868)
(-0.0611705 -0.0341995 0.00827044)
(-0.00568829 0.00279886 -0.00037758)
(-0.000392456 0.0092635 0.000299907)
(-0.00412106 0.00455752 -0.000387312)
(-0.00250735 0.0118864 -5.69121e-05)
(-0.00418629 -0.00512013 -0.000298359)
(0.000246588 -0.000219732 1.83732e-05)
(0.00108397 0.000296565 2.32039e-06)
(0.000820216 -0.00025108 5.31265e-05)
(0.000849827 4.46052e-05 6.53963e-06)
(0.000607622 0.000344212 4.01515e-05)
(0.00029593 -4.6612e-06 2.78506e-06)
(0.000436853 -1.47892e-06 -3.62768e-06)
(0.000380832 -4.89888e-06 -9.31832e-07)
(0.000638524 -2.78466e-06 2.98425e-07)
(0.000301887 -4.10942e-06 4.08475e-06)
(0.000574121 -1.34387e-05 1.15595e-05)
(0.000582585 -1.01969e-05 1.43082e-05)
(0.000377317 -2.93738e-06 -1.19888e-06)
(0.000768624 -5.36553e-06 -7.43459e-07)
(0.00081574 -2.1465e-05 -1.09192e-06)
(0.00108399 -1.04337e-05 -9.83709e-07)
(0.000553421 -4.17141e-06 -3.43984e-06)
(0.000547246 -8.53501e-06 -4.47485e-06)
(0.00092485 -7.91355e-06 -3.96547e-06)
(0.00091347 -1.51665e-05 -5.39714e-06)
(0.000781224 -1.90134e-06 -1.81339e-07)
(0.000770036 -9.96305e-06 -5.40763e-07)
(0.00102255 -3.33559e-06 8.06783e-08)