/*--------------------------------*- C++ -*----------------------------------*\
| =========                 |                                                 |
| \\      /  F ield         | OpenFOAM: The Open Source CFD Toolbox           |
|  \\    /   O peration     | Version:  5.0                                   |
|   \\  /    A nd           | Web:      www.OpenFOAM.org                      |
|    \\/     M anipulation  |                                                 |
\*---------------------------------------------------------------------------*/
FoamFile
{
    version     2.0;
    format      ascii;
    class       surfaceVectorField;
    location    "2";
    object      Uf_0;
}
// * * * * * * * * * * * * * * * * * * * * * * * * * * * * * * * * * * * * * //

dimensions      [0 1 -1 0 0 0 0];

internalField   nonuniform List<vector> 
27511
(
(-0.0268027 0.00467888 0.000568029)
(-0.00725803 0.000419972 0.0028487)
(-0.000546699 -0.0027035 0.00052741)
(9.23097e-05 0.00219734 -0.000449321)
(-0.00839427 0.00558143 -0.000366072)
(-0.000528391 0.0205723 0.00125791)
(0.00296434 0.0253328 0.000739585)
(-0.00453199 -0.0123581 -0.0004869)
(0.00883361 0.00035545 -0.000180857)
(0.00236399 -0.00754622 -0.000696746)
(0.00721434 -0.00723982 -0.000878345)
(-0.000466679 -0.00131051 -0.000787505)
(0.000201761 0.00150505 0.000298596)
(0.00860297 0.00804227 -0.000582134)
(0.0126666 -0.00121573 -8.34953e-05)
(0.0179481 0.00487114 -0.00122964)
(0.00756 -0.0039737 -0.000314557)
(0.0129398 -0.0094076 0.00210997)
(0.00927064 0.00678324 -0.000643928)
(0.00878453 0.00294145 -0.0016367)
(0.0076357 0.0053295 -0.000138637)
(0.00262972 0.00293724 0.000215098)
(0.00855049 0.00624416 -0.000455968)
(0.0106667 0.00510489 0.000473797)
(0.00537438 0.000789334 -0.000468363)
(-0.00746848 0.00567482 -5.34385e-05)
(0.00122298 0.00128418 -0.000937778)
(0.00329215 -0.00519418 -0.000459664)
(0.010378 -0.00155821 -0.000599017)
(0.00703741 0.00139617 -0.00179254)
(-0.0016762 0.00252667 6.99419e-05)
(0.000898193 0.00192134 0.000108154)
(-0.000490795 0.00504911 -3.61294e-05)
(-0.00192705 0.00822495 -0.000114205)
(0.000355032 6.00005e-05 2.534e-06)
(0.000431538 5.10125e-05 -2.96662e-06)
(0.000407408 4.61724e-05 -1.01716e-06)
(0.000688993 0.000109355 -1.38507e-06)
(0.000173355 5.33211e-05 2.4276e-05)
(0.00072989 0.000115389 8.85335e-06)
(0.000287597 0.000102646 5.12706e-05)
(0.000794581 3.88161e-05 -1.05818e-06)
(0.000800187 2.17732e-05 -2.25843e-06)
(0.00109171 5.41653e-05 -1.17615e-06)
(0.000556093 3.63265e-05 -3.80686e-06)
(0.000548056 3.4264e-05 -3.78246e-06)
(0.000954641 5.40697e-05 -3.80874e-06)
(0.000939132 5.56482e-05 -3.53867e-06)
(0.000796541 2.56379e-05 -3.39668e-08)
(0.000788036 3.12148e-05 -1.20466e-07)
(0.00105939 3.88358e-05 1.66723e-07)
(0.000799411 1.54822e-05 9.9697e-08)
(0.00079397 1.54706e-05 2.67201e-08)
(0.00106866 2.25651e-05 1.99879e-07)
(0.000799191 9.55272e-06 8.02777e-08)
(0.000796485 1.04663e-05 6.43435e-08)
(0.00106769 1.41818e-05 1.80385e-07)
(0.000798866 5.76276e-06 2.82768e-08)
(0.000796984 6.47097e-06 4.91736e-08)
(0.00106644 8.37624e-06 1.72112e-07)
(0.000798304 3.71728e-06 7.2993e-09)
(0.000797206 3.97452e-06 1.82065e-08)
(0.00106561 5.1287e-06 1.76807e-07)
(0.000796257 2.45948e-06 3.37339e-08)
(0.000796368 2.25907e-06 3.22795e-08)
(0.00106349 3.59075e-06 1.63302e-07)
(0.000794652 1.51644e-06 1.54943e-07)
(0.000795036 1.55863e-06 4.47107e-08)
(0.00106073 2.20264e-06 1.81036e-07)
(0.00079349 9.10597e-07 1.58137e-07)
(0.000793782 6.4296e-07 1.48914e-07)
(0.00105882 1.34504e-06 1.85629e-07)
(0.00079197 5.7664e-07 6.57237e-08)
(0.00079247 6.85653e-07 4.86237e-08)
(0.00105698 7.69877e-07 1.77067e-07)
(0.000790292 3.9723e-07 7.2342e-08)
(0.000791129 2.58436e-07 7.32951e-08)
(0.00105485 5.90307e-07 1.90936e-07)
(0.000788981 1.62907e-07 7.45192e-08)
(0.00078964 -7.64917e-08 6.65071e-08)
(0.00105268 3.62743e-07 1.83508e-07)
(0.000787712 3.21278e-09 7.59725e-08)
(0.000788231 3.32894e-07 5.47589e-08)
(0.00105094 -3.78077e-09 2.16563e-07)
(0.000786173 2.38866e-08 5.51519e-08)
(0.000786847 1.32024e-07 8.17909e-08)
(0.00104916 -2.80493e-08 2.34301e-07)
(0.000784629 -1.60461e-08 3.36293e-08)
(0.000785254 1.38369e-07 5.19071e-08)
(0.00104703 1.15958e-07 1.8254e-07)
(0.000783192 -2.80298e-08 3.38949e-08)
(0.00078386 1.80601e-07 5.3921e-08)
(0.00104504 -7.67609e-08 1.54608e-07)
(0.000781668 1.24698e-07 5.75539e-08)
(0.000782596 -1.46628e-08 2.94832e-08)
(0.00104311 6.54705e-08 1.75987e-07)
(0.000780262 2.41301e-07 7.25737e-08)
(0.000781045 -3.7157e-07 1.59632e-08)
(0.00104114 3.09629e-07 2.14423e-07)
(0.000778867 2.68239e-07 6.39327e-08)
(0.000779475 -4.89094e-07 1.12802e-07)
(0.00103925 3.99093e-07 1.82662e-07)
(0.000777508 1.61402e-07 5.02666e-08)
(0.000778029 -9.55747e-08 4.9219e-08)
(0.00103738 3.67574e-07 1.86366e-07)
(0.000776248 1.05543e-07 4.96741e-08)
(0.000776739 -8.91911e-08 4.5647e-08)
(0.00103582 8.23092e-08 1.7246e-07)
(0.000773854 -5.12412e-08 5.78795e-08)
(0.00077494 9.04598e-07 5.66139e-08)
(0.00103324 2.00768e-07 2.36314e-07)
(0.000772651 -4.41163e-07 2.88997e-09)
(0.000773102 -3.85005e-07 5.81271e-08)
(0.00103074 -3.7009e-07 1.99052e-07)
(0.000771214 -5.59163e-07 -2.79054e-08)
(0.000771924 2.01723e-06 3.9259e-08)
(0.00102914 -8.53292e-07 -1.82358e-08)
(0.000769488 -3.53034e-07 4.2631e-08)
(0.000770577 1.23035e-06 1.5506e-08)
(0.00102688 -6.7159e-07 8.42482e-08)
(0.000768257 -5.16238e-08 4.51523e-08)
(0.000769239 3.22702e-07 1.35006e-07)
(0.00102488 -2.87363e-07 1.64542e-07)
(0.000767615 8.41448e-08 2.408e-08)
(0.000768052 7.38883e-07 1.22924e-07)
(0.00102384 1.54211e-07 1.40362e-08)
(0.000765929 -1.48351e-08 5.75169e-08)
(0.000766599 1.73783e-07 4.35527e-08)
(0.00102232 1.16817e-07 1.71966e-07)
(0.000764204 -1.25515e-07 1.12613e-07)
(0.000764971 -6.33083e-08 5.65288e-08)
(0.00101989 -5.01755e-08 1.14366e-07)
(0.000762437 -3.95455e-08 7.68323e-08)
(0.000763413 6.07684e-08 1.01542e-07)
(0.00101752 -1.82421e-07 1.74185e-07)
(0.000761083 2.05174e-07 -3.81761e-08)
(0.00076192 7.05371e-08 2.7459e-08)
(0.00101539 1.41115e-07 1.5329e-07)
(0.000759508 3.64891e-07 -2.0532e-09)
(0.000760416 2.45467e-07 -2.17388e-08)
(0.00101352 4.72683e-07 1.81835e-07)
(0.000758708 2.53149e-07 4.94884e-08)
(0.000759063 -1.06896e-06 7.01252e-08)
(0.00101207 5.35529e-07 1.91271e-07)
(0.000757136 5.37733e-08 4.8376e-08)
(0.000757712 1.25003e-07 3.58186e-08)
(0.00101039 1.31562e-07 1.675e-07)
(0.000755639 -1.42762e-07 8.15578e-08)
(0.000756145 -3.22198e-08 6.5922e-08)
(0.00100822 3.84673e-09 1.67758e-07)
(0.000754257 -3.42571e-07 1.67481e-07)
(0.000754828 -3.83284e-07 6.03399e-08)
(0.00100657 -4.28046e-07 1.76073e-07)
(0.000753072 -2.97228e-07 1.40332e-07)
(0.000753644 -2.92955e-07 1.56455e-07)
(0.00100472 -5.22524e-07 1.81016e-07)
(0.000751314 -2.20529e-07 5.0263e-08)
(0.000752187 1.52409e-07 4.00203e-08)
(0.00100267 -2.82706e-07 1.6711e-07)
(0.000749995 -2.64425e-07 6.34212e-08)
(0.000750672 -1.36396e-08 5.77867e-08)
(0.00100066 -3.37064e-07 1.61587e-07)
(0.000748713 -3.96869e-07 1.22005e-07)
(0.00074933 -1.23656e-07 6.31145e-08)
(0.000998875 -3.57956e-07 1.75344e-07)
(0.000747338 -4.13181e-07 7.90035e-08)
(0.00074804 -3.77179e-07 1.13695e-07)
(0.000997312 -6.39542e-07 1.6399e-07)
(0.000745543 -2.72993e-07 2.37448e-08)
(0.000746431 1.26207e-06 3.08799e-08)
(0.00099505 -4.28691e-07 7.91143e-08)
(0.000745069 -4.72565e-07 4.92881e-08)
(0.000992742 -3.13571e-07 2.52463e-07)
(0.00529451 -0.0128383 -0.000372659)
(0.00727517 -0.0127396 -0.00212714)
(0.00696369 -0.00562827 -5.31374e-05)
(0.00991981 -0.0114549 -0.0010492)
(-0.00695104 -0.00726807 0.00185937)
(0.0026406 -0.00803965 0.000204273)
(0.00293327 -0.0145397 0.00102788)
(-0.00581258 -0.00639546 -0.000276494)
(-0.00567056 -0.00736049 -0.000430807)
(0.0042348 0.0172156 0.000754321)
(0.018348 -0.00247781 0.000485081)
(0.0110429 -0.0132301 -0.00208206)
(-0.00310192 -0.00179286 0.000477606)
(-0.0163463 0.00194667 0.000141636)
(-0.0138741 0.00908306 0.00104643)
(-0.0298266 0.00686388 -0.00250403)
(-0.00960782 0.0197042 0.00134437)
(0.00652324 -0.00147698 0.00075109)
(-0.00111045 0.00225081 -6.62581e-05)
(0.00495264 0.00390495 0.000684521)
(-0.00903898 0.00446886 0.000478062)
(0.0140385 -0.00205777 0.000115806)
(0.00483062 -0.00624934 8.21906e-05)
(0.000411842 -0.00159541 0.000157394)
(0.0078724 0.00119817 0.000503913)
(0.0111985 0.000320424 -0.000173008)
(-0.00157179 0.00152212 -7.24909e-05)
(0.000630655 -0.00236455 -6.64525e-05)
(0.000435738 0.00141581 6.1506e-05)
(-0.000284721 0.00122818 0.000268808)
(-0.000841794 0.00226912 3.61545e-05)
(0.000243497 -3.41514e-05 1.54712e-05)
(0.000282545 1.97251e-05 3.05281e-07)
(0.000240832 8.61029e-06 3.03095e-06)
(0.000397486 2.50385e-05 4.17192e-06)
(0.00020301 1.64887e-05 -1.10897e-06)
(0.000787226 2.04432e-05 -1.32141e-06)
(0.000518143 5.74458e-06 -1.25622e-06)
(0.00106504 7.33516e-06 -1.34901e-06)
(0.000547551 9.65535e-06 -4.58074e-06)
(0.00054597 1.07599e-07 -4.71841e-06)
(0.000947502 1.80081e-05 -4.98861e-06)
(0.000943869 -6.26531e-06 -4.7838e-06)
(0.000520438 -1.63331e-05 -3.82229e-06)
(0.000871078 8.14579e-06 -5.23034e-07)
(0.000873742 -3.26542e-05 -4.66329e-06)
(0.000787518 2.34952e-05 -5.98268e-08)
(0.000801816 2.98879e-05 -7.77266e-07)
(0.00105556 4.59183e-05 1.07883e-07)
(0.000792725 1.08021e-05 -8.64571e-09)
(0.000778068 7.26656e-06 -2.64024e-07)
(0.00105684 1.65999e-05 1.61679e-07)
(0.000794758 7.21282e-06 3.32443e-08)
(0.000791962 6.05759e-06 1.17371e-07)
(0.00106131 1.19629e-05 1.74866e-07)
(0.000795779 4.36559e-06 3.91133e-08)
(0.000793403 3.32339e-06 3.6837e-08)
(0.00106188 7.02733e-06 1.75634e-07)
(0.000795791 2.59335e-06 4.31821e-08)
(0.000794978 2.04932e-06 5.11675e-08)
(0.00106206 4.41882e-06 1.78342e-07)
(0.000795156 1.496e-06 4.32522e-08)
(0.000794989 1.15919e-06 4.66358e-08)
(0.00106119 2.34954e-06 1.76744e-07)
(0.000794294 9.98895e-07 3.86479e-08)
(0.000794411 7.52796e-07 4.82257e-08)
(0.00105995 1.52389e-06 1.75507e-07)
(0.000792788 7.34735e-07 3.9433e-08)
(0.00079345 8.33468e-07 3.1301e-08)
(0.0010582 1.00921e-06 1.62439e-07)
(0.00079165 5.77458e-07 5.61871e-08)
(0.000792273 2.82333e-07 4.30315e-08)
(0.00105637 8.09986e-07 1.71746e-07)
(0.000790494 4.63249e-07 6.74623e-08)
(0.000790986 -7.80958e-08 5.73322e-08)
(0.0010548 5.6826e-07 1.68655e-07)
(0.000788916 3.78849e-07 4.67506e-08)
(0.000789534 -2.99481e-07 3.71154e-08)
(0.00105283 4.73132e-07 1.97563e-07)
(0.000787432 2.89885e-07 6.05686e-08)
(0.000788119 2.83382e-07 3.37281e-08)
(0.00105074 4.05658e-07 1.77529e-07)
(0.000785916 2.40023e-07 7.85557e-08)
(0.000786783 2.97473e-07 8.06386e-08)
(0.00104885 3.45508e-07 1.65468e-07)
(0.000784341 3.8561e-07 7.21982e-08)
(0.000785434 1.99308e-07 5.22501e-08)
(0.00104672 3.16788e-07 1.7792e-07)
(0.00078343 4.57174e-07 4.95171e-08)
(0.000783948 -2.00491e-06 8.58673e-08)
(0.00104492 7.37719e-07 2.76651e-07)
(0.000781957 3.92568e-07 -1.21031e-08)
(0.000782514 5.15064e-07 -4.11434e-08)
(0.0010435 5.28251e-07 1.36305e-07)
(0.000780207 2.46216e-07 5.61608e-08)
(0.000780861 2.98685e-07 -1.3088e-08)
(0.00104138 5.57956e-07 1.50547e-07)
(0.000778642 2.00677e-08 9.81085e-08)
(0.000779192 1.32903e-07 9.0411e-08)
(0.00103903 1.30325e-07 1.37665e-07)
(0.000777211 -1.19528e-07 4.46005e-08)
(0.000777855 1.16773e-07 5.84924e-08)
(0.00103702 -2.74828e-08 1.54308e-07)
(0.000775705 -4.90785e-07 5.25833e-08)
(0.000776276 4.26625e-09 5.32855e-08)
(0.00103515 -2.5825e-07 1.69219e-07)
(0.000773938 -6.11146e-07 5.6861e-08)
(0.000774791 1.3013e-06 -6.7188e-10)
(0.00103292 -1.05034e-06 1.70771e-07)
(0.000772304 -4.33312e-07 9.45021e-08)
(0.000773327 -2.74786e-07 3.93801e-08)
(0.00103054 -5.9099e-07 1.79005e-07)
(0.000771395 -3.28796e-07 8.26778e-08)
(0.000772056 4.75396e-08 1.0793e-07)
(0.00102899 -5.59717e-07 2.6214e-07)
(0.000770262 7.46099e-08 1.07843e-07)
(0.000771081 -9.18726e-08 4.88232e-08)
(0.00102763 -3.01227e-07 2.36198e-07)
(0.000769063 5.34337e-07 2.12781e-07)
(0.000769812 5.79526e-07 2.39883e-07)
(0.00102608 5.52677e-07 1.30072e-07)
(0.000767073 4.71203e-07 1.42421e-07)
(0.000767971 5.5277e-07 1.76109e-07)
(0.00102399 9.29395e-07 2.31898e-07)
(0.000765629 1.64639e-07 4.25606e-08)
(0.000766214 1.89135e-07 6.54859e-08)
(0.00102163 3.30621e-07 1.68976e-07)
(0.000764191 7.93832e-08 4.54435e-08)
(0.000764864 5.76081e-09 4.56012e-08)
(0.00101967 9.69836e-08 1.64661e-07)
(0.000762887 1.18229e-07 5.21917e-08)
(0.000763461 -2.2269e-07 4.94722e-08)
(0.00101784 1.25146e-07 1.77921e-07)
(0.000761269 2.17312e-07 4.39115e-08)
(0.000762042 1.62927e-07 5.98698e-08)
(0.001016 2.39085e-07 1.79299e-07)
(0.000759848 3.4444e-07 5.04113e-08)
(0.000760573 3.51112e-07 3.92889e-08)
(0.00101389 4.33757e-07 1.60633e-07)
(0.000758157 2.00014e-07 5.64661e-08)
(0.000758881 -6.96933e-07 5.56904e-08)
(0.00101173 5.51255e-07 1.65937e-07)
(0.000756764 -1.62316e-07 5.33553e-08)
(0.000757258 8.88795e-08 4.47677e-08)
(0.00100975 7.52584e-09 1.68557e-07)
(0.000755257 -4.45748e-07 4.47058e-08)
(0.000755792 2.50027e-07 5.5512e-08)
(0.00100774 -3.94613e-07 1.55994e-07)
(0.000754136 -4.36712e-07 4.92845e-08)
(0.000754841 -9.62973e-07 1.46379e-07)
(0.00100597 -7.24597e-07 1.83599e-07)
(0.000752928 -2.07029e-07 5.61787e-08)
(0.000753933 -5.9782e-08 7.51493e-08)
(0.00100464 -4.62194e-07 1.32985e-07)
(0.000751467 -1.25934e-07 4.75387e-08)
(0.00075229 2.55798e-07 5.3564e-08)
(0.00100276 -1.7682e-07 1.65492e-07)
(0.000749969 -4.67136e-08 5.74784e-08)
(0.000750772 6.46707e-08 5.28021e-08)
(0.00100077 -2.09213e-07 1.71046e-07)
(0.000748674 -4.23999e-08 5.47894e-08)
(0.000749335 3.13305e-07 6.59889e-08)
(0.000998966 8.02327e-08 1.26818e-07)
(0.000747254 -2.29363e-07 6.55968e-08)
(0.000747806 -4.57235e-07 6.07681e-08)
(0.000997081 -1.58413e-07 1.76176e-07)
(0.000745717 -2.77622e-07 5.64176e-08)
(0.000746373 4.00843e-07 7.27347e-08)
(0.000995037 -4.28974e-07 2.44352e-07)
(0.000745415 9.09066e-08 4.82483e-08)
(0.000993695 -3.03539e-07 8.1995e-08)
(-0.00439324 -0.00898456 0.0003066)
(-0.00890847 -0.0133131 -0.000237953)
(-0.0164709 -0.0159428 -3.29038e-05)
(-0.00267768 -0.0198534 0.000185153)
(-0.0147569 -0.0173032 0.00124663)
(0.00363474 -0.00179613 -0.000840402)
(0.00782911 -0.0120237 -0.00117464)
(-0.00728194 -0.00974343 -0.000478343)
(-0.0149041 0.0177486 -0.0113352)
(0.00549937 -0.0027472 -0.000291035)
(0.0132794 -0.0199554 -0.00344095)
(-0.0263889 0.00656293 -0.00338125)
(0.0179108 -0.0015536 0.000743029)
(0.0471128 0.0114675 -0.000657752)
(0.0317816 -0.00207854 0.000608627)
(0.0590437 0.00875561 -0.000142628)
(0.0277581 0.0197545 0.000802119)
(0.00013467 0.0005322 2.68341e-05)
(0.00766331 -0.00789423 0.00027539)
(-0.0027636 0.00353648 0.000281193)
(0.00141111 -0.00162891 -2.96068e-05)
(-0.00104065 -0.00366776 0.000642088)
(-0.00119341 -0.00656806 -0.000389332)
(-0.00298695 -0.00701922 0.000500558)
(-0.00232723 0.00204677 0.000466214)
(0.00201677 -0.00846142 0.000884313)
(0.000801428 -0.000367261 0.000363498)
(0.00298541 -0.00511385 -0.000171955)
(0.00219911 -0.000607334 0.000626047)
(-0.0083049 -7.87227e-05 4.92094e-06)
(0.00849315 -0.00158968 0.000684939)
(-0.00497271 -0.001236 0.000422103)
(-0.00489667 -0.000979637 0.00183922)
(-0.00490728 0.00128957 0.000827678)
(-0.0045663 0.00136807 -5.40846e-05)
(-0.00196137 -0.0007398 -3.56237e-05)
(0.00126921 0.000298588 -0.000162793)
(-0.00168649 -0.00116634 0.000247913)
(-0.00160433 -0.00114903 -7.73078e-05)
(-0.00198648 -0.00248277 5.56218e-06)
(-0.000376858 -0.00104625 -6.44554e-05)
(-0.00139729 -0.00246117 -5.90182e-05)
(-0.00199351 -0.00174366 -4.71679e-05)
(0.00106868 1.85548e-06 1.10898e-05)
(0.000395806 -0.000146659 3.45945e-05)
(0.000402301 -0.000156843 1.90107e-05)
(0.000521346 -0.000119074 6.32364e-05)
(0.000326919 -7.58908e-05 1.93817e-05)
(0.000402856 -7.67285e-06 -6.65424e-07)
(0.000424026 -1.04518e-05 -2.68013e-06)
(0.000401659 -1.62348e-05 1.89164e-07)
(0.000646488 -2.91538e-07 -2.85609e-07)
(0.000771393 4.58008e-06 -9.81631e-07)
(0.000829275 -1.36375e-05 -1.3951e-06)
(0.00109628 1.65416e-05 -8.11788e-07)
(0.00054326 -9.84617e-06 -3.46024e-06)
(0.000550446 -1.10527e-05 -4.9346e-06)
(0.000902163 -2.62673e-05 -4.30142e-06)
(0.000909349 -2.60082e-05 -6.17361e-06)
(0.000784123 2.71577e-07 -1.38132e-07)
(0.000772533 -9.04428e-06 -3.77279e-07)
(0.00102612 1.28542e-06 7.12839e-08)
(0.000790457 9.78102e-07 1.2099e-07)
(0.000792812 -4.18311e-06 1.82875e-07)
(0.00105563 3.06523e-06 2.06567e-07)
(0.000793436 6.22057e-07 4.88866e-08)
(0.000792934 -2.2517e-06 3.34485e-08)
(0.00105696 1.8237e-06 1.74794e-07)
(0.000794519 4.46239e-07 5.46227e-08)
(0.000794744 -1.20825e-06 5.70439e-08)
(0.00105973 1.27133e-06 1.78448e-07)
(0.000794445 3.06891e-07 5.16087e-08)
(0.000794806 -6.41859e-07 5.00567e-08)
(0.00105985 8.13497e-07 1.77253e-07)
(0.00079376 1.9499e-07 4.08843e-08)
(0.000794265 -2.95268e-07 4.90868e-08)
(0.00105904 5.54827e-07 1.77337e-07)
(0.000792943 1.47245e-07 3.48956e-08)
(0.000793387 -1.57952e-07 3.81217e-08)
(0.00105793 3.02561e-07 1.84589e-07)
(0.000791705 1.58577e-07 4.41719e-08)
(0.000792285 -1.8634e-07 4.23905e-08)
(0.00105643 2.73443e-07 1.84921e-07)
(0.000790102 1.18e-07 2.69918e-08)
(0.000790934 2.81168e-07 3.82572e-08)
(0.00105443 2.06624e-07 1.59216e-07)
(0.000788657 9.71278e-08 2.4094e-08)
(0.000789508 -1.83252e-06 -7.58579e-09)
(0.00105248 8.34735e-08 2.76635e-07)
(0.000787476 9.27879e-08 5.37831e-08)
(0.000788114 -9.68145e-08 3.69799e-08)
(0.00105078 1.32226e-07 1.74183e-07)
(0.000786293 8.18073e-08 5.43421e-08)
(0.000786769 -1.51689e-07 6.30855e-08)
(0.00104905 8.49186e-08 1.79198e-07)
(0.000785128 1.41259e-07 6.59084e-08)
(0.000785508 -1.66656e-07 4.45734e-08)
(0.00104752 1.04639e-07 1.71984e-07)
(0.000782943 1.40745e-07 -4.75277e-09)
(0.000783946 -4.48852e-07 4.86136e-08)
(0.00104529 2.56738e-07 1.26943e-07)
(0.000781651 -1.02723e-07 -4.21372e-08)
(0.000782209 -3.19353e-07 -1.85362e-08)
(0.00104288 1.5732e-07 2.15676e-07)
(0.000779574 -1.89694e-07 2.11293e-08)
(0.000780752 2.16051e-06 3.71202e-08)
(0.00104064 -3.55864e-07 9.58405e-08)
(0.000778467 -8.40151e-08 5.0805e-08)
(0.000779324 -3.53188e-07 2.82588e-08)
(0.00103852 -9.44433e-08 1.75109e-07)
(0.000777026 -5.72266e-08 6.7179e-08)
(0.000777888 -6.67239e-08 6.46517e-08)
(0.00103689 -8.35212e-08 1.83006e-07)
(0.000775234 -1.89628e-08 4.73014e-11)
(0.000776324 -6.59179e-08 7.04341e-08)
(0.00103454 -1.37448e-08 2.05802e-07)
(0.000774305 2.40487e-07 -1.81654e-08)
(0.000775115 -8.5791e-07 -2.21497e-08)
(0.00103283 9.72342e-09 2.76992e-07)
(0.000772824 6.40086e-07 5.27868e-08)
(0.000773824 -1.27212e-06 2.4277e-08)
(0.00103136 6.75527e-07 2.43849e-07)
(0.000771856 7.60711e-07 7.40941e-08)
(0.000772204 -9.35269e-07 4.90933e-08)
(0.00102951 1.06022e-06 1.97536e-07)
(0.000770636 5.62093e-07 1.80803e-07)
(0.00077083 -1.95371e-06 3.07423e-08)
(0.00102827 9.65631e-07 2.82241e-07)
(0.000768988 2.6679e-07 2.03231e-07)
(0.000769441 4.01087e-07 1.69446e-07)
(0.00102642 5.26745e-07 2.00787e-07)
(0.000766849 8.88955e-08 9.92078e-08)
(0.000767748 1.08655e-07 7.57965e-08)
(0.00102356 1.92166e-07 2.63457e-07)
(0.000765467 7.28672e-08 6.85327e-08)
(0.000766194 1.26615e-07 6.86262e-08)
(0.00102128 4.62252e-08 1.68997e-07)
(0.000764141 9.97504e-08 4.96287e-08)
(0.000764897 -1.78541e-07 4.54247e-08)
(0.00101963 1.20445e-07 1.72736e-07)
(0.000762641 7.39772e-08 5.71471e-08)
(0.000763428 4.32822e-08 4.50373e-08)
(0.00101769 1.22769e-07 1.56248e-07)
(0.000761272 7.21847e-08 5.52535e-08)
(0.00076204 1.10421e-07 4.78731e-08)
(0.00101577 7.25658e-08 1.67306e-07)
(0.000759805 7.27469e-09 4.45629e-08)
(0.000760492 4.43509e-07 2.14652e-08)
(0.00101391 1.04431e-07 1.65734e-07)
(0.000757803 -3.98557e-08 4.39954e-08)
(0.000758822 -3.81605e-07 3.89895e-08)
(0.00101153 -8.82431e-08 1.97917e-07)
(0.000756351 2.13648e-08 4.69212e-08)
(0.000757335 1.81707e-07 5.19195e-08)
(0.00100921 3.38516e-09 1.64593e-07)
(0.000755033 2.96529e-07 1.57157e-07)
(0.000756135 6.03148e-07 8.55404e-08)
(0.0010073 8.96558e-08 1.33815e-07)
(0.000755039 4.00172e-07 1.72266e-07)
(0.000754969 -2.27669e-06 1.55303e-07)
(0.00100649 7.5875e-07 1.34861e-07)
(0.000753277 1.5626e-07 7.25412e-08)
(0.000753626 2.42665e-07 4.58255e-08)
(0.00100541 4.08684e-07 1.78118e-07)
(0.00075152 1.1918e-07 5.88276e-08)
(0.000752242 4.79238e-07 5.02628e-08)
(0.00100299 1.5835e-07 1.83634e-07)
(0.000750105 2.49687e-07 6.13085e-08)
(0.000750933 -1.15992e-07 4.67883e-08)
(0.00100098 2.88641e-07 1.8237e-07)
(0.000748485 2.41414e-07 7.19692e-08)
(0.000749323 -4.43932e-08 7.43476e-08)
(0.00099894 4.34096e-07 2.14363e-07)
(0.000746925 1.27497e-07 6.79024e-08)
(0.000747663 -3.86561e-08 4.38661e-08)
(0.000996676 2.45606e-07 1.52512e-07)
(0.000745871 8.50455e-08 6.45728e-08)
(0.000746319 -1.32495e-07 5.1898e-08)
(0.000994877 1.30641e-07 1.76237e-07)
(0.000745309 1.24018e-07 5.74423e-08)
(0.000993655 1.07228e-07 1.55966e-07)
(0.0230412 -0.00620974 -0.00111088)
(0.00201549 -0.00468499 -0.00181397)
(-0.000701774 -0.0139232 -0.00189488)
(-0.000732816 -0.00878398 -0.002778)
(-0.00515641 -9.57151e-05 -0.0112021)
(-0.00136455 -0.0203839 -0.00173143)
(0.012356 -0.0200926 0.00571338)
(0.00413615 -0.00541724 0.000262361)
(0.00687487 -0.00271051 0.000880696)
(-0.0142528 -0.00132843 0.012013)
(-0.0124008 -0.0112817 0.00821956)
(0.00225939 0.0215554 -0.0214622)
(-0.01848 -0.00146084 0.00205288)
(0.0232573 -0.0305028 0.00262463)
(-0.0180787 -5.78334e-05 -0.000843902)
(-0.00569089 -0.00405088 -0.00289435)
(0.018528 0.00544892 0.000199363)
(-0.0259369 -0.0110858 0.000525891)
(-0.0156005 -0.0191547 0.000656281)
(-0.00239091 0.00987286 -0.00438251)
(-0.00618938 -0.00186173 -0.00375598)
(-0.00553019 -0.00656321 0.000106665)
(-0.00369828 -0.00273412 0.00151573)
(0.0296184 -0.00539031 -0.00118621)
(-0.010183 -0.00852358 0.00159788)
(-0.0120798 0.00184326 -0.00258778)
(-0.00780696 0.00178225 0.00369715)
(-0.00649415 -0.00267449 0.000688019)
(-0.00722091 -0.0225135 -0.00139855)
(-0.00789691 -0.0165437 -0.0039718)
(-0.0244367 -0.0103352 0.000321272)
(0.0127594 -0.0247786 -0.000252567)
(0.0121658 -0.00901229 -0.000414093)
(0.00342325 -0.0105879 0.00042347)
(0.00579486 -0.000771742 0.00031342)
(0.0044539 -0.00457793 0.000255064)
(-0.000856975 0.002753 -8.09284e-06)
(-0.00284786 -0.0015875 2.21771e-05)
(0.00290471 -0.00627241 0.000804172)
(0.00608374 -0.00137712 0.000249635)
(-0.00710913 -0.00260006 0.000389657)
(-0.000915801 -0.00101458 -0.000145905)
(-0.0042822 -0.00209377 -0.000220783)
(0.000761602 0.00767587 -0.00024695)
(0.00188294 0.000653274 -0.000115845)
(-0.00492187 0.00072011 -0.000537046)
(-0.000509797 -0.000582455 4.24363e-06)
(0.00167069 -3.9033e-05 4.40033e-05)
(0.00182978 -0.000761621 9.71835e-05)
(0.00167161 -0.000938855 -0.000113745)
(0.00141814 -0.000325887 6.24902e-05)
(0.000296297 -1.74363e-05 -2.35478e-06)
(0.000449392 -3.58462e-05 -3.40267e-06)
(0.000419784 -4.99e-05 -7.44011e-07)
(0.000703169 -7.67343e-05 -1.46959e-06)
(0.000293689 -1.77615e-05 -2.11549e-06)
(0.000554695 -1.61131e-05 -2.67144e-06)
(0.000552105 -1.54859e-05 1.88489e-06)
(0.000419002 -4.0455e-05 -2.81449e-07)
(0.000787754 -1.85525e-05 -7.91081e-07)
(0.000848132 -2.7092e-05 -1.22876e-06)
(0.00112527 -2.66822e-05 -1.00659e-06)
(0.000570498 -2.26891e-05 -3.74827e-06)
(0.000577875 -2.50186e-05 -4.45827e-06)
(0.000944805 -3.51902e-05 -4.64658e-06)
(0.000964485 -3.79851e-05 -5.61786e-06)
(0.000792166 -9.72609e-06 -5.64556e-08)
(0.000783457 -1.45494e-05 -3.82372e-07)
(0.00103954 -1.28164e-05 4.42573e-08)
(0.000794171 -5.32729e-06 9.53825e-08)
(0.000798286 -8.8992e-06 1.68065e-07)
(0.00106188 -6.76153e-06 1.99154e-07)
(0.00079511 -3.04059e-06 4.15981e-08)
(0.000795776 -5.20808e-06 5.86684e-08)
(0.00105957 -3.42496e-06 1.69913e-07)
(0.000795284 -1.80435e-06 5.24802e-08)
(0.000796277 -3.33341e-06 1.72948e-07)
(0.00106076 -2.14302e-06 1.78781e-07)
(0.000794839 -9.11328e-07 4.75352e-08)
(0.000795914 -1.95581e-06 5.11262e-08)
(0.00106027 -1.07284e-06 1.75875e-07)
(0.000793959 -4.01176e-07 4.63277e-08)
(0.000794897 -1.06061e-06 3.52285e-08)
(0.00105929 -3.63169e-07 1.74898e-07)
(0.00079283 -2.67859e-07 4.56152e-08)
(0.000793549 -6.09137e-07 3.3309e-08)
(0.00105784 -7.91864e-08 1.74485e-07)
(0.000791605 -2.62229e-07 3.64772e-08)
(0.000792289 -4.42032e-07 4.65507e-08)
(0.00105624 -2.24191e-07 1.69111e-07)
(0.000790389 -1.98411e-07 3.69439e-09)
(0.000791012 -3.48516e-07 3.72178e-08)
(0.00105456 -1.6911e-07 1.94176e-07)
(0.000788875 -1.84428e-07 5.28575e-09)
(0.000789524 -6.28496e-08 2.23195e-08)
(0.00105273 -1.2557e-07 5.42447e-08)
(0.000787397 -1.61427e-07 4.62739e-08)
(0.000788142 -2.84685e-07 4.66336e-08)
(0.00105074 -2.54101e-07 1.86491e-07)
(0.000785969 -1.7518e-07 5.33227e-08)
(0.000786753 -2.61255e-07 6.28238e-08)
(0.00104881 -1.60721e-07 1.76849e-07)
(0.000784523 -3.42099e-07 2.72773e-08)
(0.000785301 -9.60921e-08 8.75294e-08)
(0.00104693 -3.00212e-07 1.65981e-07)
(0.000783056 -3.72097e-07 3.48515e-08)
(0.00078391 3.60616e-07 2.38285e-08)
(0.00104499 -5.95224e-07 1.1639e-07)
(0.000781339 -2.82102e-07 6.07035e-08)
(0.000782322 6.49021e-08 7.84446e-08)
(0.00104273 -3.82861e-07 1.67651e-07)
(0.000780475 -8.26557e-08 4.42524e-08)
(0.000781002 3.38288e-07 6.46763e-08)
(0.00104106 -3.47226e-07 2.47383e-07)
(0.000778738 1.66385e-07 4.20939e-08)
(0.000779635 2.89031e-08 4.63307e-08)
(0.00103937 1.4074e-07 1.69451e-07)
(0.000777278 2.82687e-07 6.79049e-08)
(0.000778032 5.18411e-09 6.12659e-08)
(0.00103712 3.09489e-07 1.66727e-07)
(0.000775987 5.93022e-07 4.82663e-08)
(0.000776709 -4.86713e-07 5.30715e-08)
(0.00103527 4.93301e-07 1.86504e-07)
(0.000774871 7.71989e-07 2.0278e-08)
(0.000775335 -2.17168e-06 8.28876e-09)
(0.00103378 1.17567e-06 2.33967e-07)
(0.000773068 7.40721e-07 2.05758e-08)
(0.000773781 8.91451e-09 2.18168e-08)
(0.00103185 9.6539e-07 1.11366e-07)
(0.000771259 7.65898e-07 5.74729e-09)
(0.000772231 -2.00067e-07 3.55625e-08)
(0.00102935 1.0565e-06 1.50371e-07)
(0.000769536 4.80011e-07 1.93418e-08)
(0.00077047 -4.71973e-07 1.64527e-08)
(0.00102695 1.02686e-06 8.97538e-08)
(0.000768383 6.15463e-08 4.20412e-08)
(0.000768917 -4.92303e-08 3.74981e-08)
(0.0010251 2.84243e-07 1.76166e-07)
(0.000766901 -9.2106e-09 4.52171e-08)
(0.000767659 5.77357e-08 4.36955e-08)
(0.00102339 -1.05488e-07 1.77061e-07)
(0.000765712 4.26377e-08 4.55254e-08)
(0.000766258 -7.68931e-09 5.54038e-08)
(0.00102154 1.08917e-07 1.56982e-07)
(0.000764142 -7.70992e-09 4.08335e-08)
(0.000764834 -5.4114e-09 4.30533e-08)
(0.00101976 2.74727e-08 1.68965e-07)
(0.000762804 -4.04499e-08 3.57625e-08)
(0.000763387 -1.56641e-07 -2.09164e-08)
(0.00101778 -4.32914e-08 1.75066e-07)
(0.000761353 -2.00065e-07 1.4093e-08)
(0.000761841 2.30665e-07 4.62396e-08)
(0.00101598 -7.68716e-08 1.62284e-07)
(0.000759481 -2.93184e-07 1.58863e-08)
(0.000760376 2.17649e-06 5.2804e-08)
(0.00101369 -4.67506e-07 8.43369e-08)
(0.000758319 -9.08931e-08 4.69095e-08)
(0.000759076 -2.7765e-07 4.08434e-08)
(0.0010116 -3.21075e-07 1.37602e-07)
(0.000757001 1.81535e-07 9.05284e-08)
(0.000757675 1.69418e-08 5.61779e-08)
(0.00100997 6.61545e-08 1.71098e-07)
(0.000756153 4.6718e-07 8.36651e-08)
(0.00075649 2.5008e-07 1.45492e-07)
(0.00100868 4.17629e-07 1.42444e-07)
(0.000753603 4.74794e-07 2.88968e-08)
(0.000754976 -1.22765e-06 5.4917e-08)
(0.00100636 8.24678e-07 1.95096e-07)
(0.000752522 1.78386e-07 2.35458e-08)
(0.000753254 4.51178e-07 6.57533e-09)
(0.00100389 4.77863e-07 1.23185e-07)
(0.000751676 2.43552e-08 3.82245e-08)
(0.000752048 1.39432e-07 4.3615e-08)
(0.00100261 7.87535e-08 1.41797e-07)
(0.000750325 -1.67234e-08 5.98189e-08)
(0.000750882 2.43067e-08 4.30698e-08)
(0.00100111 4.02151e-08 1.53246e-07)
(0.000748259 1.01852e-08 4.62538e-08)
(0.000749357 -5.09833e-07 1.64514e-08)
(0.000998907 -6.3147e-08 2.62722e-07)
(0.000747142 1.65392e-07 2.78593e-08)
(0.000747857 -3.47023e-07 1.40829e-08)
(0.000996699 1.04181e-07 1.6519e-07)
(0.000745588 2.39346e-07 4.47658e-08)
(0.000746408 6.4497e-08 4.18252e-08)
(0.000994859 3.38783e-07 1.68548e-07)
(0.000745011 3.44505e-07 6.86879e-08)
(0.000993398 2.98002e-07 1.21023e-07)
(0.011387 0.00184001 0.000622102)
(0.0112638 0.00426493 -0.000617645)
(0.00916418 0.00456439 -0.00126364)
(0.0130252 -0.00201192 0.000132136)
(0.00359084 -0.00883068 0.00197338)
(0.00839924 0.000774743 0.000653661)
(0.00446099 0.00634593 -0.00042388)
(-0.00217312 0.00294089 0.000569739)
(-0.00117459 -0.000204114 -0.000659485)
(0.00712147 -0.00310441 0.00123136)
(-0.00828149 -0.00326608 -0.00188924)
(0.0114547 0.00275879 -0.000541215)
(0.0105011 0.00290456 0.000196445)
(-0.00386774 0.00299236 0.000915273)
(0.00321183 -0.00399417 0.000957254)
(-0.00232289 -0.0065084 0.00254508)
(-0.0178565 0.022883 -0.00123441)
(-0.0106702 -0.01386 -0.00295892)
(-0.00631698 0.0298206 0.000715256)
(-0.00623263 0.0212756 -4.63047e-05)
(-0.0067842 0.00354204 0.00120262)
(-0.0199598 0.018858 0.00118108)
(-0.0175184 -0.0139265 0.000373081)
(-0.0130345 0.00715631 0.00320267)
(-0.0188272 0.0173815 0.00158317)
(-0.0200033 0.0390059 -0.00345357)
(0.0244498 -0.0160506 -0.00442248)
(-0.00210852 0.0659522 -0.000734901)
(0.0481795 0.0402226 -0.0121507)
(0.0593435 0.00838488 -0.000579197)
(-0.0160488 0.00872146 0.00330796)
(0.0213469 -0.0230995 0.0027933)
(-0.0601853 0.0201197 0.000556607)
(0.0086401 -0.0404724 -0.00564834)
(-0.0557747 -0.0184447 0.0101529)
(-0.00490508 0.00597166 -0.000771581)
(-0.00390774 0.0125892 -0.000125553)
(-0.00451599 0.00739197 -0.000537023)
(-0.00400141 0.0163239 -1.80883e-05)
(-0.00706411 -0.00212603 -0.000646234)
(0.000502836 -0.000207281 1.96723e-05)
(0.00131888 0.000307157 2.71912e-06)
(0.00102396 -0.000196139 5.56049e-05)
(0.00109925 3.41704e-05 1.23588e-05)
(0.000759416 0.000322979 4.30191e-05)
(0.000343296 -2.79986e-05 2.70795e-06)
(0.000480599 -2.51911e-05 -3.62962e-06)
(0.000440486 -2.11949e-05 -5.85859e-07)
(0.00072904 -3.47588e-05 6.59496e-07)
(0.000349524 -2.3141e-05 3.94653e-06)
(0.000656248 -5.2955e-05 1.17668e-05)
(0.000663684 -3.99116e-05 1.45003e-05)
(0.000430301 -3.99486e-05 -9.20774e-07)
(0.000799889 -1.97802e-05 -8.20329e-07)
(0.000856922 -2.539e-05 -1.2815e-06)
(0.00113872 -2.68537e-05 -1.11298e-06)
(0.000594588 -2.40201e-05 -3.74043e-06)
(0.000589904 -1.96512e-05 -4.73712e-06)
(0.0009889 -3.43134e-05 -4.48667e-06)
(0.000976309 -2.47056e-05 -5.88211e-06)