/*--------------------------------*- C++ -*----------------------------------*\
| =========                 |                                                 |
| \\      /  F ield         | OpenFOAM: The Open Source CFD Toolbox           |
|  \\    /   O peration     | Version:  5.0                                   |
|   \\  /    A nd           | Web:      www.OpenFOAM.org                      |
|    \\/     M anipulation  |                                                 |
\*---------------------------------------------------------------------------*/
FoamFile
{
    version     2.0;
    format      ascii;
    class       surfaceScalarField;
    location    "3.3";
    object      alphaPhi10;
}
// * * * * * * * * * * * * * * * * * * * * * * * * * * * * * * * * * * * * * //

dimensions      [0 3 -1 0 0 0 0];

internalField   nonuniform List<scalar> 
25282
(
2.5721e-08
-5.97961e-09
6.84779e-08
2.29472e-08
2.07057e-08
2.21246e-08
2.43744e-08
2.22502e-08
2.3393e-08
2.49243e-08
2.43922e-08
2.42176e-08
-2.4184e-08
2.02576e-08
2.6494e-08
2.60711e-08
3.65089e-08
3.53179e-08
-5.39632e-09
4.78313e-08
2.44855e-08
-8.19504e-10
-8.93912e-09
2.4921e-09
-8.72641e-09
1.79292e-07
-1.78345e-07
1.2974e-08
-1.14059e-07
4.91903e-09
7.33341e-10
2.37607e-09
3.64107e-09
2.31188e-10
-1.99153e-09
-4.35512e-09
9.20374e-09
1.46427e-12
6.27765e-08
6.27775e-08
6.27763e-08
2.23119e-22
1.74369e-18
5.37307e-21
1.58182e-19
8.08721e-20
-1.22172e-18
-7.69631e-19
1.74467e-18
1.75448e-18
1.74484e-18
2.43796e-26
1.56964e-22
-2.96348e-25
1.02694e-26
3.17774e-26
7.22015e-30
3.49677e-28
9.53589e-29
5.81106e-31
5.51734e-31
1.18318e-30
-8.09786e-32
4.45907e-35
6.46427e-34
-2.94831e-34
6.83308e-39
6.95425e-38
3.71992e-38
2.63098e-42
1.71456e-41
-2.50021e-41
1.10021e-45
5.14807e-45
-5.66884e-43
4.60493e-49
1.22159e-48
1.64911e-47
1.93397e-52
2.50222e-52
1.48318e-49
8.08793e-56
5.33743e-56
4.99695e-53
3.37324e-59
1.71339e-59
7.52436e-57
1.42626e-62
8.06307e-63
-2.48808e-59
5.97039e-66
2.50664e-66
4.04791e-62
2.48797e-69
1.62204e-70
9.91114e-66
1.05785e-72
-3.61716e-74
2.58313e-70
4.90868e-76
-6.82895e-77
7.58678e-72
2.25974e-79
-1.69467e-79
7.81969e-75
9.34294e-83
-7.49084e-84
-1.81203e-78
4.04053e-86
-3.36234e-88
-5.43591e-82
2.24705e-89
7.42422e-90
3.55758e-84
1.3658e-92
-1.08422e-94
1.03936e-87
1.46982e-95
5.45338e-96
-1.53789e-90
3.64087e-99
3.5579e-100
-1.57664e-94
7.66721e-102
2.15074e-103
-4.82425e-98
1.69231e-104
-8.62511e-105
3.75071e-100
3.29003e-108
-5.05951e-110
7.0168e-104
2.51188e-111
-9.73078e-113
-1.53393e-106
2.96153e-114
2.38708e-115
-1.61944e-109
7.26596e-117
3.93847e-118
-3.4144e-113
5.89039e-121
2.38224e-123
1.87816e-118
2.43424e-124
-2.20465e-125
1.43162e-125
2.80578e-127
1.13105e-128
-9.006e-124
2.79732e-130
-1.21115e-131
-8.1988e-126
4.52805e-133
1.31765e-134
1.31923e-128
1.27597e-135
4.22555e-136
-1.09723e-131
1.559e-139
-6.05594e-142
8.2527e-136
1.01644e-142
4.94153e-143
-5.32161e-138
2.36825e-146
9.0369e-148
-1.13073e-141
3.89304e-149
-6.14721e-153
6.04971e-147
4.15799e-151
1.70192e-152
-4.99128e-148
3.97179e-156
4.46777e-156
5.12577e-08
-3.95235e-09
-3.86431e-07
5.46489e-08
5.01229e-08
5.37328e-08
1.40687e-08
1.94708e-08
5.08884e-08
5.74849e-08
-2.75056e-08
-8.7909e-08
-6.95749e-09
-1.11126e-08
-5.75522e-09
-4.33931e-09
-1.10329e-08
-9.3993e-09
-1.01894e-08
-1.26108e-08
-3.84577e-08
3.93268e-10
5.24549e-09
-2.76541e-09
1.99204e-08
1.72348e-08
4.09588e-08
1.29607e-08
2.49533e-08
2.48142e-08
3.45956e-11
-2.74437e-09
1.24068e-09
1.77993e-10
1.02753e-09
-1.67117e-09
-5.05538e-11
1.20575e-12
1.78118e-08
2.80717e-11
1.78147e-08
-1.40362e-18
1.74479e-18
2.76599e-08
1.74723e-18
4.50962e-25
-2.5125e-22
1.3054e-23
6.54167e-22
6.74458e-22
6.74893e-22
6.65691e-22
-9.64494e-28
-5.0285e-26
8.29248e-27
1.14062e-28
8.49721e-28
2.9751e-30
4.97898e-31
1.6034e-30
1.51499e-32
3.27987e-35
-1.35557e-34
3.88009e-35
2.62252e-39
-8.61013e-38
-3.43411e-39
9.60564e-43
-3.32539e-42
1.37729e-42
3.97092e-46
-6.28878e-46
-4.45077e-44
1.64786e-49
-2.50801e-49
-9.87653e-49
6.84214e-53
-4.23711e-53
-6.0665e-51
2.83538e-56
6.50016e-56
-1.04443e-53
1.17006e-59
2.64048e-60
-2.07213e-57
4.83349e-63
-3.68999e-63
-4.58494e-61
2.00861e-66
-1.45836e-67
9.46334e-64
8.45206e-70
9.77143e-70
-9.76128e-67
3.50156e-73
-4.42236e-73
-8.50375e-70
1.44684e-76
3.72011e-77
-2.92388e-73
6.18145e-80
6.3061e-80
2.108e-76
2.50341e-83
-1.70062e-83
9.50923e-80
1.00577e-86
-1.74033e-87
8.65497e-84
4.30728e-90
9.11388e-91
-7.9734e-87
2.00953e-93
2.08353e-92
-5.80149e-89
1.10692e-96
6.73343e-98
4.30502e-93
1.06973e-99
-6.66867e-102
-4.37104e-95
4.08525e-103
-2.21261e-101
-2.51641e-99
5.77566e-106
-4.30039e-104
1.45049e-100
1.37395e-109
3.48099e-110
-5.59768e-105
1.10887e-112
6.20657e-112
2.03657e-107
3.95273e-116
-1.104e-115
-5.54919e-111
8.33529e-119
1.1596e-120
-8.41914e-121
1.07936e-120
-1.21296e-122
2.03536e-117
8.42563e-125
-4.66636e-125
1.72873e-120
2.76995e-128
-3.10764e-128
-5.15585e-124
2.15728e-131
1.93064e-132
-1.221e-126
5.0885e-135
-7.17142e-134
-1.1977e-129
1.9667e-138
8.92547e-139
1.29021e-138
1.18095e-141
3.97162e-142
5.02501e-136
6.29987e-145
1.69093e-146
-1.61201e-139
2.58627e-148
-2.42308e-147
-6.25926e-143
8.74642e-152
-4.27136e-151
1.36485e-147
1.2212e-153
1.20848e-155
5.95185e-151
1.41752e-157
-1.38281e-152
8.0696e-08
2.32082e-08
-2.96447e-07
-4.84563e-09
-1.6263e-08
1.68229e-07
2.05704e-09
-2.4505e-09
-2.71429e-08
-6.74868e-09
-8.8647e-09
-7.34412e-09
-9.56344e-09
7.88298e-09
1.88905e-08
2.9293e-08
-1.43185e-08
-3.11052e-08
1.68449e-09
2.14724e-08
-7.87981e-10
2.10499e-08
-3.82989e-08
-3.14517e-08
2.09443e-08
2.37303e-08
-2.64729e-08
-4.13247e-09
-3.12516e-10
2.00416e-09
6.48378e-09
-1.28541e-09
4.50781e-12
-2.34911e-11
1.4347e-09
-1.33671e-10
1.61995e-09
1.38758e-18
-1.36561e-18
-5.74826e-09
-1.02279e-18
-1.13534e-17
7.81036e-18
-3.6563e-18
-1.32242e-18
7.45619e-25
-2.16562e-21
-5.39458e-25
7.41154e-20
7.4772e-20
7.5887e-20
7.10112e-20
6.72605e-26
-2.82347e-25
-1.30897e-26
2.489e-27
-1.8632e-28
9.50053e-30
1.28369e-30
-6.79393e-31
-3.75164e-31
7.89545e-35
2.27675e-35
-7.50198e-34
2.53482e-38
8.44771e-38
3.87853e-37
9.69297e-42
2.15199e-41
1.87893e-40
3.95409e-45
2.38508e-45
-6.68924e-44
1.67431e-48
2.32349e-48
-8.34251e-46
7.17044e-52
8.22571e-52
-5.4271e-49
3.05916e-55
2.01928e-55
-1.33611e-51
1.29488e-58
-1.26266e-58
-9.86197e-56
5.52531e-62
-1.42371e-62
-1.40697e-58
2.36906e-65
-1.23466e-65
5.49933e-62
1.02268e-68
-7.03278e-69
8.79386e-65
4.3735e-72
-2.27554e-72
-9.36337e-68
1.97573e-75
8.54998e-76
-5.07066e-72
9.2086e-79
-1.00794e-78
2.9373e-75
3.84997e-82
2.61429e-83
-4.18718e-78
2.5436e-85
-1.69707e-85
2.64398e-83
5.18478e-88
-1.82062e-89
3.0925e-84
3.46323e-91
6.36309e-92
-7.89472e-87
4.49672e-95
-2.77274e-95
8.70205e-96
1.16229e-97
-1.59394e-97
2.7118e-100
2.24103e-99
3.66086e-101
-1.38991e-96
1.48868e-103
2.23794e-104
-7.81521e-99
2.47045e-107
1.36309e-107
2.7956e-102
1.06766e-110
-1.89584e-111
1.07686e-105
4.7818e-114
-1.84599e-116
-1.93056e-109
4.15409e-117
-1.82162e-118
-2.34336e-113
1.9906e-119
4.93522e-121
-1.21889e-115
3.60841e-123
2.90212e-123
1.05953e-118
1.13722e-126
-7.16185e-128
-2.96732e-122
1.13923e-129
9.91579e-130
-8.82214e-125
1.77359e-132
1.28386e-133
1.46097e-128
2.63188e-136
2.7839e-137
-8.63948e-133
7.70258e-140
7.81901e-140
3.57085e-135
6.56196e-143
1.43296e-143
5.06349e-140
2.12436e-145
8.98258e-147
-2.91126e-141
6.70478e-149
1.59655e-149
-1.77286e-144
1.15346e-152
-2.89629e-154
1.99363e-149
-1.058e-155
1.11042e-154
1.1448e-08
1.86691e-08
-2.89891e-07
5.61554e-08
1.3994e-08
-6.48628e-08
-1.06522e-07
-6.45768e-08
-1.31376e-07
1.99007e-08
-1.21099e-08
-9.63163e-07
-3.51179e-07
-3.21261e-07
1.16902e-08
1.18842e-08
7.76902e-09
1.30149e-08
1.20331e-08
-5.44352e-09
-9.02958e-09
-3.11408e-09
1.9244e-08
2.18073e-08
2.39099e-08
4.34502e-09
1.70243e-08
1.51712e-08
2.22701e-08
-3.05535e-08
-1.21966e-07
-5.87079e-08
1.16428e-07
-4.29024e-08
1.49638e-10
-1.70015e-08
2.43533e-09
2.66516e-09
1.23183e-08
-1.49516e-10
2.90102e-11
1.19144e-10
-8.35095e-12
1.10187e-10
7.23771e-14
-3.62628e-18
2.3357e-08
-2.92894e-16
2.3357e-08
-1.69927e-22
-9.45305e-21
1.56728e-21
3.29759e-19
1.2026e-20
2.19383e-19
5.20646e-19
1.30948e-26
-1.27541e-24
-6.75972e-26
2.28961e-27
-1.60818e-27
3.96218e-30
4.60862e-29
-2.06047e-28
-6.91579e-31
1.90238e-32
-9.23397e-31
-1.67606e-32
9.85782e-37
-2.33672e-34
8.46775e-36
2.73094e-40
-3.174e-38
1.76889e-41
1.11317e-43
-7.51218e-42
1.29803e-42
4.65359e-47
-2.23423e-45
5.09556e-46
1.9505e-50
-4.78897e-49
9.77497e-49
8.09083e-54
-1.88658e-52
-6.68781e-51
3.36969e-57
-4.98989e-56
7.74892e-55
1.40292e-60
-1.61819e-59
9.28834e-58
6.01702e-64
-4.78085e-63
3.37062e-61
2.72657e-67
7.3304e-67
-3.40592e-65
1.11226e-70
7.97017e-70
1.02201e-67
4.80225e-74
7.74726e-74
-9.50068e-71
2.02518e-77
-1.347e-76
-9.64409e-73
1.31524e-80
-1.08527e-81
-2.46566e-77
2.35182e-83
4.09588e-84
-1.47176e-79
2.62648e-87
-6.72725e-86
-3.54047e-84
1.97962e-90
2.12421e-91
5.36943e-87
7.05042e-93
5.59197e-94
-3.37234e-89
2.34749e-96
-2.34609e-96
7.12074e-92
4.59984e-100
-1.04417e-98
-6.80685e-95
3.25872e-103
3.79571e-104
-2.93598e-99
6.46281e-106
3.99147e-107
9.27711e-104
8.37999e-110
-1.12485e-111
-5.23328e-105
4.95489e-113
-1.38954e-112
-1.65788e-108
1.11225e-115
-1.92967e-115
1.72835e-111
4.00197e-118
1.06503e-118
-2.63211e-114
6.24339e-122
2.53511e-122
-1.1382e-117
3.46749e-125
-4.83485e-127
-3.14677e-121
6.39905e-128
-6.87601e-129
-1.14983e-125
1.06987e-131
-3.33929e-132
2.80925e-126
1.21533e-134
-3.69086e-134
1.57671e-129
2.56478e-137
2.55944e-138
-1.02183e-133
4.46141e-141
2.30502e-142
-5.68036e-137
1.17393e-144
2.14615e-144
-5.23969e-140
6.30015e-148
4.58591e-148
-4.00832e-143
7.19996e-151
-4.0871e-152
5.15999e-148
-6.71293e-153
-5.01271e-150
-2.14673e-09
1.39289e-08
1.14523e-07
-2.58201e-08
7.75956e-09
-1.59405e-07
4.08083e-07
9.45838e-07
1.60405e-07
-2.29932e-08
-2.22324e-08
-2.21151e-08
7.22084e-09
7.63438e-09
7.49104e-09
2.65769e-09
-2.15501e-08
-4.42619e-08
-2.46068e-09
-2.08106e-08
-1.06552e-08
1.90095e-08
2.10971e-09
-7.86628e-08
-1.71784e-08
6.52647e-08
-8.522e-08
1.42766e-08
9.33991e-09
1.12073e-08
1.2081e-08
-7.09894e-10
-2.268e-08
3.87457e-09
-4.16841e-09
2.20154e-08
-2.97578e-09
-5.81426e-13
2.69698e-10
1.32214e-10
2.01014e-10
-2.03267e-10
8.7081e-10
4.13214e-11
-1.28101e-10
-1.72385e-10
3.18212e-10
2.20421e-10
3.77875e-10
2.16156e-10
-1.50252e-11
2.964e-15
3.09097e-08
2.28477e-13
3.09097e-08
5.60385e-23
4.39702e-21
3.03356e-23
5.69886e-18
5.8286e-18
6.73649e-18
5.28117e-18
1.06733e-25
5.37995e-25
-2.19758e-25
7.43928e-27
3.74366e-27
1.83423e-29
4.82302e-28
-2.65326e-28
2.11474e-29
4.20526e-31
-1.99971e-30
-4.54212e-31
2.15564e-35
-5.72181e-34
-3.46128e-34
4.79615e-39
-7.3686e-38
-4.0492e-37
1.92853e-42
-1.88453e-41
6.95481e-41
8.01556e-46
-4.93168e-45
-5.64398e-44
3.34574e-49
-1.18137e-48
-4.36518e-47
1.40878e-52
-3.2279e-52
3.44839e-50
5.94966e-56
-9.30076e-56
-5.23369e-52
2.48875e-59
-1.65255e-59
8.40861e-57
1.07216e-62
-3.83458e-63
-4.32497e-60
4.3156e-66
-1.66805e-66
-1.73707e-62
1.8335e-69
-5.34199e-70
3.15219e-65
8.07274e-73
-5.7791e-75
-4.8121e-69
3.75051e-76
3.32099e-77
-1.79366e-71
1.64651e-79
-2.1718e-80
3.45652e-76
1.67457e-82
-1.01608e-83
7.8842e-78
3.52743e-85
2.4333e-87
-2.46113e-81
7.92348e-89
-4.232e-89
-5.47209e-84
4.85365e-92
-2.40558e-92
-6.86847e-88
2.68517e-95
-2.82942e-95
-1.31568e-90
4.91619e-98
-1.85386e-99
-2.79298e-93
5.30472e-102
-1.17414e-102
-3.49041e-98
1.95303e-105
-2.70914e-105
4.08992e-101
3.06637e-108
-1.43107e-109
-2.7635e-104
1.13143e-110
6.95658e-112
-6.94272e-106
1.15339e-114
9.33849e-117
-1.8788e-109
4.21284e-118
5.14265e-119
7.97229e-119
3.34139e-121
3.05115e-122
4.67587e-116
8.9633e-125
2.70652e-124
-7.65649e-120
1.74278e-127
-5.26559e-126
-6.76347e-123
1.1865e-129
-6.21937e-130
-9.59601e-126
4.46603e-133
8.37289e-134
5.83795e-129
9.06184e-137
2.14168e-138
-3.86219e-132
1.26148e-139
-1.74846e-140
-6.83355e-136
7.34233e-142
5.79943e-143
-3.00703e-139
9.7448e-146
5.99377e-146
-1.03025e-141
6.99294e-149
2.2104e-149
-9.79029e-145
1.98151e-153
-1.12991e-147
1.11816e-08
-2.87393e-08
-4.90608e-07
-2.35096e-08
-2.92591e-08
-2.30769e-08
1.32258e-08
9.7337e-09
1.05962e-08
4.19667e-09
1.18718e-08
1.34623e-08
4.46382e-08
8.93694e-09
-3.76905e-07
9.05669e-08
-2.77365e-07
3.65989e-07
1.18723e-07
-6.31687e-09
1.74837e-08
-2.06714e-09
-1.32967e-09
-2.17125e-08
2.16716e-08
-1.73871e-08
1.4014e-08
-2.36202e-08
-1.31452e-11
-1.62642e-07
9.06225e-09
-6.98601e-08
-4.77323e-08
-6.19058e-08
-9.84329e-09
1.27598e-07
2.86845e-08
-8.89795e-09
3.65695e-08
1.02323e-08
7.58632e-09
3.01971e-09
1.55657e-08
3.22587e-09
7.05491e-10
-2.17926e-08
-8.75312e-10
-1.01368e-10
-3.35219e-10
5.19948e-12
8.22894e-11
-1.00465e-09
9.93311e-10
-3.59757e-11
-4.87809e-11
-8.80984e-13
1.69212e-12
-4.82923e-11
1.03729e-13
6.27763e-08
2.5358e-12
6.27763e-08
-2.989e-23
-1.8487e-21
-3.7961e-22
5.73691e-18
5.51999e-18
6.41896e-18
5.21237e-18
2.48418e-26
-1.86558e-25
-1.53034e-25
8.42741e-27
2.19388e-27
1.11984e-29
3.97259e-28
-1.41181e-28
-5.81699e-29
3.59627e-31
-1.03631e-30
-1.65988e-30
1.88385e-35
-2.94429e-34
2.65266e-33
4.15445e-39
-3.68324e-38
-5.12919e-37
1.67361e-42
-9.68715e-42
7.5417e-41
7.0607e-46
-2.47881e-45
1.41359e-43
2.99939e-49
-7.77478e-49
-1.79572e-46
1.26658e-52
-1.96379e-52
3.05316e-49
5.47047e-56
-1.65891e-56
-2.36582e-52
2.19804e-59
-8.21055e-60
5.79201e-56
9.05254e-63
-5.12657e-63
9.15721e-60
3.98981e-66
-1.80116e-67
-3.52199e-62
1.85133e-69
-5.97454e-71
-1.40726e-65
1.74627e-72
-2.9203e-74
4.27518e-69
7.48905e-75
4.30276e-76
-4.20569e-71
5.33711e-79
8.5534e-81
-7.8726e-78
2.59056e-82
-8.72476e-85
-1.43845e-78
6.99861e-85
-2.29644e-86
-2.47453e-81
1.26259e-87
6.40781e-88
-1.45659e-83
5.08226e-91
2.71749e-91
-7.52815e-87
1.47857e-94
3.03534e-96
-6.00734e-90
4.5505e-98
1.45442e-99
-5.7034e-94
2.56966e-101
1.94685e-102
-4.54497e-96
1.53626e-104
1.98177e-105
-9.61756e-100
5.86737e-108
-7.89261e-109
4.86211e-103
4.75037e-111
-3.00297e-112
-1.51273e-105
3.3683e-114
-1.01142e-115
-7.34898e-109
1.09742e-117
-3.71133e-119
2.90181e-113
2.1603e-120
-6.25417e-122
-2.77081e-116
4.5249e-123
-1.0142e-124
-4.50606e-119
8.99674e-126
-1.85325e-127
-1.72554e-121
1.14419e-129
-4.86582e-131
-6.39762e-125
3.76489e-133
6.76049e-134
6.3386e-129
1.8973e-136
-1.93629e-139
-3.67207e-132
1.48234e-139
-7.76752e-143
-3.21622e-135
2.8966e-143
1.96801e-144
-1.38728e-144
1.08284e-146
1.4311e-148
5.74559e-142
4.18419e-150
1.89567e-151
-9.22038e-146
1.81015e-154
1.69219e-153
-2.53073e-08
1.42511e-08
-2.86418e-08
4.30285e-08
1.05758e-07
1.04415e-07
4.71921e-08
1.11162e-07
7.16575e-08
1.32193e-07
1.17931e-07
2.88733e-08
2.54711e-08
-2.93286e-08
1.52693e-08
-6.63013e-10
-3.28279e-08
1.73579e-08
2.21117e-08
-3.75417e-08
4.36431e-08
4.47515e-08
1.55437e-08
2.65739e-08
-4.63979e-09
2.15521e-09
2.34026e-08
-1.63427e-09
-5.42528e-09
-1.96855e-08
-3.42954e-10
-4.97053e-10
6.02956e-10
-1.54898e-10
4.61163e-11
-8.91715e-15
-7.47957e-16
2.21645e-08
-5.49527e-13
2.21645e-08
-2.7929e-22
4.05577e-21
-3.89463e-21
3.29463e-19
-1.25121e-20
5.99257e-20
6.4734e-19
3.79027e-26
4.29336e-25
-8.65411e-26
2.88751e-27
-7.5202e-28
1.60913e-30
4.20056e-29
-1.34613e-29
-1.8066e-30
1.77838e-32
-9.28516e-33
-4.11973e-33
9.53419e-37
-1.11966e-36
-7.3501e-36
2.78033e-40
-2.45979e-40
-8.26518e-39
1.14723e-43
-6.22375e-44
1.0796e-42
4.79917e-47
-1.62123e-47
1.38031e-45
2.00757e-50
-3.59115e-51
-2.49026e-48
8.38443e-54
-1.23013e-54
-3.61913e-51
3.56162e-57
-2.52386e-58
-5.86166e-55
1.54034e-60
-8.5765e-62
2.84985e-57
6.14414e-64
-1.47423e-65
2.63978e-61
2.57989e-67
-2.64565e-69
-1.79874e-64
1.15601e-70
-7.54616e-73
1.17497e-67
5.58297e-74
8.02741e-76
-3.4534e-70
1.92172e-77
2.36575e-81
1.45171e-77
8.55836e-81
-1.42669e-82
-2.82486e-77
9.51677e-84
-1.53127e-85
2.11287e-80
2.07307e-86
3.2431e-88
-4.27872e-83
2.18117e-90
-1.78296e-92
6.48543e-86
7.21855e-94
-1.87005e-95
-5.63853e-92
3.27706e-97
-1.87724e-99
2.13221e-93
1.43573e-100
6.89708e-103
5.21623e-101
1.23649e-103
2.25701e-105
-9.88821e-99
7.06769e-107
6.37333e-109
-7.26486e-102
5.40931e-110
2.20889e-111
3.37858e-106
4.60136e-113
3.21967e-115
1.65614e-109
1.33829e-115
-7.90623e-118
2.87012e-111
3.69965e-119
4.80761e-121
-1.16716e-114
1.51368e-122
-4.50875e-123
-1.63992e-117
7.38388e-126
-4.49852e-128
-4.63679e-121
7.76601e-129
-1.95376e-130
-5.52098e-124
2.75501e-132
7.35307e-134
-2.90053e-127
1.83313e-135
6.81811e-137
2.85014e-130
1.62087e-138
-2.05612e-140
-4.95217e-134
2.25892e-141
1.47531e-144
-4.55533e-137
1.33872e-143
-4.97815e-147
-3.91931e-140
6.48589e-148
-4.0957e-150
9.81802e-149
8.96878e-151
-5.23605e-155
5.40753e-151
4.16902e-154
-2.36974e-149
4.5463e-09
4.79617e-08
-1.83296e-07
4.96784e-08
4.36887e-08
4.56803e-08
6.23028e-09
-6.29816e-10
-1.29305e-09
-1.12829e-08
-1.27281e-08
-1.17884e-08
-1.43756e-08
5.66671e-09
-1.83466e-08
6.20981e-10
1.51457e-08
2.89746e-08
2.44644e-08
4.64833e-08
3.61846e-08
1.16393e-07
1.95612e-08
1.00539e-08
1.31026e-07
1.06684e-08
5.07138e-08
2.86134e-08
-1.63844e-07
-3.51801e-08
2.00184e-08
1.25905e-08
2.11734e-08
-2.94793e-08
2.83417e-08
-1.0082e-08
4.47581e-08
-2.7556e-07
-1.77874e-08
-3.34716e-07
-6.55805e-08
-4.27868e-08
-2.77975e-08
-4.44628e-08
5.93764e-09
2.89851e-08
1.77113e-09
-1.7106e-09
-3.32754e-08
2.37233e-10
-7.12791e-11
1.25452e-09
-3.27997e-11
1.41671e-09
1.14253e-16
7.07542e-16
4.58199e-09
4.58199e-09
7.38678e-18
1.97321e-16
2.83261e-16
5.56787e-16
-2.78982e-24
-2.65588e-22
-1.21265e-22
-9.92077e-22
1.92085e-22
3.0553e-20
-1.59314e-20
1.22381e-25
1.47086e-26
5.50107e-28
2.40954e-27
1.49126e-27
-1.28764e-29
1.65037e-30
6.94132e-31
-4.80605e-30
9.31461e-35
4.51627e-34
-2.86589e-33
3.08037e-38
1.27723e-37
-7.03213e-37
1.21424e-41
1.54374e-41
-2.37262e-39
5.0127e-45
3.55134e-45
5.11733e-44
2.11786e-48
9.50575e-49
7.00725e-46
8.97692e-52
3.77513e-52
-8.51727e-50
3.86283e-55
6.77907e-56
1.73313e-51
1.65928e-58
2.94669e-59
-2.75436e-55
6.98132e-62
7.85855e-63
5.41389e-59
3.05097e-65
1.11433e-66
1.28573e-61
1.28407e-68
-1.73306e-70
1.81364e-65
5.20721e-72
-1.11687e-73
9.08773e-69
2.67306e-75
1.35845e-77
-7.71784e-72
2.18809e-78
8.08594e-80
-1.30577e-74
1.08117e-81
2.80147e-83
-2.69942e-78
3.36453e-85
5.4361e-88
-1.34332e-80
2.34598e-88
1.84521e-90
1.17834e-87
4.93812e-91
-1.1077e-93
-7.03309e-87
7.17302e-95
-3.49925e-96
4.07154e-91
1.12856e-97
2.13132e-99
-1.59864e-93
5.53559e-101
6.72246e-102
-1.87546e-96
1.45206e-104
-1.34895e-105
1.63103e-99
1.43639e-107
-3.29361e-110
9.37103e-103
2.06356e-110
8.87542e-112
-1.0163e-105
5.37768e-114
-7.86063e-117
-3.83635e-110
1.05789e-116
-4.84698e-119
-4.24276e-112
6.76724e-120
2.5509e-122
-1.05578e-115
9.67783e-123
2.28052e-124
-3.65347e-118
1.56497e-126
-3.27411e-129
9.73687e-123
2.6647e-129
-4.70263e-131
7.87419e-125
7.19782e-133
-1.4725e-134
-4.44023e-128
3.09326e-136
4.81114e-138
-6.45129e-132
1.03552e-139
6.57847e-142
-8.00689e-135
3.41106e-143
1.01707e-144
-1.66546e-139
1.32556e-146
-1.85081e-148
-5.39299e-147
5.16785e-150
-9.74954e-151
5.64641e-150
4.07296e-154
-1.14058e-153
5.71025e-153
3.02778e-158
-4.41861e-151
2.68821e-08
2.98032e-08
7.64816e-08
2.18648e-08
-7.66067e-08
-5.78601e-08
-5.60381e-08
2.89427e-08
5.9761e-08
3.34844e-08
1.12428e-07
1.66889e-07
9.74181e-08
-2.90116e-08
7.37936e-08
1.23392e-07
1.19139e-07
1.20308e-07
1.22968e-07
6.06881e-08
6.0824e-08
6.04127e-08
-1.69617e-09
-3.21022e-08
-1.66856e-08
1.46256e-08
1.76773e-08
6.1147e-08
4.88937e-08
3.09355e-08
8.60486e-09
4.74698e-08
-6.62645e-09
-1.6571e-10
-3.03334e-09
8.21628e-10
8.50862e-09
-3.00881e-10
2.59031e-10
-2.47513e-08
-2.91472e-11
-2.46218e-08
2.53324e-16
-1.08314e-18
3.22594e-08
3.22594e-08
-9.49638e-19
2.53448e-16
2.53563e-16
2.53734e-16
3.83232e-24
-2.69188e-22
1.9373e-23
9.75447e-22
9.65007e-22
7.73363e-22
5.11908e-22
1.98254e-28
-1.55363e-26
-1.49884e-26
-5.39456e-29
-1.41715e-28
9.26673e-33
3.62342e-31
3.22678e-31
-2.70817e-33
1.31229e-34
1.24571e-33
-7.63228e-36
7.90497e-39
1.52361e-37
4.43645e-40
2.51364e-42
2.79815e-41
-2.64077e-43
1.04503e-45
7.18282e-45
5.08862e-45
4.36752e-49
1.83449e-48
3.97481e-49
1.81981e-52
5.43584e-52
-5.77555e-52
7.55857e-56
5.31634e-56
5.74626e-54
3.12754e-59
3.2432e-59
2.70197e-57
1.29108e-62
2.8005e-63
2.80131e-61
5.31748e-66
4.91247e-66
1.94017e-64
2.18516e-69
2.07572e-70
-2.83708e-67
9.04949e-73
1.68323e-73
2.72911e-71
3.7576e-76
4.16587e-77
-1.81173e-74
1.51304e-79
2.64621e-80
-7.33686e-78
6.16354e-83
-2.05834e-83
7.30737e-80
2.5118e-86
-5.11711e-87
-3.18352e-83
1.02315e-89
-1.01263e-89
5.25394e-86
5.84724e-93
-4.38959e-94
-4.21496e-91
6.86155e-96
-2.02768e-96
-3.62435e-92
1.17612e-99
-1.66483e-99
-1.92544e-96
4.32401e-103
-3.50154e-102
-3.13618e-99
2.92385e-106
-6.84457e-106
-1.07956e-103
6.14984e-109
-4.79349e-110
-3.73394e-105
9.64689e-113
-7.98879e-113
-4.82776e-108
4.05267e-116
3.66891e-115
-1.95912e-111
1.26655e-119
-8.64394e-120
1.01706e-115
9.72905e-123
-8.52616e-122
2.58947e-123
2.74904e-125
-5.47291e-126
-2.12596e-121
2.5954e-128
-7.59784e-129
-3.81983e-124
3.07789e-131
9.59838e-132
-2.64532e-127
5.37235e-135
2.59117e-134
1.94753e-131
1.97218e-138
-6.90716e-139
-5.37525e-134
1.20907e-141
2.29651e-141
-1.24586e-136
1.12777e-144
-1.28867e-144
-3.60421e-140
3.0274e-147
8.391e-149
-2.24926e-143
3.11668e-150
-3.54237e-150
-1.62779e-146
3.58503e-153
-7.11381e-154
-2.27483e-149
-3.06045e-157
4.12401e-155
2.41668e-08
2.01369e-08
2.33375e-08
2.38662e-08
3.49128e-08
3.6538e-08
4.65948e-08
-2.70262e-07
4.32445e-07
1.78093e-07
-2.52981e-07
2.1465e-08
5.3272e-09
1.64766e-08
2.35424e-08
1.60949e-08
5.32582e-08
1.16096e-08
5.6098e-08
3.16064e-08
-4.05846e-09
3.23897e-08
2.81704e-08
4.30267e-08
2.99273e-08
-2.01506e-08
1.15743e-08
-2.4242e-08
-1.30215e-07
-7.36454e-08
-2.05686e-08
-1.92187e-08
-1.78371e-08
-4.36911e-10
-1.8878e-10
5.36881e-09
1.70549e-09
-8.5812e-09
-6.04859e-12
-1.77815e-11
1.79792e-08
1.41933e-11
1.7973e-08
2.63564e-22
-4.52913e-20
1.0094e-18
-2.1354e-19
4.74021e-19
-1.92253e-18
-1.80353e-18
-1.71544e-18
-2.64549e-18
-1.71905e-18
-2.11491e-26
-1.16639e-24
4.77321e-27
-2.50956e-29
2.236e-28
-1.58147e-30
9.11337e-31
-1.80416e-32
1.12193e-34
-1.39767e-34
1.37746e-38
5.10079e-38
5.06643e-42
-3.47665e-41
2.118e-45
-1.09178e-44
8.87274e-49
-2.2359e-48
3.71366e-52
4.85353e-50
1.5559e-55
-2.37865e-53
6.50847e-59
-1.73474e-56
2.69381e-62
-1.26214e-59
1.11821e-65
1.03903e-62
4.62425e-69
-1.62676e-67
1.91949e-72
3.90069e-70
8.0305e-76
-1.53645e-72
3.37382e-79
3.27593e-75
1.43094e-82
-1.12361e-78
9.77737e-86
-3.17978e-82
1.54508e-88
-3.93259e-85
3.97461e-92
3.55869e-88
3.62492e-95
-1.71752e-91
1.72332e-98
-1.25066e-95
1.06896e-101
-2.77113e-97
4.65998e-105
-3.9695e-101
1.46619e-108
-1.30655e-104
1.23521e-111
-6.26881e-108
1.32412e-114
-5.76383e-111
1.04218e-117
3.17684e-114
4.04037e-120
-1.39927e-116
2.7913e-124
-3.83118e-121
7.9832e-128
-1.82362e-125
1.20557e-130
4.27476e-126
8.21244e-133
1.20503e-128
5.03794e-137
4.0076e-132
3.97057e-140
2.10492e-135
4.48444e-143
-3.5833e-139
1.28627e-146
1.76318e-143
1.10457e-149
-1.85929e-146
1.98865e-153
2.45758e-149
9.71314e-152
1.50075e-09
-4.29868e-09
-2.21929e-07
1.28793e-08
5.55004e-10
1.09086e-08
-1.78372e-08
-4.35329e-09
-7.20432e-09
5.25433e-08
-2.15559e-09
1.20153e-07
2.27891e-08
-1.55334e-07
1.60482e-08
-1.79518e-08
1.23672e-07
2.51721e-08
-1.82705e-08
-3.11358e-08
-2.46131e-07
-4.60614e-11
2.59303e-08
1.10235e-08
-4.95702e-09
-2.87965e-08
1.02419e-08
-6.0889e-09
-3.58791e-09
2.69849e-08
-5.40675e-11
-1.49171e-12
-7.44492e-13
4.82295e-08
4.82265e-08
5.63048e-22
5.12351e-18
-6.25171e-21
-1.64856e-18
-2.18567e-19
-2.64846e-18
-4.87455e-19
5.13e-18
5.1376e-18
5.13007e-18
1.52582e-25
6.73446e-22
2.93645e-25
1.3347e-26
3.06143e-25
-2.47844e-29
2.22712e-27
4.26648e-28
-1.60172e-30
2.03525e-29
1.56204e-29
1.8949e-33
1.6622e-32
4.24017e-32
-6.63665e-36
2.46751e-36
1.53969e-35
1.26857e-37
1.07111e-39
4.41571e-39
1.14197e-40
7.99553e-43
2.00129e-42
2.02932e-43
5.90819e-46
9.4791e-46
4.7818e-48
4.22307e-49
1.55621e-49
2.09871e-50
3.00258e-52
5.40713e-52
-3.01078e-53
2.1349e-55
3.68629e-56
-2.65479e-56
1.51614e-58
8.32926e-59
2.21836e-59
1.07359e-61
-1.26121e-62
4.1085e-63
7.58768e-65
2.14898e-65
-2.80163e-65
5.34992e-68
1.66091e-68
-7.9274e-71
3.76354e-71
2.97688e-72
-7.33164e-72
2.64347e-74
-2.44263e-75
-4.48199e-75
1.85314e-77
-1.35285e-78
3.20854e-78
1.29595e-80
-3.05339e-83
1.58594e-81
9.03696e-84
-1.64353e-85
-2.12432e-84
6.29052e-87
-2.2277e-89
-1.95566e-87
4.36775e-90
3.38371e-91
8.03406e-91
3.02827e-93
7.15966e-94
3.83411e-95
2.09659e-96
8.4415e-97
-4.42522e-97
1.44999e-99
1.072e-99
-4.20101e-100
1.00123e-102
9.00116e-104
-9.97857e-104
6.89761e-106
7.2615e-107
-8.18223e-107
4.73922e-109
8.91786e-110
2.02434e-109
3.25307e-112
-3.45487e-114
4.53156e-114
2.22998e-115
3.42884e-116
-1.07499e-121
1.5261e-118
-1.9771e-120
1.31051e-119
1.04286e-121
1.04292e-122
4.07607e-123
7.11132e-125
-5.84901e-126
-1.60909e-126
4.8437e-128
-1.51911e-128
2.37922e-128
3.29019e-131
1.60352e-131
5.6807e-134
2.23038e-134
-1.0829e-136
1.26564e-136
1.50843e-137
8.65011e-139
3.83702e-138
1.01953e-140
-1.52925e-142
1.42605e-143
6.87432e-144
-2.58768e-146
2.89891e-145
4.4585e-147
-5.1241e-153
2.29304e-148
5.35644e-151
3.86059e-151
2.8504e-09
6.0968e-09
-1.68709e-08
-2.64343e-10
2.76881e-08
2.92345e-07
1.70148e-08
6.11173e-09
7.9813e-10
2.32541e-08
6.41636e-09
2.34652e-08
2.37869e-08
1.10532e-08
2.19356e-08
1.76435e-08
2.17623e-08
-1.03118e-08
8.69455e-09
-7.84345e-08
-6.12072e-08
-5.14683e-09
-4.19033e-09
-7.80747e-10
-3.74881e-09
5.88772e-09
-3.78729e-07
-1.44475e-08
1.14206e-08
-4.80463e-09
-3.55898e-07
2.83597e-07
-2.22368e-09
1.55283e-08
-2.68263e-08
1.87267e-08
-2.30843e-07
4.62405e-08
5.02046e-09
2.6025e-08
2.34973e-09
2.5125e-09
-8.30062e-08
1.52426e-11
-2.45123e-11
2.68903e-12
-4.89747e-12
1.17969e-11
-6.22923e-12
-5.39556e-19
4.99144e-18
1.92292e-18
5.12925e-18
1.79293e-18
8.36655e-24
-1.09337e-21
-8.65894e-24
-1.74887e-20
-1.87429e-20
-1.76381e-20
-1.87132e-20
-2.63864e-26
-9.33812e-25
-5.92759e-27
2.42153e-28
1.50631e-26
-1.64527e-30
3.92249e-30
5.15178e-28
-1.11616e-32
1.05714e-33
6.49774e-32
-4.12838e-35
1.41936e-37
6.07425e-36
-6.22791e-39
8.4206e-41
3.32714e-39
-2.34438e-42
6.37387e-44
1.75067e-42
-1.89326e-44
4.59689e-47
7.71591e-46
2.79716e-48
3.2648e-50
3.09741e-49
-9.43444e-51
2.31741e-53
-6.71581e-53
9.12138e-54
1.64237e-56
7.29652e-56
9.32758e-58
1.16138e-59
2.88204e-59
1.37304e-60
8.18833e-63
5.33414e-64
-5.77924e-64
5.76734e-66
-2.8075e-65
2.00562e-66
4.05352e-69
2.31198e-68
1.40755e-69
2.8392e-72
3.34208e-73
6.95882e-73
1.98433e-75
1.93354e-75
-1.7407e-76
1.3841e-78
1.30552e-79
9.24746e-81
9.63187e-82
-4.55112e-82
-4.13717e-83
6.69081e-85
9.12749e-86
5.46601e-86
4.63262e-88
1.72353e-88
1.44782e-89
3.20652e-91
-1.82385e-93
-1.87021e-93
2.21687e-94
-7.60729e-96
5.86875e-96
1.52959e-97
-1.45181e-97
4.93212e-98
1.05307e-100
-1.11632e-100
-6.0021e-102
7.23877e-104
9.78428e-105
-2.39873e-105
4.96872e-107
1.02765e-106
-2.12964e-107
3.40526e-110
-7.34187e-111
6.03313e-111
2.32961e-113
5.3452e-114
8.93702e-115
1.59101e-116
-1.32039e-116
2.96827e-117
1.08411e-119
1.54883e-120
8.19636e-124
7.3817e-123
-5.83103e-123
-6.24688e-124
5.01459e-126
-6.63429e-126
2.83829e-126
3.40297e-129
-8.04192e-129
1.26856e-129
2.30909e-132
-3.80209e-134
6.70894e-133
1.56133e-135
7.33892e-136
-2.21967e-136
1.05397e-138
5.89795e-140
9.71257e-140
7.10331e-142
-5.79611e-142
6.05555e-143
4.77609e-145
4.10018e-146
1.86094e-147
3.09748e-148
3.35203e-149
5.29968e-151
1.47803e-151
7.0123e-158
-2.44566e-10
1.04669e-08
-3.2964e-08
1.86092e-08
-1.28069e-08
2.83268e-07
1.67608e-08
3.41648e-08
1.53943e-08
-7.77676e-09
-8.17683e-09
-3.53887e-09
1.79869e-08
1.36283e-10
1.89089e-08
4.78737e-07
4.72804e-09
1.23831e-08
5.42585e-09
4.40097e-09
-1.94039e-08
-2.40345e-08
-2.1868e-07
-1.9051e-08
-2.08773e-07
-2.17983e-08
-1.15893e-09
-2.98209e-08
-1.70657e-08
-4.01543e-08
-5.98076e-09
-3.09949e-08
5.4101e-08
-4.80121e-09
-1.20797e-08
3.8485e-09
6.76856e-09
-4.79348e-08
1.91447e-10
1.28346e-10
5.99036e-11
-2.1079e-10
-8.99422e-11
1.51671e-10
2.37166e-17
-6.03784e-18
6.2941e-17
-4.69478e-18
7.64065e-19
-1.58456e-17
2.58875e-17
-6.70265e-18
-5.51766e-18
2.82229e-23
-7.26517e-21
1.13105e-22
-4.53163e-20
-5.9491e-20
-4.79865e-20
-5.75405e-20
9.58288e-25
-2.06768e-24
1.35911e-26
1.40109e-25
5.56089e-27
-7.73132e-30
4.11472e-28
3.95171e-29
5.01841e-31
6.54604e-32
-2.13216e-31
1.38513e-33
1.2225e-35
-4.41796e-35
-3.07127e-37
8.45214e-39
-1.37593e-38
-4.1038e-41
6.22026e-42
-7.57758e-42
2.52194e-44
4.39837e-45
-2.9187e-45
2.32441e-46
3.09181e-48
-7.45073e-49
1.53467e-48
2.16814e-51
6.53843e-52
1.17497e-51
1.51934e-54
-5.67217e-55
3.75874e-58
1.06269e-57
2.72598e-59
4.47991e-60
7.41553e-61
-1.87971e-61
-3.79983e-63
5.15958e-64
-2.70597e-64
1.09757e-64
3.57878e-67
-1.50985e-69
2.25421e-67
2.47521e-70
1.83615e-70
2.05233e-71
1.70957e-73
-8.33242e-74
-2.05843e-74
1.17761e-76
2.23056e-78
2.86638e-77
8.0865e-80
4.48747e-80
-4.72314e-83
5.5478e-83
1.18252e-83
-3.65429e-84
3.80404e-86
-1.86168e-86
6.21655e-87
2.60151e-89
6.06741e-90
1.14084e-95
1.77707e-92
-5.40349e-94
2.83686e-99
1.21032e-95
3.47475e-96
9.01728e-97
8.21818e-99
8.37382e-100
-1.06602e-99
5.57621e-102
-7.03063e-104
-1.05382e-102
3.77848e-105
-2.70224e-106
-1.03145e-105
2.55531e-108
3.49724e-109
1.60586e-111
1.72634e-111
-2.71314e-112
-4.80836e-113
1.16396e-114
1.39826e-115
1.07087e-116
7.8279e-118
5.17576e-118
-1.50548e-118
5.25868e-121
-5.46718e-122
1.78485e-121
3.52931e-124
4.55071e-125
7.58458e-125
2.36502e-127
-1.65725e-127
-2.39902e-128
1.58352e-130
-6.37503e-131
-1.95507e-131
1.05799e-133
5.17095e-134
-1.94179e-134
7.0536e-137
2.31699e-137
-5.92555e-140
4.69319e-140
6.51177e-141
5.00089e-141
3.11544e-143
4.9496e-144
7.52944e-145
2.01093e-146
3.80737e-148
4.95823e-148
-3.70236e-150
5.88606e-151
-1.22654e-08
8.94695e-10
3.8762e-07
-1.34566e-08
-1.38656e-08
-1.50394e-08
-7.51345e-08
-1.22222e-08
-1.16384e-10
1.89728e-08
3.9457e-09
3.45321e-08
-4.03757e-08
-7.05068e-08
-1.9219e-08
3.35621e-08
1.53364e-08
-2.52e-07
1.16196e-08
7.42397e-08
-3.35004e-07
4.57863e-09
1.45122e-10
-2.15672e-08
-1.76781e-07
-3.14705e-08
4.58443e-09
3.20298e-09
7.0943e-09
-5.23746e-08
4.0738e-09
-2.06535e-08
8.72301e-09
3.41768e-10
6.23233e-08