/*--------------------------------*- C++ -*----------------------------------*\
| =========                 |                                                 |
| \\      /  F ield         | OpenFOAM: The Open Source CFD Toolbox           |
|  \\    /   O peration     | Version:  5.0                                   |
|   \\  /    A nd           | Web:      www.OpenFOAM.org                      |
|    \\/     M anipulation  |                                                 |
\*---------------------------------------------------------------------------*/
FoamFile
{
    version     2.0;
    format      ascii;
    class       volScalarField;
    location    "3.3";
    object      alpha.water;
}
// * * * * * * * * * * * * * * * * * * * * * * * * * * * * * * * * * * * * * //

dimensions      [0 0 0 0 0 0 0];

internalField   nonuniform List<scalar> 
8458
(
1.04861
1.01734
0.908727
0.967253
0.993764
0.997969
0.0191945
-3.72481e-19
-5.13998e-22
9.20297e-18
1.46491e-18
2.3275e-20
1.96801e-23
1.25269e-27
2.494e-31
1.02396e-34
4.24489e-38
1.84232e-41
8.11019e-45
3.20936e-48
1.52042e-51
6.52909e-55
2.85086e-58
1.10982e-61
7.10628e-65
4.3751e-68
1.95029e-71
4.29541e-75
6.07721e-78
2.02412e-81
4.38801e-84
4.12179e-88
9.43521e-91
3.6031e-93
1.07586e-96
8.69868e-100
3.81346e-103
1.49559e-105
1.92312e-109
1.65301e-113
4.70776e-116
7.37951e-119
6.35194e-122
2.36618e-124
4.36331e-128
3.90193e-131
4.93219e-135
7.57854e-139
2.21182e-140
1.0297e-143
1.03553
1.04586
1.06214
0.862481
0.854017
1.01001
0.16923
-2.03012e-17
4.02136e-16
1.3951e-18
1.07766e-19
5.49307e-21
9.71459e-24
5.11585e-28
6.54948e-32
2.56703e-35
1.07312e-38
4.56753e-42
1.92861e-45
7.83527e-49
3.3001e-52
1.39416e-55
6.90978e-59
3.16618e-62
1.10161e-65
6.51227e-69
2.56265e-72
8.7897e-76
3.29637e-79
2.95661e-82
1.05549e-85
2.64733e-88
5.41516e-92
1.76251e-94
3.9401e-98
4.35342e-101
1.8954e-104
1.42596e-108
5.35101e-110
3.97662e-113
5.76385e-117
7.32024e-120
1.05589e-123
1.41488e-127
3.15508e-130
1.90706e-133
5.88465e-137
1.4264e-140
4.45603e-144
6.9128e-145
1.03371
1.01515
1.04753
0.870514
0.948884
1.00278
0.983653
-3.37628e-16
-3.20183e-19
1.5074e-16
1.68308e-17
1.21285e-19
4.30809e-23
8.08565e-27
1.97042e-30
6.531e-34
2.72894e-37
1.2004e-40
5.35543e-44
2.21317e-47
9.76378e-51
4.16473e-54
1.99288e-57
7.90018e-61
3.81186e-64
2.11953e-67
9.62445e-71
2.52451e-74
8.77159e-77
1.27106e-79
7.31177e-84
1.37528e-87
7.16233e-89
6.32434e-92
5.23683e-96
1.82701e-99
1.19571e-102
1.20808e-106
1.86976e-108
1.54533e-111
3.59845e-115
1.51018e-118
4.96743e-121
1.00368e-124
9.30722e-129
2.01674e-132
2.63073e-134
2.95512e-137
1.4345e-141
4.31194e-145
1.00467
1.01719
1.01626
1.01982
1.04388
1.00008
1.00005
-2.87577e-18
-5.34669e-18
-6.11648e-24
4.46778e-18
4.13315e-19
2.26028e-21
4.54296e-25
2.85679e-29
9.21222e-33
3.82503e-36
1.73933e-39
6.86218e-43
2.85472e-46
1.24995e-49
5.03491e-53
3.68528e-56
1.36793e-59
6.05247e-63
2.90296e-66
7.32537e-70
4.04394e-72
6.09774e-76
8.38441e-80
7.80949e-82
9.15861e-85
1.28659e-88
2.35278e-92
1.2441e-94
2.05568e-98
1.0965e-101
1.17195e-104
6.02138e-107
3.11535e-110
3.93818e-114
1.41306e-116
3.99872e-120
2.33854e-123
5.70619e-126
2.31688e-129
1.26467e-133
9.63006e-137
9.42511e-140
3.036e-142
1.02357
1.01539
0.97422
1.0236
0.988477
1.00731
1.0013
0.0039911
-1.27565e-19
-8.56504e-23
2.19368e-17
2.83472e-18
2.82703e-20
1.16067e-23
6.01691e-28
1.68096e-31
6.65455e-35
2.82971e-38
1.18568e-41
5.95823e-45
2.08284e-48
1.2722e-51
3.80356e-55
1.96283e-58
8.78692e-62
5.70202e-65
2.46675e-68
1.77057e-71
7.0225e-74
2.33412e-77
1.96673e-80
2.33801e-84
1.02004e-86
1.24881e-90
1.23382e-94
1.48669e-97
1.40088e-99
4.78538e-103
2.36927e-107
9.67141e-110
2.21037e-113
3.65016e-117
9.94393e-119
1.4667e-121
3.94159e-125
5.8171e-129
7.14351e-131
3.16524e-134
2.8892e-137
4.09147e-141
1.03307
0.981933
0.971857
1.02543
1
0.998076
1.0014
0.0288302
-2.75107e-19
-3.56703e-22
1.71323e-17
2.23253e-18
2.2893e-20
9.88076e-24
5.06739e-28
1.35158e-31
5.56668e-35
2.87543e-38
1.07681e-41
6.33332e-45
2.05575e-48
7.68796e-52
3.30528e-55
2.97214e-58
6.96419e-62
7.79374e-64
2.22194e-67
1.75614e-71
7.86503e-74
2.36431e-76
1.9426e-79
6.49599e-83
5.37806e-87
2.97833e-90
4.20456e-93
9.75657e-97
6.95247e-100
1.05645e-102
5.8248e-107
2.98787e-109
6.2658e-112
1.87358e-114
4.81078e-118
9.25411e-122
1.87734e-125
4.25346e-128
3.34398e-132
7.86266e-136
2.5843e-139
6.26681e-143
1.03553
0.945267
1.00116
0.997155
1.03265
1.05592
1.00341
-1.10538e-14
-9.20139e-19
-1.26736e-23
4.23896e-18
3.85768e-19
2.02669e-21
3.93967e-25
2.54946e-29
8.28673e-33
3.44254e-36
1.46631e-39
6.42764e-43
2.64016e-46
1.73305e-49
4.8886e-53
2.35964e-56
1.00455e-59
1.02174e-62
1.73929e-66
6.2559e-70
8.24924e-73
3.86013e-75
8.00159e-79
6.88087e-83
6.11211e-86
8.40879e-90
2.34393e-92
1.45903e-95
1.99705e-98
4.78214e-102
2.40083e-104
1.48984e-107
6.20705e-111
1.00415e-114
2.02131e-117
9.21065e-121
4.64958e-124
5.75731e-127
1.14387e-130
1.35913e-132
2.96204e-136
1.49418e-140
5.18743e-142
1.06836
1.01091
1.18012
1.01638
0.983906
1.02633
1.00023
-5.14266e-15
-4.62761e-19
1.38549e-16
1.67648e-17
1.25602e-19
4.51517e-23
8.03449e-27
1.97218e-30
6.65003e-34
2.79537e-37
1.20037e-40
5.39086e-44
2.67648e-47
1.0115e-50
5.08038e-54
2.29989e-57
7.85221e-61
3.25076e-64
4.94211e-67
3.96299e-70
9.28051e-74
1.42729e-77
8.83002e-80
7.65482e-84
2.27719e-86
2.27662e-89
3.90175e-93
2.26473e-96
5.9124e-99
4.84389e-103
2.07787e-105
1.33908e-108
2.89177e-111
1.12321e-115
5.32941e-118
2.83175e-121
1.21506e-124
2.37159e-128
1.75469e-132
5.91358e-136
2.30191e-139
9.02587e-143
3.64579e-145
1.01438
1.01904
0.993663
0.89103
1.06066
1.00265
0.929038
-1.50769e-17
3.75437e-15
3.85022e-17
1.10948e-19
5.01827e-21
1.92968e-23
2.68495e-27
1.99631e-31
7.05771e-35
2.94561e-38
1.23333e-41
5.15905e-45
2.14993e-48
8.91745e-52
3.71707e-55
1.54149e-58
6.38594e-62
3.29963e-65
1.12148e-68
4.53947e-72
1.91095e-75
7.78372e-79
3.48439e-82
1.33615e-84
2.56498e-88
5.3769e-92
1.43759e-95
9.45224e-98
2.93295e-101
1.42187e-104
1.57263e-108
4.13501e-112
3.60814e-114
5.16625e-117
9.09545e-120
2.36885e-123
2.74939e-127
3.02168e-130
1.24285e-133
5.04307e-136
6.63789e-139
1.02834e-141
3.46833e-145
1.04073
1.01887
0.981122
1.00154
1.01273
1.01741
0.187505
-2.63121e-21
-3.06376e-24
8.06941e-18
1.44371e-18
2.89049e-20
3.76271e-23
3.24806e-27
5.09967e-31
1.99524e-34
8.37451e-38
3.5481e-41
1.50256e-44
6.66802e-48
2.68409e-51
1.13109e-54
4.70737e-58
1.95186e-61
8.86692e-65
3.89864e-68
1.86992e-71
7.74004e-75
3.08612e-77
9.65515e-81
1.09722e-83
5.87304e-87
3.55559e-90
1.99876e-93
1.92248e-97
1.92867e-100
3.86912e-103
8.79571e-107
5.7607e-109
1.18004e-112
9.55876e-117
3.86952e-120
6.85996e-122
2.10635e-125
9.29394e-129
1.50901e-131
2.63516e-135
4.00383e-138
3.85714e-142
5.57573e-145
1.04262
1.00852
1.08014
0.948912
1.04371
1.02976
0.0244403
4.17951e-14
6.49596e-17
2.09105e-17
4.10756e-18
1.80044e-19
1.02396e-21
5.38971e-25
8.39966e-29
4.30631e-32
3.24322e-35
2.37698e-38
1.70037e-41
1.21197e-44
8.63395e-48
6.13696e-51
4.34963e-54
3.07671e-57
2.17098e-60
1.52786e-63
1.07342e-66
7.52253e-70
5.25702e-73
3.66591e-76
2.54946e-79
1.76814e-82
1.22441e-85
8.46093e-89
5.83632e-92
4.0173e-95
2.75682e-98
1.88626e-101
1.28854e-104
8.78962e-108
5.98203e-111
4.06303e-114
2.75294e-117
1.86069e-120
1.25527e-123
8.44563e-127
5.66946e-130
3.8017e-133
2.54297e-136
1.00577e-139
1.07312
1.00078
1.00212
1.09735
0.827979
1.06931
0.175002
2.03575e-12
9.69218e-14
6.41235e-17
1.27715e-18
3.8501e-20
1.13949e-22
2.51096e-26
4.82385e-30
3.26941e-33
2.43013e-36
1.73811e-39
1.23372e-42
8.74066e-46
6.18979e-49
4.37099e-52
3.0826e-55
2.16986e-58
1.52295e-61
1.06699e-64
7.4647e-68
5.20882e-71
3.62476e-74
2.51813e-77
1.75054e-80
1.21243e-83
8.36079e-87
5.76532e-90
3.96744e-93
2.72464e-96
1.86893e-99
1.27617e-102
8.71151e-106
5.92953e-109
4.03009e-112
2.73094e-115
1.84876e-118
1.25268e-121
8.42565e-125
5.66829e-128
3.80738e-131
2.55125e-134
1.70615e-137
6.76779e-141
1.04394
1.00235
1.03676
0.999687
0.399777
1.01474
0.979743
6.8112e-11
9.589e-16
1.36381e-15
2.86324e-16
7.02378e-18
1.10606e-20
1.31097e-24
3.37379e-28
2.48264e-31
1.8e-34
1.26627e-37
8.87862e-41
6.21683e-44
4.34615e-47
3.03247e-50
2.11077e-53
1.46687e-56
1.01663e-59
7.03086e-63
4.85563e-66
3.34422e-69
2.29836e-72
1.57871e-75
1.0822e-78
7.40457e-82
5.05922e-85
3.44721e-88
2.3405e-91
1.58805e-94
1.07555e-97
7.26737e-101
4.90271e-104
3.29907e-107
2.21475e-110
1.48442e-113
9.93381e-117
6.63593e-120
4.42664e-123
2.94732e-126
1.95759e-129
1.29743e-132
8.57947e-136
3.36236e-139
1.03521
1.012
1.01938
1.03871
1.06903
0.988824
1.00051
1.40881e-07
8.62443e-16
3.29725e-17
3.19287e-17
4.25801e-18
6.95918e-20
8.14937e-23
9.72796e-27
3.11786e-30
2.31525e-33
1.6774e-36
1.18228e-39
8.3118e-43
5.83873e-46
4.09153e-49
2.859e-52
1.99737e-55
1.39024e-58
9.65947e-62
6.70053e-65
4.64127e-68
3.21198e-71
2.21123e-74
1.52098e-77
1.04446e-80
7.1512e-84
4.88871e-87
3.33692e-90
2.27279e-93
1.54513e-96
1.04814e-99
7.09294e-103
4.79057e-106
3.22956e-109
2.18178e-112
1.46423e-115
9.82187e-119
6.55265e-122
4.37511e-125
2.91431e-128
1.93843e-131
1.28635e-134
5.0573e-138
1.03857
1.02413
0.96834
1.02124
0.898734
1.00853
1.00153
0.00952292
3.18021e-14
3.12144e-16
2.81088e-16
5.8477e-17
1.70466e-18
3.54325e-21
5.23608e-25
1.12915e-28
8.05472e-32
5.87983e-35
4.14341e-38
2.90523e-41
2.03641e-44
1.42482e-47
9.94133e-51
6.92748e-54
4.81573e-57
3.33976e-60
2.31298e-63
1.59842e-66
1.10169e-69
7.57927e-73
5.20382e-76
3.56415e-79
2.43788e-82
1.66305e-85
1.13207e-88
7.69583e-92
5.21949e-95
3.53083e-98
2.38464e-101
1.60788e-104
1.08213e-107
7.27223e-111
4.87487e-114
3.25975e-117
2.17618e-120
1.45009e-123
9.64019e-127
6.39923e-130
4.23908e-133
1.66263e-136
1.03511
1.00063
1.01336
0.980555
0.989599
0.99289
1.00236
0.0367116
3.15966e-14
5.34195e-16
5.0284e-16
1.13841e-16
3.58723e-18
7.77438e-21
1.13116e-24
2.35687e-28
1.67983e-31
1.22534e-34
8.62882e-38
6.04446e-41
4.23046e-44
2.95645e-47
2.06131e-50
1.43441e-53
9.95849e-57
6.89653e-60
4.77246e-63
3.29523e-66
2.26967e-69
1.56053e-72
1.06978e-75
7.31519e-79
4.99942e-82
3.40964e-85
2.31885e-88
1.57463e-91
1.0669e-94
7.21375e-98
4.87085e-101
3.28185e-104
2.20668e-107
1.48137e-110
9.92085e-114
6.62642e-117
4.41909e-120
2.94071e-123
1.95239e-126
1.29516e-129
8.57941e-133
3.36576e-136
1.05292
1.07637
1.01755
0.983087
1.02831
1.07906
1.00387
1.36021e-06
7.58544e-15
2.93439e-17
2.27798e-17
2.7976e-18
4.43499e-20
5.37383e-23
6.88124e-27
2.19964e-30
1.60878e-33
1.16259e-36
8.16761e-40
5.73893e-43
4.04771e-46
2.84243e-49
1.97533e-52
1.38509e-55
9.72573e-59
6.68064e-62
4.62963e-65
3.20763e-68
2.21835e-71
1.54424e-74
1.05382e-77
7.22862e-81
4.96119e-84
3.39491e-87
2.33584e-90
1.58184e-93
1.07494e-96
7.32688e-100
4.97446e-103
3.34201e-106
2.2535e-109
1.51837e-112
1.02006e-115
6.84794e-119
4.57599e-122
3.05491e-125
2.05747e-128
1.35662e-131
9.01645e-135
3.77479e-138
1.02843
0.983311
1.13661
0.990239
1.07377
1.03447
1.0005
1.28682e-09
1.04997e-15
1.41116e-15
3.5297e-16
1.01997e-17
1.88659e-20
2.43938e-24
5.62839e-28
4.08789e-31
2.97288e-34
2.09326e-37
1.46788e-40
1.02814e-43
7.19129e-47
5.01812e-50
3.49326e-53
2.42788e-56
1.68383e-59
1.16492e-62
8.04357e-66
5.54096e-69
3.80806e-72
2.6147e-75
1.79305e-78
1.22669e-81
8.375e-85
5.70266e-88
3.87416e-91
2.62885e-94
1.77989e-97
1.20225e-100
8.11163e-104
5.45991e-107
3.6658e-110
2.45731e-113
1.64399e-116
1.09738e-119
7.31437e-123
4.86483e-126
3.2263e-129
2.13697e-132
1.41418e-135
5.54544e-139
1.0411
1.04237
0.998065
1.12046
1.05759
1.02716
0.927321
1.44735e-12
1.03889e-13
3.63511e-15
4.41684e-18
1.54629e-20
2.4307e-23
5.92044e-27
1.72567e-30
1.21245e-33
9.00848e-37
6.44742e-40
4.58317e-43
3.2659e-46
2.32755e-49
1.65678e-52
1.17698e-55
8.32614e-59
5.93263e-62
4.17604e-65
2.92492e-68
2.05498e-71
1.44463e-74
1.00762e-77
7.08006e-81
4.90116e-84
3.41497e-87
2.35728e-90
1.63061e-93
1.12616e-96
7.75509e-100
5.33052e-103
3.65343e-106
2.50235e-109
1.70853e-112
1.16473e-115
7.92921e-119
5.37347e-122
3.64348e-125
2.47096e-128
1.66142e-131
1.11853e-134
7.53036e-138
2.99358e-141
1.03268
0.930753
1.00363
0.999575
1.01205
1.01783
0.195674
4.94207e-14
8.88483e-17
1.67032e-17
2.23656e-18
7.64044e-20
3.90146e-22
1.97791e-25
3.33244e-29
1.78866e-32
1.35239e-35
9.94152e-39
7.14173e-42
5.11192e-45
3.65481e-48
2.60644e-51
1.85354e-54
1.31582e-57
9.31652e-61
6.57892e-64
4.63619e-67
3.25942e-70
2.28632e-73
1.59997e-76
1.11674e-79
7.77255e-83
5.39575e-86
3.73879e-89
2.5845e-92
1.78365e-95
1.2278e-98
8.42855e-102
5.77315e-105
3.94783e-108
2.69339e-111
1.83371e-114
1.24557e-117
8.43957e-121
5.70739e-124
3.85018e-127
2.59165e-130
1.74249e-133
1.16812e-136
4.62821e-140
1.04232
1.00355
1.12834
1.02715
0.915914
1.03774
0.0250609
-2.94265e-19
-4.52399e-22
4.35199e-18
7.19328e-19
1.2563e-20
1.27852e-23
9.29106e-28
1.68255e-31
7.01379e-35
2.81944e-38
1.20983e-41
5.47148e-45
3.25165e-48
1.12783e-51
5.04498e-55
2.2713e-58
8.27845e-62
5.29435e-65
5.00225e-68
1.56365e-71
5.95925e-75
6.52532e-78
2.90117e-81
2.49922e-83
2.95103e-87
6.49325e-91
2.64571e-93
1.16485e-96
4.42742e-100
5.64463e-103
4.05299e-106
2.03704e-110
4.63465e-112
2.32642e-115
1.80984e-119
7.3832e-122
7.92372e-126
3.63144e-129
3.60989e-131
7.1678e-135
5.6072e-138
7.86872e-141
1.3701e-143
1.08455
0.977785
1.02706
1.10152
0.987751
1.05413
0.175521
7.409e-13
4.13787e-16
1.46426e-18
1.23844e-19
6.48148e-21
1.18145e-23
6.36819e-28
7.9595e-32
3.11087e-35
1.29954e-38
5.48366e-42
2.31147e-45
9.49088e-49
4.14066e-52
1.68314e-55
7.47408e-59
3.24153e-62
1.33133e-65
5.70128e-69
2.60839e-72
9.47863e-76
2.5395e-78
6.56693e-82
3.09328e-85
6.77021e-88
8.13497e-91
1.30624e-94
1.01608e-97
6.26009e-101
1.16916e-104
2.35526e-108
1.62946e-109
1.94697e-112
1.72495e-116
4.11292e-120
1.94978e-123
1.4644e-125
3.94365e-129
5.00736e-133
8.232e-136
7.91904e-140
2.26001e-143
2.77325e-145
1.03789
0.979941
1.01807
0.974849
1.07226
1.01513
0.980281
3.09154e-11
-2.86833e-19
1.49225e-16
1.68031e-17
1.22991e-19
4.62103e-23
9.75083e-27
2.34496e-30
7.56993e-34
3.14596e-37
1.41749e-40
6.22997e-44
2.53189e-47
1.20304e-50
4.73843e-54
2.68089e-57
9.85397e-61
5.28914e-64
1.97059e-67
1.05727e-70
2.91571e-74
1.68698e-77
7.81393e-80
6.52245e-84
1.2074e-87
1.79722e-90
7.92943e-93
1.65118e-96
1.56071e-99
8.31644e-103
4.00142e-106
3.66335e-109
3.20552e-112
7.93799e-115
8.15774e-119
6.08035e-122
9.47382e-125
4.93296e-128
1.60131e-132
4.18608e-134
3.31348e-137
6.90452e-141
1.84463e-143
1.03497
1.00204
1.00884
1.02501
1.01984
0.997563
1.00043
1.10929e-07
-5.35124e-18
-5.83232e-24
4.61972e-18
4.27257e-19
2.33631e-21
4.68693e-25
2.94053e-29
9.47937e-33
3.93644e-36
1.68276e-39
7.01431e-43
2.97139e-46
1.23741e-49
5.10774e-53
2.40161e-56
1.5131e-59
4.95044e-63
2.90755e-66
7.10682e-70
6.79233e-72
3.22885e-75
1.96152e-79
7.76849e-82
4.22329e-85
6.33395e-89
1.77224e-92
1.2938e-95
5.67633e-99
1.29978e-101
1.17466e-104
7.59296e-109
1.30113e-110
6.50143e-114
9.6132e-117
8.30455e-120
5.3797e-123
4.5512e-126
2.10655e-129
1.30932e-132
6.21102e-137
1.47063e-140
5.96322e-144
1.03976
1.036
0.99898
1.01322
0.987098
1.00928
1.00143
0.00877072
-1.26775e-19
-1.05943e-22
2.26309e-17
2.93787e-18
2.93835e-20
1.20443e-23
6.23777e-28
1.68739e-31
6.86239e-35
2.88572e-38
1.30606e-41
5.31297e-45
2.10551e-48
9.25263e-52
4.39566e-55
1.87661e-58
8.0891e-62
1.25547e-64
1.88592e-68
5.36784e-72
3.69345e-75
1.92042e-77
1.14379e-80
6.03502e-85
9.27223e-87
2.07864e-90
4.57994e-93
3.46975e-97
1.19412e-99
4.43416e-103
1.8027e-105
7.27596e-109
7.12455e-113
5.48637e-115
2.36243e-118
4.73127e-122
4.03889e-125
3.90675e-129
1.13813e-130
4.8545e-134
1.73877e-137
4.20979e-140
1.01335
0.993613
1.0089
1.00803
0.99765
0.996088
1.00199
0.0366204
-2.72483e-19
-3.49915e-22
1.7557e-17
2.29682e-18
2.35504e-20
1.01335e-23
5.18635e-28
1.39005e-31
5.71523e-35
2.45978e-38
1.03835e-41
1.13664e-44
2.27577e-48
1.56431e-51
5.75391e-55
1.81215e-58
1.58719e-61
2.90883e-65
1.9818e-68
4.7309e-72
1.83742e-75
1.17863e-76
9.18616e-80
6.81761e-83
4.30676e-87
5.94641e-90
5.66943e-94
1.33613e-96
1.16596e-99
9.75903e-103
4.99017e-107
7.99284e-109
3.84468e-112
6.48502e-116
3.46055e-118
1.71069e-121
4.29333e-125
2.7923e-129
1.84606e-132
4.99025e-134
1.54834e-137
4.57088e-142
1.03266
1.02499
1.01411
1.0478
1.06151
1.05723
1.00378
1.14175e-06
-9.51137e-19
-1.23262e-23
4.11605e-18
3.7452e-19
1.96482e-21
3.82078e-25
2.47994e-29
8.06093e-33
3.34826e-36
1.45816e-39
6.10669e-43
2.57697e-46
1.77317e-49
5.1092e-53
2.04874e-56
1.0224e-59
5.55353e-63
4.54712e-66
9.15761e-70
4.15188e-73
3.02936e-75
9.87092e-79
6.14068e-83
1.65264e-85
2.93499e-89
3.37041e-92
7.52504e-95
2.11668e-98
2.46966e-102
2.00887e-104
4.11523e-108
1.30435e-111
1.45934e-114
1.52727e-118
1.54364e-120
4.55237e-124
3.54688e-127
1.81648e-131
4.0126e-135
1.56417e-138
8.01293e-142
1.00214e-141
0.998904
1.01761
1.06653
0.99367
1.04461
1.0395
1.0005
7.04937e-10
-4.53721e-19
1.33407e-16
1.69323e-17
1.25926e-19
4.26634e-23
8.02718e-27
1.96427e-30
6.53565e-34
2.72399e-37
1.1786e-40
5.78474e-44
2.41959e-47
9.7471e-51
4.95948e-54
2.53758e-57
7.72054e-61
8.265e-64
2.03312e-67
3.32573e-70
3.60506e-73
2.56495e-77
2.83033e-80
4.15553e-84
7.62512e-87
2.38897e-89
8.59069e-93
1.52134e-96
1.7707e-99
3.19654e-102
5.66804e-106
1.03726e-108
2.51428e-111
6.45896e-115
1.94539e-117
4.1577e-121
6.56324e-125
2.31413e-128
3.49656e-132
1.12035e-135
4.37208e-139
1.71956e-142
3.38076e-145
1.06565
1.09951
1.0104
1.05738
0.996705
1.00617
0.926906
5.29138e-13
3.96474e-15
4.24213e-17
1.07293e-19
4.71566e-21
1.78655e-23
2.47101e-27
1.85495e-31
6.56907e-35
2.74149e-38
1.14615e-41
4.79254e-45
1.99967e-48
8.29693e-52
3.46083e-55
1.43151e-58
5.94771e-62
2.44828e-65
1.14193e-68
4.21769e-72
1.74036e-75
6.98534e-79
4.20266e-82
8.54067e-85
1.66481e-88
2.13846e-91
1.42285e-94
9.8407e-98
3.56673e-101
9.20829e-105
1.05081e-107
9.45243e-112
5.25289e-114
8.80647e-118
1.15245e-121
1.15581e-123
1.71812e-126
9.75116e-130
2.08709e-133
1.88153e-136
1.82216e-139
1.13808e-141
4.87581e-145
1.06169
0.97931
1.05678
1.00668
0.994386
1.01921
0.195687
-2.47831e-21
-2.72629e-24
5.9465e-18
1.05141e-18
2.06858e-20
2.71205e-23
2.38344e-27
3.73407e-31
1.45735e-34
6.13507e-38
2.62826e-41
1.1031e-44
4.64198e-48
1.96922e-51
8.42809e-55
3.44915e-58
1.46818e-61
6.82529e-65
3.37737e-68
1.68098e-71
5.31526e-75
4.44037e-78
4.28878e-81
4.972e-85
7.25309e-87
2.40492e-90
1.60065e-94
7.66056e-98
3.32337e-100
2.3837e-103
2.80455e-107
5.85363e-109
2.48696e-112
8.21188e-116
1.68955e-118
7.02515e-122
7.73176e-126
1.10265e-128
1.48323e-131
9.24128e-135
6.84155e-138
5.52129e-142
3.47372e-145
0.633334
1
0.727279
1.01026
0.633414
1.01509
0.728779
0.89665
1.0068
1.00026
1.02626
0.898797
1.01077
1.00025
1.00049
1.00281
1.00023
1.00748
1.00058
1.00689
1.00033
0.999899
0.988451
1.0018
0.99991
1.00002
0.979434
1.00204
1.0035
1
1.00366
1.0074
1.00374
1.00031
1.00325
1.00295
1.01865
1.00532
0.99968
1.0029
1.01347
1.00508
1.00476
1.01189
1.00309
1.06778
1.00604
1.0166
1.00298
1.00141
1.02592
1.00015
1.03336
1.00099
1.02264
1.00008
1
1.04097
0.969607
1.01762
1.00001
1.00883
0.965353
0.903931
0.99664
0.619179
1.01727
0.901832
1.00011
0.618554
0.633571
1.04553
0.729835
1.04546
0.633651
1.01431
0.733649
0.898515
1.00752
1.00061
1.06828
0.897538
1.01383
1.00015
1.00115
1.00154
1.00089
1.01387
1.00063
0.995311
1.00039
1.0003
0.982393
1.00221
0.999061
1.0001
0.977653
1.00184
1.00432
1
1.0034
1.0094
1.00387
1
1.00222
1.00321
1.01301
1.00572
0.996844
1.00244
1.00852
1.00544
1.00599
1.01502
1.00325
1.06172
1.00568
1.00965
1.0029
1.00122
1.02209
1.00035
1.04646
1.0011
1.0088
1.00014
1.00016
1.00602
0.964523
1.01269
1.00004
1.00004
0.965056
0.901309
1.00067
0.617624
1.02796
0.901253
1.00131
0.618048
0.633429
1.00731
0.735563
1.00294
0.634014
1.00602
0.73158
0.89705
1.01067
1.00045
1.02358
0.894244
1.00002
1.00014
1.00091
1
1.00088
1.01947
1.00045
0.99998
1.00022
1.00034
0.971599
1.0022
0.998094
1.00001
0.982026
1.0018
1.00414
1
1.00299
1.01421
1.00352
0.999142
1.00243
1.0029
1.00992
1.00545
0.999408
1.0021
1.01268
1.0054
1.00561
1.00603
1.00316
1.04152
1.00547
1.00839
1.00312
1.00131
1.02253
1.00043
1.03739
1.00115
1.02862
1.00018
1.00023
0.997705
0.965554
0.996471
1.00008
0.999079
0.96827
0.90105
1.00075
0.618066
1.00553
0.90326
1.00191
0.618899
1.00021
1.00026
0.971748
1.00508
1.08849
0.672483
0.994149
0.98934
0.993917
1
1
0.996582
0.989528
0.995381
-1.2602e-22
0.0516769
-5.51837e-17
0.0241148
1.04544e-11
0.0591457
1.04533e-11
1.03972
1.0468
1.02079
0.932946
1.04853
1.13692
1.01747
1.00386
1.00178
1.01202
1.01329
1.00314
1.01354
1.00328
-1.48975e-16
0.802989
-7.25443e-17
0.173947
6.26855e-10
0.804939
2.88908e-10
1.00085
0.980257
0.999478
0.426224
0.997293
0.883911
1.0148
1.00561
1.00289
1.00045
1.00306
1.00299
1.00299
1.00514
-1.02528e-16
1.00005
1.19655e-05
0.98058
3.56173e-08
1.00015
0.000181621
1.0172
1.02792
0.994522
1.05579
1.00305
1.04206
0.995735
0.976968
0.997547
0.975163
1.00003
0.996335
0.972606
0.975729
0.0329966
1.00193
0.3902
1.00091
0.0404967
1.00249
0.39228
1.00488
0.992099
0.944383
0.98843
1.01624
0.999995
0.933361
1.00421
1.00428
1.00762
1.00783
1.00468
1.00729
1.00388
0.546532
1.00128
0.676134
1.00151
0.547353
1.00189
0.675763
0.97069
1.02237
1.00922
0.999708
0.945018
1.02819
1.0236
0.99561
1
0.961905
0.997254
1
0.956158
0.996067
0.685763
1.00227
0.526593
1.00227
0.684997
1.00281
0.527472
1.02438
0.958989
0.982711
1.02853
1.05384
0.964698
1.03559
1.0049
1.02436
1.01679
1.07423
1.02187
1.05223
1.00256
0.34749
1.00156
0.0314003
1.00393
0.361769
1.00156
0.0386721
0.99097
1.01017
0.949923
1.02822
1.03839
1.02298
0.990892
1.03451
1.0177
1.07047
1.00089
1.01742
1.0784
1.03538
5.03343e-05
1
-1.14969e-15
1.00069
0.000239737
1
3.55585e-08
0.993451
1.04019
1.07845
1.04931
1.09503
1.01556
1.03178
0.981032
0.999948
0.986121
1.02671
0.99904
0.9754
0.969842
-9.22969e-19
0.317893
-1.05809e-16
0.927967
4.70568e-10
0.327876
3.16638e-09
1.03314
0.941853
0.994151
1.00138
1.02291
0.951614
1
1.00872
1.00263
1.01564
1.01807
1.00233
1.01603
1.00882
-1.66778e-22
0.0133726
-4.6011e-23
0.194634
1.50646e-11
0.0192592
1.50646e-11
0.944832
0.723717
1.0475
0.870035
1.00957
0.823792
1.16583
0.994554
0.999748
0.953262
1.10833
0.99023
0.917348
1.00041
4.54025e-11
0.0593903
4.27834e-11
0.0251446
4.32654e-11
0.0572465
4.27836e-11
1.1806
1.27864
1.00713
0.997632
1.25327
1.23067
0.884807
1.00339
1.00444
1.02377
1.08278
1.00447
1.00196
1.04831
1.26371e-09
0.804062
5.86143e-10
0.175801
1.2601e-09
0.804987
5.86579e-10
0.905525
0.899344
1.00756
1.07539
0.922497
0.997189
0.970115
1.00929
1.00443
1.07591
1.0372
1.00893
1.0063
1.06133
5.9113e-08
1.00045
0.000234209
0.979962
6.00025e-08
1.00019
0.000230038
1.00169
1.0091
1.00574
1.02804
1.01408
1.00807
1.00819
0.94838
0.998268
0.945621
0.977752
0.945551
0.995251
0.996475
0.0413241
1.00259
0.392275
1.00103
0.0412897
1.00214
0.392387
1.03163
0.999997
0.937678
0.998726
1.02983
1
0.981223
1.00174
1.0049
1.00424
1.00721
1.00336
1.00482
1.00152
0.547765
1.00227
0.676406
1.0013
0.547728
1.0022
0.676292
0.945738
0.996216
1.03074
0.987373
0.964817
0.997269
1.0026
0.993933
1.00017
0.944802
0.991577
0.990971
1.00079
0.964619
0.686098
1.00282
0.527541
1.00241
0.685749
1.00309
0.527357
1.05574
1.02269
1.03931
1.06343
1.05681
1.04912
1.01828
1.00229
1.01214
1.0729
1.06144
1.00223
1.00984
1.07263
0.362915
1.00188
0.0396341
1.00382
0.36294
1.00165
0.0395696
1.05502
1.03081
1.00708
1.09127
1.01069
1.01761
0.902057
1.0317
1.01835
1.06346
1.04826
1.03193
1.01914
1.0643
0.000279261
1
5.82775e-08
1.00075
0.000316565
1
5.83069e-08
1.12617
1.03172
0.995941
1.0095
1.0681
0.948038
0.992468
0.959447
1.00199
0.928829
1.02037
0.970136
1.00285
0.87154
9.40387e-10
0.32953
5.5463e-09
0.927161
9.32198e-10
0.328525
5.53316e-09
1.01219
0.95773
0.976029
0.971608
0.997134
0.92914
0.892243
1.00511
1.0023
1.02219
1.02087
1.00624
1.00134
1.02266
5.75651e-11
0.020191
5.75652e-11
0.195615
5.75651e-11
0.0200016
5.75652e-11
1.11698
0.996674
1.05197
0.937292
0.986653
0.990434
0.999031
1
1.00374
0.994124
1.02025
0.999846
0.992722
1.0037
1.03368e-11
0.0555578
1.03359e-11
0.0190185
-8.70935e-23
0.0508529
-4.39817e-17
1.14353
1.1122
1.00647
1.07608
1.03631
1.03207
1.05324
1.00207
1.00305
1.0557
1.05809
1.00176
1.00279
1.05503
6.27537e-10
0.804124
2.88674e-10
0.170879
-1.21991e-16
0.802653
-6.69162e-17
1.00459
1.00078
0.932053
1.05001
1.02537
0.894769
0.92907
1.01058
1.007
1.01247
1.01524
1.01083
1.00753
1.01991
3.44876e-08
1.00036
0.000186582
0.983408
-9.48873e-17
1.00005
1.17844e-05
1.00121
1.00191
1.00502
0.958135
0.996997
1.00557
0.998018
0.974806
0.995796
0.938642
1
0.938717
0.995883
0.93652
0.0403938
1.00224
0.391996
1.00014
0.0329763
1.00154
0.389935
1.03077
1
0.989026
0.960226
1.03125
0.998782
0.988322
0.998095
1.00463
0.98774
1.0135
0.998721
1.00433
0.984779
0.547635
1.00199
0.675464
1.00105
0.546289
1.00104
0.676223
0.970727
0.975816
1.01491
0.997056
0.991654
0.974482
1.00059
1
1.00253
0.959167
0.996299
0.999811
1.00322
0.97225
0.684923
1.00253
0.527628
1.00128
0.685842
1.00235
0.526362
1.08253
1.01266
0.999848
1.05261
1.0841
0.999044
0.983264
1.00185
1.00689
1.0649
1.06236
1.00117
1.00689
1.06597
0.3603
1.00187
0.0386548
1.00382
0.346411
1.0015
0.0313005
0.984321
1.01748
1.03121
1.02702
0.965011
1.00225
1.00172
1.03472
1.02018
1.04687
1.03738
1.03131
1.02023
1.05029
0.000214196
1
3.56951e-08
1.00023
5.18514e-05
1
-1.09017e-15
1.04317
1.03414
0.997398
1.00816
1.00568
1.07929
0.999548
0.973307
1.0009
0.826866
0.996466
0.976662
1
0.895461
4.71048e-10
0.327399
2.98696e-09
0.92841
-9.45491e-19
0.319076
-8.79141e-17
1.00233
0.972175
0.976366
0.964422
0.998583
0.978297
0.979307
1.0039
1.00219
1.00649
1.01319
1.00369
1.00222
1.0152
1.46074e-11
0.0192448
1.46074e-11
0.188157
-1.47246e-22
0.0134338
-4.15065e-23
0.99998
0.999877
0.596116
0.633018
0.596693
1
0.999878
0.964681
0.866726
0.983348
0.996124
0.889741
0.991551
0.97821
0.999832
0.647585
1
0.729556
0.645614
0.9998
0.999677
0.992748
1.00044
0.998262
0.990306
0.994146
0.994856
0.997061
0.999897
0.633221
0.999908
0.598561
0.597238
0.999912
0.999818
0.959901
0.998569
0.964664
0.966988
0.985244
0.99716
0.95817
0.996981
0.728202
0.64594
0.999166
0.644757
1
0.99955
1.00072
1.00024
0.979203
0.898349
1.00017
0.977969
1.00077
0.999495
1.00188
1.00322
1.00626
1
1.00335
0.999229
1.00029
1.00002
1.00222
1.00026
1.00005
1.00213
1.00044
1.00487
1.01813
1.0047
1.01875
1.00432
1.01718
1.00486
1.00083
0.897334
1.00015
0.976081
1.00044
0.976637
1.00059
0.999427
1.00819
0.956395
1.00341
1
1.00351
0.997299
1.00058
1.00055
1.00003
1.00208
1.0003
1.00245
1.00048
1.0022
1.00201
1.00089
1.00058
1.00188
1.00103
1.00214
1.0194
1.01823
1.00155
1.00334
1.01917
1.00109
1.01566
1.00613
1.0012
1.00003
1.00028
1.00175
1.00004
1.00639
1.00575
1.00436
1.00372
1.01485
1.00328
1.00761
1.00727
1.00244
1.00101
1.00183
1.00102
1.00214
1.00138
1.00234
1.01917
1.00214
1.02946
1.00166
1.02326
1.00018
1.01964
1.00569
1.00101
1.00106
1.00005
1.00175
1.00017
1.00518
0.994551
0.998652
1
1
0.997921
1
0.997533
0.958373
0.895885
0.997235
0.981936
0.921704
0.997223
0.965342
0.999951
1.00068
1.00224
1.0022
1.00033
1.00184
1
0.989896
0.999982
0.996361
0.919845
0.99819
0.984527
0.978981
0.994569
1.00029
0.998481
1
0.999043
1.00001
0.994649
0.961189
0.982679
0.919007
0.996759
0.918674
0.996597
0.951733
0.999972
1.00208
1.00017
1.00102
1.00038
1.0014
0.999649
1.00281
1.00432
1.00537
1.00404
1.00417
1.00553
1.00334
0.999921
0.992153
1.00012
1
0.99494
1.00051
1.00009
1.00161
1.00394
1.00177
1.00493
1.00423
1.00091
1.00243
1.00419
1.0077
1.00491
1.00626
1.00485
1.00729
1.00412
1.00295
1.00402
1.00419
1.0055
1.00448
1.00572
1.00288
1.00019
1.00104
1
1.00106
1
1.00098
1.00012
1.00181
1.00521
1.00449
1.00102
1.00485
1.00128
1.00136
1.00138
1.00159
1.00411
1.00359
1.00122
1.00385
1.00205
0.999053
0.998267
1.00428
1.01592
0.996925
1.00453
0.999324
1.00167
1.00494
1.00611
1.0055
1.00538
1.0058
1.0018
0.995105
0.995789
1.00015
0.920707
1
0.921307
0.997188
1.0009
1.00358
1.00117
1.00357
1.00132
1.00396
1.00002
0.999591
1.01457
0.991385
1.004
0.999792
1.00425
0.999658
1.00168
1.00513
1.00539
1.00559
1.00567
1.00605
1.00159
1.00687
1.00733
1.00662
1.00467
1.00642
1.00638
1.00655
0.992757
0.984054
1.0059
1.00346
0.987465
1.00652
0.988157
1.0003
1.00394
1.00414
1.00308
1.00374
1.00398
1.00042
1.00307
1.07957
1.01522
1.07601
1.01731
1.08127
1.00269
1.00707
1.00449
1.00585
1.00624
1.00575
1.0065
1.00708
0.993746
1.0135
1.00982
1.00611
1.00992
1.00618
0.994146
1.00028
1.00334
1.00349
1.0039
1.00383
1.00426
1.00065
1.00403
1.00432
0.996503
1.00114
1.0042
0.997537
1.00329
1.0032
0.994601
1.01106
1.02552
0.988634
1.01027
1.00444
1.00154
0.99973
1.00187
1.00016
0.999909
1.002
1.00146
1.03379
1.03236
1.01812
1.06321
1.01779
1.06467
1.03503
1.00423
1.00119
1.00404
0.99897
1.00412
0.99825
1.00488
1.00268
1.02399
0.974868
1.01014
0.978639
1.01071
1.0016
1.00183
1.0004
1.00001
1.00255
1.00013
1.00245
1.00198
0.988811
0.999999
1
1.00001
1.00001
1
0.991986
0.98195
0.977894
1.00055
1.02391
0.954069
0.99853
0.979513
0.992794
1
0.999994
0.96806
1
0.999993
0.993921
0.960182
1.02489
1.00115
0.969722
1.00111
0.96449
0.951118
0.989806
1.00023
1.0001
1
1.00012
1
0.993666
0.975646
1.02851
0.914884
0.999634
0.99765
0.999405
0.951231
0.993585
0.966901
1
0.999961
1.00002
0.999988
0.99394
1.00172
1
0.77537
0.903228
1
0.775241
1.00171
1.00205
1.00082
0.997051
1
1.0019
0.998572
1.00024
1.00076
0.742132
0.999993
0.618867
0.740365
1.00012
1
1.00822
1.01888
1.00288
1.01978
1.00207
1.01673
1.00726
1.00172
0.902287
1
0.777916
1
0.775338
1.00109
1.00239
1.00003
1.00266
1.00066
1.00181
1.00218
1.00052
1.00136
0.617795
0.739368
1.00007
0.738189
1.00118
1.00029
1
0.999875
0.597898
0.633469
0.999994
0.597979
0.999938
0.981994
0.889498
0.984175
1.09724
0.972723
0.814679
1
0.999939
0.644347
0.999954
0.731641
0.998947
0.644734
1
0.998022
1.04907
1.00328
0.978788
1.0034
0.999308
1.00167
1
0.63328
1.00001
0.598384
0.597763
1
1
0.985449
1.14045
0.989654
0.996842
0.902768
0.996888
0.999691
1
0.734306
0.644797
1
0.641504
1
1
1.0006
1.00018
0.975488
0.898562
1.00068
1.00004
0.975133
0.998544
0.878937
1.00373
1.04861
0.994809
0.867708
1.00417
1.00087
1.00029
1.00241
1.00016
1.00073
1.00004
1.0022
1.0023
1.12383
1.00281
1.08003
1.00087
1.1048
1.00186
1.00073
0.898059
1.00008
0.974979