/*--------------------------------*- C++ -*----------------------------------*\
| =========                 |                                                 |
| \\      /  F ield         | OpenFOAM: The Open Source CFD Toolbox           |
|  \\    /   O peration     | Version:  5.0                                   |
|   \\  /    A nd           | Web:      www.OpenFOAM.org                      |
|    \\/     M anipulation  |                                                 |
\*---------------------------------------------------------------------------*/
FoamFile
{
    version     2.0;
    format      ascii;
    class       volScalarField;
    location    "3.3";
    object      p_rgh;
}
// * * * * * * * * * * * * * * * * * * * * * * * * * * * * * * * * * * * * * //

dimensions      [1 -1 -2 0 0 0 0];

internalField   nonuniform List<scalar> 
8458
(
103.631
106.58
116.103
104.604
70.1558
92.0192
95.2824
92.0621
89.906
87.5521
85.1555
82.7249
80.2794
77.8523
75.4286
73.0233
70.6311
68.2661
65.9244
63.6074
61.2972
59.0037
56.7398
54.4692
52.2235
49.9972
47.7757
45.5512
43.3457
41.1674
38.9869
36.8276
34.6984
32.5641
30.4183
28.3054
26.2457
24.2217
22.2053
20.1846
18.1916
16.2429
14.2975
12.3249
10.3803
8.48279
6.58947
4.68797
2.80821
0.938803
104.981
103.563
100.953
83.8606
179.237
94.8725
96.6737
93.0804
90.035
87.7133
85.2548
82.7901
80.3419
77.8899
75.4466
73.0432
70.638
68.2875
65.9521
63.6139
61.3029
59.0074
56.7334
54.4711
52.2127
49.9803
47.7637
45.5536
43.3553
41.1668
38.9974
36.8394
34.6941
32.5512
30.4206
28.3111
26.2411
24.2063
22.1896
20.1847
18.1975
16.2471
14.3032
12.3431
10.3875
8.47345
6.57566
4.68473
2.80855
0.93848
105.037
105.91
103.946
153.223
59.9644
94.3474
96.8942
93.5319
90.3765
87.9295
85.4029
82.8731
80.3812
77.9221
75.4726
73.0452
70.6597
68.3128
65.9713
63.6154
61.3067
59.0111
56.7254
54.4653
52.2151
49.9766
47.7544
45.5602
43.3668
41.178
39.0055
36.84
34.6749
32.5404
30.4267
28.3256
26.2413
24.1972
22.1858
20.1868
18.2073
16.2477
14.2921
12.3426
10.3975
8.47027
6.56987
4.68601
2.81099
0.938284
104.877
103.69
102.49
101.892
103.217
98.2409
97.6495
94.514
90.7963
88.183
85.554
82.9911
80.4402
77.9504
75.4969
73.0649
70.6706
68.3136
65.9541
63.6217
61.3176
59.0122
56.7319
54.4696
52.231
49.989
47.7543
45.5663
43.3602
41.1637
39.0052
36.8343
34.6692
32.5358
30.436
28.343
26.2475
24.1934
22.1865
20.1933
18.2125
16.2347
14.2707
12.3331
10.4036
8.47251
6.57078
4.69323
2.81743
0.933669
103.095
102.389
103.802
100.644
99.8327
101.402
99.2477
95.7516
91.0409
88.3339
85.6407
83.026
80.4768
77.969
75.517
73.0813
70.6877
68.3081
65.937
63.6263
61.322
59.0114
56.7345
54.4718
52.2373
50.0019
47.7635
45.5607
43.3476
41.1549
38.9985
36.8262
34.6661
32.5344
30.4364
28.3517
26.2576
24.1981
22.1913
20.2038
18.2127
16.2235
14.2544
12.3237
10.4019
8.47496
6.57829
4.70829
2.82647
0.931802
102.166
102.154
105.08
104.264
105.143
101.627
99.5608
96.2615
91.0566
88.3464
85.6421
83.026
80.477
77.9738
75.5279
73.091
70.6967
68.3107
65.9305
63.6103
61.3173
59.0072
56.7358
54.4821
52.2428
50.0162
47.7739
45.5557
43.3409
41.1465
38.9906
36.8209
34.6599
32.5372
30.4404
28.3534
26.2676
24.2087
22.1932
20.2024
18.2045
16.2017
14.2351
12.3121
10.3963
8.47878
6.5947
4.73172
2.83692
0.93471
102.426
104.848
97.4625
103.312
101.367
106.542
99.3128
95.5638
90.7906
88.1654
85.5445
82.9698
80.4578
77.9647
75.5099
73.0809
70.6897
68.3146
65.9316
63.5982
61.3004
59.0039
56.7324
54.4893
52.2483
50.0128
47.7794
45.5518
43.3427
41.1602
38.9907
36.8111
34.6538
32.5437
30.4436
28.348
26.2729
24.2221
22.1951
20.1935
18.1957
16.2008
14.2355
12.3099
10.392
8.48043
6.60069
4.7315
2.84079
0.943794
104.31
104.015
114.795
104.045
104.987
103.103
97.7874
94.2632
90.417
87.9332
85.3854
82.8705
80.3958
77.925
75.4647
73.0686
70.6717
68.2976
65.9414
63.591
61.2906
58.9985
56.7302
54.4901
52.2474
50.0172
47.7804
45.5493
43.3526
41.1647
38.9863
36.8077
34.6586
32.5503
30.4416
28.3365
26.2716
24.2302
22.199
20.1867
18.1906
16.2061
14.2461
12.3132
10.3902
8.48235
6.599
4.72053
2.83893
0.947534
98.7254
95.0546
107.659
96.2742
104.718
101.907
97.2049
93.2749
89.994
87.6815
85.2356
82.7852
80.3327
77.8829
75.4514
73.0533
70.6442
68.2797
65.9342
63.5996
61.284
58.9908
56.7345
54.485
52.2481
50.0173
47.7768
45.547
43.3458
41.163
38.9731
36.8072
34.6757
32.5551
30.4341
28.3264
26.2667
24.2342
22.2031
20.1851
18.1887
16.2171
14.2641
12.3148
10.3868
8.48431
6.59219
4.70981
2.82815
0.94868
103.042
108.466
102.502
105.141
95.0515
93.9846
95.3566
91.9081
89.8323
87.5168
85.143
82.7143
80.2695
77.8552
75.4333
73.0277
70.6348
68.2744
65.9279
63.6038
61.2857
58.9962
56.7389
54.4748
52.2381
50.0134
47.7791
45.5496
43.3437
41.1636
38.975
36.8138
34.6917
32.5624
30.423
28.3118
26.255
24.2307
22.2061
20.184
18.1901
16.2332
14.2837
12.3177
10.3809
8.48777
6.59527
4.69843
2.81388
0.939252
103.43
104.431
107.748
109.219
95.3987
91.4333
95.2339
92.0629
89.9058
87.5521
85.1556
82.7249
80.2792
77.8524
75.4286
73.0232
70.6311
68.2661
65.9245
63.607
61.2971
59.0038
56.7398
54.4691
52.2235
49.9972
47.7756
45.5512
43.3456
41.1674
38.9869
36.8277
34.6984
32.5639
30.4182
28.3054
26.2456
24.2217
22.2053
20.1846
18.1915
16.2429
14.2977
12.325
10.3803
8.48279
6.58939
4.68796
2.80816
0.938866
103.442
104.543
103.993
155.762
159.5
94.2564
96.5098
93.0797
90.0353
87.7129
85.2548
82.79
80.3419
77.8899
75.4466
73.0429
70.6381
68.2877
65.952
63.6138
61.3031
59.0075
56.7333
54.4711
52.2128
49.9802
47.7636
45.5536
43.3552
41.1668
38.9978
36.8395
34.6941
32.5513
30.4206
28.3111
26.2411
24.2063
22.1894
20.1841
18.1975
16.2472
14.3032
12.3428
10.3876
8.47348
6.57556
4.68481
2.80874
0.938432
105.175
105.313
103.053
131.327
156.24
93.898
96.9031
93.5315
90.378
87.9293
85.4029
82.8731
80.3812
77.9221
75.4726
73.0452
70.6598
68.3127
65.9713
63.6153
61.3064
59.0111
56.7253
54.4654
52.2151
49.9765
47.7544
45.5602
43.3668
41.1781
39.0052
36.8399
34.675
32.5405
30.4268
28.3256
26.2412
24.1972
22.1858
20.1867
18.2073
16.2477
14.2922
12.3424
10.3976
8.47011
6.56979
4.68605
2.81112
0.938264
103.593
104.061
103.958
105.643
106.28
97.9719
97.6752
94.5043
90.7968
88.1825
85.554
82.9911
80.4402
77.9504
75.4968
73.0649
70.6706
68.3134
65.954
63.6216
61.3176
59.0122
56.7319
54.4701
52.2309
49.9889
47.7544
45.5664
43.3602
41.1635
39.005
36.8345
34.6692
32.5358
30.436
28.3426
26.2475
24.1934
22.1865
20.1932
18.2125
16.2347
14.2705
12.3331
10.4038
8.47249
6.57068
4.69324
2.81741
0.93353
102.531
102.56
102.285
99.6903
111.788
101.473
99.2501
95.6825
91.0413
88.3339
85.6408
83.026
80.4767
77.969
75.5171
73.0813
70.6877
68.308
65.9369
63.6264
61.3221
59.0114
56.7343
54.4719
52.2371
50.002
47.7636
45.5606
43.3471
41.1548
38.9986
36.8261
34.666
32.5344
30.4364
28.3517
26.2576
24.1981
22.1913
20.2038
18.2127
16.2235
14.2543
12.3237
10.4019
8.47494
6.57822
4.7082
2.82639
0.931853
102.291
102.578
104.061
106.736
104.969
101.689
99.5226
96.1435
91.057
88.3465
85.642
83.026
80.4772
77.9738
75.5278
73.091
70.6967
68.3107
65.9304
63.6103
61.3173
59.0071
56.7357
54.4822
52.2428
50.0164
47.7739
45.5556
43.3409
41.1466
38.9906
36.8208
34.6598
32.5372
30.4405
28.3533
26.2676
24.2087
22.1932
20.2024
18.2045
16.2018
14.2351
12.3121
10.3962
8.47876
6.59467
4.73174
2.83664
0.934676
102.748
103.291
100.123
104.086
102.541
103.139
99.201
95.5236
90.7912
88.1652
85.5445
82.9697
80.4578
77.9646
75.5098
73.0808
70.6897
68.3145
65.9314
63.5983
61.3004
59.0038
56.7324
54.4893
52.248
50.0128
47.7793
45.5519
43.3428
41.1601
38.991
36.811
34.6537
32.5436
30.4435
28.3477
26.2729
24.2221
22.1951
20.1936
18.1957
16.2006
14.2355
12.31
10.3918
8.48041
6.60091
4.73157
2.84071
0.943921
102.478
107.242
111.797
102.646
103.039
97.069
97.7428
94.2593
90.4176
87.9331
85.3854
82.8705
80.3957
77.925
75.4646
73.0686
70.672
68.2974
65.9416
63.5909
61.2906
58.9985
56.7302
54.4901
52.2474
50.0174
47.7808
45.549
43.3525
41.1647
38.9862
36.8076
34.6586
32.5503
30.4415
28.3366
26.2715
24.2302
22.199
20.1865
18.1905
16.2061
14.246
12.3132
10.3901
8.48233
6.59899
4.72051
2.83899
0.947571
98.3191
95.7259
100.03
118.376
103.994
99.0373
97.2384
93.2722
89.9946
87.6813
85.2356
82.7851
80.3327
77.8829
75.4514
73.0534
70.6443
68.2788
65.9343
63.5996
61.2839
58.9908
56.7345
54.485
52.248
50.0173
47.7765
45.547
43.3459
41.1631
38.9732
36.8071
34.6762
32.5551
30.4341
28.3264
26.2667
24.2341
22.203
20.185
18.1888
16.2173
14.2641
12.3147
10.3868
8.48426
6.59214
4.70977
2.82822
0.948682
101.491
119.395
101.916
103.007
93.5466
94.0967
95.2321
91.9085
89.8322
87.5168
85.1431
82.7142
80.2694
77.8553
75.4333
73.028
70.6348
68.2743
65.928
63.6036
61.2856
58.9962
56.7389
54.4748
52.2382
50.0134
47.7788
45.5496
43.3437
41.1636
38.9751
36.8138
34.6918
32.5624
30.423
28.3119
26.255
24.2307
22.2061
20.184
18.1901
16.2331
14.2836
12.3176
10.3809
8.48776
6.59514
4.69843
2.81387
0.939236
103.471
105.161
109.466
108.581
76.0947
95.4644
95.2061
92.0624
89.9059
87.552
85.1556
82.7249
80.2789
77.8526
75.4284
73.023
70.631
68.2661
65.9248
63.6068
61.297
59.0038
56.7396
54.4689
52.2235
49.9972
47.7754
45.5511
43.3454
41.1674
38.9869
36.8277
34.6984
32.5638
30.4181
28.3053
26.2455
24.2217
22.2052
20.1844
18.1913
16.243
14.2977
12.3251
10.3803
8.48271
6.58926
4.68788
2.80806
0.938802
104.034
105.525
100.35
102.676
118.37
92.6071
96.5377
93.0806
90.0348
87.7131
85.2547
82.79
80.3418
77.8898
75.4465
73.0427
70.6381
68.2878
65.9517
63.6137
61.3031
59.0075
56.7324
54.471
52.2129
49.9801
47.7634
45.5535
43.3553
41.1668
38.9979
36.8395
34.6939
32.5512
30.4205
28.311
26.241
24.2068
22.1893
20.1832
18.1977
16.2473
14.303
12.3424
10.3876
8.47347
6.57549
4.68474
2.80883
0.938243
104.908
106.304
106.339
116.041
131.346
93.8541
96.8941
93.5326
90.3779
87.9294
85.4028
82.873
80.3811
77.922
75.4725
73.0451
70.6597
68.3125
65.9713
63.6152
61.3062
59.011
56.7251
54.4657
52.2151
49.9763
47.7543
45.5601
43.3668
41.1781
39.0049
36.8395
34.6751
32.5406
30.4268
28.3256
26.241
24.1972
22.1857
20.1866
18.2072
16.2478
14.2922
12.3422
10.3977
8.47001
6.56968
4.68602
2.81106
0.938138
103.581
105.096
103.983
102.638
103.967
99.6529
97.616
94.5078
90.7963
88.1823
85.5539
82.991
80.4401
77.9503
75.4967
73.0648
70.6705
68.3132
65.9539
63.6214
61.3177
59.0122
56.7319
54.4701
52.2301
49.9884
47.7545
45.5663
43.3602
41.1635
39.0049
36.8344
34.6691
32.5357
30.436
28.3425
26.2474
24.1933
22.1865
20.1932
18.2125
16.2346
14.2705
12.333
10.4038
8.47242
6.57058
4.69322
2.81731
0.933197
102.588
102.965
102.412
99.7858
89.6711
101.407
99.245
95.6835
91.0404
88.3342
85.6407
83.0259
80.4765
77.9689
75.5171
73.0813
70.6876
68.308
65.9367
63.6264
61.3221
59.0108
56.7342
54.472
52.2368
50.002
47.7637
45.5606
43.3469
41.1546
38.9986
36.8261
34.6659
32.5344
30.4364
28.3516
26.258
24.198
22.1913
20.2041
18.2126
16.2234
14.2542
12.3236
10.4018
8.47488
6.57835
4.7081
2.82628
0.93176
103.152
101.458
103.325
102.021
104.976
101.397
99.5085
96.1533
91.0561
88.3466
85.6418
83.0259
80.4772
77.9737
75.5275
73.0908
70.6966
68.3108
65.9302
63.6102
61.3173
59.0069
56.7355
54.4822
52.2428
50.0163
47.7738
45.5554
43.3408
41.1472
38.9908
36.8206
34.6596
32.5371
30.4406
28.3532
26.2676
24.2087
22.1931
20.2025
18.2042
16.2018
14.235
12.3122
10.396
8.47868
6.59469
4.73173
2.83622
0.934653
100.966
103.222
99.3109
104.816
103.043
101.555
99.196
95.5274
90.7906
88.1652
85.5444
82.9696
80.4577
77.9645
75.5098
73.0808
70.6896
68.3143
65.9314
63.5984
61.3003
59.0038
56.7324
54.4892
52.2478
50.0127
47.7792
45.5521
43.3432
41.1602
38.991
36.8108
34.6537
32.5435
30.4433
28.3476
26.2728
24.222
22.195
20.1935
18.1956
16.2002
14.2354
12.3099
10.3917
8.48034
6.60097
4.7313
2.84022
0.943903
103.816
103.06
109.239
102.4
102.863
97.0836
97.7462
94.2596
90.4173
87.9331
85.3853
82.8705
80.3957
77.9249
75.4645
73.0685
70.6722
68.2971
65.9417
63.5908
61.2905
58.9985
56.7303
54.49
52.2473
50.0176
47.7807
45.5489
43.3522
41.1647
38.9861
36.8075
34.6585
32.5502
30.4414
28.3365
26.2714
24.23
22.1989
20.1865
18.1903
16.2061
14.2462
12.3131
10.39
8.48226
6.59894
4.72046
2.83895
0.947571
100.411
102.207
104.027
105.633
102.987
97.5236
97.2359
93.2721
89.9944
87.6813
85.2355
82.7851
80.3326
77.8828
75.4511
73.0536
70.6451
68.2787
65.9343
63.5996
61.2839
58.9911
56.7344
54.4849
52.2479
50.0172
47.7761
45.5468
43.3459
41.1631
38.973
36.807
34.6767
32.555
30.434
28.3264
26.2667
24.2339
22.2029
20.1849
18.1888
16.2174
14.2639
12.3145
10.3868
8.48418
6.59203
4.7097
2.82838
0.94859
100.566
104.975
101.014
101.458
103.043
96.8095
95.2531
91.9084
89.8322
87.5167
85.1431
82.7141
80.2688
77.8553
75.4332
73.0282
70.6347
68.2742
65.928
63.6036
61.2855
58.9961
56.7388
54.4748
52.2382
50.0133
47.7787
45.5496
43.3436
41.1635
38.975
36.8137
34.6922
32.5622
30.4229
28.312
26.2549
24.2305
22.2061
20.1839
18.19
16.2331
14.2836
12.3174
10.3808
8.48768
6.59496
4.6984
2.81389
0.939167
94.7657
98.7725
95.7775
91.5196
94.7847
97.9785
95.8658
96.8499
100.166
97.1479
93.9284
96.9012
100.356
97.1531
96.6359
96.9063
97.0341
93.9402
96.6403
98.2897
97.0255
97.5146
100.874
99.0179
98.1623
97.5208
100.58
98.979
99.5679
101.288
100.014
101.416
99.5477
101.286
100.007
99.9383
100.724
99.3938
102.179
99.895
100.504
99.4484
99.1796
98.7851
97.9665
102.066
99.4409
97.1615
97.9643
97.8134
98.2417
97.4538
97.0367
97.8242
98.6636
97.4719
97.1507
97.6483
95.7629
99.0223
97.1528
94.8492
95.7734
95.1129
94.0777
94.623
94.1609
95.1464
93.4
94.6643
94.787
97.9152
95.902
95.8339
94.8291
91.853
95.9976
96.9148
100.593
97.1518
92.1075
96.9241
99.8884
97.1498
96.6409
96.7987
97.0016
94.651
96.6294
96.9959
97.0307
97.4985
100.397
98.9912
99.8456
97.4981
100.388
98.9448
99.5039
101.303
99.955
101.392
99.4911
101.336
100.094
99.7946
100.514
99.6125
101.442
99.9944
100.646
99.5146
99.4266
96.5242
97.9593
101.733
99.3224
95.5079
97.9799
97.7961
99.0743
97.4499
97.4856
97.7966
99.5603
97.4669
97.1517
95.1073
95.7816
97.8072
97.1532
95.291
95.7836
95.1535
93.4402
94.6701
100.06
95.152
93.6751
94.6626
94.8481
92.3821
96.0077
95.606
94.8165
95.1399
96.0007
96.9181
100.21
97.1487
92.9446
96.8718
100.9
97.1453
96.6285
96.8375
97.1537
94.1864
96.6222
96.8351
97.045
97.5341
101.677
99.0383
99.8883
97.5036
100.765
98.9064
99.4421
101.344
99.8307
101.508
99.6097
101.384
99.9567
99.8342
100.532
99.5168
101.603
100.104
100.646
99.4361
99.303
96.1786
97.9661
100.739
99.3179
96.1374
97.9628
97.7926
95.2722
97.4742
97.2052
97.7848
96.8027
97.4648
97.1552
95.3576
95.7784
98.3656
97.1539
95.3643
95.7522
95.1466
93.7063
94.6559
98.4214
95.1149
93.8951
94.6205
87.7811
91.2484
102.573
81.5615
84.3578
78.6676
102.603
99.2637
94.5704
110.493
91.7368
110.161
99.2268
94.3682
94.1275
96.3662
94.3292
95.2328
94.1375
96.2555
94.3387
104.578
97.2589
99.7246
124.238
106.05
105.819
99.9906
97.1125
96.1769
96.446
94.3457
96.0301
96.2653
97.1206
94.7136
97.0826
94.5794
96.5277
94.713
97.128
94.5897
112.034
109.708
101.442
146.326
111.976
102.516
101.605
94.1355
95.48
90.6626
94.223
95.4673
90.1733
94.1916
94.7736
97.1447
95.1389
96.9026
94.7823
97.131
95.1194
100.773
100.08
100.79
103.665
100.504
101.392
100.698
91.9979
97.8233
91.0112
98.2406
97.9139
90.6164
92.2954
95.6329
99.0877
97.5367
97.7355
95.5209
99.0512
97.4328
100.753
102.171
102.302
99.7503
100.839
102.079
103.893
100.557
100.134
101.823
101.41
100.104
101.772
100.564
98.1191
99.5555
98.7069
99.2483
98.111
99.5162
98.7359
104.88
101.93
100.992
105.17
103.682
102.43
100.944
100.528
100.82
102.406
101.613
100.815
101.627
100.521
98.7189
99.4075
98.3027
99.5095
98.7489
99.3854
98.2853
101.877
102.036
102.247
102.025
102.371
101.71
100.711
98.6945
100.492
109.139
104.021
100.089
103.117
98.6381
97.9201
98.1271
95.9936
99.1999
97.8036
98.1266
95.8784
106.222
100.851
81.9128
102.674
103.229
100.408
85.4154
98.5916
97.9155
103.94
107.298
97.9022
105.719
98.6394
95.7545
97.4744
94.7813
97.765
95.7678
97.4773
94.7873
118.901
95.8515
101.42
102.976
106.714
101.603
96.5961
104.117
97.0323
99.6595
99.958
97.088
98.425
102.149
94.6202
95.814
94.1244
97.2362
94.6296
95.6805
94.122
92.0678
97.5568
95.9585
94.0731
90.9717
96.6389
95.9761
94.7684
94.5919
94.8564
93.9734
94.5938
94.8188
94.7755
93.8031
94.7539
93.7069
95.242
93.8112
94.6708
93.7152
78.6582
55.9505
86.9748
91.6591
69.3877
124.147
70.4799
99.4094
94.6905
115.797
117.925
100.179
128.461
94.7459
94.1375
96.2406
94.338
95.2143
94.1373
96.2068
94.3378
88.3582
108.424
98.2119
117.998
113.804
128.404
120.922
97.4603
96.3083
96.1164
94.6207
97.3574
96.4727
96.2933
94.7128
97.1321
94.5881
96.5186
94.7122
97.1306
94.5885
117.327
99.072
98.371
133.428
94.8658
108.031
96.3992
94.144
95.4825
102.915
100.533
94.226
95.7662
98.3481
94.7803
97.1288
95.114
96.8968
94.7801
97.1175
95.1142
100.699
99.4838
100.606
103.311
100.682
99.4346
100.894
100.931
97.8594
106.42
101.954
102.269
97.8343
109.926
95.515
99.08
97.416
97.6697
95.5139
99.0084
97.4131
103.532
102.117
102.9
93.0445
102.731
101.938
101.839
100.493
100.124
101.66
101.52
100.496
100.127
101.635
98.1116
99.5516
98.7414
99.2412
98.1126
99.5389
98.7403
103.501
101.504
102.153
104.764
104.573
101.526
99.8727
100.996
100.8
100.98
102.007
101.701
100.756
107.515
98.7577
99.388
98.2832
99.5347
98.7546
99.4236
98.2817
102.469
101.694
101.022
103.368
102.117
108.953
96.0713
98.6016
100.046
101.5
101.921
98.5627
100.072
101.528
97.8087
98.1332
95.8709
99.1922
97.8069
98.1242
95.8702
104.649
101.484
87.0942
107.435
98.4105
100.094
101.171
98.3263
97.8835
101.391
98.2321
98.3474
97.9057
101.148
95.7557
97.4758
94.7838
97.7543
95.7534
97.473
94.7834
102.508
101.077
96.5711
101.562
99.2138
103.045
96.8948
96.9219
96.875
98.5459
98.1636
96.6043
96.8587
99.2328
94.6276
95.6808
94.1202
97.2392
94.6271
95.6698
94.1205
92.4416
97.2712
91.9043
98.3927
93.4133
115.792
106.893
94.7003
94.6262
95.5586
94.0149
94.6712
94.6134
95.7024
93.8105
94.6671
93.715
95.2363
93.8103
94.6681
93.7151
82.5129
126.393
92.3476
94.3464
77.1282
126.438
93.4627
99.7931
94.8941
106.671
94.883
99.7049
106.843
94.919
94.1371
96.2317
94.3385
95.2822
94.1271
96.3568
94.3287
123.813
134.763
115.232
124.496
119.801
133.951
114.842
97.9855
96.5233
101.096
93.0972
97.9205
96.4941
101.089
94.7114
97.1233
94.5907
96.6799
94.7114
97.0782
94.5803
64.5296
105.988
102.543
131.807
69.0042
98.4212
106.301
94.0865
95.5052
90.2104
93.367
94.161
95.5739
89.3084
94.7827
97.1323
95.1178
96.8801
94.7738
97.1475
95.1388
100.327
97.4144
100.495
100.074
100.544
97.2391
100.906
101.272
97.783
102.46
99.972
113.978
97.8073
103.12
95.5195
99.0339
97.4335
97.6313
95.6364
99.0738
97.5372
102.751
101.887
102.902
91.5694
102.481
101.657
102.859
100.609
100.133
101.665
101.425
100.63
100.122
101.816
98.1143
99.5171
98.7348
99.2509
98.1187
99.5788
98.7067
103.508
95.2814
97.9844
104.725
102.818
99.1617
98.5894
101.177
100.748
102.276
101.374
101.171
100.787
105.391
98.7489
99.3865
98.2872
99.5567
98.7201
99.3952
98.3015
102.956
105.954
93.2055
105.421
102.411
105.306
93.6412
98.6231
100.223
101.27
101.943
98.667
100.22
101.384
97.7924
98.14
95.8769
99.1957
97.9024
98.1351
95.9927
99.5064
100.264
109.383
103.045
99.9582
101.528
106.302
99.1254
97.9316
99.2202
97.2496
98.3391
97.9255
98.5604
95.7684
97.4731
94.7868
97.7935
95.7538
97.4691
94.7804
99.1962
97.5364
97.5532
101.975
101.832
102.063
98.504
97.5157
96.865
104.603
97.7008
96.9624
96.958
106.96
94.6294
95.6786
94.1225
97.2043
94.6199
95.8153
94.1247
98.2125
101.399
97.4819
103.56
98.646
102.068
97.0596
94.729
94.816
95.2365
96.6943
94.7048
94.842
96.7847
93.8108
94.6721
93.7157
95.3552
93.8025
94.7502
93.7074
98.5751
95.8861
96.4942
94.7765
96.5111
98.5631
95.8959
94.6986
86.4526
88.9322
99.3386
81.3463
90.3083
97.2418
97.1359
95.721
96.6246
95.7971
95.7164
96.6489
97.1248
99.4853
91.6823
94.4786
110.407
110.159
100.069
94.4076
98.5793
94.7819
95.8881
96.5149
96.522
98.5776
95.8933
96.193
98.7564
105.448
101.035
112.697
92.2306
96.6717
97.1482
95.8199
95.7491
96.6689
95.7502
96.6586
97.1469
97.1446
97.1386
97.2083
96.8768
97.1448
97.2222
97.1364
97.5066
103.6
97.6594
100.27
103.243
97.6544
97.4714
97.2381
97.4312
97.2943
97.156
97.4457
97.298
97.2121
97.282
94.1951
96.2655
96.2679
96.1649
96.3095
97.3437
97.154
96.8884
97.159
97.2478
97.1521
97.235
97.1595
97.4806
100.254
103.068
97.6714
103.124
97.6577
97.8082
97.2069
97.1537
97.4499
97.3095
97.4482
97.3266
97.1916
95.5767
96.2204
96.2614
96.6353
96.2356
96.2476
95.5746
95.6124
94.5397
96.6602
96.869
94.3821
96.6304
96.0374
96.3579
96.4989
96.9195
97.0261
96.5181
96.9193
96.3788
94.1058
94.0754
95.4511
89.9616
95.4616
90.0616
94.1069
95.585
96.647
96.2386
96.2714
96.245
96.3131
95.5692
95.5605
96.9457
95.7887
96.6803
94.3774
96.7855
95.6278
96.3701
97.2189
96.5859
96.9241
96.5213
96.9225
96.4557
97.836
97.6811
97.9472
97.5022
97.7916
97.9657
98.1705
99.4603
107.994
99.4072
100.377
102.561
99.4071
100.031
98.6055
98.4708
99.1575
99.0169
98.4162
99.0949
98.6179
95.9346
98.2136
97.7104
115.677
97.8228
93.4969
92.3433
97.8759
97.5426
97.5832
97.9963
97.5546
97.9807
97.8671
99.5131
100.316
102.404
99.4561
102.13
99.4591
100.11
98.6017
98.9934
98.4257
99.1477
98.4042
99.1074
98.615
100.211
99.8836
99.8498
99.5408
99.8952
99.8306
100.255
100.864
102
100.845
101.293
101.519
100.778
100.849
100.368
99.9044
100.538
100.123
99.8621
100.467
100.473
100.552
101.404
100.125
101.692
100.119
101.772
100.54
100.191
99.5386
99.8596
99.8411
99.9279
99.8568
100.19
100.832
101.339
101.657
100.805
101.661
100.78
100.844
100.347
100.22
99.8598
100.431
99.9814
100.402
100.42
100.231
100.428
99.8658
99.971
100.399
99.8247
100.342
101.419
102.937
99.8319
100.423
102.876
99.8478
101.383
100.357
99.9481
99.6675
99.4257
99.8939
99.6441
100.363
100.554
101.709
100.803
104.315
100.814
103.893
100.753
100.218
99.9653
100.426
99.8371
100.398
99.8186
100.265
101.355
100.453
102.463
99.817
103.309
99.8206
101.359
100.355
99.4436
99.893
99.6478
99.9358
99.6536
100.358
98.5737
99.4704
98.7256
99.1984
99.3638
98.6931
98.6149
97.7198
98.315
97.3185
100.19
97.5848
97.3262
98.6273
98.5228
98.4004
97.8439
97.9683
98.3927
97.8404
98.5164
98.4534
105.674
100.031
102.542
99.9912
104.173
98.4625
98.5793
99.2392
99.4025
98.6885
99.413
98.6872
98.5854
97.7259
96.9117
97.5615
97.2635
97.7598
97.2759
97.7504
98.5309
98.0006
98.3766
97.8293
98.4067
97.8606
98.5008
98.0843
97.9476
97.9829
97.8026
97.9405
97.7974
98.1321
98.1821
100.934
97.8245
98.2507
99.9216
97.7747
98.3293
97.8664
97.5678
97.7022
97.454
97.5476
97.7077
97.8774
98.5896
97.1026
97.8851
101.544
97.8844
101.57
98.7069
98.0775
97.8003
97.9275
97.7874
97.9316
97.7935
98.0499
98.2061
98.2621
100.31
97.7266
99.9733
97.7911
98.3346
97.8463
97.4944
97.5482
97.6996
97.5643
97.7093
97.8293
97.4089
97.2417
96.9217
97.1535
97.2383
96.9189
97.2161
95.6328
99.0581
95.548
94.9862
96.0368
95.5238
95.2415
96.2667
96.4479
95.833
95.7633
96.4542
95.839
96.2634
99.1991
99.5231
96.9071
98.725
96.9195
98.45
102.479
97.1553
97.1538
97.2354
96.9189
97.2375
96.9199
97.2797
94.8578
95.1946
98.1542
95.4354
100.706
95.4207
95.3385
96.1842
95.7674
96.4573
95.8507
96.456
95.8449
96.1888
94.8537
95.2745
94.8858
95.1259
95.2771
94.9044
94.8483
94.1912
91.7789
94.7217
93.4928
91.66
94.6957
94.278
94.7481
94.6044
94.8602
94.6389
94.5955
94.7509
94.8661
94.7174
94.1065
94.7093
94.6891
94.6238
94.7558
94.6723
94.85
95.1375
95.2818
94.9271
95.279
94.9184
94.8434
94.2632
93.456
91.4546
94.2761
91.602
94.1478
94.2872
94.7508
94.6574
94.6063
94.8647
94.61
94.7497
94.8648
98.5597
95.8815
96.4878
94.7925
98.5674
96.4682
95.8777
97.3436
107.455
95.2978
104.921
96.8033
134.846
96.7454
97.2069
95.763
96.6861
95.9451
97.175
95.826
96.6877
99.3681
96.1361
94.8291
104.947
107.324
99.5473
94.7723
98.5548
94.8067
95.8859
96.4694
96.4663
98.553
95.8818
97.4082
121.009
101.541
95.7607
103.001
95.8907
97.2369
97.2151
95.9896
95.8568
96.716
95.8784
96.6971
97.228
97.1946
97.1717
97.2587
96.9242
97.1727
97.187
97.2665
98.0993
104.436
97.6791
106.223
98.3964
108.853
97.7211
97.1988
97.4531
97.2797
97.1501
97.1889
97.4556
97.2896
97.6207
108.431
96.5759
102.597
96.6541
111.477
97.7865
97.2147
96.9271
97.204
97.2744
97.1919
97.272
97.2502
98.235
106.259
107.522
97.7366
111.224
97.7547
98.3237
97.2256
97.1494
97.4586
97.2915
97.4581
97.3053
97.2557
95.5467
96.1987
96.2317
96.6322
95.5451
96.1848
96.2178
95.5242
99.1309
96.653
98.2159
95.5819
98.3858
96.6633
96.437
96.5187
96.9396
97.0016
96.4336
96.5576
96.9293
94.0945
95.235
95.4971
88.4595
95.7072
90.8975
94.0395
95.5876
96.634
96.1179
96.2538
96.1763
96.2841
95.549
95.4003
96.7364
93.8099
96.6413
93.8307
96.7057
95.452
96.3915
97.01
96.5426
96.9344
96.651
96.9293
96.3861
98.2132
97.5398
98.0225
97.4974
98.2432
97.5594
98.0585
99.7221
102.084
99.5781
100.636
100.384
101.972
99.5171
98.6308
98.4457
99.1515
98.9652
98.6211
98.4148
99.1689
110.365
99.7388
97.8073
99.0751
97.9313
108.468
104.359
98.6586
97.5068
97.5739
98.0621
97.5642
98.0696
98.1648
99.6263
101.293
101.822
99.4116
101.98
99.4605
99.6306
98.6348
98.9698
98.4354
99.1917
98.4061
99.1553
98.633
100.192
99.8729
99.832
99.478
100.18
99.8634
99.8277
100.839
101.639
100.73
101.326
100.843
101.625
100.735
100.398
99.8724
100.447
99.9361
100.395
99.881
100.429
100.508
101.44
100.148
101.626
100.142
101.627
100.955
100.216
99.6208
99.8678
99.8287
99.8677
99.867
100.234
100.829
101.329
101.651
100.778
101.638
100.755
100.822
100.372
100.251
99.8908
100.453
99.9583
100.437
100.382
100.289
100.412
99.8357
99.7952
100.27
100.391
99.8279
101.365
102.721
99.8255
100.476
101.362
103.803
99.8323
100.343
99.931
99.652
99.7347
100.347
99.9011
99.6533
101.095
101.358
100.742
108.763
100.741
112.526
101.196
100.271
99.956
100.384
99.8557
100.387
99.8234
100.266
101.389
100.487
101.151
99.8401
100.915
99.8341
101.416
100.363
99.638
99.8887
99.6391
99.8713
99.6329
100.348
98.6224
99.4302
98.6926
99.3224
98.598
99.4295
98.6859
98.0272
97.7209
97.2904
97.1986
97.7643
97.9804
97.2783
98.5082
98.3778
97.8244
97.9704
98.5031
98.406
97.8311
98.6367
101.915
100.249
101.395
100.173
101.401
98.6538
98.6471
99.2447
99.4024
98.6968
99.4988
98.6915
98.6692
97.9845
97.5889
100.1
97.3507
99.7242
97.433
98.0401
98.4848
97.9566
98.3661
97.8158
98.3895
97.8477
98.4856
98.0033
97.9234
97.8013
97.7938
98.0148
97.9106
97.8371
98.358
101.607
97.704
100.462
98.274
106.154
97.7064
97.8589
97.5536
97.7042
97.4573
97.9112
97.5681
97.729
98.6331
97.2441
97.918
99.779
97.8983
100.177
98.3184
98.1076
97.8017
97.873
97.8473
97.8813
97.8503
98.0794
98.5776
103.752
99.7691
97.8329
99.7538
97.7126
99.1019
97.8279
97.4737
97.6065
97.7169
97.5706
97.7309
97.8677
97.1254
97.2244
96.9184
97.1511
97.2752
97.234
96.9217
98.637
99.0884
95.483
95.2581
100.105
100.39
95.5588
96.3089
96.4607
95.8549
95.7869
96.2398
96.4664
95.8518
96.8087
98.1779
96.8429
102.126
96.9362
101.419
99.2662
97.3957
97.1517
97.2173
96.9247
97.2675
96.9267
97.4117
97.2998
95.2946
102.3
95.4924
101.449
95.5027
97.6926
96.6026
95.7875
96.4742
95.8551
96.4691
95.8527
96.2036
94.8302
95.284
94.9401
95.1551
94.8365
95.2884
94.9509
93.937
92.9323
94.2657
93.4496
94.0423
94.1918
94.2799
94.7596
94.612
94.8647
94.6706
94.7537
94.616
94.8666
94.7199
94.9742
94.7339
95.1131
94.8268
95.668
94.743
94.8241
95.1548
95.2994
94.9554
95.2936
94.9564
94.8208
93.9884
93.5358
95.917
94.2151
94.5318
94.3406
94.2227
94.7656
94.6676
94.6263
94.8697
94.6164
94.7746
94.8678
98.5503
95.8884
96.4752
94.8531
98.5519
96.4791
95.8917
95.3961
101.97
96.0373
92.438
97.3481
102.043
96.4988
97.2472
95.8438
96.7353
96.0029
97.2429
95.8372
96.7523
99.8511
94.5632
94.9468
107.001
107.369
99.848
94.9328
98.5453
94.8406
95.8839
96.4813
96.4819
98.5337
95.8927
95.762
97.1249
116.327
96.867
101.125
96.2288
95.7713
97.248
96.0083
95.8094
96.7548
95.8309
96.761
97.2389
97.3209
97.2186
97.2724
96.9104
97.2884
97.2319
97.268
98.4076
106.754
97.8218
100.4
98.4852
106.604
97.8711
97.3131
97.4594
97.3041
97.1505
97.2954
97.4592
97.3121
97.9707
93.008
96.4955
100.898
96.5086
101.174
98.1953
97.3299
96.8967
97.2525
97.2458
97.2469
97.256
97.3329
98.4672
100.89
105.466
99.1308
107.056
99.8973
98.5809
97.3222
97.1557
97.4448
97.3479
97.458
97.381
97.3343
95.5739
96.0964
96.228
96.622
95.5469
96.1054
96.229
95.6177
94.2458
96.659
96.7754
95.5718
94.495
96.6864
96.4576
96.5205
96.9406
97.0381
96.497
96.5459
96.9405
94.0703
93.6485
95.5362
89.7109
95.5445
89.2782
94.0816
95.5858
96.6195
96.1021
96.2433
96.1075
96.2376
95.5827
95.5494
96.8437
93.8807
96.7097
93.7638
96.6459
95.5669
96.4389
97.0413
96.6473
96.9397
96.58
96.9404
96.4518
98.2735
97.6057
98.0571
97.5021
98.1104
97.5913
98.0736
99.2526
115.404
99.4295
100.209
99.5434
96.2885
99.4272
98.6445
98.4071
99.1948
98.9351
98.6499
98.4229
99.2009
99.1171
99.9466
97.9021
99.8183
98.0571
99.6615
99.4748
98.5911
97.5007
97.5999
98.071
97.5954
98.0807
98.4535
99.1445
100.333
99.4725
99.4844
96.9828
99.4379
99.8599
98.6563
98.9293
98.4468
99.2216
98.4513
99.2033
98.6596
100.248
99.8722
99.8813
99.4746
100.237
99.8651
99.8272
100.837
101.655
100.778
101.345
100.852
101.654
100.781
100.38
99.8895
100.452
99.818
100.39
99.8826
100.452
100.614
101.622
100.156
101.847
100.159
101.855
100.684
100.244
99.6484
99.8686
99.9555
99.8679
99.865
100.246
100.839
101.344
101.661
100.867
101.657
100.792
100.84
100.449
100.04
99.8982
100.481
99.8932
100.445
100.432
100.329
100.414
99.8309
99.8412
100.315
100.359
99.8422
101.387
101.505
99.829
100.541
101.395
104.257
99.8421
100.364
99.9483
99.635
99.4978
100.364
99.9061
99.6301
101.184
101.348
100.809
103.336
100.783
104.513
101.185
100.352
99.9117
100.393
99.9023
100.353
99.833
100.447
101.383
100.495
101.362
99.9829
101.592
99.8251
101.369
100.353
99.4727
99.9114
99.6448
99.9104
99.626
100.358
98.6917
99.5547
98.6858
99.354
98.6895
99.5441
98.6962
98.2656
99.0324
97.148
96.2456
98.2788
99.068
97.206
98.5012
98.3673
97.8188
97.9644
98.4959
98.406
97.8206
98.6083
101.759
100.271
104.456
100.141
100.839
98.6799
98.7052
99.3384
99.8426
98.7224
99.7324
98.7114
98.7146
98.4194
96.1884
108.995
97.5521
99.2571
97.5686
98.4761
98.5015
97.9658
98.4689
97.9715
98.4153
97.8358
98.5047
98.0325
97.8845
97.8528
97.7896
98.077
97.8984
97.8478
98.0256
99.7692
97.5644
98.1672
99.3624
99.3675
97.8696
97.6633
97.5356
97.8425
97.4581
97.9351
97.5385
97.7078
98.6275
97.206
97.935
98.7089
97.9472