/*--------------------------------*- C++ -*----------------------------------*\
| =========                 |                                                 |
| \\      /  F ield         | OpenFOAM: The Open Source CFD Toolbox           |
|  \\    /   O peration     | Version:  5.0                                   |
|   \\  /    A nd           | Web:      www.OpenFOAM.org                      |
|    \\/     M anipulation  |                                                 |
\*---------------------------------------------------------------------------*/
FoamFile
{
    version     2.0;
    format      ascii;
    class       surfaceScalarField;
    location    "3.3";
    object      phi;
}
// * * * * * * * * * * * * * * * * * * * * * * * * * * * * * * * * * * * * * //

dimensions      [0 3 -1 0 0 0 0];

internalField   nonuniform List<scalar> 
25282
(
2.27943e-09
-5.3163e-10
9.68216e-09
3.43791e-10
-2.55994e-09
-3.04951e-10
3.08149e-09
-7.268e-10
-5.69526e-10
8.00029e-10
7.39649e-10
2.2638e-10
-1.52818e-09
-1.12831e-09
3.44256e-09
3.2231e-10
9.22123e-11
6.12524e-10
-6.97689e-10
-2.06149e-10
1.28128e-09
-2.01413e-09
-3.41674e-09
-1.12207e-09
-2.21662e-09
7.50637e-08
-3.09908e-08
3.37846e-08
-7.02209e-08
1.04398e-09
-1.20523e-09
2.29331e-10
-7.0401e-10
5.20074e-10
5.31322e-11
-8.54162e-10
-2.20527e-10
-6.54019e-11
-9.77708e-12
4.39536e-11
2.27252e-11
1.34332e-09
-2.83988e-11
-1.5907e-11
-2.31193e-10
-2.4599e-10
-3.58887e-10
-3.99533e-10
-3.43444e-11
-4.63756e-11
-5.57757e-11
1.35157e-09
-4.33327e-11
-3.99931e-12
1.37278e-09
-4.18216e-11
6.05235e-13
1.38408e-09
-2.30331e-11
-6.18811e-14
1.39282e-09
-1.44852e-11
-1.36428e-13
1.39882e-09
-8.83848e-12
1.15935e-13
1.40101e-09
-5.81046e-12
-1.50431e-13
1.40298e-09
-3.54656e-12
6.46584e-14
1.40402e-09
-1.6224e-13
-9.34545e-13
1.40527e-09
-1.40039e-12
-4.98969e-15
1.40509e-09
-1.123e-12
-2.37143e-13
1.40512e-09
-4.66986e-13
-3.35957e-13
1.40538e-09
-4.23796e-13
3.23809e-14
1.40606e-09
-1.03654e-14
-3.87955e-14
1.40599e-09
1.24484e-13
-3.30152e-13
1.40587e-09
2.29038e-13
-3.54469e-13
1.40574e-09
-3.30212e-13
3.80871e-13
1.40598e-09
-9.99501e-13
4.56842e-13
1.40587e-09
-1.79813e-12
2.26764e-13
1.40607e-09
4.33369e-13
-1.10765e-13
1.40603e-09
-4.08762e-15
4.51352e-14
1.40564e-09
1.07252e-12
-2.35705e-12
1.40557e-09
4.05905e-13
2.8649e-13
1.40502e-09
-5.77472e-13
3.61964e-12
1.4051e-09
-6.96539e-13
2.47637e-12
1.40452e-09
-6.68995e-14
2.14472e-13
1.40606e-09
-3.81675e-12
2.09604e-12
1.40558e-09
2.07402e-13
2.55727e-14
1.40537e-09
7.29146e-14
1.21233e-13
1.40485e-09
4.84408e-13
3.53253e-15
1.40476e-09
4.69202e-13
-5.32908e-13
1.40609e-09
-1.94995e-12
1.50385e-13
1.40538e-09
2.8903e-13
1.8906e-13
1.4053e-09
2.77053e-14
1.08562e-14
1.40527e-09
-8.43284e-14
7.87754e-14
1.40617e-09
-5.9796e-13
-7.81086e-13
1.40454e-09
3.68691e-12
-1.8609e-12
1.40479e-09
-3.57841e-13
1.02175e-14
1.4045e-09
2.4846e-13
-3.01587e-13
1.40563e-09
-1.23259e-12
-5.14812e-14
1.4053e-09
2.33273e-13
1.38375e-13
1.4047e-09
-4.55324e-13
8.61097e-13
1.31688e-12
-1.19105e-12
-7.1347e-10
4.8349e-09
-5.45516e-09
2.42605e-09
-1.78743e-09
1.55231e-09
-1.40011e-09
-3.62917e-09
-1.33273e-09
5.64849e-09
-2.56611e-09
2.53794e-09
3.59259e-10
1.86408e-09
-8.40893e-10
-5.02705e-10
7.0768e-10
-5.65227e-10
-8.36373e-10
-2.29109e-09
2.13344e-09
3.98476e-10
-4.60426e-10
8.7537e-10
2.32343e-10
-1.04577e-09
1.78113e-09
2.4844e-09
7.15433e-11
7.60108e-10
-5.09718e-09
1.09673e-09
-1.87135e-09
1.65931e-09
-5.47027e-10
-3.37659e-10
-1.78581e-10
1.70988e-11
-1.95783e-11
1.39635e-10
4.14263e-11
-2.13437e-10
2.08667e-10
-1.81996e-11
-5.4272e-12
1.39681e-09
-5.71855e-11
-2.47759e-11
-2.51766e-10
-2.5699e-10
-4.19844e-10
-4.29572e-10
1.39829e-09
-4.09671e-11
-2.32674e-12
1.40044e-09
-2.56248e-11
4.37456e-13
1.40236e-09
-1.63743e-11
-4.29682e-14
1.40379e-09
-1.03383e-11
5.13103e-14
1.40456e-09
-6.60398e-12
-1.09539e-14
1.40503e-09
-4.07784e-12
2.21086e-14
1.40559e-09
-1.85559e-12
1.09222e-12
1.40564e-09
-1.8683e-12
3.69852e-13
1.40575e-09
-9.84942e-13
-2.85333e-13
1.40614e-09
-1.23928e-12
3.45893e-13
1.40591e-09
-3.14087e-13
8.03425e-14
1.4059e-09
1.47824e-13
-1.87941e-13
1.40567e-09
-4.47368e-15
3.22861e-13
1.40606e-09
6.19929e-13
-8.22349e-13
1.40663e-09
-1.43827e-12
5.04075e-13
1.40614e-09
1.16495e-13
-6.63618e-13
1.4056e-09
-2.7503e-14
-1.27036e-12
1.40574e-09
3.03747e-14
2.32878e-13
1.40597e-09
-3.92104e-13
1.18426e-13
1.40576e-09
-1.19368e-12
2.44059e-12
1.40434e-09
1.74713e-12
3.87837e-14
1.40497e-09
-1.47673e-13
-1.09945e-12
1.40533e-09
3.29373e-13
-1.41726e-12
1.40653e-09
-3.21175e-12
1.90325e-12
1.40539e-09
-2.85189e-12
1.41646e-13
1.40542e-09
2.23819e-13
-7.92378e-14
1.40556e-09
5.00773e-14
-1.50506e-13
1.40582e-09
2.05729e-13
-1.27228e-14
1.40575e-09
1.06415e-13
4.0487e-13
1.4045e-09
-9.12705e-13
1.83812e-13
1.40491e-09
2.56803e-13
-4.07419e-13
1.40483e-09
-2.01481e-13
2.77055e-13
1.40448e-09
9.64475e-14
1.48716e-13
1.40453e-09
-9.23976e-13
2.53564e-13
1.40595e-09
3.79724e-13
1.86613e-12
1.40542e-09
-1.91369e-14
1.73996e-13
1.40541e-09
1.07577e-13
1.35728e-13
1.4049e-09
-1.71597e-12
9.83609e-13
1.40476e-09
4.0892e-13
-4.47737e-14
1.40509e-09
1.80267e-13
-9.75998e-13
-1.65496e-13
1.23013e-12
3.81814e-09
6.01343e-09
-3.60791e-09
7.62196e-11
7.40083e-09
-1.00677e-08
1.47996e-09
2.43255e-09
1.03149e-09
1.71791e-09
-3.6434e-10
1.13826e-09
-1.02732e-09
-2.84234e-09
-1.51888e-09
1.36579e-10
4.30077e-09
8.8522e-10
2.84768e-09
-1.59865e-09
-3.43315e-10
-1.79094e-09
-9.31701e-10
-1.22458e-09
-3.07842e-09
-1.05032e-10
5.33975e-09
-7.25088e-10
-2.25579e-09
5.55917e-10
2.67021e-10
2.15794e-09
-1.54877e-10
-4.29753e-11
2.50856e-11
-2.4542e-11
1.97309e-10
-3.69079e-11
2.12819e-10
-1.19514e-11
-6.76114e-12
-3.51428e-11
-6.88874e-11
-6.58883e-11
1.27201e-11
1.42924e-09
-5.43871e-11
-2.589e-11
-2.62202e-10
-2.64957e-10
-4.36573e-10
-4.42411e-10
1.42147e-09
-3.08649e-11
-2.34682e-12
1.41554e-09
-2.01788e-11
4.68984e-13
1.41222e-09
-1.31245e-11
6.5362e-14
1.41032e-09
-8.72811e-12
2.6238e-13
1.40876e-09
-5.07922e-12
1.18339e-14
1.40765e-09
-3.05641e-12
4.75275e-14
1.40785e-09
-2.3516e-12
2.57953e-13
1.40735e-09
-8.80929e-13
-5.28439e-13
1.40669e-09
-5.05178e-13
1.35486e-13
1.40544e-09
1.0318e-13
-1.3084e-13
1.40585e-09
-7.85417e-13
2.48335e-14
1.40626e-09
-4.56207e-13
1.47947e-13
1.40656e-09
-3.48821e-13
1.00212e-14
1.40612e-09
-7.44622e-13
1.77241e-12
1.40557e-09
-5.16399e-13
-4.16517e-13
1.40517e-09
4.86742e-13
-6.14359e-15
1.40541e-09
-5.74393e-13
2.78024e-13
1.40524e-09
4.05191e-14
1.20829e-13
1.40479e-09
-1.17127e-13
1.37062e-13
1.40488e-09
7.57076e-13
-2.07544e-12
1.40706e-09
1.51713e-12
-1.99238e-12
1.40631e-09
6.00244e-13
-3.30142e-14
1.40692e-09
7.78815e-13
-1.0911e-12
1.40553e-09
-5.24229e-15
-1.85762e-12
1.40509e-09
2.37309e-13
-2.68419e-12
1.40511e-09
3.43473e-13
-1.68735e-13
1.40527e-09
-2.33765e-13
8.2708e-14
1.40544e-09
-9.62416e-15
1.78635e-14
1.40528e-09
-6.72188e-14
2.9643e-13
1.40497e-09
-2.82331e-13
-3.42611e-13
1.4048e-09
8.54218e-13
-4.55066e-13
1.40453e-09
-8.27237e-14
1.18797e-13
1.40501e-09
-1.74086e-13
-2.33231e-13
1.40515e-09
-2.0711e-12
9.83411e-13
1.40581e-09
-1.33769e-12
1.03914e-12
1.40558e-09
1.64488e-13
3.55991e-14
1.40553e-09
5.0707e-14
9.32384e-14
1.40474e-09
-4.60316e-14
-8.9679e-13
1.40465e-09
5.57246e-13
-6.95428e-14
1.40448e-09
2.39858e-13
1.05804e-13
-1.52715e-12
6.5512e-13
1.09697e-08
-1.52263e-09
-2.04491e-09
1.49792e-08
3.20049e-09
2.2813e-08
-1.14041e-08
1.33769e-08
-2.45956e-08
2.22047e-09
-1.86974e-09
-1.36662e-08
-8.82643e-09
5.44868e-09
1.58929e-08
9.50428e-10
2.0579e-09
4.75655e-11
1.6684e-09
-1.48206e-09
-1.53838e-10
1.16314e-09
1.43419e-09
4.07558e-09
6.01806e-09
-9.67724e-10
7.071e-10
-2.67211e-09
5.15314e-09
-5.50994e-09
-1.30852e-09
8.80454e-10
5.96161e-09
-2.3603e-11
-4.38804e-10
6.90536e-11
-3.21227e-11
7.35729e-10
-3.33856e-10
2.68382e-11
-1.3615e-11
1.09393e-11
-4.69516e-11
2.27891e-11
-3.16595e-11
1.93138e-12
-3.044e-12
7.3737e-12
2.53985e-11
1.45532e-09
-1.7747e-11
-3.41852e-11
-2.65199e-10
-2.76088e-10
-4.47485e-10
-4.69012e-10
1.43976e-09
-1.36102e-11
-1.71312e-12
1.42753e-09
-8.21928e-12
2.53476e-13
1.41954e-09
-4.86418e-12
-2.84753e-13
1.41456e-09
-3.54967e-12
-2.27756e-13
1.41155e-09
-2.1034e-12
3.83197e-15
1.40963e-09
-1.16666e-12
-9.1688e-15
1.40797e-09
-7.1523e-13
-1.84416e-14
1.40742e-09
-6.40975e-13
2.76392e-13
1.40683e-09
-9.84062e-14
1.40678e-13
1.4069e-09
-2.2213e-13
2.10425e-13
1.40668e-09
-6.25315e-13
2.64755e-14
1.40633e-09
-2.09324e-13
6.16887e-14
1.40598e-09
-6.49482e-14
2.80397e-14
1.40603e-09
-7.56587e-14
-7.49498e-13
1.40585e-09
-1.94805e-14
-3.5682e-13
1.40615e-09
2.17304e-13
-6.44438e-14
1.40578e-09
-4.09154e-14
-2.04326e-13
1.40573e-09
2.08118e-14
3.28509e-14
1.40591e-09
8.50113e-13
-1.18144e-12
1.40638e-09
1.18296e-12
-9.3281e-13
1.40557e-09
2.49306e-13
2.03919e-12
1.40566e-09
5.85212e-13
-1.09313e-13
1.40525e-09
-1.21537e-12
2.36744e-12
1.40531e-09
-1.15038e-13
1.66083e-14
1.40531e-09
1.06305e-13
9.47752e-14
1.40544e-09
-7.22584e-14
2.48383e-13
1.40532e-09
-5.50703e-14
-8.94046e-14
1.4054e-09
-1.03846e-13
-1.72657e-14
1.40544e-09
-1.65854e-13
2.59954e-14
1.40516e-09
-4.50817e-13
4.14241e-13
1.40494e-09
1.05001e-12
1.62385e-17
1.40527e-09
-1.79917e-13
-2.5762e-13
1.40569e-09
-2.59887e-13
-3.61611e-13
1.40523e-09
-3.5617e-13
-1.27416e-12
1.4049e-09
-7.71579e-15
-1.0182e-12
1.40522e-09
-1.5884e-14
-1.62106e-13
1.40537e-09
2.19875e-14
-1.33959e-13
1.40533e-09
1.32731e-12
-1.34345e-12
1.40418e-09
1.74831e-12
-4.87317e-14
1.40443e-09
-4.44778e-14
2.99222e-14
-1.94894e-12
5.53184e-13
8.50879e-09
1.28383e-10
-8.77105e-09
-4.63036e-10
2.28427e-09
1.13441e-09
-8.9391e-09
-6.08267e-09
1.43887e-08
4.24265e-10
9.67843e-10
1.95141e-09
1.80075e-09
2.16265e-09
2.07958e-09
2.22649e-09
1.08804e-09
-5.64737e-09
-3.50976e-09
3.86986e-10
6.30312e-09
-2.9975e-09
-1.8285e-10
5.43633e-09
-4.71587e-10
-5.92187e-09
3.9594e-09
-6.51153e-10
-6.80896e-10
-4.77775e-10
-1.19245e-09
-6.69279e-11
7.32423e-11
2.69689e-10
7.89014e-12
-2.83894e-10
-2.23299e-10
-3.69211e-11
9.38461e-11
1.76547e-10
-2.31735e-10
-1.65804e-10
-1.2098e-10
-9.71424e-11
-3.46288e-11
-2.10637e-11
1.68769e-10
1.58403e-10
1.89933e-10
1.44077e-10
-8.45914e-11
2.51362e-13
-5.75051e-13
5.26269e-11
3.22882e-11
1.46488e-09
1.03601e-11
-3.00173e-11
-2.7451e-10
-2.75281e-10
-4.57229e-10
-4.55961e-10
1.44521e-09
8.12339e-12
-2.09507e-12
1.43136e-09
5.21725e-12
3.76918e-13
1.42198e-09
4.40024e-12
8.88359e-14
1.41704e-09
1.21933e-12
1.40442e-13
1.41346e-09
1.45059e-12
-8.83056e-15
1.4104e-09
2.04516e-12
-1.97829e-13
1.40859e-09
1.18826e-12
-1.25928e-13
1.40749e-09
4.45772e-13
-2.87979e-14
1.40674e-09
8.12935e-13
-2.01013e-13
1.40612e-09
3.61292e-13
-3.44431e-15
1.4071e-09
-6.41766e-13
-9.98636e-13
1.40644e-09
3.92921e-13
1.46777e-14
1.40636e-09
4.28814e-13
-4.49847e-13
1.40615e-09
3.1879e-14
6.19158e-14
1.40601e-09
-1.07623e-13
1.94746e-13
1.40603e-09
2.63989e-13
-1.05034e-13
1.40627e-09
-3.9503e-13
7.56609e-14
1.40628e-09
-3.62539e-14
1.11157e-14
1.406e-09
2.61341e-14
1.07445e-12
1.40543e-09
2.96863e-13
1.41044e-12
1.40542e-09
3.75012e-13
-1.44e-13
1.40602e-09
1.63606e-13
-2.15598e-13
1.40522e-09
-5.74521e-13
1.16276e-13
1.4052e-09
-3.74833e-14
-9.45443e-14
1.40535e-09
-8.02241e-14
5.43682e-15
1.40518e-09
-1.47207e-13
2.08113e-13
1.40508e-09
4.4388e-15
1.10915e-14
1.40499e-09
-7.9215e-14
2.84912e-14
1.40477e-09
-3.17789e-14
5.44762e-14
1.40479e-09
-1.22683e-13
-3.71038e-13
1.40527e-09
4.21769e-14
4.98416e-13
1.40479e-09
-3.20937e-14
3.07934e-13
1.40565e-09
-3.21345e-12
2.06422e-12
1.40561e-09
-1.15894e-12
8.24048e-13
1.4053e-09
3.64734e-13
-8.12457e-14
1.40534e-09
9.96217e-15
-8.62895e-14
1.40577e-09
-4.37852e-13
1.3196e-14
1.40565e-09
-1.40255e-12
2.83979e-12
1.40425e-09
3.41107e-12
-2.74991e-13
1.40454e-09
-8.53212e-13
5.17011e-13
-1.69356e-13
-9.35445e-13
6.20627e-10
-1.70135e-09
3.22789e-10
1.77433e-09
-2.21931e-09
3.17009e-09
1.04901e-09
-8.63879e-10
-6.35125e-10
-1.01018e-09
1.21526e-09
2.69977e-09
1.4188e-09
-3.41629e-09
-9.86829e-10
1.54282e-09
6.89447e-09
-6.78598e-09
5.5641e-09
2.42101e-09
7.36295e-09
-8.89983e-10
-4.21094e-09
-1.23048e-09
2.59745e-10
-1.02225e-09
-2.45814e-09
-1.16825e-10
2.59292e-09
-9.60298e-11
-8.19765e-10
-6.02346e-09
-3.43131e-10
-2.23302e-09
1.42616e-09
2.56877e-09
5.10917e-10
8.13388e-10
-5.20515e-10
-6.56186e-11
-7.38171e-10
3.02831e-10
-1.0536e-09
4.05082e-10
-7.21753e-10
1.06744e-09
-1.11228e-10
-1.22784e-10
1.51358e-10
-3.12454e-11
-7.3837e-11
-5.5281e-11
-1.58891e-10
1.03378e-10
9.40846e-11
1.1126e-10
9.31869e-11
-1.19003e-10
5.39299e-14
1.32473e-12
8.15344e-11
3.60903e-11
1.4648e-09
4.84814e-11
-3.08509e-11
-2.75102e-10
-2.77459e-10
-4.55804e-10
-4.63727e-10
1.44431e-09
3.10161e-11
-2.44677e-12
1.42947e-09
1.96943e-11
3.23607e-13
1.42144e-09
1.26149e-11
-2.3308e-13
1.41496e-09
7.80071e-12
-1.41889e-13
1.41137e-09
4.98201e-12
2.40689e-14
1.40989e-09
3.29051e-12
1.87507e-13
1.40875e-09
2.159e-12
1.2487e-13
1.40775e-09
1.33734e-12
6.72471e-14
1.4074e-09
2.17186e-13
9.08648e-13
1.40731e-09
4.15536e-13
-5.6818e-16
1.40575e-09
5.70469e-13
3.13392e-13
1.4064e-09
-8.5014e-13
5.48819e-13
1.40601e-09
2.779e-13
5.03427e-13
1.40612e-09
-2.36917e-13
1.27908e-13
1.40576e-09
3.56476e-13
-1.47477e-13
1.40557e-09
6.22755e-14
3.5557e-13
1.40646e-09
1.17491e-12
-2.49371e-12
1.40634e-09
8.32752e-14
-3.18054e-14
1.4063e-09
1.78807e-13
-1.52312e-13
1.40642e-09
2.68075e-13
-1.27461e-13
1.40461e-09
5.26173e-12
-3.11646e-12
1.40463e-09
-1.02226e-12
1.12488e-12
1.40566e-09
-2.66689e-13
-1.36963e-12
1.40553e-09
7.8396e-14
-1.8621e-14
1.40547e-09
2.48294e-13
-3.01806e-13
1.40522e-09
8.04273e-13
-7.36307e-13
1.40518e-09
6.27585e-15
4.40573e-15
1.40509e-09
-9.54053e-14
6.9827e-14
1.40525e-09
-8.53686e-14
-1.33618e-13
1.40499e-09
-6.72306e-13
7.72302e-13
1.40556e-09
-3.26184e-13
-2.29559e-13
1.40619e-09
-2.85728e-13
-3.99292e-13
1.40485e-09
-3.97995e-13
-1.49486e-12
1.40458e-09
-1.90119e-13
-7.23039e-13
1.40462e-09
3.87252e-13
-8.3029e-14
1.40454e-09
-1.35595e-13
2.0557e-13
1.4043e-09
-1.20546e-13
-9.35449e-14
1.40427e-09
1.3508e-12
-2.73613e-12
1.40618e-09
1.14984e-12
3.4806e-13
1.4059e-09
-4.78483e-13
-1.02594e-13
-8.42579e-13
1.96423e-12
1.01414e-09
-1.16361e-09
-1.36092e-09
3.71169e-09
4.70354e-10
-7.57911e-10
2.2917e-10
6.90952e-09
3.14617e-10
-1.07604e-08
-1.17307e-10
6.86742e-10
-5.25108e-09
-1.3581e-10
1.28383e-09
2.21107e-09
-6.55592e-10
-2.04601e-09
-7.73667e-10
1.2642e-09
1.44922e-10
1.56487e-10
-2.20844e-09
4.35e-10
1.47204e-09
7.15349e-10
7.93519e-10
7.29923e-10
9.80506e-10
-3.2193e-09
5.165e-11
1.30171e-12
-2.80696e-11
-7.41475e-11
4.92654e-11
-7.0322e-11
-2.12026e-12
2.11544e-12
3.88438e-11
3.1483e-11
1.43601e-09
6.83633e-11
-2.87398e-11
-2.72774e-10
-2.61613e-10
-4.59365e-10
-4.33426e-10
1.42567e-09
4.33951e-11
-2.09123e-12
1.41776e-09
2.70943e-11
4.61951e-13
1.41335e-09
1.70441e-11
-6.33857e-14
1.41054e-09
1.05328e-11
2.79212e-14
1.40891e-09
6.55303e-12
1.12055e-14
1.40784e-09
3.99308e-12
3.19913e-13
1.40737e-09
2.55779e-12
3.73638e-14
1.40706e-09
1.5855e-12
1.77874e-14
1.40653e-09
1.38791e-12
-6.78655e-13
1.40684e-09
5.37498e-13
-4.72282e-13
1.40637e-09
5.01137e-13
5.02607e-13
1.40594e-09
6.44488e-14
-5.25506e-13
1.40604e-09
2.01751e-13
-5.50464e-14
1.40591e-09
2.58444e-13
-4.06575e-13
1.40597e-09
8.08476e-14
1.76584e-13
1.40636e-09
2.56296e-13
-6.17936e-13
1.40534e-09
-3.53786e-13
2.50589e-12
1.40558e-09
-2.68322e-13
8.04239e-14
1.4059e-09
-2.73484e-13
9.68015e-14
1.40416e-09
4.56892e-12
-2.60322e-12
1.40588e-09
3.61129e-13
3.15225e-12
1.40591e-09
-2.72989e-13
-8.18092e-13
1.40566e-09
-9.82703e-14
4.30113e-14
1.40556e-09
5.08658e-14
9.25234e-14
1.40548e-09
2.21363e-13
7.18162e-14
1.4056e-09
9.44829e-14
5.59182e-13
1.40554e-09
2.13232e-14
5.50212e-15
1.40533e-09
9.01111e-14
-8.67786e-15
1.40526e-09
2.64367e-14
-7.24685e-14
1.40518e-09
3.48181e-14
-6.5768e-13
1.40547e-09
3.37071e-13
-9.81846e-13
1.40511e-09
-6.19821e-14
1.16372e-13
1.40498e-09
-1.56019e-13
-1.37905e-13
1.40482e-09
-7.55137e-14
2.00774e-14
1.40462e-09
2.27462e-13
3.39945e-13
1.40462e-09
-1.62917e-13
8.02582e-15
1.40442e-09
7.64335e-14
-3.17033e-15
1.40481e-09
-8.05494e-13
1.74656e-12
1.40522e-09
6.82279e-13
4.94908e-14
1.40542e-09
-1.06118e-13
-5.76476e-13
-1.74784e-13
-1.43671e-12
-2.0739e-09
8.36626e-10
1.57107e-09
3.27094e-09
-2.72059e-09
2.15786e-09
-1.07035e-09
-2.31986e-10
1.07277e-09
5.01221e-10
-2.23316e-11
4.18148e-11
-1.94426e-09
-3.57767e-09
-3.07097e-09
4.29476e-09
2.67323e-10
-4.84022e-10
9.55325e-10
-4.58649e-10
1.43399e-09
-2.53821e-09
1.72568e-09
-1.18326e-09
5.61803e-10
-1.78414e-09
-2.09253e-09
2.2357e-09
-3.24304e-10
-6.33282e-10
1.29107e-09
9.14425e-11
1.21605e-09
5.16004e-11
2.5805e-09
-1.21909e-09
-1.9095e-09
2.73076e-08
-1.13316e-08
-8.80846e-09
-3.56278e-09
-1.59055e-09
-3.21058e-10
-1.19662e-09
3.04271e-10
-5.69138e-10
7.88463e-10
-4.15942e-10
-1.07655e-10
-6.95147e-11
2.96913e-11
-4.3854e-11
-3.19378e-11
1.15615e-10
-4.14178e-11
-1.20205e-11
2.02606e-10
2.50833e-11
1.51364e-11
-3.80989e-11
-7.88482e-11
-7.24401e-11
1.40052e-09
6.97336e-11
-2.59472e-11
-2.64053e-10
-2.5252e-10
-4.41956e-10
-4.17433e-10
1.40083e-09
4.54875e-11
-2.45458e-12
1.40166e-09
2.5831e-11
3.91329e-13
1.40301e-09
1.57158e-11
-7.4099e-14
1.40394e-09
9.52183e-12
3.13174e-14
1.40467e-09
5.7732e-12
4.1274e-15
1.40547e-09
3.28133e-12
-1.25347e-13
1.40584e-09
2.11245e-12
2.80138e-14
1.40591e-09
1.18878e-12
2.89338e-13
1.40626e-09
8.9042e-13
1.05882e-13
1.40601e-09
-2.77759e-13
1.02608e-12
1.40623e-09
1.10873e-12
-8.69375e-13
1.40608e-09
1.86937e-13
-1.22858e-14
1.40601e-09
3.41666e-13
-1.06969e-13
1.40587e-09
-4.02292e-13
7.62895e-13
1.40597e-09
-9.34029e-14
4.04438e-14
1.4057e-09
7.23989e-14
4.1674e-13
1.40543e-09
-4.33341e-13
3.19908e-13
1.40502e-09
1.36185e-13
-3.4983e-14
1.40461e-09
1.03407e-13
-1.33274e-15
1.40581e-09
6.17277e-13
2.7071e-12
1.40567e-09
8.28169e-13
-3.56962e-13
1.40651e-09
-3.1648e-12
2.0131e-12
1.40611e-09
2.97167e-13
-3.10779e-14
1.4055e-09
8.41393e-13
-2.13317e-13
1.40544e-09
1.67343e-14
2.22433e-13
1.40554e-09
-7.36255e-14
3.81437e-14
1.4054e-09
7.60373e-13
-6.37904e-13
1.40521e-09
-2.81873e-13
5.29778e-13
1.40538e-09
-2.50745e-13
8.1328e-14
1.40557e-09
-1.87757e-13
-3.74731e-15
1.40506e-09
-3.26006e-13
1.14928e-12
1.40496e-09
-1.59817e-13
1.7156e-13
1.40489e-09
-1.52471e-13
4.61718e-14
1.40469e-09
-2.12885e-13
3.12605e-13
1.405e-09
9.68364e-14
-1.95637e-13
1.40478e-09
4.73053e-14
-9.00805e-15
1.40429e-09
5.11655e-13
4.14391e-14
1.40479e-09
-1.11048e-12
-2.06949e-13
1.4047e-09
5.03259e-13
2.54109e-13
1.40587e-09
-2.89027e-12
1.60587e-12
-3.10369e-13
-5.13744e-13
-1.0127e-08
-3.37664e-09
1.45313e-08
1.25299e-09
-5.22496e-09
5.42317e-09
-1.92907e-09
4.77878e-10
-6.85206e-10
-1.74942e-09
-3.39208e-09
1.72084e-08
-3.47894e-08
-7.4179e-09
3.08914e-08
-1.42126e-10
1.30369e-10
1.90388e-09
-3.52195e-10
-4.3787e-10
-4.9647e-10
-6.71372e-10
2.68892e-10
1.02892e-09
-2.05017e-09
-5.2963e-10
1.28198e-09
1.22208e-09
8.49277e-10
-1.92515e-09
-4.61685e-10
3.15478e-10
3.45901e-10
-2.12633e-09
1.27409e-09
-2.18431e-10
7.24775e-10
-8.83213e-11
4.48251e-11
-1.03671e-11
-1.19795e-10
1.73658e-10
-3.34754e-11
-2.41762e-11
1.7743e-10
2.18675e-11
1.03301e-11
-3.17871e-11
-6.18344e-11
-5.83543e-11
1.3411e-09
1.4003e-11
-2.23275e-11
-2.41709e-10
-2.32496e-10
-4.02636e-10
-3.8622e-10
1.36729e-09
2.11449e-11
-1.87406e-12
1.3827e-09
9.84709e-12
5.31589e-13
1.39194e-09
6.43209e-12
4.47024e-15
1.39732e-09
3.87102e-12
2.28852e-13
1.40086e-09
2.13727e-12
5.74013e-14
1.40279e-09
1.42716e-12
-1.21027e-13
1.40406e-09
2.46404e-14
7.73793e-13
1.4049e-09
4.3222e-13
-1.25133e-13
1.40578e-09
2.44993e-13
-2.74321e-13
1.40604e-09
-2.3328e-13
-3.49519e-13
1.40596e-09
6.16024e-14
1.08875e-12
1.40603e-09
7.29644e-14
7.84379e-15
1.40546e-09
8.86989e-13
-8.04107e-15
1.40582e-09
-3.08433e-13
-4.94321e-13
1.40566e-09
5.31525e-14
-2.43536e-14
1.40583e-09
-5.58617e-14
-7.5465e-14
1.40611e-09
-4.67727e-13
-2.80598e-13
1.4056e-09
-5.51937e-13
1.16134e-12
1.40583e-09
-1.51438e-13
-1.79572e-14
1.40602e-09
3.04465e-13
8.65365e-14
1.40593e-09
2.73579e-13
6.1477e-13
1.40512e-09
-3.58771e-13
-2.03861e-12
1.40527e-09
1.76293e-13
-5.85104e-14
1.40583e-09
8.69678e-13
-6.28322e-13
1.40517e-09
-1.52822e-13
7.88964e-13
1.40527e-09
1.53208e-14
-2.21777e-13
1.40533e-09
1.05256e-13
5.65882e-13
1.40549e-09
8.31199e-15
-4.80934e-13
1.40546e-09
-3.1828e-13
6.47971e-14
1.40515e-09
7.59639e-13
-6.69633e-13
1.40521e-09
-3.62255e-13
-5.2e-14
1.40532e-09
-3.68037e-13
7.08744e-14
1.40479e-09
1.61189e-12
-1.25236e-12
1.40494e-09
3.23042e-13
-7.14164e-13
1.40465e-09
2.973e-13
6.8229e-14
1.40519e-09
3.82803e-13
-8.9369e-13
1.40564e-09
-1.89892e-13
2.41289e-13
1.40439e-09
4.23417e-13
-2.97331e-13
1.40463e-09
3.88576e-13
-1.35093e-13
1.40467e-09
1.05949e-12
-3.98996e-12
-1.71219e-12
-5.56042e-14
8.84279e-11
3.42838e-10
3.77076e-09
-4.01105e-09
6.06507e-09
-3.55724e-09
7.15779e-10
1.69481e-08
1.41729e-09
2.00569e-08
-4.01144e-08
-3.87888e-10
-9.4805e-10
-2.54719e-11
-1.70055e-10
-1.06621e-09
-4.47902e-10
1.15424e-09
-7.73453e-11
4.3722e-10
-1.04446e-10
-1.20137e-09
1.00496e-09
1.28059e-11
2.88047e-10
-1.27394e-09
4.20127e-09
2.64223e-09
-2.64888e-09
-2.87487e-09
-1.04306e-09
-1.78113e-10
1.17537e-09
-5.227e-10
-6.73906e-11
9.00339e-11
2.4599e-10
2.54067e-10
-1.19488e-10
-2.18291e-11
1.6269e-11
9.30578e-11
3.19908e-11
1.25897e-09
-1.37396e-11
-2.10841e-10
-1.99305e-10
-3.4142e-10
-3.13767e-10
-1.7405e-11
-2.02526e-11
-3.21726e-11
-3.69822e-11
1.31351e-09
-1.43756e-12
1.35413e-09
5.45758e-13
1.37553e-09
2.31023e-13
1.38749e-09
3.05954e-13
1.39421e-09
-1.93591e-13
1.3997e-09
3.19446e-13
1.40257e-09
-3.26958e-14
1.40359e-09
-1.03932e-12
1.40409e-09
-1.1862e-14
1.40535e-09
4.19816e-13
1.40585e-09
-5.81516e-14
1.40603e-09
-8.12667e-14
1.40521e-09
1.71126e-13
1.40602e-09
2.61916e-13
1.40579e-09
7.41271e-14
1.40581e-09
3.02965e-14
1.4057e-09
2.69021e-13
1.40581e-09
1.02044e-12
1.40599e-09
-1.34358e-12
1.40577e-09
-1.73328e-14
1.40619e-09
1.46744e-12
1.40602e-09
-2.75401e-13
1.40549e-09
-2.40022e-12
1.40477e-09
-1.0469e-12
1.40505e-09
9.28683e-13
1.40549e-09
-4.93918e-13
1.40537e-09
2.9645e-13
1.40536e-09
5.92205e-14
1.40532e-09
-3.88886e-15
1.40515e-09
-7.32675e-14
1.4056e-09
7.10208e-13
1.40527e-09
1.30812e-13
1.40515e-09
-2.56302e-13
1.40544e-09
1.28834e-12
1.4051e-09
1.08721e-12
1.40517e-09
-1.5299e-14
1.40472e-09
8.89725e-13
1.40494e-09
-9.64493e-14
1.40541e-09
8.34691e-14
1.40594e-09
-2.03634e-13
1.40462e-09
2.55345e-12
1.23931e-13
5.08197e-10
-5.18949e-09
3.26859e-09
8.10432e-09
2.97658e-09
3.07446e-09
8.14599e-09
2.32832e-09
-1.53063e-08
9.53531e-09
-5.93388e-09
-1.7238e-08
2.32759e-09
2.39275e-08
-2.44763e-09
-1.32811e-11
-1.31391e-09
1.3967e-09
-4.8317e-10
-1.45816e-09
3.13143e-08
-3.09048e-09
2.80655e-09
-6.26206e-09
-2.40621e-08
-4.34045e-10
2.28319e-09
-2.80283e-09
-3.14242e-10
7.17384e-10
-8.13704e-11
-4.98758e-11
-4.65038e-11
3.95179e-11
9.64924e-11
2.26838e-09
-6.42011e-11
1.60979e-11
-5.07242e-10
-5.61709e-10
-5.07187e-10
-5.61731e-10
-7.59456e-11
-6.42017e-11
-7.59375e-11
2.26545e-09
-6.80034e-11
3.93593e-12
2.29849e-09
-6.5139e-11
-3.29292e-13
2.31473e-09
-3.55033e-11
-1.79712e-14
2.32767e-09
-2.21906e-11
-6.86051e-13
2.33658e-09
-1.34409e-11
-5.17261e-13
2.33968e-09
-8.74949e-12
3.1805e-13
2.3425e-09
-5.33995e-12
1.07999e-13
2.34407e-09
-3.95991e-12
6.00982e-13
2.34583e-09
-2.09355e-12
-5.2845e-14
2.34563e-09
-1.71774e-12
2.50062e-15
2.34572e-09
-1.11279e-12
-3.4173e-13
2.34622e-09
-6.09928e-13
-1.3351e-13
2.34711e-09
2.99539e-14
9.12763e-14
2.3469e-09
-8.45868e-13
3.18472e-13
2.34683e-09
4.83665e-13
-1.10282e-12
2.34671e-09
7.3546e-13
-3.52344e-13
2.34703e-09
8.98434e-13
-2.8055e-13
2.3469e-09
9.78283e-13
1.2611e-13
2.34732e-09
-5.98708e-13
7.3246e-13
2.34736e-09
-3.63165e-14
4.84686e-14
2.34639e-09
-7.6008e-13
-8.44228e-14
2.34642e-09
4.9426e-13
1.95897e-13
2.34545e-09
3.97151e-12
-5.40779e-13
2.34541e-09
4.07934e-12
-2.72297e-12
2.34513e-09
-5.15313e-14
-2.76703e-13
2.34729e-09
1.37477e-12
-1.04486e-12
2.34658e-09
3.81965e-13
-9.83013e-16
2.34618e-09
4.59902e-13
4.58898e-14
2.34526e-09
8.61941e-13
2.76207e-14
2.34516e-09
-1.67163e-12
8.09688e-13
2.34713e-09
-9.27857e-13
-1.49221e-12
2.34636e-09
6.86965e-13
-5.10283e-14
2.34607e-09
1.77752e-13
2.2423e-14
2.3461e-09
-8.19453e-14
-2.03127e-13
2.34761e-09
-8.54666e-13
8.85351e-13
2.34502e-09
4.02528e-12
-3.1612e-12
2.34551e-09
-5.706e-13
-9.12097e-14
2.34486e-09
1.63127e-13
-1.88335e-13
2.34659e-09
-1.77234e-12
-2.49756e-13
2.34617e-09
2.58737e-13
1.76956e-13
2.34505e-09
8.23073e-13
9.44838e-13
-5.81416e-13
-4.71191e-13
1.05078e-08
-6.53642e-09
-1.21166e-08
1.24858e-09
7.09205e-09
6.51445e-10
2.07197e-09
-4.31778e-10
1.90321e-09
-8.30619e-10
2.02817e-10
-3.42183e-09
2.35147e-09
-9.0239e-09
8.17593e-09
-1.71561e-09
2.23387e-09
8.77784e-09
5.00426e-09
-2.68617e-08
1.42046e-08
-1.47412e-09
-1.15927e-09
2.21876e-09
5.3816e-10
1.83244e-09
-2.29095e-08
-2.86315e-10
2.08462e-08
-2.51484e-09
3.03195e-09
-1.22173e-11
1.37211e-09
-2.90398e-09
-3.60398e-09
5.98641e-10
4.54941e-09
1.38809e-10
4.64985e-10
2.25606e-09
2.28274e-10
-5.64521e-10
-2.52361e-09
-9.77878e-11
-1.35155e-10
4.53624e-11
-3.55725e-11
6.07252e-11
1.62428e-10
-6.37451e-10
6.29296e-10
-5.06783e-11
-7.28684e-13
-4.63534e-12
2.34678e-09
-8.38288e-11
2.47615e-11
-5.88934e-10
-6.013e-10
-5.88935e-10
-6.01319e-10
2.33779e-09
-6.07527e-11
2.27162e-12
2.34084e-09
-3.77247e-11
-4.0132e-13
2.34255e-09
-2.40546e-11
7.40009e-14
2.34426e-09
-1.51441e-11
-2.4763e-14
2.34512e-09
-9.70633e-12
1.28411e-14
2.34571e-09
-5.99265e-12
-1.04424e-14
2.34638e-09
-3.46598e-12
-1.64507e-13
2.34658e-09
-2.08964e-12
8.0858e-14
2.34669e-09
-2.34058e-12
1.34849e-13
2.34718e-09
-1.69962e-12
3.5424e-13
2.34694e-09
-4.12212e-13
2.67629e-14
2.34696e-09
-4.56427e-13
1.98428e-13
2.34651e-09
7.90693e-14
-2.36361e-13
2.34707e-09
-2.9639e-12
1.97799e-12
2.34818e-09
1.06677e-12
-1.01043e-12
2.34734e-09
2.7628e-13
7.15474e-13
2.34637e-09
-2.05938e-13
7.98835e-13
2.34659e-09
5.06223e-14
-7.19863e-13
2.34699e-09
-2.78915e-13
-1.1591e-13
2.3464e-09
4.12737e-12
-1.94576e-12
2.34435e-09
2.42697e-12
7.88268e-14
2.34567e-09
-3.36742e-14
1.49859e-12
2.34627e-09
5.29377e-13
1.45958e-12
2.34792e-09
-2.5127e-12
2.63172e-12
2.34653e-09
1.06619e-12
1.76404e-12
2.34629e-09
4.00709e-13
6.45443e-14
2.34642e-09
1.19169e-13
-1.2098e-14
2.3469e-09
3.57125e-13
-6.07982e-14
2.3468e-09
-4.86132e-13
-7.43825e-13
2.34499e-09
-6.41062e-13
1.64219e-12
2.3452e-09
3.724e-13
-3.63067e-13
2.34519e-09
3.45192e-13
6.1914e-14
2.34472e-09
3.34548e-13
1.49321e-13
2.34501e-09
-9.27543e-13
-1.47956e-14
2.34707e-09
5.04859e-13
3.29138e-12
2.3463e-09
4.92314e-13
-1.59054e-13
2.34637e-09
2.44035e-13
-4.53737e-14
2.34558e-09
7.19119e-13
-7.36332e-13
2.34537e-09
6.22056e-13
-2.11628e-13
2.3458e-09
2.1146e-13
-8.05478e-13
-2.567e-13
2.03458e-13
-6.30909e-10
-1.78128e-09
-5.23267e-09
-4.19473e-09
2.87857e-09
-3.4493e-09
-1.15041e-09
-4.50045e-09
-2.53522e-09
4.13715e-09
1.72886e-09
3.47759e-09
1.44908e-09
2.43246e-08
-6.96898e-09
-1.15725e-08
-1.62238e-09
-3.36757e-09
-4.43856e-09
-1.99858e-09
-6.81512e-10
1.14235e-09
6.86593e-09
4.64425e-09
3.79854e-09
-1.57696e-08
-5.51863e-09
-6.21389e-09
-6.07807e-09
-5.51658e-09
-3.89048e-10
2.37162e-08
-7.02383e-09
-2.99268e-10
-3.7028e-10
6.64236e-10
8.83543e-11
6.94079e-09
-9.49522e-11
5.66855e-11
5.66912e-11
-1.22513e-10
-4.96349e-11
1.53724e-10
-1.62576e-10
6.40675e-10
-2.51038e-11
-3.2004e-13
-5.56248e-13
-1.55477e-10
-1.69194e-10
-1.61622e-10
3.41732e-11
2.39558e-09
-7.42884e-11
2.63079e-11
-6.10661e-10
-6.18e-10
-6.10665e-10
-6.1802e-10
2.37217e-09
-4.20067e-11
2.2892e-12
2.36334e-09
-2.79853e-11
-4.63109e-13
2.35717e-09
-1.78519e-11
-1.45409e-14
2.35394e-09
-1.14517e-11
-2.50514e-13
2.35134e-09
-7.18575e-12
7.72951e-15
2.34962e-09
-4.27908e-12
-3.01079e-14
2.34978e-09
-3.23744e-12
-2.28649e-13
2.34903e-09
-2.18061e-12
2.29836e-13
2.3482e-09
-1.279e-12
-1.87467e-13
2.34616e-09
-8.18925e-14
1.96694e-13
2.34688e-09
-1.15956e-12
-2.92856e-14
2.34746e-09
-4.92489e-13
-4.8102e-13
2.34806e-09
-6.175e-13
1.9447e-14
2.34717e-09
-1.06566e-12
6.83078e-13
2.34641e-09
-2.53955e-13
1.58342e-12
2.34572e-09
2.33197e-12
-1.45486e-12
2.34605e-09
-7.67166e-13
4.27822e-13
2.34566e-09
7.50363e-14
4.08924e-13
2.34496e-09
6.07324e-13
-1.30275e-13
2.3455e-09
-6.6175e-13
2.08396e-12
2.34861e-09
-4.50144e-12
1.75035e-12
2.34764e-09
1.15891e-12
-3.4326e-13
2.3488e-09
-2.74563e-12
9.43077e-13
2.34663e-09
2.11326e-13
-2.49103e-12
2.34564e-09
7.94692e-14
-7.85183e-13
2.3458e-09
-6.31299e-14
6.36965e-14
2.34614e-09
-2.01004e-13
-8.20057e-15
2.34626e-09
2.17552e-13
-3.53834e-14
2.34609e-09
-6.84734e-14
-2.56513e-14
2.34555e-09
-4.72084e-13
-3.1312e-14
2.3451e-09
-3.30475e-13
6.35607e-13
2.34479e-09
-1.07652e-13
8.24577e-13
2.34553e-09
-1.23502e-13
-5.68001e-13
2.34596e-09
1.36795e-12
-1.78272e-12
2.3469e-09
1.35257e-12
-7.87506e-13
2.34664e-09
7.20461e-13
3.06639e-14
2.34659e-09
6.56244e-13
-3.02992e-13
2.34528e-09
9.39177e-14
1.01501e-12
2.34494e-09
8.35425e-13
4.18823e-14
2.34493e-09
4.18408e-13
-9.65826e-14
-2.20556e-12
1.31997e-12
1.97181e-09
-4.9841e-09
6.56683e-10
1.11323e-09
4.08914e-10
-4.93174e-10
9.77141e-09
1.74523e-09
1.61397e-08
3.66591e-09
-1.49669e-09
-8.37584e-09
-7.1572e-10
-6.74814e-09
-4.17029e-09
-8.78159e-10
-1.94126e-10
9.44539e-09
2.63988e-09
-6.8427e-09
-1.38109e-08
4.03094e-10
4.77379e-09
6.38934e-09
5.6668e-09
-1.83823e-09
-8.48701e-10
-1.40764e-09
6.72406e-10
2.7559e-11
-7.67059e-11
-7.05376e-10
4.78263e-10
-6.75177e-10
9.51437e-10
-7.52177e-11
1.25272e-10
1.01809e-10
-4.89638e-11
-1.86259e-10
8.33591e-11
-1.33305e-10
-1.772e-11
6.42996e-12
-1.12782e-11
1.05681e-11
1.45305e-10
2.42612e-09
-1.97849e-11
3.39092e-11
-6.23445e-10
-6.50894e-10
-6.23465e-10
-6.50964e-10
2.39721e-09
-1.64674e-11
1.60622e-12
2.3797e-09
-1.00648e-11
-2.0493e-13
2.36732e-09
-6.10011e-12
2.94194e-13
2.35985e-09
-4.53864e-12
2.53314e-13
2.35527e-09
-2.6976e-12
1.50656e-14
2.35236e-09
-1.48806e-12
2.00531e-14
2.3499e-09
-9.00928e-13
1.65155e-14
2.34907e-09
-8.83236e-13
-2.75556e-13
2.34811e-09
-1.52239e-13
-1.1831e-13
2.34845e-09
-1.50048e-13
-1.45901e-13
2.3481e-09