/*--------------------------------*- C++ -*----------------------------------*\
| =========                 |                                                 |
| \\      /  F ield         | OpenFOAM: The Open Source CFD Toolbox           |
|  \\    /   O peration     | Version:  5.0                                   |
|   \\  /    A nd           | Web:      www.OpenFOAM.org                      |
|    \\/     M anipulation  |                                                 |
\*---------------------------------------------------------------------------*/
FoamFile
{
    version     2.0;
    format      ascii;
    class       volScalarField;
    location    "3.3";
    object      rAU;
}
// * * * * * * * * * * * * * * * * * * * * * * * * * * * * * * * * * * * * * //

dimensions      [-1 3 1 0 0 0 0];

internalField   nonuniform List<scalar> 
8458
(
9.56988e-07
8.73937e-07
2.55511e-07
3.87535e-07
7.67902e-07
6.73881e-07
3.54641e-08
3.92287e-07
3.93663e-07
3.94697e-07
3.95731e-07
3.96763e-07
3.97795e-07
3.98826e-07
3.99856e-07
4.00886e-07
4.01916e-07
4.02944e-07
4.03971e-07
4.04999e-07
4.06025e-07
4.0705e-07
4.08075e-07
4.09099e-07
4.10122e-07
4.11145e-07
4.12167e-07
4.13187e-07
4.14208e-07
4.15227e-07
4.16246e-07
4.17264e-07
4.18281e-07
4.19297e-07
4.20313e-07
4.21328e-07
4.22342e-07
4.23355e-07
4.24368e-07
4.25379e-07
4.2639e-07
4.274e-07
4.28409e-07
4.29418e-07
4.30425e-07
4.31431e-07
4.32438e-07
4.33442e-07
4.34446e-07
4.36222e-07
9.61802e-07
8.73365e-07
8.92603e-07
1.81034e-07
2.00944e-07
6.91057e-07
4.18354e-08
1.29776e-07
3.93453e-07
3.94696e-07
3.9573e-07
3.96763e-07
3.97794e-07
3.98826e-07
3.99856e-07
4.00886e-07
4.01916e-07
4.02944e-07
4.03971e-07
4.04999e-07
4.06025e-07
4.0705e-07
4.08075e-07
4.09099e-07
4.10122e-07
4.11145e-07
4.12167e-07
4.13187e-07
4.14208e-07
4.15227e-07
4.16246e-07
4.17264e-07
4.18281e-07
4.19297e-07
4.20313e-07
4.21328e-07
4.22342e-07
4.23355e-07
4.24368e-07
4.25379e-07
4.2639e-07
4.274e-07
4.28409e-07
4.29418e-07
4.30425e-07
4.31431e-07
4.32437e-07
4.33442e-07
4.34446e-07
4.36222e-07
9.6435e-07
9.67343e-07
8.86832e-07
2.2539e-07
3.7785e-07
6.84617e-07
5.25142e-07
1.2972e-07
3.93453e-07
3.94696e-07
3.9573e-07
3.96763e-07
3.97794e-07
3.98826e-07
3.99856e-07
4.00886e-07
4.01915e-07
4.02944e-07
4.03971e-07
4.04999e-07
4.06025e-07
4.0705e-07
4.08075e-07
4.09099e-07
4.10122e-07
4.11145e-07
4.12167e-07
4.13187e-07
4.14208e-07
4.15227e-07
4.16246e-07
4.17264e-07
4.18281e-07
4.19297e-07
4.20313e-07
4.21328e-07
4.22342e-07
4.23355e-07
4.24368e-07
4.25379e-07
4.2639e-07
4.274e-07
4.28409e-07
4.29418e-07
4.30425e-07
4.31431e-07
4.32438e-07
4.33442e-07
4.34446e-07
4.36222e-07
9.70883e-07
9.6314e-07
9.60826e-07
8.88395e-07
8.73411e-07
6.86037e-07
7.01498e-07
3.52168e-08
3.93452e-07
3.94696e-07
3.9573e-07
3.96763e-07
3.97794e-07
3.98826e-07
3.99856e-07
4.00886e-07
4.01916e-07
4.02944e-07
4.03971e-07
4.04999e-07
4.06025e-07
4.0705e-07
4.08075e-07
4.09099e-07
4.10122e-07
4.11145e-07
4.12167e-07
4.13187e-07
4.14208e-07
4.15227e-07
4.16246e-07
4.17264e-07
4.18281e-07
4.19297e-07
4.20313e-07
4.21328e-07
4.22342e-07
4.23355e-07
4.24368e-07
4.25379e-07
4.2639e-07
4.274e-07
4.28409e-07
4.29418e-07
4.30425e-07
4.31431e-07
4.32438e-07
4.33442e-07
4.34446e-07
4.36222e-07
9.66619e-07
9.31892e-07
7.5857e-07
8.94996e-07
8.3695e-07
6.80289e-07
9.0259e-07
3.53352e-08
3.93453e-07
3.94696e-07
3.9573e-07
3.96763e-07
3.97794e-07
3.98826e-07
3.99856e-07
4.00886e-07
4.01916e-07
4.02944e-07
4.03971e-07
4.04999e-07
4.06025e-07
4.0705e-07
4.08075e-07
4.09099e-07
4.10122e-07
4.11145e-07
4.12167e-07
4.13187e-07
4.14208e-07
4.15227e-07
4.16246e-07
4.17264e-07
4.18281e-07
4.19297e-07
4.20313e-07
4.21328e-07
4.22342e-07
4.23355e-07
4.24368e-07
4.25379e-07
4.2639e-07
4.274e-07
4.28409e-07
4.29418e-07
4.30425e-07
4.31431e-07
4.32437e-07
4.33442e-07
4.34446e-07
4.36222e-07
9.66888e-07
8.00804e-07
9.10647e-07
8.76633e-07
6.42275e-07
6.59419e-07
9.03271e-07
3.60667e-08
3.93452e-07
3.94696e-07
3.9573e-07
3.96763e-07
3.97794e-07
3.98826e-07
3.99856e-07
4.00886e-07
4.01915e-07
4.02944e-07
4.03971e-07
4.04999e-07
4.06025e-07
4.0705e-07
4.08075e-07
4.09099e-07
4.10122e-07
4.11145e-07
4.12167e-07
4.13187e-07
4.14208e-07
4.15227e-07
4.16246e-07
4.17264e-07
4.18281e-07
4.19297e-07
4.20313e-07
4.21328e-07
4.22342e-07
4.23355e-07
4.24368e-07
4.25379e-07
4.2639e-07
4.274e-07
4.28409e-07
4.29418e-07
4.30425e-07
4.31431e-07
4.32438e-07
4.33442e-07
4.34446e-07
4.36222e-07
8.88981e-07
5.97301e-07
8.93777e-07
8.64364e-07
6.09404e-07
6.68333e-07
7.00954e-07
3.52166e-08
3.93453e-07
3.94696e-07
3.9573e-07
3.96763e-07
3.97794e-07
3.98826e-07
3.99856e-07
4.00886e-07
4.01915e-07
4.02944e-07
4.03971e-07
4.04999e-07
4.06025e-07
4.0705e-07
4.08075e-07
4.09099e-07
4.10122e-07
4.11145e-07
4.12167e-07
4.13187e-07
4.14208e-07
4.15227e-07
4.16246e-07
4.17264e-07
4.18281e-07
4.19297e-07
4.20313e-07
4.21328e-07
4.22342e-07
4.23355e-07
4.24368e-07
4.25379e-07
4.2639e-07
4.274e-07
4.28409e-07
4.29418e-07
4.30425e-07
4.31431e-07
4.32438e-07
4.33442e-07
4.34446e-07
4.36222e-07
9.57399e-07
8.76368e-07
5.03645e-07
8.74527e-07
8.01786e-07
6.67935e-07
6.9937e-07
1.29689e-07
3.93453e-07
3.94696e-07
3.9573e-07
3.96763e-07
3.97794e-07
3.98826e-07
3.99856e-07
4.00886e-07
4.01916e-07
4.02944e-07
4.03971e-07
4.04999e-07
4.06025e-07
4.0705e-07
4.08075e-07
4.09099e-07
4.10122e-07
4.11145e-07
4.12167e-07
4.13187e-07
4.14208e-07
4.15227e-07
4.16246e-07
4.17264e-07
4.18281e-07
4.19297e-07
4.20313e-07
4.21328e-07
4.22342e-07
4.23355e-07
4.24368e-07
4.25379e-07
4.2639e-07
4.274e-07
4.28409e-07
4.29418e-07
4.30425e-07
4.31431e-07
4.32438e-07
4.33442e-07
4.34446e-07
4.36222e-07
8.73821e-07
8.89734e-07
6.90619e-07
1.97944e-07
5.67257e-07
6.89397e-07
2.97079e-07
1.29503e-07
3.93455e-07
3.94697e-07
3.95731e-07
3.96763e-07
3.97795e-07
3.98826e-07
3.99856e-07
4.00886e-07
4.01916e-07
4.02944e-07
4.03971e-07
4.04999e-07
4.06025e-07
4.0705e-07
4.08075e-07
4.09099e-07
4.10122e-07
4.11145e-07
4.12167e-07
4.13187e-07
4.14208e-07
4.15227e-07
4.16246e-07
4.17264e-07
4.18281e-07
4.19297e-07
4.20313e-07
4.21328e-07
4.22342e-07
4.23355e-07
4.24368e-07
4.25379e-07
4.2639e-07
4.274e-07
4.28409e-07
4.29418e-07
4.30425e-07
4.31431e-07
4.32438e-07
4.33442e-07
4.34446e-07
4.36222e-07
8.80765e-07
7.64011e-07
4.49234e-07
6.05564e-07
8.9613e-07
6.92443e-07
4.27274e-08
3.92289e-07
3.93664e-07
3.94697e-07
3.95731e-07
3.96763e-07
3.97795e-07
3.98826e-07
3.99856e-07
4.00886e-07
4.01916e-07
4.02944e-07
4.03971e-07
4.04999e-07
4.06025e-07
4.0705e-07
4.08075e-07
4.09099e-07
4.10122e-07
4.11145e-07
4.12167e-07
4.13187e-07
4.14208e-07
4.15227e-07
4.16246e-07
4.17264e-07
4.18281e-07
4.19297e-07
4.20313e-07
4.21328e-07
4.22342e-07
4.23355e-07
4.24368e-07
4.25379e-07
4.2639e-07
4.274e-07
4.28409e-07
4.29418e-07
4.30425e-07
4.31431e-07
4.32438e-07
4.33442e-07
4.34446e-07
4.36222e-07
9.72601e-07
9.08797e-07
6.97509e-07
4.18783e-07
7.20923e-07
7.37009e-07
5.26102e-08
5.04676e-07
5.06386e-07
5.07527e-07
5.08665e-07
5.09802e-07
5.10938e-07
5.12071e-07
5.13204e-07
5.14335e-07
5.15463e-07
5.16591e-07
5.17717e-07
5.1884e-07
5.19963e-07
5.21084e-07
5.22203e-07
5.23321e-07
5.24437e-07
5.25551e-07
5.26664e-07
5.27775e-07
5.28884e-07
5.29992e-07
5.31099e-07
5.32202e-07
5.33306e-07
5.34407e-07
5.35506e-07
5.36604e-07
5.37701e-07
5.38795e-07
5.39888e-07
5.4098e-07
5.42069e-07
5.43157e-07
5.44243e-07
5.45327e-07
5.4641e-07
5.47492e-07
5.48571e-07
5.49649e-07
5.50725e-07
5.5304e-07
9.58284e-07
9.59331e-07
8.96949e-07
4.30522e-07
2.46835e-07
6.88066e-07
6.19486e-08
1.84248e-07
5.06037e-07
5.07526e-07
5.08664e-07
5.09802e-07
5.10938e-07
5.12071e-07
5.13204e-07
5.14335e-07
5.15463e-07
5.16591e-07
5.17717e-07
5.1884e-07
5.19963e-07
5.21084e-07
5.22203e-07
5.23321e-07
5.24437e-07
5.25551e-07
5.26664e-07
5.27775e-07
5.28884e-07
5.29992e-07
5.31099e-07
5.32203e-07
5.33306e-07
5.34407e-07
5.35506e-07
5.36604e-07
5.37701e-07
5.38795e-07
5.39888e-07
5.4098e-07
5.42069e-07
5.43157e-07
5.44243e-07
5.45327e-07
5.4641e-07
5.47492e-07
5.48571e-07
5.49649e-07
5.50725e-07
5.5304e-07
9.66622e-07
9.6853e-07
8.38368e-07
6.20812e-07
8.28352e-08
7.39343e-07
5.98311e-07
1.83947e-07
5.06036e-07
5.07525e-07
5.08664e-07
5.09802e-07
5.10938e-07
5.12071e-07
5.13204e-07
5.14335e-07
5.15463e-07
5.16591e-07
5.17717e-07
5.1884e-07
5.19963e-07
5.21084e-07
5.22203e-07
5.23321e-07
5.24437e-07
5.25551e-07
5.26664e-07
5.27775e-07
5.28884e-07
5.29992e-07
5.31099e-07
5.32202e-07
5.33306e-07
5.34407e-07
5.35506e-07
5.36604e-07
5.37701e-07
5.38795e-07
5.39888e-07
5.4098e-07
5.42069e-07
5.43157e-07
5.44243e-07
5.45327e-07
5.4641e-07
5.47492e-07
5.48571e-07
5.49649e-07
5.50725e-07
5.5304e-07
9.59768e-07
9.26745e-07
7.81094e-07
9.08189e-07
9.13093e-07
6.1764e-07
7.76752e-07
5.20152e-08
5.06035e-07
5.07525e-07
5.08664e-07
5.09802e-07
5.10938e-07
5.12071e-07
5.13204e-07
5.14335e-07
5.15463e-07
5.16591e-07
5.17717e-07
5.1884e-07
5.19963e-07
5.21084e-07
5.22203e-07
5.23321e-07
5.24437e-07
5.25551e-07
5.26664e-07
5.27775e-07
5.28884e-07
5.29992e-07
5.31099e-07
5.32203e-07
5.33306e-07
5.34407e-07
5.35506e-07
5.36604e-07
5.37701e-07
5.38795e-07
5.39888e-07
5.4098e-07
5.42069e-07
5.43157e-07
5.44243e-07
5.45327e-07
5.4641e-07
5.47492e-07
5.48571e-07
5.49649e-07
5.50725e-07
5.5304e-07
9.73917e-07
8.94626e-07
5.81517e-07
7.52341e-07
3.08196e-07
6.89905e-07
9.31279e-07
5.2485e-08
5.06036e-07
5.07525e-07
5.08664e-07
5.09802e-07
5.10938e-07
5.12071e-07
5.13204e-07
5.14335e-07
5.15463e-07
5.16591e-07
5.17717e-07
5.1884e-07
5.19963e-07
5.21084e-07
5.22203e-07
5.23321e-07
5.24437e-07
5.25551e-07
5.26664e-07
5.27775e-07
5.28884e-07
5.29992e-07
5.31099e-07
5.32203e-07
5.33306e-07
5.34407e-07
5.35506e-07
5.36604e-07
5.37701e-07
5.38795e-07
5.39888e-07
5.4098e-07
5.42069e-07
5.43157e-07
5.44243e-07
5.45327e-07
5.4641e-07
5.47492e-07
5.48571e-07
5.49649e-07
5.50725e-07
5.5304e-07
9.6317e-07
8.94666e-07
8.40598e-07
8.19599e-07
6.46241e-07
6.96504e-07
9.30945e-07
5.38935e-08
5.06035e-07
5.07525e-07
5.08664e-07
5.09802e-07
5.10938e-07
5.12071e-07
5.13204e-07
5.14335e-07
5.15463e-07
5.16591e-07
5.17717e-07
5.1884e-07
5.19963e-07
5.21084e-07
5.22203e-07
5.23321e-07
5.24437e-07
5.25551e-07
5.26664e-07
5.27775e-07
5.28884e-07
5.29992e-07
5.31099e-07
5.32203e-07
5.33306e-07
5.34407e-07
5.35506e-07
5.36604e-07
5.37701e-07
5.38795e-07
5.39888e-07
5.4098e-07
5.42068e-07
5.43157e-07
5.44243e-07
5.45327e-07
5.4641e-07
5.47492e-07
5.48571e-07
5.49649e-07
5.50725e-07
5.5304e-07
9.06633e-07
6.12529e-07
8.01461e-07
8.39177e-07
6.39781e-07
7.20572e-07
7.73258e-07
5.20055e-08
5.06035e-07
5.07525e-07
5.08664e-07
5.09802e-07
5.10938e-07
5.12071e-07
5.13204e-07
5.14335e-07
5.15463e-07
5.16591e-07
5.17717e-07
5.1884e-07
5.19963e-07
5.21084e-07
5.22203e-07
5.23321e-07
5.24437e-07
5.25551e-07
5.26664e-07
5.27775e-07
5.28884e-07
5.29992e-07
5.31099e-07
5.32203e-07
5.33306e-07
5.34407e-07
5.35506e-07
5.36604e-07
5.37701e-07
5.38795e-07
5.39888e-07
5.4098e-07
5.42069e-07
5.43157e-07
5.44243e-07
5.45327e-07
5.4641e-07
5.47492e-07
5.48571e-07
5.49649e-07
5.50725e-07
5.5304e-07
9.66335e-07
8.97415e-07
5.54616e-07
8.96537e-07
7.33581e-07
7.29023e-07
7.74766e-07
1.83829e-07
5.06036e-07
5.07526e-07
5.08664e-07
5.09802e-07
5.10938e-07
5.12071e-07
5.13204e-07
5.14335e-07
5.15463e-07
5.16591e-07
5.17717e-07
5.1884e-07
5.19963e-07
5.21084e-07
5.22203e-07
5.23321e-07
5.24437e-07
5.25551e-07
5.26664e-07
5.27775e-07
5.28884e-07
5.29992e-07
5.31099e-07
5.32203e-07
5.33306e-07
5.34407e-07
5.35506e-07
5.36604e-07
5.37701e-07
5.38795e-07
5.39888e-07
5.4098e-07
5.42069e-07
5.43157e-07
5.44243e-07
5.45327e-07
5.4641e-07
5.47492e-07
5.48571e-07
5.49649e-07
5.50725e-07
5.5304e-07
8.20705e-07
8.99474e-07
6.7726e-07
4.21322e-07
5.75972e-07
6.81961e-07
3.81788e-07
1.83948e-07
5.06041e-07
5.07528e-07
5.08666e-07
5.09803e-07
5.10938e-07
5.12071e-07
5.13204e-07
5.14335e-07
5.15463e-07
5.16591e-07
5.17717e-07
5.1884e-07
5.19963e-07
5.21084e-07
5.22203e-07
5.23321e-07
5.24437e-07
5.25551e-07
5.26664e-07
5.27775e-07
5.28884e-07
5.29992e-07
5.31099e-07
5.32203e-07
5.33306e-07
5.34407e-07
5.35506e-07
5.36604e-07
5.37701e-07
5.38795e-07
5.39888e-07
5.4098e-07
5.42069e-07
5.43157e-07
5.44243e-07
5.45327e-07
5.4641e-07
5.47492e-07
5.48571e-07
5.49649e-07
5.50725e-07
5.5304e-07
9.14823e-07
4.27989e-07
4.49159e-07
2.33712e-07
8.8737e-07
7.3748e-07
6.34092e-08
5.04681e-07
5.06389e-07
5.07529e-07
5.08666e-07
5.09803e-07
5.10938e-07
5.12071e-07
5.13204e-07
5.14335e-07
5.15463e-07
5.16591e-07
5.17717e-07
5.1884e-07
5.19963e-07
5.21084e-07
5.22203e-07
5.23321e-07
5.24437e-07
5.25551e-07
5.26664e-07
5.27775e-07
5.28884e-07
5.29992e-07
5.31099e-07
5.32203e-07
5.33306e-07
5.34407e-07
5.35506e-07
5.36604e-07
5.37701e-07
5.38795e-07
5.39888e-07
5.4098e-07
5.42069e-07
5.43157e-07
5.44243e-07
5.45327e-07
5.4641e-07
5.47492e-07
5.48571e-07
5.49649e-07
5.50725e-07
5.5304e-07
9.56791e-07
8.90191e-07
6.16349e-07
6.57859e-07
3.03852e-07
7.09026e-07
5.25071e-08
3.92287e-07
3.93663e-07
3.94697e-07
3.95731e-07
3.96763e-07
3.97795e-07
3.98826e-07
3.99856e-07
4.00886e-07
4.01915e-07
4.02944e-07
4.03971e-07
4.04999e-07
4.06025e-07
4.0705e-07
4.08075e-07
4.09099e-07
4.10122e-07
4.11145e-07
4.12166e-07
4.13187e-07
4.14208e-07
4.15227e-07
4.16246e-07
4.17264e-07
4.18281e-07
4.19297e-07
4.20313e-07
4.21328e-07
4.22342e-07
4.23355e-07
4.24368e-07
4.25379e-07
4.2639e-07
4.274e-07
4.28409e-07
4.29418e-07
4.30425e-07
4.31431e-07
4.32437e-07
4.33442e-07
4.34446e-07
4.36222e-07
9.57804e-07
9.45066e-07
9.02411e-07
8.34804e-07
7.43272e-07
6.82675e-07
6.19705e-08
1.84253e-07
3.93453e-07
3.94696e-07
3.9573e-07
3.96763e-07
3.97794e-07
3.98826e-07
3.99856e-07
4.00886e-07
4.01915e-07
4.02944e-07
4.03971e-07
4.04999e-07
4.06025e-07
4.0705e-07
4.08075e-07
4.09099e-07
4.10122e-07
4.11145e-07
4.12166e-07
4.13187e-07
4.14208e-07
4.15227e-07
4.16246e-07
4.17264e-07
4.18281e-07
4.19297e-07
4.20313e-07
4.21328e-07
4.22342e-07
4.23355e-07
4.24368e-07
4.25379e-07
4.2639e-07
4.274e-07
4.28409e-07
4.29418e-07
4.30425e-07
4.31431e-07
4.32437e-07
4.33442e-07
4.34446e-07
4.36222e-07
9.64406e-07
9.48378e-07
9.45995e-07
7.36139e-07
6.23992e-07
7.65179e-07
6.01674e-07
1.83952e-07
3.93453e-07
3.94696e-07
3.9573e-07
3.96763e-07
3.97794e-07
3.98826e-07
3.99856e-07
4.00886e-07
4.01915e-07
4.02944e-07
4.03971e-07
4.04999e-07
4.06025e-07
4.0705e-07
4.08075e-07
4.09099e-07
4.10122e-07
4.11145e-07
4.12167e-07
4.13187e-07
4.14208e-07
4.15227e-07
4.16246e-07
4.17264e-07
4.18281e-07
4.19297e-07
4.20313e-07
4.21328e-07
4.22342e-07
4.23355e-07
4.24368e-07
4.25379e-07
4.2639e-07
4.274e-07
4.28409e-07
4.29418e-07
4.30425e-07
4.31431e-07
4.32437e-07
4.33442e-07
4.34446e-07
4.36222e-07
9.66976e-07
9.16697e-07
9.15257e-07
9.22388e-07
5.30818e-07
6.76288e-07
7.77506e-07
5.20154e-08
3.93452e-07
3.94696e-07
3.9573e-07
3.96762e-07
3.97794e-07
3.98826e-07
3.99856e-07
4.00886e-07
4.01915e-07
4.02944e-07
4.03971e-07
4.04998e-07
4.06025e-07
4.0705e-07
4.08075e-07
4.09099e-07
4.10122e-07
4.11145e-07
4.12167e-07
4.13187e-07
4.14208e-07
4.15227e-07
4.16246e-07
4.17264e-07
4.18281e-07
4.19297e-07
4.20313e-07
4.21328e-07
4.22342e-07
4.23355e-07
4.24368e-07
4.25379e-07
4.2639e-07
4.274e-07
4.28409e-07
4.29418e-07
4.30425e-07
4.31431e-07
4.32437e-07
4.33442e-07
4.34446e-07
4.36222e-07
9.62798e-07
8.85119e-07
5.41845e-07
4.84288e-07
4.67809e-07
6.80637e-07
9.31702e-07
5.24439e-08
3.93453e-07
3.94696e-07
3.9573e-07
3.96762e-07
3.97794e-07
3.98826e-07
3.99856e-07
4.00886e-07
4.01915e-07
4.02944e-07
4.03971e-07
4.04998e-07
4.06025e-07
4.0705e-07
4.08075e-07
4.09099e-07
4.10122e-07
4.11145e-07
4.12166e-07
4.13187e-07
4.14208e-07
4.15227e-07
4.16246e-07
4.17264e-07
4.18281e-07
4.19297e-07
4.20313e-07
4.21328e-07
4.22342e-07
4.23355e-07
4.24368e-07
4.25379e-07
4.2639e-07
4.274e-07
4.28409e-07
4.29418e-07
4.30425e-07
4.31431e-07
4.32437e-07
4.33442e-07
4.34446e-07
4.36222e-07
9.64671e-07
8.6511e-07
8.82058e-07
8.56481e-07
5.52906e-07
6.77467e-07
9.31256e-07
5.38375e-08
3.93452e-07
3.94696e-07
3.9573e-07
3.96762e-07
3.97794e-07
3.98826e-07
3.99856e-07
4.00886e-07
4.01915e-07
4.02944e-07
4.03971e-07
4.04998e-07
4.06025e-07
4.0705e-07
4.08075e-07
4.09099e-07
4.10122e-07
4.11145e-07
4.12166e-07
4.13187e-07
4.14208e-07
4.15227e-07
4.16246e-07
4.17264e-07
4.18281e-07
4.19297e-07
4.20313e-07
4.21328e-07
4.22342e-07
4.23355e-07
4.24368e-07
4.25379e-07
4.2639e-07
4.274e-07
4.28409e-07
4.29418e-07
4.30425e-07
4.31431e-07
4.32437e-07
4.33442e-07
4.34446e-07
4.36222e-07
9.38697e-07
9.52788e-07
9.068e-07
8.26241e-07
6.27733e-07
7.13008e-07
7.74042e-07
5.20052e-08
3.93452e-07
3.94696e-07
3.9573e-07
3.96763e-07
3.97794e-07
3.98826e-07
3.99856e-07
4.00886e-07
4.01915e-07
4.02944e-07
4.03971e-07
4.04998e-07
4.06025e-07
4.0705e-07
4.08075e-07
4.09099e-07
4.10122e-07
4.11145e-07
4.12167e-07
4.13187e-07
4.14208e-07
4.15227e-07
4.16246e-07
4.17264e-07
4.18281e-07
4.19297e-07
4.20313e-07
4.21328e-07
4.22342e-07
4.23355e-07
4.24368e-07
4.25379e-07
4.2639e-07
4.274e-07
4.28409e-07
4.29418e-07
4.30425e-07
4.31431e-07
4.32437e-07
4.33442e-07
4.34446e-07
4.36222e-07
9.67818e-07
9.13384e-07
5.31016e-07
8.90213e-07
8.74705e-07
7.30837e-07
7.75481e-07
1.83951e-07
3.93453e-07
3.94696e-07
3.9573e-07
3.96763e-07
3.97794e-07
3.98826e-07
3.99856e-07
4.00886e-07
4.01915e-07
4.02944e-07
4.03971e-07
4.04998e-07
4.06025e-07
4.0705e-07
4.08075e-07
4.09099e-07
4.10122e-07
4.11145e-07
4.12167e-07
4.13187e-07
4.14208e-07
4.15227e-07
4.16246e-07
4.17264e-07
4.18281e-07
4.19297e-07
4.20313e-07
4.21328e-07
4.22342e-07
4.23355e-07
4.24368e-07
4.25379e-07
4.2639e-07
4.274e-07
4.28409e-07
4.29418e-07
4.30425e-07
4.31431e-07
4.32437e-07
4.33442e-07
4.34446e-07
4.36222e-07
9.34689e-07
8.51084e-07
7.71025e-07
8.77162e-07
8.84295e-07
7.17805e-07
3.81227e-07
1.83953e-07
3.93454e-07
3.94697e-07
3.95731e-07
3.96763e-07
3.97795e-07
3.98826e-07
3.99856e-07
4.00886e-07
4.01915e-07
4.02944e-07
4.03971e-07
4.04998e-07
4.06025e-07
4.0705e-07
4.08075e-07
4.09099e-07
4.10122e-07
4.11145e-07
4.12166e-07
4.13187e-07
4.14208e-07
4.15227e-07
4.16246e-07
4.17264e-07
4.18281e-07
4.19297e-07
4.20313e-07
4.21328e-07
4.22342e-07
4.23355e-07
4.24368e-07
4.25379e-07
4.2639e-07
4.274e-07
4.28409e-07
4.29418e-07
4.30425e-07
4.31431e-07
4.32437e-07
4.33442e-07
4.34446e-07
4.36222e-07
9.45111e-07
9.14183e-07
9.14139e-07
8.63689e-07
5.63892e-07
7.50812e-07
6.33722e-08
3.92288e-07
3.93664e-07
3.94697e-07
3.95731e-07
3.96763e-07
3.97795e-07
3.98826e-07
3.99856e-07
4.00886e-07
4.01916e-07
4.02944e-07
4.03971e-07
4.04999e-07
4.06025e-07
4.0705e-07
4.08075e-07
4.09099e-07
4.10122e-07
4.11145e-07
4.12166e-07
4.13187e-07
4.14208e-07
4.15227e-07
4.16246e-07
4.17264e-07
4.18281e-07
4.19297e-07
4.20313e-07
4.21328e-07
4.22342e-07
4.23355e-07
4.24368e-07
4.25379e-07
4.2639e-07
4.274e-07
4.28409e-07
4.29418e-07
4.30425e-07
4.31431e-07
4.32437e-07
4.33442e-07
4.34446e-07
4.36222e-07
8.80652e-08
6.68756e-07
1.13551e-07
7.35963e-07
1.26401e-07
7.54246e-07
1.61364e-07
2.35987e-07
6.79882e-07
6.97578e-07
7.22213e-07
3.17928e-07
7.36459e-07
7.71942e-07
7.00494e-07
6.95286e-07
7.00889e-07
7.403e-07
7.75585e-07
7.48105e-07
7.77003e-07
6.9989e-07
5.56292e-07
7.01086e-07
6.93183e-07
7.76838e-07
5.71023e-07
7.74313e-07
6.97623e-07
6.72473e-07
6.99548e-07
6.95226e-07
7.72982e-07
7.6428e-07
7.76145e-07
6.9965e-07
6.70289e-07
6.99597e-07
7.26779e-07
7.74782e-07
7.27092e-07
7.73187e-07
6.99249e-07
6.87264e-07
7.01211e-07
7.43546e-07
7.74059e-07
6.85888e-07
7.73826e-07
7.00988e-07
6.60235e-07
7.00191e-07
7.03311e-07
7.74067e-07
6.11174e-07
7.74441e-07
6.99191e-07
6.70777e-07
4.39122e-07
6.99092e-07
7.71976e-07
6.99846e-07
5.17522e-07
2.46916e-07
6.40853e-07
8.52248e-08
7.55792e-07
3.24524e-07
6.26997e-07
1.22216e-07
1.26426e-07
7.40938e-07
1.61878e-07
7.11247e-07
1.2642e-07
7.26865e-07
1.63993e-07
3.18341e-07
6.95515e-07
7.71811e-07
6.48819e-07
3.1652e-07
6.40974e-07
7.71986e-07
7.75253e-07
7.34999e-07
7.76832e-07
7.55357e-07
7.74142e-07
6.77954e-07
7.76754e-07
7.76251e-07
5.66657e-07
7.73404e-07
6.45019e-07
7.76482e-07
5.69249e-07
7.75459e-07
7.73319e-07
7.66592e-07
7.74403e-07
6.70854e-07
7.72187e-07
7.45322e-07
7.75787e-07
7.7434e-07
7.27514e-07
7.72906e-07
6.99861e-07
7.73288e-07
7.25507e-07
7.74149e-07
7.73349e-07
6.88194e-07
7.7297e-07
6.98665e-07
7.71934e-07
6.65923e-07
7.7409e-07
7.74074e-07
6.15923e-07
7.73035e-07
7.11428e-07
7.73666e-07
6.36299e-07
7.72956e-07
7.71374e-07
6.94759e-07
5.13401e-07
6.82513e-07
7.71377e-07
7.24862e-07
5.15156e-07
3.23793e-07
6.2838e-07
1.22161e-07
7.4681e-07
3.23445e-07
6.51667e-07
1.22179e-07
1.26416e-07
7.20018e-07
1.64049e-07
6.88833e-07
8.82032e-08
6.63632e-07
1.14996e-07
3.15364e-07
6.66414e-07
7.72137e-07
6.69176e-07
2.32568e-07
6.73786e-07
6.97575e-07
7.74482e-07
7.0381e-07
7.76495e-07
6.75423e-07
7.00639e-07
6.81678e-07
7.00963e-07
7.75324e-07
5.42972e-07
7.73956e-07
6.55704e-07
6.99163e-07
4.91485e-07
7.0084e-07
7.71322e-07
7.3729e-07
7.74396e-07
6.7663e-07
6.98637e-07
6.7805e-07
6.99408e-07
7.74019e-07
7.25346e-07
7.73259e-07
6.62879e-07
6.99904e-07
6.87525e-07
7.00242e-07
7.71984e-07
6.78154e-07
7.74387e-07
6.75197e-07
6.99935e-07
6.82379e-07
6.9966e-07
7.74085e-07
6.53695e-07
7.73483e-07
6.82863e-07
7.01165e-07
6.63378e-07
6.99845e-07
7.72037e-07
7.1378e-07
5.17853e-07
6.24613e-07
6.99242e-07
6.72269e-07
4.3263e-07
3.23392e-07
6.66619e-07
1.22212e-07
6.86162e-07
2.45891e-07
6.63857e-07
8.51816e-08
8.82084e-07
5.38249e-07
7.73055e-07
4.83108e-07
7.9112e-07
1.14267e-07
7.10994e-07
6.6934e-07
6.28702e-07
6.68473e-07
7.45156e-07
6.97896e-07
5.79345e-07
7.24855e-07
1.29566e-07
3.68077e-08
1.29566e-07
5.24242e-08
1.83832e-07
5.48348e-08
1.83831e-07
8.63568e-07
6.67687e-07
8.70086e-07
3.10995e-07
6.77927e-07
3.52397e-07
7.81141e-07
7.43425e-07
6.90293e-07
6.73553e-07
7.54138e-07
7.51627e-07
7.24537e-07
6.86253e-07
1.29418e-07
1.47943e-07
3.51617e-08
6.18871e-08
1.83531e-07
2.07007e-07
5.19788e-08
8.95613e-07
6.51537e-07
8.4179e-07
1.08432e-07
7.88643e-07
2.94754e-07
7.44079e-07
7.74294e-07
6.97003e-07
6.24211e-07
7.54464e-07
7.74225e-07
6.42571e-07
6.9733e-07
3.52761e-08
6.99199e-07
3.52929e-08
6.01522e-07
5.19788e-08
7.77719e-07
5.2024e-08
8.67733e-07
8.56395e-07
8.64434e-07
8.56214e-07
8.67885e-07
8.25683e-07
8.4619e-07
5.84047e-07
6.61918e-07
4.60417e-07
7.44296e-07
7.37658e-07
5.36927e-07
4.75641e-07
3.64358e-08
6.99686e-07
5.60381e-08
7.7692e-07
5.39996e-08
7.72863e-07
8.19154e-08
8.75979e-07
5.62754e-07
3.2193e-07
6.99054e-07
6.50129e-07
4.21371e-07
3.51319e-07
7.57063e-07
6.96389e-07
6.48296e-07
7.28537e-07
7.66995e-07
6.75539e-07
6.91048e-07
7.32823e-08
9.03035e-07
9.84327e-08
9.31856e-07
1.06081e-07
9.32195e-07
1.40459e-07
4.20287e-07
8.83113e-07
8.77456e-07
5.31484e-07
4.06458e-07
9.13143e-07
9.17835e-07
7.17628e-07
6.96696e-07
3.94223e-07
7.21478e-07
7.68745e-07
4.3928e-07
6.43522e-07
1.00983e-07
9.02567e-07
7.05106e-08
9.31881e-07
1.43827e-07
9.30791e-07
1.02193e-07
8.11243e-07
3.80285e-07
7.20348e-07
4.55449e-07
6.34964e-07
4.05708e-07
5.76014e-07
7.49281e-07
6.93085e-07
6.6701e-07
7.35876e-07
7.6306e-07
6.9701e-07
6.83077e-07
5.27345e-08
7.01351e-07
3.64086e-08
7.7046e-07
7.83286e-08
7.74675e-07
5.39678e-08
6.98596e-07
8.46465e-07
7.17758e-07
5.03523e-07
5.0628e-07
8.90493e-07
6.88269e-07
7.61913e-07
6.94469e-07
6.90305e-07
6.96677e-07
7.66322e-07
6.97598e-07
6.93707e-07
3.52837e-08
6.91058e-07
3.50556e-08
7.75427e-07
5.20263e-08
7.65003e-07
5.19796e-08
5.86772e-07
6.66293e-07
5.91906e-07
4.64205e-07
6.07134e-07
4.85293e-07
5.15486e-07
5.55422e-07
6.94359e-07
5.31508e-07
7.2862e-07
7.67735e-07
5.5794e-07
4.54475e-07
3.52087e-08
5.04356e-08
1.29419e-07
3.82249e-07
5.19789e-08
7.46296e-08
1.83536e-07
8.70192e-07
6.60446e-07
8.62418e-07
9.08132e-07
8.73984e-07
7.28495e-07
8.81243e-07
7.70724e-07
6.97239e-07
6.61751e-07
7.43548e-07
7.70499e-07
6.88084e-07
6.98375e-07
1.29567e-07
3.52671e-08
1.29567e-07
6.33199e-08
1.83835e-07
5.22072e-08
1.83835e-07
4.67144e-07
1.7466e-07
4.55959e-07
2.54465e-07
3.68355e-07
2.61945e-07
4.89275e-07
7.06202e-07
7.51462e-07
4.34975e-07
7.17884e-07
6.8929e-07
4.14162e-07
7.37944e-07
1.83828e-07
5.4876e-08
1.83826e-07
5.28028e-08
1.83828e-07
5.47559e-08
1.83826e-07
4.5631e-07
3.6714e-07
5.71584e-07
5.2017e-07
4.42425e-07
3.58921e-07
3.13576e-07
6.9781e-07
7.27416e-07
6.88486e-07
6.59606e-07
6.93811e-07
7.24425e-07
6.68985e-07
1.83525e-07
2.0722e-07
5.19783e-08
6.20106e-08
1.83525e-07
2.0722e-07
5.19783e-08
2.76143e-07
2.59246e-07
8.19414e-07
4.20985e-07
5.96132e-07
5.41e-07
7.21923e-07
7.50995e-07
7.61825e-07
6.27013e-07
7.35437e-07
7.62044e-07
7.63801e-07
6.5667e-07
5.19782e-08
7.7746e-07
5.20266e-08
5.98427e-07
5.19782e-08
7.7754e-07
5.20268e-08
9.21114e-07
9.12099e-07
9.14854e-07
7.82922e-07
8.70991e-07
7.46735e-07
8.41981e-07
4.32486e-07
7.25755e-07
4.15259e-07
5.59567e-07
4.30264e-07
7.17739e-07
5.51508e-07
5.40579e-08
7.74212e-07
8.19613e-08
7.77071e-07
5.40582e-08
7.73427e-07
8.1982e-08
3.98198e-07
6.18922e-07
4.16208e-07
4.97508e-07
3.41688e-07
4.67991e-07
6.01375e-07
7.42219e-07
7.48507e-07
6.86337e-07
6.84474e-07
7.39329e-07
7.479e-07
6.33063e-07
1.06139e-07
9.31346e-07
1.40466e-07
9.32138e-07
1.06139e-07
9.31232e-07
1.40414e-07
4.34873e-07
9.02845e-07
8.43641e-07
5.17255e-07
4.71956e-07
7.30791e-07
8.63797e-07
6.98922e-07
7.7179e-07
4.23943e-07
6.89883e-07
6.91943e-07
7.71855e-07
4.16354e-07
1.43878e-07
9.31346e-07
1.02235e-07
9.30492e-07
1.43786e-07
9.30575e-07
1.02218e-07
6.32724e-07
5.39164e-07
4.92372e-07
4.81163e-07
7.98591e-07
3.68134e-07
6.34114e-07
7.4938e-07
7.61694e-07
6.18831e-07
6.79393e-07
7.49132e-07
7.55847e-07
6.18283e-07
7.85707e-08
7.74261e-07
5.39677e-08
7.74172e-07
7.85193e-08
7.74822e-07
5.39666e-08
5.16521e-07
7.86355e-07
4.02934e-07
6.08356e-07
6.08669e-07
9.27802e-07
2.57299e-07
7.45109e-07
7.60441e-07
5.51456e-07
7.31408e-07
7.52045e-07
7.60613e-07
5.43057e-07
5.20294e-08
7.64921e-07
5.19791e-08
7.74882e-07
5.20297e-08
7.65493e-07
5.19792e-08
6.37087e-07
4.43343e-07
4.59213e-07
8.90019e-07
5.10903e-07
7.90889e-07
5.10263e-07
5.19868e-07
7.23707e-07
3.63827e-07
6.62681e-07
4.9835e-07
7.11638e-07
2.76438e-07
5.19784e-08
7.48203e-08
1.83532e-07
3.80619e-07
5.19784e-08
7.47526e-08
1.83532e-07
8.46575e-07
7.97001e-07
5.34118e-07
7.17924e-07
8.17776e-07
3.68848e-07
3.12008e-07
7.5988e-07
7.71044e-07
7.59631e-07
6.91181e-07
7.65958e-07
7.73034e-07
7.23471e-07
1.83831e-07
5.25594e-08
1.83831e-07
6.34274e-08
1.83831e-07
5.22781e-08
1.83831e-07
5.02806e-07
7.20862e-07
4.92266e-07
3.3869e-07
5.34678e-07
8.31923e-07
7.30798e-07
7.73602e-07
7.43489e-07
6.13059e-07
7.19089e-07
7.64185e-07
6.26233e-07
7.49676e-07
1.83832e-07
5.46905e-08
1.83831e-07
3.54605e-08
1.29567e-07
3.67234e-08
1.29567e-07
6.51087e-07
7.01206e-07
7.87651e-07
8.8105e-07
8.81633e-07
8.76764e-07
8.7733e-07
7.11618e-07
7.47219e-07
6.93848e-07
6.43125e-07
6.94921e-07
7.53386e-07
7.03618e-07
1.8353e-07
2.06899e-07
5.19788e-08
4.19878e-08
1.29418e-07
1.47717e-07
3.51618e-08
5.78661e-07
3.43374e-07
3.49096e-07
6.26455e-07
6.65956e-07
2.21077e-07
2.68198e-07
7.57665e-07
7.71537e-07
7.41744e-07
7.49152e-07
7.56207e-07
7.65624e-07
7.45208e-07
5.19787e-08
7.77764e-07
5.20244e-08
5.24616e-07
3.51784e-08
6.99175e-07
3.5293e-08
6.08511e-07
6.68626e-07
8.4491e-07
3.56411e-07
6.00252e-07
6.46543e-07
8.04211e-07
4.86834e-07
7.23498e-07
3.9678e-07
6.87357e-07
4.43373e-07
7.2267e-07
3.99381e-07
5.40009e-08
7.75042e-07
8.19009e-08
7.01488e-07
3.64361e-08
7.00768e-07
5.60148e-08
5.27321e-07
4.2393e-07
5.39726e-07
3.80532e-07
6.19865e-07
6.39508e-07
5.33133e-07
7.53279e-07
7.54366e-07
6.04485e-07
7.24989e-07
7.49149e-07
7.5989e-07
5.96899e-07
1.06117e-07
9.31563e-07
1.40388e-07
9.02881e-07
7.32486e-08
9.02925e-07
9.84538e-08
4.88105e-07
5.44932e-07
7.12402e-07
5.76685e-07
5.38558e-07
4.39659e-07
6.16718e-07
7.6118e-07
7.73392e-07
4.29757e-07
6.82565e-07
7.65964e-07
7.74691e-07
4.82187e-07
1.43799e-07
9.31859e-07
1.0219e-07
9.02973e-07
1.01004e-07
9.02487e-07
7.04775e-08
5.0473e-07
7.9322e-07
8.00129e-07
8.14632e-07
7.67365e-07
8.85503e-07
8.06074e-07
7.61393e-07
7.67978e-07
7.11148e-07
7.20649e-07
7.57749e-07
7.65017e-07
7.22367e-07
7.82716e-08
7.75542e-07
5.39653e-08
7.01007e-07
5.26415e-08
7.01217e-07
3.64049e-08
7.62278e-07
8.80642e-07
6.91868e-07
8.90512e-07
7.27139e-07
8.89026e-07
8.36958e-07
7.63747e-07
7.60869e-07
5.78494e-07
7.14843e-07
7.51084e-07
7.63614e-07
5.78525e-07
5.2026e-08
7.65486e-07
5.19796e-08
6.99488e-07
3.52721e-08
6.89923e-07
3.50556e-08
5.56345e-07
6.64651e-07
4.77052e-07
8.55405e-07
5.85023e-07
6.67031e-07
6.42737e-07
5.60923e-07
7.20504e-07
2.43896e-07
6.80548e-07
5.84539e-07
7.33262e-07
2.75251e-07
5.19789e-08
7.45907e-08
1.83535e-07
2.9582e-07
3.51414e-08
5.0493e-08
1.29419e-07
6.40534e-07
3.16827e-07
4.06787e-07
6.5972e-07
8.12334e-07
4.36353e-07
4.62778e-07
7.66518e-07
7.74973e-07
6.68283e-07
7.52821e-07
7.61444e-07
7.69859e-07
6.23841e-07
1.83835e-07
5.22157e-08
1.83835e-07
4.28172e-08
1.29567e-07
3.52865e-08
1.29567e-07
7.65036e-07
6.93063e-07
8.09497e-08
1.26352e-07
1.1672e-07
6.93142e-07
7.68751e-07
5.26238e-07
2.00055e-07
5.30649e-07
7.10212e-07
3.23223e-07
6.505e-07
4.78925e-07
7.56915e-07
9.10986e-08
6.92289e-07
1.61351e-07
1.30131e-07
7.689e-07
6.89456e-07
6.86079e-07
7.51383e-07
7.4883e-07
5.71834e-07
6.49713e-07
6.91508e-07
7.37974e-07
7.60426e-07
1.26363e-07
7.67539e-07
1.17034e-07
1.16897e-07
7.56442e-07
7.68231e-07
4.91918e-07
7.25176e-07
4.16838e-07
5.54929e-07
4.30632e-07
6.21302e-07
4.94453e-07
7.45985e-07
1.61303e-07
1.29912e-07
7.6207e-07
1.29935e-07
7.66816e-07
7.5233e-07
7.69902e-07
6.97906e-07
4.95519e-07
3.16825e-07
7.71316e-07
5.85226e-07
6.98322e-07
7.50449e-07
6.90463e-07
6.89833e-07
7.31951e-07
7.2265e-07
7.59665e-07
6.83801e-07
7.65021e-07
6.94161e-07
6.98152e-07
7.72707e-07
7.6813e-07
7.71417e-07
6.97699e-07
7.29797e-07
7.61489e-07
7.28377e-07
6.65719e-07
7.36414e-07
6.97886e-07
7.17111e-07
7.65369e-07
3.17293e-07
7.69484e-07
5.73539e-07
7.69947e-07
5.78244e-07
7.6229e-07
7.39435e-07
6.88014e-07
4.13343e-07
7.53843e-07
6.04485e-07
7.54595e-07
7.21398e-07
7.58111e-07
7.72392e-07
7.67575e-07
7.703e-07
7.67601e-07
7.70256e-07
7.52726e-07
7.7325e-07
6.99678e-07
7.00818e-07
7.76212e-07
7.72958e-07
7.76022e-07
6.98817e-07
7.67476e-07
6.84722e-07
6.98638e-07