/*--------------------------------*- C++ -*----------------------------------*\
| =========                 |                                                 |
| \\      /  F ield         | OpenFOAM: The Open Source CFD Toolbox           |
|  \\    /   O peration     | Version:  5.0                                   |
|   \\  /    A nd           | Web:      www.OpenFOAM.org                      |
|    \\/     M anipulation  |                                                 |
\*---------------------------------------------------------------------------*/
FoamFile
{
    version     2.0;
    format      ascii;
    class       volVectorField;
    location    "3.3";
    object      U;
}
// * * * * * * * * * * * * * * * * * * * * * * * * * * * * * * * * * * * * * //

dimensions      [0 1 -1 0 0 0 0];

internalField   nonuniform List<vector> 
8458
(
(0.00387219 0.00110291 0.000392514)
(0.00449204 0.00348986 0.000288488)
(0.00586148 -0.00748328 0.00140363)
(0.00379175 -0.00429707 -0.000382552)
(0.0300454 -0.0100512 0.000937165)
(-0.0018765 -0.0159513 8.85339e-05)
(0.000262562 -0.000129833 1.88837e-05)
(0.000874676 -0.000119086 -5.97295e-08)
(0.000778679 -3.25194e-05 -8.21755e-07)
(0.000804328 -2.53821e-05 1.59528e-07)
(0.000810151 -1.35022e-05 9.51738e-08)
(0.000814407 -8.33728e-06 7.13863e-08)
(0.000817288 -4.94148e-06 2.92818e-09)
(0.000817978 -2.69143e-06 4.74706e-08)
(0.00081749 -1.6513e-06 5.74233e-08)
(0.000816801 -1.12277e-06 2.42858e-08)
(0.000815886 -6.72437e-07 5.35438e-08)
(0.00081464 -2.76225e-07 8.63102e-08)
(0.000812944 -2.23088e-07 2.8282e-08)
(0.000811496 -1.68201e-07 2.10161e-07)
(0.00081026 -2.02463e-07 4.75805e-08)
(0.000808829 2.59235e-08 6.28531e-08)
(0.000807225 -1.22367e-07 5.30948e-08)
(0.000805621 -8.65144e-08 5.32776e-08)
(0.000804116 1.60502e-07 6.61321e-08)
(0.000802616 2.80881e-07 7.82162e-08)
(0.000801097 2.0195e-07 5.59703e-08)
(0.000799729 1.0307e-07 5.08173e-08)
(0.000798002 2.37531e-07 4.13319e-08)
(0.000796352 1.21198e-07 5.17817e-08)
(0.000794748 -3.72129e-07 6.2209e-08)
(0.000793007 -4.26825e-07 -3.92224e-08)
(0.000791382 -3.10982e-07 8.33326e-08)
(0.000790285 7.66752e-08 9.2801e-08)
(0.000789099 4.96361e-08 4.68886e-08)
(0.000787382 3.38741e-08 6.87046e-08)
(0.000785717 7.08433e-08 6.21661e-08)
(0.000783991 1.72008e-07 3.18136e-08)
(0.000782972 4.00405e-07 5.6857e-08)
(0.000781762 8.56509e-08 5.91015e-08)
(0.000780018 -1.33771e-08 2.66568e-08)
(0.000778457 -2.4014e-08 6.76831e-08)
(0.000777473 -3.30232e-07 1.34702e-08)
(0.000775742 -4.10814e-07 1.79e-09)
(0.000773869 -2.18402e-07 3.81677e-08)
(0.000772487 -1.03178e-07 6.04103e-08)
(0.000771257 7.51085e-08 5.51469e-08)
(0.000770227 -9.82651e-08 6.48838e-08)
(0.000768448 -3.71694e-07 4.72708e-08)
(0.000766845 -3.18147e-07 1.84752e-08)
(0.00559603 -0.00191808 4.33426e-07)
(-0.00679613 -0.000670218 0.000584023)
(-0.011907 -0.0153593 0.000264246)
(-0.00461576 0.0110802 0.000312462)
(-0.00977303 -0.00640439 -0.00107078)
(0.0220828 -0.00376924 0.000147093)
(0.000500752 -0.000228923 6.06439e-05)
(0.000480994 -5.97031e-05 -7.71034e-07)
(0.000877237 -3.67692e-05 -1.23229e-06)
(0.000811774 -3.20435e-05 -3.40636e-07)
(0.000824251 -1.85952e-05 1.55597e-07)
(0.000821475 -1.17763e-05 1.87935e-08)
(0.000821383 -7.27447e-06 5.62584e-08)
(0.000820348 -4.74623e-06 4.61016e-08)
(0.000819113 -2.92126e-06 5.00307e-08)
(0.000817829 -1.91801e-06 6.98849e-08)
(0.000816445 -9.75884e-07 -8.56586e-08)
(0.000814889 -5.66386e-07 6.73091e-08)
(0.000813469 -1.27042e-07 1.30683e-07)
(0.000811952 -1.13864e-07 2.75077e-08)
(0.00081034 1.01715e-08 8.32149e-08)
(0.000808691 4.03665e-09 4.54737e-08)
(0.000807123 2.27051e-07 2.02402e-07)
(0.000805978 2.39022e-07 2.33046e-08)
(0.000804486 2.27179e-07 -2.53593e-08)
(0.000802553 3.51007e-09 1.11075e-07)
(0.000800906 -6.05271e-08 3.33776e-08)
(0.000799566 -2.4152e-07 5.28268e-08)
(0.000798111 -6.39108e-07 8.45266e-08)
(0.000795965 -7.55732e-07 6.51481e-08)
(0.00079429 -4.07474e-07 -6.16003e-08)
(0.000793155 -1.74644e-07 1.82054e-08)
(0.000792085 3.82271e-07 1.20301e-07)
(0.000790675 5.98822e-07 6.41643e-08)
(0.000788798 2.70871e-07 4.65858e-08)
(0.000787349 2.02881e-07 3.42069e-08)
(0.000786031 1.67186e-07 4.39154e-08)
(0.000784698 3.11113e-07 6.59389e-09)
(0.00078279 4.95582e-07 1.31279e-07)
(0.000781061 2.02184e-07 5.70557e-07)
(0.000779788 4.33655e-08 3.29339e-08)
(0.000778186 -1.21124e-07 7.47466e-08)
(0.000776613 -1.17707e-07 6.50285e-08)
(0.000775728 -5.04346e-07 6.25249e-08)
(0.000774503 -5.63361e-08 5.23202e-08)
(0.000772903 -8.70861e-09 5.6537e-08)
(0.000771388 3.80222e-07 5.07145e-08)
(0.000769746 8.24562e-08 -1.90247e-08)
(0.000768366 -8.13249e-08 -7.53759e-08)
(0.000767341 -1.62937e-07 1.10362e-07)
(-0.000195643 0.0093156 -8.08816e-05)
(0.00603512 0.00477928 -0.000358633)
(0.000921088 0.00527115 0.000165975)
(-0.0151991 -0.0112808 -9.78024e-05)
(-0.0141706 0.00470736 0.000467202)
(0.0121604 0.00667138 0.000892017)
(0.0024987 0.000603273 8.17961e-05)
(0.000479855 -3.63238e-05 -1.38781e-06)
(0.000903966 -4.33538e-05 -1.95092e-06)
(0.000827228 -2.63181e-05 -5.67395e-07)
(0.000835594 -1.7151e-05 1.65077e-07)
(0.000828619 -1.0775e-05 2.81888e-08)
(0.000826114 -6.8427e-06 5.9846e-08)
(0.000823443 -4.37538e-06 5.09824e-08)
(0.00082104 -2.77076e-06 5.41244e-08)
(0.000819242 -1.69498e-06 6.27406e-08)
(0.000817581 -1.18615e-06 1.03288e-08)
(0.000815703 -7.56675e-07 9.36791e-09)
(0.000813511 -5.48835e-07 1.01824e-07)
(0.000811667 -3.45482e-07 7.54894e-08)
(0.000810407 -1.7261e-07 1.05469e-07)
(0.000809098 -8.73137e-08 5.04043e-08)
(0.000807516 2.8956e-09 7.58044e-08)
(0.000805617 4.48652e-08 -8.07112e-08)
(0.000803819 -2.54851e-07 4.4302e-08)
(0.000802254 -1.72242e-07 4.39789e-08)
(0.000800791 -1.56206e-07 7.01489e-08)
(0.000799009 -1.27496e-07 5.24761e-08)
(0.000797364 -2.23275e-07 4.84665e-09)
(0.000796649 -3.09854e-08 2.69788e-08)
(0.000795479 3.15487e-07 2.87656e-07)
(0.000793995 4.32981e-07 5.21569e-08)
(0.000792348 4.02181e-07 2.39004e-09)
(0.000790143 1.27181e-07 7.59587e-09)
(0.000788601 6.81778e-08 8.70155e-08)
(0.000787251 1.16552e-07 5.41053e-08)
(0.00078585 7.01054e-08 5.5486e-08)
(0.000784398 -3.98228e-08 5.23045e-08)
(0.000782832 -1.34114e-07 2.95096e-08)
(0.000781194 5.37652e-08 2.42652e-08)
(0.000779613 3.39036e-08 7.99958e-08)
(0.000778256 1.13216e-07 5.37142e-08)
(0.000776996 4.52519e-07 7.29278e-08)
(0.000775821 6.11613e-07 9.28197e-08)
(0.000774491 3.19202e-07 5.77381e-08)
(0.000773033 3.05269e-07 1.14998e-07)
(0.000771371 2.73978e-07 6.29951e-08)
(0.00076965 4.17013e-07 8.00655e-08)
(0.000768147 2.46445e-07 -1.67277e-08)
(0.000767147 1.35381e-07 9.98214e-08)
(0.00152626 -0.00185802 -0.00010344)
(0.0105499 0.00351284 -8.84265e-05)
(0.00835456 -0.00885687 -0.000312298)
(0.00312367 -0.00969866 0.000538918)
(-0.00328392 0.0191108 -7.54158e-06)
(-0.000324072 0.00993219 -0.000236356)
(-0.000214641 5.69408e-05 -1.39273e-05)
(0.000269475 -2.71677e-05 1.3818e-06)
(0.000900614 -2.56591e-05 -2.22452e-06)
(0.000844903 -1.56754e-05 -1.24422e-07)
(0.000843748 -1.02727e-05 1.22255e-07)
(0.000834406 -6.44434e-06 2.11144e-08)
(0.000829412 -4.2547e-06 4.7855e-08)
(0.000825457 -2.65248e-06 5.11923e-08)
(0.000822475 -1.54447e-06 4.92706e-08)
(0.000819817 -8.86938e-07 4.82168e-08)
(0.000817623 -7.77892e-07 5.85606e-08)
(0.000815689 -7.10997e-07 3.94215e-08)
(0.000813985 -7.67836e-07 4.46015e-08)
(0.000812424 -5.73151e-07 2.95427e-08)
(0.000810664 -2.66386e-07 6.51568e-08)
(0.000808911 -2.13551e-07 5.12459e-08)
(0.000807288 -3.27778e-07 2.42468e-08)
(0.000805657 -2.83075e-07 -1.84228e-07)
(0.000804215 -1.99399e-07 9.1624e-08)
(0.000802678 1.8638e-09 5.31645e-08)
(0.000800963 2.01813e-07 6.28492e-08)
(0.000799483 4.24121e-07 5.77066e-08)
(0.000798231 7.92781e-07 4.51812e-08)
(0.000796637 8.89282e-07 6.26762e-08)
(0.000794866 4.40776e-07 8.25637e-08)
(0.000793259 5.0768e-07 -8.30405e-08)
(0.000791699 -8.92209e-09 4.38381e-08)
(0.000790256 -7.71956e-08 5.25097e-08)
(0.000788783 5.21796e-08 4.10455e-08)
(0.000787351 4.45462e-08 2.99021e-07)
(0.000785835 2.00492e-09 5.73857e-08)
(0.000784443 -8.04481e-08 5.38147e-08)
(0.000782907 -2.40211e-07 1.98089e-08)
(0.000781271 -2.96586e-07 4.99962e-08)
(0.000779861 -1.2792e-07 4.77373e-08)
(0.000778707 -1.1152e-07 3.30517e-08)
(0.000777232 7.00196e-08 1.64297e-07)
(0.000775557 1.79549e-07 9.01727e-09)
(0.000774116 1.0653e-08 -5.79356e-08)
(0.000772843 -1.09916e-08 4.40446e-08)
(0.000771524 -4.64557e-09 7.6571e-08)
(0.000769709 2.63765e-07 3.92672e-08)
(0.00076801 1.41278e-07 4.74279e-08)
(0.000766863 2.43636e-07 1.64453e-07)
(0.00393894 0.00051213 -0.00025174)
(0.00752319 0.0024399 -0.000425373)
(-0.00239259 0.000132668 -0.000562146)
(0.00157453 0.00395913 0.000505388)
(-0.00236985 -0.0181614 0.000109627)
(0.00023866 0.000310719 -0.000134038)
(0.00256205 0.000480404 4.33893e-05)
(0.00046749 7.73829e-06 2.22191e-05)
(0.000924662 -1.54748e-06 -1.35296e-06)
(0.000846267 -2.82359e-06 -4.75032e-07)
(0.000847153 -1.08525e-06 1.73735e-07)
(0.000836158 -8.43729e-07 6.32283e-08)
(0.000830865 -2.28192e-07 9.65159e-08)
(0.000826839 -2.01879e-07 5.31914e-08)
(0.000823252 -2.63431e-07 1.88536e-08)
(0.000820202 -2.04099e-07 4.16827e-08)
(0.000817803 3.41912e-08 4.97902e-08)
(0.000815719 5.01556e-08 4.68482e-08)
(0.000813686 2.38264e-07 5.03594e-08)
(0.000812298 3.37909e-07 7.26139e-08)
(0.000810858 8.00116e-08 6.54188e-08)
(0.000809024 1.09556e-07 8.33307e-08)
(0.000807432 1.22656e-07 1.25121e-07)
(0.000805781 1.19387e-07 9.74852e-08)
(0.000804177 1.84253e-07 9.64998e-08)
(0.000802756 -1.02281e-07 6.82259e-08)
(0.000801317 1.67569e-07 7.01444e-08)
(0.000799743 2.75101e-07 3.64688e-08)
(0.000797938 4.00071e-07 2.30322e-07)
(0.0007962 4.01956e-07 1.49539e-08)
(0.000794995 1.76189e-07 5.68241e-08)
(0.000793428 -1.53448e-07 3.54864e-08)
(0.000791613 8.69058e-08 3.25634e-08)
(0.000790218 5.11821e-08 5.05514e-08)
(0.000788752 1.42847e-07 5.57933e-08)
(0.000787187 5.15457e-08 4.84893e-08)
(0.000785694 2.48123e-08 5.00714e-09)
(0.000784096 -3.68329e-08 5.58039e-08)
(0.000782564 -8.97101e-08 4.67161e-08)
(0.000781336 -1.50291e-07 8.08369e-08)
(0.000779845 2.25856e-08 4.40509e-08)
(0.000778503 2.79616e-07 1.4162e-07)
(0.000777358 1.05998e-08 7.10824e-08)
(0.000775745 -9.64716e-08 5.83266e-08)
(0.000774252 -1.99455e-07 4.19825e-08)
(0.000773014 -2.84969e-07 4.88379e-08)
(0.000771714 -5.72201e-07 1.30941e-08)
(0.000769831 -8.77955e-07 -1.29219e-08)
(0.000768115 -3.45823e-07 5.96434e-08)
(0.000766669 3.54688e-08 5.14196e-08)
(-0.000498871 -0.000312711 -0.00023729)
(0.00114161 0.00857227 0.000231911)
(0.00321568 -0.00370991 -0.000280878)
(0.000814829 0.00714632 0.000365737)
(-0.00681274 -0.00469922 -0.000259354)
(0.00976665 -0.00931123 0.00039548)
(0.000774438 0.000339719 -7.16377e-07)
(0.00053025 4.99247e-06 3.44301e-05)
(0.000926113 2.08003e-05 -1.50091e-06)
(0.000845618 1.36601e-05 -5.03039e-07)
(0.000846218 9.19103e-06 1.61204e-07)
(0.000835471 5.92219e-06 2.78225e-08)
(0.000830211 4.0349e-06 8.85091e-08)
(0.000825411 2.468e-06 4.81247e-08)
(0.000822472 1.40888e-06 1.58839e-07)
(0.000820189 8.24868e-07 1.17157e-07)
(0.000817941 5.67164e-07 5.2807e-08)
(0.000815943 4.81654e-07 7.90981e-08)
(0.000814344 4.06521e-07 2.52958e-08)
(0.000812224 6.52713e-07 5.17923e-08)
(0.000810378 4.09079e-07 8.75176e-08)
(0.000808964 3.26485e-07 4.94113e-08)
(0.0008073 2.50248e-07 5.94268e-08)
(0.000805733 1.84068e-07 6.12573e-08)
(0.000803938 1.60298e-07 6.92755e-08)
(0.000802657 3.19526e-07 -3.09806e-08)
(0.000801434 3.27241e-08 4.02313e-08)
(0.000799772 -1.40619e-07 9.20553e-09)
(0.000798387 -9.46647e-08 3.41326e-08)
(0.000796355 -4.69456e-07 -1.33238e-07)
(0.00079417 -3.2804e-07 2.23255e-08)
(0.000793146 -3.45759e-07 -7.7844e-09)
(0.000791954 -2.76026e-07 1.54061e-08)
(0.000790324 -1.48147e-07 5.59948e-08)
(0.000788783 -1.58494e-07 -3.35808e-08)
(0.000787203 -4.43357e-08 4.66426e-08)
(0.000785725 3.94953e-08 5.11209e-08)
(0.000784301 1.23879e-07 4.51868e-08)
(0.000782767 2.46095e-07 6.9647e-08)
(0.000781412 3.31638e-07 5.36916e-08)
(0.000780399 3.53985e-07 5.50957e-08)
(0.000778692 4.82887e-07 -9.5007e-09)
(0.000776762 2.88709e-07 3.64384e-08)
(0.000775296 1.02572e-07 4.39665e-08)
(0.000773882 -8.93087e-09 4.588e-08)
(0.000772381 -1.65562e-07 4.6511e-08)
(0.000770788 -5.17619e-07 -7.15128e-08)
(0.000769997 -7.08451e-07 7.21003e-08)
(0.000769153 -4.73229e-07 9.09836e-08)
(0.000767252 -3.278e-07 1.31265e-07)
(0.00250804 -0.00699506 -7.48766e-05)
(0.0100357 0.00236562 0.000280189)
(-0.000839378 -0.0155991 -0.000190036)
(-0.00544551 -0.00325673 0.000275078)
(-0.0110115 0.000254482 0.000373347)
(-0.00105362 -0.00139959 -0.00137852)
(-0.000468187 -0.000149821 5.49806e-05)
(0.000460832 2.69859e-05 1.56693e-05)
(0.000903421 4.32863e-05 -1.60091e-06)
(0.000831605 2.76632e-05 -4.48864e-07)
(0.000837445 1.75133e-05 1.70521e-07)
(0.000829687 1.11656e-05 3.49932e-08)
(0.00082653 6.80965e-06 5.72381e-08)
(0.000823544 4.34424e-06 5.25636e-08)
(0.000821191 2.82439e-06 6.07771e-08)
(0.000819147 1.81562e-06 5.50956e-08)
(0.000817372 1.13302e-06 5.22555e-08)
(0.000815516 7.29293e-07 3.28259e-08)
(0.000813898 4.72962e-07 1.0344e-07)
(0.000812298 1.35634e-07 6.03396e-08)
(0.000810448 3.02606e-07 4.02875e-08)
(0.000808824 1.96436e-07 4.73989e-08)
(0.000807252 2.254e-07 3.4948e-08)
(0.000805667 1.39568e-07 5.50583e-08)
(0.000804345 1.88371e-07 1.02905e-07)
(0.000802596 3.07689e-07 1.07148e-07)
(0.000800742 -2.22221e-08 4.85968e-08)
(0.000799585 -2.62356e-07 4.59588e-08)
(0.00079753 -7.18602e-07 -5.11554e-08)
(0.000795912 -9.1039e-07 1.23673e-07)
(0.000795153 -5.98394e-07 -7.87439e-08)
(0.000793497 -1.04392e-07 8.04089e-08)
(0.000791863 -6.2527e-08 5.43709e-08)
(0.000790367 -7.68401e-08 7.50739e-08)
(0.000788883 -9.63328e-08 7.72661e-08)
(0.000787436 1.00972e-08 1.55936e-07)
(0.000785904 4.74971e-08 4.95446e-08)
(0.000784354 5.47269e-08 4.50362e-08)
(0.000782822 8.46439e-08 3.56861e-08)
(0.000781469 2.94209e-07 2.77696e-08)
(0.000780032 1.20897e-07 4.4442e-08)
(0.000778419 -1.93915e-07 5.35929e-09)
(0.000776882 -1.33108e-07 7.0636e-08)
(0.000775372 -1.36811e-07 -9.02634e-09)
(0.000773918 -2.53018e-08 9.242e-09)
(0.000772381 1.96936e-08 4.94562e-08)
(0.00077104 1.12762e-08 1.62213e-09)
(0.000769892 1.43904e-07 5.44603e-08)
(0.000768601 -2.18541e-07 3.7463e-08)
(0.000767668 -3.1967e-07 5.18711e-08)
(-0.00439523 -0.0017282 -7.50143e-06)
(-0.00705602 -0.0216287 -0.000191546)
(0.0216915 -0.0239745 -0.000539217)
(-0.00888614 0.00762414 0.000152746)
(0.0180176 0.00073684 0.000782494)
(0.00920799 -0.00393447 -2.55589e-05)
(0.000658402 -0.000242944 -3.94851e-06)
(0.000498778 4.25646e-05 -6.0981e-08)
(0.000883022 5.48156e-05 -1.56567e-06)
(0.000813181 3.41995e-05 -5.06454e-07)
(0.000825526 2.05395e-05 1.52653e-07)
(0.000822045 1.2642e-05 3.90916e-08)
(0.000821654 7.73847e-06 5.76994e-08)
(0.00082041 4.72074e-06 5.04665e-08)
(0.000819299 2.8921e-06 4.8826e-08)
(0.000818067 1.75122e-06 5.29409e-08)
(0.000816578 9.85041e-07 1.17042e-07)
(0.000815115 4.90435e-07 6.59334e-08)
(0.0008136 3.55288e-07 1.06899e-07)
(0.000812011 1.39402e-07 6.68048e-08)
(0.000810453 6.47868e-08 4.81851e-08)
(0.000808866 1.0554e-07 5.68752e-08)
(0.000807228 -8.14761e-08 5.91533e-08)
(0.000805685 -4.09902e-08 4.92501e-08)
(0.000804147 -1.42564e-07 6.13932e-08)
(0.000802392 -3.16835e-07 -1.36373e-07)
(0.000800721 -5.40149e-08 -2.28507e-07)
(0.000798904 -5.71005e-08 2.06305e-07)
(0.000797582 -2.10038e-07 1.4045e-07)
(0.000796511 3.96482e-07 7.27409e-08)
(0.000795182 3.88648e-07 9.33581e-08)
(0.000793818 1.14734e-07 3.78978e-08)
(0.000791989 7.23376e-08 4.6646e-08)
(0.000790283 1.35679e-07 5.3722e-08)
(0.000788892 7.35992e-08 5.41876e-08)
(0.000787383 -2.78993e-08 3.9211e-08)
(0.00078578 -4.43013e-08 6.18061e-08)
(0.000784347 -6.27721e-08 6.54112e-08)
(0.000783065 4.68695e-08 4.56599e-08)
(0.000781456 3.24951e-08 8.37311e-08)
(0.000779788 -6.15923e-08 2.75215e-08)
(0.000778375 1.7637e-10 4.73098e-08)
(0.000776835 -3.73279e-08 4.44043e-08)
(0.000775432 -1.63559e-08 4.57226e-08)
(0.000774079 -1.54082e-08 6.92951e-08)
(0.000772428 8.08883e-08 4.73139e-08)
(0.000770944 4.51943e-07 4.21679e-08)
(0.00076971 3.13652e-07 5.34629e-08)
(0.000768583 1.79232e-07 -1.66706e-08)
(0.000767922 -3.87826e-08 5.58932e-08)
(-0.0304656 0.00100276 0.00115241)
(0.00674607 -0.0135032 0.00201475)
(0.0115252 0.00734534 0.00233202)
(0.00624004 -0.00233155 -0.000582249)
(-0.0181867 -0.0126666 0.000172645)
(0.0192586 -0.00761488 0.000159434)
(0.00178069 -0.000243163 -4.94444e-06)
(0.000444469 6.66426e-05 5.72733e-07)
(0.000827286 3.43673e-05 -1.33329e-06)
(0.000788617 2.68627e-05 -2.75871e-07)
(0.000810393 1.42251e-05 1.6433e-07)
(0.000813625 8.79043e-06 3.7921e-08)
(0.000816591 5.20271e-06 6.09096e-08)
(0.000817464 2.92444e-06 5.64452e-08)
(0.000817466 1.8611e-06 1.13958e-07)
(0.000816755 1.20623e-06 1.29298e-07)
(0.000815791 6.91379e-07 1.89803e-08)
(0.000814726 2.53451e-07 5.05331e-07)
(0.000813457 6.06979e-08 2.57865e-08)
(0.000811934 4.01405e-08 1.1292e-07)
(0.000810406 -7.54534e-09 4.87935e-08)
(0.000808642 -2.44602e-07 1.4568e-09)
(0.00080707 -2.28585e-07 3.97527e-08)
(0.000805593 -2.17306e-07 5.42406e-08)
(0.000804002 -2.78274e-07 3.46931e-08)
(0.000802709 -3.14048e-07 3.02227e-08)
(0.000801068 -1.91091e-07 1.91439e-07)
(0.000799391 1.16816e-08 4.77613e-08)
(0.000798096 3.04275e-07 9.68103e-08)
(0.000796659 4.18221e-07 -1.22443e-08)
(0.000794799 4.78847e-07 5.91979e-09)
(0.000793099 2.51684e-07 9.5124e-08)
(0.000791888 -1.15577e-07 -3.39374e-07)
(0.000790367 -1.78198e-07 6.15651e-08)
(0.000788679 -1.64329e-07 5.14435e-08)
(0.000787288 -2.12069e-07 7.91754e-08)
(0.000785862 -2.13258e-07 5.1075e-08)
(0.000784468 -1.50079e-07 4.78808e-08)
(0.000782941 -2.61224e-07 9.8296e-08)
(0.000781333 -2.83334e-07 4.03838e-08)
(0.000779992 -1.64009e-07 6.01834e-08)
(0.000778451 -1.74904e-07 -3.78962e-08)
(0.000776862 2.21281e-10 4.88632e-08)
(0.0007754 3.24837e-08 3.98507e-08)
(0.00077404 1.23957e-07 4.93723e-08)
(0.000772963 6.31845e-08 5.02965e-08)
(0.000771328 2.11838e-07 2.07623e-08)
(0.000769548 4.15302e-07 4.19268e-08)
(0.00076816 6.89613e-07 -7.26613e-08)
(0.00076749 4.66967e-07 8.8184e-08)
(-0.00263541 0.00953333 -0.000352014)
(-0.0115851 0.0185308 3.02511e-05)
(0.00323582 0.0128201 -6.767e-06)
(0.00606792 0.00575703 0.000285445)
(0.012483 0.0106709 -0.000554289)
(0.00044428 0.0014503 7.24299e-05)
(0.000352691 0.000223221 4.05954e-05)
(0.000771644 2.39336e-05 -8.4297e-07)
(0.000751117 -1.34629e-05 -3.67479e-07)
(0.000787874 -1.42403e-07 1.334e-07)
(0.000802849 -8.62608e-07 1.13805e-07)
(0.000810723 -3.43622e-07 6.28099e-08)
(0.000814297 -2.44202e-07 8.86417e-08)
(0.000816219 2.0996e-07 -1.02918e-08)
(0.000817143 1.64753e-07 5.52992e-08)
(0.000816599 2.28859e-07 4.75312e-08)
(0.000815384 2.01571e-07 4.87619e-08)
(0.000814325 3.05295e-07 6.46465e-08)
(0.000813332 1.3307e-07 7.53996e-08)
(0.000811925 -1.051e-07 6.06826e-08)
(0.000810098 -2.17651e-07 2.26387e-08)
(0.000808592 -2.22511e-07 6.35877e-08)
(0.000807264 -6.80447e-08 5.81789e-08)
(0.000805626 -9.90259e-08 4.73137e-08)
(0.000804029 -4.55141e-08 7.35451e-08)
(0.000802504 -8.06525e-09 6.89949e-08)
(0.000801131 -1.19995e-07 1.69074e-07)
(0.000799524 1.51182e-08 4.75989e-08)
(0.000798088 1.5103e-07 5.30499e-08)
(0.000796726 -6.05753e-08 3.14081e-08)
(0.000794971 -9.39097e-08 -1.27032e-08)
(0.000793074 -1.02012e-07 2.50616e-08)
(0.000791452 -1.69661e-07 -4.25146e-08)
(0.000790224 -5.09158e-07 3.73178e-08)
(0.000788852 -2.38156e-07 8.90546e-08)
(0.000787324 -1.75193e-07 6.79752e-08)
(0.000785859 -1.64385e-07 6.22153e-08)
(0.000784289 -2.91772e-07 5.50932e-08)
(0.000782901 -5.48336e-07 4.90252e-08)
(0.00078158 -2.69731e-07 5.86285e-08)
(0.000779926 -2.07839e-07 5.63687e-08)
(0.000778581 -2.50419e-07 7.47716e-08)
(0.000777095 -2.03694e-07 6.36488e-08)
(0.000775586 2.3858e-07 3.0853e-08)
(0.000774116 7.00221e-08 5.59275e-08)
(0.000772535 1.04374e-07 3.57254e-08)
(0.00077138 -3.099e-07 2.58006e-08)
(0.000770302 4.85769e-08 2.57794e-08)
(0.000768633 2.34043e-07 8.24225e-09)
(0.000766481 2.85883e-07 6.80661e-08)
(0.0180747 0.000193895 0.000426372)
(-0.00514649 0.00373409 -0.00253239)
(0.0613594 -0.0091368 0.0171689)
(0.0111351 -0.0297995 0.000349898)
(0.0300638 -0.0499817 -0.0274048)
(-0.046937 -0.0164223 0.000405927)
(0.000482208 -0.000638449 3.65938e-05)
(0.00146975 -0.00019663 4.22628e-07)
(0.00130827 -5.20371e-05 3.24444e-07)
(0.00134768 -4.06163e-05 3.47355e-07)
(0.00135569 -2.13929e-05 3.82956e-07)
(0.00136153 -1.31671e-05 3.37898e-07)
(0.00136555 -7.76972e-06 2.64465e-07)
(0.0013662 -4.18564e-06 1.86872e-07)
(0.00136507 -2.56412e-06 3.30528e-07)
(0.00136373 -1.73311e-06 2.81298e-07)
(0.00136206 -1.06983e-06 3.42142e-07)
(0.00135992 -4.53758e-07 3.36448e-07)
(0.00135712 -3.73823e-07 1.59393e-07)
(0.00135474 -2.93994e-07 4.77207e-07)
(0.00135262 -2.56715e-07 3.25415e-07)
(0.00135014 1.4311e-07 3.83231e-07)
(0.00134747 -8.8044e-08 3.91401e-07)
(0.00134485 -6.86511e-08 2.95092e-07)
(0.00134235 3.57697e-07 3.54141e-07)
(0.00133984 5.70303e-07 3.6562e-07)
(0.00133734 3.86798e-07 3.072e-07)
(0.00133512 1.80387e-07 3.39983e-07)
(0.00133217 3.79239e-07 3.20296e-07)
(0.00132936 8.19649e-08 3.64515e-07)
(0.00132672 -7.68311e-07 3.78666e-07)
(0.00132374 -7.87809e-07 1.51725e-07)
(0.00132117 -5.46319e-07 3.46473e-07)
(0.00131943 8.06898e-08 3.25884e-07)
(0.00131736 1.31288e-07 3.22093e-07)
(0.0013145 1.06206e-07 3.54021e-07)
(0.00131169 1.41198e-07 3.45647e-07)
(0.0013088 3.10324e-07 2.45491e-07)
(0.00130705 7.3061e-07 2.83233e-07)
(0.00130508 2.8075e-07 3.89937e-07)
(0.00130224 1.73388e-08 2.88683e-07)
(0.0012996 -3.42405e-08 2.78206e-07)
(0.001298 -5.70758e-07 2.94245e-07)
(0.00129514 -6.37512e-07 2.09608e-07)
(0.00129206 -3.73085e-07 3.28537e-07)
(0.00128974 -2.38318e-07 3.07276e-07)
(0.0012876 5.60277e-08 2.86034e-07)
(0.00128589 -2.39993e-07 3.31559e-07)
(0.0012829 -6.13118e-07 3.54828e-07)
(0.00128016 -5.14855e-07 2.52877e-07)
(0.00655099 -0.0101856 -0.000601496)
(0.00801816 -0.00553229 -0.000129123)
(0.0026275 0.00231148 -0.00489735)
(-0.0342123 0.0362079 0.0237159)
(-0.0100084 -0.0152536 0.00063634)
(0.00195509 -0.00287465 -0.000194942)
(0.0011684 -0.000558854 8.21185e-05)
(0.00146582 -0.000176315 3.93222e-07)
(0.00147161 -5.54535e-05 4.29627e-07)
(0.00135916 -4.91354e-05 5.39856e-07)
(0.00137814 -2.81808e-05 3.45579e-07)
(0.0013726 -1.77678e-05 3.2059e-07)
(0.00137188 -1.09195e-05 3.43822e-07)
(0.00136982 -7.14218e-06 3.41976e-07)
(0.00136757 -4.38541e-06 3.42343e-07)
(0.0013653 -2.87502e-06 3.02505e-07)
(0.00136294 -1.44873e-06 1.1306e-07)
(0.00136035 -8.36489e-07 4.01039e-07)
(0.00135792 -1.22749e-07 5.22273e-07)
(0.00135539 -1.23816e-07 3.11882e-07)
(0.00135275 5.78403e-08 3.83363e-07)
(0.00134998 4.51055e-08 3.63844e-07)
(0.00134732 4.75338e-07 8.82804e-07)
(0.00134543 4.74159e-07 3.14952e-07)
(0.00134298 4.52572e-07 1.10698e-07)
(0.00133972 8.37267e-08 4.61859e-07)
(0.00133695 -3.73046e-08 2.91045e-07)
(0.00133472 -4.01627e-07 3.33988e-07)
(0.00133223 -1.15373e-06 3.4302e-07)
(0.00132865 -1.25445e-06 3.67838e-07)
(0.00132602 -7.40474e-07 1.42556e-07)
(0.00132422 -3.46626e-07 2.80391e-07)
(0.00132233 6.77872e-07 4.70719e-07)
(0.00132002 9.98091e-07 4.2888e-07)
(0.00131694 4.30432e-07 3.34133e-07)
(0.00131441 3.24793e-07 2.9638e-07)
(0.0013122 2.87757e-07 3.16025e-07)
(0.00131 5.34519e-07 8.54704e-08)
(0.00130689 8.6497e-07 4.76559e-07)
(0.00130394 4.35661e-07 1.48206e-06)
(0.00130172 1.04533e-07 1.77291e-07)
(0.00129911 -1.69673e-07 3.79893e-07)
(0.00129657 -1.87635e-07 3.02499e-07)
(0.00129509 -8.40469e-07 3.84108e-07)
(0.00129297 -1.28291e-07 3.50633e-07)
(0.00129036 -1.00126e-07 3.47034e-07)
(0.00128788 5.71793e-07 3.13582e-07)
(0.00128515 9.70024e-08 2.37752e-07)
(0.00128281 -2.10329e-07 6.53309e-08)
(0.00128107 -2.97066e-07 4.06252e-07)
(-0.00139733 0.0028061 -0.00022392)
(0.00119353 0.0144408 -0.000491869)
(-0.0177744 0.0112416 0.00372869)
(0.0552845 0.0254866 -0.0115802)
(0.0121137 0.0467954 0.010861)
(0.0119249 -0.00072221 0.00588001)
(0.00108907 -0.00117504 -3.7329e-05)
(0.00146509 -8.66603e-05 4.34656e-07)
(0.00151168 -6.22444e-05 -3.94736e-07)
(0.00138199 -3.76905e-05 3.43456e-07)
(0.00139503 -2.47361e-05 3.49015e-07)
(0.00138317 -1.55631e-05 3.28714e-07)
(0.00137887 -9.91179e-06 3.4482e-07)
(0.00137439 -6.35216e-06 3.44559e-07)
(0.00137042 -4.02541e-06 3.4341e-07)
(0.00136741 -2.46523e-06 3.42012e-07)
(0.00136462 -1.72678e-06 2.97354e-07)
(0.00136158 -1.11575e-06 2.22884e-07)
(0.00135801 -8.57017e-07 3.7871e-07)
(0.00135496 -5.18351e-07 3.6676e-07)
(0.00135283 -2.60981e-07 3.51882e-07)
(0.00135065 -1.33465e-07 3.37459e-07)
(0.001348 3.36188e-08 4.21763e-07)
(0.00134482 1.15537e-07 -2.52082e-08)
(0.00134186 -4.02582e-07 2.88836e-07)
(0.00133922 -2.4409e-07 3.38579e-07)
(0.00133674 -2.19739e-07 3.49851e-07)
(0.00133373 -1.63186e-07 3.28297e-07)
(0.00133111 -3.31431e-07 2.24913e-07)
(0.00132989 7.22365e-08 2.70521e-07)
(0.00132786 6.94658e-07 7.25613e-07)
(0.00132552 7.98742e-07 4.76087e-07)
(0.00132285 6.76686e-07 2.30954e-07)
(0.00131911 2.71539e-07 1.86097e-07)
(0.00131651 9.02877e-08 3.72723e-07)
(0.00131432 1.88165e-07 3.41264e-07)
(0.00131195 1.31718e-07 2.83969e-07)
(0.00130951 -3.90878e-08 3.53082e-07)
(0.00130692 -1.99328e-07 3.12898e-07)
(0.00130413 4.81558e-08 3.20627e-07)
(0.00130148 6.62379e-08 3.67047e-07)
(0.00129924 2.26411e-07 3.40158e-07)
(0.00129717 8.16721e-07 3.30926e-07)
(0.00129522 1.03909e-06 3.58973e-07)
(0.00129299 6.01576e-07 2.0166e-07)
(0.00129061 5.68593e-07 4.06037e-07)
(0.00128784 4.92551e-07 3.75173e-07)
(0.00128491 6.70096e-07 3.38326e-07)
(0.00128242 3.83069e-07 2.3762e-07)
(0.00128079 2.13993e-07 3.7466e-07)
(-0.00648343 -0.00640977 -4.51579e-05)
(0.0112944 0.00572896 0.00493054)
(0.00551758 -0.00194784 -0.0026141)
(0.00285259 -0.00457869 0.00185884)
(0.0071394 0.018636 0.00220677)
(0.00578116 -0.00816352 0.000169396)
(-3.16181e-05 -0.00151631 -0.000126488)
(0.00140787 -9.89765e-05 1.22959e-05)
(0.00149817 -3.28852e-05 2.96939e-07)
(0.00140663 -2.03675e-05 5.14472e-07)
(0.00140586 -1.37023e-05 3.53155e-07)
(0.00139117 -8.69163e-06 3.47942e-07)
(0.00138342 -5.85829e-06 3.46169e-07)
(0.0013772 -3.65036e-06 3.45192e-07)
(0.00137244 -2.09385e-06 3.43367e-07)
(0.00136818 -1.17899e-06 3.41843e-07)
(0.00136464 -1.08486e-06 3.4185e-07)
(0.00136144 -1.0077e-06 2.88506e-07)
(0.00135867 -1.1681e-06 3.32126e-07)
(0.00135613 -8.64017e-07 3.02884e-07)
(0.00135323 -4.33342e-07 2.96012e-07)
(0.00135035 -3.5907e-07 3.39296e-07)
(0.00134763 -5.86805e-07 2.7387e-07)
(0.00134488 -4.89305e-07 9.17033e-08)
(0.00134253 -3.60476e-07 7.37261e-07)
(0.00133995 -3.91188e-08 4.51746e-07)
(0.00133705 3.22096e-07 4.0006e-07)
(0.00133458 7.41956e-07 3.83037e-07)
(0.00133253 1.44369e-06 3.3034e-07)
(0.00132993 1.52983e-06 3.15922e-07)
(0.00132692 8.73495e-07 3.86063e-07)
(0.00132419 9.9261e-07 1.48465e-07)
(0.00132166 9.51573e-08 3.23338e-07)
(0.00131928 -9.30111e-08 3.31487e-07)
(0.00131684 1.19775e-07 2.87491e-07)
(0.00131446 8.03899e-08 6.18816e-07)
(0.00131191 -6.14864e-09 3.2652e-07)
(0.00130959 -1.42266e-07 3.38212e-07)
(0.001307 -4.45971e-07 1.95387e-07)
(0.00130427 -5.21233e-07 2.69057e-07)
(0.00130195 -1.88966e-07 3.06661e-07)
(0.00130005 -1.09432e-07 3.2051e-07)
(0.00129758 2.03936e-07 5.03875e-07)
(0.00129481 3.38634e-07 3.0544e-07)
(0.00129238 3.31834e-08 2.17832e-07)
(0.00129021 -9.17862e-09 3.21919e-07)
(0.001288 -4.21015e-08 3.74845e-07)
(0.001285 3.73638e-07 3.2166e-07)
(0.00128224 2.56975e-07 3.48738e-07)
(0.00128033 4.08024e-07 5.41544e-07)
(0.00117846 -0.00046909 -0.00063331)
(0.00655927 0.00853595 0.000437706)
(-0.00426674 -0.00383991 -0.00539212)
(-0.00178113 -0.00300352 0.00163626)
(-0.00927026 0.0207202 -0.0115492)
(-0.00163638 -0.00148887 -0.00100463)
(0.000387663 0.000845229 7.81964e-05)
(0.00137783 0.00012522 3.61002e-05)
(0.00153183 1.27209e-06 5.72698e-07)
(0.00140551 -2.45956e-06 4.27206e-07)
(0.00140961 -4.79155e-07 3.71502e-07)
(0.00139298 -6.12567e-07 3.85067e-07)
(0.00138518 1.14665e-07 3.09317e-07)
(0.0013791 -4.9973e-08 3.4508e-07)
(0.00137351 -2.62869e-07 3.44346e-07)
(0.00136867 -2.37126e-07 3.60366e-07)
(0.00136483 1.03759e-07 3.41847e-07)
(0.00136148 9.0988e-08 3.20109e-07)
(0.0013582 4.07738e-07 3.13792e-07)
(0.00135589 5.34947e-07 3.12453e-07)
(0.00135347 1.54083e-07 3.73441e-07)
(0.00135047 1.69348e-07 7.30077e-07)
(0.00134784 1.79333e-07 4.22262e-07)
(0.00134511 1.69358e-07 3.77671e-07)
(0.00134242 2.93134e-07 2.89877e-07)
(0.00134008 -2.35811e-07 3.52031e-07)
(0.00133771 2.41559e-07 3.90247e-07)
(0.00133513 4.38761e-07 3.06729e-07)
(0.00133208 6.78673e-07 5.07418e-07)
(0.00132916 6.54744e-07 3.05501e-07)
(0.00132718 2.95902e-07 3.58828e-07)
(0.00132453 -2.28532e-07 2.88443e-07)
(0.00132149 2.20695e-07 3.09249e-07)
(0.00131914 1.27959e-07 3.30172e-07)
(0.00131673 2.63012e-07 3.31758e-07)
(0.00131416 6.42084e-08 3.26272e-07)
(0.00131167 7.07585e-10 -1.69532e-08)
(0.00130897 -9.51129e-08 3.34041e-07)
(0.00130645 -1.91112e-07 3.33966e-07)
(0.00130445 -2.68919e-07 1.85317e-07)
(0.001302 3.35761e-08 3.37178e-07)
(0.00129973 4.05595e-07 4.33933e-07)
(0.00129773 -4.37543e-08 3.19376e-07)
(0.001295 -2.04986e-07 3.29449e-07)
(0.00129256 -4.17998e-07 3.20471e-07)
(0.00129052 -5.13324e-07 3.21644e-07)
(0.00128832 -9.84733e-07 1.16762e-07)
(0.00128528 -1.40608e-06 2.77955e-07)
(0.00128245 -5.50842e-07 3.79716e-07)
(0.00127996 7.61339e-08 3.34737e-07)
(-0.0142468 -0.00391536 0.000369136)
(-0.00315767 0.00796999 0.000368963)
(-0.00895104 -0.000238905 0.00047034)
(-0.00404799 -0.00428127 -0.000693079)
(0.00806494 -0.0216595 -0.00223955)
(-0.0116346 -0.0131885 -0.000800386)
(0.000661672 0.00266342 -0.000117791)
(0.00129675 9.9425e-07 5.37491e-05)
(0.00153513 3.03894e-05 5.81384e-07)
(0.0014047 2.03265e-05 3.65358e-07)
(0.00140815 1.38809e-05 3.11217e-07)
(0.0013919 9.0026e-06 3.19447e-07)
(0.00138412 6.20597e-06 4.09747e-07)
(0.00137672 3.78643e-06 3.45721e-07)
(0.00137221 2.14599e-06 5.94141e-07)
(0.00136864 1.23675e-06 4.37246e-07)
(0.00136505 8.53476e-07 3.42344e-07)
(0.00136182 7.24858e-07 3.61228e-07)
(0.00135922 6.18853e-07 3.1264e-07)
(0.00135581 9.82643e-07 3.77975e-07)
(0.00135277 5.97647e-07 3.7523e-07)