/*--------------------------------*- C++ -*----------------------------------*\
| =========                 |                                                 |
| \\      /  F ield         | OpenFOAM: The Open Source CFD Toolbox           |
|  \\    /   O peration     | Version:  5.0                                   |
|   \\  /    A nd           | Web:      www.OpenFOAM.org                      |
|    \\/     M anipulation  |                                                 |
\*---------------------------------------------------------------------------*/
FoamFile
{
    version     2.0;
    format      ascii;
    class       volVectorField;
    location    "3.3";
    object      U_0;
}
// * * * * * * * * * * * * * * * * * * * * * * * * * * * * * * * * * * * * * //

dimensions      [0 1 -1 0 0 0 0];

internalField   nonuniform List<vector> 
8458
(
(0.00425004 0.00158477 0.00039923)
(0.00757295 0.00441143 0.000196574)
(0.00458482 -0.00726592 0.00172027)
(-0.000710732 -0.0052801 -0.000117008)
(0.0275308 -0.00763104 8.19778e-05)
(0.00185437 -0.0133117 9.81917e-06)
(0.000248277 -0.000134596 1.72022e-05)
(0.000919795 -0.000143711 -3.30819e-07)
(0.000816507 -4.18833e-05 -6.9007e-07)
(0.000832045 -2.97816e-05 1.5273e-07)
(0.000831212 -1.55606e-05 1.02594e-07)
(0.00083068 -9.25882e-06 5.24638e-08)
(0.000830414 -5.30843e-06 -1.7932e-09)
(0.000828987 -2.77941e-06 6.98461e-08)
(0.000827144 -1.68924e-06 2.67465e-08)
(0.000825795 -1.0872e-06 2.52265e-07)
(0.000824315 -7.87709e-07 5.49251e-08)
(0.000822776 -5.76314e-07 4.41691e-08)
(0.000821099 -4.58306e-07 9.36556e-08)
(0.000819838 -4.11261e-07 8.47414e-08)
(0.000818436 -1.26441e-07 4.55397e-08)
(0.000816551 5.13906e-08 7.51959e-08)
(0.000815008 -1.56777e-08 7.28438e-08)
(0.000813464 9.44168e-09 5.36121e-08)
(0.000811871 1.97702e-07 2.43681e-08)
(0.000810354 2.9434e-07 7.20644e-08)
(0.000808844 2.12854e-07 6.65026e-08)
(0.000807488 1.16968e-07 4.90401e-08)
(0.000805498 2.453e-07 7.64466e-08)
(0.000803772 -1.89645e-07 1.66195e-07)
(0.000802217 -7.75144e-07 -9.32592e-08)
(0.000800102 -6.49944e-07 -4.48767e-09)
(0.000798851 -4.88216e-07 8.64405e-08)
(0.000797858 -2.50643e-07 3.57483e-08)
(0.0007962 7.66944e-08 4.22693e-08)
(0.000794488 6.94167e-09 5.4578e-08)
(0.000792852 5.16982e-08 4.14383e-08)
(0.00079118 1.01192e-07 4.15854e-08)
(0.000789694 3.63502e-07 -5.83861e-08)
(0.000788484 4.00115e-07 7.70593e-08)
(0.00078715 9.02757e-08 3.01495e-08)
(0.000785479 -3.98871e-08 7.21673e-08)
(0.000784312 -4.63559e-07 1.12647e-07)
(0.000782751 -3.01003e-07 2.4745e-07)
(0.000781004 -1.60661e-07 2.90468e-08)
(0.000779537 -2.11869e-07 1.93735e-08)
(0.000778129 -2.68725e-07 6.96991e-08)
(0.000776895 -4.93447e-07 1.79085e-07)
(0.00077516 -3.06569e-07 -2.28206e-08)
(0.000773375 -2.19622e-07 5.96625e-08)
(0.00543496 -0.00167103 2.88984e-05)
(-0.00762593 -0.000842689 0.000699343)
(-0.015447 -0.0133598 6.06779e-05)
(0.00238891 0.0052034 -0.00199772)
(-0.0273261 -0.00238824 -0.00574161)
(0.0213165 -0.00460515 -0.000487857)
(0.000545897 -0.000244414 6.22735e-05)
(0.000529867 -7.48247e-05 -9.76892e-07)
(0.000924967 -2.73277e-05 -1.43477e-06)
(0.000842678 -2.37967e-05 -3.88173e-07)
(0.000845887 -1.25003e-05 1.32256e-07)
(0.000837498 -7.51396e-06 1.86776e-08)
(0.000834098 -4.41591e-06 4.90075e-08)
(0.000831076 -2.9154e-06 4.26622e-08)
(0.000828682 -1.69099e-06 4.80071e-08)
(0.000826611 -1.0057e-06 5.21452e-08)
(0.000824762 -4.26659e-07 6.7332e-08)
(0.000823059 -8.13171e-08 7.60818e-08)
(0.000821522 2.57625e-07 4.08835e-08)
(0.000819992 2.26944e-07 2.81977e-08)
(0.000818385 8.13458e-08 9.59076e-08)
(0.000816595 1.19836e-07 -7.65141e-08)
(0.00081491 4.43668e-07 9.54898e-08)
(0.000813675 3.32121e-07 6.8784e-08)
(0.000812166 2.41963e-07 6.49756e-08)
(0.000810338 1.04804e-07 6.99311e-08)
(0.000808625 -2.61753e-08 3.4964e-08)
(0.000807127 -2.45336e-07 4.86031e-08)
(0.000805266 -7.84922e-07 1.92848e-08)
(0.000802985 -5.50071e-07 7.11422e-08)
(0.000801798 -7.53268e-07 1.76287e-07)
(0.000800924 -4.09681e-07 6.09339e-08)
(0.000799427 2.62899e-07 2.00228e-07)
(0.000798099 3.87723e-07 2.63998e-07)
(0.000796265 -2.02399e-09 4.96407e-08)
(0.000794378 1.02124e-07 5.02085e-08)
(0.000793081 1.32164e-07 4.49235e-08)
(0.000791641 2.09931e-07 5.63477e-08)
(0.000789957 3.4827e-07 1.81763e-08)
(0.000788256 4.74743e-07 5.89992e-08)
(0.00078669 1.68095e-07 6.94023e-08)
(0.000785146 6.86578e-08 8.22406e-08)
(0.000783826 -9.86963e-08 3.91336e-08)
(0.000782698 -3.06207e-07 3.13127e-08)
(0.000781116 -6.94015e-08 6.22783e-08)
(0.000779543 -1.1485e-07 5.59604e-08)
(0.000778169 6.44541e-08 6.43773e-08)
(0.000776744 -1.3219e-07 3.86559e-08)
(0.000775134 -3.66358e-07 8.58919e-08)
(0.000774088 -2.34154e-07 3.09465e-08)
(-6.05002e-05 0.00928452 -7.82281e-05)
(0.00592208 0.00519817 -0.000360024)
(-0.00328482 0.00647761 0.000771379)
(-0.0202336 -0.0124548 0.000447974)
(-0.00364002 0.00828052 -0.0125175)
(0.00951117 0.00426065 0.000486165)
(0.00279128 0.000484943 9.27542e-05)
(0.000547804 -9.49657e-06 -1.45209e-06)
(0.000942874 -6.16212e-06 -2.16661e-06)
(0.000850606 -3.57308e-06 -5.66064e-07)
(0.000851605 -3.16958e-06 1.43131e-07)
(0.000840801 -2.16713e-06 2.61468e-08)
(0.000836171 -1.5344e-06 4.99176e-08)
(0.000832398 -1.05072e-06 4.97009e-08)
(0.000829535 -6.65206e-07 5.35929e-08)
(0.000827377 -4.10703e-07 5.98517e-08)
(0.00082547 -2.92226e-07 3.52745e-08)
(0.00082363 -1.32137e-07 2.83789e-08)
(0.000821482 -1.35378e-07 1.03406e-07)
(0.000819615 1.58273e-08 4.83873e-08)
(0.000818301 3.92293e-08 3.38467e-08)
(0.000817001 1.93079e-08 4.97474e-08)
(0.00081527 1.53295e-07 7.64853e-08)
(0.000813208 1.55717e-07 6.06672e-08)
(0.000811584 -4.24613e-08 6.71154e-08)
(0.000810017 4.13031e-08 6.96542e-08)
(0.000808407 -1.27835e-07 3.77073e-08)
(0.000806542 -1.27037e-07 6.2592e-08)
(0.000805122 -2.3277e-07 -5.06725e-08)
(0.000803818 2.91345e-07 1.10506e-08)
(0.000802398 8.31569e-07 8.01818e-08)
(0.000801374 6.8032e-07 6.3335e-08)
(0.000799847 3.99801e-07 3.0794e-07)
(0.000797524 2.94391e-07 1.28754e-07)
(0.000795841 -2.18154e-08 9.64402e-08)
(0.000794654 1.38355e-07 5.48999e-08)
(0.000792984 1.43582e-07 5.55482e-08)
(0.000791447 4.33393e-08 4.78414e-08)
(0.000790021 7.36197e-08 4.83019e-08)
(0.000788256 3.08647e-08 3.52907e-08)
(0.00078664 1.11618e-07 3.29098e-08)
(0.000785145 2.1698e-07 3.39891e-08)
(0.000783846 4.60187e-07 1.97166e-07)
(0.000782789 3.58298e-07 9.62073e-08)
(0.000781246 1.28445e-07 8.31004e-08)
(0.000779705 1.92041e-07 5.52468e-08)
(0.000778109 3.17176e-07 6.9874e-08)
(0.000776357 1.46497e-07 5.94565e-08)
(0.000775038 7.41679e-08 6.18584e-08)
(0.000774123 7.07003e-08 7.97762e-08)
(0.00157656 -0.00208686 -0.000101702)
(0.0103287 0.00318438 -2.05687e-05)
(0.00776673 -0.00892604 -0.000257483)
(0.00368442 -0.00928474 0.000700427)
(-0.0047658 0.0187159 0.000283444)
(-0.0011897 0.0102733 -0.000288433)
(-0.000173293 0.000410664 -1.50282e-05)
(0.000287568 1.1606e-05 1.71991e-06)
(0.000899084 2.27749e-05 -2.05577e-06)
(0.000846625 1.19763e-05 -2.69738e-07)
(0.000847627 5.88747e-06 1.31984e-07)
(0.000839534 3.07756e-06 2.9223e-08)
(0.000835489 1.44686e-06 5.65287e-08)
(0.00083216 8.61187e-07 5.23215e-08)
(0.00082948 6.53002e-07 5.01406e-08)
(0.000827077 4.6744e-07 4.8972e-08)
(0.00082511 9.84669e-08 5.62101e-08)
(0.000823255 -1.21499e-07 4.2845e-08)
(0.000821707 -3.14173e-07 5.95614e-08)
(0.000820211 -1.09366e-07 2.4658e-08)
(0.000818389 -9.25423e-08 5.45982e-08)
(0.000816737 -1.61675e-07 5.2015e-08)
(0.000815079 -4.23339e-07 3.70196e-08)
(0.00081343 -3.03476e-07 6.76847e-08)
(0.000812023 -1.62992e-07 1.26816e-09)
(0.000810232 -1.34352e-07 2.00527e-08)
(0.000808415 1.12775e-07 6.24571e-08)
(0.000806997 2.65302e-07 8.67003e-08)
(0.000805788 7.75034e-07 4.02151e-08)
(0.000804313 6.1527e-07 7.75592e-08)
(0.00080228 7.59613e-07 1.25596e-08)
(0.000800379 7.11453e-07 -4.05502e-08)
(0.00079894 2.20911e-07 4.97061e-08)
(0.00079757 -4.41686e-08 5.24204e-08)
(0.000796069 1.94007e-07 4.89699e-08)
(0.000794584 9.18315e-08 4.25512e-08)
(0.000792962 4.11529e-08 1.65347e-07)
(0.000791553 4.86759e-09 4.13717e-08)
(0.000789941 -2.46051e-07 1.6362e-08)
(0.000788303 -2.23053e-07 3.41577e-08)
(0.000786922 8.12119e-09 5.65924e-08)
(0.000785579 1.42537e-08 4.41896e-08)
(0.000783998 1.93555e-07 7.91261e-08)
(0.000782279 8.59319e-08 -6.58975e-08)
(0.000780904 -1.21819e-07 3.28343e-08)
(0.000779775 -7.73045e-08 4.21284e-08)
(0.000778109 -1.20948e-07 8.89333e-08)
(0.000776438 4.96885e-08 5.01164e-08)
(0.000775036 2.80472e-07 4.29936e-08)
(0.000773907 2.27992e-07 4.76493e-08)
(0.00393687 0.000415358 -0.000260708)
(0.00759821 0.00215322 -0.000524607)
(-0.00243394 0.000217161 -0.000529361)
(0.00136831 0.00393894 0.000622282)
(-0.00113289 -0.0177366 7.17186e-05)
(-1.84722e-05 0.000640409 -0.000157313)
(0.0023805 0.00068105 4.24302e-05)
(0.000447485 3.86706e-05 2.13047e-05)
(0.000889136 2.62509e-05 -1.02516e-06)
(0.00082917 1.38537e-05 -4.70143e-07)
(0.000840428 8.9294e-06 2.0435e-07)
(0.000835223 5.21084e-06 3.13712e-07)
(0.000833386 3.46156e-06 2.60773e-07)
(0.000831397 1.9996e-06 5.80928e-08)
(0.000829037 1.02573e-06 -2.26419e-09)
(0.00082668 5.36432e-07 2.92587e-08)
(0.000824732 4.63187e-07 5.12332e-08)
(0.000823114 2.56806e-07 5.23377e-08)
(0.000821499 3.44059e-07 6.46964e-08)
(0.000819894 1.51832e-07 9.78824e-08)
(0.000818237 1.08736e-07 6.35396e-08)
(0.00081659 7.53179e-08 3.69683e-08)
(0.000815096 2.39875e-08 4.29899e-08)
(0.000813537 2.49679e-08 9.65984e-08)
(0.000811797 7.96955e-08 8.68982e-08)
(0.000810362 -1.79515e-07 8.07816e-08)
(0.000808904 6.42517e-08 7.15621e-08)
(0.000807365 1.27717e-07 3.46951e-09)
(0.000805553 1.92927e-07 7.4614e-10)
(0.000803791 6.37636e-08 1.98815e-08)
(0.00080251 -1.88471e-08 6.14303e-08)
(0.000800695 -1.87349e-07 3.63719e-08)
(0.000798899 1.70215e-07 3.83002e-08)
(0.000797489 1.01407e-07 5.33597e-08)
(0.00079601 1.66104e-07 6.86016e-08)
(0.000794462 2.98296e-08 4.89087e-08)
(0.000792876 -1.45018e-08 4.40179e-08)
(0.000791089 1.67826e-08 5.15124e-08)
(0.000789738 -9.64087e-08 9.68512e-08)
(0.000788575 -2.59282e-08 8.77335e-08)
(0.000786938 1.39685e-09 5.43837e-08)
(0.000785376 -2.41961e-08 3.0669e-07)
(0.000783933 -1.95814e-07 6.96008e-09)
(0.000782393 -1.67963e-07 -6.63126e-08)
(0.000781041 -1.47778e-07 4.07643e-08)
(0.000779706 -2.49826e-07 4.67772e-08)
(0.000778267 -4.97456e-07 -4.5914e-08)
(0.000776859 -3.69761e-07 -2.39951e-07)
(0.000775255 -2.166e-07 3.94427e-09)
(0.00077349 1.13119e-07 9.43502e-08)
(-0.000479266 -0.000533208 -0.000225379)
(0.000798024 0.00871211 0.000224636)
(0.00310227 -0.00428309 -0.000460853)
(0.000106107 0.0072599 0.000325823)
(-0.00760507 -0.00502562 -0.0001562)
(0.00942464 -0.0092037 0.000379502)
(0.000551559 0.000298474 -1.3125e-06)
(0.000502987 7.13658e-06 3.35279e-05)
(0.00088749 1.56547e-05 -1.33036e-06)
(0.000825067 1.18065e-05 -4.61412e-07)
(0.000836794 8.61217e-06 1.79751e-07)
(0.00083268 5.79375e-06 1.05167e-07)
(0.000831464 4.01914e-06 8.25059e-08)
(0.000829109 2.44062e-06 5.13652e-08)
(0.000827649 1.34632e-06 8.9984e-08)
(0.000826373 7.09901e-07 8.27184e-08)
(0.00082476 4.67861e-07 5.39113e-08)
(0.000823105 3.63048e-07 6.64018e-08)
(0.000821575 2.27987e-07 2.66068e-08)
(0.000819916 1.61544e-07 4.97979e-08)
(0.000818293 5.94036e-08 7.47848e-08)
(0.000816631 1.31215e-07 4.39086e-08)
(0.000815016 1.27591e-07 6.48257e-08)
(0.0008135 1.00721e-07 6.89991e-08)
(0.000811768 4.12541e-08 5.4648e-08)
(0.000810212 1.8137e-07 6.80973e-08)
(0.000808799 -2.35066e-08 4.25848e-08)
(0.000807156 -1.44886e-07 2.33098e-08)
(0.000805706 -1.73311e-07 9.4926e-08)
(0.000804046 -2.71638e-07 8.22599e-08)
(0.000801965 -4.1356e-07 -1.26019e-08)
(0.000800614 -2.63636e-07 1.84517e-07)
(0.0007993 -2.07566e-07 2.044e-08)
(0.000797563 -8.44902e-08 7.9941e-08)
(0.000795978 -1.17574e-07 5.77883e-08)
(0.000794357 -5.0219e-08 6.16093e-08)
(0.000792946 1.57029e-08 6.87752e-08)
(0.000791452 2.36737e-07 4.8725e-08)
(0.000789889 3.06645e-07 1.13974e-07)
(0.000788426 1.34879e-07 6.88133e-08)
(0.000786924 1.07947e-07 8.60402e-08)
(0.000785333 2.67994e-07 2.54256e-07)
(0.000783819 8.09768e-08 5.2633e-08)
(0.000782341 -5.28032e-09 6.27581e-08)
(0.000780804 2.19076e-08 4.77533e-08)
(0.000779342 -1.67762e-07 4.84091e-08)
(0.000777963 -4.67229e-07 -3.38761e-07)
(0.000776793 -5.33196e-07 5.91938e-08)
(0.000775641 -4.84192e-07 9.78114e-08)
(0.000774035 -1.7269e-07 1.88663e-07)
(0.00224603 -0.00744679 -8.9597e-05)
(0.0111971 0.00229757 -0.000748624)
(0.00188052 -0.0149718 -9.27121e-05)
(-0.00565876 -0.00268835 0.000351392)
(-0.0137869 -0.00440772 0.000801905)
(-0.00086424 -0.00289519 -0.00139837)
(-0.000566504 -0.000385933 5.60487e-05)
(0.000442807 9.18491e-06 1.51575e-05)
(0.000888407 1.61064e-05 -1.44273e-06)
(0.000820258 1.19144e-05 -5.06258e-07)
(0.000832916 8.14353e-06 1.79293e-07)
(0.00082948 5.50228e-06 3.89678e-08)
(0.000829192 3.3678e-06 6.04083e-08)
(0.000828054 2.23022e-06 5.46839e-08)
(0.000826873 1.51649e-06 5.07691e-08)
(0.000825582 1.02775e-06 5.72382e-08)
(0.000824299 5.79473e-07 5.48085e-08)
(0.000822814 3.68243e-07 4.65471e-08)
(0.000821246 1.46854e-07 8.36775e-09)
(0.000819683 9.16368e-08 8.27951e-08)
(0.000818198 2.48576e-08 5.75966e-08)
(0.000816675 -2.89564e-09 5.05008e-08)
(0.000815057 1.08426e-07 3.87497e-08)
(0.000813428 5.14257e-08 5.20369e-08)
(0.000811897 1.08051e-07 3.77466e-09)
(0.000810281 2.1029e-07 1.97642e-07)
(0.000808497 -2.20331e-08 5.11e-08)
(0.000807179 -6.6378e-08 7.08201e-08)
(0.000805397 -3.65893e-07 7.67448e-08)
(0.000803494 -6.24809e-07 5.10771e-08)
(0.000802524 -2.33834e-07 1.61087e-07)
(0.000800956 3.16476e-08 1.44546e-07)
(0.000799125 -4.05604e-08 4.07877e-08)
(0.000797604 -8.21971e-08 2.55121e-08)
(0.000796054 -1.0503e-07 7.80462e-08)
(0.00079463 -4.21896e-09 6.56027e-08)
(0.000793234 5.87669e-09 4.98689e-08)
(0.000791452 -2.02152e-07 2.09911e-08)
(0.000789609 1.697e-08 6.93042e-08)
(0.000788325 1.62566e-07 3.88221e-08)
(0.000787102 -8.39003e-09 4.7872e-08)
(0.000785341 -1.7199e-07 -2.67685e-08)
(0.000783591 -5.88463e-08 3.57536e-08)
(0.00078232 -8.28112e-08 4.08831e-08)
(0.000780839 -5.52963e-08 5.2437e-09)
(0.000779097 1.82164e-08 4.93795e-08)
(0.000777815 -1.16179e-08 -2.18074e-08)
(0.000776842 -3.0234e-07 7.06539e-08)
(0.000775714 -2.28829e-07 2.38238e-08)
(0.000774309 -3.38587e-07 7.80337e-08)
(-0.00501323 -0.00226271 3.66426e-05)
(-0.00870091 -0.0237634 -0.000222985)
(0.0193818 -0.0459141 0.000451299)
(-0.00276827 0.00780142 0.000303803)
(0.0170377 0.00188885 0.00120526)
(0.0075927 -0.00528045 -0.000337061)
(0.000741447 -0.000329212 -3.29241e-06)
(0.000491824 1.39468e-05 2.44945e-07)
(0.000884635 2.23116e-05 -1.59578e-06)
(0.000815063 1.34807e-05 -5.39047e-07)
(0.000828793 7.43668e-06 1.51904e-07)
(0.000826715 4.42031e-06 1.10749e-07)
(0.000827376 2.54911e-06 5.96287e-08)
(0.000826795 1.43706e-06 5.06419e-08)
(0.000826145 8.44951e-07 4.50673e-08)
(0.0008252 5.40054e-07 5.33431e-08)
(0.000823934 3.05948e-07 8.33261e-08)
(0.000822564 2.16776e-07 7.8294e-08)
(0.000821229 1.95624e-07 1.19602e-07)
(0.000819763 1.65986e-07 6.66477e-09)
(0.000818175 1.07921e-07 5.20049e-08)
(0.000816735 4.6871e-09 5.80852e-08)
(0.000815084 -1.36792e-07 3.65184e-08)
(0.000813499 -8.80524e-08 5.10237e-08)
(0.000811965 -1.92336e-07 7.62083e-08)
(0.000810049 -2.49884e-07 5.48665e-09)
(0.000808453 -4.90811e-08 7.6695e-09)
(0.000806729 5.70174e-08 5.10929e-08)
(0.000805013 -1.45363e-07 5.37341e-08)
(0.000804216 3.90271e-07 6.15484e-08)
(0.000802789 4.22331e-07 9.06663e-08)
(0.000800858 1.53715e-07 4.42056e-08)
(0.000799159 3.08274e-07 4.12741e-08)
(0.000797483 1.0028e-07 4.89678e-08)
(0.000796076 6.59961e-08 5.06407e-08)
(0.000794496 -2.79116e-08 5.78577e-08)
(0.000792698 -1.32203e-07 1.8727e-08)
(0.000791466 -3.50207e-07 7.32105e-08)
(0.000790344 -1.63804e-09 4.38845e-08)
(0.000788394 9.32577e-08 1.14969e-08)
(0.000786506 -7.46732e-08 1.13287e-08)
(0.000785271 -1.96212e-07 6.45199e-08)
(0.000783932 3.44646e-08 5.75356e-08)
(0.000782346 -1.12611e-08 5.00306e-08)
(0.000780931 3.21154e-08 5.69315e-08)
(0.000779397 1.72211e-07 4.66813e-08)
(0.000777564 5.01546e-07 5.59307e-08)
(0.000776524 6.29827e-07 7.08486e-08)
(0.000775605 2.3593e-07 -1.04701e-08)
(0.000774743 -4.98815e-08 9.93476e-08)
(-0.0329617 0.00168311 0.00131486)
(0.0062708 -0.0139118 0.00206924)
(0.0160029 0.00612765 0.00580259)
(0.0057232 -0.00432873 -0.000713584)
(-0.029542 -0.0188919 5.72386e-05)
(0.0169272 -0.00885519 0.000123113)
(0.00177324 -0.000306485 -7.2625e-06)
(0.000454039 4.12099e-05 4.33831e-07)
(0.000846051 5.9555e-06 -1.3898e-06)
(0.000801707 7.58866e-06 -3.39255e-07)
(0.000821577 1.65718e-06 1.64957e-07)
(0.000823366 7.12806e-07 3.40185e-08)
(0.000825461 1.34563e-08 5.76878e-08)
(0.000825924 -3.99692e-07 5.65855e-08)
(0.000825752 -1.87776e-07 5.9904e-08)
(0.000824909 -6.62812e-08 1.15812e-07)
(0.000823895 3.72738e-08 1.23639e-07)
(0.000822677 8.34008e-08 1.56341e-08)
(0.000821183 1.02771e-07 8.15724e-08)
(0.000819573 1.51965e-07 9.44788e-08)
(0.000817997 -4.63816e-08 5.10731e-08)
(0.00081637 -1.43121e-07 8.59694e-08)
(0.000814942 -2.70031e-07 1.30891e-08)
(0.000813361 -2.41553e-07 5.48219e-08)
(0.000811697 -3.42987e-07 1.1415e-08)
(0.000810462 -3.66417e-07 -1.12751e-07)
(0.000808882 -1.27237e-07 -1.28892e-10)
(0.00080706 -5.12697e-08 4.93103e-08)
(0.000805813 1.60435e-07 1.10438e-07)
(0.000804202 4.59346e-07 3.59625e-08)
(0.000802226 1.96256e-07 1.54425e-07)
(0.000800811 1.25326e-07 4.9929e-08)
(0.000799057 -4.1239e-08 9.63912e-08)
(0.0007973 -6.29578e-08 -1.8121e-08)
(0.000795893 -1.15954e-07 2.09987e-07)
(0.000794382 -1.70908e-07 5.96556e-08)
(0.000792833 -1.86655e-07 7.04643e-08)
(0.000791616 4.0838e-08 5.51621e-08)
(0.000790164 -3.57683e-07 9.20256e-08)
(0.000788234 -5.67617e-07 3.69065e-08)
(0.000786741 -1.949e-07 4.98521e-08)
(0.000785479 1.90932e-08 6.77199e-08)
(0.000783823 2.58033e-07 5.2597e-08)
(0.000782317 1.93478e-07 4.39246e-08)
(0.000781068 2.3529e-07 6.6498e-08)
(0.000779682 2.51437e-07 -6.94647e-09)
(0.000778384 4.60622e-07 3.46726e-08)
(0.000776507 1.01905e-06 2.67821e-08)
(0.000774864 6.7783e-07 -4.12707e-08)
(0.000774074 3.7439e-07 9.15749e-08)
(-0.00235143 0.00892329 -0.000447583)
(-0.0110241 0.0193342 0.00146899)
(0.00647435 0.0152509 0.000181683)
(0.00365382 0.00346445 0.000140314)
(0.0105251 0.0134732 -0.000611006)
(0.00180677 0.00174028 3.72396e-05)
(0.000365165 0.000222275 4.37088e-05)
(0.000801929 -1.71519e-06 -9.65443e-07)
(0.000779929 -3.36989e-05 -2.94105e-07)
(0.000809723 -1.34688e-05 1.21153e-07)
(0.000820176 -9.43616e-06 1.15804e-07)
(0.000824657 -5.77769e-06 9.20428e-08)
(0.000825985 -3.59922e-06 7.1592e-08)
(0.000826546 -1.82347e-06 8.15689e-08)
(0.000826563 -1.15328e-06 5.13686e-08)
(0.000825482 -7.11694e-07 6.78126e-08)
(0.000824122 -4.45618e-07 5.03035e-08)
(0.000822645 -3.77008e-07 1.13734e-07)
(0.000821315 -3.67063e-07 6.91566e-08)
(0.000819577 -4.45109e-07 5.58246e-09)
(0.000817807 -1.56128e-07 2.39235e-08)
(0.000816458 -9.40626e-08 6.10244e-08)
(0.000814963 -1.11276e-08 6.00673e-08)
(0.000813411 -4.13144e-08 4.99318e-08)
(0.000811813 7.2111e-08 6.20834e-08)
(0.000810322 9.80616e-08 -1.57299e-08)
(0.000808849 -1.40123e-08 6.98981e-08)
(0.000807089 6.79028e-08 4.96261e-08)
(0.000805649 3.28561e-07 -7.32016e-08)
(0.000804258 -1.83833e-07 3.67391e-08)
(0.000802369 -1.51153e-08 1.86986e-07)
(0.00080056 -1.91852e-07 2.53377e-08)
(0.000798924 -5.84518e-07 2.72387e-08)
(0.000797391 -3.59344e-07 1.44662e-07)
(0.000795943 -1.40404e-07 3.40546e-07)
(0.00079441 -1.15825e-07 6.97951e-08)
(0.000792965 -5.68174e-08 4.05618e-08)
(0.000791254 -1.01329e-07 4.84646e-08)
(0.000789587 -4.07226e-07 -3.72679e-11)
(0.000788601 -4.79826e-07 6.56398e-08)
(0.000787242 -2.0949e-07 6.24358e-08)
(0.000785838 -1.54693e-07 2.77194e-08)
(0.00078415 -2.103e-07 2.96184e-08)
(0.000782316 2.36817e-07 2.59063e-08)
(0.000781002 1.37197e-07 -3.43187e-08)
(0.000779676 1.87706e-07 -4.95619e-08)
(0.000778518 2.21771e-08 1.73072e-08)
(0.000776789 -1.41289e-08 4.40667e-08)
(0.000774784 3.34148e-07 -2.29948e-08)
(0.000773432 2.28733e-07 7.03539e-08)
(0.0175996 0.000580737 0.000460052)
(-0.0064398 0.00344798 -0.00261127)
(0.0663281 -0.00629379 0.0195794)
(0.0132634 -0.0398003 0.00243994)
(0.00723982 -0.00159741 -0.00537959)
(-0.0410478 -0.0114051 0.000291541)
(0.000505794 -0.000642769 2.89442e-05)
(0.00153854 -0.000217357 4.64785e-07)
(0.00136648 -5.67461e-05 3.40798e-07)
(0.00138983 -4.17423e-05 3.55122e-07)
(0.0013877 -2.1226e-05 3.6615e-07)
(0.00138626 -1.26006e-05 2.51636e-07)
(0.0013855 -7.15563e-06 2.69771e-07)
(0.00138299 -3.65313e-06 3.85225e-07)
(0.0013799 -2.20638e-06 1.58776e-07)
(0.00137752 -1.43423e-06 5.70529e-07)
(0.00137498 -1.05695e-06 3.46177e-07)
(0.00137243 -7.65229e-07 5.57783e-08)
(0.00136964 -6.4483e-07 4.18776e-07)
(0.00136751 -5.65595e-07 3.52846e-07)
(0.00136514 -1.11613e-07 3.27328e-07)
(0.00136203 1.89679e-07 3.84384e-07)
(0.00135945 5.78955e-08 4.09406e-07)
(0.00135691 7.02224e-08 3.00162e-07)
(0.0013543 4.20416e-07 2.98789e-07)
(0.00135179 5.96358e-07 3.60506e-07)
(0.0013493 4.13198e-07 3.01058e-07)
(0.0013471 2.00893e-07 3.38828e-07)
(0.00134381 3.94987e-07 3.87276e-07)
(0.00134088 -3.32236e-07 6.31928e-07)
(0.00133832 -1.30174e-06 2.44542e-07)
(0.00133488 -1.08589e-06 1.35728e-07)
(0.00133281 -7.8296e-07 3.69445e-07)
(0.00133121 -3.6748e-07 3.30978e-07)
(0.0013285 1.40755e-07 3.26948e-07)
(0.00132565 7.21495e-08 3.42043e-07)
(0.00132289 1.27002e-07 3.18357e-07)
(0.00132004 2.31329e-07 3.09276e-07)
(0.00131771 7.02106e-07 1.0423e-07)
(0.00131578 6.72149e-07 4.04951e-07)
(0.00131345 1.5883e-07 2.92776e-07)
(0.00131068 -5.13032e-08 3.60578e-07)
(0.00130885 -7.49177e-07 3.6847e-07)
(0.00130618 -5.01309e-07 7.31277e-07)
(0.00130325 -2.90326e-07 2.88067e-07)
(0.00130084 -3.75074e-07 8.93149e-08)
(0.00129847 -3.9547e-07 3.12385e-07)
(0.00129647 -7.55756e-07 4.75903e-07)
(0.00129354 -5.13091e-07 2.2056e-07)
(0.00129056 -3.93016e-07 3.397e-07)
(0.00694797 -0.0101141 -0.000586889)
(0.00832695 -0.00515001 -0.000172559)
(0.00139389 0.00754851 -0.00492647)
(-0.00163694 0.00439628 0.00332474)
(-0.0127126 0.0125753 -0.0303146)
(0.0111527 -0.00440754 -0.00552073)
(0.00140652 -0.000563539 8.50457e-05)
(0.00157612 -0.000185788 2.27281e-07)
(0.00153759 -3.39967e-05 4.45239e-07)
(0.00140218 -3.24784e-05 5.46363e-07)
(0.00140875 -1.64882e-05 3.52571e-07)
(0.00139564 -9.84064e-06 3.48772e-07)
(0.00139046 -5.70086e-06 3.47994e-07)
(0.00138572 -3.80231e-06 3.46357e-07)
(0.00138191 -2.18959e-06 3.44666e-07)
(0.0013786 -1.32667e-06 2.81265e-07)
(0.00137562 -5.03504e-07 3.68202e-07)
(0.00137281 -5.73916e-08 3.89561e-07)
(0.00137024 4.71418e-07 2.87332e-07)
(0.00136771 3.80557e-07 3.09945e-07)
(0.00136506 1.72979e-07 3.87568e-07)
(0.0013621 2.19276e-07 2.24832e-07)
(0.00135931 7.7531e-07 2.93159e-07)
(0.00135732 6.18024e-07 7.17619e-07)
(0.00135483 4.87568e-07 3.26568e-07)
(0.00135171 2.33067e-07 3.47719e-07)
(0.00134887 1.28875e-08 3.3799e-07)
(0.00134643 -3.9918e-07 3.37362e-07)
(0.00134342 -1.34857e-06 3.66358e-07)
(0.00133969 -9.85657e-07 3.68973e-07)
(0.00133769 -1.19362e-06 3.89953e-07)
(0.00133622 -6.5263e-07 3.15491e-07)
(0.00133378 5.5002e-07 6.39718e-07)
(0.00133158 7.10418e-07 8.94835e-07)
(0.00132858 6.59824e-08 3.42213e-07)
(0.00132548 1.91598e-07 3.32531e-07)
(0.0013233 2.44206e-07 3.1905e-07)
(0.00132096 4.09418e-07 3.82213e-07)
(0.0013181 7.05937e-07 3.17482e-07)
(0.00131522 8.08972e-07 3.15427e-07)
(0.00131266 2.75221e-07 3.40596e-07)
(0.00131009 8.43578e-08 3.69293e-07)
(0.00130788 -1.65338e-07 2.68344e-07)
(0.00130608 -6.08444e-07 4.46356e-07)
(0.00130351 -1.47641e-07 3.62879e-07)
(0.00130092 -2.44305e-07 3.45215e-07)
(0.00129862 1.54127e-07 4.695e-07)
(0.00129618 -1.96471e-07 3.14458e-07)
(0.00129352 -5.73428e-07 3.72313e-07)
(0.00129175 -3.96866e-07 2.30374e-07)
(-0.00107655 0.00307641 -0.000227202)
(0.00152409 0.0146468 -0.000488842)
(-0.0197008 0.0132154 0.00550237)
(0.0319568 0.0129792 -0.0146695)
(0.0100656 0.0234599 -0.0234279)
(0.00423331 -0.00412296 0.00266402)
(0.00140073 -0.00143543 -3.50879e-05)
(0.00160184 -7.48935e-06 3.26968e-07)
(0.00156058 -5.02365e-06 -2.77113e-07)
(0.00141167 -2.53869e-06 3.51219e-07)
(0.00141601 -3.05746e-06 3.53904e-07)
(0.00139974 -2.19093e-06 3.5668e-07)
(0.00139304 -1.64471e-06 3.47976e-07)
(0.00138738 -1.17073e-06 3.47135e-07)
(0.001383 -7.47892e-07 3.45898e-07)
(0.00137963 -4.57253e-07 3.43761e-07)
(0.00137657 -3.51417e-07 3.19038e-07)
(0.00137364 -1.61072e-07 2.72461e-07)
(0.00137019 -2.17208e-07 3.80671e-07)
(0.00136713 1.5773e-08 3.35419e-07)
(0.00136494 4.69964e-08 2.99629e-07)
(0.00136277 3.67804e-08 3.38139e-07)
(0.00135994 2.57535e-07 4.04707e-07)
(0.00135655 2.89036e-07 3.21887e-07)
(0.00135382 -1.26055e-07 3.8474e-07)
(0.00135119 4.00185e-08 3.57113e-07)
(0.00134851 -1.79124e-07 1.82997e-07)
(0.0013454 -1.58218e-07 3.37743e-07)
(0.00134309 -3.35825e-07 1.42257e-07)
(0.00134109 5.04948e-07 2.56333e-07)
(0.00133875 1.35842e-06 3.25285e-07)
(0.00133706 1.12968e-06 3.23769e-07)
(0.00133452 6.72035e-07 8.29275e-07)
(0.0013306 4.97215e-07 4.47467e-07)
(0.00132784 -2.06772e-08 3.76542e-07)
(0.00132587 1.99618e-07 3.43396e-07)
(0.00132316 2.37778e-07 2.89673e-07)
(0.00132061 6.82775e-08 3.49038e-07)
(0.0013182 7.21783e-08 3.4086e-07)
(0.00131523 5.06874e-08 3.49852e-07)
(0.00131254 1.68421e-07 1.59658e-07)
(0.00131013 3.60822e-07 2.74394e-07)
(0.00130799 8.22115e-07 7.08669e-07)
(0.00130621 6.98901e-07 4.29976e-07)
(0.00130371 3.52905e-07 3.83201e-07)
(0.00130121 4.15673e-07 3.23381e-07)
(0.00129853 5.47606e-07 3.99475e-07)
(0.00129556 3.10705e-07 2.34113e-07)
(0.0012933 1.43804e-07 3.06216e-07)
(0.00129177 1.27151e-07 3.55195e-07)
(-0.00662135 -0.00680569 -4.09814e-05)
(0.0112805 0.00559728 0.00489191)
(0.0068742 -0.00437331 -0.00269641)
(0.00354732 -0.00530926 0.00194798)
(0.00453845 0.0197398 0.00304619)
(0.00560889 -0.00774157 -0.000341782)
(3.11922e-05 -0.0012809 -0.000125647)
(0.00142962 7.69078e-05 1.28164e-05)
(0.00148936 3.57352e-05 2.97011e-07)
(0.00140499 1.89379e-05 5.56751e-07)
(0.00140913 9.32833e-06 3.53213e-07)
(0.00139737 4.92765e-06 3.50181e-07)
(0.00139171 2.31663e-06 3.4774e-07)
(0.00138683 1.38417e-06 3.46709e-07)
(0.0013828 1.04661e-06 3.45029e-07)
(0.00137909 7.52111e-07 3.44464e-07)
(0.00137599 1.73227e-07 3.46417e-07)
(0.00137297 -1.50744e-07 2.98934e-07)
(0.00137046 -5.06632e-07 3.15428e-07)
(0.00136804 -2.06558e-07 3.02379e-07)
(0.00136508 -1.82513e-07 3.33062e-07)
(0.00136237 -2.81918e-07 3.43181e-07)
(0.00135963 -7.12982e-07 3.37517e-07)
(0.00135684 -5.24911e-07 3.48345e-07)
(0.00135452 -3.11182e-07 2.78902e-07)
(0.00135164 -2.16661e-07 2.33342e-07)
(0.00134862 2.03524e-07 3.9857e-07)
(0.00134624 5.26129e-07 3.95114e-07)
(0.00134424 1.40636e-06 3.05012e-07)
(0.0013418 1.17092e-06 5.26164e-07)
(0.00133847 1.31348e-06 3.29402e-07)
(0.00133535 1.26332e-06 7.11681e-08)
(0.00133298 3.75687e-07 3.31604e-07)
(0.00133071 -5.33359e-08 3.32819e-07)
(0.00132821 3.05663e-07 2.87035e-07)
(0.0013258 1.41129e-07 3.16155e-07)
(0.00132313 4.59396e-08 4.66495e-07)
(0.00132075 -3.14529e-08 2.80018e-07)
(0.00131808 -4.57874e-07 2.39171e-07)
(0.00131534 -4.32622e-07 1.97899e-07)
(0.00131305 -8.45795e-09 3.37995e-07)
(0.0013109 8.2362e-08 3.74244e-07)
(0.00130829 3.85601e-07 4.47188e-07)
(0.00130549 2.2879e-07 1.57951e-07)
(0.00130314 -1.32117e-07 2.64114e-07)
(0.00130115 -8.29331e-08 3.24688e-07)
(0.00129849 -1.94062e-07 4.04018e-07)
(0.00129568 8.1082e-08 3.32337e-07)
(0.00129328 4.30484e-07 3.1821e-07)
(0.00129141 3.93865e-07 2.33054e-07)
(0.0011552 -0.000625158 -0.000645194)
(0.00715144 0.00863287 0.000719749)
(-0.00155494 -0.00301837 -0.00455894)
(-0.00297979 -0.00432457 0.00197124)
(-0.0206157 0.0236738 -0.00502374)
(-0.00287813 -0.000734619 -0.000937208)
(0.000210353 0.00103026 7.7289e-05)
(0.00126183 0.000244862 3.46117e-05)
(0.00147629 3.68531e-05 6.61929e-07)
(0.00137806 1.87804e-05 3.8812e-07)
(0.00139841 1.22036e-05 3.68633e-07)
(0.00139093 7.04117e-06 7.30323e-07)
(0.00138859 4.7526e-06 5.11919e-07)
(0.00138578 2.7111e-06 3.46815e-07)
(0.0013822 1.35473e-06 3.29216e-07)
(0.00137853 6.95563e-07 3.46411e-07)
(0.00137543 6.32724e-07 3.43971e-07)
(0.00137279 3.35288e-07 3.3291e-07)
(0.00137012 5.25126e-07 3.46996e-07)
(0.00136754 2.64723e-07 3.707e-07)
(0.00136485 1.88001e-07 3.75313e-07)
(0.00136212 1.16351e-07 3.04846e-07)
(0.00135965 4.27861e-08 3.27027e-07)
(0.00135706 2.05875e-08 3.86626e-07)
(0.00135421 1.50552e-07 2.86355e-07)
(0.00135184 -3.33358e-07 4.03967e-07)
(0.00134944 1.02222e-07 3.91768e-07)
(0.0013469 2.40888e-07 2.85968e-07)
(0.00134388 4.07834e-07 2.76415e-07)
(0.00134096 2.17602e-07 3.08046e-07)
(0.00133885 4.17741e-08 3.46192e-07)
(0.00133588 -2.60389e-07 3.1859e-07)
(0.00133286 3.31649e-07 3.16934e-07)
(0.00133051 2.00192e-07 3.37038e-07)
(0.00132809 2.97963e-07 3.44879e-07)
(0.00132555 4.83053e-08 3.28628e-07)
(0.00132294 -7.36763e-08 3.09598e-07)
(0.00131999 -4.31715e-08 2.82005e-07)
(0.00131771 -2.1222e-07 4.39441e-07)
(0.0013158 -1.18777e-07 3.04981e-07)
(0.00131319 5.84441e-09 4.34112e-07)
(0.00131062 2.26859e-08 6.36638e-07)
(0.00130817 -3.12487e-07 1.50436e-07)
(0.00130555 -2.68499e-07 6.26801e-08)
(0.00130332 -3.45997e-07 3.21353e-07)
(0.00130114 -4.58107e-07 3.23961e-07)
(0.00129874 -9.01238e-07 1.12809e-07)
(0.00129634 -7.39133e-07 -1.21755e-08)
(0.00129368 -3.79046e-07 3.27425e-07)
(0.00129074 1.89133e-07 4.31944e-07)
(-0.0140555 -0.0040956 0.000366837)
(-0.00356896 0.00733591 0.000413666)
(-0.00953678 -0.000917462 0.00120319)
(-0.00392745 -0.00463422 -0.00089356)
(0.00361603 -0.0120405 -0.0017151)
(-0.012378 -0.0132902 -0.000710401)
(0.000428997 0.00263978 -0.000117129)
(0.00114569 -1.42124e-05 5.23826e-05)
(0.00147833 1.64216e-05 6.09064e-07)
(0.00137442 1.35104e-05 3.9434e-07)
(0.00139443 1.04083e-05 3.06129e-07)
(0.00138804 7.13369e-06 4.23397e-07)
(0.00138629 5.12307e-06 3.8676e-07)
(0.00138258 3.10143e-06 3.44598e-07)
(0.00138028 1.67297e-06 3.53618e-07)
(0.00137819 8.4403e-07 3.64884e-07)
(0.00137554 5.67384e-07 3.44096e-07)
(0.00137284 4.63941e-07 3.82205e-07)
(0.00137037 2.97771e-07 3.12262e-07)
(0.00136762 2.63487e-07 3.66294e-07)
(0.0013649 8.80856e-08 3.74902e-07)
(0.00136218 2.13853e-07 3.37733e-07)