/*--------------------------------*- C++ -*----------------------------------*\
| =========                 |                                                 |
| \\      /  F ield         | OpenFOAM: The Open Source CFD Toolbox           |
|  \\    /   O peration     | Version:  5.0                                   |
|   \\  /    A nd           | Web:      www.OpenFOAM.org                      |
|    \\/     M anipulation  |                                                 |
\*---------------------------------------------------------------------------*/
FoamFile
{
    version     2.0;
    format      ascii;
    class       surfaceVectorField;
    location    "3.3";
    object      Uf;
}
// * * * * * * * * * * * * * * * * * * * * * * * * * * * * * * * * * * * * * //

dimensions      [0 1 -1 0 0 0 0];

internalField   nonuniform List<vector> 
25282
(
(0.00545972 0.00269386 0.000323179)
(0.00473411 -0.000398324 0.000196474)
(0.0109734 0.000648402 0.000485938)
(0.000823451 0.00613842 0.000302916)
(-0.00613158 0.0021839 -0.000421085)
(-0.000730421 0.00360633 0.0014582)
(0.00209724 0.0092199 0.000273287)
(-0.000136317 0.00310731 -0.000145323)
(-0.00545281 0.00936952 -0.000432615)
(0.00764541 0.016162 -0.00298791)
(0.00708654 0.0145317 0.00180028)
(0.00216995 0.00909646 0.000805739)
(0.0146121 -0.00581084 0.00106245)
(0.00711999 -0.0134798 -0.000165529)
(0.0132844 -0.00615307 0.00275375)
(0.00308362 0.0012578 0.000880023)
(-0.000879959 -0.00151035 -0.000341374)
(0.00584253 -0.00181958 0.000149591)
(0.00383417 -0.00927201 -0.000557789)
(0.00190382 -0.00245795 2.20156e-05)
(0.00305385 -0.0103909 0.00149531)
(0.0191822 -0.0135892 0.000617818)
(0.0325404 -0.0155367 -0.00256769)
(0.0106864 -0.0112772 0.00195792)
(0.0211107 -0.0264939 -0.00569308)
(0.0137873 -0.0307631 0.0600311)
(0.0190735 -0.0180084 -0.0247824)
(-0.0153296 -0.0304474 0.027017)
(0.0381048 -0.0336048 -0.0561539)
(0.0258879 0.0124172 0.015842)
(0.0274812 -0.0143416 0.000325518)
(0.0358704 0.00272859 -0.0102947)
(0.0317515 -0.00837455 0.00636774)
(-0.00494327 -0.0142103 0.000727959)
(0.000505226 -0.00752781 0.000136273)
(0.00118388 -0.0101441 -0.00102335)
(-0.00583515 -0.0205659 -0.000176639)
(0.000620414 -0.000171023 -2.35428e-06)
(0.00031843 -0.000115882 2.12395e-05)
(0.000323335 -0.000231692 3.5166e-05)
(0.000215496 -9.83749e-05 1.00939e-05)
(0.0007933 -7.58168e-05 -4.40617e-07)
(0.000612221 -8.39649e-05 -5.33933e-07)
(0.00117221 -0.000157858 -5.99881e-07)
(0.000547203 -0.000105789 -5.77305e-06)
(0.000582225 -0.000108859 -4.89075e-06)
(0.000849437 -0.000196471 -6.24816e-06)
(0.000945641 -0.000205052 -5.30362e-06)
(0.000579733 -0.000101477 -3.89999e-06)
(0.0010484 -0.000137116 1.14808e-07)
(0.000971981 -0.0001648 -4.7968e-06)
(0.000796602 -2.89519e-05 -3.31274e-07)
(0.000827958 -3.19563e-05 -1.02702e-06)
(0.00104348 -4.22782e-05 -2.62268e-08)
(0.000807517 -1.94441e-05 1.27361e-07)
(0.000808051 -3.07814e-05 -9.0554e-08)
(0.001076 -3.29992e-05 2.09685e-07)
(0.000812573 -1.09206e-05 8.32839e-08)
(0.000817201 -1.69195e-05 1.25386e-07)
(0.00108292 -1.74475e-05 1.77483e-07)
(0.000816104 -6.63993e-06 3.71684e-08)
(0.000817941 -1.06196e-05 4.50899e-08)
(0.00108797 -1.07522e-05 1.74325e-07)
(0.000818021 -3.81682e-06 2.51922e-08)
(0.000819336 -6.46718e-06 2.95933e-08)
(0.00109142 -6.3556e-06 1.87791e-07)
(0.00081771 -2.17153e-06 5.24454e-08)
(0.000819163 -4.24328e-06 4.67861e-08)
(0.00109209 -3.43853e-06 1.74584e-07)
(0.00081727 -1.38712e-06 4.08599e-08)
(0.000818301 -2.58496e-06 5.3727e-08)
(0.00109128 -2.10771e-06 1.84931e-07)
(0.000816293 -8.97674e-07 3.891e-08)
(0.000817315 -1.18021e-07 4.70853e-08)
(0.00109027 -1.42794e-06 1.35075e-07)
(0.000815434 -4.74395e-07 6.99217e-08)
(0.000816166 -1.01674e-06 -1.60574e-08)
(0.00108898 -8.71133e-07 1.81337e-07)
(0.000813759 -2.49665e-07 5.73054e-08)
(0.000814764 -8.13771e-07 7.68096e-08)
(0.00108728 -3.64992e-07 1.69175e-07)
(0.000812208 -1.95653e-07 1.19192e-07)
(0.000813207 -3.37743e-07 7.94824e-08)
(0.00108503 -2.98456e-07 1.64131e-07)
(0.000810798 -1.85326e-07 1.28897e-07)
(0.000811724 -3.05916e-07 1.18834e-07)
(0.00108312 -2.31098e-07 1.82229e-07)
(0.000809632 -8.83062e-08 5.52144e-08)
(0.0008103 -7.46788e-09 6.53977e-08)
(0.00108144 -2.29589e-07 1.7812e-07)
(0.00080804 -4.81981e-08 5.79755e-08)
(0.00080876 8.95142e-08 5.41634e-08)
(0.00107948 8.45165e-08 1.63496e-07)
(0.000806427 -1.04446e-07 5.31861e-08)
(0.000807174 1.64381e-07 1.27748e-07)
(0.00107735 -1.05205e-07 1.61924e-07)
(0.000804814 3.69544e-08 5.97028e-08)
(0.000805799 -2.36541e-07 3.82911e-08)
(0.00107524 -7.75827e-08 1.98071e-07)
(0.000803416 2.20672e-07 7.21723e-08)
(0.000804301 -7.1461e-07 2.03864e-08)
(0.00107323 2.59099e-07 2.01804e-07)
(0.000801825 2.41428e-07 6.70968e-08)
(0.000802584 -1.28316e-06 9.46455e-08)
(0.00107123 4.25592e-07 1.89965e-07)
(0.000800421 1.52525e-07 5.33946e-08)
(0.000801002 3.08667e-07 4.46739e-08)
(0.00106922 2.94374e-07 1.72487e-07)
(0.000798878 1.70279e-07 4.60761e-08)
(0.000799648 -2.90589e-09 5.1822e-08)
(0.00106743 1.41728e-07 1.8025e-07)
(0.000797149 1.79383e-07 4.65551e-08)
(0.000798056 7.6101e-07 6.29293e-08)
(0.00106508 3.08385e-07 5.97502e-08)
(0.000795609 -1.25388e-07 5.69937e-08)
(0.000796159 2.87468e-07 5.84649e-08)
(0.00106286 1.01582e-07 1.9129e-07)
(0.000793795 -3.99468e-07 1.15092e-08)
(0.000794519 -4.08204e-07 3.04348e-10)
(0.00106073 -5.7022e-07 3.57859e-07)
(0.000792347 -3.68921e-07 2.20359e-08)
(0.000793081 -4.91443e-07 -1.05085e-08)
(0.00105837 -6.07317e-07 3.00303e-07)
(0.00079054 -1.17214e-07 8.80653e-08)
(0.000791733 -4.71123e-08 1.01817e-07)
(0.00105628 -4.28651e-07 1.86594e-07)
(0.000789919 6.31599e-08 6.9852e-08)
(0.00079048 -2.68282e-06 7.84827e-08)
(0.00105486 7.86825e-08 2.80699e-07)
(0.000788177 4.17576e-08 5.77932e-08)
(0.000788948 1.45511e-07 4.67372e-08)
(0.00105323 9.04623e-08 1.76905e-07)
(0.000786587 5.2353e-08 6.54364e-08)
(0.000787366 5.10607e-08 5.14558e-08)
(0.00105094 7.00399e-08 1.81043e-07)
(0.000784832 1.2141e-07 4.69945e-08)
(0.000785874 3.38589e-07 5.30408e-08)
(0.0010487 1.06021e-07 1.75048e-07)
(0.000783325 2.86171e-07 4.43314e-08)
(0.000784344 3.2735e-07 1.92037e-08)
(0.00104639 2.41166e-07 1.47841e-07)
(0.000782612 2.43076e-07 5.79789e-08)
(0.000782881 -1.35791e-06 9.40682e-08)
(0.00104501 5.65507e-07 1.81514e-07)
(0.000780768 3.61522e-08 4.28842e-08)
(0.000781411 2.00901e-07 3.14829e-07)
(0.00104342 1.832e-07 1.83444e-07)
(0.000779276 -1.86939e-08 4.71637e-08)
(0.000779903 1.9222e-08 2.97954e-08)
(0.00104113 1.98083e-09 1.74151e-07)
(0.000777827 -1.77076e-07 4.0585e-08)
(0.000778322 -5.83992e-08 7.12149e-08)
(0.00103903 -2.91272e-08 1.76937e-07)
(0.000776892 -3.70511e-07 7.63189e-09)
(0.000777043 -4.13336e-07 3.92493e-08)
(0.00103774 -4.50495e-07 1.33988e-07)
(0.000774564 -3.14638e-07 1.99733e-08)
(0.000775735 2.54386e-06 3.21574e-08)
(0.00103544 -5.24163e-07 7.96148e-08)
(0.000773282 -1.60807e-07 4.92856e-08)
(0.000774186 -2.46447e-07 4.52439e-08)
(0.00103297 -2.95744e-07 1.725e-07)
(0.000771702 -1.40618e-08 5.77794e-08)
(0.000772695 1.70802e-07 5.84736e-08)
(0.00103111 -1.70748e-07 1.56859e-07)
(0.00077091 -1.15519e-08 6.00139e-08)
(0.000771323 -8.45785e-07 5.29307e-08)
(0.00102943 6.55681e-08 1.69083e-07)
(0.000769325 -2.34938e-07 5.608e-08)
(0.000769986 1.59776e-07 2.29296e-08)
(0.00102806 -1.69129e-07 1.7809e-07)
(0.000767598 -3.44929e-07 3.28774e-08)
(0.000768407 -3.11298e-07 -1.40526e-08)
(0.00102568 -4.92406e-07 2.14086e-07)
(0.000767093 8.98689e-07 6.44186e-08)
(0.0010235 -4.16501e-07 1.11117e-07)
(-0.00170891 -0.00108636 0.000389407)
(0.00270019 0.00362256 -4.02241e-05)
(0.0060735 -0.00605182 -0.000271745)
(0.0058109 -0.00539169 0.000324999)
(-0.00428126 -0.00504755 0.00147455)
(0.00371811 -0.00552249 0.000392249)
(-0.00354684 0.00418917 0.000421055)
(-0.00868344 -0.00843557 0.000129603)
(-0.00154139 -0.00398756 0.000535707)
(-0.00849242 -0.00364177 0.00112861)
(-0.010165 -0.00766257 -0.000624553)
(0.00238886 -0.00105649 0.000507619)
(-0.00509706 -0.00429203 0.000538874)
(0.0178007 0.00242737 -0.00137237)
(-0.00803035 0.0113477 0.000521727)
(-0.00479697 -0.0157925 0.00126151)
(0.00676153 -0.00621229 0.000406382)
(-0.0104584 0.00675047 4.37366e-05)
(-0.00750382 0.00999096 0.000825256)
(-0.0114027 0.0273593 0.00214466)
(-0.00509984 -0.0157803 -4.29464e-05)
(-0.00380256 0.00474321 0.000184806)
(-0.00701067 0.00548973 4.83046e-05)
(-0.00564081 0.0191522 0.000699803)
(-0.00371299 0.00277027 0.00139057)
(-0.00997492 0.00459026 -0.000241445)
(-0.0269084 -0.0211944 0.00391494)
(-0.023661 0.00971883 -0.000481796)
(0.000680699 0.00253996 -7.09906e-05)
(-0.0242904 0.00904485 -0.000907116)
(-0.0130072 -0.0102961 -0.00407696)
(0.017349 -0.0130249 -0.000209994)
(0.0177871 -0.00161037 0.00212885)
(0.0157633 -0.00762264 7.59918e-05)
(0.0212876 -0.00649657 0.00029466)
(0.0286787 -0.00585767 -0.000268719)
(0.00169405 -0.000603897 3.4955e-05)
(0.000476588 -0.000202662 4.89294e-05)
(0.000524758 -0.000232051 6.64701e-05)
(0.000661403 -0.000312687 0.000111701)
(0.000392886 -0.000165983 3.1501e-05)
(0.000505175 -6.33027e-05 -1.54088e-06)
(0.000493386 -6.44067e-05 -3.43837e-06)
(0.000486568 -5.38097e-05 -2.14946e-07)
(0.000808128 -9.88947e-05 -1.01771e-06)
(0.000823268 -3.44071e-05 -7.86607e-07)
(0.000890601 -4.21722e-05 -1.5916e-06)
(0.00117443 -4.61113e-05 -1.04325e-06)
(0.000594722 -5.83346e-05 -4.29151e-06)
(0.000607063 -3.77408e-05 -5.02861e-06)
(0.000991756 -0.00011878 -5.18851e-06)
(0.00101474 -6.82687e-05 -6.29321e-06)
(0.000822523 -2.53215e-05 -9.26005e-08)
(0.000819501 -3.01524e-05 -4.54016e-07)
(0.00108547 -4.05894e-05 6.46643e-08)
(0.000822175 -1.51868e-05 8.72178e-08)
(0.000829923 -1.88233e-05 1.60337e-07)
(0.00110119 -2.3388e-05 2.05497e-07)
(0.000821696 -9.52611e-06 3.75199e-08)
(0.000825047 -1.20046e-05 2.34911e-08)
(0.00109704 -1.4772e-05 1.80508e-07)
(0.000820928 -6.01076e-06 5.11817e-08)
(0.000823748 -7.56462e-06 5.80522e-08)
(0.00109663 -9.097e-06 1.85429e-07)
(0.00081978 -3.83404e-06 4.80655e-08)
(0.000821896 -4.82276e-06 4.8542e-08)
(0.00109509 -5.94421e-06 1.82058e-07)
(0.000818464 -2.4198e-06 5.99546e-08)
(0.000820077 -2.97219e-06 5.20775e-08)
(0.00109334 -3.65334e-06 1.83147e-07)
(0.000817202 -1.4471e-06 -7.86175e-09)
(0.000818535 -1.34985e-06 6.63127e-08)
(0.00109156 -2.39651e-06 2.36629e-07)
(0.000815653 -7.71201e-07 -9.19942e-09)
(0.000817013 -1.35646e-06 -3.76649e-08)
(0.0010897 -1.2123e-06 2.00199e-07)
(0.000814142 -3.46785e-07 9.89857e-08)
(0.000815296 -7.13726e-07 3.83385e-08)
(0.00108762 -7.01437e-07 1.66822e-07)
(0.000812795 -1.20455e-07 7.91118e-08)
(0.00081349 -8.96297e-07 1.16253e-07)
(0.00108569 -1.24895e-07 1.98334e-07)
(0.000811099 -5.1866e-08 5.53524e-08)
(0.00081181 -2.26723e-07 5.14986e-08)
(0.00108367 -1.1884e-07 1.84719e-07)
(0.000809539 7.10507e-09 6.43504e-08)
(0.000810373 1.06501e-07 9.43419e-08)
(0.00108154 3.40059e-08 1.7068e-07)
(0.000807854 1.15508e-07 1.23913e-07)
(0.000808895 -3.21693e-09 4.7939e-08)
(0.00107934 2.45711e-08 1.96123e-07)
(0.000806535 2.33035e-07 1.12882e-07)
(0.000807319 4.44925e-07 1.39103e-07)
(0.00107722 3.51195e-07 1.38509e-07)
(0.000805322 2.33103e-07 -1.0196e-09)
(0.000805798 -1.03028e-06 -2.87033e-08)
(0.0010757 3.56591e-07 2.04308e-07)
(0.000803508 1.1538e-07 4.28361e-08)
(0.000804153 8.32901e-08 9.47136e-09)
(0.00107373 3.39876e-07 1.45864e-07)
(0.000801674 -2.84984e-08 7.22385e-08)
(0.000802404 -1.96263e-08 7.75268e-08)
(0.00107114 4.36184e-08 1.15094e-07)
(0.00080023 -1.50995e-07 4.30991e-08)
(0.000800849 2.16344e-08 5.17632e-08)
(0.00106893 -4.89158e-08 1.8962e-07)
(0.000798846 -4.40251e-07 6.86717e-08)
(0.000799288 -2.78747e-07 5.26515e-08)
(0.00106714 -3.21574e-07 1.83867e-07)
(0.000797215 -6.97402e-07 7.48404e-08)
(0.000797737 -8.46979e-07 4.46866e-08)
(0.00106517 -8.96417e-07 2.99647e-07)
(0.000794911 -5.81658e-07 1.79384e-09)
(0.000796307 1.23735e-06 4.60635e-08)
(0.00106231 -1.00509e-06 1.78813e-07)
(0.00079377 -2.91095e-07 -2.171e-08)
(0.000794884 -1.04387e-07 1.13028e-07)
(0.00106016 -5.73974e-07 1.21808e-07)
(0.000792478 1.03726e-07 6.92372e-08)
(0.000793575 2.32389e-07 3.51812e-08)
(0.00105869 -2.60635e-07 1.05673e-07)
(0.000791671 4.90512e-07 9.22414e-08)
(0.000792216 -2.2618e-06 6.13455e-08)
(0.00105721 5.30071e-07 2.71187e-07)
(0.000789546 4.34898e-07 5.53778e-08)
(0.000790409 -2.00461e-06 3.58801e-08)
(0.00105535 7.98456e-07 1.83061e-07)
(0.000788086 2.36887e-07 4.03983e-08)
(0.000788699 1.57029e-07 6.68007e-08)
(0.00105287 3.50652e-07 1.71604e-07)
(0.000786695 1.85039e-07 3.90597e-08)
(0.0007873 3.50681e-08 4.41561e-08)
(0.00105088 2.63837e-07 1.67446e-07)
(0.000785374 2.39127e-07 2.52605e-08)
(0.000785941 1.438e-07 4.97007e-08)
(0.00104911 2.27471e-07 1.74304e-07)
(0.000783873 4.03319e-07 6.89173e-08)
(0.000784548 7.42427e-08 2.94492e-08)
(0.00104735 4.22816e-07 1.94889e-07)
(0.000781724 3.48928e-07 3.5085e-07)
(0.000782811 -6.35588e-07 8.03945e-08)
(0.00104484 6.80276e-07 1.83157e-07)
(0.000780504 1.22799e-07 3.01829e-07)
(0.000781127 1.78501e-07 2.97411e-07)
(0.0010425 3.18923e-07 1.53466e-07)
(0.000779019 -3.88537e-08 5.38338e-08)
(0.0007797 -1.39788e-07 5.64648e-08)
(0.00104076 7.3949e-08 1.87399e-07)
(0.000777388 -1.19416e-07 6.9889e-08)
(0.000778221 6.67919e-08 6.42304e-08)
(0.00103865 -1.45398e-07 1.80371e-07)
(0.000775983 -3.10967e-07 6.37771e-08)
(0.000776805 -6.38693e-07 6.89781e-08)
(0.00103659 -1.52671e-07 1.8553e-07)
(0.00077534 -2.8041e-07 5.74241e-08)
(0.000775775 2.61999e-07 7.76723e-08)
(0.00103541 -6.72408e-07 2.65961e-07)
(0.000773627 -3.25296e-08 5.4428e-08)
(0.000774497 -1.31797e-08 5.50291e-08)
(0.00103374 -9.23135e-08 1.80817e-07)
(0.000772204 1.85697e-07 5.36266e-08)
(0.000772968 7.39528e-08 8.57674e-08)
(0.00103163 -5.44173e-08 1.78811e-07)
(0.000770511 2.31384e-07 1.58555e-08)
(0.00077138 -1.17747e-06 5.68548e-08)
(0.00102963 4.76008e-07 2.20872e-07)
(0.00076903 5.90577e-10 -4.71918e-08)
(0.000769698 2.80082e-07 3.05204e-08)
(0.00102745 8.97293e-08 1.68831e-07)
(0.000767811 -1.22119e-07 1.74649e-08)
(0.000768256 1.23246e-07 -4.60518e-08)
(0.00102559 -1.45827e-07 1.22217e-07)
(0.000767244 -1.12941e-07 1.05092e-07)
(0.00102421 -2.30001e-07 2.32293e-07)
(0.00228631 0.0070482 -0.000219711)
(0.00066531 0.00450557 -9.2161e-05)
(-0.000796481 0.00606085 -0.000180528)
(0.000182198 0.00510712 -8.97177e-06)
(0.0082925 0.00553402 -0.00022353)
(0.00361434 0.00961003 -0.000502782)
(0.00353775 0.000520445 0.000143404)
(0.00581485 0.0098909 0.000971538)
(0.00246572 0.00268754 6.46763e-05)
(0.00448727 -0.00514001 0.000205382)
(-0.00378936 0.00108939 0.000229411)
(0.00339808 -0.0034057 0.000272647)
(0.00976993 0.00307172 -0.000175903)
(-0.00375096 0.00848742 -0.000673689)
(-0.00362772 0.000721912 -0.000139584)
(0.000787226 0.000407833 0.000280282)
(0.00260336 0.00885978 0.000860085)
(-0.00606085 -0.0105546 -0.000182548)
(-0.0271747 -0.00879536 -0.00019644)
(-0.00923769 -0.019061 -0.00210137)
(-0.0208683 -0.0138164 -0.000275528)
(-0.017086 -0.00519229 -0.00125106)
(-0.0115298 0.0110867 0.00111387)
(0.0116627 0.000463657 -9.03827e-05)
(-0.029311 -0.00110232 -0.00221286)
(-0.0242699 -0.00124982 0.000157804)
(-0.0207552 0.00152824 0.00426937)
(0.00858992 0.00861124 0.000389981)
(0.0214412 0.00504068 0.000720118)
(0.00528295 0.00353866 0.000529651)
(0.0113166 0.00317118 0.00114619)
(0.0121152 0.00683973 0.0017264)
(0.00146919 0.000194032 4.54402e-05)
(0.00198481 0.000509362 3.95533e-05)
(0.00182506 0.000297326 0.000110496)
(0.0023334 0.000376928 -1.95182e-05)
(0.00187095 0.000196854 7.01663e-05)
(0.000349424 -3.72508e-06 -2.84747e-06)
(0.000503203 -3.21093e-05 -3.38679e-06)
(0.000481191 -3.53358e-05 -4.10113e-07)
(0.000807048 -5.4359e-05 -1.2845e-06)
(0.000332713 -5.60319e-06 -1.65815e-06)
(0.000652189 1.23189e-05 -2.82146e-06)
(0.000623794 1.0305e-05 3.07247e-06)
(0.000485999 -3.76088e-05 -5.23332e-07)
(0.000842379 -3.48387e-05 -1.25938e-06)
(0.00090229 -4.01085e-05 -2.08772e-06)
(0.00120782 -5.27991e-05 -1.0934e-06)
(0.000619373 -3.30455e-05 -4.04111e-06)
(0.000625882 -1.84346e-05 -5.30882e-06)
(0.00103127 -5.13362e-05 -4.88515e-06)
(0.00104506 -1.46979e-05 -6.55966e-06)
(0.000836158 -2.1736e-05 -2.01278e-07)
(0.000836065 -2.2717e-05 -3.45908e-07)
(0.00110461 -3.20043e-05 6.68522e-08)
(0.000831042 -1.3964e-05 9.66553e-08)
(0.000839671 -1.48228e-05 1.43666e-07)
(0.00111531 -2.09435e-05 2.09427e-07)
(0.000827472 -8.80949e-06 4.40123e-08)
(0.000831512 -9.62207e-06 2.46516e-08)
(0.0011059 -1.31691e-05 1.874e-07)
(0.000824751 -5.60944e-06 5.54156e-08)
(0.000827763 -6.38643e-06 5.38505e-08)
(0.00110249 -8.37724e-06 1.9696e-07)
(0.00082223 -3.57333e-06 5.25529e-08)
(0.00082445 -3.70926e-06 5.10874e-08)
(0.00109892 -5.36377e-06 1.83836e-07)
(0.00081999 -2.23304e-06 5.84311e-08)
(0.000821758 -2.22771e-06 5.16975e-08)
(0.00109573 -3.39809e-06 1.84815e-07)
(0.000818515 -1.44065e-06 3.65432e-08)
(0.000819529 -1.71067e-06 5.54787e-08)
(0.00109333 -2.0801e-06 1.9521e-07)
(0.000816641 -9.71483e-07 9.84851e-09)
(0.000817602 -6.3959e-07 3.44447e-08)
(0.0010911 -1.45647e-06 1.55519e-07)
(0.000814686 -6.52789e-07 5.55809e-08)
(0.000815696 -3.66071e-07 2.43947e-08)
(0.00108864 -9.36213e-07 1.88033e-07)
(0.000812392 -4.47191e-07 8.86608e-08)
(0.000813748 7.46242e-08 7.32126e-08)
(0.00108576 -7.02926e-07 1.74509e-07)
(0.000811064 -2.59074e-07 9.04743e-08)
(0.000812046 -5.66951e-07 5.25161e-08)
(0.00108332 -4.31917e-07 1.81884e-07)
(0.00080975 -1.29975e-07 7.79454e-08)
(0.000810535 -3.28679e-07 8.53128e-08)
(0.00108162 -2.16795e-07 1.87487e-07)
(0.000808369 -4.22235e-08 6.31003e-08)
(0.000809004 -2.5083e-07 5.08251e-08)
(0.00107988 -1.10389e-07 1.8057e-07)
(0.000806567 2.38737e-08 -2.42843e-09)
(0.000807402 -5.34417e-07 5.00256e-08)
(0.00107776 1.82572e-08 2.68337e-07)
(0.000804719 -1.04945e-07 -1.82245e-08)
(0.000805637 -3.69913e-07 -1.32469e-07)
(0.00107522 8.02009e-08 1.58198e-07)
(0.000802956 -2.1356e-07 4.41405e-08)
(0.000804017 3.48004e-07 6.7963e-08)
(0.00107284 -3.28717e-07 1.78589e-07)
(0.000801561 -1.64226e-07 5.70597e-08)
(0.000802466 -4.0989e-07 4.85717e-08)
(0.00107074 -2.08166e-07 1.92447e-07)
(0.000799947 -1.41856e-07 6.13153e-08)
(0.000800877 2.88597e-08 6.6499e-08)
(0.00106876 -1.87972e-07 1.83991e-07)
(0.000798176 -1.7537e-07 2.86689e-08)
(0.000799246 -8.32657e-08 5.50914e-08)
(0.00106637 -1.45341e-07 1.8467e-07)
(0.000796716 -1.2716e-07 1.59093e-08)
(0.000797797 5.37187e-07 2.50139e-08)
(0.00106424 -2.77353e-07 7.36894e-08)
(0.000796451 1.42196e-07 1.57277e-07)
(0.000796643 1.07446e-06 4.48275e-08)
(0.00106327 2.06255e-08 7.74156e-08)
(0.000794526 3.74216e-07 1.69944e-07)
(0.000795172 4.24301e-07 1.8511e-07)
(0.00106167 5.05073e-07 1.75383e-07)
(0.000793373 4.17586e-07 2.72812e-08)
(0.000793627 5.49493e-07 -1.54418e-08)
(0.00105976 6.15862e-07 1.22159e-07)
(0.000791107 2.64724e-07 4.99214e-09)
(0.000792023 -3.69175e-09 2.31141e-08)
(0.0010576 5.39433e-07 8.32092e-08)
(0.000789377 9.76888e-08 4.72933e-08)
(0.000790199 1.66806e-07 3.00528e-08)
(0.00105463 1.9936e-07 4.165e-08)
(0.000787909 9.23573e-08 7.05655e-08)
(0.000788692 2.40977e-07 6.40305e-08)
(0.00105256 7.92328e-08 1.67077e-07)
(0.000786535 9.33359e-08 5.47955e-08)
(0.000787301 -1.63701e-07 1.76563e-07)
(0.00105078 1.52358e-07 1.79091e-07)
(0.000785161 1.51583e-08 5.38957e-08)
(0.000785843 -6.72705e-09 5.64359e-08)
(0.0010489 1.00912e-07 1.75797e-07)
(0.000783615 -8.6954e-08 4.09106e-08)
(0.00078442 -4.68968e-08 5.30596e-08)
(0.00104696 -3.94553e-08 1.89401e-07)
(0.000781986 -4.02036e-08 2.68882e-08)
(0.000782869 -1.96609e-07 2.46593e-08)
(0.00104488 -1.66721e-07 1.56841e-07)
(0.000780443 4.38375e-08 5.21219e-08)
(0.000781232 5.93757e-07 3.71307e-08)
(0.00104266 5.09605e-08 1.5111e-07)
(0.000778853 7.35476e-08 6.68591e-08)
(0.000779737 -5.73938e-08 6.38666e-08)
(0.00104055 5.00708e-08 1.79451e-07)
(0.000777683 2.82815e-07 6.33181e-08)
(0.000778482 -1.20558e-07 4.3383e-08)
(0.00103875 1.69813e-07 1.6129e-07)
(0.000776328 5.32041e-07 8.28707e-08)
(0.000777114 -1.43164e-06 1.18612e-07)
(0.00103708 6.3462e-07 2.22104e-07)
(0.000775264 4.65452e-07 7.52843e-08)
(0.000775689 -9.22969e-07 5.09185e-08)
(0.00103552 8.25354e-07 2.2463e-07)
(0.000773713 3.12238e-07 8.63592e-08)
(0.000774304 1.13284e-07 -9.87548e-11)
(0.00103374 4.60389e-07 1.73898e-07)
(0.000772267 2.89628e-07 8.90044e-08)
(0.000772938 3.48582e-08 7.95212e-08)
(0.00103182 4.36931e-07 1.76718e-07)
(0.000770424 3.45474e-07 7.15277e-08)
(0.000771448 -3.15862e-08 6.9783e-08)
(0.00102961 3.83265e-07 1.26848e-07)
(0.000768971 3.31755e-07 3.16836e-08)
(0.000769679 3.81675e-07 5.96663e-08)
(0.00102728 5.43555e-07 1.67565e-07)
(0.000767476 1.9093e-07 4.15291e-08)
(0.000768078 1.63987e-07 1.53501e-08)
(0.00102528 3.14757e-07 1.76256e-07)
(0.000767005 -1.04219e-06 1.32137e-07)
(0.00102397 1.74687e-07 2.03502e-07)
(0.00656868 0.000826515 -9.5936e-05)
(0.0027326 -0.00114083 -0.00017759)
(-0.00247857 -0.0041339 -0.000102659)
(0.00895169 -0.00266996 -0.000200325)
(0.00903653 0.00239319 -0.0002569)
(0.0110461 0.00499048 0.00456445)
(0.0227137 0.00621937 -0.00227704)
(0.00789385 0.00384967 0.0026767)
(0.00821464 0.00176864 -0.00491774)
(0.00529734 -0.00941794 0.000255054)
(0.0011898 -0.00558315 -0.000478864)
(0.00646311 -0.00425017 -0.00273217)
(0.00941346 -0.0107262 -0.00176372)
(0.00379687 -0.0082615 0.00109037)
(0.00855359 -0.0140159 0.00318)
(0.00322043 -0.00283804 0.00015896)
(0.00329543 -0.00614095 0.000134621)
(0.00501573 -0.000142033 8.02151e-05)
(0.00922154 -0.00497864 0.000355956)
(0.00860646 -0.0044226 0.000442414)
(0.00027594 -0.00045937 -0.000739488)
(-0.00413668 0.00347091 -0.00271137)
(0.00342153 -0.00559913 -0.00030872)
(0.00972307 -0.00424214 0.000747156)
(0.0143572 -0.0041207 -0.0003766)
(-0.00110859 0.00288395 0.000166933)
(0.00168647 -0.00571884 0.000310982)
(0.0030313 -0.00796325 0.000115994)
(0.00598188 -0.00581596 0.00103079)
(0.00677892 0.0163876 -0.00258719)
(-0.00311188 0.0120173 0.00013576)
(-0.00416233 0.00261864 0.000260194)
(-0.00275514 0.0255165 0.00119167)
(5.61977e-05 0.00868239 3.28346e-05)
(0.000882995 0.0052113 2.18265e-06)
(-0.000656351 0.00826214 -6.7048e-05)
(-0.000305956 0.00865559 -0.000224414)
(0.00120809 0.00873762 0.000132987)
(-0.0010207 0.00828297 -0.000267052)
(-0.000254592 0.000122352 -3.51901e-07)
(-9.29609e-05 0.000161371 -1.34777e-05)
(-0.000297157 0.000129657 -4.39132e-06)
(-0.00022453 -4.93811e-05 -3.7559e-05)
(0.000216277 2.59949e-05 5.36128e-05)
(0.000299735 -5.46717e-05 1.67306e-05)
(0.000340492 -2.28466e-05 1.1104e-06)
(0.000287485 -3.60079e-05 1.94211e-06)
(0.000477909 -4.4345e-05 5.91916e-06)
(0.000240323 -2.83154e-05 -1.04753e-06)
(0.000857755 -2.06689e-05 -1.17482e-06)
(0.000912638 -1.30878e-05 -1.78874e-06)
(0.00119939 -2.92722e-05 -1.50956e-06)
(0.000626454 -2.3482e-05 -4.30899e-06)
(0.000652176 -2.61395e-05 -5.28878e-06)
(0.00105705 -3.36385e-05 -5.01845e-06)
(0.0011079 -4.07832e-05 -6.18513e-06)
(0.000846917 -1.29749e-05 -1.12382e-09)
(0.000845585 -1.00174e-05 -2.99727e-07)
(0.00112577 -1.80214e-05 1.02066e-07)
(0.000838079 -8.35916e-06 7.17011e-08)
(0.00084545 -6.03766e-06 1.47995e-07)
(0.0011248 -1.19875e-05 2.00235e-07)
(0.000831761 -5.34988e-06 3.44803e-08)
(0.000835282 -3.56612e-06 4.21713e-08)
(0.00111279 -7.56798e-06 1.71041e-07)
(0.00082723 -3.45385e-06 4.95231e-08)
(0.000830138 -2.59732e-06 7.21854e-08)
(0.00110642 -5.0565e-06 1.73107e-07)
(0.000823861 -2.09865e-06 5.02318e-08)
(0.000826148 -1.53608e-06 5.21919e-08)
(0.00110133 -3.15142e-06 1.83838e-07)
(0.000821145 -1.21581e-06 4.87439e-08)
(0.000822863 -8.50336e-07 3.40621e-08)
(0.00109746 -1.81916e-06 1.82269e-07)
(0.000818589 -8.32433e-07 5.33871e-08)
(0.00082001 -5.20293e-07 4.49498e-08)
(0.001094 -1.03296e-06 1.81502e-07)
(0.000816682 -7.44456e-07 4.89941e-08)
(0.000817713 -4.65374e-07 5.41754e-08)
(0.00109113 -9.31376e-07 1.95766e-07)
(0.000814766 -7.39407e-07 4.20106e-08)
(0.000815704 -7.13088e-08 4.31348e-08)
(0.00108857 -8.59349e-07 1.8828e-07)
(0.00081324 -6.70525e-07 3.70745e-08)
(0.000813836 -1.60653e-07 4.74804e-08)
(0.00108633 -9.67967e-07 1.91666e-07)
(0.000811545 -4.19818e-07 4.73441e-08)
(0.000812361 -4.51382e-07 5.10783e-08)
(0.00108428 -7.18584e-07 1.82127e-07)
(0.00080979 -2.39977e-07 5.82036e-08)
(0.000810761 -1.5081e-07 6.52878e-08)
(0.00108195 -3.49864e-07 1.83229e-07)
(0.000808037 -2.70646e-07 3.77506e-08)
(0.000808968 -4.67029e-08 6.72883e-08)
(0.00107963 -2.8631e-07 1.81431e-07)
(0.000806516 -3.05434e-07 -7.99572e-08)
(0.00080736 -5.43005e-08 7.46838e-08)
(0.00107746 -4.57292e-07 1.42191e-07)
(0.000804877 -2.4125e-07 -4.63456e-08)
(0.000805719 -1.39545e-08 -4.33712e-08)
(0.00107527 -3.8619e-07 1.61192e-07)
(0.000803513 -9.87997e-08 7.24004e-08)
(0.000804196 1.55365e-07 9.40619e-08)
(0.00107337 -2.79938e-07 1.75763e-07)
(0.000801776 1.01807e-07 5.80053e-08)
(0.000802717 -2.91975e-08 6.06952e-08)
(0.00107131 -1.86275e-08 1.68425e-07)
(0.000800228 3.12932e-07 6.02787e-08)
(0.00080114 1.48232e-08 6.64968e-08)
(0.001069 2.61955e-07 1.79632e-07)
(0.000798812 6.08393e-07 5.14459e-08)
(0.000799613 6.04346e-07 4.70877e-08)
(0.00106703 5.83038e-07 1.18856e-07)
(0.000797568 8.41016e-07 5.39259e-08)
(0.000798084 8.39377e-07 1.37752e-07)
(0.00106538 1.11824e-06 1.31011e-07)
(0.000795607 6.65099e-07 7.26169e-08)
(0.000796419 1.76562e-07 3.88151e-08)
(0.00106328 1.20956e-06 2.78996e-07)
(0.000794158 4.74218e-07 -2.1236e-10)
(0.00079493 4.13675e-07 6.96939e-08)
(0.00106089 6.57136e-07 1.71438e-07)
(0.000792433 2.4946e-07 -1.9621e-08)
(0.000793343 -8.57504e-07 -2.3777e-08)
(0.00105872 7.50145e-07 2.94914e-07)
(0.00079098 -4.30482e-08 4.81726e-08)
(0.000791656 -8.10125e-08 3.82008e-08)
(0.00105668 4.31176e-08 1.76768e-07)
(0.000789499 -1.25282e-08 4.67794e-08)
(0.000790237 7.47226e-08 5.15305e-08)
(0.00105477 -8.51033e-08 1.80622e-07)
(0.000788097 4.83641e-08 1.69993e-07)
(0.000788768 -5.06958e-08 4.84194e-08)
(0.00105281 8.59773e-08 1.87975e-07)
(0.000786559 2.32822e-08 1.78241e-07)
(0.000787269 -3.85647e-08 1.73755e-07)
(0.00105091 6.24681e-08 1.70506e-07)
(0.000785138 -3.92088e-08 5.56008e-08)
(0.000785765 -7.25858e-08 3.11964e-08)
(0.00104887 -2.07186e-09 1.74036e-07)
(0.000783701 -1.60305e-07 3.68171e-08)
(0.00078427 -1.15712e-07 5.48093e-08)
(0.00104702 -1.11357e-07 1.7589e-07)
(0.000782095 -2.68389e-07 3.48979e-08)
(0.000782735 -3.13939e-07 3.32625e-08)
(0.00104496 -3.43091e-07 1.94697e-07)
(0.000780522 -2.12279e-07 4.88671e-08)
(0.000781303 7.2985e-07 6.54165e-08)
(0.00104277 -4.08909e-07 1.73883e-07)
(0.000779261 -1.19723e-07 4.03968e-08)
(0.000779853 -1.24826e-07 4.58941e-08)
(0.0010409 -1.58443e-07 1.6069e-07)
(0.000778059 -2.07782e-08 9.86541e-08)
(0.000778605 -1.79977e-07 8.73361e-08)
(0.00103938 -1.10476e-07 1.54976e-07)
(0.000776369 1.24768e-07 8.66809e-08)
(0.000777295 -2.462e-07 1.1769e-07)
(0.00103741 1.36978e-07 1.0928e-07)
(0.000774759 9.51271e-08 -2.44489e-08)
(0.000775651 -5.32368e-09 3.36719e-08)
(0.00103518 2.59092e-07 1.21707e-07)
(0.000773518 -1.65992e-10 -6.96112e-09)
(0.000774184 -1.09394e-08 -7.97657e-09)
(0.00103325 2.19182e-08 1.6393e-07)
(0.000772181 -7.81957e-09 6.03028e-08)
(0.000772929 1.51152e-08 4.64412e-08)
(0.00103153 -1.00851e-08 1.65309e-07)
(0.000770746 1.29519e-07 5.79248e-08)
(0.000771619 9.10777e-07 4.48325e-08)
(0.00102976 -2.33735e-08 1.0454e-07)
(0.000768711 2.0254e-07 4.33463e-08)
(0.00076977 1.19747e-06 1.31727e-08)
(0.00102736 3.18701e-07 1.68618e-07)
(0.000767445 1.92442e-07 1.05923e-07)
(0.000768063 -3.04087e-08 5.35357e-08)
(0.00102512 1.99127e-07 1.72435e-07)
(0.000766766 -1.33003e-06 1.07936e-07)
(0.0010236 3.2583e-07 1.98344e-07)
(0.00509509 0.00147569 -0.000338528)
(0.00172003 9.61908e-05 -0.000244515)
(0.0025587 2.15206e-05 -0.000438126)
(-0.00110686 0.000902086 -0.000516535)
(0.0032688 0.00683458 1.28164e-05)
(0.00688047 0.00650453 0.000228029)
(0.00495722 -0.00302521 -0.00178699)
(0.00203509 0.0036198 -0.00121619)
(0.00242291 -0.00175208 0.00287814)
(0.00101418 0.00257699 9.35334e-05)
(0.00231357 0.00168269 -0.000777102)
(0.00466472 0.00923095 0.000381356)
(-0.00241502 0.00538429 2.20745e-06)
(0.00184195 0.00647068 0.000268178)
(0.00472011 0.00621799 0.000530187)
(0.00531746 0.000696265 0.000120315)
(-0.00160195 0.00324894 -0.000104494)
(-0.00307795 0.000718253 -0.00112936)
(-0.00836441 0.00239262 0.000117111)
(0.00315491 0.00115327 3.48009e-05)
(0.00211871 -0.00161455 0.00126038)
(0.0071511 0.00260905 0.000662631)
(0.00225673 0.000544919 9.92286e-05)
(-0.0037053 -0.0161687 0.000318778)
(-0.00112103 -0.0127449 0.000164706)
(-0.0055601 -0.0061802 -0.00118442)
(-0.00942715 -0.00866445 -8.75529e-05)
(-0.00194131 -0.00774488 -0.00214205)
(-0.00617265 -0.00810228 0.000124225)
(-0.00808608 -0.00568459 0.000176997)
(-0.00106233 -0.0141847 -0.000887187)
(0.00117472 0.000794845 -0.000116123)
(-0.000696164 -0.00223667 -1.54501e-05)
(0.00256183 -0.000461861 -3.98657e-05)
(0.000245828 9.37044e-05 -0.000128649)
(0.000212645 -0.000643358 -0.000227037)
(0.00211825 -0.000561538 -2.74255e-05)
(0.0015902 0.000437604 -8.93126e-05)
(0.00203732 0.000278014 2.47996e-05)
(0.00223568 0.000343075 3.54826e-05)
(0.00219828 0.000328859 -6.58725e-05)
(0.00157284 0.000465563 -7.54397e-05)
(0.00114763 0.00086922 -0.000182466)
(0.00252532 0.00115124 1.13557e-05)
(0.00187809 0.0004103 4.36861e-06)
(0.00205941 0.000249545 -6.12309e-06)
(0.00159949 0.000311885 2.35317e-05)
(0.00150162 0.000252737 0.000111783)
(0.00180005 0.00043301 2.23393e-05)
(0.00136589 0.000209149 0.000121952)
(0.000800865 -3.90673e-05 2.45731e-05)
(0.00042251 -2.97339e-06 1.37128e-05)
(0.000482642 -6.80235e-06 2.5824e-05)
(0.000670722 2.49915e-05 4.21187e-05)
(0.000305557 1.69159e-05 9.70412e-06)
(0.000863388 -2.18532e-06 -9.14138e-07)
(0.000925387 7.64017e-06 -1.42693e-06)
(0.00122825 -1.37694e-07 -1.29636e-06)
(0.000648448 -8.01479e-06 -4.55114e-06)
(0.000650269 -5.35131e-06 -5.45585e-06)
(0.00108007 -1.14486e-05 -5.04328e-06)
(0.00107707 -9.13749e-06 -6.10661e-06)
(0.000850121 -1.9547e-06 -1.50754e-07)
(0.000845942 5.97895e-06 -4.89035e-07)
(0.00112589 -2.64158e-06 8.29881e-08)
(0.00084033 -9.64528e-07 1.185e-07)
(0.000846685 3.83245e-06 1.6747e-07)
(0.00112838 -7.82201e-07 2.07004e-07)
(0.000833194 -5.36061e-07 7.98667e-08)
(0.000835815 3.22598e-06 4.55254e-08)