/*--------------------------------*- C++ -*----------------------------------*\
| =========                 |                                                 |
| \\      /  F ield         | OpenFOAM: The Open Source CFD Toolbox           |
|  \\    /   O peration     | Version:  5.0                                   |
|   \\  /    A nd           | Web:      www.OpenFOAM.org                      |
|    \\/     M anipulation  |                                                 |
\*---------------------------------------------------------------------------*/
FoamFile
{
    version     2.0;
    format      ascii;
    class       surfaceVectorField;
    location    "3.3";
    object      Uf_0;
}
// * * * * * * * * * * * * * * * * * * * * * * * * * * * * * * * * * * * * * //

dimensions      [0 1 -1 0 0 0 0];

internalField   nonuniform List<vector> 
25282
(
(0.00687302 0.00346879 0.000264156)
(0.0048425 0.000102441 0.000214064)
(0.0109248 0.00108275 0.000473791)
(0.0013308 0.00594402 0.000342644)
(-0.00645745 0.00296278 -0.00057313)
(-0.000626385 0.00337264 0.00136422)
(0.00411407 0.00879247 0.000255453)
(0.00096302 0.00403183 -0.000114281)
(-0.00132827 0.00783196 6.69275e-05)
(0.0112772 0.0150324 -0.0012536)
(0.00740435 0.0114556 0.00133504)
(0.000834562 0.00307037 0.000588306)
(0.0164465 -0.00564381 0.000921699)
(0.00716268 -0.0157468 -7.81947e-05)
(0.00899663 -0.00363114 0.00331981)
(0.00139822 0.000464589 0.00101047)
(-0.00159408 -0.00204958 -0.000111973)
(-4.04737e-06 -0.00206757 2.51033e-05)
(-0.00186379 -0.0106927 -8.28401e-05)
(-0.00044256 -0.00299472 0.000283283)
(0.0113383 -0.00905204 0.0011442)
(0.0084063 -0.0109735 0.000558135)
(0.0252346 -0.0105902 -0.00266555)
(-0.00276556 -0.00675429 0.00194359)
(0.0166838 -0.0154236 -0.00526181)
(0.0211858 0.00967998 -0.0117788)
(0.0173293 -0.00690942 0.000505013)
(0.00221534 -0.00722478 0.0237599)
(0.0416157 -0.0124318 -0.0163517)
(0.0153413 0.00475784 0.00565819)
(0.0153413 0.00475784 0.00565819)
(0.0153413 0.00475784 0.00565819)
(0.0153413 0.00475784 0.00565819)
(-6.92114e-05 -0.0123651 0.000742891)
(0.00288863 -0.00557952 9.27677e-05)
(0.00486653 -0.00592987 -0.000773828)
(-0.00194448 -0.0169253 -0.000347054)
(0.000589951 -0.000124876 -3.77048e-06)
(0.000281886 -0.000120003 1.98292e-05)
(0.000302955 -0.000234013 3.15638e-05)
(0.000215539 -0.000106236 8.92066e-06)
(0.000835291 -9.28141e-05 -5.10386e-07)
(0.000659843 -0.000105725 -7.61534e-07)
(0.00122917 -0.000180535 -7.33002e-07)
(0.000570096 -0.000140281 -6.0418e-06)
(0.000628178 -0.000146877 -5.74758e-06)
(0.000890831 -0.000245439 -6.38354e-06)
(0.00102091 -0.00026044 -6.17326e-06)
(0.000621467 -0.000117297 -4.31034e-06)
(0.00112554 -0.000158804 -1.10174e-07)
(0.00103826 -0.000179516 -5.09466e-06)
(0.000828927 -3.58344e-05 -2.68808e-07)
(0.000870737 -3.55681e-05 -1.06242e-06)
(0.0010915 -4.93147e-05 2.58722e-10)
(0.000831628 -2.26734e-05 1.2767e-07)
(0.000837362 -3.05048e-05 -1.17721e-07)
(0.00111094 -3.57619e-05 2.13e-07)
(0.000830947 -1.24108e-05 7.7537e-08)
(0.00083855 -1.56345e-05 1.17425e-07)
(0.00110946 -1.83933e-05 1.79271e-07)
(0.000830597 -7.28427e-06 2.53441e-08)
(0.000834089 -9.30389e-06 3.55707e-08)
(0.00110847 -1.09297e-05 1.79718e-07)
(0.000830012 -4.04433e-06 3.40148e-08)
(0.000832256 -5.39066e-06 2.36072e-08)
(0.00110795 -6.23203e-06 1.86477e-07)
(0.000827893 -2.2345e-06 4.83033e-08)
(0.000830031 -3.53038e-06 5.62541e-08)
(0.00110599 -3.21627e-06 1.63677e-07)
(0.000826487 -1.38832e-06 1.39469e-07)
(0.000827913 -2.00159e-06 3.73768e-08)
(0.00110352 -1.94781e-06 1.95801e-07)
(0.0008251 -9.37502e-07 1.53627e-07)
(0.000826203 -8.28424e-07 1.52205e-07)
(0.00110166 -1.26071e-06 1.71298e-07)
(0.000823535 -6.82045e-07 4.95488e-08)
(0.000824538 -6.7458e-07 6.11286e-08)
(0.00109965 -9.2233e-07 1.84536e-07)
(0.000821987 -5.17329e-07 6.89044e-08)
(0.000822917 -5.22726e-07 6.01255e-08)
(0.0010976 -6.70771e-07 1.90398e-07)
(0.000820301 -4.34791e-07 8.91999e-08)
(0.000821311 -6.60663e-07 6.72695e-08)
(0.00109537 -5.51568e-07 2.06033e-07)
(0.000819332 -2.68896e-07 6.51468e-08)
(0.000819915 7.13966e-08 5.64696e-08)
(0.00109367 -4.88428e-07 2.19424e-07)
(0.000817436 -3.75536e-08 6.03631e-08)
(0.00081841 -2.74998e-08 7.07237e-08)
(0.00109179 -1.19027e-07 1.83595e-07)
(0.000815747 1.78672e-08 7.40202e-08)
(0.000816573 -4.32854e-07 -6.59121e-10)
(0.00108929 1.20535e-07 1.99021e-07)
(0.000814283 -3.12202e-09 6.3231e-08)
(0.000814959 -5.93674e-07 8.41668e-08)
(0.00108723 2.11089e-08 1.9881e-07)
(0.000812631 1.03542e-07 3.89947e-08)
(0.00081357 -9.43858e-08 6.11981e-08)
(0.00108519 3.9832e-08 1.95141e-07)
(0.000811118 2.46005e-07 4.82087e-08)
(0.000812018 3.48551e-07 4.46718e-08)
(0.00108309 3.09059e-07 1.74315e-07)
(0.000809598 2.5361e-07 6.92844e-08)
(0.000810346 4.40461e-07 7.09978e-08)
(0.00108107 4.45349e-07 1.71603e-07)
(0.000808141 1.64926e-07 5.77741e-08)
(0.000808734 -5.14973e-07 5.07333e-08)
(0.00107907 3.13026e-07 2.11362e-07)
(0.000806649 1.81114e-07 6.2739e-08)
(0.000807307 -2.63685e-08 4.88216e-08)
(0.00107729 1.58931e-07 1.79077e-07)
(0.000804388 2.78957e-08 1.21307e-07)
(0.000805382 -5.93296e-07 4.78657e-08)
(0.00107466 3.20143e-07 3.21167e-07)
(0.000803227 -4.82303e-07 3.65089e-08)
(0.000803379 -5.84083e-07 1.18669e-07)
(0.00107233 -2.60941e-07 1.73998e-07)
(0.000801073 -7.12564e-07 -4.88874e-08)
(0.000802008 3.50449e-06 4.15139e-08)
(0.00107027 -1.03844e-06 -3.92345e-08)
(0.000799347 -5.69105e-07 4.09622e-08)
(0.000800513 1.16981e-06 2.82231e-08)
(0.00106749 -8.67915e-07 8.67698e-08)
(0.000798431 -3.69466e-07 6.11023e-08)
(0.000799139 1.4752e-07 1.43334e-07)
(0.00106583 -6.35588e-07 1.69168e-07)
(0.000797107 -8.70253e-08 3.90078e-08)
(0.000797979 7.79687e-08 1.49873e-07)
(0.00106453 -3.09061e-07 1.23259e-07)
(0.000795262 4.18289e-08 4.84217e-08)
(0.000796232 6.30703e-08 4.5955e-08)
(0.00106235 1.08725e-07 1.73297e-07)
(0.000793707 2.9313e-08 4.80102e-08)
(0.000794433 -6.6562e-08 5.23933e-08)
(0.00106007 3.95456e-08 1.88753e-07)
(0.000791977 7.64375e-08 4.15118e-08)
(0.000792966 1.24726e-07 4.31809e-08)
(0.00105787 8.93499e-08 1.94803e-07)
(0.000790519 2.32306e-07 -8.38491e-09)
(0.00079141 1.62837e-07 4.89665e-08)
(0.00105561 1.6626e-07 1.64697e-07)
(0.000788912 3.81803e-07 9.31562e-09)
(0.000789825 2.31959e-07 -2.01049e-08)
(0.0010537 5.32804e-07 1.92526e-07)
(0.000787943 2.45243e-07 5.36116e-08)
(0.00078837 -8.53012e-07 6.80292e-08)
(0.00105213 5.36132e-07 1.92416e-07)
(0.000786314 2.52143e-08 5.1152e-08)
(0.00078692 1.77373e-07 4.97759e-08)
(0.0010503 1.24553e-07 1.77518e-07)
(0.000784828 -2.51658e-07 9.24011e-08)
(0.000785313 1.91085e-08 7.7204e-08)
(0.00104808 -4.55951e-08 1.57285e-07)
(0.000783604 -3.82306e-07 1.80028e-07)
(0.000784069 1.01161e-06 7.58905e-08)
(0.00104658 -6.06368e-07 2.75061e-07)
(0.000781866 -2.30853e-07 1.38282e-07)
(0.000782724 -3.64418e-07 1.39381e-07)
(0.00104446 -4.01156e-07 1.92858e-07)
(0.000780231 -1.86257e-07 2.42117e-08)
(0.00078106 1.03204e-07 4.56626e-08)
(0.00104212 -2.25494e-07 1.68445e-07)
(0.000778842 -2.40288e-07 4.45286e-08)
(0.00077954 9.24694e-09 3.7667e-08)
(0.00104019 -2.93471e-07 1.6528e-07)
(0.000777509 -3.81052e-07 1.24375e-07)
(0.000778149 -1.08952e-07 6.70382e-08)
(0.0010383 -3.32098e-07 1.78915e-07)
(0.000776088 -4.00036e-07 7.8163e-08)
(0.00077682 -3.74609e-07 1.08871e-07)
(0.00103668 -6.24602e-07 1.70881e-07)
(0.000774234 -2.63109e-07 1.84084e-08)
(0.000775147 1.33459e-06 3.15356e-08)
(0.00103435 -4.0983e-07 8.15675e-08)
(0.000773731 -4.78828e-07 4.53045e-08)
(0.00103197 -3.06319e-07 2.60923e-07)
(-0.00202073 -0.00111893 0.000475762)
(0.00268723 0.00377818 -2.46648e-05)
(0.00619146 -0.00589258 -0.000237942)
(0.00569607 -0.00505853 0.000316645)
(-0.00431773 -0.00466111 0.00161199)
(0.00366629 -0.0049705 0.000324161)
(-0.00348537 0.00408599 0.000506837)
(-0.0105402 -0.0086601 0.000132862)
(-0.00196405 -0.0041415 0.000579979)
(-0.00912136 -0.00349992 0.00126108)
(-0.0133073 -0.00616862 -0.000604724)
(-0.000141325 0.000371887 0.000526032)
(-0.00553614 0.00626384 -0.000673992)
(0.0161274 0.00170662 -0.00259603)
(-0.00595262 0.00590205 0.000952531)
(-0.00474018 -0.0251313 0.00291145)
(0.00519727 -0.00515023 1.87259e-05)
(0.0019986 0.0121944 0.000241763)
(-0.00723586 0.00234625 -0.00141212)
(-0.0079221 0.0363914 0.00406322)
(-0.00743768 -0.0149192 -0.000201491)
(-0.0175036 0.00192641 -0.00101643)
(-0.00163586 -0.0131151 -0.00101584)
(0.00306088 0.0102714 -0.0030097)
(-0.000942959 0.00320951 -0.000534894)
(0.00534102 0.000415427 -0.000382567)
(-0.0120871 0.00410985 0.0027464)
(-0.0367684 0.0121798 0.000140504)
(0.00687302 0.00346879 0.000264156)
(0.00687302 0.00346879 0.000264156)
(-0.0367684 0.0121798 0.000140504)
(0.0139106 -0.0157807 -0.000612214)
(0.0117743 -0.0030451 0.00318494)
(0.018771 -0.00718826 -0.000211017)
(0.0210279 -0.00237884 -2.32768e-05)
(0.0286482 -0.00676414 -0.00149082)
(0.00173612 -0.000595354 4.15958e-05)
(0.000518457 -0.000232178 5.01283e-05)
(0.000561472 -0.000250951 6.81821e-05)
(0.000741834 -0.000330849 0.000111231)
(0.00043205 -0.000183564 3.22859e-05)
(0.000557593 -8.42755e-05 -1.83615e-06)
(0.00053869 -7.69215e-05 -3.78458e-06)
(0.000540297 -6.27971e-05 -3.67879e-07)
(0.000879143 -0.000113676 -1.27762e-06)
(0.000860704 -2.55628e-05 -9.11642e-07)
(0.00093392 -2.00772e-05 -1.80069e-06)
(0.00123128 -3.06622e-05 -1.22979e-06)
(0.000637338 -6.17956e-05 -4.67903e-06)
(0.000652063 -3.20858e-05 -5.18478e-06)
(0.00105819 -0.000120385 -5.46353e-06)
(0.00108375 -5.30912e-05 -6.42726e-06)
(0.000847905 -1.81503e-05 -1.28044e-07)
(0.000846642 -1.46711e-05 -4.77118e-07)
(0.00112243 -2.81376e-05 5.94284e-08)
(0.000840447 -1.00079e-05 7.54851e-08)
(0.000848746 -8.56632e-06 1.37693e-07)
(0.00112732 -1.44942e-05 2.04719e-07)
(0.000835737 -5.96544e-06 3.38376e-08)
(0.00083915 -5.28691e-06 2.24122e-08)
(0.00111657 -8.6773e-06 1.78561e-07)
(0.000832471 -3.6659e-06 4.58359e-08)
(0.000835135 -3.26189e-06 4.94626e-08)
(0.00111228 -5.05838e-06 1.84218e-07)
(0.000829789 -2.3034e-06 4.53338e-08)
(0.000831737 -2.10222e-06 4.61815e-08)
(0.0011084 -3.35885e-06 1.81748e-07)
(0.000827637 -1.34846e-06 5.00755e-08)
(0.000829108 -1.26012e-06 5.08e-08)
(0.0011053 -1.94029e-06 1.82944e-07)
(0.000825633 -7.16274e-07 5.97361e-08)
(0.000826994 -4.34102e-07 5.59984e-08)
(0.00110261 -1.16619e-06 1.93832e-07)
(0.000823887 -2.54043e-07 7.17055e-08)
(0.000825116 -8.46827e-07 5.13032e-08)
(0.00110019 -4.65081e-07 2.10338e-07)
(0.000822256 8.80995e-08 5.84883e-08)
(0.000823344 -7.42161e-07 5.22304e-08)
(0.00109793 -6.93544e-08 2.03312e-07)
(0.000820804 2.4229e-07 3.45426e-08)
(0.000821502 -5.15836e-07 7.21448e-08)
(0.00109588 3.64522e-07 1.62265e-07)
(0.000819169 1.54168e-07 6.20418e-08)
(0.000819804 1.82745e-07 3.82925e-08)
(0.00109385 3.03751e-07 1.79912e-07)
(0.000817542 1.00585e-07 9.7243e-09)
(0.000818343 -1.56803e-07 6.48771e-08)
(0.00109172 1.27162e-07 1.95363e-07)
(0.00081567 2.81701e-07 9.46036e-09)
(0.000816798 1.78845e-07 -1.33834e-08)
(0.00108935 1.69556e-07 1.64843e-07)
(0.000814295 3.87913e-07 8.21411e-08)
(0.00081509 -1.47037e-06 8.59875e-08)
(0.00108711 6.09489e-07 2.2475e-07)
(0.000812959 2.87057e-07 6.68804e-08)
(0.000813442 5.5439e-07 6.47256e-08)
(0.0010855 4.75073e-07 1.14592e-07)
(0.000811248 1.73406e-07 6.74525e-08)
(0.000811875 1.03595e-07 6.60455e-08)
(0.0010835 3.64765e-07 2.09441e-07)
(0.000809486 3.93353e-08 5.24531e-08)
(0.000810177 -2.01271e-08 6.97927e-08)
(0.00108102 1.68936e-07 2.28764e-07)
(0.000807844 -1.35721e-07 4.17814e-08)
(0.000808516 1.95842e-08 3.63357e-08)
(0.00107875 -6.64389e-09 1.48218e-07)
(0.000806326 -5.15044e-07 3.39486e-08)
(0.000806835 -8.19231e-08 5.55976e-08)
(0.00107678 -3.22258e-07 1.78603e-07)
(0.000804078 -6.67533e-07 4.52053e-08)
(0.000805194 1.51926e-06 -1.56938e-08)
(0.00107434 -1.06674e-06 9.00119e-08)
(0.000802151 -6.51638e-07 1.23698e-07)
(0.000803401 -1.58342e-07 4.10964e-08)
(0.00107134 -7.67864e-07 1.8044e-07)
(0.000801522 -5.81529e-07 1.18629e-07)
(0.000802098 8.60922e-08 1.28234e-07)
(0.00106975 -9.73446e-07 3.37718e-07)
(0.000800185 -7.34964e-08 1.30559e-07)
(0.000801149 -1.42895e-07 6.21344e-08)
(0.00106857 -5.31156e-07 2.51705e-07)
(0.000798714 3.25291e-07 2.32103e-07)
(0.000799637 5.19999e-07 2.54084e-07)
(0.0010666 4.06459e-07 1.44219e-07)
(0.000797354 1.9291e-07 1.56853e-07)
(0.000797812 6.73992e-07 1.96376e-07)
(0.00106484 5.4907e-07 1.18671e-07)
(0.000795146 5.00337e-08 4.99245e-08)
(0.000796053 8.166e-07 7.30405e-08)
(0.00106242 3.19792e-08 1.83301e-07)
(0.000793742 1.17139e-07 4.75669e-08)
(0.000794516 -4.42742e-08 5.25542e-08)
(0.00105993 1.46861e-07 1.63886e-07)
(0.000792418 1.71036e-07 5.06339e-08)
(0.000793033 -1.30413e-07 5.02359e-08)
(0.00105819 1.88185e-07 1.77181e-07)
(0.000790737 2.79079e-07 3.72679e-08)
(0.000791544 2.00142e-07 5.20946e-08)
(0.0010563 3.09675e-07 1.88604e-07)
(0.000789177 4.11487e-07 3.85814e-08)
(0.000789989 4.30321e-07 3.32391e-08)
(0.00105403 5.27103e-07 1.66648e-07)
(0.000787419 3.21466e-07 6.41991e-08)
(0.000788256 -6.96023e-07 4.71449e-08)
(0.00105174 6.41857e-07 1.87856e-07)
(0.00078594 1.18392e-07 7.58195e-08)
(0.000786665 -6.2601e-08 5.11561e-08)
(0.00104968 2.21658e-07 1.91884e-07)
(0.000784408 -1.49936e-08 6.06937e-08)
(0.000785146 7.90524e-08 5.81148e-08)
(0.00104762 7.65078e-08 1.75411e-07)
(0.00078334 -2.0242e-07 3.52244e-08)
(0.000783836 2.89428e-07 1.1815e-07)
(0.00104585 -1.32017e-07 1.90545e-07)
(0.00078191 -1.87841e-07 4.67908e-08)
(0.000782744 -2.0637e-08 6.376e-08)
(0.00104439 -4.57326e-07 1.46672e-07)
(0.000780319 -9.21189e-08 5.91203e-08)
(0.000781181 -4.21314e-08 7.26893e-08)
(0.00104231 -1.08521e-07 1.97084e-07)
(0.000778804 -2.52255e-08 6.01676e-08)
(0.000779624 4.12744e-08 5.56036e-08)
(0.00104023 -1.79577e-07 1.77711e-07)
(0.000777481 -3.38383e-08 5.15205e-08)
(0.000778139 3.42912e-07 6.71256e-08)
(0.0010384 1.09291e-07 1.30167e-07)
(0.000776009 -2.49239e-07 6.22667e-08)
(0.000776551 -4.03024e-07 4.90562e-08)
(0.00103646 -1.64331e-07 1.78995e-07)
(0.000774392 -3.00276e-07 5.84275e-08)
(0.000775086 4.67088e-07 7.38751e-08)
(0.00103433 -4.69893e-07 2.54049e-07)
(0.000774105 7.48902e-08 5.53614e-08)
(0.00103292 -3.1551e-07 8.76959e-08)
(0.0025665 0.00724203 -0.000219079)
(0.000758032 0.00426676 -8.9965e-05)
(-0.000568521 0.00618047 -0.000177559)
(0.00169 0.00605094 0.000394078)
(0.00812538 0.00540095 -0.000190296)
(0.0037231 0.00992248 -0.000502487)
(0.00312817 0.00109781 0.00019117)
(0.00773204 0.00968769 0.0017633)
(0.00299505 0.00273878 0.000211136)
(0.00443925 -0.00455421 0.000187068)
(-0.00369032 0.00150866 0.000203328)
(0.00336573 -0.00261489 0.000194585)
(0.0097793 0.00379522 -0.000178833)
(-0.00722621 0.00976804 -0.000249374)
(-0.0145388 0.00279265 -0.000379213)
(-0.00160505 0.00158762 0.000619164)
(-0.00137885 0.00920577 0.00190605)
(-0.00384863 -0.00973705 0.000495429)
(-0.00756195 -0.00667164 -0.000564565)
(0.00687302 0.00346879 0.000264156)
(-0.00756195 -0.00667164 -0.000564565)
(0.00687302 0.00346879 0.000264156)
(-0.00723364 0.00399262 -0.00544669)
(0.00257678 -9.55191e-05 -0.00597211)
(0.00687302 0.00346879 0.000264156)
(0.00687302 0.00346879 0.000264156)
(0.00257678 -9.55191e-05 -0.00597211)
(0.00722485 0.00472505 0.000237016)
(0.0161631 0.00359881 0.000378007)
(0.00667219 0.00179894 0.000343727)
(0.0100964 0.00279885 0.000911336)
(0.00792349 0.00372699 0.000928455)
(0.00182141 -1.8611e-08 5.27834e-05)
(0.00216839 0.000357325 4.8524e-05)
(0.00217405 0.000241064 0.00012034)
(0.00264678 0.000224749 -1.10129e-05)
(0.00204574 0.000130522 7.80715e-05)
(0.000406381 8.17213e-06 -3.00499e-06)
(0.000558737 -7.3376e-06 -3.53805e-06)
(0.00054299 8.58657e-06 -1.83703e-07)
(0.000900989 -9.90324e-06 -1.62893e-06)
(0.000392103 1.65957e-05 -1.76807e-06)
(0.000750252 3.21797e-05 -3.02052e-06)
(0.000723891 5.44086e-05 2.68991e-06)
(0.000549265 -2.76738e-05 -6.05476e-07)
(0.000871253 -4.86802e-06 -1.3666e-06)
(0.000920979 9.2735e-06 -2.11119e-06)
(0.00125173 -5.59288e-06 -1.271e-06)
(0.000663305 -5.50631e-06 -4.27663e-06)
(0.000661485 2.13366e-05 -5.33181e-06)
(0.00109649 -4.17482e-06 -5.12624e-06)
(0.00109465 5.35759e-05 -6.75065e-06)
(0.000854768 -3.3714e-06 -2.11582e-07)
(0.000848616 5.74978e-06 -4.17901e-07)
(0.00113114 -3.05589e-06 5.74306e-08)
(0.000844629 -2.66852e-06 8.4658e-08)
(0.000849616 1.80699e-06 1.37558e-07)
(0.00113381 -3.11352e-06 2.05924e-07)
(0.000838318 -1.85086e-06 3.80283e-08)
(0.000840167 6.74248e-07 2.76849e-08)
(0.00112027 -2.17903e-06 1.80733e-07)
(0.000834062 -1.29263e-06 4.98093e-08)
(0.00083583 6.13954e-08 5.32231e-08)
(0.0011146 -1.58955e-06 1.85843e-07)
(0.000830861 -8.58023e-07 5.16463e-08)
(0.000832279 -7.41285e-08 5.10112e-08)
(0.00110989 -1.11072e-06 1.84099e-07)
(0.000828317 -5.37995e-07 5.67213e-08)
(0.000829507 -5.87826e-08 5.18667e-08)
(0.00110627 -7.06549e-07 1.84341e-07)
(0.000826447 -3.51483e-07 4.75671e-08)
(0.000827227 -1.9718e-07 5.44119e-08)
(0.0011035 -4.33978e-07 1.92782e-07)
(0.000824522 -2.12207e-07 3.18278e-08)
(0.00082529 8.53282e-08 4.57423e-08)
(0.00110102 -3.21821e-07 1.49482e-07)
(0.000822656 -1.33757e-07 6.58805e-08)
(0.000823442 3.32672e-07 3.56119e-08)
(0.00109864 -1.46604e-07 1.3418e-07)
(0.000820345 -5.97995e-08 7.59056e-08)
(0.000821595 5.04055e-07 8.14838e-08)
(0.00109584 -1.76293e-07 1.75949e-07)
(0.000818991 2.75245e-08 4.11193e-08)
(0.000819913 -1.79225e-07 3.65226e-08)
(0.00109337 1.58001e-08 1.88276e-07)
(0.000817621 2.92718e-08 4.17945e-08)
(0.000818345 -2.83876e-07 4.42224e-08)
(0.00109162 4.31128e-08 1.7292e-07)
(0.000816291 8.62801e-08 6.3112e-08)
(0.000816869 -1.32768e-07 5.08812e-08)
(0.00108989 2.80442e-08 1.81903e-07)
(0.00081415 1.54506e-07 6.85788e-08)
(0.000815175 3.68919e-08 5.67524e-08)
(0.00108761 2.05415e-07 1.2543e-07)
(0.000812355 5.66595e-08 6.38903e-08)
(0.000813319 3.51426e-07 6.4176e-08)
(0.00108488 2.22377e-07 2.14051e-07)
(0.000810827 -5.92393e-10 6.83844e-08)
(0.000811803 -3.24487e-07 3.41918e-08)
(0.0010827 -8.42581e-08 2.06254e-07)
(0.000809198 -4.32392e-08 5.36858e-08)
(0.000810124 2.24137e-07 4.48534e-08)
(0.00108061 4.06608e-08 1.67779e-07)
(0.00080755 -1.27436e-07 5.01458e-08)
(0.000808411 5.4014e-09 5.00822e-08)
(0.00107846 -1.53479e-07 1.87208e-07)
(0.000805674 -1.79887e-07 5.97768e-09)
(0.00080677 -9.47794e-08 7.46462e-08)
(0.00107597 -1.42628e-07 2.07015e-07)
(0.000804647 2.92049e-08 -1.98206e-08)
(0.000805455 -6.5863e-07 -5.22866e-09)
(0.00107411 -2.84298e-07 2.84797e-07)
(0.000802895 5.61372e-07 4.56054e-08)
(0.000804065 -7.02404e-07 4.43049e-08)
(0.00107245 3.98146e-07 2.33538e-07)
(0.000801999 7.55968e-07 7.1761e-08)
(0.000802339 -1.09709e-06 4.63707e-08)
(0.00107057 1.095e-06 2.03344e-07)
(0.000800614 5.40104e-07 1.85599e-07)
(0.000800877 -1.80398e-06 1.13924e-08)
(0.00106922 9.04999e-07 2.80647e-07)
(0.000798845 3.47112e-07 2.18375e-07)
(0.000799394 4.12252e-07 1.78823e-07)
(0.00106718 5.35918e-07 2.04786e-07)
(0.000796405 1.36337e-07 1.12602e-07)
(0.000797547 1.43311e-07 9.05872e-08)
(0.00106406 3.95803e-07 2.94798e-07)
(0.000795387 5.8245e-08 7.56765e-08)
(0.000795955 1.05566e-07 7.27051e-08)
(0.00106184 -2.12463e-08 1.81589e-07)
(0.000793819 1.40968e-07 5.52239e-08)
(0.000794619 -5.2152e-08 4.87255e-08)
(0.00106026 1.68987e-07 1.80778e-07)
(0.000792163 9.34764e-08 5.1696e-08)
(0.000792973 8.15874e-09 1.10448e-07)
(0.00105807 1.9068e-07 1.78636e-07)
(0.000790733 5.84748e-08 4.80716e-08)
(0.0007915 1.0581e-07 4.46066e-08)
(0.00105603 5.58084e-08 1.75609e-07)
(0.000789218 5.22488e-08 4.17983e-08)
(0.000789981 4.78727e-07 3.23319e-08)
(0.00105411 7.2899e-08 1.73279e-07)
(0.000787346 7.12288e-08 3.41006e-08)
(0.000788279 -2.95827e-07 3.47242e-08)
(0.00105174 4.0776e-08 1.80691e-07)
(0.000785993 1.64283e-07 3.34493e-08)
(0.000786781 1.59716e-08 4.47511e-08)
(0.00104959 1.4002e-07 1.57488e-07)
(0.000784333 3.38546e-07 1.15553e-07)
(0.000785362 1.72926e-07 3.90893e-08)
(0.00104764 2.88901e-07 1.84554e-07)
(0.000783403 4.09258e-07 1.46702e-07)
(0.000783922 6.58999e-07 1.38146e-07)
(0.00104592 6.41151e-07 9.90983e-08)
(0.000782088 2.43407e-07 8.96558e-08)
(0.000782534 3.5376e-07 1.51549e-08)
(0.0010445 5.286e-07 1.34088e-07)
(0.000780404 1.60233e-07 6.91779e-08)
(0.000781075 1.33733e-07 5.79673e-08)
(0.00104248 2.40675e-07 1.82145e-07)
(0.000778937 2.5459e-07 6.25582e-08)
(0.00077974 -1.26796e-07 4.86876e-08)
(0.00104046 3.03857e-07 1.88002e-07)
(0.000777219 2.31863e-07 6.46668e-08)
(0.000778109 2.04636e-07 7.94036e-08)
(0.00103832 4.32391e-07 2.09107e-07)
(0.00077561 1.10344e-07 6.06571e-08)
(0.000776398 -6.45765e-08 5.47864e-08)
(0.00103596 2.28601e-07 1.64636e-07)
(0.000774611 7.24346e-08 7.08146e-08)
(0.000775037 -2.35804e-07 5.2426e-08)
(0.00103417 1.08986e-07 1.85545e-07)
(0.000774015 1.22154e-07 6.37127e-08)
(0.00103295 9.89254e-08 1.62443e-07)
(0.00653022 0.000547881 -6.11488e-05)
(0.00275672 -0.00135852 -0.000181205)
(-0.00252238 -0.00444627 -0.000100856)
(0.00852912 -0.00286882 -0.000138987)
(0.00896344 0.00197734 -0.000272588)
(0.0109631 0.00479322 0.00461684)
(0.0235589 0.00617115 -0.00224895)
(0.00795189 0.00352258 0.00279725)
(0.00876757 0.00172308 -0.00491422)
(0.00510065 -0.00916512 0.000380983)
(0.000966281 -0.00502922 -0.000438735)
(0.00717177 -0.00589044 -0.00273498)
(0.00955473 -0.0117383 -0.00147029)
(0.00369366 -0.00744474 0.000525582)
(0.00834719 -0.014573 0.00335975)
(0.00263872 -0.00326735 0.000225472)
(0.00285025 -0.00649978 0.000298677)
(0.00458765 -0.00120164 0.000245442)
(0.00711223 -0.00579551 -0.000119438)
(0.00856699 -0.00470427 0.000341132)
(3.021e-05 -3.64747e-06 -0.000421908)
(-0.00347807 0.00192979 -0.00260792)
(0.00288512 -0.00592162 -0.000311469)
(0.00940459 -0.00463998 0.000876464)
(0.0133708 -0.00448758 -0.000433376)
(-0.0015179 0.00814124 0.000822651)
(0.00255832 -0.00546805 0.00043622)
(0.00318955 -0.00823145 0.000180974)
(0.00653782 -0.00589014 0.00131196)
(0.00379052 0.0195209 -0.000412719)
(-0.00499027 0.0119392 0.000290332)
(-0.00521314 0.000565623 0.000343829)
(-0.0042276 0.0259225 0.00165889)
(-0.00041108 0.00852887 0.000224631)
(-4.29433e-05 0.00584949 -1.88832e-05)
(-0.00225001 0.00856902 -9.56809e-05)
(-0.00071014 0.00852782 -0.000229938)
(0.00014476 0.00929473 0.000127775)
(-0.00219899 0.00813549 -0.000361713)
(-0.000238413 0.000521783 1.10857e-06)
(2.57673e-05 0.000525706 -1.2617e-05)
(-0.000292663 0.000472419 -4.96335e-06)
(-0.000179698 0.000280928 -4.03819e-05)
(0.000283195 0.000346421 5.38113e-05)
(0.000319508 -9.50098e-06 1.67446e-05)
(0.000371104 2.18221e-05 1.50817e-06)
(0.000300675 4.32178e-06 2.08577e-06)
(0.000502055 2.20361e-05 6.60315e-06)
(0.000255477 8.1469e-06 -7.29985e-07)
(0.000857842 1.73774e-05 -1.16305e-06)
(0.00089411 2.95338e-05 -1.54046e-06)
(0.00119422 2.92551e-05 -1.49217e-06)
(0.000631677 2.45515e-05 -4.08158e-06)
(0.000643934 2.00774e-05 -4.98229e-06)
(0.00106049 4.48273e-05 -4.75797e-06)
(0.00108706 3.2691e-05 -6.02087e-06)
(0.00084976 8.93291e-06 -6.89423e-08)
(0.000837898 1.48858e-05 -3.69941e-07)
(0.00112581 1.54571e-05 1.08019e-07)
(0.000842546 4.48297e-06 8.06204e-08)
(0.000844028 8.54403e-06 1.68167e-07)
(0.00112838 7.6079e-06 2.01704e-07)
(0.00083731 2.26248e-06 4.28714e-08)
(0.000837379 5.3015e-06 1.71468e-07)
(0.00111845 4.0026e-06 1.78102e-07)
(0.000833652 1.15412e-06 5.44258e-08)
(0.000834438 2.61594e-06 1.58651e-07)
(0.0011136 1.88175e-06 1.85881e-07)
(0.000830721 7.57128e-07 5.12314e-08)
(0.000831779 1.60755e-06 5.52072e-08)
(0.0011095 1.12268e-06 1.8398e-07)
(0.000828244 5.60251e-07 4.95565e-08)
(0.000829259 1.0601e-06 2.39382e-08)
(0.00110614 8.49808e-07 1.83781e-07)
(0.000825967 2.83013e-07 5.25899e-08)
(0.000826878 7.24875e-07 3.91154e-08)
(0.00110308 6.09776e-07 1.80315e-07)
(0.000824229 -1.14804e-08 4.95297e-08)
(0.000824921 1.86732e-07 5.37217e-08)
(0.00110055 1.35847e-07 1.90382e-07)
(0.000822351 -2.17805e-07 5.12005e-08)
(0.000823185 3.8216e-07 4.75913e-08)
(0.00109811 -1.36121e-07 2.05783e-07)
(0.000821078 -2.11802e-07 4.21153e-08)
(0.000821603 9.55392e-08 6.21289e-08)
(0.00109608 -4.10402e-07 1.84991e-07)
(0.000819267 -1.00957e-07 3.96233e-08)
(0.000820053 1.97635e-07 6.12702e-08)
(0.00109413 -1.57962e-07 1.76703e-07)
(0.000817535 -1.27098e-07 5.3307e-08)
(0.000818313 -1.51973e-08 5.90689e-08)
(0.00109174 -1.37528e-07 1.76888e-07)
(0.000815925 -2.92466e-07 4.45197e-08)
(0.000816664 -1.02117e-07 4.44917e-08)
(0.00108955 -2.21797e-07 1.82446e-07)
(0.000814208 -3.63427e-07 5.23473e-08)
(0.000815088 4.41495e-07 4.00047e-08)
(0.00108735 -5.68161e-07 1.65279e-07)
(0.000812735 -2.33256e-07 3.4487e-08)
(0.000813484 -7.6018e-08 8.21415e-08)
(0.00108514 -4.14194e-07 2.01586e-07)
(0.000811249 -1.48677e-07 1.06574e-08)
(0.00081191 -1.44411e-07 4.40832e-08)
(0.00108327 -2.37087e-07 1.6008e-07)
(0.000809162 -1.08274e-08 4.12482e-08)
(0.000810297 9.89685e-07 5.04171e-08)
(0.00108094 -1.75507e-07 1.71414e-07)
(0.000807758 1.89015e-07 7.45749e-08)
(0.00080866 -2.2101e-07 6.70096e-08)
(0.00107852 1.58149e-07 1.80649e-07)
(0.000806309 5.20088e-07 6.3465e-08)
(0.000807181 -5.94645e-07 4.50849e-08)
(0.00107662 3.95715e-07 2.03825e-07)
(0.000805191 6.95177e-07 5.88813e-08)
(0.000805671 -2.34965e-06 2.04806e-08)
(0.00107502 1.0907e-06 2.58543e-07)
(0.000803296 6.87419e-07 4.50696e-08)
(0.000804052 3.25439e-07 4.87204e-08)
(0.00107306 8.93096e-07 1.35215e-07)
(0.000801295 7.35541e-07 -1.39869e-08)
(0.000802395 -3.62947e-07 3.69949e-08)
(0.00107037 1.03655e-06 1.65397e-07)
(0.000799579 4.66259e-07 4.56381e-09)
(0.000800537 2.34467e-07 -2.08914e-09)
(0.00106787 9.87385e-07 4.77217e-08)
(0.000798314 8.84125e-08 5.10628e-08)
(0.00079892 -2.95642e-08 4.40031e-08)
(0.00106596 2.98299e-07 1.8376e-07)
(0.000796782 7.4882e-08 5.06957e-08)
(0.00079753 8.33168e-08 5.28901e-08)
(0.00106414 -4.87523e-08 1.80589e-07)
(0.000795384 1.42935e-07 4.57615e-08)
(0.000796039 3.65464e-07 5.87857e-08)
(0.00106214 2.49835e-07 1.46254e-07)
(0.000793732 6.65001e-08 1.0393e-07)
(0.000794523 6.6795e-08 4.573e-08)
(0.00106019 1.1648e-07 1.79277e-07)
(0.000792223 2.30159e-08 1.03379e-07)
(0.000792919 -2.43027e-08 1.04683e-07)
(0.00105805 4.35463e-08 1.77682e-07)
(0.000790832 -1.20553e-07 2.88707e-08)
(0.000791321 -5.88109e-08 4.6442e-08)
(0.00105615 -1.32927e-08 1.7713e-07)
(0.00078904 -2.34556e-07 2.52571e-08)
(0.00078984 1.72e-06 5.66066e-08)
(0.00105401 -3.51962e-07 1.12525e-07)
(0.000787644 -1.07502e-07 4.53716e-08)
(0.000788439 -2.53162e-07 6.09456e-08)
(0.00105182 -3.27838e-07 1.63538e-07)
(0.000786242 1.11865e-08 5.03929e-08)
(0.00078693 -1.07499e-07 5.5488e-08)
(0.00104999 -1.68381e-10 1.76593e-07)
(0.000784827 1.03877e-07 6.16525e-08)
(0.000785478 1.13474e-07 1.7544e-07)
(0.00104824 4.83079e-08 1.73526e-07)
(0.000783145 1.3976e-07 6.63658e-09)
(0.000783966 -4.20517e-08 4.30431e-08)
(0.00104615 2.89578e-07 2.44565e-07)
(0.000781438 -1.79117e-08 -1.65467e-08)
(0.000782336 3.12535e-08 -6.6105e-08)
(0.00104388 1.57361e-07 2.19942e-07)
(0.000780415 -9.95686e-08 3.74799e-08)
(0.000780972 4.63828e-08 3.67993e-08)
(0.00104202 -1.26968e-07 1.41328e-07)
(0.000779102 -9.91194e-08 6.55237e-08)
(0.000779741 -1.14312e-07 4.44528e-08)
(0.00104046 -8.01188e-08 1.60886e-07)
(0.000777043 -3.56555e-08 6.95308e-08)
(0.000778188 -5.69043e-07 2.15097e-08)
(0.0010383 -1.57505e-07 2.86404e-07)
(0.000775888 1.65045e-07 4.65561e-08)
(0.000776649 -3.30424e-07 -9.49172e-08)
(0.00103606 6.53852e-08 1.67372e-07)
(0.000774294 2.5424e-07 4.53207e-08)
(0.000775146 4.68317e-08 2.34689e-08)
(0.00103416 3.55478e-07 1.67818e-07)
(0.000773698 3.67025e-07 7.09997e-08)
(0.00103266 3.10929e-07 1.24621e-07)
(0.00502333 0.001284 -0.000392614)
(0.0017288 0.000147617 -0.000243043)
(0.00254603 -0.000104899 -0.000450087)
(-0.000638098 0.000862801 -0.000527776)
(0.00306475 0.00665571 -2.51115e-05)
(0.00730029 0.00647363 0.000452879)
(0.00493924 -0.00336363 -0.00200551)
(0.00109042 0.00316678 -0.000951476)
(0.00315729 -0.00238165 0.00247576)
(0.00101241 0.00211505 0.000154559)
(0.00316869 0.0017689 -0.000510952)
(0.00411019 0.0103108 0.000854718)
(-0.00333715 0.0052048 3.42716e-05)
(0.00154246 0.00636911 0.000262411)
(0.00505771 0.00566133 0.000770893)
(0.00495479 0.00063796 4.88604e-05)
(-0.00166476 0.00273935 -1.74964e-05)
(-0.00313596 0.000896888 -0.000988587)
(-0.00975749 0.00210784 7.35205e-05)
(0.00297324 0.00162038 4.80277e-05)
(0.00175576 -0.00101462 0.00140082)
(0.00812459 0.00249837 0.000631364)
(0.00203149 0.00014795 0.000141901)
(-0.00339668 -0.0165977 0.000237966)
(0.00148533 -0.0124001 0.000233708)
(-0.00454893 -0.00534279 -0.00149389)
(-0.00895605 -0.00872689 -0.000212314)
(-0.00091625 -0.00663803 -0.0020865)
(-0.0055072 -0.00717912 -2.31543e-05)
(-0.00549386 -0.00333678 -0.000177545)
(-4.50246e-05 -0.0125393 -0.000797012)
(0.000940401 0.000774434 -0.00013779)
(-0.00141474 -0.00192861 3.27456e-05)
(0.00225399 -9.86947e-05 -4.86717e-05)
(-4.52133e-05 0.000248594 -0.000147322)
(-3.20663e-05 -0.000275279 -0.000273401)
(0.00191358 -0.000328356 -2.75246e-05)
(0.00143958 0.000642106 -9.09345e-05)
(0.00182872 0.000418339 2.33094e-05)
(0.00204989 0.000540746 3.33386e-05)
(0.00198131 0.000526203 -6.54797e-05)
(0.00134065 0.000743381 -7.61405e-05)
(0.000909438 0.00109883 -0.000179169)
(0.00236325 0.00140447 8.73131e-06)
(0.00174159 0.000632259 3.93745e-06)
(0.00189501 0.000489261 -7.4849e-06)
(0.00144811 0.000472875 2.20424e-05)
(0.00138122 0.000430978 0.00010592)
(0.00166807 0.000626979 2.19152e-05)
(0.00126578 0.00036009 0.000121428)
(0.000765921 3.52374e-06 2.26071e-05)
(0.000407841 3.01736e-05 1.30063e-05)
(0.000459759 2.19202e-05 2.48124e-05)
(0.000633875 7.56169e-05 4.08165e-05)
(0.000289558 4.45639e-05 9.35135e-06)
(0.000838719 2.00543e-05 -7.47742e-07)
(0.000888313 1.88663e-05 -1.17776e-06)
(0.00118271 3.1552e-05 -1.1506e-06)
(0.000616851 2.43274e-05 -4.05547e-06)
(0.000611612 1.64832e-05 -4.91883e-06)
(0.00102454 3.98172e-05 -4.58384e-06)
(0.00101074 2.02596e-05 -5.571e-06)
(0.000839151 1.13923e-05 -1.33007e-07)
(0.000827119 1.35823e-05 -4.65778e-07)
(0.00110361 1.6317e-05 9.07915e-08)
(0.0008369 7.07073e-06 2.59013e-07)
(0.000838611 8.90621e-06 1.9205e-07)
(0.00111942 1.05665e-05 2.1169e-07)
(0.000834237 4.33648e-06 2.87251e-07)
(0.000833952 6.59963e-06 2.0944e-07)
(0.00111308 6.12601e-06 1.84579e-07)