/*--------------------------------*- C++ -*----------------------------------*\
| =========                 |                                                 |
| \\      /  F ield         | OpenFOAM: The Open Source CFD Toolbox           |
|  \\    /   O peration     | Version:  5.0                                   |
|   \\  /    A nd           | Web:      www.OpenFOAM.org                      |
|    \\/     M anipulation  |                                                 |
\*---------------------------------------------------------------------------*/
FoamFile
{
    version     2.0;
    format      ascii;
    class       surfaceScalarField;
    location    "4.4";
    object      alphaPhi10;
}
// * * * * * * * * * * * * * * * * * * * * * * * * * * * * * * * * * * * * * //

dimensions      [0 3 -1 0 0 0 0];

internalField   nonuniform List<scalar> 
26113
(
-5.30031e-09
1.38228e-08
-5.43899e-08
1.26542e-08
1.40808e-08
1.33793e-08
-4.50487e-08
-5.22392e-08
-5.75318e-08
-2.84862e-08
4.60984e-08
-1.95036e-07
-3.05809e-08
-2.87039e-08
-2.73692e-08
-2.40696e-07
-1.85753e-07
-1.82258e-07
-3.2962e-09
-2.8938e-08
-2.29346e-08
-7.44489e-09
3.7594e-08
2.97666e-08
3.74224e-08
1.75474e-08
-1.29667e-08
1.00391e-08
-1.54743e-09
-1.16699e-08
-4.21814e-09
-2.20843e-09
2.0181e-08
-6.34846e-11
6.27721e-08
6.28101e-08
6.28116e-08
-2.49413e-22
1.66755e-18
-9.70363e-19
2.28774e-16
7.09707e-16
-5.44955e-16
-3.91927e-16
1.75011e-18
1.96134e-18
1.76154e-18
-4.45743e-24
7.87338e-23
2.81051e-24
5.1645e-27
6.14095e-26
-4.36498e-27
1.04582e-27
1.38421e-28
-8.08481e-30
1.64968e-29
2.30774e-30
1.55541e-31
5.29443e-33
3.54876e-33
-7.55847e-33
3.61511e-37
7.00831e-37
-4.05892e-35
1.01486e-40
1.1036e-40
-2.11494e-39
4.0936e-44
4.30925e-44
-1.08339e-41
1.70371e-47
4.49163e-48
-2.65058e-45
7.1637e-51
1.32021e-51
-5.32502e-49
3.00692e-54
-3.01306e-55
-3.00836e-51
1.27152e-57
3.59036e-58
-7.64155e-55
5.53152e-61
1.61906e-61
-6.1826e-58
2.34544e-64
1.45763e-65
-1.51581e-60
9.81492e-68
-1.37543e-68
-5.60833e-65
4.19963e-71
2.15416e-72
2.7593e-69
2.45257e-74
-2.11534e-75
-2.00015e-70
1.84887e-77
-6.5973e-79
5.49239e-75
5.05434e-81
4.91268e-82
1.95541e-76
2.70798e-84
-1.84234e-87
-7.13293e-80
2.68202e-87
-5.13094e-88
1.55489e-82
9.05738e-91
-8.56648e-92
7.8918e-87
5.6231e-94
3.739e-94
-1.33885e-90
2.37004e-97
3.14873e-98
-3.9816e-93
5.73374e-100
1.35983e-101
2.87625e-95
1.17846e-102
-6.1102e-103
2.77792e-98
2.59642e-106
6.15595e-108
-5.36591e-103
1.86281e-109
3.36682e-110
6.35662e-105
1.98942e-112
6.70659e-114
-1.54041e-108
5.51063e-115
4.57653e-116
-1.52655e-111
4.87317e-119
-1.70417e-119
2.32246e-118
1.56114e-122
-2.07042e-123
2.15299e-123
1.54343e-125
9.3229e-127
-3.39014e-121
3.78439e-128
7.61782e-131
-1.91212e-124
4.18456e-131
9.31928e-132
-9.74587e-127
9.75551e-134
2.20914e-134
-3.98793e-130
1.36188e-137
-7.43301e-139
2.1807e-133
1.16982e-140
3.40288e-141
8.42811e-137
2.30898e-144
7.61461e-145
-1.16612e-139
3.32745e-147
-2.05726e-150
-8.99853e-144
3.32616e-149
1.34167e-150
-2.95998e-146
4.77067e-154
4.55795e-154
9.9784e-09
1.43073e-09
1.16605e-08
1.6258e-08
6.67915e-09
5.90405e-08
8.71824e-09
7.40391e-09
8.13717e-09
-2.09338e-07
-1.95758e-07
8.68401e-08
6.33609e-08
6.68859e-08
6.39535e-08
6.73602e-08
2.34781e-08
-2.01475e-08
2.06403e-08
-1.05914e-08
-1.00198e-08
-9.28763e-09
-1.19343e-08
1.76203e-08
-7.02986e-08
-5.00601e-07
1.65467e-07
2.2021e-08
4.77971e-08
-7.82718e-08
-6.27805e-08
-7.31293e-08
-7.38299e-09
-3.08044e-09
-6.25463e-09
-4.60922e-09
2.13565e-08
4.11476e-08
1.81508e-08
-5.48738e-08
-6.42341e-09
2.03206e-08
-9.43553e-09
2.21091e-09
-8.26284e-09
8.91725e-11
-9.40754e-11
1.79506e-08
-8.77602e-12
1.79223e-08
-2.13929e-18
1.74083e-18
2.76599e-08
2.86918e-18
-2.31656e-18
-1.69115e-18
-2.57015e-18
-1.13005e-24
-2.66861e-22
2.07698e-23
6.73983e-22
1.65675e-21
1.13859e-21
-8.17799e-22
1.39241e-25
4.08305e-26
2.41073e-26
1.07848e-27
5.01146e-27
8.44285e-31
3.33252e-31
-9.97687e-29
-7.09825e-30
1.45686e-34
-6.16325e-31
-1.26284e-33
7.40331e-38
-3.4255e-35
-1.34878e-36
1.73564e-41
-4.82687e-39
-2.81756e-40
6.38393e-45
-9.63829e-43
9.23911e-43
2.66923e-48
-2.67918e-46
-1.69047e-46
1.14124e-51
-4.65711e-51
-2.85019e-49
4.88045e-55
3.1623e-53
-1.68873e-51
2.0674e-58
-9.92459e-57
5.15368e-56
8.89492e-62
3.20976e-61
-4.68672e-59
3.97312e-65
-4.54418e-64
1.55175e-62
1.89785e-68
2.13089e-67
-1.25975e-65
8.50996e-72
-1.49344e-70
1.09425e-67
3.53348e-75
-4.80163e-74
4.08493e-71
1.92744e-78
6.10316e-78
-2.39988e-75
1.31971e-81
1.1203e-80
-1.76876e-77
3.86554e-85
-1.39856e-84
3.91629e-81
1.86495e-88
-2.6955e-86
-4.71791e-84
1.06249e-91
-5.16814e-89
4.53359e-87
1.27859e-94
1.00975e-96
4.60827e-91
1.69498e-97
7.71357e-99
-2.81669e-93
4.08348e-101
-4.64309e-98
-2.6491e-97
3.54343e-104
-8.55964e-101
3.20044e-98
1.49834e-107
2.28221e-108
-1.2551e-102
8.92949e-111
4.50239e-109
2.48322e-106
3.89927e-114
-1.06001e-112
-2.63149e-109
9.64387e-117
1.18482e-118
-2.56527e-119
1.41233e-118
-1.67587e-118
-6.20803e-115
1.4427e-122
-1.18421e-122
9.9405e-119
2.99779e-126
-3.69875e-125
3.11765e-122
1.69949e-129
-7.25953e-129
-4.76021e-125
5.15843e-133
-7.0363e-131
-5.42575e-128
2.46138e-136
-7.01315e-137
3.71687e-137
2.06372e-139
-3.42337e-139
1.06936e-134
9.83843e-143
-7.58734e-143
-5.46046e-138
7.58836e-146
5.9455e-144
-1.65475e-140
1.49395e-149
-1.64562e-147
2.92434e-145
8.63602e-152
2.64792e-151
4.42213e-147
-1.32221e-155
-1.66567e-150
1.10177e-08
-1.40152e-10
-1.20752e-09
8.6753e-09
1.11879e-09
8.83049e-08
1.0386e-07
7.30947e-08
-5.63273e-08
-1.28251e-08
6.42124e-07
-2.51004e-08
-2.74976e-08
-2.19449e-08
-3.50149e-09
9.93309e-11
-5.47953e-09
7.21829e-07
5.66365e-07
6.85874e-07
8.08726e-10
-5.00336e-09
-7.21124e-10
-9.94842e-09
-3.04713e-08
-2.26043e-08
-1.66379e-10
-6.5771e-08
-1.1717e-07
-1.97365e-08
-1.17486e-08
-1.19667e-07
-1.64351e-09
4.05497e-09
6.57481e-10
5.40125e-09
-5.67481e-09
4.84814e-10
3.95558e-10
8.5893e-10
-1.4323e-10
1.35592e-09
-3.24956e-17
-1.42171e-18
-1.40395e-16
-9.03568e-14
1.11814e-14
7.96082e-14
5.43823e-17
-5.74826e-09
-5.74826e-09
-5.74826e-09
-5.74826e-09
1.65599e-23
-4.59004e-20
2.37296e-22
1.01943e-19
9.2246e-20
1.82896e-19
-3.68333e-20
-1.08521e-25
-1.90817e-24
-3.26149e-27
-9.97217e-27
-1.5107e-27
5.53302e-29
4.40111e-28
2.93036e-30
4.90827e-29
3.47412e-31
-6.04446e-31
-1.12309e-31
1.61169e-35
-1.52665e-34
-5.21585e-34
3.68358e-39
-2.091e-38
-1.24364e-37
1.47542e-42
-5.06893e-42
1.09612e-40
6.12319e-46
-1.28131e-45
-2.1711e-43
2.56548e-49
-4.2451e-49
1.33536e-45
1.07833e-52
-3.57643e-53
5.56922e-49
4.47771e-56
-3.78648e-56
-1.06599e-52
1.89512e-59
-2.44442e-59
-4.96358e-56
8.25145e-63
-3.02004e-63
-4.73233e-59
3.8029e-66
-5.34691e-66
6.9239e-62
1.55872e-69
-3.45141e-70
3.87593e-65
7.58035e-73
-1.87591e-73
2.0043e-68
3.3366e-76
-1.46437e-76
1.01653e-71
1.47619e-79
3.51431e-80
4.36615e-75
5.01234e-82
-5.79088e-84
-1.78777e-82
1.06765e-83
1.01382e-85
-2.82668e-80
3.02918e-88
-1.25925e-89
-6.2392e-84
6.01983e-92
-2.41496e-92
9.04096e-93
1.01901e-94
-3.19594e-95
4.99839e-96
1.99947e-96
1.84061e-98
-1.46719e-93
2.10602e-100
-1.14936e-101
-5.89336e-96
3.08573e-104
5.04872e-105
3.02278e-100
1.41812e-107
-8.45127e-109
-5.57963e-103
5.40386e-111
5.04971e-113
-4.55709e-107
4.48204e-114
-2.36528e-115
2.62385e-111
2.02402e-116
2.7509e-118
-9.42715e-113
1.96347e-120
-1.85316e-121
1.08652e-115
1.07445e-123
-9.04341e-125
-2.26832e-119
7.92372e-127
-1.55652e-127
6.67213e-122
7.6115e-130
-7.97625e-130
1.85572e-124
1.36176e-133
-2.57287e-133
2.52152e-128
6.26486e-137
5.17567e-137
-1.49968e-131
8.73006e-140
3.19052e-141
5.32681e-140
7.12606e-142
2.56151e-143
8.40599e-138
5.93809e-146
1.48289e-146
-8.17418e-142
1.10439e-149
1.4113e-150
1.66371e-145
-3.4952e-153
1.11429e-153
-5.06421e-09
2.52063e-08
-4.90985e-07
-3.69783e-07
-4.13031e-07
-6.35011e-07
-8.61719e-09
1.14603e-09
-4.52131e-10
1.86055e-08
1.60836e-08
1.80679e-08
1.7502e-08
-1.30515e-08
-4.06204e-09
-1.2857e-08
-2.60319e-08
1.2071e-09
6.9763e-08
-1.02906e-08
8.68142e-08
-2.53569e-08
9.79584e-09
-5.7407e-09
2.32272e-08
-1.72283e-08
8.11564e-09
-8.49391e-08
-5.21051e-09
5.89502e-10
-7.73372e-08
2.1023e-09
-2.23863e-08
4.75083e-09
5.06664e-09
9.71307e-09
-4.38263e-11
4.40153e-10
-7.19006e-10
2.09423e-10
-1.20977e-11
-5.85125e-11
-6.68025e-11
4.76678e-10
4.05157e-10
5.12433e-10
-3.19907e-10
-2.35947e-10
-2.87551e-10
-2.71195e-10
-4.02254e-11
2.34282e-13
2.33551e-08
6.5708e-12
2.3357e-08
-9.36349e-22
-3.51745e-18
3.79464e-21
7.63962e-19
1.17423e-17
-1.40754e-18
-6.55424e-18
5.3363e-25
-7.56233e-22
-5.8073e-24
-2.29171e-27
-8.02533e-26
1.07945e-29
7.62687e-28
-1.13995e-27
4.88274e-30
1.11954e-30
-1.58307e-29
-1.66749e-31
1.62076e-34
-1.92966e-32
-1.62268e-33
1.83889e-38
-2.62219e-36
-1.42128e-36
6.03508e-42
-4.64858e-40
-5.63545e-40
2.49239e-45
-1.70339e-43
-1.11323e-43
1.04906e-48
-1.70863e-47
-3.30431e-46
4.33392e-52
-1.08152e-51
-7.46587e-50
1.82286e-55
-4.24561e-54
-8.82141e-54
7.69737e-59
-7.80331e-58
-8.94525e-56
3.56089e-62
-3.9759e-61
-9.17769e-59
1.98164e-65
5.37321e-65
-1.41099e-61
8.11114e-69
-6.55885e-69
-5.44712e-65
3.69785e-72
9.74069e-73
-4.96137e-69
1.57948e-75
-2.73199e-76
-2.44878e-71
1.33512e-78
1.05163e-79
-3.96361e-75
3.76001e-81
2.70096e-82
-1.65374e-77
3.99089e-85
-2.31242e-83
3.58542e-81
3.18489e-88
-1.58484e-89
4.1049e-84
1.18693e-90
7.25248e-92
-5.36076e-87
2.85188e-94
-6.00418e-95
-3.01404e-90
8.71741e-98
-6.45987e-96
-2.53242e-92
5.53627e-101
-4.54358e-101
-2.45202e-96
7.82556e-104
-4.72438e-105
8.25132e-100
1.34825e-107
-1.29445e-108
-7.00291e-103
8.64289e-111
-1.24561e-109
3.15435e-107
3.18451e-113
-1.22502e-114
-1.53973e-109
1.33972e-115
3.57056e-116
-4.31009e-112
1.29045e-119
-1.82122e-120
-1.06306e-114
6.81347e-123
-2.74681e-123
-7.19826e-119
6.82869e-126
4.11768e-127
-2.20194e-121
2.73942e-129
5.24256e-130
-4.79388e-125
3.43589e-132
-1.93268e-131
-2.91099e-127
3.82984e-135
-6.71329e-136
-1.21972e-131
9.07136e-139
2.86639e-139
-6.52087e-135
2.68754e-142
8.53994e-143
-1.29288e-137
1.53878e-145
6.96285e-146
-1.5773e-141
1.43456e-148
-2.50467e-147
-1.20421e-144
-2.18855e-150
-1.67814e-147
-8.69678e-09
6.11892e-09
-9.42852e-08
-1.22299e-07
1.92519e-07
1.13658e-07
-2.7285e-08
-1.35371e-08
-4.80224e-07
2.24323e-07
9.66415e-07
2.47884e-07
-7.98459e-09
-3.56083e-08
-2.73124e-08
-8.62955e-09
-7.25744e-09
-1.06199e-08
1.22405e-08
1.25416e-08
6.23109e-09
3.89127e-10
-1.57966e-08
-1.25458e-08
2.04728e-08
-1.38278e-08
5.3789e-09
2.0525e-08
-1.0203e-08
1.5537e-08
7.85038e-09
7.56263e-09
9.46212e-10
3.92068e-09
-7.40939e-08
-8.97654e-08
1.44479e-08
1.39578e-08
1.55605e-08
1.33784e-08
-1.02383e-07
3.86012e-08
-5.05476e-08
2.53473e-07
-4.24017e-08
-5.31335e-08
-5.54276e-08
-3.96212e-08
8.72083e-10
-2.33087e-08
4.29455e-09
-5.46906e-09
2.21391e-08
-2.89013e-09
1.30334e-09
-2.09268e-09
-1.75866e-10
2.54175e-10
-2.44634e-10
8.82596e-10
2.47371e-10
1.31166e-10
2.68701e-10
1.74899e-10
-1.48444e-10
2.2414e-11
3.08838e-08
-1.06449e-11
3.09637e-08
5.18994e-22
-2.67412e-18
-2.19191e-18
-2.18021e-17
2.61643e-16
-3.09227e-16
9.42941e-17
3.65327e-24
-3.74832e-22
-9.42016e-24
-4.0731e-27
-7.35208e-27
-2.49152e-27
3.38931e-27
-1.06745e-27
5.57034e-30
2.56306e-29
-1.40635e-29
4.44995e-30
5.62805e-33
-1.3719e-32
-3.78618e-32
4.02496e-37
-1.39403e-36
-6.94255e-34
1.25441e-40
-2.43549e-40
-2.3869e-37
5.09311e-44
-1.10107e-43
-2.65449e-41
2.12211e-47
-2.53031e-47
-4.23667e-45
9.07875e-51
-5.256e-51
9.51976e-48
3.96003e-54
-9.36965e-54
-2.68872e-50
1.66581e-57
6.25669e-60
-9.08627e-55
7.68484e-61
-2.50314e-61
2.07868e-57
3.00131e-64
6.25079e-66
2.64798e-63
1.30471e-67
-1.33486e-68
-6.0382e-64
5.60149e-71
-5.29538e-72
-1.25728e-67
2.74491e-74
-1.66756e-74
-3.90181e-70
1.50861e-77
4.94543e-78
-1.15536e-73
3.90157e-80
1.52723e-81
1.81676e-77
1.24301e-82
1.23493e-83
-1.16087e-78
1.64705e-86
-1.48696e-85
-3.42607e-81
9.80875e-90
9.83895e-90
-1.41954e-85
5.50805e-93
7.89997e-94
1.91205e-89
1.31328e-95
3.50255e-97
-1.14223e-90
1.32193e-99
-2.80042e-100
2.7701e-96
4.79358e-103
-1.68244e-102
3.55662e-98
6.24238e-106
-1.35754e-106
-2.62858e-101
1.93471e-108
-3.17998e-109
1.00237e-104
2.07141e-112
-9.26448e-113
1.52122e-109
1.71972e-115
-4.63215e-116
2.62859e-116
7.49864e-118
2.26153e-119
4.87835e-114
6.45154e-122
-8.6651e-123
-4.58973e-118
7.58844e-125
-6.44372e-125
-1.75522e-120
1.20842e-127
1.47985e-128
-3.26899e-123
7.78214e-131
7.35863e-132
-5.99005e-126
2.15097e-134
1.94577e-136
7.91052e-130
3.31738e-137
-3.32583e-138
-4.91689e-134
1.64185e-139
1.73808e-140
-4.57046e-136
2.57768e-143
1.07811e-143
1.52665e-139
1.83935e-146
5.75576e-147
-2.08774e-142
6.05693e-151
-2.78579e-145
4.32644e-09
9.69448e-09
-3.80241e-07
2.21459e-08
3.27633e-08
3.71937e-08
-3.74593e-07
-3.83985e-07
-3.69607e-07
-1.85334e-09
2.94327e-08
1.57031e-09
1.10059e-08
-8.73467e-08
-2.04548e-08
-6.06335e-08
-2.18044e-07
-4.99388e-08
2.91527e-07
-7.1411e-08
-1.64896e-08
-2.47074e-08
-3.2948e-08
7.37682e-08
6.6543e-08
2.34694e-08
-9.10273e-09
6.69165e-09
3.14986e-09
4.0425e-09
1.90973e-09
2.50182e-08
1.81057e-09
-1.39786e-09
-2.61349e-08
-1.12268e-09
1.8804e-09
-1.90432e-09
-3.25289e-11
-2.72245e-10
-1.43062e-09
6.57502e-10
2.34301e-10
1.77532e-10
2.44478e-10
2.4737e-10
-2.57623e-10
2.48994e-11
6.27572e-08
-1.25654e-11
6.29634e-08
6.81673e-22
2.31071e-18
-3.93852e-18
-6.10726e-17
-4.83329e-17
2.92574e-16
-1.61342e-16
5.65913e-24
3.15843e-22
-1.94058e-23
3.28801e-28
3.53135e-26
-9.44871e-27
2.51017e-27
-4.53647e-28
-1.75072e-28
1.94946e-29
-4.56122e-30
7.43426e-30
4.41085e-33
-2.4193e-33
1.6146e-32
3.17443e-37
-2.65899e-37
-4.17093e-34
9.87184e-41
-5.75154e-41
-1.52911e-37
4.21384e-44
-1.47343e-44
-6.77558e-42
1.92565e-47
4.85637e-48
-1.02227e-44
8.14726e-51
-6.53247e-52
6.23999e-48
3.90523e-54
-8.46957e-55
-1.7425e-49
1.48257e-57
4.11525e-58
-6.89783e-53
6.15948e-61
1.19397e-61
8.25055e-57
3.54523e-64
-5.52211e-65
-1.47176e-60
3.62471e-67
4.98112e-68
-6.95929e-63
2.42091e-70
5.65872e-72
-4.87429e-66
6.07434e-73
4.80954e-74
-4.38924e-69
7.90099e-77
2.24354e-78
-1.7332e-72
5.36751e-80
-7.84252e-83
-6.81889e-76
1.82743e-82
7.56518e-84
-1.071e-78
1.25833e-85
1.98733e-86
-8.95838e-81
2.36073e-88
8.7778e-89
-1.66098e-84
3.09527e-92
-2.87453e-94
-5.27533e-88
9.27808e-96
3.51167e-97
-5.4755e-92
7.62008e-99
8.14542e-100
-1.0521e-93
9.78976e-102
-2.07605e-102
1.67826e-97
1.65652e-105
2.03304e-106
-6.10381e-101
1.05978e-108
-2.00806e-109
-1.32848e-104
1.1284e-111
7.66065e-113
-3.8418e-107
3.66655e-115
-4.80079e-117
5.82645e-112
6.77773e-118
-2.82233e-119
-8.64027e-115
5.17091e-121
4.64912e-122
4.59364e-117
5.36515e-124
-4.07307e-125
6.75805e-121
1.81249e-127
-2.02155e-128
-1.61418e-123
6.60825e-131
-2.7556e-131
7.33117e-126
3.58756e-134
1.42742e-135
2.85056e-129
3.52133e-137
-1.44335e-140
-2.50935e-133
5.58017e-141
4.72445e-142
5.47542e-142
2.10024e-144
3.60255e-146
1.97498e-139
8.65618e-148
3.08852e-149
-1.35468e-142
3.6017e-152
3.42259e-151
9.59622e-08
-6.29409e-10
1.00336e-07
-7.71582e-10
-3.7859e-10
-2.34288e-10
6.70135e-08
8.07197e-08
1.46832e-07
3.47054e-08
-4.17103e-08
2.19213e-07
-1.50242e-08
-1.26292e-08
5.12876e-10
-3.59513e-08
1.88664e-07
1.23404e-07
3.40755e-08
5.12795e-08
6.18304e-08
5.74641e-08
-4.55603e-08
-4.30688e-08
-4.61187e-08
1.93161e-08
1.71637e-08
4.92961e-08
4.11139e-08
-4.00926e-08
-6.06336e-08
-4.01476e-08
-4.20109e-08
-3.49099e-08
-3.62514e-08
-3.51672e-08
-3.0555e-08
3.07184e-08
2.23655e-08
3.72734e-08
-8.82431e-08
-8.33752e-09
1.0947e-09
7.95036e-09
-6.38128e-10
-5.01796e-09
-5.65588e-09
-1.20273e-09
-6.40423e-10
1.70681e-09
-1.22354e-09
1.62127e-09
-4.17255e-10
-5.97995e-10
1.32089e-10
3.7592e-10
2.53289e-10
2.46444e-10
-7.88914e-11
-9.61622e-12
2.21724e-08
8.42295e-12
2.21834e-08
-5.99589e-22
4.35217e-20
-2.0094e-19
2.80895e-17
2.03431e-19
-1.98046e-17
-4.99064e-18
-2.29645e-24
2.73433e-24
-1.05961e-23
5.13819e-28
-3.08831e-28
-6.81534e-29
5.77082e-28
-4.79496e-29
-4.31966e-30
1.02817e-30
2.80916e-31
-1.63183e-31
1.48177e-34
9.27955e-35
-9.34608e-34
1.70943e-38
1.53661e-38
-1.03587e-36
5.68969e-42
2.31715e-42
6.97738e-42
2.34143e-45
6.01045e-46
-8.09501e-44
9.79141e-49
2.52817e-49
3.89027e-47
4.10449e-52
7.47339e-54
2.371e-49
1.83455e-55
2.0711e-56
-1.01603e-52
8.6234e-59
5.23145e-60
-7.42785e-56
3.30631e-62
1.51819e-63
-2.8305e-59
1.42499e-65
-2.07497e-66
6.29365e-63
6.19465e-69
9.76852e-71
2.1115e-66
3.00235e-72
1.06105e-73
-2.16161e-68
1.09175e-75
-4.04459e-77
-2.34942e-73
5.7381e-79
-1.88494e-79
-7.85876e-76
1.71264e-81
-8.0265e-83
-7.0582e-78
8.40571e-84
2.30938e-85
-2.63159e-80
5.59599e-88
4.71453e-89
-3.58035e-85
1.99191e-91
-1.76859e-92
2.36883e-89
1.79063e-94
-8.64821e-96
-4.50469e-91
4.30522e-98
-5.74369e-99
-1.44916e-99
2.1542e-101
6.22483e-102
1.80329e-96
1.30846e-104
-8.92137e-106
-5.04181e-100
9.7507e-108
2.82066e-108
9.81428e-103
9.62048e-111
-2.09758e-112
5.41245e-106
2.97248e-113
-1.51295e-114
-7.37105e-109
1.06876e-116
1.87556e-118
-1.24209e-112
6.45057e-120
-9.52164e-121
-2.357e-115
2.30461e-123
1.96295e-125
-8.31124e-119
2.28353e-126
-8.87956e-128
-9.13733e-122
8.62226e-130
4.72238e-131
9.60475e-125
5.25088e-133
1.44822e-135
2.9895e-128
3.063e-136
-5.18942e-137
-6.22934e-131
4.69364e-139
2.74812e-141
-1.62101e-135
2.74432e-141
8.43895e-144
-6.17689e-138
1.62392e-145
-4.33946e-147
2.3634e-146
1.82868e-148
-2.45793e-151
6.92082e-150
7.95558e-152
-3.19789e-147
1.71418e-09
-5.67321e-09
-1.09789e-09
-4.07241e-08
6.14468e-08
7.36774e-08
6.54338e-08
4.00333e-08
3.09775e-08
8.51072e-08
-5.88629e-08
1.0416e-07
-4.41687e-08
4.20303e-08
-1.14938e-08
-3.05236e-08
-2.13559e-08
-4.04054e-08
8.8575e-09
1.46232e-09
-2.71386e-09
1.6511e-08
4.39793e-09
1.63063e-08
-2.6354e-10
-2.6425e-09
-2.00585e-08
8.87532e-10
-4.4159e-10
1.36616e-10
-1.17407e-09
-1.22701e-09
-1.35542e-09
-5.38708e-10
-7.05439e-10
-4.40913e-10
-2.72543e-10
8.90361e-11
-8.80599e-11
-1.04945e-10
3.43255e-11
-1.32553e-11
-4.09885e-13
-1.2613e-08
5.48101e-13
-1.26132e-08
-4.55522e-23
4.12014e-22
4.40593e-22
8.51408e-21
4.42491e-20
-1.03626e-20
9.92873e-21
9.19374e-27
5.32933e-27
-7.31304e-27
4.18338e-26
2.04676e-27
1.60056e-29
4.33295e-28
1.53627e-28
-3.98936e-29
3.37619e-31
8.55643e-31
-4.82666e-31
1.66993e-35
4.81203e-35
-6.30134e-34
3.80796e-39
6.92113e-39
2.07668e-37
1.5283e-42
1.99879e-42
-1.1593e-40
6.34389e-46
2.32617e-46
-8.19853e-43
2.64181e-49
1.03877e-49
3.53059e-46
1.12622e-52
-2.82217e-53
4.32877e-49
4.81198e-56
2.95956e-56
-6.33183e-52
2.01384e-59
1.36376e-60
-1.19808e-56
9.1879e-63
1.25977e-64
-2.23495e-59
3.80541e-66
7.7834e-67
-8.61971e-62
1.48588e-69
1.7674e-73
-3.30024e-66
9.87675e-73
-4.00523e-75
-7.54919e-72
1.97642e-75
1.39417e-76
-1.9596e-71
7.64587e-79
-8.56196e-81
-2.28503e-74
1.47799e-82
5.28023e-84
-1.1431e-77
1.23617e-85
2.47491e-88
6.1863e-86
4.08446e-88
-4.02053e-91
-8.6661e-84
6.79524e-92
-2.44347e-93
1.19093e-87
9.51684e-95
3.03342e-96
-1.78376e-90
3.52566e-98
-5.28834e-100
2.44662e-93
9.9869e-102
2.0112e-103
3.57413e-96
1.36433e-104
2.25805e-106
-5.03914e-100
2.72041e-107
1.23321e-108
1.02e-103
4.71325e-111
-1.98588e-112
7.09556e-107
4.38212e-114
-1.81884e-116
-1.27876e-108
2.5975e-117
3.87158e-119
-4.7269e-113
1.26256e-120
1.80143e-122
-1.55271e-115
7.81714e-124
-7.54937e-126
2.66752e-120
1.96103e-126
-4.64182e-128
-8.24202e-123
4.61966e-130
3.75116e-131
6.26475e-125
2.52427e-133
-2.92489e-135
-4.41706e-129
1.18043e-136
5.7979e-138
-4.46574e-131
3.2135e-140
3.74466e-141
-1.07622e-138
1.23895e-143
-1.99664e-146
4.62123e-144
4.86985e-147
-5.52987e-148
9.24496e-148
1.91513e-150
-7.51149e-151
1.23522e-150
6.25742e-156
-3.14254e-149
2.61548e-08
-2.49988e-09
2.85416e-08
2.66177e-08
-5.74134e-08
3.55358e-08
-5.14863e-08
2.18359e-08
2.73297e-08
4.23855e-08
2.7075e-08
1.48977e-08
-4.075e-08
7.89439e-08
-2.98942e-07
7.88078e-10
8.75487e-08
4.2601e-09
8.7008e-08
-7.2404e-10
-8.81589e-10
-4.01055e-08
3.37904e-08
8.30811e-09
7.64135e-09
2.8071e-09
-3.97463e-09
3.13725e-08
3.09704e-08
3.04633e-08
3.03668e-08
7.10015e-08
-8.93151e-09
1.94222e-08
-1.25982e-07
1.36939e-08
-6.24941e-09
1.3021e-08
-6.30459e-09
-4.39223e-09
3.09637e-09
-2.10532e-10
6.67212e-10
-2.52618e-08
2.30562e-10
-2.48029e-08
-2.19362e-16
-3.48286e-16
3.22594e-08
3.22594e-08
-4.53928e-19
1.83193e-16
1.048e-15
4.05356e-16
-3.8856e-16
-3.31427e-16
-3.31632e-16
2.80845e-24
4.51964e-23
1.46238e-23
-5.43056e-22
-1.45335e-22
1.18584e-21
7.62396e-22
4.78484e-26
1.26896e-26
-4.30766e-26
1.56104e-27
8.95116e-30
-6.17528e-30
8.83956e-31
6.92713e-30
-1.71134e-29
1.70731e-34
1.39075e-32
-1.77855e-32
7.06501e-38
2.66655e-36
-2.40023e-36
2.18368e-41
4.30474e-40
-4.21444e-39
8.357e-45
3.08206e-43
3.93187e-42
3.57534e-48
4.74761e-47
-2.49232e-45
1.55924e-51
3.35852e-51
1.98206e-48
6.83429e-55
3.45315e-54
-9.88755e-52
2.91912e-58
2.03083e-58
-1.87129e-54
1.25039e-61
-1.51554e-61
9.86198e-60
5.45441e-65
1.7826e-65
3.67e-61
2.34717e-68
1.34635e-68
4.69504e-64
1.7521e-71
1.61111e-72
-8.60501e-68
2.24035e-74
2.23423e-75
-2.28607e-70
3.20138e-78
-1.15702e-78
-1.86713e-76
1.30984e-81
-2.25847e-82
-1.45639e-77
6.02897e-85
3.54865e-86
-9.12379e-80
2.58762e-88
-6.7527e-88
-1.56218e-83
1.1902e-90
-4.05722e-91
-7.17825e-89
2.47946e-92
2.24212e-95
-4.61402e-89
6.43642e-97
-9.04816e-98
1.06559e-93
1.57055e-100
-1.44552e-100
8.56227e-96
9.04837e-104
-1.94992e-104
-9.73145e-104
1.89783e-106
-2.37402e-108
-1.65184e-102
2.7615e-110
-5.50616e-111
2.32359e-105
1.29677e-113
-1.0952e-112
1.19788e-108
3.39463e-117
-1.71842e-117
7.99697e-112
3.63332e-120
1.79422e-121
6.4722e-121
1.6419e-122
6.2202e-124
-6.86631e-119
1.24345e-125
-5.53788e-127
-2.09645e-121
9.95319e-129
7.85249e-130
-3.00805e-124
2.50822e-132
-2.29342e-132
-1.34563e-127
1.26109e-135
-4.56799e-136
-3.05302e-130
5.15562e-139
-6.15385e-140
6.19626e-135
3.53786e-142
-1.26545e-142
-3.16399e-138
8.27111e-145
2.08629e-146
2.38071e-140
1.60274e-147
-3.15396e-148
-1.12891e-143
1.2549e-150
-1.50368e-151
-9.74585e-147
-7.29698e-155
5.92131e-151
2.66304e-08
2.56202e-08
-3.39832e-09
3.21009e-08
4.11583e-08
3.9871e-08
4.00404e-08
4.48096e-08
-9.39363e-09
6.67789e-08
4.12966e-08
6.69355e-08
-2.36956e-09
3.55491e-08
-2.17923e-09
3.83849e-08
-6.71855e-09
2.62685e-08
2.07417e-09
2.83174e-09
-7.19813e-09
6.9589e-09
-9.43721e-09
1.23095e-08
-7.78444e-09
-1.72467e-07
-6.23557e-08
-4.82724e-08
-6.959e-08
-5.1565e-08
-1.07937e-09
-1.49519e-08
7.53946e-09
6.63383e-09
3.92368e-10
-1.7987e-10
6.83722e-11
1.8012e-08
-1.56474e-10
1.81155e-08
2.28347e-16
-2.62194e-18
-8.6122e-09
-8.6122e-09
-2.81905e-18
2.28244e-16
2.27995e-16
2.28222e-16
-2.75739e-24
6.92023e-23
5.21814e-22
4.98271e-22
5.39092e-22
6.10991e-22
8.43427e-27
-1.13846e-26
3.34483e-28
-6.90942e-30
3.33346e-29
-2.87004e-33
1.49981e-32
8.46429e-34
8.29424e-37
9.35535e-36
2.17565e-40
-1.63884e-40
8.73437e-44
2.31146e-42
3.62664e-47
-3.94718e-47
1.51183e-50
1.27554e-49
6.33229e-54
1.71136e-52
2.65088e-57
-2.76335e-54
1.10079e-60
6.38732e-58
4.5948e-64
-8.94319e-62
1.91611e-67
-2.44792e-64
8.04092e-71
-1.82232e-69
3.39696e-74
-3.69887e-71
1.43597e-77
8.64144e-74
6.2105e-81
4.5608e-77
4.19048e-84
-2.36963e-80
5.66457e-87
-2.32302e-83
1.05294e-90
-6.94176e-87
8.02192e-94
-2.24128e-90
1.43364e-96
-6.39283e-93
4.6929e-100
2.29158e-96
2.57749e-103
-3.57571e-100
7.17192e-107
-2.45e-103
8.14195e-110
1.16577e-104
1.30679e-112
1.48139e-108
6.67738e-116
1.6404e-111
2.3811e-118
-7.13282e-115
1.99938e-122
-3.56033e-119
5.85719e-126
9.69052e-122
9.27682e-129
-1.15946e-124
6.52613e-131
-7.31717e-127
5.80146e-135
-4.20473e-131
3.20201e-138
1.32969e-133
4.31426e-141
-1.12307e-136
1.3518e-144
1.58305e-140
6.4186e-148
-6.72265e-144
2.12547e-151
-6.88886e-148
2.16822e-150
-5.29992e-08
-5.30868e-08
-5.78624e-09
-1.93208e-07
-2.18911e-09
3.96868e-09
-3.71145e-09
9.06023e-08
8.45168e-09
1.31855e-08
8.63794e-08
1.17751e-08
3.30527e-08
1.63315e-07
-3.29704e-08
3.24671e-07
-1.88118e-08
-5.39372e-07
-2.82485e-08
1.63844e-08
-2.72876e-07
1.66702e-08
-7.3396e-08
2.78758e-10
-7.18189e-09
-6.26677e-10
8.12324e-08
-3.70775e-10
9.76012e-11
-4.98163e-11
4.82955e-08
4.82184e-08
-6.54901e-20
4.64543e-18
8.901e-19
-6.53467e-16
6.80035e-16
-6.58612e-16
6.48018e-16
5.1846e-18
4.68659e-18
5.18237e-18
-2.27701e-23
4.08007e-22
-1.85023e-23
9.86952e-27
3.59963e-24
-2.73897e-27
4.58006e-27
4.92773e-26
-7.46515e-30
2.24358e-28
3.89148e-29
8.79798e-32
9.46367e-31
7.24664e-32
-5.038e-33
3.2971e-34
6.78219e-35
1.99474e-35
6.10639e-38
1.23565e-38
-7.16723e-39
3.61493e-41
-7.22194e-42
2.51491e-41
2.71718e-44
-2.26432e-45
-1.05545e-45
1.98306e-47
-1.23984e-48
-2.42272e-48
1.41985e-50
6.52738e-52
3.70817e-51
1.01763e-53
1.06847e-54
4.08344e-54
7.30318e-57
2.00465e-57
8.98591e-58
5.23608e-60
-9.26763e-61
-9.58921e-61
3.75244e-63
-1.2998e-63
-6.7171e-64
2.68775e-66
4.91685e-68
-2.30388e-68
1.92332e-69
-7.72086e-70
-1.52782e-70
1.37525e-72
-2.93108e-73
-2.84948e-73
9.82177e-76
1.96823e-76
-2.34967e-76
7.00487e-79
3.03722e-81
-6.16505e-81
4.98616e-82
1.16247e-83
-3.95764e-83
3.54343e-85
-3.25495e-88
4.09037e-87
2.51272e-88
8.83048e-89
2.60348e-90
1.7795e-91
5.06274e-92
3.82021e-95
1.25818e-94
-3.07577e-95
-1.9672e-94
8.88522e-98
6.68978e-98
1.90665e-98
6.26421e-101
4.63449e-102
-4.96539e-102
4.39851e-104
-7.19524e-107
-1.24432e-104
3.08011e-107
6.01349e-108
-2.25922e-108
2.15363e-110
4.74573e-113
-4.76106e-113
1.50432e-113
2.55885e-114
-7.64772e-120
1.04813e-116
-9.05333e-119
1.07499e-117
7.28511e-120
8.07555e-121
5.42858e-121
5.05058e-123
-2.81426e-125
-7.71334e-125
3.49449e-126
-9.03831e-128
-2.98939e-127
2.41102e-129
6.85305e-130
4.01599e-132
1.65954e-132
-9.78789e-135
-1.11829e-133
1.13955e-135
-9.43116e-137
4.4298e-136
7.80997e-139
6.29796e-140
1.20677e-139
5.33969e-142
-6.56133e-144
2.13921e-143
3.49415e-145
1.50716e-148
2.34395e-146
3.59086e-149
2.8529e-149
-3.24313e-07
-1.21689e-08
-3.32664e-07
3.84012e-09
6.78971e-09
4.78923e-09
5.72763e-09
5.3655e-09
-5.78789e-08
1.1477e-09
1.05705e-07
1.5487e-08
-4.08248e-09
2.00936e-09
-1.38812e-09
-2.52149e-09
-1.43734e-08
9.53984e-09
-2.85203e-07
1.13841e-08
8.6568e-09
1.05396e-08
-8.46265e-09
-1.13809e-08
-1.08656e-08
-9.58444e-09
1.75008e-08
1.82174e-08
1.89399e-08
1.7251e-08
2.50372e-08
-2.97553e-08
-2.32689e-08
5.66599e-08
-1.33482e-08
-1.74747e-08
9.0583e-09
-1.35446e-08
-3.97093e-09
-6.54179e-09
-2.86729e-08
-2.94592e-08
-2.88276e-08
1.62539e-07
1.99326e-09
7.66279e-09
-4.09808e-09
-1.60421e-07
6.85704e-08
1.8696e-09
4.65009e-08
-3.14647e-09
8.14444e-09
-1.21187e-07
3.5888e-10
2.15529e-10
-1.45667e-10
1.25956e-10
-1.81559e-10
-9.86457e-11
1.85917e-17
4.91008e-18
-4.54151e-18
5.46864e-18
8.25104e-19
1.7748e-17
1.38357e-17
5.61208e-18
-2.13452e-23
-1.21037e-21
-1.62816e-23
-2.9195e-20
-1.00084e-20
-2.96322e-20
-9.80223e-21
7.12943e-24
1.16653e-24
-3.65151e-26
4.02285e-25
1.65397e-25
-9.79683e-30
4.39434e-28
-3.19313e-27
5.3808e-31
3.81156e-32
-1.22249e-28
-2.92892e-33
1.57645e-35
-1.46336e-31
8.84788e-37
1.07871e-38
-1.34792e-35
1.64146e-41
7.67512e-42
-4.31825e-39
2.56507e-42
5.43595e-45
-2.29774e-42
-2.67298e-46
3.81852e-48
-8.37992e-46
-2.01068e-48
2.67221e-51
-5.31326e-50
-2.02658e-52
1.87533e-54
-2.31985e-52
2.16459e-56
1.31566e-57
2.29021e-57
1.64211e-58
9.2424e-61
-3.28798e-59
-2.98059e-62
6.53233e-64
7.25125e-62
-1.59328e-64
4.56119e-67
7.44629e-65
-2.88208e-67
3.16918e-70
-1.06018e-68
-4.74775e-71
2.2206e-73
4.85047e-73
-1.63553e-74
1.55447e-76
3.95938e-75
-2.03571e-78
1.08651e-79
-4.71868e-78
5.19757e-82
7.54303e-83
-1.98091e-82
4.9171e-83
5.25037e-86
-1.24265e-84
2.59195e-87
3.65175e-89
1.09029e-90
7.46717e-91
2.54153e-92
1.16086e-93
1.88875e-93
1.77363e-95
-5.81203e-94
9.15985e-96
1.22743e-98
-6.1397e-97
-6.75905e-99
8.43696e-102
4.76329e-103
1.84712e-103
5.83145e-105
-3.66226e-104
1.30896e-105
4.0202e-108
-4.45596e-107
-1.31324e-109
2.76756e-111
-2.02524e-110
4.70141e-113
1.8978e-114
-9.31898e-113
5.46594e-115
1.29888e-117
1.35677e-118
-9.38823e-123
8.88535e-121
-8.20973e-120
9.68414e-122
6.06457e-124
-4.70315e-123
1.22731e-124
4.13328e-127
1.36197e-125
1.70884e-127
2.81459e-130
-5.06373e-129
2.52918e-131
1.91055e-133
9.44825e-133
-2.9768e-134
1.29488e-136
-3.64623e-136
1.17746e-137
8.77376e-140
-6.59363e-138
2.15298e-140
5.91112e-143
2.78752e-141
3.29789e-144
3.85808e-146
1.73566e-145
1.80671e-148
2.19539e-148
-5.18167e-156
-1.41327e-07
2.45601e-08
2.56933e-08
3.62105e-11
-4.45986e-08
3.22185e-09
2.17173e-07
1.93585e-08
2.16237e-08
1.595e-07
-3.81442e-08
7.02245e-09
3.83593e-08
9.80218e-09
4.21939e-08
-3.79434e-07
-3.38309e-08
-4.89095e-08
-6.27533e-08
-4.92249e-08
-2.44879e-07
-2.10117e-08
5.34506e-09
2.89746e-07
2.89718e-08
1.91153e-08
-4.20099e-07
-1.38537e-08
1.4934e-09
3.2046e-09
1.65135e-09
4.07608e-10
1.12791e-07
1.67777e-09
-4.96139e-09
2.41475e-09
2.31068e-09
-1.15412e-07
7.28331e-10
-1.22842e-10
4.38451e-10
-6.59657e-10
1.51843e-10
-3.03559e-10
4.59808e-14
-1.58396e-17
-5.96042e-16
4.67906e-16
-5.09561e-14
4.6837e-14
-2.28996e-14
1.35739e-16
-4.10969e-15
-4.5298e-15
-3.63672e-16
-3.54084e-16
-7.96146e-22
-2.0373e-19
-1.3195e-22
2.45535e-19
-2.35627e-19
2.39534e-19
-2.22847e-19
-3.30683e-25
-2.28797e-23
8.02762e-27
2.79187e-25
-1.60618e-26
-3.39494e-29
4.3556e-26
3.35786e-27
-2.59396e-29
2.13102e-28
1.43195e-29
-3.50567e-31
4.43385e-32
-1.25656e-31
-2.60616e-34
6.65067e-36
-2.15473e-35
1.23178e-37
4.33238e-39
-8.16857e-39
-6.98173e-41
3.18275e-42
-3.77829e-42
-2.14662e-43
2.23884e-45
-1.97275e-45
-6.64877e-46
1.56449e-48
-5.88395e-49
-2.19141e-49
1.09463e-51
-5.34704e-52
1.62993e-53
7.65287e-55
-3.35939e-55
1.87944e-55
5.34652e-58
-1.48072e-58
3.21859e-59
3.7323e-61
2.46265e-61
2.22822e-61
2.60263e-64
-3.21473e-65
-1.41657e-64
1.81177e-67
-6.89623e-69
3.24081e-68
1.26092e-70
-1.26459e-71
-6.79727e-72
8.76089e-74
6.88721e-75
7.90536e-75
6.07215e-77
3.19239e-77
-7.8972e-80
4.21271e-80
1.35281e-81
-2.87564e-82
2.91932e-83
-1.04633e-83
-7.45433e-85
2.0184e-86
2.83831e-87
-2.99874e-93
1.39488e-89
-5.81894e-91
-2.30104e-96
9.61213e-93
2.08661e-93
1.05333e-93
6.60275e-96
2.34793e-97
-5.88095e-97
4.53105e-99
2.27902e-100
5.11709e-100
3.1048e-102
-1.10943e-103
3.926e-104
2.12298e-105
-4.37125e-107
1.10995e-106
1.44956e-108
-9.33416e-110
5.19774e-110
9.87173e-112
2.42445e-113
1.74597e-113
6.70284e-115
4.17032e-115
9.77408e-116
4.54362e-118
3.50524e-118
-1.73854e-118
3.07329e-121
1.37953e-121
4.39197e-122
2.07694e-124