/*--------------------------------*- C++ -*----------------------------------*\
| =========                 |                                                 |
| \\      /  F ield         | OpenFOAM: The Open Source CFD Toolbox           |
|  \\    /   O peration     | Version:  5.0                                   |
|   \\  /    A nd           | Web:      www.OpenFOAM.org                      |
|    \\/     M anipulation  |                                                 |
\*---------------------------------------------------------------------------*/
FoamFile
{
    version     2.0;
    format      ascii;
    class       volScalarField;
    location    "4.4";
    object      alpha.water;
}
// * * * * * * * * * * * * * * * * * * * * * * * * * * * * * * * * * * * * * //

dimensions      [0 0 0 0 0 0 0];

internalField   nonuniform List<scalar> 
8703
(
1.04572
1.02174
1.01038
0.986152
1.00493
1.00299
0.647635
-3.6854e-16
-8.38997e-19
8.41473e-22
2.20677e-18
1.66238e-19
7.4158e-22
1.75774e-25
1.52063e-29
4.92299e-33
2.03655e-36
8.92799e-40
4.00215e-43
1.61597e-46
8.3906e-50
3.57317e-53
1.52668e-56
5.57609e-60
3.45041e-63
5.33625e-66
1.39364e-69
2.86368e-73
7.57895e-76
2.28381e-79
2.20978e-82
3.03597e-86
8.06734e-89
2.62202e-91
8.88699e-95
7.42587e-98
2.41036e-101
1.04397e-103
1.9507e-107
1.84933e-111
1.264e-114
6.45318e-117
6.14566e-120
2.02124e-122
3.18256e-126
4.16691e-129
6.10283e-133
6.73823e-137
1.86434e-138
1.24523e-141
1.05828
1.0247
1.01984
1.04772
1.03399
1.01725
0.917321
-5.59907e-18
-5.62902e-20
1.51806e-16
1.06329e-17
4.16857e-20
5.08725e-23
3.62986e-26
5.99953e-30
1.42454e-33
5.73474e-37
2.48924e-40
1.11526e-43
4.61745e-47
2.02001e-50
8.89815e-54
4.81627e-57
2.47073e-60
8.85138e-64
3.61464e-67
4.4075e-70
8.58991e-74
4.54044e-77
2.49018e-80
2.37483e-83
5.06714e-86
9.10692e-90
1.91138e-92
6.65787e-96
3.55289e-99
1.89217e-102
1.47595e-106
6.07813e-108
6.0831e-111
6.31741e-115
5.64711e-118
1.02654e-121
1.67532e-125
5.22828e-128
1.83373e-131
2.64332e-134
2.31134e-138
9.98955e-142
5.81037e-143
1.02537
1.01685
1.02433
1.02499
0.998449
1.00061
1.00079
-2.35945e-15
-1.96948e-17
-3.83955e-21
1.89377e-17
2.49717e-18
2.41103e-20
8.69576e-24
4.19871e-28
1.18634e-31
5.08768e-35
2.23059e-38
1.1088e-41
4.0562e-45
2.02339e-48
7.76597e-52
6.24741e-55
1.83702e-58
1.41741e-61
6.3747e-65
3.82515e-68
5.8769e-72
3.13745e-73
1.59889e-76
4.08365e-81
8.6885e-85
5.58475e-86
7.35167e-89
6.30837e-93
3.3332e-96
1.11229e-99
1.1923e-103
1.8671e-105
6.89738e-109
3.85449e-112
1.90824e-115
3.16447e-118
3.86431e-122
2.06913e-125
1.55149e-129
5.10541e-131
3.15777e-134
1.58659e-138
1.46895e-142
1.05959
1.03376
1.03391
1.05462
1.00295
0.974589
1.00025
0.0642783
-9.23621e-17
-2.64041e-20
-1.21821e-23
9.67856e-19
2.7742e-20
4.77336e-23
6.54235e-27
8.39001e-31
3.08397e-34
1.45883e-37
5.64551e-41
2.40348e-44
1.11287e-47
4.40738e-51
4.50047e-54
1.86879e-57
8.34159e-61
4.00933e-64
8.44864e-68
5.69862e-70
1.67053e-73
1.83517e-77
1.46874e-79
1.14484e-82
2.73258e-86
5.39954e-90
1.90004e-92
3.79465e-96
1.2864e-99
2.65683e-102
1.69841e-104
5.76951e-108
1.2808e-111
2.00797e-114
7.07636e-118
6.94652e-121
1.14212e-123
4.41607e-127
2.88075e-131
2.99889e-134
2.18001e-137
5.63734e-140
1.0197
1.01937
1.01394
1.00934
0.977389
1.01416
1.00206
0.688688
-2.10809e-16
-2.98283e-19
-4.62386e-21
4.67248e-18
3.05832e-19
1.00134e-21
1.55483e-25
1.57752e-29
5.10115e-33
2.17689e-36
9.29157e-40
5.61573e-43
1.74061e-46
1.36246e-49
3.5152e-53
2.02806e-56
6.26822e-60
5.33029e-63
1.92445e-66
3.69098e-69
1.97031e-71
4.09838e-75
3.82342e-78
3.85257e-82
2.10298e-84
3.71648e-88
5.20116e-92
3.50793e-95
3.03222e-97
9.90549e-101
5.60339e-105
8.6616e-107
1.64135e-110
1.58181e-113
2.80041e-116
2.83602e-119
8.56059e-123
2.0462e-126
1.87055e-128
8.64741e-132
7.50414e-135
1.46308e-138
1.07677
1.0549
0.988327
1.01945
1.00162
0.975345
1.00205
0.819168
-1.17164e-16
-2.70255e-19
-6.36495e-23
3.68274e-18
2.41606e-19
7.86727e-22
1.21889e-25
1.16317e-29
3.98901e-33
2.99376e-36
9.37253e-40
7.41569e-43
1.85587e-46
7.80316e-50
2.97898e-53
8.256e-56
2.59687e-59
1.15337e-61
3.59701e-65
2.88952e-69
2.30723e-71
1.99786e-74
5.34703e-77
1.39668e-80
7.90561e-85
6.473e-88
2.4014e-90
4.23656e-94
1.27778e-97
3.21182e-100
3.7544e-104
1.34732e-106
1.32162e-109
1.73939e-112
7.92256e-116
2.69864e-119
5.41932e-123
1.146e-125
1.01723e-129
2.219e-133
1.03276e-136
1.97746e-140
1.06626
1.01564
0.917496
1.01914
0.977557
0.997973
1.00444
0.549519
-1.10281e-18
-2.74037e-20
-5.24386e-23
9.11082e-19
2.54991e-20
4.31724e-23
5.83743e-27
7.53435e-31
2.77166e-34
1.19152e-37
5.08193e-41
2.2451e-44
1.75468e-47
4.48028e-51
2.40374e-54
7.73761e-58
6.57192e-61
1.60038e-64
5.88931e-68
1.13719e-70
9.37862e-73
2.73379e-76
1.63029e-80
4.2531e-83
7.74015e-87
5.26931e-90
2.46194e-93
3.52914e-96
1.12924e-99
4.87542e-102
3.44943e-105
2.77294e-108
3.92685e-112
6.44333e-115
3.28973e-118
1.69809e-121
1.1318e-124
2.34475e-128
2.73734e-130
8.1701e-134
4.80629e-138
1.02261e-139
1.05257
1.02412
1.01191
0.990724
1.00005
1.01055
1.00074
0.00580105
-6.15731e-19
-2.67999e-23
1.8394e-17
2.35194e-18
2.28023e-20
8.81727e-24
4.46231e-28
1.23127e-31
5.20046e-35
2.18786e-38
1.01554e-41
5.50554e-45
1.826e-48
1.20218e-51
5.73357e-55
1.35696e-58
5.26425e-62
2.89755e-64
3.01721e-67
2.4245e-71
3.93353e-75
4.8716e-77
1.30052e-80
2.45856e-83
1.7173e-86
2.62572e-90
1.69764e-93
6.48479e-96
1.00621e-99
1.09006e-102
8.1867e-106
5.38721e-109
4.80357e-113
3.29504e-115
2.09649e-118
8.36065e-122
4.59948e-125
2.41323e-129
6.49137e-133
2.51728e-136
9.94565e-140
3.38208e-143
1.05521
1.05497
1.01508
1.02625
0.979422
0.991267
1.00008
-1.27067e-16
-5.81889e-19
1.30721e-16
1.24864e-17
7.9939e-20
6.07075e-23
3.35268e-26
7.13663e-30
1.82228e-33
7.58093e-37
3.35964e-40
1.56826e-43
6.64821e-47
2.69369e-50
1.27492e-53
5.30229e-57
2.42473e-60
6.14285e-63
7.21139e-67
1.97347e-70
9.67186e-74
4.44951e-77
1.5812e-80
7.68695e-82
3.31557e-85
3.30921e-89
2.99018e-93
2.637e-95
7.22981e-99
5.35238e-102
5.08233e-106
8.62665e-110
1.70036e-111
2.78308e-114
3.50018e-117
7.66374e-121
3.65229e-124
1.38039e-127
4.14192e-131
1.28425e-133
2.94202e-136
4.36612e-139
2.52555e-143
1.02113
1
1.09416
0.966321
0.995543
1.00896
0.917442
-1.51334e-18
-2.93847e-19
2.13044e-19
1.82467e-18
2.19048e-19
1.46126e-21
4.33608e-25
3.04009e-29
9.11366e-33
3.78312e-36
1.61974e-39
6.94478e-43
3.11171e-46
1.26649e-49
5.37801e-53
2.27244e-56
9.54378e-60
4.41012e-63
1.82298e-66
9.21343e-70
4.02029e-73
1.28561e-75
3.16643e-79
9.71954e-83
3.08418e-85
1.60837e-88
1.1413e-91
1.14479e-95
1.39816e-98
3.50745e-101
6.63851e-105
3.66038e-107
9.00415e-111
9.65592e-115
2.66584e-118
4.96568e-120
2.70842e-123
5.8642e-127
1.15606e-129
4.87568e-133
2.75862e-136
4.60521e-140
2.34379e-143
1.0487
1.01596
1.03575
1.02819
0.989455
1.00335
0.647193
2.73357e-12
1.77057e-14
1.93161e-17
6.68722e-18
8.01913e-19
1.73223e-20
4.13182e-23
1.07747e-26
2.55514e-30
1.69055e-33
1.28444e-36
9.43711e-40
6.8283e-43
4.93537e-46
3.56248e-49
2.56451e-52
1.84237e-55
1.32041e-58
9.43898e-62
6.73607e-65
4.79605e-68
3.40501e-71
2.41252e-74
1.70446e-77
1.20117e-80
8.45202e-84
5.9348e-87
4.15971e-90
2.90929e-93
2.02863e-96
1.41038e-99
9.78956e-103
6.78554e-106
4.69258e-109
3.23846e-112
2.22938e-115
1.53111e-118
1.04954e-121
7.17482e-125
4.89392e-128
3.33373e-131
2.26543e-134
9.08477e-138
1.15217
1.02042
1.01176
1.01907
1.00572
1.0165
0.91397
2.84347e-12
8.53757e-15
8.71226e-15
1.24411e-15
1.46639e-17
8.51577e-21
1.59584e-24
5.30732e-28
3.26784e-31
2.31119e-34
1.63807e-37
1.1451e-40
8.05921e-44
5.70644e-47
4.02148e-50
2.96305e-53
2.10487e-56
1.42618e-59
1.00163e-62
7.07763e-66
5.03143e-69
3.47929e-72
2.43454e-75
1.704e-78
1.18758e-81
8.44906e-85
5.93764e-88
3.99653e-91
2.76037e-94
1.90987e-97
1.31989e-100
9.06576e-104
6.22036e-107
4.26562e-110
2.91807e-113
1.9969e-116
1.36187e-119
9.25029e-123
6.28265e-126
4.29788e-129
2.88614e-132
1.94593e-135
7.78103e-139
1.066
1.04978
1.04001
1.03476
0.943858
1.00042
1.00103
2.29359e-08
7.70537e-15
3.43971e-16
3.36506e-16
7.96697e-17
2.6258e-18
5.86396e-21
8.4711e-25
1.7346e-28
1.24395e-31
9.11411e-35
6.44426e-38
4.53372e-41
3.18799e-44
2.2379e-47
1.56707e-50
1.09551e-53
7.63721e-57
5.31257e-60
3.69025e-63
2.55656e-66
1.76678e-69
1.22084e-72
8.41788e-76
5.79214e-79
3.98022e-82
2.72738e-85
1.86231e-88
1.2706e-91
8.65437e-95
5.88054e-98
3.98943e-101
2.69941e-104
1.82214e-107
1.22805e-110
8.26194e-114
5.54872e-117
3.72162e-120
2.49121e-123
1.66339e-126
1.10842e-129
7.36888e-133
2.90094e-136
1.16586
1.11835
0.999996
1.03957
1.02542
0.968226
1.00042
0.0715479
1.66692e-12
2.04748e-15
1.0049e-17
8.5964e-18
6.38052e-19
5.299e-21
4.38649e-24
6.7742e-28
2.7626e-31
2.06848e-34
1.5303e-37
1.0996e-40
7.86674e-44
5.61931e-47
4.0022e-50
2.85e-53
2.02043e-56
1.42975e-59
1.01002e-62
7.12394e-66
5.0153e-69
3.51603e-72
2.46074e-75
1.71879e-78
1.19725e-81
8.32184e-85
5.77647e-88
3.99918e-91
2.76327e-94
1.90531e-97
1.30962e-100
8.98555e-104
6.1567e-107
4.21664e-110
2.8766e-113
1.95907e-116
1.32745e-119
8.99266e-123
6.07795e-126
4.10191e-129
2.7616e-132
1.09959e-135
0.97906
1.09307
1.00712
0.992517
0.998788
1.01118
1.00231
0.689087
3.31486e-11
3.46422e-14
1.23953e-16
9.11286e-17
1.22677e-17
2.04185e-19
2.73728e-22
4.28762e-26
1.28279e-29
9.32217e-33
6.91328e-36
4.95498e-39
3.53082e-42
2.51367e-45
1.78491e-48
1.26551e-51
8.94998e-55
6.31371e-58
4.44676e-61
3.12499e-64
2.18979e-67
1.5315e-70
1.06879e-73
7.43894e-77
5.17084e-80
3.58426e-83
2.47869e-86
1.71166e-89
1.17909e-92
8.09996e-96
5.55475e-99
3.80348e-102
2.59918e-105
1.77304e-108
1.20636e-111
8.18697e-115
5.54714e-118
3.75117e-121
2.53031e-124
1.70403e-127
1.14522e-130
4.54848e-134
1.03283
1.01816
1.0364
0.993054
1
0.971968
1.00214
0.816207
2.88866e-11
3.30656e-14
2.09532e-16
1.78764e-16
2.57319e-17
4.64465e-19
6.77255e-22
1.09124e-25
3.07719e-29
2.22061e-32
1.64748e-35
1.17992e-38
8.39482e-42
5.96956e-45
4.23568e-48
2.99894e-51
2.11811e-54
1.49203e-57
1.04992e-60
7.37083e-64
5.16114e-67
3.60683e-70
2.51297e-73
1.74606e-76
1.21248e-79
8.40086e-83
5.8034e-86
4.00237e-89
2.75398e-92
1.89072e-95
1.29612e-98
8.8648e-102
6.04941e-105
4.1216e-108
2.80158e-111
1.89923e-114
1.28526e-117
8.67716e-121
5.8438e-124
3.93204e-127
2.64193e-130
1.04932e-133
1.04525
0.976229
0.932337
0.981127
0.994755
0.995318
1.00504
0.55049
1.20929e-12
1.69273e-15
7.28675e-18
5.98935e-18
4.39341e-19
3.40664e-21
2.65238e-24
4.27509e-28
1.79079e-31
1.32607e-34
9.75392e-38
6.99313e-41
5.03876e-44
3.61496e-47
2.54813e-50
1.82307e-53
1.29148e-56
9.08546e-60
6.41199e-63
4.52327e-66
3.19001e-69
2.33904e-72
1.57371e-75
1.0932e-78
7.63572e-82
5.31546e-85
3.73196e-88
2.56181e-91
1.7686e-94
1.22804e-97
8.47554e-101
5.77207e-104
3.9513e-107
2.70439e-110
1.8459e-113
1.25917e-116
8.53281e-120
5.78112e-123
3.9779e-126
2.64864e-129
1.78534e-132
7.80322e-136
0.999805
1.21525
0.976187
0.995703
1.01017
1.01972
1.00124
0.0119796
3.0128e-15
4.14931e-16
4.12811e-16
9.72541e-17
3.36019e-18
8.40397e-21
1.37177e-24
2.62017e-28
1.84393e-31
1.35648e-34
9.61207e-38
6.77141e-41
4.76852e-44
3.35109e-47
2.34893e-50
1.64382e-53
1.14778e-56
7.99554e-60
5.55877e-63
3.85539e-66
2.66651e-69
1.84411e-72
1.27312e-75
8.76746e-79
6.02507e-82
4.13052e-85
2.825e-88
1.92958e-91
1.31504e-94
8.94153e-98
6.07312e-101
4.11499e-104
2.78116e-107
1.87646e-110
1.26352e-113
8.48865e-117
5.69471e-120
3.81164e-123
2.54432e-126
1.69614e-129
1.12958e-132
4.45381e-136
1.04552
1.16442
1.00405
1.03112
1.00184
0.998752
1.00025
4.65317e-10
6.3242e-15
7.18559e-15
1.34031e-15
2.93117e-17
3.92088e-20
5.2573e-24
1.45285e-27
9.90674e-31
7.07593e-34
4.84402e-37
3.30742e-40
2.28221e-43
1.59499e-46
1.11449e-49
7.79753e-53
5.38374e-56
3.9382e-59
2.67445e-62
1.80224e-65
1.25059e-68
8.65724e-72
5.91464e-75
4.20223e-78
2.80614e-81
1.94975e-84
1.30629e-87
8.86888e-91
6.06953e-94
4.12385e-97
2.78733e-100
1.88022e-103
1.27218e-106
8.56591e-110
5.78731e-113
3.89098e-116
2.59929e-119
1.74592e-122
1.19649e-125
7.76987e-129
5.12584e-132
3.40201e-135
1.35675e-138
1.15596
1.00585
1.02702
1.10551
0.978995
1.00886
0.916572
9.3514e-13
2.2142e-17
2.57349e-17
5.1818e-18
3.92861e-19
6.12987e-21
1.13378e-23
2.83084e-27
7.87932e-31
5.40801e-34
4.12884e-37
3.04887e-40
2.21894e-43
1.61245e-46
1.16971e-49
8.46262e-53
6.11214e-56
4.4032e-59
3.16317e-62
2.26818e-65
1.62265e-68
1.1585e-71
8.24827e-75
5.85856e-78
4.14911e-81
2.93127e-84
2.06667e-87
1.45367e-90
1.02095e-93
7.1512e-97
4.99471e-100
3.48134e-103
2.422e-106
1.68114e-109
1.16455e-112
8.04703e-116
5.54619e-119
3.8155e-122
2.61852e-125
1.79285e-128
1.22605e-131
8.35992e-135
3.36155e-138
1.03347
1.02763
1.00935
1.00861
0.994533
1.00005
0.647242
-3.58859e-16
-8.6394e-19
6.85693e-22
1.07752e-18
8.34323e-20
3.83377e-22
9.95316e-26
8.76154e-30
2.91093e-33
1.15339e-36
5.13442e-40
2.35391e-43
1.64532e-46
4.94994e-50
2.31768e-53
1.25621e-56
3.55922e-60
2.54579e-63
5.3479e-66
1.38874e-69
5.28415e-73
1.04877e-75
1.996e-79
1.75853e-82
8.89413e-86
1.67871e-88
1.85295e-91
7.41899e-95
4.30647e-98
3.27363e-101
2.48615e-104
2.15063e-108
3.92232e-110
1.97643e-113
1.49959e-117
6.70194e-120
1.28381e-123
5.92083e-127
3.85731e-129
6.94107e-133
5.2199e-136
7.21019e-139
1.27e-141
1.07077
1.03616
1.02801
1.0028
0.999664
1.01554
0.914655
1.09426e-12
-5.70944e-20
1.49344e-16
1.092e-17
4.69441e-20
6.12439e-23
4.49659e-26
7.48087e-30
1.75191e-33
7.03102e-37
3.06627e-40
1.35039e-43
5.66541e-47
2.62215e-50
1.09597e-53
5.97631e-57
2.44654e-60
1.02128e-63
4.01952e-67
2.62755e-70
9.60096e-74
5.63786e-76
7.30555e-80
9.81763e-83
8.73833e-86
8.28263e-89
1.46388e-92
8.34556e-96
4.467e-99
8.01049e-103
2.24044e-106
1.76343e-107
2.27232e-110
2.39295e-114
5.27879e-118
4.88727e-121
1.5522e-123
2.79087e-127
5.23211e-131
8.06981e-134
9.08576e-138
2.13434e-141
8.38011e-145
1.09557
1.05017
1.02947
1.01066
0.960328
1.00134
1.00101
1.41487e-08
-1.95795e-17
-3.90202e-21
1.88924e-17
2.49029e-18
2.40693e-20
8.7106e-24
4.21847e-28
1.19512e-31
5.11005e-35
2.32831e-38
1.07807e-41
3.87494e-45
2.19549e-48
7.29205e-52
4.77739e-55
2.99973e-58
1.84537e-61
3.84704e-65
3.42937e-67
3.29033e-71
3.27615e-75
5.35971e-77
1.21949e-80
7.06048e-85
2.40608e-87
6.93885e-90
5.51944e-93
2.9333e-96
1.12693e-99
3.73154e-103
2.20809e-106
1.14199e-108
8.69814e-112
1.84067e-115
7.86894e-119
1.04793e-121
2.33276e-125
1.63319e-129
5.5844e-131
3.52572e-134
6.69138e-138
1.50636e-140
1.11824
1.12654
0.979008
1.01874
1.01923
0.99822
1.0003
0.0709854
-9.3386e-17
-2.66021e-20
-1.18925e-23
9.98622e-19
2.88272e-20
4.96348e-23
6.78575e-27
8.68405e-31
3.20685e-34
1.3695e-37
5.79213e-41
2.53077e-44
1.08666e-47
4.44824e-51
2.48302e-54
1.80152e-57
5.92785e-61
3.02118e-64
7.32229e-68
1.01199e-69
5.36566e-73
4.63981e-77
1.25219e-79
1.10399e-82
2.28266e-86
4.30441e-90
7.5108e-93
2.10207e-96
2.20304e-99
2.75756e-102
2.38819e-106
5.5407e-108
1.98047e-111
1.65145e-114
1.86324e-117
1.00162e-120
1.03367e-123
4.35784e-127
2.89449e-130
2.01173e-134
4.63603e-138
1.80241e-141
0.999998
0.952763
1.01954
0.913085
1.0027
1.00227
1.00236
0.689162
-2.09473e-16
-2.89265e-19
-4.59326e-21
4.83801e-18
3.17813e-19
1.04865e-21
1.64138e-25
1.57364e-29
5.30884e-33
2.25439e-36
1.09897e-39
4.32043e-43
1.71177e-46
7.72689e-50
4.13473e-53
2.14787e-56
1.65394e-59
1.47678e-62
2.3348e-66
6.11528e-70
6.00056e-72
3.41483e-75
1.99473e-78
2.25016e-82
1.40228e-84
3.07081e-88
7.45251e-91
5.59077e-95
2.72745e-97
8.49857e-101
6.73409e-103
1.56802e-106
1.66017e-110
6.3388e-113
3.53348e-116
1.65705e-119
7.50058e-123
1.38018e-126
3.09327e-128
1.50214e-131
4.72471e-135
1.0413e-137
1.04824
1.03634
0.998703
1.03121
0.870305
1
1.00214
0.816201
-1.17079e-16
-2.69687e-19
-6.22248e-23
3.76966e-18
2.47404e-19
8.08841e-22
1.25445e-25
1.20918e-29
4.11953e-33
1.78315e-36
7.93567e-40
2.00468e-42
2.89543e-46
2.85003e-49
8.32043e-53
1.92128e-56
7.33998e-60
2.6941e-63
6.59416e-66
6.85872e-70
2.14262e-73
6.93829e-75
2.12021e-77
3.77145e-80
4.28529e-84
1.67176e-87
2.01643e-91
4.0572e-94
1.28311e-97
3.50228e-100
5.81172e-104
1.28102e-106
4.91322e-110
5.34448e-113
6.36047e-116
3.3787e-119
1.79489e-122
9.83567e-127
2.70177e-130
1.45848e-131
9.65644e-135
3.8317e-139
1.05578
0.993021
0.988982
0.998928
0.936099
0.996803
1.00472
0.550582
-1.11002e-18
-2.74105e-20
-5.24303e-23
8.82855e-19
2.48277e-20
4.16228e-23
5.61328e-27
7.27326e-31
2.67593e-34
1.19695e-37
4.93674e-41
2.14927e-44
1.84693e-47
4.99596e-51
1.93162e-54
1.19167e-57
5.47134e-61
4.01446e-64
8.03366e-68
2.86374e-71
6.7609e-73
3.36361e-76
1.70179e-80
4.48353e-84
1.6958e-87
4.38168e-90
1.18215e-92
3.21731e-96
5.38366e-100
3.47662e-102
6.47915e-106
1.28887e-109
1.98225e-112
2.01142e-115
3.56592e-118
1.86598e-121
4.29829e-125
4.07486e-129
1.16598e-132
4.59539e-136
3.40117e-139
1.93385e-139
1.05887
1.09041
1.00281
0.995506
1.01709
1.02164
1.00112
0.0110972
-6.19752e-19
-2.70301e-23
1.84577e-17
2.3698e-18
2.31452e-20
9.03486e-24
4.57996e-28
1.25985e-31
5.28455e-35
2.23002e-38
1.13416e-41
4.23853e-45
1.86713e-48
1.02915e-51
9.32276e-55
1.55021e-58
2.96113e-61
3.50031e-65
2.37253e-67
3.45903e-70
1.87894e-74
1.36995e-77
2.96082e-80
2.3888e-84
1.14356e-86
5.54823e-90
1.42632e-93
1.7051e-96
1.22238e-99
3.46935e-103
7.64964e-106
3.44579e-108
8.04577e-112
8.80076e-115
3.25985e-118
9.18439e-122
4.61367e-125
3.47455e-129
1.06296e-132
4.15075e-136
1.63911e-139
4.67497e-143
1.10329
1.06628
1.00574
0.996596
1.00103
0.991084
1.00021
2.34935e-10
-5.21058e-19
1.40274e-16
1.36806e-17
8.96538e-20
6.05116e-23
2.94005e-26
6.25274e-30
1.66315e-33
6.93941e-37
2.96128e-40
1.35128e-43
6.12409e-47
2.42048e-50
1.20041e-53
4.68923e-57
2.22482e-60
8.60339e-64
1.56441e-66
2.22955e-70
7.69702e-74
2.99832e-77
3.20787e-79
1.98636e-82
6.06706e-86
1.13298e-88
6.87568e-92
1.25156e-95
1.69824e-98
5.13116e-102
4.63499e-105
2.32189e-109
2.29584e-111
3.00976e-115
2.903e-119
4.59123e-121
8.97305e-124
1.63036e-127
2.2488e-131
5.13274e-134
9.28271e-137
4.91828e-139
6.96806e-143
1.0298
1.03152
0.964973
1.15932
1
1.00224
0.917121
3.67036e-13
-3.10775e-19
2.16295e-19
1.3418e-18
1.59026e-19
1.03859e-21
3.00066e-25
2.12772e-29
6.41173e-33
2.66732e-36
1.15328e-39
4.90677e-43
2.08274e-46
8.94336e-50
3.89511e-53
1.60995e-56
6.91694e-60
3.53427e-63
1.54205e-66
6.08376e-70
2.36964e-73
3.75261e-76
2.35675e-79
3.36479e-83
3.70012e-85
1.41835e-88
1.20261e-92
3.0402e-95
2.19913e-98
1.29557e-101
1.68261e-105
3.69901e-107
2.32386e-110
5.47602e-114
1.02269e-116
6.10411e-120
6.91693e-124
7.51571e-127
1.28462e-129
7.79337e-133
4.7039e-136
6.28545e-140
6.17341e-144
1.00032
1.02354
1.00276
1.0041
1.00038
1.02346
1.00374
1.002
1.00365
1.00188
1.01638
1.00235
1.00219
1.00208
1.00159
0.998664
1.00212
1.00052
1.0019
0.998592
1.00188
1.00226
1.02158
1.00455
0.973575
1.00194
1.11016
1.00296
1.00397
0.976643
1.00174
1.01186
1.00363
0.956217
1.00106
1.00137
1.00252
1.00602
0.95617
1.00113
1.00374
1.00643
1.00543
1.01832
1.00444
0.997984
1.00757
1.01852
1.00508
1.00587
0.998452
1.0012
1.01672
1.00624
1
1.00104
1.00024
1.00018
0.999997
0.99683
1.0002
1
1
1.0007
1.02314
1.00018
1.00918
1.00065
1.02038
1.00025
1.00053
1.02361
1.00394
1.00264
1.00042
1.02312
1.00315
1.00254
1.00219
1.00238
1.01561
1.00206
1.00094
1.00238
1.00229
0.976407
1.00234
1.00238
1.00193
0.976944
1.00201
1.00233
1.05623
1.00294
0.99876
1.00211
1.0041
1.00309
1.00379
0.979322
1.00144
1.00224
1.00357
0.97133
1.00103
1.00143
1.00302
1.0066
1
1.00116
1.00152
1.00665
1.00942
1.01708
1.00535
0.99764
1.00985
1.01956
1.00539
1.00692
1
1.00128
1.02161
1.00642
1
1.00106
1.00036
0.999837
0.999979
0.986651
1.00001
1
1
1.0008
1.01634
1.00036
1.00825
1.00061
1.00777
1.00015
1.00063
1.0233
1.00314
1
1.00026
1.02327
1.00218
1.0023
1.00068
1.00259
1.01521
1.00171
1.00054
1.00205
1.00227
0.974091
1.00216
1.00006
1.00176
0.984723
1.00208
1.00258
1.00485
1.00268
0.969752
1.00233
0.997048
1.00322
1.00379
0.985924
1.00147
1.00196
1.00382
0.957535
1.00161
1.00146
0.999066
1.00654
0.994777
1.00134
1.00089
1.00645
1.00962
1.02113
1.00537
1.00042
1.00888
1.02024
1.0048
1.00671
1
1.00125
1.02189
1.00606
0.997224
1.00113
1.00021
0.999851
1.00001
1
1.00014
1.00054
0.999997
1.00073
1.00572
1.00034
1.00153
1.00041
1.00149
1.00013
1.00511
0.998413
1.02614
0.992538
1.00557
1.00129
1.0249
1.0061
1.00393
1.00777
1.0037
1.00745
1.00619
1.00315
-1.6927e-15
0.819888
-4.8107e-15
0.647803
8.36837e-09
0.816986
8.36837e-09
1.01852
0.971658
0.94324
1.0113
1.015
0.993163
0.958212
1.01022
1.01086
1.01272
1.01711
1.01083
1.01279
1.01045
-4.47722e-17
1.00039
-5.76823e-16
0.914487
1.00246e-09
1.00033
1.12454e-07
0.991573
1
0.984555
0.982268
1
0.994636
0.998984
1.00506
1.00202
1.00228
1
1.002
1.00182
1.00536
0.00027922
1.00143
0.499208
1.00132
0.0010599
1.00143
0.500834
0.966124
1.0392
1.01927
1.02096
1.01462
1.06871
1.02766
0.994266
0.985377
0.968047
0.965419
0.987063
0.961146
0.986118
0.75391
1.00178
1.00002
1.00062
0.754369
1.00176
1.00004
1.03271
1.0001
0.764906
0.997889
1.02001
1.01501
0.793301
0.998983
1.00264
0.992436
1.00762
1.00207
0.993652
0.997815
1.00016
1.00198
1.0005
1.00252
1.0001
1.00222
1.00109
0.883957
1.00218
0.970769
0.999996
0.812245
0.983053
1.00015
1.00171
0.999684
0.997106
0.966485
0.997634
0.997503
1.00169
1.00062
1.00396
1.00035
1.00245
1.00102
1.00423
1.00044
0.935346
1.01041
1.0219
0.989573
0.960453
1.01078
1.01851
1.00373
1.00744
1.00136
0.998853
1.0067
1.00095
1.00389
1.00006
1.00269
0.772836
1.00503
1.00017
1.00296
0.772104
1.00712
0.970189
0.941731
1.00584
1.00225
0.978564
0.921955
1.00886
1.00664
1.00469
1.01293
1.00791
1.00478
1.00902
0.550511
1.00044
0.0100765
1.00133
0.551344
1.00057
0.0158861
0.945702
0.983105
1.003
0.996499
0.81659
0.98591
0.99106
0.99357
1
0.979769
0.992702
0.999991
0.953137
0.991324
-4.89938e-16
0.996922
-2.95006e-17
1.0005
2.17521e-07
0.9904
1.37827e-08
1.00125
1.0004
1.01616
0.965863
0.975915
0.993434
0.999997
1.00513
1.00441
1.02083
1.00898
1.00381
1.02111
1.00574
-9.45969e-17
0.683626
-2.07413e-19
0.9176
3.49214e-10
0.683792
2.09163e-08
1.00323
1.0149
1.02547
1.00257
1.00631
1.01518
1.02446
1.00566
1.00281
1.00639
1.00351
1.00567
1.00634
1.00276
2.19689e-08
0.816314
2.19689e-08
0.647646
2.19689e-08
0.81917
2.19689e-08
1.01428
1.00436
0.98143
0.999098
1.00867
0.999502
0.998436
1.00477
1.01104
1.00854
1.01599
1.00654
1.01124
1.00685
1.91482e-09
1.00056
1.75764e-07
0.914858
1.90081e-09
1.00049
1.74894e-07
0.954263
0.996972
0.993075
0.972098
0.977204
0.984848
0.949313
1.00321
1.00172
1.00136
1.00123
1.00386
1.00196
1.00166
0.00113984
1.00181
0.500476
1.00136
0.00117484
1.00142
0.500805
1.01152
1.05245
1.04605
1.01964
1.00851
1.04798
1.03075
0.993154
0.995175
0.830678
0.925506
0.998866
0.995019
0.852259
0.754585
1.00142
1.00007
1.00065
0.754233
1.00193
1.00004
1.01804
1.0268
0.793887
0.992508
1
1.01725
0.991722
0.999225
1.00174
0.990987
1.0117
0.999852
1.00168
0.982115
1.00043
1.00228
1.0012
1.00277
1.00029
1.0023
1.00088
0.788896
1.02602
1.00426
0.993185
1
1.09422
0.810242
1.00226
1.00004
0.99828
0.987611
1.00219
1.00015
1
1.00134
1.00416
1.00072
1.00255
1.00093
1.00405
1.00056
0.974104
1.0103
1.00967
0.941822
0.875529
1.00399
0.988868
1.00314
1.00672
1
0.970439
1.00334
1.00712
0.99754
1.00027
1.00282
0.77253
1.00509
1.00015
1.00289
0.772219
1.01106
0.995395
0.883787
1.01332
1.01959
1
0.88997
1.00957
1.0104
1.00955
1.02084
1.0096
1.01066
1.01287
0.550991
1.00097
0.0167066
1.00099
0.551254
1.0006
0.0167155
0.811797
1.01329
0.99991
1.00125
0.806953
0.992259
0.996922
0.948148
0.99969
0.966725
0.999803
0.9584
1.00005
0.975203
3.37109e-07
0.989786
2.50264e-08
1.00041
3.39106e-07
0.988904
2.45048e-08
1.00079
1.01116
1.00172
0.977175
1
0.933556
0.990575
1.00503
1.00249
1.01862
1.00905
1.00462
1.00246
1.01942
6.77844e-10
0.683565
3.28121e-08
0.917535
6.80005e-10
0.683624
3.28244e-08
1.00181
1.01471
1.02534
0.999144
1.00075
1.01397
1.02578
1.00378
1.00117
1.00562
0.996636
1.00534
1.00687
1.00101
8.34199e-09
0.819856
8.34199e-09
0.647595
-1.6459e-15
0.821941
-4.50172e-15
1.00951
1.00684
0.996932
0.998839
1.01031
0.999873
0.982085
1.00119
1.01124
1.00367
1.01554
1.00172
1.01135
1.00279
1.00771e-09
1.00062
1.12083e-07
0.917029
-3.96646e-17
1.00047
-4.69434e-16
0.979754
0.9797
0.940388
0.973261
0.98858
0.983917
0.938396
1.00052
1.00163
0.995779
1.00225
1.0008
1.00234
0.999306
0.00101503
1.00176
0.500417
1.00075
0.000277783
1.00136
0.499071
0.953321
1.08733
1.07107
1.00525
0.898128
0.997008
0.974335
0.99628
0.99427
0.967133
0.965764
0.993312
0.99692
0.968475
0.754422
1.00123
1.00007
1.00045
0.75352
1.00158
1.00002
0.887818
1.01499
0.999344
1.03781
0.975702
0.996737
0.967053
0.999964
1.00177
0.98814
1.00355
1
1.00198
0.994013
1.0004
1.00228
1.00134
1.00229
1.00017
1.00186
1.00045
1.01354
1.02714
0.821427
1.03889
1.05119
1.0225
1.00435
1.00138
1.00007
1.04975
1.05256
1.00194
1.00011
1.04695
1.00134
1.00434
1.0006
1.00229
1.00066
1.00392
1.00034
0.981426
1.01597
1.01189
0.967781
0.979365
1.06039
1.02593
1.00456
1.00716
1.00095
1.00865
1.0035
1.00815
1.01894
1.00023
1.00275
0.772285
1.00406
1.00006
1.00264
0.772644
1.01573
0.999879
0.909603
1.04503
1.02174
0.999914
0.949283
1.01132
1.01181
1.01827
1.02165
1.0115
1.01246
1.01922
0.551082
1.00088
0.0158471
1.00082
0.550334
1.0004
0.0100513
0.798351
1.00497
0.981811
1.00045
0.76434
0.999856
0.994804
0.976927
1.00005
0.907799
0.9964
0.970551
1.00004
0.907002
2.15297e-07
0.989977
1.32739e-08
1.00008
-4.75953e-16
0.995363
-2.82227e-17
0.976182
0.934689
0.993117
1.00085
0.997392
0.973134
1
1.00587
1.00234
1.01208
0.999364
1.00534
1.00174
1.00603
3.48103e-10
0.683546
2.09013e-08
0.918517
-8.82422e-17
0.683164
-2.46578e-19
1.00255
1.00159
1.0003
1.00045
1.00073
1.00275
1.00184
1.00808
1.01497
1.01384
1.02324
1.01536
1.01401
1.00839
1.00372
1.00087
1.0078
1.00306
1.00127
1.00775
1.00367
1.00613
1.00365
1.00292
1.00717
1.0074
1.00593
1.00277
1.00265
1.00068
1.0019
1.00067
1.00106
1.00251
1.00196
1.00822
1.02361
1.01556
1.01389
1.01531
1.01398
1.00808
1.00391
1.0037
1.00131
1.00764
1.00149
1.00772
1.00377
1.00539
1.0064
1.00161
1.00224
1.00645
1.00197
1.00565
1.00789
1.00013
1.00409
1.0035
1.00037
1.00489
1.0088
1.00406
1.00147
1.00388
1.00191
1.00179
1.00405
1.00424
1.00962
1.0168
1.01114
1.00941
1.011
1.0118
1.00797
1.00525
1.00253
1.00642
1.00267
1.00649
1.00231
1.00496
1.00761
1.00293
1.00036
1.00464
1.00026
1.00474
1.00661
1.00398
1.00228
1.00204
1.0041
1.00216
1.00407
1.00378
1.00103
1.00189
1.00204
1.00182
1.00194
1.00171
1.00095
0.995182
1
1
0.996856
0.989856
0.999904
0.995506
0.999973
1.00108
1.0014
1.002
1.00001
1.00097
1.00017
1.00422
0.999986
1.002
1.00126
1.00184
1.0009
1.00358
1.00125
1.00243
1.00193
1.00169
1.00201
1.00195
1.00107
0.997845
0.997427
0.989322
0.999621
0.985148
0.999786
0.998229
1
1.00242
1.00053
1.00076
1.00022
1.00102
1.00012
1
1.00063
1.00102
1.0023
1.0003
1.0018
0.999887
0.990127
0.991639
1.00701
1.01595
0.970501
1.00426
0.990185
1.0003
1.00236
1.00239
1.0032
1.00279
1.00233
1.00039
0.986696
0.957947
0.991353
0.828154
0.994435
0.855523
0.999999
1
1.00245
1
1.00183
1.0008
1.00204
1
0.98778
1.12458
0.801478
1.00073
0.752693
1.00192
0.989087
1.00027
1.00323
1.00246
1.00245
1.00265
1.00246
1.00029
1.00086
1.00317
1.00336
1.0038
1.00307
1.00316
1.00116
1
0.992063
1
0.987971
0.996717
1
1.00003
1.00024
1.00218
1.0005
1.00135
1.00184
1.00025
1.00076
0.999768
1.00834
1.00175
0.997128
1.00181
0.998854
0.999688
1.00118
1.00406
1.00297
1.00296
1.00322
1.00341
1.00098
0.999786
0.965158
0.982997
1
0.99978
1
0.999225
1.0003
1.00157
1.00137
1.0001
1.00208
1.0004
1.00001
1.00222
1
1.00272
1.00122
1.00002
1.00272
1.00229
1.00669
1.00028
1.01256
1.00182
0.999347
1.01209
1.00701
1.00703
1.0053
1.00918
1.0061
1.00533
1.00937
1.00704
1.00199
0.957457
1.00012
0.999453
1
1
1.00196
1.00233
1.00148
1.00013
1.00273
1.00021
1.00296
1.00218
1.00677
1.00387
1.00171
1.01128
1.00206
1.01162
1.00652
1.00746
1.00614
1.00554
1.00944
1.0059
1.00961
1.00724
1.00956
1.01228
1.00949
1.00526
1.01139
1.00953
1.00977
1.00182
1.01016
1.00916
1.01874
1.01102
1.00945
1.00171
1.00395
1.00561
1.00566
1.00466
1.00539
1.00616
1.0039
1.00366
0.997424
1.00657
1.00007
1.00743
1.00046
1.00344
1.00968
1.00534
1.01157
1.00942
1.01151
1.00939
1.00961
1.00207
1.01814
1.01164
1.01058
1.01088
1.00933
1.00188
1.00409
1.00506
1.00538
1.00645
1.00551
1.0063
1.00406
1.00807
1.00832
1.00658
1.00805
1.0082
1.00678
1.00819
1.00395
0.993503
1.00094
1.00016
0.99317
1.00132
1.0045
1.00603
1.00313
1.00258
1.00108
1.00318
1.0026
1.00624
1.00912
1.01299
1.00972
1.00644
1.00838
1.0055
1.00885
1.00836
1.00787
1.0087
1.00674
1.00849
1.00676
1.00822
1.00366
0.998755
0.993714
1.00137
0.992001
1.00142
1.00401
1.00611
1.0013
1.00319
1.0026
1.00334
1.00277
1.00595
0.998411
1.00012
1
1.00021
1.00003
0.99999
0.998672
0.961893
0.99522
0.999355
1.00021
0.994763
0.997905
0.938491
0.991621
1
0.998359
1
0.999049
0.99729
0.995262
0.999388
0.997042
0.999724
0.879532
1
0.896864
0.988225
0.999457
1.00045
1.00012
0.999899
1.00017
0.999956
0.998591
0.998465
1.00029
0.990162
0.998405
0.996338
0.999163
0.997992
0.998034
0.999995
0.996782
0.997492
0.998413
0.997518
0.98789
1.00227
1.00169
1.00057
1.00069
1.00157
1.00063
1.00229
1.00307
1.02129
1.003
1.02205
1.02169
1.00344
1.00418
1.0013
1.00021
1.001
1.00027
1.00039
1.00134
1.00123
1.00479
1.00901
1.00258
1.02015
1.00246
1.02008
1.00462
1.00226
1.00081
1.00156
1.00061
1.00161
1.00092
1.00214
1.00238
1.02036
1.0211
1.00436
1.02066
1.00277
1.00333
1.0013
1.00043
1.00041
1.00125
1.00072
1.00131
1.00117
1.00239
1.002
1.00084
1.00043
1.00259
1.0005
1.00186
1.00799
1.01597
1.01423
1.02338
1.00808
1.01614
1.01414
1.0037
1.00157
1.00758
1.00346
1.0039
1.00137
1.00747
1.00554
1.00379
1.00177
1.00673
1.00649
1.0055
1.00237
1.00233
1.0006
1.00123
1.00034
1.0007
1.00193
1.0016
1.0081
1.02339
1.01651
1.0145
1.01635
1.01442
1.00803
1.00381
1.00346
1.0013
1.00743
1.0016
1.00751
1.00358
1.00407
1.0066
1.00302
1.00221
1.00469
1.00654
1.00313
1.00379
1.00004
1.00471
1.00127
1.00558
1.00012
1.00435
1.00368
1.00232
1.00425
1.00228
1.00387
1.0021
1.00412
1.00327
1.01551
1.01136
1.00469
1.01126
1.00562
1.00171
1.00371
1.00248
1.00652
1.00318
1.00666
1.00325
1.00353
1.00263
1.00131
0.999877
1.00393
1.00005
1.00422
1.00145
1.00367
1.00255
1.00206
1.00389
1.00234
1.0041
1.00289
1.001
1.00192
1.00172
1.00191
1.00123
1.00187
1.00143
0.997582
0.962294
0.998366
0.947746
0.997417