/*--------------------------------*- C++ -*----------------------------------*\
| =========                 |                                                 |
| \\      /  F ield         | OpenFOAM: The Open Source CFD Toolbox           |
|  \\    /   O peration     | Version:  5.0                                   |
|   \\  /    A nd           | Web:      www.OpenFOAM.org                      |
|    \\/     M anipulation  |                                                 |
\*---------------------------------------------------------------------------*/
FoamFile
{
    version     2.0;
    format      ascii;
    class       volVectorField;
    location    "4.4";
    object      ddt0(rho,U);
}
// * * * * * * * * * * * * * * * * * * * * * * * * * * * * * * * * * * * * * //

dimensions      [1 -2 -2 0 0 0 0];

internalField   nonuniform List<vector> 
8703
(
(0.319606 -1.53957 0.338027)
(4.42429 -1.2764 0.240745)
(6.10807 -2.06801 -0.8204)
(4.49604 -7.50073 2.08547)
(0.0240665 -6.8436 1.66875)
(-96.9164 11.8043 -14.9179)
(-4.35585 9.08577 0.605262)
(-11.5139 6.01592 0.390394)
(-14.7896 2.66952 0.00249796)
(-16.7648 3.29008 0.0087209)
(-17.9138 2.21914 0.275177)
(-18.4841 1.73894 0.123652)
(-15.1592 3.63458 -0.34159)
(-12.2357 1.40572 0.194387)
(-10.9208 0.0471447 0.00748187)
(-9.15666 0.621367 -0.331067)
(-6.54027 -0.113386 0.0131557)
(-3.15249 1.36107 0.172864)
(-0.708829 2.46053 0.17728)
(-0.254491 1.10671 -0.179106)
(-0.269514 1.46699 -0.0600892)
(2.69618 1.06547 0.162492)
(2.13777 -0.783347 -0.0235345)
(0.999432 -0.553222 -0.138712)
(3.36207 -2.50791 0.0729093)
(3.18888 -3.17413 0.113176)
(0.165606 -1.43121 -0.104557)
(-0.947722 0.463367 0.0152683)
(1.76562 1.33128 -0.19822)
(1.73237 0.725551 -0.047367)
(0.872668 2.38495 0.127899)
(4.35708 2.49127 0.0937505)
(3.93034 0.186403 0.101932)
(-1.04261 -0.774918 -0.121088)
(-0.739734 -0.258001 -0.0370393)
(6.84185 -0.0481727 -0.00540266)
(14.8159 -1.33099 -0.0807755)
(17.0605 -2.27212 0.0170461)
(15.259 -1.37494 0.0721293)
(15.3935 -0.201518 -0.0637646)
(20.9223 0.623291 -0.151287)
(24.0336 1.39554 0.159614)
(18.631 1.85579 0.237514)
(15.5518 2.15101 -0.0396767)
(21.7045 0.470594 0.0181407)
(25.4245 -1.3779 0.089564)
(22.4683 -1.59064 -0.0799645)
(21.8353 -1.06999 -0.0604471)
(22.8398 -0.836754 0.0213941)
(20.3662 -0.373842 0.00182471)
(-0.789737 0.0343075 0.640225)
(-0.472533 -1.14202 -0.935099)
(-4.71135 -12.1554 0.3327)
(-8.60322 -14.0187 -0.44203)
(-11.6149 -23.2199 3.49274)
(-116.54 -14.855 14.4017)
(3.13725 12.3301 0.140985)
(-15.2174 12.7298 -0.0928602)
(-16.9132 8.4731 -0.00453045)
(-17.4685 4.3516 -0.0046487)
(-19.2095 4.17918 -0.00165746)
(-17.2244 1.45174 -4.12641e-05)
(-14.9651 1.72701 -0.00012848)
(-15.6442 1.50764 -0.00324152)
(-11.7545 0.949796 0.00146449)
(-9.54096 -0.156805 -0.201945)
(-5.81855 1.59805 0.00578116)
(-0.403081 3.7943 0.241619)
(-2.0514 4.22729 -0.0797376)
(-2.35052 0.401298 -0.150582)
(-0.453462 0.878714 0.215413)
(0.886539 0.624245 0.133795)
(1.82508 -1.50182 -0.173828)
(0.830505 -0.33995 -0.177667)
(1.33912 -0.728594 0.0586499)
(2.95583 -2.18896 -0.0227774)
(2.51258 -2.23656 -0.129661)
(1.87 0.735821 0.00202196)
(1.80428 1.81964 0.0781638)
(1.94158 0.35684 0.140726)
(2.02746 1.89889 0.35154)
(1.93876 1.33814 0.0603683)
(1.4495 -1.99786 -0.0589744)
(0.203846 -1.7715 -0.0390988)
(1.02212 1.26083 0.0193396)
(6.04191 2.245 -0.0637048)
(12.4836 -0.297427 -0.0444202)
(16.3529 -2.15856 0.0994025)
(16.6193 -1.51392 -0.0785869)
(17.2123 0.0706138 -0.085967)
(21.552 1.48107 0.0706873)
(23.9037 0.224006 0.175439)
(19.4779 -0.629975 -0.0526374)
(15.7712 1.26647 -0.374789)
(19.193 1.7153 0.100641)
(23.4489 -1.12902 0.0680088)
(23.3638 -1.41499 -0.106486)
(22.9783 0.0551917 0.0125574)
(23.0821 0.497671 0.0502603)
(20.4692 -0.0859225 -0.00025466)
(-1.15368 -5.29446 0.0171307)
(-10.8029 -4.2232 -0.128344)
(-9.9728 -6.91869 -0.16072)
(-20.8676 -3.05793 -2.0853)
(-27.5327 -13.6179 -4.49781)
(-0.310156 -31.2826 -22.218)
(60.0292 29.3137 -8.61361)
(-22.1764 9.39148 0.828015)
(-25.2745 6.31326 0.614945)
(-22.1298 4.68537 -0.000400794)
(-21.5429 3.20193 -0.00108403)
(-21.5464 3.51855 -0.00237641)
(-15.0909 -0.536899 -0.00211036)
(-13.2078 -0.500851 0.00135732)
(-13.002 0.887059 -0.000226074)
(-8.34316 -0.343342 -0.00307044)
(-1.60048 1.51655 0.00587204)
(0.132674 1.45572 -0.133546)
(-4.9549 -0.58102 0.282307)
(-4.43499 0.189284 -0.0397722)
(0.00836921 1.14525 -0.212854)
(-0.28211 0.322842 -0.00582326)
(0.935975 -0.298534 -0.147189)
(1.96298 -0.236006 0.0762008)
(1.04873 1.45721 0.0316028)
(1.305 0.542994 -0.121791)
(3.8246 -1.09706 0.0704493)
(4.12041 1.14687 0.000991044)
(1.28888 0.315159 0.0771581)
(1.83546 -0.663648 0.106618)
(2.09752 0.48645 -0.0748641)
(-0.517082 -0.454653 -0.198253)
(0.0474863 -2.21008 -0.114578)
(3.03329 -1.6192 -0.00203569)
(4.27776 1.67303 0.227582)
(4.8896 3.25666 0.0316431)
(9.31205 0.617061 -0.0938481)
(15.5422 -1.40389 0.0477869)
(18.0461 -0.593924 -0.0224364)
(19.1366 0.932795 -0.0522004)
(21.1103 1.45257 0.148512)
(21.3952 -1.2732 0.146826)
(19.9378 -2.98529 -0.0382321)
(18.482 -0.385402 -0.0998762)
(18.707 1.94157 0.134011)
(21.5149 0.172044 -0.0589104)
(23.951 -0.361903 -0.0637134)
(24.2249 1.36238 0.157834)
(22.6626 1.20649 0.0421957)
(19.8523 -0.333742 -0.0134756)
(0.552554 -4.41091 -0.561182)
(-2.48844 -5.02992 -0.202245)
(-3.22309 4.56079 0.0647921)
(7.07654 0.854311 2.83821)
(-6.69532 32.8227 -0.582215)
(-14.5245 34.9946 -9.00942)
(6.76868 27.1371 0.410813)
(-23.9188 0.131508 1.23765)
(-22.7817 0.829151 0.0108651)
(-21.3584 2.17518 -0.26343)
(-20.6667 0.589891 -0.00104172)
(-21.9038 1.33304 -0.00358561)
(-19.9848 0.918847 -0.00225818)
(-13.8628 -0.656236 0.00138261)
(-11.5609 1.19352 -0.000149475)
(-8.75056 1.65536 -0.00060404)
(-3.57188 1.37598 0.00146876)
(-3.02661 -1.58807 -0.192784)
(-3.63075 -4.43135 -0.0870961)
(-0.191988 0.234313 -0.15573)
(-0.288339 1.19361 0.168158)
(-0.917752 -0.16304 0.00484861)
(1.12698 0.774022 0.0161752)
(3.02672 0.475936 0.196481)
(2.30968 2.06218 -0.224557)
(-0.237819 2.6705 -0.202755)
(3.27118 1.1346 0.201119)
(3.63104 0.458863 0.107953)
(-0.459872 -1.40404 0.10296)
(2.15782 -1.48759 -0.175512)
(2.28593 -0.735697 -0.110982)
(-1.43345 -1.27167 0.0713276)
(-0.00388384 -1.13855 -0.0217926)
(5.06089 -0.699398 0.00252974)
(7.11497 0.874317 0.0989926)
(4.71712 2.59841 -0.0608191)
(6.65882 1.60062 -0.081293)
(14.8425 -0.0273361 0.0517452)
(19.5408 0.416821 0.0407522)
(19.7692 1.45799 0.038413)
(18.7906 0.331281 0.0384852)
(18.3575 -2.63109 -0.0526818)
(20.592 -3.8752 -0.0251259)
(21.9279 -1.71296 0.0323751)
(19.8841 0.54466 0.120943)
(20.5702 0.512058 0.00691202)
(24.8536 0.952554 -0.0763036)
(24.9365 2.61236 0.0549718)
(20.9603 1.5139 0.00240972)
(19.3809 -0.477777 -0.0582379)
(-1.93136 3.24693 -0.527766)
(0.424207 -1.48386 0.214818)
(-2.63529 0.697093 0.889267)
(-5.30327 -3.9686 0.11541)
(-2.30738 -35.4689 2.59403)
(-12.3291 -8.41095 19.879)
(-36.8151 -18.7473 4.44944)
(-24.2016 0.294726 -0.608564)
(-22.7242 -0.810392 -0.212477)
(-22.4325 -1.16744 0.25254)
(-22.593 -1.20915 0.0799028)
(-21.1366 -2.69881 -0.106765)
(-17.5789 0.123922 -0.15564)
(-12.8603 0.17691 -0.000675984)
(-10.1145 1.72165 0.0998504)
(-8.11623 1.78048 0.0633905)
(-5.65844 2.24701 -0.000633044)
(-7.12687 -0.434383 -0.00290794)
(-2.66788 -2.2826 -0.0980367)
(2.59144 -0.719897 0.213058)
(-0.491406 -0.00727767 0.124822)
(-0.803407 -0.395274 -0.11319)
(1.73342 0.576862 -0.117579)
(3.57569 1.43347 0.238075)
(3.79124 1.40494 -0.147173)
(0.142874 2.74406 0.129903)
(1.06058 2.19133 0.200561)
(0.944773 -0.731412 0.0226779)
(-1.14298 -1.48275 -0.254622)
(2.67058 -1.1538 -0.138643)
(2.36414 -1.17113 0.115829)
(-1.02129 -1.43572 0.0150245)
(0.762202 -0.979494 -0.0898022)
(5.55011 0.109609 0.00262792)
(8.40017 0.51302 0.0579205)
(5.79433 1.09861 0.00121449)
(6.02912 2.07638 0.0772988)
(14.0653 1.48372 0.00498091)
(19.9039 0.638422 0.00542886)
(19.0272 0.716692 0.202467)
(15.997 -0.768125 -0.0681016)
(16.139 -2.82544 -0.0425478)
(21.0887 -3.35954 0.00906059)
(24.0062 -2.08611 0.164963)
(21.4854 -0.86302 -0.0157867)
(22.0252 0.429626 0.000236874)
(26.5777 1.96771 0.0396713)
(24.9237 2.8201 0.0416412)
(18.799 1.60624 -0.0262082)
(18.5609 0.0565406 -0.00427617)
(-5.38199 2.37419 1.60075)
(-5.67571 1.64801 0.462207)
(-6.32196 -3.10322 -0.200491)
(-28.8478 0.115097 -1.22599)
(-6.79731 7.37663 -12.1768)
(10.1166 -3.02384 5.97986)
(5.01881 13.1964 5.40862)
(-26.4486 -0.0521559 -0.503973)
(-24.6104 -2.76326 -0.328832)
(-21.8569 -3.77123 0.283156)
(-22.5824 -1.51042 -0.0916464)
(-20.2322 -0.649557 -0.0526688)
(-16.3937 1.38078 0.311742)
(-11.8639 1.58563 -0.00223765)
(-9.55826 0.48247 0.00856503)
(-8.0933 0.730447 -0.0101317)
(-6.34422 0.743746 -0.0005145)
(-8.68798 1.1459 0.139859)
(-3.98351 -0.0614203 -0.139061)
(2.65078 -1.86279 -0.0186511)
(0.116011 -1.53703 0.162462)
(-0.185896 -0.338881 -0.108272)
(3.41304 0.0878022 -0.0673112)
(4.06085 1.96513 0.110488)
(3.94963 1.31917 0.123718)
(0.742635 1.44382 0.0355213)
(-1.07548 1.66817 -0.0622011)
(-0.958952 -0.963143 -0.206341)
(-0.986932 -0.453827 -0.0332366)
(2.54592 0.0361132 0.158683)
(1.93246 -0.896837 0.104065)
(-1.19338 -1.80409 -0.362024)
(1.92833 -1.45723 -0.207891)
(6.92504 0.770502 0.0267504)
(8.35126 0.572135 0.0494784)
(6.67176 -0.398829 -0.0317232)
(7.13841 1.58953 0.0435675)
(13.0452 2.39655 -0.0030473)
(18.5836 0.499953 -0.0339212)
(18.0093 -0.620698 0.0945034)
(14.3626 -1.2273 -0.090395)
(15.1201 -1.73656 -0.188464)
(21.5185 -1.48232 0.0504626)
(25.0492 -1.18482 0.071032)
(23.0297 -1.014 -0.13796)
(24.1098 0.456575 0.00129472)
(27.8412 1.87028 0.101143)
(24.4825 1.70239 0.0520474)
(17.5058 1.1498 -0.20774)
(17.3042 0.853327 -0.00338109)
(-2.84679 -1.57608 0.0549933)
(-6.43502 4.31364 -0.401631)
(-4.53565 0.219215 -0.818174)
(0.461732 1.13225 1.11335)
(10.0133 15.6481 -1.33956)
(1.67445 -17.9208 -10.1848)
(-56.8717 -11.6902 -6.17248)
(-33.0944 -5.35982 -0.93123)
(-27.3759 -3.21805 0.0149624)
(-20.8615 -4.23204 0.0106254)
(-18.6919 -2.812 -9.88833e-05)
(-17.521 -1.32128 -0.00121241)
(-14.7871 0.529952 -0.00227021)
(-13.9848 0.546051 0.00172332)
(-11.1817 -2.86903 -0.000870544)
(-7.78985 -0.0809796 -0.0022313)
(-5.13861 -1.10301 -0.000726307)
(-8.13514 -0.409582 -0.143984)
(-6.42956 1.76159 -0.0464497)
(0.749483 -1.78865 0.117428)
(1.41451 -2.17014 0.0203333)
(1.22655 -0.525887 -0.000199879)
(4.615 -0.268338 0.000146679)
(5.11198 1.00114 0.00517735)
(3.1405 0.688503 -0.233513)
(0.57938 0.400101 -0.0651479)
(-1.95125 0.645991 -0.0397472)
(-1.7038 -0.999519 0.131064)
(0.10625 0.366184 0.0798106)
(2.11561 0.950135 0.057463)
(0.0646094 -1.17135 0.0823163)
(-1.71935 -1.50939 -0.0740396)
(3.98308 -0.184364 -0.0387127)
(8.08441 1.27846 0.0729979)
(6.93794 0.0635567 -0.0468127)
(7.06985 -1.66044 -0.0741097)
(9.52219 0.480162 0.0193859)
(12.7005 2.42656 -0.0125562)
(16.1334 0.696873 -0.0137097)
(16.869 -1.26844 0.0450859)
(14.6024 -1.17997 -0.0206385)
(15.8215 0.276179 -0.273524)
(21.7787 0.946745 0.0917357)
(24.5918 -0.0228017 0.0423589)
(23.5392 -0.595266 -0.173046)
(25.6308 0.388754 0.00210469)
(28.1333 0.479051 0.261823)
(24.0231 -0.583151 0.0291443)
(17.7386 0.0915465 -0.219963)
(16.0547 1.10485 0.0877651)
(1.99155 6.08956 -0.749218)
(-3.45193 5.23631 0.278546)
(-10.2973 4.55232 1.2099)
(-1.67069 6.1546 0.378911)
(-17.608 -6.39616 4.29692)
(-13.2195 -57.6317 1.36721)
(105.562 9.70665 5.73678)
(-24.5112 -12.1873 0.280045)
(-23.1933 -5.4349 0.332136)
(-21.3449 -1.80789 -0.00796032)
(-18.9433 -2.34924 -0.00398624)
(-16.0538 -0.784681 -0.00215571)
(-14.0613 -1.56722 0.000727932)
(-16.1166 -1.404 6.95106e-05)
(-10.3345 -1.67464 -0.00272459)
(-5.89045 -0.268915 0.00151838)
(-6.75345 -3.14902 0.484783)
(-5.10516 -2.87896 -0.171054)
(-5.71471 0.677745 0.29362)
(-2.25996 0.226937 -0.0307422)
(1.6972 -1.61575 -0.00468931)
(2.18975 -1.10252 0.107176)
(5.32314 0.234228 0.10207)
(5.25551 -0.385617 -0.000869641)
(3.19854 -0.0289374 -0.0274486)
(0.690225 0.19635 0.089419)
(-2.82736 -0.284808 0.0288006)
(-1.30485 -0.606674 -0.0934836)
(1.44985 0.117169 -0.0323553)
(0.621557 0.578816 0.085405)
(-1.13897 -1.53186 -0.07635)
(0.0425599 -0.342827 -0.0835229)
(5.41336 2.03549 0.0451394)
(7.2322 1.27637 0.005759)
(4.6774 -0.877099 -0.0251041)
(7.1973 -2.16057 0.0363523)
(12.2472 -0.56699 0.0266471)
(13.3121 1.43336 -0.0292481)
(13.9646 0.877115 0.00223865)
(15.6658 -0.877988 0.00128672)
(16.2948 -0.721728 -0.13741)
(17.7775 1.83163 0.0663735)
(21.1429 2.7829 0.0490738)
(23.1224 0.491338 0.00162078)
(23.5461 -0.559859 -0.0523429)
(25.452 0.370269 0.00400466)
(26.6257 -0.589665 0.00228162)
(24.0008 -2.24605 -0.0218035)
(19.6169 -1.19887 0.0165081)
(15.8042 0.472018 0.0194024)
(-3.92195 5.15624 0.792967)
(-8.37404 2.67488 -0.591481)
(-3.37165 8.06398 -1.90257)
(-16.9764 13.3908 -0.287676)
(-44.316 -3.29199 4.92689)
(-31.9374 22.3806 -2.5308)
(12.5878 -20.9157 0.348317)
(-6.30526 -10.3267 0.281831)
(-14.4024 -4.9543 0.366371)
(-17.008 -2.57596 -0.00056074)
(-17.4094 -1.39991 0.000443923)
(-16.5459 -1.23741 -0.000694204)
(-15.5598 -3.75156 -0.0028667)
(-14.1195 -1.62783 -0.00324422)
(-9.76071 0.213177 0.00136816)
(-9.63842 -1.97753 0.402629)
(-8.39776 -2.54717 0.269686)
(-3.34773 -1.97282 -0.230906)
(-2.55225 -1.3585 0.0969522)
(-2.11909 1.21255 0.178342)
(-0.244053 -0.434817 0.001797)
(3.54043 -0.467154 0.101063)
(5.50942 0.773357 0.0446351)
(4.78512 -1.64538 0.00826103)
(3.86846 -1.04274 -0.120653)
(0.259337 -0.513021 0.0429598)
(-2.95396 -0.309047 -0.188332)
(-1.19935 0.120692 -0.038458)
(1.58796 -0.529872 0.201763)
(0.0513556 0.141766 0.140049)
(-1.08332 -0.528916 -0.0774703)
(2.74098 0.908492 -0.0482517)
(6.00325 3.18753 0.137741)
(4.44213 1.00605 0.0700388)
(2.64321 -1.99161 -0.123378)
(7.46083 -2.64666 0.114451)
(14.0154 -1.84261 0.0934209)
(14.5028 -0.234271 -0.114834)
(13.243 0.633569 -0.0740291)
(14.8728 -0.179525 -0.0155311)
(17.9922 -0.127768 0.126635)
(20.2004 2.42693 0.0925912)
(20.1001 3.5423 -0.0212638)
(20.4153 0.343306 -0.163829)
(23.3903 -0.953882 0.00158112)
(25.5916 0.387477 0.0093576)
(24.8626 -0.494215 -0.0677068)
(23.2647 -2.52933 3.07855e-05)
(21.1368 -2.06752 0.0447137)
(16.9599 -0.453804 0.00143398)
(-1.11692 -4.09411 -0.588753)
(0.180889 -0.707492 0.0346388)
(3.09782 6.13905 1.99992)
(4.7266 6.88299 1.62797)
(-44.5303 33.0582 -2.04229)
(-14.2835 73.423 -7.61484)
(5.57092 5.41845 0.925706)
(-6.09497 -0.637217 0.36749)
(-13.51 -1.10412 0.00199054)
(-16.9023 -0.947649 -0.0115577)
(-17.271 -0.909407 0.214627)
(-18.9963 -1.35054 -0.0906226)
(-14.5435 -2.45942 -0.151182)
(-11.1612 -1.03303 0.0856419)
(-10.7765 -0.951143 -0.000186667)
(-9.3393 -1.96009 0.376403)
(-6.74572 -0.568752 -0.0016637)
(-3.61952 -0.473168 -0.0971844)
(-1.73064 -0.412266 0.181638)
(-1.11038 1.00025 -0.0777757)
(-0.399988 1.08046 -0.178491)
(3.70217 0.980198 -0.0235721)
(3.8467 0.405763 0.0144057)
(2.98974 -1.7155 0.0177264)
(4.61467 -2.62382 0.105459)
(1.60798 -2.12172 0.00794523)
(-2.03388 -0.281402 -0.106752)
(-1.58174 0.375132 0.042686)
(1.47782 -0.0789403 0.132078)
(0.621401 0.51582 -0.0494322)
(-0.178128 1.2655 -0.129599)
(4.6892 2.08045 0.048821)
(5.53026 2.55815 0.200044)
(0.758092 0.424022 -0.144184)
(0.114731 -1.83019 -0.134181)
(7.38516 -2.28401 0.18037)
(15.2636 -2.32574 0.0672567)
(16.4063 -1.64402 0.000216162)
(14.0311 -0.279968 0.0343215)
(14.7154 -0.0299208 0.00556622)
(19.5561 0.136675 0.00212943)
(22.3638 2.31202 0.0323439)
(18.534 3.20459 0.00525341)
(17.5046 1.13998 -0.109242)
(23.6044 -0.6861 0.0203845)
(26.0235 -0.209883 0.0448705)
(22.9778 -0.818182 -0.17703)
(22.0362 -2.12389 -0.0167523)
(22.2115 -1.96251 0.0722863)
(18.9554 -0.761645 0.000803201)
(0.266055 -1.46238 0.663231)
(4.408 -1.31847 1.08787)
(6.32649 -2.20961 -1.86038)
(4.18832 -7.59896 2.92881)
(1.68971 -6.60469 1.92957)
(-90.056 8.70635 -71.8269)
(-3.18968 8.6491 -0.380637)
(-11.0105 6.15544 0.706519)
(-14.5888 2.80255 -0.000601697)
(-16.629 3.37012 0.0127145)
(-17.8738 2.25091 0.396897)
(-18.5419 1.73687 0.259265)
(-15.1431 3.61593 -0.531612)
(-12.1971 1.3738 0.296601)
(-10.961 0.0321091 0.0161887)
(-9.1775 0.580738 -0.649062)
(-6.5478 -0.11094 0.0269669)
(-3.17341 1.40095 0.267495)
(-0.777703 2.45761 0.435684)
(-0.304768 1.11017 -0.45339)
(-0.259339 1.55977 -0.11603)
(2.60326 1.21618 0.367976)
(1.99209 -0.660069 -0.0797475)
(0.946423 -0.473773 -0.337575)
(3.3295 -2.37333 0.155355)
(3.09211 -3.0253 0.163307)
(0.112981 -1.3429 -0.336182)
(-0.919953 0.466717 0.0294919)
(1.72639 1.29353 -0.361891)
(1.63887 0.633156 -0.0879632)
(0.789985 2.30503 0.26977)
(4.20932 2.44129 0.181254)
(3.82581 0.163339 0.128838)
(-1.015 -0.734159 -0.284104)
(-0.69522 -0.168975 -0.0645755)
(6.83144 0.0210875 -0.0110501)
(14.752 -1.30309 -0.124214)
(16.9624 -2.21646 0.0352744)
(15.162 -1.30611 0.141535)
(15.3359 -0.147878 -0.130069)
(20.879 0.658488 -0.285671)
(23.9779 1.41871 0.276878)
(18.624 1.8577 0.383342)
(15.5041 2.17895 -0.126995)
(21.7027 0.450828 0.10226)
(25.3883 -1.44902 0.193711)
(22.3364 -1.59822 -0.210308)
(21.7801 -1.0734 -0.112293)
(22.7428 -0.833657 0.0525365)
(20.2007 -0.378221 0.00863698)
(-0.949509 -0.0208788 1.36588)
(-0.46551 -1.18675 -2.31397)
(-4.70106 -12.1889 0.157313)
(-8.52263 -14.3556 -0.629337)
(-11.1424 -22.3586 2.8789)
(-114.586 -21.3611 51.6464)
(4.56346 11.61 -2.63341)
(-14.7893 13.5541 -0.556527)
(-16.7883 8.8779 -0.020558)
(-17.4358 4.54577 -0.00734174)
(-19.2175 4.26769 -0.00573439)
(-17.253 1.52307 -0.00333388)
(-14.9907 1.79771 -0.00285836)
(-15.6629 1.52029 -0.00824137)
(-11.7908 0.954004 -0.000687961)
(-9.55381 -0.150523 -0.528596)
(-5.77444 1.56977 0.0111522)
(-0.408098 3.71826 0.544719)
(-2.13847 4.19599 -0.208694)
(-2.40044 0.404723 -0.239621)
(-0.448979 0.885835 0.35981)
(0.826525 0.624254 0.308756)
(1.71616 -1.42675 -0.427214)
(0.818671 -0.225934 -0.387549)
(1.32854 -0.624208 0.116641)
(2.8244 -2.11649 -0.048384)
(2.36232 -2.14094 -0.261981)
(1.75081 0.731607 0.0019116)
(1.69119 1.73708 0.19466)
(1.86763 0.317083 0.255833)
(2.01515 1.85069 0.479117)
(1.91628 1.28145 0.152656)
(1.41919 -1.91223 -0.136383)
(0.214894 -1.68041 -0.0808223)
(1.04545 1.31766 0.0368379)
(5.99422 2.25733 -0.0885603)
(12.4138 -0.277347 -0.071448)
(16.3015 -2.11454 0.389564)
(16.5362 -1.43942 -0.137257)
(17.1318 0.138766 -0.169564)
(21.4535 1.50174 0.124896)
(23.757 0.219148 0.369914)
(19.3435 -0.645241 -0.183207)
(15.7321 1.20606 -0.791188)
(19.1416 1.67716 0.277092)
(23.4016 -1.24354 0.172949)
(23.3658 -1.4189 -0.244807)
(22.9447 0.0655071 0.029582)
(23.0111 0.472625 0.0949111)
(20.3688 -0.111421 0.00163601)
(-1.18896 -5.37311 -0.20588)
(-10.7839 -4.14089 -0.997169)
(-10.1167 -6.96616 0.913982)
(-20.9681 -2.7162 -3.1616)
(-25.7597 -13.2465 -7.21609)
(3.92355 -28.8651 50.9291)
(115.236 34.8337 -42.5406)
(-21.0781 9.8299 1.55558)
(-25.8727 6.49568 1.54137)
(-22.39 4.79095 -0.00549329)
(-21.6571 3.27971 -0.00402276)
(-21.6268 3.57343 -0.00523517)
(-15.1479 -0.502107 -0.005354)
(-13.2526 -0.479615 0.000381602)
(-13.0503 0.895194 -0.00036611)
(-8.40432 -0.331458 -0.00661854)
(-1.71064 1.50194 0.00390033)
(0.108519 1.39321 -0.512556)
(-4.92364 -0.65851 0.299698)
(-4.43682 0.139874 -0.0762847)
(0.014466 1.10508 -0.494192)
(-0.289497 0.28726 -0.00752108)
(0.933323 -0.279812 -0.258691)
(1.94767 -0.161055 0.160236)
(0.965079 1.40484 0.100203)
(1.19784 0.550247 -0.19066)
(3.67637 -1.02277 0.140857)
(3.92512 1.23175 0.0236178)
(1.20505 0.385587 0.177629)
(1.78415 -0.579832 0.208849)
(1.9931 0.559375 -0.156437)
(-0.497248 -0.394397 -0.324766)
(0.127836 -2.1948 -0.241306)
(3.02571 -1.58755 -0.000790841)
(4.22469 1.65993 0.363156)
(4.83363 3.20697 0.0817724)
(9.28822 0.615306 -0.331475)
(15.5128 -1.39383 0.142938)
(17.9799 -0.58508 -0.0350964)
(19.0123 0.940279 -0.105249)
(20.9766 1.44344 0.281119)
(21.295 -1.25069 0.365365)
(19.8616 -2.90134 -0.0762124)
(18.4067 -0.253578 -0.372849)
(18.6383 2.11138 0.181268)
(21.5223 0.29146 -0.099674)
(23.9752 -0.32093 -0.113998)
(24.1435 1.39146 0.229158)
(22.5207 1.19417 0.102236)
(19.75 -0.344298 -0.0247454)
(0.58395 -4.51934 -1.02462)
(-2.41213 -5.04569 -0.325568)
(-2.87258 4.47882 0.240361)
(6.26358 0.961096 4.03809)
(-7.1839 31.5709 -5.38863)
(-13.106 37.0355 -22.4304)
(6.15878 30.7296 -6.66125)
(-24.6273 -0.303224 2.49161)
(-23.0486 0.703083 -0.0017312)
(-21.4557 2.21745 -0.81203)
(-20.7377 0.622689 -0.00411206)
(-21.986 1.36042 -0.00756765)
(-20.0523 0.910595 -0.00801001)
(-13.9149 -0.641035 -0.000241701)
(-11.6089 1.21514 -0.00304926)
(-8.7919 1.67696 -0.00350321)
(-3.62072 1.40004 0.00356626)
(-3.11064 -1.51301 -0.429666)
(-3.70148 -4.43925 -0.0636084)
(-0.195241 0.243873 -0.263737)
(-0.266391 1.18012 0.283633)
(-0.903738 -0.197235 0.00956627)
(1.1566 0.722265 0.0407124)
(2.92619 0.445756 0.452512)
(2.21473 1.98271 -0.47937)
(-0.210848 2.6526 -0.472008)
(3.21827 1.14832 0.513095)
(3.50745 0.561568 0.14838)
(-0.573696 -1.25546 0.206205)
(2.08742 -1.3572 -0.344273)
(2.24462 -0.570601 -0.178407)
(-1.52686 -1.08469 0.142227)
(-0.068958 -1.03186 -0.0298363)
(5.03712 -0.659993 0.00379936)
(7.037 0.880563 0.157353)
(4.68406 2.59463 -0.124711)
(6.66367 1.59237 -0.154027)
(14.8046 -0.0645591 0.139544)
(19.4547 0.355899 0.0867426)
(19.6663 1.41153 0.0764694)
(18.7111 0.326448 0.0768267)
(18.3272 -2.5834 -0.0965064)
(20.5944 -3.80403 -0.0489803)
(21.997 -1.62744 0.0654317)
(19.8175 0.585285 0.272082)
(20.3623 0.548757 6.56746e-05)
(24.7429 0.935194 -0.137361)
(24.8362 2.57017 0.103546)
(20.8397 1.49417 0.00783132)
(19.3092 -0.466487 -0.124507)
(-1.86656 3.33441 -0.816686)
(0.472853 -1.46378 0.343506)
(-2.62659 0.578502 1.31139)
(-5.60223 -4.28369 0.191863)
(-3.82064 -36.4127 9.34527)
(-20.7576 -19.455 63.1472)
(-43.1716 -31.9852 1.76189)
(-24.6492 0.201839 -1.12941)
(-22.7373 -0.821489 -0.436712)
(-22.4928 -1.14546 0.704337)
(-22.7249 -1.21588 0.150384)
(-21.2678 -2.71251 -0.240918)
(-17.6508 0.172284 -0.491167)
(-12.8678 0.183934 -0.00262008)
(-10.1547 1.72405 0.224799)
(-8.17452 1.77924 0.168227)
(-5.70207 2.24226 -0.00022279)
(-7.19169 -0.435664 -0.015541)
(-2.71922 -2.27722 -0.222529)
(2.58267 -0.688445 0.325866)
(-0.539793 0.0202107 0.281355)
(-0.858691 -0.407949 -0.186742)
(1.73586 0.557656 -0.180831)
(3.52582 1.37879 0.37528)
(3.72316 1.43938 -0.585855)
(0.152291 2.68745 0.273503)
(1.06338 2.1451 0.436097)
(0.918912 -0.740129 0.000282297)
(-1.1914 -1.41648 -0.503855)
(2.64124 -1.04863 -0.228687)
(2.33192 -1.09789 0.235745)
(-1.07371 -1.42525 0.037215)
(0.658526 -0.891877 -0.178988)
(5.41695 0.1576 0.00679596)
(8.29288 0.550858 0.102646)
(5.7201 1.11003 -0.00109019)
(5.96319 2.04694 0.196337)
(13.9696 1.43171 0.0104917)
(19.8256 0.58167 -0.0113101)
(18.9728 0.674061 0.333522)
(15.9807 -0.775083 -0.118263)
(16.1337 -2.8408 -0.0814871)
(21.0601 -3.37474 0.0251874)
(23.8927 -2.15462 0.288914)
(21.3555 -1.04506 -0.0131464)
(21.9598 0.355981 0.00421775)
(26.5033 1.92615 0.0800115)
(24.8392 2.76888 0.0839464)
(18.724 1.58134 -0.0487761)
(18.4691 0.0687081 -0.00563968)
(-5.45259 2.42937 2.25625)
(-5.86868 1.61911 1.08224)
(-6.39612 -3.13619 -0.182661)
(-29.4582 0.217898 -2.02646)
(-5.14011 9.20155 -16.6518)
(-2.82853 2.29381 33.7836)
(5.46758 14.2693 9.65205)
(-26.0421 0.513378 -0.869358)
(-24.7325 -2.7167 -0.491616)
(-21.9474 -3.81877 0.432387)
(-22.697 -1.54537 -0.339293)
(-20.2449 -0.672562 -0.108366)
(-16.4348 1.40394 0.541066)
(-11.973 1.58503 -0.00526097)
(-9.61618 0.474592 0.00197571)
(-8.14313 0.726753 -0.0265063)
(-6.39265 0.746455 -0.00109445)
(-8.75864 1.12858 0.33006)
(-4.013 -0.0514701 -0.22128)
(2.67569 -1.85219 -0.0359005)
(0.0830218 -1.54487 0.27362)
(-0.230202 -0.315066 -0.227692)
(3.39048 0.115283 -0.231143)
(4.02784 1.94355 0.213619)
(3.85233 1.33236 0.275909)
(0.669365 1.46284 0.00831995)
(-1.06838 1.64433 -0.11021)
(-0.941679 -0.998516 -0.346034)
(-0.95778 -0.486295 -0.0622361)
(2.48514 -0.0145404 0.328532)
(1.77334 -0.984473 0.248413)
(-1.26908 -1.88343 -0.541773)
(1.90986 -1.5483 -0.343127)
(6.83895 0.741872 0.0580383)
(8.2273 0.553545 0.0950306)
(6.55422 -0.409948 -0.0601537)
(7.06379 1.54862 0.0757651)
(12.9726 2.36403 -0.00779114)
(18.5087 0.475955 -0.0567392)
(17.9685 -0.626679 0.177991)
(14.317 -1.23924 -0.157308)
(15.0796 -1.78839 -0.26654)
(21.4547 -1.51278 0.102603)
(24.9097 -1.25092 0.12794)
(22.9566 -1.06668 -0.338205)
(24.0768 0.411218 0.00250495)
(27.7577 1.8401 0.425534)
(24.4026 1.67947 0.155189)
(17.4645 1.09411 -0.933638)
(17.2482 0.837355 -0.00538876)
(-2.89547 -1.71799 0.325706)
(-6.50871 4.28073 -0.987212)
(-4.36667 0.397528 -1.63751)
(0.736664 1.16713 0.94603)
(9.59721 15.7397 13.1743)
(4.90548 -19.4212 -8.05201)
(-96.7096 -35.9879 -2.42704)
(-34.1706 -5.42256 -1.83789)
(-28.1578 -3.29323 -0.0134426)
(-21.0216 -4.31757 -0.00695094)
(-18.792 -2.85894 -0.00367951)
(-17.5789 -1.33782 -0.00552842)
(-14.8306 0.474216 -0.00695232)
(-14.0306 0.540082 -6.29875e-05)
(-11.2254 -2.86487 -0.00334022)
(-7.83436 -0.0730036 -0.00388405)
(-5.1988 -1.06373 -0.00109693)
(-8.19067 -0.417907 -0.338316)
(-6.44563 1.79085 -0.0590699)
(0.718637 -1.77563 0.219287)
(1.38304 -2.19635 0.0315622)
(1.21594 -0.536227 0.002877)
(4.56111 -0.306749 0.0209175)
(5.0444 0.952981 0.0138346)
(3.12311 0.642507 -0.384918)
(0.542782 0.437832 -0.121419)
(-2.01612 0.644205 -0.0842916)
(-1.74045 -1.01729 0.245641)
(0.0386571 0.29128 0.143785)
(2.01687 0.835265 0.111175)
(-0.00395355 -1.23975 -0.00083388)
(-1.77647 -1.5159 -0.278897)
(3.94242 -0.209015 -0.0149205)
(8.04177 1.22976 0.129349)
(6.85227 0.019345 -0.0836466)
(6.96764 -1.67483 -0.270582)
(9.42946 0.430782 0.0378575)
(12.6259 2.38526 -0.0196736)
(16.0885 0.697411 -0.0360796)
(16.8298 -1.24506 0.0954605)
(14.5291 -1.1993 -0.0362131)
(15.7931 0.293508 -0.425644)
(21.7325 0.929352 0.143918)
(24.4504 -0.0426404 0.0832144)
(23.4349 -0.594078 -0.245061)
(25.5932 0.34021 0.00462962)
(28.0866 0.403197 0.522576)
(23.9062 -0.674853 0.0220648)
(17.6717 0.0497367 -0.345478)
(16.0522 1.07053 0.254078)
(2.05767 6.18697 -0.744197)
(-3.24242 5.24564 0.0309474)
(-10.2937 4.53782 1.89053)
(-2.72579 6.03956 1.36053)
(-18.6629 -7.17882 -22.9494)
(-8.01306 -59.4757 1.67576)
(127.826 7.5736 6.86309)
(-23.9701 -13.1493 0.499679)
(-23.323 -5.71657 0.542123)
(-21.3997 -1.97527 -0.00896474)
(-18.9714 -2.43639 -0.00571983)
(-16.0772 -0.825888 -0.00490816)
(-14.0892 -1.5887 0.000124871)
(-16.1508 -1.41252 -0.00188403)
(-10.375 -1.67606 -0.00684642)
(-5.89652 -0.240696 0.00321929)
(-6.82202 -3.11449 0.949381)
(-5.18824 -2.84393 -0.590893)
(-5.71708 0.732785 0.539699)
(-2.3045 0.214799 0.0478203)
(1.63487 -1.64382 -0.0071508)
(2.13032 -1.17309 0.192313)
(5.25311 0.129093 0.346702)
(5.21274 -0.472505 -0.0013728)
(3.20872 -0.142981 -0.0219547)
(0.671978 0.0955959 0.197517)
(-2.88971 -0.359623 0.0764958)
(-1.37944 -0.681592 -0.217911)
(1.35665 0.0533479 -0.110903)
(0.567934 0.564709 0.152712)
(-1.1638 -1.50485 -0.148454)
(0.0211848 -0.333614 -0.160449)
(5.34192 2.05492 0.0936599)
(7.12132 1.26151 0.0134441)
(4.59613 -0.902356 -0.0506594)
(7.07314 -2.19549 0.0748225)
(12.139 -0.576238 0.0366283)
(13.3022 1.40138 -0.11555)
(13.9708 0.868989 0.0069072)
(15.6003 -0.893649 0.00645404)
(16.242 -0.735916 -0.189756)
(17.7396 1.83262 0.182812)
(21.0327 2.72855 0.0985433)
(23.0062 0.436863 0.00664082)
(23.4371 -0.567209 -0.149063)
(25.3227 0.331866 0.00498693)
(26.4884 -0.63261 0.0052341)
(23.963 -2.27373 -0.0162692)
(19.6466 -1.17527 0.0323849)
(15.8431 0.460854 0.0385272)
(-4.07208 5.20012 0.892888)
(-8.58615 2.6417 -2.33051)
(-3.3496 8.19268 -3.14423)
(-15.847 13.4315 0.311381)
(-44.9392 -2.70924 24.5727)
(-30.0769 36.3672 -21.085)
(16.8264 -20.3178 5.4673)
(-5.70404 -10.7158 0.39061)
(-14.2041 -5.18341 0.611823)
(-16.9263 -2.69804 -0.00374818)
(-17.3527 -1.4558 -0.000982313)
(-16.5221 -1.25997 -0.000896958)
(-15.5628 -3.76032 -0.00627331)
(-14.1404 -1.6182 -0.00647443)
(-9.75868 0.213524 -0.000238926)
(-9.63777 -1.95551 0.715264)
(-8.44935 -2.56953 0.531872)
(-3.37753 -1.9406 -0.427712)
(-2.62723 -1.31272 0.246353)
(-2.25358 1.21403 0.254377)
(-0.349066 -0.488718 -0.000621367)
(3.43277 -0.559263 0.161786)
(5.4343 0.688974 0.0804769)
(4.70519 -1.69694 -0.0106329)
(3.83285 -1.11339 -0.295131)
(0.270869 -0.650234 0.0868319)
(-2.98791 -0.423635 -0.301978)
(-1.2231 0.0589571 -0.0797373)
(1.59616 -0.553916 0.329162)
(0.0659368 0.16004 0.217103)
(-1.12316 -0.526768 -0.144491)
(2.67432 0.894264 -0.12754)
(5.93259 3.13235 0.282322)
(4.34337 0.934346 0.152428)
(2.53206 -2.06115 -0.231208)
(7.37823 -2.66326 0.186369)
(13.926 -1.78994 0.169633)
(14.4293 -0.206683 -0.291637)
(13.2181 0.612113 -0.128266)
(14.8258 -0.221405 -0.0255001)
(17.9395 -0.12754 0.287496)
(20.1218 2.37928 0.18934)
(19.9841 3.48902 -0.0399426)
(20.3324 0.271891 -0.391403)
(23.306 -0.92306 -0.000506279)
(25.5095 0.461372 0.0175257)
(24.8291 -0.410197 -0.120665)
(23.2311 -2.41208 -0.00231012)
(21.091 -1.99159 0.0881118)
(16.942 -0.416716 0.00233104)
(-1.13952 -4.09492 -1.67793)
(0.481649 -0.633409 0.125719)
(3.17954 6.30097 4.29052)
(3.62125 7.11361 2.15334)
(-44.9704 31.9165 -7.27454)
(7.35276 85.5797 -47.9553)
(7.35551 5.85049 -1.27035)
(-5.63304 -0.663058 0.597821)
(-13.3095 -1.14777 0.00207349)
(-16.742 -0.969173 -0.0196572)
(-17.1754 -0.90862 0.308091)
(-18.9616 -1.38504 -0.237087)
(-14.5314 -2.52354 -0.532928)
(-11.1842 -1.05177 0.193043)
(-10.8018 -0.967678 -0.00185886)
(-9.37379 -2.0125 0.929774)
(-6.80184 -0.60178 -0.00328814)
(-3.6175 -0.489898 -0.18192)
(-1.7716 -0.438055 0.347449)
(-1.27954 0.988795 -0.068169)
(-0.580101 1.12274 -0.287419)
(3.60389 1.06114 -0.078524)
(3.82631 0.460108 0.0197526)
(2.96299 -1.69086 0.0888412)
(4.51674 -2.54789 0.189876)
(1.53385 -2.09456 0.00538287)
(-2.0028 -0.292088 -0.170935)
(-1.54369 0.386934 0.152042)
(1.48473 -0.0486777 0.330174)
(0.600625 0.489953 -0.0878531)
(-0.243175 1.20924 -0.256182)
(4.59645 2.02028 0.0916828)
(5.387 2.43747 0.406075)
(0.628753 0.337018 -0.25913)
(0.101724 -1.84941 -0.264186)
(7.41362 -2.24652 0.416581)
(15.21 -2.2874 0.135468)
(16.3033 -1.58631 0.000881321)
(13.9502 -0.261426 0.0654295)
(14.6765 -0.0299649 0.00619743)
(19.4954 0.146968 0.0138674)
(22.2586 2.32002 0.0604342)
(18.3935 3.2335 0.00547305)
(17.493 1.23544 -0.211856)
(23.6766 -0.628555 0.113267)