/*--------------------------------*- C++ -*----------------------------------*\
| =========                 |                                                 |
| \\      /  F ield         | OpenFOAM: The Open Source CFD Toolbox           |
|  \\    /   O peration     | Version:  5.0                                   |
|   \\  /    A nd           | Web:      www.OpenFOAM.org                      |
|    \\/     M anipulation  |                                                 |
\*---------------------------------------------------------------------------*/
FoamFile
{
    version     2.0;
    format      ascii;
    class       volScalarField;
    location    "4.4";
    object      p_rgh;
}
// * * * * * * * * * * * * * * * * * * * * * * * * * * * * * * * * * * * * * //

dimensions      [1 -1 -2 0 0 0 0];

internalField   nonuniform List<scalar> 
8703
(
116.137
103.727
100.728
100.916
100.915
97.1159
97.0285
93.1973
90.6298
88.1685
85.6784
83.1922
80.7085
78.2542
75.8126
73.3914
70.9865
68.6117
66.2574
63.9297
61.6035
59.298
57.0241
54.7426
52.4849
50.2471
48.015
45.7803
43.564
41.3757
39.1835
37.0152
34.8763
32.729
30.5729
28.4473
26.3795
24.3469
22.3236
20.2908
18.2877
16.3294
14.3747
12.3913
10.4361
8.52858
6.62277
4.71268
2.82292
0.943748
112.257
102.646
101.142
99.7264
100.866
97.7896
97.154
94.0551
90.7167
88.2933
85.7619
83.2485
80.7668
78.2905
75.8292
73.4119
70.9926
68.6299
66.2782
63.9329
61.6104
59.3036
57.0172
54.7433
52.4762
50.2333
48.0044
45.7829
43.5712
41.3792
39.1977
37.0279
34.8716
32.7186
30.5764
28.4568
26.376
24.3306
22.3019
20.2891
18.2931
16.3336
14.3787
12.4082
10.4421
8.51823
6.61327
4.71083
2.82327
0.943517
90.5239
95.5864
96.6002
94.6454
101.694
98.0522
97.2667
94.4069
90.9642
88.432
85.8616
83.299
80.785
78.31
75.8472
73.407
71.0127
68.6559
66.3065
63.9357
61.6149
59.3076
57.0095
54.7411
52.4799
50.2288
47.9956
45.7909
43.5904
41.3831
39.203
37.0275
34.8521
32.707
30.5825
28.4707
26.3758
24.3211
22.2991
20.2895
18.3016
16.332
14.3718
12.4102
10.4548
8.517
6.60729
4.71261
2.82803
0.944028
87.4344
95.4069
110.844
100.795
100.674
100.072
97.636
95.5674
91.1837
88.5743
85.9443
83.3752
80.8191
78.3214
75.8597
73.4199
71.0164
68.6499
66.2825
63.9396
61.6244
59.3081
57.0164
54.7421
52.4912
50.2393
47.995
45.7963
43.5792
41.372
39.2031
37.0219
34.8463
32.7024
30.5923
28.488
26.3824
24.3182
22.3017
20.2999
18.3076
16.3181
14.3428
12.3976
10.46
8.51889
6.60717
4.7195
2.83359
0.938845
85.1813
92.2994
98.8008
98.1949
109.161
98.0055
97.7697
97.1289
91.3245
88.5923
85.9644
83.3695
80.829
78.3234
75.868
73.4277
71.0292
68.6426
66.2621
63.9415
61.6276
59.3073
57.0201
54.7461
52.5001
50.254
48.0044
45.7912
43.5683
41.3667
39.1972
37.0136
34.8435
32.7014
30.5931
28.4975
26.3926
24.3229
22.3051
20.3068
18.3042
16.3034
14.3264
12.3886
10.4577
8.52035
6.61399
4.73395
2.84154
0.93672
97.1517
102.688
96.3622
97.413
99.399
102.224
98.3621
97.3048
91.2687
88.545
85.9267
83.3428
80.8153
78.3205
75.8777
73.4384
71.037
68.6431
66.2547
63.9245
61.6219
59.3013
57.0207
54.7557
52.5044
50.2669
48.0144
45.7852
43.5588
41.3543
39.1883
37.0087
34.8368
32.7034
30.5973
28.4999
26.4038
24.3339
22.3088
20.3083
18.2993
16.2899
14.3123
12.3773
10.4512
8.52382
6.62958
4.75617
2.85187
0.939669
99.3637
98.3822
101.569
97.3013
83.261
105.453
98.3658
96.7492
90.9948
88.4008
85.8382
83.2925
80.7984
78.3128
75.8596
73.4272
71.0299
68.6474
66.2551
63.9125
61.6045
59.2982
57.0168
54.7625
52.5103
50.2652
48.0199
45.7806
43.5575
41.3628
39.1862
36.9974
34.8305
32.7094
30.5991
28.494
26.409
24.3477
22.3111
20.3004
18.2933
16.2866
14.3116
12.3762
10.4466
8.52513
6.63536
4.75608
2.85561
0.948739
93.9918
91.9706
92.2909
90.8301
93.1517
95.029
96.4147
94.6213
90.6108
88.1981
85.7085
83.2168
80.7522
78.2834
75.8198
73.4182
71.0134
68.6309
66.2673
63.9054
61.5957
59.2928
57.012
54.7631
52.5101
50.2691
48.0218
45.7788
43.5752
41.3751
39.1823
36.9943
34.8364
32.7172
30.5977
28.4833
26.4095
24.3587
22.3161
20.2923
18.2873
16.2934
14.322
12.3773
10.445
8.5268
6.63335
4.74499
2.85381
0.952644
94.7488
105.063
135.501
92.2935
94.0562
96.4887
96.1379
93.6288
90.4359
88.1066
85.6451
83.1825
80.7198
78.2603
75.8182
73.4087
70.9914
68.6145
66.258
63.9158
61.5905
59.2887
57.0202
54.7589
52.5111
50.2693
48.0187
45.7783
43.5652
41.3714
39.1722
36.994
34.8504
32.7206
30.5906
28.4739
26.406
24.3625
22.3202
20.2916
18.285
16.3031
14.3366
12.3791
10.4402
8.52818
6.62637
4.73408
2.84137
0.953887
101.31
106.238
116.381
104.501
99.5427
96.4486
96.6232
93.4918
90.4018
88.0678
85.6233
83.1582
80.6858
78.2522
75.8126
73.3935
70.9858
68.6104
66.2533
63.9163
61.5917
59.2896
57.0234
54.7485
52.5011
50.2648
48.0188
45.779
43.5621
41.3722
39.1735
37.0002
34.8666
32.7289
30.5801
28.46
26.3893
24.3558
22.3224
20.2902
18.2863
16.3193
14.3593
12.383
10.4372
8.5339
6.62976
4.72357
2.82985
0.943843
116.156
108.377
106.571
102.681
100.44
97.0884
97.0607
93.1978
90.6298
88.1683
85.6785
83.1923
80.7083
78.2543
75.8126
73.3912
70.9865
68.6118
66.2574
63.9295
61.6034
59.298
57.0241
54.7425
52.4849
50.2471
48.0149
45.7803
43.5638
41.3756
39.1835
37.0153
34.8763
32.7289
30.5729
28.4473
26.3793
24.3469
22.3235
20.2907
18.2876
16.3295
14.3749
12.3914
10.4361
8.52864
6.62268
4.71261
2.82287
0.943817
135.882
111.301
101.515
98.4294
98.7137
97.7898
97.1812
94.0545
90.7171
88.2931
85.7619
83.2485
80.7668
78.2904
75.8292
73.4116
70.9926
68.6301
66.2781
63.9327
61.6104
59.3037
57.0171
54.7431
52.4762
50.2333
48.0041
45.7829
43.571
41.3793
39.1982
37.0279
34.8716
32.7187
30.5764
28.4567
26.376
24.3307
22.3019
20.289
18.2931
16.3337
14.3787
12.4079
10.4422
8.51822
6.61319
4.71081
2.82349
0.943466
84.2084
90.4297
94.6808
95.7708
100.185
97.9111
97.2455
94.4032
90.9657
88.4318
85.8617
83.299
80.7849
78.31
75.8472
73.4073
71.0127
68.6558
66.3066
63.9356
61.6148
59.3076
57.0093
54.741
52.4799
50.2287
47.9956
45.7908
43.5905
41.3831
39.2028
37.0274
34.8521
32.707
30.5826
28.4707
26.3757
24.3212
22.2991
20.2894
18.3016
16.3321
14.3718
12.4101
10.4549
8.51685
6.60721
4.71267
2.82819
0.944018
83.4544
107.827
107.92
98.6272
100.951
100.748
97.6057
95.4322
91.1841
88.5741
85.9443
83.3752
80.8191
78.3214
75.8597
73.4199
71.0163
68.6497
66.2825
63.9395
61.6244
59.3081
57.0165
54.7423
52.491
50.2392
47.9951
45.7964
43.5793
41.3718
39.203
37.0219
34.8463
32.7024
30.5924
28.4879
26.3823
24.3182
22.3017
20.3
18.3076
16.3181
14.3428
12.3976
10.46
8.51887
6.60706
4.71949
2.83357
0.938729
83.2419
105.983
98.7602
97.3078
103.626
97.5594
97.7389
97.1639
91.3239
88.5925
85.9645
83.369
80.8287
78.3234
75.868
73.4277
71.0292
68.6426
66.2619
63.9415
61.6276
59.3073
57.02
54.7463
52.5
50.2541
48.0046
45.7912
43.5678
41.3665
39.1972
37.0135
34.8433
32.7014
30.5931
28.4974
26.3926
24.3229
22.3051
20.3071
18.3041
16.3035
14.3264
12.3886
10.4576
8.52033
6.61392
4.73395
2.84151
0.936764
95.3583
99.0581
116.009
107.26
99.5488
100.527
98.3326
97.3468
91.2684
88.5452
85.9266
83.3427
80.8153
78.3204
75.8777
73.4383
71.037
68.6432
66.2546
63.9245
61.6223
59.301
57.0207
54.7557
52.5045
50.267
48.0143
45.785
43.5588
41.3543
39.1883
37.0086
34.8366
32.7035
30.5974
28.4998
26.4039
24.3339
22.3088
20.3084
18.2993
16.2897
14.3124
12.3773
10.4511
8.5238
6.62956
4.75643
2.8516
0.939634
99.1218
97.719
97.5585
96.931
84.1947
105.905
98.3414
96.7423
90.9953
88.4007
85.8382
83.2925
80.7983
78.3128
75.8596
73.4272
71.0298
68.6472
66.2549
63.9126
61.6044
59.2982
57.0167
54.7624
52.5101
50.2651
48.0199
45.7806
43.5576
41.3627
39.1864
36.9972
34.8305
32.7094
30.599
28.4938
26.409
24.3477
22.3111
20.3004
18.2933
16.2864
14.3116
12.3763
10.4465
8.52511
6.63552
4.75616
2.85554
0.948867
104.44
84.9145
101.403
90.8414
93.0053
94.7757
96.398
94.5318
90.6115
88.198
85.7085
83.2168
80.7522
78.2834
75.8198
73.4181
71.0137
68.6307
66.2674
63.9054
61.5957
59.2929
57.0121
54.763
52.5101
50.2693
48.0218
45.7787
43.575
41.3751
39.1821
36.9941
34.8363
32.7172
30.5977
28.4833
26.4096
24.3587
22.3161
20.2922
18.2872
16.2935
14.322
12.3772
10.4449
8.52678
6.63335
4.74497
2.85374
0.952618
95.8635
96.7712
99.0381
93.1639
93.6964
96.5164
96.1355
93.6247
90.4365
88.1064
85.6451
83.1824
80.7198
78.2603
75.8182
73.4089
70.9914
68.6144
66.2581
63.9158
61.5904
59.2887
57.0203
54.7589
52.511
50.2693
48.0187
45.7783
43.5653
41.3714
39.1723
36.9939
34.8504
32.7206
30.5903
28.4739
26.4059
24.3623
22.3201
20.2915
18.2851
16.3032
14.3366
12.3789
10.4402
8.52814
6.62631
4.73404
2.84141
0.953883
127.226
97.1808
105.792
107.386
96.4492
96.4279
96.6722
93.4889
90.4022
88.0676
85.6234
83.1578
80.6856
78.2523
75.8125
73.3938
70.9858
68.6102
66.2534
63.9163
61.5914
59.2896
57.0234
54.7485
52.5011
50.2647
48.0188
45.779
43.5622
41.3722
39.1734
37.0003
34.8668
32.7287
30.5797
28.4601
26.3894
24.3558
22.3224
20.2902
18.2863
16.3193
14.3593
12.3829
10.4372
8.53394
6.62963
4.72357
2.82995
0.943833
116.097
107.695
102.205
99.8383
98.5121
97.0385
97.0552
93.1977
90.6297
88.1683
85.6785
83.1924
80.708
78.2542
75.8125
73.391
70.9864
68.6121
66.2577
63.9292
61.6031
59.2984
57.024
54.7423
52.485
50.2471
48.0147
45.7803
43.5636
41.3756
39.1835
37.0153
34.8763
32.7287
30.5728
28.4474
26.3792
24.3468
22.3234
20.2906
18.2875
16.3295
14.3749
12.3915
10.4361
8.52861
6.62254
4.7125
2.82276
0.943777
119.762
101.157
101.632
99.172
98.6812
97.7707
97.1824
94.0551
90.7165
88.2932
85.7618
83.2484
80.7667
78.2904
75.8291
73.4114
70.9925
68.6305
66.2778
63.9326
61.6103
59.3037
57.0169
54.7429
52.4761
50.2332
48.0038
45.7828
43.5709
41.3796
39.1982
37.0279
34.8715
32.7187
30.5763
28.4567
26.3759
24.3311
22.3017
20.2883
18.293
16.3338
14.3786
12.4076
10.4422
8.51829
6.61301
4.71073
2.82345
0.94327
92.1089
96.5919
92.7204
95.5287
99.0087
97.7672
97.2509
94.4059
90.9655
88.4319
85.8615
83.2989
80.7849
78.3099
75.8471
73.4071
71.0126
68.6555
66.3066
63.9355
61.6143
59.3075
57.0091
54.7408
52.4798
50.2286
47.9958
45.7908
43.5905
41.3831
39.2027
37.027
34.8522
32.7071
30.5827
28.4707
26.3754
24.3211
22.2991
20.2893
18.3016
16.3321
14.3718
12.4099
10.455
8.51675
6.60712
4.71269
2.82821
0.943689
83.4659
117.572
109.834
101.642
100.798
104.531
97.6285
95.4419
91.1837
88.5739
85.9442
83.3751
80.819
78.3213
75.8596
73.4198
71.0163
68.6495
66.2824
63.9393
61.6244
59.308
57.0164
54.7423
52.4909
50.2389
47.9952
45.7963
43.5793
41.3718
39.2029
37.0218
34.8462
32.7023
30.5924
28.4875
26.3822
24.3182
22.3017
20.2999
18.3076
16.3179
14.3426
12.3977
10.46
8.5188
6.60696
4.71947
2.8335
0.938401
77.0437
117.407
96.9461
90.6724
104.731
98.2427
97.7468
97.1598
91.3237
88.5925
85.9645
83.3689
80.8285
78.3233
75.868
73.4278
71.0291
68.6425
66.2618
63.9416
61.6277
59.3073
57.0199
54.7463
52.4997
50.2541
48.0046
45.7911
43.5676
41.3663
39.1972
37.0135
34.8432
32.7013
30.5931
28.4974
26.3928
24.3228
22.3051
20.3073
18.304
16.3036
14.3264
12.3886
10.4575
8.52026
6.61407
4.73392
2.8413
0.936674
96.2923
97.8532
102.424
98.834
118.248
99.5473
98.355
97.3445
91.2681
88.5452
85.9264
83.3426
80.8158
78.3204
75.8777
73.4383
71.0369
68.6432
66.2545
63.9243
61.6224
59.3005
57.0205
54.7557
52.5045
50.2669
48.0142
45.7849
43.5588
41.355
39.1884
37.0084
34.8365
32.7043
30.5975
28.4997
26.4038
24.3338
22.3087
20.3084
18.2991
16.2896
14.3123
12.3773
10.4509
8.52373
6.62957
4.75641
2.85117
0.939611
102.336
95.4215
105.298
94.9472
91.3035
102.874
98.3233
96.7408
90.9949
88.4007
85.8381
83.2924
80.7982
78.3127
75.8595
73.4271
71.0298
68.647
66.2549
63.9127
61.6044
59.2981
57.0166
54.7624
52.5099
50.265
48.0198
45.7809
43.5578
41.3628
39.1864
36.997
34.8305
32.7094
30.5988
28.4936
26.4089
24.3477
22.311
20.3004
18.2932
16.2863
14.3116
12.3763
10.4463
8.52504
6.63555
4.75586
2.85501
0.948816
98.7858
101.092
93.8968
94.2016
92.6871
94.9415
96.3942
94.535
90.6112
88.198
85.7084
83.2167
80.7521
78.2833
75.8197
73.4181
71.0139
68.6304
66.2674
63.9054
61.5956
59.2929
57.0123
54.763
52.51
50.2694
48.0217
45.7786
43.575
41.375
39.182
36.9937
34.8364
32.7171
30.5976
28.4835
26.4095
24.3585
22.316
20.2921
18.2872
16.2935
14.3219
12.3772
10.4448
8.52671
6.63329
4.74492
2.85374
0.952636
100.512
91.0102
97.995
101.054
93.9114
95.9725
96.1369
93.625
90.4363
88.1065
85.645
83.1824
80.7197
78.2602
75.8181
73.4091
70.9914
68.6143
66.2581
63.9158
61.5903
59.2887
57.0202
54.7588
52.5109
50.2692
48.0182
45.7783
43.5655
41.3715
39.1714
36.9938
34.8504
32.7205
30.5899
28.4738
26.4059
24.3622
22.32
20.2915
18.2851
16.3033
14.3365
12.3787
10.4401
8.52805
6.62621
4.73397
2.84149
0.953793
109.155
103.88
107.312
106.562
96.4638
96.3676
96.6685
93.489
90.4017
88.0677
85.6234
83.1577
80.6854
78.2523
75.8124
73.394
70.9857
68.6098
66.2538
63.9163
61.5913
59.2895
57.0233
54.7484
52.5012
50.2646
48.0187
45.7791
43.5622
41.3721
39.1731
37.0002
34.8671
32.7286
30.5795
28.46
26.3894
24.3557
22.3224
20.2901
18.2862
16.3192
14.3592
12.3827
10.4371
8.53388
6.62944
4.72328
2.82993
0.943761
96.8944
97.9523
97.2494
97.1217
96.896
97.9476
97.2511
97.2682
97.4925
97.2842
97.7856
97.2688
97.4824
97.2837
97.3731
97.2906
97.5883
97.9753
97.3228
97.5634
97.6346
97.9562
104.027
97.9638
102.185
98.0368
110.62
97.744
97.529
98.8944
97.8752
97.4155
97.5006
100.607
97.851
98.33
108.004
99.2225
103.033
98.3327
108.099
99.232
98.9988
94.2149
96.6472
105.834
98.9837
94.1623
96.6097
96.474
95.3635
95.8824
94.721
96.3609
95.2978
95.8833
95.9379
96.8573
96.4755
96.4793
95.9323
96.7644
96.4751
96.6946
97.5039
96.724
96.4322
96.6932
97.1701
96.726
96.8942
97.9643
97.2524
97.0279
96.8979
97.9585
97.2526
97.2689
97.483
97.2782
97.7788
97.2638
97.5094
97.2793
97.3457
97.169
97.5916
97.9056
97.3146
101.813
97.6039
97.9707
96.0816
97.7415
104.254
97.9947
98.5383
97.6676
97.4864
98.8422
97.7951
98.3947
97.558
96.2265
97.8821
98.3074
108.343
99.2632
99.6659
98.3276
109.609
99.2656
99.627
94.4745
96.6172
102.59
99.2195
94.1646
96.6187
96.1459
95.2208
95.8796
94.9336
96.284
95.1818
95.8804
95.9428
96.7221
96.476
96.6249
95.9611
96.64
96.4771
96.6931
97.0739
96.7243
96.284
96.6871
97.0236
96.7253
96.9003
97.9582
97.2539
97.7891
96.897
97.9297
97.2557
97.2627
97.5406
97.3061
97.7565
97.2655
97.5355
97.3085
97.4081
100.812
97.5943
97.7138
97.3437
93.6417
97.6001
98.007
98.9666
97.7796
94.5214
98.0533
99.7144
97.6729
97.5098
100.583
97.8298
97.4444
97.5081
106.396
97.8475
98.3382
110.549
99.2536
108.291
98.3295
110.443
99.2458
99.1483
94.4038
96.618
102.385
98.9971
94.2077
96.6359
96.198
95.1445
95.8837
94.9603
96.4021
95.1566
95.8786
95.9578
96.6087
96.4781
95.8912
95.9496
96.6911
96.4727
96.6875
97.0152
96.727
96.7094
96.684
96.9422
96.7235
97.3846
98.8586
98.3305
99.9046
97.3836
98.6002
98.2417
97.2253
97.1217
97.3114
97.0484
97.2843
97.2307
96.993
94.8227
97.2131
95.1576
97.0557
94.8267
97.241
95.1606
98.2226
99.0361
98.3506
98.7549
97.9764
97.0951
96.7705
97.4568
97.4435
97.8261
97.7769
97.4482
97.8324
97.4754
95.199
97.2189
95.5753
97.175
95.2091
97.216
95.5797
91.5071
101.653
103.517
95.6799
95.0211
99.8368
101.429
97.4705
97.1164
97.4811
98.0293
97.1113
97.452
97.5363
95.7858
97.3888
96.7047
97.2583
95.7893
97.3421
96.6856
107.386
97.3674
103.561
100.745
108.359
99.5672
102.793
98.6017
99.5103
104.955
99.2061
99.1975
103.991
99.2439
97.1796
97.8212
97.6595
97.6265
97.2197
97.8239
97.6716
94.9522
105.729
105.07
101.387
81.9392
106.352
105.002
96.9296
97.3803
95.2043
97.7506
97.2832
94.9433
97.1628
97.6339
97.807
97.6394
97.7453
97.6407
97.79
97.6411
129.829
99.8767
108.833
99.4794
140.082
101.661
106.882
99.7647
99.7692
101.242
100.973
99.9283
101.199
99.7595
97.6982
98.5347
97.7527
98.3469
97.6975
98.5357
97.7544
93.1855
91.1089
90.7363
83.9163
90.6355
91.1414
90.3024
99.934
100.466
103.585
105.541
100.431
103.58
99.9325
97.6826
97.2322
96.8049
98.3422
97.6899
97.2326
96.8343
94.6772
95.0851
95.7468
92.9625
95.1195
94.7001
95.5031
95.0798
95.4615
95.0384
94.6817
95.2542
95.0125
95.0798
96.1107
96.0259
94.7494
96.4077
96.1273
96.0115
94.6479
101.624
96.2696
96.6144
93.2755
101.698
96.0154
96.9709
101.855
95.7209
112.726
96.3391
95.7422
108.263
102.006
94.6779
96.4629
94.5632
96.1372
94.6699
96.4465
94.5702
97.3957
94.4496
99.0061
98.6307
99.6743
93.8395
97.5913
96.6438
96.8674
97.1075
96.4403
96.7593
97.1369
96.6851
94.6291
96.8719
94.8262
96.6683
94.638
96.9006
94.822
97.4687
98.6247
98.2558
99.0424
97.5858
98.6982
98.3398
97.2099
97.0075
97.3107
97.08
97.2109
97.3236
97.0042
94.8228
97.2495
95.1571
97.0593
94.8226
97.247
95.1572
97.9526
97.2067
96.6384
98.6898
98.0478
97.0837
98.3731
97.4571
97.4354
97.6946
97.7749
97.4282
97.4517
97.7032
95.2072
97.2124
95.5764
97.1881
95.2073
97.2071
95.5762
99.5178
99.853
99.3549
98.8157
95.357
100.143
97.5531
97.3784
97.1769
97.4995
97.8527
97.4209
97.125
97.5224
95.7873
97.3586
96.6798
97.2339
95.7871
97.3277
96.6819
107.759
99.3654
101.762
100.887
101.279
99.3398
98.5962
98.1126
99.5309
110.749
115.373
98.5618
99.48
106.132
97.2247
97.8368
97.6731
97.6283
97.2266
97.8613
97.6718
96.6645
107.358
104.619
102.864
117.799
105.94
100.181
96.87
97.2031
95.8387
97.6946
96.8831
97.171
96.2619
97.6409
97.7957
97.6399
97.8022
97.6406
97.7985
97.6384
149.582
101.723
107.732
102.863
108.839
112.443
156.419
99.7126
99.5686
101.636
99.8406
99.7313
99.531
101.586
97.6992
98.5314
97.7535
98.3837
97.697
98.531
97.7541
91.1535
91.1052
89.969
87.7717
110.626
92.1411
93.1808
100.119
100.273
103.595
108.331
100.066
100.166
103.577
97.6895
97.2257
96.8399
98.3443
97.6884
97.2278
96.8389
94.4075
93.772
108.193
92.6922
94.6531
93.9936
103.024
95.0305
95.3544
94.7558
94.8404
95.035
95.3836
94.7321
96.1275
96.041
94.641
96.398
96.1292
96.0206
94.6411
102.432
99.6964
96.9435
93.7875
100.739
97.38
96.6021
104.606
95.7143
104.613
96.5795
100.925
95.682
107.888
94.6685
96.4539
94.5675
96.136
94.6703
96.4551
94.5673
99.5513
96.0385
97.6671
96.6571
99.4435
102.191
97.7214
96.6739
96.7395
97.0201
96.427
96.6952
96.7244
97.115
94.6362
96.9071
94.8188
96.6722
94.6363
96.9083
94.8188
97.3291
98.6222
98.2763
98.5306
97.4091
98.6586
98.333
97.1615
97.0151
97.4379
97.7972
97.1854
97.4178
97.0326
94.8265
97.2418
95.1608
97.0261
94.8223
97.2161
95.1567
97.9442
98.097
98.1251
98.7554
97.8991
97.8142
98.3966
97.6519
97.4386
97.7617
97.768
97.584
97.4612
97.7764
95.2088
97.2074
95.5797
97.1587
95.1973
97.2106
95.5765
95.2562
100.071
97.2139
99.7584
95.9839
100.076
97.427
97.4857
97.2567
97.3994
97.8649
97.4444
97.2832
97.5319
95.7891
97.3673
96.6846
97.2681
95.7859
97.3925
96.7027
96.4715
106.306
105.243
100.747
101.907
113.299
112.263
97.8161
99.0557
98.4094
93.8636
97.9023
99.0814
98.5498
97.2229
97.8523
97.6724
97.6209
97.1803
97.835
97.6597
127.354
106.338
101.971
104.278
90.4735
104.239
103.128
96.8267
97.0513
95.4539
97.8223
96.8265
97.0337
95.5199
97.6408
97.7958
97.6436
97.7491
97.6332
97.8243
97.6384
110.096
94.8526
148.49
99.8377
112.424
97.3425
141.108
99.5791
99.5441
107.464
118.511
99.5806
99.5439
106.74
97.7017
98.5474
97.7548
98.3454
97.6981
98.542
97.7531
106.591
91.2821
89.1626
94.4111
110.156
93.3586
90.265
99.9905
100.142
102.148
103.62
100.057
100.182
105.16
97.6894
97.2251
96.8344
98.3582
97.6813
97.2276
96.8048
94.5826
93.9197
96.8979
95.232
95.1983
93.9359
96.5788
95.1532
95.38
94.8968
94.9478
95.1694
95.4011
94.8966
96.1271
96.0524
94.6472
96.3992
96.1102
96.039
94.7479
101.595
96.3082
98.9643
94.7289
109.661
96.3884
97.9524
93.1726
95.6681
88.487
95.9457
94.4622
95.6665
88.6664
94.6711
96.4467
94.57
96.1377
94.6788
96.4579
94.5631
98.3383
102.99
97.678
97.0186
103.899
105.774
97.5083
96.6483
96.6587
97.0524
96.845
96.705
96.7885
97.19
94.6383
96.9031
94.822
96.6275
94.6289
96.8733
94.8264
97.0647
96.9131
97.0193
96.9005
97.0267
97.0696
96.8865
97.394
97.6377
97.559
97.952
97.6289
97.5628
97.4024
97.2406
97.159
97.3364
97.2518
97.1645
97.3352
97.2424
97.2267
97.0391
97.0162
97.2638
97.2723
97.2106
97.0336
97.0613
96.8981
96.8908
97.0229
97.0259
97.0602
96.8992
97.3905
97.9504
97.6158
97.5609
97.6231
97.5617
97.3855
97.2468
97.2518
97.1598
97.3336
97.1618
97.3351
97.2388
97.2661
97.2773
97.3279
97.2691
97.2774
97.2753
97.2842
97.4035
97.446
97.5106
97.485
97.4437
97.4738
97.5854
97.2326
97.2805
97.3253
97.2796
97.2355
97.3207
97.2492
97.4321
97.7702
97.4333
97.6865
97.4374
97.7142
97.4166
97.2627
97.2712
97.2796
97.2718
97.278
97.2695
97.2382
97.406
97.4704
97.4768
97.426
97.4602
97.4377
97.3974
97.2302
97.2938
97.2442
97.3194
97.2543
97.3209
97.2283
97.445
97.3441
97.5349
97.3361
97.3536
97.518
97.4482
97.8452
98.4631
97.507
97.2986
97.4105
97.5077
97.8216
97.4885
97.7521
97.5154
97.5971
97.6035
97.4542
97.4693
97.4254
98.0468
97.127
97.5026
97.1228
97.5257
97.4196
97.4645
97.4909
97.3542
97.4804
97.3696
97.5054
97.4357
97.9104
97.3599
97.5517
97.49
97.2978
97.5023
97.9865
97.4971
97.696
97.5108
97.4743
97.5281
97.4518
97.5168
97.8054
98.122
97.9333
97.9727
98.1218
97.8264
97.8014
98.1515
69.3915
99.4516
105.398
65.5827
99.0117
98.024
97.6389
97.9828
97.7638
97.7296
98.0014
97.7661
97.6429
98.4424
101.403
99.3853
111.565
99.4211
105.646
98.7646
97.8165
98.0238
98.1185
97.8418
98.1577
97.8657
97.827
98.7672
114.123
119.432
98.7433
139.052
99.0355
98.9476
97.6631
97.7221
97.9467
97.7978
97.9548
97.7665
97.707
97.3812
97.3221
97.4217
97.4989
97.3208
97.4024
97.3686
95.9714
96.2742
97.8648
100.359
96.5551
97.8679
95.9949
97.0772
97.2635
98.0129
97.8212
97.2179
97.9824
97.1557
96.9213
97.5673
97.2352
95.8805
97.2662
96.4737
96.8857
97.3477
97.5314
97.3423
97.3867
97.3234
97.4153
97.3508
95.9068
98.5632
95.7845
97.8488
97.5016
97.8544
95.9109
97.0737
97.8133
97.2286
97.9798
97.2209
97.982
97.1079
99.523
98.8916
98.4301
98.3315
98.8839
98.4313
99.5239
97.7206
100.213
101.921
108.137
100.329
101.837
97.7604
98.6431
98.684
100.72
99.2197
98.68
100.716
98.6451
99.7544
102.841
99.6023
101.375
99.6015
101.405
99.7437
99.5233
98.3354
98.8819
98.4315
98.8799
98.4401
99.5228
97.6809
108.019
100.108
101.849
100.246
101.829
97.5884
98.6626
99.2241
98.6787
100.721
98.7167
100.748
98.6235
99.0332
99.9673
98.4885
99.0226
99.7715
98.4911
99.0393
97.1084
96.1115
95.5399
94.2454
96.0554
95.513
97.1215
97.5852
97.6205
96.3639
96.6104
97.6274
96.2928
97.5879
99.9574
105.569
100.355
103.581
100.405
103.587
100.008
99.0331
99.0132
99.7106
98.4742
99.7294
98.4756
99.0418
97.0972
94.139
96.136
95.5391
96.0302
95.524
97.1224
97.5816
96.6111
97.6191
96.2929
97.6269
96.2944
97.5849
95.6522
95.8492
95.8832
96.4206
95.8688
95.8875
95.6487
95.1793
94.6842
95.7609
95.344
94.6838
95.732
95.2183
95.5678
95.7354
95.797
95.8847
95.7372
95.814
95.5829
95.0561
94.6967
95.3009
94.8516
95.2596
94.9298
95.0879
95.6458
96.3598
95.8433
95.881
95.8349
95.8857
95.6302
95.219
95.295
94.5988
95.7063
94.958
95.7411
95.1476
95.5621
95.8906
95.7359
95.8099
95.7423
95.8268
95.5495
96.2707
95.9758
96.2413
95.9405
95.9812
96.2382
96.2466
104.726
98.2815
96.7388
96.8387
98.2228
96.7606
109.134
97.0905
96.7221
96.7116
96.4753
96.5145
96.6166
97.2242
103.414
96.5907
95.7403
123.409
95.7494
116.817
101.069
96.4422
95.9995
95.9618
96.2166
95.9715
96.2298
96.1691
105.14
96.8141
97.5693
96.704
98.3165
96.826
105.407
97.8822
96.4748
96.9469
96.5685
96.494
96.5711
96.5835
96.6416
96.558
96.5449
96.696
96.5518
96.5489
96.6415
96.755
96.8946
97.0581
97.2996
96.9519
96.7788
97.0272
96.6224
96.7218
96.7022
96.7299
96.7281
96.6215
96.6869
96.6626
96.4281
96.7465
96.9951
96.7733
96.9963
96.6819
96.6423
96.6953
96.5473
96.5477
96.5537
96.5482
96.6332
96.8291
97.1751
96.796
97.0239
96.7745
96.771
96.999
96.6247
96.7285
96.7249
96.6877
96.7269
96.6244
96.6807
97.0491
96.9071
97.0221
96.8951
97.0653
97.0217
96.8826
97.3809
97.6251
97.5565
97.9491
97.3822
97.6373
97.5578
97.2384
97.1583
97.332
97.2513
97.2431
97.1581
97.3318
97.2088
97.1125
97.002
97.323
97.3118
97.2049
97.0011
97.0456
96.8961
96.858
97.0229
97.0221
97.0485
96.8666
97.3776
97.9538
97.6335
97.5648
97.6457
97.561
97.3734
97.2411
97.2522
97.1593
97.329
97.1579
97.33
97.2342
97.2077
97.2787
97.2856
97.266
97.2216
97.2761
97.2974
97.3974
97.4915
97.4424
97.4801
97.4029
97.4978
97.4077
97.2049
97.2646
97.3427
97.2768
97.2314
97.2491
97.3164
97.4868
97.7928
97.4453
97.7379
97.4537
97.7201
97.5652
97.216
97.2645
97.2751
97.3025
97.2818
97.3093
97.2378
97.4081
97.4923
97.4814
97.4277
97.4947
97.4072
97.4407
97.2033
97.2922
97.2444
97.2986
97.2681
97.314
97.1952
97.4236
97.3508
97.4755
97.3467
97.4372
97.3532
97.4954
97.8598
97.1481
97.6423
101.265
97.8819
100.774
97.6845
97.5138
97.4617
97.4678
97.5763
97.5308
97.475
97.4688
97.3554
97.8519
97.2146
97.3083
97.1447
97.463
97.356
97.4126
97.3058
97.2941
97.4793
97.3185
97.4773
97.397
97.8798
101.81
97.5664
98.0373
100.682
97.6798
97.8651
97.7458
97.6042
97.4256
97.4853
97.5144
97.4699
97.6789
97.8539
98.1099
97.834
98.0318
97.8403
98.1084
97.8459
98.6101
114.544
98.5192
96.6947
98.083
113.531
98.357
97.8352
97.9345
97.8193
97.7125
97.7702
97.9586
97.8391
98.5617
103.81
99.2993
105.945
99.3685
105.573
97.8269
97.8583
97.9879
98.1933
97.7944
98.1109
97.8198
97.8861
98.9234
97.3054
111.257
98.1513
112.202
98.2402
98.8417
97.8921
97.7003
97.9249
97.8561
97.9544
97.8388
97.9349
97.3359
97.3178
97.3708
97.5136
97.3433
97.3363
97.4125
95.7829
99.4772
97.8607
97.2692
95.871
99.6946
97.872
97.0907
97.1995
97.9707
97.8517
97.0855
97.2629
97.9839
96.8477
99.7266
97.1039
95.4319
97.1494
96.5439
96.8781
97.3366
97.5612
97.3341
97.3941
97.3196
97.3913
97.3396
96.198
96.2401
92.9502
97.795
102.316
97.8749
95.8568
97.093
97.8297
97.2531
98.0041
97.2137
97.9873
97.0878
99.5149
98.8992
98.4374
98.3253
99.5256
98.8919
98.4266
97.3116
99.6908
101.791
108.51
97.4439
99.6004
101.763
98.5749
98.6971
100.716
99.2606
98.6174
98.676
100.709
99.6476
99.7507
99.5342
101.675
99.5282
101.689
99.6205
99.5069
98.3161
98.9041
98.4274
98.9038
98.4316
99.4983
97.5494
109.366
103.194
101.776
100.038
101.781
97.5325
98.5357
99.263
98.6775
100.695
98.6971
100.714
98.4979
99.048
99.7691
98.4727
99.3348
99.0437
99.9179
98.4751
97.047
95.9388
95.5585
94.1293
97.0398
95.8803
95.4931
97.5875
97.6137
96.287
96.6119
97.5864
97.6234
96.2928
100.191
112.739
100.065
109.889
100.094
106.851
100.478
99.0676
99.4004
99.8136
98.4659
99.963
98.4777
99.068
97.1084
94.139
96.0008
95.5098
95.8822
95.4868
97.1078
97.564
96.6213
97.5985
96.2983
97.6032
96.2968
97.5727
95.6329
95.8812
95.8792
96.1916
95.6787
95.8734
95.8799
95.106
94.5194
95.6766
95.856
95.1013
94.4625
95.7052
95.5546
95.7394
95.8057
95.8749
95.5546
95.7404
95.8103
95.1605
94.8945
95.4182
94.8542
95.4093
94.9263
95.0979
95.6258
96.3468
95.8734
95.8932
95.8762
95.8937
95.6333
95.1528
95.2356
94.476
95.6116
94.4329
95.6689
95.1671
95.5562
95.8822
95.7416
95.8136
95.7494
95.8286
95.5508
96.2527
95.956
96.1946
95.9313
96.5753
95.9545
96.1701
95.4311
98.8154
96.8899
96.6913
94.6392
97.9322
96.541
96.5873
96.458
96.5588
96.4782
96.9528
96.6179
96.9711
95.2147
96.0689
95.6803
88.0284
95.6774
86.9518
94.4818
96.0684
95.9327
95.9378
96.2484
95.9495
96.1471
96.0741
95.7965
96.684
97.1888
96.4283
97.1894
96.5095
96.0225
96.8572
96.4782
96.6039
96.6484
96.6127
96.5976
96.8053
96.6337
96.5733
96.5467
96.6898
96.629
96.5448
96.5477
96.7785
96.7128
96.9759
97.0417
96.7489
96.625
96.989
96.6218
96.7233
96.6862
96.7238
96.6227
96.723
96.6884
96.6857
96.3547
96.7336
96.9593
96.7046
96.9953
96.6966
96.6474
96.6874
96.5349
96.549
96.5399
96.5489
96.6428
96.7715
97.0488
96.4726
96.9021
96.5443
96.751
96.9554
96.6204
96.7241
96.7234
96.6853
96.7227
96.6202
96.6887
97.0326
96.8565
97.0239
96.9023
97.0499
97.0252
96.8614
97.3662
97.6504
97.5701
97.9416
97.3659
97.6342
97.5714
97.2318
97.1613
97.3289
97.2555
97.2354
97.1639
97.3287
97.201
97.7203
97.0681
97.368
97.3379
97.2282
97.093
97.0392
96.905
96.8686
97.0214
97.0274
97.0892
96.8713
97.3743
97.9304
97.6459
97.5715
97.6519
97.5728
97.3772
97.2324
97.2579
97.1622
97.3299
97.1678
97.3288
97.2415
97.2493
97.2786
97.3277
97.2636
97.2311
97.2812
97.2843
97.5106
97.5189
97.4089
97.5247
97.4884
97.6196
97.4208
97.2112
97.2618
97.2951
97.2741
97.1933
97.2367
97.2993
97.6566
97.7574
97.4635
97.8928
97.4582
97.8591
97.6745
97.2456
97.2666
97.2808
97.3301
97.2785
97.2872
97.2467
97.5178
97.548
97.6394
97.4343
97.6291
97.4154
97.5376
97.2158
97.2753
97.2743
97.3025
97.2382
97.3025
97.2228
97.405
97.2875
97.4849
97.3291
97.3926
97.2993
97.5194
97.4525
97.5509
97.7696
106.769
97.4638
98.2136
97.8469
98.0007
97.4651
97.4944
97.5954
97.6915
97.4591
97.4605
97.4561
97.7203
97.177
97.3917
97.1996
97.8511
97.4651
97.4079
97.3253
97.3282
97.5143
97.3067
97.5075
97.476
98.4222
93.7932
97.3296
97.7967
97.562
97.8178
97.8452
97.703
97.6051
97.5457
97.4662
97.4598
97.4693
97.6774
97.8428
98.1729
97.7918
97.9968
97.8892
98.1104
97.7848
101.447
114.992
98.0896
99.619
102.01
114.1
98.1291
98.0055
97.9685
97.8778
97.6445
97.9874
97.9341
97.8958
97.8829
96.3933
99.2394
95.1082
99.4494
95.9673
97.9066
97.8943
98.1184
98.1478
97.9237
98.1929
97.8286
97.8748
100.674
99.0509
108.559
98.0012
108.512
97.9886
100.583
97.9833
97.6349
98.0158
97.8946
97.9355
97.8831
97.9828
97.3606
97.363
97.3975
97.5032
97.3512
97.3478
97.4159
95.8004
92.9953
97.8632
98.53
95.8947
93.5065
97.7913
97.0703
97.236
98.0078
97.8409
97.0669
97.2461
98.0081
96.8308
97.5219
97.1951
95.681
97.052
95.8272
96.8317
97.3482
97.5054
97.3453
97.4145
97.339
97.4014
97.3886
95.9677
111.684
95.1244
98.1914
97.0137
97.8223
96.0081
97.0418
97.8428
97.2608
98.0075
97.2307
98.0065
97.0834
99.4976
98.912
98.4364
98.3335
99.5006
98.9142
98.423
97.7349
108.361
101.804
113.904
97.4344
100.395
101.833
98.4633
98.6979
100.697
99.2515
98.4694
98.6768
100.676
99.5217
104.95
99.565
100.298
99.5269
98.6923
99.5043
99.4961
98.3287
98.9305
98.4333
98.92
98.426
99.5076
96.9965
110.174
98.0614
101.905
98.8863
101.874
97.0618
98.4476
99.2505
98.6923
100.662
98.6782
100.666
98.447
99.0859
99.8238
98.464
98.8339
99.0771
99.8072
98.4775
97.0221
95.4908
95.4896
94.1909
97.0674
95.4984
95.5012
97.5364
97.5887
96.2961
96.6092
97.5441
97.5999
96.2962
99.9857
103.086
100.254
102.896
100.192
102.884
100.059
99.0944
99.1978
99.8644
98.5017
99.8121
98.4868
99.1167
97.0228
94.2126
95.6313
95.4983
95.7079
95.4712
97.1603
97.6367
96.6222
97.6049
96.3066
97.6105
96.3093
97.592
95.6301
95.9
95.9002
96.2083
95.639
95.8844
95.8817
95.1817
94.5513
95.585
95.1149
95.179
94.5412
95.5353
95.561
95.7482
95.8203
95.8782
95.5477
95.7457
95.8283