/*--------------------------------*- C++ -*----------------------------------*\
| =========                 |                                                 |
| \\      /  F ield         | OpenFOAM: The Open Source CFD Toolbox           |
|  \\    /   O peration     | Version:  5.0                                   |
|   \\  /    A nd           | Web:      www.OpenFOAM.org                      |
|    \\/     M anipulation  |                                                 |
\*---------------------------------------------------------------------------*/
FoamFile
{
    version     2.0;
    format      ascii;
    class       surfaceScalarField;
    location    "4.4";
    object      phi;
}
// * * * * * * * * * * * * * * * * * * * * * * * * * * * * * * * * * * * * * //

dimensions      [0 3 -1 0 0 0 0];

internalField   nonuniform List<scalar> 
26113
(
-1.06718e-09
8.42846e-10
9.09159e-09
8.79975e-10
1.1198e-09
-1.41135e-09
1.86346e-08
1.01034e-08
-3.10038e-08
4.1577e-10
1.8e-09
-4.80893e-09
-1.8975e-09
-6.6608e-12
1.38297e-09
-9.65505e-09
7.6457e-09
2.92288e-09
-4.16683e-11
6.33424e-10
6.48088e-09
-1.51363e-09
1.80653e-09
2.78235e-09
5.9197e-11
2.88568e-09
-1.35942e-09
-4.78091e-09
1.46638e-09
-2.74323e-10
9.06418e-11
-6.39907e-11
1.46284e-10
-5.87556e-11
-5.10428e-12
-2.87888e-11
9.0436e-11
1.39116e-09
-1.24156e-11
-3.73925e-11
-2.35164e-10
-2.43606e-10
-4.07685e-10
-4.29374e-10
-1.67389e-11
-2.12994e-11
-2.6854e-11
1.37179e-09
-2.79836e-11
-3.47455e-13
1.38009e-09
-2.91865e-11
-5.84848e-13
1.38446e-09
-1.80953e-11
-8.26982e-14
1.38957e-09
-1.19798e-11
-1.86734e-13
1.39354e-09
-7.61667e-12
1.17642e-13
1.39451e-09
-5.29279e-12
-9.36527e-13
1.39614e-09
-3.35073e-12
8.29699e-15
1.39677e-09
-7.41185e-13
-1.48441e-13
1.39771e-09
-1.45313e-12
-2.33246e-14
1.39809e-09
-7.45522e-13
2.7152e-13
1.3977e-09
-7.65332e-13
7.65466e-13
1.39869e-09
-1.70987e-13
1.3293e-12
1.39898e-09
-2.05583e-13
-8.95304e-13
1.39881e-09
-1.72319e-13
1.95305e-13
1.39865e-09
1.28613e-13
-1.41787e-13
1.39887e-09
-2.81072e-13
5.83131e-14
1.39909e-09
1.5585e-13
-7.54208e-13
1.39871e-09
2.30609e-15
-6.92965e-13
1.39877e-09
1.06776e-13
1.20727e-13
1.39901e-09
-8.26686e-14
-2.38196e-15
1.3986e-09
7.16592e-13
-1.75353e-12
1.39877e-09
-4.32095e-13
9.25851e-13
1.39818e-09
-8.94306e-13
3.88078e-12
1.39848e-09
-7.33809e-13
2.64412e-12
1.39836e-09
2.90727e-14
-5.79466e-13
1.39966e-09
-2.79172e-12
1.17394e-12
1.39972e-09
7.80766e-14
-3.94816e-14
1.3984e-09
1.53973e-13
-8.1882e-13
1.39806e-09
2.81468e-13
1.92461e-13
1.39776e-09
6.20273e-13
-4.05101e-13
1.40015e-09
-4.70362e-12
1.68913e-12
1.39924e-09
6.1309e-13
1.43408e-13
1.39906e-09
1.52695e-13
2.09734e-14
1.39903e-09
-3.48264e-14
5.37137e-14
1.40009e-09
-4.19641e-13
1.89834e-12
1.39856e-09
3.05263e-12
-1.52852e-12
1.39879e-09
-2.68617e-13
8.44197e-14
1.39908e-09
3.74616e-13
-4.64699e-13
1.39924e-09
1.56527e-13
5.80127e-14
1.39914e-09
5.35056e-14
1.54209e-13
1.39861e-09
-5.21009e-13
1.01671e-12
1.33005e-12
-1.23819e-12
-1.00054e-09
4.99568e-09
-2.96126e-09
3.06412e-09
2.64433e-09
1.79242e-07
5.63e-09
2.20992e-09
4.66511e-09
-1.89989e-07
-1.01658e-07
9.03369e-08
6.39873e-10
2.9372e-09
-2.31199e-09
4.41314e-09
3.54847e-09
4.53662e-09
-5.56022e-09
3.66145e-11
5.73367e-10
1.29988e-09
-1.37073e-09
-2.34134e-09
-3.85573e-10
-3.93118e-10
3.74867e-09
1.57659e-10
3.00701e-09
1.41201e-09
-2.53337e-09
1.42412e-09
-2.17931e-09
1.99998e-09
-9.50736e-10
5.82343e-10
1.12786e-09
-6.78189e-10
-5.62757e-10
-2.22835e-09
1.30993e-10
3.51587e-11
-5.76914e-11
-1.66158e-10
5.76981e-11
-8.20665e-11
-1.69568e-11
4.39605e-11
-7.61814e-11
1.31244e-10
-3.31066e-11
2.01191e-10
-1.20914e-11
-7.89776e-12
-3.52668e-11
-6.01286e-11
-6.51162e-11
1.38406e-09
-5.21331e-11
-2.41317e-11
-2.49834e-10
-2.54242e-10
-4.10762e-10
-4.20955e-10
1.39097e-09
-3.39465e-11
-2.20215e-12
1.39417e-09
-2.18383e-11
4.81218e-13
1.39604e-09
-1.38477e-11
-4.94237e-14
1.39719e-09
-8.83808e-12
3.86384e-14
1.39758e-09
-5.69885e-12
-9.88963e-15
1.39775e-09
-3.5411e-12
8.00787e-15
1.39865e-09
-2.06471e-12
4.2098e-13
1.39858e-09
-1.39189e-12
4.68448e-15
1.39921e-09
-1.10009e-13
-1.26461e-12
1.39805e-09
1.27576e-12
-8.77276e-13
1.39858e-09
-7.68718e-13
7.23633e-14
1.39877e-09
-6.60463e-13
2.6266e-13
1.3988e-09
-2.01444e-13
-6.26596e-15
1.39903e-09
2.93017e-13
-3.9182e-13
1.39871e-09
1.34503e-14
2.32075e-14
1.39871e-09
-3.01136e-13
4.61401e-13
1.39883e-09
-8.70475e-14
-2.94871e-14
1.39915e-09
-8.60278e-14
-1.19663e-13
1.3996e-09
-5.81534e-13
5.66241e-14
1.39752e-09
-2.18746e-12
4.99279e-12
1.39795e-09
-6.69375e-13
-1.82642e-13
1.39853e-09
1.51282e-13
-1.611e-12
1.39877e-09
4.92148e-13
-1.45197e-12
1.39991e-09
-3.14263e-12
2.03749e-12
1.39912e-09
-3.18665e-12
1.19972e-12
1.39905e-09
2.51726e-13
-9.2549e-14
1.39921e-09
1.159e-13
-1.15506e-13
1.39948e-09
2.33968e-13
-2.12848e-13
1.39983e-09
1.90636e-13
9.19584e-14
1.39782e-09
-1.42736e-12
-1.26559e-12
1.39822e-09
4.48494e-13
-2.21647e-13
1.39842e-09
-4.08211e-14
4.09765e-16
1.39835e-09
1.28016e-13
-8.4214e-14
1.39851e-09
-1.32788e-13
-4.41449e-13
1.4e-09
1.57598e-13
1.41004e-12
1.39934e-09
-4.10582e-13
8.00204e-13
1.39878e-09
-1.16633e-13
1.05887e-12
1.39911e-09
3.35037e-13
-5.03248e-13
1.39901e-09
2.12033e-13
-6.3645e-14
1.39902e-09
-1.41464e-13
-3.82071e-13
-2.68222e-13
1.27871e-12
-1.40039e-09
2.5049e-09
-3.35907e-09
2.44552e-09
2.61517e-09
1.12719e-09
1.07392e-08
-1.18373e-08
-2.53206e-09
-9.49704e-10
-2.98119e-08
-4.24024e-09
-2.71844e-09
-5.86254e-09
-2.28322e-09
-3.33388e-10
-1.57657e-09
2.11165e-08
1.6075e-09
3.39211e-08
5.45394e-09
-1.89679e-09
-4.82493e-10
-4.8719e-09
-4.94616e-09
-2.64586e-09
4.67431e-09
-1.12606e-10
1.88531e-09
-1.56476e-09
6.14585e-11
-2.69398e-10
1.37552e-10
-5.40319e-10
-1.83656e-10
-5.4497e-11
6.40919e-10
-7.76238e-11
2.01337e-11
-6.55064e-11
4.74796e-11
7.55169e-11
-3.93933e-11
2.07674e-10
1.24639e-11
-3.62246e-11
-7.36422e-11
-6.39733e-11
1.22287e-11
-3.14303e-12
-6.37715e-12
-5.98724e-12
-3.62562e-12
1.41422e-09
-5.99356e-11
-2.71709e-11
-2.57765e-10
-2.60426e-10
-4.23346e-10
-4.37727e-10
1.41114e-09
-2.88774e-11
-2.03587e-12
1.40752e-09
-1.86618e-11
3.9684e-13
1.40463e-09
-1.09243e-11
-8.29229e-14
1.40266e-09
-6.89589e-12
-7.47223e-15
1.40121e-09
-4.27269e-12
-5.72359e-15
1.40026e-09
-2.58458e-12
-1.64102e-14
1.39963e-09
-1.54599e-12
1.06637e-13
1.3994e-09
-1.15207e-12
-1.29701e-14
1.39899e-09
-9.75889e-13
1.27351e-12
1.39924e-09
8.15321e-13
2.14979e-13
1.39904e-09
-5.19098e-13
-4.74069e-14
1.39897e-09
-6.98069e-13
1.05652e-13
1.39927e-09
-4.35936e-13
-7.26244e-14
1.39853e-09
-8.58731e-13
1.8902e-12
1.39873e-09
-2.03834e-13
2.54874e-14
1.39841e-09
-4.77417e-13
5.01335e-13
1.39855e-09
-2.714e-13
4.69235e-14
1.39824e-09
1.51033e-13
7.21674e-14
1.3974e-09
-2.85485e-14
2.99575e-13
1.3995e-09
1.26351e-12
-5.54301e-12
1.39984e-09
1.12391e-12
-2.11905e-12
1.39941e-09
5.23686e-13
6.584e-14
1.40022e-09
7.7978e-13
-1.08813e-12
1.39894e-09
1.25913e-15
-1.8555e-12
1.39863e-09
-5.58373e-14
-2.80538e-12
1.39871e-09
2.51957e-13
-7.08519e-14
1.39895e-09
-1.68475e-13
5.43487e-14
1.3992e-09
-7.31724e-14
6.91708e-14
1.39913e-09
-1.29186e-13
3.96123e-13
1.39878e-09
-5.68684e-13
-4.96354e-13
1.39827e-09
-7.67266e-13
1.72791e-12
1.398e-09
-2.24908e-13
4.59702e-13
1.39778e-09
-3.10594e-13
6.69155e-13
1.39923e-09
-3.68824e-12
2.10486e-12
1.39979e-09
-2.11177e-12
1.71778e-12
1.39964e-09
2.95399e-13
-5.53809e-13
1.3993e-09
9.74826e-14
1.28808e-13
1.39894e-09
2.18028e-13
4.80018e-13
1.39863e-09
6.03794e-13
-7.56504e-14
1.39875e-09
3.56704e-13
-6.16615e-13
-1.84694e-12
7.80732e-13
-1.65099e-09
1.64787e-09
-2.51129e-09
2.57003e-08
7.19722e-09
-3.46985e-08
7.1182e-10
3.11024e-09
5.65536e-09
8.75203e-10
-3.75122e-09
3.64415e-10
-1.25735e-09
2.44097e-09
-4.41773e-09
-1.52185e-09
1.8476e-09
8.06547e-10
3.78968e-09
-1.0021e-08
4.47507e-09
5.49355e-10
-2.36156e-10
-1.91849e-10
1.77982e-10
-2.99331e-10
-4.88466e-11
-2.41501e-10
9.06971e-11
-1.08441e-10
3.08092e-10
6.09006e-10
-1.14723e-09
3.73375e-10
-2.65233e-10
4.30084e-10
-1.73154e-10
1.2806e-11
-1.44663e-10
2.20507e-10
-8.65305e-11
-1.15508e-10
-8.58332e-11
2.61267e-11
-3.43852e-13
-7.98624e-12
9.71243e-11
7.99706e-11
8.91772e-11
8.83057e-11
-1.21373e-10
8.91142e-12
-1.4783e-11
9.352e-11
3.37249e-11
1.45946e-09
-2.96168e-11
-3.10203e-11
-2.6723e-10
-2.76209e-10
-4.44599e-10
-4.70739e-10
1.43549e-09
-2.80645e-12
-2.11675e-12
1.42156e-09
-4.96936e-12
1.99235e-13
1.41245e-09
-1.262e-12
-5.92567e-13
1.40738e-09
-1.81842e-12
-3.22982e-14
1.40414e-09
-1.02862e-12
-3.35148e-14
1.40204e-09
-5.55965e-13
5.67911e-14
1.40068e-09
-1.86616e-13
-2.1418e-15
1.3999e-09
-5.71787e-13
1.93891e-13
1.39885e-09
-1.93407e-14
9.54327e-14
1.39948e-09
8.60955e-14
9.27294e-14
1.39932e-09
-4.15292e-13
5.91167e-14
1.39917e-09
-1.50474e-13
-3.97486e-13
1.3988e-09
-9.43966e-14
2.94487e-14
1.39907e-09
-6.37669e-14
-1.07132e-12
1.39895e-09
-8.03911e-14
6.11665e-15
1.39889e-09
1.85737e-14
-4.37279e-13
1.39875e-09
-4.6987e-14
-7.67234e-14
1.39884e-09
7.95993e-14
-1.47695e-14
1.39906e-09
8.4848e-13
-1.09024e-12
1.39965e-09
1.09174e-12
-4.08043e-13
1.39883e-09
-1.36772e-13
2.09201e-12
1.39897e-09
5.14705e-13
-1.20175e-13
1.39858e-09
-8.87591e-13
2.06043e-12
1.39872e-09
-1.59887e-13
3.40671e-14
1.39875e-09
5.20687e-14
-1.20272e-13
1.39908e-09
-2.03898e-13
1.30926e-13
1.39898e-09
-1.6763e-13
1.06513e-13
1.39906e-09
-1.84945e-13
4.30662e-14
1.39899e-09
8.49492e-14
-1.37509e-13
1.39844e-09
-4.08384e-13
4.07556e-13
1.39887e-09
9.93484e-13
-2.18851e-12
1.39944e-09
-3.27596e-13
-4.56003e-13
1.39968e-09
1.55648e-13
-7.02185e-13
1.39856e-09
-7.18627e-14
-2.49683e-12
1.39859e-09
1.1147e-13
-2.24224e-12
1.3991e-09
1.41334e-13
-3.50897e-13
1.39927e-09
1.14436e-14
-8.72874e-14
1.39935e-09
1.40742e-12
-1.25986e-12
1.39823e-09
1.70185e-12
2.57923e-14
1.39862e-09
-3.28724e-14
-7.68454e-16
-1.98994e-12
4.32222e-13
-7.97086e-09
8.04551e-09
9.80784e-10
-1.09196e-08
-1.50401e-08
2.79409e-08
-4.82499e-09
-1.58241e-09
5.23559e-08
-4.03733e-08
-2.53586e-09
-1.27103e-08
-4.93026e-10
-5.19813e-09
-7.62043e-10
-4.14855e-09
-2.71582e-09
-2.00026e-09
3.36695e-09
4.67844e-09
4.92773e-09
4.04591e-09
7.27385e-10
-1.08528e-09
-5.18469e-09
7.17608e-10
6.73426e-09
-9.94223e-10
4.61712e-09
-6.61595e-09
-1.35155e-10
3.6657e-11
-2.46331e-09
-1.1794e-09
2.80032e-09
4.49995e-09
4.90247e-10
-2.33855e-10
-6.37141e-10
4.90763e-10
-7.61441e-08
1.66956e-08
2.49612e-08
3.89844e-08
-8.21828e-10
-5.17504e-09
-4.51899e-09
-1.39161e-09
7.08514e-10
-1.53934e-10
-2.08736e-10
-3.75578e-10
2.97345e-11
2.22247e-12
-2.48694e-12
9.41666e-12
-2.29114e-10
-3.68171e-11
-2.99804e-11
-4.25263e-11
7.11606e-11
8.04621e-11
9.79553e-11
7.97081e-11
-1.03567e-10
7.01667e-12
-1.43086e-12
-2.20986e-11
1.2008e-10
1.46026e-09
2.53688e-11
-3.58338e-11
-2.63069e-10
-2.68981e-10
-4.63863e-10
-4.83502e-10
1.43869e-09
1.78051e-11
9.71467e-13
1.42339e-09
1.04766e-11
-1.56218e-13
1.41425e-09
7.37257e-12
4.72638e-13
1.40906e-09
3.86664e-12
-5.15957e-13
1.40573e-09
2.2726e-12
8.2902e-15
1.40257e-09
3.80477e-12
-1.2156e-12
1.40068e-09
2.87987e-12
-1.18105e-12
1.39984e-09
5.01798e-13
-2.37308e-13
1.39927e-09
5.75234e-13
-1.7133e-14
1.39853e-09
6.13745e-13
2.06989e-13
1.39968e-09
-2.92369e-12
1.35633e-12
1.39906e-09
4.73075e-13
-1.76126e-15
1.39918e-09
-4.82043e-13
2.65814e-13
1.3991e-09
3.11962e-13
-2.9464e-13
1.39908e-09
5.64666e-14
-1.21812e-13
1.39916e-09
-2.97259e-13
2.45533e-13
1.39922e-09
-1.69544e-13
6.70533e-14
1.3992e-09
6.84838e-14
3.82824e-14
1.39893e-09
3.01382e-13
8.18318e-13
1.39822e-09
7.29284e-13
1.08774e-12
1.39915e-09
-1.96863e-12
9.11088e-13
1.39947e-09
3.04697e-13
-9.85041e-14
1.39846e-09
-6.46066e-13
7.71146e-13
1.39858e-09
5.49515e-15
-2.68398e-13
1.39878e-09
-9.70731e-14
-3.94529e-14
1.39878e-09
-1.93261e-13
-1.81353e-15
1.39872e-09
-8.1866e-14
-1.32745e-14
1.39861e-09
-2.99692e-13
2.31345e-13
1.39861e-09
8.23184e-14
7.12346e-15
1.39876e-09
-1.95541e-13
-3.51872e-13
1.39942e-09
-1.85002e-13
5.29406e-13
1.39908e-09
4.15343e-14
-2.60611e-14
1.39928e-09
-1.48518e-12
1.45348e-12
1.3988e-09
1.55788e-13
2.50383e-13
1.3987e-09
3.07105e-13
-9.21526e-14
1.39924e-09
1.51598e-14
-4.05068e-13
1.39962e-09
-3.66898e-13
4.48962e-16
1.39956e-09
-1.26597e-12
2.73243e-12
1.39834e-09
2.95379e-12
-2.67557e-14
1.39856e-09
-8.2942e-13
5.78182e-13
-1.80526e-13
-9.09433e-13
-4.45806e-09
5.09558e-09
-6.60039e-09
-6.06672e-09
-2.02366e-09
1.54092e-09
1.64121e-08
-2.71078e-09
8.2452e-09
-1.02375e-09
2.38739e-09
-7.40413e-09
2.0863e-09
-1.10521e-09
-8.31202e-10
-1.12932e-10
-3.52335e-08
4.77408e-09
5.46515e-08
-2.42291e-08
-2.99123e-09
5.3748e-10
8.35546e-10
5.57224e-09
-3.95404e-09
3.08822e-10
1.28056e-09
-1.40816e-09
-6.2688e-10
4.4566e-10
1.79489e-10
-1.31312e-09
1.0176e-09
9.89982e-11
1.70282e-11
-6.64666e-11
1.02153e-10
-1.52248e-10
-3.65433e-11
-2.55497e-11
-1.64254e-10
-3.74187e-11
9.20934e-11
9.37791e-11
1.00178e-10
9.42767e-11
-8.46824e-11
-2.34452e-12
1.7007e-13
-5.17121e-11
1.38569e-10
1.44081e-09
6.80745e-11
-3.69765e-11
-2.65261e-10
-2.56177e-10
-4.75034e-10
-4.50049e-10
1.42768e-09
2.99758e-11
9.74532e-13
1.41668e-09
2.15963e-11
-1.31185e-13
1.41068e-09
1.33189e-11
3.43519e-14
1.40564e-09
8.35416e-12
5.41436e-13
1.40261e-09
5.27844e-12
4.03117e-15
1.40173e-09
3.5455e-12
1.1324e-12
1.40114e-09
2.30345e-12
1.16479e-12
1.40022e-09
1.40839e-12
1.35463e-14
1.39968e-09
1.09647e-12
1.73093e-14
1.3999e-09
4.9631e-13
-1.059e-13
1.39806e-09
-9.90581e-14
-9.83115e-13
1.39932e-09
1.33648e-12
-2.1201e-12
1.39863e-09
5.62402e-13
-3.63123e-13
1.39907e-09
-4.10277e-13
2.8476e-13
1.3988e-09
3.88476e-13
-5.92026e-14
1.39866e-09
8.30265e-14
-2.43737e-13
1.39935e-09
9.16441e-13
-1.76373e-12
1.39942e-09
7.31091e-14
-7.55502e-14
1.39956e-09
2.61095e-13
-8.95884e-14
1.39954e-09
9.7706e-13
-2.16826e-13
1.39768e-09
3.08095e-12
-3.18503e-12
1.39779e-09
-7.75962e-13
9.85277e-13
1.399e-09
1.11049e-13
-1.95691e-12
1.39897e-09
5.01872e-14
-1.18063e-15
1.39873e-09
1.23768e-13
2.47842e-14
1.39865e-09
-1.91649e-13
9.32948e-14
1.3987e-09
-1.31369e-13
9.49759e-15
1.39882e-09
-3.17116e-13
-9.76409e-14
1.39875e-09
-6.90225e-15
1.70905e-13
1.39858e-09
-7.02444e-13
6.82758e-13
1.39942e-09
-7.72364e-13
-2.3879e-13
1.39931e-09
1.39848e-13
1.7426e-14
1.39903e-09
5.4766e-14
-1.25719e-12
1.39911e-09
-5.08037e-14
1.31497e-13
1.39866e-09
-3.52541e-13
1.11605e-12
1.3984e-09
-2.08276e-13
4.88002e-13
1.39823e-09
-9.622e-14
-9.69669e-14
1.39829e-09
1.4825e-12
-2.80252e-12
1.40002e-09
1.1108e-12
1.07943e-13
1.39986e-09
-4.57273e-13
-2.03285e-13
-8.38378e-13
1.94801e-12
-1.2178e-08
-2.31883e-10
-1.2442e-08
-1.38472e-09
-4.23391e-11
-1.23297e-09
-4.14664e-08
-1.50519e-08
9.05138e-08
-3.77793e-10
9.58391e-11
-9.64146e-09
-1.00478e-09
-1.72234e-09
-4.2078e-09
-1.00565e-08
2.99199e-08
-6.783e-09
-9.30517e-10
-8.23443e-10
-2.38323e-10
2.9545e-10
-2.44357e-09
-1.31425e-09
-2.94752e-09
1.59518e-09
-9.5392e-10
-8.31462e-10
-1.8761e-10
1.23177e-09
-4.52192e-09
4.45084e-09
-6.23642e-10
-2.85162e-11
5.79024e-10
-8.01461e-10
-2.86098e-10
-4.95453e-09
2.99116e-09
-1.47332e-09
9.39751e-09
-5.96081e-09
-2.54543e-10
1.4568e-09
1.37637e-10
4.79319e-11
-1.38782e-09
-1.56935e-10
1.39294e-10
1.70893e-10
-1.11662e-09
9.07031e-12
4.95482e-10
2.75868e-11
8.28684e-11
1.13443e-10
1.11142e-10
1.23771e-10
-1.26225e-10
-7.91886e-12
1.05986e-11
3.97832e-11
8.37616e-11
1.41955e-09
8.0086e-11
-2.89059e-11
-2.66115e-10
-2.55886e-10
-4.53361e-10
-4.2728e-10
1.40917e-09
4.19273e-11
-1.58636e-12
1.40447e-09
2.61307e-11
1.51466e-13
1.40207e-09
1.57593e-11
-5.04726e-14
1.40071e-09
9.69345e-12
-1.63139e-15
1.39995e-09
6.02687e-12
4.27489e-15
1.39964e-09
3.83961e-12
1.15601e-14
1.39944e-09
2.49932e-12
4.24694e-15
1.39923e-09
1.61417e-12
8.81102e-15
1.39921e-09
1.09077e-12
2.21642e-14
1.39955e-09
-2.79147e-13
4.41041e-13
1.39925e-09
5.4047e-13
-3.46136e-13
1.39828e-09
1.02433e-13
2.20381e-12
1.39859e-09
2.46019e-13
7.82576e-15
1.3988e-09
-4.98592e-13
-1.23397e-13
1.399e-09
1.34741e-13
4.57758e-14
1.39902e-09
1.81564e-13
-1.08225e-13
1.39851e-09
-3.12242e-13
1.73618e-12
1.39895e-09
-5.18469e-13
1.66313e-13
1.39975e-09
-5.76885e-13
4.31453e-14
1.39752e-09
7.54042e-12
-4.33101e-12
1.39828e-09
9.57929e-13
1.38056e-12
1.39872e-09
-3.96779e-13
-8.06899e-13
1.39885e-09
-1.64789e-13
1.52144e-13
1.39902e-09
-2.03873e-13
9.18472e-14
1.39889e-09
3.23876e-13
-5.99596e-14
1.39899e-09
-1.3643e-13
-1.44049e-13
1.39895e-09
7.21153e-14
-1.52257e-13
1.3989e-09
-1.57056e-13
-9.50146e-14
1.39894e-09
-2.46076e-13
2.05807e-13
1.39877e-09
9.65317e-14
-6.22397e-13
1.39911e-09
5.57613e-13
-1.66576e-12
1.39912e-09
2.21028e-13
-7.83089e-14
1.39894e-09
-1.2981e-13
3.70907e-13
1.39875e-09
-3.19377e-14
1.75114e-13
1.39885e-09
-3.36586e-14
-4.13934e-13
1.39853e-09
-2.12482e-13
3.30586e-13
1.39834e-09
1.02673e-13
-1.00456e-14
1.39875e-09
-7.18892e-13
1.79606e-12
1.39914e-09
7.00626e-13
2.42162e-14
1.39937e-09
-1.51184e-13
-5.34274e-13
-2.02278e-13
-1.43707e-12
-5.67724e-10
-1.30149e-09
1.82828e-09
3.96518e-09
-2.63886e-09
3.97225e-09
-5.20274e-09
-2.15434e-10
2.17123e-10
-4.59946e-09
-1.93722e-09
6.53499e-09
9.50836e-10
-2.77124e-10
-9.4534e-10
-6.46248e-10
9.17876e-10
1.08828e-11
5.75709e-11
6.37507e-11
7.70227e-11
-2.09227e-10
-1.11646e-10
3.85931e-11
3.927e-10
3.03311e-10
-6.22958e-10
-2.32786e-10
-2.9096e-10
1.82424e-10
-2.01857e-10
1.7024e-10
-9.01944e-11
4.21555e-11
-6.97021e-12
-3.90505e-11
-4.00293e-11
1.47365e-10
1.22174e-10
1.04525e-10
1.32966e-10
-7.82157e-11
-1.11534e-11
4.03624e-12
5.84486e-11
2.68843e-11
1.35531e-09
3.929e-11
-2.67614e-11
-2.42317e-10
-2.37284e-10
-4.08895e-10
-3.99259e-10
1.37536e-09
2.28394e-11
-9.91581e-13
1.38534e-09
1.56952e-11
4.33719e-13
1.39093e-09
1.01065e-11
3.68636e-14
1.39403e-09
6.52964e-12
5.31002e-14
1.39599e-09
4.058e-12
4.07996e-15
1.39716e-09
2.6198e-12
4.39208e-14
1.39795e-09
1.69049e-12
1.80823e-14
1.3982e-09
1.57402e-12
-2.08395e-13
1.39844e-09
9.53956e-13
-1.00813e-13
1.39889e-09
-1.49134e-12
7.67888e-13
1.39871e-09
2.20933e-12
-1.48852e-12
1.39884e-09
3.96255e-14
-7.10557e-14
1.3991e-09
2.3949e-14
-4.02134e-14
1.39833e-09
8.58499e-13
-5.9012e-13
1.39864e-09
-1.25522e-13
-4.52713e-14
1.39863e-09
3.81725e-14
1.48874e-13
1.39839e-09
-4.03444e-13
3.3913e-13
1.39817e-09
5.34841e-14
-3.42285e-13
1.3969e-09
6.92502e-13
-3.4153e-16
1.39937e-09
4.91283e-13
4.58826e-12
1.39955e-09
9.16455e-13
-1.27507e-13
1.39954e-09
-3.2833e-12
2.90665e-12
1.39914e-09
2.20497e-13
3.1065e-14
1.39895e-09
-4.17419e-14
3.27174e-14
1.39895e-09
1.79441e-13
1.56625e-13
1.39884e-09
-3.8153e-14
2.13623e-14
1.39874e-09
8.20946e-13
-6.34527e-13
1.39894e-09
-3.88951e-13
4.58773e-14
1.39919e-09
-2.13495e-13
-2.78123e-13
1.39952e-09
-1.81773e-13
-4.80085e-14
1.3987e-09
-3.97606e-13
1.78897e-12
1.39875e-09
-9.2788e-14
2.73717e-13
1.39889e-09
5.43902e-14
-3.20298e-13
1.39889e-09
2.09212e-13
-2.408e-13
1.39878e-09
5.42308e-14
3.43867e-14
1.39875e-09
1.62908e-13
-3.41501e-13
1.39824e-09
5.85081e-13
3.04362e-14
1.3987e-09
-9.84938e-13
-1.93346e-13
1.39857e-09
5.5086e-13
2.76668e-13
1.3998e-09
-3.07071e-12
1.6905e-12
-3.62793e-13
-5.28842e-13
-6.50364e-10
6.44542e-10
5.71525e-10
-3.74731e-10
3.45677e-09
2.27514e-09
8.76997e-09
-3.80853e-12
-2.0879e-09
7.7866e-09
-1.48264e-09
1.20462e-08
-6.36951e-09
7.99635e-08
-1.04355e-07
6.88069e-10
-2.40183e-09
5.82615e-09
-6.93101e-09
2.81862e-09
-8.56667e-10
-9.33409e-10
9.76302e-09
-9.83024e-10
-8.76648e-10
-2.36342e-09
-1.53231e-09
-4.08091e-11
-1.85309e-10
-9.27077e-10
-1.06435e-09
-2.55762e-10
-4.15482e-10
-1.42356e-09
3.91935e-09
-1.82455e-09
-2.26626e-10
7.68009e-11
-8.59398e-11
-5.00579e-10
7.36344e-10
9.92282e-12
7.60825e-13
-4.04163e-11
1.77812e-12
2.79546e-11
-3.40537e-11
-1.15775e-12
1.77458e-10
6.89894e-12
1.54608e-11
-3.22069e-11
-6.45395e-11
-6.07751e-11
-2.73661e-12
-1.35878e-12
-2.98905e-12
1.34492e-09
1.78944e-12
-2.43601e-11
-2.43178e-10
-2.38629e-10
-4.0571e-10
-3.95554e-10
1.36472e-09
5.32765e-12
-2.30682e-12
1.37715e-09
2.99222e-12
2.42471e-13
1.3851e-09
2.36817e-12
-2.39413e-13
1.39005e-09
1.69973e-12
-1.33069e-13
1.3935e-09
6.92781e-13
-9.52323e-14
1.39551e-09
8.06955e-13
-2.02513e-13
1.39647e-09
9.22087e-13
-1.87112e-13
1.39782e-09
-2.65384e-14
2.52281e-13
1.39836e-09
2.74375e-13
1.44076e-13
1.39801e-09
1.0517e-13
-1.25347e-12
1.3985e-09
5.52317e-13
1.16818e-12
1.39842e-09
-1.44979e-14
1.33131e-13
1.39841e-09
-8.7489e-14
1.2473e-13
1.3988e-09
-6.0278e-14
5.2599e-13
1.39854e-09
1.26402e-13
1.06125e-14
1.39865e-09
1.79599e-14
-8.78975e-14
1.39882e-09
-2.79047e-13
-2.88365e-13
1.39855e-09
7.75084e-13
-4.51717e-13
1.39914e-09
9.09275e-14
2.04522e-14
1.39915e-09
4.50271e-13
3.87855e-14
1.39901e-09
2.52773e-13
8.18044e-13
1.39876e-09
-1.41623e-14
-3.00944e-12
1.39888e-09
2.08016e-13
-9.41207e-14
1.39903e-09
9.14338e-13
-1.09595e-12
1.39836e-09
-5.25029e-14
9.13366e-13
1.39849e-09
-1.18565e-14
-1.52004e-13
1.39851e-09
9.55121e-14
7.15695e-13
1.39934e-09
-2.97919e-12
1.77326e-12
1.3994e-09
-4.17005e-13
1.49235e-13
1.39905e-09
8.48848e-13
-6.73034e-13
1.39908e-09
-3.41949e-13
-6.92302e-14
1.39931e-09
-3.67496e-13
4.98389e-14
1.39919e-09
1.72389e-12
-1.54745e-12
1.39847e-09
1.19215e-12
-2.57699e-13
1.39858e-09
1.05746e-13
-1.56493e-13
1.39907e-09
2.40996e-14
-3.42126e-13
1.39952e-09
8.76616e-14
5.10323e-14
1.3983e-09
4.62993e-13
-2.33052e-13
1.39867e-09
3.2005e-13
-1.34461e-13
1.39834e-09
7.73587e-13
-3.5111e-12
-2.39022e-12
1.26851e-13
-6.80329e-10
-1.68221e-09
-7.33115e-10
3.28662e-09
-7.83973e-10
-2.79529e-09
3.92428e-09
-5.70283e-10
-2.1497e-08
8.54595e-09
5.5107e-09
7.66576e-09
1.1105e-09
1.05011e-09
-2.40428e-09
3.86687e-09
-3.6232e-09
-8.94328e-10
-4.86725e-10
4.52825e-10
6.23658e-10
3.0457e-10
2.52884e-10
4.82606e-09
3.19347e-09
-7.12367e-09
-2.91226e-09
1.133e-09
1.75461e-10
4.55054e-10
-9.32727e-12
-2.75961e-10
-2.61607e-10
-8.14923e-11
6.28388e-10
-5.89039e-11
7.67578e-11
-2.38814e-12
-1.60763e-10
1.45298e-10
-3.13479e-11
-1.29597e-12
1.70903e-10
-7.71979e-12
1.21588e-11
-3.04076e-11
-5.71788e-11
-5.51117e-11
1.32999e-09
-2.48008e-11
-2.36424e-10
-2.34477e-10
-3.91339e-10
-3.93504e-10
1.35808e-09
-1.39665e-12
1.37407e-09
6.87392e-13
1.38318e-09
2.15224e-13
1.38826e-09
8.44329e-14
1.39312e-09
1.04928e-12
1.39544e-09
1.83274e-13
1.39668e-09
-6.83921e-14
1.3973e-09
-1.04428e-13
1.39797e-09
-2.87815e-13
1.39878e-09
-3.15303e-13
1.39821e-09
-1.01845e-12
1.39819e-09
8.10722e-13
1.39845e-09
-1.97331e-13
1.39853e-09
3.88261e-14
1.39862e-09
3.03444e-14
1.39878e-09
2.49601e-13
1.39882e-09
7.57428e-13
1.39878e-09
5.41932e-13
1.39874e-09
-3.97285e-15
1.3992e-09
1.45341e-12
1.3992e-09
-3.81941e-13
1.39902e-09
-2.207e-12
1.39825e-09
-1.20426e-12
1.39816e-09
1.6975e-12
1.3988e-09
-3.36966e-13
1.39857e-09
1.40649e-13
1.39983e-09
8.48232e-13
1.3987e-09
-1.96798e-12
1.39854e-09
-1.49944e-13
1.39932e-09
7.14818e-13
1.39901e-09
1.42171e-13
1.3989e-09
-2.42391e-13
1.39925e-09
1.40362e-12
1.39908e-09
-1.15424e-12
1.39902e-09
1.76725e-13
1.39866e-09
3.49332e-13
1.39926e-09
-7.04626e-13
1.39934e-09
9.67535e-15
1.39983e-09
-2.69947e-13
1.39869e-09
1.94907e-12
-7.1878e-14
1.1304e-09
9.69612e-10
7.70965e-09
1.25803e-09
-2.53246e-09
-6.28521e-10
-3.7326e-09
-2.0027e-09
-9.33366e-10
8.28499e-09
-1.0465e-08
1.95921e-09
7.37101e-10
-2.54762e-10
-1.01565e-08
3.69366e-09
1.43617e-09
7.33441e-09
2.2453e-09
-5.44506e-09
-4.01577e-09
-2.76991e-09
6.60152e-10
-4.24602e-10
4.0948e-10
-2.45497e-10
-6.32586e-10
-7.91068e-11
3.83811e-11
-2.4139e-11
-1.90568e-11
7.64028e-11
2.30893e-09
-2.93e-11
3.3435e-11
-5.65083e-10
-5.89763e-10
-5.65387e-10
-5.91344e-10
-3.59856e-11
-2.92958e-11
-3.59773e-11
2.28482e-09
-4.69976e-11
3.25101e-13
2.29833e-09
-4.72213e-11
8.07963e-13
2.307e-09
-2.92874e-11
1.56877e-14
2.316e-09
-1.93428e-11
-4.94714e-13
2.32292e-09
-1.23074e-11
-2.88561e-13
2.325e-09
-8.47161e-12
1.04916e-12
2.32772e-09
-5.36039e-12
1.33396e-13
2.32899e-09
-3.87884e-12
1.45428e-12
2.33055e-09
-2.31304e-12
-7.92951e-14
2.33123e-09
-1.52543e-12
4.03965e-13
2.33069e-09
4.22226e-13
-7.3412e-13
2.33214e-09
-3.50988e-13
1.90843e-12
2.3327e-09
-2.9392e-13
7.71419e-13
2.33242e-09
-1.84984e-13
2.8941e-13
2.33223e-09
-2.41937e-13
1.29882e-13
2.33263e-09
-2.6706e-13
-7.71251e-14
2.33295e-09
-1.5673e-12
-1.10034e-13
2.33241e-09
7.62596e-14
7.42296e-13
2.33261e-09
1.83573e-13
1.56387e-13
2.33307e-09
-1.67707e-13
-6.48182e-14
2.33213e-09
5.26061e-13
-4.99786e-13
2.33243e-09
3.59119e-13
1.28157e-14
2.3316e-09
5.07701e-12
-1.15136e-12
2.33187e-09
4.05847e-12
-2.88312e-12
2.33211e-09
-4.17393e-13
-1.4582e-12
2.33411e-09
1.09863e-12
-1.34446e-12
2.33409e-09
2.6864e-13
1.0517e-14
2.33216e-09
8.64273e-14
-1.94176e-12
2.33144e-09
8.00583e-13
-3.18787e-13
2.33116e-09
-1.02924e-12
6.56019e-13
2.33449e-09
-6.19963e-13
-1.7684e-12
2.33352e-09
1.05529e-12
-9.75911e-14
2.33313e-09
3.66883e-13
4.63301e-14
2.33317e-09
-5.3443e-14
-2.87857e-13
2.3348e-09
-6.75862e-13
-3.33209e-14
2.33239e-09
3.53657e-12
-2.73313e-12
2.33289e-09
-2.51179e-13
-1.12029e-13
2.33307e-09
-2.91601e-12
4.3503e-13
2.33341e-09
1.5678e-13
-1.12937e-13
2.33327e-09
3.50715e-14
2.06055e-13
2.33226e-09
9.33701e-13
1.0963e-12
-6.63103e-13
-4.62829e-13
1.13074e-09
8.24775e-10
4.15031e-09
-1.2522e-09
-3.18827e-09
-9.90247e-10
-5.73265e-10
5.05793e-10
2.74759e-09
4.55747e-09
1.7002e-07
8.07632e-10
-8.20284e-10
3.94506e-09
-2.98222e-09
9.53973e-10
4.71556e-09
-1.67466e-09
-1.11075e-08
4.51519e-10
-2.86494e-09
-1.55215e-09
4.76176e-09
1.96237e-09
2.43155e-09
3.87537e-09
-2.35673e-09
-1.41988e-09
-2.52492e-10
-2.5304e-09
9.87529e-10
-1.28438e-09
7.1416e-09
1.39421e-09
8.67825e-10
-5.33016e-10
-1.02628e-09
-1.57061e-09
-1.62206e-09
-1.19187e-09
7.79431e-10
9.87187e-12
3.69951e-10
2.69814e-09
1.82779e-09
1.66474e-09
-1.81744e-09
-3.38579e-09
-4.99577e-10
7.16811e-11
-3.00509e-10
1.28191e-10
-6.10928e-13
6.00825e-10
-8.71555e-11
1.7956e-10
3.6658e-11
-5.01302e-11
-1.7727e-10
9.8337e-11
-1.40174e-10
5.96321e-10
-3.30336e-11
-7.57201e-13
-2.19509e-13
-1.50125e-10
-1.45447e-10
-1.55866e-10
2.30969e-09
-8.68413e-11
2.41259e-11
-5.72917e-10
-5.86164e-10
-5.72917e-10
-5.86181e-10
2.31472e-09
-5.68069e-11
2.24269e-12
2.32279e-09
-3.65267e-11
-4.74455e-13
2.32641e-09
-2.31469e-11
3.89716e-14
2.32888e-09
-1.47612e-11
-4.21339e-14
2.32989e-09
-9.54486e-12
1.1328e-14
2.3305e-09
-5.97117e-12
-1.53395e-14
2.33189e-09
-3.61836e-12
-1.2357e-12
2.33201e-09
-2.37483e-12
-5.45943e-14
2.33284e-09
-3.09087e-12
-5.22203e-13
2.33132e-09
7.45799e-13
3.17977e-13
2.33211e-09
-1.08427e-12
2.00171e-14
2.33247e-09
-7.75071e-13
3.77666e-13
2.3324e-09
-1.53633e-13
2.95284e-14
2.33279e-09
-1.44222e-12
4.26422e-13
2.33251e-09
5.21858e-14
-2.04392e-14
2.33235e-09
-4.15044e-13
-5.22003e-13
2.33248e-09
-1.4052e-13
7.22638e-14
2.33303e-09
-1.54493e-13
-3.13238e-13
2.33368e-09
-7.73195e-13
3.22025e-14
2.33053e-09
5.8146e-12
2.87639e-12
2.33101e-09
-9.23694e-13
6.35824e-13
2.33232e-09
3.49528e-13
1.82913e-12
2.33273e-09
7.5695e-13
1.46451e-12
2.33436e-09
-2.45252e-12
2.47268e-12
2.33341e-09
1.20595e-12
2.06139e-12
2.33312e-09
4.35403e-13
5.28739e-14
2.3332e-09
-1.47453e-14
-7.31967e-14
2.33373e-09
3.69065e-13
-2.83235e-13
2.33415e-09
-6.5744e-13
-6.86871e-13
2.33139e-09
-1.01401e-12
1.91237e-12
2.33168e-09
6.94566e-13
-1.34535e-13
2.33197e-09
1.2063e-14
8.08338e-14
2.33182e-09
6.97174e-14
-4.99141e-14
2.33237e-09
-5.88268e-14
-1.59619e-12
2.3345e-09
-3.50687e-14
2.86162e-12
2.33358e-09
2.28002e-12
-8.05046e-13
2.33286e-09
-9.86929e-14
-1.03032e-12
2.33323e-09
-1.22465e-12
5.12908e-13
2.33302e-09
4.25099e-13
-2.37197e-13
2.33307e-09
1.10144e-12
-6.01952e-13
-3.94664e-13
2.54749e-13
-2.37244e-08
1.01661e-09
-3.57471e-10
9.70601e-10
2.22412e-08
-9.51947e-10
-3.31417e-08
-4.91833e-10
1.55551e-09
-7.29675e-10
3.37705e-08
-3.4188e-09
-2.01242e-09
-2.66999e-08
6.42276e-10
-7.67054e-09
-3.99632e-09
-4.32309e-10
9.17219e-09
1.64254e-09
8.35699e-10
5.30303e-10
1.82176e-09
-2.89238e-09
2.21396e-09
2.54011e-09
-7.59693e-09
3.11921e-09
-2.02075e-10
-1.85569e-12
-1.91183e-10
-1.76448e-10
-4.04809e-09
1.70881e-10
1.21251e-10
2.95174e-10
1.68106e-10
3.29268e-09
-4.78149e-11
1.59579e-11
-4.08429e-11
3.73574e-11
1.46302e-11
2.07123e-11
-1.61639e-10
6.13574e-10
-1.48735e-12
-2.14368e-11
-1.19642e-10
-1.67504e-10
-1.21674e-10
3.70117e-11
-1.45234e-11
-1.51054e-11
-1.40676e-11
-1.35069e-11
2.35959e-09
-1.03149e-10
2.76604e-11
-5.8958e-10
-6.0949e-10
-5.89584e-10
-6.0952e-10
2.34864e-09
-4.99268e-11
1.94407e-12
2.34517e-09
-3.2372e-11
-3.9651e-13
2.34087e-09
-1.90999e-11
8.21822e-14
2.3381e-09
-1.20678e-11
-7.08869e-16
2.33598e-09
-7.46988e-12
-3.65543e-15
2.33452e-09
-4.5265e-12
-2.56236e-14
2.33368e-09
-2.69909e-12
8.07676e-15
2.33326e-09
-1.93436e-12
-3.60924e-14
2.33299e-09
-1.46442e-12
-8.24612e-14
2.33308e-09
7.11004e-13
1.64995e-13
2.33294e-09
-1.01528e-12
1.92177e-14
2.33271e-09
-1.12407e-12
6.87018e-13
2.33325e-09
-8.08682e-13
4.0771e-14
2.33217e-09
1.79338e-12
-2.63019e-13
2.33242e-09
-3.57153e-13
1.92797e-13
2.33176e-09
-7.41096e-13
1.49031e-12
2.33206e-09
-3.34639e-13
-4.39099e-14
2.33146e-09
2.48218e-13
2.82001e-13
2.33029e-09
1.07745e-12
-3.60274e-13
2.33354e-09
-7.99007e-13
-2.15535e-12
2.33415e-09
-4.40508e-12
7.6931e-13
2.33364e-09
1.07434e-12
-1.22786e-13
2.33508e-09
-2.62726e-12
8.79018e-13
2.33307e-09
2.18712e-13
-2.49314e-12
2.33226e-09
8.99303e-14
-8.58649e-13
2.33254e-09
1.55599e-13
-3.96233e-14
2.33301e-09
-3.60222e-13
-4.66936e-14
2.33326e-09
-1.05659e-13
3.06687e-13
2.33323e-09
-3.11567e-13
1.01708e-13
2.33266e-09
-8.66998e-13
-5.27682e-14
2.33173e-09
2.51169e-12
8.53137e-13
2.33131e-09
1.42606e-12
-5.15884e-13
2.33127e-09
3.86235e-13
4.02336e-13
2.33334e-09
2.77253e-12
-2.78506e-12
2.33422e-09
1.99018e-12
-1.17505e-12
2.33409e-09
1.21256e-12
6.47731e-13
2.33366e-09
7.2003e-13
-2.53861e-13
2.33293e-09
4.30903e-13
-4.34754e-13
2.33231e-09
9.12144e-13
6.02451e-14
2.33265e-09
5.80413e-13
-4.33751e-13
-2.463e-12
1.43217e-12
7.10049e-09
-1.56074e-09
-5.74323e-09
-1.70796e-09
-3.9808e-10
-6.47835e-10
3.11595e-08
3.45257e-11
-2.96638e-08
-4.83727e-10
4.28781e-09
5.02596e-09
1.61025e-08
-4.6317e-09
2.52922e-09
-2.99848e-08
6.88196e-09
-5.27778e-09
1.33059e-08
-1.68313e-09
-4.16665e-09
-2.38912e-09
-8.47368e-10
1.47525e-09
-1.75437e-10
-1.58888e-09
1.06111e-09
7.53279e-11
4.83719e-09