/*--------------------------------*- C++ -*----------------------------------*\
| =========                 |                                                 |
| \\      /  F ield         | OpenFOAM: The Open Source CFD Toolbox           |
|  \\    /   O peration     | Version:  5.0                                   |
|   \\  /    A nd           | Web:      www.OpenFOAM.org                      |
|    \\/     M anipulation  |                                                 |
\*---------------------------------------------------------------------------*/
FoamFile
{
    version     2.0;
    format      ascii;
    class       volScalarField;
    location    "4.4";
    object      rAU;
}
// * * * * * * * * * * * * * * * * * * * * * * * * * * * * * * * * * * * * * //

dimensions      [-1 3 1 0 0 0 0];

internalField   nonuniform List<scalar> 
8703
(
9.5947e-07
9.65613e-07
8.87985e-07
8.16871e-07
8.8974e-07
6.84624e-07
8.88343e-08
3.92154e-07
3.93663e-07
3.94697e-07
3.95731e-07
3.96763e-07
3.97795e-07
3.98826e-07
3.99856e-07
4.00886e-07
4.01916e-07
4.02944e-07
4.03971e-07
4.04999e-07
4.06025e-07
4.0705e-07
4.08075e-07
4.09099e-07
4.10122e-07
4.11145e-07
4.12167e-07
4.13187e-07
4.14208e-07
4.15227e-07
4.16246e-07
4.17264e-07
4.18281e-07
4.19297e-07
4.20313e-07
4.21328e-07
4.22342e-07
4.23356e-07
4.24368e-07
4.25379e-07
4.2639e-07
4.274e-07
4.28409e-07
4.29418e-07
4.30425e-07
4.31431e-07
4.32438e-07
4.33442e-07
4.34446e-07
4.36222e-07
8.87835e-07
9.24881e-07
9.69455e-07
9.59388e-07
8.8531e-07
6.82241e-07
2.6688e-07
1.29685e-07
3.93453e-07
3.94696e-07
3.9573e-07
3.96763e-07
3.97794e-07
3.98826e-07
3.99856e-07
4.00886e-07
4.01916e-07
4.02944e-07
4.03971e-07
4.04999e-07
4.06025e-07
4.0705e-07
4.08075e-07
4.09099e-07
4.10122e-07
4.11145e-07
4.12167e-07
4.13187e-07
4.14208e-07
4.15227e-07
4.16246e-07
4.17264e-07
4.18281e-07
4.19297e-07
4.20313e-07
4.21328e-07
4.22342e-07
4.23355e-07
4.24368e-07
4.25379e-07
4.2639e-07
4.274e-07
4.28409e-07
4.29418e-07
4.30425e-07
4.31431e-07
4.32438e-07
4.33442e-07
4.34446e-07
4.36222e-07
8.92907e-07
8.55748e-07
9.02567e-07
8.73191e-07
6.32433e-07
6.95642e-07
6.99408e-07
1.29667e-07
3.93452e-07
3.94696e-07
3.9573e-07
3.96762e-07
3.97794e-07
3.98826e-07
3.99856e-07
4.00886e-07
4.01915e-07
4.02944e-07
4.03971e-07
4.04999e-07
4.06025e-07
4.0705e-07
4.08075e-07
4.09099e-07
4.10122e-07
4.11145e-07
4.12167e-07
4.13187e-07
4.14208e-07
4.15227e-07
4.16246e-07
4.17264e-07
4.18281e-07
4.19297e-07
4.20313e-07
4.21328e-07
4.22342e-07
4.23355e-07
4.24368e-07
4.25379e-07
4.2639e-07
4.274e-07
4.28409e-07
4.29418e-07
4.30425e-07
4.31431e-07
4.32438e-07
4.33442e-07
4.34446e-07
4.36222e-07
9.43386e-07
8.95787e-07
8.63129e-07
6.6828e-07
6.92614e-07
4.5439e-07
9.03142e-07
3.753e-08
3.9345e-07
3.94695e-07
3.95729e-07
3.96762e-07
3.97794e-07
3.98826e-07
3.99856e-07
4.00886e-07
4.01915e-07
4.02944e-07
4.03971e-07
4.04999e-07
4.06025e-07
4.0705e-07
4.08075e-07
4.09099e-07
4.10122e-07
4.11145e-07
4.12167e-07
4.13187e-07
4.14208e-07
4.15227e-07
4.16246e-07
4.17264e-07
4.18281e-07
4.19297e-07
4.20313e-07
4.21328e-07
4.22342e-07
4.23355e-07
4.24368e-07
4.25379e-07
4.2639e-07
4.274e-07
4.28409e-07
4.29418e-07
4.30425e-07
4.31431e-07
4.32438e-07
4.33442e-07
4.34446e-07
4.36222e-07
9.5782e-07
9.37437e-07
8.92211e-07
8.88381e-07
6.90608e-07
6.74627e-07
9.02749e-07
1.00892e-07
3.9345e-07
3.94695e-07
3.95729e-07
3.96762e-07
3.97794e-07
3.98826e-07
3.99856e-07
4.00886e-07
4.01915e-07
4.02944e-07
4.03971e-07
4.04999e-07
4.06025e-07
4.0705e-07
4.08075e-07
4.09099e-07
4.10122e-07
4.11145e-07
4.12167e-07
4.13187e-07
4.14208e-07
4.15227e-07
4.16246e-07
4.17264e-07
4.18281e-07
4.19297e-07
4.20313e-07
4.21328e-07
4.22342e-07
4.23356e-07
4.24368e-07
4.25379e-07
4.2639e-07
4.274e-07
4.28409e-07
4.29418e-07
4.30425e-07
4.31431e-07
4.32438e-07
4.33442e-07
4.34446e-07
4.36222e-07
9.55641e-07
8.81978e-07
7.58704e-07
8.75578e-07
6.75161e-07
4.58086e-07
9.02663e-07
1.53593e-07
3.9345e-07
3.94695e-07
3.95729e-07
3.96762e-07
3.97794e-07
3.98826e-07
3.99856e-07
4.00886e-07
4.01915e-07
4.02944e-07
4.03971e-07
4.04999e-07
4.06025e-07
4.0705e-07
4.08075e-07
4.09099e-07
4.10122e-07
4.11145e-07
4.12167e-07
4.13187e-07
4.14208e-07
4.15227e-07
4.16246e-07
4.17264e-07
4.18281e-07
4.19297e-07
4.20313e-07
4.21328e-07
4.22342e-07
4.23355e-07
4.24368e-07
4.25379e-07
4.2639e-07
4.274e-07
4.28409e-07
4.29418e-07
4.30425e-07
4.31431e-07
4.32438e-07
4.33442e-07
4.34446e-07
4.36222e-07
9.46381e-07
9.43589e-07
6.13668e-07
8.99886e-07
7.9413e-07
6.65429e-07
9.01618e-07
7.34222e-08
3.93451e-07
3.94695e-07
3.9573e-07
3.96762e-07
3.97794e-07
3.98826e-07
3.99856e-07
4.00886e-07
4.01915e-07
4.02944e-07
4.03971e-07
4.04999e-07
4.06025e-07
4.0705e-07
4.08075e-07
4.09099e-07
4.10122e-07
4.11145e-07
4.12167e-07
4.13187e-07
4.14208e-07
4.15227e-07
4.16246e-07
4.17264e-07
4.18281e-07
4.19297e-07
4.20313e-07
4.21328e-07
4.22342e-07
4.23355e-07
4.24368e-07
4.25379e-07
4.2639e-07
4.274e-07
4.28409e-07
4.29418e-07
4.30425e-07
4.31431e-07
4.32438e-07
4.33442e-07
4.34446e-07
4.36222e-07
8.9164e-07
8.60526e-07
8.61094e-07
5.7266e-07
6.79698e-07
6.82861e-07
9.03003e-07
3.55245e-08
3.93454e-07
3.94697e-07
3.9573e-07
3.96763e-07
3.97794e-07
3.98826e-07
3.99856e-07
4.00886e-07
4.01916e-07
4.02944e-07
4.03971e-07
4.04999e-07
4.06025e-07
4.0705e-07
4.08075e-07
4.09099e-07
4.10122e-07
4.11145e-07
4.12167e-07
4.13187e-07
4.14208e-07
4.15227e-07
4.16246e-07
4.17264e-07
4.18281e-07
4.19297e-07
4.20313e-07
4.21328e-07
4.22342e-07
4.23355e-07
4.24368e-07
4.25379e-07
4.2639e-07
4.274e-07
4.28409e-07
4.29418e-07
4.30425e-07
4.31431e-07
4.32438e-07
4.33442e-07
4.34446e-07
4.36222e-07
8.80579e-07
7.62635e-07
4.08649e-07
8.6668e-07
8.04558e-07
5.92205e-07
7.00285e-07
1.29445e-07
3.93455e-07
3.94698e-07
3.95731e-07
3.96763e-07
3.97795e-07
3.98826e-07
3.99857e-07
4.00886e-07
4.01916e-07
4.02944e-07
4.03971e-07
4.04999e-07
4.06025e-07
4.0705e-07
4.08075e-07
4.09099e-07
4.10122e-07
4.11145e-07
4.12167e-07
4.13187e-07
4.14208e-07
4.15227e-07
4.16246e-07
4.17264e-07
4.18281e-07
4.19297e-07
4.20313e-07
4.21328e-07
4.22342e-07
4.23355e-07
4.24368e-07
4.25379e-07
4.2639e-07
4.274e-07
4.28409e-07
4.29418e-07
4.30425e-07
4.31431e-07
4.32438e-07
4.33442e-07
4.34446e-07
4.36222e-07
8.84226e-07
8.18702e-07
6.27044e-07
3.6502e-07
8.47798e-07
6.87655e-07
2.67697e-07
1.29724e-07
3.93455e-07
3.94698e-07
3.95731e-07
3.96763e-07
3.97795e-07
3.98826e-07
3.99857e-07
4.00886e-07
4.01916e-07
4.02944e-07
4.03971e-07
4.04999e-07
4.06025e-07
4.0705e-07
4.08075e-07
4.09099e-07
4.10122e-07
4.11145e-07
4.12167e-07
4.13187e-07
4.14208e-07
4.15227e-07
4.16246e-07
4.17264e-07
4.18281e-07
4.19297e-07
4.20313e-07
4.21328e-07
4.22342e-07
4.23355e-07
4.24368e-07
4.25379e-07
4.2639e-07
4.274e-07
4.28409e-07
4.29418e-07
4.30425e-07
4.31431e-07
4.32438e-07
4.33442e-07
4.34446e-07
4.36222e-07
9.25005e-07
9.01944e-07
8.84257e-07
8.13708e-07
9.03108e-07
7.0818e-07
1.28142e-07
5.04457e-07
5.06387e-07
5.07528e-07
5.08666e-07
5.09803e-07
5.10939e-07
5.12072e-07
5.13204e-07
5.14335e-07
5.15463e-07
5.16591e-07
5.17717e-07
5.1884e-07
5.19963e-07
5.21085e-07
5.22203e-07
5.23321e-07
5.24437e-07
5.25551e-07
5.26664e-07
5.27776e-07
5.28884e-07
5.29993e-07
5.31099e-07
5.32203e-07
5.33306e-07
5.34407e-07
5.35506e-07
5.36605e-07
5.37701e-07
5.38795e-07
5.39888e-07
5.4098e-07
5.42069e-07
5.43157e-07
5.44243e-07
5.45327e-07
5.46411e-07
5.47492e-07
5.48571e-07
5.49649e-07
5.50726e-07
5.5304e-07
9.04677e-07
8.22484e-07
9.77785e-07
9.64514e-07
8.97268e-07
6.73366e-07
3.50423e-07
1.84066e-07
5.06038e-07
5.07526e-07
5.08664e-07
5.09802e-07
5.10938e-07
5.12071e-07
5.13204e-07
5.14335e-07
5.15463e-07
5.16591e-07
5.17717e-07
5.1884e-07
5.19963e-07
5.21085e-07
5.22203e-07
5.23321e-07
5.24437e-07
5.25551e-07
5.26664e-07
5.27776e-07
5.28884e-07
5.29993e-07
5.31099e-07
5.32203e-07
5.33306e-07
5.34407e-07
5.35506e-07
5.36605e-07
5.37701e-07
5.38795e-07
5.39888e-07
5.4098e-07
5.42069e-07
5.43157e-07
5.44244e-07
5.45327e-07
5.4641e-07
5.47492e-07
5.48571e-07
5.49649e-07
5.50726e-07
5.5304e-07
6.58872e-07
5.3084e-07
9.23548e-07
9.21192e-07
6.89233e-07
6.88993e-07
7.77459e-07
1.83843e-07
5.06034e-07
5.07524e-07
5.08663e-07
5.09801e-07
5.10937e-07
5.12071e-07
5.13204e-07
5.14335e-07
5.15463e-07
5.16591e-07
5.17717e-07
5.1884e-07
5.19963e-07
5.21085e-07
5.22203e-07
5.23321e-07
5.24437e-07
5.25551e-07
5.26664e-07
5.27776e-07
5.28884e-07
5.29992e-07
5.31099e-07
5.32203e-07
5.33306e-07
5.34407e-07
5.35506e-07
5.36605e-07
5.37701e-07
5.38795e-07
5.39888e-07
5.4098e-07
5.42069e-07
5.43157e-07
5.44243e-07
5.45327e-07
5.4641e-07
5.47492e-07
5.48571e-07
5.49649e-07
5.50726e-07
5.5304e-07
8.36825e-07
3.61527e-07
7.02588e-07
5.70991e-07
5.09224e-07
4.42177e-07
9.32212e-07
5.57633e-08
5.06029e-07
5.07522e-07
5.08662e-07
5.09801e-07
5.10937e-07
5.12071e-07
5.13203e-07
5.14335e-07
5.15463e-07
5.16591e-07
5.17717e-07
5.1884e-07
5.19963e-07
5.21085e-07
5.22203e-07
5.23321e-07
5.24437e-07
5.25551e-07
5.26664e-07
5.27776e-07
5.28884e-07
5.29992e-07
5.31099e-07
5.32203e-07
5.33306e-07
5.34408e-07
5.35506e-07
5.36605e-07
5.37701e-07
5.38795e-07
5.39888e-07
5.4098e-07
5.42069e-07
5.43157e-07
5.44243e-07
5.45327e-07
5.46411e-07
5.47492e-07
5.48571e-07
5.49649e-07
5.50726e-07
5.5304e-07
8.3565e-07
8.21664e-07
8.94183e-07
6.21124e-07
7.10694e-07
6.8636e-07
9.31661e-07
1.45508e-07
5.06027e-07
5.07522e-07
5.08662e-07
5.098e-07
5.10937e-07
5.12071e-07
5.13203e-07
5.14335e-07
5.15463e-07
5.16591e-07
5.17717e-07
5.1884e-07
5.19963e-07
5.21085e-07
5.22203e-07
5.23321e-07
5.24437e-07
5.25551e-07
5.26664e-07
5.27776e-07
5.28884e-07
5.29992e-07
5.31099e-07
5.32203e-07
5.33306e-07
5.34408e-07
5.35506e-07
5.36605e-07
5.37701e-07
5.38795e-07
5.39888e-07
5.4098e-07
5.42069e-07
5.43157e-07
5.44243e-07
5.45327e-07
5.46411e-07
5.47492e-07
5.48571e-07
5.49649e-07
5.50726e-07
5.5304e-07
8.71849e-07
9.18845e-07
5.11964e-07
3.03274e-07
6.84729e-07
5.43051e-07
9.31906e-07
2.17956e-07
5.06028e-07
5.07522e-07
5.08662e-07
5.098e-07
5.10937e-07
5.12071e-07
5.13203e-07
5.14335e-07
5.15463e-07
5.16591e-07
5.17717e-07
5.1884e-07
5.19963e-07
5.21084e-07
5.22203e-07
5.23321e-07
5.24437e-07
5.25551e-07
5.26664e-07
5.27776e-07
5.28884e-07
5.29992e-07
5.31099e-07
5.32203e-07
5.33306e-07
5.34408e-07
5.35506e-07
5.36605e-07
5.37701e-07
5.38795e-07
5.39888e-07
5.4098e-07
5.42069e-07
5.43157e-07
5.44244e-07
5.45327e-07
5.46411e-07
5.47492e-07
5.48571e-07
5.49649e-07
5.50726e-07
5.5304e-07
9.11782e-07
8.56083e-07
7.08427e-07
6.98238e-07
8.55271e-07
6.45384e-07
9.31078e-07
1.06874e-07
5.06031e-07
5.07523e-07
5.08663e-07
5.09801e-07
5.10937e-07
5.12071e-07
5.13204e-07
5.14335e-07
5.15463e-07
5.16591e-07
5.17717e-07
5.1884e-07
5.19963e-07
5.21085e-07
5.22203e-07
5.23321e-07
5.24437e-07
5.25551e-07
5.26664e-07
5.27776e-07
5.28884e-07
5.29992e-07
5.31099e-07
5.32203e-07
5.33306e-07
5.34408e-07
5.35506e-07
5.36605e-07
5.37701e-07
5.38795e-07
5.39888e-07
5.4098e-07
5.42069e-07
5.43157e-07
5.44244e-07
5.45327e-07
5.46411e-07
5.47492e-07
5.48571e-07
5.49649e-07
5.50726e-07
5.5304e-07
9.25589e-07
7.26136e-07
3.91886e-07
6.10106e-07
7.75128e-07
7.26078e-07
9.32501e-07
5.26089e-08
5.06038e-07
5.07527e-07
5.08665e-07
5.09802e-07
5.10938e-07
5.12071e-07
5.13204e-07
5.14335e-07
5.15463e-07
5.16591e-07
5.17717e-07
5.1884e-07
5.19963e-07
5.21085e-07
5.22203e-07
5.23321e-07
5.24437e-07
5.25551e-07
5.26664e-07
5.27776e-07
5.28884e-07
5.29992e-07
5.31099e-07
5.32203e-07
5.33306e-07
5.34408e-07
5.35506e-07
5.36605e-07
5.37701e-07
5.38795e-07
5.39888e-07
5.4098e-07
5.42069e-07
5.43157e-07
5.44244e-07
5.45327e-07
5.46411e-07
5.47492e-07
5.48571e-07
5.49649e-07
5.50726e-07
5.5304e-07
8.46855e-07
6.53296e-07
5.6523e-07
9.02031e-07
4.44538e-07
6.78141e-07
7.7486e-07
1.83832e-07
5.06042e-07
5.07529e-07
5.08666e-07
5.09803e-07
5.10939e-07
5.12072e-07
5.13204e-07
5.14335e-07
5.15463e-07
5.16591e-07
5.17717e-07
5.1884e-07
5.19963e-07
5.21085e-07
5.22203e-07
5.23321e-07
5.24437e-07
5.25551e-07
5.26664e-07
5.27776e-07
5.28884e-07
5.29992e-07
5.31099e-07
5.32203e-07
5.33306e-07
5.34408e-07
5.35506e-07
5.36605e-07
5.37701e-07
5.38795e-07
5.39888e-07
5.4098e-07
5.42069e-07
5.43157e-07
5.44244e-07
5.45327e-07
5.46411e-07
5.47492e-07
5.48571e-07
5.49649e-07
5.50725e-07
5.5304e-07
9.01936e-07
4.80571e-07
5.40279e-07
2.40119e-07
8.4316e-07
7.52721e-07
3.56437e-07
1.83951e-07
5.06043e-07
5.0753e-07
5.08667e-07
5.09804e-07
5.10939e-07
5.12072e-07
5.13204e-07
5.14335e-07
5.15463e-07
5.16591e-07
5.17717e-07
5.1884e-07
5.19963e-07
5.21085e-07
5.22203e-07
5.23321e-07
5.24437e-07
5.25551e-07
5.26664e-07
5.27776e-07
5.28884e-07
5.29992e-07
5.31099e-07
5.32203e-07
5.33306e-07
5.34408e-07
5.35506e-07
5.36605e-07
5.37701e-07
5.38795e-07
5.39888e-07
5.4098e-07
5.42069e-07
5.43157e-07
5.44243e-07
5.45327e-07
5.46411e-07
5.47492e-07
5.48571e-07
5.49649e-07
5.50725e-07
5.5304e-07
9.55823e-07
8.35714e-07
8.82262e-07
9.0482e-07
8.7613e-07
7.08646e-07
1.27455e-07
3.92154e-07
3.93663e-07
3.94697e-07
3.95731e-07
3.96763e-07
3.97795e-07
3.98826e-07
3.99856e-07
4.00886e-07
4.01916e-07
4.02944e-07
4.03971e-07
4.04999e-07
4.06025e-07
4.0705e-07
4.08075e-07
4.09099e-07
4.10122e-07
4.11145e-07
4.12167e-07
4.13187e-07
4.14208e-07
4.15227e-07
4.16246e-07
4.17264e-07
4.18281e-07
4.19297e-07
4.20313e-07
4.21328e-07
4.22342e-07
4.23355e-07
4.24368e-07
4.25379e-07
4.2639e-07
4.274e-07
4.28409e-07
4.29418e-07
4.30425e-07
4.31431e-07
4.32438e-07
4.33442e-07
4.34446e-07
4.36222e-07
9.14067e-07
9.12068e-07
9.60675e-07
9.7328e-07
8.75294e-07
7.00427e-07
3.51688e-07
1.84071e-07
3.93453e-07
3.94696e-07
3.9573e-07
3.96763e-07
3.97794e-07
3.98826e-07
3.99856e-07
4.00886e-07
4.01915e-07
4.02944e-07
4.03971e-07
4.04999e-07
4.06025e-07
4.0705e-07
4.08075e-07
4.09099e-07
4.10122e-07
4.11145e-07
4.12167e-07
4.13187e-07
4.14208e-07
4.15227e-07
4.16246e-07
4.17264e-07
4.18281e-07
4.19297e-07
4.20313e-07
4.21328e-07
4.22342e-07
4.23355e-07
4.24368e-07
4.25379e-07
4.2639e-07
4.274e-07
4.28409e-07
4.29418e-07
4.30425e-07
4.31431e-07
4.32438e-07
4.33442e-07
4.34446e-07
4.36222e-07
8.55314e-07
7.39149e-07
9.25224e-07
9.11726e-07
7.68602e-07
6.98781e-07
7.77255e-07
1.83847e-07
3.93452e-07
3.94696e-07
3.9573e-07
3.96762e-07
3.97794e-07
3.98826e-07
3.99856e-07
4.00886e-07
4.01915e-07
4.02944e-07
4.03971e-07
4.04999e-07
4.06025e-07
4.0705e-07
4.08075e-07
4.09099e-07
4.10122e-07
4.11145e-07
4.12167e-07
4.13187e-07
4.14208e-07
4.15227e-07
4.16246e-07
4.17264e-07
4.18281e-07
4.19297e-07
4.20313e-07
4.21328e-07
4.22342e-07
4.23355e-07
4.24368e-07
4.25379e-07
4.2639e-07
4.274e-07
4.28409e-07
4.29418e-07
4.30425e-07
4.31431e-07
4.32438e-07
4.33442e-07
4.34446e-07
4.36222e-07
7.974e-07
3.69319e-07
5.32831e-07
8.68994e-07
9.03604e-07
6.32661e-07
9.32722e-07
5.57016e-08
3.9345e-07
3.94695e-07
3.95729e-07
3.96762e-07
3.97794e-07
3.98826e-07
3.99856e-07
4.00886e-07
4.01915e-07
4.02944e-07
4.03971e-07
4.04999e-07
4.06025e-07
4.0705e-07
4.08075e-07
4.09099e-07
4.10122e-07
4.11145e-07
4.12167e-07
4.13187e-07
4.14208e-07
4.15227e-07
4.16246e-07
4.17264e-07
4.18281e-07
4.19297e-07
4.20313e-07
4.21328e-07
4.22342e-07
4.23355e-07
4.24368e-07
4.25379e-07
4.2639e-07
4.274e-07
4.28409e-07
4.29418e-07
4.30425e-07
4.31431e-07
4.32438e-07
4.33442e-07
4.34446e-07
4.36222e-07
4.97009e-07
8.1145e-07
5.93187e-07
2.65534e-07
6.21322e-07
6.61052e-07
9.31356e-07
1.45397e-07
3.9345e-07
3.94695e-07
3.95729e-07
3.96762e-07
3.97794e-07
3.98826e-07
3.99856e-07
4.00886e-07
4.01915e-07
4.02944e-07
4.03971e-07
4.04998e-07
4.06025e-07
4.0705e-07
4.08075e-07
4.09099e-07
4.10122e-07
4.11145e-07
4.12167e-07
4.13187e-07
4.14208e-07
4.15227e-07
4.16246e-07
4.17264e-07
4.18281e-07
4.19297e-07
4.20313e-07
4.21328e-07
4.22342e-07
4.23355e-07
4.24368e-07
4.25379e-07
4.2639e-07
4.274e-07
4.28409e-07
4.29418e-07
4.30425e-07
4.31431e-07
4.32437e-07
4.33442e-07
4.34446e-07
4.36222e-07
9.23088e-07
8.97837e-07
8.38487e-07
7.2773e-07
2.90919e-07
6.78798e-07
9.31861e-07
2.17835e-07
3.9345e-07
3.94695e-07
3.95729e-07
3.96762e-07
3.97794e-07
3.98826e-07
3.99856e-07
4.00886e-07
4.01915e-07
4.02944e-07
4.03971e-07
4.04998e-07
4.06025e-07
4.0705e-07
4.08075e-07
4.09099e-07
4.10122e-07
4.11145e-07
4.12167e-07
4.13187e-07
4.14208e-07
4.15227e-07
4.16246e-07
4.17264e-07
4.18281e-07
4.19297e-07
4.20313e-07
4.21328e-07
4.22342e-07
4.23355e-07
4.24368e-07
4.25379e-07
4.2639e-07
4.274e-07
4.28409e-07
4.29418e-07
4.30425e-07
4.31431e-07
4.32437e-07
4.33442e-07
4.34446e-07
4.36222e-07
9.31698e-07
7.96284e-07
5.45749e-07
8.55704e-07
3.82631e-07
7.36791e-07
9.31195e-07
1.0684e-07
3.93451e-07
3.94695e-07
3.95729e-07
3.96762e-07
3.97794e-07
3.98826e-07
3.99856e-07
4.00886e-07
4.01915e-07
4.02944e-07
4.03971e-07
4.04999e-07
4.06025e-07
4.0705e-07
4.08075e-07
4.09099e-07
4.10122e-07
4.11145e-07
4.12167e-07
4.13187e-07
4.14208e-07
4.15227e-07
4.16246e-07
4.17264e-07
4.18281e-07
4.19297e-07
4.20313e-07
4.21328e-07
4.22342e-07
4.23355e-07
4.24368e-07
4.25379e-07
4.2639e-07
4.274e-07
4.28409e-07
4.29418e-07
4.30425e-07
4.31431e-07
4.32438e-07
4.33442e-07
4.34446e-07
4.36222e-07
8.48322e-07
8.42192e-07
9.13346e-07
8.27196e-07
8.86388e-07
7.59248e-07
9.32755e-07
5.25614e-08
3.93454e-07
3.94697e-07
3.9573e-07
3.96763e-07
3.97794e-07
3.98826e-07
3.99856e-07
4.00886e-07
4.01915e-07
4.02944e-07
4.03971e-07
4.04999e-07
4.06025e-07
4.0705e-07
4.08075e-07
4.09099e-07
4.10122e-07
4.11145e-07
4.12167e-07
4.13187e-07
4.14208e-07
4.15227e-07
4.16246e-07
4.17264e-07
4.18281e-07
4.19297e-07
4.20313e-07
4.21328e-07
4.22342e-07
4.23355e-07
4.24368e-07
4.25379e-07
4.2639e-07
4.274e-07
4.28409e-07
4.29418e-07
4.30425e-07
4.31431e-07
4.32438e-07
4.33442e-07
4.34446e-07
4.36222e-07
8.04054e-07
5.07531e-07
5.00391e-07
9.2083e-07
5.69476e-07
6.26928e-07
7.74827e-07
1.83836e-07
3.93455e-07
3.94697e-07
3.95731e-07
3.96763e-07
3.97795e-07
3.98826e-07
3.99856e-07
4.00886e-07
4.01916e-07
4.02944e-07
4.03971e-07
4.04999e-07
4.06025e-07
4.0705e-07
4.08075e-07
4.09099e-07
4.10122e-07
4.11145e-07
4.12167e-07
4.13187e-07
4.14208e-07
4.15227e-07
4.16246e-07
4.17264e-07
4.18281e-07
4.19297e-07
4.20313e-07
4.21328e-07
4.22342e-07
4.23355e-07
4.24368e-07
4.25379e-07
4.2639e-07
4.274e-07
4.28409e-07
4.29418e-07
4.30425e-07
4.31431e-07
4.32438e-07
4.33442e-07
4.34446e-07
4.36222e-07
9.51376e-07
6.85556e-07
5.14008e-07
4.1651e-07
6.52753e-07
7.38348e-07
3.57822e-07
1.83955e-07
3.93455e-07
3.94698e-07
3.95731e-07
3.96763e-07
3.97795e-07
3.98826e-07
3.99856e-07
4.00886e-07
4.01916e-07
4.02944e-07
4.03971e-07
4.04999e-07
4.06025e-07
4.0705e-07
4.08075e-07
4.09099e-07
4.10122e-07
4.11145e-07
4.12167e-07
4.13187e-07
4.14208e-07
4.15227e-07
4.16246e-07
4.17264e-07
4.18281e-07
4.19297e-07
4.20313e-07
4.21328e-07
4.22342e-07
4.23355e-07
4.24368e-07
4.25379e-07
4.2639e-07
4.274e-07
4.28409e-07
4.29418e-07
4.30425e-07
4.31431e-07
4.32438e-07
4.33442e-07
4.34446e-07
4.36222e-07
6.95728e-07
6.85068e-07
6.97115e-07
7.1204e-07
7.70707e-07
7.36762e-07
7.71134e-07
6.98635e-07
6.77795e-07
7.00899e-07
7.12324e-07
7.73978e-07
7.11024e-07
7.76488e-07
7.00542e-07
6.60778e-07
7.00403e-07
6.92715e-07
7.76769e-07
6.17756e-07
7.76619e-07
7.00216e-07
6.73293e-07
6.99703e-07
4.87317e-07
7.74565e-07
6.73917e-07
7.7184e-07
6.97852e-07
4.82603e-07
7.00424e-07
6.98011e-07
7.71783e-07
5.05326e-07
7.76895e-07
7.00288e-07
6.81213e-07
6.99262e-07
4.86813e-07
7.76396e-07
6.80801e-07
7.72387e-07
6.98374e-07
6.76539e-07
7.00605e-07
6.99157e-07
7.66918e-07
6.72442e-07
7.74545e-07
6.99946e-07
6.36889e-07
7.00711e-07
7.3117e-07
7.76652e-07
5.80474e-07
7.76096e-07
7.00408e-07
6.82914e-07
7.00236e-07
6.8078e-07
7.75356e-07
7.43818e-07
7.75549e-07
6.99507e-07
6.77521e-07
6.96305e-07
7.64744e-07
7.7303e-07
6.38916e-07
7.7066e-07
7.70064e-07
7.33392e-07
7.7107e-07
7.26083e-07
7.69944e-07
7.08985e-07
7.71229e-07
7.737e-07
6.7344e-07
7.76298e-07
6.6186e-07
7.73789e-07
6.06912e-07
7.75565e-07
7.77179e-07
5.1166e-07
7.76209e-07
6.89031e-07
7.76571e-07
4.68291e-07
7.75425e-07
7.75041e-07
6.83757e-07
7.68835e-07
6.04814e-07
7.76416e-07
7.32747e-07
7.72839e-07
7.73654e-07
5.38255e-07
7.75587e-07
6.60523e-07
7.73564e-07
5.55222e-07
7.77434e-07
7.76476e-07
6.68527e-07
7.70953e-07
7.01001e-07
7.76021e-07
6.78371e-07
7.74454e-07
7.68735e-07
6.82291e-07
7.7495e-07
6.41985e-07
7.68241e-07
6.89694e-07
7.74295e-07
7.7552e-07
5.69261e-07
7.75712e-07
7.56914e-07
7.77289e-07
6.11788e-07
7.76378e-07
7.75155e-07
7.54358e-07
7.74682e-07
5.87534e-07
7.74891e-07
7.55055e-07
7.7525e-07
7.72487e-07
6.47144e-07
7.70756e-07
7.37784e-07
7.73162e-07
6.4553e-07
7.70941e-07
7.69942e-07
7.01021e-07
7.71314e-07
6.76661e-07
6.95772e-07
6.90717e-07
6.97169e-07
7.7399e-07
6.37311e-07
7.75926e-07
6.88937e-07
6.98595e-07
6.61896e-07
7.00946e-07
7.76451e-07
4.89653e-07
7.75314e-07
6.59994e-07
7.00697e-07
5.35625e-07
7.00362e-07
7.74438e-07
7.22349e-07
7.7271e-07
4.28293e-07
6.98904e-07
6.36415e-07
6.99808e-07
7.73528e-07
5.83142e-07
7.76756e-07
6.76353e-07
6.99311e-07
3.66992e-07
7.00128e-07
7.76477e-07
6.78618e-07
7.74092e-07
6.19506e-07
7.00636e-07
6.62121e-07
6.99356e-07
7.65441e-07
7.08454e-07
7.72436e-07
6.87279e-07
6.97975e-07
6.75332e-07
6.98659e-07
7.77564e-07
6.41641e-07
7.76867e-07
6.81963e-07
7.00209e-07
6.27887e-07
7.00662e-07
7.75024e-07
7.35565e-07
7.75263e-07
6.67927e-07
7.00498e-07
6.89546e-07
7.00852e-07
7.73556e-07
6.48628e-07
7.71193e-07
6.88616e-07
6.99493e-07
6.53414e-07
6.96143e-07
8.88562e-07
8.78665e-07
8.72943e-07
8.22727e-07
8.92908e-07
8.97969e-07
9.20438e-07
7.6559e-07
6.97499e-07
6.82447e-07
7.32123e-07
7.48774e-07
6.95455e-07
7.71606e-07
1.29573e-07
1.54647e-07
1.29525e-07
1.27217e-07
1.83849e-07
2.17076e-07
1.83752e-07
8.87048e-07
7.66367e-07
6.37517e-07
9.09204e-07
9.02206e-07
8.67141e-07
7.84582e-07
7.29989e-07
6.92284e-07
6.3769e-07
7.66748e-07
7.62139e-07
6.47631e-07
6.81978e-07
3.52933e-08
6.99335e-07
3.51674e-08
3.50506e-07
5.20164e-08
7.74787e-07
5.19916e-08
5.61627e-07
6.62251e-07
4.97732e-07
4.87746e-07
6.92985e-07
6.59471e-07
6.20054e-07
7.73378e-07
6.98545e-07
6.76576e-07
7.70625e-07
7.6624e-07
7.37969e-07
6.9717e-07
3.53055e-08
6.9875e-07
6.70444e-08
7.77374e-07
5.20681e-08
7.7687e-07
9.74236e-08
4.25896e-07
8.67851e-07
8.89911e-07
3.84835e-07
4.67539e-07
7.81596e-07
8.22295e-07
6.70705e-07
5.47994e-07
4.22187e-07
5.01534e-07
6.60373e-07
3.96098e-07
5.61814e-07
1.23917e-07
9.01998e-07
6.95077e-07
9.3228e-07
1.7493e-07
9.31319e-07
7.69453e-07
6.34604e-07
6.55239e-07
1.26131e-07
5.56445e-07
4.44459e-07
4.20256e-07
1.7709e-07
7.45438e-07
6.96814e-07
5.73848e-07
6.95127e-07
7.65548e-07
6.24443e-07
6.6617e-07
6.96835e-07
9.02597e-07
6.99142e-07
9.32563e-07
7.72165e-07
9.3173e-07
7.74072e-07
2.38817e-07
8.8164e-07
7.72658e-07
5.64538e-07
2.28484e-07
8.83048e-07
8.77537e-07
7.57324e-07
6.87199e-07
6.52355e-07
5.15784e-07
7.57417e-07
7.29947e-07
6.93381e-07
6.98784e-07
9.02062e-07
6.96755e-07
9.32146e-07
7.73974e-07
9.31791e-07
7.71616e-07
6.43559e-07
8.58488e-07
8.51857e-07
8.12467e-07
7.49721e-07
9.15966e-07
8.98763e-07
7.65561e-07
6.97082e-07
6.8051e-07
7.27613e-07
7.70275e-07
7.24875e-07
6.93612e-07
6.94725e-07
9.02663e-07
1.32296e-07
9.30352e-07
7.69119e-07
9.31818e-07
1.85265e-07
8.74618e-07
7.3074e-07
6.64368e-07
5.49998e-07
9.07879e-07
7.31116e-07
3.21928e-07
7.59384e-07
6.97522e-07
6.99559e-07
7.15587e-07
7.70612e-07
7.13929e-07
6.94155e-07
7.38212e-08
6.99794e-07
3.54057e-08
9.32348e-07
1.0686e-07
7.76147e-07
5.27439e-08
5.91422e-07
7.84164e-07
8.51569e-07
7.1823e-07
2.0041e-07
8.79605e-07
8.97049e-07
7.10298e-07
6.94886e-07
4.70164e-07
6.82043e-07
7.60489e-07
4.30575e-07
5.99998e-07
3.52197e-08
6.45361e-07
3.52096e-08
7.74782e-07
5.20037e-08
6.78859e-07
5.19794e-08
8.7131e-07
8.6284e-07
8.94461e-07
8.19172e-07
8.3612e-07
8.7421e-07
9.17099e-07
7.69395e-07
6.9794e-07
6.51161e-07
7.28233e-07
7.7327e-07
6.50695e-07
6.98424e-07
3.52761e-08
9.71935e-08
1.29428e-07
3.56815e-07
5.19794e-08
1.3876e-07
1.83556e-07
9.20451e-07
9.16071e-07
8.92705e-07
8.65618e-07
9.22392e-07
8.85333e-07
9.14737e-07
7.31224e-07
7.64151e-07
7.10895e-07
7.10716e-07
7.37196e-07
7.08736e-07
7.64236e-07
1.83845e-07
2.17264e-07
1.83748e-07
1.29077e-07
1.83845e-07
2.19184e-07
1.83748e-07
8.80309e-07
8.29087e-07
8.50523e-07
8.95815e-07
9.23487e-07
7.81931e-07
8.319e-07
6.65194e-07
7.68647e-07
5.45877e-07
6.75848e-07
6.59964e-07
7.63234e-07
5.62571e-07
5.20159e-08
7.74874e-07
5.19912e-08
3.51243e-07
5.2016e-08
7.75034e-07
5.19912e-08
7.04138e-07
6.74169e-07
4.53267e-07
7.68119e-07
8.25035e-07
7.55723e-07
7.28002e-07
7.63773e-07
7.52353e-07
7.64255e-07
6.49694e-07
7.70292e-07
7.56505e-07
7.11995e-07
5.20739e-08
7.76799e-07
9.74523e-08
7.77108e-07
5.20736e-08
7.76868e-07
9.74439e-08
7.19815e-07
8.96564e-07
8.79689e-07
8.62037e-07
8.6032e-07
8.26398e-07
8.31847e-07
6.8023e-07
6.94611e-07
2.31455e-07
4.03166e-07
7.17593e-07
6.94412e-07
2.6358e-07
1.7494e-07
9.31728e-07
7.69297e-07
9.32602e-07
1.74854e-07
9.31546e-07
7.69088e-07
6.75556e-07
6.83666e-07
1.90314e-07
7.71731e-07
3.07207e-07
4.8264e-07
4.1092e-07
7.34275e-07
7.42441e-07
5.88251e-07
7.09993e-07
7.32073e-07
7.39207e-07
4.96401e-07
7.71894e-07
9.3164e-07
7.73879e-07
9.32016e-07
7.71744e-07
9.31636e-07
7.74097e-07
2.24395e-07
8.20693e-07
7.05589e-07
4.10661e-07
5.55302e-07
7.65469e-07
1.92588e-07
7.30583e-07
7.71842e-07
7.13073e-07
6.34867e-07
7.35173e-07
7.71871e-07
7.18518e-07
7.73572e-07
9.31411e-07
7.71381e-07
9.3165e-07
7.73949e-07
9.31324e-07
7.71485e-07
7.6086e-07
9.25952e-07
7.91962e-07
6.74123e-07
3.04699e-07
8.87656e-07
8.77836e-07
7.63972e-07
7.61324e-07
5.87773e-07
5.15434e-07
7.64942e-07
7.55206e-07
5.19429e-07
7.68923e-07
9.3169e-07
1.8537e-07
9.31661e-07
7.686e-07
9.31754e-07
1.85295e-07
8.37387e-07
4.01557e-07
2.83072e-07
8.9644e-07
8.9889e-07
7.31944e-07
2.31669e-07
7.53517e-07
7.64646e-07
5.68205e-07
7.20013e-07
7.54728e-07
7.60137e-07
5.34378e-07
1.06864e-07
7.75955e-07
5.27929e-08
9.32683e-07
1.06866e-07
7.76177e-07
5.27921e-08
2.04343e-07
7.90076e-07
8.32604e-07
6.09386e-07
1.93855e-07
8.72212e-07
8.71998e-07
4.76923e-07
7.34967e-07
4.03435e-07
6.49993e-07
4.96726e-07
7.18991e-07
4.20329e-07
5.20035e-08
6.70453e-07
5.1979e-08
7.74454e-07
5.20035e-08
6.65903e-07
5.1979e-08
8.5942e-07
8.44755e-07
8.67726e-07
7.63015e-07
8.36459e-07
5.95459e-07
7.47384e-07
7.63505e-07
7.70118e-07
7.44028e-07
7.33404e-07
7.69188e-07
7.7155e-07
7.57813e-07
5.19789e-08
1.40957e-07
1.83553e-07
3.57274e-07
5.19789e-08
1.38973e-07
1.83554e-07
8.91236e-07
9.22813e-07
8.91361e-07
8.57869e-07
8.67182e-07
8.7553e-07
8.62612e-07
7.3869e-07
7.67432e-07
6.98731e-07
7.25612e-07
7.32372e-07
6.63388e-07
7.70084e-07
1.83848e-07
2.19838e-07
1.83751e-07
8.88314e-08
1.29573e-07
1.54879e-07
1.29525e-07
9.20428e-07
9.01363e-07
8.91067e-07
8.84423e-07
8.74566e-07
8.29486e-07
7.93935e-07
6.98396e-07
7.70305e-07
6.24351e-07
6.71574e-07
6.78213e-07
7.70379e-07
6.51258e-07
5.20164e-08
7.74745e-07
5.19916e-08
2.69238e-07
3.52722e-08
6.9925e-07
3.51675e-08
7.80893e-07
8.61888e-07
7.12332e-07
7.44034e-07
8.04733e-07
7.96146e-07
6.30741e-07
7.61854e-07
7.69108e-07
6.18926e-07
7.03396e-07
7.63323e-07
7.67489e-07
5.99336e-07
5.20675e-08
7.77061e-07
9.74077e-08
7.00559e-07
3.52075e-08
6.98695e-07
6.70232e-08
7.54178e-07
8.79625e-07
8.46586e-07
8.63458e-07
5.68643e-07
8.57612e-07
7.73939e-07
7.00273e-07
6.87288e-07
5.30844e-07
5.02966e-07
6.89361e-07
7.14121e-07
5.23127e-07
1.74867e-07
9.3169e-07
7.68995e-07
9.03107e-07
1.23753e-07
9.02426e-07
6.95064e-07
2.99766e-07
5.99232e-07
5.78543e-07
8.32994e-07
7.24667e-07
8.40639e-07
6.37156e-07
7.69243e-07
7.46949e-07
5.90937e-07
7.28465e-07
7.64478e-07
7.59387e-07
6.42971e-07
7.72034e-07
9.31778e-07
7.74154e-07
9.0272e-07
6.96951e-07
9.02682e-07
6.99131e-07
6.53157e-07
5.98703e-07
2.3204e-07
6.07804e-07
7.71529e-07
6.89393e-07
6.14478e-07
7.58339e-07
7.74298e-07
6.75412e-07
6.74976e-07
7.46469e-07
7.73737e-07
6.5685e-07
7.7395e-07
9.31463e-07
7.71748e-07
9.02632e-07
6.98831e-07
9.02132e-07
6.96699e-07
4.15798e-07
7.5223e-07
8.62844e-07
4.12084e-07
4.87088e-07
6.93375e-07
8.89222e-07
7.49438e-07
7.5651e-07
6.45015e-07
7.31324e-07
7.49442e-07
7.59883e-07
7.16336e-07
7.68583e-07
9.3218e-07
1.85287e-07
9.01726e-07
6.9486e-07
9.02658e-07
1.32209e-07
8.77481e-07
5.28463e-07
2.76403e-07
8.84243e-07
8.43799e-07
6.67142e-07
3.19869e-07
7.60211e-07
7.6404e-07
6.02733e-07
7.43311e-07
7.64415e-07
7.64961e-07
6.03796e-07
1.06853e-07
7.76298e-07
5.27434e-08
9.03206e-07
7.37422e-08
6.98677e-07
3.54047e-08
1.87327e-07
8.32287e-07
8.75954e-07
7.41797e-07
1.26526e-07
9.02301e-07
8.38303e-07
5.783e-07
7.46605e-07
3.10052e-07
6.92273e-07
5.53999e-07
7.56247e-07
3.13232e-07
5.20037e-08
6.7276e-07
5.19794e-08
7.00405e-07
3.51523e-08
6.25584e-07
3.52106e-08
5.24625e-07
3.00865e-07
5.4732e-07
6.59674e-07
5.85008e-07
4.76373e-07
6.91769e-07
7.61581e-07
7.67425e-07
7.19561e-07
7.30232e-07
7.67431e-07
7.66252e-07
7.14287e-07
5.19793e-08
1.3885e-07
1.83556e-07
2.72035e-07
3.52762e-08
9.72371e-08
1.29428e-07
7.73769e-07
7.00347e-07
6.96123e-07
7.71334e-07
7.71321e-07
6.99374e-07
7.76462e-07
7.65447e-07
6.72618e-07
6.95664e-07
7.67521e-07
6.92836e-07
7.65938e-07
6.90307e-07
7.71081e-07
6.96121e-07
6.97622e-07
7.71775e-07
7.70924e-07
7.72796e-07
6.97188e-07
7.55316e-07
7.29583e-07
7.68382e-07
7.42189e-07
7.36442e-07
7.45656e-07
7.70691e-07
7.71612e-07
7.71336e-07
7.75731e-07
7.71015e-07
7.71157e-07
7.69604e-07
7.76054e-07
7.63616e-07
7.53238e-07
6.52257e-07
7.70785e-07
6.52863e-07
7.63086e-07
7.64731e-07
7.7073e-07
7.71295e-07
7.69944e-07
7.71144e-07
7.7044e-07
7.72029e-07
7.70069e-07
7.74628e-07
6.98491e-07
6.99806e-07
7.73978e-07
7.74078e-07
7.753e-07
7.00531e-07
7.55097e-07
6.97614e-07
6.93304e-07
6.97744e-07
7.01549e-07
7.66901e-07
6.9019e-07
7.72834e-07
7.00188e-07
6.99527e-07
7.77375e-07
7.76034e-07
7.7489e-07
6.98242e-07
7.09164e-07
7.6347e-07
7.68678e-07
6.09049e-07
7.63293e-07
6.24508e-07
6.88507e-07
7.75878e-07
7.7395e-07
7.729e-07
7.73848e-07
7.73499e-07
7.74433e-07
7.75579e-07
7.51202e-07
6.62916e-07
6.04394e-07
7.68685e-07
6.44057e-07
7.67667e-07
7.44256e-07
7.69354e-07
7.77079e-07
7.75601e-07
7.74347e-07
7.75513e-07
7.74202e-07
7.70976e-07
7.72863e-07
7.00405e-07
7.00629e-07
7.76887e-07
7.74688e-07
7.77014e-07
6.99008e-07
7.20333e-07
6.67847e-07
6.94007e-07
7.16416e-07