/*--------------------------------*- C++ -*----------------------------------*\
| =========                 |                                                 |
| \\      /  F ield         | OpenFOAM: The Open Source CFD Toolbox           |
|  \\    /   O peration     | Version:  5.0                                   |
|   \\  /    A nd           | Web:      www.OpenFOAM.org                      |
|    \\/     M anipulation  |                                                 |
\*---------------------------------------------------------------------------*/
FoamFile
{
    version     2.0;
    format      ascii;
    class       volVectorField;
    location    "4.4";
    object      U;
}
// * * * * * * * * * * * * * * * * * * * * * * * * * * * * * * * * * * * * * //

dimensions      [0 1 -1 0 0 0 0];

internalField   nonuniform List<vector> 
8703
(
(-0.000599921 0.00409248 0.000148645)
(-0.0025774 -0.00630991 -3.93133e-05)
(0.0021315 0.0106265 0.000574888)
(-0.000400421 0.00770406 0.000567301)
(0.00297476 -0.00998041 -0.000556682)
(0.0014155 -0.00135421 9.42145e-05)
(0.000746405 -4.32249e-05 -2.90509e-06)
(0.000801654 -5.49281e-05 -2.84538e-06)
(0.000818821 -2.97159e-05 8.53022e-08)
(0.000808313 -2.01183e-05 -3.23364e-08)
(0.000812964 -1.2149e-05 1.07366e-07)
(0.000813432 -7.7211e-06 4.75594e-08)
(0.000814822 -4.79992e-06 1.87476e-09)
(0.000814544 -2.67986e-06 6.75656e-08)
(0.000813621 -1.71715e-06 4.78355e-08)
(0.000812719 -1.2402e-06 4.58516e-08)
(0.000811574 -7.73629e-07 5.23636e-08)
(0.000810454 -4.76158e-07 -5.38207e-09)
(0.000808787 -1.6099e-07 4.36699e-08)
(0.000807392 -4.14165e-07 8.58599e-08)
(0.000806296 -3.1302e-07 6.5459e-08)
(0.000804753 -1.23973e-07 3.36487e-08)
(0.000803082 -8.99455e-08 5.125e-09)
(0.000801561 3.02743e-08 4.33004e-08)
(0.000800211 6.9579e-08 3.34254e-08)
(0.000798612 5.35501e-08 3.80015e-08)
(0.000796954 3.93078e-08 5.40637e-08)
(0.000795649 8.70973e-08 4.79989e-08)
(0.000794027 4.433e-07 9.47847e-08)
(0.000792418 -8.22419e-08 7.82532e-08)
(0.000790886 -3.93244e-07 7.82827e-08)
(0.000789231 -4.70929e-07 -2.28574e-08)
(0.000787783 -3.56855e-07 6.01567e-08)
(0.000786731 8.6452e-08 8.36464e-08)
(0.000785704 1.36738e-07 5.15379e-08)
(0.000783793 2.91077e-07 2.11525e-08)
(0.000781831 4.42827e-08 1.24674e-07)
(0.000780136 2.53958e-07 3.15685e-08)
(0.000779358 6.46664e-07 9.32807e-08)
(0.000778425 2.39125e-07 1.08655e-07)
(0.000776579 3.03756e-08 3.2257e-08)
(0.000775007 -1.0525e-08 7.74808e-08)
(0.000774059 -3.00457e-07 1.8976e-08)
(0.000772407 -3.82714e-07 1.13136e-08)
(0.00077055 -1.53485e-07 3.93368e-08)
(0.000769378 -5.07853e-09 5.09134e-08)
(0.000768033 -9.16128e-08 5.55243e-08)
(0.000766747 -1.76357e-07 4.12184e-08)
(0.00076511 -3.72248e-07 5.04411e-08)
(0.000763509 -3.66579e-07 1.09783e-08)
(-0.00204254 0.00794565 0.00091804)
(-0.000601952 0.0102607 -0.000853301)
(0.00201252 0.000722493 -5.76523e-05)
(0.0016638 0.00115707 -7.81344e-05)
(-0.00574619 -0.00184067 -0.000322443)
(-0.000714862 -0.00185489 -4.57835e-06)
(0.00136371 0.000245109 2.68193e-06)
(0.000458789 -3.08389e-05 -1.30176e-06)
(0.000870009 -2.56712e-05 -1.10527e-06)
(0.000806603 -2.33491e-05 -4.55544e-07)
(0.000820705 -1.48482e-05 1.7122e-07)
(0.00081799 -9.69772e-06 4.02405e-08)
(0.000817706 -6.22884e-06 5.98673e-08)
(0.000816442 -4.24829e-06 4.77826e-08)
(0.00081497 -2.67671e-06 5.09993e-08)
(0.000813713 -1.77647e-06 1.06001e-07)
(0.000812388 -1.10576e-06 5.23575e-08)
(0.000810994 -7.65832e-07 -1.12231e-08)
(0.000809235 -5.71868e-07 6.89463e-08)
(0.000807442 -1.8169e-07 2.72523e-08)
(0.000806194 -9.33801e-08 1.12984e-07)
(0.000804675 -1.65935e-07 6.13119e-08)
(0.000803179 6.96023e-10 3.43871e-08)
(0.00080168 -5.42347e-08 5.10517e-08)
(0.000800031 -4.4559e-08 5.73635e-08)
(0.000798511 -2.71418e-07 6.51118e-08)
(0.000797115 -2.50776e-07 1.56713e-07)
(0.000795965 -3.39023e-07 4.74013e-08)
(0.000793902 -8.94268e-07 1.74703e-07)
(0.00079177 -5.35412e-07 3.9074e-08)
(0.000790738 -3.3238e-07 -1.16836e-07)
(0.00078946 -1.13917e-07 2.4931e-08)
(0.000788369 4.20699e-07 1.23795e-07)
(0.000787041 5.46667e-07 9.39755e-08)
(0.000785264 2.16826e-07 4.36443e-08)
(0.000783789 -2.37005e-08 2.9916e-08)
(0.000782459 1.33374e-07 3.74208e-08)
(0.000781289 3.82884e-07 6.19676e-10)
(0.000779305 7.80027e-07 -1.78114e-09)
(0.000777324 4.21196e-07 1.53013e-07)
(0.000776144 1.75924e-07 6.04203e-08)
(0.000774714 -4.70566e-08 6.81029e-08)
(0.000773251 -3.04354e-07 2.63903e-08)
(0.000772428 -6.11096e-07 5.98462e-08)
(0.000771211 -1.97716e-07 6.80898e-08)
(0.000769386 -9.04375e-08 6.73828e-08)
(0.000767957 4.50534e-08 3.24692e-08)
(0.000766615 -6.44626e-08 5.38533e-08)
(0.000765128 -2.14535e-07 -8.50603e-08)
(0.000764039 -2.21102e-07 1.10422e-07)
(-0.00990236 0.000731539 0.00106446)
(0.0218716 0.00310263 -0.00070346)
(-0.0108068 0.00332905 0.000441426)
(-0.00659176 -0.00491529 0.000232262)
(-0.0135191 0.000684149 -6.11151e-05)
(-0.00894651 -0.000940627 -7.35388e-05)
(0.000488714 -0.000588017 3.78066e-05)
(0.000482677 -4.57167e-05 6.65272e-08)
(0.000886108 -4.54069e-05 -2.05523e-06)
(0.000822146 -2.52603e-05 -3.88531e-07)
(0.000830179 -1.60651e-05 1.60221e-07)
(0.000824304 -9.74958e-06 3.60184e-08)
(0.000821698 -6.13839e-06 5.31675e-08)
(0.000819026 -3.85898e-06 5.10677e-08)
(0.000816739 -2.39254e-06 5.09538e-08)
(0.0008147 -1.40782e-06 -1.25214e-07)
(0.00081285 -9.93736e-07 5.35911e-08)
(0.00081113 -6.52766e-07 3.2539e-08)
(0.000809523 -8.70119e-07 1.2272e-07)
(0.000807993 -4.31441e-07 4.01909e-08)
(0.000806316 -3.02164e-07 5.68592e-08)
(0.00080487 -2.04052e-07 4.62311e-08)
(0.000803221 -2.14174e-07 7.92111e-08)
(0.000801504 -1.75278e-07 4.55943e-08)
(0.00079994 -1.92544e-07 6.67205e-08)
(0.000798355 -8.57459e-08 3.15446e-08)
(0.000796872 -1.28707e-07 4.36512e-08)
(0.000794849 -1.66565e-07 5.65385e-08)
(0.000793787 -4.54509e-07 -6.75919e-08)
(0.000793126 2.14427e-07 1.24271e-08)
(0.000791417 3.92448e-07 1.50954e-07)
(0.000790172 4.79678e-07 5.42413e-08)
(0.000788607 4.18275e-07 1.71063e-09)
(0.000786472 1.58351e-07 4.86062e-09)
(0.000784988 3.69851e-08 8.75797e-08)
(0.000783688 6.44482e-08 4.96387e-08)
(0.000782338 4.56228e-08 8.39471e-08)
(0.00078094 -6.03901e-08 5.47487e-08)
(0.000779401 -2.73039e-07 2.20089e-08)
(0.000777666 -1.33157e-07 8.06721e-08)
(0.000775992 1.66443e-08 6.057e-08)
(0.000774407 2.28633e-07 7.74008e-08)
(0.000773357 6.01506e-07 1.26368e-07)
(0.000772544 5.85731e-07 1.04714e-07)
(0.000771205 2.45701e-07 5.66705e-08)
(0.000769683 1.88666e-07 1.07872e-07)
(0.000768067 3.13623e-07 4.36703e-08)
(0.000766424 3.95268e-07 7.39606e-08)
(0.000764921 1.77286e-07 -4.50507e-08)
(0.00076405 1.35706e-07 1.25785e-07)
(0.00819983 -0.00197711 0.00212231)
(-0.0062797 -0.0104132 0.00385792)
(-0.0123569 0.000252729 -0.000901697)
(0.00293196 -0.00670367 -8.05696e-05)
(0.000587393 -0.00201452 0.000474203)
(0.01053 -0.00315669 5.84198e-05)
(0.00161084 -0.000588367 7.73091e-06)
(0.000479394 -0.000144484 3.93757e-05)
(0.000910311 -3.76157e-05 -2.08712e-06)
(0.000843819 -1.28456e-05 -3.24568e-07)
(0.000840288 -9.59e-06 9.21068e-08)
(0.000830522 -5.53442e-06 3.19032e-09)
(0.000825146 -3.59662e-06 4.49162e-08)
(0.000821172 -2.1179e-06 4.55494e-08)
(0.000818064 -1.08781e-06 4.63758e-08)
(0.000815481 -5.86594e-07 4.61964e-08)
(0.000813344 -3.86059e-07 5.13197e-08)
(0.000811158 -2.52174e-07 8.54368e-08)
(0.000809519 -2.12325e-07 4.30815e-08)
(0.000808157 -4.36341e-07 3.34615e-08)
(0.000806482 -2.45977e-07 5.65638e-08)
(0.000804788 -2.05454e-07 5.22674e-08)
(0.000803217 -2.84801e-07 7.83566e-09)
(0.000801708 -1.02547e-07 6.6766e-08)
(0.000800144 -7.99159e-08 1.46629e-08)
(0.000798592 1.43732e-07 3.12414e-08)
(0.000797015 2.65659e-07 6.1408e-08)
(0.00079556 4.58426e-07 5.38507e-08)
(0.000794378 9.80359e-07 4.23384e-08)
(0.000792827 5.20685e-07 5.56916e-08)
(0.000791065 3.8801e-07 6.752e-08)
(0.000789487 5.16386e-07 -5.80248e-09)
(0.000787963 -1.98881e-08 4.34348e-08)
(0.000786563 -9.69398e-08 4.60417e-08)
(0.000785146 9.05172e-09 -7.79048e-10)
(0.0007838 1.33897e-09 1.80575e-07)
(0.000782303 -5.10185e-08 4.98965e-08)
(0.000780891 -1.6851e-07 4.72172e-08)
(0.000779215 -3.32894e-07 1.6196e-08)
(0.000777687 -3.52449e-07 -8.34529e-09)
(0.000776596 -4.17834e-08 3.0193e-08)
(0.000775443 1.7888e-07 3.7357e-08)
(0.000773694 5.75905e-07 1.0593e-07)
(0.000771978 4.62171e-07 -3.73284e-08)
(0.000770711 1.5418e-07 2.77452e-08)
(0.000769467 9.87777e-08 4.60625e-08)
(0.000768212 1.42726e-07 8.02487e-08)
(0.000766442 3.25915e-07 3.93965e-08)
(0.0007648 2.41317e-07 4.37804e-08)
(0.000763647 2.89807e-07 1.50128e-07)
(-0.0015411 0.0040237 -0.000522651)
(-0.008361 -0.0104191 0.000962886)
(-0.0084325 -0.0079351 -0.000478976)
(0.0255008 0.00735591 7.35239e-05)
(-0.0293986 -0.00438685 -0.00327133)
(0.000627799 -0.0114301 8.34986e-05)
(0.000338834 -8.81098e-05 -1.39875e-05)
(0.0010552 -5.65636e-05 6.08707e-06)
(0.000849304 -2.35578e-06 -3.64366e-06)
(0.000857367 6.06013e-06 3.07655e-07)
(0.000839461 2.10447e-06 -9.36554e-08)
(0.000831891 1.26126e-06 2.91529e-07)
(0.000826026 9.13515e-07 1.42596e-07)
(0.000822197 4.43529e-07 4.74576e-08)
(0.000818674 5.05599e-08 2.72756e-08)
(0.00081559 -1.32112e-08 -1.47166e-08)
(0.000813275 1.24621e-07 4.26658e-08)
(0.000811352 1.55008e-07 4.77517e-08)
(0.000809297 3.92982e-07 1.19024e-07)
(0.000807954 5.25929e-07 1.18648e-07)
(0.000806609 1.32196e-07 6.68717e-08)
(0.000804825 2.30059e-07 2.3735e-08)
(0.000803353 1.79574e-07 3.62269e-08)
(0.000801762 1.6242e-07 9.14668e-08)
(0.000800248 1.87404e-07 7.86641e-08)
(0.000798786 3.35109e-08 6.6504e-08)
(0.000797262 2.42079e-07 6.8563e-08)
(0.000795736 3.55012e-07 6.15268e-08)
(0.000793857 5.19586e-07 2.23236e-07)
(0.000792378 4.7656e-07 8.08805e-08)
(0.000791405 2.0948e-07 5.6245e-08)
(0.000789657 -1.53187e-07 4.81428e-08)
(0.000787837 8.81524e-08 1.51921e-07)
(0.000786507 6.03625e-08 4.91456e-08)
(0.000785111 1.13834e-07 5.03663e-08)
(0.000783612 -1.97789e-08 4.72554e-08)
(0.000782126 -9.02548e-08 3.04299e-08)
(0.00078059 -1.23426e-07 4.92077e-08)
(0.000779174 -2.11525e-07 4.32573e-08)
(0.000778033 -1.70732e-07 -1.40837e-07)
(0.000776657 -3.66823e-09 6.82005e-08)
(0.000775177 -4.98985e-08 1.05775e-07)
(0.000773708 -2.33685e-07 3.21698e-08)
(0.000772014 -5.01144e-08 6.61203e-08)
(0.000770748 -9.58484e-08 1.30007e-07)
(0.000769668 -1.88423e-07 4.92618e-08)
(0.00076835 -4.64398e-07 8.08955e-09)
(0.000766546 -7.73939e-07 3.81497e-08)
(0.000764869 -2.85487e-07 6.5803e-08)
(0.00076339 3.83159e-08 5.00155e-08)
(-0.00622773 0.00591912 0.00121324)
(-0.00694906 0.0013193 -0.0008448)
(0.00101323 -0.00646693 0.00200185)
(0.0160904 0.0105113 -0.000790596)
(-0.0107194 -0.00380994 0.000249957)
(0.0119361 -0.000293728 -0.000219517)
(0.00104064 -0.000476235 -2.67664e-06)
(0.0013012 1.32627e-05 8.62042e-07)
(0.000833509 3.73353e-05 -3.5603e-06)
(0.000849189 1.7034e-05 3.82704e-07)
(0.000834315 1.22032e-05 7.50389e-10)
(0.000829054 7.48114e-06 4.99428e-08)
(0.000824137 4.86786e-06 5.36684e-08)
(0.000820102 2.90091e-06 4.54064e-08)
(0.000817499 1.5572e-06 8.66313e-08)
(0.000815578 9.1008e-07 8.87737e-08)
(0.000813557 6.62079e-07 4.93711e-08)
(0.000811494 4.98441e-07 5.89451e-08)
(0.000809981 4.80956e-07 1.82723e-08)
(0.00080783 8.04073e-07 2.44238e-08)
(0.000806111 6.61614e-07 -1.51195e-07)
(0.000804846 4.69989e-07 2.45649e-07)
(0.000803131 3.37274e-07 6.26803e-08)
(0.000801717 2.54992e-07 6.99004e-08)
(0.000799982 2.63577e-07 5.82314e-08)
(0.000798659 2.51073e-07 -7.88511e-09)
(0.000797415 5.30134e-08 3.77058e-08)
(0.000795903 -3.02382e-08 1.0074e-08)
(0.000794527 2.3907e-07 2.57537e-08)
(0.000792436 3.80288e-08 -1.10365e-07)
(0.000790277 -1.87434e-07 2.17439e-08)
(0.000789335 -3.45049e-07 -2.63573e-08)
(0.00078823 -2.71896e-07 1.33497e-08)
(0.000786593 -1.20423e-07 -2.15739e-07)
(0.000785045 -1.40846e-07 -5.85814e-08)
(0.000783545 -5.9226e-08 4.62865e-08)
(0.000782174 -3.79141e-08 -4.93827e-10)
(0.000780741 3.62679e-08 5.22843e-08)
(0.000779158 1.34044e-07 7.30689e-08)
(0.000777948 1.20767e-07 6.7677e-08)
(0.000776748 4.16503e-08 3.72805e-08)
(0.000775156 7.14066e-08 5.44735e-08)
(0.000773695 -2.40737e-08 4.1967e-08)
(0.000772152 -5.99503e-08 7.41173e-08)
(0.000770539 4.33939e-08 7.3961e-08)
(0.00076901 -1.36212e-07 4.55813e-08)
(0.000767484 -4.69541e-07 -7.39296e-08)
(0.00076667 -6.53176e-07 -1.09423e-07)
(0.000765816 -4.59189e-07 8.83129e-08)
(0.000763957 -3.3039e-07 1.30476e-07)
(-0.0031284 0.00225893 0.00130912)
(-0.010596 0.00195812 -0.000127509)
(0.00272309 -0.00286916 -1.39551e-05)
(0.0182013 -0.00141073 0.0001775)
(0.0132528 0.00244268 0.000975245)
(-0.00939706 0.00193465 -0.000463575)
(0.000761532 -0.000175127 -2.03881e-05)
(0.000713723 0.000114279 2.52171e-05)
(0.000873789 5.9507e-05 -2.14674e-06)
(0.000826181 2.83645e-05 -2.90459e-07)
(0.000827436 1.88319e-05 9.68356e-08)
(0.000822663 1.14298e-05 3.18666e-08)
(0.000820264 6.96175e-06 4.91301e-08)
(0.000818036 4.39617e-06 5.03696e-08)
(0.000816172 2.94859e-06 5.31191e-08)
(0.000814464 1.91392e-06 5.22728e-08)
(0.000812756 1.17302e-06 5.13271e-08)
(0.000811122 7.32481e-07 6.04914e-08)
(0.000809675 4.6197e-07 1.81546e-07)
(0.000808176 1.75412e-07 3.19281e-08)
(0.000806186 4.458e-07 7.08073e-08)
(0.000804416 2.21243e-07 4.66475e-08)
(0.000803081 4.28183e-07 4.09196e-08)
(0.000801668 1.84065e-07 5.11483e-08)
(0.000800242 1.64949e-07 4.02211e-09)
(0.000798522 2.27265e-07 9.40321e-08)
(0.00079691 -6.50043e-08 5.23031e-08)
(0.000795969 -2.66472e-07 4.12935e-08)
(0.000793944 -1.01637e-06 -8.72481e-08)
(0.000791847 -1.05954e-06 6.89974e-08)
(0.000790929 -5.49061e-07 -7.9634e-08)
(0.000789556 -1.05398e-07 1.86739e-07)
(0.000788121 -1.37859e-07 3.27854e-08)
(0.000786673 -1.41465e-07 4.94413e-08)
(0.000785189 -1.01882e-07 7.20714e-08)
(0.000783742 -2.97879e-08 1.3031e-07)
(0.000782246 -4.10406e-08 3.93374e-08)
(0.000780805 -2.92462e-08 4.47578e-08)
(0.000779279 6.51009e-08 3.4462e-08)
(0.000777916 3.69865e-07 8.30371e-09)
(0.000776594 1.08697e-07 4.23655e-08)
(0.000775095 1.66453e-08 3.44936e-09)
(0.000773544 -2.4214e-08 6.8884e-08)
(0.000772099 -8.26665e-08 3.28896e-09)
(0.000770654 -4.43771e-08 1.52275e-08)
(0.000769029 3.95052e-08 4.83588e-08)
(0.000767707 3.45378e-08 -7.074e-09)
(0.000766564 1.42135e-07 5.08038e-08)
(0.000765282 -2.11599e-07 4.30878e-08)
(0.000764375 -3.21529e-07 5.47541e-08)
(0.0023661 -0.00331647 0.000166533)
(0.0111323 -0.00258239 -0.000509512)
(-0.0105816 -0.00495168 -8.86143e-05)
(0.0052387 -0.0140714 -0.000147968)
(0.0029759 0.000888284 9.40208e-05)
(0.00314369 0.00266291 -0.000234158)
(0.00317337 0.000930913 0.000173891)
(0.000409064 8.42963e-05 2.3788e-05)
(0.0008239 4.61882e-05 -1.66112e-06)
(0.000797873 2.55814e-05 -1.94691e-07)
(0.000812958 1.64148e-05 1.63557e-07)
(0.000814095 1.01325e-05 5.6109e-08)
(0.00081527 6.36428e-06 6.35155e-08)
(0.00081504 3.96104e-06 5.31692e-08)
(0.000814367 2.53689e-06 5.20546e-08)
(0.00081334 1.60921e-06 5.1365e-08)
(0.000812068 9.3405e-07 1.08682e-07)
(0.000810598 6.48668e-07 6.32441e-08)
(0.000809281 4.82541e-07 6.80985e-08)
(0.000807807 8.35686e-08 -1.21517e-08)
(0.000806166 -9.7298e-08 4.57263e-08)
(0.000804821 -4.17053e-09 6.32149e-08)
(0.000803083 -9.61468e-08 2.08681e-09)
(0.000801386 -3.30492e-08 4.60358e-08)
(0.000800034 -1.97395e-07 5.52828e-08)
(0.000798371 -2.95735e-07 -1.28582e-07)
(0.000796798 -1.64308e-07 3.80965e-08)
(0.000794718 -2.53145e-07 4.57624e-08)
(0.000793541 -5.36493e-07 1.60491e-07)
(0.000793027 -7.90764e-09 8.22561e-08)
(0.000791474 1.68873e-07 1.14606e-07)
(0.000789851 9.07979e-08 1.43665e-07)
(0.000788186 1.4787e-07 3.74391e-08)
(0.00078664 1.30329e-07 5.33031e-08)
(0.000785185 2.75842e-08 4.57432e-08)
(0.000783622 -1.2193e-07 1.91038e-08)
(0.000782175 -2.05763e-07 4.78957e-08)
(0.000780874 -1.26036e-07 4.94685e-08)
(0.000779655 2.26789e-08 4.42168e-08)
(0.000778001 9.01917e-08 9.9049e-08)
(0.000776304 3.31986e-08 1.76373e-08)
(0.00077499 1.08613e-07 3.81403e-08)
(0.000773571 1.59605e-07 5.8582e-08)
(0.000772128 9.23578e-08 4.83878e-08)
(0.000770693 1.78004e-08 4.67645e-08)
(0.000769109 1.16212e-07 4.64352e-08)
(0.000767613 4.76053e-07 4.02687e-08)
(0.000766363 3.32475e-07 5.43022e-08)
(0.000765246 2.26549e-07 9.82773e-08)
(0.000764621 -6.37885e-08 5.8586e-08)
(0.00175885 0.00316141 -2.05715e-05)
(-0.035248 0.00586022 0.00249449)
(0.0235204 0.00944462 -0.0062991)
(-0.00140391 0.00942038 0.000684397)
(-0.000741255 -0.000446679 0.000558104)
(-0.0010577 -0.00232125 0.000294244)
(-0.000188353 -0.000473508 4.38938e-05)
(0.000426042 1.67513e-05 3.1158e-07)
(0.000834597 1.7718e-05 -1.56327e-06)
(0.000788625 1.09547e-05 -3.47522e-07)
(0.000807922 7.27791e-06 1.325e-07)
(0.000809972 4.77967e-06 2.58675e-08)
(0.000812471 3.06306e-06 5.11535e-08)
(0.000813202 1.69914e-06 5.19616e-08)
(0.000813201 1.11054e-06 4.95337e-08)
(0.00081244 7.47306e-07 1.11518e-07)
(0.000811542 4.69724e-07 1.1178e-07)
(0.000810549 2.41435e-07 5.7416e-08)
(0.000808963 1.76156e-07 2.34992e-09)
(0.000807448 1.44266e-07 1.18295e-07)
(0.000806076 3.71872e-08 5.28209e-08)
(0.000804417 -1.23277e-07 6.33128e-08)
(0.000803046 -3.03637e-07 2.91252e-08)
(0.000801543 -2.01481e-07 5.28776e-08)
(0.000799915 -2.29388e-07 3.54292e-08)
(0.000798565 -2.2858e-07 3.38656e-08)
(0.000796966 -8.76749e-08 3.58526e-08)
(0.000795507 -9.07222e-09 9.83049e-08)
(0.000794252 5.07992e-07 7.28959e-08)
(0.000792729 4.50799e-07 3.04852e-08)
(0.000791051 3.40377e-07 6.01593e-08)
(0.000789528 2.49836e-07 5.79956e-08)
(0.000788169 -1.17127e-08 -1.0382e-08)
(0.000786522 -1.637e-07 6.32552e-08)
(0.000784873 -1.85676e-07 2.0243e-07)
(0.000783451 -3.05958e-07 8.72376e-08)
(0.000782242 4.13899e-08 9.7111e-08)
(0.000781091 -4.08954e-08 4.71579e-08)
(0.000779549 -2.27202e-07 8.88008e-08)
(0.000777929 -3.051e-07 3.90421e-08)
(0.000776617 -1.52048e-07 5.77192e-08)
(0.000775253 -1.84855e-07 -1.08335e-08)
(0.000773524 -4.31504e-08 3.27344e-08)
(0.000771921 -7.02368e-08 8.44201e-08)
(0.000770684 4.80099e-08 5.97405e-08)
(0.0007696 -3.46693e-08 4.50421e-08)
(0.000767975 2.0785e-07 2.13416e-08)
(0.000766249 4.12892e-07 4.53722e-08)
(0.000764786 6.92048e-07 -5.93102e-08)
(0.000764168 5.14086e-07 9.31985e-08)
(0.000546997 -1.20305e-05 8.23935e-05)
(0.00743682 -0.0142406 0.00191905)
(-0.0129757 -0.0409343 0.00165209)
(0.00776185 0.0124235 0.000659171)
(0.00832851 0.00677054 -0.000975646)
(-0.000796764 -0.00106161 0.000273284)
(0.00146962 -0.000207828 -2.99003e-05)
(0.000426661 -1.155e-05 8.7379e-07)
(0.000814729 -1.98551e-05 -1.39082e-06)
(0.000784479 -6.42257e-06 -2.76404e-07)
(0.000805112 -4.17982e-06 2.14577e-07)
(0.000808744 -2.38149e-06 2.73484e-07)
(0.000811367 -1.40667e-06 6.935e-08)
(0.000812566 -4.95744e-07 4.23367e-08)
(0.000813157 -3.29566e-07 6.34039e-08)
(0.000812525 -1.56225e-07 6.51526e-08)
(0.000811427 -1.04313e-07 4.6682e-08)
(0.000810225 -1.29103e-07 1.25561e-07)
(0.000809155 -1.79303e-07 3.43283e-08)
(0.00080763 -2.6961e-07 -3.20279e-09)
(0.00080583 -2.24959e-07 1.36954e-07)
(0.000804396 -9.44294e-08 5.48324e-08)
(0.000802987 4.29779e-08 5.63121e-08)
(0.000801481 -6.51616e-08 4.83556e-08)
(0.000800003 5.82923e-08 6.67543e-08)
(0.00079855 1.72349e-07 5.67567e-08)
(0.000797075 9.64122e-08 5.37756e-08)
(0.000795462 1.63981e-07 3.88591e-08)
(0.000794114 2.11332e-07 5.11587e-08)
(0.000792815 -1.5394e-08 2.47025e-08)
(0.00079122 -3.70691e-08 1.00357e-07)
(0.00078941 -1.48218e-07 2.46856e-08)
(0.00078767 -2.76785e-07 -9.90215e-08)
(0.000786424 -4.59633e-07 1.1046e-07)
(0.000785009 -1.12616e-07 2.57681e-07)
(0.000783907 2.03517e-07 1.05149e-07)
(0.000782507 1.61322e-07 8.68442e-09)
(0.000780539 -1.24607e-07 4.57564e-08)
(0.000779327 -6.03855e-07 5.55204e-08)
(0.000778098 -2.79705e-07 5.95332e-08)
(0.000776457 -2.0899e-07 6.00057e-08)
(0.000775127 -3.11843e-07 8.12285e-08)
(0.000773715 -4.07083e-07 7.60704e-08)
(0.000772241 1.16517e-07 4.33085e-08)
(0.000770737 -1.76575e-08 4.41868e-08)
(0.000769307 1.16599e-08 3.97443e-08)
(0.000768168 -1.94291e-07 2.33948e-08)
(0.000766963 5.9248e-08 5.13162e-08)
(0.000765357 2.05859e-07 -6.77832e-08)
(0.000763118 3.25472e-07 6.1286e-08)
(0.00240472 0.0020427 0.00171855)
(0.00731732 -0.00598729 -0.000746416)
(-0.00541113 -0.000122645 0.00170687)
(-0.00102707 -0.0109632 -0.00140848)
(0.00747593 -0.0203023 -0.00129904)
(0.00432052 -0.00302168 -0.000542332)
(0.000592425 -0.000195162 -2.37165e-05)
(0.00133194 -8.7599e-05 1.0291e-07)
(0.00136191 -4.67941e-05 3.39678e-07)
(0.00134596 -3.17743e-05 4.36389e-07)
(0.00135438 -1.91609e-05 3.84053e-07)
(0.0013556 -1.2228e-05 2.9584e-07)
(0.00135819 -7.61094e-06 2.68811e-07)
(0.00135794 -4.25187e-06 3.67609e-07)
(0.00135652 -2.7144e-06 3.45873e-07)
(0.00135507 -1.94688e-06 3.25109e-07)
(0.00135322 -1.20875e-06 3.38829e-07)
(0.00135138 -7.20595e-07 4.59149e-08)
(0.00134863 -2.66697e-07 2.12651e-07)
(0.00134628 -6.27636e-07 3.71687e-07)
(0.00134442 -4.4953e-07 4.74907e-07)
(0.00134187 -8.58335e-08 1.03371e-07)
(0.00133911 -6.08558e-08 2.75403e-07)
(0.0013366 1.06679e-07 2.91276e-07)
(0.00133435 2.05134e-07 2.80455e-07)
(0.0013317 1.87045e-07 2.74617e-07)
(0.00132898 1.27709e-07 2.98015e-07)
(0.00132686 1.49447e-07 3.34447e-07)
(0.00132409 7.07697e-07 4.5763e-07)
(0.00132133 -2.06771e-07 3.6067e-07)
(0.00131883 -7.81294e-07 3.73117e-07)
(0.00131604 -8.25715e-07 1.63106e-07)
(0.00131369 -5.71329e-07 2.97512e-07)
(0.00131202 1.16061e-07 4.07984e-07)
(0.00131024 2.56253e-07 3.24378e-07)
(0.00130709 5.16976e-07 2.28051e-07)
(0.00130384 1.04359e-07 4.18224e-07)
(0.00130102 4.34016e-07 2.65644e-07)
(0.00129962 1.06571e-06 3.11236e-07)
(0.00129805 4.82447e-07 3.77169e-07)
(0.00129508 8.3835e-08 2.92509e-07)
(0.00129245 -4.47209e-09 3.50259e-07)
(0.00129088 -5.22621e-07 2.95152e-07)
(0.00128811 -5.917e-07 2.28415e-07)
(0.00128507 -2.87934e-07 3.33347e-07)
(0.00128308 -8.99335e-08 3.41786e-07)
(0.00128077 -1.8175e-07 2.97794e-07)
(0.00127867 -3.55986e-07 3.14448e-07)
(0.0012759 -6.33393e-07 3.59682e-07)
(0.00127316 -5.91937e-07 2.29169e-07)
(-0.0140199 0.00579891 -0.00125846)
(-0.00271877 0.00545515 0.0337638)
(0.000829312 -0.00978154 -0.000604685)
(0.00381653 0.000737852 9.83162e-05)
(0.00263963 -0.00153108 -0.000655577)
(0.00240857 -0.000862833 0.000395649)
(0.000499953 -0.000297169 -0.000148976)
(0.00136955 -9.03338e-05 -2.25565e-08)
(0.00144682 -4.23007e-05 4.15435e-07)
(0.00134279 -3.84815e-05 3.36604e-07)
(0.00136686 -2.44941e-05 3.41803e-07)
(0.00136295 -1.60018e-05 3.4055e-07)
(0.00136284 -1.02793e-05 3.40709e-07)
(0.00136099 -7.0029e-06 3.39746e-07)
(0.00135872 -4.42868e-06 3.39681e-07)
(0.00135669 -2.94955e-06 3.1682e-07)
(0.00135452 -1.84599e-06 3.38658e-07)
(0.0013522 -1.30426e-06 7.89807e-08)
(0.00134932 -9.28876e-07 4.80298e-07)
(0.00134642 -3.06614e-07 3.09166e-07)
(0.00134434 -1.09153e-07 3.53577e-07)
(0.00134178 -2.27601e-07 3.73478e-07)
(0.00133924 6.67906e-08 2.84558e-07)
(0.00133682 3.14672e-09 3.69072e-07)
(0.0013341 2.8246e-08 3.29441e-07)
(0.0013315 -3.68277e-07 3.41405e-07)
(0.00132915 -3.47836e-07 5.84616e-07)
(0.00132722 -5.51244e-07 3.34496e-07)
(0.00132383 -1.52288e-06 5.77022e-07)
(0.00132028 -9.23551e-07 9.70589e-08)
(0.00131862 -6.03743e-07 6.95514e-08)
(0.00131659 -2.40538e-07 2.7598e-07)
(0.00131469 7.36036e-07 4.74408e-07)
(0.00131251 9.43408e-07 4.70197e-07)
(0.0013096 3.54608e-07 3.22322e-07)
(0.00130703 -2.07864e-08 3.11279e-07)
(0.00130478 2.26786e-07 3.0274e-07)
(0.00130282 6.28772e-07 8.39817e-08)
(0.00129962 1.25514e-06 3.29119e-07)
(0.00129636 7.50262e-07 8.54477e-07)
(0.00129429 2.9679e-07 3.4141e-07)
(0.00129189 -8.2318e-08 3.66899e-07)
(0.00128951 -4.7017e-07 2.54602e-07)
(0.00128814 -1.00136e-06 3.70554e-07)
(0.00128605 -3.46102e-07 3.57991e-07)
(0.0012831 -2.20372e-07 2.98375e-07)
(0.00128074 6.51103e-08 2.87192e-07)
(0.00127844 -1.21742e-07 3.06348e-07)
(0.00127595 -4.01136e-07 1.44465e-07)
(0.00127414 -3.81572e-07 4.0819e-07)
(-0.00122209 -7.8411e-05 0.0194017)
(0.0153796 -0.00799384 0.0226897)
(-0.013082 -0.00501464 -0.00615743)
(-0.00472661 -0.00529127 0.00191269)
(0.00378891 0.00750707 0.000738757)
(-0.0024914 -0.00219096 0.00298928)
(0.000233983 0.000285603 -4.91263e-06)
(0.00141696 -0.00012971 2.61748e-06)
(0.00147372 -7.74236e-05 -3.52765e-07)
(0.00136877 -4.31983e-05 3.39094e-07)
(0.00138273 -2.74674e-05 3.45811e-07)
(0.00137353 -1.67022e-05 3.43455e-07)
(0.00136955 -1.05163e-05 3.41937e-07)
(0.00136532 -6.61642e-06 3.4146e-07)
(0.00136163 -4.11863e-06 3.39464e-07)
(0.00135833 -2.46477e-06 1.28531e-07)
(0.0013553 -1.72606e-06 3.37884e-07)
(0.00135254 -1.14743e-06 2.30443e-07)
(0.00134989 -1.45769e-06 3.85483e-07)
(0.00134731 -7.37722e-07 3.26568e-07)
(0.00134452 -5.33505e-07 4.69876e-07)
(0.00134209 -3.64051e-07 3.3361e-07)
(0.0013394 -3.41548e-07 4.00474e-07)
(0.00133655 -2.5754e-07 3.07265e-07)
(0.00133389 -3.59234e-07 3.71319e-07)
(0.00133123 -1.33049e-07 3.08405e-07)
(0.00132875 -1.77577e-07 2.23532e-07)
(0.0013254 -2.2113e-07 3.18977e-07)
(0.00132363 -6.94508e-07 1.22936e-07)
(0.00132249 4.33911e-07 3.06256e-07)
(0.00131969 7.92308e-07 4.35568e-07)
(0.00131772 8.6972e-07 4.72032e-07)
(0.00131517 6.95786e-07 2.28556e-07)
(0.00131154 3.04348e-07 1.84077e-07)
(0.00130903 3.73555e-08 3.70164e-07)
(0.00130693 6.7371e-08 3.02809e-07)
(0.00130465 8.59595e-08 3.98464e-07)
(0.0013023 -6.82916e-08 3.58105e-07)
(0.00129976 -3.74588e-07 3.0574e-07)
(0.00129684 -2.18766e-07 3.9244e-07)
(0.00129404 2.23767e-08 3.28079e-07)
(0.00129149 3.72608e-07 3.98849e-07)
(0.00128973 1.00648e-06 3.14936e-07)
(0.00128828 9.77171e-07 2.93215e-07)
(0.00128606 5.12972e-07 2.16559e-07)
(0.0012836 3.95154e-07 3.98546e-07)
(0.0012809 5.47552e-07 3.06697e-07)
(0.00127809 6.33161e-07 3.28129e-07)
(0.00127559 2.92918e-07 1.64984e-07)
(0.00127413 2.15829e-07 5.25874e-07)
(0.00920068 -0.00193827 -0.00161688)
(-0.00098751 -0.00262911 -0.0216965)
(-0.0197089 -0.00622503 -0.00469255)
(0.00130771 0.00540025 -0.00165838)
(0.0546235 -0.00910987 -0.00622521)
(0.0203715 0.0226275 0.00263314)
(0.00391346 -0.00104393 5.44327e-05)
(0.00110027 -0.000290778 6.1946e-05)
(0.0015163 -6.62759e-05 2.97601e-07)
(0.00140622 -2.36523e-05 2.84134e-07)
(0.00140032 -1.73619e-05 3.49678e-07)
(0.00138436 -1.00368e-05 3.4389e-07)
(0.00137558 -6.54034e-06 3.44451e-07)
(0.00136907 -3.88089e-06 3.4239e-07)
(0.00136397 -2.0665e-06 3.40601e-07)
(0.00135972 -1.13661e-06 3.38161e-07)
(0.00135619 -7.45264e-07 3.39742e-07)
(0.00135255 -4.51175e-07 3.58554e-07)
(0.00134985 -4.2587e-07 3.34417e-07)
(0.00134758 -7.54786e-07 3.05411e-07)
(0.00134481 -4.73991e-07 3.10052e-07)
(0.00134202 -3.80286e-07 3.35721e-07)
(0.00133938 -5.09005e-07 2.75319e-07)
(0.0013368 -2.14271e-07 3.86184e-07)
(0.00133425 -1.89313e-07 2.29308e-07)
(0.00133173 2.09601e-07 2.72512e-07)
(0.00132904 4.33551e-07 3.95789e-07)
(0.00132658 8.0447e-07 3.58178e-07)
(0.00132465 1.73214e-06 2.65016e-07)
(0.00132214 1.00232e-06 3.12022e-07)
(0.00131916 8.10433e-07 3.63118e-07)
(0.00131646 1.00656e-06 2.51608e-07)
(0.00131398 8.90289e-08 3.22166e-07)
(0.00131168 -1.20985e-07 3.21326e-07)
(0.0013093 6.21256e-08 2.32832e-07)
(0.00130709 1.8516e-08 6.94059e-07)
(0.00130461 -9.13467e-08 3.20535e-07)
(0.00130225 -2.835e-07 3.4358e-07)
(0.00129944 -5.99065e-07 1.99584e-07)
(0.00129686 -6.34172e-07 2.03594e-07)
(0.00129503 -8.4235e-08 2.72663e-07)
(0.00129311 3.14522e-07 4.13935e-07)
(0.00129026 9.38613e-07 5.01867e-07)
(0.00128751 7.79037e-07 8.69344e-08)
(0.00128531 2.5875e-07 3.37918e-07)
(0.00128314 1.55635e-07 3.2107e-07)
(0.00128103 1.81524e-07 3.75529e-07)
(0.00127811 4.69487e-07 3.1814e-07)
(0.00127542 3.96663e-07 3.18447e-07)
(0.0012735 4.71666e-07 5.23508e-07)
(-0.00479893 0.00584927 0.000590723)
(-0.0237407 -0.0293833 0.0129817)
(-0.00526115 -0.0147658 -0.00108765)
(0.00177688 0.00836435 7.73581e-06)
(-0.0164844 -0.00440562 -0.00272016)
(-0.00571436 0.00581534 -0.00286777)
(3.62695e-05 -0.00065148 5.099e-05)
(0.000820855 -0.00019228 -2.26354e-05)
(0.00141531 -7.32624e-06 9.57537e-07)
(0.00143026 7.76063e-06 4.27708e-07)
(0.00140002 2.02411e-06 2.87793e-07)
(0.00138724 1.16507e-06 6.35179e-07)
(0.00137735 9.58311e-07 3.79397e-07)
(0.00137098 3.78274e-07 3.42897e-07)
(0.0013651 -1.23892e-07 3.60192e-07)
(0.00136001 -1.53777e-07 1.68868e-07)
(0.00135617 9.87118e-08 3.38303e-07)
(0.00135295 1.66483e-07 3.40275e-07)
(0.00134952 5.81101e-07 4.08681e-07)
(0.00134726 7.85419e-07 3.21855e-07)
(0.001345 1.74646e-07 3.67793e-07)
(0.00134205 3.56219e-07 3.13805e-07)
(0.00133961 2.8264e-07 3.18317e-07)
(0.00133695 2.45346e-07 3.70261e-07)
(0.00133442 3.25675e-07 2.7735e-07)
(0.00133201 1.56598e-08 3.69427e-07)
(0.00132949 3.68039e-07 3.85986e-07)
(0.00132701 5.70124e-07 3.30756e-07)
(0.00132387 8.67263e-07 5.01505e-07)
(0.00132133 7.70056e-07 4.11095e-07)
(0.00131969 3.44979e-07 3.58939e-07)
(0.00131681 -2.33269e-07 2.97632e-07)
(0.00131375 2.17284e-07 4.51965e-07)
(0.0013115 1.18382e-07 3.2504e-07)
(0.00130921 2.22851e-07 3.19761e-07)
(0.00130673 -2.16952e-08 3.24117e-07)
(0.00130427 -1.73406e-07 1.82807e-07)
(0.00130167 -2.31199e-07 3.24838e-07)
(0.00129933 -3.89668e-07 3.15588e-07)
(0.00129749 -3.03429e-07 -8.66915e-08)
(0.00129522 -1.53456e-08 3.38223e-07)
(0.00129276 -8.43403e-08 4.44493e-07)
(0.00129031 -3.64381e-07 3.15342e-07)
(0.00128742 -1.10011e-07 2.75971e-07)
(0.00128527 -2.69026e-07 4.27914e-07)
(0.0012835 -3.72455e-07 3.20311e-07)
(0.00128129 -8.27625e-07 1.05583e-07)
(0.00127835 -1.27472e-06 3.19499e-07)
(0.00127558 -4.69461e-07 4.51607e-07)
(0.00127305 7.78293e-08 3.25424e-07)
(0.000533037 0.00118737 -0.00147868)
(0.0109477 -0.00251608 -0.00206187)
(0.00787341 -0.034191 -0.0362147)
(0.0011877 -0.0147757 -0.0102091)
(-0.0262651 0.000955272 0.000614108)
(-0.0205239 -0.00490987 0.0056474)
(0.00278654 0.000254286 9.86121e-07)
(0.000845698 6.48686e-05 -4.6377e-05)
(0.00138948 6.0083e-05 5.03693e-07)
(0.00141759 2.68578e-05 4.1616e-07)
(0.00139216 1.93127e-05 3.07432e-07)
(0.00138308 1.17639e-05 3.32805e-07)
(0.00137464 7.71077e-06 1.01233e-07)
(0.00136774 4.58924e-06 3.40043e-07)
(0.00136332 2.47129e-06 3.63986e-07)
(0.00136001 1.44232e-06 3.83006e-07)
(0.0013566 1.03432e-06 3.39518e-07)
(0.00135316 7.50591e-07 3.68248e-07)
(0.00135062 7.47159e-07 2.94328e-07)
(0.00134707 1.25374e-06 3.96669e-07)
(0.00134427 1.04443e-06 3.47221e-08)