/*--------------------------------*- C++ -*----------------------------------*\
| =========                 |                                                 |
| \\      /  F ield         | OpenFOAM: The Open Source CFD Toolbox           |
|  \\    /   O peration     | Version:  5.0                                   |
|   \\  /    A nd           | Web:      www.OpenFOAM.org                      |
|    \\/     M anipulation  |                                                 |
\*---------------------------------------------------------------------------*/
FoamFile
{
    version     2.0;
    format      ascii;
    class       volVectorField;
    location    "4.4";
    object      U_0;
}
// * * * * * * * * * * * * * * * * * * * * * * * * * * * * * * * * * * * * * //

dimensions      [0 1 -1 0 0 0 0];

internalField   nonuniform List<vector> 
8703
(
(-0.00210119 0.00391374 0.000173862)
(-0.00454341 -0.00656814 6.56288e-05)
(0.00177334 0.0101521 0.000483889)
(-0.000808274 0.00668494 0.000481528)
(0.00260246 -0.00942613 -0.000530653)
(0.00143472 -0.00129958 9.54199e-05)
(0.000797375 -3.19891e-05 -2.69321e-06)
(0.000811196 -4.70938e-05 -2.79757e-06)
(0.000825571 -2.38851e-05 6.20343e-08)
(0.000815479 -1.64011e-05 -6.77217e-08)
(0.000818597 -9.85277e-06 1.05461e-07)
(0.00081787 -6.33878e-06 5.08157e-08)
(0.00081825 -3.98936e-06 -2.68624e-09)
(0.000817537 -2.30463e-06 7.64155e-08)
(0.000816254 -1.39823e-06 4.96437e-08)
(0.000815102 -9.62133e-07 2.56677e-07)
(0.000813973 -5.49373e-07 5.52707e-08)
(0.00081262 -2.32196e-07 1.02971e-07)
(0.000810879 -2.73392e-07 2.90198e-08)
(0.000809243 -1.60951e-07 5.59173e-08)
(0.000807877 -1.45673e-07 5.74574e-08)
(0.000806624 9.42375e-08 6.96432e-08)
(0.000805126 -2.35345e-08 4.30657e-08)
(0.000803455 6.06025e-08 4.33508e-08)
(0.000802056 9.19446e-08 5.81885e-08)
(0.000800561 6.56906e-08 6.44509e-08)
(0.000799004 2.32343e-08 5.4494e-08)
(0.000797714 7.54971e-08 5.18634e-08)
(0.000795938 3.30033e-07 8.49173e-08)
(0.000794192 -1.28611e-07 1.69162e-07)
(0.000792896 -6.08532e-07 -5.93245e-08)
(0.000791213 -5.13112e-07 -1.51375e-09)
(0.000789757 -2.85337e-07 7.82838e-08)
(0.000788742 -1.32632e-07 5.79241e-08)
(0.000787402 9.47295e-08 9.27356e-08)
(0.000785664 1.82411e-07 1.23175e-07)
(0.000784067 5.59815e-08 3.2003e-08)
(0.000782605 1.53914e-07 3.15062e-08)
(0.000781083 3.69667e-07 -8.73893e-08)
(0.000779965 4.86699e-07 7.70824e-08)
(0.000778788 9.3256e-08 6.76844e-08)
(0.000777194 1.70434e-08 6.67966e-08)
(0.000775927 -4.30195e-07 -6.00346e-08)
(0.000774334 -2.80393e-07 2.45227e-07)
(0.000772733 -2.33603e-07 3.85151e-08)
(0.000771382 -1.86565e-07 5.61695e-08)
(0.000769972 -2.16747e-07 5.22768e-08)
(0.000768637 -5.2355e-07 3.99927e-08)
(0.000766999 -4.43509e-07 -1.55963e-08)
(0.000765242 -2.54527e-07 6.40873e-08)
(-0.00162936 -0.00059264 0.00250836)
(0.000543808 0.00899301 -0.000713688)
(0.00155125 -4.92605e-05 -4.58542e-05)
(0.00122682 0.000574975 -6.84034e-05)
(-0.00588202 -0.00193404 -0.000316162)
(-0.000733436 -0.00182573 2.20866e-06)
(0.00143455 0.000254645 4.47443e-06)
(0.000469047 -2.61519e-05 -1.37752e-06)
(0.00087458 -1.89371e-05 -1.16147e-06)
(0.000812481 -1.82385e-05 -4.47317e-07)
(0.000824925 -1.13016e-05 1.63378e-07)
(0.000821394 -7.36519e-06 3.76717e-08)
(0.000820559 -4.70868e-06 5.93284e-08)
(0.000819008 -3.17189e-06 4.97205e-08)
(0.000817467 -2.04703e-06 5.10324e-08)
(0.000815897 -1.27888e-06 4.88273e-08)
(0.000814325 -8.43744e-07 4.948e-08)
(0.000812578 -6.66258e-07 1.06754e-07)
(0.000811108 -2.55761e-07 7.45697e-08)
(0.000809738 -1.00354e-07 2.75619e-08)
(0.000808232 1.20403e-07 2.34989e-08)
(0.000806556 7.04575e-08 6.15976e-08)
(0.000804948 1.34415e-08 6.04763e-08)
(0.000803585 5.93183e-08 1.03174e-07)
(0.000801957 1.26512e-07 -1.93891e-08)
(0.00080038 -1.20493e-07 1.6889e-07)
(0.000799008 -1.52104e-07 3.02979e-08)
(0.000797699 -2.53829e-07 4.55183e-08)
(0.000795842 -6.55166e-07 -1.91933e-09)
(0.000793768 -5.08614e-07 8.77875e-08)
(0.000792579 -5.25393e-07 1.41972e-07)
(0.000791618 -3.12659e-07 3.53788e-08)
(0.000790331 2.44108e-07 2.24067e-07)
(0.00078906 4.64562e-07 2.95759e-07)
(0.000787404 4.26811e-08 4.97444e-08)
(0.000785589 5.15383e-08 3.26657e-08)
(0.000784223 1.43733e-07 4.01661e-08)
(0.000782914 2.04054e-07 5.82923e-08)
(0.000781472 3.29696e-07 4.11027e-08)
(0.00077974 4.87158e-07 1.74265e-08)
(0.000778173 2.06262e-07 5.59766e-08)
(0.000776665 -4.34188e-08 7.42693e-08)
(0.000775365 -1.6502e-07 2.02765e-08)
(0.000774418 -3.59286e-07 1.09665e-07)
(0.000772933 -1.5688e-07 5.48069e-08)
(0.000771429 -1.56589e-07 5.67867e-08)
(0.000769978 -7.36728e-08 4.36802e-08)
(0.000768512 -1.81801e-07 4.39183e-08)
(0.000766971 -3.42937e-07 5.42666e-08)
(0.000765994 -2.48437e-07 2.50467e-08)
(-0.00697664 0.00333213 -3.96152e-06)
(0.0215707 0.0015694 -0.000926549)
(-0.0117981 0.00414358 0.000412846)
(-0.00658217 -0.00575457 0.000100963)
(-0.010037 -0.000748106 -0.000129984)
(-0.00810001 -0.000946423 -5.36068e-05)
(0.000522293 -0.00058703 3.53769e-05)
(0.000490606 -3.03983e-05 1.81863e-07)
(0.000889453 -3.65696e-05 -1.99607e-06)
(0.000825365 -1.88903e-05 -3.88815e-07)
(0.000832336 -1.18158e-05 1.55474e-07)
(0.000826208 -7.07838e-06 3.80638e-08)
(0.000823554 -4.44169e-06 5.49846e-08)
(0.000820905 -2.81336e-06 5.18232e-08)
(0.000818647 -1.80447e-06 5.19649e-08)
(0.000816623 -1.17692e-06 3.96499e-08)
(0.00081475 -7.85999e-07 5.73875e-08)
(0.000813363 -5.19456e-07 3.5861e-08)
(0.000811591 -4.06304e-07 1.13622e-07)
(0.000809715 -2.12196e-07 3.88769e-08)
(0.000808091 -2.35084e-07 2.8647e-09)
(0.000806489 -2.07953e-07 4.67278e-08)
(0.000805111 -1.44086e-07 6.0094e-08)
(0.000803595 -1.97744e-07 -1.56253e-07)
(0.00080183 -2.84331e-07 6.55797e-08)
(0.000800213 -8.88868e-08 3.12987e-08)
(0.000798838 -6.8161e-08 7.89141e-08)
(0.000797089 -1.16025e-07 5.94322e-08)
(0.000795624 -2.96532e-07 -2.28407e-08)
(0.00079436 2.74645e-07 -3.93899e-08)
(0.000793145 7.10697e-07 7.92205e-08)
(0.000792175 6.61668e-07 6.39662e-08)
(0.000790726 3.81945e-07 3.03792e-07)
(0.000788487 2.60052e-07 1.27342e-07)
(0.000786883 -1.9687e-08 8.89996e-08)
(0.000785789 -1.50749e-08 3.24967e-08)
(0.000784256 9.99535e-08 1.37495e-07)
(0.000782835 5.99379e-08 5.18218e-08)
(0.000781433 1.41755e-07 4.41573e-08)
(0.000779807 -5.96672e-08 9.22466e-08)
(0.000778123 3.37246e-08 -7.50885e-08)
(0.00077673 8.71946e-08 5.35041e-08)
(0.000775535 3.58482e-07 2.40434e-07)
(0.000774348 2.43472e-07 7.55391e-08)
(0.00077299 1.87562e-07 9.41439e-08)
(0.000771488 1.61408e-07 5.09573e-08)
(0.000769942 2.49494e-07 3.78343e-08)
(0.000768302 1.26682e-07 7.61651e-08)
(0.000766922 1.08457e-07 7.92864e-08)
(0.000765979 8.73917e-08 7.05587e-08)
(0.00800881 -0.00289161 0.00477831)
(-0.00964305 -0.012018 0.00525623)
(-0.010798 -0.00114215 -0.000749267)
(0.00473913 -0.00260028 -0.000460208)
(-0.000719184 0.000469805 0.000404298)
(0.0105378 -0.00301645 0.000181262)
(0.00154708 -0.00059497 8.44362e-06)
(0.000489396 -0.000126521 3.906e-05)
(0.000909643 -2.67187e-05 -2.02796e-06)
(0.000844055 -5.85434e-06 -1.26753e-07)
(0.000839905 -5.46538e-06 9.83238e-08)
(0.000830748 -2.95738e-06 -9.27279e-09)
(0.000825975 -2.18598e-06 4.98127e-08)
(0.000822358 -1.3251e-06 4.91294e-08)
(0.000819546 -7.95331e-07 4.87319e-08)
(0.000817192 -4.90036e-07 4.94027e-08)
(0.000815161 -3.18782e-07 4.87839e-08)
(0.000813063 -1.36185e-07 1.75115e-08)
(0.000811499 -3.5732e-07 6.49861e-08)
(0.000809958 -3.81827e-07 3.32601e-08)
(0.000808241 -3.32201e-07 -1.58105e-08)
(0.000806672 -1.96895e-07 5.16098e-08)
(0.000804962 -1.68501e-07 4.48604e-08)
(0.000803411 -1.23472e-07 6.26457e-08)
(0.000802094 -1.55327e-07 5.90321e-08)
(0.000800651 1.05758e-07 3.31492e-08)
(0.000798974 1.94799e-07 6.14396e-08)
(0.000797414 3.14184e-07 8.82982e-08)
(0.00079633 7.93547e-07 6.34691e-08)
(0.000795025 6.92617e-07 3.39908e-08)
(0.000793058 7.95873e-07 1.64915e-08)
(0.000791202 7.17922e-07 -1.13175e-07)
(0.000789825 2.31143e-07 4.69126e-08)
(0.000788557 -3.35312e-08 4.75716e-08)
(0.00078706 2.08074e-07 5.30708e-08)
(0.000785739 8.6385e-08 1.26417e-07)
(0.000784317 1.39814e-08 1.12285e-07)
(0.000782966 -6.00649e-08 6.01448e-08)
(0.000781323 -3.62885e-07 -5.43428e-09)
(0.000779605 -2.87856e-07 -2.70765e-08)
(0.000778356 -1.51658e-07 5.47267e-08)
(0.000777069 3.66358e-08 5.233e-08)
(0.000775557 2.54005e-07 1.22948e-07)
(0.0007742 2.82319e-07 -2.96808e-08)
(0.000772827 -3.5975e-08 -9.11227e-08)
(0.000771503 -3.20101e-08 3.97825e-08)
(0.000769931 -5.03966e-08 8.79016e-08)
(0.000768333 5.34331e-08 2.58941e-08)
(0.000766919 2.39609e-07 4.24507e-08)
(0.000765749 2.18387e-07 5.20012e-08)
(-0.000656812 0.00493384 -0.000716734)
(-0.00689385 -0.00844555 0.00102722)
(-0.00773918 -0.00713729 -0.000425599)
(0.0296532 -0.00132976 -0.000375828)
(-0.0231907 -0.00831156 -0.00134081)
(0.00201499 -0.0184622 -6.33286e-05)
(0.000444522 -6.5624e-05 -1.20906e-05)
(0.00106878 -2.82901e-05 4.05454e-06)
(0.000832357 9.2575e-06 -3.69291e-06)
(0.000852285 1.13012e-05 3.606e-07)
(0.000836139 4.46543e-06 -2.30437e-08)
(0.000830425 2.44593e-06 5.09957e-08)
(0.000825667 1.55257e-06 8.08196e-08)
(0.000822688 7.85531e-07 5.20049e-08)
(0.000819718 3.4179e-07 5.17436e-08)
(0.000817236 1.49694e-07 5.07137e-08)
(0.000815203 9.20378e-08 4.94159e-08)
(0.000813321 5.7607e-08 4.62831e-08)
(0.000811289 1.89061e-07 5.05048e-08)
(0.000809751 9.65453e-08 8.12629e-08)
(0.000808326 -2.8818e-08 6.71396e-08)
(0.000806698 1.02695e-07 5.98837e-08)
(0.000805206 1.70884e-07 9.18316e-08)
(0.000803614 2.20026e-07 1.07957e-07)
(0.000802118 2.42757e-07 7.00283e-08)
(0.00080065 9.89094e-08 6.62903e-08)
(0.000799096 1.61506e-07 7.01327e-08)
(0.000797832 2.09081e-07 3.1339e-08)
(0.000796091 2.88847e-07 -1.4902e-08)
(0.000794355 1.49906e-07 3.62728e-08)
(0.000793168 5.8293e-09 4.94655e-08)
(0.000791464 -1.53252e-07 3.65141e-08)
(0.000789784 1.50241e-07 3.51102e-08)
(0.000788457 8.67891e-08 5.01878e-08)
(0.000787032 1.76424e-07 6.49938e-08)
(0.000785546 5.80744e-08 4.63656e-08)
(0.000784073 -6.67225e-08 3.75843e-08)
(0.000782366 -9.9737e-08 4.74122e-08)
(0.000781151 -2.68734e-07 1.13727e-07)
(0.000780074 -1.48885e-07 3.99256e-08)
(0.00077853 -7.10498e-08 4.59447e-08)
(0.000777236 -9.24119e-08 4.04336e-07)
(0.000775839 -6.72348e-08 1.43836e-08)
(0.000773982 4.37113e-09 -2.53953e-08)
(0.000772595 -1.23644e-07 6.89704e-08)
(0.000771469 -2.26486e-07 4.80929e-08)
(0.000770048 -4.72434e-07 -4.61592e-08)
(0.000768664 -3.80023e-07 4.24983e-08)
(0.000767122 -2.43778e-07 6.17778e-08)
(0.000765409 9.35502e-08 8.71865e-08)
(-0.00554076 0.00705399 0.00122626)
(-0.00661591 0.00168098 -0.000736232)
(0.00120177 -0.00602387 -0.000596373)
(0.0158278 0.00922673 -0.00105073)
(-0.0120207 -0.00578411 0.000585933)
(0.00426921 0.00103763 -0.000376691)
(0.000889723 -0.000351105 -9.37188e-07)
(0.00129846 5.28852e-05 -2.64173e-06)
(0.000800028 3.64122e-05 -3.99321e-06)
(0.000837977 1.49111e-05 5.41014e-07)
(0.000828902 1.05329e-05 -6.16542e-09)
(0.000827153 6.19092e-06 5.12923e-08)
(0.000823928 4.14758e-06 7.26361e-08)
(0.000820862 2.46942e-06 4.79059e-08)
(0.000818763 1.4369e-06 1.45521e-07)
(0.000816888 8.28911e-07 9.86878e-08)
(0.000815051 4.78632e-07 5.07372e-08)
(0.000813187 1.79478e-07 4.0607e-08)
(0.000811548 1.65121e-07 2.20543e-08)
(0.000809686 3.20427e-07 5.98659e-08)
(0.000808248 3.50135e-07 1.55652e-07)
(0.000806921 2.06795e-07 5.04692e-08)
(0.000805108 1.40257e-07 6.56619e-08)
(0.0008035 9.62686e-08 7.81703e-08)
(0.000801942 1.31592e-07 5.18597e-08)
(0.000800549 7.99254e-08 6.5355e-08)
(0.000799111 -3.11406e-08 3.7493e-08)
(0.000797571 -1.45942e-07 1.73233e-08)
(0.000796253 -2.25711e-07 7.68998e-08)
(0.000794668 -3.64647e-07 -1.88752e-08)
(0.000792679 -5.13997e-07 -3.08075e-08)
(0.000791381 -3.73432e-07 1.44935e-07)
(0.000790124 -2.69294e-07 1.59666e-08)
(0.000788587 -1.65388e-07 5.4488e-08)
(0.000787023 -2.17485e-07 2.97743e-08)
(0.000785434 -4.89519e-08 5.40194e-08)
(0.00078412 1.03194e-09 5.75726e-08)
(0.000782715 1.67051e-07 5.16123e-08)
(0.000781263 3.46561e-07 1.11265e-07)
(0.000779854 1.79103e-07 7.41948e-08)
(0.000778428 2.24752e-07 4.28246e-08)
(0.000777074 2.01141e-07 3.16611e-08)
(0.000775679 -3.56844e-08 7.13345e-08)
(0.000774131 -1.35551e-07 1.15331e-09)
(0.00077254 -6.52982e-09 1.83972e-07)
(0.000771071 -1.90913e-07 4.73047e-08)
(0.000769744 -4.95412e-07 -3.41027e-07)
(0.000768623 -5.52144e-07 3.45343e-08)
(0.000767512 -4.8659e-07 9.74854e-08)
(0.000765936 -1.74556e-07 1.86326e-07)
(-0.00332942 0.00335153 0.00110685)
(-0.0112863 -0.000380025 -0.000275703)
(0.00183241 -0.00299929 5.59324e-06)
(0.0181723 0.00583989 -1.42286e-05)
(0.0135842 0.000329213 0.000228615)
(-0.00887284 0.000486712 -7.16403e-05)
(0.000505891 -0.00040284 -2.49382e-05)
(0.000664932 8.06712e-05 2.36675e-05)
(0.000859694 3.9003e-05 -2.37193e-06)
(0.000820133 1.74607e-05 -2.18589e-07)
(0.00082518 1.30131e-05 8.46559e-08)
(0.000822401 8.15391e-06 6.05066e-09)
(0.000820988 4.9935e-06 4.85646e-08)
(0.000819283 3.21131e-06 5.00112e-08)
(0.000817658 2.08316e-06 5.13983e-08)
(0.000816032 1.29989e-06 5.17854e-08)
(0.000814388 7.21822e-07 5.45052e-08)
(0.000812927 4.10152e-07 7.95505e-08)
(0.000811463 2.76022e-07 1.01022e-07)
(0.000809979 1.71539e-07 3.10139e-08)
(0.000808181 3.09767e-07 -4.71318e-08)
(0.000806433 5.42376e-08 4.87668e-08)
(0.000805066 1.22989e-07 1.21315e-08)
(0.000803601 5.74476e-08 5.82468e-08)
(0.000802096 1.77173e-07 6.22694e-09)
(0.000800446 1.96249e-07 1.7744e-07)
(0.000798814 -7.50111e-09 5.09608e-08)
(0.00079759 -6.88883e-08 6.68011e-08)
(0.00079582 -3.99156e-07 3.46801e-08)
(0.000793997 -6.1216e-07 2.45558e-08)
(0.000793161 -3.27574e-07 1.38339e-07)
(0.000791774 -1.06293e-07 8.85656e-08)
(0.000790046 -7.13729e-08 5.23023e-08)
(0.000788524 -1.24531e-07 4.58616e-09)
(0.000787179 -1.87431e-07 5.33254e-08)
(0.00078582 -3.8838e-08 5.42e-08)
(0.000784343 4.44086e-08 -8.09103e-10)
(0.000782796 2.09769e-08 6.63465e-08)
(0.000781165 1.43494e-07 5.46458e-08)
(0.00077992 2.67129e-07 1.39886e-08)
(0.000778556 1.66227e-07 4.4277e-08)
(0.00077691 1.17928e-07 -2.69877e-10)
(0.000775419 -8.20027e-09 6.56061e-08)
(0.00077402 -1.2142e-07 4.47608e-08)
(0.000772527 -1.01651e-07 8.60715e-09)
(0.000770861 -1.15661e-08 4.82052e-08)
(0.000769601 -2.97773e-08 -1.41855e-07)
(0.00076868 -3.11073e-07 6.84737e-08)
(0.000767603 -2.27942e-07 2.32118e-08)
(0.000766233 -3.2507e-07 7.38307e-08)
(0.00691975 -0.00301632 -3.75448e-05)
(0.00387713 -0.00491844 0.000622283)
(-0.00716581 -0.000980734 -3.28297e-05)
(0.00199496 -0.00945845 1.54033e-05)
(0.00307664 0.0012457 5.23153e-05)
(0.00366361 0.00286234 -0.000212072)
(0.00342563 0.000776344 0.000171416)
(0.000421439 4.55118e-05 2.39187e-05)
(0.000840452 2.62126e-05 -1.75718e-06)
(0.000804924 1.46048e-05 -2.21695e-07)
(0.000817081 1.02249e-05 1.52088e-07)
(0.000817008 6.55163e-06 5.20446e-08)
(0.000817676 4.25292e-06 6.23081e-08)
(0.000817179 2.71167e-06 5.38443e-08)
(0.000816345 1.73425e-06 5.3732e-08)
(0.000815168 1.07762e-06 5.42192e-08)
(0.000813928 8.43445e-07 1.18785e-07)
(0.000812623 6.61113e-07 1.01837e-07)
(0.000811246 3.97929e-07 -1.64604e-07)
(0.000809725 2.37575e-07 3.92615e-08)
(0.0008081 4.88138e-08 4.90612e-08)
(0.000806686 1.76659e-07 6.53026e-08)
(0.000805111 -2.08404e-08 5.89947e-08)
(0.000803566 3.11072e-09 4.95776e-08)
(0.000802114 -1.84333e-07 6.103e-08)
(0.000800317 -2.49126e-07 1.44561e-08)
(0.000798779 -8.79387e-08 2.97373e-08)
(0.000797084 -2.05257e-08 7.47044e-08)
(0.000795578 -2.16993e-07 3.46108e-08)
(0.000794764 3.0007e-07 5.60559e-08)
(0.000793315 4.24629e-07 9.96113e-08)
(0.000791704 1.57795e-07 1.84548e-08)
(0.000790103 2.03181e-07 3.07595e-08)
(0.000788444 6.60351e-08 4.66646e-08)
(0.000787131 8.54397e-08 4.9721e-08)
(0.000785725 -2.97527e-08 6.18955e-08)
(0.000784195 -6.91605e-08 5.58693e-08)
(0.000782838 -1.6667e-07 6.50815e-08)
(0.00078157 8.50818e-08 4.2624e-08)
(0.000779881 1.60184e-07 5.18369e-08)
(0.000778239 -5.21433e-08 7.77435e-08)
(0.000776856 6.64601e-09 4.10121e-08)
(0.00077538 -1.26766e-10 1.93037e-08)
(0.000774015 -4.71287e-08 4.72645e-08)
(0.000772678 -4.94065e-08 4.90012e-08)
(0.000771161 1.42481e-07 4.6734e-08)
(0.00076937 4.88422e-07 6.11318e-08)
(0.000768377 6.27414e-07 7.35725e-08)
(0.000767503 1.41815e-07 5.34855e-08)
(0.000766627 -6.42198e-08 9.96939e-09)
(0.00465702 0.00317502 -0.000241641)
(-0.0556536 0.00419108 0.0119048)
(0.0455378 0.00335415 -0.00972287)
(-0.00115974 0.00850524 0.00077495)
(0.000124633 7.3992e-05 0.000360152)
(-0.000462663 0.00146441 0.000162176)
(-0.000118346 -0.000330561 3.83276e-05)
(0.000457808 8.95894e-06 4.58889e-07)
(0.000853477 1.19203e-05 -1.63816e-06)
(0.000799734 6.53045e-06 -2.69151e-07)
(0.000814889 4.19026e-06 1.32867e-07)
(0.000814795 2.81737e-06 2.66476e-08)
(0.000816101 1.885e-06 5.29702e-08)
(0.00081608 1.12115e-06 5.24871e-08)
(0.000815581 7.77741e-07 5.62195e-08)
(0.000814897 6.89476e-07 1.29582e-07)
(0.000813853 5.21512e-07 -8.02237e-09)
(0.00081236 2.83894e-07 3.29657e-07)
(0.000810927 2.14614e-07 5.01329e-08)
(0.000809539 1.05063e-07 9.69704e-08)
(0.000808103 9.98078e-08 4.72979e-08)
(0.000806345 -4.32173e-08 6.20811e-08)
(0.000804849 -1.26254e-07 3.77812e-08)
(0.000803398 -1.40332e-07 5.18753e-08)
(0.000801782 -2.27543e-07 1.71107e-08)
(0.000800569 -2.71963e-07 -9.68063e-08)
(0.000799102 -1.09078e-07 1.64515e-08)
(0.000797431 -9.96654e-08 3.71247e-07)
(0.000796221 7.68081e-08 1.07305e-07)
(0.000794799 3.1622e-07 5.2494e-08)
(0.000792982 2.1958e-07 1.10032e-07)
(0.000791495 1.10989e-07 6.05631e-08)
(0.000789931 -1.75476e-07 -2.08921e-07)
(0.000788376 -8.96777e-08 -2.22797e-08)
(0.00078706 -6.40357e-08 2.45265e-08)
(0.000785627 -1.86572e-07 1.13885e-08)
(0.000784173 -1.33621e-07 -4.07193e-08)
(0.00078299 -1.35092e-07 4.51094e-08)
(0.000781573 -3.86183e-07 8.61981e-08)
(0.000779748 -5.45275e-07 3.60449e-08)
(0.000778364 -2.22157e-07 5.30471e-08)
(0.000776975 -1.29753e-07 4.26142e-08)
(0.000775352 1.47149e-07 4.57804e-08)
(0.000773959 1.5397e-07 6.09016e-08)
(0.000772764 2.71337e-07 7.33692e-08)
(0.000771531 2.63209e-07 -4.27727e-09)
(0.000770204 4.69464e-07 3.10094e-08)
(0.000768243 1.08796e-06 2.50728e-08)
(0.000766739 8.06772e-07 -8.70411e-08)
(0.000766133 3.98655e-07 9.33463e-08)
(0.00246635 0.00340186 -0.000152713)
(0.00745873 -0.0113199 0.00186316)
(0.00822685 -0.0383035 0.000783213)
(0.00143729 0.0158068 0.000750373)
(0.00802022 0.00728611 -0.000915882)
(-0.000928592 -0.00164235 0.000259755)
(0.00153296 -0.000188295 -2.85427e-05)
(0.000443874 -8.65097e-06 8.57705e-07)
(0.000827267 -1.65808e-05 -1.41929e-06)
(0.000794824 -5.42483e-06 -2.66195e-07)
(0.000812276 -3.99076e-06 2.0589e-07)
(0.000814021 -2.41996e-06 5.01861e-08)
(0.000815489 -1.50583e-06 6.70812e-08)
(0.000815752 -6.84093e-07 1.65846e-08)
(0.000815779 -3.28791e-07 4.92082e-08)
(0.00081483 -1.37609e-07 4.88945e-08)
(0.000813409 -1.59551e-07 4.79657e-08)
(0.000812231 -3.81479e-08 1.34234e-08)
(0.000811017 5.00313e-08 8.79545e-08)
(0.000809578 -7.58213e-08 4.43805e-08)
(0.000807913 -1.87152e-07 9.6172e-09)
(0.000806403 -2.57017e-07 1.01688e-07)
(0.00080499 3.56425e-08 5.48614e-08)
(0.000803442 -3.52256e-08 4.89772e-08)
(0.000801952 8.15564e-08 5.52059e-08)
(0.000800468 1.83935e-07 -3.62583e-08)
(0.000798997 7.63834e-08 1.9381e-07)
(0.000797317 1.06113e-07 4.55132e-08)
(0.000796098 3.04324e-07 -1.4028e-08)
(0.00079494 -1.19425e-07 7.34817e-08)
(0.000793056 -1.81112e-07 7.72384e-08)
(0.00079121 -1.89626e-07 4.47088e-08)
(0.000789853 -4.09137e-07 2.76756e-09)
(0.000788585 -3.31678e-07 2.32247e-08)
(0.000787012 -1.18709e-07 7.04723e-08)
(0.000785639 -5.92186e-08 4.30175e-08)
(0.000784261 -8.95861e-08 5.75629e-08)
(0.000782524 -1.4437e-07 5.08771e-08)
(0.00078106 -3.98454e-07 6.99385e-09)
(0.000780089 -5.38589e-07 6.35445e-08)
(0.000778762 -2.27213e-07 5.85233e-08)
(0.000777319 -2.01004e-07 2.89107e-08)
(0.000775735 -5.31742e-08 7.8163e-08)
(0.00077417 2.59647e-07 2.65474e-08)
(0.000772813 2.48792e-07 -2.2906e-08)
(0.000771406 2.37032e-07 4.98436e-08)
(0.000770396 1.31059e-07 1.90576e-08)
(0.000768792 5.30984e-08 2.29823e-08)
(0.000766626 4.48103e-07 -4.47457e-08)
(0.000765124 2.68825e-07 6.61325e-08)
(0.00208152 0.00310604 0.000466797)
(0.00310518 -0.00557159 -0.000983733)
(-0.00606323 -0.00105354 0.00155606)
(-0.00151788 -0.0129219 -0.00158375)
(0.00617213 -0.0181161 -0.00124201)
(0.00442881 -0.00262368 -0.000565701)
(0.000641595 -0.000143664 -2.31842e-05)
(0.00133314 -7.17699e-05 1.01773e-07)
(0.00136264 -3.55256e-05 3.38344e-07)
(0.00135057 -2.46107e-05 3.54904e-07)
(0.00135892 -1.47156e-05 3.69929e-07)
(0.00135986 -9.49905e-06 3.44579e-07)
(0.00136194 -5.98347e-06 2.61631e-07)
(0.00136166 -3.41862e-06 2.51997e-07)
(0.00136014 -2.08351e-06 3.47944e-07)
(0.00135857 -1.4486e-06 5.69839e-07)
(0.00135686 -8.29221e-07 3.43196e-07)
(0.0013548 -3.27145e-07 4.01182e-07)
(0.00135202 -3.93598e-07 3.77697e-07)
(0.0013494 -2.69446e-07 2.9377e-07)
(0.0013472 -2.16895e-07 3.29637e-07)
(0.00134506 1.96096e-07 3.37268e-07)
(0.00134254 1.87766e-08 3.19904e-07)
(0.00133984 1.37769e-07 2.92433e-07)
(0.00133754 2.29126e-07 3.47767e-07)
(0.00133503 2.1903e-07 3.35308e-07)
(0.00133245 8.99839e-08 2.98821e-07)
(0.00133036 1.35722e-07 3.44704e-07)
(0.0013274 5.50809e-07 4.09884e-07)
(0.00132444 -2.67552e-07 4.78139e-07)
(0.00132226 -1.04465e-06 2.49557e-07)
(0.00131945 -8.82026e-07 1.33229e-07)
(0.00131709 -4.71861e-07 3.73295e-07)
(0.00131548 -1.6661e-07 4.18954e-07)
(0.00131327 2.14655e-07 3.78654e-07)
(0.00131034 3.79059e-07 4.12781e-07)
(0.00130759 1.21576e-07 3.13032e-07)
(0.00130507 3.02827e-07 2.81053e-07)
(0.00130269 6.90976e-07 4.901e-08)
(0.00130088 7.93994e-07 3.49627e-07)
(0.00129878 1.69826e-07 3.3504e-07)
(0.00129611 3.81943e-08 3.41365e-07)
(0.00129416 -6.92842e-07 1.97178e-07)
(0.00129145 -4.56381e-07 7.22163e-07)
(0.00128871 -3.92e-07 3.34523e-07)
(0.00128649 -3.36497e-07 3.19246e-07)
(0.00128411 -3.42516e-07 2.98208e-07)
(0.00128196 -8.09204e-07 3.07658e-07)
(0.00127919 -7.18181e-07 2.24963e-07)
(0.00127623 -4.51828e-07 3.47472e-07)
(-0.00114852 0.000799461 -0.00608787)
(0.00190496 0.00176682 0.0193631)
(0.00056329 -0.0102203 -0.000514186)
(0.00344858 0.000330763 0.000100935)
(0.00252203 -0.00160679 -0.000659483)
(0.00235176 -0.00103592 0.000383352)
(0.00050312 -0.000289822 -0.000155209)
(0.00136692 -7.58029e-05 -1.48185e-07)
(0.00144365 -3.46037e-05 4.10371e-07)
(0.00134518 -3.27121e-05 3.36215e-07)
(0.00136922 -2.05315e-05 3.42066e-07)
(0.00136567 -1.34291e-05 3.41404e-07)
(0.00136575 -8.61241e-06 3.4164e-07)
(0.0013641 -5.79892e-06 3.40115e-07)
(0.00136211 -3.73958e-06 3.40172e-07)
(0.0013599 -2.39018e-06 2.73879e-07)
(0.00135756 -1.55707e-06 3.40685e-07)
(0.00135485 -1.20528e-06 4.74478e-07)
(0.00135241 -5.28022e-07 3.31991e-07)
(0.00135011 -2.16869e-07 3.06165e-07)
(0.00134771 1.72386e-07 -9.20362e-08)
(0.00134498 8.94844e-08 3.65561e-07)
(0.0013423 9.33888e-08 3.03313e-07)
(0.00134008 1.59515e-07 3.76205e-07)
(0.00133741 2.62407e-07 1.72401e-07)
(0.00133472 -1.64235e-07 4.66299e-07)
(0.0013324 -2.12498e-07 2.82978e-07)
(0.00133028 -4.36359e-07 3.31008e-07)
(0.00132717 -1.19937e-06 2.3471e-07)
(0.00132373 -8.94802e-07 3.11825e-07)
(0.00132182 -8.53036e-07 3.71845e-07)
(0.0013202 -4.98131e-07 2.91192e-07)
(0.00131807 5.35466e-07 6.99989e-07)
(0.00131595 8.38995e-07 9.47277e-07)
(0.00131321 1.12562e-07 3.43976e-07)
(0.0013102 6.55181e-08 3.29938e-07)
(0.00130789 2.37902e-07 3.17735e-07)
(0.00130575 3.7933e-07 3.75013e-07)
(0.00130326 6.51064e-07 3.52061e-07)
(0.00130036 8.29483e-07 2.73341e-07)
(0.00129778 3.14927e-07 3.37148e-07)
(0.00129526 -8.04608e-08 3.72121e-07)
(0.00129309 -2.72749e-07 3.44656e-07)
(0.00129154 -6.88253e-07 5.70711e-07)
(0.0012891 -2.80591e-07 3.60191e-07)
(0.00128659 -3.00787e-07 3.26622e-07)
(0.0012842 -6.18279e-08 2.87874e-07)
(0.00128174 -2.62415e-07 2.44641e-07)
(0.00127916 -5.45632e-07 3.28926e-07)
(0.0012775 -4.20964e-07 2.15571e-07)
(0.00393325 0.0067277 -0.0235711)
(0.0336787 -0.00769497 0.0278855)
(-0.010934 -0.00462626 -0.00651523)
(-0.00330908 -0.00603204 0.00164548)
(0.0031647 0.00607917 0.00030101)
(-0.00207397 -0.00236096 0.00260112)
(0.000275143 0.000317535 -6.40929e-06)
(0.00140658 -0.000100421 2.72544e-06)
(0.00147026 -7.23324e-05 -3.20105e-07)
(0.00136879 -3.91086e-05 3.40228e-07)
(0.00138328 -2.46771e-05 3.45998e-07)
(0.00137493 -1.49861e-05 3.43876e-07)
(0.00137159 -9.42298e-06 3.42585e-07)
(0.00136782 -5.95888e-06 3.42089e-07)
(0.00136445 -3.79901e-06 3.41261e-07)
(0.00136132 -2.45115e-06 3.28878e-07)
(0.00135837 -1.64032e-06 3.40558e-07)
(0.0013561 -1.11617e-06 2.17214e-07)
(0.00135327 -9.12109e-07 3.77059e-07)
(0.00135028 -4.94215e-07 3.2556e-07)
(0.00134758 -4.69397e-07 2.2917e-07)
(0.00134496 -3.80609e-07 3.33348e-07)
(0.00134262 -2.44265e-07 3.29161e-07)
(0.00134004 -2.79635e-07 -1.95858e-07)
(0.00133713 -4.6919e-07 3.20006e-07)
(0.00133444 -1.43217e-07 3.08965e-07)
(0.00133211 -8.72865e-08 3.82131e-07)
(0.00132913 -1.51405e-07 3.28979e-07)
(0.00132683 -4.68887e-07 1.82269e-07)
(0.00132488 5.13315e-07 2.23252e-07)
(0.00132276 1.193e-06 3.83035e-07)
(0.00132119 1.10408e-06 3.21483e-07)
(0.00131875 6.41148e-07 8.20715e-07)
(0.00131495 4.33794e-07 4.45493e-07)
(0.0013123 -3.29147e-08 3.67259e-07)
(0.0013105 -4.76194e-08 2.83077e-07)
(0.00130798 1.6016e-07 3.77331e-07)
(0.00130559 8.74142e-08 3.4995e-07)
(0.00130324 1.75017e-07 3.31945e-07)
(0.00130045 -1.16164e-07 4.19405e-07)
(0.00129764 4.43088e-08 6.0981e-08)
(0.00129538 1.76685e-07 3.57277e-07)
(0.0012934 6.65078e-07 5.30872e-07)
(0.00129144 5.17044e-07 3.38387e-07)
(0.0012892 4.35061e-07 3.26344e-07)
(0.00128677 3.68504e-07 3.14853e-07)
(0.00128416 4.73489e-07 3.15547e-07)
(0.00128135 2.88467e-07 3.49495e-07)
(0.001279 2.00284e-07 3.62116e-07)
(0.00127744 1.51816e-07 3.02942e-07)
(0.0114953 -0.00374883 -0.000472511)
(-0.0152262 7.58713e-05 -0.0253861)
(-0.0187933 -0.00368105 -0.00219012)
(0.00204814 0.00668754 -0.00542257)
(0.021454 -0.0045698 -0.00316861)
(0.0200007 0.0236558 0.00535279)
(0.00382932 -0.000995217 5.64141e-05)
(0.00110871 -0.000225072 6.20056e-05)
(0.00151301 -6.28896e-05 3.11414e-07)
(0.00140591 -2.11001e-05 5.81893e-07)
(0.00139976 -1.60184e-05 3.51973e-07)
(0.00138499 -9.1668e-06 3.18705e-07)
(0.00137719 -6.23769e-06 3.43566e-07)
(0.00137122 -3.80027e-06 3.42916e-07)
(0.00136656 -2.28734e-06 3.41346e-07)
(0.00136264 -1.40078e-06 3.40533e-07)
(0.00135926 -9.06302e-07 3.39933e-07)
(0.00135578 -4.75336e-07 2.52464e-07)
(0.0013532 -7.37429e-07 3.60551e-07)
(0.00135067 -7.61043e-07 3.16754e-07)
(0.00134786 -6.40618e-07 1.64101e-07)
(0.00134526 -4.05613e-07 3.35915e-07)
(0.00134243 -3.84706e-07 3.35734e-07)
(0.00133981 -2.56582e-07 3.8515e-07)
(0.00133759 -2.99597e-07 3.51804e-07)
(0.0013352 1.53758e-07 2.75256e-07)
(0.00133239 3.35246e-07 3.9877e-07)
(0.0013298 6.1018e-07 4.2942e-07)
(0.001328 1.46389e-06 3.18747e-07)
(0.00132581 1.24023e-06 4.741e-07)
(0.00132255 1.35929e-06 3.10345e-07)
(0.00131951 1.27093e-06 3.19582e-08)
(0.00131723 3.86692e-07 3.26288e-07)
(0.0013151 -4.23777e-08 3.25326e-07)
(0.00131261 3.33119e-07 2.685e-07)
(0.00131044 1.37299e-07 4.17532e-07)
(0.00130806 -1.13228e-08 3.92119e-07)
(0.00130576 -1.37643e-07 3.53436e-07)
(0.00130301 -6.31213e-07 1.98821e-07)
(0.00130019 -5.37322e-07 1.40788e-07)
(0.00129814 -2.2272e-07 3.23128e-07)
(0.00129603 1.49793e-07 3.55277e-07)
(0.00129351 5.0006e-07 5.43754e-07)
(0.00129124 5.32837e-07 1.95238e-07)
(0.00128891 -6.00011e-09 1.85715e-07)
(0.00128664 -1.59727e-08 3.20652e-07)
(0.00128409 -8.59318e-08 3.96636e-07)
(0.00128139 1.12124e-07 2.86789e-07)
(0.00127899 3.78749e-07 3.13663e-07)
(0.00127706 3.81623e-07 2.45934e-07)
(-0.00454138 0.00627946 0.00101015)
(-0.0243787 -0.0374792 0.0115249)
(-0.00382188 -0.0130855 -0.000219312)
(0.00553745 0.00608505 -0.0048349)
(-0.0217828 -0.00657201 -0.00182108)
(-0.00415596 0.00746694 -0.00232064)
(0.000114725 -0.000642413 4.67283e-05)
(0.000839687 -0.000182738 -2.45683e-05)
(0.00139812 -2.85314e-06 8.58158e-07)
(0.00142804 8.35743e-06 3.02471e-07)
(0.00139855 1.39689e-06 3.53814e-07)
(0.00138739 4.88643e-07 3.57033e-07)
(0.00137844 4.36632e-07 3.2114e-07)
(0.00137285 -4.04214e-09 3.42656e-07)
(0.0013675 -2.45591e-07 3.00127e-07)
(0.00136308 -2.53712e-07 3.31101e-07)
(0.00135954 -1.41544e-07 3.40099e-07)
(0.00135633 -7.3814e-08 3.36381e-07)
(0.00135292 2.19857e-07 3.25879e-07)
(0.00135041 1.56028e-07 3.35066e-07)
(0.00134803 -5.22626e-08 3.69469e-07)
(0.00134528 1.46049e-07 5.79262e-07)
(0.00134282 2.46368e-07 3.83052e-07)
(0.00134016 3.10183e-07 3.95817e-07)
(0.00133765 3.83993e-07 2.53155e-07)
(0.00133523 1.01018e-07 3.70451e-07)
(0.00133268 2.55403e-07 3.86558e-07)
(0.00133053 3.68765e-07 3.20892e-07)
(0.00132761 5.50854e-07 2.65358e-07)
(0.00132474 3.16877e-07 3.20309e-07)
(0.00132278 6.63766e-08 3.52415e-07)
(0.00131996 -2.16803e-07 3.21324e-07)
(0.00131711 2.96852e-07 3.10612e-07)
(0.00131488 1.67853e-07 3.30976e-07)
(0.00131253 3.06262e-07 3.41179e-07)
(0.00131007 8.51125e-08 3.23661e-07)
(0.00130763 -1.39577e-07 3.48266e-07)
(0.00130481 -1.98375e-07 3.27775e-07)
(0.00130275 -4.53968e-07 4.65103e-07)
(0.00130097 -2.66725e-07 2.30052e-07)
(0.0012985 -1.04095e-07 3.19285e-07)
(0.00129628 -1.31225e-07 1.1104e-06)
(0.00129388 -1.23085e-07 3.14528e-07)
(0.00129081 -3.51791e-08 -1.99312e-08)
(0.00128851 -2.87232e-07 3.47883e-07)
(0.00128667 -4.25752e-07 3.20523e-07)
(0.00128432 -8.65728e-07 1.11016e-07)
(0.00128193 -7.57019e-07 3.22973e-07)
(0.00127933 -4.18781e-07 3.70256e-07)
(0.00127649 1.59368e-07 4.10145e-07)
(0.002098 0.00362001 0.000396243)
(0.00970232 -0.000405898 -0.00146354)
(-0.00501089 -0.027841 0.0195536)
(0.00679957 -0.0306719 -0.0201101)
(-0.0203892 -0.000266516 0.00186695)
(-0.021548 -0.00166022 0.00418983)
(0.00265084 0.000377113 -2.10865e-07)
(0.000791392 6.80427e-05 -4.77154e-05)
(0.00135706 5.49017e-05 4.66926e-07)
(0.00141113 2.15866e-05 4.0927e-07)
(0.00139009 1.55941e-05 3.08397e-07)
(0.00138389 9.13965e-06 3.25676e-07)
(0.00137664 6.19144e-06 3.56819e-07)
(0.00137041 3.6692e-06 3.43261e-07)
(0.00136627 2.10232e-06 5.65156e-07)
(0.00136279 1.20284e-06 4.08657e-07)
(0.00135949 7.10476e-07 3.4009e-07)
(0.00135624 2.82616e-07 3.13787e-07)
(0.00135349 3.03199e-07 3.02002e-07)