/*--------------------------------*- C++ -*----------------------------------*\
| =========                 |                                                 |
| \\      /  F ield         | OpenFOAM: The Open Source CFD Toolbox           |
|  \\    /   O peration     | Version:  5.0                                   |
|   \\  /    A nd           | Web:      www.OpenFOAM.org                      |
|    \\/     M anipulation  |                                                 |
\*---------------------------------------------------------------------------*/
FoamFile
{
    version     2.0;
    format      ascii;
    class       surfaceVectorField;
    location    "4.4";
    object      Uf;
}
// * * * * * * * * * * * * * * * * * * * * * * * * * * * * * * * * * * * * * //

dimensions      [0 1 -1 0 0 0 0];

internalField   nonuniform List<vector> 
26113
(
(-0.000639032 -0.00110698 5.4697e-05)
(-0.00156167 0.00252686 0.000661575)
(0.00140336 0.00272576 0.00181855)
(-0.00157482 0.00263641 0.000202342)
(-0.00314962 0.00335718 0.00119801)
(0.000826072 -0.00422842 0.00518554)
(0.00326195 0.00409803 0.00372747)
(0.00167084 0.00364899 0.00202096)
(0.00287877 0.0099166 -0.00620029)
(0.000993871 0.00497851 0.000370064)
(-0.00158968 0.00134596 -0.000446307)
(0.00402013 -0.0060948 -0.000961116)
(-0.00453585 -0.00380477 -0.000354948)
(-1.59222e-05 0.00667162 0.00127891)
(0.00330591 -0.00553556 -0.000645819)
(-0.0015591 -0.00527014 -0.00193127)
(0.00574682 -0.00716774 0.0015301)
(0.0122315 -0.00771577 0.000586616)
(-9.79949e-05 0.00858546 0.000382047)
(0.000759263 0.00189145 3.10093e-05)
(0.00124727 0.0118966 0.00129585)
(-0.00360504 0.00572069 0.000612983)
(-0.0013144 0.00538371 0.00032601)
(-0.000112779 0.00342372 0.000556276)
(-0.000141226 0.00712406 0.000375905)
(0.00686291 -0.00338068 -0.000227518)
(0.00353331 -0.00404319 -0.00021529)
(0.00428967 -0.0150961 -0.000955489)
(-0.00349138 -0.00311924 5.12122e-05)
(0.00260742 0.000170756 0.000103204)
(0.000861219 -0.000342572 4.12526e-05)
(0.000782262 -0.000759963 7.87791e-05)
(0.00202071 -0.00223648 0.000117085)
(0.000557366 -0.000116004 5.83775e-05)
(0.000793756 -6.04981e-05 -2.07593e-06)
(0.000818507 -7.82991e-05 -2.29851e-05)
(0.000857456 -3.37531e-05 9.62308e-06)
(0.00082155 -4.23262e-05 -1.38052e-06)
(0.000573077 -3.67084e-05 -1.8163e-06)
(0.0010668 -7.12636e-05 -1.69173e-06)
(0.000556602 -3.89009e-05 -2.34895e-06)
(0.000576583 -7.4301e-05 -1.56615e-06)
(0.000964935 -6.41305e-05 2.68269e-06)
(0.00101627 -0.000143622 3.25408e-06)
(0.000548938 -4.94583e-05 -4.63029e-06)
(0.000978599 -6.29745e-05 -1.33749e-06)
(0.000923632 -7.93454e-05 -5.52682e-06)
(0.00080852 -2.49187e-05 2.65022e-08)
(0.000844415 -2.06369e-05 -5.09983e-07)
(0.00109037 -3.8255e-05 1.64173e-07)
(0.000811816 -1.6135e-05 3.74918e-08)
(0.000807458 -2.14817e-05 -2.4394e-07)
(0.00107714 -2.59463e-05 1.5037e-07)
(0.000812795 -9.93577e-06 7.74722e-08)
(0.000816834 -1.32923e-05 1.39293e-07)
(0.00108367 -1.56549e-05 1.76567e-07)
(0.000814202 -6.26099e-06 2.47245e-08)
(0.000815711 -8.78284e-06 4.39e-08)
(0.00108452 -9.97457e-06 1.71235e-07)
(0.000814933 -3.74023e-06 3.47095e-08)
(0.000816264 -5.57318e-06 3.0871e-08)
(0.0010865 -6.20543e-06 1.87057e-07)
(0.000813916 -2.19866e-06 5.77038e-08)
(0.000815493 -3.86523e-06 5.76741e-08)
(0.00108624 -3.46587e-06 1.34304e-07)
(0.000813287 -1.47875e-06 4.68439e-08)
(0.000814295 -2.44223e-06 4.94174e-08)
(0.00108507 -2.21577e-06 1.81079e-07)
(0.000812078 -1.00699e-06 4.91065e-08)
(0.000813216 -5.39175e-07 7.59262e-08)
(0.0010839 -1.59354e-06 1.73318e-07)
(0.000811051 -6.24941e-07 2.35001e-08)
(0.000811981 -1.05503e-06 5.23605e-08)
(0.0010824 -9.91187e-07 1.79324e-07)
(0.000809705 -3.18624e-07 1.9136e-08)
(0.000810724 -5.40233e-07 -8.30257e-09)
(0.00108092 -5.98376e-07 1.93548e-07)
(0.000807921 -2.87537e-07 6.47581e-08)
(0.000809011 -5.53519e-07 5.63081e-08)
(0.00107871 -2.13843e-07 2.18148e-07)
(0.000806935 -3.63609e-07 7.56627e-08)
(0.000807417 -1.23427e-07 5.65561e-08)
(0.00107684 -5.20901e-07 2.46027e-07)
(0.000805556 -2.18527e-07 4.9559e-08)
(0.000806245 -1.48115e-07 8.92216e-08)
(0.00107536 -3.81275e-07 1.34282e-07)
(0.000803915 -1.06965e-07 1.93914e-08)
(0.000804714 -1.23911e-07 4.74803e-08)
(0.00107331 -1.04903e-07 1.8874e-07)
(0.000802282 -2.98548e-08 2.42066e-08)
(0.000803131 9.23058e-08 1.97561e-08)
(0.0010711 -7.54007e-08 1.71516e-07)
(0.000800879 4.99204e-08 3.83645e-08)
(0.00080162 -2.01341e-07 4.71761e-08)
(0.00106908 6.84766e-08 1.80917e-07)
(0.000799479 6.15671e-08 3.57127e-08)
(0.000800121 1.11428e-07 4.53944e-08)
(0.00106728 1.37356e-07 1.40259e-07)
(0.000797741 4.64312e-08 4.60301e-08)
(0.000798562 1.64564e-09 5.15567e-08)
(0.00106515 1.20297e-07 1.42966e-07)
(0.000796267 6.3195e-08 5.10323e-08)
(0.000797035 7.6051e-08 1.05388e-07)
(0.00106297 8.35085e-08 1.8302e-07)
(0.00079489 2.65142e-07 7.13844e-08)
(0.000795807 -5.87692e-08 4.77001e-08)
(0.00106126 1.18272e-07 1.76845e-07)
(0.000793159 1.80612e-07 8.65215e-08)
(0.000793964 5.08462e-07 1.34744e-07)
(0.00105906 5.75499e-07 8.89215e-08)
(0.00079176 -2.37694e-07 7.8268e-08)
(0.000792094 -3.06016e-07 5.86636e-08)
(0.00105688 -1.44506e-07 2.22262e-07)
(0.000789935 -4.32074e-07 2.77285e-08)
(0.000790812 -6.32167e-07 -1.92765e-08)
(0.00105486 -5.87269e-07 3.69937e-07)
(0.000788618 -4.1391e-07 1.86366e-08)
(0.000789345 -5.17739e-07 1.0368e-09)
(0.00105264 -6.48322e-07 3.07733e-07)
(0.000787071 -1.35271e-07 7.18979e-08)
(0.000788076 2.04738e-08 9.19757e-08)
(0.00105074 -4.64092e-07 1.45974e-07)
(0.000786323 1.11587e-07 6.75971e-08)
(0.000786886 -1.96231e-06 8.8811e-08)
(0.00104938 1.01257e-07 2.33681e-07)
(0.000784886 2.13883e-07 3.63499e-08)
(0.000785484 5.47778e-08 4.75911e-08)
(0.00104797 1.96496e-07 1.72775e-07)
(0.000782685 1.67718e-07 7.28971e-08)
(0.000783791 1.07824e-07 2.55342e-08)
(0.00104544 4.04026e-07 1.33125e-07)
(0.00078104 1.49088e-07 7.81357e-08)
(0.000782145 1.96739e-07 8.10474e-08)
(0.00104284 7.43206e-08 1.83516e-07)
(0.000779418 4.5025e-07 6.2415e-08)
(0.000780712 4.32748e-07 1.60941e-08)
(0.00104058 3.43987e-07 1.53261e-07)
(0.000779304 4.42957e-07 1.00965e-07)
(0.000779332 -3.2755e-06 4.57498e-08)
(0.00103949 8.56185e-07 2.57531e-07)
(0.000777355 1.34782e-07 7.04678e-08)
(0.000777875 4.26152e-07 1.30834e-07)
(0.00103824 3.60786e-07 1.80296e-07)
(0.000775819 9.93161e-09 5.48619e-08)
(0.000776361 1.0594e-07 4.63387e-08)
(0.00103583 5.71053e-08 1.73773e-07)
(0.000774374 -1.55446e-07 4.82374e-08)
(0.000774861 -2.4118e-08 7.27918e-08)
(0.00103373 -7.49854e-09 1.74801e-07)
(0.000773528 -3.41573e-07 1.51459e-08)
(0.000773655 -2.90074e-07 2.26831e-08)
(0.00103247 -4.11539e-07 2.67081e-07)
(0.000771265 -2.68135e-07 2.53209e-08)
(0.000772417 2.10623e-06 3.55799e-08)
(0.00103026 -4.87207e-07 9.53701e-08)
(0.000769977 -7.93045e-08 4.51234e-08)
(0.00077088 -1.84998e-07 5.37133e-08)
(0.00102781 -2.2071e-07 1.75352e-07)
(0.000768724 -4.83324e-08 5.32182e-08)
(0.000769382 2.57527e-07 5.91481e-08)
(0.00102623 -4.7506e-08 1.47889e-07)
(0.000767406 -1.33972e-07 4.83735e-08)
(0.000767995 1.07406e-07 4.39968e-08)
(0.0010244 -1.36682e-07 1.7372e-07)
(0.000765951 -2.74273e-07 4.58283e-08)
(0.000766681 3.66477e-08 4.75358e-08)
(0.00102271 -2.66171e-07 1.77991e-07)
(0.000764266 -3.69415e-07 3.07157e-08)
(0.000765119 -3.56205e-07 -1.73096e-08)
(0.00102051 -5.02821e-07 2.21005e-07)
(0.000763774 9.07679e-07 6.07003e-08)
(0.00101833 -4.79258e-07 1.07898e-07)
(-0.00239659 0.00699256 0.00057499)
(-0.00319362 0.0149771 0.00165949)
(-0.00323335 0.0080927 -0.000592324)
(0.00183114 0.00549319 -0.000455609)
(0.0143804 0.00791188 -0.000753407)
(-0.00201565 0.00705653 0.035848)
(-0.00507625 0.0168339 0.0001778)
(0.0145611 0.00661212 0.00369821)
(0.0053096 0.0139488 0.00184043)
(0.00434791 0.00500177 -0.0379971)
(0.000354218 0.0171848 -0.0203315)
(0.00351909 0.0147789 0.018068)
(-0.00153263 0.00744593 -0.000131479)
(-0.0070352 0.0042188 0.00148819)
(0.00553771 0.00246512 0.00485282)
(-0.0105704 0.00573402 -0.00164905)
(0.00211639 0.000939709 -6.789e-05)
(-0.00439713 0.00338553 0.000191887)
(0.00142091 -0.00452952 -0.000277774)
(0.000262191 -0.000109333 -0.000361131)
(0.0042441 -0.00171098 0.00015729)
(0.00618613 -0.00388153 -0.000652066)
(0.00798258 0.00409036 0.000211788)
(-0.00557461 -0.000840973 -0.000240971)
(-0.00383991 -0.00114906 0.000128796)
(0.00274017 0.00094746 -1.9199e-05)
(0.00892541 -0.00161403 -3.8667e-05)
(0.000375379 -0.000360952 -0.00036727)
(0.00715954 -0.00661838 -0.000804668)
(-0.0129844 0.0042052 0.000297406)
(-0.00499063 -0.00754979 0.00093061)
(-0.00865111 0.00424127 -0.000997427)
(-0.000930993 0.00649464 3.04339e-05)
(-0.000833975 -0.00595627 -0.000193999)
(0.00298492 0.00283332 0.000641902)
(-0.00104876 -0.00173431 -0.00011295)
(-0.000827167 -0.00335448 -9.81713e-05)
(-0.00161406 0.000590376 -0.000222712)
(0.00214652 -0.00167375 -0.000170682)
(-0.00278257 -0.00148057 -0.000445746)
(-9.4514e-05 -0.00155569 2.03383e-06)
(-0.000334182 -0.000228839 -4.19569e-05)
(-0.000548117 -0.00121427 -1.81734e-05)
(-0.000351657 -0.00197332 1.7318e-05)
(-0.000507208 -0.00223541 4.61212e-05)
(0.000778496 0.000152898 2.78948e-05)
(0.00127533 0.00020098 2.99351e-06)
(0.00192146 0.000521039 5.38742e-05)
(0.00132929 0.000141662 -6.08625e-05)
(0.0012444 6.10171e-05 2.013e-05)
(0.000313436 -5.00677e-05 -2.72183e-06)
(0.000475707 -3.11553e-05 -3.5483e-06)
(0.000454639 -3.57499e-05 -5.19436e-07)
(0.00076293 -5.07495e-05 -1.51542e-06)
(0.000333887 -1.92332e-05 -2.66113e-06)
(0.000569265 -0.000112348 -3.54721e-06)
(0.000616484 -3.38041e-05 -3.65576e-06)
(0.000815752 -2.45105e-05 -7.80512e-07)
(0.000878059 -3.84462e-05 -1.58025e-06)
(0.00115842 -3.39859e-05 -1.01371e-06)
(0.00059016 -2.95391e-05 -4.05089e-06)
(0.000600572 -2.82299e-05 -4.64728e-06)
(0.000970303 -5.70107e-05 -4.94762e-06)
(0.000994381 -5.38009e-05 -5.9089e-06)
(0.000818218 -1.91e-05 -1.42265e-07)
(0.000814374 -2.49852e-05 -4.22038e-07)
(0.0010747 -3.09153e-05 6.90983e-08)
(0.000818497 -1.22738e-05 1.05752e-07)
(0.000825442 -1.60418e-05 1.65721e-07)
(0.00109378 -1.96712e-05 2.06449e-07)
(0.000817994 -7.96385e-06 5.00507e-08)
(0.000821147 -1.01522e-05 3.81294e-08)
(0.00109047 -1.28497e-05 1.79092e-07)
(0.000817068 -5.23889e-06 5.38269e-08)
(0.000819702 -6.46689e-06 5.65174e-08)
(0.00109027 -8.25408e-06 1.83735e-07)
(0.000815707 -3.46276e-06 4.93904e-08)
(0.000817734 -4.16177e-06 4.94252e-08)
(0.00108871 -5.6256e-06 1.81049e-07)
(0.000814224 -2.22674e-06 7.84911e-08)
(0.000815854 -2.58097e-06 5.09765e-08)
(0.00108685 -3.5527e-06 1.8136e-07)
(0.000813167 -1.44122e-06 7.91878e-08)
(0.000814207 -1.50197e-06 -9.60662e-09)
(0.0010852 -2.36301e-06 2.02007e-07)
(0.000811555 -9.35849e-07 2.05775e-08)
(0.000812619 -1.01057e-06 5.29743e-08)
(0.00108345 -1.47588e-06 1.809e-07)
(0.000810355 -6.68881e-07 2.88487e-08)
(0.000811062 -7.97164e-08 1.06579e-08)
(0.0010816 -1.03504e-06 1.16856e-07)
(0.000808121 -3.76842e-07 4.8106e-08)
(0.000809379 9.2268e-07 9.58332e-08)
(0.00107928 -7.50372e-07 1.36106e-07)
(0.00080687 -1.37549e-07 7.01045e-08)
(0.000807717 -5.54898e-07 3.37216e-08)
(0.00107693 -2.44152e-07 1.83196e-07)
(0.000805433 -1.29646e-07 8.71562e-08)
(0.000806255 -4.75838e-07 8.49216e-08)
(0.00107527 -1.01266e-07 1.92165e-07)
(0.000803909 -8.26461e-08 4.78538e-08)
(0.000804773 -1.44854e-07 5.37715e-08)
(0.00107323 -1.96768e-07 1.78647e-07)
(0.000802502 -2.67606e-08 4.27168e-08)
(0.0008032 2.10299e-07 5.67991e-08)
(0.00107121 3.37433e-08 1.59033e-07)
(0.00080079 -4.93984e-08 5.42066e-08)
(0.000801592 9.63492e-09 4.8323e-08)
(0.00106925 -2.5544e-08 1.79191e-07)
(0.000799263 -1.57953e-07 6.12364e-08)
(0.000799985 -2.15302e-07 6.2042e-08)
(0.00106706 -8.15654e-09 2.01003e-07)
(0.000797813 -2.611e-07 1.10898e-07)
(0.000798433 -6.21176e-08 4.83282e-08)
(0.001065 -3.19847e-07 1.76115e-07)
(0.000796482 -2.94885e-07 1.02074e-07)
(0.000796993 -6.12733e-08 1.00182e-07)
(0.00106313 -2.99306e-07 1.71028e-07)
(0.000795229 -6.16558e-07 1.11032e-07)
(0.000795407 -4.13413e-07 5.19699e-08)
(0.00106159 -4.45133e-07 1.79852e-07)
(0.000792545 -7.14897e-07 1.0691e-07)
(0.000793844 -1.55212e-06 5.35558e-08)
(0.00105887 -1.20857e-06 4.26206e-07)
(0.000791295 -4.33928e-07 -3.88564e-08)
(0.000792448 -4.74062e-07 2.57505e-08)
(0.00105603 -7.29482e-07 1.66696e-07)
(0.000790129 -2.23183e-07 -4.59746e-08)
(0.000791077 1.06938e-07 1.70591e-08)
(0.00105468 -4.68061e-07 9.53175e-08)
(0.000788777 1.53307e-07 7.43474e-08)
(0.000789816 3.47235e-07 3.95862e-08)
(0.00105302 -1.77227e-07 1.02993e-07)
(0.000787943 4.83663e-07 1.0889e-07)
(0.000788488 -2.21312e-06 6.27527e-08)
(0.00105153 5.78368e-07 2.76954e-07)
(0.000786021 3.81798e-07 6.88178e-08)
(0.000786757 -2.23991e-06 4.94181e-08)
(0.00104977 7.45037e-07 2.35035e-07)
(0.000784511 9.66002e-08 3.67823e-08)
(0.000785126 1.76609e-07 6.5612e-08)
(0.00104743 2.85717e-07 1.70031e-07)
(0.000783141 5.48123e-08 3.36673e-08)
(0.000783738 8.11624e-08 3.97773e-08)
(0.00104541 -2.22434e-08 1.68286e-07)
(0.000781832 2.5809e-07 1.9026e-08)
(0.000782398 1.63538e-07 6.06839e-08)
(0.00104362 1.8008e-07 1.63381e-07)
(0.000780572 5.81394e-07 -5.80361e-10)
(0.000781115 1.33002e-07 2.76842e-08)
(0.00104206 5.05828e-07 1.78361e-07)
(0.000778011 6.00667e-07 7.55919e-08)
(0.000779353 -9.93986e-07 1.01139e-08)
(0.00103946 1.01758e-06 1.09791e-07)
(0.000776788 2.98598e-07 1.06731e-07)
(0.000777495 3.11743e-07 1.16842e-07)
(0.00103684 5.85729e-07 1.61811e-07)
(0.000775463 6.4468e-08 6.42604e-08)
(0.000776068 -2.83218e-08 6.04951e-08)
(0.00103522 2.36357e-07 1.72643e-07)
(0.000773993 -1.75666e-07 4.7253e-08)
(0.000774561 8.86539e-08 7.27519e-08)
(0.0010333 -6.46873e-08 1.67834e-07)
(0.000772656 -4.57678e-07 4.31131e-08)
(0.000773304 -9.17892e-08 7.63792e-08)
(0.00103138 -3.87262e-07 1.4991e-07)
(0.000772056 -4.04469e-07 6.39667e-08)
(0.000772486 1.08738e-07 8.22799e-08)
(0.00103028 -8.06227e-07 2.42302e-07)
(0.000770281 -1.44093e-07 6.77364e-08)
(0.000771208 -2.8277e-07 6.23801e-08)
(0.00102863 -2.71909e-07 2.11277e-07)
(0.000768559 -2.27128e-08 4.99313e-08)
(0.000769534 -8.01786e-08 8.76274e-08)
(0.00102624 -1.55405e-07 2.2407e-07)
(0.000767333 -9.6879e-09 4.3158e-08)
(0.000768012 2.29897e-07 3.80698e-08)
(0.00102435 5.50819e-08 1.45648e-07)
(0.000765883 -1.39476e-07 -1.55824e-08)
(0.000766519 1.45228e-07 6.39069e-08)
(0.00102253 -9.31024e-08 1.67068e-07)
(0.00076449 -2.17817e-07 1.26513e-08)
(0.000765025 -9.67166e-08 -6.50555e-08)
(0.00102054 -3.07836e-07 1.51072e-07)
(0.000764044 -1.83045e-07 1.18104e-07)
(0.00101909 -3.01337e-07 2.33868e-07)
(-0.00335999 -0.00341488 -0.000606855)
(-0.0119808 0.00750971 0.00118187)
(-0.00660826 -0.000651409 -0.00067214)
(-0.00712353 -0.00733168 0.0017327)
(0.00625762 0.011415 -9.90979e-07)
(0.025437 0.00337257 -0.000529741)
(0.0220071 0.00216465 0.00214897)
(0.0283528 -0.00223111 -0.00151108)
(-0.00604072 -0.00216596 0.000302014)
(-0.0118402 -0.00283588 -0.000453989)
(-0.0123235 -0.00223423 -0.00596444)
(-0.0101159 -0.00319139 -7.64888e-05)
(-0.00648535 -0.00420311 0.00110365)
(-0.0139862 -0.00470817 0.000205861)
(-0.000876248 -0.00681331 0.000384764)
(-0.0194217 -0.000995519 -0.00116605)
(0.00364897 -0.00470461 0.000755777)
(-0.00744329 0.00581474 0.00422206)
(-0.00898019 -0.00176247 0.000320004)
(-0.0119672 0.00914768 0.00678223)
(-0.0130373 0.0142637 0.000609413)
(0.00453415 0.00367381 0.00082535)
(0.00115337 0.00637089 0.00227241)
(0.011646 0.00725621 0.00449443)
(-0.0117869 -0.000370712 0.000352155)
(-0.00777258 -0.00788501 -5.16781e-05)
(-0.00745481 -0.00644348 0.00093393)
(-0.00566634 0.00133995 -4.70501e-05)
(-0.0179553 0.00184785 0.000121054)
(-0.0148924 0.00512513 0.000454803)
(-0.00581621 0.000731321 -0.000948658)
(-0.00966749 0.00645739 -0.000215896)
(-0.00508477 -0.00163359 -3.5806e-05)
(0.0051357 -0.00456674 0.000851897)
(-0.0017449 -0.000178441 -6.07744e-05)
(0.000360745 -0.000647214 0.000112305)
(-0.0148257 -0.00170873 0.000511895)
(0.000736352 -0.000421027 1.25443e-05)
(0.000672181 -0.000238633 6.89191e-05)
(0.000484616 -0.00077641 1.48626e-05)
(0.000430162 -0.000594685 3.79909e-05)
(0.000716198 -0.000329195 5.6778e-05)
(0.000372954 -4.71531e-05 2.9349e-06)
(0.00049104 -3.33888e-05 -2.85449e-06)
(0.00079512 -7.38452e-05 2.55826e-06)
(0.000342955 -0.000105285 2.24198e-05)
(0.000697205 -7.94101e-05 9.69865e-06)
(0.000605664 -0.000123581 5.70215e-05)
(0.000466583 -3.61558e-05 1.64706e-07)
(0.000384908 -3.71793e-05 3.9158e-06)
(0.000678998 -7.54279e-05 1.25344e-05)
(0.000567383 -7.07928e-05 -1.53406e-06)
(0.000313404 -4.28738e-05 -1.97146e-06)
(0.00083353 -3.53369e-05 -1.22215e-06)
(0.00089821 -4.42003e-05 -2.07118e-06)
(0.00117991 -6.14152e-05 -1.16209e-06)
(0.000608894 -2.91728e-05 -4.36962e-06)
(0.000615179 -3.01707e-05 -4.83327e-06)
(0.00100003 -4.8622e-05 -5.2733e-06)
(0.001034 -5.13539e-05 -5.65608e-06)
(0.000830085 -2.06642e-05 -1.14245e-07)
(0.000832983 -2.12542e-05 -3.56549e-07)
(0.00109546 -3.42293e-05 8.08743e-08)
(0.000826332 -1.29084e-05 9.814e-08)
(0.000835233 -1.37084e-05 1.26164e-07)
(0.00110645 -2.17663e-05 2.04343e-07)
(0.000823028 -7.94457e-06 4.45901e-08)
(0.000827413 -8.00902e-06 1.96043e-08)
(0.00109892 -1.32259e-05 1.78824e-07)
(0.000820269 -4.99905e-06 5.21179e-08)
(0.000823422 -5.04577e-06 4.90418e-08)
(0.00109562 -8.32733e-06 1.82321e-07)
(0.000817829 -3.126e-06 5.10107e-08)
(0.000820099 -3.12027e-06 4.83086e-08)
(0.00109217 -5.2377e-06 1.81834e-07)
(0.000815686 -1.90034e-06 -3.71016e-08)
(0.000817401 -1.8838e-06 4.86648e-08)
(0.00108918 -3.25558e-06 1.80529e-07)
(0.000813737 -1.20084e-06 -3.58403e-08)
(0.000815091 -1.12463e-06 -3.95088e-08)
(0.00108652 -1.9363e-06 1.86508e-07)
(0.000812029 -8.23306e-07 4.30684e-08)
(0.000813097 -8.36449e-07 5.24554e-08)
(0.00108408 -1.3599e-06 1.80121e-07)
(0.000810227 -7.61407e-07 7.7615e-08)
(0.000811144 -7.07166e-07 5.89879e-08)
(0.00108183 -9.00099e-07 2.43801e-07)
(0.000808808 -6.5085e-07 8.14687e-08)
(0.000809521 5.89673e-07 8.29008e-08)
(0.00107971 -1.1639e-06 1.9079e-07)
(0.000807135 -3.66823e-07 4.85224e-08)
(0.000808075 -3.7471e-07 3.68262e-08)
(0.00107765 -5.84581e-07 1.77328e-07)
(0.000805548 -2.53124e-07 5.15469e-08)
(0.000806399 -5.02931e-07 5.67115e-08)
(0.00107542 -4.17835e-07 1.8434e-07)
(0.00080418 -2.09111e-07 6.27158e-08)
(0.000804829 -3.13473e-07 4.92493e-08)
(0.00107348 -2.84051e-07 1.75371e-07)
(0.000802218 -1.94732e-07 6.24081e-08)
(0.000803219 -6.16314e-07 4.35234e-08)
(0.00107131 -2.77861e-07 2.73151e-07)
(0.000800799 -1.83908e-07 5.61541e-08)
(0.000801606 -1.46013e-07 5.61802e-08)
(0.00106903 -2.16409e-07 1.79267e-07)
(0.000799089 -1.39162e-07 4.91382e-08)
(0.000800042 -3.41337e-07 4.06917e-08)
(0.00106691 -2.75889e-07 2.02974e-07)
(0.00079765 -1.0722e-07 3.7596e-08)
(0.000798473 -1.93672e-07 3.1393e-08)
(0.00106479 -1.09398e-07 1.799e-07)
(0.000795965 -1.4763e-07 5.00928e-08)
(0.000796943 1.07573e-07 5.25296e-08)
(0.00106281 -1.53142e-07 1.80567e-07)
(0.000793977 -3.10491e-07 -5.50706e-09)
(0.000795204 -2.02952e-08 5.51946e-08)
(0.00106012 -1.93847e-07 1.91754e-07)
(0.000793667 -1.20146e-07 -2.7595e-08)
(0.000794082 8.9653e-07 -1.26267e-08)
(0.00105871 -5.74509e-07 -1.0061e-07)
(0.000792361 3.0341e-07 8.16687e-08)
(0.000792977 7.9597e-07 3.40593e-08)
(0.00105781 3.24169e-07 7.01728e-08)
(0.000790626 4.36049e-07 1.02613e-07)
(0.000791241 3.70183e-07 1.09237e-07)
(0.00105555 5.92378e-07 1.79306e-07)
(0.000789597 4.48986e-07 2.79842e-08)
(0.00078983 5.50174e-07 2.42194e-08)
(0.00105395 6.74699e-07 1.21339e-07)
(0.000787398 2.88353e-07 3.28514e-09)
(0.000788285 8.86713e-10 2.25727e-08)
(0.00105189 5.5703e-07 8.23643e-08)
(0.000785746 9.7687e-08 4.62072e-08)
(0.000786518 -3.92483e-08 2.54511e-08)
(0.00104901 2.31349e-07 3.4653e-08)
(0.000784322 5.07124e-08 6.86151e-08)
(0.000785067 1.76771e-07 4.34003e-08)
(0.00104701 3.71703e-08 1.71046e-07)
(0.000782995 5.50384e-08 6.67875e-08)
(0.000783744 -1.1798e-07 1.15107e-07)
(0.00104531 6.59096e-08 1.76761e-07)
(0.000781674 -7.36723e-09 6.93524e-08)
(0.000782321 -5.11457e-08 6.69218e-08)
(0.00104349 6.57911e-08 1.77461e-07)
(0.000780183 -1.66681e-07 3.83839e-08)
(0.000780916 -9.01294e-08 5.09829e-08)
(0.00104162 -6.43409e-08 1.93496e-07)
(0.00077854 -2.0312e-07 5.13314e-08)
(0.000779308 -3.96019e-07 1.91025e-08)
(0.00103958 -3.23813e-07 1.48273e-07)
(0.000776817 -5.82796e-08 7.06242e-08)
(0.000777677 -5.33318e-07 3.61634e-08)
(0.00103725 -1.75962e-07 2.59358e-07)
(0.000775232 1.22606e-07 6.89828e-08)
(0.000776294 -1.56041e-07 4.53815e-08)
(0.00103501 1.95105e-08 1.95574e-07)
(0.000773679 4.15012e-07 1.01877e-07)
(0.000774925 -2.15093e-07 5.73789e-08)
(0.00103295 3.0062e-07 2.05443e-07)
(0.000773058 5.93621e-07 1.15544e-07)
(0.000773525 -2.54948e-06 1.16149e-07)
(0.00103155 8.03991e-07 2.77253e-07)
(0.000771943 4.15768e-07 8.06995e-08)
(0.000772261 -1.45706e-06 3.36926e-08)
(0.00103041 7.81451e-07 2.5771e-07)
(0.000770446 2.17192e-07 8.22634e-08)
(0.000770958 2.03443e-07 4.22078e-08)
(0.00102863 3.79337e-07 1.43577e-07)
(0.000768848 2.51126e-07 7.57809e-08)
(0.000769575 6.70138e-08 7.69672e-08)
(0.00102664 2.9191e-07 1.77632e-07)
(0.000767244 3.54433e-07 5.88108e-08)
(0.000768139 1.49608e-07 6.19595e-08)
(0.00102448 4.30588e-07 1.94833e-07)
(0.000765673 2.8631e-07 1.4473e-08)
(0.000766433 4.13558e-07 5.66785e-08)
(0.00102225 5.14215e-07 1.66423e-07)
(0.000764343 1.56503e-07 4.03412e-08)
(0.00076486 2.43873e-07 -6.35118e-10)
(0.00102026 2.35102e-07 1.39297e-07)
(0.000763849 -1.26042e-06 1.37957e-07)
(0.00101909 1.75768e-07 2.0897e-07)
(-0.00395446 -0.00759992 0.00327913)
(0.00332936 0.00123467 0.000799832)
(0.00886718 -0.00195121 -0.00050078)
(0.0186087 0.0114313 0.00514317)
(0.00533231 -0.00045353 0.00144033)
(0.000885653 0.00441801 -0.00693955)
(0.00170496 -0.00799312 0.000129181)
(0.00744968 -0.00950651 -0.00263031)
(0.0135458 -0.010499 0.000308498)
(-0.00663951 -0.00262386 0.00157362)
(0.00957326 0.0112387 -0.00128671)
(-0.00549076 -0.00109252 0.0013296)
(0.016901 0.00376704 0.000282541)
(0.00584381 -0.0105336 0.000759165)
(-0.00209643 -0.0132179 0.00149494)
(0.00322746 -0.0118435 -0.000304)
(0.0113614 -0.00552806 0.00175095)
(0.00192491 -0.00685854 -0.000296603)
(-0.0113456 0.0113162 0.000215654)
(-0.018043 0.000713605 -0.00200504)
(-0.0106974 -0.00520248 -0.00159961)
(-0.00102983 -0.00655005 -0.000165586)
(0.00225358 -0.00912667 6.51552e-05)
(0.00276876 -0.0111314 -0.0001533)
(0.00169823 -0.00111378 0.000185905)
(-0.00259013 -0.00356897 -0.000310422)
(-0.00323698 0.000581247 0.000252603)
(0.00230001 -0.00256634 0.000216857)
(0.000864542 -0.00315807 0.000305888)
(0.00536205 -0.00129039 -0.000133982)
(0.00401977 -0.00151422 0.000246577)
(0.013876 -0.00723264 0.000265959)
(0.0109044 -0.00162286 -4.85401e-05)
(0.00354728 -0.00188927 9.18471e-05)
(0.00929762 -0.00314994 -0.000437392)
(0.0153416 0.00164258 0.000344674)
(0.00164256 -8.85252e-06 -5.86498e-05)
(0.0011796 -0.000151783 4.88024e-06)
(0.00183866 -0.000428555 -2.97631e-05)
(0.00233998 -0.000799516 4.42801e-05)
(0.000820843 -0.000524451 3.0103e-06)
(0.00109572 0.000189938 -4.95253e-05)
(0.000814224 -0.000674898 4.87282e-05)
(0.00140469 -0.000309628 -2.42054e-06)
(0.00113237 4.07414e-06 8.58185e-06)
(0.00140512 9.46142e-05 -9.38693e-06)
(0.000920324 4.20413e-08 -2.55291e-05)
(0.000758215 -0.000281317 8.38166e-05)
(0.000845034 -0.000248304 -1.98687e-05)
(0.00083709 -0.000253289 5.60617e-05)
(0.0011491 -0.000135451 1.76481e-05)
(0.00043553 -0.000105414 2.7882e-05)
(0.000496522 -0.00017487 4.64669e-05)
(0.000629397 -0.000179333 7.48206e-05)
(0.000319188 -8.91436e-05 1.91687e-05)
(0.000860196 -2.52347e-05 -1.20613e-06)
(0.000879807 -2.18413e-05 -2.86539e-06)
(0.00121331 -5.19458e-05 -1.349e-06)
(0.000631251 -3.18485e-05 -4.97664e-06)
(0.000652462 5.5719e-06 -4.81263e-06)
(0.00105023 -5.86251e-05 -5.18227e-06)
(0.00111198 2.99568e-05 -2.77248e-06)
(0.000844406 -1.12183e-05 -1.16299e-07)
(0.000850593 -2.0656e-06 -8.45633e-09)
(0.00112502 -1.82489e-05 8.17594e-08)
(0.000834577 -7.56287e-06 4.76631e-08)
(0.000839875 -3.65036e-06 -7.74311e-10)
(0.0011203 -1.3476e-05 1.96773e-07)
(0.000827611 -4.56584e-06 2.40465e-08)
(0.000831207 -9.25223e-07 1.47359e-07)
(0.00110744 -7.78562e-06 1.5476e-07)
(0.000823027 -2.8575e-06 4.52327e-08)
(0.000825586 -1.33055e-06 9.37563e-08)
(0.00110036 -5.06848e-06 1.81871e-07)
(0.000819537 -1.60302e-06 4.59625e-08)
(0.000821685 -7.51183e-07 4.65035e-08)
(0.00109512 -2.9994e-06 1.80936e-07)
(0.000816724 -8.37281e-07 4.62861e-08)
(0.000818369 -4.05222e-07 3.68257e-08)
(0.00109101 -1.57716e-06 1.84493e-07)
(0.000814347 -4.86359e-07 4.87572e-08)
(0.000815535 -1.35753e-07 1.57399e-08)
(0.0010876 -8.61599e-07 1.8125e-07)
(0.00081232 -3.19138e-07 6.83727e-08)
(0.00081331 -4.15141e-07 4.69927e-08)
(0.00108477 -5.65661e-07 1.9058e-07)
(0.000810144 -2.32256e-07 6.4266e-08)
(0.000811255 -1.4015e-08 6.65942e-08)
(0.00108186 -3.51675e-07 1.84901e-07)
(0.00080895 -3.24297e-07 3.8273e-08)
(0.000809408 6.22678e-08 8.1053e-08)
(0.00107968 -3.19098e-07 1.84673e-07)
(0.0008073 -3.41189e-07 4.50089e-08)
(0.000808056 -2.99778e-07 7.60547e-08)
(0.00107787 -5.95564e-07 1.82691e-07)
(0.000805665 -2.25722e-07 5.44163e-08)
(0.000806545 -1.0841e-07 6.17177e-08)
(0.00107565 -3.59984e-07 1.59221e-07)
(0.000803907 -2.45114e-07 3.00586e-08)
(0.000804806 -6.78787e-08 3.80012e-08)
(0.0010734 -2.9287e-07 1.80462e-07)
(0.000802527 -1.93703e-07 3.72914e-08)
(0.000803285 -4.57657e-08 2.20313e-08)
(0.0010713 -3.96903e-07 1.25073e-07)
(0.000800924 -9.12348e-08 4.07227e-08)
(0.000801735 -5.75867e-08 7.91164e-08)
(0.00106926 -1.58409e-07 1.78337e-07)
(0.000799365 3.18726e-08 2.29495e-08)
(0.000800196 1.32796e-08 4.66635e-08)
(0.0010672 -1.34614e-07 1.56091e-07)
(0.000797763 2.04676e-07 4.63199e-08)
(0.000798689 -3.35302e-08 4.88727e-08)
(0.00106516 1.76667e-07 1.73779e-07)
(0.000796304 3.62012e-07 5.76306e-08)
(0.000797138 5.66947e-08 6.49855e-08)
(0.00106303 3.49605e-07 1.76255e-07)
(0.00079492 7.1931e-07 4.80964e-08)
(0.000795648 6.03185e-07 5.76888e-08)
(0.00106107 6.31448e-07 1.22421e-07)
(0.000793751 7.50594e-07 4.90129e-08)
(0.000794118 7.74651e-07 1.32787e-07)
(0.00105951 1.35625e-06 1.56272e-07)
(0.00079179 4.54368e-07 6.16039e-08)
(0.000792603 -9.68644e-08 6.82861e-08)
(0.00105748 7.61502e-07 2.80671e-07)
(0.000790377 4.52178e-07 3.08703e-08)
(0.000791235 3.63835e-07 6.18825e-08)
(0.00105511 5.99221e-07 1.69931e-07)
(0.000788675 2.48333e-07 1.88084e-08)
(0.000789572 -6.2624e-07 2.11701e-08)
(0.00105297 7.61472e-07 2.78605e-07)
(0.000787274 -5.84019e-08 4.47378e-08)
(0.0007879 -1.12597e-07 9.76778e-08)
(0.00105097 3.45704e-08 1.7669e-07)
(0.000785812 -4.39606e-08 2.26386e-08)
(0.000786535 3.65994e-08 4.75936e-08)
(0.00104912 -1.08963e-07 1.68927e-07)
(0.000784531 5.19654e-09 8.98697e-08)
(0.000785128 -1.43053e-07 2.47936e-08)
(0.00104722 3.55887e-08 1.81171e-07)
(0.000783014 -2.48316e-08 1.15256e-07)
(0.000783706 -1.17388e-07 1.13915e-07)
(0.00104545 9.9275e-09 1.79392e-07)
(0.000781599 -1.09746e-07 4.85573e-08)
(0.000782215 -1.29272e-07 4.01632e-08)
(0.00104346 -7.11826e-08 1.76149e-07)
(0.000780108 -2.50676e-07 3.17114e-08)
(0.00078074 5.92669e-08 4.82124e-08)
(0.00104157 -2.26005e-07 1.66806e-07)
(0.000778351 -3.42669e-07 3.92915e-09)
(0.000779195 -2.8439e-07 2.97266e-08)
(0.00103933 -4.65979e-07 1.93426e-07)
(0.00077715 -1.97164e-07 1.09179e-08)
(0.00077786 6.90559e-07 -7.4591e-08)
(0.00103727 -4.9331e-07 6.35399e-08)
(0.000776027 6.85141e-08 3.37739e-08)
(0.000776626 -2.27287e-07 4.91967e-08)
(0.00103581 -6.30092e-08 1.49921e-07)
(0.000774731 3.77331e-07 7.16331e-08)
(0.00077531 1.07789e-07 7.15659e-08)
(0.00103428 2.46701e-07 1.37098e-07)
(0.000772688 5.19055e-07 3.43229e-08)
(0.000773701 -4.96747e-08 6.905e-08)
(0.00103198 7.57259e-07 4.72403e-08)
(0.00077128 3.08223e-07 -4.80158e-09)
(0.000771996 7.6911e-08 1.4396e-08)
(0.00102975 6.20604e-07 5.9598e-08)
(0.000770146 1.26487e-07 3.6901e-08)
(0.000770729 9.73373e-08 7.88759e-08)
(0.00102801 2.06465e-07 1.53619e-07)
(0.000768832 1.20745e-07 6.31504e-08)
(0.000769568 7.86683e-09 4.76622e-08)
(0.0010263 1.27206e-07 1.66772e-07)
(0.000767466 2.34293e-07 5.98288e-08)
(0.000768281 9.65752e-07 4.41691e-08)
(0.00102462 1.62125e-07 1.07863e-07)
(0.000765453 2.83629e-07 4.15878e-08)
(0.000766494 1.16565e-06 3.87731e-08)
(0.00102228 3.97701e-07 1.71499e-07)
(0.000764272 2.65555e-07 9.69383e-08)
(0.000764834 -2.24743e-08 5.47917e-08)
(0.00102011 3.1899e-07 1.70065e-07)
(0.000763518 -1.35801e-06 1.00072e-07)
(0.00101858 3.80737e-07 1.91458e-07)
(-0.00477297 -0.0031953 0.00021987)
(-0.00388442 0.00602811 0.000345293)
(-0.0037133 0.00524092 0.000195538)
(0.0026667 -0.000377698 -0.00218348)
(-0.00860877 -0.000220552 -0.00300945)
(-0.00239792 -0.000227665 0.00558779)
(-0.0115338 -0.00876347 1.85756e-06)
(-0.00741971 -0.00473461 -0.000242238)
(-0.0186159 -0.0230638 0.0104681)
(-0.00647522 -0.00901186 -0.00807574)
(-0.00918147 -0.00346226 -0.000508703)
(-0.00710918 -0.00681791 -0.00254324)
(-0.00117855 -0.00498322 -1.34001e-05)
(-0.0124258 -0.014862 -0.00044355)
(-0.00182162 -0.00415374 0.00116656)
(-0.00282777 -0.0124043 6.38799e-05)
(-0.0042162 -0.0081258 -0.00105014)
(-0.00886462 -0.00598083 -0.000850198)
(-0.00139578 -0.010074 -0.000257738)
(0.00511073 -0.0139887 0.000133696)
(0.000991515 -0.0147439 -7.83807e-05)
(0.0148947 -0.0120974 0.00218395)
(0.00173595 -0.00881408 -0.000275059)
(-0.00411102 -0.0032407 -0.000490422)
(-0.00943024 -0.01251 -0.00103738)
(-0.00938344 -0.00214282 0.000427015)
(0.0160477 0.00426963 -0.000549595)
(0.0121601 -0.00296292 -0.000346797)
(0.0286081 0.0142009 0.000925504)
(0.0157836 -0.0011714 7.40487e-06)
(-0.031741 0.00161148 0.00174571)
(-0.0308651 -0.000437019 0.0034991)
(-0.0056915 0.0293607 -0.00415765)
(-0.00341171 0.014056 -0.0158851)
(-0.0191049 -0.00832868 -0.00167743)
(-0.0107142 -0.00160081 -0.00221306)
(-0.0177211 0.00583105 0.00266382)
(-0.00477491 -0.00278274 -0.00102578)
(-0.00376121 -0.00758073 -0.000877374)
(-0.0120648 0.00583786 0.000159674)
(-0.023642 -0.00715142 -0.0608959)
(-0.0292637 -0.00987153 0.0133494)
(-0.037193 -0.03115 0.0199589)
(-0.0290657 -0.00871614 0.0311742)
(-0.00782205 0.00718447 -0.000693279)
(-0.0492622 -0.00441951 -0.00600532)
(-0.0430507 -0.0190127 -0.0133187)