/*--------------------------------*- C++ -*----------------------------------*\
| =========                 |                                                 |
| \\      /  F ield         | OpenFOAM: The Open Source CFD Toolbox           |
|  \\    /   O peration     | Version:  5.0                                   |
|   \\  /    A nd           | Web:      www.OpenFOAM.org                      |
|    \\/     M anipulation  |                                                 |
\*---------------------------------------------------------------------------*/
FoamFile
{
    version     2.0;
    format      ascii;
    class       surfaceVectorField;
    location    "4.4";
    object      Uf_0;
}
// * * * * * * * * * * * * * * * * * * * * * * * * * * * * * * * * * * * * * //

dimensions      [0 1 -1 0 0 0 0];

internalField   nonuniform List<vector> 
26113
(
(-0.00374584 -0.00132546 0.000119763)
(-0.00186527 0.00389932 0.00134111)
(-9.85361e-06 0.00350989 0.000425595)
(-0.00186527 0.00389932 0.00134111)
(-0.00186527 0.00389932 0.00134111)
(-0.00186527 0.00389932 0.00134111)
(-9.85361e-06 0.00350989 0.000425595)
(-9.85361e-06 0.00350989 0.000425595)
(-9.85361e-06 0.00350989 0.000425595)
(0.000497973 0.00457619 0.000344407)
(-0.0019998 -0.00112976 -0.00032403)
(0.000556501 -0.00590367 -0.00118749)
(-0.00539031 -0.00388258 -0.000318205)
(-0.0013356 0.00684426 0.00117805)
(0.001925 -0.00556394 -0.000621409)
(-0.00374025 -0.00647669 -0.000891755)
(0.00200572 -0.00698595 0.000838696)
(0.00941871 -0.00918105 0.00112786)
(-0.000137471 0.00847267 0.000323678)
(0.000209144 0.0015513 -1.31803e-05)
(0.00076229 0.0118535 0.00111832)
(-0.00367674 0.00534988 0.000553555)
(-0.00173404 0.00529464 0.000293099)
(-0.000511077 0.00266589 0.000345866)
(-0.000716719 0.00673913 0.000321422)
(0.00650755 -0.00300664 -0.00022145)
(0.00333918 -0.00391947 -0.000205791)
(0.00425778 -0.0158248 -0.000964346)
(-0.0039521 -0.0027034 4.86626e-05)
(0.00253823 0.000271799 9.94505e-05)
(0.000855706 -0.000277676 4.26115e-05)
(0.000756429 -0.000737675 7.69442e-05)
(0.0021072 -0.00219024 0.000113908)
(0.000593068 -7.83644e-05 5.95623e-05)
(0.000823296 -4.76748e-05 -1.26286e-06)
(0.000853461 -5.52099e-05 -2.27486e-05)
(0.000888277 -2.47933e-05 1.03217e-05)
(0.000828074 -3.54932e-05 -1.36823e-06)
(0.000583097 -3.23619e-05 -1.85087e-06)
(0.00107217 -5.94319e-05 -1.64697e-06)
(0.00056739 -3.39836e-05 -2.41704e-06)
(0.000585459 -6.63726e-05 -1.72311e-06)
(0.000970245 -5.1805e-05 2.33692e-06)
(0.00101544 -0.000125554 2.95907e-06)
(0.000560158 -4.34326e-05 -4.54555e-06)
(0.000984485 -5.48708e-05 -1.54714e-06)
(0.000934306 -7.00839e-05 -5.38349e-06)
(0.000815909 -2.01443e-05 -2.82246e-09)
(0.000850075 -1.56804e-05 -5.49716e-07)
(0.00109411 -2.97053e-05 1.59839e-07)
(0.00081796 -1.3128e-05 1.88415e-08)
(0.00081398 -1.73162e-05 -2.57519e-07)
(0.00108302 -2.05059e-05 1.58029e-07)
(0.000817666 -8.09635e-06 7.81475e-08)
(0.000821761 -1.04076e-05 1.3442e-07)
(0.00108876 -1.22842e-05 1.76442e-07)
(0.000818023 -5.16446e-06 2.40734e-08)
(0.000819632 -6.8614e-06 4.42437e-08)
(0.00108887 -7.91892e-06 1.71626e-07)
(0.000817912 -3.14727e-06 3.68518e-08)
(0.000819404 -4.28781e-06 2.83211e-08)
(0.00109009 -4.98642e-06 1.83257e-07)
(0.000816852 -1.85157e-06 6.30339e-08)
(0.000818272 -2.90749e-06 6.3068e-08)
(0.0010896 -2.86162e-06 2.29418e-07)
(0.000815566 -1.18025e-06 1.53127e-07)
(0.00081686 -1.84527e-06 5.0338e-08)
(0.0010882 -1.74087e-06 1.85422e-07)
(0.00081456 -7.5582e-07 1.56006e-07)
(0.000815499 -1.6268e-06 1.52752e-07)
(0.00108683 -1.20537e-06 2.14469e-07)
(0.000813317 -3.90836e-07 7.91134e-08)
(0.000814149 -7.33283e-07 5.23754e-08)
(0.00108542 -6.89297e-07 1.8292e-07)
(0.000811781 -2.52788e-07 6.60075e-08)
(0.000812599 -4.41009e-07 1.04863e-07)
(0.00108371 -2.79671e-07 2.27085e-07)
(0.000809995 -2.1719e-07 4.24642e-08)
(0.000810993 7.9783e-07 5.17947e-08)
(0.00108145 -3.33495e-07 1.07228e-07)
(0.000808552 -1.53314e-07 5.66871e-08)
(0.00080949 -2.97632e-07 4.17396e-08)
(0.00107932 -2.15199e-07 1.7888e-07)
(0.000807166 -2.57559e-08 6.35484e-08)
(0.000808055 -6.61199e-09 4.04782e-08)
(0.00107754 -1.81284e-07 2.1066e-07)
(0.000806028 3.53703e-08 5.63587e-08)
(0.00080659 -5.3263e-07 6.56204e-08)
(0.00107584 1.45167e-07 1.6247e-07)
(0.00080422 1.85206e-08 4.32082e-08)
(0.000805037 2.55841e-07 5.1771e-08)
(0.00107383 -2.37898e-09 1.83442e-07)
(0.00080274 7.62685e-08 5.07673e-08)
(0.00080352 -8.46025e-08 7.32622e-08)
(0.00107165 9.91859e-08 1.80951e-07)
(0.000801323 7.88217e-08 6.13187e-08)
(0.000802006 -2.24299e-07 1.93997e-08)
(0.0010698 1.60535e-07 1.89307e-07)
(0.00079979 4.44691e-08 5.9474e-08)
(0.000800471 1.76426e-07 1.1667e-07)
(0.0010678 1.4236e-07 1.89315e-07)
(0.000798306 4.93574e-08 5.31791e-08)
(0.000799006 8.59895e-08 4.2396e-08)
(0.00106573 5.66091e-08 1.79605e-07)
(0.000796964 2.02725e-07 6.83851e-08)
(0.000797707 -1.12389e-07 4.86908e-08)
(0.00106404 1.0561e-07 1.83961e-07)
(0.000794908 1.00783e-07 1.27026e-07)
(0.00079589 -6.34201e-07 4.1499e-08)
(0.00106167 4.40421e-07 3.16308e-07)
(0.000793598 -3.68496e-07 5.49546e-08)
(0.00079398 1.67352e-07 1.28475e-07)
(0.00105932 -1.98082e-07 1.3649e-07)
(0.000792088 -5.60837e-07 -3.04282e-08)
(0.000792738 2.13482e-06 4.13236e-08)
(0.00105758 -8.26593e-07 -1.37087e-08)
(0.000790438 -3.9926e-07 3.83726e-08)
(0.000791415 1.11528e-06 1.69325e-08)
(0.00105533 -6.97569e-07 9.0738e-08)
(0.000789199 -2.09009e-07 6.81072e-08)
(0.000790044 1.57495e-07 1.51175e-07)
(0.00105342 -3.78599e-07 1.94553e-07)
(0.000788171 -1.89869e-08 7.53245e-08)
(0.000788901 2.55325e-07 1.76842e-07)
(0.00105211 -1.49621e-07 1.16505e-07)
(0.000786502 1.38557e-07 1.07951e-07)
(0.000787403 1.71092e-07 7.124e-08)
(0.00105034 1.54692e-07 1.75834e-07)
(0.000784824 1.19216e-07 7.76034e-08)
(0.000785626 1.40563e-07 7.79205e-08)
(0.001048 2.80735e-07 1.91199e-07)
(0.000783353 1.04933e-07 3.17547e-08)
(0.000784145 1.84528e-07 3.60845e-08)
(0.00104583 8.87787e-08 1.71409e-07)
(0.000781944 2.61757e-07 -2.79231e-08)
(0.000782759 1.85557e-07 4.48992e-08)
(0.00104384 2.28371e-07 1.64037e-07)
(0.000780282 4.28165e-07 -5.17886e-09)
(0.000781278 3.60803e-07 -2.31433e-08)
(0.00104188 5.30322e-07 1.87795e-07)
(0.000779552 2.90038e-07 7.23849e-08)
(0.000779853 -1.22807e-06 4.72544e-08)
(0.00104042 6.40346e-07 1.98212e-07)
(0.000777968 5.51614e-08 6.72407e-08)
(0.00077848 1.87269e-07 6.18305e-08)
(0.00103879 1.31541e-07 1.74433e-07)
(0.000776567 -2.06507e-07 3.40053e-09)
(0.000776929 4.43101e-08 7.0533e-08)
(0.00103665 2.76189e-08 1.53942e-07)
(0.0007751 -3.55317e-07 9.25492e-08)
(0.000775646 1.18699e-06 -1.9879e-08)
(0.00103504 -5.61519e-07 6.26634e-08)
(0.000773569 -2.57005e-07 1.41903e-07)
(0.000774376 -4.47611e-07 1.77446e-07)
(0.00103289 -3.68387e-07 1.88922e-07)
(0.000771997 -2.10091e-07 4.73396e-08)
(0.000772833 -6.58619e-08 4.6661e-08)
(0.00103072 -3.12802e-07 1.7283e-07)
(0.000770732 -2.01651e-07 5.42238e-08)
(0.000771406 -2.18103e-08 5.64781e-08)
(0.00102894 -2.61531e-07 1.58436e-07)
(0.000769277 -3.70102e-07 4.61366e-08)
(0.000769975 -2.97628e-08 4.79785e-08)
(0.00102704 -2.79631e-07 1.73633e-07)
(0.000767855 -4.83542e-07 1.22066e-08)
(0.000768574 -3.68507e-07 4.19555e-08)
(0.0010253 -6.66377e-07 1.68523e-07)
(0.000766128 -3.49047e-07 2.42334e-08)
(0.000766985 9.11366e-07 1.93352e-08)
(0.00102309 -5.80845e-07 9.6001e-08)
(0.000765618 -5.10662e-07 4.4567e-08)
(0.00102074 -3.53177e-07 2.67269e-07)
(-0.00186527 0.00389932 0.00134111)
(-0.00374584 -0.00132546 0.000119763)
(-0.00186527 0.00389932 0.00134111)
(0.00173942 0.00447337 -0.000379882)
(0.0145618 0.00826341 -0.000855595)
(0.00145015 0.00417483 0.0200414)
(-0.00491268 0.0154399 0.000270425)
(0.0147977 0.00764301 0.00469199)
(0.006344 0.0136416 0.00186823)
(0.00390401 0.00421924 -0.0284099)
(0.00499602 0.016037 -0.0122965)
(0.00452347 0.0147881 0.0160732)
(-0.00211436 0.00419859 0.000897871)
(-0.00211436 0.00419859 0.000897871)
(-0.00211436 0.00419859 0.000897871)
(-0.00211436 0.00419859 0.000897871)
(0.00153844 0.000262754 -5.7125e-05)
(-0.00512342 0.00326965 0.000183496)
(0.00105727 -0.00513477 -0.000252654)
(-0.000386288 -0.000325252 -0.000355451)
(0.00368198 -0.0021147 0.000170677)
(0.00531521 -0.00409845 -0.000658722)
(0.00689662 0.00353178 0.000248508)
(-0.00581906 -0.00109733 -0.000233539)
(-0.00397917 -0.00238085 4.45073e-05)
(0.0023377 0.000452869 -1.83192e-06)
(0.00908562 -0.00255285 -0.000132751)
(0.000129873 -0.000703119 -0.000353499)
(0.00698785 -0.00706075 -0.000881649)
(-0.0133218 0.00335255 0.000245685)
(-0.00513819 -0.00922272 0.000944373)
(-0.00896922 0.00318465 -0.00113097)
(-0.00136426 0.00615093 4.69784e-05)
(-0.00125204 -0.00598044 -0.000205328)
(0.00231158 0.00216977 0.000616104)
(-0.00147912 -0.00221969 -0.000108782)
(-0.000903059 -0.00347153 -9.85451e-05)
(-0.00172052 0.000488986 -0.000216803)
(0.00217103 -0.00225281 -0.000240554)
(-0.00295063 -0.00163832 -0.00042625)
(-0.000154977 -0.00154945 4.05717e-06)
(-0.000362404 -0.000245885 -3.55437e-05)
(-0.000598177 -0.00121641 -9.66828e-06)
(-0.000309759 -0.0020862 1.53154e-05)
(-0.000594075 -0.00224421 5.59811e-05)
(0.000839399 0.000162003 2.9287e-05)
(0.00134178 0.000205458 4.14734e-06)
(0.00196094 0.000535707 5.62568e-05)
(0.00138563 0.000158962 -6.01659e-05)
(0.0012889 6.96366e-05 2.1805e-05)
(0.000323247 -4.40203e-05 -2.76748e-06)
(0.000487794 -2.63448e-05 -3.53818e-06)
(0.000464591 -2.80988e-05 -5.88037e-07)
(0.000770088 -4.28255e-05 -1.74347e-06)
(0.000342782 -1.27273e-05 -2.66966e-06)
(0.000585181 -9.82861e-05 -3.70602e-06)
(0.000630009 -1.87423e-05 -3.5529e-06)
(0.000821817 -1.85879e-05 -8.04508e-07)
(0.000882017 -3.03589e-05 -1.57877e-06)
(0.00115912 -2.67704e-05 -1.09253e-06)
(0.000599025 -2.40053e-05 -4.0008e-06)
(0.00060821 -2.00373e-05 -4.5989e-06)
(0.00097798 -4.75821e-05 -4.83893e-06)
(0.00100078 -4.12027e-05 -5.82992e-06)
(0.000822811 -1.47712e-05 -1.42069e-07)
(0.000818923 -1.90277e-05 -4.18066e-07)
(0.00107883 -2.54753e-05 7.38658e-08)
(0.000822118 -9.33406e-06 1.00545e-07)
(0.000828631 -1.1893e-05 1.59426e-07)
(0.00109707 -1.59166e-05 2.05203e-07)
(0.000820983 -6.03736e-06 4.84965e-08)
(0.000823801 -7.41289e-06 3.78678e-08)
(0.00109353 -1.03971e-05 1.79134e-07)
(0.000819671 -3.94053e-06 5.4526e-08)
(0.000822057 -4.6791e-06 5.71565e-08)
(0.00109315 -6.66054e-06 1.84052e-07)
(0.000818172 -2.60964e-06 5.03762e-08)
(0.000819956 -3.02541e-06 5.07719e-08)
(0.00109155 -4.48541e-06 1.8168e-07)
(0.000816662 -1.66308e-06 4.99302e-08)
(0.000818057 -1.93946e-06 5.14987e-08)
(0.00108979 -2.8933e-06 1.81316e-07)
(0.000815068 -1.06138e-06 4.91536e-08)
(0.00081626 -1.23714e-06 4.42386e-08)
(0.0010879 -1.83453e-06 1.55813e-07)
(0.000813495 -7.55029e-07 7.81076e-08)
(0.000814538 -7.00759e-07 5.34338e-08)
(0.00108594 -1.20041e-06 1.78795e-07)
(0.000811639 -4.61075e-07 9.06669e-08)
(0.00081297 -1.46196e-06 7.13074e-08)
(0.00108372 -9.35769e-07 2.75835e-07)
(0.000810587 -1.78082e-07 5.10734e-08)
(0.000811349 -6.7372e-07 9.40958e-08)
(0.00108176 -3.91891e-07 2.37617e-07)
(0.000808916 9.98948e-09 2.55311e-08)
(0.000809727 -1.8664e-07 3.32194e-08)
(0.00107992 -1.58612e-07 1.82007e-07)
(0.000807474 9.54385e-08 4.25422e-08)
(0.000808162 -1.78675e-07 1.31818e-08)
(0.00107797 1.46395e-07 1.81999e-07)
(0.000805629 4.19586e-08 6.10371e-08)
(0.000806522 -1.44385e-07 5.41627e-08)
(0.00107577 7.9971e-08 1.78586e-07)
(0.000804356 3.63726e-08 8.18182e-08)
(0.000805029 2.71423e-08 6.02851e-08)
(0.00107362 5.34152e-08 1.72069e-07)
(0.000802727 9.29044e-08 4.19118e-08)
(0.00080359 7.55786e-08 -2.65396e-08)
(0.00107183 1.09417e-07 1.76383e-07)
(0.000801157 3.04885e-09 7.47204e-08)
(0.000801894 2.41613e-08 2.30953e-08)
(0.00106969 1.9446e-07 1.65451e-07)
(0.000799673 -1.36293e-07 9.96158e-08)
(0.000800297 5.66194e-08 1.00094e-07)
(0.00106755 -1.42364e-07 1.83938e-07)
(0.000798389 -2.0295e-07 3.79057e-08)
(0.000798923 1.24011e-07 5.4606e-08)
(0.00106571 -1.82301e-07 1.55515e-07)
(0.000796829 -4.54434e-07 2.1807e-08)
(0.000797394 1.03761e-08 5.24752e-08)
(0.00106399 -3.45094e-07 1.74037e-07)
(0.000794811 -5.81913e-07 4.292e-08)
(0.000795733 1.53265e-06 -1.238e-08)
(0.00106151 -9.27266e-07 7.04434e-08)
(0.000792997 -5.17001e-07 1.14871e-07)
(0.000794064 4.28088e-07 2.41988e-08)
(0.00105875 -7.01708e-07 1.86852e-07)
(0.000792163 -4.1906e-07 8.8692e-08)
(0.000792862 -6.65104e-08 1.10596e-07)
(0.0010572 -6.89214e-07 2.7468e-07)
(0.000791 -3.4363e-08 1.29693e-07)
(0.000791897 -1.64248e-07 4.96725e-08)
(0.00105591 -4.05395e-07 2.38747e-07)
(0.000789675 3.543e-07 2.59902e-07)
(0.000790529 4.93666e-07 2.63929e-07)
(0.0010542 3.89787e-07 1.3866e-07)
(0.00078834 2.53687e-07 1.7279e-07)
(0.000788774 6.37333e-07 2.11551e-07)
(0.0010525 6.51778e-07 1.36444e-07)
(0.000786407 4.71083e-08 4.12077e-08)
(0.000787144 6.47954e-07 6.9372e-08)
(0.00105031 7.76217e-08 1.8299e-07)
(0.000784878 9.76215e-08 3.64147e-08)
(0.000785689 4.81691e-07 3.25812e-08)
(0.00104789 5.85282e-08 1.56633e-07)
(0.000783615 1.73884e-07 4.92264e-08)
(0.000784239 2.19043e-08 8.88304e-08)
(0.00104606 1.90818e-07 1.69031e-07)
(0.000782115 2.66856e-07 4.97002e-08)
(0.000782874 7.32837e-08 5.50571e-08)
(0.00104433 2.91692e-07 1.86878e-07)
(0.000780779 4.08403e-07 2.92682e-08)
(0.000781453 3.4195e-07 4.263e-08)
(0.00104237 4.9038e-07 1.65427e-07)
(0.000778773 3.46754e-07 3.66956e-08)
(0.000779774 -3.10716e-07 5.48365e-08)
(0.00104005 6.58321e-07 1.58425e-07)
(0.000777569 8.14601e-08 6.51201e-08)
(0.000778148 -4.52882e-08 -9.55596e-09)
(0.00103798 2.60595e-07 1.69126e-07)
(0.000775809 -1.04201e-07 4.72812e-08)
(0.000776698 2.43936e-07 6.38867e-08)
(0.00103596 -6.19398e-08 1.88201e-07)
(0.000775037 -2.62123e-07 6.49571e-08)
(0.00077545 -9.08351e-07 1.30355e-07)
(0.00103423 -2.18884e-07 2.65037e-07)
(0.000773652 -2.58114e-07 8.22445e-08)
(0.000774383 -5.86852e-08 9.26022e-08)
(0.00103298 -5.2377e-07 1.40905e-07)
(0.000772186 -1.56735e-07 5.57965e-08)
(0.000772961 -7.49147e-08 7.44754e-08)
(0.00103102 -2.18736e-07 1.77046e-07)
(0.000770702 -1.15144e-07 5.02354e-08)
(0.000771458 -3.12444e-08 5.3872e-08)
(0.00102901 -2.28688e-07 1.78929e-07)
(0.000769221 -1.27721e-07 4.37992e-08)
(0.00076996 3.94931e-08 4.07572e-08)
(0.00102709 -6.77504e-08 1.73007e-07)
(0.000767799 -2.62345e-07 4.90909e-08)
(0.000768407 -4.20563e-07 6.00417e-08)
(0.00102512 -2.22108e-07 1.76478e-07)
(0.000766279 -2.95701e-07 3.96611e-08)
(0.000766947 7.56556e-07 6.67765e-08)
(0.00102307 -4.44284e-07 1.93161e-07)
(0.000765986 1.39728e-07 4.78027e-08)
(0.00102175 -3.347e-07 7.73071e-08)
(-0.00149912 -0.000566666 -0.0007573)
(-0.00882654 0.00681875 0.000572917)
(-0.00453682 0.00184425 -0.000312501)
(-0.00519421 -0.000304869 0.000833478)
(0.00599364 0.00993907 -7.81696e-05)
(0.0250554 -0.00131736 -0.0012017)
(0.0217477 0.000696168 0.00262854)
(0.0297984 -0.00144903 -0.00123941)
(-0.00645186 -0.00245373 0.00020497)
(-0.0111314 -0.00481258 -0.000361896)
(-0.0112215 -0.00170384 -0.00664442)
(-0.0110072 -0.00279052 -0.000155157)
(-0.00673268 -0.00529027 0.00110464)
(-0.0131471 -0.00401783 -0.000106994)
(-0.00196487 -0.00578237 0.000423984)
(-0.0216967 -0.00193477 -0.00211354)
(0.00344231 -0.003698 0.00102189)
(-0.00633195 0.00625672 0.00323703)
(-0.0126204 -0.00164678 0.00329237)
(-0.0102462 0.00869443 0.00493094)
(-0.0146924 0.0135891 0.000645988)
(0.000761198 0.00152936 0.000748392)
(-0.00140824 0.00758546 0.00224415)
(0.0120987 0.00957949 0.00676325)
(-0.0113381 -0.00118622 0.000242962)
(-0.00786802 -0.00823913 -0.000169192)
(-0.00745143 -0.00788244 0.000802929)
(-0.00328328 -0.000756023 -0.000141638)
(-0.0150356 0.000629186 4.76571e-05)
(-0.0133122 0.00637195 0.000373626)
(-0.00351615 0.00235137 -0.000729369)
(-0.00920703 0.00540637 -0.000353239)
(-0.00469708 -0.00140632 -2.71382e-05)
(0.00458579 -0.00465613 0.000779451)
(-0.00202881 -0.000173636 -6.06097e-05)
(0.000889603 -0.00105496 0.00013594)
(-0.0130739 -0.00171743 0.000532371)
(0.00074928 -0.000416815 1.10364e-05)
(0.000710901 -0.000233197 6.61672e-05)
(0.000511933 -0.000783681 1.28748e-05)
(0.000462001 -0.000582569 3.27379e-05)
(0.000801575 -0.000332711 5.65892e-05)
(0.000383855 -3.32544e-05 2.80883e-06)
(0.000498999 -2.07257e-05 -2.72297e-06)
(0.000798387 -5.32537e-05 2.65965e-06)
(0.000356039 -8.9774e-05 2.20345e-05)
(0.000714768 -5.2965e-05 9.47753e-06)
(0.000624246 -9.39367e-05 5.62254e-05)
(0.00047537 -2.26532e-05 1.91654e-07)
(0.000394594 -2.22387e-05 3.99541e-06)
(0.000694007 -4.77724e-05 1.25966e-05)
(0.000579788 -4.44081e-05 -1.33782e-06)
(0.000322403 -2.85262e-05 -1.86487e-06)
(0.000836811 -2.77328e-05 -1.1927e-06)
(0.000899548 -3.41601e-05 -2.01201e-06)
(0.00117986 -5.4451e-05 -1.20156e-06)
(0.000615023 -1.95549e-05 -4.25091e-06)
(0.000621341 -1.82453e-05 -4.79989e-06)
(0.0010023 -3.66162e-05 -5.17003e-06)
(0.00103696 -3.73378e-05 -5.65947e-06)
(0.00083231 -1.53542e-05 -1.1676e-07)
(0.00083471 -1.40337e-05 -2.57784e-07)
(0.00109708 -2.89994e-05 8.6044e-08)
(0.000828172 -9.44789e-06 9.67882e-08)
(0.000836121 -9.04907e-06 1.26899e-07)
(0.00110781 -1.82465e-05 2.04071e-07)
(0.000824812 -5.76047e-06 4.65215e-08)
(0.000828478 -5.20035e-06 1.43955e-08)
(0.00110057 -1.10323e-05 1.80518e-07)
(0.000822084 -3.62779e-06 5.34044e-08)
(0.000824765 -3.29396e-06 5.23987e-08)
(0.00109757 -6.93233e-06 1.83561e-07)
(0.000819702 -2.30907e-06 5.18941e-08)
(0.000821631 -2.04588e-06 5.04763e-08)
(0.00109436 -4.38612e-06 1.82213e-07)
(0.000817588 -1.4908e-06 4.58094e-08)
(0.000819097 -1.28839e-06 5.03484e-08)
(0.00109155 -2.80174e-06 1.82041e-07)
(0.000815655 -9.81525e-07 4.85159e-08)
(0.000816908 -8.32684e-07 4.45263e-08)
(0.00108897 -1.81404e-06 1.84037e-07)
(0.00081392 -6.5277e-07 4.66277e-08)
(0.000814956 -5.55844e-07 5.30857e-08)
(0.00108656 -1.21316e-06 1.8496e-07)
(0.000812745 -4.62899e-07 7.4729e-08)
(0.000813213 -1.26222e-06 2.66862e-08)
(0.00108473 -8.17815e-07 1.32778e-07)
(0.000810416 -3.09281e-07 7.62614e-08)
(0.000811545 2.87158e-07 8.9304e-08)
(0.00108243 -6.59207e-07 1.79863e-07)
(0.000809 -2.23636e-07 2.08765e-08)
(0.000809836 -3.14014e-07 3.60685e-08)
(0.00108 -3.53205e-07 1.7635e-07)
(0.000807208 -2.21523e-07 2.47892e-08)
(0.000808166 5.11889e-07 -6.47291e-09)
(0.00107784 -3.52241e-07 1.52539e-07)
(0.000805804 -1.7603e-07 5.34088e-08)
(0.000806581 -2.81355e-07 4.91688e-08)
(0.00107572 -2.94281e-07 1.76818e-07)
(0.000804353 -1.70906e-07 -4.8045e-08)
(0.000805037 4.52435e-07 5.24772e-08)
(0.00107387 -1.94175e-07 1.42109e-07)
(0.000802812 -2.41024e-07 -4.53719e-08)
(0.000803503 1.05853e-07 -4.68036e-08)
(0.00107182 -2.3869e-07 1.77802e-07)
(0.000800884 -1.8664e-07 4.84446e-08)
(0.000801962 6.92868e-07 6.23059e-08)
(0.00106948 -3.76761e-07 1.67303e-07)
(0.000799578 -7.85272e-08 5.50988e-08)
(0.000800432 -2.14358e-07 3.22239e-08)
(0.00106733 -1.16052e-07 1.78872e-07)
(0.000797987 -9.20853e-08 6.91762e-08)
(0.000798906 -5.44027e-08 7.01769e-08)
(0.00106548 -7.77237e-08 1.9763e-07)
(0.000796362 -2.0625e-07 1.83088e-08)
(0.000797252 -1.51418e-07 7.38652e-08)
(0.00106311 -1.33715e-07 1.9968e-07)
(0.000794935 -1.10336e-08 -3.11127e-08)
(0.000795977 -4.58503e-07 2.03142e-08)
(0.00106123 -3.8271e-07 3.11465e-07)
(0.000793679 4.92603e-07 1.98966e-08)
(0.000794692 -9.07667e-07 -2.69957e-09)
(0.00105962 3.9398e-07 2.50374e-07)
(0.000792744 6.8619e-07 7.15957e-08)
(0.000793101 -1.25562e-06 4.7856e-08)
(0.00105795 9.51846e-07 2.11988e-07)
(0.000791459 5.2185e-07 1.83841e-07)
(0.000791689 -1.87707e-06 -2.46046e-08)
(0.00105668 8.82873e-07 2.80426e-07)
(0.000789752 3.21018e-07 2.15595e-07)
(0.000790276 4.1591e-07 1.75352e-07)
(0.00105474 5.11547e-07 2.01985e-07)
(0.000787429 1.20226e-07 1.08177e-07)
(0.000788522 4.62418e-08 8.7457e-08)
(0.00105172 3.46923e-07 2.93375e-07)
(0.000786465 -1.73817e-08 6.0757e-08)
(0.000786972 1.21276e-07 7.10352e-08)
(0.00104959 -2.63009e-08 1.68179e-07)
(0.000785008 4.24214e-08 8.49794e-08)
(0.000785764 1.02725e-06 7.94567e-08)
(0.00104814 -3.13472e-08 1.35641e-07)
(0.00078351 7.99519e-08 9.46716e-08)
(0.000784286 3.04542e-08 1.2489e-07)
(0.00104612 1.30056e-07 1.77844e-07)
(0.000782161 1.00834e-07 4.79907e-08)
(0.0007829 1.26977e-07 5.59833e-08)
(0.00104421 7.3676e-08 1.61342e-07)
(0.000780619 4.10751e-08 6.81945e-08)
(0.000781378 5.11175e-07 1.93615e-08)
(0.00104234 1.58386e-07 1.70424e-07)
(0.00077901 -1.29857e-08 8.6049e-09)
(0.000779706 8.75258e-07 3.25851e-08)
(0.00104013 -8.79154e-08 1.03398e-07)
(0.000777326 6.04513e-08 -1.0812e-08)
(0.00077824 3.31348e-07 -1.01809e-08)
(0.00103788 3.90167e-08 1.68506e-07)
(0.000776188 2.22797e-07 1.4694e-07)
(0.0007769 5.97357e-08 5.29171e-08)
(0.00103606 1.3194e-07 1.59787e-07)
(0.000774882 3.00995e-07 1.58012e-07)
(0.000775546 3.30197e-07 1.81691e-07)
(0.00103447 5.1178e-07 7.21895e-08)
(0.000773762 2.15526e-07 8.48386e-08)
(0.000774274 2.7079e-07 2.29292e-08)
(0.0010329 3.80258e-07 1.21108e-07)
(0.000772206 1.74489e-07 7.25572e-08)
(0.000772908 -1.42838e-07 1.51056e-09)
(0.00103109 3.11311e-07 1.89575e-07)
(0.000770698 2.05438e-07 4.43978e-08)
(0.000771495 -1.01423e-07 4.53699e-08)
(0.00102913 2.64956e-07 1.8554e-07)
(0.000769137 1.88107e-07 5.69938e-08)
(0.000769937 3.00787e-07 6.28679e-08)
(0.00102705 3.61492e-07 1.66286e-07)
(0.000767551 1.17573e-07 7.77253e-08)
(0.000768318 -5.22458e-08 5.10296e-08)
(0.00102483 2.07575e-07 1.60697e-07)
(0.000766445 9.79277e-08 7.49239e-08)
(0.000766921 -3.21193e-07 6.08686e-08)
(0.00102296 1.54371e-07 2.22769e-07)
(0.000765864 1.43777e-07 6.12799e-08)
(0.00102171 1.19604e-07 1.60747e-07)
(0.000324143 -0.00897453 0.00509685)
(0.003676 0.000627507 0.00203079)
(0.0103335 -0.00346317 0.00084358)
(0.0188998 0.00829136 -0.00164141)
(0.0055981 -0.00136708 0.00090006)
(0.00164574 0.00482234 -0.00208866)
(0.00363687 -0.00952975 0.00082391)
(0.010201 -0.0108451 0.000651544)
(0.0119392 -0.0116681 0.000684786)
(-0.00444802 -0.0044246 0.0023593)
(0.00930884 0.00830055 0.000447373)
(-0.00335812 -0.00291414 0.00182381)
(0.0171621 0.000187021 0.00234462)
(0.00229428 -0.0121929 0.000743441)
(-0.00385226 -0.0214146 0.00205081)
(0.000624761 -0.0134212 0.00127348)
(0.00944854 0.000102623 0.00188969)
(0.0048089 -0.00737786 -0.000194404)
(-0.00962003 0.00929085 0.000404206)
(-0.018722 -0.00030489 -0.00211854)
(-0.00920626 -0.00675688 -0.00224989)
(0.000108123 -0.00538033 -0.000453254)
(0.00103894 -0.00627282 -0.000163505)
(0.00456914 -0.00766045 -0.000777529)
(0.00406009 -0.000502212 0.000139145)
(-0.00347452 0.00243802 -0.000195072)
(-0.00471247 0.00188173 0.000139489)
(0.00252503 -0.00156271 0.000103677)
(-0.000818081 -0.00130648 0.000185086)
(0.0054619 0.000777358 -0.000121732)
(0.00580703 -0.00117732 0.000355319)
(0.0148876 -0.00642823 0.000364635)
(0.0115336 -0.00141779 6.41701e-06)
(0.00243861 -0.00177277 0.000150333)
(0.00941123 -0.00424279 -0.000162853)
(0.0156245 0.00155771 0.000618752)
(0.00152459 -1.88981e-05 -5.86804e-05)
(0.00116366 -9.7761e-05 4.00645e-06)
(0.00181373 -0.000468562 -2.83637e-05)
(0.0022635 -0.000782368 4.57958e-05)
(0.000725409 -0.000614704 7.79378e-06)
(0.00111091 0.000203087 -6.06853e-05)
(0.00078387 -0.000772575 6.27134e-05)
(0.0013794 -0.000288767 -3.80346e-06)
(0.00111568 7.90973e-05 9.1487e-06)
(0.00139157 7.25273e-05 -1.22421e-05)
(0.000897723 -1.79768e-05 -2.64067e-05)
(0.000734296 -0.000294379 8.22527e-05)
(0.000814353 -0.000248525 -2.09329e-05)
(0.000843991 -0.000279992 5.63119e-05)
(0.00115249 -0.000120346 1.70753e-05)
(0.000442451 -8.81184e-05 2.75077e-05)
(0.000505482 -0.000156801 4.56725e-05)
(0.000642485 -0.000150839 7.43137e-05)
(0.000327969 -7.15651e-05 1.8997e-05)
(0.000860408 -1.62899e-05 -1.07767e-06)
(0.000871 -7.93018e-06 -2.86044e-06)
(0.00121132 -4.48041e-05 -1.40507e-06)
(0.000634187 -1.4828e-05 -4.85388e-06)
(0.000653439 2.52705e-05 -4.57832e-06)
(0.00105202 -3.74645e-05 -5.14785e-06)
(0.00111686 5.44912e-05 -2.36412e-06)
(0.000843892 -5.65992e-06 -1.42516e-08)
(0.00084817 5.98112e-06 1.16923e-07)
(0.00112498 -1.34772e-05 8.73864e-08)
(0.000834357 -4.21179e-06 4.45431e-08)
(0.000838022 6.60195e-07 3.764e-08)
(0.00111984 -1.07419e-05 1.95793e-07)
(0.000828196 -2.5718e-06 2.02604e-08)
(0.000830587 5.47053e-07 2.08614e-08)
(0.00110787 -6.06209e-06 1.78264e-07)
(0.000824034 -1.75568e-06 4.94712e-08)
(0.000825821 -1.10809e-07 6.53162e-08)
(0.00110158 -4.21183e-06 1.83098e-07)
(0.000820878 -1.0603e-06 4.89307e-08)
(0.000822523 -1.02499e-07 5.05672e-08)
(0.00109679 -2.56269e-06 1.82379e-07)
(0.000818331 -6.42733e-07 4.90672e-08)
(0.000819632 -9.10115e-08 5.02377e-08)
(0.00109305 -1.54134e-06 1.81862e-07)
(0.000816142 -4.04437e-07 4.90934e-08)
(0.000817214 -7.38552e-08 5.00582e-08)
(0.00108992 -9.45408e-07 1.8155e-07)
(0.000814173 -2.27513e-07 3.31527e-08)
(0.000815182 -5.12753e-08 4.90999e-08)
(0.00108721 -6.12543e-07 1.80337e-07)
(0.000812092 -2.46717e-07 4.12411e-08)
(0.000813192 -7.93749e-08 3.18973e-08)
(0.00108442 -3.0576e-07 1.43003e-07)
(0.000810919 -3.69569e-07 4.91282e-08)
(0.000811394 -3.04097e-07 5.77455e-08)
(0.00108235 -5.47374e-07 1.8721e-07)
(0.000808959 -3.57022e-07 8.73263e-09)
(0.000809854 9.78828e-08 5.72615e-08)
(0.00108031 -5.71435e-07 1.86196e-07)
(0.000807541 -2.6457e-07 1.78889e-08)
(0.000808284 -5.81218e-08 2.56645e-08)
(0.00107805 -4.86409e-07 2.07609e-07)
(0.000805766 -1.82702e-07 4.82362e-08)
(0.000806685 8.81913e-09 5.57467e-08)
(0.00107597 -3.01254e-07 1.79384e-07)
(0.000804169 -1.45994e-07 5.37502e-08)
(0.000805084 -3.24719e-08 6.8346e-08)
(0.0010737 -2.76604e-07 2.18231e-07)
(0.000802716 -1.39394e-07 6.08395e-08)
(0.000803512 2.60148e-07 8.53013e-08)
(0.00107161 -1.90027e-07 1.61464e-07)
(0.000801458 -2.48258e-08 4.60947e-08)
(0.000802106 2.35009e-07 6.45302e-08)
(0.00106984 -2.27462e-07 1.87599e-07)
(0.000799771 1.50265e-07 4.72899e-08)
(0.000800651 1.9288e-08 4.97197e-08)
(0.00106793 1.29758e-07 1.76981e-07)
(0.000798215 2.54473e-07 7.48647e-08)
(0.000799035 -2.41532e-08 6.57861e-08)
(0.00106568 2.65023e-07 1.79892e-07)
(0.000796741 5.53789e-07 7.58876e-08)
(0.000797623 -4.92502e-07 5.98186e-08)
(0.00106361 4.62182e-07 1.99078e-07)
(0.000795845 7.43098e-07 4.87346e-08)
(0.00079621 -2.90236e-06 2.42836e-08)
(0.00106216 1.12872e-06 2.96576e-07)
(0.000794043 7.44229e-07 2.52439e-08)
(0.00079469 4.62228e-07 3.51318e-08)
(0.00106042 9.66421e-07 1.07583e-07)
(0.000792106 7.5691e-07 -4.83216e-08)
(0.000793113 -2.54501e-07 3.29785e-08)
(0.00105781 1.07758e-06 1.4567e-07)
(0.000790418 4.74608e-07 -3.31565e-08)
(0.000791333 2.19488e-07 -3.83307e-08)
(0.00105535 9.94425e-07 4.60389e-08)
(0.000789252 9.88471e-08 4.7242e-08)
(0.000789804 -2.40583e-08 4.10114e-08)
(0.00105353 3.08917e-07 1.79594e-07)
(0.000787799 8.72335e-08 5.03204e-08)
(0.000788507 7.69676e-08 4.88797e-08)
(0.00105183 -3.79545e-08 1.71912e-07)
(0.000786384 1.47248e-07 8.97323e-08)
(0.000787046 3.50656e-07 5.90323e-08)
(0.00104983 2.70596e-07 1.54421e-07)
(0.000785045 5.01945e-08 1.19353e-07)
(0.000785642 6.75034e-08 8.63912e-08)
(0.00104809 1.11842e-07 2.32599e-07)
(0.000783592 -2.30303e-08 8.62227e-08)
(0.000784195 1.99448e-08 7.49344e-08)
(0.00104619 1.32928e-09 1.7516e-07)
(0.000782265 -2.11428e-07 2.73654e-08)
(0.000782666 -1.98e-07 5.37785e-08)
(0.00104437 -9.88539e-08 1.86528e-07)
(0.00078039 -3.25382e-07 -1.6252e-08)
(0.000781237 2.36621e-06 5.41462e-08)
(0.00104216 -4.97049e-07 7.9236e-08)
(0.000778941 -2.19778e-07 1.38125e-08)
(0.00077984 -5.64029e-07 6.42455e-09)
(0.0010399 -4.12589e-07 2.77853e-07)
(0.000777759 -5.75399e-08 5.35287e-08)
(0.000778443 -9.88795e-08 5.03357e-08)
(0.00103825 -1.87189e-07 1.81513e-07)
(0.000776306 1.45287e-07 8.76279e-08)
(0.000777152 3.17943e-08 2.28333e-07)
(0.00103655 9.32144e-08 1.76911e-07)
(0.00077485 2.68158e-07 4.66568e-08)
(0.000775698 -1.14978e-06 6.86656e-08)
(0.00103453 3.77033e-07 2.82367e-07)
(0.000773503 1.23221e-07 -6.03924e-08)
(0.000774091 -1.57406e-06 -2.7538e-08)
(0.00103272 4.07578e-07 2.9927e-07)
(0.000772156 -3.39932e-08 -2.56901e-08)
(0.000772711 1.00727e-07 -1.10762e-08)
(0.00103087 -2.09876e-08 1.47979e-07)
(0.00077087 -4.12006e-08 6.38347e-08)
(0.000771486 -6.27051e-08 4.39377e-08)
(0.00102907 -2.39914e-08 1.57411e-07)
(0.000768918 1.5024e-09 5.69073e-08)
(0.00076999 -5.09773e-07 2.08712e-08)
(0.00102701 -6.81642e-08 2.80027e-07)
(0.00076779 1.46493e-07 3.41699e-08)
(0.000768499 -3.62197e-07 3.41962e-08)
(0.00102486 8.27786e-08 1.68469e-07)
(0.000766152 2.29001e-07 4.72245e-08)
(0.000767021 7.71476e-08 5.21143e-08)
(0.00102295 3.09179e-07 1.63408e-07)
(0.000765579 3.25449e-07 6.95938e-08)
(0.0010214 3.00005e-07 1.30814e-07)
(-0.00285019 -0.00175363 0.000154954)
(-0.00309878 0.00851513 0.000254761)
(-0.00324699 0.00583105 0.000948136)
(0.00481157 0.000501843 -0.000998445)
(-0.00877268 0.00153043 -0.000647357)
(-0.00160299 0.00131188 -0.000179335)
(-0.00982251 -0.00757357 5.88891e-05)
(-0.00670855 -0.00391784 -0.000148414)
(-0.0185521 -0.0278042 0.00808365)
(-0.00390305 -0.00788018 -0.00604047)
(-0.00602193 -0.00153882 0.00149786)
(-0.00400938 -0.00508013 -0.00351529)
(-0.00166045 -0.00488095 0.000154472)
(-0.0112352 -0.0141494 -0.000396152)
(-0.00066789 -0.0034995 0.00297694)
(-0.00380025 -0.0121988 8.42745e-05)
(-0.00326721 -0.00739624 -0.00092767)
(-0.00881813 -0.00567111 -0.000652184)
(-0.00100559 -0.00901411 -0.00042733)
(0.00712523 -0.0119378 -8.18022e-05)
(0.00269186 -0.0114773 -0.000566485)
(0.0218623 -0.0113129 0.00158069)
(0.00255296 -0.00828496 -0.000264359)
(-0.00374656 -0.00333454 -0.000353895)
(-0.00889044 -0.0120702 -0.000982353)
(-0.00809062 -0.0025316 0.00056604)
(0.0225686 -0.00190378 -0.000599595)
(0.0136034 -0.0027907 -0.000573516)
(0.0327425 0.00464261 -7.58461e-05)
(0.0166949 -0.00538253 -0.000232394)
(-0.00991197 0.00359261 -0.000840408)
(-0.00752613 0.00214027 -0.00183597)
(0.0099278 0.0119542 -0.00107991)
(0.0111642 -0.00406103 -0.00411163)
(-0.016695 -0.00670178 -0.000717512)
(-0.0134331 -0.0053937 -0.00106148)
(-0.0151128 -0.00412108 0.0011861)
(-0.00557683 -0.0048025 -6.80441e-05)
(-0.00738754 -0.00932386 0.0005064)
(-0.00926183 -0.00124189 0.000128408)
(-0.0234449 -0.0135014 -0.0519842)
(-0.0247026 -0.0125168 0.0195841)
(-0.00617065 -0.0277112 0.0184154)
(-0.0236228 -0.00862543 0.0138311)
(-0.00967841 -0.0115585 -0.00397326)
(-0.0213874 -0.0116003 -0.000307061)
(-0.0101281 -0.0307982 0.000589163)