/*--------------------------------*- C++ -*----------------------------------*\
| =========                 |                                                 |
| \\      /  F ield         | OpenFOAM: The Open Source CFD Toolbox           |
|  \\    /   O peration     | Version:  5.0                                   |
|   \\  /    A nd           | Web:      www.OpenFOAM.org                      |
|    \\/     M anipulation  |                                                 |
\*---------------------------------------------------------------------------*/
FoamFile
{
    version     2.0;
    format      ascii;
    class       volScalarField;
    location    "4.6";
    object      alpha.water;
}
// * * * * * * * * * * * * * * * * * * * * * * * * * * * * * * * * * * * * * //

dimensions      [0 0 0 0 0 0 0];

internalField   nonuniform List<scalar> 
8409
(
1.05523
1.04602
0.975459
1.002
0.937629
1.02537
0.765721
-3.18356e-17
-8.05844e-19
5.26118e-20
2.17963e-18
2.43261e-19
1.53408e-21
4.50814e-25
3.28368e-29
9.98435e-33
4.0915e-36
1.78706e-39
8.12087e-43
3.23252e-46
1.60945e-49
7.14194e-53
3.23996e-56
1.0927e-59
7.37385e-63
8.10121e-66
2.73402e-69
5.47995e-73
2.40498e-75
4.21706e-79
2.61184e-82
5.0358e-86
1.64541e-88
5.35212e-91
1.67652e-94
1.42384e-97
7.88413e-101
2.13861e-103
3.8815e-107
3.88537e-111
4.19767e-114
1.20094e-116
1.56876e-119
4.02039e-122
7.40113e-126
9.73969e-129
1.69541e-132
1.70755e-136
3.30409e-138
2.28089e-141
1.06416
1.03744
0.9865
1.03731
1
1.04312
0.991735
-3.40264e-17
-7.59274e-19
1.51953e-16
1.39441e-17
8.36546e-20
7.18667e-23
4.26053e-26
8.71129e-30
2.16838e-33
8.63417e-37
3.81513e-40
1.73304e-43
7.10712e-47
3.24316e-50
1.44813e-53
8.77433e-57
5.91856e-60
1.54955e-63
8.2763e-67
8.11638e-70
1.96053e-73
4.80294e-76
1.02562e-79
5.23323e-83
1.14978e-85
2.09766e-89
5.13584e-92
1.23266e-95
1.07778e-98
5.86127e-102
3.76015e-106
1.55661e-107
1.62743e-110
1.80335e-114
2.0383e-117
2.15281e-121
4.13936e-125
1.07429e-127
1.75155e-130
7.5286e-134
6.77415e-138
1.11344e-140
1.32142e-142
1.17126
1.04798
1.00452
1.0339
0.999611
1
1.00098
-4.41124e-22
-9.28418e-20
3.85876e-22
1.90036e-17
2.93025e-18
4.07298e-20
2.56018e-23
1.32386e-27
3.04884e-31
1.29397e-34
5.72372e-38
3.24829e-41
1.01784e-44
5.31391e-48
1.98794e-51
1.56969e-54
4.87573e-58
2.5979e-61
2.38444e-64
2.16231e-67
1.57847e-71
4.81797e-73
5.89355e-76
2.87328e-80
4.24237e-84
1.46743e-85
1.72728e-88
1.81838e-92
6.7374e-96
3.08816e-99
3.65379e-103
5.20661e-105
1.83387e-108
1.05659e-111
4.77177e-115
1.39389e-117
1.64383e-121
3.21084e-125
4.74916e-129
2.3456e-130
1.56895e-133
1.03781e-137
7.70345e-142
1.01215
0.968445
1.00832
0.993858
1.00061
0.984953
1.00052
0.157501
-3.68205e-18
8.40529e-22
1.22162e-23
9.76424e-19
4.85164e-20
1.10265e-22
1.48728e-26
1.7228e-30
6.0872e-34
2.92469e-37
1.1113e-40
4.70548e-44
2.17356e-47
8.61874e-51
9.60908e-54
3.92549e-57
1.54702e-60
7.73074e-64
1.67789e-67
1.23896e-69
4.52901e-73
4.6001e-77
2.86479e-79
2.57971e-82
6.46792e-86
1.17114e-89
4.79886e-92
8.48955e-96
2.82291e-99
5.43018e-102
3.79019e-104
1.3707e-107
2.17391e-111
4.4706e-114
1.6839e-117
1.29187e-120
2.70721e-123
9.70773e-127
6.56595e-131
7.83894e-134
3.85879e-137
1.12829e-139
1.00908
1.07099
0.968727
1.00185
1.02328
1.01209
1.00218
0.83348
-1.15801e-18
1.04979e-16
1.08012e-19
4.60935e-18
4.69971e-19
2.32368e-21
4.71668e-25
3.7623e-29
1.13729e-32
4.8444e-36
2.06174e-39
1.21047e-42
3.82289e-46
2.98425e-49
7.46931e-53
4.05445e-56
1.38501e-59
1.19475e-62
7.3566e-66
7.76813e-69
3.19336e-71
1.05476e-74
8.71439e-78
7.80201e-82
5.18123e-84
9.85952e-88
1.24797e-91
8.6254e-95
8.24861e-97
1.97375e-100
1.40764e-104
2.37279e-106
6.15321e-110
2.6437e-113
5.90699e-116
8.08328e-119
1.5813e-122
5.2352e-126
4.28889e-128
1.93137e-131
1.66276e-134
3.55569e-138
1.04947
1.04425
1.03862
1.00235
0.999184
0.990532
1.00206
0.934841
-1.89925e-17
-2.79529e-20
6.95137e-20
3.65561e-18
3.6608e-19
1.80652e-21
3.65168e-25
2.76805e-29
8.78607e-33
6.57261e-36
2.0724e-39
1.85431e-42
4.84663e-46
1.61779e-49
6.47229e-53
1.40048e-55
7.59716e-59
2.94215e-61
7.04614e-65
7.87493e-69
5.04043e-71
1.06763e-73
9.89753e-77
4.56824e-80
2.44366e-84
1.77253e-87
4.59313e-90
9.50387e-94
2.3282e-97
1.06909e-99
1.05006e-103
2.46844e-106
2.98102e-109
4.64368e-112
1.95358e-115
6.42529e-119
1.18626e-122
2.61416e-125
2.49906e-129
5.89666e-133
7.70176e-136
5.47272e-140
1.04989
1.01537
0.94501
1.01343
1.0322
0.997386
1.00464
0.704949
-8.56449e-18
-3.73781e-20
3.95273e-38
9.20096e-19
4.50787e-20
9.99477e-23
1.32598e-26
1.54715e-30
5.47093e-34
2.34808e-37
1.01218e-40
4.38548e-44
3.38202e-47
8.86445e-51
4.96e-54
1.67235e-57
1.17329e-60
3.05527e-64
1.17219e-67
2.16284e-70
1.62861e-72
6.43866e-76
4.42521e-80
5.05779e-83
1.30765e-86
1.14468e-89
5.17289e-93
7.79323e-96
2.49889e-99
9.96719e-102
7.8183e-105
3.22289e-108
6.81768e-112
9.23721e-115
5.66047e-118
3.94203e-121
2.29367e-124
5.12308e-128
5.87827e-130
1.94673e-133
1.17242e-137
2.17754e-139
1.04218
1.04718
1.00372
0.999907
1.02324
1.01098
1.0014
0.0388934
-1.96113e-18
-4.31545e-21
1.8415e-17
2.77274e-18
3.81244e-20
2.46835e-23
1.34252e-27
3.05175e-31
1.26573e-34
5.31437e-38
2.81071e-41
1.73812e-44
4.60382e-48
3.27599e-51
1.84626e-54
3.38924e-58
1.30215e-61
9.2241e-64
8.40124e-67
6.46032e-71
1.10649e-74
1.29397e-76
3.53967e-80
6.3553e-83
5.31238e-86
6.00471e-90
3.51382e-93
1.58084e-95
2.26722e-99
3.46207e-102
2.13851e-105
2.70874e-108
1.50622e-112
8.62936e-115
4.654e-118
1.97775e-121
1.14546e-124
7.18681e-129
1.89597e-132
7.28878e-136
2.86896e-139
2.06314e-142
1.06209
1.0341
1.00022
1.0672
0.998446
0.975785
1.00011
-2.54639e-15
-9.88131e-19
1.27227e-16
1.53721e-17
1.40243e-19
1.06231e-22
4.05505e-26
9.73989e-30
2.7047e-33
1.16986e-36
5.58014e-40
2.62333e-43
1.07503e-46
4.3142e-50
2.12939e-53
9.22558e-57
4.2802e-60
1.78059e-62
2.10419e-66
4.54251e-70
2.10965e-73
1.31556e-76
1.02369e-79
2.12966e-81
1.5609e-84
1.08103e-88
1.28881e-92
5.77597e-95
1.56927e-98
3.01195e-101
2.49114e-105
3.25597e-109
4.91252e-111
8.37991e-114
1.07181e-116
1.89182e-120
6.04538e-124
1.05836e-126
1.11224e-130
4.55808e-133
8.47121e-136
8.49625e-139
6.32729e-143
1.04699
1.01378
1.03171
0.995509
1.01067
1.00367
0.993474
-1.6369e-18
-3.47969e-18
3.60027e-19
1.81519e-18
2.83737e-19
2.96786e-21
1.26963e-24
7.42651e-29
2.00294e-32
8.20983e-36
3.48833e-39
1.48395e-42
6.56541e-46
2.7025e-49
1.13192e-52
4.74897e-56
2.00934e-59
9.20773e-63
3.81855e-66
2.44983e-69
7.9512e-73
2.0418e-75
6.73108e-79
4.92861e-82
6.25909e-85
2.94254e-88
1.95558e-91
3.06097e-95
2.50401e-98
7.57476e-101
1.44138e-104
6.90422e-107
1.74744e-110
1.82257e-114
5.41415e-118
8.43818e-120
5.56201e-123
9.43153e-127
1.98513e-129
8.89136e-133
5.63449e-136
2.8355e-139
9.94198e-143
1.04733
1.05021
0.990142
0.930162
1.006
1.00794
0.764271
1.03193e-10
3.66713e-17
2.9404e-17
8.04097e-18
9.44171e-19
2.50338e-20
8.03201e-23
2.6777e-26
5.44001e-30
3.35945e-33
2.55172e-36
1.87774e-39
1.35678e-42
9.78945e-46
7.0559e-49
5.07296e-52
3.64071e-55
2.60697e-58
1.86225e-61
1.32822e-64
9.45242e-68
6.70856e-71
4.75213e-74
3.3572e-77
2.36577e-80
1.66473e-83
1.16911e-86
8.19646e-90
5.73464e-93
4.00025e-96
2.78219e-99
1.93201e-102
1.3399e-105
9.27198e-109
6.40308e-112
4.41102e-115
3.03161e-118
2.0797e-121
1.42283e-124
9.71355e-128
6.62268e-131
4.50445e-134
1.80784e-137
1.07927
1.05902
1.06632
1.03306
0.991966
1.03839
0.985293
2.97849e-11
7.81125e-15
8.9126e-15
1.58871e-15
3.11539e-17
3.60793e-20
6.27397e-24
1.70597e-27
1.05107e-30
7.34393e-34
5.08102e-37
3.49643e-40
2.43541e-43
1.71119e-46
1.184e-49
8.60602e-53
6.15165e-56
4.07236e-59
2.82601e-62
1.97564e-65
1.39243e-68
9.53614e-72
6.62003e-75
4.57765e-78
3.16358e-81
2.24821e-84
1.57749e-87
1.04193e-90
7.1339e-94
4.89605e-97
3.36239e-100
2.29439e-103
1.56227e-106
1.06489e-109
7.2385e-113
4.92412e-116
3.33599e-119
2.25421e-122
1.52252e-125
1.03733e-128
6.92661e-132
4.64596e-135
1.84934e-138
1
1.04519
1.04858
0.966903
1.01005
1.00343
1.00121
6.6366e-08
7.79798e-15
3.55936e-16
3.45602e-16
9.28111e-17
4.22122e-18
1.57585e-20
3.6958e-24
5.49401e-28
3.53867e-31
2.61245e-34
1.84902e-37
1.2967e-40
9.09073e-44
6.36387e-47
4.4445e-50
3.09922e-53
2.15537e-56
1.49578e-59
1.03661e-62
7.16632e-66
4.94285e-69
3.40832e-72
2.34576e-75
1.61118e-78
1.10529e-81
7.56145e-85
5.15519e-88
3.51216e-91
2.38879e-94
1.62093e-97
1.09824e-100
7.42212e-104
5.00418e-107
3.3686e-110
2.26381e-113
1.51887e-116
1.01777e-119
6.80627e-123
4.54034e-126
3.02297e-129
2.00809e-132
7.8997e-136
1.10585
0.988618
0.962144
1.13312
1
0.997115
1.00082
0.163338
1.10825e-12
3.67113e-15
1.40025e-17
9.08764e-18
8.91508e-19
1.00135e-20
1.02068e-23
1.69005e-27
5.97735e-31
4.37459e-34
3.24863e-37
2.33535e-40
1.66883e-43
1.19109e-46
8.47785e-50
6.03707e-53
4.27738e-56
3.02653e-59
2.13826e-62
1.50875e-65
1.06359e-68
7.44841e-72
5.21491e-75
3.64456e-78
2.53996e-81
1.76659e-84
1.22704e-87
8.50197e-91
5.87882e-94
4.05729e-97
2.79093e-100
1.91663e-103
1.31455e-106
9.01238e-110
6.15369e-113
4.195e-116
2.84665e-119
1.93002e-122
1.3059e-125
8.82291e-129
5.9466e-132
2.37027e-135
1.06908
1.07313
0.99995
1.02311
1.02789
1.01268
1.0024
0.831676
1.38666e-12
1.98881e-15
1.25827e-16
9.3823e-17
1.61379e-17
3.61308e-19
6.8568e-22
1.27909e-25
3.07713e-29
2.13827e-32
1.58831e-35
1.13782e-38
8.0856e-42
5.74141e-45
4.0676e-48
2.87808e-51
2.03164e-54
1.43075e-57
1.00618e-60
7.06121e-64
4.94193e-67
3.45255e-70
2.40718e-73
1.67408e-76
1.16281e-79
8.05514e-83
5.56756e-86
3.8431e-89
2.64643e-92
1.8175e-95
1.24617e-98
8.53206e-102
5.83049e-105
3.97725e-108
2.70642e-111
1.83697e-114
1.24493e-117
8.42071e-121
5.6817e-124
3.82758e-127
2.57338e-130
1.02247e-133
1.04822
1.01028
1.00399
0.994817
0.930715
0.988242
1.00211
0.924561
2.09934e-12
1.04662e-15
1.82966e-16
1.81249e-16
3.54405e-17
8.36642e-19
1.68049e-21
3.27321e-25
7.49122e-29
5.14283e-32
3.8224e-35
2.73736e-38
1.94259e-41
1.37781e-44
9.75461e-48
6.89302e-51
4.85985e-54
3.41779e-57
2.40165e-60
1.68393e-63
1.17779e-66
8.22256e-70
5.72342e-73
3.97335e-76
2.75722e-79
1.90929e-82
1.31832e-85
9.08819e-89
6.25158e-92
4.29109e-95
2.94114e-98
2.0114e-101
1.37261e-104
9.35266e-108
6.35796e-111
4.31085e-114
2.91787e-117
1.97048e-120
1.32746e-123
8.93503e-127
6.00595e-130
2.38635e-133
1.06186
1.01452
0.930382
1.06046
0.977184
1.0019
1.00549
0.703776
1.17021e-12
2.82297e-15
1.19371e-17
6.42777e-18
6.06406e-19
6.52561e-21
6.34072e-24
1.05979e-27
3.89249e-31
2.82454e-34
2.0811e-37
1.49095e-40
1.06808e-43
7.68116e-47
5.41644e-50
3.86759e-53
2.73403e-56
1.92613e-59
1.35934e-62
9.58663e-66
6.75581e-69
4.886e-72
3.34183e-75
2.31832e-78
1.61946e-81
1.12797e-84
7.95062e-88
5.44479e-91
3.75826e-94
2.61377e-97
1.80734e-100
1.22988e-103
8.42136e-107
5.76953e-110
3.94023e-113
2.68943e-116
1.82491e-119
1.23742e-122
8.53294e-126
5.68336e-129
3.83149e-132
1.68524e-135
1.03598
1.04395
1.01732
0.993427
1.02578
1.01178
1.00189
0.0472449
1.48991e-14
4.43621e-16
4.23791e-16
1.13493e-16
5.31753e-18
2.14641e-20
5.6168e-24
8.10821e-28
5.0827e-31
3.76649e-34
2.67366e-37
1.87817e-40
1.31897e-43
9.24579e-47
6.46565e-50
4.51471e-53
3.14552e-56
2.18677e-59
1.51742e-62
1.05054e-65
7.25413e-69
5.00741e-72
3.45169e-75
2.37356e-78
1.62884e-81
1.11514e-84
7.61695e-88
5.1964e-91
3.53749e-94
2.40275e-97
1.63024e-100
1.1036e-103
7.45173e-107
5.02347e-110
3.37982e-113
2.26886e-116
1.52098e-119
1.01734e-122
6.78669e-126
4.52152e-129
3.00949e-132
1.18607e-135
1.0541
1.02391
1
1.02452
0.990391
0.971229
1.00027
2.06938e-09
5.87884e-15
7.2401e-15
1.618e-15
5.13168e-17
1.20281e-19
2.29896e-23
4.88241e-27
3.05796e-30
2.17853e-33
1.4937e-36
1.01856e-39
7.02148e-43
4.87677e-46
3.39623e-49
2.37418e-52
1.635e-55
1.19988e-58
8.10758e-62
5.44152e-65
3.76007e-68
2.619e-71
1.77508e-74
1.25453e-77
8.40002e-81
5.83816e-84
3.89241e-87
2.63722e-90
1.80052e-93
1.22221e-96
8.24534e-100
5.55484e-103
3.75003e-106
2.52228e-109
1.70224e-112
1.14241e-115
7.61515e-119
5.11395e-122
3.51076e-125
2.27326e-128
1.49393e-131
9.89845e-135
3.94585e-138
1.02464
1.03206
1.03207
0.969497
1.00374
1.0033
0.988986
2.23539e-12
4.97269e-17
3.60073e-17
7.0474e-18
4.84167e-19
8.6673e-21
2.11712e-23
6.43269e-27
1.56431e-30
1.01922e-33
7.78489e-37
5.76012e-40
4.1899e-43
3.04208e-46
2.20556e-49
1.59512e-52
1.15182e-55
8.29714e-59
5.96096e-62
4.275e-65
3.05917e-68
2.18472e-71
1.55631e-74
1.10596e-77
7.83726e-81
5.54065e-84
3.90928e-87
2.75181e-90
1.93437e-93
1.35613e-96
9.48116e-100
6.6158e-103
4.60726e-106
3.20134e-109
2.22021e-112
1.53596e-115
1.05983e-118
7.29963e-122
5.01607e-125
3.43874e-128
2.35452e-131
1.60752e-134
6.47101e-138
1.03939
1.01976
1.00032
0.997469
1.07799
1.00055
0.764304
4.49369e-11
-8.31257e-19
5.99124e-20
1.08005e-18
1.17937e-19
7.71982e-22
2.4385e-25
1.83396e-29
5.73505e-33
2.25403e-36
9.96542e-40
4.61208e-43
3.07736e-46
9.78043e-50
4.56939e-53
2.2963e-56
6.97594e-60
4.89131e-63
9.35268e-66
2.96003e-69
9.75475e-73
2.10289e-75
4.09869e-79
1.04734e-81
1.47053e-85
3.86697e-88
3.97757e-91
1.34867e-94
7.00487e-98
1.04481e-100
4.76739e-104
4.1141e-108
8.17851e-110
4.37388e-113
3.45918e-117
1.3335e-119
2.24723e-123
1.66171e-126
8.72767e-129
2.07642e-132
1.19036e-135
1.44906e-138
2.57855e-141
1.00111
1.06237
1.00213
1.08559
1.00602
1.02283
0.985983
1.21412e-11
-8.08952e-19
1.49494e-16
1.41834e-17
9.14132e-20
8.5126e-23
5.2641e-26
1.08431e-29
2.65798e-33
1.05451e-36
4.74656e-40
2.11863e-43
8.68621e-47
4.30864e-50
1.74798e-53
9.86371e-57
5.22169e-60
1.65707e-63
7.68051e-67
5.28983e-70
1.87223e-73
8.91247e-76
2.29803e-79
1.87105e-82
2.10148e-85
1.95357e-88
3.28811e-92
2.36183e-95
1.06082e-98
2.70763e-102
6.48956e-106
4.40017e-107
5.59059e-110
5.74022e-114
1.03611e-117
1.05563e-120
3.71305e-123
6.06026e-127
1.16646e-130
2.10815e-133
2.11352e-137
9.55679e-141
1.65581e-144
0.809074
1.00586
1.02323
0.957685
1.01809
1.00826
1.00119
5.02119e-08
-9.07234e-20
3.66881e-22
1.89583e-17
2.92227e-18
4.06374e-20
2.55942e-23
1.32634e-27
3.05809e-31
1.29016e-34
6.0027e-38
3.17207e-41
9.76358e-45
6.25193e-48
1.82393e-51
2.05339e-54
8.01926e-58
2.91042e-61
1.55486e-64
5.38735e-67
1.3868e-70
4.73503e-74
1.58074e-76
2.91636e-80
2.3301e-84
3.63534e-87
1.68057e-89
9.00437e-93
6.19217e-96
2.9768e-99
1.2701e-102
6.16265e-106
3.54686e-108
2.22354e-111
4.02042e-115
2.42239e-118
2.71711e-121
1.30014e-124
6.4192e-129
1.41318e-130
9.4327e-134
1.72435e-137
4.03221e-140
1.18308
0.953786
0.971657
1.25349
0.831721
0.988387
1.00064
0.163532
-3.82557e-18
5.99848e-22
1.25838e-23
1.00723e-18
5.02669e-20
1.14922e-22
1.54875e-26
1.78702e-30
6.33015e-34
2.72971e-37
1.15076e-40
4.97481e-44
2.13111e-47
8.70873e-51
4.46296e-54
4.21809e-57
2.00763e-60
6.76599e-64
1.59123e-67
2.05814e-69
1.42734e-72
1.05773e-76
2.57577e-79
2.28555e-82
5.34572e-86
1.09057e-89
1.07613e-92
3.4152e-96
3.9616e-99
5.85108e-102
5.13442e-106
1.39484e-107
7.13633e-111
3.17495e-114
4.06174e-117
2.03941e-120
2.01168e-123
9.1903e-127
6.35159e-130
4.75591e-134
1.07758e-137
4.19646e-141
1.00049
0.9463
0.964855
1.09524
0.965254
1.00082
1.00247
0.831506
4.70585e-13
1.01726e-16
1.07721e-19
4.76774e-18
4.89169e-19
2.43472e-21
4.98353e-25
3.77762e-29
1.1847e-32
4.99086e-36
2.46918e-39
9.4808e-43
3.72174e-46
1.66788e-49
9.25564e-53
4.6697e-56
4.34337e-59
4.92601e-62
5.47926e-66
1.36114e-69
9.36588e-72
7.84832e-75
4.01214e-78
3.9456e-82
4.00262e-84
9.4231e-88
1.38438e-90
1.5065e-94
5.08041e-97
1.54202e-100
1.5784e-102
4.21649e-106
4.09157e-110
1.77803e-112
8.82237e-116
4.85458e-119
1.666e-122
3.8132e-126
7.08563e-128
3.67064e-131
1.02405e-134
2.25076e-137
1.03975
1.03649
1.02429
0.977026
0.981052
0.986259
1.00215
0.924386
7.66468e-13
-2.24315e-20
7.01332e-20
3.73846e-18
3.75525e-19
1.85902e-21
3.75748e-25
2.86242e-29
9.07782e-33
4.20306e-36
1.85579e-39
4.4724e-42
7.33175e-46
6.0477e-49
1.81669e-52
8.19699e-56
1.57071e-59
5.91796e-63
1.62583e-65
1.87835e-69
5.03746e-73
4.50161e-74
6.37592e-77
8.04838e-80
1.00601e-83
4.04948e-87
5.84164e-91
1.02776e-93
4.66061e-97
8.76561e-100
1.24155e-103
3.20608e-106
1.5672e-109
8.93273e-113
1.36013e-115
7.77348e-119
3.82269e-122
2.57786e-126
6.60412e-130
3.40343e-131
2.56008e-134
1.14025e-138
1.062
1.01602
0.986993
1.02147
0.984749
1.0011
1.00529
0.704027
-9.01657e-18
-3.08033e-20
3.45864e-38
8.91938e-19
4.38039e-20
9.68845e-23
1.27763e-26
1.49409e-30
5.2857e-34
2.3473e-37
1.00147e-40
4.20354e-44
3.33671e-47
9.71032e-51
4.05472e-54
2.02461e-57
9.92582e-61
8.62828e-64
1.70914e-67
5.73736e-71
1.23115e-72
8.7007e-76
5.12213e-80
1.09925e-83
4.22856e-87
7.54676e-90
3.28994e-92
7.56697e-96
1.15931e-99
6.35507e-102
1.362e-105
2.06002e-109
3.99088e-112
4.52298e-115
7.02981e-118
3.6293e-121
1.31917e-124
1.037e-128
2.82892e-132
1.11207e-135
8.726e-139
4.18572e-139
1.05001
1.04662
1.00457
1.17751
0.934062
1.01245
1.00173
0.0464502
-1.9441e-18
-4.63437e-21
1.84789e-17
2.79211e-18
3.86377e-20
2.52307e-23
1.37674e-27
3.12399e-31
1.2953e-34
5.62902e-38
3.06461e-41
1.28636e-44
4.66961e-48
2.9455e-51
2.14854e-54
3.73949e-58
5.89142e-61
8.51956e-65
5.08922e-67
7.28987e-70
5.91355e-74
1.84733e-76
8.89136e-80
1.04505e-83
3.87787e-86
1.80023e-89
3.25783e-93
4.63456e-96
3.31448e-99
1.62384e-102
1.96121e-105
6.30584e-108
1.81412e-111
2.3791e-114
7.27651e-118
2.32227e-121
1.12936e-124
9.94445e-129
3.03112e-132
1.17706e-135
4.63543e-139
1.28914e-142
1.03222
1.01572
1.00213
0.969237
0.978481
0.980422
1.00026
1.04389e-09
-9.56886e-19
1.36677e-16
1.67802e-17
1.57041e-19
1.11889e-22
3.62679e-26
8.61739e-30
2.49439e-33
1.07869e-36
4.5266e-40
2.14093e-43
1.01618e-46
3.77359e-50
2.01792e-53
8.87673e-57
4.28022e-60
1.91579e-63
4.84326e-66
7.08454e-70
1.93852e-73
6.68321e-77
5.48369e-79
5.0266e-82
1.54724e-85
2.88415e-88
1.64528e-91
5.37088e-95
4.10842e-98
2.38041e-101
1.39004e-104
7.75346e-109
7.0243e-111
1.08636e-114
9.91071e-119
1.19575e-120
3.22689e-123
3.57404e-127
7.34887e-131
2.04065e-133
1.80978e-136
9.9457e-139
1.98592e-142
1.02346
1.04554
1.01343
0.997226
0.920137
1
0.989735
8.73268e-13
-1.59919e-18
3.79492e-19
1.3444e-18
2.03869e-19
2.10316e-21
8.85382e-25
5.18441e-29
1.40802e-32
5.78367e-36
2.47912e-39
1.0474e-42
4.43707e-46
1.90701e-49
8.16865e-53
3.36286e-56
1.43045e-59
7.26549e-63
3.09508e-66
1.27183e-69
4.74792e-73
8.93475e-76
4.81324e-79
6.44164e-83
7.43764e-85
2.90366e-88
2.90418e-92
4.15004e-95
4.57703e-98
3.3047e-101
3.21166e-105
6.98355e-107
4.80493e-110
1.08967e-113
1.94056e-116
1.0569e-119
1.72088e-123
1.73524e-126
2.52465e-129
1.44433e-132
9.72383e-136
4.37105e-139
1.7535e-143
1.00054
1.0737
1.00365
1.01343
1.00063
1.07763
1.00458
1.0028
1.01633
1.00204
1.04464
1.00329
1.01194
1.00209
1.00164
0.99228
1.00203
1.0028
1.00166
0.995969
1.00176
1.00183
0.997232
1.00418
0.995945
1.0014
0.995752
1.0031
1.00378
0.992214
1.0013
1.01307
1.00339
0.964687
1.00071
1.00126
0.999088
1.00653
0.991441
1.00083
0.998884
1.00665
1.00608
1.01153
1.00506
0.998503
1.00684
1.01187
1.00572
1.00641
0.9892
1.00151
1.01047
1.00632
0.976569
1.0016
1.00033
0.999775
0.999838
0.971606
1.00038
0.997641
0.999544
1.00015
1.00998
1.00009
1.003
1.00002
1.00814
1.00029
1.00106
1.079
1.00513
1.00265
1.00075
1.07985
1.00453
1.00357
1.01238
1.00258
1.02534
1.00298
1.01631
1.00221
1.00207
0.997342
1.0022
1.00773
1.00163
0.997605
1.00186
1.00162
0.99534
1.003
0.991946
1.00188
0.999369
1.00298
1.0037
0.965632
1.00073
1.00498
1.00335
0.965107
1.00082
1.00109
0.98965
1.00683
0.983295
1.00083
0.985507
1.0069
1.00872
1.01137
1.006
1.00833
1.00959
1.00959
1.00588
1.00668
0.972706
1.00189
1.01556
1.0064
0.992972
1.00159
1.00057
0.9977
0.999307
0.9759
1.00037
0.999683
0.999441
1.00007
1.01053
1.00068
1.00084
1.00001
1.01566
1.00027
1.00114
1.07974
1.00459
1.00313
1.00037
1.05244
1.00327
1.00327
1.00675
1.00264
1.00917
1.00258
1.00758
1.00215
1.002
0.999758
1.0022
1.0069
1.00175
0.999028
1.00203
1.00222
0.998847
1.00259
0.980146
1.00204
0.991561
1.00285
1.00364
0.970814
1.001
1.00049
1.0036
0.948015
1.00143
1.00112
0.98424
1.00679
0.988699
1.00122
0.985689
1.0068
1.00909
1.00924
1.00597
0.99865
1.0091
1.00356
1.00528
1.00671
0.986239
1.00179
1.01487
1.00661
0.991722
1.00147
1.00052
0.999674
0.999759
0.977671
1.00025
1
0.999827
1.0001
1.01365
1.00067
0.999579
1.00007
1.02239
1.0001
1.03635
1.01969
1.00364
0.955864
0.992747
1.01197
1.00038
1.00545
1.00511
1.02628
1.01076
1.02495
1.00592
1.00459
-5.05968e-28
0.926341
-1.05726e-16
0.765676
4.1636e-08
0.921429
4.19409e-10
1.04066
0.972763
1.01452
1.00082
1.02239
0.999881
1.08974
1.00698
1.01737
1.0193
1.04818
1.01469
1.01743
1.00746
-5.45787e-18
1.00062
-3.01767e-15
0.986042
1.52881e-08
1.0007
2.69733e-07
0.987692
1.01458
0.986115
1.01547
0.923116
1
0.965711
0.999674
1.00172
0.989319
0.996586
1.0016
1
0.999959
0.0114459
1.00138
0.643406
1.00174
0.0178924
1.00124
0.643722
0.945735
1.0328
1.01044
1.00568
0.875783
1.05321
1.0272
0.985861
0.990853
0.952283
0.980228
0.995087
0.960085
0.990592
0.879304
1.0022
1.00013
1.00102
0.878544
1.00216
1.00033
1.02589
1.0099
0.759525
1.03025
1.02434
0.878898
0.789118
0.999494
1.00613
1.00001
1.01279
1.00591
0.999685
0.999141
1.00033
1.00192
1.00064
1.00265
1.00045
1.00203
1.00147
0.974461
1.01779
0.982591
0.98051
0.992065
1.00971
0.994953
1.00055
1
0.998638
0.996977
1
0.999175
1.00073
1.00078
1.00413
1.00069
1.0024
1.00149
1.00415
1.00096
0.963006
1.06513
1.00942
0.977513
0.953662
1.01843
1.00092
1.00244
1.00458
0.997075
0.997083
1.00492
0.996884
1.00267
1.00035
1.0032
0.898963
1.00533
1.00066
1.0036
0.898355
1.00234
0.959434
0.966428
1.09236
0.962349
1.02759
0.991833
1.00864
1.00857
1.00707
1.0109
1.00956
1.00768
1.00862
0.694799
1.00063
0.0456493
1.00194
0.694782
1.00081
0.0527976
0.988889
1.00007
0.98978
1.01599
0.99877
0.99629
0.991035
0.994571
0.999355
0.973999
0.967962
0.998402
0.9644
0.997795
0.000305579
1
0
1.00048
0.00109765
1.00001
4.05358e-08
1.00056
1.02784
0.998908
0.988377
0.995994
1.01557
1.01086
1.00601
1.00315
1.00775
1.00384
1.00216
1.00756
1.00574
-6.25104e-17
0.791312
-5.34852e-16
0.989792
7.51911e-10
0.79106
5.85878e-08
0.997353
1.04735
1.04296
1.07281
1.01142
1.02298
1.0392
1.00475
1.0033
1.0119
1.00351
1.00513
1.00653
1.00263
6.50579e-08
0.919714
8.68486e-10
0.765087
6.48891e-08
0.922147
8.88164e-10
1.06655
0.991155
1.08873
0.995522
1.00546
1.00439
1.0424
1.00454
1.01732
1.01374
1.03044
1.00506
1.01702
0.996492
2.83566e-08
1.00104
4.3053e-07
0.98591
2.82123e-08
1.00069
4.32809e-07
0.901699
0.997508
0.94889
1
0.997898
1.00132
0.920578
1.00088
1.00169
1.00821
1.00581
1.00138
1.00166
1.01783
0.0187472
1.00152
0.643894
1.00176
0.0188099
1.00122
0.643869
0.865574
0.982549
1.06613
0.98969
0.852391
0.969513
1.02904
0.994775
1
0.985664
0.994026
0.99261
1
0.987853
0.879721
1.00194
1.0006
1.00114
0.879251
1.00226
1.00034
1.022
0.877879
0.794471
0.987684
1.02325
0.888286
0.797674
0.992334
1.00468
0.993609
1.01296
0.992889
1.00431
0.997071
1.00084
1.00204
1.00171
1.00284
1.00061
1.00206
1.00123
0.839276
1.02761
0.998848
0.958674
0.987225
1.00196
0.969303
1.00078
1
0.997942
0.976299
1.00059
1
0.998373
1.00186
1.00402
1.00147
1.00251
1.00133
1.00393
1.00121
1.00481
0.989298
1.01587
1.0047
0.998844
0.724504
1.01222
1.00209
1.00544
0.997627
1.02582
1.00195
1.00558
1.01338
1.00096
1.00352
0.899203
1.00546
1.00073
1.00354
0.898908
1.02624
1.00815
0.852551
0.994381
1.02862
1.02646
0.777305
1.01043
1.01057
1.00101
1.0024
1.01061
1.00986
0.999374
0.694413
1.00123
0.0534637
1.00187
0.694748
1.00086
0.0533838
0.900473
1.00116
0.999915
0.991454
0.776455
0.99177
0.998125
0.99324
1
0.998516
0.983972
0.997181
1
0.998401
0.00120843
1.00014
6.59891e-08
1.00048
0.00121837
1.00002
6.60595e-08
1.00073
0.998085
1.0315
0.993058
0.990844
0.972734
1.041
1.0061
1.00068
1.01392
1.00269
1.00618
1.00073
1.01605
1.48444e-09
0.790159
9.07034e-08
0.989436
1.48948e-09
0.790906
9.08757e-08
0.994995
1.05299
1.02536
1.08914
1.00389
0.994705
0.967743
1.00349
1.00186
0.987479
1.01129
1.00305
0.981521
1.00185
4.17464e-08
0.922846
4.42855e-10
0.766027
-3.46945e-21
0.9276
-9.53608e-17
1.04563
1.03389
1.05827
1.00735
0.996113
0.852188
0.841118
1.00015
1.01427
0.943959
1.03881
1.00306
1.01194
0.944273
1.4825e-08
1.00095
2.74434e-07
0.991867
-5.58187e-18
1.00068
-2.83009e-15
1.0082
0.999999
0.901897
1.03617
1.02441
1.01663
0.917962
1.00132
1.00289
1.04418
1.00713
1.00049
1.00225
1.03801
0.0178235
1.00148
0.643005
1.00091
0.0114828
1.0013
0.643054
0.85843
0.973385
1.07021
1.02999
0.965851
0.998797
0.96994
0.995745
0.998831
0.995482
0.97988
0.993484
0.99631
0.99591
0.879049
1.00172
1.00058
1.00075
0.879022
1.00183
1.00013
1.01849
0.831485
0.800228
0.882853
1.01866
0.879026
0.892051
0.989726
1.00162
0.996646
1.00154
0.991941
1.00162
0.993726
1.00093
1.00208
1.00186
1.00242
1.00035
1.00184
1.00057
0.987856
1.10896
0.931233
1.00326
0.988272
1.07948
0.907101
1.00167
0.997965
0.999952
0.989441
1.00143
0.9982
0.999628
1.00188
1.00419
1.00133
1.00234
1.00082
1.00404
1.00069
0.982628
0.716046
1.01523
0.992791
0.942369
0.70306
0.98845
1.00481
1.00541
0.993382
0.999139
1.00373
1.00561
0.992378
1.00097
1.00333
0.89853
1.00448
1.00035
1.00316
0.898975
0.997634
1.01117
0.778324
0.903404
0.999765
0.994904
0.972678
1.01161
1.01223
1.01231
1.01459
1.01192
1.01256
1.01292
0.694709
1.00114
0.0527415
1.00144
0.694611
1.00058
0.0456901
0.778324
0.992794
0.98709
0.974162
0.980087
0.996591
0.954431
0.990112
1
0.938159
0.980722
0.991038
0.997825
0.930985
0.00109004
1.00017
4.04496e-08
1.0001
0.000302036
1
0
0.990196
0.943131
1.03338
0.970057
0.989368
0.966256
1.03616
1.00512
1.00019
1.01854
1
1.0053
1.00011
1.01941
7.60425e-10
0.790418
5.90412e-08
0.994032
-6.52434e-17
0.791042
-5.39045e-16
1.00285
1.00193
1.0005
1.00067
1.00102
1.00307
1.00226
1.00944
1.03012
1.04302
1.0771
1.03087
1.04615
1.01046
1.00447
1.00136
1.01334
1.00406
1.00181
1.01144
1.00458
1.00527
1.01533
1.00485
1.02031
1.02544
1.00515
1.00516
1.003
1.00118
1.0023
1.00096
1.00165
1.00282
1.00246
1.0099
1.07188
1.02617
1.04555
1.02656
1.04407
1.00984
1.00461
1.00453
1.00202
1.0116
1.00236
1.01131
1.00442
1.005
1.00715
1.00195
1.00311
1.00731
1.00238
1.00557
1.00197
1.01257
1.00186
1.01229
1.01038
1.00249
1.00172
1.00414
1.00198
1.00363
1.00202
1.00227
1.00341
1.00458
1.00605
1.04426
1.01611
1.03994
1.01538
1.03432
1.00525
1.00489
1.00357
1.00734
1.00292
1.00726
1.00288
1.00456
1.00159
1.01728
1.00807
1.002
1.00781
1.00195
1.00121
1.00463
1.00259
1.00233
1.00326
1.00254
1.00346
1.00403
1.00098
1.00185
1.00174
1.00172
1.00176
1.00128
1.00123
0.999999
0.945307
0.999951
0.99421
0.956531
1.00001
0.999892
1.00007
1.00074
1.00075
1.00189
1.00023
1.00036
1.00012
1.00055
1.00312
1.00179
1.00417
1.00176
1.00002
1.00155
1.00115
1.00219
1.00173
1.00121
1.00209
1.00158
1.00095
1
0.997992
0.930918
1.00006
0.923792
1.00006
0.996897
1.00003
1.00228
1.00053
1.00044
1.00038
1.00046
1
0.999686
1
1.00115
1.00152
0.999665
1.00117
1
0.983408
0.9061
1.00175
0.998113
0.90786
1.0016
0.979835
0.999998
1.00189
1.00368
1.00353
1.00168
1.00379
1
0.993017
0.982189
1
0.966477
0.997181
0.962101
0.993425
1
1.00164
0.999452
1.0009
0.999524
1.00108
1
0.966754
0.994355
0.911172
1.00349
0.909422
1.00331
0.966538
1.00002
1.00352
1.0018
1.00375
1.00192
1.00377
1.00013
1.00005
1.00344
1.00264
1.00354
1.00348
1.00244
1.00032
0.997831
0.998123
1
0.974411
0.99303
1
0.998547
1
1.00172
1.00027
1.00084
1.00127
1.0001
1.00044
0.995135
1.01245
1.0052
0.996239
1.00529
0.993022
0.994869
1.00007
1.00385
1.00323
1.00201
1.00354
1.0027
1.00005
0.998159
0.968017
0.90564
1
0.949072
1.00002
0.999999
1
1.00095
1.00108
1.00003
1.00151
1.00016
1
1.0021
1.00012
1.00285
1.00099
1.0002
1.00268
1.00221
1.00058
0.995665
1.00678
0.998601
0.992694
1.00658
1.00209
1.0057
1.00551
1.00895
1.0065
1.00555
1.00887
1.00575
1.00067
0.98846
0.99988
0.999103
0.999984
0.999642
1.00062
1.00205
1.00116
1.0001
1.00257
1.00025
1.00276
1.00202
1.00184
0.999671
0.988653
1.00591
0.998378
1.0053
1.00064
1.00576
1.00654
1.00564
1.00878
1.00583
1.00884
1.00577
1.00833
1.01003
1.00915
1.00547
1.00943
1.00916
1.00801
1.00435
1.00782
1.00921
1.01147
1.00785
1.00924
1.00389
1.00512
1.00581
1.00652
1.00534
1.00573
1.00684
1.00511
1.00247
0.996695
1.00512
0.992926
1.00539
0.996523
1.00247
1.00853
1.00559
1.0101
1.00912
1.00913
1.00909
1.00853
1.00459
1.01124
1.00743
1.00903
1.00745
1.00907
1.00477
1.00535
1.00582
1.00618
1.00701
1.00614
1.00705
1.00531
1.00822
1.00826
1.00685
1.00642
1.00832
1.00688
1.00846
1.00415
0.994848
1.00007
0.983172
0.996789
1.00072
1.00395
1.00603
1.0035
1.00241
1.00151
1.00355
1.00246
1.0062
1.00926
1.00727
1.0104
0.996993
1.00987
0.988102
1.01038
1.0087
1.00658
1.00866
1.00667
1.00857
1.00691
1.00858
1.00465
0.985854
1.00011
1.00045
0.999974
1.00069
1.00519
1.00612
1.00183
1.00357
1.00241
1.00375
1.00247
1.00588
0.998871
1.00036
0.999934
1.00032
1.0003
0.999984
0.997305
0.952807
0.984458
0.995529
0.999061
0.982605
0.991766
0.914536
0.979482
1
0.998516
0.999841
0.999892
0.9968
0.990545
0.995563
0.986428
0.998429
0.998533
0.997566
0.994108
0.993122
0.999562
1.00054
1.00055
0.999995
1.00031
0.999974
0.998984
0.973713
0.999032
0.971247
0.997204
0.970914
0.983623
0.970957
0.984103
0.999857
0.999174
0.996349
0.998774
0.997522
0.982473
1.00203
1.00097
1.00001
1.00004
1.00091
1.00004
1.0023
1.00504
1.01214
1.00314
1.00969
1.01308
1.00496
1.00353
1.00156
1.00028
1.00113
1.0002
1.00039
1.00176
1.00128
1.00616
1.00324
1.00068
1.0065
1.00159
1.00708
1.00582
1.00216
1.00018
1.00058
1.00006
1.00087
1.00024
1.00194
1.00514
1.00933
1.00263
1.00388
1.00801
1.00354
1.00381
1.0018
1.00074
1.00044
1.00129
1.0009
1.00163
1.00146
1.00283
1.00246
1.00141
1.00079
1.00304
1.00086
1.00222
1.00865
1.02081
1.0372
1.07888
1.00909
1.00961
1.03308
1.00443
1.00259
1.01147
1.00488
1.00464
1.00212
1.01099
1.00466
1.00228
1.00225
1.0042
1.00778
1.00376
1.00243
1.00301
1.00118
1.00167
1.00081
1.0013
1.00259
1.00221
1.00787
1.07887
0.994442
1.024
1.00064
1.03085
1.00604
1.00453
1.00498
1.00199
1.00851
1.00261
1.00996
1.00428
1.00415
1.00759
1.00326
1.00314
1.00446
1.00773
1.00312
1.00052
1.00682
1.00207
1.01821
1.00094
1.00329
1.00212
1.00356
1.0027
1.00345
1.00218
1.00383
1.0024
1.00327
1.00518
1.02729
1.01494
0.993629
1.01626
1.00789
1.00418
1.00421
1.00346
1.0077
1.00311
1.00782
1.00339
1.00394
1.00063
1.05074
1.02899
1.00224
1.03094
1.0022
1.00092
1.00335
1.00265
1.00233
1.0033
1.00272
1.00343
1.00293
1.00085
1.00198
1.00144
1.00162
1.00108
1.00174