/*--------------------------------*- C++ -*----------------------------------*\
| =========                 |                                                 |
| \\      /  F ield         | OpenFOAM: The Open Source CFD Toolbox           |
|  \\    /   O peration     | Version:  5.0                                   |
|   \\  /    A nd           | Web:      www.OpenFOAM.org                      |
|    \\/     M anipulation  |                                                 |
\*---------------------------------------------------------------------------*/
FoamFile
{
    version     2.0;
    format      ascii;
    class       surfaceScalarField;
    location    "4.6";
    object      alphaPhi10;
}
// * * * * * * * * * * * * * * * * * * * * * * * * * * * * * * * * * * * * * //

dimensions      [0 3 -1 0 0 0 0];

internalField   nonuniform List<scalar> 
25186
(
-6.57629e-09
1.35851e-08
-3.3239e-08
1.00718e-08
5.68452e-09
1.76182e-08
-2.51302e-08
3.82625e-08
-1.58848e-07
3.31417e-08
-1.35905e-08
9.85102e-08
2.96536e-08
3.4464e-08
2.76694e-08
6.77508e-08
7.67501e-08
1.53117e-07
-1.02373e-08
-9.86356e-09
-3.01042e-09
1.06216e-08
-5.47532e-09
-2.49818e-08
5.52597e-09
-1.03765e-08
-4.98503e-09
-3.15746e-09
2.19061e-08
-2.47748e-10
6.27443e-08
6.28509e-08
6.29551e-08
1.68845e-16
-9.93016e-09
-9.93016e-09
-9.93016e-09
-4.47501e-24
2.37836e-22
1.09546e-22
-1.8552e-21
-6.04434e-22
2.31576e-21
-1.03194e-21
1.06095e-26
1.06812e-25
-1.01587e-26
-3.04032e-28
1.18534e-27
-8.62553e-30
4.21057e-29
6.30653e-30
-6.57351e-31
1.69971e-32
2.21589e-33
-8.24818e-33
1.027e-36
1.865e-36
-1.08082e-34
3.00992e-40
3.68462e-40
1.05548e-38
1.29531e-43
1.07879e-43
-3.57828e-41
5.69754e-47
1.82582e-47
-1.89589e-45
2.51205e-50
6.92798e-51
5.57668e-48
1.10223e-53
5.6975e-54
-1.76356e-50
4.81274e-57
7.48085e-58
-3.44091e-55
2.12578e-60
3.43745e-61
-1.54797e-57
9.30464e-64
1.65604e-65
-1.199e-60
4.01428e-67
-1.21318e-67
2.95642e-63
1.7466e-70
4.95352e-72
2.74556e-68
8.72106e-74
3.26243e-75
-1.45922e-69
4.57797e-77
-6.79474e-78
4.83981e-73
1.74635e-80
-1.16809e-81
7.04683e-76
1.02337e-83
1.68459e-85
-9.70609e-80
1.31537e-86
-1.24508e-87
-3.57649e-83
2.46799e-90
-6.83339e-92
4.68004e-86
1.16279e-93
5.39732e-94
2.17736e-90
6.91341e-97
9.20899e-98
-3.98151e-93
1.52458e-99
1.37018e-100
-1.23749e-94
2.34404e-102
-7.06e-103
7.52488e-99
5.84123e-106
8.15428e-107
-5.57546e-102
4.46138e-109
9.19855e-110
2.3041e-104
5.00426e-112
-4.3087e-114
7.33398e-109
9.33699e-115
1.16468e-115
-7.02378e-111
1.17371e-118
-4.30832e-119
2.84678e-118
4.30118e-122
-6.66111e-123
6.46362e-123
3.87017e-125
1.85641e-126
7.15484e-122
6.79325e-128
-9.87094e-130
-4.7363e-124
1.0542e-130
5.22162e-131
-5.14979e-126
1.73832e-133
8.83871e-134
-1.9842e-129
3.51456e-137
-7.25253e-138
2.07222e-133
3.16863e-140
9.71694e-141
-1.50307e-135
6.94145e-144
3.90978e-144
-5.6229e-139
7.26532e-147
-8.96081e-150
4.01954e-143
4.9524e-149
1.301e-151
2.09115e-146
6.38395e-154
1.13406e-153
5.50692e-08
-6.42708e-09
2.33203e-08
4.05588e-08
1.93199e-08
-1.76329e-07
3.3796e-09
5.12567e-09
6.70601e-09
8.70008e-08
9.26966e-08
7.52815e-08
7.59562e-08
3.40965e-08
-2.98627e-08
4.96619e-08
4.8181e-09
6.21178e-09
1.16247e-08
-1.8826e-08
-3.42836e-11
4.25278e-08
-3.59144e-10
2.38627e-08
5.74613e-08
2.96811e-08
-4.26561e-08
1.66758e-08
-8.02842e-09
2.36697e-08
-9.1905e-09
2.62919e-09
-1.03373e-08
-1.65591e-10
-3.08341e-10
1.82143e-08
7.63973e-11
1.81055e-08
-3.16005e-18
1.73289e-18
2.76599e-08
2.7963e-18
-4.55219e-18
-6.87521e-18
5.02516e-18
1.42638e-18
-1.41728e-24
6.99803e-22
-3.40181e-24
1.08157e-22
2.64214e-22
-6.15047e-21
7.63652e-21
1.67584e-25
6.52807e-26
-9.0892e-27
1.94303e-27
8.56386e-27
-8.93658e-30
9.8134e-31
3.31739e-28
-1.88844e-29
2.1077e-34
1.94335e-30
-2.30564e-33
1.03959e-37
2.31973e-34
-6.26231e-36
3.18763e-41
2.3259e-38
-7.39089e-40
1.29444e-44
5.40377e-42
-5.11679e-42
5.81967e-48
1.95993e-45
-1.48066e-45
2.6586e-51
1.78872e-49
-4.59194e-48
1.20564e-54
2.11451e-53
-2.20076e-51
5.40055e-58
3.17446e-56
1.97252e-55
2.44537e-61
5.92552e-60
5.73015e-58
1.13893e-64
1.11425e-63
3.14594e-61
5.83356e-68
-5.41132e-66
-4.18261e-64
2.82391e-71
1.87427e-70
-6.99848e-68
1.15809e-74
-1.9977e-75
7.49259e-71
6.06681e-78
1.1411e-76
3.01165e-74
3.35725e-81
-7.53445e-81
7.2062e-77
1.87087e-84
-1.58962e-84
-1.26582e-81
2.05765e-87
-2.21752e-86
-9.19472e-83
4.9185e-91
-4.12623e-89
-1.05927e-86
3.79518e-94
1.35457e-94
1.9676e-90
4.2437e-97
1.69429e-98
-4.55058e-93
1.33262e-100
-1.11298e-97
-5.10403e-96
1.22789e-103
-2.15782e-100
7.3231e-98
4.31298e-107
2.04407e-107
-1.7444e-102
3.22788e-110
3.98559e-108
3.0451e-105
1.40271e-113
-4.0306e-111
-1.51446e-108
2.76929e-116
2.37767e-118
4.08037e-118
3.74874e-118
-6.27732e-118
-1.8216e-114
4.24391e-122
-7.87172e-122
-2.99797e-118
1.03142e-125
-4.64725e-124
-7.41142e-122
6.6458e-129
-6.19018e-128
-3.73298e-124
1.71614e-132
-2.0904e-131
-1.64359e-128
8.11307e-136
-2.28713e-136
4.05668e-136
7.70176e-139
-6.9061e-139
-4.2387e-137
5.70029e-142
-1.52738e-142
-2.47516e-137
2.14766e-145
-4.65658e-142
-3.67122e-140
7.69396e-149
4.4356e-146
-7.5453e-145
2.41937e-151
6.92999e-150
6.13421e-147
4.89121e-155
-1.04126e-149
1.46122e-08
-2.65781e-08
-1.44396e-08
-8.00869e-10
-3.37695e-08
4.27183e-08
1.01063e-07
1.65366e-08
-3.05196e-08
2.93799e-09
8.08424e-07
-3.89488e-08
1.36437e-09
1.17366e-09
-7.76743e-09
-7.43193e-09
-1.13978e-08
-1.7726e-08
-6.01565e-08
-9.25846e-09
-2.13706e-08
-8.35798e-08
-7.04282e-08
-2.95744e-08
-1.06154e-07
-1.86419e-07
-1.67328e-07
-2.4426e-07
-4.18014e-07
1.22988e-09
-8.40724e-09
-7.8176e-09
-2.12475e-09
2.12292e-10
-2.74172e-08
4.77858e-09
8.09517e-09
1.71818e-08
4.79819e-10
6.04407e-11
1.20402e-09
-1.54063e-10
1.36206e-09
-2.14244e-14
-3.00509e-16
-1.07802e-08
-2.73888e-16
-1.07802e-08
2.2318e-22
5.62197e-19
-2.41724e-23
5.85974e-20
9.0781e-20
2.01056e-19
-6.19218e-19
-8.99102e-26
1.98823e-22
1.76868e-26
-8.28803e-27
2.99949e-26
6.02528e-29
6.77372e-28
1.63225e-28
1.73209e-29
9.19674e-31
1.93887e-30
-2.77492e-30
5.71025e-35
1.09274e-33
-3.49556e-33
1.10359e-38
1.33839e-37
-8.13799e-37
4.6416e-42
3.14811e-41
-1.07399e-41
2.04848e-45
9.78958e-45
-6.35405e-43
9.14209e-49
2.08061e-48
-3.68953e-45
4.06589e-52
1.06886e-51
9.40917e-51
1.74403e-55
1.21277e-55
-1.7101e-52
7.676e-59
3.69549e-59
-3.47345e-55
3.40613e-62
7.92775e-63
9.20441e-60
1.57357e-65
8.80375e-67
-1.41303e-61
6.55481e-69
5.75285e-70
1.17404e-64
3.10624e-72
8.84879e-73
1.76812e-68
1.77052e-75
-9.00904e-77
-3.54524e-72
8.61757e-79
1.81367e-79
-1.65235e-74
1.00267e-81
-2.07175e-83
3.91952e-79
1.05261e-83
-2.74091e-85
6.50426e-81
1.66273e-87
-8.2725e-89
-7.19535e-84
2.22261e-91
-6.45129e-92
2.21566e-92
3.08144e-94
-8.93898e-95
2.04452e-95
3.69809e-96
5.9752e-98
-5.70302e-93
5.08534e-100
4.86588e-101
-1.6354e-95
8.64609e-104
9.68006e-107
7.04841e-99
3.89525e-107
-2.63406e-108
2.07525e-103
1.65149e-110
-3.35642e-113
-2.67681e-106
1.38677e-113
-1.05145e-114
-1.24724e-110
5.64554e-116
4.14843e-118
-3.8736e-112
6.03515e-120
5.36904e-121
3.52906e-115
3.3809e-123
5.9999e-124
-2.35893e-118
3.3461e-126
-2.0021e-127
1.0685e-121
5.71302e-129
-4.82479e-130
8.6331e-125
6.56758e-133
4.945e-133
1.15171e-128
2.37932e-136
2.97086e-137
6.99767e-132
4.57901e-139
-1.63176e-140
6.45774e-140
5.55655e-141
1.92084e-143
-4.82678e-137
3.32644e-145
5.41138e-146
-4.10335e-141
6.84008e-149
-2.67107e-150
4.81585e-144
-9.11929e-153
3.22814e-153
1.95836e-08
-1.16808e-08
-1.67753e-08
-8.91202e-09
-1.98893e-08
-5.32653e-08
3.20388e-08
-2.15986e-08
-3.47552e-08
-4.86609e-09
-7.62814e-09
-1.24369e-06
-2.96982e-07
-5.88761e-07
2.80524e-07
-4.35343e-09
-9.43138e-10
-2.14772e-10
3.54403e-08
5.0658e-09
2.93214e-08
9.0367e-08
9.89622e-08
7.64527e-08
8.95906e-08
-4.89617e-08
-1.51314e-08
-2.84023e-10
-3.96599e-08
8.63905e-09
-8.44004e-08
-1.15471e-08
1.19962e-09
-7.31113e-08
8.33753e-10
-2.16577e-08
3.92867e-09
6.02104e-09
1.00695e-08
3.59558e-10
3.40023e-10
-9.81744e-10
2.00858e-11
3.03214e-10
3.61447e-10
2.40851e-10
3.53745e-10
3.16538e-10
4.19884e-10
-5.59984e-10
-3.39038e-10
-3.78006e-10
-4.25541e-10
-4.27952e-11
5.61862e-13
2.33531e-08
1.95042e-11
2.3357e-08
-1.28184e-21
-4.98294e-18
3.83811e-19
5.86678e-18
2.00365e-16
8.76259e-18
-2.08998e-16
-6.05608e-18
-5.90751e-18
-6.07753e-18
4.43217e-25
-9.28947e-22
-6.29023e-24
-1.28315e-27
-1.41928e-25
1.79323e-27
8.00704e-28
-1.11089e-27
1.41186e-29
3.47426e-30
-1.05101e-29
-2.79444e-32
4.97078e-34
2.00492e-33
-1.79413e-33
4.80058e-38
1.71652e-36
6.46946e-38
1.687e-41
2.45793e-40
-7.12489e-40
7.39656e-45
5.95616e-45
5.06269e-43
3.2877e-48
2.43889e-47
-6.59421e-45
1.432e-51
4.78839e-51
-2.23589e-49
6.29001e-55
1.84254e-54
4.69935e-52
2.75969e-58
7.28125e-59
-4.02172e-55
1.28471e-61
-1.82681e-61
-1.94778e-58
6.81224e-65
1.34215e-64
-2.61731e-61
2.83097e-68
-7.59844e-68
-3.58965e-64
1.26161e-71
5.10964e-72
8.42129e-68
5.51203e-75
1.81372e-75
-1.08987e-71
3.98818e-78
3.84582e-79
-2.81706e-74
9.52557e-81
1.56861e-81
-3.85475e-77
1.27567e-84
-2.31624e-83
-1.8698e-80
8.25387e-88
-1.80047e-89
1.11629e-83
2.22309e-90
3.17209e-91
-9.77007e-87
7.41286e-94
-3.87088e-94
-1.48584e-90
2.25051e-97
-1.56418e-95
-4.83889e-92
1.49529e-100
-6.16413e-101
-5.47033e-96
2.32615e-103
-4.47359e-105
1.99995e-99
3.61599e-107
9.21068e-109
-5.59413e-104
2.21014e-110
-2.10857e-109
7.21554e-107
7.51023e-113
-2.13009e-114
-4.7496e-109
3.232e-115
8.18735e-116
-1.65711e-111
3.19355e-119
-2.06459e-119
-1.51397e-114
1.60938e-122
-6.03365e-123
-2.01821e-118
1.78756e-125
-6.6397e-126
2.03534e-121
6.40961e-129
6.43706e-129
-5.62921e-125
7.5506e-132
-9.09535e-131
-2.09858e-127
1.09121e-134
-4.17452e-135
-1.06321e-130
2.26528e-138
-1.32756e-139
-3.85431e-134
7.34181e-142
2.34549e-142
-1.29287e-137
4.24617e-145
1.60861e-145
-2.81091e-141
3.29368e-148
-5.77409e-147
-5.55297e-144
-4.92083e-150
-2.68477e-148
1.25343e-08
-1.63145e-08
-1.36644e-08
1.14805e-08
-2.09451e-08
-1.83588e-08
-2.44511e-08
-1.12737e-08
1.58615e-07
-2.39222e-08
3.5239e-08
4.49389e-08
-1.64829e-08
-3.88698e-09
2.24051e-08
-6.07595e-08
-3.36472e-08
2.70303e-08
-3.58581e-08
3.32113e-08
-1.49391e-09
-7.54507e-08
7.65591e-08
-1.2559e-07
1.00031e-08
1.24747e-08
8.00803e-09
9.6025e-09
-4.05787e-08
-4.20159e-08
-5.44925e-08
-3.71917e-08
9.41487e-10
-2.29669e-08
3.90442e-09
-6.79161e-09
2.34684e-08
-2.83568e-09
2.21751e-09
-3.03901e-09
-1.32476e-10
2.61307e-10
-2.401e-10
9.30228e-10
2.33598e-10
9.55459e-11
2.08199e-10
1.60206e-10
-9.4248e-11
3.29292e-11
3.08691e-08
-4.04049e-11
3.10135e-08
1.28581e-16
-6.14175e-18
-5.95057e-09
-5.71664e-18
1.28575e-16
1.28765e-16
1.2843e-16
3.69333e-24
-1.64696e-21
3.55131e-22
-5.05488e-22
-8.28868e-23
2.91943e-21
-7.42619e-22
-4.91513e-27
-2.81824e-25
-1.12173e-26
2.30693e-27
-1.21154e-27
5.77567e-29
6.79398e-29
-1.33618e-29
8.11585e-30
1.96324e-32
3.91103e-33
-2.92549e-32
1.18468e-36
3.21356e-36
-1.52816e-33
3.68153e-40
4.71615e-40
-6.51244e-37
1.57889e-43
4.23386e-44
8.51443e-42
6.93635e-47
1.97341e-47
-1.31829e-44
3.08637e-50
8.98025e-52
1.5044e-47
1.37996e-53
1.22214e-54
-1.26552e-50
6.04957e-57
4.72016e-58
-4.23457e-54
2.79154e-60
4.97827e-61
8.8516e-58
1.15019e-63
1.50243e-65
-7.82114e-61
5.06795e-67
-6.8912e-68
-9.21992e-63
2.22791e-70
2.96645e-71
-1.16144e-66
1.08894e-73
-1.8235e-74
3.36438e-69
5.72423e-77
1.53318e-77
-4.25391e-73
7.71724e-80
7.5806e-81
1.15931e-75
1.75618e-82
1.79083e-83
-1.43175e-78
4.05019e-86
-3.65158e-85
-5.99966e-81
2.36728e-89
-6.37597e-90
-4.38015e-85
1.44605e-92
2.76899e-93
1.91194e-89
3.85322e-95
1.09286e-96
-2.91066e-90
3.76833e-99
-7.15882e-100
8.17049e-95
1.41653e-102
-1.61022e-102
3.14788e-98
1.87683e-105
-1.88539e-106
-5.82717e-101
6.21091e-108
-1.82195e-109
-9.85709e-104
5.45207e-112
4.04548e-112
1.03153e-107
5.16854e-115
-8.02195e-116
9.00739e-116
2.40549e-117
1.29216e-119
-1.02281e-114
1.88998e-121
6.67089e-122
1.67956e-116
1.80366e-124
4.6674e-124
-4.85731e-120
3.51779e-127
1.89768e-128
-4.96286e-122
2.34767e-130
3.83884e-131
-3.4877e-126
5.52957e-134
-1.25338e-134
1.22646e-129
8.57364e-137
-8.41299e-138
-6.84112e-134
3.63647e-139
3.82979e-140
-2.19198e-135
6.35499e-143
3.80858e-143
1.68653e-140
4.52791e-146
1.05722e-146
-8.25414e-142
1.25936e-150
-5.70129e-145
1.85761e-08
-1.22497e-09
-3.40311e-07
1.84927e-08
1.78456e-08
1.85662e-08
6.42236e-09
5.31862e-09
3.71894e-09
5.16013e-09
-2.71227e-09
-1.03089e-08
1.68636e-08
2.23365e-08
2.57619e-08
-3.60269e-08
-5.46043e-08
-3.22391e-08
-7.99033e-08
5.96448e-09
-1.56577e-08
-2.41884e-08
1.60363e-08
9.63599e-08
2.02867e-08
-6.55728e-09
1.80892e-09
3.90964e-09
8.66625e-09
1.68667e-09
2.84352e-08
7.24842e-10
-9.46004e-10
-2.9249e-08
-1.40996e-09
2.30174e-09
-1.81476e-09
4.02196e-11
-5.06813e-10
-1.75338e-09
3.58686e-10
3.85316e-10
3.04452e-10
3.98762e-10
3.75033e-10
-2.83206e-10
4.54461e-11
6.27394e-08
-3.18451e-11
6.3151e-08
-2.95755e-16
-7.55358e-18
-6.55702e-09
-6.55702e-09
-7.893e-18
-2.96016e-16
-2.9463e-16
-2.97354e-16
5.82497e-24
-5.18236e-22
4.69009e-22
1.51722e-21
8.35064e-22
1.16814e-21
3.1416e-21
8.21951e-27
-8.83027e-26
-2.58508e-27
2.59497e-27
-6.21208e-28
-1.44751e-28
4.90196e-29
-1.15741e-29
-1.81513e-29
1.51534e-32
-1.79487e-32
-1.51767e-33
9.1608e-37
-2.97531e-36
-1.83499e-33
2.83801e-40
-5.5684e-40
-8.13848e-37
1.26275e-43
-1.44265e-43
-2.32844e-41
5.92741e-47
-4.05251e-47
5.19511e-43
2.64268e-50
-1.53756e-50
1.1843e-47
1.30838e-53
-1.54328e-54
-1.64948e-50
5.22813e-57
1.81853e-57
-1.98206e-52
2.22133e-60
-2.94732e-61
3.31463e-56
1.13223e-63
7.98181e-65
-5.50088e-60
8.28389e-67
-3.4211e-68
-7.02667e-63
7.28371e-70
-4.98139e-72
-3.07914e-66
1.50948e-72
2.83026e-74
-4.28441e-69
2.05919e-76
4.80179e-78
-2.07293e-73
1.42555e-79
-1.30466e-81
-1.84892e-75
4.75051e-82
2.6777e-85
-3.694e-78
5.47819e-85
1.64784e-85
-1.55541e-80
3.14537e-88
1.31212e-88
-3.29432e-84
1.05476e-91
1.81631e-93
-1.48217e-87
2.955e-95
1.96419e-96
-5.47552e-92
2.05508e-98
2.01835e-99
-2.1503e-93
1.85709e-101
-3.15609e-102
-8.06808e-99
4.60383e-105
1.51707e-106
-7.86481e-101
3.36183e-108
-2.17829e-109
-2.07533e-103
5.16792e-111
1.97304e-112
-5.31023e-108
9.77103e-115
-3.6348e-117
5.8268e-112
1.28364e-117
-2.74044e-119
-6.97303e-114
1.43329e-120
-8.63487e-123
-1.55533e-116
1.58966e-123
-2.29322e-124
1.04033e-119
5.04413e-127
-1.56785e-127
-2.82737e-122
1.91001e-130
-7.27482e-131
2.154e-125
1.02325e-133
3.2636e-135
3.1315e-129
9.00087e-137
-2.77663e-140
-8.52971e-133
1.75819e-140
1.1683e-141
5.29628e-141
8.23832e-144
1.643e-145
9.07532e-139
4.46756e-147
1.85297e-148
-2.09458e-141
1.29379e-151
1.15128e-150
9.94431e-08
3.34162e-09
9.25603e-08
4.2723e-08
-4.31988e-08
2.42476e-07
-1.55716e-08
-7.90891e-09
2.42695e-10
-8.7956e-08
1.6487e-07
1.01743e-07
5.46533e-08
5.42366e-08
5.41671e-08
5.36399e-08
2.50128e-08
2.04428e-08
4.09828e-08
4.83428e-08
3.08115e-08
3.13429e-09
8.47058e-08
-3.9267e-08
-2.78289e-08
-4.46463e-08
-3.77917e-08
-2.51068e-08
-3.65357e-08
-6.8766e-09
-4.63704e-08
7.19981e-08
2.87519e-08
-6.33155e-09
-3.02111e-07
-7.81599e-08
2.42222e-07
3.79908e-08
-1.20882e-09
-3.25056e-09
2.99498e-08
2.52564e-08
6.59979e-08
-1.42152e-07
1.71937e-09
6.5521e-09
6.01908e-11
-4.14601e-09
-6.39908e-09
-1.14129e-09
-8.33736e-10
1.5284e-09
-8.42922e-10
1.72686e-09
-3.28048e-10
-5.64598e-10
7.93166e-11
2.96238e-10
1.80396e-10
1.53789e-10
-1.91528e-11
-9.83682e-12
2.21751e-08
-4.51098e-11
2.22201e-08
1.72462e-23
-6.45034e-19
-2.09735e-19
3.10111e-16
1.54124e-18
-2.89865e-16
-1.90753e-17
-1.61224e-18
-1.28254e-18
-2.96237e-18
-1.30244e-18
-2.20156e-24
-1.99424e-22
-1.34982e-23
-4.89549e-29
-3.35127e-26
2.03677e-27
6.25368e-28
-1.22536e-28
-3.07306e-30
3.29308e-30
-1.65567e-30
-1.35415e-31
4.40555e-34
-6.8172e-34
2.17086e-34
4.33917e-38
-7.57817e-38
-4.72637e-36
1.53245e-41
-2.26821e-41
-1.8205e-40
6.6752e-45
-6.20916e-45
-2.03519e-43
2.94563e-48
-1.10286e-48
1.40345e-45
1.29755e-51
-5.87982e-52
-1.76312e-49
5.92233e-55
-1.2768e-55
-1.96236e-52
2.78231e-58
-4.05732e-59
-1.19715e-54
1.15121e-61
-1.03928e-62
-5.94851e-59
5.12978e-65
-6.77361e-66
-1.41896e-61
2.24758e-68
-6.56195e-70
-6.51408e-66
1.02488e-71
-6.21007e-74
-3.69584e-68
4.15873e-75
-3.86495e-76
-2.34878e-73
2.03089e-78
-4.65399e-79
-2.14621e-74
3.62565e-81
-2.7488e-82
-1.32992e-77
1.35429e-83
3.64034e-85
-3.85078e-80
1.46613e-87
-2.7583e-90
2.48399e-84
4.57772e-91
-4.16613e-92
2.37786e-89
2.55482e-94
-2.00559e-95
-4.50446e-91
1.04118e-97
-2.81878e-99
1.18842e-99
5.75649e-101
1.71629e-102
1.9688e-96
3.33529e-104
1.44642e-105
-3.04805e-99
2.32538e-107
1.768e-108
4.60735e-102
2.30284e-110
9.96961e-113
4.5442e-106
6.20896e-113
-3.0958e-114
-2.82781e-108
2.22333e-116
8.24147e-118
-2.2782e-112
8.32135e-120
-3.42839e-120
-1.85028e-115
4.1779e-123
1.00908e-124
-8.24953e-119
3.54114e-126
3.30796e-127
-7.64318e-122
1.81829e-129
3.84422e-130
2.14169e-124
1.24888e-132
-5.27218e-135
4.25245e-128
6.49093e-136
-1.10881e-136
-1.12957e-130
1.10135e-138
1.00005e-140
-5.41208e-135
6.05786e-141
1.03742e-143
-2.72103e-137
4.21818e-145
-1.44202e-146
6.29712e-146
4.39769e-148
-7.23487e-151
1.53845e-149
1.37866e-151
-9.88359e-147
6.83915e-08
2.41135e-08
-1.60762e-07
6.41873e-08
4.01685e-08
-3.85968e-07
4.55974e-08
4.27444e-08
4.41157e-08
5.52959e-08
5.28824e-08
5.91581e-08
-3.7696e-07
-3.75349e-07
-4.59706e-07
4.17002e-08
-2.02182e-08
6.19097e-08
6.62867e-08
2.32684e-08
-2.31874e-09
5.1118e-10
-5.54623e-09
-3.02675e-08
-2.40977e-08
-4.13863e-09
-1.9241e-07
-2.07624e-08
3.94938e-09
1.72033e-08
-7.18256e-10
-2.42413e-09
-2.02671e-08
1.12543e-09
-1.66491e-10
2.9067e-10
-9.70004e-10
-1.32843e-09
-1.1889e-09
-6.76989e-10
-8.50769e-10
-6.30076e-10
-4.29698e-10
-2.46555e-11
-1.50069e-10
-1.59262e-10
-3.76477e-11
-3.09152e-11
-1.35337e-12
-1.2613e-08
4.04314e-12
-1.26132e-08
1.56905e-22
-3.92891e-22
8.26162e-22
-5.14424e-20
4.43011e-20
-6.42872e-19
1.35755e-20
2.60542e-26
-2.31137e-26
2.01499e-27
4.30069e-26
-1.03856e-27
2.59176e-29
6.59089e-28
-8.76589e-29
-3.25113e-29
8.44798e-31
-6.9059e-31
-8.49423e-31
5.49776e-35
-1.54808e-34
7.24161e-34
1.06172e-38
-1.38318e-38
-5.52193e-37
4.44764e-42
-3.89998e-42
-8.70962e-42
1.95492e-45
-9.78641e-46
-1.16208e-42
8.64928e-49
-4.80332e-49
4.55351e-46
3.94386e-52
-1.60169e-52
-3.83099e-49
1.77615e-55
1.04368e-56
-1.57239e-51
7.58944e-59
-5.64988e-60
1.09215e-56
3.5922e-62
-4.26707e-65
-1.35341e-58
1.56073e-65
-3.42017e-67
-1.13808e-61
6.23974e-69
-2.09172e-71
-1.13175e-65
3.96656e-72
1.2778e-74
-9.94281e-69
7.65839e-75
2.82038e-76
-4.57957e-71
2.31372e-78
3.74188e-80
-4.51769e-74
5.33729e-82
1.44362e-85
-8.61503e-78
4.08393e-85
4.92513e-87
1.33402e-85
1.13856e-87
2.20023e-92
-1.77558e-83
2.08006e-91
-2.36776e-93
2.82312e-87
2.81992e-94
1.62365e-95
-8.05585e-90
1.39021e-97
1.35794e-97
-1.50991e-92
3.67092e-101
6.88555e-103
1.35167e-96
3.96615e-104
-1.10622e-106
-4.84864e-100
7.58371e-107
8.70734e-108
-6.7378e-103
1.50951e-110
-1.2417e-111
5.02339e-107
1.60302e-113
9.95088e-115
-4.69239e-108
9.49757e-117
1.06582e-118
-1.35509e-112
7.3742e-120
3.40503e-121
-4.74174e-115
2.67101e-123
-2.96645e-125
-6.90354e-119
4.79763e-126
-1.33384e-127
-4.64995e-122
1.19942e-129
-3.06446e-130
1.37937e-124
7.28096e-133
-8.37446e-135
-7.50518e-128
3.47325e-136
2.71489e-137
-9.85433e-131
1.03161e-139
1.46777e-140
-1.07484e-138
4.13574e-143
-2.04215e-145
1.72202e-143
1.68628e-146
-1.64442e-147
3.95207e-147
7.21902e-150
-1.97099e-150
7.97431e-150
2.2903e-155
-6.59324e-148
-7.43695e-08
3.40695e-08
1.83305e-07
-6.78322e-08
-7.60148e-08
-6.83329e-08
5.09505e-08
-6.89929e-08
-1.10004e-07
1.07982e-07
-6.06946e-09
-5.25124e-09
-1.62357e-08
2.22403e-09
-2.89544e-08
3.34771e-08
-4.81236e-09
-2.90601e-09
1.20483e-09
-1.8829e-09
-3.29581e-09
1.62995e-08
7.71658e-08
-1.39441e-08
1.22814e-08
-1.23341e-07
1.82509e-08
-5.64344e-09
1.24467e-08
-6.47933e-09
-5.11845e-09
3.91781e-09
-2.48902e-10
9.37312e-10
-2.55306e-08
1.98421e-10
-2.47336e-08
-7.61946e-16
-2.5116e-16
3.22594e-08
3.22594e-08
-4.37434e-18
-1.5317e-16
1.95125e-15
9.99416e-17
-1.98606e-16
-3.31026e-16
-3.31395e-16
2.14198e-24
4.74814e-23
-9.44756e-24
-1.68325e-21
-8.33663e-22
7.93312e-21
-4.91067e-21
6.92638e-26
9.14364e-27
-6.18809e-26
2.55402e-27
-5.96098e-28
-3.22418e-30
2.26259e-30
-1.21722e-29
-2.21902e-29
3.13101e-34
-8.24525e-32
-2.75362e-32
1.0728e-37
-2.70855e-35
-2.06881e-36
4.01255e-41
-3.37071e-39
-1.30119e-39
1.69415e-44
-9.602e-43
1.43876e-43
7.79544e-48
-2.24139e-46
-3.43327e-45
3.63178e-51
-6.72237e-50
-4.34099e-49
1.66801e-54
-1.34914e-53
3.31432e-51
7.43884e-58
-5.59408e-57
-4.51311e-54
3.33624e-61
-1.4642e-60
1.59826e-58
1.52299e-64
-1.50591e-65
1.0327e-60
6.88016e-68
-1.77614e-67
4.35977e-64
5.551e-71
-5.10089e-71
-5.7617e-67
9.47295e-74
6.38705e-75
-1.09247e-69
1.14252e-77
-5.9005e-78
-1.86081e-76
4.62476e-81
-2.61828e-81
1.75761e-76
2.16183e-84
-1.19548e-84
-1.21926e-79
1.09027e-87
-7.25537e-88
-5.95566e-83
3.74816e-90
-7.01856e-91
-7.67244e-87
4.20014e-92
4.51258e-95
-1.20451e-88
3.60252e-96
-2.17002e-97
2.42293e-93
6.8467e-100
-5.47436e-101
-3.4642e-96
3.43063e-103
-3.07828e-104
-7.7067e-100
3.51024e-106
1.42031e-107
-4.79347e-102
1.15301e-109
1.26582e-110
5.66763e-105
9.61257e-113
-2.29825e-112
8.58842e-108
1.81144e-116
2.58381e-118
1.04746e-111
1.43535e-119
1.37266e-119
3.4249e-120
4.76336e-122
2.83691e-123
-3.81742e-118
3.92947e-125
5.9955e-128
-6.83073e-121
3.09515e-128
1.35395e-129
-7.02474e-124
7.20653e-132
6.03585e-133
-9.36097e-127
4.39814e-135
-3.14628e-136
-5.57436e-130
3.3621e-138
-2.22861e-140
3.42749e-134
1.41597e-141
-2.25097e-142
-6.04134e-137
3.15043e-144
1.46956e-145
-3.32671e-141
3.87519e-147
-7.11147e-148
-6.30574e-143
2.1878e-150
-5.50963e-151
-1.11631e-145
-1.6638e-154
5.92149e-151
4.50859e-08
2.49394e-08
3.66914e-08
3.96986e-08
4.22794e-08
4.30224e-08
-1.70877e-08
1.28022e-09
6.18656e-08
5.60388e-09
4.04125e-08
1.43918e-08
-4.65132e-09
3.11253e-09
1.34423e-08
1.75144e-08
-1.29989e-08
-6.41801e-09
-3.01305e-08
1.54791e-08
6.41944e-09
5.94061e-09
-1.15303e-08
1.81843e-08
7.62557e-09
-1.97332e-07
-6.64986e-08
-9.61574e-10
-1.46777e-08
7.69934e-09
6.34244e-09
1.33516e-10
-2.21048e-10
1.71395e-10
1.78637e-08
-1.4515e-10
1.82557e-08
2.28736e-16
-2.54335e-18
-8.6122e-09
-8.6122e-09
-2.81362e-18
2.28118e-16
2.30331e-16
2.26603e-16
-2.75402e-24
6.51916e-23
5.00191e-22
-1.04045e-21
3.68353e-23
2.06693e-21
1.34442e-26
-1.16754e-26
-6.70073e-28
-8.06303e-30
6.97335e-29
-1.39817e-31
5.19912e-32
-2.64348e-34
2.75078e-36
-1.3993e-36
6.74495e-40
-2.40129e-39
2.87206e-43
-2.17919e-42
1.25962e-46
-5.70817e-46
5.51295e-50
-8.41824e-49
2.40706e-53
3.94576e-52
1.04673e-56
-1.27493e-54
4.51689e-60
1.07022e-57
1.94597e-63
-8.88686e-61
8.3549e-67
-9.80753e-65
3.59087e-70
-2.1085e-67
1.54329e-73
-1.29723e-70
6.70378e-77
-4.19937e-74
2.95928e-80
-3.79438e-77
1.48985e-83
-3.7515e-80
1.17432e-86
-8.75283e-83
3.9502e-90
-2.00165e-86
2.78822e-93
-2.67974e-89
2.37503e-96
-2.23239e-92
1.05809e-99
-1.00062e-95
5.63471e-103
-2.87049e-99
1.95068e-106
7.19141e-104
1.96075e-109
1.42691e-104
3.25574e-112
8.53985e-108
1.47092e-115
2.3307e-111
4.33229e-118
-2.27691e-114
4.52233e-122
-3.56027e-119
1.43974e-125
-1.333e-121
1.8696e-128
-3.78864e-124
1.00695e-130
-6.96658e-127
1.3087e-134
4.00813e-130
6.27083e-138
1.1674e-133
8.0737e-141
7.11343e-138
2.83666e-144
3.05585e-140
1.75191e-147
-1.85665e-143
8.21193e-151
2.78737e-146
-1.18631e-150
-8.64752e-10
6.91301e-09
-5.15874e-08
1.60145e-08
5.84788e-09
-6.61679e-09
7.98933e-09
1.33886e-08
1.92383e-07
8.06516e-09
7.94378e-09
8.04073e-09
9.63208e-08
7.01279e-09
1.17857e-08
8.68614e-08
1.59313e-08
6.9991e-08
8.45566e-08
8.83406e-08
8.54182e-08
8.32963e-08
-1.36037e-09
-6.69169e-07
1.78641e-08
-1.23769e-08
1.26351e-08
1.41301e-07
-7.5594e-08
4.48146e-09
-7.97821e-09
-2.08926e-09
8.26395e-08
-6.1781e-10
9.9117e-11
-1.37588e-10
4.8303e-08
4.84088e-08
-8.24277e-16
1.33701e-18
-2.7006e-18
-1.02668e-08
-4.86606e-19
-1.71012e-23
1.48383e-21
2.13476e-22
-5.58955e-20
-6.21902e-20
-4.71709e-20
-6.28542e-20
1.93262e-26
6.54304e-24
2.39213e-27
2.96569e-27
2.87638e-25
-9.13578e-30
3.08643e-28
4.82604e-28
-7.00385e-31
1.9156e-30
1.08313e-30
-6.85858e-33
8.97981e-34
5.50922e-34
6.7757e-35
1.63391e-37
1.64358e-37
2.06152e-38
9.58569e-41
3.64361e-41
3.29732e-41
7.51834e-44
2.72769e-44
-1.07571e-45
5.70036e-47
1.01686e-47
-1.17752e-47
4.22561e-50
1.14129e-50
5.81544e-51
3.11995e-53
3.71597e-54
3.04888e-54
2.29718e-56
4.26926e-57
1.32175e-57
1.68482e-59
-2.09919e-60
-4.06927e-60
1.23237e-62
-8.43841e-64
-9.07723e-64
8.98405e-66
2.99297e-67
1.69679e-67
6.52711e-69
-9.50186e-70
7.55205e-71
4.73091e-72
-5.67765e-73
9.06007e-73
3.41831e-75
2.3941e-76
1.85205e-76
2.46196e-78
1.55533e-80
-6.9697e-81
1.7679e-81
4.54636e-83
7.47813e-82
1.26588e-84
-1.8019e-86
-8.66371e-86
9.03354e-88
2.65402e-88
1.0498e-88
6.43105e-91
1.91469e-91
3.80182e-95
4.56866e-94
6.21289e-95
-2.66104e-94
3.23814e-97
6.49517e-98
-6.23737e-98
2.28917e-100
2.6563e-101
3.70352e-102
1.61293e-103
1.86376e-104
-9.56006e-105
1.13252e-106
1.76188e-107
4.71257e-108
7.93604e-110
-4.22457e-112
5.72802e-112
5.55314e-113
5.7974e-114
-2.04554e-119
3.87571e-116
-6.82768e-118
3.74615e-117
2.69845e-119
2.44699e-120
1.23633e-120
1.87409e-122
-6.02303e-124
-3.11188e-124
1.29805e-125
1.75898e-127
-2.51188e-127
8.96535e-129
3.828e-129
4.0099e-132
6.17883e-132
-1.28713e-133
-2.29546e-133
4.24795e-135
-2.44695e-136
1.19644e-135
2.91556e-138
2.35596e-139
4.58605e-139
1.99608e-141
-3.35512e-143
5.9399e-143
1.3315e-144
1.35554e-146
1.12168e-146
1.47013e-148
1.15939e-148
-3.07038e-07
-3.04994e-07
7.82372e-08
-2.84058e-07
2.11021e-08
1.49082e-08
3.41635e-07
5.46687e-10
-7.73461e-10
1.91796e-09
-1.06674e-09
-1.72194e-08
7.87551e-09
-2.26694e-07
3.49247e-09
-2.20861e-08
-2.12527e-08
-1.24602e-08
-1.3558e-08
-1.22561e-08
-1.26863e-08
-1.38664e-08
-5.01503e-07
7.62739e-08
-7.14937e-09
-5.16521e-07
1.20459e-07
4.89025e-09
1.50458e-08
-7.03746e-08
4.00499e-08
-4.67728e-09
9.63289e-10
-4.69958e-09
-4.61441e-10
6.52056e-09
7.86075e-09
1.07762e-08
7.18627e-08
2.10582e-09
4.84777e-08
-2.86655e-09
8.26012e-09
-1.27277e-07
9.28276e-11
2.20571e-10
-3.91497e-10
5.27031e-10
-2.03949e-10
4.87303e-11
-1.25271e-17
4.92677e-18
3.60101e-18
5.27612e-18
4.78206e-19
3.30272e-17
-2.20933e-17
2.01118e-17
6.49649e-18
-2.27027e-23
2.33576e-21
7.16299e-24
-3.84588e-20
2.57629e-21
-3.88791e-20
3.22454e-21
9.88684e-24
2.79255e-24
-3.60096e-27
7.60891e-25
2.57308e-25
-7.93599e-31
1.7171e-27
1.49234e-26
6.50837e-30
2.19594e-31
3.13036e-28
-4.72186e-33
6.44949e-35
6.67399e-31
2.91036e-36
4.55906e-38
8.75189e-35
6.466e-40
3.39977e-41
2.88189e-38
1.38252e-41
2.48479e-44
1.54946e-41
6.21965e-46
1.79717e-47
7.44261e-45
3.28795e-48
1.29484e-50
2.1073e-48
1.86526e-52
9.31585e-54
1.0611e-51
-2.46233e-55
6.67729e-57
9.57683e-55
9.7483e-58
4.76915e-60
1.65596e-58
-3.39431e-62
3.41719e-63
5.79068e-61
-3.7419e-64
2.42836e-66
-9.72347e-66
-1.16298e-66
1.71026e-69
-7.61791e-69
-6.48776e-71
1.2094e-72
2.2805e-71
-2.75617e-74
8.52591e-76
6.94651e-75
5.67881e-77
5.99303e-79
-8.17153e-78
2.01718e-81
4.19141e-82
-1.90385e-82
2.59164e-83
2.92878e-85
-2.85557e-84
3.99942e-87
2.04148e-88
1.86673e-89
5.19657e-90
1.42275e-91
6.84072e-93
8.69338e-93
9.91563e-95
-4.14911e-93
3.39265e-95
6.86577e-98
-6.04875e-96
-4.30774e-98
4.72327e-101
1.38898e-101
1.74263e-102
3.25728e-104
8.45678e-103
9.66445e-106
2.24025e-107
-1.3812e-106
2.78295e-108
1.53821e-110
-1.67379e-109
7.29383e-113
1.05209e-113
-5.82071e-112
2.74627e-114
7.17681e-117
4.7681e-118
-1.77254e-122
4.89156e-120
-1.02307e-118
1.15146e-121
3.32524e-123
-5.06988e-122
-9.53897e-125
2.25635e-126
3.40405e-125
1.01708e-127
1.52969e-129
-2.49412e-128
3.64287e-130
1.03398e-132
3.71486e-132
-8.32302e-134
6.97345e-136
-3.92127e-135
2.96922e-137
4.70035e-139
-5.07402e-138
2.02347e-139
3.15526e-142
6.38154e-141
6.59596e-144
2.08398e-145
8.82279e-145
4.50303e-148
4.68715e-148
-2.26909e-155
2.58792e-08
-2.13571e-07
2.93933e-08
-2.35673e-07
-1.78429e-07
1.661e-07
-1.23057e-07
1.3101e-07
4.82142e-08
-7.71659e-09
3.12463e-07
1.59717e-09
8.17805e-09
6.8991e-10
-2.92546e-09
1.30972e-08
1.00937e-08
1.56103e-08
2.27817e-07
4.04641e-07
2.16909e-07
3.1504e-07
-5.25401e-08
-5.51242e-08
-1.01204e-07
2.94099e-09
6.31661e-09
2.81154e-08
-4.14664e-08
-4.13695e-08
-3.85704e-08
-3.36971e-07
-3.24872e-08
-5.26724e-08
-1.48233e-08
-2.7957e-08
-1.96056e-07
-1.6217e-08
-3.21948e-08
-1.001e-08
-8.35628e-09
-6.10987e-08
2.9038e-08
2.6359e-09
-3.03835e-08
4.06636e-09
4.07312e-09
-9.42953e-09
8.06721e-10
-1.51813e-10
1.69669e-10
-5.20658e-10
2.0902e-10
-2.80141e-10
-1.7283e-14
1.89353e-15
-1.15986e-15
-4.21386e-15
-1.49647e-15
5.91905e-16
6.76967e-22
1.53291e-18
8.71167e-23
3.04312e-19
-1.09556e-18
2.97324e-19
-1.08263e-18
-3.4252e-25
8.02401e-22
-1.09137e-26
3.43299e-25
3.62374e-25
-3.55498e-29
6.37742e-26
7.86687e-27
1.12049e-30
5.17076e-28
1.66692e-28
2.15376e-30
1.89747e-31
4.73704e-31
5.61395e-34
2.45378e-35
1.92454e-34
1.97202e-37
1.49217e-38
5.50908e-38
-8.21867e-41
1.15601e-41
2.57438e-41
-4.16793e-43
8.51251e-45
1.20066e-44
2.96691e-45
6.16996e-48
5.74573e-48
1.4875e-50
4.46341e-51
1.59963e-51
-8.67739e-53
3.21902e-54
8.37189e-55
6.45478e-55
2.31313e-57
2.68647e-58
4.8116e-59
1.6559e-60
1.14333e-61
1.0479e-60
1.18055e-63
1.62581e-64
-2.03723e-64
8.38839e-67
2.77773e-67
2.51553e-68
5.94627e-70
-4.13541e-72
8.79182e-71
4.20053e-73
4.61555e-74
7.09598e-75
2.95581e-76
1.32555e-76
-7.25185e-78
2.07681e-79
3.72059e-80
-7.98125e-81
1.45561e-82
-4.16131e-83
2.36275e-83
1.017e-85
1.33006e-86
-1.91108e-92
7.09396e-89
-5.26243e-90
-7.2265e-96
4.9285e-92
9.66876e-93
-3.73818e-94
3.40969e-95
1.09943e-96
8.95923e-97
2.35583e-98
4.01795e-99
-6.66954e-100
1.62387e-101
-5.74249e-103
-6.86348e-103
1.11594e-104
-1.74189e-106
6.38015e-106
7.65385e-108
-3.781e-109
-2.54675e-109
5.23393e-111
4.2919e-113
5.9711e-113
3.56756e-114
1.15308e-114
2.7395e-115
2.42681e-117
5.11901e-118
-2.85577e-118
1.64689e-120
2.29595e-121
4.63966e-122
1.11568e-123
-5.16816e-124
4.13473e-124
7.54688e-127
-4.40345e-127
-9.56134e-128
5.09051e-130
2.38683e-130
1.42336e-131
3.42445e-133
7.94839e-134
-7.83688e-140
2.2984e-136
2.21393e-137
-1.58668e-137
1.53854e-139
1.80189e-140
4.82045e-141
1.01423e-142
-6.7866e-145
4.9095e-145
-1.45293e-146
3.30186e-148
-1.97253e-08
-1.75451e-09
3.19819e-07
5.40936e-07
5.61334e-07