/*--------------------------------*- C++ -*----------------------------------*\
| =========                 |                                                 |
| \\      /  F ield         | OpenFOAM: The Open Source CFD Toolbox           |
|  \\    /   O peration     | Version:  5.0                                   |
|   \\  /    A nd           | Web:      www.OpenFOAM.org                      |
|    \\/     M anipulation  |                                                 |
\*---------------------------------------------------------------------------*/
FoamFile
{
    version     2.0;
    format      ascii;
    class       volScalarField;
    location    "4.6";
    object      p_rgh;
}
// * * * * * * * * * * * * * * * * * * * * * * * * * * * * * * * * * * * * * //

dimensions      [1 -1 -2 0 0 0 0];

internalField   nonuniform List<scalar> 
8409
(
99.6221
98.7143
98.2891
97.1218
106.423
101.865
99.2128
95.9041
92.2809
89.7204
87.099
84.5202
81.9621
79.4451
76.952
74.4872
72.0384
69.6244
67.2329
64.8669
62.5062
60.1662
57.8567
55.5409
53.2501
50.9797
48.7136
46.4456
44.197
41.9766
39.7524
37.5513
35.3807
33.2006
31.0142
28.8609
26.7608
24.6982
22.6451
20.5827
18.55
16.5623
14.5759
12.5657
10.5839
8.64874
6.7162
4.77973
2.86394
0.957229
102.147
101.131
98.2739
94.5623
91.3783
104.82
100.067
96.2274
92.448
89.8241
87.1619
84.5539
82.0004
79.4683
76.9596
74.4965
72.0407
69.6401
67.2556
64.8703
62.5119
60.1697
57.8519
55.5414
53.2394
50.9618
48.7011
46.4474
44.2048
41.9781
39.7639
37.5623
35.3736
33.1902
31.0154
28.8663
26.7559
24.6814
22.623
20.5811
18.5558
16.5673
14.5856
12.5864
10.5921
8.64083
6.7086
4.77818
2.86433
0.956961
137.103
99.2713
96.2193
102.449
110.238
99.8049
99.9069
96.8201
92.4883
89.8075
87.1713
84.5517
81.9878
79.4685
76.9645
74.4862
72.0522
69.6588
67.2705
64.8679
62.513
60.1718
57.8393
55.5377
53.243
50.9579
48.6918
46.4535
44.2158
41.9801
39.7692
37.5622
35.3554
33.1795
31.0262
28.8825
26.7571
24.6723
22.6208
20.5819
18.5648
16.5652
14.5729
12.5851
10.6026
8.63828
6.70082
4.77921
2.86708
0.956869
103.315
96.557
95.7385
89.4906
89.8644
100.094
99.1439
97.3108
92.4214
89.7533
87.135
84.5476
81.9747
79.4515
76.9605
74.4888
72.0525
69.6518
67.2482
64.87
62.5214
60.1716
57.846
55.5399
53.2544
50.9687
48.6909
46.4598
44.213
41.9718
39.7697
37.5564
35.3485
33.1746
31.0336
28.8994
26.7635
24.6694
22.6235
20.5925
18.5712
16.5563
14.5549
12.5788
10.6108
8.64139
6.70118
4.78636
2.87351
0.952306
93.3351
110.432
94.1564
98.9749
101.705
100.515
98.7547
98.1979
92.9901
89.5239
87.0601
84.4809
81.95
79.4329
76.9579
74.4909
72.0614
69.6414
67.2274
64.8705
62.5245
60.17
57.8487
55.5412
53.2625
50.9834
48.7006
46.4543
44.198
41.9661
39.7643
37.5489
35.3478
33.174
31.0352
28.909
26.7739
24.6739
22.6268
20.5999
18.5698
16.5401
14.5362
12.5689
10.6095
8.64362
6.70972
4.80122
2.88182
0.950206
98.8018
100.749
101.228
97.5453
99.3914
98.7855
97.9658
97.8498
92.8496
89.4351
86.9965
84.4418
81.9269
79.4245
76.9624
74.4983
72.0689
69.6446
67.2223
64.861
62.5203
60.1665
57.85
55.5519
53.2677
50.9964
48.7106
46.4481
44.1888
41.9492
39.7533
37.5428
35.3402
33.1758
31.0382
28.9109
26.7847
24.6859
22.6311
20.6016
18.5647
16.5269
14.5205
12.5576
10.6033
8.64771
6.72555
4.82551
2.89295
0.953416
99.4717
99.5411
100.32
99.1432
103.928
98.3109
97.7421
97.4282
91.9887
89.4657
86.9639
84.4305
81.9325
79.4307
76.9532
74.4935
72.0656
69.6501
67.2256
64.8503
62.5085
60.1661
57.8497
55.5607
53.2744
50.9956
48.7166
46.4442
44.1889
41.9614
39.7533
37.5319
35.3336
33.1826
31.042
28.906
26.7907
24.699
22.6329
20.5925
18.5566
16.5225
14.519
12.555
10.5981
8.64894
6.73173
4.82477
2.89664
0.962004
99.2053
99.7329
100.955
98.381
108.371
97.0149
97.5254
95.8765
91.9478
89.4717
86.9519
84.4279
81.9313
79.4292
76.9327
74.4955
72.0557
69.6379
67.2377
64.8437
62.4989
60.1615
57.8472
55.562
53.2743
50.9995
48.7184
46.4423
44.2046
41.974
39.7476
37.5289
35.3375
33.1889
31.0398
28.8943
26.7907
24.7086
22.6373
20.5848
18.5507
16.5278
14.5288
12.5569
10.5963
8.65066
6.7299
4.81378
2.89544
0.966598
100.242
100.143
104.659
101.549
100.432
97.7355
98.1049
95.5289
92.0223
89.5488
86.994
84.4603
81.9404
79.4323
76.9462
74.4965
72.0387
69.6247
67.2332
64.8522
62.4921
60.1551
57.8522
55.5573
53.2758
51.0003
48.7151
46.4425
44.1976
41.9707
39.7396
37.5286
35.3541
33.1949
31.0328
28.8856
26.7896
24.7151
22.6421
20.5837
18.5481
16.5376
14.5439
12.5576
10.5915
8.65166
6.72233
4.80202
2.88243
0.967342
99.9982
100.855
103.941
99.5559
104.7
99.3047
98.6941
95.5389
92.133
89.6163
87.0402
84.4797
81.9344
79.4421
76.9502
74.4851
72.0368
69.623
67.2279
64.8559
62.4943
60.1573
57.8556
55.5468
53.2655
50.9964
48.7184
46.4445
44.1948
41.972
39.7408
37.5362
35.3731
33.2005
31.0202
28.8675
26.7667
24.7063
22.6437
20.5822
18.5485
16.5513
14.5626
12.559
10.5854
8.6543
6.72294
4.79021
2.86865
0.957119
99.2672
98.8935
98.7624
103.249
103.057
99.1552
99.2469
95.9012
92.2813
89.7203
87.0991
84.5203
81.9619
79.4452
76.952
74.4869
72.0384
69.6243
67.233
64.8668
62.5061
60.1662
57.8567
55.5407
53.2502
50.9797
48.7135
46.4456
44.1969
41.9765
39.7523
37.5514
35.3808
33.2004
31.0142
28.8609
26.7607
24.6982
22.645
20.5825
18.5499
16.5624
14.5761
12.5658
10.5839
8.64879
6.71614
4.77971
2.86391
0.957298
104.81
100.234
101.575
95.0065
90.7581
104.693
100.071
96.2265
92.4484
89.8239
87.1619
84.5539
82.0004
79.4683
76.9596
74.4963
72.0406
69.6403
67.2555
64.8702
62.5119
60.1697
57.8519
55.5413
53.2393
50.9618
48.701
46.4474
44.2047
41.9781
39.7644
37.5624
35.3736
33.1902
31.0154
28.8662
26.7559
24.6814
22.623
20.5806
18.5558
16.5674
14.5855
12.5861
10.5922
8.64084
6.70838
4.77827
2.86435
0.956912
100.214
96.8624
97.5368
97.6559
105.248
99.6289
99.8763
96.8111
92.4897
89.8074
87.1713
84.5517
81.9878
79.4684
76.9645
74.4862
72.0522
69.6586
67.2706
64.8679
62.5129
60.1717
57.8393
55.5376
53.243
50.9578
48.6918
46.4535
44.2158
41.9801
39.7688
37.5621
35.3555
33.1796
31.0263
28.8825
26.757
24.6723
22.6208
20.5818
18.5649
16.5653
14.5728
12.585
10.6026
8.63813
6.70083
4.77927
2.86711
0.956861
101.055
97.7601
98.9325
96.8884
89.5724
101.04
99.0892
97.1779
92.4219
89.753
87.135
84.5476
81.9747
79.4515
76.9605
74.4888
72.0525
69.6516
67.2482
64.8699
62.5215
60.1716
57.846
55.54
53.2542
50.9685
48.691
46.4599
44.2132
41.9716
39.7696
37.5564
35.3484
33.1746
31.0337
28.8994
26.7635
24.6695
22.6235
20.5926
18.5713
16.5561
14.5548
12.5787
10.6109
8.64137
6.70107
4.78631
2.8735
0.952176
106.72
105.962
100.6
98.0594
101.901
100.6
98.7188
98.233
92.9894
89.5247
87.06
84.4809
81.9499
79.4329
76.958
74.491
72.0614
69.6414
67.2273
64.8706
62.5245
60.17
57.8485
55.5412
53.2624
50.9834
48.7007
46.4543
44.1978
41.966
39.7642
37.5488
35.3479
33.174
31.0353
28.909
26.7741
24.6738
22.6268
20.6003
18.5698
16.5401
14.5363
12.5689
10.6094
8.6436
6.70965
4.80116
2.88179
0.950249
98.7409
101.113
101.736
97.34
108.97
97.77
97.9489
97.8705
92.8467
89.4358
86.9962
84.4417
81.9271
79.4245
76.9624
74.4982
72.0689
69.6447
67.2222
64.8611
62.5205
60.1665
57.85
55.5519
53.2678
50.9964
48.7105
46.448
44.1888
41.9494
39.7533
37.5428
35.3401
33.1756
31.0381
28.9109
26.7848
24.6859
22.6311
20.6016
18.5646
16.5268
14.5204
12.5576
10.6032
8.64769
6.72552
4.82558
2.89268
0.953388
99.225
100.221
104.167
99.618
99.3051
97.9057
97.7162
97.4654
91.9891
89.4656
86.9639
84.4305
81.9325
79.4307
76.9532
74.4935
72.0656
69.65
67.2254
64.8504
62.5084
60.1661
57.8497
55.5607
53.2743
50.9956
48.7165
46.4443
44.189
41.9613
39.7536
37.5319
35.3336
33.1826
31.0418
28.9059
26.7907
24.6989
22.6329
20.5925
18.5566
16.5223
14.519
12.555
10.598
8.64893
6.73184
4.82486
2.89656
0.962186
99.3875
99.2452
101.062
100.246
102.965
98.4199
97.4959
95.7358
91.9483
89.4716
86.9519
84.4279
81.9313
79.4291
76.9324
74.4955
72.0559
69.6378
67.2379
64.8436
62.4988
60.1616
57.8472
55.562
53.2743
50.9997
48.7184
46.4423
44.2045
41.974
39.7475
37.5286
35.3376
33.1889
31.0397
28.8943
26.7907
24.7085
22.6373
20.5847
18.5506
16.5278
14.5288
12.5569
10.5963
8.65064
6.72989
4.81376
2.89536
0.966576
99.8253
99.7665
98.6798
101.182
97.0842
101.335
98.106
95.5258
92.0229
89.5486
86.994
84.4602
81.9404
79.4323
76.9462
74.4967
72.0388
69.6247
67.2332
64.8523
62.4921
60.1551
57.8522
55.5573
53.2757
51.0003
48.7149
46.4425
44.1976
41.9708
39.739
37.5285
35.3546
33.1951
31.0327
28.8856
26.7896
24.715
22.642
20.5837
18.5482
16.5377
14.5438
12.5574
10.5915
8.65162
6.72228
4.80198
2.8825
0.967338
99.0359
99.2697
100.901
101.307
104.692
99.3052
98.7098
95.5365
92.1334
89.6161
87.0403
84.4797
81.9342
79.442
76.9502
74.4854
72.0368
69.6227
67.228
64.8559
62.4942
60.1572
57.8556
55.5468
53.2655
50.9964
48.7182
46.4445
44.1948
41.9719
39.7408
37.5363
35.3731
33.2004
31.02
28.8675
26.7668
24.7063
22.6436
20.5822
18.5485
16.5513
14.5626
12.559
10.5854
8.65428
6.72272
4.79019
2.86868
0.957108
99.4845
99.9881
98.9573
94.9486
103.935
99.723
99.244
95.9046
92.2808
89.7203
87.0991
84.5203
81.9617
79.4452
76.952
74.4866
72.0383
69.6242
67.233
64.8665
62.5059
60.1662
57.8565
55.5405
53.2502
50.9798
48.7133
46.4455
44.1966
41.9765
39.7524
37.5514
35.3808
33.2003
31.0141
28.8608
26.7606
24.6981
22.645
20.5824
18.5497
16.5624
14.5761
12.5659
10.5839
8.64874
6.71601
4.77964
2.86381
0.957253
104.673
100.397
98.7935
103.061
88.9056
106.983
100.065
96.2269
92.4478
89.824
87.1618
84.5538
82.0003
79.4682
76.9595
74.496
72.0406
69.6404
67.2554
64.8701
62.5124
60.17
57.8519
55.541
53.2392
50.9618
48.7008
46.4473
44.2048
41.9784
39.7644
37.5623
35.3734
33.1901
31.0153
28.8661
26.7558
24.6818
22.6228
20.5805
18.5558
16.5675
14.5854
12.5854
10.5922
8.64088
6.7081
4.7782
2.86429
0.956716
114.007
96.7222
96.5503
99.2783
101.768
99.9212
99.8873
96.8146
92.4897
89.8074
87.1712
84.5516
81.9877
79.4684
76.9644
74.4861
72.0522
69.6584
67.2706
64.8678
62.5127
60.1717
57.839
55.538
53.2429
50.9577
48.6917
46.4534
44.2158
41.9801
39.7687
37.5617
35.3555
33.1796
31.0263
28.8825
26.7568
24.6723
22.6207
20.5817
18.565
16.5653
14.5728
12.5847
10.6026
8.63802
6.70066
4.77926
2.86706
0.956562
107.335
101.29
102.135
106.26
143.411
100.22
99.1199
97.1888
92.4214
89.7528
87.1349
84.5475
81.9746
79.4514
76.9604
74.4887
72.0524
69.6514
67.2482
64.8697
62.5215
60.1715
57.8461
55.5401
53.254
50.9683
48.6911
46.4598
44.2131
41.9715
39.7695
37.5563
35.3483
33.1745
31.0337
28.8993
26.7634
24.6694
22.6236
20.5925
18.5713
16.556
14.5546
12.5786
10.6109
8.6413
6.70097
4.78622
2.87337
0.951841
101.428
98.815
97.0354
103.366
101.998
100.313
98.7315
98.2276
92.99
89.5244
87.0601
84.4805
81.9495
79.4328
76.9579
74.4909
72.0613
69.6413
67.2272
64.8706
62.5246
60.1692
57.848
55.5412
53.2621
50.9834
48.7008
46.4542
44.1977
41.9658
39.7641
37.5488
35.3479
33.1739
31.0352
28.9089
26.7744
24.6739
22.6268
20.6005
18.5695
16.5394
14.5362
12.5689
10.6091
8.64353
6.70981
4.80104
2.88159
0.950157
98.9442
101.635
101.582
100.638
101.076
97.2468
97.9691
97.8936
92.8472
89.4354
86.9962
84.4416
81.9272
79.4244
76.9625
74.4982
72.0688
69.6447
67.222
64.8611
62.5206
60.1664
57.8499
55.5519
53.2678
50.9963
48.7104
46.4478
44.1887
41.9499
39.7535
37.5425
35.3399
33.1766
31.0381
28.9108
26.7848
24.6858
22.631
20.6016
18.5643
16.5266
14.5203
12.5577
10.603
8.64762
6.72552
4.82557
2.89224
0.953354
99.2273
100.187
103.88
93.5913
94.8381
97.1453
97.6932
97.4595
91.9888
89.4656
86.9638
84.4304
81.9324
79.4306
76.9531
74.4934
72.0655
69.6498
67.2254
64.8504
62.5086
60.166
57.8497
55.5607
53.2741
50.9955
48.7164
46.4445
44.1893
41.9614
39.7535
37.5316
35.3335
33.1826
31.0417
28.9057
26.7907
24.6989
22.6328
20.5925
18.5565
16.522
14.519
12.555
10.5978
8.64885
6.73193
4.82455
2.89609
0.962131
99.5199
99.2414
100.611
159.288
111.835
96.62
97.49
95.742
91.9481
89.4716
86.9518
84.4278
81.9312
79.4291
76.9323
74.4954
72.0562
69.6375
67.2381
64.8437
62.4988
60.1616
57.8474
55.5619
53.2741
50.9998
48.7183
46.4421
44.2045
41.9739
39.7474
37.5285
35.3375
33.1888
31.0396
28.8944
26.7906
24.7084
22.6372
20.5847
18.5505
16.5278
14.5288
12.5568
10.5961
8.65057
6.72984
4.81371
2.89537
0.966511
100.635
100.164
98.6777
101.514
100.782
100.203
98.0925
95.5257
92.0227
89.5487
86.9939
84.4602
81.9403
79.4322
76.9461
74.4969
72.0389
69.6246
67.2332
64.8522
62.492
60.1553
57.8522
55.5572
53.2756
51.0002
48.7148
46.4424
44.1975
41.9709
39.7383
37.5284
35.355
33.195
31.0326
28.8856
26.7895
24.7148
22.6419
20.5836
18.5482
16.5377
14.5437
12.5572
10.5914
8.65155
6.72218
4.80191
2.88254
0.967246
99.0959
99.6319
99.8567
97.3891
103.256
99.2733
98.7044
95.5364
92.133
89.6162
87.0403
84.4796
81.934
79.4419
76.9501
74.4856
72.0367
69.622
67.228
64.8558
62.494
60.1571
57.8555
55.5467
53.2655
50.9963
48.7181
46.4445
44.1951
41.9718
39.7407
37.5362
35.3731
33.2004
31.0199
28.8677
26.7667
24.7062
22.6436
20.5821
18.5484
16.5512
14.5625
12.5587
10.5853
8.65424
6.72255
4.79008
2.86868
0.957037
99.0914
104.892
100.171
99.3336
99.0913
104.5
100.164
100.111
101.962
99.7901
104.532
100.105
101.887
99.7982
99.9722
100.42
99.3974
99.6658
99.9438
100.435
99.4049
99.0934
99.8414
98.9902
100.805
99.0857
99.7589
98.8671
98.9114
99.1782
98.2076
100.579
98.8762
97.9021
98.1494
97.9276
97.8116
97.7233
97.7951
97.9148
97.8546
97.7239
97.3674
98.4924
97.5043
98.0793
97.3689
98.5651
97.4581
97.3009
97.8295
97.3407
98.0969
97.3104
99.1914
97.3355
98.1029
98.8863
98.2217
101.098
98.1067
98.8433
98.2147
98.8329
98.8424
98.8907
99.2946
98.8324
99.1814
98.8902
99.0896
104.741
100.173
99.0728
99.0943
104.73
100.196
100.108
101.795
99.7883
106.263
100.098
100.147
99.7991
99.9382
100.384
99.3924
99.9356
99.9447
100.16
99.3886
99.0362
99.7716
98.8831
100.46
99.0458
99.551
98.7941
98.8487
97.8532
98.145
100.361
98.9156
97.5883
98.1436
97.8906
97.96
97.7437
97.2413
97.9115
98.3533
97.7492
98.0197
98.6228
97.4708
97.1303
98.0708
97.7938
97.4622
97.2994
100.394
97.3589
97.0246
97.3148
99.4534
97.3471
98.1136
98.8223
98.2574
100.249
98.1106
98.9552
98.2764
98.8329
98.9849
98.8894
99.207
98.8314
99.109
98.8925
99.098
104.696
100.204
100.091
99.0968
107.069
100.21
100.098
103.435
99.8409
107.11
100.109
99.6399
99.8185
100.005
100.195
99.4388
100.536
99.9313
100.21
99.3983
99.0956
99.4899
98.8085
100.744
99.0707
99.2962
98.8312
98.9099
97.9935
98.1436
100.343
98.9037
101.168
98.1813
97.9001
98.4328
97.7401
97.3986
97.9095
98.3561
97.7357
97.9128
97.8216
97.4716
97.3282
97.624
97.879
97.4965
97.2966
99.5294
97.3561
95.9988
97.3166
100.088
97.3549
98.1172
98.9356
98.2831
101.355
98.1183
98.9294
98.2942
98.8337
99.0971
98.8958
99.3336
98.8309
99.3353
98.8939
99.4836
99.1681
100.948
105.548
98.7962
98.6261
101.026
99.2853
99.2749
99.5597
99.3513
99.3258
99.3073
99.2886
97.2879
100.08
97.4825
99.2445
97.2828
100.095
97.4911
87.2956
106.822
102.656
91.3134
88.2374
109.475
99.7823
102.003
100.418
104.043
105.161
100.358
104.395
102.037
97.63
99.9646
97.8822
100.063
97.6381
99.9662
97.8817
99.7259
100.686
104.491
106.776
94.7546
99.9493
103.203
100.001
100.093
102.202
100.44
100.098
100.586
99.9408
98.0393
99.2071
98.5147
99.934
97.928
99.1482
98.5465
101.681
102.375
102.853
89.4954
100.48
101.71
101.598
99.3706
99.7713
101.043
100.619
99.1035
99.5826
98.6146
98.8315
98.9013
98.6171
99.1132
98.8718
98.9018
98.6205
100.969
102.143
109.217
102.356
100.873
100.564
103.695
98.7846
99.5133
99.1999
100.519
99.4781
99.1507
98.7238
98.5454
98.2829
98.1558
98.7243
98.5466
98.2789
98.1544
102.445
97.7115
97.7117
99.5768
123.35
98.1695
98.5573
97.5092
97.8174
97.078
99.2685
97.8137
97.0061
97.503
98.0499
97.8283
97.8377
97.956
98.0484
97.8312
97.8398
97.5474
106.152
99.6014
99.2073
98.4107
101.887
100.28
97.1755
97.2299
95.7662
98.315
97.2099
95.7725
97.1729
97.777
97.675
97.5777
97.7044
97.782
97.6702
97.6185
104.119
83.2761
94.6968
114.607
120.017
88.1651
95.9364
96.6836
97.0992
94.8023
96.9672
96.9539
94.8557
96.683
97.2694
97.5464
96.4479
97.5056
97.3035
97.5325
96.3127
97.1196
93.7137
96.7164
101.423
102.067
93.2691
96.8067
98.7426
98.5441
99.5225
99.2225
98.4761
101.302
98.9656
96.6744
98.3198
96.4567
98.1174
96.6783
98.3274
96.4627
100.692
98.7328
99.5858
102.852
100.62
97.4962
98.5218
98.633
99.2457
98.7578
99.3185
99.1095
98.723
98.6269
96.7201
99.0263
97.1585
98.7041
96.7288
99.058
97.1533
98.8287
96.2383
100.687
103.671
99.7045
95.344
99.8241
99.2266
99.1859
99.1922
99.1166
99.2599
99.1347
99.1884
97.28
100.106
97.4894
99.2449
97.2799
100.11
97.4911
87.4398
108.885
99.5997
90.3816
88.4352
95.9095
96.6249
102.147
100.25
102.873
105.068
102.059
100.178
103.507
97.6356
99.9674
97.8796
100.069
97.6354
99.9609
97.8804
105.964
100.381
104.614
101.369
106.449
100.378
104.817
99.9374
100.017
100.701
99.293
99.9788
100.029
100.544
97.9231
99.1207
98.5512
99.8988
97.9245
99.1255
98.5517
101.4
98.3924
104.606
89.7744
104.913
99.6969
97.878
97.8399
99.1639
99.0997
100.586
98.1579
99.1413
99.1179
98.8807
98.9045
98.6207
99.1437
98.8753
98.9235
98.6199
101.024
100.918
103.364
101.971
101.407
103.805
101.706
98.8403
99.4524
99.4445
100.696
98.8437
99.4502
100.116
98.5469
98.2806
98.1576
98.7916
98.546
98.2815
98.1555
129.24
97.2811
99.1968
101.958
92.1325
97.9942
98.8611
97.4614
97.6965
97.1903
99.0449
97.4888
97.6271
97.1008
98.0549
97.8319
97.8396
97.9802
98.0522
97.8373
97.8387
98.301
102.521
98.9221
97.7605
97.2323
111.206
98.1318
97.2218
97.2466
95.7001
101.667
97.2214
97.2708
100.952
97.7817
97.664
97.6258
97.7077
97.7818
97.6651
97.6236
95.7015
86.1369
95.336
98.0861
92.2367
93.0525
102.518
96.6963
97.0685
97.1008
101.102
96.6893
97.0947
96.9847
97.3053
97.5711
96.3039
97.4959
97.3071
97.5381
96.3042
101.912
97.1528
99.2044
101.079
101.636
95.0977
99.4075
98.9209
98.5463
101.827
100.299
99.9426
98.557
102.059
96.6763
98.3282
96.4592
98.0962
96.6764
98.3331
96.4592
100.672
97.4154
98.6636
103.749
100.259
97.5184
99.892
98.6679
99.1921
99.1067
99.222
98.672
99.2029
99.1869
96.7265
99.0622
97.1506
98.7082
96.7268
99.0604
97.1508
100.411
101.153
98.8005
104.164
100.08
94.0442
102.624
99.2645
99.2277
102.586
101.001
99.409
104.775
99.2227
97.283
100.106
97.4936
99.2118
97.2876
100.079
97.4829
77.9615
97.0004
98.4329
93.6894
127.845
136.549
105.742
103.388
99.8229
119.593
111.331
102.443
99.8284
119.696
97.6372
99.9599
97.8826
100.072
97.6281
99.9571
97.8816
106.31
101.499
111.459
103.577
107.833
105.109
98.7315
99.8558
100.083
101.829
100.26
99.9239
100.032
101.372
97.9291
99.1502
98.5433
99.9102
98.0401
99.1957
98.5132
102.603
98.8438
102.665
135.51
99.3215
97.9516
110.009
99.5398
98.9347
99.4268
100.633
100.352
99.3515
99.4758
98.8728
98.8963
98.6216
99.1124
98.8311
98.8906
98.6176
100.971
116.216
101.123
104.034
100.959
106.983
98.5131
100.399
99.4055
102.613
100.246
100.827
99.4068
101.653
98.5476
98.2849
98.1693
98.733
98.5445
98.2936
98.1555
92.684
98.6534
99.09
102.813
95.3022
96.4277
101.405
97.5089
97.5053
97.0676
97.8419
97.4874
97.4987
97.0407
98.0635
97.84
97.839
97.9633
98.0519
97.8339
97.8378
94.5044
112.701
98.3939
94.4495
98.223
114.627
100.219
97.6046
97.3496
98.4169
97.3825
97.3076
97.3394
98.5348
97.7827
97.6602
97.6194
97.7336
97.7764
97.6661
97.5782
90.7063
90.4822
103.85
117.12
90.7298
102.19
106.85
96.6588
97.2398
96.5575
95.9377
96.6744
97.2736
96.4956
97.3038
97.5714
96.3132
97.5023
97.2687
97.5635
96.4432
100.018
94.7309
98.4572
101.258
108.16
94.979
99.2854
99.3884
98.4553
101.284
100.352
99.3669
98.5927
101.579
96.6787
98.3352
96.463
98.1003
96.6738
98.3276
96.4566
100.301
101.997
98.9282
77.8836
100.362
99.7913
98.9615
98.6793
99.2455
99.4881
99.2872
98.6656
99.2607
99.6004
96.7291
99.0568
97.1537
98.6972
96.7195
99.0245
97.1589
99.3699
99.1806
99.3104
99.0956
99.3138
99.3729
99.1431
100.026
100.924
102.377
105.405
101.027
102.384
100.048
99.7136
99.629
100.805
100.166
99.6299
100.708
99.7122
99.2796
99.3614
99.2895
99.2117
99.3716
99.2669
99.3471
99.3608
99.0939
99.1446
99.3107
99.3171
99.3665
99.1653
100.012
105.321
100.67
102.294
100.67
102.05
100.005
99.7161
100.165
99.6252
100.715
99.6299
100.719
99.7113
101.18
100.675
100.556
100.099
100.678
100.49
101.261
101.712
98.9719
99.5409
101.969
98.6468
99.5702
101.671
100.94
100.568
100.116
99.7932
100.539
100.093
100.958
102.019
104.3
100.165
108.526
100.241
106.322
102.035
101.183
100.125
100.68
100.499
100.681
100.496
101.185
101.654
101.894
98.8256
99.5039
98.8872
99.5044
101.66
100.961
99.8611
100.551
100.099
100.564
100.084
100.875
99.878
100.054
99.7391
99.9595
100.071
99.6852
99.8878
98.8427
97.0056
99.9939
100.207
98.7903
99.9908
98.852
99.7598
99.6106
99.7964
99.4049
99.5983
99.7596
99.7525
99.8859
99.6301
100.06
100.701
100.074
100.622
100.033
99.8684
100.111
100.077
99.659
100.128
99.67
99.8528
98.8165
100.694
103.065
99.9637
105.665
99.9842
98.6702
99.7549
99.5022
99.5114
99.7399
99.5417
99.7352
99.763
98.8763
99.2552
98.9223
99.0509
99.2238
98.94
98.8709
99.4914
102.439
99.2938
99.8942
102.044
99.3134
98.9597
98.5602
98.7621
98.9524
98.8699
98.7683
98.9476
98.5566
98.0239
100.168
99.169
99.4091
99.1217
99.4909
98.0748
98.8647
99.0411
99.2529
98.9893
99.2282
98.9417
98.8772
101.707
99.9205
101.627
99.348
101.897
99.3201
101.773
98.5713
98.8638
98.7331
98.9629
98.7378
98.9548
98.5933
98.8438
99.036
98.635
98.8895
99.0357
98.6128
98.8519
98.8726
102.126
98.2975
96.9928
101.119
98.2847
98.8234
98.6613
98.4905
98.2201
98.1418
98.4344
98.1941
98.7035
98.7964
100.51
99.46
99.4864
99.4637
100.077
98.7866
98.839
98.9123
99.0229
98.599
99.0445
98.6364
98.8358
98.7836
97.5034
116.12
98.27
101.477
98.2742
98.9281
98.6668
98.1353
98.453
98.1927
98.4239
98.1934
98.6733
97.6348
97.7039
97.7069
97.9042
97.7033
97.6976
97.6421
97.5118
97.7372
97.6447
97.8512
97.4259
97.6107
97.5312
97.5261
97.6881
97.7074
97.7259
97.6831
97.6978
97.5301
97.5001
97.8013
97.7494
96.9796
97.7892
97.163
97.4924
97.6355
97.8932
97.687
97.6968
97.7144
97.6937
97.6325
97.4749
98.028
97.6108
97.5765
98.273
97.6359
97.4498
97.5239
97.7253
97.6825
97.6923
97.699
97.6974
97.522
97.4267
97.6451
97.6073
97.4381
97.5094
97.6031
97.4509
97.8748
98.6012
97.8052
98.4932
98.6026
97.8145
97.9464
97.7851
97.7214
97.6878
97.4578
97.75
97.6462
97.7849
97.18
98.3734
97.2614
96.9235
97.2541
95.7905
97.2016
97.4405
97.4109
97.5681
97.5955
97.5839
97.5968
97.4501
97.8821
98.5331
98.5279
97.7954
98.5502
97.8041
97.8787
97.7766
97.4656
97.7187
97.6491
97.7287
97.6529
97.7788
97.168
97.393
97.2373
97.3039
97.3869
97.2445
97.1478
97.505
95.4131
96.6791
97.0344
95.183
96.6485
97.5205
97.6329
97.5636
97.3834
97.3399
97.5659
97.4009
97.6428
96.6692
98.1054
97.0225
97.3763
96.9571
100.683
96.6926
97.1288
97.3092
97.3891
97.2431
97.3871
97.2432
97.113
97.4878
97.1689
95.2175
96.6029
95.3147
96.6207
97.547
97.6327
97.3559
97.568
97.3859
97.5719
97.4048
97.6237
98.6555
98.4178
98.1158
98.104
98.4262
98.1162
98.8386
98.7824
96.8545
96.6589
98.8217
96.6197
96.1756
105.951
98.9196
98.4863
98.5613
98.2228
98.4628
98.4739
99.6553
98.657
104.111
98.49
101.84
98.656
101.181
99.0987
98.7423
98.1217
98.4093
98.1186
98.4275
98.1171
98.7252
98.669
98.816
100.137
99.043
100.27
98.8545
98.6915
97.5967
98.2301
98.4271
98.4929
98.3703
98.4272
97.5402
98.5854
98.9114
98.5566
98.8332
98.9048
98.5588
98.6004
99.2501
99.4808
98.8921
98.7823
99.6474
99.2421
98.851
98.958
98.8254
98.9559
98.8951
98.8304
98.9525
98.9404
98.6691
99.2744
99.1837
99.0161
99.1222
98.8291
98.6593
98.5849
98.836
98.9
98.5573
98.9022
98.5582
98.5764
99.2719
98.8087
101
98.8817
99.6307
99.1695
98.8661
98.9564
98.8939
98.8268
98.9453
98.8302
98.9264
98.9596
99.3452
99.1678
99.3092
99.0908
99.3652
99.3085
99.1343
99.8971
100.57
101.801
104.712
99.9383
100.523
101.805
99.7024
99.6238
100.709
100.179
99.7163
99.6219
100.66
99.229
99.1712
99.2089
99.0764
99.1214
99.2333
99.1995
99.3618
99.0928
99.1245
99.3089
99.3085
99.3354
99.1369
99.8227
104.654
101.013
101.699
100.698
101.759
99.7522
99.7079
100.191
99.6233
100.6
99.6226
100.588
99.6907
101.21
100.683
100.524
100.101
101.192
100.697
100.514
101.701
98.9771
99.5027
100.96
101.656
99.7109
99.5133
100.893
100.569
100.082
99.783
100.881
100.537
100.077
102.253
105.476
99.8844
104.252
100.032
103.822
102.222
101.219
100.101
100.721
100.523
100.714
100.535
101.229
101.663
112.387
106.93
99.5311
107.761
99.5205
101.753
100.91
99.8154
100.542
100.057
100.578
100.06
100.94
99.8415
100.056
99.6537
99.9542
99.8426
100.08
99.6896
100.032
100.868
99.941
100.364
99.8641
100.883
99.929
99.8164
99.5623
99.7357
99.4032
99.7838
99.5206
99.734
99.9467
104.537
100.031
100.704
100.034
100.448
99.9387
99.8114
99.9251
100.03
99.6542
100.036
99.6394
99.8248
99.2368
100.337
100.818
99.8742
100.828
99.908
101.33
99.8159
99.362
99.488
99.7275
99.4904
99.73
99.8278
98.9415
99.2258
98.9518
99.0424
98.8749
99.2248
98.9551
99.0103
100.948
99.2708
99.6107
99.1072
105.859
99.2567
98.644
98.7669
98.9537
98.8592
98.6177
98.7658
98.9312
99.4787
100.549
98.9997
99.3329
99.1016
99.4414
98.852
98.8949
99.043
99.251
98.9232
99.2681
98.942
98.9038
99.3582
99.7001
103.682
99.2495
103.351
99.2525
99.3083
98.6632
98.8603
98.7603
98.9208
98.7484
98.919
98.6811
98.8254
99.0225
98.5859
98.8862
98.8311
99.0349
98.6638
98.3819
104.968
98.2646
97.8633
98.625
104.268
98.2659
98.6877
98.4323
98.2002
98.1566
98.6852
98.4374
98.2046
98.798
100.58
99.4005
102.633
99.4414
100.059
101.043
98.819
98.8989
99.0304
98.6185
99.038
98.5995
98.8092
99.4497
97.8113
100.017
98.2729
110.774
98.2745
98.9135
98.6779
98.1473
98.4862
98.1996
98.4398
98.2047
98.6637
97.6287
97.6869
97.6929
97.9144
97.6302
97.6766
97.7008
97.4657
97.6972
97.6318
98.1447
97.4759
97.6978
97.6136
97.5209
97.6926
97.6896
97.7433
97.53
97.679
97.6878
97.4539
98.1035
97.5825
97.0726
97.5868
97.0645
97.4631
97.6262
97.895
97.6597
97.6922
97.6673
97.6876
97.6263
97.5298
98.4783
97.9575
97.5675
98.4762
97.6183
97.4609
97.5206
97.7462
97.6913
97.6808
97.7115
97.6864
97.515
97.4765
97.421
97.5949
97.9014
97.5015
97.381
97.6003
97.8385
99.9009
97.786
98.6032
97.8812
98.1601
97.7831
97.7614
97.7346
97.6465
97.4591
97.7696
97.7348
97.647
97.25
99.5172
97.3341
98.2877
97.3568
98.4458
97.2478
97.4982
98.06
97.3728
97.5987
97.5098
97.605
97.5106
97.8344
102.241
99.5197
97.7767
99.7014
97.7813
97.8277
97.7505
97.474
97.7184
97.6558
97.7548
97.6542
97.745
97.1258
97.4035
97.2372
97.2966
97.1687
97.4024
97.2408
97.5869
95.6586
96.5956
99.6404
97.675
96.6395
96.6115
97.635
97.5785
97.3823
97.3369
97.6235
97.5684
97.4066
96.6475
96.8462
97.2564
96.9038
97.2885
96.7521
96.6668
97.1377
97.3238
97.4534
97.2366
97.3975
97.2292
97.12
97.5594
99.1975
96.4683
96.5885
96.2434
96.5957
97.5415
97.6324
97.3471
97.5715
97.4179
97.588
97.4234
97.6242
98.6622
98.4179
98.1205
98.0986
98.663
98.4364
98.1205
102.738
100.253
96.8833
98.9716
98.5702
103.436
101.931
100.469
98.2581
98.4885
98.2491
98.0476
98.2512
98.4885
100.198
100.181
98.4886
101.004
98.5384
100.872
99.5666
98.6504
98.1173
98.4637
98.1112
98.4464
98.117
98.6422
99.8642
98.9434
101.74
100.498
102.169
100.924
100.068
100.081
98.2618
98.2988
98.5562
98.6969
98.5234
98.6905
98.5883
98.9072
98.5568
98.8315
98.5764
98.9154
98.5582
100.107
99.55
98.8853
98.9865
99.2569
99.8634
98.8854
99.144
98.8258
98.9436
98.8895
98.9418
98.8244
98.9469
98.6528
99.1937
99.2345
99.5052
99.2383
99.2986
98.6574
98.5873
98.8309
98.9272
98.5604
98.9246
98.5593
98.591
98.8949
99.0387
99.7634
98.8813
99.6738
98.7345
98.8891
98.8809
98.8907
98.8201
98.9461
98.8212
98.8138
98.9629
99.3231
99.1254
99.3109
99.0993
99.3386
99.3107
99.1278
99.7673
101.055
101.73
104.572
99.85
100.748
101.757
99.6832
99.6263
100.648
100.204
99.6913
99.6264
100.651
99.2263
100.391
99.2282
101.14
100.226
99.2422
99.221
99.328
99.1021
99.142
99.3082
99.312
99.3806
99.1426
100.168
104.111
101.607
101.901
101.413
101.939
100.195
99.6826
100.205
99.6303
100.676
99.6303
100.654
99.6822
101.301
100.733
100.564
100.093
101.252
100.726
100.51
101.901
106.554
99.5238
99.5669
101.721
106.361
99.4598
100.979
100.577
100.032
99.7924
100.951
100.531
100.023
102.443
106.542
99.939
113.957
99.9019
114.465
102.35
101.328
100.098
100.748
100.54
100.733
100.512
101.338
101.821
98.8993
107.469
99.4273
109.932
99.3855
101.834
100.987
99.7964
100.57
100.029
100.531
100.023
100.988
99.8028
100.028
99.6815
99.9472
99.8217
100.042
99.692
99.7435
101.268
99.8524
100.237
99.3801
100.748
99.8301
99.9229
99.5215
99.7131
99.398
99.8206
99.5394
99.714
99.7462
100.844
100.13
100.741
100.178
101.293
99.9988
99.809
99.9294
100.057
99.6773
100.04
99.6795
99.8923
99.2495
100.238
100.784
100.007
100.79
99.8157
99.5021
99.856
99.3976
99.5289
99.7246
99.5448
99.7152
99.9231
98.9138
99.2501
98.9281
99.0469
98.9179
99.243
98.9594
98.7808
100.278
99.2481
99.3629
99.498
99.9799
99.2282
98.697
98.7961
98.9257
98.7758
98.6915
98.7765
98.9132
99.5441
100.573
99.2673
99.4023
99.2054
99.5832
99.5593
98.9112
99.0667
99.2745
99.0285
99.2228
98.9835
98.9099
98.7822
99.4942
102.942
99.2919
99.8884
99.2052
99.223
98.7061
98.8406
98.806
98.9411
98.7624
98.9112
98.7114
98.8189
99.0356
98.623
98.9092
98.8627
99.04
98.6257
98.4962
102.799
97.9273
98.4365
100.397
95.9065
98.7467
98.6311
98.4362
98.2069
98.1471
98.6467
98.4413
98.201
101.612
100.38
99.4802
100.286
99.5047
101.029
100.859
98.7974
98.8942
99.0434
98.6407
99.0409
98.6397
98.8014
98.9678
99.8513
97.5781
98.5026
99.0547
99.1983
98.6724
98.6207
98.1528
98.468
98.2201
98.4401
98.2106
98.6196
97.6288
97.6578
97.6931
97.9113
97.6297
97.6538
97.7011
97.4463
98.0368
97.5661
98.3593
97.4477
97.9784
97.5547
97.5134
97.6976
97.6854
97.7389
97.5128
97.69
97.6723
97.5297
97.7365
97.6198
97.0145
97.6858
97.0166
97.6224
97.633
97.9022
97.6512
97.6965
97.6558
97.6992
97.6308
97.4474
98.3483
97.9505
97.5935
97.8763
97.5848
97.4508
97.518
97.7421
97.7024
97.6659
97.6976
97.6667
97.5212
97.543
97.2519
97.599
97.5756
97.528
97.2401
97.6091
97.8013
97.4693
97.7516
97.8407
97.7965
97.5734
97.7427
97.7383
97.7111
97.6477
97.4557
97.7422
97.7173
97.6469
97.2212
97.2465
97.34
98.519
97.3378
98.49
97.4014
97.5276
97.9337
97.5811
97.6373
97.3426
97.6297
97.5835
97.8159
98.2356
97.4477
97.7665
97.4626
97.8423
97.9146
97.7786
97.4544
97.7338
97.654
97.7208
97.6496
97.7586
97.1141
97.422
97.2565
97.302
97.1376
97.4166
97.2428
97.5499
96.6508
96.5788
99.3265
97.5482
96.8073
96.5898
97.6399
97.5756
97.428
97.34
97.6287
97.5706
97.4469
96.6638
95.9186
97.2882
96.4974
97.2851
96.4532