/*--------------------------------*- C++ -*----------------------------------*\
| =========                 |                                                 |
| \\      /  F ield         | OpenFOAM: The Open Source CFD Toolbox           |
|  \\    /   O peration     | Version:  5.0                                   |
|   \\  /    A nd           | Web:      www.OpenFOAM.org                      |
|    \\/     M anipulation  |                                                 |
\*---------------------------------------------------------------------------*/
FoamFile
{
    version     2.0;
    format      ascii;
    class       surfaceScalarField;
    location    "4.6";
    object      phi;
}
// * * * * * * * * * * * * * * * * * * * * * * * * * * * * * * * * * * * * * //

dimensions      [0 3 -1 0 0 0 0];

internalField   nonuniform List<scalar> 
25186
(
4.21274e-09
1.08373e-09
-3.82793e-09
1.82337e-09
7.04788e-10
1.75258e-09
5.40177e-09
-3.35179e-10
3.39257e-09
9.33419e-10
-4.35742e-09
-2.86433e-09
-1.80246e-09
2.03876e-09
-2.70761e-09
-2.8478e-08
-2.73491e-08
7.86393e-08
-8.1586e-10
-3.5399e-11
2.35813e-09
2.87396e-09
1.97362e-09
-3.95754e-09
-1.27896e-09
4.11829e-10
-3.85287e-10
5.78682e-10
-1.76911e-11
-7.04818e-11
-2.32489e-12
-3.78556e-11
1.08882e-10
-1.95527e-10
1.95031e-10
-4.64236e-12
8.44566e-13
1.41559e-09
-2.70865e-11
-2.76993e-11
-2.58155e-10
-2.58879e-10
-4.32627e-10
-4.28992e-10
1.41912e-09
-1.30759e-11
-1.4089e-12
1.4182e-09
-6.80753e-12
4.78382e-13
1.41803e-09
-3.34183e-12
-6.09906e-14
1.4185e-09
-2.71541e-12
5.79809e-13
1.41651e-09
-1.57323e-12
-2.02927e-13
1.41589e-09
-2.44347e-13
2.64335e-13
1.41608e-09
-6.28095e-13
3.07234e-13
1.4157e-09
9.5939e-14
1.44496e-16
1.41541e-09
-8.56094e-14
4.13838e-13
1.41554e-09
-3.83842e-13
1.28335e-13
1.41561e-09
1.69097e-13
2.82123e-13
1.41561e-09
1.55758e-13
-9.26115e-13
1.4153e-09
2.4483e-13
-3.43976e-13
1.41532e-09
-1.14517e-12
9.87429e-13
1.41521e-09
-1.21457e-13
6.90512e-14
1.41526e-09
4.69846e-13
-1.33158e-12
1.41534e-09
-8.81984e-13
4.56138e-13
1.41524e-09
-1.67464e-13
3.52598e-13
1.4152e-09
7.69415e-14
2.14107e-14
1.41484e-09
-2.36918e-13
-2.47839e-13
1.41505e-09
-1.63459e-13
6.16588e-13
1.41444e-09
-6.03325e-13
4.00051e-12
1.41454e-09
-5.30979e-13
2.64204e-12
1.41473e-09
3.25654e-13
-9.90749e-13
1.41541e-09
-2.19477e-12
1.11517e-12
1.41495e-09
2.85424e-13
-3.59507e-14
1.41473e-09
3.05431e-13
-5.58112e-14
1.41401e-09
1.56695e-13
1.31175e-13
1.4136e-09
7.27957e-13
-5.31947e-13
1.416e-09
-4.82431e-12
1.72411e-12
1.41508e-09
5.7576e-13
1.36766e-13
1.41491e-09
8.39868e-14
4.58318e-14
1.41526e-09
-1.57965e-13
-2.15176e-13
1.41538e-09
2.33543e-12
-5.79503e-13
1.41378e-09
4.02754e-12
-1.97598e-12
1.41431e-09
-5.28925e-13
2.24937e-14
1.41442e-09
6.26891e-14
-1.32456e-12
1.41463e-09
-4.2234e-14
-1.64654e-14
1.41456e-09
-8.94267e-16
1.366e-13
1.41413e-09
-4.74205e-13
6.32398e-13
1.23326e-12
-1.16002e-12
2.42889e-09
-6.37694e-09
5.22276e-09
1.09418e-08
3.24317e-09
-1.70666e-08
3.27949e-11
3.84062e-09
-1.66139e-09
1.79932e-09
-8.47208e-10
3.89025e-09
-4.50782e-09
-1.25787e-09
-2.04469e-09
1.38033e-08
1.47094e-09
-7.73423e-09
2.34694e-09
-5.62542e-09
-5.66601e-09
1.0819e-08
-7.85518e-10
-6.35789e-10
5.87879e-09
-3.24828e-09
1.23603e-09
-3.23075e-09
-8.12363e-10
1.06191e-09
1.57179e-10
7.69451e-10
-1.17618e-09
-1.53117e-10
-6.29574e-11
6.31966e-12
7.35633e-11
1.36191e-10
-3.72806e-11
2.20802e-10
-9.97602e-12
-6.39906e-12
-3.81126e-11
-6.82326e-11
-7.08722e-11
1.00706e-11
1.44944e-09
-6.14017e-12
-2.8572e-11
-2.67417e-10
-2.74321e-10
-4.42484e-10
-4.57604e-10
1.43423e-09
4.74151e-12
-2.69573e-12
1.42633e-09
7.32028e-13
1.73256e-13
1.42192e-09
8.19702e-13
1.78973e-13
1.4189e-09
1.11974e-13
1.38236e-13
1.41718e-09
2.69049e-13
-1.69643e-13
1.41677e-09
9.73546e-14
2.85209e-14
1.41548e-09
8.34941e-13
-2.15841e-13
1.41564e-09
-1.7015e-13
6.65953e-14
1.41575e-09
-3.09043e-13
7.72041e-14
1.41568e-09
-3.07977e-13
-5.05848e-14
1.41549e-09
2.28601e-13
1.02503e-13
1.41536e-09
-1.95551e-13
4.39449e-13
1.41474e-09
4.49548e-13
3.86909e-13
1.41575e-09
-2.89966e-12
7.13584e-13
1.41573e-09
6.09631e-13
-7.46311e-13
1.41552e-09
2.7594e-14
6.23251e-13
1.41495e-09
-1.65517e-13
-1.83121e-13
1.41499e-09
7.29172e-14
-3.11349e-13
1.41521e-09
-2.31826e-13
6.24005e-14
1.41422e-09
-9.43907e-13
1.66249e-12
1.41444e-09
-2.72666e-13
-1.36987e-13
1.41476e-09
3.32204e-13
-1.2864e-12
1.41505e-09
5.04112e-13
-1.3526e-12
1.41572e-09
-2.849e-12
2.47308e-12
1.41527e-09
-3.2184e-12
1.44445e-12
1.41477e-09
8.07355e-13
-5.06032e-14
1.41507e-09
-1.44683e-13
1.24418e-13
1.41523e-09
1.11827e-13
-1.37512e-13
1.41564e-09
1.00967e-13
2.00185e-13
1.41352e-09
-1.47579e-12
-1.25838e-12
1.41394e-09
3.99789e-13
-2.55666e-13
1.4141e-09
-1.02361e-13
4.08985e-15
1.41387e-09
9.05736e-15
4.17962e-14
1.41404e-09
5.30862e-13
1.62504e-12
1.41555e-09
4.46512e-13
2.05202e-12
1.41479e-09
-1.30379e-13
3.56906e-13
1.41422e-09
6.8693e-14
5.48303e-13
1.41481e-09
-1.62587e-12
9.85864e-13
1.41439e-09
4.08628e-13
1.95947e-15
1.41464e-09
1.18545e-13
-8.43936e-13
-1.89159e-13
1.21733e-12
1.14629e-09
5.39718e-09
5.28799e-09
-1.18065e-08
-6.24887e-09
2.82998e-09
1.67373e-08
-1.00752e-08
-2.9724e-09
7.99021e-09
-2.38978e-09
2.17754e-09
2.02692e-10
7.98147e-10
-8.40653e-10
-6.91375e-10
-3.3146e-09
-3.0046e-09
-1.13718e-09
1.22734e-09
-2.35977e-09
-7.03247e-10
-4.56665e-11
2.35912e-09
-3.31087e-10
2.39429e-08
-4.21731e-09
2.77913e-08
-5.09646e-08
1.86123e-10
1.36126e-10
4.29469e-10
7.11748e-10
2.79725e-11
-3.27353e-10
1.79176e-10
2.12905e-10
-9.27e-11
-6.95543e-11
1.27014e-11
-3.25284e-11
2.43428e-11
6.50385e-11
-3.09459e-11
-3.30832e-13
-6.94426e-13
5.81646e-12
2.61554e-11
1.44184e-09
-2.72975e-12
-3.23269e-11
-2.61981e-10
-2.6321e-10
-4.4293e-10
-4.44836e-10
1.42943e-09
1.77052e-11
-7.38739e-13
1.42365e-09
6.16118e-12
1.80779e-13
1.42103e-09
3.96509e-12
-6.05564e-13
1.41899e-09
2.73875e-12
-6.41902e-13
1.41762e-09
1.63477e-12
-4.15376e-14
1.4167e-09
9.83601e-13
-1.41642e-14
1.41699e-09
2.72882e-13
2.30604e-13
1.41628e-09
7.54114e-13
-2.57252e-13
1.41576e-09
-7.40884e-13
9.19082e-13
1.41467e-09
9.0087e-13
-1.55722e-13
1.41504e-09
-1.04673e-13
-7.38838e-14
1.41548e-09
-2.62143e-13
-4.10378e-13
1.41597e-09
-5.11891e-14
-1.88369e-14
1.41481e-09
-3.62431e-13
-1.40748e-12
1.41458e-09
-1.40222e-13
9.4718e-13
1.41485e-09
-2.26246e-13
-5.25707e-14
1.41488e-09
-2.01681e-13
-1.91008e-14
1.41482e-09
9.07486e-14
3.86388e-15
1.41437e-09
-1.04405e-13
2.96567e-13
1.41506e-09
4.36813e-13
-2.10194e-12
1.41559e-09
8.43013e-13
-1.67755e-12
1.41541e-09
5.20959e-13
-3.78343e-14
1.41621e-09
8.16108e-13
-1.14195e-12
1.41488e-09
1.05603e-13
-1.64836e-12
1.41429e-09
2.6333e-13
-2.92205e-12
1.41479e-09
-3.54998e-14
3.12015e-13
1.41487e-09
-1.823e-13
-6.71772e-14
1.41501e-09
-5.5918e-14
1.38443e-15
1.41489e-09
-2.49657e-13
4.47322e-13
1.41451e-09
-6.13432e-13
-4.97198e-13
1.41406e-09
-8.09419e-13
1.63862e-12
1.41396e-09
-3.01719e-13
2.8337e-13
1.41394e-09
-2.83712e-13
2.93059e-13
1.41455e-09
-2.0027e-12
1.9099e-12
1.41516e-09
4.89072e-13
-6.69962e-13
1.41498e-09
-9.55746e-14
1.37754e-13
1.41495e-09
-5.31682e-14
1.42271e-13
1.41436e-09
-7.61523e-14
-9.69573e-13
1.41422e-09
5.78561e-13
-3.54292e-14
1.41403e-09
2.24551e-13
8.02147e-14
-1.49762e-12
6.20608e-13
1.46054e-10
-2.92517e-09
6.50543e-09
-3.70136e-09
-9.31102e-09
-5.16787e-09
2.18473e-08
4.02385e-10
-7.77074e-09
8.14436e-10
8.71721e-11
-2.3164e-09
1.88552e-08
-1.88414e-08
1.47462e-09
2.11564e-09
-5.87208e-10
6.31073e-10
-3.65701e-09
2.01421e-10
-1.09936e-09
5.87642e-09
1.50763e-10
2.91205e-09
1.37907e-09
-1.25102e-10
3.44068e-09
2.23716e-09
-4.73826e-09
-1.03197e-09
-1.30259e-09
1.22429e-09
-1.03408e-09
2.14436e-09
-6.78873e-11
-6.58889e-10
-1.234e-10
2.13074e-10
6.37103e-10
-7.26182e-12
9.55414e-12
-1.87188e-10
-3.14154e-11
-5.51925e-11
6.21658e-11
-1.07665e-10
1.87613e-11
5.29993e-13
4.2534e-12
3.94024e-12
9.48884e-11
1.30207e-10
6.44197e-11
-1.46307e-10
1.05847e-11
-1.54223e-11
1.12762e-10
3.83826e-11
1.44454e-09
1.33767e-12
-3.20847e-11
-2.6111e-10
-2.56704e-10
-4.37497e-10
-4.40826e-10
-7.70059e-12
9.76332e-13
-1.37146e-11
1.42373e-09
3.97464e-11
-1.467e-12
1.42149e-09
8.45311e-12
-1.20278e-13
1.4172e-09
8.10352e-12
9.53104e-14
1.41671e-09
3.20812e-12
-2.6371e-14
1.41629e-09
2.00161e-12
1.61284e-14
1.41593e-09
1.31161e-12
-1.21796e-14
1.41539e-09
8.24422e-13
-4.96972e-14
1.41565e-09
2.48328e-13
2.04611e-13
1.41543e-09
4.75193e-13
-1.03525e-12
1.41588e-09
3.01145e-13
1.12085e-13
1.41557e-09
1.70348e-13
1.211e-15
1.41536e-09
-6.36477e-14
-1.94596e-14
1.41525e-09
6.95197e-14
-4.96226e-14
1.41505e-09
-9.08467e-14
-9.90094e-14
1.41546e-09
-1.24163e-13
-4.60962e-13
1.41503e-09
9.98203e-14
7.12292e-14
1.41489e-09
-3.27576e-14
-5.98049e-14
1.4149e-09
7.40934e-14
-1.97053e-14
1.41499e-09
9.13608e-13
-1.14599e-12
1.41596e-09
1.51295e-12
-2.07171e-12
1.41504e-09
-1.84434e-13
1.91491e-12
1.41509e-09
4.72692e-13
-2.68615e-14
1.41483e-09
-1.45506e-12
2.49337e-12
1.41446e-09
-4.53316e-13
9.04714e-13
1.41469e-09
-8.85548e-14
9.6794e-14
1.41492e-09
4.30809e-15
-3.02109e-13
1.41477e-09
-8.48103e-14
2.55453e-14
1.41486e-09
-2.4306e-13
7.22082e-14
1.41473e-09
1.57072e-13
-2.93108e-13
1.41412e-09
-4.26558e-13
3.98989e-13
1.41448e-09
9.29872e-13
-2.11511e-12
1.41452e-09
-1.66665e-13
-1.94694e-13
1.41499e-09
-5.19536e-13
-2.50553e-13
1.41472e-09
1.3511e-13
-1.88738e-12
1.41444e-09
5.84035e-14
6.96312e-13
1.41478e-09
-1.38371e-14
-4.31179e-13
1.415e-09
-1.0695e-13
-1.77992e-13
1.41489e-09
1.5175e-12
-1.48649e-12
1.41366e-09
1.77209e-12
3.09621e-14
1.41401e-09
-8.10894e-14
-4.90114e-14
-1.89481e-12
5.52816e-13
-8.72687e-09
-3.9909e-09
-1.8851e-09
1.47939e-08
1.09066e-08
4.0831e-09
4.61766e-10
4.00845e-09
4.81319e-08
-5.46415e-08
-2.48364e-08
1.18856e-08
-2.95447e-09
-6.63749e-09
1.1824e-08
-2.14492e-09
1.25055e-09
1.10516e-10
4.08366e-10
-8.56997e-12
-1.76086e-09
1.27111e-09
3.6084e-09
-1.5361e-09
-9.41997e-10
-9.24183e-10
-1.61701e-09
-6.57e-10
4.1553e-10
9.22337e-11
1.18216e-10
1.70787e-10
1.97221e-10
1.50998e-10
-1.09406e-10
-1.34824e-10
-1.03989e-10
-2.96483e-11
8.29166e-11
-6.8451e-11
-1.84362e-10
-1.18855e-12
-1.31688e-10
5.5195e-11
6.59469e-11
7.0444e-11
6.87933e-11
7.20423e-11
-7.78686e-11
-4.12063e-12
6.61132e-12
-5.2437e-11
1.27815e-10
-3.52001e-11
2.03801e-10
-1.92532e-13
-5.02706e-12
-3.50151e-11
-6.35871e-11
-6.34591e-11
1.40309e-09
7.40027e-12
-2.25063e-11
-2.53063e-10
-2.56927e-10
-4.15111e-10
-4.2315e-10
1.40899e-09
4.98769e-12
-2.46075e-12
1.41235e-09
3.96165e-12
7.28079e-13
1.41455e-09
5.1936e-13
4.42739e-13
1.41538e-09
1.1023e-12
3.12227e-14
1.41516e-09
2.44108e-12
-9.53397e-13
1.41508e-09
1.85784e-12
-9.94578e-13
1.41509e-09
2.12946e-13
-1.07688e-14
1.41511e-09
3.55363e-13
6.54486e-14
1.41515e-09
-7.61022e-14
2.96776e-13
1.41549e-09
4.51109e-13
-6.58119e-13
1.4153e-09
7.92705e-14
1.32542e-14
1.41547e-09
2.84602e-13
-4.17264e-13
1.41547e-09
9.35857e-14
-2.15423e-13
1.41526e-09
-1.88625e-13
2.42519e-13
1.41533e-09
-5.58722e-14
5.09839e-14
1.41543e-09
-2.3455e-13
7.23496e-14
1.41544e-09
4.28805e-14
-1.33479e-14
1.41516e-09
3.19905e-13
8.49387e-13
1.41397e-09
6.49867e-13
2.01412e-12
1.41537e-09
-2.26808e-12
6.52499e-13
1.41554e-09
4.54822e-13
-1.80172e-13
1.41434e-09
-4.71102e-13
1.87088e-13
1.41474e-09
1.15655e-13
-9.94282e-13
1.41472e-09
-5.46662e-14
-4.69904e-14
1.41472e-09
1.79806e-13
-1.92506e-13
1.41464e-09
-3.16306e-14
-5.69355e-15
1.41444e-09
-3.51523e-13
2.89619e-13
1.41422e-09
6.43259e-13
-2.96069e-13
1.41435e-09
-2.23883e-13
-3.53856e-13
1.41491e-09
-2.1223e-13
5.7033e-13
1.41475e-09
3.84684e-14
-6.78247e-14
1.41433e-09
1.92878e-13
-3.14671e-13
1.41455e-09
3.49267e-13
-4.4853e-13
1.41467e-09
2.738e-13
-3.47024e-13
1.41501e-09
-2.8569e-13
-7.71126e-14
1.41522e-09
-3.69108e-13
3.99966e-14
1.41528e-09
-1.32102e-12
2.76907e-12
1.41379e-09
3.46206e-12
-2.01733e-13
1.41401e-09
-9.4575e-13
6.35248e-13
-2.24891e-13
-8.37191e-13
-1.01587e-09
4.35844e-09
7.44493e-10
-7.14229e-10
-1.42002e-09
-6.4566e-10
7.10649e-10
1.26281e-09
-1.54131e-09
-3.50422e-10
-1.06061e-09
-1.47516e-09
-1.32366e-09
2.84356e-09
1.4632e-10
-5.51745e-09
1.56771e-09
-2.64348e-10
4.06777e-09
-1.1599e-09
-5.58191e-09
-1.46105e-10
4.5412e-09
2.34671e-09
3.65561e-10
4.19346e-10
1.98303e-11
-2.75445e-11
-7.77193e-10
-1.51791e-10
4.84067e-10
-4.04785e-10
-1.10374e-10
1.82883e-10
-9.18711e-11
7.158e-11
-4.03612e-11
1.26807e-12
-5.82582e-11
-1.88446e-10
-1.0634e-10
1.05327e-10
9.6093e-11
1.14038e-10
9.69695e-11
-8.53483e-11
-6.4261e-13
-9.83808e-12
-3.26857e-11
1.28515e-10
-3.55842e-11
4.07045e-14
1.87656e-10
-3.64809e-13
1.13019e-11
-3.51094e-11
-6.43984e-11
-6.35415e-11
1.40041e-09
-2.3592e-11
-2.40055e-11
-2.54797e-10
-2.52422e-10
-4.19989e-10
-4.18216e-10
1.40693e-09
6.67354e-13
-2.27268e-12
1.41144e-09
-9.52346e-13
3.69847e-13
1.41262e-09
-1.50571e-13
-5.50558e-13
1.41359e-09
6.67731e-14
3.09408e-14
1.41466e-09
3.4369e-13
9.879e-13
1.41522e-09
2.68925e-13
9.85093e-13
1.41521e-09
1.41405e-13
5.01423e-14
1.41551e-09
-4.46848e-13
4.63706e-13
1.41561e-09
-2.42924e-14
-1.86056e-13
1.41515e-09
1.89986e-13
6.76753e-13
1.41548e-09
3.99437e-13
-6.80385e-13
1.41527e-09
-1.28641e-13
5.92176e-13
1.41535e-09
1.16198e-13
-1.43672e-13
1.41506e-09
3.62734e-14
3.30385e-14
1.41509e-09
-8.74257e-14
-2.83116e-14
1.41566e-09
7.34901e-13
-1.56643e-12
1.41573e-09
-8.84102e-14
2.30069e-14
1.41592e-09
1.55006e-13
-4.69817e-14
1.41618e-09
8.29988e-13
-4.78247e-13
1.4134e-09
3.79842e-12
-3.31787e-12
1.4136e-09
-1.04159e-12
1.26629e-12
1.41481e-09
5.74989e-14
-1.76842e-12
1.41484e-09
1.17321e-13
-5.26825e-14
1.41466e-09
1.62554e-13
-6.4041e-14
1.41442e-09
-4.01175e-13
7.8697e-13
1.41445e-09
-5.91218e-14
-2.63215e-14
1.4145e-09
-1.12217e-13
-3.12126e-13
1.41464e-09
5.4164e-14
4.26592e-13
1.41429e-09
-4.99779e-13
6.0706e-13
1.41492e-09
-6.32096e-13
-2.35458e-13
1.41483e-09
3.57376e-13
-2.49604e-13
1.41471e-09
1.66945e-13
1.29483e-13
1.41459e-09
7.13093e-14
3.86382e-13
1.41436e-09
2.51873e-13
2.43292e-13
1.41411e-09
-2.12828e-13
1.65412e-13
1.41386e-09
-8.01473e-14
-5.76283e-14
1.41368e-09
1.42157e-12
-2.56622e-12
1.41576e-09
1.18713e-12
1.84108e-13
1.41545e-09
-4.60331e-13
-1.75534e-13
-7.71256e-13
1.74866e-12
-1.01551e-09
5.65879e-09
1.10405e-09
-6.70967e-10
-2.3163e-09
4.42884e-09
4.62364e-10
1.64851e-10
-9.23923e-10
-1.55908e-08
1.14567e-08
-6.60994e-09
2.61305e-09
2.18265e-09
2.10531e-09
1.68288e-09
3.89942e-09
-6.40444e-10
-5.87791e-09
1.94797e-09
-6.14333e-09
-2.14273e-09
2.56793e-09
-6.32443e-10
-7.04727e-09
-2.05625e-09
-4.50256e-10
-1.79137e-09
-1.01374e-10
-1.58725e-09
-1.31577e-09
1.8611e-09
1.37395e-09
5.35959e-09
-1.67206e-08
2.40124e-08
1.12638e-08
-5.26274e-10
-4.17959e-09
-1.73959e-09
3.01115e-09
-2.28347e-09
1.55232e-09
-8.42331e-09
-1.39452e-10
1.08266e-10
6.88986e-11
2.17946e-10
-2.55659e-10
-6.80158e-11
5.12409e-11
-3.34787e-11
-7.70876e-10
8.05533e-11
6.24075e-10
6.06049e-11
1.92759e-12
2.38919e-11
1.13677e-11
1.87083e-11
-7.35744e-11
4.35503e-12
1.68212e-12
-4.28124e-11
1.1035e-10
1.42489e-09
2.20182e-11
-2.80385e-11
-2.54561e-10
-2.56152e-10
-4.37765e-10
-4.29845e-10
-5.36672e-12
-1.16493e-11
-5.1045e-12
-1.84325e-11
1.41178e-09
-9.07343e-12
-1.35282e-12
1.41286e-09
-3.95077e-13
-6.42094e-14
1.41298e-09
-1.02209e-12
-8.74174e-14
1.41363e-09
-6.95167e-13
-1.41801e-13
1.41435e-09
-6.03063e-13
-9.40346e-14
1.41445e-09
7.59285e-13
-5.45316e-13
1.41499e-09
-3.46159e-13
3.86102e-14
1.4153e-09
-1.85668e-13
-1.88045e-14
1.41495e-09
3.28525e-13
-4.618e-13
1.41556e-09
-6.49017e-13
-2.27667e-14
1.4156e-09
2.3537e-13
-1.22543e-13
1.41526e-09
-5.0657e-14
7.56433e-13
1.41533e-09
-8.42762e-14
-1.54695e-13
1.41537e-09
1.943e-13
-1.54178e-13
1.41546e-09
-5.24253e-14
-3.24514e-14
1.41536e-09
7.08239e-14
-8.4923e-14
1.41489e-09
-3.75308e-13
1.54268e-12
1.4152e-09
-4.33519e-13
8.4287e-15
1.41588e-09
-5.74636e-13
1.49943e-14
1.41387e-09
6.08916e-12
-3.27705e-12
1.41446e-09
4.94564e-13
2.68154e-12
1.41484e-09
-3.28966e-13
-1.11855e-12
1.41479e-09
-1.51305e-13
2.24455e-13
1.41475e-09
5.43398e-14
8.01097e-14
1.4147e-09
-1.11228e-14
1.92247e-13
1.41486e-09
2.26048e-13
-8.16462e-13
1.41482e-09
-3.35462e-13
2.95868e-13
1.41471e-09
-3.97019e-14
9.74389e-15
1.41477e-09
1.03404e-14
-3.52377e-14
1.4146e-09
1.67436e-13
-5.19682e-13
1.41475e-09
5.02669e-13
-1.30784e-12
1.41457e-09
2.15435e-13
3.05661e-13
1.41452e-09
1.06653e-13
9.07681e-14
1.41445e-09
8.54738e-14
4.3767e-14
1.41427e-09
-7.34688e-14
4.91858e-13
1.41415e-09
-9.13399e-14
-1.43859e-14
1.41391e-09
1.44261e-13
5.80494e-15
1.41434e-09
-7.77219e-13
1.76103e-12
1.41476e-09
7.07098e-13
5.5268e-14
1.41502e-09
-2.09004e-13
-5.18292e-13
-2.61873e-13
-1.18294e-12
-3.88797e-09
-1.34689e-11
1.09491e-08
-2.89939e-09
6.13593e-10
-9.67712e-10
1.67873e-09
2.8954e-09
1.76702e-09
-8.20589e-10
-4.56318e-09
-1.43628e-09
3.36377e-09
-8.40591e-09
2.57056e-09
2.57274e-09
-4.69522e-09
-3.40314e-09
2.62623e-09
-1.77041e-09
7.71569e-11
4.25413e-10
-8.74836e-10
-2.41492e-09
2.44568e-09
5.1387e-09
-5.66876e-09
4.99303e-10
-1.65995e-10
-8.44628e-10
2.49748e-10
2.65758e-10
4.95122e-10
-1.15076e-10
-1.15849e-10
3.33615e-10
-1.4541e-10
-4.91433e-11
-8.94942e-11
7.13666e-12
-3.0739e-11
-1.0626e-10
-9.40827e-11
8.69707e-11
1.07155e-10
1.01717e-10
1.09465e-10
-1.13918e-10
-1.22241e-11
4.08988e-12
9.03525e-11
3.16992e-11
1.4098e-09
9.21231e-13
-2.92983e-11
-2.52678e-10
-2.53117e-10
-4.2547e-10
-4.28081e-10
1.40902e-09
-7.08678e-12
-1.20938e-12
1.41166e-09
-3.1949e-12
2.35743e-13
1.41304e-09
-2.50478e-12
8.29299e-14
1.41383e-09
-1.61857e-12
1.0923e-13
1.41425e-09
-1.19082e-12
1.33148e-13
1.41539e-09
-1.00583e-12
5.87665e-13
1.41561e-09
-6.10453e-13
1.67145e-14
1.41529e-09
1.31638e-13
-3.21249e-14
1.41564e-09
-1.88951e-13
1.27722e-13
1.41492e-09
2.29602e-13
-1.97714e-13
1.41538e-09
-2.19437e-13
-3.61716e-14
1.41544e-09
-2.07633e-13
5.49575e-14
1.41549e-09
1.16815e-13
-2.84163e-13
1.41524e-09
-5.60481e-13
9.73882e-13
1.41532e-09
-1.87407e-13
2.28035e-14
1.41508e-09
9.34913e-14
1.80109e-13
1.41483e-09
-5.44562e-13
3.87206e-13
1.41453e-09
2.19207e-14
-1.87396e-13
1.41343e-09
4.94849e-13
1.97665e-15
1.41518e-09
6.29606e-13
3.67638e-12
1.41573e-09
8.34176e-13
-9.13108e-13
1.41556e-09
-2.45267e-12
2.25931e-12
1.41552e-09
2.01186e-13
-3.39024e-13
1.4147e-09
2.14182e-12
-1.29488e-12
1.41473e-09
-4.64896e-14
-2.57935e-14
1.41484e-09
-5.06556e-14
1.38234e-13
1.4145e-09
9.30873e-13
-9.46111e-13
1.415e-09
-6.34953e-13
6.46274e-14
1.41469e-09
4.3501e-13
-1.35394e-13
1.41509e-09
-2.16409e-13
-3.46225e-14
1.4144e-09
-3.10405e-13
1.48115e-12
1.41444e-09
-9.97545e-15
1.63256e-13
1.41444e-09
8.12353e-14
6.30052e-15
1.41439e-09
1.81453e-13
-5.77744e-14
1.41445e-09
2.27115e-13
-3.74844e-13
1.41418e-09
2.02779e-13
-3.2416e-14
1.4137e-09
5.74837e-13
3.8466e-14
1.41429e-09
-1.1835e-12
-1.93068e-13
1.41407e-09
6.46911e-13
2.70928e-13
1.41548e-09
-3.45934e-12
1.83436e-12
-3.44408e-13
-5.9251e-13
-3.43622e-09
-3.41542e-09
1.01579e-08
2.52879e-09
-5.51869e-09
1.05909e-09
-1.60979e-09
2.06806e-09
-3.28088e-09
1.52197e-09
7.37705e-10
-1.30952e-09
-6.63002e-10
-2.87152e-10
4.28788e-09
2.06182e-09
-4.06728e-09
-8.81056e-10
-1.34954e-09
3.06334e-10
8.1082e-11
-4.39231e-10
3.3351e-09
-1.55668e-10
-1.19691e-10
-1.61368e-09
-1.44607e-09
-2.61277e-11
-9.16408e-11
-9.54652e-12
1.26713e-10
5.87847e-13
-6.3331e-11
2.77688e-11
-3.12119e-11
-3.25834e-11
9.93575e-11
-3.86019e-11
9.86649e-13
1.99338e-10
6.48545e-12
9.63534e-12
-3.56887e-11
-7.5167e-11
-6.85961e-11
1.07143e-12
4.04599e-13
1.35385e-13
1.41343e-09
-2.32071e-12
-2.84348e-11
-2.62327e-10
-2.53655e-10
-4.42564e-10
-4.23206e-10
1.41357e-09
-5.15193e-12
-2.01882e-12
1.41419e-09
-4.05065e-12
3.28563e-13
1.41457e-09
-2.78121e-12
-1.07915e-13
1.41457e-09
-1.5951e-12
-4.18132e-14
1.41521e-09
-1.88581e-12
2.01768e-14
1.41521e-09
-9.5216e-13
-8.62776e-14
1.41502e-09
-6.09531e-13
1.53842e-13
1.41558e-09
-6.91267e-13
2.32767e-13
1.41566e-09
-5.2444e-14
-2.56035e-13
1.41583e-09
-4.00835e-14
6.40391e-14
1.41536e-09
7.84823e-14
1.36415e-13
1.41522e-09
-5.62882e-14
-5.10029e-14
1.41505e-09
-3.11035e-13
5.60441e-13
1.41524e-09
-2.72341e-13
-5.09397e-13
1.41501e-09
3.40336e-14
-2.01021e-14
1.41524e-09
-5.97643e-14
-1.12812e-13
1.41552e-09
-5.03644e-13
-3.48867e-13
1.41467e-09
-7.46123e-13
1.5879e-12
1.41519e-09
-9.74053e-14
3.65203e-14
1.41536e-09
3.32873e-13
9.63906e-14
1.41505e-09
1.5956e-13
9.58972e-13
1.41506e-09
1.99796e-13
-2.69553e-12
1.41479e-09
2.468e-14
4.17233e-13
1.41483e-09
1.0267e-12
1.04614e-12
1.41457e-09
7.10912e-14
1.08804e-13
1.41432e-09
2.17855e-13
-3.91651e-14
1.41386e-09
6.15444e-13
7.49497e-13
1.4154e-09
-3.34884e-12
1.14881e-12
1.41539e-09
1.34363e-13
2.8656e-13
1.41485e-09
9.80769e-13
-6.77187e-13
1.41482e-09
-2.51088e-13
-5.34147e-14
1.41491e-09
-1.98535e-13
8.14758e-14
1.41458e-09
1.52564e-12
-1.13155e-12
1.41428e-09
4.2943e-13
4.24907e-14
1.41414e-09
4.39441e-13
-8.50376e-14
1.41457e-09
3.7111e-13
-6.15913e-13
1.41506e-09
-1.16765e-13
1.91646e-13
1.4139e-09
3.12726e-13
-3.4695e-13
1.4142e-09
4.64091e-13
-1.23885e-13
1.41392e-09
1.0271e-12
-4.20259e-12
-2.21375e-12
9.48942e-14
1.60074e-09
-4.88117e-09
-1.3121e-09
1.02124e-09
-2.81561e-09
-4.02677e-09
-4.07567e-11
3.89941e-10
5.27833e-09
1.00717e-09
1.48917e-09
1.77059e-09
-4.733e-09
4.66065e-10
-1.04224e-09
6.56031e-10
-3.9601e-09
1.70469e-09
-7.98558e-11
6.49749e-10
1.18847e-09
8.83251e-10
2.08585e-10
9.01272e-10
2.65765e-09
-8.06798e-09
4.30047e-09
2.09671e-10
-5.59971e-10
1.80565e-10
-2.00129e-11
1.89747e-10
-6.49836e-11
2.54735e-11
-3.34468e-11
-7.41981e-11
1.47155e-10
-3.43446e-11
-1.22835e-12
1.8738e-10
-6.25898e-12
9.63366e-12
-3.2653e-11
-6.32475e-11
-5.92789e-11
1.4043e-09
-2.77182e-11
-2.53479e-10
-2.55768e-10
-4.21527e-10
-4.3031e-10
1.41188e-09
-1.7936e-12
1.41455e-09
4.62005e-13
1.41516e-09
9.62927e-14
1.41508e-09
6.92532e-14
1.41648e-09
3.84901e-13
1.41624e-09
-2.05735e-13
1.416e-09
-3.28546e-13
1.41564e-09
-1.39522e-13
1.41578e-09
-3.09949e-13
1.41566e-09
1.1367e-13
1.41536e-09
-2.316e-13
1.41497e-09
1.02098e-12
1.41526e-09
-2.70044e-13
1.41506e-09
-1.66803e-14
1.41513e-09
4.7975e-14
1.41506e-09
7.42343e-13
1.41493e-09
-9.61433e-14
1.41544e-09
-1.42185e-12
1.4152e-09
2.14227e-15
1.41546e-09
8.5753e-13
1.41538e-09
-4.99937e-13
1.41503e-09
-2.30817e-12
1.41409e-09
-1.31896e-12
1.41477e-09
7.50469e-13
1.41493e-09
2.42859e-13
1.41515e-09
1.44776e-13
1.41564e-09
4.38698e-14
1.41382e-09
-1.16158e-12
1.41413e-09
-1.43601e-14
1.41503e-09
7.30652e-13
1.41481e-09
1.33303e-13
1.41482e-09
-2.19979e-13
1.41498e-09
1.34858e-12
1.41449e-09
-9.98151e-13
1.41447e-09
-1.90428e-14
1.41418e-09
6.10312e-13
1.41463e-09
5.62726e-13
1.41469e-09
8.17325e-14
1.41532e-09
-2.45236e-13
1.4141e-09
2.50608e-12
-2.06162e-14
-1.65543e-09
2.59728e-11
-5.10594e-09
4.16337e-09
-1.60839e-11
4.08452e-09
6.07173e-10
-2.76513e-10
-1.4295e-10
6.92994e-10
5.62463e-10
6.32454e-10
1.49406e-09
-3.99505e-10
-2.26899e-09
4.85927e-10
1.0165e-08
-8.74653e-09
3.74171e-10
2.82711e-10
1.49231e-09
2.89218e-10
-2.37002e-09
9.01925e-10
8.45059e-10
-1.41101e-09
2.27078e-09
-1.64721e-09
-2.85601e-10
1.03175e-10
4.47321e-10
-1.76318e-10
2.00742e-10
-8.9545e-11
3.81668e-11
-5.99585e-12
-2.05195e-11
8.27772e-11
-5.86051e-10
6.18213e-10
-1.0432e-11
-2.03653e-11
-1.00731e-11
2.36195e-09
-4.00254e-11
2.76534e-11
-6.0319e-10
-5.97315e-10
-6.02814e-10
-5.97327e-10
2.36211e-09
-1.82399e-11
1.76871e-12
2.36284e-09
-9.30514e-12
-5.36199e-13
2.36284e-09
-4.28236e-12
-3.44128e-13
2.36375e-09
-1.81525e-12
-8.48358e-13
2.361e-09
-1.44458e-12
5.04267e-13
2.36001e-09
-1.64002e-13
5.23152e-13
2.36033e-09
-6.50206e-13
1.14941e-13
2.35978e-09
1.8933e-13
-1.84953e-15
2.3593e-09
-1.36202e-14
1.37585e-13
2.35954e-09
-3.13224e-13
-7.42185e-14
2.35965e-09
2.95483e-13
1.10495e-12
2.35961e-09
3.64779e-13
-1.86411e-13
2.35903e-09
-8.29768e-13
4.39433e-13
2.3592e-09
3.68292e-13
6.13006e-14
2.35907e-09
4.7136e-15
-7.11157e-14
2.35917e-09
-1.49827e-12
5.60028e-13
2.35925e-09
-1.86525e-12
1.24408e-12
2.35923e-09
7.2206e-13
-2.18999e-13
2.35925e-09
8.21877e-14
-5.9763e-14
2.35842e-09
7.63611e-13
1.48224e-13
2.35876e-09
3.34671e-13
-7.53557e-13
2.35781e-09
4.53531e-12
-6.83386e-13
2.35786e-09
4.06683e-12
-2.80289e-12
2.35848e-09
4.87182e-13
-2.99093e-12
2.35959e-09
1.02578e-12
-5.03692e-13
2.35886e-09
5.05267e-13
1.3065e-13
2.35842e-09
4.62605e-13
-4.72405e-16
2.35728e-09
8.92721e-13
-1.26419e-13
2.35678e-09
-9.41729e-13
6.75142e-13
2.36013e-09
-6.56862e-13
-1.82019e-12
2.35912e-09
1.06079e-12
-1.12108e-13
2.35877e-09
2.9178e-13
5.03566e-14
2.35928e-09
-2.37639e-13
-6.97989e-14
2.35962e-09
-1.58859e-12
1.20995e-13
2.35713e-09
4.32064e-12
-3.65872e-12
2.35802e-09
-8.04387e-13
-6.0312e-14
2.35797e-09
-1.53709e-12
5.45023e-13
2.35842e-09
-4.47932e-13
7.44922e-14
2.35831e-09
-6.002e-14
1.81231e-13
2.35737e-09
5.05294e-13
7.78679e-13
-6.17996e-13
-4.33186e-13
-3.12599e-09
-8.57323e-10
2.53291e-08
-2.07121e-08
-9.23357e-10
-2.64057e-09
-1.09488e-08
1.4373e-09
-1.93479e-09
-2.49973e-09
1.66596e-10
-7.69711e-10
-4.95448e-09
1.3456e-08
2.81065e-09
2.75319e-09
2.10732e-10
1.31392e-10
-8.98485e-10
3.3813e-10
-1.98304e-10
-5.63716e-09
2.05316e-09
1.79807e-08
-3.96577e-09
-1.12007e-08
-2.95292e-10
-1.42504e-09
2.72466e-09
-5.55751e-09
7.32799e-09
-1.89349e-10
9.47662e-10
4.49175e-11
-2.81529e-10
-1.13717e-09
-1.13134e-09
-1.02803e-09
1.84994e-09
-2.07259e-10
6.84934e-10
8.647e-11
-3.65016e-10
-2.04907e-09
-1.15969e-10
1.50452e-10
1.2823e-10
-9.54523e-11
-1.69594e-10
1.02332e-10
-1.57072e-10
6.48781e-10
-2.52671e-11
-1.46824e-13
-2.51908e-13
-1.61893e-10
-1.62944e-10
-1.67947e-10
2.6741e-11
2.41693e-09
-1.09259e-11
2.87293e-11
-6.16051e-10
-6.35699e-10
-6.16047e-10
-6.35723e-10
2.38568e-09
7.26993e-12
2.78439e-12
2.37533e-09
1.19058e-12
-2.66301e-13
2.36861e-09
2.67687e-12
-2.0241e-13
2.36433e-09
2.64183e-12
-1.49947e-13
2.36184e-09
6.09974e-13
1.60932e-13
2.36125e-09
3.99455e-13
-4.17479e-14
2.35935e-09
6.9523e-13
2.45859e-13
2.35964e-09
-7.07926e-14
-5.3469e-14
2.35986e-09
-2.12572e-13
-2.24909e-14
2.35968e-09
-2.76458e-13
6.41309e-15
2.35945e-09
5.56774e-13
-8.67557e-15
2.3593e-09
9.56609e-13
-7.75937e-14
2.35833e-09
7.57843e-13
-3.02022e-13
2.35965e-09
1.93416e-12
-2.24657e-12
2.36005e-09
1.04177e-12
-2.25205e-12
2.35949e-09
2.42841e-13
-6.27764e-13
2.3586e-09
-1.80791e-14
-1.21347e-12
2.35864e-09
1.34277e-13
1.74036e-13
2.3589e-09
-1.47308e-13
-4.30556e-14
2.35744e-09
3.14761e-12
6.70968e-13
2.35769e-09
-3.14914e-13
1.99365e-13
2.35856e-09
6.84195e-13
1.62146e-12
2.35901e-09
8.03181e-13
1.39643e-12
2.35995e-09
-2.24425e-12
4.20452e-12
2.35942e-09
1.10843e-12
1.83074e-12
2.35862e-09
1.10563e-12
9.41276e-14
2.35893e-09
3.14565e-13
-9.02487e-14
2.35927e-09
2.38711e-13
1.22041e-13
2.35973e-09
-6.14399e-13
-6.41335e-13
2.35689e-09
-1.05958e-12
1.94052e-12
2.35701e-09
5.69957e-13
6.98505e-14
2.35735e-09
-7.76757e-14
-2.07631e-15
2.35713e-09
5.87567e-14
-6.73303e-14
2.35748e-09
7.27224e-13
-1.0802e-12
2.35965e-09
5.62056e-13
3.61556e-12
2.35861e-09
8.44034e-13
-2.79773e-13
2.35795e-09
1.38401e-13
-4.82113e-13
2.35856e-09
-1.18595e-12
1.09921e-12
2.35808e-09
6.12628e-13
-1.99326e-13
2.35829e-09
1.07382e-13
-6.69602e-13
-2.93734e-13
2.19556e-13
7.41929e-10
-2.39731e-09
6.61774e-09
2.9277e-08
4.56262e-09
-1.12621e-08
-1.8688e-08
-8.24478e-09
9.14406e-09
-4.87045e-09
2.13668e-08
-8.01861e-10
6.99538e-10
-4.31486e-09
-5.38671e-09
-7.19228e-10
6.92744e-10
4.16818e-09
-2.37734e-08
1.46933e-08
-1.55989e-08
2.07025e-09
9.37527e-10
-5.80551e-10
-8.33031e-09
1.1501e-09
-2.41458e-09
1.04136e-09
7.39536e-10
5.57798e-09
3.67922e-09
7.11788e-09
-5.08293e-10
1.42901e-10
-2.35024e-09
-3.46517e-09
1.7028e-09
1.07546e-11
-1.44934e-09
2.89064e-09
3.69962e-10
-3.52481e-09
1.38993e-09
-1.47889e-11
3.07564e-09
-5.78348e-10
-2.4945e-10
-3.62298e-09
4.85798e-11
1.1266e-11
1.03811e-10
-2.12499e-10
3.36603e-11
1.51812e-11
-1.34405e-10
-1.53532e-11
-1.63043e-12
-3.54771e-12
8.42938e-12
1.46508e-10
2.40131e-09
-8.45489e-12
3.31379e-11
-6.16253e-10
-6.18529e-10
-6.16248e-10
-6.18562e-10
2.37845e-09
2.84667e-11
6.17792e-13
2.3709e-09
8.93779e-12
-2.84659e-13
2.36709e-09
5.16131e-12
5.75582e-13
2.36432e-09
3.97937e-12
6.75527e-13
2.36237e-09
2.36136e-12
5.45431e-14
2.36116e-09
1.47145e-12
2.56273e-14
2.36164e-09
5.49496e-13
-1.92763e-13
2.36061e-09
9.9042e-13
-3.74291e-13
2.35989e-09
8.72954e-13
4.60743e-13
2.35812e-09
1.05569e-12
2.05173e-13
2.3588e-09
-2.115e-13
-6.17031e-14
2.35946e-09
-2.76225e-13
8.70018e-14
2.36025e-09
-7.30217e-14
-4.66432e-14
2.35857e-09
1.12977e-14
2.12534e-12
2.35796e-09
3.88881e-13
2.13811e-12
2.35836e-09
-2.70489e-13
-8.14433e-15
2.35848e-09
-1.97569e-13
-3.75355e-14
2.35825e-09
3.90087e-13
-8.4654e-14
2.35751e-09
6.76323e-13
1.42676e-13
2.35887e-09
8.55778e-13
-1.24476e-12
2.35968e-09
-4.60855e-12
1.74037e-12
2.35947e-09
1.0532e-12
-2.5708e-13
2.36093e-09
-2.84886e-12
9.85441e-13
2.35886e-09
3.43971e-13
-2.23118e-12
2.35774e-09
1.6013e-13
-9.11643e-13
2.35845e-09
5.72823e-13
6.76358e-14
2.35874e-09
-2.01351e-13
1.08222e-13
2.35884e-09
-7.06962e-14
1.60071e-13
2.35874e-09
-1.96115e-13
7.32539e-14
2.35813e-09
-9.34662e-13
-5.39842e-14
2.35728e-09
2.25174e-12
7.61555e-13
2.35708e-09
6.00966e-13
-2.28429e-13
2.3572e-09
1.72311e-13
2.16947e-14
2.35828e-09
8.72013e-13
6.46849e-13
2.35915e-09
-1.69315e-12
6.94731e-13
2.359e-09
1.22285e-12
-1.22332e-13
2.35896e-09
5.49963e-13
-2.42107e-13
2.35797e-09
1.40194e-13
-1.32149e-12
2.35757e-09
8.81695e-13
8.4967e-14
2.35742e-09
3.80292e-13
-5.09096e-14
-2.18947e-12
1.21146e-12
-2.09261e-09
-9.2254e-09
-2.13965e-08
2.47933e-08
-2.3061e-08
7.86712e-09
1.61551e-09
2.74741e-11
3.29804e-09
-1.36439e-10
-2.76523e-09
-3.99776e-09
5.60979e-10
4.10327e-08
-2.42282e-08
1.52597e-08
5.55939e-09
-1.03927e-09
-5.58956e-09
-3.98628e-09
8.10471e-09
-4.96577e-10
2.44575e-08
-3.90287e-08
-6.64493e-09
2.66906e-09
5.26709e-09
-4.19755e-09
1.85095e-09
2.11955e-08
7.56598e-10
-2.2479e-08
9.07809e-11
-1.41286e-09
-9.85435e-09
-3.03555e-09
1.2574e-09
-2.76816e-09
1.33123e-09
1.30694e-08
8.02188e-10
-2.91597e-10
-5.14469e-10
5.51897e-10
-2.92332e-10
-2.55687e-10
9.24595e-11
1.81377e-10
1.43405e-10
-6.79117e-10
-3.86699e-10
-2.45528e-10
2.83585e-12
-2.38115e-10
1.41585e-10