/*--------------------------------*- C++ -*----------------------------------*\
| =========                 |                                                 |
| \\      /  F ield         | OpenFOAM: The Open Source CFD Toolbox           |
|  \\    /   O peration     | Version:  5.0                                   |
|   \\  /    A nd           | Web:      www.OpenFOAM.org                      |
|    \\/     M anipulation  |                                                 |
\*---------------------------------------------------------------------------*/
FoamFile
{
    version     2.0;
    format      ascii;
    class       volScalarField;
    location    "4.6";
    object      rAU;
}
// * * * * * * * * * * * * * * * * * * * * * * * * * * * * * * * * * * * * * //

dimensions      [-1 3 1 0 0 0 0];

internalField   nonuniform List<scalar> 
8409
(
9.62204e-07
9.65161e-07
9.23262e-07
9.01463e-07
6.63616e-07
6.81483e-07
1.23864e-07
1.29815e-07
3.93454e-07
3.94697e-07
3.9573e-07
3.96763e-07
3.97794e-07
3.98826e-07
3.99856e-07
4.00886e-07
4.01915e-07
4.02943e-07
4.03971e-07
4.04998e-07
4.06024e-07
4.0705e-07
4.08075e-07
4.09099e-07
4.10122e-07
4.11145e-07
4.12166e-07
4.13187e-07
4.14208e-07
4.15227e-07
4.16246e-07
4.17264e-07
4.18281e-07
4.19297e-07
4.20313e-07
4.21328e-07
4.22342e-07
4.23355e-07
4.24367e-07
4.25379e-07
4.2639e-07
4.274e-07
4.28409e-07
4.29417e-07
4.30425e-07
4.31431e-07
4.32437e-07
4.33442e-07
4.34446e-07
4.36222e-07
8.7358e-07
9.559e-07
9.52765e-07
8.82217e-07
8.82696e-07
6.69108e-07
5.73617e-07
1.29627e-07
3.93453e-07
3.94696e-07
3.9573e-07
3.96763e-07
3.97794e-07
3.98826e-07
3.99856e-07
4.00886e-07
4.01915e-07
4.02943e-07
4.03971e-07
4.04998e-07
4.06024e-07
4.0705e-07
4.08075e-07
4.09099e-07
4.10122e-07
4.11145e-07
4.12166e-07
4.13187e-07
4.14208e-07
4.15227e-07
4.16246e-07
4.17264e-07
4.18281e-07
4.19297e-07
4.20313e-07
4.21328e-07
4.22342e-07
4.23355e-07
4.24367e-07
4.25379e-07
4.2639e-07
4.274e-07
4.28409e-07
4.29417e-07
4.30425e-07
4.31431e-07
4.32437e-07
4.33442e-07
4.34446e-07
4.36222e-07
6.52384e-07
8.57489e-07
9.52049e-07
8.90373e-07
8.77833e-07
6.68763e-07
6.99358e-07
3.53097e-08
3.93453e-07
3.94696e-07
3.9573e-07
3.96763e-07
3.97794e-07
3.98826e-07
3.99856e-07
4.00886e-07
4.01915e-07
4.02943e-07
4.03971e-07
4.04998e-07
4.06024e-07
4.0705e-07
4.08075e-07
4.09099e-07
4.10122e-07
4.11145e-07
4.12166e-07
4.13187e-07
4.14208e-07
4.15227e-07
4.16246e-07
4.17264e-07
4.18281e-07
4.19297e-07
4.20313e-07
4.21328e-07
4.22342e-07
4.23355e-07
4.24367e-07
4.25379e-07
4.2639e-07
4.274e-07
4.28409e-07
4.29417e-07
4.30425e-07
4.31431e-07
4.32437e-07
4.33442e-07
4.34446e-07
4.36222e-07
6.67596e-07
7.45466e-07
9.47322e-07
8.51577e-07
6.96559e-07
5.27308e-07
9.0325e-07
4.14182e-08
3.93319e-07
3.94696e-07
3.9573e-07
3.96763e-07
3.97794e-07
3.98826e-07
3.99856e-07
4.00886e-07
4.01915e-07
4.02943e-07
4.03971e-07
4.04998e-07
4.06024e-07
4.0705e-07
4.08075e-07
4.09099e-07
4.10122e-07
4.11145e-07
4.12166e-07
4.13187e-07
4.14208e-07
4.15227e-07
4.16246e-07
4.17264e-07
4.18281e-07
4.19297e-07
4.20313e-07
4.21328e-07
4.22342e-07
4.23355e-07
4.24367e-07
4.25379e-07
4.2639e-07
4.274e-07
4.28409e-07
4.29417e-07
4.30425e-07
4.31431e-07
4.32437e-07
4.33442e-07
4.34446e-07
4.36222e-07
8.81028e-07
8.06931e-07
7.4597e-07
8.76682e-07
8.81368e-07
6.77905e-07
9.02526e-07
1.65968e-07
1.30232e-07
3.94486e-07
3.9573e-07
3.96763e-07
3.97794e-07
3.98826e-07
3.99856e-07
4.00886e-07
4.01915e-07
4.02944e-07
4.03971e-07
4.04998e-07
4.06024e-07
4.0705e-07
4.08075e-07
4.09099e-07
4.10122e-07
4.11145e-07
4.12166e-07
4.13187e-07
4.14208e-07
4.15227e-07
4.16246e-07
4.17264e-07
4.18281e-07
4.19297e-07
4.20313e-07
4.21328e-07
4.22342e-07
4.23355e-07
4.24367e-07
4.25379e-07
4.2639e-07
4.274e-07
4.28409e-07
4.29417e-07
4.30425e-07
4.31431e-07
4.32437e-07
4.33442e-07
4.34446e-07
4.36222e-07
9.6299e-07
8.88081e-07
8.92489e-07
8.79468e-07
6.6346e-07
5.86531e-07
9.02527e-07
2.93069e-07
1.30176e-07
3.94486e-07
3.9573e-07
3.96763e-07
3.97794e-07
3.98826e-07
3.99856e-07
4.00886e-07
4.01915e-07
4.02943e-07
4.03971e-07
4.04998e-07
4.06024e-07
4.0705e-07
4.08075e-07
4.09099e-07
4.10122e-07
4.11145e-07
4.12166e-07
4.13187e-07
4.14208e-07
4.15227e-07
4.16246e-07
4.17264e-07
4.18281e-07
4.19297e-07
4.20313e-07
4.21328e-07
4.22342e-07
4.23355e-07
4.24367e-07
4.25379e-07
4.2639e-07
4.274e-07
4.28409e-07
4.29417e-07
4.30425e-07
4.31431e-07
4.32437e-07
4.33442e-07
4.34446e-07
4.36222e-07
9.60022e-07
9.48301e-07
6.67392e-07
9.52011e-07
8.581e-07
6.61117e-07
9.02024e-07
1.05846e-07
3.93318e-07
3.94696e-07
3.9573e-07
3.96762e-07
3.97794e-07
3.98826e-07
3.99856e-07
4.00886e-07
4.01915e-07
4.02943e-07
4.03971e-07
4.04998e-07
4.06024e-07
4.0705e-07
4.08075e-07
4.09099e-07
4.10122e-07
4.11145e-07
4.12166e-07
4.13187e-07
4.14208e-07
4.15227e-07
4.16246e-07
4.17264e-07
4.18281e-07
4.19297e-07
4.20313e-07
4.21328e-07
4.22342e-07
4.23355e-07
4.24367e-07
4.25379e-07
4.2639e-07
4.274e-07
4.28409e-07
4.29417e-07
4.30425e-07
4.31431e-07
4.32437e-07
4.33442e-07
4.34446e-07
4.36222e-07
9.64822e-07
9.52685e-07
8.73006e-07
8.95229e-07
8.96131e-07
6.82832e-07
9.02949e-07
3.66948e-08
3.93453e-07
3.94696e-07
3.9573e-07
3.96762e-07
3.97794e-07
3.98826e-07
3.99856e-07
4.00886e-07
4.01915e-07
4.02943e-07
4.03971e-07
4.04998e-07
4.06024e-07
4.0705e-07
4.08075e-07
4.09099e-07
4.10122e-07
4.11145e-07
4.12166e-07
4.13187e-07
4.14208e-07
4.15227e-07
4.16246e-07
4.17264e-07
4.18281e-07
4.19297e-07
4.20313e-07
4.21328e-07
4.22342e-07
4.23355e-07
4.24367e-07
4.25379e-07
4.2639e-07
4.274e-07
4.28409e-07
4.29417e-07
4.30425e-07
4.31431e-07
4.32437e-07
4.33442e-07
4.34446e-07
4.36222e-07
9.57454e-07
8.75599e-07
6.16826e-07
8.83113e-07
8.77871e-07
4.66755e-07
7.0096e-07
1.29444e-07
3.93453e-07
3.94696e-07
3.9573e-07
3.96762e-07
3.97794e-07
3.98826e-07
3.99856e-07
4.00886e-07
4.01915e-07
4.02943e-07
4.03971e-07
4.04998e-07
4.06024e-07
4.0705e-07
4.08075e-07
4.09099e-07
4.10122e-07
4.11145e-07
4.12166e-07
4.13187e-07
4.14208e-07
4.15227e-07
4.16246e-07
4.17264e-07
4.18281e-07
4.19297e-07
4.20313e-07
4.21328e-07
4.22342e-07
4.23355e-07
4.24367e-07
4.25379e-07
4.2639e-07
4.274e-07
4.28409e-07
4.29417e-07
4.30425e-07
4.31431e-07
4.32437e-07
4.33442e-07
4.34446e-07
4.36222e-07
9.62061e-07
8.81792e-07
6.32695e-07
8.71748e-07
8.84287e-07
6.88341e-07
5.91662e-07
1.29724e-07
3.93453e-07
3.94696e-07
3.9573e-07
3.96762e-07
3.97794e-07
3.98826e-07
3.99856e-07
4.00886e-07
4.01915e-07
4.02943e-07
4.03971e-07
4.04998e-07
4.06024e-07
4.0705e-07
4.08075e-07
4.09099e-07
4.10122e-07
4.11145e-07
4.12166e-07
4.13187e-07
4.14208e-07
4.15227e-07
4.16246e-07
4.17264e-07
4.18281e-07
4.19297e-07
4.20313e-07
4.21328e-07
4.22342e-07
4.23355e-07
4.24367e-07
4.25379e-07
4.2639e-07
4.274e-07
4.28409e-07
4.29417e-07
4.30425e-07
4.31431e-07
4.32437e-07
4.33442e-07
4.34446e-07
4.36222e-07
9.71498e-07
9.64377e-07
8.93078e-07
7.13207e-07
6.14513e-07
6.99137e-07
1.7558e-07
1.84132e-07
5.06038e-07
5.07526e-07
5.08664e-07
5.09802e-07
5.10937e-07
5.12071e-07
5.13203e-07
5.14334e-07
5.15462e-07
5.1659e-07
5.17716e-07
5.1884e-07
5.19963e-07
5.21084e-07
5.22202e-07
5.2332e-07
5.24437e-07
5.2555e-07
5.26663e-07
5.27775e-07
5.28884e-07
5.29992e-07
5.31098e-07
5.32202e-07
5.33305e-07
5.34407e-07
5.35506e-07
5.36604e-07
5.377e-07
5.38794e-07
5.39887e-07
5.40979e-07
5.42068e-07
5.43156e-07
5.44243e-07
5.45326e-07
5.4641e-07
5.47491e-07
5.4857e-07
5.49648e-07
5.50725e-07
5.53039e-07
8.86262e-07
9.58859e-07
9.67333e-07
8.96896e-07
8.73129e-07
6.5678e-07
6.36907e-07
1.83948e-07
5.06037e-07
5.07526e-07
5.08664e-07
5.09802e-07
5.10937e-07
5.12071e-07
5.13203e-07
5.14334e-07
5.15463e-07
5.1659e-07
5.17716e-07
5.1884e-07
5.19963e-07
5.21084e-07
5.22202e-07
5.2332e-07
5.24437e-07
5.2555e-07
5.26663e-07
5.27775e-07
5.28884e-07
5.29992e-07
5.31098e-07
5.32202e-07
5.33305e-07
5.34407e-07
5.35506e-07
5.36604e-07
5.377e-07
5.38794e-07
5.39887e-07
5.40979e-07
5.42068e-07
5.43156e-07
5.44243e-07
5.45326e-07
5.4641e-07
5.47491e-07
5.4857e-07
5.49648e-07
5.50725e-07
5.53039e-07
7.96544e-07
9.34144e-07
9.72807e-07
8.37569e-07
7.65507e-07
7.32864e-07
7.76361e-07
5.20134e-08
5.06038e-07
5.07526e-07
5.08664e-07
5.09802e-07
5.10938e-07
5.12071e-07
5.13203e-07
5.14334e-07
5.15462e-07
5.1659e-07
5.17716e-07
5.1884e-07
5.19963e-07
5.21084e-07
5.22202e-07
5.2332e-07
5.24437e-07
5.2555e-07
5.26663e-07
5.27775e-07
5.28884e-07
5.29992e-07
5.31098e-07
5.32202e-07
5.33305e-07
5.34407e-07
5.35506e-07
5.36604e-07
5.377e-07
5.38794e-07
5.39887e-07
5.40979e-07
5.42068e-07
5.43156e-07
5.44243e-07
5.45327e-07
5.4641e-07
5.47491e-07
5.4857e-07
5.49648e-07
5.50725e-07
5.53039e-07
9.15932e-07
8.343e-07
6.88178e-07
3.28058e-07
4.96055e-07
6.47148e-07
9.31793e-07
6.14318e-08
5.05815e-07
5.07526e-07
5.08665e-07
5.09802e-07
5.10938e-07
5.12071e-07
5.13203e-07
5.14334e-07
5.15463e-07
5.1659e-07
5.17716e-07
5.1884e-07
5.19963e-07
5.21084e-07
5.22202e-07
5.2332e-07
5.24437e-07
5.2555e-07
5.26663e-07
5.27775e-07
5.28883e-07
5.29992e-07
5.31098e-07
5.32202e-07
5.33305e-07
5.34407e-07
5.35506e-07
5.36604e-07
5.377e-07
5.38794e-07
5.39887e-07
5.40979e-07
5.42068e-07
5.43156e-07
5.44243e-07
5.45327e-07
5.4641e-07
5.47491e-07
5.4857e-07
5.49648e-07
5.50725e-07
5.53039e-07
8.8825e-07
3.39755e-07
8.27215e-07
7.78428e-07
7.63046e-07
6.84497e-07
9.30882e-07
2.31663e-07
1.84674e-07
5.07178e-07
5.08665e-07
5.09802e-07
5.10938e-07
5.12071e-07
5.13203e-07
5.14334e-07
5.15463e-07
5.1659e-07
5.17716e-07
5.1884e-07
5.19963e-07
5.21084e-07
5.22202e-07
5.2332e-07
5.24437e-07
5.2555e-07
5.26663e-07
5.27775e-07
5.28883e-07
5.29992e-07
5.31098e-07
5.32202e-07
5.33305e-07
5.34407e-07
5.35506e-07
5.36604e-07
5.377e-07
5.38794e-07
5.39887e-07
5.40979e-07
5.42068e-07
5.43156e-07
5.44243e-07
5.45327e-07
5.4641e-07
5.47491e-07
5.4857e-07
5.49648e-07
5.50725e-07
5.53039e-07
9.6259e-07
9.11048e-07
7.96558e-07
6.43397e-07
4.09265e-07
6.1818e-07
9.31443e-07
3.78388e-07
1.84555e-07
5.07177e-07
5.08664e-07
5.09802e-07
5.10938e-07
5.12071e-07
5.13203e-07
5.14334e-07
5.15462e-07
5.1659e-07
5.17716e-07
5.1884e-07
5.19963e-07
5.21084e-07
5.22202e-07
5.2332e-07
5.24437e-07
5.2555e-07
5.26663e-07
5.27775e-07
5.28884e-07
5.29992e-07
5.31098e-07
5.32202e-07
5.33305e-07
5.34407e-07
5.35506e-07
5.36604e-07
5.377e-07
5.38794e-07
5.39887e-07
5.40979e-07
5.42068e-07
5.43156e-07
5.44243e-07
5.45327e-07
5.4641e-07
5.47491e-07
5.4857e-07
5.49648e-07
5.50725e-07
5.53039e-07
9.6252e-07
9.11052e-07
6.31681e-07
8.54397e-07
8.65149e-07
7.34466e-07
9.30992e-07
1.5136e-07
5.05813e-07
5.07524e-07
5.08664e-07
5.09801e-07
5.10937e-07
5.12071e-07
5.13203e-07
5.14334e-07
5.15462e-07
5.1659e-07
5.17716e-07
5.1884e-07
5.19963e-07
5.21084e-07
5.22202e-07
5.2332e-07
5.24437e-07
5.2555e-07
5.26663e-07
5.27775e-07
5.28883e-07
5.29992e-07
5.31098e-07
5.32202e-07
5.33305e-07
5.34407e-07
5.35506e-07
5.36604e-07
5.377e-07
5.38794e-07
5.39887e-07
5.40979e-07
5.42068e-07
5.43156e-07
5.44243e-07
5.45327e-07
5.4641e-07
5.47491e-07
5.4857e-07
5.49648e-07
5.50725e-07
5.53039e-07
9.60576e-07
8.68432e-07
3.87437e-07
5.48055e-07
9.02027e-07
7.22882e-07
9.32031e-07
5.44395e-08
5.06036e-07
5.07525e-07
5.08664e-07
5.09801e-07
5.10937e-07
5.12071e-07
5.13203e-07
5.14334e-07
5.15462e-07
5.1659e-07
5.17716e-07
5.1884e-07
5.19963e-07
5.21084e-07
5.22202e-07
5.2332e-07
5.24437e-07
5.2555e-07
5.26663e-07
5.27775e-07
5.28883e-07
5.29992e-07
5.31098e-07
5.32202e-07
5.33305e-07
5.34407e-07
5.35506e-07
5.36604e-07
5.377e-07
5.38794e-07
5.39887e-07
5.40979e-07
5.42068e-07
5.43156e-07
5.44243e-07
5.45327e-07
5.4641e-07
5.47491e-07
5.4857e-07
5.49648e-07
5.50725e-07
5.53039e-07
9.63165e-07
8.29475e-07
7.74567e-07
8.74908e-07
4.79302e-07
5.37717e-07
7.75207e-07
1.83829e-07
5.06035e-07
5.07525e-07
5.08664e-07
5.09801e-07
5.10937e-07
5.12071e-07
5.13203e-07
5.14334e-07
5.15462e-07
5.1659e-07
5.17716e-07
5.1884e-07
5.19963e-07
5.21084e-07
5.22202e-07
5.2332e-07
5.24437e-07
5.2555e-07
5.26663e-07
5.27775e-07
5.28884e-07
5.29992e-07
5.31098e-07
5.32202e-07
5.33305e-07
5.34407e-07
5.35506e-07
5.36604e-07
5.377e-07
5.38794e-07
5.39887e-07
5.40979e-07
5.42068e-07
5.43156e-07
5.44243e-07
5.45327e-07
5.4641e-07
5.47491e-07
5.4857e-07
5.49648e-07
5.50725e-07
5.53039e-07
9.77468e-07
9.4963e-07
8.17836e-07
7.49567e-07
7.79523e-07
7.42156e-07
6.65355e-07
1.83948e-07
5.06037e-07
5.07526e-07
5.08664e-07
5.09802e-07
5.10937e-07
5.12071e-07
5.13203e-07
5.14334e-07
5.15462e-07
5.1659e-07
5.17716e-07
5.1884e-07
5.19963e-07
5.21084e-07
5.22202e-07
5.2332e-07
5.24437e-07
5.2555e-07
5.26663e-07
5.27775e-07
5.28884e-07
5.29992e-07
5.31098e-07
5.32202e-07
5.33305e-07
5.34407e-07
5.35506e-07
5.36604e-07
5.377e-07
5.38794e-07
5.39887e-07
5.40979e-07
5.42068e-07
5.43156e-07
5.44243e-07
5.45327e-07
5.4641e-07
5.47491e-07
5.4857e-07
5.49648e-07
5.50725e-07
5.53039e-07
9.61609e-07
9.68768e-07
9.42043e-07
7.37136e-07
6.66513e-07
6.96924e-07
1.74323e-07
1.84152e-07
3.93453e-07
3.94696e-07
3.9573e-07
3.96762e-07
3.97794e-07
3.98826e-07
3.99856e-07
4.00886e-07
4.01915e-07
4.02943e-07
4.03971e-07
4.04998e-07
4.06024e-07
4.0705e-07
4.08075e-07
4.09099e-07
4.10122e-07
4.11145e-07
4.12166e-07
4.13187e-07
4.14208e-07
4.15227e-07
4.16246e-07
4.17264e-07
4.18281e-07
4.19297e-07
4.20313e-07
4.21328e-07
4.22342e-07
4.23355e-07
4.24367e-07
4.25379e-07
4.2639e-07
4.274e-07
4.28409e-07
4.29417e-07
4.30425e-07
4.31431e-07
4.32437e-07
4.33442e-07
4.34446e-07
4.36222e-07
8.80392e-07
9.62033e-07
9.65514e-07
8.93505e-07
5.42764e-07
6.61561e-07
6.43234e-07
1.83953e-07
3.93453e-07
3.94696e-07
3.9573e-07
3.96762e-07
3.97794e-07
3.98826e-07
3.99856e-07
4.00886e-07
4.01915e-07
4.02943e-07
4.03971e-07
4.04998e-07
4.06024e-07
4.0705e-07
4.08075e-07
4.09099e-07
4.10122e-07
4.11145e-07
4.12166e-07
4.13187e-07
4.14208e-07
4.15227e-07
4.16246e-07
4.17264e-07
4.18281e-07
4.19297e-07
4.20313e-07
4.21328e-07
4.22342e-07
4.23355e-07
4.24367e-07
4.25379e-07
4.2639e-07
4.274e-07
4.28409e-07
4.29417e-07
4.30425e-07
4.31431e-07
4.32437e-07
4.33442e-07
4.34446e-07
4.36222e-07
2.0274e-07
9.64995e-07
9.63969e-07
8.12187e-07
8.50672e-07
7.24501e-07
7.77143e-07
5.20135e-08
3.93453e-07
3.94696e-07
3.9573e-07
3.96763e-07
3.97794e-07
3.98826e-07
3.99856e-07
4.00886e-07
4.01915e-07
4.02943e-07
4.03971e-07
4.04998e-07
4.06024e-07
4.0705e-07
4.08075e-07
4.09099e-07
4.10122e-07
4.11145e-07
4.12166e-07
4.13187e-07
4.14208e-07
4.15227e-07
4.16246e-07
4.17264e-07
4.18281e-07
4.19297e-07
4.20313e-07
4.21328e-07
4.22342e-07
4.23355e-07
4.24367e-07
4.25379e-07
4.2639e-07
4.274e-07
4.28409e-07
4.29417e-07
4.30425e-07
4.31431e-07
4.32437e-07
4.33442e-07
4.34446e-07
4.36222e-07
8.33578e-07
7.97667e-07
8.6865e-07
3.11022e-07
2.3374e-07
6.22846e-07
9.31928e-07
6.13598e-08
3.93319e-07
3.94696e-07
3.9573e-07
3.96763e-07
3.97794e-07
3.98826e-07
3.99856e-07
4.00886e-07
4.01915e-07
4.02943e-07
4.03971e-07
4.04998e-07
4.06024e-07
4.0705e-07
4.08075e-07
4.09099e-07
4.10122e-07
4.11145e-07
4.12166e-07
4.13187e-07
4.14208e-07
4.15227e-07
4.16246e-07
4.17264e-07
4.18281e-07
4.19297e-07
4.20313e-07
4.21328e-07
4.22342e-07
4.23355e-07
4.24367e-07
4.25379e-07
4.2639e-07
4.274e-07
4.28409e-07
4.29417e-07
4.30425e-07
4.31431e-07
4.32437e-07
4.33442e-07
4.34446e-07
4.36222e-07
9.20862e-07
3.48685e-07
7.62974e-07
5.46196e-07
4.41713e-07
6.72287e-07
9.30827e-07
2.31322e-07
1.84679e-07
3.94486e-07
3.9573e-07
3.96763e-07
3.97794e-07
3.98826e-07
3.99856e-07
4.00886e-07
4.01915e-07
4.02943e-07
4.03971e-07
4.04998e-07
4.06024e-07
4.0705e-07
4.08075e-07
4.09099e-07
4.10122e-07
4.11145e-07
4.12166e-07
4.13187e-07
4.14208e-07
4.15227e-07
4.16246e-07
4.17264e-07
4.18281e-07
4.19297e-07
4.20313e-07
4.21328e-07
4.22342e-07
4.23355e-07
4.24367e-07
4.25379e-07
4.2639e-07
4.274e-07
4.28409e-07
4.29417e-07
4.30425e-07
4.31431e-07
4.32437e-07
4.33442e-07
4.34446e-07
4.36222e-07
9.59979e-07
9.1432e-07
4.69919e-07
4.78527e-07
5.22514e-07
5.95789e-07
9.31412e-07
3.79736e-07
1.8456e-07
3.94486e-07
3.9573e-07
3.96763e-07
3.97794e-07
3.98826e-07
3.99856e-07
4.00886e-07
4.01915e-07
4.02943e-07
4.03971e-07
4.04998e-07
4.06024e-07
4.0705e-07
4.08075e-07
4.09099e-07
4.10122e-07
4.11145e-07
4.12166e-07
4.13187e-07
4.14208e-07
4.15227e-07
4.16246e-07
4.17264e-07
4.18281e-07
4.19297e-07
4.20313e-07
4.21328e-07
4.22342e-07
4.23355e-07
4.24367e-07
4.25379e-07
4.2639e-07
4.274e-07
4.28409e-07
4.29417e-07
4.30425e-07
4.31431e-07
4.32437e-07
4.33442e-07
4.34446e-07
4.36222e-07
9.62434e-07
8.35668e-07
5.68582e-07
8.12198e-07
8.19842e-07
7.23001e-07
9.3082e-07
1.51351e-07
3.93318e-07
3.94696e-07
3.9573e-07
3.96762e-07
3.97794e-07
3.98826e-07
3.99856e-07
4.00886e-07
4.01915e-07
4.02943e-07
4.03971e-07
4.04998e-07
4.06024e-07
4.0705e-07
4.08075e-07
4.09099e-07
4.10122e-07
4.11145e-07
4.12166e-07
4.13187e-07
4.14208e-07
4.15227e-07
4.16246e-07
4.17264e-07
4.18281e-07
4.19297e-07
4.20313e-07
4.21328e-07
4.22342e-07
4.23355e-07
4.24367e-07
4.25379e-07
4.2639e-07
4.274e-07
4.28409e-07
4.29417e-07
4.30425e-07
4.31431e-07
4.32437e-07
4.33442e-07
4.34446e-07
4.36222e-07
9.61372e-07
9.11716e-07
6.67724e-07
7.3312e-07
4.34898e-07
7.58645e-07
9.31948e-07
5.43676e-08
3.93453e-07
3.94696e-07
3.9573e-07
3.96762e-07
3.97794e-07
3.98826e-07
3.99856e-07
4.00886e-07
4.01915e-07
4.02943e-07
4.03971e-07
4.04998e-07
4.06024e-07
4.0705e-07
4.08075e-07
4.09099e-07
4.10122e-07
4.11145e-07
4.12166e-07
4.13187e-07
4.14208e-07
4.15227e-07
4.16246e-07
4.17264e-07
4.18281e-07
4.19297e-07
4.20313e-07
4.21328e-07
4.22342e-07
4.23355e-07
4.24367e-07
4.25379e-07
4.2639e-07
4.274e-07
4.28409e-07
4.29417e-07
4.30425e-07
4.31431e-07
4.32437e-07
4.33442e-07
4.34446e-07
4.36222e-07
9.60737e-07
9.18768e-07
4.98172e-07
8.1724e-07
7.73068e-07
5.59585e-07
7.74737e-07
1.83834e-07
3.93453e-07
3.94696e-07
3.9573e-07
3.96762e-07
3.97794e-07
3.98826e-07
3.99856e-07
4.00886e-07
4.01915e-07
4.02943e-07
4.03971e-07
4.04998e-07
4.06024e-07
4.0705e-07
4.08075e-07
4.09099e-07
4.10122e-07
4.11145e-07
4.12166e-07
4.13187e-07
4.14208e-07
4.15227e-07
4.16246e-07
4.17264e-07
4.18281e-07
4.19297e-07
4.20313e-07
4.21328e-07
4.22342e-07
4.23355e-07
4.24367e-07
4.25379e-07
4.2639e-07
4.274e-07
4.28409e-07
4.29417e-07
4.30425e-07
4.31431e-07
4.32437e-07
4.33442e-07
4.34446e-07
4.36222e-07
9.67431e-07
9.65989e-07
9.56017e-07
8.2331e-07
3.52908e-07
7.56736e-07
6.72484e-07
1.83953e-07
3.93453e-07
3.94696e-07
3.9573e-07
3.96762e-07
3.97794e-07
3.98826e-07
3.99856e-07
4.00886e-07
4.01915e-07
4.02943e-07
4.03971e-07
4.04998e-07
4.06024e-07
4.0705e-07
4.08075e-07
4.09099e-07
4.10122e-07
4.11145e-07
4.12166e-07
4.13187e-07
4.14208e-07
4.15227e-07
4.16246e-07
4.17264e-07
4.18281e-07
4.19297e-07
4.20313e-07
4.21328e-07
4.22342e-07
4.23355e-07
4.24367e-07
4.25379e-07
4.2639e-07
4.274e-07
4.28409e-07
4.29417e-07
4.30425e-07
4.31431e-07
4.32437e-07
4.33442e-07
4.34446e-07
4.36222e-07
6.97236e-07
6.78776e-07
6.98045e-07
7.0799e-07
7.72025e-07
7.4411e-07
7.66603e-07
6.99415e-07
6.81573e-07
7.00608e-07
6.93645e-07
7.73461e-07
7.12317e-07
7.75152e-07
7.00903e-07
6.01465e-07
7.00842e-07
7.35356e-07
7.75355e-07
6.34766e-07
7.77277e-07
7.01047e-07
6.54434e-07
6.98996e-07
6.42402e-07
7.75821e-07
6.74509e-07
7.70156e-07
6.97375e-07
5.59781e-07
7.00144e-07
6.91361e-07
7.7076e-07
5.1336e-07
7.734e-07
6.99832e-07
6.62385e-07
6.9934e-07
6.55342e-07
7.76213e-07
6.78028e-07
7.72437e-07
6.9882e-07
6.78464e-07
7.004e-07
7.28268e-07
7.65319e-07
6.6254e-07
7.74658e-07
7.00726e-07
5.42483e-07
7.00441e-07
7.27621e-07
7.77175e-07
4.82508e-07
7.76544e-07
7.00153e-07
6.79174e-07
6.97929e-07
5.51578e-07
7.75793e-07
7.25006e-07
7.69e-07
7.00586e-07
6.7819e-07
6.97714e-07
7.58962e-07
7.74341e-07
6.51144e-07
7.72173e-07
7.71082e-07
7.15785e-07
7.65975e-07
7.13997e-07
7.71031e-07
6.71652e-07
7.67765e-07
7.72847e-07
6.59127e-07
7.75502e-07
6.30673e-07
7.74179e-07
6.01262e-07
7.75671e-07
7.75684e-07
6.27283e-07
7.77367e-07
7.23617e-07
7.75554e-07
6.01359e-07
7.76787e-07
7.77383e-07
6.86376e-07
7.68565e-07
6.36645e-07
7.76987e-07
7.4815e-07
7.72016e-07
7.70631e-07
5.16318e-07
7.70727e-07
6.64969e-07
7.72197e-07
5.22375e-07
7.69241e-07
7.75769e-07
6.31704e-07
7.71721e-07
5.9746e-07
7.7579e-07
6.03367e-07
7.7556e-07
7.68589e-07
6.66054e-07
7.75372e-07
7.01603e-07
7.7371e-07
6.71143e-07
7.74624e-07
7.75916e-07
4.88778e-07
7.76162e-07
7.60512e-07
7.77105e-07
5.64379e-07
7.76011e-07
7.75573e-07
7.26206e-07
7.66424e-07
5.43975e-07
7.76128e-07
7.52974e-07
7.69639e-07
7.73866e-07
6.59979e-07
7.71454e-07
7.50764e-07
7.74181e-07
6.58734e-07
7.71843e-07
7.71018e-07
6.56737e-07
7.69744e-07
6.78728e-07
6.97301e-07
6.71819e-07
6.98002e-07
7.74535e-07
6.1956e-07
7.75789e-07
6.72527e-07
6.99572e-07
6.6452e-07
7.00569e-07
7.75784e-07
6.49722e-07
7.77172e-07
6.63298e-07
7.01008e-07
6.67141e-07
7.00892e-07
7.74782e-07
7.36337e-07
7.71044e-07
5.03733e-07
6.99096e-07
5.78573e-07
6.99393e-07
7.72198e-07
5.07323e-07
7.69443e-07
6.77563e-07
6.98894e-07
3.63857e-07
6.9974e-07
7.76098e-07
6.13322e-07
7.75017e-07
5.52358e-07
7.00025e-07
5.34832e-07
6.99406e-07
7.70414e-07
6.89315e-07
7.73015e-07
6.66958e-07
6.98331e-07
6.88783e-07
6.9881e-07
7.76113e-07
5.76797e-07
7.76072e-07
6.84804e-07
7.00675e-07
5.61086e-07
7.0055e-07
7.76e-07
7.32849e-07
7.71963e-07
4.63511e-07
7.00286e-07
6.90107e-07
6.98609e-07
7.74735e-07
6.57515e-07
7.71753e-07
6.89311e-07
7.00656e-07
6.50058e-07
6.97698e-07
8.87631e-07
8.78451e-07
8.73244e-07
6.5458e-07
8.17944e-07
8.1599e-07
7.93091e-07
7.56445e-07
6.95123e-07
6.7392e-07
7.26665e-07
7.2934e-07
6.93086e-07
7.69138e-07
1.29435e-07
2.77492e-07
3.52761e-08
1.73889e-07
1.8357e-07
3.66165e-07
5.19789e-08
8.7577e-07
6.85994e-07
7.32977e-07
8.95313e-07
8.90434e-07
5.86971e-07
6.20222e-07
7.27697e-07
6.92612e-07
6.34591e-07
7.55078e-07
7.63456e-07
6.4689e-07
6.81579e-07
3.52761e-08
7.00606e-07
3.51725e-08
6.41395e-07
5.1979e-08
7.76062e-07
5.20028e-08
7.39712e-07
6.6404e-07
5.10488e-07
6.08315e-07
3.02078e-07
6.87378e-07
4.65957e-07
7.7189e-07
6.97466e-07
5.70427e-07
6.93514e-07
7.74972e-07
7.09228e-07
6.95505e-07
3.56783e-08
6.99203e-07
9.0586e-08
7.76702e-07
5.28421e-08
7.76749e-07
1.29919e-07
3.32068e-07
8.78672e-07
8.864e-07
3.63743e-07
2.3087e-07
6.94981e-07
8.38785e-07
6.58848e-07
6.01139e-07
3.64905e-07
5.9295e-07
7.16538e-07
4.66089e-07
5.82081e-07
2.12963e-07
9.02036e-07
6.97742e-07
9.32053e-07
2.8723e-07
9.31149e-07
7.7238e-07
6.53647e-07
6.65606e-07
1.25281e-07
9.22662e-07
4.42141e-07
2.39355e-07
1.81497e-07
7.38354e-07
6.95382e-07
6.4919e-07
6.98618e-07
7.66801e-07
6.52384e-07
6.79496e-07
6.99153e-07
9.02453e-07
7.01024e-07
9.32098e-07
7.74793e-07
9.31385e-07
7.75876e-07
4.02497e-07
8.78616e-07
8.0226e-07
4.37434e-07
3.87114e-07
8.92497e-07
8.78692e-07
7.59363e-07
6.98752e-07
6.69082e-07
6.74443e-07
7.7228e-07
7.43928e-07
6.94242e-07
7.00482e-07
9.02233e-07
6.99178e-07
9.31728e-07
7.75816e-07
9.31831e-07
7.74593e-07
7.18382e-07
8.41598e-07
8.57044e-07
8.01013e-07
7.91887e-07
9.10492e-07
8.94236e-07
7.54476e-07
6.98264e-07
6.51811e-07
7.28137e-07
7.70127e-07
7.14857e-07
6.91355e-07
6.97401e-07
9.02671e-07
2.40169e-07
9.30617e-07
7.71781e-07
9.31873e-07
3.19391e-07
8.05515e-07
6.84899e-07
6.47712e-07
8.29025e-07
5.03029e-07
3.8321e-07
4.21436e-07
7.58239e-07
6.9829e-07
6.99323e-07
7.159e-07
7.71366e-07
6.88013e-07
6.94207e-07
1.03463e-07
6.99522e-07
3.66575e-08
9.3208e-07
1.47348e-07
7.75813e-07
5.46546e-08
7.38549e-07
8.61365e-07
8.12343e-07
7.23646e-07
4.60676e-07
8.02974e-07
8.50484e-07
7.23326e-07
6.84201e-07
4.55971e-07
5.58234e-07
7.46686e-07
5.51964e-07
6.64355e-07
3.52394e-08
6.92357e-07
3.52098e-08
7.74589e-07
5.20707e-08
7.68997e-07
5.198e-08
8.9081e-07
8.70339e-07
8.90222e-07
7.79466e-07
6.96902e-07
8.91696e-07
8.9992e-07
7.71742e-07
6.96002e-07
6.53104e-07
7.33941e-07
7.68613e-07
6.52071e-07
6.99596e-07
3.52761e-08
1.35415e-07
1.29442e-07
6.69795e-07
5.19791e-08
1.89166e-07
1.83582e-07
7.50112e-07
6.44714e-07
5.70765e-07
4.85677e-07
7.4896e-07
5.79465e-07
7.44495e-07
7.16512e-07
7.63994e-07
6.93813e-07
7.03829e-07
7.22482e-07
6.99231e-07
7.6515e-07
1.83567e-07
3.64865e-07
5.19783e-08
1.77257e-07
1.83567e-07
3.68768e-07
5.19783e-08
8.50926e-07
3.77021e-07
5.339e-07
7.63463e-07
8.07232e-07
8.393e-07
8.2234e-07
6.50484e-07
7.58273e-07
5.42003e-07
6.59484e-07
6.47038e-07
7.50743e-07
5.60293e-07
5.19784e-08
7.75662e-07
5.20025e-08
6.38495e-07
5.19785e-08
7.75702e-07
5.20024e-08
2.25758e-07
7.18946e-07
3.64082e-07
6.67005e-07
6.87491e-07
2.81311e-07
3.64733e-07
7.6924e-07
7.71425e-07
7.17972e-07
7.43575e-07
7.71217e-07
7.65321e-07
7.14567e-07
5.28959e-08
7.76697e-07
1.29906e-07
7.76697e-07
5.28959e-08
7.76156e-07
1.29808e-07
2.18683e-07
3.7334e-07
8.60563e-07
3.42555e-07
2.47974e-07
3.38977e-07
7.89515e-07
7.04131e-07
7.64525e-07
6.08449e-07
6.51421e-07
6.89347e-07
7.55982e-07
6.52686e-07
2.87386e-07
9.31549e-07
7.72258e-07
9.31761e-07
2.87187e-07
9.31412e-07
7.72313e-07
7.18641e-07
2.69781e-07
1.96052e-07
4.77309e-07
3.36131e-07
2.2587e-07
2.01371e-07
6.66569e-07
7.4953e-07
6.25122e-07
6.8198e-07
6.69012e-07
7.49705e-07
5.75523e-07
7.74539e-07
9.31129e-07
7.75715e-07
9.31612e-07
7.74479e-07
9.31089e-07
7.75727e-07
2.75813e-07
8.86954e-07
8.25e-07
4.34443e-07
4.65583e-07
9.06782e-07
7.62901e-07
7.34684e-07
7.68942e-07
7.17459e-07
5.76118e-07
7.37872e-07
7.6305e-07
7.04683e-07
7.75407e-07
9.31528e-07
7.74366e-07
9.31136e-07
7.75717e-07
9.31336e-07
7.74277e-07
8.70221e-07
7.68795e-07
7.97541e-07
8.58299e-07
8.77946e-07
9.90508e-08
9.10588e-07
7.38149e-07
7.68127e-07
6.07399e-07
6.54755e-07
7.4177e-07
7.66859e-07
5.83791e-07
7.71595e-07
9.3195e-07
3.19729e-07
9.31167e-07
7.71872e-07
9.31943e-07
3.1959e-07
4.39861e-07
4.31067e-07
2.41398e-07
5.06443e-07
8.21229e-07
6.87734e-07
1.46103e-07
7.54434e-07
7.55995e-07
5.39309e-07
7.22705e-07
7.53275e-07
7.52644e-07
5.4021e-07
1.47316e-07
7.75738e-07
5.47116e-08
9.31855e-07
1.47346e-07
7.75454e-07
5.47077e-08
2.95787e-07
3.42662e-07
5.29285e-07
5.64984e-07
1.72493e-07
6.97695e-07
5.60516e-07
6.90773e-07
7.43133e-07
6.39288e-07
5.51283e-07
7.13723e-07
7.38389e-07
5.7535e-07
5.20764e-08
7.68048e-07
5.19796e-08
7.75065e-07
5.20765e-08
7.67457e-07
5.19796e-08
5.0054e-07
9.01196e-07
8.4065e-07
4.60923e-07
5.81797e-07
7.79539e-07
8.4898e-07
7.63359e-07
7.62237e-07
6.96267e-07
7.40403e-07
7.70852e-07
7.65574e-07
7.22092e-07
5.19785e-08
1.93312e-07
1.8358e-07
6.6688e-07
5.19785e-08
1.89697e-07
1.8358e-07
7.83033e-07
4.29669e-07
5.79886e-07
6.74224e-07
6.76863e-07
5.93126e-07
4.28475e-07
7.32762e-07
7.69073e-07
6.09201e-07
7.29848e-07
7.26136e-07
5.72575e-07
7.70625e-07
1.83569e-07
3.71396e-07
5.19789e-08
1.2401e-07
1.29436e-07
2.77013e-07
3.52761e-08
6.42964e-07
9.17147e-07
7.96889e-07
4.68277e-07
5.89693e-07
2.09617e-07
1.85205e-07
6.79012e-07
7.57294e-07
4.18216e-07
6.56309e-07
6.59696e-07
7.59903e-07
4.32161e-07
5.1979e-08
7.75878e-07
5.20027e-08
5.88503e-07
3.5255e-08
7.00632e-07
3.51725e-08
8.25765e-07
4.04234e-07
3.05599e-07
8.5618e-07
8.4399e-07
6.90439e-07
5.5529e-07
7.64287e-07
7.73597e-07
6.36319e-07
7.32865e-07
7.65862e-07
7.67919e-07
6.22654e-07
5.28437e-08
7.76874e-07
1.29785e-07
7.00458e-07
3.55797e-08
6.99172e-07
9.05035e-08
2.56015e-07
3.62262e-07
8.08987e-07
6.04911e-07
6.38832e-07
6.55235e-07
7.21889e-07
7.05385e-07
7.46487e-07
6.50328e-07
5.90904e-07
6.9944e-07
7.38826e-07
6.49062e-07
2.87536e-07
9.31505e-07
7.72288e-07
9.03062e-07
2.12578e-07
9.02434e-07
6.97722e-07
6.27705e-07
2.33243e-07
1.99737e-07
2.14141e-07
8.00257e-07
2.08326e-07
5.2276e-07
6.64936e-07
7.57626e-07
5.97036e-07
6.86287e-07
6.63966e-07
7.62762e-07
5.7905e-07
7.74769e-07
9.31302e-07
7.75967e-07
9.02479e-07
6.99228e-07
9.0248e-07
7.01005e-07
5.33358e-07
8.70408e-07
7.25223e-07
6.29898e-07
7.51067e-07
8.22398e-07
5.57549e-07
7.60992e-07
7.44553e-07
6.79281e-07
6.08838e-07
7.52282e-07
7.52615e-07
6.69404e-07
7.76049e-07
9.31543e-07
7.7444e-07
9.02431e-07
7.00583e-07
9.02345e-07
6.99105e-07
8.11741e-07
1.14725e-07
8.66312e-07
8.44482e-07
6.85947e-07
1.05624e-07
8.48102e-07
7.3393e-07
7.65926e-07
6.535e-07
6.99716e-07
7.29961e-07
7.68299e-07
6.96326e-07
7.72145e-07
9.32108e-07
3.1959e-07
9.02081e-07
6.97452e-07
9.02644e-07
2.40178e-07
8.25177e-07
5.18525e-07
1.62689e-07
2.63718e-07
8.30485e-07
7.42432e-07
6.32402e-07
7.60839e-07
7.58157e-07
6.06278e-07
7.46913e-07
7.65339e-07
7.60838e-07
6.06489e-07
1.47398e-07
7.75567e-07
5.46498e-08
9.02975e-07
1.03303e-07
6.98359e-07
3.66571e-08
1.70307e-07
5.12901e-07
4.89264e-07
7.6922e-07
6.38406e-07
6.42533e-07
3.77151e-07
6.75619e-07
7.3867e-07
3.75873e-07
5.66629e-07
6.54186e-07
7.40363e-07
3.54992e-07
5.20706e-08
7.67464e-07
5.19799e-08
7.0099e-07
3.51718e-08
6.88738e-07
3.52108e-08
5.38408e-07
7.75808e-07
8.98176e-07
4.53008e-07
5.51297e-07
7.16771e-07
8.69951e-07
7.64784e-07
7.65629e-07
7.10694e-07
7.51386e-07
7.64026e-07
7.68397e-07
6.84093e-07
5.1979e-08
1.89549e-07
1.83582e-07
6.08131e-07
3.52761e-08
1.35623e-07
1.29442e-07
7.72838e-07
6.99705e-07
6.97627e-07
7.73164e-07
7.72929e-07
6.98976e-07
7.74855e-07
7.59574e-07
6.64263e-07
6.89062e-07
7.55737e-07
6.94497e-07
7.56598e-07
6.87017e-07
7.70724e-07
6.97701e-07
6.96298e-07
7.7156e-07
7.72753e-07
7.70409e-07
6.96552e-07
7.42267e-07
7.26843e-07
7.66526e-07
7.1013e-07
7.04659e-07
7.30587e-07
7.67916e-07
7.696e-07
7.73022e-07
7.71439e-07
7.72655e-07
7.72692e-07
7.67391e-07
7.73037e-07
7.54713e-07
7.6384e-07
6.71186e-07
7.45481e-07
6.89205e-07
7.49011e-07
7.56667e-07
7.70219e-07
7.68696e-07
7.72543e-07
7.68068e-07
7.72394e-07
7.67606e-07
7.68881e-07
7.73291e-07
6.98183e-07
6.99816e-07
7.7546e-07
7.73503e-07
7.76085e-07
7.0017e-07
7.54471e-07
6.97501e-07
6.92323e-07
6.95756e-07
7.05622e-07
7.59317e-07
6.90258e-07
7.71937e-07
7.00389e-07
7.00145e-07
7.76529e-07
7.77129e-07
7.75255e-07
6.98774e-07
7.03824e-07
7.48257e-07
7.60412e-07
5.9865e-07
7.60704e-07
6.25601e-07
6.77061e-07
7.73748e-07
7.74456e-07
7.71022e-07
7.75464e-07
7.72536e-07
7.75741e-07
7.71238e-07
7.50936e-07
7.22581e-07
6.1272e-07
7.56713e-07
6.10182e-07
7.57187e-07
7.4482e-07
7.66616e-07
7.75475e-07
7.77295e-07
7.74911e-07
7.77066e-07
7.7409e-07
7.66668e-07
7.72454e-07
7.00573e-07
7.00761e-07
7.76879e-07
7.74696e-07
7.77016e-07
6.99007e-07
7.60229e-07
3.47405e-07
6.9703e-07
6.88206e-07
4.29154e-07
7.70859e-07
6.92409e-07
7.7374e-07
7.00663e-07
6.99207e-07