/*--------------------------------*- C++ -*----------------------------------*\
| =========                 |                                                 |
| \\      /  F ield         | OpenFOAM: The Open Source CFD Toolbox           |
|  \\    /   O peration     | Version:  5.0                                   |
|   \\  /    A nd           | Web:      www.OpenFOAM.org                      |
|    \\/     M anipulation  |                                                 |
\*---------------------------------------------------------------------------*/
FoamFile
{
    version     2.0;
    format      ascii;
    class       volVectorField;
    location    "4.6";
    object      U;
}
// * * * * * * * * * * * * * * * * * * * * * * * * * * * * * * * * * * * * * //

dimensions      [0 1 -1 0 0 0 0];

internalField   nonuniform List<vector> 
8409
(
(0.00412224 0.00619716 -0.000119447)
(0.00144776 0.00261001 0.000112303)
(0.00326573 0.00134167 0.000795864)
(-0.000761294 -0.00246943 3.01699e-07)
(0.00366002 0.00091506 0.000863884)
(-0.00463872 0.00810122 -6.71623e-07)
(0.000958993 -2.49709e-05 -8.68692e-07)
(0.000448082 -7.58352e-06 -1.37891e-07)
(0.000881021 -1.89012e-05 -1.56138e-06)
(0.000825576 -1.05e-05 -3.61916e-07)
(0.000835714 -5.30707e-06 2.06256e-07)
(0.00083133 -2.73275e-06 5.78869e-08)
(0.000830373 -1.18258e-06 1.99721e-08)
(0.000828197 -2.58052e-07 7.85742e-08)
(0.000825696 -1.88192e-07 3.84413e-08)
(0.000824043 8.8866e-09 2.50964e-08)
(0.000822427 -2.01478e-07 5.61325e-08)
(0.000820587 -1.58005e-07 1.02056e-07)
(0.000818965 -1.71085e-07 7.43838e-08)
(0.000817475 -1.75091e-07 7.92474e-08)
(0.000815945 -1.55841e-07 7.05033e-08)
(0.000814235 4.7226e-09 3.75177e-08)
(0.000812597 -1.84205e-07 3.40299e-08)
(0.000811061 -3.48597e-08 4.74888e-08)
(0.00080947 1.53128e-07 -3.01819e-08)
(0.000807972 2.56747e-07 6.97859e-08)
(0.000806416 2.78077e-07 5.83025e-08)
(0.000804922 1.09678e-07 5.07266e-08)
(0.000803217 2.10365e-07 3.05102e-08)
(0.000801644 -1.49878e-07 7.26718e-08)
(0.000800087 -3.9513e-07 8.26831e-08)
(0.000798333 -4.31679e-07 -6.21809e-08)
(0.000796932 -1.9501e-07 5.01217e-08)
(0.000795789 2.69855e-08 8.2478e-08)
(0.000794345 1.37436e-07 5.77158e-08)
(0.00079263 2.07936e-08 4.64402e-08)
(0.000790897 -1.72451e-07 3.26723e-08)
(0.000788992 1.87809e-07 3.98338e-08)
(0.000788184 6.27501e-07 1.02675e-07)
(0.000787236 2.13246e-07 1.44044e-07)
(0.000785363 -1.10576e-08 2.86384e-08)
(0.000783917 -1.1469e-07 7.29972e-08)
(0.000782782 -4.34066e-07 7.15111e-08)
(0.000780794 -5.02145e-07 -5.73746e-09)
(0.000779028 -2.43905e-07 3.9752e-08)
(0.000777869 -1.20613e-07 8.04822e-09)
(0.000776456 -1.87527e-07 4.56493e-08)
(0.000775201 -1.90288e-07 6.37898e-08)
(0.000773573 -4.05399e-07 4.06035e-08)
(0.000771966 -3.50068e-07 1.3714e-08)
(0.00514158 0.000887342 0.000447081)
(0.00280349 -0.00225821 -0.000502743)
(0.00439584 -0.0053817 0.000454095)
(-0.00967309 -0.0104449 0.00137734)
(0.0164058 -0.00693845 -0.000113145)
(-0.00683759 0.0111587 -0.000601918)
(0.00183193 0.000727307 0.000134234)
(0.000500425 -3.4921e-05 -1.2483e-06)
(0.000917099 -1.34972e-05 -1.53909e-06)
(0.000837621 -3.71631e-06 -4.94902e-07)
(0.000842234 -2.44501e-06 1.31059e-07)
(0.00083475 -1.01653e-06 3.19188e-08)
(0.000831485 -3.43701e-07 4.77042e-08)
(0.000828366 -3.12494e-07 3.96673e-08)
(0.000826241 -2.5811e-08 4.98967e-08)
(0.000824109 1.51228e-07 3.26886e-08)
(0.000822142 3.955e-07 5.64281e-08)
(0.000820728 4.92872e-07 7.9957e-08)
(0.00081913 6.54332e-07 6.71709e-08)
(0.000817453 3.69065e-07 3.00533e-08)
(0.00081584 2.66663e-07 4.43493e-08)
(0.000814016 1.85254e-07 3.74932e-08)
(0.000812508 4.50762e-07 8.06366e-08)
(0.000811366 2.94039e-07 4.72195e-08)
(0.000809754 1.24387e-07 7.03555e-08)
(0.000807915 4.0156e-08 3.94837e-08)
(0.00080622 -5.41839e-08 3.83804e-08)
(0.000804836 -1.10671e-07 4.97975e-08)
(0.000803064 -4.46726e-07 8.00491e-08)
(0.000801236 -2.70501e-07 5.34502e-08)
(0.000799976 -1.99049e-07 -9.4346e-08)
(0.000798644 -2.34327e-08 8.88706e-09)
(0.0007974 5.00659e-07 1.3952e-07)
(0.000796022 5.14059e-07 9.96267e-08)
(0.000794208 1.56586e-07 4.73849e-08)
(0.000792637 1.57483e-07 5.30284e-08)
(0.000791313 1.82044e-07 4.32429e-08)
(0.000790089 4.07525e-07 9.98996e-09)
(0.000788086 7.93255e-07 -5.26437e-10)
(0.000786056 4.03458e-07 3.27514e-07)
(0.000784844 1.48229e-07 6.12323e-08)
(0.000783377 -4.06597e-08 7.04542e-08)
(0.000781846 -3.39317e-07 9.15363e-08)
(0.000780991 -6.18759e-07 1.15581e-07)
(0.000779754 -1.71257e-07 6.1448e-08)
(0.000777874 -1.26118e-07 6.28891e-08)
(0.000776514 9.99414e-08 1.47261e-07)
(0.000775133 -1.70338e-08 -1.88474e-08)
(0.000773604 -1.24382e-07 3.96134e-08)
(0.000772539 -1.86684e-07 1.10253e-07)
(0.0246783 0.0283516 -0.00628209)
(-0.0188992 0.0150928 0.0020397)
(0.00226302 0.00198212 -0.00021846)
(-0.00751239 0.0115192 -4.50956e-05)
(0.00451622 0.00558833 0.00163991)
(0.00329314 0.000577447 0.00021971)
(0.000489206 -0.000371233 1.85474e-05)
(0.000270539 6.82418e-06 7.08714e-07)
(0.000882389 5.32757e-08 -2.67952e-06)
(0.000839403 7.43957e-06 -1.6116e-07)
(0.000839088 2.80661e-06 1.03925e-07)
(0.000833954 2.3294e-06 5.66709e-08)
(0.000831249 1.02062e-06 4.18578e-08)
(0.00082859 5.78168e-07 5.14367e-08)
(0.000826272 4.06858e-07 5.37078e-08)
(0.000824566 1.78723e-07 5.39694e-08)
(0.00082285 1.85727e-07 4.04823e-08)
(0.000820906 2.15074e-07 7.73259e-08)
(0.000818806 7.87168e-08 9.67188e-08)
(0.000816986 1.72265e-07 4.16732e-08)
(0.000815712 1.88081e-07 5.08833e-08)
(0.000814461 1.51149e-07 4.93428e-08)
(0.000812729 3.31222e-07 1.86506e-08)
(0.000810649 1.66314e-07 3.42182e-08)
(0.00080915 5.054e-08 4.98106e-08)
(0.000807747 -3.21593e-08 5.65045e-08)
(0.000806228 -5.60685e-08 7.02621e-08)
(0.000804434 -5.9743e-08 5.85023e-08)
(0.000803021 -1.91376e-07 1.59128e-08)
(0.000801958 3.26432e-07 2.29121e-08)
(0.000800398 4.426e-07 2.58656e-07)
(0.000799207 5.09084e-07 5.31514e-08)
(0.000797601 4.48002e-07 1.75558e-09)
(0.000795355 1.70958e-07 4.41518e-09)
(0.000793896 -7.77638e-09 1.07765e-07)
(0.00079266 7.19969e-08 5.17676e-08)
(0.000791208 6.72917e-09 6.03052e-08)
(0.000789752 -7.28344e-08 5.558e-08)
(0.000788174 -3.05818e-07 2.28462e-08)
(0.000786426 -1.67738e-07 8.06771e-08)
(0.000784806 -4.26395e-08 5.3821e-08)
(0.000783308 4.1398e-08 6.26088e-08)
(0.000782063 3.30989e-07 1.26222e-07)
(0.000781007 5.06376e-07 8.46168e-08)
(0.000779648 1.93038e-07 8.28639e-08)
(0.000778209 2.07603e-07 1.12858e-07)
(0.000776593 3.9278e-07 2.08357e-08)
(0.000774922 4.34567e-07 7.91878e-08)
(0.000773367 2.28971e-07 4.74328e-08)
(0.000772352 1.31265e-07 1.18389e-07)
(-0.0332232 -0.0393523 0.00317214)
(-0.00247717 -0.00394032 0.00190435)
(-0.0103624 0.0111532 -0.000284141)
(0.00487051 0.00139949 0.00106515)
(0.0180498 -0.001095 0.000808539)
(0.00263437 0.00306648 0.000228191)
(0.000971479 -0.00101341 -2.05511e-05)
(0.00046866 -0.000170322 4.83383e-05)
(0.000871971 -1.01022e-05 -2.2374e-06)
(0.000840941 2.40482e-05 -1.70006e-07)
(0.000835811 5.72589e-06 3.9721e-08)
(0.0008325 4.74924e-06 3.25128e-08)
(0.000829283 2.31092e-06 4.94097e-08)
(0.000827592 1.432e-06 5.72763e-08)
(0.000825738 9.2823e-07 5.03998e-08)
(0.00082383 6.13515e-07 4.95653e-08)
(0.000822186 1.09573e-07 5.96526e-08)
(0.000820593 -1.23708e-07 6.87542e-08)
(0.000819075 -3.30236e-07 2.66396e-08)
(0.000817589 -1.75604e-07 2.74862e-08)
(0.000815812 -5.54117e-08 7.46006e-08)
(0.000814193 -9.03754e-08 4.89491e-08)
(0.000812525 -2.73666e-07 -6.10556e-09)
(0.000811013 -8.65447e-08 5.57951e-08)
(0.000809504 8.35651e-08 2.85262e-08)
(0.000807781 1.86922e-07 3.12591e-08)
(0.000806185 3.08242e-07 6.41142e-08)
(0.000804666 4.17519e-07 6.0589e-08)
(0.000803545 7.52557e-07 -6.78656e-09)
(0.000802025 3.35458e-07 5.08348e-08)
(0.000800199 3.41762e-07 1.9714e-08)
(0.000798645 4.78283e-07 2.0862e-08)
(0.000796973 -1.01913e-07 1.04604e-07)
(0.00079545 -1.12776e-07 5.23828e-08)
(0.000794083 6.03827e-08 4.95085e-08)
(0.000792654 8.33565e-09 4.60002e-08)
(0.000791132 -3.33014e-08 7.02996e-08)
(0.000789699 -1.46814e-07 4.24637e-08)
(0.000787968 -3.56471e-07 1.56653e-08)
(0.000786386 -4.00615e-07 -6.46573e-09)
(0.000785105 -1.6002e-07 -4.74685e-08)
(0.000783842 1.77595e-08 1.70497e-07)
(0.000782424 1.31564e-07 1.99348e-07)
(0.000780814 1.07022e-07 3.50948e-08)
(0.000779376 -2.26989e-08 -4.5627e-08)
(0.000778121 1.00179e-09 4.46542e-08)
(0.000776794 2.69573e-08 7.12947e-08)
(0.000774926 2.88362e-07 5.12147e-08)
(0.000773221 1.56809e-07 4.96514e-08)
(0.000772089 2.50648e-07 1.60183e-07)
(-0.00339239 0.00440786 0.000899537)
(0.00737245 -0.0161185 -0.00454661)
(-0.000645174 -0.00937806 0.000926398)
(0.00361222 -0.00310537 0.000344751)
(0.00155829 -0.00720588 0.000216627)
(-0.00169076 -0.00120198 1.52716e-05)
(0.000389654 -0.00040433 -9.64785e-06)
(0.00122128 7.86223e-05 -9.81454e-07)
(0.000476467 1.79947e-06 -9.57336e-07)
(0.00088413 2.0597e-05 -1.2975e-06)
(0.000814962 5.22986e-06 -5.02254e-07)
(0.000829659 3.5532e-06 2.16487e-07)
(0.000827084 2.1615e-06 9.73819e-08)
(0.000826853 1.20261e-06 6.02551e-08)
(0.000825243 5.70028e-07 4.29442e-08)
(0.000823539 2.68976e-07 3.33867e-08)
(0.000821927 2.91111e-07 5.14396e-08)
(0.000820357 1.33049e-07 5.52349e-08)
(0.000818743 1.85676e-07 5.84035e-08)
(0.000817332 1.48039e-07 7.49408e-08)
(0.00081582 -1.34749e-08 6.48988e-08)
(0.00081419 6.67716e-08 9.65608e-08)
(0.000812736 3.13965e-08 1.9823e-07)
(0.000811097 1.31696e-07 1.11435e-07)
(0.000809492 4.4436e-08 7.1754e-08)
(0.000808027 -2.21107e-09 6.75513e-08)
(0.000806513 2.27669e-07 6.84628e-08)
(0.000804983 4.1292e-07 3.12727e-08)
(0.000802912 6.42077e-07 2.91144e-08)
(0.000801437 7.18856e-07 5.38496e-08)
(0.000800571 3.11952e-07 7.73054e-08)
(0.000798648 -1.06989e-07 3.59968e-08)
(0.00079686 8.20043e-09 5.17906e-08)
(0.000795557 4.04578e-08 5.05391e-08)
(0.000794047 7.20142e-08 4.83728e-08)
(0.000792542 -7.05788e-08 4.79368e-08)
(0.000791014 -1.5208e-07 -1.10931e-07)
(0.00078935 -2.19937e-07 6.89732e-08)
(0.000787859 -2.61971e-07 4.44683e-08)
(0.000786675 -2.24134e-07 -1.76765e-07)
(0.00078533 -7.4608e-08 5.94692e-08)
(0.000783672 -3.16308e-08 9.75199e-08)
(0.000782172 -1.04064e-07 1.26855e-08)
(0.000780812 -1.26532e-07 7.79458e-08)
(0.000779514 -1.61244e-07 1.95897e-07)
(0.000778271 -2.65388e-07 4.9668e-08)
(0.000776952 -5.58167e-07 1.06664e-08)
(0.000775083 -9.10573e-07 4.39811e-08)
(0.000773314 -3.44298e-07 6.67642e-08)
(0.000771846 2.03741e-08 5.31867e-08)
(0.00335471 0.00391957 0.000164089)
(-0.00361977 -0.00396762 0.000107325)
(-0.0146049 0.0124867 0.000210425)
(-0.0101941 -0.00122021 0.000324146)
(-0.00455104 0.000259116 -0.000228533)
(-0.00757898 0.00120687 0.00014207)
(0.00148128 -0.000311578 4.59106e-06)
(0.00135737 -6.92416e-05 2.67338e-05)
(0.000485789 -2.21123e-06 7.61384e-07)
(0.000877472 -1.12997e-05 -1.2068e-06)
(0.000814375 1.58946e-06 -4.72609e-07)
(0.00082865 3.5695e-07 1.59012e-07)
(0.000826336 8.21019e-07 6.53099e-08)
(0.000825598 4.48257e-07 5.49034e-08)
(0.000824569 2.20018e-07 7.56463e-08)
(0.000823481 2.49566e-08 8.29066e-08)
(0.000822015 1.05274e-08 5.28976e-08)
(0.00082046 7.9281e-08 6.3938e-08)
(0.000819093 -8.82335e-10 2.63933e-08)
(0.000817339 1.51642e-07 7.22921e-08)
(0.00081571 1.41433e-07 -6.35528e-08)
(0.000814249 1.39121e-07 6.57004e-08)
(0.000812606 1.18477e-07 4.85702e-08)
(0.00081103 5.93169e-08 6.54006e-08)
(0.000809337 1.4191e-07 6.03661e-08)
(0.000808009 1.62818e-07 2.45365e-08)
(0.000806702 7.47204e-09 4.05202e-08)
(0.000805181 -7.59885e-08 1.32691e-08)
(0.000803923 1.5268e-07 2.25165e-08)
(0.000801609 1.16345e-07 -1.36229e-07)
(0.000799164 -1.25593e-07 1.9895e-08)
(0.000798264 -2.92204e-07 -2.03211e-08)
(0.000797157 -1.74185e-07 1.53142e-08)
(0.000795529 -1.49374e-07 -6.00265e-08)
(0.000793944 -1.9009e-07 6.36987e-08)
(0.000792375 -1.28933e-07 4.50571e-08)
(0.000790946 -1.19668e-07 7.00977e-09)
(0.000789564 -5.5666e-08 6.6071e-08)
(0.000787966 1.03623e-07 7.07122e-08)
(0.000786622 1.43018e-07 6.07866e-08)
(0.000785347 9.61897e-08 5.8427e-08)
(0.000783806 5.29982e-08 1.13319e-08)
(0.000782307 1.01939e-07 7.46154e-08)
(0.000780745 7.97418e-08 3.31443e-08)
(0.000779205 1.69387e-09 4.24611e-08)
(0.000777629 -1.7788e-07 4.65308e-08)
(0.000775992 -5.21741e-07 -6.51375e-08)
(0.000775198 -7.39143e-07 2.36493e-08)
(0.000774387 -5.02659e-07 8.99828e-08)
(0.000772494 -3.30274e-07 1.27278e-07)
(-0.000236545 0.0044258 -1.28679e-05)
(-0.00151893 -0.00461785 -0.00019966)
(0.00219894 -0.00443345 -0.000614628)
(-0.00248527 -0.00288837 0.000565157)
(-0.014724 -0.00668993 -0.00109138)
(0.000890004 0.00425667 -9.25787e-05)
(-0.000488357 -0.000391164 8.05186e-06)
(0.000962248 8.05268e-06 -4.81036e-06)
(0.000861575 3.30509e-05 -2.39155e-06)
(0.000831447 -1.33983e-05 -1.69724e-07)
(0.000829621 -1.63453e-07 2.20686e-08)
(0.000828713 -1.1578e-06 4.01411e-08)
(0.000827208 -5.59422e-07 3.92828e-08)
(0.000826105 -3.14524e-07 4.73214e-08)
(0.000824717 -1.94621e-07 3.47131e-08)
(0.000823279 -7.39359e-09 5.37351e-08)
(0.000821996 8.36517e-08 5.08729e-08)
(0.000820343 7.00937e-08 3.70672e-08)
(0.000818833 1.52344e-07 1.64107e-07)
(0.000817509 -9.22921e-08 6.51078e-08)
(0.000815803 3.73503e-08 3.26053e-08)
(0.00081416 -2.5699e-08 4.51711e-08)
(0.000812635 7.11029e-08 3.73683e-08)
(0.000811125 -7.4036e-11 4.74377e-08)
(0.00080962 7.69319e-08 5.19128e-09)
(0.000807858 1.31067e-07 9.4512e-08)
(0.000806215 -1.27208e-07 8.13012e-08)
(0.000805166 -3.24419e-07 4.28473e-08)
(0.000803154 -9.97349e-07 -6.36107e-08)
(0.000801091 -1.28923e-06 7.52967e-08)
(0.000800063 -6.53211e-07 -1.01291e-07)
(0.000798591 -1.5942e-07 7.69386e-08)
(0.000797041 -5.57575e-08 4.08751e-08)
(0.000795539 -9.96585e-08 6.54212e-08)
(0.000794074 -9.10847e-08 1.40903e-07)
(0.000792632 3.70516e-08 7.13792e-08)
(0.000791107 1.52589e-08 5.09353e-08)
(0.000789629 1.40104e-07 8.35896e-08)
(0.000788107 1.19697e-07 3.92487e-08)
(0.000786664 3.98633e-07 1.89984e-08)
(0.000785217 1.81947e-07 5.19969e-08)
(0.000783679 1.35622e-07 1.68747e-08)
(0.000782206 6.01598e-08 6.49866e-08)
(0.000780687 1.37636e-08 6.21044e-08)
(0.000779193 4.9958e-08 1.13317e-08)
(0.000777619 6.35817e-08 5.0503e-08)
(0.000776254 1.93386e-08 9.97102e-08)
(0.000775112 1.84578e-07 4.87923e-08)
(0.000773835 -2.37803e-07 3.69233e-08)
(0.000772887 -3.13569e-07 -6.28099e-11)
(-0.00100348 0.00356337 0.000304014)
(-0.0034684 0.000178137 -2.48093e-05)
(-0.0114354 -0.0102 0.000343893)
(0.00645387 -0.00425207 0.00211899)
(0.000933916 0.011536 -0.000823552)
(0.00547013 0.00300089 0.000155831)
(0.00249471 0.000305107 0.000157061)
(0.000481507 9.37808e-05 3.76261e-05)
(0.000863683 5.55672e-06 -2.1078e-06)
(0.000823344 -3.73828e-06 -1.69682e-07)
(0.000829756 -1.26225e-06 1.06104e-07)
(0.000828176 -1.3801e-06 4.98041e-08)
(0.000827405 -8.77543e-07 5.51217e-08)
(0.000826063 -7.02906e-07 5.4065e-08)
(0.000824958 -5.10177e-07 2.90021e-07)
(0.000823831 -2.86993e-07 5.22524e-08)
(0.000822113 -3.40589e-07 1.07006e-07)
(0.000820547 -2.57031e-07 7.99667e-08)
(0.000818891 -6.48274e-08 7.45166e-08)
(0.000817196 -1.77264e-08 8.4007e-08)
(0.000815794 -9.09289e-08 5.29766e-08)
(0.000814291 -6.55316e-08 5.84632e-08)
(0.000812638 -1.88248e-07 5.30969e-08)
(0.000811037 -1.45409e-07 4.93776e-08)
(0.0008095 -3.21569e-07 5.76648e-08)
(0.000807754 -3.52186e-07 -1.28504e-07)
(0.000806134 -1.31671e-07 4.05103e-08)
(0.000804097 -2.72968e-07 4.62662e-08)
(0.000802724 -5.64937e-07 1.35899e-07)
(0.000802047 -6.61462e-08 2.5111e-08)
(0.000800582 4.68804e-08 1.03022e-07)
(0.000799014 4.36315e-08 1.88267e-07)
(0.000797233 7.4667e-08 2.08005e-08)
(0.000795486 7.75649e-08 4.91275e-08)
(0.000794116 8.01604e-08 4.96726e-08)
(0.000792508 -7.76555e-08 1.75033e-08)
(0.000791075 -3.09589e-07 5.91856e-08)
(0.000789694 -1.46127e-07 4.3098e-08)
(0.000788287 3.38583e-08 4.50057e-08)
(0.000786698 8.2276e-08 7.86689e-08)
(0.000785017 6.19018e-08 1.6544e-08)
(0.000783653 1.72612e-07 4.64583e-08)
(0.000782154 1.70751e-07 4.66336e-08)
(0.000780733 1.26857e-07 3.98624e-08)
(0.000779268 1.03717e-07 4.51593e-08)
(0.000777591 1.54222e-07 4.76488e-08)
(0.000776144 5.17042e-07 4.31785e-08)
(0.000774877 3.72971e-07 5.45786e-08)
(0.000773773 2.52534e-07 9.69414e-08)
(0.000773182 -5.01498e-08 6.30773e-08)
(-0.00328723 -0.0036012 0.000150763)
(-0.00839151 0.00377474 -0.000124908)
(-0.0174906 -0.00697024 -0.000319596)
(0.00976792 0.00472772 -8.2717e-05)
(0.0007707 -0.00826196 -0.000559756)
(0.00143342 -0.00091184 0.000112024)
(0.00030284 -0.000366764 4.37928e-06)
(0.000469967 -3.90611e-06 -6.06036e-07)
(0.000878912 -2.56872e-07 -1.78964e-06)
(0.000822964 -4.18426e-06 -4.70827e-07)
(0.000832586 -2.5664e-06 1.25441e-07)
(0.000829204 -1.99203e-06 1.91109e-08)
(0.000828064 -1.44013e-06 4.52401e-08)
(0.000826571 -1.20821e-06 5.20515e-08)
(0.000825241 -5.94073e-07 5.04413e-08)
(0.000823495 -4.49192e-07 1.10768e-07)
(0.000822037 -3.59012e-07 9.51544e-08)
(0.000820691 -2.60212e-07 8.77115e-08)
(0.000819134 -2.45652e-07 5.8214e-08)
(0.000817477 -5.29207e-08 8.47701e-08)
(0.000815744 -5.61152e-08 4.74514e-08)
(0.00081404 -1.96944e-07 4.90636e-08)
(0.000812537 -2.49516e-07 2.3136e-08)
(0.000810962 -2.63076e-07 5.47801e-08)
(0.000809365 -3.25035e-07 3.51413e-08)
(0.000808098 -3.53443e-07 3.78933e-08)
(0.000806316 -3.2247e-07 5.72036e-08)
(0.000804627 -1.38436e-07 7.39674e-08)
(0.000803413 3.36282e-07 1.08421e-07)
(0.000801856 3.93822e-07 1.96248e-08)
(0.000800199 2.93789e-07 5.92142e-07)
(0.000798624 1.89004e-07 6.63378e-08)
(0.000797083 -2.05435e-07 -3.71493e-07)
(0.000795545 -1.38743e-07 -3.59358e-09)
(0.00079388 -1.1059e-07 2.67035e-08)
(0.000792145 -5.92633e-08 4.73919e-08)
(0.000791023 3.02543e-07 9.48513e-08)
(0.000790059 -3.51424e-08 5.32837e-08)
(0.000788393 -1.79409e-07 8.96273e-08)
(0.000786699 -2.20007e-07 4.10728e-08)
(0.00078533 -5.36413e-08 5.80938e-08)
(0.000783815 -3.0699e-08 1.32051e-08)
(0.000782148 1.46981e-07 4.28541e-08)
(0.000780603 1.08538e-07 7.65436e-08)
(0.000779227 1.62153e-07 5.62368e-08)
(0.000778134 1.14816e-07 4.82281e-08)
(0.000776525 3.33575e-07 2.53929e-08)
(0.000774778 4.81716e-07 4.41041e-08)
(0.000773305 7.58529e-07 -7.07852e-08)
(0.000772629 5.11998e-07 9.23075e-08)
(0.000739182 -0.000434918 -0.000122623)
(0.00436968 0.00450639 0.000464943)
(-0.00229299 -0.0105273 -0.00177193)
(-0.00862452 0.00287556 3.29781e-05)
(-0.00523566 0.00475605 -0.00103072)
(0.00320983 -0.000400961 0.000115906)
(0.00176541 -0.000645832 6.72957e-05)
(0.000462508 -1.21047e-05 4.81984e-07)
(0.000869308 -5.66427e-06 -1.65051e-06)
(0.000820658 -5.2137e-06 -3.68552e-07)
(0.000832502 -3.60907e-06 1.99528e-07)
(0.000829589 -2.70958e-06 5.90927e-08)
(0.000828391 -1.91069e-06 7.4181e-08)
(0.000827125 -8.64856e-07 4.52211e-08)
(0.000825911 -6.12259e-07 5.04483e-08)
(0.000824128 -5.02707e-07 6.9683e-08)
(0.000822352 -1.75011e-07 4.8501e-08)
(0.00082069 -1.91414e-07 3.1275e-07)
(0.000819151 -2.58386e-07 7.82539e-08)
(0.000817434 -3.27376e-07 2.56965e-08)
(0.000815615 -2.61756e-07 6.21545e-08)
(0.000814052 -1.68468e-07 1.40419e-07)
(0.000812558 -1.07324e-07 5.65174e-08)
(0.000810946 -1.21402e-07 4.95652e-08)
(0.000809391 -2.82921e-08 8.91714e-08)
(0.000807761 -3.77094e-08 5.09301e-08)
(0.000806406 -1.29858e-07 1.38184e-07)
(0.000804922 4.21086e-08 4.32318e-08)
(0.000803388 1.06425e-07 1.96483e-08)
(0.000801991 -1.15155e-07 2.77475e-08)
(0.000800324 -6.40003e-08 -9.7311e-09)
(0.000798389 -2.06278e-07 2.52094e-08)
(0.000796824 -2.99229e-07 5.69543e-08)
(0.000795606 -3.29474e-07 2.15176e-08)
(0.000794216 -1.07039e-07 5.82308e-08)
(0.000793025 4.07701e-08 5.06178e-08)
(0.000791105 2.80514e-07 9.92856e-09)
(0.000789092 -5.89178e-08 5.13593e-08)
(0.000788058 -5.74265e-07 5.80528e-08)
(0.000786857 -2.28137e-07 5.90763e-08)
(0.000785255 -1.463e-07 5.88858e-08)
(0.000783905 -2.0271e-07 7.66861e-08)
(0.000782328 -6.49376e-08 5.24237e-08)
(0.000780751 3.05138e-07 3.59283e-08)
(0.000779275 8.8545e-08 2.70158e-08)
(0.000777802 1.48774e-07 6.36346e-08)
(0.000776598 -1.22199e-07 8.49757e-08)
(0.000775403 9.48435e-08 3.39292e-08)
(0.000773795 2.17698e-07 -2.45136e-08)
(0.000771598 3.1646e-07 6.49035e-08)
(-0.000863944 0.00587447 -0.000186595)
(-0.000790706 -0.00375884 0.000100163)
(0.00276978 -0.00131439 -0.000472384)
(0.0071612 0.00162851 0.00196342)
(-0.0160953 0.0293767 -0.00175434)
(0.0049076 0.00166622 0.000199496)
(0.000600914 -1.44558e-05 -2.40341e-05)
(0.00133444 -1.04938e-05 -6.1873e-07)
(0.00146638 -2.77436e-05 3.48373e-07)
(0.00137462 -1.50588e-05 3.56464e-07)
(0.00139196 -7.34807e-06 3.78294e-07)
(0.00138509 -3.66702e-06 3.66545e-07)
(0.00138369 -1.47285e-06 2.73293e-07)
(0.00138025 -1.71577e-07 3.88218e-07)
(0.00137624 -1.27926e-07 2.21693e-07)
(0.00137351 1.44016e-07 2.77078e-07)
(0.00137085 -2.48733e-07 3.45889e-07)
(0.00136781 -2.15054e-07 3.55621e-07)
(0.00136511 -2.38045e-07 3.97e-07)
(0.00136264 -2.4841e-07 3.37771e-07)
(0.00136008 -1.9051e-07 4.52861e-07)
(0.00135719 1.08825e-07 3.67267e-07)
(0.00135448 -1.80852e-07 3.35072e-07)
(0.00135198 -1.16042e-08 2.95693e-07)
(0.00134934 3.29842e-07 2.16588e-07)
(0.00134684 4.92625e-07 2.64964e-07)
(0.00134427 4.9037e-07 2.93471e-07)
(0.00134185 1.72264e-07 3.37904e-07)
(0.00133896 3.01285e-07 3.55155e-07)
(0.00133627 -3.44241e-07 3.37125e-07)
(0.0013337 -7.96474e-07 3.93554e-07)
(0.00133074 -7.88741e-07 1.22609e-07)
(0.00132847 -3.79152e-07 2.66763e-07)
(0.00132665 1.54011e-08 3.29272e-07)
(0.00132425 2.48418e-07 3.42077e-07)
(0.00132138 7.75785e-08 3.27651e-07)
(0.00131848 -2.28179e-07 3.13651e-07)
(0.00131536 3.26854e-07 3.20202e-07)
(0.00131389 1.03346e-06 3.21465e-07)
(0.00131229 4.54752e-07 4.61273e-07)
(0.00130928 2.25811e-08 2.92298e-07)
(0.00130682 -1.5171e-07 3.54088e-07)
(0.00130497 -6.77555e-07 3.60429e-07)
(0.00130173 -7.45297e-07 1.92593e-07)
(0.00129883 -4.05655e-07 3.3673e-07)
(0.00129685 -2.46668e-07 3.1403e-07)
(0.00129445 -2.98632e-07 3.03713e-07)
(0.0012924 -3.70348e-07 3.33565e-07)
(0.00128962 -6.43174e-07 3.43047e-07)
(0.00128685 -5.58038e-07 2.3656e-07)
(-0.0194707 -0.000998237 0.00488592)
(-0.00471418 0.00385753 -0.000905195)
(0.00407076 0.0022558 0.00102502)
(-0.00633732 0.00838382 0.00273212)
(-0.00566718 0.00231312 -0.000617819)
(-0.00663076 -0.00527509 -0.00144893)
(0.000159048 -0.00137464 -0.000138512)
(0.00148344 -9.80597e-05 2.49285e-07)
(0.00152407 -2.09416e-05 4.54645e-07)
(0.0013935 -5.18768e-06 3.50783e-07)
(0.001402 -3.40906e-06 3.479e-07)
(0.00139026 -1.24241e-06 3.47139e-07)
(0.00138529 -2.94064e-07 3.46449e-07)
(0.00138041 -3.09859e-07 3.44295e-07)
(0.00137702 6.55684e-08 3.44098e-07)
(0.00137357 3.13415e-07 2.79645e-07)
(0.00137036 6.77927e-07 3.44551e-07)
(0.00136803 8.04948e-07 4.10718e-07)
(0.00136536 1.08089e-06 3.37031e-07)
(0.00136257 6.07216e-07 3.13054e-07)
(0.00135993 4.56949e-07 2.35038e-08)
(0.00135692 3.316e-07 1.51008e-07)
(0.00135432 8.09861e-07 3.07411e-07)
(0.00135245 5.92958e-07 4.73793e-07)
(0.00134982 2.95402e-07 3.25064e-07)
(0.00134671 1.26203e-07 3.05428e-07)
(0.00134388 -3.241e-08 3.96406e-07)
(0.00134155 -1.88609e-07 3.36091e-07)
(0.00133862 -8.45982e-07 3.47064e-07)
(0.00133558 -5.19085e-07 1.73404e-07)
(0.00133356 -4.05177e-07 1.04847e-07)
(0.00133142 -1.04112e-07 2.7782e-07)
(0.00132929 8.48536e-07 5.32745e-07)
(0.001327 8.97233e-07 4.54298e-07)
(0.00132404 2.93676e-07 3.37266e-07)
(0.00132137 2.6646e-07 3.34952e-07)
(0.00131914 3.19862e-07 3.1906e-07)
(0.00131708 6.71933e-07 1.29503e-07)
(0.00131386 1.28292e-06 3.3762e-07)
(0.00131049 7.32091e-07 6.76162e-07)
(0.00130834 2.70285e-07 3.42697e-07)
(0.00130595 -6.12319e-08 3.73123e-07)
(0.00130346 -5.33748e-07 3.18104e-07)
(0.00130198 -9.98775e-07 6.00601e-07)
(0.00129987 -2.99435e-07 3.63423e-07)
(0.00129688 -2.64285e-07 3.22319e-07)
(0.00129459 1.50791e-07 5.14979e-07)
(0.00129224 -5.27757e-08 2.38327e-07)
(0.00128969 -2.75383e-07 2.80585e-07)
(0.00128788 -3.35825e-07 4.09714e-07)
(-0.0218944 -0.0250927 -0.00841546)
(-0.00361272 -0.0101759 0.000797898)
(0.0122849 -0.0099768 -2.50536e-05)
(-0.00394204 0.00803497 -0.00130127)
(0.0356429 0.00895084 -0.000987541)
(-0.0264365 -0.00413778 -0.00206959)
(-0.000595674 -0.00212235 1.94958e-05)
(0.00142135 4.14197e-05 1.04661e-05)
(0.00146747 -9.3842e-07 -4.40582e-07)
(0.00139652 1.16514e-05 3.45258e-07)
(0.00139688 4.24538e-06 3.46577e-07)
(0.00138897 3.60826e-06 3.52049e-07)
(0.00138484 1.58264e-06 3.5165e-07)
(0.00138069 8.98911e-07 3.46069e-07)
(0.00137702 6.29011e-07 3.44885e-07)
(0.00137427 2.69109e-07 3.3559e-07)
(0.00137146 2.82638e-07 3.25315e-07)
(0.0013683 3.26773e-07 3.18493e-07)
(0.00136486 7.24817e-08 3.87757e-07)
(0.00136185 2.435e-07 3.27699e-07)
(0.00135973 2.85532e-07 2.84664e-07)
(0.00135762 2.34351e-07 3.36467e-07)
(0.0013548 5.45954e-07 3.69867e-07)
(0.00135133 3.48226e-07 3.07325e-08)
(0.00134875 7.9034e-08 3.47789e-07)
(0.00134642 -1.94394e-08 3.38193e-07)
(0.00134388 -5.67738e-08 3.23636e-07)
(0.00134084 -4.61198e-08 3.42029e-07)
(0.00133855 -2.15269e-07 2.51191e-07)
(0.00133683 6.51735e-07 2.59737e-07)
(0.00133422 8.82e-07 6.24512e-07)
(0.00133231 9.27923e-07 4.87885e-07)
(0.00132971 7.58242e-07 2.4194e-07)
(0.00132595 3.4083e-07 1.89104e-07)
(0.00132345 6.35934e-09 3.69088e-07)
(0.00132141 1.09523e-07 3.41816e-07)
(0.00131899 4.06753e-08 2.93044e-07)
(0.00131656 -8.20369e-08 3.61453e-07)
(0.00131396 -4.19534e-07 3.09382e-07)
(0.00131102 -2.8506e-07 3.91095e-07)
(0.00130829 -7.39276e-08 2.37857e-07)
(0.00130582 1.33333e-07 3.61536e-07)
(0.0013038 6.26623e-07 4.10022e-07)
(0.00130203 8.87085e-07 3.58761e-07)
(0.00129976 4.22301e-07 3.4925e-07)
(0.00129741 4.20541e-07 4.13914e-07)
(0.00129471 6.42924e-07 3.72169e-07)
(0.00129187 6.94749e-07 3.51957e-07)
(0.00128928 3.4978e-07 3.18053e-07)
(0.00128761 2.09773e-07 5.01868e-07)
(-0.00423507 -0.0132712 -0.00143304)
(0.00321717 -0.00745155 0.00795505)
(0.00191138 0.0034617 0.000132749)
(-0.0112426 -0.00786746 -0.0149386)
(-0.0252013 0.0364281 0.0121646)
(0.00397168 0.00212337 -0.000527872)
(0.0023883 -0.00386469 -8.39284e-05)
(0.00118335 0.000121847 7.16929e-05)
(0.00145065 -2.01388e-05 2.6321e-07)
(0.00139974 3.76466e-05 3.1336e-07)
(0.00139189 8.22498e-06 3.48384e-07)
(0.0013869 7.04466e-06 3.4294e-07)
(0.00138188 3.3178e-06 3.45954e-07)
(0.00137921 2.06132e-06 3.45553e-07)
(0.00137623 1.34429e-06 3.44302e-07)
(0.00137313 8.97033e-07 3.43125e-07)
(0.00137043 1.28302e-07 3.60395e-07)
(0.00136777 -2.15315e-07 3.2199e-07)
(0.00136525 -5.65665e-07 2.68742e-07)
(0.00136283 -3.21564e-07 3.10383e-07)
(0.00135992 -1.28766e-07 3.75825e-07)
(0.00135724 -1.79278e-07 3.39325e-07)
(0.00135446 -4.78014e-07 1.53299e-07)
(0.00135186 -1.99493e-07 3.82888e-07)
(0.00134936 9.67645e-08 2.80237e-07)
(0.00134654 2.91745e-07 2.76941e-07)
(0.00134385 5.07748e-07 4.0247e-07)
(0.00134135 7.37249e-07 3.88774e-07)
(0.00133949 1.38049e-06 3.12099e-07)
(0.00133694 7.10779e-07 3.11117e-07)
(0.00133389 7.38459e-07 3.22272e-07)
(0.00133126 9.49584e-07 2.60174e-07)
(0.00132855 -4.76025e-08 4.37737e-07)
(0.00132606 -1.49122e-07 3.32471e-07)
(0.00132375 1.20483e-07 3.078e-07)
(0.00132142 2.26015e-08 3.16188e-07)
(0.0013189 -6.74534e-08 3.29041e-07)
(0.0013165 -2.47996e-07 3.42074e-07)
(0.0013136 -6.41217e-07 2.04673e-07)
(0.00131092 -7.115e-07 2.05775e-07)
(0.00130887 -2.51522e-07 1.48813e-07)
(0.00130683 9.1244e-08 5.06813e-07)
(0.0013044 3.13482e-07 6.48444e-07)
(0.00130172 2.46078e-07 3.05055e-07)
(0.00129928 2.3951e-08 2.40925e-07)
(0.00129715 1.92407e-08 3.23902e-07)
(0.00129493 2.48123e-08 3.66035e-07)
(0.00129187 4.15164e-07 3.00345e-07)
(0.00128908 2.6659e-07 3.74098e-07)
(0.00128719 4.17528e-07 5.41227e-07)
(-0.00365868 -0.0254619 0.00268351)
(0.0172876 -0.0409589 0.0349051)
(0.0253022 -0.00902369 0.00244987)
(0.00833251 0.00219479 0.000499048)
(0.00218437 0.00399584 9.4376e-05)
(0.00605765 -0.0100322 -0.00256339)
(0.000395236 -0.00200724 4.15553e-05)
(0.00074631 -3.6374e-05 -4.72931e-05)
(0.00142558 -3.55376e-06 4.0795e-07)
(0.00147335 3.11213e-05 7.22597e-09)
(0.00135865 6.96508e-06 3.58328e-07)
(0.0013828 4.84845e-06 5.0651e-07)
(0.00137859 2.94328e-06 4.57012e-07)
(0.00137821 1.59896e-06 3.45734e-07)
(0.00137555 7.19902e-07 3.68247e-07)
(0.00137275 3.18115e-07 3.457e-07)
(0.00137006 4.00547e-07 3.47728e-07)
(0.00136744 1.70551e-07 3.37239e-07)
(0.00136473 2.88111e-07 3.18877e-07)
(0.0013624 2.65282e-07 3.68721e-07)
(0.00135991 -3.19139e-08 3.76325e-07)
(0.00135719 9.92873e-08 8.02998e-07)
(0.00135478 1.94181e-08 8.20186e-07)
(0.00135205 1.68227e-07 3.6402e-07)
(0.00134937 7.40331e-08 2.67764e-07)
(0.00134694 -4.12659e-08 3.73648e-07)
(0.00134443 3.50402e-07 3.8979e-07)
(0.00134192 6.63272e-07 2.97759e-07)
(0.00133851 1.02072e-06 3.00979e-07)
(0.00133602 1.11457e-06 3.33094e-07)
(0.00133451 5.0505e-07 3.11149e-07)
(0.00133132 -1.60072e-07 2.86996e-07)
(0.00132834 9.32116e-08 2.76469e-07)
(0.00132616 9.76525e-08 3.28844e-07)
(0.00132367 1.45085e-07 3.41134e-07)
(0.00132117 -1.10883e-07 3.2731e-07)
(0.00131865 -2.90548e-07 -8.86e-08)
(0.00131584 -3.90469e-07 2.85822e-07)
(0.00131339 -4.74476e-07 3.18261e-07)
(0.00131151 -3.88478e-07 -1.25625e-07)
(0.00130929 -1.03037e-07 4.38226e-07)
(0.00130652 -9.28227e-08 8.09292e-07)
(0.00130399 -2.19932e-07 2.41069e-07)
(0.00130166 -2.7463e-07 3.39063e-07)
(0.00129947 -3.57496e-07 6.3105e-07)
(0.00129741 -4.82541e-07 3.25007e-07)
(0.00129521 -9.54949e-07 1.07516e-07)
(0.00129217 -1.45549e-06 2.85023e-07)
(0.00128927 -5.49658e-07 4.46818e-07)
(0.00128676 5.09857e-08 3.33417e-07)
(0.00714922 -0.00467573 -0.000101684)
(-0.00579385 -0.0212494 0.00215388)
(-0.0134179 0.00525516 0.000960337)
(-0.00945 0.00052035 0.00309418)
(-0.02838 -0.0302222 -0.00122475)
(7.08656e-05 -0.0101564 0.00116375)
(0.00387517 6.77816e-05 1.34492e-05)
(0.00064078 5.52027e-05 -5.34715e-05)
(0.00146286 -1.55148e-05 1.84258e-06)
(0.0014645 -2.11245e-05 2.90943e-07)
(0.00135886 1.02308e-06 3.10411e-07)
(0.00138186 -3.84573e-07 3.14805e-07)
(0.00137781 7.76352e-07 3.92352e-07)
(0.00137642 3.93614e-07 3.44216e-07)
(0.00137463 1.70483e-07 3.80204e-07)
(0.00137273 -6.81837e-08 3.75044e-07)
(0.00137025 -5.17164e-08 3.43169e-07)
(0.00136763 8.19358e-08 3.54743e-07)
(0.00136537 -4.78935e-09 3.21338e-07)
(0.00136243 2.67727e-07 3.67221e-07)
(0.00135971 2.47061e-07 1.65483e-07)
(0.00135731 2.51801e-07 3.5882e-07)