/*--------------------------------*- C++ -*----------------------------------*\
| =========                 |                                                 |
| \\      /  F ield         | OpenFOAM: The Open Source CFD Toolbox           |
|  \\    /   O peration     | Version:  5.0                                   |
|   \\  /    A nd           | Web:      www.OpenFOAM.org                      |
|    \\/     M anipulation  |                                                 |
\*---------------------------------------------------------------------------*/
FoamFile
{
    version     2.0;
    format      ascii;
    class       volVectorField;
    location    "4.6";
    object      U_0;
}
// * * * * * * * * * * * * * * * * * * * * * * * * * * * * * * * * * * * * * //

dimensions      [0 1 -1 0 0 0 0];

internalField   nonuniform List<vector> 
8409
(
(0.00422558 0.00624157 -0.000148039)
(0.00138062 0.00269215 8.8364e-05)
(0.00426507 0.0008824 0.000643185)
(-0.000628401 -0.00103521 -5.87537e-05)
(0.00393134 0.00017836 0.000471357)
(-0.00433957 0.00867944 2.27701e-06)
(0.0010179 2.3999e-05 -3.05822e-06)
(0.000424203 9.08848e-06 -2.06429e-07)
(0.000859872 -4.43897e-06 -1.49117e-06)
(0.000813262 -9.07773e-07 -3.6454e-07)
(0.000828236 7.14995e-07 2.17713e-07)
(0.000826785 9.54467e-07 5.97748e-08)
(0.000827242 9.4015e-07 1.2676e-08)
(0.000826368 7.77477e-07 8.47849e-08)
(0.000824926 5.83022e-07 4.98479e-08)
(0.000823507 5.35193e-07 2.39088e-08)
(0.000822139 1.54742e-07 5.54321e-08)
(0.000820409 9.08039e-08 2.24885e-09)
(0.000818882 2.21513e-08 7.2998e-08)
(0.000817417 4.60097e-08 1.80058e-07)
(0.000815775 1.01225e-08 7.0608e-08)
(0.000814051 1.51335e-07 -9.84796e-08)
(0.000812599 6.8969e-08 5.26445e-09)
(0.000811235 -8.01188e-08 4.92742e-08)
(0.000809634 1.04563e-07 6.60143e-08)
(0.000808152 9.37576e-08 6.44894e-08)
(0.000806648 1.40302e-07 4.91278e-08)
(0.000805245 9.68342e-09 4.96235e-08)
(0.000803467 2.43751e-08 1.07493e-07)
(0.000801787 -3.49792e-07 1.8015e-07)
(0.000800331 -7.342e-07 -6.26504e-08)
(0.000798508 -6.18267e-07 8.20705e-10)
(0.000797093 -4.85978e-07 9.44769e-08)
(0.000796087 -2.44349e-07 1.66017e-08)
(0.000794679 -2.28136e-08 3.6632e-08)
(0.000792984 -7.27955e-08 5.72936e-08)
(0.000791474 -5.31214e-08 4.00002e-08)
(0.000789965 6.7135e-08 1.07344e-08)
(0.000788397 3.2034e-07 -3.26727e-08)
(0.000787253 4.4153e-07 6.93036e-08)
(0.000786052 8.71151e-08 3.14463e-08)
(0.000784365 1.86755e-08 7.56177e-08)
(0.000783098 -2.69892e-07 7.89095e-08)
(0.000781596 -2.5392e-07 2.35857e-07)
(0.000780019 -1.93082e-07 4.14519e-08)
(0.000778646 -1.50441e-07 -6.73968e-08)
(0.000777268 -1.55113e-07 6.1542e-08)
(0.000776067 -4.69403e-07 1.79568e-07)
(0.000774261 -2.56924e-07 -1.94677e-08)
(0.00077234 -2.08435e-07 6.63738e-08)
(0.00269805 0.00125773 0.000725298)
(0.0032358 -0.0023193 -0.000487429)
(0.00343562 -0.0056185 0.000467378)
(-0.0102778 -0.0112041 0.00135925)
(0.0151753 -0.00511628 -0.000497499)
(-0.0042087 0.0119778 -0.000417281)
(0.00183144 0.000806635 0.000134585)
(0.000468876 -3.65701e-05 -1.3782e-06)
(0.000890394 -1.25024e-05 -1.48916e-06)
(0.000822374 -2.65022e-06 -5.2721e-07)
(0.000832348 -1.52162e-06 1.32049e-07)
(0.000828494 -2.5259e-07 2.7404e-08)
(0.000827738 1.44908e-07 4.82354e-08)
(0.000826267 2.39275e-07 4.38967e-08)
(0.000824975 2.20802e-07 4.9333e-08)
(0.000823335 3.12886e-07 3.44578e-08)
(0.000821711 4.7302e-07 5.57466e-08)
(0.000820456 5.14046e-07 7.80764e-08)
(0.000818974 6.77709e-07 4.81083e-08)
(0.000817361 3.33401e-07 2.63244e-08)
(0.000815796 2.60626e-07 8.13197e-08)
(0.000814173 2.48171e-07 5.78375e-08)
(0.000812364 5.20711e-07 3.55616e-07)
(0.000811143 5.08718e-07 1.31982e-07)
(0.000809828 1.94608e-07 -1.29921e-08)
(0.000808084 4.04603e-08 1.10864e-07)
(0.000806471 -6.46132e-08 3.24494e-08)
(0.000804844 -1.37591e-07 4.59838e-08)
(0.000803145 -6.90743e-07 4.91143e-08)
(0.000801348 -4.67382e-07 9.2512e-08)
(0.000800129 -5.82322e-07 1.52157e-07)
(0.000799088 -3.03239e-07 6.39987e-08)
(0.00079769 2.70668e-07 2.0612e-07)
(0.000796285 5.12204e-07 2.32478e-07)
(0.000794667 1.91096e-07 5.07812e-08)
(0.000793057 1.82698e-07 3.55281e-08)
(0.000791728 2.32074e-07 4.10566e-08)
(0.000790298 2.32091e-07 5.86762e-08)
(0.000788811 3.57851e-07 3.7414e-08)
(0.000787019 5.18202e-07 -8.41673e-09)
(0.000785381 2.57273e-07 5.71738e-08)
(0.00078411 3.60949e-09 7.15534e-08)
(0.000782719 -2.41298e-07 4.51215e-08)
(0.000781505 -3.16265e-07 6.21657e-08)
(0.000780141 -1.13594e-07 5.83855e-08)
(0.000778647 -9.4265e-08 6.34736e-08)
(0.000777222 4.01641e-08 2.48977e-08)
(0.000775798 -1.45597e-07 4.05168e-08)
(0.000774207 -4.03956e-07 2.54646e-08)
(0.000773176 -2.57659e-07 2.6763e-08)
(0.020627 0.0206807 -0.00743021)
(-0.0212639 0.0160792 0.00244457)
(0.00272333 0.00206629 -8.51777e-05)
(-0.00659258 0.0111332 -7.10149e-05)
(0.00358384 0.00235386 0.00516581)
(0.00472966 0.00103694 0.000253022)
(0.000482418 -0.000460636 1.84078e-05)
(0.000257017 3.29349e-06 7.56465e-07)
(0.000865218 -9.88742e-06 -2.70879e-06)
(0.000826939 6.10072e-07 -1.67951e-07)
(0.000831214 -1.45764e-06 1.02931e-07)
(0.000828854 -3.74856e-07 1.24872e-07)
(0.000827846 -4.3994e-07 6.23135e-08)
(0.000826454 -2.87e-07 5.16965e-08)
(0.000825012 -1.61851e-07 5.42492e-08)
(0.000823817 -1.55137e-07 3.76969e-09)
(0.000822386 -3.37938e-08 4.45838e-08)
(0.000820659 7.56673e-08 6.03172e-08)
(0.000818652 -6.91843e-09 1.09597e-07)
(0.000816892 8.62095e-08 4.501e-08)
(0.000815666 1.44439e-07 1.8247e-07)
(0.000814373 1.32633e-07 4.95226e-08)
(0.000812921 2.73291e-07 4.27178e-08)
(0.000810823 3.72819e-07 4.88401e-08)
(0.000809046 1.53723e-07 4.8034e-08)
(0.000807827 8.59407e-08 4.4719e-08)
(0.000806425 -3.77394e-08 1.91274e-08)
(0.000804464 -3.37028e-08 8.20999e-08)
(0.000803059 1.92018e-07 1.93881e-08)
(0.000801928 5.7224e-07 1.877e-08)
(0.00080054 8.36597e-07 8.5621e-08)
(0.000799574 7.27049e-07 6.15819e-08)
(0.00079811 4.5262e-07 2.70965e-07)
(0.000795984 3.49888e-07 1.19911e-07)
(0.000794264 1.54942e-07 6.7517e-08)
(0.000793034 2.07271e-07 5.31517e-08)
(0.000791534 1.62082e-07 8.12515e-08)
(0.000790119 9.70345e-08 4.6205e-08)
(0.000788751 1.65676e-07 4.60061e-08)
(0.000787123 -5.41937e-08 9.72595e-08)
(0.000785407 2.12321e-08 6.41789e-08)
(0.000783742 2.40543e-07 -2.3043e-08)
(0.000782701 4.54762e-07 2.29263e-07)
(0.000781758 4.40166e-07 9.23953e-08)
(0.0007803 1.92878e-07 8.35616e-08)
(0.00077884 1.87547e-07 5.16786e-08)
(0.000777205 2.53467e-07 7.02349e-08)
(0.000775514 1.40451e-07 7.66328e-08)
(0.000774128 7.99831e-08 5.99378e-08)
(0.000773164 8.06764e-08 7.24772e-08)
(-0.042985 -0.0309525 0.00396056)
(0.000213161 -0.00349386 0.00197216)
(-0.0113909 0.0109955 -0.000148491)
(0.00539888 0.00114995 0.000340923)
(0.0169523 0.000368935 5.77021e-05)
(0.00276408 0.00270773 0.000276407)
(0.000981054 -0.00113259 -1.94972e-05)
(0.000464906 -0.000180182 4.89338e-05)
(0.000860673 -2.87479e-05 -2.18414e-06)
(0.000832787 1.11281e-05 -1.72793e-07)
(0.000831089 -2.31131e-06 4.79908e-08)
(0.000829751 -4.61956e-07 -1.2637e-08)
(0.000827837 -8.90273e-07 4.91809e-08)
(0.000826608 -5.42702e-07 5.52204e-08)
(0.000825136 -3.22628e-07 5.07832e-08)
(0.000823492 -1.75271e-07 4.80674e-08)
(0.000821998 -3.13776e-07 5.32906e-08)
(0.000820488 -4.07555e-07 1.86938e-08)
(0.000818987 -4.65829e-07 4.57315e-08)
(0.00081755 -2.81449e-07 2.83251e-08)
(0.000815853 -1.38165e-07 7.62146e-08)
(0.000814333 -1.72638e-07 4.88723e-08)
(0.000812662 -3.05233e-07 2.63326e-08)
(0.000810991 -2.77758e-07 5.81852e-08)
(0.000809467 5.67738e-08 2.81611e-08)
(0.000807844 2.10338e-07 3.0867e-08)
(0.00080632 2.68804e-07 6.68128e-08)
(0.000805131 2.87476e-07 6.04606e-08)
(0.0008039 8.6355e-07 6.17862e-08)
(0.000802149 6.26149e-07 2.09925e-08)
(0.000800316 8.14049e-07 2.84011e-08)
(0.000798602 7.18664e-07 -5.5767e-08)
(0.000797214 1.82426e-07 6.94863e-08)
(0.00079591 -5.76046e-08 5.02184e-08)
(0.000794487 1.32178e-07 4.92119e-08)
(0.000793065 6.65066e-08 6.28783e-08)
(0.000791589 4.74891e-08 2.47405e-07)
(0.000790302 -3.92346e-08 5.27919e-08)
(0.000788622 -3.94182e-07 -1.06714e-08)
(0.000786838 -2.90067e-07 -3.26394e-08)
(0.000785749 -9.92204e-08 5.9911e-08)
(0.00078465 1.36188e-07 5.81779e-08)
(0.000782965 4.38013e-07 1.26124e-07)
(0.000781174 2.55238e-07 -1.40764e-07)
(0.000779822 1.01761e-07 1.86504e-08)
(0.00077872 1.75619e-08 4.28561e-08)
(0.00077716 -1.49846e-08 7.30152e-08)
(0.000775579 6.21424e-08 1.60011e-08)
(0.000774129 2.28334e-07 4.52061e-08)
(0.000772976 2.2003e-07 4.93679e-08)
(-0.00261373 0.0046412 0.000633961)
(0.00983078 -0.0167499 -0.0079787)
(-0.00120365 -0.00932636 0.000818523)
(0.00470244 -0.00284361 0.000407024)
(0.000578097 -0.00799804 0.000232364)
(-0.0021745 -0.00117941 5.01917e-05)
(0.000331329 -0.000507722 -9.43393e-06)
(0.00124715 4.53892e-05 -1.25638e-06)
(0.000476489 -1.27438e-05 -9.59717e-07)
(0.000884532 5.09761e-06 -1.33659e-06)
(0.000816741 -4.03551e-06 -4.76064e-07)
(0.000830621 -1.95231e-06 3.07607e-07)
(0.000827737 -1.31077e-06 1.66695e-07)
(0.00082716 -8.87416e-07 6.01426e-08)
(0.000825469 -6.0083e-07 5.26767e-08)
(0.000823827 -3.98036e-07 4.77232e-08)
(0.000822096 -1.13757e-07 6.15729e-08)
(0.000820471 -4.70917e-08 5.35013e-08)
(0.000818812 -8.95786e-09 8.19432e-08)
(0.000817304 5.51827e-08 3.2114e-08)
(0.000815804 -1.52467e-07 6.42794e-08)
(0.000814166 -8.65144e-09 4.33311e-08)
(0.000812791 -1.29807e-07 8.80254e-08)
(0.000811277 -3.9563e-09 5.04723e-08)
(0.000809656 -9.70311e-09 6.47869e-08)
(0.000808091 4.85351e-08 6.52131e-08)
(0.000806519 1.73036e-07 6.83833e-08)
(0.000805202 2.48756e-07 9.89644e-09)
(0.000803475 8.19382e-08 1.82253e-08)
(0.000801858 5.29274e-08 8.12102e-08)
(0.000800648 1.96829e-08 -1.84993e-08)
(0.00079878 -1.14168e-07 3.72524e-08)
(0.000797136 1.42634e-07 3.78483e-07)
(0.00079592 6.69732e-08 5.36558e-08)
(0.000794419 4.96623e-08 7.487e-08)
(0.000792927 -7.00862e-08 4.84303e-08)
(0.000791402 -1.95021e-07 1.75832e-08)
(0.000789569 -1.87985e-07 5.77442e-08)
(0.00078844 -3.08349e-07 1.2108e-07)
(0.000787494 -1.69921e-07 2.82666e-08)
(0.00078594 -7.59966e-10 7.74822e-08)
(0.000784413 -1.72193e-07 3.34366e-08)
(0.000782847 -2.64912e-07 3.72332e-08)
(0.000781336 -2.296e-07 3.70203e-08)
(0.000780001 -9.02772e-08 6.32255e-08)
(0.000778693 -2.0719e-07 4.65114e-08)
(0.000777261 -4.21572e-07 -2.65023e-08)
(0.000775817 -3.51779e-07 -7.57487e-09)
(0.000774319 -2.19634e-07 6.48459e-08)
(0.000772607 9.43631e-08 8.89348e-08)
(0.00361698 0.0037806 0.000159975)
(-0.00367873 -0.00397547 4.72551e-05)
(-0.0136548 0.0133595 0.000234188)
(-0.0103116 -0.00152475 0.000403489)
(-0.00458429 -3.57993e-05 -0.000286552)
(-0.0125086 0.000728912 -5.09185e-05)
(0.00154924 -0.000427074 3.93874e-06)
(0.00148417 -0.000124958 2.82671e-05)
(0.000503634 -1.49988e-05 1.13059e-06)
(0.000889859 -2.25824e-05 -1.26368e-06)
(0.000822206 -5.45597e-06 -4.51241e-07)
(0.000833164 -3.88469e-06 1.633e-07)
(0.000829172 -1.76254e-06 6.93189e-08)
(0.000827499 -1.06388e-06 5.53232e-08)
(0.00082575 -5.80736e-07 1.72677e-07)
(0.000824103 -4.34331e-07 9.72193e-08)
(0.000822437 -3.0702e-07 5.08467e-08)
(0.000820619 -1.51413e-07 1.97074e-08)
(0.000819114 -1.33304e-07 2.18709e-08)
(0.000817369 9.35165e-08 2.03336e-07)
(0.000815772 1.82549e-07 5.98669e-08)
(0.000814361 1.9196e-07 2.41553e-07)
(0.000812668 2.29236e-07 1.03797e-07)
(0.000811141 9.79919e-08 6.2002e-08)
(0.000809533 1.05719e-07 6.65412e-08)
(0.000808072 4.04486e-08 3.61024e-08)
(0.00080657 -6.62257e-08 3.67295e-08)
(0.000805015 -1.62707e-07 1.95566e-08)
(0.000803652 -1.93136e-07 1.05564e-07)
(0.000802069 -3.09658e-07 7.49886e-08)
(0.000800106 -3.97993e-07 -1.24755e-09)
(0.000798754 -3.66253e-07 1.516e-07)
(0.00079744 -2.25074e-07 1.87409e-08)
(0.000795792 -1.5143e-07 5.40436e-08)
(0.000794315 -2.23501e-07 -3.52902e-08)
(0.00079276 -1.19057e-07 4.42576e-08)
(0.000791443 -1.00229e-07 7.82352e-08)
(0.000790163 3.0388e-08 9.73084e-08)
(0.000788647 3.06244e-07 1.03166e-07)
(0.000787224 1.07952e-07 6.52628e-08)
(0.000785747 7.34919e-08 2.24204e-08)
(0.000784321 7.63712e-08 5.80095e-09)
(0.000782895 -7.36506e-08 2.41724e-08)
(0.000781395 -6.11281e-08 4.46848e-08)
(0.000779853 -1.17242e-07 4.05814e-08)
(0.000778309 -2.06101e-07 4.66443e-08)
(0.000776983 -5.19347e-07 -3.34437e-07)
(0.000775835 -5.48171e-07 3.72334e-08)
(0.000774688 -4.80597e-07 9.69212e-08)
(0.000773131 -1.97195e-07 1.84616e-07)
(-0.000315569 0.00455683 1.19187e-05)
(-0.0015955 -0.00463939 -0.000219488)
(0.00186865 -0.0042351 -0.000443941)
(-0.00227237 -0.00217852 0.00064871)
(-0.0161307 -0.00626776 -0.000946126)
(0.00154991 0.00419798 -0.000144505)
(-0.000381587 -0.000420731 2.63846e-06)
(0.000990022 -7.49795e-06 -4.18806e-06)
(0.000891709 2.96685e-05 -2.31754e-06)
(0.000849566 -1.55873e-05 -2.09679e-07)
(0.000840268 -1.61906e-06 5.57294e-08)
(0.000835272 -1.95021e-06 4.13233e-08)
(0.000831285 -9.68312e-07 4.14265e-08)
(0.000828649 -5.69811e-07 4.84872e-08)
(0.000826263 -4.12111e-07 3.17175e-08)
(0.000824174 -1.91207e-07 5.13311e-08)
(0.000822452 -7.32624e-08 5.10902e-08)
(0.000820689 -1.4855e-07 8.45275e-08)
(0.000819118 5.69693e-08 5.90521e-08)
(0.000817698 -1.00369e-07 6.2493e-08)
(0.000815925 1.0619e-07 7.51591e-09)
(0.000814223 1.23216e-09 4.5649e-08)
(0.000812672 1.3159e-07 2.64465e-08)
(0.000811122 2.44518e-08 5.77347e-08)
(0.000809583 1.1968e-07 4.95812e-09)
(0.000807875 1.32639e-07 1.78761e-07)
(0.000806265 -7.92114e-08 5.20634e-08)
(0.000805045 -1.06092e-07 6.71565e-08)
(0.000803294 -4.13939e-07 4.64806e-08)
(0.000801605 -5.8476e-07 1.46042e-08)
(0.000800581 -4.74327e-07 1.29992e-07)
(0.000799 -1.46261e-07 8.38811e-08)
(0.000797408 -1.70143e-07 4.1004e-08)
(0.000795925 -1.16897e-07 5.22187e-08)
(0.000794461 -4.20228e-08 5.68153e-08)
(0.000793083 7.26412e-08 1.15702e-07)
(0.000791589 1.66727e-07 5.33988e-08)
(0.000790076 8.79526e-08 5.20866e-08)
(0.000788536 1.25612e-07 7.15115e-08)
(0.000787202 2.39048e-07 2.91979e-08)
(0.000785901 7.63559e-08 5.05612e-08)
(0.000784229 2.40586e-08 1.88073e-08)
(0.000782676 -1.55291e-08 5.85993e-08)
(0.000781282 -3.1477e-08 4.77317e-08)
(0.000779821 -2.76678e-08 1.30266e-08)
(0.000778193 2.59033e-08 5.0211e-08)
(0.000776837 6.5227e-09 1.53479e-08)
(0.000775871 -2.91304e-07 7.12883e-08)
(0.000774767 -2.13917e-07 2.27671e-08)
(0.000773453 -2.876e-07 2.94542e-08)
(-0.00104239 0.00362034 0.000303436)
(-0.00336219 -6.56439e-05 -3.48102e-05)
(-0.0117383 -0.0105473 0.00042125)
(0.00785952 -0.00568721 0.0022087)
(0.000651781 0.00756025 -0.000268989)
(0.00353481 0.00254515 -1.03687e-05)
(0.00264882 0.000344108 0.00015686)
(0.000500503 9.85277e-05 3.73171e-05)
(0.000888391 2.0345e-05 -2.13532e-06)
(0.000838864 4.54897e-06 -1.91784e-07)
(0.000839366 3.76661e-06 1.03832e-07)
(0.000834009 1.71464e-06 4.3615e-08)
(0.000830919 1.04908e-06 5.15069e-08)
(0.000828207 4.78445e-07 5.06143e-08)
(0.000826231 1.60372e-07 8.12556e-08)
(0.000824531 1.17016e-07 5.08214e-08)
(0.000822493 -1.20728e-07 1.06616e-07)
(0.000820783 -1.00376e-07 1.8139e-07)
(0.000819175 -3.62948e-08 8.10766e-08)
(0.000817432 -6.0908e-08 6.06074e-08)
(0.0008159 -1.77384e-07 5.02701e-08)
(0.000814393 -8.45745e-08 5.26467e-08)
(0.000812697 -2.86598e-07 4.91165e-08)
(0.000811126 -1.75922e-07 4.91817e-08)
(0.000809667 -3.47616e-07 6.70386e-08)
(0.000807823 -2.85186e-07 1.03854e-08)
(0.000806272 -5.90388e-08 3.96057e-08)
(0.0008046 9.57903e-09 7.57017e-08)
(0.000803059 -1.7142e-07 2.67606e-08)
(0.000802 2.72908e-07 -1.59456e-07)
(0.000800659 2.28431e-07 1.08761e-07)
(0.000799138 7.67245e-08 4.43599e-08)
(0.000797478 1.48305e-07 5.00192e-08)
(0.000795954 9.90431e-08 5.42075e-08)
(0.000794553 1.14916e-07 4.39077e-08)
(0.000793021 1.83726e-08 6.62704e-08)
(0.000791462 -4.20025e-08 5.6042e-08)
(0.000790111 -5.07633e-08 4.73418e-08)
(0.000788834 1.14026e-07 4.36356e-08)
(0.000787162 1.45388e-07 3.18556e-08)
(0.000785477 -2.11122e-08 3.0419e-08)
(0.000784206 -3.27608e-08 2.361e-08)
(0.000782826 -3.96719e-09 7.06651e-09)
(0.00078138 -1.43188e-08 3.75732e-08)
(0.000779925 7.88374e-08 4.60401e-08)
(0.000778352 1.70865e-07 4.626e-08)
(0.000776588 5.16774e-07 5.94376e-08)
(0.000775562 6.15336e-07 7.20822e-08)
(0.000774701 1.9052e-07 4.75983e-08)
(0.000773757 -2.197e-08 -1.05713e-08)
(-0.0033913 -0.00369391 0.000137062)
(-0.00843985 0.00352576 -8.3489e-05)
(-0.0189421 -0.00660446 -0.000134076)
(0.0103402 0.00753832 -5.52977e-06)
(-0.000378141 -0.00600575 -0.000675396)
(0.00209703 -0.00102167 0.000269068)
(0.000259504 -0.000148692 1.10363e-06)
(0.000489603 3.12583e-05 -4.36296e-07)
(0.000889841 2.47513e-05 -1.77868e-06)
(0.000828896 1.07748e-05 -4.60218e-07)
(0.000836737 6.39697e-06 1.27474e-07)
(0.000831882 3.32293e-06 2.0778e-08)
(0.000829746 1.77887e-06 4.30006e-08)
(0.000827543 9.66751e-07 4.80542e-08)
(0.000825815 5.91771e-07 5.57165e-08)
(0.000823826 2.09187e-07 1.05969e-07)
(0.000822183 6.60712e-08 9.42475e-08)
(0.000820797 2.91707e-08 5.01188e-07)
(0.000819169 -6.32443e-08 6.36119e-08)
(0.000817523 -8.70327e-08 5.37778e-08)
(0.000815897 -1.08285e-07 4.92715e-08)
(0.000814088 -2.76549e-07 6.80709e-08)
(0.00081256 -3.44043e-07 5.65975e-08)
(0.000811049 -3.13196e-07 5.41761e-08)
(0.00080945 -3.68262e-07 1.27483e-08)
(0.000808239 -3.60873e-07 -5.20204e-08)
(0.000806636 -1.96387e-07 1.17345e-07)
(0.000804906 -1.18644e-07 2.0476e-07)
(0.000803624 1.15608e-07 5.204e-08)
(0.000802104 3.09384e-07 4.9965e-08)
(0.000800334 3.52247e-07 4.73509e-08)
(0.000798898 1.51647e-07 9.37367e-08)
(0.000797435 6.08668e-08 8.71172e-08)
(0.000795882 -5.5615e-08 5.21008e-08)
(0.00079436 -1.39768e-07 2.99202e-08)
(0.000792887 -1.37031e-07 3.77429e-08)
(0.000791504 -8.06663e-08 1.18261e-08)
(0.000790272 -6.41372e-08 4.48857e-08)
(0.000788781 -3.0328e-07 8.05776e-08)
(0.000787033 -4.56463e-07 4.12784e-08)
(0.000785678 -1.83943e-07 4.70684e-08)
(0.000784251 -1.11083e-07 -8.18123e-09)
(0.000782699 9.55714e-08 4.54401e-08)
(0.000781386 7.48307e-08 5.94328e-08)
(0.000780053 1.18149e-07 6.81522e-08)
(0.000778739 1.44181e-07 3.71349e-09)
(0.00077739 3.16696e-07 6.09933e-08)
(0.000775459 9.72035e-07 2.77996e-08)
(0.000773969 6.10492e-07 -7.9665e-08)
(0.000773238 3.20996e-07 9.11968e-08)
(0.000553029 -0.00042901 -0.000115167)
(0.00394762 0.00360818 0.000463861)
(-0.0018924 -0.00884964 -0.00210782)
(-0.0082669 0.00293751 3.87607e-05)
(-0.00559469 0.00506216 -0.000858719)
(0.00292456 -0.000383959 9.10342e-05)
(0.00180083 -0.000593955 6.34086e-05)
(0.000452939 1.3376e-05 5.44036e-07)
(0.000861269 1.79731e-05 -1.6393e-06)
(0.000816058 9.65496e-06 -3.70292e-07)
(0.000830032 5.52152e-06 2.0432e-07)
(0.000828226 2.88458e-06 1.84877e-07)
(0.000827971 1.45883e-06 7.82617e-08)
(0.000826722 8.8886e-07 -1.87815e-07)
(0.000825285 5.2219e-07 5.87266e-08)
(0.000823875 1.797e-07 7.6518e-08)
(0.000822269 2.68504e-07 4.96496e-08)
(0.000820622 1.45298e-07 7.7065e-08)
(0.000819031 -4.22814e-08 7.65597e-08)
(0.000817377 -8.45602e-08 6.58165e-08)
(0.000815665 -1.27625e-07 1.43865e-07)
(0.000814101 -1.82918e-07 8.46602e-08)
(0.000812654 -1.58116e-07 5.98948e-08)
(0.0008111 -1.5303e-07 4.947e-08)
(0.000809612 -9.48492e-09 6.05676e-08)
(0.000808042 -6.06166e-09 1.97097e-08)
(0.000806577 -7.89263e-08 7.7754e-08)
(0.000804991 3.24306e-09 4.54816e-08)
(0.000803593 1.91749e-07 2.35914e-08)
(0.000802293 -1.22016e-07 4.30923e-08)
(0.000800459 -6.21664e-08 1.67681e-07)
(0.000798772 -1.25897e-07 4.20456e-08)
(0.000797219 -3.76326e-07 -1.56541e-07)
(0.000795705 -4.02213e-07 4.07079e-08)
(0.000794452 -2.14689e-07 4.76226e-08)
(0.000793095 -1.48521e-07 3.17545e-08)
(0.000791554 -1.37332e-07 -5.15921e-09)
(0.000789834 -1.72481e-07 4.87322e-08)
(0.000788346 -3.83938e-07 1.17721e-08)
(0.000787313 -4.81475e-07 5.92041e-08)
(0.000785911 -2.10432e-07 6.40429e-08)
(0.000784556 -1.83408e-07 2.44682e-08)
(0.000783059 -1.19098e-07 8.4804e-08)
(0.000781407 1.36473e-07 2.05078e-08)
(0.00078001 5.02377e-08 -3.76174e-09)
(0.000778598 1.11939e-07 3.70042e-08)
(0.000777618 -2.26056e-08 2.47488e-08)
(0.000775923 1.62902e-08 2.83787e-08)
(0.000773873 4.65699e-07 -3.50573e-08)
(0.000772597 2.56793e-07 7.19596e-08)
(-0.00100665 0.00632558 -0.000239687)
(-0.00096449 -0.00370699 7.15043e-05)
(0.00273813 -0.00172524 0.000622593)
(0.00840983 0.00257794 0.00194254)
(-0.00586318 0.0280964 -0.00137448)
(0.00576944 0.00153856 0.00039144)
(0.000598759 0.000116994 -2.40742e-05)
(0.00128974 2.93114e-05 -5.73133e-07)
(0.00143946 -5.93424e-06 3.3861e-07)
(0.00135912 -7.33112e-07 3.4947e-07)
(0.00138271 1.58875e-06 3.95105e-07)
(0.00137963 1.77257e-06 3.68943e-07)
(0.00138002 1.66605e-06 2.74496e-07)
(0.00137827 1.41479e-06 3.61475e-07)
(0.00137565 1.02034e-06 3.36553e-07)
(0.00137322 9.20872e-07 2.75448e-07)
(0.00137087 2.7047e-07 3.43582e-07)
(0.00136798 1.48314e-07 2.19615e-09)
(0.00136544 2.75881e-08 3.95085e-07)
(0.00136298 4.27788e-08 4.37583e-07)
(0.00136025 2.2226e-08 3.7984e-07)
(0.00135736 3.00965e-07 1.66243e-07)
(0.00135492 1.70018e-07 2.40838e-07)
(0.00135264 -6.85757e-08 2.96224e-07)
(0.00134999 2.55502e-07 3.42045e-07)
(0.0013475 2.80576e-07 3.36867e-07)
(0.00134503 3.1751e-07 2.93021e-07)
(0.00134274 4.15228e-08 3.36836e-07)
(0.00133976 5.36794e-08 4.16007e-07)
(0.00133691 -6.02517e-07 5.08386e-07)
(0.00133448 -1.23878e-06 2.61325e-07)
(0.00133148 -1.03695e-06 1.57928e-07)
(0.00132916 -7.5181e-07 4.12229e-07)
(0.00132751 -3.52871e-07 2.88887e-07)
(0.00132518 3.13286e-08 3.13818e-07)
(0.00132235 -4.00867e-08 3.34193e-07)
(0.00131973 -4.58562e-08 3.18082e-07)
(0.00131712 1.80192e-07 2.63157e-07)
(0.00131467 6.27405e-07 1.23218e-07)
(0.00131281 7.27934e-07 3.62834e-07)
(0.00131069 1.57004e-07 2.9195e-07)
(0.00130791 4.25952e-08 3.60375e-07)
(0.00130591 -4.50832e-07 3.79277e-07)
(0.00130331 -3.97682e-07 7.12386e-07)
(0.00130063 -3.24202e-07 3.39904e-07)
(0.00129837 -2.69422e-07 2.18032e-07)
(0.00129604 -2.36744e-07 3.70339e-07)
(0.00129405 -7.24848e-07 4.78206e-07)
(0.00129103 -4.48902e-07 2.23955e-07)
(0.00128785 -3.7661e-07 3.50332e-07)
(-0.018371 -0.00211421 0.0051301)
(-0.00466528 0.00383526 -0.000893788)
(0.0038677 0.00158578 0.00100963)
(-0.00443122 0.00631973 0.00218955)
(-0.00754204 -0.000698488 -0.0022429)
(-0.00259678 -0.00542239 0.00165349)
(7.82531e-05 -0.00120997 -0.000143864)
(0.00141024 -9.55072e-05 1.73983e-07)
(0.00148712 -1.73258e-05 4.40203e-07)
(0.00137282 -2.3605e-06 3.44792e-07)
(0.00138878 -1.30588e-06 3.48054e-07)
(0.00138205 3.18782e-07 3.46563e-07)
(0.00138056 6.81762e-07 3.48824e-07)
(0.00137795 6.26563e-07 3.43123e-07)
(0.00137569 5.16992e-07 3.44205e-07)
(0.00137291 6.03104e-07 2.7951e-07)
(0.00137017 8.26761e-07 3.44364e-07)
(0.00136806 8.6668e-07 4.08654e-07)
(0.00136555 1.12766e-06 3.15102e-07)
(0.00136285 5.6002e-07 3.09647e-07)
(0.00136028 4.63204e-07 3.85844e-07)
(0.00135757 4.29945e-07 3.79443e-07)
(0.00135456 9.00567e-07 9.61932e-07)
(0.00135255 8.81333e-07 5.79577e-07)
(0.00135035 3.87458e-07 7.34046e-08)
(0.00134739 1.35616e-07 4.72402e-07)
(0.00134466 -3.86778e-08 3.14096e-07)
(0.001342 -2.17566e-07 3.35305e-07)
(0.00133918 -1.16687e-06 3.42731e-07)
(0.00133622 -7.8603e-07 3.26148e-07)
(0.00133423 -9.11414e-07 3.81428e-07)
(0.00133246 -4.78486e-07 3.22006e-07)
(0.00133014 5.49933e-07 6.4709e-07)
(0.00132783 8.93412e-07 7.47735e-07)
(0.00132514 3.3176e-07 3.38334e-07)
(0.00132243 2.87113e-07 3.15127e-07)
(0.00132018 3.71179e-07 3.15025e-07)
(0.00131784 4.32144e-07 3.71196e-07)
(0.00131527 7.0226e-07 3.49049e-07)
(0.00131227 8.88764e-07 3.34023e-07)
(0.0013096 4.16034e-07 3.40869e-07)
(0.00130744 -5.08029e-09 3.71938e-07)
(0.00130513 -3.84804e-07 3.18797e-07)
(0.00130316 -6.02948e-07 2.99752e-07)
(0.00130089 -2.16549e-07 3.5825e-07)
(0.00129841 -2.2049e-07 3.39753e-07)
(0.00129604 7.90702e-08 2.84475e-07)
(0.00129361 -2.29572e-07 3.19159e-07)
(0.00129098 -6.37314e-07 2.20579e-07)
(0.00128924 -4.37805e-07 2.21469e-07)
(-0.0216095 -0.0233862 -0.0104476)
(-0.00359723 -0.010137 0.000870106)
(0.0120618 -0.00985535 0.000364712)
(-0.00367254 0.00755884 -0.00138295)
(0.0252671 0.0040403 -0.00678764)
(-0.0132567 -0.0047169 -0.000395379)
(-0.000640208 -0.00231182 1.81517e-05)
(0.00138567 2.90646e-05 1.03497e-05)
(0.00144323 -1.31538e-05 -4.66919e-07)
(0.00137902 3.1942e-06 3.4372e-07)
(0.00138601 -9.94984e-07 3.4801e-07)
(0.00138208 2.90569e-07 4.04898e-07)
(0.00138038 -1.58563e-07 3.94661e-07)
(0.00137804 -1.22378e-07 3.45703e-07)
(0.00137561 -4.77096e-08 3.44103e-07)
(0.0013736 -1.22247e-07 2.53089e-07)
(0.00137119 2.58555e-08 3.37845e-07)
(0.00136835 1.60152e-07 2.95313e-07)
(0.00136505 -2.78818e-08 4.61809e-07)
(0.00136214 1.3248e-07 3.34284e-07)
(0.00136008 2.3171e-07 4.41086e-07)
(0.00135791 2.14325e-07 3.37138e-07)
(0.00135548 4.59251e-07 3.37786e-07)
(0.00135199 6.20275e-07 2.45895e-07)
(0.00134905 2.26227e-07 3.49161e-07)
(0.00134697 1.36359e-07 3.20464e-07)
(0.00134459 -3.40485e-08 6.73852e-08)
(0.00134133 -1.06451e-08 3.85261e-07)
(0.00133906 3.03997e-07 2.22838e-07)
(0.00133723 9.77007e-07 2.56238e-07)
(0.00133487 1.38643e-06 3.34955e-07)
(0.0013333 1.2069e-06 3.21271e-07)
(0.00133087 7.6184e-07 7.89426e-07)
(0.00132724 5.82684e-07 4.34061e-07)
(0.00132442 2.25984e-07 1.84106e-07)
(0.0013224 2.89237e-07 3.4044e-07)
(0.00131991 2.57613e-07 3.11921e-07)
(0.00131753 1.37688e-07 3.44771e-07)
(0.00131523 2.04497e-07 3.36683e-07)
(0.00131245 -1.12518e-07 4.24594e-07)
(0.00130957 1.54487e-08 3.63903e-07)
(0.00130691 3.8059e-07 1.60539e-07)
(0.00130517 7.73409e-07 5.50642e-07)
(0.00130352 7.71737e-07 2.86003e-07)
(0.00130111 4.18789e-07 3.51449e-07)
(0.00129875 3.88498e-07 3.19749e-07)
(0.00129603 4.53703e-07 4.33805e-07)
(0.00129316 2.9603e-07 3.29993e-07)
(0.00129079 1.5559e-07 3.11105e-07)
(0.00128919 1.43223e-07 3.11636e-07)
(-0.00496416 -0.0135819 -0.00169226)
(0.00466758 -0.00716617 0.00850505)
(0.000434829 0.00502449 0.000298026)
(-0.00491885 -0.00661293 -0.00745423)
(-0.00315125 0.0160405 0.0033706)
(-0.000451092 0.00164306 -0.000596635)
(0.00240423 -0.00403081 -8.03326e-05)
(0.00115568 0.000100686 7.23113e-05)
(0.00143402 -4.53656e-05 2.71071e-07)
(0.00138774 2.01916e-05 5.2969e-07)
(0.00138509 -2.53803e-06 3.49134e-07)
(0.00138306 6.89599e-08 2.94999e-07)
(0.00138002 -9.54204e-07 3.45605e-07)
(0.00137807 -5.7401e-07 3.45349e-07)
(0.00137568 -3.20977e-07 3.43897e-07)
(0.00137299 -1.49438e-07 3.42232e-07)
(0.00137052 -4.31096e-07 3.44808e-07)
(0.00136799 -5.87709e-07 2.75945e-07)
(0.00136551 -7.45734e-07 3.47452e-07)
(0.00136318 -4.82017e-07 3.07359e-07)
(0.00136038 -2.4903e-07 3.76957e-07)
(0.00135785 -2.86731e-07 3.38668e-07)
(0.00135507 -5.18932e-07 2.89309e-07)
(0.00135225 -4.5887e-07 3.8722e-07)
(0.00134974 6.02474e-08 2.81322e-07)
(0.00134706 3.20629e-07 2.76432e-07)
(0.00134448 4.57147e-07 3.99059e-07)
(0.00134243 5.62021e-07 3.22176e-07)
(0.00134041 1.52535e-06 3.52892e-07)
(0.00133756 1.1075e-06 4.72358e-07)
(0.0013345 1.37068e-06 4.08618e-07)
(0.00133167 1.26726e-06 -2.58617e-08)
(0.00132935 3.34256e-07 3.0125e-07)
(0.00132715 -8.16501e-08 3.32423e-07)
(0.00132477 2.22692e-07 2.97584e-07)
(0.00132246 9.8481e-08 3.31913e-07)
(0.00131999 4.49992e-08 5.59403e-07)
(0.00131777 -1.08531e-07 3.49955e-07)
(0.00131496 -6.86104e-07 1.91825e-07)
(0.00131204 -5.56652e-07 1.1221e-07)
(0.00131022 -1.7036e-07 3.15545e-07)
(0.00130838 2.52182e-07 3.5324e-07)
(0.00130561 7.15269e-07 4.74731e-07)
(0.00130271 4.3119e-07 4.60417e-08)
(0.00130041 1.72778e-07 2.51096e-07)
(0.00129845 4.25469e-08 3.23741e-07)
(0.00129592 -3.62498e-08 3.69546e-07)
(0.00129324 1.1229e-07 8.24622e-08)
(0.00129078 3.61817e-07 3.23692e-07)
(0.00128887 3.86321e-07 2.41832e-07)
(-0.00440294 -0.0248252 0.00211411)
(-0.00355522 -0.0165603 0.0224665)
(0.0266964 -0.00800302 0.00232784)
(0.0103881 0.00293646 0.00038106)
(0.00213585 0.00608324 -0.000399447)
(0.00643846 -0.0106163 -0.0022914)
(0.000340183 -0.00212055 4.10318e-05)
(0.000723924 -9.59086e-05 -4.75213e-05)
(0.00142234 -3.43858e-05 4.80399e-07)
(0.00147254 9.58807e-06 2.74469e-09)
(0.00136088 -5.84123e-06 3.5937e-07)
(0.00138403 -2.76816e-06 4.7597e-07)
(0.00137956 -1.86878e-06 4.25818e-07)
(0.00137883 -1.29777e-06 3.45169e-07)
(0.00137613 -8.97832e-07 2.87345e-07)
(0.00137346 -6.0481e-07 2.9367e-07)
(0.00137064 -1.60351e-07 3.79602e-07)
(0.00136796 -7.63053e-08 3.39667e-07)
(0.00136518 4.1121e-08 3.57565e-07)
(0.00136277 1.88406e-07 2.70711e-07)
(0.00136033 -1.94181e-07 3.72631e-07)
(0.00135757 2.02435e-08 3.04097e-07)
(0.00135527 -1.92007e-07 4.06009e-07)
(0.00135272 -1.01032e-08 6.50947e-08)
(0.00135003 3.55525e-09 2.51842e-07)
(0.00134746 2.59312e-08 3.73444e-07)
(0.00134488 2.75356e-07 3.89567e-07)
(0.00134266 4.41205e-07 2.95193e-07)
(0.00133973 2.68159e-07 5.73209e-07)
(0.00133703 2.25518e-07 3.76527e-07)
(0.00133506 1.06315e-07 -1.62831e-07)
(0.001332 -1.55735e-07 3.2492e-07)
(0.00132918 2.73523e-07 8.13841e-07)
(0.00132709 1.35044e-07 3.36025e-07)
(0.00132464 1.0914e-07 3.60878e-07)
(0.00132217 -1.10526e-07 3.30949e-07)
(0.00131965 -3.55139e-07 2.54402e-07)
(0.00131662 -3.46351e-07 3.31671e-07)
(0.00131467 -5.28966e-07 4.8263e-07)
(0.0013131 -3.10272e-07 2.17875e-07)
(0.00131058 -1.38275e-08 3.60891e-07)
(0.00130802 -2.69427e-07 3.24185e-07)
(0.00130539 -4.26986e-07 3.00272e-07)
(0.00130284 -3.93156e-07 1.24768e-07)
(0.00130062 -2.67898e-07 3.52885e-07)
(0.00129848 -4.08029e-07 3.2375e-07)
(0.00129612 -7.98522e-07 1.52411e-07)
(0.00129365 -7.13416e-07 1.81822e-08)
(0.00129112 -3.84631e-07 3.76079e-07)
(0.00128826 1.59699e-07 4.17482e-07)
(0.00730159 -0.00456272 -0.000144981)
(-0.0044698 -0.0216941 0.00222981)
(-0.0141233 0.00392549 0.00117652)
(-0.0126405 0.00228141 0.00345014)
(-0.0221355 -0.0274241 -0.00181796)
(-0.00452354 -0.00971356 -9.36342e-05)
(0.00394888 -3.83584e-05 1.352e-05)
(0.000659479 -2.74142e-05 -5.30974e-05)
(0.00149312 -4.71424e-05 2.13137e-06)
(0.0014799 -3.73274e-05 2.849e-07)
(0.00136952 -9.17119e-06 3.23719e-07)
(0.00138803 -6.54652e-06 3.58159e-07)
(0.00138186 -2.9854e-06 3.98304e-07)
(0.00137929 -1.81128e-06 3.47105e-07)
(0.00137655 -1.00999e-06 7.56787e-07)
(0.00137392 -7.44621e-07 4.16446e-07)
(0.00137119 -5.07869e-07 3.43189e-07)
(0.00136824 -2.30617e-07 3.22308e-07)
(0.00136584 -1.77452e-07 2.9242e-07)
(0.00136288 2.23775e-07 6.63672e-07)
(0.00136017 3.09217e-07 3.92197e-07)
(0.00135786 3.27328e-07 7.78109e-07)