/*--------------------------------*- C++ -*----------------------------------*\
| =========                 |                                                 |
| \\      /  F ield         | OpenFOAM: The Open Source CFD Toolbox           |
|  \\    /   O peration     | Version:  5.0                                   |
|   \\  /    A nd           | Web:      www.OpenFOAM.org                      |
|    \\/     M anipulation  |                                                 |
\*---------------------------------------------------------------------------*/
FoamFile
{
    version     2.0;
    format      ascii;
    class       surfaceVectorField;
    location    "4.6";
    object      Uf;
}
// * * * * * * * * * * * * * * * * * * * * * * * * * * * * * * * * * * * * * //

dimensions      [0 1 -1 0 0 0 0];

internalField   nonuniform List<vector> 
25186
(
(0.0025226 0.00440418 -3.61078e-06)
(0.0048018 0.00324904 0.000258238)
(0.00162916 0.00603582 -0.000191125)
(0.000527931 0.00546282 0.000478588)
(-0.0120764 0.00211296 0.00164068)
(-0.0102006 0.00525074 0.0008385)
(0.00322815 0.00197605 0.00045397)
(0.00212563 -0.000250632 -0.00019522)
(0.000328516 -0.000574416 0.000169683)
(0.00222685 -0.0011985 0.000265606)
(0.00383078 -0.00325181 0.000624979)
(0.00293514 -0.000429301 -0.000572378)
(-0.00430012 0.00547614 -0.000103428)
(0.00486385 0.0022314 0.0011325)
(-0.00645951 -0.0010869 0.00133766)
(0.00279171 -0.00126195 -0.00569514)
(0.00200596 -0.000381528 -0.00546949)
(0.00177818 0.000357865 0.0157282)
(-0.00194445 -0.000600801 1.4779e-06)
(-0.00190713 -0.000105494 -0.000276535)
(0.0014798 0.000103563 0.000471593)
(0.00683905 -0.00334117 0.00074076)
(-0.00214612 0.00586992 0.000701174)
(-0.00171645 0.00492222 -0.000791374)
(0.00304515 0.0010915 0.00042709)
(-0.00391441 0.00286635 0.000212551)
(-0.00366042 0.00441209 -8.49484e-05)
(-0.00684567 0.00687251 0.000130586)
(-0.000647963 0.00918037 -1.41786e-05)
(0.000668603 9.00416e-05 5.57378e-05)
(0.00101311 -2.75556e-05 -2.5637e-06)
(0.00101035 -3.8439e-05 -3.02271e-05)
(0.00103235 -2.32292e-05 1.34729e-05)
(0.000462787 -2.30882e-05 1.77684e-06)
(0.000461146 -1.73519e-05 -2.87336e-06)
(0.000464998 -1.37258e-05 2.53841e-07)
(0.000743664 -9.23079e-06 2.30861e-07)
(0.000834337 -1.4702e-05 -9.61845e-07)
(0.00089906 -1.99753e-05 -1.55024e-06)
(0.0011737 -2.33224e-05 -1.18954e-06)
(0.000609814 -2.43818e-05 -4.23953e-06)
(0.000611525 -2.88424e-05 -5.07492e-06)
(0.00102195 -4.47127e-05 -5.12155e-06)
(0.00101337 -5.57668e-05 -6.45047e-06)
(0.000834776 -7.9044e-06 -7.79227e-08)
(0.000831598 -9.62405e-06 -4.28409e-07)
(0.0011001 -1.27794e-05 1.12996e-07)
(0.000832604 -4.02033e-06 1.32096e-07)
(0.000838974 -5.00063e-06 1.68658e-07)
(0.00111384 -6.32757e-06 2.09652e-07)
(0.00083088 -1.95792e-06 3.89357e-08)
(0.00083304 -2.45003e-06 4.49028e-08)
(0.00110821 -3.19989e-06 1.81467e-07)
(0.000829532 -7.20465e-07 4.92636e-08)
(0.000830929 -1.98689e-06 3.38381e-08)
(0.00110703 -1.32771e-06 2.13588e-07)
(0.000826758 -2.23133e-07 5.85142e-08)
(0.000828281 -1.1489e-06 5.91207e-08)
(0.00110423 -2.14815e-07 1.73983e-07)
(0.000824792 -8.96844e-08 3.1771e-08)
(0.000825968 -1.78096e-07 4.4169e-08)
(0.00110097 -1.58059e-07 1.96528e-07)
(0.000823305 -9.62617e-08 4.06094e-08)
(0.000824076 -4.56907e-07 2.88925e-08)
(0.00109878 7.64513e-08 1.98583e-07)
(0.00082149 -1.79749e-07 7.90869e-08)
(0.000822284 6.96556e-08 5.62803e-08)
(0.00109664 -2.25106e-07 1.82872e-07)
(0.000819734 -1.64543e-07 8.82244e-08)
(0.000820657 -6.20358e-08 9.10066e-08)
(0.0010942 -1.8653e-07 2.02876e-07)
(0.000818229 -1.73087e-07 7.68148e-08)
(0.000819048 -2.7761e-07 7.07774e-08)
(0.00109204 -2.04565e-07 1.88514e-07)
(0.000816695 -1.65469e-07 7.48767e-08)
(0.000817464 1.22063e-07 5.46503e-08)
(0.00109006 -2.1175e-07 1.95873e-07)
(0.000815129 -7.5585e-08 5.40158e-08)
(0.000815892 1.12218e-07 5.74263e-08)
(0.00108801 -1.73176e-07 1.34848e-07)
(0.00081339 -8.97112e-08 3.57744e-08)
(0.000814125 1.76052e-07 3.75055e-08)
(0.00108571 5.67739e-08 1.63843e-07)
(0.000811846 -1.09556e-07 4.07572e-08)
(0.000812553 -8.21895e-07 5.73332e-08)
(0.00108354 -1.82528e-07 2.30051e-07)
(0.000810234 5.9104e-08 8.66577e-09)
(0.000811214 -8.70038e-08 4.73541e-08)
(0.00108152 -2.3232e-08 1.83525e-07)
(0.000808722 2.04921e-07 1.97861e-08)
(0.000809612 3.35925e-07 2.00868e-08)
(0.0010794 2.41485e-07 1.13412e-07)
(0.000807225 2.67409e-07 6.40461e-08)
(0.000807943 -6.29389e-07 5.46348e-08)
(0.0010774 3.74686e-07 2.02464e-07)
(0.000805639 1.93904e-07 5.45158e-08)
(0.000806318 -1.19277e-07 4.83415e-08)
(0.00107534 3.84224e-07 1.96675e-07)
(0.000804093 1.60006e-07 4.06216e-08)
(0.000804879 5.46978e-08 5.02621e-08)
(0.00107339 1.40971e-07 1.80058e-07)
(0.000802364 3.03004e-08 5.15844e-08)
(0.000803141 -1.68106e-07 5.52797e-08)
(0.00107109 2.55825e-07 1.66212e-07)
(0.000800973 -2.72466e-07 7.76759e-08)
(0.00080144 -1.15764e-07 6.3061e-08)
(0.00106896 -2.47059e-07 2.08811e-07)
(0.000799117 -4.13399e-07 1.02738e-08)
(0.000800031 -4.26479e-07 -5.83142e-09)
(0.00106689 -5.95802e-07 3.7793e-07)
(0.000797673 -3.13381e-07 -6.04719e-09)
(0.000798488 -3.74632e-07 -2.66469e-08)
(0.00106454 -6.1021e-07 3.09614e-07)
(0.000796283 -8.40467e-08 6.62948e-08)
(0.000797166 2.29334e-07 9.48207e-08)
(0.0010627 -2.87081e-07 1.27402e-07)
(0.000795176 8.21937e-08 7.01008e-08)
(0.000795905 -1.54272e-06 9.10524e-08)
(0.00106122 2.11933e-08 2.32717e-07)
(0.000793427 7.91332e-08 5.20797e-08)
(0.000794276 2.00251e-07 5.25504e-08)
(0.0010593 1.92927e-07 1.7484e-07)
(0.000791824 -7.57986e-08 3.95584e-08)
(0.000792633 2.13887e-07 4.97343e-08)
(0.001057 4.9186e-08 1.732e-07)
(0.00078995 7.62327e-09 3.6252e-08)
(0.000791105 1.09526e-07 3.79576e-08)
(0.00105469 -2.00315e-07 1.82428e-07)
(0.000788251 4.07587e-07 7.12444e-08)
(0.000789541 5.07877e-07 2.49119e-08)
(0.00105217 2.57332e-07 1.48853e-07)
(0.000788126 4.20437e-07 1.23353e-07)
(0.000788135 -3.35955e-06 5.10741e-08)
(0.00105104 8.30483e-07 2.61203e-07)
(0.000786153 1.01129e-07 8.63588e-08)
(0.000786646 4.00204e-07 2.35779e-07)
(0.00104976 3.33999e-07 1.81887e-07)
(0.000784609 -6.28578e-08 5.0811e-08)
(0.000785104 5.82702e-08 4.49353e-08)
(0.00104732 5.76176e-09 1.76933e-07)
(0.000783356 -2.74329e-07 7.22544e-08)
(0.000783647 -1.09394e-07 7.17257e-08)
(0.00104537 -1.332e-07 1.63295e-07)
(0.000781978 -4.68095e-07 3.28987e-08)
(0.000782314 1.61435e-06 8.15237e-08)
(0.00104388 -5.55811e-07 1.45091e-07)
(0.000779656 -3.73065e-07 1.70003e-08)
(0.000780892 2.77889e-06 5.4922e-08)
(0.00104126 -6.23721e-07 7.48313e-08)
(0.000778521 -1.82278e-07 2.3905e-08)
(0.000779391 -3.64273e-07 5.06e-08)
(0.00103893 -3.2478e-07 1.74107e-07)
(0.000777151 -1.5406e-07 2.6843e-08)
(0.000777872 4.30952e-08 3.54687e-08)
(0.00103736 -1.8364e-07 1.06751e-07)
(0.000775849 -1.88907e-07 5.47168e-08)
(0.000776485 -2.89803e-08 9.64549e-08)
(0.00103545 -2.43079e-07 1.71838e-07)
(0.000774393 -2.97811e-07 5.22002e-08)
(0.000775167 -6.12512e-10 2.24712e-08)
(0.0010338 -2.80318e-07 1.78958e-07)
(0.000772748 -3.77742e-07 2.71628e-08)
(0.000773589 -3.24206e-07 4.01084e-08)
(0.0010316 -5.24287e-07 2.03639e-07)
(0.000772253 8.41623e-07 6.19835e-08)
(0.00102941 -4.54053e-07 1.13652e-07)
(0.00582589 0.0010666 0.000596808)
(0.0116809 -0.0191181 -0.000278699)
(-0.00751704 0.000985769 0.00104358)
(0.0065389 -0.00381944 -2.4483e-05)
(-0.011665 0.00970362 0.00119222)
(-0.000955319 0.000799662 -0.000853491)
(4.32965e-05 9.80578e-05 -0.000667464)
(-0.0170572 0.0114912 0.00336733)
(0.00562934 -0.00496761 -0.00231549)
(-0.00430975 7.83581e-05 0.000351012)
(0.00202924 -0.00729857 0.000329139)
(-0.00931796 0.00381593 0.000711003)
(0.0107972 -0.0122354 0.000661354)
(-0.00300088 -0.00875644 0.00106945)
(0.00332943 -0.00152589 0.000117817)
(0.00423331 -0.00156295 0.000690869)
(0.00350921 -0.00848798 -0.000579358)
(-0.0184515 -0.00317507 0.00159047)
(0.00559907 0.00193146 -0.000431977)
(-0.0134068 -0.00926572 9.04212e-05)
(-0.00264286 -0.0168855 0.000140456)
(-0.017116 -0.00625798 0.00216166)
(-0.00636302 0.00234095 0.000411983)
(0.00422675 0.00189096 0.000212659)
(0.0139868 -0.00377242 0.000850633)
(0.00880744 -0.00966101 0.000312466)
(0.011668 -0.00619071 0.000248094)
(0.00769227 -0.00751267 -0.000675737)
(-0.0020494 0.00964773 -0.000514616)
(-0.0100934 0.00723544 0.000218196)
(0.00149246 0.00532885 -0.000194221)
(-0.0063372 0.00913811 -0.00033238)
(-0.01134 0.00554205 -0.000941187)
(0.00145249 0.000397164 8.23246e-05)
(0.00173181 0.000746197 6.98504e-05)
(0.0017606 7.49033e-05 0.000142562)
(0.00146406 0.000374899 5.88989e-05)
(0.00129156 0.000288915 8.48571e-05)
(0.000352953 -1.57428e-05 -2.50876e-06)
(0.000522081 -2.40272e-05 -3.23013e-06)
(0.000508199 -2.94955e-05 -5.41705e-07)
(0.000828993 -5.64863e-05 -1.21027e-06)
(0.00036083 -1.49207e-05 -2.11329e-06)
(0.000645989 -2.07244e-05 -1.74499e-06)
(0.000670979 -1.90078e-05 1.55513e-06)
(0.000491169 -2.97751e-05 -3.01363e-07)
(0.000854289 -8.60834e-06 -1.01717e-06)
(0.000899744 -4.52815e-06 -2.1093e-06)
(0.00122058 -1.72194e-05 -1.22537e-06)
(0.000631693 -1.32546e-05 -3.78518e-06)
(0.000648001 5.00996e-06 -5.12168e-06)
(0.00104524 -2.33887e-05 -4.59611e-06)
(0.00108095 1.69995e-05 -6.53773e-06)
(0.000843663 -3.08087e-06 -1.82024e-07)
(0.000838512 3.48983e-06 -3.28031e-07)
(0.00111556 -4.452e-06 5.12332e-08)
(0.000837377 -1.731e-06 8.1505e-08)
(0.000840661 5.37729e-07 1.17492e-07)
(0.00112212 -2.92704e-06 1.95776e-07)
(0.000833159 -6.80223e-07 3.98089e-08)
(0.000834352 6.00955e-07 4.42948e-08)
(0.0011125 -1.12947e-06 1.9418e-07)
(0.000829768 -3.28103e-07 4.3687e-08)
(0.000831367 8.19322e-08 4.4781e-08)
(0.00110839 -3.18882e-07 1.91735e-07)
(0.000827148 -1.69199e-07 4.47803e-08)
(0.000828478 1.96482e-07 4.5552e-08)
(0.00110439 -3.11177e-07 1.75675e-07)
(0.000825303 6.26798e-08 4.12954e-08)
(0.000826257 7.09581e-08 5.18022e-08)
(0.00110163 1.98787e-08 1.84848e-07)
(0.000822953 2.73324e-07 4.45545e-08)
(0.000824338 6.07378e-07 4.3329e-08)
(0.00109884 2.32321e-07 1.72439e-07)
(0.000821453 4.4417e-07 6.81888e-08)
(0.000822496 -1.23536e-07 4.84552e-08)
(0.00109625 5.36713e-07 1.8613e-07)
(0.000819931 5.73576e-07 7.3566e-08)
(0.000820817 -2.23944e-07 7.86415e-08)
(0.00109438 6.4891e-07 1.86075e-07)
(0.000818315 5.11744e-07 4.86181e-08)
(0.000818968 -2.22741e-07 8.19449e-08)
(0.00109224 8.67611e-07 1.79602e-07)
(0.000816626 3.1788e-07 3.7199e-08)
(0.00081722 1.65015e-07 3.58632e-08)
(0.00109001 4.8814e-07 1.86885e-07)
(0.00081499 2.25971e-07 4.09224e-08)
(0.000815776 -1.40887e-07 4.76163e-08)
(0.00108788 3.61806e-07 2.03105e-07)
(0.000813069 3.17965e-07 5.9058e-08)
(0.000814239 3.23261e-07 4.3418e-08)
(0.00108547 2.58427e-07 2.00347e-07)
(0.000812092 3.72425e-07 6.39334e-08)
(0.000812619 -2.08109e-06 4.96436e-08)
(0.00108342 6.30312e-07 2.16339e-07)
(0.000810534 2.0924e-07 5.87838e-08)
(0.000811008 4.36698e-07 4.07188e-08)
(0.00108191 4.43498e-07 1.42822e-07)
(0.000808868 8.22847e-08 5.49245e-08)
(0.000809452 1.97288e-08 6.0083e-08)
(0.00107979 2.09894e-07 2.11217e-07)
(0.000807007 -6.99903e-09 3.89322e-08)
(0.000807831 -1.18114e-07 4.79941e-08)
(0.00107731 8.31796e-08 1.70486e-07)
(0.0008055 -8.24186e-08 4.40872e-08)
(0.000806224 5.19353e-08 5.43213e-08)
(0.00107505 -4.3297e-08 1.63429e-07)
(0.000804096 -2.78646e-07 6.49185e-08)
(0.000804635 -1.64806e-07 5.41499e-08)
(0.00107319 -1.4964e-07 1.82075e-07)
(0.000802016 -3.58642e-07 6.67538e-08)
(0.000803042 -6.69754e-07 4.79809e-08)
(0.00107084 -6.46354e-07 2.61687e-07)
(0.000800626 -2.34786e-07 -2.04247e-08)
(0.000801597 -1.93107e-07 3.81811e-08)
(0.00106841 -3.94793e-07 1.71041e-07)
(0.000799299 -1.11268e-07 -4.27457e-08)
(0.000800187 2.34828e-07 8.21549e-08)
(0.00106677 -3.02113e-07 1.13563e-07)
(0.000797958 2.38531e-07 7.41829e-08)
(0.000798926 3.55676e-07 3.10192e-08)
(0.00106503 -6.37721e-08 1.09964e-07)
(0.000796842 5.07357e-07 1.19579e-07)
(0.0007975 -2.00634e-06 7.06376e-08)
(0.00106334 6.74597e-07 3.00701e-07)
(0.000795097 3.35378e-07 7.3514e-08)
(0.000795689 -2.26223e-06 5.20209e-08)
(0.00106151 7.05646e-07 2.4923e-07)
(0.00079333 1.57034e-07 5.02058e-08)
(0.000794052 5.66432e-07 7.75748e-08)
(0.00105913 2.25131e-07 1.74079e-07)
(0.00079202 1.6976e-07 4.81372e-08)
(0.000792648 -1.01318e-07 5.2398e-08)
(0.00105701 2.11972e-07 1.82212e-07)
(0.000790632 2.94749e-07 2.66216e-08)
(0.00079126 7.81644e-08 5.17741e-08)
(0.00105522 2.50953e-07 1.69083e-07)
(0.000789387 6.0033e-07 4.73339e-09)
(0.000789921 7.04418e-08 3.2785e-08)
(0.00105358 5.39729e-07 1.85694e-07)
(0.000786749 5.98416e-07 1.63443e-07)
(0.00078813 -1.02771e-06 1.11599e-08)
(0.00105097 1.03809e-06 1.12068e-07)
(0.00078552 2.75883e-07 1.94414e-07)
(0.000786241 2.77888e-07 2.04096e-07)
(0.00104827 5.67774e-07 1.62016e-07)
(0.000784158 5.38136e-08 6.58418e-08)
(0.000784825 -7.10181e-08 5.75266e-08)
(0.00104659 2.09257e-07 1.74724e-07)
(0.000782588 -1.89942e-07 8.0992e-08)
(0.000783343 6.27241e-09 6.65315e-08)
(0.00104467 -5.09458e-08 1.76027e-07)
(0.000781237 -4.78995e-07 1.03555e-07)
(0.000781954 3.66956e-07 1.08879e-07)
(0.00104265 -4.36532e-07 2.55114e-07)
(0.000780636 -3.95076e-07 8.8523e-08)
(0.000780999 3.08081e-07 1.00099e-07)
(0.00104149 -8.08767e-07 2.76268e-07)
(0.000778782 -1.48694e-07 6.21683e-08)
(0.000779701 -8.97927e-08 7.21559e-08)
(0.00103981 -2.35346e-07 1.90974e-07)
(0.000777045 -1.31227e-08 1.05062e-07)
(0.000778042 4.72225e-08 8.78733e-08)
(0.00103738 -1.95201e-07 2.00398e-07)
(0.000775947 4.14716e-08 6.42319e-08)
(0.000776553 -1.11565e-06 8.40481e-08)
(0.00103555 1.25366e-07 2.21972e-07)
(0.000774304 -7.06916e-08 1.03741e-08)
(0.000775027 2.79882e-07 3.01702e-08)
(0.00103369 -3.49047e-08 1.72207e-07)
(0.000773028 -1.55524e-07 7.49224e-08)
(0.000773486 8.10471e-08 4.35231e-08)
(0.00103165 -1.99882e-07 1.29831e-07)
(0.000772446 -1.29089e-07 1.14321e-07)
(0.00103021 -2.61254e-07 2.32654e-07)
(0.0225256 -0.0137494 -0.00452289)
(0.0517734 0.0142889 -0.00270416)
(-0.000695665 0.0634277 -0.000913747)
(0.0199358 0.0250498 -0.00944113)
(-0.0149498 0.00856662 0.000664159)
(-0.0107597 0.00846736 0.00130587)
(-0.0229433 0.0168833 0.00334443)
(0.0241322 0.00702 0.000547167)
(-0.00709121 0.00833878 -0.000102909)
(-0.00404968 0.00596284 -0.000251301)
(0.00727394 -0.00399734 -0.000118278)
(0.00519494 -0.00188981 -0.000813143)
(0.000483559 0.00818167 -0.000746146)
(0.00190413 0.00282859 -2.41063e-05)
(0.00200953 0.00202097 -0.000572782)
(0.00165269 -0.00113225 -2.07049e-05)
(0.00792333 -0.00312778 -0.00222117)
(0.00718231 -0.00307278 -0.000354123)
(-0.0027105 0.00762019 -6.04378e-05)
(0.00164239 0.00365764 -0.000577888)
(-0.00181382 0.0114014 -0.00047195)
(-0.00156251 0.00209577 -0.000570761)
(0.00286268 0.000135821 0.00118899)
(0.00562738 0.00276772 0.00384611)
(0.000788303 0.00465444 0.000784429)
(0.0114337 0.00190843 0.0191486)
(2.95937e-05 0.0048825 -0.00337266)
(-0.00110168 -0.00477641 0.0222251)
(0.00439391 0.00332837 -0.040757)
(0.00178458 0.00221377 0.000778776)
(0.00389585 0.00161982 0.000632441)
(0.00789859 0.00510984 0.000683537)
(0.00177983 0.0084666 0.000628712)
(0.00520651 -0.000332205 0.000199908)
(0.00311147 0.000367272 0.00217264)
(0.00170261 -0.000187965 0.000134918)
(0.0029993 0.00252849 -1.09223e-05)
(0.00281804 0.00164206 -7.40073e-05)
(0.000659804 -0.00038373 3.10403e-06)
(0.000413804 -0.000150542 3.9081e-05)
(0.00030448 -0.00038554 1.31946e-05)
(0.000361471 -0.000708535 1.94845e-05)
(0.000616884 -0.000152539 6.44429e-05)
(0.000292979 -2.66725e-05 1.4305e-05)
(0.00035235 3.91346e-06 5.27439e-07)
(0.000296041 -8.21445e-06 2.02062e-06)
(0.000482831 1.26669e-05 4.674e-06)
(0.000247484 3.77738e-06 -1.43282e-06)
(0.000849807 3.74522e-06 -1.42075e-06)
(0.00087718 -2.01309e-06 -2.45846e-06)
(0.00117493 -4.42572e-07 -1.42072e-06)
(0.000618851 1.18539e-05 -4.15385e-06)
(0.000621756 -1.978e-06 -4.99272e-06)
(0.00104629 2.58871e-05 -4.7889e-06)
(0.00105079 -5.4115e-06 -5.79422e-06)
(0.000840843 5.12385e-06 -2.86609e-08)
(0.000840172 1.30313e-05 -1.65583e-07)
(0.00111796 9.54551e-06 1.49483e-07)
(0.0008358 2.56809e-06 8.03055e-08)
(0.000837449 4.52584e-06 7.18229e-08)
(0.00111798 3.526e-06 1.95463e-07)
(0.000832636 1.67523e-06 4.92668e-08)
(0.000833227 2.90696e-06 4.45918e-08)
(0.00111146 2.96883e-06 1.5478e-07)
(0.000829819 7.99467e-07 4.66457e-08)
(0.000830266 2.00396e-06 4.56337e-08)
(0.00110805 1.30163e-06 1.52672e-07)
(0.000827403 4.92541e-07 5.25718e-08)
(0.000828091 1.19385e-06 5.43565e-08)
(0.00110464 7.3854e-07 1.82122e-07)
(0.000825264 2.92828e-07 5.38385e-08)
(0.000826005 7.1691e-07 5.20538e-08)
(0.00110164 5.17934e-07 1.82716e-07)
(0.000823832 1.82224e-07 4.7228e-08)
(0.000824198 1.98508e-07 5.17673e-08)
(0.00109942 2.23916e-07 1.94858e-07)
(0.000821827 2.00396e-07 5.88982e-08)
(0.000822518 5.47517e-07 5.00674e-08)
(0.00109715 2.34183e-07 1.70088e-07)
(0.000819937 1.46917e-07 8.70192e-08)
(0.000820749 -5.36872e-07 7.304e-08)
(0.0010946 2.70923e-07 2.28206e-07)
(0.000817727 1.25476e-07 6.92048e-08)
(0.000818941 6.51546e-07 6.16792e-08)
(0.00109183 7.55992e-08 1.74277e-07)
(0.000816368 1.80171e-07 4.62768e-08)
(0.000817288 -7.55581e-08 3.45797e-08)
(0.00108942 2.07883e-07 1.77967e-07)
(0.000815058 1.69621e-07 5.01133e-08)
(0.000815762 -1.88864e-07 6.27419e-08)
(0.00108772 2.36807e-07 1.60586e-07)
(0.000813775 2.41157e-07 3.40016e-08)
(0.000814327 -3.68091e-08 4.9146e-08)
(0.00108604 1.9275e-07 1.80155e-07)
(0.000811552 2.48794e-07 2.64319e-08)
(0.000812627 -2.60118e-07 6.27254e-09)
(0.00108376 4.38588e-07 1.10344e-07)
(0.000809874 1.08445e-07 4.20119e-08)
(0.000810831 -1.00446e-07 4.50066e-08)
(0.00108099 2.5727e-07 2.27343e-07)
(0.000808487 9.20345e-09 5.31565e-08)
(0.000809327 -1.61759e-07 3.91684e-08)
(0.00107895 6.4787e-08 1.77287e-07)
(0.000806963 -4.41101e-08 6.33811e-08)
(0.000807764 -1.43921e-07 4.38818e-08)
(0.00107709 -2.57994e-08 1.78649e-07)
(0.000805403 -5.79052e-08 6.4384e-08)
(0.000806206 6.46358e-08 6.71882e-08)
(0.00107505 -5.64212e-08 1.7919e-07)
(0.000803619 -1.25539e-07 3.72143e-08)
(0.00080455 -7.42215e-08 5.95456e-08)
(0.00107263 -5.29314e-08 1.9369e-07)
(0.00080249 6.74464e-08 1.94113e-08)
(0.000803283 3.09943e-07 4.56312e-09)
(0.00107079 -2.03323e-07 7.34569e-08)
(0.000801279 3.84498e-07 1.40747e-07)
(0.000801991 5.97035e-07 3.68735e-08)
(0.00106939 4.89083e-07 9.41765e-08)
(0.000799667 4.75832e-07 1.55936e-07)
(0.000800298 3.68256e-07 1.39185e-07)
(0.00106731 6.623e-07 1.76082e-07)
(0.000798614 4.78553e-07 2.74615e-08)
(0.000798926 5.75805e-07 3.70067e-08)
(0.00106576 7.18504e-07 1.20618e-07)
(0.000796366 3.09523e-07 3.08497e-09)
(0.000797287 7.43682e-08 5.31796e-08)
(0.00106366 6.03122e-07 9.4681e-08)
(0.000794544 8.16189e-08 5.60738e-08)
(0.000795403 1.85096e-07 2.8399e-08)
(0.00106065 2.55894e-07 3.07611e-08)
(0.000793341 3.20979e-08 7.97749e-08)
(0.00079399 -2.49063e-08 7.86366e-08)
(0.00105867 -7.08516e-10 1.92135e-07)
(0.000791907 3.93732e-08 5.60351e-08)
(0.000792657 -1.27661e-07 4.88839e-08)
(0.00105703 9.07598e-08 1.72637e-07)
(0.00079051 -3.30403e-08 5.79434e-08)
(0.00079117 -3.90853e-08 6.53024e-08)
(0.0010551 2.37022e-08 1.76007e-07)
(0.000788974 -1.8929e-07 3.92182e-08)
(0.000789725 -1.74179e-07 4.90219e-08)
(0.00105315 -7.74356e-08 1.97979e-07)
(0.000787296 -2.36799e-07 5.17527e-08)
(0.000788071 -4.27181e-07 1.92557e-08)
(0.00105107 -3.62676e-07 1.50143e-07)
(0.000785588 -1.05208e-07 6.72532e-08)
(0.000786406 -5.62618e-07 3.71057e-08)
(0.00104872 -2.26399e-07 2.56806e-07)
(0.000784078 -6.33701e-10 5.82135e-08)
(0.000784956 -2.09333e-07 3.17623e-09)
(0.00104655 -5.82836e-08 1.8868e-07)
(0.000782624 1.86149e-07 9.44054e-08)
(0.000783575 -1.96477e-07 1.16553e-07)
(0.00104456 8.73655e-08 1.88573e-07)
(0.000781518 4.18656e-07 1.05426e-07)
(0.000782243 -1.38435e-06 1.62785e-07)
(0.00104293 4.78806e-07 2.69404e-07)
(0.000780419 3.49755e-07 8.37406e-08)
(0.000780911 3.37446e-07 5.98558e-08)
(0.00104152 6.9673e-07 1.40175e-07)
(0.000778887 2.00318e-07 9.78561e-08)
(0.000779512 -6.58227e-08 1.86184e-08)
(0.0010397 3.07669e-07 1.79998e-07)
(0.000777443 3.00163e-07 6.68607e-08)
(0.000778165 -3.65501e-08 7.87559e-08)
(0.00103781 3.14072e-07 1.80169e-07)
(0.000775698 4.13667e-07 5.00029e-08)
(0.000776694 -5.22545e-08 4.60652e-08)
(0.00103565 5.17852e-07 1.24217e-07)
(0.000774207 3.318e-07 6.33151e-08)
(0.000774924 3.96274e-07 6.52012e-08)
(0.0010334 5.64658e-07 1.70289e-07)
(0.000772692 1.80133e-07 8.28999e-08)
(0.000773294 1.53522e-07 4.85421e-08)
(0.00103132 2.89375e-07 1.75984e-07)
(0.000772221 -1.02204e-06 1.39286e-07)
(0.00102998 1.70519e-07 2.02779e-07)
(-0.0090401 -0.00175187 0.0012586)
(-0.0280705 -0.0394418 -0.00112199)
(-0.0322756 -0.0427251 0.00520111)
(-0.011328 -0.0443966 -0.00122398)
(-0.0222777 -0.00375908 0.000468144)
(-0.000776245 -0.0154624 0.00114342)
(0.000735754 -0.00565929 0.00436806)
(-0.00254864 -0.00120394 0.00123819)
(0.0186126 -0.00660021 0.00163052)
(0.00194299 0.00465215 0.000615187)
(-0.00388424 0.000260302 0.000522885)
(-0.00217858 0.00602476 -0.000463643)
(-0.0298667 0.0113011 0.00376607)
(-0.0165962 0.00860245 -0.00377104)
(0.00950433 0.0131359 0.000296507)
(-0.00767883 0.00631324 -0.000226767)
(0.00311836 -0.00175344 0.00179902)
(-0.00432421 0.00188318 -0.000932127)
(-0.00872449 0.0123442 -0.00115085)
(0.000480529 0.0014469 -0.00305078)
(-0.00262273 0.00946313 -0.000810171)
(-0.0140472 0.00133031 -0.000781492)
(-0.000360388 0.00940334 0.00103525)
(-0.00696108 0.007982 -0.00138409)
(-0.00329657 -0.00197344 -0.000492707)
(0.00783384 0.000372821 -2.27657e-05)
(0.0082018 -0.000866344 0.000395666)
(0.00116714 0.00666704 -0.00025967)
(0.00427517 -0.00100498 -0.000946983)
(0.00553953 0.0122798 0.000439237)
(0.0124056 -0.00177433 0.000450345)
(0.0116585 0.000426228 0.00125722)
(0.0114005 -0.0123049 -4.6508e-05)
(0.00815373 0.00197606 0.00171528)
(0.00146237 0.000806238 0.000133674)
(0.00626271 0.00200774 9.9895e-05)
(-0.0011717 0.00241168 0.000159807)
(-0.000293255 0.0025305 0.000156572)
(-0.00573487 0.00564547 0.000509264)
(6.88868e-05 -0.000302142 3.56464e-06)
(0.00058715 -0.00011324 5.28384e-07)
(0.000898418 -0.000554534 -4.35019e-05)
(0.00163663 -0.002061 -6.14508e-06)
(0.000523566 -0.000124093 -1.99086e-05)
(-0.000589712 -0.000377252 1.80787e-05)
(0.00102133 -0.000112616 -1.17757e-05)
(0.000360107 -0.00022234 2.6791e-05)
(0.000676784 -6.27964e-06 2.17653e-06)
(0.000675945 -5.03907e-05 -6.90806e-06)
(3.72386e-05 0.000146186 -2.46881e-05)
(0.00089943 -0.000209735 4.5536e-05)
(0.00123374 -0.000190062 -4.98682e-05)
(0.000610468 -0.000206926 -6.09648e-06)
(0.00138515 2.11475e-05 1.35197e-05)
(0.000474715 -0.000125208 4.11985e-05)
(0.000470963 -0.000182432 4.11844e-05)
(0.000635001 -0.00015003 9.0209e-05)
(0.000363281 -9.03515e-05 2.42793e-05)
(0.0008514 6.96744e-06 -1.20404e-06)
(0.000608302 3.94722e-06 -1.38402e-06)
(0.00116131 -1.51205e-05 -1.41088e-06)
(0.000616795 1.40672e-05 -4.60565e-06)
(0.000606388 -1.21945e-05 -2.53113e-06)
(0.00103346 3.54198e-05 -4.00111e-06)
(0.00104132 -2.5202e-05 1.97307e-06)
(0.000572728 -2.27082e-05 -4.51193e-06)
(0.00103038 2.88098e-06 -8.59512e-07)
(0.000948635 -4.04429e-05 -5.42251e-06)
(0.000837491 1.48901e-05 -6.51767e-08)
(0.000862536 2.9254e-05 -7.33751e-07)
(0.00112034 3.08474e-05 1.13467e-07)
(0.000834535 5.23773e-06 3.6118e-08)
(0.000825387 6.20943e-06 -2.31266e-07)
(0.00111385 6.97544e-06 1.79721e-07)
(0.000830394 3.53048e-06 4.09585e-08)
(0.000831079 5.941e-06 1.245e-07)
(0.0011097 5.89695e-06 1.8953e-07)
(0.000828488 1.8716e-06 5.33417e-08)
(0.000828184 2.34741e-06 7.33958e-08)
(0.00110558 2.81436e-06 1.83037e-07)
(0.000826627 1.1802e-06 5.38392e-08)
(0.000827222 1.46174e-06 5.87657e-08)
(0.0011034 1.74666e-06 1.84798e-07)
(0.000824815 7.70923e-07 4.99827e-08)
(0.00082549 9.55985e-07 4.6672e-08)
(0.00110098 1.13626e-06 1.82705e-07)
(0.0008229 3.61625e-07 5.46073e-08)
(0.000823685 5.99725e-07 4.1476e-08)
(0.00109848 7.55274e-07 1.80686e-07)
(0.000821459 -7.03004e-09 6.42019e-08)
(0.000822056 1.80296e-07 5.55461e-08)
(0.00109631 1.18938e-07 1.9304e-07)
(0.000819748 -2.26939e-07 4.77037e-08)
(0.000820475 3.44343e-07 6.19945e-08)
(0.00109418 -1.69511e-07 1.30419e-07)
(0.000818428 -2.52945e-07 2.70628e-08)
(0.000818909 2.17801e-07 4.25216e-08)
(0.00109216 -4.47951e-07 1.87723e-07)
(0.000816674 -1.15527e-07 5.10358e-08)
(0.00081746 1.22965e-07 5.12135e-08)
(0.00109021 -2.48584e-07 1.81853e-07)
(0.000814985 -7.28879e-08 6.17789e-08)
(0.000815816 -4.58557e-08 6.97497e-08)
(0.00108786 -9.20887e-08 1.80156e-07)
(0.000813363 -1.81991e-07 2.14306e-08)
(0.000814192 4.99902e-08 7.2755e-08)
(0.00108572 -1.34827e-07 1.78562e-07)
(0.00081169 -1.80135e-07 2.48349e-08)
(0.000812631 -6.5201e-08 9.60622e-08)
(0.00108349 -3.7584e-07 1.75722e-07)
(0.000810379 -1.51683e-09 4.2165e-08)
(0.000811055 -8.89422e-08 8.36151e-08)
(0.00108144 -1.43019e-07 1.57011e-07)
(0.00080859 1.35227e-07 2.98922e-08)
(0.000809498 7.13682e-08 5.01401e-08)
(0.00107943 9.01648e-08 1.83556e-07)
(0.000806972 2.47563e-07 4.76814e-08)
(0.000807904 -2.3376e-08 4.94052e-08)
(0.00107716 2.39333e-07 1.76626e-07)
(0.000805445 3.62863e-07 6.23521e-08)
(0.000806349 5.27731e-08 6.62885e-08)
(0.00107502 4.07995e-07 1.78005e-07)
(0.000803974 5.84985e-07 2.69118e-08)
(0.000804825 6.49484e-07 4.59308e-08)
(0.00107301 5.77384e-07 1.21624e-07)
(0.000803 5.44074e-07 2.20151e-08)
(0.000803228 1.07352e-06 1.11639e-08)
(0.00107152 1.06653e-06 7.50899e-08)
(0.000800967 3.38609e-07 3.52793e-08)
(0.000801731 -1.30619e-07 5.23422e-08)
(0.00106948 5.23118e-07 2.73814e-07)
(0.000799484 4.10001e-07 2.02878e-08)
(0.000800385 3.34137e-07 4.85097e-08)
(0.00106704 5.4011e-07 1.76587e-07)
(0.000797838 1.88276e-07 6.27197e-08)
(0.000798647 -1.02662e-06 2.84294e-08)
(0.00106495 7.13934e-07 3.0225e-07)
(0.000796132 -1.07343e-07 7.85014e-08)
(0.000796916 -3.19237e-07 7.81971e-08)
(0.00106276 -7.47576e-08 2.22185e-07)
(0.000794768 -2.62238e-08 5.09461e-08)
(0.000795504 -6.22457e-08 5.14609e-08)
(0.00106076 -1.30949e-07 1.81721e-07)
(0.000793414 3.43673e-08 4.77549e-08)
(0.000794065 3.02251e-09 4.89407e-08)
(0.00105892 9.04327e-08 1.61469e-07)
(0.000791852 -1.24764e-08 5.81461e-08)
(0.000792598 -5.93909e-08 4.69685e-08)
(0.00105704 1.54686e-08 1.77274e-07)
(0.000790427 -9.00398e-08 5.6386e-08)
(0.000791073 -1.69893e-07 -2.03156e-08)
(0.00105501 -5.03774e-08 1.79534e-07)
(0.000788881 -2.5161e-07 2.90686e-08)
(0.000789524 1.09585e-07 5.57184e-08)
(0.0010531 -1.97405e-07 1.60949e-07)
(0.000787081 -3.78536e-07 4.60319e-09)
(0.000787914 -2.97046e-07 3.00668e-08)
(0.00105079 -4.98844e-07 1.94905e-07)
(0.000785821 -2.80355e-07 -2.69608e-08)
(0.00078653 6.46343e-07 -9.16153e-08)
(0.00104865 -5.56057e-07 6.91077e-08)
(0.00078439 -7.11578e-08 6.14809e-08)
(0.000785218 -1.15632e-07 6.00035e-09)
(0.00104699 -2.05771e-07 1.6485e-07)
(0.000783204 7.46443e-08 1.84918e-07)
(0.000783757 -3.5979e-07 1.34009e-07)
(0.00104533 5.45018e-08 1.61521e-07)
(0.000781614 1.19297e-07 1.17247e-07)
(0.000782298 9.33943e-08 1.06017e-07)
(0.00104341 2.22523e-07 7.96195e-08)
(0.000780023 4.21813e-08 -5.25373e-09)
(0.000780813 4.02968e-08 5.65203e-08)
(0.00104127 1.7655e-07 2.08447e-07)
(0.000778779 -1.08522e-08 -5.00205e-10)
(0.000779445 -9.52967e-09 7.51351e-08)
(0.00103933 6.26067e-10 1.5149e-07)
(0.000777474 1.39756e-08 5.79704e-08)
(0.000778196 -7.35223e-08 4.71611e-08)
(0.00103763 1.01212e-08 1.64126e-07)
(0.000775988 1.5762e-07 6.12577e-08)
(0.000776873 1.04128e-06 4.09805e-08)
(0.00103586 2.58848e-08 9.84055e-08)
(0.0007739 2.22606e-07 5.04332e-08)
(0.000775004 1.21376e-06 4.75979e-08)
(0.0010334 3.51763e-07 1.73609e-07)
(0.000772681 2.03714e-07 1.049e-07)
(0.000773267 -5.54395e-08 5.82078e-08)
(0.00103115 2.117e-07 1.69494e-07)
(0.000771967 -1.29309e-06 1.06685e-07)
(0.00102964 3.34088e-07 1.99333e-07)
(-0.00238153 0.0261632 0.000127598)
(-0.00956656 -0.00316965 0.000510895)
(-0.00211049 -0.00565155 0.000471463)
(-0.00457113 0.000586888 0.0029574)
(0.00414856 -0.0326327 -0.00208206)
(0.00976164 -0.00989587 -0.00213278)
(0.00463072 0.00138161 -0.00153289)
(-0.00960108 -0.0134319 -0.00220491)
(0.0068174 -0.016827 0.0384933)
(0.0126353 -0.0125211 -0.0436976)
(0.0211904 -0.00764793 -0.0198607)
(0.00491039 -0.0130399 0.0095057)
(-0.00705396 -0.00127126 0.000378255)
(-0.00273599 -0.01982 -0.000310417)
(0.00460673 -0.00900825 0.00236441)
(0.0051273 -0.0065247 0.000617322)
(0.00298067 0.0042977 5.51027e-05)
(-0.00464848 0.000329352 9.60837e-05)
(0.00520628 -0.00369109 8.20802e-05)
(2.04453e-05 0.00186673 7.32455e-05)
(0.000537994 0.00524759 -0.000619869)
(0.00497195 -0.00378051 0.000163005)
(0.00456093 -0.0102332 0.000721809)
(0.00365738 0.00225062 -1.00776e-05)
(0.00806159 -0.0112042 -0.000776849)
(-0.00624327 -0.0109972 0.000132303)
(-0.00490548 -0.0192392 -0.000314599)
(0.00232967 -0.00781534 -0.000306503)
(0.00395063 -0.00531556 -0.000688387)
(0.000878972 -0.00272635 0.000343099)
(0.00112762 -0.00572963 0.000688763)
(0.00162392 0.00188192 -0.000243569)
(0.00045634 -0.00234222 3.60691e-05)
(-0.00143522 -0.000446999 5.6037e-05)
(-0.0010392 -0.00188881 3.57417e-05)
(0.000820316 -0.00160119 0.000106248)
(-0.00225928 -0.000987024 -8.32705e-05)
(0.000281249 -0.000635718 4.45467e-06)
(0.000607505 -0.000245636 -3.80503e-05)
(0.000915517 -0.000202782 -8.44139e-07)
(0.000273925 -0.000924641 -3.68369e-05)
(1.12748e-05 -0.000670908 1.28938e-05)
(0.00124921 -0.00122116 9.15313e-06)
(-0.000523587 -0.00100026 3.39748e-05)
(0.000624868 -0.000295139 -2.38216e-05)
(0.000667585 -0.000318147 -1.72866e-08)
(0.000651998 -0.000219238 1.34516e-05)
(0.000682716 -0.000335254 -3.74477e-06)
(0.000737217 6.38372e-05 4.67771e-05)
(0.00108717 4.87434e-05 -1.20274e-06)
(0.00127565 7.82061e-05 9.27212e-07)
(0.00125218 7.3685e-05 -4.18778e-05)
(0.00120948 -3.27284e-06 1.7067e-05)
(0.000332599 -2.36564e-05 -2.91128e-06)
(0.000480933 -6.24124e-06 -3.4236e-06)
(0.000482455 -5.68126e-07 -1.53134e-07)
(0.000793023 5.54648e-07 -9.39064e-07)
(0.000330851 -6.59137e-06 -2.54328e-06)
(0.000600823 -6.42404e-05 -4.23674e-06)
(0.000599613 -2.0685e-05 -3.02955e-06)
(0.000825347 1.2916e-05 -9.00005e-07)
(0.000880801 5.44672e-06 -1.25215e-06)
(0.00117874 2.58592e-05 -9.28759e-07)
(0.000596613 -2.66071e-06 -4.19926e-06)
(0.000605723 1.01569e-05 -5.15184e-06)
(0.000978653 -1.81957e-05 -5.11004e-06)