/*--------------------------------*- C++ -*----------------------------------*\
| =========                 |                                                 |
| \\      /  F ield         | OpenFOAM: The Open Source CFD Toolbox           |
|  \\    /   O peration     | Version:  5.0                                   |
|   \\  /    A nd           | Web:      www.OpenFOAM.org                      |
|    \\/     M anipulation  |                                                 |
\*---------------------------------------------------------------------------*/
FoamFile
{
    version     2.0;
    format      ascii;
    class       surfaceVectorField;
    location    "4.6";
    object      Uf_0;
}
// * * * * * * * * * * * * * * * * * * * * * * * * * * * * * * * * * * * * * //

dimensions      [0 1 -1 0 0 0 0];

internalField   nonuniform List<vector> 
25186
(
(0.00252627 0.00446745 -2.98768e-05)
(0.00320723 0.00417648 0.000434186)
(0.00160948 0.00628358 -0.000253484)
(-0.000328336 0.00562504 0.000382496)
(-0.0122308 0.00339623 0.00210906)
(-0.0108732 0.00613622 0.000897134)
(0.00334227 0.00178757 0.000365682)
(0.00230821 -0.000293717 -0.000199533)
(0.000208055 -0.000507422 0.000143784)
(0.00250189 -0.000395726 0.000175329)
(0.00385035 -0.00368187 0.000555281)
(0.00324697 -0.000856283 0.000572908)
(-0.000789095 0.00567236 2.71454e-05)
(0.00567416 0.00311842 0.000866627)
(-0.00487084 -0.00152399 0.00101218)
(0.00307056 -0.00132787 -0.00306188)
(0.00261061 -0.000819261 -0.00226181)
(0.00248205 -0.000481656 0.00833145)
(-0.00151457 0.000178385 1.39114e-05)
(-0.00179983 0.00186715 -0.000169916)
(0.00172781 0.00160098 0.0003483)
(0.00692396 -0.00354927 0.000522869)
(-0.00220338 0.00453789 0.000519187)
(-0.000672403 0.00296595 -0.000713836)
(0.0030431 0.000785374 0.000273881)
(-0.00380401 0.00335863 0.00020012)
(-0.00375155 0.00481635 -8.89551e-05)
(-0.00657852 0.00734967 0.00013151)
(0.000438464 0.00987143 7.69829e-06)
(0.000688463 0.000190524 5.55523e-05)
(0.0010326 2.89796e-05 -3.89379e-06)
(0.00102601 3.39707e-05 -3.23815e-05)
(0.00106716 1.18556e-05 1.35564e-05)
(0.000437589 -4.74089e-06 1.74522e-06)
(0.000440666 -2.943e-06 -2.83391e-06)
(0.000439265 -1.27154e-06 2.1068e-07)
(0.000711856 1.57156e-05 2.96452e-07)
(0.000818767 -2.67395e-06 -9.28041e-07)
(0.000875133 -1.21198e-05 -1.49017e-06)
(0.00114966 -5.1866e-06 -1.11696e-06)
(0.000590535 -1.14642e-05 -4.11681e-06)
(0.000590294 -1.94316e-05 -4.98523e-06)
(0.000995772 -2.39258e-05 -5.05421e-06)
(0.000981986 -4.08549e-05 -6.31485e-06)
(0.000825347 -9.66543e-08 -7.35087e-08)
(0.000817818 -4.30595e-06 -4.45875e-07)
(0.00108619 -8.20442e-07 1.08286e-07)
(0.000826914 8.34692e-07 1.3877e-07)
(0.000830292 -1.45582e-06 1.74881e-07)
(0.00110547 1.15187e-06 2.10603e-07)
(0.000827325 9.47311e-07 3.6233e-08)
(0.000827639 -5.00612e-08 4.35894e-08)
(0.00110321 1.36352e-06 1.8285e-07)
(0.000826834 8.5884e-07 4.87187e-08)
(0.00082749 1.84318e-07 3.04557e-08)
(0.00110363 1.3031e-06 1.93044e-07)
(0.000825789 6.80281e-07 6.73221e-08)
(0.000826317 2.45372e-08 6.43408e-08)
(0.00110232 1.09613e-06 1.86434e-07)
(0.000824135 5.59115e-07 3.68826e-08)
(0.00082495 4.09299e-07 4.95904e-08)
(0.00110029 8.01679e-07 1.79158e-07)
(0.000822893 3.45029e-07 3.96654e-08)
(0.000823421 -1.22487e-07 2.91833e-08)
(0.00109836 7.28032e-07 1.96296e-07)
(0.000821318 1.22783e-07 2.8849e-08)
(0.000821925 2.30017e-07 5.55894e-08)
(0.0010965 2.12606e-07 1.82133e-07)
(0.000819549 5.64886e-08 3.7612e-08)
(0.000820432 7.29103e-09 4.01626e-08)
(0.0010942 1.19559e-07 1.00208e-07)
(0.000818237 3.40767e-08 1.26511e-07)
(0.000818928 -1.95719e-07 6.05531e-08)
(0.00109216 2.48697e-08 1.87229e-07)
(0.000816559 2.80718e-08 1.25351e-07)
(0.000817389 1.13683e-07 1.03191e-07)
(0.0010902 4.43943e-08 1.76753e-07)
(0.000814942 8.07063e-08 -1.39087e-08)
(0.000815785 1.41944e-07 7.59639e-08)
(0.00108801 1.61742e-08 2.36715e-07)
(0.000813229 1.10165e-07 -4.66241e-08)
(0.000814112 -1.00596e-07 -2.0321e-08)
(0.00108571 2.2615e-07 1.87111e-07)
(0.000812004 -5.55115e-09 2.72623e-08)
(0.000812481 6.82827e-07 1.8044e-07)
(0.00108376 1.19494e-07 9.59517e-08)
(0.000810409 1.21925e-08 5.76416e-08)
(0.000811189 -1.40086e-07 9.06281e-08)
(0.00108194 -7.43472e-08 1.84628e-07)
(0.000808877 9.91618e-08 6.52521e-08)
(0.000809731 -3.41787e-07 2.65111e-08)
(0.00107981 1.80032e-07 2.07203e-07)
(0.000807437 1.17023e-07 5.6811e-08)
(0.000808118 2.34657e-07 8.76767e-08)
(0.00107783 1.87167e-07 1.71116e-07)
(0.000805892 7.50135e-08 4.93756e-08)
(0.000806559 2.14235e-07 4.07886e-08)
(0.00107584 2.28906e-07 1.58502e-07)
(0.000804467 1.70269e-08 7.85493e-08)
(0.000805045 -9.90233e-08 4.78037e-08)
(0.00107399 2.56031e-08 1.7859e-07)
(0.000802485 -1.62649e-07 1.4381e-07)
(0.000803306 1.11588e-06 7.83038e-08)
(0.00107161 3.90273e-08 1.69019e-07)
(0.000801162 -5.41935e-07 5.87881e-08)
(0.000801568 -2.07983e-07 1.36331e-07)
(0.00106935 -4.76154e-07 1.58523e-07)
(0.000799406 -6.76252e-07 -3.09248e-08)
(0.00080023 2.42665e-06 4.4753e-08)
(0.00106741 -9.86492e-07 -5.82462e-09)
(0.000797734 -5.52143e-07 4.76341e-08)
(0.000798798 1.20006e-06 3.24097e-08)
(0.00106499 -8.27607e-07 8.49841e-08)
(0.000796554 -3.65201e-07 5.55515e-08)
(0.000797391 1.19482e-07 1.50298e-07)
(0.00106313 -6.18894e-07 1.91633e-07)
(0.000795502 -1.33616e-07 2.66137e-08)
(0.000796186 2.50758e-07 1.2454e-07)
(0.0010618 -2.9861e-07 1.12608e-07)
(0.000793768 -4.77967e-08 4.69596e-08)
(0.000794673 -7.55717e-10 4.37066e-08)
(0.00105993 4.25752e-09 1.58142e-07)
(0.000792199 -6.29615e-08 4.86496e-08)
(0.000793021 1.70561e-07 4.64109e-08)
(0.00105767 -5.64411e-08 1.74122e-07)
(0.000790757 6.98812e-09 2.53719e-08)
(0.000791601 2.55592e-08 4.05284e-08)
(0.0010556 -4.94888e-08 1.7476e-07)
(0.00078927 1.93698e-07 -1.09625e-08)
(0.000790131 1.90656e-07 3.47053e-08)
(0.00105354 1.23663e-07 1.65531e-07)
(0.000787588 3.80916e-07 1.82997e-08)
(0.000788604 3.41857e-07 2.37064e-09)
(0.00105153 4.73872e-07 1.87583e-07)
(0.000786822 2.64377e-07 5.03808e-08)
(0.000787136 -1.32316e-06 3.04434e-08)
(0.00105003 5.84732e-07 2.04819e-07)
(0.00078522 5.29058e-08 5.35252e-08)
(0.000785717 1.96283e-07 4.43101e-08)
(0.00104837 1.22059e-07 1.77241e-07)
(0.000783658 -1.25564e-07 7.72631e-08)
(0.000784238 3.22587e-08 7.35856e-08)
(0.00104614 3.06354e-08 1.7471e-07)
(0.000782372 -2.61908e-07 1.57359e-07)
(0.000782909 -2.47694e-07 6.20155e-08)
(0.00104451 -3.60362e-07 1.46712e-07)
(0.000780829 -2.2351e-07 1.38684e-07)
(0.000781551 -3.03501e-07 1.49011e-07)
(0.00104245 -3.25801e-07 1.80592e-07)
(0.000779287 -1.71768e-07 -1.29558e-08)
(0.00078008 1.28004e-07 4.99187e-08)
(0.00104032 -2.58642e-07 1.73701e-07)
(0.000777973 -1.52776e-07 -2.94708e-09)
(0.000778647 1.07231e-07 -1.9616e-09)
(0.00103851 -2.09931e-07 1.54247e-07)
(0.000776653 -3.1221e-07 1.20537e-07)
(0.000777245 4.29065e-09 4.32198e-08)
(0.00103665 -1.95929e-07 1.59621e-07)
(0.000775295 -3.63196e-07 8.00802e-08)
(0.000775933 -3.52745e-07 1.10042e-07)
(0.00103506 -5.97126e-07 1.6638e-07)
(0.000773213 -2.32687e-07 2.344e-08)
(0.000774234 1.10858e-06 2.9985e-09)
(0.00103265 -3.52913e-07 9.40929e-08)
(0.000772758 -5.08508e-07 4.65684e-08)
(0.0010301 -2.92523e-07 2.66232e-07)
(0.00403143 0.00113905 0.000670614)
(0.0112352 -0.0214177 8.5975e-05)
(-0.00888043 0.00171989 0.00140833)
(0.00654279 -0.00396835 -1.01842e-05)
(-0.0130973 0.0106235 0.00146724)
(-0.000714715 0.000757984 -0.00085658)
(-0.000265216 -0.000180209 -0.000729315)
(-0.0178081 0.0109928 0.00360822)
(0.00612365 -0.0051025 -0.00260277)
(-0.00567002 -9.23637e-05 0.000269533)
(0.0037199 -0.00645653 0.000303528)
(-0.0102982 0.00434889 0.000784285)
(0.0114572 -0.0123205 0.000400408)
(-0.00278495 -0.00934141 0.00106183)
(0.00307948 -0.00165224 0.0001911)
(0.00365167 -0.00201636 0.000680588)
(0.00343462 -0.0083945 -0.000585982)
(-0.020017 -0.00429182 0.00156396)
(0.00655382 0.0020284 -0.000516926)
(-0.0143335 -0.00984496 9.01664e-05)
(-0.00276381 -0.0165886 0.000123119)
(-0.0182246 -0.00741607 0.00217205)
(-0.00662452 0.00136551 0.000539085)
(0.00341862 8.2098e-05 3.47592e-05)
(0.0152963 -0.00277752 0.000648472)
(0.00871092 -0.0063064 0.000102979)
(0.0103159 -0.00475415 -0.000444562)
(0.0048901 -0.00680161 -0.000859259)
(-3.55599e-05 0.0103753 -0.000241243)
(-0.00579935 0.00783736 0.00033377)
(0.00186884 0.00611913 -9.71122e-05)
(-0.00425416 0.00954079 -8.26543e-05)
(-0.00817432 0.00792948 -0.000589509)
(0.0013946 0.000489089 8.18664e-05)
(0.00173027 0.000833045 6.78625e-05)
(0.00167893 8.9599e-05 0.000140097)
(0.00142301 0.000480519 5.84944e-05)
(0.0012962 0.0003294 8.58501e-05)
(0.000328867 -1.9401e-05 -2.519e-06)
(0.000496509 -2.47827e-05 -3.22545e-06)
(0.00047724 -3.41551e-05 -7.62266e-07)
(0.000782398 -5.70022e-05 -1.25719e-06)
(0.000336302 -2.02314e-05 -2.10266e-06)
(0.00060556 -2.88695e-05 -1.86982e-06)
(0.000629261 -3.07639e-05 1.35923e-06)
(0.000461601 -2.62107e-05 -3.75204e-07)
(0.000834977 -7.57794e-06 -1.00834e-06)
(0.000877806 -1.06161e-05 -2.09898e-06)
(0.00118876 -1.49141e-05 -1.17293e-06)
(0.000607783 -1.28311e-05 -3.6724e-06)
(0.000623864 -2.57875e-07 -4.9805e-06)
(0.00100905 -2.12328e-05 -4.43753e-06)
(0.00104585 7.70568e-06 -6.28964e-06)
(0.000831451 -2.0861e-06 -1.97688e-07)
(0.000824657 -1.86501e-07 -3.4758e-07)
(0.0010976 -2.50536e-06 6.25461e-08)
(0.000829572 -8.87312e-07 7.97435e-08)
(0.000831781 -1.39117e-06 1.1749e-07)
(0.00111056 -1.41375e-06 2.00431e-07)
(0.000828302 -5.39054e-08 3.78163e-08)
(0.000828674 -4.58307e-07 7.61381e-08)
(0.00110527 3.30963e-08 1.79983e-07)
(0.000827014 1.92076e-07 4.60668e-08)
(0.000827792 -1.64653e-07 5.52744e-08)
(0.00110415 4.13335e-07 1.77615e-07)
(0.000825592 2.30041e-07 4.6614e-08)
(0.00082636 -1.33544e-07 4.77966e-08)
(0.00110211 4.32919e-07 1.75997e-07)
(0.000824284 2.66829e-07 4.18978e-08)
(0.000824993 2.33631e-09 5.17911e-08)
(0.00110033 3.68897e-07 1.8339e-07)
(0.000822406 3.92927e-07 4.50988e-08)
(0.000823576 2.75085e-07 1.91138e-08)
(0.00109812 4.57995e-07 1.77378e-07)
(0.000821115 4.93526e-07 6.69079e-08)
(0.000822048 -2.17997e-07 5.01652e-08)
(0.00109594 6.4989e-07 1.85556e-07)
(0.000819721 5.95851e-07 6.30972e-08)
(0.000820557 -2.79513e-07 6.91968e-08)
(0.00109426 6.90363e-07 1.8359e-07)
(0.000818206 5.05611e-07 3.72198e-08)
(0.000818813 -2.74313e-07 7.88526e-08)
(0.00109226 9.02685e-07 1.80298e-07)
(0.000816548 2.97025e-07 5.38132e-08)
(0.000817127 2.0641e-07 3.56672e-08)
(0.00109011 4.46711e-07 1.81248e-07)
(0.000814998 2.544e-07 6.95824e-08)
(0.000815731 4.04619e-07 1.31895e-07)
(0.00108804 3.61915e-07 1.60466e-07)
(0.000813318 3.84397e-07 2.06679e-07)
(0.000814273 2.19142e-07 5.36801e-08)
(0.00108587 3.39058e-07 1.68214e-07)
(0.000811575 5.14717e-07 2.43835e-07)
(0.000812642 5.11925e-07 1.99167e-07)
(0.00108346 7.10639e-07 2.08291e-07)
(0.000810649 3.51713e-07 5.9518e-08)
(0.000810983 -1.23621e-06 9.04111e-08)
(0.00108185 6.95026e-07 2.01987e-07)
(0.000808881 1.17559e-07 4.89163e-08)
(0.000809437 1.45171e-07 1.7521e-08)
(0.00108009 2.91033e-07 1.6533e-07)
(0.000807325 -1.20598e-08 7.16691e-08)
(0.000807956 2.12325e-07 7.77915e-08)
(0.00107774 8.80382e-08 1.82766e-07)
(0.000805647 -1.01091e-07 3.92144e-08)
(0.000806448 1.2443e-07 2.57884e-08)
(0.00107557 -5.16455e-08 1.98493e-07)
(0.000804007 -4.1408e-07 4.75485e-08)
(0.000804654 1.13898e-07 6.40418e-08)
(0.00107342 -1.77578e-07 1.74205e-07)
(0.000802262 -5.79098e-07 7.08063e-08)
(0.000803102 1.73925e-06 3.42512e-08)
(0.00107117 -9.28807e-07 1.54834e-07)
(0.0008006 -5.24834e-07 1.22325e-07)
(0.000801638 -1.5841e-07 5.5641e-08)
(0.00106878 -6.26706e-07 1.88216e-07)
(0.000799657 -4.42824e-07 1.08091e-07)
(0.000800334 9.39951e-08 1.18889e-07)
(0.00106718 -7.46868e-07 2.93518e-07)
(0.000798443 -1.63751e-08 1.35037e-07)
(0.000799331 -1.08747e-07 6.27903e-08)
(0.00106577 -3.90863e-07 2.45434e-07)
(0.00079696 3.91399e-07 2.19295e-07)
(0.0007979 6.21971e-07 2.38542e-07)
(0.00106391 4.10301e-07 1.41057e-07)
(0.000795527 3.517e-07 1.41658e-07)
(0.000796134 7.64807e-07 1.76195e-07)
(0.00106206 7.02808e-07 1.36003e-07)
(0.000793782 1.86898e-07 4.3157e-08)
(0.000794465 3.24417e-07 5.91491e-08)
(0.0010599 2.61428e-07 1.77434e-07)
(0.000792413 2.07379e-07 3.82915e-08)
(0.000793045 9.27338e-08 4.43399e-08)
(0.00105774 2.34906e-07 1.72773e-07)
(0.000791045 2.32083e-07 4.98637e-08)
(0.000791631 1.16336e-08 6.1154e-08)
(0.00105595 3.01627e-07 1.68302e-07)
(0.000789473 2.94951e-07 4.80484e-08)
(0.000790208 2.05394e-07 5.24406e-08)
(0.00105407 3.32117e-07 1.84798e-07)
(0.000788093 4.38002e-07 1.45057e-08)
(0.000788781 3.79218e-07 4.17101e-08)
(0.00105204 5.30056e-07 1.65944e-07)
(0.000786023 3.87777e-07 2.43684e-08)
(0.000787071 -2.86384e-07 4.44214e-08)
(0.00104964 7.03483e-07 1.56348e-07)
(0.00078479 1.3048e-07 6.43614e-08)
(0.000785394 -3.46004e-09 6.06763e-08)
(0.00104749 3.36654e-07 1.70126e-07)
(0.000783417 -1.18806e-07 5.83415e-08)
(0.000783926 -4.60271e-08 2.42552e-08)
(0.00104577 -7.35402e-10 1.7397e-07)
(0.000782099 -2.7877e-07 5.36409e-08)
(0.00078271 -2.41114e-08 1.37192e-07)
(0.00104392 -3.13051e-07 1.47404e-07)
(0.000780832 -2.1496e-07 6.02762e-08)
(0.000781632 -1.43434e-07 7.72805e-08)
(0.00104234 -4.59607e-07 1.47417e-07)
(0.000779421 -1.03932e-07 6.09288e-08)
(0.000780221 -4.55741e-08 7.09736e-08)
(0.00104052 -1.65071e-07 1.84653e-07)
(0.000777891 -2.70709e-08 4.41915e-08)
(0.000778743 2.92849e-09 5.75761e-08)
(0.00103853 -1.57377e-07 1.9067e-07)
(0.000776519 -5.26883e-08 3.27048e-08)
(0.000777213 2.54168e-07 4.75663e-08)
(0.00103663 5.96172e-08 1.50499e-07)
(0.000775074 -2.74737e-07 3.2993e-08)
(0.000775656 -4.71086e-07 5.85748e-08)
(0.00103471 -1.87585e-07 1.83936e-07)
(0.000773471 -3.3083e-07 2.61136e-08)
(0.000774168 2.59464e-07 4.27012e-08)
(0.00103259 -5.20635e-07 2.51957e-07)
(0.00077317 1.28563e-07 4.96201e-08)
(0.00103121 -3.47732e-07 8.04826e-08)
(0.0203421 -0.042057 -0.00513793)
(0.0586591 0.0099187 -0.00409817)
(0.00143047 0.0630463 -0.00153127)
(0.016953 0.0198506 -0.0118776)
(-0.0170169 0.00888211 0.000818547)
(-0.0111379 0.00801597 0.00151099)
(-0.0247969 0.0171456 0.00375338)
(0.0258657 0.00806603 0.00102914)
(-0.0082086 0.00810958 -7.57379e-05)
(-0.00433377 0.00592616 -0.000116834)
(0.00739257 -0.00389453 0.000165486)
(0.000908423 -0.00464879 -0.000985331)
(-0.000967746 0.00834706 -0.000819855)
(-0.00146994 0.0010489 -0.000232078)
(0.00244993 0.00181206 -0.000595344)
(0.00309711 -0.000862388 -8.23173e-06)
(0.00921691 -0.00301544 -0.00246921)
(0.00760679 -0.00205588 -0.000250087)
(3.32152e-05 0.00731011 -0.00010557)
(0.00227025 0.00201492 -0.00075336)
(-0.00242468 0.0113114 -0.000693648)
(-0.00092121 0.0019745 -0.000592013)
(0.00291518 0.00094543 0.00293463)
(0.000458088 8.42246e-05 0.00347007)
(0.00381065 0.00292062 0.00251965)
(0.00724883 0.000323054 0.0442842)
(0.00186269 0.00533176 -0.00702012)
(-0.00128761 -0.0080328 -0.000597706)
(0.00886446 0.00518473 -0.0352071)
(0.000784422 -0.00234801 0.00162664)
(0.00231433 -0.00227808 0.00165873)
(0.00572365 -0.00077977 0.00138454)
(0.00127633 0.00431818 0.00168679)
(0.00610589 -0.000247468 0.000335604)
(0.0067454 -3.75772e-05 0.000756691)
(0.00124431 8.13024e-05 0.000146151)
(0.00461016 0.00303526 0.000113446)
(0.00412035 0.00158673 0.000241981)
(0.00065711 -0.000445332 3.18262e-06)
(0.000412957 -0.000258164 3.87775e-05)
(0.000278792 -0.000470943 1.30352e-05)
(0.000344125 -0.000830887 1.95678e-05)
(0.000595423 -0.000236886 6.5162e-05)
(0.000280175 -2.91202e-05 1.4346e-05)
(0.000333213 1.09749e-06 4.55532e-07)
(0.000282552 -1.20272e-05 2.03906e-06)
(0.000462245 7.09945e-06 4.68041e-06)
(0.000235393 -2.01645e-08 -1.3913e-06)
(0.000834724 -4.64039e-06 -1.43879e-06)
(0.000862946 -1.62312e-05 -2.44646e-06)
(0.00115422 -1.15206e-05 -1.37298e-06)
(0.000603211 1.42161e-06 -4.23402e-06)
(0.000605458 -1.16597e-05 -5.00024e-06)
(0.00102056 9.72308e-06 -4.90916e-06)
(0.00102434 -1.96785e-05 -5.69525e-06)
(0.000830968 -4.23445e-07 -3.25538e-08)
(0.000829863 3.08992e-06 -1.70372e-07)
(0.00110298 1.90214e-06 1.3875e-07)
(0.000829637 -9.16424e-07 1.13898e-07)
(0.000831151 -1.97191e-06 7.54611e-08)
(0.00110861 -1.22631e-06 1.96131e-07)
(0.000828431 -4.07387e-07 9.3603e-08)
(0.000829303 -1.19659e-06 5.61175e-08)
(0.00110547 -4.21435e-08 1.96164e-07)
(0.000827145 -3.63495e-07 5.70067e-08)
(0.000827841 -7.16872e-07 5.57472e-08)
(0.00110411 -2.99252e-07 1.90734e-07)
(0.000825742 -2.24446e-07 5.29724e-08)
(0.000826531 -4.41338e-07 5.34584e-08)
(0.00110225 -2.04689e-07 1.84334e-07)
(0.000824351 -1.58495e-07 2.90176e-08)
(0.000825074 -3.14687e-07 5.25162e-08)
(0.00110031 -1.0478e-07 1.84143e-07)
(0.000823213 -9.44848e-08 2.41701e-08)
(0.000823655 -5.24078e-07 2.59186e-08)
(0.00109871 -1.38692e-07 1.96022e-07)
(0.00082151 2.09191e-08 5.2448e-08)
(0.000822192 -2.03075e-08 4.89372e-08)
(0.00109679 -3.96913e-09 1.76538e-07)
(0.000819742 3.43877e-08 8.49491e-08)
(0.000820574 -5.07635e-07 3.95055e-08)
(0.0010945 1.1791e-07 2.11848e-07)
(0.000817608 3.96306e-08 7.73138e-08)
(0.000818819 5.2098e-07 7.76642e-08)
(0.00109185 -1.74001e-08 1.73305e-07)
(0.000816296 1.15315e-07 1.13718e-07)
(0.000817221 -1.94834e-07 3.66676e-08)
(0.00108952 1.09345e-07 1.85548e-07)
(0.000815023 1.38538e-07 1.16018e-07)
(0.000815759 -2.20595e-07 1.29342e-07)
(0.00108787 1.88075e-07 1.98025e-07)
(0.000813677 2.0294e-07 4.61213e-08)
(0.000814353 -4.8069e-08 4.91975e-08)
(0.00108614 1.73479e-07 1.79989e-07)
(0.000811997 3.23039e-07 4.5778e-08)
(0.000812791 -1.47727e-07 3.45252e-08)
(0.0010842 3.66271e-07 2.36901e-07)
(0.000809741 2.63306e-07 4.84372e-08)
(0.000810907 -1.63777e-07 5.35126e-08)
(0.00108141 4.96547e-07 1.66583e-07)
(0.000808463 1.19843e-07 4.6377e-08)
(0.000809256 -1.40145e-07 3.80976e-08)
(0.00107905 1.89975e-07 1.76536e-07)
(0.000807139 2.41202e-08 3.19273e-08)
(0.000807836 -8.03921e-08 3.7793e-08)
(0.0010774 1.1115e-07 1.81338e-07)
(0.000805596 -3.57217e-08 5.06037e-08)
(0.000806373 1.67138e-07 4.29701e-08)
(0.00107551 -3.58939e-08 1.77303e-07)
(0.000803502 7.91217e-08 5.07539e-08)
(0.000804798 -1.09178e-07 7.12803e-08)
(0.0010729 -2.2174e-08 2.44744e-07)
(0.000802673 3.82069e-07 1.90791e-08)
(0.000803479 -1.16017e-06 4.05871e-08)
(0.00107106 2.48007e-07 3.22411e-07)
(0.000801064 7.04377e-07 5.2185e-08)
(0.000802038 -9.26944e-07 1.98813e-08)
(0.00106958 7.74623e-07 2.41307e-07)
(0.00080017 7.8184e-07 7.36052e-08)
(0.000800428 -1.07982e-06 5.7011e-08)
(0.00106771 1.11152e-06 2.07266e-07)
(0.000798835 5.89878e-07 1.66241e-07)
(0.000799088 -1.68104e-06 2.90745e-09)
(0.00106644 9.66976e-07 2.7487e-07)
(0.000797161 4.0127e-07 1.95462e-07)
(0.000797662 3.44061e-07 1.70226e-07)
(0.00106449 6.0723e-07 2.13444e-07)
(0.000794971 2.52446e-07 9.37221e-08)
(0.000795947 1.9029e-07 8.50646e-08)
(0.00106161 4.66286e-07 2.80741e-07)
(0.000793676 1.81099e-07 6.03366e-08)
(0.000794375 -5.20647e-09 5.83645e-08)
(0.00105934 1.90463e-07 1.83961e-07)
(0.000792311 1.84684e-07 6.71972e-08)
(0.000793049 -5.9228e-08 5.8015e-08)
(0.00105772 2.48254e-07 1.77718e-07)
(0.00079077 1.29568e-07 6.37337e-08)
(0.000791561 2.4275e-08 1.64328e-07)
(0.00105572 2.09847e-07 1.81903e-07)
(0.000789472 1.31345e-07 4.61056e-08)
(0.000790211 8.08651e-08 4.94985e-08)
(0.00105382 1.17361e-07 1.70164e-07)
(0.000787938 5.57754e-08 7.16249e-08)
(0.000788686 5.31624e-07 1.76674e-08)
(0.00105199 1.85087e-07 1.71495e-07)
(0.000786313 -1.64924e-08 8.07243e-08)
(0.000786981 9.35774e-07 3.231e-08)
(0.00104978 -8.33561e-08 1.03031e-07)
(0.000784555 1.30854e-07 2.05814e-08)
(0.000785578 6.23689e-07 6.20449e-08)
(0.00104749 1.83404e-08 1.57769e-07)
(0.000783052 3.47619e-07 1.03071e-07)
(0.000784196 5.01356e-07 1.75674e-08)
(0.00104533 3.10566e-07 1.40555e-07)
(0.000782351 4.47466e-07 1.6085e-07)
(0.000782833 1.0407e-06 1.77693e-07)
(0.00104394 6.14085e-07 3.07829e-08)
(0.000781064 3.1656e-07 8.79798e-08)
(0.000781466 -1.19038e-06 -2.41844e-08)
(0.00104264 6.05951e-07 2.36657e-07)
(0.000779558 1.90213e-07 6.7625e-08)
(0.000780061 -2.12559e-08 5.1106e-08)
(0.00104071 3.05834e-07 1.79001e-07)
(0.000778039 2.20497e-07 6.09539e-08)
(0.00077878 -8.0082e-08 4.72673e-08)
(0.00103879 2.88023e-07 1.88033e-07)
(0.000776323 1.96976e-07 7.34329e-08)
(0.000777182 1.64927e-07 7.16251e-08)
(0.00103662 3.53585e-07 2.06545e-07)
(0.000774782 1.10226e-07 6.82879e-08)
(0.000775546 -7.16771e-08 4.6317e-08)
(0.00103434 2.18241e-07 1.5493e-07)
(0.000773632 8.03297e-08 6.62056e-08)
(0.000774129 -1.63243e-07 5.2572e-08)
(0.00103246 1.17787e-07 1.79361e-07)
(0.00077307 1.21619e-07 6.09225e-08)
(0.00103118 1.1195e-07 1.62565e-07)
(-0.0107289 0.00911714 0.0014656)
(-0.056355 -0.0292343 -0.00275543)
(-0.0374816 -0.0357775 0.00802773)
(-0.0238327 -0.0405743 -0.000172966)
(-0.0206485 -0.00359468 0.000534309)
(0.00100048 -0.0146816 0.000976142)
(0.00317297 -0.00588282 0.00467608)
(-0.000399366 -0.000818351 0.00127478)
(0.0242472 -0.00729375 0.00171607)
(-0.00414758 0.00443325 0.000177713)
(-0.00459939 0.000195478 0.000496185)
(-0.00350578 0.00701423 -0.000571315)
(-0.0344984 0.0127873 0.00472888)
(-0.0188528 0.0100571 -0.00354997)
(0.0102508 0.0143516 -3.03245e-05)
(-0.00734754 0.00706665 -0.000142701)
(0.00327933 -0.00131809 0.00146588)
(-0.00385575 0.00256001 -0.00097247)
(-0.0100778 0.0143737 -0.00120004)
(-0.00243086 0.00198645 -0.00543201)
(-0.00296025 0.0106928 -0.000678375)
(-0.0138263 0.00119933 -0.000692396)
(0.000173353 0.0100464 0.00132565)
(-0.00694652 0.00817374 -0.00132649)
(-0.00423184 -0.00338026 -0.000398664)
(0.00826598 -0.00541267 -0.000547391)
(0.0143501 -0.000565511 0.000272405)
(0.00113978 0.0120724 -0.00069262)
(0.00581718 -0.000685557 -0.00272403)
(0.00375294 0.0100862 5.39144e-05)
(0.0119548 -0.000514717 0.000121)
(0.0133773 0.00125995 0.000969267)
(0.0112612 -0.00764827 -0.000128049)
(0.0115481 0.00327076 0.00107268)
(0.00101401 0.000976368 0.00015976)
(0.00658106 0.00093829 9.82916e-05)
(-0.00149788 0.00201764 0.000186208)
(0.000853384 0.00224781 0.000207369)
(-0.00615772 0.00526436 0.000593992)
(7.02017e-05 -0.00043309 4.40941e-06)
(0.000560142 -0.000217928 1.80271e-06)
(0.000892718 -0.000640048 -4.27499e-05)
(0.00165147 -0.00219842 -4.15831e-06)
(0.000578255 -0.00020896 -1.8177e-05)
(-0.000580493 -0.000571212 1.76886e-05)
(0.0011059 -0.000225937 -3.86563e-06)
(0.000315508 -0.000365789 2.90749e-05)
(0.000650768 -0.000116829 1.77428e-06)
(0.000635791 -0.000195943 -1.06098e-05)
(2.6111e-05 3.80937e-05 -2.30786e-05)
(0.00086938 -0.000307314 4.60241e-05)
(0.0012008 -0.000316736 -5.13034e-05)
(0.000610445 -0.000284162 -4.27292e-06)
(0.00138352 -2.80029e-06 1.38581e-05)
(0.000466788 -0.000133261 4.14758e-05)
(0.000465874 -0.000193207 4.14905e-05)
(0.000625305 -0.000164021 9.09117e-05)
(0.000355516 -9.78899e-05 2.45971e-05)
(0.000841182 -8.81641e-06 -1.17879e-06)
(0.00060455 -1.34525e-05 -1.36786e-06)
(0.00114735 -3.70568e-05 -1.38575e-06)
(0.000605907 1.00977e-06 -4.65284e-06)
(0.000595643 -2.61595e-05 -2.484e-06)
(0.00101478 1.80163e-05 -4.05919e-06)
(0.00102403 -4.41101e-05 2.17709e-06)
(0.000569627 -3.73761e-05 -4.51737e-06)
(0.00102539 -2.27508e-05 -8.24962e-07)
(0.00094614 -6.19435e-05 -5.44494e-06)
(0.000831553 4.41061e-06 -6.24373e-08)
(0.00085866 1.39815e-05 -7.5469e-07)
(0.00111026 1.56598e-05 1.18193e-07)
(0.00083074 -1.38694e-06 1.76868e-08)
(0.000823915 -3.04131e-06 -2.14037e-07)
(0.00110809 -2.42467e-06 1.83645e-07)
(0.00082857 -6.76045e-07 1.82619e-08)
(0.000830186 -2.75578e-07 1.47485e-07)
(0.00110641 -1.96498e-07 1.64129e-07)
(0.000827278 -7.16544e-07 5.21996e-08)
(0.000827787 -1.1728e-06 1.07938e-07)
(0.00110393 -9.22239e-07 1.84042e-07)
(0.000825846 -4.327e-07 5.30025e-08)
(0.000826884 -7.251e-07 5.76815e-08)
(0.00110234 -5.58356e-07 1.8478e-07)
(0.000824368 -2.48973e-07 4.94257e-08)
(0.000825302 -5.21928e-07 5.17299e-08)
(0.00110041 -3.21802e-07 1.83842e-07)
(0.000822646 -2.44501e-07 5.06782e-08)
(0.00082366 -3.10236e-07 4.78953e-08)
(0.00109824 -1.62355e-07 1.76404e-07)
(0.000821322 -3.6065e-07 3.59978e-08)
(0.000822047 -4.1801e-07 5.74317e-08)
(0.00109626 -3.72436e-07 1.84856e-07)
(0.000819668 -4.36682e-07 3.22083e-08)
(0.00082048 3.06151e-08 3.60976e-08)
(0.00109424 -4.97632e-07 1.49067e-07)
(0.000818335 -3.73669e-07 3.70311e-08)
(0.000818899 1.22304e-07 6.38374e-08)
(0.00109225 -6.05781e-07 1.86656e-07)
(0.000816688 -2.0983e-07 5.22622e-08)
(0.000817427 -1.41641e-07 3.02196e-08)
(0.00109036 -3.81733e-07 1.83069e-07)
(0.00081505 -1.55396e-07 6.25478e-08)
(0.000815828 -1.71822e-07 7.0247e-08)
(0.00108812 -1.93598e-07 1.82954e-07)
(0.000813563 -2.38915e-07 3.76061e-08)
(0.000814249 -1.21499e-07 4.61017e-08)
(0.00108609 -2.29685e-07 1.78831e-07)
(0.000811747 -2.915e-07 4.22538e-08)
(0.000812727 6.92573e-07 5.7179e-08)
(0.00108387 -4.12083e-07 1.44234e-07)
(0.000810297 -1.10545e-07 4.31779e-08)
(0.000811134 -8.79497e-08 5.43287e-08)
(0.00108162 -3.68314e-07 1.65808e-07)
(0.000808608 1.33532e-07 2.95136e-08)
(0.000809561 -2.57323e-08 4.6474e-08)
(0.0010796 5.85106e-08 1.84493e-07)
(0.000807076 2.39562e-07 4.88342e-08)
(0.000807967 -3.52898e-08 4.804e-08)
(0.00107745 2.65484e-07 1.75877e-07)
(0.00080564 2.78137e-07 6.36377e-08)
(0.00080642 -2.46948e-08 6.7598e-08)
(0.0010754 3.62976e-07 1.84402e-07)
(0.000804662 5.75422e-07 6.11232e-08)
(0.000805167 -4.36843e-07 3.51785e-08)
(0.00107378 4.24748e-07 1.54043e-07)
(0.000803003 7.44887e-07 4.13958e-08)
(0.000803687 -2.01387e-06 4.00057e-08)
(0.00107216 1.19445e-06 2.51399e-07)
(0.000801236 7.2007e-07 2.46956e-08)
(0.000802003 3.40864e-07 5.11013e-08)
(0.00106986 8.66826e-07 1.11541e-07)
(0.000799438 7.66372e-07 -1.36698e-08)
(0.000800482 -3.72539e-07 4.95089e-09)
(0.00106741 1.09236e-06 1.54057e-07)
(0.000797846 4.50629e-07 6.84002e-09)
(0.000798691 2.99899e-07 -9.25732e-09)
(0.00106513 9.92964e-07 4.57806e-08)
(0.000796596 6.24484e-08 5.98553e-08)
(0.000797175 -2.81211e-08 2.23985e-07)
(0.00106328 2.58341e-07 1.82447e-07)
(0.000795193 3.72573e-08 4.97153e-08)
(0.000795915 7.18264e-08 5.19371e-08)
(0.00106153 -6.96273e-08 1.78334e-07)
(0.000793807 9.93527e-08 5.6043e-08)
(0.000794453 3.4488e-07 6.2041e-08)
(0.00105963 1.77435e-07 1.43644e-07)
(0.000792282 5.70008e-08 1.55113e-07)
(0.000792996 -1.50375e-08 5.56543e-08)
(0.00105776 8.24938e-08 1.77936e-07)
(0.000790922 4.1407e-09 1.50129e-07)
(0.000791495 5.2012e-08 1.32494e-07)
(0.00105579 4.62441e-08 1.64687e-07)
(0.000789585 -2.16653e-07 2.10701e-08)
(0.000789935 -2.28431e-07 5.52681e-08)
(0.00105404 -7.38831e-08 1.86882e-07)
(0.000787662 -3.4214e-07 -2.1652e-08)
(0.000788531 2.54091e-06 5.52043e-08)
(0.00105179 -5.40143e-07 7.30825e-08)
(0.00078618 -1.94673e-07 1.36215e-08)
(0.000787166 -5.79649e-07 -2.1864e-09)
(0.00104944 -4.23359e-07 2.87e-07)
(0.000785311 1.84477e-08 5.90447e-08)
(0.000785845 -3.16814e-07 6.86966e-08)
(0.00104798 -1.3479e-07 1.90789e-07)
(0.000783858 2.87054e-07 9.21403e-08)
(0.000784531 -3.87397e-08 4.58072e-08)
(0.00104652 1.94185e-07 2.14622e-07)
(0.000782055 3.46654e-07 -7.27921e-09)
(0.000782906 -5.13092e-07 8.16785e-08)
(0.00104429 5.76641e-07 3.19791e-07)
(0.000780329 1.78523e-07 -6.10813e-08)
(0.000781255 -2.74487e-08 -5.18719e-08)
(0.00104194 3.43214e-07 1.16316e-07)
(0.000779366 5.96745e-08 3.07495e-08)
(0.000779912 2.01734e-07 4.0938e-08)
(0.00104011 1.3727e-07 1.1525e-07)
(0.000778043 1.29361e-09 5.7931e-08)
(0.000778706 -1.68812e-09 4.46837e-08)
(0.00103858 3.00544e-08 1.58457e-07)
(0.000776208 2.35672e-08 4.45169e-08)
(0.00077721 -3.55657e-07 2.32565e-08)
(0.00103654 -2.56172e-08 2.48809e-07)
(0.000774986 1.45213e-07 3.05992e-08)
(0.000775698 -3.00611e-07 4.21312e-09)
(0.00103441 8.72164e-08 1.71737e-07)
(0.00077338 2.24184e-07 4.72863e-08)
(0.000774224 4.25986e-08 5.5026e-08)
(0.00103246 2.95076e-07 1.75098e-07)
(0.000772791 3.43956e-07 6.91513e-08)
(0.00103092 3.03175e-07 1.28819e-07)
(-0.00302235 0.0243096 8.51318e-05)
(-0.00868447 -0.00335972 0.0002656)
(-0.00178593 -0.00524144 0.000346802)
(-0.00452616 0.000154305 0.00273281)
(0.00580929 -0.0309595 -0.00399929)
(0.0130886 -0.00907283 -0.00376162)
(0.00623613 -0.000818003 -0.00217994)
(-0.00602279 -0.0140544 -0.00403472)
(0.00698414 -0.0166879 0.0371531)
(0.00558154 -0.0163314 -0.0573185)
(0.0241493 -0.0102936 -0.00357608)
(0.00343864 -0.0136813 0.00929779)
(-0.00662622 -0.00109701 0.000352658)
(-0.00432253 -0.0188001 -0.00044781)
(0.00470534 -0.00898472 0.00224352)
(0.00497848 -0.00535974 0.000655129)
(0.00469965 0.00467827 0.000108758)
(-0.00451261 0.000378859 0.000123863)
(0.00608272 -0.00353952 7.33097e-05)
(0.00114704 0.00214601 0.000133519)
(0.000791562 0.00590715 -0.000659569)
(0.00446657 -0.00419265 0.000165904)
(0.00320522 -0.00975802 0.000743291)
(0.00339018 0.00210445 2.33674e-05)
(0.00895331 -0.0125634 -0.00116749)
(-0.00732304 -0.0137418 0.00010311)
(-0.00506201 -0.0176605 -5.35113e-05)
(0.00185135 -0.00765319 -0.000211659)
(0.00348106 -0.00398126 -0.000855596)
(0.000145231 -0.00298979 0.000335414)
(0.000552418 -0.00665771 0.000685562)
(0.00187734 0.00245534 -0.00026696)
(-0.000353724 -0.001676 4.27369e-05)
(-0.00151722 2.32323e-05 9.02994e-05)
(-0.0016335 -0.00195881 5.27272e-05)
(0.000403034 -0.00165541 0.000114169)
(-0.0029386 -0.00112761 8.35263e-06)
(0.000220125 -0.000723198 3.96637e-06)
(0.000567856 -0.000333259 -3.77183e-05)
(0.000879137 -0.000343081 -9.45448e-07)
(0.000214512 -0.00103186 -3.64757e-05)
(-6.9658e-05 -0.000789213 1.3023e-05)
(0.00119184 -0.00132386 7.82376e-06)
(-0.000611627 -0.00113179 3.49258e-05)
(0.000588242 -0.000403586 -2.3653e-05)
(0.00062048 -0.000396905 -5.28099e-07)
(0.000609583 -0.000312026 1.1582e-05)
(0.000672827 -0.000438952 -3.16927e-06)
(0.000741246 1.40844e-05 4.69981e-05)
(0.00110265 2.06466e-05 -1.854e-06)
(0.00128226 3.92633e-05 1.21664e-06)
(0.0012666 2.91587e-05 -4.19604e-05)
(0.00122317 -2.51663e-05 1.72704e-05)
(0.000332117 -3.32983e-05 -2.90962e-06)
(0.000481234 -1.9846e-05 -3.44138e-06)
(0.000485514 -1.59677e-05 -1.32564e-07)
(0.000792118 -2.00574e-05 -9.55534e-07)
(0.000333636 -1.67256e-05 -2.56546e-06)
(0.000600116 -7.86054e-05 -4.23806e-06)
(0.000604776 -3.65259e-05 -3.08624e-06)
(0.000826919 5.32541e-07 -9.06466e-07)
(0.000887196 -9.3424e-06 -1.30013e-06)
(0.00117854 7.34284e-06 -9.39916e-07)
(0.000596683 -1.62709e-05 -4.23548e-06)
(0.000608594 -3.64934e-06 -5.1757e-06)