/*--------------------------------*- C++ -*----------------------------------*\
| =========                 |                                                 |
| \\      /  F ield         | OpenFOAM: The Open Source CFD Toolbox           |
|  \\    /   O peration     | Version:  5.0                                   |
|   \\  /    A nd           | Web:      www.OpenFOAM.org                      |
|    \\/     M anipulation  |                                                 |
\*---------------------------------------------------------------------------*/
FoamFile
{
    version     2.0;
    format      ascii;
    class       volScalarField;
    location    "4.7";
    object      alpha.water;
}
// * * * * * * * * * * * * * * * * * * * * * * * * * * * * * * * * * * * * * //

dimensions      [0 0 0 0 0 0 0];

internalField   nonuniform List<scalar> 
8955
(
1.06533
0.98047
1.06476
0.992032
0.968727
1.01417
0.825502
-1.20159e-15
-3.68913e-18
8.6906e-20
2.17732e-18
2.79133e-19
2.21849e-21
7.63624e-25
5.04852e-29
1.48363e-32
6.07088e-36
2.67244e-39
1.19339e-42
4.83191e-46
2.34894e-49
1.07846e-52
4.69524e-56
1.84808e-59
1.06324e-62
9.85881e-66
3.61936e-69
7.85863e-73
3.79134e-75
6.41991e-79
3.60893e-82
1.1824e-85
3.32178e-88
7.87692e-91
2.63371e-94
1.8502e-97
1.19135e-100
3.16091e-103
5.40561e-107
5.65797e-111
4.82216e-114
1.78186e-116
2.3057e-119
5.92085e-122
1.10757e-125
1.67612e-128
3.16993e-132
2.75298e-136
5.4484e-138
3.03755e-141
1.00954
1.03768
0.921026
0.99566
1.06726
1.05754
1
-1.01608e-15
-4.27277e-18
1.51508e-16
1.56575e-17
1.13836e-19
8.98587e-23
4.63962e-26
1.02757e-29
2.66145e-33
1.06379e-36
4.73018e-40
2.18811e-43
8.90019e-47
4.07481e-50
1.83751e-53
1.54184e-56
7.2517e-60
1.96644e-63
2.70709e-66
1.31344e-69
2.73826e-73
1.62102e-75
1.65304e-79
1.09469e-82
2.08545e-85
4.31228e-89
8.8002e-92
1.93848e-95
2.77481e-98
1.12833e-101
6.48012e-106
2.91781e-107
2.82867e-110
3.22132e-114
3.13818e-117
6.27782e-121
7.18436e-125
1.22614e-127
1.85301e-130
1.9908e-133
1.18046e-137
1.22876e-140
2.47959e-142
1.03434
1.03868
1.02289
1.06111
0.998343
0.960723
1.00103
-4.13159e-15
-3.49024e-17
-1.32344e-20
1.90579e-17
3.15083e-18
5.13003e-20
4.12149e-23
2.37571e-27
4.85368e-31
2.05026e-34
9.02624e-38
5.31623e-41
1.63423e-44
8.47393e-48
3.37272e-51
2.19072e-54
1.04349e-57
5.36639e-61
3.14085e-64
3.37961e-67
2.85191e-71
4.97473e-73
7.61571e-76
5.60754e-80
7.47794e-84
2.43665e-85
2.8374e-88
3.00811e-92
1.42455e-95
5.07394e-99
6.16177e-103
9.81028e-105
3.74926e-108
1.47776e-111
9.494e-115
3.21081e-117
3.53255e-121
7.61793e-125
9.246e-129
3.54553e-130
2.85175e-133
1.90847e-137
1.55175e-141
1.04564
1.04583
1.00832
0.993437
0.997053
0.984966
1.00055
0.220274
-1.08611e-16
-9.989e-19
6.32437e-37
9.85618e-19
5.92503e-20
1.67835e-22
2.44506e-26
2.55805e-30
8.91006e-34
4.33061e-37
1.64724e-40
6.92894e-44
3.15474e-47
1.27966e-50
1.31803e-53
6.24237e-57
1.9678e-60
1.1359e-63
2.50732e-67
2.0492e-69
7.67636e-73
6.84516e-77
4.34188e-79
3.78486e-82
8.2775e-86
1.65907e-89
7.55726e-92
1.69185e-95
5.11363e-99
8.03257e-102
6.06057e-104
2.197e-107
3.57758e-111
7.18044e-114
2.47905e-117
2.42712e-120
4.19644e-123
1.54999e-126
1.23708e-130
1.15589e-133
6.35474e-137
1.83779e-139
1.02695
1.01033
0.983875
0.997528
1.01168
1.01159
1.0022
0.888392
-5.79366e-18
1.80247e-15
9.8146e-18
4.57985e-18
5.53691e-19
3.57711e-21
8.69478e-25
6.1162e-29
1.77584e-32
7.56599e-36
3.27184e-39
1.78476e-42
6.00268e-46
4.57254e-49
1.16396e-52
6.24614e-56
2.74354e-59
1.5937e-62
1.09018e-65
1.24486e-68
3.50358e-71
1.50517e-74
1.37702e-77
1.16817e-81
9.0041e-84
1.72886e-87
1.79591e-91
1.40497e-94
1.2025e-96
3.63081e-100
2.27534e-104
4.45604e-106
1.11718e-109
4.14914e-113
8.0089e-116
1.1736e-118
2.32883e-122
9.11124e-126
6.98706e-128
3.15896e-131
2.78396e-134
6.04338e-138
1.04777
1.04761
1.02979
1.00503
1
0.995565
1.00209
0.973907
-3.92058e-17
1.7703e-15
8.05338e-18
3.62681e-18
4.33443e-19
2.76561e-21
6.6772e-25
4.44031e-29
1.36675e-32
9.78212e-36
3.33501e-39
2.94948e-42
8.88709e-46
2.90194e-49
1.03698e-52
1.95044e-55
9.92542e-59
3.43096e-61
1.00948e-64
1.12779e-68
8.48532e-71
1.75915e-73
1.70365e-76
7.98606e-80
4.24e-84
2.69931e-87
7.18634e-90
1.64024e-93
5.55668e-97
1.64767e-99
1.92092e-103
3.82568e-106
5.14197e-109
7.37185e-112
4.0614e-115
1.26863e-118
2.09536e-122
4.34394e-125
4.00399e-129
8.78499e-133
9.86362e-136
9.41409e-140
1.0484
1.01768
1.0602
1.0273
1.09307
1.00021
1.00469
0.775106
-2.2191e-16
-1.39732e-18
-5.79734e-37
9.29783e-19
5.52049e-20
1.52305e-22
2.18056e-26
2.29881e-30
8.00752e-34
3.44171e-37
1.49412e-40
6.40801e-44
4.82545e-47
1.32167e-50
7.88289e-54
2.45993e-57
1.70469e-60
5.49221e-64
1.73966e-67
3.45283e-70
2.82362e-72
9.14643e-76
6.95152e-80
5.73917e-83
1.66037e-86
1.92117e-89
8.21871e-93
1.17262e-95
4.11067e-99
1.52474e-101
1.20379e-104
3.57446e-108
9.36942e-112
1.21488e-114
9.482e-118
5.2441e-121
5.36987e-124
7.80842e-128
9.40298e-130
2.9998e-133
1.8341e-137
3.61635e-139
1.04332
1.04911
0.956007
0.930265
1.0844
1.03803
1.00164
0.0699064
-1.17336e-16
-3.28891e-20
1.84884e-17
2.98641e-18
4.78099e-20
3.91061e-23
2.36272e-27
4.79032e-31
1.97327e-34
8.47629e-38
4.93018e-41
3.03027e-44
7.42702e-48
7.26857e-51
2.76467e-54
5.60043e-58
2.14384e-61
1.44425e-63
1.63454e-66
1.22822e-70
1.94589e-74
5.21267e-76
8.83164e-80
1.00485e-82
9.12315e-86
1.10152e-89
7.48464e-93
3.41257e-95
4.58973e-99
6.77001e-102
4.24745e-105
6.07906e-108
3.05994e-112
1.34411e-114
1.04541e-117
4.43333e-121
2.12765e-124
1.26867e-128
3.3977e-132
1.31314e-135
5.1957e-139
5.53356e-142
1.05803
1.02895
1.12015
1.09256
1.01342
0.987792
1.00012
-1.42117e-19
-1.29375e-18
5.94466e-17
1.65873e-17
1.82397e-19
1.45279e-22
4.57197e-26
1.13568e-29
3.3061e-33
1.56296e-36
7.34293e-40
3.56453e-43
1.43054e-46
5.54238e-50
2.72357e-53
1.13376e-56
5.92914e-60
3.52634e-62
4.20055e-66
6.39534e-70
2.86166e-73
1.86672e-76
1.17867e-79
4.51307e-81
2.63485e-84
1.83738e-88
2.42671e-92
8.35487e-95
2.08642e-98
6.17729e-101
4.58235e-105
6.347e-109
9.53848e-111
1.60372e-113
2.38093e-116
5.09179e-120
1.02614e-123
2.06032e-126
1.70503e-130
8.91644e-133
1.73813e-135
2.10792e-138
1.08416e-142
1.04432
1.02264
0.973515
1.02656
1.00152
1.00278
1
-3.78655e-24
1.31044e-15
5.33498e-18
1.81272e-18
3.13286e-19
4.04988e-21
2.19434e-24
1.23174e-28
3.08537e-32
1.26225e-35
5.37077e-39
2.28954e-42
1.01095e-45
4.19402e-49
1.75423e-52
7.37635e-56
3.11558e-59
1.41772e-62
6.15633e-66
4.46744e-69
1.20914e-72
2.64327e-75
9.29082e-79
7.86961e-82
8.82386e-85
3.72842e-88
2.70167e-91
3.99313e-95
4.48597e-98
1.08278e-100
2.06447e-104
1.003e-106
2.42871e-110
2.63393e-114
7.46672e-118
1.11323e-119
7.45597e-123
1.21816e-126
2.92762e-129
1.58644e-132
8.22329e-136
3.17508e-139
1.31092e-142
1.05027
1.05026
1.01812
0.46144
0.967149
1.03544
0.822387
1.34306e-10
4.13829e-17
3.1397e-17
8.60822e-18
1.02112e-18
2.97735e-20
1.10518e-22
4.21644e-26
8.10241e-30
4.82128e-33
3.67498e-36
2.71738e-39
1.96927e-42
1.4244e-45
1.02912e-48
7.41624e-52
5.33457e-55
3.82809e-58
2.74008e-61
1.95837e-64
1.39654e-67
9.93102e-71
7.048e-74
4.98837e-77
3.52164e-80
2.48237e-83
1.74635e-86
1.22638e-89
8.59432e-93
6.00487e-96
4.18321e-99
2.90954e-102
2.02104e-105
1.40072e-108
9.68815e-112
6.68432e-115
4.60095e-118
3.16102e-121
2.16587e-124
1.48087e-127
1.01114e-130
6.88733e-134
2.76773e-137
1.0616
1.07234
1.00121
0.86509
1.05245
1
1
4.43421e-11
7.39155e-15
8.99325e-15
1.76553e-15
4.28132e-17
6.70551e-20
1.14851e-23
2.94677e-27
1.83806e-30
1.30693e-33
9.10778e-37
6.33041e-40
4.41278e-43
3.10339e-46
2.1634e-49
1.60758e-52
1.1678e-55
7.52141e-59
5.21929e-62
3.66465e-65
2.57159e-68
1.76975e-71
1.23623e-74
8.51132e-78
5.88418e-81
4.19173e-84
2.94807e-87
1.9423e-90
1.32976e-93
9.12151e-97
6.272e-100
4.27367e-103
2.90935e-106
1.98281e-109
1.34674e-112
9.1807e-116
6.19989e-119
4.18536e-122
2.82515e-125
1.93038e-128
1.28336e-131
8.59855e-135
3.4189e-138
1.0316
1.029
1.02515
0.995465
1.0129
1
1.00128
1.32651e-07
2.01965e-14
3.08671e-16
3.51026e-16
9.94427e-17
5.20915e-18
2.44681e-20
7.37593e-24
9.91553e-28
5.99432e-31
4.47317e-34
3.19306e-37
2.25137e-40
1.5866e-43
1.11646e-46
7.83736e-50
5.49166e-53
3.83737e-56
2.67536e-59
1.86269e-62
1.29345e-65
8.96045e-69
6.20452e-72
4.2874e-75
2.95653e-78
2.03614e-81
1.39827e-84
9.56926e-88
6.54315e-91
4.46627e-94
3.04125e-97
2.06766e-100
1.40208e-103
9.48433e-107
6.40491e-110
4.3178e-113
2.90609e-116
1.95337e-119
1.3102e-122
8.76566e-126
5.85312e-129
3.89914e-132
1.53767e-135
1.08402
1.03392
0.998293
1.01209
0.99954
0.990359
1.00088
0.22793
2.36905e-12
1.57351e-14
2.19788e-17
9.45615e-18
1.0002e-18
1.32475e-20
1.58694e-23
2.72097e-27
8.95628e-31
6.50543e-34
4.85747e-37
3.50752e-40
2.51505e-43
1.80094e-46
1.28615e-49
9.18688e-53
6.52896e-56
4.63339e-59
3.28256e-62
2.32293e-65
1.64333e-68
1.1531e-71
8.09389e-75
5.67116e-78
3.96249e-81
2.763e-84
1.92457e-87
1.33621e-90
9.26204e-94
6.4074e-97
4.41796e-100
3.04099e-103
2.09041e-106
1.43648e-109
9.83039e-113
6.71787e-116
4.56662e-119
3.10297e-122
2.10403e-125
1.42453e-128
9.62127e-132
3.8419e-135
1.02109
1.02367
0.963216
1.01336
1.00892
1.01063
1.0024
0.884514
2.53363e-12
1.2784e-14
2.31897e-16
9.50461e-17
1.80798e-17
4.7922e-19
1.07677e-21
2.23705e-25
4.88924e-29
3.3192e-32
2.47971e-35
1.78511e-38
1.27284e-41
9.06674e-45
6.44365e-48
4.5732e-51
3.23769e-54
2.28663e-57
1.61247e-60
1.13462e-63
7.96175e-67
5.57646e-70
3.89767e-73
2.71725e-76
1.89191e-79
1.31361e-82
9.10016e-86
6.29552e-89
4.34471e-92
2.99032e-95
2.05464e-98
1.40967e-101
9.65298e-105
6.59813e-108
4.49879e-111
3.05965e-114
2.07756e-117
1.40795e-120
9.51798e-124
6.42404e-127
4.32708e-130
1.72202e-133
1.04669
1.0326
0.999643
1.0044
0.995658
0.998029
1.0021
0.959688
3.46604e-12
1.29369e-14
2.676e-16
1.81969e-16
4.06657e-17
1.13578e-18
2.64314e-21
5.69267e-25
1.19775e-28
8.02241e-32
5.99645e-35
4.3164e-38
3.07411e-41
2.18749e-44
1.55368e-47
1.1014e-50
7.78944e-54
5.49485e-57
3.87209e-60
2.72246e-63
1.9094e-66
1.33661e-69
9.32774e-73
6.49198e-76
4.5162e-79
3.13495e-82
2.1698e-85
1.49933e-88
1.03373e-91
7.11165e-95
4.88525e-98
3.34825e-101
2.28986e-104
1.56359e-107
1.06517e-110
7.23702e-114
4.90843e-117
3.32139e-120
2.24201e-123
1.51205e-126
1.01835e-129
4.05302e-133
1.05815
1.02454
0.994889
1.03824
1.08769
1.01348
1.00548
0.773842
2.10319e-12
1.53221e-14
1.85347e-17
6.76571e-18
6.74875e-19
8.55456e-21
9.90465e-24
1.70283e-27
5.8136e-31
4.19905e-34
3.11312e-37
2.24117e-40
1.61154e-43
1.15986e-46
8.21937e-50
5.87443e-53
4.1706e-56
2.95099e-59
2.08866e-62
1.47702e-65
1.04342e-68
7.56279e-72
5.18522e-75
3.6089e-78
2.52649e-81
1.76401e-84
1.247e-87
8.55684e-91
5.91895e-94
4.12818e-97
2.86181e-100
1.95023e-103
1.33817e-106
9.18733e-110
6.28762e-113
4.2999e-116
2.92418e-119
1.9869e-122
1.37364e-125
9.16219e-129
6.18985e-132
2.7431e-135
1.03646
1.04102
1
0.912939
1.04322
1.04749
1.00226
0.0786501
1.97054e-14
3.49488e-16
4.30472e-16
1.21533e-16
6.52308e-18
3.27365e-20
1.08928e-23
1.44489e-27
8.48416e-31
6.34946e-34
4.54585e-37
3.21053e-40
2.26607e-43
1.59643e-46
1.12193e-49
7.87138e-53
5.50974e-56
3.84771e-59
2.68171e-62
1.86462e-65
1.29287e-68
8.96162e-72
6.20232e-75
4.28161e-78
2.94933e-81
2.02669e-84
1.38941e-87
9.51268e-91
6.49842e-94
4.42897e-97
3.01506e-100
2.04781e-103
1.38717e-106
9.38107e-110
6.33094e-113
4.26269e-116
2.86606e-119
1.92267e-122
1.28636e-125
8.59461e-129
5.73633e-132
2.26611e-135
1.05137
1.01236
0.967495
1.17305
1.0537
1.00288
1.0003
3.75932e-09
5.63414e-15
5.99702e-15
1.74422e-15
6.62386e-17
1.97659e-19
4.46483e-23
8.4585e-27
5.18616e-30
3.75682e-33
2.60976e-36
1.79922e-39
1.25258e-42
8.76643e-46
6.13898e-49
4.31076e-52
2.99324e-55
2.19434e-58
1.49392e-61
1.01222e-64
7.025e-68
4.90776e-71
3.35162e-74
2.37521e-77
1.59943e-80
1.11122e-83
7.48087e-87
5.09232e-90
3.48659e-93
2.37869e-96
1.61153e-99
1.09019e-102
7.38507e-106
4.98474e-109
3.37505e-112
2.2854e-115
1.52202e-118
1.02583e-121
7.06181e-125
4.58622e-128
3.02656e-131
2.01159e-134
8.05007e-138
1.02208
1.03182
0.999261
1.05281
0.926742
1.01223
1.00001
3.10969e-12
7.84493e-15
6.77945e-17
7.55808e-18
5.38994e-19
1.02055e-20
2.82441e-23
9.69564e-27
2.2373e-30
1.41782e-33
1.08686e-36
8.07935e-40
5.89449e-43
4.29063e-46
3.11859e-49
2.26094e-52
1.63644e-55
1.18149e-58
8.5076e-62
6.11407e-65
4.38447e-68
3.13753e-71
2.23952e-74
1.59456e-77
1.1321e-80
8.01872e-84
5.66828e-87
3.99723e-90
2.81495e-93
1.9769e-96
1.3845e-99
9.67774e-103
6.75091e-106
4.69868e-109
3.26408e-112
2.26191e-115
1.56332e-118
1.07852e-121
7.42341e-125
5.09728e-128
3.49565e-131
2.39035e-134
9.63584e-138
1.02775
1.11984
1.03267
1.00687
1.06563
1.0266
0.822357
5.91499e-11
-3.84204e-18
1.09825e-19
1.08429e-18
1.32954e-19
1.09054e-21
4.0492e-25
2.78193e-29
8.40855e-33
3.28953e-36
1.44637e-39
6.6989e-43
4.45522e-46
1.48476e-49
6.68787e-53
3.1701e-56
1.10229e-59
9.55514e-63
1.6135e-65
3.65272e-69
1.31027e-72
3.01459e-75
5.7708e-79
1.82358e-81
2.60719e-85
5.07731e-88
6.01989e-91
1.88829e-94
9.63432e-98
1.259e-100
6.69792e-104
5.79867e-108
1.20446e-109
6.59349e-113
5.36234e-117
1.89126e-119
3.38867e-123
2.12103e-126
1.45338e-128
3.71873e-132
1.78365e-135
2.00417e-138
3.93239e-141
1.01615
1.06989
1.07174
1.02894
0.983872
0.902971
1
1.97989e-11
-4.28191e-18
1.49006e-16
1.58713e-17
1.23e-19
1.05652e-22
5.72214e-26
1.27713e-29
3.25625e-33
1.29483e-36
5.84611e-40
2.65744e-43
1.08216e-46
5.67976e-50
2.23223e-53
1.58346e-56
1.11951e-59
2.17352e-63
1.23586e-66
9.22067e-70
2.52721e-73
1.03855e-75
3.06092e-79
3.53764e-82
3.65938e-85
3.17105e-88
6.661e-92
4.98263e-95
2.92529e-98
4.25321e-102
1.11579e-105
8.20735e-107
9.35564e-110
8.85704e-114
1.60031e-117
1.68227e-120
6.39181e-123
9.70941e-127
1.52938e-130
3.62903e-133
3.48832e-137
2.23766e-140
2.56629e-144
1.01339
1.01865
1.0427
0.956978
1.02566
1.00409
1.00126
1.04154e-07
-3.4555e-17
-1.32402e-20
1.90126e-17
3.1423e-18
5.1174e-20
4.11765e-23
2.37802e-27
4.86213e-31
2.03253e-34
1.03566e-37
4.93055e-41
1.56461e-44
9.61336e-48
3.00832e-51
3.00434e-54
1.07764e-57
4.33609e-61
2.03778e-64
7.01242e-67
2.11095e-70
1.85995e-73
2.45999e-76
4.01677e-80
3.95579e-84
2.91746e-86
2.72858e-89
1.10441e-92
1.02831e-95
6.00197e-99
2.46035e-102
1.14947e-105
7.29097e-108
3.94085e-111
6.90802e-115
3.18915e-118
5.48701e-121
2.12103e-124
1.14864e-128
3.45842e-130
1.8653e-133
3.21844e-137
7.629e-140
1.065
1.00625
1.02213
1.0322
0.98387
1
1.00071
0.228093
-1.08669e-16
-1.01193e-18
2.01948e-31
1.01639e-18
6.134e-20
1.74975e-22
2.55201e-26
2.65617e-30
9.27738e-34
3.99209e-37
1.69696e-40
7.34134e-44
3.12701e-47
1.28889e-50
7.18041e-54
5.99232e-57
2.53329e-60
9.76528e-64
2.36779e-67
3.26325e-69
2.39455e-72
1.66326e-76
3.95847e-79
3.37656e-82
8.47181e-86
1.61296e-89
2.81792e-92
8.4654e-96
5.59369e-99
7.80234e-102
7.65309e-106
2.38729e-107
1.28775e-110
5.0184e-114
7.69256e-117
3.56792e-120
3.41257e-123
1.47198e-126
9.92537e-130
7.35291e-134
1.68482e-137
6.57961e-141
1.00577
1.00089
0.976181
1.02861
1.02181
1.00397
1.00248
0.884159
9.49313e-13
1.73503e-15
9.48495e-18
4.73446e-18
5.77168e-19
3.74774e-21
9.17809e-25
6.13354e-29
1.85114e-32
7.81536e-36
3.84976e-39
1.48244e-42
5.85541e-46
2.70114e-49
1.38791e-52
8.67201e-56
5.19746e-59
5.98556e-62
8.15082e-66
2.11997e-69
9.84837e-72
1.07807e-74
5.89615e-78
5.47499e-82
6.02238e-84
1.5611e-87
1.79548e-90
2.07176e-94
9.40902e-97
2.45112e-100
2.65735e-102
7.64005e-106
7.02438e-110
2.99333e-112
1.41774e-115
7.8328e-119
2.1934e-122
6.48655e-126
1.17802e-127
5.4885e-131
1.71615e-134
3.80817e-137
1.0422
1.02988
0.979158
0.978984
0.994039
0.989533
1.00216
0.959873
1.33871e-12
1.73107e-15
7.73992e-18
3.70635e-18
4.45063e-19
2.8459e-21
6.8776e-25
4.60269e-29
1.41272e-32
6.47321e-36
2.88031e-39
6.3078e-42
1.38227e-45
9.45212e-49
3.06821e-52
1.19973e-55
3.17185e-59
3.95916e-62
2.16755e-65
2.93288e-69
8.30657e-73
7.49573e-74
1.04833e-76
1.29285e-79
1.57399e-83
6.38183e-87
9.18353e-91
1.71481e-93
7.97381e-97
1.48455e-99
1.80895e-103
5.55748e-106
2.52253e-109
2.0927e-112
2.86345e-115
1.16473e-118
6.95665e-122
4.0842e-126
1.05501e-129
5.82886e-131
4.14194e-134
1.89898e-138
1.05807
1.02839
0.978501
1.0205
1.00904
1.02003
1.00539
0.773804
-2.25793e-16
-1.42186e-18
0
9.01715e-19
5.36231e-20
1.47647e-22
2.10404e-26
2.22127e-30
7.74139e-34
3.42968e-37
1.46737e-40
6.43398e-44
4.6867e-47
1.40396e-50
6.21517e-54
2.80267e-57
1.42363e-60
1.12959e-63
2.43738e-67
8.2951e-71
2.05924e-72
1.39397e-75
8.47273e-80
1.73796e-83
6.71199e-87
1.17695e-89
4.98444e-92
1.31784e-95
1.74143e-99
1.02183e-101
1.92649e-105
2.7426e-109
6.03338e-112
6.08035e-115
1.13539e-117
5.53296e-121
2.83758e-124
1.73487e-128
4.54879e-132
1.7897e-135
1.42704e-138
6.94153e-139
1.04656
1.02866
1.01405
0.985202
0.999884
1.05269
1.00205
0.0776156
-1.22874e-16
-3.35205e-20
1.8553e-17
3.00654e-18
4.84226e-20
3.99312e-23
2.44207e-27
4.90658e-31
2.05646e-34
8.75594e-38
5.56068e-41
1.95937e-44
7.4686e-48
6.76049e-51
3.40888e-54
5.96925e-58
1.61581e-60
1.55775e-64
8.24826e-67
1.37352e-69
1.0364e-73
1.94249e-76
2.44888e-79
2.25035e-83
9.23027e-86
3.67671e-89
5.56544e-93
7.62341e-96
5.715e-99
3.12158e-102
3.67707e-105
9.71017e-108
2.76325e-111
3.39328e-114
1.26853e-117
4.68334e-121
2.84243e-124
1.77153e-128
5.2161e-132
2.03565e-135
8.06252e-139
2.22796e-142
1.03254
1.05023
0.956021
1.19271
1.10877
0.927675
1.00033
2.05747e-09
-1.27864e-18
6.70882e-17
1.80985e-17
2.03661e-19
1.56289e-22
4.15303e-26
1.01603e-29
3.07465e-33
1.41367e-36
5.96622e-40
2.73358e-43
1.3493e-46
4.86476e-50
2.56604e-53
1.08776e-56
5.87581e-60
2.33536e-63
7.24491e-66
2.08379e-69
2.72046e-73
9.20491e-77
1.85507e-78
6.8171e-82
2.43842e-85
7.14395e-88
3.45769e-91
8.64779e-95
6.18538e-98
4.26845e-101
2.71807e-104
1.3999e-108
1.39677e-110
1.97907e-114
1.82047e-118
3.15633e-120
5.75545e-123
6.56716e-127
9.83938e-131
3.15796e-133
4.12748e-136
2.42696e-138
3.42236e-142
1.02651
1.05675
1.00154
0.997604
0.862324
1.01041
1.00001
1.05877e-12
1.30347e-15
5.25217e-18
1.34674e-18
2.24328e-19
2.85661e-21
1.52942e-24
8.59091e-29
2.16689e-32
8.88219e-36
3.81455e-39
1.61375e-42
6.85074e-46
2.93859e-49
1.26179e-52
5.22548e-56
2.21597e-59
1.06294e-62
5.20047e-66
1.87988e-69
7.28968e-73
1.42641e-75
7.03409e-79
9.49366e-83
9.68915e-85
4.13001e-88
4.02357e-92
4.82615e-95
7.32215e-98
4.87729e-101
5.03946e-105
1.01239e-106
6.71151e-110
1.61121e-113
2.75937e-116
1.46478e-119
2.33736e-123
2.75467e-126
3.85748e-129
2.45091e-132
1.44718e-135
5.13343e-139
2.91226e-143
1.00063
1.03282
1.0047
1.03998
1.00072
1.02239
1.006
1.00358
1.01242
1.00213
1
1.00374
1.01384
1.00222
1.00166
0.993786
1.00185
0.987337
1.00161
0.986901
1.00148
1.00181
1.00272
1.00404
0.995845
1.00139
1.00381
1.00289
1.00372
0.985295
1.00113
1.01108
1.00334
0.96238
1.00051
1.00121
0.94671
1.00657
0.999578
1.00083
0.979725
1.00663
1.00637
1.07632
1.0054
1.00777
1.00683
1.06239
1.00596
1.0067
0.990513
1.00153
1.04769
1.00666
0.992347
1.00133
1.00032
0.99997
0.99988
1.01521
1.00042
1.00308
0.999835
1.00021
1.00757
1.0002
1.00603
1.00031
1.00827
1.0005
1.00126
1.01975
1.0064
1.03988
1.00094
1.02008
1.00625
1.00393
1.01392
1.00259
0.961086
1.00373
1.01157
1.00231
1.00197
0.990618
1.00185
1.00628
1.0016
0.999961
1.00156
1.00169
1.0027
1.00289
0.999118
1.00175
0.998856
1.00285
1.00376
0.960473
1.00066
1.00339
1.00333
0.871446
1.00062
1.00113
0.984682
1.0069
0.985949
1.00089
0.995852
1.00691
1.00797
1.06702
1.00627
1.01899
1.00887
1.06701
1.00612
1.00694
0.991032
1.00171
1.05744
1.0066
0.994631
1.00135
1.00054
1.00069
0.999763
0.959033
1.00038
0.9979
0.999807
1.00049
1.00931
1.00101
1.01052
1.00031
1.01161
1.00064
1.00136
1.02535
1.00621
1.01284
1.00042
1.00918
1.00551
1.00397
1.01618
1.0026
0.899705
1.00338
1.02738
1.00231
1.00192
0.99998
1.00183
1.0043
1.00177
0.998482
1.00189
1.00211
0.994332
1.00243
0.998253
1.00196
0.990658
1.00279
1.00361
0.975421
1.00091
1.00262
1.00352
0.942325
1.00136
1.00117
0.990408
1.00689
0.992684
1.00117
0.994893
1.00678
1.00869
1.05102
1.00629
1.0367
1.00912
1.02601
1.00561
1.00697
0.988056
1.00166
1.05306
1.0068
0.987238
1.00148
1.00043
0.99892
0.999889
0.975535
1.00024
1.00023
0.999809
1.00038
1.01692
1.00108
1.00692
1.00013
1.02215
1.00024
1.00108
0.962982
0.997069
0.932539
1.00726
0.987977
1.00049
1.0093
1.00638
1.01608
1.0133
1.01823
1.00894
1.00608
-2.62697e-14
0.970108
-2.52676e-16
0.824287
5.4543e-08
0.963728
4.02002e-10
1.11263
1.00574
0.856936
1.04967
1.11525
1.03169
0.864502
1.0067
1.02311
1.02789
1.06715
1.01959
1.02366
1.00814
-1.28232e-15
1.00073
-7.64987e-17
1
1.75855e-08
1.00087
3.56282e-07
0.96905
0.96107
0.971587
0.992061
0.95068
1
0.953923
1.00296
1.00125
0.993321
0.960582
1.00205
0.98711
1.00347
0.027711
1.00143
0.713345
1.00176
0.0348234
1.00125
0.713969
0.890564
1.03506
1.0216
1.00182
0.872746
1.03837
1.02175
0.999842
0.992965
0.956593
0.987448
0.996578
0.966505
1
0.929056
1.00237
1.00018
1.00107
0.925971
1.00229
1.00047
1.01702
1
0.769299
1.00861
1.01539
0.952288
0.791791
1
1.00542
1.001
1.01154
1.00503
1.00119
0.999752
1.0004
1.00188
1.00071
1.00271
1.00054
1.00195
1.0016
1.00156
1.04153
0.797217
0.993818
1.0018
1.02536
0.722376
1.00039
0.999939
1.00539
0.99862
0.99995
1.00476
1.00051
1.00087
1.00417
1.00083
1.00243
1.00165
1.00416
1.00114
0.742
1.02568
1.03337
1.10933
0.748284
0.995897
1.02693
1.00375
1.00445
0.961232
1.00049
1.00537
0.97016
1.00419
1.00046
1.00338
0.947297
1.00533
1.00092
1.00376
0.943222
1.05045
1.04924
0.947174
1.04001
1.03223
1.05118
0.941453
1.0093
1.01781
1.02916
1.03955
1.01967
1.04198
1.00934
0.763741
1.00065
0.0764133
1.00233
0.763646
1.00077
0.0834501
1.02622
0.981668
0.989173
1.03454
1.10943
0.963769
0.97468
0.983749
0.996888
0.969699
0.989531
0.996805
0.978137
0.986836
0.00402275
1
0
1.00048
0.00859412
1.00001
4.6185e-08
1.00045
1.02624
1.0024
0.95017
0.98149
1.01596
1.00361
1.00553
1.00274
1.00453
1.00272
1.00284
1.00389
1.00579
2.71051e-23
0.852995
-1.07944e-15
1.00002
1.04642e-09
0.850801
2.73328e-10
1.0852
1.0473
1.03417
1.03006
1.07596
1.06945
1.03735
1.00552
1.00557
1.00089
1.03616
1.00676
1.00056
1.00512
8.69652e-08
0.962076
8.26681e-10
0.822883
8.65977e-08
0.962061
8.05747e-10
1.11467
1.05114
0.869113
1.02919
1.09684
1.05799
0.996747
1.00378
1.00906
1.00257
1
1.00414
1.00613
1
2.94984e-08
1.0013
5.54638e-07
1
2.94473e-08
1.00095
5.6015e-07
0.969693
0.996248
0.930313
1.01481
0.907879
0.99241
0.84454
1.0051
1.00237
0.988695
1.00802
1.00362
1.0025
0.998663
0.0354924
1.00153
0.714098
1.00174
0.0356281
1.00123
0.714353
0.87247
1.0329
1.02501
0.957696
0.958753
1.02144
1.01451
0.996522
1
0.97569
0.988568
0.997625
1
0.979271
0.927003
1.00207
1.00085
1.00122
0.926482
1.00235
1.00046
1.0151
0.919781
0.828514
1.01263
1.00598
0.909037
0.864845
0.997517
1.00496
1.00005
1.00928
0.997729
1.00471
0.999364
1.00106
1.00194
1.002
1.00288
1.0007
1.00196
1.00139
1
1.03382
0.737732
0.997623
1.00443
1.02709
0.750636
1.00055
0.9999
1.00239
0.998392
1.00045
0.9998
1.00206
1.00213
1.00405
1.0018
1.00255
1.00149
1.00395
1.00142
0.747603
0.978241
1.0274
1.02173
0.754288
0.973028
0.994124
1.00538
1.00738
1.00865
1.01693
1.00497
1.00914
1.01055
1.00132
1.00369
0.943621
1.00544
1.00101
1.00371
0.943282
1.00471
1.03765
1.01065
1.00377
1.05896
1.00214
0.936785
1.00945
1.01933
1.01207
1.05028
1.00887
1.02166
1.01323
0.763174
1.0011
0.0843123
1.00235
0.763592
1.00081
0.0841609
0.996619
0.985995
1.06716
1.09755
0.952598
0.983793
1
0.985971
0.996078
0.932741
0.957043
0.996117
0.989701
0.945405
0.0093493
1.00023
7.45338e-08
1.00044
0.00933745
1.00001
7.73992e-08
1.0055
1.03646
1.00175
0.871569
1.00236
1.00064
1.00835
1.00538
1.0047
0.98927
0.961948
1.00566
1.00341
0.975588
2.10223e-09
0.849483
5.57982e-10
1.00002
2.09973e-09
0.849521
5.65432e-10
1.05987
1.11048
1.06649
0.96771
1.02822
1.04219
0.984841
1.00547
1.0034
0.988951
1.02694
1.00484
1.00289
1.00337
5.55001e-08
0.962817
3.81459e-10
0.826101
-2.37196e-14
0.970777
-3.01944e-16
1.06371
1
1.01256
1.03614
1.04163
1.03439
0.993634
1.0024
1.00226
0.997435
0.893929
1.00268
1.00223
0.999553
1.73768e-08
1.00118
3.65983e-07
1
-1.42175e-15
1.00079
-8.75242e-17
0.919918
0.991857
0.835649
1.03393
0.949646
0.99242
0.988063
1.00515
1.00286
1.01192
1.00359
1.00549
1.00352
1.01565
0.0346156
1.00152
0.713358
1.00095
0.0278335
1.00133
0.71316
0.999854
1.02489
0.990501
0.992287
0.96093
1.0134
0.999091
0.999079
1.00001
0.988088
0.999183
0.996507
1.00013
0.989704
0.926521
1.00182
1.00084
1.00085
0.928711
1.00189
1.00019
1.01536
0.908245
0.864114
1.01738
1.0093
0.904818
0.928716
0.995347
1.00189
0.997771
1.00354
0.992023
1.00179
0.985629
1.00114
1.00199
1.00213
1.00248
1.00042
1.00182
1.00064
1.00459
1.0208
0.819673
0.997039
0.998009
0.994261
0.958341
1.0009
0.99696
0.995353
0.992952
1.00042
0.997488
0.994714
1.00215
1.00418
1.00167
1.0024
1.0009
1.00406
1.00083
0.772466
0.925374
0.988123
0.962346
1.01651
0.957937
0.997545
1.00662
1.01559
1.01711
1.02327
1.00715
1.01582
1.02112
1.00139
1.00353
0.94351
1.00459
1.00048
1.00336
0.947426
1.06377
1.01958
0.894361
0.977376
1.05857
1.01202
0.960124
1.01054
1.01403
1.00874
1.05348
1.01051
1.01792
1.00979
0.763718
1.00106
0.0836308
1.00166
0.763623
1.0006
0.0765372
0.896881
0.964109
0.957545
1.01573
0.807696
0.954034
0.971642
0.988248
1
0.911709
0.957547
0.995799
1
0.967483
0.00860084
1.00025
5.20343e-08
1.00011
0.0040063
1
-8.67362e-22
1.0019
1.00272
1.0269
0.872203
1.00692
0.997039
1.02045
1.00641
1.0048
1.01435
1.01123
1.00663
1.00472
1.01842
1.03752e-09
0.849156
2.82792e-10
1
-2.71051e-23
0.852708
-1.05231e-15
1.00298
1.00199
1.00061
1.00072
1.00116
1.00349
1.00225
1.01315
1.02175
1.03128
1.03457
1.02148
1.03023
1.01262
1.00532
1.00166
1.01311
1.00535
1.00212
1.01328
1.00513
1.00768
1.0642
1.00568
1.05909
1.04648
1.00655
1.00542
1.00333
1.00137
1.00225
1.0012
1.00192
1.00301
1.00253
1.01117
1.0201
1.00747
1.03017
1.00286
1.02983
1.01134
1.00602
1.00576
1.00245
1.01351
1.00274
1.01343
1.00584
1.00554
1.00877
1.00215
1.00373
1.00933
1.00258
1.00564
1.01244
1.04515
1.00222
1.01558
1.04348
1.00332
1.01456
1.00449
1.0022
1.00318
1.00215
1.00253
1.00312
1.00479
1.00516
1.03398
1.0109
1.00749
1.01654
1.01811
1.00442
1.00544
1.00386
1.00985
1.00293
1.01007
1.00299
1.00526
1.01011
1.01295
1.03811
1.00499
1.04161
1.00388
1.00913
1.00418
1.00259
1.00263
1.00333
1.00284
1.00316
1.00388
1.00186
1.0018
1.00165
1.00169
1.00182
1.00128
1.00179
0.995527
0.957932
1
0.991618
0.972007
1
0.999032
1
1.00059
1.00066
1.00167
1.00008
1.00033
1.00016
1.00396
0.959944
1.00225
0.982119
1.00218
0.978432
1.00293
1.00253
1.00206
1.00179
1.00131
1.00196
1.00165
1.00241
0.994699
0.99191
0.952834
1
0.982616
0.999776
0.998703
1
1.00201
1.00026
1.00041
1.00014
1.00047
1
1.00003
1.00005
1.00112
1.0015
1.00008
1.0011
1.00014
0.991845
0.958092
1.00232
1.00311
0.956336
1.00224
0.990799
1.00019
1.00183
1.00353
1.00353
1.00167
1.00338
1.00024
1
0.98389
1
0.976396
0.998285
0.970357
0.998981
1.00008
1.0017
1.00011
1.00094
1.00015
1.00119
1
0.993132
1.00361
0.955319
1.00197
0.955323
1.00219
0.994254
1.00041
1.00342
1.00174
1.00318
1.00198
1.00331
1.00029
1.00029
1.00339
1.00255
1.00346
1.00336
1.00236
1.0005
0.998503
0.998023
1
0.970475
0.997235
1
0.999578
1.00005
1.00159
1.00022
1.00066
1.0012
1.00013
1.00042
0.999735
1.01121
1.00513
1.00068
1.00508
1.00103
0.999102
1.00046
1.00384
1.00316
1.00211
1.00346
1.00269
1.00036
0.999886
0.969671
0.999439
1
0.995949
1
0.999445
1.0002
1.00093
1.00106
1
1.00148
1.00018
1.00012
1.00214
1.00014
1.0028
1.00092
1.00016
1.00267
1.00217
1.01677
1.05163
1.00162
0.972716
1.04441
1.00244
1.01698
1.0054
1.00553
1.00849
1.00653
1.00558
1.00843
1.00529
1.00052
0.99825
0.999969
1.00473
0.999905
1.00514
1.00051
1.00218
1.00116
1.00013
1.00255
1.00028
1.00275
1.00214
1.01776
1
1.04182
1.00291
1.04271
1.00313
1.01758
1.00552
1.00671
1.00569
1.00827
1.0058
1.00833
1.00549
1.00837
1.00975
1.00884
1.00573
1.0085
1.00883
1.00822
0.997378
1.01245
1.02395
1.07775
0.998682
1.02245
1.00519
1.00496
1.00579
1.00758
1.00569
1.00573
1.00772
1.00538
1.00492
1.00513
1.00608
1.00222
1.00566
0.997655
1.00466
1.0084
1.00596
1.00861
1.00878
1.00807
1.00878
1.00821
1.01288
1.07449
1.0126
1.01981
1.0191
1.02051
1.01032
1.00572
1.00617
1.00607
1.00834
1.00604
1.00836
1.00583
1.00817
1.00936
1.00679
1.00675
1.01003
1.00656
1.00841
1.00168
0.989465
1.00013
0.990584
0.9883
1.00016
1.00257
1.00515
1.00364
1.00226
1.00137
1.00366
1.0023
1.00577
1.00835
1.04253
1.02088
1.01981
1.01953
1.01845
1.0096
1.00837
1.00696
1.01051
1.00622
1.01016
1.00659
1.00825
1.00223
0.989407
0.990817
1.00018
0.988064
1.00015
1.00113
1.00517
1.00171
1.00352
1.00213
1.00383
1.00228
1.00478
1
1.00015
0.999942
1.00032
1.00001
0.99998
0.998913
0.967381
0.976298
0.990619
1.00216
0.998545
0.991442
0.912022
0.970407
1
0.999328
0.999908
0.999338
1.00004
0.972996
0.988167
1.0334
0.994017
0.954785
0.996439
0.997989
0.995894
0.998988
1.00055
1
0.999816
1.00006
0.999815
0.998559
0.994777
1.01971
0.951867
0.996088
0.981255
0.989739
0.995368
0.977336
1
0.994441
0.999132
0.996259
0.999814
0.983015
1.00219
1.00122
1.00005
1.00023
1.00143
1.00017
1.00253
1.00604
1.00784
1.00461
1.00727
1.00769
1.0058
1.0051
1.00206
1.00045
1.00156
1.00034
1.00065
1.00236
1.00158
1.0058
1.00356
1.0029
1.00263
1.00337
1.00345
1.00555
1.00249
1.00042
1.0013
1.00018
1.00174
1.00048
1.00223
1.00654
1.00832
1.0064
1.00533
1.00695
1.00572
1.00555
1.00279
1.00101
1.00076
1.00177
1.00131
1.00264
1.00184
1.00304
1.00251
1.00179
1.00095
1.00343
1.00114
1.00225
1.01198
1.01394
1.02809
1.0244
1.01165
1.01685
1.02774
1.00532
1.00308
1.01437
1.00621
1.00562
1.0026
1.0147
1.0056
1.03676
1.00396
0.994342
1.0012
1.00522
1.00394
1.00345
1.00138
1.00208
1.00111
1.00173
1.00285
1.00235
1.0061
1.0197
1.00919
1.02322
0.999785
1.02399
1.00778
1.00499
1.00642
1.00245
1.01486
1.00312
1.01499
1.0048
1.00503
1.00973
1.0032
1.00379
1.00516
1.00904
1.00302
1.00598
1.03575
1.00596
1.01137
1.00759
1.03508
1.00744
1.00355
1.00294
1.00353
1.00226
1.00374
1.00261
1.00369
1.00337
0.9843
1.00256
0.998998
1.00327
0.999533
1.00301
1.00497
1.00409
1.00872
1.00301
1.00881
1.00327
1.00482
1.0043
1.01248
1.03412
1.00953
1.03467
1.00892
1.00297
1.00321
1.00263
1.00246
1.00393
1.00289
1.00387
1.00268
1.0027
1.00193
1.00157
1.00157
1.00279
1.00181
1.00125
0.987308
0.971928
0.999624
0.991913
0.992022
0.986444
0.999616
0.998799
1.00045
1.00051
1.0015
0.999904
1
1.00039
1.00694