/*--------------------------------*- C++ -*----------------------------------*\
| =========                 |                                                 |
| \\      /  F ield         | OpenFOAM: The Open Source CFD Toolbox           |
|  \\    /   O peration     | Version:  5.0                                   |
|   \\  /    A nd           | Web:      www.OpenFOAM.org                      |
|    \\/     M anipulation  |                                                 |
\*---------------------------------------------------------------------------*/
FoamFile
{
    version     2.0;
    format      ascii;
    class       surfaceScalarField;
    location    "4.7";
    object      alphaPhi10;
}
// * * * * * * * * * * * * * * * * * * * * * * * * * * * * * * * * * * * * * //

dimensions      [0 3 -1 0 0 0 0];

internalField   nonuniform List<scalar> 
26710
(
-1.02993e-08
-1.48957e-08
-9.52279e-09
-1.21931e-08
-2.42532e-08
-1.67282e-08
-6.30716e-10
-3.86906e-08
-4.33387e-08
1.1218e-08
-4.77392e-08
-1.7275e-08
-3.06083e-08
-2.82824e-08
-6.08166e-10
-3.44003e-08
-2.12956e-08
-1.48024e-07
1.02501e-07
2.81359e-07
-1.48405e-07
1.15093e-08
-1.05463e-08
-2.00502e-08
3.0954e-08
-8.59108e-09
-4.6984e-09
-4.14916e-09
2.02227e-08
-2.0336e-10
6.27243e-08
6.28216e-08
6.30287e-08
1.69335e-16
-9.93016e-09
-9.93016e-09
-9.93016e-09
-4.48326e-24
2.33308e-22
1.1483e-22
-3.90244e-22
-5.81421e-22
3.19428e-22
-4.84154e-22
7.1936e-27
9.2177e-26
-9.94589e-27
3.91202e-28
-3.09032e-29
-7.77227e-30
5.1012e-29
-4.39384e-30
-4.96677e-31
2.82649e-32
-1.65441e-32
-8.76541e-33
1.56764e-36
-2.71237e-36
-1.04971e-34
4.19498e-40
-5.15173e-40
8.44907e-40
1.78194e-43
1.49177e-44
-6.51861e-41
7.80511e-47
-4.43383e-47
4.07862e-45
3.43212e-50
-6.40538e-51
-5.64295e-48
1.4996e-53
3.81087e-54
-1.17687e-50
6.53652e-57
-1.104e-57
-9.7415e-54
2.88497e-60
-8.09482e-62
8.38355e-58
1.26301e-63
-1.19608e-64
2.89702e-61
5.46161e-67
-1.71408e-67
3.4355e-63
2.39154e-70
7.5746e-72
-5.55788e-67
1.15466e-73
2.12691e-74
-2.06486e-69
5.85356e-77
-1.69182e-77
7.1892e-73
2.35029e-80
3.79839e-82
-3.1899e-76
1.45659e-83
-3.28602e-85
-1.17439e-79
2.1252e-86
6.95641e-87
-1.45469e-82
3.5245e-90
-1.0909e-91
6.36022e-86
1.77441e-93
4.92801e-94
-8.19346e-89
1.22586e-96
7.54785e-98
-2.43048e-91
2.27387e-99
1.58481e-100
-4.28789e-95
2.99313e-102
-1.08267e-102
4.95547e-98
8.48882e-106
8.4356e-107
-1.3758e-101
6.10371e-109
4.78233e-110
-1.54719e-104
7.38559e-112
1.99379e-113
1.40681e-107
1.35745e-114
1.3833e-115
-1.16302e-110
1.65412e-118
-4.40122e-119
2.38658e-118
5.90906e-122
-1.18014e-122
9.17866e-123
5.27751e-125
2.54082e-126
1.21382e-121
1.06364e-127
2.65518e-129
-1.85136e-124
1.50817e-130
8.54911e-132
-4.78643e-126
2.57575e-133
9.04287e-134
-2.66866e-129
5.42443e-137
-7.26302e-138
-1.18838e-133
5.5249e-140
1.07043e-140
-1.0896e-135
1.14768e-143
8.28679e-144
-1.62336e-138
1.17368e-146
-1.22755e-149
4.01953e-143
8.16155e-149
3.40277e-150
-8.98704e-146
1.04201e-153
1.63388e-153
7.45002e-08
2.39971e-08
-2.80308e-07
7.03524e-09
1.1524e-08
2.30172e-09
9.2119e-09
2.79387e-08
1.30274e-08
-1.78483e-07
4.56833e-08
2.71314e-08
4.44937e-08
4.91942e-08
4.23504e-08
3.54151e-08
2.79118e-08
-3.20923e-10
-8.09576e-10
5.08367e-08
-7.74016e-10
2.95645e-09
1.06628e-08
1.57789e-08
-3.09792e-08
-3.05691e-08
-2.76646e-08
-3.57701e-08
-2.00528e-07
-1.94861e-08
1.55236e-07
1.92653e-07
1.91258e-08
1.02975e-08
-1.19961e-08
-1.27629e-08
1.38728e-08
-8.40087e-09
3.17829e-08
-1.29828e-08
-2.52894e-09
-7.27779e-09
-4.5238e-11
-2.00278e-10
1.8069e-08
-4.75401e-11
1.81964e-08
-4.19522e-18
1.72788e-18
2.76599e-08
2.64434e-18
-1.20706e-18
-1.66267e-17
2.05209e-17
1.48112e-18
-1.32669e-24
-4.57845e-22
8.78991e-24
2.91445e-22
1.49346e-21
-4.58323e-21
5.80393e-21
1.50195e-25
7.27691e-27
1.26397e-26
2.37939e-27
4.84557e-27
3.70108e-31
1.44044e-30
9.28462e-29
-7.75666e-30
2.40078e-34
8.96102e-32
-1.69386e-32
1.09577e-37
-7.11998e-35
9.19991e-37
3.67825e-41
-7.22831e-39
2.28476e-39
1.50931e-44
-1.37637e-42
-1.37022e-41
6.81795e-48
-7.2849e-46
-2.51163e-45
3.13533e-51
-4.53873e-49
-6.58525e-48
1.43311e-54
-1.33396e-52
-1.0183e-50
6.43524e-58
-2.2021e-57
-1.19474e-54
2.93011e-61
4.94631e-60
-2.16668e-58
1.43585e-64
-7.8953e-65
-4.94785e-61
7.89778e-68
-3.82156e-66
-5.91297e-64
3.38653e-71
-9.72065e-70
1.26204e-67
1.68333e-74
-4.69878e-75
3.01218e-72
1.22715e-77
1.11312e-76
-2.65941e-73
4.54222e-81
3.62633e-80
7.54483e-77
4.0301e-84
-2.45237e-88
-3.15718e-81
1.02433e-86
-1.87049e-86
-1.78201e-82
9.45649e-91
8.94451e-89
-4.63048e-87
7.43923e-94
1.77384e-94
-1.40898e-89
7.52562e-97
7.91919e-98
-3.80834e-92
2.57089e-100
-1.91327e-97
9.72495e-96
2.34093e-103
-3.17751e-100
7.15835e-98
9.32177e-107
3.42744e-107
-2.34353e-102
9.14855e-110
1.55775e-107
-2.65966e-106
2.89857e-113
-5.64404e-111
-4.35663e-108
5.1199e-116
8.09724e-118
1.07896e-117
7.05694e-118
-7.8776e-118
-7.61151e-115
7.08425e-122
-1.54399e-121
-6.22828e-118
1.71945e-125
-7.35688e-124
-1.34974e-121
1.07285e-128
-1.90724e-127
-7.91842e-124
3.3294e-132
-1.94667e-129
-4.11592e-127
1.35534e-135
-5.89154e-136
3.28929e-136
9.70599e-139
-3.84538e-138
-2.06654e-134
8.81866e-142
-6.85463e-142
-2.47516e-137
5.47874e-145
-3.78978e-142
-2.17696e-139
1.46003e-148
-4.30636e-146
-3.18241e-144
4.34786e-151
1.1769e-149
6.13423e-147
8.95627e-157
-1.79853e-149
3.10322e-08
-6.4834e-09
-2.50294e-07
-2.10286e-09
-2.15706e-08
3.20981e-07
6.27995e-10
7.17232e-09
7.71243e-07
-4.30301e-08
-2.30953e-09
5.76081e-11
-1.84675e-08
-2.47579e-08
-2.39537e-08
-3.08768e-08
7.84143e-07
7.44608e-07
7.89565e-07
-5.3063e-08
3.79836e-09
-2.51458e-08
-6.32656e-08
-6.65745e-08
-3.49985e-08
-1.47093e-08
-2.48775e-07
-1.14288e-07
-7.10209e-08
-6.58262e-08
-7.03293e-08
-3.23669e-10
-2.11318e-08
2.29234e-09
5.79287e-09
1.55905e-08
6.62382e-10
1.85351e-10
1.01056e-09
-1.69006e-10
1.26303e-09
-2.09631e-14
-2.03107e-16
-1.07802e-08
-2.23845e-16
-1.07802e-08
-1.84597e-24
-1.36029e-18
-1.46716e-21
5.8604e-20
4.1289e-19
2.09498e-19
9.73603e-19
-9.32565e-26
-2.60915e-23
-2.15304e-26
-8.15483e-27
-1.14297e-26
5.92308e-31
7.65048e-28
-1.56686e-28
5.37099e-29
1.34298e-30
-2.33219e-30
-1.28125e-30
9.93113e-35
-1.81457e-33
1.08182e-34
1.6578e-38
-2.20308e-37
3.62045e-37
6.8172e-42
-5.21042e-41
-1.04659e-41
2.99324e-45
-1.30669e-44
1.09079e-42
1.33281e-48
-3.64496e-48
-2.86494e-46
5.93671e-52
-5.34466e-52
3.16091e-48
2.5261e-55
-2.52128e-55
-4.18917e-52
1.10933e-58
-6.68824e-59
8.36538e-56
4.88194e-62
-1.87523e-62
1.61252e-58
2.24734e-65
8.94858e-67
-5.80062e-62
9.95971e-69
1.70656e-69
-1.14572e-65
4.60002e-72
1.35955e-73
2.02101e-68
2.47435e-75
-3.77302e-76
3.27778e-73
1.33492e-78
1.00421e-79
-5.5921e-74
1.15121e-81
-3.79502e-83
3.91987e-79
7.29838e-84
-2.8734e-85
1.14404e-80
2.37014e-87
-7.9454e-89
-7.47456e-84
3.02501e-91
-8.23192e-92
3.99939e-92
4.73646e-94
-1.23694e-94
3.35719e-95
5.74046e-96
9.02476e-98
-8.98588e-93
8.2168e-100
7.6945e-101
-2.95224e-95
1.4558e-103
2.80856e-104
3.66448e-99
6.76505e-107
-4.37733e-108
-2.68028e-102
2.71347e-110
2.02057e-111
-9.87368e-107
2.43326e-113
-7.70143e-115
-1.24732e-110
1.12311e-115
2.06038e-117
-6.45119e-112
1.05049e-119
1.56989e-120
6.67836e-115
5.48659e-123
1.50652e-123
-3.72639e-118
7.26085e-126
1.57467e-126
-4.05937e-122
1.47603e-128
-6.49795e-129
-2.0915e-124
1.38771e-132
6.8838e-133
9.36091e-128
4.93918e-136
3.49916e-136
3.64741e-131
7.36824e-139
-1.84291e-140
7.86026e-140
6.88294e-141
1.87709e-142
-8.79598e-137
6.32632e-145
9.31133e-146
-6.56422e-141
1.20037e-148
3.02873e-150
2.3461e-144
-8.29044e-153
1.97028e-153
-2.83004e-08
3.19612e-08
-5.04852e-07
8.96319e-08
-2.11244e-09
-2.66708e-07
-6.70054e-09
8.01524e-10
-4.90015e-07
3.9568e-08
4.8717e-10
3.00925e-08
-4.60235e-07
-4.30029e-07
-4.88533e-07
6.60696e-10
1.13484e-09
1.52296e-10
-4.69762e-08
-2.51523e-08
-4.81786e-09
-2.84597e-08
7.35739e-09
-3.68265e-08
-6.88996e-08
-5.22054e-07
6.01729e-07
-3.88693e-09
5.36359e-08
-8.56619e-08
-9.01418e-08
-9.49776e-08
-8.70134e-08
6.65086e-10
-1.88219e-08
3.94746e-09
5.79689e-09
7.63993e-09
2.93971e-10
5.04104e-10
-1.5218e-09
-3.28939e-11
2.51164e-10
2.09434e-10
2.47656e-10
5.1988e-10
4.66776e-10
5.58998e-10
-4.42231e-10
-3.11609e-10
-3.38251e-10
-3.74894e-10
-5.70758e-11
2.9719e-12
2.3347e-08
2.7244e-11
2.3357e-08
-1.15364e-21
-5.07152e-18
-9.9685e-19
8.80317e-18
3.65706e-16
1.21844e-17
-3.81027e-16
-6.05997e-18
-6.0139e-18
-6.0918e-18
4.64846e-25
-9.85011e-22
-3.68071e-23
1.9452e-28
-1.58918e-25
-1.06801e-27
8.59626e-28
-1.26602e-27
1.23932e-29
4.25452e-30
-1.97626e-29
4.26704e-32
9.0671e-34
-2.52401e-32
-2.32294e-33
7.58616e-38
-2.81515e-36
9.8294e-37
2.60228e-41
-4.18652e-40
-1.03469e-40
1.13441e-44
-2.06412e-43
2.24913e-42
5.0131e-48
-1.29484e-47
-2.56173e-45
2.16978e-51
5.02733e-51
5.00307e-49
9.45332e-55
-6.17837e-54
6.90423e-52
4.11587e-58
-2.21858e-57
-1.68057e-55
1.88863e-61
-1.015e-60
-1.77571e-58
9.80239e-65
5.56161e-65
-2.10793e-62
4.12851e-68
-1.37099e-67
-4.31202e-64
1.79091e-71
4.26514e-73
7.78074e-68
7.96075e-75
7.20914e-76
-1.42054e-71
6.06843e-78
5.67324e-79
-4.76701e-74
1.65592e-80
1.64835e-81
-6.30303e-77
2.00585e-84
-2.2129e-83
-2.2361e-80
1.23804e-87
2.11287e-88
2.12836e-83
3.35089e-90
5.39895e-91
-1.78351e-86
1.05669e-93
-4.30683e-95
-2.11804e-89
3.08369e-97
-1.85579e-95
-6.08071e-92
2.17855e-100
-7.2151e-101
-7.77799e-96
3.77887e-103
-9.18216e-104
9.79405e-99
5.92024e-107
2.01379e-107
-1.53701e-102
3.37147e-110
-2.29769e-109
-3.27004e-106
1.13945e-112
-1.04884e-113
5.29208e-110
5.4589e-115
1.33637e-115
-2.33826e-111
4.96983e-119
-1.17035e-118
-1.59655e-114
2.5179e-122
-9.83062e-123
-3.1091e-118
2.79597e-125
2.49281e-126
3.32712e-122
1.02794e-128
-4.74568e-129
-5.97533e-124
1.23959e-131
-3.08226e-131
1.22461e-127
1.54156e-134
-4.66695e-135
-2.75836e-131
3.51157e-138
7.94819e-139
-6.77847e-134
1.11624e-141
1.16364e-142
1.29469e-137
6.21165e-145
1.94189e-145
-1.75617e-141
5.1666e-148
-2.59775e-147
-1.50402e-143
-7.69536e-150
4.19231e-147
5.85626e-09
1.55539e-08
-1.51201e-09
-3.71845e-08
5.13832e-10
2.62312e-07
4.64156e-10
3.21042e-10
-7.50946e-10
-3.43272e-08
-3.65637e-08
-3.67091e-08
4.65224e-10
-3.75221e-08
-3.75026e-08
-2.95829e-08
2.86003e-08
-3.79932e-08
-2.20118e-09
3.14027e-08
-7.61142e-08
7.56882e-08
-1.28797e-07
1.03854e-08
1.3066e-08
9.19304e-09
9.95844e-09
-4.00186e-08
-4.13727e-08
-5.39268e-08
-3.66525e-08
6.89163e-10
-2.3071e-08
3.90112e-09
-6.63295e-09
2.36668e-08
-2.90316e-09
2.63625e-09
-3.40778e-09
-1.42448e-10
1.84469e-10
-2.96593e-10
8.33659e-10
2.96616e-10
1.57347e-10
2.84722e-10
2.16273e-10
-1.14483e-10
5.78993e-11
3.0843e-08
-7.2465e-11
3.10765e-08
1.2871e-16
-6.13794e-18
-5.95057e-09
-5.72938e-18
1.28474e-16
1.30167e-16
1.26927e-16
5.13545e-24
-1.64687e-21
3.54816e-22
-5.07741e-22
-9.0141e-23
2.83361e-21
-8.71566e-22
2.11034e-27
-2.81546e-25
-1.16848e-26
-4.09113e-28
-1.28836e-27
4.15787e-29
1.02131e-28
-1.67653e-29
8.95113e-30
3.91571e-32
3.69308e-33
-5.67177e-32
2.06029e-36
5.1103e-36
-6.50581e-34
6.12012e-40
7.68649e-40
-5.0099e-37
2.60446e-43
9.75555e-44
2.11589e-42
1.13636e-46
4.35765e-47
-5.7286e-44
4.9996e-50
2.07809e-50
5.40728e-47
2.20245e-53
5.39974e-54
-8.44506e-50
9.61817e-57
2.45177e-57
-1.11017e-54
4.37728e-60
-1.15201e-60
1.61416e-56
1.79537e-63
1.02134e-64
-2.60249e-60
7.9315e-67
3.95943e-68
-8.82111e-63
3.48133e-70
8.50413e-71
-4.99782e-66
1.60904e-73
5.54924e-74
3.16804e-69
8.74259e-77
1.24141e-77
-2.65072e-73
9.79807e-80
3.77305e-81
1.87857e-75
1.61527e-82
-3.85742e-84
-1.59899e-78
5.81349e-86
-2.53395e-85
-9.52853e-81
3.65039e-89
-1.60353e-89
-7.76127e-85
2.25252e-92
1.73659e-93
-1.71898e-89
6.97114e-95
1.87726e-97
-3.51528e-90
5.94357e-99
-1.7743e-99
-7.87604e-96
2.13255e-102
-2.71911e-102
3.14785e-98
2.78144e-105
3.11882e-107
-1.45354e-101
8.91876e-108
-1.59758e-109
-2.71775e-103
8.7732e-112
-3.75231e-114
7.87982e-107
9.01587e-115
-9.0961e-116
1.25677e-115
5.04709e-117
5.35498e-119
-8.76384e-114
3.17919e-121
-4.79188e-121
2.70502e-116
2.5741e-124
9.91744e-125
4.86572e-120
4.56736e-127
-4.90778e-127
-6.17369e-122
3.22469e-130
-7.22231e-131
1.77563e-125
7.54657e-134
-1.16886e-134
7.23708e-129
1.33108e-136
-2.32892e-137
1.53464e-134
5.70606e-139
6.53735e-140
-2.31892e-135
1.02988e-142
7.27092e-143
-1.33382e-138
7.47034e-146
1.82638e-146
-1.23421e-141
2.55396e-150
-8.94266e-145
1.77459e-08
-4.87585e-10
-3.25671e-07
1.79431e-08
1.77162e-08
1.85262e-08
-3.38395e-09
1.88657e-08
2.37878e-08
8.87486e-09
-5.39333e-08
-4.52134e-08
1.99222e-09
-5.24747e-08
-5.35087e-08
-5.33066e-08
-5.95052e-08
3.58657e-09
-1.61779e-08
-2.00158e-08
2.87287e-08
8.38088e-08
1.95692e-08
-7.69136e-09
9.57684e-11
6.17651e-09
9.94579e-09
1.84765e-09
3.07087e-08
1.16529e-09
-1.17743e-09
-3.19073e-08
-1.45919e-09
2.67166e-09
-2.12507e-09
-3.37474e-11
-6.23728e-10
-1.75539e-09
1.91382e-10
4.79894e-10
3.83471e-10
4.93405e-10
4.5609e-10
-4.19513e-10
7.08224e-11
6.27141e-08
6.50477e-12
6.3312e-08
-2.9601e-16
-7.55144e-18
-6.55702e-09
-6.55702e-09
-7.88838e-18
-2.95841e-16
-2.96297e-16
-2.95411e-16
7.23702e-24
-5.41584e-22
4.68653e-22
1.51018e-21
8.24307e-22
1.05564e-21
3.06807e-21
1.36485e-26
-8.88114e-26
-3.14623e-27
4.02897e-28
-4.33189e-28
-1.44068e-28
7.59283e-29
1.93631e-30
-3.62588e-29
2.98103e-32
2.97575e-32
8.86261e-32
1.58241e-36
6.52093e-36
-1.71561e-34
4.68597e-40
1.07889e-39
-6.20316e-37
2.06093e-43
2.50113e-43
4.31253e-42
9.53105e-47
9.76682e-47
5.02048e-43
4.2485e-50
2.90388e-50
1.92741e-46
2.08355e-53
9.19945e-54
1.85552e-49
8.36762e-57
-1.0166e-57
-1.00046e-52
3.50259e-60
5.33949e-61
2.44934e-56
1.70414e-63
-1.45646e-65
3.38961e-59
1.13452e-66
7.34393e-68
3.20525e-63
8.93164e-70
-2.9167e-72
-1.13544e-66
1.5491e-72
-4.56988e-73
5.61166e-68
2.67108e-76
4.83856e-78
-5.38142e-73
2.08743e-79
-1.2138e-81
-2.93716e-75
8.26897e-82
5.6479e-84
-3.48057e-78
8.87846e-85
5.48683e-86
-1.31292e-80
5.40715e-88
3.01839e-88
-6.54944e-84
1.77922e-91
4.76929e-93
-3.68979e-87
4.78329e-95
4.30137e-96
-2.45842e-93
3.21502e-98
1.84935e-99
-3.41844e-93
2.98327e-101
-1.86428e-102
-2.67393e-97
7.8949e-105
4.13862e-106
-3.20042e-100
5.72967e-108
-2.4295e-109
-8.46631e-103
6.18101e-111
6.31226e-112
-1.65041e-106
1.60138e-114
-6.91074e-117
5.82788e-112
2.0009e-117
-2.87749e-119
-1.88385e-113
2.42641e-120
-1.70437e-121
-6.36467e-116
2.55507e-123
-7.6277e-125
2.24373e-119
1.03089e-126
-1.29896e-127
-7.28912e-122
3.6955e-130
-7.44805e-131
-1.00644e-126
1.85597e-133
3.73793e-135
-6.50998e-129
1.47402e-136
-5.62261e-140
-2.24008e-132
3.07814e-140
2.54826e-141
1.13484e-140
1.36541e-143
3.57468e-145
9.33948e-139
6.85449e-147
2.90651e-148
-2.74934e-141
1.95336e-151
2.17606e-150
1.02639e-07
9.37656e-09
8.205e-08
1.01227e-07
1.0362e-07
9.95003e-08
3.88865e-08
1.03246e-07
1.33637e-07
5.39079e-08
2.92809e-08
4.42712e-08
5.26582e-08
-1.19144e-09
-6.80691e-09
-4.89564e-08
-5.52888e-08
-2.54157e-08
-5.59992e-08
-3.07516e-08
-2.45926e-08
-1.7109e-08
-1.68171e-08
-4.80713e-08
-5.22976e-08
-5.32256e-08
2.80528e-08
2.86576e-08
-2.50988e-08
-3.47198e-09
2.75095e-08
3.42082e-09
-5.74955e-10
1.44427e-09
-4.10689e-09
-2.22051e-09
-1.49686e-09
-7.71223e-10
2.42199e-09
-8.64398e-10
1.26744e-09
-7.66112e-10
-1.11136e-09
2.99031e-10
5.05465e-10
4.26704e-10
3.41504e-10
-1.353e-10
-1.80685e-11
2.21869e-08
-1.59907e-11
2.22618e-08
4.19161e-22
2.72234e-18
-2.2349e-18
4.42941e-16
-4.81686e-18
-3.68092e-16
-6.89485e-17
-1.34459e-18
-1.27693e-18
-2.90819e-18
-1.32155e-18
-2.14445e-24
2.45329e-22
-6.09099e-23
1.56667e-27
2.93237e-26
-4.5849e-27
6.95522e-28
1.36089e-28
-6.10061e-30
3.84556e-30
2.32443e-30
-8.1954e-32
8.03423e-34
1.99028e-33
1.92894e-33
6.8565e-38
2.32274e-37
3.48613e-36
2.36134e-41
5.51924e-41
-1.80693e-41
1.02171e-44
1.46629e-44
-4.94156e-44
4.47994e-48
3.98539e-48
3.32838e-45
1.95966e-51
7.75455e-52
-1.09569e-48
8.83738e-55
2.85039e-55
-1.08424e-52
4.09857e-58
1.00072e-58
-9.28682e-55
1.70431e-61
3.59736e-62
-4.92708e-59
7.59601e-65
-9.73533e-67
-2.08396e-61
3.26889e-68
2.25566e-69
4.56826e-66
1.48614e-71
5.71784e-73
-3.75162e-68
6.02632e-75
1.71688e-76
1.99477e-70
2.93067e-78
-7.88214e-79
-2.14619e-74
5.9581e-81
-4.04102e-82
-1.61383e-77
2.50814e-83
1.01104e-84
-1.20014e-79
2.09439e-87
-3.01936e-88
4.33269e-85
6.61878e-91
-1.23338e-91
2.40057e-89
3.29689e-94
-7.41544e-96
-4.50447e-91
1.48377e-97
2.24219e-99
1.29581e-99
8.79733e-101
4.2959e-102
4.55959e-96
4.88632e-104
2.44508e-105
-1.78233e-99
3.68393e-107
8.50159e-108
3.73351e-102
3.54293e-110
4.44526e-112
-6.65001e-106
8.92394e-113
-3.71273e-114
-3.86448e-108
3.19474e-116
1.17283e-117
-5.25876e-112
1.0539e-119
-6.42275e-120
-1.85028e-115
5.42068e-123
-2.87785e-125
-1.87722e-120
4.64753e-126
9.79531e-128
2.29219e-121
2.77201e-129
1.11452e-131
1.81897e-124
1.86771e-132
4.2534e-133
2.0878e-127
1.4718e-135
-1.80156e-136
-2.12059e-130
1.73949e-138
1.2794e-140
-1.64053e-134
9.81262e-141
3.23254e-143
-4.2535e-137
6.46568e-145
-2.46813e-146
1.14755e-145
7.08009e-148
-9.60996e-151
2.23526e-149
2.42544e-151
-1.88305e-146
7.36067e-08
2.85043e-08
-1.6535e-07
7.48494e-08
7.4297e-08
7.51551e-08
-4.62843e-08
-7.49465e-09
7.64658e-08
7.46585e-08
2.70845e-08
5.58202e-08
5.48683e-08
-2.17341e-08
-2.18216e-08
-2.78829e-08
-3.14726e-08
1.48551e-07
8.97786e-08
1.45722e-07
-4.38435e-08
2.33787e-08
2.44892e-08
2.2222e-08
3.41936e-08
2.13131e-09
7.37809e-09
-1.38091e-08
-1.1474e-08
-1.44477e-08
7.30712e-09
-8.56019e-09
-8.16555e-09
1.57626e-09
4.03444e-09
2.18987e-08
-4.09512e-10
-2.85378e-09
-2.50891e-08
1.17689e-09
-1.29926e-09
7.36143e-11
-7.66036e-10
-1.28379e-09
-1.08578e-09
-4.55651e-10
-6.16329e-10
-2.97172e-10
-1.48591e-10
-8.68443e-11
-1.60538e-10
-1.52909e-10
-9.50603e-11
-6.17574e-11
-3.88643e-12
-1.26127e-08
8.41681e-12
-1.26132e-08
-2.88453e-22
9.95047e-22
5.02298e-22
1.96684e-19
4.59961e-20
2.45912e-18
3.01757e-20
2.26379e-26
4.99504e-26
-2.12771e-26
4.34436e-26
3.37915e-27
3.30765e-29
7.46288e-28
9.42162e-29
-4.54587e-30
1.22536e-30
6.58403e-31
-5.91721e-31
9.42437e-35
6.93571e-35
7.82467e-33
1.57929e-38
8.53939e-39
5.29328e-37
6.46346e-42
2.58858e-42
9.19942e-40
2.82923e-45
5.19918e-46
-2.02966e-42
1.25543e-48
-2.81029e-49
1.8464e-46
5.80867e-52
6.03077e-53
-2.3204e-49
2.60132e-55
5.14242e-56
-6.45832e-52
1.12501e-58
5.38571e-60
-6.64447e-56
5.6104e-62
8.92698e-63
6.42627e-59
2.26237e-65
2.41659e-66
-3.60395e-61
9.07123e-69
-1.36259e-71
2.12382e-65
5.85007e-72
1.17204e-74
-9.94217e-69
1.17827e-74
7.34584e-76
-4.22117e-71
4.55329e-78
2.28668e-79
-8.10155e-74
8.86374e-82
9.83631e-83
-2.90683e-77
1.11313e-84
7.79305e-87
3.84737e-85
8.3243e-87
3.51138e-90
-5.97373e-83
4.23011e-91
-1.63401e-92
2.82337e-87
4.15878e-94
1.09642e-95
-2.17812e-90
2.48987e-97
2.5782e-97
-2.72029e-92
6.73147e-101
2.41707e-103
3.0775e-96
8.14419e-104
-7.01946e-107
-2.0121e-99
1.68287e-106
2.38152e-107
-3.31361e-102
2.83739e-110
-4.65087e-112
2.07328e-106
2.88685e-113
8.16281e-115
-5.45651e-108
1.91645e-116
-8.61784e-119
-4.03392e-112
1.69116e-119
2.38834e-121
-7.78208e-115
4.6392e-123
-1.10868e-124
-1.39809e-118
7.00022e-126
1.5319e-127
-1.58454e-122
2.76144e-129
-5.28262e-131
6.9872e-125
1.35605e-132
-1.11203e-133
9.10318e-128
6.08074e-136
2.63371e-137
-1.60999e-130
1.78079e-139
2.3396e-140
-1.0745e-138
7.08942e-143
-1.38783e-145
3.03752e-143
2.87176e-146
-3.74269e-147
6.36158e-147
1.31151e-149
-5.41278e-150
1.55615e-149
7.1614e-155
-2.72959e-147
-7.27079e-08
3.07184e-08
1.90178e-07
-7.20347e-08
-6.98678e-08
-7.11294e-08
4.06734e-08
-7.10135e-08
-9.489e-08
3.76258e-08
8.92819e-08
-7.59735e-09
-1.04477e-08
-1.93217e-08
-7.97837e-09
1.48712e-09
2.96887e-08
-3.76536e-08
-1.26001e-08
1.86646e-08
6.48604e-08
-3.55837e-08
4.52286e-09
-9.7341e-08
3.9614e-08
3.6511e-08
4.03013e-08
3.98921e-08
6.63528e-08
6.38775e-08
6.57718e-08
-6.10044e-09
2.60745e-09
-5.46052e-09
-4.48092e-09
1.25694e-08
-2.25561e-10
7.48901e-10
-2.52785e-08
1.82723e-10
-2.48051e-08
-3.70114e-15
-5.71642e-16
3.22594e-08
3.22594e-08
1.18663e-17
-1.09206e-15
8.95684e-15
-1.63875e-15
-1.28088e-15
-3.34574e-16
-3.36142e-16
1.77831e-23
5.75845e-23
8.61664e-23
-1.05129e-21
9.26526e-22
-3.59876e-21
5.4803e-21
9.72345e-27
8.61411e-27
-3.14995e-26
5.07213e-27
-3.21923e-28
1.24579e-29
3.2315e-30
1.42872e-29
1.09896e-29
3.97574e-34
8.54835e-32
3.2896e-32
1.20394e-37
3.26417e-35
2.22934e-35
4.69915e-41
4.1236e-39
3.92133e-39
2.02148e-44
8.75074e-43
-1.45336e-41
9.47483e-48
2.55082e-46
-1.74495e-44
4.45718e-51
3.48817e-50
-3.88164e-48
2.07137e-54
1.70794e-53
-1.36274e-50
9.20947e-58
1.05794e-57
-1.20905e-53
4.11325e-61
1.2838e-60
2.36544e-57
1.87828e-64
-1.02234e-65
-1.30142e-60
8.50859e-68
3.82907e-69
4.35983e-64
8.79062e-71
-3.49085e-71
-5.29307e-67
2.30085e-73
1.25795e-74
-1.7542e-69
1.86225e-77
-1.87565e-78
-9.21257e-75
7.06241e-81
1.54943e-81
1.75763e-76
3.23786e-84
-1.17491e-84
-1.49633e-79
1.57282e-87
-7.90743e-88
-8.62994e-83
7.41617e-90
-1.41059e-90
-7.67238e-87
1.33441e-91
-1.88934e-94
-3.22212e-88
5.58974e-96
1.52041e-97
9.32919e-94
1.2125e-99
-5.16289e-102
-7.58004e-95
5.74445e-103
-4.37085e-104
-7.70632e-100
4.70786e-106
1.24985e-107
-6.7955e-102
1.96939e-109
6.91012e-111
5.7754e-105
2.17673e-112
-2.15963e-112
2.17276e-107
3.02913e-116
-3.44607e-117
1.46381e-111
2.54904e-119
1.21896e-119
5.11318e-120
8.98497e-122
3.7189e-123
-7.54364e-118
7.97595e-125
-2.3513e-126
-9.84522e-121
7.69743e-128
8.65205e-129
-3.68026e-123
1.57214e-131
-3.71003e-132
-1.48886e-126
8.40619e-135
-6.15987e-136
-5.18189e-130
6.84546e-138
-3.28153e-139
7.00371e-134
2.56392e-141
-3.54295e-142
-6.04134e-137
6.48328e-144
4.24516e-145
2.02885e-139
8.62834e-147
-1.11254e-147
-1.02881e-142
5.67807e-150
-6.9835e-151
-1.72546e-145
-1.8339e-154
1.71572e-150
4.5473e-08
1.55385e-08
4.12764e-08
3.93549e-08
5.05706e-08
4.86281e-08
-4.00935e-09
6.30434e-08
-1.59854e-08
-1.61053e-08
-1.66039e-08
-1.661e-08
-6.03196e-09
4.58051e-08
-8.20376e-09
4.2509e-08
-9.79993e-09
9.37774e-09
3.60551e-09
-2.64802e-08
-9.03984e-09
-5.23787e-09
4.03617e-09
1.67368e-09
2.0809e-09
7.55721e-09
7.70749e-09
7.63639e-09
-1.96556e-08
3.35259e-08
1.86354e-08
-1.93512e-07
-7.22369e-08
-3.85747e-10
-1.55227e-08
7.91599e-09
6.15765e-09
3.72319e-10
-8.61184e-11
5.61695e-11
1.79124e-08
-1.77247e-10
1.82424e-08
2.28673e-16
-2.26293e-18
-8.6122e-09
-8.6122e-09
-2.81966e-18
2.27993e-16
2.29537e-16
2.25865e-16
-1.95382e-24
6.70504e-23
5.11122e-22
-4.64143e-22
2.99738e-22
1.30731e-21
1.56688e-26
-1.15931e-26
-1.45131e-27
-7.50194e-30
7.80662e-29
9.31198e-32
8.10276e-32
3.18429e-33
4.48381e-36
-1.23153e-37
9.5835e-40
-4.06967e-39
4.00233e-43
1.67756e-43
1.74483e-46
3.37199e-46
7.61036e-50
7.06551e-49
3.31465e-53
-1.50103e-52
1.43934e-56
-1.05209e-54
6.1986e-60
1.53188e-57
2.6659e-63
-6.58887e-61
1.14269e-66
1.11981e-64
4.90357e-70
-2.10849e-67
2.10794e-73
-2.4434e-70
9.28093e-77
9.01264e-74
4.17926e-80
-1.37272e-76
2.01062e-83
-4.57832e-80
1.4701e-86
-1.19156e-82
5.47117e-90
-4.25935e-86
4.01918e-93
-1.49439e-89
3.06662e-96
6.21417e-92
1.37803e-99
-2.57752e-95
7.7022e-103
-1.90416e-99
2.74965e-106
-5.38401e-103
3.02124e-109
1.09338e-104
4.06128e-112
1.61829e-107
2.08779e-115
4.41735e-111
6.28899e-118
-3.00805e-114
6.28199e-122
-3.56013e-119
2.00617e-125
-6.61392e-121
2.56238e-128
-3.7886e-124
1.34998e-130
-3.42289e-126
1.77548e-134
1.56138e-130
8.84273e-138
2.19797e-133
1.29118e-140
-2.11852e-136
4.51479e-144
2.4492e-139
2.30177e-147
-2.10174e-143
1.03297e-150
4.81436e-146
8.73851e-150
-5.20648e-09
1.80958e-09
-3.40114e-08
1.12167e-08
8.55938e-10
-4.03386e-12
-3.62092e-08
-4.49718e-08
-3.62559e-08
-4.85477e-08
-1.67663e-07
4.9689e-09
-4.11205e-08
-1.56751e-07
1.09272e-07
3.2515e-08
-4.04176e-07
9.95833e-09
-1.40337e-08
4.38436e-08
-3.68687e-09
1.03103e-07
1.01718e-07
1.00734e-07
1.01753e-07
4.05664e-08
-1.32589e-08
-1.16019e-08
6.69257e-08
-1.00937e-08
-4.07625e-07
1.10198e-08
-1.67428e-08
6.22441e-09
-1.07648e-07
-7.51783e-08
2.06968e-09
-8.59599e-09
-1.61539e-09
8.19361e-08
-5.52508e-10
1.38402e-10
-2.16412e-10
4.8284e-08
4.84443e-08
-6.9526e-16
1.20692e-18
-1.37642e-17
-1.02668e-08
-8.24519e-19
-1.67437e-23
1.44944e-21
2.08315e-22
-5.61205e-20
-6.06091e-20
-4.97801e-20
-6.11969e-20
2.79951e-26
4.92467e-24
2.17862e-27
4.31067e-27
3.2867e-26
-9.63898e-30
3.17187e-28
-9.40682e-28
-8.74074e-31
2.38021e-30
-1.27769e-30
-1.42222e-33
1.32581e-33
-1.54688e-33
3.29578e-35
2.30685e-37
-6.54683e-37
4.05787e-38
1.27177e-40
-2.36128e-40
6.69664e-41
9.98893e-44
-9.6441e-44
-2.94155e-45
7.61763e-47
-5.03202e-47
-1.00232e-47
5.65182e-50
2.2397e-50
6.59326e-51
4.17625e-53
-1.24778e-53
-6.54533e-54
3.0813e-56
-2.62707e-57
6.79654e-57
2.26374e-59
-1.13681e-60
-2.7909e-60
1.65773e-62
3.57467e-64
-3.8354e-63
1.20961e-65
-2.62874e-66
8.76513e-67
8.79594e-69
-1.97689e-69
-2.48304e-70
6.38288e-72
-1.00101e-72
3.75997e-72
4.61676e-75
1.46241e-76
3.31471e-76
3.32844e-78
-1.41562e-79
1.90557e-80
2.39189e-81
1.36627e-82
6.09738e-82
1.71407e-84
-5.30803e-86
-8.96043e-86
1.22419e-87
6.73463e-88
1.10279e-89
8.72149e-91
4.25871e-91
-4.40817e-92
6.20038e-94
1.09749e-94
-2.08642e-94
4.39905e-97
1.63237e-97
1.0858e-97
3.11323e-100
3.08896e-101
3.0344e-102
2.19565e-103
2.37592e-104
-4.97009e-105
1.54342e-106
2.59304e-107
-2.68331e-107
1.08292e-109
-1.90633e-111
2.76802e-111
7.58591e-113
5.94888e-114
-3.42476e-119
5.30081e-116
-1.0591e-117
4.54654e-117
3.69536e-119
2.94224e-120
5.7885e-121
2.56986e-122
-1.33249e-124
-2.29721e-123
1.78235e-125
1.64662e-126
3.0557e-126
1.23309e-128
3.84633e-129
-1.06298e-129
8.51072e-132
3.98074e-135
1.20496e-133
5.85785e-135
-2.58042e-136
6.70051e-136
4.02651e-138
2.56942e-139
9.05338e-139
2.76066e-141
-3.70989e-143
4.77436e-143
1.83979e-144
9.76103e-147
3.69725e-146
2.14948e-148
1.59669e-148
2.31935e-08
1.52991e-08
-5.70349e-08
1.63282e-08
2.11134e-08
3.12911e-07
3.49346e-08
2.76871e-08
2.45115e-08
1.59015e-08
1.30686e-08
9.01222e-09
1.72271e-09
-1.69313e-08
2.34353e-08
-1.19402e-07
-1.09658e-07
2.38036e-08
4.34151e-08
3.67739e-08
3.8555e-08
-3.10938e-09
-2.89444e-07
-1.9704e-08
-2.80962e-07
-5.62952e-07
-1.41712e-08
-1.99362e-07
7.6853e-09
3.22778e-08
6.70971e-09
3.25074e-08
2.45446e-07
3.33005e-08
2.60271e-09
4.36353e-08
-1.51576e-09
6.43278e-09
-8.54438e-08
2.58813e-10
2.38382e-11
-4.77428e-10
5.63967e-10
-3.95665e-11
-3.0974e-11
-5.2455e-17
4.59692e-18
-8.17014e-17
5.24543e-18
7.08279e-19
1.36622e-16
-6.89623e-17
1.20189e-16
6.68799e-18
-2.35842e-23
-1.5819e-21
-5.3955e-24
-3.66697e-20
3.18449e-21
-3.70891e-20
3.98774e-21
8.60975e-24
-9.06297e-25
-2.37325e-26
8.7344e-25
-4.94584e-26
-4.52227e-30
2.7392e-27
-7.6488e-28
3.03373e-30
4.40775e-31
-1.22084e-29
2.26742e-32
1.01895e-34
-2.21535e-31
1.25302e-37
7.10391e-38
-8.01776e-35
-7.72462e-41
5.32212e-41
-1.9837e-38
1.79275e-41
3.89951e-44
-1.51526e-41
-9.76505e-46
2.81843e-47
-7.08793e-45
2.77151e-48
2.03154e-50
-7.84068e-48
2.83927e-51
1.4605e-53
-1.92296e-52
2.65402e-55
1.04684e-56
8.43733e-56
1.79115e-57
7.49152e-60
1.39468e-58
4.05546e-61
5.39157e-63
-3.48273e-61
5.82335e-65
3.83299e-66
-5.96949e-64
-6.8115e-67
2.68753e-69
-7.85642e-69
4.21885e-71
1.90208e-72
2.38853e-71
-1.29159e-74
1.34083e-75
2.99107e-74
-1.46988e-76
9.41863e-79
-2.87822e-77
1.05853e-80
6.59316e-82
-2.63766e-82
4.9775e-83
4.6098e-85
-8.45216e-86
2.52374e-87
3.21154e-88
3.65602e-89
3.75491e-89
2.23944e-91
1.94794e-92
3.64596e-92
1.56272e-94
-7.21447e-93
2.24428e-95
1.08252e-97
-8.19598e-96
-8.08336e-98
7.44298e-101
1.78492e-101
6.19351e-102
5.13683e-104
6.72268e-103
-5.99247e-105
3.53529e-107
-2.24581e-106
4.03706e-108
2.42904e-110
-1.35831e-109
1.84169e-112
1.66235e-113
-9.09011e-112
4.80616e-114
1.13491e-116
8.36703e-118
-3.4561e-122
7.74268e-120
-2.94298e-118
1.40769e-121
5.26927e-123
-1.05935e-121
-1.28998e-124
3.57918e-126
-1.34626e-125
1.35382e-127
2.42729e-129
-1.9075e-129
1.83403e-130
1.64241e-132
-2.696e-131
-1.92789e-134
1.10913e-135
-8.20361e-135
2.96922e-137
7.4821e-139
3.81154e-137
2.68218e-139
5.02352e-142
4.91201e-141
6.59595e-144
3.31307e-145
7.23501e-144
9.16588e-147
8.25537e-148
-3.53567e-155
1.0879e-08
1.7794e-08
-1.38294e-07
3.84887e-08
3.35705e-10
2.82616e-07
3.82987e-08
3.81563e-08
3.80868e-08
1.16526e-08
7.7659e-07
3.86674e-08
3.25677e-08
-2.03976e-07
-2.00984e-08
-5.51331e-08
-1.40457e-07
-2.76522e-08
-5.78734e-08
-2.85873e-08
-2.8187e-08
-2.88445e-08
-1.70254e-07
-1.67966e-08
1.38469e-08
2.79178e-07
-1.40335e-08
1.01444e-08
4.46297e-09
5.05552e-09
-6.78046e-09
-1.82977e-08
-2.69133e-08
-1.85907e-08
3.21482e-08
2.37878e-09
-3.24872e-08
3.81811e-09
2.57135e-09
-8.24917e-09
1.01512e-09
-9.10289e-11
1.734e-10
-5.64219e-10
1.12182e-10
-4.12633e-10
-1.25625e-14
9.91585e-16
2.17369e-16
-1.13818e-14
-9.65706e-16
5.83535e-16
-3.51789e-22
-5.27309e-18
1.52331e-21
3.1611e-19
2.31081e-18
3.09271e-19
2.28411e-18
-2.99854e-25
1.23714e-25
2.80764e-26
3.55611e-25
-8.78494e-26
4.15706e-29
7.16343e-26
-5.32905e-27
-3.00088e-29
7.34352e-28
-2.50834e-28
7.46125e-31
3.51946e-31
-8.32706e-31
-1.76587e-34
4.26121e-35
-3.31942e-34
-2.59873e-37
2.35937e-38
-8.79524e-38
-2.2742e-40
1.82918e-41
-3.68427e-41
2.78468e-43
1.34972e-44
-1.6469e-44
1.89467e-45
9.76945e-48
-4.86481e-48
1.52606e-48
7.05264e-51
-3.78749e-51
-1.91086e-54
5.07612e-54
-1.47422e-54
4.89314e-55
3.64052e-57
-8.92986e-58
-6.2905e-59
2.60259e-60
-3.20319e-61
7.32891e-61
1.85278e-63
-5.22037e-65
-2.09725e-64
1.31464e-66
1.58365e-67
1.10701e-68
9.30791e-70
-7.31242e-71
9.56032e-71
6.56896e-73
5.32429e-74
-8.19664e-76
4.61913e-76
2.0854e-76
-3.82736e-77
3.24342e-79
4.33024e-80
1.14876e-80
2.27196e-82
-4.0785e-83
2.25511e-83
1.58674e-85
2.37855e-86
-2.00816e-92
1.10664e-88
5.61178e-91
-1.68829e-95
7.68907e-92
1.52521e-92
-3.22633e-93
5.32103e-95
1.68421e-96
-3.62776e-96
3.67822e-98
2.65366e-99
-8.30889e-100
2.53665e-101
2.14637e-103
-1.36292e-102
1.74422e-104
1.00674e-105
9.35786e-106
1.19727e-107
-7.83836e-109
-2.81249e-109
8.19571e-111
1.60622e-112
9.2851e-113
5.59201e-114
2.30358e-114
2.74794e-115
3.8081e-117
1.98507e-119
5.73823e-119
2.58734e-120
1.81624e-122
-1.54008e-121
1.7563e-123
-3.93047e-124
6.20554e-125
1.18983e-126
-3.25739e-127
-9.72638e-128
8.03644e-130
2.69288e-130
1.5336e-130
5.41428e-133
1.32302e-133
-9.75367e-140
3.64018e-136
5.79736e-137
5.80762e-138
2.44073e-139
2.56482e-140
8.51175e-141
1.60737e-142
3.66919e-144
4.71986e-144
-1.95723e-146
-2.74978e-147
-4.18942e-08
6.34547e-09