/*--------------------------------*- C++ -*----------------------------------*\
| =========                 |                                                 |
| \\      /  F ield         | OpenFOAM: The Open Source CFD Toolbox           |
|  \\    /   O peration     | Version:  5.0                                   |
|   \\  /    A nd           | Web:      www.OpenFOAM.org                      |
|    \\/     M anipulation  |                                                 |
\*---------------------------------------------------------------------------*/
FoamFile
{
    version     2.0;
    format      ascii;
    class       volScalarField;
    location    "4.7";
    object      p_rgh;
}
// * * * * * * * * * * * * * * * * * * * * * * * * * * * * * * * * * * * * * //

dimensions      [1 -1 -2 0 0 0 0];

internalField   nonuniform List<scalar> 
8955
(
101.237
105.479
97.774
28.7665
91.4812
98.1862
100.607
97.2476
93.7424
91.2631
88.6768
86.1083
83.5422
81.0075
78.4858
75.9865
73.5035
71.049
68.6161
66.2164
63.8214
61.4404
59.0906
56.7335
54.4023
52.0909
49.7787
47.4679
45.1737
42.9107
40.6421
38.3975
36.1845
33.9614
31.7292
29.5309
27.3852
25.2762
23.1762
21.0683
18.9897
16.9561
14.9244
12.8683
10.8382
8.85629
6.87837
4.89512
2.9326
0.980054
98.376
98.4421
103.671
101.474
107.421
103.502
100.285
97.3728
93.9032
91.3751
88.7521
86.1555
83.5939
81.0393
78.5005
76.0061
73.51
71.0695
68.6509
66.2253
63.8275
61.445
59.0833
56.7323
54.3893
52.0691
49.7685
47.4719
45.1892
42.9162
40.6585
38.4125
36.1799
33.9506
31.7304
29.5366
27.3808
25.2597
23.1558
21.0669
18.9951
16.9599
14.9292
12.8854
10.846
8.84816
6.86806
4.89228
2.9309
0.979491
99.3382
98.4768
98.7232
103.777
100.901
100.908
100.337
97.9215
94.0713
91.4476
88.8196
86.1866
83.6012
81.0526
78.5154
76.0005
73.531
71.1007
68.6723
66.2271
63.8324
61.4492
59.0774
56.7324
54.3946
52.0671
49.7588
47.4773
45.1955
42.9163
40.6621
38.4111
36.1603
33.9396
31.7415
29.5517
27.38
25.2502
23.1527
21.067
19.004
16.9587
14.9221
12.8853
10.8562
8.8456
6.86235
4.89465
2.93761
0.979924
100.725
99.5851
98.8719
101.125
98.4813
98.747
100.397
99.1031
94.271
91.5556
88.8834
86.2494
83.6272
81.0591
78.5254
76.0121
73.5342
71.0933
68.6488
66.2296
63.8392
61.4486
59.0805
56.7328
54.4058
52.0778
49.7577
47.4835
45.1924
42.907
40.6622
38.4052
36.154
33.9344
31.7482
29.5684
27.3866
25.2465
23.1552
21.0784
19.0095
16.946
14.8956
12.8775
10.8636
8.84856
6.86286
4.90185
2.94302
0.975594
101.69
101.492
100.62
99.1035
100.224
100.619
100.73
100.455
95.072
91.4543
88.8877
86.2267
83.6323
81.0584
78.5333
76.0202
73.5469
71.0848
68.6296
66.2326
63.8436
61.4486
59.0859
56.7359
54.4142
52.0925
49.7672
47.4775
45.1773
42.899
40.656
38.3967
36.1508
33.9328
31.7488
29.5774
27.3965
25.2517
23.1586
21.0852
19.009
16.931
14.8777
12.8662
10.8611
8.8506
6.87108
4.91604
2.95107
0.973303
101.891
103.442
107.496
98.9792
102.101
102.314
101.13
100.662
95.1451
91.4439
88.8696
86.213
83.6208
81.0571
78.5422
76.03
73.5556
71.0875
68.6248
66.2207
63.838
61.4417
59.0852
56.7454
54.4191
52.1048
49.7773
47.4726
45.1716
42.8943
40.649
38.3927
36.1442
33.935
31.7521
29.5795
27.4086
25.2624
23.1617
21.0865
19.0024
16.9195
14.8684
12.8582
10.8576
8.85533
6.8869
4.94102
2.9621
0.976296
103.146
104.328
117.814
103.445
110.958
101.559
101.252
100.507
94.2215
91.4621
88.8213
86.1907
83.6196
81.058
78.5294
76.0224
73.5511
71.0948
68.6266
66.2083
63.8253
61.4411
59.0827
56.753
54.4253
52.1052
49.7833
47.4683
45.1692
42.8991
40.6458
38.3806
36.1372
33.9411
31.7553
29.574
27.4132
25.2763
23.164
21.0775
18.9959
16.9154
14.8671
12.8554
10.8531
8.85708
6.8933
4.94007
2.96582
0.985293
101.804
100.861
109.492
130.403
114.863
102.641
100.426
98.58
93.8444
91.2987
88.7118
86.1303
83.5831
81.0348
78.4939
76.0162
73.5378
71.0789
68.6406
66.2005
63.8141
61.4354
59.0806
56.7539
54.4245
52.1077
49.7842
47.4652
45.1859
42.9101
40.6415
38.3768
36.1409
33.9478
31.7535
29.5626
27.413
25.2857
23.1688
21.0705
18.9902
16.9216
14.8773
12.8585
10.8508
8.85884
6.89144
4.92913
2.96449
0.98938
101.655
101.377
89.2375
103.366
101.632
94.2108
99.4857
96.8732
93.6302
91.2041
88.6528
86.1024
83.5558
81.0149
78.4938
76.0063
73.5088
71.057
68.6229
66.206
63.8055
61.4277
59.0846
56.7487
54.4255
52.1081
49.7799
47.4653
45.1767
42.9066
40.6308
38.3773
36.1584
33.9536
31.7461
29.5532
27.4096
25.2918
23.1735
21.0696
18.9882
16.9318
14.8931
12.8596
10.8466
8.85995
6.8841
4.91726
2.95127
0.989995
101.535
102.875
106.407
104.896
106.887
103.813
100.183
96.989
93.6653
91.2027
88.6447
86.0838
83.5231
81.0068
78.4877
75.9895
73.505
71.0542
68.6202
66.2102
63.8056
61.4307
59.0881
56.7383
54.415
52.1036
49.7837
47.4668
45.1737
42.9077
40.6332
38.385
36.1755
33.9581
31.7339
29.5365
27.3929
25.2846
23.1757
21.0684
18.9896
16.9481
14.9134
12.8613
10.841
8.86304
6.88479
4.90558
2.93792
0.980356
99.424
105.126
100.763
83.2067
79.0814
101.769
100.652
97.2444
93.7428
91.263
88.677
86.1084
83.542
81.0075
78.4857
75.9863
73.5034
71.0491
68.6162
66.2161
63.8214
61.4404
59.0906
56.7333
54.4023
52.0909
49.7786
47.4679
45.1737
42.9107
40.6421
38.3975
36.1846
33.9612
31.7292
29.5308
27.3852
25.2762
23.1761
21.0683
18.9896
16.9562
14.9245
12.8683
10.8382
8.85633
6.8783
4.89483
2.93255
0.980128
100.533
97.137
97.1972
104.797
104.755
103.971
100.309
97.3717
93.9036
91.3749
88.7521
86.1555
83.5939
81.0393
78.5005
76.0059
73.5099
71.0696
68.6509
66.2252
63.8276
61.4451
59.0829
56.7321
54.3892
52.0692
49.7684
47.4719
45.1891
42.9162
40.6591
38.4126
36.1799
33.9506
31.7304
29.5366
27.3807
25.2598
23.1557
21.0661
18.9951
16.96
14.9292
12.8851
10.8461
8.84816
6.86789
4.89227
2.93105
0.979443
99.2081
98.0321
98.5473
100.708
101.181
100.575
100.308
97.9123
94.0727
91.4475
88.8196
86.1866
83.6012
81.0526
78.5153
76.0005
73.531
71.1006
68.6723
66.227
63.8322
61.4491
59.0773
56.7324
54.3946
52.067
49.7589
47.4773
45.1956
42.9163
40.6619
38.411
36.1604
33.9396
31.7416
29.5517
27.3799
25.2502
23.1526
21.0669
19.0042
16.9588
14.9221
12.8852
10.8562
8.84543
6.86221
4.89472
2.93763
0.979921
100.857
99.0002
98.2089
101.004
101.284
98.7152
100.34
98.9843
94.2713
91.5554
88.8834
86.2493
83.6271
81.0591
78.5254
76.0121
73.5341
71.0931
68.6487
66.2295
63.8392
61.4486
59.0805
56.7329
54.4056
52.0776
49.7578
47.4836
45.1925
42.9068
40.662
38.4052
36.154
33.9344
31.7482
29.5683
27.3865
25.2465
23.1552
21.0784
19.0095
16.9458
14.8955
12.8774
10.8636
8.84855
6.86275
4.90185
2.94301
0.975446
101.411
102.019
102.645
99.8529
100.189
100.544
100.693
100.494
95.072
91.4551
88.8875
86.2267
83.6321
81.0584
78.5334
76.0203
73.5469
71.0848
68.6295
66.2328
63.8436
61.4483
59.0855
56.736
54.414
52.0926
49.7673
47.4775
45.1771
42.8989
40.6561
38.3967
36.1507
33.9328
31.7488
29.5773
27.3964
25.2517
23.1586
21.0856
19.0089
16.931
14.8776
12.8662
10.8612
8.85058
6.87104
4.91597
2.95098
0.973359
101.841
102.229
105.012
98.6687
102.229
101.709
101.117
100.651
95.142
91.4446
88.8693
86.213
83.621
81.0571
78.5421
76.0299
73.5556
71.0876
68.6247
66.2206
63.8383
61.4416
59.0851
56.7454
54.4191
52.1048
49.7772
47.4725
45.1715
42.8945
40.649
38.3926
36.144
33.935
31.7521
29.5794
27.4086
25.2623
23.1617
21.0866
19.0023
16.9195
14.8684
12.8582
10.8575
8.85531
6.88687
4.94104
2.96182
0.976259
102.91
104.354
109.577
102.816
107.832
101.384
101.225
100.539
94.222
91.462
88.8213
86.1907
83.6195
81.058
78.5294
76.0224
73.5511
71.0946
68.6266
66.2084
63.8252
61.4411
59.0827
56.753
54.4252
52.1051
49.7833
47.4683
45.1693
42.899
40.6461
38.3804
36.1372
33.941
31.7552
29.5738
27.4132
25.2762
23.164
21.0775
18.9959
16.9152
14.8671
12.8554
10.853
8.85707
6.89339
4.94014
2.96575
0.985419
101.875
102.214
110.237
86.9461
108.777
102.569
100.385
98.4189
93.845
91.2986
88.7118
86.1302
83.5831
81.0348
78.4938
76.0162
73.538
71.0786
68.6407
66.2004
63.8141
61.4355
59.0806
56.7539
54.4245
52.1079
49.7842
47.4651
45.1857
42.9101
40.6414
38.3767
36.1409
33.9478
31.7535
29.5626
27.4131
25.2857
23.1688
21.0704
18.9901
16.9216
14.8772
12.8585
10.8507
8.85882
6.89143
4.92911
2.96454
0.989355
101.296
105.096
104.641
101.784
104.015
95.4449
99.4972
96.8675
93.6308
91.204
88.6528
86.1024
83.5558
81.0148
78.4938
76.0065
73.5089
71.057
68.6229
66.2061
63.8055
61.4277
59.0846
56.7487
54.4255
52.1081
49.7798
47.4652
45.1767
42.9066
40.6309
38.3772
36.1584
33.9538
31.746
29.5532
27.4095
25.2917
23.1734
21.0696
18.9883
16.9318
14.8931
12.8594
10.8466
8.8599
6.88399
4.91723
2.95134
0.989993
100.737
102.936
105.04
106.612
103.147
106.584
100.203
96.9865
93.6657
91.2025
88.6448
86.0834
83.5229
81.007
78.4877
75.9898
73.505
71.054
68.6203
66.21
63.8055
61.4307
59.0881
56.7383
54.415
52.1036
49.7835
47.4668
45.1737
42.9075
40.633
38.3849
36.1756
33.9581
31.7338
29.5366
27.393
25.2846
23.1757
21.0683
18.9896
16.948
14.9133
12.8612
10.841
8.86315
6.88466
4.90556
2.93797
0.980342
99.7554
105.009
95.3102
69.3984
107.877
101.04
100.645
97.2479
93.7423
91.263
88.6769
86.1085
83.5418
81.0074
78.4856
75.9859
73.5034
71.049
68.6163
66.2159
63.8214
61.4405
59.0905
56.7332
54.4023
52.0909
49.7784
47.4678
45.1735
42.9106
40.6421
38.3976
36.1846
33.961
31.7291
29.5307
27.385
25.2761
23.1761
21.0682
18.9894
16.9563
14.9245
12.8684
10.8382
8.85644
6.87814
4.89474
2.93251
0.980072
98.5064
97.0431
97.846
101.702
105.74
103.39
100.305
97.3721
93.903
91.375
88.752
86.1554
83.5938
81.0392
78.5004
76.0057
73.5099
71.0696
68.6505
66.225
63.8276
61.4451
59.0827
56.7318
54.3891
52.0692
49.7682
47.4718
45.1892
42.9164
40.6591
38.4126
36.1797
33.9506
31.7303
29.5365
27.3807
25.2601
23.1555
21.0661
18.995
16.96
14.929
12.8843
10.8461
8.84818
6.86775
4.89222
2.93101
0.979254
99.9085
98.4768
99.0653
104.224
101.19
100.805
100.324
97.9158
94.0726
91.4475
88.8195
86.1865
83.6011
81.0525
78.5153
76.0004
73.5309
71.1003
68.6723
66.2269
63.832
61.4491
59.0771
56.7327
54.3946
52.0669
49.7588
47.4772
45.1956
42.9164
40.6618
38.4106
36.1604
33.9397
31.7416
29.5517
27.3797
25.2502
23.1526
21.0668
19.0044
16.9589
14.9221
12.8848
10.8565
8.84532
6.86212
4.89471
2.93759
0.979616
99.9127
100.175
98.074
101.704
103.299
98.2297
100.367
98.9933
94.2709
91.5552
88.8833
86.2492
83.627
81.059
78.5253
76.012
73.5341
71.0928
68.6486
66.2293
63.8393
61.4485
59.0804
56.7329
54.4054
52.0774
49.7579
47.4835
45.1925
42.9068
40.6619
38.4051
36.1539
33.9343
31.7482
29.5682
27.3865
25.2465
23.1552
21.0784
19.0095
16.9455
14.8953
12.8774
10.8637
8.84846
6.86264
4.90183
2.94288
0.975104
102.052
101.552
100.278
100.575
100.631
100.395
100.707
100.489
95.0724
91.4548
88.8876
86.2265
83.6319
81.0583
78.5333
76.0202
73.5468
71.0847
68.6293
66.2328
63.8436
61.4482
59.0854
56.7359
54.4137
52.0926
49.7673
47.4775
45.177
42.8988
40.6561
38.3967
36.1506
33.9327
31.7488
29.5772
27.3962
25.2516
23.1586
21.0858
19.0088
16.931
14.8775
12.8662
10.8611
8.85051
6.8712
4.91583
2.95088
0.973242
101.912
102.491
104.614
99.979
102.252
101.639
101.137
100.678
95.1425
91.4441
88.8693
86.2128
83.6211
81.057
78.5419
76.0298
73.5555
71.0876
68.6246
66.2206
63.8382
61.4414
59.0849
56.7454
54.4191
52.1048
49.7772
47.4723
45.1715
42.8948
40.6492
38.3924
36.1438
33.9349
31.752
29.5793
27.4086
25.2622
23.1616
21.0865
19.002
16.9194
14.8685
12.8584
10.8573
8.85523
6.88685
4.94102
2.96139
0.97623
102.896
104.647
109.718
102.106
106.849
101.372
101.21
100.534
94.2216
91.4619
88.8212
86.1906
83.6194
81.0579
78.5293
76.0223
73.551
71.0944
68.6265
66.2084
63.825
61.441
59.0826
56.7529
54.425
52.105
49.7831
47.4686
45.1696
42.899
40.6461
38.3803
36.1371
33.9409
31.755
29.5736
27.4132
25.2762
23.1639
21.0775
18.9959
16.915
14.8671
12.8553
10.8528
8.85699
6.89348
4.93995
2.96517
0.985367
101.891
106.164
102.864
90.3528
108.617
103.053
100.379
98.4281
93.8448
91.2986
88.7117
86.1301
83.583
81.0347
78.4938
76.0161
73.5383
71.0783
68.6408
66.2004
63.814
61.4356
59.0808
56.7538
54.4244
52.108
49.7841
47.4649
45.1855
42.9101
40.6413
38.3766
36.1408
33.9477
31.7534
29.5627
27.413
25.2856
23.1687
21.0703
18.99
16.9216
14.8771
12.8584
10.8506
8.85875
6.89137
4.92906
2.96452
0.989344
102.019
108.406
97.1389
105.799
109.17
105.629
99.4753
96.8686
93.6306
91.204
88.6527
86.1023
83.5557
81.0147
78.4937
76.0066
73.5088
71.0569
68.6229
66.206
63.8054
61.4276
59.0845
56.7486
54.4252
52.108
49.7797
47.4651
45.1773
42.9067
40.631
38.3771
36.159
33.9537
31.7458
29.5531
27.4095
25.2915
23.1733
21.0695
18.9883
16.932
14.893
12.8592
10.8465
8.85982
6.88389
4.91715
2.95128
0.989897
100.552
103.057
105.017
102.687
107.082
104.237
100.202
96.9865
93.6652
91.2026
88.6448
86.0833
83.5226
81.007
78.4877
75.99
73.5049
71.0539
68.6203
66.2099
63.8053
61.4306
59.088
56.7382
54.4149
52.1035
49.7831
47.4668
45.174
42.9073
40.6329
38.385
36.1756
33.958
31.7337
29.5366
27.3929
25.2844
23.1757
21.0683
18.9896
16.948
14.9132
12.861
10.8409
8.86307
6.88448
4.90542
2.93796
0.98027
99.8621
100.33
100.195
101.765
99.8616
99.7843
100.184
100.386
101.627
100.575
103.979
100.384
101.588
100.574
100.173
99.7517
100.15
100.657
100.153
100.337
100.14
100.285
100.113
100.534
99.7925
100.302
100.124
100.448
100.632
107.149
100.969
100.59
100.598
107.119
100.909
101.044
104.44
101.349
101.962
101.034
100.615
101.351
100.951
104.674
100.996
101.412
100.937
103.992
100.955
100.595
97.2153
98.9698
102.556
100.593
97.2032
98.9692
99.0732
99.1182
99.2466
97.3472
99.0752
100.966
99.2524
100.501
100.946
100.26
104.546
100.495
101.032
100.255
99.8596
100.448
100.191
102.45
99.8642
101.437
100.187
100.386
101.607
100.576
102.966
100.377
101.746
100.585
100.144
99.4099
100.083
100.713
100.157
99.6842
100.143
100.231
100.028
100.433
97.9435
100.241
99.8811
100.358
100.572
107.342
100.883
100.43
100.596
122.255
100.888
101.006
100.782
101.381
102.869
101.021
101.703
101.37
101.292
104.023
100.959
101.499
101.389
104.78
100.96
100.591
97.3858
98.9701
104.26
100.613
98.5895
98.9691
99.0861
101.884
99.2587
94.9041
99.0696
99.7209
99.2678
100.514
101.037
100.252
104.215
100.483
100.881
100.25
99.87
102.534
100.187
100.814
99.8728
101.741
100.201
100.389
101.619
100.585
103.348
100.385
103.999
100.59
100.193
99.6705
100.128
100.803
100.144
99.5651
100.133
100.277
99.7752
100.445
98.134
100.253
100.303
100.38
100.594
94.0851
100.885
100.389
100.572
91.6758
100.916
101.024
101.191
101.362
100.958
101.023
102.065
101.348
101.335
104.003
100.977
101.566
101.22
104.046
100.995
100.61
98.8565
98.9787
103.002
100.621
99.8169
98.9711
99.0721
99.7285
99.2791
96.7129
99.0677
100.062
99.276
100.488
100.861
100.254
104.311
100.475
101.347
100.255
100.313
106.838
98.5104
91.6331
100.29
106.086
98.4416
98.5682
99.3577
94.0616
98.3391
93.6525
98.5179
99.345
98.7163
100.21
98.467
100.648
98.7106
100.191
98.4752
108.2
98.3855
107.096
104.941
108.788
96.9397
106.179
101.34
101.394
102.861
105.227
100.827
102.176
101.534
98.7728
100.486
98.8662
100.306
98.7831
100.486
98.8579
102.872
107.443
104.304
101.38
104.578
105.125
102.916
100.526
100.027
101.026
101.012
99.9927
100.034
100.518
98.912
100.146
99.9367
100.368
98.7892
100.076
99.9783
112.663
99.7619
100.087
101.132
100.313
100.171
100.083
100.464
100.796
102.717
98.5987
100.229
100.761
100.453
100.36
100.59
100.597
100.362
100.394
100.587
100.602
100.4
104.776
111.748
100.253
100.345
103.559
108.022
100.711
100.569
99.8575
100.622
100.547
99.865
100.684
100.662
100.845
100.863
100.698
100.663
100.844
100.864
102.711
109.037
115.682
102.552
102.48
106.312
108.179
101.622
101.372
102.029
101.929
101.369
102.029
101.618
100.936
101.239
100.985
101.122
100.938
101.24
100.986
112.053
108.213
104.469
110.097
110.542
105.715
103.798
101.754
101.308
104.544
101.552
101.157
102.677
101.706
100.937
100.852
100.516
101.217
100.94
100.847
100.536
101.878
110.821
94.1122
108.365
100.425
104.374
93.8779
100.695
101.285
103.373
102.438
101.154
105.618
100.708
100.107
99.3947
98.2435
100.396
100.141
99.3871
98.0995
109.634
99.4748
86.6427
102.596
134.947
98.7475
86.5333
97.1519
98.549
89.8685
93.8318
98.5314
88.5741
96.498
98.0119
99.5376
97.659
99.5071
97.9434
99.5486
97.6611
110.566
102.421
103.536
102.595
111.951
101.693
103.49
102.187
102.188
106.37
103.813
102.194
106.326
102.203
98.1407
100.491
98.3278
100.201
98.15
100.522
98.3364
102.662
103.732
100.565
93.7895
100.623
103.741
102.739
98.3966
99.29
101.998
101.609
98.5505
101.914
99.2273
98.7088
100.202
98.4731
100.648
98.7086
100.198
98.472
108.818
96.9172
105.502
103.498
107.592
96.0059
103.694
101.378
100.587
102.327
103.878
101.322
100.665
102.613
98.7815
100.491
98.8563
100.308
98.7809
100.485
98.8577
102.14
103.554
102.924
101.137
102.442
98.7698
111.366
100.385
99.9929
100.704
101.098
100.489
99.9814
100.603
98.7815
100.051
99.982
100.335
98.7831
100.043
99.9843
100.248
99.3524
100.471
105.531
96.6969
99.2476
99.7294
100.375
100.246
100.689
98.8215
100.384
100.219
100.985
100.402
100.587
100.602
100.399
100.395
100.6
100.602
100.346
103.683
105.385
100.004
100.441
103.929
105.615
100.651
100.517
99.8422
100.482
100.644
100.485
99.8631
100.664
100.845
100.873
100.772
100.663
100.845
100.871
102.351
106.086
104.952
102.11
102.595
106.042
119.557
101.599
101.331
101.89
101.566
101.611
101.328
101.856
100.952
101.242
100.986
101.144
100.948
101.247
100.984
110.847
105.859
103.743
107.031
111.315
105.948
103.481
101.617
101.148
102.358
101.474
101.643
101.184
102.344
100.94
100.842
100.54
101.217
100.939
100.843
100.538
102.875
101.737
94.925
108.425
103.93
104.013
114.055
100.686
101.217
101.458
102.7
100.731
101.495
101.414
100.144
99.4101
98.0887
100.395
100.145
99.4016
98.0899
99.641
97.5768
79.9182
106.508
98.7486
101.742
89.661
96.8902
98.5283
89.9644
95.0849
97.7928
99.2291
84.4811
97.9385
99.5487
97.6569
99.4808
97.9387
99.5467
97.657
110.348
103.284
103.609
107.169
107.436
101.68
103.328
102.054
102.414
106.698
124.392
102.074
102.359
111.738
98.1483
100.526
98.3356
100.203
98.1483
100.516
98.3339
99.4243
107.208
108.387
107.661
98.1117
108.875
102.916
98.4855
99.1932
101.962
101.013
98.4557
103.972
99.2079
98.711
100.191
98.4739
100.604
98.7162
100.217
98.4664
104.426
98.6899
102.503
107.255
104.516
100.073
102.293
101.59
101.03
102.486
104.403
101.504
101.051
102.785
98.7822
100.489
98.8601
100.283
98.7711
100.487
98.8653
99.0003
98.9788
114.523
101.936
98.2584
97.4199
104.324
100.398
99.9819
100.516
100.805
100.406
100.194
100.544
98.7894
100.09
99.9756
100.346
98.9119
100.121
99.937
105.902
99.3216
100.315
104.403
97.5922
100.13
99.6312
100.668
100.231
100.641
98.0322
100.559
100.247
100.806
100.393
100.576
100.603
100.357
100.359
100.572
100.598
100.621
103.951
105.779
100.316
100.313
104.176
101.374
100.495
100.459
101.03
100.399
101.201
100.466
101.035
100.667
100.848
100.898
100.706
100.663
100.85
100.863
102.47
105.769
106.034
103.217
100.943
106.785
106.176
101.569
101.451
101.382
101.069
101.591
101.321
101.381
100.971
101.248
100.986
101.133
100.942
101.242
100.986
108.399
114.819
104.311
105.381
109.983
111.339
103.695
101.628
101.474
102.275
100.872
101.728
101.542
102.23
100.94
100.838
100.535
101.245
100.935
100.843
100.516
105.355
103.497
129.928
111.889
103.307
101.373
113.362
100.711
101.621
101.388
103.074
100.713
101.366
101.266
100.142
99.4352
98.1021
100.399
100.106
99.4144
98.2377
99.0319
100.827
94.3215
110.643
102.222
102.442
91.3314
98.0572
98.7494
117.557
95.3259
98.2576
98.7271
116.075
97.9438
99.5458
97.6613
99.4817
98.0112
99.5342
97.6588
107.396
102.666
104.14
109.11
107.049
102.933
103.46
101.926
102.279
101.212
104.33
101.941
102.254
101.446
98.15
100.513
98.3355
100.184
98.1402
100.483
98.3276
100.314
100.711
99.7228
99.8633
99.7198
100.314
100.687
100.208
101.439
100.791
100.663
101.365
100.643
100.127
100.538
100.133
100.488
100.174
100.128
100.489
100.555
98.5218
110.382
99.3266
105.796
101.428
98.5516
99.3681
100.298
99.8649
100.711
99.7179
99.7276
100.334
100.725
100.131
100.376
101.26
100.638
102.806
100.602
100.103
100.6
100.18
100.128
100.486
100.131
100.487
100.566
100.714
100.828
100.685
100.382
100.779
100.626
100.713
100.887
102.812
100.893
101.612
102.523
100.778
101.16
100.776
100.496
100.686
100.574
100.454
100.691
100.806
101.315
103.264
100.561
102.04
100.649
101.964
101.305
100.713
100.387
100.79
100.642
100.848
100.647
100.709
100.896
101.572
102.274
100.823
102.382
100.787
100.928
100.765
100.628
100.461
100.672
100.482
100.684
100.765
100.363
100.335
100.472
100.168
100.346
100.482
100.37
100.472
105.343
99.8979
99.4489
102.879
99.8974
100.64
100.257
100.104
100.044
100.141
100.038
100.024
100.261
100.534
101.079
100.016
101.2
100.014
102.469
100.613
100.391
100.284
100.354
100.402
100.385
100.437
100.379
100.594
99.4294
106.917
99.8948
106.484
99.903
100.949
100.254
100.194
99.9788
99.9953
100.014
99.99
100.246
100.313
100.076
100.328
100.238
100.077
100.339
100.316
100.525
102.115
100.172
100.091
102.053
100.171
100.641
100.367
100.445
100.234
100.44
100.455
100.211
100.364
100.481
98.8518
100.279
100.781
100.239
100.699
100.381
100.316
100.226
100.069
100.392
100.074
100.36
100.315
100.497
100.098
102.184
100.178
102.19
100.171
100.544
100.371
100.433
100.427
100.229
100.446
100.217
100.371
100.588
100.449
100.631
100.626
100.446
100.622
100.58
101.984
96.5985
101.123
105.831
96.5655
101.09
101.797
100.971
100.821
100.963
100.907
100.784
100.945
100.987
100.651
100.598
100.54
99.8342
100.541
99.8504
100.629
100.569
100.655
100.452
100.603
100.458
100.661
100.572
101.557
106.041
96.9692
100.969
96.5901
101.042
101.531
100.956
100.895
100.79
100.933
100.773
100.943
100.979
101.394
101.251
101.183
101.03
101.253
101.176
101.394
102.618
104.891
101.608
100.644
103.629
101.543
102.601
101.598
101.245
101.544
101.352
101.237
101.545
101.603
101.616
101.838
101.35
101.998
101.363
102.041
101.612
101.394
101.009
101.26
101.174
101.276
101.175
101.39
102.705
105.577
103.739
101.532
103.674
101.569
102.676
101.594
101.352
101.231
101.538
101.237
101.546
101.589
101.517
101.459
101.314
101.022
101.192
101.31
101.515
105.212
105.596
102.205
104.957
107.722
102.055
103.774
101.485
101.214
101.348
100.949
101.23
101.334
101.403
101.636
101.426
101.132
102.36
101.141
102.38
101.669
101.528
100.961
101.142
101.304
101.318
101.306
101.511
102.353
104.279
102.623
102.073
102.418
102.077
101.588
101.35
100.975
101.201
101.347
101.213
101.345
101.349
100.443
101.051
100.138
100.596
100.993
100.119
100.449
99.8939
100.903
98.3107
97.2207
100.94
98.3158
99.9447
100.114
99.8886
98.9222
98.9738
99.8926
98.9429
100.211
100.756
102.352
101.253
100.744
101.135
100.719
100.722
100.424
100.61
101.035
100.13
100.998
100.12
100.421
99.8665
97.3819
101.601
98.3227
101.013
98.3197
99.9011
100.11
98.9875
99.894
98.9273
99.907
98.9483
100.134
97.9837
98.7181
98.2889
99.0739
98.7161
98.2936
97.9341
104.318
97.0859
98.3177
98.7956
100.601
98.1879
114.424
99.8861
99.9343
99.2543
99.2463
99.7796
99.2529
99.2988
96.1744
104.307
98.4102
82.5844
98.4908
95.2012
97.7022
97.8957
99.0948
98.7076
98.2894
98.7084
98.292
97.9687
104.413
105.022
95.6785
100.254
94.7359
98.4491
104.636
98.6688
99.2685
99.9397
99.275
99.5325
99.2465
98.5793
101.316
101.153
100.558
100.498
101.14
100.559
101.32
101.222
102.134
100.496
100.958
102.113
101.241
100.434
101.152
100.47
100.718
100.26
100.47
101.115
100.714
102.186
103.754
102.239
106.448
102.192
106.388
102.13
101.292
100.509
101.16
100.557
101.186
100.561
101.29
101.254
101.018
102.518
100.48
102.337
101.3
100.486
101.092
100.26
100.466
100.71
100.472
101.078
100.708
100.341
100.728
99.7171
99.8607
100.36
99.7182
100.712
100.225
101.406
100.494
101.645
100.137
102.339
100.495
100.525
100.131
100.475
100.187
100.537
100.131
100.5
98.3844
101.691
99.1889
101.81
101.754
98.407
99.2064
100.394
99.8628
100.701
99.7224
99.7202
100.36
100.717
100.032
101.382
101.125
100.496
101.228
100.475
100.017
100.517
100.189
100.136
100.518
100.136
100.528
100.513
100.724
100.754
100.661
100.384
100.714
100.699
100.652
100.92
102.326
100.859
101.674
100.926
102.348
100.915
100.756
100.492
100.677
100.576
100.762
100.451
100.689
101.407
103.057
100.986
102.65
100.886
102.647
101.44
100.731
100.402
100.66
100.657
100.684
100.666
100.741
100.96
101.571
102.329
101.015
102.358
100.991
101.02
100.745
100.587
100.442
100.715
100.486
100.712
100.745
100.409
100.335
100.412
100.176
100.438
100.35
100.41
101.391
99.9713
99.8807
99.2923
99.76
99.6369
99.8643
100.248
100.027
100.004
100.122
100.228
99.9731
100.008
100.7
101.314
100.005
100.561
100.013
100.553
100.608
100.377
100.138
100.3
100.401
100.318
100.404
100.351
98.9184
99.3836
100.011
99.8592
99.712
99.8474
99.6077
100.528
100.133
99.9521
100.011
99.9647
99.9973
100.181
100.303
100.068
100.337
100.231
100.311
100.078
100.352
100.584
102.184
100.179
99.994
100.578
102.149
100.181
100.385
100.448
100.226
100.415
100.378
100.461
100.216
100.406
99.0677
100.219
100.599
100.211
102.023
102.435
100.294
100.238
100.067
100.313
100.066
100.334
100.288
100.61
99.9465
101.924
100.189
102.031
100.185
100.592
100.393
100.427
100.433
100.216
100.431
100.222
100.402
100.584
100.442
100.579
100.581
100.58
100.447
100.63
101.694
95.6933
100.873
110.088
101.593
107.548
100.694
101.041
100.784
100.928
100.91
101.01
100.766
100.918
100.665
100.406
100.443
100.545
100.477
100.503
100.961
100.589
100.615
100.444
100.6
100.479
100.609
100.593
101.474
115.338
112.819
100.954
104.872
100.543
101.295
101.083
100.884
100.753
100.886
100.76
100.904
101.133
101.385
101.257
101.172
101.015
101.387
101.257
101.181
102.214
103.694
101.515
109.085
102.434
103.742
101.587
101.588
101.232
101.53
101.367
101.589
101.225
101.497
101.589
101.361
101.281
101.614
101.327
101.697
101.579
101.382
101.007
101.243
101.169
101.252
101.165
101.382
102.1
101.865
103.08
101.551
103.506
101.652
102.068
101.579
101.366
101.233
101.498
101.252
101.51
101.58
101.517
101.195
101.307
101.231
101.512
101.112
101.311
101.529
102.885
102.055
104.031
101.505
100.867
101.806
101.332
101.201
101.349
100.955
101.342
101.211
101.359
101.614
101.542
101.33
102.285
101.237
102.319
101.666
101.529
101.467
101.087
101.304
101.286
101.312
101.546
101.562
103.944
102.644
101.999
104.494
102.08
101.593
101.333
100.974
101.19
101.391
101.22
101.374
101.339
100.424
101.026
100.123
100.599
100.433
101.026
100.128
99.9192
102.128
98.3326
97.4216
99.8518
104.976
98.3537
100.105
99.8944
98.9262
98.9552
100.099
99.8959
98.9503
100.688
102.831
101.069
101.457
101.132
101.405
100.718
100.413
100.601
101.028
100.137
101.017
100.11
100.411
99.9616
99.6143
101.382
98.4213
101.366
98.3881
100.046
100.123
98.9671
99.8976
98.9698
99.9019
98.9703
100.12
97.9619
98.7068
98.3039
99.0736
97.8971
98.7142
98.3077
104.452
95.8457
98.3753
103.389
104.411
96.6216
98.9393
100.781
99.8313
99.2331
99.2607
98.5003
100.622
99.2646
96.7439
94.7849
98.3063
98.2275
99.5645
100.368
96.6525
97.9542
99.0721
98.7183
98.3157
98.7152
98.303
97.9998
104.612
99.1713
96.9577
98.5313
118.02
98.8635
104.294
99.802
99.2783
102.223
99.2295
99.6224
99.2816
102.695
101.265
101.211
100.555
100.495
101.316
101.155
100.554
101.377
102.574
100.462
101.117
101.23
102.545
100.63
101.081
100.464
100.693
100.25
101.084
100.461
100.691
101.927
105.786
102.278
101.058
102.308
100.899
101.923
101.262
100.504
101.152
100.555
101.186
100.556
101.283
101.31
101.184
102.417
100.505
102.502
101.283
100.537
101.159
100.25
100.46
100.725
100.461
101.087
100.724
100.358
100.7
99.7287
99.8709
100.373
99.7269
100.697
99.9613
101.169
100.578
102.135
100.165
100.771
100.368
100.503
100.141
100.546
100.189
100.508
100.137
100.473
98.5947
101.586
99.248
103.454
101.907
98.502
99.2402
100.385
99.8734
100.716
99.7315
99.7294
100.403
100.71
100.194
101.877
103.91
100.473
103.259
100.37
100.195
100.506
100.196
100.145
100.487
100.14
100.473
100.505
100.841
100.63
100.673
100.375
100.767
100.577
100.658
100.97
102.444
101.096
101.619
101.037
102.023
101.501
100.806
100.453
100.716
100.567
100.759
100.434
100.705
101.64
106.51
101.175
106.813
101.029
110.256
101.694
100.794
100.377
100.618
100.67
100.543
100.663
100.849
100.9
101.626
104.201
101.205
101.87
101.317
101.183
100.79
100.58
100.466
100.711
100.433
100.726
100.777
100.368
100.373
100.406
100.153
100.349
100.46
100.432
99.3375
97.0768
99.8176
99.6771
99.3673
97.6276
99.808
100.238
99.9463
99.9919
100.132
100.47
99.9817
99.994
100.432
100.81
100.619
100.68
100.888
100.58
100.438
100.376
100.145
100.548
100.411
100.695
100.423
100.463
99.3439
99.5529
97.9402
99.8906
98.7464
99.8077
99.3084
100.335
100.131
100.024
100.033
99.9874
99.9942
100.191
100.293
100.073
100.318
100.239
100.288
100.076
100.323
100.437
101.876
100.197
99.8148
100.664
101.638
100.185
100.41
100.489
100.222
100.357
100.412
100.448
100.219
100.654
98.0591
100.225
100.939
100.229
100.844
100.622
100.292
100.255
100.113
100.376
100.074
100.359
100.296
100.989
100.987
98.9734
100.213
102.009
100.174
100.959
100.414
100.365
100.492
100.266
100.446
100.206
100.421
100.608
100.448
100.615
100.585
100.596
100.468
100.617
100.176
112.622
100.827
92.6328
101.378
109.683
100.623
101.198
100.753
100.872
100.887
101.41
100.783
100.86
100.248
100.349
100.509
100.666
100.478
100.302
100.259
100.612
100.568
100.461
100.615
100.462
100.616
100.616
101.562
88.9049
108.487
100.952
117.76
101.703
101.033
101.221
100.891
100.814
100.853
100.75
100.852
101.225
101.38
101.236
101.171
101.031
101.381
101.228
101.175
102.013
102.834
101.549
101.525
102.045
102.747
101.552
101.601
101.237
101.485
101.349
101.59
101.235
101.474
101.568
101.086
101.273
102.025
101.296
101.757
101.557
101.385
101.02
101.225
101.172
101.226
101.173
101.379
102.036
102.9
106.669
101.608
102.709
101.65
102.072
101.597
101.349
101.245
101.492
101.24
101.481
101.597
101.628
101.155
101.307
101.121
101.554
101.155
101.315
101.618
102.542
102.031
103.888
101.622
102.538
102.017
101.34
101.186
101.398
100.954
101.337
101.193
101.401
101.752
100.404
101.723
105.104
101.829
102.199
101.915
101.564
101.33
101.313
101.336
101.324
101.326
101.641
101.618
103.908
102.514
102.022
102.586
102.015
101.623
101.379
100.95
101.207
101.404
101.197
101.402
101.362
100.413
101.046
100.127
100.608
100.427
101.058
100.128
100.259
102.152
98.4602
99.4665
100.099
102.771
98.5017
100.16
99.9007
98.9759
98.9705
100.135
99.8987
98.9966
100.687
103.045
101.395
101.318