/*--------------------------------*- C++ -*----------------------------------*\
| =========                 |                                                 |
| \\      /  F ield         | OpenFOAM: The Open Source CFD Toolbox           |
|  \\    /   O peration     | Version:  5.0                                   |
|   \\  /    A nd           | Web:      www.OpenFOAM.org                      |
|    \\/     M anipulation  |                                                 |
\*---------------------------------------------------------------------------*/
FoamFile
{
    version     2.0;
    format      ascii;
    class       surfaceScalarField;
    location    "4.7";
    object      phi;
}
// * * * * * * * * * * * * * * * * * * * * * * * * * * * * * * * * * * * * * //

dimensions      [0 3 -1 0 0 0 0];

internalField   nonuniform List<scalar> 
26710
(
4.24283e-10
-5.50221e-10
-1.12873e-09
-2.08331e-10
-2.08483e-09
-2.40603e-10
1.62331e-09
-1.04233e-09
-4.22313e-09
1.27062e-08
-7.36603e-10
-5.09277e-11
-9.99878e-10
-1.81355e-09
-6.53619e-09
-7.14957e-09
-7.45771e-09
-9.09468e-08
1.55293e-07
1.85292e-08
-5.37316e-08
-2.25539e-09
-1.89707e-09
1.46928e-08
-1.1333e-08
-7.50795e-10
1.93047e-10
-1.0532e-10
6.39239e-10
-4.6669e-11
-1.94849e-12
-6.70057e-11
1.05949e-10
-1.96088e-10
1.90331e-10
-9.80009e-12
1.14393e-12
1.3849e-09
-7.64638e-11
-2.62754e-11
-2.52181e-10
-2.50114e-10
-4.21452e-10
-4.13035e-10
1.40066e-09
-4.76645e-11
-1.81554e-12
1.40914e-09
-2.99757e-11
3.99374e-13
1.41581e-09
-1.85006e-11
-1.95352e-13
1.42084e-09
-1.17691e-11
8.90847e-14
1.42216e-09
-7.64855e-12
-3.39809e-13
1.42386e-09
-4.76576e-12
4.67264e-14
1.42483e-09
-1.25384e-12
-5.69202e-13
1.42607e-09
-2.01538e-12
-4.3434e-14
1.42621e-09
-1.44566e-12
-3.94149e-13
1.42476e-09
-7.26891e-14
1.09754e-12
1.42539e-09
-9.22208e-13
-2.35839e-13
1.42684e-09
-2.05385e-13
-2.27234e-13
1.42663e-09
-1.12729e-13
3.09915e-13
1.42664e-09
-3.59908e-13
2.25647e-13
1.42642e-09
-2.30841e-14
1.82191e-14
1.42666e-09
7.24002e-13
-1.25868e-12
1.42757e-09
-3.06581e-12
9.08389e-13
1.4273e-09
3.35743e-13
1.16806e-13
1.42761e-09
-1.1804e-13
-3.22146e-14
1.42689e-09
2.2862e-12
-1.13898e-12
1.42731e-09
-6.13538e-14
1.81e-13
1.42664e-09
-1.14052e-12
3.8789e-12
1.42664e-09
-1.00028e-12
5.26711e-13
1.42677e-09
-5.75806e-15
7.82079e-13
1.42801e-09
-4.09635e-12
2.63466e-12
1.42759e-09
2.69122e-13
2.95096e-14
1.4273e-09
5.7793e-14
2.26665e-13
1.42678e-09
2.76762e-13
6.72968e-14
1.42654e-09
6.19348e-13
-5.4969e-13
1.42866e-09
-3.5983e-12
9.09031e-13
1.42782e-09
5.37221e-13
1.65377e-13
1.42764e-09
9.82523e-14
2.29272e-13
1.42791e-09
-5.09347e-14
3.59244e-14
1.42835e-09
-6.03122e-13
8.22501e-14
1.42723e-09
3.39837e-12
-1.69044e-12
1.42742e-09
-4.97379e-13
7.81584e-14
1.42729e-09
8.06144e-14
-5.29466e-13
1.42777e-09
2.69743e-13
-3.40676e-13
1.42768e-09
1.25763e-13
3.96793e-14
1.42713e-09
-2.29128e-13
5.70443e-13
1.27244e-12
-1.14436e-12
-3.7384e-09
-4.60411e-09
1.74921e-08
-6.69769e-10
-1.25041e-09
-3.2256e-09
-2.61491e-09
3.02851e-09
-2.08323e-09
-2.4129e-08
4.31851e-09
3.07117e-09
3.93635e-09
2.62373e-11
2.30698e-09
3.05682e-09
2.72962e-09
2.91268e-09
-1.48931e-09
-9.02807e-10
2.50795e-09
5.05312e-09
-1.25319e-09
3.47889e-09
-1.01966e-09
-1.0355e-09
-2.40235e-10
-6.91397e-10
-8.32105e-08
3.16065e-08
6.54291e-09
4.07549e-08
-5.77592e-10
-2.32399e-09
3.72914e-10
-9.37081e-10
3.4657e-09
-6.74664e-10
1.0478e-09
-2.02453e-09
-4.56281e-10
2.10767e-09
-1.77906e-10
-5.01431e-11
2.64013e-11
3.98071e-11
1.61841e-10
-3.71314e-11
2.13658e-10
-2.06601e-11
-5.75028e-12
-3.53594e-11
-6.83335e-11
-6.5233e-11
1.88106e-11
1.44072e-09
-7.09009e-11
-2.77151e-11
-2.63006e-10
-2.70006e-10
-4.346e-10
-4.50956e-10
1.43353e-09
-3.77625e-11
-2.7137e-12
1.42996e-09
-2.66898e-11
3.00541e-13
1.4283e-09
-1.66686e-11
-1.45633e-13
1.42738e-09
-1.07725e-11
-5.46069e-14
1.42677e-09
-6.95979e-12
-5.19103e-14
1.42644e-09
-4.40046e-12
-1.23432e-14
1.42694e-09
-2.66503e-12
9.30647e-13
1.42684e-09
-1.8832e-12
-8.01051e-15
1.42571e-09
-1.96868e-13
-8.62668e-14
1.42675e-09
1.67707e-12
-2.75771e-12
1.4265e-09
-6.97964e-13
5.08627e-14
1.42649e-09
-1.23533e-13
-3.81359e-14
1.42654e-09
-1.33541e-13
6.13882e-15
1.42712e-09
-1.36217e-12
4.61269e-13
1.42747e-09
1.57498e-13
-4.94946e-13
1.42752e-09
-1.76651e-13
8.9176e-13
1.42634e-09
-3.05469e-13
-1.54332e-12
1.42664e-09
1.56885e-13
-8.48834e-14
1.42659e-09
-2.33637e-14
-1.59433e-14
1.42683e-09
-3.15526e-13
2.39591e-12
1.42667e-09
-1.81611e-14
1.51282e-13
1.42705e-09
4.44568e-13
-1.93359e-12
1.42725e-09
6.61484e-13
-1.82808e-12
1.4284e-09
-2.87613e-12
1.75257e-12
1.4278e-09
-3.17683e-12
-2.93234e-13
1.42721e-09
9.65795e-13
-9.03486e-14
1.42767e-09
-3.0907e-14
-3.47137e-13
1.42807e-09
3.26873e-13
-4.3158e-13
1.4283e-09
1.51512e-13
2.529e-13
1.42646e-09
-1.24031e-12
-5.05673e-13
1.42688e-09
4.72109e-13
-3.46855e-13
1.42708e-09
-1.07603e-13
1.57228e-14
1.42721e-09
-1.77543e-13
9.71865e-15
1.42679e-09
-3.09202e-13
1.27537e-13
1.42833e-09
2.84822e-13
1.58021e-12
1.42794e-09
2.11681e-13
-3.10466e-13
1.42763e-09
-2.05364e-14
4.14592e-13
1.42759e-09
2.4006e-13
7.75856e-14
1.4276e-09
1.33306e-13
-2.32537e-14
1.42735e-09
7.4902e-13
-7.22253e-13
-2.59292e-13
1.18711e-12
-1.97527e-09
-7.72745e-09
6.48787e-09
-2.65746e-10
1.67717e-09
-5.46984e-09
1.02062e-09
7.84238e-09
-6.38652e-09
3.57431e-09
1.13403e-09
4.96696e-09
4.67492e-10
-1.99616e-09
-7.33391e-10
-1.63802e-09
5.3253e-09
-2.87382e-08
1.48991e-08
-5.55156e-10
-3.31183e-09
2.48138e-09
2.40606e-09
-3.67655e-10
-2.7578e-10
1.25021e-09
-1.183e-09
1.91619e-09
-7.73936e-10
-1.33898e-10
-4.32121e-10
-3.56359e-10
-1.57732e-10
-4.75196e-10
1.83569e-10
8.05726e-10
-9.49399e-12
7.65279e-12
-4.27993e-11
1.6326e-12
4.30081e-11
-3.069e-11
2.12246e-12
-2.92654e-12
6.22975e-12
2.52623e-11
1.46725e-09
-7.35167e-11
-3.06157e-11
-2.67231e-10
-2.67036e-10
-4.49929e-10
-4.4983e-10
1.45245e-09
-2.20642e-11
-8.83535e-13
1.44411e-09
-1.86179e-11
3.05681e-13
1.43785e-09
-1.04212e-11
3.25855e-14
1.43384e-09
-6.73083e-12
-5.15924e-15
1.43106e-09
-4.14659e-12
-1.23944e-14
1.42925e-09
-2.55925e-12
-3.62233e-15
1.42819e-09
-1.59808e-12
1.24952e-14
1.42744e-09
-1.1039e-12
-3.66544e-15
1.42761e-09
-1.04381e-12
7.07922e-13
1.42708e-09
7.85715e-13
1.45697e-12
1.42682e-09
-3.7478e-13
-3.56248e-14
1.4272e-09
-3.49729e-13
-1.16567e-13
1.42728e-09
-1.37567e-13
-4.54857e-14
1.42686e-09
7.11783e-15
-9.11578e-13
1.42645e-09
3.14831e-14
5.6998e-13
1.42666e-09
-2.54184e-13
-9.28785e-14
1.42667e-09
-2.67021e-13
-9.77503e-15
1.42677e-09
3.99627e-14
4.70212e-14
1.4266e-09
-6.10634e-14
2.41312e-13
1.42709e-09
4.96073e-13
-1.25794e-12
1.42768e-09
1.01085e-12
-1.59232e-12
1.42757e-09
5.66043e-13
2.39102e-14
1.42846e-09
8.45369e-13
-1.04859e-12
1.42726e-09
9.5498e-14
-1.73864e-12
1.42676e-09
2.97296e-13
-2.95075e-12
1.42754e-09
3.67946e-13
-1.57037e-13
1.42761e-09
-1.29712e-13
4.43318e-14
1.42761e-09
6.9391e-14
2.8114e-13
1.42762e-09
-7.64118e-14
2.34286e-13
1.42741e-09
-5.62303e-13
-4.57201e-13
1.42675e-09
-8.67857e-13
2.00857e-12
1.42669e-09
-1.41919e-13
1.04331e-13
1.42649e-09
5.15152e-13
-4.78904e-13
1.42805e-09
-3.90001e-12
2.03066e-12
1.42831e-09
7.17369e-13
-6.85663e-13
1.42792e-09
4.21538e-13
1.91578e-13
1.42776e-09
-2.78029e-14
1.63304e-13
1.42749e-09
2.91129e-13
2.26987e-13
1.4271e-09
5.77773e-13
-5.1427e-14
1.42738e-09
3.72345e-13
9.6318e-14
-1.19275e-12
4.79045e-13
8.46083e-09
1.10794e-09
-1.59074e-08
5.84887e-09
-2.07533e-09
6.36429e-09
-6.76268e-10
7.79503e-10
-4.87653e-10
1.35508e-09
-3.76638e-09
4.3636e-10
1.12019e-08
2.80837e-08
-2.53363e-08
7.39966e-10
1.10399e-09
2.67611e-10
7.50471e-10
-2.74656e-09
1.01863e-10
1.21784e-09
-5.70583e-10
-5.26837e-10
-1.37876e-09
-2.68032e-11
3.17782e-09
-4.18555e-09
2.2589e-09
5.94648e-10
-3.73077e-10
4.10259e-10
6.212e-10
-1.09043e-10
-6.60712e-10
3.114e-10
2.01988e-10
2.56368e-10
-4.16575e-11
1.26374e-11
-1.36266e-10
-9.089e-11
-6.6931e-11
-5.5478e-11
-4.61004e-11
6.39605e-12
-3.33005e-12
-3.31496e-11
9.80576e-11
1.07954e-10
1.55027e-10
9.3722e-11
-1.58988e-10
1.90687e-11
-1.69226e-11
1.11055e-10
4.57868e-11
1.52919e-09
-4.33977e-12
-3.40869e-11
-2.8608e-10
-2.79082e-10
-4.80766e-10
-4.83633e-10
-1.22508e-11
-4.54657e-12
-1.79112e-11
1.47925e-09
2.99469e-11
-2.04066e-12
1.45931e-09
1.67537e-12
-3.29168e-13
1.44571e-09
3.42525e-12
-2.23026e-13
1.43841e-09
6.70672e-13
-7.48142e-14
1.43384e-09
4.84767e-13
-3.9727e-14
1.43096e-09
4.01916e-13
-6.13477e-14
1.42912e-09
3.22387e-13
-5.01677e-14
1.42802e-09
7.51334e-14
-5.95663e-14
1.42735e-09
1.0545e-13
-4.45941e-13
1.42768e-09
3.35166e-13
1.44991e-13
1.42733e-09
-1.2665e-13
1.42483e-13
1.42711e-09
-1.88932e-13
8.65403e-14
1.42717e-09
-1.73603e-13
9.97755e-15
1.42691e-09
-3.61427e-13
6.60608e-13
1.42719e-09
6.83337e-14
-2.78789e-13
1.42689e-09
4.878e-14
3.75333e-14
1.42677e-09
-2.89014e-14
-7.97133e-14
1.42691e-09
7.47905e-14
-1.36515e-13
1.42713e-09
9.3852e-13
-1.18755e-12
1.4282e-09
1.47052e-12
-2.01353e-12
1.42702e-09
5.74663e-13
1.65031e-12
1.42723e-09
5.24235e-13
-1.351e-13
1.42688e-09
-6.69083e-13
1.89788e-12
1.42708e-09
-8.82134e-14
8.24905e-15
1.42722e-09
1.23558e-13
6.1045e-14
1.42754e-09
-6.4763e-13
7.16049e-13
1.42744e-09
-1.08631e-14
5.8287e-15
1.42761e-09
-1.0774e-13
2.58568e-14
1.42739e-09
2.31084e-13
-7.67114e-14
1.42687e-09
-3.75616e-13
3.53127e-13
1.42758e-09
8.24121e-13
-2.393e-12
1.42757e-09
-5.6267e-14
-6.6155e-14
1.42827e-09
3.83663e-13
-5.63202e-13
1.42711e-09
3.23605e-13
-3.05665e-12
1.42737e-09
4.39325e-13
2.83938e-14
1.42771e-09
-1.04324e-13
1.89352e-13
1.42784e-09
5.84033e-14
-2.09068e-13
1.42798e-09
1.18754e-12
-1.03685e-12
1.42675e-09
1.68688e-12
1.25598e-13
1.42711e-09
5.12914e-14
-3.36478e-14
-1.85909e-12
7.026e-13
3.82075e-09
8.72459e-09
-1.00487e-08
2.3062e-10
-6.43173e-10
1.35857e-09
-1.12079e-09
-8.94315e-10
-1.91722e-09
3.09784e-09
8.38514e-10
7.95024e-10
8.65012e-10
2.64047e-11
1.18581e-10
5.22415e-10
5.83602e-10
2.83278e-10
5.20151e-10
-1.90945e-09
1.05878e-09
3.42138e-09
-5.30767e-09
-6.59821e-10
-4.90293e-10
-5.77853e-10
-4.13387e-10
9.43838e-10
6.82998e-10
6.67655e-10
6.74364e-10
-1.0688e-10
2.14502e-10
-2.38799e-10
-8.82147e-11
2.19392e-10
-1.78715e-11
5.10899e-11
-1.13022e-10
-1.69111e-10
4.1334e-13
-9.62808e-11
4.7768e-11
6.56176e-11
7.70641e-11
8.29953e-11
7.13351e-11
-7.08741e-11
-4.56596e-12
1.22008e-11
-8.6734e-11
1.49973e-10
-3.8238e-11
2.19373e-10
-1.87835e-13
-8.3608e-12
-3.79288e-11
-6.97449e-11
-6.92561e-11
1.46154e-09
2.36883e-11
-2.51135e-11
-2.6744e-10
-2.71698e-10
-4.41416e-10
-4.49609e-10
1.45015e-09
1.55309e-11
-2.44161e-12
1.44183e-09
1.09968e-11
7.77266e-13
1.43754e-09
4.1449e-12
8.35968e-13
1.43396e-09
4.08758e-12
2.04864e-15
1.43072e-09
4.23644e-12
-5.74617e-13
1.42883e-09
2.76368e-12
-5.27723e-13
1.42797e-09
9.45682e-13
1.53427e-14
1.42734e-09
8.89834e-13
-1.27721e-13
1.42682e-09
8.51916e-13
3.59571e-14
1.4275e-09
9.6507e-13
-1.7413e-12
1.42688e-09
4.62185e-13
-2.79905e-15
1.42714e-09
-6.79241e-13
2.85131e-13
1.42726e-09
1.19877e-13
-5.67732e-13
1.4272e-09
-9.02502e-15
1.69704e-13
1.4272e-09
3.1053e-13
-2.20346e-13
1.42733e-09
-1.595e-13
4.02118e-14
1.42747e-09
1.00686e-14
-4.00098e-14
1.42736e-09
1.44126e-13
9.44175e-13
1.42661e-09
2.59253e-13
1.98783e-12
1.42704e-09
2.14761e-13
-3.40427e-14
1.42777e-09
7.85928e-14
-2.50725e-13
1.42687e-09
-7.43067e-13
1.00695e-12
1.42702e-09
-1.19231e-14
-1.98026e-13
1.42729e-09
-1.21564e-13
-2.52797e-15
1.42722e-09
-1.32937e-13
-4.20279e-13
1.42726e-09
-9.35166e-14
6.01341e-14
1.42694e-09
-4.4035e-13
6.67681e-13
1.42697e-09
-1.60304e-13
3.78355e-13
1.42726e-09
-2.86005e-13
-3.59476e-13
1.42777e-09
-1.37292e-13
4.60301e-13
1.42814e-09
-8.05186e-13
3.8833e-13
1.42782e-09
1.24271e-13
5.81345e-13
1.42722e-09
-2.13665e-13
1.14806e-12
1.42739e-09
-3.84717e-13
6.58976e-13
1.42764e-09
-1.53479e-13
-1.88488e-13
1.42811e-09
-4.82884e-13
6.57793e-14
1.42832e-09
-1.25697e-12
2.24553e-12
1.42668e-09
3.74142e-12
-4.17369e-13
1.42704e-09
-9.21093e-13
6.13738e-13
-1.81387e-13
-8.93153e-13
-2.15092e-09
3.81372e-09
1.45507e-08
-2.0505e-09
-2.33479e-09
-1.71484e-09
-3.48345e-09
-1.47357e-09
2.16285e-09
4.77284e-09
-6.50825e-09
4.38976e-09
6.82649e-11
8.10469e-10
-2.43736e-09
-1.59163e-09
4.95895e-10
-1.01146e-09
4.81764e-10
4.21064e-09
8.50377e-10
-4.53132e-09
-6.24933e-10
1.98555e-10
3.43957e-11
1.20155e-09
-8.09575e-10
-2.38987e-11
6.4124e-10
1.81679e-10
8.47367e-11
-8.83758e-10
-7.33645e-11
1.63221e-10
-1.13261e-10
-5.03401e-11
-9.14014e-11
-1.14112e-10
-1.77735e-10
1.15593e-10
1.06694e-10
1.30505e-10
1.042e-10
-1.5992e-10
-5.97076e-13
-2.0786e-11
4.84219e-11
1.32881e-10
-3.8605e-11
-3.41802e-12
2.02442e-10
7.61966e-12
1.06854e-11
-3.8589e-11
-7.01332e-11
-7.00021e-11
1.45e-09
1.39581e-11
-2.54653e-11
-2.69362e-10
-2.63919e-10
-4.45596e-10
-4.35922e-10
1.44166e-09
2.62316e-11
-2.33898e-12
1.43727e-09
1.5129e-11
2.88702e-13
1.43239e-09
1.00472e-11
-1.00189e-12
1.42991e-09
6.54208e-12
3.86027e-14
1.42913e-09
4.49756e-12
5.49641e-13
1.42845e-09
2.95846e-12
5.07343e-13
1.42765e-09
1.76819e-12
6.10211e-15
1.42724e-09
2.01159e-12
-6.92715e-13
1.42755e-09
5.47753e-13
3.02616e-14
1.42698e-09
-1.17923e-13
1.67915e-12
1.42731e-09
7.81141e-13
-6.15789e-13
1.42667e-09
3.20137e-13
-3.27612e-13
1.42698e-09
-5.17266e-13
3.65768e-13
1.42691e-09
1.02039e-13
-4.00568e-15
1.42707e-09
-1.80992e-14
2.02943e-13
1.42731e-09
-1.53767e-14
-3.46682e-13
1.42746e-09
-1.13395e-13
1.31668e-14
1.42752e-09
2.42048e-13
-1.24405e-13
1.42727e-09
8.02038e-13
-2.5684e-13
1.42656e-09
2.65175e-12
-1.69393e-12
1.42629e-09
-6.41567e-13
1.02529e-12
1.42748e-09
2.1301e-13
-2.11302e-12
1.42731e-09
1.37412e-13
4.35075e-14
1.42725e-09
2.13285e-13
-2.49631e-13
1.42704e-09
-3.61466e-13
4.674e-13
1.42702e-09
6.42331e-15
-6.07308e-14
1.42744e-09
-3.80682e-13
-4.6343e-13
1.42742e-09
2.11117e-13
-3.41835e-13
1.42706e-09
-6.28591e-13
7.22818e-13
1.42804e-09
-8.71445e-13
-2.32746e-13
1.42765e-09
2.12671e-13
-6.20481e-13
1.42756e-09
1.58421e-13
6.5254e-14
1.42744e-09
1.3222e-14
-1.02714e-13
1.42719e-09
-7.63182e-14
-4.92911e-14
1.42708e-09
2.18499e-14
-5.94841e-14
1.42683e-09
-1.22661e-13
-1.08944e-13
1.42658e-09
1.44959e-12
-2.45139e-12
1.42882e-09
1.21579e-12
2.85095e-13
1.42852e-09
-4.69005e-13
-1.46151e-13
-8.28735e-13
1.95258e-12
3.6857e-09
5.44703e-09
-1.16577e-08
2.18884e-09
5.10846e-09
4.30249e-10
1.73382e-09
4.47798e-10
5.75924e-10
9.28119e-10
-1.01212e-08
-8.32671e-10
1.2853e-08
-3.04053e-09
1.14139e-09
4.47776e-09
-1.8877e-09
4.32579e-09
-4.57127e-09
-1.28238e-09
-7.05838e-11
-4.59196e-10
2.21388e-10
1.4104e-10
-4.49454e-10
-4.45385e-10
2.13163e-10
4.61506e-10
7.95342e-11
-1.24538e-10
-6.29665e-10
4.64256e-10
8.4311e-10
-6.62543e-10
-2.84283e-12
-6.4198e-10
-8.54653e-11
1.19984e-10
1.05118e-11
-7.45298e-10
1.89775e-11
5.73472e-10
-5.94619e-11
4.12825e-11
4.03192e-11
5.75033e-11
2.81784e-11
-1.19712e-10
6.88331e-12
8.24252e-12
-2.54925e-11
1.30079e-10
1.47639e-09
1.25741e-10
-3.49231e-11
-2.71833e-10
-2.71825e-10
-4.73613e-10
-4.55678e-10
-1.4572e-11
-2.17007e-11
-2.29317e-11
-3.50421e-11
1.44145e-09
5.05403e-11
-1.6341e-12
1.43342e-09
3.45974e-11
-3.32386e-13
1.42906e-09
1.96209e-11
-1.11266e-13
1.42728e-09
1.19556e-11
-1.10889e-13
1.42657e-09
7.31182e-12
-3.71819e-14
1.42646e-09
4.62095e-12
9.62876e-15
1.42646e-09
2.97382e-12
6.39139e-15
1.42643e-09
1.8166e-12
3.21985e-15
1.42653e-09
1.3793e-12
5.57823e-13
1.4272e-09
-1.60413e-13
7.61462e-14
1.427e-09
1.00129e-13
7.12933e-15
1.4268e-09
4.17985e-13
6.01239e-13
1.42696e-09
3.11811e-13
-1.17736e-13
1.42678e-09
2.38544e-13
-5.43738e-13
1.42692e-09
4.95995e-14
-4.59229e-14
1.42688e-09
1.62314e-13
-1.09827e-13
1.42684e-09
-2.13804e-13
2.80944e-13
1.4272e-09
-5.27963e-13
8.72123e-14
1.42805e-09
-6.0491e-13
3.17832e-14
1.42571e-09
7.76378e-12
-4.57884e-12
1.42669e-09
-1.17628e-12
2.87328e-12
1.42719e-09
-3.58123e-13
-7.4884e-13
1.42733e-09
-5.30344e-14
1.56131e-13
1.42728e-09
1.29775e-13
8.36952e-14
1.42727e-09
1.07419e-14
2.40028e-13
1.42754e-09
8.02031e-14
-6.8627e-13
1.42743e-09
1.90433e-13
-5.82095e-14
1.42733e-09
-5.40195e-15
-2.59022e-13
1.42757e-09
2.38881e-14
-3.29146e-14
1.42744e-09
1.08482e-13
-5.96407e-13
1.42753e-09
4.20265e-13
-1.36428e-12
1.42744e-09
3.60786e-14
2.74347e-13
1.4273e-09
-4.29701e-14
3.49834e-13
1.42759e-09
-1.9956e-13
-7.09893e-14
1.42707e-09
5.59204e-13
-1.1067e-13
1.42712e-09
-1.27723e-13
1.03192e-13
1.42691e-09
8.24523e-14
1.18796e-14
1.42731e-09
-6.88745e-13
1.74242e-12
1.42775e-09
6.87321e-13
9.37901e-14
1.42802e-09
-1.992e-13
-5.44412e-13
-2.099e-13
-1.39747e-12
-2.19232e-09
2.78465e-09
6.3918e-09
-1.02029e-10
-7.43825e-11
2.81347e-11
-2.30771e-09
-4.42056e-09
1.57759e-09
2.95828e-09
-1.00795e-09
-2.63024e-10
-2.15084e-09
5.34268e-10
6.79689e-10
2.89587e-10
1.70874e-09
3.0283e-08
-4.85571e-09
5.62992e-09
-2.97969e-08
-2.29888e-10
-4.08603e-10
-4.13164e-10
3.55585e-09
1.59796e-09
-4.08722e-09
4.98782e-10
-1.56538e-09
7.86144e-10
-1.03375e-09
5.79288e-10
-2.61397e-09
2.28229e-09
-8.86311e-10
-1.31255e-09
1.52361e-09
1.27644e-10
5.47608e-10
-1.69054e-10
-1.37457e-10
1.0153e-10
-5.75058e-11
-1.41154e-10
-1.37279e-10
4.34311e-11
-3.65575e-12
1.48627e-11
4.83339e-12
8.58544e-11
1.35978e-10
1.53332e-10
1.06292e-10
-1.31889e-10
-2.20558e-11
1.26437e-11
1.07101e-10
3.42006e-11
1.37376e-09
6.53044e-11
-2.55536e-11
-2.43243e-10
-2.39287e-10
-4.06741e-10
-3.98503e-10
1.39304e-09
3.20721e-11
-8.08466e-13
1.40672e-09
2.05654e-11
3.73298e-13
1.41426e-09
1.20428e-11
5.89792e-14
1.41881e-09
7.38314e-12
4.15612e-14
1.4217e-09
4.43369e-12
2.75008e-15
1.42348e-09
2.86095e-12
2.53262e-15
1.42445e-09
2.02442e-12
1.01526e-15
1.42544e-09
1.84998e-13
6.69607e-13
1.42578e-09
3.22814e-13
7.44906e-13
1.42681e-09
-1.86657e-12
7.02673e-13
1.42666e-09
7.57665e-14
2.05297e-13
1.4267e-09
4.95387e-13
-7.64163e-14
1.42663e-09
3.85284e-13
2.34706e-14
1.4267e-09
-3.5652e-13
5.62671e-13
1.42688e-09
-1.1238e-13
1.87497e-14
1.42676e-09
1.44833e-13
1.7071e-13
1.42665e-09
-4.92154e-13
4.26467e-13
1.42645e-09
2.81047e-15
-2.88126e-13
1.42517e-09
8.16733e-13
-1.10123e-13
1.42769e-09
6.15777e-13
4.6639e-12
1.42779e-09
8.42951e-13
-2.08006e-12
1.42804e-09
-3.8883e-12
3.31236e-12
1.42783e-09
9.50165e-14
8.51453e-14
1.42705e-09
2.04699e-12
-1.10204e-12
1.42721e-09
-3.40615e-14
-9.73695e-14
1.42744e-09
-2.18854e-15
-1.22662e-13
1.42731e-09
1.17858e-12
-8.35345e-13
1.42765e-09
-3.47074e-13
1.43411e-14
1.42745e-09
3.58198e-13
-1.1656e-13
1.42791e-09
-2.65333e-13
-6.98538e-14
1.42731e-09
-4.29307e-13
1.45815e-12
1.42739e-09
-1.90195e-13
1.56413e-13
1.42715e-09
4.39336e-13
-2.30491e-13
1.4271e-09
-8.13232e-14
-6.79734e-14
1.42741e-09
1.09616e-13
1.46226e-13
1.42721e-09
9.80857e-14
-1.22656e-14
1.4268e-09
4.56393e-13
4.06089e-14
1.4273e-09
-1.01877e-12
-1.72927e-13
1.42711e-09
6.38657e-13
2.45811e-13
1.42854e-09
-3.59595e-12
1.96923e-12
-2.76342e-13
-5.69223e-13
-2.36032e-09
-5.21197e-09
1.62274e-08
-1.93885e-09
-2.59896e-10
-2.28292e-09
-6.01618e-09
4.18922e-10
4.49216e-09
-1.25528e-09
6.05104e-10
-4.09501e-10
-2.24591e-09
2.69274e-09
-6.42446e-10
7.48565e-10
9.44053e-10
-5.13155e-09
2.07522e-09
1.36371e-09
-1.12992e-09
2.24947e-09
2.19535e-09
-4.87159e-09
4.3111e-11
7.68907e-10
1.25578e-09
2.41944e-09
-2.53048e-11
-2.25433e-09
-6.50946e-10
-6.06741e-10
-2.69721e-09
-3.2504e-10
5.39278e-10
3.08968e-09
-2.40375e-12
-4.47779e-12
2.49595e-13
-4.31772e-11
4.98091e-11
-2.91986e-11
-2.80189e-12
1.61251e-10
2.11482e-12
2.32654e-11
-2.86254e-11
-5.56769e-11
-5.45114e-11
-6.69163e-12
-2.73358e-12
-6.39144e-12
1.32934e-09
-1.31163e-11
-2.23873e-11
-2.32309e-10
-2.3056e-10
-3.84798e-10
-3.80866e-10
1.37009e-09
-7.20839e-12
-1.44337e-12
1.39287e-09
-2.73799e-12
5.47833e-13
1.40608e-09
-1.18189e-12
3.84508e-14
1.41393e-09
-4.86715e-13
3.44011e-14
1.41893e-09
-5.81282e-13
3.64102e-14
1.42202e-09
-2.40145e-13
3.84322e-14
1.42374e-09
5.83459e-13
-2.53374e-13
1.42482e-09
-5.74332e-14
-8.14774e-13
1.42616e-09
-4.16364e-13
-5.73267e-13
1.42542e-09
-2.33236e-13
-8.7063e-13
1.42597e-09
7.01208e-14
-5.07248e-13
1.4262e-09
2.86921e-13
5.95158e-15
1.42617e-09
1.14755e-12
-6.95441e-13
1.42655e-09
-2.07825e-13
-4.90882e-13
1.42647e-09
5.813e-14
-5.02549e-14
1.42693e-09
1.88024e-15
-2.82589e-13
1.4274e-09
-4.82639e-13
-4.40986e-13
1.42648e-09
-8.62789e-13
1.82198e-12
1.4273e-09
-6.50216e-14
9.4223e-14
1.42745e-09
3.86887e-13
1.12653e-13
1.42745e-09
-1.53346e-13
1.03655e-12
1.42699e-09
-4.45595e-14
-3.35316e-12
1.42708e-09
2.298e-13
-1.98034e-13
1.42743e-09
1.07215e-12
6.53025e-13
1.42719e-09
8.96484e-14
1.41017e-13
1.42701e-09
1.37558e-13
6.66359e-14
1.42697e-09
4.05495e-13
8.28637e-13
1.42759e-09
-2.46299e-12
1.52135e-12
1.42797e-09
-1.33098e-13
1.22899e-13
1.42752e-09
9.12682e-13
-7.18534e-13
1.42754e-09
-3.70548e-13
-6.48485e-14
1.42767e-09
-4.19358e-13
1.0807e-13
1.4271e-09
3.1583e-12
-2.13557e-12
1.4275e-09
-4.99488e-13
2.54626e-14
1.42725e-09
3.46243e-13
1.70897e-14
1.42764e-09
2.8702e-13
-5.75694e-13
1.4281e-09
-1.89571e-13
1.88871e-13
1.42702e-09
3.89552e-13
-3.18695e-13
1.42732e-09
4.46758e-13
-1.10864e-13
1.42698e-09
9.67681e-13
-4.2158e-12
-1.94085e-12
4.03308e-14
2.64151e-09
-1.42749e-08
3.07493e-09
1.43429e-09
4.60281e-09
3.77414e-12
-4.27638e-09
6.94652e-09
2.19416e-10
9.7043e-11
-9.4462e-11
-2.54259e-10
-1.65222e-10
-5.46564e-10
-1.04829e-09
1.62052e-09
1.39556e-10
-4.48393e-10
1.30365e-10
-5.85983e-10
2.34969e-09
-9.49019e-10
4.62248e-10
-1.44934e-10
8.63258e-10
-9.53382e-11
-8.48629e-10
-7.33202e-10
-2.65203e-09
1.27999e-09
1.52113e-10
-3.79124e-10
1.59904e-09
5.3846e-10
-6.48541e-10
6.52568e-10
-2.63418e-10
-2.79104e-10
-1.24857e-10
6.98159e-11
-4.91111e-11
-5.33177e-11
1.5747e-10
-3.24849e-11
9.63085e-12
1.73948e-10
-1.41153e-11
9.74514e-12
-3.08621e-11
-5.97763e-11
-5.60841e-11
1.34976e-09
-2.51196e-11
-2.40113e-10
-2.42758e-10
-3.96194e-10
-4.04047e-10
1.37859e-09
-2.31457e-12
1.39656e-09
4.2264e-13
1.40743e-09
2.72659e-14
1.41362e-09
3.95698e-14
1.41939e-09
3.58745e-13
1.42231e-09
-8.60129e-14
1.42391e-09
-1.02992e-13
1.42465e-09
8.02118e-14
1.4258e-09
2.05555e-13
1.42608e-09
-2.34307e-14
1.4265e-09
2.59799e-13
1.42549e-09
3.5796e-13
1.42636e-09
3.74271e-13
1.42632e-09
4.31896e-14
1.42666e-09
2.85115e-14
1.4266e-09
4.46544e-13
1.4267e-09
7.46794e-13
1.42753e-09
-1.77805e-12
1.42737e-09
1.09294e-14
1.42738e-09
4.66366e-14
1.42741e-09
-6.51295e-13
1.42724e-09
-1.86142e-12
1.42673e-09
1.28357e-12
1.42721e-09
-2.50703e-13
1.42718e-09
4.06648e-13
1.42741e-09
8.06251e-14
1.42777e-09
9.43054e-14
1.42703e-09
-1.50348e-12
1.42702e-09
8.7329e-14
1.42778e-09
7.53897e-13
1.42742e-09
1.46203e-13
1.42738e-09
-4.91706e-13
1.428e-09
2.30587e-12
1.42775e-09
-1.52345e-13
1.42749e-09
3.053e-14
1.42733e-09
6.91618e-13
1.42782e-09
-9.92215e-14
1.42775e-09
6.02337e-14
1.42836e-09
-2.27291e-13
1.42712e-09
2.41783e-12
3.00961e-14
-7.29597e-09
-2.38209e-10
8.45224e-09
3.0905e-10
-3.92699e-09
2.19273e-10
3.2167e-09
7.80975e-10
4.68121e-09
-5.02422e-09
-1.64092e-09
3.47347e-09
-2.17384e-08
5.87737e-09
-3.33555e-09
-1.33024e-10
1.20593e-08
3.63112e-09
1.65889e-08
-1.79379e-08
-5.27234e-09
2.04199e-09
1.39062e-09
1.51903e-09
1.57175e-09
7.41673e-08
-5.83684e-09
-5.67449e-09
-5.97089e-08
-4.53478e-09
5.64335e-08
-1.45063e-09
4.40691e-11
-2.99036e-09
-5.22134e-08
-2.45307e-09
8.69508e-10
-5.72278e-10
4.70227e-10
1.38047e-09
-1.01311e-10
7.78269e-11
-4.03965e-11
-4.43649e-11
9.08143e-11
-5.82398e-10
6.07197e-10
-3.40732e-11
-2.10803e-11
-1.18669e-11
2.31305e-09
-1.26854e-10
2.60651e-11
-5.87922e-10
-5.76166e-10
-5.87557e-10
-5.76178e-10
2.33229e-09
-7.86938e-11
2.03142e-12
2.3483e-09
-4.9476e-11
-5.5106e-13
2.35934e-09
-3.04679e-11
-5.17157e-13
2.3678e-09
-1.92613e-11
-6.89432e-13
2.37024e-09
-1.24441e-11
3.59515e-13
2.37294e-09
-7.72059e-12
2.08203e-13
2.3747e-09
-5.58391e-12
9.51536e-13
2.37651e-09
-3.21159e-12
-1.85863e-14
2.37679e-09
-2.51607e-12
2.28954e-13
2.37487e-09
1.9926e-12
3.60233e-13
2.37583e-09
-1.35381e-12
-6.64106e-13
2.37787e-09
-2.84107e-13
2.26527e-13
2.37748e-09
-1.14081e-13
1.91547e-13
2.37757e-09
4.64782e-13
-5.42737e-13
2.37729e-09
8.87419e-14
-5.90816e-14
2.37763e-09
-2.21066e-12
8.89295e-13
2.37881e-09
-3.24084e-12
3.33252e-12
2.37872e-09
6.07908e-13
-9.31963e-14
2.37913e-09
-1.53796e-13
-2.80226e-14
2.37785e-09
9.00312e-13
-1.5027e-13
2.37845e-09
1.82618e-14
-8.07913e-13
2.37747e-09
5.78152e-12
-1.59084e-12
2.37726e-09
4.88046e-12
-3.0689e-12
2.37784e-09
4.55381e-14
-8.38756e-13
2.37967e-09
1.09203e-12
2.60157e-13
2.37907e-09
5.01296e-13
-8.39542e-15
2.37844e-09
5.63571e-13
3.8919e-13
2.37755e-09
8.53397e-13
-5.63506e-14
2.37728e-09
-1.16719e-12
7.37269e-13
2.38026e-09
-6.89609e-13
-2.06771e-12
2.37938e-09
1.05123e-12
-1.20202e-13
2.37895e-09
2.73695e-13
-1.96824e-13
2.37935e-09
-1.38642e-13
-2.87915e-13
2.38018e-09
-9.53489e-13
-4.20015e-14
2.37834e-09
3.76327e-12
-2.95538e-12
2.37875e-09
-3.49737e-14
-5.69034e-13
2.37838e-09
-1.19077e-12
-3.85621e-15
2.3792e-09
-1.13785e-12
2.61054e-13
2.37897e-09
8.53639e-14
1.4315e-13
2.37794e-09
6.47679e-13
7.44229e-13
-5.53924e-13
-4.48073e-13
2.54724e-08
-4.30308e-09
-1.41544e-09
5.17415e-09
-1.13303e-10
-1.24639e-08
1.21375e-08
4.05199e-09
8.5015e-10
-1.47994e-09
-1.01364e-09
-3.48281e-09
-2.31591e-09
1.37672e-09
5.11168e-10
5.96632e-10
-2.76228e-09
1.33721e-09
2.48588e-09
1.16734e-09
4.61461e-10
9.43913e-10
7.9018e-08
-5.61134e-09
-7.02639e-08
-1.33149e-09
-2.75524e-09
-8.65561e-09
-2.5748e-10
-1.90396e-09
4.1979e-10
-9.13094e-10
1.13104e-08
3.70228e-09
7.11742e-10
9.8488e-10
1.47577e-09
3.42741e-10
-7.21741e-09
-1.33431e-10
3.08537e-11
-8.65419e-11
1.43221e-10
-4.62072e-11
9.21054e-11
-1.58287e-10
6.349e-10
-5.92451e-11
-9.03602e-13
-6.52514e-13
-1.51253e-10
-1.64357e-10
-1.56936e-10
5.67354e-11
2.40771e-09
-1.19828e-10
2.76147e-11
-6.06782e-10
-6.2824e-10
-6.06779e-10
-6.28259e-10
2.3873e-09
-6.36557e-11
2.68831e-12
2.38313e-09
-4.46357e-11
-3.23632e-13
2.3802e-09
-2.77608e-11
1.36623e-13
2.37876e-09
-1.789e-11
6.00859e-14
2.3778e-09
-1.15362e-11
5.1402e-14
2.37741e-09
-7.28573e-12
-2.44928e-15
2.378e-09
-4.5048e-12
-6.81419e-13
2.37795e-09
-3.17595e-12
6.44822e-14
2.37638e-09
-1.2036e-12
2.42726e-13
2.37768e-09
-2.95165e-12
9.53842e-13
2.37744e-09
-1.00143e-12
1.12162e-14
2.3774e-09
-2.03623e-13
-3.39207e-15
2.3774e-09
-1.13284e-13
8.46115e-14
2.37812e-09
5.88155e-13
-2.97828e-13
2.37912e-09
4.03075e-13
-1.73288e-12
2.37891e-09
-7.18018e-14
-9.4844e-13
2.37711e-09
-2.89512e-13
-2.614e-12
2.37739e-09
2.57253e-13
7.05827e-14
2.37741e-09
-1.14265e-13
7.87266e-16
2.37757e-09
2.37497e-12
8.32795e-13
2.37736e-09
3.10475e-14
4.26846e-13
2.37829e-09
7.85639e-13
2.19696e-12
2.37857e-09
9.96584e-13
1.84019e-12
2.38019e-09
-2.26136e-12
2.50127e-12
2.37939e-09
1.12802e-12
5.2236e-13
2.37846e-09
1.023e-12
3.63681e-13
2.379e-09
1.23497e-14
-2.93673e-13
2.37963e-09
-2.19014e-14
-1.43477e-13
2.37988e-09
-4.63249e-13
-6.75822e-13
2.37741e-09
-8.58817e-13
2.16784e-12
2.37748e-09
6.29643e-13
2.58763e-14
2.37791e-09
-1.18843e-13
-2.05948e-15
2.37807e-09
-2.1967e-13
-4.9162e-14
2.3778e-09
-4.39944e-13
-1.01008e-13
2.37996e-09
2.56889e-13
2.9343e-12
2.37942e-09
1.71911e-13
3.92848e-14
2.37905e-09
2.27108e-14
-4.27454e-13
2.37886e-09
-7.64925e-13
-9.10377e-14
2.37883e-09
3.13846e-13
-2.17239e-13
2.37853e-09
9.09735e-13
-6.89187e-13
-3.85208e-13
2.29981e-13
2.31899e-10
2.49005e-09
1.96325e-09
5.01641e-10
-4.64117e-09
-1.74784e-09
2.74647e-10
2.01471e-10
5.99192e-11
3.28215e-10
-2.37953e-11
4.45375e-10
-6.62057e-09
-3.28006e-09
-1.08282e-09
-2.98704e-09
6.15442e-09
1.11511e-09
-3.41811e-10
1.06899e-10
4.7108e-10
-1.55767e-10
7.44971e-09
-6.16379e-11
-1.93605e-09
-5.40393e-09
1.11338e-09
-1.00685e-11
-5.10623e-10
1.95368e-10
-4.90265e-10
2.10746e-10
-7.61385e-10
2.04765e-10
-6.03317e-09
-4.96158e-10
3.51616e-11
1.26781e-10
-1.64897e-10
6.5323e-09
1.0291e-10
8.01766e-11
-5.43105e-11
-3.05506e-11
-7.49778e-11
-2.32475e-11
-1.35465e-10
-1.55085e-11
1.30533e-11
-1.69234e-11
8.44329e-12
1.46398e-10
2.44971e-09
-1.22702e-10
3.10319e-11
-6.27151e-10
-6.2705e-10
-6.27153e-10
-6.27084e-10
2.41985e-09
-3.53985e-11
7.58654e-13
2.40672e-09
-3.08249e-11
-3.11448e-13
2.39623e-09
-1.71403e-11
-3.4405e-14
2.38957e-09
-1.11876e-11
-1.06898e-15
2.38497e-09
-6.89873e-12
2.63834e-15
2.38199e-09
-4.24804e-12
-6.36378e-15
2.38021e-09
-2.63548e-12
-2.78383e-14
2.37901e-09
-1.83541e-12
-7.69978e-14
2.37934e-09
-1.13523e-12
3.76261e-13
2.37836e-09
7.42233e-13
-1.18728e-12
2.37812e-09
-7.19288e-13
-1.1441e-14
2.37848e-09
-6.27212e-13
2.29111e-14
2.37875e-09
-3.50367e-13
-2.04603e-15
2.37799e-09
-4.63601e-13
9.88861e-13
2.37718e-09
5.17504e-14
1.81077e-12
2.37743e-09
-3.38603e-13
7.88203e-15
2.37756e-09
-3.17843e-13
-3.16293e-14
2.3775e-09
3.48686e-13
1.01241e-13
2.37718e-09
7.68312e-13
-2.41121e-13
2.37821e-09
9.4762e-13
-7.86502e-13
2.37911e-09
-4.01547e-12
1.62491e-12
2.37899e-09
1.14414e-12
-1.38767e-13
2.38058e-09
-2.42843e-12
8.4744e-13
2.37865e-09
3.58092e-13
-2.37172e-12
2.37765e-09
1.74842e-13
-9.38775e-13
2.37876e-09
2.64638e-13
-4.61231e-13
2.379e-09
-1.1701e-13
-2.48121e-14
2.3789e-09
1.43763e-13
2.44979e-13
2.37895e-09
-3.14572e-13
6.74711e-14
2.37855e-09
-8.51457e-13
-3.71299e-14
2.37737e-09
3.08185e-12
7.61724e-13
2.3773e-09
-5.1253e-14
1.24777e-13
2.37719e-09
-3.48184e-13
-2.14804e-13
2.37955e-09
2.31851e-12
-3.0781e-12
2.37999e-09
-1.50617e-12
6.54532e-13
2.37948e-09
9.65398e-13
-8.93058e-14
2.37929e-09
6.73127e-13
-2.86481e-13
2.37872e-09
2.41801e-13
-1.9656e-13
2.37803e-09
8.77677e-13
7.31419e-14
2.37844e-09
5.66438e-13
3.74382e-14
-1.95187e-12
1.0197e-12
-3.74767e-09
-1.30503e-09
-5.86503e-09
-3.85176e-10
-3.73196e-09
2.71004e-09
2.24333e-09
-3.49488e-09
6.33716e-10
1.14166e-09
1.30352e-09
-1.31653e-09
-2.02375e-09
-1.86634e-09
3.45925e-09
-6.12912e-09
-2.02641e-09
3.44572e-09
-4.48098e-09
1.21562e-09
3.25354e-09
3.13034e-09
-6.59999e-10
-1.54855e-09
-2.67942e-09
2.5485e-09
1.61693e-09
7.2253e-10
-2.00923e-09
3.72258e-10
2.54612e-10
9.46705e-10
-5.55167e-10
9.90819e-10
-4.72291e-11
2.71338e-10
-5.93882e-11
3.26045e-11
-4.71564e-10
-4.84688e-11
-8.22635e-11
-6.12414e-11
-7.00784e-11
-7.14146e-11
-4.59117e-11
1.47754e-10
1.86406e-10
1.35485e-10
1.83963e-10
-1.06942e-10
-1.1621e-10
1.45185e-11
-1.49236e-11
5.78186e-11
1.65739e-10