/*--------------------------------*- C++ -*----------------------------------*\
| =========                 |                                                 |
| \\      /  F ield         | OpenFOAM: The Open Source CFD Toolbox           |
|  \\    /   O peration     | Version:  5.0                                   |
|   \\  /    A nd           | Web:      www.OpenFOAM.org                      |
|    \\/     M anipulation  |                                                 |
\*---------------------------------------------------------------------------*/
FoamFile
{
    version     2.0;
    format      ascii;
    class       volScalarField;
    location    "4.7";
    object      rAU;
}
// * * * * * * * * * * * * * * * * * * * * * * * * * * * * * * * * * * * * * //

dimensions      [-1 3 1 0 0 0 0];

internalField   nonuniform List<scalar> 
8955
(
8.84518e-07
4.88784e-07
8.81519e-07
4.40847e-07
7.31871e-07
6.81527e-07
1.54735e-07
1.29815e-07
3.93454e-07
3.94697e-07
3.9573e-07
3.96763e-07
3.97794e-07
3.98826e-07
3.99856e-07
4.00886e-07
4.01915e-07
4.02943e-07
4.03971e-07
4.04998e-07
4.06024e-07
4.0705e-07
4.08075e-07
4.09099e-07
4.10122e-07
4.11145e-07
4.12166e-07
4.13187e-07
4.14208e-07
4.15227e-07
4.16245e-07
4.17264e-07
4.18281e-07
4.19297e-07
4.20313e-07
4.21328e-07
4.22341e-07
4.23355e-07
4.24367e-07
4.25379e-07
4.2639e-07
4.274e-07
4.28409e-07
4.29417e-07
4.30424e-07
4.31431e-07
4.32437e-07
4.33442e-07
4.34446e-07
4.36222e-07
9.70283e-07
9.57635e-07
6.34339e-07
7.28662e-07
6.562e-07
6.64447e-07
6.64918e-07
1.29627e-07
3.93451e-07
3.94695e-07
3.95729e-07
3.96762e-07
3.97794e-07
3.98826e-07
3.99856e-07
4.00886e-07
4.01915e-07
4.02943e-07
4.03971e-07
4.04998e-07
4.06024e-07
4.0705e-07
4.08075e-07
4.09099e-07
4.10122e-07
4.11145e-07
4.12166e-07
4.13187e-07
4.14208e-07
4.15227e-07
4.16245e-07
4.17264e-07
4.18281e-07
4.19297e-07
4.20313e-07
4.21328e-07
4.22341e-07
4.23355e-07
4.24367e-07
4.25379e-07
4.2639e-07
4.274e-07
4.28409e-07
4.29417e-07
4.30424e-07
4.31431e-07
4.32437e-07
4.33442e-07
4.34446e-07
4.36222e-07
9.67362e-07
9.60368e-07
8.96315e-07
8.9353e-07
8.88067e-07
3.95276e-07
6.99252e-07
3.53103e-08
3.9345e-07
3.94695e-07
3.95729e-07
3.96762e-07
3.97794e-07
3.98825e-07
3.99856e-07
4.00886e-07
4.01915e-07
4.02943e-07
4.03971e-07
4.04998e-07
4.06024e-07
4.0705e-07
4.08075e-07
4.09099e-07
4.10122e-07
4.11145e-07
4.12166e-07
4.13187e-07
4.14208e-07
4.15227e-07
4.16246e-07
4.17264e-07
4.18281e-07
4.19297e-07
4.20313e-07
4.21328e-07
4.22341e-07
4.23355e-07
4.24367e-07
4.25379e-07
4.2639e-07
4.274e-07
4.28408e-07
4.29417e-07
4.30424e-07
4.31431e-07
4.32437e-07
4.33442e-07
4.34446e-07
4.36222e-07
9.63742e-07
9.63086e-07
9.67003e-07
8.70926e-07
7.70533e-07
5.37147e-07
9.03289e-07
4.45352e-08
3.93315e-07
3.94694e-07
3.95729e-07
3.96762e-07
3.97794e-07
3.98825e-07
3.99856e-07
4.00886e-07
4.01915e-07
4.02943e-07
4.03971e-07
4.04998e-07
4.06024e-07
4.0705e-07
4.08075e-07
4.09099e-07
4.10122e-07
4.11145e-07
4.12166e-07
4.13187e-07
4.14208e-07
4.15227e-07
4.16246e-07
4.17264e-07
4.18281e-07
4.19297e-07
4.20313e-07
4.21328e-07
4.22341e-07
4.23355e-07
4.24367e-07
4.25379e-07
4.2639e-07
4.274e-07
4.28408e-07
4.29417e-07
4.30424e-07
4.31431e-07
4.32437e-07
4.33442e-07
4.34446e-07
4.36222e-07
9.67053e-07
9.65216e-07
8.249e-07
8.74906e-07
8.81351e-07
6.78447e-07
9.02498e-07
2.19588e-07
1.30232e-07
3.94485e-07
3.95729e-07
3.96762e-07
3.97794e-07
3.98825e-07
3.99856e-07
4.00886e-07
4.01915e-07
4.02943e-07
4.03971e-07
4.04998e-07
4.06024e-07
4.0705e-07
4.08075e-07
4.09099e-07
4.10122e-07
4.11145e-07
4.12166e-07
4.13187e-07
4.14208e-07
4.15227e-07
4.16246e-07
4.17264e-07
4.18281e-07
4.19297e-07
4.20313e-07
4.21328e-07
4.22341e-07
4.23355e-07
4.24367e-07
4.25379e-07
4.2639e-07
4.274e-07
4.28409e-07
4.29417e-07
4.30424e-07
4.31431e-07
4.32437e-07
4.33442e-07
4.34446e-07
4.36222e-07
9.64403e-07
8.87361e-07
8.94696e-07
8.83828e-07
6.736e-07
6.27403e-07
9.0238e-07
4.2208e-07
1.30176e-07
3.94485e-07
3.95729e-07
3.96762e-07
3.97794e-07
3.98826e-07
3.99856e-07
4.00886e-07
4.01915e-07
4.02943e-07
4.03971e-07
4.04998e-07
4.06024e-07
4.0705e-07
4.08075e-07
4.09099e-07
4.10122e-07
4.11145e-07
4.12166e-07
4.13187e-07
4.14208e-07
4.15227e-07
4.16246e-07
4.17264e-07
4.18281e-07
4.19297e-07
4.20313e-07
4.21328e-07
4.22341e-07
4.23355e-07
4.24367e-07
4.25379e-07
4.2639e-07
4.274e-07
4.28409e-07
4.29417e-07
4.30425e-07
4.31431e-07
4.32437e-07
4.33442e-07
4.34446e-07
4.36222e-07
9.53241e-07
8.45711e-07
5.89721e-07
8.71672e-07
6.29818e-07
6.87463e-07
9.01816e-07
1.32225e-07
3.93316e-07
3.94695e-07
3.95729e-07
3.96762e-07
3.97794e-07
3.98826e-07
3.99856e-07
4.00886e-07
4.01915e-07
4.02943e-07
4.03971e-07
4.04998e-07
4.06024e-07
4.0705e-07
4.08075e-07
4.09099e-07
4.10122e-07
4.11145e-07
4.12166e-07
4.13187e-07
4.14208e-07
4.15227e-07
4.16246e-07
4.17264e-07
4.18281e-07
4.19297e-07
4.20313e-07
4.21328e-07
4.22341e-07
4.23355e-07
4.24367e-07
4.25379e-07
4.2639e-07
4.274e-07
4.28409e-07
4.29417e-07
4.30425e-07
4.31431e-07
4.32437e-07
4.33442e-07
4.34446e-07
4.36222e-07
9.5861e-07
8.68694e-07
6.26554e-07
2.57726e-07
6.7721e-07
6.79318e-07
9.03137e-07
3.78539e-08
3.93453e-07
3.94696e-07
3.9573e-07
3.96762e-07
3.97794e-07
3.98826e-07
3.99856e-07
4.00886e-07
4.01915e-07
4.02943e-07
4.03971e-07
4.04998e-07
4.06024e-07
4.0705e-07
4.08075e-07
4.09099e-07
4.10122e-07
4.11145e-07
4.12166e-07
4.13187e-07
4.14208e-07
4.15227e-07
4.16245e-07
4.17264e-07
4.18281e-07
4.19297e-07
4.20313e-07
4.21328e-07
4.22341e-07
4.23355e-07
4.24367e-07
4.25379e-07
4.2639e-07
4.274e-07
4.28409e-07
4.29417e-07
4.30425e-07
4.31431e-07
4.32437e-07
4.33442e-07
4.34446e-07
4.36222e-07
9.57548e-07
8.77525e-07
6.20381e-07
6.40237e-07
8.35552e-07
5.57435e-07
7.01145e-07
1.29445e-07
3.93455e-07
3.94697e-07
3.95731e-07
3.96763e-07
3.97794e-07
3.98826e-07
3.99856e-07
4.00886e-07
4.01915e-07
4.02943e-07
4.03971e-07
4.04998e-07
4.06024e-07
4.0705e-07
4.08075e-07
4.09099e-07
4.10122e-07
4.11145e-07
4.12166e-07
4.13187e-07
4.14208e-07
4.15227e-07
4.16245e-07
4.17264e-07
4.18281e-07
4.19297e-07
4.20313e-07
4.21328e-07
4.22341e-07
4.23355e-07
4.24367e-07
4.25379e-07
4.2639e-07
4.274e-07
4.28409e-07
4.29417e-07
4.30424e-07
4.31431e-07
4.32437e-07
4.33442e-07
4.34446e-07
4.36222e-07
9.6066e-07
8.75471e-07
4.45108e-07
8.91645e-07
8.50218e-07
6.86967e-07
6.65257e-07
1.29724e-07
3.93455e-07
3.94698e-07
3.95731e-07
3.96763e-07
3.97794e-07
3.98826e-07
3.99856e-07
4.00886e-07
4.01915e-07
4.02943e-07
4.03971e-07
4.04998e-07
4.06024e-07
4.0705e-07
4.08075e-07
4.09099e-07
4.10122e-07
4.11145e-07
4.12166e-07
4.13187e-07
4.14208e-07
4.15227e-07
4.16245e-07
4.17264e-07
4.18281e-07
4.19297e-07
4.20313e-07
4.21328e-07
4.22341e-07
4.23355e-07
4.24367e-07
4.25379e-07
4.2639e-07
4.274e-07
4.28409e-07
4.29417e-07
4.30424e-07
4.31431e-07
4.32437e-07
4.33442e-07
4.34446e-07
4.36222e-07
9.70197e-07
8.64917e-07
8.47161e-07
9.18753e-08
5.81568e-07
6.90562e-07
2.15082e-07
1.84133e-07
5.06039e-07
5.07527e-07
5.08664e-07
5.09802e-07
5.10937e-07
5.1207e-07
5.13203e-07
5.14334e-07
5.15462e-07
5.1659e-07
5.17716e-07
5.18839e-07
5.19962e-07
5.21083e-07
5.22202e-07
5.2332e-07
5.24436e-07
5.2555e-07
5.26663e-07
5.27774e-07
5.28883e-07
5.29991e-07
5.31098e-07
5.32202e-07
5.33305e-07
5.34406e-07
5.35505e-07
5.36603e-07
5.377e-07
5.38794e-07
5.39887e-07
5.40979e-07
5.42068e-07
5.43156e-07
5.44242e-07
5.45326e-07
5.46409e-07
5.47491e-07
5.4857e-07
5.49648e-07
5.50724e-07
5.53039e-07
9.63862e-07
9.5158e-07
8.87615e-07
2.07721e-07
5.27491e-07
6.76259e-07
7.65554e-07
1.83946e-07
5.06032e-07
5.07523e-07
5.08662e-07
5.098e-07
5.10936e-07
5.1207e-07
5.13203e-07
5.14334e-07
5.15462e-07
5.1659e-07
5.17716e-07
5.18839e-07
5.19962e-07
5.21083e-07
5.22202e-07
5.2332e-07
5.24436e-07
5.2555e-07
5.26663e-07
5.27774e-07
5.28883e-07
5.29991e-07
5.31098e-07
5.32201e-07
5.33305e-07
5.34406e-07
5.35505e-07
5.36603e-07
5.377e-07
5.38794e-07
5.39887e-07
5.40979e-07
5.42068e-07
5.43156e-07
5.44242e-07
5.45326e-07
5.46409e-07
5.47491e-07
5.4857e-07
5.49648e-07
5.50724e-07
5.53039e-07
9.70428e-07
9.67013e-07
8.09561e-07
8.98645e-07
8.7831e-07
7.17181e-07
7.76739e-07
5.20144e-08
5.06029e-07
5.07522e-07
5.08661e-07
5.098e-07
5.10936e-07
5.1207e-07
5.13202e-07
5.14334e-07
5.15462e-07
5.1659e-07
5.17716e-07
5.18839e-07
5.19962e-07
5.21083e-07
5.22202e-07
5.2332e-07
5.24436e-07
5.2555e-07
5.26663e-07
5.27774e-07
5.28883e-07
5.29991e-07
5.31098e-07
5.32202e-07
5.33305e-07
5.34406e-07
5.35505e-07
5.36603e-07
5.377e-07
5.38794e-07
5.39887e-07
5.40979e-07
5.42068e-07
5.43156e-07
5.44242e-07
5.45326e-07
5.46409e-07
5.47491e-07
5.4857e-07
5.49648e-07
5.50724e-07
5.53039e-07
9.4458e-07
9.68178e-07
8.57103e-07
8.12374e-07
5.06206e-07
6.12629e-07
9.32645e-07
6.61386e-08
5.05804e-07
5.07519e-07
5.08661e-07
5.09799e-07
5.10936e-07
5.1207e-07
5.13202e-07
5.14334e-07
5.15462e-07
5.1659e-07
5.17716e-07
5.18839e-07
5.19962e-07
5.21083e-07
5.22202e-07
5.2332e-07
5.24436e-07
5.2555e-07
5.26663e-07
5.27774e-07
5.28883e-07
5.29991e-07
5.31098e-07
5.32202e-07
5.33305e-07
5.34406e-07
5.35505e-07
5.36603e-07
5.377e-07
5.38794e-07
5.39887e-07
5.40979e-07
5.42068e-07
5.43156e-07
5.44242e-07
5.45326e-07
5.46409e-07
5.47491e-07
5.4857e-07
5.49648e-07
5.50724e-07
5.53039e-07
9.76907e-07
9.72934e-07
8.37014e-07
8.02129e-07
8.38128e-07
6.68807e-07
9.31186e-07
2.96853e-07
1.84672e-07
5.07173e-07
5.08661e-07
5.098e-07
5.10936e-07
5.1207e-07
5.13202e-07
5.14334e-07
5.15462e-07
5.1659e-07
5.17716e-07
5.18839e-07
5.19962e-07
5.21083e-07
5.22202e-07
5.2332e-07
5.24436e-07
5.2555e-07
5.26663e-07
5.27774e-07
5.28883e-07
5.29991e-07
5.31098e-07
5.32201e-07
5.33305e-07
5.34406e-07
5.35505e-07
5.36603e-07
5.377e-07
5.38794e-07
5.39887e-07
5.40979e-07
5.42067e-07
5.43156e-07
5.44242e-07
5.45326e-07
5.46409e-07
5.47491e-07
5.4857e-07
5.49648e-07
5.50724e-07
5.53039e-07
9.6705e-07
9.1913e-07
9.1494e-07
6.65482e-07
6.4791e-07
7.03819e-07
9.31314e-07
4.96716e-07
1.84553e-07
5.07174e-07
5.08662e-07
5.098e-07
5.10936e-07
5.1207e-07
5.13202e-07
5.14334e-07
5.15462e-07
5.1659e-07
5.17716e-07
5.18839e-07
5.19962e-07
5.21083e-07
5.22202e-07
5.2332e-07
5.24436e-07
5.2555e-07
5.26663e-07
5.27774e-07
5.28883e-07
5.29991e-07
5.31098e-07
5.32202e-07
5.33305e-07
5.34406e-07
5.35505e-07
5.36603e-07
5.377e-07
5.38794e-07
5.39887e-07
5.40979e-07
5.42067e-07
5.43156e-07
5.44242e-07
5.45326e-07
5.46409e-07
5.47491e-07
5.4857e-07
5.49648e-07
5.50724e-07
5.53039e-07
9.64702e-07
8.56247e-07
4.2203e-07
7.49945e-07
6.12441e-07
7.40237e-07
9.3077e-07
1.86859e-07
5.05807e-07
5.07523e-07
5.08662e-07
5.098e-07
5.10936e-07
5.1207e-07
5.13203e-07
5.14334e-07
5.15462e-07
5.1659e-07
5.17716e-07
5.18839e-07
5.19962e-07
5.21083e-07
5.22202e-07
5.2332e-07
5.24436e-07
5.2555e-07
5.26663e-07
5.27774e-07
5.28883e-07
5.29991e-07
5.31098e-07
5.32202e-07
5.33305e-07
5.34406e-07
5.35505e-07
5.36603e-07
5.377e-07
5.38794e-07
5.39887e-07
5.40979e-07
5.42068e-07
5.43156e-07
5.44242e-07
5.45326e-07
5.46409e-07
5.47491e-07
5.4857e-07
5.49648e-07
5.50724e-07
5.53039e-07
9.60072e-07
9.22534e-07
3.60161e-07
2.77445e-07
7.57326e-07
7.18088e-07
9.31778e-07
5.61631e-08
5.06036e-07
5.07526e-07
5.08664e-07
5.09801e-07
5.10937e-07
5.1207e-07
5.13203e-07
5.14334e-07
5.15462e-07
5.1659e-07
5.17716e-07
5.18839e-07
5.19962e-07
5.21083e-07
5.22202e-07
5.2332e-07
5.24436e-07
5.2555e-07
5.26663e-07
5.27775e-07
5.28883e-07
5.29991e-07
5.31098e-07
5.32202e-07
5.33305e-07
5.34406e-07
5.35505e-07
5.36603e-07
5.377e-07
5.38794e-07
5.39887e-07
5.40979e-07
5.42068e-07
5.43156e-07
5.44242e-07
5.45326e-07
5.46409e-07
5.47491e-07
5.4857e-07
5.49648e-07
5.50724e-07
5.53039e-07
9.63746e-07
8.84751e-07
4.59175e-07
3.36094e-07
5.38255e-07
5.69546e-07
7.74087e-07
1.83835e-07
5.06041e-07
5.07529e-07
5.08666e-07
5.09802e-07
5.10938e-07
5.12071e-07
5.13203e-07
5.14334e-07
5.15462e-07
5.1659e-07
5.17716e-07
5.18839e-07
5.19962e-07
5.21083e-07
5.22202e-07
5.2332e-07
5.24436e-07
5.2555e-07
5.26663e-07
5.27774e-07
5.28883e-07
5.29991e-07
5.31098e-07
5.32202e-07
5.33305e-07
5.34406e-07
5.35505e-07
5.36603e-07
5.377e-07
5.38794e-07
5.39887e-07
5.40979e-07
5.42068e-07
5.43156e-07
5.44242e-07
5.45326e-07
5.46409e-07
5.47491e-07
5.4857e-07
5.49648e-07
5.50724e-07
5.53039e-07
9.77056e-07
9.09915e-07
6.18638e-07
7.92005e-07
6.49197e-07
6.55487e-07
7.66103e-07
1.8395e-07
5.06042e-07
5.07529e-07
5.08666e-07
5.09803e-07
5.10938e-07
5.12071e-07
5.13203e-07
5.14334e-07
5.15462e-07
5.1659e-07
5.17716e-07
5.18839e-07
5.19962e-07
5.21083e-07
5.22202e-07
5.2332e-07
5.24436e-07
5.2555e-07
5.26663e-07
5.27774e-07
5.28883e-07
5.29991e-07
5.31098e-07
5.32202e-07
5.33305e-07
5.34406e-07
5.35505e-07
5.36603e-07
5.377e-07
5.38794e-07
5.39887e-07
5.40979e-07
5.42068e-07
5.43156e-07
5.44242e-07
5.45326e-07
5.46409e-07
5.47491e-07
5.4857e-07
5.49648e-07
5.50724e-07
5.53039e-07
9.60054e-07
8.24888e-07
6.16431e-07
4.06755e-07
5.10723e-07
6.98098e-07
2.13192e-07
1.84152e-07
3.93454e-07
3.94697e-07
3.9573e-07
3.96762e-07
3.97794e-07
3.98826e-07
3.99856e-07
4.00886e-07
4.01915e-07
4.02943e-07
4.03971e-07
4.04998e-07
4.06024e-07
4.07049e-07
4.08075e-07
4.09098e-07
4.10122e-07
4.11144e-07
4.12166e-07
4.13187e-07
4.14208e-07
4.15227e-07
4.16245e-07
4.17264e-07
4.18281e-07
4.19297e-07
4.20313e-07
4.21328e-07
4.22341e-07
4.23355e-07
4.24367e-07
4.25379e-07
4.2639e-07
4.274e-07
4.28408e-07
4.29417e-07
4.30424e-07
4.31431e-07
4.32437e-07
4.33442e-07
4.34446e-07
4.36222e-07
9.68993e-07
9.59603e-07
9.21124e-07
4.37412e-07
7.20468e-07
3.30994e-07
7.65579e-07
1.83951e-07
3.93451e-07
3.94695e-07
3.95729e-07
3.96762e-07
3.97794e-07
3.98826e-07
3.99856e-07
4.00886e-07
4.01915e-07
4.02943e-07
4.03971e-07
4.04998e-07
4.06024e-07
4.07049e-07
4.08075e-07
4.09098e-07
4.10122e-07
4.11144e-07
4.12166e-07
4.13187e-07
4.14208e-07
4.15227e-07
4.16245e-07
4.17264e-07
4.18281e-07
4.19297e-07
4.20313e-07
4.21328e-07
4.22341e-07
4.23355e-07
4.24367e-07
4.25379e-07
4.2639e-07
4.274e-07
4.28408e-07
4.29417e-07
4.30424e-07
4.31431e-07
4.32437e-07
4.33442e-07
4.34446e-07
4.36222e-07
9.67506e-07
9.69857e-07
9.59199e-07
8.12935e-07
8.18889e-07
7.44908e-07
7.76579e-07
5.20146e-08
3.9345e-07
3.94695e-07
3.95729e-07
3.96762e-07
3.97794e-07
3.98825e-07
3.99856e-07
4.00886e-07
4.01915e-07
4.02943e-07
4.03971e-07
4.04998e-07
4.06024e-07
4.07049e-07
4.08075e-07
4.09098e-07
4.10122e-07
4.11145e-07
4.12166e-07
4.13187e-07
4.14208e-07
4.15227e-07
4.16245e-07
4.17264e-07
4.18281e-07
4.19297e-07
4.20313e-07
4.21328e-07
4.22341e-07
4.23355e-07
4.24367e-07
4.25379e-07
4.2639e-07
4.274e-07
4.28408e-07
4.29417e-07
4.30424e-07
4.31431e-07
4.32437e-07
4.33442e-07
4.34446e-07
4.36222e-07
9.61844e-07
9.61314e-07
9.10842e-07
3.24176e-07
4.26103e-07
7.24347e-07
9.32396e-07
6.60398e-08
3.93315e-07
3.94694e-07
3.95729e-07
3.96762e-07
3.97794e-07
3.98825e-07
3.99856e-07
4.00886e-07
4.01915e-07
4.02943e-07
4.03971e-07
4.04998e-07
4.06024e-07
4.07049e-07
4.08075e-07
4.09098e-07
4.10122e-07
4.11145e-07
4.12166e-07
4.13187e-07
4.14208e-07
4.15227e-07
4.16245e-07
4.17264e-07
4.18281e-07
4.19297e-07
4.20313e-07
4.21328e-07
4.22341e-07
4.23355e-07
4.24367e-07
4.25379e-07
4.2639e-07
4.274e-07
4.28408e-07
4.29417e-07
4.30424e-07
4.31431e-07
4.32437e-07
4.33442e-07
4.34446e-07
4.36222e-07
9.68465e-07
9.62999e-07
8.45236e-07
8.73274e-07
8.84936e-07
6.64014e-07
9.30976e-07
2.964e-07
1.84677e-07
3.94484e-07
3.95729e-07
3.96762e-07
3.97794e-07
3.98825e-07
3.99856e-07
4.00885e-07
4.01915e-07
4.02943e-07
4.03971e-07
4.04998e-07
4.06024e-07
4.07049e-07
4.08075e-07
4.09098e-07
4.10122e-07
4.11145e-07
4.12166e-07
4.13187e-07
4.14208e-07
4.15227e-07
4.16245e-07
4.17264e-07
4.18281e-07
4.19297e-07
4.20313e-07
4.21328e-07
4.22341e-07
4.23355e-07
4.24367e-07
4.25379e-07
4.2639e-07
4.27399e-07
4.28408e-07
4.29417e-07
4.30424e-07
4.31431e-07
4.32437e-07
4.33442e-07
4.34446e-07
4.36222e-07
9.5912e-07
9.1228e-07
7.88955e-07
8.3839e-07
6.26903e-07
6.17992e-07
9.31049e-07
5.01806e-07
1.84558e-07
3.94485e-07
3.95729e-07
3.96762e-07
3.97794e-07
3.98825e-07
3.99856e-07
4.00885e-07
4.01915e-07
4.02943e-07
4.03971e-07
4.04998e-07
4.06024e-07
4.07049e-07
4.08075e-07
4.09098e-07
4.10122e-07
4.11144e-07
4.12166e-07
4.13187e-07
4.14208e-07
4.15227e-07
4.16245e-07
4.17264e-07
4.18281e-07
4.19297e-07
4.20313e-07
4.21328e-07
4.22341e-07
4.23355e-07
4.24367e-07
4.25379e-07
4.2639e-07
4.274e-07
4.28408e-07
4.29417e-07
4.30424e-07
4.31431e-07
4.32437e-07
4.33442e-07
4.34446e-07
4.36222e-07
9.63333e-07
8.88983e-07
7.35538e-07
7.26092e-07
5.30361e-07
7.4281e-07
9.30686e-07
1.86676e-07
3.93316e-07
3.94695e-07
3.95729e-07
3.96762e-07
3.97794e-07
3.98826e-07
3.99856e-07
4.00886e-07
4.01915e-07
4.02943e-07
4.03971e-07
4.04998e-07
4.06024e-07
4.07049e-07
4.08075e-07
4.09098e-07
4.10122e-07
4.11145e-07
4.12166e-07
4.13187e-07
4.14208e-07
4.15227e-07
4.16245e-07
4.17264e-07
4.18281e-07
4.19297e-07
4.20313e-07
4.21328e-07
4.22341e-07
4.23355e-07
4.24367e-07
4.25379e-07
4.2639e-07
4.274e-07
4.28408e-07
4.29417e-07
4.30424e-07
4.31431e-07
4.32437e-07
4.33442e-07
4.34446e-07
4.36222e-07
9.63088e-07
9.13247e-07
8.42377e-07
7.13206e-07
7.55569e-07
7.45472e-07
9.32135e-07
5.6076e-08
3.93453e-07
3.94696e-07
3.9573e-07
3.96762e-07
3.97794e-07
3.98826e-07
3.99856e-07
4.00886e-07
4.01915e-07
4.02943e-07
4.03971e-07
4.04998e-07
4.06024e-07
4.07049e-07
4.08075e-07
4.09098e-07
4.10122e-07
4.11144e-07
4.12166e-07
4.13187e-07
4.14208e-07
4.15227e-07
4.16245e-07
4.17264e-07
4.18281e-07
4.19297e-07
4.20313e-07
4.21328e-07
4.22341e-07
4.23355e-07
4.24367e-07
4.25379e-07
4.2639e-07
4.274e-07
4.28408e-07
4.29417e-07
4.30424e-07
4.31431e-07
4.32437e-07
4.33442e-07
4.34446e-07
4.36222e-07
9.61708e-07
8.98879e-07
6.58566e-07
7.3396e-07
6.55509e-07
3.94445e-07
7.7451e-07
1.83838e-07
3.93455e-07
3.94697e-07
3.95731e-07
3.96763e-07
3.97794e-07
3.98826e-07
3.99856e-07
4.00886e-07
4.01915e-07
4.02943e-07
4.03971e-07
4.04998e-07
4.06024e-07
4.07049e-07
4.08075e-07
4.09098e-07
4.10122e-07
4.11144e-07
4.12166e-07
4.13187e-07
4.14208e-07
4.15227e-07
4.16245e-07
4.17264e-07
4.18281e-07
4.19297e-07
4.20313e-07
4.21328e-07
4.22341e-07
4.23355e-07
4.24367e-07
4.25379e-07
4.2639e-07
4.274e-07
4.28408e-07
4.29417e-07
4.30424e-07
4.31431e-07
4.32437e-07
4.33442e-07
4.34446e-07
4.36222e-07
9.65468e-07
8.02086e-07
7.25754e-07
7.77148e-07
2.48927e-07
7.5404e-07
7.66467e-07
1.83955e-07
3.93455e-07
3.94697e-07
3.95731e-07
3.96763e-07
3.97794e-07
3.98826e-07
3.99856e-07
4.00886e-07
4.01915e-07
4.02943e-07
4.03971e-07
4.04998e-07
4.06024e-07
4.07049e-07
4.08075e-07
4.09098e-07
4.10122e-07
4.11144e-07
4.12166e-07
4.13187e-07
4.14208e-07
4.15227e-07
4.16245e-07
4.17264e-07
4.18281e-07
4.19297e-07
4.20313e-07
4.21328e-07
4.22341e-07
4.23355e-07
4.24367e-07
4.25379e-07
4.2639e-07
4.274e-07
4.28408e-07
4.29417e-07
4.30424e-07
4.31431e-07
4.32437e-07
4.33442e-07
4.34446e-07
4.36222e-07
6.98498e-07
6.71905e-07
6.98366e-07
6.8518e-07
7.73034e-07
7.16872e-07
7.72154e-07
6.99502e-07
6.70371e-07
7.0115e-07
7.28854e-07
7.71208e-07
6.96733e-07
7.76211e-07
7.00249e-07
6.06736e-07
7.00619e-07
6.16179e-07
7.75123e-07
5.79049e-07
7.77007e-07
7.00944e-07
6.84446e-07
6.99042e-07
6.30379e-07
7.75978e-07
7.25087e-07
7.7019e-07
6.97394e-07
5.07729e-07
6.99797e-07
6.79212e-07
7.71487e-07
4.98039e-07
7.75007e-07
6.99842e-07
3.53358e-07
6.99318e-07
7.15669e-07
7.77672e-07
5.97209e-07
7.73384e-07
6.98439e-07
6.56182e-07
7.00045e-07
7.52208e-07
7.6511e-07
6.43289e-07
7.74154e-07
7.00345e-07
5.61815e-07
7.00242e-07
7.25151e-07
7.76728e-07
5.39405e-07
7.75291e-07
7.00276e-07
6.86758e-07
6.99517e-07
6.56537e-07
7.72559e-07
7.34635e-07
7.7166e-07
7.0049e-07
6.82262e-07
6.98832e-07
7.62546e-07
7.73808e-07
6.55215e-07
7.73632e-07
7.7191e-07
6.94451e-07
7.723e-07
7.06584e-07
7.71661e-07
6.8946e-07
7.71776e-07
7.70849e-07
6.58449e-07
7.7609e-07
4.11399e-07
7.72645e-07
5.88225e-07
7.76603e-07
7.75555e-07
5.76746e-07
7.77205e-07
7.48025e-07
7.75448e-07
6.11613e-07
7.77246e-07
7.75111e-07
7.29174e-07
7.68238e-07
6.86706e-07
7.75182e-07
7.29899e-07
7.72077e-07
7.71691e-07
4.98659e-07
7.73129e-07
6.55429e-07
7.71927e-07
3.21415e-07
7.73129e-07
7.76499e-07
5.35543e-07
7.72999e-07
6.40757e-07
7.77082e-07
6.59085e-07
7.76505e-07
7.67917e-07
6.62467e-07
7.75051e-07
7.16927e-07
7.73591e-07
6.75494e-07
7.74934e-07
7.77317e-07
5.43663e-07
7.74941e-07
7.43289e-07
7.76796e-07
5.73153e-07
7.74671e-07
7.70807e-07
7.3689e-07
7.70843e-07
4.16252e-07
7.68167e-07
7.34567e-07
7.73361e-07
7.73522e-07
6.67822e-07
7.72986e-07
7.4839e-07
7.75343e-07
6.65363e-07
7.73245e-07
7.71631e-07
6.8484e-07
7.71456e-07
6.81521e-07
6.98139e-07
6.85774e-07
6.98318e-07
7.7345e-07
6.05767e-07
7.76465e-07
2.38022e-07
6.99568e-07
6.38684e-07
7.01096e-07
7.75255e-07
6.55075e-07
7.76951e-07
6.68071e-07
7.00377e-07
6.6618e-07
7.00543e-07
7.75726e-07
6.8759e-07
7.70588e-07
6.63922e-07
6.99253e-07
5.62778e-07
6.99446e-07
7.71823e-07
4.31757e-07
7.72642e-07
6.78716e-07
6.98909e-07
3.37587e-07
6.9953e-07
7.76735e-07
6.62032e-07
7.75731e-07
5.90223e-07
7.00077e-07
5.96515e-07
6.99338e-07
7.70124e-07
6.98566e-07
7.73906e-07
6.74879e-07
6.97778e-07
6.82358e-07
6.9854e-07
7.76528e-07
5.64106e-07
7.75025e-07
6.82158e-07
7.00324e-07
5.23655e-07
7.00254e-07
7.6834e-07
7.2861e-07
7.74642e-07
4.59355e-07
7.00003e-07
6.93864e-07
6.98354e-07
7.75605e-07
6.58417e-07
7.72767e-07
6.92113e-07
7.00498e-07
6.5184e-07
6.98655e-07
8.95013e-07
7.34049e-07
8.46341e-07
6.96957e-07
7.40333e-07
6.58264e-07
7.77521e-07
7.67523e-07
6.96258e-07
6.73377e-07
7.18896e-07
7.28853e-07
6.95749e-07
7.68246e-07
1.29388e-07
4.12137e-07
3.52762e-08
2.12725e-07
1.83476e-07
5.07988e-07
5.19792e-08
6.47246e-07
5.83967e-07
1.86627e-07
5.3224e-07
6.74931e-07
6.39569e-07
2.56457e-07
7.18138e-07
6.80899e-07
6.56043e-07
7.31278e-07
7.48063e-07
6.83269e-07
6.75208e-07
3.52761e-08
7.015e-07
3.51759e-08
7.65703e-07
5.19787e-08
7.77677e-07
5.20102e-08
7.20817e-07
7.24915e-07
4.28822e-07
8.30414e-07
7.73815e-07
6.92275e-07
4.29909e-07
7.70788e-07
7.00065e-07
5.46746e-07
4.70542e-07
7.68759e-07
6.14716e-07
6.98022e-07
3.62482e-08
6.9904e-07
1.09207e-07
7.76759e-07
5.37007e-08
7.77982e-07
1.55313e-07
2.36583e-07
8.68374e-07
8.85197e-07
3.71156e-07
2.24159e-07
8.13482e-07
8.33477e-07
7.62694e-07
6.21273e-07
3.82127e-07
6.11437e-07
7.25177e-07
4.94092e-07
6.93249e-07
2.97501e-07
9.01956e-07
6.98579e-07
9.32686e-07
3.8044e-07
9.31411e-07
7.73312e-07
6.53795e-07
6.54635e-07
1.29408e-07
9.23079e-07
4.45666e-07
3.01915e-07
1.87485e-07
7.5569e-07
6.96389e-07
6.51446e-07
6.952e-07
7.67621e-07
6.74206e-07
6.87818e-07
6.99928e-07
9.02221e-07
7.01255e-07
9.32253e-07
7.75726e-07
9.31074e-07
7.76382e-07
6.61803e-07
6.5448e-07
1.36375e-07
5.28962e-07
5.74055e-07
5.66406e-07
1.57981e-07
7.65426e-07
6.98179e-07
6.82279e-07
7.06479e-07
7.71262e-07
7.49651e-07
6.96056e-07
7.00706e-07
9.0214e-07
6.99949e-07
9.3154e-07
7.76601e-07
9.31774e-07
7.75207e-07
1.18133e-07
8.12227e-07
8.29174e-07
5.36181e-07
1.61771e-07
8.46713e-07
8.86461e-07
7.6212e-07
6.9671e-07
4.06574e-07
7.50377e-07
7.6905e-07
5.58819e-07
6.94574e-07
6.98093e-07
9.02536e-07
3.48368e-07
9.30823e-07
7.72469e-07
9.32188e-07
4.30584e-07
8.583e-07
5.67741e-07
6.53156e-07
5.49592e-07
9.08398e-07
3.69935e-07
6.1019e-07
7.57598e-07
6.93213e-07
6.9556e-07
7.23696e-07
7.64536e-07
7.09064e-07
6.93941e-07
1.28044e-07
6.99547e-07
3.78059e-08
9.32222e-07
1.80051e-07
7.74831e-07
5.63581e-08
7.81462e-07
7.75099e-07
7.86364e-07
6.86446e-07
6.55453e-07
7.55687e-07
7.93796e-07
6.34076e-07
6.56167e-07
4.45988e-07
6.40628e-07
7.29373e-07
5.84627e-07
5.53383e-07
3.53787e-08
6.9371e-07
3.52102e-08
7.741e-07
5.24435e-08
7.70286e-07
5.19814e-08
8.78965e-07
8.7323e-07
8.94606e-07
7.56775e-07
8.51579e-07
8.95738e-07
8.98444e-07
7.73145e-07
6.94449e-07
6.55488e-07
7.31926e-07
7.65181e-07
6.61545e-07
7.00217e-07
3.52761e-08
1.74671e-07
3.52934e-08
7.66116e-07
5.19793e-08
2.37352e-07
5.20172e-08
5.01906e-07
6.45146e-07
5.14175e-07
4.26505e-07
6.4646e-07
4.10309e-07
6.8713e-07
7.11504e-07
7.62032e-07
7.24107e-07
6.9626e-07
7.21998e-07
7.45983e-07
7.60203e-07
1.83473e-07
5.04135e-07
5.19786e-08
2.17343e-07
1.83473e-07
5.02779e-07
5.19787e-08
6.09835e-07
4.50173e-07
2.45899e-07
5.20954e-07
5.26631e-07
7.99531e-07
3.91877e-07
6.44113e-07
7.65694e-07
5.96321e-07
5.97981e-07
6.42905e-07
7.53263e-07
5.68441e-07
5.19781e-08
7.77456e-07
5.201e-08
7.65682e-07
5.19782e-08
7.77044e-07
5.20098e-08
6.0841e-07
6.42016e-07
3.29745e-07
8.70627e-07
3.28195e-07
2.63181e-07
2.4641e-07
7.45742e-07
7.612e-07
6.71334e-07
7.15907e-07
7.51011e-07
7.4846e-07
7.30053e-07
5.376e-08
7.77988e-07
1.55307e-07
7.76659e-07
5.37587e-08
7.78068e-07
1.55255e-07
2.21637e-07
9.22161e-07
8.80966e-07
4.02813e-07
4.45558e-07
8.5164e-07
8.13608e-07
7.07711e-07
7.55261e-07
5.80496e-07
6.14174e-07
7.1954e-07
7.46936e-07
5.71912e-07
3.80076e-07
9.32019e-07
7.73265e-07
9.32493e-07
3.79657e-07
9.31861e-07
7.73398e-07
7.32273e-07
3.54994e-07
2.23502e-07
9.12747e-07
7.73107e-07
2.67946e-07
2.69531e-07
7.22902e-07
7.52994e-07
6.73024e-07
6.63165e-07
7.23963e-07
7.51381e-07
6.15869e-07
7.75523e-07
9.30869e-07
7.7614e-07
9.31752e-07
7.75364e-07
9.30967e-07
7.76021e-07
6.96741e-07
5.55627e-07
1.65445e-07
5.71231e-07
5.95932e-07
7.72545e-07
1.45401e-07
7.52813e-07
7.66688e-07
7.39754e-07
7.07716e-07
7.5603e-07
7.62884e-07
7.11864e-07
7.76123e-07
9.31513e-07
7.74928e-07
9.30917e-07
7.76033e-07
9.3151e-07
7.75026e-07
1.63123e-07
8.57959e-07
7.69283e-07
5.61877e-07
1.57988e-07
7.75661e-07
8.75228e-07
7.42145e-07
7.44043e-07
6.34119e-07
7.06622e-07
7.44317e-07
7.37538e-07
6.08294e-07
7.7243e-07
9.32013e-07
4.29336e-07
9.30875e-07
7.73037e-07
9.32159e-07
4.29235e-07
8.12851e-07
4.66319e-07
5.34581e-07
6.7459e-07
7.3999e-07
7.74622e-07
2.61283e-07
7.49463e-07
7.55823e-07
5.84092e-07
7.13482e-07
7.51228e-07
7.54447e-07
5.39864e-07
1.80008e-07
7.7485e-07
5.64212e-08
9.3172e-07
1.80086e-07
7.75068e-07
5.64192e-08
6.90962e-07
2.9243e-07
3.87124e-07
5.34558e-07
3.30622e-07
5.92364e-07
4.06576e-07
6.30703e-07
6.9092e-07
4.12292e-07
4.68289e-07
6.63604e-07
6.6005e-07
4.56904e-07
5.24815e-08
7.70211e-07
5.19811e-08
7.74352e-07
5.24815e-08
7.70368e-07
5.19811e-08
6.84736e-07
8.90066e-07
8.49834e-07
2.42706e-07
6.2474e-07
5.36641e-07
8.5487e-07
7.63862e-07
7.55496e-07
6.65596e-07
5.8505e-07
7.6981e-07
7.56345e-07
6.40249e-07
5.19788e-08
2.43511e-07
5.20166e-08
7.66402e-07
5.19788e-08
2.37173e-07
5.20166e-08
7.35129e-07
4.47852e-07
5.52977e-07
6.81208e-07
7.932e-07
6.46975e-07
5.04772e-07
7.14443e-07
7.54776e-07
6.67573e-07
7.13666e-07
7.0034e-07
6.29098e-07
7.58981e-07
1.83475e-07
5.06371e-07
5.19792e-08
1.55154e-07
1.29388e-07
4.06929e-07
3.52762e-08
7.68733e-07
8.42782e-07
8.42542e-07
8.65577e-07
8.64216e-07
8.43709e-07
8.32298e-07
6.8703e-07
7.54434e-07
6.02408e-07
2.87844e-07
6.66278e-07
7.53345e-07
5.8855e-07
5.19787e-08
7.77167e-07
5.201e-08
6.84956e-07
3.52549e-08
7.01487e-07
3.51759e-08
2.55243e-07
3.84501e-07
2.27067e-07
8.75573e-07
6.5063e-07
7.89123e-07
5.56302e-07
7.61385e-07
7.52676e-07
7.01852e-07
7.43593e-07
7.59016e-07
7.62728e-07
7.00197e-07
5.37e-08
7.78e-07
1.55195e-07
7.00449e-07
3.61493e-08
6.98996e-07
1.09138e-07
5.84338e-07
8.83279e-07
8.61503e-07
5.3258e-07
6.57037e-07
8.30493e-07
8.64674e-07
7.24562e-07
7.51508e-07
5.88454e-07
7.12133e-07
6.96153e-07
7.57433e-07
6.00855e-07
3.81139e-07
9.31755e-07
7.73407e-07
9.02977e-07
2.96582e-07
9.02418e-07
6.98564e-07
9.00039e-07
3.02789e-07
2.53537e-07
8.56843e-07
8.70824e-07
2.49911e-07
3.01128e-07
7.1223e-07
7.57118e-07
6.22899e-07
6.80703e-07
6.99953e-07
7.62357e-07
5.97135e-07
7.7561e-07
9.31236e-07
7.76557e-07
9.02417e-07
7.00002e-07
9.02256e-07
7.01284e-07
6.82573e-07
6.18257e-07
1.84476e-07
5.8965e-07
6.3356e-07
6.38716e-07
3.63941e-07
7.61796e-07
7.47301e-07
6.55768e-07
6.3722e-07
7.58876e-07
7.4529e-07
6.213e-07
7.76621e-07
9.31568e-07
7.75309e-07
9.02247e-07
7.01002e-07
9.02235e-07
6.99882e-07
1.75655e-07
6.41329e-07
8.32759e-07
3.96479e-07
6.86888e-07
6.9399e-07
8.67891e-07
7.40147e-07
7.41561e-07
7.2406e-07
7.36356e-07
7.37427e-07
7.50012e-07
7.14094e-07
7.73017e-07
9.32388e-07
4.30946e-07
9.01806e-07
6.98315e-07
9.02468e-07
3.48768e-07
5.49104e-07
5.94071e-07
2.63343e-07
4.96746e-07
6.91366e-07
6.67594e-07
3.61719e-07
7.64486e-07
7.63653e-07
6.27575e-07
7.45479e-07
7.64117e-07
7.6696e-07
6.49733e-07
1.8022e-07
7.74972e-07
5.63568e-08
9.0316e-07
1.27825e-07
6.98429e-07
3.78078e-08
2.64086e-07
4.26206e-07
3.7238e-07
5.97476e-07
1.44976e-07
3.69108e-07
4.49571e-07
6.65523e-07
7.49287e-07
4.19771e-07
4.51123e-07
6.53804e-07
7.60628e-07
4.295e-07
5.24434e-08
7.70248e-07
5.19813e-08
7.01141e-07
3.53101e-08
6.9005e-07
3.52112e-08
5.88725e-07
7.46945e-07
8.89836e-07
1.96413e-07
6.60194e-07
8.69424e-07
8.69155e-07
7.64558e-07
7.63344e-07
7.0494e-07
7.47143e-07
7.66164e-07
7.676e-07
6.75261e-07
5.19793e-08
2.37213e-07
5.20171e-08
6.79812e-07
3.52762e-08
1.7498e-07
3.52935e-08
7.72465e-07
6.99019e-07
6.98806e-07
7.74347e-07
7.74397e-07
6.988e-07
7.71746e-07
7.58399e-07
6.59491e-07
6.89236e-07
7.35377e-07
6.83537e-07
7.51774e-07
6.86476e-07
7.6841e-07
6.98231e-07
6.9381e-07
7.72919e-07
7.7335e-07
7.65047e-07
6.95979e-07
7.49786e-07
7.07443e-07
7.62055e-07
7.26884e-07
7.05387e-07
7.34927e-07
7.63703e-07
7.68696e-07
7.7371e-07
7.6589e-07
7.72845e-07
7.73464e-07
7.66452e-07
7.67727e-07
7.52937e-07
7.45366e-07
6.47778e-07
7.47521e-07
6.62692e-07
7.44114e-07
7.51721e-07
7.66707e-07
7.72349e-07
7.71472e-07
7.58721e-07
7.72591e-07
7.61248e-07
7.66658e-07
7.7371e-07
6.95525e-07
6.99918e-07
7.74362e-07
7.68134e-07
7.75537e-07
6.99853e-07
7.43145e-07
6.64518e-07
6.95111e-07
7.22433e-07
6.73959e-07
7.71581e-07
6.82036e-07
7.6608e-07
7.00004e-07
6.99697e-07
7.77128e-07
7.75541e-07
7.74352e-07
6.95815e-07
6.93891e-07
7.19462e-07
7.67459e-07
6.25985e-07
7.56414e-07
6.50885e-07
6.71005e-07
7.6993e-07
7.72712e-07
7.689e-07
7.74506e-07
7.68773e-07
7.74645e-07
7.65173e-07
7.3884e-07
7.19242e-07
6.10745e-07
7.64605e-07
6.16155e-07
7.70485e-07
7.30128e-07
7.60237e-07
7.76545e-07
7.75362e-07
7.73044e-07
7.74968e-07
7.73184e-07
7.59946e-07
7.72444e-07
7.00058e-07
7.00523e-07
7.75823e-07
7.69615e-07
7.75781e-07
6.98458e-07
7.23732e-07
3.97287e-07
6.9598e-07
6.6254e-07
5.40109e-07
7.65517e-07
6.74319e-07
7.70312e-07
7.00649e-07