/*--------------------------------*- C++ -*----------------------------------*\
| =========                 |                                                 |
| \\      /  F ield         | OpenFOAM: The Open Source CFD Toolbox           |
|  \\    /   O peration     | Version:  5.0                                   |
|   \\  /    A nd           | Web:      www.OpenFOAM.org                      |
|    \\/     M anipulation  |                                                 |
\*---------------------------------------------------------------------------*/
FoamFile
{
    version     2.0;
    format      ascii;
    class       volVectorField;
    location    "4.7";
    object      U;
}
// * * * * * * * * * * * * * * * * * * * * * * * * * * * * * * * * * * * * * //

dimensions      [0 1 -1 0 0 0 0];

internalField   nonuniform List<vector> 
8955
(
(-0.0082005 -0.00370711 0.000100604)
(-0.00223351 0.00524881 -0.000822345)
(0.000123428 0.00139264 0.00118554)
(0.000631607 0.00490461 0.00395782)
(0.00239368 0.00093648 0.0021505)
(0.00635486 -0.000938539 0.000143806)
(0.000872205 -7.06491e-05 -1.01215e-05)
(0.000449773 -3.0775e-05 -4.81999e-09)
(0.000862309 -5.11801e-05 -1.29922e-06)
(0.000810485 -3.23981e-05 -3.46795e-07)
(0.00082798 -1.9678e-05 2.35372e-07)
(0.000828152 -1.22401e-05 5.56065e-08)
(0.000830565 -7.52815e-06 1.51725e-08)
(0.000830623 -4.3266e-06 5.484e-08)
(0.000829738 -2.73648e-06 5.53215e-08)
(0.000828943 -1.81365e-06 4.78427e-09)
(0.000827977 -1.15469e-06 5.30321e-08)
(0.000826833 -5.87333e-07 4.95046e-08)
(0.000824745 -6.83394e-07 8.1547e-08)
(0.00082287 -5.39419e-07 1.93547e-07)
(0.00082204 -5.4715e-07 4.84197e-08)
(0.000820766 -2.52338e-07 6.55161e-08)
(0.000819105 -2.53449e-07 5.19703e-08)
(0.000817512 -1.17505e-07 9.28074e-08)
(0.000815919 1.24565e-07 2.32892e-08)
(0.000814713 3.8636e-07 8.99103e-08)
(0.000813357 2.70458e-07 5.82226e-08)
(0.000811895 1.90253e-08 4.99588e-08)
(0.000810161 -1.16329e-07 1.05729e-08)
(0.000808524 -2.58186e-07 3.99644e-08)
(0.000807009 -4.74558e-07 8.17591e-08)
(0.000805203 -4.79735e-07 7.19907e-08)
(0.000803713 -3.77216e-07 -5.30399e-09)
(0.000802707 -6.86755e-08 1.23835e-07)
(0.000801454 8.28565e-08 4.81306e-08)
(0.000799694 1.74737e-08 8.90376e-08)
(0.000797973 -5.67444e-08 3.56403e-08)
(0.000796177 1.94382e-07 3.97542e-08)
(0.00079532 5.85402e-07 7.6453e-08)
(0.000794299 2.14541e-07 5.72652e-08)
(0.000792437 6.35286e-08 3.23647e-08)
(0.000790931 6.63075e-08 6.72804e-08)
(0.000789848 -2.00027e-07 8.88395e-08)
(0.000788111 -3.69215e-07 5.06009e-09)
(0.000786358 -1.67368e-07 4.54114e-08)
(0.000784994 -4.51988e-08 2.8746e-08)
(0.000783596 -5.44408e-08 4.08066e-08)
(0.000782397 -1.32615e-07 1.95941e-07)
(0.000780711 -3.0353e-07 3.72168e-08)
(0.000779078 -3.14491e-07 1.38767e-08)
(-0.000726233 0.00151992 0.000763175)
(-0.00161942 -0.00612672 -0.000793005)
(0.00796945 -0.00221085 0.00023037)
(-0.00510215 -0.00974549 -0.00940274)
(0.00971189 -8.12047e-05 0.00159413)
(-0.0195722 -0.00316699 0.00078364)
(0.00217298 0.000725366 0.000102936)
(0.000485856 -6.70301e-05 -1.24588e-06)
(0.000910963 -5.5075e-05 -1.44599e-06)
(0.00083418 -3.24649e-05 -5.85057e-07)
(0.000843405 -2.1648e-05 1.38406e-07)
(0.000837698 -1.34106e-05 1.63601e-08)
(0.000835867 -8.4433e-06 4.91548e-08)
(0.000833689 -5.60396e-06 4.38232e-08)
(0.000831823 -3.54464e-06 5.033e-08)
(0.000830261 -2.34491e-06 6.56286e-08)
(0.000828826 -1.57158e-06 5.09894e-08)
(0.000826827 -1.33001e-06 7.83121e-08)
(0.000825168 -1.00584e-06 9.6561e-09)
(0.00082386 -4.35836e-07 2.92889e-08)
(0.000822203 -9.09393e-08 9.21791e-08)
(0.000820626 -9.76484e-08 4.92618e-08)
(0.000819159 1.35893e-07 1.66437e-07)
(0.00081796 1.7123e-07 1.08268e-07)
(0.000816601 1.47935e-07 7.05043e-08)
(0.000814585 1.62483e-07 4.97024e-09)
(0.000812756 -3.01742e-08 2.63217e-08)
(0.000811358 -1.39085e-07 5.14094e-08)
(0.000809879 -4.95282e-07 1.09667e-07)
(0.000808308 -3.3727e-07 6.53554e-08)
(0.000806909 -2.9253e-07 -1.46818e-07)
(0.000805537 -1.42591e-07 1.81609e-08)
(0.000804415 4.20364e-07 1.17232e-07)
(0.000803129 5.2541e-07 6.28142e-08)
(0.000801192 1.24698e-07 4.70096e-08)
(0.000799645 1.478e-07 3.72482e-08)
(0.00079843 2.16057e-07 7.78567e-08)
(0.000797206 4.01882e-07 1.01523e-08)
(0.000795209 7.27191e-07 2.00332e-08)
(0.000793255 4.0385e-07 4.78774e-07)
(0.000792041 1.23345e-07 6.26758e-08)
(0.000790666 -5.43297e-08 6.94124e-08)
(0.000789064 -3.89605e-07 2.51795e-08)
(0.000788031 -5.2047e-07 1.02799e-07)
(0.000786888 -1.63235e-07 4.9327e-08)
(0.000785201 -1.43841e-07 6.16742e-08)
(0.000783696 5.69267e-08 9.19839e-08)
(0.00078224 -4.65516e-08 5.17631e-08)
(0.000780701 -2.17113e-07 -2.09295e-08)
(0.000779512 -1.89216e-07 1.09727e-07)
(-0.000341926 -0.00751696 0.000320247)
(-0.00313268 0.00220129 -0.000289611)
(0.00319095 0.00283008 -0.000384896)
(0.000499245 -0.010994 9.20002e-05)
(-0.00518036 0.00736309 0.000135453)
(-0.000671055 0.00192168 0.000332677)
(9.3074e-05 -0.000370767 6.04748e-06)
(0.00026393 -2.7723e-05 1.00182e-06)
(0.000905664 -5.43435e-05 -2.62554e-06)
(0.00085258 -2.56219e-05 -1.54065e-07)
(0.000851988 -1.77455e-05 1.21938e-07)
(0.00084478 -1.05495e-05 5.16778e-08)
(0.000840399 -6.82083e-06 5.11839e-08)
(0.000836794 -4.30259e-06 5.14748e-08)
(0.000833842 -2.70948e-06 5.19018e-08)
(0.00083143 -1.69251e-06 5.33427e-08)
(0.000829259 -1.20894e-06 5.54299e-08)
(0.00082755 -9.67104e-07 3.7679e-08)
(0.000825869 -6.26089e-07 1.49729e-07)
(0.000824017 -3.58708e-07 4.3498e-08)
(0.000822463 -2.14531e-07 3.17575e-08)
(0.000821048 -5.55732e-08 4.89501e-08)
(0.000819439 9.21714e-08 2.87997e-08)
(0.000817524 9.74423e-08 -8.21045e-08)
(0.000815905 -5.00378e-08 4.85091e-08)
(0.000814488 -1.87932e-07 3.12694e-08)
(0.000812979 -7.34412e-08 6.29717e-08)
(0.000811316 2.61605e-09 5.71242e-08)
(0.000809916 6.15938e-08 4.09154e-08)
(0.000808781 4.7652e-07 2.63546e-08)
(0.000807255 5.34201e-07 1.87172e-07)
(0.000806095 5.72756e-07 5.84763e-08)
(0.000804546 4.74007e-07 5.08298e-09)
(0.000802334 1.80469e-07 4.26927e-09)
(0.000800979 6.22361e-09 8.86486e-08)
(0.000799806 1.36203e-07 5.47353e-08)
(0.000798288 8.1258e-08 7.22065e-08)
(0.000796812 -1.97775e-08 5.2062e-08)
(0.000795318 -2.48458e-07 2.52016e-08)
(0.000793541 -1.60696e-07 9.0204e-08)
(0.000791863 2.07788e-08 -9.84862e-08)
(0.000790291 9.03066e-08 5.6063e-08)
(0.000789268 3.97303e-07 9.94073e-08)
(0.000788398 4.57952e-07 9.44913e-08)
(0.000786832 2.1148e-07 5.39976e-08)
(0.000785271 1.69841e-07 1.25383e-07)
(0.000783719 2.02473e-07 8.42355e-08)
(0.000782056 3.42435e-07 7.91729e-08)
(0.000780539 1.01858e-07 6.13667e-08)
(0.000779583 8.65969e-08 1.16496e-07)
(0.00723101 -0.0034318 -0.000604022)
(0.00116891 0.000529851 0.000229238)
(0.00697022 0.0067201 -1.22921e-05)
(-0.00667594 0.000232905 0.000129562)
(0.00519683 0.000353096 0.000623237)
(0.0103594 0.00257641 -2.23454e-05)
(0.00141763 -0.000656177 -1.47902e-05)
(0.000493813 -0.00021463 5.07147e-05)
(0.000940914 -4.89322e-05 -2.76134e-06)
(0.000880062 4.45312e-06 -3.06643e-07)
(0.000862424 -6.58917e-06 -3.00882e-08)
(0.000851469 -2.71847e-06 -1.7455e-09)
(0.000843746 -2.36421e-06 3.41256e-08)
(0.000838872 -1.37916e-06 4.52016e-08)
(0.000835113 -7.13616e-07 4.42572e-08)
(0.000832154 -3.86284e-07 4.68436e-08)
(0.000829745 -2.85979e-07 4.83128e-08)
(0.000827565 -1.04713e-07 8.79575e-08)
(0.000825934 -2.22009e-07 4.43233e-08)
(0.000824379 -2.93599e-07 3.43626e-08)
(0.000822584 -1.16132e-07 6.50459e-08)
(0.000821011 -1.7139e-07 5.24673e-08)
(0.000819349 -2.58498e-07 3.98087e-08)
(0.000817782 -1.52939e-07 6.17217e-08)
(0.000816244 4.23322e-08 2.76485e-08)
(0.000814557 1.66399e-07 3.22287e-08)
(0.000812994 2.99512e-07 6.0565e-08)
(0.000811526 4.47391e-07 5.95153e-08)
(0.000810469 7.40365e-07 -7.13396e-09)
(0.000808894 5.13319e-07 3.96934e-08)
(0.000807023 3.76669e-07 7.72419e-08)
(0.000805456 5.44134e-07 -2.56999e-08)
(0.00080392 3.94354e-08 4.43001e-08)
(0.000802542 -1.36804e-08 5.33161e-08)
(0.000801136 1.96373e-07 7.96408e-08)
(0.000799738 7.58444e-08 4.21321e-08)
(0.000798235 1.42585e-08 3.13341e-08)
(0.000796794 -1.23536e-07 4.69041e-08)
(0.000795033 -3.25245e-07 1.57567e-08)
(0.000793592 -3.68997e-07 -1.09128e-08)
(0.000792354 -9.99317e-08 5.48779e-08)
(0.000791135 2.32796e-07 2.09113e-07)
(0.000789521 5.8054e-07 1.63746e-07)
(0.000787795 3.56425e-07 1.95899e-08)
(0.000786524 1.11224e-07 5.12467e-08)
(0.000785187 6.9581e-08 4.54589e-08)
(0.000783909 1.32558e-07 6.51509e-08)
(0.000782112 3.55591e-07 4.48971e-08)
(0.000780378 2.36537e-07 5.11122e-08)
(0.000779277 2.4994e-07 1.73006e-07)
(-1.7682e-05 0.00558986 -0.000245222)
(0.0038403 -0.00346934 8.55939e-05)
(-3.33696e-05 0.0016647 0.000155226)
(0.000495744 -0.0012602 8.9079e-05)
(0.0138503 -0.00554005 0.000262036)
(-0.00219316 -0.000223366 9.60856e-06)
(0.000661349 -0.000393921 -5.48316e-06)
(0.00147615 0.00010011 -2.53794e-06)
(0.000514615 -2.19145e-06 -1.37472e-06)
(0.000925935 2.48497e-05 -1.3848e-06)
(0.000843137 7.2506e-06 -5.28524e-07)
(0.000850115 5.25273e-06 1.76897e-07)
(0.000842105 3.19068e-06 8.74506e-08)
(0.000838879 1.81987e-06 5.80378e-08)
(0.000835096 9.01804e-07 -8.0724e-09)
(0.000831972 5.08196e-07 1.5274e-08)
(0.000829615 3.90472e-07 5.02942e-08)
(0.000827633 2.59508e-07 4.77772e-08)
(0.000825635 2.94195e-07 4.77258e-08)
(0.000824152 2.51194e-07 6.10801e-08)
(0.000822618 1.5352e-07 6.46897e-08)
(0.000820873 2.20456e-07 1.76642e-07)
(0.000819465 8.49313e-08 2.74967e-07)
(0.000817902 1.05712e-07 1.10208e-07)
(0.000816305 5.98815e-08 7.57998e-08)
(0.000814808 5.49917e-08 6.62794e-08)
(0.000813327 2.2079e-07 6.82165e-08)
(0.000811861 3.39282e-07 3.65015e-08)
(0.000809992 4.71141e-07 3.03628e-08)
(0.000808319 2.20051e-07 2.17316e-08)
(0.000807287 1.41336e-07 5.7943e-08)
(0.000805668 -1.82621e-07 5.57749e-08)
(0.000803845 1.03887e-07 3.27473e-08)
(0.000802528 7.08035e-08 5.11586e-08)
(0.00080109 1.3302e-07 3.66832e-08)
(0.000799578 -2.10566e-08 4.98447e-08)
(0.000798039 -1.18662e-07 6.67752e-08)
(0.000796389 -1.47189e-07 6.33408e-08)
(0.000795013 -1.58217e-07 4.71936e-08)
(0.000793825 -1.13558e-07 -1.81674e-07)
(0.000792615 2.44111e-08 5.03075e-08)
(0.000791139 4.02448e-08 7.88815e-08)
(0.000789419 -1.38287e-07 5.59422e-08)
(0.000787807 -4.74951e-08 9.51153e-08)
(0.000786471 -1.28258e-07 5.46186e-08)
(0.000785297 -2.13659e-07 5.14131e-08)
(0.000784075 -4.64487e-07 6.59991e-09)
(0.000782184 -8.73376e-07 4.32745e-08)
(0.0007804 -3.12127e-07 5.8885e-08)
(0.000778978 5.43269e-08 5.6013e-08)
(-0.00246513 0.00487159 0.000487185)
(-0.00870414 -0.00248706 0.000346299)
(-0.0143959 -0.000409897 -0.000387831)
(0.00299542 0.00880102 -0.000390984)
(-0.00318861 0.0119882 -3.53157e-05)
(0.00275658 -0.0031187 -0.000153645)
(0.00133464 -0.000577288 -8.57975e-06)
(0.00170889 -0.000142096 9.58253e-05)
(0.000523921 1.68335e-05 5.66048e-07)
(0.000915493 8.50412e-06 -1.27657e-06)
(0.000837748 1.52156e-05 -4.93476e-07)
(0.00084637 9.09951e-06 1.61975e-07)
(0.00083944 6.62329e-06 4.88432e-08)
(0.000836004 4.12071e-06 5.53545e-08)
(0.000833471 2.41025e-06 1.52988e-07)
(0.000831514 1.46082e-06 1.14086e-07)
(0.000829434 9.50406e-07 5.09543e-08)
(0.000827444 6.11137e-07 4.84864e-08)
(0.000825923 3.77211e-07 3.63276e-08)
(0.000824202 5.53116e-07 7.74249e-08)
(0.000822544 3.96554e-07 -8.79142e-08)
(0.000820924 3.85789e-07 7.80265e-08)
(0.000819206 3.67552e-07 6.71428e-08)
(0.00081775 2.16199e-07 6.81864e-08)
(0.00081618 1.84923e-07 6.74717e-08)
(0.000814757 1.09579e-07 5.34338e-08)
(0.000813348 -1.36113e-08 5.14218e-08)
(0.000811836 -1.13013e-07 1.02827e-08)
(0.000810317 1.4058e-07 2.30042e-08)
(0.000808479 -1.26485e-07 -6.71341e-08)
(0.000806518 -2.20833e-07 1.86555e-08)
(0.000805408 -3.43352e-07 -2.95141e-08)
(0.000804237 -2.47967e-07 1.65265e-08)
(0.000802577 -1.41076e-07 5.41267e-08)
(0.00080102 -1.98601e-07 5.74661e-08)
(0.000799423 -7.93775e-08 4.39581e-08)
(0.000798078 -8.89457e-08 2.65406e-08)
(0.000796746 1.1388e-08 1.09123e-07)
(0.000795077 1.82435e-07 7.34665e-08)
(0.000793821 2.04665e-07 6.85756e-08)
(0.000792547 1.56444e-07 5.51032e-08)
(0.000790931 -2.63957e-08 5.82444e-08)
(0.000789411 -1.23625e-07 3.18858e-08)
(0.000787808 -5.94448e-08 3.71209e-08)
(0.000786318 -9.21341e-08 3.84493e-08)
(0.000784769 -2.05711e-07 4.54489e-08)
(0.000783089 -5.24899e-07 -6.25982e-08)
(0.000782307 -7.60595e-07 7.30941e-08)
(0.000781539 -4.99483e-07 9.11736e-08)
(0.000779599 -3.3325e-07 1.31658e-07)
(-0.000794093 0.00259732 -0.000189613)
(0.00908885 -0.00127785 0.000494561)
(-0.0141011 0.0813845 0.00511168)
(0.0142857 -0.0152839 -0.000225393)
(-0.00174384 0.000332251 -0.00030726)
(-0.0142288 -0.00219975 -0.000124828)
(-0.000644574 -0.000280528 7.40244e-06)
(0.00122924 2.48555e-05 7.33454e-06)
(0.000898102 9.30686e-05 -2.80656e-06)
(0.000854662 2.40145e-05 -2.40682e-07)
(0.000843861 2.35755e-05 1.11214e-08)
(0.000839308 1.33971e-05 3.65573e-08)
(0.000835838 8.49274e-06 3.47962e-08)
(0.000833583 5.40837e-06 4.73964e-08)
(0.000831754 3.59891e-06 5.35377e-08)
(0.000830136 2.31175e-06 5.48869e-08)
(0.000828546 1.3809e-06 5.30429e-08)
(0.000826912 9.18334e-07 6.14521e-08)
(0.000825559 5.81809e-07 5.09267e-08)
(0.000824173 4.00662e-07 6.55583e-08)
(0.000822406 3.77626e-07 7.07115e-08)
(0.000820834 1.90343e-07 4.564e-08)
(0.000819251 2.14817e-07 2.16446e-08)
(0.000817672 1.26321e-07 4.75721e-08)
(0.000816171 1.33531e-07 5.36936e-09)
(0.00081456 9.67351e-08 4.40462e-08)
(0.00081305 -9.96017e-08 7.87997e-08)
(0.000812055 -2.51902e-07 4.36537e-08)
(0.000809976 -9.34844e-07 -9.87901e-08)
(0.000807869 -8.25873e-07 7.88912e-08)
(0.000807019 -4.86397e-07 -9.6355e-08)
(0.000805638 -3.77339e-08 1.34533e-07)
(0.000804101 -1.30582e-08 4.13731e-08)
(0.000802593 -8.22839e-08 7.77835e-08)
(0.000801169 -1.0218e-07 1.65425e-07)
(0.000799716 1.90513e-08 1.56647e-07)
(0.000798153 6.92526e-08 4.54519e-08)
(0.000796728 1.16686e-07 7.00784e-08)
(0.000795254 9.4161e-08 3.68612e-08)
(0.000793791 3.90743e-07 1.6493e-08)
(0.000792326 1.15712e-07 5.23658e-08)
(0.000790788 1.22523e-07 3.077e-08)
(0.000789378 -1.06636e-08 6.74542e-08)
(0.000787847 -7.99809e-08 4.5615e-08)
(0.00078629 -1.37858e-08 1.49895e-08)
(0.000784758 1.55409e-08 5.10735e-08)
(0.000783386 -2.09429e-09 1.12787e-07)
(0.000782222 1.92314e-07 3.93653e-08)
(0.000780944 -2.40825e-07 4.98607e-08)
(0.000780017 -3.21835e-07 5.78367e-08)
(0.00105316 0.00433682 0.000370599)
(-0.00897182 0.00604447 0.000405531)
(0.0139117 0.00198756 0.000111622)
(-0.0270222 -0.00432896 -0.00212221)
(-0.00237511 -0.0247076 0.00204658)
(0.0113866 0.00572087 0.000209402)
(0.00274036 0.000617352 0.00013207)
(0.000499812 0.00021402 4.47736e-05)
(0.000834886 7.56755e-05 -1.72566e-06)
(0.000808585 3.5862e-05 -1.79155e-07)
(0.000824275 2.21439e-05 1.307e-07)
(0.000827396 1.26206e-05 5.79499e-08)
(0.000829381 7.6029e-06 6.04266e-08)
(0.00082984 4.59739e-06 5.31388e-08)
(0.00082957 2.91481e-06 5.09911e-08)
(0.000828722 1.92661e-06 5.17739e-08)
(0.00082768 1.32121e-06 1.27404e-07)
(0.000826437 9.33686e-07 8.1004e-08)
(0.000825271 9.58731e-07 1.12753e-07)
(0.000823943 4.60831e-07 4.58267e-08)
(0.000822279 2.38503e-07 4.62908e-08)
(0.000820719 1.33851e-07 5.10504e-08)
(0.000819125 -1.05175e-07 3.9504e-08)
(0.000817648 -7.89837e-08 4.96052e-08)
(0.000816143 -2.63136e-07 5.80476e-08)
(0.000814466 -2.30887e-07 -1.21055e-07)
(0.000812913 -4.05012e-08 3.61397e-08)
(0.000810796 -2.24806e-07 4.25137e-08)
(0.000809605 -5.4178e-07 1.85009e-07)
(0.000809046 1.8857e-08 6.26107e-09)
(0.000807508 2.06748e-07 1.2664e-07)
(0.000806002 6.74468e-08 5.97642e-08)
(0.000804182 5.42428e-08 2.73573e-08)
(0.000802467 6.96872e-08 4.80045e-08)
(0.000801148 8.80948e-08 4.44352e-08)
(0.000799638 -8.3802e-08 3.40308e-08)
(0.0007982 -1.63987e-07 3.60645e-08)
(0.000796777 -1.34419e-07 4.17596e-08)
(0.000795418 7.02868e-09 4.40399e-08)
(0.000793846 1.50437e-08 9.09683e-08)
(0.00079221 -1.9906e-08 1.5491e-08)
(0.000790772 8.22414e-08 3.95118e-08)
(0.000789158 -1.47725e-08 4.57183e-08)
(0.000787805 -1.14837e-08 5.62478e-08)
(0.000786438 2.0489e-08 7.18326e-08)
(0.000784785 1.03172e-07 4.85972e-08)
(0.000783311 4.64453e-07 4.47891e-08)
(0.00078201 3.5593e-07 5.39769e-08)
(0.000780905 2.66611e-07 7.0336e-09)
(0.000780301 -2.73456e-08 6.2401e-08)
(-0.00376136 -0.00109359 0.000621127)
(-0.00429539 0.0030475 0.000417145)
(-0.0135176 -0.00214904 0.00133002)
(0.0155372 0.0137421 -0.00358301)
(-0.00866031 0.00852454 0.000992579)
(0.00832933 0.00828225 0.00118636)
(-0.000235147 0.000117213 -9.48001e-06)
(0.000367841 2.01891e-05 5.52847e-07)
(0.000810945 1.77493e-05 -1.50154e-06)
(0.000787427 9.04308e-06 -3.86282e-07)
(0.000814589 6.59796e-06 1.50287e-07)
(0.000820999 4.13986e-06 4.08543e-08)
(0.000825732 2.66559e-06 5.8745e-08)
(0.000827676 1.40097e-06 5.7761e-08)
(0.000828386 9.45248e-07 5.65217e-08)
(0.000828125 6.86223e-07 1.05281e-07)
(0.000827293 5.92264e-07 9.22119e-08)
(0.00082645 3.76596e-07 6.09879e-08)
(0.000824962 4.33479e-07 2.89124e-08)
(0.000823269 2.46272e-07 6.8378e-08)
(0.000821995 2.30535e-07 5.0208e-08)
(0.000820405 -1.02888e-07 4.36304e-08)
(0.000818986 -1.38471e-07 3.95747e-08)
(0.000817477 -2.1197e-07 5.43597e-08)
(0.000815983 -2.67939e-07 4.05946e-08)
(0.00081484 -3.50155e-07 3.59067e-08)
(0.000813059 -3.18205e-07 6.45068e-08)
(0.000811431 -1.09022e-07 5.2118e-08)
(0.000810283 5.18438e-07 4.26371e-08)
(0.000808806 3.87489e-07 8.38092e-08)
(0.000807079 2.85417e-07 -3.85702e-08)
(0.000805446 1.27334e-07 5.35379e-08)
(0.000804103 -1.8762e-07 1.12255e-08)
(0.000802634 -1.00313e-07 3.07916e-09)
(0.000800977 -1.19921e-07 3.07396e-08)
(0.000799401 -1.51671e-07 8.95138e-08)
(0.000798091 2.48961e-08 9.927e-08)
(0.000796943 -1.44101e-07 5.50805e-08)
(0.000795441 -2.72889e-07 9.82267e-08)
(0.000793757 -3.3103e-07 4.11509e-08)
(0.00079241 -2.2443e-07 5.92512e-08)
(0.000790796 -3.19382e-07 -1.92019e-08)
(0.000789262 -4.83247e-08 4.62668e-08)
(0.000787892 3.87399e-08 3.96487e-08)
(0.000786433 9.79316e-08 5.7836e-08)
(0.000785312 7.34754e-08 4.99546e-08)
(0.000783699 3.18548e-07 6.84246e-08)
(0.000781971 4.71243e-07 4.51386e-08)
(0.000780465 7.54624e-07 -6.61927e-08)
(0.000779715 4.95402e-07 9.15285e-08)
(0.00601354 -0.00534988 -0.000472375)
(0.00710078 0.000442304 0.000500951)
(-0.00423587 0.00155242 0.000504046)
(0.00109518 0.012837 -2.98642e-05)
(0.00224137 0.0071226 -0.000857527)
(0.00633567 -0.00720486 -6.94422e-05)
(0.0020525 -0.000921509 7.12722e-05)
(0.000430737 -3.6753e-05 5.31235e-07)
(0.000833996 -2.73475e-05 -1.46808e-06)
(0.000794531 -1.62714e-05 -3.10107e-07)
(0.000818048 -9.12232e-06 2.06001e-07)
(0.000822416 -5.59102e-06 2.02097e-07)
(0.000825918 -3.41866e-06 6.98548e-08)
(0.000827665 -1.73498e-06 -1.92495e-08)
(0.000828662 -1.0668e-06 4.03843e-08)
(0.000828271 -6.5624e-07 7.05059e-08)
(0.000827286 -4.14061e-07 5.19935e-08)
(0.000826234 -1.10102e-07 1.92477e-07)
(0.000825104 -1.08088e-07 7.21554e-08)
(0.000823687 -2.84511e-07 7.15133e-08)
(0.000821842 -4.27985e-07 4.157e-08)
(0.000820258 -2.50602e-07 7.75249e-08)
(0.00081899 -1.39772e-07 5.73648e-08)
(0.000817488 -1.55507e-07 4.82138e-08)
(0.000815974 -1.12055e-07 6.34288e-08)
(0.000814406 -2.07575e-07 3.08693e-08)
(0.000813218 -2.15225e-07 1.97841e-07)
(0.000811842 2.95129e-08 4.91922e-08)
(0.000810224 1.56117e-07 2.54511e-08)
(0.000808752 -6.84207e-08 1.25464e-07)
(0.000807181 -7.00539e-08 1.18941e-07)
(0.000805411 -1.25638e-07 5.02756e-08)
(0.000803898 -2.66075e-07 7.46628e-08)
(0.000802553 -4.40341e-07 2.62543e-08)
(0.000801085 -2.10564e-07 8.20344e-08)
(0.00079982 -6.0465e-08 2.76896e-08)
(0.00079821 2.26167e-08 8.94935e-09)
(0.000796406 -1.55316e-07 5.65438e-08)
(0.000795187 -5.91409e-07 5.59485e-08)
(0.00079391 -2.54562e-07 6.05346e-08)
(0.000792228 -1.59952e-07 4.84099e-08)
(0.000790994 -2.34312e-07 1.05735e-07)
(0.000789607 -5.25377e-08 1.00531e-07)
(0.000787987 2.34974e-07 3.05504e-08)
(0.00078648 1.23657e-07 5.36282e-08)
(0.000785058 1.768e-07 -1.77726e-08)
(0.000783803 -1.29038e-07 3.0871e-08)
(0.000782549 9.56258e-08 3.6813e-08)
(0.00078092 2.13448e-07 -3.20242e-08)
(0.000778742 2.99872e-07 6.69513e-08)
(0.00425331 0.00332073 0.000118004)
(-0.0244748 0.0110891 -0.00526598)
(0.0227934 0.0233364 0.00411051)
(-0.0271425 -0.0458533 -0.0517387)
(0.00178157 -0.0268527 -0.0486808)
(-0.0266961 -0.000759594 0.00149431)
(0.000478477 -0.000395374 -5.07887e-05)
(0.00133877 -9.82364e-05 -5.36653e-07)
(0.00143666 -8.49464e-05 3.37634e-07)
(0.00135037 -5.36208e-05 3.46443e-07)
(0.00137957 -3.25025e-05 3.8877e-07)
(0.00138004 -2.02052e-05 2.76919e-07)
(0.00138414 -1.2399e-05 2.63801e-07)
(0.00138431 -7.12695e-06 3.41398e-07)
(0.00138284 -4.49662e-06 3.46081e-07)
(0.00138153 -2.93663e-06 2.78202e-07)
(0.00137989 -1.88111e-06 3.46622e-07)
(0.00137793 -9.67516e-07 3.59718e-07)
(0.00137458 -1.06448e-06 4.39694e-07)
(0.00137157 -8.65101e-07 4.48629e-07)
(0.00137007 -7.86974e-07 3.46577e-07)
(0.00136782 -2.93131e-07 3.91347e-07)
(0.00136506 -2.99504e-07 3.27758e-07)
(0.00136245 -1.59254e-07 3.51572e-07)
(0.0013598 2.93202e-07 2.65712e-07)
(0.00135768 7.29189e-07 3.28036e-07)
(0.00135543 5.05816e-07 2.92902e-07)
(0.00135307 4.9022e-08 3.40592e-07)
(0.00135012 -1.77768e-07 2.74502e-07)
(0.00134734 -5.01498e-07 3.10141e-07)
(0.00134483 -9.09098e-07 3.67623e-07)
(0.00134179 -8.4473e-07 2.76256e-07)
(0.00133935 -6.27944e-07 2.44111e-07)
(0.00133772 -9.39979e-08 4.84173e-07)
(0.0013356 1.82054e-07 3.27259e-07)
(0.00133264 1.00246e-07 3.71033e-07)
(0.00132973 -4.52961e-08 3.18155e-07)
(0.00132675 3.39876e-07 3.16753e-07)
(0.00132522 9.77895e-07 2.91743e-07)
(0.00132352 4.62546e-07 3.20375e-07)
(0.00132051 1.19632e-07 2.93238e-07)
(0.00131795 8.56574e-08 2.9334e-07)
(0.00131618 -4.07696e-07 3.74606e-07)
(0.00131331 -5.77223e-07 2.21279e-07)
(0.00131041 -3.0985e-07 3.30771e-07)
(0.00130813 -1.43517e-07 2.36899e-07)
(0.00130576 -1.2214e-07 2.96526e-07)
(0.00130376 -2.92473e-07 5.00927e-07)
(0.00130089 -5.22237e-07 3.04242e-07)
(0.0012981 -5.11135e-07 2.42355e-07)
(0.0100191 -0.00377713 0.000475392)
(0.0171092 0.0050327 -0.00128967)
(0.00984489 -0.000805561 0.000776935)
(0.0170641 -0.0235506 -0.0655025)
(0.00815534 -0.00838768 0.00794765)
(-0.00233249 -0.00427571 -0.00444005)
(-0.000115731 0.00211479 -4.16077e-05)
(0.00145874 -0.000203917 2.07496e-07)
(0.00151857 -9.22211e-05 4.43056e-07)
(0.00139008 -5.4234e-05 3.47751e-07)
(0.00140534 -3.60622e-05 3.50634e-07)
(0.00139598 -2.22787e-05 3.36414e-07)
(0.00139298 -1.39795e-05 3.48607e-07)
(0.00138938 -9.24449e-06 3.4668e-07)
(0.00138633 -5.83431e-06 3.46366e-07)
(0.0013837 -3.82559e-06 2.92378e-07)
(0.00138128 -2.55749e-06 3.48596e-07)
(0.00137807 -2.11677e-06 3.88608e-07)
(0.00137527 -1.53044e-06 4.23375e-07)
(0.00137301 -6.52852e-07 3.14942e-07)
(0.0013703 -9.9163e-08 3.80719e-07)
(0.00136764 -1.1235e-07 3.72753e-07)
(0.00136509 3.31542e-07 4.31492e-07)
(0.00136315 3.9858e-07 4.74236e-07)
(0.00136093 3.22743e-07 3.27758e-07)
(0.00135753 3.06433e-07 2.42237e-07)
(0.00135446 4.62762e-08 3.0635e-07)
(0.0013521 -2.12007e-07 3.37731e-07)
(0.00134959 -8.81213e-07 3.7704e-07)
(0.00134691 -5.97937e-07 2.17853e-07)
(0.00134469 -5.18706e-07 3.26041e-08)
(0.00134248 -2.76652e-07 2.78968e-07)
(0.00134051 7.39209e-07 4.66646e-07)
(0.00133835 9.12203e-07 3.68401e-07)
(0.00133518 2.44132e-07 3.46339e-07)
(0.00133255 2.37215e-07 3.09454e-07)
(0.00133046 3.56685e-07 3.55914e-07)
(0.00132838 6.62239e-07 1.22588e-07)
(0.00132517 1.19018e-06 3.74571e-07)
(0.00132189 7.27928e-07 8.54985e-07)
(0.00131973 2.04205e-07 3.45965e-07)
(0.00131745 -9.86981e-08 3.7571e-07)
(0.00131488 -6.17819e-07 2.56835e-07)
(0.00131318 -8.72992e-07 6.67026e-07)
(0.00131118 -3.0233e-07 3.58935e-07)
(0.00130844 -2.99472e-07 3.15228e-07)
(0.00130595 7.25371e-08 3.48718e-07)
(0.00130347 -1.10652e-07 3.2253e-07)
(0.00130092 -3.96181e-07 2.14668e-07)
(0.00129896 -3.35313e-07 4.08694e-07)
(-0.00343699 -0.00135476 0.000218696)
(0.0032513 -0.00490901 -0.000170607)
(7.13827e-05 -8.23953e-05 -0.00144963)
(-0.0019775 -0.0102049 0.00111518)
(-0.00595673 -0.00515794 -0.00185298)
(-0.00167815 -0.00304836 0.00520471)
(-0.00124769 4.14278e-05 -4.97807e-05)
(0.00141387 -0.000179632 1.04451e-05)
(0.00150913 -9.14384e-05 -4.49861e-07)
(0.00142104 -4.30776e-05 3.51219e-07)
(0.00141981 -2.97171e-05 3.54872e-07)
(0.00140783 -1.76471e-05 3.51947e-07)
(0.00140055 -1.13946e-05 3.49792e-07)
(0.00139456 -7.17653e-06 3.48822e-07)
(0.00138966 -4.51391e-06 3.47475e-07)
(0.00138565 -2.83971e-06 3.45454e-07)
(0.00138204 -1.99032e-06 3.43559e-07)
(0.00137922 -1.57307e-06 2.55624e-07)
(0.00137642 -1.10255e-06 4.45298e-07)
(0.00137336 -6.23797e-07 3.32994e-07)
(0.00137074 -3.99852e-07 2.80249e-07)
(0.00136835 -1.05672e-07 3.3975e-07)
(0.0013657 1.59856e-07 3.52538e-07)
(0.00136244 2.51341e-07 -1.14873e-07)
(0.00135968 -7.57073e-08 3.4716e-07)
(0.00135733 -2.6319e-07 3.13879e-07)
(0.00135478 -9.18425e-08 3.57945e-07)
(0.00135191 5.27218e-08 3.32693e-07)
(0.00134964 1.4098e-07 2.92257e-07)
(0.0013478 8.65066e-07 2.49463e-07)
(0.00134523 1.0154e-06 4.68685e-07)
(0.00134336 1.01059e-06 4.79495e-07)
(0.00134083 7.85183e-07 2.4059e-07)
(0.0013371 3.42838e-07 1.78143e-07)
(0.00133475 2.12393e-08 3.63271e-07)
(0.00133278 2.00402e-07 3.44283e-07)
(0.00133026 1.34989e-07 3.10854e-07)
(0.00132779 -8.17132e-09 3.56802e-07)
(0.00132529 -3.39321e-07 3.1391e-07)
(0.00132228 -2.77773e-07 4.04308e-07)
(0.00131948 3.06145e-08 -2.00422e-08)
(0.00131692 1.71362e-07 3.56171e-07)
(0.00131521 6.96575e-07 3.12537e-07)
(0.00131371 7.87725e-07 4.09096e-07)
(0.00131114 4.43724e-07 1.35417e-07)
(0.0013086 3.55256e-07 4.24866e-07)
(0.00130599 3.64985e-07 3.6382e-07)
(0.00130318 5.57787e-07 3.55686e-07)
(0.00130062 1.90084e-07 3.41937e-07)
(0.00129901 1.47788e-07 5.03168e-07)
(-1.24059e-05 0.00351935 -0.000709317)
(-0.00535567 -0.003142 0.000309639)
(0.000677578 0.00689739 -7.75219e-05)
(-0.0227106 -0.0111988 0.000436577)
(0.0343774 0.0269769 0.000716386)
(0.00868733 -0.00443327 0.00106095)
(0.00269891 -0.00118163 -0.000101795)
(0.00136716 -0.000101212 7.27177e-05)
(0.00156838 -8.1613e-05 2.75406e-07)
(0.00146736 7.13827e-06 3.03936e-07)
(0.00143743 -1.10458e-05 3.38159e-07)
(0.00141907 -4.61067e-06 3.43418e-07)
(0.00140618 -3.99403e-06 3.51105e-07)
(0.00139805 -2.34274e-06 3.49634e-07)
(0.0013918 -1.23514e-06 3.47546e-07)
(0.00138689 -6.72345e-07 3.46295e-07)
(0.00138288 -4.89181e-07 3.46253e-07)
(0.0013792 -1.69351e-07 3.74031e-07)
(0.00137646 -3.75122e-07 3.41362e-07)
(0.0013739 -4.79244e-07 3.22752e-07)
(0.00137095 -2.47952e-07 2.53033e-07)
(0.00136834 -2.96231e-07 3.43194e-07)
(0.00136553 -4.64419e-07 3.39451e-07)
(0.00136286 -3.06559e-07 3.89213e-07)
(0.00136029 2.24525e-08 2.8139e-07)
(0.00135751 2.56619e-07 2.79116e-07)
(0.00135485 4.82013e-07 3.98273e-07)
(0.00135239 7.81384e-07 4.12471e-07)
(0.0013506 1.35398e-06 3.0977e-07)
(0.001348 9.63656e-07 3.13305e-07)
(0.00134486 7.82157e-07 3.8118e-07)
(0.00134218 1.04855e-06 2.11157e-07)
(0.00133967 1.66114e-07 3.27723e-07)
(0.00133739 9.97654e-10 3.35798e-07)
(0.001335 3.26526e-07 3.53853e-07)
(0.00133269 1.2652e-07 3.17091e-07)
(0.00133019 2.24879e-08 3.32108e-07)
(0.00132779 -2.04841e-07 3.48725e-07)
(0.00132484 -5.85052e-07 2.02745e-07)
(0.00132235 -6.47137e-07 2.07011e-07)
(0.0013203 -1.31046e-07 3.38148e-07)
(0.00131828 4.32428e-07 6.29916e-07)
(0.00131565 9.77e-07 5.78581e-07)
(0.00131286 6.49668e-07 3.18485e-07)
(0.00131064 2.2158e-07 3.12508e-07)
(0.00130834 1.34323e-07 3.27067e-07)
(0.0013062 1.95718e-07 3.52499e-07)
(0.00130324 5.18371e-07 3.26153e-07)
(0.0013004 3.76548e-07 3.77879e-07)
(0.00129854 4.16593e-07 5.60403e-07)
(-0.00110045 -0.00449218 -0.000661479)
(0.00264105 -0.000847242 -6.68489e-05)
(0.00460786 0.00536978 -0.00057261)
(0.00228861 0.00596556 0.000118345)
(0.00763731 -0.00574492 0.000584218)
(0.000282825 -0.0013998 0.00142673)
(0.000245716 -0.00145587 3.63143e-05)
(0.000783373 -0.000576429 -8.30226e-05)
(0.00154373 -3.93635e-06 1.37232e-07)
(0.00154369 4.13827e-05 3.63331e-08)
(0.00140535 1.20692e-05 3.68017e-07)
(0.00141675 8.65513e-06 3.62605e-07)
(0.00140344 5.2164e-06 3.40562e-07)
(0.00139805 2.95326e-06 3.49117e-07)
(0.00139177 1.46389e-06 3.13027e-07)
(0.0013866 8.20009e-07 3.3052e-07)
(0.00138268 6.14931e-07 3.4561e-07)
(0.00137937 3.78775e-07 3.46114e-07)
(0.00137604 4.90139e-07 3.26065e-07)
(0.00137353 4.22313e-07 3.6494e-07)
(0.00137098 2.46196e-07 3.75416e-07)
(0.00136809 3.26261e-07 4.61138e-07)
(0.00136569 1.2191e-07 5.89795e-07)
(0.00136305 1.33634e-07 3.60435e-07)
(0.00136038 1.02012e-07 2.67887e-07)
(0.0013579 5.177e-08 3.75831e-07)
(0.00135543 3.38613e-07 3.92032e-07)
(0.00135299 5.49057e-07 3.07437e-07)
(0.00134986 7.83147e-07 3.03444e-07)
(0.00134707 4.21406e-07 3.0758e-07)
(0.00134533 2.60241e-07 3.63215e-07)
(0.00134258 -2.69281e-07 3.08562e-07)
(0.00133952 2.40625e-07 3.14117e-07)
(0.00133729 1.47372e-07 3.3518e-07)
(0.0013349 2.3999e-07 2.90188e-07)
(0.0013324 -3.33319e-08 3.349e-07)
(0.00132984 -2.17709e-07 3.47876e-07)
(0.00132703 -2.74522e-07 3.31077e-07)
(0.00132474 -3.14267e-07 3.32825e-07)
(0.00132285 -2.11611e-07 -1.38438e-07)
(0.00132083 5.43097e-08 3.21838e-07)
(0.0013183 9.47503e-08 3.61092e-07)
(0.00131548 -1.4387e-07 3.05992e-07)
(0.00131276 -7.82186e-08 3.4172e-07)
(0.00131049 -2.76146e-07 3.26756e-07)
(0.00130857 -3.8011e-07 3.25914e-07)
(0.00130647 -7.96246e-07 1.1854e-07)
(0.0013034 -1.38551e-06 2.72995e-07)
(0.00130048 -5.0015e-07 3.76256e-07)
(0.00129803 1.01416e-07 3.64971e-07)
(0.00624149 1.37679e-05 0.000804844)
(-0.00214307 -0.000680128 -6.1391e-05)
(0.00074051 0.0132272 -0.00135389)
(0.002836 -0.000797027 -0.00197082)
(0.00450106 -0.0162908 -0.00322281)
(0.0069438 -0.00134035 -0.000243055)
(0.0032293 -0.000798066 1.65098e-05)
(0.000724826 0.000101536 -6.87355e-05)
(0.00156637 5.37703e-05 1.75339e-06)
(0.00152605 1.41197e-05 3.08102e-07)
(0.00139624 2.50948e-05 3.08986e-07)
(0.00141048 1.49827e-05 3.15438e-07)
(0.00139904 1.09068e-05 3.81082e-07)
(0.00139336 6.78473e-06 3.4883e-07)
(0.00138913 3.97613e-06 5.4921e-07)
(0.00138583 2.40896e-06 4.04474e-07)
(0.00138233 1.57115e-06 3.45793e-07)
(0.00137904 1.01739e-06 3.43022e-07)
(0.00137652 6.04524e-07 3.29024e-07)
(0.00137359 8.74388e-07 3.43127e-07)
(0.00137083 6.43163e-07 1.95301e-07)