/*--------------------------------*- C++ -*----------------------------------*\
| =========                 |                                                 |
| \\      /  F ield         | OpenFOAM: The Open Source CFD Toolbox           |
|  \\    /   O peration     | Version:  5.0                                   |
|   \\  /    A nd           | Web:      www.OpenFOAM.org                      |
|    \\/     M anipulation  |                                                 |
\*---------------------------------------------------------------------------*/
FoamFile
{
    version     2.0;
    format      ascii;
    class       volVectorField;
    location    "4.7";
    object      U_0;
}
// * * * * * * * * * * * * * * * * * * * * * * * * * * * * * * * * * * * * * //

dimensions      [0 1 -1 0 0 0 0];

internalField   nonuniform List<vector> 
8955
(
(-0.00864744 -0.00413737 0.000121626)
(-0.011299 0.00612063 -0.000971191)
(-0.00352071 0.00199532 0.00147536)
(0.0122196 0.000818964 -0.0037741)
(-0.0109166 0.00191407 -0.0018774)
(0.00818683 -0.00288826 0.000272113)
(0.000960684 -0.000159806 -1.0083e-05)
(0.000429561 -5.98179e-05 -7.208e-08)
(0.000848622 -7.21003e-05 -1.37907e-06)
(0.000799984 -4.49913e-05 -3.84837e-07)
(0.000819081 -2.72198e-05 2.18431e-07)
(0.000820252 -1.67383e-05 6.49388e-08)
(0.000823131 -1.01591e-05 1.56515e-08)
(0.000823538 -5.97773e-06 -1.42582e-07)
(0.000822771 -3.70134e-06 3.94863e-08)
(0.000822158 -2.20709e-06 2.55585e-08)
(0.000821158 -1.46296e-06 5.28509e-08)
(0.000819715 -9.00977e-07 -3.37114e-08)
(0.000818219 -5.94568e-07 7.69549e-08)
(0.000817016 -5.45905e-07 9.55522e-08)
(0.000815641 -2.25474e-07 1.02957e-07)
(0.000813874 -1.0824e-07 -1.11951e-08)
(0.000812342 -1.87586e-07 5.10264e-08)
(0.000810837 -2.9823e-07 7.0098e-08)
(0.000809263 9.77348e-08 4.07146e-08)
(0.000807546 3.35204e-07 2.2238e-08)
(0.000806142 3.56912e-07 6.75284e-08)
(0.000804852 8.76529e-08 5.43217e-08)
(0.000803042 4.44724e-08 1.74199e-07)
(0.000801394 -2.7894e-07 3.96226e-08)
(0.00079988 -6.23288e-07 -3.87452e-08)
(0.000798236 -5.38335e-07 7.27027e-08)
(0.000796711 -3.89728e-07 -4.44527e-08)
(0.000795469 -1.18312e-07 7.19939e-08)
(0.000794109 2.12946e-08 5.30728e-08)
(0.000792359 6.37011e-08 6.24401e-08)
(0.000790665 1.40868e-08 5.05734e-08)
(0.000789129 8.51417e-08 8.8727e-09)
(0.000787598 3.19771e-07 -6.48331e-08)
(0.000786434 3.93625e-07 8.25581e-08)
(0.000785155 8.84989e-09 3.31751e-08)
(0.000783425 -1.23327e-07 5.96344e-08)
(0.000782238 -6.45748e-07 6.13576e-08)
(0.000780746 -3.71217e-07 2.23276e-07)
(0.000779045 -2.48367e-07 8.1279e-08)
(0.000777695 -1.72394e-07 4.59924e-08)
(0.000776313 -1.76777e-07 4.25112e-08)
(0.000775011 -5.08035e-07 3.99919e-08)
(0.000773217 -3.71003e-07 -2.47017e-08)
(0.000771371 -2.23181e-07 7.16957e-08)
(-0.00058727 0.00165299 0.000745048)
(-0.00210581 -0.00631027 -0.000775675)
(0.00919381 -0.00169209 -0.000164792)
(-0.00518581 -0.00767798 -0.00259086)
(0.0145404 0.00254003 0.00199414)
(-0.0219269 -0.0028199 0.000827762)
(0.00223281 0.000777981 0.000109594)
(0.000494218 -9.02354e-05 -1.13102e-06)
(0.00091491 -7.6149e-05 -1.4509e-06)
(0.000833017 -4.51875e-05 -5.63005e-07)
(0.000840267 -2.92643e-05 1.33529e-07)
(0.000833318 -1.79703e-05 2.03958e-08)
(0.000830637 -1.11152e-05 4.6067e-08)
(0.000827908 -7.10035e-06 4.39673e-08)
(0.000825886 -4.35261e-06 5.02136e-08)
(0.000823882 -2.60997e-06 3.63081e-08)
(0.00082203 -1.61479e-06 5.51314e-08)
(0.000820531 -9.2488e-07 3.94884e-08)
(0.000818875 -3.19241e-07 4.2781e-08)
(0.000817232 -6.77891e-08 2.60119e-08)
(0.000815564 5.91476e-08 9.77885e-08)
(0.000813729 8.92281e-08 -3.31285e-08)
(0.000811972 4.04171e-07 2.42358e-08)
(0.000811054 5.14509e-07 1.02252e-07)
(0.000809886 1.82354e-07 -2.82205e-08)
(0.000807968 4.73579e-08 1.74424e-07)
(0.000806062 1.81121e-07 2.31675e-08)
(0.000804382 -2.29273e-08 4.92709e-08)
(0.000802731 -4.46382e-07 -9.1685e-09)
(0.000800919 -3.62043e-07 8.61592e-08)
(0.000799714 -3.96628e-07 1.27658e-07)
(0.000798511 -2.23902e-07 3.77097e-08)
(0.000797112 2.34704e-07 1.93973e-07)
(0.000795672 4.47351e-07 2.53551e-07)
(0.000793986 1.63455e-07 4.98861e-08)
(0.000792395 8.25945e-08 8.58266e-08)
(0.000790984 1.28634e-07 5.2264e-08)
(0.000789506 2.02798e-07 5.96198e-08)
(0.000787941 3.27813e-07 3.18499e-08)
(0.000786145 4.53022e-07 4.52157e-10)
(0.000784531 1.5399e-07 5.7556e-08)
(0.000783059 -4.90614e-08 7.07436e-08)
(0.000781806 -2.36506e-07 6.87744e-08)
(0.000780781 -4.14647e-07 -1.84191e-08)
(0.000779289 -1.69094e-07 6.54584e-08)
(0.000777737 -1.50844e-07 6.11973e-08)
(0.000776194 -1.09061e-07 5.80417e-08)
(0.000774664 -1.88231e-07 5.57099e-08)
(0.000773222 -3.63586e-07 9.76746e-08)
(0.000772287 -2.36862e-07 3.29181e-08)
(-0.000464217 -0.00744389 0.000323182)
(-0.00320948 0.00237356 -0.000300705)
(0.00397681 0.00351658 -0.000516471)
(0.000920889 -0.0095733 7.30285e-05)
(-0.00433136 0.00785065 0.000141743)
(-0.000878947 0.00180377 0.000413471)
(0.000116774 -0.000448613 1.07334e-05)
(0.000280664 -3.95766e-05 9.17836e-07)
(0.000916918 -6.79812e-05 -2.51139e-06)
(0.000858952 -3.33248e-05 -1.49862e-07)
(0.00085328 -2.22377e-05 1.29287e-07)
(0.000843051 -1.32269e-05 5.42839e-08)
(0.000836787 -8.44435e-06 5.26667e-08)
(0.000832034 -5.26097e-06 5.18707e-08)
(0.000828411 -3.26064e-06 5.19656e-08)
(0.000825597 -2.09054e-06 5.49143e-08)
(0.000823275 -1.22957e-06 5.41919e-08)
(0.000821341 -7.49581e-07 8.47164e-08)
(0.000819294 -6.99669e-07 9.59024e-08)
(0.00081749 -3.65269e-07 4.43813e-08)
(0.000815837 -3.56494e-07 3.88045e-08)
(0.000814303 -4.87729e-08 4.98219e-08)
(0.000812871 1.9295e-07 6.66414e-08)
(0.000810556 4.67761e-07 -5.35497e-09)
(0.000808676 1.37583e-07 4.62919e-08)
(0.000807542 9.96045e-09 3.56619e-08)
(0.000806053 -1.39254e-07 5.89687e-08)
(0.000804069 -9.6834e-09 6.40669e-08)
(0.000802621 8.54871e-08 4.35233e-08)
(0.00080146 5.28995e-07 3.42423e-08)
(0.000800056 7.60479e-07 9.41034e-08)
(0.000799025 6.80802e-07 6.63726e-08)
(0.000797548 4.17267e-07 2.95493e-07)
(0.000795376 3.05134e-07 1.14902e-07)
(0.00079365 1.29019e-07 9.06604e-08)
(0.000792314 1.73818e-07 5.48315e-08)
(0.000790813 9.67153e-08 1.18191e-07)
(0.000789375 4.8657e-08 4.40552e-08)
(0.000787907 1.49264e-07 4.66491e-08)
(0.000786213 -2.62483e-08 1.01511e-07)
(0.000784526 3.39796e-08 6.44214e-08)
(0.000782938 1.50369e-08 7.66187e-08)
(0.000781784 2.4799e-07 1.38261e-07)
(0.000780834 3.23016e-07 1.00374e-07)
(0.000779378 1.04237e-07 6.54185e-08)
(0.000777772 1.02786e-07 5.20639e-08)
(0.000776268 1.54952e-07 3.4803e-08)
(0.000774694 1.33576e-07 7.56658e-08)
(0.000773162 1.76392e-07 5.91719e-08)
(0.000772119 8.55518e-08 7.1112e-08)
(0.00726861 -0.00333445 -0.000592787)
(0.00111984 0.000936505 0.000229841)
(0.00651602 0.00711679 -2.22484e-05)
(-0.00641356 0.000217511 0.000188101)
(0.00608132 -0.000502134 0.000531414)
(0.0128365 0.00284653 6.24594e-05)
(0.00149224 -0.000654283 -1.43888e-05)
(0.000513934 -0.000216208 4.93264e-05)
(0.000957646 -4.7007e-05 -2.60072e-06)
(0.000890358 6.3225e-06 -1.93453e-07)
(0.000865571 -5.63472e-06 1.71742e-08)
(0.000850676 -2.20788e-06 -7.94836e-08)
(0.000840664 -2.03411e-06 3.7619e-08)
(0.000834431 -1.23255e-06 4.73778e-08)
(0.000829877 -6.80086e-07 4.67037e-08)
(0.000826438 -3.81339e-07 4.91347e-08)
(0.000823718 -3.05593e-07 4.76206e-08)
(0.000821202 -2.14992e-07 6.43123e-09)
(0.000819361 -2.33161e-07 7.94587e-08)
(0.000817666 -1.79267e-07 3.14677e-08)
(0.000815962 -2.76809e-07 8.06232e-08)
(0.000814417 -1.86972e-07 5.09407e-08)
(0.000812617 -3.65406e-07 2.5858e-09)
(0.000810983 -3.97073e-07 5.46095e-08)
(0.000809312 -1.6951e-08 2.75582e-08)
(0.000807622 1.67416e-07 3.20889e-08)
(0.000806038 2.0134e-07 6.65277e-08)
(0.000804662 2.7895e-07 8.0965e-08)
(0.000803401 7.91011e-07 6.61906e-08)
(0.000801759 5.92872e-07 2.01228e-08)
(0.000799897 7.44037e-07 1.84953e-08)
(0.000798076 7.21574e-07 -5.52612e-08)
(0.000796638 2.31076e-07 4.77668e-08)
(0.00079531 -1.06999e-08 5.53472e-08)
(0.000793821 1.87994e-07 5.02352e-08)
(0.000792354 9.63074e-08 4.1307e-08)
(0.000790827 7.85771e-08 6.768e-08)
(0.000789571 -4.8133e-09 4.96487e-08)
(0.000787848 -3.54492e-07 -1.31261e-08)
(0.000786001 -2.15301e-07 -3.2072e-08)
(0.000784582 8.60308e-09 4.5017e-08)
(0.000783325 2.17051e-07 3.70196e-08)
(0.000782189 3.56117e-07 1.28306e-07)
(0.000780598 3.71948e-07 -1.27596e-07)
(0.000779011 1.13492e-07 2.85832e-08)
(0.000777798 9.79254e-08 4.41119e-08)
(0.00077623 1.5737e-07 5.44988e-08)
(0.000774689 1.12631e-07 4.74461e-08)
(0.000773159 2.29965e-07 4.1428e-08)
(0.00077196 2.23289e-07 4.43806e-08)
(1.13411e-05 0.0057753 -0.000254228)
(0.00388328 -0.00276822 1.90968e-05)
(0.000392072 0.00266546 0.00014825)
(0.000424508 -0.00135916 6.63983e-05)
(0.0136732 -0.00490724 0.000281862)
(-0.00172642 -7.24388e-05 3.38948e-05)
(0.000716278 -0.000335052 -4.02719e-06)
(0.00153938 0.000128865 -2.08529e-06)
(0.000525287 7.15756e-06 -1.24119e-06)
(0.000929777 3.51387e-05 -1.42257e-06)
(0.000842749 1.31292e-05 -5.20891e-07)
(0.000847613 8.65582e-06 1.83269e-07)
(0.000838042 5.03894e-06 1.80054e-07)
(0.000833751 2.92944e-06 5.92778e-08)
(0.00082949 1.61245e-06 -4.08452e-09)
(0.000826074 9.39509e-07 1.30502e-08)
(0.000823488 6.11997e-07 5.16366e-08)
(0.000821435 3.2888e-07 5.31676e-08)
(0.000819341 4.09268e-07 6.03761e-08)
(0.000817438 2.6049e-07 1.00489e-07)
(0.00081583 1.53961e-07 6.5589e-08)
(0.000814195 7.91525e-08 2.68677e-08)
(0.000812611 4.22566e-08 8.36289e-08)
(0.000810994 1.8396e-08 6.27383e-08)
(0.000809382 1.27924e-08 1.41252e-07)
(0.000807814 7.30526e-08 6.58703e-08)
(0.00080619 1.49305e-07 6.92343e-08)
(0.0008048 2.075e-07 9.2946e-09)
(0.000803007 1.51413e-07 1.30339e-08)
(0.000801393 2.3e-07 2.03299e-08)
(0.00080021 7.56998e-08 5.96121e-08)
(0.000798378 -1.34264e-07 3.82397e-08)
(0.000796629 1.44699e-07 4.56508e-08)
(0.000795321 5.29248e-08 4.98664e-08)
(0.000793783 9.11257e-08 6.98754e-08)
(0.000792176 -3.22458e-08 4.7034e-08)
(0.000790686 -5.73788e-08 -9.03511e-08)
(0.000788835 -1.27371e-07 6.48581e-08)
(0.000787646 -2.41354e-07 1.24664e-07)
(0.000786669 -7.69114e-08 3.4044e-08)
(0.000785066 9.65444e-08 3.94857e-08)
(0.00078337 2.62476e-07 2.52522e-07)
(0.000781974 4.67905e-07 8.40368e-09)
(0.000780527 1.08081e-07 4.94458e-08)
(0.000779033 1.20531e-07 1.31773e-07)
(0.000777826 -7.00375e-08 4.74933e-08)
(0.000776285 -2.93491e-07 -6.51233e-09)
(0.000774784 -2.87915e-07 -1.33543e-08)
(0.000773294 -2.03649e-07 4.76415e-09)
(0.000771555 1.09353e-07 9.70072e-08)
(-0.0023158 0.00497396 0.000478039)
(-0.00746533 -0.00215918 0.00028319)
(-0.0192066 0.00580846 -0.000801027)
(0.00469956 0.00323643 -4.46709e-05)
(-0.00400874 0.0136146 -0.000155707)
(0.00206344 -0.0052284 -0.000377413)
(0.0013007 -0.000532282 -7.79455e-06)
(0.00189084 -0.000115355 0.000101525)
(0.000523701 3.17911e-05 5.52766e-07)
(0.000910152 2.10089e-05 -1.25771e-06)
(0.000832285 2.2834e-05 -4.98724e-07)
(0.000840551 1.37162e-05 1.62667e-07)
(0.0008335 9.38347e-06 6.68041e-08)
(0.000830147 5.85142e-06 5.71843e-08)
(0.000827391 3.49948e-06 8.81773e-08)
(0.000825189 2.13274e-06 8.39145e-08)
(0.000822956 1.39938e-06 5.15249e-08)
(0.000820949 9.62626e-07 5.47384e-08)
(0.000819275 4.35757e-07 6.23968e-08)
(0.000817345 3.80525e-07 3.59509e-08)
(0.000815735 4.00604e-07 7.43388e-08)
(0.000814277 2.50792e-07 5.20106e-08)
(0.000812541 2.16971e-07 5.82849e-08)
(0.000810946 1.12583e-07 7.44135e-08)
(0.00080938 1.0353e-07 5.7354e-08)
(0.000807792 -6.70034e-09 6.77956e-08)
(0.000806205 -7.56089e-08 1.16039e-07)
(0.000804662 -1.4476e-07 2.16901e-08)
(0.000803427 -1.18069e-07 4.51057e-08)
(0.000801661 -2.381e-07 9.6286e-08)
(0.000799441 -4.8365e-07 -3.41926e-08)
(0.000798161 -3.69552e-07 1.4072e-07)
(0.000796871 -2.86699e-07 1.70186e-08)
(0.000795241 -1.78152e-07 6.45215e-08)
(0.000793714 -2.60548e-07 -4.89026e-08)
(0.000792169 -6.88024e-08 4.34414e-08)
(0.000790709 -4.21467e-08 5.11364e-08)
(0.000789343 9.588e-08 6.70464e-08)
(0.000787912 3.75445e-07 1.09376e-07)
(0.000786424 1.8503e-07 7.43938e-08)
(0.000785006 1.85703e-07 4.08371e-08)
(0.000783788 1.66131e-07 3.18878e-07)
(0.000781994 2.65055e-07 3.51153e-08)
(0.000780164 4.3061e-08 5.70829e-08)
(0.000778789 8.48422e-08 4.77507e-08)
(0.000777283 -1.26528e-07 4.62025e-08)
(0.000775961 -5.04148e-07 -3.47116e-07)
(0.000774804 -5.33476e-07 5.91958e-08)
(0.000773656 -4.8362e-07 9.69437e-08)
(0.000772077 -1.82761e-07 1.83504e-07)
(-0.000449987 0.00266477 -0.00017373)
(0.0116961 -0.00151575 0.000304027)
(-0.0136762 0.0581735 0.00285307)
(0.0117424 -0.00659488 6.89587e-05)
(-0.00248425 5.06067e-05 -0.000399432)
(-0.0168329 -0.00211981 -0.000192346)
(-0.000695733 -0.000325367 -1.9101e-06)
(0.00123231 5.04253e-05 6.95651e-06)
(0.000880336 0.000107031 -2.86731e-06)
(0.000840685 3.3739e-05 -2.59452e-07)
(0.000833612 2.97932e-05 -4.23614e-09)
(0.00083075 1.73234e-05 2.78884e-08)
(0.00082818 1.10741e-05 2.9516e-08)
(0.000826374 6.98441e-06 4.48952e-08)
(0.000824828 4.50337e-06 5.20955e-08)
(0.000823441 2.84802e-06 5.46312e-08)
(0.000822021 1.79214e-06 5.05981e-08)
(0.000820227 1.18098e-06 3.15668e-08)
(0.000818611 8.61628e-07 4.84608e-08)
(0.000817392 4.74197e-07 7.24751e-08)
(0.000815665 4.51214e-07 -1.59971e-08)
(0.000813964 2.41823e-07 4.6752e-08)
(0.000812437 1.97634e-07 -2.10365e-08)
(0.000810851 8.10515e-08 4.8103e-08)
(0.000809232 9.97771e-08 5.51391e-09)
(0.00080759 4.35578e-08 5.68085e-08)
(0.000806018 -1.24507e-07 5.36092e-08)
(0.000804748 -1.56802e-07 6.83017e-08)
(0.000802892 -4.66088e-07 2.32621e-08)
(0.000800939 -7.34675e-07 -3.27842e-08)
(0.000800049 -3.79112e-07 1.72038e-07)
(0.000798629 -1.48301e-07 6.76132e-08)
(0.000796871 -1.61161e-07 4.06506e-08)
(0.000795356 -1.17834e-07 1.90848e-08)
(0.000793922 -8.39135e-08 7.81917e-08)
(0.00079245 1.97612e-08 6.28984e-08)
(0.000790893 1.03308e-07 5.177e-08)
(0.000789356 1.25269e-07 5.04522e-08)
(0.000787756 1.76872e-07 7.17255e-08)
(0.00078643 3.02864e-07 2.52932e-08)
(0.000785042 1.66267e-07 1.03601e-07)
(0.000783468 1.40879e-07 -1.92779e-08)
(0.00078182 -7.6035e-08 6.91077e-08)
(0.000780302 -7.8531e-08 -2.69933e-08)
(0.000778822 -1.07021e-07 1.26277e-08)
(0.000777092 5.20981e-09 4.8921e-08)
(0.00077578 -1.00665e-08 2.02738e-08)
(0.000774814 -2.92976e-07 6.72425e-08)
(0.000773741 -2.25886e-07 2.56698e-08)
(0.000772386 -3.13166e-07 7.64598e-08)
(0.00067904 0.00423996 0.000260188)
(-0.0108252 0.00543027 0.000841944)
(0.0179395 -0.00194329 0.000283206)
(-0.0154585 -0.0108324 -0.00256287)
(-0.00978724 -0.031039 0.00293777)
(0.011279 0.00598052 0.000303761)
(0.00273072 0.000468013 0.000135546)
(0.000487968 0.000218839 4.56825e-05)
(0.000815375 8.20724e-05 -1.81278e-06)
(0.000792566 4.0629e-05 -1.83032e-07)
(0.000811587 2.53445e-05 1.24339e-07)
(0.000817047 1.46622e-05 5.58458e-08)
(0.000820513 8.85404e-06 5.81054e-08)
(0.000821892 5.33772e-06 5.24525e-08)
(0.000822194 3.32807e-06 5.14934e-08)
(0.000821783 2.08323e-06 5.20289e-08)
(0.000820861 1.23655e-06 1.10274e-07)
(0.000819778 7.0913e-07 5.36338e-08)
(0.000818387 5.80229e-07 9.50105e-08)
(0.000816829 3.37598e-07 8.48555e-08)
(0.000815443 5.06758e-08 5.08006e-08)
(0.000813958 6.23973e-09 6.46676e-08)
(0.000812339 -1.99714e-07 3.6522e-08)
(0.000810823 -1.49296e-07 5.05052e-08)
(0.000809333 -3.67918e-07 6.78309e-08)
(0.000807512 -2.63988e-07 1.40357e-08)
(0.000805955 -1.06428e-07 3.35761e-08)
(0.000804239 -4.19057e-08 6.42195e-08)
(0.00080271 -2.42148e-07 5.79936e-08)
(0.000801776 2.36789e-07 -8.02093e-08)
(0.000800178 3.81484e-07 1.09756e-07)
(0.000798436 1.2586e-07 1.67319e-07)
(0.000796911 1.79633e-07 5.10401e-08)
(0.000795339 1.10854e-07 4.88775e-08)
(0.000793887 1.16465e-07 4.52912e-08)
(0.000792403 -3.53485e-08 6.21061e-08)
(0.000790841 -5.8063e-08 5.70758e-08)
(0.000789435 -9.22968e-08 4.38185e-08)
(0.000788133 9.9936e-08 4.13941e-08)
(0.000786409 1.28129e-07 1.81705e-08)
(0.000784802 -7.23553e-08 5.08602e-08)
(0.000783485 -5.74419e-08 4.77739e-08)
(0.00078172 -2.0938e-07 -4.67576e-08)
(0.000780126 -8.48327e-08 4.48365e-08)
(0.000778895 -5.56744e-08 5.72368e-08)
(0.000777405 9.81769e-08 4.62602e-08)
(0.00077559 4.46687e-07 5.80422e-08)
(0.000774537 5.79443e-07 7.13926e-08)
(0.00077364 1.78649e-07 2.48944e-08)
(0.000772749 -5.00113e-08 8.84243e-09)
(-0.00344654 -0.00115262 0.000602278)
(-0.0059377 0.00368832 0.000772494)
(-0.0064976 0.00319958 0.0012005)
(0.0183392 0.00870065 -0.00450213)
(-0.00783038 0.0096002 0.00172887)
(0.00700986 0.00698433 0.00119077)
(-0.000223377 8.6375e-05 -1.45222e-06)
(0.000345362 2.90471e-05 5.03236e-07)
(0.000787552 1.91397e-05 -1.39456e-06)
(0.000769495 9.3069e-06 -3.84286e-07)
(0.000800943 6.53516e-06 1.64213e-07)
(0.000810009 3.98604e-06 4.24889e-08)
(0.000816449 2.49043e-06 6.02736e-08)
(0.000819421 1.32487e-06 5.68855e-08)
(0.000820732 8.46166e-07 5.57823e-08)
(0.000820809 5.10106e-07 1.07813e-07)
(0.000820292 2.88387e-07 4.41968e-09)
(0.000819399 1.40702e-07 4.01926e-07)
(0.000818142 2.3342e-08 4.9401e-08)
(0.000816727 1.76486e-07 6.77103e-08)
(0.00081525 -2.32079e-08 4.99398e-08)
(0.000813651 -1.63963e-07 2.85198e-09)
(0.000812244 -2.45255e-07 -1.33603e-09)
(0.000810644 -2.68979e-07 5.49863e-08)
(0.000809092 -3.47887e-07 3.09054e-08)
(0.00080792 -4.61775e-07 -4.3108e-08)
(0.000806298 -2.42457e-07 1.3024e-07)
(0.000804581 -1.28667e-07 5.25842e-08)
(0.000803241 1.84715e-07 1.00337e-07)
(0.000801719 2.54619e-07 6.53538e-08)
(0.000799909 1.66221e-07 2.43415e-07)
(0.000798374 1.40099e-07 6.29918e-08)
(0.000796852 -1.10765e-08 2.07808e-08)
(0.000795276 -1.21913e-07 5.43246e-08)
(0.000793739 -1.57526e-07 2.96697e-08)
(0.000792233 -2.25034e-07 1.78987e-08)
(0.000790823 -1.56731e-07 -1.803e-08)
(0.000789554 -1.31697e-07 5.31182e-08)
(0.000788032 -4.04553e-07 8.75352e-08)
(0.000786214 -5.93329e-07 3.91781e-08)
(0.00078481 -3.05641e-07 5.17399e-08)
(0.000783298 -2.95065e-07 1.39177e-08)
(0.000781787 5.88739e-09 4.46437e-08)
(0.000780495 1.86508e-08 4.1476e-08)
(0.000779051 1.30619e-07 6.71556e-08)
(0.000777718 1.34436e-07 -2.48688e-09)
(0.000776379 3.25383e-07 3.9289e-08)
(0.000774476 9.5535e-07 2.8322e-08)
(0.000772954 6.24146e-07 -1.11839e-07)
(0.000772223 3.41443e-07 9.17587e-08)
(0.0062148 -0.00548794 -0.000483232)
(0.00727838 6.91005e-05 0.000546994)
(-0.00561751 5.58263e-05 0.000571949)
(0.000113437 0.015507 -2.53918e-05)
(0.00463579 0.00814097 -0.000796251)
(0.00515502 -0.00569194 -0.000175806)
(0.00194936 -0.000788473 6.47913e-05)
(0.00039237 -4.59471e-05 8.34373e-07)
(0.000806605 -3.74981e-05 -1.39029e-06)
(0.000776671 -2.27055e-05 -2.26279e-07)
(0.00080482 -1.32799e-05 2.1439e-07)
(0.000811916 -8.20015e-06 4.62912e-08)
(0.00081714 -5.08819e-06 6.99829e-08)
(0.000819809 -2.85622e-06 7.49352e-08)
(0.000821158 -1.79485e-06 5.53909e-08)
(0.000821074 -1.22466e-06 7.3782e-08)
(0.000820392 -7.1555e-07 5.22106e-08)
(0.000819442 -5.31883e-07 1.00018e-07)
(0.000818429 -4.63585e-07 7.34775e-08)
(0.000816769 -4.71067e-07 8.33874e-09)
(0.000815016 -2.33618e-07 1.52696e-07)
(0.000813682 -1.59288e-07 1.83712e-07)
(0.00081221 -5.60219e-08 5.66736e-08)
(0.000810698 -8.0723e-08 4.68269e-08)
(0.000809096 9.89844e-08 -5.66331e-08)
(0.000807648 5.59142e-08 -4.06065e-08)
(0.000806375 -2.00424e-07 7.57726e-08)
(0.000804774 -6.93571e-08 4.76417e-08)
(0.000803188 1.55878e-08 5.85354e-08)
(0.000801751 -2.29517e-07 5.8162e-08)
(0.000800033 -2.45243e-07 7.00072e-08)
(0.000798214 -2.53979e-07 -5.35994e-09)
(0.000796584 -3.58714e-07 6.542e-08)
(0.000795158 -3.69353e-07 4.57025e-08)
(0.000793759 -2.07366e-07 3.15606e-07)
(0.000792406 -7.4751e-08 3.37598e-08)
(0.000790959 -1.07001e-07 3.40904e-09)
(0.000789126 -2.01568e-07 4.30274e-08)
(0.000787559 -4.48702e-07 5.4512e-09)
(0.000786536 -5.50879e-07 6.29813e-08)
(0.000785178 -2.7594e-07 5.93114e-08)
(0.000783876 -2.76679e-07 2.69922e-08)
(0.000782114 -1.75285e-07 6.86864e-08)
(0.000780281 8.44713e-08 2.89516e-08)
(0.000779039 2.64341e-08 -4.76886e-08)
(0.000777646 8.12699e-08 3.48555e-08)
(0.000776611 9.15197e-09 5.43247e-08)
(0.000774904 2.96337e-08 2.43069e-08)
(0.000772858 4.38592e-07 -3.30724e-08)
(0.000771546 2.46346e-07 7.02274e-08)
(0.00462787 0.00312418 0.000185258)
(-0.0246322 0.0105272 -0.00687103)
(0.0216795 0.0252496 0.00585017)
(0.0406676 0.00783433 0.0846014)
(-0.0006866 0.00181618 0.00401783)
(-0.0282646 5.73986e-06 0.00122718)
(0.000537869 -0.00053366 -5.1024e-05)
(0.00129305 -0.000137749 -4.9738e-07)
(0.00141888 -0.000105082 3.36937e-07)
(0.00133784 -6.5476e-05 3.44566e-07)
(0.00136946 -3.94462e-05 3.80199e-07)
(0.0013714 -2.42298e-05 3.54456e-07)
(0.00137615 -1.46706e-05 2.70349e-07)
(0.00137686 -8.5801e-06 -6.55974e-08)
(0.0013756 -5.30747e-06 2.51412e-07)
(0.0013745 -3.16015e-06 2.77654e-07)
(0.00137278 -2.10188e-06 3.4573e-07)
(0.00137041 -1.25695e-06 2.32668e-07)
(0.0013679 -8.29972e-07 4.088e-07)
(0.00136583 -8.03395e-07 3.58715e-07)
(0.00136356 -3.16473e-07 5.1841e-07)
(0.00136062 -7.7099e-08 2.73329e-07)
(0.00135806 -1.8621e-07 3.84872e-07)
(0.00135557 -3.88329e-07 3.12401e-07)
(0.00135292 2.63758e-07 3.20326e-07)
(0.00135012 6.81136e-07 2.36886e-07)
(0.00134782 6.18982e-07 3.00847e-07)
(0.00134571 1.41693e-07 3.43212e-07)
(0.00134264 3.23425e-08 4.83036e-07)
(0.00133982 -5.18763e-07 3.43393e-07)
(0.00133734 -1.07994e-06 2.60511e-07)
(0.00133452 -9.12244e-07 2.40002e-07)
(0.00133203 -6.27581e-07 2.48377e-07)
(0.00133011 -1.37498e-07 4.34847e-07)
(0.00132784 9.45781e-08 3.33413e-07)
(0.0013249 1.75791e-07 3.31587e-07)
(0.00132201 6.27804e-08 3.33555e-07)
(0.00131935 2.09471e-07 2.60374e-07)
(0.00131696 6.35701e-07 9.33902e-08)
(0.00131508 6.64234e-07 3.58793e-07)
(0.00131283 4.95017e-08 2.92908e-07)
(0.00130998 -1.53143e-07 3.4813e-07)
(0.00130809 -9.80697e-07 3.25955e-07)
(0.00130554 -5.78073e-07 6.9691e-07)
(0.00130269 -4.03376e-07 3.77668e-07)
(0.00130044 -3.21593e-07 3.48014e-07)
(0.00129808 -2.97196e-07 3.03088e-07)
(0.00129595 -7.89547e-07 3.10545e-07)
(0.00129298 -6.12732e-07 2.3603e-07)
(0.0012899 -4.00986e-07 3.50427e-07)
(0.00984256 -0.00378035 0.000505028)
(0.0163473 0.00525441 -0.00122228)
(0.0156087 -0.000522964 -0.000340164)
(0.0122708 -0.0125695 -0.0728792)
(0.00875162 -0.00732827 0.00809676)
(-0.00498273 -0.00415306 -0.00424997)
(-8.14871e-05 0.00225958 -4.36603e-05)
(0.00146764 -0.000230492 2.59218e-07)
(0.00152092 -0.000114885 4.43338e-07)
(0.00138748 -6.76507e-05 3.5914e-07)
(0.00140124 -4.38994e-05 3.50535e-07)
(0.00139096 -2.68618e-05 3.47941e-07)
(0.00138726 -1.65735e-05 3.48348e-07)
(0.0013832 -1.0593e-05 3.44089e-07)
(0.00138015 -6.5151e-06 3.44925e-07)
(0.00137702 -3.92758e-06 2.81014e-07)
(0.0013741 -2.45109e-06 3.46546e-07)
(0.00137166 -1.44145e-06 1.19861e-07)
(0.00136885 -5.25381e-07 3.06102e-07)
(0.00136611 -1.03926e-07 3.09421e-07)
(0.00136342 1.27913e-07 3.30885e-07)
(0.00136043 1.63561e-07 2.72706e-07)
(0.0013575 7.10808e-07 2.91211e-07)
(0.00135593 8.65735e-07 4.53108e-07)
(0.00135399 3.70026e-07 8.87649e-08)
(0.00135071 1.66459e-07 5.86153e-07)
(0.00134752 3.41086e-07 3.15318e-07)
(0.00134481 -5.38454e-08 3.36104e-07)
(0.00134208 -8.33123e-07 2.4364e-07)
(0.00133911 -6.27556e-07 3.25726e-07)
(0.00133711 -6.51801e-07 3.65737e-07)
(0.00133511 -3.79771e-07 3.02735e-07)
(0.00133281 5.29896e-07 6.31705e-07)
(0.00133043 8.26787e-07 7.05175e-07)
(0.00132759 2.97237e-07 3.38758e-07)
(0.00132491 1.51876e-07 3.77601e-07)
(0.00132255 2.33047e-07 3.32426e-07)
(0.00132015 3.98939e-07 3.76975e-07)
(0.00131746 6.73519e-07 3.38041e-07)
(0.00131444 7.89302e-07 3.38684e-07)
(0.00131181 2.58569e-07 3.42191e-07)
(0.00130935 -9.70378e-08 3.73533e-07)
(0.00130723 -4.10865e-07 3.01247e-07)
(0.00130555 -7.3954e-07 1.99426e-07)
(0.0013031 -3.12706e-07 3.82629e-07)
(0.00130052 -3.09165e-07 2.94767e-07)
(0.001298 -1.35298e-07 3.01259e-07)
(0.00129544 -2.7549e-07 3.28368e-07)
(0.001293 -5.67872e-07 3.44116e-07)
(0.00129139 -4.05386e-07 2.32641e-07)
(-0.00365162 -0.00128691 0.000220175)
(0.00345042 -0.00482967 -0.000184104)
(-0.000310743 0.00129715 -0.000942839)
(-0.00273424 -0.00881684 0.00143485)
(-0.00593303 -0.00366057 -0.00211752)
(-0.00340267 -0.00363549 0.00480067)
(-0.00121945 -2.68728e-05 -2.25747e-05)
(0.00142781 -0.000193036 1.04773e-05)
(0.00151894 -0.000107738 -3.94796e-07)
(0.00142709 -5.20738e-05 3.55431e-07)
(0.00142069 -3.48502e-05 3.55431e-07)
(0.00140571 -2.06744e-05 3.51411e-07)
(0.00139658 -1.32081e-05 3.49213e-07)
(0.00138949 -8.22866e-06 3.48033e-07)
(0.00138396 -5.10706e-06 3.46555e-07)
(0.0013796 -3.2898e-06 3.44982e-07)
(0.0013759 -1.95854e-06 3.42225e-07)
(0.00137283 -1.25101e-06 3.3746e-07)
(0.00136958 -1.21182e-06 3.96695e-07)
(0.00136665 -6.24828e-07 3.34791e-07)
(0.00136389 -5.78768e-07 2.99311e-07)
(0.00136134 -8.74693e-08 3.39068e-07)
(0.00135893 2.91231e-07 3.23347e-07)
(0.00135514 7.37701e-07 1.63984e-07)
(0.00135204 1.81735e-07 3.2294e-07)
(0.00135008 -9.02437e-09 3.1512e-07)
(0.00134755 -1.63984e-07 3.30484e-07)
(0.00134424 4.27638e-08 3.33964e-07)
(0.00134193 1.87672e-07 2.45607e-07)
(0.00134005 9.31436e-07 2.68549e-07)
(0.00133765 1.29234e-06 3.42379e-07)
(0.001336 1.15079e-06 3.2357e-07)
(0.00133354 7.04882e-07 8.1442e-07)
(0.00132981 4.9616e-07 4.24095e-07)
(0.00132699 1.78701e-07 3.78467e-07)
(0.00132482 2.44678e-07 3.43389e-07)
(0.00132232 1.60612e-07 3.62043e-07)
(0.0013199 8.23239e-08 3.31241e-07)
(0.00131744 1.87647e-07 3.38691e-07)
(0.00131456 -5.81091e-08 4.27418e-07)
(0.00131172 4.59387e-08 3.22395e-07)
(0.00130914 5.62923e-08 3.62185e-07)
(0.00130729 4.88586e-07 5.48726e-07)
(0.00130567 5.76458e-07 2.87329e-07)
(0.00130323 2.9156e-07 3.04774e-07)
(0.00130066 2.72263e-07 3.19562e-07)
(0.00129812 3.24437e-07 3.10429e-07)
(0.00129541 2.93783e-07 3.46101e-07)
(0.00129283 2.91647e-07 3.38076e-07)
(0.00129112 1.49346e-07 3.10594e-07)
(2.37219e-05 0.00389233 -0.000752784)
(-0.0050841 -0.0028179 0.000328935)
(0.00121067 0.00695769 2.73518e-05)
(-0.0253744 -0.0127709 0.000668241)
(0.0192747 0.00999076 0.00557574)
(0.0194601 -0.00392565 0.000838614)
(0.002756 -0.0011629 -0.000105218)
(0.001402 -0.000124634 7.18899e-05)
(0.00158589 -8.05264e-05 2.98114e-07)
(0.00147874 8.44841e-06 6.65613e-07)
(0.00144078 -1.05651e-05 3.82928e-07)
(0.00141819 -4.44669e-06 2.39855e-07)
(0.00140293 -3.88153e-06 3.5033e-07)
(0.0013934 -2.36663e-06 3.48952e-07)
(0.00138636 -1.34251e-06 3.46468e-07)
(0.00138099 -7.65026e-07 3.45235e-07)
(0.00137667 -5.78869e-07 3.44398e-07)
(0.00137261 -3.61362e-07 2.36415e-07)
(0.00136964 -4.04796e-07 3.81165e-07)
(0.00136691 -3.37854e-07 3.09323e-07)
(0.0013641 -4.77061e-07 3.57395e-07)
(0.00136152 -3.31955e-07 3.41403e-07)
(0.00135853 -6.27636e-07 2.97669e-07)
(0.00135579 -6.32643e-07 3.43144e-07)
(0.00135306 -5.23691e-08 2.82319e-07)
(0.00135028 2.57157e-07 2.77941e-07)
(0.00134759 3.44905e-07 4.05102e-07)
(0.00134525 5.57788e-07 4.12836e-07)
(0.00134318 1.42883e-06 3.5334e-07)
(0.00134048 1.07047e-06 4.88301e-07)
(0.00133738 1.28027e-06 3.15511e-07)
(0.00133436 1.28015e-06 5.17283e-09)
(0.00133198 3.92374e-07 3.30076e-07)
(0.00132977 -1.14761e-08 3.39972e-07)
(0.00132727 3.04672e-07 3.50328e-07)
(0.00132488 1.48766e-07 3.14878e-07)
(0.00132235 9.51016e-08 5.01235e-07)
(0.00132018 -4.40663e-08 3.47084e-07)
(0.00131728 -6.13665e-07 1.88159e-07)
(0.00131427 -4.24385e-07 1.26958e-07)
(0.00131195 7.31883e-10 3.29612e-07)
(0.00130991 4.3101e-07 2.92495e-07)
(0.00130788 6.84353e-07 5.09592e-07)
(0.0013053 6.77233e-07 1.49233e-07)
(0.00130271 2.35244e-07 3.3994e-07)
(0.00130055 1.734e-07 3.24718e-07)
(0.00129802 2.14543e-07 3.31142e-07)
(0.00129539 1.81788e-07 3.1835e-07)
(0.00129282 3.52208e-07 3.20919e-07)
(0.00129084 3.89818e-07 2.3326e-07)
(-0.00112522 -0.00421273 -0.00067492)
(0.00212538 -0.000363254 -0.000158034)
(0.00443914 0.00430665 -0.000572447)
(0.00248714 0.00675709 8.49629e-05)
(0.00922829 -0.00620834 0.000507755)
(0.00135298 -0.00131511 0.00163372)
(0.000291997 -0.00138512 4.06618e-05)
(0.000813362 -0.000557185 -8.2323e-05)
(0.00156027 7.14045e-06 2.50702e-07)
(0.00154781 5.17773e-05 1.37954e-08)
(0.00140484 1.76951e-05 3.68541e-07)
(0.00141419 1.17711e-05 3.82308e-07)
(0.00139925 6.75323e-06 4.51599e-07)
(0.00139271 3.84578e-06 3.48437e-07)
(0.001386 2.04531e-06 2.4305e-07)
(0.00138057 1.16697e-06 2.77128e-07)
(0.00137642 7.58427e-07 3.44332e-07)
(0.00137305 3.75557e-07 3.5003e-07)
(0.00136962 5.88621e-07 3.4003e-07)
(0.00136656 3.99592e-07 3.80377e-07)
(0.0013639 2.28038e-07 3.74095e-07)
(0.00136116 1.04914e-07 3.26021e-07)
(0.00135856 5.39162e-08 3.65216e-07)
(0.00135586 2.24531e-08 1.05097e-07)
(0.00135315 4.07606e-08 3.48403e-07)
(0.00135057 7.83404e-08 3.75314e-07)
(0.00134792 2.48415e-07 3.91151e-07)
(0.00134559 3.72899e-07 2.92842e-07)
(0.00134256 3.57324e-07 5.35727e-07)
(0.00133985 4.55032e-07 3.22994e-07)
(0.0013379 1.7668e-07 3.47439e-07)
(0.00133488 -1.87658e-07 3.26239e-07)
(0.00133191 2.9321e-07 3.24266e-07)
(0.0013297 1.25895e-07 3.31761e-07)
(0.00132719 1.78579e-07 3.58058e-07)
(0.00132455 -5.28982e-08 3.2803e-07)
(0.00132207 -1.49006e-07 -8.65221e-08)
(0.00131901 -2.62667e-07 3.06746e-07)
(0.00131697 -4.28863e-07 4.90777e-07)
(0.00131533 -1.66879e-07 2.32318e-07)
(0.00131279 1.5037e-07 3.14142e-07)
(0.00130999 4.26044e-07 6.51016e-07)
(0.00130759 6.593e-07 1.88292e-07)
(0.0013051 1.72201e-07 1.46719e-07)
(0.0013026 6.08288e-08 4.31378e-07)
(0.00130063 -1.9122e-07 3.25019e-07)
(0.00129813 -6.02439e-07 2.00184e-07)
(0.00129559 -6.17329e-07 -5.90417e-08)
(0.00129308 -3.58546e-07 3.27808e-07)
(0.00129019 1.82267e-07 4.52722e-07)
(0.006549 0.000152007 0.000792881)
(-0.00123689 -4.63913e-05 -0.000169351)
(0.00615904 0.00820251 -0.00307691)
(0.00685623 0.0121616 -0.00168018)
(0.00402799 -0.0115538 -0.00377164)
(0.0066144 -0.00539873 -0.0020695)
(0.00317943 -0.000742321 1.80498e-05)
(0.000719632 0.000115021 -6.76675e-05)
(0.00156616 7.19246e-05 1.75534e-06)
(0.0015203 2.59607e-05 3.03215e-07)
(0.00139053 3.21974e-05 3.22646e-07)
(0.00140453 1.92102e-05 3.1317e-07)
(0.00139303 1.3366e-05 4.00451e-07)
(0.00138753 8.33315e-06 3.46925e-07)
(0.00138303 4.96549e-06 3.56439e-07)
(0.00137939 3.01728e-06 3.78116e-07)
(0.00137569 1.98698e-06 3.44412e-07)
(0.0013724 1.36953e-06 3.08487e-07)
(0.00136967 6.03797e-07 3.47352e-07)
(0.00136646 5.82549e-07 3.44836e-07)
(0.00136373 6.01554e-07 3.57496e-07)
(0.0013613 4.05115e-07 3.15296e-07)