/*--------------------------------*- C++ -*----------------------------------*\
| =========                 |                                                 |
| \\      /  F ield         | OpenFOAM: The Open Source CFD Toolbox           |
|  \\    /   O peration     | Version:  5.0                                   |
|   \\  /    A nd           | Web:      www.OpenFOAM.org                      |
|    \\/     M anipulation  |                                                 |
\*---------------------------------------------------------------------------*/
FoamFile
{
    version     2.0;
    format      ascii;
    class       surfaceVectorField;
    location    "4.7";
    object      Uf;
}
// * * * * * * * * * * * * * * * * * * * * * * * * * * * * * * * * * * * * * //

dimensions      [0 1 -1 0 0 0 0];

internalField   nonuniform List<vector> 
26710
(
(0.00101685 -0.00136852 -0.000104529)
(-0.00219012 -0.00164956 0.000201775)
(-0.00975407 -0.0005852 -0.000226483)
(0.00199599 0.003822 -0.000654264)
(0.0156671 0.00520355 -0.00166658)
(-0.00230779 0.00178666 -0.000977599)
(-0.0142122 0.0194322 4.92432e-05)
(-0.00249226 0.00156203 -0.000790855)
(0.00205885 -0.0126105 0.000823121)
(-0.00060739 0.00751712 0.00254036)
(0.00704321 0.00159308 0.000850639)
(0.000486958 0.00408368 0.00189359)
(0.00956058 -0.00325376 0.000536095)
(0.0173407 -0.00525387 0.00162466)
(-0.0155839 -0.0196503 -0.00154881)
(-0.0104384 -0.0213067 0.00708205)
(0.0177918 0.00331749 0.000573603)
(0.00257213 -0.018484 -0.0727332)
(-0.00647464 0.0312514 0.124193)
(0.0207309 -0.00503442 0.0148202)
(0.0174662 -0.00307472 -0.0429696)
(-0.00536706 0.000652659 -0.000578007)
(0.0117597 -0.00564225 0.00140155)
(-0.00761476 0.0034392 0.00293689)
(0.0269833 -0.0216419 -0.00253529)
(0.00713626 -0.000502576 -0.00103065)
(0.00183441 0.000411958 0.000146985)
(0.00518157 -0.00125079 0.000298471)
(0.00749409 -0.00148938 0.000511584)
(0.00044271 -5.35587e-05 4.7906e-05)
(0.000930875 -2.30943e-05 -6.24081e-06)
(0.000903836 -0.000149327 -5.35442e-05)
(0.00100453 -3.88093e-05 7.24297e-06)
(0.000464114 -3.80359e-05 2.03464e-06)
(0.000450031 -3.58965e-05 -2.82189e-06)
(0.00045429 -2.89753e-05 5.08746e-07)
(0.000746318 -5.31625e-05 2.90935e-07)
(0.000816247 -4.17922e-05 -8.23163e-07)
(0.000886636 -5.63892e-05 -1.37261e-06)
(0.00114949 -6.80632e-05 -1.12238e-06)
(0.000595702 -4.44038e-05 -4.19475e-06)
(0.000590819 -5.17723e-05 -4.96369e-06)
(0.000995555 -8.23131e-05 -5.18017e-06)
(0.000975671 -9.99192e-05 -6.39454e-06)
(0.000823918 -2.60401e-05 -5.58067e-08)
(0.000822332 -3.50818e-05 -4.65926e-07)
(0.00108043 -4.30094e-05 8.9384e-08)
(0.000827282 -1.59602e-05 1.45518e-07)
(0.000835692 -2.20194e-05 1.86889e-07)
(0.00110378 -2.60902e-05 2.04023e-07)
(0.00082958 -9.88488e-06 3.53961e-08)
(0.000832925 -1.35635e-05 3.59833e-08)
(0.0011041 -1.62226e-05 1.74064e-07)
(0.000830899 -5.9279e-06 3.49998e-08)
(0.000833216 -8.61153e-06 3.21636e-08)
(0.00110735 -9.96359e-06 1.89105e-07)
(0.000830055 -3.5318e-06 5.50807e-08)
(0.000832156 -5.5856e-06 4.93316e-08)
(0.00110747 -5.72678e-06 1.67679e-07)
(0.000829433 -2.27522e-06 3.00611e-08)
(0.00083078 -3.47359e-06 5.28258e-08)
(0.00110629 -3.61655e-06 1.86534e-07)
(0.000828387 -1.48428e-06 2.89004e-08)
(0.000829602 -9.12108e-07 3.52064e-08)
(0.00110524 -2.37514e-06 1.55838e-07)
(0.000827505 -8.71103e-07 5.12689e-08)
(0.000828401 -1.46325e-06 5.20107e-08)
(0.00110393 -1.5179e-06 1.81909e-07)
(0.000825989 -6.35348e-07 6.55206e-08)
(0.00082683 -1.04758e-06 6.39083e-08)
(0.00110238 -7.77425e-07 1.63839e-07)
(0.000823561 -6.1143e-07 1.37529e-07)
(0.000824956 -5.25717e-08 4.56016e-08)
(0.00109966 -8.73936e-07 2.38246e-07)
(0.000822341 -5.43283e-07 1.21007e-07)
(0.000823365 -6.65693e-07 1.11418e-07)
(0.00109722 -7.0226e-07 1.71169e-07)
(0.0008216 -3.99791e-07 5.69652e-08)
(0.000822121 -1.47972e-07 7.02994e-08)
(0.00109605 -6.67062e-07 1.71131e-07)
(0.000819903 -2.52893e-07 5.87453e-08)
(0.000820696 -8.10614e-08 5.7389e-08)
(0.00109429 -2.72734e-07 1.97969e-07)
(0.000818338 -1.85499e-07 7.23823e-08)
(0.000819132 -2.58307e-07 1.09204e-07)
(0.00109208 -2.76477e-07 1.93387e-07)
(0.000816656 3.49139e-09 5.80593e-08)
(0.000817736 -1.65359e-08 1.00538e-07)
(0.00108998 -1.3838e-07 1.82393e-07)
(0.000815237 2.55421e-07 5.65892e-08)
(0.00081626 5.17637e-07 4.68967e-08)
(0.00108786 2.08884e-07 1.18466e-07)
(0.000814205 3.28428e-07 7.40715e-08)
(0.000814649 -2.18778e-06 4.74403e-08)
(0.00108619 5.57775e-07 2.26542e-07)
(0.000812507 1.44782e-07 5.4092e-08)
(0.000813056 2.39133e-07 4.22721e-08)
(0.00108439 3.88137e-07 1.86392e-07)
(0.000811145 -4.86303e-08 3.02721e-08)
(0.000811627 -8.39145e-08 5.06841e-08)
(0.00108248 3.40237e-08 1.78893e-07)
(0.0008092 -1.87235e-07 2.52641e-08)
(0.00081002 1.62219e-06 6.01198e-08)
(0.00108014 -1.47049e-07 1.23164e-07)
(0.000807914 -3.66338e-07 6.08552e-08)
(0.000808416 -4.34517e-08 5.26599e-08)
(0.00107793 -3.79842e-07 1.88525e-07)
(0.000806011 -4.77146e-07 7.68764e-08)
(0.000806959 -8.06212e-07 -3.25293e-08)
(0.00107592 -6.91828e-07 3.73354e-07)
(0.000804498 -4.28492e-07 3.33555e-08)
(0.00080537 -7.05745e-07 4.50758e-08)
(0.0010735 -6.62233e-07 2.05341e-07)
(0.000803061 -2.22994e-07 5.92451e-08)
(0.000804064 -4.05497e-09 5.59641e-08)
(0.00107153 -5.0258e-07 2.17514e-07)
(0.000802254 7.06684e-09 8.59944e-08)
(0.000802918 -2.87935e-06 9.33244e-08)
(0.00107021 -8.13367e-08 3.10191e-07)
(0.000800519 5.01753e-08 6.85777e-08)
(0.000801323 1.88813e-07 4.75701e-08)
(0.00106853 1.32455e-07 1.79652e-07)
(0.000798865 -1.96238e-08 6.23473e-08)
(0.000799669 4.04713e-08 6.31429e-08)
(0.00106617 5.88597e-08 1.8885e-07)
(0.000797084 6.87797e-08 3.76966e-08)
(0.000798202 1.9345e-07 5.67485e-08)
(0.00106385 -5.10203e-08 1.80762e-07)
(0.00079547 3.89831e-07 5.80979e-08)
(0.000796692 4.32103e-07 2.49532e-08)
(0.00106146 2.67129e-07 1.49515e-07)
(0.000795174 4.00029e-07 6.68621e-08)
(0.000795264 -2.50578e-06 4.82431e-08)
(0.00106027 7.81649e-07 2.21986e-07)
(0.000793236 1.39058e-07 4.48188e-08)
(0.000793777 3.73416e-07 2.68019e-07)
(0.00105891 3.38543e-07 1.84842e-07)
(0.000791666 6.49176e-08 4.98172e-08)
(0.000792239 6.81676e-08 4.75203e-08)
(0.00105647 9.15805e-08 1.87631e-07)
(0.000790355 -6.6819e-08 7.80567e-08)
(0.000790798 -3.52733e-08 6.83464e-08)
(0.00105444 7.59824e-08 1.7736e-07)
(0.000789143 -2.84595e-07 4.69627e-08)
(0.000789456 -4.16904e-07 5.70095e-08)
(0.00105301 -3.03862e-07 1.79702e-07)
(0.000787074 -2.68322e-07 2.52296e-08)
(0.000788071 2.34478e-06 5.39294e-08)
(0.00105071 -4.73219e-07 9.06836e-08)
(0.000785734 -1.06302e-07 3.70813e-08)
(0.000786623 -3.42548e-07 4.73692e-08)
(0.00104839 -2.38609e-07 1.78464e-07)
(0.000784224 -4.98184e-08 3.47745e-08)
(0.000785098 5.54178e-08 4.52101e-08)
(0.00104656 -9.43581e-08 1.48041e-07)
(0.000783054 -9.35158e-08 1.1835e-07)
(0.000783646 1.85093e-07 6.63953e-08)
(0.00104468 -8.82905e-08 1.57166e-07)
(0.000781575 -2.18047e-07 1.16603e-07)
(0.000782319 8.61394e-08 1.23852e-07)
(0.00104308 -2.12544e-07 1.75656e-07)
(0.000779853 -3.09009e-07 2.55503e-08)
(0.000780706 -1.56651e-07 8.14366e-09)
(0.0010408 -4.12884e-07 2.02076e-07)
(0.000779295 8.68364e-07 6.1802e-08)
(0.00103859 -4.12813e-07 1.15967e-07)
(-0.00223856 -0.00230213 -1.46563e-05)
(-0.00053408 -0.00344963 0.000541711)
(0.00464641 -0.0011286 0.000875381)
(0.00230476 0.00200797 0.000456356)
(-0.00381331 0.00374624 0.000217496)
(0.00878254 0.00967035 -0.000315547)
(-8.23768e-05 0.00783429 0.000850821)
(0.00723946 -0.00351672 -0.000110906)
(-0.00237605 -0.00155775 -0.000541308)
(0.00774491 -0.000547004 -0.00120516)
(0.0103231 -0.00415528 -0.000192208)
(0.00734145 -0.00225451 4.15613e-05)
(0.00940959 -0.00160821 -0.0007039)
(-0.000362546 -7.85025e-05 -0.00151364)
(0.00538137 -0.00689794 -0.000143994)
(-0.00325074 -0.00914607 0.000854379)
(0.017365 -0.00816166 -0.000283063)
(0.00598186 -0.00869743 0.000345536)
(-0.00355198 -0.00583934 0.0011578)
(0.0102156 -0.00269584 0.00016938)
(0.00982114 -0.00126399 0.000502242)
(-0.0133053 -0.015059 0.00040177)
(-0.0107479 -0.00373467 -0.00398931)
(-0.00829955 -0.00960662 -0.00365985)
(-0.00973377 -0.00272908 -0.00331254)
(-0.00988956 0.00916074 -0.00451519)
(-0.00230998 0.0133087 -0.00500662)
(-0.00660506 -0.00824118 -0.00349327)
(0.00205063 -0.0165794 -0.0665462)
(-0.00939042 -0.00643327 0.025276)
(0.00619424 -0.00644257 0.00523311)
(-0.00150769 -0.0130438 0.032593)
(0.0135165 0.00687301 0.00128029)
(0.0221332 0.0111629 0.000462349)
(0.00354965 0.0024085 1.60981e-05)
(0.00919903 -0.0111507 -3.06207e-05)
(0.0139847 -0.00239721 0.00277227)
(-0.00754173 0.0080124 0.000628322)
(-0.00995929 -0.00505271 0.000651801)
(-0.019232 -0.00478693 0.000119716)
(-0.0221064 -0.00541885 1.3277e-05)
(-0.0189877 -0.00376387 0.00168475)
(0.00168765 0.000783991 7.06179e-05)
(0.00175623 0.000594318 0.00010108)
(0.00175263 0.000312919 0.000139927)
(0.00176353 0.00110536 3.19171e-05)
(0.00153471 0.000298121 7.61648e-05)
(0.00035154 -4.20574e-05 -2.74054e-06)
(0.000505188 -5.33667e-05 -3.2882e-06)
(0.000488373 -6.10844e-05 -8.26611e-07)
(0.000810112 -0.000112705 -1.08213e-06)
(0.000334764 -3.06152e-05 -1.83664e-06)
(0.000646945 -7.7742e-05 -3.90829e-06)
(0.000617591 -4.77121e-05 2.76174e-06)
(0.000472331 -5.56161e-05 -1.11786e-07)
(0.000849148 -4.37737e-05 -1.01567e-06)
(0.000908313 -5.22868e-05 -2.03577e-06)
(0.00121477 -7.36481e-05 -1.18349e-06)
(0.000621274 -4.48249e-05 -3.84295e-06)
(0.000637809 -3.23484e-05 -5.17261e-06)
(0.00102661 -8.22878e-05 -4.69111e-06)
(0.00106525 -5.25106e-05 -6.41019e-06)
(0.000843253 -2.70582e-05 -2.23443e-07)
(0.00084338 -2.77938e-05 -3.69561e-07)
(0.00111213 -4.33495e-05 4.97622e-08)
(0.000839506 -1.75306e-05 7.7403e-08)
(0.000847696 -1.96056e-05 1.30172e-07)
(0.00112437 -2.88551e-05 2.02516e-07)
(0.000836896 -1.09278e-05 3.27521e-08)
(0.000841239 -1.22204e-05 3.40189e-08)
(0.00111684 -1.78446e-05 1.78672e-07)
(0.000834726 -7.02409e-06 4.64899e-08)
(0.000838133 -7.88231e-06 5.01693e-08)
(0.00111442 -1.12114e-05 1.831e-07)
(0.000832742 -4.57463e-06 4.70756e-08)
(0.000835241 -5.08261e-06 4.7649e-08)
(0.00111153 -7.42422e-06 1.82753e-07)
(0.000830935 -2.94497e-06 5.79768e-08)
(0.000832833 -3.20733e-06 5.11159e-08)
(0.00110908 -4.68948e-06 1.84044e-07)
(0.000829617 -1.95837e-06 5.83113e-08)
(0.000830845 -1.93867e-06 5.94856e-08)
(0.00110698 -3.08525e-06 2.31122e-07)
(0.000827955 -1.45083e-06 6.46463e-08)
(0.000829043 -1.36728e-06 5.32096e-08)
(0.00110505 -2.06453e-06 1.83867e-07)
(0.000825701 -1.16798e-06 4.39951e-08)
(0.000827189 -1.42658e-07 5.79955e-08)
(0.00110245 -1.72339e-06 1.79244e-07)
(0.000824709 -7.20932e-07 1.94693e-08)
(0.000825518 1.21293e-06 7.96924e-08)
(0.00110022 -1.26814e-06 4.55754e-08)
(0.000822982 -2.63443e-07 6.07239e-08)
(0.000823938 -5.03823e-07 3.63934e-08)
(0.00109844 -5.44344e-07 1.85707e-07)
(0.000821398 -9.42928e-08 7.07273e-08)
(0.000822333 -8.90011e-08 6.19683e-08)
(0.00109625 -9.50512e-08 1.80619e-07)
(0.000819852 1.90849e-08 1.07831e-07)
(0.000820837 -9.60267e-08 4.9106e-08)
(0.00109413 -1.04999e-07 1.82753e-07)
(0.000818614 1.53556e-07 1.37362e-07)
(0.000819299 -9.77635e-07 9.76185e-08)
(0.00109212 2.33717e-07 2.05175e-07)
(0.000817254 1.59586e-07 8.93923e-08)
(0.000817742 1.12821e-07 1.30819e-08)
(0.00109056 2.84905e-07 1.5683e-07)
(0.000815723 1.55207e-07 3.77477e-08)
(0.000816253 -1.263e-07 5.95067e-08)
(0.00108877 2.35339e-07 2.2614e-07)
(0.000813499 6.6185e-08 1.56426e-08)
(0.000814537 -2.17984e-07 1.81198e-08)
(0.00108606 2.34458e-07 1.03934e-07)
(0.000812128 -8.46123e-08 3.88615e-08)
(0.000812868 1.11741e-07 4.46467e-08)
(0.00108361 8.051e-09 1.76176e-07)
(0.000810564 -3.17127e-07 8.05288e-08)
(0.000811337 -1.66093e-08 5.42668e-08)
(0.00108173 -1.75546e-07 1.79581e-07)
(0.000809168 -4.16301e-07 8.7518e-08)
(0.000809897 -2.23883e-07 7.52911e-08)
(0.00107974 -6.88248e-07 2.99841e-07)
(0.000807552 -3.14907e-07 -4.06978e-08)
(0.000808545 -1.2862e-08 4.5855e-08)
(0.00107761 -4.67604e-07 1.86986e-07)
(0.000806245 -2.17584e-07 -6.43542e-08)
(0.000807082 3.14257e-07 2.0177e-08)
(0.0010758 -4.05618e-07 8.27101e-08)
(0.00080484 1.38798e-07 6.76811e-08)
(0.000805816 4.6671e-07 3.83186e-08)
(0.00107401 -2.09621e-07 8.76867e-08)
(0.000803976 4.72871e-07 9.00317e-08)
(0.00080448 -2.02544e-06 6.11576e-08)
(0.00107246 5.79787e-07 2.66194e-07)
(0.000802132 3.25117e-07 5.49144e-08)
(0.000802731 -2.23302e-06 3.35418e-08)
(0.00107074 7.18807e-07 1.63884e-07)
(0.000800305 1.36245e-07 4.21304e-08)
(0.000801086 6.77592e-07 6.78291e-08)
(0.00106819 1.84415e-07 1.73603e-07)
(0.000799068 1.81918e-07 5.75461e-08)
(0.000799725 -2.16435e-08 4.59917e-08)
(0.0010661 1.92508e-07 1.60148e-07)
(0.000797803 3.08941e-07 4.4015e-08)
(0.000798359 2.28476e-07 7.50316e-08)
(0.00106444 2.86371e-07 1.55917e-07)
(0.000796448 5.64486e-07 1.50912e-08)
(0.000797009 1.05706e-07 3.11071e-08)
(0.0010628 5.32061e-07 1.89866e-07)
(0.000793948 5.65571e-07 2.49332e-07)
(0.000795263 -8.63722e-07 2.26174e-08)
(0.00106019 9.58685e-07 1.51238e-07)
(0.000792712 2.63641e-07 2.70789e-07)
(0.000793398 3.28158e-07 2.84489e-07)
(0.00105757 5.65889e-07 1.59007e-07)
(0.000791357 3.45352e-08 6.60431e-08)
(0.000791952 -7.46549e-08 -1.79052e-08)
(0.00105589 1.63775e-07 1.76855e-07)
(0.000789968 -2.21916e-07 4.73027e-08)
(0.000790478 -1.22952e-07 6.27377e-08)
(0.00105406 -7.65139e-08 1.75987e-07)
(0.000788283 -4.55017e-07 6.39772e-08)
(0.000789166 -2.13734e-07 6.22934e-08)
(0.00105197 -5.03712e-07 1.81793e-07)
(0.000787683 -3.41907e-07 7.6071e-08)
(0.000788214 1.9652e-07 9.8645e-08)
(0.00105061 -6.96731e-07 2.54199e-07)
(0.000786022 -1.53541e-07 5.54987e-08)
(0.00078686 1.45786e-07 5.16623e-08)
(0.00104903 -2.32782e-07 1.59141e-07)
(0.000784412 -4.34879e-08 7.68244e-08)
(0.000785236 -1.41176e-08 9.35287e-08)
(0.00104682 -2.21656e-07 1.95287e-07)
(0.000782953 5.20331e-09 7.18796e-08)
(0.000783708 1.64725e-07 8.81097e-08)
(0.00104482 6.47319e-08 1.78104e-07)
(0.000781535 -1.31807e-07 1.54278e-08)
(0.000782148 9.13056e-08 6.5468e-08)
(0.00104285 -7.86017e-08 1.72472e-07)
(0.000779972 -2.03169e-07 4.43791e-08)
(0.00078062 5.12092e-07 2.02186e-08)
(0.00104081 -3.06647e-07 1.37442e-07)
(0.000779548 -1.7695e-07 1.13112e-07)
(0.00103924 -2.62264e-07 2.32648e-07)
(-0.0011828 -0.00265945 1.54191e-05)
(0.00344454 -0.0057898 -0.000141887)
(-0.00188947 -0.00443586 0.000324078)
(-0.000158812 0.00251558 -0.000337238)
(-0.000981883 0.00125411 -3.01869e-05)
(5.93199e-05 -0.00135386 -0.000273482)
(0.00243489 -0.00638397 -6.70355e-05)
(0.00508059 0.00585252 -0.000198594)
(0.00111096 0.000888142 -0.00127712)
(0.00852718 -0.00293266 -0.000274518)
(0.00270544 -0.00399186 0.00022197)
(0.0118496 0.000879559 -0.00013014)
(0.00937151 -0.00139596 -5.60383e-05)
(0.00457956 0.00595671 0.000159065)
(0.0168565 0.00218995 -0.000567844)
(0.000141621 0.004888 0.00206354)
(0.00178964 0.00326946 0.00106536)
(0.00150654 0.00205053 -0.00574738)
(0.00246736 0.00375708 0.00298023)
(-0.00132263 -0.00345772 0.000122906)
(0.00518406 -0.0098697 -6.36462e-05)
(0.00103701 -0.00919957 0.000496198)
(-0.00794723 -0.00717039 0.000758058)
(-0.00111295 0.00437489 9.06789e-06)
(-0.000656278 0.00422815 -7.49673e-05)
(0.000909611 0.00371837 0.000343989)
(-0.00149152 0.00646033 -0.000236641)
(-0.00456235 0.0057203 0.000143767)
(-0.00276114 0.00920635 0.000192671)
(-0.0024194 0.00159312 0.000605426)
(-0.0048658 0.00513969 0.000412872)
(-0.00694478 0.00423217 -0.000113518)
(0.00149923 0.00164544 0.000124649)
(-0.00451351 0.000543394 0.000202738)
(0.00360698 0.0021801 0.000311514)
(-0.00152476 0.00118693 0.000644317)
(9.00616e-05 -0.000352019 1.55896e-05)
(0.000495305 -9.07041e-05 1.81274e-05)
(0.000324351 -0.000507276 6.12937e-06)
(-0.000217249 -0.000495375 1.29551e-06)
(0.00040805 -0.000282732 7.30657e-05)
(0.000290556 -7.49328e-05 1.67772e-05)
(0.000339584 -2.51068e-05 5.321e-07)
(0.000297638 -3.46184e-05 2.91832e-06)
(0.000471596 -5.28812e-05 5.00401e-06)
(0.000239034 -2.96865e-05 -1.2195e-06)
(0.000864786 -3.99874e-05 -1.39021e-06)
(0.000923289 -5.42159e-05 -2.69344e-06)
(0.0012074 -7.2891e-05 -1.32975e-06)
(0.000631253 -3.32252e-05 -4.6767e-06)
(0.000630792 -5.75374e-05 -5.34292e-06)
(0.00106282 -5.48384e-05 -5.42227e-06)
(0.00106259 -0.000110922 -5.9397e-06)
(0.000854384 -2.1685e-05 -1.61086e-08)
(0.000866321 -1.62396e-05 -2.30354e-07)
(0.00113681 -3.43497e-05 1.45387e-07)
(0.000847812 -1.41487e-05 8.68193e-08)
(0.000857206 -1.36762e-05 4.59249e-08)
(0.0011359 -2.37313e-05 2.04695e-07)
(0.000842494 -8.68579e-06 5.14309e-08)
(0.000848125 -7.64021e-06 2.49661e-08)
(0.00112631 -1.40983e-05 1.89159e-07)
(0.000838504 -5.56212e-06 5.13293e-08)
(0.000842073 -4.925e-06 4.26547e-08)
(0.00112048 -9.10772e-06 1.86581e-07)
(0.000835249 -3.50629e-06 5.16882e-08)
(0.000837833 -3.02818e-06 4.83382e-08)
(0.00111568 -5.73956e-06 1.8542e-07)
(0.000832572 -2.20116e-06 5.2622e-08)
(0.000834478 -1.86534e-06 4.80795e-08)
(0.00111175 -3.6117e-06 1.84926e-07)
(0.000830345 -1.45081e-06 5.43859e-08)
(0.000831792 -1.16252e-06 5.00931e-08)
(0.00110854 -2.26611e-06 1.85474e-07)
(0.000828303 -1.08806e-06 4.65573e-08)
(0.000829502 -8.01479e-07 5.18713e-08)
(0.00110565 -1.59963e-06 1.84184e-07)
(0.000826802 -7.96651e-07 9.36858e-08)
(0.000827558 -7.56385e-07 6.28182e-08)
(0.00110339 -1.27009e-06 2.1911e-07)
(0.000824899 -4.92442e-07 9.66304e-08)
(0.000825902 5.68261e-07 9.7026e-08)
(0.00110114 -8.64318e-07 2.56464e-07)
(0.000823164 -2.86643e-07 3.76297e-08)
(0.000824198 -2.70534e-07 3.89303e-08)
(0.00109869 -4.91253e-07 1.81425e-07)
(0.000821802 -1.35077e-07 4.03511e-08)
(0.000822523 -2.51966e-07 4.84017e-08)
(0.0010966 -3.07191e-07 1.76756e-07)
(0.000820275 1.82755e-08 3.88781e-08)
(0.000821029 -9.89215e-08 5.07087e-08)
(0.0010947 -8.06224e-08 1.80267e-07)
(0.000818464 9.4806e-08 -2.66347e-08)
(0.000819394 5.10849e-09 3.43042e-08)
(0.00109257 1.26014e-07 1.36607e-07)
(0.00081667 2.37257e-08 -1.68184e-08)
(0.000817653 2.25524e-08 -1.01914e-08)
(0.00108998 1.74392e-07 2.09981e-07)
(0.000815233 -1.18963e-07 3.9892e-08)
(0.000816075 -1.81733e-07 3.80788e-08)
(0.00108779 -6.28726e-08 1.76745e-07)
(0.000813687 -1.30705e-07 4.71155e-08)
(0.000814522 -1.90548e-07 3.1749e-08)
(0.00108591 -2.25561e-07 1.80586e-07)
(0.000812205 -3.54246e-08 6.00489e-08)
(0.000812987 2.84634e-08 6.17683e-08)
(0.00108388 -8.26418e-08 1.82817e-07)
(0.00081057 3.20956e-08 4.90224e-08)
(0.000811421 -4.341e-08 5.83197e-08)
(0.00108161 2.76689e-08 1.92425e-07)
(0.00080931 2.68992e-07 3.36373e-08)
(0.000810192 3.51991e-07 1.68907e-08)
(0.00107978 1.01287e-07 1.17156e-07)
(0.000808123 5.05352e-07 1.06738e-07)
(0.000808838 7.15901e-07 3.3024e-08)
(0.00107829 6.70793e-07 9.99193e-08)
(0.000806536 5.53473e-07 1.22844e-07)
(0.000807139 4.00125e-07 1.32207e-07)
(0.00107624 7.748e-07 1.80659e-07)
(0.000805524 5.23397e-07 3.1788e-08)
(0.000805775 5.9645e-07 1.63882e-08)
(0.00107473 7.91673e-07 1.26782e-07)
(0.000803336 3.27284e-07 4.67625e-09)
(0.000804233 6.72521e-08 2.46915e-08)
(0.00107269 6.29595e-07 9.16707e-08)
(0.000801551 9.33734e-08 4.64458e-08)
(0.000802438 2.08971e-07 2.87927e-08)
(0.00106971 2.61653e-07 3.08376e-08)
(0.000800488 7.11929e-08 7.16972e-08)
(0.000801058 2.58147e-07 8.41447e-08)
(0.00106786 1.37315e-08 1.70215e-07)
(0.000799038 1.08739e-07 6.34682e-08)
(0.000799772 -9.08346e-08 4.84337e-08)
(0.00106629 1.68302e-07 1.79754e-07)
(0.000797546 3.07559e-08 6.21374e-08)
(0.000798261 4.85026e-08 5.17703e-08)
(0.00106427 1.08124e-07 1.91524e-07)
(0.000796068 -1.34082e-07 3.8636e-08)
(0.000796803 -5.33105e-08 4.94831e-08)
(0.0010623 -1.39744e-08 1.88853e-07)
(0.000794477 -2.04591e-07 5.76927e-08)
(0.000795176 -3.91576e-07 2.04791e-08)
(0.00106031 -2.9389e-07 1.53681e-07)
(0.00079264 -6.99866e-08 -4.112e-09)
(0.000793566 -6.03237e-07 3.96456e-08)
(0.00105791 -2.19235e-07 2.76835e-07)
(0.000791141 5.5532e-08 -2.12354e-08)
(0.000792109 -9.84637e-08 -2.18042e-08)
(0.00105567 2.56967e-08 1.81249e-07)
(0.000789569 2.43757e-07 7.77285e-08)
(0.000790713 3.56753e-07 1.32588e-07)
(0.00105361 1.30835e-07 1.5148e-07)
(0.00078898 4.27618e-07 9.695e-08)
(0.000789395 -2.69586e-06 1.31577e-07)
(0.00105224 5.46939e-07 2.76994e-07)
(0.000787672 3.34753e-07 7.42506e-08)
(0.000788096 4.94965e-07 5.70406e-08)
(0.00105105 6.22839e-07 1.4098e-07)
(0.00078601 1.90667e-07 8.96795e-08)
(0.000786678 2.90315e-07 5.26221e-08)
(0.00104898 3.27602e-07 1.84235e-07)
(0.000784486 1.86152e-07 1.04816e-07)
(0.000785229 -1.91129e-08 8.5421e-08)
(0.00104694 2.62548e-07 1.82742e-07)
(0.000782901 2.72433e-07 8.1705e-08)
(0.000783814 1.99768e-07 7.46932e-08)
(0.00104486 2.83729e-07 1.85579e-07)
(0.00078126 2.22183e-07 7.02725e-08)
(0.000782084 3.95735e-07 6.2035e-08)
(0.00104262 4.50111e-07 1.71024e-07)
(0.00077999 9.42299e-08 8.89228e-08)
(0.000780458 2.54566e-07 5.62395e-08)
(0.00104058 1.45971e-07 1.78332e-07)
(0.00077943 -8.13981e-07 1.44751e-07)
(0.0010393 1.17193e-07 1.97255e-07)
(0.00506637 -0.00145163 -0.000187531)
(0.00360666 0.000830126 -0.000424622)
(0.00360933 4.37708e-05 -0.000794766)
(0.00349534 0.00362395 0.000108513)
(0.00250461 -0.00155184 0.000157416)
(-0.00209339 -0.00130608 0.000317865)
(-0.00161337 0.00239626 8.22567e-05)
(0.00230116 0.00232765 9.93867e-05)
(0.00277451 0.00683831 -9.70686e-05)
(0.0032328 0.00177228 -7.54413e-05)
(-0.00898542 -0.000447787 0.000251995)
(0.00104102 0.00121508 -5.83882e-06)
(0.00498556 0.00557104 0.00224121)
(0.0121704 0.00184853 0.00561876)
(0.0146764 0.00195212 -0.00506482)
(0.00540079 0.00220812 -0.000205155)
(0.00334115 0.00329659 -8.82078e-05)
(0.00598511 0.000798573 -8.0993e-05)
(0.00159647 -0.0022365 -4.48651e-05)
(-0.00654652 0.00233194 -0.00015336)
(-0.00203555 0.000303566 1.12628e-05)
(-0.0124441 -0.0019006 0.00024245)
(0.00609821 0.00169702 0.000587882)
(0.00473907 -0.00156691 0.0001818)
(0.00328275 0.00239272 8.50301e-05)
(0.00618966 0.0017094 -2.09184e-05)
(0.00669375 0.00332054 0.00254193)
(0.0177186 0.000716669 -0.00334579)
(0.00652386 0.00871455 0.00180703)
(0.00566084 -0.000806656 0.000758192)
(-0.00354917 0.000166143 9.88208e-05)
(0.00390371 -0.000911189 8.81446e-05)
(0.00591229 -0.000111152 0.000472987)
(0.0103112 0.00129501 9.2967e-05)
(0.00628003 0.00113137 -0.000281956)
(0.00295814 0.00126426 -1.97532e-05)
(0.00381793 0.00239883 0.000183551)
(0.0242831 0.00325124 0.000206156)
(0.00039517 -0.000239655 -1.17857e-05)
(0.000723205 -0.000149784 -8.51129e-06)
(0.00130778 -0.00040368 -4.03717e-05)
(0.00203561 -0.000962655 -1.80027e-05)
(0.000634919 -0.000116707 6.96713e-06)
(0.000526271 4.64179e-06 -4.394e-05)
(0.000437314 0.000224328 1.431e-05)
(0.000818117 -7.57997e-05 -1.28275e-05)
(0.000944392 3.94562e-05 -8.4313e-07)
(0.00121946 0.000392728 -1.5634e-05)
(0.0009292 0.000219822 -1.81001e-05)
(0.00102325 -0.000147057 4.79122e-05)
(0.00146912 0.00019884 -1.01144e-05)
(0.000888216 -0.000292848 6.94701e-06)
(0.00150521 -3.72244e-05 2.91693e-05)
(0.000496128 -0.000225566 4.54736e-05)
(0.000478166 -0.00020018 5.72447e-05)
(0.000684876 -0.000236005 8.88468e-05)
(0.000433351 -0.000133984 2.67974e-05)
(0.000901292 -2.22483e-05 -1.53439e-06)
(0.000656715 -1.28059e-05 -1.83693e-06)
(0.00125465 -6.52726e-05 -1.49544e-06)
(0.00067578 -2.2282e-05 -5.88437e-06)
(0.000659248 -2.87225e-05 -2.26214e-06)
(0.00113567 -3.13439e-05 -5.618e-06)
(0.00114244 -4.35586e-05 2.57628e-06)
(0.00061683 -3.61262e-05 -4.91232e-06)
(0.00111412 -1.34161e-05 -1.38693e-06)
(0.0010214 -5.2818e-05 -5.75663e-06)
(0.00087015 -1.06622e-06 -1.68411e-07)
(0.000902999 2.20414e-05 -8.4572e-07)
(0.00117371 5.79569e-06 9.36837e-08)
(0.00085674 -4.65445e-06 -1.59215e-08)
(0.000852781 1.23068e-06 -2.79306e-07)
(0.00114993 -8.81749e-06 1.75292e-07)
(0.000847099 -2.5414e-06 1.61842e-08)
(0.000850792 2.51118e-06 8.75756e-08)
(0.00113527 -3.66457e-06 1.77871e-07)
(0.000841175 -1.87184e-06 3.96618e-08)
(0.000842925 4.90736e-07 6.07881e-08)
(0.00112496 -3.17912e-06 1.83847e-07)
(0.00083687 -1.0465e-06 4.47296e-08)
(0.000838876 3.54017e-07 5.16197e-08)
(0.00111846 -1.86095e-06 1.84517e-07)
(0.000833571 -5.50003e-07 4.555e-08)
(0.000835105 2.92942e-07 1.80924e-08)
(0.00111346 -9.74376e-07 1.82323e-07)
(0.000830881 -3.36148e-07 4.75779e-08)
(0.000832063 2.3452e-07 3.10588e-08)
(0.00110952 -5.29315e-07 1.82504e-07)
(0.000828639 -1.95375e-07 6.81287e-08)
(0.00082968 5.45498e-08 4.93035e-08)
(0.00110631 -3.8758e-07 1.815e-07)
(0.000826651 -1.63342e-07 6.61474e-08)
(0.000827599 7.64133e-08 6.78673e-08)
(0.00110338 -1.37032e-07 1.61416e-07)
(0.000825251 -2.57793e-07 3.93446e-08)
(0.000825785 2.42406e-07 4.60246e-08)
(0.0011012 -2.98565e-07 1.90874e-07)
(0.000823457 -2.04894e-07 4.96993e-08)
(0.000824265 -9.14219e-08 4.77213e-08)
(0.00109914 -3.86422e-07 1.90406e-07)
(0.000821754 -1.43752e-07 5.87586e-08)
(0.000822601 -1.36118e-07 6.48678e-08)
(0.00109677 -1.82042e-07 1.86939e-07)
(0.000820213 -2.1493e-07 4.61401e-08)
(0.000820942 -1.24834e-07 1.14555e-07)
(0.00109467 -2.3381e-07 1.83036e-07)
(0.000818497 -2.05735e-07 5.07617e-08)
(0.000819407 -2.59397e-07 1.57388e-07)
(0.00109244 -3.61459e-07 2.15195e-07)
(0.000817096 -5.53345e-08 4.46905e-08)
(0.000817842 4.89496e-08 8.59648e-08)
(0.00109032 -2.29749e-07 1.67599e-07)
(0.000815366 1.04346e-07 2.99379e-08)
(0.000816274 3.48761e-08 5.17242e-08)
(0.00108827 3.23924e-08 1.83345e-07)
(0.000813746 2.32934e-07 4.63924e-08)
(0.000814682 -2.06242e-08 4.9254e-08)
(0.00108603 2.11509e-07 1.7711e-07)
(0.000812282 3.73428e-07 6.00403e-08)
(0.000813161 5.32696e-08 6.43907e-08)
(0.00108392 3.90762e-07 1.73647e-07)
(0.00081087 5.93832e-07 2.62012e-08)
(0.000811694 6.67194e-07 4.80084e-08)
(0.00108196 6.14387e-07 1.21039e-07)
(0.000809945 6.26877e-07 1.62724e-08)
(0.00081023 1.04342e-06 1.16144e-08)
(0.00108054 1.04717e-06 7.95029e-08)
(0.00080775 4.45015e-07 5.84618e-08)
(0.000808607 4.06985e-07 3.07125e-08)
(0.00107845 7.38487e-07 2.62077e-07)
(0.000806347 4.60375e-07 2.57872e-08)
(0.000807155 3.70572e-07 6.75924e-08)
(0.00107594 5.79413e-07 1.72658e-07)
(0.000804631 2.91864e-07 9.28911e-09)
(0.000805562 -4.72071e-07 1.50375e-08)
(0.00107382 7.96341e-07 2.73953e-07)
(0.000803237 1.28858e-08 4.88067e-08)
(0.000803883 -6.21221e-08 3.85237e-08)
(0.00107179 1.02775e-07 1.78866e-07)
(0.00080181 9.13136e-08 6.64743e-08)
(0.000802535 8.68494e-08 5.22373e-08)
(0.00106997 -6.34139e-09 1.81469e-07)
(0.000800491 1.36128e-07 6.08923e-08)
(0.000801113 -4.5437e-07 5.8162e-08)
(0.00106807 2.6145e-07 2.13903e-07)
(0.000798941 4.5061e-08 3.67348e-08)
(0.000799658 -7.60721e-09 4.59884e-08)
(0.00106621 1.01182e-07 1.77816e-07)
(0.000797546 -5.46171e-08 3.91167e-08)
(0.000798137 -7.53073e-08 4.90546e-08)
(0.00106421 1.83732e-08 1.78751e-07)
(0.000795943 -2.24359e-07 3.13352e-08)
(0.000796592 1.61221e-07 5.51225e-08)
(0.00106229 -1.64188e-07 1.73302e-07)
(0.000794175 -3.47114e-07 2.42605e-09)
(0.000795023 -2.61571e-07 3.14751e-08)
(0.00105993 -4.55149e-07 1.94135e-07)
(0.000793099 -2.34506e-07 2.19724e-08)
(0.000793708 5.72837e-07 -9.62933e-08)
(0.00105797 -5.08067e-07 5.67672e-08)
(0.000791627 6.63807e-08 1.31972e-07)
(0.000792485 -3.90381e-08 5.25927e-08)
(0.00105633 -1.15489e-07 1.72834e-07)
(0.000790557 4.06614e-07 1.86437e-07)
(0.000791137 2.65695e-07 1.43997e-07)
(0.00105471 3.32612e-07 1.47449e-07)
(0.00078846 4.68517e-07 9.16901e-08)
(0.00078947 2.2369e-07 1.09844e-07)
(0.00105258 7.7877e-07 2.26859e-08)
(0.000787151 2.33862e-07 3.54134e-08)
(0.000787801 3.03122e-07 5.73526e-08)
(0.00105033 5.03046e-07 1.76562e-07)
(0.000785896 9.04087e-08 4.83537e-08)
(0.000786498 -7.18485e-08 5.29327e-08)
(0.00104858 1.66402e-07 1.84056e-07)
(0.000784526 1.0106e-07 5.53019e-08)
(0.000785242 4.01489e-08 4.8436e-08)
(0.00104676 1.01952e-07 1.64094e-07)
(0.00078317 2.4404e-07 5.50271e-08)
(0.000783992 8.1487e-07 3.58754e-08)
(0.00104505 1.64138e-07 1.2242e-07)
(0.000781068 2.96082e-07 4.80037e-08)
(0.000782148 1.1554e-06 4.40858e-08)
(0.00104268 4.36981e-07 1.79886e-07)
(0.000779839 2.43236e-07 1.1204e-07)
(0.000780389 3.50671e-08 5.49986e-08)
(0.00104039 3.06543e-07 1.71803e-07)
(0.000779127 -1.26871e-06 1.14509e-07)
(0.00103891 3.33267e-07 2.08368e-07)
(0.00228788 0.00106177 -7.98691e-05)
(-0.00124141 0.00653691 0.000120981)
(-0.000559055 0.000548841 -0.000502529)
(0.000551283 -4.7404e-05 0.000132005)
(-0.00452266 -0.00192439 0.000259398)
(0.00324066 -0.00215829 6.84687e-05)
(-2.23611e-05 -0.00335121 0.00153734)
(-0.00500209 -0.00267581 0.000172868)
(0.00750897 -0.00573255 -0.000769472)
(0.00740518 -0.00296561 7.61209e-05)
(0.00200441 0.000911565 -5.55479e-05)
(0.00190045 0.00123085 0.000325252)
(0.00206541 0.00161901 -7.22863e-05)
(0.00260465 7.88461e-05 0.000113304)
(0.000746622 0.00238409 2.37705e-05)
(0.00124335 0.000359349 -0.000438329)
(0.00402073 0.00173921 6.46697e-05)
(0.00229481 -0.000440387 5.68282e-05)
(0.00155029 -0.00155012 -8.97889e-06)
(0.00455534 0.000157032 -0.000106318)
(0.00906583 -0.00314902 1.19889e-06)
(0.0110243 -0.007114 0.000684957)
(0.0126373 -0.00177932 -0.000357709)
(0.00391578 -0.00784799 -0.000398269)
(0.000127346 -0.00583421 -4.53576e-05)
(0.000127142 -0.00687531 -0.000415147)
(0.00271655 -0.00491744 -4.17331e-05)
(0.00898081 -0.0128409 0.00019481)
(0.00649982 -0.00704119 0.000368334)
(0.00635629 -0.00858172 0.000955957)
(0.00641645 -0.0101316 7.68423e-05)
(-0.000244836 0.00126932 0.000112773)
(-0.00203883 -0.000856459 -7.47513e-05)
(-0.00226858 -0.00104924 -1.46892e-05)
(-0.00178727 -0.00104765 1.3047e-05)
(-0.002355 -0.00121002 0.000175352)
(0.000169532 -0.000507867 5.88944e-06)
(0.00092964 -0.000151351 -3.57182e-05)
(0.00129622 -0.000334822 4.23961e-06)
(0.000470146 -0.000730478 -3.37713e-05)
(-3.92102e-06 -0.000616126 5.1554e-06)
(0.000913331 -0.000843587 7.9117e-06)
(-0.000453133 -0.000792886 5.13222e-05)
(0.000621739 -0.000164343 -2.58422e-05)
(0.000730346 -0.000320984 5.6262e-06)
(0.000786637 -0.000146525 2.54183e-05)
(0.000676012 -0.00032614 -4.15171e-06)
(0.000670997 2.94973e-05 3.94275e-05)
(0.00133785 5.40114e-05 2.54251e-06)
(0.00154727 0.000144325 2.54136e-06)
(0.00147856 -2.1631e-06 -6.92959e-05)
(0.00141916 -7.03076e-06 1.95439e-05)
(0.000361303 -2.61867e-05 -3.32589e-06)
(0.000517679 -9.73552e-06 -3.80868e-06)
(0.000518821 -5.54266e-07 -4.52281e-07)
(0.000857667 -2.75054e-06 -1.60021e-06)