/*--------------------------------*- C++ -*----------------------------------*\
| =========                 |                                                 |
| \\      /  F ield         | OpenFOAM: The Open Source CFD Toolbox           |
|  \\    /   O peration     | Version:  5.0                                   |
|   \\  /    A nd           | Web:      www.OpenFOAM.org                      |
|    \\/     M anipulation  |                                                 |
\*---------------------------------------------------------------------------*/
FoamFile
{
    version     2.0;
    format      ascii;
    class       surfaceVectorField;
    location    "4.7";
    object      Uf_0;
}
// * * * * * * * * * * * * * * * * * * * * * * * * * * * * * * * * * * * * * //

dimensions      [0 1 -1 0 0 0 0];

internalField   nonuniform List<vector> 
26710
(
(0.000240521 -0.00185036 1.92975e-06)
(-0.00238693 -0.00198822 0.000209337)
(-0.0103127 -0.000792067 -0.000172799)
(-0.00391851 0.00422522 -0.000689354)
(0.0035799 0.00686825 -0.00202167)
(-0.00717047 0.00160107 -0.00133382)
(-0.0224542 0.0216914 0.000263101)
(-0.0103594 0.00376919 0.00068689)
(0.00253191 -0.0114335 0.00102996)
(-0.00243159 0.00651751 0.00319955)
(0.00526535 0.00169055 0.000852209)
(-0.000708936 0.00523874 0.00256926)
(0.00926996 -0.00301357 0.000705287)
(0.0226463 -0.00612211 0.00214097)
(0.0322105 -0.0214286 0.00124809)
(-0.00901587 -0.0205691 0.00498907)
(-0.00310355 0.0031818 -0.00195277)
(0.0172972 -0.00302266 -0.00113934)
(0.0172972 -0.00302266 -0.00113934)
(0.0172972 -0.00302266 -0.00113934)
(0.0172972 -0.00302266 -0.00113934)
(0.000868864 0.000415108 -0.00303822)
(0.00742497 -0.000584677 -0.000156771)
(-0.00976901 0.0053762 -0.00156464)
(-0.0133522 -0.0208887 0.00227041)
(0.00908512 -0.00228655 -0.00120787)
(0.00282422 -0.000819227 0.000214312)
(0.00730923 -0.00362946 0.000259357)
(0.009076 -0.0039736 0.000730008)
(0.000499028 -0.000212433 5.12792e-05)
(0.000999006 -0.000102393 -4.11368e-06)
(0.000955124 -0.000254026 -5.34824e-05)
(0.00105089 -9.83613e-05 8.85129e-06)
(0.000442708 -7.23601e-05 2.07127e-06)
(0.000432139 -6.0944e-05 -2.79734e-06)
(0.000440993 -5.95898e-05 4.29646e-07)
(0.00071723 -8.79652e-05 3.62829e-07)
(0.00080425 -5.85502e-05 -8.82116e-07)
(0.000881766 -7.95832e-05 -1.41498e-06)
(0.00113375 -8.85912e-05 -1.07635e-06)
(0.000579669 -6.54121e-05 -4.14377e-06)
(0.000582836 -7.37692e-05 -4.96159e-06)
(0.000971737 -0.000108156 -5.133e-06)
(0.000963644 -0.000128005 -6.33973e-06)
(0.000814253 -3.61084e-05 -8.33017e-08)
(0.000816501 -4.93334e-05 -4.73921e-07)
(0.00106891 -5.52336e-05 9.13661e-08)
(0.000818984 -2.19808e-05 1.4171e-07)
(0.000829674 -3.05888e-05 1.7598e-07)
(0.00109427 -3.3333e-05 2.06272e-07)
(0.000821951 -1.34497e-05 4.03032e-08)
(0.000826785 -1.87327e-05 4.26673e-08)
(0.00109583 -2.0484e-05 1.78489e-07)
(0.000823638 -8.06908e-06 -6.34395e-08)
(0.000826884 -1.19643e-05 3.08592e-08)
(0.00109964 -1.24149e-05 1.91138e-07)
(0.000823101 -4.8399e-06 -5.15773e-08)
(0.000825723 -7.41602e-06 -4.93073e-08)
(0.0011002 -7.27891e-06 1.17084e-07)
(0.000822437 -2.95446e-06 3.25247e-08)
(0.000824329 -4.33946e-06 4.485e-08)
(0.00109918 -4.5044e-06 1.86109e-07)
(0.000821783 -1.83515e-06 3.92003e-08)
(0.00082302 -3.10083e-06 3.09333e-08)
(0.00109833 -2.68362e-06 2.04192e-07)
(0.000820442 -1.18206e-06 9.5837e-09)
(0.000821594 -1.42644e-06 5.39911e-08)
(0.00109697 -1.78242e-06 1.81351e-07)
(0.00081894 -7.47822e-07 2.1604e-08)
(0.000820123 -1.00042e-06 2.88848e-09)
(0.00109506 -1.07896e-06 1.59974e-07)
(0.000817558 -5.70244e-07 8.62506e-08)
(0.000818547 -1.03858e-06 5.9868e-08)
(0.00109306 -7.1227e-07 2.08145e-07)
(0.00081647 -3.85741e-07 9.92535e-08)
(0.000817124 -2.19996e-07 6.0782e-08)
(0.00109142 -6.7465e-07 2.23809e-07)
(0.000814685 -1.66876e-07 4.58993e-08)
(0.000815602 -1.63124e-07 1.00373e-07)
(0.0010896 -2.70973e-07 1.83368e-07)
(0.00081312 -1.479e-07 1.99057e-08)
(0.000813801 6.12243e-08 -2.21618e-08)
(0.00108724 -9.26694e-08 1.60854e-07)
(0.000811587 -2.4289e-07 6.05592e-08)
(0.000812157 5.95088e-08 3.76311e-08)
(0.0010852 -1.86898e-07 1.66828e-07)
(0.00081004 -1.0031e-07 5.5411e-08)
(0.000810946 -2.02001e-07 8.61753e-08)
(0.0010832 -3.43279e-07 1.86378e-07)
(0.00080849 2.16432e-07 3.14792e-08)
(0.000809574 -4.25837e-07 6.24707e-09)
(0.00108109 1.80747e-07 2.34187e-07)
(0.000806675 3.46055e-07 4.4876e-08)
(0.000807757 2.39687e-07 9.83308e-08)
(0.00107883 5.0817e-07 2.27302e-07)
(0.000805629 2.22325e-07 6.09271e-08)
(0.000806102 -1.07264e-06 4.5348e-08)
(0.00107698 4.87947e-07 1.94197e-07)
(0.000803904 6.60695e-08 1.14241e-07)
(0.000804617 1.36836e-07 5.17963e-08)
(0.00107528 1.14673e-07 1.82982e-07)
(0.00080221 -1.17183e-07 1.06932e-07)
(0.000802886 -2.03955e-07 8.25151e-08)
(0.00107284 3.84075e-08 1.72605e-07)
(0.00080065 -4.5106e-07 4.51038e-10)
(0.000801156 -2.69126e-07 6.28909e-08)
(0.0010706 -3.98851e-07 1.72387e-07)
(0.000799031 -5.80825e-07 1.69613e-08)
(0.000799797 1.63337e-06 4.44566e-08)
(0.00106861 -8.51615e-07 1.7529e-08)
(0.000797524 -4.64055e-07 1.41433e-08)
(0.000798373 7.61872e-07 5.52062e-08)
(0.00106638 -7.2529e-07 2.47008e-07)
(0.000796013 -2.54062e-07 1.37524e-08)
(0.000796911 9.71415e-08 7.47603e-08)
(0.00106437 -5.08655e-07 1.27624e-07)
(0.000794833 -4.85303e-08 6.25363e-08)
(0.000795571 1.85197e-07 1.62773e-07)
(0.00106279 -1.27905e-07 1.14041e-07)
(0.000793268 4.24912e-08 5.7755e-08)
(0.000794048 3.00653e-08 5.14795e-08)
(0.00106097 5.79364e-08 1.80075e-07)
(0.000791439 3.89016e-08 5.65086e-08)
(0.000792377 3.02939e-08 7.41334e-08)
(0.00105863 1.19746e-07 2.19505e-07)
(0.000789916 4.96032e-08 2.97295e-08)
(0.000790824 2.25429e-07 5.14187e-08)
(0.00105634 3.84336e-08 1.70798e-07)
(0.000788457 2.0242e-07 -2.79688e-08)
(0.000789317 1.37471e-07 3.42462e-08)
(0.00105424 1.47306e-07 1.66769e-07)
(0.000786794 3.56687e-07 8.83968e-09)
(0.00078777 2.66525e-07 -1.64916e-08)
(0.00105228 4.77736e-07 1.90982e-07)
(0.00078596 2.01297e-07 5.78742e-08)
(0.000786289 -1.16177e-06 4.15051e-08)
(0.00105076 5.28929e-07 1.97969e-07)
(0.000784293 -5.72183e-08 4.64007e-08)
(0.000784843 9.41437e-08 4.53656e-08)
(0.00104899 2.91758e-08 1.82328e-07)
(0.000782728 -3.84457e-07 6.04957e-08)
(0.000783242 -8.22381e-08 6.5189e-08)
(0.0010467 -1.38235e-07 1.65545e-07)
(0.000781588 -5.08524e-07 1.42292e-07)
(0.000782022 1.21075e-06 6.5066e-08)
(0.00104516 -8.13222e-07 1.12531e-07)
(0.000779877 -3.0981e-07 1.52299e-07)
(0.000780764 -5.05785e-07 1.02428e-07)
(0.00104314 -4.74645e-07 1.9722e-07)
(0.000778302 -2.10392e-07 6.36411e-08)
(0.000779167 1.77368e-07 7.33687e-08)
(0.00104087 -3.25871e-07 1.58374e-07)
(0.000777059 -1.74585e-07 4.42523e-08)
(0.000777716 1.18855e-07 5.35949e-08)
(0.00103907 -2.46994e-07 1.42326e-07)
(0.000775639 -3.42355e-07 4.1252e-08)
(0.000776254 1.06341e-08 5.02765e-08)
(0.00103719 -2.36986e-07 1.65546e-07)
(0.000774221 -4.3954e-07 7.65495e-09)
(0.000774837 -4.11553e-07 4.78509e-08)
(0.00103548 -6.48791e-07 1.75616e-07)
(0.000772204 -2.97115e-07 2.34823e-08)
(0.000773219 1.4331e-06 3.64865e-08)
(0.0010331 -4.91868e-07 6.81496e-08)
(0.000771829 -5.04368e-07 5.23069e-08)
(0.00103064 -3.12084e-07 2.58092e-07)
(-0.00225285 -0.00232732 -1.50601e-05)
(-0.000525744 -0.003362 0.000534115)
(0.0046276 -0.00106368 0.00088984)
(0.00238663 0.00196978 0.000446381)
(-0.00390183 0.0039149 0.000180892)
(0.00945062 0.0104378 -0.000387749)
(6.47933e-05 0.00808241 0.000816808)
(0.0057026 -0.00323216 -0.000368509)
(-0.00265764 -0.00135468 -0.00053819)
(0.00712079 -0.000527928 -0.00114488)
(0.0102222 -0.00404709 -0.000146548)
(0.00494243 -0.00207151 -0.000603128)
(0.00817705 -0.00153901 -0.000422553)
(-0.000320589 -0.00292811 -0.00155097)
(0.00531381 -0.00745348 -0.000209921)
(-0.003518 -0.00888861 0.00148582)
(0.0136007 -0.00711157 -0.000303861)
(0.00888917 -0.00853578 0.000209886)
(0.00160397 -0.00824062 0.00126181)
(0.0105562 -0.00144585 1.71604e-06)
(0.0115501 -0.000821403 -0.00013064)
(-0.0177186 -0.00407626 0.0055807)
(-0.0104128 -0.00596748 -0.000809431)
(-0.00979005 -0.0112347 6.66443e-05)
(-0.0122213 -0.00146917 -0.00108912)
(-0.0170378 0.0117407 -0.00246078)
(-0.0240374 0.0123069 -0.00765103)
(-0.0185643 -0.00951323 -0.00238268)
(0.000749812 -0.0107331 -0.0852619)
(-0.00755995 -0.00265436 0.0556845)
(0.00679569 -0.0091447 -0.0215397)
(0.00172329 -0.0141414 0.0543728)
(0.0182824 0.0110427 0.00185071)
(0.0265665 0.0131419 0.000823904)
(0.00533606 -0.00158968 0.000640832)
(0.0099847 -0.0108107 0.00080068)
(0.0187359 0.00033898 0.0032523)
(-0.00846203 0.00920622 0.000697119)
(-0.0112766 -0.00388759 0.000717909)
(-0.0214824 -0.00447936 0.000121198)
(-0.0244331 -0.00521323 -3.57803e-05)
(-0.0209285 -0.00336694 0.00182982)
(0.00173667 0.000862326 7.19308e-05)
(0.00183914 0.000603126 0.000106643)
(0.00172159 0.000308141 0.00014215)
(0.00179817 0.00120453 3.53471e-05)
(0.00155394 0.000319141 8.01491e-05)
(0.00035694 -5.4907e-05 -2.65569e-06)
(0.000509656 -7.54845e-05 -3.25127e-06)
(0.000504135 -8.50334e-05 -5.09041e-07)
(0.000819411 -0.000139036 -9.82023e-07)
(0.000342788 -4.4141e-05 -1.75303e-06)
(0.000654049 -8.86839e-05 -3.74972e-06)
(0.000627226 -6.01818e-05 2.68812e-06)
(0.000473321 -8.19254e-05 -9.98245e-08)
(0.000849183 -6.06733e-05 -1.0071e-06)
(0.000915914 -7.13467e-05 -1.98114e-06)
(0.00121792 -9.55171e-05 -1.17252e-06)
(0.000624054 -6.58697e-05 -3.87656e-06)
(0.000643932 -4.99714e-05 -5.16733e-06)
(0.00102731 -0.000108665 -4.72361e-06)
(0.0010696 -7.39613e-05 -6.58417e-06)
(0.000840813 -3.72285e-05 -2.14852e-07)
(0.000845985 -3.89206e-05 -3.56434e-07)
(0.00111025 -5.64191e-05 4.43154e-08)
(0.000835528 -2.36191e-05 7.69808e-08)
(0.000846774 -2.63003e-05 1.31408e-07)
(0.00112075 -3.65818e-05 2.02173e-07)
(0.000831994 -1.45439e-05 3.32273e-08)
(0.000838185 -1.62778e-05 3.73399e-08)
(0.00111214 -2.2416e-05 1.77583e-07)
(0.000829108 -9.10842e-06 4.50175e-08)
(0.000833712 -1.03588e-05 4.93669e-08)
(0.00110895 -1.38443e-05 1.80858e-07)
(0.000826795 -5.72692e-06 4.70894e-08)
(0.000829971 -6.5221e-06 4.7919e-08)
(0.00110556 -8.84667e-06 1.80869e-07)
(0.000824928 -3.48157e-06 4.32631e-08)
(0.000827149 -4.03894e-06 5.10896e-08)
(0.00110302 -5.43386e-06 1.83527e-07)
(0.000822848 -2.11254e-06 4.57167e-08)
(0.000824739 -2.34331e-06 4.56112e-08)
(0.00110045 -3.26877e-06 1.7078e-07)
(0.000821245 -1.26994e-06 4.73124e-08)
(0.000822653 -1.49623e-06 5.46616e-08)
(0.00109807 -2.03294e-06 1.86978e-07)
(0.000819716 -6.22158e-07 4.11342e-08)
(0.000820936 -1.50846e-06 6.21024e-08)
(0.0010961 -1.18316e-06 2.111e-07)
(0.00081806 -1.93555e-07 3.43992e-08)
(0.000819084 -1.09462e-06 6.93417e-08)
(0.00109386 -4.22311e-07 1.91151e-07)
(0.000816445 -4.34109e-09 6.18887e-08)
(0.000817361 -1.87195e-07 3.51966e-08)
(0.00109167 -8.58574e-08 1.81706e-07)
(0.00081462 7.41831e-08 3.23509e-08)
(0.0008157 2.2922e-07 6.82965e-08)
(0.00108949 9.35301e-08 1.75115e-07)
(0.000812815 2.46649e-07 -4.45547e-09)
(0.000814016 6.33924e-08 8.34669e-09)
(0.00108708 1.26395e-07 2.00778e-07)
(0.000811344 4.59322e-07 6.32317e-08)
(0.000812422 8.96986e-07 4.54386e-08)
(0.00108474 5.5749e-07 1.13558e-07)
(0.000810717 3.48484e-07 3.70367e-08)
(0.000810805 -2.24822e-06 4.84488e-08)
(0.00108349 6.90122e-07 2.41249e-07)
(0.000808806 1.14877e-07 7.30694e-08)
(0.000809281 2.25447e-07 9.03573e-09)
(0.00108194 2.7619e-07 1.65142e-07)
(0.000807169 1.14218e-07 9.88195e-08)
(0.000807755 2.14527e-07 1.05043e-07)
(0.00107934 1.06908e-07 1.88658e-07)
(0.000805053 7.91292e-08 3.62151e-08)
(0.000806058 -3.7514e-07 4.10681e-08)
(0.00107679 2.61103e-07 1.80091e-07)
(0.000803685 -2.34588e-07 2.00604e-08)
(0.000804225 -8.71875e-08 5.66689e-08)
(0.0010746 -3.83864e-08 1.79238e-07)
(0.000801748 -4.04226e-07 3.84803e-08)
(0.000802676 2.40361e-06 1.71774e-08)
(0.0010724 -6.39753e-07 3.00357e-08)
(0.000800243 -3.7933e-07 1.06902e-07)
(0.00080119 -2.55138e-07 6.02007e-08)
(0.00107001 -4.948e-07 1.74743e-07)
(0.000799163 -3.10292e-07 8.26981e-08)
(0.000799885 -1.30805e-08 1.10881e-07)
(0.00106841 -5.24214e-07 2.54949e-07)
(0.000797822 5.32879e-09 1.15817e-07)
(0.000798768 -1.12542e-07 5.20411e-08)
(0.00106681 -3.01837e-07 2.23589e-07)
(0.000796399 3.40994e-07 2.23753e-07)
(0.00079733 5.41196e-07 2.44733e-07)
(0.00106496 3.823e-07 1.3753e-07)
(0.00079484 3.05447e-07 1.51751e-07)
(0.000795524 6.73721e-07 1.84227e-07)
(0.00106305 6.37069e-07 1.46621e-07)
(0.000793152 1.23037e-07 6.78508e-08)
(0.000793818 2.26367e-07 7.02733e-08)
(0.00106079 2.30346e-07 1.79085e-07)
(0.000791706 1.05607e-07 6.90505e-08)
(0.000792355 2.57759e-08 7.03291e-08)
(0.00105865 1.17235e-07 1.71926e-07)
(0.000790266 1.65704e-07 5.59407e-08)
(0.000790898 -1.1735e-07 8.52273e-08)
(0.00105677 1.8084e-07 1.95926e-07)
(0.000788655 2.65286e-07 4.57391e-08)
(0.00078944 8.93568e-08 5.18375e-08)
(0.00105483 3.00868e-07 1.90446e-07)
(0.000787184 3.90398e-07 1.61559e-08)
(0.000787924 3.82747e-07 3.92495e-08)
(0.0010527 5.00666e-07 1.66175e-07)
(0.000785196 3.03552e-07 2.89953e-08)
(0.000786179 -4.42963e-07 5.09816e-08)
(0.00105029 6.21162e-07 1.69716e-07)
(0.000783876 5.24954e-08 6.41478e-08)
(0.000784528 -4.79772e-08 6.09887e-08)
(0.00104817 2.06279e-07 1.71761e-07)
(0.000782285 -1.42755e-07 6.97593e-08)
(0.000782998 9.88258e-09 7.36811e-08)
(0.00104621 -7.30496e-08 1.79465e-07)
(0.000781416 -3.2555e-07 2.5191e-08)
(0.000781795 1.71965e-07 1.03518e-07)
(0.00104452 -3.23686e-07 1.96379e-07)
(0.000780009 -2.91908e-07 2.35068e-08)
(0.000780807 -1.74875e-07 4.09774e-08)
(0.00104317 -5.77094e-07 1.46324e-07)
(0.00077855 -1.59972e-07 6.33285e-08)
(0.000779334 -1.20491e-07 6.54384e-08)
(0.00104119 -2.409e-07 1.96729e-07)
(0.00077695 -1.29959e-07 5.962e-08)
(0.000777755 -7.86445e-08 5.66306e-08)
(0.00103913 -2.30004e-07 2.02644e-07)
(0.000775402 -1.48634e-07 5.68762e-08)
(0.000776231 -4.5954e-09 4.64224e-08)
(0.0010371 -1.22179e-07 1.85065e-07)
(0.000773949 -2.75882e-07 7.66859e-08)
(0.000774679 -4.60748e-07 6.56879e-08)
(0.00103505 -2.3186e-07 1.79103e-07)
(0.000772623 -3.00243e-07 6.53062e-08)
(0.000773192 -1.25269e-07 7.84232e-08)
(0.00103311 -4.65729e-07 2.7816e-07)
(0.000772203 1.30018e-07 5.20151e-08)
(0.00103184 -3.21124e-07 8.93684e-08)
(-0.00127784 -0.0025368 1.13425e-05)
(0.0034022 -0.00569063 -0.000134803)
(-0.00205792 -0.0043654 0.000331205)
(-7.76995e-05 0.00294488 -0.000408552)
(-0.00104482 0.00139375 -3.54319e-05)
(0.000120477 -0.00122806 -0.000283941)
(0.00331395 -0.00520808 -0.000123558)
(0.00524641 0.00632212 -0.00026936)
(0.00183304 0.00240686 -0.000781259)
(0.0105055 -0.00234851 -0.000240805)
(0.00429573 -0.00413727 0.000358388)
(0.0115981 0.000969448 -9.89418e-05)
(0.00927131 -0.00205815 -6.00079e-05)
(0.00492988 0.00779847 0.000321694)
(0.0158823 0.00175019 -0.000336073)
(-0.00128965 0.008698 -0.000394801)
(0.00183304 0.00240686 -0.000781259)
(0.00183304 0.00240686 -0.000781259)
(0.00183304 0.00240686 -0.000781259)
(-0.00162216 -0.00260925 0.000111587)
(0.00604561 -0.00892666 -1.4926e-05)
(0.00171009 -0.00877001 0.000624138)
(-0.00735948 -0.00579438 0.000522514)
(0.000454987 0.00434895 -2.26075e-05)
(0.000398563 0.00526315 -7.93282e-05)
(0.00178522 0.00409092 0.000514472)
(-0.00110968 0.00798147 -0.000241447)
(-0.0040736 0.00610213 0.000143703)
(-0.0015718 0.0117715 6.02838e-05)
(-0.000406944 -0.000853099 0.000584787)
(-0.00260887 0.00908163 0.000335254)
(-0.00705047 0.00491427 -9.69031e-05)
(0.00150295 0.00209452 0.000174858)
(-0.00559616 0.000389097 0.00021128)
(0.00419593 0.00199221 0.000361568)
(-0.00130185 0.000775851 0.000794366)
(0.000142729 -0.000440237 1.92327e-05)
(0.000511991 -0.000165673 1.98283e-05)
(0.000365846 -0.000600704 8.32634e-06)
(-0.000205176 -0.000572564 8.22935e-06)
(0.000393252 -0.000356795 7.1555e-05)
(0.00030676 -8.69828e-05 1.64576e-05)
(0.00035846 -4.35519e-05 6.49536e-07)
(0.000314073 -4.62266e-05 2.82969e-06)
(0.000495057 -6.94645e-05 4.70066e-06)
(0.000253378 -3.99653e-05 -1.27727e-06)
(0.00087392 -5.06587e-05 -1.33101e-06)
(0.000937282 -6.16703e-05 -2.55605e-06)
(0.00121793 -8.78597e-05 -1.43057e-06)
(0.000642804 -4.57428e-05 -4.48216e-06)
(0.000648389 -6.93133e-05 -5.10608e-06)
(0.00107698 -7.10351e-05 -5.1251e-06)
(0.00108827 -0.000128067 -5.66023e-06)
(0.000857492 -2.77831e-05 -1.03333e-08)
(0.000874655 -2.00115e-05 -1.71658e-07)
(0.00114302 -4.26993e-05 1.53487e-07)
(0.000847202 -1.77338e-05 9.17978e-08)
(0.000859426 -1.57865e-05 7.32307e-08)
(0.00113698 -2.8544e-05 2.04273e-07)
(0.000839583 -1.08364e-05 5.34756e-08)
(0.000846863 -8.86779e-06 -1.25999e-08)
(0.00112438 -1.69507e-05 1.88382e-07)
(0.000834151 -6.85318e-06 5.22688e-08)
(0.000838725 -5.64071e-06 4.51429e-08)
(0.00111668 -1.08262e-05 1.85852e-07)
(0.000830057 -4.26113e-06 5.19181e-08)
(0.000833233 -3.46126e-06 4.96242e-08)
(0.00111076 -6.74482e-06 1.85006e-07)
(0.000826884 -2.67578e-06 5.34395e-08)
(0.000829144 -2.12009e-06 4.93346e-08)
(0.00110619 -4.18385e-06 1.84623e-07)
(0.000824363 -1.66019e-06 5.45532e-08)
(0.000826017 -1.3094e-06 5.20245e-08)
(0.0011026 -2.69017e-06 1.89769e-07)
(0.00082228 -9.89652e-07 6.94492e-08)
(0.000823497 -8.9092e-07 5.09062e-08)
(0.00109959 -1.59405e-06 1.81858e-07)
(0.00082039 -7.24633e-07 9.03076e-08)
(0.000821271 -1.71186e-06 4.55738e-08)
(0.00109708 -1.00029e-06 2.21254e-07)
(0.000818205 -5.32523e-07 7.01502e-08)
(0.000819328 2.0475e-07 8.76806e-08)
(0.00109444 -9.55744e-07 1.43238e-07)
(0.000816767 -3.60882e-07 4.15938e-08)
(0.000817578 -4.09513e-07 3.79245e-08)
(0.00109207 -4.95048e-07 1.84017e-07)
(0.000814944 -2.02682e-07 4.43114e-08)
(0.0008159 3.57375e-07 5.97138e-08)
(0.00108986 -4.67631e-07 1.93353e-07)
(0.00081368 7.20501e-08 5.82289e-08)
(0.00081436 -3.41955e-07 5.03813e-08)
(0.00108782 -6.81211e-08 1.82047e-07)
(0.00081186 3.30312e-07 3.06547e-08)
(0.000812744 -5.93087e-07 3.46136e-08)
(0.0010859 2.42091e-07 3.06164e-07)
(0.000809352 3.02724e-07 2.04603e-08)
(0.00081077 -1.93621e-07 2.46273e-08)
(0.00108285 6.02731e-07 1.19139e-07)
(0.000808151 7.37918e-08 4.09786e-08)
(0.000808994 -2.39165e-07 3.69251e-08)
(0.00108036 1.59659e-07 1.8102e-07)
(0.000806842 -6.46231e-08 4.73116e-08)
(0.000807582 -1.52135e-07 3.38754e-08)
(0.00107881 4.68031e-10 1.83889e-07)
(0.000805159 -7.44891e-08 6.1517e-08)
(0.000806046 4.13945e-08 6.27482e-08)
(0.0010768 -1.51619e-07 1.61731e-07)
(0.000803167 3.78868e-08 5.37983e-08)
(0.000804365 -6.72821e-08 7.25159e-08)
(0.00107415 1.65402e-08 2.16942e-07)
(0.000802121 3.07171e-07 3.88843e-08)
(0.000803011 -6.63812e-07 5.4857e-08)
(0.00107227 1.36579e-07 3.51459e-07)
(0.000800679 6.44701e-07 6.41634e-08)
(0.000801609 -1.50234e-06 2.71826e-08)
(0.00107075 7.30216e-07 2.58285e-07)
(0.000799589 7.20653e-07 8.02424e-08)
(0.000799977 -9.64952e-07 5.62994e-08)
(0.00106885 1.02641e-06 2.06662e-07)
(0.000798319 5.49076e-07 1.80897e-07)
(0.000798551 -1.93278e-06 5.5557e-09)
(0.00106751 9.15794e-07 2.84454e-07)
(0.00079654 3.61218e-07 2.05225e-07)
(0.000797093 4.22474e-07 1.7163e-07)
(0.00106554 5.61075e-07 2.09131e-07)
(0.000794394 2.17104e-07 1.02785e-07)
(0.000795343 2.13311e-07 8.51245e-08)
(0.00106259 4.00647e-07 2.66224e-07)
(0.00079301 1.51412e-07 7.27515e-08)
(0.000793736 9.7708e-08 7.04478e-08)
(0.00106032 1.5386e-07 1.75101e-07)
(0.000791549 1.35279e-07 8.65012e-08)
(0.000792334 -7.50065e-08 4.80693e-08)
(0.00105857 2.09248e-07 1.80243e-07)
(0.000790085 7.26936e-08 8.11344e-08)
(0.00079082 6.82102e-08 9.29353e-08)
(0.00105656 1.28663e-07 1.60225e-07)
(0.000788652 9.89447e-08 4.53518e-08)
(0.000789473 1.14958e-07 4.6852e-08)
(0.00105464 6.54905e-08 1.69146e-07)
(0.000787081 6.15348e-08 7.40716e-08)
(0.000787877 5.46236e-07 1.67615e-08)
(0.00105267 1.68455e-07 1.71876e-07)
(0.000785363 3.85635e-09 8.29719e-08)
(0.000786107 8.59043e-07 3.47195e-08)
(0.00105039 -4.21787e-08 1.03358e-07)
(0.000783748 2.45112e-08 7.05182e-08)
(0.000784554 -9.5165e-08 5.47192e-08)
(0.00104812 3.99591e-08 1.91546e-07)
(0.000782251 1.31478e-07 1.07431e-07)
(0.000783131 -1.47019e-07 5.68192e-08)
(0.00104604 3.56646e-08 1.89018e-07)
(0.00078132 2.85492e-07 1.19324e-07)
(0.000781986 3.33726e-07 1.33284e-07)
(0.00104454 3.68288e-07 1.1515e-07)
(0.000780229 2.1366e-07 8.29016e-08)
(0.000780716 -1.67129e-06 -1.3611e-08)
(0.00104325 4.49737e-07 2.50054e-07)
(0.000778538 1.03512e-07 5.87432e-08)
(0.000779195 4.37227e-07 4.70008e-08)
(0.00104131 1.97898e-07 1.55713e-07)
(0.000776956 1.28861e-07 4.34361e-08)
(0.000777785 -6.52488e-08 4.80879e-08)
(0.00103922 1.87524e-07 1.85653e-07)
(0.000775533 1.44267e-07 5.52282e-08)
(0.000776249 8.39406e-09 4.46509e-08)
(0.00103719 2.39695e-07 1.71598e-07)
(0.000773893 1.54978e-07 6.74213e-08)
(0.000774691 -4.36937e-08 6.15559e-08)
(0.00103505 2.13679e-07 1.62132e-07)
(0.000772598 1.30986e-07 6.51401e-08)
(0.00077316 -3.37015e-07 5.02999e-08)
(0.00103299 2.3402e-07 1.76871e-07)
(0.000772039 1.12727e-07 5.77463e-08)
(0.00103162 1.17449e-07 1.63809e-07)
(0.00511587 -0.00119968 -0.00018161)
(0.00363998 0.00102445 -0.000423507)
(0.00364619 0.00027894 -0.000805238)
(0.0031354 0.00402562 0.000103838)
(0.00230057 -0.00101972 0.000311094)
(-0.00198214 -0.000940699 0.000325903)
(-0.00117657 0.00251829 0.000117953)
(0.00243339 0.00286779 9.14173e-05)
(0.0029786 0.00701071 7.09489e-06)
(0.00308747 0.00163948 -0.000104888)
(-0.00787553 -0.000136421 0.000358346)
(0.000616927 0.00112652 -1.47942e-05)
(0.0052019 0.00658543 0.00186108)
(0.0116685 0.00242174 0.00585442)
(0.0176862 0.00287444 -0.00513688)
(0.00506382 0.00236957 -0.000212539)
(0.003245 0.00333961 -0.000179571)
(0.00584042 0.000567764 -1.89861e-05)
(0.00237839 -0.00182442 4.26102e-05)
(-0.00672722 0.00217011 -8.28745e-05)
(-0.00188947 -0.000334276 2.09332e-05)
(-0.0116122 -0.00177396 0.000364765)
(0.00699156 -0.0012079 0.000709308)
(0.00551966 -0.000860565 0.000137014)
(0.00136927 0.00181106 8.09608e-05)
(0.00725134 0.00252639 0.00337692)
(0.00675821 0.00410541 0.00835731)
(0.0167445 0.000147298 -0.0190035)
(0.00526906 0.00825823 0.00528339)
(0.00982141 -0.00300796 0.000766772)
(8.92647e-05 -0.00074484 0.000359706)
(0.00821257 -0.00232515 0.00104824)
(0.00991053 -0.00167566 0.000517555)
(0.0114374 0.000515323 0.000129409)
(0.00992841 0.00161579 -0.000450161)
(0.0034722 0.00146281 3.16209e-05)
(0.00464834 0.0032932 0.000226717)
(0.0260319 0.0039537 0.000357222)
(0.000533039 -0.000241187 -1.363e-05)
(0.000817759 -0.000156418 -9.03013e-06)
(0.00138572 -0.000381241 -3.99524e-05)
(0.00210287 -0.000951909 -1.68491e-05)
(0.000730314 -9.44021e-05 5.78917e-06)
(0.000615515 1.11395e-05 -4.71283e-05)
(0.000568561 0.000251763 9.99207e-06)
(0.000906357 -4.2738e-05 -1.54187e-05)
(0.00101823 -3.85127e-05 8.78043e-07)
(0.00128639 0.000399315 -1.13488e-05)
(0.000992665 0.000233964 -2.046e-05)
(0.00109309 -0.00015087 4.70504e-05)
(0.00154504 0.000199871 -1.03768e-05)
(0.000970218 -0.00028266 6.56065e-06)
(0.00150503 -3.38921e-05 2.88204e-05)
(0.000512342 -0.000228425 4.4262e-05)
(0.000496988 -0.000197804 5.54832e-05)
(0.00071584 -0.000241435 8.66679e-05)
(0.000454769 -0.000137033 2.59831e-05)
(0.000915693 -2.0351e-05 -1.39748e-06)
(0.000669407 -2.08827e-06 -1.69437e-06)
(0.00127177 -6.37667e-05 -1.64554e-06)
(0.000697129 -2.52661e-05 -5.64973e-06)
(0.000679484 -2.81301e-05 -2.22566e-06)
(0.00116859 -3.88495e-05 -5.4019e-06)
(0.00117404 -4.65686e-05 2.76998e-06)
(0.000626221 -2.82673e-05 -4.86592e-06)
(0.0011304 -1.10047e-06 -1.17944e-06)
(0.00103217 -4.41913e-05 -5.77867e-06)
(0.000875878 3.45845e-07 -8.81739e-08)
(0.000910067 2.92116e-05 -8.08011e-07)
(0.00118455 7.38546e-06 8.21406e-08)
(0.000857411 -3.92186e-06 -3.11389e-08)
(0.00085416 5.40004e-06 -2.51858e-07)
(0.00115317 -8.09991e-06 1.74263e-07)
(0.000844867 -2.12102e-06 -2.09514e-08)
(0.000849144 4.89807e-06 5.18928e-08)
(0.00113443 -3.32728e-06 1.75279e-07)
(0.000837226 -1.63346e-06 4.24968e-08)
(0.000839353 1.88706e-06 1.08836e-07)
(0.00112179 -2.95782e-06 1.82865e-07)
(0.000831932 -9.5641e-07 4.70408e-08)
(0.000834091 1.11142e-06 5.33278e-08)
(0.00111392 -1.79959e-06 1.84404e-07)
(0.000828026 -5.30761e-07 4.79188e-08)
(0.000829683 7.32909e-07 2.13096e-08)
(0.00110812 -1.0113e-06 1.83461e-07)
(0.000824979 -3.43478e-07 4.83779e-08)
(0.000826256 4.74124e-07 3.10924e-08)
(0.00110371 -5.73182e-07 1.83581e-07)
(0.000822463 -2.60307e-07 2.70325e-08)
(0.000823603 2.50628e-07 4.96286e-08)
(0.00110019 -4.42231e-07 1.82236e-07)
(0.000820106 -2.24073e-07 4.29332e-08)
(0.000821318 6.50798e-08 2.97994e-08)
(0.0010969 -2.88177e-07 1.24877e-07)
(0.00081865 -2.06223e-07 5.54709e-08)
(0.000819351 -9.10373e-08 6.99174e-08)
(0.0010945 -3.18978e-07 1.90581e-07)
(0.00081665 -2.28023e-07 5.60376e-08)
(0.000817552 6.68127e-08 6.59782e-08)
(0.00109229 -2.58561e-07 1.84334e-07)
(0.000815305 -2.31905e-07 6.57867e-08)
(0.000815896 1.51154e-07 7.31061e-08)
(0.00109003 -3.76935e-07 1.75053e-07)
(0.000813455 -2.7616e-07 2.6771e-08)
(0.000814306 -6.53699e-09 3.89042e-08)
(0.00108797 -2.59463e-07 1.81473e-07)
(0.000811808 -3.81235e-07 2.85894e-08)
(0.000812614 5.92142e-07 4.31074e-08)
(0.00108558 -4.96521e-07 1.04775e-07)
(0.000810181 -2.07073e-07 4.10881e-08)
(0.000810989 -5.83716e-08 5.86739e-08)
(0.00108339 -5.14858e-07 1.7614e-07)
(0.000808422 7.52033e-08 2.98228e-08)
(0.000809347 -4.48414e-08 8.44051e-08)
(0.00108119 -3.46601e-08 1.83807e-07)
(0.000806817 1.84373e-07 4.93029e-08)
(0.000807718 -5.22251e-08 4.89796e-08)
(0.00107895 2.12287e-07 1.7713e-07)
(0.000805312 2.40132e-07 7.37441e-08)
(0.000806114 -8.34374e-08 6.7881e-08)
(0.00107681 2.73123e-07 1.84112e-07)
(0.000804079 5.349e-07 7.35801e-08)
(0.000804731 -5.43045e-07 4.51298e-08)
(0.00107496 4.18369e-07 1.85163e-07)
(0.000802616 6.91973e-07 4.3164e-08)
(0.000803204 -1.91049e-06 3.96123e-08)
(0.00107329 1.10992e-06 2.59847e-07)
(0.000800819 6.68431e-07 1.93093e-08)
(0.000801576 -7.86226e-08 2.02263e-08)
(0.00107112 8.31671e-07 1.01157e-07)
(0.000798999 7.32809e-07 -1.83714e-08)
(0.000800053 -2.96612e-07 3.90537e-08)
(0.00106864 1.01215e-06 1.56536e-07)
(0.000797254 4.76402e-07 -3.76334e-09)
(0.000798227 2.10538e-07 -8.51075e-09)
(0.00106622 1.00086e-06 4.55277e-08)
(0.000796042 1.10226e-07 5.15558e-08)
(0.000796634 -2.67967e-08 4.67088e-08)
(0.00106431 3.11725e-07 1.82196e-07)
(0.000794529 8.86159e-08 5.2792e-08)
(0.000795315 7.64209e-08 5.26068e-08)
(0.00106254 -1.1088e-08 1.87015e-07)
(0.000793144 1.42165e-07 4.57725e-08)
(0.000793802 1.25826e-07 6.00553e-08)
(0.00106055 2.46333e-07 1.6405e-07)
(0.000791521 8.7445e-08 5.44894e-08)
(0.000792265 7.21674e-08 4.41705e-08)
(0.00105862 1.22537e-07 1.76959e-07)
(0.000790171 3.68948e-08 5.86672e-08)
(0.000790757 -4.88603e-08 -1.13356e-08)
(0.00105659 8.68393e-08 1.71692e-07)
(0.000788862 -1.79599e-07 1.82711e-08)
(0.000789203 -1.08733e-07 5.72534e-08)
(0.00105488 -2.44398e-08 1.75993e-07)
(0.000786835 -2.84918e-07 -2.25961e-08)
(0.000787747 2.71949e-06 5.5769e-08)
(0.00105256 -4.84079e-07 6.83753e-08)
(0.000785282 -1.03383e-07 6.46057e-09)
(0.000786335 -4.50623e-07 9.85965e-10)
(0.00105013 -3.19843e-07 2.76475e-07)
(0.000783919 1.12795e-07 4.10195e-08)
(0.000784824 -1.40488e-07 4.22514e-08)
(0.00104827 4.66748e-09 1.68682e-07)
(0.000782686 2.86562e-07 8.2649e-08)
(0.000783347 -2.94317e-07 1.44771e-07)
(0.00104662 3.2403e-07 1.64531e-07)
(0.000781658 3.6403e-07 3.94518e-10)
(0.000782081 -1.92946e-06 6.8355e-08)
(0.00104503 5.20235e-07 2.99297e-07)
(0.000779516 2.42759e-07 -4.95303e-08)
(0.000780562 9.52763e-08 -3.90751e-08)
(0.00104295 5.24591e-07 1.08811e-07)
(0.000778527 1.05711e-07 3.63452e-08)
(0.000779022 1.92551e-07 8.01782e-08)
(0.00104086 1.74368e-07 1.50233e-07)
(0.000777076 1.27639e-07 4.93037e-08)
(0.000777812 1.0986e-07 4.58026e-08)
(0.00103918 1.35663e-07 1.62008e-07)
(0.000775318 1.35007e-07 5.09735e-08)
(0.000776258 -1.51465e-07 2.39932e-08)
(0.00103713 1.85956e-07 2.14747e-07)
(0.000774077 1.7128e-07 4.4438e-08)
(0.000774736 -2.04604e-07 1.70459e-08)
(0.00103504 1.47209e-07 1.67884e-07)
(0.000772357 2.26628e-07 4.29039e-08)
(0.000773226 2.97907e-08 2.30961e-08)
(0.00103299 2.91086e-07 1.73383e-07)
(0.000771757 3.63231e-07 7.06939e-08)
(0.0010314 3.06554e-07 1.25045e-07)
(0.00255958 0.000441262 -4.42613e-05)
(-0.00115223 0.00675516 0.000111906)
(-0.000556928 0.000781288 -0.000526801)
(0.00105198 -4.52173e-05 0.000212695)
(-0.00213276 -0.00171728 0.000141576)
(0.0029415 -0.00191515 -1.84432e-05)
(0.0034314 -0.00311141 0.00157577)
(-0.00318586 -0.0015803 -6.49681e-05)
(0.00850441 -0.00505325 0.03181)
(0.0103198 -0.00327621 -2.36622e-05)
(0.00167449 9.8444e-05 0.000203019)
(0.00397736 0.000434833 0.000277087)
(0.00191489 0.00199867 -7.79365e-05)
(0.00246963 0.00240556 0.000220894)
(0.00100078 0.00288014 -4.1328e-05)
(0.00155545 0.000558048 -0.000443701)
(0.00449849 0.00186035 6.66599e-05)
(0.00219469 -0.000741385 -1.17204e-05)
(0.00152956 -0.0017324 -3.99181e-05)
(0.00429282 -1.31941e-05 -0.000120705)
(0.00931559 -0.00288397 1.2238e-05)
(0.0104999 -0.00607353 0.000682252)
(0.0131389 -0.00121475 -0.000342319)
(0.00373943 -0.00876297 -0.000553049)
(-0.000788779 -0.00563757 -4.3129e-05)
(0.000113632 -0.0049252 -0.000189447)
(0.002663 -0.00475479 -4.39625e-05)
(0.00884027 -0.0120424 0.00018189)
(0.00682851 -0.00698997 0.000365295)
(0.00739917 -0.0105291 0.00103291)
(0.00705 -0.0108966 0.000116174)
(0.000134055 0.0015194 0.000128724)
(-0.00146194 -0.000633186 -7.77107e-05)
(-0.00200235 -0.000931001 -3.38855e-06)
(-0.0014639 -0.00133405 4.23034e-05)
(-0.00204352 -0.00120518 0.000237624)
(0.000322391 -0.000437848 3.27004e-06)
(0.000997745 -7.33884e-05 -3.47716e-05)
(0.00133603 -0.000247483 5.56537e-06)
(0.000520638 -0.000665493 -3.09084e-05)
(6.23096e-05 -0.000540011 6.19446e-06)
(0.000991274 -0.000775375 3.14776e-06)
(-0.000383915 -0.000709476 5.31859e-05)
(0.000669479 -0.000108032 -2.81213e-05)
(0.000767782 -0.00026912 4.94307e-06)
(0.000827933 -9.97031e-05 2.38718e-05)
(0.000749935 -0.000278422 -3.71121e-06)
(0.000733125 6.51713e-05 3.98773e-05)
(0.00138703 7.35971e-05 2.29755e-06)
(0.00158095 0.000175059 3.82089e-06)
(0.00153407 2.73737e-05 -6.75218e-05)
(0.00145138 9.38583e-06 2.01192e-05)
(0.000370412 -2.21607e-05 -3.32122e-06)
(0.000525188 -1.22199e-06 -3.7446e-06)
(0.000527251 1.18656e-05 -3.5149e-07)
(0.000871035 8.03806e-06 -1.38655e-06)
(0.000367597 9.56931e-07 -2.80598e-06)