/*--------------------------------*- C++ -*----------------------------------*\
| =========                 |                                                 |
| \\      /  F ield         | OpenFOAM: The Open Source CFD Toolbox           |
|  \\    /   O peration     | Version:  5.0                                   |
|   \\  /    A nd           | Web:      www.OpenFOAM.org                      |
|    \\/     M anipulation  |                                                 |
\*---------------------------------------------------------------------------*/
FoamFile
{
    version     2.0;
    format      ascii;
    class       surfaceScalarField;
    location    "1";
    object      alphaPhi10;
}
// * * * * * * * * * * * * * * * * * * * * * * * * * * * * * * * * * * * * * //

dimensions      [0 3 -1 0 0 0 0];

internalField   nonuniform List<scalar> 
29617
(
-1.45379e-08
-1.54244e-08
-5.53669e-09
-1.02878e-08
-1.01785e-08
-7.76012e-09
1.55387e-08
9.23569e-08
2.07276e-08
-4.50176e-09
-5.95246e-09
-4.63258e-09
-3.62176e-09
1.55646e-08
1.60185e-08
-4.25108e-08
1.50345e-08
1.4922e-08
1.727e-08
1.67056e-08
-9.83772e-10
-2.06793e-08
-2.47573e-08
-1.9232e-08
-2.11207e-08
4.69478e-08
-7.32867e-09
2.77852e-08
-5.18318e-09
3.15401e-08
2.18951e-09
2.94724e-09
1.41594e-10
-6.77205e-10
-6.7639e-10
-3.60064e-19
3.55265e-21
-1.46765e-18
5.13593e-20
-6.28262e-19
5.02007e-18
-2.58638e-18
3.10756e-24
2.31457e-22
4.75609e-25
1.16922e-22
1.14663e-21
2.83668e-21
-1.53426e-20
3.4657e-26
2.38572e-26
1.75771e-28
4.95393e-29
-1.24837e-28
2.89484e-30
9.43927e-34
-2.77081e-32
5.40415e-33
2.22165e-37
-3.28062e-36
1.24814e-36
9.24256e-41
-4.61963e-40
3.56727e-40
3.89215e-44
-9.43669e-44
1.28096e-43
1.6404e-47
-1.84542e-47
-3.56094e-46
6.90883e-51
-2.73896e-51
9.05691e-49
2.90388e-54
-5.21479e-55
-6.89581e-53
1.21932e-57
3.61452e-59
-4.68603e-55
5.10297e-61
-3.51611e-61
-5.10182e-59
2.12777e-64
-1.47928e-65
9.45322e-62
8.94576e-68
2.12103e-69
1.06775e-64
3.69467e-71
7.51277e-72
8.05214e-69
1.56698e-74
-1.97625e-75
-6.1759e-72
6.26326e-78
-2.2212e-78
4.44678e-75
2.59485e-81
2.79193e-82
6.9036e-78
1.0197e-84
-4.58312e-85
1.94252e-82
5.33682e-88
4.31346e-89
2.01686e-84
2.12721e-91
6.24985e-93
-7.27703e-88
3.61846e-94
3.57198e-95
1.13213e-91
3.90548e-98
-5.70552e-99
1.4248e-95
-3.86635e-101
1.20313e-101
-7.38709e-97
2.77394e-104
4.72032e-105
-1.24856e-100
1.11236e-107
2.50108e-109
1.35758e-103
-2.93745e-111
-1.67155e-111
-9.0601e-106
-7.58365e-115
1.43875e-115
-1.58461e-109
2.58936e-117
5.35951e-119
2.69623e-113
2.56945e-121
1.0794e-121
1.66328e-115
2.02582e-123
2.19152e-124
-8.43751e-119
-6.15086e-127
-2.66137e-127
9.26907e-124
-1.79346e-130
-2.52328e-131
9.60997e-127
-9.50428e-134
4.35761e-135
2.90937e-129
2.55142e-136
-4.77017e-138
-4.88264e-132
1.33382e-139
2.09734e-140
-4.29963e-135
3.63544e-142
1.00141e-142
-1.2704e-137
5.04912e-146
2.914e-148
-7.46116e-142
8.13211e-149
4.48542e-150
-4.04584e-144
1.80528e-152
-5.80147e-153
-1.21732e-147
5.2455e-153
-1.18479e-157
6.01396e-152
1.58951e-154
-2.25929e-158
-1.56748e-153
1.21054e-159
-1.45871e-157
-1.51595e-08
8.57123e-09
4.73482e-09
7.23353e-09
4.07653e-09
1.40677e-08
-2.00185e-08
4.64894e-08
-2.21652e-08
-8.37617e-08
-1.90424e-08
3.25024e-08
1.32012e-07
-3.70992e-08
-3.78868e-08
-2.53838e-08
-2.36844e-08
-1.65445e-08
3.43626e-09
-5.99363e-08
2.74592e-07
-1.34504e-08
-9.97775e-08
6.75756e-08
-2.34347e-08
-2.54656e-08
-3.89693e-08
-3.73904e-08
7.22103e-09
-2.81874e-08
4.16236e-08
-8.16205e-08
7.44625e-08
-4.69667e-08
1.14495e-08
5.47371e-09
1.42937e-08
8.01897e-09
1.89092e-08
1.55092e-08
1.24529e-08
2.0248e-08
1.17949e-09
-2.75368e-09
3.65357e-09
-3.27158e-09
1.27903e-09
-2.45458e-15
2.38086e-16
5.26368e-18
5.89668e-17
-2.21863e-14
-1.56108e-14
-3.46223e-14
-1.9499e-15
-2.51239e-15
-1.627e-15
-1.62588e-15
1.45122e-21
-1.69969e-20
2.1281e-21
-1.5703e-20
3.4952e-20
-3.32392e-20
2.7636e-20
9.89564e-29
1.39613e-25
4.47262e-26
3.30684e-29
-1.69598e-29
-4.28181e-30
3.15931e-32
3.90131e-32
-4.14628e-33
8.7972e-37
6.49858e-36
-1.40296e-36
1.66092e-40
1.65452e-39
-1.47204e-39
6.92618e-44
3.34551e-43
-4.77434e-43
2.95636e-47
1.14727e-46
7.02903e-47
1.56813e-50
5.0547e-50
2.61505e-49
6.21522e-54
7.60046e-54
-1.50503e-52
2.4305e-57
1.05341e-56
3.1867e-55
1.02568e-60
4.04528e-60
-6.9158e-58
4.33582e-64
-1.81852e-65
2.19431e-62
1.84792e-67
-5.18937e-68
-3.48719e-65
7.74972e-71
5.6369e-71
-1.97829e-68
3.31094e-74
-3.47603e-74
9.06044e-72
1.4111e-77
-1.1138e-77
-4.91165e-74
6.31221e-81
1.34686e-81
6.21145e-78
3.19946e-84
1.16031e-84
-6.19342e-81
1.08874e-87
5.3184e-88
1.9117e-83
4.86679e-91
-2.44493e-91
-1.50046e-87
7.8549e-94
-6.91939e-96
-2.26146e-90
6.23683e-98
-6.80418e-98
1.54828e-93
7.33508e-101
-2.15519e-102
-6.39929e-98
5.12201e-104
1.54279e-105
-1.16077e-99
1.77846e-108
-9.05005e-107
2.41343e-104
-3.06996e-111
-2.53177e-109
1.38638e-105
7.1593e-114
1.16792e-114
-5.29269e-111
3.21187e-117
-1.63737e-117
-1.44109e-112
6.06449e-120
-1.5378e-120
-2.57483e-116
1.75785e-123
2.99496e-125
-9.08401e-121
1.43293e-125
-4.04468e-127
-6.23751e-122
-1.57897e-129
-1.71482e-129
5.48488e-125
4.74885e-133
2.52719e-133
-4.96916e-129
4.35677e-137
2.25564e-137
1.51915e-131
-1.06749e-139
-5.37982e-140
7.85991e-136
1.13457e-143
8.81763e-144
4.18034e-139
5.42314e-146
9.23995e-146
1.92789e-140
-3.34305e-148
9.42677e-151
5.67617e-144
2.59571e-151
-1.72527e-150
-1.97679e-147
3.51796e-153
-5.50977e-155
-7.64296e-151
1.6516e-154
1.87226e-157
-4.46689e-154
5.61902e-159
-9.41158e-157
-9.3051e-09
-5.95497e-09
-2.42387e-08
-3.57064e-08
-5.4827e-09
1.46111e-08
5.60747e-09
-3.97082e-07
-1.32036e-07
-2.72436e-07
8.52953e-07
2.22111e-09
2.39294e-09
2.20561e-09
3.90509e-09
2.74373e-08
-9.79611e-09
4.52889e-09
-2.21617e-08
2.90647e-09
6.11165e-09
-3.1418e-08
-1.95651e-08
-9.61802e-09
-2.3514e-08
-7.7061e-09
3.12385e-08
2.32791e-09
3.16148e-10
-2.73512e-08
-7.01878e-09
-8.62835e-09
-6.17706e-09
-1.17856e-09
1.62466e-08
-1.30803e-09
7.18325e-10
-1.38136e-08
-1.38374e-11
-1.60889e-15
1.43501e-09
1.47717e-14
1.43504e-09
7.47794e-20
1.24999e-18
-1.81568e-20
7.66995e-20
1.26649e-18
-1.49751e-18
-1.16258e-18
-1.73969e-26
6.80007e-23
-1.52514e-24
2.30658e-28
-3.06964e-26
-2.45338e-29
6.73888e-32
-9.77467e-30
-5.7659e-32
6.15361e-36
-1.79023e-33
-4.78611e-36
2.01767e-39
-8.50833e-38
9.27862e-39
8.12509e-43
-4.83123e-41
3.66884e-42
3.40146e-46
-1.33092e-44
5.2887e-45
1.4485e-49
-3.67421e-48
-3.71206e-48
6.01422e-53
-6.71981e-52
-1.60814e-51
2.4999e-56
-2.63934e-55
3.56118e-54
1.15504e-59
9.82216e-59
-2.45398e-57
4.33234e-63
-1.66113e-62
5.529e-61
1.75194e-66
1.14232e-65
-2.81477e-63
7.45064e-70
-1.09791e-69
-3.54186e-69
3.07792e-73
-2.72709e-73
9.60753e-70
3.25465e-76
7.82569e-77
-3.61516e-73
7.91819e-81
5.74272e-80
-9.90974e-77
8.42241e-83
-2.08381e-83
1.18852e-80
1.01313e-86
3.9734e-87
-1.1111e-82
1.66587e-90
-2.37466e-90
-1.48594e-86
4.60856e-92
-4.96683e-93
-2.78383e-89
2.45823e-95
-1.40327e-96
8.45263e-93
7.09046e-99
-1.06563e-99
4.3259e-96
4.78388e-102
-7.42703e-102
-4.10835e-99
2.26873e-104
3.80455e-106
-3.00124e-101
2.67798e-108
2.18642e-109
-3.73977e-104
4.77554e-111
-3.85594e-114
-1.05742e-107
-1.2076e-114
-1.91695e-116
-2.48633e-111
-1.12295e-117
2.93035e-120
-5.99622e-115
3.57222e-122
1.88744e-123
-4.81551e-118
1.30424e-124
-2.61179e-127
-1.52749e-120
-5.213e-128
-5.97567e-128
-7.8005e-125
-4.60944e-131
4.71374e-132
2.46639e-127
3.45048e-133
4.56986e-135
-4.11624e-130
-2.71331e-137
-3.104e-137
-6.1154e-134
-1.07687e-140
1.56577e-143
8.44278e-137
1.22768e-143
2.81388e-145
7.74335e-139
-9.46365e-147
2.27896e-147
1.98317e-143
2.0563e-149
-1.71684e-151
-1.71936e-145
-9.47126e-153
2.22012e-154
-2.35231e-149
7.29167e-154
-1.46338e-158
7.11898e-153
-1.57907e-158
1.37347e-155
2.50432e-08
7.20838e-09
1.50349e-08
8.72578e-09
7.96511e-08
6.88011e-08
5.70559e-08
1.81107e-08
3.05778e-08
3.03867e-09
-1.5414e-08
-2.01815e-08
3.07633e-08
2.08358e-08
2.81666e-08
-1.1873e-08
-1.2856e-08
-1.09578e-08
-1.01461e-08
-3.84746e-08
8.4005e-08
-3.21008e-08
-1.07189e-08
-4.67902e-09
-3.06527e-08
-9.67323e-09
2.31416e-08
-1.57479e-08
-1.37845e-08
-5.90519e-08
-6.23593e-09
1.02357e-08
6.28679e-08
5.58967e-08
-7.32828e-08
1.7603e-07
-3.82789e-10
-1.65154e-08
3.16231e-09
2.63633e-09
1.10213e-08
-1.77361e-10
-1.06554e-11
2.79592e-11
5.74734e-11
1.7141e-14
2.70805e-19
-8.88329e-19
1.98514e-18
6.8536e-17
7.64585e-16
2.3063e-16
-1.05904e-15
-6.67905e-19
-5.3924e-18
-8.01332e-19
3.43705e-25
9.85024e-22
7.57369e-24
-1.14743e-27
2.06757e-25
2.30527e-26
1.27938e-29
6.68004e-29
3.27784e-30
2.73386e-33
1.70783e-31
2.18532e-33
3.94304e-38
3.30674e-35
3.89508e-37
7.10935e-42
4.74112e-39
4.50054e-41
4.24014e-45
1.21321e-42
-1.90627e-43
2.32766e-48
3.03383e-46
-4.36745e-48
1.19387e-51
9.08023e-50
-1.00606e-50
5.84142e-55
1.71908e-53
-3.14723e-53
2.75145e-58
2.95211e-57
1.59168e-55
1.26837e-61
7.2301e-61
7.81205e-60
5.76261e-65
1.93563e-64
-2.03368e-62
2.59405e-68
4.22904e-68
8.22162e-67
1.17073e-71
4.92341e-71
3.06962e-69
5.27383e-75
2.09397e-75
8.11719e-72
2.43024e-78
-7.83146e-79
2.90948e-74
9.9121e-82
-1.76945e-81
-9.38322e-78
6.47497e-86
-4.65917e-86
-6.8957e-82
3.07639e-88
5.97403e-89
-2.92509e-84
2.45256e-91
-5.29443e-91
1.62966e-88
5.00924e-95
2.24426e-95
-4.56828e-91
5.56096e-98
7.13296e-99
-6.77475e-94
2.96761e-102
-2.07848e-102
-1.03749e-96
-1.21294e-104
-1.90197e-104
-1.4684e-99
4.50343e-108
8.89285e-109
-7.38489e-104
-6.2333e-111
1.23856e-111
-1.95797e-106
5.77036e-114
9.69739e-117
-1.79653e-111
2.62403e-118
-2.10123e-118
-3.38226e-113
1.26827e-120
1.01931e-121
-5.37061e-117
3.8376e-123
9.20361e-124
-4.5741e-119
5.02162e-127
8.26999e-128
-2.52958e-122
2.47221e-130
-2.11892e-132
9.42896e-126
2.60906e-133
-6.90769e-134
4.45833e-129
5.30795e-137
-5.71535e-138
4.0271e-134
9.90432e-140
-7.10707e-142
2.03812e-137
-2.95577e-143
3.01892e-144
-3.38196e-138
-5.70013e-146
1.97607e-148
1.48842e-141
8.20615e-150
6.87809e-149
6.31481e-145
3.31177e-152
1.80158e-153
2.1818e-149
2.38887e-153
-6.50994e-156
-3.39199e-152
-1.66306e-157
2.28103e-154
-1.00339e-09
-5.94896e-09
-7.18654e-09
-8.60582e-08
7.85336e-08
5.8616e-09
-1.26433e-07
-5.65339e-08
-1.0811e-08
2.03431e-07
-1.64729e-08
-2.74032e-08
-2.38152e-08
-1.74871e-08
-2.46296e-08
-2.35258e-09
-2.95928e-08
-1.18592e-08
-1.89148e-09
-1.02296e-08
-9.00953e-09
1.014e-08
-1.94514e-09
1.54901e-08
-1.39983e-10
-2.42822e-08
4.91541e-08
1.88408e-08
-7.72989e-08
-3.61824e-08
-1.14752e-09
3.27545e-09
-6.89616e-10
-4.3984e-09
2.23341e-09
-2.32644e-09
-2.09173e-11
-2.2969e-11
-2.19091e-10
2.33377e-11
6.21814e-16
-6.95051e-19
-2.17123e-08
1.38747e-18
6.21807e-16
6.21909e-16
6.21242e-16
2.44651e-24
8.19647e-21
8.29162e-22
5.88607e-18
5.88563e-18
5.88905e-18
5.88596e-18
3.22704e-27
1.28019e-24
-7.15846e-26
-1.11299e-28
2.17556e-28
-9.89763e-30
5.94377e-32
4.0577e-32
-3.27733e-33
3.19539e-36
5.75848e-36
1.05644e-36
5.3461e-40
2.99792e-39
-6.18545e-41
2.1713e-43
8.63148e-43
8.76657e-43
9.06485e-47
2.38756e-46
1.08358e-45
3.77844e-50
5.02182e-50
-1.12111e-51
1.57127e-53
1.51828e-53
2.73657e-52
6.52453e-57
4.06693e-57
-9.98866e-56
2.70242e-60
1.05092e-60
2.28823e-58
1.12504e-63
3.48051e-64
3.10079e-62
4.60959e-67
2.36883e-67
-3.63719e-65
1.89472e-70
1.7656e-71
1.06075e-67
7.90298e-74
4.77394e-75
1.87523e-71
2.99359e-77
2.4361e-78
-1.63601e-74
1.3155e-80
-1.86358e-81
2.6908e-78
6.74779e-84
-7.02584e-86
-6.15797e-81
2.19606e-87
1.29911e-88
1.49364e-83
-2.45709e-90
1.09536e-92
1.9888e-87
3.34481e-94
1.21262e-94
-6.13525e-90
8.00931e-97
8.48131e-98
-1.65868e-93
9.69534e-101
2.15979e-101
-3.15258e-96
4.3009e-104
4.21985e-105
-1.05373e-98
3.9398e-107
-1.51354e-108
3.19795e-103
1.96053e-110
5.51597e-111
-2.19369e-108
1.04872e-113
3.96938e-115
-1.27856e-109
-6.73552e-116
3.37026e-118
5.71845e-112
8.74413e-121
-1.17209e-122
-5.43192e-115
-7.32289e-123
5.47839e-125
5.10064e-120
3.67519e-126
2.47553e-128
3.79269e-123
-4.68951e-131
-5.50891e-131
2.10622e-126
-1.84592e-132
-3.4482e-132
1.90065e-129
1.21719e-137
-1.18882e-135
-6.29659e-133
3.97643e-140
1.93807e-139
-2.7791e-135
1.73528e-142
4.64197e-143
4.4155e-137
-2.9727e-146
-1.43465e-146
2.15352e-141
-1.3065e-147
7.47084e-149
2.04043e-143
2.89137e-151
9.55501e-152
3.21307e-148
-1.64009e-153
4.57549e-155
-1.27652e-150
3.59479e-158
-2.98948e-153
1.17048e-08
-9.18249e-08
-1.7602e-08
4.75133e-09
1.8554e-08
7.7894e-08
4.91547e-08
3.03675e-08
-4.47742e-09
-5.50579e-08
-3.22484e-08
-9.19337e-08
2.97581e-07
-2.54845e-08
3.41443e-09
4.77428e-09
7.69045e-09
2.15781e-09
6.38461e-09
3.53471e-08
-2.33526e-08
1.31245e-08
-2.3009e-08
-1.84203e-09
1.9395e-09
-3.23943e-08
-1.84055e-08
1.36976e-08
1.23915e-08
-2.71383e-08
-2.35551e-08
1.91484e-08
-9.3715e-10
5.37291e-09
2.50958e-09
4.03118e-09
2.77003e-09
-1.46298e-08
-9.84701e-10
-3.27057e-11
4.83633e-11
-9.4163e-11
5.98917e-11
-1.58621e-16
3.65939e-17
-1.82663e-08
3.64101e-17
3.28816e-17
-1.58174e-16
-1.5904e-16
-1.58973e-16
3.1664e-25
-6.63787e-22
-3.99771e-22
5.72345e-18
5.72384e-18
5.7217e-18
5.72164e-18
-1.81704e-26
-1.57915e-25
9.91656e-26
8.94171e-29
-3.85845e-30
9.71805e-30
5.08103e-32
-9.83588e-32
1.07629e-32
8.43757e-37
-2.09846e-35
1.77499e-35
-2.74659e-40
-2.48315e-39
5.85958e-40
-1.0874e-43
-6.28188e-43
5.52318e-43
-4.0411e-47
-1.60652e-46
1.65845e-45
-1.47689e-50
-3.90172e-50
1.70813e-49
-5.31228e-54
-8.18006e-54
-4.72409e-52
-1.87699e-57
-2.5045e-57
-1.77246e-55
-6.45981e-61
-1.75274e-61
1.02781e-57
-2.15515e-64
2.37797e-64
2.57542e-61
-7.03359e-68
-4.38858e-68
3.69428e-64
-2.19668e-71
-1.7038e-71
1.53849e-68
-5.79211e-75
-5.66172e-75
6.34615e-71
-8.93169e-79
2.97703e-79
3.87485e-74
-4.73807e-81
2.74222e-81
-1.56495e-77
2.72839e-85
-5.39296e-87
3.31817e-81
4.20827e-88
5.62178e-89
4.28047e-84
4.5612e-91
5.81039e-92
4.04696e-87
1.27264e-93
3.49583e-94
1.98966e-89
-5.61938e-97
5.72506e-97
1.14472e-92
2.01714e-100
-7.60371e-102
4.77699e-97
-1.73448e-103
4.02894e-105
1.45815e-99
5.97819e-107
1.49751e-108
-3.53033e-102
4.52658e-110
6.30919e-111
1.44817e-107
9.80704e-114
3.24985e-115
1.70126e-110
1.20321e-116
6.88347e-119
1.10679e-112
-1.41217e-119
3.90304e-121
-3.63026e-115
2.96536e-123
-7.12801e-125
-1.71312e-120
-4.13377e-126
-1.00475e-127
3.96409e-123
7.80304e-129
8.27182e-131
-2.92247e-126
6.04245e-132
-2.65901e-133
4.9117e-128
-8.21353e-135
-5.35963e-138
2.1253e-131
7.91902e-139
1.88754e-140
1.91759e-134
-2.55017e-142
-1.11688e-143
4.0312e-137
1.5021e-145
-8.50069e-148
1.59716e-141
2.9869e-147
5.17321e-149
-5.89811e-144
8.53688e-152
9.55302e-154
1.02779e-148
-3.38055e-153
3.59975e-158
7.0793e-150
1.03928e-157
1.16368e-154
6.74851e-08
6.16331e-09
-7.63306e-08
1.56103e-08
-2.28656e-08
3.62542e-08
-2.94258e-08
1.77259e-08
-1.99972e-08
-1.14673e-08
-1.40631e-08
-2.54859e-08
-9.20929e-09
2.83225e-09
-6.24081e-09
-5.09633e-08
4.15422e-08
-1.47036e-07
-1.29268e-07
-1.06219e-08
-2.0221e-08
-1.75117e-08
-1.22645e-08
-9.04176e-09
-1.15143e-08
-1.21583e-08
-3.39152e-09
9.87494e-09
1.95067e-08
-9.83093e-09
-8.24844e-09
1.91303e-09
-7.59464e-09
9.7613e-09
-8.15387e-09
-1.3061e-08
-1.07697e-08
7.31238e-09
-9.53729e-09
3.37726e-10
-6.82888e-09
7.42356e-09
7.44462e-09
-9.718e-09
2.10821e-09
-6.02937e-10
1.20402e-09
-3.0974e-10
1.41097e-11
-2.67293e-11
-8.38703e-11
2.50462e-11
2.54509e-19
2.29791e-18
7.38335e-19
3.84713e-16
-5.89332e-17
-2.34117e-17
-3.12392e-16
-4.23604e-18
-3.76562e-18
-2.87604e-19
-3.71453e-18
2.74146e-25
7.311e-22
2.74015e-24
3.21713e-29
1.07902e-25
6.70943e-27
1.53362e-29
2.65875e-29
1.81586e-30
3.16889e-33
4.65617e-33
2.25829e-34
1.22345e-37
3.74342e-37
-9.29292e-39
3.6572e-41
1.13978e-40
-9.85082e-41
1.57253e-44
2.88635e-44
-3.19011e-44
6.82321e-48
7.43131e-48
-3.14903e-47
2.94955e-51
1.86096e-51
8.6683e-51
1.27041e-54
4.63381e-55
1.24978e-52
5.44457e-58
-8.90189e-60
1.25136e-55
2.33712e-61
2.41709e-62
6.67306e-60
9.33279e-65
8.85276e-66
1.56568e-62
4.19828e-68
1.41856e-69
1.27024e-66
1.77036e-71
-6.37527e-73
-4.24417e-69
7.64e-75
1.1602e-76
-9.00526e-73
2.65253e-78
-5.45671e-80
6.10836e-75
1.27084e-81
-1.22964e-83
2.27999e-78
5.24772e-85
-1.83412e-87
7.58686e-82
2.76218e-88
-1.51046e-90
3.98292e-86
1.1979e-92
6.49267e-92
-4.50324e-87
6.80591e-95
7.13843e-98
-2.01931e-93
1.75231e-98
-1.05576e-100
5.94132e-96
6.86501e-102
9.88364e-105
-5.8085e-97
6.23694e-106
6.25226e-108
-2.09111e-102
1.74458e-108
-3.07056e-111
6.88175e-104
1.62637e-111
-6.60738e-115
-1.4013e-107
-3.89447e-115
1.41842e-116
-7.10032e-110
2.27032e-119
-6.33455e-121
-7.04225e-114
-1.24463e-120
-3.33317e-122
5.19566e-116
6.34779e-124
1.75659e-125
-2.09291e-119
9.01729e-127
-2.13973e-129
-1.66371e-122
7.33036e-131
-1.29843e-133
-4.18905e-126
3.27719e-133
1.1109e-135
4.09611e-129
2.86968e-137
-1.75305e-138
3.51156e-132
-9.15639e-142
-5.62731e-144
1.21816e-136
4.62231e-145
2.68633e-145
-6.41528e-139
1.61159e-146
1.78095e-150
-3.09937e-142
7.55177e-149
9.12244e-152
-1.27074e-144
-5.30804e-153
-2.24144e-156
2.07145e-150
2.31254e-153
3.68019e-158
9.1076e-152
4.98293e-158
-6.58146e-155
-3.43657e-08
2.11482e-08
2.40511e-08
1.37405e-08
4.71722e-09
2.40708e-08
-1.43832e-08
-1.42895e-08
1.18093e-08
2.65291e-08
9.5924e-08
3.91401e-08
-6.46121e-07
-4.63849e-07
-2.90361e-07
4.76209e-08
5.26641e-08
5.04617e-08
4.51176e-08
8.8855e-08
9.98878e-08
9.55764e-08
9.00722e-08
9.15178e-08
9.1468e-08
8.46793e-08
-5.74576e-08
3.56961e-09
-1.78693e-08
2.36149e-08
3.14607e-09
1.04771e-09
2.01247e-08
5.17053e-08
2.78506e-08
7.35666e-08
1.21568e-07
1.27542e-09
5.12537e-10
1.15762e-09
-1.03892e-09
1.14864e-08
-2.10512e-08
-1.58493e-08
1.02309e-08
2.0267e-09
7.16755e-09
-2.00973e-09
-3.7894e-09
-3.83436e-09
-7.38265e-11
1.02804e-11
1.41791e-09
3.56586e-11
1.42175e-09
3.49388e-21
-1.70534e-20
9.13017e-21
6.10461e-19
1.91657e-20
2.66488e-18
-1.00495e-18
4.1026e-27
-2.03853e-24
8.2632e-26
2.73721e-28
-1.97562e-28
8.12186e-29
5.94663e-32
-1.72039e-32
2.6217e-32
9.1249e-37
1.4041e-36
1.78254e-35
-3.13213e-40
-2.66714e-39
7.01001e-39
-1.25697e-43
-7.17137e-43
4.03974e-42
-4.17076e-47
-2.15253e-46
2.48914e-45
-1.14806e-50
-4.92741e-50
3.47262e-48
-6.98728e-56
-2.37702e-53
1.20812e-50
-1.98624e-58
-5.20151e-57
1.3011e-54
1.26841e-60
-2.67766e-60
-6.17641e-57
2.78157e-64
-3.53196e-64
-4.20932e-61
-3.07892e-67
-3.80846e-68
4.8992e-64
1.05109e-70
1.23004e-72
-6.18043e-67
1.79544e-73
8.26639e-75
-2.58652e-70
2.28913e-77
-1.26372e-77
2.1582e-74
1.65403e-80
-1.17805e-80
1.10313e-76
-4.27263e-83
3.45447e-85
-5.61091e-80
6.30516e-86
-1.21857e-88
-9.99762e-83
-6.88967e-90
8.19464e-92
2.93368e-86
1.0185e-92
1.38875e-94
-4.68405e-90
2.28457e-95
2.36117e-98
-1.79133e-92
-3.18242e-99
-1.62931e-100
6.82867e-96
4.98134e-103
7.17293e-105
-2.28266e-100
1.63345e-105
4.25046e-107
-1.01596e-101
1.02223e-108
-2.11496e-112
4.40712e-105
-1.93208e-114
-9.63027e-115
-6.55231e-109
-9.96554e-115
6.07314e-117
-1.55566e-111
-1.56269e-118
-2.56137e-121
-7.79086e-115
7.64238e-121
4.57013e-124
1.83481e-118
1.59819e-124
1.46265e-128
-4.31051e-121
-4.79587e-128
-8.08119e-131
1.16594e-124
3.31111e-131
-7.32065e-135
-9.56122e-128
3.14862e-134
3.45861e-137
2.86947e-131
-4.73637e-137
-6.99312e-141
-1.73595e-133
1.19073e-140
-9.23574e-144
-4.75812e-137
-9.54785e-145
1.9314e-147
-7.30612e-141
6.06381e-149
4.63949e-150
-1.05683e-143
9.9809e-150
-9.22966e-153
-9.62332e-147
-1.15434e-153
-5.09595e-155
4.66948e-150
3.49605e-154
-3.3633e-157
4.35127e-153
1.53422e-159
-1.57343e-155
2.40178e-08
8.95487e-09
-1.49658e-08
1.20555e-09
4.60394e-08
2.17994e-08
1.8969e-08
-6.59167e-09
-1.1893e-08
-8.69106e-09
-1.64972e-08
-1.01069e-08
4.12393e-08
6.69999e-09
3.01384e-08
-1.9068e-08
-1.32359e-08
-2.55673e-08
-1.34033e-08
4.83207e-09
2.89496e-08
1.15609e-07
1.05348e-08
1.15367e-08
1.83363e-08
1.89808e-08
1.44419e-08
1.62757e-08
-1.26644e-08
8.08941e-10
1.0711e-07
-2.24186e-08
1.46365e-08
1.80242e-08
1.32836e-08
7.35967e-11
2.50443e-10
1.00963e-09
-2.40737e-09
6.70243e-10
-7.56186e-13
5.89798e-15
-2.46878e-08
1.06897e-12
-2.46878e-08
1.67446e-21
1.28028e-22
-4.39287e-21
5.25243e-21
-1.48877e-20
1.00445e-19
-1.06212e-19
1.08748e-26
3.21322e-26
-9.07199e-26
3.71753e-29
1.97747e-28
-7.14263e-31
3.8256e-32
-2.18797e-32
-3.89328e-33
1.86417e-36
-1.89908e-36
-1.67217e-36
5.37185e-40
-2.59838e-40
-1.68265e-40
2.17283e-43
-1.11856e-43
1.08239e-43
8.85987e-47
-2.98894e-47
-2.46335e-46
3.61119e-50
-2.04332e-50
1.14141e-49
1.46906e-53
-2.57379e-54
-4.73651e-52
5.96957e-57
-4.42777e-58
-2.9788e-55
2.41961e-60
-2.16497e-61
-2.04682e-58
9.78888e-64
-2.94525e-65
-6.01565e-62
3.95384e-67
-8.93666e-69
4.01457e-65
1.59477e-70
9.52697e-72
-4.9918e-68
6.42014e-74
-1.71667e-75
8.07502e-72
2.74917e-77
7.26476e-79
-1.78437e-76
2.56468e-80
-6.32645e-82
-1.0543e-76
4.78898e-84
1.27781e-86
-4.89887e-81
1.63897e-87
1.49694e-88
3.36834e-84
5.89384e-91
-1.20787e-92
-7.12175e-87
2.93245e-94
-2.878e-96
-2.10279e-91
1.62299e-97
-6.19129e-99
-2.88435e-94
1.02793e-99
6.6719e-102
-6.32736e-96
4.92799e-104
-2.07502e-105
-1.27439e-100
4.26504e-108
1.70976e-108
2.44516e-103
-2.55083e-112
-1.4215e-111
1.78469e-107
-1.64229e-113
-4.246e-116
-3.70725e-109
3.644e-117
-4.70276e-118
-2.11714e-112
5.12084e-120
-2.71707e-120
1.76367e-115
-1.84776e-123
-2.34862e-124
1.9192e-119
-1.32961e-126
-2.3037e-127
1.17941e-123
1.38794e-129
6.5965e-131
-2.23778e-125
1.35379e-132
-2.15103e-134
-3.45064e-128
3.8236e-135
2.056e-136
-2.47722e-131
-3.05954e-139
-9.06956e-141
1.46478e-135
2.34924e-142
-6.83041e-144
-9.74776e-139
-2.24575e-145
-1.77005e-146
1.21191e-141
1.14274e-148
-3.55238e-150
-5.88762e-145
6.07313e-152
7.18395e-153
6.51184e-148
-5.6687e-154
-1.10623e-155
-1.15076e-150
3.76415e-154
-2.57844e-157
-3.36965e-153
-6.68714e-159
1.64958e-157
2.59806e-08
1.80078e-07
1.38757e-07
5.46234e-08
-1.42456e-07
2.15041e-08
1.97031e-08
1.98448e-08
7.3217e-08
2.96097e-08
7.63519e-09
7.82958e-09
2.37101e-09
9.21796e-09
1.21332e-08
1.24119e-08
1.08963e-07
-1.5757e-08
8.51063e-08
-1.69917e-08
2.12447e-08
2.96045e-08
1.33967e-08
-4.7787e-08
2.24042e-08
2.29631e-08
1.72103e-08
1.54735e-08
2.83834e-08
3.19572e-08
2.8604e-08
1.40816e-09
-2.82446e-08
-1.1359e-08
2.87302e-08
2.47987e-08
-3.26322e-09
-5.3555e-08
1.93915e-08
-1.30789e-08
9.45581e-08
-1.23183e-07
-8.21303e-10
-4.21377e-09
2.8715e-09
1.03042e-09
-2.7041e-10
-3.92166e-17
3.74184e-17
2.46424e-20
-1.04026e-18
-8.85396e-19
-1.23074e-19
-6.82313e-17
7.21138e-17
2.54899e-24
3.80956e-24
1.10824e-21
9.32717e-23
-5.04552e-21
2.06787e-21
1.87563e-26
3.11683e-28
3.84274e-29
4.19478e-30
6.91139e-34
4.94919e-33
1.75864e-37
2.47319e-36
7.24201e-41
4.02269e-40
3.04619e-44
-5.1387e-44
1.28482e-47
-2.73212e-46
5.41148e-51
-7.38178e-49
2.27023e-54
9.39457e-53
9.53526e-58
-1.2768e-55
4.01902e-61
-8.68922e-59
1.69225e-64
4.98118e-62
6.99279e-68
3.36535e-65
2.87707e-71
8.58967e-69
1.20435e-74
-1.41557e-72
4.68714e-78
1.13004e-75
2.00327e-81
2.74367e-77
8.26136e-85
-1.8439e-81
4.21504e-88
-2.06565e-85
2.29722e-91
-8.82946e-88
1.36948e-94
6.15353e-91
7.24449e-98
-8.91849e-94
3.15849e-100
-1.61607e-96
1.26404e-103
-1.13869e-99
7.37064e-107
-8.64955e-103
1.66027e-109
-1.29302e-106
-5.95225e-114
-5.89036e-110
-2.33749e-117
-4.99444e-112
1.9841e-119
4.29646e-115
2.86753e-123
1.86574e-119
1.44254e-125
-6.46872e-122
8.69951e-130
-1.34608e-127
9.70346e-133
5.43758e-130
2.59125e-137
1.23245e-132
4.29027e-138
-1.29919e-134
2.4267e-142
4.04776e-138
4.73836e-146
-2.48629e-141
7.52027e-148
-7.58969e-145
-8.70777e-152
2.49537e-147
2.17927e-153
-7.1379e-152
2.98846e-154
1.2925e-153
7.07209e-157
-1.27296e-08
-2.38932e-09
-1.06331e-08
6.28739e-08
2.17412e-08
1.25151e-07
3.16354e-08
-5.0668e-09
-1.40847e-08
-7.79249e-09
-5.13975e-10
-2.10037e-09
-1.68708e-09
-2.97966e-08
1.9969e-08
1.44772e-07
3.03362e-09
2.64575e-09
-1.66617e-08
-1.39905e-08
1.56537e-08
7.47139e-09
2.42853e-09
-2.11963e-07
-1.33215e-07
-1.79779e-07
-4.9357e-08
8.02777e-09
-5.05221e-08
9.81878e-09
1.01071e-08
1.4438e-07
-1.96196e-07
1.17193e-07
-4.97819e-07
1.44386e-08
1.5445e-08
1.47815e-08
1.60302e-08
2.32164e-09
1.56501e-09
1.36051e-10
-1.23326e-09
-1.84426e-09
2.73522e-17
-4.85597e-20
1.1293e-19
-2.16941e-17
-1.79563e-20
-1.62896e-17
4.14638e-17
-1.77944e-17
-1.09559e-24
4.49288e-21
-8.93826e-25
9.15761e-21
-1.32602e-20
1.01685e-20
-1.44513e-20
8.0778e-26
1.47969e-25
-3.37631e-28
9.91693e-28
-6.16725e-28
-5.71477e-30
9.69104e-32
-1.08534e-30
-4.39342e-33
1.34819e-35
-1.32546e-34
-9.55317e-38
9.61919e-39
-3.68798e-38
-6.52405e-40
6.95926e-42
-1.39461e-41
2.07342e-43
4.8836e-45
-4.58592e-45
1.99306e-47
3.41771e-48
-3.00591e-48
1.50291e-48
2.39001e-51
-6.3789e-52
-5.35345e-53
1.66553e-54
-2.63599e-55
-4.17788e-56
1.15672e-57
1.86733e-59
7.77049e-59
8.02314e-61
-3.41134e-62
-6.33553e-62
5.55416e-64
1.95959e-65
-1.92256e-64
3.83285e-67
2.73335e-68
4.05254e-68
2.63915e-70
2.03013e-72
-2.19179e-71
1.81201e-73
2.62687e-74
-3.37492e-75
1.24068e-76
-1.19822e-77
-1.3386e-77
8.47952e-80
-6.88625e-81
-1.33432e-81
5.78098e-83
-4.15778e-84
-4.05785e-84
3.9298e-86
1.1364e-87
4.63811e-89
2.66373e-89
-3.8354e-91
-6.74059e-91
1.80087e-92
-1.17299e-93
-1.68569e-96
1.21385e-95
4.82548e-96
4.72857e-97
8.16518e-99
2.37731e-99
4.93851e-101
5.48009e-102
-2.34462e-103
-3.97679e-103
3.67024e-105
-1.71187e-105
3.77382e-106
2.45259e-108
1.81341e-109
1.25261e-111
1.63345e-111
4.53774e-113
2.69983e-113
1.08453e-114
2.12409e-115
-1.68833e-115
7.18803e-118
-5.02846e-119
-3.99109e-120
4.75648e-121
1.63071e-122
-1.02382e-123
3.13961e-124
-2.52663e-125
2.23333e-125
2.06782e-127
1.9493e-128
1.84038e-129
1.35847e-130
-6.26662e-132
-3.14029e-133
8.90515e-134
7.04625e-135
3.48049e-135
5.82108e-137
2.09224e-137
-2.48823e-140
3.79543e-140
-2.10827e-141
5.06873e-142
2.46899e-143
-1.05949e-143
3.27069e-144
1.60426e-146
-4.11939e-147
6.09189e-148
1.04293e-149
-8.35804e-151
3.23681e-151
2.64859e-153
-1.18843e-154
6.86239e-154
9.58921e-157
2.1132e-156
-1.7483e-08
-2.7693e-08
-5.4733e-08
3.78001e-09
1.23051e-08
-1.6116e-09
-2.6953e-09
-3.00941e-08
-1.01156e-06
3.11977e-07
-1.47914e-08
-1.68817e-08
-1.2795e-08
-1.63937e-08
1.61695e-08
-1.06398e-08
4.2636e-07
2.42045e-08
-1.51056e-08
4.22692e-07
-3.32799e-09
-9.7103e-10
2.12389e-07
1.49256e-07
-4.12734e-09
1.27155e-07
-3.02234e-07
7.24805e-09
8.39573e-09
4.4816e-09
6.8317e-09
9.97309e-09
1.99687e-08
2.30626e-08
3.62563e-08
3.30723e-09
5.05951e-08
-1.14755e-06
-5.60381e-08
9.84763e-07
-5.25041e-08
-2.61441e-07
6.41575e-09
-2.72336e-09
2.24712e-08
8.51204e-09
1.42042e-07
1.08763e-08
2.52164e-09
-7.93073e-09
4.15201e-09
-1.92838e-09
-7.04337e-09
-8.31801e-14
8.12718e-17
2.73512e-15
8.00692e-17
-9.35003e-16
-6.62099e-14
-2.25385e-14
1.6573e-13
-1.22665e-14
-1.24855e-14
-9.35552e-15
-9.32875e-15
1.00514e-20
-7.5888e-20
-1.84595e-21
-5.71478e-20
1.1465e-19
-4.50464e-20
2.02095e-19
-1.49779e-26
5.4698e-25
-3.92431e-26
3.15593e-29
1.02798e-27
2.23103e-30
7.57634e-32
2.95729e-32
1.73136e-33
-1.24493e-35
1.29808e-33
4.36945e-37
-8.03164e-39
3.83243e-37
8.39535e-40
-4.59029e-42
3.04599e-41
1.72239e-43
-2.62812e-45
1.37019e-44
6.81579e-47
-1.45431e-48
7.8158e-48
-3.79986e-49
-7.59191e-52
2.91752e-51
-4.55047e-53
-3.63994e-55
6.58583e-54
-1.24818e-54
-1.46262e-58
3.32695e-57
-9.76895e-58
-3.27752e-62
2.75775e-61
-1.32261e-62
2.2046e-65
-7.05137e-65
-7.70708e-65
4.3639e-68
4.3199e-67
3.20258e-68
4.84842e-71
-4.09881e-70
-2.80597e-71
4.54975e-74
-4.78368e-73
1.31383e-75
3.89047e-77
5.984e-77
2.67668e-78
3.14383e-80
2.64546e-80
5.90621e-81
2.4483e-83
3.14842e-84
-1.73179e-84
1.85947e-86
-1.98605e-86
2.45328e-87
1.38715e-89
5.13514e-89
-4.85298e-90
1.01794e-92
-1.78701e-92
-6.4059e-94
7.37681e-96
-3.85633e-96
7.72213e-98
5.29347e-99
5.96354e-100
9.46588e-100
3.76639e-102
-7.98369e-102
5.36393e-103
2.65785e-105
-1.10569e-105
-2.10108e-105
1.8614e-108
1.46111e-109
2.02913e-109
1.29519e-111
-1.08381e-111
2.29516e-112
8.96101e-115
-6.33814e-115
2.11007e-115
6.17084e-118
9.9065e-119
1.47943e-119
4.22426e-121
-5.90991e-121
9.99147e-122
2.87791e-124
-4.54603e-125
2.37013e-126
1.95369e-127
4.73749e-128
1.65788e-129
1.32084e-130
3.54869e-131
-9.39715e-133
8.90011e-134
1.10814e-133
-3.41704e-135
5.98229e-137
2.42121e-137
9.78876e-138
4.00385e-140
3.83156e-140
-1.16897e-140
2.66928e-143
7.67155e-144
-1.70508e-144
1.77499e-146
-2.92885e-147
1.76655e-147
1.18711e-149
-2.3872e-150
4.28933e-151
6.06891e-152
3.16434e-153
-1.05171e-153
-2.4072e-157
3.31837e-157
1.62937e-08
-1.38885e-08
7.45523e-09
3.1856e-10
-1.98022e-08
2.00769e-07
-7.56982e-10
9.31807e-09
-4.6597e-07
1.03624e-08
-1.83039e-08
-2.07204e-09
-4.48873e-10
1.98003e-07
-2.53446e-07
-4.38135e-08
-4.52889e-08
4.95864e-09
-4.94939e-08
6.17783e-09
5.66739e-08
-1.75903e-08
-1.67904e-09
-2.25202e-08
-9.31559e-09
-4.85062e-09
-1.66161e-08
-1.04047e-08
9.11477e-08
2.77757e-08
-1.07658e-09
-6.41591e-09
1.38835e-09
6.78442e-09
-2.88239e-08
-4.71591e-11
-8.27268e-14
-2.25731e-14
-2.95662e-14
2.54821e-14
2.72928e-15
-8.15476e-20
4.28765e-18
1.89682e-20
-8.08852e-19
-2.51721e-18
1.33874e-19
-2.08446e-18
-1.60448e-24
1.55631e-21
1.28604e-24
8.48657e-28
-4.27416e-25
4.45123e-29
7.35607e-31
-2.22231e-28
1.53903e-33
3.66964e-34
-1.34937e-31
2.33871e-36
2.19152e-37
-6.05092e-35
1.5846e-39
1.24697e-40
-2.60221e-38
2.39641e-42
8.78633e-44
-9.62003e-42
1.20872e-44
6.28749e-47
-4.51808e-45
2.17547e-48
4.424e-50
-1.89715e-48
-5.1882e-51
3.10107e-53
-9.50744e-53
-5.92625e-54
2.17126e-56
-8.18351e-55
-3.12747e-57
1.51656e-59
-1.60037e-58
-5.98921e-61
1.05609e-62
1.88578e-62
7.30093e-64
7.3382e-66
-5.59174e-65
9.90169e-68
5.0865e-69
-2.30264e-68
-4.26098e-70
3.51297e-72
1.5119e-71
-8.22995e-73
2.42243e-75
-9.71449e-75
-3.11991e-76
1.66817e-78
-1.06319e-78
-6.24158e-80
1.14532e-81
5.20366e-82
3.5002e-83
7.84108e-85
6.51104e-85
1.93633e-86
5.36466e-88
1.15879e-88
2.76028e-89
3.66359e-91
-1.51988e-90
1.7724e-92
2.49626e-94
6.31043e-95
2.20807e-95
1.70044e-97
-7.43877e-99
6.0332e-99
1.15447e-100
3.58491e-101
1.01911e-101
7.81128e-104
8.75419e-105
-3.11576e-105
5.28305e-107
1.49044e-107
6.31731e-109
3.568e-110
-1.98392e-110
6.98282e-111
2.40447e-113
6.04645e-115
2.61803e-114
1.61831e-116
6.98296e-118
-1.67747e-117
1.08681e-119
9.34961e-121
-1.50662e-122
7.28059e-123
9.45486e-123
6.42046e-124
4.87073e-126
1.00965e-126
-1.70345e-127
3.25344e-129
3.5053e-130
4.11669e-131
2.17222e-132
-1.255e-131
1.59283e-133
1.44909e-135
-2.65429e-135
6.58932e-137
9.64257e-139
4.12689e-139