/*--------------------------------*- C++ -*----------------------------------*\
| =========                 |                                                 |
| \\      /  F ield         | OpenFOAM: The Open Source CFD Toolbox           |
|  \\    /   O peration     | Version:  5.0                                   |
|   \\  /    A nd           | Web:      www.OpenFOAM.org                      |
|    \\/     M anipulation  |                                                 |
\*---------------------------------------------------------------------------*/
FoamFile
{
    version     2.0;
    format      ascii;
    class       volScalarField;
    location    "1";
    object      alpha.water;
}
// * * * * * * * * * * * * * * * * * * * * * * * * * * * * * * * * * * * * * //

dimensions      [0 0 0 0 0 0 0];

internalField   nonuniform List<scalar> 
9914
(
1.00698
1.0345
1.08126
0.849649
1.05194
0.986208
-3.53655e-20
-1.36724e-21
7.96016e-17
1.70961e-18
5.15855e-22
9.68627e-27
2.61861e-30
1.05048e-33
4.18315e-37
1.71324e-40
6.683e-44
2.74675e-47
1.17895e-50
4.23064e-54
1.96753e-57
7.76475e-61
2.87475e-64
1.14385e-67
4.26036e-71
1.91915e-74
2.20119e-77
2.74551e-81
2.64956e-83
6.80756e-87
1.63075e-90
2.23503e-94
8.0591e-97
1.65061e-99
3.58828e-103
2.09951e-106
2.12508e-109
5.36237e-112
3.07251e-116
3.20453e-120
9.95694e-123
2.05383e-125
1.91583e-128
6.69287e-131
5.60286e-135
1.76598e-137
1.93287e-141
3.42785e-145
1.09794e-145
3.84116e-147
0.953535
0.809813
1.06219
1.0203
1.06263
1.10808
-2.2863e-17
-2.48669e-17
-5.70371e-22
4.17051e-20
1.11895e-21
5.22695e-25
1.67932e-29
4.56418e-33
1.83275e-36
7.50812e-40
4.0927e-43
1.60195e-46
5.60901e-50
2.1224e-53
8.62861e-57
3.49117e-60
1.60359e-63
8.35879e-67
2.80443e-70
2.01642e-73
8.81827e-77
2.08292e-80
4.55291e-83
9.55042e-87
2.32479e-90
8.5139e-93
1.93704e-96
2.36414e-99
3.71819e-103
1.40037e-105
6.10765e-109
3.07548e-113
9.21883e-115
6.53577e-118
8.71877e-122
1.17258e-124
8.46139e-129
1.48892e-132
4.11065e-135
7.80722e-138
4.91322e-141
7.2834e-145
1.16374e-145
4.97529e-147
0.986157
1.07295
0.932406
0.866371
1.08589
1.01901
-5.87095e-14
-2.52225e-16
-3.2105e-20
3.258e-19
5.23016e-21
1.94134e-24
1.89739e-28
3.75847e-32
1.39031e-35
5.69913e-39
2.36872e-42
9.97405e-46
4.21521e-49
1.6301e-52
7.44255e-56
2.81738e-59
1.2922e-62
4.65866e-66
2.14308e-69
1.42259e-72
5.95462e-76
1.43165e-79
1.12293e-82
3.35541e-85
3.45786e-89
6.75794e-93
4.71287e-94
5.58558e-97
4.85799e-101
1.20418e-104
9.78601e-108
1.00521e-111
1.53714e-113
1.58046e-116
2.48116e-120
9.05995e-124
1.8842e-126
1.98786e-130
4.16717e-133
1.18208e-136
7.98943e-139
4.52347e-142
2.89303e-145
3.64396e-146
1.00527
1.06147
1.01841
0.996159
1.03701
1.01363
0.350965
-5.90793e-16
-1.35277e-18
-6.33679e-37
1.84643e-20
2.45347e-22
4.14923e-26
2.6334e-30
9.06103e-34
3.63327e-37
1.46228e-40
6.05905e-44
2.38205e-47
9.43075e-51
3.89428e-54
1.51309e-57
8.30277e-61
3.31896e-64
2.5189e-67
6.88513e-71
1.78323e-74
4.8027e-77
2.40992e-80
2.24853e-84
7.68385e-87
1.01661e-89
1.89565e-93
2.90673e-97
9.8876e-100
1.53964e-103
6.63198e-107
9.12081e-110
5.68915e-112
2.64819e-115
2.12984e-119
7.4452e-122
6.30972e-126
1.93273e-128
1.98771e-131
7.75483e-135
1.28314e-138
7.33154e-142
7.26976e-145
6.86579e-146
1.00996
1.04001
0.972065
1.01241
1.0423
1.02594
0.87269
-5.36969e-16
1.49239e-15
5.46067e-18
6.62956e-20
1.68189e-21
1.31224e-24
4.04569e-29
9.23603e-33
3.69946e-36
1.49194e-39
6.03866e-43
2.43891e-46
9.85639e-50
3.94677e-53
1.6674e-56
6.42358e-60
2.70461e-63
1.04406e-66
4.57598e-70
1.78675e-73
8.61752e-77
4.55015e-80
3.64811e-83
3.8441e-86
4.25896e-90
1.37433e-92
1.42936e-96
3.10356e-100
3.59129e-103
2.03748e-105
8.98777e-109
5.72908e-113
1.78984e-115
3.4772e-119
4.33858e-123
1.53495e-126
1.81861e-128
3.734e-131
9.95577e-135
9.97573e-137
5.24187e-140
5.45528e-143
2.73685e-145
1.08588
1
1.15618
1.0352
1.02795
1.02447
0.9581
-2.48602e-16
1.47086e-15
6.99374e-18
6.89844e-20
1.4596e-21
1.10204e-24
3.79139e-29
8.86618e-33
3.54856e-36
1.43874e-39
5.88406e-43
2.36499e-46
9.78083e-50
3.89009e-53
1.56217e-56
6.23345e-60
2.75799e-63
1.14498e-66
6.26086e-70
1.94586e-73
9.47908e-77
1.09172e-79
2.60228e-82
2.60174e-85
2.58815e-89
1.08078e-92
3.23421e-96
6.36366e-99
1.28864e-102
5.96264e-106
1.05443e-108
8.80021e-113
5.63829e-116
5.68635e-118
2.12218e-120
8.60583e-124
1.00169e-127
2.84971e-131
3.23744e-134
2.56206e-137
3.40452e-141
1.59611e-144
2.22814e-145
1.07879
1.05322
0.951935
0.998015
1.0419
0.986564
0.800209
-1.00529e-16
-1.27127e-18
7.72546e-23
2.07383e-20
2.95363e-22
5.08539e-26
3.07528e-30
1.0527e-33
4.21759e-37
1.695e-40
6.83688e-44
2.76077e-47
1.11209e-50
5.52516e-54
1.7916e-57
8.34709e-61
2.91707e-64
2.18238e-67
4.77139e-71
1.81185e-74
7.00848e-78
3.75965e-80
4.13199e-84
6.00193e-88
1.67732e-90
1.75621e-94
3.78595e-97
1.42538e-100
2.82116e-103
3.74361e-107
1.92879e-109
1.62812e-112
1.78508e-115
1.02694e-119
1.30975e-122
1.08203e-125
7.72717e-130
5.32127e-132
8.10387e-136
8.60621e-138
6.86273e-142
2.88597e-145
6.29217e-146
1.03177
0.979298
1.08376
1.05889
0.915971
0.998925
0.218333
-4.61378e-18
-1.76484e-20
3.88175e-19
6.57301e-21
1.87428e-24
1.46889e-28
3.48234e-32
1.32909e-35
5.41865e-39
2.22513e-42
9.07092e-46
3.91441e-49
1.6428e-52
6.21873e-56
2.96106e-59
1.22091e-62
4.02467e-66
1.8814e-69
1.4199e-72
1.66491e-75
9.83797e-79
7.60106e-83
3.80417e-85
6.06422e-89
1.46957e-91
8.918e-95
1.21178e-98
5.85575e-102
2.92835e-104
4.23587e-108
1.05021e-110
5.48185e-114
9.24237e-118
1.70267e-121
9.3479e-124
1.52265e-126
5.98354e-130
3.52877e-134
9.12953e-138
9.28655e-141
2.5834e-144
2.666e-145
2.20108e-146
1.00711
0.936176
1.01603
0.884274
1.03615
0.99151
-4.55942e-19
-2.05486e-18
-1.40647e-23
4.0363e-20
1.13652e-21
5.56239e-25
1.75287e-29
4.67545e-33
1.87695e-36
7.62139e-40
3.14354e-43
1.28902e-46
5.32407e-50
2.10908e-53
8.3741e-57
3.46456e-60
1.35704e-63
5.73591e-67
1.38238e-69
2.03448e-73
4.83124e-77
2.38712e-80
7.54659e-84
1.10864e-86
7.4597e-89
1.37608e-92
1.38662e-96
2.99919e-100
3.26799e-102
1.0403e-105
7.54952e-109
6.64399e-113
1.09572e-116
1.3908e-118
2.71817e-121
4.62509e-124
9.23124e-128
6.26971e-132
2.8386e-135
2.13734e-138
1.5133e-140
2.45541e-143
2.67409e-145
1.45652e-146
1.04245
1.07778
1.11007
0.956577
1
1.00125
-3.89283e-23
-1.05785e-21
9.1988e-17
1.59006e-18
3.39973e-22
9.58045e-27
2.46407e-30
9.61626e-34
3.89715e-37
1.65245e-40
6.3696e-44
2.57851e-47
1.06333e-50
5.85665e-54
1.75863e-57
7.53963e-61
2.73861e-64
1.18145e-67
1.11219e-70
2.65793e-74
2.13759e-77
8.96131e-81
1.61705e-83
1.33609e-86
1.08722e-89
1.21417e-92
8.85197e-96
4.17542e-99
4.0405e-103
9.52708e-106
1.84737e-108
2.46002e-112
1.18513e-114
2.09701e-118
1.58938e-122
3.9716e-126
6.3673e-128
2.67326e-131
2.43278e-134
2.62507e-137
7.65679e-141
6.02754e-144
2.11727e-145
9.21596e-147
0.993409
1.02763
1.06893
0.914313
1.03056
0.981401
2.05212e-12
6.05681e-17
1.1612e-16
6.4388e-18
1.37396e-20
1.04391e-24
1.97717e-28
1.39973e-31
9.61086e-35
6.45527e-38
4.3292e-41
2.90143e-44
1.94043e-47
1.29501e-50
8.63706e-54
5.75091e-57
3.82187e-60
2.53687e-63
1.68099e-66
1.11182e-69
7.34872e-73
4.84928e-76
3.19348e-79
2.10041e-82
1.37899e-85
9.0337e-89
5.91585e-92
3.86913e-95
2.52732e-98
1.64906e-101
1.07371e-104
6.97695e-108
4.52989e-111
2.93983e-114
1.90504e-117
1.23327e-120
7.97438e-124
5.14515e-127
3.31786e-130
2.13562e-133
1.37298e-136
8.82339e-140
5.65681e-143
2.93558e-145
1.04442
0.829251
0.983304
0.952906
1.07887
1
1.77194e-10
2.74683e-16
1.58991e-18
5.74525e-19
5.1772e-21
1.18343e-24
3.11715e-28
2.11945e-31
1.49606e-34
1.04415e-37
7.25789e-41
5.03653e-44
3.48532e-47
2.40286e-50
1.65535e-53
1.13747e-56
7.79556e-60
5.33273e-63
3.64078e-66
2.47922e-69
1.68459e-72
1.14236e-75
7.72664e-79
5.21019e-82
3.5082e-85
2.35947e-88
1.58554e-91
1.06258e-94
7.09954e-98
4.7387e-101
3.15622e-104
2.098e-107
1.39213e-110
9.21226e-114
6.08094e-117
4.01001e-120
2.63933e-123
1.73344e-126
1.13823e-129
7.45669e-133
4.87387e-136
3.1782e-139
2.06896e-142
3.52036e-145
1.01871
1.05645
0.987633
0.760151
1
1.02512
3.09321e-06
1.9012e-13
1.41442e-16
3.11439e-18
1.39664e-20
2.87339e-23
2.13339e-26
5.31791e-30
2.5971e-33
1.87834e-36
1.34742e-39
9.44785e-43
6.61266e-46
4.62566e-49
3.22964e-52
2.25272e-55
1.56766e-58
1.0895e-61
7.55243e-65
5.22787e-68
3.61351e-71
2.49226e-74
1.71569e-77
1.18211e-80
8.11971e-84
5.57045e-87
3.81734e-90
2.6096e-93
1.7783e-96
1.21129e-99
8.23857e-103
5.59195e-106
3.79035e-109
2.56351e-112
1.72989e-115
1.16579e-118
7.85002e-122
5.27556e-125
3.54168e-128
2.37336e-131
1.58663e-134
1.0589e-137
7.05285e-141
3.04914e-144
0.531703
1.02729
0.999755
0.938368
1.09032
1.00935
0.360195
3.32941e-12
1.3986e-14
2.07071e-17
3.35046e-19
5.12886e-22
2.01017e-25
1.23572e-28
8.45741e-32
5.759e-35
3.9021e-38
2.63966e-41
1.78277e-44
1.20204e-47
8.09334e-51
5.43788e-54
3.64468e-57
2.44076e-60
1.63017e-63
1.08727e-66
7.24148e-70
4.81345e-73
3.19805e-76
2.1174e-79
1.39985e-82
9.23977e-86
6.08486e-89
4.00181e-92
2.62844e-95
1.72321e-98
1.12795e-101
7.36973e-105
4.80594e-108
3.12903e-111
2.03339e-114
1.32331e-117
8.57333e-121
5.54687e-124
3.57712e-127
2.30701e-130
1.48521e-133
9.54871e-137
6.12689e-140
2.36554e-143
1.00184
0.951899
1.00063
1.01799
1.02968
1.02936
0.869694
3.87254e-12
1.10128e-14
9.99114e-17
1.22703e-18
3.0166e-21
1.22176e-24
5.84201e-28
4.01031e-31
2.85437e-34
2.00262e-37
1.39703e-40
9.71699e-44
6.73837e-47
4.66491e-50
3.22076e-53
2.21688e-56
1.52301e-59
1.04356e-62
7.13053e-66
4.86422e-69
3.30987e-72
2.24572e-75
1.52068e-78
1.02736e-81
6.92311e-85
4.65743e-88
3.12567e-91
2.09294e-94
1.39936e-97
9.33368e-101
6.20954e-104
4.1243e-107
2.73529e-110
1.8105e-113
1.19624e-116
7.88836e-120
5.18963e-123
3.409e-126
2.23497e-129
1.46221e-132
9.55327e-136
6.22751e-139
2.41119e-142
1.09021
0.814076
1.14496
1.0321
1
1.01805
0.94576
2.07451e-12
3.44118e-14
3.37304e-16
1.02652e-18
2.41869e-21
1.20684e-24
5.97831e-28
4.0977e-31
2.91425e-34
2.04508e-37
1.42673e-40
9.92395e-44
6.88116e-47
4.75941e-50
3.28466e-53
2.26052e-56
1.55202e-59
1.06278e-62
7.25756e-66
4.9487e-69
3.3661e-72
2.28361e-75
1.54628e-78
1.04359e-81
7.0253e-85
4.72465e-88
3.17142e-91
2.12255e-94
1.41823e-97
9.45558e-101
6.29065e-104
4.17911e-107
2.77054e-110
1.8331e-113
1.21087e-116
7.97968e-120
5.24398e-123
3.44106e-126
2.2537e-129
1.47272e-132
9.61765e-136
6.27152e-139
2.43007e-142
0.999943
1.027
0.99579
1.00108
1.04108
0.990334
0.802465
1.25242e-12
1.37103e-14
9.96696e-18
3.71489e-19
6.00597e-22
2.28565e-25
1.38141e-28
9.43006e-32
6.42256e-35
4.34863e-38
2.93991e-41
1.98335e-44
1.33563e-47
8.98312e-51
6.02756e-54
4.03414e-57
2.69832e-60
1.80088e-63
1.19905e-66
7.9759e-70
5.29481e-73
3.50865e-76
2.32113e-79
1.53145e-82
1.01043e-85
6.65624e-89
4.37435e-92
2.87061e-95
1.88006e-98
1.22952e-101
8.02803e-105
5.23463e-108
3.40358e-111
2.21177e-114
1.43569e-117
9.2958e-121
6.00651e-124
3.87643e-127
2.49742e-130
1.60751e-133
1.03247e-136
6.63017e-140
2.57187e-143
1.04102
0.996048
1.27778
1.0677
1
0.99741
0.224012
7.50539e-14
5.07029e-17
2.7968e-18
1.3085e-20
2.37401e-23
1.62953e-26
4.57501e-30
2.40088e-33
1.72052e-36
1.22313e-39
8.53926e-43
5.94586e-46
4.13965e-49
2.87988e-52
2.00004e-55
1.38652e-58
9.60097e-62
6.63791e-65
4.57867e-68
3.15385e-71
2.16886e-74
1.49006e-77
1.02212e-80
7.00003e-84
4.78879e-87
3.27103e-90
2.22944e-93
1.51659e-96
1.03081e-99
6.99367e-103
4.73675e-106
3.20485e-109
2.16395e-112
1.45796e-115
9.81617e-119
6.59308e-122
4.42095e-125
2.96078e-128
1.97961e-131
1.32012e-134
8.79487e-138
5.85537e-141
2.57774e-144
1.00974
0.984417
1.05032
1.03313
1.06659
0.979995
3.18064e-07
4.10534e-16
1.07478e-18
5.67067e-19
6.41733e-21
1.73485e-24
3.89614e-28
2.36045e-31
1.63186e-34
1.14846e-37
8.01062e-41
5.56275e-44
3.85378e-47
2.6635e-50
1.83811e-53
1.26546e-56
8.69092e-60
5.95947e-63
4.07904e-66
2.7857e-69
1.89985e-72
1.29277e-75
8.77732e-79
5.95108e-82
4.02746e-85
2.71684e-88
1.83052e-91
1.23088e-94
8.25797e-98
5.53295e-101
3.70026e-104
2.47034e-107
1.64703e-110
1.09592e-113
7.27253e-117
4.8204e-120
3.18957e-123
2.1048e-126
1.38779e-129
9.13778e-133
6.00204e-136
3.93576e-139
2.57449e-142
3.71947e-145
1.04653
1.02006
1.06858
1.02028
0.835538
1.0008
3.25478e-11
5.22427e-17
9.26364e-17
3.91799e-18
7.26392e-21
1.74938e-24
3.42832e-28
1.82142e-31
1.31198e-34
9.23161e-38
6.37115e-41
4.39129e-44
3.02412e-47
2.07841e-50
1.4263e-53
9.7665e-57
6.67549e-60
4.55889e-63
3.10725e-66
2.11369e-69
1.43653e-72
9.74605e-76
6.59752e-79
4.4626e-82
3.01255e-85
2.02831e-88
1.36369e-91
9.15448e-95
6.13456e-98
4.10687e-101
2.74438e-104
1.83016e-107
1.21891e-110
8.10461e-114
5.37981e-117
3.56708e-120
2.36096e-123
1.55899e-126
1.02812e-129
6.76932e-133
4.4493e-136
2.92131e-139
1.91309e-142
3.46124e-145
0.98688
1.0206
1.06091
0.942243
1.01612
0.988113
1.15779e-12
1.08107e-17
3.91973e-17
1.10217e-18
5.64348e-22
1.16242e-26
2.65792e-30
1.06404e-33
4.2591e-37
1.77441e-40
6.79626e-44
2.72689e-47
1.13109e-50
5.70073e-54
1.9339e-57
8.00986e-61
3.32306e-64
1.16793e-67
4.71955e-71
2.8753e-74
2.0683e-77
6.35754e-81
1.02736e-83
3.31056e-87
5.75594e-90
3.28568e-94
4.23672e-97
1.58381e-99
3.59454e-103
8.79254e-107
3.79554e-109
1.24399e-112
1.20844e-116
1.53611e-118
2.10849e-122
1.03535e-126
8.07314e-129
7.84471e-133
1.68864e-135
1.65772e-137
2.96953e-141
1.4911e-144
1.05071e-145
4.32455e-147
1.0503
1
0.883755
1.015
1.24468
1.01058
2.20257e-09
-1.73339e-17
-2.23311e-21
3.85888e-20
1.0879e-21
5.48601e-25
1.78231e-29
4.65536e-33
1.86122e-36
7.54306e-40
3.33856e-43
3.90987e-46
1.48901e-49
3.06771e-53
1.14739e-56
4.50497e-60
1.96006e-63
8.14122e-67
3.26418e-70
1.46004e-73
7.76457e-77
2.37556e-80
1.1477e-82
2.08956e-86
9.58417e-90
1.29426e-92
1.3023e-95
2.32859e-99
1.65082e-102
1.03819e-105
1.87423e-109
5.31436e-113
2.61273e-114
1.98793e-117
1.07237e-121
1.99995e-125
6.76148e-129
1.84051e-130
8.75174e-134
6.37519e-138
9.38501e-141
9.82935e-145
2.06186e-145
9.77183e-147
0.985059
0.924532
0.952141
1.05473
0.677983
1.02166
2.53225e-06
-2.75166e-16
-4.94458e-20
3.52857e-19
8.20454e-21
1.23217e-23
2.54727e-27
2.69453e-31
8.63612e-35
3.5286e-38
1.46516e-41
6.09799e-45
2.53926e-48
1.03869e-51
4.36496e-55
1.77133e-58
7.54302e-62
3.14969e-65
1.64552e-68
5.73278e-72
3.70839e-75
9.83105e-79
4.45558e-82
6.14255e-85
1.24335e-88
4.27492e-92
1.38929e-94
8.37258e-98
1.3411e-101
1.57251e-104
1.12439e-107
4.04521e-111
2.56177e-114
6.93049e-117
7.39174e-120
6.75076e-124
2.21883e-127
6.2041e-130
1.60323e-132
1.69033e-136
4.93859e-139
2.50048e-142
3.08213e-145
4.11528e-146
1.0586
1.0061
1.13714
0.893031
0.927218
1.01211
0.358555
-6.46233e-16
-1.28398e-18
-1.68981e-36
1.87058e-20
2.5127e-22
4.29153e-26
2.69357e-30
9.25507e-34
3.71154e-37
1.49391e-40
6.04325e-44
2.41529e-47
9.71328e-51
3.93702e-54
1.53862e-57
6.82201e-61
3.4414e-64
1.19314e-67
7.03277e-71
1.66556e-74
7.56422e-77
5.07233e-80
2.86419e-84
6.57941e-87
4.01624e-90
1.39729e-93
1.90104e-97
3.0474e-100
5.03425e-104
7.80989e-107
9.69377e-110
4.30554e-114
1.67902e-115
3.22074e-119
7.83328e-122
6.8509e-125
7.42075e-129
4.30552e-132
9.24276e-135
5.40803e-138
2.20085e-142
2.81433e-145
6.60712e-146
0.994108
0.948562
0.996629
1.01468
1.01731
1.02048
0.871899
1.30996e-12
1.51195e-15
5.54566e-18
6.48978e-20
1.64904e-21
1.29939e-24
3.98999e-29
9.06253e-33
3.61976e-36
1.46308e-39
5.91781e-43
2.41629e-46
9.67648e-50
3.863e-53
1.57303e-56
6.3307e-60
2.62789e-63
1.21466e-66
5.62306e-70
1.71854e-73
6.54389e-77
2.70146e-80
2.55048e-83
2.12561e-86
2.54961e-90
1.24281e-92
2.31997e-96
6.60097e-99
8.65249e-103
2.03122e-105
8.60833e-109
4.63073e-111
1.01407e-114
8.15978e-119
1.48727e-120
4.98441e-124
2.02508e-127
4.78135e-131
7.87869e-135
1.64236e-136
7.64598e-140
4.96176e-143
3.01514e-145
0.999591
1.0535
0.897948
1.02745
0.984654
1.00667
0.947218
7.73834e-13
1.46488e-15
6.67849e-18
6.8435e-20
1.56905e-21
1.22764e-24
4.02048e-29
9.18041e-33
3.67159e-36
1.48716e-39
6.02428e-43
2.42984e-46
1.04128e-49
3.99608e-53
1.7161e-56
6.63266e-60
2.60308e-63
1.04275e-66
5.2967e-70
1.83689e-73
6.58593e-77
2.60312e-80
1.43913e-82
2.13992e-85
9.73395e-89
1.80554e-92
6.62081e-96
8.23448e-100
2.09456e-102
8.95241e-106
1.43202e-108
1.13328e-112
1.73191e-114
7.65778e-118
3.29294e-122
6.09723e-124
2.96229e-127
5.19045e-131
4.5885e-135
7.87136e-138
3.33805e-140
5.19704e-144
2.43842e-145
1.02467
1
0.992568
1.02505
1.01819
1
0.800545
-1.26427e-16
-1.39312e-18
7.33349e-23
2.04883e-20
2.88942e-22
4.95263e-26
3.02435e-30
1.0348e-33
4.1447e-37
1.66532e-40
6.80296e-44
2.77741e-47
1.08658e-50
5.6965e-54
1.81697e-57
7.47827e-61
3.15487e-64
1.64293e-67
4.98028e-71
2.08314e-74
6.40006e-77
4.01962e-80
2.20557e-84
6.50159e-88
2.59243e-91
1.102e-94
1.60618e-97
9.9022e-100
2.07669e-103
2.51675e-107
3.3933e-109
7.59886e-113
6.72553e-117
1.24492e-119
8.40977e-124
2.11929e-125
5.13475e-129
3.13457e-132
1.64554e-136
1.92807e-138
1.40342e-141
4.43286e-145
8.77685e-146
1.04013
0.97703
1.02888
1.09494
0.996634
0.99818
0.228159
-4.97174e-18
-2.30178e-20
3.84329e-19
6.4267e-21
1.66585e-24
1.20047e-28
3.03571e-32
1.17179e-35
4.77116e-39
1.95656e-42
8.01264e-46
3.53404e-49
1.41186e-52
5.58946e-56
2.63561e-59
1.27775e-62
3.82469e-66
1.00938e-68
1.81717e-72
1.11185e-75
2.41911e-79
9.61949e-83
1.45813e-84
4.13215e-88
3.06044e-92
7.05278e-95
4.5675e-98
5.25769e-102
6.14779e-105
9.5223e-108
2.16031e-111
4.2518e-114
2.89906e-116
7.65156e-120
9.7549e-123
2.54522e-126
2.18897e-130
8.06715e-134
3.30887e-137
3.58225e-140
1.60922e-143
2.74974e-145
3.30809e-146
1.01253
1.0192
1.02188
0.972728
1.08185
0.996553
2.56413e-07
-2.14679e-18
-9.27181e-24
3.76095e-20
1.07438e-21
5.36216e-25
1.64399e-29
4.37278e-33
1.75665e-36
7.12949e-40
2.94001e-43
1.18263e-46
4.852e-50
1.96296e-53
7.76389e-57
3.2661e-60
1.26418e-63
5.34444e-67
2.02554e-70
8.11982e-74
4.44242e-77
1.39586e-80
5.4333e-84
2.32896e-87
4.29001e-89
1.8808e-92
1.45975e-95
7.07148e-99
3.56325e-102
2.18513e-105
7.27903e-109
4.60009e-112
3.1711e-116
2.44808e-118
4.24447e-122
3.97656e-126
5.18159e-128
7.16975e-131
4.69509e-134
2.54582e-138
6.07706e-141
3.78227e-144
2.06372e-145
1.04539e-146
0.976826
1.02096
1.05062
0.846707
0.853833
1.00042
1.30632e-11
-9.58472e-22
6.7184e-17
1.21502e-18
2.93191e-22
9.12802e-27
2.24698e-30
8.69133e-34
3.5177e-37
1.47634e-40
5.82164e-44
2.51341e-47
9.72399e-51
3.93515e-54
1.64605e-57
7.22452e-61
2.61472e-64
1.1555e-67
9.66626e-71
4.19225e-74
1.80805e-77
4.64688e-81
5.00185e-83
1.69727e-86
1.17815e-90
1.82918e-92
6.96438e-96
6.31086e-100
2.17541e-103
1.60807e-105
5.76352e-109
7.39293e-113
1.20984e-114
4.0219e-118
1.88406e-121
4.56865e-124
1.068e-127
2.47533e-131
6.80371e-135
3.37461e-137
1.86714e-140
1.20465e-143
2.5307e-145
1.35495e-146
-1.20223e-20
1.00358
-6.03447e-18
0.984578
9.19603e-10
1
8.71181e-09
-9.16835e-20
1.16182
0.139014
1.00539
2.37046e-07
1.10459
0.14623
0.287503
1.02533
0.891719
1.01463
0.301658
1.0223
0.891931
1
1.00819
1.00016
1.01365
0.997157
1.00133
1.00016
1.00037
0.996543
1.00007
1.03088
1.00051
1.02478
1.00047
1.00065
1.02289
1.00014
1.02099
1.00096
1.01236
1.00048
1.00004
1.0258
1
0.989384
1.00056
1.00282
0.996823
0.93681
1
0.350455
0.999856
0.935202
0.999428
0.352351
0.158922
1.00372
-9.6013e-19
0.992243
0.162474
1.00972
1.26877e-06
-3.24661e-20
0.861489
-4.81099e-22
1.00071
1.98901e-08
0.855152
1.7111e-09
1.71129e-09
1
1.17238e-08
0.98773
2.16433e-09
1
1.2528e-08
1.55136e-07
1.09993
0.145837
1.00075
1.1274e-06
1.04746
0.14157
0.303896
1.01564
0.892087
1.02805
0.304562
1.01151
0.892835
0.996334
0.998061
1.00057
1.01034
0.996315
1.00329
1.00043
1.00077
1.03564
1.00139
1.02901
1.00028
1.02976
1.0006
1.00176
1.01208
1.00136
1.00437
1.0009
1.00232
1.00021
1.00148
1.00417
0.996241
0.996466
1.00071
1.00508
0.996029
0.934614
0.995254
0.352538
0.999231
0.931928
0.99963
0.352198
0.160254
1.04779
1.9382e-06
0.995376
0.160663
1.02696
1.58519e-06
3.14844e-08
0.849159
3.71593e-09
1.00003
3.00538e-08
0.841831
3.89497e-09
1.2589e-09
1
8.07017e-09
0.984491
-1.10716e-16
0.999759
-3.91466e-18
2.4752e-06
1.03352
0.13937
0.969646
-1.65166e-19
1.04371
0.129009
0.303655
1.00965
0.892277
1.06905
0.295748
0.989918
0.891462
0.997226
0.996318
1.00049
1.00885
1
0.997975
1.00027
1.00068
1.03521
1.00126
1.02244
1.00037
1.03059
1.00029
1.00153
1.0013
1.00126
1.0018
1.00016
1
1.00003
1.00199
1.00242
0.997228
1.00129
1.00054
0.997122
1
0.930141
0.996307
0.352088
1
0.932928
1
0.349819
0.161703
1.03302
7.64645e-07
0.925456
0.147817
1.00992
6.9389e-21
1.62492e-08
0.851207
1.58771e-09
1.00013
3.63515e-22
0.843528
-2.12084e-17
1
1.01473
1.07664
1.04584
0.999985
0.958885
1.01424
0.438981
0.32282
1.00041
0.985601
1.00052
0.439025
0.324601
-1.45776e-19
-2.38696e-19
-1.48519e-18
8.47486e-13
2.94714e-15
6.69994e-12
8.1256e-16
1.3682
0.942531
1.36425
1.07293
1
1.00348
1.28857
0.996242
0.967301
1.00776
1.05427
0.969705
0.973811
0.999566
-3.20552e-17
-1.2232e-17
-2.0989e-16
2.08702e-10
7.00387e-14
4.32382e-07
6.77394e-14
1.16354
0.999862
1.00891
1.04527
1.00974
0.914512
1.00998
1.01397
1.00122
1.04761
1.01512
1.0017
1.04883
1.01533
-1.41541e-15
0.172509
-3.88659e-15
2.55922e-06
7.89435e-11
0.180019
6.28196e-11
0.971232
1.01592
1.03336
1.08025
1.00114
1.00557
1.04007
0.97525
0.998402
0.993864
1.01172
0.999314
0.997774
0.978731
-1.45057e-15
0.79274
-8.75649e-14
0.358602
1.00806e-08
0.791957
1.00806e-08
1.06822
1.00456
0.925811
1.05876
1.05585
1.00159
0.97296
0.997244
1.01567
0.997878
1.02757
1.01701
0.988414
1.00402
-1.93946e-15
0.953243
-7.6847e-15
0.869569
7.88028e-10
0.944751
8.39784e-10
1.06709
0.991369
1.02545
0.985157
1.02102
0.990898
1.00261
1
1.00734
1.03635
1.02425
1.00542
1.03493
1.00161
-4.09718e-15
0.87363
-1.50821e-15
0.948917
6.08335e-10
0.869888
4.42246e-10
1.05258
1.0846
1.05501
1.04922
1.04069
1.0539
1.04805
1.00046
0.995233
1.01223
0.986849
0.995054
1.01084
0.999658
-3.83464e-14
0.360678
-3.6211e-15
0.800806
6.12487e-09
0.367502
6.12487e-09
0.936647
1.00787
0.959074
0.990588
0.942414
1.00554
0.989041
0.996473
0.999886
0.966417
1
0.999936
0.968326
0.993746
-9.45397e-16
-2.92148e-14
-2.49853e-16
0.223306
2.83923e-11
1.13688e-06
3.44329e-11
1.02054
1.03384
1.05602
1.08066
1.05285
0.999912
1.206
1.00408
0.998917
1.01187
0.983669
1
1.02327
1.00397
-8.71329e-18
-3.20079e-18
-3.20396e-17
2.20239e-07
1.36923e-13
1.08795e-09
1.36994e-13
1.00168
1.02363
1
0.837827
1.01023
1
0.99859
0.577304
0.747696
1.00506
1.00094
0.744994
1.00794
0.583537
-6.38466e-18
-3.37539e-19
-4.11859e-19
1.60042e-11
1.77596e-15
9.89308e-13
6.83841e-15
0.99992
0.898404
1.01942
1.02356
0.999727
1.00079
0.997077
0.439159
0.331907
1.00045
0.983592
0.439806
1.0006
0.32831
2.02336e-14
1.15589e-11
4.20729e-15
2.58556e-12
1.91066e-14
1.26445e-11
4.2073e-15
1
1.008
1.26611
1.17322
0.557984
0.993929
1.19456
0.968802
0.959164
0.845113
1.00048
0.96438
0.943388
0.904878
7.63632e-13
5.63393e-07
4.26599e-13
1.28692e-09
4.26603e-13
5.76319e-07
4.25919e-13
1.04826
0.877325
1.00224
0.686753
1.0634
0.965798
0.997879
1.01218
1.0042
1.07477
1.02634
1.01315
1.00415
1.04565
3.75717e-10
0.180373
2.4536e-10
3.09829e-06
3.75781e-10
0.179746
2.4536e-10
1.00377
0.988881
1.03668
1.006
1.0512
0.980387
1.04829
0.976381
1.00052
0.998424
1.00634
0.976592
1.00047
0.992091
2.79828e-08
0.788223
2.79827e-08
0.360176
2.79828e-08
0.791089
2.79827e-08
1.02985
0.979875
1.01503
1.02274
1.01933
0.980941
0.992644
0.990485
1.01388
0.990818
1.05072
0.993397
1.01251
0.991851
1.62324e-09
0.942083
1.79377e-09
0.87237
1.63713e-09
0.942879
1.71477e-09
1.00493
0.99935
1.01236
0.935071
1.02449
0.999999
0.999026
1
1.00513
1.03431
1.02612
1
1.00539
1.0332
1.28322e-09
0.868243
8.85848e-10
0.947437
1.27945e-09
0.87025
9.41157e-10
1.00896
1.05517
1.05425
1.05192
1.00642
1.04902
1.06296
1.00189
0.995444
1.011
0.991721
1.00262
0.997052
1.00669
1.66567e-08
0.36892
1.66567e-08
0.798833
1.66567e-08
0.369351
1.66567e-08
0.959017
0.996212
0.999966
0.994879
1.00978
1.04792
1.01201
0.984375
0.988623
0.974045
0.992608
0.990425
0.988958
0.991692
1.13868e-10
1.41244e-06
1.81793e-10
0.226339
1.13868e-10
1.39672e-06
1.87105e-10
1.00587
0.923929
1.1577
1.0749
1.02376
0.985834
1.12092
1
0.999059
1.02483
0.979923
1.00248
0.998155
0.984562
6.69338e-13
2.0939e-09
6.69383e-13
3.53105e-07
6.69336e-13
1.70975e-09
6.69383e-13
1.00695
0.953662
0.999326
0.842656
0.999811
0.984577
0.999821
0.581077
0.750533
1.00593
1.00013
0.582595
0.749601
1.00616
9.91979e-15
4.13324e-12
3.97938e-14
3.10569e-11
9.91979e-15
4.52186e-12
3.97921e-14
0.999897
1.03659
0.991532
0.995897
1
1.08618
0.969423
0.43864
0.321085
1.00024
0.987606
0.439751
1.00041
0.319587
2.78126e-15
6.62785e-12
8.56109e-16
-3.30255e-19
-8.38312e-20
-5.90592e-19
-3.44696e-19
0.556041
0.959708
1.18116
1.02996
0.773663
0.972794
1.13302
0.998114
0.940227
1.04232
1.01194
0.999333
0.94354
1.06339
3.00873e-13
4.99317e-07
2.98882e-13
-4.44008e-17
-6.60946e-17
-4.58026e-16
-3.86509e-16
1.05389
1.00317
0.935089
0.943541
1.19554
1.07431
0.877324
1.00919
1.003
1.01841
1.04306
1.00932
1.00198
1.02069
8.04367e-11
0.179524
6.36519e-11
-3.879e-14
-1.09399e-15
0.172729
-4.23629e-15
1.07274
1.00417
1.06358
1.01569
1.08652
1.01547
1.01165
0.974421
1.00041
0.959712
1.00797
0.971612
1.00045
0.913964
1.00786e-08
0.788513
1.00786e-08
0.350907
-1.37448e-15
0.791152
-8.22231e-14
1.04649
1.04272
0.979739
1.02654
1.04179
1.0045
1.00611
1.00282
1.01132
0.995878
1.02013
0.999445
1.01084
1.00446
8.26208e-10
0.942427
8.69198e-10
0.871881
-1.97186e-15
0.952263
-7.40913e-15
1.01595
1.00007
0.999826
0.951125
0.989502
1.00429
0.998298
0.999421
1.00523
1.01378
1.00421
0.998716
1.00547
0.991651
6.65517e-10
0.867961
4.6226e-10
0.958147
-2.9698e-15
0.872197
-1.69854e-15
1.01324
1.05219
1.0359
0.956831
0.926779
1.05247
1.02364
1.00512
0.999954
1.01298
1.0015
1.00871
1.00047
1.01054
6.19818e-09
0.367542
6.19818e-09
0.799394
-4.19665e-14
0.361039
-3.98988e-15
1.01596
1.05317
1.00222
1.02188
0.999287
1.09041
1.03291
0.989533
0.987722
0.987237
0.999198
0.999502
0.987604
0.953874
2.70431e-11
1.13176e-06
3.174e-11
0.220195
-1.00817e-15
-1.20077e-14
-2.45793e-16
1.02742
0.996237
1.12332
1.07797
0.960982
1.00291
1.0631
0.981207
1
0.888086
0.985743
0.986108
1
0.884462
8.90833e-14
6.52705e-10
8.91667e-14
-3.78463e-17
-1.14193e-17
-9.26184e-18
-2.29215e-17
1.00162
1
0.999571
1.02164
1.00085
0.994513
0.999631
0.591503
0.752549
1.00296
1.00059
0.589026
0.749992
1.00128
1.48775e-15
1.53241e-12
6.15378e-15
-3.62295e-24
-5.94125e-18
-7.76252e-18
-6.45003e-19
0.000439662
-3.77486e-16
-2.71043e-23
1.05928e-10
1.05928e-10
0.000228416
3.38203e-07
0.62736
1
0.789558
1.00252
1
0.789335
0.630104
0.0184186
2.1684e-22
0.0652628
2.3175e-09
2.3175e-09
0.0664652
0.0165362
0.439116
0.986259
0.32724
1.00094
1.00047
0.439194
0.323729
0.000607259
9.19608e-10
8.70135e-07
9.19608e-10
9.19608e-10
0.000764403
7.1709e-07
0.626211
1.00309
0.999996
0.785304
1
0.78948
0.62343
0.0201461
8.71181e-09
8.71181e-09
0.0734716
8.71181e-09
0.0683789
0.0211951
0.460612
0.21686
0.00197
4.25887e-07
0.205011
0.00336401
0.465814
1
1.02316
1.01723
1.12572
0.998186
1.01275
1.00187
0.557951
0.0156847
0.784247
0.143295
0.0186038
0.784414
0.558724
0.982781
1.07344
0.954587
0.83294
0.944534
0.885972
0.967308
0.479651
2.37046e-07
0.212783
0.00184086
0.230665
0.00257087
0.515533
0.999863
1.11502
0.972733
1.00677
0.968513
1.00382
0.997306
0.553853
0.142713
0.0190447
0.790187
0.0185235
0.79352
0.553874
0.999796
0.96409
0.558863
0.293552
0.963596
0.558277
0.999841
1.00392
1.02318
1.00806
1.03171
1.02418
1.00745
1.00428
1.00024
0.745652
1.00005
0.891714
0.75073
1.00002
1.00033
1.01298
0.98162
1.00338
1.15135
0.997812
1.16178
1.01307
0.999876
0.297272
0.961056
0.557552
0.961671
0.557662
0.999838
1.00392
1.04168
1.02413
1.00634
1.03789
1.00732
1.00285
1.00017
0.891032
0.747186
1.00003
0.750495
1.00006
1.00007
0.991858
0.999801
1
0.999632
0.99985
1
0.992851
0.991316
0.999893
1.01001
1.00651
0.984614
1.00855
0.990582
0.999067
1.00003
1.00316
1.00057
1.00012
1.00382
0.999619
0.975926
1.0184
1.00061
1.0084
1.00093
1.0138
0.976316
0.994267
0.998504
0.999929
1
0.999954
1
0.992402
0.991249
1.00549
0.964318
1.00737
0.974437
1.0081
0.989954
0.999916
1.00124
1.0002
1.00309
1.00056
1.0038
0.999844
1.00092
1.00432
1.0001
1.00038
1.00387
1.00014
1.00149
0.988624
0.979548
1.00002
1.00052
0.979053
1.0003
0.991568
0.989975
1
0.999969
1.00023
1
1.00045
0.993402
0.990411
1.02816
1.01533
0.992712
1.01594
0.996014
0.993126
0.999876
1.00098
1.00458
1.00001
1.00483
1.00046
0.999995
0.997422
1.01065
1.06068
1.00306
1.04345
1.00025
1.01539
0.990133
1.00112
1
0.999776
1
0.999768
0.995007
1.00009
1.00387
1.0002
1.00071
1.00354
1.00022
1.00067
0.998271
1.01037
1.00994
1.02496
1.00956
1.00882
0.999967
0.996793
1
1.0018
1.00022
1
1.00171
0.997482
1.00003
1.01952
1.00538
1.03467
1.00539
1.03367
1
1.00017
1.00151
1.0028
1.00037
1.00353
1.00143
0.999943
0.999939
1.01811
1
1.00829
1.00295
1.00898
0.99387
0.996901
1.00148
1
1.00142
1
1.00203
0.996901
1.00033
1.00008
1.00008
1.00007
1
1.00006
1.00057
1.01345
1.04015
1.0063
1.02025
1.05559
1.00381
1.0149
1.00414
1.00026
1.00122
1
1.00033
1.00153
1.00374
1.00144
0.988025
0.993333
1.00761
0.996154
1.01009
1.00118
1.00078
1.00122
1.00044
1.00039
1.00076
1.00094
1.00047
1.01142
1.01324
1.05681
1.00244
1.06105
1.00336
1.00941
1.00435
0.99885
1.00027
1.00173
1.00056
1.0022
1.00382
1
1
0.725143
0.936383
1
0.725351
1
0.998934
0.938692
1.00107
0.999276
0.938932
1.00039
1.00002
1
0.634267
1.00001
0.351222
0.635696
1.00002
1.00011
0.991558
0.999986
0.995336
0.941417
0.999346
0.941417
0.991129
1.00003
0.935517
1
0.722827
1.00007
0.722481
1
1
0.99765
0.95553
1.00146
0.955791
1.0007
1
1.00004
0.351319
0.63713
1.00001
0.634668
1.00017
1
0.653752
0.873318
0.0195686
0.166567
0.866612
0.0214401
0.657358
1
1.00632
0.913591
1.00506
1.03147
0.906026
1.00004
0.473144
0.000800116
0.180572
2.32982e-07
0.00156348
0.185361
0.477203
1.00378
0.994377
0.998921
1.00788
1
1.03543
1.0027
0.649407
0.166621
0.873291
0.0237222
0.866861
0.022475
0.645683
1.00059
1.03554
1.06694
0.903878
1.06889
0.904983
0.999743
0.471347
1.26877e-06
0.00268803
0.189355
0.00218067
0.190448
0.469395
0.0128445
0.0576549
-1.02944e-21
4.1565e-09
0.0616058
4.1565e-09
0.0081063
0.390545
1
0.216994
0.859044
1.00011
0.389581
0.222744
1.1855e-05
-1.30413e-23
-2.02532e-17
1.14283e-10
1.14283e-10
1.44185e-06
1.53564e-07
0.578472
1.00213
0.748039
1.00588
0.747034
1.00754
0.582228
0.0141705