/*--------------------------------*- C++ -*----------------------------------*\
| =========                 |                                                 |
| \\      /  F ield         | OpenFOAM: The Open Source CFD Toolbox           |
|  \\    /   O peration     | Version:  5.0                                   |
|   \\  /    A nd           | Web:      www.OpenFOAM.org                      |
|    \\/     M anipulation  |                                                 |
\*---------------------------------------------------------------------------*/
FoamFile
{
    version     2.0;
    format      ascii;
    class       volScalarField;
    location    "1";
    object      p;
}
// * * * * * * * * * * * * * * * * * * * * * * * * * * * * * * * * * * * * * //

dimensions      [1 -1 -2 0 0 0 0];

internalField   nonuniform List<scalar> 
9914
(
101.31
102.479
106.028
115.769
104.261
100.241
97.5095
93.7972
91.1973
88.5973
86.034
83.4916
80.9715
78.4927
76.0333
73.6011
71.1859
68.8018
66.4453
64.1136
61.7879
59.4807
57.2026
54.9198
52.661
50.4214
48.1856
45.9459
43.7255
41.5328
39.3354
37.1619
35.0164
32.8645
30.7029
28.5743
26.4976
24.4575
22.4256
20.386
18.3747
16.4078
14.4424
12.4512
10.4875
8.57155
6.65852
4.73748
2.83791
0.94871
108.199
111.971
102.011
112.222
96.3982
114.737
97.4946
94.0148
91.3719
88.7135
86.1144
83.5418
81.0248
78.5248
76.0471
73.6169
71.1901
68.8178
66.4643
64.1178
61.7934
59.4849
57.1961
54.9232
52.6512
50.4034
48.1712
45.9477
43.7364
41.5363
39.3496
37.175
35.0135
32.8552
30.7045
28.5801
26.4937
24.4413
22.4058
20.3843
18.3807
16.413
14.4517
12.4706
10.4948
8.56187
6.64451
4.73404
2.83825
0.948248
109.649
99.911
119.423
123.075
104.519
104.305
99.3182
94.2966
91.5437
88.7868
86.1632
83.5572
81.0198
78.5295
76.0567
73.6098
71.2111
68.8545
66.4985
64.1222
61.7977
59.4896
57.1927
54.9163
52.6536
50.3993
48.1626
45.9534
43.744
41.5369
39.3541
37.1742
34.9936
32.8435
30.7151
28.5954
26.4936
24.4319
22.4029
20.3861
18.389
16.4078
14.4349
12.4712
10.507
8.55933
6.63932
4.73531
2.84074
0.9479
116.809
118.371
103.773
90.7059
110.073
100.677
100.184
94.1843
91.4154
88.7492
86.1326
83.5663
81.0135
78.5169
76.0552
73.6144
71.2091
68.8406
66.4708
64.1246
61.8089
59.4895
57.1947
54.9186
52.665
50.4099
48.1619
45.9601
43.7397
41.5277
39.3547
37.1695
34.9882
32.8386
30.7227
28.6122
26.4998
24.4279
22.4039
20.3938
18.3919
16.3968
14.4179
12.4591
10.5115
8.56102
6.63917
4.74229
2.84731
0.943762
95.4053
103.62
99.1816
100.086
102.279
100.043
99.8036
94.564
91.0418
88.5895
86.0306
83.4932
80.9849
78.4963
76.0513
73.6156
71.2184
68.8308
66.4488
64.1237
61.8104
59.4885
57.2002
54.9233
52.6741
50.4251
48.1721
45.955
43.7268
41.5201
39.3488
37.1613
34.9852
32.837
30.7215
28.6207
26.5098
24.4326
22.4068
20.3998
18.3909
16.3819
14.3968
12.4479
10.5084
8.56227
6.64689
4.75654
2.8553
0.941543
92.5807
83.627
109.942
101.626
104.231
99.6165
99.026
94.155
90.8249
88.4572
85.9433
83.4378
80.9505
78.4815
76.052
73.6209
71.2243
68.8318
66.4442
64.1146
61.805
59.484
57.1997
54.9324
52.6789
50.4385
48.1824
45.9493
43.7202
41.5132
39.3427
37.1554
34.9777
32.8388
30.7273
28.6225
26.5191
24.4422
22.4103
20.4014
18.3856
16.3701
14.384
12.4383
10.5033
8.56686
6.6633
4.78121
2.86523
0.944513
97.6248
93.0207
105.047
98.2346
95.2907
98.3068
98.5887
93.3237
90.8309
88.3623
85.8996
83.4088
80.9475
78.4814
76.0394
73.6138
71.2205
68.8403
66.4461
64.1056
61.7957
59.4837
57.1972
54.9404
52.6844
50.4364
48.1883
45.9467
43.7211
41.5222
39.3375
37.1423
34.9704
32.8446
30.7284
28.6164
26.5245
24.4563
22.4119
20.3934
18.3784
16.3614
14.38
12.4361
10.4994
8.56862
6.66959
4.78133
2.87123
0.95312
93.2927
143.186
107.519
99.6404
99.6057
98.1831
97.4694
93.2185
90.824
88.3481
85.8779
83.3937
80.9368
78.4729
76.0126
73.6132
71.2111
68.8278
66.4641
64.0973
61.7845
59.4786
57.1953
54.9408
52.6814
50.4406
48.1897
45.9423
43.7323
41.5283
39.3325
37.139
34.9742
32.8512
30.7266
28.6047
26.5245
24.4663
22.4176
20.3875
18.3742
16.3745
14.3935
12.4407
10.4979
8.57073
6.66806
4.77007
2.86887
0.958089
91.3788
96.0579
96.0523
122.778
94.9261
101.946
96.9087
93.2579
90.8579
88.3891
85.9063
83.418
80.9415
78.4727
76.0249
73.6121
71.1859
68.8062
66.4473
64.103
61.776
59.471
57.2006
54.9377
52.6902
50.4417
48.1874
45.9423
43.7255
41.5267
39.3211
37.1402
34.9937
32.8568
30.72
28.5965
26.5201
24.4715
22.4223
20.3864
18.3725
16.3818
14.4087
12.4407
10.4941
8.5719
6.66065
4.75903
2.85838
0.958995
99.2669
99.3915
101.063
95.987
102.733
100.205
96.8701
93.5404
91.0235
88.4799
85.9633
83.4425
80.9369
78.4812
76.0278
73.5974
71.1853
68.8079
66.4452
64.1071
61.777
59.4722
57.2028
54.9258
52.6749
50.4355
48.1866
45.9438
43.7235
41.5285
39.3244
37.1464
35.009
32.8633
30.7087
28.5811
26.5076
24.4666
22.4252
20.3853
18.3733
16.3979
14.4245
12.4429
10.487
8.57481
6.66352
4.7474
2.84308
0.948773
100.791
102.278
105.363
101.477
104.487
100.291
97.5111
93.7978
91.1972
88.5973
86.0341
83.4917
80.9713
78.4927
76.0332
73.6009
71.1859
68.8019
66.4453
64.1135
61.7878
59.4807
57.2025
54.9196
52.661
50.4215
48.1856
45.9459
43.7254
41.5328
39.3354
37.1618
35.0164
32.8644
30.7029
28.5742
26.4976
24.4575
22.4256
20.3859
18.3746
16.4079
14.4426
12.4513
10.4875
8.57156
6.65844
4.73724
2.83787
0.948777
104.569
110.448
101.98
102.114
93.3841
105.712
97.4757
94.0152
91.3718
88.7135
86.1144
83.5417
81.0248
78.5248
76.0471
73.6168
71.1901
68.8179
66.4642
64.1176
61.7935
59.4849
57.1959
54.9231
52.6512
50.4034
48.1711
45.9477
43.7363
41.5363
39.3501
37.1751
35.0135
32.8552
30.7045
28.58
26.4936
24.4413
22.4057
20.3842
18.3807
16.4131
14.4516
12.4703
10.4948
8.56188
6.64441
4.73416
2.83828
0.9482
110.597
100.284
102.85
111.189
104.501
103.541
99.2794
94.2976
91.5438
88.7868
86.1631
83.5572
81.0198
78.5295
76.0566
73.6097
71.2111
68.8543
66.4986
64.1221
61.7975
59.4895
57.1926
54.9162
52.6536
50.3992
48.1626
45.9534
43.744
41.5369
39.3537
37.174
34.9936
32.8435
30.7152
28.5954
26.4934
24.4319
22.4029
20.3861
18.3891
16.4078
14.4349
12.471
10.507
8.5593
6.63919
4.73537
2.84076
0.947899
181.745
100.908
106.19
98.5771
119.425
100.93
100.041
94.1852
91.4154
88.7489
86.1325
83.5663
81.0134
78.5169
76.0551
73.6144
71.2091
68.8405
66.4708
64.1245
61.809
59.4895
57.1948
54.9187
52.6648
50.4097
48.1621
45.9602
43.7397
41.5275
39.3545
37.1695
34.9882
32.8386
30.7227
28.6121
26.4996
24.428
22.4039
20.3938
18.3919
16.3967
14.4179
12.4593
10.5116
8.56104
6.63907
4.74225
2.8473
0.943608
94.6696
100.403
98.8541
100.42
98.8297
99.8876
99.843
94.563
91.0421
88.5895
86.0307
83.4931
80.9848
78.4962
76.0513
73.6157
71.2183
68.8308
66.4485
64.1238
61.8104
59.4885
57.2001
54.9234
52.6739
50.4251
48.1722
45.955
43.7266
41.5199
39.3488
37.1613
34.9852
32.837
30.7215
28.6207
26.5098
24.4325
22.4069
20.4002
18.3908
16.3815
14.3968
12.4479
10.5084
8.56225
6.64682
4.75646
2.85524
0.941596
97.3059
121.341
104.142
97.7929
100.076
98.7873
99.0172
94.1535
90.8251
88.4572
85.9432
83.4378
80.9507
78.4814
76.052
73.6208
71.2243
68.8319
66.4441
64.1146
61.8053
59.4835
57.1996
54.9322
52.679
50.4386
48.1823
45.9493
43.7202
41.5134
39.3428
37.1549
34.9775
32.8389
30.7273
28.6224
26.5191
24.4422
22.4103
20.4014
18.3855
16.3696
14.384
12.4383
10.5032
8.56685
6.66328
4.78124
2.86492
0.944488
101.833
82.7166
103.807
97.9188
94.3673
97.9983
98.7321
93.3235
90.8309
88.3623
85.8996
83.4088
80.9474
78.4813
76.0393
73.6137
71.2205
68.8401
66.446
64.1056
61.7956
59.4837
57.1972
54.9404
52.6843
50.4363
48.1882
45.9467
43.7212
41.5222
39.3376
37.1422
34.9703
32.8446
30.7284
28.6163
26.5244
24.4562
22.4119
20.3935
18.3784
16.3613
14.38
12.4361
10.4993
8.5686
6.6699
4.78138
2.8712
0.953313
94.4477
93.4068
138.335
94.4866
98.142
97.9177
97.3354
93.2191
90.824
88.3481
85.8779
83.3937
80.9368
78.4729
76.0125
73.6131
71.2113
68.8276
66.4643
64.0973
61.7845
59.4787
57.1954
54.9408
52.6812
50.4408
48.19
45.9422
43.7322
41.5283
39.3324
37.1389
34.9743
32.8512
30.7266
28.6047
26.5245
24.4662
22.4176
20.3875
18.3741
16.3746
14.3934
12.4407
10.4978
8.57071
6.66805
4.77005
2.86885
0.958283
91.3126
94.8707
99.7268
100.735
93.6089
105.861
96.9083
93.2584
90.858
88.389
85.9063
83.418
80.9415
78.4727
76.0249
73.6123
71.186
68.8061
66.4474
64.1032
61.776
59.4711
57.2007
54.9376
52.6902
50.4417
48.1872
45.9424
43.7256
41.5269
39.3212
37.1401
34.9941
32.8568
30.7199
28.5965
26.52
24.4714
22.4222
20.3864
18.3726
16.3818
14.4087
12.4406
10.494
8.57185
6.66059
4.75901
2.85845
0.958995
95.4308
96.7215
109.793
92.6896
106.643
100.249
96.871
93.5409
91.0234
88.4799
85.9636
83.4421
80.9367
78.4813
76.0278
73.5976
71.1853
68.8078
66.4453
64.1071
61.777
59.4722
57.2028
54.9258
52.6749
50.4354
48.1865
45.9438
43.7235
41.5285
39.3243
37.1464
35.0092
32.8632
30.7082
28.5812
26.5076
24.4666
22.4252
20.3853
18.3733
16.3978
14.4245
12.4428
10.487
8.57483
6.66338
4.74738
2.84314
0.948762
100.941
103.117
105.559
101.479
104.146
100.255
97.5103
93.7975
91.1972
88.5972
86.0341
83.4916
80.9711
78.4929
76.0332
73.6006
71.1858
68.802
66.4454
64.1133
61.7878
59.4807
57.2024
54.9194
52.6609
50.4214
48.1854
45.9458
43.7251
41.5327
39.3354
37.1619
35.0164
32.8642
30.7028
28.5741
26.4975
24.4575
22.4256
20.3858
18.3744
16.4079
14.4426
12.4514
10.4875
8.57151
6.65829
4.73715
2.83776
0.948731
104.547
108.44
105.834
105.838
120.1
107.665
97.4963
94.0143
91.3718
88.7133
86.1143
83.5417
81.0247
78.5247
76.047
73.6167
71.19
68.8179
66.4641
64.1175
61.7935
59.4849
57.1957
54.9229
52.6514
50.4034
48.171
45.9477
43.7364
41.5363
39.3502
37.1751
35.0134
32.8552
30.7044
28.5799
26.4935
24.4418
22.4055
20.3841
18.3808
16.4131
14.4515
12.4699
10.4949
8.56194
6.64433
4.73409
2.83822
0.948003
97.6143
103.366
120.141
112.904
116.507
104.088
99.2717
94.2975
91.5444
88.7867
86.1628
83.5571
81.0197
78.5294
76.0566
73.6096
71.211
68.8541
66.4986
64.122
61.7973
59.4895
57.1924
54.9168
52.6536
50.399
48.1626
45.9534
43.744
41.537
39.3536
37.1737
34.9937
32.8436
30.7152
28.5954
26.4932
24.4319
22.4028
20.386
18.3894
16.4079
14.4345
12.4708
10.507
8.55922
6.63901
4.73536
2.84072
0.947598
97.4822
94.2868
117.943
116.119
126.651
101.337
100.037
94.1858
91.4153
88.7486
86.1325
83.5662
81.0134
78.5168
76.0551
73.6143
71.209
68.8402
66.4707
64.1243
61.8089
59.4894
57.1949
54.9187
52.6646
50.4095
48.1621
45.9601
43.7397
41.5274
39.3544
37.1695
34.9881
32.8385
30.7227
28.612
26.4995
24.4279
22.4039
20.3938
18.3919
16.3966
14.4176
12.4594
10.5117
8.56078
6.63897
4.74216
2.84716
0.94327
93.677
101.006
97.9491
101.036
100.025
101.5
99.8469
94.5634
91.0412
88.5898
86.0306
83.4925
80.9846
78.4962
76.0514
73.6157
71.2183
68.8307
66.4483
64.1238
61.8105
59.4884
57.2001
54.9234
52.6736
50.4251
48.1723
45.9549
43.7265
41.5198
39.3493
37.1613
34.9847
32.8369
30.7215
28.6206
26.5098
24.4325
22.4068
20.4003
18.3906
16.3811
14.3969
12.4478
10.5083
8.56218
6.64697
4.75634
2.85515
0.941485
94.4094
103.477
100.722
98.2399
106.589
99.5916
99.0072
94.1542
90.8244
88.4573
85.943
83.4377
80.9507
78.4814
76.052
73.6208
71.2242
68.8319
66.444
64.1145
61.8052
59.483
57.1995
54.932
52.679
50.4385
48.1823
45.9493
43.7202
41.5138
39.3428
37.1547
34.9773
32.8397
30.7272
28.6223
26.519
24.4422
22.4102
20.4015
18.3854
16.3692
14.384
12.4383
10.503
8.56677
6.66329
4.78122
2.86444
0.94445
114.52
97.6965
102.504
97.6108
94.4406
97.8465
98.6585
93.3224
90.8309
88.3622
85.8995
83.4087
80.9474
78.4812
76.0393
73.6137
71.2204
68.8399
66.4458
64.1056
61.7955
59.4836
57.1971
54.9403
52.6841
50.4363
48.1881
45.9467
43.7215
41.5222
39.3374
37.142
34.9702
32.8445
30.7284
28.6162
26.5244
24.4562
22.4118
20.3935
18.3783
16.3611
14.38
12.4361
10.4991
8.56853
6.66994
4.78124
2.87111
0.953266
93.2398
89.4551
108.312
95.3403
95.9251
98.1673
97.4431
93.2187
90.8242
88.348
85.8778
83.3936
80.9367
78.4728
76.0125
73.6131
71.2116
68.8274
66.4646
64.0973
61.7844
59.4786
57.1954
54.9407
52.6811
50.4408
48.1899
45.9419
43.7319
41.5284
39.3323
37.1388
34.9742
32.8511
30.7264
28.6046
26.5244
24.4661
22.4176
20.3875
18.374
16.3745
14.3933
12.4406
10.4977
8.57064
6.668
4.77
2.86883
0.958314
91.4117
94.9435
98.6623
88.2833
90.9103
106.08
96.9127
93.2581
90.8581
88.3889
85.9062
83.4179
80.9414
78.4726
76.0248
73.6125
71.1859
68.8058
66.4473
64.1032
61.7759
59.471
57.2007
54.9376
52.6901
50.4416
48.1872
45.9425
43.7258
41.5269
39.321
37.1399
34.9942
32.8567
30.7198
28.5966
26.5199
24.4712
22.4221
20.3863
18.3726
16.3818
14.4086
12.4404
10.4939
8.57177
6.66048
4.75894
2.85859
0.958904
104.741
96.0053
107.323
109.642
104.137
100.333
96.8703
93.5407
91.0234
88.4796
85.9636
83.442
80.9365
78.4812
76.0278
73.5978
71.1852
68.8077
66.4453
64.107
61.7766
59.4721
57.2027
54.9257
52.675
50.4354
48.1863
45.9438
43.7235
41.5282
39.324
37.1463
35.0096
32.8631
30.7081
28.5812
26.5076
24.4665
22.4251
20.3852
18.3732
16.3977
14.4244
12.4426
10.4869
8.57478
6.6632
4.74725
2.84317
0.948696
98.7135
101.313
98.3825
100.253
98.7157
101.289
98.3832
99.0671
110.156
99.483
105.313
99.0939
104.694
99.2434
102.112
105.096
100.537
103.11
101.845
100.874
100.595
100.709
98.7944
99.854
101.076
100.737
98.3494
99.8518
99.7361
99.8641
98.8554
99.8245
99.7385
98.9074
98.8526
98.9979
98.9265
98.5394
98.6825
98.9916
98.6485
98.5445
98.3597
100.452
98.6305
98.0737
98.3693
99.5625
98.6347
98.5015
98.9065
97.8631
98.1688
98.5397
98.9226
97.7758
96.8622
101.277
97.0365
102.304
96.6863
101.815
97.0325
97.3363
100.121
98.1198
100.24
97.3367
100.304
98.1174
98.7127
101.317
98.3771
100.25
98.7252
101.344
98.3838
99.0947
104.144
99.3004
105.889
99.0556
105.224
99.2205
101.806
100.809
100.598
103.183
101.784
100.79
100.609
100.74
98.264
99.8424
101.046
100.742
102.492
99.8425
99.745
99.0373
98.8593
101.228
99.7575
100.458
98.8556
98.9991
98.661
98.5535
99.6771
98.9893
98.7963
98.5575
98.3816
99.5009
98.6375
97.8216
98.3851
99.1175
98.6403
98.5434
99.1956
97.7577
98.3041
98.5755
98.7751
97.7643
96.6972
103.209
97.0338
105.513
96.6436
100.381
97.0069
97.3313
100.215
98.1112
100.329
97.3204
100.3
98.1157
98.729
101.355
98.3851
100.209
98.7138
101.301
98.3846
99.0693
109.142
99.2645
105.1
99.0597
105.18
99.5946
101.811
100.718
100.603
108.399
102.047
105.416
100.532
100.739
100.802
99.8352
101.95
100.711
102.297
99.8247
99.7572
99.3201
98.8682
100.977
99.7456
99.5301
98.8648
99.0081
98.8462
98.5652
99.7297
99.0008
98.8206
98.5489
98.4083
98.3247
98.6369
97.9611
98.3962
98.8192
98.6299
98.5906
98.9489
97.7923
98.2463
98.5576
98.6757
97.8581
96.7061
100.805
97.0215
102.163
96.7424
100.24
97.0092
97.3231
99.768
98.1277
100.324
97.327
101.419
98.1278
100.692
97.7279
107.453
103.681
100.708
100.312
98.4513
100.162
100.698
101.049
100.247
101.048
100.174
100.651
95.8479
97.4185
95.929
97.5105
95.8559
97.4191
95.937
125.612
127.838
116.276
93.6757
125.512
109.686
113.143
103.609
102.076
105.453
107.067
102.197
99.1154
103.925
96.1058
98.524
96.5798
97.4833
96.1144
98.5071
96.5899
112.816
95.3974
106.813
103.163
110.404
99.9146
106.72
99.8853
103.933
119.224
103.708
104.012
119.189
100.023
96.86
99.7223
97.1097
99.2888
96.8714
99.5476
97.121
96.0275
96.4604
100.918
114.368
100.18
95.5041
101.405
101.087
100.976
101.245
100.921
100.89
100.551
101.233
96.8156
100.046
96.2621
100.039
96.8247
100.054
96.2677
101.416
94.0746
101.428
103.835
100.264
93.8621
96.7077
100.721
100.112
101.809
99.8791
100.205
102.46
101.827
96.0407
99.0396
95.6181
99.8373
96.0499
99.0155
95.6267
107.15
100.078
100.029
100.643
102.811
100.227
98.2236
98.6023
99.5356
99.6065
99.5657
99.3397
99.4674
98.6528
95.5815
98.5744
95.2159
98.9878
95.5887
98.5925
95.2272
97.5357
101.77
98.6534
95.264
96.2947
98.9027
99.094
98.0974
98.1953
97.5866
98.2673
98.1905
97.4707
98.188
95.2086
97.9674
95.1663
98.6525
95.2127
97.8576
95.1725
99.0707
97.2896
97.258
97.2757
98.2807
97.6339
95.9211
99.2944
97.513
97.0162
98.1607
97.5169
97.281
98.8571
95.228
96.5844
95.0139
97.3422
95.2362
96.5776
95.022
105.708
111.711
106.642
96.9032
108.32
110.546
108.705
97.6419
97.3246
103.516
103.05
97.3164
102.545
97.6676
95.0722
96.9852
94.974
96.8991
95.0802
96.9865
94.9817
98.7577
98.3631
100.662
104.597
100.567
96.3613
100.607
99.2597
98.6708
100.441
100.216
98.6641
100.457
99.2542
95.2446
97.3612
95.6187
96.8709
95.2521
97.3619
95.6262
100.713
134.9
98.4581
104.203
100.71
116.634
100.082
100.14
100.618
101.064
100.235
100.139
101.07
100.533
95.8551
97.4194
95.9363
97.511
95.855
97.4191
95.9361
124.391
109.776
112.62
93.1641
132.728
110.261
112.542
102.854
102.775
111.116
105.641
103.082
102.281
110.306
96.1132
98.5076
96.59
97.4836
96.1126
98.5084
96.5903
97.8621
100.83
104.325
110.11
101.677
100.913
102.901
99.1945
104.172
94.1756
103.735
99.4121
104.184
94.2635
96.8709
99.5241
97.1208
99.2666
96.8708
99.5114
97.121
101.557
96.0985
101.032
123.462
103.987
97.5487
103.14
100.722
100.959
102.511
101.616
100.768
100.938
102.792
96.8223
100.13
96.2632
100.04
96.8222
100.083
96.264
100.089
97.4687
103.19
99.0106
101.719
97.3161
99.4949
100.382
99.9075
101.139
104.654
100.713
99.912
100.93
96.0488
99.0337
95.6246
99.8568
96.0511
99.0256
95.6246
103.747
98.7464
98.1495
109.208
104.119
97.326
97.8705
98.525
99.386
99.6003
101.686
98.5558
99.4065
99.6183
95.5871
98.6087
95.2256
99.0004
95.5884
98.6145
95.2264
96.1801
98.8924
98.4985
95.2913
96.2478
99.3732
99.1917
98.0624
98.3517
97.5296
97.9002
98.1019
98.3278
97.5219
95.2102
97.8718
95.1692
98.6135
95.2087
97.88
95.1692
98.1176
95.5131
95.6478
96.2978
99.2902
96.2591
96.6735
99.8913
99.3508
103.043
99.2882
98.5394
99.1597
109.114
95.2348
96.5745
95.0205
97.3776
95.2342
96.5737
95.0202
104.87
112.16
93.034
90.4753
99.6112
89.5555
99.8939
97.576
97.2032
99.6964
105.86
97.6443
97.2022
97.4685
95.0798
96.9867
94.98
96.9218
95.0796
96.9844
94.9799
100.46
97.8435
100.598
105.349
101.084
106.148
100.764
99.231
98.7256
100.421
100.277
99.2384
98.7409
100.433
95.251
97.3627
95.6252
96.8706
95.2508
97.3625
95.6252
100.727
113.153
100.566
105.914
100.742
101.238
99.431
100.147
100.556
101.049
100.244
100.127
101.07
100.672
95.8556
97.4185
95.9367
97.5093
95.8474
97.4181
95.9285
132.024
111.832
110.471
119.005
154.606
123.928
111.122
104.412
102.195
111.834
107.897
104.495
102.32
113.452
96.1131
98.5178
96.5905
97.4985
96.1037
98.5332
96.5811
104.267
100.652
101.813
149.055
116.581
108.207
106.268
98.634
104.192
96.4321
104.753
98.7019
104.296
96.328
96.8713
99.5365
97.1214
99.2953
96.8601
99.6972
97.11
103.983
94.5605
99.5761
100.824
106.997
95.6135
93.9949
100.89
100.823
103.677
101.507
101.325
100.806
103.829
96.8247
100.124
96.2673
100.179
96.8158
100.074
96.262
97.2375
106.017
101.51
99.4441
96.7962
102.5
99.4469
99.816
99.9954
100.663
101.612
99.8103
99.9468
100.618
96.0528
99.028
95.6281
99.8002
96.041
99.0156
95.6189
101.453
96.942
101.004
100.141
102.944
96.7087
100.869
98.304
99.4074
99.2924
99.5981
98.4973
99.4136
100.315
95.5923
98.622
95.2287
99.0123
95.5847
98.5798
95.2166
96.0104
99.1392
99.3166
99.7338
105.604
99.1621
100.298
97.905
98.2949
98.5272
98.0723
98.8961
98.3005
97.9035
95.2125
97.8668
95.1726
98.5445
95.2077
97.9646
95.1667
99.8347
96.3032
96.2062
97.7042
100.784
101.697
102.354
97.9181
100.866
106.984
98.1969
101.223
100.904
96.1481
95.2352
96.5761
95.0213
97.5416
95.227
96.5827
95.0129
100.55
89.5924
100.297
91.1021
105.784
91.5618
106.801
96.9719
97.076
96.4316
105.657
96.6997
97.0625
96.8787
95.0798
96.9827
94.9817
96.9222
95.0718
96.9831
94.9741
100.945
106.877
100.859
108.662
100.772
105.176
100.694
99.2631
98.8038
100.363
100.334
99.2175
98.7641
100.374
95.2517
97.3616
95.6263
96.8698
95.2439
97.3608
95.6188
99.4218
99.7158
98.5529
98.7215
98.562
99.4227
99.7194
99.1863
100.619
99.4595
101.313
100.616
99.468
99.1721
99.4691
98.4658
98.7391
98.3911
98.4718
98.6755
99.5169
100.149
100.259
100.569
101.055
101.046
100.14
100.623
99.4232
98.7163
99.7075
98.5611
98.5594
99.4263
99.7242
99.2106
101.336
100.609
99.438
100.609
99.4542
99.1901
99.4554
98.3874
98.471
98.5332
98.4688
98.5945
99.462
100.111
100.688
98.3636
99.0864
101.255
98.4411
99.7226
103.105
101.653
101.419
104.764
97.848
101.209
103.227
99.9797
99.2284
101.57
99.365
99.1719
101.794
99.9647
102.41
108.529
102.409
115.643
102.615
98.4084
102.671
98.813
99.065
101.436
98.1456
101.723
98.3249
100.332
103.03
105.036
98.2398
101.747
97.6962
101.818
102.726
100.085
99.2399
99.2449
102.009
99.2177
102.131
100.131
101.407
103.641
98.6324
101.933
103.717
98.649
101.41
101.152
101.894
100.946
104.105
101.683
100.89
101.216
102.488
101.258
101.228
100.576
101.276
101.229
102.45
99.787
114.436
104.032
119.437
104.723
122.262
99.5248
101.366
101.882
103.697
98.6469
103.764
98.661
101.301
101.119
107.731
101.456
100.74
106.211
100.869
100.984
102.493
100.597
101.269
101.23
101.276
101.222
102.515
100.618
100.919
100.631
100.732
100.917
100.657
100.584
100.077
102.091
99.5715
98.5729
99.5469
99.3695
100.083
99.99
100.261
99.7601
99.8729
100.269
99.7897
99.9634
100.883
102.535
100.983
103.041
101.045
104.581
100.766
100.775
100.735
100.918
100.669
100.915
100.671
100.609
100.067
98.5063
99.7905
99.3235
99.6402
99.3572
99.9872
99.946
99.8712
100.269
99.6908
100.268
99.7929
99.9331
99.6508
99.715
99.634
99.7412
99.7353
99.6353
99.7457
100.057
102.102
98.7386
99.1323
102.23
98.7065
99.5187
99.5794
99.2301
98.9804
98.8533
99.2235
99.0243
99.1205
101.39
99.9099
99.9483
100.9
100.003
101.483
100.726
99.7039
99.7423
99.7045
99.6279
99.7332
99.6329
99.6885
99.6915
98.867
103.286
98.8189
102.184
98.7201
100.928
99.5284
98.8651
99.2291
98.991
99.2277
98.9935
99.4105
98.8204
99.2795
98.6073
98.9958
99.2226
98.6083
98.8801
98.5357
99.8443
98.715
99.3108
99.7011
98.607
98.8024
98.5156
98.6171
98.6389
98.5417
98.6161
98.6407
98.6118
98.596
99.1504
99.3813
99.5739
99.3583
99.5493
98.5728
98.8143
99.0015
99.1976
98.6057
99.2277
98.6284
98.808
98.6616
98.6941
99.5856
98.5225
99.5799
98.5996
98.5668
98.5145
98.5566
98.6098
98.6253
98.6115
98.6813
98.5157
98.3697
98.2767
98.3519
98.3562
98.283
98.3581
98.3511
98.3165
103.563
99.144
99.4446
101.258
98.764
98.5348
98.625
98.4995
98.9333
98.6467
98.52
98.8942
98.626
98.1123
98.1487
99.0848
97.6751
98.3198
97.4943
98.1099
98.336
98.3575
98.2717
98.3495
98.3285
98.3554
98.3402
98.4343
99.3109
101.076
98.7806
102.452
98.7719
98.8536
98.6629
98.6383
98.5143
98.8801
98.5271
99.0124
98.6154
98.7219
98.7564
98.4684
98.5276
98.7556
98.4867
98.7172
99.1643
99.4721
98.2345
98.8573
99.3962
98.3064
99.2171
99.1737
98.4256
98.614
97.8368
98.4466
98.6409
99.1666
98.5809
98.1601
97.2461
104.747
97.403
104.872
98.5909
98.7124
98.5385
98.7577
98.5247
98.7559
98.5003
98.7079
99.2191
98.8464
99.7192
98.4823
99.6731
98.2143
99.1986
99.1765
97.8049
98.4768
98.6486
98.4632
98.6545
99.168
97.7031
98.9165
96.2086
96.8263
98.901
96.1372
97.7322
96.79
101.506
97.8369
101.053
97.5612
97.4242
96.8042
99.5609
96.5289
98.542
97.0338
96.5429
98.5379
99.6618
97.619
102.879
97.2341
99.2751
97.2957
106.834
97.6433
97.6676
96.7838
98.9489
96.1041
98.9426
96.111
97.6034
96.7944
104.052
107.949
97.3254
109.036
97.2181
96.862
99.5825
97.0247
96.5666
98.3943
96.5583
98.5743
99.7524
98.62
98.8515
97.6636
97.3423
98.7861
97.6692
98.7021
100.856
100.652
100.132
100.16
100.678
100.91
99.9087
99.5194
98.4551
99.2454
98.127
98.4637
99.5169
99.2244
99.2582
100.245
98.6661
100.42
98.6452
100.442
99.248
98.6158
97.3391
98.736
97.6666
98.7625
97.6659
98.6015
100.798
100.259
100.688
99.764
100.688
100.747
99.8149
99.5229
98.1211
98.4634
99.2058
98.4613
99.5257
99.2061
99.4205
99.6844
98.5592
98.7155
99.4242
98.5598
99.6923
99.1675
100.628
99.4494
101.339
99.1683
100.651
99.4613
99.4919
98.4706
98.529
98.3767
99.4793
98.4709
98.5731
100.136
100.229
100.519
101.053
101.064
100.129
100.5
99.4202
98.7202
99.7465
98.5592
98.5599
99.424
99.7194
99.1715
101.333
100.655
99.4883
100.661
99.4756
99.2247
99.4908
98.3803
98.4668
98.6128
98.4686
98.6075
99.4914
100.892
101.045
98.0804
99.0432
100.698
101.01
98.0922
102.288
120.734
102.115
102.947
102.277
121.416
101.618
100.998
99.1607
101.86
99.3029
100.041
99.055
101.966
102.946
106.036
102.282
110.627
102.347
110.265
103.025
101.022
99.0355
101.005
98.2907
101.019
98.0963
99.8695
102.157
103.019
108.759
101.871
106.272
101.778
102.219
100.471
99.2801
99.2675
102.204
99.1604
102.152
100.333
101.243
103.672
98.6229
101.789
101.261
103.702
98.6016
100.833
102.038
100.629
100.743
100.897
100.76
100.628
102.621
101.26
101.241
100.61
102.56
101.278
101.25
99.0161
103.458
104.25
95.264
104.202
94.6237
98.8108
101.232
101.779
103.723
98.5945
103.718
98.5969
101.222
100.81
100.831
104.14
100.547
101.553
100.588
100.807
102.64
100.614
101.251
101.259
101.281
101.255
102.617
100.585
100.936
100.674
100.741
100.581
100.935
100.681
100.525
100.596
99.3017
106.588
100.256
100.588
99.4165
99.9301
100.271
99.6997
99.8483
99.9375
100.278
99.6943
100.714
100.884
100.881
103.557
100.915
103.31
100.748
100.578
100.741
100.942
100.641
100.96
100.665
100.567
100.625
101.745
99.8857
99.4105
100.302
99.4399
100.314
99.94
99.8567
100.266
99.7072
100.277
99.6998
99.9306
99.6861
99.7151
99.6244
99.7491
99.6941
99.6921
99.6233
100.184
102.297
98.8444
101.059
100.352
102.637
98.8472
99.5923
99.2321
99.0083
98.8526
99.5726
99.2311
98.9451
100.581
104.484
99.9887
101.258
99.9634
100.88
99.8714
99.6681
99.7556
99.7593
99.6203
99.7019
99.6212
99.6751
99.8612
102.694
102.411
98.883
102.505
98.8243
99.9442
99.5666
98.8541
99.2193
98.9357
99.2261
98.9587
99.0191
98.8008
99.1942
98.6061
98.9934
98.7946
99.1924
98.6017
98.7215
99.6086
98.7337
98.6621
98.713
99.7854
98.5902
98.9157
98.6073
98.6274
98.5534
98.9631
98.6106
98.5984
98.49
99.7202
99.4138
99.3032
99.4135
100.311
98.6633
98.768
98.9987
99.1774
98.6024
99.1886
98.6025
98.76
98.6954
98.7132
99.9799
98.6494
100.049
98.6002
101.369
98.6649
98.5543
98.6244
98.561
98.615
98.5797
98.7533
98.3512
98.3083
98.3494
98.3707
98.3425
98.3157
98.3574
98.3783
101.461
98.7939
99.6727
98.391
100.986
98.84
98.6071
98.51
98.8938
98.6395
98.6131
98.5176
98.8632
98.0774
97.8466
98.2802
98.6381
98.344
97.8358
98.4424
98.3495
98.3653
98.3038
98.3514
98.3046
98.36
98.3564
98.2599
101.503
104.347
98.9207
101.092
99.0371
98.2461
98.6018
98.6407
98.4839
98.8646
98.5095
98.8589
98.5927
98.6748
98.7616
98.5592
98.5606
98.6985
98.7711
98.5921
98.9976
98.8867
98.1301
98.9385
99.0251
98.4725
97.991
99.1628
98.468
98.644
97.7453
99.1611
98.4839
98.6693
99.7368
98.0585
100.932
99.5992
102.858
100.566
99.8087
98.6535
98.5815
98.7747
98.5572
98.7795
98.5855
98.6408
99.1018
98.825
120.532
98.0411
119.456
97.9724
98.2817
99.1626
97.7443
98.4843
98.6765
98.4919
98.6856
99.1645
97.2437
98.9945
96.1056
96.656
97.4594
99.0556
96.1787
96.9976
104.118
97.6824
100.582
96.9292
103.736
97.4882
99.9101
96.5511
98.2611
97.0149
99.8418
96.5349
98.235
97.5122
106.525
97.1058
96.2029
97.154
97.4749
97.3051
97.4157
96.6417
98.9566
96.3905
99.0204
96.3382
97.8093
97.0644
102.173
104.639
97.4538
103.521
97.5142
97.1529
99.9782
97.0014
96.4802
98.4553
96.5143
98.4598
100.018
98.6001
98.6994
97.6637
97.3254
98.6053
98.6943
97.664
100.727
100.689
99.8199
100.273
100.721
100.693
99.8816
99.5219
98.4618
99.2071
98.1096
99.5239
98.4626
99.2127
99.2508
100.323
98.7885
100.395
98.7514
100.437
99.2364
98.6076
97.3209
98.6776
97.6623
98.6991
97.6631
98.5829
100.732
100.108
100.708
99.8167
100.699
100.739
99.8219
99.5229
98.1103
98.4623
99.2157
98.4624
99.5272
99.2192
99.4246
99.7601
98.5608
98.7264
99.4264
98.5589
99.7431
99.2169
100.668
99.5253
101.36
99.2239
100.677
99.5548
99.4832
98.468
98.611
98.3826
99.481
98.4692
98.6377
100.166
100.271
100.715
101.072
101.08
100.172
100.746
99.4209
98.7266
99.712
98.552
98.5613
99.4207
99.7128
99.184
101.326
100.696
99.5489
100.689
99.5404
99.1436
99.4936
98.3873
98.4685
98.7368
98.4738
98.6639
99.5478
100.097
100.932
98.4788
99.0701
100.736
100.9
98.4447
102.165
107.045
101.897
108.109
102.246
106.59
101.858
100.467
99.3008
102.207
99.3839
100.387
99.2876
102.06
104.425
104.591
102.612
115.592
102.482
114.493
104.422
100.025
99.0672
100.989
98.2822
100.88
98.3331
100.066
102.182
106.197
107.566
101.969
106.077
101.873
102.141
100.584
99.4879
99.2432
102.085
99.2873
102.114
100.569
101.235
103.75
98.588
101.848
101.22
103.756
98.576
102.276
99.7957
100.484
100.637
100.703
104.277
100.354
102.649
101.248
101.263
100.598
102.61
101.268
101.27
98.6321
104.999
104.382
96.4577
104.051
96.1076
98.6985
101.239
101.919
103.607
98.55
103.693
98.5655
101.231
100.966
109.06
99.7409
100.412
100.737
100.309
101.079
102.646
100.574
101.246
101.277
101.266
101.275
102.6
100.787
100.949
100.632
100.733
100.8
100.95
100.645
102.371
119.545
99.4017
101.373
100.549
118.766
99.4283
99.9308
100.266
99.7234
99.8417
99.9297
100.277
99.7232
101.039
102.233
100.821
108.026
100.806
104.119
100.922
100.833
100.731
100.955
100.63
100.952
100.649
101.592
100.898
103.05
116.221
99.4662
117.616
99.4261
100.252
99.9877
99.8421
100.276
99.7706
100.284
99.7799
99.9892
99.6698
99.7418
99.6218
99.7527
99.6614
99.7456
99.624
100.29
102.464
98.967
99.4242
100.024
102.731
99.0809
99.0819
99.2111
98.9401
98.8591
99.1188
99.2055
98.9426
99.8527
101.117
100.016
101.856
99.9375
100.665
100.518
99.6976
99.7506
99.7485
99.6228
99.7455
99.6249
99.6542
100.417
99.3255
102.372
99.0838
102.492
99.0617
100.358
99.1281
98.8608
99.2052
98.98
99.2042
98.9743
99.1205
98.7472
99.1756
98.6246
98.9933
98.7514
99.1805
98.5996
100.066
99.7468
98.6705
98.8368
100.695
100.624
98.6704
98.8321
98.6422
98.5564
98.5511
98.8311
98.6438
98.5714
98.2366
99.7812
99.4424
103.197
99.429
100.063
98.2333
98.9165
98.9929
99.2108
98.6062
99.1906
98.6021
98.811
100.153
98.8262
100.66
98.7184
100.69
98.6819
100.094
98.8113
98.5509
98.6498
98.5223
98.649
98.5372
98.7625
98.4045
98.3266
98.3515
98.3811
98.4057
98.3286
98.3602
98.5808
95.9381
98.9342
98.8272
98.6043
95.7204
98.8913
98.5546
98.4725
98.8783
98.6381
98.5697
98.4833
98.8366
97.9317
97.9639
98.5252
97.8358
98.3191
98.1524
97.9101
98.4717
98.3903
98.3815
98.3692
98.3336
98.3703
98.4526
98.494
99.1028
96.6215
99.0814
96.9902
98.83
98.4868
98.5542
98.6454
98.4834
98.8484
98.4934
98.8445
98.5526
98.6195
98.7743
98.6082
98.5814
98.6345
98.7945
98.5368
99.2905
97.959
98.0239
98.4689
98.2666
114.986
97.9971
99.208
98.4693
98.6685
97.8131
99.1817
98.4588
98.6687
99.8161
98.2712
100.124
98.1753