/*--------------------------------*- C++ -*----------------------------------*\
| =========                 |                                                 |
| \\      /  F ield         | OpenFOAM: The Open Source CFD Toolbox           |
|  \\    /   O peration     | Version:  5.0                                   |
|   \\  /    A nd           | Web:      www.OpenFOAM.org                      |
|    \\/     M anipulation  |                                                 |
\*---------------------------------------------------------------------------*/
FoamFile
{
    version     2.0;
    format      ascii;
    class       surfaceScalarField;
    location    "1";
    object      phi;
}
// * * * * * * * * * * * * * * * * * * * * * * * * * * * * * * * * * * * * * //

dimensions      [0 3 -1 0 0 0 0];

internalField   nonuniform List<scalar> 
29617
(
1.79464e-09
-5.40128e-09
4.62754e-10
6.90819e-10
4.42038e-10
2.8634e-10
-3.03318e-09
4.32673e-09
4.96544e-10
-7.84987e-10
3.05924e-11
5.13646e-10
-9.37401e-10
1.59078e-09
7.78149e-09
1.57029e-09
4.31986e-11
-3.65845e-10
-1.78511e-09
-2.79334e-09
1.80396e-10
-2.07165e-10
9.50858e-10
-4.06286e-10
2.98057e-09
1.07439e-08
-1.12877e-09
-1.68425e-09
-7.85595e-10
-1.06566e-09
-3.14283e-09
3.18935e-11
1.93726e-10
1.10147e-11
-1.63587e-10
-3.30305e-11
1.84352e-10
-9.01119e-13
-9.59203e-12
-2.93446e-11
-6.20732e-11
-5.33142e-11
1.29272e-09
-1.33293e-10
-2.83833e-11
-2.27975e-10
-2.17572e-10
-3.84151e-10
-3.59629e-10
1.33704e-09
-9.02312e-11
-6.8172e-13
1.36083e-09
-5.42819e-11
4.58076e-13
1.37355e-09
-3.36678e-11
2.31453e-14
1.38152e-09
-2.05953e-11
-2.00849e-14
1.38659e-09
-1.2702e-11
5.16981e-14
1.38772e-09
-8.25611e-12
-2.34174e-13
1.38907e-09
-5.11709e-12
8.35786e-14
1.38992e-09
-3.75258e-12
1.25166e-12
1.39095e-09
-2.01987e-12
-2.7752e-14
1.39017e-09
-1.11394e-12
-7.7564e-13
1.39003e-09
-9.07179e-13
1.23107e-12
1.39035e-09
-4.77375e-13
4.97655e-13
1.39109e-09
-1.54034e-13
6.22016e-13
1.39108e-09
-9.31403e-14
8.91119e-15
1.39085e-09
1.32898e-13
7.27491e-14
1.39076e-09
-6.04943e-13
5.58573e-13
1.39097e-09
-2.9169e-13
1.16881e-13
1.39119e-09
-1.75109e-12
6.42369e-13
1.39158e-09
7.28248e-13
-1.14478e-12
1.39153e-09
7.94286e-14
6.04824e-15
1.39116e-09
1.17272e-12
-2.53479e-12
1.39142e-09
1.49566e-13
2.28296e-13
1.39077e-09
-9.09228e-13
3.76977e-12
1.39134e-09
-8.28488e-13
2.88863e-12
1.391e-09
-2.69599e-13
1.76035e-13
1.39187e-09
-9.41535e-13
1.94887e-13
1.39159e-09
1.84086e-13
-2.03448e-13
1.39143e-09
7.1819e-14
-4.31437e-13
1.39093e-09
4.59993e-13
1.73392e-13
1.39078e-09
5.87491e-13
-4.62271e-13
1.39286e-09
-3.66064e-12
1.04826e-12
1.39207e-09
5.48196e-13
9.64728e-14
1.39204e-09
5.92783e-14
1.02129e-14
1.39234e-09
-2.01669e-13
-1.15775e-13
1.39283e-09
2.33366e-12
-4.47601e-13
1.39133e-09
3.26949e-12
-1.78194e-12
1.39151e-09
-3.93089e-13
9.33978e-14
1.39154e-09
3.23031e-13
-3.77549e-13
1.39261e-09
-1.32537e-12
6.23464e-14
1.39233e-09
2.5505e-13
5.34886e-14
1.39174e-09
-4.44344e-13
8.14202e-13
1.2629e-12
-1.14564e-12
1.60518e-09
1.21568e-09
-1.64203e-09
-1.15387e-09
1.6745e-10
-1.05539e-10
3.26539e-10
-5.78369e-10
1.89918e-10
-4.58998e-09
-2.04515e-09
6.49181e-09
-3.13039e-10
-8.8474e-10
7.10699e-10
6.51264e-10
-2.08586e-11
3.28409e-09
-1.61362e-09
7.14827e-09
4.24944e-09
6.97985e-09
-2.81675e-08
1.01326e-08
-1.3223e-10
-2.79203e-10
-1.21624e-09
-3.85376e-10
-7.55748e-10
6.73862e-09
2.93552e-08
-3.26957e-08
3.43604e-08
-4.4686e-09
-3.66339e-10
-1.00974e-08
-6.43917e-09
-3.02379e-09
-4.09248e-09
-1.15361e-09
-4.45207e-09
-2.90843e-09
2.84692e-10
2.35516e-09
2.6345e-09
-1.44855e-09
-3.8258e-09
-4.03203e-11
3.57821e-11
1.70438e-10
5.53372e-11
-4.01032e-11
-7.28078e-11
-4.68121e-11
-1.2181e-11
-2.12318e-11
-1.74778e-11
-1.06229e-11
1.38732e-09
-1.75185e-10
-2.52565e-11
-2.39926e-10
-2.57692e-10
-3.93486e-10
-4.29106e-10
1.39701e-09
-9.89954e-11
-1.01389e-12
1.39822e-09
-5.61345e-11
5.5309e-13
1.39696e-09
-3.25283e-11
5.82923e-14
1.3954e-09
-1.91795e-11
7.41448e-14
1.39413e-09
-1.15468e-11
4.30313e-14
1.39305e-09
-7.23902e-12
-1.79876e-15
1.39238e-09
-4.48999e-12
-7.12382e-15
1.39235e-09
-2.85577e-12
-9.25153e-13
1.39239e-09
-2.02099e-12
-7.7423e-14
1.39158e-09
9.45e-14
-4.37514e-13
1.39021e-09
1.84037e-12
-1.39986e-12
1.39076e-09
-1.14382e-12
9.63506e-14
1.39069e-09
-9.6499e-14
3.06301e-15
1.39084e-09
-3.15561e-13
6.17379e-14
1.39079e-09
1.33783e-13
4.56405e-14
1.39173e-09
-4.01849e-13
-1.13642e-12
1.39169e-09
-2.25467e-14
-2.28473e-13
1.39123e-09
-2.94941e-14
-1.24316e-12
1.39089e-09
-1.89414e-14
1.09841e-12
1.39097e-09
7.18646e-14
-5.71497e-14
1.39064e-09
-5.73917e-13
2.10376e-12
1.39072e-09
-1.15826e-13
2.0871e-13
1.39103e-09
3.26289e-13
-1.51645e-12
1.39118e-09
5.77193e-13
-1.52259e-12
1.39229e-09
-3.37607e-12
2.03017e-12
1.39221e-09
-2.54994e-12
1.71512e-12
1.39152e-09
1.00795e-12
-9.50807e-14
1.39178e-09
-8.28541e-14
-6.54923e-14
1.39224e-09
-1.87904e-13
2.21369e-13
1.39246e-09
1.53295e-13
2.50343e-13
1.39075e-09
-1.11546e-12
-8.04946e-13
1.3911e-09
2.87252e-13
-5.52899e-14
1.39128e-09
1.16611e-14
-1.0097e-13
1.39089e-09
2.48177e-13
-3.14243e-14
1.39168e-09
8.07206e-13
7.65928e-13
1.39308e-09
2.77782e-13
1.61253e-12
1.39233e-09
2.01321e-13
1.7743e-13
1.39235e-09
2.68115e-14
2.96486e-13
1.39188e-09
-1.59048e-12
7.53944e-13
1.39177e-09
3.70037e-13
6.17078e-15
1.39215e-09
1.74338e-13
-9.92691e-13
-1.47796e-13
1.21333e-12
1.14977e-09
4.36693e-10
-1.85276e-09
2.91253e-10
-2.56048e-10
-3.72579e-09
-1.14453e-09
1.58917e-08
-1.16136e-08
-8.15362e-09
1.00458e-08
5.18536e-10
-1.37687e-09
-8.75819e-10
6.9032e-10
8.66524e-10
1.36838e-09
2.36578e-09
-4.33275e-09
-2.67934e-10
3.78738e-09
4.36557e-09
1.75207e-09
-1.12062e-08
1.30117e-09
1.71906e-10
2.36765e-09
-1.34931e-09
1.06573e-08
-1.21441e-08
-4.6095e-10
-6.80588e-10
1.43808e-09
2.09882e-09
3.87205e-09
-9.43284e-10
-9.17083e-10
-4.1105e-09
-8.42321e-11
8.96741e-12
-3.27433e-12
3.64101e-11
4.21289e-11
1.56009e-09
-7.19233e-11
-3.09261e-11
-2.98627e-10
-3.13852e-10
-4.9441e-10
-5.25569e-10
1.48188e-09
-1.76819e-11
-3.19126e-12
1.44369e-09
-1.81412e-11
1.26753e-13
1.42178e-09
-1.04325e-11
-2.49777e-13
1.40947e-09
-6.87514e-12
-6.45254e-14
1.40238e-09
-4.49259e-12
-3.18356e-14
1.39794e-09
-2.8742e-12
-3.30978e-15
1.39516e-09
-1.78244e-12
1.51004e-14
1.39344e-09
-1.15583e-12
-3.05694e-14
1.39203e-09
-7.3776e-13
8.23076e-14
1.3923e-09
-1.74032e-12
1.52846e-12
1.39235e-09
1.16816e-12
5.95239e-13
1.39175e-09
-4.29326e-13
-1.31865e-13
1.39136e-09
1.38687e-12
-1.10485e-12
1.39138e-09
-3.05978e-13
-4.45401e-14
1.3915e-09
9.91792e-14
-8.5419e-14
1.39049e-09
-2.00586e-13
8.11746e-13
1.39082e-09
-2.56357e-13
-9.05365e-14
1.39097e-09
-2.21971e-13
5.17453e-14
1.39095e-09
1.96817e-14
-7.69963e-17
1.39073e-09
-1.04892e-13
4.13447e-13
1.39121e-09
5.93634e-13
-1.62233e-12
1.39179e-09
1.02377e-12
-1.69804e-12
1.39167e-09
4.94242e-13
-1.67265e-14
1.39265e-09
6.95992e-13
-1.0645e-12
1.3913e-09
4.97405e-15
-2.00408e-12
1.39101e-09
2.52968e-13
-2.47507e-12
1.39159e-09
3.6539e-13
9.80733e-14
1.39165e-09
-1.57933e-13
5.06774e-14
1.39188e-09
-1.49397e-14
-3.74647e-13
1.39177e-09
1.42203e-14
2.91705e-13
1.39147e-09
-3.63789e-13
-4.20636e-13
1.39131e-09
-4.00661e-13
8.82059e-13
1.39126e-09
9.75405e-14
-6.78371e-15
1.39122e-09
9.61172e-14
2.2361e-13
1.39138e-09
4.85903e-13
1.86887e-13
1.39288e-09
-1.0183e-12
-1.79549e-13
1.3928e-09
3.56106e-13
-5.56773e-14
1.39255e-09
2.27713e-13
6.94433e-14
1.39187e-09
-7.54642e-14
-8.16289e-13
1.39169e-09
6.02041e-13
-4.18938e-14
1.39158e-09
2.21722e-13
7.47162e-14
-1.05076e-12
3.95279e-13
7.06336e-09
4.542e-09
1.41813e-09
9.80406e-08
-1.92597e-07
1.61082e-09
8.01099e-08
5.19657e-09
-2.71872e-09
-2.52433e-09
-7.67679e-09
7.72327e-09
1.9733e-11
-2.9933e-09
2.7839e-09
-9.76249e-12
-1.77335e-09
-7.19582e-10
6.25732e-10
-2.36009e-08
-1.2501e-08
2.30549e-08
1.51134e-08
-1.19006e-09
2.14353e-09
3.95784e-09
3.78084e-11
-4.94912e-09
-7.28843e-10
2.78863e-09
5.47128e-09
7.96397e-09
-6.18619e-09
-1.00908e-08
2.84347e-08
-2.76521e-08
-7.68244e-10
7.66981e-11
5.58473e-10
5.84191e-10
-4.51118e-10
-2.48968e-10
1.48582e-11
-8.09384e-12
1.78224e-10
6.39797e-11
1.58907e-09
1.38025e-11
-3.64034e-11
-3.10011e-10
-3.03647e-10
-5.31796e-10
-5.33669e-10
2.10999e-12
2.98942e-11
8.69743e-12
1.49774e-09
7.55907e-11
-2.03964e-12
1.45468e-09
2.53285e-11
-4.75383e-13
1.42896e-09
1.53704e-11
-1.52907e-13
1.41352e-09
8.38811e-12
1.1014e-13
1.40493e-09
4.02963e-12
-9.61993e-15
1.39965e-09
2.34104e-12
-1.52106e-14
1.39636e-09
1.53566e-12
-8.73012e-14
1.39423e-09
9.61164e-13
-4.74824e-14
1.39301e-09
5.36821e-13
-9.74837e-14
1.3918e-09
5.83916e-13
-1.14704e-12
1.39223e-09
5.99334e-13
1.17672e-13
1.39158e-09
1.61173e-13
3.88891e-14
1.39179e-09
1.16606e-13
1.04487e-12
1.39151e-09
-1.70701e-14
-1.29036e-14
1.39124e-09
1.39573e-12
-1.03453e-12
1.39138e-09
-1.85967e-13
-1.47297e-13
1.39107e-09
-3.4906e-14
9.19423e-14
1.39104e-09
-9.92313e-14
-7.40221e-14
1.3911e-09
1.44737e-14
-3.92685e-14
1.39146e-09
8.55867e-13
-1.30595e-12
1.39206e-09
1.22338e-12
-1.20401e-12
1.39103e-09
5.38662e-13
1.53736e-12
1.39119e-09
5.05961e-13
-1.44559e-13
1.39113e-09
4.19151e-13
3.67122e-13
1.39128e-09
-1.19175e-13
1.0957e-14
1.39134e-09
2.34837e-13
-1.31572e-14
1.39176e-09
6.80094e-13
-7.02407e-13
1.3916e-09
-2.19119e-15
4.59863e-14
1.39187e-09
-1.46587e-13
-1.02732e-13
1.39179e-09
3.98002e-13
-2.72171e-13
1.39136e-09
-3.32837e-13
4.36168e-13
1.39173e-09
-3.16376e-13
-4.26968e-13
1.39178e-09
8.01101e-15
7.87498e-14
1.39203e-09
-1.25685e-12
1.13012e-12
1.39215e-09
6.36906e-13
-2.41408e-13
1.39163e-09
-1.08706e-12
6.07954e-13
1.39225e-09
1.29607e-13
-3.67455e-13
1.39252e-09
5.63962e-14
-7.76413e-14
1.39237e-09
1.57292e-12
-1.48822e-12
1.39112e-09
1.86599e-12
-4.01276e-15
1.39146e-09
-6.33709e-14
-4.12725e-14
-1.7078e-12
6.81902e-13
-4.03439e-09
1.14539e-09
1.65442e-09
4.13586e-09
9.5059e-09
4.59178e-09
-1.68076e-08
-4.29441e-10
-1.07359e-09
3.27686e-09
-3.99869e-10
-1.37396e-09
-1.54407e-10
1.11598e-10
-8.61594e-10
2.03001e-10
7.01402e-10
9.49779e-09
2.64705e-10
-3.50466e-09
9.53651e-10
-2.94057e-09
-1.7757e-09
-1.44277e-09
-1.05244e-09
2.3032e-11
9.09654e-10
2.97322e-10
4.92415e-10
-1.72242e-09
-1.19687e-10
-6.40955e-10
4.84915e-10
-3.64488e-10
6.40215e-10
-4.64003e-11
-2.57511e-11
2.99446e-11
-1.06025e-10
1.48232e-10
-3.85459e-11
2.17811e-10
1.86368e-11
-5.7386e-12
-3.80681e-11
-7.06941e-11
-6.96058e-11
1.43879e-09
6.69279e-11
-2.41844e-11
-2.65177e-10
-2.64892e-10
-4.38567e-10
-4.37336e-10
1.42439e-09
4.19345e-11
-2.29258e-12
1.41408e-09
2.50577e-11
5.40686e-13
1.40607e-09
1.63868e-11
-7.58895e-14
1.40195e-09
7.15675e-12
9.09234e-13
1.39851e-09
5.71479e-12
-1.11762e-14
1.3953e-09
5.11688e-12
-4.32042e-13
1.39333e-09
3.35465e-12
-4.7286e-13
1.3925e-09
1.25889e-12
5.98645e-14
1.39182e-09
1.17816e-12
5.49003e-14
1.39142e-09
9.33193e-13
4.27583e-14
1.39175e-09
8.1719e-13
-1.00282e-12
1.39136e-09
4.84109e-13
5.39416e-15
1.39135e-09
5.5668e-13
-5.72031e-13
1.3916e-09
1.61683e-13
9.92701e-13
1.39147e-09
4.49341e-14
-1.01816e-13
1.3914e-09
3.22318e-13
-2.83963e-13
1.39155e-09
-2.82226e-13
5.36076e-14
1.39163e-09
-1.41461e-14
-3.72638e-14
1.39153e-09
1.95363e-13
7.78831e-13
1.39086e-09
2.8455e-13
1.62889e-12
1.39096e-09
3.84661e-13
7.86838e-14
1.39169e-09
-5.0987e-14
-1.41745e-13
1.3911e-09
1.59167e-12
-5.54433e-13
1.39124e-09
1.06421e-13
-3.29409e-13
1.39161e-09
-8.45997e-14
-2.17896e-14
1.39124e-09
3.68351e-13
7.1936e-13
1.39131e-09
4.83791e-14
-8.43557e-14
1.39134e-09
-1.06625e-13
-3.64549e-14
1.39138e-09
-4.58179e-14
4.35699e-13
1.39161e-09
-1.29354e-13
-3.91779e-13
1.39197e-09
-1.45622e-13
-5.01384e-13
1.3919e-09
2.32812e-13
-1.21545e-13
1.39197e-09
3.43592e-13
-1.64406e-12
1.39236e-09
2.07651e-13
6.92074e-14
1.39181e-09
-2.60311e-13
-2.53916e-13
1.3921e-09
-3.96346e-13
2.56713e-13
1.39257e-09
-3.95683e-13
5.55613e-15
1.39272e-09
-1.37268e-12
2.80319e-12
1.39117e-09
3.71179e-12
-2.82222e-13
1.39141e-09
-7.95096e-13
5.05308e-13
-2.02527e-13
-7.54984e-13
-5.75327e-09
-3.95399e-09
1.2724e-09
-2.02623e-08
-4.95732e-09
2.1453e-08
1.23931e-08
2.57145e-09
6.9164e-10
-1.93306e-09
-2.55357e-08
2.31585e-08
6.94193e-08
-7.95222e-08
2.02326e-09
3.31791e-09
5.64348e-09
1.66318e-10
1.89698e-09
5.04915e-09
-2.7255e-09
-1.84197e-09
-2.37867e-09
-2.28387e-09
1.2877e-10
-1.75333e-10
9.25306e-10
1.40512e-09
1.83004e-09
4.62371e-09
3.51506e-10
-1.73532e-08
1.05479e-08
-1.48935e-10
-5.39947e-10
-7.72979e-10
7.01044e-12
1.45485e-09
-3.71106e-11
-2.33156e-11
-6.99576e-12
-5.11746e-11
1.18596e-10
-3.52761e-11
2.03521e-10
1.55406e-11
-3.29321e-12
-1.996e-11
-3.42947e-11
-6.4173e-11
-6.20645e-11
1.39138e-09
2.93881e-11
-2.20273e-11
-2.55216e-10
-2.48557e-10
-4.19502e-10
-4.08581e-10
1.39697e-09
3.87359e-11
-2.48124e-12
1.39733e-09
2.40036e-11
5.88422e-13
1.39705e-09
1.67481e-11
-1.74416e-13
1.39433e-09
1.06445e-11
-8.54766e-13
1.39297e-09
6.9853e-12
1.10409e-14
1.39289e-09
4.6317e-12
5.05121e-13
1.3927e-09
2.96459e-12
5.26489e-13
1.39216e-09
1.74778e-12
1.15769e-14
1.39155e-09
2.67072e-12
-9.0928e-13
1.39191e-09
5.88905e-13
-4.51173e-14
1.39113e-09
5.317e-13
1.05364e-12
1.39148e-09
5.7511e-13
-4.5573e-13
1.3912e-09
4.12865e-13
4.1754e-13
1.39142e-09
-1.84845e-13
1.34307e-13
1.39103e-09
8.24537e-13
-3.92054e-13
1.39099e-09
1.35549e-13
2.38344e-13
1.39174e-09
9.48161e-13
-1.96518e-12
1.39178e-09
3.13018e-14
-6.82763e-14
1.3917e-09
3.45863e-13
-4.99632e-14
1.39154e-09
6.94562e-13
-2.31985e-13
1.39028e-09
4.22447e-12
-2.55682e-12
1.39065e-09
-4.78541e-13
8.68025e-14
1.39162e-09
-7.09497e-13
1.36226e-12
1.39146e-09
2.02872e-13
1.00211e-13
1.39119e-09
2.17958e-13
-1.08409e-15
1.39149e-09
-8.71008e-14
1.86952e-13
1.39142e-09
9.12919e-14
5.80967e-14
1.39155e-09
-4.03745e-14
-1.51482e-13
1.39156e-09
1.62685e-13
-1.88293e-13
1.39164e-09
-6.87901e-13
5.14269e-13
1.39226e-09
-9.4473e-13
2.12694e-13
1.39208e-09
2.57383e-13
1.87479e-13
1.39186e-09
5.5194e-13
3.94088e-14
1.39192e-09
2.52581e-13
-7.71737e-14
1.39144e-09
2.96731e-13
-5.62804e-14
1.39133e-09
-9.62524e-14
-1.65142e-13
1.3912e-09
-1.84379e-13
-6.6028e-14
1.3911e-09
1.44192e-12
-2.69174e-12
1.39339e-09
1.18511e-12
2.45246e-13
1.39274e-09
-7.31771e-13
5.93866e-13
-7.63213e-13
1.61676e-12
1.20555e-08
4.20787e-09
-1.1696e-08
-4.3764e-09
-1.10453e-08
1.82971e-08
4.68556e-09
2.31369e-10
-6.37083e-09
-1.69067e-11
1.14795e-09
-6.92894e-09
5.68697e-09
2.60244e-09
1.67972e-10
1.48222e-08
-1.80724e-08
-2.19421e-08
9.76915e-09
2.74694e-09
1.00928e-09
1.77501e-09
1.49568e-09
2.63105e-10
-7.10363e-11
-2.53302e-10
1.41244e-09
-1.05227e-09
-3.71122e-09
-1.10914e-09
8.71279e-10
3.69187e-10
1.45373e-09
2.25404e-10
7.90863e-10
2.81618e-10
4.68117e-10
-2.62049e-09
-2.11326e-09
-3.9453e-10
2.352e-09
2.77628e-09
-3.19104e-11
1.7837e-10
-1.02598e-10
-2.9819e-10
2.54329e-10
-7.24834e-11
1.65611e-11
-1.20933e-11
-4.35407e-11
1.11556e-10
1.39259e-09
9.2747e-11
-3.4747e-11
-2.48417e-10
-2.42301e-10
-4.42361e-10
-4.14782e-10
-1.4447e-11
-2.24308e-11
-2.60087e-11
-3.98454e-11
1.379e-09
4.3086e-11
-1.70799e-13
1.38329e-09
3.4579e-11
-2.37717e-13
1.38531e-09
2.18245e-11
4.57136e-14
1.38736e-09
1.45983e-11
-1.55854e-15
1.38859e-09
9.33013e-12
-2.97079e-16
1.38945e-09
6.04423e-12
3.77479e-15
1.39008e-09
3.91272e-12
3.34943e-14
1.39046e-09
2.52448e-12
7.07993e-15
1.39063e-09
1.51118e-12
2.67509e-14
1.39133e-09
8.76291e-13
1.06998e-12
1.39114e-09
-6.77341e-13
1.43536e-12
1.39146e-09
6.87807e-14
1.26755e-13
1.39102e-09
4.58798e-13
5.41975e-13
1.39124e-09
7.33703e-14
1.13678e-13
1.39114e-09
-5.25943e-13
4.43442e-13
1.39149e-09
1.38816e-13
3.39042e-13
1.3913e-09
4.42797e-13
-9.86642e-14
1.39071e-09
-3.69775e-13
1.91141e-12
1.39098e-09
-1.6593e-13
-4.97335e-14
1.39174e-09
-2.89051e-13
-1.1178e-13
1.38996e-09
5.59119e-12
-3.08934e-12
1.39137e-09
7.91288e-13
2.0486e-12
1.39168e-09
-8.00053e-13
4.21894e-14
1.39135e-09
-3.41841e-14
-3.16949e-13
1.39139e-09
1.24139e-13
7.14779e-14
1.39148e-09
-2.21981e-14
1.83149e-13
1.39171e-09
-3.3519e-14
-2.5504e-13
1.39167e-09
2.28679e-13
-5.96488e-14
1.3915e-09
-9.75559e-15
1.73266e-13
1.39182e-09
-4.3627e-14
-7.72151e-14
1.39164e-09
4.40362e-15
-4.78576e-13
1.39201e-09
-1.59831e-12
3.17034e-13
1.39248e-09
-9.99876e-14
-7.42053e-14
1.39146e-09
1.4742e-12
1.18465e-13
1.39151e-09
-7.28618e-13
9.67596e-13
1.39135e-09
3.44384e-13
1.28696e-13
1.39146e-09
-2.77292e-13
9.70202e-14
1.39131e-09
-1.17065e-14
-9.47973e-15
1.39168e-09
-7.48645e-13
1.83662e-12
1.39216e-09
7.02316e-13
2.08186e-14
1.39259e-09
4.12638e-14
-1.1976e-12
-2.76244e-13
-1.06595e-12
-3.70707e-09
-2.98641e-09
4.6626e-09
2.22185e-09
3.35546e-10
2.10087e-09
8.98038e-10
2.29792e-09
-5.63239e-09
-3.70158e-10
6.5074e-11
1.00759e-07
-2.41909e-08
6.39157e-09
-9.76906e-08
1.02531e-09
2.08932e-09
1.78719e-09
1.23939e-09
-6.27261e-10
4.02857e-09
4.55049e-09
1.67972e-09
-3.66843e-10
-1.07561e-09
7.05507e-10
-5.93396e-09
-2.07458e-09
2.93128e-09
-1.61979e-09
3.1171e-10
-6.67644e-10
-4.59285e-10
1.82589e-08
-3.02018e-08
2.66656e-08
-3.80661e-09
-1.81033e-09
-1.09166e-09
-5.01861e-10
-4.80349e-10
-4.18731e-10
-7.4546e-10
-2.25895e-10
1.87044e-09
3.00779e-10
1.17548e-09
-4.8591e-10
-1.50398e-10
-8.3995e-10
-1.2643e-10
-1.08692e-11
1.73811e-11
8.02358e-11
3.96828e-11
1.34845e-09
6.72939e-11
-2.99508e-11
-2.43093e-10
-2.36309e-10
-4.12522e-10
-4.01137e-10
1.35327e-09
3.91425e-11
-9.77446e-13
1.3645e-09
2.3193e-11
4.49647e-14
1.37261e-09
1.36355e-11
-3.56625e-14
1.37874e-09
8.37071e-12
-9.82959e-15
1.38285e-09
5.13721e-12
3.70885e-15
1.38575e-09
3.08713e-12
-1.69454e-15
1.38763e-09
1.97095e-12
-3.19244e-15
1.38874e-09
1.34616e-12
2.24024e-14
1.38967e-09
-3.25815e-13
8.74319e-13
1.39003e-09
6.14523e-14
4.15467e-13
1.39136e-09
1.47682e-13
-2.17085e-12
1.39114e-09
3.27304e-14
2.33622e-13
1.39117e-09
4.41529e-13
-1.48738e-14
1.39139e-09
4.20257e-13
-5.70276e-13
1.39114e-09
8.8395e-13
-1.16442e-12
1.39162e-09
-3.51528e-13
2.32815e-14
1.39041e-09
-1.68513e-12
3.34717e-12
1.39072e-09
-5.8032e-13
-9.18338e-14
1.39071e-09
-8.42135e-14
-5.42495e-14
1.38975e-09
9.03268e-13
-2.10823e-13
1.39158e-09
6.2253e-13
3.15533e-12
1.39168e-09
7.15533e-13
3.77072e-15
1.39218e-09
-3.32942e-12
2.05669e-12
1.39195e-09
7.94758e-14
1.47302e-13
1.39123e-09
1.15684e-12
-2.824e-13
1.3914e-09
-1.39935e-13
-1.55658e-14
1.3917e-09
-1.00936e-13
-1.97399e-13
1.39144e-09
1.31071e-12
-7.8546e-13
1.39173e-09
-3.04117e-13
3.80021e-14
1.3916e-09
6.2558e-13
-5.06909e-13
1.39199e-09
-2.58449e-13
-8.72101e-14
1.39141e-09
-3.8403e-13
-6.0592e-13
1.39103e-09
7.33265e-14
2.39227e-13
1.39198e-09
6.40797e-13
-9.11348e-14
1.39173e-09
4.98933e-13
-9.47413e-13
1.39204e-09
2.49669e-13
-1.88366e-13
1.39173e-09
6.21714e-14
-9.41596e-15
1.39124e-09
4.88541e-13
1.35881e-14
1.39178e-09
-1.10707e-12
-1.70109e-13
1.39172e-09
5.10345e-13
2.57992e-13
1.39293e-09
-2.60926e-12
1.45153e-12
-4.25069e-13
-5.08075e-13
1.64297e-09
2.28106e-09
-1.11431e-08
5.81707e-10
-6.61289e-10
-4.40192e-11
2.10231e-09
9.49491e-10
7.4967e-10
4.93009e-09
-7.22234e-10
-8.39909e-10
4.20833e-09
-1.00325e-09
-2.06104e-10
-4.66711e-10
-6.11349e-10
-1.69884e-09
2.98301e-09
1.07801e-09
1.07962e-09
-1.64855e-09
1.90545e-09
-2.4924e-09
2.17031e-09
-9.03456e-11
-2.00209e-09
-4.05586e-10
-6.95858e-09
-5.22778e-09
1.10094e-08
-1.36169e-09
6.08192e-10
1.69517e-09
6.40869e-10
6.73478e-10
6.02884e-10
4.52066e-10
-4.70644e-10
-1.25778e-09
-2.68203e-11
5.72527e-13
-1.35845e-13
7.41081e-12
1.89728e-11
1.27714e-09
-8.10054e-14
-2.99601e-11
-2.09833e-10
-2.26706e-10
-3.45343e-10
-3.97955e-10
1.31848e-09
-2.41049e-12
9.22849e-14
1.34501e-09
-3.66099e-12
2.01425e-13
1.36187e-09
-3.40846e-12
7.13612e-14
1.37254e-09
-2.45174e-12
5.95505e-14
1.37919e-09
-1.60379e-12
1.2053e-14
1.38366e-09
-1.48583e-12
3.9914e-14
1.38632e-09
-7.91153e-13
4.82759e-14
1.38875e-09
-1.77461e-12
6.48488e-13
1.38961e-09
-2.9194e-13
-9.38849e-13
1.39039e-09
-4.41426e-14
-7.04016e-13
1.39005e-09
-2.55092e-13
7.24161e-13
1.3904e-09
-1.81052e-13
-1.55501e-13
1.3907e-09
1.88997e-13
-5.24635e-14
1.3905e-09
-1.38938e-13
7.50136e-13
1.39071e-09
4.10436e-14
6.33229e-13
1.39019e-09
2.39762e-13
-6.15781e-14
1.39179e-09
3.61258e-13
-3.64318e-12
1.39147e-09
-2.6203e-13
2.371e-14
1.39098e-09
-3.06253e-13
7.23816e-13
1.39151e-09
-2.34392e-14
4.19899e-13
1.39177e-09
2.50176e-13
1.32603e-13
1.39176e-09
1.04607e-13
6.44731e-13
1.39083e-09
-3.04669e-13
-2.07062e-12
1.39095e-09
1.65711e-13
-1.69068e-13
1.39188e-09
9.19717e-13
-6.65238e-13
1.39113e-09
-6.02203e-14
7.01681e-13
1.39121e-09
7.92899e-14
-2.20797e-13
1.39155e-09
2.45732e-13
7.59784e-13
1.39161e-09
-1.48716e-12
1.15561e-12
1.39203e-09
-3.15887e-13
5.55899e-13
1.39171e-09
8.01519e-13
-7.02006e-13
1.39179e-09
-3.54895e-13
-7.57595e-14
1.39217e-09
-2.85806e-13
6.77459e-15
1.39163e-09
2.33039e-12
-1.11906e-12
1.3917e-09
4.37295e-13
2.21914e-14
1.39148e-09
4.30032e-13
6.44817e-14
1.39219e-09
-1.14876e-12
5.20564e-13
1.39256e-09
-1.35014e-13
2.72019e-13
1.39131e-09
4.5432e-13
-2.92741e-13
1.39154e-09
4.19616e-13
-1.28135e-13
1.39176e-09
1.19052e-12
-4.01545e-12
-1.97313e-12
-2.26615e-14
5.13568e-09
-3.14016e-08
5.16366e-08
1.90666e-08
-3.9001e-08
2.57723e-09
5.54051e-11
1.95136e-09
-3.93402e-09
6.94205e-10
2.36911e-08
-2.72056e-09
-9.49064e-09
-2.89372e-09
-2.10747e-10
-1.09506e-09
7.75122e-10
-2.82183e-09
4.51803e-09
-1.37626e-09
2.64907e-09
-1.02178e-09
-1.75471e-09
7.57528e-10
-2.30638e-10
-3.69607e-10
-9.12351e-11
-5.58613e-11
-4.60453e-10
9.75889e-10
-3.98202e-10
1.30004e-09
4.89279e-09
9.13682e-10
6.64283e-10
2.00972e-09
7.39562e-10
1.55381e-10
-2.38827e-08
-4.17542e-08
6.19941e-08
-7.03266e-09
-3.99813e-10
2.991e-10
3.25381e-11
8.61068e-11
-1.79319e-11
-2.53848e-11
-3.77146e-12
1.65235e-10
-1.17172e-11
-5.17847e-12
-2.30869e-11
-5.12792e-11
-4.48167e-11
1.2766e-09
-3.19398e-11
-2.14842e-10
-2.23316e-10
-3.66404e-10
-3.82028e-10
1.32029e-09
2.32275e-13
1.34656e-09
-1.47064e-13
1.36372e-09
1.45395e-13
1.37369e-09
5.18448e-14
1.37947e-09
4.56608e-14
1.38492e-09
2.77375e-13
1.38776e-09
-8.4508e-14
1.38838e-09
-8.6456e-13
1.38901e-09
1.19542e-14
1.39056e-09
9.95963e-13
1.39071e-09
-6.47954e-13
1.39086e-09
-7.12283e-13
1.39036e-09
-5.4598e-13
1.39067e-09
-3.6738e-13
1.3907e-09
3.46698e-14
1.39105e-09
3.45375e-14
1.39093e-09
4.67354e-13
1.39101e-09
5.822e-13
1.39123e-09
-4.68041e-13
1.39123e-09
-3.01108e-15
1.39176e-09
1.50152e-12
1.39181e-09
-5.19793e-13
1.39153e-09
-2.17549e-12
1.39058e-09
-1.43252e-12
1.3911e-09
9.09148e-13
1.3913e-09
-2.99192e-13
1.39138e-09
3.77927e-13
1.39173e-09
4.9691e-13
1.39153e-09
-1.33433e-12
1.3914e-09
-7.09803e-14
1.39208e-09
7.29544e-13
1.39182e-09
1.3116e-13
1.3918e-09
-2.24346e-13
1.39305e-09
1.16504e-12
1.39147e-09
-2.93022e-13
1.39199e-09
-2.38325e-14
1.39155e-09
-5.33253e-13
1.39177e-09
-2.80778e-13
1.39238e-09
7.1676e-14
1.393e-09
-2.0593e-13
1.39168e-09
2.74275e-12
7.61119e-14
6.73791e-09
9.85191e-10
-1.19451e-08
1.01171e-08
3.81755e-09
6.00991e-09
-6.02642e-09
-2.26656e-09
8.14754e-11
-2.32577e-11
8.96367e-10
1.00584e-09
1.41146e-09
4.56447e-09
-1.12754e-09
-3.7447e-09
-2.8011e-10
7.25093e-10
6.49816e-10
2.71189e-10
-1.52131e-09
1.1272e-09
5.92559e-10
3.46948e-10
-3.85016e-11
-9.5043e-09
-8.66695e-10
4.04451e-10
-1.20144e-09
5.89982e-10
3.331e-09
2.69577e-09
4.2006e-10
2.60219e-09
-1.1377e-10
-1.46869e-09
9.72581e-10
-5.42776e-10
1.95832e-10
1.02036e-10
-7.21133e-11
1.29769e-10
-4.22258e-10
-5.68674e-11
-1.42416e-10
9.85702e-12
5.33682e-10
-6.40377e-12
-4.70451e-13
-1.24289e-10
-1.48375e-10
-1.28986e-10
2.14126e-09
-2.29124e-10
2.87093e-11
-5.3197e-10
-4.99619e-10
-5.3197e-10
-4.99617e-10
2.21857e-09
-1.53753e-10
6.51392e-13
2.26201e-09
-9.23275e-11
-1.67616e-13
2.28487e-09
-5.70868e-11
-1.5952e-13
2.29923e-09
-3.48783e-11
-5.20292e-13
2.3082e-09
-2.15356e-11
-4.66048e-13
2.31051e-09
-1.38883e-11
4.51983e-13
2.31289e-09
-8.59357e-12
1.60183e-13
2.31442e-09
-5.75545e-12
2.21668e-12
2.31604e-09
-3.41094e-12
-5.78389e-15
2.31512e-09
-2.09085e-12
5.85303e-14
2.31475e-09
-1.48746e-12
1.28689e-12
2.31542e-09
-7.86195e-13
-2.66102e-13
2.3165e-09
-2.30231e-13
-1.47033e-12
2.31637e-09
-4.60706e-13
4.67194e-13
2.3162e-09
2.95259e-13
-5.13455e-14
2.3161e-09
3.29621e-13
1.08163e-13
2.31633e-09
4.56142e-13
-1.51719e-13
2.31665e-09
1.0361e-12
-3.19516e-13
2.31738e-09
-1.13214e-12
-5.2807e-13
2.31739e-09
9.73117e-14
1.69236e-14
2.31645e-09
-8.89717e-13
-1.55858e-13
2.31689e-09
-7.66379e-13
9.61064e-13
2.31596e-09
4.76745e-12
-1.07e-12
2.31654e-09
4.08834e-12
-3.09265e-12
2.31656e-09
-3.23779e-13
-2.80737e-13
2.31777e-09
5.91846e-13
-5.76329e-13
2.31736e-09
3.34245e-13
-1.06791e-13
2.31694e-09
1.90176e-13
2.11523e-13
2.31611e-09
1.06655e-12
-2.88192e-13
2.31595e-09
-1.20539e-12
6.90737e-13
2.31889e-09
-6.35151e-13
-1.87559e-12
2.31805e-09
9.44566e-13
-1.34028e-13
2.31786e-09
2.50042e-13
2.36378e-14
2.31832e-09
-2.83832e-13
4.34854e-14
2.31916e-09
1.47492e-12
2.28084e-13
2.31679e-09
3.69887e-12
-3.10445e-12
2.31717e-09
-2.93358e-13
-1.28796e-13
2.31702e-09
-5.36745e-13
3.29232e-13
2.31863e-09
-1.91618e-12
1.08126e-13
2.31819e-09
2.71041e-13
1.4754e-13
2.31712e-09
7.76024e-13
8.91399e-13
-5.61001e-13
-4.30766e-13
-1.82461e-09
-1.30301e-08
4.57644e-09
1.37905e-09
4.51567e-09
1.0708e-09
2.31949e-09
-4.49157e-09
6.91028e-09
5.54065e-09
-1.62843e-09
-2.2687e-09
-7.59539e-10
-1.70186e-09
7.94256e-10
-2.0796e-09
-8.04293e-09
1.25311e-09
9.34307e-09
-1.26791e-09
-1.96623e-09
-6.62655e-10
1.37821e-08
-7.24594e-09
-2.76088e-08
2.93333e-08
-1.224e-08
6.72866e-10
1.51234e-09
7.69923e-10
1.06569e-09
6.49864e-10
-2.11182e-09
1.47951e-09
2.56991e-09
-5.21346e-10
-6.4776e-10
-1.77536e-08
-4.45602e-10
1.83689e-08
9.99384e-10
1.93236e-08
2.65737e-10
-2.989e-09
-1.42315e-09
-1.13134e-09
-1.40458e-08
7.76425e-09
2.26556e-10
-3.11511e-09
1.71556e-09
5.25719e-11
-6.64384e-09
-1.50315e-10
-4.31923e-12
1.19079e-10
4.99577e-10
-2.06589e-10
4.31803e-11
-1.52302e-10
4.09917e-11
-5.06516e-11
-5.25677e-11
-4.37518e-11
-4.23306e-11
2.30913e-09
-2.9936e-10
2.49613e-11
-5.49118e-10
-5.95466e-10
-5.49245e-10
-5.95468e-10
2.32172e-09
-1.68595e-10
1.04936e-12
2.32641e-09
-9.60123e-11
-6.15492e-13
2.32494e-09
-5.5717e-11
5.2149e-15
2.32294e-09
-3.29113e-11
-4.84723e-14
2.32114e-09
-1.98305e-11
-1.10905e-14
2.31953e-09
-1.24251e-11
5.37415e-15
2.31851e-09
-7.68915e-12
-1.7278e-14
2.31851e-09
-4.77619e-12
-2.01043e-12
2.31849e-09
-3.54808e-12
-1.31598e-14
2.31721e-09
-2.00212e-12
6.89497e-13
2.31537e-09
3.47424e-13
-1.44842e-12
2.31606e-09
-1.47432e-12
6.42511e-14
2.31601e-09
-1.76807e-13
-2.91005e-14
2.31603e-09
-3.49702e-13
-7.32577e-14
2.31612e-09
3.28226e-13
-8.1649e-14
2.31768e-09
-3.93592e-12
1.58302e-12
2.31745e-09
1.94917e-13
2.80238e-13
2.31663e-09
-1.87686e-14
6.61767e-13
2.31611e-09
8.54861e-15
5.15779e-13
2.31627e-09
-1.03435e-13
3.61181e-14
2.31558e-09
3.50896e-12
-1.55779e-12
2.31569e-09
-1.08411e-13
-4.99097e-13
2.31654e-09
6.84469e-13
1.79004e-12
2.31675e-09
8.90685e-13
1.53322e-12
2.31833e-09
-2.57717e-12
2.77551e-12
2.31836e-09
1.17013e-12
1.18514e-12
2.31727e-09
1.10636e-12
2.97806e-13
2.31748e-09
-6.92758e-14
6.18762e-14
2.3182e-09
4.19262e-13
2.32257e-13
2.31846e-09
-4.76076e-13
-6.62386e-13
2.31597e-09
-7.86014e-13
1.91616e-12
2.31635e-09
5.04418e-13
7.48584e-14
2.31651e-09
6.78903e-15
4.38297e-14
2.316e-09
3.07761e-13
-4.13258e-14
2.31728e-09
1.21832e-12
-2.0631e-13
2.31931e-09
1.14935e-13
3.21787e-12
2.31831e-09
1.66119e-12
-7.25895e-13
2.31831e-09
3.37591e-14
-2.45131e-13
2.3176e-09
5.65379e-13
-9.808e-13
2.31746e-09
6.16061e-13
-1.82269e-13
2.31785e-09
1.94098e-13
-7.82735e-13
-2.36908e-13
2.17096e-13
-1.64918e-10
3.24152e-10
-1.05715e-09
8.28139e-10
2.16263e-10
9.79019e-09
-8.4191e-10
8.3844e-10
-1.37557e-09
-1.53999e-10
-8.25715e-09
3.92209e-10
-7.02619e-10
2.04906e-08
-1.97633e-08
-5.27685e-10
1.10822e-10
-5.14572e-10
-2.65196e-08
-1.25987e-09
3.92859e-08
-4.35512e-09
-6.63672e-09
6.43072e-08
-5.18611e-10
-1.28705e-09
-4.9382e-10
-2.81434e-09
-5.91933e-08
-4.92041e-09
1.631e-09
-2.25252e-09
1.81683e-09
1.62564e-09
2.09945e-09
-2.39606e-10
-7.02263e-11
4.64875e-11
-1.8347e-11
5.34695e-11
2.28222e-10
2.60825e-09
-1.30335e-10
3.09014e-11
-6.89522e-10
-7.30084e-10
-6.89513e-10
-7.3012e-10
2.46684e-09
-3.37154e-11
3.15979e-12
2.40444e-09
-3.3613e-11
-3.36021e-14
2.36758e-09
-1.93925e-11
1.39855e-13
2.34715e-09
-1.28485e-11
1.37361e-13
2.33534e-09
-8.26239e-12
5.48566e-14
2.32796e-09
-5.21736e-12
1.6064e-14
2.32334e-09
-3.17401e-12
-9.20731e-15
2.3205e-09
-2.09481e-12
1.87045e-14
2.31829e-09
-1.33833e-12
-4.17003e-15
2.31866e-09
-4.87199e-13
-4.26825e-13
2.31843e-09
1.25481e-12
-1.32923e-13
2.31769e-09
-8.19677e-13
-8.22996e-14
2.3171e-09
3.7751e-13
-1.09179e-12
2.31727e-09
-5.66584e-13
4.2587e-17
2.31707e-09
3.31998e-13
1.05614e-13
2.31555e-09
1.29352e-13
-1.72458e-12
2.316e-09
-3.22829e-13
4.14413e-15
2.31623e-09
-2.52703e-13
8.62896e-14
2.31607e-09
3.2401e-13
-1.21877e-13
2.31568e-09
1.1649e-12
-4.13799e-13
2.31671e-09
-6.96064e-13
1.59925e-12
2.31758e-09
-4.37874e-12
1.76085e-12
2.31743e-09
1.03655e-12
-1.51485e-13
2.31913e-09
-2.69225e-12
8.94129e-13
2.31703e-09
2.50671e-13
-2.65911e-12
2.31632e-09
3.05424e-13
-8.28298e-13
2.31716e-09
5.59805e-13
-1.1557e-13
2.3174e-09
-1.65002e-13
-1.74796e-14
2.31759e-09
6.07164e-14
-1.23023e-13
2.3175e-09
-1.32467e-14
-6.61232e-15
2.317e-09
-5.92963e-13
-3.09737e-14
2.31651e-09
2.86947e-12
-9.23341e-13
2.3163e-09
9.84924e-14
1.81952e-13
2.31644e-09
4.79979e-13
-2.42058e-14
2.31721e-09
9.70859e-13
-2.77346e-13
2.31912e-09
-2.15036e-12
2.17684e-13
2.31903e-09
1.14629e-12
5.99429e-13
2.31874e-09
6.30067e-13
-1.96359e-13
2.31749e-09
1.17849e-13
9.07651e-13
2.31708e-09
9.18368e-13
8.84971e-14
2.31703e-09
3.8092e-13
-5.02045e-14
-1.84995e-12
9.45246e-13
2.07152e-07
-3.02774e-10
3.97096e-09
1.85913e-09
-2.12533e-07
-8.24598e-11
-1.55098e-07
7.55115e-10
-8.08386e-10
-2.96012e-09
1.58193e-07
-1.76745e-09
2.45184e-08
-5.34818e-10
3.43842e-09
5.51698e-10
3.7531e-10
-2.4103e-10
1.38313e-09
3.61903e-09
8.61986e-09
-8.66331e-09
-2.62206e-09
8.89574e-09
-1.30625e-08
-1.79983e-08
-2.76873e-09
-2.46159e-09
-1.282e-09
4.6418e-09
-6.45746e-09
-3.90398e-09
5.90548e-09
-1.74556e-09
-2.24825e-09
-1.08128e-09
-1.20673e-09
-4.75544e-10
1.92194e-08
-9.6517e-09
-2.99637e-09
2.12994e-08
-2.8379e-09
9.09702e-10