/*--------------------------------*- C++ -*----------------------------------*\
| =========                 |                                                 |
| \\      /  F ield         | OpenFOAM: The Open Source CFD Toolbox           |
|  \\    /   O peration     | Version:  5.0                                   |
|   \\  /    A nd           | Web:      www.OpenFOAM.org                      |
|    \\/     M anipulation  |                                                 |
\*---------------------------------------------------------------------------*/
FoamFile
{
    version     2.0;
    format      ascii;
    class       volScalarField;
    location    "1";
    object      rAU;
}
// * * * * * * * * * * * * * * * * * * * * * * * * * * * * * * * * * * * * * //

dimensions      [-1 3 1 0 0 0 0];

internalField   nonuniform List<scalar> 
9914
(
8.99949e-07
8.7511e-07
8.56259e-07
1.89079e-07
8.72226e-07
5.45489e-07
1.29269e-07
3.9242e-07
3.93663e-07
3.94697e-07
3.9573e-07
3.96763e-07
3.97795e-07
3.98826e-07
3.99857e-07
4.00886e-07
4.01916e-07
4.02944e-07
4.03972e-07
4.04999e-07
4.06025e-07
4.0705e-07
4.08075e-07
4.09099e-07
4.10122e-07
4.11145e-07
4.12167e-07
4.13188e-07
4.14208e-07
4.15228e-07
4.16246e-07
4.17265e-07
4.18282e-07
4.19298e-07
4.20314e-07
4.21328e-07
4.22342e-07
4.23356e-07
4.24368e-07
4.25379e-07
4.26391e-07
4.274e-07
4.28409e-07
4.29418e-07
4.30425e-07
4.31432e-07
4.32438e-07
4.33443e-07
4.34447e-07
4.36223e-07
3.75879e-07
1.48181e-07
8.63124e-07
7.7383e-07
8.19157e-07
6.64908e-07
1.2921e-07
3.92417e-07
3.93661e-07
3.94695e-07
3.9573e-07
3.96762e-07
3.97794e-07
3.98826e-07
3.99857e-07
4.00886e-07
4.01916e-07
4.02944e-07
4.03972e-07
4.04999e-07
4.06025e-07
4.0705e-07
4.08075e-07
4.09099e-07
4.10122e-07
4.11145e-07
4.12167e-07
4.13188e-07
4.14208e-07
4.15228e-07
4.16246e-07
4.17265e-07
4.18282e-07
4.19298e-07
4.20314e-07
4.21328e-07
4.22342e-07
4.23356e-07
4.24368e-07
4.25379e-07
4.26391e-07
4.274e-07
4.28409e-07
4.29418e-07
4.30425e-07
4.31432e-07
4.32438e-07
4.33443e-07
4.34447e-07
4.36223e-07
5.45567e-07
7.58599e-07
2.8918e-07
1.77807e-07
8.74915e-07
6.66399e-07
3.51632e-08
3.92413e-07
3.93659e-07
3.94695e-07
3.95729e-07
3.96762e-07
3.97794e-07
3.98826e-07
3.99857e-07
4.00886e-07
4.01916e-07
4.02944e-07
4.03971e-07
4.04999e-07
4.06025e-07
4.0705e-07
4.08075e-07
4.09099e-07
4.10122e-07
4.11145e-07
4.12167e-07
4.13188e-07
4.14208e-07
4.15228e-07
4.16246e-07
4.17265e-07
4.18282e-07
4.19298e-07
4.20314e-07
4.21328e-07
4.22342e-07
4.23356e-07
4.24368e-07
4.25379e-07
4.26391e-07
4.274e-07
4.28409e-07
4.29418e-07
4.30425e-07
4.31432e-07
4.32438e-07
4.33443e-07
4.34447e-07
4.36223e-07
7.95739e-07
8.80422e-07
8.52473e-07
8.79492e-07
7.93127e-07
6.83283e-07
5.27914e-08
3.9228e-07
3.93659e-07
3.94695e-07
3.95729e-07
3.96762e-07
3.97794e-07
3.98826e-07
3.99857e-07
4.00886e-07
4.01916e-07
4.02944e-07
4.03972e-07
4.04999e-07
4.06025e-07
4.0705e-07
4.08075e-07
4.09099e-07
4.10122e-07
4.11145e-07
4.12167e-07
4.13188e-07
4.14208e-07
4.15228e-07
4.16246e-07
4.17265e-07
4.18282e-07
4.19298e-07
4.20314e-07
4.21328e-07
4.22342e-07
4.23356e-07
4.24368e-07
4.25379e-07
4.26391e-07
4.274e-07
4.28409e-07
4.29418e-07
4.30425e-07
4.31432e-07
4.32438e-07
4.33443e-07
4.34447e-07
4.36223e-07
8.72095e-07
8.60703e-07
4.55425e-07
8.94086e-07
8.84866e-07
6.92466e-07
2.0447e-07
1.29779e-07
3.93451e-07
3.94695e-07
3.9573e-07
3.96762e-07
3.97794e-07
3.98826e-07
3.99857e-07
4.00886e-07
4.01916e-07
4.02944e-07
4.03972e-07
4.04999e-07
4.06025e-07
4.0705e-07
4.08075e-07
4.09099e-07
4.10122e-07
4.11145e-07
4.12167e-07
4.13188e-07
4.14208e-07
4.15228e-07
4.16246e-07
4.17265e-07
4.18282e-07
4.19298e-07
4.20314e-07
4.21328e-07
4.22342e-07
4.23356e-07
4.24368e-07
4.25379e-07
4.26391e-07
4.274e-07
4.28409e-07
4.29418e-07
4.30425e-07
4.31432e-07
4.32438e-07
4.33443e-07
4.34447e-07
4.36223e-07
8.38754e-07
7.85213e-07
6.2473e-07
6.77639e-07
8.74759e-07
6.92262e-07
3.84799e-07
1.29721e-07
3.93453e-07
3.94696e-07
3.9573e-07
3.96763e-07
3.97795e-07
3.98826e-07
3.99857e-07
4.00886e-07
4.01916e-07
4.02944e-07
4.03972e-07
4.04999e-07
4.06025e-07
4.0705e-07
4.08075e-07
4.09099e-07
4.10122e-07
4.11145e-07
4.12167e-07
4.13188e-07
4.14208e-07
4.15228e-07
4.16246e-07
4.17265e-07
4.18282e-07
4.19298e-07
4.20314e-07
4.21328e-07
4.22342e-07
4.23356e-07
4.24368e-07
4.25379e-07
4.26391e-07
4.274e-07
4.28409e-07
4.29418e-07
4.30425e-07
4.31432e-07
4.32438e-07
4.33443e-07
4.34447e-07
4.36223e-07
8.5941e-07
8.7911e-07
6.55125e-07
8.85723e-07
8.9233e-07
5.53611e-07
1.45706e-07
3.92287e-07
3.93664e-07
3.94697e-07
3.95731e-07
3.96763e-07
3.97795e-07
3.98826e-07
3.99857e-07
4.00886e-07
4.01916e-07
4.02944e-07
4.03972e-07
4.04999e-07
4.06025e-07
4.0705e-07
4.08075e-07
4.09099e-07
4.10122e-07
4.11145e-07
4.12167e-07
4.13188e-07
4.14208e-07
4.15228e-07
4.16246e-07
4.17265e-07
4.18282e-07
4.19298e-07
4.20314e-07
4.21328e-07
4.22342e-07
4.23356e-07
4.24368e-07
4.25379e-07
4.26391e-07
4.274e-07
4.28409e-07
4.29418e-07
4.30425e-07
4.31432e-07
4.32438e-07
4.33443e-07
4.34447e-07
4.36223e-07
8.84423e-07
5.04689e-07
7.25746e-07
8.02513e-07
2.69937e-07
6.75691e-07
4.43987e-08
3.92422e-07
3.93664e-07
3.94698e-07
3.95731e-07
3.96764e-07
3.97795e-07
3.98827e-07
3.99857e-07
4.00886e-07
4.01916e-07
4.02944e-07
4.03972e-07
4.04999e-07
4.06025e-07
4.0705e-07
4.08075e-07
4.09099e-07
4.10122e-07
4.11145e-07
4.12167e-07
4.13188e-07
4.14208e-07
4.15228e-07
4.16246e-07
4.17265e-07
4.18282e-07
4.19298e-07
4.20314e-07
4.21328e-07
4.22342e-07
4.23356e-07
4.24368e-07
4.25379e-07
4.26391e-07
4.274e-07
4.28409e-07
4.29418e-07
4.30425e-07
4.31432e-07
4.32438e-07
4.33443e-07
4.34447e-07
4.36223e-07
9.68234e-07
6.48978e-07
6.72752e-07
5.5723e-07
8.60855e-07
5.85902e-07
3.51644e-08
3.92423e-07
3.93665e-07
3.94698e-07
3.95732e-07
3.96764e-07
3.97795e-07
3.98827e-07
3.99857e-07
4.00886e-07
4.01916e-07
4.02944e-07
4.03972e-07
4.04999e-07
4.06025e-07
4.0705e-07
4.08075e-07
4.09099e-07
4.10122e-07
4.11145e-07
4.12167e-07
4.13188e-07
4.14208e-07
4.15228e-07
4.16246e-07
4.17265e-07
4.18282e-07
4.19298e-07
4.20314e-07
4.21328e-07
4.22342e-07
4.23356e-07
4.24368e-07
4.25379e-07
4.26391e-07
4.274e-07
4.28409e-07
4.29418e-07
4.30425e-07
4.31432e-07
4.32438e-07
4.33443e-07
4.34447e-07
4.36223e-07
9.3943e-07
8.5625e-07
5.55891e-07
7.14763e-07
7.83437e-07
6.93574e-07
1.29269e-07
3.92422e-07
3.93664e-07
3.94698e-07
3.95731e-07
3.96763e-07
3.97795e-07
3.98826e-07
3.99857e-07
4.00886e-07
4.01916e-07
4.02944e-07
4.03972e-07
4.04999e-07
4.06025e-07
4.0705e-07
4.08075e-07
4.09099e-07
4.10122e-07
4.11145e-07
4.12167e-07
4.13188e-07
4.14208e-07
4.15228e-07
4.16246e-07
4.17265e-07
4.18282e-07
4.19298e-07
4.20314e-07
4.21328e-07
4.22342e-07
4.23356e-07
4.24368e-07
4.25379e-07
4.26391e-07
4.274e-07
4.28409e-07
4.29418e-07
4.30425e-07
4.31432e-07
4.32438e-07
4.33443e-07
4.34447e-07
4.36223e-07
8.86779e-07
8.93259e-07
8.83916e-07
3.44741e-07
8.54642e-07
6.13219e-07
1.83343e-07
5.04898e-07
5.06386e-07
5.07527e-07
5.08665e-07
5.09803e-07
5.10939e-07
5.12072e-07
5.13205e-07
5.14336e-07
5.15464e-07
5.16592e-07
5.17718e-07
5.18841e-07
5.19964e-07
5.21085e-07
5.22204e-07
5.23322e-07
5.24438e-07
5.25552e-07
5.26665e-07
5.27777e-07
5.28885e-07
5.29993e-07
5.311e-07
5.32204e-07
5.33307e-07
5.34408e-07
5.35507e-07
5.36606e-07
5.37702e-07
5.38796e-07
5.39889e-07
5.40981e-07
5.4207e-07
5.43158e-07
5.44244e-07
5.45328e-07
5.46412e-07
5.47493e-07
5.48572e-07
5.4965e-07
5.50727e-07
5.53041e-07
8.52143e-07
1.70471e-07
7.22562e-07
2.4979e-07
6.94453e-07
7.12172e-07
1.83223e-07
5.04889e-07
5.0638e-07
5.07524e-07
5.08663e-07
5.09802e-07
5.10938e-07
5.12072e-07
5.13204e-07
5.14335e-07
5.15464e-07
5.16592e-07
5.17718e-07
5.18841e-07
5.19964e-07
5.21085e-07
5.22204e-07
5.23322e-07
5.24438e-07
5.25552e-07
5.26665e-07
5.27777e-07
5.28885e-07
5.29993e-07
5.311e-07
5.32204e-07
5.33307e-07
5.34408e-07
5.35507e-07
5.36606e-07
5.37702e-07
5.38796e-07
5.39889e-07
5.40981e-07
5.4207e-07
5.43158e-07
5.44244e-07
5.45328e-07
5.46411e-07
5.47493e-07
5.48572e-07
5.4965e-07
5.50727e-07
5.53041e-07
7.50277e-07
5.75808e-07
3.63512e-07
1.93534e-07
4.75708e-07
7.37535e-07
5.18041e-08
5.04877e-07
5.06376e-07
5.07521e-07
5.08662e-07
5.09801e-07
5.10938e-07
5.12071e-07
5.13204e-07
5.14335e-07
5.15464e-07
5.16592e-07
5.17718e-07
5.18841e-07
5.19964e-07
5.21085e-07
5.22204e-07
5.23322e-07
5.24438e-07
5.25552e-07
5.26665e-07
5.27777e-07
5.28885e-07
5.29993e-07
5.311e-07
5.32204e-07
5.33307e-07
5.34408e-07
5.35507e-07
5.36606e-07
5.37702e-07
5.38796e-07
5.39889e-07
5.40981e-07
5.4207e-07
5.43158e-07
5.44244e-07
5.45328e-07
5.46411e-07
5.47493e-07
5.48572e-07
5.4965e-07
5.50727e-07
5.53041e-07
1.10666e-07
5.05282e-07
6.96947e-07
7.94291e-07
6.32735e-07
7.05275e-07
7.80274e-08
5.04656e-07
5.06375e-07
5.07521e-07
5.08662e-07
5.09801e-07
5.10938e-07
5.12071e-07
5.13204e-07
5.14335e-07
5.15464e-07
5.16592e-07
5.17718e-07
5.18841e-07
5.19964e-07
5.21085e-07
5.22204e-07
5.23322e-07
5.24438e-07
5.25552e-07
5.26665e-07
5.27776e-07
5.28885e-07
5.29993e-07
5.311e-07
5.32204e-07
5.33307e-07
5.34408e-07
5.35507e-07
5.36606e-07
5.37702e-07
5.38796e-07
5.39889e-07
5.40981e-07
5.4207e-07
5.43158e-07
5.44244e-07
5.45328e-07
5.46412e-07
5.47493e-07
5.48572e-07
5.4965e-07
5.50727e-07
5.53041e-07
5.6694e-07
7.68815e-07
7.48038e-07
8.04431e-07
8.78578e-07
7.19552e-07
2.73763e-07
1.84062e-07
5.06031e-07
5.07523e-07
5.08663e-07
5.09801e-07
5.10938e-07
5.12071e-07
5.13204e-07
5.14336e-07
5.15464e-07
5.16592e-07
5.17718e-07
5.18841e-07
5.19964e-07
5.21085e-07
5.22204e-07
5.23322e-07
5.24438e-07
5.25552e-07
5.26665e-07
5.27776e-07
5.28885e-07
5.29993e-07
5.311e-07
5.32204e-07
5.33307e-07
5.34408e-07
5.35507e-07
5.36606e-07
5.37702e-07
5.38796e-07
5.39889e-07
5.40981e-07
5.4207e-07
5.43158e-07
5.44244e-07
5.45328e-07
5.46412e-07
5.47493e-07
5.48572e-07
5.4965e-07
5.50727e-07
5.53041e-07
7.31794e-07
2.37856e-07
7.42862e-07
8.98771e-07
6.13047e-07
7.16256e-07
4.41142e-07
1.83947e-07
5.06037e-07
5.07525e-07
5.08664e-07
5.09802e-07
5.10938e-07
5.12072e-07
5.13205e-07
5.14336e-07
5.15464e-07
5.16592e-07
5.17718e-07
5.18841e-07
5.19964e-07
5.21085e-07
5.22204e-07
5.23322e-07
5.24438e-07
5.25552e-07
5.26665e-07
5.27777e-07
5.28885e-07
5.29993e-07
5.311e-07
5.32204e-07
5.33307e-07
5.34408e-07
5.35507e-07
5.36606e-07
5.37702e-07
5.38796e-07
5.39889e-07
5.40981e-07
5.4207e-07
5.43158e-07
5.44244e-07
5.45328e-07
5.46412e-07
5.47493e-07
5.48572e-07
5.4965e-07
5.50727e-07
5.53041e-07
7.5278e-07
6.80732e-07
6.20975e-07
8.90217e-07
9.19853e-07
6.3571e-07
2.03797e-07
5.04676e-07
5.06388e-07
5.07528e-07
5.08666e-07
5.09803e-07
5.10939e-07
5.12072e-07
5.13205e-07
5.14336e-07
5.15464e-07
5.16592e-07
5.17718e-07
5.18841e-07
5.19964e-07
5.21085e-07
5.22204e-07
5.23322e-07
5.24438e-07
5.25552e-07
5.26665e-07
5.27777e-07
5.28885e-07
5.29993e-07
5.311e-07
5.32204e-07
5.33307e-07
5.34408e-07
5.35507e-07
5.36606e-07
5.37702e-07
5.38796e-07
5.39889e-07
5.40981e-07
5.4207e-07
5.43158e-07
5.44244e-07
5.45328e-07
5.46412e-07
5.47493e-07
5.48572e-07
5.4965e-07
5.50727e-07
5.53041e-07
9.08081e-07
7.82334e-07
3.83353e-07
7.36054e-07
6.89079e-07
7.23816e-07
6.55361e-08
5.04901e-07
5.0639e-07
5.0753e-07
5.08667e-07
5.09804e-07
5.1094e-07
5.12073e-07
5.13205e-07
5.14336e-07
5.15464e-07
5.16592e-07
5.17718e-07
5.18841e-07
5.19964e-07
5.21085e-07
5.22204e-07
5.23322e-07
5.24438e-07
5.25552e-07
5.26665e-07
5.27777e-07
5.28885e-07
5.29993e-07
5.311e-07
5.32204e-07
5.33307e-07
5.34408e-07
5.35507e-07
5.36606e-07
5.37702e-07
5.38796e-07
5.39889e-07
5.40981e-07
5.4207e-07
5.43158e-07
5.44244e-07
5.45328e-07
5.46412e-07
5.47493e-07
5.48572e-07
5.4965e-07
5.50727e-07
5.53041e-07
9.76407e-07
8.46208e-07
5.36436e-07
8.92469e-07
4.44596e-07
6.00504e-07
5.17948e-08
5.04906e-07
5.06393e-07
5.07531e-07
5.08668e-07
5.09805e-07
5.1094e-07
5.12073e-07
5.13205e-07
5.14336e-07
5.15464e-07
5.16592e-07
5.17718e-07
5.18841e-07
5.19964e-07
5.21085e-07
5.22204e-07
5.23322e-07
5.24438e-07
5.25552e-07
5.26665e-07
5.27777e-07
5.28885e-07
5.29993e-07
5.311e-07
5.32204e-07
5.33307e-07
5.34408e-07
5.35507e-07
5.36606e-07
5.37702e-07
5.38796e-07
5.39889e-07
5.40981e-07
5.4207e-07
5.43158e-07
5.44244e-07
5.45328e-07
5.46412e-07
5.47493e-07
5.48572e-07
5.4965e-07
5.50726e-07
5.53041e-07
9.25739e-07
3.56168e-07
6.12442e-07
8.45328e-07
2.36106e-07
7.66149e-07
1.83346e-07
5.04903e-07
5.0639e-07
5.0753e-07
5.08667e-07
5.09804e-07
5.1094e-07
5.12072e-07
5.13205e-07
5.14336e-07
5.15464e-07
5.16592e-07
5.17718e-07
5.18841e-07
5.19964e-07
5.21085e-07
5.22204e-07
5.23322e-07
5.24438e-07
5.25552e-07
5.26665e-07
5.27777e-07
5.28885e-07
5.29993e-07
5.311e-07
5.32204e-07
5.33307e-07
5.34408e-07
5.35507e-07
5.36606e-07
5.37702e-07
5.38796e-07
5.39889e-07
5.40981e-07
5.4207e-07
5.43158e-07
5.44244e-07
5.45328e-07
5.46412e-07
5.47493e-07
5.48572e-07
5.4965e-07
5.50726e-07
5.53041e-07
8.59792e-07
8.66693e-07
8.44201e-07
4.21431e-07
6.54751e-07
6.5228e-07
1.83347e-07
3.9242e-07
3.93663e-07
3.94697e-07
3.9573e-07
3.96763e-07
3.97795e-07
3.98826e-07
3.99857e-07
4.00886e-07
4.01916e-07
4.02944e-07
4.03972e-07
4.04999e-07
4.06025e-07
4.0705e-07
4.08075e-07
4.09099e-07
4.10122e-07
4.11145e-07
4.12167e-07
4.13188e-07
4.14208e-07
4.15228e-07
4.16246e-07
4.17265e-07
4.18282e-07
4.19298e-07
4.20314e-07
4.21328e-07
4.22342e-07
4.23356e-07
4.24368e-07
4.25379e-07
4.26391e-07
4.274e-07
4.28409e-07
4.29418e-07
4.30425e-07
4.31432e-07
4.32438e-07
4.33443e-07
4.34447e-07
4.36223e-07
9.23883e-07
8.50442e-07
2.80994e-07
6.91007e-07
6.55619e-07
7.26754e-07
1.83221e-07
3.92417e-07
3.93661e-07
3.94695e-07
3.9573e-07
3.96762e-07
3.97794e-07
3.98826e-07
3.99857e-07
4.00886e-07
4.01916e-07
4.02944e-07
4.03971e-07
4.04999e-07
4.06025e-07
4.0705e-07
4.08075e-07
4.09099e-07
4.10122e-07
4.11145e-07
4.12167e-07
4.13188e-07
4.14208e-07
4.15228e-07
4.16246e-07
4.17265e-07
4.18282e-07
4.19298e-07
4.20314e-07
4.21328e-07
4.22342e-07
4.23356e-07
4.24368e-07
4.25379e-07
4.26391e-07
4.274e-07
4.28409e-07
4.29418e-07
4.30425e-07
4.31432e-07
4.32438e-07
4.33443e-07
4.34447e-07
4.36223e-07
8.55024e-07
3.52058e-07
7.89508e-07
8.23688e-07
1.17417e-07
7.3428e-07
5.18047e-08
3.92413e-07
3.93659e-07
3.94695e-07
3.95729e-07
3.96762e-07
3.97794e-07
3.98826e-07
3.99857e-07
4.00886e-07
4.01916e-07
4.02944e-07
4.03971e-07
4.04999e-07
4.06025e-07
4.0705e-07
4.08075e-07
4.09099e-07
4.10122e-07
4.11145e-07
4.12167e-07
4.13188e-07
4.14208e-07
4.15228e-07
4.16246e-07
4.17265e-07
4.18282e-07
4.19298e-07
4.20314e-07
4.21328e-07
4.22342e-07
4.23356e-07
4.24368e-07
4.25379e-07
4.26391e-07
4.274e-07
4.28409e-07
4.29418e-07
4.30425e-07
4.31432e-07
4.32438e-07
4.33443e-07
4.34447e-07
4.36223e-07
9.18184e-07
6.47122e-07
5.72848e-07
3.5722e-07
4.34969e-07
7.53025e-07
7.78419e-08
3.9228e-07
3.93659e-07
3.94695e-07
3.95729e-07
3.96762e-07
3.97794e-07
3.98826e-07
3.99857e-07
4.00886e-07
4.01916e-07
4.02944e-07
4.03971e-07
4.04999e-07
4.06025e-07
4.0705e-07
4.08075e-07
4.09099e-07
4.10122e-07
4.11145e-07
4.12167e-07
4.13188e-07
4.14208e-07
4.15228e-07
4.16246e-07
4.17265e-07
4.18282e-07
4.19298e-07
4.20314e-07
4.21328e-07
4.22342e-07
4.23356e-07
4.24368e-07
4.25379e-07
4.26391e-07
4.274e-07
4.28409e-07
4.29418e-07
4.30425e-07
4.31432e-07
4.32438e-07
4.33443e-07
4.34447e-07
4.36223e-07
9.00431e-07
7.61941e-07
6.86367e-07
6.70295e-07
9.1033e-07
7.2295e-07
2.76913e-07
1.84068e-07
3.93451e-07
3.94695e-07
3.9573e-07
3.96762e-07
3.97794e-07
3.98826e-07
3.99856e-07
4.00886e-07
4.01916e-07
4.02944e-07
4.03971e-07
4.04999e-07
4.06025e-07
4.0705e-07
4.08075e-07
4.09099e-07
4.10122e-07
4.11145e-07
4.12167e-07
4.13188e-07
4.14208e-07
4.15228e-07
4.16246e-07
4.17265e-07
4.18282e-07
4.19298e-07
4.20314e-07
4.21328e-07
4.22342e-07
4.23356e-07
4.24368e-07
4.25379e-07
4.26391e-07
4.274e-07
4.28409e-07
4.29418e-07
4.30425e-07
4.31432e-07
4.32438e-07
4.33443e-07
4.34447e-07
4.36223e-07
8.36397e-07
8.90554e-07
2.76592e-07
6.97126e-07
3.92427e-07
7.1866e-07
4.47646e-07
1.83952e-07
3.93453e-07
3.94696e-07
3.9573e-07
3.96763e-07
3.97795e-07
3.98826e-07
3.99857e-07
4.00886e-07
4.01916e-07
4.02944e-07
4.03971e-07
4.04999e-07
4.06025e-07
4.0705e-07
4.08075e-07
4.09099e-07
4.10122e-07
4.11145e-07
4.12167e-07
4.13188e-07
4.14208e-07
4.15228e-07
4.16246e-07
4.17265e-07
4.18282e-07
4.19298e-07
4.20314e-07
4.21328e-07
4.22342e-07
4.23356e-07
4.24368e-07
4.25379e-07
4.26391e-07
4.274e-07
4.28409e-07
4.29418e-07
4.30425e-07
4.31432e-07
4.32438e-07
4.33443e-07
4.34447e-07
4.36223e-07
6.11017e-07
5.15639e-07
6.53347e-07
8.6512e-07
8.62986e-07
7.02906e-07
2.02518e-07
3.92287e-07
3.93664e-07
3.94697e-07
3.95731e-07
3.96763e-07
3.97795e-07
3.98826e-07
3.99857e-07
4.00886e-07
4.01916e-07
4.02944e-07
4.03971e-07
4.04999e-07
4.06025e-07
4.0705e-07
4.08075e-07
4.09099e-07
4.10122e-07
4.11145e-07
4.12167e-07
4.13188e-07
4.14208e-07
4.15228e-07
4.16246e-07
4.17265e-07
4.18282e-07
4.19298e-07
4.20314e-07
4.21328e-07
4.22342e-07
4.23356e-07
4.24368e-07
4.25379e-07
4.26391e-07
4.274e-07
4.28409e-07
4.29418e-07
4.30425e-07
4.31432e-07
4.32438e-07
4.33443e-07
4.34447e-07
4.36223e-07
9.01413e-07
7.94674e-07
9.20992e-07
7.20849e-07
5.34893e-07
7.34965e-07
6.57554e-08
3.92422e-07
3.93664e-07
3.94698e-07
3.95731e-07
3.96763e-07
3.97795e-07
3.98827e-07
3.99857e-07
4.00886e-07
4.01916e-07
4.02944e-07
4.03971e-07
4.04999e-07
4.06025e-07
4.0705e-07
4.08075e-07
4.09099e-07
4.10122e-07
4.11145e-07
4.12167e-07
4.13188e-07
4.14208e-07
4.15228e-07
4.16246e-07
4.17265e-07
4.18282e-07
4.19298e-07
4.20314e-07
4.21328e-07
4.22342e-07
4.23356e-07
4.24368e-07
4.25379e-07
4.26391e-07
4.274e-07
4.28409e-07
4.29418e-07
4.30425e-07
4.31432e-07
4.32438e-07
4.33443e-07
4.34447e-07
4.36222e-07
9.67069e-07
9.024e-07
5.77654e-07
8.31308e-07
5.91273e-07
6.91334e-07
5.17954e-08
3.92423e-07
3.93665e-07
3.94698e-07
3.95731e-07
3.96764e-07
3.97795e-07
3.98827e-07
3.99857e-07
4.00886e-07
4.01916e-07
4.02944e-07
4.03971e-07
4.04999e-07
4.06025e-07
4.0705e-07
4.08075e-07
4.09099e-07
4.10122e-07
4.11145e-07
4.12167e-07
4.13188e-07
4.14208e-07
4.15228e-07
4.16246e-07
4.17265e-07
4.18282e-07
4.19298e-07
4.20314e-07
4.21328e-07
4.22342e-07
4.23356e-07
4.24368e-07
4.25379e-07
4.26391e-07
4.274e-07
4.28409e-07
4.29418e-07
4.30425e-07
4.31432e-07
4.32438e-07
4.33443e-07
4.34446e-07
4.36223e-07
8.67853e-07
4.18156e-07
6.59065e-07
3.00368e-07
2.68382e-07
7.6064e-07
1.8335e-07
3.92422e-07
3.93664e-07
3.94698e-07
3.95731e-07
3.96763e-07
3.97795e-07
3.98826e-07
3.99857e-07
4.00886e-07
4.01916e-07
4.02944e-07
4.03972e-07
4.04999e-07
4.06025e-07
4.0705e-07
4.08075e-07
4.09099e-07
4.10122e-07
4.11145e-07
4.12167e-07
4.13188e-07
4.14208e-07
4.15228e-07
4.16246e-07
4.17265e-07
4.18282e-07
4.19298e-07
4.20314e-07
4.21328e-07
4.22342e-07
4.23356e-07
4.24368e-07
4.25379e-07
4.26391e-07
4.274e-07
4.28409e-07
4.29418e-07
4.30425e-07
4.31432e-07
4.32438e-07
4.33443e-07
4.34447e-07
4.36223e-07
3.51425e-08
6.85584e-07
3.51452e-08
6.21855e-07
5.17848e-08
7.55816e-07
5.1792e-08
3.5151e-08
6.42461e-07
4.05149e-08
7.05976e-07
5.18022e-08
6.83294e-07
5.98979e-08
4.84008e-08
6.83508e-07
2.28431e-07
7.14455e-07
7.19955e-08
7.59983e-07
3.06592e-07
6.88034e-07
6.88864e-07
6.97092e-07
7.03941e-07
7.36311e-07
7.40846e-07
7.66851e-07
6.97221e-07
6.44354e-07
6.9921e-07
7.27196e-07
7.71091e-07
7.41418e-07
7.73668e-07
6.99307e-07
6.68264e-07
6.98617e-07
7.20937e-07
7.7363e-07
7.33559e-07
7.69199e-07
6.97896e-07
6.62492e-07
6.90064e-07
6.48032e-07
7.72848e-07
6.65575e-07
7.34983e-07
3.16169e-07
6.66712e-07
5.26782e-08
7.40372e-07
4.02339e-07
6.7502e-07
7.71122e-08
4.145e-08
6.89163e-07
3.51496e-08
6.49574e-07
6.10718e-08
7.41438e-07
5.18012e-08
3.51448e-08
1.9188e-07
3.51426e-08
7.67687e-07
5.17901e-08
2.52938e-07
5.17854e-08
5.17844e-08
7.50925e-07
5.17925e-08
6.45886e-07
5.17841e-08
7.50342e-07
5.17929e-08
5.18024e-08
6.89178e-07
5.99286e-08
7.11661e-07
5.18033e-08
7.41626e-07
5.96952e-08
7.22444e-08
7.64086e-07
3.07186e-07
7.16532e-07
7.23319e-08
7.49119e-07
3.07981e-07
7.28609e-07
6.68503e-07
7.65136e-07
7.58051e-07
7.28241e-07
6.98838e-07
7.69569e-07
7.70459e-07
7.39501e-07
7.72665e-07
7.08417e-07
7.73736e-07
7.62776e-07
7.73907e-07
7.73136e-07
7.55149e-07
7.68536e-07
7.431e-07
7.7227e-07
7.64096e-07
7.71937e-07
7.71317e-07
6.62881e-07
7.26055e-07
6.59554e-07
7.71295e-07
6.50916e-07
7.27288e-07
4.00823e-07
6.64469e-07
7.71486e-08
7.21264e-07
3.93383e-07
6.86497e-07
7.7127e-08
6.09326e-08
7.31714e-07
5.18008e-08
7.14266e-07
6.09243e-08
7.67674e-07
5.1803e-08
5.17901e-08
2.46354e-07
5.17851e-08
7.55278e-07
5.17909e-08
2.41171e-07
5.17841e-08
5.17843e-08
7.58381e-07
5.17928e-08
5.30523e-07
3.51424e-08
6.87677e-07
3.51455e-08
5.18028e-08
7.38116e-07
5.95179e-08
4.38875e-07
3.51507e-08
6.73667e-07
4.01049e-08
7.21991e-08
7.39404e-07
3.07742e-07
6.8405e-07
4.89064e-08
5.49298e-07
2.28161e-07
7.34117e-07
7.23674e-07
7.68238e-07
6.8515e-07
6.86852e-07
6.34889e-07
6.97256e-07
7.71555e-07
7.14068e-07
7.72185e-07
6.84268e-07
6.97919e-07
6.86876e-07
6.99281e-07
7.734e-07
7.43898e-07
7.72745e-07
6.80182e-07
6.99539e-07
6.85457e-07
6.9913e-07
7.71516e-07
6.73304e-07
7.36047e-07
6.72595e-07
6.97429e-07
6.39841e-07
6.89604e-07
3.90637e-07
7.07421e-07
7.70824e-08
6.90637e-07
3.05907e-07
6.78653e-07
5.26321e-08
6.10158e-08
7.61224e-07
5.18023e-08
2.75964e-07
4.09396e-08
6.85941e-07
3.51501e-08
5.17908e-08
2.49382e-07
5.17839e-08
6.88525e-07
3.51447e-08
1.80219e-07
3.51424e-08
6.90032e-07
8.54355e-07
6.78888e-07
8.76549e-07
7.47901e-07
7.52545e-07
6.96625e-07
8.75312e-08
5.06065e-08
6.89222e-07
6.37689e-07
7.62366e-07
6.01534e-08
7.4067e-08
1.29658e-07
1.29269e-07
1.29658e-07
1.83347e-07
1.84016e-07
1.83349e-07
1.84017e-07
6.06982e-07
3.64769e-07
5.96864e-07
4.40936e-07
6.63513e-07
7.35177e-07
6.36904e-07
6.9268e-07
4.24811e-07
6.29945e-07
7.32437e-07
4.91066e-07
4.80347e-07
6.74829e-07
1.29657e-07
3.51636e-08
1.29566e-07
1.8323e-07
1.84014e-07
5.17925e-08
1.83828e-07
8.414e-07
8.4979e-07
8.22451e-07
7.6512e-07
8.29348e-07
3.53664e-07
7.00816e-07
7.54656e-07
6.90964e-07
6.74237e-07
6.97965e-07
7.52794e-07
7.34405e-07
6.8811e-07
1.29565e-07
4.2102e-08
1.29565e-07
5.18037e-08
1.83826e-07
6.22811e-08
1.83825e-07
7.08034e-07
8.9447e-07
8.88377e-07
5.58569e-07
4.87554e-07
8.84855e-07
7.67041e-07
5.7821e-07
6.77534e-07
6.18569e-07
7.42704e-07
7.5836e-07
7.03997e-07
4.94034e-07
1.29566e-07
1.42322e-07
1.29521e-07
7.7836e-08
1.83829e-07
1.97677e-07
1.8374e-07
8.81861e-07
8.78335e-07
6.4182e-07
9.09323e-07
9.00973e-07
8.95765e-07
8.13304e-07
7.31226e-07
6.96228e-07
6.30804e-07
7.54183e-07
7.697e-07
6.71583e-07
6.89912e-07
3.52933e-08
3.66471e-07
3.52761e-08
2.73061e-07
5.2016e-08
4.30772e-07
5.19787e-08
8.8554e-07
8.54314e-07
8.69416e-07
7.91742e-07
9.19623e-07
7.39377e-07
9.23296e-07
7.67606e-07
6.98205e-07
6.93744e-07
7.56032e-07
7.69384e-07
7.73529e-07
6.96277e-07
3.52761e-08
2.05476e-07
3.52933e-08
4.44972e-07
5.19788e-08
2.72454e-07
5.20164e-08
8.77796e-07
8.77235e-07
8.72811e-07
8.69933e-07
8.88037e-07
8.79177e-07
9.21318e-07
7.7192e-07
6.39801e-07
6.97864e-07
6.39262e-07
7.21e-07
7.68589e-07
6.95134e-07
1.29523e-07
5.35176e-08
1.29568e-07
2.02619e-07
1.83748e-07
7.88107e-08
1.83837e-07
3.16114e-07
6.55814e-07
4.03405e-07
5.75636e-07
4.40325e-07
7.30502e-07
6.79682e-07
7.15358e-07
6.93403e-07
4.27316e-07
7.61894e-07
7.61017e-07
4.94189e-07
6.28429e-07
1.29567e-07
3.51694e-08
1.29567e-07
6.54718e-08
1.83833e-07
5.18126e-08
1.83834e-07
8.83595e-07
7.8958e-07
8.33566e-07
7.73356e-07
8.01244e-07
4.61786e-07
6.4563e-07
7.55273e-07
6.84994e-07
6.79139e-07
6.59488e-07
7.6679e-07
7.35247e-07
6.87515e-07
1.29567e-07
1.29211e-07
1.29658e-07
5.17951e-08
1.83835e-07
1.83232e-07
1.84018e-07
6.74506e-07
8.85695e-07
6.92479e-07
2.2644e-07
7.59525e-07
8.38644e-07
7.47393e-07
1.12334e-07
1.2061e-07
6.87982e-07
7.67598e-07
1.6968e-07
7.40662e-07
7.84481e-08
1.29658e-07
1.29269e-07
1.29658e-07
1.8335e-07
1.84018e-07
1.83347e-07
1.84016e-07
7.53029e-07
3.0774e-07
6.6884e-07
6.81256e-07
7.55705e-07
3.44558e-07
7.02348e-07
8.75883e-08
7.46616e-08
7.59344e-07
6.18218e-07
8.76023e-08
7.55286e-07
7.45375e-08
1.84011e-07
1.83346e-07
1.84012e-07
1.83343e-07
1.84011e-07
1.83346e-07
1.84012e-07
5.11803e-07
6.13906e-07
5.45051e-07
5.47689e-07
1.04204e-07
4.96447e-07
6.05746e-07
5.1981e-07
4.52994e-07
2.50045e-07
7.15662e-07
5.14458e-07
4.26224e-07
2.89557e-07
1.84009e-07
5.17922e-08
1.83822e-07
1.83218e-07
1.84009e-07
5.17908e-08
1.83822e-07
6.28341e-07
2.663e-07
6.65257e-07
1.27296e-07
5.93223e-07
3.51788e-07
5.97926e-07
7.51306e-07
7.53848e-07
6.89423e-07
7.24568e-07
7.48166e-07
7.55453e-07
7.17066e-07
1.83819e-07
6.23329e-08
1.83819e-07
5.18052e-08
1.83819e-07
6.23041e-08
1.83819e-07
4.50262e-07
8.84861e-07
5.07681e-07
4.84384e-07
7.10348e-07
8.68604e-07
6.84681e-07
5.6051e-07
7.54726e-07
6.68174e-07
7.10898e-07
5.65531e-07
7.52155e-07
6.28845e-07
1.83823e-07
1.9698e-07
1.83735e-07
7.8026e-08
1.83823e-07
1.97574e-07
1.83735e-07
9.20011e-07
8.65458e-07
8.61366e-07
9.0528e-07
8.09982e-07
8.45242e-07
8.91994e-07
6.80387e-07
7.42927e-07
6.62518e-07
7.14308e-07
6.88656e-07
7.40043e-07
5.92634e-07
5.20154e-08
4.27702e-07
5.19781e-08
2.7666e-07
5.20155e-08
4.26588e-07
5.1978e-08
8.34147e-07
5.87861e-07
8.7222e-07
3.52513e-07
5.25532e-07
6.87694e-07
7.56282e-07
7.58487e-07
7.60667e-07
7.70964e-07
7.01856e-07
7.5652e-07
7.59124e-07
7.73374e-07
5.19782e-08
2.7246e-07
5.20158e-08
4.41066e-07
5.19781e-08
2.73046e-07
5.20159e-08
8.66735e-07
8.99915e-07
8.46579e-07
8.70457e-07
9.08133e-07
9.12764e-07
8.3041e-07
7.62815e-07
7.09015e-07
7.22251e-07
6.34707e-07
7.62269e-07
7.1717e-07
7.29464e-07
1.83743e-07
7.90215e-08
1.83833e-07
2.01851e-07
1.83744e-07
7.90409e-08
1.83833e-07
4.6063e-07
6.81231e-07
5.8124e-07
5.11026e-07
7.44621e-07
7.49798e-07
7.09823e-07
6.41327e-07
6.72515e-07
5.25768e-07
6.99687e-07
6.66602e-07
6.85887e-07
5.41261e-07
1.83829e-07
5.18128e-08
1.83829e-07
6.57077e-08
1.83829e-07
5.18128e-08
1.83829e-07
6.08483e-07
3.01332e-07
4.74611e-07
5.09393e-07
6.17727e-07
6.677e-07
6.32834e-07
7.50023e-07
7.49691e-07
6.8136e-07
6.13603e-07
7.59316e-07
7.48872e-07
6.22763e-07
1.83831e-07
1.83228e-07
1.84014e-07
5.17951e-08
1.83831e-07
1.83228e-07
1.84014e-07
7.06506e-07
4.47983e-07
7.28179e-07
2.25219e-07
6.77479e-07
4.6805e-07
7.30663e-07
1.128e-07
1.71452e-07
7.42563e-07
7.55249e-07
1.1299e-07
1.71605e-07
7.3991e-07
1.84014e-07
1.83342e-07
1.84011e-07
1.83346e-07
1.84014e-07
1.83343e-07
1.84011e-07
7.62721e-07
5.11503e-07
6.48243e-07
6.56011e-07
6.97442e-07
8.58877e-07
4.35385e-07
8.75376e-08
7.3769e-08
7.56475e-07
6.41319e-07
8.75822e-08
7.57699e-07
7.38473e-08
1.84016e-07
1.83349e-07
1.84016e-07
1.29269e-07
1.29658e-07
1.29269e-07
1.29658e-07
1.03696e-07
4.73019e-07
6.36966e-07
6.54267e-07
1.16417e-07
3.79444e-07
6.50826e-07
7.34999e-07
4.16063e-07
6.47959e-07
6.74087e-07
6.93114e-07
4.19802e-07
7.13355e-07
1.84014e-07
5.17904e-08
1.83828e-07
1.29209e-07
1.29657e-07
3.5163e-08
1.29566e-07
6.14984e-07
5.34332e-07
3.48932e-07
2.39778e-07
6.35034e-07
6.73381e-07
2.12528e-07
7.38167e-07
7.41025e-07
7.21931e-07
7.43728e-07
7.43213e-07
7.4905e-07
7.25661e-07
1.83826e-07
6.22332e-08
1.83825e-07
3.51665e-08
1.29565e-07
4.21093e-08
1.29565e-07
5.98067e-07
8.90228e-07
4.29472e-07
7.70109e-07
7.60665e-07
8.88087e-07
8.49992e-07
5.50924e-07
7.61231e-07
4.44495e-07
7.51399e-07
5.46858e-07
7.6658e-07
3.6353e-07
1.83829e-07
1.96901e-07
1.83741e-07
5.27876e-08
1.29566e-07
1.41601e-07
1.29521e-07
9.09794e-07
8.94713e-07
8.39207e-07
8.85363e-07
8.63495e-07
8.87639e-07
8.63157e-07
7.59254e-07
7.68417e-07
6.27998e-07
7.52921e-07
7.41331e-07
7.68863e-07
6.61794e-07
5.2016e-08
4.30185e-07
5.19786e-08
2.03959e-07
3.52934e-08
3.64402e-07
3.52761e-08
5.85643e-07
6.08767e-07
5.73504e-07
3.46043e-07
5.83984e-07
6.99237e-07
6.43835e-07
7.55804e-07
7.66884e-07
7.19072e-07
7.2741e-07
7.59637e-07
7.70979e-07
7.05474e-07
5.19786e-08
2.72636e-07
5.20164e-08
3.86871e-07
3.52761e-08
2.04243e-07
3.52934e-08
9.03826e-07
8.70625e-07
4.64206e-07
7.35058e-07
3.07716e-07
8.67314e-07
6.57619e-07
7.60696e-07
7.48054e-07
7.5169e-07
7.24726e-07
7.59701e-07
7.6039e-07
7.56883e-07
1.83747e-07
7.88459e-08
1.83837e-07
1.45464e-07
1.29523e-07
5.35473e-08
1.29568e-07
5.19879e-07
5.70901e-07
5.91443e-07
6.84362e-07
6.86978e-07
6.65411e-07
6.82478e-07
6.7008e-07
6.62254e-07
4.95913e-07
7.43769e-07
7.20912e-07
6.55668e-07
4.24589e-07
1.83833e-07
5.18125e-08
1.83834e-07
4.45066e-08
1.29567e-07
3.51665e-08
1.29567e-07
6.69632e-07
6.31736e-07
6.80323e-07
6.59679e-07
4.2406e-07
6.59264e-07
6.59408e-07
6.07694e-07
7.63127e-07
2.98046e-07
5.06187e-07
6.43494e-07
7.4418e-07
2.81672e-07
1.83835e-07
1.83232e-07
1.84018e-07
3.51638e-08
1.29568e-07
1.29211e-07
1.29658e-07
7.4823e-07
5.74507e-07
7.28816e-07
7.94963e-07
6.83637e-07
6.10135e-07
6.78338e-07
1.15243e-07
1.72557e-07
7.60815e-07
7.61022e-07
1.14368e-07
1.72253e-07
7.60762e-07
1.84018e-07
1.83346e-07
1.84016e-07
1.29269e-07
1.29658e-07
1.29269e-07
1.29658e-07
5.17441e-08
3.50972e-08
3.51426e-08
5.17915e-08
5.17918e-08
3.5111e-08
5.17125e-08
1.2453e-07
6.88481e-07
1.39893e-07
7.50667e-07
7.58337e-07
1.95532e-07
8.71462e-08
5.26425e-08
3.51433e-08
3.74427e-08
5.17976e-08
5.17937e-08
5.51813e-08
3.56805e-08
8.75398e-08
6.34587e-07
7.44305e-08
7.61041e-07
7.62257e-07
8.75805e-08
7.41536e-08
5.17523e-08
5.17908e-08
5.17062e-08
5.17854e-08
5.17912e-08
5.17531e-08
5.17119e-08
1.24014e-07
7.49658e-07
7.54954e-07
1.93216e-07
7.59674e-07
1.94618e-07
1.2353e-07
5.2722e-08
5.17971e-08
5.17879e-08
5.55303e-08
5.17935e-08
5.53229e-08
5.27723e-08
9.14694e-08
4.41194e-08
3.52342e-08
5.18085e-08
6.46938e-08
5.19635e-08
6.28184e-08
7.46498e-07
6.52384e-07
6.88752e-07
7.02269e-07
6.55243e-07
7.50545e-07
6.83226e-07
1.07656e-07
3.56878e-08
1.37289e-07
5.96943e-08
5.26622e-08
1.93579e-07
7.4747e-08
5.99727e-07
6.80335e-07
4.52718e-07
2.44154e-07
4.51552e-07
3.08037e-07
5.36796e-07
9.40831e-08
5.181e-08
6.49704e-08
5.19556e-08
6.50969e-08
5.19535e-08
9.77346e-08
7.38446e-07
6.98602e-07
4.24783e-07
7.30847e-07
5.62612e-07
7.40618e-07
7.07425e-07
1.07148e-07
5.98047e-08
5.26492e-08
1.96788e-07
5.27009e-08
1.96093e-07
1.07834e-07
7.6062e-07
4.11451e-07
7.48098e-08
7.12568e-08
5.02673e-07
1.07972e-07
6.89445e-07
7.66582e-07
6.9842e-07
6.98736e-07
7.53514e-07