/*--------------------------------*- C++ -*----------------------------------*\
| =========                 |                                                 |
| \\      /  F ield         | OpenFOAM: The Open Source CFD Toolbox           |
|  \\    /   O peration     | Version:  5.0                                   |
|   \\  /    A nd           | Web:      www.OpenFOAM.org                      |
|    \\/     M anipulation  |                                                 |
\*---------------------------------------------------------------------------*/
FoamFile
{
    version     2.0;
    format      ascii;
    class       volVectorField;
    location    "1";
    object      U;
}
// * * * * * * * * * * * * * * * * * * * * * * * * * * * * * * * * * * * * * //

dimensions      [0 1 -1 0 0 0 0];

internalField   nonuniform List<vector> 
9914
(
(0.00367493 -0.00648564 -0.000504499)
(-0.00728466 -0.00512495 0.000514439)
(-0.00907911 0.0341238 -8.95941e-05)
(-0.000352514 0.00044841 0.000310538)
(-0.00644387 0.00826025 0.000965442)
(0.00243754 0.000347892 1.99572e-05)
(0.000430617 1.30461e-05 -1.33222e-06)
(0.00076231 -6.80813e-05 -1.84453e-06)
(0.000775083 -5.12516e-05 -1.08316e-07)
(0.000796384 -3.22227e-05 1.30372e-07)
(0.000804044 -2.06342e-05 1.17143e-07)
(0.000808272 -1.3133e-05 8.48775e-08)
(0.000810517 -8.25617e-06 3.73277e-09)
(0.000810588 -4.82213e-06 5.24141e-08)
(0.00080956 -3.06895e-06 4.87706e-08)
(0.000808659 -2.08819e-06 3.78753e-08)
(0.000807653 -1.17982e-06 5.0683e-08)
(0.000806201 -3.28253e-07 4.68772e-08)
(0.000804251 -1.53342e-07 7.28819e-08)
(0.000802754 -3.16643e-07 5.52365e-08)
(0.000801626 -3.42147e-07 5.7167e-08)
(0.000800253 -2.04047e-07 4.61781e-08)
(0.000798626 -2.1161e-07 4.85952e-08)
(0.000797039 -2.22631e-07 5.65791e-08)
(0.000795528 -2.7995e-08 6.40403e-08)
(0.000794126 1.81335e-07 9.04927e-08)
(0.000792803 2.24053e-07 2.65901e-08)
(0.000791486 8.28834e-08 4.99407e-08)
(0.000789773 1.23829e-07 7.75464e-08)
(0.000788233 -2.12027e-07 3.94684e-08)
(0.000786707 -4.88222e-07 8.03143e-08)
(0.000785112 -5.74638e-07 4.45138e-08)
(0.000783732 -4.39407e-07 8.04514e-08)
(0.000782481 -1.52664e-07 5.04712e-08)
(0.000781179 7.85556e-08 5.49499e-08)
(0.000779568 1.09955e-07 7.06506e-08)
(0.00077792 5.52583e-08 4.26352e-08)
(0.000776194 2.28342e-07 3.52216e-08)
(0.000775386 5.714e-07 9.80572e-08)
(0.000774397 1.9269e-07 8.52023e-08)
(0.000772632 9.77994e-09 2.68912e-08)
(0.000771225 -1.77557e-08 7.56925e-08)
(0.000770203 -6.403e-07 7.96957e-08)
(0.000768399 -5.19328e-07 3.41847e-09)
(0.000766569 -2.62068e-07 3.6021e-08)
(0.000765272 -1.17248e-07 2.88598e-08)
(0.000764139 7.31909e-08 5.73028e-08)
(0.000763095 -9.28485e-08 1.69441e-07)
(0.000761362 -3.79704e-07 4.39225e-08)
(0.000759756 -3.31257e-07 1.38992e-08)
(0.00987777 -0.0230057 -0.000469959)
(0.00122045 -0.00184242 -0.000291482)
(0.0136604 0.00527005 0.000255757)
(0.0140285 -0.00511244 -0.00237242)
(-0.0538764 -0.0114639 0.00382669)
(0.0367407 -0.0102751 -0.0015515)
(0.000406185 -0.00020474 3.62272e-07)
(0.000856244 -0.000128402 -1.27095e-06)
(0.000814304 -7.82307e-05 -2.44603e-07)
(0.000824929 -4.48526e-05 1.93148e-07)
(0.000821128 -2.66119e-05 5.06802e-08)
(0.000818928 -1.58094e-05 5.97271e-08)
(0.000816433 -9.56552e-06 5.19506e-08)
(0.000814164 -6.15976e-06 4.59127e-08)
(0.00081204 -3.79985e-06 4.87946e-08)
(0.000810269 -2.4794e-06 1.39821e-08)
(0.000808777 -1.64002e-06 4.85197e-08)
(0.000806978 -1.52743e-06 6.02395e-08)
(0.000804712 -1.00201e-06 5.27945e-08)
(0.000802945 -4.38465e-07 2.69091e-08)
(0.0008016 -1.01446e-07 8.73718e-08)
(0.000800053 -1.26994e-07 7.23877e-08)
(0.00079848 2.27165e-08 1.15171e-07)
(0.00079732 1.64205e-07 4.14423e-08)
(0.000796101 6.02238e-08 -1.7803e-08)
(0.000794354 4.16665e-08 1.62881e-08)
(0.000792585 1.87292e-08 6.57888e-08)
(0.000791075 -1.19551e-07 4.65768e-08)
(0.000789495 -4.23916e-07 8.76011e-08)
(0.000787844 -2.98162e-07 8.23474e-08)
(0.00078657 -2.54036e-07 -1.20417e-07)
(0.000785194 -1.03559e-07 2.07278e-08)
(0.000784053 3.44706e-07 1.2778e-07)
(0.000782973 3.67311e-07 1.05813e-07)
(0.000781229 1.00761e-07 4.52423e-08)
(0.000779581 1.19826e-07 3.5076e-08)
(0.000778368 1.65719e-07 6.75106e-08)
(0.000777211 3.8328e-07 5.88658e-10)
(0.000775267 6.90438e-07 5.69375e-08)
(0.000773384 3.22132e-07 2.35782e-08)
(0.000772204 1.38292e-07 3.99302e-08)
(0.000770653 -2.8676e-08 6.55596e-08)
(0.000769297 -2.69407e-07 7.75725e-08)
(0.000768649 -7.02978e-07 8.65002e-08)
(0.00076736 -2.07131e-07 5.63847e-08)
(0.000765708 -2.28087e-08 5.24995e-08)
(0.00076422 3.33908e-07 4.24126e-08)
(0.000762627 8.31705e-08 -4.26713e-08)
(0.000761272 -8.1209e-08 3.87183e-08)
(0.000760261 -1.51047e-07 1.08934e-07)
(0.000401334 -0.0100839 -0.000811084)
(-0.00132534 0.0145254 0.00270689)
(-0.00441238 0.00963061 -0.0015552)
(-0.022773 -0.0135179 -0.00603841)
(0.0111877 0.000582749 0.00175334)
(-0.0247958 -0.02503 -0.00232572)
(0.000580963 -5.44301e-05 1.38677e-05)
(0.0010257 -0.000101007 -1.74021e-06)
(0.00087996 -5.0708e-05 -6.5961e-07)
(0.000861371 -3.03368e-05 7.79071e-08)
(0.000840618 -1.74054e-05 7.13661e-08)
(0.000829739 -1.03674e-05 3.35611e-08)
(0.000822674 -6.34937e-06 3.92109e-08)
(0.000817854 -3.94979e-06 4.66832e-08)
(0.000814198 -2.47171e-06 4.9198e-08)
(0.000811382 -1.56912e-06 4.93068e-08)
(0.000808859 -1.16321e-06 5.54035e-08)
(0.00080701 -1.04788e-06 1.05839e-07)
(0.00080562 -1.05337e-06 1.33458e-07)
(0.000803883 -5.17445e-07 3.89394e-08)
(0.000802016 -3.69576e-07 -2.60065e-09)
(0.000800407 -1.14762e-07 4.74813e-08)
(0.000798988 7.04911e-08 1.98862e-08)
(0.000797083 1.97498e-07 -7.27645e-09)
(0.000795373 4.75597e-08 4.72598e-08)
(0.000794072 -7.33383e-08 9.43537e-08)
(0.000792601 -1.30851e-07 5.85277e-08)
(0.000790935 -4.99587e-08 5.87339e-08)
(0.000789553 -2.533e-08 6.53423e-09)
(0.000788449 4.22236e-07 2.08461e-08)
(0.000786953 4.64765e-07 2.33056e-07)
(0.000785861 4.90846e-07 6.6289e-08)
(0.000784319 4.68457e-07 -5.72674e-10)
(0.000782173 2.69398e-07 1.49081e-08)
(0.000780867 -1.52153e-09 9.3922e-08)
(0.000779648 1.07756e-07 5.31554e-08)
(0.000778247 7.76952e-08 1.28262e-07)
(0.000776846 -1.20876e-08 5.09621e-08)
(0.000775306 -1.92399e-07 2.56658e-08)
(0.000773704 -2.52062e-08 6.67933e-08)
(0.000772193 9.57284e-08 2.8814e-08)
(0.000770716 1.76272e-07 6.3044e-08)
(0.000769364 5.39291e-07 8.81982e-08)
(0.000768481 6.07895e-07 1.39149e-07)
(0.000767423 2.37312e-07 8.34401e-08)
(0.000765949 2.42305e-07 4.7726e-08)
(0.000764272 2.70023e-07 1.02599e-07)
(0.000762576 4.24442e-07 7.48324e-08)
(0.000761074 2.35382e-07 5.85219e-08)
(0.000760044 1.19521e-07 1.11393e-07)
(-0.00682109 -0.00953441 0.00669957)
(0.00999257 -0.0203315 0.00300245)
(-0.0115274 -0.0111237 0.00171564)
(0.0104895 0.00585307 -0.000217883)
(-0.00859024 0.0116644 0.000310525)
(-0.000229428 0.00979762 -0.000345808)
(0.000592393 -0.000145798 8.21867e-05)
(0.000993355 -1.00335e-05 -2.88232e-06)
(0.000903097 2.75882e-05 -3.67128e-07)
(0.000866831 4.23591e-06 -6.6712e-08)
(0.000846251 2.61718e-06 1.14612e-08)
(0.000832842 6.30713e-07 2.23393e-08)
(0.000824512 -1.29453e-07 4.04031e-08)
(0.000819046 -1.49594e-07 4.51993e-08)
(0.000815037 2.74956e-08 4.30808e-08)
(0.000811919 6.00017e-08 4.58733e-08)
(0.000809438 -2.53104e-08 4.63722e-08)
(0.000807123 1.79239e-07 3.0411e-08)
(0.000805381 1.82757e-08 3.76197e-08)
(0.000803804 -2.42048e-07 3.12813e-08)
(0.000802105 -2.00645e-07 1.09539e-07)
(0.000800603 -1.7984e-07 5.01908e-08)
(0.000798869 -2.43969e-07 -2.17039e-08)
(0.000797289 -2.04141e-07 6.81808e-08)
(0.000795761 4.33456e-08 2.80967e-08)
(0.000794131 1.69424e-07 3.03198e-08)
(0.000792614 2.89081e-07 6.29314e-08)
(0.000791207 4.31292e-07 5.75086e-08)
(0.000790082 7.21593e-07 3.17745e-08)
(0.000788453 5.53689e-07 3.83517e-08)
(0.00078665 3.47234e-07 8.99578e-08)
(0.000785193 4.76644e-07 7.94038e-09)
(0.000783772 -1.71995e-08 4.33045e-08)
(0.000782383 -1.83721e-08 4.89282e-08)
(0.000781025 1.96211e-07 4.15582e-08)
(0.000779679 7.61817e-08 4.73945e-08)
(0.000778218 1.20961e-08 1.28616e-07)
(0.000776873 -9.9293e-08 4.66228e-08)
(0.000775251 -2.33744e-07 1.65027e-08)
(0.000773744 -2.11573e-07 3.8747e-08)
(0.000772455 -2.52202e-08 5.00057e-08)
(0.000771205 1.22312e-07 7.30741e-08)
(0.000769833 3.05531e-07 1.00084e-07)
(0.000768266 5.5889e-07 -9.8324e-08)
(0.000766899 2.35332e-07 4.43603e-08)
(0.000765746 1.11273e-07 7.03118e-08)
(0.000764445 7.46857e-08 6.84263e-08)
(0.000762581 3.33574e-07 4.91302e-08)
(0.000760887 1.833e-07 4.93753e-08)
(0.000759817 2.30661e-07 1.73493e-07)
(-0.00138406 0.00416197 0.00118687)
(-0.00278899 0.00477846 0.00169159)
(0.00514188 -0.00440914 9.06557e-05)
(0.0385153 -0.0107266 -6.58304e-05)
(0.00157666 -0.00300838 0.000205788)
(0.00559961 -0.00220461 0.000172444)
(0.00139674 0.000314632 -1.25695e-05)
(0.00051576 5.26691e-05 -1.05585e-06)
(0.000916976 6.26179e-05 -9.48467e-07)
(0.000830088 2.70937e-05 -5.50158e-07)
(0.000836072 1.65636e-05 1.86584e-07)
(0.000826285 9.06492e-06 6.85282e-08)
(0.00082169 5.67247e-06 8.71705e-08)
(0.000818046 3.20374e-06 5.15666e-08)
(0.000814457 1.67453e-06 2.59548e-08)
(0.000811313 9.18914e-07 1.16588e-08)
(0.000809005 6.19616e-07 4.9827e-08)
(0.000807063 4.01422e-07 4.96799e-08)
(0.000805092 3.66327e-07 1.69346e-07)
(0.000803611 3.40034e-07 5.91799e-08)
(0.000802095 1.6157e-07 6.5752e-08)
(0.000800355 1.48322e-07 2.30454e-08)
(0.00079896 3.60703e-08 9.18305e-08)
(0.000797444 1.027e-07 9.97938e-08)
(0.00079584 3.71352e-08 7.35778e-08)
(0.000794378 -5.17253e-08 6.65272e-08)
(0.000792925 1.72131e-07 6.70388e-08)
(0.00079147 3.15654e-07 8.88436e-09)
(0.000789699 4.06263e-07 1.94481e-08)
(0.000787974 2.49308e-07 6.20201e-08)
(0.00078685 1.0856e-07 7.7184e-09)
(0.0007854 -1.22355e-07 2.06467e-08)
(0.000783697 1.37331e-07 7.17629e-08)
(0.000782438 9.4698e-08 4.8963e-08)
(0.000780984 1.05055e-07 6.91717e-08)
(0.000779417 1.39314e-08 4.52207e-08)
(0.000778028 -2.90925e-08 4.98039e-08)
(0.00077654 -8.91912e-08 8.92584e-08)
(0.000775167 -1.67032e-07 4.13265e-08)
(0.000773967 -1.07495e-07 -1.05108e-07)
(0.00077261 5.51699e-08 8.16542e-08)
(0.000771127 1.42606e-07 4.05057e-07)
(0.000769906 4.40064e-08 1.38799e-08)
(0.000768389 3.0831e-08 4.80355e-08)
(0.000766861 -4.71943e-08 4.85974e-08)
(0.000765747 -1.9686e-07 4.88891e-08)
(0.000764549 -5.30655e-07 1.20438e-08)
(0.000762711 -8.97443e-07 4.38244e-08)
(0.000760939 -2.92755e-07 4.45912e-08)
(0.000759529 3.79506e-08 5.73155e-08)
(-0.0152863 0.0154233 0.00109598)
(0.00951275 -0.0119885 -0.00140582)
(-0.0448419 -0.0423225 -0.00131746)
(0.0138789 -0.00253139 0.000710051)
(-0.00398282 -0.00463381 -0.00181358)
(-0.00245817 0.0038551 0.000467624)
(0.00129486 7.41664e-05 3.46665e-05)
(0.000471082 5.45024e-05 -1.02461e-06)
(0.000880798 3.25945e-05 -9.64781e-07)
(0.000809043 2.99193e-05 -4.51319e-07)
(0.000823546 1.8498e-05 2.01841e-07)
(0.000819126 1.21818e-05 4.11844e-08)
(0.000817127 8.01151e-06 7.46317e-08)
(0.000814014 4.90889e-06 4.94593e-08)
(0.000812161 2.82061e-06 8.53892e-08)
(0.000810589 1.66653e-06 7.60956e-08)
(0.000808785 1.06513e-06 5.08623e-08)
(0.000806802 6.05655e-07 3.80996e-08)
(0.0008053 5.16756e-07 2.42724e-08)
(0.000803546 5.11883e-07 1.03085e-07)
(0.000801864 4.17819e-07 -3.85491e-08)
(0.000800446 3.27249e-07 3.8093e-07)
(0.000798811 3.2417e-07 5.87973e-08)
(0.000797291 1.77629e-07 1.78178e-08)
(0.000795568 2.28292e-07 6.78227e-08)
(0.0007943 2.19888e-07 1.0819e-08)
(0.000793072 -3.09963e-09 4.90594e-08)
(0.000791497 -1.80679e-07 -1.21974e-08)
(0.000789997 -5.36694e-08 3.29946e-08)
(0.000788078 -3.36839e-07 -1.03163e-07)
(0.000786184 -2.28419e-07 2.97279e-08)
(0.000785227 -2.07535e-07 1.90956e-07)
(0.000784043 -1.86082e-07 1.49561e-08)
(0.000782341 -1.02395e-07 -1.7842e-07)
(0.000780924 -1.85494e-07 5.23187e-08)
(0.000779511 -3.65854e-08 4.64007e-08)
(0.000778089 1.47335e-08 5.37399e-08)
(0.000776702 4.86011e-08 4.18544e-08)
(0.00077523 1.82315e-07 6.45108e-08)
(0.000774023 1.73892e-07 5.98401e-08)
(0.000772767 1.61335e-07 3.95229e-08)
(0.00077119 3.33138e-07 2.64728e-07)
(0.000769693 2.14635e-07 3.54407e-08)
(0.000768153 -2.65766e-08 5.59767e-08)
(0.000766616 -7.12522e-08 3.38781e-08)
(0.000765145 -2.13999e-07 4.5358e-08)
(0.000763573 -5.40086e-07 -6.82643e-08)
(0.000762883 -7.83884e-07 7.10242e-08)
(0.000762058 -5.38891e-07 1.11652e-07)
(0.000760136 -3.33893e-07 1.22796e-07)
(0.0302832 0.0195379 0.000509926)
(-0.0301688 -0.0454669 0.00219873)
(0.0105869 0.00145166 -0.00554919)
(-0.00798674 -0.012051 7.85244e-05)
(-0.00589856 0.00643623 0.000599262)
(0.000369367 -0.00130348 5.77126e-05)
(0.000933731 -0.000147997 -1.53873e-05)
(0.000820507 7.22042e-05 -2.53335e-06)
(0.000817672 2.33858e-05 -1.29283e-08)
(0.000812316 2.71658e-05 3.27656e-08)
(0.000813715 1.70969e-05 7.22184e-08)
(0.000813057 1.19097e-05 5.49012e-08)
(0.000812522 7.5032e-06 5.37592e-08)
(0.000811508 4.9869e-06 5.42802e-08)
(0.000810374 3.39137e-06 5.68528e-08)
(0.000809102 2.19234e-06 5.45217e-08)
(0.000807669 1.27111e-06 5.53801e-08)
(0.000806371 7.15583e-07 7.59896e-08)
(0.000804969 3.88977e-07 1.54762e-07)
(0.000803482 2.21823e-07 6.64007e-08)
(0.00080186 3.28887e-07 4.79955e-08)
(0.000800235 1.59078e-07 5.0387e-08)
(0.000798771 2.78234e-07 -2.38728e-08)
(0.000797323 1.50403e-07 5.83797e-08)
(0.000795892 3.37567e-07 1.64381e-09)
(0.000794088 2.32178e-07 9.69519e-08)
(0.000792425 -6.66008e-08 6.51443e-08)
(0.000791408 -2.31699e-07 7.04152e-08)
(0.000789507 -7.90125e-07 -5.57322e-08)
(0.000787759 -7.89429e-07 8.21065e-08)
(0.000787015 -4.22838e-07 1.9208e-08)
(0.000785457 -2.56026e-09 1.02863e-07)
(0.000783831 1.27066e-08 3.82674e-08)
(0.000782442 -5.0437e-08 7.08912e-08)
(0.000781068 -6.03525e-09 3.52178e-08)
(0.000779669 6.70112e-08 6.59852e-08)
(0.000778135 4.6873e-08 5.38702e-08)
(0.000776749 9.56759e-08 5.4473e-08)
(0.000775323 8.55995e-08 3.68641e-08)
(0.000773939 2.48864e-07 -5.94642e-08)
(0.000772807 -1.11067e-08 4.14292e-08)
(0.000771192 -2.78143e-07 -1.94096e-08)
(0.000769455 -2.10435e-07 4.91744e-08)
(0.000768031 -2.71289e-07 5.49297e-08)
(0.000766628 -1.14805e-07 1.15728e-08)
(0.000765164 -2.87205e-08 4.94792e-08)
(0.00076384 -3.30476e-08 -7.03815e-08)
(0.000762718 1.44828e-07 4.37435e-08)
(0.000761512 -2.69676e-07 2.40175e-09)
(0.000760619 -3.03241e-07 5.7753e-10)
(-0.00464155 -0.0159884 0.000873436)
(-0.0065601 0.01234 -0.00125505)
(-0.0145709 0.00630825 -0.00597582)
(-0.00967435 -0.017804 0.000755685)
(0.00145061 0.000548257 0.000722142)
(-0.0143955 -0.00349634 -0.000250962)
(0.000393542 0.000173268 3.73743e-05)
(0.000817859 6.44823e-05 -1.90659e-06)
(0.000791723 3.53873e-05 -1.82906e-07)
(0.000800828 2.31598e-05 7.82148e-08)
(0.000804304 1.42127e-05 4.86964e-08)
(0.000807022 9.05817e-06 5.34584e-08)
(0.000808399 5.70686e-06 5.59714e-08)
(0.000808826 3.59531e-06 5.25347e-08)
(0.000808636 2.31828e-06 5.13979e-08)
(0.000807918 1.44901e-06 5.35453e-08)
(0.000806925 1.09134e-06 1.31808e-07)
(0.000805691 8.85077e-07 7.21357e-08)
(0.000804679 6.85548e-07 2.17021e-08)
(0.000803467 4.08377e-07 4.06488e-08)
(0.000801783 1.4322e-07 4.798e-08)
(0.00080038 1.38472e-07 5.46934e-08)
(0.000798799 -9.87458e-08 2.59091e-08)
(0.000797363 -1.10585e-07 4.7249e-08)
(0.000795669 -5.39598e-07 1.21845e-07)
(0.000793794 -3.70954e-07 -8.94298e-08)
(0.000792492 -1.42047e-07 -1.96932e-07)
(0.000790596 -1.63119e-07 5.99317e-08)
(0.000789305 -3.45372e-07 1.57225e-07)
(0.000788544 2.26013e-07 6.8984e-08)
(0.000787173 3.33038e-07 9.13831e-08)
(0.000785775 2.34375e-08 3.91925e-08)
(0.000783984 -1.92093e-08 4.11725e-08)
(0.000782319 1.00274e-07 4.75396e-08)
(0.000781071 3.28247e-08 5.14221e-08)
(0.000779578 -1.28208e-07 3.69931e-08)
(0.000778125 -1.21755e-07 5.4161e-08)
(0.00077675 -1.31018e-07 3.72949e-08)
(0.00077542 -3.62581e-08 4.22714e-08)
(0.000773901 -2.40121e-08 5.37966e-08)
(0.000772108 -1.03741e-07 2.24709e-08)
(0.000770942 -1.65943e-07 5.73382e-08)
(0.000769704 -1.26188e-07 3.01762e-08)
(0.000768275 -9.2562e-08 4.64985e-08)
(0.000766921 -6.44417e-08 6.63919e-08)
(0.000765248 6.94879e-08 4.64215e-08)
(0.000763791 4.40867e-07 4.23677e-08)
(0.000762588 3.14215e-07 5.37838e-08)
(0.000761506 1.64383e-07 5.82443e-08)
(0.000760852 -5.51976e-08 -6.06609e-08)
(0.00281174 0.00322855 0.000351044)
(0.00212426 -0.00686602 0.000448784)
(0.000983842 -0.00750425 0.00122527)
(-0.00280532 0.00430885 -0.0028883)
(-0.00179769 -0.0106566 0.000312959)
(0.00293574 -0.00558426 -0.000524537)
(0.000155989 -1.74018e-06 2.61278e-06)
(0.000745368 2.68744e-05 -2.07181e-06)
(0.000765483 1.59277e-05 1.12415e-07)
(0.000785611 8.30152e-06 1.09431e-07)
(0.000795942 4.37878e-06 6.93047e-08)
(0.000802337 2.52572e-06 6.27697e-08)
(0.000805638 1.42983e-06 5.61629e-08)
(0.000807239 5.8126e-07 5.87347e-08)
(0.00080767 4.74745e-07 5.84015e-08)
(0.000807555 5.46044e-07 1.28604e-07)
(0.000806955 4.52302e-07 8.06639e-08)
(0.000805857 2.59127e-07 3.41086e-09)
(0.000804369 4.51407e-07 7.63983e-08)
(0.000802802 2.72231e-07 3.34498e-08)
(0.000801522 2.21266e-07 4.89053e-08)
(0.000799933 1.14083e-08 3.04706e-08)
(0.000798461 -1.73186e-07 -1.03729e-08)
(0.000796775 -2.2797e-07 5.42907e-08)
(0.00079557 -3.94267e-07 -2.72454e-08)
(0.000794589 -2.8845e-07 5.88679e-08)
(0.000792687 -1.98732e-07 1.67969e-08)
(0.000791156 -1.1688e-07 7.42703e-08)
(0.000789994 2.85364e-07 7.98777e-08)
(0.000788606 3.29912e-07 -2.8781e-08)
(0.000786761 3.37735e-07 2.71744e-09)
(0.000785015 2.08708e-07 9.18762e-08)
(0.000783926 -1.79087e-07 -1.77128e-07)
(0.000782506 -1.60996e-07 5.98253e-08)
(0.000780783 -1.76054e-07 4.54594e-08)
(0.000779476 -2.98654e-07 7.99325e-08)
(0.000778133 -1.50734e-07 7.79897e-08)
(0.000776857 -2.22739e-07 5.58546e-08)
(0.000775457 -2.97568e-07 8.267e-08)
(0.000773855 -3.08853e-07 4.00334e-08)
(0.000772631 -1.49572e-07 5.80784e-08)
(0.000771166 -2.2979e-08 2.05528e-08)
(0.000769548 2.67438e-07 3.99059e-08)
(0.00076811 1.51891e-07 4.11162e-08)
(0.000766831 1.86755e-07 7.05473e-08)
(0.000765794 1.00523e-07 5.16095e-08)
(0.000764144 2.20489e-07 1.88413e-08)
(0.000762369 4.21022e-07 3.73569e-08)
(0.000761049 7.06753e-07 -7.16372e-08)
(0.000760479 4.77027e-07 8.83259e-08)
(-0.00388457 0.00118173 0.0012661)
(0.0125123 0.00806126 0.000837555)
(-0.00869572 -0.0107521 0.00244193)
(-0.00290454 -0.000108733 -6.52932e-05)
(-0.000322685 0.000185385 -0.0017466)
(-0.000968108 0.00280597 6.76537e-05)
(0.000321919 -4.18801e-06 -9.58295e-07)
(0.000736195 -2.04147e-05 -2.46802e-06)
(0.000768007 -1.72167e-05 1.4301e-09)
(0.000786304 -1.24613e-05 6.86678e-08)
(0.000797044 -8.71641e-06 -7.17623e-08)
(0.000803316 -6.06145e-06 2.36643e-07)
(0.000805959 -4.02343e-06 6.08608e-08)
(0.000807628 -2.19485e-06 8.07421e-08)
(0.00080859 -1.36655e-06 4.9021e-08)
(0.000807888 -6.96139e-07 4.94171e-08)
(0.000806565 -4.9114e-07 4.86599e-08)
(0.000805689 -1.4254e-07 6.99531e-08)
(0.000804693 -2.18575e-07 6.13137e-08)
(0.000803178 -2.39746e-07 1.61795e-08)
(0.000801457 -2.58948e-07 2.80985e-08)
(0.000799888 -1.58886e-07 4.97324e-08)
(0.000798502 -4.17125e-09 5.67437e-08)
(0.00079709 -2.71066e-08 4.60621e-08)
(0.000795597 2.07737e-07 6.77868e-08)
(0.000794042 -6.00237e-08 6.75351e-08)
(0.00079271 -1.62664e-07 9.69995e-08)
(0.000791203 3.20578e-08 4.95695e-08)
(0.000789863 1.01365e-07 5.29308e-08)
(0.000788607 -1.44701e-07 5.44752e-08)
(0.000787018 -1.97817e-07 8.89845e-08)
(0.000785128 -1.88988e-07 1.96068e-08)
(0.000783522 -1.22216e-07 -6.40376e-08)
(0.000782324 -3.46818e-07 3.65791e-08)
(0.000780901 -1.44302e-07 3.36994e-07)
(0.000779611 -3.12141e-08 4.52103e-08)
(0.000778222 -7.07942e-08 1.4068e-08)
(0.000776568 -2.0157e-07 5.12165e-08)
(0.000775315 -6.02752e-07 5.46511e-08)
(0.000774089 -2.60439e-07 5.86751e-08)
(0.000772468 -1.70666e-07 5.93299e-08)
(0.000771464 -2.60831e-07 8.44835e-08)
(0.000769922 -1.24571e-07 3.55523e-08)
(0.000768173 2.63227e-07 2.80001e-08)
(0.000766855 1.07494e-07 1.88468e-08)
(0.000765288 5.60466e-08 4.50206e-08)
(0.000764188 -3.09376e-07 2.60964e-08)
(0.000763191 5.29249e-08 3.61446e-08)
(0.000761562 2.72417e-07 -3.01627e-08)
(0.000759375 3.09476e-07 6.55728e-08)
(0.0107246 0.00158398 -0.00232887)
(-0.00171997 0.00133123 0.0010647)
(-0.00484669 -0.00327024 0.00104419)
(0.0140161 0.00166706 -0.000390692)
(-0.00819568 -0.0149028 0.00164181)
(0.000911399 -0.00895868 -7.12941e-05)
(0.00124866 4.95776e-05 -1.05637e-06)
(0.00125907 -0.000114922 2.97191e-07)
(0.00128483 -8.63772e-05 3.17036e-07)
(0.00132286 -5.43349e-05 3.43391e-07)
(0.00133706 -3.47573e-05 3.63338e-07)
(0.00134489 -2.21507e-05 3.43123e-07)
(0.00134911 -1.39225e-05 2.61005e-07)
(0.0013495 -8.1354e-06 2.3333e-07)
(0.00134792 -5.17059e-06 3.46305e-07)
(0.0013465 -3.49988e-06 3.72575e-07)
(0.00134484 -2.00385e-06 3.38783e-07)
(0.00134251 -6.39332e-07 2.95241e-07)
(0.00133931 -3.69664e-07 3.56321e-07)
(0.00133682 -5.74753e-07 2.8919e-07)
(0.00133495 -5.44376e-07 2.98286e-07)
(0.00133258 -2.44668e-07 3.74326e-07)
(0.0013299 -2.79741e-07 3.16634e-07)
(0.00132733 -3.02067e-07 3.0799e-07)
(0.00132479 5.20907e-08 3.36941e-07)
(0.00132241 4.10909e-07 3.58513e-07)
(0.00132022 4.38323e-07 2.3798e-07)
(0.00131809 1.45618e-07 3.34006e-07)
(0.00131516 2.01924e-07 4.50915e-07)
(0.0013125 -4.24565e-07 3.70735e-07)
(0.00131001 -9.28906e-07 3.73692e-07)
(0.00130729 -9.87781e-07 2.3281e-07)
(0.00130505 -7.28088e-07 3.39866e-07)
(0.00130308 -2.49259e-07 2.78932e-07)
(0.00130086 1.42116e-07 3.27858e-07)
(0.00129814 2.43091e-07 3.36883e-07)
(0.00129535 1.11698e-07 3.11506e-07)
(0.00129249 3.88793e-07 2.40384e-07)
(0.00129104 9.65225e-07 3.06801e-07)
(0.00128939 3.98624e-07 3.56812e-07)
(0.00128653 5.96725e-08 2.84794e-07)
(0.00128413 -3.09171e-09 3.54228e-07)
(0.00128245 -9.71204e-07 3.65762e-07)
(0.00127948 -7.85621e-07 2.1114e-07)
(0.00127648 -4.29756e-07 3.16654e-07)
(0.00127429 -2.39809e-07 3.27195e-07)
(0.0012723 5.74017e-08 2.95838e-07)
(0.00127054 -2.29245e-07 4.60584e-07)
(0.00126762 -6.08109e-07 3.44707e-07)
(0.00126488 -5.31924e-07 2.33176e-07)
(0.00397663 0.000422876 -0.00459582)
(0.0128418 -0.0107998 0.00662847)
(0.0112462 0.00338671 -0.00716155)
(0.0115534 0.0235738 0.0139177)
(0.013011 -0.00649779 -0.0152967)
(0.0269521 0.0112624 -0.0064706)
(0.00115509 -0.000638107 -1.91608e-05)
(0.00142117 -0.000221257 3.55637e-07)
(0.00135325 -0.000134016 3.3742e-07)
(0.00137195 -7.6832e-05 4.62797e-07)
(0.00136635 -4.55344e-05 3.42836e-07)
(0.00136309 -2.70332e-05 3.41548e-07)
(0.0013592 -1.63383e-05 3.40878e-07)
(0.00135558 -1.04996e-05 3.385e-07)
(0.00135212 -6.46987e-06 3.37767e-07)
(0.00134922 -4.20702e-06 2.30487e-07)
(0.00134674 -2.74938e-06 3.35586e-07)
(0.00134374 -2.47406e-06 3.91847e-07)
(0.0013401 -1.59881e-06 3.43667e-07)
(0.00133722 -6.91282e-07 3.09069e-07)
(0.00133494 -1.40829e-07 3.77348e-07)
(0.00133232 -1.56396e-07 3.47735e-07)
(0.00132967 1.93113e-07 3.62109e-07)
(0.0013278 3.80272e-07 3.10387e-07)
(0.00132573 1.81841e-07 9.8824e-08)
(0.00132275 1.3534e-07 3.20345e-07)
(0.0013198 8.3786e-08 3.5965e-07)
(0.00131731 -2.05052e-07 3.29043e-07)
(0.00131464 -8.13107e-07 3.59366e-07)
(0.00131184 -5.51343e-07 3.39166e-07)
(0.00130981 -4.67358e-07 6.14706e-08)
(0.00130761 -2.22023e-07 2.71872e-07)
(0.00130562 6.31882e-07 4.80411e-07)
(0.0013038 6.58417e-07 4.44862e-07)
(0.00130095 2.01503e-07 3.35937e-07)
(0.00129816 1.94606e-07 3.14423e-07)
(0.00129606 2.92555e-07 3.46399e-07)
(0.00129411 6.35308e-07 6.25065e-08)
(0.00129093 1.13675e-06 3.94771e-07)
(0.00128782 6.06812e-07 3.03127e-07)
(0.00128578 2.36507e-07 1.97474e-07)
(0.00128319 -9.78963e-08 3.64836e-07)
(0.00128095 -5.00908e-07 3.05621e-07)
(0.00127981 -1.14142e-06 3.93021e-07)
(0.00127763 -3.49965e-07 3.3942e-07)
(0.00127493 -1.19319e-07 2.76527e-07)
(0.00127248 4.97746e-07 2.92548e-07)
(0.00126985 8.48129e-08 2.06585e-07)
(0.00126754 -2.03877e-07 2.67857e-07)
(0.00126581 -2.81811e-07 4.05106e-07)
(-0.0183876 0.0124209 0.00141886)
(-0.0234639 0.00100606 -0.00748861)
(0.00645152 0.00937589 -0.0165467)
(-0.0474556 -0.0349292 0.0259453)
(-0.0205719 -0.0169138 -0.0576205)
(0.0353022 0.00428592 0.00351703)
(0.0023377 -0.000288421 5.21586e-05)
(0.00170879 -0.000175599 4.76495e-07)
(0.00146588 -8.86169e-05 5.41862e-07)
(0.00143421 -5.29543e-05 3.61236e-07)
(0.00139974 -3.0445e-05 5.91669e-07)
(0.00138164 -1.81542e-05 3.47672e-07)
(0.00136993 -1.11018e-05 3.42959e-07)
(0.00136193 -6.89111e-06 3.41296e-07)
(0.00135585 -4.2955e-06 3.39481e-07)
(0.00135118 -2.70411e-06 3.37024e-07)
(0.00134703 -1.96119e-06 3.39699e-07)
(0.00134396 -1.70891e-06 3.03484e-07)
(0.00134155 -1.66265e-06 3.85381e-07)
(0.00133865 -8.3859e-07 3.19112e-07)
(0.00133562 -5.80236e-07 2.17162e-07)
(0.001333 -1.81557e-07 3.30844e-07)
(0.00133056 1.69081e-07 3.00975e-07)
(0.00132731 3.71093e-07 -1.65038e-07)
(0.00132448 6.54437e-08 3.40951e-07)
(0.00132229 -9.52083e-08 3.83485e-07)
(0.0013198 -1.72128e-07 3.43584e-07)
(0.00131697 -2.62181e-08 3.20046e-07)
(0.00131473 -5.30739e-09 2.27227e-07)
(0.00131294 7.80652e-07 2.3748e-07)
(0.00131042 9.17862e-07 5.17021e-07)
(0.00130866 8.99842e-07 4.22853e-07)
(0.00130615 7.86803e-07 2.18316e-07)
(0.00130253 4.9094e-07 1.87854e-07)
(0.00130027 1.33468e-08 3.71433e-07)
(0.00129825 1.54093e-07 3.36009e-07)
(0.0012959 1.41322e-07 3.64815e-07)
(0.00129354 7.1569e-11 3.4888e-07)
(0.001291 -2.69771e-07 3.0674e-07)
(0.00128826 -3.88781e-08 3.50143e-07)
(0.00128565 1.10446e-07 9.72603e-08)
(0.00128321 2.81262e-07 3.52948e-07)
(0.00128115 9.44648e-07 5.41632e-07)
(0.00127967 1.00434e-06 3.49669e-07)
(0.00127776 4.83569e-07 3.57929e-07)
(0.00127535 4.63044e-07 3.09635e-07)
(0.00127256 4.81945e-07 4.48433e-07)
(0.00126967 6.83243e-07 3.47657e-07)
(0.00126717 3.595e-07 3.30684e-07)
(0.00126549 1.94398e-07 4.90837e-07)
(0.00181633 0.0145125 -0.166967)
(0.00296347 -0.0221967 0.107052)
(-0.00793824 0.00626993 0.000663227)
(-0.00163772 0.00900615 0.00167471)
(0.0288605 0.0585842 -0.0214598)
(0.00421264 -0.00329983 0.00452862)
(0.0018256 0.000352581 8.65114e-05)
(0.00165915 -2.2076e-05 3.44858e-07)
(0.00150715 4.22907e-05 3.30363e-07)
(0.00144508 5.01215e-06 2.62153e-07)
(0.00141009 3.06949e-06 3.41464e-07)
(0.00138742 3.06432e-07 3.46874e-07)
(0.00137337 -6.75357e-07 3.43467e-07)
(0.00136414 -5.19146e-07 3.41688e-07)
(0.00135739 -1.112e-07 3.3943e-07)
(0.00135216 1.61454e-08 3.37927e-07)
(0.00134799 -9.1121e-08 3.37668e-07)
(0.00134412 2.53962e-07 3.59037e-07)
(0.00134119 -2.50518e-08 3.28187e-07)
(0.00133858 -4.34375e-07 3.01323e-07)
(0.00133577 -3.51543e-07 4.22999e-07)
(0.00133325 -3.20558e-07 3.32394e-07)
(0.00133036 -4.619e-07 1.33931e-07)
(0.00132767 -3.52327e-07 3.79394e-07)
(0.00132514 3.99963e-08 2.75276e-07)
(0.00132245 2.62981e-07 2.70634e-07)
(0.00131988 4.8516e-07 3.97356e-07)
(0.00131752 7.7252e-07 4.0003e-07)
(0.00131565 1.33626e-06 3.47081e-07)
(0.00131298 1.04893e-06 3.03556e-07)
(0.00130995 7.40714e-07 3.92262e-07)
(0.00130743 9.51847e-07 2.9071e-07)
(0.0013051 8.668e-08 3.20266e-07)
(0.00130283 -3.88596e-09 3.26063e-07)
(0.00130052 3.15127e-07 2.52494e-07)
(0.00129831 1.19742e-07 3.13308e-07)
(0.00129587 3.38403e-09 4.13867e-07)
(0.00129359 -1.77268e-07 3.34259e-07)
(0.00129088 -4.61526e-07 2.01766e-07)
(0.00128829 -4.45061e-07 3.27493e-07)
(0.00128618 -5.9669e-08 2.59242e-07)
(0.00128422 2.87774e-07 3.57987e-07)
(0.00128185 6.04533e-07 5.633e-07)
(0.00127922 9.24297e-07 -4.61346e-08)
(0.00127694 3.72684e-07 2.75574e-07)
(0.00127492 1.77013e-07 4.73681e-07)
(0.00127275 7.8597e-08 3.58998e-07)
(0.00126969 4.82974e-07 2.94732e-07)
(0.00126692 3.08504e-07 3.72e-07)
(0.00126512 3.89192e-07 5.52576e-07)
(-0.00905009 0.00393104 0.00740198)
(-0.00114676 0.0239348 0.00222036)
(0.0290194 0.0203804 -0.000474222)
(0.000732703 -0.00134095 -0.00365361)
(-0.00502436 -0.014951 -0.000610601)
(-0.00643085 0.0170807 0.000920281)
(0.00119121 0.000728207 -0.000184495)
(0.00155777 0.000156036 -6.56182e-08)
(0.00153131 0.000102842 5.67837e-07)
(0.00138506 4.42158e-05 4.132e-07)
(0.00139378 2.6963e-05 3.70357e-07)
(0.00137692 1.47216e-05 7.38215e-07)
(0.00136888 9.22702e-06 3.35447e-07)
(0.00136262 5.20197e-06 3.4087e-07)
(0.00135651 2.71183e-06 3.34687e-07)
(0.0013512 1.48888e-06 3.26087e-07)
(0.00134732 1.00481e-06 3.37056e-07)
(0.00134404 6.38122e-07 3.41394e-07)
(0.00134069 5.9451e-07 4.63967e-07)
(0.00133824 5.77586e-07 3.1273e-07)
(0.00133576 2.23085e-07 3.67079e-07)
(0.00133286 2.538e-07 2.55094e-07)
(0.00133053 4.65662e-08 3.54702e-07)
(0.00132794 1.37953e-07 3.49296e-07)
(0.00132525 7.05478e-08 2.56534e-07)
(0.00132284 -1.14329e-07 3.67028e-07)
(0.00132043 2.66398e-07 3.83166e-07)
(0.00131802 5.0464e-07 2.74281e-07)
(0.00131507 6.87897e-07 2.88642e-07)
(0.00131218 4.35762e-07 3.42795e-07)
(0.00131029 2.20051e-07 -1.87573e-08)
(0.00130783 -1.78896e-07 2.61978e-07)
(0.00130495 2.8624e-07 5.73973e-07)
(0.00130281 1.67393e-07 3.24682e-07)
(0.00130043 2.03761e-07 3.41481e-07)
(0.00129786 1.66425e-08 3.20214e-07)
(0.00129553 -1.0742e-07 3.49279e-07)
(0.00129296 -1.98534e-07 3.06646e-07)
(0.00129067 -3.26648e-07 3.10043e-07)
(0.00128877 -2.09925e-07 7.54937e-08)
(0.00128657 1.20801e-07 4.73406e-07)
(0.00128404 2.92088e-07 1.09657e-06)
(0.00128194 5.84247e-08 1.50055e-07)
(0.00127938 2.4431e-08 2.52571e-07)
(0.00127682 -1.7449e-07 3.12789e-07)
(0.00127498 -3.67052e-07 3.1784e-07)
(0.00127294 -9.07234e-07 1.0771e-07)
(0.00126995 -1.43115e-06 2.69071e-07)
(0.00126705 -4.83968e-07 3.37083e-07)
(0.00126462 7.39369e-08 3.57792e-07)
(-0.0322106 -0.0179284 -0.010803)
(-0.0456745 -0.0211949 -0.0154993)
(-0.0261432 0.0265835 0.00318034)
(-0.00896905 -0.00989942 0.00516522)
(0.0178511 0.0119469 0.00226213)
(-0.00341371 0.00214571 0.00403612)
(0.000963134 0.000594488 -0.000127376)
(0.00141987 0.000167815 9.38331e-08)
(0.00147062 5.51179e-05 5.25504e-07)
(0.00134992 5.01703e-05 3.92124e-07)
(0.00137293 3.10366e-05 3.03262e-07)
(0.00136507 2.04069e-05 3.07585e-07)
(0.00136136 1.34392e-05 3.74194e-07)
(0.00135593 8.23969e-06 3.38746e-07)
(0.00135271 4.74665e-06 3.49208e-07)
(0.00135001 2.81679e-06 3.52963e-07)
(0.00134692 1.81051e-06 3.36748e-07)
(0.0013436 1.04545e-06 3.35097e-07)
(0.00134111 8.87234e-07 2.9867e-07)
(0.00133811 9.35763e-07 4.97207e-07)
(0.00133536 7.5522e-07 2.3552e-07)
(0.00133303 5.66504e-07 9.73176e-07)
(0.00133022 5.09026e-07 3.12951e-07)
(0.0013277 2.58022e-07 2.53314e-07)