/*--------------------------------*- C++ -*----------------------------------*\
| =========                 |                                                 |
| \\      /  F ield         | OpenFOAM: The Open Source CFD Toolbox           |
|  \\    /   O peration     | Version:  5.0                                   |
|   \\  /    A nd           | Web:      www.OpenFOAM.org                      |
|    \\/     M anipulation  |                                                 |
\*---------------------------------------------------------------------------*/
FoamFile
{
    version     2.0;
    format      ascii;
    class       volVectorField;
    location    "1";
    object      U_0;
}
// * * * * * * * * * * * * * * * * * * * * * * * * * * * * * * * * * * * * * //

dimensions      [0 1 -1 0 0 0 0];

internalField   nonuniform List<vector> 
9914
(
(0.00382044 -0.00602161 -0.000531382)
(-0.00704274 -0.00506883 0.000540932)
(-0.00970248 0.0358214 -0.000565569)
(0.000260282 -0.000164943 0.000332221)
(-0.00693042 0.00899592 0.00106644)
(0.00239873 0.00068168 6.33886e-06)
(0.000312864 3.43215e-05 -1.41811e-06)
(0.00066573 -7.90908e-05 -1.43982e-06)
(0.000717683 -5.82453e-05 -6.20975e-08)
(0.000761958 -3.66526e-05 1.8793e-07)
(0.000782874 -2.33933e-05 1.12517e-07)
(0.000794804 -1.48487e-05 8.2396e-08)
(0.00080153 -9.30042e-06 1.35096e-08)
(0.000804295 -5.47566e-06 7.80664e-08)
(0.000804911 -3.4715e-06 5.2944e-08)
(0.00080493 -2.31341e-06 3.20131e-08)
(0.000804368 -1.47287e-06 5.49274e-08)
(0.000803595 -1.00322e-06 8.35544e-08)
(0.000802143 -8.65549e-07 3.07015e-08)
(0.000800754 -6.17757e-07 6.10235e-08)
(0.000799687 -4.58394e-07 5.21941e-08)
(0.000798149 -1.9254e-07 -8.52814e-08)
(0.000796826 -3.03522e-07 1.43689e-08)
(0.000795525 -1.06502e-07 4.66332e-08)
(0.000793846 4.41038e-08 3.57962e-08)
(0.000792396 2.30441e-07 7.68943e-08)
(0.000791028 2.46031e-07 6.85728e-08)
(0.000789742 7.11301e-08 4.89649e-08)
(0.000787959 1.83281e-07 8.04574e-08)
(0.000786208 -2.8394e-07 6.38671e-08)
(0.000784867 -6.61536e-07 -5.62409e-08)
(0.000783185 -5.84686e-07 -1.36656e-08)
(0.000781986 -4.90446e-07 7.72965e-08)
(0.000780816 -3.27666e-07 4.86368e-08)
(0.000779235 -6.14277e-08 3.64298e-08)
(0.000777627 1.05339e-07 6.93727e-08)
(0.000776048 1.97419e-08 9.22315e-08)
(0.000774611 9.66916e-08 4.24141e-08)
(0.000773152 3.55872e-07 5.77172e-08)
(0.000772024 4.27852e-07 6.35336e-08)
(0.000770803 1.34936e-07 2.93861e-08)
(0.000769185 9.4504e-08 7.49248e-08)
(0.000767925 -1.67373e-07 9.08081e-08)
(0.000766401 -2.31895e-07 2.593e-07)
(0.000764785 -1.07037e-07 3.83163e-08)
(0.000763404 -8.20175e-08 -7.8006e-08)
(0.000762042 -2.00971e-07 6.43786e-08)
(0.0007608 -4.4284e-07 4.20934e-08)
(0.00075913 -2.68344e-07 -1.72421e-08)
(0.000757347 -2.16055e-07 6.46438e-08)
(0.00872541 -0.0210009 -0.000404503)
(0.00113836 -0.00056514 -0.00022931)
(0.0132418 0.00759139 -0.000283659)
(0.0146953 -0.00662125 -0.000608157)
(-0.0502661 -0.0123125 0.00394318)
(0.0930621 -0.00700804 0.000757639)
(0.00031455 -0.000286624 4.18158e-07)
(0.000795079 -0.000195469 -1.1608e-06)
(0.000777436 -0.000115586 -2.14628e-07)
(0.000801978 -6.65749e-05 2.06259e-07)
(0.000806414 -3.93605e-05 6.121e-08)
(0.000809143 -2.34416e-05 6.80282e-08)
(0.000809629 -1.41477e-05 5.7879e-08)
(0.000809156 -8.88726e-06 4.94822e-08)
(0.000808098 -5.41491e-06 5.17799e-08)
(0.000806945 -3.39416e-06 1.65211e-07)
(0.000805622 -1.96089e-06 5.06845e-08)
(0.000804022 -1.14662e-06 4.16201e-08)
(0.000802831 -6.05931e-07 7.73552e-08)
(0.000801534 -2.99762e-07 2.82441e-08)
(0.000799845 -8.76992e-08 8.99269e-08)
(0.00079811 4.49241e-08 2.9231e-08)
(0.000796798 5.60813e-07 4.55881e-08)
(0.000795743 2.2953e-07 1.72312e-07)
(0.000794137 5.39501e-08 6.52115e-08)
(0.00079244 1.20644e-08 8.43507e-08)
(0.000790837 -7.36486e-08 1.25021e-07)
(0.000789448 -1.85617e-07 4.68812e-08)
(0.000787667 -6.81103e-07 2.51197e-08)
(0.000785757 -4.54965e-07 5.3583e-08)
(0.000784662 -4.73823e-07 1.41345e-07)
(0.000783556 -2.85844e-07 2.34354e-08)
(0.000782152 2.5839e-07 2.28374e-07)
(0.000780943 2.46777e-07 2.52105e-07)
(0.000779479 1.10741e-07 4.8753e-08)
(0.000777793 6.94139e-08 4.53365e-08)
(0.000776381 1.66347e-07 3.51426e-08)
(0.000774978 2.14789e-07 5.38208e-08)
(0.000773435 3.51572e-07 2.04325e-08)
(0.000771801 4.76003e-07 7.86783e-09)
(0.000770314 1.88249e-07 5.99752e-08)
(0.0007688 -2.99022e-07 5.73998e-08)
(0.000767411 -6.05214e-07 1.97593e-08)
(0.00076633 -3.95248e-07 1.07663e-07)
(0.000764957 -9.23132e-08 5.68979e-08)
(0.000763422 -1.03391e-07 5.94539e-08)
(0.000762021 2.92587e-08 4.37271e-08)
(0.00076069 -1.49861e-07 3.87101e-08)
(0.000759092 -3.6292e-07 3.49369e-08)
(0.000758096 -2.45193e-07 2.50515e-08)
(-0.00730696 -0.0165593 0.000226354)
(0.000320765 0.0164309 0.00252695)
(-0.00823337 0.013788 -0.00039121)
(-0.0319466 -0.0243991 -0.00438835)
(0.00914934 -0.000423543 0.00289302)
(-0.0226652 -0.0136886 -0.00230014)
(0.000582717 -0.000110368 1.34324e-05)
(0.00102406 -0.000180091 -1.59298e-06)
(0.000879299 -9.69356e-05 -6.39126e-07)
(0.000857705 -5.78578e-05 9.68441e-08)
(0.000837058 -3.39867e-05 1.33044e-08)
(0.000826477 -2.04764e-05 4.11347e-08)
(0.000819817 -1.24631e-05 4.46988e-08)
(0.000815268 -7.65256e-06 4.99452e-08)
(0.000811814 -4.67482e-06 5.22318e-08)
(0.00080927 -2.79716e-06 5.36469e-08)
(0.000807192 -1.72057e-06 5.59867e-08)
(0.000805297 -9.98434e-07 5.98506e-08)
(0.000803207 -5.60704e-07 1.06818e-07)
(0.000801404 -3.8803e-07 4.15068e-08)
(0.000800118 -2.16794e-07 4.03952e-08)
(0.000798957 -4.70649e-08 4.65051e-08)
(0.000797053 2.92667e-07 1.69141e-08)
(0.000794888 7.86975e-08 3.83078e-08)
(0.000793571 9.11959e-09 4.93235e-08)
(0.000792235 -2.47869e-08 2.67823e-08)
(0.000790781 -6.97768e-08 5.82298e-08)
(0.000788985 -1.68036e-08 5.76565e-08)
(0.000787625 -5.59097e-08 -8.7277e-08)
(0.000786471 4.9739e-07 2.21569e-08)
(0.000785081 7.96826e-07 8.41292e-08)
(0.0007841 7.31519e-07 7.53629e-08)
(0.000782649 4.6981e-07 3.11728e-07)
(0.000780628 4.21317e-07 1.10502e-07)
(0.000779011 1.62921e-07 8.97696e-08)
(0.000777695 1.58354e-07 5.2233e-08)
(0.000776228 1.30757e-07 6.49273e-08)
(0.000774839 4.83565e-08 4.42974e-08)
(0.000773475 9.8828e-08 4.66642e-08)
(0.000771817 -2.61477e-08 1.22237e-07)
(0.000769832 -1.94651e-07 6.39329e-08)
(0.000768195 -8.14343e-08 5.48485e-08)
(0.000767809 4.74475e-07 5.83637e-08)
(0.000767046 1.88856e-07 8.18231e-08)
(0.000765153 5.04052e-08 8.28298e-08)
(0.000763557 9.01806e-08 1.0705e-07)
(0.000761985 2.57302e-07 5.42833e-08)
(0.000760311 1.29633e-07 6.68936e-08)
(0.000759017 7.70118e-08 6.32134e-08)
(0.000758105 7.77621e-08 7.04017e-08)
(-0.0138375 -0.0163287 -0.000723857)
(0.0137264 -0.0231609 0.00276955)
(-0.0197244 -0.0130888 0.00246187)
(0.0108831 0.00540718 -0.00015378)
(-0.00807409 0.0132906 -0.00350287)
(-0.000459802 0.00941875 -0.00042445)
(0.000637532 -0.000191058 7.19073e-05)
(0.00104141 -6.44342e-05 -2.87554e-06)
(0.000930775 -6.41304e-06 -4.25366e-07)
(0.000880927 -1.73234e-05 -6.7581e-08)
(0.000853297 -1.10145e-05 5.46842e-08)
(0.00083614 -7.74444e-06 1.83541e-08)
(0.000825714 -5.32403e-06 4.18153e-08)
(0.000818925 -3.36813e-06 4.56777e-08)
(0.000814188 -1.95425e-06 4.48269e-08)
(0.00081065 -1.13391e-06 4.72965e-08)
(0.000807879 -8.13234e-07 4.68511e-08)
(0.000805476 -5.74579e-07 2.50893e-08)
(0.000803597 -5.81714e-07 3.32508e-08)
(0.000801966 -5.34733e-07 2.75767e-08)
(0.000800272 -2.6508e-07 6.93054e-08)
(0.000798745 -2.46004e-07 4.80835e-08)
(0.000796953 -4.48982e-07 3.8061e-08)
(0.000795387 -9.19938e-08 6.63242e-08)
(0.000794006 8.12558e-08 2.73975e-08)
(0.000792341 2.11222e-07 2.97427e-08)
(0.000790846 3.06346e-07 6.50035e-08)
(0.000789465 3.93889e-07 8.34593e-08)
(0.000788307 8.71367e-07 -6.8e-09)
(0.000786819 7.15481e-07 2.2561e-08)
(0.000784949 7.9229e-07 4.35565e-09)
(0.000783141 7.67377e-07 5.0109e-09)
(0.000781759 2.56348e-07 4.67173e-08)
(0.000780557 1.58995e-08 4.93271e-08)
(0.000779149 9.18637e-08 5.03192e-08)
(0.000777752 5.66035e-08 6.78435e-08)
(0.000776243 5.86479e-08 3.99767e-08)
(0.000774938 -5.06214e-08 4.07261e-08)
(0.000773342 -4.0901e-07 -5.93344e-09)
(0.000771434 -4.33769e-07 2.83004e-08)
(0.000770245 -2.05002e-07 5.81983e-08)
(0.000769634 2.26178e-07 3.21642e-08)
(0.000767745 5.77653e-07 3.93492e-08)
(0.000765796 2.67127e-07 1.06306e-08)
(0.00076483 -4.70336e-08 6.30399e-08)
(0.000763677 -5.82534e-08 6.74696e-08)
(0.000762067 -7.55984e-08 7.40268e-08)
(0.000760463 5.41296e-08 1.4808e-08)
(0.000759024 2.55125e-07 4.05654e-08)
(0.000757903 2.18279e-07 4.13672e-08)
(-0.00136775 0.00714613 0.00166229)
(-0.00151924 0.00629112 0.00154579)
(0.00590789 -0.00414846 6.16212e-05)
(0.0341649 -0.0109689 -0.000294544)
(0.00250893 -0.00312237 0.000281911)
(0.00604658 -0.00272541 0.00020709)
(0.00140983 0.000310933 -7.43808e-06)
(0.000555074 3.65294e-05 -1.40141e-06)
(0.000951973 5.0306e-05 -1.08414e-06)
(0.000851894 1.81846e-05 -5.2537e-07)
(0.000848995 1.04557e-05 1.69082e-07)
(0.000833571 5.13535e-06 -1.42185e-09)
(0.000825279 3.10675e-06 1.04501e-07)
(0.000819476 1.62883e-06 5.12896e-08)
(0.000814604 7.33636e-07 1.76027e-08)
(0.000810693 3.7579e-07 1.38895e-08)
(0.000807888 3.00751e-07 4.83213e-08)
(0.000805586 2.25793e-07 4.85175e-08)
(0.000803257 2.43258e-07 4.96301e-08)
(0.0008018 3.04715e-07 4.6362e-10)
(0.000800481 -1.33564e-07 6.85596e-08)
(0.00079873 8.4295e-08 8.09684e-08)
(0.000797248 -1.61301e-08 2.71343e-07)
(0.000795553 1.48771e-07 5.36781e-08)
(0.00079395 5.40884e-08 1.43467e-07)
(0.000792515 6.23927e-08 6.55558e-08)
(0.000791006 1.56461e-07 6.72144e-08)
(0.000789686 1.76309e-07 -1.74287e-09)
(0.00078802 1.85008e-07 -1.5447e-09)
(0.000786365 9.39924e-08 2.93642e-08)
(0.000785138 1.41921e-07 5.58958e-08)
(0.000783425 -2.07449e-07 4.12999e-08)
(0.000781706 1.29294e-07 8.8465e-08)
(0.000780421 6.79132e-08 4.88754e-08)
(0.000779062 1.18021e-07 4.71863e-08)
(0.000777653 -5.23033e-08 4.84009e-08)
(0.000776094 -1.98393e-07 4.4445e-08)
(0.000774256 -1.96361e-07 5.38119e-08)
(0.000772998 -2.69736e-07 1.13431e-07)
(0.000772074 -1.26921e-07 9.44944e-08)
(0.000770658 2.44817e-07 4.88919e-08)
(0.000769171 4.06341e-07 1.727e-07)
(0.000767856 4.22817e-08 5.7736e-08)
(0.000766262 7.65838e-08 -1.38777e-07)
(0.000764744 2.8515e-08 5.10487e-08)
(0.000763521 -1.4257e-07 4.72128e-08)
(0.000762125 -4.02614e-07 -3.00847e-08)
(0.000760724 -3.571e-07 -1.41174e-08)
(0.000759216 -2.97189e-07 1.49941e-08)
(0.000757516 8.58744e-08 9.87462e-08)
(-0.0169163 0.0161068 0.000794949)
(0.00810985 -0.0184136 -0.0025193)
(-0.0330986 -0.0503072 -0.00126684)
(0.0112065 -0.00238729 0.00052861)
(-0.00334149 -0.00386525 -0.00222925)
(-0.00259141 0.00399177 0.00036474)
(0.00129349 6.37387e-05 3.80101e-05)
(0.00050712 5.64645e-05 -1.16349e-06)
(0.000914104 3.89933e-05 -1.06176e-06)
(0.000830878 3.39239e-05 -5.08257e-07)
(0.000836823 2.09994e-05 1.9148e-07)
(0.000826854 1.36405e-05 9.22237e-08)
(0.000821274 8.92328e-06 9.37774e-08)
(0.000815924 5.51927e-06 4.82837e-08)
(0.000812602 3.25883e-06 1.44121e-07)
(0.000810098 1.99696e-06 1.12716e-07)
(0.000807685 1.33262e-06 5.14605e-08)
(0.0008054 8.65646e-07 5.69381e-08)
(0.000803693 7.10625e-07 2.42076e-08)
(0.000801493 9.72379e-07 1.95473e-07)
(0.000799995 8.27987e-07 1.17048e-07)
(0.000798892 4.27224e-07 6.89922e-08)
(0.000797033 1.59438e-07 5.44247e-08)
(0.000795474 4.70775e-08 -3.57049e-07)
(0.000793898 9.58987e-08 5.19489e-08)
(0.000792468 4.40055e-08 1.10516e-08)
(0.000790988 -5.5197e-08 1.15221e-07)
(0.000789498 -1.62554e-07 7.24141e-08)
(0.000788202 -1.97903e-07 1.12706e-07)
(0.000786763 -3.80049e-07 8.53131e-08)
(0.000784571 -6.30834e-07 -5.78351e-09)
(0.000783124 -4.44156e-07 -9.37779e-09)
(0.000782103 -3.20013e-07 1.49502e-08)
(0.000780541 -1.81831e-07 5.37599e-08)
(0.000778998 -1.92642e-07 -3.2093e-08)
(0.000777357 -9.55602e-08 4.68394e-08)
(0.000776064 -9.52821e-08 6.2786e-08)
(0.00077485 6.57881e-08 4.49278e-08)
(0.00077343 3.31378e-07 1.17501e-07)
(0.000772078 2.73915e-07 7.03083e-08)
(0.000770911 2.57789e-07 5.03458e-08)
(0.00076938 2.62995e-07 -3.28044e-08)
(0.000767332 1.65624e-07 2.88751e-08)
(0.000765779 -2.0599e-08 6.05585e-08)
(0.000764557 1.24611e-08 4.06726e-08)
(0.000763141 -1.58096e-07 4.54766e-08)
(0.000761803 -4.71528e-07 -3.29148e-07)
(0.000760598 -4.90043e-07 5.81825e-08)
(0.000759579 -4.2203e-07 8.49594e-08)
(0.000758167 -2.28204e-07 1.80435e-07)
(0.0405581 0.0193926 0.000144183)
(-0.0365865 -0.0242259 -7.30297e-05)
(0.0103108 -0.00044952 -0.00529696)
(-0.00938332 -0.0103545 -4.36405e-06)
(-0.00401413 0.00563129 0.000613526)
(0.000727652 -0.00155252 8.40004e-05)
(0.000978477 -0.000150708 -1.02777e-05)
(0.000865131 0.00010643 -2.46731e-06)
(0.000845192 4.65951e-05 -2.70337e-08)
(0.00082922 4.28262e-05 2.64051e-08)
(0.000823461 2.73797e-05 6.22431e-08)
(0.000818359 1.84886e-05 5.03663e-08)
(0.000815052 1.16859e-05 5.08774e-08)
(0.000812347 7.5888e-06 5.2469e-08)
(0.000810172 5.00756e-06 5.58087e-08)
(0.000808268 3.23761e-06 5.38627e-08)
(0.000806463 2.06254e-06 5.19511e-08)
(0.000804801 1.30928e-06 5.37646e-08)
(0.000803384 9.51421e-07 8.1703e-08)
(0.000801941 4.61377e-07 5.21844e-08)
(0.000799794 7.31276e-07 -5.82184e-08)
(0.000797891 2.98806e-07 4.40482e-08)
(0.000796771 3.30379e-07 -1.94666e-08)
(0.000795472 1.13508e-07 4.88283e-08)
(0.000793946 1.30696e-07 3.39586e-09)
(0.000792326 1.96952e-07 1.81961e-07)
(0.000790749 -1.23693e-08 5.15849e-08)
(0.000789509 -7.81326e-08 6.32152e-08)
(0.000787752 -4.53161e-07 5.22691e-08)
(0.000785827 -7.4845e-07 1.27339e-08)
(0.000785063 -5.59106e-07 1.36394e-07)
(0.000783818 -1.29637e-07 6.13426e-08)
(0.000782037 -1.30593e-07 3.85453e-08)
(0.000780583 -1.21311e-07 3.74748e-08)
(0.000779171 -1.41505e-07 7.92786e-08)
(0.000777776 1.64849e-09 1.41458e-07)
(0.000776296 1.66599e-07 4.96208e-08)
(0.000774789 1.56124e-07 5.87691e-08)
(0.000773257 1.91384e-07 5.39032e-08)
(0.00077198 2.97578e-07 1.78973e-08)
(0.000770642 3.54986e-08 4.17784e-08)
(0.000769054 -2.94466e-07 3.52288e-09)
(0.000767501 -3.57288e-07 1.94178e-08)
(0.00076607 -1.82654e-07 4.9414e-08)
(0.000764573 -1.43228e-07 4.11359e-09)
(0.000762918 -3.37344e-08 4.88933e-08)
(0.000761714 -3.99352e-08 -5.13899e-08)
(0.00076079 -2.95055e-07 6.37457e-08)
(0.000759552 -1.41038e-07 1.65199e-07)
(0.000758328 -2.22355e-07 5.82274e-08)
(-0.00310778 -0.0177485 0.000502459)
(-0.0100263 -0.0028051 4.42255e-05)
(-0.0128466 0.00348906 0.00170303)
(-0.0139856 -0.0189693 0.00065244)
(0.0014268 0.000301466 0.000703257)
(-0.0152513 -0.0032147 -0.000270421)
(0.000416233 0.000189798 4.02256e-05)
(0.000849015 0.000126232 -1.9016e-06)
(0.000805141 7.48845e-05 -3.27932e-07)
(0.000806499 4.80505e-05 1.32849e-07)
(0.000806227 2.97662e-05 4.11223e-08)
(0.000807125 1.87109e-05 4.93932e-08)
(0.000807574 1.16681e-05 5.33631e-08)
(0.000807528 7.25802e-06 5.12583e-08)
(0.000807131 4.54451e-06 5.03196e-08)
(0.000806396 2.79467e-06 5.15651e-08)
(0.000805261 1.66483e-06 1.11469e-07)
(0.000804003 1.04043e-06 5.85729e-08)
(0.000802627 6.41377e-07 6.03632e-08)
(0.000801214 2.39369e-07 5.10201e-08)
(0.00079979 -1.0563e-07 4.58017e-08)
(0.000798388 1.01583e-07 5.48438e-08)
(0.0007968 -8.97613e-09 6.35123e-08)
(0.000795223 -4.07787e-08 4.7811e-08)
(0.000794002 -2.53093e-07 3.9532e-08)
(0.000792289 -2.59196e-07 4.13939e-08)
(0.000790644 -1.02098e-08 -3.26127e-09)
(0.00078895 -7.72221e-08 3.05267e-08)
(0.000787369 -2.38238e-07 5.00787e-08)
(0.000786637 2.73185e-07 6.89297e-08)
(0.00078535 4.65431e-07 9.05735e-08)
(0.000783663 1.74542e-07 3.47517e-08)
(0.000782115 2.91668e-07 4.8905e-08)
(0.000780529 1.24337e-07 4.57203e-08)
(0.000779153 9.85814e-08 4.72349e-08)
(0.000777743 -1.36112e-08 3.33562e-08)
(0.000776257 -6.47476e-08 5.57569e-08)
(0.000774881 -1.21934e-07 4.13061e-08)
(0.000773606 1.17025e-07 4.15857e-08)
(0.000771882 1.52994e-07 6.75462e-08)
(0.000770171 -2.52679e-08 1.58773e-08)
(0.000768891 -5.43391e-08 4.77206e-08)
(0.000767475 -1.10749e-07 -5.71297e-08)
(0.000766049 -1.78008e-07 5.02311e-08)
(0.000764745 -7.93891e-08 5.8424e-08)
(0.000763272 8.53349e-08 4.55355e-08)
(0.000761478 4.30333e-07 5.63645e-08)
(0.000760474 5.64344e-07 7.05763e-08)
(0.000759678 1.85848e-07 2.7169e-08)
(0.000758619 2.90182e-08 9.40084e-08)
(0.00294592 0.00440849 0.000367009)
(0.00248762 -0.00635227 0.000516342)
(0.0047987 -0.00670983 0.00100856)
(-0.000548921 0.0048628 -0.00610835)
(-0.0011124 -0.00868195 -0.00023455)
(0.00144245 -0.00523299 -0.000517606)
(0.000169753 5.32725e-05 3.00669e-06)
(0.000721359 9.88759e-05 -2.13884e-06)
(0.000746902 5.82268e-05 1.70054e-08)
(0.000772565 3.35004e-05 9.44333e-08)
(0.000786632 1.95442e-05 6.5194e-08)
(0.000795644 1.1701e-05 5.95306e-08)
(0.00080068 6.97075e-06 5.50626e-08)
(0.000803409 3.91057e-06 5.84538e-08)
(0.000804572 2.40512e-06 5.73772e-08)
(0.000804655 1.49715e-06 1.1841e-07)
(0.000804263 8.30148e-07 3.8885e-08)
(0.000803517 4.66584e-07 2.60159e-08)
(0.00080238 2.31574e-07 5.28393e-08)
(0.000801007 2.39696e-07 5.36306e-08)
(0.000799623 7.74752e-08 4.99551e-08)
(0.000798013 -1.43496e-07 4.53421e-08)
(0.000796595 -3.03394e-07 1.51607e-08)
(0.00079517 -2.34474e-07 5.36116e-08)
(0.000793675 -2.38008e-07 8.20159e-08)
(0.000792633 -4.64999e-07 5.66769e-08)
(0.000790978 -3.20345e-07 2.00612e-08)
(0.000789226 -1.52503e-07 3.21382e-07)
(0.00078819 1.40781e-07 1.08006e-07)
(0.000786706 4.41008e-07 4.14805e-08)
(0.000784937 2.81895e-07 1.48086e-07)
(0.000783598 1.90253e-07 6.46884e-08)
(0.000781973 2.19343e-08 8.40209e-08)
(0.000780341 -4.02537e-08 -1.55264e-08)
(0.000778999 -7.80096e-08 1.67531e-07)
(0.000777573 -2.13039e-07 7.24694e-08)
(0.000776162 -1.18705e-07 -6.6829e-08)
(0.000775017 -1.04811e-07 4.83946e-08)
(0.000773601 -3.76348e-07 8.54486e-08)
(0.000771802 -5.72361e-07 3.72841e-08)
(0.000770383 -2.20601e-07 4.81618e-08)
(0.000768949 -1.24945e-07 -2.32654e-08)
(0.000767347 7.90506e-09 4.36306e-08)
(0.000766111 1.4911e-07 4.72331e-08)
(0.000764903 1.71345e-07 5.24267e-08)
(0.000763554 1.68142e-07 4.72247e-09)
(0.00076231 3.86218e-07 2.74865e-08)
(0.000760481 9.65363e-07 2.89366e-08)
(0.000758882 6.29559e-07 -4.92291e-08)
(0.000758056 2.74773e-07 8.81764e-08)
(-0.00337063 0.00242186 0.00140258)
(0.0232426 0.00889824 -0.000963768)
(0.000338482 -0.0140542 0.000638763)
(-0.00660239 0.000826903 -0.000831904)
(-0.000986716 -0.000674028 -0.000972042)
(-0.00102626 0.0029584 9.32391e-05)
(0.000212472 6.90073e-05 -1.63598e-06)
(0.000658527 2.51484e-05 -2.28113e-06)
(0.000722868 8.21514e-06 -1.24767e-07)
(0.000758047 1.92457e-06 5.39117e-08)
(0.000778931 -3.91062e-07 7.53105e-08)
(0.000791386 -1.1655e-06 4.87456e-08)
(0.000797826 -1.11965e-06 5.78619e-08)
(0.000801817 -5.21914e-07 5.309e-08)
(0.000804113 -4.34189e-07 7.63882e-08)
(0.000804427 -2.63567e-07 6.37476e-08)
(0.000803972 -2.23323e-07 4.9611e-08)
(0.000803254 -1.84878e-07 4.95791e-08)
(0.000802344 -1.64358e-07 7.13196e-08)
(0.000801021 -3.77253e-07 6.43375e-08)
(0.000799311 -3.69579e-07 3.81382e-08)
(0.000797914 -3.27727e-07 1.24695e-07)
(0.000796689 -2.62293e-07 5.82076e-08)
(0.000795309 -1.43835e-07 4.76948e-08)
(0.000793717 2.19889e-08 4.57429e-08)
(0.00079219 -8.09645e-09 4.61996e-08)
(0.000791039 -1.67291e-07 5.65982e-08)
(0.000789528 3.15041e-08 5.02887e-08)
(0.00078811 2.45876e-07 -9.41208e-08)
(0.000786811 -1.53651e-07 2.96883e-08)
(0.000785034 -1.53064e-07 7.47492e-08)
(0.000783337 -2.11919e-07 4.35839e-08)
(0.000781827 -4.86394e-07 2.38681e-08)
(0.000780406 -2.05183e-07 1.23598e-07)
(0.000778938 -1.08544e-07 7.31184e-08)
(0.000777693 -1.68461e-08 -2.57343e-09)
(0.000776394 -6.49657e-08 -9.0245e-09)
(0.00077456 -1.08022e-07 4.33101e-08)
(0.000773024 -3.90965e-07 5.94369e-09)
(0.00077208 -4.69143e-07 6.31343e-08)
(0.000770733 -2.15768e-07 6.13064e-08)
(0.000769177 -1.35812e-07 2.45134e-08)
(0.000767818 -2.73152e-08 9.14446e-08)
(0.000766252 3.26727e-07 2.39275e-08)
(0.000764768 2.06275e-07 -3.16932e-08)
(0.000763538 2.34406e-07 4.54357e-08)
(0.000762469 8.75352e-08 1.67839e-08)
(0.000760772 2.1431e-08 1.81992e-08)
(0.000758801 3.43977e-07 -7.79315e-09)
(0.000757493 2.261e-07 7.26242e-08)
(0.0108886 0.00120397 -0.00230825)
(-0.00323529 0.00106009 0.000993256)
(-0.00539242 -0.00375484 0.000608387)
(0.00876092 0.000951221 0.000766903)
(-0.00806774 -0.00988948 0.00232055)
(0.000672664 -0.008683 -8.13006e-05)
(0.0010022 0.000115665 -1.27006e-06)
(0.00113733 -0.000129135 2.68234e-07)
(0.00121253 -9.54554e-05 3.04022e-07)
(0.00127916 -6.01057e-05 3.46957e-07)
(0.00130969 -3.83338e-05 2.02105e-07)
(0.00132693 -2.4338e-05 2.52497e-07)
(0.00133659 -1.52496e-05 2.68919e-07)
(0.00134022 -8.94471e-06 3.67931e-07)
(0.00134061 -5.66608e-06 3.40989e-07)
(0.00134028 -3.75363e-06 4.51458e-07)
(0.00133914 -2.3748e-06 3.38137e-07)
(0.00133766 -1.51954e-06 3.64826e-07)
(0.00133508 -1.32706e-06 2.97223e-07)
(0.00133271 -9.88528e-07 3.24629e-07)
(0.0013309 -7.06912e-07 3.43422e-07)
(0.00132832 -2.32553e-07 1.86499e-07)
(0.00132604 -4.11899e-07 2.53931e-07)
(0.00132384 -1.5641e-07 2.87146e-07)
(0.00132109 1.63889e-07 2.18079e-07)
(0.00131865 5.02296e-07 3.33246e-07)
(0.0013164 4.88269e-07 3.04034e-07)
(0.0013143 1.40354e-07 3.32112e-07)
(0.00131128 2.94882e-07 3.72594e-07)
(0.00130833 -5.13131e-07 5.26827e-07)
(0.00130608 -1.13003e-06 2.53451e-07)
(0.00130325 -9.92653e-07 9.8366e-08)
(0.00130126 -7.80972e-07 3.45965e-07)
(0.00129941 -4.57045e-07 2.90548e-07)
(0.00129684 -1.00241e-08 3.07694e-07)
(0.00129412 2.50422e-07 3.22396e-07)
(0.0012914 6.13515e-08 3.81081e-07)
(0.00128891 2.21743e-07 3.03708e-07)
(0.00128662 6.83213e-07 2.30613e-07)
(0.00128479 7.07112e-07 3.4438e-07)
(0.00128265 2.27782e-07 2.84676e-07)
(0.00127997 1.48969e-07 3.52288e-07)
(0.00127801 -3.48071e-07 3.74907e-07)
(0.0012754 -4.13351e-07 7.39654e-07)
(0.00127266 -2.30369e-07 3.28006e-07)
(0.0012704 -1.98936e-07 1.96644e-07)
(0.0012681 -3.16322e-07 3.09318e-07)
(0.00126608 -6.87379e-07 3.03739e-07)
(0.00126327 -4.6741e-07 2.14679e-07)
(0.00126029 -3.85951e-07 3.42291e-07)
(0.00400027 0.000167748 -0.00471581)
(0.0194254 -0.0224499 0.00796496)
(0.0127136 0.00472863 -0.00810043)
(0.00473874 0.0123021 0.014107)
(0.013862 0.000632076 -0.0221766)
(0.0239738 0.0183642 -0.00588307)
(0.000973255 -0.000808896 -2.24543e-05)
(0.00134631 -0.000303619 3.42803e-07)
(0.00130765 -0.000179313 3.25108e-07)
(0.00134292 -0.000103044 3.7044e-07)
(0.00134712 -6.08306e-05 3.30876e-07)
(0.00134972 -3.61506e-05 3.36594e-07)
(0.00134936 -2.17867e-05 3.38442e-07)
(0.00134786 -1.37291e-05 3.37016e-07)
(0.00134569 -8.36442e-06 3.38657e-07)
(0.00134348 -5.25721e-06 6.90719e-07)
(0.00134113 -3.0693e-06 3.35445e-07)
(0.00133836 -1.90285e-06 2.08384e-07)
(0.00133616 -1.02474e-06 3.89752e-07)
(0.00133392 -4.68154e-07 3.05559e-07)
(0.00133115 -8.3483e-08 3.7418e-07)
(0.00132826 1.1399e-07 1.24599e-07)
(0.00132595 9.38949e-07 2.82877e-07)
(0.00132426 5.35202e-07 4.34887e-07)
(0.00132168 2.08679e-07 3.18604e-07)
(0.00131874 1.20111e-07 4.43222e-07)
(0.00131599 -1.4648e-08 4.80032e-07)
(0.00131366 -2.78748e-07 3.29126e-07)
(0.00131074 -1.15093e-06 3.35832e-07)
(0.00130762 -7.52127e-07 2.26031e-07)
(0.00130581 -7.50993e-07 3.66351e-07)
(0.00130395 -4.47077e-07 2.77903e-07)
(0.00130164 5.6953e-07 6.96136e-07)
(0.00129963 5.34414e-07 8.09e-07)
(0.00129715 2.22778e-07 3.31168e-07)
(0.00129432 1.26798e-07 3.27957e-07)
(0.00129197 2.75179e-07 2.99144e-07)
(0.00128968 4.07827e-07 3.69137e-07)
(0.00128703 6.90616e-07 3.15156e-07)
(0.00128427 8.1418e-07 3.28057e-07)
(0.00128182 2.95543e-07 3.3302e-07)
(0.00127928 -4.52355e-07 3.53387e-07)
(0.00127701 -9.36743e-07 2.40827e-07)
(0.0012753 -7.57641e-07 3.55097e-07)
(0.00127302 -1.92463e-07 3.42403e-07)
(0.00127048 -2.13064e-07 3.01426e-07)
(0.00126815 8.74849e-08 4.21966e-07)
(0.00126587 -2.14592e-07 3.08331e-07)
(0.00126322 -5.69824e-07 2.14509e-07)
(0.00126154 -4.14933e-07 2.14078e-07)
(-0.0268585 0.00220894 0.0124043)
(-0.0127116 0.00188044 -0.00143845)
(-0.00232018 0.00524938 -0.00416251)
(-0.0466777 -0.0447861 0.0470574)
(-0.0091227 -0.0270009 -0.0690841)
(0.0401728 0.000962923 0.00325961)
(0.0023131 -0.000432564 4.83807e-05)
(0.0017029 -0.000270072 4.18438e-07)
(0.00146368 -0.000143568 4.29669e-07)
(0.00142791 -8.55908e-05 3.55917e-07)
(0.00139368 -5.00707e-05 3.51704e-07)
(0.00137595 -3.01211e-05 3.44057e-07)
(0.00136475 -1.83142e-05 3.41236e-07)
(0.00135708 -1.12423e-05 3.39908e-07)
(0.00135125 -6.86268e-06 3.38189e-07)
(0.00134693 -4.12457e-06 3.37534e-07)
(0.00134336 -2.5459e-06 3.38666e-07)
(0.00134023 -1.53662e-06 2.75036e-07)
(0.00133688 -8.90603e-07 3.70001e-07)
(0.00133389 -6.00729e-07 3.21108e-07)
(0.00133163 -3.17893e-07 3.34113e-07)
(0.00132959 -5.30176e-08 3.29979e-07)
(0.00132656 5.12642e-07 3.01852e-07)
(0.00132292 2.58493e-07 3.48795e-07)
(0.00132056 3.05922e-08 3.42478e-07)
(0.00131836 -2.68708e-08 2.98941e-07)
(0.0013159 -8.87485e-08 3.40833e-07)
(0.00131288 2.51289e-08 3.15304e-07)
(0.00131069 -3.9076e-08 8.72559e-08)
(0.00130883 8.84629e-07 2.50733e-07)
(0.00130647 1.33533e-06 3.25805e-07)
(0.0013049 1.22199e-06 3.39785e-07)
(0.00130248 7.84075e-07 8.23984e-07)
(0.00129897 6.80215e-07 4.09561e-07)
(0.00129632 2.2857e-07 3.71645e-07)
(0.00129419 2.1705e-07 3.3473e-07)
(0.00129175 2.01508e-07 2.9342e-07)
(0.00128942 7.2388e-08 3.34541e-07)
(0.00128712 1.16688e-07 3.32925e-07)
(0.00128429 -3.52501e-08 4.4143e-07)
(0.00128107 -2.6191e-07 3.75526e-07)
(0.00127844 -4.87869e-08 3.3292e-07)
(0.00127764 8.65595e-07 3.24249e-07)
(0.00127634 4.72068e-07 2.77735e-07)
(0.00127334 2.52627e-07 3.40825e-07)
(0.00127075 2.69244e-07 3.86768e-07)
(0.0012681 4.74518e-07 3.22226e-07)
(0.00126525 2.88859e-07 3.3561e-07)
(0.00126303 1.52954e-07 3.31674e-07)
(0.00126152 1.40225e-07 3.03233e-07)
(-0.0151835 0.00479407 -0.0622156)
(0.00900259 -0.0288396 -0.000352281)
(-0.0165657 0.00663904 0.00155968)
(0.00319078 0.0066517 0.00176589)
(-0.00228904 0.0416707 0.0126043)
(0.00209007 -0.00178954 0.00490388)
(0.00198687 0.000150625 7.7936e-05)
(0.00171513 -8.78756e-05 3.64602e-07)
(0.00153878 1.13246e-06 3.82227e-07)
(0.00146005 -2.08652e-05 2.67442e-07)
(0.00141661 -1.32256e-05 3.94223e-07)
(0.0013895 -9.63383e-06 3.23614e-07)
(0.00137301 -6.81191e-06 3.43532e-07)
(0.00136221 -4.30281e-06 3.41155e-07)
(0.0013546 -2.42377e-06 3.38958e-07)
(0.00134889 -1.35944e-06 3.37468e-07)
(0.00134438 -1.00443e-06 3.36629e-07)
(0.00134044 -6.50927e-07 3.20662e-07)
(0.00133734 -7.63832e-07 3.23864e-07)
(0.00133463 -7.81232e-07 2.96277e-07)
(0.00133184 -4.11311e-07 3.14455e-07)
(0.00132929 -3.83102e-07 3.32548e-07)
(0.00132633 -7.0513e-07 3.27068e-07)
(0.00132365 -2.26231e-07 3.03733e-07)
(0.00132132 9.41944e-08 2.72353e-07)
(0.00131859 3.21425e-07 2.69439e-07)
(0.00131605 5.0142e-07 3.95634e-07)
(0.00131372 7.19759e-07 3.89119e-07)
(0.00131181 1.53864e-06 2.76934e-07)
(0.00130933 1.2619e-06 4.65368e-07)
(0.00130622 1.3453e-06 3.1583e-07)
(0.00130325 1.3366e-06 3.08531e-07)
(0.00130096 4.19581e-07 3.24273e-07)
(0.00129893 2.30675e-08 3.25984e-07)
(0.00129657 1.68937e-07 3.04166e-07)
(0.00129428 8.94108e-08 3.27866e-07)
(0.00129178 6.25118e-08 3.05491e-07)
(0.00128958 -1.17697e-07 2.65743e-07)
(0.0012869 -6.89047e-07 1.97021e-07)
(0.0012838 -7.24191e-07 3.18264e-07)
(0.00128181 -2.89085e-07 3.11956e-07)
(0.00128068 4.11862e-07 3.06474e-07)
(0.00127765 9.73732e-07 3.63166e-07)
(0.00127452 5.39236e-07 2.11785e-07)
(0.00127276 -3.29179e-09 3.31466e-07)
(0.00127075 -4.94826e-08 3.52202e-07)
(0.00126817 -1.16701e-07 3.69037e-07)
(0.00126546 1.12331e-07 8.09544e-08)
(0.00126303 4.01543e-07 3.13715e-07)
(0.00126118 3.83957e-07 2.18684e-07)
(-0.0112281 0.00605826 0.0102116)
(-0.00402946 0.0288781 0.00229906)
(0.0331659 0.0197521 -0.00139619)
(0.00421968 -0.00317021 -0.00421246)
(-0.00437237 -0.0166921 -0.00035086)
(-0.00778964 0.0187746 0.000994577)
(0.00130671 0.000678853 -0.000189499)
(0.00163137 0.000121445 -6.3005e-07)
(0.00157158 8.75828e-05 5.68737e-07)
(0.00140975 3.33181e-05 4.27083e-07)
(0.00140757 1.95401e-05 3.71247e-07)
(0.00138388 1.00135e-05 4.08602e-07)
(0.00137136 6.16628e-06 4.65014e-07)
(0.00136254 3.33737e-06 3.41923e-07)
(0.00135491 1.60736e-06 3.40213e-07)
(0.00134869 8.60138e-07 3.28707e-07)
(0.00134423 6.37178e-07 3.36047e-07)
(0.00134052 4.33282e-07 3.35101e-07)
(0.00133672 4.33284e-07 3.13571e-07)
(0.00133433 5.42477e-07 2.1168e-07)
(0.00133213 -1.55317e-07 3.65661e-07)
(0.00132923 1.48138e-07 3.60657e-07)
(0.00132676 -2.68933e-08 5.93303e-07)
(0.00132393 1.59309e-07 1.1962e-07)
(0.00132125 8.72957e-08 3.47166e-07)
(0.00131887 3.54367e-08 3.66695e-07)
(0.00131639 2.49502e-07 3.82815e-07)
(0.00131417 3.22055e-07 2.71875e-07)
(0.00131136 4.00807e-07 4.99763e-07)
(0.00130858 2.44747e-07 3.11742e-07)
(0.00130655 2.68165e-07 3.42022e-07)
(0.00130374 -3.10393e-07 3.1641e-07)
(0.00130083 2.70753e-07 3.73974e-07)
(0.00129866 1.40933e-07 3.25161e-07)
(0.0012964 2.11897e-07 3.05036e-07)
(0.00129405 -7.44554e-08 3.24329e-07)
(0.00129149 -3.2144e-07 3.46575e-07)
(0.00128849 -3.37511e-07 3.22981e-07)
(0.00128636 -4.54077e-07 4.59596e-07)
(0.0012848 -2.33396e-07 3.37722e-07)
(0.00128249 3.63171e-07 3.20409e-07)
(0.00128001 6.16369e-07 5.67863e-07)
(0.00127779 6.122e-08 2.97946e-07)
(0.00127512 8.1823e-08 -2.1701e-07)
(0.0012726 -7.37855e-08 3.19732e-07)
(0.00127061 -2.92906e-07 3.16587e-07)
(0.0012683 -7.55883e-07 1.37954e-07)
(0.0012659 -7.12198e-07 -5.10627e-08)
(0.00126336 -4.89151e-07 3.19446e-07)
(0.00126054 1.49608e-07 4.48209e-07)
(-0.0213272 -0.0132693 -0.00322918)
(-0.0265603 -0.0296665 0.018296)
(-0.036981 0.004325 0.00400869)
(-0.0101584 -0.00838033 0.00490597)
(0.0102872 0.00720301 0.000714227)
(-0.00545881 0.00271329 0.00337228)
(0.0010147 0.000472805 -0.000127743)
(0.00148517 0.000167901 -1.3782e-07)
(0.00150849 6.26447e-05 5.27138e-07)
(0.00137462 5.48605e-05 3.04906e-07)
(0.00138717 3.39758e-05 3.06548e-07)
(0.0013726 2.21077e-05 3.97408e-07)
(0.00136456 1.45108e-05 4.10203e-07)
(0.00135644 8.96481e-06 3.39896e-07)
(0.00135147 5.27229e-06 4.53723e-07)
(0.00134765 3.21806e-06 4.31402e-07)
(0.00134383 2.14647e-06 3.3632e-07)
(0.00134017 1.38445e-06 3.57289e-07)
(0.00133747 1.13686e-06 3.00682e-07)
(0.00133389 1.546e-06 5.64112e-07)
(0.00133134 1.27824e-06 3.56922e-07)
(0.00132945 6.83686e-07 3.10789e-07)
(0.00132635 2.67499e-07 3.02305e-07)