/*--------------------------------*- C++ -*----------------------------------*\
| =========                 |                                                 |
| \\      /  F ield         | OpenFOAM: The Open Source CFD Toolbox           |
|  \\    /   O peration     | Version:  5.0                                   |
|   \\  /    A nd           | Web:      www.OpenFOAM.org                      |
|    \\/     M anipulation  |                                                 |
\*---------------------------------------------------------------------------*/
FoamFile
{
    version     2.0;
    format      ascii;
    class       surfaceVectorField;
    location    "1";
    object      Uf;
}
// * * * * * * * * * * * * * * * * * * * * * * * * * * * * * * * * * * * * * //

dimensions      [0 1 -1 0 0 0 0];

internalField   nonuniform List<vector> 
29617
(
(0.00430224 -0.00346698 -0.000147845)
(0.00417462 -0.00650403 -0.00107955)
(0.00675504 0.00554812 0.000142767)
(0.006006 0.00828615 -0.000941754)
(0.00689309 0.00530152 -0.00152202)
(0.00623715 0.00343341 0.000120556)
(-0.0072572 -0.00453777 0.000166626)
(-0.00379853 -0.0024062 0.000864742)
(-0.00118933 -0.00278586 0.0003642)
(0.0023854 -0.0093927 -0.000659458)
(-0.00335601 0.000366213 0.000149568)
(-0.00500886 0.00614804 -0.000569505)
(0.00153816 -0.0112176 -0.000189688)
(-0.00380265 0.0150803 -0.000145612)
(-0.0105822 0.023236 -0.000135379)
(-0.00800171 0.0152031 0.000313287)
(0.000413469 0.021153 0.000208769)
(-0.00349293 0.021543 0.000431735)
(-0.0170541 0.0188744 -0.000576805)
(-0.0266848 0.0175831 -0.000537039)
(-0.00172147 0.00189692 -7.61481e-05)
(-0.00197663 -0.00864658 -0.000202924)
(0.00196012 -0.00142867 0.000760525)
(0.00266008 -0.00484421 0.000129269)
(0.00351904 0.00886479 0.0028758)
(-0.0089165 0.00873331 0.00214728)
(-0.0107385 0.00181354 0.000232664)
(-0.0160239 0.0117037 0.000150216)
(-0.00747325 0.00584796 0.000284057)
(-0.0101392 0.0127873 -3.70564e-05)
(0.00748292 -0.000229747 0.000289304)
(-0.000303146 0.00164526 -5.60523e-05)
(0.00184049 0.000117735 3.95007e-05)
(0.00169936 0.000130812 2.48045e-05)
(0.00244036 -4.09539e-05 -0.000130718)
(0.000313333 -1.37003e-05 -2.25524e-06)
(0.000436755 -7.97621e-06 -2.89377e-06)
(0.000386097 -2.66952e-06 -1.0752e-06)
(0.000704918 2.47488e-05 -1.85925e-06)
(0.000278368 4.02832e-05 -1.77617e-06)
(0.000588834 -3.94382e-05 -3.23072e-06)
(0.000505745 0.000104014 -2.16629e-06)
(0.000763414 -5.96692e-05 -9.76709e-07)
(0.000809277 -9.84924e-05 -1.55774e-06)
(0.00101069 -9.15016e-05 -1.25063e-06)
(0.000539585 -4.202e-05 -3.5526e-06)
(0.000514962 -5.8306e-05 -3.54361e-06)
(0.000909233 -6.56952e-05 -3.67736e-06)
(0.000851193 -0.000109424 -3.61708e-06)
(0.000788037 -4.17403e-05 1.09889e-08)
(0.000794693 -6.65422e-05 -1.76459e-07)
(0.00102995 -6.88144e-05 1.37401e-07)
(0.000800488 -2.64304e-05 1.2376e-07)
(0.000810657 -3.99524e-05 1.6176e-07)
(0.00105962 -4.32788e-05 1.99596e-07)
(0.000806391 -1.68849e-05 1.01015e-07)
(0.000812586 -2.47315e-05 8.39115e-08)
(0.00107055 -2.76958e-05 1.79672e-07)
(0.000809487 -1.06954e-05 4.43183e-08)
(0.0008136 -1.50992e-05 7.23023e-08)
(0.00107658 -1.76419e-05 1.78247e-07)
(0.000810868 -6.5397e-06 2.80655e-08)
(0.000813475 -9.29412e-06 2.78417e-08)
(0.00107981 -1.10893e-05 1.82644e-07)
(0.000809955 -3.94582e-06 5.05929e-08)
(0.000812376 -6.02929e-06 4.91634e-08)
(0.00108004 -6.47877e-06 1.68389e-07)
(0.00080917 -2.57872e-06 4.33247e-08)
(0.0008108 -3.72966e-06 4.87826e-08)
(0.00107874 -4.11977e-06 1.83789e-07)
(0.000808095 -1.63415e-06 4.42771e-08)
(0.000809464 -2.72981e-06 2.59287e-08)
(0.00107758 -2.79403e-06 2.42269e-07)
(0.000807125 -7.54171e-07 4.87807e-08)
(0.000808215 -1.46651e-06 4.96013e-08)
(0.00107624 -1.59183e-06 1.78076e-07)
(0.000805118 -2.40826e-07 5.98754e-08)
(0.00080659 -8.07205e-07 5.35584e-08)
(0.00107435 -4.83793e-07 1.40098e-07)
(0.000803486 -2.34966e-07 6.40621e-08)
(0.000804481 -6.56108e-07 6.28382e-08)
(0.00107178 -2.61503e-07 2.40273e-07)
(0.000802123 -3.29391e-07 5.62015e-08)
(0.00080285 -3.44592e-07 4.10728e-08)
(0.00106979 -4.45698e-07 2.0327e-07)
(0.000801013 -2.73119e-07 5.16743e-08)
(0.000801613 -1.10976e-07 7.22694e-08)
(0.00106829 -4.43261e-07 2.08971e-07)
(0.000799472 -2.07827e-07 4.73863e-08)
(0.000800153 -6.69753e-08 5.92829e-08)
(0.00106642 -2.24357e-07 1.78271e-07)
(0.000797812 -2.17119e-07 5.25859e-08)
(0.000798553 9.53815e-08 8.18833e-08)
(0.00106426 -2.45675e-07 1.81103e-07)
(0.000796237 -1.25344e-07 6.03085e-08)
(0.00079718 -4.3334e-07 4.90107e-08)
(0.00106219 -2.62349e-07 2.04783e-07)
(0.000794842 7.66369e-08 7.72623e-08)
(0.000795815 -2.08548e-07 2.31187e-08)
(0.00106016 1.20478e-08 1.82626e-07)
(0.000793451 2.02687e-07 5.85515e-08)
(0.00079424 -1.24958e-06 5.33904e-08)
(0.00105827 2.96122e-07 2.08585e-07)
(0.000792172 1.5349e-07 3.82617e-08)
(0.000792694 5.18695e-07 4.61895e-08)
(0.00105651 3.31188e-07 1.1867e-07)
(0.00079064 1.0335e-07 6.37392e-08)
(0.000791281 5.64658e-08 4.82587e-08)
(0.00105479 1.14251e-07 1.76188e-07)
(0.000788935 -4.40461e-08 5.85134e-08)
(0.000789634 8.32113e-07 8.25737e-08)
(0.00105247 1.62876e-07 4.87594e-08)
(0.000787597 -3.50081e-07 5.98849e-08)
(0.000788038 1.05925e-07 6.09079e-08)
(0.00105037 -3.18296e-07 1.86301e-07)
(0.000785748 -5.31417e-07 6.24197e-08)
(0.000786638 -6.42716e-07 -2.00511e-08)
(0.00104836 -7.08564e-07 3.63302e-07)
(0.00078459 -5.07044e-07 6.2477e-08)
(0.000785153 -5.8454e-07 3.26208e-08)
(0.0010462 -7.8121e-07 3.18885e-07)
(0.000782927 -2.9608e-07 6.5466e-08)
(0.000783893 -1.89858e-07 1.04116e-07)
(0.00104439 -5.83748e-07 1.82693e-07)
(0.000781949 -3.70901e-08 5.27099e-08)
(0.000782727 -6.61811e-07 7.8142e-08)
(0.00104278 -2.00961e-07 1.83628e-07)
(0.000780332 9.42503e-08 6.27978e-08)
(0.000781204 1.29153e-07 5.00961e-08)
(0.00104102 1.10336e-07 1.63417e-07)
(0.000778787 8.26151e-08 5.66472e-08)
(0.000779575 5.02934e-08 5.28633e-08)
(0.00103885 1.76523e-07 1.51397e-07)
(0.000777056 1.41773e-07 3.89295e-08)
(0.000778144 3.21524e-07 5.50729e-08)
(0.00103663 8.3478e-08 1.81528e-07)
(0.000775525 3.99818e-07 6.66297e-08)
(0.000776702 4.09877e-07 1.79051e-08)
(0.00103434 3.08568e-07 1.49363e-07)
(0.000775247 3.82104e-07 9.16317e-08)
(0.000775327 -2.54919e-06 7.74974e-08)
(0.00103322 7.68313e-07 2.24443e-07)
(0.000773373 1.01263e-07 5.60557e-08)
(0.000773891 3.81045e-07 5.43902e-08)
(0.00103189 2.95657e-07 1.76892e-07)
(0.000771924 -3.98363e-09 5.12843e-08)
(0.000772418 4.11274e-08 3.34107e-08)
(0.00102958 3.47262e-08 1.72194e-07)
(0.000770668 -3.28932e-07 7.76935e-08)
(0.000770939 -1.3966e-07 7.06261e-08)
(0.00102768 -1.04237e-08 1.6532e-07)
(0.000769518 -5.79832e-07 4.15688e-08)
(0.00076975 1.61313e-06 7.86341e-08)
(0.00102633 -8.05752e-07 1.4876e-07)
(0.000767279 -3.90738e-07 1.97148e-08)
(0.000768524 2.25586e-06 4.49593e-08)
(0.00102394 -6.52475e-07 8.16444e-08)
(0.000765972 -1.8968e-07 3.24415e-08)
(0.000766964 -2.70723e-07 4.62029e-08)
(0.00102152 -3.45912e-07 1.74753e-07)
(0.00076458 -2.20577e-08 4.3077e-08)
(0.00076549 2.22066e-07 4.06796e-08)
(0.00101978 -1.78529e-07 1.51171e-07)
(0.000763769 -9.8035e-09 1.13355e-07)
(0.000764179 -9.09449e-07 4.98577e-08)
(0.00101822 6.52963e-08 1.72906e-07)
(0.000762225 -2.36233e-07 1.06701e-07)
(0.000762861 1.74692e-07 6.3385e-08)
(0.00101682 -1.61047e-07 1.71975e-07)
(0.000760515 -3.55488e-07 2.89154e-08)
(0.000761317 -3.0379e-07 4.13204e-08)
(0.00101449 -4.93906e-07 2.09877e-07)
(0.000760009 8.61851e-07 6.14167e-08)
(0.00101232 -4.31591e-07 1.11522e-07)
(0.00166419 -0.0192536 0.000779775)
(0.0116662 -0.0131227 0.00055348)
(0.00873304 -0.0204075 -0.00131278)
(0.0100689 -0.0138403 -0.000656485)
(4.08121e-05 -0.0020045 0.000195193)
(0.00101115 -0.00107152 -0.000354423)
(0.00312555 -0.00523267 -0.000309229)
(0.00411408 -0.00408806 -0.000462351)
(-0.00133706 0.00227346 -0.000228587)
(0.010972 0.00333559 0.00111866)
(0.000787547 0.00610696 3.72964e-05)
(0.0155053 0.0100031 0.000639743)
(0.0121976 0.00919608 -6.15717e-05)
(0.0141913 -0.0105699 -0.000876229)
(0.00920372 0.00848971 -0.00221077)
(0.0213548 0.00777715 0.00221262)
(0.0209856 -0.000249113 0.00107586)
(0.00724266 -0.00978704 -0.000578054)
(0.00384959 0.00481515 -0.000647374)
(0.0170373 0.000650303 0.000173597)
(0.0203112 0.00256594 0.00340012)
(-0.0138642 0.00738229 0.00558088)
(0.0205052 0.00354883 -0.0225249)
(0.0291457 0.00139577 0.00810583)
(0.0103086 -0.00157661 8.31637e-05)
(0.0112172 -0.00332861 0.000590704)
(0.0181458 -0.014495 -0.00310538)
(0.00894173 -0.00459339 -0.00151329)
(-0.0201972 0.00224774 0.00430642)
(-0.0160443 -0.00252243 0.00330208)
(-0.00149434 -0.0169524 0.0234758)
(-0.0421958 0.00354155 -0.0261509)
(-0.0590131 -0.00736043 0.0274738)
(-0.0454552 -0.0374818 -0.00357742)
(-0.00351349 0.00311984 -0.00672968)
(-0.0960719 -0.0281855 -0.000487038)
(-0.0612744 -0.0281599 -0.00237325)
(-0.0287907 -0.000563763 -0.00512366)
(0.00553131 -0.0486763 -0.00122575)
(-0.0169325 -0.0137272 0.00240574)
(-0.0253335 -0.0529709 -0.00219072)
(0.0128438 -0.0345972 1.84815e-05)
(0.0181085 -0.00338105 -0.000942827)
(-0.0223856 0.0148457 -0.00354884)
(0.0250263 -0.00567967 -0.000197868)
(0.0295266 -0.0172031 -0.00134251)
(0.0352123 -0.0049439 -0.00305809)
(0.000382485 -0.000101011 7.08943e-07)
(0.000373881 -0.000106003 -2.27954e-07)
(0.000403792 -0.000166794 -2.42059e-06)
(0.000657599 -0.000348172 1.11181e-05)
(0.000380426 -0.000119566 1.96671e-05)
(0.000690664 -0.000160037 4.65786e-06)
(0.000444066 -0.000204639 8.2526e-05)
(0.000285292 -0.000144375 -1.28492e-06)
(0.000526369 -0.000251619 1.07101e-06)
(0.000624115 -0.000207063 -4.70445e-06)
(0.000319511 -0.000125866 -2.44103e-06)
(0.000819284 -0.000103325 -7.57944e-07)
(0.000940971 -0.000129447 -1.50558e-06)
(0.00113871 -0.00017483 -1.07295e-06)
(0.000567872 -0.0001287 -3.93243e-06)
(0.000609921 -0.000141462 -5.24963e-06)
(0.000931329 -0.0002516 -4.05793e-06)
(0.00101563 -0.000282868 -5.92899e-06)
(0.000823384 -6.15472e-05 -2.57991e-08)
(0.000847132 -7.30054e-05 -4.52106e-07)
(0.00108377 -0.000106123 1.29754e-07)
(0.000822485 -3.57352e-05 1.21937e-07)
(0.00084315 -4.13159e-05 1.35527e-07)
(0.00109844 -6.08423e-05 2.10819e-07)
(0.00082013 -2.12124e-05 5.52022e-08)
(0.000830873 -2.38945e-05 6.10232e-08)
(0.00109374 -3.60731e-05 1.85295e-07)
(0.000817618 -1.26885e-05 5.58401e-08)
(0.000824333 -1.40612e-05 4.66441e-08)
(0.00109101 -2.14213e-05 1.85361e-07)
(0.000815284 -7.8632e-06 4.89326e-08)
(0.000819554 -8.44885e-06 4.55807e-08)
(0.00108782 -1.29519e-05 1.83545e-07)
(0.000813066 -4.98019e-06 4.73532e-08)
(0.000816009 -5.28653e-06 4.62979e-08)
(0.00108487 -8.3297e-06 1.80812e-07)
(0.000811093 -3.13984e-06 3.1394e-08)
(0.000813119 -3.27259e-06 4.89963e-08)
(0.00108208 -5.13486e-06 1.7981e-07)
(0.000809507 -2.05985e-06 3.12453e-08)
(0.000810826 -2.07743e-06 3.16445e-08)
(0.00107974 -3.34321e-06 1.3379e-07)
(0.000807961 -1.58375e-06 5.43777e-08)
(0.000808818 -1.46732e-06 5.19616e-08)
(0.00107776 -2.1947e-06 1.75845e-07)
(0.000805936 -1.2648e-06 5.65182e-08)
(0.000806994 6.84782e-08 8.30391e-08)
(0.00107536 -2.00075e-06 1.57171e-07)
(0.000803588 -7.20326e-07 3.9856e-08)
(0.000805166 1.33103e-06 9.3126e-08)
(0.0010724 -1.30041e-06 1.08831e-07)
(0.00080236 -2.7001e-07 5.71308e-08)
(0.000803414 -8.25666e-07 3.29242e-08)
(0.00107009 -5.64874e-07 1.83254e-07)
(0.00080078 -1.14216e-07 7.98822e-08)
(0.000801808 -6.95237e-08 4.23856e-08)
(0.00106827 -1.21137e-07 1.7802e-07)
(0.000799333 -5.21628e-08 9.37727e-08)
(0.00080023 -2.26913e-07 5.99345e-08)
(0.00106619 -1.41695e-07 1.80873e-07)
(0.000797776 9.34381e-08 7.83186e-08)
(0.000798734 9.60165e-08 6.75288e-08)
(0.00106408 1.07915e-07 1.79717e-07)
(0.000796791 1.12231e-07 1.18291e-08)
(0.000797202 -2.87858e-07 1.70829e-08)
(0.00106256 2.72238e-07 1.20095e-07)
(0.000795254 5.09481e-08 -7.62874e-10)
(0.000795737 -1.61201e-08 1.47284e-08)
(0.00106091 1.21033e-07 1.65484e-07)
(0.000793474 3.02014e-08 4.10306e-08)
(0.000794213 -2.10472e-08 5.53209e-08)
(0.00105855 8.85034e-08 1.14356e-07)
(0.000791779 -5.03892e-08 5.61858e-08)
(0.000792593 -1.3491e-08 6.21583e-08)
(0.00105619 5.12576e-08 2.30776e-07)
(0.000790326 -2.71686e-07 6.70825e-08)
(0.000791005 5.10886e-08 5.26554e-08)
(0.00105419 -1.62301e-07 1.72929e-07)
(0.000788642 -3.61059e-07 8.49751e-08)
(0.000789524 -4.07226e-07 4.70677e-08)
(0.00105207 -6.18512e-07 2.8062e-07)
(0.000787201 -2.76106e-07 -1.90027e-08)
(0.000788147 -8.20299e-08 5.15968e-08)
(0.00104984 -4.24752e-07 1.85234e-07)
(0.000785893 -1.78821e-07 -4.98665e-08)
(0.000786761 2.30648e-07 5.63196e-08)
(0.00104819 -3.60697e-07 9.89636e-08)
(0.000784498 1.20503e-07 7.42372e-08)
(0.000785527 4.07238e-07 4.35084e-08)
(0.0010464 -1.62791e-07 9.83575e-08)
(0.000783652 3.56005e-07 1.168e-07)
(0.000784186 -2.37752e-06 6.36037e-08)
(0.00104484 4.88294e-07 2.75474e-07)
(0.000782143 2.34078e-07 7.5537e-08)
(0.000782573 -1.79237e-06 6.03605e-08)
(0.00104339 5.12864e-07 2.5974e-07)
(0.000780291 1.1029e-07 4.01607e-08)
(0.000781048 7.07165e-07 6.95821e-08)
(0.00104109 1.51132e-07 1.68847e-07)
(0.000778979 1.42766e-07 5.12883e-08)
(0.000779614 -5.8021e-08 4.41157e-08)
(0.00103887 1.57216e-07 1.69697e-07)
(0.000777786 2.74466e-07 3.406e-08)
(0.000778307 -1.3134e-07 9.78863e-08)
(0.00103722 2.29137e-07 1.84024e-07)
(0.000776462 5.36811e-07 2.87544e-08)
(0.000777028 1.0695e-07 2.57754e-08)
(0.00103566 5.09294e-07 1.85213e-07)
(0.000774073 5.06342e-07 4.0263e-08)
(0.000775286 -7.76781e-07 4.13017e-08)
(0.0010331 9.13595e-07 1.31764e-07)
(0.000772833 2.30241e-07 3.17517e-08)
(0.000773544 1.99665e-07 4.51858e-08)
(0.0010306 4.64472e-07 1.69088e-07)
(0.000771504 5.4834e-08 5.2741e-08)
(0.000772198 8.09047e-09 3.43721e-08)
(0.00102899 1.874e-07 1.66536e-07)
(0.000769867 -1.49005e-07 7.15642e-08)
(0.000770684 1.71868e-07 6.43018e-08)
(0.00102692 -6.32861e-08 1.69411e-07)
(0.000768884 -4.86126e-07 8.2035e-08)
(0.00076933 5.57977e-07 8.28854e-08)
(0.00102512 -3.85158e-07 2.09236e-07)
(0.000768244 -4.55131e-07 7.14471e-08)
(0.000768565 1.91662e-07 1.12825e-07)
(0.00102423 -9.22198e-07 2.51417e-07)
(0.000766423 -1.14998e-07 5.44427e-08)
(0.000767391 1.38651e-07 6.99124e-08)
(0.00102249 -2.78548e-07 1.79117e-07)
(0.000765028 1.55495e-07 4.74576e-08)
(0.000765829 1.84314e-08 5.01127e-08)
(0.00102032 -7.1064e-08 1.84963e-07)
(0.000763369 2.08578e-07 -1.16391e-10)
(0.000764246 -1.09136e-06 7.25058e-08)
(0.00101835 4.15827e-07 2.07507e-07)
(0.000761918 1.00572e-09 -1.98888e-09)
(0.000762602 2.5345e-07 1.60805e-08)
(0.00101624 8.39917e-08 1.69512e-07)
(0.000760738 -1.16117e-07 7.38156e-08)
(0.000761173 1.19192e-07 4.86201e-08)
(0.0010144 -1.42543e-07 1.19517e-07)
(0.000760152 -1.00861e-07 1.10164e-07)
(0.00101303 -2.16429e-07 2.2959e-07)
(0.00398358 -0.0137911 -0.00045085)
(0.00418913 -0.00146309 -0.000198691)
(-0.00117054 -0.00577171 -0.00148176)
(0.000585422 0.00349349 -0.000180753)
(0.013061 -0.000766101 0.00151007)
(-0.00444375 0.0111476 0.00197727)
(0.0027414 0.00629978 -0.000633515)
(-0.00265264 0.0173228 0.0127089)
(-0.0095997 0.00586108 -0.00928856)
(-0.00602473 0.0174315 -0.00652123)
(0.00520689 0.0117888 0.00803437)
(0.00495756 0.0370116 -0.00137917)
(-0.0131742 0.0106095 0.00106395)
(-0.00837779 0.0193239 0.00123817)
(0.00660637 0.019151 -0.000218544)
(-0.00828548 0.00892554 -0.00154651)
(0.00175709 -0.0163479 -0.000258194)
(-0.00497509 0.0282637 0.000233282)
(-0.00320153 0.0151173 -0.0034652)
(-0.00257824 0.00749008 -0.00447985)
(-0.0259322 -0.0451575 -0.00280521)
(-0.0416596 -0.0119311 -0.00220926)
(-0.00216687 0.0208902 -0.0031009)
(-0.0330492 -0.0202375 -0.00896351)
(0.0123969 -0.0159808 -0.0032986)
(-0.00270612 -0.00204559 4.96602e-05)
(0.00564373 0.0181543 0.00289561)
(0.00386986 -0.0040131 0.000647369)
(0.0223872 0.00167175 0.00213258)
(0.0289145 -0.00125289 0.00211485)
(-0.0135002 0.00548323 0.000789343)
(-0.0311287 0.00809766 -0.00186752)
(-0.0238364 -0.0171046 0.00136795)
(0.00438577 -0.0249258 0.000423277)
(-0.0368036 -0.00477028 -0.000195875)
(-0.008966 -0.011106 -0.00142043)
(-0.00459402 -0.0108914 -0.00185814)
(-0.00766734 -0.017243 -0.00328777)
(0.00079904 -5.07138e-05 7.30564e-05)
(0.000431306 -0.000106286 8.58639e-06)
(0.0004389 -3.88088e-05 1.6006e-05)
(0.000932156 -9.75056e-05 2.91616e-05)
(0.000399439 -3.37084e-05 4.4835e-06)
(0.000921311 -7.58659e-05 -1.20009e-06)
(0.00100953 -5.31453e-05 -2.31127e-06)
(0.00136725 -0.000138303 -1.31832e-06)
(0.000706809 -0.000111829 -6.05656e-06)
(0.000742844 -6.84152e-05 -6.95538e-06)
(0.0011702 -0.000224519 -6.53722e-06)
(0.00124395 -0.000124264 -7.04963e-06)
(0.000873408 -4.05257e-05 -2.90972e-07)
(0.000891528 -1.30398e-05 -5.13369e-07)
(0.00117292 -6.96625e-05 3.5728e-08)
(0.000849228 -2.38732e-05 7.46377e-08)
(0.000864101 -1.33522e-05 5.59757e-09)
(0.00114779 -4.16456e-05 1.97732e-07)
(0.000834701 -1.38876e-05 5.24698e-08)
(0.000843434 -7.66342e-06 4.14137e-08)
(0.00112018 -2.39252e-05 1.74301e-07)
(0.000825862 -8.35904e-06 3.63851e-08)
(0.000831291 -5.04043e-06 2.79502e-08)
(0.00110569 -1.42608e-05 1.80871e-07)
(0.000820103 -5.14997e-06 4.29458e-08)
(0.000823593 -3.28726e-06 3.9807e-08)
(0.0010963 -8.72556e-06 1.81217e-07)
(0.00081592 -3.21099e-06 4.79402e-08)
(0.00081845 -2.09898e-06 4.59412e-08)
(0.00108989 -5.42045e-06 1.81574e-07)
(0.000812715 -2.02056e-06 4.92524e-08)
(0.000814617 -1.29916e-06 4.61394e-08)
(0.00108502 -3.38361e-06 1.81411e-07)
(0.000810137 -1.36623e-06 5.23542e-08)
(0.00081165 -8.40804e-07 4.75901e-08)
(0.00108128 -2.13661e-06 1.78775e-07)
(0.000807752 -1.10556e-06 8.06129e-08)
(0.000809148 -5.35644e-07 5.08878e-08)
(0.00107794 -1.5622e-06 1.83862e-07)
(0.000806351 -1.05062e-06 1.19644e-07)
(0.000807067 -1.2611e-06 6.81248e-08)
(0.00107549 -1.37839e-06 2.55492e-07)
(0.000804826 -7.85494e-07 8.62136e-08)
(0.0008055 8.4486e-07 8.55386e-08)
(0.00107358 -1.35801e-06 2.08782e-07)
(0.00080293 -4.43534e-07 1.8176e-08)
(0.000803844 -3.09908e-07 3.51103e-08)
(0.00107127 -6.78018e-07 1.7204e-07)
(0.000801165 -2.4221e-07 2.24323e-08)
(0.000802061 9.99186e-07 5.34694e-08)
(0.00106882 -4.74906e-07 1.22715e-07)
(0.000799646 -2.2165e-08 3.36882e-08)
(0.000800505 -2.20022e-07 4.88361e-08)
(0.0010667 -1.4816e-07 1.75645e-07)
(0.000798183 1.33974e-07 6.3092e-09)
(0.000798928 7.11812e-08 -9.08831e-10)
(0.00106478 1.19786e-07 1.7328e-07)
(0.000796083 1.22553e-07 1.9983e-08)
(0.000797186 -1.43686e-07 3.04522e-08)
(0.0010622 2.84295e-07 2.17443e-07)
(0.000794755 -1.28701e-08 7.07993e-08)
(0.000795567 -1.83287e-07 3.76783e-08)
(0.00105993 5.65017e-08 1.72216e-07)
(0.00079333 -1.02086e-07 7.64464e-08)
(0.000794102 -1.584e-07 6.23368e-08)
(0.00105818 -8.42733e-08 1.79039e-07)
(0.000791813 -9.04177e-08 5.86308e-08)
(0.000792607 1.40183e-08 6.07296e-08)
(0.0010562 -1.51489e-07 1.75853e-07)
(0.000790189 -3.76482e-08 3.26423e-08)
(0.000791071 -7.4568e-08 5.81213e-08)
(0.00105395 -3.80884e-08 1.96419e-07)
(0.000788965 1.98383e-07 1.36879e-08)
(0.000789818 4.21216e-07 1.91544e-08)
(0.00105214 -1.53187e-08 9.43282e-08)
(0.000787808 4.43494e-07 1.26918e-07)
(0.000788451 7.25048e-07 2.95989e-08)
(0.0010507 6.01444e-07 9.00389e-08)
(0.000786254 4.77802e-07 1.49699e-07)
(0.000786801 3.4937e-07 1.61507e-07)
(0.00104869 6.91314e-07 1.74033e-07)
(0.000785326 4.79655e-07 3.28686e-08)
(0.000785527 4.91057e-07 3.71147e-08)
(0.00104726 6.95344e-07 1.21406e-07)
(0.000783097 3.68959e-07 7.16529e-09)
(0.000784045 3.50285e-09 2.13659e-08)
(0.00104523 6.2763e-07 7.38273e-08)
(0.000781465 1.33981e-07 5.44027e-08)
(0.000782278 1.77813e-07 3.19181e-08)
(0.00104235 3.80169e-07 5.00589e-08)
(0.000780328 5.31004e-08 7.3545e-08)
(0.000780946 2.56354e-07 6.77401e-08)
(0.00104057 5.91266e-09 1.78419e-07)
(0.000778907 9.27305e-08 9.0697e-08)
(0.000779664 -1.10598e-07 5.0275e-08)
(0.00103895 1.30925e-07 1.75519e-07)
(0.000777589 3.28178e-08 8.96241e-08)
(0.000778232 -1.04425e-08 1.28439e-07)
(0.00103707 1.09509e-07 1.54199e-07)
(0.000776077 -1.02216e-07 3.83179e-08)
(0.000776859 9.92115e-09 4.87925e-08)
(0.00103519 -6.00799e-09 1.87204e-07)
(0.000774474 -1.08829e-07 4.62232e-08)
(0.000775278 -2.53335e-07 2.10842e-08)
(0.00103315 -2.31085e-07 1.50988e-07)
(0.000772949 3.52424e-08 4.78095e-08)
(0.000773724 -2.78495e-07 5.27702e-08)
(0.00103098 -3.20422e-08 2.16019e-07)
(0.000771494 1.35988e-07 4.59237e-08)
(0.000772324 6.76738e-08 3.94098e-08)
(0.00102892 1.03087e-07 1.71234e-07)
(0.000770048 3.57725e-07 7.56172e-08)
(0.00077096 6.65632e-08 6.80591e-08)
(0.00102696 2.28767e-07 1.8217e-07)
(0.000768719 5.73583e-07 1.13666e-07)
(0.000769598 3.35878e-07 9.4141e-08)
(0.00102526 7.41969e-07 1.80306e-07)
(0.000768133 4.22661e-07 1.11303e-07)
(0.000768374 -7.02598e-07 2.04125e-08)
(0.00102408 8.06118e-07 1.61787e-07)
(0.000766682 2.39808e-07 6.55885e-08)
(0.000767161 2.45252e-07 6.39002e-08)
(0.00102259 3.60441e-07 1.67478e-07)
(0.000765139 2.5616e-07 7.51541e-08)
(0.000765847 1.5654e-07 5.90189e-08)
(0.00102065 3.52675e-07 1.73666e-07)
(0.000763364 3.47209e-07 8.87199e-08)
(0.000764358 -5.17824e-08 8.55126e-08)
(0.00101842 3.75984e-07 1.29006e-07)
(0.000761875 3.29941e-07 6.66796e-08)
(0.000762579 4.12357e-07 6.19813e-08)
(0.00101612 5.53843e-07 1.67089e-07)
(0.000760424 1.77469e-07 8.49494e-08)
(0.000760981 1.51587e-07 5.39486e-08)
(0.00101412 2.97441e-07 1.72841e-07)
(0.00075993 -7.1708e-07 1.42443e-07)
(0.00101277 1.5696e-07 1.88643e-07)
(0.0169406 7.32008e-05 0.00136393)
(0.00119383 0.0136169 0.00240049)
(-0.00337619 -0.00425155 0.0216888)
(-0.00452767 -0.00928336 0.078406)
(0.00865304 -0.00159064 -0.154025)
(0.0345381 -0.00853819 0.0012911)
(0.00161744 0.00494584 0.0640667)
(0.0124419 -0.014682 0.00186764)
(-0.00119599 -0.00813448 0.00186072)
(0.00183206 -0.0247755 -0.000504546)
(0.0183875 -0.00532037 -0.000466295)
(0.01872 -0.0231082 0.00165785)
(-4.71704e-05 -0.0100777 0.00122864)
(-0.00714706 -0.00469003 0.000280209)
(0.00466329 -0.0083129 0.000475588)
(0.00414985 -0.000116631 0.000316281)
(-0.0136527 -0.0211837 -0.000301147)
(-0.00685393 -0.00859297 0.00220141)
(-0.00548057 0.00747307 0.0013405)
(-0.00303472 -0.005836 -0.0188747)
(-0.0119533 0.0108231 -0.0099985)
(-0.02358 0.00503864 0.0184359)
(-0.00766624 -0.0185938 0.0120861)
(0.0028391 0.00379769 -0.000689105)
(0.00511174 -0.000490001 0.000767045)
(0.00527778 0.0117949 0.000576837)
(0.0106906 0.00560832 8.4505e-06)
(0.0136408 0.0147491 0.0012572)
(-0.0060191 0.00216772 -7.40389e-05)
(0.00663771 0.00757715 0.00113399)
(-0.00131924 0.0162726 0.000578632)
(-0.0189618 0.00241255 0.00105215)
(-0.0198405 0.0183035 -0.00494887)
(-0.0175961 0.0223488 -0.00807125)
(0.00449779 -0.00211252 0.0227402)
(-0.0420258 0.0524845 -0.0221174)
(-0.00329855 0.00912377 -0.000684932)
(-0.000729012 0.00769427 0.000440027)
(0.00530502 0.00429091 -9.02353e-05)
(-0.00153458 0.00693793 -0.000176834)
(0.0053685 0.00523177 -0.000360538)
(0.00236175 0.000236228 0.000105331)
(0.000609083 -0.000176106 7.41665e-05)
(0.000724079 -9.59317e-05 5.89027e-05)
(0.000880379 -0.00010904 0.000142572)
(0.000606764 -8.58413e-05 4.41958e-05)
(0.000938424 8.77117e-06 -1.62514e-06)
(0.000674958 4.08089e-05 -1.66467e-06)
(0.00132625 -1.60548e-05 -1.59902e-06)
(0.000733755 3.74483e-05 -5.7924e-06)
(0.00071869 2.52246e-05 -2.33326e-06)
(0.00125869 8.32712e-05 -2.38117e-06)
(0.00126312 6.05437e-05 3.30174e-06)
(0.000630899 6.23436e-06 -4.87887e-06)
(0.00113746 8.83862e-05 -1.38892e-06)
(0.00103437 2.56982e-05 -5.87962e-06)
(0.000882758 1.59159e-05 -2.16969e-07)
(0.000910036 5.57454e-05 -6.57798e-07)
(0.00120512 3.49394e-05 9.86708e-08)
(0.000855694 3.42681e-06 -2.76381e-08)
(0.00084846 1.86422e-05 -3.08435e-07)
(0.00115595 4.62403e-06 1.68986e-07)
(0.00083892 1.62427e-06 1.68985e-08)
(0.000841161 1.12907e-05 9.90228e-08)
(0.00112817 2.84333e-06 1.80477e-07)
(0.000828233 2.50754e-07 3.13683e-08)
(0.000829564 6.14964e-06 4.54338e-08)
(0.00111013 4.68572e-07 1.90343e-07)
(0.000821595 -1.3952e-07 4.28004e-08)
(0.000823101 2.94851e-06 6.37868e-08)
(0.00109894 -4.02405e-07 1.82767e-07)
(0.000816917 -6.1078e-08 4.41404e-08)
(0.000818546 1.70962e-06 4.83829e-08)
(0.00109159 -3.3437e-07 1.81262e-07)
(0.000813413 4.37434e-08 4.44766e-08)
(0.000814747 1.11929e-06 3.45178e-08)
(0.00108621 -4.18521e-08 1.76489e-07)
(0.000810601 1.73594e-08 4.61227e-08)
(0.000811616 6.99199e-07 2.87661e-08)
(0.00108204 3.80736e-08 1.78056e-07)
(0.000808324 7.69312e-08 3.83942e-08)
(0.000809222 3.89754e-07 4.80996e-08)
(0.00107872 -5.82157e-08 1.75002e-07)
(0.000806063 9.87831e-08 3.40142e-08)
(0.000807093 4.23127e-07 4.00454e-08)
(0.00107562 2.16601e-07 1.21739e-07)
(0.000804755 -1.11844e-07 3.44515e-08)
(0.000805237 4.33463e-07 1.03483e-07)
(0.00107329 -3.388e-09 1.84854e-07)
(0.000802833 -2.21353e-07 7.03978e-08)
(0.000803707 1.16342e-07 4.52306e-08)
(0.00107119 -3.38212e-07 1.80566e-07)
(0.000801416 -1.90246e-07 7.98746e-08)
(0.0008021 8.40102e-08 8.76457e-08)
(0.00106894 -2.76094e-07 2.30221e-07)
(0.000799717 -2.11895e-07 1.4255e-08)
(0.000800479 -1.22747e-08 3.66181e-08)
(0.00106693 -2.50199e-07 1.77265e-07)
(0.000798036 -2.24062e-07 2.32242e-08)
(0.000798914 1.00172e-06 3.50633e-08)
(0.00106462 -3.52935e-07 1.25798e-07)
(0.000796592 -8.04371e-08 4.81451e-08)
(0.000797367 -1.33214e-07 8.39873e-08)
(0.00106248 -2.78234e-07 1.69538e-07)
(0.000794899 1.06365e-07 2.92079e-08)
(0.000795801 -2.49566e-08 5.08373e-08)
(0.00106045 4.16709e-08 1.81427e-07)
(0.000793366 2.29234e-07 4.66204e-08)
(0.000794255 -7.0812e-08 4.84235e-08)
(0.00105829 2.16203e-07 1.72769e-07)
(0.000791896 3.60164e-07 6.02209e-08)
(0.000792769 1.03089e-08 6.49851e-08)
(0.00105625 3.8712e-07 1.73902e-07)
(0.000790602 5.76397e-07 4.46456e-08)
(0.000791339 6.08437e-07 3.31965e-08)
(0.00105436 6.01906e-07 1.10517e-07)
(0.000789446 6.37667e-07 3.50621e-08)
(0.000789891 8.68059e-07 2.56113e-08)
(0.00105286 1.02893e-06 1.15365e-07)
(0.000787376 4.50494e-07 6.41466e-08)
(0.000788213 3.81488e-07 5.01859e-08)
(0.00105072 8.01311e-07 2.51813e-07)
(0.000785984 4.11919e-07 4.8962e-08)
(0.00078675 3.57654e-07 4.88381e-08)
(0.0010483 5.43974e-07 1.67576e-07)
(0.000784472 2.298e-07 2.56169e-08)
(0.000785297 2.95732e-07 1.42935e-08)
(0.00104631 7.14246e-07 1.92829e-07)
(0.000783083 -1.77856e-08 4.61155e-08)
(0.000783734 -8.39263e-08 5.75337e-08)
(0.00104444 3.47402e-08 1.74447e-07)
(0.000781653 8.8886e-08 4.52443e-08)
(0.000782411 1.65069e-07 4.89456e-08)
(0.00104261 -1.1129e-08 1.73197e-07)
(0.000780428 1.36215e-07 4.44754e-08)
(0.000781005 4.77147e-07 5.53649e-08)
(0.00104078 2.55669e-07 1.38429e-07)
(0.00077888 4.41488e-08 8.79926e-08)
(0.000779548 -1.53445e-09 4.63076e-08)
(0.001039 9.79619e-08 1.75292e-07)
(0.00077758 -4.35812e-08 8.76321e-08)
(0.000778123 -1.02461e-07 8.92099e-08)
(0.00103704 7.74005e-09 1.6779e-07)
(0.000776091 -1.66498e-07 3.15674e-08)
(0.000776707 2.77676e-07 6.79406e-08)
(0.00103523 -1.38281e-07 1.59017e-07)
(0.000774412 -2.22662e-07 2.76214e-08)
(0.000775209 -2.31781e-07 2.89146e-08)
(0.00103307 -3.47635e-07 1.93814e-07)
(0.000773186 -1.18425e-07 4.43746e-08)
(0.000773855 -2.19909e-07 -3.31805e-08)
(0.00103102 -3.28317e-07 1.50574e-07)
(0.00077178 4.85234e-08 6.15363e-08)
(0.000772533 5.55806e-09 6.58299e-08)
(0.00102932 -4.24446e-08 1.75576e-07)
(0.000770497 2.13894e-07 8.65749e-08)
(0.000771166 -8.70395e-07 2.39066e-07)
(0.00102771 2.05043e-07 2.27621e-07)
(0.000769142 4.32172e-07 9.10408e-10)
(0.000769869 4.40258e-07 5.69819e-08)
(0.00102584 4.55032e-07 1.58988e-07)
(0.000767444 3.9716e-07 -2.70037e-08)
(0.000768328 -7.50044e-07 -2.51443e-08)
(0.00102374 7.41594e-07 2.01107e-07)
(0.000766376 1.73321e-07 5.73321e-08)
(0.00076688 8.9261e-08 4.64789e-08)
(0.00102192 3.04008e-07 1.51777e-07)
(0.000765119 9.29848e-08 6.93693e-08)
(0.000765747 3.87692e-08 5.96004e-08)
(0.00102034 1.44143e-07 1.66259e-07)
(0.00076364 2.0409e-07 5.87812e-08)
(0.000764497 1.07931e-06 4.0235e-08)
(0.0010186 7.66414e-08 9.54402e-08)
(0.000761564 2.58459e-07 4.92527e-08)
(0.000762646 1.27807e-06 4.64773e-08)
(0.00101614 4.08274e-07 1.68986e-07)
(0.000760359 2.06973e-07 1.11415e-07)
(0.000760913 -4.33256e-08 4.69832e-08)
(0.0010139 2.45902e-07 1.67005e-07)
(0.000759673 -1.16547e-06 1.15404e-07)
(0.00101247 3.09926e-07 2.02924e-07)
(0.00391235 0.0120951 -0.000355859)
(0.0027563 0.00147613 0.00253397)
(0.00269944 0.00495997 3.69766e-05)
(-0.004476 0.00551912 0.00330721)
(0.00239922 0.0112619 0.00760238)
(0.0111099 -0.00453789 0.00367312)
(0.00490059 -0.0120107 -0.0134412)
(-0.00102558 0.00356466 0.000500677)
(-0.00177929 -0.0032122 0.000999965)
(-0.00258557 0.00946889 0.000654939)
(-0.00758677 0.00119641 0.00120529)
(0.00329093 0.00178338 0.00278423)
(0.0014764 -0.00215492 -0.000171013)
(0.00361812 -0.00133325 -0.00031207)
(0.00773274 -0.0102934 -5.50692e-05)
(-0.00804134 -0.00741164 0.000161975)
(0.00670355 -0.00207065 0.000158085)
(0.0226378 -0.0086283 0.000384923)
(0.0173569 0.000788855 -0.00012413)
(0.035449 -0.00975239 -0.000697745)
(0.0192907 -0.00284201 0.000652863)
(0.0280611 -0.0115022 -0.00098872)
(0.0169451 0.000972787 -0.000295682)
(0.013768 -0.0155863 -0.0036)
(0.0100432 0.000192497 -0.00234868)
(0.00376421 -6.85015e-05 0.000526264)
(0.00216437 0.00153585 0.000162015)
(-0.00231664 0.000884293 0.000249979)
(-0.00208189 -0.00928409 9.82747e-05)
(0.00410101 -0.00476976 0.000514626)
(-0.000285133 0.00142141 4.80785e-05)
(0.00609224 0.000557994 0.000156904)
(0.00460707 -0.00236038 0.000145192)
(0.00115795 -0.00432871 -0.000370542)
(0.0037749 0.00297574 0.000512193)
(0.000440161 0.000380556 4.83046e-05)
(0.00135163 0.000305213 -2.4227e-06)
(0.0014943 0.000354917 -9.80065e-06)
(0.00150277 0.000500615 -8.47211e-05)
(0.00140543 0.000155055 1.41773e-05)
(0.000364932 2.35829e-05 -2.83992e-06)
(0.000515007 3.87018e-05 -3.59194e-06)
(0.000508656 5.51022e-05 -1.54606e-07)
(0.000862633 8.71815e-05 -1.07542e-06)
(0.000360408 4.19101e-05 -2.73466e-06)
(0.000669294 3.7105e-05 -4.45061e-06)
(0.00065899 8.44465e-05 -3.7841e-06)
(0.000848011 4.48616e-05 -7.49378e-07)
(0.000898887 4.93568e-05 -9.56624e-07)
(0.00122415 8.27298e-05 -1.0054e-06)
(0.000626401 3.73567e-05 -4.23497e-06)
(0.000625728 5.05111e-05 -5.18399e-06)
(0.00103598 5.82021e-05 -5.23594e-06)
(0.00103308 9.06424e-05 -6.58753e-06)
(0.000837876 2.18304e-05 -1.81907e-07)
(0.000819565 3.08645e-05 -5.00738e-07)