/*--------------------------------*- C++ -*----------------------------------*\
| =========                 |                                                 |
| \\      /  F ield         | OpenFOAM: The Open Source CFD Toolbox           |
|  \\    /   O peration     | Version:  5.0                                   |
|   \\  /    A nd           | Web:      www.OpenFOAM.org                      |
|    \\/     M anipulation  |                                                 |
\*---------------------------------------------------------------------------*/
FoamFile
{
    version     2.0;
    format      ascii;
    class       surfaceVectorField;
    location    "1";
    object      Uf_0;
}
// * * * * * * * * * * * * * * * * * * * * * * * * * * * * * * * * * * * * * //

dimensions      [0 1 -1 0 0 0 0];

internalField   nonuniform List<vector> 
29617
(
(0.00462147 -0.00279609 -0.000164889)
(0.00428877 -0.00604502 -0.00113731)
(0.0083187 0.00730363 0.000270684)
(0.00604474 0.00900614 -0.00094842)
(0.00677798 0.00589174 -0.00140622)
(0.00678558 0.00414042 0.000121988)
(-0.00696852 -0.00534776 0.000231756)
(-0.00330245 -0.00224772 0.000889623)
(-0.00107853 -0.00231879 0.000374411)
(0.00297076 -0.00760212 0.000177345)
(-0.00181238 -0.000635919 0.000126406)
(-0.00278147 0.00257266 -0.000549427)
(0.00205382 -0.00954207 6.8287e-05)
(-0.00384452 0.0150905 -0.000332272)
(-0.0109291 0.0266316 -0.000394252)
(-0.00974202 0.0182311 -0.000632902)
(8.40429e-05 0.0235366 5.00301e-05)
(-0.0028102 0.0271241 0.000477319)
(-0.0234455 0.0217401 -0.000818204)
(-0.0269056 0.0178089 -0.00061797)
(-0.000570329 0.00272564 0.000126092)
(-0.00295941 -0.00922856 -0.000159183)
(0.00289341 -0.00236992 0.00100552)
(0.00334862 -0.00605679 7.52713e-05)
(0.0032785 0.00840681 0.00372274)
(-0.00958803 0.00890172 0.00246609)
(-0.0113561 0.00220609 0.00019721)
(-0.0165583 0.0119152 0.000186339)
(-0.00841455 0.00632023 0.000282936)
(-0.011036 0.0130001 -4.96253e-07)
(0.00793464 0.000359214 0.000325228)
(-0.00053071 0.00208464 -5.89464e-05)
(0.00179174 0.000314396 3.31776e-05)
(0.00154954 0.000335908 1.275e-05)
(0.00235125 0.00031854 -0.000142958)
(0.000218275 1.23456e-05 -1.76851e-06)
(0.000332474 7.92115e-06 -2.73642e-06)
(0.000266025 -1.34694e-06 -6.91975e-07)
(0.000539118 6.13214e-05 -1.45318e-06)
(0.000188851 7.31752e-05 -1.856e-06)
(0.000428079 2.20935e-05 -2.20786e-06)
(0.000347368 0.000183841 -2.43989e-06)
(0.000690545 -6.86715e-05 -7.51185e-07)
(0.000730404 -0.000143063 -1.30031e-06)
(0.000901529 -0.000104113 -7.16353e-07)
(0.000446891 -3.86737e-05 -3.15929e-06)
(0.000419547 -7.78404e-05 -3.05598e-06)
(0.000772625 -5.04858e-05 -3.13689e-06)
(0.000708833 -0.000137765 -3.10785e-06)
(0.000744802 -4.74525e-05 6.28754e-08)
(0.000747559 -9.21979e-05 -1.38363e-07)
(0.000965105 -7.68504e-05 1.40093e-07)
(0.00077423 -3.00251e-05 1.50236e-07)
(0.000781968 -5.49212e-05 1.97094e-07)
(0.00102056 -4.83792e-05 2.00359e-07)
(0.000789975 -1.91224e-05 9.74612e-08)
(0.000794644 -3.3533e-05 8.68633e-08)
(0.00104628 -3.08636e-05 1.86527e-07)
(0.000798796 -1.20754e-05 4.7964e-08)
(0.000801974 -2.03601e-05 7.52121e-08)
(0.00106087 -1.95933e-05 1.80776e-07)
(0.000803496 -7.38866e-06 4.57775e-08)
(0.000805579 -1.24415e-05 3.56943e-08)
(0.00106906 -1.2275e-05 1.85219e-07)
(0.000804689 -4.47391e-06 6.55093e-08)
(0.000806725 -7.91979e-06 6.37743e-08)
(0.00107226 -7.21018e-06 1.7079e-07)
(0.000805117 -2.89264e-06 4.2482e-08)
(0.000806505 -4.87184e-06 5.2362e-08)
(0.00107276 -4.56879e-06 1.83588e-07)
(0.000804667 -1.89327e-06 4.34666e-08)
(0.000805937 -1.48144e-06 9.86121e-08)
(0.00107261 -3.03352e-06 1.15555e-07)
(0.000804022 -1.23812e-06 6.92363e-08)
(0.000804995 -1.94945e-06 5.2806e-08)
(0.00107175 -1.92384e-06 1.78358e-07)
(0.000802995 -9.34407e-07 5.71365e-08)
(0.000803808 -1.32832e-06 6.25873e-08)
(0.00107063 -1.26138e-06 1.84177e-07)
(0.000801362 -7.41693e-07 4.58577e-08)
(0.000802487 4.84742e-07 5.40283e-08)
(0.00106861 -1.0963e-06 1.34774e-07)
(0.000800251 -5.38101e-07 5.66102e-08)
(0.000801144 -5.11972e-07 4.46338e-08)
(0.00106673 -8.03143e-07 1.57663e-07)
(0.000798987 -3.25509e-07 -1.65217e-08)
(0.000799766 -1.78341e-07 7.10605e-08)
(0.0010653 -5.82653e-07 1.12961e-07)
(0.000797338 -2.48014e-07 -3.54722e-08)
(0.00079813 2.67215e-08 -2.80252e-08)
(0.00106323 -2.12547e-07 1.5271e-07)
(0.000796349 -2.05044e-07 3.04959e-08)
(0.000796812 -1.85238e-06 2.99785e-08)
(0.00106143 -3.57711e-07 2.25475e-07)
(0.000794631 -3.12233e-08 4.12164e-08)
(0.000795634 2.64347e-08 1.09472e-07)
(0.00105968 -1.31456e-07 1.80423e-07)
(0.00079309 1.37243e-07 5.63387e-08)
(0.000793991 2.18106e-07 5.05038e-08)
(0.00105747 1.03996e-07 1.84313e-07)
(0.000791749 2.38233e-07 7.27348e-08)
(0.000792418 2.66715e-07 8.06225e-08)
(0.00105552 3.66369e-07 1.73402e-07)
(0.000790332 1.58608e-07 5.87719e-08)
(0.000790933 -6.26697e-07 9.67968e-08)
(0.00105371 3.6715e-07 2.1989e-07)
(0.00078898 1.27188e-07 6.47061e-08)
(0.000789595 -4.83824e-08 4.7923e-08)
(0.00105202 1.05742e-07 1.75461e-07)
(0.000786953 -5.02558e-08 7.21649e-08)
(0.000787813 -4.84757e-07 5.27885e-08)
(0.00104962 2.39082e-07 2.85707e-07)
(0.000785572 -4.72679e-07 3.832e-09)
(0.000785983 -4.34396e-07 5.87251e-08)
(0.00104727 -3.98535e-07 1.78107e-07)
(0.00078406 -6.23124e-07 -3.49599e-08)
(0.000784765 2.07224e-06 4.25519e-08)
(0.00104547 -8.95785e-07 -1.1725e-08)
(0.000782457 -5.37581e-07 3.18012e-08)
(0.00078337 9.10396e-07 4.88492e-09)
(0.00104322 -7.8867e-07 9.30786e-08)
(0.000781569 -4.09081e-07 6.29711e-08)
(0.000782069 1.10203e-07 1.52835e-07)
(0.00104162 -6.35709e-07 1.66151e-07)
(0.00077993 -1.94588e-07 4.25352e-08)
(0.00078088 -1.68707e-07 1.50371e-07)
(0.00104011 -3.92355e-07 1.82346e-07)
(0.000778486 2.19298e-08 5.28962e-08)
(0.000779357 -9.96598e-08 4.25914e-08)
(0.00103804 -3.57258e-08 1.62039e-07)
(0.000776751 6.25539e-08 8.07986e-08)
(0.00077771 -1.13671e-07 5.73546e-08)
(0.00103588 1.77881e-07 2.26217e-07)
(0.000775374 5.82048e-08 6.73305e-08)
(0.000776215 1.03694e-07 6.3687e-08)
(0.00103373 4.05467e-08 1.68387e-07)
(0.000773952 2.26242e-07 5.00633e-08)
(0.000774794 1.57017e-07 4.81175e-08)
(0.00103176 1.59217e-07 1.63705e-07)
(0.0007724 3.91851e-07 6.06245e-08)
(0.000773293 2.91036e-07 3.90748e-08)
(0.00102988 5.19542e-07 1.82694e-07)
(0.000771543 2.81439e-07 4.64651e-08)
(0.000771912 -9.3409e-07 3.57007e-08)
(0.00102841 5.67482e-07 1.90042e-07)
(0.000770015 1.14726e-07 5.21485e-08)
(0.000770558 1.84463e-07 4.46807e-08)
(0.00102673 1.81359e-07 1.73112e-07)
(0.000768503 -3.63942e-08 8.2864e-08)
(0.000768993 3.59475e-08 6.61623e-08)
(0.00102458 1.21737e-07 1.70522e-07)
(0.00076718 -1.99624e-07 1.75028e-07)
(0.000767668 -3.79852e-07 5.52837e-08)
(0.00102297 -2.57722e-07 1.78514e-07)
(0.000765608 -1.69485e-07 1.48842e-07)
(0.000766366 -3.89791e-07 1.83482e-07)
(0.0010209 -3.22623e-07 1.90226e-07)
(0.000764045 -9.45309e-08 -1.98271e-08)
(0.000764871 1.06117e-07 4.76071e-08)
(0.00101872 -1.68703e-07 1.68856e-07)
(0.000762751 -1.41476e-07 -6.83546e-09)
(0.000763413 5.55174e-08 -9.27605e-09)
(0.0010169 -1.40477e-07 1.44494e-07)
(0.000761406 -3.21869e-07 5.32394e-08)
(0.000762031 -8.66432e-08 5.40528e-08)
(0.00101507 -2.58647e-07 1.70843e-07)
(0.000760029 -3.55619e-07 1.24346e-08)
(0.000760745 -3.64744e-07 4.04017e-08)
(0.00101344 -5.6511e-07 1.72031e-07)
(0.000758221 -2.42207e-07 2.36884e-08)
(0.000759111 1.13354e-06 8.84737e-09)
(0.0010112 -3.67877e-07 9.26754e-08)
(0.000757722 -5.06029e-07 4.48476e-08)
(0.00100882 -3.01003e-07 2.62833e-07)
(0.00103617 -0.0178878 0.000752301)
(0.0102451 -0.011898 0.000591259)
(0.00756094 -0.0184324 -0.00106737)
(0.00925275 -0.0143793 -0.000957236)
(-0.000415574 -0.000732195 3.84667e-05)
(0.0015347 -0.000793564 -0.000439132)
(0.00350616 -0.00413562 -0.000235187)
(0.00346063 -0.00185993 -0.000419732)
(-0.000822075 0.00308609 -0.000312224)
(0.00720703 0.0044807 0.000982812)
(0.0005431 0.00581985 -0.000253297)
(0.017293 0.0260398 0.000909578)
(0.0109281 0.00914555 -0.000909589)
(0.0132451 -0.001788 0.000165129)
(0.0082796 0.0128425 0.000569578)
(0.028111 0.0125228 0.00225199)
(0.0222143 0.00362982 0.000835096)
(0.00487621 -0.00754454 8.18581e-05)
(0.0111826 -0.00822672 -0.00116135)
(0.0117844 0.00162242 0.00127998)
(0.0250913 -0.00158195 0.00406451)
(-0.0136451 0.00918604 -0.00150303)
(0.0215188 -0.00927699 -0.00503048)
(0.0421666 0.00285698 0.00388263)
(0.0121654 -0.011578 -0.000905376)
(0.0163916 -0.0158208 -0.00431527)
(0.0323196 -0.0156825 0.000336704)
(0.0203226 -0.0111211 -0.000127746)
(-0.0183894 0.00525171 0.00516112)
(-0.0156384 -0.00299217 0.0031826)
(-0.0158347 -0.0164092 0.0152009)
(-0.0463584 0.00966398 -0.0369733)
(-0.0565771 -0.00505993 0.0352045)
(-0.0484133 -0.0408213 0.00675466)
(-0.0260506 -0.00821241 -0.0147034)
(-0.0411465 -0.0323572 0.00523374)
(-0.0372639 -0.0428392 0.0124207)
(-0.0481401 -0.00990517 -0.00329467)
(0.010101 -0.0640004 -0.0034834)
(-0.0178806 -0.0146686 0.00273431)
(-0.0217169 -0.0469742 -0.000516887)
(0.0097305 -0.0411933 -0.000758912)
(0.0473655 -0.00566465 0.000286347)
(0.086211 0.00997077 -0.0107912)
(0.0386331 -0.00427992 0.00119821)
(0.0635288 -0.0128418 -8.65133e-05)
(0.0658484 -0.00307425 0.00448821)
(0.000252367 -0.000165112 9.18755e-07)
(0.000266868 -0.000166443 2.26158e-07)
(0.000318541 -0.00023721 -2.13061e-06)
(0.000529455 -0.000462984 8.88223e-06)
(0.000342521 -0.00020148 1.60934e-05)
(0.000420794 -0.000269897 5.15033e-06)
(0.000368869 -0.000361804 6.69288e-05)
(0.00022491 -0.000212392 -1.82044e-06)
(0.000425935 -0.000363108 -3.61817e-07)
(0.000543155 -0.000295499 -4.29228e-06)
(0.000267322 -0.000182333 -2.19708e-06)
(0.000773407 -0.000155541 -6.87872e-07)
(0.000909568 -0.000215593 -1.37689e-06)
(0.00107069 -0.000249544 -6.89465e-07)
(0.000498821 -0.000190353 -3.57225e-06)
(0.000559229 -0.000214725 -4.92674e-06)
(0.000828539 -0.00034135 -3.84465e-06)
(0.000939785 -0.000392103 -5.51995e-06)
(0.000795218 -9.10887e-05 -4.25375e-09)
(0.000828367 -0.000120923 -4.26877e-07)
(0.00104254 -0.00014745 1.39543e-07)
(0.000804651 -5.29721e-05 1.33758e-07)
(0.000829841 -6.92588e-05 1.51551e-07)
(0.00107245 -8.48092e-05 2.16067e-07)
(0.000808459 -3.14036e-05 6.4618e-08)
(0.000821736 -4.03966e-05 3.72572e-08)
(0.00107677 -5.00955e-05 1.86117e-07)
(0.000809677 -1.87962e-05 6.29552e-08)
(0.00081781 -2.39632e-05 5.45814e-08)
(0.00107943 -2.97961e-05 1.85316e-07)
(0.000809586 -1.15183e-05 5.36819e-08)
(0.000814723 -1.43852e-05 5.12889e-08)
(0.0010795 -1.79672e-05 1.84242e-07)
(0.000808733 -7.15165e-06 5.06307e-08)
(0.000812212 -8.85157e-06 4.97137e-08)
(0.00107851 -1.13082e-05 1.80488e-07)
(0.000807518 -4.40486e-06 1.08477e-07)
(0.000809956 -5.35597e-06 5.20058e-08)
(0.00107689 -6.88966e-06 1.80942e-07)
(0.000806409 -2.67776e-06 1.07966e-07)
(0.000808107 -3.04577e-06 1.09429e-07)
(0.00107521 -4.32568e-06 2.4648e-07)
(0.000804768 -1.55388e-06 4.61538e-08)
(0.000806407 -1.83888e-06 5.33356e-08)
(0.00107338 -2.51509e-06 1.77815e-07)
(0.000803334 -8.76361e-07 5.94819e-08)
(0.000804659 -1.42086e-06 5.07354e-08)
(0.00107119 -1.52473e-06 1.7465e-07)
(0.000802365 -4.52896e-07 5.28075e-08)
(0.000803019 -8.68114e-07 9.20866e-08)
(0.0010695 -8.15334e-07 2.22042e-07)
(0.000800662 -1.93765e-07 5.90756e-08)
(0.000801469 -3.29622e-07 3.48754e-08)
(0.00106773 -3.83958e-07 1.79924e-07)
(0.000798991 -2.14088e-08 5.95887e-08)
(0.000799982 -1.38281e-09 6.51611e-08)
(0.0010655 -8.55911e-08 1.78019e-07)
(0.000797275 3.02786e-07 3.74069e-08)
(0.000798533 1.53273e-07 3.7868e-08)
(0.00106318 7.94571e-08 1.8585e-07)
(0.000796489 3.95224e-07 1.0893e-07)
(0.000796926 -1.87391e-06 3.12511e-08)
(0.00106137 7.49881e-07 1.15308e-07)
(0.000794865 1.41768e-07 1.18779e-07)
(0.000795316 8.72656e-08 1.0531e-07)
(0.00106 3.82366e-07 1.82604e-07)
(0.000793272 3.30139e-08 7.4778e-08)
(0.000793854 -3.72076e-08 5.72675e-08)
(0.00105791 1.31315e-07 2.02029e-07)
(0.000791651 -3.07785e-08 1.04679e-07)
(0.000792337 -2.08523e-07 5.55665e-08)
(0.00105559 6.60878e-08 2.19922e-07)
(0.000790108 -1.29615e-07 8.59634e-08)
(0.000790809 6.79503e-08 9.16253e-08)
(0.00105341 -4.41483e-08 1.30816e-07)
(0.000788707 -4.33282e-07 3.60039e-08)
(0.000789216 -1.72668e-07 5.22689e-08)
(0.00105155 -2.32182e-07 1.76061e-07)
(0.000786601 -5.6807e-07 3.93469e-08)
(0.000787646 1.3105e-06 -3.10787e-08)
(0.0010492 -9.16015e-07 1.03068e-07)
(0.000785113 -4.64391e-07 9.745e-08)
(0.000786114 -2.72685e-07 3.78699e-08)
(0.00104669 -6.03546e-07 1.63812e-07)
(0.000784178 -3.79863e-07 8.24086e-08)
(0.000784872 5.22155e-08 1.12737e-07)
(0.00104524 -6.12408e-07 2.69597e-07)
(0.000782882 -1.38122e-08 1.25872e-07)
(0.000783828 -9.92526e-08 4.93992e-08)
(0.00104375 -3.66461e-07 2.30373e-07)
(0.000781471 2.52585e-07 2.40236e-07)
(0.000782401 5.38763e-07 2.70051e-07)
(0.0010419 4.1396e-07 1.3863e-07)
(0.000780309 1.7878e-07 1.50461e-07)
(0.000780786 7.00865e-07 1.81304e-07)
(0.00104029 3.90595e-07 8.5228e-08)
(0.000778597 9.00838e-08 4.70453e-08)
(0.000779245 2.10966e-07 6.92613e-08)
(0.00103831 1.6676e-07 1.73778e-07)
(0.000777078 1.17866e-07 4.02411e-08)
(0.000777744 1.76119e-08 4.87848e-08)
(0.00103605 9.8106e-08 1.69378e-07)
(0.000775709 1.90561e-07 4.44788e-08)
(0.000776305 2.26382e-07 5.0035e-08)
(0.00103417 2.20763e-07 1.56738e-07)
(0.000774145 2.83159e-07 3.71318e-08)
(0.000774909 1.85891e-07 4.90591e-08)
(0.00103233 3.11308e-07 1.80907e-07)
(0.000772712 4.13768e-07 1.41521e-08)
(0.000773455 4.09515e-07 3.35483e-08)
(0.00103023 5.21094e-07 1.62828e-07)
(0.000770965 3.32171e-07 3.39135e-08)
(0.000771809 -6.08633e-07 6.50522e-08)
(0.00102804 6.45092e-07 1.76249e-07)
(0.000769629 -5.53114e-08 5.86879e-08)
(0.000770073 -5.92475e-08 6.19541e-08)
(0.00102607 2.41896e-07 1.80464e-07)
(0.000768028 -4.52071e-07 3.85853e-08)
(0.000768498 4.8589e-07 5.61241e-08)
(0.00102404 -3.75688e-07 1.54399e-07)
(0.000766909 -5.00263e-07 6.36977e-08)
(0.00076761 -9.13944e-07 3.90615e-08)
(0.00102221 -7.70978e-07 1.82212e-07)
(0.000765623 -2.43827e-07 8.22882e-08)
(0.000766688 -1.13324e-07 9.47431e-08)
(0.00102081 -5.76444e-07 1.38814e-07)
(0.000764251 -9.78504e-08 5.81755e-08)
(0.000765055 -1.32284e-08 6.98638e-08)
(0.00101899 -1.42388e-07 1.75398e-07)
(0.000762626 -3.70865e-08 5.15929e-08)
(0.000763489 -1.63079e-08 8.32522e-08)
(0.00101695 -1.58228e-07 1.95154e-07)
(0.000761392 -6.0274e-08 4.12194e-08)
(0.000762003 2.90203e-07 4.90052e-08)
(0.00101509 5.83718e-08 1.27077e-07)
(0.000759965 -2.56358e-07 3.68241e-08)
(0.000760501 -3.74648e-07 5.28019e-08)
(0.00101328 -1.82227e-07 1.72947e-07)
(0.000758359 -3.04074e-07 2.99957e-08)
(0.000759055 3.456e-07 4.90751e-08)
(0.00101116 -4.66372e-07 2.46472e-07)
(0.000758101 7.97248e-08 4.77266e-08)
(0.00100982 -3.30063e-07 7.65717e-08)
(-0.000460414 -0.0135025 0.000111309)
(-0.00978261 0.00158944 -0.000169473)
(-0.0102619 -0.0156678 0.000487231)
(0.00229718 -0.00828912 -0.000308315)
(0.0133787 0.0036034 0.00202257)
(-0.00174191 0.0100615 0.00176104)
(0.00228454 0.008368 -0.00167005)
(0.000201681 0.0223204 0.0125032)
(-0.00653382 0.0056081 -0.00806295)
(-0.00343655 0.0173564 -0.00699474)
(0.0126312 0.0113716 0.00613299)
(0.00291098 0.0394539 -0.00126561)
(-0.0121987 0.011958 0.00111471)
(-0.00805132 0.0207245 0.00124708)
(0.00429561 0.020326 -0.000360579)
(-0.00551684 0.0106902 -0.00105021)
(-0.0019933 0.000603468 -0.000900374)
(-0.00433467 0.0208699 0.000387467)
(-0.00950387 0.0203021 -0.000481152)
(-0.0159988 0.0117674 -0.00452708)
(-0.0333727 -0.0416485 -0.00185691)
(-0.0475006 -0.0258455 -0.00194779)
(-0.00553639 -0.0118666 -0.00554451)
(-0.0403455 -0.0321724 -0.004864)
(-0.0133293 -0.0215122 -0.00429107)
(-0.00786033 -0.000564261 0.000574403)
(-0.00340921 0.02012 0.00301737)
(0.00431653 -0.00615492 0.00106494)
(0.0254998 0.00171092 0.00295315)
(0.0299935 -0.00331908 0.00275489)
(-0.020601 -0.000480838 0.000995156)
(-0.0424597 0.00553666 -0.000494861)
(-0.0290315 -0.0204882 0.00143398)
(0.0177579 -0.0176058 0.000166254)
(-0.0321158 0.00443564 -0.000502787)
(-0.0056892 -0.00545687 -0.00135876)
(-0.00603831 -0.000174674 -0.00135056)
(-0.00535472 -0.00774115 -0.00339781)
(0.000806953 -0.00012109 6.78982e-05)
(0.000418173 -0.00017041 8.20399e-06)
(0.000431064 -9.2161e-05 1.4737e-05)
(0.000933712 -0.000182487 2.83992e-05)
(0.00040777 -8.72942e-05 4.3875e-06)
(0.000921552 -0.000138527 -1.11621e-06)
(0.00103274 -0.000125759 -2.23426e-06)
(0.00136348 -0.000225081 -1.41106e-06)
(0.000702116 -0.000190731 -5.67644e-06)
(0.000762268 -0.000144305 -6.53797e-06)
(0.00116355 -0.000338924 -6.15112e-06)
(0.00127579 -0.000237268 -6.77168e-06)
(0.000870192 -7.74031e-05 -2.71261e-07)
(0.000905037 -5.72639e-05 -5.32246e-07)
(0.00117149 -0.000120252 8.16545e-08)
(0.000845587 -4.59261e-05 5.50879e-08)
(0.000869316 -4.06515e-05 1.46316e-08)
(0.00114281 -7.17243e-05 1.91959e-07)
(0.00083122 -2.72337e-05 2.7215e-08)
(0.000845177 -2.43812e-05 3.39943e-08)
(0.00111537 -4.20287e-05 1.76935e-07)
(0.000822846 -1.6471e-05 4.29162e-08)
(0.000831308 -1.54228e-05 2.97444e-08)
(0.00110122 -2.52988e-05 1.75488e-07)
(0.0008174 -1.00586e-05 4.73212e-08)
(0.000822766 -9.56697e-06 4.32571e-08)
(0.00109228 -1.53886e-05 1.79668e-07)
(0.000813451 -6.16417e-06 5.10881e-08)
(0.000817097 -5.92042e-06 4.78115e-08)
(0.00108617 -9.44744e-06 1.80961e-07)
(0.000810436 -3.73629e-06 5.29391e-08)
(0.000813001 -3.60373e-06 4.85293e-08)
(0.00108153 -5.76875e-06 1.81828e-07)
(0.000808214 -2.25904e-06 5.48164e-08)
(0.00080996 -2.2267e-06 5.04717e-08)
(0.0010781 -3.46086e-06 1.78371e-07)
(0.000806288 -1.35962e-06 5.7918e-08)
(0.000807535 -1.46e-06 5.14189e-08)
(0.00107527 -2.13323e-06 1.83858e-07)
(0.000804324 -7.7964e-07 8.33267e-08)
(0.000805387 -1.31129e-06 4.24699e-08)
(0.00107276 -1.26753e-06 2.06166e-07)
(0.000802102 -4.74395e-07 7.41728e-08)
(0.000803402 -3.99488e-09 7.00344e-08)
(0.00107004 -7.25654e-07 1.76801e-07)
(0.00080076 -3.0244e-07 4.09512e-08)
(0.000801685 -5.29121e-07 3.45417e-08)
(0.00106765 -4.9438e-07 1.74901e-07)
(0.000799524 -1.31957e-07 4.34492e-08)
(0.000800195 -2.17109e-07 5.48503e-08)
(0.00106587 -2.67343e-07 1.67502e-07)
(0.000798309 1.22747e-07 3.17143e-08)
(0.000798851 -2.01022e-07 4.72943e-08)
(0.00106427 -5.00412e-08 1.75947e-07)
(0.000795639 1.85716e-07 2.76076e-08)
(0.000797003 -6.00006e-07 2.74876e-08)
(0.00106181 4.02655e-07 1.89352e-07)
(0.000794305 4.39196e-08 4.38139e-08)
(0.000795137 1.87698e-08 5.2316e-08)
(0.00105891 1.68595e-07 1.66341e-07)
(0.000792921 -7.82829e-09 3.80564e-08)
(0.000793788 -1.59354e-07 3.83605e-08)
(0.00105707 1.98559e-08 1.74451e-07)
(0.000791478 -4.72747e-08 4.2501e-08)
(0.000792288 -1.27261e-07 2.82625e-08)
(0.0010553 -2.58289e-08 1.6532e-07)
(0.000790009 -4.32986e-08 5.79433e-08)
(0.000790814 1.53298e-07 6.16166e-08)
(0.00105334 -7.92626e-08 1.67301e-07)
(0.000788115 -3.63505e-08 -1.47874e-08)
(0.000789225 3.22818e-08 7.05579e-08)
(0.00105093 4.16267e-09 1.96287e-07)
(0.000787174 2.20653e-07 -3.25773e-08)
(0.000787966 -1.01426e-06 -4.70385e-08)
(0.00104916 -4.74928e-08 2.90832e-07)
(0.000785662 6.47061e-07 5.31333e-08)
(0.000786645 -1.24233e-06 2.23589e-08)
(0.00104765 6.9101e-07 2.45878e-07)
(0.00078466 7.64183e-07 7.97475e-08)
(0.000785015 -9.07882e-07 4.42424e-08)
(0.00104577 1.06608e-06 2.00498e-07)
(0.00078339 6.00705e-07 1.93508e-07)
(0.000783621 -2.04238e-06 4.01869e-08)
(0.0010445 9.76757e-07 2.94267e-07)
(0.000781689 4.45571e-07 2.11146e-07)
(0.000782204 4.96872e-07 1.79223e-07)
(0.00104257 6.26943e-07 1.97748e-07)
(0.000779748 2.9216e-07 1.00139e-07)
(0.000780593 1.57754e-07 7.99145e-08)
(0.0010398 5.50766e-07 2.54887e-07)
(0.000778363 1.60638e-07 7.10071e-08)
(0.00077908 8.70099e-08 7.00444e-08)
(0.00103767 1.95746e-07 1.75656e-07)
(0.000776965 1.4456e-07 5.85782e-08)
(0.000777724 -7.71078e-08 6.00382e-08)
(0.00103594 1.87702e-07 1.74661e-07)
(0.000775501 8.95697e-08 5.46156e-08)
(0.000776236 4.46507e-08 5.2452e-08)
(0.00103399 1.66133e-07 1.8695e-07)
(0.000774169 7.35844e-08 4.54804e-08)
(0.000774889 1.12838e-07 4.25118e-08)
(0.00103213 6.03722e-08 1.67532e-07)
(0.00077269 3.63595e-08 8.44387e-08)
(0.000773408 5.15658e-07 2.03654e-08)
(0.0010303 1.07758e-07 1.67743e-07)
(0.000770924 -1.10373e-07 9.30937e-08)
(0.000771625 4.99133e-07 7.52685e-08)
(0.00102805 -3.06989e-08 1.21802e-07)
(0.000768832 -1.3806e-07 5.93921e-08)
(0.000770039 8.28861e-07 6.10656e-08)
(0.00102545 -2.2828e-07 1.6692e-07)
(0.000767773 1.96435e-07 5.66056e-08)
(0.000768915 3.59522e-07 4.35063e-08)
(0.00102332 -6.51106e-08 1.47075e-07)
(0.000767807 3.31709e-07 7.00898e-08)
(0.000767777 -2.5267e-06 4.88564e-08)
(0.00102272 6.70035e-07 1.55968e-07)
(0.000766072 1.19652e-07 8.23263e-08)
(0.000766421 1.67167e-07 4.62269e-08)
(0.00102169 3.30462e-07 1.79224e-07)
(0.000764269 7.02868e-08 9.49364e-08)
(0.000764992 4.08288e-07 7.29349e-08)
(0.00101925 1.51516e-07 1.75291e-07)
(0.000762798 1.73716e-07 8.06749e-08)
(0.000763617 1.9443e-07 8.726e-08)
(0.00101715 1.79712e-07 1.60607e-07)
(0.000761122 1.93487e-07 6.05865e-08)
(0.000762026 1.178e-07 6.41551e-08)
(0.00101504 3.6591e-07 2.07414e-07)
(0.000759602 1.0333e-07 6.50541e-08)
(0.000760387 -7.53231e-08 4.08508e-08)
(0.00101278 2.09246e-07 1.58856e-07)
(0.000758579 7.73868e-08 6.68065e-08)
(0.00075902 -1.97896e-07 5.18894e-08)
(0.00101102 1.14983e-07 1.75258e-07)
(0.000758004 1.03179e-07 5.58845e-08)
(0.00100981 1.08993e-07 1.59909e-07)
(0.00883806 -0.00463632 -0.00160408)
(-0.00142423 0.00605283 -0.00162934)
(-0.00429664 -0.00629679 0.000653188)
(-0.00664176 -0.0148555 0.0352998)
(-0.00725003 -0.0207016 -0.0479203)
(0.0287021 -0.0085316 -0.0152548)
(-0.00661324 -0.0120856 0.0217872)
(0.0123187 -0.0171642 0.00208263)
(0.000484551 -0.0130193 0.00208271)
(0.0059873 -0.029232 0.000421397)
(0.0260014 -0.00804743 0.000142001)
(0.0200815 -0.0238074 0.00214387)
(-0.00665319 -0.0121278 0.00192896)
(-0.0180835 -0.00675208 0.000124496)
(-0.00183924 -0.00595676 0.000677121)
(0.00104942 -0.002869 0.000515313)
(-0.0179532 -0.0286973 -0.000627218)
(-0.00898607 -0.00820012 0.00236999)
(-0.00755676 0.00806876 0.00163438)
(-0.0101037 -0.0055408 -0.0153942)
(-0.0196458 0.00449244 -0.0106936)
(-0.0318092 -0.00205004 0.023827)
(-0.0153576 -0.0190669 0.00661107)
(0.00590484 0.00249496 -0.00120564)
(0.00512559 -0.000392053 0.000669688)
(0.00564845 0.0149374 0.000840844)
(0.0116255 0.00510794 4.5627e-05)
(0.0134506 0.0146327 0.00166987)
(-0.00429519 0.00750046 -0.00213301)
(0.0035455 0.00766795 -0.00164686)
(-0.000731527 0.0143003 -0.00138642)
(-0.0117595 0.00354638 -0.000991814)
(-0.0233102 0.0197186 -0.0201819)
(-0.0193568 0.030481 0.0200039)
(0.00422608 -0.000575219 0.0244342)
(-0.0338872 0.0499871 -0.0312343)
(-0.00497987 0.00809818 -0.000841506)
(-0.000244556 0.00696002 -0.000203805)
(0.00542312 0.00388986 -0.000117322)
(-0.00122685 0.00743256 -0.000169997)
(0.00559125 0.00443185 -0.000432091)
(0.00215718 0.000227911 0.000107846)
(0.000643516 -0.000225811 6.6534e-05)
(0.000763703 -0.000154033 5.26745e-05)
(0.000932628 -0.000171029 0.000121192)
(0.000662489 -0.000129298 3.92583e-05)
(0.00097478 -3.54332e-05 -1.65086e-06)
(0.000717187 1.63852e-05 -1.89279e-06)
(0.00137827 -7.61549e-05 -2.06962e-06)
(0.000785489 -2.35492e-05 -5.76793e-06)
(0.00077278 -1.99864e-05 -2.73901e-06)
(0.00133774 -1.70522e-05 -2.78556e-06)
(0.00134257 -9.61634e-06 2.56809e-06)
(0.000667957 -1.58416e-05 -5.09738e-06)
(0.00119802 5.27207e-05 -1.70103e-06)
(0.00108614 -6.03143e-06 -6.04954e-06)
(0.000901727 -1.18665e-05 -2.46532e-07)
(0.000941374 3.41857e-05 -7.54751e-07)
(0.00123478 -2.64029e-06 4.11177e-08)
(0.000865334 -1.417e-05 -6.46838e-09)
(0.00086641 3.18466e-06 -2.96476e-07)
(0.00117049 -1.90943e-05 1.60105e-07)
(0.000843535 -9.38002e-06 3.65251e-08)
(0.000851146 1.01028e-06 1.11883e-07)
(0.00113495 -1.21201e-05 1.72252e-07)
(0.000830279 -6.53463e-06 3.00809e-08)
(0.000834855 -8.71749e-07 8.46611e-09)
(0.00111282 -8.68913e-06 1.82333e-07)
(0.000821957 -4.3464e-06 4.37459e-08)
(0.000825497 -1.17142e-06 7.31582e-08)
(0.00109936 -6.06797e-06 1.81161e-07)
(0.00081634 -2.66142e-06 4.52524e-08)
(0.000819201 -8.87484e-07 4.84837e-08)
(0.00109057 -3.83547e-06 1.79629e-07)
(0.000812305 -1.54421e-06 4.60613e-08)
(0.000814396 -5.17615e-07 3.12148e-08)
(0.0010844 -2.18901e-06 1.778e-07)
(0.000809174 -9.73623e-07 4.70739e-08)
(0.000810672 -3.10185e-07 3.0593e-08)
(0.00107977 -1.24667e-06 1.81035e-07)
(0.000806659 -6.93945e-07 3.59737e-08)
(0.000807883 -2.34552e-07 4.75862e-08)
(0.00107613 -9.0883e-07 1.75786e-07)
(0.000804407 -5.78145e-07 2.91687e-08)
(0.000805531 -6.62035e-08 3.68034e-08)
(0.00107296 -6.12753e-07 1.52081e-07)
(0.000802845 -5.58231e-07 3.04147e-08)
(0.000803427 1.07894e-08 4.14404e-08)
(0.00107047 -6.72773e-07 1.78298e-07)
(0.000801086 -3.9995e-07 4.84344e-08)
(0.000801883 -2.43413e-07 1.40202e-08)
(0.0010683 -6.57983e-07 1.77353e-07)
(0.000799488 -2.55545e-07 5.86979e-08)
(0.000800377 -1.85957e-07 6.89325e-08)
(0.00106606 -3.38195e-07 1.8182e-07)
(0.000797932 -3.47461e-07 4.30738e-08)
(0.000798738 -1.25079e-07 6.45259e-08)
(0.00106402 -3.14553e-07 1.7555e-07)
(0.000795992 -2.70545e-07 5.21881e-08)
(0.0007971 -2.40025e-07 1.54702e-07)
(0.00106164 -5.77056e-07 1.89446e-07)
(0.000794845 -5.39652e-09 4.6867e-08)
(0.00079547 1.83473e-07 6.00012e-08)
(0.00105952 -1.59112e-07 1.33937e-07)
(0.00079312 1.46219e-07 2.85697e-08)
(0.000793978 6.99867e-08 8.54324e-08)
(0.00105766 8.77251e-08 1.79877e-07)
(0.000791572 2.58769e-07 4.73675e-08)
(0.000792428 -5.44829e-09 4.76493e-08)
(0.00105546 2.66324e-07 1.7185e-07)
(0.000790156 3.50104e-07 7.42285e-08)
(0.000790926 -1.49249e-08 6.61089e-08)
(0.00105345 4.03883e-07 1.80589e-07)
(0.000788851 6.32553e-07 3.83439e-08)
(0.000789575 -4.99066e-07 4.08582e-08)
(0.00105159 5.56824e-07 1.96415e-07)
(0.000787664 7.93448e-07 7.87586e-09)
(0.000788164 -2.08885e-06 -4.17235e-09)
(0.00105006 1.205e-06 2.24553e-07)
(0.000785868 7.53873e-07 1.34612e-08)
(0.000786592 2.31775e-08 2.59626e-08)
(0.00104808 9.88692e-07 1.13131e-07)
(0.00078406 7.79837e-07 4.68317e-09)
(0.000785044 -1.9118e-07 3.01257e-08)
(0.00104559 1.06879e-06 1.5318e-07)
(0.000782331 5.11943e-07 2.58576e-08)
(0.000783283 -4.46039e-07 2.31554e-08)
(0.00104319 1.05199e-06 8.3909e-08)
(0.000781215 1.36161e-07 4.80218e-08)
(0.000781733 -1.12227e-08 6.75912e-08)
(0.00104136 3.37965e-07 1.78805e-07)
(0.000779845 5.38697e-08 4.9823e-08)
(0.000780489 3.22741e-08 4.91013e-08)
(0.00103974 1.94835e-08 1.74422e-07)
(0.000778483 7.42391e-08 5.90786e-08)
(0.000779105 1.88389e-08 4.87527e-08)
(0.00103786 1.304e-07 1.69566e-07)
(0.000776972 5.76254e-08 5.39144e-08)
(0.000777703 4.19277e-09 5.81222e-08)
(0.00103602 7.30072e-08 1.7228e-07)
(0.00077555 4.03019e-09 4.03512e-08)
(0.000776169 2.00472e-09 4.22108e-08)
(0.00103401 6.05798e-08 1.73222e-07)
(0.000774249 -2.2976e-07 1.74035e-08)
(0.000774597 -1.67338e-07 4.7269e-08)
(0.00103226 -8.41592e-08 1.79601e-07)
(0.000772394 -4.21386e-07 1.11782e-08)
(0.00077317 2.32395e-06 5.37487e-08)
(0.00103012 -5.49029e-07 7.93629e-08)
(0.000770628 -3.19421e-07 4.32447e-08)
(0.000771754 1.49185e-06 6.13974e-08)
(0.00102762 -5.7898e-07 1.29962e-07)
(0.000769968 1.05216e-08 4.51852e-08)
(0.000770451 -1.54003e-08 5.35451e-08)
(0.00102603 -2.47043e-07 1.62876e-07)
(0.00076906 4.01862e-07 3.57555e-08)
(0.000769403 3.27018e-07 1.02432e-07)
(0.00102516 3.1902e-07 1.26673e-07)
(0.000766416 4.22438e-07 2.49943e-08)
(0.000767801 -1.23019e-06 4.85426e-08)
(0.0010227 7.75692e-07 1.87722e-07)
(0.000765304 1.10095e-07 3.68273e-08)
(0.000766029 4.29114e-07 -6.40733e-08)
(0.00102016 4.03182e-07 1.24092e-07)
(0.00076434 -5.26418e-08 6.52541e-08)
(0.000764787 -3.51224e-08 5.70443e-08)
(0.00101879 -2.51627e-08 1.61902e-07)
(0.000762987 -6.69233e-08 7.07472e-08)
(0.000763599 2.88162e-08 5.73412e-08)
(0.00101721 -5.3868e-08 1.77213e-07)
(0.000761075 -1.07542e-08 4.44264e-08)
(0.000762096 -3.98995e-07 2.1971e-08)
(0.00101512 -9.61499e-08 2.53955e-07)
(0.000759893 1.54597e-07 2.76828e-08)
(0.000760593 -3.13517e-07 3.45295e-10)
(0.00101296 8.32303e-08 1.67287e-07)
(0.000758266 2.36708e-07 4.09662e-08)
(0.00075912 1.32276e-07 2.77798e-08)
(0.00101103 3.28334e-07 1.66563e-07)
(0.00075771 3.60969e-07 7.00567e-08)
(0.00100954 3.01118e-07 1.17147e-07)
(0.00481065 0.0148412 -0.000436269)
(0.00314304 0.00326451 0.000668323)
(0.00100654 0.00879371 0.000725598)
(-0.00400234 0.00776231 0.00350318)
(0.000578651 0.0139444 0.0276613)
(0.00762476 -0.00234324 -0.00868145)
(0.00325219 -0.010582 -0.0217621)
(0.000183116 0.00480801 0.000490008)
(-0.000298443 0.000133989 0.00132201)
(-0.00253147 0.0108837 0.000440582)
(-0.00713828 0.00010148 0.00147083)
(0.00548809 0.00283586 0.000606079)
(0.00146548 -0.00165636 -0.000147827)
(0.00488713 -0.00174928 -0.000320491)
(0.00663671 -0.00917954 -0.000103732)
(-0.00521727 -0.00737496 -0.000130431)
(0.0089639 -0.00274738 -7.59916e-06)
(0.0214401 -0.00848402 0.000176183)
(0.0154174 0.000622131 -0.000300958)
(0.0338287 -0.00958179 -0.00112745)
(0.0172893 -0.00282351 0.000770463)
(0.0165971 -0.0116829 -0.000412623)
(0.0184687 -0.00279466 -0.00073932)
(-0.000593186 -0.0171304 -0.00209766)
(0.00844216 -0.00308132 -0.0021419)
(0.00455998 -0.00107492 0.000505975)
(0.00203509 0.00163297 0.000205826)
(-0.00150768 0.00122374 0.000350682)
(-0.00136416 -0.00938442 0.000191476)
(0.00615805 -0.00456125 0.000461048)
(-0.00055188 0.00139054 1.89143e-05)
(0.00648396 0.000313644 0.000183109)
(0.00517665 -0.00249024 0.000155889)
(0.00111316 -0.00570569 -0.000454367)
(0.00411838 0.00249285 0.000587871)
(0.000532746 0.000377519 5.24669e-05)
(0.00137153 0.000294717 3.18933e-06)
(0.00150588 0.000352303 -4.70298e-06)
(0.00155044 0.000490695 -7.67257e-05)
(0.00139691 0.000149077 1.61162e-05)
(0.000395538 1.017e-05 -3.16274e-06)
(0.000550874 2.32699e-05 -3.93197e-06)
(0.000547426 4.54695e-05 -3.86556e-07)
(0.000915697 6.41994e-05 -1.71365e-06)
(0.000389715 3.0755e-05 -2.96049e-06)
(0.000720638 1.18541e-05 -4.94027e-06)
(0.000708182 6.42491e-05 -4.0826e-06)
(0.000875006 3.42505e-05 -8.04844e-07)
(0.000933038 4.72782e-05 -1.07295e-06)
(0.00126178 6.89444e-05 -1.15241e-06)
(0.00065983 2.34363e-05 -4.50099e-06)
(0.000660606 4.30857e-05 -5.34081e-06)
(0.00108331 3.60926e-05 -5.45336e-06)
(0.00108072 8.00543e-05 -6.73105e-06)
(0.000854272 1.43214e-05 -1.78258e-07)