/*--------------------------------*- C++ -*----------------------------------*\
| =========                 |                                                 |
| \\      /  F ield         | OpenFOAM: The Open Source CFD Toolbox           |
|  \\    /   O peration     | Version:  5.0                                   |
|   \\  /    A nd           | Web:      www.OpenFOAM.org                      |
|    \\/     M anipulation  |                                                 |
\*---------------------------------------------------------------------------*/
FoamFile
{
    version     2.0;
    format      ascii;
    class       surfaceScalarField;
    location    "1.1";
    object      alphaPhi10;
}
// * * * * * * * * * * * * * * * * * * * * * * * * * * * * * * * * * * * * * //

dimensions      [0 3 -1 0 0 0 0];

internalField   nonuniform List<scalar> 
26902
(
-3.60743e-08
-2.12971e-09
4.91187e-09
-9.93912e-09
-4.05286e-08
-2.36437e-09
-4.17976e-08
1.43559e-08
-2.24354e-08
1.33845e-08
1.43979e-08
1.64812e-08
1.71303e-08
1.61643e-08
-1.61247e-09
-1.91309e-08
-2.53023e-08
-1.85791e-08
-1.04982e-08
2.77245e-08
-9.19571e-09
3.13129e-08
-6.96277e-09
3.45372e-08
9.19407e-09
2.8411e-09
2.06243e-10
-6.91333e-10
-6.41475e-10
-2.09798e-19
3.92627e-21
-1.41895e-18
-2.01625e-19
3.63436e-19
3.11379e-18
-1.55336e-18
3.08065e-24
2.34864e-22
1.4529e-24
2.06512e-22
1.8155e-21
4.06521e-21
-1.738e-20
2.4166e-26
2.68786e-26
9.6976e-28
1.03077e-28
-8.50381e-29
4.061e-30
3.04161e-33
1.46658e-33
1.46153e-32
4.48177e-37
2.77099e-36
2.52882e-36
1.7794e-40
5.63627e-40
2.10434e-40
7.35281e-44
1.7096e-43
-3.11055e-42
3.05493e-47
5.38383e-47
-1.16349e-45
1.27173e-50
3.84831e-50
-2.29841e-48
5.29253e-54
4.51318e-54
-1.03824e-52
2.20347e-57
1.53203e-57
-5.47668e-55
9.16281e-61
2.98985e-62
-1.08958e-57
3.79901e-64
8.22523e-65
9.42238e-62
1.58322e-67
2.1846e-68
2.61895e-64
6.53641e-71
1.36338e-71
5.29026e-68
2.73971e-74
-3.77978e-75
-4.17258e-71
1.10951e-77
5.55286e-78
-5.05216e-75
4.58368e-81
8.72428e-82
4.73542e-78
1.86896e-84
-8.29472e-85
1.27086e-80
9.02678e-88
-1.46317e-88
1.31487e-84
3.65282e-91
2.71494e-92
-4.21688e-87
3.47406e-94
-5.04024e-95
1.90899e-90
7.4541e-98
-7.74909e-99
9.84607e-95
-1.98726e-101
2.30825e-101
-2.32764e-96
3.50502e-104
5.28437e-105
-1.24856e-100
2.25912e-107
-4.52717e-109
1.05549e-102
5.99011e-111
1.25876e-111
-2.71691e-105
1.45512e-114
7.13489e-116
-3.37877e-109
3.94654e-117
6.37786e-119
-4.48514e-113
2.11597e-120
2.21225e-121
-2.19749e-115
4.58742e-123
4.89977e-124
-1.96793e-118
-3.3112e-127
5.94345e-128
9.26719e-124
-7.57584e-131
-8.20212e-131
9.61007e-127
-2.3827e-134
1.68941e-135
-6.19681e-129
3.83455e-136
-7.16365e-138
-1.28534e-131
3.52936e-139
5.67574e-140
-4.17095e-135
8.3113e-142
3.2173e-142
-2.3786e-137
1.26149e-145
-2.37755e-147
-2.39958e-142
2.29051e-148
1.09959e-149
-1.28065e-143
3.29458e-152
-6.06629e-153
-1.48471e-147
6.55496e-153
-4.6756e-157
6.01402e-152
2.61661e-154
-2.09817e-159
-1.42398e-153
2.29302e-159
-1.45223e-157
-1.23121e-08
-2.47454e-08
-2.52789e-08
-3.47007e-08
3.63884e-08
-2.3572e-08
4.10044e-08
4.43266e-08
-3.25428e-08
-3.08155e-08
-3.29953e-08
-3.30284e-08
-1.50896e-08
-9.18445e-09
-2.58663e-08
-3.02197e-08
2.52599e-09
-3.81556e-08
-7.07688e-09
-4.79967e-08
-1.28165e-08
-1.21081e-08
-9.75037e-09
-3.44606e-08
-2.95546e-08
-1.05306e-08
-1.54999e-09
-5.75929e-09
-5.37205e-09
-5.33337e-09
-8.57497e-09
-1.06026e-08
-9.24806e-09
-9.3864e-09
1.48952e-08
1.02789e-08
2.10081e-08
-1.40489e-08
1.71694e-09
2.01035e-09
8.89531e-10
-3.57982e-09
-1.12641e-09
-1.36189e-14
2.21792e-16
5.29017e-18
-5.13565e-18
-1.22997e-13
-5.80027e-14
1.20104e-13
-2.01254e-15
-2.73925e-15
-1.61997e-15
-1.62282e-15
1.45123e-21
-2.32831e-20
2.14321e-21
-1.29853e-20
3.61987e-20
-3.38886e-20
3.06086e-20
1.54097e-29
1.4367e-25
4.53412e-26
2.98005e-29
-4.06522e-29
-4.27312e-30
7.15506e-32
-6.53986e-32
-3.73176e-33
2.7564e-36
-3.71519e-35
-4.53273e-37
3.35737e-40
-2.58817e-39
-9.32206e-40
1.32076e-43
-6.06613e-43
-4.59059e-43
5.50334e-47
-1.1372e-46
5.10845e-47
2.6098e-50
8.73247e-52
1.89973e-49
1.04825e-53
-3.32213e-54
-3.82536e-52
4.19247e-57
1.21614e-56
3.75912e-55
1.75264e-60
9.94469e-61
-1.28155e-57
7.32456e-64
-8.92805e-65
2.43019e-62
3.08041e-67
-1.32252e-68
-1.26889e-64
1.28286e-70
7.9611e-71
-1.7188e-68
5.41327e-74
-1.03421e-73
1.48429e-70
2.28183e-77
-3.7238e-77
1.2684e-75
9.98155e-81
4.14089e-81
-8.08225e-78
4.80603e-84
9.00197e-85
-1.70048e-80
1.74213e-87
7.72693e-88
4.1423e-84
7.62001e-91
-2.13735e-91
-4.74472e-87
8.98276e-94
3.25448e-95
-1.03399e-89
1.14864e-97
-8.04762e-98
1.40441e-93
1.02264e-100
1.4822e-102
4.31423e-97
7.91297e-104
3.28783e-105
-1.67499e-99
8.24516e-108
-6.63956e-107
2.41318e-104
1.0242e-111
-2.72249e-109
5.8863e-105
8.96306e-114
5.79281e-115
3.85677e-110
5.52399e-117
4.04481e-117
-9.36379e-112
6.70137e-120
-8.43027e-121
-6.80293e-116
2.75097e-123
4.06062e-125
-9.08349e-121
2.45067e-125
-1.78562e-127
2.03593e-122
-8.09154e-130
-1.83086e-129
8.15297e-125
8.11502e-133
2.05501e-133
-2.27953e-128
2.01707e-136
1.09694e-136
8.75184e-132
-6.29235e-140
-8.60799e-142
7.86004e-136
2.89535e-143
1.45188e-143
4.18047e-139
6.52658e-146
1.07541e-145
2.16425e-140
-3.16039e-148
-7.25621e-151
6.33103e-144
2.73007e-151
-1.26464e-150
-1.80875e-147
4.06949e-153
-4.74863e-155
-7.90553e-151
2.26279e-154
2.312e-157
-3.95105e-154
1.11905e-158
-1.63502e-156
1.87221e-08
3.1368e-08
-1.04682e-08
-2.09234e-08
-1.66097e-08
-1.34217e-08
-1.26556e-08
-1.00776e-09
5.46025e-09
-3.03042e-08
2.38783e-09
-3.61316e-08
-1.21366e-08
-2.37257e-08
3.68345e-08
-1.44637e-09
2.34783e-08
-1.85978e-07
1.99842e-07
-5.34728e-08
-2.90428e-09
-9.89603e-11
-2.08455e-08
-1.18665e-08
-4.12443e-09
3.69144e-08
8.31911e-10
-2.63653e-08
-1.42764e-08
-3.90344e-09
1.16619e-08
-5.8299e-10
3.15553e-09
-9.62635e-09
-1.4148e-11
-2.44782e-15
1.43498e-09
8.77975e-15
1.43504e-09
7.38471e-20
-3.89479e-18
-1.18966e-20
1.55486e-19
1.98466e-18
-1.06519e-18
2.74375e-18
-2.27148e-26
-8.60982e-22
-1.03164e-24
4.48361e-28
-1.5592e-25
-2.9437e-29
1.41324e-31
-4.41049e-29
-3.62111e-32
7.4413e-36
-1.17551e-32
-2.61708e-36
2.16167e-39
-7.65012e-37
9.31904e-39
8.61091e-43
-2.42577e-40
4.82013e-42
3.59663e-46
-6.25327e-44
6.02183e-45
1.53283e-49
-1.67771e-47
-3.70651e-48
6.38505e-53
-3.62371e-51
-1.57181e-51
2.66642e-56
-1.05735e-54
-2.06839e-55
1.22908e-59
-8.28011e-59
-4.44568e-57
4.66597e-63
-7.96307e-62
7.13605e-61
1.90372e-66
-5.63553e-66
-7.50968e-64
8.14995e-70
-6.65843e-69
-3.97055e-67
3.40119e-73
-4.41558e-72
9.87307e-70
3.39792e-76
1.71832e-76
-5.1659e-73
1.54072e-80
-2.43291e-79
1.75087e-76
8.85662e-83
-3.5463e-82
-4.92217e-79
1.19481e-86
4.59713e-88
-1.46956e-82
2.38692e-90
-2.71937e-90
-1.48596e-86
4.66368e-92
-1.34687e-92
-5.04208e-89
2.50845e-95
-3.22476e-96
1.67777e-92
7.19168e-99
-2.78245e-99
4.32587e-96
5.22183e-102
-2.06183e-101
-4.10835e-99
3.47049e-104
6.4561e-106
-2.73403e-101
3.89721e-108
6.13753e-109
-7.20162e-104
4.93119e-111
-4.01313e-113
-1.6403e-107
-1.13905e-114
1.02106e-115
-6.59942e-111
-1.095e-117
1.20225e-119
8.67803e-115
5.6266e-122
1.15798e-122
-4.81551e-118
2.06108e-124
7.37368e-126
-1.85404e-120
-3.12408e-128
-4.8697e-128
2.9192e-124
-4.17164e-131
-1.77046e-131
2.88167e-127
3.48038e-133
-6.76991e-134
-4.3422e-130
-2.28294e-137
-7.00418e-137
-1.45565e-133
-1.00775e-140
-1.84305e-140
1.31416e-136
1.25587e-143
1.56575e-144
1.08145e-138
-8.88215e-147
1.17488e-146
1.90459e-142
2.05939e-149
1.97403e-151
-1.71163e-145
-9.13879e-153
3.08199e-154
-2.94794e-149
8.30157e-154
2.87722e-158
1.09533e-152
-1.19153e-158
1.37314e-155
1.19954e-08
-3.06861e-08
-2.56578e-08
-2.38859e-08
4.26032e-08
1.57739e-08
-1.32539e-09
-1.04851e-09
-4.94703e-08
-5.44186e-08
-5.07932e-08
-5.46413e-08
4.91547e-08
3.67509e-08
-3.7845e-08
2.2451e-08
-7.38014e-09
-7.20404e-09
-5.82944e-09
-5.94034e-09
1.61772e-08
-2.94698e-08
-1.43016e-08
3.29933e-08
-1.67551e-09
-1.35884e-08
-6.43568e-08
-1.21734e-08
6.03012e-08
5.26551e-09
6.47914e-10
-1.71914e-08
2.69659e-09
1.90802e-09
1.19561e-08
-7.91217e-11
-1.92601e-12
1.19842e-11
3.64267e-11
5.82819e-12
2.71492e-19
-8.55658e-19
3.61449e-20
7.68504e-17
4.44828e-17
3.97839e-16
-5.17626e-16
-6.70585e-19
-5.3883e-18
-8.62716e-19
4.32159e-25
8.29263e-22
5.552e-24
2.44002e-29
1.76089e-25
1.35698e-26
2.74919e-29
4.96167e-29
2.19938e-30
6.40582e-33
6.43922e-32
-1.40505e-33
2.57252e-37
-3.87066e-35
2.92185e-37
7.64914e-41
-2.80883e-39
2.09467e-40
3.18988e-44
-5.75086e-43
-3.69539e-44
1.34423e-47
-1.45436e-46
-6.29603e-47
5.66613e-51
-3.22628e-50
-5.85531e-50
2.38881e-54
-1.29168e-53
1.12848e-52
1.00194e-57
-6.14993e-57
1.08742e-55
4.18348e-61
-1.91931e-60
-3.53362e-59
1.74847e-64
-4.79244e-64
-2.99945e-63
7.34714e-68
-8.15756e-68
-1.59029e-65
3.12494e-71
-1.7106e-72
5.12824e-68
1.32254e-74
1.20333e-74
6.4686e-72
5.67986e-78
-1.24638e-78
1.5117e-74
2.29803e-81
-5.78826e-81
-5.25565e-77
6.46742e-85
-2.82028e-85
-2.8643e-81
6.57178e-88
1.03814e-88
-6.05445e-84
3.58754e-91
-7.86129e-91
-3.12069e-88
1.03145e-94
3.50234e-95
-1.93125e-91
1.26184e-97
1.34549e-98
-1.48082e-93
4.34419e-101
-2.02639e-102
-2.07424e-96
-3.90112e-105
-3.58391e-104
-2.34963e-99
9.24473e-108
1.3253e-108
-3.45527e-103
-1.39825e-111
1.52357e-111
-2.61129e-106
6.77779e-114
1.30042e-115
-9.6101e-111
8.54703e-118
-2.52097e-118
-5.0098e-113
2.58732e-120
-6.7059e-122
2.73177e-116
7.2872e-123
1.98658e-123
-1.02102e-118
1.12733e-126
4.25667e-127
-4.79951e-122
5.62675e-130
6.00936e-132
4.18173e-126
6.39077e-133
1.04315e-134
-2.39268e-128
1.2979e-136
-8.67858e-138
4.02739e-134
2.22318e-139
-9.21924e-141
1.11462e-135
5.17177e-143
4.21106e-144
-5.82479e-138
-3.5922e-146
1.3972e-147
5.12083e-141
1.67016e-149
7.47797e-149
-1.52137e-144
3.74663e-152
4.85334e-153
-1.08985e-148
3.81222e-153
-9.48978e-156
-8.85144e-152
-1.8052e-157
-3.89669e-154
1.36663e-08
-1.85757e-08
-1.395e-08
7.00781e-09
-2.67139e-08
-2.78562e-08
2.00569e-07
2.75292e-07
2.21845e-07
1.86239e-07
-3.50479e-09
-2.95649e-09
-1.76991e-08
-2.03141e-08
-5.93399e-08
-7.19984e-08
-7.14218e-08
-6.09523e-08
-5.23951e-08
-1.32638e-08
-2.44853e-08
-1.08594e-08
-3.38641e-08
-1.67147e-08
-1.87554e-10
-3.02029e-08
-3.01448e-08
2.39224e-08
-2.5303e-08
-3.83557e-08
-1.86515e-08
-2.72035e-08
-4.30853e-08
-2.62581e-10
6.67109e-09
-7.72493e-10
-4.69706e-09
-1.76522e-09
-2.37241e-09
5.51158e-11
-1.43542e-10
-1.42521e-10
5.18066e-11
6.2176e-16
-6.92313e-19
-2.17123e-08
1.40924e-18
6.21951e-16
6.21383e-16
6.21702e-16
4.56747e-24
8.19579e-21
8.29169e-22
5.88609e-18
5.88562e-18
5.88908e-18
5.88591e-18
3.6242e-27
1.27698e-24
-7.31922e-26
-1.12023e-28
2.11523e-28
-9.86965e-30
5.88194e-32
-4.77139e-32
-2.6768e-33
6.61489e-36
-6.28992e-35
1.46999e-36
7.91631e-40
-4.04742e-39
-8.46964e-41
3.07932e-43
-6.39783e-43
1.06873e-42
1.28138e-46
-1.35615e-46
3.20372e-47
5.32809e-50
-5.92569e-50
-2.85018e-49
2.21127e-53
-1.63473e-53
1.26142e-52
9.16621e-57
-4.05438e-57
-2.41325e-55
3.79027e-60
-1.93807e-60
6.14981e-59
1.57344e-63
-3.23474e-64
-1.32402e-62
6.45966e-67
1.7846e-68
-4.86372e-65
2.65554e-70
-9.43001e-72
6.20697e-68
1.10346e-73
-1.20173e-74
2.39474e-71
4.28517e-77
-3.80948e-78
-1.86057e-74
1.84995e-80
-2.06123e-81
-2.34814e-77
8.97082e-84
-5.13321e-85
-1.16201e-80
3.14155e-87
-1.30977e-88
1.59516e-83
-2.04401e-90
4.12119e-92
-4.07948e-88
5.22758e-94
1.36255e-94
-7.74457e-90
8.90313e-97
1.17589e-97
-3.03013e-93
1.41043e-100
3.31155e-101
-3.15258e-96
9.18038e-104
7.73285e-105
-1.52823e-98
4.7805e-107
-1.35884e-108
2.91885e-103
2.29419e-110
3.81553e-111
5.59921e-107
1.33489e-113
8.59268e-115
-3.02794e-109
-6.08582e-116
1.56142e-117
6.18045e-112
1.99479e-120
-5.18652e-122
-1.00275e-114
-6.99296e-123
9.9556e-125
5.10079e-120
3.75929e-126
5.01999e-128
1.10149e-122
1.28301e-131
-4.61226e-131
2.10623e-126
-1.82288e-132
-4.60635e-132
1.90072e-129
2.58201e-137
-1.84661e-135
-6.29653e-133
5.41037e-140
1.93298e-139
-3.87718e-135
1.94329e-142
1.30666e-142
7.48826e-137
2.9853e-146
-1.98755e-146
1.85776e-141
-8.22671e-148
1.1457e-148
3.1735e-143
3.84475e-151
1.69814e-151
-4.05188e-148
-1.5621e-153
7.29571e-155
-2.21941e-150
5.17896e-158
-4.36045e-153
7.50071e-09
-9.65992e-08
-2.91239e-08
4.60284e-08
3.97313e-08
-2.66044e-08
-2.05126e-08
-6.97271e-08
-3.21429e-08
-2.4041e-08
-5.05184e-08
1.47355e-07
-5.61581e-10
2.82921e-08
2.4154e-08
1.12861e-08
1.27537e-08
-1.67348e-09
2.65594e-09
2.03113e-09
7.25425e-09
2.27946e-09
-3.09065e-08
-2.745e-08
-8.76944e-09
1.30291e-08
-3.34288e-08
-1.75491e-08
-1.87503e-08
6.20597e-08
9.16968e-08
1.65984e-08
-2.51807e-08
1.36144e-08
1.5143e-08
1.4731e-08
-1.44637e-08
-1.32554e-08
-1.47524e-08
3.90025e-09
3.34905e-09
3.4057e-09
2.30259e-09
-1.28736e-08
-1.224e-09
1.15349e-11
5.22046e-11
8.06409e-11
8.81763e-11
-1.58587e-16
3.65937e-17
-1.82663e-08
3.64442e-17
3.28912e-17
-1.57965e-16
-1.59423e-16
-1.58871e-16
1.98529e-24
-5.74455e-22
-3.99359e-22
5.72344e-18
5.72385e-18
5.72161e-18
5.72157e-18
-1.77687e-26
-1.30427e-25
9.4407e-26
8.89676e-29
2.32558e-31
9.74379e-30
5.17407e-32
-1.18103e-31
1.026e-32
3.30525e-36
-3.87489e-35
1.7312e-35
-6.68938e-41
-4.19288e-39
4.4937e-40
-3.39031e-44
-9.95441e-43
1.30626e-42
-9.30013e-48
-2.55771e-46
1.13079e-45
-1.85941e-51
-6.35794e-50
4.09976e-50
3.17395e-56
-1.40671e-53
-7.59497e-52
3.30055e-58
-4.42222e-57
-3.28223e-55
2.64733e-61
-7.9489e-61
5.12795e-58
1.59939e-64
-6.74129e-64
2.73463e-61
8.43989e-68
-6.35156e-68
3.40939e-64
4.18541e-71
-1.72896e-71
6.75231e-69
2.05502e-74
-2.82835e-74
7.45494e-71
1.03852e-77
-2.79281e-78
4.42816e-74
2.71514e-82
3.26228e-81
-3.22216e-77
2.19081e-84
-1.51882e-85
-5.54651e-81
1.26322e-87
-4.97529e-89
3.11555e-84
9.43586e-91
1.68717e-91
-5.7036e-88
1.64478e-93
4.08016e-94
1.86243e-89
-2.51817e-97
8.90039e-97
7.76295e-93
2.62127e-100
-2.37718e-101
5.23783e-97
-1.48367e-103
2.97422e-105
1.45815e-99
7.54922e-107
2.98586e-108
-5.01423e-102
5.67505e-110
1.43585e-110
-1.49507e-105
1.30648e-113
5.26276e-115
-3.20638e-109
1.50097e-116
-1.71066e-118
7.59695e-113
-9.56864e-120
7.20058e-121
-8.72795e-115
3.4748e-123
-4.29796e-125
-1.71313e-120
-3.5642e-126
-1.55256e-127
3.96408e-123
1.21635e-128
1.18563e-130
-1.70599e-125
1.34147e-131
-3.33036e-133
3.6839e-128
-7.21952e-135
-9.76842e-139
6.43554e-132
1.05805e-138
1.80769e-140
1.70744e-134
-1.25271e-142
-1.13112e-143
6.33384e-137
2.10511e-145
-1.23309e-147
1.12585e-141
3.00271e-147
5.47753e-149
-5.89811e-144
9.323e-152
1.13178e-153
1.02784e-148
-4.19816e-153
3.50524e-157
8.77171e-150
8.93105e-158
1.16471e-154
1.13137e-08
-2.81853e-08
-1.19277e-08
-2.73594e-08
-4.33337e-08
2.65359e-08
-4.59386e-08
-3.82313e-08
1.24779e-07
-1.06237e-08
-5.38265e-09
-1.38882e-08
-1.94126e-08
-1.80501e-08
-4.39869e-09
-1.29945e-08
-2.80768e-08
-2.90495e-08
-1.42313e-09
1.37514e-08
-1.6176e-08
3.83518e-09
-1.46428e-08
6.4255e-09
6.00354e-09
-1.17547e-08
2.43195e-09
1.10105e-10
3.55456e-09
-2.8594e-10
-3.67149e-11
1.12946e-11
-1.24871e-10
5.44995e-11
2.55273e-19
6.95343e-18
-3.69694e-18
-2.80489e-16
-9.83183e-17
6.80925e-16
-3.12046e-16
-4.47233e-18
-3.76777e-18
-3.37678e-19
-3.73336e-18
3.40292e-25
1.65029e-21
5.94941e-24
3.51083e-27
2.14999e-25
-9.16817e-27
3.07911e-29
5.48322e-29
-1.20084e-32
7.4385e-33
1.27422e-32
-1.10564e-33
5.5523e-37
1.00515e-36
-6.4095e-37
1.88111e-40
3.00024e-40
-3.53143e-40
7.68851e-44
8.34622e-44
-2.98116e-43
3.15523e-47
1.86907e-47
-1.08954e-46
1.2919e-50
4.6351e-51
-1.02455e-49
5.28103e-54
1.42474e-54
-1.93127e-52
2.15672e-57
-6.82768e-59
1.35538e-55
8.83267e-61
8.39682e-62
-2.79591e-59
3.54922e-64
1.15692e-65
-3.64333e-61
1.46228e-67
4.17257e-69
-2.35764e-65
5.94709e-71
2.39169e-72
-9.78903e-68
2.44657e-74
1.83594e-76
-4.71976e-72
9.5216e-78
2.91323e-79
-1.45206e-74
3.94286e-81
-1.37175e-83
2.28051e-78
1.6028e-84
-7.28332e-87
7.58676e-82
8.17186e-88
-4.40524e-90
-2.9658e-84
4.40698e-91
3.69249e-91
-1.84939e-86
1.54541e-94
1.28143e-96
-2.00949e-93
5.3503e-98
-3.80118e-101
5.96695e-96
2.57158e-101
-1.12661e-103
-1.10222e-96
6.52431e-105
-3.02016e-107
-2.09147e-102
4.1938e-108
-2.32255e-110
2.21217e-103
3.08353e-111
-3.69767e-114
1.01935e-107
9.73268e-115
-8.4033e-116
6.73291e-110
7.12e-118
-7.41523e-120
-7.19522e-113
2.49901e-121
2.78676e-121
-9.87019e-116
1.24573e-123
-3.35462e-126
-3.88503e-119
1.34973e-126
-2.50524e-129
-4.05179e-122
1.64761e-130
-2.87893e-133
-5.62316e-126
3.78431e-133
2.61011e-135
1.85184e-129
4.46289e-137
2.91511e-138
1.76411e-132
8.63565e-141
-6.68167e-143
1.21816e-136
1.01381e-143
3.68619e-145
-8.44326e-139
3.6267e-146
1.84887e-150
-7.48845e-142
2.23468e-148
-9.61164e-151
-2.67912e-144
-2.61786e-154
-6.08284e-156
2.07229e-150
3.79551e-153
1.58142e-157
1.50643e-151
1.00634e-157
-1.62132e-153
-5.17794e-10
-2.23621e-08
-7.78382e-09
1.92444e-09
4.92315e-09
5.00102e-09
8.04821e-10
-2.3375e-09
7.41388e-09
-2.03407e-08
2.44128e-09
-2.67396e-08
7.17833e-08
3.6761e-08
-3.39741e-07
2.70912e-08
7.9263e-08
7.54406e-08
7.66773e-08
7.69807e-08
2.06108e-08
2.49122e-08
1.90694e-08
4.57462e-09
-1.18415e-08
-2.54587e-08
-3.02488e-08
-7.74666e-09
-5.93966e-09
1.95381e-08
-8.39495e-10
-8.21579e-08
1.92517e-09
1.6493e-09
6.17988e-09
-1.73637e-09
-3.4947e-09
-3.00784e-09
-6.95661e-11
6.93194e-12
1.4196e-09
3.33193e-11
1.42175e-09
2.57282e-21
-9.13957e-21
7.13641e-21
1.28226e-18
1.64751e-19
6.03552e-18
-5.42013e-19
7.28388e-27
-1.99362e-24
2.8023e-25
5.26239e-28
-1.55568e-28
8.15596e-29
1.44364e-31
2.19785e-31
2.73545e-32
6.0276e-36
9.14949e-35
2.04109e-35
1.18065e-39
6.29189e-39
2.076e-39
4.80757e-43
1.39251e-42
1.06287e-42
2.07148e-46
3.04712e-46
-2.44649e-45
9.03135e-50
8.54084e-50
1.90568e-48
4.14463e-53
1.04379e-53
8.83027e-51
1.67194e-56
-3.66129e-59
9.84961e-55
8.14541e-60
6.71335e-61
4.01256e-58
3.0723e-63
3.28691e-64
1.91487e-61
8.27169e-67
3.21456e-68
-4.17042e-65
5.68528e-70
1.24634e-71
-6.9869e-67
3.67661e-73
2.90774e-74
1.55214e-71
9.86174e-77
-1.48381e-77
-3.43029e-74
4.78904e-80
-1.44903e-80
1.1033e-76
-2.85371e-83
8.67157e-85
-1.81428e-79
6.92329e-86
-1.33674e-88
-2.09066e-82
-4.64094e-90
5.9314e-92
1.67476e-86
1.13721e-92
1.0635e-94
-4.68251e-90
2.38817e-95
2.37703e-98
-3.58058e-92
-2.85068e-99
-2.62464e-100
6.82875e-96
8.69297e-103
1.80087e-104
-1.33805e-98
1.77522e-105
3.17578e-107
-1.48095e-101
1.06661e-108
7.04086e-112
6.09605e-105
3.04191e-113
-1.61422e-114
-1.85627e-108
-9.60467e-115
-1.08608e-117
1.04245e-110
-1.47268e-118
-1.95847e-122
-3.31174e-115
7.67622e-121
1.61939e-124
1.34686e-117
1.66309e-124
4.6296e-128
-6.56017e-121
-4.67605e-128
-5.39227e-131
1.16594e-124
3.43106e-131
-1.87119e-134
-9.56122e-128
3.51167e-134
1.35746e-136
8.09778e-131
-4.53724e-137
1.38038e-139
1.85489e-133
1.2524e-140
1.85283e-143
-5.58975e-137
-8.08749e-145
3.04394e-147
-7.30612e-141
1.17359e-148
6.257e-150
-1.05683e-143
1.0004e-149
-1.58129e-152
-9.62331e-147
-1.71235e-153
-7.61271e-155
4.66948e-150
3.60804e-154
-3.89026e-157
4.35129e-153
5.91378e-159
-1.57321e-155
-1.69013e-08
2.71094e-08
2.74512e-08
2.09305e-08
1.94635e-08
2.00401e-08
1.96759e-08
7.14532e-09
-5.89238e-09
-1.41629e-08
-1.81259e-09
-1.95285e-08
2.48121e-08
-2.99665e-08
6.8991e-08
-1.85975e-08
-2.30017e-08
-1.71461e-08
-2.51494e-08
1.30142e-08
1.33119e-08
1.52517e-08
1.8761e-08
1.53981e-08
1.20137e-08
-2.66515e-08
3.92514e-09
1.27338e-08
2.7117e-08
7.33836e-09
5.57158e-09
9.80202e-09
5.355e-09
8.84086e-09
1.51631e-08
1.20145e-08
1.10485e-08
1.4309e-08
-2.31574e-09
2.34151e-07
-1.43778e-07
1.72914e-07
-2.04603e-11
4.38214e-10
9.91424e-10
-1.93682e-09
1.58678e-10
-7.55576e-13
6.67726e-15
-2.46878e-08
1.06787e-12
-2.46878e-08
1.67444e-21
1.53957e-22
-4.60429e-21
4.43138e-21
-1.10578e-20
1.04558e-19
-1.05156e-19
1.1082e-26
5.18804e-26
-9.15612e-26
3.91944e-29
3.80304e-28
-1.30308e-30
5.42394e-32
1.11297e-31
-6.99605e-33
3.57989e-36
2.31041e-35
-1.26929e-36
7.36055e-40
3.74296e-39
-1.51224e-39
2.94022e-43
8.52528e-43
-1.73051e-43
1.20168e-46
2.13666e-46
-3.54987e-46
4.9083e-50
4.96549e-50
6.84565e-49
2.00167e-53
1.24226e-53
-4.53017e-52
8.15244e-57
3.67129e-57
-6.55434e-55
3.31539e-60
8.0326e-61
-3.1973e-58
1.34532e-63
2.49188e-64
5.48298e-62
5.45169e-67
3.06292e-68
-1.92103e-65
2.20692e-70
4.23012e-71
-7.94354e-68
8.92089e-74
1.68528e-76
1.50411e-71
3.84306e-77
1.73978e-78
-1.46771e-74
3.08684e-80
-1.86451e-81
-1.3043e-76
6.65453e-84
-8.68533e-86
-4.17498e-81
2.39164e-87
2.13361e-88
4.80505e-84
8.99852e-91
-2.63502e-92
-8.40516e-87
4.18478e-94
-2.85608e-95
-9.50131e-92
2.69332e-97
-8.0835e-99
-3.98377e-94
1.46687e-99
3.56033e-102
-8.76856e-96
7.79641e-104
-3.00369e-105
-1.27446e-100
1.30835e-107
-1.44052e-108
2.44521e-103
5.82745e-111
-1.91466e-111
1.78466e-107
-2.11185e-114
5.07948e-115
-7.64869e-109
6.32108e-117
-7.79042e-118
-3.52303e-112
6.13236e-120
1.87907e-120
-3.89494e-115
-1.4735e-123
-4.07501e-124
3.29404e-119
-1.08147e-126
2.293e-128
1.17945e-123
2.0344e-129
1.21257e-130
-3.30737e-125
2.255e-132
-3.05373e-134
-4.52793e-128
4.75076e-135
3.36288e-136
-3.37777e-131
-1.72511e-139
6.58753e-140
-2.37499e-135
2.75031e-142
-4.76611e-144
-9.74778e-139
-2.08759e-145
-3.78014e-146
1.21191e-141
1.26768e-148
-8.85571e-151
-5.8876e-145
1.06867e-151
-7.27641e-153
1.56793e-147
-9.66373e-154
-1.72366e-155
-1.83788e-150
4.03497e-154
-3.20635e-157
-4.22645e-153
-2.7872e-159
4.8087e-157
-1.03357e-08
-2.479e-08
5.43291e-08
-1.07735e-08
1.45043e-08
5.15646e-08
7.19377e-08
7.0909e-08
7.26228e-08
7.08223e-08
4.40637e-08
7.42116e-08
-2.20253e-07
1.39604e-07
-5.42755e-09
-3.36807e-09
-3.65651e-09
-4.42997e-09
6.64707e-09
1.01256e-07
-3.42729e-08
1.11243e-07
-3.22409e-08
5.5795e-08
1.21217e-08
-3.70241e-08
-3.20647e-08
6.00349e-08
3.96296e-09
-5.1176e-08
-3.02252e-08
-3.17832e-08
-4.31551e-08
-8.60923e-10
-4.84425e-09
2.76367e-09
1.36918e-09
1.22467e-10
-3.38647e-17
2.65752e-17
1.84222e-20
-2.65291e-19
-7.0026e-18
3.68704e-17
-3.24324e-16
3.02052e-16
2.53569e-24
1.26632e-25
1.20076e-21
1.43124e-22
-5.01341e-21
1.93958e-21
1.21654e-26
9.8301e-28
9.36039e-29
4.04424e-30
2.26681e-33
7.32513e-33
4.05594e-37
3.00852e-36
1.62717e-40
7.83054e-40
6.74148e-44
-8.61566e-43
2.80103e-47
-1.02215e-45
1.16381e-50
-8.28195e-50
4.82227e-54
6.73996e-53
2.00069e-57
-1.24348e-55
8.32456e-61
1.48613e-58
3.45972e-64
1.23408e-61
1.42131e-67
4.17952e-65
5.82453e-71
6.18496e-68
2.40642e-74
-6.12554e-72
9.63056e-78
1.12965e-75
4.04456e-81
1.38986e-76
1.64692e-84
5.2486e-81
7.57486e-88
-5.14267e-85
4.26512e-91
-3.25369e-87
3.69189e-94
-1.31461e-90
1.10851e-97
-1.98668e-93
3.40605e-100
-1.4144e-96
1.70642e-103
-1.54089e-99
9.06481e-107
-1.50954e-102
1.73491e-109
-1.03726e-106
-3.31744e-114
-5.89033e-110
2.50715e-117
-6.95054e-112
2.62718e-119
6.54562e-115
4.67705e-123
1.03088e-118
1.85211e-125
-9.83749e-122
1.25311e-129
-1.34601e-127
1.09835e-132
7.40752e-129
1.38552e-136
1.23246e-132
4.72767e-138
-1.72674e-134
3.10444e-142
5.39343e-138
1.346e-145
-5.01102e-141
8.02546e-148
1.17456e-144
-5.98745e-152
7.90971e-148
1.37348e-153
-4.05276e-151
3.48433e-154
1.99168e-153
1.61382e-156
-1.13479e-07
-1.58455e-08
1.07863e-08
-1.50318e-08
-1.77766e-08
-9.7118e-10
-2.23666e-08
3.54796e-08
1.1974e-09
2.6037e-07
1.06441e-07
-7.86772e-09
-1.72569e-08
-1.98128e-08
9.99298e-09
-4.77605e-09
-6.75212e-10
3.20627e-08
2.07009e-08
1.03979e-07
2.67973e-09
-2.97006e-08
1.61416e-07
-2.35494e-09
6.57898e-08
-1.76055e-07
1.66911e-08
-1.15497e-07
-4.70563e-08
1.19866e-08
-5.00382e-08
1.05995e-08
4.19386e-09
2.15584e-09
1.45212e-09
1.9434e-10
-1.11886e-09
-1.83046e-09
2.82202e-17
4.31676e-19
7.32594e-20
-1.97513e-17
1.37755e-19
-1.74824e-17
4.94769e-17
-1.0848e-17
-1.1639e-24
4.51467e-21
-1.55061e-24
1.12263e-20
-1.54522e-20
1.24067e-20
-1.64142e-20
4.6189e-26
1.5605e-25
-1.13093e-27
1.47622e-27
-5.19714e-28
-7.77471e-30
2.70911e-31
-5.4221e-31
-1.09758e-32
2.65091e-35
1.37693e-35
3.13866e-36
1.65134e-38
5.01845e-39
2.42583e-40
1.20458e-41
1.44531e-42
2.57471e-42
8.41068e-45
2.67846e-45
8.52254e-46
5.84273e-48
-2.09147e-48
2.98388e-48
4.06038e-51
7.66422e-52
-6.55803e-53
2.81456e-54
3.32646e-55
8.76963e-55
1.94643e-57
4.77113e-58
4.46108e-58
1.34491e-60
7.27612e-62
-4.77347e-62
9.27532e-64
6.95589e-65
-1.01858e-64
6.38053e-67
4.20056e-68
-7.60451e-68
4.38316e-70
-3.0012e-72
-2.06436e-71
3.0033e-73
2.73844e-74
-1.89227e-74
2.05293e-76
-1.76937e-77
-1.82588e-77
1.40148e-79
-5.89258e-80
6.65044e-81
9.5456e-83
1.79131e-83
-1.37791e-83
6.48494e-86
2.85997e-87
-3.27255e-90
4.39499e-89
4.57712e-90
3.86948e-90
2.97171e-92
-1.1497e-93
3.32791e-94
2.00371e-95
8.12528e-96
2.60137e-97
1.3487e-98
3.33101e-99
4.93825e-101
9.06045e-102
8.31697e-104
-1.5859e-102
6.07123e-105
-2.27108e-105
1.03759e-105
4.0608e-108
-6.05528e-110
2.52864e-109
2.70702e-111
3.27725e-114
5.1984e-113
1.7987e-114
2.29042e-115
-2.04424e-115
1.19341e-117
-1.94894e-118
6.69953e-119
7.90381e-121
-2.48669e-122
-1.02382e-123
5.22196e-124
-6.31516e-125
4.61733e-125
3.44232e-127
2.008e-128
5.79706e-129
2.26343e-130
-1.00894e-131
1.16732e-132
1.48556e-133
1.49132e-134
-1.26756e-136
9.72239e-137
3.91752e-137
-2.48882e-140
6.34558e-140
-3.17884e-142
-1.92288e-141
4.13236e-143
-2.57838e-143
5.45811e-144
2.68777e-146
-6.45559e-147
1.27396e-147
1.74687e-149
-1.19807e-150
6.86224e-151
7.15604e-153
-2.34918e-154
1.25223e-153
1.45984e-156
3.52298e-156
7.86681e-09
-7.35814e-09
-5.05402e-08
-1.2558e-08
-1.81237e-07
7.8967e-09
-2.00466e-08
-1.24368e-08
6.26409e-09
8.01994e-09
-1.0529e-08
-1.2657e-08
-1.37163e-08
-1.41928e-08
-2.55507e-09
6.33172e-09
-1.65209e-08
-8.23004e-09
5.46378e-09
-1.09533e-08
-1.09186e-08
-1.10465e-08
-1.1331e-08
1.74547e-08
3.66772e-09
1.46484e-07
6.78844e-09
-1.00817e-08
-6.80457e-09
-5.24469e-09
8.0898e-09
7.79649e-09
-4.87422e-09
-1.48777e-07
4.66922e-08
-1.78031e-07
-2.04057e-08
-4.31202e-09
7.05e-10
1.87093e-08
1.89057e-08
1.92956e-08
1.85986e-08
-1.24303e-07
3.9143e-09
1.08669e-08
-5.74156e-09
-1.29901e-07
5.60283e-09
3.01615e-09
-4.00379e-09
2.78771e-09
-2.32847e-09
-4.60846e-09
4.5296e-15
6.95844e-17
2.6908e-15
8.01694e-17
-5.90649e-16
-1.23826e-13
3.66287e-14
7.12694e-14
-9.69778e-15
-9.73873e-15
-9.34202e-15
-9.31596e-15
1.00532e-20
-9.93249e-20
-1.86293e-21
-5.0009e-20
1.26713e-19
-5.77906e-20
2.17268e-19
-1.60021e-26
5.51247e-25
-3.98134e-26
2.98983e-28
9.23763e-28
2.24962e-30
6.15347e-31
-6.56618e-31
1.21937e-33
4.84686e-36
1.05823e-33
-4.37312e-37
-2.99693e-39
3.13221e-37
1.0015e-39
-6.58399e-43
7.39933e-42
7.82036e-44
1.189e-46
4.46794e-45
-7.35892e-48
4.27826e-49
4.60935e-48
9.39136e-49
5.33419e-52
6.81447e-52
-1.635e-53
5.22211e-55
5.57669e-54
-7.61649e-55
4.61944e-58
2.22854e-57
-7.87308e-58
3.84515e-61
2.87421e-61
-3.36544e-62
3.08061e-64
-2.47588e-64
-4.65346e-65
2.39312e-67
4.82423e-67
1.48419e-68
1.82318e-70
-3.37814e-70
9.40243e-71
1.37213e-73
-5.90213e-73
1.12929e-73
1.01635e-76
7.56308e-77
4.2272e-78
7.42612e-80
2.83568e-80
-1.31292e-81
5.36968e-83
6.52282e-84
-2.41082e-85
3.85034e-86
-1.93911e-86
3.22854e-87
2.74155e-89
6.12587e-89
-5.85364e-90
1.93828e-92
-1.70582e-92
-2.83568e-93
1.36262e-95
-2.97855e-96
6.29919e-97
9.53341e-99
8.89783e-100
1.37336e-99
6.63729e-102
-7.36396e-102
6.43778e-103
4.60153e-105
-1.71559e-105
-4.03443e-105
3.17457e-108
5.44583e-109
2.09077e-109
2.17882e-111
-1.43017e-111
8.54358e-112
1.48982e-114
-8.03113e-115
1.9956e-115
1.01546e-117
4.26411e-119
2.65466e-119
6.89136e-121
-5.66789e-121
1.09106e-121
4.65835e-124
-3.2952e-125
2.37002e-126
3.14024e-127
4.1364e-128
-8.99443e-129
2.10951e-130
4.24746e-131
-9.39707e-133
1.41337e-133
1.15642e-133
-3.41705e-135
9.45379e-137
2.59257e-137
1.97322e-137
6.29993e-140
2.69096e-140
-1.82426e-140
4.18294e-143
7.00502e-144
-3.71939e-144
2.77121e-146
-1.08572e-146
3.45179e-147
1.84135e-149
-1.48991e-150
4.28932e-151
6.48999e-152
3.24045e-153
-8.64654e-154
-4.29726e-158
3.28879e-157
5.05659e-09
-3.39561e-08
-2.77897e-09
-6.27297e-08
5.30774e-08
6.24466e-08
2.08255e-08
2.9307e-08
-9.92736e-10
5.58938e-07
8.68196e-09
-8.16915e-09
5.44217e-08
-4.59542e-07
-4.56574e-09
1.65641e-08
6.87655e-09
4.46256e-08
5.63714e-08
6.62734e-09
9.02531e-10
2.62271e-08
1.30373e-07
-2.56081e-08
3.17606e-10
-5.4284e-09
3.46315e-09
-1.91507e-09
1.23306e-07
-1.20112e-08
-9.5073e-09
3.17444e-09
1.44358e-07
1.3994e-08
3.43222e-08
-2.99088e-09
-3.43095e-09
-1.17457e-09
4.19474e-09
-3.14676e-08
-5.01762e-11
-4.71696e-14
-4.92022e-14
-7.73014e-14
-1.94236e-14
2.46177e-15
-8.76572e-20
-1.26401e-17
1.27282e-20
4.85204e-20
5.32587e-18
1.00871e-18
5.51607e-18
-1.39452e-24
-3.70253e-21
8.27872e-25
7.01116e-28
-1.75062e-24
3.81587e-29
6.55027e-31
-8.04025e-28
-1.00446e-32
2.94038e-34
-4.05288e-31
-3.6221e-36
1.79117e-37
-1.73447e-34
4.98594e-39
9.46878e-41
-7.31146e-38
1.50983e-42
6.72939e-44
-2.93973e-41
1.065e-44
4.9866e-47
-1.33939e-44
2.4813e-48
3.59547e-50
-5.62849e-48
-5.56068e-51
2.57275e-53
-1.1078e-51
-1.29753e-53
1.83843e-56
-1.03307e-54
-5.11679e-57
1.31062e-59
-4.77387e-58
-8.76071e-61
9.30579e-63
-1.13481e-61
1.18084e-63
6.59262e-66
-1.34487e-64
2.11346e-67
4.6542e-69
-4.28701e-68
7.79806e-70
3.27203e-72
-1.17143e-71
-3.8421e-73
2.29528e-75
2.98451e-74
-8.41313e-76
1.60767e-78
-9.54313e-78
2.95917e-79
1.12218e-81
1.80815e-81
3.9475e-83
7.8077e-85
6.80324e-85
1.93627e-86
5.42758e-88
9.49191e-89
2.7604e-89
3.76495e-91
-2.08083e-90
4.30815e-93
2.60343e-94
7.19673e-95
2.20808e-95
1.79947e-97
-6.12027e-98
6.03323e-99
1.23916e-100
4.47578e-101
1.01912e-101
8.49936e-104
1.3108e-104
-7.42137e-105
5.8249e-107
1.02466e-107
7.32904e-109
3.98623e-110
8.42685e-111
1.47568e-110
2.71963e-113
-4.16013e-114
3.31202e-114
1.85192e-116
-3.32825e-118
-3.78641e-117
1.2578e-119
1.9846e-120
2.25603e-121
8.5176e-123
9.42161e-123
7.93915e-124
5.75793e-126
4.94559e-126
-1.17102e-127
3.88423e-129
1.34609e-129
4.1167e-131
2.6182e-132
-1.85925e-131
1.59283e-133
1.76236e-135
-4.19161e-135
5.37446e-137
1.18271e-138
5.28785e-139
-3.20247e-139
7.91411e-142
2.05221e-142
-1.98644e-142
5.28513e-145
9.19574e-146
5.30394e-147
3.5185e-148
5.85282e-149
4.05797e-149
2.63864e-151
-1.75423e-152
5.94038e-153
-3.4153e-154
-6.65632e-156
3.68218e-08
1.05132e-07
5.99997e-09
-2.08741e-08
-1.59606e-08
-1.13122e-08
-1.44049e-08
-1.15686e-08
-2.08899e-08
-1.97347e-09
1.35028e-08
6.54148e-08
-3.38755e-08
1.47988e-08
2.53751e-08
1.7313e-08
2.66123e-08
-2.75997e-08
-2.93069e-08
-2.46378e-08
-8.15104e-09
-1.58976e-07
-7.6833e-09
-6.44529e-08
6.49668e-08