/*--------------------------------*- C++ -*----------------------------------*\
| =========                 |                                                 |
| \\      /  F ield         | OpenFOAM: The Open Source CFD Toolbox           |
|  \\    /   O peration     | Version:  5.0                                   |
|   \\  /    A nd           | Web:      www.OpenFOAM.org                      |
|    \\/     M anipulation  |                                                 |
\*---------------------------------------------------------------------------*/
FoamFile
{
    version     2.0;
    format      ascii;
    class       volScalarField;
    location    "1.1";
    object      alpha.water;
}
// * * * * * * * * * * * * * * * * * * * * * * * * * * * * * * * * * * * * * //

dimensions      [0 0 0 0 0 0 0];

internalField   nonuniform List<scalar> 
9011
(
0.988852
1.07945
1.03272
0.846571
1.00178
1
-6.84888e-21
-2.77765e-19
7.96192e-17
2.53233e-18
1.67139e-21
3.72468e-26
7.62954e-30
3.03765e-33
1.21757e-36
4.97431e-40
1.96639e-43
8.03365e-47
3.32107e-50
1.27845e-53
5.43746e-57
2.23427e-60
8.70915e-64
3.59915e-67
1.3628e-70
6.56207e-74
5.90195e-77
9.34353e-81
3.6808e-83
1.02057e-86
7.14995e-90
4.72989e-94
2.42625e-96
4.05158e-99
8.89797e-103
4.77934e-106
4.47178e-109
1.27849e-111
8.1381e-116
6.8305e-120
1.28762e-122
4.07581e-125
5.05614e-128
1.69343e-130
1.2992e-134
4.71263e-137
5.72597e-141
4.70826e-145
1.8184e-145
6.46089e-147
1.012
1.01962
1.07541
1.02628
1.00168
0.993807
-1.12172e-16
-8.06194e-19
-7.14501e-25
4.25529e-20
1.55203e-21
1.34202e-24
4.30722e-29
8.66063e-33
3.44371e-36
1.40744e-39
6.78392e-43
2.72941e-46
1.02498e-49
3.93869e-53
1.60874e-56
6.49511e-60
2.90422e-63
1.41521e-66
4.92886e-70
3.48943e-73
1.41431e-76
3.79661e-80
5.68968e-83
1.57508e-86
4.35333e-90
1.45937e-92
2.66084e-96
4.43338e-99
6.56923e-103
1.92667e-105
8.40372e-109
5.11847e-113
1.50998e-114
1.00261e-117
1.87745e-121
1.87114e-124
1.38091e-128
2.5707e-132
5.69435e-135
1.08664e-137
1.11549e-140
9.26558e-145
1.60839e-145
7.41077e-147
1.00096
0.79137
1
1.01043
1.00898
1.03733
-2.62307e-17
-1.6704e-18
-2.04074e-24
6.88208e-19
1.08398e-20
3.3593e-24
2.75239e-28
6.21819e-32
2.34035e-35
9.56562e-39
3.95797e-42
1.64911e-45
6.92078e-49
2.72536e-52
1.21263e-55
4.68348e-59
2.18217e-62
7.82932e-66
3.7473e-69
2.53825e-72
1.14628e-75
2.33549e-79
1.87662e-82
4.91769e-85
5.70373e-89
1.07479e-92
7.57507e-94
9.60744e-97
8.17474e-101
2.39474e-104
1.62662e-107
1.69127e-111
2.31182e-113
2.38906e-116
3.72693e-120
1.18147e-123
2.91521e-126
3.74608e-130
5.52553e-133
2.93948e-136
1.05182e-138
6.15845e-142
2.9841e-145
4.55409e-146
1.02644
1.04893
1.02817
0.994501
1.00779
0.992963
0.48716
-3.75897e-16
5.2013e-33
4.85962e-24
3.89455e-20
5.46367e-22
1.04279e-25
6.34504e-30
2.12313e-33
8.53362e-37
3.44473e-40
1.43736e-43
5.85737e-47
2.24924e-50
9.21411e-54
3.61949e-57
1.99805e-60
7.9854e-64
4.77021e-67
1.41012e-70
4.11505e-74
1.00323e-76
4.37909e-80
4.42244e-84
1.70741e-86
2.35663e-89
3.36058e-93
6.67863e-97
2.15574e-99
3.55946e-103
1.44958e-106
2.44143e-109
1.18829e-111
5.64591e-115
6.29601e-119
1.76285e-121
1.23386e-125
4.0119e-128
4.72454e-131
1.64569e-134
2.79064e-138
1.79213e-141
1.23196e-144
1.0944e-145
1.0026
1.00045
0.984942
1.04188
1.18016
1.0357
0.925169
-4.50617e-16
4.23887e-15
3.46958e-17
7.0176e-20
1.72239e-21
2.20514e-24
1.03939e-28
1.673e-32
6.58109e-36
2.66581e-39
1.08193e-42
4.38405e-46
1.77797e-49
7.14126e-53
2.99029e-56
1.16639e-59
4.81528e-63
1.89316e-66
8.10443e-70
3.2883e-73
1.55754e-76
8.59232e-80
5.56247e-83
5.6312e-86
6.75805e-90
2.27832e-92
2.64171e-96
5.52719e-100
5.04256e-103
3.0953e-105
1.28926e-108
8.73514e-113
1.96073e-115
4.34897e-119
6.47513e-123
2.26121e-126
2.12555e-128
5.09526e-131
1.30573e-134
1.42126e-136
8.10275e-140
8.43876e-143
2.77039e-145
0.991717
1.02329
1.07429
1.2113
0.973554
1.02183
0.992646
-2.51741e-16
3.32588e-15
3.12576e-17
7.31092e-20
1.49612e-21
1.75494e-24
8.7617e-29
1.51502e-32
5.97074e-36
2.42936e-39
9.94487e-43
4.0212e-46
1.65847e-49
6.62647e-53
2.67193e-56
1.07242e-59
4.64502e-63
1.88929e-66
1.24378e-69
3.27908e-73
1.47976e-76
1.67221e-79
3.32744e-82
3.63414e-85
3.70593e-89
1.29891e-92
5.20124e-96
9.36042e-99
1.75078e-102
8.50721e-106
2.11882e-108
1.51673e-112
6.71426e-116
8.35093e-118
3.25454e-120
1.36151e-123
1.48172e-127
5.68601e-131
5.10518e-134
2.78516e-137
4.36988e-141
2.10733e-144
2.47027e-145
1.10301
1.09683
0.976854
1.04066
1.02294
0.998524
0.856535
-9.60766e-17
-2.41102e-33
3.13332e-23
3.71341e-20
5.98224e-22
1.29346e-25
6.9197e-30
2.25048e-33
9.03804e-37
3.64893e-40
1.47913e-43
5.96515e-47
2.42134e-50
1.25309e-53
3.93923e-57
1.80851e-60
6.37458e-64
4.86938e-67
1.05677e-70
4.00505e-74
2.61093e-77
1.098e-79
9.53744e-84
1.39816e-87
3.81889e-90
3.83916e-94
5.95664e-97
2.33343e-100
6.64524e-103
8.85552e-107
4.53727e-109
3.37418e-112
3.713e-115
1.9481e-119
2.42142e-122
1.39167e-125
1.19202e-129
7.68305e-132
1.41106e-135
2.09815e-137
2.71837e-141
3.27787e-145
1.0918e-145
1.05576
0.970553
1.05585
1.03577
0.928208
1.00291
0.287456
-1.49669e-19
3.23116e-30
6.63394e-19
1.23068e-20
3.78372e-24
2.34779e-28
5.92533e-32
2.29012e-35
9.31864e-39
3.81891e-42
1.55847e-45
6.64804e-49
2.77183e-52
1.06785e-55
4.93315e-59
2.09616e-62
7.01003e-66
3.07252e-69
2.3879e-72
2.50174e-75
1.12921e-78
1.30548e-82
5.76965e-85
9.57371e-89
2.26014e-91
1.43906e-94
2.14531e-98
9.55541e-102
4.25877e-104
7.28099e-108
1.24118e-110
8.39615e-114
1.12486e-117
2.24983e-121
1.47752e-123
2.28664e-126
9.46879e-130
5.54933e-134
1.40596e-137
1.12512e-140
3.41499e-144
2.7236e-145
2.63128e-146
1.02616
0.758107
0.991505
1.09228
1.01946
0.995415
6.9388e-21
-1.76802e-18
8.84756e-23
4.22606e-20
1.56137e-21
1.24925e-24
4.30099e-29
8.78937e-33
3.49404e-36
1.42076e-39
5.84505e-43
2.38842e-46
9.83422e-50
3.94668e-53
1.56795e-56
6.44894e-60
2.54509e-63
1.06767e-66
2.09171e-69
3.36477e-73
8.51854e-77
4.28169e-80
1.35933e-83
1.354e-86
1.16666e-88
2.36923e-92
2.08348e-96
5.10391e-100
5.06519e-102
1.96689e-105
1.0349e-108
1.0043e-112
1.85969e-116
2.12246e-118
4.31938e-121
7.43191e-124
1.40617e-127
1.00531e-131
3.91303e-135
2.58325e-138
1.98213e-140
3.86477e-143
2.85767e-145
1.92623e-146
1.0071
0.973471
1.13631
1.16001
1.02797
1.00481
-1.25652e-18
-5.7561e-20
9.19996e-17
2.54293e-18
1.29177e-21
2.96916e-26
6.71008e-30
2.64176e-33
1.06836e-36
4.42343e-40
1.74294e-43
7.03777e-47
2.87914e-50
1.39066e-53
4.79827e-57
1.93748e-60
7.33956e-64
3.0053e-67
2.39312e-70
6.41441e-74
3.6248e-77
1.65034e-80
5.89508e-83
2.21436e-86
1.19089e-89
2.16148e-92
1.44324e-95
7.54325e-99
5.75063e-103
1.50636e-105
3.55646e-108
4.53556e-112
2.0035e-114
3.22982e-118
3.398e-122
7.01094e-126
1.09529e-127
4.12474e-131
4.84269e-134
4.42087e-137
1.92767e-140
1.03755e-143
2.47377e-145
1.32039e-146
1.03149
1.05806
1.02037
0.975683
1.01973
1.00001
2.07223e-11
9.76454e-17
1.17423e-16
8.25086e-18
2.83778e-20
3.64603e-24
4.85707e-28
3.27201e-31
2.28189e-34
1.54236e-37
1.03942e-40
7.0007e-44
4.70491e-47
3.15516e-50
2.11392e-53
1.41375e-56
9.43464e-60
6.28816e-63
4.18297e-66
2.77695e-69
1.84185e-72
1.21947e-75
8.05565e-79
5.31365e-82
3.49749e-85
2.29698e-88
1.50753e-91
9.87871e-95
6.46366e-98
4.22336e-101
2.75293e-104
1.79039e-107
1.16312e-110
7.55056e-114
4.89273e-117
3.16635e-120
2.04576e-123
1.31882e-126
8.4935e-130
5.45817e-133
3.50233e-136
2.24572e-139
1.43653e-142
3.26636e-145
1.09384
1.01774
0.977875
1.0103
1.00088
0.98692
2.18727e-10
1.41447e-16
7.73806e-19
5.90508e-19
1.29368e-20
6.0689e-24
5.1626e-28
3.12532e-31
2.25666e-34
1.58062e-37
1.10018e-40
7.64681e-44
5.30177e-47
3.66347e-50
2.52879e-53
1.74129e-56
1.19594e-59
8.20022e-63
5.61124e-66
3.82959e-69
2.60816e-72
1.77252e-75
1.20149e-78
8.12306e-82
5.48183e-85
3.69444e-88
2.48753e-91
1.67081e-94
1.11894e-97
7.48324e-101
4.99384e-104
3.3256e-107
2.21087e-110
1.46571e-113
9.69256e-117
6.40229e-120
4.2206e-123
2.77663e-126
1.82582e-129
1.1978e-132
7.83879e-136
5.11937e-139
3.3369e-142
4.01153e-145
1.02813
1.22394
1.03144
1.00405
0.970277
1.03155
9.59634e-07
1.13321e-13
1.46742e-16
4.98133e-18
2.10952e-20
3.35789e-23
2.56556e-26
7.74036e-30
3.82537e-33
2.72815e-36
1.9589e-39
1.37231e-42
9.61035e-46
6.74376e-49
4.70819e-52
3.28906e-55
2.28857e-58
1.59195e-61
1.1039e-64
7.64545e-68
5.28527e-71
3.64605e-74
2.51037e-77
1.73135e-80
1.18806e-83
8.14984e-87
5.58365e-90
3.81621e-93
2.59961e-96
1.77009e-99
1.20337e-102
8.16396e-106
5.53059e-109
3.73815e-112
2.52087e-115
1.69758e-118
1.1431e-121
7.6737e-125
5.14609e-128
3.44581e-131
2.30168e-134
1.53479e-137
1.02137e-140
4.29415e-144
1.04167
1.0132
0.999999
1
1.00146
0.992157
0.488743
2.95377e-12
3.007e-14
2.17571e-17
6.44933e-19
1.03875e-21
4.26015e-25
2.6001e-28
1.78538e-31
1.22095e-34
8.30075e-38
5.63363e-41
3.81628e-44
2.58061e-47
1.74251e-50
1.17402e-53
7.89046e-57
5.29729e-60
3.54724e-63
2.37128e-66
1.58287e-69
1.05432e-72
7.01579e-76
4.65682e-79
3.0846e-82
2.0391e-85
1.34525e-88
8.86127e-92
5.82726e-95
3.82622e-98
2.50759e-101
1.64007e-104
1.07068e-107
6.97678e-111
4.5372e-114
2.95235e-117
1.91439e-120
1.23883e-123
7.99503e-127
5.15717e-130
3.32004e-133
2.13425e-136
1.36904e-139
5.24998e-143
0.999997
1
0.987502
0.899239
1.08851
1.02666
0.921275
3.11209e-12
2.91451e-14
4.18126e-16
1.36617e-18
3.43391e-21
1.64031e-24
7.00014e-28
4.79522e-31
3.47478e-34
2.47017e-37
1.74243e-40
1.2249e-43
8.58164e-47
5.9995e-50
4.18132e-53
2.90411e-56
2.01245e-59
1.39043e-62
9.57681e-66
6.58321e-69
4.51283e-72
3.08382e-75
2.10256e-78
1.42988e-81
9.69703e-85
6.56362e-88
4.43097e-91
2.98384e-94
2.006e-97
1.34511e-100
8.99424e-104
6.0033e-107
4.0002e-110
2.65977e-113
1.76504e-116
1.16881e-119
7.72062e-123
5.09121e-126
3.35022e-129
2.19967e-132
1.44202e-135
9.43058e-139
3.66025e-142
1.05734
1.05188
1.03306
1.04974
0.999545
1.01609
0.978404
9.2049e-13
4.64756e-14
1.03828e-15
1.46235e-18
2.61476e-21
1.50431e-24
7.09548e-28
4.84861e-31
3.51079e-34
2.49798e-37
1.76317e-40
1.24022e-43
8.69233e-47
6.07397e-50
4.2335e-53
2.94114e-56
2.03765e-59
1.40745e-62
9.69145e-66
6.66158e-69
4.56643e-72
3.121e-75
2.1284e-78
1.44643e-81
9.80184e-85
6.63409e-88
4.48054e-91
3.0165e-94
2.02706e-97
1.35893e-100
9.08873e-104
6.06887e-107
4.04326e-110
2.68788e-113
1.78359e-116
1.18054e-119
7.79063e-123
5.13271e-126
3.37466e-129
2.2134e-132
1.45059e-135
9.49135e-139
3.68701e-142
1.07645
1.00786
0.826132
1.01454
1.13995
1
0.857641
7.86327e-13
2.0031e-14
1.42191e-17
6.30996e-19
1.15513e-21
4.30378e-25
2.54456e-28
1.74889e-31
1.19973e-34
8.17314e-38
5.55804e-41
3.77144e-44
2.55414e-47
1.72722e-50
1.16502e-53
7.83769e-57
5.26858e-60
3.53403e-63
2.36406e-66
1.57979e-69
1.05337e-72
7.01005e-76
4.65665e-79
3.08461e-82
2.04288e-85
1.35068e-88
8.90713e-92
5.86375e-95
3.85314e-98
2.52755e-101
1.65487e-104
1.08188e-107
7.05308e-111
4.59416e-114
2.98858e-117
1.93896e-120
1.25514e-123
8.11378e-127
5.23516e-130
3.37315e-133
2.16946e-136
1.39445e-139
5.37452e-143
1.02661
1.05566
1.04054
1.0135
0.995672
1.00237
0.295658
1.22447e-13
1.27572e-16
4.21999e-18
1.89575e-20
2.79509e-23
1.97326e-26
6.49393e-30
3.43542e-33
2.43942e-36
1.74017e-39
1.21882e-42
8.49436e-46
5.93376e-49
4.13799e-52
2.88115e-55
2.00206e-58
1.38902e-61
9.6237e-65
6.64778e-68
4.5857e-71
3.15752e-74
2.17209e-77
1.49169e-80
1.0221e-83
6.99672e-87
4.78192e-90
3.26045e-93
2.21842e-96
1.50808e-99
1.02316e-102
6.93126e-106
4.68839e-109
3.16458e-112
2.13142e-115
1.43525e-118
9.63085e-122
6.45475e-125
4.31998e-128
2.88656e-131
1.92356e-134
1.28057e-137
8.51951e-141
3.62681e-144
1.03438
0.991821
1.01689
1.07986
1.01672
0.999972
1.30779e-06
2.61009e-15
3.18348e-18
6.0653e-19
1.02207e-20
5.22254e-24
6.1544e-28
3.4474e-31
2.44159e-34
1.72277e-37
1.2038e-40
8.37756e-44
5.81639e-47
4.02847e-50
2.78586e-53
1.9219e-56
1.32262e-59
9.08771e-63
6.23198e-66
4.26433e-69
2.91385e-72
1.98638e-75
1.35098e-78
9.17603e-82
6.21983e-85
4.20277e-88
2.83602e-91
1.90985e-94
1.28314e-97
8.60857e-101
5.7643e-104
3.85301e-107
2.57176e-110
1.71302e-113
1.1379e-116
7.54914e-120
4.99914e-123
3.30163e-126
2.17842e-129
1.43518e-132
9.43283e-136
6.1887e-139
4.05029e-142
4.2929e-145
1.05449
1.03445
0.885642
0.920364
0.934666
1.00166
2.32266e-10
1.00277e-16
9.26321e-17
5.18025e-18
1.41891e-20
2.94536e-24
5.50396e-28
3.05087e-31
2.18516e-34
1.53782e-37
1.06218e-40
7.32245e-44
5.04326e-47
3.46648e-50
2.37912e-53
1.62924e-56
1.11361e-59
7.60461e-63
5.18257e-66
3.52473e-69
2.39487e-72
1.62429e-75
1.09924e-78
7.43207e-82
5.0148e-85
3.37474e-88
2.26758e-91
1.52123e-94
1.0187e-97
6.81527e-101
4.55058e-104
3.03187e-107
2.01733e-110
1.34005e-113
8.88643e-117
5.8859e-120
3.89146e-123
2.56679e-126
1.69078e-129
1.1119e-132
7.299e-136
4.78624e-139
3.13042e-142
3.9327e-145
0.962225
1.04414
1.02506
0.898679
1.01489
0.998975
8.17094e-12
-2.39497e-19
3.92457e-17
1.50726e-18
1.42693e-21
4.05345e-26
6.75364e-30
2.67212e-33
1.07448e-36
4.44099e-40
1.73415e-43
6.98557e-47
2.87822e-50
1.37552e-53
4.85524e-57
2.04948e-60
9.20855e-64
2.96756e-67
1.2343e-70
1.78135e-73
3.63328e-77
1.26908e-80
2.68179e-83
6.2351e-87
7.48427e-90
6.3707e-94
1.20547e-96
3.21158e-99
8.58968e-103
2.29986e-106
6.08087e-109
3.57e-112
1.84402e-116
3.94362e-118
7.35839e-122
2.97434e-126
1.95879e-128
1.68612e-132
4.85335e-135
3.99016e-137
8.87509e-141
3.48944e-144
1.71553e-145
6.78796e-147
1.04054
0.957721
1.04357
0.978344
1.02046
0.934262
1.88385e-09
-3.23745e-21
-4.33598e-25
3.96824e-20
1.49031e-21
1.26962e-24
4.4002e-29
8.7256e-33
3.4572e-36
1.40538e-39
5.989e-43
5.04864e-46
2.0283e-49
5.11306e-53
1.96844e-56
7.77952e-60
3.37199e-63
1.51357e-66
5.56604e-70
2.45735e-73
1.29713e-76
4.07574e-80
1.5123e-82
3.21852e-86
1.9574e-89
2.3118e-92
2.20057e-95
3.9697e-99
2.80515e-102
2.03059e-105
2.77865e-109
7.3607e-113
4.1969e-114
3.61761e-117
2.03151e-121
3.18723e-125
1.10024e-128
2.98057e-130
1.46854e-133
1.24249e-137
1.2681e-140
1.42816e-144
2.42269e-145
1.36495e-146
1.02585
1.11362
1.1658
1.04379
0.894335
1.02399
7.92178e-07
-1.32203e-18
-1.44172e-23
7.12969e-19
1.41094e-20
1.50868e-23
3.13155e-27
3.77926e-31
1.20961e-34
4.93698e-38
2.05275e-41
8.55938e-45
3.58079e-48
1.46245e-51
6.13955e-55
2.49919e-58
1.05864e-61
4.45806e-65
2.20212e-68
8.0167e-72
4.74622e-75
1.37747e-78
5.99703e-82
8.70358e-85
1.6694e-88
5.5954e-92
1.4657e-94
1.21167e-97
1.68769e-101
2.57817e-104
1.62812e-107
6.05497e-111
3.93326e-114
1.05242e-116
1.17284e-119
9.72027e-124
2.71312e-127
9.04435e-130
2.45502e-132
3.89777e-136
8.03454e-139
3.69697e-142
3.26029e-145
4.91528e-146
1.08434
1.00673
1.02582
0.997201
0.976314
0.996254
0.488793
-3.47057e-16
8.27181e-28
1.20607e-23
3.88695e-20
5.53984e-22
1.07496e-25
6.44186e-30
2.14767e-33
8.63233e-37
3.4899e-40
1.41972e-43
5.66826e-47
2.29296e-50
9.2312e-54
3.64613e-57
1.56999e-60
8.0637e-64
2.97102e-67
1.51289e-70
4.02063e-74
1.62773e-76
1.0464e-79
6.08223e-84
1.44168e-86
1.00531e-89
2.69876e-93
4.02698e-97
4.09337e-100
1.81054e-103
1.52463e-106
2.42333e-109
1.00283e-113
3.30595e-115
9.43389e-119
1.7846e-121
1.46741e-124
1.26877e-128
8.524e-132
1.38713e-134
1.11853e-137
4.51627e-142
2.96822e-145
9.85681e-146
0.63253
0.836156
0.990906
0.99776
0.960886
1.02743
0.920075
1.03894e-12
4.41006e-15
3.58166e-17
6.87787e-20
1.6885e-21
2.17498e-24
1.0286e-28
1.6454e-32
6.45799e-36
2.61969e-39
1.06282e-42
4.33685e-46
1.74732e-49
7.00911e-53
2.84648e-56
1.15088e-59
4.71021e-63
2.08126e-66
9.55805e-70
3.09749e-73
1.19837e-76
4.8712e-80
3.62039e-83
3.52678e-86
4.46304e-90
1.96825e-92
4.00886e-96
1.08115e-98
1.30528e-102
2.55373e-105
1.17217e-108
6.5727e-111
1.51468e-114
1.35644e-118
2.28887e-120
8.67201e-124
3.13832e-127
7.77043e-131
1.18116e-134
2.65978e-136
1.23299e-139
7.66617e-143
3.33729e-145
1.03117
1.05481
0.925187
0.989613
0.996318
1.01148
0.980107
3.64096e-13
3.41256e-15
3.13585e-17
7.24463e-20
1.60766e-21
1.98533e-24
9.74057e-29
1.61159e-32
6.33673e-36
2.57569e-39
1.04666e-42
4.23989e-46
1.79288e-49
6.99159e-53
2.96631e-56
1.16247e-59
4.59538e-63
1.86167e-66
8.52397e-70
3.20838e-73
1.17987e-76
4.67579e-80
1.82934e-82
2.9391e-85
1.37084e-88
2.23665e-92
9.94837e-96
1.30981e-99
2.39859e-102
1.55638e-105
2.53301e-108
1.88822e-112
2.64027e-114
1.20722e-117
5.75561e-122
9.82147e-124
4.45224e-127
8.313e-131
7.50889e-135
8.95381e-138
5.06882e-140
8.07319e-144
2.63372e-145
1
0.950103
1
1.04466
0.974491
1.00002
0.855505
-9.76006e-17
-4.13588e-28
3.18404e-23
3.72049e-20
5.9069e-22
1.25847e-25
6.83219e-30
2.22794e-33
8.94528e-37
3.61065e-40
1.48055e-43
6.07087e-47
2.38505e-50
1.27702e-53
4.01733e-57
1.69297e-60
7.03391e-64
3.33559e-67
1.76951e-70
4.53263e-74
7.46081e-77
1.02873e-79
5.42381e-84
1.437e-87
5.62398e-91
2.29704e-94
4.03126e-97
2.55954e-99
4.93377e-103
6.29514e-107
5.27825e-109
1.3475e-112
1.01286e-116
3.21934e-119
1.89996e-123
4.63703e-125
1.61004e-128
7.74631e-132
3.18965e-136
2.00208e-138
1.54962e-141
5.21623e-145
1.21378e-145
0.96118
0.731781
0.803218
0.987001
1.00192
1.00224
0.296343
-1.32417e-19
-3.23117e-30
6.61389e-19
1.21273e-20
3.52015e-24
2.0208e-28
5.32064e-32
2.07541e-35
8.43756e-39
3.45254e-42
1.4119e-45
6.03912e-49
2.46266e-52
9.77445e-56
4.44834e-59
2.02593e-62
6.62259e-66
1.43893e-68
3.1512e-72
1.95257e-75
9.6277e-79
1.44258e-82
1.63778e-84
6.54793e-88
4.72204e-92
9.663e-95
5.84278e-98
9.30595e-102
1.08612e-104
1.05007e-107
3.19662e-111
6.69226e-114
4.33612e-116
1.21855e-119
1.43817e-122
3.10938e-126
3.16975e-130
1.10012e-133
4.46551e-137
4.08408e-140
1.85768e-143
2.75971e-145
3.74779e-146
0.997112
1.07247
1.01603
0.983042
1.12379
0.976763
3.77346e-07
-2.45292e-18
1.22355e-37
3.92162e-20
1.46922e-21
1.21309e-24
4.15296e-29
8.31876e-33
3.30616e-36
1.34353e-39
5.51962e-43
2.22818e-46
9.1087e-50
3.71374e-53
1.46955e-56
6.12389e-60
2.39534e-63
9.98977e-67
3.8416e-70
1.53792e-73
7.45153e-77
2.58778e-80
1.01057e-83
4.18885e-87
6.78693e-89
3.03782e-92
2.10449e-95
1.12924e-98
5.55964e-102
3.68799e-105
1.29789e-108
7.21876e-112
5.2522e-116
3.80837e-118
6.76927e-122
6.4366e-126
8.33842e-128
1.17336e-130
8.91722e-134
4.45197e-138
8.03672e-141
7.99013e-144
2.54082e-145
1.43999e-146
1.08215
1.01851
0.967284
1.04517
0.987633
1.00299
9.66937e-11
-6.35876e-20
6.72063e-17
1.90959e-18
1.03074e-21
2.55453e-26
5.63037e-30
2.20233e-33
8.90161e-37
3.67133e-40
1.46464e-43
6.15037e-47
2.42819e-50
9.70497e-54
4.0041e-57
1.69914e-60
6.34757e-64
2.69509e-67
1.86302e-70
7.95068e-74
3.90171e-77
9.8885e-81
6.58584e-83
2.5352e-86
1.99895e-90
2.97905e-92
1.07668e-95
8.80168e-100
2.86704e-103
2.67804e-105
1.12757e-108
1.29954e-112
2.03752e-114
6.7988e-118
3.01093e-121
7.65334e-124
1.63106e-127
3.2368e-131
9.53385e-135
5.54585e-137
3.62449e-140
1.85693e-143
2.68319e-145
1.79838e-146
-6.69986e-20
1
-1.03183e-20
1
7.50807e-09
1.0009
6.81371e-08
-1.14862e-18
1.03605
0.187924
0.999996
2.08641e-07
1.03203
0.19032
0.366045
1.01559
0.945807
1.03207
0.377769
1.00989
0.942522
1
1.00653
1.00023
0.992539
1
1.00588
1.00034
1.0004
1.04288
1.00006
1.03062
1.00062
1.0549
1.00035
1.0007
1.01518
1.00011
1.01878
1.00116
1.0096
1.00056
1
1.01711
1
0.997656
1.00065
1.01558
1
0.970314
1
0.448171
1.00267
0.966618
0.999715
0.450279
0.191724
1.08002
-2.55353e-20
1.00016
0.184642
1.045
3.8867e-06
-4.92642e-19
0.908519
-6.43204e-19
1.00317
8.86517e-08
0.905393
8.21943e-09
1.43267e-08
1.00201
1.13567e-07
1
1.46154e-08
1
1.24366e-07
1.9252e-07
1.03579
0.191218
0.928643
6.22287e-08
1.0308
0.189457
0.380268
1.0045
0.941184
1.0268
0.380106
1.00275
0.942315
1.00049
1.00763
1.00114
0.990967
1
1.00531
1.00052
1.0012
1.06848
1.00122
1.0232
1.00083
1.03723
1.00066
1.00181
1.00861
1.00098
1.01232
1.00097
1.00208
1.00032
1.0013
1.01668
1
1.00194
1.00087
1.01789
1
0.966492
0.999609
0.450278
1.00206
0.965655
0.999454
0.450174
0.180734
1.0288
5.2976e-06
0.985682
0.202811
1.02488
4.94291e-06
1.38595e-07
0.906355
2.18104e-08
1.00255
1.37951e-07
0.918283
1.74588e-08
7.27603e-09
1
8.67316e-08
1
-2.031e-20
0.997116
0
3.53968e-07
1.03043
0.18737
0.953232
0
1.0302
0.17586
0.380388
1.00425
0.94308
1.02589
0.37166
1.0035
0.945755
1.0004
1.00368
1.00098
1.0019
1
1.00775
1.0004
1.00145
1.02528
1.00123
1.0223
1.00056
1.00811
1.00029
1.00177
1.00003
1.00095
1.00873
1.00032
0.998932
1
1.00176
1.01844
1
1.00106
1.00059
1.01793
1
0.965974
0.98556
0.450104
1.00322
0.969847
0.994581
0.448408
0.201708
1.02596
3.58707e-06
0.975245
0.184425
1.0262
-1.02113e-15
8.50812e-08
0.92536
7.10789e-09
1.00291
-4.25642e-19
0.898005
-1.18437e-22
1.00003
0.967407
1.01808
1.00252
1.00073
0.9604
1.01165
0.53992
0.475149
1.00081
1
1.00066
0.539119
0.476031
-1.04649e-17
-4.3966e-20
-5.74588e-17
8.43032e-12
1.37607e-14
7.13059e-11
1.02816e-14
1.01424
1.02535
1.00095
0.99168
1.00098
1.01214
1.0093
0.958948
0.977346
0.951215
0.997277
0.975473
0.929765
0.966336
-1.14035e-21
-5.07273e-17
-1.41037e-17
1.85398e-10
7.13079e-14
5.33829e-07
7.11568e-14
1.05244
0.996488
1.01192
0.997651
1.05813
0.980314
1.01594
1.01271
1.00552
1.03641
1.0364
1.00614
1.03665
1.01334
-1.73646e-16
0.249476
-7.35417e-16
7.00968e-07
5.9702e-11
0.257993
4.49066e-11
0.900327
1.01914
1.02242
1.00065
0.956676
1.00952
1.02934
0.970469
0.997797
0.962151
0.992681
0.997097
0.957143
0.988587
-2.071e-18
0.858803
-7.76967e-14
0.489222
1.36775e-08
0.85731
1.36773e-08
1.06648
1.00059
1.1313
1.07754
1.16694
0.983159
1.29544
1.00802
1.01272
1.0212
1.10535
1.01254
1.00674
1.00696
-1.12575e-14
0.98741
-2.17829e-14
0.921758
7.38505e-10
0.975308
4.39284e-10
1.00349
0.981538
1.02796
0.9608
1.01966
0.947992
1.14162
1.00075
1.00577
1.02297
1.02033
1.0055
1.02038
1.00143
-1.15571e-14
0.921502
-1.65907e-16
0.981288
3.51125e-10
0.915706
3.32698e-10
1.02936
1.03277
1.04188
1.07828
1.05312
1.02236
1.02752
1.00435
0.996889
1.01251
0.99719
0.996835
1.012
1.00307
-2.27513e-15
0.459982
-2.64891e-19
0.856427
8.87905e-09
0.461358
8.87906e-09
0.974395
0.97188
0.925001
0.942496
0.988191
1.00011
0.921838
0.992083
0.999283
0.984321
1.00439
0.999388
0.982303
0.992859
-4.5571e-18
0.000354423
-4.51851e-18
0.294865
3.95979e-11
0.00125781
4.66898e-11
1.02411
0.994367
1.25976
1.01605
1.21313
0.976793
1.26187
1
0.999972
1.08449
0.965568
0.999153
1.11094
1
-9.93943e-18
-4.55359e-16
-1.36434e-16
9.67681e-07
8.16786e-13
4.82329e-09
7.77617e-13
1.0364
1.01421
1
0.753614
1.00928
0.891522
0.998361
0.644403
0.80912
1.00529
1.00423
0.810965
1.00759
0.649892
-7.06177e-17
-3.62459e-18
-9.59706e-18
1.00758e-10
1.48196e-14
1.06385e-11
2.99377e-14
1.00016
1.0156
1.01208
1.02404
0.997537
1.04953
1.01093
0.541759
0.477256
1.00031
1.00022
0.542305
1.00046
0.47629
1.05235e-13
1.52388e-10
6.15044e-14
2.11352e-11
1.04639e-13
1.67961e-10
6.15056e-14
0.993779
1
0.990392
1.00797
0.975177
0.9902
1.02151
0.934679
0.967138
0.933779
0.946921
0.93417
0.955066
0.942206
2.16939e-13
5.93528e-07
2.16901e-13
7.10233e-11
3.16059e-13
6.02611e-07
2.16899e-13
1.03358
0.989384
1.01019
0.932625
1.01042
0.99726
1.01561
1.01256
1.0101
1.03607
1.029
1.01298
1.01097
1.03595
2.89672e-10
0.259843
1.66883e-10
1.08221e-06
2.88626e-10
0.258841
1.66883e-10
0.992968
1.0016
1.02265
1.01032
1.00848
1.00099
1.02032
0.995169
0.995716
0.95671
0.989269
0.9937
0.996543
0.970481
3.57537e-08
0.850778
3.57536e-08
0.489372
3.57537e-08
0.856135
3.57536e-08
1.06777
0.766432
1.37982
1.10797
0.971469
0.962903
1.11595
1.00834
1.01229
0.990105
1.02166
1.00845
1.01267
0.986775
1.55727e-09
0.972331
9.82155e-10
0.920023
1.47662e-09
0.973532
1.05005e-09
1.01093
1.01883
1.04696
1
0.999306
1.04725
0.958493
1.00286
1.00715
1.0245
1.02196
1.00278
1.00847
1.0161
6.86e-10
0.914541
6.19852e-10
0.979969
6.83469e-10
0.916276
6.76707e-10
1.10296
1.07479
1.05377
0.992752
1.1061
1.07599
1.05646
1.00249
0.996967
0.964023
1
1.00343
0.99835
0.975399
2.48049e-08
0.461493
2.48049e-08
0.853569
2.48049e-08
0.46157
2.48049e-08
1
0.993886
0.999604
1.00401
1.00412
1.00189
0.988506
0.981075
0.992785
0.976949
1.00193
0.983507
0.996304
0.975731
1.54195e-10
0.00139488
2.35759e-10
0.296519
1.54195e-10
0.00141041
2.37014e-10
1.11885
1.01084
1.14126
1.01864
1.00568
1.0112
1.03212
0.996965
0.999946
0.995561
1
0.99935
0.999824
0.999198
4.39357e-12
8.17053e-09
3.31698e-12
6.39221e-07
4.82004e-12
7.84279e-09
3.31695e-12
1.0056
0.887973
0.995301
0.979744
1.00477
1.05277
0.990037
0.648514
0.822876
1.00585
1.00215
0.649366
0.821075
1.00597
8.00529e-14
2.66475e-11
1.8918e-13
2.51593e-10
8.00529e-14
2.81994e-11
1.87267e-13
0.995906
1.03872
1.00786
1.01868
0.998156
1.03115
1.0006
0.541267
0.478166
1.00028
0.998455
0.542345
1.00035
0.477675
1.91468e-14
9.08927e-11
1.27016e-14
-3.05649e-22
-1.03267e-17
-5.37565e-22
-6.53027e-17
0.955652
0.997349
1.01691
1.03016
0.948772
1
1.02426
0.970309
0.939734
0.938314
0.931045
0.964443
0.947349
0.955945
2.55884e-13
4.94357e-07
2.55762e-13
-5.32488e-19
-9.20575e-19
-3.94114e-16
-1.05646e-17
0.988502
0.988286
1.01854
0.885897
0.991426
0.998542
1.00478
1.01226
1.01232
1.03389
1.02564
1.01274
1.01235
1.03634
5.98046e-11
0.257582
4.46605e-11
-3.66381e-17
-2.56499e-16
0.249545
-6.81624e-16
1.01321
0.997538
1.00475
0.994723
1.03906
1.09538
1.00879
0.959475
0.999469
0.94194
0.999043
0.942259
0.998198
0.941548
1.32108e-08
0.851725
1.32107e-08
0.487038
-1.73324e-18
0.857139
-6.602e-14
1.04404
1.02544
1.05884
0.922811
1.04904
1.18894
0.964904
1.00652
1.01181
0.989575
1.04596
1.00688
1.01229
0.989872
7.33379e-10
0.974119
5.62342e-10
0.924802
-1.2356e-14
0.986763
-2.02716e-14
1.00213
1.05519
0.98844
0.996799
0.996985
1.00505
0.999945
1
1.00684
1.00136
1.00962
1.00129
1.00661
0.989989
3.82288e-10
0.91421
3.46117e-10
0.993354
-9.07962e-15
0.919953
-2.04934e-16
0.996413
1.04135
1.04606
0.976558
1.00095
1.04286
1.04776
1.00373
0.999957
1.01496
1.00084
1.00481
1.00044
1.0118
9.2082e-09
0.461499
9.20822e-09
0.855497
-3.76886e-17
0.460098
-4.38771e-21
1.00683
1.02847
0.994018
1.00851
1.00289
1.03455
0.9834
0.999461
0.99613
0.963958
1.00322
0.999992
0.996979
0.959857
3.67561e-11
0.00128488
4.33476e-11
0.288085
-3.1729e-18
0.000367497
-3.2101e-18
1
0.994823
0.991381
0.995103
1.00045
0.938779
0.989602
0.968029
0.9984
0.943314
0.958425
0.968432
0.996462
0.909242
8.92014e-13
4.45291e-09
6.73064e-13
-2.23188e-16
-6.34111e-18
-2.91324e-16
-1.89872e-16
1.00727
1.05706
0.988485
0.986937
1.00654
1.01377
0.999275
0.658174
0.819665
1.00386
1.00379
0.654312
0.813278
1.002
1.43001e-14
8.45685e-12
2.90323e-14
-2.78759e-17
-6.77293e-17
-1.3866e-17
-1.123e-17
0.0054588
0.000678711
-5.14401e-22
1.06442e-09
1.06442e-09
0.00387231
0.00137225
0.686871
1.00057
0.819899
1
1.00028
0.817786
0.685367
0.0381085
-2.88899e-18
0.100871
1.56654e-08
1.56654e-08
0.106173
0.0352594
0.540605
1
0.477367
1.00067
1.00048
0.541344
0.476066
0.00638305
7.50808e-09
0.00232341
7.50808e-09
7.50808e-09
0.00740795
0.0018887
0.687186
1.00056
1.00053
0.816127
1.00044
0.819455
0.686971
0.0391713
6.81371e-08
6.81371e-08
0.111937
6.81371e-08
0.105727
0.0417508
0.406142
0.234433
0.00283359
5.05943e-07
0.236122
0.00526057
0.396185
0.994761
0.98741
1.00073
1.03447
0.987478
1
0.995601
0.615875
0.0295454
0.859849
0.187681
0.0329146
0.862068
0.614261
0.944464
0.999993
0.974049
0.930205
0.971321
0.928966
0.93688
0.433871
2.08641e-07
0.236563
2.08641e-07
0.238918
2.92561e-06
0.446993
0.995219
1.03438
0.99148
1.00104
0.994356
1.00129
0.99477
0.614915
0.186349
0.0372408
0.860611
0.0349142
0.864022
0.61621
1.00048
1
0.628376
0.370065
0.997726
0.628833
1.00038
1.00323
1.01507
1.00576
1.01612
1.01443
1.00468
1.0043
1.00038
0.819525
1.00011
0.944412
0.826226
1.00013
1.0008
1.01331
1.03466
1.00914
1.03632
1.00738
1.03625
1.01274
1.00157
0.373887
0.992917
0.627294
0.995269
0.62593
1.00111
1.0025
1.01357
1.00339
1.00389
1.00984
1.00499
1.00157
1.00062
0.943283
0.82125
1.00042
0.825719
1.00048
1.00016
0.995394
0.999858
1
1
0.999868
1
0.995455
0.991532
1.00033
1.00505
1.00557
1.00067
1.00336
0.990993
0.997383
1
1.00254
1.00071
1.00004
1.00264
0.998635
0.967629
0.991661
0.994019
0.956665
0.998968
0.970186
0.967124
0.997663
1.00012
0.999711
1
1.00014
1.00003
0.986982
0.991754
1.00751
0.984363
1.00412
0.993177
1.00489
0.983364
0.998073
1.00148
1.00008
1.00172
1.00077
1.00259
0.997781
1.00206
1.0042
1.00029
1.00053
1.00369
1.00035
1.00234
1.00003
0.98739
1.00259
1.00331
0.965934
1.0012
0.99958
0.993882
1
0.999925
1.00018
0.999973
0.999947
0.993143
1.00882
1.06018
1.01205
1.01293
1.01213
1.02156
1.00911
1.0029
1.00139
1.00378
1.00037
1.00429
1.00109
1.00262
1.00304
1.05321
0.967223
1.00907
0.99983
1.01
1.00432
0.995937
1.00098
1
0.999855
1.00013
1.00026
0.999246
1.00032
1.00346
1.00024
1.00091
1.00324
1.00031
1.00076
0.999764
1.00804
1.00572
1.01558
1.00755
1.00433
1.00015
0.997635
1
1.00153
1.00021
1
1.00123
0.997745
1.00161
1.02011
1.00724
1.01558
1.00672
1.02873
1.0017
1.00057
1.00161
1.00275
1.00041
1.00344
1.00132
1.00033
1
1.03645
1.00641
1.00296
1.0237
1.00461
0.993242
0.999092
1.00078
1
1.00097
1.00009
1.00118
0.996906
1.00109
1.00012
1.00015
1
1.00002
1.00015
1.00114
1.01428
1.03862
1.00454
1.01545
1.03975
1.00409
1.01567
1.00472
1.00054
1.00131
1
1.00052
1.00146
1.0045
1.00354
1.01162
0.996662
0.990532
0.998789
0.992391
1.00326
1.00153
1.00055
1.00048
1.00055
1.00054
1.00093
1.00137
1.01455
1.017
1.03968
1.0043
1.03961
1.00425
1.01397
1.00471
1
1.00068
1.00131
1.0008
1.00165
1.00443
1
1
0.798719
0.968058
1
0.800281
1.00007
0.988178
0.92297
1.00042
0.999208
0.929223
1.00021
0.996605
0.99992
0.69348
1.00009
0.449082
0.691666
1.00003
0.999981
0.995838
1.00411
0.998484
0.981922
0.999974
0.974543
0.986705
1.00003
0.96767
1
0.797892
1.00009
0.797749
1
0.979436
0.998371
0.969114
1
0.977135
1.00011
0.977109
0.999278
0.449067
0.698659
1
0.69427
1.00016
0.998868
0.63012
0.918351
0.0297201
0.190054
0.920894
0.0362466
0.633258
1.00083
1.02941
0.986816
1.07372
1.01627
0.98462
1.0016
0.525966
0.00490577
0.247651
1.32205e-06
0.00640971
0.250686
0.524573
1
1.02984
1
1.00732
1.00001
1.0176
0.999817
0.626661
0.18742
0.926439
0.0474667
0.923404
0.0416378
0.625763
1.00228
1.03409
1.01758
0.985583
1.04963
0.986069
1.00145
0.527214
3.8867e-06
0.0088588
0.254018
0.00745814
0.250469
0.527477
0.0273489
0.0963717
-1.85935e-19
2.00098e-08
0.0988313
2.00098e-08
0.0207799
0.535894
1.00017
0.2903
0.905543
1.00018
0.534705
0.295565
0.00452449
-3.4426e-23
-1.4785e-15
9.32795e-10
9.32793e-10
0.00278662
8.54115e-07
0.646126
1.00457
0.816103
1.00598
0.808934
1.00673
0.649372
0.0283229
8.86517e-08
0.099645
8.86517e-08
0.101075
8.86517e-08
0.0289785