/*--------------------------------*- C++ -*----------------------------------*\
| =========                 |                                                 |
| \\      /  F ield         | OpenFOAM: The Open Source CFD Toolbox           |
|  \\    /   O peration     | Version:  5.0                                   |
|   \\  /    A nd           | Web:      www.OpenFOAM.org                      |
|    \\/     M anipulation  |                                                 |
\*---------------------------------------------------------------------------*/
FoamFile
{
    version     2.0;
    format      ascii;
    class       volScalarField;
    location    "1.1";
    object      p;
}
// * * * * * * * * * * * * * * * * * * * * * * * * * * * * * * * * * * * * * //

dimensions      [1 -1 -2 0 0 0 0];

internalField   nonuniform List<scalar> 
9011
(
88.468
98.4057
107.585
123.46
100.674
96.391
93.0449
89.9119
87.4365
84.9531
82.497
80.0528
77.6251
75.2343
72.8637
70.5183
68.19
65.893
63.623
61.3746
59.1326
56.9119
54.7212
52.5236
50.3508
48.1982
46.0492
43.8987
41.7682
39.6629
37.5538
35.4695
33.4134
31.351
29.2804
27.2429
25.2571
23.3075
21.3655
19.4195
17.5006
15.6272
13.7556
11.8545
9.98296
8.15914
6.33649
4.50804
2.70004
0.903073
99.6087
92.632
102.581
102.031
100.741
101.075
94.0922
90.6884
87.9464
85.2793
82.7053
80.1817
77.7265
75.2968
72.8954
70.5454
68.2006
65.9126
63.6474
61.3804
59.1408
56.9169
54.7162
52.5306
50.3429
48.1807
46.0366
43.9002
41.7757
39.6655
37.5682
35.483
33.4112
31.3436
29.2822
27.2475
25.2538
23.2933
21.3511
19.4194
17.5072
15.6319
13.7631
11.8746
9.9915
8.14957
6.32409
4.50572
2.70133
0.90279
86.7321
77.235
115.748
104.016
103.697
100.29
96.0598
91.3602
88.3375
85.4966
82.8435
80.2544
77.7557
75.3222
72.9167
70.5439
68.2206
65.9425
63.666
61.3803
59.143
56.9194
54.7049
52.5158
50.3418
48.1755
46.0269
43.906
41.7855
39.6668
37.573
35.4829
33.3926
31.3328
29.2957
27.267
25.2538
23.2837
21.3466
19.4213
17.5154
15.6267
13.7464
11.8751
10.0022
8.14746
6.32048
4.50745
2.70441
0.902468
104.621
110.965
94.0165
107.335
99.7619
100.541
98.2886
91.4761
88.3318
85.513
82.8406
80.2743
77.7567
75.3139
72.9172
70.5491
68.2225
65.9346
63.6449
61.3835
59.1512
56.9187
54.7109
52.5208
50.355
48.1867
46.0266
43.9126
41.7803
39.6574
37.5738
35.4782
33.3869
31.3275
29.3014
27.2821
25.2602
23.28
21.3477
19.4293
17.5198
15.615
13.7289
11.8625
10.0071
8.14893
6.3196
4.51452
2.7109
0.89848
104.236
111.11
81.9148
56.5359
125.965
106.81
98.1411
91.6543
87.73
85.2384
82.6757
80.1651
77.7066
75.2801
72.9042
70.5444
68.2275
65.9218
63.6225
61.3816
59.1538
56.917
54.7148
52.5252
50.3634
48.2012
46.0367
43.9083
41.7681
39.65
37.5681
35.4701
33.3843
31.3259
29.3015
27.2908
25.2704
23.2845
21.3504
19.4354
17.5189
15.6028
13.7083
11.8511
10.0039
8.1502
6.32723
4.52835
2.71869
0.896122
99.0634
95.1803
113.825
140.755
102.217
91.1544
95.7241
90.5214
87.2067
84.9247
82.4787
80.045
77.6328
75.2419
72.8941
70.5441
68.2288
65.9196
63.6158
61.3724
59.15
56.9147
54.7158
52.5357
50.3698
48.2162
46.0471
43.9017
41.7611
39.6433
37.562
35.4643
33.376
31.3274
29.3052
27.2921
25.28
23.2943
21.3535
19.4366
17.5129
15.5893
13.6955
11.8421
9.99942
8.15492
6.34327
4.55299
2.7285
0.898821
99.0792
96.5131
106.858
103.6
104.039
93.0432
94.6625
89.4039
87.0088
84.6745
82.3291
79.9469
77.5856
75.2141
72.8628
70.525
68.2179
65.9236
63.6165
61.3598
59.1363
56.9123
54.7142
52.5428
50.374
48.214
46.0534
43.8989
41.7609
39.6512
37.5558
35.4505
33.3688
31.3333
29.3079
27.2865
25.2856
23.3062
21.355
19.4282
17.5053
15.58
13.6904
11.8393
9.9951
8.15656
6.34966
4.55302
2.73455
0.90824
91.849
98.0384
105.799
104.404
100.943
95.3037
93.3047
88.901
86.7559
84.5051
82.2128
79.8741
77.5402
75.1846
72.8234
70.5159
68.2018
65.9066
63.6272
61.3524
59.1256
56.9063
54.7095
52.5431
50.3711
48.2182
46.0549
43.8967
41.7761
39.6597
37.5527
35.448
33.3737
31.34
29.306
27.2759
25.2867
23.3218
21.362
19.4231
17.5011
15.5935
13.7045
11.8441
9.99364
8.15882
6.34842
4.54201
2.73236
0.912308
89.5939
102.354
101.019
129.876
86.7896
90.7978
90.6396
88.5283
86.6212
84.4659
82.2018
79.8779
77.5338
75.1784
72.8315
70.5128
68.1819
65.891
63.6222
61.3614
59.1205
56.9012
54.7178
52.541
50.3804
48.2189
46.052
43.8951
41.7662
39.6565
37.54
35.4483
33.3907
31.3446
29.298
27.2644
25.2804
23.3228
21.3653
19.4212
17.4994
15.6008
13.7197
11.8444
9.98974
8.15952
6.34104
4.53074
2.72114
0.9128
92.382
95.8043
195.316
146.818
129.332
90.6336
90.762
88.957
86.8887
84.6227
82.303
79.9311
77.5484
75.2009
72.8442
70.5078
68.1838
65.8939
63.6188
61.3667
59.124
56.9051
54.7213
52.5297
50.365
48.2142
46.0526
43.8969
41.7644
39.6582
37.5431
35.4541
33.4059
31.3501
29.2853
27.2482
25.2657
23.3166
21.3672
19.4194
17.4998
15.6155
13.7334
11.8451
9.98175
8.16162
6.34142
4.51838
2.70686
0.904008
98.7912
96.006
108.028
104.638
100.734
96.4108
93.046
89.9126
87.4364
84.9531
82.4971
80.0529
77.6249
75.2343
72.8636
70.5178
68.19
65.893
63.6231
61.3744
59.1325
56.9124
54.7212
52.5235
50.3509
48.1983
46.0491
43.8987
41.7681
39.6629
37.5538
35.4697
33.4135
31.3509
29.2803
27.2428
25.2571
23.3075
21.3655
19.4195
17.5005
15.6273
13.7557
11.8546
9.98293
8.1592
6.33638
4.50793
2.7
0.903138
105.113
95.1976
107.261
101.476
100.194
100.468
94.0761
90.6888
87.9463
85.2793
82.7053
80.1817
77.7265
75.2967
72.8954
70.5453
68.2006
65.9128
63.6474
61.3803
59.1408
56.917
54.7161
52.5305
50.343
48.1807
46.0366
43.9002
41.7757
39.6656
37.5687
35.4831
33.4111
31.3436
29.2822
27.2474
25.2538
23.2933
21.351
19.4194
17.5073
15.632
13.763
11.8744
9.99162
8.14957
6.32401
4.50583
2.70153
0.902742
84.9872
94.7963
113.876
104.922
102.704
99.8763
96.0122
91.3613
88.3382
85.4966
82.8435
80.2543
77.7557
75.3222
72.9166
70.5439
68.2205
65.9423
63.6662
61.3802
59.1425
56.9193
54.7047
52.5157
50.3417
48.1754
46.0269
43.9059
41.7855
39.6669
37.5729
35.4828
33.3927
31.3328
29.2958
27.267
25.2538
23.2837
21.3466
19.4213
17.5155
15.6268
13.7463
11.8749
10.0021
8.14729
6.32043
4.50749
2.70443
0.902468
104.888
102.228
141.823
109.553
100.059
100.579
98.2232
91.4775
88.3317
85.5127
82.8406
80.2744
77.7567
75.3138
72.9172
70.5491
68.2225
65.9344
63.6448
61.3834
59.1513
56.9187
54.7109
52.5209
50.3549
48.1865
46.0268
43.9127
41.7805
39.6573
37.5736
35.4783
33.3869
31.3275
29.3015
27.2821
25.2601
23.28
21.3477
19.4293
17.5198
15.615
13.7289
11.8626
10.0071
8.14895
6.31949
4.51449
2.71089
0.898324
102.334
107.612
79.3252
69.1187
103.497
103.956
98.1723
91.6527
87.7302
85.2386
82.6757
80.165
77.7065
75.2801
72.9042
70.5445
68.2275
65.9217
63.6224
61.3817
59.1539
56.917
54.7144
52.5253
50.3632
48.2013
46.0368
43.9083
41.7679
39.6499
37.5681
35.4701
33.3836
31.3258
29.3015
27.2908
25.2704
23.2844
21.3504
19.4358
17.5188
15.6024
13.7083
11.8511
10.0039
8.15019
6.32717
4.52822
2.71864
0.896174
99.657
94.4794
106.854
92.4188
125.95
91.8787
95.676
90.5193
87.2069
84.9249
82.4786
80.0449
77.633
75.2419
72.894
70.544
68.2288
65.9197
63.6157
61.3724
59.1499
56.9146
54.7158
52.5358
50.3698
48.2163
46.0471
43.9016
41.7611
39.6435
37.562
35.4638
33.3759
31.3274
29.3053
27.292
25.28
23.2942
21.3535
19.4366
17.5127
15.5888
13.6956
11.8421
9.99929
8.1549
6.34325
4.553
2.72826
0.89878
95.8156
95.3654
118.033
98.672
111.906
93.5925
94.7982
89.4036
87.0088
84.6745
82.3291
79.9468
77.5856
75.214
72.8628
70.525
68.2179
65.9235
63.6164
61.3599
59.1363
56.9123
54.7142
52.5427
50.3737
48.214
46.0534
43.8989
41.761
39.6511
37.5559
35.4504
33.3687
31.3332
29.3078
27.2865
25.2855
23.3061
21.3549
19.4283
17.5053
15.5798
13.6905
11.8393
9.99496
8.15654
6.34977
4.5531
2.73453
0.908365
91.8388
92.5254
105.355
103.252
99.3565
95.1897
93.1889
88.9014
86.7561
84.5051
82.2127
79.8741
77.5402
75.1845
72.8234
70.5159
68.2021
65.9064
63.6273
61.3524
59.1256
56.9064
54.7095
52.5431
50.371
48.2182
46.0549
43.8964
41.7759
39.6597
37.5526
35.4479
33.3737
31.34
29.3059
27.2759
25.2867
23.3218
21.362
19.4231
17.501
15.5935
13.7045
11.8441
9.99356
8.1588
6.34841
4.54199
2.73229
0.912432
91.1766
98.0832
104.997
123.006
83.8338
89.5004
90.6833
88.5285
86.6213
84.4659
82.2017
79.8779
77.5338
75.1784
72.8315
70.513
68.182
65.8911
63.6222
61.3614
59.1205
56.9012
54.7177
52.5409
50.3805
48.2189
46.0519
43.895
41.7662
39.6566
37.54
35.4481
33.3911
31.3446
29.298
27.2645
25.2804
23.3227
21.3651
19.4212
17.4994
15.6008
13.7197
11.8443
9.98971
8.15948
6.34099
4.53071
2.72121
0.912804
88.0982
86.1794
107.53
137.691
97.8574
90.6947
90.7628
88.9574
86.8885
84.6227
82.3032
79.931
77.5482
75.2009
72.8442
70.508
68.1837
65.8939
63.6189
61.3667
59.1239
56.905
54.7212
52.5297
50.365
48.2141
46.0526
43.8969
41.7644
39.6582
37.543
35.4542
33.406
31.35
29.2853
27.2483
25.2656
23.3166
21.3672
19.4194
17.4998
15.6155
13.7334
11.8449
9.98172
8.16165
6.34119
4.51836
2.70689
0.903991
97.4794
96.3851
108.267
112.925
100.553
96.4127
93.0451
89.9122
87.4364
84.953
82.4971
80.0529
77.6247
75.2343
72.8636
70.5175
68.1899
65.893
63.6231
61.3742
59.1324
56.9123
54.7211
52.5234
50.3509
48.1982
46.0489
43.8986
41.7679
39.6628
37.5539
35.4697
33.4134
31.3507
29.2802
27.2428
25.2571
23.3076
21.3655
19.4194
17.5004
15.6273
13.7558
11.8547
9.98291
8.15917
6.33626
4.50783
2.6999
0.90309
93.9448
90.5165
111.205
104.079
100.412
99.7368
94.0823
90.6879
87.9463
85.2791
82.7052
80.1816
77.7264
75.2967
72.8953
70.5451
68.2005
65.9128
63.6472
61.3802
59.1408
56.917
54.716
52.5302
50.3431
48.1807
46.0363
43.9001
41.7758
39.6656
37.5688
35.483
33.411
31.3436
29.2822
27.2473
25.2537
23.2937
21.3509
19.4192
17.5072
15.6321
13.7629
11.8741
9.99163
8.14956
6.32386
4.50577
2.70155
0.902549
88.3035
101.126
147.191
103.556
103.346
99.7745
96.0142
91.3611
88.3386
85.4965
82.8434
80.2543
77.7556
75.3221
72.9166
70.5438
68.2205
65.9421
63.666
61.3801
59.1422
56.9193
54.7046
52.5157
50.3417
48.1753
46.0269
43.9059
41.7855
39.6669
37.5728
35.4824
33.3928
31.3329
29.2959
27.267
25.2536
23.2837
21.3465
19.4212
17.5156
15.627
13.746
11.8747
10.0021
8.14722
6.32033
4.50745
2.7044
0.902174
113.818
98.169
136.233
107.774
105.107
100.224
98.2287
91.4777
88.3316
85.5124
82.8405
80.2743
77.7566
75.3137
72.9171
70.549
68.2224
65.9342
63.6447
61.3833
59.1514
56.9186
54.7108
52.5214
50.3547
48.1863
46.0269
43.9126
41.7805
39.6572
37.5735
35.4783
33.3868
31.3274
29.3015
27.2817
25.26
23.2801
21.3477
19.4292
17.5197
15.6149
13.7286
11.8628
10.0072
8.14892
6.31939
4.51442
2.71076
0.897987
106.141
109.885
86.8863
47.8004
100.58
103.228
98.1471
91.6536
87.7294
85.2388
82.6756
80.1648
77.7063
75.28
72.9042
70.5445
68.2274
65.9217
63.6223
61.3817
59.1539
56.9163
54.7143
52.5254
50.3629
48.2013
46.0369
43.9082
41.7678
39.6499
37.5681
35.4701
33.3836
31.3258
29.3015
27.2907
25.2704
23.2845
21.3504
19.4359
17.5185
15.602
13.7084
11.8511
10.0038
8.15012
6.32733
4.52805
2.71853
0.896079
95.1084
94.9606
111.327
97.1925
121.295
91.3889
95.6559
90.5206
87.2062
84.925
82.4784
80.0449
77.633
75.2418
72.894
70.5439
68.2287
65.9197
63.6156
61.3724
59.1499
56.9141
54.7156
52.5358
50.3698
48.2162
46.0469
43.9016
41.761
39.6438
37.5622
35.4636
33.3757
31.3273
29.3054
27.2919
25.2799
23.2942
21.3535
19.4367
17.5126
15.5884
13.6955
11.842
9.99911
8.15483
6.34325
4.55299
2.72753
0.898751
94.0413
94.2657
102.963
108.381
99.9909
93.8249
94.7305
89.4025
87.0087
84.6744
82.329
79.9468
77.5855
75.214
72.8627
70.5249
68.2178
65.9233
63.6164
61.3599
59.1362
56.9122
54.7141
52.5427
50.3735
48.214
46.0533
43.8992
41.7612
39.6511
37.5557
35.4502
33.3687
31.3332
29.3077
27.2863
25.2855
23.3061
21.3549
19.4283
17.5052
15.5797
13.6904
11.8392
9.99483
8.15648
6.35003
4.55283
2.73446
0.908312
101.389
179.301
111.534
107.139
101.043
95.1997
93.2245
88.9012
86.7562
84.505
82.2126
79.874
77.5401
75.1845
72.8233
70.5159
68.2023
65.9061
63.6274
61.3523
59.1255
56.9064
54.7096
52.543
50.3708
48.2182
46.0549
43.8962
41.7759
39.6598
37.5525
35.4478
33.3736
31.34
29.3058
27.2758
25.2866
23.3217
21.3619
19.4231
17.5009
15.5935
13.7045
11.844
9.99344
8.15874
6.34836
4.54195
2.73228
0.912439
94.4931
97.1395
100.333
107.238
115.575
89.0877
90.605
88.5285
86.6216
84.4658
82.2017
79.8778
77.5337
75.1783
72.8315
70.5132
68.182
65.8909
63.6222
61.3614
59.1204
56.9011
54.7177
52.5408
50.3803
48.2189
46.0518
43.8949
41.7668
39.6567
37.5399
35.448
33.3918
31.3445
29.2977
27.2646
25.2803
23.3226
21.365
19.4211
17.4995
15.6008
13.7196
11.8441
9.9896
8.15942
6.34083
4.53065
2.7212
0.912709
93.054
88.5837
99.4408
117.207
98.2984
90.704
90.7613
88.9573
86.8886
84.6227
82.3032
79.9308
77.548
75.2009
72.8441
70.5082
68.1837
65.8938
63.6189
61.3666
59.1236
56.9049
54.7212
52.5297
50.365
48.214
46.0525
43.8969
41.7643
39.6578
37.5429
35.4544
33.4064
31.3499
29.2852
27.2484
25.2656
23.3165
21.3672
19.4194
17.4997
15.6154
13.7334
11.8448
9.98167
8.1616
6.34102
4.51825
2.7069
0.903932
94.067
98.6349
95.2325
96.4115
94.0744
98.6466
95.2289
95.5819
100.066
97.1465
101.454
95.6317
99.9832
97.0719
97.5225
100.917
99.1259
99.9107
97.4605
100.606
99.141
99.379
102.211
99.3302
100.599
99.3955
102.174
99.3215
98.4942
99.0252
95.7929
103.9
98.4962
91.5222
95.8056
95.5914
95.3114
94.3681
91.2369
95.5901
93.7968
94.3708
94.2731
95.2454
94.4527
93.9763
94.2691
95.1659
94.4691
94.3723
93.5737
92.2484
95.1815
94.3791
93.6181
92.1815
90.883
90.0418
89.5464
89.2651
90.7395
89.7214
89.5428
90.5845
95.1784
93.486
90.6688
90.5833
95.2761
93.4811
94.0715
98.6691
95.2287
96.4108
94.0715
98.6374
95.2475
95.6202
100.378
97.0728
100.635
95.5204
99.7372
97.0725
97.4849
100.549
99.1342
99.5241
97.4677
100.628
99.1486
99.3925
102.297
99.3074
100.568
99.3908
102.249
99.3183
98.4921
94.0209
95.8146
103.635
98.4934
89.3491
95.815
95.6036
93.8244
94.379
91.3461
95.5895
93.5558
94.3761
94.2825
95.1137
94.4685
93.8643
94.2911
95.1454
94.4692
94.3844
93.6286
92.157
95.2185
94.4009
93.6111
92.2053
90.8262
88.5998
89.5123
89.0337
90.8762
88.7714
89.5334
90.5831
95.3859
93.4773
90.7033
90.5741
95.272
93.5068
94.0737
98.6645
95.2549
96.3864
94.0679
98.6091
95.2392
95.5072
99.7306
97.062
103.646
95.5587
99.7351
97.1971
97.4706
100.631
99.1519
99.6989
97.4973
100.651
99.1238
99.3929
102.513
99.3071
100.586
99.3732
102.311
99.3012
98.4981
88.5196
95.8435
110.202
98.49
104.11
95.8335
95.6421
93.628
94.3824
91.5908
95.5904
94.0814
94.372
94.3106
95.1829
94.4689
93.7541
94.3002
95.1794
94.4495
94.3977
95.0194
92.2227
95.2109
94.3792
93.4148
92.2347
90.8213
88.9038
89.5381
89.7967
91.3092
88.9991
89.5584
90.5768
95.4213
93.5181
90.7136
90.5751
95.607
93.4955
96.9815
101.524
100.402
100.643
97.0404
102.222
99.5703
96.4682
96.4264
97.094
96.4026
97.092
96.4669
96.4006
91.5416
93.8894
92.2566
93.0454
91.5501
93.8898
92.2654
100.586
101.514
99.5849
101.603
99.4455
100.283
99.424
99.1951
98.7378
104.065
100.721
98.6989
100.396
99.8155
92.6799
95.7778
93.3974
94.0857
92.6884
95.7814
93.4073
99.9677
103.15
100.719
102.713
100.575
104.641
100.774
99.5375
99.0486
100.347
100.149
98.9875
100.342
99.5467
93.8589
97.7911
94.2962
96.0134
93.869
97.6241
94.3057
106.692
109.264
103.9
100.087
101.287
108.438
104.301
99.7006
100.201
100.918
100.527
100.149
101.8
102.779
94.2141
98.9926
93.9583
98.2386
94.2214
98.9563
93.9615
100.923
112.684
119.615
121.262
152.355
109.92
107.749
97.7576
99.1651
102.301
119.881
99.1021
103.324
97.904
93.3782
96.0841
92.2832
98.1728
93.3879
95.9899
92.2887
97.954
99.6333
107.791
124.078
89.7397
100.785
117.758
94.6232
95.4735
93.9511
90.8337
95.4942
94.1649
94.6045
92.0665
94.7045
91.205
95.6382
92.0717
94.7141
91.2132
98.3666
101.148
97.461
100.451
99.6213
101.953
98.5339
94.4839
94.039
92.9095
93.2191
94.0372
92.79
94.3963
91.1577
93.5769
90.9914
94.7365
91.1602
93.5388
90.9973
96.7906
98.3159
94.1107
99.3981
97.2199
96.1178
94.1041
94.7309
94.8294
94.863
95.339
94.8324
94.5702
94.8365
90.876
91.0868
90.2619
93.2004
90.8838
91.0681
90.2699
88.2716
101.888
101.027
80.922
132.289
95.9886
94.816
91.6339
90.5604
89.2469
96.0678
90.5544
94.3879
91.5595
89.8393
90.2477
89.5949
90.6654
89.848
90.2458
89.6019
93.8423
100.824
95.2192
160.957
92.3695
115.065
94.8521
90.9073
90.8199
91.0639
90.6521
90.8099
91.0899
90.8837
89.9085
92.0542
90.8105
90.7622
89.9162
92.0547
90.8184
96.9367
102.023
99.5032
101.501
96.8836
103.848
99.3103
96.4642
96.332
97.0896
96.4111
96.4706
97.0957
96.3186
91.549
93.8904
92.2645
93.0457
91.5489
93.8906
92.2644
99.4543
100.35
101.582
100.255
99.5777
101.649
99.6128
99.4799
98.4528
100.51
99.8391
99.4585
98.2213
103.27
92.6873
95.7712
93.4074
94.0728
92.6867
95.7714
93.4072
100.294
103.087
101.174
102.902
100.338
103.755
101.496
99.5202
98.965
100.341
99.6774
99.527
98.9973
100.365
93.8683
97.6131
94.3044
96.0159
93.8682
97.6024
94.3044
101.151
109.319
103.506
101.165
101.115
109.503
103.367
106.364
100.084
103.099
101.202
105.773
100.012
102.955
94.2188
99.158
93.9553
98.2245
94.2192
99.0151
93.9576
116.091
165.819
129.707
104.924
126.616
113.474
105.789
97.6549
99.1811
103.685
104.298
97.7045
99.223
105.299
93.386
96.0273
92.2858
98.1567
93.3851
96.0097
92.2866
88.903
100.491
101.733
123.162
90.571
100.966
112.171
94.4885
95.3919
93.2795
92.7639
94.5239
95.5573
93.2288
92.0691
94.7316
91.2117
95.6568
92.0702
94.7359
91.2131
100.157
102.19
96.1081
98.7002
98.2749
102.434
96.6486
94.6457
94.1762
101.974
93.5258
94.4139
93.7839
97.5803
91.1589
93.5338
90.9945
94.6801
91.1559
93.5326
90.9946
96.6632
95.5567
96.0022
100.321
96.2909
93.2392
94.301
95.7257
96.4826
95.4213
95.2229
94.9881
95.3254
95.5522
90.8826
91.0665
90.2691
93.2042
90.8826
91.0728
90.2687
96.796
96.8898
93.8031
91.2223
96.4779
98.5348
92.9122
91.6345
90.6401
91.6087
89.6021
91.8113
90.727
91.5453
89.8478
90.2432
89.6004
90.6174
89.8476
90.2412
89.6005
92.4239
115.837
94.9075
103.475
92.4286
111.304
95.031
90.913
90.9594
91.1195
90.6851
90.8981
90.9441
91.1499
89.9147
92.0556
90.8174
90.7619
89.9146
92.0555
90.8174
97.1392
101.872
99.2832
102.409
96.937
101.395
99.6118
96.4686
96.3809
97.0729
96.4138
96.4635
97.0911
96.4033
91.5498
93.8901
92.265
93.0442
91.5412
93.8895
92.256
99.9094
100.658
99.5495
101.38
100.66
100.755
100.27
100.91
98.6647
99.0088
99.9487
100.137
98.4215
99.2722
92.687
95.7749
93.4077
94.0908
92.6779
95.7871
93.3985
101.282
103.595
101.994
104.515
101.02
103.632
102.974
99.5076
99.0417
100.587
99.4754
99.5324
99.047
100.582
93.8689
97.6242
94.3057
96.047
93.859
97.7709
94.2962
101.116
108.819
103.45
103.608
103.584
120.952
103.151
99.2696
99.981
100.816
100.328
103.931
99.8411
100.844
94.2224
99.1256
93.9602
98.2814
94.2144
99.007
93.9582
98.6476
111.357
102.319
82.2704
98.2398
117.146
103.577
97.8939
99.2202
100.073
109.192
97.7733
99.2292
100.173
93.3873
95.9956
92.2907
98.1285
93.378
96.0468
92.2831
90.6481
104.142
103.602
120.663
94.7896
104.118
102.811
94.1624
95.343
93.7755
91.4727
94.1269
95.3444
95.1225
92.0746
94.754
91.2157
95.712
92.0689
94.7102
91.206
97.256
96.5922
94.8616
99.7775
97.4455
96.449
94.7638
94.6848
93.7993
96.9483
93.7568
94.581
93.827
96.998
91.1606
93.54
90.9975
94.6146
91.1571
93.5735
90.9918
96.4705
94.1103
95.1581
101.231
96.3259
95.1521
98.6508
95.1273
95.2044
94.6834
95.2183
95.2443
95.2014
95.2138
90.8837
91.0744
90.2692
93.3168
90.8756
91.0881
90.261
97.9379
99.792
93.7761
103.718
97.832
99.8061
93.9631
91.433
90.8581
91.3553
94.8846
91.4052
90.969
91.4899
89.8476
90.2413
89.6021
90.6596
89.839
90.2442
89.5953
92.5174
112.832
95.2351
98.2029
92.1815
110.01
96.6145
90.8817
90.9348
91.1502
90.7108
90.854
90.9622
91.1573
89.9158
92.0545
90.8185
90.7612
89.908
92.0537
90.8107
95.1803
95.0218
94.3683
94.077
94.3789
95.2183
95.0133
97.7514
98.1612
97.5358
98.6446
98.1706
97.5754
97.7317
95.9965
94.955
96.4531
95.2378
94.9647
96.3234
96.0836
96.4716
96.4092
96.3431
97.0841
97.0826
96.4708
96.3729
95.1634
94.0728
95.01
94.375
94.3747
95.1587
95.0099
97.7518
98.6454
98.1476
97.6131
98.16
97.603
97.745
95.9652
95.2302
94.9581
96.3313
94.9591
96.2805
95.953
98.3623
96.8415
95.7096
95.5935
96.7798
95.6954
99.0817
98.6384
98.7104
99.0961
99.8666
98.6889
99.1097
98.6238
98.2676
96.7632
98.6743
97.1047
96.669
98.7
98.2426
98.9482
101.45
98.7574
100.317
98.6636
100.838
99.3559
98.0763
95.6046
96.7357
95.5375
96.7193
95.568
98.7871
98.6491
99.8668
98.9825
99.1054
99.5658
99.1037
98.6536
98.3084
97.1026
96.6957
98.6765
96.6598
98.7258
98.2949
99.3665
98.8031
98.5401
97.4396
98.7829
98.5371
99.3515
99.5412
100.385
100.18
101.013
100.261
100.056
99.7272
99.9712
99.1331
99.6326
99.1422
99.1699
99.6328
99.9511
99.5388
100.022
98.9386
100.334
98.9308
100.325
99.5239
99.3726
97.4279
98.7708
98.5582
98.7722
98.5452
99.356
99.4868
100.7
100.139
99.9843
100.15
100.08
99.4443
99.9785
99.1498
99.1449
99.63
99.1631
99.6277
99.9815
99.4968
99.6496
99.2298
99.394
99.6549
99.2554
99.5121
100.581
101.283
100.994
102.18
101.325
101.03
100.527
99.911
99.539
99.9696
99.3449
99.544
99.9831
99.9586
100.838
100.58
100.544
103.086
100.42
104.276
100.998
100.111
99.3973
99.6478
99.2454
99.69
99.2522
102.976
100.624
102.21
101.242
100.828
100.975
100.847
100.645
99.801
99.3486
99.5404
99.9434
99.5436
99.9744
99.8147
98.3152
99.2253
97.7956
98.496
99.2198
97.7955
98.2951
95.6809
99.9739
95.882
104.208
103.371
96.0825
95.7651
96.6564
96.4423
95.7812
95.7873
96.4442
95.7656
96.7801
97.7985
103.479
99.1704
102.531
99.1568
104.392
97.8487
98.2821
98.5086
99.2078
97.7905
99.2062
97.8111
98.2646
95.6225
91.7132
107.183
95.8366
105.892
95.9902
95.6374
96.6806
95.8275
96.4418
95.7281
96.4443
95.7507
96.7329
94.7847
95.2632
94.8959
95.5779
95.2423
94.8943
94.8072
95.2635
94.7637
93.7369
95.2581
94.8116
93.5891
95.3501
95.0419
94.8734
95.0351
94.3689
94.8727
95.0004
95.0329
94.5301
90.9334
95.4116
93.575
95.4093
96.9056
94.5248
94.7512
95.6156
95.2222
94.8996
95.274
94.9328
94.7514
95.2722
102.369
94.6438
93.489
100.018
93.5697
95.2766
95.5482
94.3715
94.863
94.9995
94.8697
95.0009
94.7865
94.4419
94.4448
94.4162
94.2645
94.4548
94.4208
94.437
94.9156
95.7884
94.9466
95.2112
95.7764
94.9488
94.9916
94.7696
94.651
94.6472
94.4625
94.6709
94.6413
94.7584
94.3747
97.5306
94.2517
92.6181
94.6501
92.6322
94.4034
94.4399
94.2559
94.4277
94.4127
94.4319
94.4177
94.4406
94.8948
95.1898
95.7694
94.9219
95.7664
94.9352
94.9449
94.7743
94.4674
94.6674
94.6192
94.6783
94.6679
94.7497
94.435
94.5864
94.0078
94.3691
94.5846
94.044
94.4239
94.6736
88.0682
93.3864
93.5596
86.7345
93.3629
96.424
94.3545
93.1675
93.0063
92.2309
93.1912
93.0322
94.3459
95.8697
95.2774
94.7469
95.4815
94.9843
96.3477
94.8329
94.4255
94.3757
94.5822
94.046
94.5822
94.0485
94.4178
95.2692
93.6602
98.3204
93.3575
101.173
93.3633
96.0113
94.3417
92.2074
93.1779
93.0344
93.1714
93.0443
94.3184
90.8134
91.5028
90.8852
90.8197
91.5049
90.6144
90.7749
92.1088
92.0643
89.1926
89.0474
93.4607
89.1624
92.085
91.6035
90.5204
89.6692
89.5529
90.4938
89.6679
91.6702
91.6877
98.2468
90.5585
91.9849
90.5617
92.3052
91.7654
90.8733
90.7611
91.4731
90.4977
91.4911
90.5381
91.0048
92.0365
89.8416
90.0547
89.2626
99.2964
89.1931
91.9449
91.513
89.5544
90.4647
89.592
90.4725
89.6763
91.5091
90.9801
90.7373
90.9372
90.5887
90.6799
90.9424
91.1266
92.8898
92.2886
95.4121
95.1739
92.3102
92.9091
95.2803
92.2899
91.9789
94.1524
93.494
91.9872
92.3342
94.1677
90.897
90.6886
90.766
91.0994
90.8393
91.0894
90.8948
90.958
90.581
90.6067
90.9367
90.6891
90.9373
90.9419
92.8733
95.2233
92.3113
95.1089
92.3152
92.873
95.2923
92.2685
93.4853
91.9819
94.1315
91.9818
92.2633
94.1776
95.1523
95.0132
94.3718
94.0729
95.1531
94.372
95.0178
97.7632
98.1452
97.5663
98.6363
97.7523
98.1403
97.5784
95.9294
94.9528
96.3055
95.233
95.9388
94.952
96.2614
96.4581
96.4108
96.3374
97.0807
97.0923
96.4573
96.3034
95.1555
94.0726
95.0163
94.3718
94.3721
95.1576
95.0196
97.7685
98.6364
98.099
97.5488
98.1256
97.601
97.76
95.9214
95.2373
94.9537
96.2648
94.9514
96.2515
95.9266
99.0466
96.512
95.573
95.5714
98.9468
96.3642
95.5314
98.7196
99.2576
99.1035
99.9447
98.668
98.8293
99.1126
98.3591
96.6607
98.6874
97.1172
98.2821
96.6906
98.7409
100.784
100.392
98.3496
102.111
98.3415
102.596
99.5769
101.007
95.5396
96.7228
95.4724
96.5962
95.3796
99.0306
98.7002
100
98.8603
99.1215
98.9884
99.1175
98.6946
98.3564
97.0816
96.6191
98.6892
96.6467
98.6974
98.3362
99.3283
98.7806
98.5651
97.4662
99.34
98.7765
98.5358
99.3935
100.146
99.9972
100.703
99.42
100.285
100.249
100.049
99.1448
99.6367
99.1469
100.005
99.1664
99.6328
99.5152
99.5841
99.0251
100.391
99.0089
100.394
99.5191
99.3179
97.4629
98.7281
98.538
98.7528
98.5282
99.2963
99.3816
100.439
100.429
99.7592
100.467
99.944
99.3694
100.057
99.1549
99.1234
99.6261
99.1652
99.6287
100.015
102.129
99.6354
99.2531
99.3901
100.541
99.634
99.2643
101.202
101.478
100.865
102.193
100.67
101.507
100.874
99.816
99.5417
99.9267
99.3158
99.8973
99.5471
99.9346
101.466
100.519
99.7377
100.514
99.994
107.108
103.85
100.978
99.3901
99.6661
99.2288
99.6355
99.2415
99.1067
100.766
102.234
101.422
100.898
101.494
100.897
100.572
99.8394
99.3311
99.5353
99.9356
99.5458
99.9334
99.9703
98.284
99.2084
97.7838
98.4916
98.3132
99.2356
97.7877
95.7101
101.074
96.3651
91.3399
95.6913
100.917
96.228
96.8313
96.4442
95.679
95.807
96.7985
96.4418
95.6891
97.6254
103.559
99.2061
104.167
99.1835
102.072
97.6482
98.3184
98.5014
99.2307
97.7936
99.2344
97.7916
98.2741
95.8317
91.1159
101.358
96.447
101.077
96.2982
95.9124
96.8485
95.8095
96.4281
95.6962
96.4357
95.6837
96.8416
94.7395
95.2227
94.9053
95.5929
94.7436
95.268
94.8922
95.3461
94.8453
93.524
93.8644
95.3386
95.3674
93.5618
95.2731
94.8595
94.9996
94.3761
95.7706
94.8617
94.9742
94.4856
91.4124
95.3356
93.8174
95.4498
93.3688
94.2772
94.7381
95.6026
95.2526
94.8883
95.245
94.8913
94.7371
95.3365
93.5201
96.3114
93.5733
95.6747
93.58
95.3176
95.451
94.3766
94.8704
94.9559
94.8651
94.9715
95.2852
94.4755
94.4724
94.4135
94.2647
94.4887
94.4742
94.4223
94.928
95.7429
94.9745
95.1054
94.9143
95.7636
94.8509
94.7574
94.6659
94.6216
94.4678
94.74
94.6766
94.6117
94.7186
93.7405
93.7703
107.9
93.7589
97.4882
94.496
94.5374
94.271
94.4875
94.4205
94.4861
94.4259
94.5378
94.9394
95.154
95.7871
94.9021
95.764
94.8916
94.9848
94.7625
94.4687
94.6575
94.6199
94.6719
94.6146
94.7886
94.3957
94.5824
94.0462
94.3944
94.4109
94.5816
94.0204
94.1471
97.3084
93.3367
93.6339
94.3402
97.3966
93.3468
94.3074
93.2289
93.0335
92.1517
94.3038
93.2549
93.0522
94.3884
95.2602
95.1941
94.319
96.1244
97.8572
94.7648
94.3877
94.4072
94.574
94.0211
94.5795
94.0278
94.3884
94.3862
93.6445
105.528
93.3551
101.906
93.3475
94.6677
94.3034
92.1759
93.2986
93.0453
93.2947
93.0615
94.29
91.3975
91.512
90.6723
90.8536
91.4124
91.4701
90.9086
91.9147
90.8835
89.2918
88.6789
91.9247
90.3855
89.4295
91.5976
90.45
89.666
89.5141
91.5788
90.4424
89.7727
90.7117
89.4099
90.8296
91.1804
90.7889
91.1395
91.1368
89.8796
90.6321
91.4321
90.1479
91.203
89.9708
90.8072
91.9225
88.6549
90.8852
89.4992
90.6791
89.4806
91.8984
91.61
89.5331
90.4557
89.7602
90.4439
89.7656
91.581
90.9198
90.5974
90.9314
90.5751
90.925
90.557
90.9303
92.8522
92.3092
95.2003
95.3644
92.8644
92.3173
95.2754
92.2858
91.9782
94.0528
93.4817
92.2717
91.9785
94.0435
90.9307
90.6888
90.9449
91.1671
90.9397
91.1737
90.9058
90.9304
90.5697
90.6039
90.9312
90.5891
90.9296
90.9168
92.8356
95.4052
92.319
95.0608
92.3146
92.8477
95.1075
92.2765
93.4917
91.9798
94.1323
91.9785
92.2631
94.0933
95.1638
94.9991
94.3752
94.0726
95.1584
94.3748
94.995
97.7284
98.0836
97.51
98.6246
97.7266
98.0891
97.5199
95.9899
94.9586
96.3316
95.2505
95.9572
94.961
96.3457
96.4669
96.3991
96.4412
97.0941
97.1036
96.4672
96.4078
95.1814
94.0767
95.0293
94.3687
94.379
95.2189
95.0149
97.6962
98.5854
98.0805
97.6332
98.0827
97.5558
97.6894
96.0046
95.2523
94.9602
96.3196
94.9679
96.3291
96.0979
99.8986
97.1831
95.8367
95.5345
99.3166
96.8179
95.7656
98.7456
98.9295
99.146
99.7237
98.7193
99.0311
99.1168
98.2649
96.6144
98.6855
97.0532
98.2713
96.6475
98.7014
100.629
99.7348
98.527
101.772
98.495
99.2254
100.653
99.3127
95.5703
96.8588
95.6669
96.8487
95.6813
99.3451
98.7483
99.742
98.9171
99.1552
98.9295
99.1261
98.7441
98.2806
97.0714
96.7307
98.7149
96.6932
98.7087
98.2988
99.3015
98.7208
98.5457
97.4498
99.2881
98.7202
98.5471
99.347
100.44
99.9904
100.548
99.363
100.446
99.8735
99.985
99.1198
99.6174
99.1553
99.9844
99.137
99.6209
99.5297
99.5182
99.0404
100.402
99.0439
100.538
99.531
99.3077
97.4479
98.7426
98.5255
98.7235
98.5378
99.3029
99.3604
100.643
100.487
99.9992
100.539
99.847
99.5111
99.9588
99.1453
99.1002
99.6187
99.1445
99.6195
99.9023
99.2482
99.7524
99.2343
99.3888
99.7356
99.6712
99.2624
100.869
101.799
100.906
102.188
101.012
101.549
100.906
99.8459
99.537
99.9396
99.3159
99.8474
99.5485
99.9399
100.169
100.377
99.9204
101.21
100.039
101.071
99.6518
99.2554
99.3838
99.6731
99.2665
99.6812
99.2767
99.352
100.629
102.304
101.849
100.895
101.522
100.896
100.962
99.9171
99.3174
99.5459
99.9485
99.5549
99.9407
99.9781
98.2352
99.2587
97.8041
98.4923
98.2944
99.2456
97.797
96.0814
101.594
96.5211
88.6298
96.0348
102.225
96.4994
96.8517
96.4507
95.7501
95.8186
96.8519
96.4233
95.7454
97.8154
107.462
99.3067
101.529
99.2567
100.204
97.7604
98.2476
98.4914
99.2586
97.805
99.252
97.7993
98.3262
96.1429
113.138
101.261
96.8885
103.68
96.6207
96.1739
96.8741
95.822
96.44
95.785
96.4272
95.7706
96.8662
94.7309
95.2721
94.9274
95.5614
94.7448
95.2529
94.8722
95.3562
96.4245
93.6024
93.7234
95.3353
96.6321
93.6345
95.1891
94.8734
94.951
94.372
95.2821
94.8796
94.9371
94.1519
91.607
95.3492
94.475
95.3357
94.4402
94.1558
94.8152
95.5617
95.2633
94.8848
95.259
94.8732
94.8061
95.3812
94.2923
96.9696
93.7742
96.8545
93.6547
95.342
95.2171
94.3726
94.8847
94.9241
94.8855
94.9474
95.1549
94.5726
94.4988
94.4216
94.2749
94.5623
94.5061
94.4306
94.9902
95.7459
94.903
95.1623
94.9685
95.7706
94.9179
94.7672
94.6479
94.6272
94.4653
94.7786
94.6608
94.614
94.656
93.7674
94.0523
97.15
93.8448
97.2989
94.6646
94.6108
94.291
94.5772
94.4396
94.503
94.4401
94.6079
95.0025
95.2005
95.7979
94.9144
95.8506
94.9187
95.0014
94.7913
94.4595
94.6544
94.6301
94.6669
94.624
94.7913
94.3992
94.5689
94.0579
94.3909
94.3939
94.571
94.0622
94.6269
100.404
93.3547
94.1232
94.3935
95.2838
93.3932
94.2923
93.2981
93.0445
92.2381
94.2807
93.2837
93.0626
95.1584
95.2277
94.9427
95.2056
94.8348
95.2713
95.1683
94.4002
94.3763
94.566