/*--------------------------------*- C++ -*----------------------------------*\
| =========                 |                                                 |
| \\      /  F ield         | OpenFOAM: The Open Source CFD Toolbox           |
|  \\    /   O peration     | Version:  5.0                                   |
|   \\  /    A nd           | Web:      www.OpenFOAM.org                      |
|    \\/     M anipulation  |                                                 |
\*---------------------------------------------------------------------------*/
FoamFile
{
    version     2.0;
    format      ascii;
    class       surfaceScalarField;
    location    "1.1";
    object      phi;
}
// * * * * * * * * * * * * * * * * * * * * * * * * * * * * * * * * * * * * * //

dimensions      [0 3 -1 0 0 0 0];

internalField   nonuniform List<scalar> 
26902
(
-8.44262e-09
-5.90254e-11
1.43672e-08
2.59613e-09
2.88264e-09
4.40625e-09
-6.28239e-09
8.29457e-10
1.06576e-08
-1.73978e-09
-1.49232e-09
-1.8313e-09
-2.19333e-09
2.16704e-09
-9.28404e-10
8.57818e-10
2.35182e-09
5.47168e-10
1.66956e-09
3.35918e-09
-2.44634e-10
1.06743e-10
-6.83195e-10
6.58133e-11
-1.00356e-09
-1.38683e-10
2.25922e-10
-3.19449e-11
-1.05167e-10
-3.94412e-11
2.04732e-10
-1.08405e-11
-6.7425e-12
-3.4778e-11
-7.58789e-11
-6.38535e-11
1.35626e-09
-7.41847e-11
-3.45639e-11
-2.45088e-10
-2.47962e-10
-4.19619e-10
-4.20648e-10
1.35364e-09
-5.09916e-11
-1.22036e-12
1.35288e-09
-3.20144e-11
2.85971e-13
1.35185e-09
-1.99656e-11
-5.43237e-14
1.35187e-09
-1.22537e-11
-2.22579e-14
1.35223e-09
-7.50846e-12
1.16946e-13
1.35041e-09
-4.96066e-12
-3.22907e-13
1.34999e-09
-2.97979e-12
1.76278e-13
1.3496e-09
1.59396e-13
-9.36552e-13
1.34966e-09
-1.11708e-12
9.91503e-14
1.34855e-09
-5.02422e-13
-1.67359e-13
1.34851e-09
-3.78498e-13
-8.20357e-14
1.34844e-09
-2.17807e-13
8.42292e-13
1.34841e-09
-1.38239e-13
1.11599e-12
1.34815e-09
4.93083e-14
-1.3177e-13
1.34801e-09
1.20542e-13
-2.08368e-13
1.34766e-09
4.19956e-13
-2.46215e-13
1.3476e-09
1.62031e-13
5.85219e-14
1.3476e-09
-1.58147e-12
3.04974e-14
1.34744e-09
-2.99674e-13
3.062e-13
1.34718e-09
1.12888e-13
9.81712e-14
1.34688e-09
-1.78179e-13
-1.04422e-12
1.34693e-09
1.50463e-13
3.66221e-13
1.34606e-09
-9.17474e-13
3.71682e-12
1.34646e-09
-8.65921e-13
2.84001e-12
1.34598e-09
-3.39693e-13
2.16184e-13
1.34641e-09
-2.19738e-13
-2.45009e-13
1.34605e-09
1.03091e-13
5.91457e-14
1.34586e-09
1.64608e-13
-4.19016e-14
1.34509e-09
3.50488e-13
-9.09903e-13
1.345e-09
4.76394e-13
-6.91512e-13
1.34621e-09
-1.65126e-12
3.27575e-14
1.34554e-09
2.98426e-13
1.622e-13
1.34513e-09
-9.52023e-14
-1.80649e-13
1.34532e-09
-1.84086e-13
-1.93739e-13
1.34653e-09
2.42e-12
-3.31038e-13
1.34468e-09
3.65564e-12
-1.89323e-12
1.34473e-09
-5.90695e-13
2.25036e-13
1.34487e-09
2.75653e-13
-6.06434e-13
1.34537e-09
-7.14661e-13
6.688e-16
1.34511e-09
1.20205e-13
1.732e-13
1.34444e-09
-5.82641e-13
9.12181e-13
1.32323e-12
-1.20335e-12
2.41894e-09
3.16145e-09
2.6833e-09
-8.07272e-09
8.49699e-10
3.58415e-09
-2.61377e-09
-1.93512e-09
-8.35517e-11
2.0582e-10
4.16131e-10
-4.23383e-10
-7.72391e-10
-4.79478e-09
1.39202e-09
-1.81776e-09
5.99291e-09
-8.27479e-10
-7.06591e-10
1.1708e-08
-1.86626e-09
1.79348e-09
-1.92717e-09
-2.46424e-09
-1.16112e-09
4.641e-10
-7.23313e-10
-6.08584e-10
9.29519e-10
-8.68813e-10
-1.21246e-10
-2.02975e-09
-7.76891e-10
-8.1374e-10
-6.09026e-10
-2.85525e-09
-2.02161e-10
2.83876e-09
4.50783e-10
5.73076e-10
2.47266e-10
-4.88557e-10
-7.82568e-10
-4.09031e-11
3.10295e-12
1.79264e-10
6.57647e-11
-3.62943e-11
-8.12386e-11
-5.65532e-11
-5.75386e-12
-1.04639e-11
-1.07909e-11
-6.13523e-12
1.3832e-09
-8.99182e-11
-3.05634e-11
-2.38927e-10
-2.62128e-10
-3.92811e-10
-4.43128e-10
1.37809e-09
-4.55786e-11
-4.67397e-13
1.37042e-09
-2.48748e-11
3.76149e-13
1.36385e-09
-1.35631e-11
1.87567e-14
1.3592e-09
-7.82967e-12
7.77735e-14
1.35587e-09
-4.48114e-12
1.48266e-13
1.3534e-09
-2.67235e-12
3.43032e-14
1.35179e-09
-1.5423e-12
3.44807e-14
1.35098e-09
-4.64981e-13
1.2814e-12
1.35055e-09
-4.60976e-13
-3.66031e-13
1.34882e-09
1.64986e-12
-5.73399e-13
1.34897e-09
-5.38101e-13
-1.48702e-13
1.34858e-09
-8.72016e-14
1.16674e-13
1.34833e-09
4.28251e-13
-4.60462e-13
1.34764e-09
3.27557e-13
2.74281e-13
1.34723e-09
-2.51365e-12
2.89414e-12
1.34893e-09
-2.76463e-12
1.34666e-12
1.34848e-09
4.6817e-13
-6.0602e-16
1.3474e-09
-1.68204e-13
-4.72536e-13
1.34715e-09
1.31309e-13
-3.25604e-13
1.34705e-09
1.41701e-13
-6.35424e-14
1.3461e-09
-8.52437e-13
1.49383e-12
1.34611e-09
-1.99331e-13
2.12342e-13
1.34628e-09
2.79177e-13
-1.48658e-12
1.34623e-09
4.78074e-13
-1.42167e-12
1.34698e-09
-3.02121e-12
1.8195e-12
1.34712e-09
-2.53221e-12
2.06439e-12
1.34622e-09
7.55343e-13
1.32411e-13
1.34566e-09
1.48116e-12
-8.56545e-13
1.34611e-09
-2.79795e-13
8.7805e-14
1.34596e-09
8.31432e-14
4.44474e-13
1.34487e-09
-9.50626e-13
3.04493e-13
1.34483e-09
2.75363e-13
-2.06164e-14
1.34474e-09
-3.02804e-14
-4.484e-14
1.34422e-09
2.62993e-13
1.58361e-15
1.34488e-09
9.36983e-13
7.61569e-13
1.34626e-09
2.93537e-13
1.92463e-12
1.34567e-09
3.5776e-13
-4.03746e-13
1.34549e-09
-1.16364e-13
5.35349e-13
1.34467e-09
9.7141e-16
7.04617e-14
1.34464e-09
1.72488e-13
-4.67005e-14
1.34503e-09
1.07483e-13
-1.09857e-12
-1.51631e-13
1.24333e-12
9.87391e-10
-1.29437e-08
2.22058e-09
-2.12857e-10
3.38715e-09
2.69423e-09
4.05814e-09
2.37773e-09
2.26749e-09
-3.95441e-10
-8.33198e-09
4.0822e-09
3.14408e-09
-1.53773e-09
4.69712e-09
4.03383e-09
6.14345e-08
-1.00167e-07
-2.57857e-08
5.41916e-08
-4.18983e-09
2.32566e-09
-3.40325e-09
4.5608e-09
4.37762e-09
1.02378e-08
-1.55899e-09
-1.21614e-08
-8.95114e-10
-9.54513e-11
-9.7905e-11
-8.59921e-11
-1.16616e-10
3.95957e-10
-5.53039e-11
2.52896e-12
-6.9239e-12
2.98903e-11
2.98086e-11
1.47414e-09
-3.59296e-11
-3.51517e-11
-2.73674e-10
-2.86819e-10
-4.53439e-10
-4.79106e-10
1.41876e-09
1.08727e-11
-1.20612e-12
1.39177e-09
1.89795e-12
6.59589e-14
1.37451e-09
3.59654e-12
-3.71778e-14
1.36535e-09
7.11461e-13
4.85867e-13
1.35924e-09
1.57165e-12
-6.81281e-14
1.35535e-09
1.06773e-12
1.2634e-14
1.35288e-09
7.33287e-13
5.39141e-14
1.35192e-09
3.37537e-13
6.3794e-15
1.35027e-09
6.34744e-13
4.0256e-13
1.35041e-09
7.64507e-13
5.87118e-13
1.34865e-09
8.11147e-13
2.49444e-13
1.3486e-09
-1.9575e-13
1.20664e-14
1.34861e-09
-3.30809e-13
6.00576e-13
1.34891e-09
-1.58235e-13
4.31864e-14
1.3485e-09
-6.1381e-13
-1.63392e-12
1.34685e-09
-3.82359e-13
-8.69078e-13
1.34699e-09
-5.30595e-13
7.11228e-13
1.34704e-09
-2.90035e-13
-5.88503e-14
1.34689e-09
4.62729e-14
9.10292e-14
1.34646e-09
-1.05882e-13
5.3976e-13
1.34687e-09
6.82216e-13
-2.06989e-12
1.34722e-09
1.04123e-12
-1.7192e-12
1.3468e-09
4.86318e-13
8.15157e-14
1.34752e-09
6.94426e-13
-1.05525e-12
1.34606e-09
3.46485e-14
-1.71458e-12
1.3454e-09
3.95502e-13
-2.37448e-12
1.34596e-09
1.93126e-13
-1.09758e-13
1.34641e-09
2.44401e-14
9.03699e-13
1.346e-09
7.44471e-14
-3.85557e-14
1.34563e-09
-3.82463e-14
4.00606e-13
1.34529e-09
-3.14769e-13
-3.80665e-13
1.34501e-09
-3.55147e-13
8.24552e-13
1.34478e-09
4.56863e-14
7.62647e-14
1.34453e-09
3.98708e-14
4.1021e-13
1.34461e-09
5.87554e-13
2.09174e-13
1.34621e-09
-1.40953e-12
4.04321e-14
1.34571e-09
3.28024e-13
4.83985e-13
1.34529e-09
1.34413e-13
1.35243e-13
1.34506e-09
2.37478e-13
-4.40121e-14
1.34471e-09
5.8951e-13
-8.73686e-14
1.34452e-09
2.32416e-13
4.8763e-14
-9.50205e-13
3.40204e-13
-2.66432e-09
-3.61583e-09
-2.61813e-10
6.73294e-09
4.95356e-09
2.5029e-09
-1.16388e-08
3.6659e-09
2.9663e-10
-3.30077e-11
1.40787e-10
1.12056e-10
-6.94973e-09
8.70373e-09
2.93833e-09
-4.40475e-09
6.39638e-10
1.83329e-10
-9.24628e-10
-1.85966e-10
7.42205e-09
-1.37232e-09
3.79222e-09
-7.75678e-09
-2.08516e-09
-8.69726e-10
-6.28597e-10
-3.27832e-10
3.61039e-09
-1.78423e-09
1.24199e-10
-2.07184e-10
1.39809e-10
1.03913e-10
-1.6074e-10
-1.82911e-10
1.81363e-11
-1.16257e-11
1.0756e-10
6.88401e-11
1.51605e-09
2.57351e-11
-4.0258e-11
-2.88423e-10
-3.03931e-10
-4.89688e-10
-5.36285e-10
1.13741e-11
4.79423e-11
2.15264e-11
1.43074e-09
9.78254e-11
-1.72804e-12
1.39485e-09
3.84764e-11
-8.20303e-13
1.37532e-09
2.32828e-11
-2.87047e-13
1.36358e-09
1.29131e-11
-5.79617e-13
1.35799e-09
7.09608e-12
-5.1182e-14
1.35462e-09
4.27588e-12
3.06283e-14
1.35238e-09
2.80611e-12
3.3635e-14
1.35065e-09
1.79363e-12
1.18565e-13
1.35007e-09
8.9135e-13
1.62532e-13
1.34964e-09
9.44888e-13
7.68216e-14
1.3495e-09
6.33931e-13
1.5514e-13
1.34902e-09
8.8667e-14
4.33667e-14
1.34863e-09
1.15996e-14
-1.03203e-13
1.34822e-09
1.04244e-13
7.7294e-15
1.34815e-09
-2.02516e-13
-4.81541e-13
1.34777e-09
-6.1146e-14
-8.381e-14
1.34768e-09
5.32097e-14
-6.24896e-13
1.34718e-09
5.2937e-13
-4.64171e-13
1.34714e-09
-1.23461e-14
-3.51901e-14
1.34729e-09
7.26917e-13
-1.12026e-12
1.34763e-09
1.14236e-12
-9.28666e-13
1.34642e-09
5.18061e-13
1.60336e-12
1.34638e-09
4.99701e-13
-9.77566e-14
1.34611e-09
4.25592e-13
4.19275e-13
1.34608e-09
-1.40347e-13
8.91332e-14
1.34608e-09
1.7224e-13
1.0805e-13
1.34613e-09
5.7904e-13
-5.40135e-13
1.34597e-09
4.06177e-14
3.51815e-14
1.34591e-09
-1.242e-13
1.59097e-13
1.34573e-09
8.00485e-14
-2.84936e-14
1.3452e-09
-2.50169e-13
3.81721e-13
1.34538e-09
-2.66619e-13
-3.56212e-13
1.34538e-09
5.11078e-14
-7.88195e-14
1.34529e-09
1.53977e-13
-9.4023e-14
1.34538e-09
6.38907e-13
-2.00961e-13
1.34476e-09
-1.37338e-12
5.32933e-13
1.34526e-09
1.03233e-13
-3.23126e-13
1.34538e-09
9.13041e-14
-1.1667e-13
1.34537e-09
1.66068e-12
-1.44736e-12
1.34412e-09
1.8511e-12
-3.78916e-14
1.34441e-09
-3.10846e-14
-3.66011e-14
-1.73581e-12
7.66135e-13
5.66803e-09
-4.77495e-09
-6.51444e-10
-5.06682e-11
-3.31463e-09
7.10146e-09
-3.05469e-08
-7.94624e-09
2.56676e-08
1.1662e-08
-3.56332e-11
-1.79705e-10
1.36234e-10
-8.74476e-10
-2.66634e-10
-1.38928e-09
-7.93909e-10
7.85341e-10
-2.70536e-09
-7.09055e-10
-1.72874e-09
6.12859e-09
-9.85439e-10
-1.65444e-09
-2.40976e-09
3.61934e-10
-2.32e-09
6.02227e-09
-7.8155e-10
-1.97135e-09
2.14705e-09
-1.0999e-09
1.70574e-09
5.92492e-10
-1.17846e-11
7.32589e-10
-8.23079e-11
-1.23098e-09
-9.04084e-11
-4.11645e-11
4.22095e-11
-5.12361e-11
1.40599e-10
-3.71164e-11
2.05475e-10
3.04818e-11
-2.6024e-12
-3.67537e-11
-6.74335e-11
-6.63237e-11
1.35634e-09
6.78472e-11
-1.97254e-11
-2.51232e-10
-2.4676e-10
-4.09122e-10
-3.99559e-10
1.35686e-09
4.02719e-11
-2.37974e-12
1.35593e-09
2.3488e-11
6.07317e-13
1.35363e-09
1.49379e-11
1.52198e-13
1.35327e-09
6.5268e-12
8.15493e-13
1.35241e-09
4.96233e-12
5.03614e-14
1.35069e-09
5.05006e-12
-6.59844e-13
1.34957e-09
3.55075e-12
-7.97498e-13
1.3493e-09
1.0447e-12
-4.81239e-14
1.34917e-09
5.35273e-13
3.75228e-13
1.34903e-09
4.58333e-13
1.57197e-13
1.3486e-09
3.89059e-13
-3.34389e-14
1.34826e-09
1.41103e-13
6.07912e-14
1.3482e-09
1.92621e-13
-1.75468e-13
1.34818e-09
1.55027e-13
-4.76901e-13
1.348e-09
-1.72902e-13
1.60695e-13
1.34787e-09
1.34005e-13
-8.85019e-14
1.34767e-09
-1.55048e-13
7.44985e-13
1.34755e-09
-5.86005e-14
2.33717e-14
1.34746e-09
-1.75078e-14
7.00327e-13
1.34654e-09
3.38996e-13
1.59462e-12
1.34637e-09
3.58198e-13
1.95701e-13
1.34686e-09
-4.37874e-14
-7.00918e-14
1.346e-09
1.58721e-12
-4.19915e-13
1.34609e-09
2.01438e-13
-5.48596e-13
1.3461e-09
-3.42818e-14
8.5854e-14
1.34576e-09
-5.1637e-14
8.67197e-13
1.34562e-09
7.46962e-14
4.48259e-15
1.34554e-09
-2.72916e-14
-1.16986e-13
1.34541e-09
5.17862e-14
6.64788e-14
1.34545e-09
-9.14759e-14
-2.87356e-13
1.34558e-09
-9.09766e-14
-3.87145e-13
1.34531e-09
2.93918e-13
-5.16713e-14
1.34547e-09
5.60912e-13
-6.32061e-13
1.34567e-09
2.53606e-13
1.20783e-13
1.34499e-09
-5.72771e-13
-1.71922e-13
1.34507e-09
-1.94823e-13
1.70178e-13
1.34549e-09
-3.63781e-13
-4.66039e-15
1.34574e-09
-1.29722e-12
2.67821e-12
1.34406e-09
3.9698e-12
-4.64538e-13
1.34429e-09
-7.74459e-13
4.92865e-13
-1.50969e-13
-8.35822e-13
9.64728e-10
-3.72082e-09
-1.34723e-09
4.29429e-09
9.82104e-10
1.89304e-09
-1.35531e-10
-1.1601e-09
-1.57952e-09
3.87964e-09
-3.18292e-09
-3.86612e-10
-7.61312e-10
3.71349e-10
-2.03595e-09
-2.80165e-09
-1.82886e-09
1.93317e-10
3.19546e-09
3.35754e-09
6.86906e-09
2.36939e-09
-2.94168e-09
6.35491e-10
-6.93229e-09
2.94705e-10
4.99185e-09
1.10791e-09
-8.17644e-11
4.52797e-08
6.82394e-08
-1.0216e-07
-2.86124e-08
1.38014e-09
1.937e-09
2.14238e-09
1.8932e-09
1.9377e-09
1.65021e-09
-2.47155e-10
-8.40355e-10
-1.14364e-09
-7.81588e-11
2.30932e-09
-1.39526e-10
-3.87121e-11
1.1333e-11
5.93867e-11
1.07518e-10
-3.12878e-11
1.80849e-10
1.06723e-11
9.79646e-13
-2.44064e-11
-2.97032e-11
-5.51824e-11
-5.19199e-11
1.30649e-09
-3.7021e-12
-1.54665e-11
-2.36069e-10
-2.29953e-10
-3.8064e-10
-3.72809e-10
1.32945e-09
1.96253e-11
-2.36583e-12
1.3398e-09
1.22622e-11
7.51732e-13
1.3454e-09
9.32912e-12
-1.08128e-13
1.34659e-09
5.90875e-12
-6.82135e-13
1.34738e-09
3.96133e-12
7.8438e-14
1.34871e-09
2.80326e-12
7.81586e-13
1.34935e-09
1.84096e-12
9.11701e-13
1.34912e-09
1.03395e-12
7.90667e-14
1.34886e-09
7.93812e-13
-1.58926e-13
1.34882e-09
3.38008e-13
-9.77977e-16
1.3485e-09
3.98363e-13
1.50951e-13
1.34845e-09
-4.25715e-13
4.59241e-13
1.34815e-09
9.20657e-14
2.56867e-13
1.34808e-09
2.59067e-13
-1.68902e-13
1.34763e-09
8.20214e-14
5.66846e-14
1.34734e-09
1.48903e-13
1.33663e-13
1.34807e-09
9.34193e-13
-1.95473e-12
1.3479e-09
-2.90836e-14
-5.87799e-16
1.34752e-09
2.14804e-13
1.34144e-14
1.3471e-09
8.81344e-13
-2.49154e-13
1.34573e-09
3.91939e-12
-2.32208e-12
1.34585e-09
-3.95941e-13
1.06213e-13
1.34671e-09
-9.53264e-13
1.56278e-12
1.34628e-09
1.84889e-13
3.23966e-13
1.34608e-09
2.93686e-13
-2.33172e-13
1.34585e-09
8.86075e-13
-8.19831e-13
1.34577e-09
2.79508e-14
2.77276e-14
1.34563e-09
-9.57841e-15
2.73025e-14
1.34548e-09
1.23214e-13
-2.09675e-14
1.34534e-09
-5.26632e-13
4.88313e-13
1.34582e-09
-8.84576e-13
2.36568e-13
1.34554e-09
3.05678e-13
1.89191e-13
1.34528e-09
5.54445e-13
2.05326e-13
1.34514e-09
4.2283e-13
-9.27193e-14
1.3445e-09
2.21949e-13
-2.07972e-13
1.34446e-09
-1.52326e-13
-5.14529e-14
1.34424e-09
-1.44447e-13
-4.11645e-14
1.34404e-09
1.40422e-12
-2.53628e-12
1.34631e-09
1.16936e-12
5.06848e-13
1.34569e-09
-7.34182e-13
5.69247e-13
-8.76929e-13
1.98442e-12
-7.1378e-09
5.09258e-09
7.3022e-09
-5.06601e-09
2.43249e-10
1.0185e-09
-5.00658e-09
-2.45526e-09
6.20008e-09
-1.05502e-09
1.50781e-09
-4.59352e-10
-4.02244e-11
4.67853e-11
-1.76037e-09
-2.42869e-09
6.01114e-10
1.69428e-10
3.41851e-09
-2.50863e-09
-1.05209e-09
4.70061e-09
-3.18808e-09
2.04818e-09
-7.49068e-10
-1.38901e-09
1.35563e-10
1.74936e-10
1.82758e-09
-1.03238e-11
1.45783e-11
-1.4584e-11
-9.51596e-11
1.05489e-10
1.33465e-09
4.42682e-11
-3.49642e-11
-2.36712e-10
-2.32881e-10
-4.36881e-10
-4.08903e-10
-6.12792e-13
-1.07332e-11
7.71569e-13
-1.79898e-11
1.32256e-09
8.28989e-12
4.23941e-14
1.33088e-09
1.17681e-11
-5.94613e-13
1.33641e-09
6.57508e-12
2.72918e-14
1.34101e-09
4.59854e-12
5.34942e-15
1.34393e-09
2.82656e-12
4.06823e-14
1.34589e-09
1.82908e-12
5.51032e-14
1.34714e-09
1.27351e-12
1.39879e-13
1.34791e-09
8.4356e-13
7.03323e-14
1.34815e-09
5.69654e-13
6.24025e-14
1.34845e-09
2.79398e-13
4.86932e-14
1.34874e-09
-1.56264e-13
4.24538e-14
1.34858e-09
3.77256e-13
3.26481e-14
1.34827e-09
1.06517e-13
-3.81027e-13
1.34815e-09
2.7017e-14
4.30283e-14
1.34812e-09
4.52655e-13
-2.97054e-13
1.34798e-09
5.22684e-14
3.28384e-14
1.34771e-09
3.69621e-13
-8.85221e-14
1.34704e-09
-3.98412e-13
1.85584e-12
1.34724e-09
-5.07488e-13
1.48172e-13
1.34782e-09
-6.35235e-13
1.31952e-13
1.34554e-09
6.87824e-12
-3.85431e-12
1.34679e-09
7.81158e-13
1.7673e-12
1.34676e-09
-5.53144e-13
5.57463e-14
1.34626e-09
-2.40154e-13
-3.30937e-13
1.34621e-09
1.09277e-14
1.06463e-13
1.34609e-09
1.03963e-13
1.99878e-13
1.34618e-09
-4.72247e-14
7.30889e-13
1.34604e-09
7.27876e-14
-2.58886e-15
1.34614e-09
-2.31097e-13
2.42435e-14
1.34541e-09
2.01913e-12
-1.25732e-12
1.34538e-09
-1.8959e-13
-3.98179e-13
1.34563e-09
-1.52208e-12
3.08467e-13
1.3461e-09
-1.76478e-13
-6.5227e-14
1.34488e-09
1.72195e-12
-1.19145e-14
1.34465e-09
5.70992e-13
2.26172e-14
1.3444e-09
2.87677e-13
1.2035e-13
1.34444e-09
-2.6748e-13
3.45733e-14
1.34424e-09
-1.42114e-14
2.76071e-14
1.34465e-09
-8.3325e-13
1.80004e-12
1.34505e-09
7.02978e-13
4.12704e-14
1.34541e-09
4.29897e-14
-1.15693e-12
-1.73114e-13
-1.49576e-12
-5.22833e-09
2.25698e-09
5.20602e-09
-2.51229e-09
4.72775e-10
3.93991e-10
-3.98196e-10
1.06164e-09
3.13253e-10
1.76659e-09
-7.1093e-10
-2.43056e-09
8.9812e-10
1.15475e-09
6.9442e-09
-1.55072e-09
-1.20529e-09
-1.39439e-09
-1.16085e-09
-1.34533e-09
-2.7516e-10
-7.59529e-10
-1.30581e-09
-2.35137e-09
-1.24654e-09
2.85493e-09
-2.33534e-09
3.07831e-09
-6.33955e-09
1.59384e-09
-2.81195e-09
1.25045e-08
-4.94685e-09
6.74522e-11
1.83669e-11
-1.34388e-10
1.14116e-10
-6.55673e-11
-1.25146e-10
-4.13136e-12
1.3567e-11
6.86502e-11
4.70603e-11
1.30499e-09
2.64415e-11
-2.91165e-11
-2.37841e-10
-2.25039e-10
-4.09065e-10
-3.86129e-10
1.31126e-09
2.36574e-12
-4.91685e-13
1.32371e-09
-9.32867e-13
8.70953e-14
1.33228e-09
-2.21892e-12
8.80431e-14
1.33834e-09
-1.67672e-12
7.93246e-14
1.3422e-09
-1.22694e-12
6.48903e-14
1.34476e-09
-9.16199e-13
5.22037e-14
1.34676e-09
-8.24584e-13
-4.39231e-14
1.34768e-09
-2.94432e-13
6.19037e-14
1.3481e-09
-4.48335e-13
4.44005e-13
1.34853e-09
-8.85778e-13
5.79275e-13
1.34781e-09
3.00422e-13
1.09152e-13
1.34856e-09
-5.626e-13
3.94977e-14
1.3485e-09
-3.66679e-14
5.8094e-14
1.34848e-09
1.33732e-14
-1.15017e-13
1.34787e-09
1.15227e-12
-2.23626e-13
1.34824e-09
-5.44401e-13
8.63823e-14
1.34683e-09
-1.74115e-12
3.37995e-12
1.34697e-09
-5.75528e-13
-1.02389e-13
1.34653e-09
-1.24141e-14
-1.95461e-13
1.34537e-09
7.6888e-13
-3.7965e-13
1.34747e-09
2.87984e-13
4.35892e-12
1.34713e-09
8.90627e-13
1.0156e-13
1.34762e-09
-3.28329e-12
2.11277e-12
1.34693e-09
2.46787e-13
8.68686e-14
1.34622e-09
7.94111e-13
-1.95568e-13
1.34602e-09
1.5029e-13
4.27409e-14
1.34598e-09
-4.94133e-14
-5.89543e-14
1.34571e-09
-2.15311e-13
4.47116e-13
1.34546e-09
-1.42002e-13
6.89365e-14
1.34606e-09
4.29165e-14
1.28064e-12
1.34593e-09
-1.17365e-13
-2.9695e-14
1.34518e-09
-3.23199e-13
-5.29318e-13
1.34456e-09
9.10094e-14
2.77883e-13
1.3454e-09
7.3738e-13
7.08766e-14
1.34495e-09
8.76616e-13
8.39333e-14
1.34512e-09
2.2476e-13
-1.53202e-13
1.34473e-09
6.35899e-14
7.27339e-15
1.34417e-09
4.82658e-13
2.42933e-14
1.34477e-09
-1.33567e-12
-1.3402e-13
1.34463e-09
5.54693e-13
2.67277e-13
1.34584e-09
-2.72801e-12
1.54551e-12
-2.75127e-13
-4.58044e-13
1.44033e-09
-8.42521e-10
1.97587e-09
-1.2551e-10
-1.04459e-09
-1.03431e-09
-1.78268e-10
5.7335e-11
-1.29842e-09
-1.41335e-11
-2.03694e-11
1.27559e-09
-1.76666e-09
-3.52071e-10
-6.14123e-10
1.60821e-09
-1.42362e-10
-4.65587e-11
-3.95161e-10
3.80783e-10
7.89942e-10
3.5545e-11
5.02495e-10
3.24035e-09
1.73236e-09
1.09832e-10
1.1274e-09
-6.20992e-09
4.08648e-09
-1.75703e-09
-4.66563e-10
-1.74934e-09
-1.50848e-09
-4.0204e-09
-1.29876e-09
-1.39442e-09
1.53696e-10
-4.37766e-10
5.70051e-08
3.0735e-08
-9.30328e-08
1.36929e-08
6.4799e-10
-1.03939e-09
7.42859e-10
6.8249e-10
-1.034e-09
-2.04068e-11
8.1111e-13
-1.0135e-12
-1.48683e-12
2.20961e-11
1.27161e-09
-4.40065e-11
-2.66236e-11
-2.16044e-10
-2.10928e-10
-3.77847e-10
-3.6977e-10
1.30405e-09
-3.03031e-11
7.07899e-14
1.32214e-09
-1.94653e-11
2.71176e-13
1.3328e-09
-1.31166e-11
7.90708e-14
1.3392e-09
-8.42558e-12
1.96243e-13
1.34287e-09
-4.8101e-12
-2.35004e-13
1.34561e-09
-3.87532e-12
6.85279e-14
1.34682e-09
-2.38315e-12
2.11029e-13
1.34736e-09
-7.02198e-13
-2.84181e-13
1.34825e-09
-1.1288e-12
-3.56235e-13
1.34824e-09
-3.32943e-13
-6.93688e-13
1.34872e-09
-3.05422e-13
-2.63674e-14
1.34818e-09
-1.60729e-13
-6.96211e-15
1.34821e-09
-2.68251e-13
6.05981e-14
1.34768e-09
5.99401e-13
-1.98073e-13
1.34782e-09
-5.89612e-14
9.26933e-13
1.34695e-09
1.915e-13
-3.48814e-15
1.34827e-09
3.79147e-13
-3.58731e-12
1.3478e-09
-3.69799e-13
1.21285e-13
1.34715e-09
-3.75733e-13
8.79682e-13
1.34745e-09
-6.05173e-14
3.94213e-13
1.34732e-09
2.94036e-13
-1.52435e-14
1.34722e-09
1.52504e-13
7.1217e-13
1.34616e-09
-2.83365e-13
-2.06615e-12
1.34623e-09
2.14461e-13
-1.56978e-13
1.34655e-09
8.56174e-13
-5.00327e-13
1.34581e-09
4.41805e-14
7.38071e-13
1.34579e-09
2.5375e-13
-3.89858e-13
1.34549e-09
3.51652e-13
-3.72231e-13
1.34578e-09
4.4687e-13
-9.79744e-13
1.346e-09
-3.57564e-13
9.49732e-14
1.34547e-09
1.03439e-12
-7.15886e-13
1.3454e-09
-2.88668e-13
-3.84584e-14
1.34565e-09
-2.71308e-13
3.21521e-14
1.34506e-09
2.30682e-12
-1.04591e-12
1.345e-09
9.54303e-13
-7.90691e-14
1.3446e-09
5.28299e-13
4.6409e-14
1.34527e-09
-1.25213e-12
5.98185e-13
1.34543e-09
-3.64206e-14
3.17389e-13
1.34437e-09
-2.89099e-13
-1.87823e-14
1.34452e-09
5.01493e-13
-1.22511e-13
1.34463e-09
1.04956e-12
-3.90202e-12
-1.40353e-12
-1.08875e-13
-5.69025e-09
-1.26822e-09
5.80042e-09
1.34901e-09
-3.55283e-10
-3.03508e-09
6.2391e-10
4.99977e-10
3.23314e-10
-1.19091e-09
-7.26363e-09
-4.27271e-09
1.0892e-08
-1.96868e-09
2.27072e-10
2.23035e-09
2.1595e-09
1.13037e-09
3.61016e-09
4.14228e-09
-3.0735e-09
-3.63243e-09
-1.04651e-09
-1.9753e-09
-1.32162e-10
-3.12846e-09
2.84167e-09
2.39425e-09
-1.6412e-09
-3.45892e-10
-1.98859e-09
-1.56944e-10
4.13262e-09
7.6485e-10
-2.60244e-11
-2.10868e-11
-2.15798e-11
-6.96159e-10
-2.45887e-11
2.24566e-11
1.59944e-10
-3.94216e-11
-6.77527e-12
-2.03989e-11
-5.04624e-11
-4.07555e-11
1.29682e-09
-2.89981e-11
-2.15051e-10
-2.31767e-10
-3.75669e-10
-4.03772e-10
1.32071e-09
1.63902e-13
1.33321e-09
1.20879e-13
1.34059e-09
1.54323e-13
1.344e-09
4.59078e-14
1.34557e-09
2.87742e-13
1.34806e-09
3.91998e-13
1.3487e-09
-1.51208e-13
1.34875e-09
5.57208e-14
1.34825e-09
-2.66136e-14
1.34889e-09
4.60856e-13
1.34876e-09
-1.81462e-14
1.34841e-09
-7.19472e-13
1.34791e-09
-1.04622e-12
1.34809e-09
4.21925e-13
1.34788e-09
3.64127e-14
1.3479e-09
-3.83433e-15
1.34731e-09
4.66672e-13
1.34745e-09
6.97353e-13
1.34739e-09
-4.8946e-13
1.3471e-09
-4.38219e-14
1.34746e-09
1.13844e-12
1.34729e-09
-5.54213e-13
1.34683e-09
-2.06095e-12
1.34571e-09
-1.31774e-12
1.34604e-09
8.46737e-13
1.34606e-09
-2.03918e-13
1.34581e-09
4.50212e-13
1.34591e-09
7.5687e-14
1.34557e-09
1.87841e-12
1.34531e-09
-1.09787e-14
1.34578e-09
7.58632e-13
1.34538e-09
1.26808e-13
1.34559e-09
2.74435e-14
1.34666e-09
1.2553e-12
1.34445e-09
-2.73691e-13
1.34507e-09
-1.32206e-13
1.3446e-09
-5.82337e-13
1.34495e-09
-2.91466e-13
1.34507e-09
-2.65471e-13
1.34568e-09
-2.0416e-13
1.34446e-09
2.57504e-12
1.65653e-13
-1.81974e-08
-7.35408e-10
1.39517e-08
1.42829e-09
2.10708e-09
1.474e-10
4.13063e-10
-8.67271e-10
3.59226e-09
-9.8934e-09
4.06833e-09
7.3583e-10
9.80797e-10
-1.47151e-10
2.97555e-10
1.84583e-09
1.63311e-09
1.88949e-08
7.53028e-10
-1.99219e-08
5.80109e-09
4.45381e-09
-3.37306e-09
-2.51855e-09
-6.18417e-10
-4.50012e-09
-2.32953e-09
6.54434e-09
1.41873e-10
1.22215e-09
2.08865e-10
1.53552e-09
-3.47192e-09
-5.34641e-11
-2.26159e-10
1.55803e-10
-3.35513e-10
-5.05045e-11
-1.77474e-10
5.59394e-12
6.12341e-10
-2.23255e-12
3.03765e-12
-1.50677e-10
-1.8492e-10
-1.56416e-10
2.26073e-09
-9.42805e-11
3.49995e-11
-5.84777e-10
-5.84833e-10
-5.84776e-10
-5.84837e-10
2.25514e-09
-6.58279e-11
1.19056e-12
2.25499e-09
-4.13602e-11
3.95552e-14
2.25331e-09
-2.57851e-11
-8.09037e-16
2.25346e-09
-1.57819e-11
-4.44357e-13
2.254e-09
-9.63633e-12
-4.32317e-13
2.25133e-09
-6.37657e-12
6.00132e-13
2.25061e-09
-3.83155e-12
2.26693e-13
2.2499e-09
-3.50804e-12
1.13387e-12
2.24998e-09
-1.36826e-12
3.3869e-16
2.24847e-09
-7.66594e-13
1.37948e-14
2.24814e-09
-7.13121e-13
1.489e-13
2.24818e-09
-2.44088e-13
1.28926e-13
2.24809e-09
-6.35474e-14
4.40388e-13
2.24775e-09
-7.95328e-13
4.26992e-13
2.24758e-09
3.40669e-13
-7.86168e-13
2.24708e-09
-9.24577e-14
-1.03517e-13
2.24696e-09
3.8643e-13
1.86857e-14
2.24695e-09
-2.31511e-12
3.78481e-13
2.24688e-09
7.49801e-13
-3.08725e-13
2.24662e-09
1.23653e-13
5.96858e-14
2.24566e-09
-4.05681e-13
3.79304e-13
2.24583e-09
-6.31708e-13
9.8676e-13
2.24458e-09
4.79578e-12
-1.12123e-12
2.24497e-09
3.83068e-12
-3.02541e-12
2.24475e-09
-4.12369e-13
-2.54401e-13
2.24535e-09
2.16273e-13
-2.66347e-13
2.24482e-09
2.0763e-13
-8.63874e-15
2.24435e-09
2.81684e-13
7.50104e-14
2.24309e-09
6.1773e-13
-3.87759e-13
2.24297e-09
-1.8936e-12
8.38498e-13
2.24479e-09
-1.0302e-12
-1.3258e-12
2.24409e-09
6.13147e-13
-8.90326e-14
2.24335e-09
1.87146e-14
-3.68125e-13
2.24369e-09
-2.7941e-13
-5.4205e-14
2.24551e-09
1.62748e-12
-2.25283e-13
2.24273e-09
3.87819e-12
-3.24015e-12
2.24292e-09
-1.5002e-13
-2.66274e-13
2.24288e-09
-1.41265e-12
6.09156e-13
2.24367e-09
-6.55033e-13
-4.63299e-13
2.24331e-09
1.78872e-13
2.30624e-13
2.24214e-09
8.27121e-13
1.02039e-12
-5.89715e-13
-4.52061e-13
6.66801e-09
5.16515e-09
-3.36735e-08
4.50671e-09
1.79413e-08
-4.34817e-09
-5.74421e-09
-1.64252e-09
-1.30011e-08
1.2733e-08
3.67487e-09
2.84413e-09
3.05507e-09
2.4289e-09
-6.51105e-10
3.64681e-09
-5.15768e-09
1.96993e-09
2.0469e-09
-4.62445e-10
-4.96472e-10
-3.69764e-10
-5.262e-10
7.54957e-10
1.22646e-09
-3.24542e-09
-1.44126e-09
-3.88837e-10
5.54109e-10
-1.20107e-09
1.23761e-09
-7.84122e-10
1.70147e-09
8.95657e-10
4.01983e-09
8.6744e-09
-1.03733e-09
2.41414e-09
-7.18217e-11
-5.88854e-10
-3.27586e-10
-3.51422e-12
-6.86427e-10
-4.8837e-09
8.624e-10
1.14332e-09
-3.55298e-09
7.1858e-09
4.69838e-09
1.20929e-10
-1.83151e-10
2.67435e-10
-8.42584e-11
-4.81934e-09
-1.52882e-10
-1.15348e-10
-2.06407e-13
5.23264e-10
2.19247e-11
-4.10547e-11
-1.38238e-10
-1.57559e-11
-2.00148e-11
-2.06928e-11
-2.08303e-11
-2.01677e-11
2.28782e-09
-1.29436e-10
3.08162e-11
-5.45826e-10
-6.11384e-10
-5.45776e-10
-6.11356e-10
2.28375e-09
-6.29886e-11
4.006e-13
2.27682e-09
-3.40336e-11
-3.47972e-13
2.26876e-09
-1.80478e-11
8.82682e-15
2.26287e-09
-1.00801e-11
-5.55701e-14
2.25844e-09
-5.27732e-12
-1.07629e-13
2.2551e-09
-3.33932e-12
1.35704e-14
2.25291e-09
-1.93612e-12
1.71132e-15
2.25177e-09
-5.58304e-13
-8.64183e-13
2.25119e-09
-1.64026e-12
1.49457e-13
2.24874e-09
-1.12886e-12
1.89087e-12
2.24893e-09
-1.42088e-12
3.10487e-14
2.2484e-09
2.45361e-14
5.21316e-14
2.24811e-09
-5.38553e-13
-1.5377e-14
2.24692e-09
6.25269e-13
-2.74261e-13
2.24644e-09
1.56771e-12
1.83549e-12
2.24903e-09
-5.38918e-12
3.7356e-12
2.24825e-09
7.09526e-13
1.33549e-13
2.24656e-09
6.31104e-14
-1.47328e-12
2.2462e-09
2.04213e-13
2.77818e-13
2.24603e-09
-1.68072e-13
9.0459e-14
2.24453e-09
4.52601e-12
-2.22863e-12
2.24451e-09
-2.18603e-13
-4.55202e-13
2.24514e-09
6.10957e-13
1.79468e-12
2.24507e-09
7.50242e-13
1.45791e-12
2.24613e-09
-2.37563e-12
2.4734e-12
2.24643e-09
9.67791e-13
7.65785e-13
2.24506e-09
1.31704e-12
1.56043e-13
2.2441e-09
-9.07166e-13
1.07742e-12
2.24477e-09
-2.4154e-13
5.67051e-14
2.24457e-09
-6.89294e-13
-7.56376e-13
2.24286e-09
-5.83105e-13
1.37697e-12
2.24273e-09
4.86202e-13
6.46411e-14
2.24256e-09
6.01543e-15
-1.85655e-14
2.24184e-09
3.36302e-13
-4.30706e-14
2.24296e-09
1.40269e-12
-2.56475e-13
2.245e-09
1.75459e-13
3.46619e-12
2.24417e-09
-1.76018e-13
3.58222e-13
2.24389e-09
-1.0282e-13
-5.76425e-13
2.24273e-09
9.88718e-14
4.19515e-13
2.24265e-09
4.57528e-13
-2.91329e-13
2.24317e-09
1.37209e-13
-9.59517e-13
-2.43231e-13
2.2678e-13
-4.81205e-09
1.49273e-08
8.94507e-10
-1.09137e-08
2.73895e-09
1.08317e-09
-1.46421e-09
-1.84647e-09
4.71343e-11
-1.32468e-08
4.55416e-10
-3.68511e-09
-3.20938e-09
1.96387e-08
-5.08685e-09
-6.78466e-08
-1.44085e-10
7.42817e-08
-2.08576e-09
8.81597e-10
3.83579e-10
1.10158e-09
9.67564e-09
-1.01515e-08
-1.33942e-11
-6.94766e-10
1.28105e-09
-3.55663e-10
2.19155e-08
2.82094e-09
-4.72645e-10
1.29738e-09
-3.05932e-08
5.03208e-09
-1.4574e-09
-3.68596e-10
5.1854e-10
-6.48777e-10
2.5186e-12
1.9537e-09
-1.13644e-10
-2.30493e-11
9.13229e-12
-2.04715e-11
-8.37807e-13
1.4887e-10
2.43051e-09
-5.89432e-11
3.54482e-11
-6.26615e-10
-6.59331e-10
-6.26608e-10
-6.59304e-10
2.34584e-09
1.86437e-11
1.53139e-12
2.30842e-09
3.1873e-12
-4.62911e-14
2.28414e-09
5.83794e-12
6.49936e-14
2.27143e-09
3.30207e-12
-4.70971e-13
2.26307e-09
2.62177e-12
9.87689e-14
2.25769e-09
1.69995e-12
3.96871e-14
2.25431e-09
1.1629e-12
6.75479e-15
2.25305e-09
2.63664e-13
9.42353e-14
2.25074e-09
7.89156e-13
-7.49617e-14
2.25097e-09
9.32225e-13
-2.05396e-12
2.24849e-09
9.54091e-13
-5.49856e-17
2.24859e-09
-3.48908e-13
-4.50729e-14
2.24839e-09
-5.62243e-13
4.99016e-13
2.24904e-09
-3.23647e-13
1.86842e-14
2.24822e-09
1.18555e-12
-7.40763e-13
2.24587e-09
-5.8684e-13
-3.63482e-12
2.24587e-09
1.79857e-12
-6.9362e-13
2.246e-09
-3.35484e-13
-1.0245e-13
2.24568e-09
2.70308e-13
4.53973e-14
2.24499e-09
1.24935e-12
-4.89143e-13
2.2459e-09
-8.18084e-13
2.07096e-12
2.2464e-09
-4.50842e-12
1.79212e-12
2.24589e-09
1.04793e-12
-1.18074e-13
2.24719e-09
-2.74501e-12
8.77527e-13
2.24491e-09
2.76348e-13
-2.34257e-12
2.24366e-09
3.25857e-13
-7.2662e-13
2.24449e-09
3.11485e-13
-1.75136e-13
2.24525e-09
5.10784e-14
-1.03057e-12
2.24459e-09
1.31076e-13
3.07236e-14
2.24411e-09
-3.34678e-14
3.22512e-14
2.24351e-09
-5.04064e-13
-4.79963e-14
2.24285e-09
2.59262e-12
-8.05162e-13
2.24246e-09
3.31598e-13
-1.28018e-14
2.24225e-09
7.05647e-13
1.06024e-13
2.24291e-09
1.10746e-12
-2.84662e-13
2.24498e-09
-2.1281e-12
1.62138e-13
2.24433e-09
1.2286e-12
-3.65135e-13
2.24374e-09
6.14056e-13
-7.32037e-14
2.2432e-09
4.3248e-13
1.03352e-13
2.24255e-09
8.94836e-13
7.80348e-14
2.24238e-09
3.95613e-13
-6.5276e-14
-1.78011e-12
8.77375e-13
-7.6853e-10
1.79604e-08
-1.22818e-09
-1.71774e-08
2.20938e-09
-7.58264e-10
1.39729e-09
-1.02711e-09
1.0009e-09
4.97935e-10
-1.50636e-08
1.44461e-08
-1.49316e-09
1.04392e-09
4.06636e-09
1.22142e-10
5.00783e-09
-5.41909e-09
-1.49185e-09
-2.71753e-09
-4.25641e-09
-6.50998e-08
8.03207e-11
1.75113e-09
4.8361e-08
1.91534e-08
-6.48382e-10
2.61995e-08
-1.06284e-09
1.66205e-09
-2.66917e-08
5.39676e-10
7.49287e-10
-1.77186e-10
-2.663e-09
-4.87656e-11
1.11714e-09
1.02253e-09
3.84754e-10
-5.5154e-11
-1.33529e-10
3.63533e-10
-6.2694e-11
-4.96913e-10
-1.00174e-10
-1.50927e-10
-1.59409e-11
-9.79771e-12
9.28994e-11
1.83941e-10
2.49621e-09
6.0388e-11
3.58968e-11
-6.72694e-10
-7.3623e-10
-6.72969e-10
-7.23851e-10
2.67654e-11
6.03842e-11
2.67736e-11
2.367e-09
1.44223e-10
1.709e-12
2.31364e-09
5.46584e-11
7.88363e-13
2.28546e-09
3.31574e-11
2.89844e-13
2.2689e-09
1.83562e-11
6.63143e-13
2.2611e-09
1.00013e-11
9.48794e-14
2.25651e-09
5.98504e-12
3.22442e-14
2.25347e-09
3.86752e-12
3.39065e-14
2.25112e-09
2.46481e-12
-8.46827e-14
2.25033e-09
1.47132e-12
-1.02402e-13
2.24972e-09
1.26802e-12
-1.41455e-14
2.24979e-09
8.07907e-13
-1.27069e-13