/*--------------------------------*- C++ -*----------------------------------*\
| =========                 |                                                 |
| \\      /  F ield         | OpenFOAM: The Open Source CFD Toolbox           |
|  \\    /   O peration     | Version:  5.0                                   |
|   \\  /    A nd           | Web:      www.OpenFOAM.org                      |
|    \\/     M anipulation  |                                                 |
\*---------------------------------------------------------------------------*/
FoamFile
{
    version     2.0;
    format      ascii;
    class       volScalarField;
    location    "1.1";
    object      rAU;
}
// * * * * * * * * * * * * * * * * * * * * * * * * * * * * * * * * * * * * * //

dimensions      [-1 3 1 0 0 0 0];

internalField   nonuniform List<scalar> 
9011
(
8.21877e-07
8.86913e-07
8.73726e-07
1.85854e-07
8.84132e-07
6.8911e-07
1.29268e-07
3.9242e-07
3.93663e-07
3.94697e-07
3.95731e-07
3.96764e-07
3.97795e-07
3.98827e-07
3.99857e-07
4.00887e-07
4.01917e-07
4.02945e-07
4.03972e-07
4.05e-07
4.06026e-07
4.07051e-07
4.08076e-07
4.091e-07
4.10123e-07
4.11146e-07
4.12168e-07
4.13188e-07
4.14209e-07
4.15228e-07
4.16247e-07
4.17265e-07
4.18282e-07
4.19298e-07
4.20314e-07
4.21329e-07
4.22343e-07
4.23357e-07
4.24369e-07
4.2538e-07
4.26391e-07
4.27401e-07
4.2841e-07
4.29419e-07
4.30426e-07
4.31432e-07
4.32439e-07
4.33443e-07
4.34447e-07
4.36223e-07
8.72055e-07
8.44867e-07
8.85957e-07
9.69247e-07
8.83484e-07
6.26177e-07
1.29211e-07
3.9242e-07
3.93663e-07
3.94697e-07
3.95731e-07
3.96764e-07
3.97795e-07
3.98827e-07
3.99857e-07
4.00887e-07
4.01917e-07
4.02945e-07
4.03972e-07
4.05e-07
4.06026e-07
4.07051e-07
4.08076e-07
4.091e-07
4.10123e-07
4.11146e-07
4.12168e-07
4.13188e-07
4.14209e-07
4.15228e-07
4.16247e-07
4.17265e-07
4.18282e-07
4.19298e-07
4.20314e-07
4.21329e-07
4.22343e-07
4.23356e-07
4.24369e-07
4.2538e-07
4.26391e-07
4.27401e-07
4.2841e-07
4.29419e-07
4.30426e-07
4.31432e-07
4.32439e-07
4.33443e-07
4.34447e-07
4.36223e-07
8.95028e-07
1.23167e-07
7.05855e-07
8.96875e-07
8.83001e-07
6.86132e-07
3.51669e-08
3.92418e-07
3.93662e-07
3.94697e-07
3.95731e-07
3.96763e-07
3.97795e-07
3.98827e-07
3.99857e-07
4.00887e-07
4.01917e-07
4.02945e-07
4.03972e-07
4.05e-07
4.06026e-07
4.07051e-07
4.08076e-07
4.091e-07
4.10123e-07
4.11146e-07
4.12168e-07
4.13188e-07
4.14209e-07
4.15228e-07
4.16247e-07
4.17265e-07
4.18282e-07
4.19298e-07
4.20314e-07
4.21329e-07
4.22343e-07
4.23357e-07
4.24369e-07
4.2538e-07
4.26391e-07
4.27401e-07
4.2841e-07
4.29419e-07
4.30426e-07
4.31432e-07
4.32439e-07
4.33443e-07
4.34447e-07
4.36223e-07
8.96232e-07
8.76742e-07
8.39829e-07
8.71613e-07
8.88812e-07
6.06262e-07
6.54492e-08
3.92284e-07
3.93661e-07
3.94697e-07
3.95731e-07
3.96763e-07
3.97795e-07
3.98827e-07
3.99857e-07
4.00887e-07
4.01917e-07
4.02945e-07
4.03972e-07
4.05e-07
4.06026e-07
4.07051e-07
4.08076e-07
4.091e-07
4.10123e-07
4.11146e-07
4.12168e-07
4.13188e-07
4.14209e-07
4.15228e-07
4.16247e-07
4.17265e-07
4.18282e-07
4.19298e-07
4.20314e-07
4.21329e-07
4.22343e-07
4.23357e-07
4.24369e-07
4.2538e-07
4.26391e-07
4.27401e-07
4.2841e-07
4.29419e-07
4.30426e-07
4.31432e-07
4.32439e-07
4.33443e-07
4.34447e-07
4.36223e-07
8.76823e-07
7.68185e-07
5.40608e-07
6.75491e-07
4.84547e-07
6.87295e-07
2.87638e-07
1.29779e-07
3.93454e-07
3.94698e-07
3.95731e-07
3.96764e-07
3.97796e-07
3.98827e-07
3.99857e-07
4.00887e-07
4.01917e-07
4.02945e-07
4.03972e-07
4.05e-07
4.06026e-07
4.07051e-07
4.08076e-07
4.091e-07
4.10123e-07
4.11146e-07
4.12168e-07
4.13188e-07
4.14209e-07
4.15228e-07
4.16247e-07
4.17265e-07
4.18282e-07
4.19298e-07
4.20314e-07
4.21329e-07
4.22343e-07
4.23357e-07
4.24369e-07
4.2538e-07
4.26391e-07
4.27401e-07
4.2841e-07
4.29419e-07
4.30426e-07
4.31432e-07
4.32439e-07
4.33443e-07
4.34447e-07
4.36223e-07
8.4808e-07
6.61995e-07
8.55816e-07
6.36692e-07
5.84948e-07
6.95215e-07
5.99099e-07
1.29721e-07
3.93456e-07
3.94699e-07
3.95732e-07
3.96764e-07
3.97796e-07
3.98827e-07
3.99857e-07
4.00887e-07
4.01917e-07
4.02945e-07
4.03972e-07
4.05e-07
4.06026e-07
4.07051e-07
4.08076e-07
4.091e-07
4.10123e-07
4.11146e-07
4.12168e-07
4.13188e-07
4.14209e-07
4.15228e-07
4.16247e-07
4.17265e-07
4.18282e-07
4.19298e-07
4.20314e-07
4.21329e-07
4.22343e-07
4.23357e-07
4.24369e-07
4.2538e-07
4.26391e-07
4.27401e-07
4.2841e-07
4.29419e-07
4.30426e-07
4.31432e-07
4.32439e-07
4.33443e-07
4.34447e-07
4.36223e-07
8.82488e-07
5.68576e-07
5.00998e-07
8.94418e-07
8.92413e-07
6.65441e-07
1.86963e-07
3.92289e-07
3.93664e-07
3.94698e-07
3.95732e-07
3.96764e-07
3.97796e-07
3.98827e-07
3.99858e-07
4.00887e-07
4.01917e-07
4.02945e-07
4.03972e-07
4.05e-07
4.06026e-07
4.07051e-07
4.08076e-07
4.091e-07
4.10123e-07
4.11146e-07
4.12168e-07
4.13188e-07
4.14209e-07
4.15228e-07
4.16247e-07
4.17265e-07
4.18282e-07
4.19298e-07
4.20314e-07
4.21329e-07
4.22343e-07
4.23356e-07
4.24369e-07
4.2538e-07
4.26391e-07
4.27401e-07
4.2841e-07
4.29419e-07
4.30426e-07
4.31432e-07
4.32439e-07
4.33443e-07
4.34447e-07
4.36223e-07
8.88074e-07
4.12068e-07
8.22968e-07
8.96423e-07
6.35313e-07
6.93759e-07
4.84242e-08
3.92421e-07
3.93664e-07
3.94698e-07
3.95731e-07
3.96764e-07
3.97796e-07
3.98827e-07
3.99857e-07
4.00887e-07
4.01917e-07
4.02945e-07
4.03972e-07
4.05e-07
4.06026e-07
4.07051e-07
4.08076e-07
4.091e-07
4.10123e-07
4.11146e-07
4.12168e-07
4.13188e-07
4.14209e-07
4.15228e-07
4.16247e-07
4.17265e-07
4.18282e-07
4.19298e-07
4.20314e-07
4.21329e-07
4.22343e-07
4.23356e-07
4.24369e-07
4.2538e-07
4.26391e-07
4.27401e-07
4.2841e-07
4.29419e-07
4.30426e-07
4.31432e-07
4.32439e-07
4.33443e-07
4.34447e-07
4.36223e-07
8.76934e-07
1.23714e-07
8.32431e-07
5.68711e-07
7.52982e-07
5.88561e-07
3.51658e-08
3.9242e-07
3.93663e-07
3.94697e-07
3.95731e-07
3.96764e-07
3.97795e-07
3.98827e-07
3.99857e-07
4.00887e-07
4.01917e-07
4.02945e-07
4.03972e-07
4.05e-07
4.06026e-07
4.07051e-07
4.08076e-07
4.091e-07
4.10123e-07
4.11146e-07
4.12168e-07
4.13188e-07
4.14209e-07
4.15228e-07
4.16247e-07
4.17265e-07
4.18282e-07
4.19298e-07
4.20314e-07
4.21329e-07
4.22343e-07
4.23357e-07
4.24369e-07
4.2538e-07
4.26391e-07
4.27401e-07
4.2841e-07
4.29419e-07
4.30426e-07
4.31432e-07
4.32439e-07
4.33443e-07
4.34447e-07
4.36223e-07
8.86964e-07
7.16254e-07
4.36831e-07
5.9512e-07
6.96074e-07
6.92185e-07
1.29269e-07
3.9242e-07
3.93663e-07
3.94697e-07
3.95731e-07
3.96764e-07
3.97795e-07
3.98827e-07
3.99857e-07
4.00887e-07
4.01917e-07
4.02945e-07
4.03972e-07
4.05e-07
4.06026e-07
4.07051e-07
4.08076e-07
4.091e-07
4.10123e-07
4.11146e-07
4.12168e-07
4.13188e-07
4.14209e-07
4.15228e-07
4.16247e-07
4.17265e-07
4.18282e-07
4.19298e-07
4.20314e-07
4.21329e-07
4.22343e-07
4.23357e-07
4.24369e-07
4.2538e-07
4.26391e-07
4.27401e-07
4.2841e-07
4.29419e-07
4.30426e-07
4.31432e-07
4.32439e-07
4.33443e-07
4.34447e-07
4.36223e-07
8.81725e-07
8.55443e-07
8.99493e-07
8.02736e-07
9.22559e-07
7.61379e-07
1.83341e-07
5.04898e-07
5.06387e-07
5.07528e-07
5.08667e-07
5.09805e-07
5.10941e-07
5.12074e-07
5.13207e-07
5.14338e-07
5.15466e-07
5.16594e-07
5.1772e-07
5.18843e-07
5.19966e-07
5.21087e-07
5.22206e-07
5.23324e-07
5.2444e-07
5.25554e-07
5.26667e-07
5.27778e-07
5.28887e-07
5.29995e-07
5.31102e-07
5.32205e-07
5.33309e-07
5.3441e-07
5.35509e-07
5.36607e-07
5.37704e-07
5.38798e-07
5.39891e-07
5.40983e-07
5.42072e-07
5.4316e-07
5.44246e-07
5.4533e-07
5.46413e-07
5.47495e-07
5.48574e-07
5.49652e-07
5.50728e-07
5.53043e-07
8.77709e-07
8.46274e-07
8.73576e-07
9.67209e-07
9.20756e-07
5.87257e-07
1.83228e-07
5.04899e-07
5.06388e-07
5.07529e-07
5.08667e-07
5.09805e-07
5.10941e-07
5.12074e-07
5.13207e-07
5.14337e-07
5.15466e-07
5.16594e-07
5.1772e-07
5.18843e-07
5.19966e-07
5.21087e-07
5.22206e-07
5.23324e-07
5.2444e-07
5.25554e-07
5.26667e-07
5.27778e-07
5.28887e-07
5.29995e-07
5.31102e-07
5.32205e-07
5.33309e-07
5.3441e-07
5.35509e-07
5.36607e-07
5.37704e-07
5.38798e-07
5.39891e-07
5.40983e-07
5.42072e-07
5.4316e-07
5.44246e-07
5.4533e-07
5.46413e-07
5.47495e-07
5.48574e-07
5.49652e-07
5.50728e-07
5.53043e-07
8.91165e-07
3.22775e-07
4.97295e-07
8.97224e-07
7.87202e-07
7.44726e-07
5.18148e-08
5.04893e-07
5.06385e-07
5.07528e-07
5.08666e-07
5.09804e-07
5.1094e-07
5.12074e-07
5.13207e-07
5.14338e-07
5.15466e-07
5.16594e-07
5.1772e-07
5.18843e-07
5.19966e-07
5.21087e-07
5.22206e-07
5.23324e-07
5.2444e-07
5.25554e-07
5.26667e-07
5.27778e-07
5.28887e-07
5.29995e-07
5.31102e-07
5.32205e-07
5.33309e-07
5.3441e-07
5.35509e-07
5.36607e-07
5.37704e-07
5.38798e-07
5.39891e-07
5.40983e-07
5.42072e-07
5.4316e-07
5.44246e-07
5.4533e-07
5.46413e-07
5.47495e-07
5.48574e-07
5.49652e-07
5.50729e-07
5.53043e-07
8.86397e-07
8.81988e-07
5.02898e-07
4.06891e-07
9.31505e-07
6.5608e-07
9.52535e-08
5.04668e-07
5.06382e-07
5.07527e-07
5.08666e-07
5.09804e-07
5.10941e-07
5.12074e-07
5.13207e-07
5.14338e-07
5.15466e-07
5.16594e-07
5.1772e-07
5.18843e-07
5.19966e-07
5.21087e-07
5.22206e-07
5.23324e-07
5.2444e-07
5.25554e-07
5.26667e-07
5.27778e-07
5.28887e-07
5.29995e-07
5.31102e-07
5.32205e-07
5.33309e-07
5.3441e-07
5.35509e-07
5.36607e-07
5.37704e-07
5.38798e-07
5.39891e-07
5.40983e-07
5.42072e-07
5.4316e-07
5.44246e-07
5.4533e-07
5.46413e-07
5.47495e-07
5.48574e-07
5.49652e-07
5.50729e-07
5.53043e-07
3.64507e-07
4.96468e-07
5.37051e-07
3.16901e-07
7.36282e-07
7.15475e-07
3.6638e-07
1.84064e-07
5.06041e-07
5.07529e-07
5.08668e-07
5.09805e-07
5.10941e-07
5.12074e-07
5.13207e-07
5.14338e-07
5.15466e-07
5.16594e-07
5.1772e-07
5.18843e-07
5.19966e-07
5.21087e-07
5.22206e-07
5.23324e-07
5.2444e-07
5.25554e-07
5.26667e-07
5.27778e-07
5.28887e-07
5.29995e-07
5.31102e-07
5.32206e-07
5.33309e-07
5.3441e-07
5.35509e-07
5.36607e-07
5.37704e-07
5.38798e-07
5.39891e-07
5.40983e-07
5.42072e-07
5.4316e-07
5.44246e-07
5.4533e-07
5.46413e-07
5.47495e-07
5.48574e-07
5.49652e-07
5.50729e-07
5.53043e-07
9.11303e-07
5.80575e-07
7.68979e-07
4.99886e-07
4.92868e-07
7.04995e-07
5.94196e-07
1.83952e-07
5.06046e-07
5.07532e-07
5.08669e-07
5.09806e-07
5.10941e-07
5.12074e-07
5.13207e-07
5.14338e-07
5.15466e-07
5.16594e-07
5.1772e-07
5.18843e-07
5.19966e-07
5.21087e-07
5.22206e-07
5.23324e-07
5.2444e-07
5.25554e-07
5.26667e-07
5.27778e-07
5.28887e-07
5.29995e-07
5.31102e-07
5.32206e-07
5.33309e-07
5.3441e-07
5.35509e-07
5.36607e-07
5.37704e-07
5.38798e-07
5.39891e-07
5.40983e-07
5.42071e-07
5.4316e-07
5.44246e-07
5.4533e-07
5.46413e-07
5.47495e-07
5.48574e-07
5.49652e-07
5.50728e-07
5.53043e-07
8.93643e-07
5.29197e-07
2.31711e-07
9.1752e-07
8.71643e-07
7.03787e-07
2.55553e-07
5.04681e-07
5.0639e-07
5.07531e-07
5.08669e-07
5.09806e-07
5.10941e-07
5.12074e-07
5.13207e-07
5.14338e-07
5.15466e-07
5.16594e-07
5.1772e-07
5.18843e-07
5.19966e-07
5.21087e-07
5.22206e-07
5.23324e-07
5.2444e-07
5.25554e-07
5.26667e-07
5.27778e-07
5.28887e-07
5.29995e-07
5.31102e-07
5.32206e-07
5.33309e-07
5.3441e-07
5.35509e-07
5.36607e-07
5.37704e-07
5.38798e-07
5.39891e-07
5.40983e-07
5.42071e-07
5.4316e-07
5.44246e-07
5.4533e-07
5.46413e-07
5.47495e-07
5.48574e-07
5.49652e-07
5.50728e-07
5.53043e-07
9.25886e-07
6.39523e-07
7.26693e-07
9.21974e-07
8.5004e-07
7.69995e-07
7.15602e-08
5.04899e-07
5.06388e-07
5.0753e-07
5.08668e-07
5.09805e-07
5.10941e-07
5.12074e-07
5.13207e-07
5.14338e-07
5.15466e-07
5.16594e-07
5.1772e-07
5.18843e-07
5.19966e-07
5.21087e-07
5.22206e-07
5.23324e-07
5.2444e-07
5.25554e-07
5.26667e-07
5.27778e-07
5.28887e-07
5.29995e-07
5.31102e-07
5.32206e-07
5.33309e-07
5.3441e-07
5.35509e-07
5.36607e-07
5.37704e-07
5.38798e-07
5.39891e-07
5.40983e-07
5.42072e-07
5.4316e-07
5.44246e-07
5.4533e-07
5.46413e-07
5.47495e-07
5.48574e-07
5.49652e-07
5.50728e-07
5.53043e-07
9.20946e-07
3.81551e-07
8.1492e-07
7.52783e-07
6.24905e-07
7.32327e-07
5.17947e-08
5.04896e-07
5.06387e-07
5.07528e-07
5.08667e-07
5.09805e-07
5.10941e-07
5.12074e-07
5.13207e-07
5.14338e-07
5.15466e-07
5.16594e-07
5.1772e-07
5.18843e-07
5.19966e-07
5.21087e-07
5.22206e-07
5.23324e-07
5.2444e-07
5.25554e-07
5.26667e-07
5.27778e-07
5.28887e-07
5.29995e-07
5.31102e-07
5.32206e-07
5.33309e-07
5.3441e-07
5.35509e-07
5.36607e-07
5.37704e-07
5.38798e-07
5.39891e-07
5.40983e-07
5.42072e-07
5.4316e-07
5.44246e-07
5.4533e-07
5.46413e-07
5.47495e-07
5.48574e-07
5.49652e-07
5.50728e-07
5.53043e-07
8.6415e-07
4.29931e-07
2.55445e-07
2.17547e-07
3.15032e-07
7.64933e-07
1.83342e-07
5.04897e-07
5.06387e-07
5.07528e-07
5.08667e-07
5.09805e-07
5.10941e-07
5.12074e-07
5.13206e-07
5.14338e-07
5.15466e-07
5.16594e-07
5.1772e-07
5.18843e-07
5.19966e-07
5.21087e-07
5.22206e-07
5.23324e-07
5.2444e-07
5.25554e-07
5.26667e-07
5.27778e-07
5.28887e-07
5.29995e-07
5.31102e-07
5.32206e-07
5.33309e-07
5.3441e-07
5.35509e-07
5.36607e-07
5.37704e-07
5.38798e-07
5.39891e-07
5.40983e-07
5.42071e-07
5.4316e-07
5.44246e-07
5.4533e-07
5.46413e-07
5.47495e-07
5.48574e-07
5.49652e-07
5.50728e-07
5.53043e-07
8.32354e-07
8.69375e-07
8.94804e-07
3.77618e-07
8.73622e-07
7.53486e-07
1.83346e-07
3.9242e-07
3.93663e-07
3.94697e-07
3.95731e-07
3.96763e-07
3.97795e-07
3.98827e-07
3.99857e-07
4.00887e-07
4.01916e-07
4.02945e-07
4.03972e-07
4.05e-07
4.06026e-07
4.07051e-07
4.08076e-07
4.091e-07
4.10123e-07
4.11146e-07
4.12168e-07
4.13188e-07
4.14209e-07
4.15228e-07
4.16247e-07
4.17265e-07
4.18282e-07
4.19298e-07
4.20314e-07
4.21329e-07
4.22343e-07
4.23356e-07
4.24369e-07
4.2538e-07
4.26391e-07
4.27401e-07
4.2841e-07
4.29419e-07
4.30426e-07
4.31432e-07
4.32439e-07
4.33443e-07
4.34447e-07
4.36223e-07
9.57846e-07
8.24404e-07
8.76307e-07
8.70635e-07
9.08662e-07
3.96521e-07
1.8323e-07
3.9242e-07
3.93663e-07
3.94697e-07
3.95731e-07
3.96763e-07
3.97795e-07
3.98827e-07
3.99857e-07
4.00887e-07
4.01916e-07
4.02945e-07
4.03972e-07
4.05e-07
4.06026e-07
4.07051e-07
4.08076e-07
4.091e-07
4.10123e-07
4.11146e-07
4.12168e-07
4.13188e-07
4.14209e-07
4.15228e-07
4.16247e-07
4.17265e-07
4.18282e-07
4.19298e-07
4.20314e-07
4.21329e-07
4.22343e-07
4.23356e-07
4.24369e-07
4.2538e-07
4.26391e-07
4.27401e-07
4.2841e-07
4.29419e-07
4.30426e-07
4.31432e-07
4.32439e-07
4.33443e-07
4.34447e-07
4.36223e-07
9.52359e-07
8.44229e-07
4.93638e-07
9.17586e-07
6.39738e-07
7.66977e-07
5.18144e-08
3.92418e-07
3.93662e-07
3.94697e-07
3.95731e-07
3.96763e-07
3.97795e-07
3.98827e-07
3.99857e-07
4.00887e-07
4.01916e-07
4.02945e-07
4.03972e-07
4.05e-07
4.06026e-07
4.07051e-07
4.08076e-07
4.091e-07
4.10123e-07
4.11146e-07
4.12168e-07
4.13188e-07
4.14209e-07
4.15228e-07
4.16247e-07
4.17265e-07
4.18282e-07
4.19298e-07
4.20314e-07
4.21329e-07
4.22343e-07
4.23356e-07
4.24369e-07
4.2538e-07
4.26391e-07
4.27401e-07
4.2841e-07
4.29419e-07
4.30426e-07
4.31432e-07
4.32439e-07
4.33443e-07
4.34447e-07
4.36223e-07
8.91452e-07
6.74608e-07
4.88631e-07
6.77388e-07
8.77496e-07
7.04672e-07
9.52167e-08
3.92283e-07
3.93661e-07
3.94696e-07
3.95731e-07
3.96763e-07
3.97795e-07
3.98827e-07
3.99857e-07
4.00887e-07
4.01916e-07
4.02945e-07
4.03972e-07
4.05e-07
4.06026e-07
4.07051e-07
4.08076e-07
4.091e-07
4.10123e-07
4.11146e-07
4.12168e-07
4.13188e-07
4.14209e-07
4.15228e-07
4.16247e-07
4.17265e-07
4.18282e-07
4.19298e-07
4.20314e-07
4.21329e-07
4.22343e-07
4.23356e-07
4.24369e-07
4.2538e-07
4.26391e-07
4.27401e-07
4.2841e-07
4.29419e-07
4.30426e-07
4.31432e-07
4.32439e-07
4.33443e-07
4.34447e-07
4.36223e-07
1.31739e-07
2.04834e-07
7.39741e-07
7.60136e-07
2.97596e-07
7.14528e-07
3.65307e-07
1.84069e-07
3.93454e-07
3.94698e-07
3.95731e-07
3.96764e-07
3.97795e-07
3.98827e-07
3.99857e-07
4.00887e-07
4.01917e-07
4.02945e-07
4.03972e-07
4.05e-07
4.06026e-07
4.07051e-07
4.08076e-07
4.091e-07
4.10123e-07
4.11146e-07
4.12168e-07
4.13188e-07
4.14209e-07
4.15228e-07
4.16247e-07
4.17265e-07
4.18282e-07
4.19298e-07
4.20314e-07
4.21329e-07
4.22343e-07
4.23356e-07
4.24369e-07
4.2538e-07
4.26391e-07
4.27401e-07
4.2841e-07
4.29419e-07
4.30426e-07
4.31432e-07
4.32438e-07
4.33443e-07
4.34447e-07
4.36223e-07
9.09228e-07
9.05603e-07
3.72483e-07
6.89385e-07
5.80946e-07
6.94685e-07
6.08387e-07
1.83956e-07
3.93456e-07
3.94699e-07
3.95732e-07
3.96764e-07
3.97796e-07
3.98827e-07
3.99857e-07
4.00887e-07
4.01917e-07
4.02945e-07
4.03972e-07
4.05e-07
4.06026e-07
4.07051e-07
4.08076e-07
4.091e-07
4.10123e-07
4.11146e-07
4.12168e-07
4.13188e-07
4.14209e-07
4.15228e-07
4.16247e-07
4.17265e-07
4.18282e-07
4.19298e-07
4.20314e-07
4.21329e-07
4.22343e-07
4.23356e-07
4.24369e-07
4.2538e-07
4.26391e-07
4.27401e-07
4.2841e-07
4.29419e-07
4.30426e-07
4.31432e-07
4.32439e-07
4.33443e-07
4.34447e-07
4.36223e-07
6.1394e-07
7.5131e-07
6.42073e-07
8.67867e-07
8.32586e-07
7.23138e-07
2.53e-07
3.92289e-07
3.93664e-07
3.94698e-07
3.95732e-07
3.96764e-07
3.97796e-07
3.98827e-07
3.99857e-07
4.00887e-07
4.01917e-07
4.02945e-07
4.03972e-07
4.05e-07
4.06026e-07
4.07051e-07
4.08076e-07
4.091e-07
4.10123e-07
4.11146e-07
4.12168e-07
4.13188e-07
4.14209e-07
4.15228e-07
4.16247e-07
4.17265e-07
4.18282e-07
4.19298e-07
4.20314e-07
4.21329e-07
4.22343e-07
4.23356e-07
4.24369e-07
4.2538e-07
4.26391e-07
4.27401e-07
4.2841e-07
4.29419e-07
4.30426e-07
4.31432e-07
4.32439e-07
4.33443e-07
4.34447e-07
4.36223e-07
8.10964e-07
2.48942e-07
1.84087e-07
9.05395e-07
5.66813e-07
7.55583e-07
7.1597e-08
3.92421e-07
3.93664e-07
3.94698e-07
3.95731e-07
3.96764e-07
3.97796e-07
3.98827e-07
3.99857e-07
4.00887e-07
4.01917e-07
4.02945e-07
4.03972e-07
4.05e-07
4.06026e-07
4.07051e-07
4.08076e-07
4.091e-07
4.10123e-07
4.11146e-07
4.12168e-07
4.13188e-07
4.14209e-07
4.15228e-07
4.16247e-07
4.17265e-07
4.18282e-07
4.19298e-07
4.20314e-07
4.21329e-07
4.22343e-07
4.23356e-07
4.24369e-07
4.2538e-07
4.26391e-07
4.27401e-07
4.2841e-07
4.29419e-07
4.30426e-07
4.31432e-07
4.32439e-07
4.33443e-07
4.34447e-07
4.36223e-07
9.22569e-07
8.53496e-07
5.83878e-07
8.48811e-07
7.13852e-07
5.5321e-07
5.17978e-08
3.9242e-07
3.93663e-07
3.94697e-07
3.95731e-07
3.96764e-07
3.97795e-07
3.98827e-07
3.99857e-07
4.00887e-07
4.01916e-07
4.02945e-07
4.03972e-07
4.05e-07
4.06026e-07
4.07051e-07
4.08076e-07
4.091e-07
4.10123e-07
4.11146e-07
4.12168e-07
4.13188e-07
4.14209e-07
4.15228e-07
4.16247e-07
4.17265e-07
4.18282e-07
4.19298e-07
4.20314e-07
4.21329e-07
4.22343e-07
4.23356e-07
4.24369e-07
4.2538e-07
4.26391e-07
4.27401e-07
4.2841e-07
4.29419e-07
4.30426e-07
4.31432e-07
4.32439e-07
4.33443e-07
4.34447e-07
4.36223e-07
8.55677e-07
5.15295e-07
7.15312e-07
8.9516e-07
7.36832e-07
7.59958e-07
1.83347e-07
3.9242e-07
3.93663e-07
3.94697e-07
3.95731e-07
3.96763e-07
3.97795e-07
3.98827e-07
3.99857e-07
4.00887e-07
4.01916e-07
4.02945e-07
4.03972e-07
4.05e-07
4.06026e-07
4.07051e-07
4.08076e-07
4.091e-07
4.10123e-07
4.11146e-07
4.12168e-07
4.13188e-07
4.14209e-07
4.15228e-07
4.16247e-07
4.17265e-07
4.18282e-07
4.19298e-07
4.20314e-07
4.21329e-07
4.22343e-07
4.23356e-07
4.24369e-07
4.2538e-07
4.26391e-07
4.27401e-07
4.2841e-07
4.29419e-07
4.30426e-07
4.31432e-07
4.32439e-07
4.33443e-07
4.34447e-07
4.36223e-07
3.51425e-08
6.9099e-07
3.51465e-08
7.60715e-07
5.17845e-08
7.6396e-07
5.1795e-08
3.51518e-08
6.91108e-07
4.27726e-08
7.13835e-07
5.18032e-08
7.13863e-07
6.29091e-08
5.39161e-08
6.93758e-07
3.42229e-07
7.40343e-07
7.99226e-08
7.67936e-07
4.25825e-07
6.91824e-07
6.87737e-07
6.9846e-07
6.65493e-07
7.65862e-07
7.37854e-07
7.69684e-07
6.97871e-07
6.88803e-07
7e-07
7.34643e-07
7.71682e-07
7.16658e-07
7.75958e-07
6.98871e-07
6.68371e-07
6.98641e-07
7.08919e-07
7.73142e-07
7.4045e-07
7.69727e-07
6.9889e-07
6.70258e-07
6.92381e-07
7.27624e-07
7.73273e-07
6.85926e-07
7.64092e-07
4.41558e-07
6.65965e-07
6.11721e-08
7.67793e-07
5.23088e-07
6.9008e-07
8.92034e-08
4.29559e-08
6.66337e-07
3.51523e-08
7.19822e-07
6.25581e-08
7.10532e-07
5.18069e-08
3.51463e-08
2.53597e-07
3.51424e-08
7.68386e-07
5.17932e-08
3.31908e-07
5.17838e-08
5.17842e-08
7.65009e-07
5.17944e-08
7.5979e-07
5.17843e-08
7.59598e-07
5.17932e-08
5.18028e-08
7.11914e-07
6.30656e-08
3.87127e-07
5.18085e-08
7.57605e-07
6.29005e-08
8.01247e-08
7.59754e-07
4.22312e-07
7.62349e-07
8.02339e-08
7.63046e-07
4.24435e-07
7.66448e-07
7.33096e-07
7.68322e-07
6.81246e-07
7.66809e-07
7.54329e-07
7.72038e-07
7.72296e-07
6.97986e-07
7.73747e-07
7.0621e-07
7.71743e-07
6.9003e-07
7.7373e-07
7.73171e-07
7.57749e-07
7.69333e-07
7.10907e-07
7.72605e-07
7.45518e-07
7.72981e-07
7.74072e-07
6.86135e-07
7.64706e-07
6.91719e-07
7.73539e-07
6.76585e-07
7.64002e-07
5.2078e-07
6.94224e-07
8.92556e-08
7.45804e-07
5.19376e-07
6.70611e-07
8.92262e-08
6.2376e-08
7.12158e-07
5.18087e-08
6.29067e-07
6.36273e-08
7.58319e-07
5.18081e-08
5.17926e-08
3.2873e-07
5.17831e-08
7.54625e-07
5.17932e-08
3.6221e-07
5.17818e-08
5.17844e-08
7.67399e-07
5.17932e-08
6.89368e-07
3.51424e-08
6.60669e-07
3.51464e-08
5.18107e-08
7.58367e-07
6.27195e-08
3.56084e-07
3.51528e-08
6.87998e-07
4.22311e-08
8.01748e-08
7.60411e-07
4.27826e-07
6.88485e-07
5.43586e-08
6.9564e-07
3.42166e-07
7.65429e-07
7.5078e-07
7.70948e-07
6.90391e-07
6.90186e-07
6.78271e-07
6.98175e-07
7.71427e-07
7.19366e-07
7.72569e-07
6.83309e-07
6.98651e-07
6.1042e-07
6.99815e-07
7.73163e-07
7.24408e-07
7.72853e-07
6.79557e-07
6.99218e-07
6.67921e-07
6.99269e-07
7.73267e-07
6.88031e-07
7.63739e-07
6.76961e-07
6.98191e-07
6.82116e-07
6.91479e-07
5.18814e-07
6.38926e-07
8.9191e-08
6.96346e-07
4.39244e-07
6.21962e-07
6.11937e-08
6.38648e-08
7.63775e-07
5.18075e-08
4.72492e-07
4.27563e-08
6.96698e-07
3.51524e-08
5.17932e-08
3.68929e-07
5.17823e-08
6.90128e-07
3.51461e-08
2.40466e-07
3.51423e-08
6.93483e-07
7.35686e-07
6.90428e-07
8.89168e-07
7.49474e-07
8.27999e-07
7.69459e-07
1.04095e-07
6.39041e-08
6.90877e-07
7.64752e-07
7.64943e-07
7.18703e-08
9.28762e-08
1.29657e-07
1.29269e-07
1.29658e-07
1.83346e-07
1.84016e-07
1.83347e-07
1.84016e-07
8.89478e-07
8.79153e-07
8.82213e-07
8.82528e-07
8.98914e-07
9.01105e-07
8.87944e-07
4.78205e-07
4.81197e-07
3.4935e-07
7.26161e-07
5.63546e-07
4.00761e-07
4.16997e-07
1.29658e-07
3.51656e-08
1.29566e-07
1.83229e-07
1.84017e-07
5.17964e-08
1.83831e-07
8.72528e-07
8.59699e-07
8.8233e-07
8.75678e-07
9.15883e-07
8.69051e-07
9.11804e-07
7.66732e-07
6.9787e-07
6.64742e-07
7.63077e-07
7.70866e-07
7.10838e-07
6.95317e-07
1.29566e-07
4.61388e-08
1.29566e-07
5.18142e-08
1.83831e-07
6.82612e-08
1.8383e-07
5.73884e-07
8.90119e-07
8.93404e-07
9.09774e-07
7.33493e-07
8.92888e-07
8.56718e-07
5.69568e-07
6.6867e-07
3.97789e-07
6.77469e-07
7.47201e-07
4.84936e-07
5.48568e-07
1.29568e-07
1.90845e-07
1.29531e-07
9.52199e-08
1.83837e-07
2.56976e-07
1.8376e-07
8.11083e-07
6.69949e-07
6.76763e-07
5.64295e-07
6.0497e-07
3.10646e-07
7.1586e-07
7.73158e-07
6.95472e-07
6.73301e-07
7.31062e-07
7.63367e-07
7.26075e-07
6.98036e-07
3.52933e-08
5.51673e-07
3.52761e-08
3.66571e-07
5.20161e-08
5.67793e-07
5.19792e-08
8.52344e-07
7.84812e-07
8.76645e-07
3.13955e-07
6.40598e-07
7.69152e-07
7.9855e-07
7.64313e-07
6.94952e-07
6.95934e-07
7.5811e-07
7.61837e-07
7.64439e-07
6.95378e-07
3.52762e-08
2.79507e-07
3.52934e-08
6.04609e-07
5.19795e-08
3.52485e-07
5.20171e-08
8.78132e-07
8.84259e-07
8.72475e-07
8.64326e-07
8.69149e-07
8.90502e-07
9.1862e-07
7.7438e-07
6.5725e-07
6.98536e-07
7.2613e-07
7.39066e-07
7.49103e-07
6.98899e-07
1.29533e-07
6.24603e-08
1.2957e-07
2.53645e-07
1.83768e-07
9.09516e-08
1.83841e-07
7.84179e-07
7.74905e-07
6.19963e-07
7.77926e-07
7.82477e-07
8.75362e-07
6.94767e-07
7.03148e-07
6.88146e-07
5.34082e-07
7.64395e-07
7.61515e-07
6.01482e-07
6.13565e-07
1.29567e-07
3.51877e-08
1.29567e-07
7.14699e-08
1.83833e-07
5.18814e-08
1.83833e-07
8.26998e-07
5.51658e-07
6.349e-07
6.85865e-07
6.04119e-07
5.70773e-07
7.34684e-07
7.51786e-07
6.93138e-07
6.55036e-07
6.08882e-07
7.60628e-07
6.86941e-07
6.84866e-07
1.29567e-07
1.29211e-07
1.29657e-07
5.17959e-08
1.83832e-07
1.83228e-07
1.84015e-07
6.64549e-07
8.19917e-07
6.90046e-07
2.04667e-07
7.56191e-07
3.10678e-07
7.19394e-07
1.29995e-07
1.51317e-07
6.89487e-07
7.674e-07
2.10823e-07
7.43915e-07
9.13399e-08
1.29658e-07
1.29268e-07
1.29657e-07
1.83347e-07
1.84016e-07
1.83345e-07
1.84015e-07
7.52131e-07
8.69889e-07
7.11419e-07
8.91345e-07
7.30307e-07
8.57749e-07
7.71071e-07
1.04495e-07
9.30824e-08
7.62942e-07
7.61734e-07
1.04502e-07
7.58191e-07
9.30168e-08
1.84011e-07
1.83343e-07
1.84011e-07
1.83341e-07
1.84011e-07
1.83343e-07
1.84011e-07
8.79454e-07
9.19361e-07
9.07246e-07
8.76709e-07
8.39564e-07
8.30211e-07
9.06603e-07
3.9082e-07
5.14056e-07
3.98643e-07
4.56507e-07
4.01913e-07
4.71668e-07
3.96837e-07
1.84013e-07
5.17967e-08
1.83826e-07
1.83229e-07
1.84013e-07
5.17965e-08
1.83826e-07
8.99096e-07
8.62472e-07
9.27872e-07
7.28485e-07
8.90264e-07
9.00201e-07
9.07149e-07
7.56943e-07
7.62758e-07
7.24886e-07
7.44485e-07
7.58613e-07
7.63414e-07
7.39582e-07
1.83825e-07
6.84307e-08
1.83824e-07
5.18147e-08
1.83825e-07
6.83871e-08
1.83825e-07
8.70823e-07
9.29919e-07
8.88858e-07
8.54585e-07
9.11207e-07
8.89417e-07
8.52109e-07
6.36214e-07
7.2395e-07
4.55944e-07
6.55068e-07
6.35111e-07
7.23959e-07
5.05091e-07
1.83832e-07
2.54586e-07
1.83756e-07
9.52696e-08
1.83832e-07
2.56501e-07
1.83755e-07
6.28969e-07
2.4798e-07
6.54317e-07
7.49988e-07
4.04665e-07
3.44145e-07
6.39965e-07
7.58489e-07
7.58536e-07
6.75196e-07
7.06979e-07
7.69068e-07
7.60872e-07
6.19585e-07
5.20155e-08
5.58373e-07
5.19787e-08
3.63055e-07
5.20156e-08
5.5985e-07
5.19785e-08
6.15435e-07
6.61208e-07
5.87362e-07
5.61679e-07
5.13714e-07
6.68832e-07
5.70434e-07
7.59292e-07
7.58745e-07
7.33654e-07
7.01749e-07
7.58604e-07
7.63006e-07
7.17668e-07
5.19789e-08
3.51738e-07
5.20166e-08
5.95346e-07
5.19787e-08
3.53157e-07
5.20166e-08
5.74917e-07
9.09305e-07
8.18913e-07
5.76637e-07
6.74914e-07
9.1528e-07
9.03486e-07
7.50966e-07
7.3712e-07
5.48897e-07
6.92213e-07
7.53184e-07
7.39863e-07
5.8844e-07
1.83762e-07
9.09894e-08
1.83837e-07
2.51647e-07
1.83763e-07
9.10019e-08
1.83837e-07
6.64682e-07
7.72024e-07
5.31249e-07
8.86319e-07
7.38448e-07
5.47882e-07
6.28604e-07
6.22406e-07
7.17408e-07
5.79888e-07
7.57752e-07
6.30447e-07
7.24973e-07
5.92668e-07
1.83828e-07
5.18887e-08
1.83829e-07
7.16069e-08
1.83828e-07
5.18891e-08
1.83829e-07
6.57219e-07
5.3275e-07
5.03252e-07
6.06422e-07
5.97556e-07
6.34768e-07
5.98788e-07
6.7895e-07
7.61299e-07
7.29255e-07
7.3421e-07
7.28571e-07
7.54279e-07
6.74094e-07
1.83827e-07
1.83225e-07
1.84009e-07
5.17969e-08
1.83827e-07
1.83226e-07
1.8401e-07
6.96869e-07
3.35634e-07
6.88843e-07
5.15015e-07
6.67874e-07
5.66487e-07
6.46814e-07
1.30687e-07
2.19708e-07
7.42492e-07
7.54037e-07
1.30882e-07
2.20114e-07
7.38602e-07
1.84011e-07
1.8334e-07
1.8401e-07
1.83342e-07
1.84011e-07
1.8334e-07
1.8401e-07
7.25666e-07
9.21448e-07
7.08412e-07
6.97991e-07
6.74608e-07
8.39308e-07
6.9336e-07
1.044e-07
9.31445e-08
7.63476e-07
7.52687e-07
1.04501e-07
7.63306e-07
9.30614e-08
1.84015e-07
1.83347e-07
1.84016e-07
1.29269e-07
1.29658e-07
1.29269e-07
1.29658e-07
7.83997e-07
8.94134e-07
9.10675e-07
8.97951e-07
6.89126e-07
8.69223e-07
8.91302e-07
5.26523e-07
4.27364e-07
4.09731e-07
3.94302e-07
4.76085e-07
4.37103e-07
4.51527e-07
1.84017e-07
5.17961e-08
1.83831e-07
1.2921e-07
1.29658e-07
3.5165e-08
1.29566e-07
8.98315e-07
8.80603e-07
9.23779e-07
5.3199e-07
8.37943e-07
8.77572e-07
8.99466e-07
7.65287e-07
7.67655e-07
7.37789e-07
7.71014e-07
7.62807e-07
7.68659e-07
7.10959e-07
1.8383e-07
6.82252e-08
1.8383e-07
3.517e-08
1.29566e-07
4.61419e-08
1.29566e-07
8.86255e-07
7.34411e-07
9.03746e-07
8.20674e-07
8.82977e-07
6.8702e-07
8.67515e-07
4.70547e-07
7.51525e-07
4.13821e-07
7.37805e-07
4.33612e-07
7.53375e-07
4.1203e-07
1.83836e-07
2.5496e-07
1.83761e-07
6.54409e-08
1.29568e-07
1.89356e-07
1.29531e-07
6.95744e-07
5.31169e-07
4.9423e-07
2.22427e-07
8.3947e-07
6.34881e-07
7.2426e-07
7.49061e-07
7.72099e-07
6.30515e-07
7.26018e-07
7.51174e-07
7.68917e-07
6.22179e-07
5.20161e-08
5.69339e-07
5.19789e-08
2.87137e-07
3.52934e-08
5.48582e-07
3.52762e-08
5.83739e-07
5.92328e-07
4.78808e-07
6.23745e-07
5.99934e-07
6.98817e-07
6.68476e-07
7.53347e-07
7.62787e-07
6.7716e-07
7.06507e-07
7.53065e-07
7.62581e-07
6.48108e-07
5.19791e-08
3.53205e-07
5.20171e-08
6.08155e-07
3.52762e-08
2.77066e-07
3.52935e-08
7.84008e-07
8.70138e-07
8.73784e-07
7.87538e-07
8.82571e-07
8.68317e-07
8.75216e-07
7.62531e-07
7.61103e-07
7.61364e-07
7.35665e-07
7.58205e-07
7.66954e-07
7.64494e-07
1.83766e-07
9.09713e-08
1.83841e-07
1.86255e-07
1.29533e-07
6.24737e-08
1.2957e-07
5.23135e-07
5.73773e-07
5.02535e-07
6.91736e-07
6.98204e-07
6.81089e-07
5.12865e-07
7.55967e-07
7.2084e-07
5.04239e-07
7.63796e-07
7.42181e-07
7.27072e-07
4.8928e-07
1.83833e-07
5.1882e-08
1.83833e-07
4.84656e-08
1.29567e-07
3.51853e-08
1.29567e-07
7.55534e-07
7.30817e-07
7.09623e-07
8.62408e-07
8.87013e-07
6.82426e-07
8.43771e-07
5.32818e-07
7.41801e-07
4.03817e-07
5.15363e-07
5.34464e-07
7.36909e-07
3.38679e-07
1.83832e-07
1.83231e-07
1.84014e-07
3.51651e-08
1.29567e-07
1.29211e-07
1.29657e-07
7.30696e-07
5.77705e-07
6.46609e-07
8.30625e-07
6.91094e-07
6.75575e-07
6.5992e-07
1.33679e-07
2.17905e-07
7.59675e-07
7.60198e-07
1.32452e-07
2.1475e-07
7.59169e-07
1.84016e-07
1.83345e-07
1.84015e-07
1.29269e-07
1.29658e-07
1.29268e-07
1.29657e-07
5.19877e-08
3.51294e-08
3.51427e-08
5.17913e-08
5.17921e-08
3.52443e-08
5.17886e-08
1.43549e-07
6.91851e-07
1.57863e-07
7.60432e-07
7.65576e-07
2.18165e-07
1.00413e-07
5.36238e-08
3.51439e-08
3.88693e-08
5.18008e-08
5.17948e-08
5.73501e-08
3.63432e-08
1.04236e-07
7.63609e-07
9.30734e-08
7.64884e-07
7.65215e-07
1.044e-07
9.29601e-08
5.20419e-08
5.17905e-08
5.18277e-08
5.17856e-08
5.17914e-08
5.2078e-08
5.18141e-08
1.43753e-07
7.6338e-07
7.66255e-07
2.17213e-07
7.66973e-07
2.17724e-07
1.43755e-07
5.37214e-08
5.18002e-08
5.17885e-08
5.7648e-08
5.17941e-08
5.75084e-08
5.38127e-08
8.38301e-08
4.51854e-08
3.52661e-08
5.18116e-08
6.63949e-08
5.19863e-08
5.64178e-08
7.13496e-07
5.63107e-07
6.94369e-07
7.57836e-07
6.69823e-07
7.66406e-07
6.37832e-07
1.21305e-07
3.61753e-08
1.91122e-07
6.27638e-08
5.34099e-08
2.62967e-07
8.42429e-08
4.37304e-07
7.60874e-07
5.44608e-07
3.86933e-07
5.49811e-07
3.84092e-07
4.10943e-07
8.63742e-08
5.18103e-08
6.65595e-08
5.18254e-08
6.649e-08
5.18922e-08
8.8369e-08
7.10961e-07
6.68583e-07
6.73331e-07
7.60594e-07
6.89115e-07
7.60969e-07
7.03705e-07
1.21361e-07
6.27838e-08
5.35616e-08
2.62531e-07
5.35329e-08
2.63843e-07
1.22044e-07
7.6573e-07
6.8427e-07
8.70592e-08
7.9091e-08
7.35374e-07
1.24883e-07
6.93402e-07
7.62891e-07
6.93784e-07
6.98777e-07
7.71005e-07
7.58882e-07
7.70918e-07
6.94394e-07
7.71754e-07
1.58793e-07