/*--------------------------------*- C++ -*----------------------------------*\
| =========                 |                                                 |
| \\      /  F ield         | OpenFOAM: The Open Source CFD Toolbox           |
|  \\    /   O peration     | Version:  5.0                                   |
|   \\  /    A nd           | Web:      www.OpenFOAM.org                      |
|    \\/     M anipulation  |                                                 |
\*---------------------------------------------------------------------------*/
FoamFile
{
    version     2.0;
    format      ascii;
    class       volVectorField;
    location    "1.1";
    object      U;
}
// * * * * * * * * * * * * * * * * * * * * * * * * * * * * * * * * * * * * * //

dimensions      [0 1 -1 0 0 0 0];

internalField   nonuniform List<vector> 
9011
(
(-0.0074306 0.00757499 0.00150561)
(0.010525 0.0179334 -0.000766438)
(-0.0131133 0.00249989 0.000868325)
(0.00533115 0.00608943 0.00074799)
(-0.00195685 0.00519593 0.000157031)
(0.00300763 -0.000483517 0.000111952)
(0.000498889 -5.49123e-05 -1.2029e-06)
(0.000823 -5.48913e-05 -2.09953e-06)
(0.000794982 -3.74324e-05 -2.65788e-07)
(0.00079781 -2.32696e-05 1.00094e-07)
(0.000794523 -1.45287e-05 8.06842e-08)
(0.000792833 -9.13587e-06 5.73105e-08)
(0.000791522 -5.59147e-06 -3.5881e-09)
(0.000789515 -3.13324e-06 6.0282e-08)
(0.000787234 -1.94067e-06 4.85628e-08)
(0.000785508 -1.23331e-06 2.04989e-07)
(0.000783911 -7.61626e-07 5.32726e-08)
(0.000782129 -1.29413e-07 7.5477e-08)
(0.000780208 -2.35809e-07 5.97466e-08)
(0.000778685 -1.71917e-07 7.01157e-08)
(0.000777234 -1.53006e-07 7.26143e-08)
(0.000775605 2.01134e-08 -1.7653e-07)
(0.000774011 -1.19777e-07 4.87084e-08)
(0.000772414 -3.57026e-07 6.29642e-08)
(0.000770797 -3.0674e-08 5.05021e-08)
(0.000769321 2.72051e-07 7.48107e-08)
(0.000767798 2.23412e-07 5.39778e-08)
(0.00076632 1.26774e-07 5.19145e-08)
(0.000764622 2.24657e-07 5.78324e-08)
(0.000763077 -1.77978e-07 4.22015e-08)
(0.000761489 -4.75399e-07 7.65502e-08)
(0.000759826 -5.76189e-07 -5.24843e-08)
(0.000758415 -4.42398e-07 8.05819e-08)
(0.000757042 -2.40549e-07 3.8976e-08)
(0.000755623 3.77863e-08 4.3783e-08)
(0.000754059 1.30773e-07 6.69995e-08)
(0.000752358 1.75102e-08 2.22541e-08)
(0.000750627 1.44351e-07 2.70032e-08)
(0.000749641 3.80485e-07 5.72784e-08)
(0.000748482 1.16685e-07 4.11688e-08)
(0.000746709 -2.79444e-08 1.78831e-08)
(0.000745174 -1.33534e-07 7.29965e-08)
(0.000744406 -8.44888e-07 8.4225e-08)
(0.00074277 -6.43793e-07 -2.1271e-09)
(0.000740814 -3.76495e-07 5.589e-08)
(0.000739593 -1.58507e-07 4.51396e-08)
(0.000738367 5.41105e-09 6.00148e-08)
(0.000737195 -1.26789e-07 7.37259e-08)
(0.000735515 -3.83565e-07 4.46207e-08)
(0.00073396 -3.01465e-07 1.2821e-08)
(0.00513985 0.00102418 -0.00101146)
(0.005358 -0.0177066 -0.000239026)
(0.00637886 -0.000264861 0.000677414)
(-0.00181455 0.00723277 -7.02331e-06)
(-0.000429515 0.00432554 0.00018487)
(0.000710817 -0.00808504 -0.000255826)
(0.000452882 -6.76991e-05 3.71106e-06)
(0.000845358 -6.15223e-05 -1.68373e-06)
(0.00081005 -3.6698e-05 -1.38342e-07)
(0.000810673 -2.17144e-05 1.38644e-07)
(0.00080326 -1.27608e-05 4.66833e-08)
(0.000798585 -7.5663e-06 5.11921e-08)
(0.000794632 -4.44011e-06 5.00827e-08)
(0.00079139 -2.91639e-06 4.52269e-08)
(0.000788662 -1.72808e-06 4.71538e-08)
(0.000786411 -1.11746e-06 6.13957e-08)
(0.000784611 -4.96321e-07 3.86566e-08)
(0.000782417 -4.62937e-07 5.7193e-08)
(0.000780412 4.49355e-08 4.3238e-08)
(0.000778904 4.17461e-08 2.86745e-08)
(0.000777229 1.08842e-07 3.44562e-08)
(0.000775474 8.00069e-08 6.49102e-08)
(0.00077352 3.46884e-07 1.35149e-07)
(0.000772564 4.44684e-07 1.027e-07)
(0.000771551 2.40529e-07 -2.40752e-08)
(0.000769484 8.76727e-08 3.29344e-08)
(0.000767635 -1.49924e-08 3.87497e-08)
(0.000766167 -1.19478e-07 4.64379e-08)
(0.000764383 -4.17335e-07 6.88032e-08)
(0.000762582 -2.96171e-07 7.84618e-08)
(0.0007613 -2.71585e-07 -1.20087e-07)
(0.000759891 -1.58628e-07 2.69125e-08)
(0.00075862 2.32725e-07 1.16468e-07)
(0.000757542 2.07014e-07 1.12196e-07)
(0.000755896 -9.37657e-08 4.82414e-08)
(0.000753968 -1.02377e-07 6.59823e-08)
(0.000752561 3.28436e-08 4.42934e-08)
(0.000751352 2.47399e-07 5.19895e-09)
(0.000749538 4.53502e-07 3.51896e-08)
(0.000747777 2.07916e-07 2.37994e-08)
(0.000746441 5.90253e-08 5.62393e-08)
(0.000744831 3.07828e-09 6.53312e-08)
(0.000743446 -1.51537e-07 7.77632e-08)
(0.00074281 -7.17773e-07 6.73417e-08)
(0.000741613 -2.12708e-07 2.60041e-08)
(0.000739994 -8.93408e-08 6.5012e-08)
(0.000738395 9.87517e-08 3.63832e-08)
(0.000736772 -2.49809e-08 -4.2402e-08)
(0.000735498 -1.39032e-07 -7.29597e-08)
(0.000734541 -1.57668e-07 1.06976e-07)
(0.0542881 -0.0158281 -0.00147522)
(-0.00625198 -0.0274308 -0.00447628)
(-0.00861835 -0.0110692 0.000784206)
(0.0107353 -0.00894476 0.000388115)
(0.0133554 -0.0121319 -0.00102867)
(-0.00553534 0.000345287 0.00014012)
(0.000387738 -5.3816e-05 1.2931e-05)
(0.000928594 -5.44847e-05 -2.0287e-06)
(0.00084459 -1.96942e-05 -5.56629e-07)
(0.00082781 -1.01843e-05 6.35082e-08)
(0.000812253 -4.46121e-06 2.77607e-08)
(0.000803258 -2.00241e-06 5.29776e-08)
(0.000797348 -1.08118e-06 4.18727e-08)
(0.000792914 -6.09618e-07 4.64427e-08)
(0.000789489 -3.28586e-07 5.10104e-08)
(0.000787051 -1.8539e-07 5.2437e-08)
(0.000784732 -2.66874e-07 5.61438e-08)
(0.000782807 -4.22523e-07 6.60367e-08)
(0.000780839 -2.02887e-07 6.23815e-08)
(0.000778763 -6.39785e-08 4.2677e-08)
(0.00077728 2.46767e-08 2.74731e-07)
(0.000775899 8.40918e-08 5.14405e-08)
(0.000774464 2.15609e-07 1.05328e-07)
(0.000772277 5.40166e-07 1.81215e-08)
(0.000770348 1.17683e-07 6.64591e-08)
(0.000769 1.86657e-10 2.98578e-08)
(0.000767539 -6.99996e-08 5.74808e-08)
(0.00076582 -4.44208e-08 6.13543e-08)
(0.000764404 -8.22574e-08 8.41304e-10)
(0.000763263 3.97669e-07 2.03597e-08)
(0.000761664 4.383e-07 1.3391e-07)
(0.000760457 4.53674e-07 6.01352e-08)
(0.00075887 4.01023e-07 6.12889e-09)
(0.000756632 2.43033e-07 1.56157e-08)
(0.000755235 -6.88614e-08 9.11924e-08)
(0.000754217 -6.12218e-08 6.79758e-08)
(0.000752794 4.5864e-08 7.83999e-08)
(0.00075115 -1.71627e-08 5.32597e-08)
(0.000749588 -8.16992e-08 2.69463e-08)
(0.000747986 1.54808e-09 6.70513e-08)
(0.000746452 1.2703e-07 5.2643e-08)
(0.000744912 2.14644e-07 4.92626e-08)
(0.000743508 5.7935e-07 7.71254e-08)
(0.000742697 6.56356e-07 1.29062e-07)
(0.000741604 2.71246e-07 9.43266e-08)
(0.000739983 2.02673e-07 1.16611e-07)
(0.000738449 1.64469e-07 2.9486e-08)
(0.000736899 3.71244e-07 7.95925e-08)
(0.000735355 2.16191e-07 5.5312e-08)
(0.000734328 1.08816e-07 1.0673e-07)
(-0.0110395 -0.00208617 0.00114187)
(0.00519568 0.00494493 -0.000512431)
(0.0227634 0.00557214 0.00156468)
(-0.0174476 0.00837922 -0.00207026)
(-0.000443749 -0.00241846 0.000771781)
(0.00172723 0.00137659 -6.27062e-05)
(0.000622476 -0.000146485 5.40142e-05)
(0.00092904 1.4819e-05 -2.65511e-06)
(0.000865731 4.35816e-05 -3.121e-07)
(0.000829795 1.61323e-05 -7.51424e-08)
(0.000813522 1.05785e-05 2.00351e-08)
(0.000802823 6.0743e-06 -4.57646e-08)
(0.000796377 3.3783e-06 4.17682e-08)
(0.000792333 2.06686e-06 4.8566e-08)
(0.000789193 1.43221e-06 4.60497e-08)
(0.000786489 9.59843e-07 4.88923e-08)
(0.000784316 3.37411e-07 6.93699e-08)
(0.000782498 2.0383e-07 4.38386e-08)
(0.000780862 -1.70588e-07 3.58279e-08)
(0.00077919 -1.01145e-08 2.77733e-08)
(0.000777414 -3.46536e-08 5.64309e-08)
(0.000775712 -8.68695e-08 5.00511e-08)
(0.000774089 -3.03272e-07 1.21497e-09)
(0.00077244 -3.75043e-07 1.64071e-08)
(0.000770874 -8.95596e-08 6.23357e-09)
(0.000769249 1.17098e-07 2.12546e-08)
(0.000767579 2.5087e-07 6.13699e-08)
(0.000766152 3.79329e-07 6.2759e-08)
(0.000764933 7.24226e-07 -1.97426e-08)
(0.000763229 5.55185e-07 3.94069e-08)
(0.000761365 3.49004e-07 8.05843e-08)
(0.000759839 4.83619e-07 -4.51953e-09)
(0.000758352 1.81105e-09 4.95015e-08)
(0.000756953 1.2701e-08 5.1597e-08)
(0.000755515 2.53151e-07 5.05997e-08)
(0.000754112 1.85498e-07 9.13566e-08)
(0.000752616 -2.09366e-08 4.52241e-08)
(0.000751193 -9.35982e-08 3.82869e-08)
(0.000749562 -1.93203e-07 1.3248e-08)
(0.000748037 -1.62047e-07 1.73285e-08)
(0.000746706 1.64004e-09 4.02949e-08)
(0.000745393 1.28715e-07 2.983e-08)
(0.000743994 3.41166e-07 5.68581e-08)
(0.00074242 6.27145e-07 -1.07262e-07)
(0.000741042 2.62195e-07 4.78919e-08)
(0.000739857 1.46301e-07 3.61547e-08)
(0.000738603 1.6716e-07 7.28462e-08)
(0.000736835 3.75419e-07 4.57159e-08)
(0.000735166 1.92978e-07 4.75834e-08)
(0.000734134 2.31744e-07 1.73459e-07)
(0.0194221 -0.00255168 4.09986e-05)
(-0.0141772 -0.000845641 0.000595009)
(0.00240568 -0.00451354 0.00209175)
(0.0073012 -0.00962397 0.00374536)
(0.0180211 -0.00254969 0.000392397)
(-0.000645886 -0.00306132 -0.000631)
(0.00153592 0.000475303 1.38556e-05)
(0.000488188 8.67477e-05 -5.92554e-07)
(0.000866738 7.12696e-05 -8.05646e-07)
(0.000786515 3.09575e-05 -5.47015e-07)
(0.000799636 1.85522e-05 1.9321e-07)
(0.00079423 1.00758e-05 3.31859e-08)
(0.000792323 6.20582e-06 1.11194e-07)
(0.000790472 3.5354e-06 5.56361e-08)
(0.000788098 1.86287e-06 3.36445e-08)
(0.000785678 1.033e-06 2.82429e-08)
(0.000783784 7.92814e-07 4.96929e-08)
(0.000782172 5.4442e-07 6.15242e-08)
(0.000780572 3.98359e-07 6.80054e-08)
(0.000778934 2.23078e-07 7.82693e-08)
(0.000777186 9.12448e-08 6.36109e-08)
(0.000775566 7.17753e-08 1.31432e-07)
(0.000774106 4.25577e-08 2.81226e-07)
(0.000772547 1.08588e-08 1.00193e-07)
(0.000770965 5.36495e-08 1.0366e-07)
(0.000769425 -1.60531e-07 7.95138e-08)
(0.000767864 1.44737e-07 6.87415e-08)
(0.000766406 2.98651e-07 5.05063e-08)
(0.000764617 3.9263e-07 1.79883e-08)
(0.000762787 2.2783e-07 1.12167e-08)
(0.000761568 1.02295e-07 5.9638e-08)
(0.000760018 -1.25226e-07 2.2907e-08)
(0.000758278 1.60342e-07 4.29152e-07)
(0.000756944 1.22996e-07 5.15982e-08)
(0.00075545 1.71425e-07 7.10031e-08)
(0.000753873 7.57181e-08 4.62068e-08)
(0.000752445 3.60398e-08 5.01e-08)
(0.000750936 -2.32747e-08 7.323e-08)
(0.000749504 -1.04502e-07 4.3145e-08)
(0.000748231 -7.30489e-08 -1.28806e-07)
(0.000746815 5.85495e-08 7.07465e-08)
(0.000745334 1.22922e-07 4.08439e-07)
(0.000744127 6.61696e-08 6.71475e-09)
(0.000742594 3.90406e-08 7.43809e-08)
(0.000741 -5.80948e-08 4.78718e-08)
(0.000739863 -1.78386e-07 4.66908e-08)
(0.000738734 -4.66834e-07 3.55619e-09)
(0.00073693 -8.52871e-07 -5.78262e-09)
(0.000735169 -2.66783e-07 4.46163e-08)
(0.0007338 7.31881e-08 5.18811e-08)
(-0.000414285 -0.00156928 0.000355222)
(-0.0134607 -0.0144794 -0.000284984)
(0.0267102 -0.00909285 -1.9533e-05)
(-0.0534562 -0.0169315 -0.00287621)
(-0.00114842 2.02992e-05 -0.0106622)
(-0.00350208 0.000347228 0.000900531)
(0.00170936 0.000254587 0.000138653)
(0.000421379 5.35634e-05 -2.06149e-07)
(0.000829626 1.85844e-05 -5.5593e-07)
(0.000763976 2.08788e-05 -4.56877e-07)
(0.000787335 1.28515e-05 2.34203e-07)
(0.000787341 8.48274e-06 6.20074e-08)
(0.000788176 5.59363e-06 9.61799e-08)
(0.00078689 3.36542e-06 5.47302e-08)
(0.000786058 1.84048e-06 8.07181e-08)
(0.000785148 1.02144e-06 7.92418e-08)
(0.000783702 6.69846e-07 5.23835e-08)
(0.000782003 4.01186e-07 3.9821e-08)
(0.000780459 2.21263e-07 2.79901e-08)
(0.000778805 1.79575e-07 7.1474e-08)
(0.000777224 1.66017e-07 6.0155e-08)
(0.000775651 1.78063e-07 1.05823e-07)
(0.000774013 1.71546e-07 4.8935e-08)
(0.000772453 1.33195e-07 6.41123e-08)
(0.000770661 1.38786e-07 6.51615e-08)
(0.000769363 1.43253e-07 -5.56173e-09)
(0.000768152 -4.52187e-08 4.0176e-08)
(0.000766459 -1.42398e-07 -6.85747e-09)
(0.000764842 2.5618e-08 2.63909e-08)
(0.000762864 -2.9081e-07 -8.37853e-08)
(0.000760922 -1.72841e-07 3.1925e-08)
(0.00075991 -1.7856e-07 1.89257e-07)
(0.000758662 -1.53192e-07 1.97206e-08)
(0.000756964 -7.6463e-08 4.91948e-08)
(0.000755454 -1.24718e-07 -2.99078e-08)
(0.000753942 3.91178e-09 4.27037e-08)
(0.000752492 7.26122e-08 5.38024e-08)
(0.000751018 2.24981e-07 4.94641e-08)
(0.000749501 2.35566e-07 5.95468e-08)
(0.000748242 2.09391e-07 5.90105e-08)
(0.000746951 2.00982e-07 6.751e-08)
(0.000745402 4.14895e-07 2.57032e-07)
(0.000743889 2.95392e-07 3.84087e-08)
(0.000742265 3.47259e-09 4.18328e-08)
(0.000740771 -6.9586e-08 3.55187e-08)
(0.000739349 -2.06068e-07 4.40093e-08)
(0.000737764 -5.32416e-07 -6.57105e-08)
(0.000737089 -7.88281e-07 7.46889e-08)
(0.000736325 -5.41361e-07 1.57647e-07)
(0.000734377 -3.51767e-07 1.26135e-07)
(0.0112205 0.0346487 -0.00102015)
(-0.0293092 -0.0210966 0.00273833)
(0.00678634 -0.0107631 4.32039e-05)
(0.000897837 0.00220423 0.000484911)
(-0.00876301 0.0130426 -0.000513514)
(0.00739067 0.00538435 0.000776928)
(0.000817698 -0.000148923 -4.32789e-05)
(0.000765589 2.38637e-05 -2.83046e-06)
(0.00078756 -3.36721e-06 9.293e-08)
(0.000779429 1.04664e-05 -2.13344e-08)
(0.000784101 6.35721e-06 6.50232e-08)
(0.000785131 4.9517e-06 4.93858e-08)
(0.000785909 3.0685e-06 5.37487e-08)
(0.000785769 2.09931e-06 5.39936e-08)
(0.000785162 1.47307e-06 5.64062e-08)
(0.000784212 1.03474e-06 5.51149e-08)
(0.000783007 6.2154e-07 5.29737e-08)
(0.00078161 3.87561e-07 5.36925e-08)
(0.000780294 3.52456e-07 6.29277e-08)
(0.000778864 5.27933e-08 6.88896e-08)
(0.000777182 1.27426e-07 4.31607e-08)
(0.000775571 8.35052e-08 4.89536e-08)
(0.000774049 2.17129e-07 3.66427e-08)
(0.000772505 1.1437e-07 4.97018e-08)
(0.000770976 2.81903e-07 1.41789e-07)
(0.000769194 2.27091e-07 8.989e-08)
(0.000767507 -1.10797e-07 5.21264e-08)
(0.000766496 -3.41974e-07 4.57033e-08)
(0.000764434 -9.7283e-07 -7.16228e-08)
(0.000762542 -8.61994e-07 8.24599e-08)
(0.000761711 -5.20057e-07 2.61301e-08)
(0.000760046 -3.03897e-08 5.14515e-08)
(0.000758408 -5.11193e-08 4.06448e-08)
(0.000756982 -6.808e-08 6.82553e-08)
(0.000755551 -9.16894e-08 5.80273e-08)
(0.000754121 -3.6803e-08 5.83224e-08)
(0.000752721 -6.92244e-08 4.82015e-08)
(0.000751138 -1.18774e-07 5.17784e-08)
(0.000749483 1.445e-08 3.49614e-08)
(0.000748186 2.24377e-07 -6.35635e-08)
(0.000747071 8.81617e-09 4.00536e-08)
(0.00074545 -2.31992e-07 -2.66003e-08)
(0.000743611 -1.79849e-07 5.63399e-08)
(0.000742138 -2.31e-07 5.33912e-08)
(0.000740739 -6.54447e-08 2.0585e-08)
(0.000739287 -1.29179e-08 4.87151e-08)
(0.00073801 -4.44309e-08 5.79543e-08)
(0.000736924 1.53377e-07 5.15067e-08)
(0.000735725 -2.67075e-07 -1.90308e-08)
(0.000734914 -3.18593e-07 5.23335e-08)
(-0.00164983 0.0214566 0.000289837)
(0.0184833 -0.0156253 -8.72651e-06)
(0.0106056 0.00989677 0.000887976)
(0.00749637 0.00595336 0.00032784)
(0.00545093 0.00339646 0.00115131)
(-0.00148229 -0.00206738 -2.04137e-05)
(0.000434513 7.52502e-05 3.41672e-05)
(0.000785362 2.77549e-05 -2.07388e-06)
(0.000768431 6.25942e-06 9.0338e-10)
(0.000775968 4.26559e-06 6.45078e-08)
(0.000780436 1.7643e-06 5.50324e-08)
(0.000783226 1.05204e-06 5.19651e-08)
(0.000784605 5.98056e-07 5.27485e-08)
(0.000784892 3.30365e-07 5.16874e-08)
(0.000784724 2.69368e-07 4.86245e-08)
(0.00078408 2.07333e-07 5.19417e-08)
(0.000782891 4.18828e-08 1.22211e-07)
(0.000781665 9.14458e-08 7.23699e-08)
(0.000780039 4.71473e-08 8.90616e-08)
(0.000778522 3.59413e-08 3.70526e-08)
(0.000777262 -8.20537e-08 5.32015e-08)
(0.000775762 -5.52552e-08 5.46416e-08)
(0.000774051 -2.23702e-07 5.35971e-08)
(0.000772534 -2.10062e-07 4.8854e-08)
(0.0007708 -5.49504e-07 1.22958e-07)
(0.000768872 -3.9715e-07 5.21444e-08)
(0.000767441 -1.5606e-07 3.94619e-08)
(0.000765386 -1.89485e-07 2.08562e-07)
(0.000764198 -4.15168e-07 1.5364e-07)
(0.000763436 1.53593e-07 7.26231e-08)
(0.000761967 2.65051e-07 9.3825e-08)
(0.000760499 1.64496e-08 4.73249e-08)
(0.000758616 6.82323e-08 4.31521e-08)
(0.000756915 1.40122e-07 4.90974e-08)
(0.000755494 8.8604e-08 6.20088e-08)
(0.000753971 -3.64956e-08 6.83113e-08)
(0.00075239 -1.28588e-07 5.51362e-08)
(0.000751123 -2.68075e-07 5.40826e-08)
(0.000749929 -5.73982e-08 4.28572e-08)
(0.000748234 -4.90316e-08 5.35216e-08)
(0.00074638 -1.27072e-07 2.11267e-08)
(0.000745168 -2.29336e-07 5.98912e-08)
(0.000743892 -1.92396e-07 5.83482e-08)
(0.00074241 -1.03535e-07 4.48329e-08)
(0.000741045 -7.41753e-08 6.37441e-08)
(0.000739377 8.75615e-08 4.50792e-08)
(0.000737973 4.39391e-07 4.11316e-08)
(0.000736812 3.41565e-07 5.21366e-08)
(0.000735744 2.10877e-07 9.1761e-08)
(0.000735108 4.92553e-09 -7.99964e-09)
(-0.0255476 -0.00634427 0.000482813)
(-0.0023796 -0.000913115 0.000470232)
(0.00681746 0.00329897 0.000566681)
(-0.0559915 -0.0116879 0.000678837)
(-0.0157329 -0.0175241 0.00276974)
(0.0104305 0.00121819 -0.000401565)
(0.000200797 -4.36515e-06 -8.29177e-07)
(0.000744368 -9.44853e-06 -2.37039e-06)
(0.000757918 -1.07135e-05 -1.11336e-07)
(0.000773818 -7.96851e-06 5.84641e-08)
(0.000780089 -5.91952e-06 3.34501e-08)
(0.000783678 -3.88921e-06 4.06837e-08)
(0.000785009 -2.60168e-06 3.70236e-08)
(0.00078536 -1.89185e-06 5.20909e-08)
(0.000785009 -1.06669e-06 4.06413e-08)
(0.000783928 -6.49038e-07 1.03555e-07)
(0.000782863 -3.85853e-07 8.8265e-08)
(0.000781616 -3.80046e-07 6.85546e-08)
(0.000780224 -3.12119e-07 5.81492e-08)
(0.000778703 -3.99753e-08 8.16979e-08)
(0.000777069 -9.03421e-08 4.99617e-08)
(0.000775396 -2.59486e-07 7.1503e-08)
(0.000773857 -3.55519e-07 4.73785e-08)
(0.000772101 -3.08369e-07 5.57149e-08)
(0.000770746 -4.22561e-07 -2.98207e-08)
(0.00076969 -3.38798e-07 6.44137e-08)
(0.000767769 -1.87352e-07 2.47777e-08)
(0.000766174 -3.90308e-08 5.37312e-08)
(0.000764864 4.378e-07 2.99064e-08)
(0.000763392 4.14473e-07 6.48768e-09)
(0.000761538 4.5486e-07 3.78102e-09)
(0.000759798 2.7813e-07 1.32875e-07)
(0.000758563 -6.78478e-08 -3.43139e-07)
(0.000757006 -5.74003e-08 5.89019e-08)
(0.00075533 -4.86605e-08 4.32602e-08)
(0.00075385 -1.08467e-07 2.80257e-08)
(0.000752433 -3.01896e-08 4.57157e-08)
(0.000751228 1.48611e-08 5.01783e-08)
(0.000749758 -2.08733e-07 1.04366e-07)
(0.000748099 -2.69561e-07 3.95296e-08)
(0.000746846 -1.66451e-07 5.70511e-08)
(0.00074537 2.79596e-08 2.19676e-08)
(0.000743771 3.79217e-07 3.93095e-08)
(0.000742287 1.79396e-07 3.73707e-08)
(0.000740979 2.28789e-07 7.03998e-08)
(0.000739928 1.47138e-07 4.91451e-08)
(0.000738325 3.41385e-07 3.12431e-08)
(0.000736636 4.5504e-07 3.88647e-08)
(0.000735302 7.01231e-07 -6.08337e-08)
(0.000734642 4.38054e-07 8.33978e-08)
(-0.0210058 -0.0184018 0.000201502)
(0.0127216 -0.0121024 0.000554726)
(-0.0373244 -0.0197146 -0.0026039)
(-0.0178833 0.0192436 0.00184899)
(-0.0104471 0.000344667 0.000844235)
(-0.000204069 -0.00332518 -0.000143721)
(0.000325308 -9.3555e-05 -1.53374e-06)
(0.000763572 -4.94617e-05 -2.12342e-06)
(0.000769911 -3.15857e-05 -2.05588e-07)
(0.000782009 -1.9561e-05 7.32576e-08)
(0.000785566 -1.24336e-05 1.53936e-08)
(0.000787393 -8.04279e-06 5.26588e-08)
(0.000787115 -5.12988e-06 6.3986e-08)
(0.000786819 -2.84626e-06 6.61423e-08)
(0.000786283 -1.81399e-06 5.18464e-08)
(0.000784934 -1.07116e-06 6.84342e-08)
(0.000783229 -5.52819e-07 4.57399e-08)
(0.000781759 -2.33525e-07 9.76666e-08)
(0.000780465 -1.42758e-07 7.48008e-08)
(0.0007788 -2.47148e-07 4.82382e-08)
(0.000776989 -1.58152e-07 2.22932e-08)
(0.000775433 -1.15945e-07 7.31102e-08)
(0.000773992 8.54406e-09 5.81507e-08)
(0.000772453 7.22562e-09 4.56029e-08)
(0.000770766 2.59748e-07 6.75981e-08)
(0.000769169 4.91264e-08 5.99726e-08)
(0.000767819 -3.45997e-08 2.70985e-08)
(0.000766168 7.20315e-08 4.66661e-08)
(0.000764763 8.26594e-08 7.33548e-08)
(0.000763455 -1.21798e-07 7.06166e-08)
(0.000761793 -1.69629e-07 8.67953e-08)
(0.000759845 -1.6288e-07 -1.63396e-08)
(0.000758197 -1.49576e-07 -7.10382e-08)
(0.00075694 -2.83374e-07 3.87692e-08)
(0.000755432 -1.23271e-07 2.71936e-08)
(0.000753995 -5.05371e-08 6.66961e-08)
(0.000752545 4.40687e-08 9.04457e-08)
(0.000750901 -1.10707e-07 4.68563e-08)
(0.000749576 -4.38466e-07 5.14072e-08)
(0.00074829 -2.06228e-07 5.71052e-08)
(0.000746755 -1.34575e-07 6.82474e-08)
(0.00074585 -3.17353e-07 8.28649e-08)
(0.000744081 -2.92625e-07 2.72361e-08)
(0.00074222 1.9069e-07 1.067e-07)
(0.000741003 9.42735e-08 1.58138e-08)
(0.000739515 6.15463e-08 4.2716e-08)
(0.000738353 -1.72887e-07 9.52358e-08)
(0.000737256 9.62781e-08 3.95036e-08)
(0.000735708 2.76538e-07 -1.79362e-08)
(0.000733687 2.72766e-07 6.4572e-08)
(0.0418522 -0.00560391 0.00329598)
(0.00808693 0.0207896 -0.000706336)
(0.0043902 -0.0023167 0.00419082)
(0.0100334 0.00735098 -0.000134336)
(0.00889316 -0.00355381 0.00117205)
(0.000928624 -0.00848819 2.67193e-06)
(0.00149388 -7.34935e-05 -8.55794e-08)
(0.00137068 -6.55539e-05 3.56202e-07)
(0.00132411 -4.69255e-05 3.29923e-07)
(0.00132959 -2.95204e-05 3.44213e-07)
(0.0013243 -1.86104e-05 3.7814e-07)
(0.00132155 -1.18334e-05 2.81172e-07)
(0.00131939 -7.26963e-06 2.556e-07)
(0.00131613 -4.02002e-06 3.65256e-07)
(0.00131242 -2.48984e-06 3.41441e-07)
(0.00130953 -1.59349e-06 5.10751e-07)
(0.00130684 -1.01632e-06 3.33034e-07)
(0.00130397 -1.28776e-07 3.44258e-07)
(0.00130078 -3.38088e-07 3.80593e-07)
(0.00129821 -2.60794e-07 3.02355e-07)
(0.00129583 -2.0407e-07 3.53031e-07)
(0.00129313 1.31903e-07 9.16743e-08)
(0.00129052 -8.87367e-08 3.21013e-07)
(0.00128789 -4.69333e-07 2.89669e-07)
(0.00128521 7.51506e-08 2.80722e-07)
(0.00128275 5.42153e-07 3.52883e-07)
(0.00128026 4.23522e-07 2.69538e-07)
(0.00127791 2.07218e-07 3.27598e-07)
(0.00127499 3.45557e-07 3.35524e-07)
(0.00127231 -3.74743e-07 3.66988e-07)
(0.00126974 -9.10101e-07 3.57925e-07)
(0.00126694 -9.84812e-07 1.1372e-07)
(0.00126467 -7.15575e-07 3.32703e-07)
(0.00126252 -3.71451e-07 2.65069e-07)
(0.00126015 1.14548e-07 3.08283e-07)
(0.00125752 2.78755e-07 3.07913e-07)
(0.00125464 7.76394e-08 2.77042e-07)
(0.00125175 2.78358e-07 2.21799e-07)
(0.00125008 6.96009e-07 2.74897e-07)
(0.00124821 2.85783e-07 3.19206e-07)
(0.00124535 -7.84063e-09 2.57713e-07)
(0.00124276 -1.83594e-07 3.39017e-07)
(0.00124146 -1.29096e-06 3.46018e-07)
(0.00123875 -9.77166e-07 1.88926e-07)
(0.00123559 -5.95289e-07 3.33036e-07)
(0.00123351 -2.98776e-07 3.3083e-07)
(0.00123138 -4.95267e-08 2.83962e-07)
(0.00122945 -2.79695e-07 3.42683e-07)
(0.00122664 -6.38045e-07 3.40416e-07)
(0.00122399 -4.95638e-07 2.28481e-07)
(0.00359009 -0.0035583 -0.00593848)
(0.00254248 0.012028 -0.00285639)
(-0.00238279 -0.00385151 0.000537211)
(0.00133399 -0.00427461 0.000830172)
(0.00112078 -0.00400985 0.00133508)
(0.00218004 0.000673306 -0.0041001)
(0.00128127 -0.000148203 1.98869e-05)
(0.00139382 -8.48409e-05 3.53475e-07)
(0.00134044 -4.99037e-05 3.3307e-07)
(0.00134535 -2.91565e-05 3.36771e-07)
(0.00133536 -1.69062e-05 3.34461e-07)
(0.001329 -9.87895e-06 3.26278e-07)
(0.00132327 -5.72083e-06 3.33299e-07)
(0.00131842 -3.79949e-06 3.30434e-07)
(0.00131425 -2.24617e-06 3.3e-07)
(0.0013107 -1.49476e-06 2.97793e-07)
(0.00130781 -6.16187e-07 3.22024e-07)
(0.00130431 -6.28371e-07 4.2928e-07)
(0.00130107 8.60862e-08 3.29734e-07)
(0.00129858 1.07703e-07 2.9961e-07)
(0.00129586 2.56057e-07 3.27064e-07)
(0.00129296 1.9118e-07 3.58025e-07)
(0.00128974 6.52941e-07 4.79104e-07)
(0.00128814 7.73084e-07 4.35003e-07)
(0.00128639 4.64805e-07 1.27858e-07)
(0.00128295 1.9081e-07 2.8244e-07)
(0.00127991 2.32191e-08 3.99215e-07)
(0.00127748 -2.15304e-07 3.2035e-07)
(0.00127453 -8.25289e-07 2.94065e-07)
(0.00127153 -5.52602e-07 3.42084e-07)
(0.00126949 -4.97266e-07 5.1447e-08)
(0.00126725 -2.9418e-07 2.72131e-07)
(0.00126507 4.72478e-07 4.49149e-07)
(0.00126325 4.3046e-07 4.35499e-07)
(0.00126056 -8.27305e-08 3.28175e-07)
(0.00125736 -1.3748e-07 3.63897e-07)
(0.00125499 7.84954e-08 3.07499e-07)
(0.00125298 4.35666e-07 6.03602e-08)
(0.00124999 8.05235e-07 3.42283e-07)
(0.00124705 4.44451e-07 2.94011e-07)
(0.00124481 1.14202e-07 3.24912e-07)
(0.00124216 -4.81948e-08 3.55541e-07)
(0.00123989 -3.26308e-07 2.9413e-07)
(0.00123878 -1.15808e-06 3.9136e-07)
(0.00123674 -3.64148e-07 3.18782e-07)
(0.00123409 -2.18192e-07 3.20615e-07)
(0.0012315 1.44476e-07 2.95012e-07)
(0.00122883 -6.54978e-08 1.96432e-07)
(0.00122666 -2.7816e-07 1.04455e-07)
(0.00122504 -2.90746e-07 3.96112e-07)
(0.0075382 0.0131038 -0.0025)
(-0.0243562 -0.0556232 0.0157181)
(0.0244131 -0.0186207 0.0565954)
(0.0054715 0.00608766 0.0022452)
(-0.00821774 0.000662876 -0.00574602)
(-0.00900857 0.00169303 0.00137783)
(0.00126259 -0.00019525 9.03818e-06)
(0.00152571 -8.45047e-05 3.66436e-07)
(0.00139323 -2.89958e-05 2.41442e-07)
(0.0013709 -1.45935e-05 3.43154e-07)
(0.00134843 -5.96108e-06 3.40284e-07)
(0.00133555 -2.46233e-06 3.34357e-07)
(0.001327 -1.23835e-06 3.32353e-07)
(0.00132048 -6.58272e-07 3.32058e-07)
(0.0013153 -3.35423e-07 3.30906e-07)
(0.00131157 -1.93686e-07 3.30253e-07)
(0.00130793 -3.50982e-07 3.04177e-07)
(0.00130484 -6.28668e-07 2.28052e-07)
(0.0013017 -3.48792e-07 3.62699e-07)
(0.00129842 -1.23538e-07 3.14341e-07)
(0.00129594 5.48278e-09 5.7885e-07)
(0.00129362 1.03646e-07 3.24421e-07)
(0.00129124 3.38462e-07 3.81797e-07)
(0.00128765 8.5411e-07 1.76736e-07)
(0.00128448 1.38145e-07 3.34952e-07)
(0.00128219 1.43626e-08 2.91564e-07)
(0.00127975 -8.00509e-08 3.3887e-07)
(0.00127685 -1.89393e-08 3.13552e-07)
(0.00127458 -8.7918e-08 2.13209e-07)
(0.00127272 7.44265e-07 2.31661e-07)
(0.00127007 8.77872e-07 3.91212e-07)
(0.00126815 8.44708e-07 4.44153e-07)
(0.00126558 6.83662e-07 2.2465e-07)
(0.00126182 4.49997e-07 1.74073e-07)
(0.00125943 -8.95789e-08 3.53657e-07)
(0.00125772 -9.85928e-08 2.91057e-07)
(0.00125535 8.50981e-08 2.89836e-07)
(0.00125266 -6.68699e-09 3.43869e-07)
(0.00125008 -1.06232e-07 2.97216e-07)
(0.00124734 1.21983e-08 3.38359e-07)
(0.00124473 1.87015e-07 2.44387e-07)
(0.00124222 3.25902e-07 2.37807e-07)
(0.00124007 1.0034e-06 4.95726e-07)
(0.00123871 1.07669e-06 3.27216e-07)
(0.00123677 5.23836e-07 3.13497e-07)
(0.00123415 3.97339e-07 3.8907e-07)
(0.00123158 3.29292e-07 2.97856e-07)
(0.00122892 6.04875e-07 3.24378e-07)
(0.00122637 3.45045e-07 3.19396e-07)
(0.0012247 1.79665e-07 4.76044e-07)
(-0.0279633 0.0166425 0.00371765)
(-0.0111034 0.00516948 -0.00244343)
(0.098244 0.0124006 0.0356839)
(0.0105253 0.0146152 -0.0208513)
(-0.0057223 -0.0106607 -0.000221617)
(0.00262345 0.00183939 -0.000366668)
(0.00161767 0.000271529 0.000102025)
(0.00152601 1.63431e-05 -3.05888e-08)
(0.00142828 6.64576e-05 3.78014e-07)
(0.00137426 2.35252e-05 2.44231e-07)
(0.00135057 1.56075e-05 3.44387e-07)
(0.00133491 8.89852e-06 2.54335e-07)
(0.00132553 4.91626e-06 3.322e-07)
(0.00131955 3.01347e-06 3.32005e-07)
(0.00131483 2.09916e-06 3.30605e-07)
(0.00131068 1.4179e-06 3.28571e-07)
(0.00130727 4.77596e-07 3.46442e-07)
(0.00130432 2.9542e-07 2.78989e-07)
(0.00130171 -2.92536e-07 3.15042e-07)
(0.00129903 -5.53088e-08 2.93312e-07)
(0.00129615 -1.29675e-07 2.28371e-07)
(0.00129338 -1.8875e-07 3.2434e-07)
(0.00129067 -5.29231e-07 2.73847e-07)
(0.00128789 -6.09962e-07 5.78868e-08)
(0.00128533 -1.78597e-07 2.82111e-07)
(0.00128268 1.74099e-07 2.43417e-07)
(0.00127987 4.24915e-07 3.83211e-07)
(0.00127747 6.97873e-07 3.9618e-07)
(0.00127548 1.33722e-06 1.77471e-07)
(0.00127273 1.04452e-06 2.94259e-07)
(0.00126961 7.54969e-07 3.67084e-07)
(0.001267 9.64711e-07 2.68222e-07)
(0.00126457 1.47852e-07 3.03049e-07)
(0.00126228 4.17042e-08 3.16939e-07)
(0.00125987 4.05194e-07 2.78667e-07)
(0.00125758 2.86378e-07 6.2222e-07)
(0.0012551 -4.4196e-08 2.98242e-07)
(0.00125274 -1.66135e-07 2.6148e-07)
(0.00125001 -3.94028e-07 1.83329e-07)
(0.00124742 -3.52468e-07 2.94934e-07)
(0.0012452 1.16843e-08 2.99717e-07)
(0.00124317 3.35728e-07 2.99477e-07)
(0.00124082 6.64659e-07 4.94139e-07)
(0.00123818 1.03395e-06 -5.54716e-08)
(0.00123589 4.20904e-07 3.14974e-07)
(0.00123384 2.28253e-07 3.20565e-07)
(0.00123175 2.24976e-07 3.49205e-07)
(0.00122884 5.45063e-07 2.86601e-07)
(0.00122612 3.21359e-07 3.60435e-07)
(0.00122438 3.91533e-07 5.46173e-07)
(-0.0337906 0.00286365 -0.00963214)
(-0.0116806 -0.0185603 -0.0259568)
(0.00438772 -0.045838 0.0224182)
(-0.019034 -0.012763 0.0170199)
(-0.0167839 -0.0212026 -0.00750484)
(-0.0211573 0.00881197 0.00230764)
(0.000859574 -0.000190687 3.27178e-05)
(0.00143167 0.000233715 2.86107e-07)
(0.0014377 0.000106238 5.42823e-07)
(0.00130733 4.42678e-05 2.87866e-07)
(0.00133009 2.64499e-05 3.5138e-07)
(0.00132215 1.41159e-05 3.3715e-07)
(0.00131963 8.69868e-06 3.15699e-07)
(0.00131695 4.89604e-06 3.31192e-07)
(0.0013133 2.54043e-06 3.54711e-07)
(0.00130953 1.39534e-06 3.33224e-07)
(0.00130652 1.09558e-06 3.28202e-07)
(0.00130388 7.47088e-07 3.36559e-07)
(0.00130126 5.93708e-07 3.21436e-07)
(0.00129862 3.37031e-07 3.59768e-07)
(0.00129577 1.3845e-07 3.60468e-07)
(0.00129312 1.21689e-07 7.80832e-07)
(0.00129072 5.53744e-08 5.93942e-07)
(0.0012881 3.82135e-09 3.70252e-07)
(0.00128546 1.22275e-07 2.85993e-07)
(0.00128294 -2.91251e-07 3.65028e-07)
(0.0012804 2.18485e-07 3.74937e-07)
(0.00127798 4.73865e-07 3.08048e-07)
(0.001275 6.7123e-07 2.85965e-07)
(0.00127198 4.0455e-07 3.11616e-07)
(0.00126996 2.10418e-07 3.4545e-07)
(0.00126739 -1.79883e-07 2.56652e-07)
(0.00126442 3.1971e-07 7.71534e-07)
(0.00126214 2.25859e-07 3.20492e-07)
(0.00125974 3.00127e-07 3.39639e-07)
(0.00125715 1.17419e-07 3.13213e-07)
(0.00125479 2.17078e-08 3.39621e-07)
(0.00125222 -8.53992e-08 2.80745e-07)
(0.00124985 -2.297e-07 3.10094e-07)
(0.00124785 -1.54622e-07 3.06166e-08)
(0.00124559 1.2052e-07 4.49979e-07)
(0.00124303 2.81541e-07 1.07395e-06)
(0.00124094 1.12416e-07 1.17382e-07)
(0.0012384 4.41116e-08 2.55056e-07)
(0.00123576 -1.83664e-07 3.39848e-07)
(0.0012339 -3.30395e-07 3.07033e-07)
(0.00123197 -8.06409e-07 8.34955e-08)
(0.00122904 -1.36228e-06 2.28304e-07)
(0.00122617 -4.4253e-07 3.48713e-07)
(0.00122381 1.27838e-07 3.32877e-07)
(0.003036 0.0249004 0.00140318)
(0.0242572 -0.0220608 -0.00515203)
(0.00650824 -0.0142727 0.00711472)
(-0.00246722 -0.000986577 -0.0178486)
(0.0393213 0.00823625 0.0542997)
(0.0277107 0.0031804 0.00567655)
(0.000968972 0.00163146 -0.000165617)
(0.0012582 0.000130576 8.39931e-07)
(0.00138428 1.97806e-05 4.89165e-07)
(0.00127484 2.72435e-05 2.64485e-07)
(0.00131279 1.66081e-05 2.87634e-07)
(0.00131267 1.10925e-05 3.01995e-07)
(0.00131398 7.41622e-06 3.45856e-07)
(0.00131184 4.4392e-06 3.29531e-07)
(0.00131045 2.39547e-06 3.28965e-07)
(0.00130887 1.30283e-06 3.43138e-07)
(0.00130645 8.65654e-07 3.28111e-07)
(0.00130369 5.26249e-07 3.02133e-07)
(0.00130119 2.95936e-07 2.93322e-07)
(0.00129846 2.86624e-07 3.43858e-07)
(0.00129587 2.79823e-07 3.37482e-07)
(0.00129328 3.11166e-07 6.35702e-07)
(0.00129053 2.81592e-07 3.12787e-07)
(0.00128797 1.98135e-07 3.50527e-07)
(0.00128497 2.17432e-07 3.60761e-07)