/*--------------------------------*- C++ -*----------------------------------*\
| =========                 |                                                 |
| \\      /  F ield         | OpenFOAM: The Open Source CFD Toolbox           |
|  \\    /   O peration     | Version:  5.0                                   |
|   \\  /    A nd           | Web:      www.OpenFOAM.org                      |
|    \\/     M anipulation  |                                                 |
\*---------------------------------------------------------------------------*/
FoamFile
{
    version     2.0;
    format      ascii;
    class       volVectorField;
    location    "1.1";
    object      U_0;
}
// * * * * * * * * * * * * * * * * * * * * * * * * * * * * * * * * * * * * * //

dimensions      [0 1 -1 0 0 0 0];

internalField   nonuniform List<vector> 
9011
(
(-0.00686529 0.00699006 0.00147362)
(0.0132142 0.0167908 -0.000583685)
(-0.011322 0.00164487 0.000942391)
(0.00391437 0.00677351 0.000476019)
(-0.00332965 0.00523334 0.000240739)
(0.00272438 6.58188e-05 8.45549e-05)
(0.000478504 0.000113994 -1.43746e-06)
(0.00080732 7.68098e-05 -1.96571e-06)
(0.000786244 4.124e-05 -2.41674e-07)
(0.000794649 2.38576e-05 1.08835e-07)
(0.0007933 1.3944e-05 7.86639e-08)
(0.000792593 8.18563e-06 6.52828e-08)
(0.000791597 4.93091e-06 -5.97068e-09)
(0.000790211 3.01249e-06 1.31421e-08)
(0.000788462 1.88412e-06 4.20726e-08)
(0.00078681 1.11516e-06 3.48522e-08)
(0.000785283 5.37702e-07 5.03811e-08)
(0.000783916 3.08415e-07 6.0286e-08)
(0.000782039 4.37894e-10 6.28254e-08)
(0.00078026 -2.68055e-08 8.66545e-08)
(0.000779119 -6.37551e-08 4.14245e-08)
(0.000777642 1.17811e-07 4.36169e-08)
(0.000776233 3.25541e-08 6.17032e-08)
(0.00077479 1.73303e-08 2.12152e-07)
(0.000773203 2.15566e-07 5.62891e-08)
(0.000771764 2.31905e-07 6.91764e-08)
(0.000770409 1.79255e-07 3.49742e-08)
(0.000769321 7.43696e-08 4.73949e-08)
(0.000767368 1.93355e-07 5.28902e-08)
(0.000765461 -2.62695e-07 6.5326e-08)
(0.000764327 -6.55474e-07 -6.15562e-08)
(0.000762729 -5.68569e-07 5.02433e-09)
(0.000761564 -4.089e-07 8.22988e-08)
(0.000760468 -3.02245e-07 4.94117e-08)
(0.000759001 -1.84249e-08 4.35931e-08)
(0.000757544 1.79228e-07 4.38161e-08)
(0.000755852 1.8008e-07 1.48305e-07)
(0.000754347 1.6604e-07 4.42168e-08)
(0.000753072 3.75087e-07 -2.52324e-08)
(0.00075206 3.98993e-07 9.30081e-08)
(0.000750885 7.68943e-08 2.65398e-08)
(0.000749305 3.76954e-08 7.28906e-08)
(0.000748119 -2.59624e-07 9.20593e-08)
(0.000746743 -2.47211e-07 2.37287e-07)
(0.000745256 -8.67534e-08 4.22709e-08)
(0.000743844 -5.41237e-08 5.31225e-08)
(0.000742453 -1.26077e-07 4.34092e-08)
(0.000741221 -4.23377e-07 4.07565e-08)
(0.000739658 -3.48144e-07 -1.16526e-08)
(0.000738 -2.38256e-07 5.92109e-08)
(0.00305495 0.00117094 -0.000798917)
(0.00602097 -0.0134962 -0.000121308)
(0.00657858 0.000507554 0.000416139)
(-0.00186169 0.00735252 -4.17276e-05)
(-0.000989446 0.00475424 0.000186158)
(0.000352569 -0.00850518 -0.000252545)
(0.000344423 3.0441e-05 3.14764e-06)
(0.000758132 2.6053e-05 -1.46038e-06)
(0.000756483 1.82888e-05 -8.69203e-08)
(0.000779041 1.2553e-05 1.57395e-07)
(0.000784537 8.49303e-06 5.04091e-08)
(0.000787623 5.68961e-06 5.15432e-08)
(0.000788311 3.71099e-06 4.7259e-08)
(0.000788045 2.29177e-06 4.53214e-08)
(0.000787288 1.39777e-06 4.53433e-08)
(0.000786055 8.25351e-07 8.54778e-08)
(0.000784771 6.33841e-07 3.97983e-08)
(0.000783339 3.96272e-07 6.88784e-08)
(0.000782008 1.55209e-07 5.41421e-08)
(0.000780748 2.52264e-07 2.41997e-08)
(0.00077918 3.52394e-07 -1.75525e-07)
(0.000777553 2.53717e-07 5.6949e-08)
(0.000775966 4.42731e-07 3.61305e-07)
(0.000774833 2.7457e-07 1.41318e-07)
(0.000773401 1.88413e-07 6.11711e-08)
(0.000771696 3.2173e-08 1.54511e-07)
(0.000770202 -4.7949e-08 3.29348e-08)
(0.000768771 -2.15575e-07 4.70343e-08)
(0.000767087 -8.08361e-07 5.46573e-08)
(0.000765296 -4.69456e-07 7.51251e-08)
(0.000764175 -4.44555e-07 1.38162e-07)
(0.000763131 -2.76325e-07 4.67055e-08)
(0.000761759 2.79152e-07 1.8903e-07)
(0.000760578 2.81629e-07 2.54944e-07)
(0.000759213 1.15061e-07 4.75072e-08)
(0.000757566 -4.74092e-10 4.13705e-08)
(0.000756171 1.33075e-08 3.94649e-08)
(0.000754838 1.70933e-07 5.24359e-08)
(0.000753335 3.45938e-07 2.59876e-08)
(0.000751739 4.54181e-07 9.80847e-09)
(0.000750412 9.62609e-08 5.7175e-08)
(0.000749003 -2.92497e-07 5.84117e-08)
(0.000747667 -5.78847e-07 2.38551e-08)
(0.000746723 -3.61661e-07 8.33162e-08)
(0.000745354 -1.27334e-07 6.45161e-08)
(0.000743848 -1.64493e-07 4.93593e-08)
(0.000742475 -3.33063e-08 5.53324e-08)
(0.000741093 -1.68785e-07 4.03443e-08)
(0.000739621 -2.93993e-07 7.72888e-08)
(0.000738722 -2.33269e-07 2.47066e-08)
(0.0367095 -0.0154898 -0.00196257)
(0.0102576 -0.0392527 -0.0142232)
(-0.00820272 -0.00760824 0.000190906)
(0.0101057 -0.00638094 0.000179408)
(0.013246 -0.0119513 -0.00107334)
(-0.00567005 0.000520101 0.000140642)
(0.000301345 -3.04235e-05 1.27188e-05)
(0.000806741 -3.02388e-05 -1.99444e-06)
(0.000768881 -4.52771e-06 -2.01922e-07)
(0.000782337 -5.25368e-07 6.04094e-08)
(0.000784677 1.69553e-06 4.22006e-08)
(0.000786586 1.73834e-06 3.59067e-08)
(0.000787331 1.36087e-06 3.71042e-08)
(0.000787308 9.61222e-07 4.42801e-08)
(0.000786623 6.02876e-07 4.81934e-08)
(0.00078585 3.2121e-07 5.12407e-08)
(0.000784744 1.83502e-07 4.88082e-08)
(0.000783316 1.20724e-08 6.79162e-08)
(0.000781857 1.98148e-09 1.20773e-07)
(0.000780504 2.67969e-08 4.179e-08)
(0.000779118 -5.90151e-08 2.85926e-08)
(0.000777751 1.55508e-10 4.52678e-08)
(0.000776256 1.35673e-07 6.19661e-08)
(0.000774468 1.43896e-07 -4.47605e-08)
(0.000772897 -4.77809e-08 4.59203e-08)
(0.000771466 5.94817e-08 3.07286e-08)
(0.000770099 -4.00436e-08 3.32881e-08)
(0.000768373 -2.8982e-09 5.56964e-08)
(0.000767055 -1.6182e-08 -5.80506e-08)
(0.00076592 5.06064e-07 2.07777e-08)
(0.000764571 8.0444e-07 9.79244e-08)
(0.000763634 7.53719e-07 6.84579e-08)
(0.00076226 4.72226e-07 3.05328e-07)
(0.00076026 4.35349e-07 1.10384e-07)
(0.000758646 1.58371e-07 9.03501e-08)
(0.000757416 1.3494e-07 5.20909e-08)
(0.000756065 9.82228e-08 2.2488e-07)
(0.00075476 5.02789e-08 5.37981e-08)
(0.000753422 1.35446e-07 4.67369e-08)
(0.000751744 5.94471e-08 1.3379e-07)
(0.00074995 9.25778e-09 9.33023e-08)
(0.000748463 -1.02327e-07 4.07377e-08)
(0.000748037 5.04421e-07 3.46622e-08)
(0.00074731 1.98059e-07 8.22136e-08)
(0.000745506 -2.04614e-08 3.44984e-08)
(0.000743963 4.44892e-08 5.978e-08)
(0.000742449 1.56518e-07 3.5654e-08)
(0.000740896 9.55806e-08 5.86262e-08)
(0.000739584 9.63505e-08 6.24446e-08)
(0.000738656 7.8086e-08 6.81981e-08)
(-0.0130857 7.39857e-05 0.0016409)
(0.00726204 0.00209123 8.84817e-06)
(0.01791 0.000962057 -0.000231887)
(-0.0163533 0.00469233 -0.00239249)
(-0.000786252 -0.00163608 0.000694644)
(0.00162015 0.00202452 -7.44019e-05)
(0.000505788 -0.000181681 5.20042e-05)
(0.00082313 -3.59474e-05 -3.01269e-06)
(0.000793719 1.04794e-05 -3.39205e-07)
(0.000786851 -2.56222e-06 -1.10797e-07)
(0.000787371 -4.90314e-07 8.07087e-08)
(0.0007872 -6.56174e-07 2.04307e-08)
(0.000787333 -5.42171e-07 4.16755e-08)
(0.000787093 -3.30462e-07 4.59771e-08)
(0.000786485 -1.92456e-07 4.68873e-08)
(0.000785529 -8.71836e-08 4.86642e-08)
(0.000784384 -1.84394e-07 5.81708e-08)
(0.000783112 -1.94549e-07 6.68924e-08)
(0.000782027 -2.34645e-07 3.40267e-08)
(0.000780673 -1.24393e-07 2.95118e-08)
(0.000779147 -1.5838e-07 9.35264e-08)
(0.000777796 -2.22601e-07 4.83322e-08)
(0.000776144 -2.90968e-07 -2.70715e-08)
(0.000774603 -1.44536e-07 5.75362e-08)
(0.000773294 -2.43546e-08 5.19568e-08)
(0.000771706 1.13497e-07 3.54751e-08)
(0.000770123 2.70978e-07 6.52695e-08)
(0.000768801 3.87955e-07 8.22128e-08)
(0.00076772 8.59509e-07 8.12406e-08)
(0.000766318 7.16525e-07 2.55314e-08)
(0.000764478 8.18161e-07 1.47355e-08)
(0.00076271 7.90577e-07 -2.17783e-09)
(0.000761357 2.80854e-07 3.65584e-08)
(0.000760183 1.28776e-08 5.03613e-08)
(0.000758836 1.25908e-07 6.07956e-08)
(0.000757491 9.10237e-08 8.09612e-08)
(0.000756065 2.98988e-08 6.82538e-08)
(0.000754884 -3.36052e-08 5.22422e-08)
(0.000753346 -3.58313e-07 -9.74146e-09)
(0.000751581 -3.04499e-07 1.88612e-08)
(0.000750209 1.47139e-08 -3.2805e-08)
(0.00074962 4.5126e-07 4.17763e-08)
(0.000748039 6.3931e-07 5.66806e-08)
(0.000746063 3.14963e-07 1.2594e-08)
(0.000745159 2.8756e-08 5.80748e-08)
(0.000744067 -1.52057e-08 5.58688e-08)
(0.000742536 -1.57305e-09 7.09865e-08)
(0.000741015 9.41429e-08 2.1023e-08)
(0.000739596 2.40362e-07 4.0674e-08)
(0.000738504 2.21098e-07 4.05471e-08)
(0.0165897 -0.00184617 0.00242743)
(-0.0105942 0.00573345 0.000157603)
(-0.00951495 0.00879072 0.00120362)
(0.0136175 -0.000186687 0.00166348)
(0.00944648 0.0102895 -0.00162938)
(-0.00248023 -0.00378743 -0.000388897)
(0.00143698 0.000243096 1.04303e-05)
(0.000450295 1.93178e-05 -1.20514e-06)
(0.000834666 8.9929e-06 -7.53025e-07)
(0.000768657 -6.23527e-06 -4.50091e-07)
(0.000787059 -4.19071e-06 1.96233e-07)
(0.000786518 -3.67308e-06 2.56422e-08)
(0.000787737 -2.3414e-06 2.12861e-07)
(0.000787744 -1.60792e-06 5.42142e-08)
(0.000786926 -1.01975e-06 1.6843e-08)
(0.00078586 -6.22991e-07 4.80806e-08)
(0.000784609 -3.22478e-07 4.72415e-08)
(0.000783254 -1.67149e-07 4.23957e-08)
(0.000781946 3.43425e-08 1.6993e-07)
(0.000780601 -3.5063e-08 1.80446e-08)
(0.000778997 3.68012e-08 6.17391e-08)
(0.000777588 1.23699e-07 3.16964e-08)
(0.000776356 -1.30682e-08 9.54427e-08)
(0.000774803 9.82415e-08 9.97151e-08)
(0.00077322 1.67398e-07 8.63833e-08)
(0.000771835 -3.6804e-08 6.29853e-08)
(0.000770439 1.11371e-07 6.69109e-08)
(0.000769103 1.37121e-07 2.66792e-08)
(0.000767459 1.84576e-07 2.73865e-09)
(0.00076586 9.57478e-08 4.03605e-08)
(0.000764656 1.54578e-07 5.7707e-08)
(0.000762957 -1.93224e-07 4.35331e-08)
(0.000761284 1.26522e-07 3.14671e-08)
(0.000760065 6.62389e-08 4.98439e-08)
(0.000758743 1.38533e-07 5.59148e-08)
(0.000757295 1.59774e-08 4.78236e-08)
(0.000755909 -2.2779e-08 5.37155e-08)
(0.000754276 -8.13897e-08 5.4076e-08)
(0.000753086 -2.1933e-07 1.16989e-07)
(0.000752212 -9.1806e-08 9.00667e-08)
(0.000750895 1.8335e-07 4.15725e-08)
(0.000749241 4.81994e-07 1.55417e-07)
(0.000747862 1.42163e-07 6.58194e-08)
(0.000746544 1.33803e-07 3.78598e-08)
(0.000745091 6.64915e-08 1.08248e-07)
(0.000743925 -9.61879e-08 4.74512e-08)
(0.000742585 -3.38719e-07 -2.92842e-08)
(0.000741198 -3.28993e-07 -2.57678e-07)
(0.000739736 -2.89156e-07 2.99887e-08)
(0.000738082 1.02387e-07 9.75136e-08)
(-0.000549503 -0.00405666 0.000379289)
(-0.0115373 -0.00519633 -0.000189119)
(0.0319206 -0.00914712 -0.000192964)
(-0.0311073 -0.0150607 0.00011109)
(-0.0025186 0.00379739 -0.00816611)
(-0.00581045 0.000137483 0.000893567)
(0.0020332 -8.55132e-06 0.000134115)
(0.000436843 -1.90229e-06 -2.62424e-07)
(0.000837806 -3.90954e-05 -6.38156e-07)
(0.000770568 -1.75033e-05 -3.68927e-07)
(0.000790581 -1.17139e-05 2.22621e-07)
(0.000789517 -7.03087e-06 1.49312e-07)
(0.000789922 -4.16807e-06 6.66277e-08)
(0.00078875 -2.59935e-06 5.20156e-08)
(0.00078772 -1.57048e-06 6.70665e-08)
(0.000786403 -9.90241e-07 6.01183e-08)
(0.000784956 -6.04554e-07 4.92803e-08)
(0.000783559 -2.97732e-07 7.76122e-08)
(0.000782192 -1.85181e-07 3.56609e-08)
(0.000780676 -2.86072e-08 2.08787e-07)
(0.000779345 4.83664e-08 -1.04112e-07)
(0.000777734 1.67843e-07 1.42454e-08)
(0.000776112 1.40642e-07 8.63908e-08)
(0.000774828 6.47462e-09 5.71926e-08)
(0.000773126 -4.44648e-08 5.28203e-08)
(0.000771635 6.24309e-08 4.42113e-08)
(0.00077034 -7.1991e-08 3.9107e-08)
(0.000768891 -2.11947e-07 5.8781e-08)
(0.000767667 -2.18416e-07 8.14908e-08)
(0.000766278 -4.05048e-07 7.82896e-08)
(0.000764116 -6.27514e-07 2.9826e-09)
(0.000762673 -4.6227e-07 -1.06234e-08)
(0.000761681 -3.24663e-07 1.44422e-08)
(0.000760196 -1.55712e-07 4.89157e-08)
(0.000758772 -1.47041e-07 5.62651e-08)
(0.000757288 -1.93137e-08 4.34818e-08)
(0.000755944 6.55384e-08 5.37296e-08)
(0.00075464 1.60541e-07 7.4731e-08)
(0.000753335 3.75685e-07 1.08917e-07)
(0.000752085 2.51744e-07 6.9591e-08)
(0.000750926 2.11386e-07 2.89377e-08)
(0.000749567 1.47915e-07 -1.79275e-08)
(0.000747603 1.94875e-07 2.6559e-08)
(0.000745968 2.7338e-08 9.36366e-09)
(0.000744872 4.47687e-08 4.60196e-08)
(0.000743563 -1.42181e-07 4.52788e-08)
(0.000742249 -4.91464e-07 -3.28186e-07)
(0.000741081 -5.12381e-07 5.86997e-08)
(0.000740136 -4.32078e-07 1.95817e-07)
(0.000738737 -2.00431e-07 1.71247e-07)
(0.0113934 0.0335821 -0.00105735)
(-0.0333994 -0.0328577 0.00313177)
(0.007787 -0.00950065 0.000817677)
(0.00183777 0.00228388 0.000424814)
(-0.00992585 0.014523 0.000177341)
(0.00635003 0.00484527 0.000662345)
(0.000836471 -0.000195854 -4.10783e-05)
(0.000807741 -3.83421e-05 -3.00787e-06)
(0.000821506 -4.79682e-05 8.83554e-08)
(0.000803209 -1.94754e-05 -3.63626e-08)
(0.000800201 -1.28453e-05 5.95933e-08)
(0.000795981 -7.24373e-06 4.68301e-08)
(0.000793295 -4.51959e-06 5.14325e-08)
(0.000791002 -2.68587e-06 5.04702e-08)
(0.000788945 -1.69128e-06 4.86431e-08)
(0.000787072 -9.78272e-07 4.99815e-08)
(0.000785478 -5.45879e-07 4.95127e-08)
(0.000783779 -2.32871e-07 3.55892e-08)
(0.000782283 -2.27477e-08 1.58766e-07)
(0.000780892 -1.36945e-07 6.93315e-08)
(0.000779241 -6.63826e-08 2.85948e-08)
(0.000777702 -1.77906e-07 4.38825e-08)
(0.000776153 8.52569e-09 2.80634e-08)
(0.000774571 -7.01766e-08 5.20343e-08)
(0.00077329 -8.86337e-08 1.77428e-08)
(0.0007718 1.70339e-07 1.87936e-07)
(0.000770097 -4.8286e-08 5.11517e-08)
(0.000768922 -6.34924e-08 6.65394e-08)
(0.00076722 -4.63218e-07 1.93179e-08)
(0.000765353 -7.36903e-07 3.90695e-08)
(0.000764589 -6.42224e-07 1.22832e-07)
(0.00076334 -1.73282e-07 7.72495e-08)
(0.00076167 -1.32775e-07 4.20403e-08)
(0.000760289 -1.19894e-07 2.57417e-08)
(0.000758915 -1.33029e-07 3.83528e-08)
(0.000757562 -8.69824e-09 7.50793e-08)
(0.000756134 9.88508e-08 4.68636e-08)
(0.000754663 1.60815e-07 5.49063e-08)
(0.000753198 1.83795e-07 4.61458e-08)
(0.000752005 2.94605e-07 1.67871e-08)
(0.000750763 2.89043e-08 4.37361e-08)
(0.000749219 -2.37241e-07 6.38872e-09)
(0.00074771 -3.65045e-07 6.00927e-08)
(0.000746356 -1.5173e-07 4.61529e-08)
(0.00074488 -9.05444e-08 7.16246e-10)
(0.000743257 -1.89259e-09 4.85768e-08)
(0.000742126 -1.76074e-08 4.96438e-09)
(0.000741277 -2.61968e-07 6.69175e-08)
(0.000740135 -1.11412e-07 9.65022e-08)
(0.00073887 -2.60996e-07 7.0256e-08)
(-0.0089267 0.0211747 0.000778104)
(0.0230413 -0.00597749 -0.000351044)
(0.0102641 0.0109922 0.000723971)
(0.00735966 0.0068579 0.000318206)
(0.0047077 0.00247616 0.00113845)
(-0.00237053 -0.00221678 -3.01004e-05)
(0.000416402 4.0274e-05 3.23627e-05)
(0.000856576 -2.47567e-05 -2.02655e-06)
(0.000824466 -2.12509e-05 5.40711e-08)
(0.000814455 -1.0651e-05 7.17932e-08)
(0.000805935 -6.66474e-06 5.35067e-08)
(0.000799966 -3.84476e-06 4.88043e-08)
(0.000795642 -2.28655e-06 4.83307e-08)
(0.0007923 -1.41299e-06 4.88222e-08)
(0.000789862 -8.87927e-07 5.57486e-08)
(0.00078784 -5.42812e-07 4.98291e-08)
(0.00078589 -3.60251e-07 1.20242e-07)
(0.000784213 -2.2776e-07 6.29561e-08)
(0.000782312 -3.05127e-08 8.42766e-08)
(0.000780621 -1.73104e-09 3.12857e-08)
(0.000779294 -8.80628e-08 5.12358e-08)
(0.000777827 -7.69626e-08 5.45798e-08)
(0.000776247 -2.23256e-07 5.44628e-08)
(0.000774707 -1.13166e-07 4.82757e-08)
(0.000773426 -1.96033e-07 3.89484e-08)
(0.000771685 -3.4341e-07 3.62972e-08)
(0.000770048 -9.33213e-08 2.96402e-08)
(0.000768375 -7.01137e-08 8.34007e-08)
(0.00076683 -2.62098e-07 2.90958e-08)
(0.000766061 2.32973e-07 6.98844e-08)
(0.000764825 3.96419e-07 8.84643e-08)
(0.000763313 1.53272e-07 8.94254e-08)
(0.000761749 2.96933e-07 4.69691e-08)
(0.000760197 9.93686e-08 4.99748e-08)
(0.000758912 4.69517e-08 4.77265e-08)
(0.000757579 -1.04084e-07 1.88381e-08)
(0.000756156 -1.69354e-07 5.56153e-08)
(0.000754746 -2.13018e-07 2.33277e-08)
(0.000753501 6.48957e-08 3.96072e-08)
(0.000751891 1.09843e-07 7.07593e-08)
(0.000750261 -7.31222e-08 1.40603e-08)
(0.000749076 -1.14969e-07 4.80818e-08)
(0.000747712 -1.5858e-07 5.71665e-08)
(0.000746313 -1.40713e-07 5.00888e-08)
(0.000745061 -9.74936e-08 5.80948e-08)
(0.000743655 8.22458e-08 4.52323e-08)
(0.000741925 4.67395e-07 5.90669e-08)
(0.000740965 6.13719e-07 7.01124e-08)
(0.000740145 2.0477e-07 4.56704e-08)
(0.000739201 -8.56355e-09 9.34756e-08)
(-0.0255388 -0.00695197 0.000432694)
(-0.00259772 -0.00151815 0.000403418)
(0.0222895 0.00822996 0.000556409)
(-0.0533352 -0.0100844 0.000479608)
(-0.00921981 -0.0183848 0.0090593)
(0.0161495 -0.00100606 -7.52832e-05)
(0.000323142 -7.19655e-05 -6.55045e-07)
(0.000895086 3.60039e-06 -2.60481e-06)
(0.000839096 2.32705e-06 -3.16814e-08)
(0.000821515 2.38043e-06 6.71304e-08)
(0.00080875 1.39658e-06 3.22806e-08)
(0.00080148 9.92868e-07 -6.32373e-09)
(0.00079635 5.69218e-07 2.8877e-08)
(0.00079276 3.2009e-07 4.54409e-08)
(0.000790038 2.2403e-07 1.98352e-08)
(0.000787735 1.64898e-07 1.30118e-07)
(0.000785874 1.47153e-07 3.38185e-08)
(0.000784193 7.95329e-08 4.55762e-07)
(0.000782566 -1.40141e-08 3.70369e-08)
(0.000780821 1.72016e-07 7.87022e-08)
(0.000779148 1.52351e-07 4.33937e-08)
(0.000777535 -6.37593e-08 5.36829e-08)
(0.00077611 -1.63684e-07 3.33197e-08)
(0.000774608 -1.89291e-07 5.20844e-08)
(0.000773005 -2.46549e-07 7.27522e-08)
(0.000771932 -4.24922e-07 6.35453e-08)
(0.000770441 -2.02297e-07 2.58261e-08)
(0.000768713 -1.451e-07 3.83882e-08)
(0.0007676 1.01469e-07 9.67742e-08)
(0.000766175 3.97786e-07 4.7041e-08)
(0.000764487 3.38681e-07 1.46484e-07)
(0.000763213 1.81355e-07 6.13682e-08)
(0.000761602 -5.70732e-08 9.30208e-08)
(0.000759976 -7.94496e-08 -2.44905e-08)
(0.000758661 -1.45449e-07 8.72491e-08)
(0.000757292 -3.21447e-07 7.55648e-08)
(0.000756 -3.54375e-07 3.07638e-08)
(0.000754957 -2.95744e-07 5.29564e-08)
(0.000753602 -4.74998e-07 8.96808e-08)
(0.000751833 -6.61239e-07 3.66212e-08)
(0.000750483 -2.98407e-07 4.54514e-08)
(0.000749114 -1.80121e-07 -1.94179e-08)
(0.00074768 -2.19148e-08 5.0409e-08)
(0.000746434 6.70777e-08 4.17462e-08)
(0.00074516 1.31268e-07 5.14653e-08)
(0.000743962 1.07715e-07 1.07299e-08)
(0.000742788 3.25886e-07 3.26856e-08)
(0.000740945 9.18757e-07 2.59744e-08)
(0.000739356 6.52361e-07 -8.55511e-08)
(0.000738623 3.18779e-07 8.82816e-08)
(-0.0225844 -0.0178302 8.64104e-05)
(0.0194288 -0.00622321 -7.52773e-05)
(-0.0245981 -0.0162829 0.0025626)
(-0.0370858 0.020829 0.00412972)
(-0.0170203 -0.00222471 0.00493395)
(0.000525786 -0.000557071 -3.30866e-05)
(0.000493857 5.8773e-05 -1.76253e-06)
(0.00086331 6.0052e-05 -2.62313e-06)
(0.000822456 3.18011e-05 -2.63614e-07)
(0.000813318 1.81655e-05 5.07049e-08)
(0.000804212 1.03759e-05 5.27979e-08)
(0.000798937 5.84223e-06 8.04062e-08)
(0.000794805 3.2858e-06 6.5614e-08)
(0.000791869 2.05104e-06 2.24078e-08)
(0.00078967 1.2531e-06 6.76009e-08)
(0.000787743 7.94885e-07 4.14601e-08)
(0.000785783 5.15359e-07 4.29625e-08)
(0.000784011 3.23769e-07 3.37291e-07)
(0.000782427 2.9513e-07 7.0552e-08)
(0.000780828 -9.75335e-08 6.39632e-08)
(0.000778999 -1.54317e-07 3.56032e-08)
(0.000777433 -1.21997e-07 7.18623e-08)
(0.000776092 -6.91492e-08 5.96218e-08)
(0.000774606 -2.33417e-08 4.7044e-08)
(0.000773135 7.644e-08 4.76271e-08)
(0.000771744 1.35309e-07 -8.96821e-08)
(0.000770401 -5.77167e-08 8.79939e-08)
(0.000768755 1.09681e-07 4.54142e-08)
(0.000767508 4.29365e-07 -1.12797e-07)
(0.000766355 -7.49933e-08 3.39215e-08)
(0.000764552 -1.42511e-07 6.81021e-08)
(0.000762818 -2.05254e-07 3.51272e-08)
(0.000761423 -5.32275e-07 1.83723e-08)
(0.000760088 -2.38164e-07 1.35869e-07)
(0.000758611 -1.4088e-07 8.58934e-08)
(0.00075732 3.28477e-08 6.98545e-08)
(0.00075619 6.06097e-08 -2.35941e-08)
(0.000754597 -8.48507e-08 4.73692e-08)
(0.000753047 -4.28206e-07 4.64221e-09)
(0.000752115 -5.11269e-07 6.47718e-08)
(0.000750865 -2.49239e-07 6.73447e-08)
(0.000749423 -1.9171e-07 2.22637e-08)
(0.000748022 -9.67582e-08 3.87103e-08)
(0.000746504 1.60073e-07 5.17483e-08)
(0.000745111 1.51303e-07 -3.84191e-08)
(0.000743896 2.39634e-07 4.67376e-08)
(0.000742934 5.89487e-08 1.75454e-08)
(0.000741367 -2.66958e-08 5.09245e-08)
(0.000739382 2.80939e-07 -2.48365e-08)
(0.000737991 2.21166e-07 6.37155e-08)
(0.0420654 -0.00601621 0.00285069)
(0.00971007 0.02234 -0.000644147)
(0.00547067 -0.00215682 0.00395681)
(0.0089665 0.00829007 -0.000105392)
(0.0075704 -0.00717038 0.0011514)
(0.000518019 -0.00787219 4.786e-05)
(0.00144278 0.000318014 6.99649e-07)
(0.00134986 0.000118594 3.33552e-07)
(0.00131218 6.28755e-05 3.21693e-07)
(0.00132557 3.61433e-05 3.40049e-07)
(0.00132286 2.10117e-05 3.7476e-07)
(0.00132144 1.22474e-05 3.39878e-07)
(0.00131969 7.34852e-06 2.56051e-07)
(0.00131726 4.52715e-06 2.78573e-07)
(0.00131426 2.80959e-06 3.28096e-07)
(0.00131148 1.65677e-06 2.9081e-07)
(0.0013089 7.72297e-07 3.29691e-07)
(0.00130656 4.45905e-07 2.44266e-07)
(0.00130344 -7.81394e-09 3.79187e-07)
(0.00130052 -7.23381e-08 3.40951e-07)
(0.00129859 -1.13516e-07 3.1182e-07)
(0.00129609 2.55134e-07 3.49881e-07)
(0.00129371 1.26578e-07 3.6892e-07)
(0.0012913 3.36274e-08 4.85105e-07)
(0.00128865 4.18041e-07 3.50252e-07)
(0.00128626 5.13884e-07 3.44311e-07)
(0.001284 3.63038e-07 2.50514e-07)
(0.00128217 1.37623e-07 3.2354e-07)
(0.00127893 3.13443e-07 3.46978e-07)
(0.00127577 -4.84007e-07 5.37619e-07)
(0.00127382 -1.12232e-06 2.3578e-07)
(0.00127111 -9.64192e-07 1.44736e-07)
(0.00126917 -6.51701e-07 3.51017e-07)
(0.00126744 -4.21286e-07 2.82002e-07)
(0.00126501 5.00468e-08 3.08936e-07)
(0.00126253 3.34451e-07 3.05902e-07)
(0.00125967 3.03602e-07 4.56327e-07)
(0.00125705 3.1849e-07 2.93912e-07)
(0.00125504 7.19161e-07 1.35129e-07)
(0.00125341 6.67251e-07 5.22192e-07)
(0.00125132 1.31843e-07 2.70397e-07)
(0.0012487 5.07093e-08 3.44782e-07)
(0.00124686 -5.13671e-07 3.65868e-07)
(0.00124447 -4.47197e-07 6.79867e-07)
(0.00124191 -2.07784e-07 2.83071e-07)
(0.00123962 -1.74502e-07 3.12315e-07)
(0.00123728 -2.52599e-07 2.77446e-07)
(0.00123527 -6.74264e-07 2.93719e-07)
(0.00123263 -5.83054e-07 2.14979e-07)
(0.00122983 -4.24224e-07 3.30331e-07)
(0.000807925 -0.00501534 -0.00455893)
(0.00424579 0.00937405 -0.00159707)
(-9.03999e-05 -0.00205276 -3.21052e-05)
(0.00163121 -0.00418988 0.000834849)
(0.000549199 -0.00361107 0.0012989)
(0.00191211 0.00231131 -0.00404048)
(0.0010314 6.8602e-05 1.69347e-05)
(0.00127292 3.71204e-05 3.05059e-07)
(0.00126609 2.69102e-05 3.32839e-07)
(0.00130159 1.86707e-05 3.25315e-07)
(0.00130952 1.27253e-05 3.27049e-07)
(0.00131394 8.57003e-06 3.21632e-07)
(0.00131465 5.59771e-06 3.42022e-07)
(0.00131392 3.41306e-06 3.27943e-07)
(0.00131248 2.08015e-06 3.29492e-07)
(0.00131034 1.1948e-06 5.07542e-07)
(0.00130817 9.4495e-07 3.23578e-07)
(0.00130575 5.6975e-07 3.87143e-07)
(0.00130343 2.65647e-07 3.61242e-07)
(0.00130124 4.04761e-07 2.96736e-07)
(0.00129868 5.82746e-07 7.05121e-08)
(0.00129601 4.14551e-07 3.25858e-07)
(0.00129324 7.84199e-07 1.08761e-06)
(0.0012914 5.32268e-07 4.83392e-07)
(0.00128911 4.03476e-07 3.27922e-07)
(0.00128614 1.19653e-07 5.42598e-07)
(0.00128358 -1.77694e-08 3.01444e-07)
(0.00128122 -3.39863e-07 3.20482e-07)
(0.00127842 -1.33931e-06 3.76057e-07)
(0.00127547 -7.78518e-07 3.3879e-07)
(0.00127363 -7.1222e-07 3.57107e-07)
(0.00127187 -4.39121e-07 2.91496e-07)
(0.0012696 5.92783e-07 6.17726e-07)
(0.00126762 5.73382e-07 8.29093e-07)
(0.00126529 2.1118e-07 3.22967e-07)
(0.0012625 1.67706e-08 2.79194e-07)
(0.00126018 7.04957e-08 3.00274e-07)
(0.00125803 3.49594e-07 3.63462e-07)
(0.00125543 7.04511e-07 3.11716e-07)
(0.00125271 7.84758e-07 3.23859e-07)
(0.0012505 1.76831e-07 3.26967e-07)
(0.00124812 -4.33383e-07 3.46266e-07)
(0.00124593 -8.90585e-07 2.35995e-07)
(0.00124443 -7.07888e-07 5.79775e-07)
(0.00124216 -2.47534e-07 3.46831e-07)
(0.00123963 -3.08765e-07 2.43738e-07)
(0.00123739 -7.36559e-09 3.44e-07)
(0.00123509 -2.45124e-07 3.02853e-07)
(0.0012326 -4.78045e-07 3.40592e-07)
(0.00123106 -4.00735e-07 2.08393e-07)
(0.00376378 0.0130377 -0.00260635)
(-0.00826562 -0.0794658 -0.0224806)
(0.0224436 0.00764673 0.067139)
(0.00543714 0.0101943 0.00167296)
(-0.00874073 0.000738746 -0.00590419)
(-0.00926727 0.00171766 0.00131469)
(0.000962266 -0.000134946 6.2699e-06)
(0.00135644 -4.95653e-05 3.54743e-07)
(0.00128826 -7.3153e-06 4.68224e-07)
(0.00130777 -9.41671e-07 3.27658e-07)
(0.00131019 2.66119e-06 3.51788e-07)
(0.0013125 2.71949e-06 3.27852e-07)
(0.00131322 2.12161e-06 3.27143e-07)
(0.00131285 1.49409e-06 3.28813e-07)
(0.00131148 9.40665e-07 3.28575e-07)
(0.00131006 5.02082e-07 3.28316e-07)
(0.00130811 2.74131e-07 3.03067e-07)
(0.00130571 -1.53071e-08 3.28063e-07)
(0.00130323 -7.37143e-08 3.38129e-07)
(0.00130091 -3.89061e-09 3.13445e-07)
(0.0012986 -8.66963e-08 2.24597e-07)
(0.00129633 -1.08327e-08 3.23452e-07)
(0.00129385 2.09178e-07 3.88499e-07)
(0.00129082 3.15805e-07 -7.17875e-08)
(0.00128813 -1.02881e-07 2.94458e-07)
(0.00128573 7.13277e-08 2.9602e-07)
(0.00128342 -4.59047e-08 3.13933e-07)
(0.00128053 3.586e-08 3.08367e-07)
(0.00127839 8.91464e-09 1.23644e-07)
(0.00127656 8.87258e-07 2.43239e-07)
(0.00127425 1.34031e-06 3.43137e-07)
(0.00127274 1.2415e-06 3.18137e-07)
(0.00127044 7.66741e-07 8.12435e-07)
(0.00126696 6.87029e-07 4.06743e-07)
(0.00126431 2.07571e-07 3.62412e-07)
(0.00126235 1.68729e-07 3.26592e-07)
(0.00126008 1.5634e-07 4.73398e-07)
(0.00125784 7.97676e-08 3.38459e-07)
(0.00125558 1.64525e-07 3.259e-07)
(0.00125274 9.1064e-08 4.43761e-07)
(0.0012498 3.04599e-08 3.60389e-07)
(0.00124737 -8.74538e-08 2.97633e-07)
(0.00124652 9.10827e-07 3.05156e-07)
(0.00124528 4.88501e-07 2.70146e-07)
(0.00124242 1.51094e-07 1.09479e-07)
(0.00123992 2.07084e-07 3.23357e-07)
(0.00123736 3.65361e-07 3.33703e-07)
(0.00123468 2.49804e-07 2.14309e-07)
(0.00123245 1.80995e-07 3.25199e-07)
(0.00123092 1.41644e-07 2.94665e-07)
(-0.0324659 0.018853 0.00577731)
(-0.00813425 0.00490757 -0.00168125)
(0.0977462 0.00724956 0.0244566)
(0.0130592 0.0149507 -0.0158168)
(-0.00652608 -0.00905896 -0.000555777)
(0.00243839 0.000914472 -0.000440556)
(0.0013309 0.000142741 9.78397e-05)
(0.001376 -5.34492e-05 1.21258e-08)
(0.00132699 2.00607e-05 2.55533e-07)
(0.00131413 -2.67591e-06 2.29402e-07)
(0.00131412 5.29116e-08 3.99206e-07)
(0.00131326 -5.60839e-07 3.28156e-07)
(0.00131311 -5.80797e-07 3.28449e-07)
(0.00131244 -3.50434e-07 3.28749e-07)
(0.00131124 -1.67436e-07 3.28104e-07)
(0.00130951 -3.65794e-08 3.27815e-07)
(0.00130752 -2.57429e-07 3.43169e-07)
(0.00130531 -2.74649e-07 3.19412e-07)
(0.00130345 -3.95514e-07 3.05898e-07)
(0.00130122 -2.42985e-07 3.02977e-07)
(0.00129867 -2.98441e-07 4.04389e-07)
(0.00129637 -3.85306e-07 3.23059e-07)
(0.00129365 -5.32589e-07 2.34671e-07)
(0.00129101 -3.01161e-07 3.72943e-07)
(0.0012888 -9.75291e-08 4.64246e-07)
(0.00128621 1.65858e-07 2.54709e-07)
(0.00128353 4.52008e-07 3.93154e-07)
(0.00128129 7.08225e-07 3.69796e-07)
(0.00127948 1.51734e-06 3.36942e-07)
(0.00127712 1.25873e-06 4.67843e-07)
(0.00127407 1.37741e-06 2.96564e-07)
(0.00127115 1.3667e-06 3.01016e-07)
(0.0012689 4.55438e-07 2.27373e-07)
(0.00126692 2.31856e-08 3.16323e-07)
(0.00126464 2.27417e-07 3.09347e-07)
(0.00126244 1.57465e-07 3.44067e-07)
(0.00126007 1.09139e-08 3.18724e-07)
(0.00125804 -8.77328e-08 3.33821e-07)
(0.00125545 -6.11064e-07 1.80169e-07)
(0.00125254 -5.29143e-07 3.06092e-07)
(0.00125028 2.6641e-08 1.75413e-07)
(0.00124922 7.44531e-07 3.91823e-07)
(0.00124665 1.06344e-06 3.72998e-07)
(0.00124348 6.26693e-07 2.16459e-07)
(0.0012418 1.14185e-07 3.27253e-07)
(0.0012399 1.63737e-08 4.58897e-07)
(0.00123744 -1.43837e-08 3.5578e-07)
(0.00123485 1.54288e-07 1.15783e-07)
(0.00123246 3.8516e-07 3.07449e-07)
(0.00123065 3.89035e-07 2.10261e-07)
(-0.0125002 0.0135331 -0.112261)
(-0.00783306 -0.0194075 -0.0300622)
(-0.0195812 -0.0373421 0.00815957)
(-0.0337619 0.00340471 -0.00520522)
(-0.0280465 -0.0238776 -0.0107991)
(-0.0297555 0.0089418 0.00225027)
(0.000547526 -0.000683148 3.69978e-05)
(0.00133936 7.53595e-05 -2.40404e-07)
(0.00139219 1.80843e-05 5.04914e-07)
(0.00128283 -8.04961e-06 3.91792e-07)
(0.00131283 -5.46107e-06 3.4641e-07)
(0.0013117 -5.10496e-06 3.55017e-07)
(0.00131348 -3.23445e-06 4.39048e-07)
(0.00131337 -2.27656e-06 3.2943e-07)
(0.00131187 -1.48982e-06 3.03359e-07)
(0.00130994 -9.21898e-07 3.46392e-07)
(0.00130781 -4.62655e-07 3.2711e-07)
(0.00130554 -2.52999e-07 3.09807e-07)
(0.00130327 8.04391e-08 4.54059e-07)
(0.00130104 -1.25498e-08 2.83961e-07)
(0.00129843 9.96721e-09 3.58027e-07)
(0.00129604 1.75282e-07 3.92208e-07)
(0.00129396 -1.53438e-08 4.14798e-07)
(0.00129136 1.18283e-07 3.69944e-07)
(0.00128872 2.74433e-07 2.73672e-07)
(0.00128641 -1.19753e-07 3.67338e-07)
(0.0012841 1.76982e-07 3.74658e-07)
(0.00128185 2.64026e-07 2.89192e-07)
(0.00127907 3.93357e-07 5.30565e-07)
(0.00127637 2.42889e-07 5.24615e-07)
(0.00127437 2.76839e-07 3.33017e-07)
(0.00127158 -2.88749e-07 3.10983e-07)
(0.00126875 2.71015e-07 2.95978e-07)
(0.00126667 1.49895e-07 3.1772e-07)
(0.00126447 2.5953e-07 3.41651e-07)
(0.00126208 3.19962e-08 3.15914e-07)
(0.00125977 -6.50199e-08 3.39508e-07)
(0.00125706 -1.70768e-07 3.15784e-07)
(0.00125503 -3.8216e-07 4.62136e-07)
(0.00125354 -1.84764e-07 3.28219e-07)
(0.00125139 2.83503e-07 3.0551e-07)
(0.00124866 7.3395e-07 5.29333e-07)
(0.00124637 2.1289e-07 2.93325e-07)
(0.00124409 1.58396e-07 -2.16225e-08)
(0.00124165 -1.74768e-08 4.87129e-07)
(0.00123976 -2.22822e-07 3.10286e-07)
(0.00123753 -6.64094e-07 1.30268e-07)
(0.00123518 -6.71782e-07 -2.91458e-07)
(0.00123273 -4.6682e-07 3.27669e-07)
(0.00122996 1.7482e-07 4.31773e-07)
(0.00236452 0.0221665 0.00116372)
(0.020593 -0.00808826 -0.00405067)
(0.0080107 -0.00943719 0.0111476)
(-0.000318577 0.00263922 -0.017521)
(0.044113 -0.0103376 0.0254095)
(0.0309404 0.00728743 0.00445199)
(0.00117547 0.00127453 -0.000171775)
(0.00129688 1.378e-07 4.8259e-07)
(0.0013963 -6.0484e-05 5.0183e-07)
(0.00128506 -2.61096e-05 3.71049e-07)
(0.00131779 -1.74791e-05 2.88683e-07)
(0.00131604 -1.04142e-05 4.48829e-07)
(0.00131665 -6.11794e-06 1.53391e-07)
(0.00131462 -3.82179e-06 3.27798e-07)
(0.00131293 -2.32849e-06 3.35582e-07)
(0.0013108 -1.49219e-06 3.30988e-07)
(0.00130836 -9.00357e-07 3.27571e-07)
(0.00130599 -4.39924e-07 3.61739e-07)
(0.00130375 -2.6194e-07 3.11199e-07)
(0.00130113 3.64949e-08 5.56795e-07)
(0.00129891 1.68296e-07 1.34884e-07)
(0.00129634 3.17513e-07 2.69304e-07)
(0.00129357 2.65277e-07 4.5185e-07)
(0.00129137 3.76994e-08 3.41337e-07)