/*--------------------------------*- C++ -*----------------------------------*\
| =========                 |                                                 |
| \\      /  F ield         | OpenFOAM: The Open Source CFD Toolbox           |
|  \\    /   O peration     | Version:  5.0                                   |
|   \\  /    A nd           | Web:      www.OpenFOAM.org                      |
|    \\/     M anipulation  |                                                 |
\*---------------------------------------------------------------------------*/
FoamFile
{
    version     2.0;
    format      ascii;
    class       surfaceVectorField;
    location    "1.1";
    object      Uf;
}
// * * * * * * * * * * * * * * * * * * * * * * * * * * * * * * * * * * * * * //

dimensions      [0 1 -1 0 0 0 0];

internalField   nonuniform List<vector> 
26902
(
(-0.0202392 -0.000743898 0.000722215)
(-0.00592861 -0.000176958 0.00100504)
(0.00417472 0.0077491 0.00287284)
(-0.00621827 0.0044308 -0.000432714)
(0.00689679 0.00948645 -0.000214645)
(0.00542018 0.0131836 5.91729e-05)
(0.0129276 0.018288 -0.00125498)
(-0.0131439 0.00247681 0.000526864)
(-0.0111859 0.0027441 0.00212988)
(-0.0166195 0.00230949 -0.000174741)
(-0.0142591 0.0043149 -0.00105448)
(-0.0174945 0.00217672 -0.000372206)
(-0.0209517 0.003475 -0.0001352)
(-0.00518018 0.00176947 0.00060558)
(0.00885953 0.00319395 0.00048857)
(0.00818277 0.00960827 0.000341284)
(0.00445717 0.00451178 0.00188104)
(0.00651408 0.00652397 -0.00021403)
(-0.000670147 0.0049656 8.39814e-05)
(-0.000384587 -0.00635883 0.000671569)
(-0.00232788 0.00795944 -8.17409e-05)
(0.00101654 0.00828334 0.000229784)
(-0.0065007 0.0023295 -0.000129984)
(0.000627521 0.00908086 0.000324537)
(0.00238944 0.0025782 0.000273154)
(0.00131818 0.000883867 1.6741e-05)
(0.00214651 -0.000342009 8.83362e-05)
(0.00189963 -0.000379382 9.5913e-05)
(0.00295926 0.000179287 -8.39716e-05)
(0.000374146 -1.21209e-05 -2.46737e-06)
(0.000485041 -5.48116e-05 -2.99755e-06)
(0.000491748 -3.21144e-05 -1.54001e-06)
(0.000830455 -6.56597e-05 -1.27912e-06)
(0.00032991 -1.45361e-05 -2.01224e-06)
(0.000719797 1.62631e-05 -1.94737e-06)
(0.000605722 9.80543e-06 5.78689e-07)
(0.000800939 -4.61647e-05 -1.18296e-06)
(0.000834179 -5.48163e-05 -1.89163e-06)
(0.00109684 -6.02226e-05 -1.54529e-06)
(0.00058009 -5.47709e-05 -3.87835e-06)
(0.000586892 -3.97889e-05 -4.14463e-06)
(0.000993182 -7.88096e-05 -3.89817e-06)
(0.000995616 -4.7527e-05 -4.32519e-06)
(0.000797826 -3.03533e-05 -8.2907e-08)
(0.000802516 -3.76044e-05 -2.02065e-07)
(0.00105955 -4.21789e-05 1.15397e-07)
(0.000795814 -1.89006e-05 9.03924e-08)
(0.000804241 -2.35631e-05 1.19369e-07)
(0.0010637 -2.6395e-05 1.91671e-07)
(0.00079365 -1.18332e-05 6.90012e-08)
(0.000798892 -1.46662e-05 6.36838e-08)
(0.00105941 -1.65695e-05 1.73941e-07)
(0.000792111 -7.36425e-06 2.68711e-08)
(0.000795709 -8.98366e-06 5.42513e-08)
(0.00105719 -1.04847e-05 1.7491e-07)
(0.000790781 -4.36275e-06 2.83366e-08)
(0.000793077 -5.494e-06 2.32473e-08)
(0.00105546 -6.43055e-06 1.81845e-07)
(0.000788179 -2.53715e-06 5.44243e-08)
(0.000790453 -3.62268e-06 5.27544e-08)
(0.00105282 -3.57663e-06 1.59413e-07)
(0.0007864 -1.5871e-06 1.2675e-07)
(0.000787948 -2.17186e-06 4.78583e-08)
(0.00104983 -2.21525e-06 1.8361e-07)
(0.00078465 -9.97543e-07 1.29155e-07)
(0.00078596 1.15953e-07 1.33192e-07)
(0.00104752 -1.4134e-06 1.27846e-07)
(0.000783169 -4.45621e-07 6.43712e-08)
(0.000784261 -8.11046e-07 4.59646e-08)
(0.00104538 -8.88972e-07 1.79274e-07)
(0.000781015 -1.82594e-07 6.76143e-08)
(0.000782273 -3.64074e-07 6.6335e-08)
(0.00104305 -1.29094e-07 1.65299e-07)
(0.000779487 -2.03873e-07 6.49295e-08)
(0.00078031 -2.73745e-07 5.14923e-08)
(0.00104049 -2.86948e-07 1.694e-07)
(0.000777947 -1.62464e-07 7.13646e-08)
(0.000778794 -1.57224e-07 4.93951e-08)
(0.00103845 -2.16355e-07 2.15275e-07)
(0.000776434 -6.64738e-08 -5.19179e-08)
(0.000777231 -9.95961e-08 5.35352e-08)
(0.00103653 -1.78538e-07 2.28382e-07)
(0.000774799 -4.98093e-08 -6.39467e-08)
(0.000775539 3.54566e-08 -5.58098e-08)
(0.00103437 7.6008e-08 1.65892e-07)
(0.000773235 -2.38364e-07 5.5834e-08)
(0.000773766 8.65133e-08 9.19285e-08)
(0.00103226 -1.04257e-07 1.61712e-07)
(0.000771565 -1.93902e-07 5.67351e-08)
(0.000772489 3.00828e-07 8.28319e-08)
(0.00103015 -4.13179e-07 1.5921e-07)
(0.000770059 1.20641e-07 6.26525e-08)
(0.000771174 1.15847e-07 1.32135e-08)
(0.00102801 2.22383e-08 1.74346e-07)
(0.000768592 2.47739e-07 6.43976e-08)
(0.000769403 -1.12855e-06 5.38725e-08)
(0.00102603 4.07102e-07 1.72616e-07)
(0.000767044 1.75108e-07 5.29465e-08)
(0.000767716 -2.13443e-07 4.63638e-08)
(0.00102403 3.23467e-07 1.8581e-07)
(0.000765443 1.757e-07 5.48725e-08)
(0.000766244 8.02519e-08 4.91762e-08)
(0.00102211 1.66996e-07 1.75346e-07)
(0.000763824 2.34028e-08 5.00194e-08)
(0.000764502 -1.26428e-07 6.33178e-08)
(0.00101981 2.85107e-07 1.17842e-07)
(0.000762411 -3.26641e-07 5.93704e-08)
(0.000762829 1.06561e-07 6.03316e-08)
(0.00101769 -2.76361e-07 1.87757e-07)
(0.000760488 -5.25778e-07 1.20532e-08)
(0.000761394 -6.48544e-07 -2.17682e-08)
(0.00101561 -6.9275e-07 3.55195e-07)
(0.000759281 -5.09314e-07 1.4028e-08)
(0.000759859 -6.10951e-07 -1.27859e-08)
(0.00101338 -7.80501e-07 3.10982e-07)
(0.000757588 -3.41505e-07 5.97854e-08)
(0.000758517 -2.39221e-07 9.85251e-08)
(0.00101154 -5.78986e-07 1.79231e-07)
(0.000756409 -1.01425e-07 4.13788e-08)
(0.000757292 -1.54455e-07 7.55861e-08)
(0.00100978 -3.06e-07 1.56131e-07)
(0.000754793 8.42653e-08 5.53876e-08)
(0.000755759 7.23277e-08 4.60122e-08)
(0.00100788 7.61673e-08 1.71022e-07)
(0.000753278 7.41593e-08 4.46338e-08)
(0.000754014 1.15272e-07 6.64909e-08)
(0.00100579 2.04764e-07 1.65369e-07)
(0.000751445 8.09108e-08 2.46279e-08)
(0.000752459 2.44982e-07 3.32738e-08)
(0.0010035 4.75748e-08 1.21838e-07)
(0.000749997 2.62381e-07 4.21361e-08)
(0.00075099 3.32368e-07 1.61011e-08)
(0.00100119 2.11355e-07 1.32373e-07)
(0.000749282 2.48626e-07 4.92261e-08)
(0.000749589 -1.14991e-06 4.6234e-08)
(0.000999859 5.38247e-07 1.68114e-07)
(0.000747522 4.43926e-08 2.95296e-08)
(0.000748129 2.07432e-07 3.24841e-08)
(0.000998346 2.01234e-07 1.74584e-07)
(0.000745912 -8.07228e-08 4.54313e-08)
(0.000746575 -6.60515e-08 3.70612e-08)
(0.000996028 -1.78925e-08 1.57055e-07)
(0.000744643 -4.89102e-07 7.8609e-08)
(0.000745002 -1.27483e-07 6.91638e-08)
(0.000993969 -1.58564e-07 1.55809e-07)
(0.000743941 -7.44371e-07 4.10622e-08)
(0.000743926 1.67281e-06 8.09941e-08)
(0.000992931 -1.06792e-06 1.49019e-07)
(0.000741549 -5.10185e-07 2.68726e-08)
(0.00074279 2.52229e-06 3.26073e-08)
(0.000990761 -8.10479e-07 7.0548e-08)
(0.00074022 -2.67534e-07 5.05165e-08)
(0.000741214 -4.06815e-07 4.0947e-08)
(0.000988203 -4.85892e-07 1.75788e-07)
(0.000738942 -7.65729e-08 5.25749e-08)
(0.000739793 1.89496e-07 5.50758e-08)
(0.000986553 -2.28641e-07 1.34186e-07)
(0.00073786 -6.06691e-08 6.68682e-08)
(0.000738381 -4.90389e-07 4.8199e-08)
(0.000984875 -2.20579e-08 1.64261e-07)
(0.000736376 -2.55138e-07 5.91777e-08)
(0.000736984 8.23319e-08 1.56619e-08)
(0.000983323 -2.03242e-07 1.72383e-07)
(0.000734666 -3.42527e-07 2.87257e-08)
(0.000735507 -3.98342e-07 -1.41695e-08)
(0.000981079 -5.10805e-07 2.09204e-07)
(0.000734251 9.03025e-07 5.98986e-08)
(0.000978976 -3.98551e-07 1.03077e-07)
(0.000356616 -0.007252 -0.000253501)
(0.00757925 7.37975e-05 -0.000160612)
(0.00158906 0.00804454 -0.000142503)
(0.00538578 0.00145903 -0.00161356)
(0.0028367 -0.00254232 0.000322879)
(0.00857523 -0.00497278 -0.000246811)
(0.00491031 -0.0176174 -0.000522171)
(0.00463502 -0.00928878 0.000236317)
(-0.00358959 -0.00100018 -8.14239e-05)
(-0.0129427 0.00246354 -0.000691694)
(0.0134191 0.00497919 -0.00503463)
(0.00201874 -0.00506652 -0.00118933)
(-0.00339782 0.00230641 0.000431409)
(0.0114616 0.0037494 0.000212027)
(0.00332655 0.00156405 0.000587549)
(0.00352717 -0.00542795 0.000165325)
(0.00514151 -0.000736556 0.00119861)
(-0.00197019 0.00529505 0.000120877)
(0.00655204 -0.00210574 0.000256402)
(-0.000240309 0.00147909 0.000585359)
(-0.00444348 -0.002592 0.000354099)
(0.00427019 -0.00431682 0.000564634)
(-0.0045885 -0.0110741 0.000724017)
(-0.00168174 0.00734376 0.000586844)
(-0.00610821 0.00345799 -0.000283826)
(-0.00480834 -0.00138308 0.0010569)
(0.00392254 0.00215414 -0.00109253)
(-0.00349246 -0.00181246 9.63958e-05)
(0.0115831 0.00277009 0.000923615)
(-0.00374341 -0.00258746 0.000719944)
(0.000289256 0.00467234 0.000322974)
(0.00484235 0.00261567 1.80653e-05)
(0.00185342 0.00289333 0.000681868)
(0.00194133 0.00191046 0.000178315)
(9.35199e-05 0.00181136 9.79007e-05)
(-0.0067909 0.00208998 0.000134794)
(-0.00366266 -0.000601265 0.000359826)
(0.00202923 -0.00288499 0.000567722)
(-0.000167059 -0.00535355 -8.17957e-05)
(-0.00544706 -0.00543751 -0.000133232)
(0.00234884 -0.0043416 -3.35514e-05)
(0.000149962 -0.00580217 -0.00088796)
(-0.00433071 -0.00802982 -0.000626067)
(0.000388014 -1.36425e-05 2.61201e-06)
(0.000468745 -9.19232e-06 9.16966e-07)
(0.000424711 -5.96008e-05 -6.38381e-07)
(0.000732264 -9.70436e-05 1.32091e-05)
(0.000344294 -5.95703e-05 3.19659e-05)
(0.000770639 1.60639e-05 8.13744e-06)
(0.000536471 -8.9951e-05 8.01483e-05)
(0.00034467 -6.81972e-05 1.49877e-06)
(0.000638986 -0.000124008 8.9202e-06)
(0.000606086 -0.000127842 -3.03169e-06)
(0.000323432 -7.26934e-05 -1.18369e-06)
(0.000816852 -4.91142e-05 -9.1129e-07)
(0.000886976 -6.6442e-05 -1.85621e-06)
(0.00111959 -7.31816e-05 -1.34148e-06)
(0.000565508 -5.48411e-05 -3.95112e-06)
(0.00062042 -6.65631e-05 -4.84983e-06)
(0.000929731 -8.41472e-05 -3.9091e-06)
(0.00104882 -0.000114995 -5.42388e-06)
(0.000812235 -2.92087e-05 1.05354e-10)
(0.00082732 -3.36125e-05 -3.47486e-07)
(0.00107525 -4.33009e-05 1.55659e-07)
(0.000806129 -1.72391e-05 9.26785e-08)
(0.000819241 -1.83082e-05 1.01076e-07)
(0.00107801 -2.54355e-05 1.98566e-07)
(0.000800692 -1.01644e-05 4.8937e-08)
(0.000807757 -9.96313e-06 3.7222e-08)
(0.00106931 -1.48335e-05 1.79246e-07)
(0.000796405 -6.00371e-06 5.06376e-08)
(0.000800922 -5.74022e-06 5.20849e-08)
(0.00106379 -8.72262e-06 1.8101e-07)
(0.000792909 -3.6785e-06 4.76556e-08)
(0.00079599 -3.27888e-06 4.59777e-08)
(0.00105895 -5.08047e-06 1.83993e-07)
(0.000789924 -2.32243e-06 4.619e-08)
(0.000792152 -1.95157e-06 4.58348e-08)
(0.00105491 -3.35794e-06 1.77621e-07)
(0.000787449 -1.42287e-06 5.42725e-08)
(0.000789075 -1.12413e-06 4.90821e-08)
(0.00105145 -1.98713e-06 1.76791e-07)
(0.000785455 -8.06989e-07 5.00298e-08)
(0.000786731 -3.3825e-07 5.69164e-08)
(0.00104855 -1.30611e-06 2.38916e-07)
(0.000783682 -4.79635e-07 4.79218e-08)
(0.000784671 -3.34687e-07 4.74002e-08)
(0.00104621 -5.56254e-07 1.56154e-07)
(0.000781169 -2.09083e-07 5.02178e-08)
(0.000782612 1.19555e-06 6.16149e-08)
(0.00104337 -5.45654e-07 1.4505e-07)
(0.000779754 4.33413e-08 3.59586e-08)
(0.000780626 -3.89176e-07 5.28098e-08)
(0.00104074 6.55108e-08 1.66109e-07)
(0.000778026 7.52833e-08 3.15644e-08)
(0.000778834 -6.29463e-08 3.56758e-08)
(0.00103874 7.47246e-08 1.79044e-07)
(0.00077639 9.44291e-08 4.96783e-08)
(0.000777254 3.08538e-07 1.54593e-07)
(0.00103654 1.8245e-07 1.49562e-07)
(0.000774503 2.13403e-07 1.00018e-07)
(0.000775687 2.3554e-07 5.81754e-08)
(0.00103422 1.35594e-07 1.8617e-07)
(0.000772791 3.95768e-07 1.18929e-07)
(0.000773992 -1.80405e-06 1.20238e-07)
(0.00103163 4.99913e-07 3.16731e-07)
(0.000772288 3.42639e-07 3.93323e-08)
(0.00077242 -1.98039e-06 6.04105e-08)
(0.00103035 6.08884e-07 2.38886e-07)
(0.000770561 1.64125e-07 4.42053e-09)
(0.00077095 3.34726e-07 2.1192e-08)
(0.00102897 3.52667e-07 1.7155e-07)
(0.000768478 3.63564e-08 3.58411e-08)
(0.000769242 -1.20031e-07 3.13961e-08)
(0.00102622 1.39241e-07 1.47495e-07)
(0.000766882 -6.72185e-08 4.25926e-08)
(0.000767587 9.35247e-08 4.81153e-08)
(0.00102377 4.11334e-09 1.54178e-07)
(0.000765371 -2.68359e-07 5.7617e-08)
(0.000765993 1.00735e-07 5.38961e-08)
(0.00102183 -1.67391e-07 1.67212e-07)
(0.000763384 -3.56772e-07 7.3631e-08)
(0.000764393 -6.04851e-07 3.48223e-08)
(0.00101946 -6.21312e-07 2.44686e-07)
(0.00076195 -2.83882e-07 -2.07812e-08)
(0.000762923 -1.41169e-07 4.94107e-08)
(0.00101706 -4.24387e-07 1.79957e-07)
(0.000760608 -2.15124e-07 -4.66102e-08)
(0.000761482 1.97345e-07 6.91159e-09)
(0.0010154 -3.84426e-07 9.49885e-08)
(0.000759153 3.69869e-08 7.16764e-08)
(0.000760174 3.37305e-07 4.35238e-08)
(0.00101357 -2.26404e-07 9.7929e-08)
(0.00075815 2.19874e-07 1.14333e-07)
(0.000758745 -2.12762e-06 6.12987e-08)
(0.00101185 3.52601e-07 2.59448e-07)
(0.000756806 5.66713e-08 8.02288e-08)
(0.000757087 -1.77991e-06 6.3906e-08)
(0.0010104 3.18737e-07 2.71703e-07)
(0.000754891 -9.80701e-08 5.71091e-08)
(0.000755565 5.29941e-07 6.97169e-08)
(0.00100823 -8.82481e-08 1.74743e-07)
(0.000753169 -3.47878e-08 5.51412e-08)
(0.000754093 1.03722e-06 6.69791e-08)
(0.00100566 -1.19929e-07 1.24616e-07)
(0.000752014 1.40088e-07 2.47523e-08)
(0.000752677 -1.9557e-07 6.13467e-08)
(0.00100377 5.56695e-08 1.71769e-07)
(0.000750536 3.50419e-07 2.01896e-08)
(0.000751251 5.80068e-08 2.92293e-08)
(0.00100217 3.41532e-07 1.89335e-07)
(0.000748537 3.30747e-07 2.94963e-08)
(0.000749563 -6.61996e-07 3.1068e-08)
(0.000999763 6.29368e-07 1.81685e-07)
(0.000747129 1.33494e-07 4.00144e-08)
(0.000747881 1.91401e-07 4.54254e-08)
(0.000997414 3.26183e-07 1.65288e-07)
(0.000745694 3.10604e-08 6.07838e-08)
(0.000746447 -2.10086e-08 5.44412e-08)
(0.000995627 8.66135e-08 1.63779e-07)
(0.000744033 -7.42054e-08 7.15453e-08)
(0.000744871 1.82128e-07 5.72969e-08)
(0.000993494 -2.25582e-08 1.65496e-07)
(0.000743027 -4.34568e-07 7.25541e-08)
(0.000743477 6.47684e-07 7.74443e-08)
(0.000991666 -2.38922e-07 2.03439e-07)
(0.000742423 -4.65318e-07 4.66792e-08)
(0.000742754 2.02532e-07 9.82021e-08)
(0.000990797 -9.37929e-07 2.61447e-07)
(0.000740736 -1.51043e-07 4.55021e-08)
(0.000741608 2.46391e-07 6.01653e-08)
(0.000989178 -2.88428e-07 1.44511e-07)
(0.000739279 4.67674e-09 5.07019e-08)
(0.000739988 -7.99936e-08 9.08113e-08)
(0.000987042 -1.53766e-07 1.91357e-07)
(0.000737478 3.69043e-08 -2.99743e-09)
(0.000738422 6.66567e-10 3.29346e-08)
(0.000984945 1.21614e-07 1.67763e-07)
(0.000736117 -8.19892e-08 -5.76762e-08)
(0.000736836 1.18143e-07 1.85953e-08)
(0.000982799 -4.52393e-08 1.61301e-07)
(0.00073499 -1.48348e-07 1.69809e-08)
(0.000735426 7.34843e-08 -8.82385e-09)
(0.000981078 -2.08596e-07 1.08666e-07)
(0.000734435 -1.03479e-07 1.06853e-07)
(0.000979789 -2.24207e-07 2.25546e-07)
(0.0307851 0.0029602 -0.000476079)
(0.0312858 -0.00947648 -0.00258528)
(0.0261632 -0.00665732 -0.00037438)
(-0.00204939 0.00973115 -0.00200342)
(0.0324719 -0.00559731 -0.00306407)
(0.025922 -0.0137327 0.0208327)
(0.038958 0.0012412 0.00972266)
(-0.0227807 -0.0342673 -0.000618806)
(-0.0102694 -0.0271435 -0.000654923)
(0.0106369 -0.00473372 -0.00325303)
(-0.0139753 -0.0361265 -0.00666402)
(0.0390814 -0.0349009 -0.00194485)
(0.00750967 -0.00580722 0.000361225)
(-0.00386004 -0.00459176 -0.00406049)
(-0.0112282 0.000776099 0.000704642)
(-0.00397143 -0.0120453 0.000218722)
(0.00121658 -0.0115457 0.0491314)
(-0.0203684 -0.0102842 -0.0801087)
(-0.00765132 -0.00889912 -0.0206224)
(-0.0102099 0.00517535 0.0433381)
(0.00999562 -0.00474362 0.000179695)
(0.0055438 -0.00859219 0.000258868)
(0.00467859 -0.0101421 9.61354e-05)
(0.0145087 -0.00607233 0.000913069)
(0.00322982 -0.0130199 -0.000246942)
(0.0243518 -0.00299086 4.47635e-05)
(0.00843024 -0.00463672 -0.000885)
(0.00447863 -0.00866176 -0.00243105)
(0.00213122 -0.0101851 -0.000440083)
(-0.0033821 0.00113359 0.000129751)
(0.000930582 0.00228095 0.000488541)
(-0.000816703 -0.000446603 5.5493e-05)
(-0.00399179 -0.00138494 0.000232356)
(-0.00758057 0.000446699 0.00031632)
(0.000524622 -0.000130925 1.73056e-05)
(0.000343822 -2.99743e-05 7.0238e-06)
(0.000438721 -8.2065e-05 2.05746e-05)
(0.000590305 -8.49644e-05 2.39316e-05)
(0.000282634 -4.44856e-05 5.21255e-06)
(0.000870553 -3.70952e-05 -1.2929e-06)
(0.000928817 -2.65489e-05 -2.3419e-06)
(0.00122715 -6.94947e-05 -1.55296e-06)
(0.000647748 -6.04182e-05 -5.00454e-06)
(0.000678862 -3.58586e-05 -5.39357e-06)
(0.00107323 -0.000109182 -5.41511e-06)
(0.00113398 -5.59987e-05 -4.02542e-06)
(0.000836204 -1.49408e-05 -2.46662e-07)
(0.000855161 8.01822e-06 -4.34365e-07)
(0.00111891 -2.4345e-05 1.25993e-07)
(0.00081869 -7.3237e-06 4.56403e-08)
(0.000828803 1.39692e-06 -5.81714e-09)
(0.00109935 -1.23889e-05 1.86615e-07)
(0.000806954 -3.23221e-06 4.0365e-08)
(0.000812888 2.64193e-06 2.38979e-08)
(0.00108034 -5.21115e-06 1.78288e-07)
(0.000800013 -1.54194e-06 4.7427e-08)
(0.00080304 5.21599e-07 3.60651e-09)
(0.0010694 -2.23237e-06 2.02349e-07)
(0.000794876 -8.45473e-07 4.41569e-08)
(0.000796863 1.14999e-06 4.18205e-08)
(0.00106217 -1.15976e-06 1.73711e-07)
(0.000791059 -4.69147e-07 4.87258e-08)
(0.000792623 7.79745e-07 4.75043e-08)
(0.0010567 -6.33945e-07 1.76836e-07)
(0.000788085 -2.57011e-07 5.17235e-08)
(0.000789341 5.34466e-07 4.853e-08)
(0.0010524 -3.32005e-07 1.7792e-07)
(0.000786001 -2.26119e-07 5.42898e-08)
(0.00078677 2.45541e-07 5.06647e-08)
(0.00104931 -1.89538e-07 1.75291e-07)
(0.00078352 -3.44673e-07 6.10887e-08)
(0.000784524 4.6085e-07 6.27568e-08)
(0.00104633 -3.08928e-07 1.94603e-07)
(0.000782089 -3.1274e-07 6.42097e-08)
(0.000782653 5.5399e-07 5.49377e-08)
(0.00104383 -5.25595e-07 2.03153e-07)
(0.000779567 -1.33455e-07 5.25324e-08)
(0.00078085 5.86655e-07 4.91047e-08)
(0.00104127 -2.75839e-07 1.86104e-07)
(0.000778035 -1.96651e-08 1.58667e-07)
(0.000778976 -1.41302e-07 3.52251e-08)
(0.00103859 -9.37583e-08 1.73788e-07)
(0.00077655 5.43748e-08 1.63121e-07)
(0.000777347 -2.38335e-07 1.65581e-07)
(0.00103661 1.50798e-08 2.02624e-07)
(0.000775234 1.49829e-07 7.83755e-08)
(0.000775806 -1.13783e-07 5.07458e-08)
(0.00103476 9.38687e-08 1.74705e-07)
(0.000773518 3.77836e-07 6.17385e-08)
(0.000774276 -4.40533e-07 5.32713e-08)
(0.00103285 2.77036e-07 9.05317e-08)
(0.000771097 3.28992e-07 4.22826e-08)
(0.000772358 -2.73896e-07 1.72643e-08)
(0.00102996 6.97138e-07 1.28035e-07)
(0.000769711 5.89534e-08 4.81643e-08)
(0.000770611 -3.79358e-07 3.63463e-08)
(0.00102741 1.27914e-07 2.06883e-07)
(0.00076827 -3.48953e-08 4.36649e-08)
(0.000769125 -2.0697e-07 2.55562e-08)
(0.0010256 7.27465e-09 1.68075e-07)
(0.000766732 -5.72142e-08 5.9417e-08)
(0.000767559 3.29579e-08 5.94254e-08)
(0.00102364 -7.50252e-08 1.74988e-07)
(0.000765036 -6.33331e-08 3.11074e-08)
(0.000765986 -7.52718e-08 6.20567e-08)
(0.00102134 -3.16801e-08 1.97296e-07)
(0.000763817 1.5763e-07 1.05974e-08)
(0.000764669 4.8407e-07 -9.45064e-09)
(0.00101949 -8.50877e-08 6.65056e-08)
(0.000762576 4.17978e-07 7.71169e-08)
(0.000763246 7.37417e-07 2.98833e-08)
(0.00101799 5.70967e-07 8.35358e-08)
(0.000760906 4.45985e-07 9.70341e-08)
(0.000761514 3.43768e-07 1.07247e-07)
(0.00101587 6.58086e-07 1.73471e-07)
(0.00075988 4.27357e-07 3.31405e-08)
(0.000760148 4.89952e-07 2.78078e-08)
(0.00101431 6.49191e-07 1.16373e-07)
(0.000757635 3.22052e-07 1.08708e-08)
(0.000758611 2.44003e-08 2.78152e-08)
(0.00101222 5.42342e-07 8.28065e-08)
(0.000755842 8.71343e-08 5.33923e-08)
(0.000756792 2.78001e-07 3.36063e-08)
(0.00100923 3.46515e-07 4.9565e-08)
(0.000754746 -6.50428e-08 7.95878e-08)
(0.000755375 1.35495e-07 7.0896e-08)
(0.00100733 -7.92201e-08 1.62485e-07)
(0.000753591 -7.69557e-09 7.31863e-08)
(0.000754164 1.71149e-08 7.96662e-08)
(0.00100597 -7.99073e-08 2.12678e-07)
(0.000751956 1.43604e-08 6.58337e-08)
(0.000752705 5.20366e-08 6.1812e-08)
(0.00100407 6.5481e-08 1.65501e-07)
(0.00075035 -4.9421e-08 4.01071e-08)
(0.000751171 -2.66834e-08 4.57733e-08)
(0.0010019 -1.19248e-08 1.87098e-07)
(0.000748769 -4.00884e-08 4.69926e-08)
(0.000749575 -2.19198e-07 2.00972e-08)
(0.000999835 -9.39654e-08 1.47439e-07)
(0.000747229 6.42694e-08 5.98494e-08)
(0.000748012 -2.46859e-07 4.21899e-08)
(0.000997664 6.8732e-09 2.07588e-07)
(0.000745721 1.70823e-07 5.09534e-08)
(0.000746579 3.16972e-08 4.6469e-08)
(0.000995591 1.57022e-07 1.69828e-07)
(0.000744205 3.96941e-07 6.31897e-08)
(0.000745153 2.76114e-08 3.95463e-08)
(0.000993564 2.70273e-07 1.85939e-07)
(0.000742877 6.17841e-07 1.03086e-07)
(0.000743751 4.06144e-07 6.69917e-08)
(0.000991791 7.91377e-07 1.7584e-07)
(0.000742397 4.6386e-07 1.117e-07)
(0.000742559 -9.72537e-07 1.09001e-08)
(0.000990705 8.66524e-07 1.67222e-07)
(0.00074076 2.3697e-07 1.05465e-07)
(0.000741323 2.25912e-07 7.11092e-08)
(0.000989189 3.97541e-07 1.88899e-07)
(0.000739169 1.83577e-07 7.30616e-08)
(0.00073992 9.24013e-08 7.63827e-08)
(0.000987067 3.00005e-07 1.71356e-07)
(0.000737694 2.67825e-07 5.45316e-08)
(0.000738526 1.62954e-07 5.11661e-08)
(0.000985013 2.4688e-07 1.6205e-07)
(0.000736156 2.93741e-07 6.74559e-08)
(0.000736867 4.03774e-07 6.26542e-08)
(0.000982912 4.88059e-07 1.59286e-07)
(0.00073471 1.6252e-07 8.10132e-08)
(0.00073526 1.58899e-07 5.14477e-08)
(0.000980864 2.80618e-07 1.65997e-07)
(0.000734231 -6.48456e-07 1.40095e-07)
(0.000979514 1.4424e-07 1.80344e-07)
(-0.00187871 0.00798764 0.000832466)
(-0.00867073 -0.00301707 -0.000351384)
(0.000384224 -0.000784916 0.00124525)
(-0.0162946 -0.00195851 0.00134478)
(0.0118538 0.00978352 0.000193944)
(0.0116634 0.00748872 -3.19984e-07)
(0.00136107 -0.0118429 -0.00232688)
(-0.00878061 0.000496996 -0.00116542)
(-0.0105849 -0.00355088 1.58324e-05)
(0.0128639 0.000394995 -0.0010951)
(-0.0102178 -0.00168514 -0.0026567)
(0.0192355 -0.0013408 -0.00246375)
(0.0166129 0.0100986 0.00125024)
(0.0207813 -0.00196004 -0.000942012)
(0.032304 -0.00454044 0.000590161)
(0.0118309 0.0131529 -0.00367025)
(0.00305419 0.00764168 0.00127375)
(-0.00158824 0.00218997 0.00271414)
(0.0108952 -0.0110416 -0.00260002)
(0.00434875 -0.00222098 -0.00019994)
(-0.0177067 -0.000559453 -0.00272452)
(-0.00327625 0.00679437 -0.00141249)
(-0.00678652 0.0113013 -0.000262122)
(-0.0123697 0.00770773 -0.00155187)
(-0.0094129 0.00621407 -0.00113305)
(0.00153064 0.00258673 1.52231e-05)
(-0.0014935 -0.00170819 0.000400797)
(0.000729901 -0.000975034 0.000261013)
(0.00339813 -0.0101513 0.000722108)
(0.00424817 0.00139681 1.7615e-05)
(-9.424e-05 -0.001475 4.88335e-05)
(0.00196927 0.000584773 -3.47814e-05)
(0.00132816 -0.00138671 3.64817e-06)
(0.000491143 0.00123409 -4.23111e-05)
(0.00224334 0.0018833 -0.000128449)
(0.00173512 0.000154693 7.75121e-05)
(0.000592635 -0.000214959 5.54458e-05)
(0.000935525 -0.000137793 3.30975e-05)
(0.0008493 -0.000116168 8.60586e-05)
(0.000652796 -7.18861e-05 3.18281e-05)
(0.000895302 2.91956e-05 -1.48399e-06)
(0.000635139 7.60894e-05 -1.28007e-06)
(0.00122753 1.5581e-05 -1.80821e-06)
(0.000682659 2.89381e-05 -3.99532e-06)
(0.000719364 2.82724e-05 -2.11289e-07)
(0.00115902 6.07992e-05 -2.80678e-07)
(0.00126931 5.86149e-05 6.84378e-06)
(0.000591128 3.3607e-05 -4.4113e-06)
(0.00105671 0.000141748 -9.00832e-07)
(0.000958329 6.36039e-05 -5.44569e-06)
(0.000843267 2.98614e-05 -1.9366e-07)
(0.000866234 7.21426e-05 -5.58873e-07)
(0.001147 5.50196e-05 1.04574e-07)
(0.000820501 1.33563e-05 -2.75692e-08)
(0.000808155 2.83192e-05 -3.11079e-07)
(0.00110203 1.98287e-05 1.42748e-07)
(0.000807428 8.32713e-06 -1.2854e-08)
(0.000806579 1.7103e-05 1.06622e-07)
(0.00108205 1.3093e-05 1.66079e-07)
(0.000798973 4.72674e-06 -2.01243e-09)
(0.000798526 9.46709e-06 -6.28936e-09)
(0.00106887 7.48641e-06 1.48986e-07)
(0.000794144 2.7228e-06 4.5166e-08)
(0.00079435 5.19226e-06 7.64812e-08)
(0.00106095 4.14728e-06 1.74355e-07)
(0.000790634 1.74964e-06 4.73083e-08)
(0.000791402 3.1226e-06 5.21011e-08)
(0.00105594 2.54017e-06 1.7761e-07)
(0.000787792 1.1961e-06 4.74705e-08)
(0.000788646 2.04527e-06 3.98471e-08)
(0.00105201 1.76569e-06 1.76841e-07)
(0.00078526 6.48728e-07 5.91278e-08)
(0.000786084 1.30478e-06 3.85676e-08)
(0.00104858 1.18887e-06 1.80779e-07)
(0.000783403 2.70642e-07 5.66084e-08)
(0.00078405 6.47156e-07 5.95314e-08)
(0.00104579 4.07504e-07 1.82512e-07)
(0.000781648 1.6681e-08 3.98345e-08)
(0.000782335 6.84702e-07 5.26814e-08)
(0.00104341 2.49625e-07 1.77569e-07)
(0.00078006 -9.03771e-08 3.18019e-08)
(0.000780717 4.58485e-07 5.19166e-08)
(0.00104128 -2.31562e-07 1.81391e-07)
(0.00077828 -2.23801e-08 4.20975e-08)
(0.000779062 6.4004e-08 5.30213e-08)
(0.00103911 -3.27117e-08 1.7544e-07)
(0.000776564 -6.07532e-08 5.3242e-08)
(0.0007773 8.35708e-09 6.00209e-08)
(0.00103678 -8.21645e-08 1.67464e-07)
(0.000774837 -1.95036e-07 2.56408e-08)
(0.000775639 7.49599e-08 9.07413e-08)
(0.00103455 -1.3781e-07 1.72897e-07)
(0.000773316 -3.39146e-07 8.80864e-09)
(0.000774097 -1.45346e-07 1.41221e-07)
(0.00103238 -4.16251e-07 1.48072e-07)
(0.000771627 -2.32347e-07 1.1322e-08)
(0.000772493 -4.38009e-08 5.83001e-08)
(0.00103016 -4.92502e-07 1.67332e-07)
(0.000770101 1.37365e-08 1.37417e-08)
(0.000770919 3.80432e-08 5.4947e-08)
(0.0010281 -1.34078e-07 1.40192e-07)
(0.000768354 1.83963e-07 4.13059e-08)
(0.000769337 3.77761e-07 5.03842e-08)
(0.00102596 1.45599e-07 1.47871e-07)
(0.000766872 3.15079e-07 6.20642e-08)
(0.000767721 -8.79352e-09 6.50557e-08)
(0.00102372 3.37893e-07 1.6869e-07)
(0.000765505 5.51723e-07 2.15212e-08)
(0.000766279 5.16766e-07 5.66327e-08)
(0.00102181 5.38601e-07 1.14374e-07)
(0.000764248 6.39732e-07 9.82283e-09)
(0.000764775 8.10564e-07 -8.77165e-10)
(0.00102021 1.03073e-06 1.23687e-07)
(0.000762124 4.52127e-07 5.99891e-08)
(0.000763008 3.66898e-07 2.53118e-08)
(0.00101798 7.9985e-07 2.49662e-07)
(0.000760665 4.1629e-07 3.80457e-08)
(0.000761466 3.53229e-07 7.01112e-08)
(0.00101549 5.51987e-07 1.64445e-07)
(0.000759082 2.4279e-07 2.24825e-08)
(0.000759929 3.00276e-07 9.19372e-09)
(0.00101342 7.24165e-07 1.89951e-07)
(0.000757642 7.2543e-09 5.05489e-08)
(0.000758315 -9.8836e-08 2.39327e-07)
(0.00101146 7.48316e-08 1.72865e-07)
(0.000756225 1.32888e-07 5.10985e-08)
(0.000756948 1.21068e-07 5.15976e-08)
(0.00100962 2.72026e-08 1.73756e-07)
(0.000754837 2.19335e-07 7.09718e-08)
(0.000755482 4.06249e-07 6.08014e-08)
(0.00100769 3.29172e-07 1.41026e-07)
(0.000753344 8.23129e-08 6.82975e-08)
(0.000753993 2.84438e-08 6.87817e-08)
(0.00100584 2.35938e-07 1.69232e-07)
(0.000751908 -5.72561e-08 4.17566e-08)
(0.00075253 -8.68124e-08 4.76621e-08)
(0.00100386 -3.25663e-08 1.75348e-07)
(0.000750408 -1.43385e-07 2.57713e-08)
(0.000751064 5.58477e-08 5.57585e-08)
(0.00100197 -1.29866e-07 1.65653e-07)
(0.00074872 -1.7763e-07 1.52876e-08)
(0.000749533 -1.74212e-07 2.81965e-08)
(0.000999787 -2.93616e-07 1.85551e-07)
(0.000747436 -8.0229e-08 2.88082e-08)
(0.000748134 -1.85324e-07 -5.57387e-08)
(0.000997728 -2.57257e-07 1.4856e-07)
(0.000746053 6.51578e-08 3.5064e-08)
(0.000746761 3.54587e-08 5.55207e-08)
(0.000995956 6.66215e-09 1.62135e-07)
(0.000744629 2.34908e-07 4.33399e-08)
(0.000745364 1.06632e-07 2.19135e-07)
(0.000994283 2.32221e-07 1.60847e-07)
(0.000743305 4.84112e-07 -2.51769e-08)
(0.000744061 4.41641e-07 3.17864e-08)
(0.000992406 5.02912e-07 1.55436e-07)
(0.000741594 4.44726e-07 -2.9709e-08)
(0.000742507 -9.47596e-07 -1.64406e-08)
(0.000990298 8.30548e-07 1.91779e-07)
(0.000740511 2.04266e-07 4.20251e-08)
(0.000741021 7.10971e-08 4.78818e-08)
(0.000988464 3.41549e-07 1.48423e-07)
(0.00073922 1.56728e-07 5.44949e-08)
(0.00073986 6.27664e-08 4.14228e-08)
(0.000986849 1.87277e-07 1.58724e-07)
(0.000737863 2.71258e-07 5.92852e-08)
(0.000738668 1.13953e-06 3.82012e-08)
(0.000985177 1.96068e-07 9.19103e-08)
(0.000735835 2.84226e-07 4.66494e-08)
(0.000736882 1.26788e-06 1.99666e-08)
(0.000982838 4.60241e-07 1.61748e-07)
(0.000734649 2.12355e-07 1.10502e-07)
(0.000735167 -2.1252e-08 4.60999e-08)
(0.000980643 2.57169e-07 1.61692e-07)
(0.000733967 -1.18458e-06 1.1267e-07)
(0.000979259 3.11638e-07 2.01598e-07)
(0.0135919 0.00157315 0.000543597)
(0.00688303 -0.0143153 0.00165357)
(0.0112429 -0.00367839 -0.000129308)
(0.015615 0.000151903 0.000694816)
(0.00197695 0.00991745 0.0005534)
(-0.0170095 0.00242726 0.000849301)
(-0.0208809 -0.000546091 -0.0244312)
(-0.0301855 0.00175705 -0.0063574)
(-0.0222905 -0.00252435 0.0205254)
(-0.0325209 -0.00549735 0.00932379)
(-0.0165296 -0.000426555 7.54781e-05)
(-0.0201636 -0.00215096 -0.000524448)
(-0.0033099 0.0016301 -0.0046979)
(-0.00272774 -0.0104646 -0.0013693)
(-0.00254004 0.00475426 0.00301279)
(-0.0133117 0.0125647 -0.0036583)
(-0.00763868 -0.0252371 -0.0100421)
(0.00752308 0.00701828 0.00159863)
(0.0258679 0.00627787 0.00142833)
(0.00443509 0.00847101 0.000679025)
(-0.00417926 -0.0206531 -0.000885867)
(0.0232408 0.0081927 0.00490232)
(-0.00941475 -0.00558877 0.000645305)
(0.00615899 0.0197262 0.00301225)
(0.0229958 -0.00772005 0.0013962)
(0.00346135 -0.0181301 0.00238258)
(-0.0130549 -0.0276617 0.00257885)
(0.00153105 -0.01175 0.00481629)
(0.0126486 0.0093 0.000178347)
(0.0187747 0.00226334 0.000131455)
(0.0204351 -0.0032123 -0.000408672)
(0.00642363 -0.0130882 0.000539)
(0.010519 -0.00442931 0.00136462)
(0.00188327 -0.00703652 -0.000151634)
(0.000112012 -0.00806959 -4.3118e-05)
(0.00695899 0.000184399 -0.000113146)
(-0.00505291 -0.000977499 -0.000445738)
(-0.0109896 0.00201227 -0.000985001)
(0.00085763 0.000563955 2.99169e-05)
(0.00162826 0.000487899 1.62473e-05)
(0.00165133 0.000500285 2.34985e-05)
(0.00155759 0.000571731 -4.09024e-05)
(0.00133312 0.000253646 2.53537e-05)
(0.000351397 5.47641e-05 -2.29697e-06)
(0.00048584 6.62371e-05 -3.06008e-06)
(0.000472141 9.01234e-05 4.63107e-07)
(0.000804366 0.000136967 -4.53245e-07)
(0.000347964 7.67347e-05 -2.45075e-06)
(0.000638424 0.000101517 -2.65477e-06)
(0.000627916 0.000154745 -2.78034e-06)
(0.000799417 5.11202e-05 -6.76373e-07)
(0.000848182 5.00348e-05 -6.80788e-07)
(0.00115222 8.8754e-05 -7.94424e-07)
(0.000593461 5.42371e-05 -3.79547e-06)
(0.000582898 6.07548e-05 -4.8883e-06)
(0.000966428 8.66593e-05 -4.83008e-06)
(0.00094384 0.000100875 -6.44389e-06)
(0.000798152 2.47569e-05 -1.77024e-07)
(0.000775245 2.96408e-05 -5.01946e-07)
(0.00104692 3.76127e-05 5.55872e-08)
(0.000796043 1.43154e-05 1.13224e-07)
(0.000793486 1.72537e-05 2.13706e-07)
(0.00106487 2.2501e-05 2.07932e-07)
(0.000793146 8.14143e-06 7.21774e-08)
(0.000790785 1.09516e-05 4.75966e-08)
(0.00105819 1.20958e-05 1.83799e-07)
(0.000791387 4.87105e-06 8.34242e-08)
(0.00079025 4.77571e-06 1.03687e-07)
(0.00105597 7.45225e-06 2.16858e-07)
(0.000789344 2.69941e-06 4.46438e-08)
(0.000788681 3.6239e-06 5.51831e-08)
(0.00105371 4.21572e-06 1.78224e-07)
(0.000786808 1.44807e-06 3.09446e-08)