/*--------------------------------*- C++ -*----------------------------------*\
| =========                 |                                                 |
| \\      /  F ield         | OpenFOAM: The Open Source CFD Toolbox           |
|  \\    /   O peration     | Version:  5.0                                   |
|   \\  /    A nd           | Web:      www.OpenFOAM.org                      |
|    \\/     M anipulation  |                                                 |
\*---------------------------------------------------------------------------*/
FoamFile
{
    version     2.0;
    format      ascii;
    class       surfaceVectorField;
    location    "1.1";
    object      Uf_0;
}
// * * * * * * * * * * * * * * * * * * * * * * * * * * * * * * * * * * * * * //

dimensions      [0 1 -1 0 0 0 0];

internalField   nonuniform List<vector> 
26902
(
(-0.018808 -0.00165989 0.000768846)
(-0.00528499 -0.000130452 0.000965625)
(0.00515226 0.00674939 0.00283978)
(-0.00335294 0.00323595 -0.000279474)
(0.00907322 0.010724 -3.34109e-05)
(0.0073221 0.0125055 3.6759e-05)
(0.0148736 0.0182725 -0.0010119)
(-0.0119307 0.000649934 0.000545966)
(-0.00941008 -0.000222279 0.00217799)
(-0.0175358 -0.000304865 2.16111e-05)
(-0.0188269 0.00199129 -0.00109501)
(-0.0211825 0.000600225 -0.000443404)
(-0.0204823 0.00177504 -3.72419e-05)
(-0.00160993 0.0031516 0.000730024)
(0.00729672 0.00337864 0.000250194)
(0.00654197 0.0109105 0.000181692)
(0.0027155 0.00550578 0.00131031)
(0.00574943 0.0067846 -0.000382057)
(-0.00149609 0.00507846 0.000129884)
(-0.00155869 -0.00529442 0.000772382)
(-0.00327277 0.00833249 -0.00010347)
(-0.000196018 0.00812429 0.000245777)
(-0.00745891 0.00264913 -0.000118211)
(-0.000749543 0.00925866 0.000346797)
(0.00123081 0.00301607 0.000364377)
(0.00102109 0.00162693 4.11497e-06)
(0.00194201 2.93611e-05 7.1314e-05)
(0.00163143 0.000230162 7.86111e-05)
(0.00264434 0.000897818 -9.80004e-05)
(0.000357913 0.000109911 -2.65079e-06)
(0.000472691 9.14272e-05 -3.13574e-06)
(0.00044663 0.000122528 -1.61362e-06)
(0.000799465 0.000183324 -1.85371e-06)
(0.000296366 0.000104054 -1.86303e-06)
(0.000687963 0.00022716 -2.52506e-06)
(0.000539231 0.000210937 7.53587e-07)
(0.000788724 5.90307e-05 -1.10397e-06)
(0.000782726 5.98941e-05 -1.71304e-06)
(0.00107859 9.77021e-05 -1.35145e-06)
(0.000572907 7.15091e-05 -3.84866e-06)
(0.000553032 7.27292e-05 -3.92106e-06)
(0.0009786 0.000124892 -3.90209e-06)
(0.000937135 0.000127691 -4.03426e-06)
(0.000792849 3.25516e-05 -6.6477e-08)
(0.000771363 3.37426e-05 -1.64297e-07)
(0.00104921 5.20578e-05 1.23382e-07)
(0.000793838 1.89024e-05 9.37543e-08)
(0.000786845 2.01764e-05 1.33115e-07)
(0.00106011 3.00004e-05 1.95665e-07)
(0.000793057 1.10658e-05 7.19755e-08)
(0.000788918 1.21643e-05 6.45365e-08)
(0.00105808 1.74779e-05 1.7217e-07)
(0.00079213 6.5588e-06 2.96677e-08)
(0.000790108 7.5058e-06 5.8413e-08)
(0.00105701 1.02165e-05 1.73613e-07)
(0.000790938 3.97201e-06 3.58261e-09)
(0.000789954 4.64789e-06 2.06441e-08)
(0.00105564 6.13971e-06 1.79729e-07)
(0.000789402 2.44849e-06 2.76027e-08)
(0.000789128 2.87846e-06 2.92318e-08)
(0.00105374 3.76982e-06 1.7151e-07)
(0.000787579 1.49976e-06 3.84635e-08)
(0.000787875 1.71359e-06 4.3708e-08)
(0.00105136 2.34686e-06 1.72103e-07)
(0.000786063 8.26522e-07 4.26141e-08)
(0.000786432 1.37199e-06 6.0165e-08)
(0.00104915 1.38596e-06 1.58478e-07)
(0.000784537 4.23095e-07 5.53319e-08)
(0.000785027 5.74499e-07 4.50897e-08)
(0.00104709 6.54999e-07 1.76024e-07)
(0.000783184 1.54476e-07 6.15553e-08)
(0.000783628 2.51388e-07 6.45822e-08)
(0.00104524 3.7716e-07 1.76228e-07)
(0.000780942 -1.31794e-08 7.47361e-08)
(0.000782023 1.05399e-06 5.84837e-08)
(0.00104274 -3.68802e-09 1.98169e-07)
(0.000779712 -4.52744e-08 6.40468e-08)
(0.000780504 9.55645e-08 5.54271e-08)
(0.00104039 -4.95718e-08 1.25423e-07)
(0.000778419 2.69991e-08 4.25204e-08)
(0.000779149 2.76337e-07 -6.70501e-08)
(0.00103886 -8.86353e-08 1.15094e-07)
(0.000776887 7.51964e-08 5.26571e-08)
(0.000777598 -5.89523e-07 5.02829e-08)
(0.00103686 1.86473e-07 1.94106e-07)
(0.000775589 2.49446e-08 1.36904e-07)
(0.0007761 -7.7497e-07 2.11504e-07)
(0.00103497 7.95659e-08 1.91557e-07)
(0.000773952 1.16416e-07 1.34245e-07)
(0.000774811 1.71461e-07 1.76735e-07)
(0.00103304 2.54788e-08 1.72108e-07)
(0.000772488 2.23733e-07 6.27307e-08)
(0.000773302 -3.39926e-08 5.87301e-08)
(0.00103093 3.16803e-07 1.66478e-07)
(0.000771059 2.05589e-07 5.20807e-08)
(0.00077173 3.13717e-07 1.11844e-07)
(0.00102901 3.72895e-07 1.74507e-07)
(0.000769825 1.26829e-07 4.11826e-08)
(0.000770305 2.95233e-07 3.39545e-08)
(0.0010272 2.71146e-07 1.26318e-07)
(0.0007686 1.33844e-07 5.01417e-08)
(0.000769046 -1.11183e-07 4.72146e-08)
(0.00102575 1.05996e-07 1.72051e-07)
(0.000766148 -3.45982e-08 5.91062e-08)
(0.000767228 6.03809e-07 5.37738e-08)
(0.00102315 2.53399e-07 2.70083e-07)
(0.000764938 -4.59023e-07 1.90483e-09)
(0.000765378 -5.00959e-07 7.02255e-08)
(0.00102061 -3.73351e-07 1.74165e-07)
(0.000763592 -6.12035e-07 -2.82764e-08)
(0.000764251 2.02838e-06 3.83028e-08)
(0.00101907 -8.88899e-07 -2.60563e-08)
(0.00076201 -4.8876e-07 4.36495e-08)
(0.00076293 1.04196e-06 2.58649e-08)
(0.00101692 -7.66381e-07 8.3263e-08)
(0.000761179 -3.55589e-07 6.58604e-08)
(0.000761662 7.1987e-08 1.35664e-07)
(0.00101537 -5.303e-07 1.59697e-07)
(0.000759619 -1.60379e-07 4.65033e-08)
(0.000760523 -1.7844e-07 1.52178e-07)
(0.00101395 -3.61765e-07 1.77582e-07)
(0.000758347 8.03708e-08 4.37046e-08)
(0.000759107 -1.47387e-07 4.55501e-08)
(0.001012 1.5811e-08 1.7161e-07)
(0.000756691 1.79654e-07 9.60445e-08)
(0.000757555 -1.31776e-07 4.25933e-08)
(0.00101004 2.5684e-07 1.72261e-07)
(0.000755033 1.73063e-07 9.62772e-08)
(0.000756012 9.06539e-08 9.38851e-08)
(0.00100776 2.41841e-07 2.14279e-07)
(0.000753814 2.70532e-07 9.50294e-09)
(0.000754593 1.01645e-07 4.83263e-08)
(0.0010057 2.42265e-07 1.58683e-07)
(0.000752374 3.87037e-07 3.38696e-08)
(0.000753204 2.25507e-07 3.77586e-10)
(0.00100406 5.47124e-07 1.82291e-07)
(0.000751619 2.37993e-07 5.97842e-08)
(0.000751899 -9.25825e-07 5.14083e-08)
(0.00100273 5.33122e-07 1.81197e-07)
(0.000750104 5.73009e-08 4.9708e-08)
(0.000750648 8.4558e-08 4.18574e-08)
(0.0010011 1.04369e-07 1.65026e-07)
(0.000748668 -1.10919e-07 8.2472e-08)
(0.000749154 -1.09674e-09 6.56511e-08)
(0.000999002 4.42024e-08 1.65409e-07)
(0.000747412 -2.53419e-07 1.64651e-07)
(0.000747893 -4.01441e-07 5.79572e-08)
(0.000997488 -3.86647e-07 1.73555e-07)
(0.000746047 -1.67007e-07 1.39809e-07)
(0.000746733 -3.45245e-07 1.60302e-07)
(0.000995607 -3.47204e-07 1.64756e-07)
(0.000744545 -7.04435e-08 4.7695e-08)
(0.000745305 1.49405e-07 5.33935e-08)
(0.000993585 -1.47269e-07 1.63875e-07)
(0.000743118 -9.00892e-08 4.82673e-08)
(0.000743846 3.11955e-08 5.12409e-08)
(0.000991733 -1.14313e-07 1.5179e-07)
(0.000741862 -2.74681e-07 4.20832e-08)
(0.000742464 -5.65037e-08 4.93708e-08)
(0.000989865 -1.89338e-07 1.61145e-07)
(0.000740446 -3.85772e-07 1.45599e-08)
(0.000741157 -2.43115e-07 4.05504e-08)
(0.000988243 -5.4882e-07 1.6601e-07)
(0.000738854 -2.93217e-07 2.37684e-08)
(0.00073964 9.64257e-07 3.28181e-08)
(0.000986144 -4.65599e-07 9.83559e-08)
(0.000738361 -4.93394e-07 4.19588e-08)
(0.000983915 -3.3124e-07 2.58914e-07)
(-0.000324872 -0.00604504 -0.000170645)
(0.00490073 0.00057045 -1.14378e-05)
(0.000817686 0.00708532 -1.06203e-05)
(0.00318231 0.00131076 -0.00124587)
(0.00372548 0.00270165 0.000267947)
(0.0121428 -0.00502173 9.86097e-05)
(0.00577674 -0.0134962 0.000321075)
(0.00294711 -0.00676088 0.000335908)
(-0.00640628 -0.0058266 -0.00110666)
(-0.0164987 -0.00742419 -0.00261538)
(0.00484281 -0.0226083 -0.00773883)
(0.000662389 -0.018527 -0.00247332)
(-0.00298037 0.00189662 0.00028284)
(0.010644 0.00198063 0.000378699)
(0.00480954 0.00129818 0.000433216)
(0.00711145 -0.00171001 0.000428863)
(0.0059764 0.000271563 0.000729712)
(-0.00239915 0.00562072 0.000110162)
(0.00611654 -0.00149263 0.000105696)
(-0.000115279 0.00158132 0.000614105)
(-0.0049685 -0.00256151 0.000352761)
(0.00399133 -0.00432245 0.000601872)
(-0.00494236 -0.011005 0.000731609)
(-0.00188824 0.00732208 0.000580138)
(-0.00650916 0.00357337 -0.000324787)
(-0.00554794 -0.00139259 0.0010269)
(0.00421489 0.00231894 -0.00114498)
(-0.00377963 -0.00174081 5.7606e-05)
(0.0111288 0.00331571 0.000726987)
(-0.0041004 -0.00203519 0.000673484)
(0.00139837 0.00384261 0.000282665)
(0.00401453 0.0028774 5.19663e-05)
(0.00235524 0.00288885 0.000498263)
(0.00216639 0.00250522 0.000158141)
(-0.000325987 0.002024 0.000102593)
(-0.00735251 0.00244839 0.000134639)
(-0.00424113 -0.000389657 0.000368148)
(0.00152845 -0.00270482 0.000578966)
(-0.000621983 -0.00525099 -7.79742e-05)
(-0.00606904 -0.00562148 -0.000131382)
(0.00205816 -0.00444192 -3.92119e-05)
(-0.000127109 -0.0061721 -0.000921034)
(-0.00472585 -0.0083182 -0.000622136)
(0.000297992 5.61969e-05 2.40088e-06)
(0.00037959 9.95321e-05 6.78928e-07)
(0.000340407 2.67445e-05 -7.87342e-07)
(0.00057314 4.45894e-05 1.22832e-05)
(0.000250954 9.09895e-06 3.23359e-05)
(0.000613599 0.000132055 7.05085e-06)
(0.00037385 2.22514e-05 8.07313e-05)
(0.00025826 -9.15793e-06 1.41157e-06)
(0.00048948 -3.43613e-05 8.75201e-06)
(0.000480577 -4.77013e-05 -2.49287e-06)
(0.000248246 -1.92969e-05 -8.20472e-07)
(0.000748836 2.21722e-05 -7.73875e-07)
(0.000782437 -6.0049e-06 -1.72741e-06)
(0.00101553 3.15867e-05 -1.00473e-06)
(0.000487968 2.40492e-05 -3.66953e-06)
(0.000531423 -2.82532e-06 -4.50686e-06)
(0.000807156 3.96653e-05 -3.39573e-06)
(0.000907931 -2.09538e-05 -5.00385e-06)
(0.000771692 1.54218e-05 3.51972e-08)
(0.000762682 3.5884e-06 -1.44421e-07)
(0.00101129 2.25995e-05 1.56222e-07)
(0.000782103 1.05237e-05 1.03919e-07)
(0.000780689 4.94208e-06 1.08902e-07)
(0.00104031 1.56118e-05 1.99952e-07)
(0.000786565 7.09177e-06 5.0976e-08)
(0.000784607 4.68291e-06 4.63049e-08)
(0.00104703 1.06092e-05 1.77321e-07)
(0.000788168 4.70062e-06 4.94018e-08)
(0.000787104 3.53829e-06 4.37249e-08)
(0.00105078 7.12982e-06 1.81153e-07)
(0.000788273 3.00161e-06 4.62905e-08)
(0.000787821 2.51513e-06 4.21816e-08)
(0.00105148 4.65435e-06 1.83619e-07)
(0.000787733 1.84491e-06 4.53324e-08)
(0.000787676 1.66196e-06 4.48008e-08)
(0.00105098 2.85242e-06 1.76056e-07)
(0.000786763 1.11165e-06 6.54041e-08)
(0.000786955 1.04574e-06 4.67684e-08)
(0.00104988 1.73896e-06 1.74841e-07)
(0.000785357 7.29627e-07 6.26454e-08)
(0.000785953 9.47026e-07 6.83592e-08)
(0.0010482 1.01008e-06 1.95303e-07)
(0.000784145 5.15095e-07 5.43336e-08)
(0.000784758 3.51844e-07 4.43032e-08)
(0.00104647 7.89395e-07 1.64233e-07)
(0.000782525 2.75779e-07 6.15126e-08)
(0.000783327 3.0213e-07 6.83973e-08)
(0.00104454 4.83011e-07 1.80215e-07)
(0.000781518 2.03721e-07 3.91757e-08)
(0.000781933 1.35802e-06 8.74578e-08)
(0.00104272 2.10428e-07 1.09695e-07)
(0.000779951 3.02313e-07 -7.56305e-08)
(0.000780626 1.76739e-07 3.29948e-08)
(0.00104099 3.28513e-07 1.73387e-07)
(0.000778372 3.03071e-07 -5.9325e-08)
(0.000779149 4.61727e-08 -7.34661e-08)
(0.00103893 4.6757e-07 1.96005e-07)
(0.000776701 3.48194e-07 2.09078e-07)
(0.000777652 1.14633e-07 5.11084e-08)
(0.00103678 3.34134e-07 1.392e-07)
(0.000775427 3.58677e-07 2.51346e-07)
(0.000776111 4.38248e-07 2.11635e-07)
(0.0010346 6.13465e-07 6.90899e-08)
(0.000774161 2.31505e-07 1.01257e-07)
(0.000774651 2.25836e-07 4.82787e-08)
(0.00103312 4.03419e-07 1.49239e-07)
(0.000772471 1.10318e-07 1.07826e-07)
(0.000773149 -4.93931e-08 5.35457e-08)
(0.00103125 2.95945e-07 1.9143e-07)
(0.000770999 -7.87532e-09 9.37423e-08)
(0.000771581 9.29443e-08 9.26199e-08)
(0.00102892 7.5913e-08 1.86918e-07)
(0.000769461 -1.31736e-07 3.99823e-08)
(0.00077015 7.01468e-08 3.31115e-08)
(0.00102689 -3.28592e-08 1.9328e-07)
(0.000768008 -5.11875e-07 5.08446e-08)
(0.000768572 -1.47369e-07 5.13653e-08)
(0.001025 -2.77719e-07 1.73012e-07)
(0.000766148 -6.38962e-07 6.4888e-08)
(0.000767071 1.28635e-06 -1.69665e-09)
(0.00102275 -1.07384e-06 1.58509e-07)
(0.00076463 -4.57009e-07 1.06634e-07)
(0.000765608 -2.26379e-07 4.79514e-08)
(0.00102038 -6.23987e-07 1.57369e-07)
(0.000763703 -3.60466e-07 9.2448e-08)
(0.000764373 7.48922e-08 1.18043e-07)
(0.0010189 -5.78388e-07 2.63141e-07)
(0.000762488 1.32657e-09 1.17845e-07)
(0.000763382 -7.3794e-08 5.75817e-08)
(0.0010175 -3.57723e-07 2.29896e-07)
(0.000761083 2.8039e-07 2.21977e-07)
(0.00076201 6.24271e-07 2.47179e-07)
(0.00101568 4.35967e-07 1.28755e-07)
(0.000759989 1.98371e-07 1.51258e-07)
(0.000760419 7.86788e-07 1.82664e-07)
(0.0010141 4.27505e-07 7.21356e-08)
(0.000758358 5.73116e-08 4.44398e-08)
(0.000758929 1.88284e-07 6.89287e-08)
(0.00101225 1.63121e-07 1.64993e-07)
(0.000756869 6.41456e-09 4.0418e-08)
(0.000757491 8.58615e-08 4.67307e-08)
(0.00101003 8.14823e-09 1.60911e-07)
(0.000755521 9.20958e-08 4.59484e-08)
(0.000756118 9.01326e-08 1.32173e-07)
(0.00100818 4.19016e-08 1.64273e-07)
(0.000754033 2.58408e-07 3.92158e-08)
(0.000754799 9.27927e-08 5.3117e-08)
(0.00100643 2.60263e-07 1.77612e-07)
(0.000752615 4.00043e-07 1.79005e-08)
(0.000753379 4.34061e-07 3.63622e-08)
(0.00100438 5.25225e-07 1.55995e-07)
(0.000750975 2.75276e-07 3.34844e-08)
(0.000751742 -7.15042e-07 7.17992e-08)
(0.00100222 6.19469e-07 1.75923e-07)
(0.000749808 -9.8058e-08 5.77932e-08)
(0.000750181 -1.21643e-07 7.52387e-08)
(0.00100046 1.36546e-07 1.63479e-07)
(0.000748245 -4.35628e-07 4.11387e-08)
(0.000748733 4.74914e-07 4.95747e-08)
(0.000998563 -3.6294e-07 1.50112e-07)
(0.000747217 -4.70288e-07 5.35765e-08)
(0.000747852 -1.01215e-06 2.92587e-08)
(0.0009968 -7.34716e-07 1.8043e-07)
(0.000746073 -2.44534e-07 7.3919e-08)
(0.000747017 -1.04426e-07 8.27649e-08)
(0.000995579 -5.34775e-07 1.29245e-07)
(0.000744588 -1.45908e-07 5.694e-08)
(0.00074543 -1.64741e-07 4.95072e-08)
(0.000993758 -1.87434e-07 2.00429e-07)
(0.000743174 -9.89198e-08 5.2345e-08)
(0.000743906 -7.88255e-08 5.45697e-08)
(0.000991741 -2.36629e-07 1.7921e-07)
(0.000741746 -1.01025e-07 4.78406e-08)
(0.000742462 -8.06494e-08 4.54932e-08)
(0.000989932 -2.0336e-08 1.74174e-07)
(0.000740411 -2.3137e-07 5.88109e-08)
(0.000740994 -3.3628e-07 4.94853e-08)
(0.000988089 -2.06955e-07 1.70568e-07)
(0.000738978 -2.6364e-07 5.10057e-08)
(0.000739602 2.07786e-07 6.98667e-08)
(0.000986111 -3.86019e-07 2.28001e-07)
(0.000738689 1.05286e-07 4.64523e-08)
(0.000984889 -3.17002e-07 7.39742e-08)
(0.0217811 0.00779508 -0.000651431)
(0.0191222 -0.00937498 -0.0033854)
(0.0176449 -0.00936052 -0.000592445)
(-0.0152802 0.00386336 -0.00251159)
(0.0122461 -0.00739515 -0.0058305)
(0.057534 -0.00991801 0.0114442)
(0.0549577 0.00126472 0.0064288)
(-0.0380334 -0.00865158 -0.00683485)
(-0.00195226 -0.0756545 -0.00201033)
(-0.0239706 0.0274536 -0.00786943)
(0.00596804 -0.0406538 -0.0175128)
(0.0891704 -0.0519933 -0.00785643)
(0.0123788 -0.00440698 0.000219973)
(-0.00608275 0.00182475 5.03904e-05)
(-0.0270238 0.00764434 0.003798)
(-0.000279201 -0.0113999 0.000316247)
(-0.000928292 -0.000238 0.0534932)
(-0.0200049 0.00210545 -0.02116)
(-0.00574792 0.00674192 -0.0234971)
(-0.00672952 0.00415506 -0.0256131)
(0.00867135 -0.00379247 0.000252753)
(0.00487077 -0.00720066 0.000134709)
(0.00415678 -0.00599621 0.000533088)
(0.0138649 -0.00366289 0.000621433)
(0.00287659 -0.0130015 -0.000261599)
(0.0243449 -0.00262675 6.6501e-05)
(0.00825 -0.00443079 -0.000905034)
(0.004279 -0.00858175 -0.00246759)
(0.00183931 -0.0099852 -0.000482833)
(-0.0035964 0.00122589 0.000135572)
(0.000677587 0.00258008 0.000518698)
(-0.000934623 -0.000279721 5.79442e-05)
(-0.00416388 -0.00121855 0.000237315)
(-0.0078075 0.00058118 0.000299969)
(0.00043226 -0.000103666 1.3905e-05)
(0.000259356 -3.34113e-06 6.73092e-06)
(0.000349618 -6.11589e-05 2.00566e-05)
(0.000448131 -4.93665e-05 2.34823e-05)
(0.000200154 -2.51682e-05 5.35136e-06)
(0.000774217 -1.73875e-05 -1.09847e-06)
(0.000814936 -3.96556e-05 -2.50356e-06)
(0.00108159 -3.99021e-05 -1.04464e-06)
(0.000535191 -3.64059e-05 -4.81024e-06)
(0.000559817 -3.232e-05 -5.29864e-06)
(0.000896868 -7.22087e-05 -5.07978e-06)
(0.000945186 -5.61871e-05 -3.90576e-06)
(0.000778751 -2.5272e-06 -7.07993e-08)
(0.0007813 -2.70892e-06 -2.70564e-07)
(0.00102857 -5.92151e-06 9.03683e-08)
(0.000783602 5.8472e-07 5.1308e-08)
(0.000784594 -3.09367e-06 -2.51937e-08)
(0.00104505 -7.3352e-07 1.82172e-07)
(0.000785938 1.71693e-06 3.90547e-08)
(0.000786024 -8.50828e-08 6.14547e-08)
(0.00104743 2.17836e-06 1.73002e-07)
(0.000787107 1.54967e-06 3.65053e-08)
(0.000786893 2.4855e-07 2.81687e-08)
(0.00104954 2.22892e-06 1.71616e-07)
(0.000787444 1.16111e-06 4.0691e-08)
(0.000787332 3.32889e-07 3.93899e-08)
(0.00105028 1.74124e-06 1.67191e-07)
(0.000787046 7.82107e-07 4.62361e-08)
(0.0007872 3.0076e-07 4.51286e-08)
(0.00105008 1.22766e-06 1.73884e-07)
(0.000786226 4.62088e-07 4.97165e-08)
(0.000786554 1.84339e-07 4.75404e-08)
(0.00104905 7.71771e-07 1.754e-07)
(0.0007854 2.52378e-07 5.00248e-08)
(0.00078569 8.3049e-08 4.99524e-08)
(0.00104795 4.11646e-07 1.75779e-07)
(0.000784039 9.78149e-08 5.83591e-08)
(0.000784564 1.99425e-07 5.34895e-08)
(0.00104643 2.28817e-07 1.7229e-07)
(0.000782582 7.02858e-09 9.43363e-08)
(0.000783214 2.44022e-07 6.74043e-08)
(0.00104451 -1.61735e-09 1.73658e-07)
(0.000781151 1.43852e-08 8.12944e-08)
(0.000781942 7.88593e-07 7.74001e-08)
(0.00104254 -3.58664e-08 2.06699e-07)
(0.000779866 -1.60953e-08 3.51934e-08)
(0.000780589 -8.56021e-08 3.56509e-08)
(0.00104071 1.14531e-08 1.72794e-07)
(0.000778383 -2.94392e-08 3.69275e-08)
(0.000779132 7.27822e-07 6.10595e-08)
(0.00103886 -7.28557e-08 1.2438e-07)
(0.000777092 6.78925e-08 5.36143e-08)
(0.000777774 -1.41057e-07 4.68e-08)
(0.00103704 -5.33861e-09 1.72876e-07)
(0.0007753 1.39783e-07 8.61981e-09)
(0.0007762 4.86598e-08 1.74473e-08)
(0.00103505 1.72426e-07 2.25978e-07)
(0.000773691 4.80881e-08 5.65469e-10)
(0.000774536 -8.9035e-09 6.38785e-09)
(0.00103264 2.29851e-07 1.99313e-07)
(0.000772165 5.83339e-09 3.83268e-08)
(0.000773095 1.91596e-07 4.89385e-08)
(0.00103051 -7.53307e-08 1.59092e-07)
(0.000770775 9.73482e-09 3.2008e-08)
(0.000771586 -1.86707e-08 3.31018e-08)
(0.0010286 6.54047e-08 1.72114e-07)
(0.000769338 -2.14768e-08 4.44887e-08)
(0.000770111 2.13046e-07 4.92788e-08)
(0.00102676 -4.29742e-08 1.58581e-07)
(0.000767549 -9.53801e-09 -1.15914e-09)
(0.000768587 1.61848e-08 6.89546e-08)
(0.00102445 1.64809e-08 1.88402e-07)
(0.000766598 2.44859e-07 -1.86489e-08)
(0.000767388 -8.34359e-07 1.1595e-08)
(0.00102272 -3.63368e-09 2.75951e-07)
(0.000765138 6.55205e-07 5.93389e-08)
(0.000766119 -1.19072e-06 2.31546e-08)
(0.00102124 6.96661e-07 2.39763e-07)
(0.000764165 7.79087e-07 8.31957e-08)
(0.000764525 -9.35469e-07 5.63299e-08)
(0.00101941 1.07237e-06 2.00563e-07)
(0.000762962 6.13017e-07 1.86856e-07)
(0.000763172 -1.95748e-06 3.314e-08)
(0.00101819 9.97611e-07 2.83295e-07)
(0.000761328 4.53794e-07 2.07886e-07)
(0.000761808 4.85612e-07 1.70943e-07)
(0.00101635 6.19483e-07 1.98198e-07)
(0.000759368 2.96903e-07 1.0037e-07)
(0.000760222 2.94925e-07 8.03727e-08)
(0.00101361 5.61189e-07 2.52687e-07)
(0.000758047 1.46659e-07 7.12265e-08)
(0.000758741 6.0072e-08 7.55728e-08)
(0.00101148 1.82971e-07 1.70333e-07)
(0.000756713 1.16587e-07 1.38459e-07)
(0.000757453 -9.00476e-08 6.65261e-08)
(0.00100988 1.51834e-07 1.7523e-07)
(0.000755407 7.42582e-08 1.39366e-07)
(0.000756065 9.75739e-08 1.46567e-07)
(0.00100807 1.27281e-07 1.59913e-07)
(0.000754104 9.2849e-08 5.02686e-08)
(0.000754822 9.22117e-08 5.30202e-08)
(0.0010063 6.50232e-08 1.60477e-07)
(0.000752651 9.74581e-08 9.025e-08)
(0.000753384 5.99746e-07 1.84977e-08)
(0.0010045 1.49985e-07 1.6221e-07)
(0.00075085 3.43602e-08 1.13552e-07)
(0.000751663 4.75467e-07 7.63256e-08)
(0.00100224 7.52555e-08 1.19921e-07)
(0.000749126 -4.65176e-08 6.70281e-08)
(0.00075008 -1.01831e-07 3.02487e-08)
(0.000999873 1.98589e-08 1.97405e-07)
(0.000747992 2.00953e-07 3.77009e-08)
(0.000749042 3.90647e-07 4.1257e-08)
(0.000997915 -9.48906e-08 1.51796e-07)
(0.000748058 3.51287e-07 5.84306e-08)
(0.000748038 -2.47168e-06 4.56714e-08)
(0.000997279 7.07624e-07 1.42898e-07)
(0.000746361 8.88324e-08 5.83633e-08)
(0.000746687 2.09771e-07 4.74038e-08)
(0.000996296 3.4328e-07 1.74055e-07)
(0.000744684 1.2004e-08 4.71354e-08)
(0.000745333 5.93234e-07 4.62866e-08)
(0.000993963 6.53162e-08 1.40041e-07)
(0.000743185 1.00486e-07 4.77207e-08)
(0.000744015 -2.37244e-07 5.78244e-08)
(0.000991944 1.25786e-07 1.90402e-07)
(0.000741674 1.26058e-07 4.71366e-08)
(0.000742493 2.03169e-07 5.33203e-08)
(0.000989904 2.6094e-07 1.59318e-07)
(0.000740209 9.59654e-08 6.05348e-08)
(0.000740956 -7.80337e-08 3.98246e-08)
(0.000987788 1.72692e-07 1.56761e-07)
(0.000739101 8.7221e-08 6.53205e-08)
(0.00073959 -1.85904e-07 5.15593e-08)
(0.000986015 1.38672e-07 1.71731e-07)
(0.00073858 1.00977e-07 5.43726e-08)
(0.000984791 1.09865e-07 1.5504e-07)
(-0.0031165 0.0124304 0.0011503)
(-0.0126562 -0.000722995 -0.000535001)
(-0.000864893 -0.00500277 0.00133566)
(-0.0182989 0.00118039 0.00225447)
(0.0121897 0.00757437 0.00072407)
(0.0134311 0.00485049 4.22268e-05)
(0.0045295 -0.0123091 -0.00172169)
(-0.00498452 0.000285028 -0.00134829)
(-0.00117367 -0.000450881 8.73458e-05)
(0.0219656 0.00465507 0.000128221)
(-0.0064367 0.00234702 -0.00572359)
(0.0293197 -0.00437187 0.0010626)
(0.00345154 0.00701179 0.000624832)
(0.0287437 -0.000761921 -0.000933699)
(0.0188864 -0.0143039 -0.0023006)
(0.00697363 -0.000783832 -0.000161006)
(0.00442886 0.0119807 0.00053158)
(0.004347 0.00440366 0.00107003)
(0.0198501 -0.0154017 -0.000274473)
(0.00528414 0.00690381 0.000155682)
(-0.0227098 0.00110203 -0.00194146)
(-0.0016365 0.00514019 -0.00126882)
(-0.00799038 0.00818996 -0.000982758)
(-0.00903578 0.00400015 -0.00212003)
(-0.00907268 0.00292929 -0.000752863)
(0.00123388 0.0026149 -2.10442e-05)
(-0.00112928 -0.00119836 0.000322276)
(0.000536812 0.000114838 0.000249854)
(0.0028371 -0.00933026 0.000531754)
(0.00319666 0.0019772 0.000290715)
(-0.000331973 -0.00114374 3.81655e-05)
(0.00189995 0.00109577 -6.80626e-05)
(0.00112847 -0.00100719 -1.65797e-05)
(0.000381493 0.00187884 -1.63991e-05)
(0.00218448 0.00258718 -0.000138586)
(0.00155773 0.000116022 7.26698e-05)
(0.000483244 -0.000240846 5.35887e-05)
(0.000827054 -0.000184116 2.48665e-05)
(0.000675717 -0.000172736 8.14419e-05)
(0.000546476 -9.98481e-05 3.09199e-05)
(0.000804631 -1.27416e-05 -1.67639e-06)
(0.000574573 3.66046e-06 -1.80765e-06)
(0.00109957 -4.46983e-05 -1.36806e-06)
(0.000573608 -1.43037e-05 -4.11286e-06)
(0.000617517 -2.37113e-05 -6.83864e-07)
(0.0009784 -3.95605e-06 -2.12378e-07)
(0.00108945 -2.181e-05 5.62729e-06)
(0.000541063 -2.60863e-05 -4.5829e-06)
(0.000969904 2.73287e-05 -1.66566e-06)
(0.000893623 -2.90814e-05 -5.57067e-06)
(0.000788601 3.96074e-06 -2.25038e-07)
(0.000814192 1.63405e-05 -5.46115e-07)
(0.00106036 1.52701e-05 1.14366e-07)
(0.000787465 -1.5266e-06 -1.50753e-08)
(0.000777754 -3.19224e-06 -2.80444e-07)
(0.00105049 -2.61906e-06 1.4984e-07)
(0.000787254 -5.73217e-07 5.05796e-08)
(0.000787215 -1.6047e-06 1.38471e-07)
(0.00105074 -2.18701e-07 1.68194e-07)
(0.000787343 -5.99191e-07 3.10497e-08)
(0.000786859 -1.6781e-06 2.30365e-08)
(0.00105023 -6.08507e-07 1.70536e-07)
(0.000787292 -4.36351e-07 4.38256e-08)
(0.000787535 -1.48465e-06 1.27268e-07)
(0.00105022 -5.61484e-07 1.75201e-07)
(0.000786836 -2.61481e-07 4.64321e-08)
(0.000787419 -1.00224e-06 5.00957e-08)
(0.00104977 -3.40448e-07 1.74731e-07)
(0.000786071 -1.39837e-07 4.77755e-08)
(0.000786705 -7.31559e-07 3.18651e-08)
(0.00104886 -1.79946e-07 1.74389e-07)
(0.000784967 -1.35773e-07 5.3416e-08)
(0.000785694 -4.39642e-07 4.83724e-08)
(0.00104752 -6.18815e-08 1.75937e-07)
(0.000783766 -1.8947e-07 6.25302e-08)
(0.000784497 -4.16469e-07 5.27061e-08)
(0.00104595 -2.20911e-07 1.90348e-07)
(0.000782513 -2.14591e-07 5.04648e-08)
(0.000783183 5.73848e-08 5.46441e-08)
(0.00104421 -2.34599e-07 1.6481e-07)
(0.000781507 -1.79537e-07 3.177e-08)
(0.000781986 1.2041e-07 1.01978e-07)
(0.00104274 -3.1508e-07 1.76824e-07)
(0.000779787 -1.41381e-07 6.15088e-08)
(0.000780637 7.63267e-08 2.37782e-08)
(0.00104095 -1.83689e-07 1.80982e-07)
(0.000778532 -1.9048e-07 7.09365e-08)
(0.000779072 -1.37757e-08 7.76327e-08)
(0.00103891 -2.28411e-07 2.03389e-07)
(0.000777003 -2.56774e-07 1.06424e-08)
(0.000777692 -6.47402e-08 4.00143e-08)
(0.00103709 -3.03953e-07 1.70504e-07)
(0.000775274 -2.17776e-07 1.52189e-08)
(0.00077625 9.80759e-07 3.41856e-08)
(0.00103489 -4.11778e-07 1.28365e-07)
(0.000774013 -8.44646e-08 5.47474e-08)
(0.000774703 9.39115e-08 7.86256e-08)
(0.00103281 -2.22849e-07 1.45347e-07)
(0.000772535 4.45491e-08 4.37186e-08)
(0.000773257 2.68292e-08 6.917e-08)
(0.00103105 -6.09419e-08 1.83254e-07)
(0.000770835 1.92213e-07 5.03676e-08)
(0.00077177 1.90484e-07 4.92302e-08)
(0.00102896 1.39677e-07 1.76828e-07)
(0.000769479 3.29448e-07 7.37385e-08)
(0.000770281 -6.97737e-08 6.60902e-08)
(0.00102683 3.61493e-07 1.81344e-07)
(0.000768202 6.23658e-07 8.17269e-08)
(0.000768952 -5.19045e-07 5.4446e-08)
(0.00102504 5.4809e-07 1.92631e-07)
(0.000767145 7.88039e-07 5.33948e-08)
(0.00076759 -2.1374e-06 4.19896e-08)
(0.0010236 1.18842e-06 2.27748e-07)
(0.000765378 7.67327e-07 2.01352e-08)
(0.000766089 3.58436e-08 3.2946e-08)
(0.00102172 9.87626e-07 1.122e-07)
(0.000763609 8.04374e-07 6.28149e-09)
(0.000764567 -1.48508e-07 3.62212e-08)
(0.00101927 1.09779e-06 1.43778e-07)
(0.000761918 5.35795e-07 1.71842e-08)
(0.000762833 -4.42236e-07 2.06776e-08)
(0.00101693 1.07864e-06 8.55994e-08)
(0.000760824 1.46907e-07 4.34577e-08)
(0.000761321 3.69776e-09 3.40128e-08)
(0.00101513 3.68146e-07 1.7455e-07)
(0.000759492 6.93753e-08 5.55768e-08)
(0.000760124 1.42333e-07 5.01026e-08)
(0.00101355 1.80316e-08 1.72735e-07)
(0.00075821 1.08471e-07 7.08753e-08)
(0.000758789 -9.92632e-08 5.83552e-08)
(0.00101174 1.76663e-07 1.69175e-07)
(0.000756728 6.04708e-08 7.46095e-08)
(0.000757393 3.77556e-08 6.43924e-08)
(0.00100996 1.24244e-07 1.66683e-07)
(0.000755441 -1.84333e-09 6.02505e-08)
(0.000755987 -5.94466e-08 6.09847e-08)
(0.00100807 2.04064e-08 1.70067e-07)
(0.000754242 -1.95909e-07 2.126e-08)
(0.00075458 -1.87435e-07 5.31591e-08)
(0.00100646 -6.0669e-08 1.71102e-07)
(0.000752417 -3.31414e-07 4.55545e-09)
(0.000753216 2.55484e-06 5.36236e-08)
(0.0010044 -4.84688e-07 6.70452e-08)
(0.000750845 -1.44942e-07 -6.96394e-09)
(0.000751897 1.2596e-06 5.4464e-08)
(0.00100206 -4.16821e-07 1.2861e-07)
(0.000749731 2.3292e-07 4.47417e-09)
(0.000750552 -4.57807e-08 4.38375e-09)
(0.00100024 2.06775e-08 1.39815e-07)
(0.000749313 5.45256e-07 4.92262e-08)
(0.00074943 -5.53644e-08 9.85965e-08)
(0.000999419 5.97895e-07 1.13378e-07)
(0.000746684 4.77187e-07 3.4644e-08)
(0.00074795 -1.20588e-06 6.125e-08)
(0.000997343 8.51375e-07 1.8947e-07)
(0.000745585 1.71904e-07 3.53274e-08)
(0.000746303 4.57288e-07 2.52269e-08)
(0.00099477 4.70828e-07 1.24655e-07)
(0.000744719 6.78187e-09 5.69722e-08)
(0.000745125 1.11753e-07 8.31616e-08)
(0.000993481 7.14704e-08 1.5638e-07)
(0.000743386 -8.39144e-09 6.34254e-08)
(0.000743996 1.05161e-07 5.166e-08)
(0.000991981 5.8401e-10 1.3894e-07)
(0.000741615 4.62704e-08 4.60124e-08)
(0.000742561 -2.85659e-07 2.08512e-08)
(0.000989986 -7.97837e-09 2.39221e-07)
(0.000740451 1.6723e-07 3.08455e-08)
(0.000741107 -2.56313e-07 -1.18328e-07)
(0.000987934 1.24215e-07 1.61235e-07)
(0.000738852 2.30733e-07 4.06106e-08)
(0.000739666 1.37067e-07 3.53314e-08)
(0.000986027 3.12761e-07 1.64154e-07)
(0.000738293 3.72687e-07 6.90304e-08)
(0.000984579 3.05066e-07 1.12318e-07)
(0.00554331 -4.20842e-05 0.00138139)
(0.000351252 -0.0230522 0.00145398)
(0.00891048 -0.0037388 0.00207448)
(0.0139728 0.0143955 0.00172893)
(0.00450294 0.0147645 0.000116604)
(-0.0108061 0.00374707 0.000250738)
(-0.0214829 0.00634668 -0.0239344)
(-0.0210142 0.0072999 0.00131863)
(-0.0226685 0.000275613 0.0197389)
(-0.00665563 -0.00543902 0.00437148)
(-0.0069019 9.58823e-05 0.00013532)
(-0.00746739 -0.00133773 -0.000370818)
(0.00116244 0.000876162 -0.00139516)
(-0.000424896 -0.00587739 -0.000499601)
(-0.0151701 0.000396128 0.000381491)
(0.00133621 0.0078362 -0.00125755)
(0.00549021 -0.0111506 -0.00265936)
(-0.000614768 0.00507159 0.000491997)
(0.00951316 0.0118533 0.000874283)
(-0.00232615 0.00810534 -0.000114134)
(-0.00908809 -0.00338627 0.000104106)
(0.0129863 0.0253468 0.00276373)
(-0.0143183 0.00115737 -9.88158e-05)
(0.00920253 0.00600918 0.00125131)
(0.0163853 -0.000170647 0.000403924)
(0.0104523 0.00455283 -0.00154828)
(0.0159877 0.00612268 0.000680098)
(0.00602946 -0.001376 0.000488885)
(0.00691761 0.0144033 -0.00115123)
(0.010659 0.0173594 -0.00153287)
(0.0251097 -0.00784458 -0.000702209)
(-0.0150971 0.00511977 7.01596e-05)
(0.00356585 0.00677121 -0.000590751)
(0.000724377 -0.00505494 -5.84628e-05)
(-0.00386224 -0.000199318 0.00058196)
(0.00199399 -0.00057838 -3.49711e-05)
(-0.00675949 -0.00575779 -1.05915e-05)
(-0.0111023 -0.000431305 -0.000446037)
(0.000674055 0.000237723 2.65317e-05)
(0.00149799 0.000310214 1.38965e-05)
(0.00159476 0.000210355 1.93163e-05)
(0.00140623 0.000263882 -4.31064e-05)
(0.00126547 0.000102382 2.35592e-05)
(0.000319339 6.58321e-06 -2.56276e-06)
(0.000458525 5.56349e-06 -3.41617e-06)
(0.000448942 1.99626e-05 7.93433e-08)
(0.000746793 3.7268e-05 -1.46154e-06)
(0.000323289 2.44936e-05 -2.67144e-06)
(0.000584779 1.97674e-05 -3.10727e-06)
(0.000588547 6.33265e-05 -3.22795e-06)
(0.000777182 1.38131e-06 -6.01608e-07)
(0.000836236 -1.29484e-05 -6.95591e-07)
(0.00111343 1.35386e-05 -7.74069e-07)
(0.000564313 -2.46542e-06 -3.83035e-06)
(0.000566457 4.92338e-06 -4.75761e-06)
(0.000922745 -3.37826e-06 -4.81833e-06)
(0.000922128 1.12853e-05 -6.27941e-06)
(0.000782906 -5.21332e-06 -1.27035e-07)
(0.000769612 -1.04361e-05 -4.09509e-07)
(0.00102574 -7.14244e-06 4.92237e-08)
(0.000786222 -3.93198e-06 1.10965e-07)
(0.00078882 -8.02418e-06 2.09427e-07)
(0.00104995 -4.82589e-06 2.01534e-07)
(0.000787336 -3.00746e-06 1.19221e-07)
(0.000788018 -4.79335e-06 8.74773e-08)
(0.00104911 -4.38902e-06 1.63792e-07)
(0.00078789 -1.97478e-06 1.33564e-07)
(0.00078883 -4.28645e-06 1.39744e-07)
(0.00105061 -2.78792e-06 1.90612e-07)
(0.000787356 -1.31393e-06 3.55347e-08)
(0.000788247 -2.2386e-06 5.31149e-08)
(0.00105056 -1.94224e-06 1.76469e-07)
(0.000786425 -8.21433e-07 3.24568e-08)
(0.000787323 -1.42305e-06 4.19547e-08)
(0.0010494 -1.25478e-06 1.72803e-07)