/*--------------------------------*- C++ -*----------------------------------*\
| =========                 |                                                 |
| \\      /  F ield         | OpenFOAM: The Open Source CFD Toolbox           |
|  \\    /   O peration     | Version:  5.0                                   |
|   \\  /    A nd           | Web:      www.OpenFOAM.org                      |
|    \\/     M anipulation  |                                                 |
\*---------------------------------------------------------------------------*/
FoamFile
{
    version     2.0;
    format      ascii;
    class       volScalarField;
    location    "1.8";
    object      alpha.water;
}
// * * * * * * * * * * * * * * * * * * * * * * * * * * * * * * * * * * * * * //

dimensions      [0 0 0 0 0 0 0];

internalField   nonuniform List<scalar> 
9235
(
0.901194
1.02615
0.998816
0.988096
1.00051
1
-2.93624e-17
-8.68777e-20
6.38659e-17
8.17457e-18
5.91015e-20
1.62766e-23
8.87266e-28
2.62688e-31
1.06408e-34
4.48945e-38
1.82225e-41
7.74559e-45
3.25091e-48
1.27653e-51
6.0029e-55
2.53e-58
9.9459e-62
3.66318e-65
1.8858e-68
3.47462e-71
1.01386e-74
1.51133e-78
1.5198e-81
7.56145e-85
1.14175e-87
6.89148e-92
3.30778e-94
8.978e-97
2.15693e-100
1.4186e-103
1.11023e-106
2.70865e-109
1.96021e-113
1.7761e-117
7.32586e-120
1.32763e-122
9.27399e-126
3.91536e-128
4.1902e-132
9.89204e-135
2.11395e-138
1.15439e-142
3.46256e-144
1.11971e-145
1.05773
1.00809
1.00518
0.993824
1.01544
0.990281
-3.15156e-18
-5.84089e-19
5.00145e-22
4.4349e-19
1.30575e-20
1.5105e-23
2.10784e-27
2.66652e-31
9.03723e-35
3.71828e-38
1.56299e-41
6.56693e-45
2.82927e-48
1.12169e-51
4.6695e-55
1.93842e-58
1.00098e-61
4.71515e-65
1.78961e-68
9.53898e-72
3.04019e-75
1.30537e-78
8.38857e-82
5.14175e-85
2.18988e-88
4.95759e-91
5.65725e-95
1.26423e-97
3.32253e-101
5.35184e-104
2.12744e-107
1.47638e-111
5.41207e-113
3.84874e-116
5.29936e-120
6.45623e-123
5.19227e-127
1.03144e-130
2.59433e-133
1.37214e-136
3.84578e-139
7.4404e-143
2.8809e-145
3.91611e-146
1.06492
1.01861
1.01205
1.00088
1.02703
1.00827
0.117916
-2.35747e-24
1.90139e-16
4.40923e-19
4.24298e-20
1.64314e-21
1.55788e-24
5.32613e-29
9.81744e-33
3.88706e-36
1.58812e-39
6.48583e-43
2.6475e-46
1.07399e-49
4.37359e-53
1.76998e-56
7.16965e-60
2.90114e-63
1.17695e-66
4.98366e-70
2.06464e-73
7.6266e-77
3.53307e-80
2.74683e-83
5.59256e-87
2.0537e-90
2.47264e-92
1.90886e-95
2.73729e-99
8.52996e-103
4.25886e-106
5.74246e-110
6.47678e-112
5.18733e-115
1.36398e-118
2.44287e-122
7.40818e-125
9.24292e-129
1.19043e-131
3.28683e-135
2.43907e-137
1.13015e-140
3.17789e-144
2.08465e-145
1.05636
0.974023
0.992191
1.01545
0.956275
0.999371
0.971124
-1.70084e-19
-2.00849e-19
4.85225e-17
8.86645e-19
1.88162e-21
5.29514e-24
1.23517e-27
1.07344e-31
3.55006e-35
1.46055e-38
6.1026e-42
2.51454e-45
1.03686e-48
4.28909e-52
1.76065e-55
7.85694e-59
3.30284e-62
1.46044e-65
5.57694e-69
2.09524e-72
1.91672e-75
7.11918e-79
1.71423e-82
3.20565e-85
4.43235e-88
9.01176e-92
1.70906e-95
4.8692e-98
1.00461e-101
3.20032e-105
4.3458e-108
2.77652e-110
1.67102e-113
1.72455e-117
6.06039e-120
7.25904e-124
1.14969e-126
1.2486e-129
5.38415e-133
1.17491e-136
4.98752e-140
4.44917e-143
3.29148e-145
0.993494
0.917269
0.712368
1.013
1.0054
1.01494
1.00025
-8.60614e-16
-3.55537e-18
2.52694e-16
1.12682e-17
1.6292e-20
5.28652e-24
1.42537e-27
2.3676e-31
8.06197e-35
3.32557e-38
1.3992e-41
5.87158e-45
2.46922e-48
1.02591e-51
4.44514e-55
1.78552e-58
7.46771e-62
3.13892e-65
1.8111e-68
5.89696e-72
3.2538e-75
2.72319e-78
1.01453e-81
9.91918e-85
1.11964e-88
4.14945e-91
7.03149e-95
1.40091e-98
8.86138e-102
5.37134e-104
1.75659e-107
1.33415e-111
1.69301e-114
3.36406e-118
8.51426e-122
3.16109e-125
1.42327e-127
1.10051e-129
4.10601e-133
2.9486e-135
1.54385e-138
1.69832e-141
4.77257e-145
1.01834
1.13616
1.00449
1.02518
1.04478
1.00939
1.00072
-6.71035e-17
-2.90693e-18
2.00286e-16
9.2203e-18
1.40538e-20
4.25349e-24
1.06715e-27
1.87794e-31
6.52617e-35
2.71073e-38
1.1628e-41
4.83273e-45
2.11479e-48
8.6368e-52
3.57264e-55
1.48265e-58
7.30325e-62
2.63712e-65
4.7013e-68
6.58624e-72
2.70774e-75
4.05824e-78
6.57365e-81
8.51312e-84
6.11463e-88
1.79282e-91
1.03869e-94
1.9839e-97
4.84124e-101
2.01201e-104
4.59198e-107
3.62082e-111
7.3001e-115
2.15004e-116
7.70613e-119
3.40039e-122
3.81851e-126
9.01017e-130
1.20623e-132
1.39876e-136
3.77892e-140
3.48567e-143
2.75892e-145
1.03099
1.01156
0.729823
1.01245
1.01969
1.01602
1.00033
-3.03786e-17
-2.11026e-19
4.55444e-17
8.52244e-19
1.94534e-21
5.97437e-24
1.49391e-27
1.23528e-31
4.01924e-35
1.65231e-38
6.85518e-42
2.84104e-45
1.17461e-48
5.03231e-52
2.00341e-55
8.41234e-59
3.37673e-62
1.66181e-65
5.75964e-69
2.30493e-72
1.14379e-75
1.88045e-78
3.19813e-82
8.12222e-86
8.3359e-89
1.6322e-92
1.50386e-95
4.47941e-99
7.13961e-102
2.39643e-105
1.02535e-107
7.20304e-111
8.63487e-114
8.14319e-118
7.41237e-121
2.51617e-124
2.70338e-128
2.69703e-130
6.32634e-134
5.30827e-136
1.66057e-139
1.01225e-143
4.61069e-145
1.07285
0.979549
0.877245
0.966527
1.07015
1.00178
0.817992
-1.68505e-18
1.21844e-16
3.28431e-20
4.77925e-20
1.78274e-21
1.49112e-24
5.7442e-29
1.07507e-32
4.25762e-36
1.74022e-39
7.10478e-43
2.89784e-46
1.18371e-49
4.787e-53
1.95946e-56
7.95107e-60
3.17389e-63
1.27831e-66
5.47941e-70
2.72541e-73
8.67021e-77
3.39596e-80
3.20913e-83
6.51242e-87
9.84862e-90
5.2711e-93
1.16594e-96
7.27476e-100
1.20016e-102
1.5008e-106
2.57613e-109
2.48797e-112
1.5749e-116
3.59091e-120
3.902e-122
4.32531e-125
2.83522e-128
2.9015e-132
3.75174e-136
1.38186e-139
5.32192e-143
2.82417e-145
6.63157e-146
1.02538
1.00803
0.997434
1.01173
1.00939
0.994509
0.0407545
-2.12548e-19
-1.92164e-22
5.33566e-19
1.22642e-20
1.62926e-23
2.35347e-27
2.83708e-31
9.77941e-35
4.02966e-38
1.6881e-41
7.05259e-45
2.95378e-48
1.21816e-51
4.99632e-55
2.08911e-58
8.54089e-62
3.57799e-65
3.41737e-68
7.72301e-72
2.6757e-75
1.15034e-78
4.69684e-82
1.94888e-85
2.83768e-87
1.03924e-90
6.54594e-95
1.75974e-98
1.15471e-100
4.44883e-104
2.54409e-107
2.52828e-111
5.50534e-115
5.84215e-117
1.2349e-119
2.005e-122
3.67336e-126
2.84003e-130
8.28283e-134
3.5157e-137
4.83867e-139
1.05136e-141
1.41708e-144
8.94619e-146
1.01913
1.00212
0.946127
0.998716
1.03319
0.992482
-5.89694e-17
-2.06594e-18
-7.95339e-24
7.65511e-18
1.50436e-19
4.38854e-23
1.21347e-27
3.46359e-31
1.40823e-34
5.90513e-38
2.36417e-41
9.71198e-45
4.01892e-48
1.94332e-51
6.72017e-55
2.75056e-58
1.09449e-61
4.44748e-65
2.17508e-68
7.60164e-72
5.50919e-75
2.09395e-78
1.43774e-80
2.12588e-84
7.17674e-88
2.5201e-90
1.62377e-93
8.34084e-97
3.4919e-101
1.39462e-103
2.80668e-106
2.7919e-110
1.83869e-112
2.42953e-116
3.05177e-120
4.73176e-124
1.14828e-125
3.69127e-129
4.46497e-132
4.81102e-135
2.12689e-138
1.12253e-141
6.7247e-145
7.10011e-146
1.01004
1.00129
1.03772
0.993503
1.01482
1.00039
2.59523e-10
4.66161e-16
1.3043e-17
1.25771e-17
7.96055e-19
2.29028e-21
2.47739e-25
4.06639e-29
2.84932e-32
2.01699e-35
1.38563e-38
9.49713e-42
6.50047e-45
4.44058e-48
3.03071e-51
2.06476e-54
1.40362e-57
9.53008e-61
6.45847e-64
4.36773e-67
2.95088e-70
1.98962e-73
1.33845e-76
8.98998e-80
6.02462e-83
4.02843e-86
2.69139e-89
1.79491e-92
1.19546e-95
7.94877e-99
5.27147e-102
3.48711e-105
2.30398e-108
1.52073e-111
1.00178e-114
6.58867e-118
4.32495e-121
2.83282e-124
1.85297e-127
1.20894e-130
7.87391e-134
5.12289e-137
3.32568e-140
1.30863e-143
1
1.0397
0.935712
0.997825
1.03498
0.996699
3.26492e-08
1.02062e-14
1.86703e-17
7.20508e-18
1.60209e-19
1.75766e-22
3.84879e-26
9.77741e-30
6.13505e-33
4.4914e-36
3.18895e-39
2.23678e-42
1.56773e-45
1.09587e-48
7.65193e-52
5.32941e-55
3.70416e-58
2.57061e-61
1.77963e-64
1.22904e-67
8.47259e-71
5.82697e-74
3.99664e-77
2.73624e-80
1.87036e-83
1.27508e-86
8.68056e-90
5.89998e-93
3.99976e-96
2.70608e-99
1.82684e-102
1.23017e-105
8.27215e-109
5.54641e-112
3.70977e-115
2.47733e-118
1.65108e-121
1.09864e-124
7.29821e-128
4.83783e-131
3.19866e-134
2.11138e-137
1.3905e-140
5.70036e-144
1.06836
1.03121
1.00117
0.99776
1.02501
1.01034
0.124425
7.81338e-13
1.08864e-14
5.34317e-17
3.19837e-19
9.48193e-22
4.1046e-25
1.69725e-28
1.09983e-31
7.81385e-35
5.53618e-38
3.88948e-41
2.72231e-44
1.90197e-47
1.32632e-50
9.23299e-54
6.4103e-57
4.44375e-60
3.07108e-63
2.11828e-66
1.45889e-69
1.00212e-72
6.86907e-76
4.70947e-79
3.21927e-82
2.19694e-85
1.49754e-88
1.0181e-91
6.89712e-95
4.66976e-98
3.15627e-101
2.12857e-104
1.43326e-107
9.62747e-111
6.45142e-114
4.31654e-117
2.88748e-120
1.92622e-123
1.28318e-126
8.53415e-130
5.66231e-133
3.75011e-136
2.47837e-139
9.74123e-143
1
1.00297
0.994339
1.02072
0.991247
0.999411
0.965774
1.49073e-12
1.24828e-16
1.98375e-16
1.10941e-17
3.81931e-20
1.19226e-23
2.18449e-27
1.31714e-30
9.85293e-34
7.10422e-37
5.04983e-40
3.58405e-43
2.53899e-46
1.79496e-49
1.26545e-52
8.89303e-56
6.23983e-59
4.36372e-62
3.0439e-65
2.11962e-68
1.47177e-71
1.02008e-74
7.05158e-78
4.86099e-81
3.34175e-84
2.29157e-87
1.56814e-90
1.07068e-93
7.29535e-97
4.959e-100
3.36204e-103
2.27391e-106
1.53436e-109
1.03264e-112
6.94731e-116
4.65904e-119
3.11531e-122
2.07743e-125
1.38352e-128
9.19094e-132
6.09348e-135
4.02982e-138
1.57862e-141
0.910348
0.961888
0.953075
1
0.927493
1.01891
1.00068
3.44678e-10
1.48172e-15
1.84067e-15
1.51076e-16
6.53069e-19
1.04108e-22
1.3325e-26
8.90861e-30
6.41322e-33
4.48069e-36
3.1137e-39
2.16079e-42
1.49767e-45
1.03773e-48
7.18124e-52
4.96028e-55
3.42408e-58
2.35973e-61
1.62328e-64
1.11607e-67
7.66104e-71
5.24772e-74
3.58969e-77
2.45158e-80
1.67103e-83
1.13782e-86
7.73129e-90
5.24381e-93
3.55301e-96
2.40256e-99
1.62085e-102
1.092e-105
7.3475e-109
4.9354e-112
3.31007e-115
2.21547e-118
1.47958e-121
9.86712e-125
6.56772e-128
4.36257e-131
2.89351e-134
1.91495e-137
7.50566e-141
0.951796
0.845391
1.04699
1.00176
1.05168
1.00382
1.00142
6.32369e-10
3.01089e-15
3.22078e-15
2.68513e-16
1.21501e-18
1.97616e-22
2.30892e-26
1.53779e-29
1.10004e-32
7.61212e-36
5.24472e-39
3.60908e-42
2.47944e-45
1.70153e-48
1.16629e-51
7.9816e-55
5.45598e-58
3.72326e-61
2.53617e-64
1.72751e-67
1.17475e-70
7.97329e-74
5.40544e-77
3.65553e-80
2.46762e-83
1.66527e-86
1.12217e-89
7.5443e-93
5.06655e-96
3.39671e-99
2.27338e-102
1.52007e-105
1.01467e-108
6.76206e-112
4.50059e-115
2.98916e-118
1.98028e-121
1.31024e-124
8.6548e-128
5.70516e-131
3.75864e-134
2.47311e-137
9.64902e-141
1.08604
0.99845
0.958394
1.0509
1.08139
1.01026
1.00286
9.77879e-11
9.696e-17
1.48283e-16
7.63388e-18
2.2174e-20
7.63271e-24
1.7088e-27
1.01576e-30
7.65347e-34
5.59647e-37
4.02062e-40
2.88007e-43
2.05847e-46
1.46741e-49
1.04285e-52
7.38069e-56
5.21509e-59
3.67767e-62
2.57821e-65
1.80579e-68
1.26117e-71
8.78293e-75
6.10421e-78
4.22206e-81
2.91861e-84
2.01311e-87
1.38392e-90
9.4916e-94
6.49066e-97
4.42869e-100
3.0143e-103
2.04692e-106
1.38508e-109
9.35938e-113
6.31224e-116
4.24334e-119
2.8441e-122
1.90246e-125
1.26951e-128
8.45488e-132
5.6169e-135
3.72777e-138
1.47085e-141
1.16492
1.04787
0.986834
0.996585
1.0776
1.01623
0.817581
2.69562e-12
1.77839e-14
6.35376e-18
3.84622e-19
9.92574e-22
3.74963e-25
1.8198e-28
1.21816e-31
8.5901e-35
6.02496e-38
4.20227e-41
2.92093e-44
2.02671e-47
1.40471e-50
9.71552e-54
6.70478e-57
4.62037e-60
3.17809e-63
2.1809e-66
1.49394e-69
1.02124e-72
6.9679e-76
4.75072e-79
3.23417e-82
2.1976e-85
1.49075e-88
1.00867e-91
6.81046e-95
4.59408e-98
3.09273e-101
2.07819e-104
1.39492e-107
9.34189e-111
6.24156e-114
4.16711e-117
2.77495e-120
1.84447e-123
1.22441e-126
8.11376e-130
5.36184e-133
3.53972e-136
2.33523e-139
9.16419e-143
1.05307
1.02924
0.999871
1.00497
1.09008
1.02271
0.0482124
3.7363e-14
3.61273e-17
5.97996e-18
8.50343e-20
9.44399e-23
2.18103e-26
6.45568e-30
4.32562e-33
3.186e-36
2.27558e-39
1.60872e-42
1.13554e-45
7.99848e-49
5.62506e-52
3.94567e-55
2.76086e-58
1.92808e-61
1.34397e-64
9.34119e-68
6.48122e-71
4.48741e-74
3.09883e-77
2.13634e-80
1.46969e-83
1.00744e-86
6.89638e-90
4.70923e-93
3.20846e-96
2.18164e-99
1.48046e-102
1.00253e-105
6.77574e-109
4.57019e-112
3.07377e-115
2.06358e-118
1.38268e-121
9.23833e-125
6.16472e-128
4.10543e-131
2.72739e-134
1.80879e-137
1.19652e-140
4.9601e-144
0.928911
0.742217
0.861475
0.966201
1.00285
1
1.09978e-08
3.33434e-15
1.14829e-17
7.68383e-18
5.10418e-19
1.87108e-21
2.69791e-25
3.59425e-29
2.44519e-32
1.73682e-35
1.19249e-38
8.16154e-42
5.58074e-45
3.80817e-48
2.59487e-51
1.76443e-54
1.19758e-57
8.12075e-61
5.49587e-64
3.71209e-67
2.5046e-70
1.68689e-73
1.13382e-76
7.61309e-80
5.10151e-83
3.40998e-86
2.27531e-89
1.51604e-92
1.00837e-95
6.70063e-99
4.44346e-102
2.94029e-105
1.9426e-108
1.28178e-111
8.44262e-115
5.55295e-118
3.64575e-121
2.38834e-124
1.56225e-127
1.02009e-130
6.64901e-134
4.33029e-137
2.81311e-140
1.11196e-143
1.0672
0.990715
0.964734
1.04847
1.01258
0.998456
2.55203e-11
-8.65463e-20
9.71306e-18
3.98471e-18
3.871e-20
1.19719e-23
5.99529e-28
1.72933e-31
7.01201e-35
3.0724e-38
1.19204e-41
5.00449e-45
2.21295e-48
1.2722e-51
4.20947e-55
1.82643e-58
7.36595e-62
2.70179e-65
2.59531e-68
1.73266e-71
8.87403e-75
1.43591e-78
3.65055e-81
4.62812e-85
9.58675e-88
8.60634e-92
2.34869e-94
5.97529e-97
2.0547e-100
7.91764e-104
1.84879e-106
7.76293e-110
2.80254e-114
7.90511e-116
2.93844e-119
1.17554e-123
2.95282e-126
2.98816e-130
1.17624e-132
8.47918e-135
1.87885e-138
8.55239e-142
1.00058e-144
7.33673e-146
0.979258
0.998921
0.893078
0.963575
1.02351
1.01188
2.37254e-08
-5.58776e-19
-2.01948e-31
5.73614e-19
1.56187e-20
1.60238e-23
2.27316e-27
2.85842e-31
9.63744e-35
3.95741e-38
1.6517e-41
7.25588e-45
3.09927e-48
1.22187e-51
5.20934e-55
2.11076e-58
1.04058e-61
3.96622e-65
1.77401e-68
6.74146e-72
3.23559e-75
1.29297e-78
3.86383e-81
8.52401e-85
8.50712e-88
9.17709e-91
8.70079e-94
1.80018e-97
1.04936e-100
3.89064e-104
1.03583e-107
3.04439e-111
1.56425e-112
1.41902e-115
1.09116e-119
1.34892e-123
4.45628e-127
1.18696e-128
6.59884e-132
4.35019e-136
6.61994e-139
6.03771e-143
4.0972e-145
5.49218e-146
1.06668
1.01726
0.991315
0.636704
1.03352
1.01274
0.122899
2.99229e-13
1.81929e-16
4.03432e-19
4.61558e-20
1.86214e-21
1.84352e-24
6.57325e-29
1.18172e-32
4.67374e-36
1.91335e-39
7.82879e-43
3.20464e-46
1.30212e-49
5.32148e-53
2.15326e-56
8.8179e-60
3.64187e-63
1.50566e-66
5.86692e-70
2.44288e-73
9.44253e-77
3.78485e-80
2.79754e-83
6.96278e-87
2.56517e-90
1.38765e-93
2.25697e-96
6.86323e-100
7.23966e-103
4.01444e-106
1.37136e-109
9.29749e-113
2.34336e-115
3.35493e-118
2.57404e-122
3.6048e-126
1.50236e-128
5.95834e-131
8.74939e-135
2.26677e-137
8.37181e-141
4.85243e-144
2.21499e-145
0.772625
0.998818
0.975567
1.00219
0.932751
1.00068
0.968751
6.75925e-13
-2.14485e-19
5.02815e-17
9.17494e-19
1.85008e-21
5.20465e-24
1.23137e-27
1.07051e-31
3.53216e-35
1.45323e-38
6.03457e-42
2.49725e-45
1.03315e-48
4.25983e-52
1.75028e-55
7.30568e-59
3.26237e-62
1.25766e-65
5.20734e-69
2.04882e-72
2.90502e-75
1.66968e-78
2.22967e-82
2.78358e-85
2.06158e-88
4.98783e-92
1.34623e-95
1.95951e-98
3.37335e-102
3.97489e-105
5.27306e-108
4.58074e-112
9.11363e-114
3.01352e-117
2.79209e-120
3.73078e-123
3.90361e-127
2.13824e-130
5.81472e-133
3.15214e-136
1.85244e-140
4.14667e-144
2.73154e-145
0.997652
1.133
0.905414
1.02289
1.00848
1.0103
1.00063
1.62939e-10
-3.82653e-18
2.60928e-16
1.16067e-17
1.66222e-20
5.18943e-24
1.39433e-27
2.33334e-31
7.93338e-35
3.2795e-38
1.37809e-41
5.83358e-45
2.433e-48
1.00958e-51
4.2431e-55
1.76875e-58
7.62972e-62
3.22086e-65
2.17651e-68
5.51446e-72
2.16719e-75
8.88777e-79
5.2607e-82
7.36466e-85
9.17233e-89
4.42377e-91
7.72116e-95
9.48149e-98
1.16958e-101
4.49547e-104
1.55264e-107
1.31571e-109
2.89838e-113
2.52656e-117
3.96208e-119
1.50892e-122
6.54428e-126
1.86953e-129
3.57029e-133
4.56394e-135
2.09593e-138
1.58396e-141
2.10753e-144
1.02744
0.92568
0.98658
0.97611
0.983136
0.978396
1.00136
2.95943e-10
-2.71905e-18
2.05139e-16
9.43221e-18
1.44469e-20
4.77594e-24
1.25073e-27
2.11625e-31
7.25569e-35
3.0086e-38
1.2676e-41
5.33591e-45
2.4941e-48
9.48399e-52
4.35416e-55
1.73499e-58
6.88886e-62
3.02466e-65
1.17645e-68
5.13749e-72
1.9868e-75
8.10721e-79
3.50251e-81
6.50304e-84
2.98216e-87
2.62195e-91
2.16529e-94
2.48917e-98
7.87494e-101
2.50123e-104
4.91851e-107
3.82438e-111
6.82215e-113
2.80098e-116
1.40778e-120
2.50583e-122
8.64987e-126
1.4774e-129
1.52531e-133
7.10925e-136
1.24846e-138
1.31021e-142
2.82817e-145
1.02627
0.990969
0.999998
1.00957
1.04981
0.997441
1.0024
4.7035e-11
-2.16451e-19
4.40143e-17
8.35307e-19
1.969e-21
5.98419e-24
1.4785e-27
1.22829e-31
4.0065e-35
1.64718e-38
6.8442e-42
2.83456e-45
1.17013e-48
5.01289e-52
2.00468e-55
8.24654e-59
3.43928e-62
1.49808e-65
7.38599e-69
2.4206e-72
1.01392e-75
1.66576e-78
2.84021e-82
7.77661e-86
3.01771e-89
1.21318e-92
1.18438e-95
3.58976e-98
7.46977e-102
1.71107e-105
9.34454e-108
2.64305e-111
2.1304e-115
6.0853e-118
6.58562e-122
8.90639e-124
4.99555e-127
1.38172e-130
1.26363e-134
5.57791e-138
3.35241e-141
1.04322e-143
6.0247e-145
0.92993
0.888899
1.03372
0.978728
0.993576
1.01517
0.818399
2.45149e-13
1.41308e-16
4.49763e-20
4.77035e-20
1.7808e-21
1.49655e-24
5.76144e-29
1.07611e-32
4.26192e-36
1.74208e-39
7.11054e-43
2.90445e-46
1.18227e-49
4.79273e-53
1.96122e-56
8.03921e-60
3.17592e-63
1.42553e-66
5.53474e-70
2.65173e-73
1.45777e-76
3.61106e-80
4.46596e-83
8.38811e-87
2.6264e-90
3.31279e-93
1.74531e-96
3.44399e-100
2.27481e-103
3.15206e-106
7.81264e-110
1.98978e-112
1.50124e-114
4.123e-118
4.5026e-121
6.00856e-125
6.03643e-129
4.73178e-132
8.83616e-136
3.40778e-139
1.39113e-142
2.96128e-145
9.23398e-146
1.031
0.800632
1.00252
1.0417
0.992365
1.02074
0.0476613
-1.02355e-18
-2.24597e-22
4.96393e-19
1.10993e-20
1.52093e-23
2.36039e-27
2.76767e-31
9.42646e-35
3.8808e-38
1.62568e-41
6.74358e-45
2.81142e-48
1.17183e-51
4.78868e-55
2.00847e-58
8.21022e-62
3.4533e-65
1.39267e-68
5.68641e-72
2.34189e-75
1.00749e-78
3.84688e-82
1.55621e-85
1.67655e-87
6.61995e-91
5.23692e-94
3.08023e-97
1.36201e-100
6.52577e-104
2.98869e-107
1.84743e-110
1.56903e-114
1.03828e-116
1.84785e-120
1.84547e-124
1.95273e-126
3.1344e-129
3.26471e-132
2.44502e-136
2.71646e-139
1.80758e-142
1.53206e-144
8.12614e-146
1.01108
1.00861
0.865981
1.00107
0.97117
0.991143
9.53234e-09
-2.01868e-18
-7.89651e-24
5.50936e-18
1.15135e-19
3.7124e-23
9.82148e-28
2.73902e-31
1.11003e-34
4.60968e-38
1.86904e-41
7.87167e-45
3.18418e-48
1.27703e-51
5.44323e-55
2.29684e-58
8.72612e-62
3.57665e-65
1.86211e-68
2.64167e-71
6.37204e-75
1.42634e-78
1.8191e-81
1.77989e-84
1.2941e-88
3.05995e-90
9.04667e-94
4.46333e-98
1.33631e-101
2.22623e-103
9.63386e-107
8.97435e-111
1.88523e-112
6.75176e-116
3.51651e-119
6.90727e-122
1.43043e-125
3.29704e-129
2.58348e-133
5.55909e-135
3.89714e-138
1.78901e-141
8.28297e-145
8.45426e-146
-9.29637e-16
0.999678
0.000657059
1.00015
1.78803e-07
1.00123
0.00156897
0.00757242
1.01264
0.550886
0.994832
0.0107384
1.01331
0.547579
0.827243
1.00023
1
1.01045
0.82689
1.00051
1
1
1.00211
1.00023
0.999215
1
0.98961
1.00014
1.00134
1.03956
1.00183
1.01803
1.0011
1.03242
1.00196
1.00201
1.04552
1.00147
1.00576
1.00189
1.04773
1.00238
1.0017
1.00435
1.00101
1.02194
1.004
1.00725
1.00205
1.0001
0.946592
0.82302
1.01335
1.00033
0.999908
0.824359
0.706344
1.01985
0.0787668
1.01328
0.707991
1.00585
0.0860933
0.013136
1.07961
-2.0886e-15
0.982238
0.0210523
1.06842
3.54161e-07
2.13554e-07
1.00258
0.002027
0.998837
1.79431e-07
1.00675
0.00297199
0.0112485
1.01307
0.547666
1.00045
0.0115099
1.01271
0.546368
0.826578
1.00139
1.00043
1.01191
0.827175
1.00336
1.00001
1
0.992603
1.00042
1.00034
1
0.993465
1.00001
1.00158
1.01632
1.00254
1.01225
1.00142
0.983872
1.00192
1.00249
1.03409
1.00245
0.990627
1.00201
1.03283
1.00185
1.00388
1.01232
1.00256
1.00514
1.00367
1.01905
1.0022
1.00055
0.990421
0.831061
1.01363
1.00031
0.996853
0.839757
0.707981
1.01614
0.0947831
1.02587
0.707162
1
0.089783
0.0242586
1.04124
7.3385e-07
1.00137
0.0267641
1.01812
8.91317e-07
2.70055e-08
1.00883
0.00273703
0.994304
-1.29488e-19
1.01427
0.000724421
0.0104576
1.01281
0.546358
1.0186
0.0082293
1.01359
0.545393
0.827397
1.00494
1.00041
1.01414
0.828009
1.00529
1.00001
1
0.993097
1.00044
1
1
0.999914
1.0002
1.00173
0.993599
1.00253
1.00729
1.00134
0.999584
1.0018
1.00241
1.01425
1.00193
0.984551
1.002
0.999204
1.00161
1.00374
1.014
1.00231
1.01321
1.00245
1.01854
1.00108
1.00031
1.00029
0.844987
1.00863
1.00004
1.0011
0.855151
0.707169
0.999364
0.0833477
1.00342
0.70432
0.998723
0.0745676
0.0284693
1.01077
5.7669e-07
1.00052
0.0217896
1
-2.32231e-16
0.977894
0.988561
0.89161
1.0139
0.988594
0.995094
0.919303
0.826195
0.928712
0.981397
1
0.999798
0.883153
0.921882
-1.14029e-17
-1.31161e-17
-8.55536e-18
1.69116e-10
8.32351e-14
4.69434e-10
8.32759e-14
0.9893
1.04954
1.02457
1.02802
0.993779
1.05451
1.02241
0.984464
1
0.957135
0.990978
1
0.964415
0.984179
-3.62392e-17
0.0103904
-1.92881e-17
2.03422e-08
3.80022e-12
0.0164317
3.79986e-12
0.966247
0.995958
1.00362
1.02979
0.984649
0.993809
1.00362
0.998662
1.00323
0.997546
1.01021
1.00561
0.998412
0.998817
-2.98647e-20
0.842655
-4.84884e-22
0.123543
2.98963e-10
0.844069
1.14712e-10
1.00281
0.981521
0.997275
0.982568
0.996021
0.988523
0.999944
0.933
0.979251
0.963281
1
0.974226
0.970718
0.84545
-2.38634e-20
1.00009
-4.36791e-19
0.966129
5.19941e-10
1.0004
3.33082e-08
0.950492
0.804089
1.01448
0.946065
1.02432
0.80442
1.02949
1.01387
1.01084
1.01436
1.01382
1.0112
1.01206
1.01468
-3.83329e-18
1.00043
-9.3631e-18
1.00089
1.32692e-07
1.00092
2.30464e-07
1.02327
1.00112
1.10481
1.0533
1.01084
0.981795
1.09217
0.997606
0.998882
0.961692
1.00403
0.99952
0.980458
0.999904
-5.1254e-15
1.0002
-5.35523e-17
1.00155
2.61121e-07
1.00077
1.58166e-07
0.976563
1.00398
0.993629
0.998126
0.96097
0.855749
0.911292
1.00119
1.01744
0.996624
1.01664
1.01792
0.997084
1.00581
-7.22803e-18
0.96847
-1.33687e-16
1.00292
4.15273e-08
0.962066
2.63183e-09
0.909325
1.01961
1.00655
1.07202
0.895406
0.960693
1.04233
0.986513
1.01064
0.973717
1.09897
1.00732
0.97685
0.985128
-7.73771e-17
0.150431
-9.59229e-17
0.818569
1.8463e-10
0.161286
5.78992e-10
0.981587
1.07115
0.999712
1.05014
1.05243
1.03572
0.912491
0.996915
0.999999
0.927523
0.996507
1
0.936688
1
-6.99696e-18
2.56944e-21
-7.56082e-18
0.0473443
5.01901e-12
1.97864e-07
1.26421e-11
0.889832
0.965981
1.11984
0.999882
0.927497
0.988191
1.03827
1
1
0.961341
0.990096
1.0008
0.951251
1
-4.72543e-17
-3.26722e-17
-1.00588e-17
7.12676e-09
1.02786e-12
4.04778e-10
1.47122e-12
0.991071
1.01312
0.950456
1.00413
0.966496
1.01415
0.992617
0.837591
0.900875
0.995672
1.00052
0.840947
1
0.899224
9.12052e-13
1.55362e-09
7.06418e-13
2.17756e-10
9.47268e-13
2.18564e-09
7.06417e-13
0.986597
1.0741
1.02063
1.03308
0.997642
1.06838
1.02149
0.982996
1
0.96837
0.996764
0.983704
1.00033
0.968554
1.55781e-11
0.0161969
1.5578e-11
3.36785e-08
1.55781e-11
0.0174271
1.55779e-11
0.990074
0.99604
1.0066
1.02716
0.988671
0.999163
1.0015
1
1.00897
0.998551
1.01087
0.999353
1.00969
1.00045
5.99805e-10
0.843175
2.27207e-10
0.123463
5.9755e-10
0.843247
2.25394e-10
1.01592
1.0391
1.00388
0.938189
0.977734
1.01956
0.999737
0.937561
0.976617
0.981693
0.99989
0.938799
0.994531
0.98567
1.11451e-09
1.00054
5.42921e-08
0.968097
1.25014e-09
1.00043
5.4461e-08
1.01705
0.802513
0.99035
1.072
1.00062
1
0.988426
1.01318
1.01087
1.0168
1.0182
1.01445
1.01091
1.00764
2.0648e-07
1.00151
3.70203e-07
1.00096
2.07637e-07
1.00102
3.72164e-07
1.00857
0.98642
1.09539
0.981869
0.960016
1.001
1.03786
1.00149
1.00013
1.00123
1.00123
1.00119
1.0002
1.00488
4.06126e-07
1.00107
2.50259e-07
1.00161
4.03481e-07
1.00064
2.50064e-07
0.981888
0.845805
0.706833
1.03373
0.972169
0.938295
1.18745
1.00059
1.01667
0.939873
1.02198
1.00058
1.01597
0.916366
6.90826e-08
0.960062
6.56161e-09
1.00217
6.90069e-08
0.960278
6.71591e-09
0.987868
0.986502
1.03475
0.993284
1.02342
1.06742
1.00667
0.98736
1.00962
0.97056
0.99997
0.987578
1.00848
0.992935
3.8853e-10
0.161881
8.92961e-10
0.818403
3.89174e-10
0.157174
9.15927e-10
1.00031
0.977889
0.981403
1.00933
0.967943
0.808473
0.964011
0.999526
1.00016
0.972161
1.02862
0.999062
1.00004
0.977928
2.15371e-11
2.43562e-07
5.47941e-11
0.0485234
2.15372e-11
2.95278e-07
5.57877e-11
0.930367
0.953137
1.05015
1.01089
0.981457
1.00026
1.0909
0.988624
1
0.974077
1.041
0.997757
0.995928
0.987291
4.40498e-12
1.07922e-09
7.03328e-12
1.19037e-08
4.40494e-12
1.31068e-09
6.74316e-12
0.972006
1.01371
0.998056
1.00653
0.957562
1.01375
0.997718
0.843871
0.896711
0.999989
0.997548
0.839948
0.999985
0.896295
2.45967e-13
1.25969e-09
1.66618e-13
-1.84636e-21
-7.33887e-18
-4.52055e-19
-1.25921e-17
1.0019
1.06078
1.01981
1.02809
1.00383
1.0473
1.02168
0.989423
1.00375
0.980783
1.01625
0.989683
1.00407
0.980437
4.28419e-12
0.016473
4.28383e-12
-1.31039e-17
-5.49625e-17
0.0107457
-2.21537e-17
0.988659
0.998172
1.00295
1.03215
0.998762
0.995616
1.00637
1.00137
1.00998
1.00615
1.01316
1.0013
1.0105
1.00811
3.03862e-10
0.842578
1.14032e-10
0.116682
-2.64964e-20
0.841741
-1.09959e-21
0.932778
0.98517
0.995386
0.939092
0.931704
1.00849
0.9891
0.98406
0.996919
0.916985
1.00006
0.95301
0.997214
0.933886
6.79921e-10
1.00047
3.3556e-08
0.973595
-1.57796e-20
1.00006
-5.22608e-19
1.00868
0.999012
0.912348
1.00663
0.980314
0.896273
0.907541
1.00712
1.00909
0.976817
1.00936
1.00917
1.00861
0.976467
1.32082e-07
1.00152
2.39148e-07
1.00026
-4.72235e-18
1.00048
-8.87548e-18
0.91137
1.02323
1.01519
0.916149
0.8693
0.994088
1.02137
1.00098
0.997439
1.00376
0.982572
1.00094
1
1.00753
2.54242e-07
1.00103
1.59286e-07
1.00071
-5.11949e-15
1.00018
-7.8418e-17
0.982276
0.946544
0.980603
1.01145
1.01585
0.969727
0.987056
0.998327
1.00797
0.922182
0.999205
0.997087
1.00745
0.958324
4.2065e-08
0.960618
2.79915e-09
1.00044
-9.32512e-18
0.967686
-1.27264e-16
1.00563
1.03388
1.00619
0.961176
1.00469
0.975149
1.01004
0.991385
1.00537
0.992268
1.01256
0.989739
1.00365
0.984685
1.86527e-10
0.156093
6.07051e-10
0.818046
-7.58646e-17
0.140802
-8.45635e-16
0.94361
0.80792
0.9879
0.984081
0.952265
0.80533
0.972066
0.997377
0.999862
0.994106
0.990099
1
0.999972
0.983434
5.03347e-12
2.37167e-07
1.28942e-11
0.0412155
-8.86696e-18
-7.52131e-20
-6.95334e-18
1.01526
0.985302
1.0273
1.03976
0.989112
0.886466
1.0002
0.995848
1
0.982054
0.972791
0.992683
0.99983
0.998254
1.39079e-12
6.61e-10
1.86256e-12
-6.05162e-18
-3.90882e-17
-9.06512e-19
-2.54314e-17
0.20753
0.208798
-5.42038e-15
4.4023e-08
4.4023e-08
0.145684
0.217345
0.992323
0.996673
1
1.00001
0.997387
1.00004
0.980571
0.344875
0
0.474097
0.00111325
1.77818e-07
0.473758
0.3606
0.809405
1.00008
0.909219
1
1
0.859215
0.914363
0.216795
1.78803e-07
0.233945
1.78803e-07
1.78803e-07
0.173834
0.226947
0.989727
1.00023
0.997672
1.00008
0.996582
1.00033
0.978847
0.347868
0.00127239
4.49031e-07
0.474278
4.49031e-07
0.473163
0.368473
0.666376
0.578959
0.0520749
0.00996527
0.579343
0.0551782
0.665976
1
1.00256
1.00102
1.0128
1.00207
1.00086
0.999844
0.864162
0.223781
0.998635
0.551286
0.229604
0.998482
0.865527
0.984256
0.989532
1
0.96847
1
0.977994
0.983535
0.668628
0.0101482
0.581373
0.0551139
0.579867
0.0549382
0.670163
1
1.01299
1.00173
1.00064
0.999841
1.00097
1
0.862786
0.549194
0.237786
1
0.232685
0.999416
0.861337
1.00002
1.00025
1.00001
0.826973
1.00018
1.00006
1.0004
0.999975
0.973412
1
1.00001
0.973451
1
1.00017
1.00061
1.0002
1
1.00004
1.00058
1
1.0012
0.999125
1.00958
1.00911
0.999327
1.00773
0.997126
0.999051
1.00043
0.826717
0.999998
1.00007
1.00011
1.00038
1.00003
1.0003
1.00031
0.973534
1.00016
0.973497
1.00032
1.00041
1.00087
1.00047
1.00074
1.00001
1.00102
1.00021
1.0006
0.968827
0.994652
1
1
0.994968
0.99999
0.972072
0.97723
0.878896
1.00146
1.00029
0.886362
1.00192
0.978745
0.997916
1
1.00028
1.0002
1
1.00035
0.998238
0.956241
1
0.965445
0.94343
0.983095
0.948818
0.93956
0.972946
1
0.998149
1
0.997631
1
0.966494
0.972548
0.997079
0.946961
1.00267
0.904811
1.00249
0.977923
0.998874
1.00035
1
1.00062
1.00001
1.00059
0.997442
1.00753
1.00618
1.00223
1.00107
1.00622
1.00217
1.00758
1.0054
1.01428
1.0104
1.03614
1.00004
1.0086
1.01037
1.00409
1.00155
1.00366
1.00178
1.00158
1.00358
1.00468
1.01517
1.01897
1.01105
1.0146
1.01118
1.01972
1.01387
1.00709
1.00146
1.006
1.00214
1.00618
1.00253
1.0068
1.01054
1.04376
1.00699
1.00825
1.01797
1.00887
1.00671
1.00424
1.00236
1.00185
1.00367
1.00225
1.0039
1.0037
1.00163
1.00211
1.00091
1.00207
1.00189
1.00083
1.00184
1.00574
1.0034
1.01683
1.05042
1.01353
1.01735
1.00478
1.00294
1.00072
1.00517
1.00153
1.00068
1.00578
1.00255
1.00163
1.0068
1.00013
0.998974
1.00016
0.999558
1.00031
1.00195
1.00254
1.00107
1.00104
1.00154
1.0016
1.00183
1.00636
1.04157
1.02141
1.01453
1.02298
1.0153
1.00707
1.00306
1.00189
1.001
1.00554
1.00109
1.00569
1.00307
1.00585
1.00674
1.00266
1.00088
1.00664
1.00307
1.00637
1.01091
1.02513
1.0112
0.993638
1.02064
1.01024
1.01157
1.00695
1.00284
1.00294
1.00146
1.00337
1.00303
1.00751
1.00254
1.00032
1.01855
0.993905
1.01804
1.00756
0.999669
1.00617
1.00208
1.00657
1.00356
1.00567
1.00344
1.00615
1.01139
1.00249
1.01096
1.01005
1.02248
1.01069
1.00877
1.00718
1.00216
1.00378
1.00416
1.00372
1.00371
1.00679
0.999917
1.00116
1
1.00022
1.00129
1.00004
0.999823
0.910339
0.826068
0.984367
0.921771
0.870798
0.9726
0.932676
0.997672
0.941023
1
0.813785
0.941616
1
0.999405
0.984635
1.0202
1.00954
0.988174
1.00912
0.976731
0.979282
0.999582
1.0005
1.00071
1
1.0012
1.00058
0.999446
0.915175
0.974188
0.847125
0.999424
0.847475
0.981329
0.865093
0.998829
0.822384
0.948028
1
0.943448
1
0.99679
1
1
0.494029
0.70746
1
0.495339
1
1.002
1.03352
1.00786
1.01353
1.02258
1.00644
1.0025
0.919554
0.202207
0.805294
0.0786034
0.206715
0.813078
0.922133
0.997587
1.00952
1.0002
0.994795
0.999671
0.9731
0.999535
1
0.707534
1
0.496974
1.00003
0.495428
1
1.00258
1.01732
1.00656
1.0045
1.03303
1.00347
1.00156
0.916585
0.0745012
0.2188
0.81267
0.211175
0.820578
0.911379
0.406556
0.657157
-5.55123e-20
0.0175102
0.650373
2.42548e-06
0.407462
1.00187
1.01634
0.936298
1.08752
1.02055
1.00132
0.934426
0.345493
-3.80463e-17
0.175605
7.48961e-08
7.48961e-08
0.346173
0.178771
1
0.908819
1.00051
0.961178
0.999413
0.966248
0.998603
0.409515
0.0196811
0.64786
0.00039571
0.65235
0.000173607
0.410885
1.0007
1.01456
1.0431
0.930574
1.00309
1.00096
0.931482
0.346685
3.54161e-07
3.54161e-07
0.187223
3.54161e-07
0.344037
0.188423
0.208219
0.243995
2.13554e-07
2.13554e-07
0.196253
2.13554e-07
0.246124
1
0.99689
1.00111
1.00393