/*--------------------------------*- C++ -*----------------------------------*\
| =========                 |                                                 |
| \\      /  F ield         | OpenFOAM: The Open Source CFD Toolbox           |
|  \\    /   O peration     | Version:  5.0                                   |
|   \\  /    A nd           | Web:      www.OpenFOAM.org                      |
|    \\/     M anipulation  |                                                 |
\*---------------------------------------------------------------------------*/
FoamFile
{
    version     2.0;
    format      ascii;
    class       surfaceScalarField;
    location    "1.8";
    object      alphaPhi10;
}
// * * * * * * * * * * * * * * * * * * * * * * * * * * * * * * * * * * * * * //

dimensions      [0 3 -1 0 0 0 0];

internalField   nonuniform List<scalar> 
27583
(
-1.16395e-09
-3.21967e-09
-9.77088e-09
1.74658e-08
1.84224e-08
-1.88666e-08
-5.70666e-10
-4.25346e-08
-2.9982e-08
-4.42289e-09
2.01955e-07
1.07449e-08
-4.59691e-08
-1.96432e-07
-1.13713e-08
4.26961e-09
-2.73721e-09
3.47627e-08
6.80703e-09
-6.83327e-09
-2.45669e-08
2.23248e-08
-4.38924e-09
-2.12817e-10
-3.40589e-10
6.2803e-09
-7.39935e-16
-1.41064e-19
3.39911e-18
2.29762e-17
-1.7e-15
5.04411e-16
1.94163e-15
-7.18724e-24
-8.22629e-22
-1.76028e-22
-4.36446e-21
7.76086e-23
2.49567e-21
-8.66267e-21
2.8245e-26
-1.16135e-25
4.81901e-28
1.05778e-27
-4.29097e-28
1.25501e-29
7.31241e-31
-1.00551e-30
-1.64362e-31
3.69908e-35
-8.18861e-34
-6.55891e-34
1.03976e-38
-1.21398e-37
1.88504e-37
4.36023e-42
-2.66831e-41
3.21213e-41
1.85424e-45
-6.93123e-45
-4.28539e-45
7.85137e-49
-1.67723e-48
2.05875e-46
3.3056e-52
-4.95882e-52
6.60945e-51
1.38971e-55
-1.53879e-55
-1.06908e-52
5.80522e-59
1.4378e-59
-1.23595e-55
2.41855e-62
-1.06295e-62
3.61105e-60
1.01253e-65
-2.31025e-66
1.02932e-62
4.19211e-69
-3.82232e-70
1.13105e-65
1.72018e-72
-6.67269e-73
6.51915e-69
7.07505e-76
-2.43556e-77
3.82581e-73
3.32895e-79
-8.03457e-80
1.12039e-75
1.99285e-82
-1.13783e-83
-2.12011e-78
6.41627e-86
5.08599e-87
-2.73669e-82
2.53653e-89
-1.56581e-91
-6.19977e-85
1.18697e-92
2.82351e-95
1.77729e-88
6.22867e-96
-7.23492e-98
1.42535e-91
3.93758e-99
1.56501e-99
-1.23928e-94
1.35421e-102
1.90379e-103
-4.49651e-99
2.58729e-105
5.07302e-108
1.50508e-100
3.59173e-108
-1.31715e-108
-1.28126e-103
7.41329e-112
1.04889e-112
-4.88912e-107
5.20144e-115
-8.42032e-117
-1.86109e-110
6.77866e-118
-3.20624e-120
-7.44975e-113
9.49817e-121
1.62388e-121
-2.85795e-116
1.0125e-124
-3.1784e-125
4.44656e-122
4.50525e-128
-1.04798e-128
9.64413e-127
5.36956e-131
1.62121e-132
-1.94751e-127
4.97564e-134
5.02915e-136
-1.85909e-129
7.52688e-137
1.21195e-137
-9.58793e-133
2.11134e-139
7.32301e-140
-2.54149e-135
2.81935e-143
-2.03786e-145
-2.71716e-139
3.72321e-146
-1.11349e-147
-6.89711e-142
6.26172e-150
1.74006e-150
-2.40618e-145
9.16982e-153
-1.50877e-155
8.93791e-150
3.79903e-153
2.6174e-156
-2.2143e-151
4.32132e-158
-1.18253e-157
3.59176e-08
-1.71984e-08
-2.07523e-07
5.08718e-09
3.81973e-09
3.03731e-10
-9.64876e-09
-1.23204e-07
-1.36877e-07
-1.55608e-08
-1.56264e-08
-1.01145e-09
-1.23139e-07
5.87785e-08
-9.09791e-09
1.61199e-08
-1.73658e-08
3.2648e-08
1.76911e-07
-9.53969e-08
-2.0608e-08
1.71804e-08
-1.20575e-07
-4.3217e-08
1.18755e-07
-2.26752e-08
-2.18479e-08
-2.6078e-08
-4.16172e-08
6.77325e-09
-1.59034e-08
-1.11028e-08
-2.90881e-07
-1.68709e-08
-5.7936e-09
9.86121e-09
-4.24008e-08
-2.94917e-08
-2.57758e-09
5.56746e-09
-9.81775e-08
-1.00397e-07
-1.1921e-07
3.22349e-08
2.71819e-08
2.86541e-08
-5.11788e-08
-2.1015e-09
-2.18137e-09
-2.82989e-09
1.19126e-09
4.47167e-09
2.32725e-14
2.18105e-15
7.08104e-18
3.27821e-16
-4.1557e-13
2.21149e-14
1.6628e-13
-2.57716e-15
-1.06282e-14
-1.97558e-15
-1.79436e-15
8.67292e-22
-1.34886e-18
1.01757e-21
-1.13646e-19
1.00195e-19
3.44238e-19
1.34909e-18
-1.34996e-18
-1.36825e-18
-1.35006e-18
-2.66829e-26
-1.54409e-22
3.99135e-26
5.54988e-28
-3.56409e-26
-6.71817e-30
3.69839e-31
-9.66942e-30
-4.0896e-32
4.88104e-35
-7.73625e-33
-1.51541e-36
7.77095e-39
-5.40773e-36
1.94789e-38
2.79568e-42
-3.3177e-40
6.50935e-42
1.19483e-45
-9.12217e-44
8.68003e-46
5.17459e-49
7.58139e-48
5.37917e-48
2.21141e-52
-7.72873e-51
4.03986e-51
9.41775e-56
-1.76512e-54
-1.28448e-53
4.0005e-59
2.67513e-58
-1.46058e-56
1.68258e-62
-4.10141e-62
-2.22445e-60
7.07322e-66
1.17475e-65
-9.86387e-64
2.99001e-69
3.48914e-69
-1.30636e-66
1.28251e-72
-1.2685e-71
-1.56839e-69
5.41801e-76
-3.0479e-76
-7.05054e-74
2.28744e-79
-3.52031e-80
-3.04344e-76
9.75412e-83
4.01195e-82
3.9233e-80
3.94625e-86
-1.40727e-86
-5.02877e-83
1.69801e-89
-2.63703e-89
-5.24122e-86
8.36575e-93
3.7265e-93
-2.59216e-88
3.46763e-96
1.22491e-95
5.12082e-92
2.1203e-99
9.71541e-101
-1.2076e-95
1.92253e-102
2.61403e-103
-4.29755e-98
4.42908e-106
-7.20963e-105
-1.00772e-101
2.52503e-109
-1.20556e-109
2.70982e-103
1.56719e-112
-1.1075e-113
1.3183e-107
1.74532e-115
1.22892e-115
-4.22111e-111
5.46155e-119
-1.23039e-119
-4.67308e-114
9.28173e-122
1.69432e-123
-9.05413e-121
1.13582e-123
-9.38573e-126
-9.11474e-121
8.15393e-128
-1.82702e-128
1.82629e-123
2.77955e-131
1.50459e-133
-9.71011e-128
1.87755e-134
1.05614e-134
-3.73336e-130
3.9949e-138
-1.66121e-138
7.87036e-136
1.68717e-141
1.67148e-142
4.18673e-139
9.71246e-145
3.8884e-145
6.91623e-139
6.58372e-148
-1.36136e-149
-4.10369e-143
1.71476e-150
-4.53045e-150
-1.5152e-145
-1.69116e-153
-1.2152e-153
-3.95169e-149
6.38277e-154
8.88163e-157
-6.46607e-152
7.07364e-158
-4.21163e-155
7.20201e-08
1.41048e-08
-1.65091e-07
1.52487e-08
1.58469e-08
1.97102e-08
-1.24204e-07
-1.56879e-07
-1.54041e-07
1.82318e-08
-3.19824e-08
5.45865e-07
-2.19806e-08
-2.60277e-08
-1.21946e-08
5.43831e-07
3.59966e-08
8.54183e-08
7.2874e-10
6.47198e-09
1.14386e-07
1.48433e-08
-8.71416e-09
1.74076e-08
3.22191e-07
5.68339e-07
5.67055e-07
-3.56284e-08
-4.59428e-09
3.59039e-08
7.78297e-08
-1.60324e-08
4.77284e-08
1.42373e-09
-4.06292e-09
-1.27166e-11
6.77452e-08
1.08201e-09
5.33195e-08
-1.85205e-08
-2.07529e-09
2.5728e-09
-2.05117e-07
-1.48355e-10
2.84161e-09
2.92818e-09
7.25167e-09
-1.03041e-08
-7.34149e-11
1.44335e-13
1.43669e-09
9.31544e-12
1.43504e-09
3.50071e-19
-1.35027e-18
-5.74826e-09
-1.36408e-18
3.36647e-25
-8.80685e-22
-1.76298e-23
7.40641e-20
7.40654e-20
7.39763e-20
7.40273e-20
1.27092e-27
-1.58759e-25
-8.57505e-27
-4.78625e-29
-4.18899e-29
-2.73596e-30
7.50561e-32
7.87972e-32
-1.278e-33
3.95787e-36
2.51494e-34
-2.67499e-37
5.59248e-40
2.37072e-38
-1.11286e-40
2.2435e-43
4.09609e-42
-3.30074e-44
9.36708e-47
1.01442e-45
-7.70549e-47
3.8918e-50
2.18524e-49
-1.51178e-51
1.61013e-53
5.38625e-53
-2.52e-52
6.63496e-57
1.72358e-56
-2.59771e-57
2.7242e-60
1.12789e-60
1.22767e-60
1.11532e-63
9.82231e-64
-3.38759e-62
4.55479e-67
-2.03872e-68
-1.38724e-65
1.85328e-70
-6.6582e-72
4.45675e-69
7.5424e-74
-1.40663e-75
5.09622e-72
3.04376e-77
-1.02673e-77
1.80668e-74
1.24083e-80
1.07779e-81
-2.99758e-78
4.97618e-84
-9.85828e-86
-4.14945e-81
1.9964e-87
-4.55327e-88
-1.4354e-86
8.70304e-91
-8.81461e-91
1.5191e-88
3.69039e-94
-2.2877e-94
6.94531e-91
1.38269e-97
-1.14167e-97
4.33978e-96
9.13507e-101
-5.25281e-100
-4.09091e-99
2.86421e-103
3.11631e-104
-1.12494e-99
5.19895e-107
8.66665e-108
-2.02303e-102
1.80079e-110
-6.35434e-111
-1.47694e-106
4.30626e-114
-3.07884e-114
1.76013e-109
1.18587e-117
-1.8361e-118
-3.75523e-113
1.78108e-120
5.70499e-121
-7.06495e-117
6.26675e-123
3.34743e-124
-4.41908e-119
1.26282e-126
5.24399e-126
7.44132e-123
3.57172e-130
-1.3256e-130
-1.70939e-125
5.85239e-133
5.77226e-133
-2.97723e-129
2.71297e-136
-2.46924e-135
-8.39302e-132
4.45823e-140
-6.85098e-139
2.84919e-136
4.402e-143
2.60988e-143
1.53389e-137
3.61288e-146
2.40032e-145
1.12961e-142
1.96034e-148
3.56608e-150
-1.62949e-144
1.5369e-152
4.87473e-153
-1.24153e-147
3.21176e-153
-1.15166e-156
1.00179e-150
-2.55044e-157
1.10476e-154
1.49094e-08
2.61856e-08
-5.8189e-09
-6.53503e-09
-5.86345e-09
-6.00559e-09
9.44762e-09
-1.17435e-08
-7.72383e-08
3.76377e-08
3.89571e-09
1.65488e-07
3.91666e-08
-5.13144e-08
-5.12184e-08
-5.31933e-08
-5.24819e-08
-2.63726e-08
-2.20114e-09
7.69022e-10
-1.38916e-09
-2.28472e-08
-1.28281e-07
-5.59739e-08
1.77051e-07
-6.22038e-10
1.83997e-09
-1.74967e-08
3.17631e-09
-1.33262e-09
1.44441e-08
1.50695e-10
-6.93112e-11
1.09503e-10
-2.18132e-10
1.15507e-10
9.31233e-17
5.05333e-19
-1.96558e-08
-1.22664e-18
9.34513e-17
9.25085e-17
9.34628e-17
5.12818e-19
3.47083e-25
2.08398e-22
-3.44268e-22
2.70516e-19
2.68669e-19
2.70269e-19
2.66019e-19
2.78396e-26
1.28419e-25
1.27848e-26
8.11095e-29
1.46834e-27
2.90551e-30
2.97864e-32
8.60089e-31
3.60636e-34
2.88562e-35
2.24823e-34
8.97455e-37
3.03054e-39
7.85549e-38
-9.83731e-41
9.53505e-43
1.44185e-41
-1.77426e-42
4.10991e-46
3.60144e-45
-2.08772e-46
1.78945e-49
9.36795e-49
-6.66206e-49
7.73493e-53
2.33029e-52
-1.92498e-51
3.3188e-56
7.71542e-56
1.43832e-54
1.41439e-59
1.16342e-59
-7.73958e-58
5.99704e-63
4.02592e-63
5.07449e-63
2.53735e-66
1.05997e-66
1.34321e-65
1.0738e-69
8.57946e-70
-4.65139e-67
4.52255e-73
1.73919e-73
1.52541e-71
1.89799e-76
4.81169e-77
-4.2111e-74
7.83007e-80
-4.11236e-80
-2.99428e-76
3.33502e-83
-2.3141e-84
5.90546e-81
1.58386e-86
1.3806e-87
-6.09871e-83
6.33514e-90
-7.58922e-90
-2.21297e-86
2.81366e-93
5.64428e-94
3.19986e-90
2.26056e-96
9.8062e-98
-1.45418e-92
1.5123e-99
-1.53065e-100
-1.72664e-95
3.95934e-103
8.57532e-104
-7.31287e-98
2.20263e-106
-7.05958e-108
-2.99732e-102
2.13465e-109
2.68442e-110
-6.1094e-105
5.39049e-113
-1.78774e-114
-1.88663e-108
2.44585e-116
-1.48949e-116
4.06588e-112
5.52271e-119
-2.7865e-120
-1.46116e-115
2.18342e-121
4.67498e-122
-1.40429e-117
3.58048e-125
1.80314e-125
-2.53906e-121
1.666e-128
-2.95707e-130
8.8532e-125
2.78266e-131
-3.57147e-133
-1.65082e-127
4.68923e-135
-1.21689e-136
4.02471e-134
5.40297e-138
-1.06452e-139
2.49796e-134
3.85468e-141
-2.21037e-142
-1.92725e-137
1.27065e-144
8.35481e-146
-7.46356e-141
5.07429e-148
3.2826e-147
-7.91441e-144
2.90332e-151
8.69649e-152
2.31039e-147
1.92559e-153
-5.08314e-155
-8.78763e-151
-6.39509e-157
4.1255e-153
-1.68938e-08
-7.75467e-09
8.56777e-09
-2.68721e-09
-3.49328e-08
-3.47173e-08
-9.18396e-10
-2.9152e-08
8.75241e-10
-6.93169e-08
-2.1602e-09
-2.10206e-09
-5.12992e-09
-3.02353e-09
-1.29294e-08
-1.10522e-08
-3.98119e-09
1.03636e-09
-7.66011e-09
-1.24894e-08
-7.67088e-09
8.05304e-09
-7.48579e-08
-1.09181e-08
3.03517e-08
-4.33053e-08
2.51108e-08
9.626e-09
1.53125e-08
1.83047e-08
-2.1298e-09
-5.27512e-09
7.40075e-10
-1.65719e-09
7.81666e-09
-2.36418e-09
1.84148e-10
-2.5285e-10
-1.37626e-10
2.79911e-11
5.24072e-16
-6.96108e-19
-2.17123e-08
3.10832e-18
8.81803e-16
-1.10077e-16
1.18808e-15
-3.19114e-18
2.42998e-24
8.21094e-21
8.23946e-22
5.88496e-18
5.88472e-18
5.8829e-18
5.89216e-18
2.47257e-25
1.3078e-24
-7.73873e-26
5.94598e-28
1.73406e-27
-4.30803e-30
6.188e-32
1.28671e-30
4.10632e-31
1.60518e-35
2.1093e-34
3.9045e-36
5.35819e-39
6.78628e-38
1.09978e-38
2.00994e-42
1.63926e-41
-3.26963e-41
8.67439e-46
4.73254e-45
-8.59194e-44
3.78658e-49
9.67101e-49
-5.72585e-48
1.64456e-52
2.50448e-52
2.55667e-51
7.09935e-56
6.67786e-56
4.8342e-54
3.04739e-59
4.49347e-61
7.39453e-57
1.30351e-62
5.11369e-63
1.46624e-60
5.54776e-66
1.34864e-66
3.70647e-63
2.34159e-69
2.30269e-70
3.44754e-67
9.88874e-73
1.51191e-74
4.03458e-70
4.20553e-76
-4.99374e-77
-1.84683e-73
1.82189e-79
-5.17004e-81
-1.69091e-76
7.68976e-83
-2.58227e-84
-1.15652e-80
3.46093e-86
-1.11341e-87
1.1429e-82
1.34193e-89
7.65848e-91
-1.2148e-85
7.61974e-93
1.02051e-93
-5.47932e-89
4.55766e-96
4.55778e-96
-7.7736e-92
1.8976e-99
4.4316e-100
-5.33712e-96
2.29481e-102
-5.55864e-104
-3.16635e-97
4.17475e-106
-2.45793e-107
1.39959e-101
1.67277e-109
7.58198e-110
5.82471e-105
1.49059e-112
5.47976e-114
-2.17602e-108
2.28199e-115
1.44773e-116
-6.84521e-111
4.71887e-119
8.19779e-120
-9.81298e-114
8.22843e-123
1.49522e-123
5.10666e-120
1.11235e-125
7.02432e-127
1.96303e-121
2.66542e-129
-1.32009e-129
-1.92516e-126
-7.74006e-133
-1.04258e-130
1.90237e-129
6.52226e-136
-4.74945e-134
-6.29459e-133
1.98939e-138
1.36477e-138
-1.12086e-133
5.51629e-141
3.41e-141
3.47456e-137
4.66344e-144
-8.08804e-145
4.3944e-140
1.9649e-146
2.21713e-147
7.01717e-142
5.51158e-150
2.87091e-150
-1.1212e-145
2.87562e-153
1.49389e-153
-8.15841e-149
9.16737e-158
-4.18794e-152
-3.6633e-09
1.05351e-08
2.23808e-08
-5.48532e-08
-3.33051e-09
-3.90901e-09
-3.2583e-09
3.68027e-08
-1.24745e-08
-9.43468e-09
-2.17394e-08
-2.06867e-08
-2.83717e-08
1.52841e-07
-9.29328e-08
-6.89892e-09
1.85235e-07
1.43477e-08
8.33986e-09
1.57754e-08
6.58564e-09
4.7393e-09
-3.84483e-08
-4.01182e-08
-3.57964e-08
-3.02137e-08
6.50045e-08
6.11893e-08
2.42722e-08
-1.2962e-07
1.96104e-09
6.38492e-08
3.50484e-08
2.54906e-08
2.51483e-08
-1.03386e-07
3.94624e-09
7.85665e-09
4.93172e-09
2.63987e-09
-1.93457e-08
-1.24623e-09
2.90187e-10
-1.53532e-10
5.34822e-11
9.59464e-11
-4.61855e-17
3.65749e-17
-1.82663e-08
3.66426e-17
3.05097e-17
2.46747e-16
-1.02035e-15
1.83237e-16
2.26263e-25
-7.35727e-22
-4.14586e-22
5.72173e-18
5.72228e-18
5.72493e-18
5.71947e-18
1.4602e-25
-1.08767e-25
7.68109e-26
6.56072e-28
7.66531e-28
1.25144e-29
6.1059e-32
6.21671e-31
1.00305e-31
1.07082e-35
1.60159e-34
-3.11995e-34
3.41558e-39
4.22079e-38
2.08223e-38
1.2853e-42
7.52951e-42
9.2672e-42
5.6634e-46
1.88295e-45
-5.31959e-45
2.52681e-49
4.81095e-49
6.03662e-48
1.11962e-52
1.3883e-52
4.5234e-50
4.92226e-56
3.2064e-56
-2.06963e-53
2.15005e-59
1.21536e-59
5.63697e-57
9.27794e-63
-5.48079e-63
4.97037e-60
3.98214e-66
7.10288e-67
9.08618e-63
1.71692e-69
2.24238e-70
-1.00469e-66
7.39062e-73
2.98204e-74
3.44113e-70
3.61468e-76
-3.08086e-77
-2.99694e-73
2.23314e-79
1.83699e-80
-1.3496e-75
6.54598e-83
-2.43341e-84
-5.02972e-80
3.21339e-86
2.23153e-88
-4.26747e-82
2.71931e-89
1.02646e-90
-1.91809e-85
3.31186e-92
1.39543e-92
-3.39924e-88
2.30064e-95
1.94198e-95
-4.48531e-91
3.94766e-99
-3.94417e-100
4.69842e-96
1.44296e-102
1.33631e-103
-3.9222e-98
1.03445e-105
1.1061e-107
-1.37612e-100
7.63303e-109
6.06414e-110
-2.8917e-105
2.36386e-112
4.55178e-114
-1.21311e-107
1.75251e-115
-2.6343e-117
-1.0043e-110
1.51695e-118
2.12533e-119
-2.3396e-113
3.10275e-122
8.85037e-124
-1.71334e-120
3.6969e-125
-2.11023e-126
3.49176e-122
3.93349e-127
1.77418e-129
-1.25172e-123
4.40274e-130
2.86652e-132
-3.53712e-126
6.05254e-134
-7.79179e-137
-1.29871e-129
1.89034e-137
4.89245e-139
1.45694e-133
7.8549e-141
-7.79444e-143
7.22789e-136
4.80757e-144
-5.1538e-146
-1.07312e-139
4.275e-147
2.07544e-148
-5.89794e-144
5.78241e-151
-1.14253e-152
2.31081e-147
-5.3542e-153
2.69401e-155
1.53943e-148
1.23852e-157
1.16544e-154
6.17197e-08
-9.96635e-10
3.3527e-07
2.254e-08
4.70749e-08
6.43443e-09
2.49697e-08
5.04889e-08
9.17289e-08
-1.37794e-08
-3.86398e-08
-3.17323e-08
-3.56317e-08
-6.02911e-08
-9.80843e-08
-2.66228e-08
-2.33799e-08
1.44206e-08
1.38334e-08
-3.59248e-08
-2.19205e-08
-1.44946e-08
-2.13155e-08
1.74057e-08
-2.6216e-08
-9.83104e-09
-1.55782e-08
-7.20699e-09
1.52936e-08
-2.11179e-08
2.89139e-08
2.12992e-08
1.11522e-08
-1.18042e-09
3.79818e-09
4.00911e-09
1.49364e-08
-1.27191e-09
-1.08147e-09
-1.58297e-08
-5.44096e-10
-2.80037e-10
4.02376e-10
-9.47266e-11
1.70858e-10
-3.99012e-16
-6.94899e-18
-3.4828e-08
-3.4828e-08
-4.77312e-18
-4.43835e-16
-4.86907e-16
-4.68454e-16
5.24317e-25
1.47465e-21
1.19874e-22
2.55219e-19
2.53996e-19
2.55127e-19
2.56604e-19
6.32452e-26
1.8896e-25
-4.26812e-27
-2.43831e-29
3.30686e-29
1.10967e-30
2.372e-32
5.20272e-32
1.08612e-32
3.34383e-35
-1.08199e-35
1.23297e-37
3.60145e-39
-2.00837e-40
7.21857e-40
1.12032e-42
6.71179e-43
5.43048e-44
4.78463e-46
-4.26236e-47
-1.23165e-46
2.07213e-49
1.73475e-50
3.37045e-49
8.92655e-53
5.45963e-54
2.98764e-51
3.82517e-56
-2.36779e-56
1.45213e-54
1.63189e-59
4.24043e-60
-3.61534e-58
6.9206e-63
-1.2355e-63
-1.09081e-60
2.91677e-66
-2.34765e-67
-5.47393e-65
1.22466e-69
6.07721e-71
1.64893e-67
5.15082e-73
1.05414e-74
1.55018e-71
2.15931e-76
2.05354e-77
-3.59394e-74
8.86523e-80
-1.21629e-81
2.30405e-78
3.68504e-83
-2.13024e-84
-2.53698e-81
1.75556e-86
-1.03105e-87
-1.66473e-83
9.75978e-90
6.25393e-90
-5.61722e-86
3.09027e-93
2.12377e-94
-7.94989e-94
1.28885e-96
-5.12691e-98
6.77384e-96
5.97402e-100
-1.60238e-102
-5.2224e-96
2.26245e-103
4.07631e-105
5.62673e-101
1.0529e-106
-5.97146e-108
4.3033e-102
4.96435e-110
8.39913e-113
-1.79967e-105
2.84067e-113
-2.83373e-116
7.48671e-109
2.44074e-116
-1.28741e-118
-1.16203e-112
5.47033e-119
3.49363e-120
5.36767e-116
2.81663e-122
1.37991e-123
-3.24298e-118
2.41931e-125
-7.80207e-128
-3.5406e-121
4.6914e-129
-1.5247e-131
-7.52574e-125
2.81325e-132
4.55737e-134
4.13167e-127
9.15292e-136
3.18293e-137
6.13561e-131
6.93082e-139
-9.1928e-142
1.21795e-136
1.78688e-141
2.86538e-143
-4.47688e-137
9.81755e-145
1.25514e-148
-2.01767e-140
4.36426e-147
-8.87545e-149
-2.63414e-143
3.46291e-151
-4.24554e-154
2.12733e-150
1.39179e-153
-3.22398e-157
5.1429e-151
5.03097e-157
-7.67748e-153
-6.25574e-09
3.01168e-08
-4.97536e-08
-6.13784e-08
-1.30776e-08
-1.89911e-08
1.58738e-08
3.62219e-08
2.48977e-08
9.2047e-08
3.87312e-08
-2.87992e-07
9.95409e-09
-1.59203e-08
2.15513e-09
-2.87878e-08
4.28252e-08
1.24012e-07
4.11111e-08
3.86836e-08
3.75599e-08
4.10882e-08
1.29376e-07
1.26825e-07
1.26771e-07
1.28255e-07
-2.81389e-07
-4.4928e-07
-6.22124e-07
-1.64488e-07
4.69251e-08
4.49364e-08
4.78468e-08
2.99805e-08
-2.27965e-08
3.77506e-09
-3.61459e-08
1.63902e-08
-2.61319e-08
7.00905e-09
-3.41007e-08
-7.56189e-08
1.70026e-08
1.1549e-08
1.89497e-08
9.79576e-09
-1.86372e-08
-2.70946e-08
-1.92504e-08
1.93786e-09
1.14808e-08
1.93072e-10
5.64672e-10
-1.54164e-08
7.32656e-11
-6.91514e-11
1.47398e-09
-7.37679e-11
1.42348e-09
4.72936e-16
4.56388e-18
4.58199e-09
4.58199e-09
4.32819e-18
4.72929e-16
4.72932e-16
4.72915e-16
-4.48548e-26
6.17777e-23
-4.66291e-23
2.60156e-21
2.71659e-21
2.7196e-21
2.77121e-21
-1.49916e-27
-7.51597e-27
-1.57183e-27
1.26952e-28
-1.24126e-30
5.40559e-31
1.34072e-31
-4.66541e-32
5.34298e-34
3.23934e-36
-2.47135e-36
2.06071e-37
4.41189e-40
-2.33765e-40
-3.66293e-41
1.76242e-43
-3.98712e-44
-2.01032e-43
7.46902e-47
-1.91511e-47
-1.51915e-47
3.15936e-50
7.02093e-52
1.04145e-49
1.33226e-53
-3.70177e-54
1.63938e-52
5.59251e-57
5.16787e-58
6.13429e-56
2.3381e-60
-1.54162e-61
5.95232e-60
9.72942e-64
-4.72642e-65
-1.80454e-62
4.03911e-67
-2.9514e-69
-1.20713e-65
1.6687e-70
-4.49501e-73
2.80325e-68
6.85617e-74
-1.69956e-76
-6.9987e-73
2.81558e-77
-4.20456e-81
-1.45804e-75
1.15625e-80
2.26657e-82
-3.3853e-78
4.82578e-84
2.3152e-86
-4.1107e-81
1.90486e-87
-2.62942e-89
-5.68822e-85
8.10076e-91
1.98745e-92
-4.28701e-90
3.70299e-94
-6.89581e-97
-1.45705e-90
1.38455e-97
-5.69444e-99
6.91238e-96
7.57127e-101
1.62761e-102
-7.57777e-97
3.08186e-104
3.11131e-105
-3.19374e-100
1.25382e-107
-2.84888e-109
3.24746e-103
6.45539e-111
-4.88115e-113
-1.18909e-106
3.13259e-114
-1.68112e-116
4.58214e-110
1.19432e-117
9.73104e-120
2.19554e-113
1.95061e-120
-1.89565e-123
7.81179e-116
7.69044e-124
3.18374e-126
-2.03369e-119
8.95508e-128
1.22581e-129
1.16595e-124
1.38431e-130
-1.31266e-132
-7.11652e-128
2.81873e-133
2.23359e-135
6.27666e-129
8.02344e-137
4.44287e-138
4.28039e-133
6.80884e-140
4.53455e-142
-2.03478e-135
1.39484e-143
5.56361e-146
-1.60282e-138
5.38043e-147
1.49883e-148
1.61374e-143
1.21101e-149
-1.57395e-151
-9.62244e-147
-9.29896e-154
-1.82847e-153
4.66968e-150
1.06838e-153
-2.11634e-156
4.3517e-153
2.17642e-159
-3.08533e-154
1.68192e-08
1.25451e-08
3.36697e-08
2.4185e-08
3.05803e-08
1.7856e-08
-3.14674e-08
4.70667e-09
1.65277e-08
2.89587e-08
2.60203e-08
1.69041e-08
2.1709e-08
1.38708e-09
2.00487e-09
6.70296e-09
7.55596e-09
3.75991e-08
4.44509e-08
3.85135e-08
3.86966e-08
4.84517e-08
-1.75823e-07
-1.20295e-07
2.45554e-07
2.7665e-08
3.20865e-08
1.54898e-08
1.73214e-08
1.60514e-08
1.44611e-08
1.6617e-08
1.75868e-08
1.65288e-08
1.3007e-08
-9.85782e-09
-9.52918e-09
-5.2804e-09
-6.66796e-09
3.1276e-08
2.62863e-08
1.16349e-08
2.46084e-08
-2.37801e-07
4.46249e-08
1.358e-07
1.45452e-07
-5.70205e-09
-1.51898e-08
-1.44351e-09
-1.36911e-09
2.34656e-08
-6.02256e-12
1.45929e-12
-2.4688e-08
5.05674e-12
-2.46878e-08
9.3198e-22
-1.4493e-21
-4.24889e-21
-6.88897e-20
5.20421e-20
-1.76529e-18
6.4796e-19
-9.60345e-19
-9.59797e-19
-9.80937e-19
-9.5984e-19
-7.74732e-27
-4.41211e-25
-8.61967e-26
9.08112e-28
5.20314e-28
-1.29419e-30
4.54136e-31
-1.11406e-29
7.68342e-32
5.25833e-35
-3.28154e-33
7.17388e-35
7.54092e-39
-4.08137e-37
1.51272e-38
2.65069e-42
-9.63673e-41
8.03427e-42
1.13708e-45
-2.31848e-44
6.61193e-46
4.93394e-49
-6.78642e-48
6.10881e-48
2.13161e-52
-1.28304e-51
1.1949e-50
9.15987e-56
-2.65485e-55
-1.47832e-54
3.91613e-59
-7.91519e-59
1.31822e-57
1.66308e-62
-3.1726e-62
-8.80932e-60
7.03038e-66
-2.79617e-66
-1.58387e-63
2.96168e-69
-6.54972e-70
1.12449e-66
1.24152e-72
-5.69777e-73
-1.1007e-69
5.47814e-76
4.14346e-77
-9.27741e-74
2.68565e-79
-2.32567e-81
-3.30353e-76
9.61117e-83
-1.90092e-83
-6.63763e-80
3.91427e-86
-7.78546e-87
1.01148e-82
1.61658e-89
-6.33114e-91
-8.0574e-87
6.71836e-93
-6.24585e-93
-2.67425e-90
6.75961e-96
-6.26014e-97
-2.08686e-93
3.567e-98
9.75568e-101
-1.13157e-94
2.4087e-102
1.57474e-103
-1.27768e-100
6.5413e-106
-5.49347e-106
4.00159e-105
4.18139e-109
-2.32747e-109
3.5111e-107
7.54662e-112
2.84138e-113
-1.16553e-107
1.60001e-115
-1.89032e-115
-1.29181e-110
7.34246e-119
1.04904e-118
4.1557e-114
1.93548e-122
-1.07535e-122
-2.43305e-118
1.51437e-125
-5.52857e-126
1.18199e-123
5.42454e-128
3.2948e-129
-5.75699e-124
6.93614e-131
-1.0637e-132
-6.92137e-127
6.94454e-134
1.00761e-134
-7.64531e-130
9.89939e-138
1.88848e-138
-4.51724e-133
3.35345e-141
-2.89386e-142
-9.74884e-139
1.02329e-144
-2.19268e-144
1.21199e-141
1.29861e-147
-3.63655e-148
-5.28422e-145
5.13888e-150
3.24522e-152
-2.82118e-146
4.22553e-153
-1.64323e-153
-3.631e-149
1.80706e-153
-1.41273e-156
-2.11758e-152
-9.54277e-158
3.07831e-156
-4.31902e-08
2.11039e-08
2.18648e-08
-3.05201e-08
-2.75655e-08
-2.55321e-08
-2.7131e-08
5.64435e-08
7.18296e-10
2.85354e-08
6.88848e-08
4.06818e-08
-8.10184e-09
7.78429e-09
3.427e-08
1.83724e-08
2.45087e-08
3.17836e-08
-1.11452e-08
-1.08799e-07
-5.89087e-08
-1.74497e-08
-9.56686e-08
-1.32521e-07
1.41508e-07
3.01972e-07
2.3947e-08
-7.59755e-09
-1.56741e-08
6.50654e-08
5.5556e-08
1.06891e-09
-6.98275e-10
5.88861e-08
-3.69535e-08
-8.54629e-08
3.89912e-09
3.79567e-09
-8.97186e-08
-1.74275e-09
2.05058e-10
2.54436e-09
6.74913e-10
-4.38283e-09
5.29177e-14
4.69791e-16
-1.39839e-18
-1.08479e-16
3.26119e-16
-3.35311e-14
2.21911e-13
-1.24948e-13
2.14816e-15
-3.92426e-16
-3.92068e-16
-2.27457e-23
-1.36961e-21
2.36665e-21
-1.39829e-20
9.72092e-20
-8.71079e-20
-6.71555e-26
-2.98196e-26
6.38778e-27
-1.14948e-29
4.15764e-30
-5.15552e-31
8.61374e-35
-6.55936e-35
2.13698e-38
-1.66672e-37
8.78899e-42
-8.57796e-41
3.66268e-45
-3.89081e-45
1.52234e-48
-8.57197e-47
6.29912e-52
-5.94329e-51
2.60436e-55
-9.2241e-53
1.07797e-58
4.70747e-58
4.44792e-62
-1.31581e-59
1.81055e-65
1.17354e-63
7.39283e-69
3.31047e-66
3.00769e-72
1.20022e-70
1.22672e-75
2.85866e-73
5.00436e-79
-5.87372e-76
2.05347e-82
2.95955e-80
8.74406e-86
-1.69665e-81
5.46721e-89
-6.20556e-85
9.87412e-92
-8.60729e-88
1.142e-95
-9.32678e-92
8.21914e-99
9.09107e-98
1.31293e-101
-1.25201e-97
4.80763e-105
-1.01449e-100
2.03911e-108
-4.54954e-104
6.61152e-112
-1.91523e-108
1.03814e-114
4.75783e-111
8.85184e-118
3.43975e-113
3.80824e-121
6.29354e-117
1.25733e-123
-1.29203e-119
8.31517e-128
-1.30149e-127
2.81046e-131
-3.76113e-127
2.68054e-134
1.23635e-132
1.45024e-136
-1.24963e-132
1.41475e-140
2.25851e-135
1.75298e-143
-3.58384e-139
1.40546e-146
4.16774e-142
5.29068e-150
4.40048e-145
2.39251e-153
-3.97691e-149
1.59208e-153
2.77525e-151
-7.19198e-155
3.86858e-07
5.65211e-10
-1.02506e-07
5.52715e-10
1.92658e-08
8.90853e-08
1.44255e-09
9.24236e-09
9.62869e-08
-1.6635e-08
-1.08914e-08
-4.73502e-08
-5.5389e-07
-5.04915e-09
7.08734e-07
-1.40534e-07
-1.21075e-07
-1.95888e-09
5.93812e-10
-2.56396e-09
-2.63214e-08
1.39507e-07
1.39353e-07
8.24952e-08
9.66157e-08
-1.32633e-07
-2.45287e-08
8.12862e-09
-2.29647e-07
5.31268e-09
-1.83944e-08
-6.80479e-10
3.31515e-11
5.2356e-10
2.04595e-08
7.68326e-15
-1.42706e-16
2.12382e-18
4.81626e-16
-9.66747e-18
-1.02402e-14
1.00835e-14
-8.90989e-15
5.31e-23
9.12204e-23
1.90324e-22
-3.74725e-20
8.18183e-21
-2.86576e-21
2.02974e-20
1.60237e-25
-1.20168e-24
-3.24784e-28
1.9758e-26
-4.80065e-27
-1.62959e-29
1.24956e-28
-5.12078e-30
1.13531e-31
2.13197e-32
-3.47278e-33
-2.2927e-34
2.50608e-36
-4.1862e-36
1.06934e-37
1.72785e-39
-8.65335e-40
-9.85509e-41
1.24686e-42
-6.59982e-43
2.77847e-44
8.66873e-46
-2.53621e-46
1.67105e-46
5.99876e-49
-2.05625e-49
-4.22425e-52
4.14019e-52
-1.23623e-52
4.44636e-53
2.84734e-55
-7.05893e-56
-1.45813e-56
1.955e-58
-3.46444e-59
9.14377e-60
1.33895e-61
-1.49531e-62
-6.38226e-63
9.13991e-65
3.23272e-67
-4.95834e-66
6.22855e-68
-1.1396e-68
4.07051e-69
4.23329e-71
7.49385e-72
-2.04619e-72
2.8703e-74
-2.21407e-75
3.72396e-75
1.94217e-77
1.66476e-78
2.44538e-79
1.31112e-80
7.44862e-82
4.59274e-82
8.83062e-84
2.56691e-86
1.88976e-85
5.93139e-87
-2.12525e-88
4.2006e-88
3.97535e-90
-1.57079e-92
-1.57605e-91
2.65755e-93
1.42712e-93
-4.52866e-95
1.77341e-96
7.85382e-97
4.88174e-101
1.18133e-99
-1.03348e-100
-2.35166e-100
7.85944e-103
6.50621e-104
1.53299e-104
5.21883e-106
6.50947e-107
2.34483e-107
3.45502e-109
2.54509e-110
-9.96046e-111
2.28112e-112
2.74058e-113
3.08729e-114
1.50425e-115
-5.83469e-117
3.61444e-117
9.90493e-119
5.388e-120
-1.04179e-123
6.50897e-122
-1.6945e-123
5.13616e-123
4.26994e-125
2.42075e-126
-6.24735e-127
2.79521e-128
-1.04555e-130
2.11629e-130
1.82719e-131
2.18782e-132
-1.61583e-133
1.19143e-134
5.07771e-135
-2.67102e-140
7.75066e-138
-1.98985e-139
2.51098e-139
5.03194e-141
-1.01506e-142
4.02666e-142
3.26448e-144
-2.769e-145
-4.58217e-145
2.11288e-147
-5.42878e-149
3.61314e-149
1.33847e-150
3.1064e-152
1.022e-151
1.36736e-154
3.24619e-154
6.05669e-09
-1.04907e-07
-1.0358e-07
-8.01658e-09
-7.91643e-08
5.34034e-07
-4.00547e-07
1.07563e-08
7.11701e-09
3.77352e-09
8.33276e-08
6.6212e-09
-1.43056e-08
-1.66341e-08
-6.05747e-09
-9.24031e-09
-1.22402e-07
2.64191e-08
6.2902e-08
5.96147e-08
2.88935e-08
4.71099e-11
1.23443e-09
1.51992e-08
-1.25117e-07
1.17199e-08
-1.83653e-07
2.65558e-07
-2.38132e-07
-5.72342e-09
2.04393e-08
-9.94252e-09
-2.54885e-07
1.19852e-08
1.59051e-08
2.11675e-09
6.59125e-09
8.22389e-10
2.80218e-09
-2.80384e-08
2.32786e-13
3.8198e-15
4.10609e-15
8.5393e-17
-4.6148e-16
-1.89708e-12
4.32585e-13
1.53455e-12
-3.19876e-14
-4.94477e-14
-9.7409e-15
-9.67735e-15
7.9936e-21
-5.3398e-18
-8.4514e-22
-1.01512e-18
6.70063e-18
-1.67932e-18
6.56417e-18
-5.293e-18
-5.30321e-18
-5.29309e-18
6.44479e-25
-5.05691e-22
-3.07452e-26
9.84098e-30
-4.84558e-25
3.76419e-30
6.66822e-30
-3.70112e-28
2.59852e-32
1.06067e-33
-3.54476e-32
3.42952e-35
3.40567e-37
-1.79081e-35
-1.8445e-39
2.25896e-40
-8.40577e-39
-8.38223e-42
1.67411e-43
-3.36759e-42
-2.07351e-45
1.21114e-46
-1.16457e-45
-3.15779e-48
8.63013e-50
-5.96653e-49
8.75308e-52
6.12383e-53
-2.14581e-52
-2.55558e-54
4.33334e-56
-7.63754e-56
-1.36901e-56
3.0557e-59
-4.82856e-59
-7.3662e-61
2.14682e-62
-3.97778e-62
-9.70931e-64
1.50284e-65
-4.65208e-66
1.30967e-66
1.04945e-68
-4.66392e-69
-3.11245e-70
7.30891e-72
1.19594e-72
1.03252e-72
5.07165e-75
-2.85947e-76
2.82509e-77
3.5103e-78
-1.08029e-79
3.66002e-79
2.42309e-81
4.57481e-83
1.50168e-82
1.66796e-84
-3.19815e-85
7.08584e-86
1.14488e-87
3.6871e-88
8.47165e-89
7.8359e-91
8.88085e-92
2.7121e-91
5.35444e-94
4.37004e-95
3.42208e-95
3.65294e-97
3.83345e-98
4.51778e-98
2.48707e-100
-1.09792e-100
3.58278e-101
1.68801e-103
-7.35446e-104
-5.1591e-104
1.14306e-106
3.04626e-107
6.74219e-108
7.72396e-110
-2.20164e-110
3.95314e-111
5.20703e-113
-5.66865e-114
5.84939e-114
3.50364e-116
2.3516e-117
1.54336e-118
2.3507e-119
-4.58244e-120
3.72813e-120
1.57291e-122
1.11036e-123
2.3388e-126
1.0511e-125
1.22647e-128
-8.84231e-127
7.00468e-129
1.29608e-129
-1.25193e-130
4.66028e-132
1.25876e-134
-3.41789e-135
3.09874e-135
-1.87656e-136
6.66288e-136
2.05416e-138
5.4563e-139
-6.64855e-139
1.35781e-141
3.94672e-143
4.15601e-143
8.95971e-145
6.03183e-145
3.85353e-146
5.89858e-148
9.13585e-149
3.31473e-149
4.31573e-151
3.19259e-152
2.98396e-152
1.93253e-155
3.03943e-157
7.12605e-09
-1.479e-07
-1.46172e-07
-1.47892e-08
5.68096e-09
9.07924e-09
1.77911e-09
1.18421e-08
-2.00389e-09
1.66589e-08
-8.9891e-09
4.94604e-09
7.56948e-09
7.11109e-08
7.16907e-08
-2.94719e-08
9.59468e-08
-3.63515e-08
-1.0412e-08
4.44993e-08
3.95656e-08
1.59474e-08
1.75229e-08
-6.56281e-08
1.75311e-08
5.81638e-09
-2.83544e-08
-2.15729e-08
1.83246e-08
1.40695e-07
2.05736e-08
5.22784e-08
4.5624e-10
-1.84336e-08
5.95998e-09
6.8749e-09
-4.72478e-08
-4.94304e-11
-1.11224e-11
-2.37734e-12
1.41561e-11
4.93088e-12
1.62847e-13
4.10563e-18
-5.50503e-18
7.07817e-19
-5.29472e-18
6.49372e-19
2.41909e-23
-5.22018e-21
1.29529e-22
-5.41471e-20
-5.41582e-20
-5.41824e-20
-5.43293e-20
3.14242e-27
-2.24613e-24
8.24434e-27
2.66905e-29
-6.78747e-28
1.93549e-30
1.29573e-32
-2.57754e-31
5.45285e-34
3.59783e-36
-6.94043e-35
1.89591e-37
2.50367e-39
-5.4756e-38
-3.53189e-41
1.9345e-42
-2.1479e-41
-1.86849e-44
1.45641e-45
-1.01996e-44
-4.40685e-47
1.07731e-48
-4.10352e-48
-5.41392e-50
7.89331e-52
9.22539e-53
-2.83229e-52
5.74265e-55
-2.03818e-55
9.68036e-57
4.15479e-58
-3.93284e-58
-6.47943e-60
2.98703e-61
-2.44292e-61
9.15727e-62
2.13616e-64
-1.57491e-64
2.67105e-66
1.52083e-67
7.27771e-69
5.45507e-68
1.07753e-70
-5.00697e-72
6.01711e-72
7.59289e-74
1.23628e-73
2.91386e-75
5.33296e-77
-2.04449e-77
2.69959e-79
3.73153e-80
-5.12335e-81
-4.22168e-82
2.59946e-83
1.74725e-83
1.86735e-86
1.80767e-86
4.8177e-87
-6.52594e-89
1.2533e-89
-8.79178e-90
5.08231e-90
8.65651e-93
1.93236e-93
2.20674e-95
5.96904e-96
-7.32376e-98
6.02171e-99
4.09788e-99
1.38883e-99
1.05786e-100
2.80139e-102
2.83689e-103
1.17528e-103
1.91203e-105
4.43034e-106
2.33351e-106
1.30174e-108
-2.98583e-109
-7.28022e-110
8.8345e-112
-8.5582e-113
1.94872e-113
5.98377e-115
1.52305e-115
-1.19265e-116
4.04105e-118
4.94771e-119
8.53363e-120
2.7194e-121
3.39415e-121
2.97753e-122
1.82651e-124
2.17104e-125
3.24578e-126
1.22419e-127
3.03772e-128
-2.57131e-129
8.19463e-131
-1.23959e-130
1.59264e-133
5.47587e-134