/*--------------------------------*- C++ -*----------------------------------*\
| =========                 |                                                 |
| \\      /  F ield         | OpenFOAM: The Open Source CFD Toolbox           |
|  \\    /   O peration     | Version:  5.0                                   |
|   \\  /    A nd           | Web:      www.OpenFOAM.org                      |
|    \\/     M anipulation  |                                                 |
\*---------------------------------------------------------------------------*/
FoamFile
{
    version     2.0;
    format      ascii;
    class       volScalarField;
    location    "1.8";
    object      p;
}
// * * * * * * * * * * * * * * * * * * * * * * * * * * * * * * * * * * * * * //

dimensions      [1 -1 -2 0 0 0 0];

internalField   nonuniform List<scalar> 
9235
(
107.17
98.8632
104.252
103.734
102.328
100.737
98.745
94.9553
92.2169
89.5272
86.9012
84.3169
81.7665
79.2673
76.7852
74.3348
71.9011
69.4998
67.1235
64.7726
62.4256
60.0993
57.8041
55.4985
53.2182
50.9543
48.6979
46.4374
44.1959
41.9795
39.7584
37.5621
35.3942
33.2199
31.0353
28.8837
26.7838
24.7214
22.6666
20.6058
18.5729
16.5853
14.5998
12.5861
10.6021
8.66504
6.73061
4.78912
2.86851
0.958933
98.9561
106.716
104.829
98.7116
105.61
102.124
98.814
94.8525
92.1223
89.4749
86.8715
84.2963
81.7738
79.2682
76.7806
74.3371
71.9002
69.5167
67.1505
64.7769
62.4316
60.1029
57.7935
55.4982
53.2056
50.9386
48.6856
46.439
44.2036
41.9819
39.7733
37.5759
35.3913
33.21
31.0375
28.8898
26.7805
24.7062
22.6494
20.6049
18.5788
16.588
14.6076
12.6062
10.61
8.65531
6.7177
4.78627
2.86976
0.958889
95.7641
99.7789
99.0534
95.915
104.676
101.501
99.2907
95.3916
91.8078
89.3348
86.7917
84.2443
81.7323
79.2493
76.7746
74.3203
71.907
69.532
67.1609
64.7739
62.433
60.1053
57.7859
55.4935
53.2088
50.9338
48.6761
46.4451
44.2138
41.9839
39.7778
37.5747
35.3708
33.198
31.0463
28.9043
26.7799
24.6965
22.6458
20.607
18.5884
16.5875
14.592
12.6067
10.6197
8.65175
6.71055
4.78696
2.87194
0.958857
94.1242
95.9057
102.126
106.472
101.211
100.006
99.3174
94.9352
91.6087
89.2405
86.7269
84.2306
81.7093
79.2265
76.7668
74.3209
71.9057
69.525
67.1382
64.7754
62.442
60.1046
57.791
55.4955
53.222
50.9459
48.6757
46.4515
44.2082
41.974
39.7782
37.5696
35.3638
33.1928
31.0537
28.9214
26.7867
24.6929
22.647
20.6154
18.5919
16.5741
14.5741
12.5938
10.6248
8.65394
6.71231
4.79478
2.87821
0.953745
20.1539
117.455
120.545
98.7219
86.5942
97.8182
98.2439
94.7431
91.5547
89.1885
86.6912
84.1874
81.6969
79.215
76.7691
74.3257
71.9168
69.516
67.1173
64.7737
62.4445
60.1032
57.7962
55.4996
53.2302
50.96
48.6857
46.4472
44.1966
41.967
39.7732
37.5632
35.366
33.1934
31.0561
28.931
26.7971
24.6972
22.6495
20.6207
18.5907
16.5614
14.5534
12.5827
10.6215
8.6551
6.71903
4.80792
2.88647
0.951625
114.412
114.974
84.8282
96.467
92.8277
97.8228
98.3048
95.0318
91.6578
89.2347
86.7064
84.1932
81.6993
79.2209
76.7797
74.3362
71.9263
69.5193
67.115
64.7712
62.4431
60.1031
57.7978
55.5106
53.2363
50.9742
48.6959
46.4404
44.1894
41.96
39.7668
37.557
35.3564
33.1945
31.0591
28.9326
26.8064
24.7076
22.6528
20.622
18.5848
16.5478
14.5402
12.573
10.6175
8.6597
6.73536
4.83214
2.89619
0.954584
88.0947
101.359
104.117
98.7177
91.546
105.411
100.805
95.3203
91.7207
89.2628
86.737
84.2167
81.7302
79.2433
76.7818
74.3387
71.9273
69.5282
67.1198
64.7606
62.4322
60.1021
57.7967
55.5185
53.2419
50.9721
48.7023
46.4377
44.1903
41.969
39.7617
37.5438
35.3491
33.2005
31.0618
28.9269
26.812
24.7204
22.655
20.6144
18.5776
16.5387
14.5355
12.5706
10.6134
8.66158
6.74165
4.83245
2.9019
0.96391
91.392
107.066
98.593
95.1139
103.648
102.91
98.8601
94.9645
91.7488
89.3122
86.7713
84.2441
81.7494
79.2549
76.7693
74.3461
71.921
69.5198
67.1338
64.7544
62.4224
60.0973
57.7947
55.52
53.2413
50.977
48.7036
46.4355
44.2021
41.9754
39.7572
37.5407
35.3527
33.2073
31.0602
28.9166
26.8119
24.7338
22.6614
20.6089
18.5731
16.5516
14.5491
12.5755
10.6119
8.66384
6.74032
4.82143
2.90003
0.968266
101.028
105.368
100.348
98.936
101.085
97.9621
98.0544
94.6861
92.0609
89.4419
86.8556
84.2981
81.7716
79.265
76.7884
74.3512
71.9067
69.506
67.1293
64.7639
62.4167
60.0922
57.8003
55.5159
53.2449
50.9767
48.7004
46.4333
44.1946
41.9734
39.7452
37.5416
35.3728
33.2128
31.0538
28.9087
26.8091
24.7368
22.6652
20.6073
18.5715
16.5592
14.5647
12.576
10.6082
8.66491
6.7331
4.81012
2.88718
0.969359
102.824
114.591
100.994
120.249
102.032
100.653
99.2981
95.0356
92.242
89.5266
86.9036
84.3133
81.7597
79.2665
76.789
74.3376
71.9045
69.5061
67.1234
64.7652
62.4179
60.0924
57.8035
55.505
53.2336
50.9735
48.7011
46.4355
44.1927
41.9752
39.7487
37.5481
35.3878
33.2189
31.0405
28.8887
26.7967
24.7317
22.6679
20.6056
18.5718
16.5737
14.5787
12.5769
10.6007
8.66776
6.73558
4.79951
2.87571
0.958948
97.3713
99.6702
103.982
103.198
101.733
100.696
98.7437
94.9562
92.2168
89.5272
86.9014
84.3169
81.7663
79.2673
76.7852
74.3347
71.9011
69.4999
67.1236
64.7725
62.4255
60.0994
57.8041
55.4984
53.2182
50.9543
48.6978
46.4373
44.1957
41.9794
39.7584
37.562
35.3942
33.2198
31.0353
28.8836
26.7837
24.7214
22.6666
20.6058
18.5728
16.5854
14.5999
12.5861
10.6021
8.66509
6.73053
4.78888
2.86846
0.959011
100.718
105.206
95.8128
99.5893
105.423
102.303
98.807
94.8529
92.1222
89.4746
86.8714
84.2963
81.7738
79.2682
76.7806
74.337
71.9002
69.5168
67.1504
64.7768
62.4317
60.103
57.7932
55.4981
53.2056
50.9384
48.6855
46.4389
44.2036
41.9819
39.7738
37.576
35.3913
33.21
31.0375
28.8897
26.7805
24.7062
22.6493
20.6048
18.5788
16.5881
14.6075
12.6059
10.6101
8.65533
6.71761
4.78626
2.86996
0.958837
94.9099
102.121
98.7831
98.3978
104.933
101.336
99.1669
95.391
91.8093
89.3347
86.7917
84.2443
81.7323
79.2493
76.7746
74.3203
71.9072
69.5318
67.161
64.7739
62.4327
60.1053
57.7857
55.4935
53.2087
50.9337
48.6761
46.445
44.2139
41.9841
39.7775
37.5746
35.3709
33.198
31.0464
28.9043
26.7796
24.6965
22.6458
20.6069
18.5884
16.5876
14.5919
12.6065
10.6197
8.65158
6.7104
4.78699
2.87195
0.958844
85.1164
93.9853
93.9907
105.188
104.694
100.05
99.3276
94.9353
91.6092
89.2399
86.7269
84.2305
81.7092
79.2264
76.7668
74.3208
71.9057
69.5249
67.1381
64.7753
62.4421
60.1046
57.791
55.4957
53.222
50.9458
48.6758
46.4516
44.2084
41.9738
39.778
37.5698
35.3638
33.1928
31.0538
28.9214
26.7867
24.6929
22.647
20.6156
18.5919
16.5739
14.574
12.5939
10.6248
8.65393
6.71216
4.79477
2.87819
0.953632
20.434
93.9367
108.197
95.2904
90.8943
97.9219
98.2481
94.7424
91.5549
89.1885
86.6912
84.1873
81.6968
79.2149
76.7691
74.3258
71.9168
69.516
67.1172
64.7737
62.4445
60.1027
57.7957
55.4997
53.2299
50.9601
48.6858
46.4472
44.1961
41.9667
39.7732
37.5632
35.3659
33.1934
31.0561
28.9309
26.7971
24.6972
22.6496
20.6211
18.5906
16.5611
14.5534
12.5827
10.6214
8.65508
6.71899
4.80777
2.88644
0.95167
120.916
127.869
84.3886
102.886
90.4691
96.9923
98.3036
95.0301
91.6579
89.2348
86.7063
84.193
81.6994
79.2209
76.7797
74.3361
71.9263
69.5194
67.1148
64.771
62.4432
60.1031
57.7975
55.5105
53.2363
50.9742
48.6958
46.4403
44.1893
41.9602
39.7669
37.5565
35.3563
33.1947
31.0591
28.9325
26.8064
24.7076
22.6528
20.622
18.5847
16.5474
14.5402
12.573
10.6173
8.65968
6.73532
4.83215
2.89594
0.954545
100.717
101.092
93.0554
94.7113
112.662
102.016
100.801
95.3173
91.7211
89.2627
86.737
84.2167
81.7302
79.2433
76.7818
74.3386
71.9273
69.5281
67.1197
64.7607
62.4322
60.1021
57.7967
55.5185
53.2418
50.972
48.7022
46.4377
44.1904
41.969
39.7618
37.5437
35.349
33.2005
31.0618
28.9268
26.8119
24.7203
22.655
20.6146
18.5776
16.5385
14.5355
12.5706
10.6133
8.66156
6.74173
4.83254
2.90167
0.964031
85.8875
107.381
101.346
93.6333
104.354
91.3631
98.8745
94.9612
91.7495
89.312
86.7713
84.2441
81.7493
79.2549
76.7692
74.3461
71.9213
69.5196
67.1343
64.7544
62.4223
60.0974
57.7948
55.52
53.2413
50.977
48.7036
46.4352
44.202
41.9754
39.757
37.5404
35.3527
33.2073
31.0601
28.9166
26.8118
24.7337
22.6613
20.6089
18.573
16.5517
14.5491
12.5755
10.6118
8.66382
6.74031
4.82141
2.90001
0.968235
105.949
102.091
96.3073
103.218
113.334
97.4843
97.915
94.6867
92.061
89.4419
86.8556
84.2981
81.7716
79.265
76.7884
74.3513
71.9067
69.5061
67.1293
64.764
62.4167
60.0922
57.8004
55.5158
53.2448
50.9767
48.7002
46.4333
44.1946
41.9735
39.7452
37.5415
35.3731
33.2128
31.0535
28.9088
26.8093
24.7367
22.665
20.6073
18.5715
16.5592
14.5647
12.5759
10.6081
8.66495
6.73307
4.81009
2.88722
0.969353
116.343
97.7102
117.313
102.742
103.779
102.448
99.292
95.0362
92.2419
89.5266
86.9037
84.3133
81.7596
79.2668
76.789
74.3379
71.9044
69.5061
67.1235
64.7651
62.4178
60.0922
57.8035
55.505
53.2336
50.9734
48.701
46.4355
44.1927
41.9752
39.7485
37.5481
35.3879
33.2188
31.0404
28.8887
26.7967
24.7317
22.6678
20.6056
18.5717
16.5737
14.5786
12.5767
10.6007
8.66783
6.73548
4.79949
2.87581
0.958938
100.276
100.244
82.2768
105.473
100.779
100.656
98.7397
94.9557
92.2168
89.5271
86.9014
84.3171
81.7661
79.2676
76.7851
74.334
71.901
69.4999
67.1237
64.7724
62.4254
60.0994
57.8039
55.4982
53.2183
50.9544
48.6976
46.4373
44.1955
41.979
39.7584
37.5621
35.3942
33.2197
31.0352
28.8836
26.7836
24.7214
22.6666
20.6056
18.5726
16.5854
14.6
12.5862
10.6021
8.66506
6.73038
4.78879
2.86835
0.958994
102.356
100.897
85.2464
131.812
105.198
102.592
98.8122
94.852
92.1222
89.4744
86.8714
84.2962
81.7737
79.2681
76.7805
74.3367
71.9001
69.5169
67.1502
64.7767
62.4317
60.103
57.793
55.4975
53.2055
50.9383
48.6852
46.4389
44.2037
41.9823
39.7738
37.5759
35.3912
33.21
31.0374
28.8896
26.7804
24.7066
22.6492
20.6047
18.5788
16.5882
14.6074
12.6055
10.6101
8.65532
6.71735
4.7862
2.87002
0.958642
96.2349
102.689
96.7055
186.063
104.735
101.374
99.1772
95.3922
91.8091
89.3347
86.7916
84.2442
81.7322
79.2492
76.7745
74.3202
71.9071
69.5316
67.161
64.7738
62.4323
60.1052
57.7856
55.4934
53.2087
50.9336
48.6762
46.445
44.2138
41.9841
39.7774
37.5743
35.371
33.1981
31.0465
28.9043
26.7794
24.6965
22.6457
20.6068
18.5887
16.5876
14.5913
12.6063
10.6197
8.65148
6.71018
4.78694
2.87191
0.958518
123.931
93.2949
108.779
103.239
105.567
100.092
99.3405
94.9368
91.6086
89.2397
86.7268
84.2304
81.7091
79.2264
76.7667
74.3208
71.9056
69.5246
67.1381
64.7752
62.4421
60.1045
57.7909
55.4957
53.2211
50.9455
48.6759
46.4515
44.2083
41.9738
39.7779
37.5697
35.3637
33.1928
31.0537
28.9213
26.7865
24.6929
22.647
20.6155
18.5919
16.5738
14.5737
12.5941
10.6248
8.65385
6.71207
4.79472
2.87807
0.953305
122.548
118.677
105.754
105.589
81.6335
97.4933
98.2432
94.7428
91.5542
89.1888
86.6911
84.1867
81.6966
79.2149
76.7691
74.326
71.9167
69.5159
67.117
64.7738
62.4446
60.1026
57.7955
55.4997
53.2296
50.9601
48.6859
46.4471
44.1959
41.9666
39.7732
37.5632
35.3657
33.1933
31.0561
28.9309
26.7975
24.6971
22.6495
20.6212
18.5904
16.5606
14.5535
12.5826
10.6212
8.65501
6.71915
4.80758
2.88628
0.951579
115.7
110.606
85.2456
98.2071
93.6637
98.8895
98.31
95.0306
91.6572
89.235
86.7061
84.1929
81.6995
79.2208
76.7797
74.336
71.9262
69.5194
67.1147
64.7708
62.4432
60.1029
57.7974
55.5104
53.2363
50.9741
48.6957
46.4401
44.1893
41.9606
39.767
37.5563
35.3561
33.1954
31.0592
28.9324
26.8063
24.7075
22.6527
20.6221
18.5847
16.5469
14.5401
12.5731
10.6172
8.65961
6.7353
4.83214
2.89532
0.954512
105.125
92.8634
94.2979
93.6262
67.4271
104.801
100.799
95.3169
91.7206
89.2627
86.7369
84.2166
81.7301
79.2432
76.7817
74.3386
71.9272
69.528
67.1197
64.7607
62.4321
60.102
57.7967
55.5185
53.2416
50.972
48.7021
46.4379
44.1907
41.969
39.7616
37.5435
35.349
33.2004
31.0617
28.9266
26.8119
24.7203
22.6549
20.6146
18.5775
16.5384
14.5354
12.5706
10.6131
8.66149
6.74202
4.8323
2.90143
0.963979
106.753
62.0022
107.918
97.286
103.907
98.839
98.8949
94.9615
91.7492
89.3121
86.7712
84.244
81.7492
79.2548
76.7692
74.346
71.9215
69.5193
67.1343
64.7543
62.4223
60.0973
57.795
55.5199
53.2413
50.977
48.7041
46.4351
44.2017
41.9755
39.757
37.5403
35.3526
33.2072
31.06
28.9165
26.8118
24.7336
22.6613
20.6089
18.5729
16.5516
14.5491
12.5754
10.6117
8.66375
6.74026
4.82136
2.89999
0.968162
100.708
91.8154
92.4539
103.376
106.123
95.7534
97.9194
94.6863
92.0612
89.4419
86.8555
84.298
81.7715
79.2649
76.7883
74.3515
71.9076
69.506
67.1293
64.764
62.4166
60.0923
57.8003
55.5158
53.2444
50.9767
48.7001
46.4332
44.1949
41.9736
39.7451
37.5414
35.3734
33.2127
31.0533
28.9087
26.8093
24.7365
22.6649
20.6072
18.5716
16.5592
14.5646
12.5757
10.608
8.66493
6.73296
4.81002
2.88738
0.969263
111.67
107.222
116.158
101.923
110.904
106.228
99.2925
95.0359
92.2419
89.5265
86.9037
84.3131
81.7593
79.2668
76.7889
74.3381
71.9044
69.506
67.1238
64.765
62.4175
60.0921
57.8034
55.505
53.2336
50.9732
48.7009
46.4355
44.1927
41.9751
39.7485
37.5482
35.3884
33.2187
31.0403
28.8889
26.7967
24.7316
22.6678
20.6055
18.5717
16.5735
14.5785
12.5766
10.6006
8.66777
6.73522
4.79934
2.87579
0.958865
100.34
102.552
99.7605
100.724
100.315
102.551
99.7508
100.346
101.271
100.254
102.178
100.287
101.299
100.29
100.488
100.408
99.8923
101.334
100.512
100.405
99.8913
99.5757
99.2035
98.4042
100.031
99.577
99.1658
98.4199
98.0096
98.5888
97.6555
97.6538
98.0114
98.6858
97.6354
97.9649
103.418
100.489
97.3283
97.9961
103.372
100.508
101.291
93.3689
99.9522
104.554
101.266
92.4824
99.9428
98.9998
98.994
97.8884
92.5669
99.0128
98.0167
97.7766
99.4374
106.059
100.707
97.4444
99.4644
105.752
100.224
100.846
101.069
100.216
102.339
100.724
104.738
100.206
100.295
102.521
99.7476
100.656
100.32
102.533
99.7661
100.259
101.275
100.274
102.266
100.264
101.304
100.3
100.518
100.405
99.8872
101.347
100.513
100.419
99.8982
99.5737
98.6162
98.3671
100.054
99.588
98.9709
98.4337
97.9872
98.4891
97.6704
97.5011
97.991
98.6657
97.6555
97.9415
102.562
100.534
97.0216
97.8556
102.119
100.482
101.225
92.9355
99.9454
103.112
101.078
92.4812
99.9313
99.0137
96.6444
97.7318
99.3058
99.0221
96.6171
98.3195
99.4551
107.015
100.512
96.185
99.4542
104.704
100.404
100.807
99.0364
100.212
106.568
100.776
100.965
100.231
100.285
102.623
99.7699
100.695
100.343
103.164
99.7761
100.289
101.313
100.301
103.171
100.355
101.345
100.253
100.507
100.366
99.9037
101.475
100.472
100.433
99.9004
99.5921
98.9907
98.3644
100.115
99.5939
98.9918
98.3491
98.0052
95.6421
97.7011
97.6628
97.9935
96.2794
97.6871
97.9598
101.835
100.477
97.7837
97.9266
103.507
100.488
101.103
92.1006
99.9321
103.716
101.053
91.9405
99.9352
99.0253
96.4062
98.1926
100.508
99.0202
96.3153
98.1471
99.4542
104.603
100.371
99.5909
99.4135
105.616
100.632
100.841
100.988
100.237
116.832
100.833
101.512
100.211
101.223
104.093
105.926
101.58
101.851
103.485
102.987
103.106
101.354
103.847
100.739
102.205
106.011
101.134
97.3102
99.0758
97.2474
98.7445
97.3191
99.0752
97.2562
102.307
102.849
101.051
104.6
102.253
102.497
100.96
101.279
101.645
101.801
102.073
101.656
100.517
101.242
97.2679
99.1208
96.9931
98.8101
97.2766
99.0579
97.0024
103.484
103.168
100.511
104.794
101.732
103.325
100.523
100.92
101.455
101.356
101.392
101.146
101.333
100.906
97.0639
99.39
96.33
99.1829
97.0637
99.3816
96.3397
100.671
99.5962
99.5914
103.184
100.065
98.9854
99.4355
99.0879
99.0294
95.5171
100.018
98.6918
96.6532
115.374
96.1791
98.6991
95.6171
99.3201
96.1856
98.705
95.6196
103.311
97.4672
98.1956
87.0304
97.4924
92.4073
101.884
97.0483
97.5962
96.78
98.0108
97.612
97.1779
97.056
95.5888
98.0204
95.6913
98.2513
95.5895
98.02
95.6868
103.601
94.4412
101.449
90.5434
101.122
95.4103
107.677
99.6479
96.8322
102.775
97.6887
96.7363
99.3748
99.221
95.7888
100.271
96.488
98.3052
95.7824
100.276
96.4905
116.214
113.882
22.6663
90.7607
119.699
118.155
-1.03923
105.321
103.113
113.992
105.477
103.074
113.903
106.105
96.6045
99.924
96.4465
100.804
96.6062
99.8981
96.4555
93.966
98.8056
97.9057
103.824
95.1454
100.589
98.7937
96.8995
98.2691
94.97
121.697
98.1549
94.7665
96.8116
96.3655
97.7933
96.4589
98.8782
96.3759
97.4908
96.4578
126.248
100.05
103.706
115.544
107.876
96.9879
108.073
101.511
98.8597
105.068
97.5498
98.8391
103.088
101.649
96.5688
99.4693
97.1087
97.9134
96.578
99.4592
97.1186
111.732
102.566
105.282
103.648
106.6
102.462
108.166
103.86
103.709
107.839
100.168
103.72
108.737
103.842
97.3207
99.3707
97.4464
99.2961
97.3297
99.3705
97.4554
102.258
103.474
102.736
101.107
101.07
103.574
102.564
101.624
101.382
102.397
100.697
101.433
102.196
101.418
97.3184
99.0783
97.2551
98.7417
97.3182
99.0825
97.2549
102.781
104.087
101.011
105.045
101.864
103.051
100.957
101.361
101.642
102.112
102.322
101.322
101.657
101.94
97.2758
99.0621
97.0017
98.808
97.2751
99.0377
97.0017
101.861
103.156
100.921
104.698
101.873
103.382
101.005
100.85
101.34
101.332
101.32
100.871
101.401
101.229
97.0636
99.3758
96.3382
99.163
97.0635
99.3655
96.3377
103.6
107.432
99.9413
104.58
103.241
104.057
99.4675
101.561
100.746
106.437
100.056
101.352
100.562
107.837
96.1841
98.6993
95.6161
99.3427
96.1868
98.7099
95.6156
96.3511
92.3659
101.296
89.9919
93.6336
90.2697
95.0111
96.8546
97.5934
96.5697
97.7826
96.962
97.597
96.4889
95.5864
98.0213
95.6857
98.2451
95.5863
98.0153
95.684
100.489
94.0737
108.39
93.7481
98.3664
96.7676
101.312
98.8512
96.7557
99.5241
96.9081
98.8291
96.7557
99.5348
95.7814
100.28
96.4868
98.3063
95.7818
100.284
96.4871
109.359
123.307
58.2825
65.6763
94.3105
115.111
91.0698
105.295
102.867
112.974
104.644
105.397
102.785
113.522
96.6028
99.9042
96.4527
100.795
96.6035
99.9049
96.4525
94.5906
96.8541
95.1807
103.97
97.7418
104.164
96.9472
96.8632
97.9901
97.8077
96.3494
96.8933
97.8925
96.0491
96.3743
97.3151
96.4567
98.8905
96.3748
97.3768
96.4567
84.6003
93.9547
105.289
104.904
60.1864
100.118
88.2998
101.223
98.7128
103.498
97.627
101.241
98.6371
102.982
96.5767
99.4482
97.118
97.9181
96.5765
99.464
97.1179
106.121
103.695
107.073
104.266
105.672
101.129
114.811
103.648
103.899
108.501
117.681
103.83
103.955
113.213
97.3284
99.3721
97.4545
99.2904
97.3282
99.3741
97.4545
101.145
103.527
102.692
100.789
102.309
103.519
102.668
101.056
101.376
102.165
100.622
101.278
102.188
101.374
97.3187
99.0829
97.2558
98.742
97.3098
99.0801
97.2467
101.871
102.057
100.968
104.891
102.041
102.997
100.978
101.382
101.659
101.939
102.827
101.367
101.678
101.991
97.2753
99.029
97.0029
98.8172
97.2659
99.1387
96.9943
101.85
103.304
100.818
104.639
102.608
103.34
100.914
100.862
101.426
101.039
101.389
100.865
101.465
101.011
97.0637
99.3692
96.3395
99.2888
97.0642
99.3665
96.3298
103.486
108.961
99.496
104.727
103.626
107.103
100.005
100.881
100.968
105.222
100.098
101.08
100.892
101.168
96.1889
98.7036
95.6198
99.3382
96.1802
98.7131
95.6166
93.7059
89.7723
96.2885
81.4511
96.0223
87.5714
95.7658
96.8487
97.434
96.5709
97.4965
96.8944
97.4116
96.7558
95.5897
98.0187
95.6861
98.2371
95.5882
98.0154
95.6887
98.8333
99.6758
98.4054
97.5502
101.229
96.8342
97.9083
98.9207
97.3254
99.3094
97.8613
98.9138
97.2467
99.1415
95.7834
100.288
96.4903
98.3091
95.7915
100.282
96.4874
92.7076
112.597
56.3542
64.3348
89.5872
113.413
57.7879
104.999
102.734
110.295
104.181
105.326
102.862
109.404
96.6049
99.901
96.4553
100.786
96.6025
99.919
96.4472
94.5851
94.0726
97.0253
106.971
94.5167
93.762
97.0985
96.6275
97.8714
94.6764
98.9045
96.502
97.8694
95.4589
96.3762
97.3516
96.4579
98.8746
96.3654
97.4668
96.459
78.8041
100.833
91.4646
104.83
76.6309
102.52
90.3081
100.701
98.5036
99.8082
105.382
101.068
98.5233
96.3362
96.5776
99.4693
97.1186
98.068
96.5683
99.4704
97.1088
111.197
99.5744
103.121
109.985
108.931
114.625
105.312
103.739
104.029
98.7732
112.232
103.663
104.042
104.673
97.3292
99.3741
97.4555
99.2954
97.32
99.3724
97.4465
103.911
101.551
100.252
100.34
100.145
107.178
101.192
101.805
102.018
101.546
102.56
102.043
101.547
101.724
101.593
100.381
101.007
99.7659
100.479
100.997
101.474
106.308
100.743
101.158
102.248
102.257
102.92
101.107
105.643
100.326
101.114
100.266
100.136
104.487
101.101
101.646
102.567
102.003
101.547
102.011
101.548
102.097
101.468
99.7569
100.317
101.027
100.421
101.006
102.37
101.263
101.408
100.458
100.309
101.409
100.382
101.219
101.345
101.612
101.073
101.27
101.578
101.069
101.334
101.299
100.818
100.962
100.265
100.665
100.97
101.284
101.309
102.296
101.636
101.977
101.648
105.223
101.313
101.297
100.295
101.413
100.335
101.406
100.334
101.272
101.349
101.274
101.625
101.092
101.888
101.068
101.361
101.318
100.268
100.656
100.967
100.637
100.966
101.34
100.861
100.869
100.604
100.501
100.882
100.617
100.86
100.515
102.109
100.13
100.408
102.105
100.133
100.546
100.529
100.318
100.015
99.8976
100.328
100.016
100.651
100.896
101.343
101.368
101.284
101.246
101.425
100.896
100.808
100.507
100.878
100.622
100.887
100.627
100.83
100.479
100.397
102.095
100.123
102.096
100.128
100.452
100.559
99.899
100.315
100.002
100.326
100.043
100.601
100.188
99.4898
99.1506
99.5789
99.453
99.1647
100.136
99.2196
99.8405
98.2764
99.0136
97.92
98.2453
99.2287
98.8567
98.737
98.3479
98.411
98.7361
98.3361
98.8482
106.32
100.02
104.736
101.486
99.8532
99.6874
101.278
99.7371
99.58
99.5805
99.1747
99.5006
99.1681
101.091
99.6134
98.8184
96.7391
98.2557
97.2624
98.2453
98.8465
98.9273
98.4258
98.732
98.3418
98.7325
98.3372
98.7306
97.3974
97.7671
97.5809
98.0155
97.7664
97.5818
97.4015
97.3077
98.7312
97.2424
98.5224
101.247
97.117
96.6494
96.9365
97.3766
97.3658
97.6615
97.3741
97.369
97.0036
97.1412
97.8271
97.5997
96.2488
97.6086
98.0729
96.8885
97.3725
97.9993
97.7543
97.5717
97.7633
97.5915
97.3753
97.057
101.3
95.2772
97.0321
99.0103
97.1027
95.8845
96.9331
97.6673
97.3476
97.3556
97.3906
97.3641
96.9242
99.007
97.6173
98.9116
97.9571
97.5923
98.9233
98.9862
99.0006
101.24
101.586
104.093
99.613
101.648
99.0906
99.2352
99.1873
101.016
100.481
99.1893
101.006
99.2689
98.8657
97.4877
96.7564
99.525
96.7596
99.5045
98.8168
98.9473
98.1268
97.6184
98.9109
97.5989
98.9719
98.9503
99.0283
102.774
99.9099
101.648
99.9919
101.556
99.0853
99.244
100.462
99.1622
101.002
99.1723
101.007
99.246
103.395
101.92
101.898
101.432
101.908
101.848
103.383
107.002
124.676
99.1478
94.8484
123.74
99.0136
107.092
103.143
101.616
99.7465
99.9357
101.568
99.7396
103.18
105.244
110.487
103.191
112.608
103.085
117.369
105.665
103.329
101.15
101.847
101.856
102.017
101.854
103.318
107.016
92.4187
122.327
99.1161
123.366
99.0788
106.807
103.156
99.9508
101.588
99.7256
101.595
99.7119
103.098
98.0527
98.5633
98.3072
99.009
98.5798
98.3193
98.047
99.6751
106.146
96.4663
103.732
105.116
98.109
102.988
97.994
98.5407
98.7155
97.9871
98.5743
98.7071
98.2159
96.8169
92.7394
97.9628
95.8747
97.9127
94.8276
97.81
98.0235
99.0131
98.5695
98.3098
98.5696
98.3188
98.0221
99.7404
95.6928
100.158
102.143
100.063
96.2353
101.133
97.9183
97.7364
98.6367
98.6343
98.5674
98.6857
98.0313
101.368
99.5742
100.04
99.4578
99.5841
99.9963
101.36
102.673
111.833
103.173
105.131
110.12
103.116
102.67
102.072
100.652
102.82
100.572
100.49
102.779
102.089
101.394
97.4876
98.7876
108.702
98.8317
103.048
101.353
101.373
99.4625
99.5621
99.9598
99.5771
99.97
101.375
102.684
104.975
109.536
103.189
110.935
103.21
102.632
102.076
100.626
100.452
102.833
100.412
103.238
102.153
102.707
102.674
100.7
100.773
102.61
100.729
102.77
103.22
104.779
101.645
102.476
104.601
103.189
101.899
102.413
101.094
101.331
100.215
101.101
102.399
101.266
103.87
126.743
103.863
106.836
103.744
106.731
103.851
102.624
100.749
102.755
100.731
102.666
100.729
102.631
103.211
116.729
106.325
101.985
108.286
103.182
102.182
102.422
100.198
101.114
101.199
101.098
102.34
101.315
102.097
101.363
100.232
100.308
101.895
100.153
101.424
101.588
102.051
101.548
102.506
101.35
101.999
101.559
101.169
100.378
100.992
99.7559
101.002
100.474
100.962
101.379
100.656
101.345
102.17
102.233
101.279
101.417
101.65
100.336
101.278
100.168
100.166
101.561
101.417
101.543
102.527
101.997
101.573
102.005
101.574
101.557
101.143
99.7644
100.451
100.967
100.472
100.964
101.131
101.249
101.434
100.347
100.252
101.24
101.426
100.357
101.379
101.693
101.068
101.282
101.374
101.64
101.072
101.35
100.649
100.966
100.272
101.344
100.643
100.972
101.36
102.255
101.651
104.061
101.658
102.074
101.346
101.23
100.257
101.391
100.35
101.404
100.377
101.137
101.387
101.295
101.759
101.087
101.648
101.094
101.399
101.359
100.269
100.643
100.957
100.65
100.965
101.356
100.768
100.874
100.619
100.522
100.774
100.87
100.616
100.398
102.096
100.077
100.416
100.43
102.092
100.044
100.645
100.308
100.01
99.8904
100.614
100.303
100.059
100.866
101.329
101.433
101.203
101.391
101.207
100.864
100.772
100.519
100.822
100.607
100.847
100.613
100.756
100.366
100.435
102.015
100.027
102.089
100.129
100.369
100.683
99.8951
100.297
100.015
100.299
100.008
100.711
100.059
99.5947
99.173
99.5775
99.6807
99.5044
99.1868
98.944
113.749
98.2763
99.2235
100.059
104.014
98.2352
99.9871
98.7393
98.3435
98.3471
98.6863
98.7413
98.3548
101.859
100.101
100.925
104.739
101.435
102.226
101.728
100.315
99.5836
99.6371
99.1731
99.897
99.2163
99.247
99.9527
98.9578
103.927
98.2456
104.132
98.248
99.4144
99.6656
98.4767
98.7549
98.3732
98.7508
98.3858
99.0982
97.3772
97.7548
97.5832
97.9834
97.3802
97.7546
97.5851
95.9368
95.7027
96.8717
98.4143
95.9335
95.7892
96.7955
96.9185
97.3811
97.3808
97.6312
96.9227
97.3652
97.3457
96.8446
97.5602
97.4656
96.4712
97.5201
96.4811
96.8786
97.3662
98.0323
97.7677
97.5756
97.7592
97.5643
97.3214
95.9247
98.5523
94.4241
96.8726
98.7254
96.996
95.8759
96.9151
97.7235
97.3831
97.366
97.4021
97.3434
96.891
98.9509
97.6179
98.9685
97.8943
98.9929
97.6681
98.9004
99.1965
99.7003
101.597
102.609
99.2355
99.4754
101.601
99.2494
99.2056
101.031
100.477
99.2582
99.1765
100.993
99.0109
97.0383
97.8777
102.903
96.7438
102.163
98.9029
98.9478
97.8961
97.6094
98.9101
97.6206
98.9433
98.9473
99.1802
102.218
100.834
101.638
100.426
101.564
99.1264
99.2484
100.477
99.17
100.991
99.1877
100.967
99.2577
103.2
101.844
101.897
101.04
103.259
101.861
101.892
106.469
122.259
99.2887
100.899
106.665
121.069
99.3636
102.994
101.588
99.8118
99.9356
103.03
101.592
99.8013
105.185
103.372
102.719
110.415
102.785
114.776
105.119
103.151
101.12
101.91
101.856
101.861
101.884
103.132
106.374
96.5063
115.738
99.4064
115.888
99.4058
106.287
102.948
99.9365
101.541
99.8226
101.584
99.8102
102.897
98.0075
98.5873
98.3105
99.0168
98.019
98.6074
98.3147
101.593
99.7473
97.0886
96.6433
101.914
101.019
98.029
98.0677
98.3281
98.5565
98.2996
98.0495
98.5212
98.5214
96.9558
109.61
97.9217
95.8436
97.9252
96.1321
96.5905
97.9892
99.0195
98.6391
98.32
98.6253
98.3186
97.9874
100.062
96.7612
97.6593
106.542
99.4992
102.941
100.33
98.0826
98.3921
98.5819
98.4595
98.6649
98.511
97.9439
101.366
99.55
99.94
99.4382
101.372
99.5398
99.9251
102.651
109.347
103.282
105.143
102.631
109.145
103.224
102.149
100.443
102.938
100.526
102.163
100.427
102.838
101.184
98.2035
98.5197
109.8
98.561
102.526
101.138
101.353
99.4408
99.5217
99.921
99.5287
99.9206
101.329
102.661
104.949
108.484
103.106
110.008
103.164
102.681
102.145
100.444
100.467
102.774
100.44
102.774
102.147
102.544
102.736
100.699
100.927
102.57
102.835
100.622
103.114
106.389
101.723
102.011
103.15
108.067
101.853
102.163
101.133
101.073
100.208
102.255
101.16
101.064
103.985
107.006
104.009
107.97
104.031
107.333
103.665
102.851
101.082
102.912
100.679
103.221
100.588
102.326
103.077
101.165
105.876
101.877
108.859
103.085
101.876
102.065
100.21
101.187
101.215
101.18
102.117
101.158
101.523
101.372
100.156
100.258
101.573
100.131
101.411
101.567
102.004
101.574
102.716
101.558
102.008
101.575
101.146
100.459
100.966
99.7737
101.13
100.479
100.961
101.369
100.576
101.718
102.699
102.203
102.763
101.236
101.65
100.286
101.864
100.219
100.151
103.297
101.288
101.549
102.815
102.012
101.573
102.013
101.578
101.673
101.206
99.7805
100.39
101
100.466
100.967
101.452
101.168
101.364
100.39
100.308
101.162
101.355
100.39
101.423
101.663
101.108
101.314
101.415
101.663
101.093
101.348
100.645
100.954
100.287
101.349
100.653
100.962
101.371
102.964
101.707
102.008
101.679
101.969
101.45
101.148
100.326
101.431
100.495
101.344
100.428
101.456
101.435
101.321
101.682
101.11
101.68
101.098
101.432
101.33
100.272
100.769
100.962
100.676
100.97
101.298
100.775
100.816
100.608
100.499
100.764
100.828
100.605
100.217
101.869
100.03
100.432
100.325
101.848
100.069
100.759
100.304
100.011
99.9055
100.712
100.311
100.013
100.914
101.416
101.477
100.962
101.459
101.174
100.906
100.831
100.489
100.826
100.586
100.836
100.601
100.806
100.313
100.445
101.994
100.055
101.905
100.054
100.289
100.873
99.9058
100.317
100.02
100.323
100.022
100.815
99.4421
99.9836
99.1652
99.5949
99.3623
99.8083
99.1798
99.1763
104.257
98.2441
98.7909
99.3708
104.897
98.2299
99.2032
98.7818
98.3897
98.3454
99.2412
98.754
98.3889
100.925
100.104
100.887
101.663
101.036
101.489
101.361
99.8251
99.5963
99.8614
99.1942
99.9911
99.2207
100.018
99.3575
98.9935
105.27
98.2547
105.218
98.2132
99.3175
99.2423
98.3561
98.7609
98.4251
98.7615
98.395
99.2391
97.2495
97.774
97.6138
97.9914
97.2802
97.7707
97.582
95.8669
95.3516
96.8193
96.4705
95.87
95.0123
97.0532
96.8774
97.4741
97.4075
97.66
96.8882
97.3622
97.3792
96.8449
97.4974
97.4008
96.4219
97.4239
96.4383
97.156
97.2434
97.9879
97.7699
97.5922
97.771
97.5871
97.2649
95.8388
96.1871
95.1838
96.6825
94.5242
96.7592
95.9693
96.8793
97.6555
97.4134
97.3626
97.3652
97.3567
96.8886
98.9502
97.6096
98.931
97.9166
98.9455
97.6075
98.9155
99.6074
99.18
101.302
101.813
99.1275
99.3717
101.252
99.2611
99.1858
101.017
100.484
99.2581
99.1729
100.962
98.9173
97.7545
97.2588
99.4802
97.2558
99.2964
98.9969
98.9503
97.9125
97.6763
98.9587
97.6034
98.917
99.072
99.3921
101.802
99.1756
101.501
99.184
101.267
99.2945
99.2431
100.485
99.2322
101.097
99.1756
100.935
99.3575
103.152
101.821
101.839
100.911
103.14
101.797
101.819
106.248
115.195
99.3783
91.9454
106.191
108.916
99.3763
102.932
101.522
99.8311
99.919
102.878
101.499
99.8295
104.856
103.154
102.355
108.561
102.328
109.284
104.754
103.172
101.178
101.833
101.914
101.787
101.818
103.255
106.861
91.5351
122.254
99.4304
129.782
99.5198
106.438
102.956
99.9147
101.562
99.9111
101.492
99.805
102.943
97.9895
98.6546
98.3233
99.0279
97.9856
98.6619
98.3249
100.641
96.8655
102.386
96.4325
100.298
96.7252
98.6166
97.8379
98.6192
98.4174
98.115
97.9487
98.6101
98.4332
96.6355
100.142