/*--------------------------------*- C++ -*----------------------------------*\
| =========                 |                                                 |
| \\      /  F ield         | OpenFOAM: The Open Source CFD Toolbox           |
|  \\    /   O peration     | Version:  5.0                                   |
|   \\  /    A nd           | Web:      www.OpenFOAM.org                      |
|    \\/     M anipulation  |                                                 |
\*---------------------------------------------------------------------------*/
FoamFile
{
    version     2.0;
    format      ascii;
    class       surfaceScalarField;
    location    "1.8";
    object      phi;
}
// * * * * * * * * * * * * * * * * * * * * * * * * * * * * * * * * * * * * * //

dimensions      [0 3 -1 0 0 0 0];

internalField   nonuniform List<scalar> 
27583
(
-3.5743e-09
-2.10965e-09
6.6696e-09
2.7045e-09
-4.54172e-09
-7.95988e-10
-6.24107e-09
-6.14892e-09
2.8881e-11
6.51983e-09
-4.52309e-09
9.06784e-09
-2.01259e-08
2.00988e-08
-6.39593e-09
1.77092e-09
-1.50915e-09
5.51504e-09
8.77429e-11
1.28846e-09
-2.37229e-09
2.3286e-09
1.67951e-10
-3.81497e-10
5.02043e-12
-5.35061e-10
-3.62066e-11
1.8812e-10
-3.05086e-12
1.88051e-11
-2.50797e-11
-6.1276e-11
-5.18564e-11
1.39853e-09
3.00951e-11
-3.29184e-11
-2.45623e-10
-2.59451e-10
-4.0346e-10
-4.39485e-10
1.38767e-09
3.6427e-11
-7.68456e-13
1.38325e-09
1.96207e-11
3.67136e-13
1.37869e-09
1.33222e-11
-6.42239e-14
1.37671e-09
8.6168e-12
-1.54943e-13
1.37561e-09
5.72681e-12
-8.62097e-15
1.37442e-09
3.26534e-12
5.11598e-13
1.37347e-09
2.03903e-12
1.46219e-14
1.37334e-09
1.70777e-12
-6.94297e-14
1.37355e-09
7.18746e-13
-3.39277e-14
1.373e-09
1.08308e-13
-3.14185e-13
1.37257e-09
3.44064e-12
-2.23215e-12
1.3729e-09
4.35084e-14
1.25476e-14
1.37297e-09
1.41712e-13
2.61575e-13
1.37265e-09
2.39124e-13
-1.90727e-14
1.37311e-09
-1.1404e-12
7.20382e-13
1.3729e-09
-4.565e-14
3.58557e-13
1.37357e-09
-9.52547e-13
7.30949e-13
1.37292e-09
-1.15715e-12
-2.65011e-13
1.37321e-09
-2.69587e-14
1.86512e-13
1.37321e-09
7.21834e-14
-1.90792e-14
1.37311e-09
-2.34157e-13
-1.12309e-12
1.37335e-09
2.03182e-13
-7.5718e-13
1.37258e-09
-9.88585e-13
3.76844e-12
1.37301e-09
-8.93082e-13
2.86077e-12
1.37271e-09
-2.53413e-13
1.98926e-13
1.37371e-09
-1.17839e-12
3.20772e-13
1.37347e-09
9.76014e-14
-3.29465e-14
1.3732e-09
-3.39082e-14
-8.93579e-13
1.37232e-09
1.30919e-14
-9.09328e-13
1.3723e-09
7.32118e-13
-9.0687e-13
1.37404e-09
-2.79506e-12
7.0866e-13
1.37336e-09
4.48935e-13
1.16475e-13
1.37309e-09
2.17354e-14
2.5132e-13
1.37333e-09
4.50162e-14
-2.87957e-13
1.37436e-09
2.49169e-12
-5.9861e-13
1.37259e-09
3.68767e-12
-1.87376e-12
1.37283e-09
-5.19873e-13
-2.98223e-15
1.3728e-09
2.95003e-13
-8.58152e-13
1.37373e-09
-1.22716e-12
4.44629e-14
1.3735e-09
1.783e-13
7.19226e-14
1.37286e-09
-6.09967e-13
1.10889e-12
1.3831e-12
-1.27081e-12
1.06887e-09
-1.08122e-08
9.67267e-10
1.04805e-09
2.56227e-09
1.94432e-09
3.32259e-09
-6.17359e-09
-3.11433e-09
1.05731e-08
-4.2951e-09
5.99391e-09
3.61174e-08
1.05391e-09
2.02581e-09
-1.03794e-09
-4.38854e-09
-3.13489e-08
-1.44649e-08
1.14174e-08
-1.84252e-09
7.46242e-09
-1.02871e-08
1.27443e-09
1.49309e-08
-1.94426e-08
2.60984e-09
1.39074e-09
-1.31148e-09
9.19015e-10
1.09276e-10
-8.99743e-10
6.77016e-10
-4.49868e-09
-3.65451e-10
2.19355e-10
1.08453e-09
1.2735e-09
1.05981e-10
1.12056e-09
7.09128e-09
-1.56745e-09
-6.19179e-09
3.99208e-09
4.35053e-09
-3.96532e-09
-4.268e-09
-1.13614e-10
-2.55739e-10
1.04802e-10
3.79445e-10
-1.14893e-10
-4.2143e-11
-3.52057e-12
2.09846e-10
1.98076e-11
-4.41599e-11
-7.45641e-11
-7.84328e-11
2.4548e-12
6.05871e-12
4.01044e-12
6.42529e-13
1.40438e-09
1.01033e-11
-3.1088e-11
-2.5754e-10
-2.54851e-10
-4.29733e-10
-4.32103e-10
9.0445e-13
1.89773e-11
1.07383e-12
1.37801e-09
6.47068e-11
-1.8431e-12
1.37451e-09
2.37523e-11
-5.79848e-13
1.37256e-09
1.54448e-11
-1.204e-13
1.37197e-09
9.44724e-12
-1.95967e-13
1.37156e-09
6.26531e-12
-8.35307e-14
1.37199e-09
2.90179e-12
-2.77385e-14
1.37238e-09
1.70549e-12
-3.62245e-14
1.37197e-09
1.93654e-12
2.07303e-13
1.37236e-09
3.3504e-13
5.6479e-15
1.37243e-09
-5.42163e-14
1.02182e-13
1.37356e-09
-6.6419e-14
2.38952e-12
1.3731e-09
5.5504e-13
-4.3377e-14
1.37287e-09
4.6991e-13
-8.43406e-14
1.37292e-09
7.90627e-14
1.14842e-13
1.37288e-09
5.84175e-13
-1.67596e-12
1.37357e-09
5.69885e-13
-1.29689e-12
1.37315e-09
-7.01423e-14
-4.60488e-13
1.37286e-09
3.75163e-14
-8.97601e-13
1.373e-09
4.64136e-14
-2.1341e-13
1.37315e-09
9.62709e-14
-1.63111e-13
1.3724e-09
-9.46946e-13
1.46464e-12
1.37239e-09
3.42183e-13
-1.24698e-13
1.37283e-09
2.97117e-13
-1.72543e-12
1.37298e-09
5.9806e-13
-1.64118e-12
1.37404e-09
-3.41525e-12
2.1e-12
1.37372e-09
-2.39318e-12
1.53076e-12
1.3733e-09
5.65674e-13
-4.69363e-14
1.37348e-09
-6.41477e-14
-1.49921e-13
1.37363e-09
-3.0911e-14
-1.11817e-13
1.37369e-09
1.27759e-13
5.38791e-13
1.37235e-09
-1.02382e-12
-4.32946e-13
1.37258e-09
2.5857e-13
-4.57409e-14
1.37287e-09
-2.05219e-13
-7.45033e-14
1.37181e-09
1.43974e-12
-3.39788e-13
1.37278e-09
7.71782e-13
7.44973e-13
1.37431e-09
2.50385e-13
1.90298e-12
1.37368e-09
-1.03561e-13
2.10617e-13
1.37343e-09
7.96578e-14
4.60654e-13
1.37306e-09
-1.71409e-12
8.53136e-13
1.37293e-09
3.49506e-13
-4.7889e-14
1.37335e-09
2.02251e-13
-1.2325e-12
-1.94982e-13
1.32473e-12
5.95918e-09
-3.19408e-09
-1.75656e-08
-1.85822e-09
-1.90284e-09
2.25379e-09
2.18302e-08
-1.06576e-08
-4.2931e-09
6.09909e-09
1.3039e-09
-1.58422e-09
1.66015e-09
1.18055e-09
1.33752e-09
-9.58268e-09
6.24168e-09
5.29688e-09
5.43088e-09
-1.29325e-09
1.613e-08
-5.57139e-10
-8.52517e-10
2.36611e-09
-2.63944e-08
1.48663e-08
3.8657e-09
-9.76182e-10
-4.83779e-09
7.81302e-08
-1.3856e-09
-7.66419e-10
-7.58798e-10
-6.70305e-10
-6.89251e-09
-2.0534e-09
-1.57213e-08
-3.63027e-08
-3.23598e-09
-8.87598e-10
1.83725e-09
1.39798e-09
-3.32386e-09
-3.86476e-11
4.93256e-10
1.29593e-10
2.15751e-10
-7.99952e-10
-1.08811e-10
5.71911e-12
-1.06885e-11
7.90861e-11
3.46946e-11
-1.95635e-10
1.95409e-10
1.2458e-11
-2.12364e-12
1.33176e-09
1.92375e-11
-2.19025e-11
-2.41156e-10
-2.38367e-10
-3.95788e-10
-3.89054e-10
1.34949e-09
8.09208e-12
-2.0106e-12
1.35879e-09
5.68404e-12
5.10051e-13
1.36472e-09
3.55597e-12
1.26212e-14
1.36863e-09
2.32543e-12
6.33654e-14
1.37024e-09
1.35536e-12
-3.65084e-14
1.37112e-09
8.34593e-13
1.57732e-14
1.37251e-09
5.16041e-13
5.59944e-14
1.37265e-09
1.29702e-14
1.91768e-13
1.37255e-09
-3.56728e-13
4.14615e-13
1.37199e-09
8.74412e-13
-3.68668e-13
1.3726e-09
-1.05256e-13
5.22648e-14
1.3729e-09
5.41311e-13
-3.62093e-13
1.37341e-09
-2.30781e-13
-1.83711e-13
1.37286e-09
-5.67749e-13
1.70692e-12
1.37267e-09
-3.99523e-14
8.03758e-13
1.37247e-09
-6.74023e-13
8.15664e-13
1.37261e-09
-1.47577e-13
4.14234e-14
1.37271e-09
1.06912e-13
-1.46829e-13
1.37249e-09
-1.31188e-13
4.4913e-13
1.37308e-09
6.83671e-13
-2.22148e-12
1.37377e-09
1.05405e-12
-1.39981e-12
1.37358e-09
4.83532e-13
6.07699e-15
1.37452e-09
7.09716e-13
-1.04973e-12
1.37302e-09
1.71468e-13
-2.08856e-12
1.37277e-09
2.38718e-13
-2.38561e-12
1.37312e-09
2.69224e-13
-5.60885e-14
1.37324e-09
-2.14531e-13
3.45702e-14
1.3733e-09
-1.78865e-14
-8.4851e-14
1.37318e-09
-3.45297e-14
2.86996e-13
1.37293e-09
-3.82315e-13
-3.97759e-13
1.37258e-09
-4.7704e-13
1.07755e-12
1.37231e-09
8.31138e-14
-2.37142e-14
1.37267e-09
5.99039e-13
4.77796e-13
1.37268e-09
6.2274e-13
1.35296e-13
1.37439e-09
-1.48273e-12
1.75079e-14
1.37396e-09
2.8756e-13
3.17679e-14
1.37382e-09
7.74323e-14
1.38501e-13
1.37289e-09
1.26905e-13
-9.19855e-13
1.37279e-09
5.10765e-13
-6.23798e-14
1.37266e-09
2.70728e-13
6.53733e-14
-1.86748e-12
7.80253e-13
-2.80747e-09
-1.69666e-10
-1.75485e-09
4.22784e-10
1.22457e-09
8.15691e-11
1.23037e-09
-2.02414e-09
2.9532e-10
1.80239e-09
6.13375e-09
-3.74668e-09
-1.05404e-09
-3.46214e-10
-4.19582e-10
-1.27007e-09
-5.90419e-10
-3.05286e-09
-1.82818e-11
-4.73119e-09
2.9645e-09
-8.59203e-10
-3.8551e-09
-6.49575e-10
4.94069e-09
4.23187e-10
-1.27275e-10
-2.22928e-11
1.70157e-10
3.4367e-10
-3.64259e-10
1.11793e-10
-4.0938e-11
3.60399e-11
-2.37734e-10
1.30839e-10
-3.04197e-11
1.86964e-10
-2.73228e-12
-7.64158e-12
-3.09255e-11
-5.54358e-11
-5.7277e-11
-2.53184e-12
1.32613e-09
-2.08862e-11
-2.26349e-11
-2.39532e-10
-2.37732e-10
-3.92399e-10
-3.93686e-10
1.34648e-09
-9.83253e-12
-2.36514e-12
1.35693e-09
-5.24447e-12
5.16136e-13
1.36321e-09
-2.6497e-12
-2.91858e-14
1.36711e-09
-1.60013e-12
6.09261e-14
1.36935e-09
-8.62329e-13
-1.62974e-16
1.37063e-09
-4.14741e-13
-8.02547e-15
1.37138e-09
-1.87054e-13
-3.1437e-14
1.37179e-09
-1.93546e-13
-1.98578e-13
1.37211e-09
-2.93761e-13
-3.70214e-13
1.373e-09
2.58674e-13
-2.60399e-13
1.37281e-09
6.43042e-14
2.34835e-14
1.37307e-09
-1.76288e-16
2.97723e-13
1.37288e-09
-6.2226e-14
2.28257e-14
1.3728e-09
7.68756e-13
-1.24354e-12
1.37286e-09
-1.00096e-14
-8.27601e-14
1.37302e-09
4.96289e-14
-8.79302e-13
1.37306e-09
-8.03125e-14
-1.00899e-13
1.37308e-09
-2.31326e-14
1.19261e-13
1.37338e-09
7.09443e-13
-1.1369e-12
1.3739e-09
1.05487e-12
-8.93391e-13
1.37294e-09
4.58594e-13
1.55529e-12
1.3732e-09
3.72538e-13
-1.46484e-13
1.37329e-09
1.66335e-13
4.53628e-13
1.37267e-09
2.76822e-12
-1.97986e-12
1.37302e-09
-1.283e-13
1.66406e-14
1.37326e-09
2.47889e-13
-2.13329e-13
1.37312e-09
-1.0966e-13
2.56518e-14
1.3733e-09
-1.76527e-13
-2.58412e-14
1.37324e-09
7.19625e-14
-4.439e-14
1.37275e-09
-2.5151e-13
3.5454e-13
1.37308e-09
-2.221e-13
-5.92262e-13
1.37312e-09
-9.21759e-14
1.28532e-13
1.37334e-09
2.18815e-13
1.59466e-13
1.37355e-09
6.63152e-13
-2.53573e-13
1.37295e-09
-1.43855e-12
5.45152e-13
1.37337e-09
-2.33808e-13
9.82665e-14
1.37347e-09
1.18749e-13
-1.47429e-13
1.37348e-09
1.017e-12
-8.99786e-13
1.37249e-09
1.46894e-12
2.25301e-14
1.37275e-09
1.87013e-14
-3.21505e-15
-2.01963e-12
4.59976e-13
3.01705e-09
2.83377e-10
2.53912e-09
-5.81459e-09
6.29928e-10
7.39513e-10
-6.09095e-10
-1.63655e-09
8.76185e-10
1.67638e-10
-3.47982e-10
-2.02118e-09
3.48939e-09
-1.28786e-09
-1.82628e-09
7.75338e-09
1.05646e-09
-1.16698e-09
-1.0161e-09
-1.0405e-09
-9.54474e-10
-2.80548e-09
8.59012e-10
-8.40751e-09
-1.26077e-09
4.51611e-09
1.64288e-09
-1.1111e-09
1.88625e-09
1.87515e-09
3.84981e-10
4.54755e-10
6.5219e-11
-2.55799e-10
-6.49157e-10
-9.93097e-12
2.15299e-11
-3.48302e-11
-4.52345e-11
6.84657e-11
-3.0896e-11
1.91953e-10
-1.24906e-11
-6.90675e-12
-3.11178e-11
-5.95947e-11
-6.02242e-11
9.2772e-12
1.34643e-09
-3.52857e-11
-2.48308e-11
-2.43537e-10
-2.45968e-10
-4.04921e-10
-4.12754e-10
1.35657e-09
-1.8048e-11
-1.885e-12
1.36214e-09
-1.12288e-11
4.50394e-13
1.36526e-09
-5.69355e-12
-4.16573e-14
1.3689e-09
-5.86963e-12
6.55642e-13
1.37058e-09
-2.52228e-12
-6.19361e-15
1.37114e-09
-8.2057e-13
-1.35143e-13
1.37151e-09
9.77598e-13
-1.51545e-12
1.37197e-09
-5.85732e-13
-5.34799e-14
1.3724e-09
-5.57062e-13
-1.63053e-13
1.37254e-09
-5.42523e-13
6.76946e-13
1.37269e-09
-2.74915e-13
1.92051e-13
1.3728e-09
-1.0141e-13
5.1185e-15
1.37283e-09
-6.3087e-14
-2.55835e-14
1.37318e-09
-1.28834e-13
5.53815e-13
1.37316e-09
-1.99098e-13
2.19694e-13
1.37322e-09
-3.89105e-13
3.89652e-13
1.3734e-09
-3.59923e-13
1.02627e-13
1.37343e-09
-1.07507e-14
-3.45158e-14
1.37344e-09
-3.46643e-14
7.28901e-13
1.37281e-09
3.60364e-13
1.3276e-12
1.37277e-09
3.85378e-13
1.23586e-13
1.37338e-09
-2.36521e-14
-2.14396e-13
1.37248e-09
1.70336e-12
-6.41642e-13
1.37335e-09
5.29734e-15
1.89571e-12
1.37326e-09
2.66254e-14
-6.25963e-14
1.37318e-09
1.16465e-13
2.08681e-13
1.37303e-09
4.8722e-14
-1.4788e-14
1.37294e-09
-9.65014e-14
1.12611e-14
1.37284e-09
4.10737e-13
-2.41921e-13
1.37303e-09
-1.42227e-13
-3.11343e-13
1.37334e-09
-8.31644e-14
-4.48387e-13
1.37314e-09
2.97964e-13
-1.92993e-13
1.37342e-09
5.8624e-13
-6.59911e-13
1.37367e-09
2.98967e-13
1.09763e-13
1.3731e-09
-5.41578e-13
-3.35145e-13
1.37327e-09
-5.76212e-14
-3.49459e-13
1.3738e-09
-4.71661e-13
6.25394e-14
1.3739e-09
-1.34931e-12
2.2636e-12
1.37218e-09
3.70733e-12
-5.21797e-13
1.37255e-09
-7.5476e-13
3.96422e-13
-1.88134e-13
-9.53771e-13
-3.42581e-10
1.12744e-08
3.17207e-09
-1.36415e-08
5.43855e-10
-1.53258e-09
7.17358e-10
4.27855e-09
7.6262e-09
3.2286e-09
-1.00504e-09
-2.72947e-08
-2.19375e-08
6.56653e-10
3.44482e-08
-3.64293e-10
4.66321e-09
-1.80999e-10
-4.93856e-09
-1.40325e-10
-1.16285e-10
-2.09501e-10
7.30103e-10
3.204e-10
-6.50134e-11
3.01268e-10
-2.02796e-09
4.41493e-09
-5.92463e-09
1.87294e-09
1.66472e-09
-7.92545e-10
2.42528e-09
-1.96678e-09
2.94467e-11
3.04592e-10
1.80145e-10
-9.90963e-10
5.93825e-10
-3.494e-10
5.66393e-10
-5.37382e-11
7.18185e-11
-9.46586e-11
1.53566e-11
6.12218e-11
-3.47414e-11
2.07254e-10
-7.85401e-12
-2.72594e-12
1.21301e-11
-3.60592e-11
-6.73545e-11
-7.06496e-11
1.37466e-09
-1.75646e-11
-2.72443e-11
-2.53865e-10
-2.56519e-10
-4.24738e-10
-4.30005e-10
1.37228e-09
-1.31615e-11
-2.48618e-12
1.37045e-09
-9.75264e-12
3.74272e-13
1.3715e-09
-6.51214e-12
-2.09468e-13
1.37082e-09
-4.52724e-12
-6.37791e-13
1.37121e-09
-2.883e-12
-1.67926e-14
1.37205e-09
-1.76661e-12
1.30802e-13
1.3726e-09
-1.08486e-12
1.52037e-12
1.37271e-09
-7.03989e-13
2.39554e-14
1.37285e-09
-1.09751e-12
4.07541e-13
1.37304e-09
-4.26221e-13
-2.95612e-13
1.37296e-09
6.49446e-14
-2.47087e-13
1.37286e-09
-1.87568e-13
1.9828e-13
1.3729e-09
-1.0524e-13
2.83916e-15
1.37302e-09
1.57482e-13
-3.97711e-13
1.37287e-09
-5.87468e-15
-3.09481e-14
1.37288e-09
3.06859e-14
-4.28779e-13
1.37371e-09
9.4082e-13
-2.12309e-12
1.37375e-09
-3.24964e-15
-4.62942e-14
1.37352e-09
2.71757e-13
-6.73712e-14
1.37337e-09
6.91396e-13
-1.79713e-13
1.37213e-09
4.13795e-12
-2.5087e-12
1.37246e-09
-4.68406e-13
1.19574e-13
1.37342e-09
-7.58024e-13
1.49613e-12
1.37327e-09
2.60129e-13
-9.92447e-14
1.37307e-09
1.6943e-13
5.65245e-14
1.373e-09
8.21882e-13
-6.38839e-13
1.37312e-09
1.98441e-14
-9.63551e-14
1.37311e-09
-5.6913e-14
-3.28738e-14
1.37313e-09
1.66612e-13
2.23499e-13
1.37302e-09
-3.64453e-13
3.25931e-13
1.37354e-09
-7.66578e-13
1.57586e-13
1.37337e-09
2.61686e-13
2.02632e-13
1.37326e-09
5.02486e-13
1.84121e-13
1.37328e-09
3.88338e-13
-1.11379e-13
1.37262e-09
1.58508e-13
-4.45941e-14
1.37259e-09
-5.93372e-14
2.81208e-14
1.37239e-09
-1.71824e-13
-1.06818e-13
1.37231e-09
1.48691e-12
-2.76433e-12
1.37437e-09
1.1594e-12
4.89477e-13
1.37392e-09
-7.05148e-13
3.9258e-13
-8.6666e-13
1.93397e-12
3.87354e-09
9.78225e-09
7.33022e-08
-2.05085e-09
5.73366e-09
-5.7092e-09
-2.54571e-08
-5.7954e-08
1.18611e-08
-5.58004e-09
-9.85056e-11
-5.57393e-09
-7.40637e-10
1.69668e-09
-5.0016e-09
8.11403e-10
1.28361e-09
2.14746e-09
1.77639e-09
1.15953e-09
-4.71839e-09
-1.21501e-09
5.09975e-10
5.40812e-09
1.5305e-11
3.62149e-09
2.44259e-09
-1.36796e-09
-2.75553e-09
-1.94059e-09
-6.15157e-10
-1.19879e-09
-9.79097e-12
-7.59013e-09
9.41387e-09
5.46428e-10
-1.25226e-09
2.98039e-10
-4.21983e-10
8.29776e-10
-1.27814e-10
9.46366e-12
1.86819e-11
-2.20088e-11
1.21678e-10
-3.60125e-11
-1.49609e-12
1.89529e-10
4.35836e-12
1.05882e-11
-3.50375e-11
-6.70916e-11
-6.48376e-11
1.37711e-09
-1.63513e-11
-2.41281e-11
-2.55186e-10
-2.54985e-10
-4.22422e-10
-4.21598e-10
1.37622e-09
-9.77241e-12
-2.50093e-12
1.37473e-09
-8.62464e-12
3.77763e-13
1.37412e-09
-5.9975e-12
1.17232e-13
1.37361e-09
-4.00677e-12
1.15521e-14
1.37343e-09
-2.68272e-12
-4.55525e-15
1.37307e-09
-1.48153e-12
9.45021e-14
1.37317e-09
-1.16649e-12
1.52682e-15
1.37315e-09
-6.40582e-13
-3.81256e-14
1.37265e-09
-2.56335e-13
-3.30119e-13
1.37307e-09
-8.68489e-13
3.48774e-14
1.3731e-09
7.53489e-14
-2.49219e-14
1.3732e-09
-6.51405e-14
-2.18534e-13
1.37329e-09
-1.31356e-13
-5.43496e-14
1.37319e-09
1.24681e-13
1.42164e-13
1.37331e-09
-1.0702e-13
-1.42879e-14
1.37328e-09
1.50378e-13
-8.33946e-14
1.37261e-09
-4.79677e-13
2.09242e-12
1.37302e-09
-5.64441e-13
1.61459e-13
1.37356e-09
-4.04011e-13
1.33875e-13
1.37184e-09
5.46231e-12
-3.04819e-12
1.37324e-09
6.71212e-13
2.07406e-12
1.37347e-09
-6.79858e-13
-1.56869e-14
1.37309e-09
-4.02672e-14
-3.41275e-13
1.37311e-09
1.73343e-13
6.5206e-14
1.37312e-09
-3.6364e-14
2.00749e-13
1.37339e-09
-2.17535e-14
5.71964e-13
1.37341e-09
7.82667e-15
-1.84571e-14
1.37334e-09
-5.77581e-14
7.08584e-14
1.37306e-09
1.28844e-12
-8.44319e-13
1.37308e-09
-1.05094e-13
-2.84947e-13
1.37347e-09
-1.53592e-12
3.71336e-13
1.37396e-09
-2.1531e-13
-1.52968e-14
1.37287e-09
1.40721e-12
1.83322e-13
1.37272e-09
5.03174e-13
2.85782e-14
1.37245e-09
2.96993e-13
1.27588e-13
1.37263e-09
-2.78129e-13
3.35512e-14
1.37246e-09
-2.01493e-14
1.57056e-14
1.37288e-09
-7.88452e-13
1.84963e-12
1.37329e-09
6.66583e-13
7.51001e-14
1.37359e-09
-2.51591e-14
-9.80919e-13
-2.4317e-13
-1.38948e-12
8.10307e-10
-3.05855e-10
-1.73578e-08
3.38109e-09
5.93543e-10
-1.77422e-09
-5.18453e-09
-1.94164e-09
-3.83972e-09
2.13138e-08
6.88363e-08
-5.33568e-08
-5.05454e-10
-1.55743e-09
-5.99061e-09
8.86372e-09
3.80491e-10
-1.55567e-09
1.15729e-10
-1.20148e-09
-2.81161e-09
3.77933e-10
1.22203e-09
2.64422e-10
-4.01824e-10
7.23653e-11
2.60716e-08
1.48286e-08
-1.88928e-08
-2.01055e-08
-2.54026e-10
1.85705e-09
3.2794e-11
6.32858e-11
-8.28074e-11
6.08175e-11
-8.15532e-10
7.74236e-10
-3.06618e-09
1.64814e-09
1.77037e-09
1.04771e-09
5.11653e-10
9.14867e-10
1.33548e-09
2.94236e-10
-6.36799e-10
-2.57252e-09
-1.24694e-09
4.08566e-10
2.18886e-09
2.77085e-10
5.89105e-10
-3.46362e-09
-6.81372e-11
5.7089e-11
-5.69826e-12
-9.57644e-11
1.12511e-10
-3.34664e-11
-6.06145e-12
1.77772e-10
-6.153e-12
1.47513e-11
-3.09925e-11
-6.04336e-11
-5.54166e-11
1.37236e-09
-4.75294e-11
-2.21267e-11
-2.47682e-10
-2.48401e-10
-4.08696e-10
-4.14275e-10
1.3781e-09
-1.35324e-11
-1.97012e-12
1.37836e-09
-9.4842e-12
6.25532e-13
1.37729e-09
-4.64718e-12
-2.58098e-13
1.37593e-09
-2.63581e-12
1.30013e-14
1.37488e-09
-1.57909e-12
-3.30645e-14
1.37446e-09
-9.32183e-13
-1.04328e-13
1.37396e-09
-6.42209e-13
-1.09413e-14
1.3733e-09
2.00777e-13
-1.60387e-13
1.3736e-09
-7.38816e-13
1.84781e-13
1.37268e-09
4.37707e-13
-3.7362e-13
1.37337e-09
-5.57735e-13
-4.92201e-14
1.37329e-09
1.79484e-14
9.60779e-15
1.3732e-09
3.03528e-14
-6.5468e-14
1.37315e-09
-5.31867e-13
7.18624e-13
1.37329e-09
-2.06647e-13
-3.51082e-14
1.37274e-09
-4.83513e-14
7.52918e-13
1.37282e-09
-3.78747e-13
-1.76939e-13
1.37243e-09
1.12792e-13
-2.82905e-13
1.37192e-09
8.93033e-14
2.0776e-14
1.37355e-09
6.65084e-13
3.17493e-12
1.3735e-09
8.15725e-13
-9.50261e-14
1.37406e-09
-3.46151e-12
2.22725e-12
1.37384e-09
1.34419e-13
4.30169e-14
1.37285e-09
1.43569e-12
-2.77634e-13
1.373e-09
-2.43866e-13
5.69764e-14
1.37314e-09
-2.20773e-13
6.04999e-14
1.37331e-09
-6.551e-13
4.94034e-13
1.37283e-09
1.58519e-13
2.5348e-13
1.37346e-09
-1.76775e-13
8.30098e-13
1.37359e-09
-1.74111e-13
-5.87065e-14
1.37298e-09
-3.40684e-13
-5.96561e-13
1.37249e-09
7.98934e-14
1.96083e-13
1.37335e-09
6.87997e-13
-1.45861e-13
1.37293e-09
9.99871e-13
-8.42017e-14
1.3732e-09
1.97266e-13
-1.72689e-13
1.37289e-09
4.10173e-14
-1.43682e-14
1.37239e-09
4.63078e-13
9.67797e-15
1.37293e-09
-1.16466e-12
-1.69671e-13
1.37276e-09
5.72454e-13
2.65318e-13
1.37408e-09
-3.18157e-12
1.83034e-12
-3.89594e-13
-5.50143e-13
-7.22138e-09
1.94753e-09
5.15893e-09
3.91846e-09
7.25659e-09
4.17992e-09
-1.93279e-08
3.97293e-09
-1.20626e-09
2.93307e-09
-1.07984e-09
-7.64821e-10
-1.27076e-09
-1.32745e-10
-3.07526e-11
-7.44396e-10
-7.4187e-10
-1.25384e-10
9.2312e-10
2.38278e-10
4.59175e-10
1.51978e-09
-3.86558e-09
-2.17589e-08
2.56464e-08
3.91065e-09
6.4261e-09
-1.07762e-09
-1.91904e-09
-2.4989e-09
-1.88548e-09
-2.35431e-09
5.65277e-10
-7.22776e-10
-2.04709e-09
1.50913e-10
3.52078e-10
3.77912e-10
7.22297e-10
-8.18295e-09
-6.35834e-09
1.76074e-09
-8.22486e-10
-6.89536e-08
6.77551e-09
4.38359e-08
3.19478e-08
4.92087e-10
-1.8034e-09
5.04695e-10
7.85137e-10
2.14798e-11
-1.18071e-10
-4.29255e-12
-4.75238e-12
9.6976e-11
3.01403e-11
1.44561e-09
4.44751e-13
-2.83046e-11
-2.59111e-10
-2.69858e-10
-4.40597e-10
-4.55713e-10
5.00979e-12
-3.22196e-12
1.10573e-11
-5.31628e-12
1.40919e-09
-9.11413e-12
-2.00065e-12
1.39618e-09
-4.84886e-13
-2.15016e-14
1.38681e-09
-8.76906e-15
-8.60154e-14
1.38147e-09
7.89214e-13
-6.04318e-14
1.37808e-09
8.05412e-13
-2.90663e-14
1.37605e-09
5.30279e-13
-4.23481e-14
1.3748e-09
3.57752e-13
-1.47229e-14
1.3742e-09
-7.18069e-13
6.93464e-13
1.37397e-09
2.52526e-13
1.92642e-13
1.37348e-09
1.05742e-13
-3.41633e-13
1.37318e-09
3.65451e-13
3.77927e-13
1.37306e-09
6.23075e-13
-1.04756e-12
1.37298e-09
8.10068e-14
1.98739e-14
1.373e-09
2.67308e-14
-3.56538e-15
1.37309e-09
-5.83714e-15
-6.11873e-13
1.37276e-09
1.56784e-13
-1.79337e-14
1.37332e-09
1.27459e-13
-7.32678e-13
1.37336e-09
-4.9839e-13
8.77568e-14
1.37304e-09
-3.24612e-13
7.58786e-13
1.3733e-09
-8.8011e-14
-8.12827e-14
1.37358e-09
2.98103e-13
9.05466e-14
1.37358e-09
1.40955e-13
6.80705e-13
1.37259e-09
-2.90052e-13
-2.17994e-12
1.37259e-09
4.16377e-13
-2.84731e-13
1.37363e-09
1.08473e-12
-6.86892e-13
1.37266e-09
4.15073e-14
6.83165e-13
1.37253e-09
3.55493e-13
-4.55705e-13
1.37329e-09
-7.11872e-13
-7.00352e-13
1.37349e-09
-2.91576e-14
-1.66547e-14
1.37362e-09
-2.97643e-13
-1.39776e-14
1.37321e-09
9.72499e-13
-7.40764e-13
1.37322e-09
-2.92899e-13
-6.30962e-14
1.37352e-09
-2.40358e-13
2.11122e-14
1.37297e-09
2.27729e-12
-1.04688e-12
1.37303e-09
9.36955e-13
-2.36721e-15
1.37268e-09
4.97791e-13
3.87521e-14
1.3734e-09
-1.20389e-12
5.26096e-13
1.37369e-09
-1.5033e-13
3.20626e-13
1.37253e-09
5.69527e-13
-5.81493e-13
1.37291e-09
3.18111e-13
-1.27354e-13
1.37251e-09
7.46078e-13
-3.53268e-12
-2.54804e-12
1.58813e-13
8.30653e-10
4.66276e-10
-3.3181e-09
2.84458e-10
7.70396e-10
8.92211e-10
2.65073e-10
3.47522e-09
9.56569e-09
1.67136e-09
-1.56525e-08
9.40275e-10
1.34339e-09
3.1948e-09
2.84852e-09
5.10143e-10
7.37511e-10
1.2372e-09
2.18437e-09
5.74235e-10
6.27761e-10
2.03778e-10
-3.64802e-08
-1.9856e-08
3.73542e-08
1.23309e-09
1.74791e-09
1.02296e-09
1.51585e-09
2.45099e-09
-1.46925e-10
-9.62527e-10
1.02162e-10
-1.4437e-09
1.16266e-09
-8.2376e-11
-2.60219e-09
-7.86862e-10
2.30876e-09
6.67385e-10
-1.40142e-09
4.14137e-10
-7.80398e-10
1.1003e-09
-4.52977e-11
1.65774e-12
2.22806e-10
9.92003e-12
3.34771e-11
-4.86702e-11
-8.53423e-11
-9.61425e-11
2.41318e-12
1.91098e-12
3.2673e-12
1.4437e-09
-3.82594e-11
-2.67638e-10
-2.70906e-10
-4.5448e-10
-4.59637e-10
1.41056e-09
-6.79932e-13
1.39496e-09
-3.51651e-13
1.38642e-09
-5.6986e-14
1.38072e-09
1.09031e-13
1.37712e-09
-1.18016e-13
1.37559e-09
-4.44087e-13
1.37499e-09
-8.82021e-14
1.37381e-09
-9.95769e-13
1.37324e-09
-3.2547e-14
1.37389e-09
2.36364e-13
1.37353e-09
-2.88998e-14
1.37283e-09
9.57913e-13
1.37272e-09
-2.66425e-13
1.37284e-09
3.65748e-14
1.37291e-09
-9.51403e-14
1.37295e-09
1.8565e-14
1.37295e-09
-2.99175e-13
1.37346e-09
1.08152e-12
1.37321e-09
-5.21059e-13
1.37309e-09
-8.5609e-15
1.37363e-09
1.22723e-12
1.37359e-09
5.01671e-13
1.37325e-09
-1.96261e-12
1.37241e-09
-1.13338e-12
1.37287e-09
9.7014e-13
1.37317e-09
-4.0108e-13
1.37324e-09
4.56118e-13
1.37245e-09
1.27125e-12
1.37335e-09
8.30787e-13
1.37307e-09
1.73664e-13
1.37362e-09
7.48219e-13
1.3733e-09
1.32234e-13
1.37348e-09
-4.37757e-13
1.37448e-09
1.27634e-12
1.37244e-09
3.34536e-14
1.37305e-09
-1.69677e-13
1.37267e-09
-5.39056e-13
1.37302e-09
7.34014e-14
1.37349e-09
3.40453e-13
1.374e-09
-2.2421e-13
1.37297e-09
1.9185e-12
-1.20886e-13
-4.25709e-09
-1.68013e-10
4.65102e-09
-1.16223e-10
2.62453e-10
-5.56721e-10
-1.40063e-09
2.06005e-09
-2.22063e-10
5.26917e-09
3.78173e-09
-8.00056e-09
2.11937e-09
1.33844e-09
-5.0773e-09
-1.79097e-08
2.15755e-08
7.53372e-10
-1.09117e-10
6.0339e-10
3.07249e-09
-5.33015e-09
-2.10229e-09
1.82022e-08
-1.2276e-08
-4.89989e-10
-2.33405e-09
1.92775e-10
2.18098e-09
4.6375e-11
9.48932e-10
-5.37121e-11
-2.7814e-11
5.55172e-10
-2.15119e-09
-1.06573e-10
-4.96094e-11
5.52902e-10
2.75695e-12
8.89499e-11
-1.4777e-10
-1.09166e-10
-1.51954e-10
2.31008e-09
4.7162e-11
3.30062e-11
-5.59082e-10
-6.07043e-10
-5.59033e-10
-6.07116e-10
2.29651e-09
6.08404e-11
6.05703e-13
2.29415e-09
3.26854e-11
-8.39033e-14
2.2893e-09
2.2222e-11
-1.03573e-13
2.28772e-09
1.42835e-11
-4.819e-13
2.28705e-09
9.36612e-12
-4.88258e-13
2.28536e-09
5.44128e-12
-4.28855e-13
2.28423e-09
3.37024e-12
4.60747e-14
2.28411e-09
1.90063e-12
3.5079e-13
2.28449e-09
1.12787e-12
5.19003e-14
2.28378e-09
5.38509e-14
-2.12116e-13
2.28303e-09
-1.10689e-12
7.37104e-13
2.28358e-09
1.26579e-13
-1.03019e-13
2.28367e-09
3.46351e-13
-2.22348e-13
2.28311e-09
4.60629e-13
5.61284e-14
2.28375e-09
-1.36049e-12
1.36696e-12
2.28352e-09
1.08772e-12
-2.89196e-13
2.28431e-09
-1.49473e-12
9.74188e-13
2.28347e-09
7.89524e-13
-2.41055e-12
2.28394e-09
6.4926e-13
-3.22451e-13
2.28404e-09
5.767e-14
-4.72877e-14
2.28336e-09
-5.00241e-13
4.71138e-13
2.28373e-09
3.03997e-13
-9.7192e-13
2.28266e-09
5.2669e-12
-1.31267e-12
2.28302e-09
4.41001e-12
-3.01886e-12
2.28311e-09
-2.90756e-13
-2.83e-13
2.28451e-09
6.94659e-13
-7.33669e-13
2.28415e-09
2.23344e-13
9.37704e-14
2.28348e-09
3.50365e-14
-2.45381e-14
2.2821e-09
4.83569e-13
9.26428e-13
2.28209e-09
-1.64963e-12
5.46717e-13
2.28461e-09
-7.49727e-13
-1.49071e-12
2.2839e-09
8.30116e-13
-1.46761e-13
2.28336e-09
1.9189e-13
-1.63917e-13
2.28375e-09
-4.36831e-14
-6.19425e-14
2.28535e-09
1.69558e-12
-4.18114e-13
2.28267e-09
4.01084e-12
-3.26064e-12
2.28308e-09
-8.12915e-13
2.0174e-15
2.28281e-09
-1.08041e-12
3.74238e-13
2.28426e-09
-1.76551e-12
2.79742e-15
2.28387e-09
1.77965e-13
1.74035e-13
2.28273e-09
1.02069e-12
1.13961e-12
-6.80282e-13
-4.61883e-13
3.40012e-09
-1.2382e-09
-1.39802e-09
1.02473e-08
-1.32221e-08
5.03955e-09
-1.25272e-09
1.59951e-09
-3.31427e-09
-1.15455e-09
3.32803e-08
5.71181e-09
-1.43668e-09
4.73899e-10
-1.63028e-09
-1.14272e-09
-3.34816e-08
-4.65159e-08
-1.98532e-08
9.33039e-08
6.80284e-09
-7.53959e-10
7.01002e-10
-2.47722e-09
-1.12215e-08
-4.00841e-08
-5.45099e-08
1.02221e-07
7.04761e-09
-4.46299e-09
2.97266e-10
9.55261e-09
-7.65946e-09
-4.77504e-09
6.35811e-11
-1.8077e-10
-2.69487e-10
4.04844e-10
7.52925e-10
-7.71093e-10
-1.43177e-10
-2.63902e-12
-2.99086e-12
6.21834e-10
-5.35459e-11
-1.57301e-10
-1.44826e-10
-1.64536e-10
1.38374e-11
1.47113e-11
9.57141e-12
9.06096e-12
2.3213e-09
2.39816e-11
3.08688e-11
-5.9444e-10
-5.98695e-10
-5.94472e-10
-5.98641e-10
1.16721e-12
2.39751e-11
1.16386e-12
2.28178e-09
9.68746e-11
1.78641e-12
2.2798e-09
3.38553e-11
3.50896e-13
2.27914e-09
2.27011e-11
1.70697e-13
2.27979e-09
1.33534e-11
1.75734e-13
2.28023e-09
8.81654e-12
1.06206e-13
2.28141e-09
4.29959e-12
8.53052e-15
2.28234e-09
2.41762e-12
3.219e-14
2.28204e-09
2.58948e-12
-1.42549e-13
2.2827e-09
5.18115e-13
-1.90421e-14
2.28292e-09
-1.41476e-15
-3.83506e-14
2.28443e-09
7.78001e-13
-9.81795e-13
2.28388e-09
7.19279e-13
-6.52155e-14
2.28357e-09
6.88309e-13
-9.74796e-14
2.28349e-09
5.212e-13
1.55322e-13
2.28337e-09
-2.64029e-12
-2.57186e-13
2.28465e-09
-2.61709e-12
1.14182e-12
2.28388e-09
1.10178e-14
-1.18136e-12
2.28314e-09
3.34178e-14
6.02795e-13
2.28338e-09
6.53019e-14
1.44731e-13
2.28355e-09
-4.20548e-13
1.54661e-13
2.28233e-09
4.65991e-12
-2.47308e-12
2.28221e-09
-4.82462e-13
7.80975e-13
2.28324e-09
5.74756e-13
1.94536e-12
2.28343e-09
9.07356e-13
1.66734e-12
2.28491e-09
-2.52149e-12
2.85204e-12
2.28462e-09
1.20705e-12
1.29846e-12
2.28389e-09
1.03611e-12
-1.34014e-13
2.28393e-09
-1.00601e-13
-5.8905e-14
2.28422e-09
-1.74897e-14
9.11557e-14
2.28426e-09
-4.99859e-13
-6.56072e-13
2.28223e-09
-6.96502e-13
1.53212e-12
2.28244e-09
4.64564e-13
9.98658e-14
2.28277e-09
-2.18261e-13
-1.14079e-14
2.28139e-09
1.2162e-12
-2.29449e-13
2.2829e-09
1.20261e-12
-2.8325e-13
2.28514e-09
1.3074e-13
3.52721e-12
2.28421e-09
-7.43144e-14
3.90498e-13
2.2839e-09
1.6354e-13
-4.77193e-13
2.2833e-09
7.98158e-13
-1.12063e-12
2.28307e-09
5.93477e-13
-2.33347e-13
2.28362e-09
2.50978e-13
-1.01991e-12
-2.99506e-13
2.61143e-13
8.56301e-11
-6.09192e-10
5.46362e-10
-1.69711e-08
-7.82428e-10
1.38138e-09
2.00594e-10
-3.42955e-10
-2.03537e-09
-3.79684e-09
-6.8136e-10
-5.46551e-09
7.92857e-10
-6.3846e-09
2.00581e-08
-4.83894e-09
1.6444e-08
-6.64833e-09
1.78481e-09
6.38476e-09
5.45156e-10
7.54565e-09
2.94004e-08
5.4557e-08
-1.54437e-08
6.13988e-09
-5.03073e-09
5.10198e-09
3.78799e-09
-7.69575e-09
-2.30336e-09
1.52593e-09
3.08405e-10
-4.10168e-10
7.56506e-11
2.32957e-10
-1.73277e-09
-8.75111e-11
-8.4903e-11
-2.01288e-11
1.30506e-11
4.24246e-11
1.37068e-10
-5.72007e-10
5.7169e-10
2.84034e-11
-1.07334e-12
-3.0251e-12
2.21653e-09
2.11742e-11
2.22011e-11
-5.5059e-10
-5.41801e-10
-5.50598e-10
-5.41824e-10
2.23995e-09
6.56184e-12
1.98417e-12
2.25849e-09
5.27706e-12
-5.07134e-13
2.26884e-09
3.11955e-12
-1.04151e-14
2.27576e-09
2.10302e-12
-6.94313e-14
2.2788e-09
1.23922e-12
4.34433e-14
2.2805e-09
7.86654e-13
-1.08534e-14
2.28273e-09
5.0897e-13
-6.47734e-14
2.28314e-09
4.78138e-13
-1.44513e-13
2.28316e-09
6.61282e-13
-2.45703e-13
2.28221e-09
9.69122e-13
4.06584e-13
2.28326e-09
-3.61617e-13
1.09992e-13
2.28356e-09
-8.11233e-13
8.52544e-13
2.28442e-09
-4.65316e-13
-3.44905e-14
2.28349e-09
8.56218e-13
-8.46226e-13
2.28306e-09
-3.63284e-13
-1.00711e-12
2.2826e-09
2.05513e-12
-7.55326e-13
2.28282e-09
-7.17316e-15
-1.20406e-13
2.28279e-09
-2.34549e-14
-2.48095e-14
2.28239e-09
9.02805e-13
-4.6512e-13
2.28353e-09
-8.81235e-13
2.18831e-12
2.2846e-09
-4.41724e-12
1.47032e-12
2.28431e-09
1.01303e-12
-1.44076e-13
2.28592e-09
-2.59783e-12
8.47162e-13
2.28358e-09
4.30848e-13
-2.70257e-12
2.28289e-09
2.81941e-13
-7.79044e-13
2.28341e-09
5.55962e-13
-1.00684e-13
2.28375e-09
-2.42966e-13
-1.63606e-13
2.28367e-09
-6.47561e-14
2.84899e-14
2.28357e-09
-7.86073e-14
-3.97362e-14
2.28311e-09
-6.13699e-13
-3.17843e-14
2.28235e-09
3.41739e-12
-1.12755e-12
2.28187e-09
9.68299e-14
1.28372e-13
2.28247e-09
9.08471e-13
1.75527e-13
2.28303e-09
1.16411e-12
-4.01943e-13
2.28521e-09
-2.23477e-12
1.94728e-13
2.28476e-09
9.84555e-13
-5.89201e-13
2.28452e-09
6.97266e-13
-1.67395e-13
2.28303e-09
2.50811e-13
1.11598e-12
2.28267e-09
7.93647e-13
9.51237e-14
2.28261e-09
4.46443e-13
-7.89943e-14
-2.54728e-12
1.47931e-12
7.84243e-08
2.75538e-09
-3.36704e-09
-5.82013e-09
-7.1844e-08
-4.20588e-09
3.96213e-09
-4.4753e-09
-6.46706e-10
9.29975e-10
-7.94116e-10
2.20665e-09
7.17072e-10
2.30619e-09
2.69298e-09
7.21192e-10
-5.15229e-10
-3.26361e-09
1.77043e-09
1.8343e-09
1.48402e-08
-5.04171e-09
-1.30389e-08
-2.03481e-09
-1.40727e-09
3.1932e-09
-1.56344e-10
-8.78022e-10
-1.151e-09
-1.56113e-09
-1.9129e-09
5.9083e-09
5.26963e-09
-1.01283e-09
8.42009e-10
5.05808e-09
-1.36123e-08