/*--------------------------------*- C++ -*----------------------------------*\
| =========                 |                                                 |
| \\      /  F ield         | OpenFOAM: The Open Source CFD Toolbox           |
|  \\    /   O peration     | Version:  5.0                                   |
|   \\  /    A nd           | Web:      www.OpenFOAM.org                      |
|    \\/     M anipulation  |                                                 |
\*---------------------------------------------------------------------------*/
FoamFile
{
    version     2.0;
    format      ascii;
    class       volScalarField;
    location    "1.8";
    object      rAU;
}
// * * * * * * * * * * * * * * * * * * * * * * * * * * * * * * * * * * * * * //

dimensions      [-1 3 1 0 0 0 0];

internalField   nonuniform List<scalar> 
9235
(
2.48769e-07
8.84936e-07
8.00271e-07
8.33651e-07
8.96031e-07
6.93962e-07
1.29269e-07
3.9242e-07
3.93663e-07
3.94697e-07
3.95731e-07
3.96764e-07
3.97795e-07
3.98827e-07
3.99857e-07
4.00887e-07
4.01916e-07
4.02944e-07
4.03972e-07
4.04999e-07
4.06025e-07
4.07051e-07
4.08076e-07
4.091e-07
4.10123e-07
4.11146e-07
4.12167e-07
4.13188e-07
4.14209e-07
4.15228e-07
4.16247e-07
4.17265e-07
4.18282e-07
4.19298e-07
4.20314e-07
4.21329e-07
4.22343e-07
4.23356e-07
4.24368e-07
4.2538e-07
4.26391e-07
4.27401e-07
4.2841e-07
4.29418e-07
4.30426e-07
4.31432e-07
4.32438e-07
4.33443e-07
4.34447e-07
4.36223e-07
9.57908e-07
9.61797e-07
9.46248e-07
9.57819e-07
8.80842e-07
5.88935e-07
1.29218e-07
3.92287e-07
3.93663e-07
3.94698e-07
3.95731e-07
3.96764e-07
3.97795e-07
3.98827e-07
3.99857e-07
4.00887e-07
4.01916e-07
4.02945e-07
4.03972e-07
4.04999e-07
4.06025e-07
4.07051e-07
4.08076e-07
4.091e-07
4.10123e-07
4.11146e-07
4.12167e-07
4.13188e-07
4.14209e-07
4.15228e-07
4.16247e-07
4.17265e-07
4.18282e-07
4.19298e-07
4.20314e-07
4.21329e-07
4.22343e-07
4.23356e-07
4.24368e-07
4.2538e-07
4.26391e-07
4.27401e-07
4.2841e-07
4.29418e-07
4.30426e-07
4.31432e-07
4.32438e-07
4.33443e-07
4.34447e-07
4.36223e-07
9.55211e-07
9.38446e-07
9.29068e-07
9.5669e-07
8.89715e-07
6.86591e-07
3.96409e-08
1.2987e-07
3.93456e-07
3.94698e-07
3.95732e-07
3.96764e-07
3.97795e-07
3.98827e-07
3.99857e-07
4.00887e-07
4.01916e-07
4.02944e-07
4.03972e-07
4.04999e-07
4.06025e-07
4.07051e-07
4.08076e-07
4.091e-07
4.10123e-07
4.11146e-07
4.12167e-07
4.13188e-07
4.14209e-07
4.15228e-07
4.16247e-07
4.17265e-07
4.18282e-07
4.19298e-07
4.20314e-07
4.21329e-07
4.22343e-07
4.23356e-07
4.24368e-07
4.2538e-07
4.26391e-07
4.27401e-07
4.2841e-07
4.29418e-07
4.30426e-07
4.31432e-07
4.32438e-07
4.33443e-07
4.34447e-07
4.36223e-07
8.85855e-07
7.85996e-07
7.9461e-07
8.94191e-07
7.09302e-07
6.79939e-07
4.4596e-07
1.29721e-07
3.93455e-07
3.94698e-07
3.95731e-07
3.96764e-07
3.97795e-07
3.98827e-07
3.99857e-07
4.00887e-07
4.01916e-07
4.02944e-07
4.03972e-07
4.04999e-07
4.06025e-07
4.07051e-07
4.08076e-07
4.091e-07
4.10123e-07
4.11146e-07
4.12167e-07
4.13188e-07
4.14209e-07
4.15228e-07
4.16247e-07
4.17265e-07
4.18282e-07
4.19298e-07
4.20314e-07
4.21329e-07
4.22343e-07
4.23356e-07
4.24368e-07
4.2538e-07
4.26391e-07
4.27401e-07
4.2841e-07
4.29418e-07
4.30426e-07
4.31432e-07
4.32438e-07
4.33443e-07
4.34447e-07
4.36223e-07
3.38814e-07
2.97316e-07
1.10024e-07
8.60596e-07
8.39902e-07
6.94166e-07
6.98072e-07
1.2972e-07
3.93453e-07
3.94697e-07
3.95731e-07
3.96763e-07
3.97795e-07
3.98827e-07
3.99857e-07
4.00887e-07
4.01916e-07
4.02944e-07
4.03972e-07
4.04999e-07
4.06025e-07
4.07051e-07
4.08076e-07
4.091e-07
4.10123e-07
4.11146e-07
4.12167e-07
4.13188e-07
4.14209e-07
4.15228e-07
4.16247e-07
4.17265e-07
4.18282e-07
4.19298e-07
4.20314e-07
4.21329e-07
4.22343e-07
4.23356e-07
4.24368e-07
4.2538e-07
4.26391e-07
4.27401e-07
4.2841e-07
4.29418e-07
4.30426e-07
4.31432e-07
4.32438e-07
4.33443e-07
4.34447e-07
4.36223e-07
8.79309e-07
7.98049e-07
8.20361e-07
8.74293e-07
5.93938e-07
6.85939e-07
6.99293e-07
1.2972e-07
3.93453e-07
3.94697e-07
3.95731e-07
3.96763e-07
3.97795e-07
3.98827e-07
3.99857e-07
4.00887e-07
4.01916e-07
4.02944e-07
4.03972e-07
4.04999e-07
4.06025e-07
4.07051e-07
4.08076e-07
4.091e-07
4.10123e-07
4.11146e-07
4.12167e-07
4.13188e-07
4.14209e-07
4.15228e-07
4.16247e-07
4.17265e-07
4.18282e-07
4.19298e-07
4.20314e-07
4.21329e-07
4.22343e-07
4.23356e-07
4.24368e-07
4.2538e-07
4.26391e-07
4.27401e-07
4.2841e-07
4.29418e-07
4.30426e-07
4.31432e-07
4.32438e-07
4.33443e-07
4.34447e-07
4.36223e-07
9.4094e-07
8.66424e-07
1.15255e-07
6.88835e-07
6.23511e-07
6.85275e-07
6.9647e-07
1.29724e-07
3.93454e-07
3.94697e-07
3.95731e-07
3.96763e-07
3.97795e-07
3.98827e-07
3.99857e-07
4.00887e-07
4.01916e-07
4.02944e-07
4.03972e-07
4.04999e-07
4.06025e-07
4.07051e-07
4.08076e-07
4.091e-07
4.10123e-07
4.11146e-07
4.12167e-07
4.13188e-07
4.14209e-07
4.15228e-07
4.16247e-07
4.17265e-07
4.18282e-07
4.19298e-07
4.20314e-07
4.21329e-07
4.22343e-07
4.23356e-07
4.24368e-07
4.2538e-07
4.26391e-07
4.27401e-07
4.2841e-07
4.29418e-07
4.30426e-07
4.31432e-07
4.32438e-07
4.33443e-07
4.34447e-07
4.36223e-07
9.26868e-07
8.14382e-07
4.72571e-07
4.06931e-07
8.78797e-07
6.75584e-07
1.57131e-07
1.2969e-07
3.93454e-07
3.94697e-07
3.95731e-07
3.96763e-07
3.97795e-07
3.98827e-07
3.99857e-07
4.00887e-07
4.01916e-07
4.02944e-07
4.03972e-07
4.04999e-07
4.06025e-07
4.07051e-07
4.08076e-07
4.091e-07
4.10123e-07
4.11146e-07
4.12167e-07
4.13188e-07
4.14209e-07
4.15228e-07
4.16247e-07
4.17265e-07
4.18282e-07
4.19298e-07
4.20314e-07
4.21329e-07
4.22343e-07
4.23356e-07
4.24368e-07
4.2538e-07
4.26391e-07
4.27401e-07
4.2841e-07
4.29418e-07
4.30426e-07
4.31432e-07
4.32438e-07
4.33443e-07
4.34447e-07
4.36223e-07
8.8457e-07
8.48905e-07
7.63122e-07
8.71879e-07
7.8344e-07
6.20501e-07
3.66205e-08
3.92287e-07
3.93663e-07
3.94697e-07
3.95731e-07
3.96763e-07
3.97795e-07
3.98827e-07
3.99857e-07
4.00887e-07
4.01916e-07
4.02944e-07
4.03972e-07
4.04999e-07
4.06025e-07
4.07051e-07
4.08076e-07
4.091e-07
4.10123e-07
4.11146e-07
4.12167e-07
4.13188e-07
4.14209e-07
4.15228e-07
4.16247e-07
4.17265e-07
4.18282e-07
4.19298e-07
4.20314e-07
4.21329e-07
4.22343e-07
4.23356e-07
4.24368e-07
4.2538e-07
4.26391e-07
4.27401e-07
4.2841e-07
4.29418e-07
4.30426e-07
4.31432e-07
4.32438e-07
4.33443e-07
4.34447e-07
4.36223e-07
8.92483e-07
8.70523e-07
6.34426e-07
5.31854e-07
6.95802e-07
6.0362e-07
1.29212e-07
3.92419e-07
3.93663e-07
3.94697e-07
3.95731e-07
3.96763e-07
3.97795e-07
3.98827e-07
3.99857e-07
4.00887e-07
4.01916e-07
4.02944e-07
4.03972e-07
4.04999e-07
4.06025e-07
4.07051e-07
4.08076e-07
4.091e-07
4.10123e-07
4.11146e-07
4.12167e-07
4.13188e-07
4.14209e-07
4.15228e-07
4.16247e-07
4.17265e-07
4.18282e-07
4.19298e-07
4.20314e-07
4.21329e-07
4.22343e-07
4.23356e-07
4.24368e-07
4.2538e-07
4.26391e-07
4.27401e-07
4.2841e-07
4.29418e-07
4.30426e-07
4.31432e-07
4.32438e-07
4.33443e-07
4.34447e-07
4.36223e-07
5.44437e-07
6.22402e-07
8.06182e-07
8.35229e-07
9.2801e-07
7.60681e-07
1.83341e-07
5.04898e-07
5.06387e-07
5.07529e-07
5.08667e-07
5.09804e-07
5.1094e-07
5.12073e-07
5.13206e-07
5.14337e-07
5.15465e-07
5.16593e-07
5.17719e-07
5.18843e-07
5.19965e-07
5.21087e-07
5.22205e-07
5.23323e-07
5.2444e-07
5.25553e-07
5.26666e-07
5.27778e-07
5.28886e-07
5.29995e-07
5.31101e-07
5.32205e-07
5.33308e-07
5.3441e-07
5.35509e-07
5.36607e-07
5.37703e-07
5.38797e-07
5.3989e-07
5.40982e-07
5.42071e-07
5.43159e-07
5.44246e-07
5.45329e-07
5.46413e-07
5.47494e-07
5.48573e-07
5.49651e-07
5.50728e-07
5.53042e-07
7.76175e-07
8.81803e-07
6.19952e-07
6.86751e-07
9.17104e-07
7.11662e-07
1.83241e-07
5.04679e-07
5.06388e-07
5.0753e-07
5.08668e-07
5.09805e-07
5.10941e-07
5.12074e-07
5.13206e-07
5.14337e-07
5.15465e-07
5.16593e-07
5.17719e-07
5.18843e-07
5.19965e-07
5.21087e-07
5.22205e-07
5.23323e-07
5.2444e-07
5.25553e-07
5.26666e-07
5.27778e-07
5.28886e-07
5.29995e-07
5.31101e-07
5.32205e-07
5.33308e-07
5.3441e-07
5.35509e-07
5.36607e-07
5.37703e-07
5.38797e-07
5.3989e-07
5.40982e-07
5.42071e-07
5.43159e-07
5.44246e-07
5.45329e-07
5.46413e-07
5.47494e-07
5.48573e-07
5.49651e-07
5.50728e-07
5.53042e-07
8.88809e-07
9.3321e-07
8.24533e-07
8.14338e-07
8.97238e-07
7.09126e-07
5.86491e-08
1.84252e-07
5.06044e-07
5.07531e-07
5.08668e-07
5.09805e-07
5.10941e-07
5.12074e-07
5.13206e-07
5.14337e-07
5.15465e-07
5.16593e-07
5.17719e-07
5.18843e-07
5.19965e-07
5.21087e-07
5.22205e-07
5.23323e-07
5.2444e-07
5.25553e-07
5.26666e-07
5.27778e-07
5.28886e-07
5.29995e-07
5.31101e-07
5.32205e-07
5.33308e-07
5.3441e-07
5.35509e-07
5.36607e-07
5.37703e-07
5.38797e-07
5.3989e-07
5.40982e-07
5.42071e-07
5.43159e-07
5.44246e-07
5.4533e-07
5.46413e-07
5.47494e-07
5.48573e-07
5.49651e-07
5.50728e-07
5.53042e-07
5.7741e-07
8.95959e-07
7.22927e-07
9.14102e-07
8.44384e-07
7.00179e-07
5.18741e-07
1.8395e-07
5.06042e-07
5.0753e-07
5.08668e-07
5.09805e-07
5.10941e-07
5.12074e-07
5.13206e-07
5.14337e-07
5.15465e-07
5.16593e-07
5.17719e-07
5.18843e-07
5.19965e-07
5.21087e-07
5.22205e-07
5.23323e-07
5.2444e-07
5.25553e-07
5.26666e-07
5.27778e-07
5.28886e-07
5.29995e-07
5.31101e-07
5.32205e-07
5.33308e-07
5.3441e-07
5.35509e-07
5.36607e-07
5.37703e-07
5.38797e-07
5.3989e-07
5.40982e-07
5.42071e-07
5.43159e-07
5.44246e-07
5.45329e-07
5.46413e-07
5.47494e-07
5.48573e-07
5.49651e-07
5.50728e-07
5.53042e-07
1.96863e-07
4.6908e-07
4.38548e-07
2.96812e-07
3.26951e-07
6.90247e-07
7.72055e-07
1.83947e-07
5.06037e-07
5.07527e-07
5.08666e-07
5.09804e-07
5.1094e-07
5.12073e-07
5.13206e-07
5.14337e-07
5.15465e-07
5.16593e-07
5.17719e-07
5.18843e-07
5.19965e-07
5.21087e-07
5.22205e-07
5.23323e-07
5.2444e-07
5.25553e-07
5.26666e-07
5.27778e-07
5.28886e-07
5.29995e-07
5.31101e-07
5.32205e-07
5.33308e-07
5.3441e-07
5.35509e-07
5.36607e-07
5.37703e-07
5.38797e-07
5.3989e-07
5.40982e-07
5.42071e-07
5.43159e-07
5.44246e-07
5.4533e-07
5.46413e-07
5.47494e-07
5.48573e-07
5.49651e-07
5.50728e-07
5.53043e-07
7.59507e-07
2.38544e-07
5.99638e-07
4.45197e-07
7.08978e-07
7.28274e-07
7.73244e-07
1.83946e-07
5.06036e-07
5.07527e-07
5.08666e-07
5.09804e-07
5.1094e-07
5.12073e-07
5.13206e-07
5.14337e-07
5.15465e-07
5.16593e-07
5.17719e-07
5.18843e-07
5.19965e-07
5.21087e-07
5.22205e-07
5.23323e-07
5.2444e-07
5.25553e-07
5.26666e-07
5.27778e-07
5.28886e-07
5.29995e-07
5.31101e-07
5.32205e-07
5.33308e-07
5.3441e-07
5.35509e-07
5.36607e-07
5.37703e-07
5.38797e-07
5.3989e-07
5.40982e-07
5.42071e-07
5.43159e-07
5.44246e-07
5.4533e-07
5.46413e-07
5.47494e-07
5.48573e-07
5.49651e-07
5.50728e-07
5.53042e-07
8.47269e-07
8.32757e-07
4.88224e-07
8.76e-07
5.7153e-07
7.16048e-07
7.67406e-07
1.83948e-07
5.06039e-07
5.07528e-07
5.08666e-07
5.09804e-07
5.1094e-07
5.12073e-07
5.13206e-07
5.14337e-07
5.15465e-07
5.16593e-07
5.17719e-07
5.18843e-07
5.19965e-07
5.21087e-07
5.22205e-07
5.23323e-07
5.2444e-07
5.25553e-07
5.26666e-07
5.27778e-07
5.28886e-07
5.29995e-07
5.31101e-07
5.32205e-07
5.33308e-07
5.3441e-07
5.35509e-07
5.36607e-07
5.37703e-07
5.38797e-07
5.3989e-07
5.40982e-07
5.42071e-07
5.43159e-07
5.44246e-07
5.4533e-07
5.46413e-07
5.47494e-07
5.48573e-07
5.49651e-07
5.50728e-07
5.53042e-07
8.82865e-07
7.11617e-07
4.94394e-07
6.57695e-07
8.90353e-07
7.51617e-07
2.18107e-07
1.83949e-07
5.0604e-07
5.07528e-07
5.08667e-07
5.09804e-07
5.1094e-07
5.12073e-07
5.13206e-07
5.14337e-07
5.15465e-07
5.16593e-07
5.17719e-07
5.18843e-07
5.19965e-07
5.21087e-07
5.22205e-07
5.23323e-07
5.2444e-07
5.25553e-07
5.26666e-07
5.27778e-07
5.28886e-07
5.29995e-07
5.31101e-07
5.32205e-07
5.33308e-07
5.3441e-07
5.35509e-07
5.36607e-07
5.37703e-07
5.38797e-07
5.3989e-07
5.40982e-07
5.42071e-07
5.43159e-07
5.44246e-07
5.4533e-07
5.46413e-07
5.47494e-07
5.48573e-07
5.49651e-07
5.50728e-07
5.53042e-07
8.87407e-07
5.12782e-07
6.58609e-07
6.91687e-07
7.04337e-07
6.51837e-07
5.42844e-08
5.04676e-07
5.06387e-07
5.07528e-07
5.08666e-07
5.09804e-07
5.1094e-07
5.12073e-07
5.13206e-07
5.14337e-07
5.15465e-07
5.16593e-07
5.17719e-07
5.18843e-07
5.19965e-07
5.21087e-07
5.22205e-07
5.23323e-07
5.2444e-07
5.25553e-07
5.26666e-07
5.27778e-07
5.28886e-07
5.29995e-07
5.31101e-07
5.32205e-07
5.33308e-07
5.3441e-07
5.35509e-07
5.36607e-07
5.37703e-07
5.38797e-07
5.3989e-07
5.40982e-07
5.42071e-07
5.43159e-07
5.44246e-07
5.4533e-07
5.46413e-07
5.47494e-07
5.48573e-07
5.49651e-07
5.50728e-07
5.53042e-07
3.1808e-07
1.60092e-07
2.62914e-07
2.6586e-07
9.15694e-07
6.98444e-07
1.83228e-07
5.04894e-07
5.06386e-07
5.07528e-07
5.08666e-07
5.09804e-07
5.1094e-07
5.12073e-07
5.13206e-07
5.14337e-07
5.15465e-07
5.16593e-07
5.17719e-07
5.18843e-07
5.19965e-07
5.21087e-07
5.22205e-07
5.23323e-07
5.2444e-07
5.25553e-07
5.26666e-07
5.27778e-07
5.28886e-07
5.29995e-07
5.31101e-07
5.32205e-07
5.33308e-07
5.3441e-07
5.35509e-07
5.36607e-07
5.37703e-07
5.38797e-07
5.3989e-07
5.40982e-07
5.42071e-07
5.43159e-07
5.44246e-07
5.4533e-07
5.46413e-07
5.47494e-07
5.48573e-07
5.49651e-07
5.50728e-07
5.53043e-07
5.5325e-07
6.42938e-07
4.03889e-07
8.84499e-07
9.18784e-07
7.2502e-07
1.83348e-07
3.9242e-07
3.93663e-07
3.94697e-07
3.95731e-07
3.96763e-07
3.97795e-07
3.98827e-07
3.99857e-07
4.00887e-07
4.01916e-07
4.02944e-07
4.03972e-07
4.04999e-07
4.06025e-07
4.07051e-07
4.08076e-07
4.091e-07
4.10123e-07
4.11146e-07
4.12167e-07
4.13188e-07
4.14209e-07
4.15228e-07
4.16247e-07
4.17265e-07
4.18282e-07
4.19298e-07
4.20314e-07
4.21329e-07
4.22343e-07
4.23356e-07
4.24368e-07
4.2538e-07
4.26391e-07
4.27401e-07
4.2841e-07
4.29418e-07
4.30426e-07
4.31432e-07
4.32438e-07
4.33443e-07
4.34447e-07
4.36223e-07
4.837e-07
5.08228e-07
2.83411e-07
5.51825e-07
9.25654e-07
7.68282e-07
1.83243e-07
3.92287e-07
3.93663e-07
3.94698e-07
3.95731e-07
3.96764e-07
3.97795e-07
3.98827e-07
3.99857e-07
4.00887e-07
4.01916e-07
4.02944e-07
4.03972e-07
4.04999e-07
4.06025e-07
4.07051e-07
4.08076e-07
4.091e-07
4.10123e-07
4.11146e-07
4.12167e-07
4.13188e-07
4.14209e-07
4.15228e-07
4.16247e-07
4.17265e-07
4.18282e-07
4.19298e-07
4.20314e-07
4.21329e-07
4.22343e-07
4.23356e-07
4.24368e-07
4.2538e-07
4.26391e-07
4.27401e-07
4.2841e-07
4.29418e-07
4.30426e-07
4.31432e-07
4.32438e-07
4.33443e-07
4.34447e-07
4.36223e-07
8.77482e-07
8.72696e-07
4.99639e-07
1.51438e-07
8.69377e-07
7.37991e-07
5.85401e-08
1.84256e-07
3.93456e-07
3.94698e-07
3.95732e-07
3.96764e-07
3.97795e-07
3.98827e-07
3.99857e-07
4.00887e-07
4.01916e-07
4.02944e-07
4.03972e-07
4.04999e-07
4.06025e-07
4.07051e-07
4.08076e-07
4.091e-07
4.10123e-07
4.11146e-07
4.12167e-07
4.13188e-07
4.14209e-07
4.15228e-07
4.16247e-07
4.17265e-07
4.18282e-07
4.19298e-07
4.20314e-07
4.21329e-07
4.22343e-07
4.23356e-07
4.24368e-07
4.2538e-07
4.26391e-07
4.27401e-07
4.2841e-07
4.29418e-07
4.30426e-07
4.31432e-07
4.32438e-07
4.33443e-07
4.34447e-07
4.36223e-07
1.62804e-07
8.75139e-07
4.23311e-07
9.21526e-07
7.31189e-07
7.0121e-07
5.34652e-07
1.83955e-07
3.93455e-07
3.94698e-07
3.95731e-07
3.96764e-07
3.97795e-07
3.98827e-07
3.99857e-07
4.00887e-07
4.01916e-07
4.02944e-07
4.03972e-07
4.04999e-07
4.06025e-07
4.07051e-07
4.08076e-07
4.091e-07
4.10123e-07
4.11146e-07
4.12167e-07
4.13188e-07
4.14209e-07
4.15228e-07
4.16247e-07
4.17265e-07
4.18282e-07
4.19298e-07
4.20314e-07
4.21329e-07
4.22343e-07
4.23356e-07
4.24368e-07
4.2538e-07
4.26391e-07
4.27401e-07
4.2841e-07
4.29418e-07
4.30426e-07
4.31432e-07
4.32438e-07
4.33443e-07
4.34447e-07
4.36223e-07
4.53836e-07
5.34973e-07
6.62014e-07
5.35538e-07
8.63514e-07
6.97982e-07
7.7257e-07
1.83952e-07
3.93453e-07
3.94697e-07
3.95731e-07
3.96763e-07
3.97795e-07
3.98827e-07
3.99857e-07
4.00887e-07
4.01916e-07
4.02944e-07
4.03972e-07
4.04999e-07
4.06025e-07
4.07051e-07
4.08076e-07
4.091e-07
4.10123e-07
4.11146e-07
4.12167e-07
4.13188e-07
4.14209e-07
4.15228e-07
4.16247e-07
4.17265e-07
4.18282e-07
4.19298e-07
4.20314e-07
4.21329e-07
4.22343e-07
4.23356e-07
4.24368e-07
4.2538e-07
4.26391e-07
4.27401e-07
4.2841e-07
4.29418e-07
4.30426e-07
4.31432e-07
4.32438e-07
4.33443e-07
4.34447e-07
4.36223e-07
4.51961e-07
3.85715e-07
6.52135e-07
3.77329e-07
8.32098e-07
5.89784e-07
7.72685e-07
1.83951e-07
3.93453e-07
3.94697e-07
3.95731e-07
3.96763e-07
3.97795e-07
3.98827e-07
3.99857e-07
4.00887e-07
4.01916e-07
4.02944e-07
4.03972e-07
4.04999e-07
4.06025e-07
4.07051e-07
4.08076e-07
4.091e-07
4.10123e-07
4.11146e-07
4.12167e-07
4.13188e-07
4.14209e-07
4.15228e-07
4.16247e-07
4.17265e-07
4.18282e-07
4.19298e-07
4.20314e-07
4.21329e-07
4.22343e-07
4.23356e-07
4.24368e-07
4.2538e-07
4.26391e-07
4.27401e-07
4.2841e-07
4.29418e-07
4.30426e-07
4.31432e-07
4.32438e-07
4.33443e-07
4.34447e-07
4.36223e-07
8.85464e-07
6.30347e-07
6.5569e-07
8.3976e-07
9.24292e-07
7.05006e-07
7.67419e-07
1.83952e-07
3.93454e-07
3.94697e-07
3.95731e-07
3.96763e-07
3.97795e-07
3.98827e-07
3.99857e-07
4.00887e-07
4.01916e-07
4.02944e-07
4.03972e-07
4.04999e-07
4.06025e-07
4.07051e-07
4.08076e-07
4.091e-07
4.10123e-07
4.11146e-07
4.12167e-07
4.13188e-07
4.14209e-07
4.15228e-07
4.16247e-07
4.17265e-07
4.18282e-07
4.19298e-07
4.20314e-07
4.21329e-07
4.22343e-07
4.23356e-07
4.24368e-07
4.2538e-07
4.26391e-07
4.27401e-07
4.2841e-07
4.29418e-07
4.30426e-07
4.31432e-07
4.32438e-07
4.33443e-07
4.34447e-07
4.36223e-07
7.90154e-07
2.84236e-07
8.36201e-07
7.79339e-07
8.47404e-07
7.51044e-07
2.18448e-07
1.83953e-07
3.93454e-07
3.94697e-07
3.95731e-07
3.96763e-07
3.97795e-07
3.98827e-07
3.99857e-07
4.00887e-07
4.01916e-07
4.02944e-07
4.03972e-07
4.04999e-07
4.06025e-07
4.07051e-07
4.08076e-07
4.091e-07
4.10123e-07
4.11146e-07
4.12167e-07
4.13188e-07
4.14209e-07
4.15228e-07
4.16247e-07
4.17265e-07
4.18282e-07
4.19298e-07
4.20314e-07
4.21329e-07
4.22343e-07
4.23356e-07
4.24368e-07
4.2538e-07
4.26391e-07
4.27401e-07
4.2841e-07
4.29418e-07
4.30426e-07
4.31432e-07
4.32438e-07
4.33443e-07
4.34447e-07
4.36223e-07
8.81046e-07
1.73792e-07
7.13806e-07
8.22535e-07
7.03622e-07
6.2554e-07
5.42399e-08
3.92287e-07
3.93663e-07
3.94697e-07
3.95731e-07
3.96763e-07
3.97795e-07
3.98827e-07
3.99857e-07
4.00887e-07
4.01916e-07
4.02944e-07
4.03972e-07
4.04999e-07
4.06025e-07
4.07051e-07
4.08076e-07
4.091e-07
4.10123e-07
4.11146e-07
4.12167e-07
4.13188e-07
4.14209e-07
4.15228e-07
4.16247e-07
4.17265e-07
4.18282e-07
4.19298e-07
4.20314e-07
4.21329e-07
4.22343e-07
4.23356e-07
4.24368e-07
4.2538e-07
4.26391e-07
4.27401e-07
4.2841e-07
4.29418e-07
4.30426e-07
4.31432e-07
4.32438e-07
4.33443e-07
4.34447e-07
4.36223e-07
6.47106e-07
7.0014e-07
2.78429e-07
6.4549e-07
8.16312e-07
6.52546e-07
1.83234e-07
3.92419e-07
3.93663e-07
3.94697e-07
3.95731e-07
3.96763e-07
3.97795e-07
3.98827e-07
3.99857e-07
4.00887e-07
4.01916e-07
4.02944e-07
4.03972e-07
4.04999e-07
4.06025e-07
4.07051e-07
4.08076e-07
4.091e-07
4.10123e-07
4.11146e-07
4.12167e-07
4.13188e-07
4.14209e-07
4.15228e-07
4.16247e-07
4.17265e-07
4.18282e-07
4.19298e-07
4.20314e-07
4.21329e-07
4.22343e-07
4.23356e-07
4.24368e-07
4.2538e-07
4.26391e-07
4.27401e-07
4.2841e-07
4.29418e-07
4.30426e-07
4.31432e-07
4.32438e-07
4.33443e-07
4.34447e-07
4.36223e-07
3.51505e-08
6.90792e-07
3.51859e-08
7.58976e-07
5.18042e-08
7.57232e-07
5.19049e-08
3.54339e-08
6.87812e-07
7.36507e-08
6.98384e-07
5.23587e-08
7.11211e-07
1.05865e-07
1.63385e-07
6.91304e-07
6.98368e-07
7.18906e-07
2.25659e-07
7.56868e-07
7.7492e-07
7.00596e-07
6.8621e-07
7.00989e-07
7.1189e-07
7.71309e-07
6.54629e-07
7.73934e-07
6.9885e-07
6.69951e-07
6.99791e-07
7.12348e-07
7.73515e-07
7.57628e-07
7.74904e-07
6.99504e-07
6.79204e-07
6.99618e-07
7.48143e-07
7.74526e-07
7.43857e-07
7.76236e-07
7.00205e-07
6.63508e-07
6.999e-07
7.38308e-07
7.71881e-07
6.57542e-07
7.74879e-07
6.98155e-07
3.24182e-07
1.59235e-07
7.36345e-07
7.73844e-07
5.83788e-07
2.23206e-07
1.06619e-07
6.69315e-07
3.79843e-08
6.79644e-07
1.52167e-07
6.80151e-07
5.62744e-08
3.56384e-08
6.73481e-07
3.51493e-08
5.31112e-07
5.29034e-08
7.33123e-07
5.18007e-08
5.18056e-08
7.61109e-07
5.19268e-08
7.4151e-07
5.18055e-08
7.56499e-07
5.19668e-08
5.23869e-08
7.20205e-07
1.05918e-07
7.37305e-07
5.23864e-08
7.25782e-07
1.05555e-07
2.25592e-07
7.58753e-07
7.74825e-07
7.23912e-07
2.25969e-07
7.39469e-07
7.74324e-07
7.70252e-07
6.37368e-07
7.72974e-07
6.95676e-07
7.69981e-07
6.69855e-07
7.76156e-07
7.73281e-07
7.55832e-07
7.73613e-07
6.86537e-07
7.74297e-07
6.27901e-07
7.75715e-07
7.7337e-07
7.45167e-07
7.75443e-07
6.37421e-07
7.69191e-07
7.43477e-07
7.77668e-07
7.68123e-07
6.47953e-07
7.73676e-07
6.71748e-07
7.6839e-07
6.80984e-07
7.73996e-07
7.73491e-07
5.95437e-07
2.30565e-07
7.60894e-07
7.7363e-07
6.32422e-07
2.411e-07
1.52132e-07
6.54591e-07
5.66816e-08
6.21513e-07
1.51889e-07
6.92788e-07
5.64571e-08
5.28858e-08
7.25578e-07
5.18003e-08
7.24736e-07
5.30209e-08
7.32955e-07
5.1799e-08
5.18067e-08
7.27816e-07
5.19582e-08
6.2693e-07
3.51512e-08
6.9018e-07
3.51924e-08
5.23361e-08
7.28324e-07
1.05494e-07
6.89954e-07
3.54442e-08
6.83501e-07
7.28548e-08
2.26166e-07
7.53735e-07
7.74385e-07
6.68745e-07
1.63957e-07
6.91173e-07
6.98499e-07
7.71235e-07
6.66976e-07
7.74107e-07
6.85567e-07
6.98882e-07
6.73107e-07
7.00916e-07
7.73509e-07
6.8866e-07
7.75121e-07
6.90075e-07
6.99477e-07
6.75336e-07
6.99333e-07
7.70078e-07
7.40886e-07
7.77424e-07
5.29213e-07
6.99937e-07
6.82254e-07
7.00258e-07
7.67008e-07
6.9325e-07
7.73263e-07
6.76151e-07
6.99642e-07
6.74759e-07
6.996e-07
7.73621e-07
6.62901e-07
2.42477e-07
6.93375e-07
6.98403e-07
6.74585e-07
1.86506e-07
1.51741e-07
6.8694e-07
5.61565e-08
6.75246e-07
1.06016e-07
6.59923e-07
3.78312e-08
5.31986e-08
7.52104e-07
5.1799e-08
6.31068e-07
3.5925e-08
6.88961e-07
3.51494e-08
8.00371e-07
8.24592e-07
5.48008e-07
8.98315e-07
8.71095e-07
9.01579e-07
6.97441e-07
2.34383e-07
2.92866e-07
5.39392e-07
7.59784e-07
7.26141e-07
2.05174e-07
3.66442e-07
1.29658e-07
1.29269e-07
1.29658e-07
1.83347e-07
1.84017e-07
1.83347e-07
1.84016e-07
8.46705e-07
8.75998e-07
8.71066e-07
8.6702e-07
8.8469e-07
8.99027e-07
8.73657e-07
6.01656e-07
6.90889e-07
3.80528e-07
6.70641e-07
7.61788e-07
4.95361e-07
5.25426e-07
1.29658e-07
3.55425e-08
1.29567e-07
1.83245e-07
1.84016e-07
5.26033e-08
1.83833e-07
7.61017e-07
8.75613e-07
8.71795e-07
8.8104e-07
8.5178e-07
8.86937e-07
9.0041e-07
7.60941e-07
6.95239e-07
6.07859e-07
7.53026e-07
7.69613e-07
6.45765e-07
6.81545e-07
1.29419e-07
1.75524e-07
3.52762e-08
5.85935e-08
1.83535e-07
2.42276e-07
5.19796e-08
8.58702e-07
7.96081e-07
8.83463e-07
8.18413e-07
8.47823e-07
8.08712e-07
8.7345e-07
3.55541e-07
4.94943e-07
4.11635e-07
7.42966e-07
5.88477e-07
4.93711e-07
1.91443e-07
3.52762e-08
6.9544e-07
3.52777e-08
5.20429e-07
5.19796e-08
7.66665e-07
5.1983e-08
7.20765e-07
1.4276e-07
6.66032e-07
5.85159e-07
8.53935e-07
1.93933e-07
7.04068e-07
7.62907e-07
6.97525e-07
6.58512e-07
7.57704e-07
7.72263e-07
6.92235e-07
6.9311e-07
3.52794e-08
6.98882e-07
3.52822e-08
7.72167e-07
5.19867e-08
7.728e-07
5.19927e-08
6.84977e-07
6.24583e-07
6.75094e-07
6.21156e-07
5.96683e-07
6.5718e-07
6.81184e-07
7.54079e-07
6.819e-07
4.17649e-07
7.44357e-07
7.55952e-07
5.96686e-07
6.91007e-07
3.52828e-08
6.97442e-07
3.5279e-08
7.73473e-07
5.19941e-08
7.72267e-07
5.19856e-08
7.67177e-07
6.46197e-07
5.14741e-07
5.36701e-07
5.51708e-07
2.45258e-07
2.58908e-07
7.67596e-07
6.98661e-07
6.52027e-07
7.59524e-07
7.73805e-07
7.45644e-07
6.96885e-07
3.52778e-08
4.3172e-07
3.52761e-08
7.6571e-07
5.19836e-08
4.99163e-07
5.19791e-08
5.73951e-07
8.39422e-07
8.47736e-07
8.60717e-07
6.87938e-07
7.97867e-07
7.71223e-07
6.32725e-07
6.95588e-07
4.7005e-07
7.03218e-07
7.65237e-07
5.64792e-07
5.43578e-07
3.52646e-08
4.11287e-08
1.29418e-07
2.18091e-07
5.19789e-08
6.09999e-08
1.83532e-07
6.63159e-07
8.51563e-07
5.54818e-07
6.7806e-07
5.42452e-07
8.7596e-07
3.53807e-07
7.4278e-07
6.95684e-07
2.9442e-07
6.97246e-07
7.61633e-07
4.1354e-07
6.91461e-07
1.29567e-07
3.51735e-08
1.29567e-07
5.42185e-08
1.83833e-07
5.18255e-08
1.83833e-07
2.31617e-07
7.46408e-07
6.5926e-07
8.49401e-07
6.66972e-07
8.20557e-07
8.3344e-07
7.48672e-07
6.93083e-07
3.95303e-07
5.45562e-07
7.63186e-07
4.78508e-07
6.89099e-07
1.29657e-07
1.29268e-07
1.29657e-07
1.83231e-07
1.84016e-07
1.83343e-07
1.84014e-07
8.55163e-07
8.99733e-07
7.55272e-07
8.87391e-07
8.30619e-07
8.79688e-07
8.67102e-07
2.37866e-07
3.25301e-07
7.28094e-07
7.56753e-07
2.41798e-07
7.34756e-07
3.22035e-07
1.84012e-07
1.8334e-07
1.84011e-07
1.83342e-07
1.84012e-07
1.8334e-07
1.84011e-07
8.94027e-07
9.04608e-07
9.14765e-07
8.51145e-07
9.14482e-07
8.28189e-07
8.90614e-07
5.59876e-07
7.63023e-07
4.98318e-07
7.23534e-07
5.5832e-07
7.60263e-07
5.06492e-07
1.84011e-07
5.26131e-08
1.83829e-07
1.83239e-07
1.84011e-07
5.26652e-08
1.83829e-07
8.22769e-07
8.91086e-07
9.12362e-07
9.18782e-07
8.82838e-07
8.54537e-07
9.29028e-07
7.65439e-07
7.58752e-07
7.10624e-07
6.83759e-07
7.66153e-07
7.62606e-07
7.10976e-07
1.8353e-07
2.42391e-07
5.19792e-08
5.86093e-08
1.8353e-07
2.4186e-07
5.19793e-08
8.94521e-07
8.94809e-07
8.95468e-07
7.35323e-07
8.15743e-07
8.79744e-07
8.57298e-07
3.99861e-07
5.69009e-07
5.19012e-07
6.93394e-07
4.06288e-07
6.53644e-07
5.35103e-07
5.19791e-08
7.67798e-07
5.19827e-08
5.29428e-07
5.1979e-08
7.67029e-07
5.19827e-08
9.0314e-07
2.13669e-07
6.04737e-07
6.46512e-07
7.93571e-07
8.18232e-07
6.49756e-07
7.31807e-07
7.57045e-07
7.16205e-07
6.93316e-07
7.34649e-07
7.55496e-07
6.43758e-07
5.19863e-08
7.72792e-07
5.19924e-08
7.72288e-07
5.19863e-08
7.72837e-07
5.19923e-08
6.33751e-07
5.06034e-07
5.51885e-07
7.62184e-07
6.51442e-07
8.7767e-07
7.74603e-07
7.5368e-07
7.54799e-07
6.99326e-07
7.19738e-07
7.5204e-07
7.49722e-07
6.90081e-07
5.19937e-08
7.71239e-07
5.19853e-08
7.72292e-07
5.19939e-08
7.71118e-07
5.19852e-08
5.17578e-07
2.26927e-07
1.58308e-07
8.20072e-07
8.46837e-07
6.49993e-07
5.36278e-07
7.53569e-07
7.64876e-07
4.16727e-07
6.77991e-07
7.56475e-07
7.66014e-07
3.47539e-07
5.19832e-08
4.94686e-07
5.19785e-08
7.69663e-07
5.19831e-08
4.92941e-07
5.19785e-08
7.69818e-07
6.47459e-07
6.23744e-07
9.08352e-07
8.64643e-07
6.41767e-07
8.65635e-07
6.22329e-07
7.69273e-07
5.7406e-07
7.51109e-07
6.1842e-07
7.66478e-07
6.19855e-07
5.19784e-08
6.08236e-08
1.83527e-07
2.18356e-07
5.19785e-08
6.0611e-08
1.83527e-07
5.35928e-07
3.26497e-07
3.91472e-07
6.29319e-07
4.52877e-07
2.08374e-07
3.04325e-07
7.49745e-07
7.61556e-07
5.83213e-07
6.1731e-07
7.46261e-07
7.50693e-07
5.48249e-07
1.83828e-07
5.18266e-08
1.83828e-07
5.42967e-08
1.83828e-07
5.18254e-08
1.83828e-07
7.10749e-07
8.38255e-07
9.08832e-07
8.74034e-07
8.08812e-07
7.04393e-07
8.92561e-07
6.39009e-07
7.50301e-07
5.30772e-07
6.90681e-07
6.92062e-07
7.15326e-07
5.16105e-07
1.8401e-07
1.83337e-07
1.84009e-07
1.83229e-07
1.84011e-07
1.83336e-07
1.84009e-07
8.14843e-07
9.2323e-07
8.96816e-07
8.78238e-07
7.23226e-07
8.73909e-07
8.78109e-07
2.3981e-07
3.15541e-07
7.65559e-07
7.3172e-07
2.39212e-07
7.63952e-07
3.14577e-07
1.84016e-07
1.83345e-07
1.84016e-07
1.29269e-07
1.29658e-07
1.29269e-07
1.29658e-07
8.84184e-07
8.82464e-07
9.17778e-07
8.99062e-07
8.87963e-07
8.7317e-07
8.74005e-07
6.23273e-07
7.60636e-07
5.5294e-07
7.63834e-07
5.97981e-07
7.60521e-07
5.51429e-07
1.84016e-07
5.26311e-08
1.83833e-07
1.29218e-07
1.29658e-07
3.55602e-08
1.29567e-07
8.60095e-07
9.14952e-07
8.83842e-07
8.71269e-07
8.68922e-07
8.6842e-07
8.88611e-07
7.70263e-07
7.72219e-07
7.60118e-07
7.42711e-07
7.7085e-07
7.68039e-07
7.31309e-07
1.83534e-07
2.41569e-07
5.19796e-08
3.95925e-08
1.29419e-07
1.74859e-07
3.52762e-08
7.37509e-07
8.97945e-07
8.95037e-07
6.41629e-07
6.28152e-07
8.71902e-07
8.44169e-07
5.72381e-07
7.13384e-07
3.56875e-07
7.27324e-07
4.62048e-07
7.2542e-07
3.93853e-07
5.19795e-08
7.68241e-07
5.1983e-08
4.60376e-07
3.52752e-08
6.96352e-07
3.52777e-08
9.00472e-07
8.67108e-07
3.64101e-07
8.6284e-07
7.89799e-07
2.40196e-07
2.56638e-07
7.63683e-07
7.589e-07
5.5234e-07
7.38816e-07
7.58594e-07
7.61985e-07
5.41176e-07
5.19866e-08
7.72971e-07
5.19927e-08
6.98004e-07
3.52795e-08
6.9895e-07
3.52823e-08
3.16999e-07
9.01001e-07
9.1154e-07
2.83494e-07
2.00062e-07
8.43775e-07
8.73046e-07
7.65546e-07
7.30068e-07
6.8639e-07
5.90468e-07
7.63265e-07
7.53145e-07
6.98343e-07
5.19941e-08
7.71625e-07
5.19856e-08
6.99402e-07
3.52828e-08
6.97535e-07
3.5279e-08
8.42044e-07
7.22716e-07
8.52532e-07
8.91231e-07
8.75962e-07
7.34642e-07
8.11121e-07
7.55427e-07
7.70218e-07
3.90653e-07
7.11302e-07
7.44431e-07
7.67587e-07
4.94069e-07
5.19836e-08
4.96578e-07
5.1979e-08
6.96399e-07
3.52779e-08
4.28079e-07
3.52761e-08
8.81781e-07
5.6603e-07
8.89283e-07
7.37126e-07
8.80479e-07
7.37983e-07
8.73609e-07
6.7024e-07
7.72352e-07
5.95263e-07
7.54062e-07
6.53675e-07
7.718e-07
5.82004e-07
5.19789e-08
6.06052e-08
1.83532e-07
1.5719e-07
3.5253e-08
4.06267e-08
1.29418e-07
6.01296e-07
1.83489e-07
6.23769e-07
5.18784e-07
6.90623e-07
1.48821e-07
7.56905e-07
7.33867e-07
7.47815e-07
5.64085e-07
6.29401e-07
7.50677e-07
7.51145e-07
6.01153e-07
1.83833e-07
5.18246e-08
1.83833e-07
3.6639e-08
1.29567e-07
3.51639e-08
1.29567e-07
8.82429e-07
4.93928e-07
9.14241e-07
8.61135e-07
8.46857e-07
2.41641e-07
8.85316e-07
6.94779e-07
7.4117e-07
5.26441e-07
5.71134e-07
6.66338e-07
7.38846e-07
5.84485e-07
1.84015e-07
1.83342e-07
1.84014e-07
1.29213e-07
1.29658e-07
1.29268e-07
1.29657e-07
6.32072e-08
4.38663e-08
3.51475e-08
5.18092e-08
5.18087e-08
4.12281e-08
6.49226e-08
6.56892e-07
6.57101e-07
6.91176e-07
7.66627e-07
7.43596e-07
7.63737e-07
5.18991e-07
7.67654e-08
3.51566e-08
6.3832e-08
5.18832e-08
5.18194e-08
9.26677e-08
5.31778e-08
2.24088e-07
7.61098e-07
3.37051e-07
7.32565e-07
7.60992e-07
2.3889e-07
3.50659e-07
6.38745e-08
5.18092e-08
6.62304e-08
5.17973e-08
5.18097e-08
6.28972e-08
6.55873e-08
6.46625e-07
7.55283e-07
7.22848e-07
7.64076e-07
7.13271e-07
7.63645e-07
6.27167e-07
7.70503e-08
5.18956e-08
5.18163e-08
9.26201e-08
5.18199e-08
9.26485e-08
7.76657e-08
1.36713e-07
7.79356e-08
3.70189e-08
5.23007e-08
1.12488e-07
5.46204e-08
9.54393e-08
7.64478e-07
6.95934e-07
6.9445e-07
7.4676e-07
7.58939e-07
7.68812e-07
6.94048e-07
2.66038e-07
4.46786e-08
6.74386e-07
1.06409e-07
6.58555e-08
7.52562e-07
1.96385e-07
5.88119e-07
6.90553e-07
7.6344e-07
5.03705e-07
7.60444e-07
5.16094e-07
5.74755e-07
1.37161e-07
5.23412e-08
1.12876e-07
5.46527e-08
1.12656e-07
5.46584e-08
1.37458e-07
7.60606e-07
6.74521e-07
7.60521e-07
7.67043e-07
7.51906e-07
7.66975e-07
7.57736e-07
2.64075e-07
1.06137e-07
6.64656e-08
7.63526e-07
6.61877e-08
7.57774e-07
2.62774e-07
7.73203e-07
6.96699e-07
6.89922e-07
2.25855e-07
7.69619e-07
7.63952e-07
6.98747e-07
7.72142e-07
4.63508e-07
6.99639e-07
7.6931e-07
5.41184e-07