/*--------------------------------*- C++ -*----------------------------------*\
| =========                 |                                                 |
| \\      /  F ield         | OpenFOAM: The Open Source CFD Toolbox           |
|  \\    /   O peration     | Version:  5.0                                   |
|   \\  /    A nd           | Web:      www.OpenFOAM.org                      |
|    \\/     M anipulation  |                                                 |
\*---------------------------------------------------------------------------*/
FoamFile
{
    version     2.0;
    format      ascii;
    class       volVectorField;
    location    "1.8";
    object      U;
}
// * * * * * * * * * * * * * * * * * * * * * * * * * * * * * * * * * * * * * //

dimensions      [0 1 -1 0 0 0 0];

internalField   nonuniform List<vector> 
9235
(
(-0.00830996 -0.00354293 0.00262884)
(0.0117211 -0.0257729 -0.000125593)
(-0.023733 0.0143768 0.00156452)
(0.0124188 -0.00565433 0.000727993)
(-0.00408606 0.00835069 -0.000227215)
(-0.00427348 -0.00310446 -0.000166087)
(0.000485657 3.96867e-05 3.43873e-06)
(0.000853818 3.07383e-05 -1.68954e-06)
(0.000818071 2.08958e-05 -1.08009e-07)
(0.000816613 1.31798e-05 1.07246e-07)
(0.000811589 8.71303e-06 1.05156e-07)
(0.000807976 5.49877e-06 5.32252e-08)
(0.000805671 3.53963e-06 -2.66841e-09)
(0.000803373 2.3738e-06 5.57535e-08)
(0.000801092 1.53347e-06 4.70862e-08)
(0.000799251 9.35845e-07 7.37629e-08)
(0.000797737 5.14613e-07 5.46396e-08)
(0.000796168 3.74002e-07 7.32446e-08)
(0.000794241 -2.28753e-08 -2.68615e-09)
(0.000792687 -6.68477e-09 6.40024e-08)
(0.000791379 7.6207e-08 4.55818e-08)
(0.000789702 1.48878e-07 6.40092e-08)
(0.000788245 1.37668e-07 7.22265e-08)
(0.000786827 8.23364e-08 7.23429e-08)
(0.000785468 2.8971e-07 6.44041e-08)
(0.000783965 3.62228e-07 -3.38715e-09)
(0.000782331 1.76054e-07 5.2313e-08)
(0.000781057 1.05028e-07 4.98929e-08)
(0.000779456 2.16671e-07 8.50462e-08)
(0.000777993 -1.41393e-07 1.51337e-07)
(0.000776461 -4.61735e-07 8.03488e-08)
(0.000774798 -5.11678e-07 4.55872e-08)
(0.000773405 -3.94954e-07 8.21304e-08)
(0.000772237 -1.02916e-07 4.91877e-08)
(0.000771004 3.92082e-08 4.2751e-08)
(0.000769401 2.44975e-08 7.72302e-08)
(0.000767604 2.58083e-07 9.72067e-09)
(0.000765835 2.95105e-07 2.37461e-08)
(0.000764999 5.28488e-07 9.09108e-08)
(0.000763966 1.82416e-07 7.55389e-08)
(0.000762189 -8.70066e-09 3.13084e-08)
(0.000760684 -4.42526e-08 7.61624e-08)
(0.000759845 -8.13747e-07 7.77048e-08)
(0.000758146 -6.32794e-07 -1.87069e-10)
(0.000756259 -3.41753e-07 2.86335e-08)
(0.00075498 -1.40725e-07 2.58268e-08)
(0.000753808 2.46944e-09 5.55466e-08)
(0.000752764 -1.5171e-07 1.65367e-07)
(0.000751049 -4.00927e-07 5.47416e-08)
(0.000749449 -3.80303e-07 2.07654e-09)
(0.0067383 -0.00991767 0.00123426)
(-0.00464823 0.00526521 -0.000401346)
(-0.00109726 0.0058207 0.000913687)
(-0.00158782 -0.00332986 0.00128259)
(0.0054988 -0.0175199 -0.00034819)
(0.000445278 0.00415017 -5.26826e-05)
(0.00055253 1.24369e-05 1.49722e-06)
(0.00085943 1.27783e-05 -1.95286e-06)
(0.000816175 4.11639e-05 -2.53372e-07)
(0.00081024 1.69876e-05 1.64001e-07)
(0.000807312 1.144e-05 3.40113e-08)
(0.000804874 6.57062e-06 3.57309e-08)
(0.000803051 3.93484e-06 4.42238e-08)
(0.000801453 2.29049e-06 4.72214e-08)
(0.000800158 1.40457e-06 4.92754e-08)
(0.000798567 8.2392e-07 5.06235e-08)
(0.000797005 7.17251e-07 5.21004e-08)
(0.00079558 4.62622e-07 8.89692e-08)
(0.000794421 3.82693e-07 1.1708e-07)
(0.0007931 2.46881e-07 2.4617e-08)
(0.000791349 1.93262e-07 8.38525e-08)
(0.000789783 1.16737e-07 6.01091e-08)
(0.000788198 3.9348e-07 2.064e-07)
(0.00078698 2.84569e-07 5.55658e-08)
(0.000785601 2.66686e-07 3.61814e-08)
(0.000783792 -4.10966e-08 1.73541e-07)
(0.000782259 -6.4505e-08 4.68394e-08)
(0.000780941 -1.65304e-07 4.54284e-08)
(0.000779264 -4.61361e-07 6.68553e-08)
(0.000777472 -3.55257e-07 2.10666e-08)
(0.000776229 -2.88586e-07 -1.26994e-07)
(0.00077493 -1.27324e-07 1.84301e-08)
(0.00077379 3.85207e-07 1.26874e-07)
(0.000772632 3.99157e-07 9.81908e-08)
(0.000770925 1.25091e-07 4.89087e-08)
(0.000769368 4.72452e-08 8.38542e-08)
(0.000768046 5.876e-08 3.85057e-08)
(0.000766763 2.95076e-07 6.35095e-09)
(0.000764918 5.66308e-07 5.48899e-08)
(0.000763116 2.7279e-07 2.47279e-08)
(0.000761964 7.24475e-08 5.70333e-08)
(0.000760272 -9.44657e-08 5.66134e-08)
(0.000758776 -2.14948e-07 7.89417e-08)
(0.000758265 -7.23705e-07 8.58084e-08)
(0.000757057 -1.63087e-07 5.97371e-08)
(0.000755373 -2.178e-08 6.27973e-08)
(0.00075386 3.43455e-07 7.11281e-08)
(0.000752307 7.00688e-08 4.62887e-08)
(0.000750985 -1.06792e-07 -7.52584e-08)
(0.000750011 -1.95805e-07 1.10616e-07)
(0.00506511 -0.00821266 -0.000268397)
(0.00490043 0.00321492 -0.000113701)
(0.00170361 4.07509e-05 7.52394e-05)
(0.000834858 9.38426e-05 0.00091379)
(0.000382513 0.00653525 -0.000323993)
(-0.00319275 0.00172086 -0.000299426)
(0.00043514 -9.33128e-05 3.42862e-05)
(0.000434098 3.69914e-05 -4.78852e-07)
(0.000834598 3.57069e-05 -1.42136e-06)
(0.000779367 1.27137e-05 -4.22411e-07)
(0.000798491 8.47217e-06 1.95498e-07)
(0.000798545 4.51414e-06 5.27855e-08)
(0.000800292 2.55849e-06 6.85131e-08)
(0.000800193 1.5455e-06 5.53196e-08)
(0.00079925 9.48775e-07 5.53317e-08)
(0.000798386 5.28305e-07 5.79834e-08)
(0.000797282 4.08636e-07 -4.10102e-08)
(0.000795747 2.88333e-07 6.47925e-08)
(0.000793969 1.8064e-07 1.02581e-07)
(0.000792448 7.52531e-08 4.76026e-08)
(0.000791214 -7.66694e-09 1.96243e-07)
(0.00078995 4.8114e-08 4.50654e-08)
(0.000788451 4.63114e-08 6.43278e-08)
(0.000786665 8.24039e-08 7.65498e-08)
(0.000785059 -1.94745e-07 6.10878e-08)
(0.00078355 -1.61239e-07 4.04912e-08)
(0.000782176 -1.27534e-07 4.37685e-08)
(0.000780564 -8.74467e-08 5.97484e-08)
(0.000779223 -1.28317e-07 -5.66925e-10)
(0.000778214 3.32742e-07 -5.60743e-08)
(0.000776749 4.47329e-07 1.96939e-07)
(0.000775641 5.0942e-07 6.32208e-08)
(0.000774062 5.91091e-07 -3.27993e-09)
(0.000771908 2.85324e-07 1.59299e-08)
(0.000770562 7.3131e-08 8.20009e-08)
(0.000769317 1.05966e-07 5.40658e-08)
(0.000767913 3.39773e-08 1.71435e-07)
(0.000766466 -4.29595e-08 5.06282e-08)
(0.000764967 -1.64093e-07 2.71483e-08)
(0.000763346 -5.75423e-08 6.83601e-08)
(0.000761729 5.69213e-08 4.28822e-08)
(0.000760326 3.88571e-08 7.40095e-08)
(0.000759062 5.2143e-07 1.74389e-07)
(0.000758215 6.547e-07 1.36682e-07)
(0.00075714 2.91857e-07 5.24849e-08)
(0.000755614 2.58882e-07 1.21074e-07)
(0.000753923 2.4142e-07 1.18767e-07)
(0.000752202 3.85638e-07 8.25942e-08)
(0.000750722 2.46549e-07 5.59941e-08)
(0.000749824 1.51717e-07 1.23395e-07)
(-0.0049264 -0.00584855 0.00175716)
(0.000331086 0.00171543 3.68816e-05)
(0.00760143 -0.00258604 -0.000508921)
(0.00331977 -0.0171037 0.000482244)
(-0.00377556 0.000435279 0.000614109)
(0.00215925 0.00290321 -0.000135691)
(0.00130847 0.000616147 -3.02567e-05)
(0.000411472 -3.84466e-06 -1.28539e-06)
(0.000830679 -5.13804e-06 -1.1519e-06)
(0.000776259 -1.85616e-06 -2.92268e-07)
(0.000797057 -5.88305e-07 1.78499e-07)
(0.000797477 1.21006e-07 3.86313e-08)
(0.00079934 3.2321e-08 6.48792e-08)
(0.000799441 1.00445e-07 5.42084e-08)
(0.000798887 1.66279e-07 5.07594e-08)
(0.000797892 1.88057e-07 4.97805e-08)
(0.000796706 -1.26939e-07 4.45856e-08)
(0.000795296 -2.38256e-07 2.80558e-08)
(0.000794155 -3.20505e-07 4.88608e-08)
(0.000792866 -1.75791e-07 2.9948e-08)
(0.000791315 -1.48049e-07 8.16649e-08)
(0.000789851 -1.5299e-07 5.14408e-08)
(0.00078824 -3.49655e-07 1.89403e-08)
(0.000786679 -2.3483e-07 6.34208e-08)
(0.000785296 -1.43194e-07 7.95402e-08)
(0.000783877 3.75993e-08 3.71328e-08)
(0.000782352 2.23389e-07 6.54925e-08)
(0.000780941 3.59338e-07 5.1759e-08)
(0.000779788 6.93078e-07 -1.38106e-08)
(0.000778188 5.48113e-07 4.01589e-08)
(0.000776444 2.93495e-07 8.27342e-08)
(0.000775104 3.82177e-07 -1.36684e-07)
(0.000773506 -2.53851e-07 -6.61537e-09)
(0.000771982 -1.31152e-07 4.85761e-08)
(0.000770699 3.40371e-08 4.96231e-08)
(0.000769319 2.26477e-08 4.25132e-08)
(0.00076786 -2.51918e-08 4.14371e-08)
(0.000766515 -8.60934e-08 5.85528e-08)
(0.0007649 -2.18638e-07 1.42202e-08)
(0.000763393 -2.07862e-07 -1.32087e-07)
(0.000762084 1.14291e-09 5.99312e-08)
(0.000760851 2.05497e-07 9.75344e-08)
(0.000759543 3.7272e-07 1.78205e-07)
(0.000757973 6.38303e-07 -9.66509e-08)
(0.000756558 2.61989e-07 6.25348e-08)
(0.000755308 1.4042e-07 4.45747e-08)
(0.000754016 1.04457e-07 1.04065e-07)
(0.000752311 3.92959e-07 4.54931e-08)
(0.000750688 2.14178e-07 4.83784e-08)
(0.000749513 2.88458e-07 1.46514e-07)
(-0.0481115 -0.0803085 -0.000284274)
(-0.00265125 -0.00688578 -0.000297074)
(-0.00359413 -0.00119964 0.00132363)
(0.0210782 0.0182595 0.00147075)
(-0.0283186 -0.0031126 -0.00156445)
(-0.00195368 -0.00209985 -0.000268452)
(0.000648374 -0.000286622 9.59341e-05)
(0.000394145 -3.5266e-05 -2.19565e-06)
(0.000841358 -2.39795e-05 -1.2776e-06)
(0.000785287 -1.24892e-05 -5.05431e-07)
(0.000801048 -6.89582e-06 1.59021e-07)
(0.000799372 -4.04141e-06 6.71001e-08)
(0.000800296 -2.0616e-06 1.06904e-07)
(0.000800379 -1.35946e-06 5.37187e-08)
(0.00079937 -9.8582e-07 4.76965e-08)
(0.000798025 -6.69241e-07 -4.0122e-08)
(0.000796753 -3.67998e-07 5.05739e-08)
(0.000795509 -2.06867e-07 4.84755e-08)
(0.000794051 9.65562e-09 6.93152e-08)
(0.000792667 7.97307e-09 9.18682e-08)
(0.000791246 3.14638e-08 6.39242e-08)
(0.000789701 -2.61639e-08 2.85075e-07)
(0.000788352 -2.84716e-08 3.39176e-07)
(0.000786926 1.56357e-08 1.00994e-07)
(0.000785401 8.49551e-08 1.27226e-07)
(0.000784008 -6.9388e-08 6.37455e-08)
(0.000782576 1.67616e-07 6.81375e-08)
(0.000781146 3.03419e-07 1.56745e-08)
(0.000779452 3.78493e-07 2.42691e-07)
(0.000777707 2.17497e-07 1.09693e-07)
(0.000776536 6.06182e-08 6.1191e-08)
(0.000774952 -2.11133e-07 2.028e-08)
(0.000773418 -5.48309e-08 8.41503e-08)
(0.000772267 1.53164e-08 4.9885e-08)
(0.000770754 7.20746e-08 5.12542e-08)
(0.000769243 -2.81253e-08 4.67528e-08)
(0.000767777 -2.53725e-08 5.82014e-09)
(0.000766226 -5.81931e-08 4.41486e-08)
(0.000764817 -1.08592e-07 4.47871e-08)
(0.000763623 -5.31455e-08 -8.10358e-08)
(0.000762245 8.82391e-08 6.52991e-08)
(0.000760788 1.73718e-07 4.08098e-07)
(0.000759599 9.45242e-08 1.13723e-08)
(0.000758072 6.66034e-08 5.48366e-08)
(0.000756515 -4.1081e-08 1.46647e-07)
(0.000755416 -1.70549e-07 4.98365e-08)
(0.000754237 -4.32121e-07 -1.90381e-08)
(0.000752337 -7.82207e-07 -4.13653e-09)
(0.000750584 -2.70461e-07 5.00537e-08)
(0.000749199 3.92986e-08 4.85646e-08)
(0.00843094 -0.00622055 0.000108407)
(-0.000439623 0.00760562 0.0010398)
(-0.00312142 0.00360454 0.00251854)
(0.0177866 -0.0252943 0.000570081)
(-0.0234095 0.00908476 -0.0002559)
(0.00548637 -0.00620556 9.99868e-05)
(0.000569528 -0.00112161 8.40902e-05)
(0.000430271 -3.38655e-05 -2.13673e-06)
(0.000865443 -1.83952e-05 -1.58411e-06)
(0.000797759 -1.26608e-05 -5.34656e-07)
(0.000807738 -7.93675e-06 1.4348e-07)
(0.000803593 -5.16542e-06 1.48807e-07)
(0.000802737 -3.00363e-06 6.95638e-08)
(0.000800813 -2.04348e-06 4.47288e-08)
(0.000799768 -1.42032e-06 6.23835e-08)
(0.000798676 -9.91731e-07 1.00849e-07)
(0.000797291 -5.92915e-07 5.23701e-08)
(0.000795772 -3.25791e-07 6.96098e-08)
(0.000794425 -3.24191e-07 7.33034e-08)
(0.000792894 -1.06309e-07 1.70217e-07)
(0.000791272 -1.05617e-07 7.83492e-08)
(0.000789776 3.12987e-08 3.77033e-08)
(0.000788293 1.40183e-07 1.63008e-07)
(0.000786821 1.08791e-07 7.62946e-08)
(0.000785191 1.55944e-07 4.1576e-08)
(0.00078398 2.22041e-07 8.40977e-09)
(0.000782818 -1.84341e-08 3.89435e-08)
(0.000781202 -1.24814e-07 3.46271e-09)
(0.000779678 -2.82422e-08 3.23336e-08)
(0.000777788 -3.26743e-07 -9.30153e-08)
(0.000775908 -1.98894e-07 3.37852e-08)
(0.000774958 -1.64435e-07 1.89307e-07)
(0.000773789 -3.52125e-08 1.18069e-08)
(0.000772139 -6.51874e-08 -2.74862e-07)
(0.000770644 -1.36876e-07 1.7876e-08)
(0.000769197 -5.79238e-08 4.272e-08)
(0.000767823 -1.02348e-09 5.73096e-08)
(0.000766412 1.03806e-07 5.35233e-08)
(0.000764908 1.72122e-07 5.92989e-08)
(0.000763639 1.73813e-07 5.61116e-08)
(0.000762367 1.79876e-07 3.13736e-08)
(0.000760857 4.02388e-07 2.66799e-07)
(0.000759408 2.85716e-07 4.88301e-08)
(0.000757804 1.64947e-08 4.67579e-08)
(0.000756263 -7.39135e-08 3.67427e-08)
(0.000754821 -2.11674e-07 4.42696e-08)
(0.000753255 -5.69322e-07 -7.22441e-08)
(0.000752517 -8.04575e-07 7.52198e-08)
(0.000751716 -5.24164e-07 1.37061e-07)
(0.000749803 -3.5223e-07 1.27435e-07)
(-0.00869149 0.00780084 0.000398002)
(0.0279559 0.00301912 -0.000852344)
(0.0074035 0.003706 0.00192955)
(-0.0411684 -0.0249132 -0.000953506)
(0.00233896 -0.0428283 0.00323818)
(0.00681685 -0.00459642 0.00030173)
(0.00136778 0.000127334 0.000180437)
(0.000464806 9.06245e-06 4.45415e-07)
(0.000874522 -7.72541e-06 -1.45642e-06)
(0.000798653 -7.93206e-06 -4.53718e-07)
(0.000810509 -6.64898e-06 1.68449e-07)
(0.000805598 -4.59806e-06 3.69919e-08)
(0.000804237 -3.40842e-06 5.426e-08)
(0.000802383 -2.15126e-06 5.10339e-08)
(0.000800701 -1.30617e-06 5.46862e-08)
(0.000799071 -7.57407e-07 5.33461e-08)
(0.000797593 -4.70561e-07 5.0523e-08)
(0.00079585 -3.43778e-07 2.49855e-08)
(0.000794327 -1.25312e-07 4.6973e-08)
(0.000792941 -2.99889e-07 5.81892e-08)
(0.000791417 -1.44865e-07 4.90354e-08)
(0.000790007 -6.87091e-08 4.79927e-08)
(0.000788448 1.84131e-08 1.68703e-08)
(0.000786944 2.57988e-08 4.8188e-08)
(0.000785541 1.22967e-07 2.25709e-08)
(0.000783789 1.63113e-07 9.52781e-08)
(0.000782142 -1.18548e-07 5.21494e-08)
(0.000781135 -3.63197e-07 4.91975e-08)
(0.000779202 -8.20852e-07 -5.33462e-08)
(0.000777497 -7.91676e-07 3.24811e-08)
(0.000776742 -4.38002e-07 1.97913e-08)
(0.00077516 1.82135e-09 5.36784e-08)
(0.000773544 3.96183e-08 4.02063e-08)
(0.000772142 -6.80509e-08 7.58931e-08)
(0.000770764 -8.92848e-08 7.2451e-08)
(0.000769414 -3.17307e-08 6.28264e-08)
(0.000767979 5.52634e-09 5.09474e-08)
(0.000766442 -8.42291e-08 4.32164e-08)
(0.000764903 -6.46937e-10 3.96178e-08)
(0.000763631 2.06925e-07 -5.22769e-08)
(0.000762529 1.03399e-08 4.29316e-08)
(0.000760919 -2.07258e-07 -1.89112e-08)
(0.000759116 -1.58903e-07 5.85559e-08)
(0.000757622 -2.54679e-07 5.40922e-08)
(0.000756231 -9.73926e-08 1.0077e-08)
(0.0007548 -3.50943e-08 5.01282e-08)
(0.000753501 -5.08587e-08 7.2192e-08)
(0.000752399 1.20109e-07 4.13423e-08)
(0.00075116 -2.84695e-07 1.18809e-07)
(0.000750292 -3.36111e-07 5.55022e-08)
(-0.000585926 0.00788222 0.000239772)
(0.00303353 0.00126415 0.00166077)
(0.00419799 -0.00288078 0.000637515)
(0.00774457 0.00385645 -0.000622084)
(-0.00386226 -0.00560347 0.000428629)
(-0.00996278 0.00468633 -0.000842505)
(0.00104844 -0.000210635 -2.19054e-05)
(0.000454592 -2.47379e-06 1.42236e-06)
(0.000860587 -2.89279e-05 -1.21142e-06)
(0.000799096 -9.66783e-06 -4.10738e-07)
(0.000811952 -7.40462e-06 1.85209e-07)
(0.000807679 -4.27497e-06 3.97651e-08)
(0.000805819 -2.68825e-06 6.15254e-08)
(0.000803457 -1.65557e-06 5.20976e-08)
(0.00080152 -1.06323e-06 5.02219e-08)
(0.000799726 -6.69375e-07 5.1233e-08)
(0.000797811 -4.3109e-07 1.10843e-07)
(0.000796205 -2.50549e-07 6.35787e-08)
(0.000794482 -1.47826e-08 -1.57573e-07)
(0.000792871 -5.57703e-08 4.05597e-08)
(0.000791563 -2.24015e-08 5.16599e-08)
(0.000789981 -8.25173e-08 6.4866e-08)
(0.000788411 -1.86578e-07 4.09278e-08)
(0.000786951 -1.43028e-07 4.74356e-08)
(0.000785362 -3.29979e-07 6.37899e-08)
(0.000783678 -3.41685e-07 5.54466e-08)
(0.00078216 -9.67631e-08 -2.11581e-08)
(0.000780328 -9.33613e-08 1.61007e-07)
(0.000779148 -2.97706e-07 1.5779e-07)
(0.000778273 2.62605e-07 6.7058e-08)
(0.000776904 3.52397e-07 9.61254e-08)
(0.000775558 4.17931e-08 1.80662e-07)
(0.000773702 -3.02372e-08 4.09214e-08)
(0.000771979 9.89255e-08 4.99455e-08)
(0.000770691 1.07265e-08 4.89065e-08)
(0.000769316 -2.43826e-07 6.55862e-08)
(0.000767758 -2.22613e-07 5.86554e-08)
(0.000766405 -2.40635e-07 6.31246e-08)
(0.000765271 -4.86145e-08 4.41214e-08)
(0.000763652 -2.483e-08 8.16569e-08)
(0.000761849 -1.1149e-07 2.13125e-08)
(0.000760647 -2.10424e-07 5.55516e-08)
(0.00075935 -1.95298e-07 5.5543e-08)
(0.000757882 -1.15062e-07 4.63808e-08)
(0.000756539 -7.13366e-08 6.86343e-08)
(0.000754881 6.99528e-08 4.61352e-08)
(0.00075345 4.42489e-07 4.40634e-08)
(0.000752226 3.13635e-07 5.38277e-08)
(0.000751155 2.32588e-07 5.91166e-08)
(0.000750578 -7.02803e-08 5.71845e-08)
(-0.0218652 -0.00292453 0.00442847)
(0.0132494 0.0210706 0.000834566)
(-0.00180473 0.027858 -0.00015685)
(0.0177499 0.0143409 0.000507754)
(-0.0105934 0.0161186 0.000709027)
(0.0129316 0.00280938 0.000430122)
(0.000461387 -2.72533e-05 4.04841e-05)
(0.000894835 8.2088e-06 -1.76233e-06)
(0.000834217 -2.48458e-05 -2.1079e-07)
(0.000825478 -5.47297e-06 7.50418e-08)
(0.00081727 -3.64031e-06 4.34269e-08)
(0.000811506 -1.37344e-06 3.12136e-08)
(0.000807517 -6.28091e-07 4.7317e-08)
(0.000804417 -4.08577e-07 5.05319e-08)
(0.000801935 -1.9026e-07 5.35062e-08)
(0.000799862 -3.75016e-08 1.30892e-07)
(0.000798117 -8.46903e-08 2.87624e-09)
(0.00079637 -1.11689e-07 8.77585e-08)
(0.00079457 -4.21082e-08 5.41255e-08)
(0.000792931 2.23348e-07 4.8957e-08)
(0.000791384 4.48607e-08 5.1759e-08)
(0.000789803 -1.02119e-07 6.11366e-08)
(0.000788374 -1.73921e-07 -2.62279e-08)
(0.000786768 -2.06175e-07 5.4274e-08)
(0.000785296 -3.02887e-07 5.19862e-08)
(0.000784083 -2.94714e-07 6.2081e-08)
(0.000782455 -9.75876e-08 2.63355e-08)
(0.000780885 4.21971e-08 4.62596e-08)
(0.000779647 3.54004e-07 6.18337e-08)
(0.000778309 3.8283e-07 -2.58726e-08)
(0.000776464 3.9179e-07 -1.45084e-09)
(0.00077468 2.11569e-07 9.38172e-08)
(0.000773615 -1.80924e-07 -1.84405e-07)
(0.000772193 -1.29673e-07 5.84601e-08)
(0.000770336 -9.51291e-08 1.74069e-07)
(0.000769123 -7.06077e-08 5.37027e-08)
(0.000767985 -2.72215e-07 -6.83309e-08)
(0.00076666 -1.09723e-07 5.21265e-08)
(0.000765174 -2.55156e-07 1.06962e-07)
(0.000763553 -2.78653e-07 4.01333e-08)
(0.000762298 -1.468e-07 5.82569e-08)
(0.000760816 3.8935e-08 2.40379e-08)
(0.000759237 3.56695e-07 4.28721e-08)
(0.000757779 1.6617e-07 3.90143e-08)
(0.000756463 1.88369e-07 6.95922e-08)
(0.000755441 8.7486e-08 -3.69087e-09)
(0.000753803 2.39091e-07 2.0583e-08)
(0.000752134 4.2817e-07 4.17961e-08)
(0.00075068 7.09535e-07 -6.51729e-08)
(0.000750086 5.25398e-07 9.21967e-08)
(0.0149649 0.00672246 3.80894e-05)
(0.0231634 0.0051939 -0.000247615)
(-0.00599315 0.00929739 -0.00332682)
(-0.0190039 0.00333319 -0.00105788)
(-0.0140269 -0.0132512 0.00119443)
(0.0140512 -0.00801068 -2.49561e-05)
(0.000523274 -1.85996e-05 3.15354e-07)
(0.000883671 1.97002e-05 -2.71353e-06)
(0.000838566 1.14155e-05 -1.95379e-07)
(0.000825643 7.19498e-06 1.14056e-08)
(0.000817025 4.48965e-06 8.22838e-08)
(0.000811412 2.74877e-06 4.57826e-08)
(0.000807002 1.72471e-06 5.09399e-08)
(0.000803989 1.30812e-06 -1.11045e-07)
(0.000801974 9.1269e-07 5.33276e-08)
(0.000799852 6.49129e-07 4.4209e-08)
(0.000797715 4.33693e-07 4.91028e-08)
(0.000796256 3.51973e-07 8.66574e-08)
(0.000794899 2.76785e-07 4.27204e-08)
(0.000792978 9.09895e-08 5.93602e-08)
(0.000791155 8.28053e-08 3.18099e-08)
(0.000789708 8.74719e-08 1.614e-07)
(0.000788283 2.57004e-09 5.44744e-08)
(0.000786793 -1.55013e-08 4.87011e-08)
(0.000785254 5.05434e-08 5.20359e-08)
(0.000783937 1.23141e-07 7.5233e-08)
(0.000782584 -4.36868e-08 2.00641e-08)
(0.000780892 2.41415e-08 4.56363e-08)
(0.000779572 9.42307e-08 5.93571e-08)
(0.000778317 -1.28717e-07 4.95789e-08)
(0.000776687 -1.58412e-07 9.57097e-08)
(0.000774841 -1.32211e-07 5.56346e-09)
(0.000773276 -6.59063e-08 -6.32912e-08)
(0.000772088 -3.01743e-07 3.74788e-08)
(0.000770766 -3.29781e-08 4.03356e-08)
(0.000769096 2.31857e-07 7.32883e-08)
(0.00076771 1.90068e-07 3.05316e-08)
(0.000766428 -7.2153e-08 5.53246e-08)
(0.000765062 -4.71178e-07 5.05315e-08)
(0.00076379 -2.13911e-07 5.94013e-08)
(0.000762248 -1.41976e-07 5.43806e-08)
(0.000761277 -3.02995e-07 7.09106e-08)
(0.000759509 -2.48189e-07 3.68132e-08)
(0.00075767 1.83969e-07 1.42453e-07)
(0.000756439 4.63479e-08 1.97504e-08)
(0.000754942 2.30809e-08 -6.54527e-10)
(0.000753872 -3.21078e-07 5.11076e-08)
(0.000752809 2.79123e-08 3.80611e-08)
(0.000751261 1.84189e-07 -6.53752e-08)
(0.000749037 3.29857e-07 5.86875e-08)
(-0.00930459 2.80191e-05 0.00332068)
(-0.0078506 0.000291316 0.00127178)
(0.00602401 0.00143663 -0.00126459)
(-0.0260648 -0.0111762 0.00328004)
(-0.00461826 -0.00576293 0.000439601)
(0.00062396 0.00378098 -0.00129915)
(0.00139649 0.000121523 1.71822e-05)
(0.00140525 5.46979e-05 3.62653e-07)
(0.00135205 3.72951e-05 3.3418e-07)
(0.00135303 2.3644e-05 3.49245e-07)
(0.00134685 1.55775e-05 3.79358e-07)
(0.00134214 9.78936e-06 2.47917e-07)
(0.00133916 6.26645e-06 2.54944e-07)
(0.00133576 4.24798e-06 1.45556e-07)
(0.00133217 2.71275e-06 3.37921e-07)
(0.00132927 1.63997e-06 6.0853e-07)
(0.00132679 9.19055e-07 3.36003e-07)
(0.00132426 6.6193e-07 3.48255e-07)
(0.00132109 2.80127e-08 3.18753e-07)
(0.00131849 2.27144e-09 2.99649e-07)
(0.00131632 1.63886e-07 3.1683e-07)
(0.00131351 3.34477e-07 3.76026e-07)
(0.00131104 2.94638e-07 3.7915e-07)
(0.00130868 1.73077e-07 3.00924e-07)
(0.00130637 5.46621e-07 2.85571e-07)
(0.00130384 6.90875e-07 1.8979e-07)
(0.00130118 3.52874e-07 2.74397e-07)
(0.0012991 1.7503e-07 3.27678e-07)
(0.00129632 3.3062e-07 3.7022e-07)
(0.00129373 -3.18958e-07 6.87317e-07)
(0.00129123 -8.95635e-07 3.6333e-07)
(0.00128842 -8.92729e-07 2.3253e-07)
(0.00128617 -6.64571e-07 3.35425e-07)
(0.00128433 -1.74852e-07 2.86166e-07)
(0.00128222 1.19211e-07 3.13851e-07)
(0.0012795 1.37068e-07 3.24829e-07)
(0.00127647 4.32091e-07 3.04285e-07)
(0.00127354 5.08251e-07 2.27646e-07)
(0.00127207 9.13071e-07 3.04166e-07)
(0.00127037 3.8853e-07 3.98392e-07)
(0.00126749 2.17645e-08 2.81559e-07)
(0.00126495 -6.45876e-08 3.30075e-07)
(0.00126355 -1.25228e-06 3.38755e-07)
(0.00126075 -9.63233e-07 1.93731e-07)
(0.00125769 -5.37063e-07 2.78176e-07)
(0.00125551 -2.64239e-07 3.1774e-07)
(0.00125347 -3.88305e-08 2.8661e-07)
(0.00125172 -3.20274e-07 4.51879e-07)
(0.00124883 -6.67145e-07 3.60932e-07)
(0.00124612 -6.09125e-07 1.97242e-07)
(-0.00166175 -0.00735286 -0.000373455)
(-0.0219689 -0.0146308 0.010185)
(0.00163916 -0.0103195 -0.00184556)
(-0.0126425 0.00797096 0.0036747)
(0.00182953 0.0207769 -0.00174656)
(0.00378105 0.00816912 -0.000314419)
(0.0015998 3.12025e-05 -4.45674e-06)
(0.00141713 1.7122e-05 3.56425e-07)
(0.0013496 6.50812e-05 3.97489e-07)
(0.00134274 2.64055e-05 6.99244e-07)
(0.00133981 1.79396e-05 3.3656e-07)
(0.00133698 1.0339e-05 3.33944e-07)
(0.00133476 6.22114e-06 3.34547e-07)
(0.00133257 3.55776e-06 3.32176e-07)
(0.00133063 2.17923e-06 3.32913e-07)
(0.00132817 1.24653e-06 2.91775e-07)
(0.00132569 1.08481e-06 3.32486e-07)
(0.00132335 6.87465e-07 3.76627e-07)
(0.00132135 5.81261e-07 4.1656e-07)
(0.00131911 3.96427e-07 2.9657e-07)
(0.00131628 3.46248e-07 3.67036e-07)
(0.00131364 2.14244e-07 3.73364e-07)
(0.00131094 6.95226e-07 4.62374e-07)
(0.00130895 5.44191e-07 6.13104e-07)
(0.00130667 5.00496e-07 2.69531e-07)
(0.00130356 1.10607e-08 4.93662e-07)
(0.00130094 -5.59336e-08 4.3519e-07)
(0.00129873 -2.91649e-07 3.24725e-07)
(0.00129593 -9.00144e-07 2.98687e-07)
(0.00129291 -6.65288e-07 -1.12117e-08)
(0.00129092 -5.21921e-07 5.0157e-08)
(0.00128882 -2.60596e-07 2.72375e-07)
(0.00128683 6.93976e-07 4.80679e-07)
(0.00128489 6.99501e-07 4.48353e-07)
(0.00128211 2.22341e-07 3.15757e-07)
(0.00127944 5.54826e-08 3.62541e-07)
(0.00127718 1.14728e-07 3.09264e-07)
(0.00127505 4.97058e-07 6.81645e-08)
(0.00127201 9.60538e-07 3.77912e-07)
(0.00126901 5.43335e-07 2.98981e-07)
(0.00126702 1.4856e-07 3.29766e-07)
(0.00126426 -1.68725e-07 3.47501e-07)
(0.00126184 -4.03204e-07 2.98667e-07)
(0.00126091 -1.16539e-06 3.90866e-07)
(0.00125883 -3.07084e-07 3.54019e-07)
(0.00125609 -1.32662e-07 3.30218e-07)
(0.00125362 4.98757e-07 4.24222e-07)
(0.00125102 6.36387e-08 3.04966e-07)
(0.00124878 -2.37334e-07 7.32577e-08)
(0.00124712 -3.43061e-07 4.02383e-07)
(-0.00129248 0.000838213 -0.00343074)
(0.00312458 -0.00406895 -0.000194525)
(-0.0143423 0.0066463 0.00648967)
(0.0164954 0.0083573 0.0156351)
(0.0080467 0.0110209 -0.00142619)
(0.00228601 -0.00169103 -0.00127121)
(0.00115855 0.000214002 5.38406e-05)
(0.00128383 9.50457e-05 5.48155e-07)
(0.00138408 5.18427e-05 -2.91852e-07)
(0.001294 1.67017e-05 3.22595e-07)
(0.00132666 1.14194e-05 3.31989e-07)
(0.00132741 5.9418e-06 3.32092e-07)
(0.00133064 3.32578e-06 3.32423e-07)
(0.00133068 1.98618e-06 3.33435e-07)
(0.00132927 1.21309e-06 3.32942e-07)
(0.00132789 6.59947e-07 3.31063e-07)
(0.00132608 5.09042e-07 2.14977e-07)
(0.00132363 3.4852e-07 2.90807e-07)
(0.00132072 1.42637e-07 3.75006e-07)
(0.0013182 3.8552e-08 3.26178e-07)
(0.00131609 -5.85862e-08 5.63794e-07)
(0.00131394 3.9827e-08 3.21673e-07)
(0.00131145 8.15273e-08 3.34156e-07)
(0.00130843 1.74631e-07 3.1038e-07)
(0.00130569 -3.35598e-07 3.38646e-07)
(0.00130314 -2.55086e-07 3.07295e-07)
(0.0013008 -1.80458e-07 2.42009e-07)
(0.00129805 -9.45872e-08 3.15313e-07)
(0.00129585 -1.70236e-07 2.1153e-07)
(0.00129421 6.30916e-07 1.91571e-07)
(0.00129174 8.81957e-07 4.78961e-07)
(0.00128994 9.06518e-07 4.46136e-07)
(0.00128737 9.51483e-07 2.10453e-07)
(0.00128373 5.08174e-07 1.858e-07)
(0.00128141 1.06673e-07 3.42186e-07)
(0.00127936 1.34617e-07 3.25866e-07)
(0.00127702 6.09634e-08 4.13958e-07)
(0.00127459 -5.19407e-08 3.36261e-07)
(0.00127212 -2.32503e-07 3.02511e-07)
(0.00126935 -9.35323e-08 3.6081e-07)
(0.0012666 7.17927e-08 1.79068e-07)
(0.00126426 7.63446e-08 3.80473e-07)
(0.00126231 9.22756e-07 8.09599e-07)
(0.00126088 1.0659e-06 3.41139e-07)
(0.00125898 5.37614e-07 3.08109e-07)
(0.00125652 4.75151e-07 4.11472e-07)
(0.00125371 4.17261e-07 4.88779e-07)
(0.0012508 6.06683e-07 3.27003e-07)
(0.00124833 3.73257e-07 3.22899e-07)
(0.00124684 2.32965e-07 5.16087e-07)
(-0.0323654 -0.0652995 -0.067855)
(-0.0131645 0.00296039 -0.000388901)
(-0.000317886 -0.00532241 -0.000295502)
(0.0107213 -0.0158472 0.000737671)
(-0.000428399 0.00363018 -0.00253473)
(0.00775554 -0.0238672 -0.00163513)
(0.000708987 -0.00158477 -0.000554377)
(0.00123164 -3.6035e-05 1.49787e-07)
(0.00138443 -1.64367e-05 2.86282e-07)
(0.00129245 -7.92171e-06 4.50589e-07)
(0.00132639 -3.94291e-06 3.32992e-07)
(0.00132687 -1.65438e-06 3.30612e-07)
(0.00132983 -1.13801e-06 3.31758e-07)
(0.00132993 -5.60164e-07 3.33124e-07)
(0.00132898 -1.58026e-07 3.32531e-07)
(0.00132729 4.77785e-08 3.31006e-07)
(0.00132531 -3.37218e-07 3.31656e-07)
(0.00132289 -4.25621e-07 2.77539e-07)
(0.00132096 -5.76376e-07 3.02409e-07)
(0.00131886 -3.75209e-07 2.96629e-07)
(0.00131628 -3.13558e-07 3.48697e-07)
(0.00131382 -2.86961e-07 3.30443e-07)
(0.00131111 -5.9695e-07 2.76705e-07)
(0.00130842 -4.28164e-07 3.88866e-07)
(0.00130613 -2.7864e-07 7.66591e-07)
(0.00130376 2.89701e-08 2.73518e-07)
(0.00130114 3.69006e-07 3.95397e-07)
(0.00129874 6.54102e-07 3.4541e-07)
(0.00129683 1.30432e-06 2.71234e-07)
(0.00129422 1.04729e-06 3.00915e-07)
(0.00129125 6.6259e-07 3.73705e-07)
(0.0012889 8.10671e-07 9.29024e-08)
(0.00128632 -2.58354e-07 2.6343e-07)
(0.00128384 -1.66279e-07 3.21345e-07)
(0.00128164 9.25006e-08 3.00919e-07)
(0.00127938 5.49015e-08 3.05209e-07)
(0.00127694 -4.66483e-08 2.99911e-07)
(0.00127468 -1.53008e-07 3.44874e-07)
(0.00127196 -4.38966e-07 1.91309e-07)
(0.00126939 -4.38157e-07 1.33295e-07)
(0.00126723 -1.30873e-08 3.24668e-07)
(0.00126532 4.28553e-07 3.6495e-07)
(0.00126307 7.06742e-07 6.34109e-07)
(0.00126042 1.05057e-06 -3.08139e-08)
(0.00125809 4.37079e-07 3.517e-07)
(0.00125594 2.32474e-07 3.14504e-07)
(0.00125378 1.50563e-07 3.93149e-07)
(0.00125096 5.81021e-07 3.07097e-07)
(0.0012483 3.61447e-07 3.57025e-07)
(0.00124636 4.70706e-07 5.14938e-07)
(-0.0790543 -0.053726 0.0582211)
(-0.0233856 -0.0383642 -0.00503185)
(0.0438035 0.00962532 -0.00277829)
(-0.00381634 -0.0143619 -0.0283569)
(-0.00404812 0.0124665 -0.00292436)
(0.00453633 -0.00501025 0.00175499)
(0.000876412 -0.00277383 -7.12713e-05)
(0.00120304 -0.000119304 1.01998e-07)
(0.00140741 -4.3946e-05 6.15481e-07)
(0.0013101 -2.3712e-05 4.03889e-07)
(0.00133467 -1.3472e-05 3.54516e-07)
(0.00133103 -8.06689e-06 7.77783e-07)
(0.00133208 -4.29685e-06 3.19998e-07)
(0.00133195 -2.83351e-06 3.33212e-07)
(0.00133005 -2.02128e-06 3.56841e-07)
(0.00132768 -1.35524e-06 7.71476e-08)
(0.0013255 -7.64334e-07 3.30304e-07)
(0.00132334 -4.53007e-07 3.258e-07)
(0.00132079 -1.28548e-08 3.48236e-07)
(0.00131853 6.2121e-08 3.34996e-07)
(0.0013162 7.55281e-08 3.64264e-07)
(0.00131359 -1.65143e-08 6.03001e-07)
(0.00131128 -3.47299e-08 7.5564e-07)
(0.00130884 1.40577e-08 3.77095e-07)
(0.00130627 1.61961e-07 3.19993e-07)
(0.00130395 -1.58375e-07 3.45533e-07)
(0.00130158 2.50043e-07 3.78917e-07)
(0.00129921 4.79172e-07 2.77831e-07)
(0.00129634 6.51984e-07 5.09417e-07)
(0.00129339 3.90411e-07 3.96706e-07)
(0.00129144 1.47901e-07 3.47019e-07)
(0.00128878 -2.97321e-07 2.54936e-07)
(0.00128614 1.40668e-08 3.5431e-07)
(0.00128417 4.64237e-08 3.1864e-07)
(0.00128168 1.57943e-07 3.01533e-07)
(0.00127919 -4.32842e-08 3.14947e-07)
(0.00127676 -9.16941e-08 1.81447e-08)
(0.0012741 -1.47189e-07 3.14975e-07)
(0.00127176 -2.41935e-07 3.14601e-07)
(0.00126989 -1.22557e-07 7.87939e-08)
(0.00126769 1.65808e-07 4.00098e-07)
(0.00126516 3.55393e-07 1.07666e-06)
(0.00126308 1.43316e-07 1.2112e-07)
(0.00126054 8.48016e-08 2.42548e-07)
(0.00125796 -1.4876e-07 5.2041e-07)
(0.00125616 -3.19732e-07 3.13801e-07)
(0.00125415 -7.46066e-07 5.38392e-08)
(0.00125106 -1.25551e-06 2.19329e-07)
(0.00124818 -4.39761e-07 3.88624e-07)
(0.0012458 8.23707e-08 3.16552e-07)
(-0.039406 -0.0192361 -0.00147705)
(0.0172487 -0.00782087 -0.0231369)
(-0.00103214 -0.00320831 -0.0325757)
(-0.0347508 -0.029849 -0.00708624)
(0.0349956 0.0158397 0.00629593)
(0.00183949 -0.00737072 -0.00082267)
(0.00169996 -0.0039802 -3.68871e-05)
(0.00130587 -8.92736e-05 1.2818e-06)
(0.00144578 -3.11417e-05 5.97685e-07)
(0.0013308 -2.18176e-05 3.02066e-07)
(0.00134617 -1.39052e-05 2.9598e-07)
(0.00133848 -9.11997e-06 4.8533e-07)
(0.00133646 -5.34329e-06 3.75213e-07)
(0.00133283 -3.63861e-06 3.33012e-07)
(0.00133086 -2.53803e-06 3.50195e-07)
(0.00132889 -1.75444e-06 4.19168e-07)
(0.00132645 -1.05678e-06 3.32485e-07)
(0.00132384 -6.10611e-07 3.67918e-07)
(0.00132161 -5.43656e-07 3.40787e-07)
(0.00131897 -9.57727e-08 5.59223e-07)
(0.00131618 -1.40066e-07 3.72458e-07)
(0.00131368 8.24436e-08 3.04188e-07)