/*--------------------------------*- C++ -*----------------------------------*\
| =========                 |                                                 |
| \\      /  F ield         | OpenFOAM: The Open Source CFD Toolbox           |
|  \\    /   O peration     | Version:  5.0                                   |
|   \\  /    A nd           | Web:      www.OpenFOAM.org                      |
|    \\/     M anipulation  |                                                 |
\*---------------------------------------------------------------------------*/
FoamFile
{
    version     2.0;
    format      ascii;
    class       volVectorField;
    location    "1.8";
    object      U_0;
}
// * * * * * * * * * * * * * * * * * * * * * * * * * * * * * * * * * * * * * //

dimensions      [0 1 -1 0 0 0 0];

internalField   nonuniform List<vector> 
9235
(
(-0.0088457 -0.00347694 0.00261168)
(0.0117032 -0.0249868 -0.00010135)
(-0.0219598 0.0135689 0.000714481)
(0.0115011 -0.00688344 0.000788599)
(-0.00448508 0.0107992 -0.000126112)
(-0.00417591 0.000157028 -0.000160251)
(0.000417984 2.11964e-05 4.30891e-06)
(0.000780962 2.65743e-05 -1.5943e-06)
(0.000768337 1.9976e-05 1.91895e-08)
(0.000779931 1.34209e-05 1.20114e-07)
(0.000783338 9.08959e-06 1.21168e-07)
(0.00078491 5.73847e-06 7.61414e-08)
(0.000786027 3.69973e-06 3.44963e-10)
(0.000785407 2.76224e-06 6.68215e-08)
(0.000783992 1.68853e-06 4.74008e-08)
(0.000782851 8.92144e-07 1.52061e-07)
(0.000781533 5.37116e-07 5.43807e-08)
(0.000780402 3.11003e-07 8.48015e-08)
(0.000778738 2.10307e-07 2.37073e-08)
(0.000777063 5.97789e-08 2.19684e-07)
(0.000775724 3.90603e-09 2.78314e-08)
(0.000774256 2.02143e-07 6.31236e-08)
(0.00077276 -3.70591e-08 3.96175e-08)
(0.000771182 -3.32503e-08 1.72071e-07)
(0.000769582 1.45237e-07 3.70974e-08)
(0.000768099 2.43475e-07 3.42539e-08)
(0.000766686 1.50669e-07 4.87271e-08)
(0.000765411 5.56409e-08 4.99812e-08)
(0.000763447 1.38436e-07 7.18992e-08)
(0.000761516 -2.70565e-07 5.62224e-08)
(0.000760295 -6.90144e-07 -5.81585e-08)
(0.000758669 -5.70092e-07 -1.24682e-08)
(0.000757503 -5.16761e-07 7.6961e-08)
(0.000756403 -3.20603e-07 6.59648e-08)
(0.000754887 -1.38072e-08 3.60856e-08)
(0.000753265 1.7567e-07 8.55526e-08)
(0.000751522 1.27116e-07 2.963e-08)
(0.000750063 1.89125e-07 4.31762e-08)
(0.000748715 3.78063e-07 6.32817e-08)
(0.000747694 4.38358e-07 1.55072e-07)
(0.000746526 6.30307e-08 3.0932e-08)
(0.000744955 -3.23276e-08 5.58906e-08)
(0.000743789 -2.76209e-07 9.21328e-08)
(0.000742428 -2.63006e-07 2.33579e-07)
(0.00074092 -7.33916e-08 3.44424e-08)
(0.000739448 -7.27754e-08 -2.35281e-08)
(0.000738113 -2.06039e-07 5.79395e-08)
(0.000736939 -5.37629e-07 4.12064e-08)
(0.000735332 -4.282e-07 -1.80925e-08)
(0.000733664 -2.50094e-07 7.01342e-08)
(0.00782882 -0.00997587 0.00108729)
(-0.00396908 0.00576714 0.000489476)
(-0.00208635 0.00578882 -1.24956e-05)
(-0.00137188 -0.00395319 0.000952991)
(0.00654363 -0.0177874 -0.000368261)
(0.00030662 0.00408754 -5.65738e-05)
(0.000509854 -1.93116e-05 1.64699e-06)
(0.00080377 -1.39849e-05 -1.99995e-06)
(0.000774589 2.09994e-05 -2.10143e-07)
(0.000778423 4.73926e-06 -1.26673e-09)
(0.000781659 4.03063e-06 3.48626e-08)
(0.000783195 2.224e-06 4.27761e-08)
(0.000784146 1.38206e-06 4.94431e-08)
(0.000784111 4.69065e-07 4.47206e-08)
(0.000783466 3.01261e-07 4.77647e-08)
(0.000782571 5.8849e-08 5.84478e-08)
(0.0007814 2.04673e-07 4.91319e-08)
(0.000780149 2.18093e-07 4.65949e-08)
(0.000778832 1.72503e-07 8.23986e-08)
(0.000777252 1.48916e-07 2.36716e-08)
(0.000775782 1.91165e-07 9.33859e-08)
(0.000774084 1.85093e-07 4.31473e-08)
(0.000772467 3.2165e-07 9.71441e-08)
(0.000771356 2.98791e-07 3.28786e-08)
(0.000769918 2.01223e-07 -3.37099e-08)
(0.000768096 4.2515e-08 7.87639e-08)
(0.000766401 -8.66802e-08 3.12749e-08)
(0.000764936 -2.51484e-07 4.77993e-08)
(0.000763212 -8.04296e-07 4.2997e-08)
(0.000761332 -5.10163e-07 4.74264e-08)
(0.000760143 -4.56367e-07 1.34872e-07)
(0.000759038 -2.91729e-07 4.63439e-08)
(0.000757621 2.67886e-07 2.17444e-07)
(0.000756447 2.10836e-07 2.67283e-07)
(0.000755014 2.97432e-08 4.24008e-08)
(0.000753355 -1.14198e-07 2.66169e-08)
(0.000751937 -9.99203e-09 3.73755e-08)
(0.00075054 1.39984e-07 5.07273e-08)
(0.000749042 3.40154e-07 1.649e-08)
(0.000747396 5.02147e-07 5.48709e-09)
(0.000745963 1.98684e-07 5.50143e-08)
(0.000744668 -1.68385e-07 6.51537e-08)
(0.000743406 -5.42419e-07 2.49123e-08)
(0.00074242 -3.67618e-07 1.27201e-07)
(0.000741002 -2.1031e-07 4.7771e-08)
(0.000739432 -2.22047e-07 5.54656e-08)
(0.000738125 -4.95398e-08 6.0509e-08)
(0.000736831 -1.72803e-07 4.44791e-08)
(0.00073532 -3.42439e-07 8.93544e-08)
(0.000734328 -2.44413e-07 2.33628e-08)
(0.00576649 -0.0100006 -0.000375)
(0.00560604 0.00178847 -7.93407e-05)
(0.0012255 -0.000209151 0.000162515)
(0.00176039 0.00143626 0.000868412)
(0.000590915 0.00623897 -0.000285595)
(-0.00351079 0.00189526 -0.000327641)
(0.000426175 -0.000106671 3.48463e-05)
(0.000410489 1.03339e-05 -4.90851e-07)
(0.000807633 3.69887e-06 -1.36599e-06)
(0.000758693 -6.99302e-06 -4.24041e-07)
(0.000780148 -3.52e-06 1.89367e-07)
(0.000781567 -2.65541e-06 4.27835e-08)
(0.000783815 -1.73209e-06 5.99891e-08)
(0.000784045 -1.15579e-06 5.4561e-08)
(0.000783474 -7.21014e-07 5.50582e-08)
(0.000782727 -4.23027e-07 5.47947e-08)
(0.000781731 -2.8905e-07 6.23657e-08)
(0.00078036 -1.33065e-07 1.09265e-07)
(0.000778651 -3.44629e-07 1.28353e-07)
(0.000777086 -2.08717e-07 5.08705e-08)
(0.000775767 -1.04365e-07 6.96714e-08)
(0.000774416 -7.26622e-08 4.67324e-08)
(0.0007729 1.30149e-07 1.60459e-08)
(0.000771028 1.01014e-07 -9.34807e-11)
(0.000769259 -1.32275e-07 3.76745e-08)
(0.000767737 -8.49099e-08 9.68969e-08)
(0.000766319 -1.31091e-07 6.02649e-08)
(0.000764517 -6.53794e-08 5.67522e-08)
(0.000763129 -9.51135e-08 -4.5908e-08)
(0.000761957 4.13842e-07 8.79301e-08)
(0.000760572 7.50688e-07 8.79847e-08)
(0.000759574 6.89378e-07 7.11003e-08)
(0.00075813 4.47163e-07 3.163e-07)
(0.000756102 3.89342e-07 1.084e-07)
(0.000754479 8.28803e-08 5.95696e-08)
(0.000753215 1.0692e-07 6.10414e-08)
(0.000751839 6.66365e-08 5.78954e-08)
(0.000750498 2.96589e-09 4.18305e-08)
(0.000749165 1.00826e-07 4.41634e-08)
(0.000747514 2.97807e-08 9.12225e-08)
(0.000745686 -5.43813e-08 6.40456e-08)
(0.00074403 -8.53955e-08 5.90914e-08)
(0.000743543 4.69951e-07 4.42688e-08)
(0.000742847 1.70068e-07 7.77674e-08)
(0.000741106 -7.19461e-08 -7.6807e-08)
(0.00073965 6.6e-08 5.14031e-08)
(0.000738176 2.09416e-07 5.02608e-08)
(0.000736574 9.66478e-08 5.18961e-08)
(0.000735248 2.82077e-08 4.40466e-08)
(0.000734395 6.44094e-08 6.61811e-08)
(-0.00521644 -0.0135274 0.00130987)
(0.00179266 0.00105695 -2.62821e-05)
(0.00863786 -0.00231765 -0.00072071)
(0.00418328 -0.0171195 0.000632492)
(-0.00488036 -4.10099e-05 0.000627399)
(0.00153253 0.00194843 -0.000126828)
(0.00130876 0.000416215 -2.79779e-05)
(0.000407624 -4.01537e-05 -1.15294e-06)
(0.000828959 -3.59136e-05 -1.20346e-06)
(0.000769599 -2.05761e-05 -3.7296e-07)
(0.000787138 -1.1994e-05 1.69608e-07)
(0.000785463 -7.01706e-06 3.7467e-08)
(0.000786042 -4.53843e-06 6.08474e-08)
(0.000785388 -2.68917e-06 5.19627e-08)
(0.00078439 -1.50429e-06 4.88897e-08)
(0.000783116 -8.14025e-07 4.86193e-08)
(0.000781767 -6.42564e-07 4.3102e-08)
(0.000780083 -4.45551e-07 4.74032e-08)
(0.00077874 -4.95562e-07 2.87784e-08)
(0.000777555 -5.89237e-07 3.12701e-08)
(0.000775953 -2.93925e-07 6.80633e-08)
(0.000774378 -3.24422e-07 5.2348e-08)
(0.000772684 -3.29134e-07 3.70781e-08)
(0.000771028 -2.6112e-07 5.14882e-08)
(0.000769685 -1.47922e-07 2.2207e-08)
(0.000768098 4.19405e-08 5.37782e-08)
(0.000766426 2.06927e-07 5.93842e-08)
(0.000764982 3.29007e-07 9.20258e-08)
(0.000763809 8.16578e-07 9.11761e-08)
(0.000762386 6.8496e-07 3.03277e-08)
(0.000760482 7.5858e-07 1.53361e-08)
(0.000758653 7.40833e-07 -1.8071e-08)
(0.000757242 2.19065e-07 4.24032e-08)
(0.000755989 1.8966e-08 4.63676e-08)
(0.00075466 1.59541e-07 5.21476e-08)
(0.000753334 1.09886e-07 4.38296e-08)
(0.000751807 1.04974e-07 6.10404e-08)
(0.000750582 -3.54077e-08 1.1343e-07)
(0.000749075 -4.05443e-07 -7.90336e-09)
(0.000747202 -4.21557e-07 -2.76302e-08)
(0.000745819 -1.08909e-07 5.46247e-08)
(0.000745322 3.51178e-07 2.33897e-08)
(0.000743722 6.42244e-07 3.8135e-08)
(0.000741738 3.26875e-07 1.00895e-08)
(0.000740869 3.53124e-08 4.90761e-08)
(0.000739782 3.75374e-08 4.1027e-08)
(0.000738161 7.38907e-08 7.98865e-08)
(0.000736603 1.28148e-07 3.27222e-08)
(0.000735277 3.06101e-07 4.11821e-08)
(0.000734212 2.24489e-07 5.12575e-08)
(-0.0186393 -0.0972433 -0.00685501)
(-0.000464956 -0.00423176 -0.000248399)
(-0.00437123 -0.00279418 0.00125536)
(0.0209491 0.0231421 0.00175635)
(-0.0302632 -0.0125015 -0.000890337)
(-0.00116489 -0.00298021 -0.000221929)
(0.000809206 -0.000537388 9.77812e-05)
(0.000434173 -5.58733e-05 -1.86964e-06)
(0.000862471 -3.59805e-05 -1.31191e-06)
(0.000788989 -2.10194e-05 -5.11267e-07)
(0.000797246 -1.27183e-05 1.5935e-07)
(0.000790977 -7.97335e-06 -7.37769e-10)
(0.000789279 -4.64663e-06 2.42126e-07)
(0.000787871 -3.05772e-06 5.43747e-08)
(0.000785838 -2.11928e-06 3.01644e-08)
(0.000783816 -1.39455e-06 6.84659e-08)
(0.000782198 -8.06555e-07 4.93608e-08)
(0.000780549 -4.73469e-07 4.43958e-08)
(0.000778475 -3.44485e-09 7.81914e-08)
(0.000777342 3.41208e-07 6.95165e-08)
(0.000776102 1.83881e-07 6.47094e-08)
(0.000774376 2.38689e-07 3.46684e-08)
(0.000772982 7.00605e-08 9.10028e-09)
(0.000771257 1.19941e-07 9.95527e-08)
(0.00076964 1.67367e-07 8.32848e-08)
(0.000768181 -6.71718e-09 4.75824e-08)
(0.000766676 1.25662e-07 6.74505e-08)
(0.000765275 1.27565e-07 1.34774e-10)
(0.000763567 2.01075e-07 -3.66317e-09)
(0.000761876 9.2541e-08 2.49445e-08)
(0.000760634 1.22267e-07 6.52107e-08)
(0.000758894 -2.10239e-07 4.08397e-08)
(0.000757224 1.31906e-07 3.29369e-08)
(0.000756026 7.5744e-08 4.97265e-08)
(0.000754592 1.44554e-07 6.70508e-08)
(0.000753145 -3.65199e-08 4.61579e-08)
(0.000751657 -1.49678e-07 4.12939e-08)
(0.000749861 -8.5437e-08 4.82528e-08)
(0.000748684 -2.33715e-07 1.15034e-07)
(0.000747887 -1.42036e-07 9.86855e-08)
(0.000746652 2.17286e-07 4.95584e-08)
(0.000744966 5.11646e-07 1.52829e-07)
(0.000743508 1.41151e-07 5.68957e-08)
(0.000742084 1.46725e-07 -9.10284e-08)
(0.000740741 1.34201e-07 3.93589e-08)
(0.000739697 -1.08362e-07 4.54553e-08)
(0.000738288 -3.53658e-07 -4.31807e-08)
(0.000736863 -3.2905e-07 -2.70424e-07)
(0.000735362 -2.5445e-07 3.81038e-08)
(0.000733734 9.53704e-08 8.66107e-08)
(0.00446776 -0.00778616 0.00102662)
(-0.00477246 0.00853009 0.00509439)
(-0.00194985 0.00107449 0.00353938)
(0.0195147 -0.0307983 0.000468518)
(-0.0191197 0.0173556 -0.000198599)
(0.00436227 -0.00759182 -1.1678e-05)
(0.000777617 -0.000871878 8.26253e-05)
(0.000468538 -9.37298e-06 -1.80467e-06)
(0.000877658 -1.13581e-05 -1.47943e-06)
(0.000798923 -9.92502e-06 -4.43964e-07)
(0.000803603 -7.13688e-06 1.61453e-07)
(0.00079565 -5.03437e-06 2.60649e-08)
(0.000792248 -3.04085e-06 6.55622e-08)
(0.000788586 -2.15863e-06 4.63795e-08)
(0.000786495 -1.59192e-06 1.4315e-07)
(0.000784774 -1.10593e-06 7.27813e-08)
(0.000782929 -6.8873e-07 5.11419e-08)
(0.000781093 -4.66656e-07 4.47662e-08)
(0.000779761 -2.26044e-07 4.74576e-08)
(0.000777789 4.2737e-07 6.27286e-08)
(0.000775825 1.54032e-07 6.9712e-08)
(0.000774235 3.18456e-07 3.43058e-08)
(0.000772535 2.20605e-07 7.03155e-08)
(0.000771149 1.2988e-07 1.57364e-08)
(0.000769527 1.20787e-07 -3.06034e-08)
(0.000768045 1.16056e-07 1.32107e-08)
(0.000766593 -4.2973e-08 3.81377e-08)
(0.000765074 -1.91115e-07 5.9747e-09)
(0.000763763 -2.10556e-07 9.60233e-08)
(0.000762285 -3.72299e-07 8.05589e-08)
(0.000760103 -5.87445e-07 1.65633e-09)
(0.000758664 -4.08689e-07 -7.7265e-09)
(0.000757599 -2.76318e-07 1.43642e-08)
(0.000756003 -1.63946e-07 5.22117e-08)
(0.000754519 -2.33563e-07 5.23463e-08)
(0.000752966 -1.10836e-07 4.24929e-08)
(0.000751746 -1.04624e-07 6.1034e-08)
(0.000750479 1.10252e-07 5.07226e-08)
(0.000749006 3.60329e-07 1.17255e-07)
(0.000747766 2.88832e-07 6.92375e-08)
(0.000746635 2.24332e-07 4.27262e-08)
(0.000745225 1.33563e-07 -2.42918e-08)
(0.000743265 1.68112e-07 4.262e-09)
(0.00074173 2.70597e-08 5.20179e-08)
(0.000740551 1.07629e-07 3.78221e-08)
(0.000739174 -1.36101e-07 4.38539e-08)
(0.000737889 -5.32828e-07 -3.65919e-07)
(0.00073673 -5.52026e-07 5.78829e-08)
(0.000735808 -4.50222e-07 1.6686e-07)
(0.000734411 -1.82679e-07 1.72671e-07)
(-0.00623007 0.00649709 7.31072e-05)
(0.029513 0.00640411 -0.00103182)
(0.00499769 0.00417765 0.0021744)
(-0.0359893 -0.0216054 -0.00125314)
(0.0205116 -0.0229442 0.00240523)
(0.00372064 -0.000546503 0.000188929)
(0.00101456 0.000444913 0.000176262)
(0.000440576 2.14635e-05 3.51135e-07)
(0.000872047 9.06145e-07 -1.23319e-06)
(0.000794565 -5.54012e-07 -4.76432e-07)
(0.000803457 -1.48154e-06 1.85173e-07)
(0.000796163 -1.09276e-06 3.78097e-08)
(0.000792918 -1.13759e-06 5.49113e-08)
(0.000789711 -6.88133e-07 5.07552e-08)
(0.000787173 -3.21125e-07 5.38648e-08)
(0.000784958 -1.71143e-07 5.25985e-08)
(0.000783006 -2.17986e-07 5.2439e-08)
(0.000781133 -1.2198e-07 7.78061e-08)
(0.000779595 -8.95873e-08 5.36234e-08)
(0.000777817 -4.26131e-07 5.94038e-08)
(0.000775964 -1.50817e-07 5.0306e-08)
(0.000774457 -1.78111e-07 4.67818e-08)
(0.000772745 1.65526e-08 2.72272e-08)
(0.000771131 4.95451e-09 4.23571e-08)
(0.000769622 3.74229e-08 1.23324e-07)
(0.000767976 1.4987e-07 1.88917e-07)
(0.000766292 -6.45679e-08 4.96643e-08)
(0.000765066 -8.91757e-08 7.11264e-08)
(0.000763343 -4.35468e-07 4.00307e-08)
(0.000761409 -7.20319e-07 4.39932e-08)
(0.000760593 -5.26941e-07 1.28475e-07)
(0.000759288 -1.0791e-07 8.81685e-08)
(0.000757533 -1.19972e-07 5.52452e-08)
(0.000756083 -1.02777e-07 1.90159e-08)
(0.00075466 -9.48309e-08 1.49239e-07)
(0.000753308 2.603e-08 1.10618e-07)
(0.000751933 1.01971e-07 5.12831e-08)
(0.000750442 6.99928e-08 5.4802e-08)
(0.000748906 1.716e-07 4.37974e-08)
(0.000747715 3.10921e-07 1.16135e-08)
(0.000746456 3.68225e-08 4.06635e-08)
(0.000744894 -2.39067e-07 1.8513e-09)
(0.000743374 -3.35133e-07 5.94835e-08)
(0.000742008 -1.40156e-07 4.87541e-08)
(0.000740538 -1.22224e-07 4.43859e-10)
(0.000738899 -1.4648e-08 4.73479e-08)
(0.000737773 -4.5942e-08 1.3457e-08)
(0.000736972 -2.89918e-07 7.11429e-08)
(0.000735833 -1.42341e-07 5.88574e-08)
(0.000734523 -2.71339e-07 7.01418e-08)
(0.000854373 0.00846461 -0.000197221)
(0.00477598 0.00257578 0.00211337)
(0.00332586 0.00152897 0.00139424)
(0.00602784 0.00766727 -0.000729106)
(-0.00712911 -0.0159602 0.000490249)
(0.00187725 0.00414255 0.000550134)
(0.00110049 -0.00041354 -2.15886e-05)
(0.000480336 -1.33559e-05 1.21434e-06)
(0.00086852 -9.50134e-06 -1.26592e-06)
(0.000795834 4.13892e-06 -4.49581e-07)
(0.000802962 2.02571e-06 1.67564e-07)
(0.000796105 1.93073e-06 3.37578e-08)
(0.00079277 1.30338e-06 5.54176e-08)
(0.000789617 8.65654e-07 4.75359e-08)
(0.000787147 5.9063e-07 4.79342e-08)
(0.000784906 4.2272e-07 5.05964e-08)
(0.000782992 3.86103e-07 1.1873e-07)
(0.000781254 2.38494e-07 5.95118e-08)
(0.000779382 2.44434e-07 8.41373e-08)
(0.000777714 8.24002e-09 2.89786e-08)
(0.000776136 3.74036e-08 4.82688e-08)
(0.000774445 -1.5349e-09 6.06722e-08)
(0.000772765 -1.67101e-07 4.15047e-08)
(0.000771175 -9.80488e-08 4.91065e-08)
(0.000769708 -1.95904e-07 7.08517e-08)
(0.000767918 -2.7649e-07 3.02351e-08)
(0.000766295 -4.22316e-08 3.53579e-08)
(0.000764614 4.56703e-08 5.03499e-08)
(0.000762979 -1.71077e-07 5.00831e-08)
(0.000762177 3.28189e-07 7.13974e-08)
(0.000760873 4.82172e-07 9.04354e-08)
(0.000759176 2.08425e-07 3.23565e-08)
(0.000757607 3.10724e-07 4.78694e-08)
(0.000756036 1.27233e-07 4.67624e-08)
(0.000754681 1.04606e-07 4.4985e-08)
(0.000753213 -3.77842e-08 4.16809e-08)
(0.000751802 -7.3689e-08 5.31469e-08)
(0.000750566 -1.85319e-07 2.74599e-08)
(0.000749306 7.15677e-08 3.81269e-08)
(0.000747597 1.40586e-07 6.39243e-08)
(0.000745947 -6.35168e-08 1.46239e-08)
(0.000744761 -1.12621e-07 4.7765e-08)
(0.000743391 -1.60374e-07 5.38242e-08)
(0.000741998 -1.29559e-07 4.87658e-08)
(0.000740709 -7.39488e-08 5.35541e-08)
(0.000739271 9.42479e-08 4.39349e-08)
(0.000737546 4.82377e-07 5.07302e-08)
(0.000736612 5.57942e-07 7.0876e-08)
(0.00073584 9.99846e-08 3.84738e-08)
(0.000734928 -4.30974e-08 -4.1752e-08)
(-0.0225661 -0.00208839 0.00514176)
(0.0139639 0.0202346 0.000870582)
(0.000879811 0.0315946 -0.00156126)
(0.0155358 0.014104 0.0013936)
(-0.00682739 0.0180617 0.00435038)
(0.00983544 0.00390261 -0.000221752)
(0.000522671 7.10496e-05 4.20667e-05)
(0.00088795 8.21703e-05 -1.97951e-06)
(0.000817235 1.14864e-05 -4.39499e-07)
(0.000808751 1.51441e-05 7.92744e-08)
(0.000800677 8.63045e-06 3.4458e-08)
(0.000795245 5.98308e-06 -5.33585e-08)
(0.000791573 3.8166e-06 3.88201e-08)
(0.00078881 2.13941e-06 4.93889e-08)
(0.000786613 1.4729e-06 5.21761e-08)
(0.000784698 1.09658e-06 1.14643e-07)
(0.000782772 7.76475e-07 7.78367e-08)
(0.000780953 4.17511e-07 5.30452e-07)
(0.000779305 2.27354e-07 3.23264e-08)
(0.000777557 2.33861e-07 1.8524e-08)
(0.000775952 6.73954e-08 4.99398e-08)
(0.000774203 -1.90059e-07 5.38034e-08)
(0.000772625 -1.79703e-07 6.26891e-08)
(0.000771098 -1.92659e-07 5.19693e-08)
(0.000769401 -2.17752e-07 1.93421e-08)
(0.00076817 -3.01718e-07 5.85074e-08)
(0.000766697 -8.06728e-08 3.31529e-08)
(0.000764907 -2.86505e-08 4.68424e-08)
(0.000763696 1.91071e-07 9.57655e-08)
(0.000762224 4.84501e-07 4.08356e-08)
(0.000760441 3.4413e-07 1.34068e-07)
(0.000759071 1.98863e-07 6.29158e-08)
(0.00075743 5.76637e-08 6.33572e-08)
(0.000755824 -4.17064e-08 -2.13764e-08)
(0.000754454 -1.18796e-07 2.73989e-08)
(0.000753086 -2.72101e-07 7.51826e-08)
(0.000751751 -1.46046e-07 6.82647e-08)
(0.000750625 -1.76646e-07 5.68757e-08)
(0.000749314 -4.16774e-07 8.49388e-08)
(0.000747546 -6.37024e-07 3.41992e-08)
(0.000746141 -2.62757e-07 4.60851e-08)
(0.000744775 -1.54856e-07 -1.95457e-08)
(0.000743355 2.39756e-10 5.48952e-08)
(0.000742118 8.63694e-08 4.04898e-08)
(0.000740819 1.33361e-07 4.85042e-08)
(0.000739594 1.29785e-07 4.77316e-08)
(0.00073835 3.96223e-07 6.92484e-08)
(0.00073649 1.05995e-06 2.73684e-08)
(0.000735081 7.96784e-07 -6.57785e-08)
(0.00073445 3.61654e-07 8.88904e-08)
(0.0152745 0.00603244 -0.00063103)
(0.0267006 0.00768317 -0.00207395)
(-0.00495415 0.00780748 -0.00355151)
(-0.0188533 0.00824555 -0.00131873)
(-0.00906377 -0.00711423 0.00100471)
(0.0131769 -0.00471529 -9.74523e-05)
(0.000389032 6.91036e-06 -2.18549e-07)
(0.000806478 6.01477e-05 -2.43837e-06)
(0.000791502 3.58806e-05 -6.06004e-08)
(0.000792234 2.16205e-05 3.97229e-08)
(0.000791391 1.30747e-05 8.2092e-08)
(0.000790014 7.89673e-06 7.56832e-08)
(0.000787918 4.89385e-06 5.15181e-08)
(0.000786658 3.51309e-06 6.9534e-08)
(0.000785825 2.20432e-06 5.13536e-08)
(0.000784023 1.43839e-06 5.20608e-08)
(0.000782135 7.40517e-07 4.56454e-08)
(0.000780562 4.55621e-07 2.92964e-07)
(0.000779148 3.04669e-07 8.96111e-08)
(0.000777511 4.71048e-09 3.65071e-08)
(0.000775605 -8.86752e-08 3.40998e-08)
(0.000774137 -1.77592e-07 6.24309e-08)
(0.000772763 -4.60198e-08 5.85968e-08)
(0.00077113 -6.95018e-08 4.7355e-08)
(0.000769574 2.18164e-08 -3.01919e-08)
(0.000768092 7.59781e-08 -7.26901e-08)
(0.000766638 -3.50419e-08 4.56596e-08)
(0.000764953 6.79212e-08 4.23165e-08)
(0.000763619 3.69351e-07 1.10818e-08)
(0.000762365 -1.30686e-07 1.15916e-07)
(0.000760513 -1.9694e-07 7.13649e-08)
(0.000758816 -2.48841e-07 1.89129e-08)
(0.000757306 -5.21356e-07 2.59015e-08)
(0.000755817 -1.93089e-07 1.3821e-07)
(0.000754395 -6.03275e-08 6.43842e-08)
(0.00075318 1.52933e-07 3.23144e-08)
(0.000751922 8.33307e-08 1.00387e-08)
(0.000750229 -2.95094e-08 4.47866e-08)
(0.000748734 -3.66607e-07 5.50874e-09)
(0.000747793 -5.10007e-07 6.40989e-08)
(0.000746553 -2.5059e-07 5.81096e-08)
(0.000745091 -2.03735e-07 2.74566e-08)
(0.000743693 -1.07563e-07 3.53009e-08)
(0.000742163 1.43242e-07 5.70425e-08)
(0.000740763 1.41317e-07 -3.70925e-08)
(0.000739597 2.26362e-07 1.80118e-08)
(0.000738704 2.61009e-08 8.00443e-08)
(0.000737105 3.87392e-08 2.03539e-08)
(0.000734952 3.86575e-07 -3.9388e-08)
(0.000733483 2.45701e-07 6.33801e-08)
(-0.00916045 -0.000281118 0.00561293)
(-0.00720529 -0.00262472 0.00143528)
(0.0103309 0.000826997 -0.000865302)
(-0.0291985 -0.0115517 0.00334582)
(-0.00415372 -0.0052213 0.000433107)
(0.000484516 0.00685839 -0.00147527)
(0.00120206 0.000111814 1.98306e-05)
(0.00129409 5.7514e-05 3.34834e-07)
(0.0012783 4.11682e-05 3.17104e-07)
(0.00129983 2.71338e-05 3.36228e-07)
(0.00130674 1.80254e-05 3.56955e-07)
(0.00130997 1.12865e-05 3.29996e-07)
(0.00131218 7.19667e-06 2.49424e-07)
(0.00131135 5.21288e-06 3.68285e-07)
(0.00130912 3.1977e-06 3.38567e-07)
(0.00130727 1.74773e-06 4.47237e-07)
(0.00130512 1.05915e-06 3.31469e-07)
(0.00130324 6.34563e-07 3.42751e-07)
(0.00130042 3.62809e-07 2.7799e-07)
(0.00129768 9.14229e-08 5.68411e-07)
(0.0012955 7.32976e-08 3.18368e-07)
(0.00129298 4.09348e-07 3.71983e-07)
(0.00129048 5.0823e-08 3.46571e-07)
(0.0012879 1.84676e-08 4.24594e-07)
(0.00128526 3.59385e-07 3.07536e-07)
(0.00128277 5.46927e-07 2.13424e-07)
(0.00128042 3.28442e-07 2.7745e-07)
(0.00127835 1.17684e-07 3.32611e-07)
(0.00127507 2.33997e-07 3.46951e-07)
(0.00127186 -4.86248e-07 3.84407e-07)
(0.0012698 -1.16943e-06 2.38465e-07)
(0.00126704 -9.60933e-07 9.6602e-08)
(0.00126511 -8.08423e-07 3.34339e-07)
(0.00126338 -4.38427e-07 4.1185e-07)
(0.0012609 6.63183e-08 3.05222e-07)
(0.00125817 3.60809e-07 3.73174e-07)
(0.00125521 2.62829e-07 2.94983e-07)
(0.00125268 3.80659e-07 3.02796e-07)
(0.00125056 7.30986e-07 2.30373e-07)
(0.0012489 7.30432e-07 4.34623e-07)
(0.00124681 1.20437e-07 2.75689e-07)
(0.0012442 -4.49282e-08 2.26992e-07)
(0.0012424 -5.45386e-07 3.64301e-07)
(0.00124004 -4.62292e-07 6.72449e-07)
(0.00123746 -1.78937e-07 3.247e-07)
(0.00123506 -1.7411e-07 2.60529e-07)
(0.0012328 -3.12657e-07 2.89028e-07)
(0.00123089 -8.20566e-07 2.95249e-07)
(0.00122819 -6.83926e-07 2.18417e-07)
(0.00122538 -4.41223e-07 3.45545e-07)
(-0.00302979 -0.00790967 0.000490023)
(-0.0221655 -0.0147457 0.0154304)
(0.0014138 -0.00646868 -0.00229186)
(-0.00791684 0.00668758 -0.000375023)
(0.000444847 0.0179934 -0.00209385)
(0.00357491 0.00786984 -0.000280211)
(0.00146388 -3.64072e-05 -4.73216e-06)
(0.00132853 -1.93252e-05 3.48195e-07)
(0.00128557 3.75927e-05 4.12791e-07)
(0.00129527 9.93898e-06 3.2498e-07)
(0.00130258 8.10334e-06 3.26578e-07)
(0.00130625 4.64037e-06 3.27746e-07)
(0.0013085 2.91503e-06 3.28342e-07)
(0.00130884 1.18205e-06 3.28014e-07)
(0.00130802 7.44241e-07 3.28124e-07)
(0.00130666 2.36192e-07 2.72449e-07)
(0.0013048 4.0793e-07 3.26345e-07)
(0.00130272 3.45717e-07 1.47413e-07)
(0.00130055 2.89551e-07 3.68509e-07)
(0.00129801 2.67651e-07 2.90832e-07)
(0.00129557 3.41499e-07 3.50742e-07)
(0.00129276 3.07262e-07 3.50661e-07)
(0.00129004 5.98957e-07 3.34424e-07)
(0.0012882 5.56108e-07 2.85952e-07)
(0.00128584 4.16043e-07 6.24901e-08)
(0.00128273 1.35879e-07 3.77803e-07)
(0.00127989 -7.6774e-08 3.03278e-07)
(0.00127749 -4.06158e-07 3.20064e-07)
(0.00127464 -1.36259e-06 3.58558e-07)
(0.00127154 -8.55097e-07 2.79482e-07)
(0.0012696 -7.38973e-07 3.54427e-07)
(0.00126776 -4.65314e-07 2.96399e-07)
(0.00126543 5.91487e-07 6.96416e-07)
(0.00126347 4.81931e-07 9.03966e-07)
(0.00126105 9.84503e-08 2.73426e-07)
(0.00125825 -1.56004e-07 2.82754e-07)
(0.00125588 1.54544e-08 3.06911e-07)
(0.00125361 2.9633e-07 3.63617e-07)
(0.00125103 6.80483e-07 3.09959e-07)
(0.00124824 8.47854e-07 3.14596e-07)
(0.00124589 3.22544e-07 3.25237e-07)
(0.00124366 -2.55386e-07 3.55429e-07)
(0.00124158 -8.35007e-07 2.36455e-07)
(0.00124002 -7.12829e-07 5.07898e-07)
(0.00123768 -3.72415e-07 3.19343e-07)
(0.00123511 -3.98081e-07 2.90064e-07)
(0.00123291 -2.91563e-08 3.64852e-07)
(0.00123068 -2.49003e-07 3.03545e-07)
(0.00122818 -5.39556e-07 3.55797e-07)
(0.0012265 -4.12333e-07 2.07444e-07)
(-5.60302e-05 0.000314768 -0.0019607)
(0.00115832 -0.00642375 1.6158e-06)
(-0.0142398 0.00496859 0.00761662)
(0.0175999 0.00843137 0.0201507)
(0.00897449 0.0112161 -0.00143761)
(0.00210182 -0.00161276 -0.00137685)
(0.00108393 0.000134731 5.51697e-05)
(0.00121402 2.57008e-05 6.31097e-07)
(0.00134269 4.18497e-06 -1.22763e-07)
(0.00126295 -1.23735e-05 3.15151e-07)
(0.00130004 -6.15192e-06 3.26066e-07)
(0.00130343 -4.50626e-06 3.26455e-07)
(0.00130782 -2.90398e-06 3.27965e-07)
(0.00130862 -1.92681e-06 3.28762e-07)
(0.00130793 -1.20441e-06 3.28644e-07)
(0.00130684 -7.28941e-07 3.25669e-07)
(0.00130526 -5.11488e-07 3.26973e-07)
(0.00130309 -2.80468e-07 4.60771e-07)
(0.00130033 -5.9154e-07 4.30219e-07)
(0.00129775 -3.56089e-07 3.27993e-07)
(0.00129555 -2.00685e-07 2.94836e-07)
(0.0012933 -1.24168e-07 3.22296e-07)
(0.00129079 2.02977e-07 3.15707e-07)
(0.00128767 1.99193e-07 1.84794e-08)
(0.00128473 -2.48354e-07 3.12001e-07)
(0.00128216 -1.47279e-07 3.80182e-07)
(0.00127974 -1.88362e-07 3.39549e-07)
(0.00127675 -6.42152e-08 3.10518e-07)
(0.00127452 -1.14831e-07 1.37771e-07)
(0.00127265 7.33647e-07 3.31948e-07)
(0.0012703 1.25957e-06 3.19899e-07)
(0.00126871 1.14906e-06 3.21754e-07)
(0.00126629 7.40679e-07 8.19239e-07)
(0.00126276 6.28252e-07 4.00675e-07)
(0.0012601 1.10986e-07 3.33505e-07)
(0.00125806 1.29045e-07 3.35335e-07)
(0.00125577 1.02147e-07 2.72411e-07)
(0.00125351 9.79935e-09 3.22771e-07)
(0.00125125 1.09985e-07 3.22688e-07)
(0.00124844 3.08966e-08 3.93235e-07)
(0.00124543 -7.32845e-08 3.4174e-07)
(0.00124275 -8.59574e-08 3.42296e-07)
(0.00124183 8.53427e-07 2.75928e-07)
(0.00124063 4.35569e-07 2.65846e-07)
(0.00123786 6.03702e-08 1.85088e-07)
(0.00123549 2.1576e-07 3.00921e-07)
(0.00123299 3.5609e-07 3.09349e-07)
(0.00123026 2.19721e-07 1.72105e-07)
(0.00122799 6.97687e-08 3.03854e-07)
(0.00122656 1.13789e-07 2.88099e-07)
(-0.02106 -0.0465945 -0.0475587)
(-0.00821766 0.00322592 8.60873e-05)
(0.00165323 -0.00520334 -0.000874984)
(0.0123861 -0.0140143 0.00186601)
(-0.0014212 0.00330025 -0.00245955)
(0.00622561 -0.0256286 -0.00151483)
(0.000616885 -0.00187878 -0.000542228)
(0.00122214 -0.000131087 1.84663e-07)
(0.0013817 -6.33251e-05 2.81509e-07)
(0.00128274 -3.65015e-05 3.79746e-07)
(0.00131252 -2.13973e-05 3.29649e-07)
(0.00131037 -1.25857e-05 3.04176e-07)
(0.00131176 -8.11248e-06 3.25361e-07)
(0.00131099 -4.82838e-06 3.29369e-07)
(0.00130953 -2.71649e-06 3.28683e-07)
(0.00130753 -1.48381e-06 3.28394e-07)
(0.00130537 -1.15298e-06 3.27748e-07)
(0.00130263 -7.67308e-07 3.00408e-07)
(0.00130046 -8.5214e-07 2.94159e-07)
(0.00129851 -9.4988e-07 2.87936e-07)
(0.00129586 -5.18255e-07 3.33942e-07)
(0.00129327 -5.42038e-07 3.27418e-07)
(0.00129044 -5.99024e-07 2.78624e-07)
(0.00128764 -4.69743e-07 3.64075e-07)
(0.00128541 -2.94875e-07 2.66617e-07)
(0.00128281 4.40218e-09 2.75016e-07)
(0.00128 3.37109e-07 3.83146e-07)
(0.00127758 6.11172e-07 4.33766e-07)
(0.00127563 1.45491e-06 3.60974e-07)
(0.00127326 1.21641e-06 4.80364e-07)
(0.00127011 1.29514e-06 3.00126e-07)
(0.0012671 1.29365e-06 1.45673e-07)
(0.00126477 3.53619e-07 3.09975e-07)
(0.00126268 2.49398e-08 3.14703e-07)
(0.00126042 2.69788e-07 2.79228e-07)
(0.00125824 1.75803e-07 2.99773e-07)
(0.00125573 1.3197e-07 3.13837e-07)
(0.00125362 -7.6069e-08 4.07887e-07)
(0.00125106 -6.83102e-07 1.8432e-07)
(0.00124801 -7.10481e-07 2.62743e-07)
(0.00124575 -1.63436e-07 3.04868e-07)
(0.00124482 5.97634e-07 2.66435e-07)
(0.00124222 1.07284e-06 3.57556e-07)
(0.00123903 6.36606e-07 2.10475e-07)
(0.0012374 1.37653e-07 2.90793e-07)
(0.00123548 1.04684e-07 3.08228e-07)
(0.00123291 1.23336e-07 3.71957e-07)
(0.00123032 2.18022e-07 2.22205e-07)
(0.00122804 4.79552e-07 3.06564e-07)
(0.00122627 3.90641e-07 2.38334e-07)
(-0.0394075 -0.0744355 0.0222714)
(-0.0228751 -0.0249481 -0.00415346)
(0.0170917 0.00103448 -0.00160524)
(0.0124467 -0.0412762 -0.0187996)
(-0.000341137 0.0225181 -0.00455835)
(0.00523845 -0.00565029 0.00186992)
(0.00105103 -0.00305119 -7.54395e-05)
(0.00130172 -0.000168973 6.49777e-07)
(0.00143808 -6.40988e-05 6.34433e-07)
(0.00131604 -3.80815e-05 3.9272e-07)
(0.00133019 -2.33145e-05 3.51812e-07)
(0.00132019 -1.4706e-05 4.00913e-07)
(0.00131761 -8.64724e-06 4.90497e-07)
(0.00131542 -5.67827e-06 3.30946e-07)
(0.00131214 -3.90662e-06 3.29057e-07)
(0.00130881 -2.56571e-06 3.97113e-07)
(0.00130616 -1.49702e-06 3.2859e-07)
(0.00130347 -9.12166e-07 3.23777e-07)
(0.0013001 -9.73203e-08 3.2902e-07)
(0.00129817 4.38105e-07 2.95094e-07)
(0.00129607 2.41261e-07 3.58205e-07)
(0.0012932 3.0979e-07 3.02005e-07)
(0.00129088 7.50659e-08 3.09576e-07)
(0.00128805 1.45298e-07 3.69144e-07)
(0.00128533 2.66649e-07 2.52687e-07)
(0.00128295 -8.9073e-08 3.45954e-07)
(0.00128049 1.88409e-07 3.73909e-07)
(0.00127814 2.38586e-07 2.49003e-07)
(0.00127526 4.11729e-07 2.55875e-07)
(0.00127244 2.40838e-07 2.9879e-07)
(0.00127038 2.36542e-07 2.97756e-07)
(0.00126752 -3.15598e-07 3.06025e-07)
(0.0012647 2.73478e-07 2.90667e-07)
(0.00126265 1.50761e-07 3.17837e-07)
(0.00126029 2.56095e-07 3.26875e-07)
(0.00125789 -5.66445e-08 3.14396e-07)
(0.00125546 -2.65009e-07 3.38833e-07)
(0.00125249 -2.12538e-07 3.14443e-07)
(0.00125046 -4.14203e-07 4.58515e-07)
(0.0012491 -2.54499e-07 3.20278e-07)
(0.00124706 3.32679e-07 3.16944e-07)
(0.00124429 7.8123e-07 5.33572e-07)
(0.00124188 2.08348e-07 2.90962e-07)
(0.00123945 1.78818e-07 -1.97841e-07)
(0.00123719 8.26509e-08 3.07129e-07)
(0.00123547 -2.32432e-07 3.07576e-07)
(0.00123313 -6.44904e-07 1.01482e-07)
(0.0012307 -6.57468e-07 -3.68161e-07)
(0.0012282 -4.09054e-07 3.40126e-07)
(0.00122548 1.68695e-07 3.96591e-07)
(-0.0378871 -0.0161929 -0.00148328)
(0.0278713 -0.000424369 -0.0675568)
(0.000772656 -0.00484802 -0.0466733)
(-0.0420707 -0.0468987 -0.0142789)
(0.032817 0.0110758 0.00651314)
(-0.000576102 -0.00676072 -0.00101644)
(0.00194388 -0.00362437 -3.54119e-05)
(0.00139055 -3.77275e-05 1.61382e-06)
(0.0014641 -2.5242e-05 6.01603e-07)
(0.00133412 -2.05181e-05 3.93234e-07)
(0.00134201 -1.44407e-05 2.95189e-07)
(0.00132887 -9.9825e-06 2.92772e-07)
(0.00132315 -6.06941e-06 3.62552e-07)
(0.00131698 -4.21691e-06 3.31521e-07)
(0.00131346 -3.04764e-06 5.93209e-07)
(0.00131058 -2.08908e-06 3.34287e-07)
(0.00130746 -1.29145e-06 3.28299e-07)
(0.00130439 -8.67541e-07 3.23474e-07)
(0.00130215 -4.58415e-07 3.27217e-07)
(0.00129893 5.84677e-07 3.86739e-07)
(0.0012957 1.92063e-07 3.59176e-07)
(0.00129306 4.63019e-07 3.09162e-07)