/*--------------------------------*- C++ -*----------------------------------*\
| =========                 |                                                 |
| \\      /  F ield         | OpenFOAM: The Open Source CFD Toolbox           |
|  \\    /   O peration     | Version:  5.0                                   |
|   \\  /    A nd           | Web:      www.OpenFOAM.org                      |
|    \\/     M anipulation  |                                                 |
\*---------------------------------------------------------------------------*/
FoamFile
{
    version     2.0;
    format      ascii;
    class       surfaceVectorField;
    location    "1.8";
    object      Uf;
}
// * * * * * * * * * * * * * * * * * * * * * * * * * * * * * * * * * * * * * //

dimensions      [0 1 -1 0 0 0 0];

internalField   nonuniform List<vector> 
27583
(
(-0.0342908 -0.0019462 0.000859269)
(-0.00301639 -0.0253045 0.000763796)
(-0.00895317 -0.00215865 0.00533349)
(0.00647309 -0.0101956 0.000431293)
(0.00173854 -0.0135889 -0.000251312)
(0.00649244 -0.0230339 -0.000158603)
(0.0149487 -0.0230042 -0.00117682)
(-0.0146846 0.00720301 -0.000150963)
(-0.0149485 8.62406e-05 0.000589946)
(-0.0155852 0.00987775 0.00127943)
(-0.0161065 0.0329718 -0.00361861)
(-0.00409244 -0.00355617 0.00725153)
(-0.0108396 0.0142453 -0.0160963)
(-0.0211594 0.0108095 0.016072)
(0.0152587 -0.00281159 -0.00058962)
(0.00422308 -0.001347 0.000614086)
(0.0136303 -0.00449748 0.000711544)
(0.00072556 -0.0128993 0.0011027)
(0.000207366 0.00643646 -0.000321361)
(0.00695974 0.00383213 -3.47444e-05)
(-0.0056551 -0.00145812 -0.000474763)
(-0.0055443 0.00565461 0.000132029)
(-0.00159637 -0.000561235 -0.000245038)
(-0.00362449 -0.00166363 -0.000103283)
(-0.00487374 5.96233e-05 -0.000147384)
(-0.00366814 0.00131736 -0.00042809)
(0.000343462 3.34903e-05 8.27778e-06)
(0.00044569 3.58441e-05 -1.06663e-06)
(0.000473952 -9.038e-06 -9.27339e-07)
(0.000793482 6.67515e-05 3.82553e-06)
(0.000237911 1.34455e-05 2.38378e-05)
(0.000581271 7.33049e-05 2.6394e-05)
(0.000491916 1.44687e-05 4.07557e-05)
(0.000825903 2.58187e-05 -8.99032e-07)
(0.000856624 2.22377e-05 -1.8212e-06)
(0.00112953 4.27181e-05 -1.45757e-06)
(0.000581357 3.15807e-05 -4.34863e-06)
(0.000614084 1.06149e-05 -3.68606e-06)
(0.000954935 6.17982e-05 -4.40237e-06)
(0.0010402 1.01758e-05 -3.94124e-06)
(0.000817881 1.7039e-05 -4.16869e-10)
(0.000817123 2.68636e-05 -1.80691e-07)
(0.00108506 2.90955e-05 1.4224e-07)
(0.000813675 1.09471e-05 1.06202e-07)
(0.000813426 1.44411e-05 1.35623e-07)
(0.00108482 1.84119e-05 1.99251e-07)
(0.000809406 7.10643e-06 7.91992e-08)
(0.00080945 9.78611e-06 6.95838e-08)
(0.00107922 1.21453e-05 1.76749e-07)
(0.000806665 4.51952e-06 2.52875e-08)
(0.000806425 6.3173e-06 4.44781e-08)
(0.00107506 7.64407e-06 1.7125e-07)
(0.000804451 2.9569e-06 2.6533e-08)
(0.000804361 4.19035e-06 2.07777e-08)
(0.00107242 4.90304e-06 1.78394e-07)
(0.000802188 1.95377e-06 5.14213e-08)
(0.000802413 2.38462e-06 5.14874e-08)
(0.00106957 3.31089e-06 2.0393e-07)
(0.000800082 1.23475e-06 6.04203e-08)
(0.000800625 1.48617e-06 4.81808e-08)
(0.00106663 2.12311e-06 1.78326e-07)
(0.000798452 7.25297e-07 6.42044e-08)
(0.000798909 1.24232e-06 6.21932e-08)
(0.00106426 1.28791e-06 1.73994e-07)
(0.000797029 4.4433e-07 6.39391e-08)
(0.000797371 5.21839e-07 5.337e-08)
(0.00106226 7.16834e-07 1.75436e-07)
(0.000795174 1.75627e-07 3.52914e-08)
(0.000795874 7.84837e-08 8.11069e-08)
(0.00106021 5.17966e-07 1.60816e-07)
(0.000793391 -1.47827e-08 3.06474e-08)
(0.000794331 2.48841e-06 5.71969e-08)
(0.00105766 2.56868e-09 6.47577e-08)
(0.000792057 3.47478e-08 5.47951e-08)
(0.000792893 3.14065e-08 4.43097e-08)
(0.00105559 -2.20666e-09 1.76647e-07)
(0.00079058 1.12531e-07 5.47926e-08)
(0.000791364 1.02098e-07 6.47172e-08)
(0.00105385 1.20046e-07 1.88545e-07)
(0.000788878 1.43275e-07 6.81165e-08)
(0.000789743 1.7195e-07 6.20591e-08)
(0.0010516 2.41677e-07 1.74401e-07)
(0.000787632 1.10011e-07 7.22847e-08)
(0.000788221 -8.18472e-07 1.39313e-07)
(0.00104964 2.16153e-07 2.11047e-07)
(0.000786014 1.8599e-07 6.83748e-08)
(0.000786904 -3.27006e-08 6.39544e-08)
(0.00104775 1.27707e-07 1.92379e-07)
(0.000784896 3.25958e-07 3.05192e-08)
(0.000785535 -6.8104e-07 5.02927e-08)
(0.00104592 4.18166e-07 2.10954e-07)
(0.000783034 2.6917e-07 2.44541e-08)
(0.000783879 -8.25748e-07 8.50771e-08)
(0.0010439 5.26552e-07 1.6082e-07)
(0.000781717 1.40552e-07 5.11034e-08)
(0.000782295 -1.92013e-08 4.95762e-08)
(0.00104176 2.64464e-07 1.82778e-07)
(0.000780232 1.60832e-07 6.7464e-08)
(0.000780999 5.13153e-08 4.76607e-08)
(0.00104008 1.40029e-07 1.72479e-07)
(0.0007787 3.76955e-08 1.18181e-07)
(0.00077936 -1.66147e-07 7.59507e-08)
(0.00103789 2.73645e-07 1.16913e-07)
(0.000777367 -3.01514e-07 1.15854e-07)
(0.000777732 1.43896e-07 8.62021e-08)
(0.00103586 -2.30176e-07 1.34612e-07)
(0.000775469 -4.86699e-07 6.29735e-08)
(0.000776345 -6.98811e-07 -2.33227e-08)
(0.00103385 -6.78685e-07 3.60816e-07)
(0.00077425 -4.53334e-07 6.38531e-08)
(0.000774864 -6.30114e-07 3.20086e-08)
(0.00103161 -7.02203e-07 3.15059e-07)
(0.000772633 -2.48981e-07 6.56642e-08)
(0.000773598 -1.7846e-07 1.04502e-07)
(0.00102979 -5.29763e-07 1.81406e-07)
(0.000771747 -3.1876e-08 4.59704e-08)
(0.000772434 -8.28295e-07 7.36893e-08)
(0.00102828 -1.38884e-07 1.87504e-07)
(0.000770168 3.18551e-08 5.99852e-08)
(0.000770964 6.84762e-08 4.58298e-08)
(0.00102661 7.92099e-08 1.6954e-07)
(0.000768581 1.41254e-07 4.34859e-08)
(0.000769385 -2.37453e-08 8.05422e-08)
(0.00102445 8.07826e-08 1.25892e-07)
(0.000766658 2.76588e-07 1.67312e-08)
(0.000767825 9.1509e-09 2.41132e-08)
(0.00102203 3.45087e-07 1.24958e-07)
(0.00076522 4.1176e-07 5.73181e-08)
(0.000766299 5.1078e-07 1.50485e-08)
(0.00101969 4.01678e-07 1.24689e-07)
(0.000764775 3.55505e-07 8.32272e-08)
(0.000764958 -1.94642e-06 7.29003e-08)
(0.00101853 7.20779e-07 2.05019e-07)
(0.000762979 8.6887e-08 5.34305e-08)
(0.000763541 3.1205e-07 5.01334e-08)
(0.00101717 2.85473e-07 1.75437e-07)
(0.00076142 -2.64711e-08 5.37285e-08)
(0.000762076 1.50801e-08 4.41708e-08)
(0.00101484 6.53195e-09 1.81791e-07)
(0.000760146 -4.28881e-07 7.69334e-08)
(0.000760478 3.11746e-08 6.63879e-08)
(0.00101282 -5.44201e-08 1.54236e-07)
(0.000759316 -7.23298e-07 3.87708e-08)
(0.000759311 1.72237e-06 7.83232e-08)
(0.0010117 -1.03301e-06 1.3877e-07)
(0.000756944 -4.87318e-07 1.42188e-08)
(0.000758205 2.54439e-06 4.28106e-08)
(0.00100945 -7.98014e-07 7.46376e-08)
(0.000755684 -2.4127e-07 2.72306e-08)
(0.000756658 -3.58039e-07 4.41853e-08)
(0.00100697 -4.39408e-07 1.67512e-07)
(0.000754283 -6.91497e-08 4.06821e-08)
(0.000755177 2.02798e-07 4.4312e-08)
(0.00100524 -2.02482e-07 1.24717e-07)
(0.000753415 -7.4597e-08 1.1044e-07)
(0.000753834 -8.42056e-07 6.33373e-08)
(0.00100364 -1.81805e-08 1.6958e-07)
(0.000751918 -2.76281e-07 1.10071e-07)
(0.000752536 1.22123e-07 1.05828e-07)
(0.00100224 -2.35992e-07 1.70469e-07)
(0.000750196 -3.90618e-07 2.84171e-08)
(0.000751017 -4.17024e-07 -1.02584e-08)
(0.00099994 -5.34036e-07 2.22184e-07)
(0.00074973 9.43879e-07 5.63463e-08)
(0.000997783 -4.94714e-07 1.0284e-07)
(0.000640043 -0.00232875 0.000416731)
(0.0059017 -0.00810107 0.000482934)
(0.00113743 -0.00820755 0.000193643)
(-0.00440464 -0.00314207 0.000919395)
(-0.00979901 -0.00767658 0.000235114)
(0.00241366 -0.00582907 0.00152946)
(0.00566823 -0.0099545 -0.000144012)
(-0.00109343 -0.00834097 -0.0012349)
(0.00516175 -0.00421145 -0.000622006)
(0.0136958 0.00159757 0.0021169)
(-0.00256679 0.00554286 0.000255952)
(0.000126099 0.00448199 -0.000257524)
(-0.0161972 -0.00800074 0.00722078)
(-0.0070454 -0.00315332 -0.000385135)
(-0.0119201 -0.00605723 -0.00039755)
(-0.00853309 0.00310555 -0.00091207)
(-0.0163924 0.0131219 0.00052742)
(0.00100271 -0.000122851 -0.00626962)
(-0.00165593 0.00721897 -0.00289326)
(-0.0108361 0.0163595 0.00228168)
(-0.00109892 0.00124693 0.00109808)
(0.000303177 0.00556897 0.000494463)
(0.000727481 -0.004941 -0.0020573)
(-0.0082226 -0.00462764 0.000253517)
(-0.00802752 0.0136993 0.00298484)
(-0.00112068 0.00935031 -0.0038887)
(-0.00447512 -0.00779316 4.81453e-05)
(0.00609204 -0.00415008 5.22109e-05)
(-0.0104105 0.00391616 -0.000648855)
(-0.00443194 -0.00274242 -0.00166852)
(0.00026018 -0.0127878 0.000195645)
(-0.000376479 -0.000670117 0.00109819)
(-0.00895822 0.00420512 0.000133909)
(-0.0107111 -0.00275318 -0.00019189)
(-0.000870122 -0.00300413 -0.000390351)
(0.000522274 0.00412529 -0.00144749)
(0.00936526 -0.00323204 0.000890925)
(0.000401061 -0.0037927 0.000538916)
(0.00501322 -0.000315837 0.000869167)
(0.00250071 -0.0033372 0.000703922)
(0.0113614 -0.00396291 0.00142015)
(-0.00482772 -0.014092 -0.000314296)
(0.0144934 0.000800776 -0.00123594)
(0.0117522 -0.0118732 -9.52317e-05)
(0.0103475 -0.0138492 -0.000157175)
(-0.00167777 -0.0117936 -0.000638907)
(0.0034881 -0.0101805 -0.000853009)
(0.000190895 0.0013493 -5.94263e-05)
(0.00243079 -0.000627885 -1.56353e-05)
(0.0009956 0.0021253 1.97505e-06)
(0.000766227 0.00450634 0.000295162)
(0.000285411 0.00372965 -9.18739e-05)
(0.000399775 -5.92976e-05 1.31919e-05)
(0.000507389 1.04295e-05 -1.89809e-06)
(0.000497159 1.76634e-05 -2.2827e-06)
(0.00090236 1.95334e-05 4.035e-06)
(0.000418908 -9.77584e-05 2.36871e-05)
(0.000707325 -0.000133754 3.32325e-05)
(0.000744024 -0.000106463 5.22634e-05)
(0.000438556 2.90954e-05 6.70853e-06)
(0.000719956 7.18019e-05 2.3079e-05)
(0.000632924 4.75122e-05 -1.08347e-06)
(0.00035488 7.61302e-06 -1.76366e-06)
(0.000829356 2.69665e-05 -1.10339e-06)
(0.000575875 2.98717e-05 -9.70188e-07)
(0.00113828 1.49502e-05 -1.36459e-06)
(0.000609562 1.95208e-05 -4.76583e-06)
(0.000603197 1.77679e-05 -4.08336e-06)
(0.00101712 3.65354e-05 -5.09562e-06)
(0.00102273 3.18087e-05 -4.2144e-06)
(0.000560978 2.67237e-06 -3.81825e-06)
(0.000954597 5.61088e-05 -4.75122e-07)
(0.000921463 3.17283e-06 -4.72912e-06)
(0.000812185 2.90797e-05 -4.4754e-08)
(0.000825386 4.77189e-05 -8.37365e-07)
(0.00108289 5.31226e-05 8.81457e-08)
(0.000808538 1.42147e-05 9.90272e-08)
(0.000794803 1.74821e-05 -1.29205e-07)
(0.00107649 2.16965e-05 1.50512e-07)
(0.00080581 9.00612e-06 3.48708e-08)
(0.000802901 1.13453e-05 1.14754e-07)
(0.00107356 1.46898e-05 1.72996e-07)
(0.000803892 5.25316e-06 3.9976e-08)
(0.000801709 6.92613e-06 4.42582e-08)
(0.00107093 8.45481e-06 1.68511e-07)
(0.000802082 3.11293e-06 4.57221e-08)
(0.000801671 4.58438e-06 5.63685e-08)
(0.00106891 5.07799e-06 1.74064e-07)
(0.00080077 1.84767e-06 4.82481e-08)
(0.000800823 2.11912e-06 5.12705e-08)
(0.00106701 2.92412e-06 1.76537e-07)
(0.000799448 1.11434e-06 4.99492e-08)
(0.000799704 1.24307e-06 5.23036e-08)
(0.00106539 1.7919e-06 1.75577e-07)
(0.000797655 7.70603e-07 5.13617e-08)
(0.000798476 1.40874e-06 5.43035e-08)
(0.00106337 1.03522e-06 1.87682e-07)
(0.000796339 5.89977e-07 7.05289e-08)
(0.000797144 2.43253e-07 5.54515e-09)
(0.00106135 9.01033e-07 1.77262e-07)
(0.000794845 4.2267e-07 1.0302e-07)
(0.000795664 -3.92872e-08 7.68809e-08)
(0.00105946 5.75043e-07 1.8151e-07)
(0.000793965 3.14809e-07 7.08633e-08)
(0.000794195 -4.80369e-08 1.09831e-07)
(0.00105788 4.81977e-07 2.95878e-07)
(0.000792173 2.2008e-07 5.42253e-08)
(0.000792774 4.00654e-07 3.61098e-08)
(0.0010561 3.21654e-07 1.73937e-07)
(0.000790518 1.55011e-07 7.19846e-08)
(0.000791281 3.38552e-07 1.40048e-07)
(0.00105381 2.69755e-07 1.71243e-07)
(0.000789034 2.55064e-07 1.33231e-07)
(0.000789867 5.68524e-08 5.25872e-08)
(0.00105171 1.65491e-07 1.81115e-07)
(0.000787501 3.39042e-07 1.31007e-07)
(0.000788325 4.19264e-07 1.35364e-07)
(0.00104957 5.44353e-07 9.12175e-08)
(0.000786394 2.7563e-07 4.58767e-08)
(0.000786823 4.08227e-07 6.60578e-08)
(0.00104796 4.1438e-07 1.09641e-07)
(0.000784658 1.12843e-07 1.0484e-07)
(0.00078533 -5.01494e-08 4.86346e-08)
(0.00104613 3.83591e-07 1.51418e-07)
(0.000782999 -5.27971e-08 1.1021e-07)
(0.000783671 2.67718e-08 1.07016e-07)
(0.00104368 -1.50179e-08 1.29153e-07)
(0.000781597 -1.14888e-07 4.61341e-08)
(0.000782218 3.30581e-08 4.53039e-08)
(0.0010416 -6.02193e-08 1.62756e-07)
(0.000780197 -3.13286e-07 5.61385e-08)
(0.000780753 6.84391e-08 5.25884e-08)
(0.00103984 -2.28477e-07 1.65237e-07)
(0.000778297 -4.08326e-07 4.39682e-08)
(0.000779243 -6.7191e-07 3.31442e-08)
(0.0010376 -6.80753e-07 2.46251e-07)
(0.000776823 -3.21932e-07 -5.29405e-08)
(0.000777843 2.42339e-07 -1.75038e-08)
(0.00103519 -5.10273e-07 1.66125e-07)
(0.000775609 -2.07981e-07 -5.43049e-08)
(0.000776489 2.10026e-07 3.49726e-08)
(0.00103357 -4.05254e-07 8.60765e-08)
(0.000774235 1.28861e-07 7.26352e-08)
(0.000775285 4.21961e-07 4.08255e-08)
(0.00103188 -1.9396e-07 9.00061e-08)
(0.000773381 3.9218e-07 1.12537e-07)
(0.000773926 -2.40511e-06 6.17971e-08)
(0.00103031 5.39591e-07 2.76547e-07)
(0.000771754 2.62167e-07 7.35574e-08)
(0.00077227 -1.68218e-06 5.70603e-08)
(0.00102876 5.49329e-07 2.48084e-07)
(0.000770073 8.618e-08 6.6376e-08)
(0.000770743 3.96871e-07 6.54548e-08)
(0.00102652 1.73716e-07 1.68825e-07)
(0.000768737 5.30008e-08 6.1187e-08)
(0.000769343 -4.49213e-08 6.896e-08)
(0.0010244 5.13639e-08 1.63067e-07)
(0.00076739 1.76881e-07 2.24333e-08)
(0.000767979 -2.1606e-08 1.04971e-07)
(0.00102261 8.67441e-08 1.6493e-07)
(0.000765997 4.3065e-07 3.06129e-08)
(0.000766614 8.91338e-08 2.84896e-08)
(0.00102091 3.96067e-07 1.97176e-07)
(0.00076383 4.19594e-07 3.98135e-08)
(0.000764942 -7.12964e-07 4.10191e-08)
(0.00101846 7.63423e-07 1.47927e-07)
(0.000762543 1.7265e-07 4.08756e-08)
(0.000763231 1.79729e-07 4.6544e-08)
(0.00101606 4.08063e-07 1.67141e-07)
(0.000761297 -1.09834e-08 5.68234e-08)
(0.000761846 -1.42381e-07 4.99577e-08)
(0.00101449 1.10504e-07 1.65441e-07)
(0.000759307 -1.54689e-07 6.77741e-08)
(0.000760299 9.9705e-07 6.53115e-08)
(0.00101226 -1.31595e-07 1.51553e-07)
(0.000758444 -4.69249e-07 8.2374e-08)
(0.000758919 5.3349e-07 1.26665e-07)
(0.00101031 -3.09076e-07 2.05717e-07)
(0.000757892 -4.43482e-07 7.27767e-08)
(0.00075824 1.72759e-07 1.11245e-07)
(0.00100959 -9.4455e-07 2.63497e-07)
(0.000756155 -9.2455e-08 6.12667e-08)
(0.000757098 -7.13233e-08 5.6111e-08)
(0.00100794 -2.35085e-07 1.78354e-07)
(0.000754632 1.60782e-07 6.69614e-08)
(0.000755494 5.47602e-08 9.19358e-08)
(0.00100573 -7.72211e-08 1.90738e-07)
(0.000753049 2.06803e-07 5.87122e-08)
(0.000753892 -1.17618e-06 9.49476e-08)
(0.00100374 4.21106e-07 2.1003e-07)
(0.000751607 -1.83346e-08 -1.44664e-08)
(0.000752254 2.39387e-07 6.44415e-08)
(0.00100166 6.68538e-08 1.64382e-07)
(0.000750466 -1.51285e-07 1.76505e-08)
(0.000750853 1.38276e-07 -9.6322e-09)
(0.000999881 -1.72063e-07 1.05105e-07)
(0.000749918 -1.33063e-07 1.17005e-07)
(0.000998566 -2.69433e-07 2.32747e-07)
(0.00356837 -0.00250077 -0.000191075)
(-0.0015959 -0.00957586 0.00108197)
(0.000826278 -0.00217786 -0.00351297)
(-0.00237595 -0.00556723 0.000990304)
(0.00487989 -0.00570473 0.000110531)
(0.00459263 0.00675236 -0.00201858)
(0.00292215 0.000806872 0.00436653)
(0.002051 -0.000466228 -0.00213118)
(0.00187041 0.00305476 -0.000858309)
(0.00364487 0.00162836 -1.92624e-05)
(0.0018542 0.00390129 -1.33127e-05)
(0.00371638 -0.00164171 -0.000316224)
(0.00225994 0.00496391 0.000442901)
(-0.00103205 0.00353224 -7.2325e-06)
(-0.000578595 0.00399921 0.00153549)
(0.005579 0.00421125 -0.00191561)
(0.00204181 0.00321721 0.00124868)
(0.00237421 0.000834677 0.00105977)
(0.0032391 6.72879e-05 0.000494376)
(0.00563549 -0.00386172 -0.000314201)
(-0.00899508 0.0044451 0.00322449)
(0.0099359 -0.00166255 0.00014988)
(0.00327448 -0.00254567 -0.000224722)
(-0.00221548 0.00706069 0.000936901)
(0.00485475 0.000973769 -0.00527806)
(0.00847618 -0.00460262 0.00297466)
(0.00846354 0.0178778 0.000774549)
(-0.00232424 0.00438715 8.87861e-05)
(0.00249147 -0.0144173 0.000626093)
(0.011276 0.00560362 0.0156279)
(-0.00329905 0.00155711 0.000176011)
(-0.00182481 0.00780655 -0.000355655)
(-0.00180666 0.00216191 0.000203403)
(-0.00141856 -0.00199628 0.00036007)
(-0.000321641 -0.0205406 0.000279072)
(-0.0084877 -0.00611535 -0.000459543)
(0.00529787 -0.000118201 -0.00314339)
(0.00263121 -0.00599719 -0.0072601)
(-0.00437776 -0.00877864 -0.000647926)
(-0.00423591 0.00263989 -0.000626809)
(0.00437003 0.00244862 -7.77222e-06)
(-0.000953276 0.00415786 -0.00025856)
(-0.000152144 0.00910037 -0.000664552)
(-0.00162306 0.000458984 -0.000144297)
(-0.00468837 0.000600829 -8.83631e-05)
(0.0012303 0.00130874 -0.000222162)
(-0.00208425 0.00256229 -0.000141138)
(-0.00128531 0.00076519 -0.000639829)
(0.0010322 3.72825e-05 1.17353e-05)
(0.000400942 -6.77853e-05 2.67025e-05)
(0.000372076 -0.000126684 3.82256e-05)
(0.000599808 -6.20126e-05 6.32754e-05)
(0.000329006 -4.6663e-05 1.71845e-05)
(0.000463042 3.31253e-05 -9.36693e-07)
(0.00046204 2.2772e-05 -2.76684e-06)
(0.000433954 3.68336e-05 4.3604e-07)
(0.000718139 5.72102e-05 -3.64713e-07)
(0.000784928 2.4214e-05 -9.22048e-07)
(0.000832639 1.41869e-05 -1.28663e-06)
(0.00110934 4.37748e-05 -9.1042e-07)
(0.00056966 1.76e-05 -3.64156e-06)
(0.000563071 2.36394e-05 -4.8128e-06)
(0.000934931 2.01923e-05 -4.55263e-06)
(0.000919023 3.29475e-05 -6.12211e-06)
(0.000793817 1.05936e-05 -1.13558e-07)
(0.000777813 5.9559e-06 -3.5734e-07)
(0.00103668 1.47077e-05 7.23367e-08)
(0.000797724 6.4938e-06 1.24165e-07)
(0.000797774 4.17534e-06 1.86998e-07)
(0.00106257 9.94578e-06 2.02687e-07)
(0.000799639 3.53663e-06 6.06467e-08)
(0.000798011 2.60701e-06 4.57084e-08)
(0.00106298 5.22797e-06 1.77617e-07)
(0.000800369 2.05216e-06 6.19185e-08)
(0.000799816 1.70154e-06 6.66961e-08)
(0.00106547 2.94213e-06 1.80835e-07)
(0.000799753 1.24724e-06 5.53256e-08)
(0.000799817 9.89793e-07 5.4764e-08)
(0.00106544 1.76584e-06 1.75836e-07)
(0.000798714 7.38608e-07 5.66571e-08)
(0.000799069 6.08304e-07 5.30455e-08)
(0.00106426 1.08093e-06 1.77988e-07)
(0.000797968 4.6849e-07 8.50263e-09)
(0.000798139 3.75393e-07 5.38819e-08)
(0.00106314 5.94126e-07 1.80078e-07)
(0.000796508 3.48504e-07 1.18741e-08)
(0.000796994 9.41689e-09 1.78772e-09)
(0.00106168 4.58839e-07 1.86624e-07)
(0.000794913 2.34503e-07 8.36808e-08)
(0.000795522 -2.58498e-07 4.64241e-08)
(0.00105969 3.18426e-07 1.97169e-07)
(0.000793056 1.27963e-07 7.51008e-08)
(0.000794062 6.3241e-07 7.5721e-08)
(0.00105734 1.61638e-07 1.57879e-07)
(0.000791886 3.38064e-08 1.21899e-07)
(0.000792657 -7.59787e-08 3.87753e-08)
(0.00105532 5.69026e-08 1.78588e-07)
(0.00079054 2.02146e-08 1.20678e-07)
(0.000791265 3.89993e-07 1.38954e-07)
(0.00105365 -3.31266e-08 1.57328e-07)
(0.000789313 4.7213e-08 5.46935e-08)
(0.0007899 -1.6595e-07 4.82531e-08)
(0.00105194 4.39705e-08 1.66226e-07)
(0.00078749 6.43519e-08 7.04368e-08)
(0.000788346 -4.07475e-07 4.1634e-08)
(0.00104995 6.39194e-08 2.60426e-07)
(0.000785881 -5.61267e-08 6.88212e-08)
(0.000786672 -2.86192e-08 6.99853e-08)
(0.00104755 1.28517e-07 2.14605e-07)
(0.000784266 -1.77997e-07 5.07928e-08)
(0.000785178 -4.81904e-07 7.0314e-08)
(0.00104538 -2.65172e-07 2.151e-07)
(0.00078286 -1.44392e-07 4.21293e-08)
(0.000783714 -1.05312e-07 3.8812e-08)
(0.00104335 -2.08162e-07 1.76049e-07)
(0.000781427 -1.07497e-07 5.17559e-08)
(0.000782264 7.61483e-08 5.46305e-08)
(0.00104149 -1.53996e-07 1.66066e-07)
(0.000779823 -1.07876e-07 2.96003e-08)
(0.000780752 -9.32617e-08 5.57537e-08)
(0.00103931 -9.10169e-08 1.95761e-07)
(0.000778685 1.02139e-07 -2.83119e-08)
(0.000779505 4.85102e-07 -7.18879e-09)
(0.00103754 -1.49277e-07 6.19357e-08)
(0.000777608 3.90017e-07 7.03928e-08)
(0.000778201 7.46492e-07 -7.95771e-09)
(0.00103621 4.81829e-07 1.02539e-07)
(0.000776034 4.78365e-07 1.30101e-07)
(0.000776597 3.418e-07 1.39837e-07)
(0.00103425 6.64643e-07 1.72764e-07)
(0.000775104 5.50243e-07 2.99809e-08)
(0.000775372 5.0074e-07 -3.67314e-08)
(0.00103279 7.07969e-07 1.19731e-07)
(0.000772808 4.38255e-07 6.32197e-09)
(0.000773784 1.20752e-07 -4.94765e-09)
(0.00103072 7.71287e-07 6.71861e-08)
(0.000771221 1.79261e-07 4.89551e-08)
(0.000771945 1.67796e-07 3.2253e-08)
(0.00102782 3.96749e-07 5.21084e-08)
(0.000769975 8.95436e-08 6.80377e-08)
(0.000770631 1.88885e-07 6.5812e-08)
(0.00102599 8.99022e-08 1.68279e-07)
(0.000768603 6.9983e-08 1.12732e-07)
(0.000769318 -1.50232e-07 4.82895e-08)
(0.00102434 1.20292e-07 1.72281e-07)
(0.000767209 -4.47915e-09 1.1105e-07)
(0.000767886 -1.25022e-08 1.06436e-07)
(0.00102246 4.74703e-08 1.66253e-07)
(0.000765711 -1.03507e-07 3.88919e-08)
(0.000766491 -2.40905e-08 5.45905e-08)
(0.00102053 -4.74501e-08 1.84523e-07)
(0.000764154 -1.10834e-07 4.77478e-08)
(0.000764934 -2.66236e-07 2.06842e-08)
(0.00101854 -1.98298e-07 1.49699e-07)
(0.000762545 -3.28183e-10 5.5625e-08)
(0.000763369 -3.31585e-07 -3.18634e-08)
(0.00101635 -7.55373e-08 2.23354e-07)
(0.000760985 4.7892e-08 5.8441e-08)
(0.000761906 5.76645e-08 5.14067e-08)
(0.00101417 6.4357e-08 1.67926e-07)
(0.000759781 2.8007e-07 1.24184e-07)
(0.000760589 4.14847e-07 8.57719e-08)
(0.0010123 5.76009e-08 1.92437e-07)
(0.000758385 5.88045e-07 1.55541e-07)
(0.000759302 4.30466e-07 1.76297e-07)
(0.00101069 7.22093e-07 1.75297e-07)
(0.000757934 4.73334e-07 9.45964e-08)
(0.000758094 -1.02304e-06 2.00156e-08)
(0.00100955 8.60298e-07 1.69218e-07)
(0.000756309 2.75375e-07 8.67691e-08)
(0.000756849 1.98044e-07 5.75099e-08)
(0.00100806 4.14736e-07 1.69431e-07)
(0.000754846 2.50154e-07 1.19921e-07)
(0.000755461 5.32303e-08 8.28245e-08)
(0.00100607 3.67017e-07 1.74687e-07)
(0.000752958 3.13507e-07 1.00686e-07)
(0.000753969 8.70802e-08 1.11416e-07)
(0.00100382 3.29341e-07 1.21394e-07)
(0.000751529 3.16115e-07 6.92982e-08)
(0.000752257 3.49839e-07 6.40436e-08)
(0.0010015 4.9616e-07 1.63631e-07)
(0.000750086 1.99147e-07 8.96841e-08)
(0.000750705 1.85092e-07 5.21862e-08)
(0.000999528 3.09903e-07 1.6994e-07)
(0.000749669 -1.27444e-06 1.34954e-07)
(0.000998331 1.92341e-07 2.05484e-07)
(-0.00672444 -0.00311858 0.00169325)
(-6.94728e-05 -0.00223902 -3.39276e-05)
(0.000945492 -0.0210395 0.00337285)
(0.0103308 0.00507116 -0.000735659)
(0.00267439 0.0146867 0.00101193)
(-0.00138922 0.000978069 0.00123382)
(0.00294552 -0.00300772 0.000369852)
(-0.00140599 -0.00605627 2.06059e-05)
(-0.0018336 0.00217838 5.88915e-05)
(-0.00431711 0.000663066 0.000828531)
(0.0146471 -0.00210521 -0.000175975)
(0.0058307 -0.003649 -0.000748602)
(0.00251962 -0.00515931 0.000106345)
(0.0240154 -0.00413618 4.79292e-05)
(0.0268057 -0.00501215 0.000445063)
(0.00496882 -0.0151667 0.0024485)
(0.00776313 -0.00705133 0.000540767)
(0.00728316 -0.00936149 0.000334673)
(-4.24487e-05 -0.00954555 0.000284423)
(-0.000924208 -0.0140996 0.00180737)
(0.00120991 -0.0184847 0.000592805)
(-0.00303231 0.00255543 0.000210491)
(-0.00916935 -9.27277e-05 8.21427e-05)
(-0.000724328 -0.00193196 0.000617457)
(-0.00166379 0.00160671 0.000987653)
(-0.00100759 -0.000776461 0.00034857)
(0.000686393 0.00151153 -7.33111e-05)
(0.000211892 0.00172811 -0.000252547)
(0.0016163 0.00235226 -3.96192e-05)
(2.93432e-05 0.00408147 -0.000104018)
(0.00165789 0.00266008 -0.000291243)
(-0.00106049 0.000261558 -2.02481e-05)
(0.00123201 0.000485214 -1.26505e-05)
(0.0013706 0.00042716 6.39876e-05)
(0.00129905 0.000275342 -0.000190062)
(0.00124049 0.000235847 2.5955e-06)
(0.000287997 7.70715e-06 -2.25555e-06)
(0.000442069 2.98449e-06 -3.27066e-06)
(0.000402344 -8.07835e-06 -5.66974e-07)
(0.000684792 -1.3243e-05 -1.47072e-06)
(0.000292786 8.9841e-06 -2.39631e-06)
(0.000524836 1.7495e-05 -2.18721e-06)
(0.000542267 2.02896e-05 -8.12051e-07)
(0.000422641 7.48571e-06 3.27705e-08)
(0.000781611 -3.49764e-06 -7.22225e-07)
(0.000836019 -1.54028e-05 -1.21475e-06)
(0.00110755 -1.07874e-05 -9.47336e-07)
(0.000565823 4.83192e-06 -3.70221e-06)
(0.000561572 -1.53012e-06 -4.31056e-06)
(0.000926925 6.40383e-06 -4.6904e-06)
(0.000929967 -7.88799e-06 -5.45897e-06)
(0.000792044 -1.22244e-06 -5.69614e-08)
(0.000780773 -7.2369e-06 -3.9885e-07)
(0.00103435 -4.88893e-06 5.42214e-08)
(0.000796633 -2.33765e-07 1.08588e-07)
(0.000799053 -3.85245e-06 1.6876e-07)
(0.00106172 -2.26561e-06 2.02849e-07)
(0.000798756 7.66778e-08 5.1751e-08)
(0.000798424 -1.94259e-06 5.28657e-08)
(0.00106218 -7.66685e-07 1.75393e-07)
(0.000799477 6.6372e-08 5.95455e-08)
(0.000799818 -1.17082e-06 8.58914e-08)
(0.00106458 -5.52845e-07 1.80566e-07)
(0.00079923 1.33351e-07 5.24845e-08)
(0.00079991 -6.29744e-07 5.39635e-08)
(0.00106469 -2.2986e-07 1.77529e-07)
(0.000798424 1.77165e-07 5.02701e-08)
(0.000799128 -3.02289e-07 4.9228e-08)
(0.00106393 4.12679e-09 1.76743e-07)
(0.000797312 3.06099e-08 4.71839e-08)
(0.000797959 -1.36072e-07 4.82924e-09)
(0.00106259 1.17918e-07 1.75616e-07)
(0.000796011 -1.8258e-07 3.63233e-08)
(0.000796729 -1.40522e-07 4.75797e-08)
(0.00106101 -2.32079e-07 1.66994e-07)
(0.000794661 -2.79367e-07 3.84549e-08)
(0.000795402 -2.1287e-07 3.82656e-08)
(0.00105909 -3.31938e-07 1.57829e-07)
(0.000793641 -2.48171e-07 3.94074e-08)
(0.000794103 1.87083e-07 5.9088e-08)
(0.00105756 -4.48441e-07 1.63328e-07)
(0.000792008 -1.61924e-07 5.57982e-08)
(0.000792766 4.64178e-08 6.09081e-08)
(0.00105586 -2.755e-07 1.77239e-07)
(0.000790635 -1.50519e-07 6.65577e-08)
(0.000791281 -1.27009e-10 7.27945e-08)
(0.0010538 -2.30804e-07 1.90343e-07)
(0.000789014 -2.51291e-07 3.51957e-08)
(0.000789776 -4.47454e-08 1.68258e-07)
(0.00105183 -2.19976e-07 1.76535e-07)
(0.000787456 -2.92261e-07 4.11735e-08)
(0.000788296 5.51738e-07 1.79058e-07)
(0.00104967 -4.73303e-07 1.12856e-07)
(0.000785989 -1.89026e-07 7.14779e-08)
(0.000786802 -7.17022e-09 8.22071e-08)
(0.00104755 -3.31497e-07 1.70279e-07)
(0.000784583 -5.28258e-08 5.83432e-08)
(0.000785349 3.5483e-08 1.03383e-07)
(0.00104571 -2.10917e-07 1.30407e-07)
(0.000783113 1.30465e-07 5.13082e-08)
(0.000783943 -5.73114e-08 5.04391e-08)
(0.00104382 3.32847e-08 1.69012e-07)
(0.000781638 2.91342e-07 5.86279e-08)
(0.000782464 -1.64762e-08 6.6815e-08)
(0.00104174 2.96198e-07 1.79414e-07)
(0.000780327 5.26155e-07 1.89845e-08)
(0.000781043 5.04344e-07 3.37167e-08)
(0.00103984 5.0672e-07 1.16549e-07)
(0.000779149 6.20618e-07 1.31656e-08)
(0.00077962 7.48489e-07 1.1444e-07)
(0.00103831 9.98701e-07 1.28469e-07)
(0.000777138 4.20844e-07 6.14398e-08)
(0.000777948 3.24783e-07 7.49261e-08)
(0.00103621 7.97703e-07 2.50293e-07)
(0.00077582 3.37822e-07 -2.69403e-08)
(0.00077649 2.6334e-07 7.19626e-08)
(0.00103385 4.78043e-07 1.6507e-07)
(0.000774412 6.42625e-08 -7.16699e-08)
(0.000775028 1.17358e-07 -5.82018e-08)
(0.001032 5.96424e-07 1.94768e-07)
(0.000772613 -1.92521e-07 2.09717e-08)
(0.000773462 1.94945e-06 3.87675e-08)
(0.00102991 -2.56103e-07 7.24877e-08)
(0.000771362 -4.85832e-08 4.90994e-08)
(0.000772125 -9.01831e-08 4.92306e-08)
(0.00102791 -1.48716e-07 1.72236e-07)
(0.00077005 2.83442e-08 4.60692e-08)
(0.000770727 1.73917e-07 5.04387e-08)
(0.00102617 6.32689e-08 1.60448e-07)
(0.00076854 -1.26461e-09 4.19753e-08)
(0.000769281 -7.67929e-08 4.4633e-08)
(0.00102435 3.87746e-08 1.71837e-07)
(0.000767209 -5.56331e-08 4.99923e-08)
(0.000767818 -1.23388e-07 2.36286e-08)
(0.0010224 -3.592e-08 1.69194e-07)
(0.000765745 -1.52345e-07 3.63934e-08)
(0.00076637 5.02064e-08 5.13507e-08)
(0.0010206 -1.19551e-07 1.67965e-07)
(0.000764053 -2.13252e-07 -5.89107e-08)
(0.000764859 -1.75146e-07 2.95036e-08)
(0.00101843 -3.28802e-07 1.87296e-07)
(0.000762823 -1.03392e-07 -3.61074e-08)
(0.000763508 -1.54379e-07 -1.06561e-07)
(0.00101639 -3.2301e-07 1.3987e-07)
(0.000761435 1.03288e-07 7.8727e-08)
(0.000762165 -6.39518e-08 6.26152e-08)
(0.00101466 -5.97219e-09 1.75621e-07)
(0.000760151 2.89083e-07 1.37857e-07)
(0.00076082 1.51534e-07 2.52816e-07)
(0.00101308 3.17025e-07 1.76652e-07)
(0.000758865 5.05471e-07 4.08194e-08)
(0.000759571 4.584e-07 9.47888e-08)
(0.00101131 5.39731e-07 1.55957e-07)
(0.000757141 4.50204e-07 -1.70825e-08)
(0.000758023 -9.92561e-07 -2.09072e-08)
(0.00100919 8.44436e-07 1.95541e-07)
(0.000755984 2.01223e-07 5.35575e-08)
(0.000756536 -1.61025e-07 1.04591e-07)
(0.00100732 3.49534e-07 1.72633e-07)
(0.000754654 1.22444e-07 7.43107e-08)
(0.000755362 8.16332e-08 4.72056e-08)
(0.00100562 1.86447e-07 1.60316e-07)
(0.000753277 2.48664e-07 7.47879e-08)
(0.000754127 6.97853e-07 4.25134e-08)
(0.0010039 1.2751e-07 1.2241e-07)
(0.000751366 3.03596e-07 4.69353e-08)
(0.000752324 1.00612e-06 2.06783e-08)
(0.00100164 4.8699e-07 1.67899e-07)
(0.000750135 2.51307e-07 9.74312e-08)
(0.000750636 1.27858e-08 4.92161e-08)
(0.000999496 2.87813e-07 1.66505e-07)
(0.000749356 -1.37827e-06 9.75392e-08)
(0.000997939 3.79582e-07 1.89405e-07)
(-0.0330191 -0.0361886 -0.000296328)
(0.00272107 -0.0475418 0.000538689)
(-0.0687452 -0.0783613 0.00202744)
(-0.04207 -0.0697441 0.000265198)
(-0.00281519 -0.0075407 -0.000196606)
(-0.00708515 -0.0070012 0.00525839)
(-0.00442575 -0.00729131 -0.000508242)
(-0.00666873 -0.0111521 -0.00130911)
(0.00838893 -0.00878459 -0.000249028)
(-0.00160291 0.00418561 0.000277485)
(-0.000194614 0.0041573 0.000678116)
(-0.00972244 -0.0241468 5.58636e-05)
(-0.00302538 0.00219987 0.00279045)
(-0.0123038 -0.0014238 0.000909131)
(0.0174277 0.00607204 -0.0013503)
(0.018489 0.0305096 0.00259759)
(0.0131273 0.00314838 0.00221294)
(0.0135642 0.0115875 -0.000232187)
(0.00969641 0.0168172 0.000754418)
(0.00992923 0.0035745 -0.00291285)
(0.00910831 0.00986478 0.00107118)
(0.00795498 0.00836072 0.00230162)
(-0.0129958 -0.00255486 -0.000471823)
(-0.0200022 -0.00395443 -0.00101048)
(-0.0235568 0.00501626 -0.000254032)
(-0.0107526 0.0198313 0.00109316)
(-0.00745659 0.0195405 0.00120764)
(-0.0217088 -0.0132214 -0.00106455)
(-0.0341223 0.0224427 -0.00232497)
(-0.00831545 0.0223059 0.000505986)
(-0.000530529 -0.00457209 -0.000224772)
(-0.00432242 -0.00299899 -0.000336815)
(0.000619012 -0.00175461 -0.000154561)
(-0.000533584 -0.00303791 -0.000168155)
(-0.00269315 -0.00436872 -0.000519294)
(9.42069e-05 -0.000430298 3.88417e-05)
(0.000692549 -0.000255182 3.28832e-05)
(0.000532113 -0.000412822 8.53581e-05)
(0.000623913 -0.000720634 -3.61463e-05)
(0.000649311 -0.000125645 4.79323e-05)
(0.000292507 -2.48732e-05 -4.86537e-07)
(0.000453864 -2.62959e-05 -3.62692e-06)
(0.000402882 -3.69301e-05 -1.33647e-06)
(0.000662635 -6.2562e-05 -1.32565e-06)
(0.000294606 -2.60467e-05 -2.21376e-07)
(0.00056421 -5.10934e-05 4.88257e-06)
(0.00057017 -5.28911e-05 5.39679e-06)
(0.000393681 -2.74293e-05 -1.02211e-06)
(0.000793575 -1.82363e-05 -8.91641e-07)
(0.000853401 -2.60219e-05 -1.43086e-06)
(0.00112438 -3.39628e-05 -1.05433e-06)
(0.000575284 -1.95427e-05 -3.55569e-06)
(0.000581025 -2.21972e-05 -4.49474e-06)