/*--------------------------------*- C++ -*----------------------------------*\
| =========                 |                                                 |
| \\      /  F ield         | OpenFOAM: The Open Source CFD Toolbox           |
|  \\    /   O peration     | Version:  5.0                                   |
|   \\  /    A nd           | Web:      www.OpenFOAM.org                      |
|    \\/     M anipulation  |                                                 |
\*---------------------------------------------------------------------------*/
FoamFile
{
    version     2.0;
    format      ascii;
    class       surfaceVectorField;
    location    "1.8";
    object      Uf_0;
}
// * * * * * * * * * * * * * * * * * * * * * * * * * * * * * * * * * * * * * //

dimensions      [0 1 -1 0 0 0 0];

internalField   nonuniform List<vector> 
27583
(
(-0.0346993 -0.0041245 0.000909735)
(-0.00585291 -0.0264841 0.00094244)
(-0.0103628 -0.0021836 0.00550287)
(0.00871542 -0.00846286 0.000651373)
(0.00219886 -0.0152362 -0.000313494)
(0.00626388 -0.0236509 -0.0001895)
(0.0146514 -0.0227619 -0.00100616)
(-0.0119807 0.0060692 -0.000473712)
(-0.0191378 -0.00139888 0.000796123)
(-0.0161721 0.0155338 0.00125369)
(-0.0188256 0.055477 -0.00113692)
(-0.00384527 -0.0089977 -0.000648008)
(-0.0280243 0.0119124 -0.00177162)
(-0.0276953 0.0101927 0.00718939)
(0.0141342 -0.00220305 -0.000571778)
(0.00287057 -0.00149582 0.000693307)
(0.012923 -0.00530578 0.000822652)
(-0.000560184 -0.0151955 0.00106061)
(0.000231015 0.00891017 -0.000225422)
(0.00682418 0.00442378 2.06863e-05)
(-0.0058678 -0.000956907 -0.00035045)
(-0.0059871 0.00734434 0.000228658)
(-0.00152639 0.00244597 -0.000210244)
(-0.00371697 6.82345e-06 -9.83716e-05)
(-0.00487911 0.0016069 -0.000135315)
(-0.00354306 0.00336213 -0.000469615)
(0.000290933 2.63637e-05 9.01489e-06)
(0.000379644 2.13178e-05 -3.18873e-07)
(0.000414368 -3.5993e-05 -3.30962e-07)
(0.000683407 4.9373e-05 5.18426e-06)
(0.000200336 -8.40274e-06 2.3758e-05)
(0.000480062 7.48535e-05 2.82016e-05)
(0.000430919 -2.38275e-05 4.05186e-05)
(0.000766244 2.32762e-05 -7.87818e-07)
(0.000792366 2.6193e-06 -1.79713e-06)
(0.00103753 4.20442e-05 -1.2002e-06)
(0.000517011 2.31502e-05 -3.91743e-06)
(0.000557044 -4.26369e-06 -3.33828e-06)
(0.00084642 5.6425e-05 -3.98235e-06)
(0.000942338 -1.17756e-05 -3.67847e-06)
(0.000775333 1.66995e-05 6.96352e-08)
(0.000771463 1.50559e-05 -9.54769e-08)
(0.00102332 3.05721e-05 1.43556e-07)
(0.000781766 1.12559e-05 1.20641e-07)
(0.000779177 7.84614e-06 5.94237e-08)
(0.00103988 2.02773e-05 1.94476e-07)
(0.000784081 7.41457e-06 9.86621e-08)
(0.000782498 5.89039e-06 7.80154e-08)
(0.00104504 1.35575e-05 1.75454e-07)
(0.00078547 4.71943e-06 3.82555e-08)
(0.000784052 3.85096e-06 5.94587e-08)
(0.00104744 8.51249e-06 1.70218e-07)
(0.000786038 3.23113e-06 3.35724e-08)
(0.000785087 2.52041e-06 2.4894e-08)
(0.0010491 5.4482e-06 1.7945e-07)
(0.00078451 2.22556e-06 5.71143e-08)
(0.000784759 1.29308e-06 5.57711e-08)
(0.00104838 3.98756e-06 1.58109e-07)
(0.000783514 1.29046e-06 9.97139e-08)
(0.000783729 8.03409e-07 4.75827e-08)
(0.00104655 2.44312e-06 1.81819e-07)
(0.00078214 7.14687e-07 1.03237e-07)
(0.000782711 1.9392e-06 1.05254e-07)
(0.00104506 1.31994e-06 1.42926e-07)
(0.000780947 4.24096e-07 6.95862e-08)
(0.000781467 2.68645e-07 5.17563e-08)
(0.00104333 7.98132e-07 1.76964e-07)
(0.000779685 2.60671e-07 5.42642e-08)
(0.000780276 1.97506e-07 6.56982e-08)
(0.00104182 4.72783e-07 1.72392e-07)
(0.000777844 1.35067e-07 1.21664e-07)
(0.000778785 2.64883e-07 5.30529e-08)
(0.00103958 2.86558e-07 1.49825e-07)
(0.000776373 3.18514e-08 1.23788e-07)
(0.000777158 5.64542e-08 1.21678e-07)
(0.00103737 7.56009e-08 1.79262e-07)
(0.000774963 1.02993e-07 4.54719e-08)
(0.000775753 1.52351e-07 6.06086e-08)
(0.00103561 3.86018e-08 1.28602e-07)
(0.000773577 8.25801e-08 5.13743e-08)
(0.00077417 -3.19184e-07 5.31354e-08)
(0.00103362 3.05745e-07 1.66626e-07)
(0.00077195 -3.51553e-08 1.05823e-07)
(0.000772614 2.30589e-07 6.83808e-08)
(0.00103162 6.88196e-09 1.54386e-07)
(0.000770397 5.59648e-08 1.04606e-07)
(0.000771269 -1.81327e-07 1.02475e-07)
(0.00102954 -7.39139e-09 1.83424e-07)
(0.00076877 1.9434e-07 3.56761e-08)
(0.00076975 2.48651e-07 1.69372e-09)
(0.00102742 2.52311e-07 1.41175e-07)
(0.000767451 1.97087e-07 4.14882e-08)
(0.000768097 4.72231e-07 5.65089e-08)
(0.00102544 3.95201e-07 1.35858e-07)
(0.000765986 1.0317e-07 4.93539e-08)
(0.000766544 2.54319e-07 4.0001e-08)
(0.00102355 2.39555e-07 1.54086e-07)
(0.000764623 9.70252e-08 6.09367e-08)
(0.000765174 -1.23054e-07 4.88902e-08)
(0.00102188 8.66625e-08 1.76254e-07)
(0.000762283 -6.60005e-08 6.40633e-08)
(0.00076333 2.59751e-07 5.74481e-08)
(0.00101926 1.86216e-07 2.67365e-07)
(0.000760918 -4.80289e-07 -9.50089e-10)
(0.000761424 -4.95249e-07 5.18244e-08)
(0.00101669 -3.78407e-07 2.03196e-07)
(0.000759547 -6.30137e-07 -3.53205e-08)
(0.000760219 1.92256e-06 3.83568e-08)
(0.00101505 -9.29786e-07 -2.83194e-08)
(0.000757942 -5.43435e-07 3.22324e-08)
(0.000758853 8.06955e-07 1.69379e-08)
(0.00101286 -7.65513e-07 9.14377e-08)
(0.00075713 -4.18712e-07 7.14646e-08)
(0.000757562 1.23714e-07 1.47202e-07)
(0.00101131 -6.62592e-07 1.63008e-07)
(0.000755532 -1.67253e-07 5.10299e-08)
(0.000756425 -1.84954e-07 1.66624e-07)
(0.00100989 -3.79515e-07 1.77285e-07)
(0.000754175 8.0902e-08 6.08114e-08)
(0.000754951 -1.58059e-07 3.92432e-08)
(0.00100789 2.62556e-08 1.56555e-07)
(0.000752309 1.51401e-07 5.76e-08)
(0.00075331 -1.12045e-08 5.60847e-08)
(0.00100572 2.68239e-07 2.50008e-07)
(0.000750786 1.58111e-07 3.6401e-08)
(0.000751729 1.3448e-08 3.35028e-08)
(0.00100336 1.94972e-07 1.89938e-07)
(0.000749474 2.83565e-07 5.32259e-08)
(0.000750301 8.31502e-08 4.69518e-08)
(0.00100137 2.84892e-07 1.65031e-07)
(0.000748007 4.08201e-07 1.09163e-07)
(0.000748879 2.59167e-07 3.98859e-08)
(0.000999639 5.54524e-07 1.78889e-07)
(0.000747255 2.50752e-07 9.30212e-08)
(0.000747545 -9.6885e-07 8.02796e-08)
(0.000998295 5.84395e-07 1.83925e-07)
(0.000745751 1.53662e-08 4.34074e-08)
(0.000746244 1.27732e-07 4.29731e-08)
(0.000996668 9.17338e-08 1.70989e-07)
(0.000744333 -1.54231e-07 7.40061e-08)
(0.000744812 -8.68074e-08 6.05222e-08)
(0.000994577 -3.86279e-08 1.67411e-07)
(0.000743083 -2.69609e-07 1.62834e-07)
(0.000743597 -4.13045e-07 5.85226e-08)
(0.000993094 -4.10797e-07 1.73365e-07)
(0.000741742 -1.68228e-07 1.34041e-07)
(0.000742424 -3.55612e-07 1.8039e-07)
(0.000991236 -3.62649e-07 1.60684e-07)
(0.000740152 -7.30836e-08 5.46605e-09)
(0.000740961 2.20058e-07 4.11067e-08)
(0.00098919 -1.26164e-07 1.62463e-07)
(0.00073875 -1.39387e-07 1.71933e-08)
(0.00073944 -1.10163e-10 1.59688e-08)
(0.000987255 -1.23442e-07 1.8558e-07)
(0.000737563 -3.71783e-07 4.95755e-08)
(0.000738119 -1.1303e-07 5.92242e-08)
(0.000985459 -2.59348e-07 1.68835e-07)
(0.000736148 -4.82931e-07 1.1566e-08)
(0.000736885 -3.96128e-07 4.28428e-08)
(0.000983917 -6.79098e-07 1.67225e-07)
(0.000734512 -3.39174e-07 2.60075e-08)
(0.000735326 1.12784e-06 3.5631e-08)
(0.000981759 -5.56063e-07 8.0982e-08)
(0.000733996 -4.83868e-07 4.67485e-08)
(0.00097952 -3.45659e-07 2.56574e-07)
(0.00291412 -0.00210698 0.000788485)
(0.00679765 -0.00894677 0.000356147)
(0.000588633 -0.0085982 0.000964523)
(-0.00377577 -0.002796 0.000859876)
(-0.00926592 -0.00761038 0.000209693)
(0.00276294 -0.00571565 0.00146352)
(0.00605533 -0.0095324 -0.000109039)
(0.000163596 -0.00971842 -0.00409385)
(0.00652903 -0.00487159 -0.000134718)
(0.0168702 0.00247717 0.00324821)
(0.00197282 0.00788189 0.000419174)
(0.000818479 0.00333921 0.000205068)
(-0.016101 -0.0079101 0.00563412)
(-0.00619336 -0.00194385 -0.000187266)
(-0.0118415 -0.00422291 -0.000168085)
(-0.00787366 0.00650777 -0.000980957)
(-0.017112 0.0159762 0.000880441)
(0.000805269 0.00160344 -0.00152473)
(-0.000261824 0.00669216 -0.00358419)
(-0.0107672 0.0173651 -1.90491e-05)
(-0.00483553 -0.00211065 0.000490521)
(-0.004418 0.00962479 0.000320454)
(0.00142263 -0.00312124 -0.00210445)
(-0.010906 -0.00556653 -0.000184202)
(-0.00496095 0.0239832 0.0027446)
(-0.0139774 0.00968617 -0.00183039)
(0.00264458 -0.00647067 -3.96095e-05)
(0.0123734 -0.00881507 -0.00042189)
(-0.00658756 0.00125295 -0.000616658)
(-0.00693851 -0.00197822 -0.000717719)
(-0.00341327 -0.0100568 -0.000251822)
(0.00122361 -0.000809227 0.000956433)
(-0.00769643 0.00330552 0.000920112)
(-0.00943141 1.69045e-05 -0.000182768)
(-0.00559491 -0.00384524 -0.000683889)
(0.00385342 0.00421465 -0.000741914)
(0.0093988 -0.00782921 9.20234e-05)
(-0.00310954 -0.00466727 1.0057e-05)
(2.46013e-05 0.000362578 0.00255551)
(-8.37116e-05 -0.00414793 0.00028983)
(0.00730935 -0.00491321 0.000116976)
(-0.00887245 -0.016095 -0.00265632)
(0.0173358 0.00136656 0.000346667)
(0.0123385 -0.0110347 -0.000100389)
(0.00949168 -0.0139659 -0.000172279)
(-0.00118658 -0.0127703 -0.000666266)
(0.0041749 -0.0105697 -0.00096747)
(0.000146294 0.00132278 -5.64222e-05)
(0.00227017 -0.000658305 -2.42858e-05)
(0.000865819 0.00205728 -3.89824e-06)
(0.000740622 0.00449669 0.000302639)
(0.0001368 0.00350919 -9.56068e-05)
(0.00037231 -8.52469e-05 1.28087e-05)
(0.000460303 -2.03811e-05 -1.66193e-06)
(0.000457136 -1.11488e-05 -1.88143e-06)
(0.000828613 -2.51595e-05 3.91049e-06)
(0.00038956 -0.000125051 2.33857e-05)
(0.000654908 -0.000180833 3.24447e-05)
(0.000687325 -0.000157538 5.05767e-05)
(0.000415993 7.08665e-06 6.67971e-06)
(0.000681209 3.32161e-05 2.31176e-05)
(0.000592799 7.13926e-06 -1.05697e-06)
(0.000331443 -1.47353e-05 -1.66787e-06)
(0.000781051 3.50152e-06 -1.10534e-06)
(0.000541583 5.4762e-06 -9.93885e-07)
(0.00106615 -1.6655e-05 -1.348e-06)
(0.000564694 -6.65084e-06 -4.34727e-06)
(0.000564131 -8.23268e-06 -3.93737e-06)
(0.00093831 -4.04365e-06 -4.77872e-06)
(0.00095225 -1.18729e-05 -4.15995e-06)
(0.000529672 -1.97411e-05 -3.76019e-06)
(0.000899362 1.16107e-05 -5.27352e-07)
(0.000873861 -3.5266e-05 -4.65627e-06)
(0.000775877 1.2872e-05 -1.05739e-07)
(0.000791111 2.10424e-05 -7.88066e-07)
(0.00103008 2.92961e-05 7.31065e-08)
(0.000780148 4.38506e-06 1.6792e-08)
(0.000768558 7.79598e-07 -2.12654e-07)
(0.00103685 7.33912e-06 1.59218e-07)
(0.000782298 3.12761e-06 3.88181e-08)
(0.000780903 1.33147e-06 1.12115e-07)
(0.00104212 6.06699e-06 1.69294e-07)
(0.000783721 1.80317e-06 4.61085e-08)
(0.000782381 1.41141e-07 4.27798e-08)
(0.00104472 3.43218e-06 1.73138e-07)
(0.000784171 9.25709e-07 4.70826e-08)
(0.000783981 -9.13451e-09 5.47161e-08)
(0.00104632 2.14854e-06 1.75359e-07)
(0.000783809 3.8519e-07 4.62422e-08)
(0.000784078 -2.27762e-07 4.96408e-08)
(0.00104647 8.25558e-07 1.75449e-07)
(0.000782994 1.80094e-07 5.31045e-08)
(0.00078347 -1.55569e-07 5.14114e-08)
(0.00104574 5.22751e-07 1.7531e-07)
(0.000782056 1.31738e-07 5.37914e-08)
(0.000782649 4.37844e-07 5.66212e-08)
(0.00104461 1.4752e-07 2.22851e-07)
(0.000780671 2.11381e-07 4.78638e-08)
(0.000781566 4.82151e-08 5.57488e-08)
(0.0010431 3.06302e-07 1.72981e-07)
(0.000779615 1.95305e-07 6.4491e-08)
(0.000780255 -5.82819e-07 7.793e-08)
(0.00104144 2.81905e-07 1.82955e-07)
(0.000778015 1.60714e-07 5.30445e-08)
(0.000778741 6.28904e-07 1.05376e-07)
(0.00103969 2.31027e-07 1.508e-07)
(0.000776472 1.70034e-07 5.85176e-08)
(0.000777169 1.53307e-08 3.72711e-08)
(0.00103763 2.08284e-07 1.73846e-07)
(0.000775036 1.8813e-07 6.82746e-08)
(0.000775775 -2.09156e-08 8.15286e-08)
(0.00103568 2.66332e-07 1.73738e-07)
(0.000773131 2.5335e-07 7.01371e-08)
(0.00077425 2.88966e-08 4.49398e-08)
(0.00103342 2.46177e-07 1.78316e-07)
(0.000771959 3.10224e-07 6.50216e-08)
(0.000772684 -1.27844e-06 5.6595e-08)
(0.00103125 4.60304e-07 2.43983e-07)
(0.000770668 2.50022e-07 -4.051e-10)
(0.000771192 -9.11657e-07 1.63925e-08)
(0.00102978 4.27449e-07 2.00452e-07)
(0.000769018 1.21894e-07 2.25091e-08)
(0.000769589 1.47955e-07 1.98226e-09)
(0.00102788 3.08633e-07 1.88216e-07)
(0.000767228 -2.20621e-08 5.50269e-08)
(0.000767916 -8.16545e-10 8.78304e-08)
(0.00102542 8.91973e-08 2.27005e-07)
(0.000765654 -1.69056e-07 3.95345e-08)
(0.00076636 1.92363e-08 4.57699e-08)
(0.00102315 -8.17271e-08 1.91889e-07)
(0.000764146 -5.27803e-07 4.53989e-08)
(0.000764727 -1.93548e-07 5.22758e-08)
(0.00102121 -3.28821e-07 1.75199e-07)
(0.000762238 -6.57276e-07 4.5211e-08)
(0.00076317 1.32948e-06 -1.4555e-09)
(0.00101893 -1.08344e-06 1.30684e-07)
(0.000760615 -4.83273e-07 9.11356e-08)
(0.000761644 -2.85319e-07 6.76782e-08)
(0.00101644 -6.8263e-07 1.6669e-07)
(0.000759667 -3.74074e-07 9.0622e-08)
(0.000760358 -4.00388e-09 1.11428e-07)
(0.00101487 -5.9767e-07 2.58816e-07)
(0.00075834 -1.20089e-08 1.31867e-07)
(0.000759306 -9.62816e-08 5.87221e-08)
(0.0010134 -3.78521e-07 2.20804e-07)
(0.00075696 2.3937e-07 2.42356e-07)
(0.000757875 5.1522e-07 2.66872e-07)
(0.00101153 4.29687e-07 1.34336e-07)
(0.000755837 1.20318e-07 1.54877e-07)
(0.000756275 6.55946e-07 1.87841e-07)
(0.00100996 3.46383e-07 8.01824e-08)
(0.000754125 -4.22052e-08 3.45113e-08)
(0.000754747 1.71838e-07 5.09852e-08)
(0.00100803 6.40968e-08 1.69583e-07)
(0.000752661 -6.21114e-08 3.19945e-08)
(0.000753285 2.22494e-07 4.38292e-08)
(0.0010058 -1.35101e-07 1.54859e-07)
(0.000751251 6.49728e-08 4.40493e-08)
(0.000751888 8.01136e-08 4.76354e-08)
(0.00100391 2.73115e-09 1.62649e-07)
(0.000749729 2.40038e-07 3.3614e-08)
(0.000750519 1.17552e-07 4.62789e-08)
(0.00100208 2.18157e-07 1.75496e-07)
(0.000748326 4.21125e-07 1.09902e-08)
(0.000749103 4.11599e-07 3.03267e-08)
(0.00100004 5.10318e-07 1.5681e-07)
(0.000746567 3.50462e-07 3.02431e-08)
(0.000747455 -5.0843e-07 4.83548e-08)
(0.000997818 6.75e-07 1.67164e-07)
(0.000745343 1.5206e-08 6.00825e-08)
(0.000745824 -8.07133e-09 5.95299e-08)
(0.000995928 2.60614e-07 1.62274e-07)
(0.000744037 -3.55344e-07 4.50392e-08)
(0.000744349 -1.44634e-07 6.21226e-08)
(0.000994165 -2.11885e-07 1.64347e-07)
(0.000742892 -4.55045e-07 7.60411e-08)
(0.000743475 -8.66502e-07 3.45906e-08)
(0.000992492 -6.88713e-07 1.78722e-07)
(0.000741787 -2.88988e-07 8.74983e-08)
(0.000742633 -1.39675e-07 1.02484e-07)
(0.000991222 -5.40224e-07 1.26974e-07)
(0.000740188 -2.16176e-07 5.16171e-08)
(0.000741054 4.28229e-07 -1.4518e-08)
(0.000989342 -2.91362e-07 1.7224e-07)
(0.000738721 -1.3582e-07 5.79865e-08)
(0.000739541 -1.0305e-07 5.34344e-08)
(0.000987272 -3.10064e-07 1.83141e-07)
(0.000737498 -1.11153e-07 5.24965e-08)
(0.000738151 1.39958e-07 5.53849e-08)
(0.000985519 -3.9348e-08 1.34999e-07)
(0.00073616 -2.57595e-07 6.691e-08)
(0.000736702 -4.65251e-07 4.81876e-08)
(0.000983755 -2.10903e-07 1.68929e-07)
(0.000734602 -2.93441e-07 5.63686e-08)
(0.000735284 2.17786e-07 6.67005e-08)
(0.000981748 -4.40997e-07 2.50459e-07)
(0.000734362 1.28625e-07 4.47719e-08)
(0.000980415 -3.28373e-07 7.46942e-08)
(0.00446775 -0.00410803 -0.00022722)
(-0.00155547 -0.00851976 0.000748246)
(0.00188432 -0.00312267 -0.00195072)
(-0.00158222 -0.00741444 -0.000441368)
(0.00325865 -0.00491198 0.000270898)
(0.00366894 0.00228491 -0.00300539)
(0.0031086 -0.00191044 0.00144566)
(0.00201054 -0.00058101 -0.00197886)
(0.00206268 -0.000924296 0.000122447)
(0.00364864 0.00078999 4.15473e-05)
(0.00306379 0.00271239 -4.39683e-05)
(0.00264046 -0.00368716 -9.8494e-05)
(0.00357253 0.00550951 0.000125578)
(0.000443371 0.00238775 -6.00411e-05)
(0.000541145 0.00515222 0.0003528)
(0.00546895 0.00146177 -0.00154472)
(0.00280543 0.00224923 0.000865872)
(0.00239147 -0.000410688 0.000889552)
(0.00418087 0.000613281 0.000515347)
(0.00616707 -0.00521813 -0.000426301)
(-0.00908591 0.00324319 0.0030671)
(0.0111714 -0.00217894 0.000108631)
(0.00392291 -0.00238207 -0.000343927)
(-0.000949904 0.00725358 0.000643306)
(0.00330444 -0.0019294 -0.0064622)
(0.0090476 -0.00617103 0.00430875)
(0.00800464 0.0189391 0.00165274)
(-0.00268745 0.00463735 9.92462e-05)
(0.00337565 -0.0129584 0.000711132)
(0.0123206 0.00610035 0.0198426)
(-0.00267106 0.00131846 0.000179622)
(-0.00220713 0.00880251 -0.000333501)
(-0.00152743 0.002208 0.000220407)
(-0.00186881 -0.000864498 0.000404896)
(0.000944937 -0.0194989 0.000608923)
(-0.0081473 -0.00486175 -0.000455911)
(0.00540089 0.00134529 -0.00543776)
(0.00387944 -0.00451541 -0.00802789)
(-0.00176647 -0.00692258 -0.00186162)
(-0.00416294 0.00265338 -0.000624932)
(0.00403383 0.00225653 1.67128e-05)
(-0.000623288 0.00371783 -0.0002253)
(0.0002606 0.00936355 -0.000636259)
(-0.00179558 0.000432262 -0.000160607)
(-0.00542653 0.00068776 -0.000103626)
(0.00103802 0.00140029 -0.000237069)
(-0.00237421 0.00277177 -0.000156552)
(-0.00163441 0.000912397 -0.000701679)
(0.00102369 1.25889e-05 1.22612e-05)
(0.000389421 -7.91573e-05 2.69221e-05)
(0.000361775 -0.000146127 3.8586e-05)
(0.000580346 -8.74795e-05 6.43745e-05)
(0.000313912 -5.8618e-05 1.75502e-05)
(0.000435077 8.62818e-06 -8.79273e-07)
(0.000440113 -1.80943e-06 -2.71536e-06)
(0.000412471 5.14771e-06 4.09337e-07)
(0.000678823 1.58278e-05 -3.85096e-07)
(0.000762397 -1.64532e-06 -8.95169e-07)
(0.000818296 -1.91558e-05 -1.28472e-06)
(0.00107516 3.94192e-06 -8.44029e-07)
(0.000547123 -8.07144e-06 -3.54935e-06)
(0.000545201 -4.23638e-06 -4.63455e-06)
(0.000896234 -2.16776e-05 -4.44562e-06)
(0.000889962 -1.43598e-05 -5.95356e-06)
(0.000774345 -5.25708e-06 -1.17437e-07)
(0.000764146 -1.4654e-05 -3.98501e-07)
(0.00101082 -9.68325e-06 7.27637e-08)
(0.000780203 -3.08784e-06 1.16099e-07)
(0.000783643 -8.36509e-06 1.79488e-07)
(0.0010401 -4.83596e-06 2.03578e-07)
(0.000782984 -2.1939e-06 5.13835e-08)
(0.000783515 -5.22649e-06 4.01252e-08)
(0.0010425 -3.58084e-06 1.70097e-07)
(0.000783983 -1.44404e-06 5.7276e-08)
(0.000784928 -3.24844e-06 6.04183e-08)
(0.00104582 -2.31804e-06 1.76865e-07)
(0.000783813 -9.38473e-07 5.48095e-08)
(0.000784717 -2.0076e-06 5.32619e-08)
(0.00104633 -1.5413e-06 1.76731e-07)
(0.000783041 -5.72069e-07 5.49265e-08)
(0.000783932 -1.19324e-06 5.19739e-08)
(0.0010457 -9.62712e-07 1.76999e-07)
(0.000782304 -3.5606e-07 5.8579e-08)
(0.000782922 -6.86284e-07 5.1707e-08)
(0.00104478 -5.75984e-07 1.79647e-07)
(0.000781076 -2.11083e-07 8.58078e-08)
(0.000781749 -6.0553e-07 5.27339e-08)
(0.00104349 -4.00269e-07 1.8934e-07)
(0.000779551 -2.38813e-07 1.18806e-07)
(0.000780222 -1.43919e-06 7.83341e-08)
(0.00104172 -2.06767e-07 2.28652e-07)
(0.000777752 -2.76695e-07 8.9624e-08)
(0.000778695 4.34394e-07 7.85655e-08)
(0.00103949 -4.68085e-07 2.06615e-07)
(0.000776459 -1.56558e-07 6.0268e-08)
(0.00077732 -3.82126e-07 4.10703e-08)
(0.00103742 -2.82403e-07 1.76871e-07)
(0.000775071 -8.85188e-08 5.82056e-08)
(0.00077586 -4.57881e-07 6.88673e-08)
(0.00103566 -1.52525e-07 1.87824e-07)
(0.000773724 2.87111e-08 3.1394e-08)
(0.000774397 -2.40796e-07 4.95402e-08)
(0.00103386 -9.8415e-08 1.7286e-07)
(0.000771964 1.15586e-07 7.9788e-09)
(0.000772792 2.25491e-07 2.6562e-08)
(0.00103184 1.66563e-07 8.5335e-08)
(0.000770128 -1.55936e-08 1.87845e-08)
(0.000771028 -2.99229e-07 2.56973e-08)
(0.00102935 1.50103e-07 1.54254e-07)
(0.000768433 -1.086e-07 6.72763e-08)
(0.000769472 6.88327e-07 2.99407e-08)
(0.001027 -1.90315e-07 1.47325e-07)
(0.000767059 -1.07993e-07 7.85867e-08)
(0.000767918 -1.77082e-07 7.53375e-08)
(0.00102495 -1.16095e-07 1.69756e-07)
(0.000765508 -9.82454e-08 5.85091e-08)
(0.000766372 3.85007e-09 5.98246e-08)
(0.00102303 -1.59726e-07 1.7446e-07)
(0.000763665 -8.02418e-08 5.43829e-09)
(0.00076475 -5.68283e-08 7.4389e-08)
(0.00102063 -6.47973e-08 1.90027e-07)
(0.000762642 1.59284e-07 2.099e-08)
(0.000763469 -6.94098e-07 2.26341e-08)
(0.00101882 -1.04972e-07 2.70621e-07)
(0.00076116 5.82212e-07 8.79574e-08)
(0.000762171 -1.09693e-06 5.91289e-08)
(0.0010173 5.73744e-07 2.26452e-07)
(0.000760133 7.20043e-07 7.95451e-08)
(0.000760527 -9.2587e-07 5.16604e-08)
(0.00101543 1.00513e-06 1.94817e-07)
(0.000758869 5.68308e-07 1.93661e-07)
(0.000759114 -2.01703e-06 2.65146e-08)
(0.00101414 9.1922e-07 2.87397e-07)
(0.000757165 4.18262e-07 2.12382e-07)
(0.000757686 4.95761e-07 1.79351e-07)
(0.00101221 5.93921e-07 1.92263e-07)
(0.000755222 2.36159e-07 8.39923e-08)
(0.000756046 1.4226e-07 7.73837e-08)
(0.00100943 5.08797e-07 2.4943e-07)
(0.000753846 9.48965e-08 6.03053e-08)
(0.00075457 7.60321e-08 5.58586e-08)
(0.00100729 9.6933e-08 1.69902e-07)
(0.000752522 8.67846e-08 5.94689e-08)
(0.000753274 -8.84965e-08 5.24355e-08)
(0.00100564 1.17982e-07 1.81255e-07)
(0.000751147 3.48111e-08 4.98654e-08)
(0.000751823 5.97468e-08 5.94679e-08)
(0.00100381 8.43919e-08 1.65721e-07)
(0.000749842 5.18808e-08 4.29966e-08)
(0.00075054 1.18272e-07 7.76303e-08)
(0.001002 6.38262e-09 1.5853e-07)
(0.000748398 6.53144e-08 6.76857e-08)
(0.00074912 5.43192e-07 1.813e-08)
(0.00100021 1.05405e-07 1.61917e-07)
(0.00074662 -1.22873e-08 7.76382e-08)
(0.000747358 6.73347e-07 3.17961e-08)
(0.000997978 3.03386e-08 1.16978e-07)
(0.000744816 -6.98837e-08 6.15693e-08)
(0.000745752 5.89518e-07 5.93351e-08)
(0.000995557 -6.38329e-08 1.61695e-07)
(0.000743465 1.92192e-07 5.16824e-08)
(0.000744676 -4.51576e-08 4.12406e-08)
(0.000993392 -8.56764e-08 1.5705e-07)
(0.000743605 3.20055e-07 6.1013e-08)
(0.000743633 -2.44514e-06 4.12019e-08)
(0.000992689 6.61689e-07 1.43947e-07)
(0.000741885 4.90978e-08 5.0384e-10)
(0.000742293 2.08745e-07 4.39284e-08)
(0.000991738 3.02818e-07 1.73044e-07)
(0.000740363 -2.99416e-09 -1.27216e-08)
(0.000740987 5.09575e-07 -1.38654e-08)
(0.000989483 -5.78794e-09 1.74465e-07)
(0.000738888 1.37686e-07 5.08321e-08)
(0.000739716 -1.04194e-07 4.62151e-08)
(0.000987572 1.4088e-07 1.76482e-07)
(0.000737412 1.53049e-07 5.10782e-08)
(0.000738169 -5.32883e-08 6.50737e-08)
(0.000985585 2.82753e-07 1.90522e-07)
(0.000735817 6.24381e-08 4.79725e-08)
(0.000736589 -3.56924e-08 4.23091e-08)
(0.000983416 1.58184e-07 1.55951e-07)
(0.000734837 4.63031e-08 5.51105e-08)
(0.000735263 -9.98209e-08 4.26144e-08)
(0.000981621 4.89882e-08 1.54371e-07)
(0.000734304 1.53062e-07 5.87193e-08)
(0.000980479 8.9099e-08 1.52329e-07)
(-0.00792486 -0.00793281 0.000428396)
(-0.00160587 -0.00895039 0.00111366)
(0.0231102 -0.0102763 0.00757688)
(0.0316061 -0.0332579 -0.00674483)
(0.0268688 -0.0200723 -0.0122308)
(0.0112551 0.00465001 0.00209035)
(0.00479656 0.00216317 9.04455e-05)
(0.00202836 -0.00608344 -4.77205e-05)
(-0.000172656 0.00178288 1.4939e-05)
(-0.0020612 -0.000641194 -0.000250492)
(0.0163704 -0.00153783 -0.000335254)
(0.00695477 -0.00331829 -0.00103989)
(0.00411229 0.000476796 -0.000246179)
(0.00855237 -0.00282212 -0.000209304)
(0.00806367 -0.00439043 -7.38876e-05)
(0.00037125 -0.00786377 0.00147501)
(0.00634666 -0.0049743 0.000389416)
(0.00919403 -0.00893602 0.000356999)
(-0.00031282 -0.00858345 0.000405036)
(-0.000173818 -0.0156167 0.00221585)
(0.00236021 -0.0190344 0.000975416)
(-0.00335892 0.00177356 0.000231197)
(-0.010357 -0.00052809 9.09045e-05)
(-0.0027455 -0.00229444 0.000622075)
(-0.00277171 0.00110687 0.000938462)
(-0.00244541 -4.42195e-05 0.000400193)
(0.00025885 0.00107072 -6.70478e-05)
(-0.000305697 0.000960183 -0.000245871)
(0.0010426 0.00165866 -4.96369e-05)
(-0.000556873 0.00340809 -7.73311e-05)
(0.00122215 0.00171728 -0.000270857)
(-0.00111756 2.2786e-05 -2.03139e-05)
(0.00123329 0.000336352 -1.12684e-05)
(0.00137611 0.000173517 6.39579e-05)
(0.00127873 3.06409e-05 -0.000190277)
(0.00126981 0.000116764 4.56439e-06)
(0.000283166 -1.47268e-05 -2.11105e-06)
(0.000439736 -2.8943e-05 -3.14859e-06)
(0.000409004 -4.48785e-05 -4.22872e-07)
(0.000678801 -6.99939e-05 -1.32428e-06)
(0.000292827 -1.35745e-05 -2.35828e-06)
(0.000516794 -1.87487e-05 -1.91417e-06)
(0.000544117 -1.52338e-05 -8.23187e-07)
(0.000411038 -2.66285e-05 7.82945e-08)
(0.000777473 -2.82473e-05 -7.88344e-07)
(0.000845715 -4.04238e-05 -1.25768e-06)
(0.00110533 -4.96193e-05 -9.52073e-07)
(0.000563166 -2.37901e-05 -3.64228e-06)
(0.000568005 -2.86153e-05 -4.31628e-06)
(0.00092241 -4.25437e-05 -4.65097e-06)
(0.000940662 -5.31413e-05 -5.5566e-06)
(0.000783498 -1.62865e-05 -1.01765e-07)
(0.000779294 -2.24545e-05 -4.42114e-07)
(0.00102617 -2.85388e-05 5.73785e-08)
(0.000785488 -9.50636e-06 1.03559e-07)
(0.000792192 -1.31911e-05 1.64479e-07)
(0.00104983 -1.66957e-05 2.01306e-07)
(0.000785981 -5.77815e-06 4.91534e-08)
(0.00078822 -7.78605e-06 1.83646e-08)
(0.00104791 -9.80138e-06 1.73711e-07)
(0.00078572 -3.6141e-06 5.64065e-08)
(0.00078766 -4.95689e-06 1.51487e-07)
(0.0010489 -6.32545e-06 1.79978e-07)
(0.000784911 -2.09692e-06 5.04267e-08)
(0.00078663 -2.98312e-06 5.31687e-08)
(0.00104819 -3.75878e-06 1.76397e-07)
(0.000783759 -1.15927e-06 4.87546e-08)
(0.000785114 -1.7363e-06 3.9527e-08)
(0.00104696 -2.11039e-06 1.75736e-07)
(0.000782437 -7.28322e-07 4.58616e-08)
(0.000783466 -1.02035e-06 5.85426e-08)
(0.00104533 -1.14892e-06 1.7567e-07)
(0.000780997 -5.44089e-07 4.52519e-08)
(0.000781983 -6.41799e-07 4.62314e-08)
(0.00104357 -8.9777e-07 1.65004e-07)
(0.000779255 -4.70549e-07 3.80938e-08)
(0.000780316 -4.81901e-07 4.58995e-08)
(0.00104136 -6.0643e-07 1.22273e-07)
(0.000778243 -5.42385e-07 3.00238e-08)
(0.000778608 9.96973e-09 5.34849e-08)
(0.0010396 -6.73851e-07 1.54514e-07)
(0.000776765 -4.41629e-07 4.96608e-08)
(0.000777448 -4.51612e-07 5.03933e-08)
(0.00103803 -7.69559e-07 1.70217e-07)
(0.000775149 -3.09169e-07 6.02081e-08)
(0.000776027 -1.5734e-07 6.63864e-08)
(0.00103591 -4.0609e-07 1.56382e-07)
(0.000773553 -3.26778e-07 4.47155e-08)
(0.000774377 -2.71902e-07 4.35082e-08)
(0.00103382 -4.3323e-07 1.77856e-07)
(0.000771805 -2.95138e-07 4.42808e-08)
(0.000772833 -2.078e-07 2.30892e-08)
(0.00103156 -4.64079e-07 2.19269e-07)
(0.000770352 -2.04539e-07 3.68522e-08)
(0.000771143 8.85626e-08 7.55204e-08)
(0.00102933 -3.65431e-07 1.36537e-07)
(0.000768969 -5.30209e-08 3.79876e-08)
(0.000769663 8.57567e-08 5.27459e-08)
(0.00102755 -2.21398e-07 2.00008e-07)
(0.000767175 1.24407e-07 5.65803e-08)
(0.000768139 -1.97609e-07 5.06803e-08)
(0.00102545 2.31713e-08 1.9564e-07)
(0.00076574 2.67948e-07 7.56999e-08)
(0.000766551 -6.3873e-08 6.34174e-08)
(0.00102321 2.72018e-07 1.67945e-07)
(0.000764305 5.72715e-07 9.16011e-08)
(0.000765128 -5.50383e-07 4.60803e-08)
(0.00102128 4.7009e-07 1.98554e-07)
(0.000763235 7.50789e-07 6.07615e-08)
(0.000763688 -2.24482e-06 4.37565e-08)
(0.00101972 1.13575e-06 2.41528e-07)
(0.000761413 7.21758e-07 2.28343e-08)
(0.000762131 4.05321e-08 2.76361e-08)
(0.00101782 9.50686e-07 1.18853e-07)
(0.00075958 7.4971e-07 -1.36219e-09)
(0.000760558 -1.89813e-07 4.02734e-08)
(0.00101529 1.02686e-06 1.48842e-07)
(0.000757835 4.80031e-07 1.21566e-08)
(0.000758774 -4.321e-07 1.13844e-08)
(0.00101288 1.01724e-06 8.14783e-08)
(0.000756672 1.19047e-07 4.43848e-08)
(0.000757233 1.90915e-07 3.76701e-08)
(0.00101101 2.86342e-07 1.64429e-07)
(0.000755271 8.92316e-08 4.92567e-08)
(0.000756008 1.3031e-07 4.8047e-08)
(0.00100933 2.19529e-08 1.65598e-07)
(0.000754079 1.34721e-07 4.79899e-08)
(0.000754626 3.65501e-08 5.95992e-08)
(0.00100754 2.14664e-07 1.49474e-07)
(0.000752527 1.07431e-07 5.24323e-08)
(0.00075324 6.84132e-08 4.49937e-08)
(0.00100579 1.42845e-07 1.68182e-07)
(0.00075113 3.4805e-08 8.72271e-08)
(0.000751732 -8.70679e-09 5.11672e-08)
(0.00100377 1.18472e-07 1.71126e-07)
(0.000749959 -2.20368e-07 5.27821e-08)
(0.000750222 -2.16114e-07 8.08414e-08)
(0.0010021 -5.57384e-08 1.70511e-07)
(0.000748142 -4.13498e-07 -1.77638e-08)
(0.00074888 2.38252e-06 5.35651e-08)
(0.00100007 -5.44273e-07 7.27988e-08)
(0.000746382 -2.65281e-07 1.34845e-08)
(0.000747544 1.79353e-06 3.55276e-08)
(0.000997606 -5.66019e-07 1.19822e-07)
(0.000745429 1.21064e-07 3.9012e-08)
(0.000746236 1.909e-07 5.20916e-08)
(0.000995783 -1.36173e-07 1.56773e-07)
(0.000744993 4.96666e-07 3.07601e-08)
(0.000745144 -2.4962e-07 8.81095e-08)
(0.00099507 4.74406e-07 9.64827e-08)
(0.000742365 4.84608e-07 2.41166e-08)
(0.000743615 -1.18323e-06 4.75154e-08)
(0.000992973 8.57542e-07 1.88791e-07)
(0.000741271 1.81138e-07 2.95768e-08)
(0.000741911 4.70789e-07 -4.04694e-08)
(0.000990383 4.8174e-07 1.22532e-07)
(0.000740439 3.64246e-08 4.50528e-08)
(0.000740805 8.60265e-08 4.42175e-08)
(0.000989135 8.64828e-08 1.48531e-07)
(0.000739108 5.57085e-08 6.04508e-08)
(0.00073974 4.98232e-08 4.32412e-08)
(0.000987629 7.11108e-08 1.52016e-07)
(0.000737161 1.01011e-07 5.63115e-08)
(0.000738225 -3.90373e-07 1.83529e-08)
(0.000985537 9.86133e-08 2.43907e-07)
(0.000736066 2.17098e-07 3.69509e-08)
(0.000736733 -2.87895e-07 -1.18851e-07)
(0.000983461 1.73085e-07 1.601e-07)
(0.000734601 2.65308e-07 4.62183e-08)
(0.00073532 7.75798e-08 3.9643e-08)
(0.000981657 3.92827e-07 1.6246e-07)
(0.000733973 3.29144e-07 6.89341e-08)
(0.000980243 3.07565e-07 1.26837e-07)
(-0.0156361 -0.089824 -0.00255025)
(0.0555394 -0.0385112 -0.00390006)
(-0.0375008 -0.0943244 -0.00575119)
(-0.0102799 -0.0727431 -0.00817693)
(0.000444714 -0.00715335 -0.000188652)
(-0.00279367 -0.00508542 0.00595864)
(3.82609e-05 -0.00406727 -0.00064715)
(-0.00382581 -0.0088276 -0.00175288)
(0.0157246 -0.00296914 -9.25606e-05)
(0.000340061 -0.00232169 0.000824455)
(-0.00968274 0.000403974 0.00100902)
(-0.00454895 -0.0252817 0.000634235)
(-0.00457381 -0.000268445 0.00270878)
(-0.0114796 -0.00158895 0.00137514)
(0.0150076 0.00526809 -0.00143209)
(0.0271778 0.0253209 -0.000481971)
(0.0119657 0.0069188 0.00155901)
(0.00958856 0.0137288 -0.00141705)
(0.00672212 0.0153957 0.00111013)
(0.00613164 0.00273754 -0.00270437)
(0.00735603 0.0075659 0.0019475)
(0.00820908 0.00877265 0.00277778)
(-0.0154369 -0.00987784 -0.000136793)
(-0.0106025 -0.00915655 -0.000607798)
(-0.0294053 0.000583288 -0.00216916)
(-0.0295404 0.00750581 -0.00174938)
(-0.00226501 0.0193672 0.0032467)
(-0.0227433 -0.0376435 -0.00319166)
(-0.0267445 -0.00882763 -0.00614364)
(-0.00216734 0.0219194 0.00132686)
(-0.000384849 -0.00540924 -0.000199325)
(-0.00321363 -0.00392441 -0.000237866)
(0.00111227 -0.00250608 -0.000129444)
(0.000511967 -0.00403804 -0.000136706)
(-0.00199488 -0.00544637 -0.000456508)
(0.000244175 -0.000706135 4.06208e-05)
(0.000814037 -0.000551913 2.88179e-05)
(0.000725296 -0.000618041 8.79004e-05)
(0.000801487 -0.000994166 -3.78377e-05)
(0.00074615 -0.000296534 4.94345e-05)
(0.000324507 -3.88288e-05 -4.418e-07)
(0.000480768 -4.39731e-05 -3.52751e-06)
(0.000448119 -4.76638e-05 -1.00009e-06)
(0.000723162 -9.3635e-05 -8.42035e-07)
(0.000331316 -3.70995e-05 -2.17082e-07)
(0.00061927 -7.15716e-05 5.19943e-06)
(0.000634172 -6.65813e-05 5.71321e-06)
(0.000422278 -5.60849e-05 -7.81225e-07)
(0.000803484 -2.85024e-05 -9.11719e-07)
(0.000870065 -2.56791e-05 -1.39567e-06)