/*--------------------------------*- C++ -*----------------------------------*\
| =========                 |                                                 |
| \\      /  F ield         | OpenFOAM: The Open Source CFD Toolbox           |
|  \\    /   O peration     | Version:  5.0                                   |
|   \\  /    A nd           | Web:      www.OpenFOAM.org                      |
|    \\/     M anipulation  |                                                 |
\*---------------------------------------------------------------------------*/
FoamFile
{
    version     2.0;
    format      ascii;
    class       surfaceScalarField;
    location    "3";
    object      alphaPhi10;
}
// * * * * * * * * * * * * * * * * * * * * * * * * * * * * * * * * * * * * * //

dimensions      [0 3 -1 0 0 0 0];

internalField   nonuniform List<scalar> 
26815
(
3.15267e-08
-1.15185e-08
8.69876e-08
3.20077e-08
2.62566e-08
3.26952e-08
7.3565e-08
7.80347e-08
8.05659e-08
2.4126e-08
2.80645e-08
4.6438e-08
-9.78284e-09
-7.90672e-09
-2.94121e-08
-4.71022e-08
2.72064e-07
-1.3375e-07
2.39163e-08
2.48949e-08
3.6106e-08
3.20247e-08
7.47991e-08
3.09915e-08
3.16914e-08
2.96664e-08
-9.01072e-09
-4.79257e-09
3.22598e-08
2.06019e-08
2.88411e-08
2.21958e-08
-7.25958e-09
-1.45472e-08
-5.55311e-09
-6.07573e-09
-2.96149e-10
-1.60891e-09
-3.45811e-09
9.21612e-09
-2.88447e-12
6.27763e-08
6.27764e-08
6.27763e-08
-2.5144e-23
-4.86778e-19
2.58465e-21
8.19036e-20
-2.7793e-20
-2.07505e-19
6.1936e-19
9.19443e-27
-9.95429e-23
-1.17215e-25
1.01136e-26
-1.6903e-26
-1.98586e-29
1.86306e-28
-6.31042e-29
-4.52985e-31
1.66774e-31
-1.85213e-31
-6.89543e-32
8.63569e-36
-4.78834e-35
-1.24031e-34
1.84138e-39
-6.44251e-39
6.82066e-38
7.14241e-43
-1.55231e-42
2.62136e-42
2.8847e-46
-1.02188e-45
6.69036e-44
1.16413e-49
-6.78017e-50
-6.89517e-48
4.71558e-53
-3.07462e-53
4.35388e-51
1.90294e-56
-2.41178e-56
-3.61434e-53
7.70455e-60
-1.09141e-61
-3.94528e-57
3.1792e-63
-3.06922e-64
-1.96793e-59
1.30502e-66
2.3033e-67
-9.89394e-64
5.29322e-70
-1.15081e-70
-2.90112e-67
2.12985e-73
-1.19346e-74
2.22585e-70
1.07558e-76
-9.81369e-78
1.02807e-72
6.26975e-80
-1.9085e-80
2.9665e-75
1.9766e-83
-6.31411e-84
1.3803e-78
8.48848e-87
-2.69131e-88
-2.9054e-82
5.33292e-90
-3.52369e-91
2.73513e-85
3.24551e-93
-1.85644e-95
6.45308e-89
2.3377e-96
1.30118e-96
-1.00209e-91
7.02373e-100
1.21789e-100
-5.31965e-95
1.54038e-102
-7.04836e-104
3.37664e-97
4.46304e-105
-1.59584e-105
1.90624e-100
8.22602e-109
2.07939e-110
2.27288e-104
7.49481e-112
1.8674e-112
-4.02672e-107
7.79214e-115
6.42081e-116
-3.00113e-110
1.34314e-117
1.73542e-118
-4.45901e-114
1.23422e-121
-1.44244e-122
1.87989e-118
4.03086e-125
-4.35645e-126
1.09777e-125
3.15118e-128
7.19022e-130
1.78599e-123
7.35026e-131
-1.73539e-132
-1.30001e-126
1.10018e-133
1.69056e-135
-3.29978e-129
4.38037e-136
3.32381e-137
3.43486e-133
4.06829e-140
1.25483e-141
9.06567e-136
2.81442e-143
1.74693e-143
-1.52412e-138
6.44256e-147
9.70023e-148
-2.61808e-142
8.77924e-150
-2.52519e-153
6.04967e-147
8.03515e-152
3.6384e-153
-9.21222e-149
6.93858e-157
9.04116e-157
5.87699e-08
-2.20088e-09
-3.22524e-07
-2.97566e-08
-2.02934e-08
2.00359e-08
-2.14869e-08
-1.8846e-08
-2.02934e-08
1.00577e-08
6.8074e-09
8.83205e-09
6.50221e-09
-2.71315e-08
-2.91402e-08
-2.83866e-08
-7.52983e-09
2.92738e-08
-2.6804e-08
-3.0569e-08
1.30527e-09
-8.02196e-10
3.23592e-08
2.9882e-08
-7.0877e-09
3.80054e-08
3.48914e-08
-3.32894e-08
1.67576e-08
2.81512e-08
2.13607e-08
1.30676e-08
3.33104e-08
2.54052e-08
3.31582e-08
-2.38621e-08
-4.63854e-09
1.57409e-09
-2.68101e-09
1.54203e-09
2.23232e-09
-2.87608e-11
2.35276e-14
1.78155e-08
4.48153e-12
1.78158e-08
9.87397e-22
-1.28477e-18
-2.27847e-19
1.06826e-18
-8.03005e-17
1.61908e-17
6.52746e-17
-1.35383e-18
-2.24595e-18
-1.3577e-18
2.45267e-25
-1.26621e-22
-7.06484e-25
6.10876e-28
-8.56569e-26
-5.26905e-28
7.25816e-29
-1.54523e-27
-1.23556e-31
5.95783e-32
-4.6835e-31
-4.58421e-33
2.00359e-36
-4.43e-34
-1.42192e-35
4.10154e-40
-1.4225e-37
-2.10937e-39
1.62645e-43
-1.83603e-41
-8.72865e-43
6.61119e-47
-4.29545e-45
4.74422e-45
2.68333e-50
-1.17872e-48
-1.54754e-48
1.08809e-53
-2.01779e-52
-6.75173e-52
4.40239e-57
1.35775e-56
-3.42603e-54
1.77298e-60
-1.65211e-59
-3.04211e-58
7.15476e-64
-9.05641e-63
9.1022e-62
2.91341e-67
-1.12569e-66
-1.89711e-64
1.21522e-70
-7.44754e-70
6.55126e-67
5.01452e-74
4.44103e-74
-3.33992e-70
2.04116e-77
-1.05605e-77
-7.65149e-75
8.76494e-81
4.94838e-80
1.01773e-76
3.48496e-84
-1.83704e-83
1.92387e-80
1.44041e-87
-2.42824e-88
-6.0613e-84
7.0621e-91
1.47993e-91
-7.97745e-87
4.71151e-94
-1.66837e-93
-3.90151e-89
3.38515e-97
7.50082e-99
4.30463e-93
4.89993e-100
2.01657e-101
-5.52993e-97
9.40524e-104
-2.98067e-102
-3.91024e-100
8.62344e-107
-4.38284e-105
4.50958e-101
4.15572e-110
5.66148e-111
1.51244e-106
5.77863e-113
1.03612e-112
5.79958e-108
1.08895e-116
-5.11606e-117
-1.36259e-111
2.05395e-119
2.96558e-121
-9.56063e-122
2.73895e-121
-1.87581e-123
-3.13186e-118
2.30349e-125
-1.05694e-125
4.15516e-121
6.44683e-129
-4.28876e-129
-2.32281e-124
4.23706e-132
-8.57725e-133
-6.09852e-127
9.70926e-136
-5.36096e-135
4.51056e-131
4.8625e-139
7.81833e-140
4.5267e-139
5.80003e-142
2.56725e-143
1.49175e-136
2.15448e-145
1.9237e-147
-3.28192e-140
1.24447e-148
-6.73502e-148
-4.93225e-143
3.17855e-152
-5.93045e-152
5.25288e-148
6.74779e-154
6.42045e-156
5.95174e-151
1.40544e-157
-3.1474e-153
7.88608e-08
1.86948e-08
-2.13954e-07
8.07744e-08
7.85994e-08
7.66856e-08
-1.96127e-08
7.23248e-08
8.42147e-08
-2.19142e-08
2.49012e-08
6.08443e-09
2.47213e-09
5.19081e-09
3.79942e-09
2.02298e-09
-2.15018e-08
-9.58391e-09
-3.24346e-08
3.09148e-08
-4.10643e-08
-3.59996e-08
-3.40752e-08
-6.86306e-09
9.40201e-09
-2.52055e-07
-4.06541e-08
-3.06332e-09
2.40303e-09
1.96864e-09
7.21476e-09
-5.76541e-09
-1.67138e-11
2.68903e-11
1.41986e-09
-1.24802e-10
1.56115e-09
1.95845e-19
-1.34859e-18
-5.74826e-09
-1.271e-18
-6.82853e-19
6.12432e-19
1.0467e-18
5.14535e-25
-2.45402e-21
-2.07582e-23
7.38463e-20
7.31543e-20
7.29529e-20
7.63538e-20
1.10604e-25
-3.24993e-25
-1.67446e-26
1.11705e-27
-1.26864e-28
1.26791e-29
2.47104e-31
-6.67185e-31
-5.87707e-31
2.91544e-35
-1.43211e-34
2.49433e-34
1.3327e-38
5.9532e-38
-1.38082e-38
4.4395e-42
1.36495e-41
-2.20053e-41
1.71895e-45
3.90285e-45
-5.99198e-44
7.01806e-49
7.86514e-49
-8.7114e-47
2.8819e-52
2.28698e-54
1.90485e-49
1.17939e-55
6.17411e-56
-5.52765e-53
4.80699e-59
-1.75548e-60
-1.50126e-56
1.96747e-62
3.791e-63
-5.66578e-60
8.09959e-66
-2.42781e-68
-2.83715e-63
3.33327e-69
9.99419e-71
-2.95985e-65
1.36202e-72
4.51718e-74
1.28059e-69
5.77364e-76
-5.03838e-76
-3.17248e-72
2.43329e-79
-1.57822e-80
1.58413e-75
1.0124e-82
8.42927e-83
-2.75371e-78
4.36393e-86
2.67038e-87
2.64055e-83
3.32494e-89
5.49129e-90
-5.31234e-85
2.59576e-92
-2.44019e-93
-6.16439e-87
5.27012e-96
-3.1714e-96
4.37084e-96
1.63054e-98
-8.65979e-98
-3.44141e-99
2.30822e-100
6.25159e-102
-1.88773e-99
1.40938e-104
-7.09915e-107
-9.25001e-100
2.76226e-108
-1.50701e-109
4.43608e-103
1.25295e-111
-2.59016e-112
2.72958e-106
5.28315e-115
1.09125e-115
-1.17954e-110
5.64688e-118
-1.08217e-119
-1.73195e-114
3.93769e-120
1.84268e-121
-4.07617e-117
6.2026e-124
9.48785e-124
-1.40044e-119
1.57641e-127
-1.42669e-127
-2.6686e-122
2.49235e-130
7.15552e-130
-2.44638e-125
6.83444e-133
-6.31194e-134
-2.50113e-129
4.15601e-137
3.75189e-140
9.36853e-133
1.34792e-140
4.55509e-141
7.47024e-136
1.1944e-143
5.83458e-145
5.06352e-140
4.06204e-146
4.95297e-148
-7.39844e-142
8.83466e-150
2.26677e-150
-8.68299e-146
2.91734e-153
-2.73232e-155
1.9935e-149
-1.9229e-156
1.1058e-154
4.89867e-09
1.72324e-08
-2.71593e-07
1.64585e-08
1.7432e-08
1.70442e-08
9.88838e-10
2.92258e-09
4.06199e-09
2.01042e-09
8.76962e-09
-2.315e-08
-1.51852e-08
-1.8776e-08
-1.90354e-08
-1.9545e-08
1.07596e-08
1.33832e-08
2.76478e-08
3.17871e-08
2.7402e-08
1.35634e-08
1.54167e-08
2.5282e-08
-2.20724e-09
1.59745e-08
6.73991e-09
8.49922e-09
-2.86207e-09
-2.5789e-08
-1.40221e-07
-6.48029e-08
1.60947e-07
-5.67958e-08
1.33273e-09
-1.65646e-08
1.76558e-09
-5.98439e-10
1.46275e-08
-9.21654e-11
6.02591e-11
8.62759e-12
-7.09745e-11
1.94724e-10
2.03928e-16
-8.96622e-19
1.82981e-16
1.10867e-14
6.20712e-15
-1.6232e-14
6.57247e-17
-1.96558e-08
-1.96558e-08
-1.96558e-08
-1.96558e-08
7.57485e-25
-8.39734e-21
2.99641e-23
2.74792e-19
9.7664e-21
2.75871e-19
5.22385e-19
3.32958e-27
-1.16054e-24
-6.76403e-26
2.89857e-27
-3.34762e-28
5.11933e-30
1.87794e-29
-6.8809e-29
-1.29916e-30
2.72692e-33
-8.57324e-32
1.04851e-34
1.95583e-37
-7.05656e-36
-3.58398e-36
6.74419e-41
-1.86411e-39
-1.61372e-39
2.73066e-44
-5.41558e-43
-4.26622e-43
1.11346e-47
-7.45951e-47
-6.78955e-46
4.53662e-51
-4.72716e-50
6.93122e-49
1.82867e-54
1.97841e-53
-1.85964e-52
7.40591e-58
-2.45874e-58
-3.49695e-55
2.99887e-61
-5.94657e-61
-4.42362e-58
1.24686e-64
-5.6529e-65
-7.31673e-62
5.50807e-68
2.92918e-67
-2.11353e-64
2.20408e-71
1.08725e-70
1.85967e-67
9.09405e-75
2.65442e-74
-3.66096e-71
3.92628e-78
-4.02721e-77
-1.40279e-73
2.39627e-81
1.20913e-81
-1.46099e-77
3.83024e-84
9.85086e-85
-3.34642e-80
4.57947e-88
-7.14317e-87
-3.54081e-84
3.30144e-91
6.46544e-92
5.36908e-87
1.03047e-93
2.23307e-94
-6.07017e-90
6.05655e-97
-7.47826e-99
-1.10816e-92
8.18009e-101
-4.07904e-100
-2.62457e-96
5.62216e-104
5.85585e-105
1.46938e-100
8.18149e-107
4.902e-108
3.48926e-102
1.28542e-110
2.5765e-112
-9.12982e-106
7.91362e-114
-3.60096e-113
-1.44116e-110
2.40114e-116
-1.24419e-116
1.84123e-113
9.9241e-119
2.46579e-119
-2.87193e-115
7.35596e-123
3.56181e-123
1.3027e-117
6.13778e-126
-7.4255e-127
-8.38141e-122
1.38266e-128
3.68184e-130
-3.71333e-124
1.42811e-132
-7.76508e-133
4.40553e-127
1.72863e-135
-3.31487e-134
-1.25418e-131
6.03209e-138
4.14417e-139
-2.50948e-134
7.23792e-142
-4.7715e-144
-5.3536e-138
1.87369e-145
1.81932e-144
-1.72366e-140
9.11956e-149
7.92701e-149
-3.74521e-144
1.11716e-151
-4.13766e-152
4.13375e-148
-1.02751e-153
-1.23497e-150
1.89743e-08
3.11764e-08
1.6815e-08
2.44818e-08
-8.82054e-09
2.72399e-08
-4.71121e-09
5.67303e-09
3.25487e-08
-1.97709e-09
-9.78443e-09
-6.88413e-09
-1.00438e-08
3.66187e-08
2.44526e-10
-4.99018e-08
1.30614e-08
6.68568e-09
-7.46376e-08
-3.76807e-09
4.01918e-08
-6.27573e-08
1.8267e-08
1.96727e-08
1.00287e-08
1.57787e-08
-8.83278e-10
-1.97274e-08
2.90974e-09
-5.64039e-09
2.18008e-08
-2.82386e-09
-4.80377e-12
7.8193e-12
-6.57125e-11
3.43578e-10
2.3989e-13
3.90374e-15
3.09097e-08
6.36527e-15
3.09097e-08
5.92531e-23
6.91099e-21
-1.12084e-21
5.70761e-18
5.83223e-18
6.6497e-18
5.35401e-18
1.4039e-25
9.45231e-25
-1.95793e-25
8.52184e-27
1.02049e-26
-1.07552e-29
2.73873e-28
2.08541e-28
3.38547e-29
8.33518e-32
4.7693e-31
3.79221e-32
4.1579e-36
7.38284e-35
-1.5335e-34
1.19186e-39
1.4139e-38
-2.92394e-37
4.76852e-43
3.67433e-42
-1.10858e-40
1.9266e-46
8.07902e-46
-2.62113e-44
7.7871e-50
2.28167e-49
7.78104e-48
3.15987e-53
6.55405e-53
1.65635e-50
1.28377e-56
8.51794e-57
-6.23655e-53
5.20518e-60
2.58947e-60
-1.18719e-57
2.15095e-63
3.32875e-65
-3.37555e-60
8.53897e-67
1.78113e-67
-7.30599e-63
3.53446e-70
5.87744e-71
1.77768e-66
1.53225e-73
5.43644e-74
-1.64426e-69
7.57744e-77
3.91086e-77
-5.74266e-72
3.33628e-80
5.97842e-81
-3.91052e-76
2.55534e-83
2.69862e-84
1.07444e-78
4.24881e-86
5.31889e-87
-7.12254e-82
1.144e-89
-5.89813e-89
-1.72591e-84
8.21154e-93
-1.75468e-92
-1.06938e-88
3.62621e-96
4.20993e-97
-3.93471e-91
6.40366e-99
-2.41559e-100
-4.78934e-94
7.21343e-103
-9.20231e-104
-3.5859e-98
2.62923e-106
1.22107e-106
4.32742e-101
4.13147e-109
5.99588e-110
1.06808e-104
1.54888e-111
-7.26875e-114
-2.70323e-107
1.47854e-115
1.73427e-117
5.20224e-111
8.32872e-119
-5.34573e-120
2.20396e-119
2.3729e-121
1.31243e-122
1.02018e-116
1.5638e-125
2.92228e-125
-2.37121e-122
1.55227e-128
-6.92192e-127
5.86555e-124
8.5421e-131
-1.16243e-130
-8.5153e-127
1.72281e-133
4.01086e-135
-7.63355e-129
1.63831e-137
2.60255e-139
2.9403e-133
1.94261e-140
-2.90233e-141
1.54739e-137
1.15465e-142
9.21101e-144
-4.92692e-139
1.36306e-146
8.04676e-147
-3.31307e-143
9.92084e-150
3.13245e-150
-1.31609e-145
2.91948e-154
-1.23524e-148
-1.33989e-08
3.15817e-08
1.0527e-08
-7.84014e-10
-1.81254e-08
1.17121e-08
1.38191e-09
-1.44962e-09
3.33802e-08
1.8533e-08
-1.14182e-07
2.65545e-07
4.64721e-08
-1.19515e-08
1.62122e-08
2.4949e-08
9.57273e-08
1.71701e-07
1.69119e-07
5.93502e-08
4.77163e-08
-2.46192e-08
-3.22881e-08
-9.25416e-11
5.03041e-08
1.98447e-08
-2.08285e-08
4.98675e-08
4.7334e-08
1.95802e-08
3.94607e-09
-7.57019e-09
7.47012e-09
3.31208e-09
-6.42717e-09
-1.31451e-09
-2.26662e-10
3.37522e-10
2.47015e-12
2.40971e-10
-6.4066e-14
9.27515e-16
6.27763e-08
1.14674e-14
6.27763e-08
-2.68613e-23
2.29448e-21
-1.80027e-21
5.76797e-18
5.49847e-18
6.59891e-18
5.02241e-18
3.72896e-26
4.91773e-25
-1.37222e-25
7.75395e-27
6.77985e-27
-1.54639e-30
2.11842e-28
1.63683e-28
-5.22899e-29
7.11468e-32
3.8831e-31
-2.13966e-31
3.49236e-36
6.11263e-35
-1.41641e-34
9.69839e-40
9.92292e-39
-1.86997e-37
3.85644e-43
2.49832e-42
5.17199e-41
1.56964e-46
6.42941e-46
-1.72473e-44
6.42189e-50
2.22188e-49
-3.31379e-46
2.6369e-53
4.79357e-53
3.65858e-51
1.11061e-56
1.6043e-56
-8.96503e-53
4.32098e-60
-2.43229e-60
4.00192e-56
1.73484e-63
5.50152e-64
-1.06311e-59
7.34274e-67
4.86822e-67
-1.06851e-62
3.21225e-70
-2.01195e-72
-7.47441e-66
3.24627e-73
-5.68473e-75
1.48306e-69
1.38431e-75
1.10704e-76
-9.45224e-72
8.69744e-80
4.9378e-81
-1.05452e-75
4.31598e-83
-8.31164e-85
-5.51658e-80
1.11871e-85
7.41546e-87
-1.16409e-81
1.85824e-88
1.09734e-88
-2.14396e-84
8.46717e-92
3.51553e-92
-1.08538e-87
2.87363e-95
-5.80197e-97
-6.14267e-91
7.53067e-99
-2.64413e-101
-1.25441e-94
4.027e-102
1.9263e-103
-6.0536e-97
2.47725e-105
5.37934e-106
8.20086e-101
7.74501e-109
-1.46826e-110
1.69458e-104
5.32248e-112
2.72376e-113
-8.26111e-108
4.97784e-115
3.39198e-116
-3.8182e-110
1.20115e-118
-2.07498e-120
-3.46326e-114
2.23619e-121
-5.47906e-123
3.03754e-117
7.30738e-124
-4.32987e-126
-3.25093e-120
1.77981e-126
2.35776e-128
-2.82515e-122
1.85531e-130
2.86443e-132
-1.59517e-125
5.71007e-134
3.61217e-135
1.45546e-129
2.63048e-137
-7.79948e-140
-3.0141e-133
2.19687e-140
-1.74527e-143
3.35207e-137
3.81086e-144
2.74708e-145
-4.90889e-144
1.43432e-147
3.41015e-149
7.10275e-143
5.64663e-151
2.34495e-152
-3.95167e-146
2.74653e-155
3.53858e-154
6.40613e-08
-2.55437e-08
1.44893e-07
9.80926e-08
1.13877e-07
9.84437e-08
6.86553e-08
6.93013e-08
6.51458e-08
-2.63374e-08
-2.79031e-08
-2.73036e-08
-2.5178e-08
-3.75205e-08
3.27152e-08
7.5941e-08
7.63134e-08
1.41773e-08
5.40338e-09
3.1134e-08
1.35374e-08
-2.6829e-08
-4.42798e-08
2.3114e-08
-6.91852e-08
7.52138e-09
5.44351e-08
8.46666e-09
7.70429e-09
1.59992e-09
4.80542e-08
1.2074e-08
4.16113e-08
3.73732e-08
-1.85985e-08
2.35063e-10
2.16858e-08
-2.84895e-09
-7.47251e-09
-1.27285e-08
-4.07467e-10
-8.91421e-10
9.36305e-10
-7.03337e-11
8.75241e-11
-1.36512e-15
-2.83797e-15
2.21645e-08
-5.57914e-13
2.21645e-08
4.90088e-25
6.09314e-21
-2.89997e-21
3.24101e-19
2.5762e-19
6.47692e-20
3.78774e-19
2.44848e-26
6.76738e-25
-1.84157e-26
2.39866e-27
7.41182e-28
2.2889e-30
1.96763e-29
4.47292e-30
-1.05056e-32
2.17648e-33
2.32262e-33
2.91786e-33
1.57432e-37
4.01813e-37
2.94563e-36
5.33802e-41
7.34003e-41
3.39697e-40
2.13889e-44
1.85485e-44
2.75941e-43
8.65024e-48
4.83627e-48
-1.82293e-46
3.51633e-51
1.30085e-51
-3.57833e-48
1.43059e-54
4.17949e-55
-1.16984e-52
5.90593e-58
1.06645e-58
-9.21957e-55
2.48156e-61
1.78687e-62
-1.20689e-57
9.80887e-65
6.60248e-66
-5.93253e-62
4.07921e-68
3.24175e-69
-1.19358e-66
1.81314e-71
2.52252e-73
-3.34542e-68
9.0602e-75
2.69922e-76
-4.46295e-71
2.88524e-78
-7.6002e-80
4.23921e-78
1.27641e-81
-7.03006e-83
-2.04705e-78
1.73669e-84
-6.45636e-86
-1.34819e-80
4.69978e-87
3.43272e-88
-7.07997e-83
3.2211e-91
1.25218e-92
1.30438e-86
1.05147e-94
-4.00719e-96
-5.68319e-92
4.13657e-98
-1.02102e-99
-1.72042e-95
2.20438e-101
-1.10396e-102
5.65814e-101
2.33245e-104
3.45945e-106
-2.12957e-99
1.77722e-107
3.98604e-110
-5.5176e-103
1.3481e-110
5.00079e-112
-1.3261e-105
9.30897e-114
4.19311e-116
-1.35e-110
2.77446e-116
5.57058e-118
-1.60421e-111
8.57314e-120
4.00093e-122
-8.84502e-116
6.11841e-123
6.0119e-125
-1.21643e-119
1.71265e-126
-7.77554e-129
-5.99085e-123
2.64932e-129
1.10286e-131
-2.85849e-125
3.74287e-133
4.37166e-135
7.39729e-129
2.98394e-136
6.29197e-139
5.51894e-132
8.40037e-139
6.77387e-142
-6.05516e-135
3.58431e-142
3.7068e-146
-5.48455e-138
2.18733e-144
1.12964e-147
-6.60897e-141
1.0194e-148
-1.77821e-151
2.30846e-149
1.45159e-151
8.16083e-155
5.19039e-151
7.42824e-155
-4.4183e-150
5.86464e-10
4.37081e-08
-2.09476e-07
3.92671e-08
4.43407e-08
3.93777e-08
-2.17529e-07
-1.84898e-07
-1.0376e-07
1.19903e-07
3.23362e-08
-1.79531e-07
3.26466e-08
7.04994e-09
-1.02695e-08
-4.39476e-09
3.36249e-09
-4.31423e-09
8.28269e-10
-1.79256e-07
-1.61399e-07
-1.23685e-07
3.49613e-08
3.33816e-08
3.45769e-08
1.51567e-07
4.95929e-08
-3.80593e-07
3.33453e-08
4.11973e-08
3.57329e-08
3.62284e-08
-1.08767e-08
-2.46129e-07
-4.56015e-08
-2.72726e-07
-1.30181e-07
-2.12416e-08
3.22308e-08
-1.39331e-08
4.53076e-08
-2.12938e-08
-2.12762e-08
-2.11217e-08
-1.94507e-07
-6.27418e-08
-2.4527e-07
-1.87256e-07
3.61904e-09
2.76289e-08
2.32235e-09
3.83598e-09
-3.54399e-08
3.27225e-10
-7.56262e-10
2.01182e-09
4.67502e-11
1.1747e-09
6.06619e-16
-9.40981e-17
4.58199e-09
4.58199e-09
4.40262e-18
5.16202e-16
3.47843e-16
5.18835e-16
-8.41684e-25
-2.66011e-22
-4.01678e-23
3.66854e-21
2.7119e-21
4.88742e-21
4.49507e-21
9.10918e-26
2.13269e-26
1.53634e-26
1.15169e-27
1.48799e-27
6.30759e-30
2.67365e-31
2.69774e-31
1.32345e-31
2.04203e-35
3.4149e-34
-3.86751e-34
1.07375e-38
1.13709e-37
1.97988e-37
3.54086e-42
1.47524e-41
-1.45614e-40
1.34087e-45
3.24937e-45
-4.96836e-44
5.42332e-49
8.34474e-49
-5.87858e-47
2.22018e-52
2.69467e-52
-2.03617e-49
9.17495e-56
7.98518e-56
4.21304e-52
3.78583e-59
6.31701e-60
1.67934e-56
1.57227e-62
7.05386e-63
1.38136e-59
6.75685e-66
6.69997e-67
-2.04772e-62
2.74042e-69
6.44011e-70
-3.37201e-65
1.09228e-72
-3.16637e-74
-7.13161e-71
4.85416e-76
-1.1742e-77
1.54454e-73
3.04797e-79
2.15285e-82
-4.28074e-75
1.92269e-82
5.06092e-84
-2.31751e-78
5.44775e-86
-2.61104e-87
8.9155e-82
3.23617e-89
5.91254e-91
1.19631e-87
3.4408e-92
1.06853e-94
-1.43125e-87
8.69417e-96
-3.31561e-97
4.07126e-91
1.37372e-98
5.71203e-100
-1.29309e-94
6.77414e-102
-9.49561e-103
2.09094e-99
1.69353e-105
-1.32588e-106
4.80922e-100
1.96834e-108
5.00856e-111
-2.44617e-105
3.69471e-111
4.01166e-113
-5.54091e-107
7.63948e-115
-1.17046e-116
-4.0391e-110
1.19547e-117
1.23689e-119
-6.05726e-113
4.4155e-121
8.61807e-124
-1.31642e-117
1.6349e-124
8.80488e-127
6.49326e-119
4.95208e-128
-2.12682e-130
5.31628e-123
4.61265e-131
-7.62272e-133
-7.31189e-127
6.55992e-134
-4.82152e-135
1.43005e-128
3.0102e-137
3.32333e-139
8.62879e-133
5.10417e-141
-5.10375e-144
-1.06018e-136
1.79459e-144
3.32144e-146
-5.1365e-140
6.85961e-148
-2.65526e-149
-9.13129e-147
2.55661e-151
-2.14421e-151
4.7631e-150
-1.72349e-153
-2.24829e-154
4.49021e-153
-1.24024e-159
-4.11051e-152
3.71361e-08
3.07474e-08
5.09556e-08
2.60365e-08
-7.59174e-08
-4.22317e-08
-8.22663e-08
5.44133e-08
3.84792e-08
5.16565e-08
-1.67695e-07
1.49897e-07
-1.48853e-08
-1.23934e-09
-3.53574e-08
-8.07579e-09
2.1425e-08
1.9604e-07
6.97842e-08
-8.89058e-09
3.17447e-09
2.10337e-09
-5.40516e-09
5.69919e-08
4.868e-08
1.52768e-08
4.47919e-08
-1.66233e-07
7.14194e-08
-1.2917e-07
3.75379e-08
7.87813e-08
3.63956e-08
8.53608e-08
-1.15714e-08
1.80048e-09
-5.51169e-09
-7.57056e-10
1.57108e-08
2.48908e-10
9.81493e-11
-2.47454e-08
-1.26498e-10
-2.47203e-08
2.53167e-16
-7.57306e-19
3.22594e-08
3.22594e-08
-8.41554e-19
4.22144e-25
-2.71078e-22
2.56292e-23
9.48531e-22
1.00005e-21
9.97479e-22
9.90557e-22
-4.98663e-28
-1.88892e-26
3.01569e-27
4.9412e-29
-2.6935e-28
1.72577e-31
2.31789e-31
-1.32526e-30
5.25719e-33
1.03832e-35
-5.1822e-34
-1.17826e-36
1.117e-39
-6.61938e-38
-6.6767e-41
4.0858e-43
-1.61509e-41
-2.19125e-43
1.6336e-46
-3.59507e-45
-9.57563e-46
6.55852e-50
-1.13921e-48
3.3747e-49
2.63355e-53
-2.92873e-52
-7.40975e-52
1.05756e-56
-5.09611e-56
1.3047e-54
4.23804e-60
-2.17287e-59
1.75958e-58
1.69684e-63
-7.78038e-63
-8.49876e-62
6.79583e-67
-2.13253e-67
-1.34891e-65
2.72072e-70
-4.38754e-70
-8.63954e-69
1.11886e-73
-1.81546e-74
-3.12119e-71
4.7024e-77
-1.63367e-78
-3.74135e-74
1.79023e-80
4.79058e-81
3.27299e-78
7.14569e-84
-6.32353e-84
-1.46769e-81
2.87126e-87
-1.19501e-87
-3.04071e-83
1.15037e-90
-2.29268e-90
-1.08757e-87
8.69359e-94
-6.00015e-94
4.54253e-90
1.88727e-96
1.82953e-99
-2.92162e-93
2.21672e-100
-2.41212e-100
-5.12645e-97
7.26233e-104
-8.81232e-103
1.1084e-99
5.35409e-107
-1.34799e-106
-1.07963e-103
1.36603e-109
-4.26816e-110
-7.6844e-106
2.15918e-113
1.95886e-113
2.14787e-108
1.06982e-116
1.90427e-115
-3.01291e-112
2.55779e-120
-1.87479e-120
5.22727e-116
1.99993e-123
4.6341e-123
1.63145e-123
5.91423e-126
3.88684e-127
1.53141e-122
6.97443e-129
-8.44311e-130
3.08084e-125
9.99736e-132
6.96153e-133
-8.65493e-129
1.31997e-135
1.33251e-134
-5.6133e-131
3.60239e-139
-3.92732e-139
6.7997e-137
1.8336e-142
-9.16431e-143
4.29073e-138
2.52273e-145
-4.97643e-145
-2.3772e-140
5.91578e-148
-8.24931e-149
3.71182e-145
7.76854e-151
-9.71345e-151
-1.88562e-147
1.21946e-153
-1.95421e-154
-4.9285e-150
-2.88102e-157
4.12607e-155
2.14171e-08
5.07781e-09
2.96178e-08
4.18597e-08
3.61356e-08
2.30841e-08
5.766e-09
3.77893e-09
-1.44864e-07
2.7144e-08
-1.66102e-07
4.20594e-07
-2.00518e-08
7.08315e-08
4.2614e-08
7.73334e-08
4.30293e-08
2.32435e-08
-2.77812e-08
2.91881e-08
2.96371e-08
-1.90317e-08
-3.75236e-08
3.05486e-09
-4.36326e-08
-6.97396e-08
-7.63513e-08
3.6193e-09
-1.48133e-09
7.01272e-09
6.22481e-10
-1.20968e-08
-8.03844e-12
7.91729e-13
1.79727e-08
5.00349e-12
1.7973e-08
2.93497e-22
9.30127e-22
-2.01817e-19
-3.927e-19
-1.26759e-18
1.50238e-19
-1.71196e-18
-1.71222e-18
-1.7081e-18
-1.71227e-18
-4.56113e-26
-8.66458e-26
2.69892e-27
-3.60658e-30
1.93127e-28
-1.10028e-30
3.20212e-31
2.85455e-33
2.28101e-35
3.68309e-35
3.60033e-39
1.98693e-38
1.33393e-42
-6.04387e-42
5.34301e-46
-1.24317e-44
2.14499e-49
-8.7639e-49
8.62891e-53
4.17753e-51
3.48865e-56
-8.96464e-55
1.41063e-59
-1.93835e-56
5.63404e-63
-4.91173e-60
2.26076e-66
7.9446e-65
9.06187e-70
1.305e-66
3.67824e-73
1.18229e-71
1.51824e-76
-3.4627e-73
6.26556e-80
-6.14046e-76
2.62294e-83
3.81202e-79
2.19862e-86
-6.80304e-83
4.61649e-89
-1.81734e-85
5.78601e-93
-1.13895e-88
3.45565e-96
-3.03704e-92
7.54422e-99
3.22752e-95
3.12399e-102
-2.4493e-98
1.16275e-105
4.14093e-102
3.69267e-109
-1.30657e-104
4.01965e-112
5.38465e-107
7.83614e-115
-2.69942e-110
2.7948e-118
1.55414e-114
9.4676e-121
-2.32216e-117
6.80744e-125
-5.20162e-122
1.99364e-128
1.33227e-124
2.53558e-131
-4.16437e-127
1.28391e-133
-3.90876e-130
1.26694e-137
5.22798e-133
9.43243e-141
3.86954e-136
1.17663e-143
1.51187e-139
3.80302e-147
-3.63253e-144
2.35969e-150
-1.23237e-146
4.09778e-154
2.45754e-149
9.84397e-153
7.95787e-08
7.60767e-08
4.14678e-08
4.61651e-10
1.53704e-08
-4.32765e-08
-1.69137e-09
-2.49248e-08
-1.75424e-08
-1.84346e-08
-1.5941e-08
4.1332e-08
8.04414e-09
1.38266e-07
1.60208e-07
9.21545e-09
8.82411e-08
8.1058e-08
5.42493e-08
1.67894e-07
-3.04139e-08
-3.0403e-08
-3.23457e-08
-3.20108e-08
1.76392e-07
1.81781e-07
1.63389e-07
-4.14204e-07
-2.45214e-08
3.30632e-09
-1.44742e-07
7.20527e-09
-3.36322e-08
4.17787e-09
-2.67336e-09
-3.2063e-09
3.51826e-08
-7.8151e-12
-7.58911e-14
5.87701e-14
4.82284e-08
4.82265e-08
-5.37379e-22
-1.74905e-18
-3.20701e-21
5.34044e-20
1.27636e-18
-8.88497e-19
1.07993e-18
1.72592e-25
-5.35009e-22
1.08944e-25
1.09146e-26
-1.65515e-25
1.95685e-29
1.49562e-27
-6.37115e-28
1.24882e-30
8.66721e-30
-3.97416e-30
-6.09683e-33
4.20282e-33
-2.50877e-33
7.7762e-35
6.28455e-37
-1.6611e-37
2.83903e-38
3.12848e-40
-7.18773e-41
1.206e-41
2.28687e-43
6.55905e-44
-2.19419e-44
1.62394e-46
6.28595e-47
-8.82973e-49
1.12505e-49
-5.85846e-51
-2.44725e-50
7.78523e-53
-3.1686e-53
3.23303e-53
5.39993e-56
1.23143e-56
2.46239e-56
3.74387e-59
-3.15152e-61
5.38013e-60
2.59253e-62
-2.05642e-63
3.15038e-64
1.7962e-65
-1.22657e-65
-6.57934e-66
1.24394e-68
2.51437e-70
-8.93265e-72
8.6094e-72
-3.06159e-72
-1.58863e-73
5.95591e-75
-1.14661e-75
-1.83052e-76
4.1186e-78
9.76572e-79
-8.92632e-79
2.84656e-81
-4.71375e-83
1.31443e-82
1.965e-84
1.3681e-85
-6.83405e-86
1.35551e-87
3.54766e-90
2.17067e-89
9.33877e-91
1.78431e-91
1.13297e-91
6.43005e-94
3.81322e-95
1.07905e-96
4.42264e-97
-1.35443e-97
-4.63376e-97
3.03951e-100
1.40489e-100
-1.09695e-100
2.08641e-103
1.359e-104
1.82652e-105
1.42875e-106
9.90009e-108
7.71476e-107
9.75557e-110
2.23262e-110
1.17462e-110
6.65476e-113
-5.3128e-115
1.0722e-114
4.53535e-116
7.28059e-117
-2.57321e-122
3.08475e-119
-1.88659e-121
2.79008e-120
2.09436e-122
1.48298e-123
6.24804e-124
1.41865e-125
-1.58828e-126
-4.49973e-128
9.58461e-129
-4.4857e-129
1.3249e-129
6.46093e-132
1.00887e-132
4.6303e-139
4.34737e-135
1.38662e-137
-3.36033e-136
2.91798e-138
1.0398e-138
1.95509e-138
1.95745e-141
7.00629e-144
1.42624e-143
1.30993e-144
-3.45295e-147
1.0114e-146
8.3838e-148
1.53948e-151
-6.2899e-150
1.05771e-151
8.41524e-152
4.32298e-09
1.36603e-08
1.16855e-07
4.05731e-09
4.34981e-09
4.83506e-09
3.66312e-09
6.79623e-09
1.97336e-08
3.41979e-07
1.77307e-08
1.92753e-08
1.85612e-08
2.35481e-08
2.09058e-08
2.33881e-08
2.24089e-08
4.79989e-09
8.0234e-09
5.17079e-09
-1.20322e-08
4.16665e-08
3.66374e-09
-6.72548e-09
-8.50472e-09
-8.94292e-09
-9.96396e-09
3.16746e-08
1.76966e-08
-4.75695e-08
-1.75216e-08
6.19947e-08
-9.65492e-09
-1.37199e-08
2.02263e-09
3.76428e-09
5.88423e-09
3.62715e-10
-9.92645e-09
-9.58872e-09
-1.18228e-08
-1.03537e-08
-4.38901e-07
-4.45464e-07
-4.48396e-07
-4.44247e-07
-3.47724e-07
5.76409e-09
1.47338e-08
-1.70466e-08
-2.12734e-07
3.05792e-08
3.18458e-09
1.31577e-08
1.32526e-09
2.91373e-09
-5.2254e-08
2.86172e-11
-5.29005e-12
-1.05155e-12
9.72063e-12
2.93941e-12
-1.9762e-15
1.38343e-20
-6.79233e-18
2.26317e-19
1.62813e-17
-1.29018e-17
1.54344e-17
-1.23886e-17
-5.30964e-18
-5.90938e-18
-5.30703e-18
6.03082e-24
-4.3998e-22
-5.02099e-25
2.85668e-27
-1.30212e-24
1.04066e-27
2.36214e-28
-4.88434e-26
8.03552e-31
1.05164e-30
-1.66465e-28
3.34801e-33
1.67058e-34
-6.93637e-33
1.47091e-35
3.61569e-38
-1.38098e-36
-1.0923e-39
2.56617e-41
-7.20496e-40
-5.8302e-44
1.83147e-44
-3.52405e-43
-2.39344e-45
1.26521e-47
-1.22689e-46
4.82679e-50
8.69286e-51
-4.35853e-50
2.07779e-51
5.97446e-54
-3.36396e-54
3.93024e-55
4.10742e-57
-1.67459e-56
-2.13212e-59
2.82188e-60
-9.97096e-61
-7.27612e-61
1.93695e-63
-5.67352e-64
-2.21977e-64
1.32975e-66
4.8793e-67
-5.41908e-68
9.12968e-70
-3.13353e-69
1.85148e-70
6.26142e-73
-6.75833e-74
-2.60091e-74
4.29635e-76
4.56804e-76
-5.57592e-79
2.94713e-79
-2.41318e-80
3.71023e-80
2.01995e-82
3.35384e-84
-1.82203e-84
1.38392e-85
6.56188e-86
4.66809e-87
9.47377e-89
1.27383e-88
3.44418e-89
6.49302e-92
4.02178e-94
-1.86985e-93
4.4426e-95
-1.36628e-96
-6.85889e-97
3.0369e-98
6.81157e-100
1.22704e-98
2.07396e-101
-1.7923e-101
7.9806e-102
1.41508e-104
2.85139e-105
-2.24467e-106
9.64402e-108
1.63043e-107
-5.57848e-108
6.56501e-111
5.06495e-113
9.78327e-112
4.4617e-114
3.44712e-115
5.63223e-117
3.02614e-117
-2.95952e-117
6.72953e-118
2.04788e-120
2.56483e-121
9.47573e-124
1.38529e-123
-7.95674e-124
1.97896e-124
9.35357e-127
-2.24587e-126
7.98472e-127
6.30551e-130
-6.70395e-132
-2.67398e-131
4.24864e-133
-1.28801e-133
-1.11658e-134
2.85236e-136
1.25051e-136
-6.28091e-137
1.91298e-139
2.0448e-142
3.7349e-140
1.28082e-142
2.67032e-143
2.51243e-143
8.55791e-146
2.83724e-146
1.86096e-147
5.48649e-149
5.38602e-150
5.29969e-151
1.14668e-152
9.27581e-158
1.13349e-09
1.72058e-08
-5.53651e-08
-4.4455e-09
-5.21841e-10
3.12993e-09
1.85041e-07
1.9266e-08
-1.47738e-09
1.35519e-08
4.84843e-07
1.51118e-08
2.3324e-08
4.9892e-08
2.78812e-08
1.68616e-08
-2.49678e-09
2.43547e-09
-1.2575e-07
-1.37942e-08
2.149e-08
2.71741e-08
-3.85092e-09
1.3449e-08
1.63109e-08
-2.48943e-08
-2.50667e-08
-2.58493e-08
-2.30031e-08
-6.67304e-08
-7.51839e-08
-8.19175e-08
-7.68574e-08
-6.14633e-08
-1.58914e-08
-2.19467e-08
6.80781e-09
1.64258e-07
6.92935e-08
-3.29393e-09
-1.27357e-08
4.1998e-09
5.20803e-09
-6.28763e-08
-1.01212e-11
1.93489e-10
2.35203e-12
-1.02951e-10
-1.30484e-10
1.9576e-10
5.8466e-18
-5.45286e-18
-5.09138e-18
-4.67613e-18
5.84829e-19
1.34915e-17
6.84489e-18
3.70562e-17
1.57788e-23
-1.07008e-20
1.3299e-22
-5.27955e-20
-5.07841e-20
-5.54585e-20
-5.05132e-20
1.40401e-24
-3.20079e-24
1.79615e-26
6.78065e-26
1.66626e-26
-1.05742e-29
8.05616e-29
-1.17904e-29
5.6408e-31
6.75683e-33
1.56119e-32
8.43387e-35
2.35215e-36
4.31142e-36
-2.16188e-38
1.74595e-39
3.27453e-39
3.12283e-42
1.22463e-42
1.51884e-42
2.43149e-44
8.38216e-46
6.24659e-46
1.18234e-46
5.72976e-49
4.47115e-49
2.28764e-49
3.90842e-52
2.82241e-52
1.11747e-52
2.66495e-55
2.88085e-57
-1.22246e-56
1.81623e-58
-3.75807e-59
7.85506e-60
1.23644e-61
-1.40068e-62
1.67088e-63
8.41034e-65
3.42481e-65
5.8347e-65
5.71165e-68
3.01135e-70
7.7868e-69
3.87549e-71
4.37913e-72
-4.19483e-73
2.63045e-74
7.77306e-76
-7.38352e-76
1.78327e-77
2.63975e-78
-6.49367e-79
1.20674e-80
9.96144e-81
-4.71939e-83
8.17178e-84
1.88187e-84
-1.07673e-85
5.53509e-87
-1.29912e-87
3.31359e-87
3.74347e-90
1.08112e-90
2.07357e-95
2.53174e-93
-1.80508e-94
5.66419e-99
1.70869e-96
6.18739e-97
5.45993e-97
1.1502e-99
7.40097e-101
-2.03958e-101
7.74036e-103
2.16564e-104
-1.78047e-103
5.20424e-106
-4.37182e-107
-2.683e-106
3.49274e-109
5.04567e-110
5.8981e-110
2.34232e-112
-5.84998e-114
9.85595e-115
1.56771e-115
3.46287e-116
3.25393e-117
1.04622e-118
-1.50298e-119
4.19757e-119
6.97958e-122
-1.4817e-122
2.71654e-122
4.64795e-125
8.18184e-126
1.17411e-125
3.09225e-128
-2.69379e-128
6.24494e-129
2.05591e-131
-5.04603e-132
-2.33062e-132
1.36374e-134
8.79746e-135
-8.54393e-136
9.02662e-138
3.50417e-138
-5.92515e-140
5.96357e-141
9.34294e-142
7.11149e-142
3.9317e-144
6.05315e-145
1.11239e-145
2.51835e-147
6.59201e-149
-8.49033e-149
-5.76453e-151
8.79277e-152
-1.54778e-08
6.79999e-09
4.28604e-07
4.66606e-09
6.24949e-09
7.70756e-09
-1.44712e-08
-1.588e-08
-1.22676e-08
-9.12622e-09
-1.35992e-08
-1.08172e-08
-7.60756e-08
-1.70507e-08
-5.53017e-08
-7.07521e-07
-3.63715e-08
-5.18359e-07
1.95088e-07
-4.22592e-08
-1.63522e-08
2.25964e-08
-1.28493e-07