/*--------------------------------*- C++ -*----------------------------------*\
| =========                 |                                                 |
| \\      /  F ield         | OpenFOAM: The Open Source CFD Toolbox           |
|  \\    /   O peration     | Version:  5.0                                   |
|   \\  /    A nd           | Web:      www.OpenFOAM.org                      |
|    \\/     M anipulation  |                                                 |
\*---------------------------------------------------------------------------*/
FoamFile
{
    version     2.0;
    format      ascii;
    class       volScalarField;
    location    "3";
    object      alpha.water;
}
// * * * * * * * * * * * * * * * * * * * * * * * * * * * * * * * * * * * * * //

dimensions      [0 0 0 0 0 0 0];

internalField   nonuniform List<scalar> 
9011
(
1.03386
1.04755
0.991713
1.01298
1.03405
0.980654
-6.70343e-13
-1.30532e-18
-1.61061e-21
9.1209e-18
1.15479e-18
1.13874e-20
4.75568e-24
2.52203e-28
6.73668e-32
2.82908e-35
1.16368e-38
5.02355e-42
2.15767e-45
8.58265e-49
4.12746e-52
1.7752e-55
8.14556e-59
2.67261e-62
1.57482e-65
1.86689e-68
5.43635e-72
1.06118e-75
1.52672e-78
8.06614e-82
9.43847e-85
1.11248e-88
2.35459e-91
9.13288e-94
2.82718e-97
2.54704e-100
1.42723e-103
3.64453e-106
3.48289e-110
3.51453e-114
2.00462e-117
1.20697e-119
1.11754e-122
6.31604e-125
1.22108e-128
1.11209e-131
1.77264e-135
2.08601e-139
4.97845e-141
1.98309e-144
1.0452
0.985392
1.03299
1.01175
1.0409
1.00448
0.0488817
-1.06842e-17
-2.01587e-19
8.24583e-22
8.96044e-20
2.33418e-21
1.05643e-24
3.74677e-29
9.8469e-33
4.02043e-36
1.69184e-39
7.21986e-43
3.09775e-46
1.25633e-49
5.32175e-53
2.26148e-56
1.17149e-59
6.02263e-63
1.9987e-66
1.28305e-69
4.47019e-73
1.99517e-76
7.86231e-80
1.09937e-82
5.25638e-86
1.37182e-88
1.70646e-92
3.75452e-95
9.21793e-99
1.93217e-101
5.18916e-105
3.44787e-109
1.3084e-110
1.0749e-113
1.41672e-117
1.47832e-120
1.78928e-124
3.05773e-128
1.49135e-130
5.65404e-134
4.19549e-137
7.29734e-141
1.89016e-144
3.19687e-145
1.00712
0.955582
1.02897
1.06624
1.0156
1.00247
0.85827
-1.59331e-17
-3.49434e-19
1.64912e-16
1.16354e-17
3.94659e-20
1.33275e-23
5.64623e-27
1.05657e-30
3.1008e-34
1.27207e-37
5.47221e-41
2.36972e-44
9.9748e-48
4.29806e-51
1.82789e-54
8.16609e-58
3.23434e-61
1.53112e-64
6.54915e-68
2.9933e-71
1.02415e-74
7.30918e-78
9.09502e-81
9.45029e-85
3.30718e-88
1.05776e-89
6.95706e-93
5.51838e-97
2.98229e-100
1.61589e-103
1.35303e-107
2.96846e-109
2.69032e-112
3.15509e-116
2.30073e-119
1.24546e-121
1.07149e-125
1.09003e-129
3.94237e-133
4.87921e-135
4.29338e-138
2.13275e-142
2.98271e-145
1.02238
0.981404
0.80741
1.03641
1.00456
0.995813
1
-2.3579e-15
-7.26138e-18
0
4.36685e-18
2.65428e-19
6.27417e-22
4.89567e-26
5.31607e-30
1.95382e-33
8.12943e-37
3.69891e-40
1.44509e-43
6.06413e-47
2.65659e-50
1.07212e-53
7.4469e-57
3.25756e-60
1.05364e-63
6.65622e-67
1.57506e-70
7.43443e-73
1.06236e-76
1.97598e-80
1.2819e-82
2.05741e-85
1.90784e-89
5.90046e-93
2.0779e-95
3.38318e-99
1.58773e-102
2.17666e-105
1.37387e-107
3.63788e-111
6.69165e-115
2.80514e-117
5.59611e-121
1.4932e-124
9.09493e-127
3.84455e-130
2.82735e-134
1.22709e-137
1.50087e-140
4.69614e-143
1.043
1.01976
0.950502
1.0112
1.00365
1.00112
1.00164
-3.54924e-15
-1.91904e-18
5.04871e-32
2.19666e-17
2.06502e-18
1.03738e-20
1.70676e-24
1.0714e-28
3.62651e-32
1.45708e-35
6.12519e-39
2.54766e-42
1.19601e-45
4.41663e-49
2.45382e-52
7.80107e-56
4.0182e-59
1.68881e-62
1.22452e-65
7.18758e-69
2.98102e-72
9.6729e-75
2.683e-78
3.18886e-81
2.58851e-85
1.28824e-87
1.57392e-91
2.6681e-95
2.35531e-98
2.12847e-100
7.66191e-104
3.21263e-108
3.86166e-110
4.7826e-114
7.07755e-118
7.66522e-120
3.09494e-122
7.10001e-126
8.12234e-130
1.07355e-131
4.4752e-135
4.13199e-138
6.7302e-142
1.03404
0.980944
0.964185
1.04075
1.02054
1.00001
1.00191
-2.98243e-14
-3.44098e-18
2.64033e-37
1.71548e-17
1.6348e-18
8.64003e-21
1.5265e-24
9.21938e-29
3.00998e-32
1.24788e-35
6.11416e-39
2.31982e-42
1.39644e-45
4.51938e-49
1.69718e-52
7.1907e-56
5.14819e-59
1.45897e-62
1.52568e-64
3.41706e-68
2.96258e-72
1.3161e-74
3.69141e-77
3.07966e-80
1.42313e-83
9.71989e-88
4.47653e-91
7.22459e-94
1.52605e-97
7.44337e-101
1.58198e-103
9.43656e-108
3.25361e-110
8.68351e-113
3.20732e-115
8.08861e-119
1.43952e-122
1.87413e-126
5.74763e-129
3.78407e-133
9.32886e-137
4.79922e-140
9.20739e-144
1.05658
1.01325
1.04558
1.04424
1.08593
1.00114
1.00311
-3.70034e-16
-9.79117e-18
-2.11226e-37
4.15644e-18
2.45929e-19
5.51522e-22
4.27067e-26
4.97458e-30
1.81295e-33
7.52995e-37
3.20722e-40
1.43941e-43
5.78055e-47
3.41903e-50
1.06373e-53
5.56847e-57
2.08815e-60
2.16028e-63
3.62648e-67
1.35113e-70
1.47274e-73
8.10102e-76
9.34182e-80
9.375e-84
3.3959e-87
1.3128e-90
4.14947e-93
4.45984e-96
5.14237e-99
8.36523e-103
4.37452e-105
2.5974e-108
2.65526e-111
1.30865e-115
5.7344e-118
1.21739e-121
1.38442e-125
1.34038e-127
1.73896e-131
2.18391e-133
4.85858e-137
2.34947e-141
8.65983e-143
1.04495
0.991591
1.01419
1.03181
1.04026
1.07074
1.00001
-3.9297e-15
-1.84271e-19
1.66704e-16
1.17191e-17
4.01762e-20
1.39344e-23
5.51703e-27
1.04759e-30
3.16041e-34
1.3017e-37
5.57015e-41
2.43137e-44
1.0774e-47
4.39716e-51
2.13324e-54
8.74616e-58
3.34875e-61
1.4008e-64
8.6866e-68
8.20662e-71
2.0309e-74
4.79667e-78
1.10146e-80
1.08002e-84
2.97762e-87
2.99918e-90
5.59364e-94
2.69151e-97
9.42041e-100
9.99736e-104
2.81466e-106
1.80765e-109
9.04123e-113
1.00386e-116
8.75245e-120
2.11331e-122
1.79547e-125
1.01714e-129
1.8778e-133
6.32833e-137
2.46028e-140
9.71333e-144
2.81692e-145
1.02591
1.0285
0.940462
0.943761
1.00254
1.01876
0.777203
-9.94865e-17
3.35025e-17
8.7619e-21
9.212e-20
4.07736e-21
4.40151e-24
1.88431e-28
3.06783e-32
1.22447e-35
5.10563e-39
2.12751e-42
8.85408e-46
3.67211e-49
1.51049e-52
6.25111e-56
2.59041e-59
1.06862e-62
6.6791e-66
1.92068e-69
7.49354e-73
3.20171e-76
1.25876e-79
5.8412e-83
3.238e-85
8.18754e-89
1.47723e-92
2.99803e-96
2.12839e-98
7.69228e-102
4.88637e-105
4.1195e-109
9.73193e-113
8.26211e-115
1.29313e-117
2.73158e-120
6.05875e-124
3.97411e-128
2.01575e-131
2.88432e-134
1.09401e-136
1.66075e-139
2.45928e-142
2.8561e-145
1.0682
1.0023
1.06899
1.00363
0.989236
0.986878
0.0574837
-3.32208e-21
2.69178e-24
7.92099e-18
1.17111e-18
1.63739e-20
1.16673e-23
6.90807e-28
1.50186e-31
6.10455e-35
2.54678e-38
1.06998e-41
4.49891e-45
1.99836e-48
7.94413e-52
3.28954e-55
1.36188e-58
5.60997e-62
2.64777e-65
1.08032e-68
5.38401e-72
2.05068e-75
9.27187e-78
2.34907e-81
2.96705e-85
1.33905e-87
1.13431e-90
5.61061e-94
7.78396e-98
5.87116e-101
1.81696e-103
2.56126e-107
1.50728e-109
2.81255e-113
2.4016e-117
9.53931e-121
1.34102e-122
5.82426e-126
2.20105e-129
3.8125e-132
1.20415e-135
1.04999e-138
1.39973e-142
3.56094e-145
1.04033
0.969478
0.855324
0.993002
0.990634
0.99596
3.9231e-05
3.87615e-15
1.42259e-17
1.8338e-17
3.30641e-18
1.0741e-19
3.89661e-22
1.30384e-25
2.22491e-29
1.32901e-32
9.92861e-36
7.13759e-39
5.05152e-42
3.56781e-45
2.51759e-48
1.77228e-51
1.24402e-54
8.7165e-58
6.09261e-61
4.24732e-64
2.95628e-67
2.05268e-70
1.42127e-73
9.82008e-77
6.76657e-80
4.65063e-83
3.19186e-86
2.18588e-89
1.49449e-92
1.01966e-95
6.93569e-99
4.70381e-102
3.18528e-105
2.15413e-108
1.45355e-111
9.78906e-115
6.57682e-118
4.40756e-121
2.94855e-124
1.96734e-127
1.30995e-130
8.71219e-134
5.78001e-137
2.2699e-140
1.04713
1.01155
1.04057
1.004
1.0364
1.0139
0.0560852
2.43659e-12
2.61153e-15
2.6766e-18
8.14349e-19
2.26146e-20
2.97643e-23
3.2973e-27
1.0574e-30
7.8172e-34
5.72514e-37
4.07327e-40
2.88669e-43
2.04058e-46
1.44168e-49
1.01566e-52
7.14404e-56
5.01752e-59
3.51477e-62
2.45662e-65
1.71467e-68
1.19329e-71
8.28468e-75
5.74135e-78
3.99374e-81
2.75561e-84
1.89206e-87
1.301e-90
8.93567e-94
6.11978e-97
4.18704e-100
2.85123e-103
1.94127e-106
1.3177e-109
8.93265e-113
6.03545e-116
4.07469e-119
2.7546e-122
1.84662e-125
1.23879e-128
8.29515e-132
5.54345e-135
3.69666e-138
1.46301e-141
1.06703
0.973386
1.02577
1.03244
1.04614
1.00573
0.858226
3.04917e-12
1.4328e-15
1.50897e-15
2.04436e-16
2.50256e-18
1.50865e-21
1.21886e-25
5.53777e-29
4.14822e-32
2.9402e-35
2.05026e-38
1.42733e-41
9.91731e-45
6.88075e-48
4.7659e-51
3.2938e-54
2.27243e-57
1.56348e-60
1.0736e-63
7.36346e-67
5.03725e-70
3.43894e-73
2.34692e-76
1.59833e-79
1.08654e-82
7.37779e-86
4.99637e-89
3.37197e-92
2.27443e-95
1.53155e-98
1.029e-101
6.90326e-105
4.62017e-108
3.08501e-111
2.0569e-114
1.36946e-117
9.10269e-121
6.04271e-124
4.00427e-127
2.64722e-130
1.74657e-133
1.14987e-136
4.48952e-140
1.02364
1.01933
0.93789
0.999772
1.02466
0.994019
1.00035
1.35776e-08
5.27305e-15
3.41798e-17
2.94577e-17
2.86119e-18
2.56188e-20
1.30789e-23
1.25988e-27
6.28792e-31
4.69023e-34
3.32659e-37
2.32429e-40
1.62253e-43
1.13117e-46
7.86794e-50
5.45803e-53
3.78664e-56
2.61532e-59
1.80375e-62
1.24227e-65
8.54536e-69
5.87393e-72
4.01522e-75
2.74318e-78
1.87126e-81
1.2729e-84
8.64621e-88
5.86467e-91
3.96973e-94
2.68208e-97
1.80856e-100
1.21637e-103
8.16772e-107
5.4734e-110
3.67751e-113
2.45402e-116
1.63574e-119
1.08612e-122
7.21344e-126
4.77987e-129
3.16293e-132
2.0883e-135
8.17415e-139
1.04987
0.965669
0.974075
0.989044
0.987667
0.999924
1.00209
1.0224e-06
2.47752e-15
2.52757e-16
2.68652e-16
4.2552e-17
6.63152e-19
5.86744e-22
5.50277e-26
2.013e-29
1.50613e-32
1.07627e-35
7.51122e-39
5.2314e-42
3.64099e-45
2.52911e-48
1.75202e-51
1.21212e-54
8.36561e-58
5.75984e-61
3.96058e-64
2.7175e-67
1.85964e-70
1.2703e-73
8.66026e-77
5.89012e-80
4.00066e-83
2.71001e-86
1.83187e-89
1.2367e-92
8.32949e-96
5.59581e-99
3.75331e-102
2.51373e-105
1.68038e-108
1.12165e-111
7.46848e-115
4.96068e-118
3.28971e-121
2.17752e-124
1.43814e-127
9.48432e-131
6.24176e-134
2.43424e-137
1.02843
0.988754
1.04951
1.01292
0.961316
1.00826
1.0026
1.60432e-06
2.74702e-15
3.33206e-16
4.84e-16
8.40114e-17
1.35845e-18
1.20182e-21
1.09893e-25
3.98236e-29
2.98201e-32
2.13e-35
1.48618e-38
1.03454e-41
7.19269e-45
4.99223e-48
3.45697e-51
2.38931e-54
1.64751e-57
1.13318e-60
7.78905e-64
5.34192e-67
3.65458e-70
2.4958e-73
1.69938e-76
1.1542e-79
7.83527e-83
5.3078e-86
3.58562e-89
2.41863e-92
1.62792e-95
1.09345e-98
7.33491e-102
4.90981e-105
3.2799e-108
2.18747e-111
1.45549e-114
9.65879e-118
6.39985e-121
4.23165e-124
2.79169e-127
1.84019e-130
1.21127e-133
4.72581e-137
1.05003
1
1.05973
1.04117
1.06345
0.999223
1.00441
8.03136e-07
5.81334e-15
2.56342e-17
2.03523e-17
1.88228e-18
1.70329e-20
9.36873e-24
9.33043e-28
4.54569e-31
3.3668e-34
2.38313e-37
1.66226e-40
1.15957e-43
8.09238e-47
5.63771e-50
3.89813e-53
2.70513e-56
1.88809e-59
1.28778e-62
8.85882e-66
6.09227e-69
4.18282e-72
2.88835e-75
1.95541e-78
1.33338e-81
9.08661e-85
6.17534e-88
4.21839e-91
2.83854e-94
1.91686e-97
1.29685e-100
8.74809e-104
5.8492e-107
3.9222e-110
2.62731e-113
1.75499e-116
1.17136e-119
7.78459e-123
5.16927e-126
3.45639e-129
2.27063e-132
1.50154e-135
6.2018e-139
1.04308
0.991965
1.10912
1.0259
1.03652
1.04859
1.00008
3.57977e-10
1.46313e-15
1.77776e-15
2.61931e-16
3.72016e-18
2.74762e-21
2.2641e-25
9.26897e-29
6.96307e-32
4.94669e-35
3.4489e-38
2.40031e-41
1.66809e-44
1.15751e-47
8.01387e-51
5.53579e-54
3.8178e-57
2.62767e-60
1.80417e-63
1.23641e-66
8.45419e-70
5.76735e-73
3.93171e-76
2.6768e-79
1.81813e-82
1.23249e-85
8.33414e-89
5.62304e-92
3.78958e-95
2.54858e-98
1.71023e-101
1.14641e-104
7.66632e-108
5.11424e-111
3.40662e-114
2.26509e-117
1.50288e-120
9.95717e-124
6.58363e-127
4.34063e-130
2.85854e-133
1.88096e-136
7.3396e-140
1.00961
0.975506
1.01255
1.0258
1.00401
1.0043
0.774228
7.24569e-12
2.59801e-14
7.26761e-18
6.90903e-19
9.03477e-21
8.86108e-24
1.29869e-27
5.1216e-31
3.79826e-34
2.76959e-37
1.96505e-40
1.39035e-43
9.8277e-47
6.9433e-50
4.89427e-53
3.44636e-56
2.41905e-59
1.70168e-62
1.18866e-65
8.29151e-69
5.78252e-72
4.0249e-75
2.79418e-78
1.94143e-81
1.33944e-84
9.25068e-88
6.36397e-91
4.37574e-94
3.00263e-97
2.05639e-100
1.40555e-103
9.58378e-107
6.52759e-110
4.43419e-113
3.00601e-116
2.03566e-119
1.37377e-122
9.26525e-126
6.24214e-129
4.18525e-132
2.80711e-135
1.8814e-138
7.44433e-142
1.29619
1.19138
1.03771
0.956648
0.930456
1.00114
0.063257
2.00488e-14
3.07928e-17
1.38193e-17
1.89846e-18
5.07033e-20
1.61008e-22
5.0332e-26
9.58837e-30
5.93129e-33
4.44022e-36
3.20301e-39
2.27633e-42
1.61411e-45
1.14291e-48
8.07143e-52
5.68476e-55
3.9971e-58
2.8032e-61
1.96082e-64
1.36879e-67
9.53469e-71
6.62634e-74
4.59468e-77
3.1778e-80
2.19175e-83
1.5079e-86
1.03555e-89
7.09497e-93
4.85382e-96
3.31198e-99
2.25378e-102
1.5304e-105
1.03758e-108
7.01866e-112
4.73794e-115
3.19183e-118
2.14471e-121
1.43836e-124
9.62329e-128
6.42488e-131
4.28486e-134
2.84936e-137
1.12109e-140
1.05143
1.01971
1.02668
0.999049
0.867331
1.02489
1.75105e-06
-1.09035e-17
-8.08769e-21
4.2454e-18
5.73634e-19
6.58177e-21
3.4825e-24
1.93335e-28
4.8009e-32
2.06223e-35
8.20139e-39
3.50045e-42
1.51842e-45
9.69199e-49
3.35572e-52
1.37479e-55
6.17815e-59
1.98877e-62
1.50445e-65
1.55588e-68
4.13929e-72
1.56715e-75
3.48563e-78
6.91432e-82
2.91735e-85
3.40106e-89
1.64237e-91
6.86205e-94
2.68372e-97
1.12002e-100
1.57058e-103
8.31751e-107
4.5793e-111
1.14943e-112
5.4157e-116
2.78405e-120
1.06966e-122
8.74973e-127
1.38027e-129
9.40276e-132
2.24663e-135
1.38632e-138
1.74307e-141
3.31292e-144
1.04667
1.0118
0.965281
1.00755
1.02391
1.01767
0.055257
-5.04874e-17
-2.0134e-19
8.27112e-22
1.05736e-19
2.77034e-21
1.29522e-24
4.60598e-29
1.19724e-32
4.88136e-36
2.05111e-39
8.74079e-43
3.71378e-46
1.51767e-49
6.67328e-53
2.77623e-56
1.32251e-59
5.25827e-63
2.37137e-66
1.02954e-69
4.67261e-73
2.04396e-76
6.77674e-79
1.62506e-82
2.2138e-85
2.31721e-88
1.94427e-91
2.82912e-95
2.48073e-98
1.68733e-101
3.22911e-105
5.71804e-109
3.69645e-110
4.26003e-113
3.88799e-117
8.55746e-121
4.27494e-124
3.80042e-126
1.1503e-129
1.52231e-133
1.69203e-136
1.58197e-140
8.85528e-144
2.73317e-145
1.05283
0.993367
1.01911
1.04255
1.00171
1.00885
0.858223
1.22651e-12
-3.76373e-19
1.63647e-16
1.16527e-17
4.04634e-20
1.53666e-23
7.03046e-27
1.29825e-30
3.7026e-34
1.51539e-37
6.53672e-41
2.8187e-44
1.18426e-47
5.19265e-51
2.14793e-54
1.02801e-57
4.37645e-61
1.83887e-64
7.09947e-68
3.42981e-71
1.22365e-74
5.08608e-78
9.41265e-81
1.17867e-84
3.94868e-88
6.935e-91
1.02776e-93
2.88073e-97
3.35493e-100
1.45086e-103
4.78938e-107
3.96348e-110
1.29564e-112
1.23994e-115
7.92772e-120
3.60003e-123
9.45716e-126
2.81174e-129
6.29778e-133
6.2406e-135
4.04635e-138
8.91402e-142
2.73539e-144
1.05424
1.01917
1.04113
0.99644
1.0157
0.993711
1.00045
7.97637e-09
-7.2197e-18
-1.00974e-31
4.51767e-18
2.74281e-19
6.47487e-22
5.01594e-26
5.42494e-30
1.99592e-33
8.30644e-37
3.55548e-40
1.48254e-43
6.26283e-47
2.69207e-50
1.07966e-53
5.27088e-57
3.29395e-60
9.71419e-64
6.01042e-67
1.46506e-70
1.26642e-72
6.95145e-76
3.93188e-80
1.11491e-82
5.8602e-86
5.47065e-90
2.44887e-93
4.26669e-96
1.35439e-99
2.04276e-102
2.41687e-105
1.23832e-109
3.26613e-111
8.9962e-115
1.42863e-117
1.49582e-120
5.46728e-124
8.08848e-127
3.3877e-130
1.90867e-133
7.7493e-138
1.90733e-141
9.8861e-145
1.03144
0.971568
0.987429
0.959136
1.06735
0.999064
1.00196
8.47706e-07
-2.14967e-18
2.52443e-32
2.26651e-17
2.14109e-18
1.07313e-20
1.7555e-24
1.10412e-28
3.64436e-32
1.49646e-35
6.24356e-39
2.7727e-42
1.16255e-45
4.4571e-49
1.89299e-52
8.51483e-56
3.85759e-59
1.65112e-62
2.59762e-65
4.04493e-69
1.08657e-72
4.9949e-76
2.67389e-78
2.00696e-81
1.06532e-85
1.24087e-87
2.71499e-91
7.76363e-94
3.44141e-98
1.47795e-100
6.63537e-104
4.00068e-106
9.28716e-110
8.75081e-114
1.14145e-115
2.87892e-119
8.60417e-123
5.02606e-126
5.35047e-130
1.58386e-131
5.03742e-135
2.4346e-138
5.97546e-141
1.05016
1.08055
1.05678
0.995068
1
1.01449
1.00194
1.46253e-06
-3.19438e-18
8.44905e-37
1.75823e-17
1.68417e-18
8.85931e-21
1.55513e-24
9.41712e-29
3.08639e-32
1.27768e-35
5.39548e-39
2.29146e-42
1.9513e-45
4.75758e-49
3.3185e-52
1.16757e-55
4.47694e-59
2.90773e-62
5.18594e-66
4.50542e-69
9.54853e-73
3.55932e-76
1.65321e-77
1.78609e-80
9.22455e-84
7.9398e-88
9.38752e-91
7.2703e-95
2.4991e-97
1.04999e-100
1.73862e-103
8.7714e-108
2.21996e-109
6.37392e-113
3.41526e-117
5.67035e-119
3.80929e-122
6.78054e-126
4.0218e-130
1.08042e-132
7.30266e-135
1.37058e-138
5.26001e-143
1.05932
0.95328
0.90944
0.750008
1.05405
1.01125
1.00412
6.5275e-07
-9.45055e-18
1.00974e-31
4.03336e-18
2.38769e-19
5.34936e-22
4.1686e-26
4.87081e-30
1.77482e-33
7.3705e-37
3.19603e-40
1.3786e-43
5.70352e-47
3.64738e-50
1.11299e-53
4.73837e-57
2.15372e-60
1.25742e-63
1.13666e-66
1.99175e-70
1.78544e-73
6.35117e-76
9.65518e-80
9.07788e-84
4.88103e-86
5.75591e-90
3.92894e-93
1.31409e-95
3.25963e-99
3.80287e-103
2.93029e-105
6.10685e-109
8.38158e-112
2.6726e-115
2.66821e-119
2.58601e-121
7.04104e-125
4.49125e-128
2.52527e-132
7.21272e-136
2.82324e-139
1.76745e-142
1.64823e-142
1.02554
1.02598
1.03891
1.0491
1.05778
1.03907
1.00014
1.75345e-10
-1.45447e-19
1.75848e-16
1.18624e-17
3.74339e-20
1.31554e-23
5.63575e-27
1.05282e-30
3.12157e-34
1.28184e-37
5.50365e-41
2.43941e-44
1.03976e-47
4.35608e-51
2.09227e-54
9.09792e-58
3.30649e-61
2.88442e-64
8.52253e-68
7.04962e-71
6.63347e-74
6.3519e-78
6.57226e-81
1.25413e-84
5.29367e-88
3.98948e-90
1.06472e-93
1.1826e-97
1.78664e-100
2.31e-103
7.89898e-107
1.5277e-109
9.85786e-112
8.90461e-116
3.98197e-118
5.87845e-122
3.38963e-126
1.7905e-129
4.14951e-133
1.44481e-136
5.63098e-140
2.21133e-143
2.80641e-145
1.02133
1.0217
1.1195
0.998644
0.901696
0.985567
0.774146
5.48243e-14
3.25461e-17
9.38968e-21
8.76584e-20
3.85002e-21
4.09583e-24
1.74472e-28
2.8661e-32
1.14449e-35
4.77198e-39
1.98261e-42
8.24486e-46
3.43065e-49
1.40943e-52
5.84609e-56
2.40356e-59
1.00025e-62
4.06515e-66
1.66589e-69
7.36098e-73
2.86266e-76
1.13882e-79
8.83415e-83
2.14479e-85
5.89497e-89
6.31517e-92
3.70564e-95
2.26083e-98
1.2625e-101
3.80687e-105
2.55188e-108
2.18003e-112
1.38392e-114
2.30188e-118
3.2855e-122
2.0633e-124
4.98956e-127
1.98415e-130
8.25371e-134
5.04924e-137
4.63134e-140
2.70543e-142
3.09969e-145
1.15928
1.41025
1.03248
1.0278
0.908477
1.00904
0.0624474
-3.2608e-21
3.4041e-24
5.78818e-18
8.51408e-19
1.18887e-20
8.58671e-24
5.14204e-28
1.11123e-31
4.50955e-35
1.88675e-38
8.00919e-42
3.34203e-45
1.38855e-48
5.89421e-52
2.47399e-55
1.0121e-58
4.26276e-62
2.01199e-65
1.18853e-68
4.91505e-72
1.49068e-75
1.01846e-78
9.72222e-82
1.25275e-85
1.66018e-87
5.33277e-91
4.38984e-95
4.25095e-98
1.35942e-100
9.20789e-104
1.05765e-107
1.54105e-109
4.81746e-113
1.78523e-116
5.85289e-119
2.01717e-122
1.85757e-126
2.68171e-129
3.49359e-132
2.40881e-135
1.62894e-138
2.13035e-142
2.94769e-145
0.386032
1
0.530882
0.97513
0.397343
0.988317
0.531199
0.729255
1.01039
1
1.01036
0.730242
1.00968
1
1.00033
1.00462
1.00024
1.00589
1.00015
1.00401
1.00056
0.999767
1.0008
1.00147
0.994552
0.999987
1.00163
1.00161
1.00279
0.991501
1.0029
0.999992
1.0027
0.977539
1.00285
1.00281
1.02384
1.00506
1.00557
1.00309
1.02017
1.00528
1.00431
1.0268
1.00225
0.999544
1.0064
1.02147
1.00225
1.00002
1.09493
1.00019
1.05103
0.999894
1.07338
1.00051
1
1.03
0.850493
1.01483
1.00012
1.02436
0.850991
0.749148
0.991634
0.327764
0.993081
0.749148
0.901524
0.345005
0.39803
0.991272
0.531011
1.02065
0.394258
0.995804
0.530681
0.730236
1.00916
1
1.01415
0.731118
1.00732
1
1.00031
1.00389
1.001
1.00873
1.00027
1.00284
1.00072
1.00008
1.00033
1.00203
0.994012
1.00003
0.997505
1.00147
1.00343
0.983856
1.00336
0.99779
1.00281
0.997765
1.0022
1.0032
1.01701
1.00572
1.01213
1.0024
1.0143
1.00522
1.00639
1.01859
1.00272
1.00895
1.00588
1.02008
1.00221
1.0005
1.02362
1.00098
1.04625
0.999819
1.00131
1.00055
1.00056
1.01037
0.852357
0.994751
1.00033
0.997567
0.85575
0.749119
0.901742
0.346935
1.00961
0.7496
1.00073
0.344517
0.391761
0.99843
0.530456
1.02654
0.388615
0.998613
0.530195
0.730576
1.00799
1
1.01447
0.729443
1.00035
1
1.00037
1.0027
1.00108
1.00868
1.00034
1.00214
1.00026
1.00036
0.981759
1.00204
0.998535
1.00002
0.988835
1.00171
1.00325
1
1.00255
1.00145
1.00277
1.00206
1.00202
1.00234
1.01657
1.00581
1.01703
1.00157
1.02627
1.00527
1.00593
1.02019
1.00257
1.02117
1.00539
1.01907
1.0021
1.00058
1.00729
1.00091
1.04671
1.00009
1.03094
1.00042
1.00051
0.988326
0.855984
0.996687
1
0.999344
0.852341
0.74976
1.00274
0.340089
1.01589
0.748961
1.02101
0.323675
0.987009
1.05128
0.7626
1.00067
0.989596
1.02624
0.950274
0.998399
0.990861
0.987356
0.970633
0.986369
0.998419
0.994758
-1.9337e-16
0.00325374
-3.71028e-16
4.12041e-05
1.07988e-12
0.0076914
1.08319e-12
0.985934
1.04983
1.03261
1.01481
0.978504
1.04721
1.01116
1.00117
1.00293
1.00041
1.00509
1.00139
1.00101
1.00175
-2.95969e-16
0.608722
-7.27436e-15
0.0557589
1.80743e-09
0.609539
1.05126e-09
0.995508
0.966245
0.975803
1.00572
0.982651
0.992402
0.997824
1.00069
1.00267
0.952066
1.00364
1.00245
0.961471
1.00045
-2.71926e-18
1.00005
-2.28363e-19
0.858277
1.11378e-09
1.00006
1.62289e-07
1.00917
1.02231
1.00312
0.998729
1.01238
1.02817
0.997887
0.998642
0.996563
0.995199
0.997415
0.998381
0.998795
0.982822
0.000436639
1.00171
0.149976
1.00059
0.00159372
1.00185
0.158538
1
1
0.941758
0.997428
0.999967
0.990804
0.967368
0.999898
1.00439
0.999982
1
1.00466
0.99346
1.00244
0.243513
1.00206
0.345791
1.0025
0.258573
1.00238
0.363508
1
1.00432
0.964523
1.0054
0.977813
1.03056
0.997425
1.00002
1.00003
0.986552
1.00055
1.00006
0.990213
1.00001
0.369801
1.00332
0.234334
1.00294
0.381988
1.00358
0.245095
0.932803
1.08125
1.0363
1.07501
0.927352
1.10393
0.956415
1.00441
1.0069
1.02515
1.00308
1.00593
1.02278
1.00637
0.145426
1.00089
0.00016305
1.00446
0.152161
1.00103
0.000686037
1.03022
0.937801
1.04919
1.00975
1.02474
0.997042
0.989
1.00845
1.00666
1.01349
1.06942
1.00412
1.06142
0.983858
-2.2371e-18
0.94738
-3.20698e-18
1.00065
1.61169e-07
0.942704
3.30333e-09
0.987953
1.00566
1.01429
1.02014
1.03965
0.956961
1.05808
0.981929
1.00233
0.960361
1.00967
1.00142
0.965649
0.976468
-5.75517e-15
0.147547
-7.37192e-21
0.775875
5.57969e-11
0.153538
1.33739e-10
0.98332
0.980559
0.979409
0.920191
0.962044
0.961211
0.9529
1.00233
0.99618
0.998925
0.970029
0.996263
0.999375
1.00249
-7.56675e-21
-3.63717e-15
-1.70393e-16
0.0628907
4.15075e-12
6.62455e-07
6.055e-12
0.979802
1.0242
0.962277
0.995903
0.9889
1.01799
0.994628
0.999992
0.99909
0.987225
1.00926
0.999985
0.991207
1.00092
5.64107e-12
0.00843351
5.64108e-12
2.96068e-06
6.02981e-12
0.00848848
5.64103e-12
0.99869
1.0482
1.01978
1.04162
1
1.04985
1.01438
1.00289
1.0036
1.00706
1.01385
1.00213
1.00408
1.00847
5.41659e-09
0.609492
3.01676e-09
0.0556954
5.41669e-09
0.609525
3.01676e-09
0.993009
1.05606
1.00635
1.04992
0.989957
1.06969
1.03695
1.00379
1.00488
0.99242
1.00858
0.999939
1.00579
0.978537
1.96106e-09
1.00053
2.50899e-07
0.858247
1.95682e-09
1.00004
2.50802e-07
1.01767
1.03051
1.00515
1.01185
1.01405
1.017
1.00972
0.994633
0.99862
0.960336
0.993664
0.993292
0.998261
0.958439
0.00176804
1.00187
0.160063
1.00072
0.00177577
1.00168
0.158773
0.988259
0.989862
0.983819
1.01933
0.966155
0.92096
0.979336
0.999432
1.00516
0.989999
0.999375
0.998158
1.00513
0.988633
0.2585
1.00322
0.367977
1.00245
0.258153
1.00217
0.367247
0.980668
1.05507
0.966526
0.968221
0.999184
1.01381
1.00005
1.0001
1.00118
0.999212
1.01059
1
1.00249
0.99912
0.384821
1.00446
0.248856
1.00221
0.38474
1.00359
0.247189
0.92375
1.0722
0.964043
1.00551
0.933175
1.02052
0.976175
1.01277
1.00561
1.03791
1.0038
1.01423
1.00746
1.03813
0.151893
1.0018
0.000775328
1.00425
0.153918
1.00109
0.000760517
1.00603
0.997908
0.937982
1.00553
1.06421
0.999262
0.955835
1.01072
1.01027
1.01996
1.02564
1.0102
1.00664
0.99936
2.54497e-07
0.94196
6.79975e-09
1.00071
2.54295e-07
0.942611
6.6135e-09
1.0346
0.954279
1.06037
0.834375
0.974197
0.990223
1.06823
0.977774
1.00044
0.923
1.00048
0.976734
1.0003
0.928116
1.25643e-10
0.15302
2.98528e-10
0.774205
1.25842e-10
0.150735
2.211e-10
1.00766
0.975813
0.970778
0.906275
1.00685
1.00294
1.0341
1.00339
1
1.00022
1.00175
1.0051
1
0.995886
1.7789e-11
8.62984e-07
3.15324e-11
0.0629165
1.7789e-11
1.02826e-06
3.07137e-11
0.983143
1.00384
0.985766
0.842121
1.00967
0.992899
0.984619
0.99823
1.00475
0.999899
1.0214
0.998871
0.999886
1.00484
1.22632e-12
0.00766272
1.22736e-12
2.30707e-07
-7.21992e-16
0.00324137
-4.78667e-17
1.00997
0.996347
1.00188
1.00096
0.983921
0.943558
0.971418
1.00403
1.00449
1.01192
1.0192
1.00319
1.00505
1.01383
1.78491e-09
0.609509
1.03987e-09
0.0487626
-2.71556e-16
0.608361
-7.30874e-15
0.97812
0.98225
0.971225
1.0054
0.960324
0.965838
1.00347
1.00522
1.00659
0.997743
1.00845
1.00585
1.00623
0.994831
1.10069e-09
1.00048
1.64971e-07
0.857901
-2.84437e-18
1.00005
-1.48718e-19
1.01533
1.01351
1.00277
1.01341
1.01603
1.01356
1.0018
0.989455
0.99884
0.956084
0.996701
0.991251
0.998746
0.955236
0.00159224
1.00168
0.158937
1.00011
0.000432755
1.00133
0.150137
0.996264
0.956897
0.999995
1.10283
1.00653
0.988694
1.00865
1.00493
1.00468
1.00402
1
1.00156
1.00503
1.00712
0.25604
1.00295
0.365807
1.00165
0.242752
1.00164
0.345606
0.998838
1.00998
1.00599
0.994228
1.00432
1.00543
1.03445
1.00137
1.00308
0.999143
1.01727
1.00062
1.00246
0.995503
0.381168
1.00442
0.247253
1.00132
0.369481
1.00323
0.234533
0.97499
0.919419
1.00959
1.04615
0.993866
1.02594
0.970837
1.01681
1.01121
1.00647
1.01141
1.01626
1.01226
1.01228
0.149981
1.00169
0.000686564
1.00357
0.144714
1.0008
0.00016157
0.990727
1
1.02082
0.933774
1.04164
1.25521
0.962299
1.00686
1.00828
1.09989
1.03536
1.00882
1.00909
1.11119
1.57985e-07
0.942747
3.22657e-09
1.00006
-1.46446e-18
0.947476
-2.19523e-17
0.989437
0.989514
1.04738
1.02775
0.991458
0.948762
0.991859
0.972684
1.00009
0.961302
0.999233
0.970848
0.999845
0.970101
5.60586e-11
0.150217
1.15044e-10
0.776151
-4.87025e-15
0.148172
-4.09229e-22
1.00221
0.994667
1.00551
0.998273
1.01968
0.884776
1.0628
1.00237
0.999879
1.04528
1.01045
1.00332
1.00008
1.05564
4.17602e-12
1.03445e-06
5.33075e-12
0.0574404
-2.98509e-21
-6.84606e-15
-3.2934e-17
0.984933
1
0.321847
0.39075
0.326128
0.987147
0.997877
0.974941
0.902121
0.99761
0.988354
0.932729
0.993388
0.987637
0.997516
0.507415
1
0.531008
0.510738
1
1
0.998539
0.966839
0.991894
0.994091
0.989618
0.999292
0.991105
0.983387
0.394659
0.994638
0.334303
0.32838
0.97991
0.995588
0.972871
0.991106
0.963966
0.992828
0.951897
0.995524
0.953796
0.997951
0.530639
0.511681
1
0.508454
1
0.994891
1.00041
1.00084
0.852311
0.730129
1.00075
0.853243
1.00047
0.995067
0.990291
1.00511
1.00996
0.990265
1.00301
0.99757
1.00036
0.990299
1.00225
1
0.98854
1.00235
1.00136
1.00148
1.00721
1.00294
1.00301
1.00258
1.00128
1.00125
1.00076
0.728623
1.00065
0.853071
1.00105
0.851668
1.00043
0.990593
1.00937
0.989785
1.00306
0.991101
1.00415
0.989444
1.00044
1
0.987233
1.00209
0.988509
1.00254
1.00029
1.00153
1.00195
1.00062
1.00034
1.00204
1.00086
1.0017
0.999627
0.987713
1.00038
1.0049
0.984416
0.999946
0.999613
1.0008
1.00114
1.00008
1.00034
1.00101
1.00006
1.00139
1.00087
1.00483
1.00409
0.980041
1.00339
0.973241
1.00102
1.00172
1.00039
1.00242
1.00088
1.00241
1.001
1.00181
0.999092
1.00352
0.987876
0.999373
0.985743
0.999974
0.997023
1.00046
1.00109
1.00104
1
1.00084
1.00009
1.00066
0.997413
0.998371
1
0.999712
0.997427
0.99982
0.997392
0.999294
0.999083
1.00222
1.00037
0.999003
1.00205
0.999671
1.00042
1.00067
1.00276
1.00222
1.00049
1.00268
1.00107
0.995226
0.99373
0.996144
0.968824
0.994985
0.983559
0.986331
0.997493
0.999975
0.999658
1
0.997668
0.999962
0.999853
0.999527
1.00769
0.979196
1.00211
0.999993
1.00297
0.99934
1.0008
1.00223
1.00043
1.00252
1.001
1.00299
1.00064
1.00282
1.00466
1.00331
1.00278
1.00443
1.00322
1.00391
0.998864
0.980754
1.00062
0.9987
0.981954
1.00006
0.998252
1.0018
1.00267
1.00322
1.00305
1.0028
1.00278
1.00215
0.996368
0.99955
1.0051
0.982592
1.00492
0.982552
0.997007
1.00273
1.00333
1.00433
1.00295
1.00475
1.00371
1.00279
0.997338
0.987723
0.99104
1
0.982368
1
0.999244
1.00205
1.00348
1.00265
1.00226
1.00317
1.0027
1.00159
1.00203
1.00265
1.00302
1.00288
1.00242
1.00297
1.00246
0.998027
0.980964
1.00793
1.03097
0.989497
1.00756
0.99784
1.00195
1.00379
1.00666
1.00493
1.00372
1.00674
1.00193
1.00015
1.00274
1.00048
0.998043
1.00012
0.996941
1.00011
1.00206
1.00345
1.00207
1.00303
1.00242
1.00349
1.00166
0.99884
1.02277
1.00751
1.00645
1.00757
1.00602
0.998838
1.00209
1.00528
1.00372
1.00662
1.00392
1.00687
1.00214
1.00673
1.00755
1.00702
1.00411
1.00635
1.00694
1.0089
1.0062
1.00594
1.00844
1.02748
0.998347
1.00874
1.01174
1.00743
1.00439
1.00438
1.00224
1.00437
1.00463
1.00798
1.01049
1.00263
1.00389
1.03963
1.0074
1.03478
1.01041
1.00909
1.00462
1.00697
1.0072
1.00655
1.00766
1.00784
1.00041
0.999709
0.960542
1.00945
0.968324
1.00915
0.999708
1.00695
1.00268
1.00427
1.00482
1.00471
1.00478
1.00601
0.988316
1.00126
0.996592
0.999932
1.00074
0.995718
0.983964
0.997827
1.04131
1.02029
1.08401
1.00157
1.01531
0.998587
0.995716
0.999479
1.00143
1.00037
0.999882
1.00143
0.998359
1.00333
1.0695
1.00803
1.05466
1.0071
1.04382
1.01146
0.993941
1.0005
1.00133
0.996285
1.00158
0.995417
0.999261
0.996781
1.10481
0.973801
1.00549
0.973713
1.00778
1.0003
0.997009
1.0008
0.999874
1.00143
0.999769
1.00165
0.999692
0.995243
1.00002
0.999935
1
0.999971
0.999886
0.99843
0.96991
0.970015
0.994678
1.00721
0.97755
0.991678
0.976725
0.990615
0.968521
0.999806
0.848219
0.96671
0.999677
0.991351
0.988703
1.01653
1.00073
0.923078
1.00129
0.932989
0.987231
0.997915
1.00031
0.999978
1
1.00003
1.00011
0.997023
0.970246
1.03191
0.945109
0.991346
0.992143
0.990556
0.968903
0.992021
0.849575
0.956817
0.999959
0.958895
0.999887
0.991454
1.00034
1
0.577614
0.74931
1
0.578338
1.00043
0.994945
0.959697
0.996986
0.980868
0.970967
0.997735
0.989845
1
0.460467
0.991994
0.334276
0.461354
1.00002
0.988236
1.00256
0.958438
0.997352
0.999831
0.99534
0.983547
1.00362
1.00047
0.748734
1.00001
0.579154
1.00004
0.57802
1.00019
0.998921
0.971551
0.936452
0.997224
0.985783
0.994624
0.993117
1.00001
0.339821
0.463459
0.981833
0.461623
0.999538
0.984636
0.977777
0.994422
0.337431
0.399104
0.977697
0.33743
0.993956
0.954265
0.952955
0.995728
0.990632
0.953316
0.952448
0.994501
0.995531
0.507342
1
0.530964
0.996269
0.508416
1
1
1.02492
1.002
0.996314
1.00051
0.99865
1.00201
0.978952
0.397721
0.997477
0.336159
0.336194
0.97921
0.995124
0.952016
0.996344
0.951534
0.993562
0.951949
0.993482
0.951844
0.995541
0.530257
0.50638
1
0.506402
1
0.997154
1.00022
1.00055
0.853997