/*--------------------------------*- C++ -*----------------------------------*\
| =========                 |                                                 |
| \\      /  F ield         | OpenFOAM: The Open Source CFD Toolbox           |
|  \\    /   O peration     | Version:  5.0                                   |
|   \\  /    A nd           | Web:      www.OpenFOAM.org                      |
|    \\/     M anipulation  |                                                 |
\*---------------------------------------------------------------------------*/
FoamFile
{
    version     2.0;
    format      ascii;
    class       volScalarField;
    location    "3";
    object      p_rgh;
}
// * * * * * * * * * * * * * * * * * * * * * * * * * * * * * * * * * * * * * //

dimensions      [1 -1 -2 0 0 0 0];

internalField   nonuniform List<scalar> 
9011
(
101.964
97.2663
97.8279
102.193
102.667
101.717
96.3385
92.1847
89.7404
87.2809
84.8165
82.3524
79.8926
77.4616
75.046
72.6516
70.2724
67.9221
65.5958
63.295
60.995
58.7169
56.4679
54.2097
51.9761
49.762
47.5543
45.344
43.1523
40.9856
38.8154
36.6689
34.5514
32.4259
30.2912
28.1891
26.1397
24.1257
22.1197
20.1067
18.1219
16.1813
14.2445
12.2801
10.3423
8.45266
6.56633
4.67162
2.79857
0.935587
97.4977
97.8029
95.7985
96.1749
98.1178
97.2961
96.3066
92.5709
90.0326
87.4944
84.9649
82.4492
79.977
77.5156
75.0736
72.6778
70.2824
67.9432
65.6235
63.2997
61.0018
58.7193
56.458
54.2105
51.9673
49.7489
47.5438
45.3462
43.1595
40.9867
38.8288
36.6815
34.5474
32.4157
30.2944
28.1954
26.1351
24.1095
22.101
20.1059
18.1279
16.1862
14.2474
12.2958
10.3491
8.44278
6.55224
4.6683
2.79875
0.935217
97.1153
94.935
87.7932
98.4636
98.07
97.7054
97.2883
93.7025
90.2623
87.6935
85.0949
82.5226
80.0099
77.5451
75.0981
72.6779
70.3053
67.9722
65.6431
63.3004
61.0064
58.7241
56.4523
54.2069
51.9706
49.7437
47.5343
45.3521
43.1709
40.9925
38.8347
36.6814
34.5276
32.4041
30.3012
28.2095
26.1347
24.1003
22.0981
20.1084
18.1373
16.1845
14.2374
12.2967
10.359
8.43949
6.54661
4.66958
2.8013
0.935102
95.3943
99.2471
115.639
104.615
99.7366
99.1598
98.448
94.3821
90.5616
87.871
85.1907
82.6051
80.046
77.5571
75.1107
72.6907
70.3094
67.9676
65.622
63.3033
61.0141
58.724
56.4564
54.2084
51.9821
49.7542
47.5331
45.3579
43.1643
40.9808
38.8343
36.6771
34.5215
32.3988
30.309
28.2263
26.1406
24.0963
22.0984
20.1137
18.1431
16.1755
14.2192
12.288
10.3666
8.44271
6.54758
4.67705
2.8077
0.930426
94.9443
93.6106
107.619
111.087
107.426
100.914
99.1458
95.2289
90.6204
87.8639
85.1771
82.5724
80.038
77.5483
75.1122
72.6946
70.3204
67.9572
65.601
63.3039
61.0189
58.7242
56.4616
54.2126
51.9911
49.7695
47.5432
45.3528
43.1521
40.9716
38.8273
36.6667
34.5184
32.3973
30.3101
28.2352
26.1507
24.1009
22.1034
20.125
18.1415
16.1587
14.1998
12.2779
10.3643
8.44428
6.55491
4.69165
2.81663
0.928504
95.9268
101.465
100.008
106.413
102.106
101.169
99.1288
95.2395
90.3415
87.6815
85.0585
82.4988
79.9962
77.5276
75.1124
72.7
70.3252
67.9584
65.5972
63.2964
61.0195
58.7195
56.4622
54.2225
51.9969
49.7838
47.5538
45.3476
43.144
40.9619
38.8178
36.6598
34.5106
32.3989
30.3131
28.2369
26.1611
24.111
22.1062
20.1243
18.1351
16.142
14.1846
12.2664
10.359
8.44851
6.57127
4.71508
2.82711
0.931451
100.805
113.539
102.02
106.393
104.067
99.9934
97.7588
93.9707
89.7292
87.3201
84.8588
82.3844
79.9421
77.4984
75.0812
72.681
70.3139
67.9607
65.5958
63.2799
60.9927
58.7142
56.4578
54.2289
52.0011
49.7795
47.5591
45.3436
43.144
40.9751
38.8189
36.6499
34.5048
32.4057
30.3171
28.232
26.1662
24.1231
22.1074
20.1174
18.128
16.1414
14.1834
12.2663
10.3548
8.4503
6.57756
4.71502
2.83095
0.94047
102.85
98.7942
113.299
114.1
79.3234
94.1075
93.8467
91.9902
89.2157
87.0378
84.6791
82.2774
79.8769
77.4574
75.0342
72.6674
70.2943
67.9415
65.6037
63.2707
60.9861
58.7096
56.4562
54.2301
52.001
49.7853
47.5616
45.3427
43.1623
40.9847
38.8151
36.648
34.511
32.4131
30.3148
28.2202
26.1657
24.1358
22.1131
20.109
18.1227
16.1465
14.1945
12.2692
10.3532
8.45234
6.57584
4.7041
2.82921
0.944569
106.139
68.0501
106.449
93.9068
107.533
96.4339
94.4584
91.7866
89.1573
86.9841
84.6353
82.2505
79.8485
77.4367
75.034
72.6585
70.2718
67.9239
65.5965
63.278
60.9791
58.7027
56.4603
54.2253
52.0025
49.7844
47.5587
45.3415
43.1521
40.9801
38.802
36.6467
34.5255
32.417
30.3075
28.2108
26.1632
24.1415
22.1177
20.1079
18.1206
16.1592
14.2136
12.2709
10.3498
8.45397
6.56909
4.6934
2.81851
0.945722
113.583
95.3181
109.67
98.5858
106.054
106.372
96.2028
91.8951
89.5144
87.1134
84.7098
82.2792
79.8428
77.4445
75.0363
72.6473
70.2689
67.923
65.5917
63.281
60.9825
58.7066
56.4651
54.2151
51.9922
49.7802
47.5582
45.3425
43.1493
40.9807
38.8044
36.6535
34.5421
32.4253
30.297
28.1959
26.149
24.1346
22.12
20.1065
18.1209
16.1709
14.2307
12.273
10.3438
8.45752
6.57214
4.68213
2.804
0.935781
105.001
105.851
113.105
94.9429
99.723
98.5705
96.2941
92.1853
89.7403
87.2809
84.8166
82.3524
79.8925
77.4617
75.046
72.6514
70.2724
67.9221
65.5959
63.2949
60.995
58.717
56.4679
54.2096
51.9762
49.762
47.5542
45.344
43.1522
40.9856
38.8154
36.6689
34.5514
32.4257
30.2912
28.189
26.1396
24.1257
22.1196
20.1067
18.1218
16.1814
14.2446
12.2802
10.3423
8.45271
6.56626
4.67163
2.79853
0.935673
97.5022
96.6381
97.637
92.5011
96.6525
97.2461
96.1715
92.571
90.0325
87.4944
84.9649
82.4492
79.977
77.5156
75.0736
72.6776
70.2824
67.9434
65.6234
63.2996
61.0019
58.7194
56.4579
54.2105
51.9673
49.7488
47.5437
45.3461
43.1595
40.9867
38.8293
36.6815
34.5473
32.4157
30.2944
28.1954
26.135
24.1095
22.101
20.1055
18.128
16.1863
14.2474
12.2956
10.3492
8.44281
6.55213
4.66829
2.79894
0.935169
94.6624
91.3446
86.0382
100.229
101.98
97.5092
97.318
93.7036
90.2639
87.6933
85.095
82.5226
80.0099
77.5451
75.0981
72.6779
70.3053
67.9721
65.6432
63.3003
61.0062
58.7241
56.4522
54.2067
51.9706
49.7437
47.5343
45.3521
43.1709
40.9926
38.8345
36.6813
34.5276
32.4042
30.3013
28.2095
26.1344
24.1003
22.0981
20.1083
18.1374
16.1846
14.2371
12.2966
10.359
8.43946
6.54644
4.6696
2.80132
0.935081
95.3203
96.9524
102.629
100.077
101.176
99.202
98.4542
94.3782
90.5622
87.8701
85.1907
82.605
80.0459
77.5571
75.1106
72.6907
70.3094
67.9673
65.6219
63.3032
61.0141
58.724
56.4565
54.2085
51.9819
49.7541
47.5332
45.358
43.1644
40.9806
38.8342
36.677
34.5214
32.3988
30.309
28.226
26.1406
24.0964
22.0984
20.1138
18.1431
16.1753
14.219
12.288
10.3669
8.4427
6.54747
4.67704
2.80768
0.93029
95.5961
92.1497
105.731
110.375
107.824
100.436
99.1048
95.1973
90.6207
87.864
85.1771
82.5724
80.038
77.5483
75.1123
72.6947
70.3204
67.9572
65.6009
63.3041
61.019
58.7241
56.4616
54.2127
51.991
49.7695
47.5433
45.3528
43.1515
40.9715
38.8273
36.6667
34.5187
32.3973
30.3101
28.2351
26.1508
24.1009
22.1035
20.125
18.1414
16.1587
14.1998
12.2783
10.3642
8.44426
6.55484
4.69156
2.81653
0.928556
95.3217
101.54
100.399
106.264
101.961
101.172
99.1066
95.1931
90.3417
87.6817
85.0584
82.4988
79.9963
77.5275
75.1124
72.6999
70.3252
67.9585
65.5971
63.2964
61.0195
58.7194
56.462
54.2225
51.997
49.7839
47.5537
45.3474
43.144
40.962
38.8178
36.6593
34.5104
32.3989
30.3131
28.2368
26.1611
24.1109
22.1061
20.1243
18.135
16.142
14.1846
12.2664
10.3588
8.44849
6.57124
4.7151
2.82683
0.931417
99.0906
117.565
111.765
112.183
103.886
100.066
97.6636
93.9615
89.7296
87.3199
84.8588
82.3844
79.9421
77.4984
75.0811
72.681
70.3139
67.9606
65.5956
63.2799
60.9927
58.7142
56.4578
54.2289
52.0007
49.7794
47.559
45.3436
43.1441
40.975
38.8192
36.6497
34.5048
32.4058
30.317
28.2317
26.1662
24.1231
22.1074
20.1175
18.128
16.1413
14.1834
12.2663
10.3547
8.45028
6.57762
4.71506
2.83087
0.940592
102.847
98.0208
111.397
107.988
102.063
92.1609
93.8105
91.9854
89.2161
87.0377
84.6791
82.2774
79.8769
77.4573
75.0342
72.6674
70.2946
67.9414
65.6041
63.2706
60.9861
58.7096
56.4563
54.2301
52.0009
49.7853
47.5618
45.3426
43.1621
40.9848
38.815
36.6479
34.511
32.4131
30.3148
28.2202
26.1657
24.1357
22.1131
20.109
18.1224
16.1465
14.1944
12.2692
10.3531
8.45232
6.57583
4.70408
2.82928
0.944534
108.533
72.4198
101.314
133.932
116.233
95.0783
94.514
91.7842
89.1579
86.9839
84.6354
82.2505
79.8485
77.4366
75.034
72.6587
70.2719
67.9238
65.5965
63.2781
60.9791
58.7027
56.4604
54.2252
52.0025
49.7845
47.5586
45.3415
43.1522
40.9801
38.802
36.6466
34.5254
32.4169
30.3072
28.2107
26.1633
24.1413
22.1176
20.1078
18.1206
16.1593
14.2136
12.2708
10.3497
8.45392
6.56896
4.69338
2.81858
0.94572
111.472
100.213
109.994
109.242
103.728
98.7086
96.114
91.8957
89.5142
87.1134
84.7099
82.2791
79.8426
77.4445
75.0363
72.6475
70.2689
67.9229
65.5918
63.281
60.9824
58.7064
56.465
54.2151
51.9922
49.7804
47.5582
45.3426
43.1494
40.9806
38.8042
36.6535
34.5424
32.425
30.2969
28.196
26.1489
24.1346
22.1199
20.1065
18.1209
16.1709
14.2307
12.2729
10.3438
8.45758
6.57201
4.68211
2.80408
0.935771
107.453
97.4906
117.604
94.4577
100.005
98.7038
96.3453
92.1851
89.7403
87.2808
84.8167
82.3524
79.8924
77.462
75.0459
72.6511
70.2723
67.9221
65.5959
63.2946
60.9948
58.717
56.4678
54.2094
51.9761
49.7619
47.554
45.3439
43.152
40.9856
38.8154
36.6689
34.5514
32.4256
30.2911
28.1889
26.1395
24.1257
22.1196
20.1066
18.1216
16.1814
14.2446
12.2803
10.3423
8.45269
6.56613
4.67161
2.79843
0.93568
97.4806
96.6151
93.7017
92.401
94.5365
98.0531
96.1776
92.5704
90.0324
87.4944
84.9648
82.4491
79.9769
77.5155
75.0735
72.6774
70.2823
67.9435
65.6232
63.2995
61.0019
58.7194
56.4575
54.2099
51.9672
49.7486
47.5435
45.3461
43.1596
40.9867
38.8293
36.6815
34.5472
32.4157
30.2943
28.1953
26.135
24.11
22.1008
20.1054
18.1279
16.1864
14.2472
12.2952
10.3492
8.4428
6.55195
4.66824
2.79902
0.934977
93.9808
89.8721
88.2417
99.7776
98.5686
97.6091
97.312
93.7043
90.2636
87.6934
85.0948
82.5225
80.0098
77.545
75.098
72.6778
70.3052
67.9719
65.6431
63.3003
61.006
58.724
56.452
54.2066
51.9706
49.7435
47.5343
45.352
43.1709
40.9924
38.8341
36.6809
34.5277
32.4043
30.3012
28.2095
26.1343
24.1003
22.098
20.1082
18.1374
16.1846
14.2364
12.2963
10.359
8.43939
6.54627
4.66955
2.80129
0.934942
96.7169
97.3079
107.623
100.629
99.2367
99.2599
98.4194
94.3809
90.5615
87.8701
85.1906
82.605
80.0458
77.557
75.1106
72.6906
70.3093
67.9671
65.6218
63.303
61.0142
58.7239
56.4566
54.2086
51.9817
49.7538
47.5333
45.358
43.1644
40.9806
38.8341
36.677
34.5213
32.3987
30.309
28.2259
26.1404
24.0963
22.0985
20.1138
18.143
16.175
14.2188
12.2881
10.3669
8.44262
6.54737
4.677
2.80758
0.92996
95.0456
91.138
103.013
109.048
108.469
99.8648
99.1546
95.2022
90.6198
87.8643
85.1771
82.5718
80.0377
77.5482
75.1122
72.6947
70.3203
67.9571
65.6008
63.3041
61.019
58.724
56.4615
54.2127
51.9907
49.7695
47.5434
45.3527
43.1514
40.9714
38.8273
36.6666
34.5188
32.3973
30.31
28.2351
26.1507
24.1008
22.1034
20.1252
18.1413
16.1587
14.1998
12.2783
10.3642
8.44419
6.55498
4.69147
2.81646
0.928456
94.7241
102.108
96.4524
108.902
101.261
101.187
99.1054
95.2066
90.3409
87.6818
85.0581
82.4987
79.9964
77.5275
75.1124
72.6999
70.3251
67.9585
65.597
63.2963
61.0196
58.7193
56.4619
54.2223
51.997
49.7839
47.5536
45.3473
43.1439
40.9627
38.818
36.6592
34.5103
32.3997
30.3132
28.2367
26.161
24.1108
22.1061
20.1244
18.1349
16.1421
14.1845
12.2664
10.3587
8.44842
6.57126
4.71509
2.8264
0.931392
101.558
107.778
108.625
118.753
116.051
99.379
97.6307
93.966
89.7293
87.32
84.8587
82.3843
79.942
77.4983
75.0811
72.6809
70.3138
67.9604
65.5955
63.2799
60.9926
58.7141
56.4577
54.2288
52.0006
49.7793
47.5589
45.3439
43.1444
40.9751
38.8192
36.6495
34.5047
32.4057
30.3169
28.2315
26.1661
24.123
22.1073
20.1175
18.1279
16.1409
14.1834
12.2663
10.3546
8.45021
6.57766
4.71493
2.8304
0.940543
105.233
98.29
107.962
102.045
136.881
90.0132
93.8288
91.9856
89.216
87.0377
84.679
82.2773
79.8768
77.4573
75.0341
72.6673
70.2948
67.9411
65.6042
63.2705
60.986
58.7096
56.4563
54.23
52.0009
49.7853
47.5617
45.3425
43.1621
40.9847
38.8149
36.6478
34.511
32.413
30.3147
28.2204
26.1656
24.1357
22.113
20.1089
18.1223
16.1466
14.1943
12.2691
10.353
8.45225
6.57577
4.70404
2.82924
0.944461
105.265
129.615
110.33
125.817
96.7974
97.9024
94.5084
91.7849
89.1577
86.9839
84.6352
82.2504
79.8484
77.4366
75.0339
72.6588
70.272
67.9237
65.5966
63.2781
60.979
58.7028
56.4603
54.2252
52.0021
49.7844
47.5582
45.3414
43.1526
40.9802
38.8018
36.6465
34.5252
32.4169
30.3071
28.2107
26.1633
24.1412
22.1175
20.1078
18.1207
16.1594
14.2135
12.2706
10.3496
8.45383
6.56887
4.6933
2.81852
0.945628
70.8942
112.389
106.501
106.334
102.181
99.1492
96.1106
91.8954
89.5143
87.1131
84.7099
82.2789
79.8423
77.4444
75.0362
72.6478
70.2688
67.9228
65.5918
63.2809
60.9822
58.7063
56.465
54.2151
51.9923
49.7803
47.5582
45.3426
43.1495
40.9805
38.8041
36.6535
34.5427
32.4249
30.2965
28.1962
26.1489
24.1345
22.1199
20.1064
18.1208
16.1709
14.2306
12.2728
10.3437
8.45755
6.57183
4.68197
2.8041
0.935704
98.0327
97.3821
96.8094
98.5698
97.9329
96.8428
96.803
96.8883
97.3984
97.1924
97.1337
96.9256
97.3856
97.1975
97.4706
98.8147
98.2932
97.4845
97.4717
98.6802
98.2383
98.5906
99.6708
99.4882
99.17
98.5833
100.188
99.3979
99.2717
102.483
99.5319
100.602
99.3085
103.694
99.4342
99.3555
102.809
98.7446
101.117
99.3682
101.299
98.728
97.757
92.1757
94.5836
100.057
97.9095
93.5561
94.5798
93.3336
93.114
93.5904
92.5712
93.3384
90.6725
93.5966
94.3565
101.859
96.9063
96.0186
94.3575
100.527
96.9136
97.1511
92.337
98.2585
98.5512
97.1631
109.655
98.0958
97.9229
96.4973
96.8068
98.4743
97.8546
96.5088
96.7937
96.9337
97.3422
97.1969
97.314
96.9327
97.2487
97.1984
97.469
98.6917
98.2885
97.6117
97.4665
98.5678
98.2412
98.5907
100.334
99.2578
99.2192
98.5811
100.068
99.3542
99.3058
101.447
99.4424
100.201
99.2523
100.47
99.4454
99.3795
101.212
98.8439
101.17
99.3772
100.96
98.6951
97.9144
92.9389
94.5848
99.5616
97.7094
92.8721
94.5749
93.3273
90.6393
93.6012
91.3757
93.3829
95.1159
93.6041
94.3577
99.2386
96.9274
95.1621
94.3596
98.5143
96.9915
97.1679
109.018
98.1279
99.239
97.1703
101.969
98.1134
97.8611
96.548
96.791
99.0498
98.0075
96.6443
96.8138
96.9285
97.3157
97.1987
97.355
96.8832
97.3803
97.1927
97.4648
98.5535
98.3666
97.5968
97.4597
98.5989
98.2834
98.6492
102.976
99.2325
99.2882
98.5925
101.36
99.3182
99.2843
100.203
99.4576
99.7272
99.2557
99.9929
99.4541
99.3791
100.939
98.8412
101.322
99.4158
101.46
98.7182
97.7346
92.8472
94.5787
99.425
97.6967
91.6789
94.5942
93.4435
92.9906
93.6056
92.9342
93.3423
92.0927
93.6016
94.3614
100.098
96.9678
95.1554
94.3628
98.786
96.935
97.1707
101.865
98.0644
100.909
97.1438
101.968
98.3064
101.137
96.7095
114.94
99.7169
98.9635
96.4658
97.7805
97.785
97.5463
97.506
99.9323
97.6723
97.7929
98.0271
94.0911
96.1169
94.1641
96.2951
94.0999
96.0515
94.1729
95.1795
97.5445
98.6888
100.175
97.7679
97.5794
97.0757
96.5588
96.7811
96.9205
97.1909
96.8674
96.857
96.5955
94.4383
96.9834
94.744
96.1824
94.447
97.0194
94.7516
97.7536
107.232
99.9558
98.9614
98.59
104.753
97.8679
97.7572
97.3694
101.439
97.5601
97.4051
99.4947
97.7611
94.9161
98.0837
95.441
97.3157
94.927
98.0473
95.4401
99.6388
100.684
100.753
100.274
99.4035
101.21
101.1
100.868
98.903
100.345
99.3994
99.1864
100.982
101.341
95.75
99.2457
96.9248
98.4644
95.7534
99.1773
96.7871
108.621
102.151
112.93
106.963
106.206
101.356
113.034
100.254
99.8318
104.294
100.798
99.7988
103.138
100.679
97.4128
99.2627
98.0541
99.1799
97.3399
99.1341
97.9075
102.436
108.827
104.295
101.539
102.034
110.067
101.215
100.642
100.156
101.528
101.085
100.146
100.906
100.64
97.8275
98.3732
96.5814
99.2289
97.7102
98.3554
96.4382
96.9386
82.0795
99.5359
103.891
122.876
81.4664
87.7248
97.7035
98.8848
97.9537
99.9749
98.6974
98.248
97.3721
95.5358
94.9826
93.5103
97.6755
95.4034
94.9846
93.5204
106.902
106.291
90.4381
104.506
108.912
101.802
88.2138
90.7028
91.4439
102.268
93.7864
91.6098
94.5421
94.7065
92.8647
93.9443
92.4984
93.8205
92.8609
93.9407
92.5046
106.815
106.689
99.2427
118.264
99.5757
107.062
101.61
94.2722
94.8379
95.328
96.6204
94.7885
96.148
95.2187
92.9061
96.2387
93.4259
94.5084
92.5806
96.1027
93.424
101.419
105.378
98.2251
105.196
103.239
104.833
100.713
98.1089
97.8045
98.6395
104.567
97.7929
98.7497
98.1037
93.6682
96.2748
94.0076
96.1226
93.6763
96.2186
94.016
99.534
96.3517
96.9965
99.4856
97.9752
96.2218
97.1397
97.8613
97.7062
98.3872
98.6367
97.8559
97.2862
97.8725
94.0988
96.0469
94.1719
96.3243
94.0987
96.0567
94.1717
95.8458
97.6607
97.063
97.664
95.9908
97.9531
96.9214
96.5883
96.6478
96.6774
97.2532
96.5241
96.6954
96.7892
94.446
97.0292
94.7492
96.1694
94.4457
97.03
94.7485
98.2394
107.281
98.3594
102.582
97.8096
109.896
103.775
97.7356
97.4239
103.27
97.5831
97.9476
97.4627
99.5406
94.9256
98.0383
95.4369
97.3136
94.9257
98.0314
95.436
99.8978
101.55
100.283
99.0304
99.5954
101.233
100.868
100.176
99.0136
101.176
99.2146
99.7945
98.9747
101.539
95.7506
99.1724
96.7746
98.5185
95.7514
99.1829
96.7703
105.877
100.879
119.676
107.985
94.2137
115.739
93.3435
100.221
99.8045
101.136
100.322
100.213
99.7664
100.986
97.3201
99.3411
97.9489
99.1154
97.3079
99.2446
97.9466
101.523
102.925
100.944
101.586
102.132
100.764
100.532
100.637
100.145
101.388
101.23
100.655
100.191
101.424
97.7618
98.3586
96.4351
99.1054
97.7605
98.4172
96.4265
121.86
75.3813
86.6761
104.679
103.821
80.1122
86.401
97.5315
99.2403
98.2224
99.6245
97.5228
99.1621
98.3153
95.3908
95.0159
93.5184
97.6497
95.3906
94.9801
93.5185
83.0466
101.902
84.031
143.627
73.4364
93.9503
69.174
90.5487
91.7683
90.7292
96.5171
90.3876
91.5238
94.7851
92.859
93.9446
92.5023
93.8208
92.8601
93.9456
92.5026
98.0897
108.391
101.315
119.793
107.781
105.119
102.452
95.6633
94.8526
99.1517
95.2896
95.7543
94.8905
99.1148
92.5795
96.0823
93.422
94.5161
92.5791
96.0207
93.4217
100.752
104.248
97.4961
103.267
96.977
106.712
102.013
98.3676
97.7816
99.2825
98.745
98.4715
97.7875
99.4751
93.6746
96.2169
94.0149
96.1058
93.6745
96.2287
94.015
98.2173
96.1591
95.6992
103.473
100.376
97.0621
95.6467
97.8608
98.0952
97.6397
98.8691
97.799
97.6588
98.1135
94.0998
96.0593
94.1725
96.325
94.0908
96.1201
94.1635
97.7306
97.9024
96.736
96.5368
99.535
102.614
99.4667
96.865
96.7734
97.7184
98.6163
96.6484
96.7894
98.3607
94.4459
97.0254
94.7512
96.3057
94.4365
96.9791
94.7447
97.5681
98.1478
101.138
98.1937
99.4151
99.7214
98.2721
97.9072
97.5606
97.1804
97.6096
97.8592
97.5372
96.7551
94.9277
98.0431
95.4389
97.2795
94.9167
98.0639
95.4391
99.5448
101.329
100.015
99.3994
99.5475
101.321
100.044
99.398
98.9059
101.436
99.1216
99.4923
98.9122
101.556
95.754
99.1743
96.7857
98.4849
95.7502
99.2214
96.8975
96.1834
103.835
94.4765
113.537
96.5764
104.198
95.7934
100.296
99.7036
100.089
99.7205
100.215
99.6512
100.169
97.318
99.2767
97.9275
99.1529
97.4343
99.2717
98.0363
101.965
101.187
99.7722
101.946
101.25
102.371
101.467
100.585
100.29
101.487
101.331
100.59
100.308
101.75
97.7159
98.4603
96.4393
99.1329
97.828
98.4479
96.5667
102.207
84.7944
91.243
116.531
102.257
131.451
88.1369
97.5948
99.1987
103.726
99.3594
97.6563
99.233
101.713
95.4059
95.0238
93.5207
97.6268
95.537
95.0189
93.5102
84.4275
92.3879
86.7111
133.179
80.5706
172.612
86.2857
91.0051
91.4512
88.9248
90.1278
90.7601
91.5775
89.7673
92.8619
93.9412
92.5052
93.8576
92.8665
93.9375
92.4982
102.958
105.177
100.206
106.16
102.634
118.071
99.902
95.0669
94.9461
99.1511
95.5545
95.3535
94.981
101.342
92.5802
96.0478
93.4236
94.4578
92.9061
96.1612
93.4258
98.44
105.702
101.223
104.965
100.343
108.871
100.619
98.3077
97.799
99.9906
99.2637
98.2654
97.8083
100.771
93.676
96.247
94.0163
96.1981
93.6676
96.2777
94.0079
97.3776
97.5868
98.0691
97.928
97.9497
97.3891
97.5722
97.8203
104.135
97.0507
96.7644
98.14
96.478
100.424
97.1496
97.1408
96.6784
96.8006
97.1403
96.6828
97.1889
97.7747
101.455
97.7001
98.6493
97.218
97.8023
97.862
97.3739
97.9237
97.5726
97.8869
97.8982
97.3785
97.5633
97.7319
96.4661
101.635
96.5374
97.7955
96.2297
97.2872
97.1481
96.7997
97.1433
96.6871
97.1287
96.6845
97.1598
96.5391
96.698
96.7131
96.9086
96.7073
96.7327
96.5296
97.4215
97.2026
97.3995
97.3537
97.2121
97.25
97.8128
96.8493
97.0175
97.1951
97.1994
97.0241
97.1999
97.0175
96.5212
97.1114
96.5868
96.6935
96.5744
96.8148
96.5439
96.5412
96.9239
96.7017
96.7492
96.7059
96.7446
96.5333
97.4911
97.36
97.4957
97.1219
97.2436
97.0875
97.8035
96.8229
97.1972
97.0194
97.1802
97.0372
97.238
96.8613
97.9387
97.4479
97.7982
97.4731
97.4498
97.7712
97.9162
98.2139
97.9038
98.4194
98.8517
98.0915
98.3455
98.2403
98.3262
98.2182
98.4486
98.2799
98.1884
98.4473
98.4257
97.7545
97.5197
97.4043
99.3112
97.3845
99.3174
97.7275
97.8966
97.4724
97.4732
97.7727
97.4792
97.7945
97.8911
98.1314
98.7709
98.5306
98.3102
98.0842
98.3457
98.1054
98.4117
98.3475
98.1655
98.4461
98.2304
98.4518
98.3875
99.2021
98.4502
98.9639
98.5978
98.6233
98.9836
99.1917
99.6318
100.884
99.9097
99.737
100.869
99.9298
99.624
99.3395
99.0743
99.479
99.4379
99.09
99.4752
99.3447
99.7467
99.3071
99.133
100.918
99.5641
100.784
100.954
99.1865
98.5827
99.0438
98.9599
98.5313
98.9637
99.2832
99.6256
102.301
101.233
99.9076
101.166
100.164
99.6329
99.2683
99.4329
99.0554
99.5174
99.1786
99.5378
99.285
99.654
99.5721
99.5448
99.2759
99.5543
99.5535
99.8076
99.8693
101.499
100.279
103.292
101.317
100.244
99.8474
99.691
99.3099
99.9154
99.5095
99.2918
99.8449
99.7103
100.708
100.807
99.8135
103.498
99.8081
103.441
100.472
99.6702
99.3428
99.5239
99.4428
99.5798
99.7242
99.6571
100.118
101.023
100.761
100.284
101.281
100.269
99.7521
99.695
99.6693
99.2635
99.8308
99.4101
99.8434
99.6767
99.9925
99.8223
99.37
99.344
99.7939
99.3775
100.054
100.797
103.345
100.207
103.792
101.848
100.128
100.829
99.7883
99.1076
99.3294
98.7628
99.1099
99.3267
99.7947
100.648
101.076
100.133
101.246
100.132
101.115
100.644
99.9927
99.5044
99.8072
99.3833
99.803
99.5154
99.9939
100.86
101.454
102.18
100.024
101.999
100.099
100.802
99.7785
98.7255
99.1108
99.3201
99.1102
99.3485
99.7761
97.5105
98.425
96.8464
97.7835
98.2597
96.8578
97.1343
94.2609
98.1002
93.226
92.1994
96.7706
93.2147
95.2692
94.9214
95.379
93.8408
94.5843
95.3989
93.8201
95.0307
97.4012
99.9378
99.8198
98.5353
98.8595
97.8575
97.387
96.7272
97.7097
98.0673
96.8482
98.1877
96.8753
96.7095
94.5706
99.8404
99.7402
93.2449
96.9839
93.2152
94.6714
94.9076
94.6132
95.3915
93.8129
95.4326
93.818
94.9556
92.5465
92.6966
93.2799
93.3402
92.7551
93.2029
93.4356
91.2534
93.367
92.4647
92.4176
86.2256
91.759
91.168
92.4235
92.8183
92.9561
93.59
92.8144
92.9758
91.9535
90.4568
93.6049
91.2321
91.8667
91.2124
88.3533
90.7627
92.4554
93.3903
92.6403
93.0851
92.6572
93.2903
92.6388
91.5343
96.535
92.8498
92.0295
92.9458
91.9007
91.223
91.9803
93.5966
92.8091
92.9994
92.8001
92.9951
92.8354
96.0637
94.5869
95.3647
94.3583
94.5872
95.3665
95.9615
96.3551
102.919
97.8782
105.449
103.756
97.5545
97.377
96.3019
95.7491
97.6314
96.9211
95.719
97.6382
96.229
95.8872
96.2666
94.8239
98.9444
94.8108
97.3228
95.4842
95.4581
94.3575
94.5841
95.3706
94.5839
95.3689
95.4893
96.3535
103.165
106.769
97.5856
108.801
97.6143
96.38
96.0566
96.9116
95.65
97.6411
95.6551
97.6395
96.0557
98.0739
97.9047
97.7879
97.1596
97.9011
97.7886
98.0622
97.8618
90.9012
97.1226
90.3777
92.2975
97.8045
98.0654
97.9776
98.0383
97.8137
98.0693
98.0007
97.9606
97.7593
98.0781
108.776
97.6633
99.1594
97.893
104.214
98.0917
98.0731
97.1623
97.886
97.788
97.8917
97.7891
98.0724
98.0663
90.1921
113.489
97.6313
97.2789
98.1702
97.1646
97.984
98.0427
97.9361
97.8186
97.9627
97.9791
97.7679
97.4079
97.5775
97.9271
97.9243
97.4075
97.9201
97.5858
97.2802
98.4018
96.6314
96.5582
97.4046
98.5032
96.4636
97.174
97.0695
96.6905
96.8061
97.1561
97.0591
96.6924
97.8519
98.8338
97.9911
97.5515
98.0651
97.8107
97.9838
97.4102
97.8914
97.5741
97.9359
97.9158
97.42
97.5765
97.7754
96.5174
98.5075
96.4279
98.5512
96.4155
97.6825
97.167
96.8013
97.0298
96.6943
97.0233
96.6925
97.1767
96.5367
96.6991
96.7617
96.9366
96.5321
96.6985
96.7673
97.5345
97.1602
97.2007
97.3099
97.8015
97.0623
97.3252
96.8911
97.015
97.1813
97.1968
96.9138
97.026
97.1912
96.6345
97.2732
96.8021
96.9162
96.82
96.8214
96.6525
96.5386
96.9342
96.7004
96.7664
96.6986
96.7685
96.543
97.4804
97.295
97.0242
97.103
97.0508
97.1924
97.4675
96.8907
97.198
97.0275
97.1858
97.0302
97.1818
96.8928
97.8676
97.4903
97.7723
97.4674
97.8757
97.4775
97.7643
98.2392
100.5
98.2971
98.7608
98.422
100.484
98.6621
98.4534
98.2688
98.4464
98.2665
98.4266
98.1085
98.5413
97.8446
97.622
97.5044
96.8586
97.5725
99.6165
97.8545
97.8703
97.4675
97.4371
97.7531
97.4559
97.7623
97.8763
98.1188
98.6957
98.9208
99.6823
98.7167
98.645
98.0726
98.4694
98.2645
98.1244
98.552
98.1145
98.4747
98.4613
99.2724
98.9287
98.9629
98.5898
99.2973
98.7948
98.9658
99.8452
101.537
99.9113
100.334
99.7447
102.116
99.9167
99.2923
99.0723
99.488
99.2529
99.2955
99.0922
99.4803
100.931
99.2299
98.9113
101.51
98.9649
101.539
99.4695
99.1834
98.5721
98.7981
98.9194
98.8009
98.941
99.1886
99.7808
100.339
101.679
99.923
101.573
99.918
99.9712
99.3025
99.4131
99.0295
99.5038
99.0777
99.4976
99.3366
99.6582
99.521
99.4784
99.2586
99.6634
99.5275
99.4391
99.7586
101.41
100.351
101.117
99.7456
101.45
100.326
99.7194
99.2486
99.8335
99.4362
99.6778
99.264
99.8551
100.233
100.176
99.6813
100.265
99.7162
100.726
100.219
99.6591
99.2946
99.508
99.4486
99.5197
99.4776
99.6694
99.7615
100.81
101.135
100.366
101.496
100.356
99.762
99.6886
99.4359
99.266
99.86
99.2578
99.8571
99.6896
100
99.8119
99.3902
99.3752
99.9955
99.8085
99.3757
100.748
102.071
100.092
101.142
100.883
101.979
99.9718
99.7636
99.0863
99.3111
98.797
99.7822
99.088
99.3353
100.624
101.198
100.306
101.497
100.326
101.46
100.615
100.001
99.3746
99.8149
99.3851
99.8102
99.3784
100.017
100.844
101.229
102.127
100.053
102.021
100.006
100.592
99.7524
98.7119
99.0935
99.2948
99.098
99.3145
99.7622
96.7285
98.2417
96.9204
97.7577
96.7361
98.1341
96.8622
94.6785
95.2327
93.2125
92.7142
94.6581
95.3631
93.3023
94.9408
95.3973
93.8231
94.567
94.9462
95.3944
93.8299
97.5733
99.6052
99.1929
97.9738
99.1716
98.4116
97.6652
96.7964
97.6181
98.0627
96.888
98.1617
96.8954
96.8163
94.6447
92.0574
94.6376
93.8521
94.9104
93.2654
94.6855
94.9926
94.5753
95.3586
93.8747
95.4092
93.8207
94.9655
92.0603
92.6752
93.0844
93.3436
92.3996
92.6258
93.0949
91.44
89.6221
92.0237
90.0888
91.2875
90.7409
92.0002
92.8636
92.8135
92.991
93.6003
92.7648
92.8216
93.0302
90.9822
92.2552
91.3901
89.227
91.4508
97.2956
90.833
92.0797
93.344
92.6663
93.139
92.6231
93.142
92.2943
91.4725
89.8405
101.72
92.0457
89.7774
92.0471
91.4968
93.1152
93.6036
92.8104
93.0371
92.8104
93.0374
91.9857
95.7394
94.595
95.3734
94.3566
95.7244
94.5978
95.3744
96.7383
107.992
97.3811
99.1575
96.6871
108.854
97.3859
96.6164
95.5878
97.6438
96.9546
96.4365
95.6956
97.6436
95.8639
95.3137
94.9406
99.1779
94.9325
100.082
95.1856
95.7621
94.3581
94.5984
95.3704
94.602
95.3747
95.7255
98.9467
98.8685
108.91
97.5272
108.836
97.4886
97.2939
96.5972
96.9808
95.7569
97.6422
95.8925
97.6402
96.5099
98.0733
97.8832
97.785
97.1698
98.0707
97.8831
97.7849
97.9023
104.621
98.1207
102.729
97.8234
104.039
98.2222
97.981
97.929
97.8494
98.1272
97.9791
97.9249
97.8514
98.4906
98.9097
97.7924
99.7281
97.7892
99.5892
98.3196
98.0696
97.1696
97.8866
97.7793
97.8844
97.7781
98.0678
98.0754
102.879
106.359
98.3527
103.912
98.2385
98.2978
97.9793
98.1306
97.9197
97.8593
97.9164
97.9767
97.8667
97.3759
97.5886
97.9207
97.9072
97.3994
97.8932
97.5968
100.263
98.4905
96.5028
96.8155
98.0647
98.5693
96.4491
97.2416
97.0548
96.6934
96.7966
97.2054
97.1072
96.6945
97.9945
99.2425
98.2087
97.8848
97.6534
97.8962
98.1283
97.3942
97.9544
97.5726
98.0671
97.9618
97.4064
97.5905
99.1909
96.6266
98.8035
96.5418
98.4982
96.4105
98.3653
97.2217
96.8047
97.0727
96.6888
97.0831
96.6954
97.2329
96.5579
96.7024
96.7603
96.9198
96.5469
96.7049
96.7483
97.4628
97.3645
97.189
97.2158
97.4994
97.3837
97.1589
96.9464
97.0233
97.1742
97.1994
96.9641
97.0097
97.1807
96.5961
97.6944
96.7932
97.314
96.7831
97.6318
96.6774
96.5656
96.9039
96.702
96.7153
96.7075
96.7338
96.564
97.4638
97.6886
97.9877
97.3346
97.4985
97.1588
97.6517
96.9665
97.1996
97.03
97.2319
97.004
97.1933
96.9548
97.8931
97.4179
97.7657
97.4634
97.8866
97.4316
97.7551
98.2507
98.2194
99.6428
98.6389
98.0556
98.2518
99.1813
98.4188
98.062
98.4929
98.2814
98.471
98.0894
98.4787
97.8547
97.5956
97.5427
96.9092
97.5509
96.9109
97.8346
97.9125
97.4625
97.4459
97.755
97.456
97.7555
97.9067
98.2025
98.6022
97.2849
99.1658
97.2533
99.1134
98.7829
98.4617
98.2766
98.042
98.4703
98.0934
98.4561
98.4447
99.2015
98.7928
98.9752
98.5852
99.1989
98.8577
98.9511
100.464
102.844
99.9542
101.653
100.093
102.167
100.174
99.3778
99.0915
99.5021
99.2725
99.3999
99.069
99.5036
99.3702
99.1424
98.8909
101.738
98.9167
101.717
99.3366
99.2103
98.5836
98.975
98.9557
98.8677
98.9521
99.2086
99.2307
102.142
101.11
100.11
102.18
100.072
99.8969
99.3796
99.3425
99.0755
99.5492
99.064
99.5019
99.3757
99.6521
99.5713
99.4839
99.2552
99.6504
99.5152
99.4657
99.8576
101.302
100.361
100.083
99.8038
101.488
100.371
99.7174
99.357
99.8703
99.4489
99.6898
99.2547
99.8719
100.103
99.9119
99.7731
100.326
99.6417
100.013
100.209
99.6839
99.242
99.5358
99.5222
99.5266
99.4676
99.8006
99.8544
100.207
100.231
100.351
100.182
100.339
99.8651
99.705
99.451
99.2936
99.8729
99.2565
99.8727
99.6985
100.009
99.8167
99.3776
99.3856
100.002
99.8201
99.3918
100.511
102.17
100.043
101.058
100.547
102.278
100.11
99.8053
99.1126
99.2965
98.7597
99.7982
99.1081
99.2809
100.792
101.182
100.345
101.614
100.363
101.55
100.698
100.229
99.3903
99.8462
99.4016
99.8259
99.3907
100.154
100.75
101.33
103.171
100.138
103.757
100.008
100.644
99.8004
98.7133
99.1107
99.2808
99.1104
99.2787
99.8045
96.9022
98.1635
96.8957
97.7826
96.8927
98.124
96.8756
94.6525
94.3805
93.3613
95.2028
94.6836
94.179
93.3082
94.9668
95.3913
93.8072
94.57
94.9589
95.3665
93.813
97.6394
99.3059
99.3592
100.242
99.4322
100.374
98.0594
96.9106
97.8056
98.1175
96.9281
98.1413
96.8861
96.9171
94.6605
92.5161
94.28
93.3804
94.2663
93.3299
94.7048
94.9689
94.5773
95.3821
93.8413
95.3712
93.8156
94.9955
91.9229
92.6365
93.1288
93.3511
91.9588
92.6411
93.1702
91.5137
95.1672
91.9971
91.8283
91.5384
95.2745
92.0705
92.395
92.8396
93.0599
93.6015
92.4048
92.8197
93.0713
91.0987
94.7211
91.6246
90.365
91.6331
89.7607
91.4105