/*--------------------------------*- C++ -*----------------------------------*\
| =========                 |                                                 |
| \\      /  F ield         | OpenFOAM: The Open Source CFD Toolbox           |
|  \\    /   O peration     | Version:  5.0                                   |
|   \\  /    A nd           | Web:      www.OpenFOAM.org                      |
|    \\/     M anipulation  |                                                 |
\*---------------------------------------------------------------------------*/
FoamFile
{
    version     2.0;
    format      ascii;
    class       surfaceScalarField;
    location    "3";
    object      phi;
}
// * * * * * * * * * * * * * * * * * * * * * * * * * * * * * * * * * * * * * //

dimensions      [0 3 -1 0 0 0 0];

internalField   nonuniform List<scalar> 
26815
(
-3.73506e-10
-3.78826e-09
8.27932e-09
5.58504e-10
-4.85409e-09
1.00403e-09
8.68795e-09
-2.70862e-09
-1.10085e-09
-1.93335e-09
-3.55911e-09
6.21082e-09
9.425e-10
2.9224e-09
-1.48768e-08
-6.6325e-08
1.93143e-07
-1.16983e-07
-3.35703e-09
-2.28543e-09
7.17445e-09
1.47778e-09
-3.56273e-10
-9.77633e-10
1.83241e-09
-9.11073e-10
2.01693e-09
-3.33292e-09
-1.23645e-10
8.74849e-10
-5.65099e-10
2.91889e-10
1.01688e-09
8.18509e-10
1.26758e-09
8.61625e-10
-1.79098e-10
8.40277e-10
5.25316e-10
-1.54951e-09
-6.41706e-11
1.02452e-12
3.45275e-11
2.88957e-11
1.37548e-09
-9.22468e-11
-3.22129e-11
-2.49607e-10
-2.39572e-10
-4.2871e-10
-4.05614e-10
1.37029e-09
-5.39228e-11
-9.84989e-14
1.37638e-09
-4.14293e-11
1.20209e-13
1.38036e-09
-2.71892e-11
3.18169e-14
1.38475e-09
-1.78402e-11
-1.74943e-13
1.38834e-09
-1.15558e-11
6.34711e-14
1.38894e-09
-7.80981e-12
-3.28885e-13
1.39041e-09
-4.88394e-12
1.27667e-13
1.39115e-09
-1.61796e-12
-4.72922e-13
1.3921e-09
-1.99298e-12
-2.37728e-14
1.39183e-09
-1.20598e-12
-2.97889e-13
1.39182e-09
1.42963e-13
-3.19654e-13
1.39283e-09
-3.65905e-13
1.27896e-12
1.39283e-09
-2.10012e-13
-6.96447e-13
1.39284e-09
1.55084e-13
-8.6425e-13
1.39318e-09
5.31422e-13
-1.38931e-12
1.39324e-09
-2.93183e-13
5.86518e-14
1.39348e-09
1.10774e-13
-2.75875e-13
1.39302e-09
-7.34637e-14
1.23939e-12
1.393e-09
9.36076e-14
-4.25893e-14
1.39319e-09
-5.50026e-14
-4.94103e-16
1.39319e-09
-2.3139e-13
-8.29234e-13
1.39337e-09
4.02996e-13
1.91565e-13
1.39275e-09
-8.15032e-13
3.81159e-12
1.39309e-09
-7.37475e-13
2.48707e-12
1.39288e-09
-8.06291e-14
-3.415e-13
1.39415e-09
-2.78447e-12
1.12436e-12
1.39388e-09
1.24622e-13
-2.29406e-14
1.39364e-09
4.26324e-13
-3.76822e-13
1.39312e-09
4.84011e-13
-2.16582e-13
1.39309e-09
6.80933e-13
-6.80066e-13
1.395e-09
-3.03871e-12
7.02734e-13
1.39434e-09
4.70765e-13
1.30349e-13
1.39442e-09
2.06081e-14
2.38275e-14
1.39442e-09
-1.001e-13
1.63181e-15
1.39468e-09
-3.2668e-13
-5.61872e-14
1.39357e-09
2.7438e-12
-1.31707e-12
1.39385e-09
-3.23793e-13
1.56962e-13
1.39378e-09
3.24481e-13
-1.36862e-13
1.39495e-09
-1.12759e-12
-1.75403e-13
1.39462e-09
2.36303e-13
1.64179e-13
1.39406e-09
-4.3387e-13
7.95163e-13
1.28472e-12
-1.14328e-12
1.31822e-08
3.82209e-09
-1.94038e-08
-1.75166e-09
-1.05946e-10
1.50535e-08
-1.47715e-09
1.32879e-09
-3.45433e-10
2.345e-09
-1.11817e-09
1.0926e-09
-1.56511e-09
8.09922e-10
-6.52166e-10
-4.32605e-10
1.18291e-09
-7.81083e-10
8.48669e-10
-3.00236e-09
4.63562e-10
2.79203e-09
7.30603e-10
-1.21208e-09
-2.77412e-09
-6.01981e-11
1.27102e-09
5.86043e-10
1.09649e-09
4.11168e-10
3.65656e-10
9.94288e-10
3.61376e-11
-1.14333e-10
-3.00352e-10
-4.28591e-09
-3.20489e-11
6.83113e-10
-2.22325e-10
2.47108e-10
-6.75847e-10
-1.16849e-10
5.38979e-12
-8.22341e-12
8.95123e-11
3.01706e-11
1.41532e-09
-2.17129e-11
-3.40725e-11
-2.4674e-10
-2.52831e-10
-4.14737e-10
-4.33092e-10
-2.56039e-11
-3.71186e-11
-4.16553e-11
1.40201e-09
-3.8966e-11
-1.60552e-12
1.3997e-09
-3.8937e-11
-1.33821e-13
1.39666e-09
-2.40529e-11
-6.63995e-14
1.3953e-09
-1.64322e-11
-3.37061e-14
1.39449e-09
-1.07333e-11
-1.21032e-14
1.39371e-09
-7.01333e-12
-2.75448e-14
1.39325e-09
-4.42851e-12
-8.4922e-15
1.39339e-09
-2.36575e-12
5.87284e-13
1.39315e-09
-1.73584e-12
-2.97575e-14
1.39261e-09
-6.15886e-13
-6.19968e-14
1.39298e-09
-1.54925e-12
1.32705e-12
1.393e-09
-3.94345e-13
8.18117e-15
1.39292e-09
-7.55872e-14
-4.92204e-14
1.39291e-09
-4.39167e-14
2.25966e-13
1.3929e-09
-1.37828e-12
1.92569e-12
1.39325e-09
4.21811e-13
-1.04479e-12
1.39313e-09
-1.30187e-13
3.82807e-13
1.39317e-09
5.87266e-14
-1.43394e-13
1.39326e-09
2.23616e-14
9.57587e-15
1.39346e-09
-3.001e-13
7.54517e-14
1.39281e-09
-1.10887e-12
1.56298e-12
1.39236e-09
-1.64651e-13
1.05735e-12
1.39298e-09
9.96188e-14
-1.49294e-12
1.39324e-09
4.57228e-13
-1.41117e-12
1.3945e-09
-3.20637e-12
1.90944e-12
1.39372e-09
-3.13712e-12
1.18345e-12
1.39367e-09
2.76121e-13
-5.46134e-14
1.394e-09
8.53616e-14
5.66608e-14
1.39437e-09
2.51685e-13
-8.03711e-14
1.39453e-09
1.24521e-13
4.43824e-13
1.39298e-09
-9.56538e-13
-4.72644e-13
1.39346e-09
2.18015e-13
-1.84925e-13
1.39371e-09
-1.41659e-13
-3.08603e-14
1.39385e-09
-1.38705e-13
-5.59389e-14
1.39349e-09
1.47798e-13
-7.44985e-14
1.39476e-09
2.86474e-13
1.22671e-12
1.39453e-09
1.3747e-14
-6.98256e-14
1.39463e-09
1.31194e-13
1.21086e-13
1.39418e-09
-1.74899e-12
1.09604e-12
1.3941e-09
4.136e-13
-7.77599e-14
1.39443e-09
1.67831e-13
-9.21732e-13
-1.75659e-13
1.20812e-12
2.48092e-09
7.69657e-09
-7.43363e-09
5.03868e-10
2.14176e-09
-1.78749e-10
3.32538e-10
-3.16988e-09
5.21218e-09
-6.89611e-10
1.06627e-08
-3.88608e-10
-3.07526e-09
-4.58595e-10
-1.38227e-09
-3.11671e-09
-1.55167e-09
-1.04937e-09
2.66251e-09
-2.0915e-09
-1.94193e-10
6.72558e-10
-4.29051e-09
2.15912e-09
2.76543e-09
3.53279e-09
-4.16683e-09
-3.80778e-10
-3.71002e-12
1.51217e-10
1.02094e-09
-7.87665e-10
-6.04071e-11
-4.58416e-12
3.3329e-11
-9.37181e-11
1.2538e-10
-3.38659e-11
2.05853e-10
-2.21918e-11
-1.12158e-11
-3.50065e-11
-6.10518e-11
-6.42311e-11
1.41569e-09
-5.92624e-11
-2.45537e-11
-2.5521e-10
-2.6215e-10
-4.18446e-10
-4.35016e-10
1.41293e-09
-3.39752e-11
-2.14797e-12
1.4083e-09
-1.99674e-11
5.79019e-13
1.40389e-09
-1.19825e-11
-2.26441e-14
1.40038e-09
-7.24194e-12
2.72643e-14
1.39778e-09
-4.42504e-12
3.72076e-15
1.39596e-09
-2.64172e-12
1.55053e-14
1.395e-09
-1.5908e-12
1.72024e-13
1.3944e-09
-1.1727e-12
2.42435e-14
1.39413e-09
-7.76189e-13
4.22275e-13
1.39294e-09
4.8452e-13
-8.34973e-13
1.39292e-09
-3.6124e-13
-8.25809e-15
1.39335e-09
-4.31236e-13
-7.25319e-14
1.39345e-09
-1.66913e-13
3.11985e-14
1.393e-09
-4.176e-13
-4.88209e-13
1.39255e-09
-1.02857e-13
9.89108e-13
1.39275e-09
-2.48376e-13
-5.71983e-14
1.39295e-09
-1.70055e-13
4.99801e-14
1.39292e-09
2.88914e-13
-2.07231e-13
1.39248e-09
-1.45516e-14
1.87698e-13
1.3929e-09
8.40166e-13
-2.33481e-12
1.39429e-09
1.23773e-12
-2.75841e-12
1.39387e-09
5.69244e-13
-1.18796e-15
1.39479e-09
6.24089e-13
-1.04244e-12
1.3935e-09
2.90244e-14
-1.90236e-12
1.3932e-09
3.77068e-14
-2.83022e-12
1.39349e-09
1.99783e-13
-1.59738e-13
1.39371e-09
-1.71077e-13
8.42173e-14
1.39392e-09
1.41987e-13
-5.18293e-14
1.3939e-09
-7.61052e-14
2.71822e-13
1.39361e-09
-2.49737e-13
-3.60819e-13
1.39352e-09
9.38874e-13
-5.81484e-13
1.39347e-09
-1.08745e-13
6.53697e-14
1.39378e-09
-2.81956e-13
-1.20773e-13
1.39402e-09
-2.36518e-12
2.31382e-12
1.39503e-09
-2.31962e-12
1.63238e-12
1.39474e-09
3.24827e-14
3.11159e-13
1.39471e-09
-1.68169e-14
2.07834e-13
1.39403e-09
-8.56549e-14
-9.6493e-13
1.39396e-09
5.45141e-13
-3.73381e-14
1.39382e-09
2.54061e-13
6.47063e-14
-1.60774e-12
7.13975e-13
3.67534e-09
-4.88219e-10
6.45313e-09
-6.78012e-10
-2.97306e-10
-3.66276e-10
-1.50921e-09
1.24403e-09
1.052e-09
4.38723e-10
8.04983e-09
-2.45676e-09
2.43967e-09
-1.23182e-09
-1.74709e-09
-1.81723e-09
-5.08554e-10
1.40993e-10
4.182e-10
5.77513e-10
-6.28152e-10
2.15347e-09
1.03598e-09
-2.64171e-10
-7.01515e-09
3.38289e-09
-2.46858e-09
2.30957e-09
8.66009e-10
1.66694e-09
1.3367e-10
-2.91046e-09
6.56078e-09
-5.45093e-09
2.06064e-10
2.18883e-10
9.79906e-12
-2.77707e-10
-1.57038e-10
2.90122e-11
1.9354e-11
-3.42919e-11
-9.6089e-11
8.20148e-11
-4.19337e-11
2.2417e-10
9.85805e-12
-3.94529e-11
-7.9303e-11
-7.12947e-11
2.15758e-11
-3.7081e-12
-7.33392e-12
-8.25073e-12
-4.32869e-12
1.46531e-09
-2.46869e-11
-3.22919e-11
-2.71381e-10
-2.77466e-10
-4.48444e-10
-4.7029e-10
1.44064e-09
-6.98727e-12
-2.25286e-12
1.42347e-09
-3.06724e-12
3.02956e-13
1.41248e-09
-8.30835e-13
-1.37813e-13
1.40536e-09
-1.09207e-13
-1.82635e-14
1.40083e-09
1.20031e-13
-2.40926e-14
1.39778e-09
4.12578e-13
-2.11856e-14
1.39584e-09
3.60581e-13
-2.51943e-14
1.39462e-09
-2.90563e-14
6.01475e-14
1.39394e-09
2.57109e-13
-3.5644e-13
1.39395e-09
3.5604e-13
1.25924e-13
1.39351e-09
-2.20035e-13
3.07455e-13
1.39333e-09
-3.21372e-13
7.93778e-14
1.39333e-09
-2.30493e-13
6.62443e-14
1.39316e-09
8.32803e-13
-1.05986e-12
1.39324e-09
2.72809e-14
-1.96374e-13
1.39294e-09
-2.51981e-15
7.2884e-14
1.39299e-09
-1.14445e-13
-8.19385e-14
1.39312e-09
2.68605e-14
1.70368e-13
1.39342e-09
8.6208e-13
-1.14619e-12
1.39387e-09
1.21352e-12
-7.92487e-13
1.39314e-09
3.76547e-13
1.63516e-12
1.39318e-09
6.59409e-13
-9.46741e-14
1.3935e-09
6.89477e-13
-3.36524e-13
1.39334e-09
-1.67771e-13
4.01004e-13
1.39351e-09
1.17363e-14
-9.4441e-14
1.39367e-09
-5.37576e-15
9.00315e-14
1.39367e-09
-2.85027e-14
-9.58452e-14
1.39384e-09
-4.65046e-14
7.87169e-14
1.39405e-09
-1.77284e-13
-5.89486e-14
1.39386e-09
-4.98607e-13
4.87174e-13
1.39339e-09
1.66699e-12
-2.07612e-13
1.39364e-09
-2.39298e-13
-6.98111e-14
1.39483e-09
6.3541e-13
-2.058e-12
1.39435e-09
3.77623e-13
-2.22789e-12
1.39414e-09
3.39279e-13
-2.40276e-12
1.39444e-09
1.6404e-13
-3.96438e-13
1.39468e-09
8.85911e-15
-2.43692e-13
1.39458e-09
1.34881e-12
-1.31028e-12
1.39354e-09
1.64166e-12
-3.04504e-14
1.39377e-09
-6.588e-15
3.89526e-14
-1.95973e-12
5.15653e-13
1.45793e-09
-1.27416e-09
-4.81034e-10
-1.56307e-09
-2.48873e-09
-3.13697e-09
6.33649e-09
8.52284e-10
8.0071e-10
2.3828e-09
-2.21864e-09
-4.05149e-09
3.08663e-09
5.96573e-09
6.35192e-10
-3.20286e-09
-2.00705e-09
-1.39102e-09
7.49517e-11
5.08787e-09
-9.81919e-10
-5.01739e-09
-2.06035e-10
1.06673e-10
2.8243e-10
6.53428e-10
1.43585e-10
-4.44689e-10
4.95476e-11
-6.71339e-10
9.22897e-10
-7.40573e-11
-2.16925e-11
-2.21634e-11
2.24943e-11
9.54189e-11
-5.88497e-11
2.15762e-12
-1.81247e-12
2.65602e-11
3.19443e-11
1.48377e-09
4.02062e-11
-3.57323e-11
-2.82826e-10
-2.78491e-10
-4.80349e-10
-4.71241e-10
1.44934e-09
2.83541e-11
-8.80231e-13
1.4273e-09
1.87337e-11
2.57734e-13
1.41376e-09
1.26108e-11
9.99444e-14
1.40603e-09
7.99295e-12
-3.9074e-13
1.40164e-09
4.51589e-12
-2.64986e-14
1.39775e-09
5.14306e-12
-8.62105e-13
1.39547e-09
3.521e-12
-8.92932e-13
1.39456e-09
9.54388e-13
-8.80125e-14
1.39385e-09
9.58066e-13
8.7889e-15
1.39322e-09
8.51267e-13
1.44844e-13
1.39341e-09
4.92745e-13
-8.98478e-13
1.39324e-09
-1.26869e-13
-1.09837e-14
1.39346e-09
-7.07218e-13
2.66376e-13
1.39337e-09
4.24574e-14
8.9625e-13
1.39334e-09
-4.97242e-14
1.18897e-13
1.39334e-09
2.24718e-13
-2.09032e-13
1.39358e-09
-3.68451e-13
4.76288e-14
1.39367e-09
-1.01833e-14
-2.43158e-14
1.39348e-09
2.02989e-13
8.80854e-13
1.39292e-09
5.59859e-13
1.24281e-12
1.3931e-09
-3.15639e-13
5.48356e-13
1.39377e-09
1.97725e-13
-1.58885e-13
1.39291e-09
1.34135e-12
2.49618e-13
1.39332e-09
1.56716e-13
-6.94281e-13
1.39346e-09
-1.14058e-14
-6.18575e-14
1.3935e-09
4.34816e-15
-6.07754e-15
1.3935e-09
6.75655e-14
-4.5835e-14
1.39355e-09
1.53393e-13
-1.9541e-13
1.39334e-09
-5.06726e-14
1.30712e-13
1.39349e-09
-1.77743e-13
-4.11395e-13
1.3944e-09
1.9047e-13
6.18297e-13
1.39423e-09
-3.9817e-13
3.71338e-13
1.39429e-09
-3.72898e-12
4.35008e-12
1.39444e-09
4.03767e-13
-1.30876e-13
1.39404e-09
2.83325e-13
4.91345e-13
1.39441e-09
-2.48284e-14
-1.42393e-13
1.39488e-09
-4.72977e-13
4.37484e-14
1.39489e-09
-1.37982e-12
2.74147e-12
1.3935e-09
3.35215e-12
-3.01627e-13
1.39384e-09
-8.54221e-13
5.21271e-13
-1.81615e-13
-9.13723e-13
-1.66573e-09
9.17679e-10
-3.12659e-11
9.70293e-10
-3.82939e-10
-2.59308e-09
1.26447e-09
1.69116e-09
3.15711e-08
-1.23363e-08
-2.24526e-08
3.23617e-09
-3.98554e-10
-3.62453e-11
-2.09109e-09
-1.20288e-09
-3.17912e-08
2.22832e-10
2.87175e-08
6.57876e-09
-8.15655e-09
1.60319e-10
4.05519e-09
2.6087e-09
1.33235e-09
-9.99742e-10
8.21166e-10
-5.922e-11
4.76072e-10
-2.38276e-10
-6.98162e-11
9.2088e-10
1.28879e-10
3.86704e-10
-1.36665e-09
-1.08057e-10
-5.11071e-12
-2.24763e-11
-2.38057e-12
1.38025e-10
-6.96047e-11
9.00122e-13
1.36747e-12
2.96493e-11
3.76878e-11
1.46954e-09
1.12147e-10
-3.58718e-11
-2.79954e-10
-2.76827e-10
-4.76066e-10
-4.72753e-10
1.43644e-09
6.35626e-11
-2.11862e-12
1.41729e-09
3.78761e-11
-7.41745e-15
1.40741e-09
2.27889e-11
-3.2122e-13
1.40122e-09
1.38054e-11
3.47079e-13
1.39729e-09
8.43038e-12
-9.89533e-15
1.39611e-09
5.44051e-12
8.52529e-13
1.39532e-09
3.42635e-12
8.67945e-13
1.39422e-09
2.05357e-12
-1.86694e-15
1.39364e-09
1.18164e-12
3.5506e-13
1.39356e-09
1.00509e-12
-6.30763e-14
1.39225e-09
1.14479e-12
6.6594e-13
1.3943e-09
-4.48757e-12
2.31353e-12
1.39324e-09
6.01577e-13
-2.36174e-13
1.39327e-09
6.61483e-13
-6.40288e-13
1.39292e-09
2.23022e-13
9.78718e-14
1.39277e-09
1.97511e-13
1.92614e-13
1.39387e-09
1.23149e-12
-2.67321e-12
1.39386e-09
6.38874e-14
-3.44318e-14
1.39404e-09
1.61957e-13
-1.10592e-13
1.39399e-09
8.87705e-13
-2.38901e-13
1.39227e-09
5.13978e-12
-3.69893e-12
1.3923e-09
-1.17959e-12
1.38652e-12
1.39341e-09
-4.22189e-14
3.26056e-13
1.3935e-09
2.38501e-15
1.06655e-13
1.39348e-09
1.19688e-13
-5.92604e-14
1.39332e-09
1.05216e-12
-8.4586e-13
1.39349e-09
-5.13796e-14
5.71747e-15
1.39358e-09
2.07052e-14
9.49941e-14
1.39367e-09
5.76997e-14
-1.51918e-13
1.39378e-09
-6.79864e-13
4.4389e-13
1.39442e-09
-5.91878e-13
1.93051e-13
1.39486e-09
-3.41597e-13
-4.48802e-13
1.39366e-09
-4.3111e-13
-2.04892e-12
1.39422e-09
-2.03991e-14
-9.03255e-14
1.39348e-09
4.45311e-13
6.08557e-13
1.39368e-09
-3.73898e-13
1.87942e-13
1.39353e-09
-1.87451e-13
-1.02943e-13
1.39352e-09
1.40647e-12
-2.75337e-12
1.39542e-09
1.13159e-12
3.32573e-13
1.39519e-09
-4.83336e-13
-1.2346e-13
-8.33838e-13
1.93078e-12
-6.06899e-09
1.01833e-09
5.95772e-09
4.11966e-08
-2.24371e-08
-6.93377e-09
-4.35315e-10
3.33639e-10
-3.39358e-09
-6.01139e-10
-2.98029e-09
-1.95426e-09
-2.3074e-09
9.52728e-10
9.81535e-10
6.12145e-09
-1.41246e-08
-1.49403e-10
-5.18763e-09
5.1604e-09
-2.77289e-09
-7.54702e-09
2.7876e-09
4.78703e-08
-4.01719e-08
2.15924e-09
5.28774e-09
-2.63705e-09
-5.48711e-09
6.77173e-10
-7.31258e-10
2.60075e-10
3.0308e-11
4.14515e-11
3.99415e-10
-1.00345e-10
2.39678e-10
-1.31103e-10
-6.10751e-10
6.02522e-10
-1.03482e-10
-7.45225e-12
-9.21311e-12
-5.53815e-12
1.25686e-10
-4.25327e-11
-4.06793e-12
4.89366e-12
1.22842e-11
2.94228e-11
1.39054e-09
1.15314e-10
-2.81932e-11
-2.60424e-10
-2.46345e-10
-4.45613e-10
-4.13142e-10
1.39164e-09
6.39218e-11
-1.52076e-12
1.39155e-09
3.76076e-11
3.14716e-13
1.39191e-09
2.24178e-11
-3.25294e-14
1.3922e-09
1.34614e-11
2.52081e-14
1.3924e-09
8.19014e-12
7.80734e-15
1.39269e-09
5.076e-12
4.30291e-14
1.39285e-09
3.25207e-12
5.77613e-15
1.39281e-09
2.07831e-12
2.41209e-15
1.393e-09
1.24421e-12
-2.49087e-13
1.39352e-09
1.22593e-12
-7.42911e-13
1.39421e-09
6.93921e-13
-2.33595e-13
1.39225e-09
-1.78606e-13
-2.33823e-12
1.39283e-09
8.40325e-14
-4.86984e-14
1.39286e-09
1.7492e-13
4.62953e-13
1.3932e-09
2.3593e-14
-1.27452e-13
1.39349e-09
1.1429e-13
-1.82173e-13
1.39263e-09
-5.62507e-13
2.68223e-12
1.3932e-09
-4.30103e-13
-4.71362e-14
1.39402e-09
-6.24035e-13
-4.22848e-15
1.39137e-09
8.29957e-12
-4.72823e-12
1.39316e-09
7.01838e-13
2.68469e-12
1.39366e-09
-4.56547e-13
-1.1785e-12
1.39337e-09
-2.35961e-13
5.27635e-13
1.39352e-09
-1.73927e-13
7.33729e-14
1.39348e-09
1.06552e-13
1.02853e-13
1.39378e-09
1.04661e-13
6.9044e-13
1.39398e-09
2.28321e-13
-4.29701e-13
1.39402e-09
8.6557e-15
2.98678e-14
1.39364e-09
1.36487e-12
-8.81879e-13
1.39351e-09
-3.3262e-14
-4.56662e-13
1.39427e-09
-9.20277e-13
-3.83474e-13
1.39407e-09
-1.72783e-13
7.50235e-14
1.39408e-09
-2.0074e-13
-1.88081e-13
1.39372e-09
3.32282e-13
4.82523e-14
1.3939e-09
2.78198e-13
2.29675e-14
1.39381e-09
-2.45749e-13
-2.74227e-15
1.39362e-09
1.53334e-14
1.26096e-14
1.39408e-09
-7.64281e-13
1.7407e-12
1.39449e-09
6.53825e-13
7.97459e-14
1.39472e-09
-1.52374e-13
-5.47826e-13
-2.1117e-13
-1.4086e-12
3.78342e-09
-8.21206e-10
-2.05867e-08
-4.08435e-09
-2.49761e-10
-3.58832e-09
-2.82107e-08
-7.72594e-09
6.39003e-08
-3.87033e-09
-1.19343e-09
-2.16485e-08
2.13052e-09
-5.25594e-09
2.87408e-10
-2.32541e-09
-4.06694e-10
-2.02706e-09
-1.79984e-10
3.82597e-09
-1.4277e-09
3.65677e-08
5.10664e-10
-3.34874e-10
-8.47312e-10
-3.43444e-10
3.57618e-11
-5.3033e-09
1.74038e-09
3.56368e-09
5.28448e-09
2.03887e-09
-3.32041e-09
2.68996e-08
1.75067e-08
-1.40687e-08
-3.79058e-08
8.02688e-10
-4.18135e-09
-8.1364e-09
-2.44386e-09
8.46041e-10
8.75264e-10
9.80335e-10
-2.56893e-08
5.15153e-08
-2.52652e-08
1.0708e-08
-1.19685e-09
4.39844e-11
-9.15209e-10
3.77802e-10
1.69026e-09
-3.31191e-11
-1.1113e-10
6.21689e-11
4.20145e-11
4.00651e-11
-2.95882e-11
-3.90463e-11
1.57932e-10
2.69241e-11
1.567e-11
-2.59555e-11
-5.73178e-11
-4.86185e-11
1.3011e-09
2.91833e-11
-2.03587e-11
-2.26494e-10
-2.21768e-10
-3.79798e-10
-3.6658e-10
1.34251e-09
2.39551e-11
-1.51299e-12
1.36413e-09
1.5395e-11
5.33441e-13
1.37612e-09
1.03701e-11
1.24672e-14
1.3829e-09
6.58198e-12
5.70535e-14
1.38697e-09
4.07407e-12
1.68504e-14
1.38942e-09
2.60643e-12
3.32328e-16
1.39091e-09
1.73093e-12
1.05909e-14
1.39157e-09
1.62433e-12
-2.20159e-13
1.3924e-09
1.48957e-14
4.04112e-13
1.39235e-09
9.89433e-13
2.84413e-13
1.39302e-09
-1.43588e-13
1.744e-13
1.3929e-09
-6.23862e-14
1.03695e-14
1.3928e-09
2.75098e-13
-8.33007e-14
1.39293e-09
9.93318e-13
-9.36473e-13
1.39305e-09
-7.565e-14
-7.65806e-15
1.39277e-09
-7.24461e-13
1.14515e-12
1.39272e-09
-3.27085e-13
-1.69579e-13
1.39236e-09
2.11425e-14
-5.83701e-14
1.39126e-09
5.27919e-13
-2.00079e-14
1.39383e-09
9.28254e-13
4.83415e-12
1.39386e-09
1.06643e-12
-3.54895e-13
1.39431e-09
-2.42905e-12
1.5688e-12
1.39382e-09
3.45108e-13
-4.76554e-14
1.39369e-09
-8.72847e-14
8.80985e-14
1.39365e-09
2.06393e-13
-1.08587e-14
1.39378e-09
-3.1457e-14
5.4981e-14
1.39366e-09
6.13817e-13
-2.17021e-13
1.39357e-09
-1.20849e-13
2.70236e-13
1.39391e-09
4.08864e-13
6.71173e-13
1.39427e-09
-2.84692e-13
-6.08496e-14
1.39364e-09
-4.29051e-13
1.89227e-13
1.39378e-09
3.56653e-14
-3.02765e-13
1.39397e-09
-4.34171e-13
9.25974e-14
1.39378e-09
-5.76027e-13
1.14357e-12
1.39421e-09
2.50619e-14
-1.36407e-13
1.39401e-09
-3.24436e-15
-1.52742e-14
1.39355e-09
4.8605e-13
1.99511e-14
1.39407e-09
-1.08894e-12
-1.67193e-13
1.39401e-09
4.8598e-13
2.49258e-13
1.39518e-09
-2.92619e-12
1.6078e-12
-3.54303e-13
-5.54637e-13
-3.67296e-09
-9.94343e-10
4.03708e-09
-5.74531e-09
-8.79071e-09
2.28183e-08
-9.47564e-09
-1.8615e-09
2.39462e-09
-1.22257e-10
-1.20152e-09
7.90649e-10
-5.60981e-09
-9.37624e-10
-5.1038e-09
4.7122e-08
-4.61211e-08
5.22205e-08
-3.93841e-08
-4.81813e-10
-6.26466e-10
-2.20709e-10
-8.57777e-10
-1.96116e-11
2.25263e-09
2.99643e-09
-1.17246e-09
1.1209e-09
1.54193e-08
-2.42378e-08
3.48224e-09
-4.84885e-12
4.65598e-10
-3.02909e-10
6.77709e-10
-1.39461e-09
4.51732e-10
-1.09332e-09
1.35849e-09
3.70927e-12
5.50029e-11
-1.23531e-11
-1.18883e-10
7.25238e-11
-1.47458e-10
-9.70513e-12
1.47238e-10
-7.59741e-12
1.75228e-11
1.28081e-09
-6.44002e-11
-1.94182e-11
-2.1898e-10
-2.21177e-10
-3.62086e-10
-3.65594e-10
1.32738e-09
-2.13734e-11
-1.30457e-12
1.35398e-09
-1.1972e-11
7.24108e-13
1.36922e-09
-4.96861e-12
6.37166e-14
1.37842e-09
-2.66779e-12
1.94855e-14
1.38431e-09
-1.90679e-12
6.69342e-14
1.38777e-09
-9.09154e-13
3.25373e-14
1.38945e-09
2.46207e-13
-2.20155e-13
1.39127e-09
-4.33566e-13
2.3171e-13
1.39203e-09
-5.1697e-13
-2.40458e-13
1.3925e-09
6.53125e-14
4.49337e-13
1.3924e-09
-1.19212e-13
8.63407e-14
1.39248e-09
-7.01313e-14
-7.34502e-14
1.39251e-09
-4.092e-13
6.70007e-13
1.39276e-09
-1.82536e-13
9.31381e-13
1.39269e-09
4.3205e-14
-2.60528e-14
1.39306e-09
2.23777e-14
-1.09356e-12
1.39306e-09
-3.74601e-13
7.03572e-14
1.39291e-09
-1.92762e-13
3.87778e-13
1.3934e-09
5.42638e-14
1.55146e-14
1.39371e-09
4.54542e-13
2.04925e-13
1.39371e-09
3.02401e-13
7.97071e-13
1.39312e-09
-1.31985e-13
-1.66583e-12
1.39333e-09
1.00085e-13
8.10899e-14
1.39366e-09
8.35678e-13
-1.20915e-12
1.39312e-09
-8.81508e-14
8.87219e-13
1.39338e-09
-3.9927e-14
-2.08014e-13
1.39332e-09
1.64117e-13
5.62499e-13
1.39377e-09
3.37425e-13
-8.57276e-13
1.39434e-09
-2.79596e-13
1.72976e-13
1.39395e-09
8.32683e-13
-6.73879e-13
1.39397e-09
-3.2711e-13
-6.99676e-14
1.39391e-09
-2.46134e-13
3.84039e-13
1.39358e-09
-1.69188e-13
1.175e-13
1.39431e-09
-9.06157e-15
-1.25937e-12
1.39399e-09
3.50993e-13
3.19988e-14
1.39452e-09
-8.10955e-13
3.17409e-13
1.39483e-09
-2.45912e-13
4.53228e-13
1.39368e-09
3.57937e-13
-2.78026e-13
1.39393e-09
3.6892e-13
-1.08677e-13
1.39397e-09
1.08534e-12
-4.04593e-12
-2.00989e-12
6.89846e-14
1.44143e-09
-6.28201e-09
2.29084e-09
2.74072e-09
-3.42024e-09
6.74589e-10
1.40326e-09
-1.15097e-09
-1.05339e-07
-6.61866e-08
6.07333e-08
1.13295e-07
2.33321e-09
6.89078e-09
-2.06982e-09
-2.82801e-09
-4.32615e-09
3.14788e-09
-4.78314e-09
-1.29818e-09
-1.12651e-09
4.05995e-09
-1.24415e-09
1.38249e-09
-2.02029e-09
6.20865e-10
1.26109e-09
8.27418e-10
-4.38526e-10
1.50391e-09
6.97835e-10
-2.59064e-09
-9.65609e-11
-1.41644e-12
-1.74938e-12
7.06802e-11
2.90465e-11
1.34493e-09
-2.7991e-11
-2.32059e-10
-2.48222e-10
-3.88096e-10
-4.24269e-10
1.30528e-11
7.54676e-12
1.91837e-11
8.4141e-12
1.34154e-09
-1.83831e-12
1.35598e-09
-6.35382e-13
1.3674e-09
-2.35723e-13
1.37587e-09
1.60017e-13
1.38104e-09
3.38599e-14
1.3863e-09
3.4103e-13
1.38876e-09
-1.30234e-13
1.39029e-09
1.12549e-14
1.39094e-09
-4.14257e-14
1.39215e-09
2.2482e-14
1.39281e-09
-4.13053e-13
1.39218e-09
-1.40612e-12
1.39218e-09
8.46891e-13
1.39263e-09
-1.32506e-13
1.39269e-09
3.04859e-13
1.39291e-09
4.07599e-14
1.39301e-09
-1.07725e-13
1.39311e-09
-1.1112e-12
1.39316e-09
-2.01695e-13
1.39319e-09
-3.49144e-14
1.39384e-09
9.55281e-13
1.39364e-09
-1.81264e-13
1.3935e-09
-2.26395e-12
1.39275e-09
-1.14057e-12
1.3928e-09
1.53572e-12
1.39351e-09
-3.06287e-13
1.39354e-09
2.2902e-13
1.39374e-09
2.74726e-13
1.3937e-09
7.45264e-13
1.3936e-09
-1.87461e-14
1.39428e-09
7.01936e-13
1.39401e-09
1.24307e-13
1.39398e-09
-2.19668e-13
1.39408e-09
-6.57744e-14
1.39433e-09
-3.0547e-14
1.39449e-09
-4.5276e-14
1.39403e-09
-3.70247e-13
1.3942e-09
-4.64109e-13
1.39472e-09
2.45887e-14
1.3953e-09
-2.39554e-13
1.39399e-09
2.61794e-12
-4.17695e-15
6.3511e-10
-2.3631e-09
7.72042e-09
-2.24036e-10
-5.6038e-09
-3.87059e-09
-2.17435e-09
1.18776e-09
3.85761e-09
2.05464e-09
3.6639e-09
1.20925e-08
-5.02794e-10
1.32237e-09
-1.22817e-08
1.43718e-09
2.69231e-09
2.80791e-11
-1.00077e-08
-6.15268e-09
-1.43939e-10
2.26156e-10
-2.12369e-09
-1.46668e-09
1.83129e-08
2.73424e-09
-4.13485e-09
6.52326e-10
1.1582e-09
3.65942e-10
-2.40078e-10
-1.00296e-09
2.33783e-10
-8.72317e-10
8.00771e-10
7.24898e-10
-2.93059e-10
-1.13293e-10
-4.61757e-12
4.73977e-12
-2.40395e-11
1.39091e-10
2.29867e-09
-1.45724e-10
3.17649e-11
-5.97256e-10
-5.6717e-10
-5.97327e-10
-5.67251e-10
2.28767e-09
-8.1845e-11
-3.29186e-14
2.29729e-09
-6.3759e-11
1.98433e-14
2.30373e-09
-4.16294e-11
-1.58306e-13
2.31082e-09
-2.73261e-11
-4.0438e-13
2.3166e-09
-1.76352e-11
-5.60666e-13
2.31785e-09
-1.1866e-11
7.20335e-13
2.32016e-09
-7.42613e-12
1.59213e-13
2.32143e-09
-5.01729e-12
6.87304e-13
2.32285e-09
-3.0518e-12
-2.55523e-14
2.3226e-09
-2.05696e-12
-7.06471e-14
2.32258e-09
-2.10994e-12
2.73713e-13
2.32405e-09
-5.85053e-13
1.94964e-12
2.32419e-09
-2.2191e-13
7.92559e-13
2.32402e-09
-8.10974e-13
-4.69877e-13
2.3246e-09
-2.0249e-12
-2.42715e-13
2.32479e-09
-2.8113e-13
-7.47518e-14
2.32512e-09
-1.10312e-12
3.9663e-13
2.32449e-09
2.69052e-14
3.94661e-13
2.32456e-09
1.56479e-13
8.95028e-15
2.32495e-09
-1.38656e-13
-4.54807e-14
2.32451e-09
-5.09561e-13
5.67739e-13
2.32486e-09
5.11387e-13
-9.36566e-14
2.32398e-09
4.7597e-12
-1.01398e-12
2.32425e-09
3.89304e-12
-2.8989e-12
2.3244e-09
-5.62427e-14
-1.43379e-12
2.32633e-09
1.02868e-12
-1.30391e-12
2.32591e-09
3.00492e-13
1.75484e-14
2.32541e-09
2.58954e-13
2.50279e-13
2.32447e-09
8.13971e-13
1.66773e-13
2.32451e-09
-1.54482e-12
8.30397e-13
2.32725e-09
-6.89069e-13
-1.78817e-12
2.32661e-09
9.0969e-13
-1.50747e-13
2.3266e-09
2.06315e-13
3.60681e-14
2.32672e-09
-1.26631e-13
-7.35492e-14
2.327e-09
-5.62262e-13
9.02968e-14
2.32523e-09
3.21516e-12
-2.44298e-12
2.32586e-09
-1.26253e-13
-1.98758e-13
2.32555e-09
2.71772e-13
1.01635e-13
2.3273e-09
-1.77225e-12
-3.30763e-13
2.32692e-09
2.97012e-13
1.6288e-13
2.32581e-09
7.9632e-13
9.11253e-13
-5.80413e-13
-4.08433e-13
-8.63059e-10
8.05754e-10
-1.95024e-08
5.29048e-10
8.71962e-10
1.16676e-09
8.72659e-11
-2.85249e-11
2.55403e-09
1.2265e-08
3.59249e-10
1.96421e-09
1.17352e-09
4.89113e-10
-2.60953e-09
4.13328e-10
-8.17871e-10
-1.04755e-09
2.12927e-10
-7.39078e-10
-6.83319e-10
6.62995e-10
-1.58729e-09
4.89153e-11
-5.26809e-10
-1.77696e-10
-6.51877e-10
2.88637e-09
1.12305e-09
-1.51217e-08
-6.61489e-09
1.07909e-09
-2.81786e-09
-1.4708e-09
3.36079e-09
2.31446e-09
9.56594e-10
1.82187e-09
7.67439e-10
1.48816e-09
-2.89735e-10
4.75993e-10
5.52601e-09
3.45676e-09
4.21186e-10
3.53342e-09
4.35016e-09
7.73357e-10
4.43878e-09
-3.22838e-09
-5.21081e-09
2.57855e-09
-6.4775e-11
-2.2731e-10
-6.19524e-11
2.59812e-10
-2.48433e-09
-8.2636e-11
-9.58922e-11
6.10114e-12
-4.85449e-12
5.43985e-11
1.22883e-10
2.3628e-09
-4.97324e-11
3.42119e-11
-5.79636e-10
-6.03882e-10
-5.79657e-10
-6.03765e-10
-5.51584e-11
-4.97403e-11
-5.51629e-11
2.33753e-09
-5.94986e-11
1.42231e-12
2.33361e-09
-6.00439e-11
1.59736e-13
2.32908e-09
-3.71831e-11
7.56969e-14
2.32719e-09
-2.55006e-11
4.40842e-14
2.32616e-09
-1.66711e-11
4.03557e-14
2.32516e-09
-1.09366e-11
1.59795e-14
2.32462e-09
-6.93177e-12
5.32617e-16
2.32483e-09
-4.24794e-12
-4.20504e-13
2.32453e-09
-2.78667e-12
-2.42247e-14
2.32386e-09
-1.56267e-12
1.0588e-13
2.32426e-09
1.47568e-13
-1.32341e-12
2.32437e-09
-6.68677e-13
-5.44448e-15
2.32427e-09
-1.38921e-13
-1.8118e-14
2.32418e-09
-1.28517e-13
-3.39001e-13
2.3242e-09
4.72984e-13
-5.49746e-13
2.32497e-09
-2.98516e-12
9.33897e-13
2.32464e-09
4.82328e-14
-3.88431e-13
2.32451e-09
6.76054e-14
3.02363e-15
2.32471e-09
1.56526e-14
1.90799e-14
2.32499e-09
-1.59446e-13
-1.03405e-13
2.32394e-09
4.77252e-12
-2.58843e-12
2.32327e-09
2.99793e-12
-6.70389e-13
2.32454e-09
3.2458e-13
1.77423e-12
2.32497e-09
7.21823e-13
1.42703e-12
2.32673e-09
-2.49929e-12
2.69646e-12
2.32578e-09
1.24139e-12
2.02371e-12
2.32551e-09
6.2178e-13
1.21809e-14
2.32589e-09
1.56487e-13
-1.10936e-13
2.32653e-09
4.29447e-13
-2.18474e-13
2.32669e-09
-4.08724e-13
-7.34564e-13
2.32451e-09
-6.83512e-13
1.81879e-12
2.32491e-09
3.82358e-13
5.06855e-14
2.32532e-09
-1.28965e-13
2.19696e-15
2.32543e-09
-1.99253e-13
9.6459e-16
2.32526e-09
-2.25697e-13
-1.52371e-13
2.32708e-09
1.16846e-13
2.58457e-12
2.32673e-09
1.41321e-13
8.58625e-14
2.32697e-09
2.5071e-13
-3.65816e-14
2.32626e-09
7.26439e-13
-6.4771e-13
2.32608e-09
6.17956e-13
-1.86441e-13
2.32653e-09
2.12914e-13
-7.59559e-13
-2.69041e-13
1.92871e-13
4.11143e-09
2.54052e-09
-1.56621e-08
1.92805e-10
2.57569e-09
2.11348e-09
-9.45069e-09
1.42218e-09
8.66815e-10
1.3827e-08
-1.58223e-08
-1.94672e-09
-3.08432e-09
2.0011e-08
1.51063e-09
-6.68192e-10
-5.11025e-09
2.82608e-09
9.48163e-09
-6.82766e-09
-5.65859e-09
-6.61799e-09
3.51535e-10
3.30291e-09
1.89557e-09
4.69419e-11
2.70933e-09
1.38587e-09
2.31022e-09
2.13521e-09
2.87426e-09
-1.36037e-08
-6.62328e-09
-2.76642e-09
7.10282e-09
-8.03984e-09
-2.9418e-09
1.53498e-09
2.13344e-09
8.46452e-11
1.30895e-10
2.80561e-10
-9.1259e-10
-1.71695e-09
-1.45164e-10
1.49718e-10
-5.6018e-11
4.037e-11
-9.50499e-11
1.06144e-10
-1.4306e-10
6.09427e-10
-6.16621e-11
-2.45935e-12
1.33809e-12
-1.4954e-10
-1.485e-10
-1.55271e-10
2.36179e-09
-9.19856e-11
2.48386e-11
-5.83788e-10
-6.05461e-10
-5.83806e-10
-6.05492e-10
2.35112e-09
-5.35088e-11
2.0848e-12
2.3468e-09
-3.16564e-11
-5.57655e-13
2.34032e-09
-1.90717e-11
4.41406e-14
2.33531e-09
-1.16286e-11
-7.1146e-15
2.33147e-09
-7.13319e-12
9.93527e-15
2.3288e-09
-4.2696e-12
-8.41201e-15
2.32736e-09
-2.57545e-12
-8.991e-14
2.32647e-09
-1.87594e-12
-8.14756e-15
2.32619e-09
-1.77389e-13
-6.92284e-13
2.32434e-09
3.55679e-13
8.22287e-13
2.32439e-09
-7.04746e-13
-1.03477e-14
2.32494e-09
-7.20954e-13
-1.62327e-14
2.32521e-09
-3.94711e-13
4.80932e-14
2.32441e-09
3.52614e-13
4.66062e-13
2.32364e-09
-1.49384e-13
-1.03325e-12
2.32389e-09
-3.1022e-13
1.02974e-13
2.32425e-09
-1.53564e-13
-2.14151e-14
2.32407e-09
1.1157e-13
-5.13081e-14
2.32337e-09
1.02962e-12
-2.30791e-13
2.32436e-09
-7.95176e-13
2.32536e-12
2.32634e-09
-3.71777e-12
2.06832e-12
2.32585e-09
1.13429e-12
-2.30714e-13
2.32743e-09
-2.67218e-12
8.76231e-13
2.32541e-09
2.71504e-13
-2.55226e-12
2.32466e-09
1.30358e-13
-8.61222e-13
2.32514e-09
1.85098e-13
-8.51917e-14
2.32563e-09
-1.40041e-13
-1.72112e-15
2.32577e-09
1.62521e-13
1.96781e-13
2.32584e-09
-4.53674e-14
-4.52742e-14
2.32536e-09
-4.35203e-13
-1.51585e-14
2.32492e-09
-2.06509e-13
5.5362e-13
2.32491e-09
1.37217e-13
-8.42312e-14
2.32549e-09
-4.45868e-13
-3.60094e-13
2.32606e-09
1.07903e-12
5.33935e-13
2.32749e-09
1.39777e-12
-9.95523e-13
2.32716e-09
1.19345e-12
-3.41082e-13
2.32719e-09
7.69421e-13
-2.83048e-13
2.32595e-09
7.95125e-14
9.72217e-13
2.32566e-09
8.31336e-13
6.79435e-14
2.32564e-09
4.24293e-13
-1.03914e-13
-2.23742e-12
1.36869e-12
-5.69538e-10
8.86214e-10
3.88219e-09
2.5968e-10
7.4737e-10
3.89781e-09
1.38471e-09
-7.53321e-10
1.75847e-09
2.61024e-09
1.42459e-09
3.02429e-09
-5.57375e-09
-2.05493e-09
-4.9596e-10
-1.86431e-09
7.67479e-10
3.28381e-10
3.04482e-09
-1.78041e-09
4.19842e-09
-6.87167e-09
6.95582e-10
7.50765e-09
-7.09882e-10
1.26998e-09
8.21117e-10
-4.61232e-10
-7.88448e-10
-9.62403e-10
-1.87303e-09
-5.18766e-09
-2.68424e-09
1.17575e-09
3.40347e-09
1.99606e-09
1.29661e-09
-6.33243e-10
9.93817e-11
3.25033e-10
-9.85074e-11
-2.49396e-10
5.56732e-10
-1.38749e-10
2.27606e-10
2.19062e-11
-1.71895e-11
-1.53953e-10
6.03784e-11
-1.7317e-10
6.58253e-10
5.06212e-13
-2.29283e-11
-1.33997e-10
-1.79235e-10
-1.36219e-10
6.1736e-11
-1.76256e-11
-1.83818e-11
-1.98654e-11
-1.90756e-11
2.43995e-09
-4.29944e-11
3.18148e-11
-6.23436e-10
-6.52959e-10
-6.23473e-10
-6.53047e-10
2.3958e-09
-1.35829e-11