/*--------------------------------*- C++ -*----------------------------------*\
| =========                 |                                                 |
| \\      /  F ield         | OpenFOAM: The Open Source CFD Toolbox           |
|  \\    /   O peration     | Version:  5.0                                   |
|   \\  /    A nd           | Web:      www.OpenFOAM.org                      |
|    \\/     M anipulation  |                                                 |
\*---------------------------------------------------------------------------*/
FoamFile
{
    version     2.0;
    format      ascii;
    class       volScalarField;
    location    "3";
    object      rAU;
}
// * * * * * * * * * * * * * * * * * * * * * * * * * * * * * * * * * * * * * //

dimensions      [-1 3 1 0 0 0 0];

internalField   nonuniform List<scalar> 
9011
(
9.47838e-07
8.79037e-07
6.27089e-07
5.39379e-07
8.8073e-07
4.99363e-07
3.48013e-08
3.9242e-07
3.93663e-07
3.94697e-07
3.9573e-07
3.96763e-07
3.97795e-07
3.98826e-07
3.99856e-07
4.00886e-07
4.01916e-07
4.02944e-07
4.03971e-07
4.04999e-07
4.06025e-07
4.0705e-07
4.08075e-07
4.09099e-07
4.10122e-07
4.11145e-07
4.12167e-07
4.13187e-07
4.14208e-07
4.15227e-07
4.16246e-07
4.17264e-07
4.18281e-07
4.19297e-07
4.20313e-07
4.21328e-07
4.22342e-07
4.23355e-07
4.24368e-07
4.25379e-07
4.2639e-07
4.274e-07
4.28409e-07
4.29418e-07
4.30425e-07
4.31431e-07
4.32438e-07
4.33442e-07
4.34446e-07
4.36222e-07
9.62021e-07
9.53176e-07
8.87905e-07
8.87487e-07
8.56076e-07
6.94347e-07
3.68398e-08
3.92285e-07
3.93662e-07
3.94696e-07
3.9573e-07
3.96763e-07
3.97794e-07
3.98826e-07
3.99856e-07
4.00886e-07
4.01915e-07
4.02944e-07
4.03971e-07
4.04999e-07
4.06025e-07
4.0705e-07
4.08075e-07
4.09099e-07
4.10122e-07
4.11145e-07
4.12167e-07
4.13187e-07
4.14208e-07
4.15227e-07
4.16246e-07
4.17264e-07
4.18281e-07
4.19297e-07
4.20313e-07
4.21328e-07
4.22342e-07
4.23355e-07
4.24368e-07
4.25379e-07
4.2639e-07
4.274e-07
4.28409e-07
4.29418e-07
4.30425e-07
4.31431e-07
4.32437e-07
4.33442e-07
4.34446e-07
4.36222e-07
9.62814e-07
7.1626e-07
8.85098e-07
8.88893e-07
8.96399e-07
6.86942e-07
1.89309e-07
1.29778e-07
3.93453e-07
3.94696e-07
3.9573e-07
3.96762e-07
3.97794e-07
3.98826e-07
3.99856e-07
4.00886e-07
4.01915e-07
4.02944e-07
4.03971e-07
4.04999e-07
4.06025e-07
4.0705e-07
4.08075e-07
4.09099e-07
4.10122e-07
4.11145e-07
4.12167e-07
4.13187e-07
4.14208e-07
4.15227e-07
4.16246e-07
4.17264e-07
4.18281e-07
4.19297e-07
4.20313e-07
4.21328e-07
4.22342e-07
4.23355e-07
4.24368e-07
4.25379e-07
4.2639e-07
4.274e-07
4.28409e-07
4.29418e-07
4.30425e-07
4.31431e-07
4.32437e-07
4.33442e-07
4.34446e-07
4.36222e-07
9.67354e-07
8.17625e-07
1.40132e-07
8.6843e-07
8.70718e-07
6.40478e-07
7.0121e-07
1.29663e-07
3.93451e-07
3.94695e-07
3.95729e-07
3.96762e-07
3.97794e-07
3.98826e-07
3.99856e-07
4.00886e-07
4.01915e-07
4.02944e-07
4.03971e-07
4.04998e-07
4.06025e-07
4.0705e-07
4.08075e-07
4.09099e-07
4.10122e-07
4.11145e-07
4.12167e-07
4.13187e-07
4.14208e-07
4.15227e-07
4.16246e-07
4.17264e-07
4.18281e-07
4.19297e-07
4.20313e-07
4.21328e-07
4.22342e-07
4.23355e-07
4.24368e-07
4.25379e-07
4.2639e-07
4.274e-07
4.28409e-07
4.29418e-07
4.30425e-07
4.31431e-07
4.32437e-07
4.33442e-07
4.34446e-07
4.36222e-07
8.84645e-07
8.81662e-07
6.96342e-07
8.89557e-07
8.7951e-07
6.78666e-07
7.00976e-07
3.51776e-08
3.93451e-07
3.94695e-07
3.95729e-07
3.96762e-07
3.97794e-07
3.98826e-07
3.99856e-07
4.00886e-07
4.01915e-07
4.02944e-07
4.03971e-07
4.04999e-07
4.06025e-07
4.0705e-07
4.08075e-07
4.09099e-07
4.10122e-07
4.11145e-07
4.12167e-07
4.13187e-07
4.14208e-07
4.15227e-07
4.16246e-07
4.17264e-07
4.18281e-07
4.19297e-07
4.20313e-07
4.21328e-07
4.22342e-07
4.23355e-07
4.24368e-07
4.25379e-07
4.2639e-07
4.274e-07
4.28409e-07
4.29418e-07
4.30425e-07
4.31431e-07
4.32437e-07
4.33442e-07
4.34446e-07
4.36222e-07
8.8792e-07
7.00506e-07
6.92621e-07
8.83698e-07
6.0704e-07
6.8755e-07
7.00743e-07
3.50561e-08
3.9345e-07
3.94695e-07
3.95729e-07
3.96762e-07
3.97794e-07
3.98826e-07
3.99856e-07
4.00886e-07
4.01915e-07
4.02944e-07
4.03971e-07
4.04999e-07
4.06024e-07
4.0705e-07
4.08075e-07
4.09099e-07
4.10122e-07
4.11145e-07
4.12167e-07
4.13187e-07
4.14208e-07
4.15227e-07
4.16246e-07
4.17264e-07
4.18281e-07
4.19297e-07
4.20313e-07
4.21328e-07
4.22342e-07
4.23355e-07
4.24368e-07
4.25379e-07
4.2639e-07
4.274e-07
4.28409e-07
4.29418e-07
4.30425e-07
4.31431e-07
4.32437e-07
4.33442e-07
4.34446e-07
4.36222e-07
9.43925e-07
8.72798e-07
8.36074e-07
8.82359e-07
6.04844e-07
6.81393e-07
7.00276e-07
3.52087e-08
3.93451e-07
3.94695e-07
3.9573e-07
3.96762e-07
3.97794e-07
3.98826e-07
3.99856e-07
4.00886e-07
4.01915e-07
4.02944e-07
4.03971e-07
4.04998e-07
4.06024e-07
4.0705e-07
4.08075e-07
4.09099e-07
4.10122e-07
4.11145e-07
4.12167e-07
4.13187e-07
4.14208e-07
4.15227e-07
4.16246e-07
4.17264e-07
4.18281e-07
4.19297e-07
4.20313e-07
4.21328e-07
4.22342e-07
4.23355e-07
4.24368e-07
4.25379e-07
4.2639e-07
4.274e-07
4.28409e-07
4.29418e-07
4.30425e-07
4.31431e-07
4.32437e-07
4.33442e-07
4.34446e-07
4.36222e-07
9.53663e-07
9.52467e-07
8.61488e-07
8.50839e-07
7.94076e-07
6.67967e-07
6.96933e-07
1.29689e-07
3.93454e-07
3.94697e-07
3.9573e-07
3.96763e-07
3.97794e-07
3.98826e-07
3.99856e-07
4.00886e-07
4.01915e-07
4.02944e-07
4.03971e-07
4.04999e-07
4.06025e-07
4.0705e-07
4.08075e-07
4.09099e-07
4.10122e-07
4.11145e-07
4.12167e-07
4.13187e-07
4.14208e-07
4.15227e-07
4.16246e-07
4.17264e-07
4.18281e-07
4.19297e-07
4.20313e-07
4.21328e-07
4.22342e-07
4.23355e-07
4.24368e-07
4.25379e-07
4.2639e-07
4.274e-07
4.28409e-07
4.29418e-07
4.30425e-07
4.31431e-07
4.32438e-07
4.33442e-07
4.34446e-07
4.36222e-07
8.79158e-07
8.7799e-07
6.55465e-07
6.19323e-07
7.8948e-07
6.8142e-07
1.34031e-07
1.29594e-07
3.93456e-07
3.94698e-07
3.95731e-07
3.96763e-07
3.97795e-07
3.98826e-07
3.99856e-07
4.00886e-07
4.01916e-07
4.02944e-07
4.03971e-07
4.04999e-07
4.06025e-07
4.0705e-07
4.08075e-07
4.09099e-07
4.10122e-07
4.11145e-07
4.12167e-07
4.13187e-07
4.14208e-07
4.15227e-07
4.16246e-07
4.17264e-07
4.18281e-07
4.19297e-07
4.20313e-07
4.21328e-07
4.22342e-07
4.23355e-07
4.24368e-07
4.25379e-07
4.2639e-07
4.274e-07
4.28409e-07
4.29418e-07
4.30425e-07
4.31431e-07
4.32438e-07
4.33442e-07
4.34446e-07
4.36222e-07
8.69028e-07
7.05265e-07
8.5791e-07
8.88585e-07
7.94355e-07
5.2652e-07
3.71539e-08
3.92288e-07
3.93664e-07
3.94698e-07
3.95731e-07
3.96763e-07
3.97795e-07
3.98826e-07
3.99856e-07
4.00886e-07
4.01916e-07
4.02944e-07
4.03971e-07
4.04999e-07
4.06025e-07
4.0705e-07
4.08075e-07
4.09099e-07
4.10122e-07
4.11145e-07
4.12167e-07
4.13187e-07
4.14208e-07
4.15227e-07
4.16246e-07
4.17264e-07
4.18281e-07
4.19297e-07
4.20313e-07
4.21328e-07
4.22342e-07
4.23355e-07
4.24368e-07
4.25379e-07
4.2639e-07
4.274e-07
4.28409e-07
4.29418e-07
4.30425e-07
4.31431e-07
4.32438e-07
4.33442e-07
4.34446e-07
4.36222e-07
8.94526e-07
8.76099e-07
2.42398e-07
7.66116e-07
9.10745e-07
6.69191e-07
5.1404e-08
5.04896e-07
5.06386e-07
5.07527e-07
5.08665e-07
5.09803e-07
5.10938e-07
5.12071e-07
5.13204e-07
5.14335e-07
5.15463e-07
5.16591e-07
5.17717e-07
5.1884e-07
5.19963e-07
5.21084e-07
5.22203e-07
5.23321e-07
5.24437e-07
5.25551e-07
5.26664e-07
5.27775e-07
5.28884e-07
5.29992e-07
5.31099e-07
5.32203e-07
5.33306e-07
5.34407e-07
5.35506e-07
5.36604e-07
5.37701e-07
5.38795e-07
5.39888e-07
5.4098e-07
5.42069e-07
5.43157e-07
5.44243e-07
5.45327e-07
5.46411e-07
5.47492e-07
5.48571e-07
5.49649e-07
5.50725e-07
5.5304e-07
9.6259e-07
9.61834e-07
9.12619e-07
9.75302e-07
9.19384e-07
7.19153e-07
5.47028e-08
5.0467e-07
5.06384e-07
5.07525e-07
5.08664e-07
5.09802e-07
5.10938e-07
5.12071e-07
5.13204e-07
5.14335e-07
5.15463e-07
5.16591e-07
5.17717e-07
5.1884e-07
5.19963e-07
5.21084e-07
5.22203e-07
5.23321e-07
5.24437e-07
5.25551e-07
5.26664e-07
5.27775e-07
5.28884e-07
5.29992e-07
5.31099e-07
5.32203e-07
5.33306e-07
5.34407e-07
5.35506e-07
5.36604e-07
5.37701e-07
5.38795e-07
5.39888e-07
5.4098e-07
5.42069e-07
5.43157e-07
5.44243e-07
5.45327e-07
5.4641e-07
5.47492e-07
5.48571e-07
5.49649e-07
5.50725e-07
5.5304e-07
9.63232e-07
8.43308e-07
8.31652e-07
9.69401e-07
8.89857e-07
7.01424e-07
2.58846e-07
1.84065e-07
5.06036e-07
5.07524e-07
5.08663e-07
5.09801e-07
5.10937e-07
5.12071e-07
5.13203e-07
5.14335e-07
5.15463e-07
5.16591e-07
5.17717e-07
5.1884e-07
5.19963e-07
5.21084e-07
5.22203e-07
5.23321e-07
5.24437e-07
5.25551e-07
5.26664e-07
5.27775e-07
5.28884e-07
5.29992e-07
5.31099e-07
5.32203e-07
5.33306e-07
5.34407e-07
5.35506e-07
5.36604e-07
5.37701e-07
5.38795e-07
5.39888e-07
5.4098e-07
5.42069e-07
5.43157e-07
5.44243e-07
5.45327e-07
5.4641e-07
5.47492e-07
5.48571e-07
5.49649e-07
5.50726e-07
5.5304e-07
9.60351e-07
9.24468e-07
2.41942e-07
8.72473e-07
9.27743e-07
6.51677e-07
7.76543e-07
1.83834e-07
5.06032e-07
5.07523e-07
5.08663e-07
5.09801e-07
5.10937e-07
5.12071e-07
5.13203e-07
5.14335e-07
5.15463e-07
5.16591e-07
5.17717e-07
5.1884e-07
5.19963e-07
5.21084e-07
5.22203e-07
5.23321e-07
5.24437e-07
5.25551e-07
5.26664e-07
5.27775e-07
5.28884e-07
5.29992e-07
5.31099e-07
5.32203e-07
5.33306e-07
5.34407e-07
5.35506e-07
5.36604e-07
5.37701e-07
5.38795e-07
5.39888e-07
5.4098e-07
5.42069e-07
5.43157e-07
5.44243e-07
5.45327e-07
5.4641e-07
5.47492e-07
5.48571e-07
5.49649e-07
5.50726e-07
5.5304e-07
8.85364e-07
8.03211e-07
4.95507e-07
2.92796e-07
7.0811e-07
6.68859e-07
7.76809e-07
5.19959e-08
5.06031e-07
5.07523e-07
5.08662e-07
5.09801e-07
5.10937e-07
5.12071e-07
5.13203e-07
5.14335e-07
5.15463e-07
5.16591e-07
5.17717e-07
5.1884e-07
5.19963e-07
5.21084e-07
5.22203e-07
5.23321e-07
5.24437e-07
5.25551e-07
5.26664e-07
5.27775e-07
5.28884e-07
5.29992e-07
5.31099e-07
5.32203e-07
5.33306e-07
5.34407e-07
5.35506e-07
5.36604e-07
5.37701e-07
5.38795e-07
5.39888e-07
5.4098e-07
5.42069e-07
5.43157e-07
5.44243e-07
5.45327e-07
5.4641e-07
5.47492e-07
5.48571e-07
5.49649e-07
5.50726e-07
5.5304e-07
9.10445e-07
4.52268e-07
7.94991e-07
8.79745e-07
7.33313e-07
7.42607e-07
7.76218e-07
5.20061e-08
5.06029e-07
5.07522e-07
5.08662e-07
5.09801e-07
5.10937e-07
5.12071e-07
5.13203e-07
5.14334e-07
5.15463e-07
5.16591e-07
5.17717e-07
5.1884e-07
5.19963e-07
5.21084e-07
5.22203e-07
5.23321e-07
5.24437e-07
5.25551e-07
5.26664e-07
5.27775e-07
5.28884e-07
5.29992e-07
5.31099e-07
5.32203e-07
5.33306e-07
5.34407e-07
5.35506e-07
5.36604e-07
5.37701e-07
5.38795e-07
5.39888e-07
5.4098e-07
5.42069e-07
5.43157e-07
5.44243e-07
5.45327e-07
5.4641e-07
5.47492e-07
5.48571e-07
5.49649e-07
5.50725e-07
5.5304e-07
8.91704e-07
4.76593e-07
3.93203e-07
7.22389e-07
6.52076e-07
7.16978e-07
7.73695e-07
5.19862e-08
5.06031e-07
5.07523e-07
5.08663e-07
5.09801e-07
5.10937e-07
5.12071e-07
5.13203e-07
5.14335e-07
5.15463e-07
5.16591e-07
5.17717e-07
5.1884e-07
5.19963e-07
5.21084e-07
5.22203e-07
5.23321e-07
5.24437e-07
5.25551e-07
5.26664e-07
5.27775e-07
5.28884e-07
5.29992e-07
5.31099e-07
5.32203e-07
5.33306e-07
5.34407e-07
5.35506e-07
5.36604e-07
5.37701e-07
5.38795e-07
5.39888e-07
5.4098e-07
5.42069e-07
5.43157e-07
5.44243e-07
5.45327e-07
5.4641e-07
5.47492e-07
5.48571e-07
5.49649e-07
5.50725e-07
5.5304e-07
8.77179e-07
8.78084e-07
8.73524e-07
7.47127e-07
7.48408e-07
7.48532e-07
7.74673e-07
1.83946e-07
5.06038e-07
5.07527e-07
5.08665e-07
5.09802e-07
5.10938e-07
5.12071e-07
5.13204e-07
5.14335e-07
5.15463e-07
5.16591e-07
5.17717e-07
5.1884e-07
5.19963e-07
5.21084e-07
5.22203e-07
5.23321e-07
5.24437e-07
5.25551e-07
5.26664e-07
5.27776e-07
5.28884e-07
5.29992e-07
5.31099e-07
5.32203e-07
5.33306e-07
5.34407e-07
5.35506e-07
5.36604e-07
5.37701e-07
5.38795e-07
5.39888e-07
5.4098e-07
5.42069e-07
5.43157e-07
5.44243e-07
5.45327e-07
5.4641e-07
5.47492e-07
5.48571e-07
5.49649e-07
5.50725e-07
5.5304e-07
8.13109e-07
4.85928e-07
5.0867e-07
5.97351e-07
4.08946e-07
7.15519e-07
1.86408e-07
1.83951e-07
5.06044e-07
5.0753e-07
5.08667e-07
5.09803e-07
5.10939e-07
5.12072e-07
5.13204e-07
5.14335e-07
5.15463e-07
5.16591e-07
5.17717e-07
5.1884e-07
5.19963e-07
5.21084e-07
5.22203e-07
5.23321e-07
5.24437e-07
5.25551e-07
5.26664e-07
5.27775e-07
5.28884e-07
5.29992e-07
5.31099e-07
5.32203e-07
5.33306e-07
5.34407e-07
5.35506e-07
5.36604e-07
5.37701e-07
5.38795e-07
5.39888e-07
5.4098e-07
5.42069e-07
5.43157e-07
5.44243e-07
5.45327e-07
5.4641e-07
5.47492e-07
5.48571e-07
5.49649e-07
5.50725e-07
5.5304e-07
4.69211e-07
3.39688e-07
5.52721e-07
7.45887e-07
6.9599e-07
7.40774e-07
5.50924e-08
5.04681e-07
5.06389e-07
5.07529e-07
5.08666e-07
5.09803e-07
5.10939e-07
5.12072e-07
5.13204e-07
5.14335e-07
5.15463e-07
5.16591e-07
5.17717e-07
5.1884e-07
5.19963e-07
5.21084e-07
5.22203e-07
5.23321e-07
5.24437e-07
5.25551e-07
5.26664e-07
5.27775e-07
5.28884e-07
5.29992e-07
5.31099e-07
5.32203e-07
5.33306e-07
5.34407e-07
5.35506e-07
5.36604e-07
5.37701e-07
5.38795e-07
5.39888e-07
5.4098e-07
5.42069e-07
5.43157e-07
5.44243e-07
5.45327e-07
5.4641e-07
5.47492e-07
5.48571e-07
5.49649e-07
5.50725e-07
5.5304e-07
9.01169e-07
8.56678e-07
7.15607e-07
8.87222e-07
2.8734e-07
7.18626e-07
5.129e-08
3.9242e-07
3.93663e-07
3.94697e-07
3.9573e-07
3.96763e-07
3.97794e-07
3.98826e-07
3.99856e-07
4.00886e-07
4.01915e-07
4.02944e-07
4.03971e-07
4.04998e-07
4.06025e-07
4.0705e-07
4.08075e-07
4.09099e-07
4.10122e-07
4.11145e-07
4.12166e-07
4.13187e-07
4.14208e-07
4.15227e-07
4.16246e-07
4.17264e-07
4.18281e-07
4.19297e-07
4.20313e-07
4.21328e-07
4.22342e-07
4.23355e-07
4.24368e-07
4.25379e-07
4.2639e-07
4.274e-07
4.28409e-07
4.29418e-07
4.30425e-07
4.31431e-07
4.32437e-07
4.33442e-07
4.34446e-07
4.36222e-07
9.65832e-07
9.68336e-07
9.30785e-07
9.70675e-07
9.04659e-07
7.46878e-07
5.46371e-08
3.92285e-07
3.93662e-07
3.94696e-07
3.9573e-07
3.96762e-07
3.97794e-07
3.98826e-07
3.99856e-07
4.00886e-07
4.01915e-07
4.02944e-07
4.03971e-07
4.04998e-07
4.06025e-07
4.0705e-07
4.08075e-07
4.09099e-07
4.10122e-07
4.11145e-07
4.12166e-07
4.13187e-07
4.14208e-07
4.15227e-07
4.16246e-07
4.17264e-07
4.18281e-07
4.19297e-07
4.20313e-07
4.21328e-07
4.22342e-07
4.23355e-07
4.24368e-07
4.25379e-07
4.2639e-07
4.274e-07
4.28409e-07
4.29418e-07
4.30425e-07
4.31431e-07
4.32437e-07
4.33442e-07
4.34446e-07
4.36222e-07
9.61436e-07
9.35913e-07
9.53176e-07
9.60037e-07
8.77079e-07
7.39229e-07
2.58711e-07
1.8407e-07
3.93453e-07
3.94696e-07
3.9573e-07
3.96762e-07
3.97794e-07
3.98826e-07
3.99856e-07
4.00886e-07
4.01915e-07
4.02944e-07
4.03971e-07
4.04998e-07
4.06025e-07
4.0705e-07
4.08075e-07
4.09099e-07
4.10122e-07
4.11145e-07
4.12166e-07
4.13187e-07
4.14208e-07
4.15227e-07
4.16246e-07
4.17264e-07
4.18281e-07
4.19297e-07
4.20313e-07
4.21328e-07
4.22342e-07
4.23355e-07
4.24368e-07
4.25379e-07
4.2639e-07
4.274e-07
4.28409e-07
4.29418e-07
4.30425e-07
4.31431e-07
4.32437e-07
4.33442e-07
4.34446e-07
4.36222e-07
9.63392e-07
9.18342e-07
9.0823e-07
8.83454e-07
9.01242e-07
6.56953e-07
7.77182e-07
1.83838e-07
3.93451e-07
3.94695e-07
3.95729e-07
3.96762e-07
3.97794e-07
3.98826e-07
3.99856e-07
4.00886e-07
4.01915e-07
4.02944e-07
4.03971e-07
4.04998e-07
4.06025e-07
4.0705e-07
4.08075e-07
4.09099e-07
4.10122e-07
4.11145e-07
4.12166e-07
4.13187e-07
4.14208e-07
4.15227e-07
4.16246e-07
4.17264e-07
4.18281e-07
4.19297e-07
4.20313e-07
4.21328e-07
4.22342e-07
4.23355e-07
4.24368e-07
4.25379e-07
4.2639e-07
4.274e-07
4.28409e-07
4.29418e-07
4.30425e-07
4.31431e-07
4.32437e-07
4.33442e-07
4.34446e-07
4.36222e-07
9.18229e-07
7.77506e-07
5.12877e-07
4.03206e-07
5.53431e-07
6.72427e-07
7.77554e-07
5.19959e-08
3.93451e-07
3.94695e-07
3.95729e-07
3.96762e-07
3.97794e-07
3.98826e-07
3.99856e-07
4.00886e-07
4.01915e-07
4.02944e-07
4.03971e-07
4.04998e-07
4.06025e-07
4.0705e-07
4.08075e-07
4.09099e-07
4.10122e-07
4.11145e-07
4.12166e-07
4.13187e-07
4.14208e-07
4.15227e-07
4.16246e-07
4.17264e-07
4.18281e-07
4.19297e-07
4.20313e-07
4.21328e-07
4.22342e-07
4.23355e-07
4.24368e-07
4.25379e-07
4.2639e-07
4.274e-07
4.28409e-07
4.29418e-07
4.30425e-07
4.31431e-07
4.32437e-07
4.33442e-07
4.34446e-07
4.36222e-07
9.20876e-07
6.2962e-07
7.29361e-07
8.55356e-07
5.80183e-07
6.94006e-07
7.75489e-07
5.20056e-08
3.9345e-07
3.94695e-07
3.95729e-07
3.96762e-07
3.97794e-07
3.98826e-07
3.99856e-07
4.00886e-07
4.01915e-07
4.02944e-07
4.03971e-07
4.04998e-07
4.06024e-07
4.0705e-07
4.08075e-07
4.09099e-07
4.10122e-07
4.11145e-07
4.12166e-07
4.13187e-07
4.14208e-07
4.15227e-07
4.16246e-07
4.17264e-07
4.18281e-07
4.19297e-07
4.20313e-07
4.21328e-07
4.22342e-07
4.23355e-07
4.24368e-07
4.25379e-07
4.2639e-07
4.274e-07
4.28409e-07
4.29418e-07
4.30425e-07
4.31431e-07
4.32437e-07
4.33442e-07
4.34446e-07
4.36222e-07
7.89606e-07
6.65718e-07
3.95677e-07
1.44891e-07
8.66018e-07
7.30753e-07
7.74044e-07
5.19863e-08
3.93451e-07
3.94695e-07
3.95729e-07
3.96762e-07
3.97794e-07
3.98826e-07
3.99856e-07
4.00886e-07
4.01915e-07
4.02944e-07
4.03971e-07
4.04998e-07
4.06024e-07
4.0705e-07
4.08075e-07
4.09099e-07
4.10122e-07
4.11145e-07
4.12166e-07
4.13187e-07
4.14208e-07
4.15227e-07
4.16246e-07
4.17264e-07
4.18281e-07
4.19297e-07
4.20313e-07
4.21328e-07
4.22342e-07
4.23355e-07
4.24368e-07
4.25379e-07
4.2639e-07
4.274e-07
4.28409e-07
4.29418e-07
4.30425e-07
4.31431e-07
4.32437e-07
4.33442e-07
4.34446e-07
4.36222e-07
9.41736e-07
9.25917e-07
6.96483e-07
7.32487e-07
6.70165e-07
7.32456e-07
7.74468e-07
1.83952e-07
3.93454e-07
3.94697e-07
3.9573e-07
3.96763e-07
3.97794e-07
3.98826e-07
3.99856e-07
4.00886e-07
4.01915e-07
4.02944e-07
4.03971e-07
4.04998e-07
4.06025e-07
4.0705e-07
4.08075e-07
4.09099e-07
4.10122e-07
4.11145e-07
4.12166e-07
4.13187e-07
4.14208e-07
4.15227e-07
4.16246e-07
4.17264e-07
4.18281e-07
4.19297e-07
4.20313e-07
4.21328e-07
4.22342e-07
4.23355e-07
4.24368e-07
4.25379e-07
4.2639e-07
4.274e-07
4.28409e-07
4.29418e-07
4.30425e-07
4.31431e-07
4.32437e-07
4.33442e-07
4.34446e-07
4.36222e-07
8.97674e-07
7.2756e-07
7.57026e-07
7.298e-07
3.37038e-07
6.63964e-07
1.86196e-07
1.83956e-07
3.93456e-07
3.94698e-07
3.95731e-07
3.96763e-07
3.97795e-07
3.98826e-07
3.99856e-07
4.00886e-07
4.01915e-07
4.02944e-07
4.03971e-07
4.04998e-07
4.06025e-07
4.0705e-07
4.08075e-07
4.09099e-07
4.10122e-07
4.11145e-07
4.12166e-07
4.13187e-07
4.14208e-07
4.15227e-07
4.16246e-07
4.17264e-07
4.18281e-07
4.19297e-07
4.20313e-07
4.21328e-07
4.22342e-07
4.23355e-07
4.24368e-07
4.25379e-07
4.2639e-07
4.274e-07
4.28409e-07
4.29418e-07
4.30425e-07
4.31431e-07
4.32437e-07
4.33442e-07
4.34446e-07
4.36222e-07
5.71992e-07
2.92983e-07
8.19488e-07
5.13485e-07
3.56415e-07
7.53819e-07
5.50308e-08
3.92288e-07
3.93664e-07
3.94698e-07
3.95731e-07
3.96763e-07
3.97795e-07
3.98826e-07
3.99856e-07
4.00886e-07
4.01915e-07
4.02944e-07
4.03971e-07
4.04998e-07
4.06025e-07
4.0705e-07
4.08075e-07
4.09099e-07
4.10122e-07
4.11145e-07
4.12166e-07
4.13187e-07
4.14208e-07
4.15227e-07
4.16246e-07
4.17264e-07
4.18281e-07
4.19297e-07
4.20313e-07
4.21328e-07
4.22342e-07
4.23355e-07
4.24368e-07
4.25379e-07
4.2639e-07
4.274e-07
4.28409e-07
4.29418e-07
4.30425e-07
4.31431e-07
4.32437e-07
4.33442e-07
4.34446e-07
4.36222e-07
5.55252e-08
6.64739e-07
7.08505e-08
5.76473e-07
8.21804e-08
6.55075e-07
1.02589e-07
1.1414e-07
6.82903e-07
6.94868e-07
7.3144e-07
1.61902e-07
7.37213e-07
7.6887e-07
6.98752e-07
6.89107e-07
7.01076e-07
6.99383e-07
7.74398e-07
7.47704e-07
7.77428e-07
6.98175e-07
6.83286e-07
7.01114e-07
6.63597e-07
7.75636e-07
6.94459e-07
7.73355e-07
6.98456e-07
5.94856e-07
6.99598e-07
6.80198e-07
7.72325e-07
6.04771e-07
7.75398e-07
6.99223e-07
6.80179e-07
6.99709e-07
7.38892e-07
7.76067e-07
7.40367e-07
7.73501e-07
6.99653e-07
6.85781e-07
6.99452e-07
7.43961e-07
7.74e-07
6.93587e-07
7.7197e-07
6.99505e-07
6.45876e-07
6.99056e-07
7.18817e-07
7.73018e-07
6.30671e-07
7.72242e-07
6.97284e-07
6.75661e-07
1.81808e-07
7.25392e-07
7.73207e-07
7.09418e-07
2.50005e-07
1.21547e-07
5.68873e-07
5.11046e-08
6.45557e-07
1.71478e-07
3.31562e-07
7.62843e-08
8.23373e-08
6.58982e-07
1.02593e-07
7.23066e-07
8.19067e-08
6.98177e-07
1.02494e-07
1.62208e-07
6.99153e-07
7.6795e-07
7.1381e-07
1.62435e-07
6.49573e-07
7.66059e-07
7.74391e-07
7.44235e-07
7.76943e-07
7.22465e-07
7.72848e-07
7.1284e-07
7.74817e-07
7.7491e-07
6.87721e-07
7.72897e-07
6.52954e-07
7.76654e-07
6.63009e-07
7.76561e-07
7.72895e-07
6.13876e-07
7.74049e-07
6.58294e-07
7.7222e-07
7.3386e-07
7.76048e-07
7.74866e-07
7.40795e-07
7.7216e-07
7.15807e-07
7.76399e-07
7.38238e-07
7.74948e-07
7.72877e-07
7.03672e-07
7.70888e-07
6.74506e-07
7.73694e-07
6.79867e-07
7.72507e-07
7.73023e-07
6.29388e-07
7.72399e-07
7.27753e-07
7.74801e-07
6.51864e-07
7.74153e-07
7.73453e-07
7.02596e-07
2.50961e-07
6.62021e-07
7.73342e-07
7.02673e-07
2.55058e-07
1.71556e-07
3.36793e-07
7.65114e-08
7.52763e-07
1.71797e-07
6.75092e-07
7.62509e-08
8.15847e-08
6.88538e-07
1.02487e-07
6.83315e-07
5.5687e-08
6.8025e-07
7.07582e-08
1.6224e-07
6.76488e-07
7.6685e-07
6.85289e-07
1.14169e-07
6.78764e-07
6.94872e-07
7.72881e-07
7.24307e-07
7.75188e-07
6.71601e-07
6.99014e-07
6.95312e-07
7.00973e-07
7.75445e-07
5.98332e-07
7.75195e-07
6.57643e-07
6.99069e-07
5.53801e-07
7.00694e-07
7.72083e-07
7.4459e-07
7.7515e-07
6.84448e-07
6.99345e-07
6.90413e-07
6.99652e-07
7.76225e-07
7.36018e-07
7.74995e-07
6.6968e-07
7.00009e-07
6.82814e-07
6.99623e-07
7.72377e-07
6.92002e-07
7.7351e-07
6.79194e-07
6.99513e-07
6.85229e-07
6.99303e-07
7.75213e-07
6.67001e-07
7.74048e-07
6.80695e-07
6.99866e-07
6.51031e-07
6.99206e-07
7.73143e-07
6.61699e-07
2.55727e-07
6.30654e-07
6.97322e-07
6.67578e-07
1.84057e-07
1.71807e-07
6.88633e-07
7.58082e-08
6.87506e-07
1.21498e-07
6.53362e-07
5.08207e-08
5.26473e-07
6.25796e-07
1.28526e-07
8.48942e-07
7.97548e-07
8.1303e-07
7.31127e-07
7.55577e-07
6.00081e-07
5.58477e-07
5.51245e-07
6.48782e-07
6.76824e-07
6.95083e-07
1.29567e-07
3.51075e-08
1.29567e-07
5.12577e-08
1.83833e-07
5.21971e-08
1.83833e-07
5.11664e-07
8.71589e-07
8.52548e-07
8.52464e-07
8.03789e-07
9.15953e-07
8.92806e-07
7.30134e-07
6.97264e-07
6.76103e-07
7.62414e-07
7.68374e-07
7.15989e-07
6.83383e-07
1.29566e-07
8.33257e-08
1.2951e-07
5.46651e-08
1.83832e-07
1.19991e-07
1.83719e-07
8.64767e-07
7.58761e-07
7.86215e-07
8.75805e-07
8.69833e-07
8.58353e-07
8.88858e-07
7.65568e-07
6.96927e-07
3.49287e-07
7.53373e-07
7.72593e-07
4.48909e-07
6.92088e-07
3.52933e-08
6.97518e-07
3.52832e-08
2.58626e-07
5.20163e-08
7.755e-07
5.19948e-08
8.64587e-07
8.58664e-07
8.95146e-07
8.81203e-07
8.5405e-07
8.30424e-07
8.59448e-07
7.0558e-07
6.5908e-07
6.33078e-07
7.06666e-07
7.42198e-07
6.70963e-07
5.46782e-07
3.53119e-08
6.99799e-07
4.1178e-08
7.76064e-07
5.20945e-08
7.72723e-07
6.10247e-08
8.44815e-07
6.12084e-07
2.97162e-07
9.02018e-07
5.08468e-07
3.92283e-07
3.62467e-07
7.37638e-07
6.97513e-07
6.36505e-07
7.20299e-07
7.70426e-07
6.24318e-07
6.86149e-07
4.59248e-08
7.00547e-07
5.26091e-08
7.76638e-07
6.83768e-08
7.76506e-07
7.87029e-08
5.96296e-07
8.79963e-07
4.12306e-07
5.4522e-07
5.60645e-07
8.58456e-07
4.75324e-07
7.63337e-07
6.94966e-07
5.58949e-07
7.48576e-07
7.64899e-07
6.82101e-07
6.95431e-07
5.43567e-08
6.99933e-07
4.5427e-08
7.76069e-07
8.06499e-08
7.75601e-07
6.74684e-08
3.02797e-07
6.46869e-07
6.55146e-07
5.38968e-07
3.10978e-07
8.0711e-07
6.68607e-07
7.44267e-07
6.97418e-07
6.71767e-07
7.52449e-07
7.72073e-07
7.05483e-07
6.86754e-07
4.09501e-08
7.0013e-07
3.53004e-08
7.71435e-07
6.05182e-08
7.75395e-07
5.20493e-08
8.79466e-07
5.30291e-07
8.82886e-07
4.35768e-07
8.13714e-07
6.79941e-07
7.87619e-07
7.22021e-07
6.95984e-07
6.90418e-07
7.14948e-07
7.65225e-07
7.02179e-07
5.52283e-07
3.5272e-08
3.46764e-07
3.50725e-08
7.74566e-07
5.19949e-08
4.26451e-07
5.19794e-08
6.94834e-07
7.62538e-07
8.11794e-07
6.11037e-07
5.414e-07
3.33352e-07
6.73365e-07
6.11624e-07
6.95806e-07
3.98713e-07
7.28013e-07
7.69239e-07
4.59013e-07
4.87726e-07
1.1785e-07
4.09523e-08
1.29477e-07
1.8684e-07
5.19792e-08
6.04798e-08
1.83536e-07
8.04693e-07
7.75917e-07
7.58335e-07
7.38573e-07
8.18787e-07
7.89671e-07
8.05948e-07
7.68667e-07
6.45191e-07
6.47714e-07
5.28953e-07
7.18369e-07
6.42483e-07
6.96017e-07
1.29567e-07
3.47968e-08
1.29567e-07
5.50548e-08
1.83834e-07
5.12634e-08
1.83833e-07
8.67429e-07
8.83341e-07
7.78763e-07
7.43325e-07
8.49806e-07
8.66325e-07
8.64991e-07
7.62993e-07
7.36332e-07
6.65134e-07
7.24203e-07
7.64028e-07
6.91047e-07
7.607e-07
1.83828e-07
5.22365e-08
1.83828e-07
5.15496e-08
1.83828e-07
5.22377e-08
1.83829e-07
8.47871e-07
9.11662e-07
9.07504e-07
8.79939e-07
9.12831e-07
8.09062e-07
8.98703e-07
6.70523e-07
7.7264e-07
6.84658e-07
7.17708e-07
6.67176e-07
7.69698e-07
6.84966e-07
1.83827e-07
1.20027e-07
1.83714e-07
5.46834e-08
1.83827e-07
1.20035e-07
1.83715e-07
7.90599e-07
8.74697e-07
9.14702e-07
9.03964e-07
8.75105e-07
8.34286e-07
8.93173e-07
7.55136e-07
7.59697e-07
6.31589e-07
6.71754e-07
7.55397e-07
7.6244e-07
6.08447e-07
5.20158e-08
7.75317e-07
5.19945e-08
2.58897e-07
5.20159e-08
7.75713e-07
5.19945e-08
9.21268e-07
9.21738e-07
9.13744e-07
8.61882e-07
9.07928e-07
8.60713e-07
8.47756e-07
6.59019e-07
7.49172e-07
4.65625e-07
6.33433e-07
6.5926e-07
7.51818e-07
4.64105e-07
5.21031e-08
7.74972e-07
6.10844e-08
7.76799e-07
5.21033e-08
7.73739e-07
6.1051e-08
4.03455e-07
4.93005e-07
4.33624e-07
5.64826e-07
2.96814e-07
3.27792e-07
4.71134e-07
7.24041e-07
7.47883e-07
6.0528e-07
6.60186e-07
7.11712e-07
7.47579e-07
5.79665e-07
6.85151e-08
7.76531e-07
7.90284e-08
7.76931e-07
6.84065e-08
7.76438e-07
7.9063e-08
5.74392e-07
7.31025e-07
4.87477e-07
6.59933e-07
6.00266e-07
5.87911e-07
6.61832e-07
7.47987e-07
7.61636e-07
7.3271e-07
7.44435e-07
7.51264e-07
7.61201e-07
7.15748e-07
8.10202e-08
7.7407e-07
6.75892e-08
7.75214e-07
8.09715e-08
7.74236e-07
6.76149e-08
2.75825e-07
9.13617e-07
6.94345e-07
6.25572e-07
3.10941e-07
7.74798e-07
8.32593e-07
7.51501e-07
7.59979e-07
6.07473e-07
6.81902e-07
7.4448e-07
7.57286e-07
6.2165e-07
6.06176e-08
7.75239e-07
5.2053e-08
7.7548e-07
6.06729e-08
7.75846e-07
5.20529e-08
4.55254e-07
4.83732e-07
3.92867e-07
6.95987e-07
5.0228e-07
7.45275e-07
2.75599e-07
7.65783e-07
7.55396e-07
5.63949e-07
7.46357e-07
7.63737e-07
7.61757e-07
5.49534e-07
5.19944e-08
4.24996e-07
5.19789e-08
7.74527e-07
5.19946e-08
4.26127e-07
5.19789e-08
5.51398e-07
3.04278e-07
5.14403e-07
2.25345e-07
4.98662e-07
6.68957e-07
5.81144e-07
5.7859e-07
7.49567e-07
3.57908e-07
6.92204e-07
5.83967e-07
7.31664e-07
3.63429e-07
5.19789e-08
6.04926e-08
1.83532e-07
1.86029e-07
5.1979e-08
6.03547e-08
1.83533e-07
7.20333e-07
7.73803e-07
8.16494e-07
2.86246e-07
5.72971e-07
4.98237e-07
7.62884e-07
7.62095e-07
7.43851e-07
7.58021e-07
7.02744e-07
7.67352e-07
7.52216e-07
7.02393e-07
1.8383e-07
5.15558e-08
1.83828e-07
5.5075e-08
1.8383e-07
5.12893e-08
1.83828e-07
8.60309e-07
9.14938e-07
8.43079e-07
1.70437e-07
8.43352e-07
8.37938e-07
8.10862e-07
7.47151e-07
7.6659e-07
7.33148e-07
7.52665e-07
7.43935e-07
7.15954e-07
7.68015e-07
1.83833e-07
5.21966e-08
1.83833e-07
3.48012e-08
1.29567e-07
3.50536e-08
1.29567e-07
8.99382e-07
8.52744e-07
8.80245e-07
8.91982e-07
8.19821e-07
6.89076e-07
7.78687e-07
6.97159e-07
7.74391e-07
6.83079e-07
7.18682e-07
6.81921e-07
7.73933e-07
6.8623e-07
1.83832e-07
1.19989e-07
1.83719e-07
3.68959e-08
1.29567e-07
8.32636e-08
1.2951e-07
8.06742e-07
8.67185e-07
8.35319e-07
8.81289e-07
7.13479e-07
7.46374e-07
8.60881e-07
7.57585e-07
7.72034e-07
6.86468e-07
7.57044e-07
7.58508e-07
7.6628e-07
6.8666e-07
5.20163e-08
7.75757e-07
5.19948e-08
1.89104e-07
3.51956e-08
6.97474e-07
3.52833e-08
9.0802e-07
9.18669e-07
9.18028e-07
8.68974e-07
8.86771e-07
8.7333e-07
8.66443e-07
6.56387e-07
7.51983e-07
4.56045e-07
6.82714e-07
6.53142e-07
7.55118e-07
4.51357e-07
5.20946e-08
7.753e-07
6.09727e-08
7.01206e-07
3.53108e-08
7.00749e-07
4.11658e-08
6.00464e-07
3.8971e-07
5.74097e-07
6.53766e-07
6.1831e-07
5.14349e-07
6.47356e-07
7.68983e-07
7.62041e-07
6.62927e-07
7.39059e-07
7.66511e-07
7.6729e-07
6.79209e-07
6.83138e-08
7.76199e-07
7.87392e-08
7.00943e-07
4.59007e-08
7.00679e-07
5.25788e-08
6.67448e-07
6.52566e-07
5.78945e-07
5.62314e-07
6.13071e-07
6.5189e-07
6.26139e-07
7.65479e-07
7.68256e-07
6.96424e-07
7.0851e-07
7.5869e-07
7.6906e-07
6.81571e-07
8.06359e-08
7.74933e-07
6.74547e-08
7.00937e-07
5.43346e-08
6.9992e-07
4.54266e-08
6.46581e-07
1.74283e-07
8.09625e-07
8.67931e-07
8.17417e-07
4.57384e-07
7.79744e-07
7.65792e-07
7.62367e-07
6.71371e-07
7.45432e-07
7.62471e-07
7.64235e-07
7.57893e-07
6.05042e-08
7.76294e-07
5.2049e-08
7.00222e-07
4.09203e-08
7.00043e-07
3.53003e-08
5.58137e-07
5.55436e-07
7.19031e-07
3.14311e-07
8.44495e-07
5.82119e-07
7.0624e-07
7.70633e-07
7.57051e-07
5.71347e-07
7.21953e-07
7.70528e-07
7.58102e-07
5.80687e-07
5.19949e-08
4.27941e-07
5.19793e-08
6.96909e-07
3.52603e-08
3.47023e-07
3.50726e-08
5.56667e-07
4.77516e-07
4.74466e-07
6.12354e-07
5.4153e-07
3.16926e-07
5.88248e-07
5.49889e-07
7.43667e-07
4.51852e-07
6.73386e-07
5.41429e-07
7.52285e-07
4.75097e-07
5.19792e-08
6.02638e-08
1.83536e-07
1.33493e-07
1.1785e-07
4.09415e-08
1.29477e-07
5.33512e-07
3.53543e-07
7.41829e-07
5.61091e-07
7.98529e-07
2.06401e-07
6.15315e-07
7.60272e-07
7.69789e-07
6.49095e-07
7.53645e-07
7.63281e-07
7.67105e-07
6.62338e-07
1.83834e-07
5.12763e-08
1.83832e-07
3.71959e-08
1.29567e-07
3.48149e-08
1.29567e-07
6.33334e-07
6.86013e-07
5.06674e-08
8.14351e-08
7.44048e-08
5.53471e-07
7.42322e-07
5.80461e-07
2.52166e-07
6.56962e-07
6.86102e-07
3.84572e-07
7.16266e-07
5.41186e-07
7.36986e-07
6.78412e-08
6.92122e-07
1.02578e-07
9.85763e-08
7.65128e-07
6.8175e-07
7.54163e-07
5.36363e-07
6.98018e-07
6.68789e-07
6.57269e-07
7.59025e-07
6.85531e-07
6.17436e-07
8.18887e-08
7.12243e-07
7.51989e-08
7.47716e-08
5.99566e-07
7.23036e-07
5.32698e-07
6.59832e-07
4.51998e-07
7.09299e-07
4.29136e-07
7.07774e-07
4.85851e-07
7.22123e-07
1.02574e-07
9.86251e-08
7.63537e-07
9.86577e-08
7.64108e-07
7.11186e-07
7.71528e-07
6.96088e-07
1.83959e-07
1.61779e-07
7.68915e-07
2.52234e-07
6.97824e-07
7.11905e-07
5.89988e-07
6.94146e-07
7.3139e-07
6.65081e-07
7.63921e-07
6.61149e-07
7.74368e-07
5.81381e-07
6.997e-07
7.69858e-07
6.62384e-07
7.7409e-07
6.99361e-07
7.07845e-07
7.69584e-07
7.73252e-07
6.66697e-07
7.67278e-07
6.98638e-07
6.89378e-07
7.68324e-07
1.61718e-07
7.66378e-07
2.52544e-07
7.67237e-07
2.51987e-07
7.65207e-07
6.84239e-07
6.86461e-07
6.53601e-07
7.55748e-07
6.51449e-07
7.57449e-07
6.71141e-07
7.70329e-07
7.69602e-07
6.44968e-07
7.70017e-07
6.5408e-07
7.71633e-07
7.6941e-07
7.67868e-07
7.00065e-07
7.0092e-07
7.745e-07
7.73313e-07
7.76626e-07
6.9751e-07
7.6377e-07
5.56737e-07
6.99911e-07
7.68919e-07