/*--------------------------------*- C++ -*----------------------------------*\
| =========                 |                                                 |
| \\      /  F ield         | OpenFOAM: The Open Source CFD Toolbox           |
|  \\    /   O peration     | Version:  5.0                                   |
|   \\  /    A nd           | Web:      www.OpenFOAM.org                      |
|    \\/     M anipulation  |                                                 |
\*---------------------------------------------------------------------------*/
FoamFile
{
    version     2.0;
    format      ascii;
    class       volVectorField;
    location    "3";
    object      U;
}
// * * * * * * * * * * * * * * * * * * * * * * * * * * * * * * * * * * * * * //

dimensions      [0 1 -1 0 0 0 0];

internalField   nonuniform List<vector> 
9011
(
(0.0024055 -0.0116004 0.000231671)
(-0.00392137 -0.00472379 0.00112987)
(-0.0149076 0.00250152 -0.00319643)
(-0.00493918 -0.00792099 0.000540279)
(0.00851185 0.0154115 0.000569201)
(0.00712079 -0.00111431 -0.000692877)
(0.000402192 2.51619e-07 1.49085e-05)
(0.000827775 -5.97246e-05 -2.21382e-06)
(0.000806767 -4.28915e-05 5.21607e-08)
(0.000808726 -2.88917e-05 7.56643e-08)
(0.000810087 -1.87364e-05 1.22204e-07)
(0.000810873 -1.20907e-05 7.31201e-08)
(0.000811801 -7.66062e-06 -1.64411e-08)
(0.000811361 -4.51634e-06 3.79337e-08)
(0.000810304 -2.88726e-06 5.18642e-08)
(0.000809405 -1.8722e-06 2.67389e-08)
(0.000808324 -1.18622e-06 5.17506e-08)
(0.000806987 -6.35514e-07 7.26745e-08)
(0.000805253 -5.6561e-07 6.47422e-08)
(0.000804021 -5.74441e-07 1.09064e-07)
(0.000802849 -3.48745e-07 2.99608e-08)
(0.000801227 -1.51336e-07 5.23256e-08)
(0.000799791 -1.12777e-07 6.63477e-09)
(0.000798414 -9.18855e-08 4.55902e-08)
(0.000796983 2.26421e-08 5.16362e-08)
(0.000795394 6.08683e-08 9.11988e-08)
(0.000793693 5.873e-08 3.94665e-08)
(0.000792347 4.88316e-08 4.84134e-08)
(0.000790837 1.99007e-07 1.40715e-08)
(0.000789359 -9.88883e-08 6.06411e-08)
(0.000787827 -4.42033e-07 7.7985e-08)
(0.000786171 -5.22962e-07 3.39561e-08)
(0.000784721 -4.26759e-07 4.97532e-08)
(0.000783654 1.57965e-08 7.29876e-08)
(0.000782483 5.20683e-08 4.42858e-08)
(0.000780829 6.12634e-08 9.24496e-08)
(0.000779147 1.07759e-07 4.30238e-08)
(0.000777444 2.43234e-07 3.95568e-09)
(0.00077663 5.55492e-07 7.41196e-08)
(0.000775616 1.90251e-07 7.38731e-08)
(0.000773921 3.76167e-08 2.62152e-08)
(0.000772504 5.01345e-08 7.2616e-08)
(0.000771273 -6.66246e-08 7.95305e-08)
(0.000769477 -2.33969e-07 1.97334e-08)
(0.000767862 -1.67327e-07 4.26878e-08)
(0.000766531 -8.41515e-08 5.54918e-08)
(0.000765391 8.39308e-08 5.02921e-08)
(0.000764375 -9.57516e-08 3.76926e-08)
(0.000762622 -3.72113e-07 4.39089e-08)
(0.000761023 -3.31427e-07 -1.24754e-09)
(0.00593033 0.0030856 -0.000545776)
(0.00722896 0.000728216 0.000478373)
(-0.0052 -0.00168876 -0.000277496)
(-0.00106219 -0.00248145 -0.00040044)
(0.0120445 -0.00130301 0.000194837)
(-0.00863417 0.000904446 -0.000198663)
(0.000454309 -7.61988e-05 3.71303e-05)
(0.000852722 -8.34768e-05 -2.49769e-06)
(0.000828139 -2.90707e-05 -1.13527e-07)
(0.000824588 -2.96716e-05 -4.58307e-09)
(0.000821666 -1.89594e-05 3.62941e-08)
(0.000818647 -1.27898e-05 4.20303e-08)
(0.000816531 -8.30081e-06 4.94674e-08)
(0.000814466 -5.62881e-06 4.59065e-08)
(0.000812511 -3.55451e-06 4.94637e-08)
(0.000810852 -2.32687e-06 4.43897e-08)
(0.000809279 -1.41729e-06 4.9351e-08)
(0.000807467 -9.59797e-07 6.80186e-08)
(0.00080584 -3.70729e-07 7.64082e-08)
(0.000804429 -1.28416e-07 2.72828e-08)
(0.000802873 -1.2259e-07 8.31708e-08)
(0.000801292 -4.74145e-08 6.52543e-08)
(0.000799713 1.78923e-07 1.37431e-07)
(0.000798346 1.08753e-07 5.33338e-08)
(0.000796914 -6.3103e-08 6.25379e-08)
(0.000795304 -2.53859e-07 1.28238e-07)
(0.000793831 -2.41135e-07 3.53405e-08)
(0.000792469 -2.20814e-07 4.89832e-08)
(0.000790835 -5.25804e-07 6.80494e-08)
(0.000788916 -4.96074e-07 7.67123e-08)
(0.000787554 -3.01945e-07 -1.12712e-07)
(0.000786334 -1.1435e-07 1.97316e-08)
(0.000785286 4.17539e-07 1.18229e-07)
(0.000784008 5.47401e-07 9.05283e-08)
(0.000782225 2.26022e-07 4.62365e-08)
(0.000780822 1.67014e-07 4.3814e-08)
(0.000779596 1.71787e-07 3.99316e-08)
(0.000778381 3.67322e-07 5.78953e-09)
(0.000776463 6.25817e-07 1.97566e-08)
(0.000774658 2.69946e-07 2.4755e-07)
(0.000773524 5.54907e-08 5.86121e-08)
(0.00077217 -1.37906e-07 6.22342e-08)
(0.000770632 -2.89515e-07 5.08417e-08)
(0.000769582 -5.13167e-07 3.94905e-08)
(0.000768407 -4.91375e-08 5.3481e-08)
(0.000766952 2.92589e-08 5.57347e-08)
(0.000765485 3.88871e-07 7.52984e-08)
(0.000763889 8.65341e-08 4.68818e-08)
(0.000762533 -8.1051e-08 -7.28755e-08)
(0.00076152 -1.6901e-07 1.088e-07)
(0.00534591 0.00208677 -8.23594e-05)
(0.00293308 -0.00502006 0.000579327)
(0.000406178 -0.00965536 0.0011578)
(0.00292979 -0.00166695 -9.95055e-05)
(0.0110405 0.0133132 0.000483481)
(9.22508e-05 0.0138484 -0.000213391)
(0.00119756 0.000111096 -1.43822e-05)
(0.000471066 -5.88069e-05 -1.68549e-06)
(0.000892117 -3.35984e-05 -1.66774e-06)
(0.000821615 -2.76765e-05 -4.85776e-07)
(0.00083132 -1.66191e-05 1.97841e-07)
(0.000824283 -1.07551e-05 4.21831e-08)
(0.000820811 -6.7858e-06 5.87421e-08)
(0.000817333 -4.33456e-06 5.28988e-08)
(0.000814457 -2.7098e-06 5.33682e-08)
(0.000812093 -1.68351e-06 5.81576e-08)
(0.000810044 -1.14599e-06 5.54154e-08)
(0.000808302 -8.01933e-07 4.77052e-08)
(0.000806296 -5.50411e-07 6.83691e-08)
(0.000804333 -2.75246e-07 4.1073e-08)
(0.000802951 -2.01745e-07 3.35534e-08)
(0.000801603 -9.16267e-08 4.9263e-08)
(0.000799985 5.7464e-09 4.87063e-08)
(0.00079811 1.01981e-07 7.82006e-08)
(0.000796529 3.66602e-08 4.88493e-08)
(0.000795172 2.3465e-08 3.37995e-08)
(0.000793736 -2.69479e-08 4.83414e-08)
(0.000791994 -4.10822e-08 5.30811e-08)
(0.000790497 -1.31113e-07 -2.29134e-09)
(0.000789645 2.06368e-07 -1.55965e-10)
(0.000788308 3.91166e-07 1.85246e-07)
(0.000787071 4.10148e-07 6.29099e-08)
(0.000785546 4.77356e-07 -1.9937e-09)
(0.000783411 2.03916e-07 3.52578e-09)
(0.000782004 1.19603e-07 9.73093e-08)
(0.000780759 1.62404e-07 5.09513e-08)
(0.000779396 9.46956e-08 1.67057e-07)
(0.000778008 -3.63503e-08 4.96831e-08)
(0.000776504 -1.76558e-07 2.57675e-08)
(0.0007749 6.25116e-08 7.72925e-08)
(0.00077341 4.14404e-08 6.70671e-08)
(0.000772074 -3.547e-08 6.20083e-08)
(0.000770807 2.86723e-07 2.87039e-07)
(0.000769781 4.45377e-07 1.10557e-07)
(0.000768543 2.96298e-07 7.67841e-08)
(0.000767078 2.80244e-07 5.14734e-08)
(0.000765463 2.76973e-07 1.31147e-07)
(0.000763788 4.10449e-07 8.26493e-08)
(0.000762308 2.46836e-07 5.62363e-08)
(0.000761332 1.39308e-07 1.03285e-07)
(0.00273453 0.0071436 0.000134937)
(0.0138235 0.00727248 0.00260986)
(0.00113431 0.00108915 -0.000292917)
(-0.0149625 -0.0075942 0.000390418)
(0.00744638 -0.0103284 0.000666863)
(-0.000742983 -0.0037197 -7.07275e-05)
(0.000191338 -0.00053436 -1.6829e-05)
(0.000516583 -6.31085e-05 -7.04574e-07)
(0.000919554 -3.69851e-05 -1.94391e-06)
(0.000845891 -1.66213e-05 -1.30341e-07)
(0.000842949 -9.46013e-06 1.26296e-07)
(0.000831022 -5.05327e-06 2.03596e-08)
(0.000824611 -2.97767e-06 4.91564e-08)
(0.000819596 -1.69416e-06 4.68355e-08)
(0.000815848 -8.03902e-07 4.60649e-08)
(0.000812821 -4.0707e-07 4.72147e-08)
(0.000810391 -3.49177e-07 5.06457e-08)
(0.000808219 -2.66211e-07 6.77939e-08)
(0.000806503 -3.99925e-07 3.68105e-08)
(0.000804869 -3.2431e-07 3.73178e-08)
(0.000803105 -1.8174e-07 6.67894e-08)
(0.000801552 -2.09202e-07 5.23872e-08)
(0.000799955 -2.52186e-07 -1.3981e-08)
(0.000798384 -1.45849e-07 5.84066e-08)
(0.000796814 4.4966e-08 2.65926e-08)
(0.000795224 1.82019e-07 2.70526e-08)
(0.00079375 3.14526e-07 6.55224e-08)
(0.000792339 4.649e-07 5.01975e-08)
(0.000791143 8.15823e-07 4.38126e-08)
(0.000789566 7.20783e-07 4.3015e-08)
(0.000787804 4.36713e-07 8.63382e-08)
(0.000786437 5.46957e-07 4.95731e-08)
(0.000785024 -4.1775e-08 1.05865e-07)
(0.000783559 -5.24433e-08 4.49862e-08)
(0.000782171 6.94983e-08 6.23292e-08)
(0.00078079 4.77353e-08 2.24281e-07)
(0.000779347 -1.63383e-09 3.93571e-08)
(0.000778042 -5.92744e-08 4.7289e-08)
(0.000776587 -2.3614e-07 1.94402e-08)
(0.00077493 -2.86562e-07 -6.11282e-08)
(0.000773401 -2.83479e-08 5.39889e-08)
(0.000772475 1.31756e-07 1.80281e-07)
(0.00077123 2.61646e-07 2.17633e-07)
(0.000769589 3.85288e-07 -3.36109e-08)
(0.000768197 8.22939e-08 -8.31718e-08)
(0.000766924 4.895e-08 4.02549e-08)
(0.000765645 3.76242e-08 7.5954e-08)
(0.000763849 2.96343e-07 4.23837e-08)
(0.00076219 1.57464e-07 4.72917e-08)
(0.000761038 2.52926e-07 1.60957e-07)
(0.0134364 -0.00513356 -0.000221299)
(-0.0198091 -0.00514883 -0.00059939)
(0.00152355 -0.00415116 -0.000279282)
(0.0105206 -0.000298829 -0.000442128)
(0.0184357 0.00635402 -0.000667388)
(0.00211283 -0.00745931 0.00029473)
(0.00075283 -5.81998e-06 7.2405e-06)
(0.000429797 -2.44297e-05 1.0951e-05)
(0.000922305 3.66652e-06 -2.08268e-06)
(0.000856219 7.09457e-06 -2.57755e-07)
(0.000845878 5.40397e-06 1.24021e-07)
(0.000832446 3.86948e-06 6.98596e-08)
(0.000825044 2.72185e-06 7.60257e-08)
(0.00082007 1.71001e-06 4.85354e-08)
(0.000816077 8.45881e-07 2.7166e-08)
(0.000812667 4.75628e-07 2.52969e-08)
(0.000810224 3.91666e-07 4.68149e-08)
(0.000808242 2.61273e-07 5.04264e-08)
(0.000806226 2.26432e-07 7.00809e-08)
(0.000804609 1.68168e-07 3.93081e-08)
(0.000803097 -2.2073e-07 6.66752e-08)
(0.000801517 8.89476e-08 4.27669e-08)
(0.000800066 3.28449e-08 9.44367e-08)
(0.000798483 5.72652e-08 9.66556e-08)
(0.000796939 2.73403e-08 7.81009e-08)
(0.000795507 -1.14885e-07 6.72799e-08)
(0.000794086 1.72544e-07 6.68974e-08)
(0.000792615 3.16913e-07 6.13601e-08)
(0.00079081 4.98348e-07 2.24005e-07)
(0.000789163 5.24494e-07 3.77018e-08)
(0.000788084 3.14508e-07 5.36118e-08)
(0.000786468 3.07818e-08 4.83792e-08)
(0.000784793 1.32112e-07 6.51204e-08)
(0.000783549 1.02243e-07 4.77075e-08)
(0.000782129 1.47245e-07 5.52884e-08)
(0.00078067 2.59014e-08 4.58408e-08)
(0.000779262 -3.08662e-09 1.43591e-08)
(0.000777717 -6.13574e-08 4.74086e-08)
(0.000776222 -1.60073e-07 4.19897e-08)
(0.000775162 -1.90003e-07 8.41216e-08)
(0.000773934 6.05708e-08 4.37495e-08)
(0.000772435 4.15744e-07 1.83829e-07)
(0.00077112 3.48103e-08 2.578e-08)
(0.000769554 9.27158e-08 -1.76325e-07)
(0.000768121 -1.43297e-07 3.88106e-08)
(0.000767022 -2.22778e-07 4.86156e-08)
(0.000765771 -5.33984e-07 8.83456e-09)
(0.000763937 -8.3888e-07 -1.53556e-08)
(0.000762247 -3.33688e-07 6.37242e-08)
(0.000760823 3.46293e-08 5.16395e-08)
(-0.00709024 -0.000134213 0.000170021)
(-0.00422689 -0.00201828 -0.000304175)
(0.00441285 0.00249654 0.00214235)
(0.0284241 0.00468766 0.000321486)
(-0.00801555 0.0103852 -0.000160434)
(0.000354212 0.00376151 -0.000239476)
(0.000999627 5.18656e-05 4.72777e-06)
(0.000500528 1.40123e-06 1.34591e-05)
(0.000913255 5.67707e-05 -2.29816e-06)
(0.00084796 3.44003e-05 -3.77648e-07)
(0.00083892 2.13134e-05 9.36147e-08)
(0.000827665 1.30201e-05 2.66528e-08)
(0.000821907 8.11521e-06 9.43887e-08)
(0.000817247 4.92393e-06 4.44265e-08)
(0.000814303 2.78141e-06 8.28261e-08)
(0.000812253 1.65065e-06 8.17066e-08)
(0.000810122 1.08654e-06 4.94097e-08)
(0.000808011 6.68233e-07 6.65101e-08)
(0.000806385 4.67204e-07 2.85243e-08)
(0.000804309 5.8376e-07 5.51125e-08)
(0.000803006 7.84915e-07 1.31219e-07)
(0.000801869 5.22347e-07 3.24599e-08)
(0.000799915 3.92563e-07 1.33371e-07)
(0.000798377 2.52633e-07 8.74874e-08)
(0.0007966 2.28358e-07 4.82933e-08)
(0.000795406 3.19832e-07 -3.59707e-08)
(0.000794289 4.5157e-08 3.90366e-08)
(0.000792744 -8.93999e-08 8.28214e-09)
(0.000791399 1.33878e-07 2.14246e-08)
(0.000789332 -2.99947e-07 -1.16388e-07)
(0.000787185 -2.85136e-07 2.38012e-08)
(0.000786207 -2.98486e-07 1.49845e-07)
(0.000785113 -2.00374e-07 1.59024e-08)
(0.000783577 -1.25503e-07 -1.33624e-07)
(0.000782075 -1.5638e-07 1.48201e-08)
(0.000780601 -6.92836e-08 4.21638e-08)
(0.000779238 1.5471e-08 4.79403e-08)
(0.000777847 1.344e-07 8.61929e-08)
(0.000776428 2.11955e-07 6.14731e-08)
(0.000775207 2.1479e-07 5.76265e-08)
(0.000774157 1.65481e-07 3.0221e-08)
(0.000772442 1.63427e-07 -3.33071e-08)
(0.000770826 1.01537e-07 5.32933e-08)
(0.000769368 -1.03782e-07 -2.53758e-09)
(0.000767804 -6.32501e-08 4.20528e-08)
(0.000766439 -2.07672e-07 4.49729e-08)
(0.000764879 -5.34347e-07 -7.37852e-08)
(0.000764104 -7.22214e-07 7.09545e-08)
(0.000763283 -4.78639e-07 8.95964e-08)
(0.000761412 -3.35017e-07 1.29684e-07)
(-0.0100682 0.00218313 0.000679142)
(-0.00645651 0.00792574 -0.000700992)
(0.0160116 -0.0077471 0.000296842)
(0.00196392 -0.0154799 0.00161592)
(0.00232828 0.00709244 4.98591e-05)
(-0.00432048 -0.00219291 0.00029239)
(0.000555946 -0.000288891 7.52967e-05)
(0.000344201 5.80177e-05 3.76215e-06)
(0.000857069 9.10697e-05 -2.11847e-06)
(0.000811432 5.03087e-05 -3.61985e-07)
(0.000819027 2.96088e-05 1.1096e-07)
(0.000815869 1.76368e-05 2.52289e-08)
(0.000814874 1.0518e-05 5.01791e-08)
(0.000813372 6.41793e-06 4.98187e-08)
(0.000811968 4.13643e-06 5.39314e-08)
(0.000810538 2.61546e-06 5.24541e-08)
(0.000808989 1.60236e-06 5.10932e-08)
(0.000807463 1.01066e-06 4.3761e-08)
(0.000806116 7.60798e-07 1.4457e-07)
(0.000805002 4.0445e-07 6.20657e-08)
(0.000803016 7.27671e-07 -3.67795e-09)
(0.000801023 2.95351e-07 4.30557e-08)
(0.000799726 2.39885e-07 3.09678e-08)
(0.000798276 1.36304e-07 4.59287e-08)
(0.000797021 1.59323e-07 1.30911e-07)
(0.000795277 2.55863e-07 1.10449e-07)
(0.000793574 -1.02205e-07 6.07958e-08)
(0.000792726 -3.53474e-07 4.33889e-08)
(0.000790548 -1.13696e-06 -9.99385e-08)
(0.000788641 -1.1758e-06 1.06578e-07)
(0.000788089 -7.41669e-07 -9.3578e-08)
(0.000786577 -2.20351e-07 1.29739e-07)
(0.000785012 -2.07265e-07 3.92599e-08)
(0.000783606 -1.52483e-07 3.67069e-08)
(0.000782201 -1.34534e-07 6.58294e-08)
(0.000780885 5.27381e-09 1.84905e-07)
(0.000779516 2.05713e-08 4.94571e-08)
(0.000777962 9.28756e-09 2.10793e-08)
(0.000776321 6.19175e-08 3.40878e-08)
(0.000775102 2.43784e-07 -4.04586e-09)
(0.000773868 1.13145e-08 4.29803e-08)
(0.000772354 -2.81118e-07 3.32755e-09)
(0.000770786 -1.30443e-07 6.00382e-08)
(0.000769348 -2.94046e-07 5.31513e-08)
(0.000767993 -8.01733e-08 7.59076e-09)
(0.000766436 -2.02589e-08 4.83789e-08)
(0.000765132 -1.9279e-08 5.51468e-08)
(0.000764012 1.20441e-07 4.40841e-08)
(0.000762741 -2.2856e-07 3.51262e-08)
(0.000761838 -3.23561e-07 5.09481e-08)
(0.00230759 -0.00108683 2.25129e-05)
(-0.00116743 -0.00267924 0.000610793)
(-0.00512685 -0.00558013 -0.00017705)
(0.00074249 0.0134698 -0.000662865)
(-0.00149772 -0.0194036 0.00295944)
(-0.00688073 0.00707607 0.000529521)
(0.000332201 0.000973886 9.22398e-05)
(0.000363412 0.000102573 4.49932e-07)
(0.000794869 6.10405e-05 -1.32864e-06)
(0.000770601 3.577e-05 -4.11016e-07)
(0.000797856 2.13225e-05 1.52347e-07)
(0.000803667 1.30117e-05 3.64334e-08)
(0.000807803 7.89605e-06 5.72927e-08)
(0.000809222 4.80001e-06 5.10185e-08)
(0.000809519 2.99893e-06 5.03522e-08)
(0.000809066 1.90089e-06 5.081e-08)
(0.000808104 1.11254e-06 1.09127e-07)
(0.000806952 8.01188e-07 9.45186e-08)
(0.000805623 6.0029e-07 -9.13265e-08)
(0.000804264 3.6702e-07 4.45289e-08)
(0.000802867 -1.14449e-07 4.6246e-08)
(0.000801257 1.36927e-08 6.21621e-08)
(0.000799715 -1.11945e-07 3.4464e-08)
(0.000798275 -7.27283e-08 4.73596e-08)
(0.000796748 -2.35469e-07 5.9688e-08)
(0.000795078 -3.72244e-07 4.84742e-08)
(0.000793528 -1.91166e-07 -1.29894e-07)
(0.000791454 -2.58921e-07 5.86538e-08)
(0.000790378 -5.63717e-07 1.65823e-07)
(0.000789834 1.56887e-07 7.63675e-08)
(0.000788385 2.86392e-07 8.07473e-08)
(0.000786878 5.54443e-08 3.46657e-08)
(0.000785199 1.13304e-07 5.02833e-08)
(0.000783669 1.24711e-07 4.7968e-08)
(0.000782273 6.26465e-08 5.18828e-08)
(0.000780796 -6.53514e-08 3.11572e-08)
(0.000779243 -1.72917e-07 5.52431e-08)
(0.000777899 -2.97265e-07 6.34925e-08)
(0.00077672 -6.2067e-08 4.21311e-08)
(0.000775143 2.83707e-08 5.33715e-08)
(0.000773501 -7.33865e-08 1.75064e-07)
(0.000772266 -8.0993e-08 4.8257e-08)
(0.000770812 -2.38753e-07 6.66971e-08)
(0.000769432 -6.3331e-08 4.58529e-08)
(0.000768147 -6.78544e-08 6.54398e-08)
(0.000766516 6.93268e-08 4.54235e-08)
(0.000765056 4.26334e-07 4.21232e-08)
(0.000763843 2.95947e-07 5.27188e-08)
(0.000762737 1.66122e-07 -2.17606e-08)
(0.000762101 -5.0781e-08 5.7694e-08)
(-0.00309417 -0.00262699 0.000524636)
(0.000443931 -0.0178209 0.00317207)
(-0.00178731 0.00421363 0.00120153)
(0.00248181 0.00257217 0.0032697)
(0.0121949 0.00898377 -0.00299079)
(0.0134316 -0.0160899 0.000421472)
(0.000562199 -0.000309624 -3.57336e-05)
(0.000345757 1.20705e-07 1.93516e-06)
(0.000780336 -1.84782e-05 -1.08563e-06)
(0.000761622 -8.31359e-07 -2.26755e-07)
(0.00079038 3.42913e-07 1.79539e-07)
(0.000798968 1.3396e-06 5.75547e-08)
(0.000804539 1.20665e-06 6.2555e-08)
(0.000807208 7.22974e-07 6.08875e-08)
(0.000808318 6.1475e-07 5.64533e-08)
(0.000808164 4.64636e-07 1.08778e-07)
(0.000807604 3.38182e-07 8.99234e-08)
(0.000806816 1.65514e-07 4.65082e-08)
(0.000805569 1.28792e-07 4.27183e-08)
(0.000804106 2.77069e-07 7.8609e-08)
(0.000802574 4.35499e-08 4.71122e-08)
(0.000801027 -1.41336e-07 6.9223e-08)
(0.000799619 -1.65699e-07 1.51816e-08)
(0.000798123 -2.03665e-07 5.28535e-08)
(0.00079665 -2.45966e-07 4.05832e-08)
(0.000795335 -2.25311e-07 6.05412e-08)
(0.000793719 -1.02121e-07 4.9661e-08)
(0.000792264 2.8812e-08 4.93556e-08)
(0.00079107 5.70716e-07 5.33886e-08)
(0.000789704 5.43826e-07 7.74663e-08)
(0.000787961 4.78028e-07 8.0829e-09)
(0.000786359 3.02384e-07 4.96737e-08)
(0.000785098 2.45553e-08 4.77623e-09)
(0.000783542 -1.69472e-07 5.98337e-08)
(0.000781964 -1.84382e-07 1.36207e-07)
(0.000780592 -2.54843e-07 7.68133e-08)
(0.000779229 -2.19939e-07 3.95302e-08)
(0.000778101 -1.54814e-07 4.95219e-08)
(0.000776729 -2.80778e-07 7.38233e-08)
(0.000775088 -3.06543e-07 3.83767e-08)
(0.000773732 -1.50942e-07 5.2565e-08)
(0.000772149 -1.49291e-07 -2.91691e-08)
(0.00077081 -1.24466e-07 4.81816e-08)
(0.000769563 -1.00773e-08 3.94355e-08)
(0.000768159 9.44987e-08 6.07777e-08)
(0.000767052 4.69448e-08 5.66981e-08)
(0.000765413 1.92359e-07 7.09907e-08)
(0.000763684 4.03742e-07 3.86696e-08)
(0.000762307 6.87525e-07 -6.01039e-08)
(0.000761691 4.8105e-07 9.04495e-08)
(-0.0175397 0.000865393 0.00293849)
(-0.0018616 0.00817498 -0.0045798)
(0.00720924 -0.0114266 -0.000569582)
(-0.00101238 -0.00111567 0.000437225)
(-0.00219262 -0.00592923 5.81419e-05)
(0.00869306 0.00101927 -0.00136646)
(0.000370708 1.18847e-05 2.93035e-05)
(0.000814356 -5.12047e-05 -1.73824e-06)
(0.000788713 -5.1828e-05 -2.99782e-07)
(0.000794193 -2.38794e-05 4.40139e-08)
(0.000800536 -1.42163e-05 9.32921e-08)
(0.000804721 -8.1886e-06 5.32487e-08)
(0.000807012 -4.73276e-06 6.39061e-08)
(0.000808469 -2.40096e-06 3.73396e-08)
(0.000809187 -1.42193e-06 5.30261e-08)
(0.000808714 -8.17601e-07 7.08221e-08)
(0.000807726 -4.3261e-07 4.8123e-08)
(0.000806687 -2.43412e-07 4.78754e-08)
(0.00080576 -2.9684e-07 7.05307e-08)
(0.000804155 -4.98053e-07 1.13203e-08)
(0.000802343 -3.66136e-07 2.99691e-08)
(0.000800997 -2.79423e-07 1.70002e-07)
(0.000799639 -2.07355e-07 6.1238e-08)
(0.000798177 -1.42809e-07 4.79196e-08)
(0.000796724 2.52483e-08 5.63925e-08)
(0.000795261 1.24252e-07 -6.35743e-08)
(0.000793848 7.26185e-08 3.53186e-08)
(0.000792295 1.04235e-07 4.58728e-08)
(0.000791019 1.3982e-07 4.6412e-08)
(0.000789715 -8.16485e-08 3.28718e-08)
(0.00078808 -1.36024e-07 9.84204e-08)
(0.00078631 -1.89565e-07 -1.3463e-08)
(0.000784609 -2.88694e-07 -1.01911e-07)
(0.000783409 -4.94165e-07 1.20932e-07)
(0.000782168 -2.01786e-07 1.1724e-07)
(0.000780753 -8.01141e-08 5.55338e-08)
(0.00077937 -1.27077e-08 6.86802e-08)
(0.000777825 -1.45183e-07 4.83331e-08)
(0.000776533 -5.39565e-07 5.22063e-08)
(0.000775308 -2.26545e-07 5.68858e-08)
(0.000773701 -1.19238e-07 5.72658e-08)
(0.0007723 -7.62841e-08 3.55212e-08)
(0.000770987 1.65085e-07 4.83761e-08)
(0.000769706 2.94992e-07 3.12037e-08)
(0.000768218 9.79481e-08 2.18349e-08)
(0.000766636 6.0136e-08 2.60945e-09)
(0.000765498 -3.18482e-07 2.38192e-08)
(0.000764457 4.33901e-08 3.48105e-08)
(0.000762819 2.36104e-07 -5.0038e-08)
(0.000760644 3.01881e-07 6.37952e-08)
(0.0011451 -0.0100342 0.00169226)
(-0.00112242 -0.00372372 0.00028786)
(0.0124108 0.0360564 -0.00896496)
(0.00990456 -0.0014539 -0.00137245)
(0.0020795 0.000409716 0.00060634)
(0.0117206 -0.000438578 6.18253e-05)
(0.00121165 -6.27284e-06 -6.98831e-06)
(0.00138297 -9.40753e-05 3.2232e-07)
(0.0013471 -6.6677e-05 3.33462e-07)
(0.00134998 -4.46074e-05 3.43543e-07)
(0.00135205 -2.8779e-05 3.81997e-07)
(0.00135323 -1.85405e-05 3.4979e-07)
(0.00135466 -1.17302e-05 3.02025e-07)
(0.00135393 -6.91325e-06 1.19521e-07)
(0.00135219 -4.41119e-06 3.47634e-07)
(0.00135066 -2.84891e-06 2.83068e-07)
(0.00134882 -1.81583e-06 3.39377e-07)
(0.0013466 -9.73072e-07 3.51891e-07)
(0.00134375 -8.59316e-07 3.75616e-07)
(0.00134164 -8.75597e-07 3.89954e-07)
(0.00133967 -4.94305e-07 3.34089e-07)
(0.00133693 -1.58113e-07 3.21592e-07)
(0.0013345 -1.05677e-07 2.61441e-07)
(0.00133223 -9.60256e-08 2.90428e-07)
(0.00132985 1.26613e-07 3.52533e-07)
(0.00132721 2.21205e-07 3.95054e-07)
(0.00132443 1.58347e-07 2.7756e-07)
(0.00132225 7.44278e-08 3.33056e-07)
(0.00131962 2.81507e-07 2.8947e-07)
(0.00131704 -2.64679e-07 3.35389e-07)
(0.00131455 -8.68575e-07 3.75837e-07)
(0.00131174 -9.11521e-07 2.25905e-07)
(0.00130937 -6.93042e-07 2.89894e-07)
(0.00130769 2.4879e-09 3.66717e-07)
(0.0013057 1.34724e-07 3.18286e-07)
(0.00130291 1.61241e-07 3.56576e-07)
(0.00130005 2.09378e-07 3.28726e-07)
(0.00129721 4.22771e-07 2.15833e-07)
(0.00129576 9.44921e-07 2.90307e-07)
(0.00129408 4.17373e-07 3.90728e-07)
(0.00129133 1.01961e-07 2.8686e-07)
(0.00128896 1.2502e-07 3.55429e-07)
(0.00128691 -1.51459e-07 3.72932e-07)
(0.00128388 -3.74668e-07 2.43311e-07)
(0.00128125 -3.04451e-07 3.33948e-07)
(0.00127903 -2.10055e-07 3.40567e-07)
(0.00127701 6.80251e-08 2.77419e-07)
(0.00127532 -2.3384e-07 3.45062e-07)
(0.00127238 -6.07433e-07 3.48391e-07)
(0.00126963 -5.32728e-07 1.8279e-07)
(-0.00208955 0.00326903 -0.00120306)
(0.00192728 0.000309175 0.00076993)
(-0.000242765 -0.0131146 -0.000596475)
(0.000443223 -0.0144614 -0.000570923)
(0.00559286 -0.00383673 -0.00129677)
(-0.000811587 -0.000734438 -0.00208412)
(0.000910115 -6.55199e-05 6.25924e-05)
(0.00142326 -0.00013052 3.57504e-07)
(0.00138121 -4.28889e-05 4.2075e-07)
(0.00137474 -4.56938e-05 3.62538e-07)
(0.00137006 -2.91994e-05 3.42891e-07)
(0.00136528 -1.97772e-05 3.4179e-07)
(0.00136197 -1.28495e-05 3.41604e-07)
(0.00135871 -8.72184e-06 3.3883e-07)
(0.0013556 -5.52202e-06 3.39052e-07)
(0.00135289 -3.62509e-06 2.98592e-07)
(0.00135029 -2.21807e-06 3.37819e-07)
(0.00134736 -1.51604e-06 4.05123e-07)
(0.00134465 -5.86165e-07 3.59388e-07)
(0.00134226 -2.04448e-07 3.05877e-07)
(0.00133969 -1.54874e-07 3.77971e-07)
(0.00133704 -5.9616e-08 3.69596e-07)
(0.0013344 3.63921e-07 5.06093e-07)
(0.00133217 2.69906e-07 5.74016e-07)
(0.0013298 -1.68483e-08 3.22545e-07)
(0.00132703 -3.37018e-07 5.00717e-07)
(0.00132453 -3.39491e-07 2.99912e-07)
(0.00132226 -3.82765e-07 3.2996e-07)
(0.00131952 -9.94886e-07 2.92365e-07)
(0.00131634 -8.58021e-07 3.58826e-07)
(0.00131416 -5.49465e-07 7.90909e-08)
(0.0013122 -2.38448e-07 2.82533e-07)
(0.00131035 7.43552e-07 4.62842e-07)
(0.00130823 9.5382e-07 4.67456e-07)
(0.00130529 3.87403e-07 3.30977e-07)
(0.00130284 2.66205e-07 3.21086e-07)
(0.00130076 2.93018e-07 3.08435e-07)
(0.00129872 6.14779e-07 8.7666e-08)
(0.00129559 1.04813e-06 3.74848e-07)
(0.00129257 5.43176e-07 5.73217e-07)
(0.00129058 1.12914e-07 3.37452e-07)
(0.00128828 -2.33685e-07 3.66326e-07)
(0.0012858 -5.20821e-07 2.88712e-07)
(0.0012841 -8.74801e-07 3.57997e-07)
(0.00128205 -1.24367e-07 3.57362e-07)
(0.00127966 -4.87557e-08 3.44293e-07)
(0.00127725 5.89082e-07 3.70382e-07)
(0.00127457 1.06182e-07 3.13834e-07)
(0.00127227 -2.0519e-07 7.16283e-08)
(0.00127056 -3.04967e-07 4.03475e-07)
(0.00368362 -0.00253009 -0.000890623)
(0.0104904 0.00614857 0.00268311)
(-0.00645292 -0.000690664 0.0031581)
(-0.00308781 -0.000253441 0.00041919)
(-0.0197496 -0.0200713 0.000473558)
(0.00203046 -0.0112529 -0.00155669)
(0.000929549 0.000753948 -9.93682e-05)
(0.00140861 -0.000163501 -2.60509e-07)
(0.00148397 -5.13218e-05 -3.29324e-07)
(0.0013675 -4.33263e-05 3.40031e-07)
(0.00138464 -2.61078e-05 3.46993e-07)
(0.00137379 -1.69845e-05 3.44188e-07)
(0.00136857 -1.07518e-05 3.42545e-07)
(0.00136315 -6.88515e-06 3.41641e-07)
(0.0013586 -4.32212e-06 3.40244e-07)
(0.00135481 -2.70844e-06 3.40689e-07)
(0.00135147 -1.8394e-06 3.38716e-07)
(0.00134865 -1.27711e-06 2.33645e-07)
(0.00134539 -9.53544e-07 3.54968e-07)
(0.00134218 -4.89049e-07 3.2567e-07)
(0.00133985 -3.6588e-07 2.71719e-07)
(0.00133758 -1.52555e-07 3.35739e-07)
(0.0013349 3.18973e-08 3.80663e-07)
(0.00133175 2.18876e-07 3.02629e-07)
(0.00132909 4.63388e-08 3.44686e-07)
(0.00132681 4.36653e-08 3.08174e-07)
(0.00132438 -1.36397e-08 2.95189e-07)
(0.00132143 -2.44706e-08 3.23032e-07)
(0.00131903 -1.65552e-07 2.15975e-07)
(0.00131761 4.46658e-07 3.02298e-07)
(0.00131533 7.94844e-07 6.69964e-07)
(0.00131335 7.8283e-07 4.69046e-07)
(0.00131086 7.97649e-07 2.24125e-07)
(0.00130724 3.76557e-07 1.84247e-07)
(0.00130483 1.6638e-07 3.38026e-07)
(0.00130279 2.43287e-07 3.25973e-07)
(0.00130049 1.59564e-07 4.18958e-07)
(0.00129814 -3.64569e-08 3.49006e-07)
(0.00129566 -2.50157e-07 3.0972e-07)
(0.0012929 6.47032e-08 3.77934e-07)
(0.00129036 8.1955e-08 3.58066e-07)
(0.00128817 3.90875e-09 3.4747e-07)
(0.00128611 5.9399e-07 1.00901e-06)
(0.00128438 7.84833e-07 3.9101e-07)
(0.00128229 5.86731e-07 3.35951e-07)
(0.00127992 5.4202e-07 3.15068e-07)
(0.00127721 5.00664e-07 4.76109e-07)
(0.00127433 6.59421e-07 3.32053e-07)
(0.00127187 3.85128e-07 3.29681e-07)
(0.00127027 2.20914e-07 3.8403e-07)
(-0.00376637 0.00722556 0.000343707)
(-0.00233587 0.00641545 0.00229724)
(-0.0074213 -0.00297587 0.00227463)
(-0.0159632 0.00871149 -0.000463053)
(0.00700034 0.00657311 0.000726731)
(-0.00211468 -0.00201217 0.000528556)
(0.000737171 -0.00123399 -0.000148356)
(0.00152112 -0.000180632 2.92395e-06)
(0.00152678 -6.06374e-05 2.99648e-07)
(0.00140633 -2.75136e-05 6.69722e-07)
(0.00140319 -1.58353e-05 3.5425e-07)
(0.0013846 -8.55601e-06 3.47948e-07)
(0.00137468 -5.10992e-06 3.43769e-07)
(0.0013668 -2.92336e-06 3.42547e-07)
(0.00136086 -1.43789e-06 3.40352e-07)
(0.00135601 -7.43238e-07 3.38652e-07)
(0.0013521 -6.04036e-07 3.38376e-07)
(0.00134848 -4.31824e-07 3.38794e-07)
(0.00134564 -6.70126e-07 3.27496e-07)
(0.001343 -5.65446e-07 3.23145e-07)
(0.00134011 -3.32316e-07 2.90888e-07)
(0.00133754 -3.59786e-07 3.36759e-07)
(0.00133486 -4.53474e-07 1.25916e-07)
(0.00133219 -2.70699e-07 3.86905e-07)
(0.00132958 4.47786e-08 2.76183e-07)
(0.00132695 2.89274e-07 2.73621e-07)
(0.00132444 5.23606e-07 4.01417e-07)
(0.00132207 8.21223e-07 3.52564e-07)
(0.00132011 1.48659e-06 3.27243e-07)
(0.00131753 1.255e-06 3.07935e-07)
(0.00131458 8.6106e-07 3.81826e-07)
(0.00131219 1.04164e-06 2.48337e-07)
(0.00130984 2.53916e-08 4.1107e-07)
(0.00130744 -6.8361e-08 3.22094e-07)
(0.00130512 1.32278e-07 3.29867e-07)
(0.00130283 7.7397e-08 5.29681e-07)
(0.00130041 -2.80638e-08 3.08995e-07)
(0.00129821 -1.13315e-07 3.41896e-07)
(0.00129572 -4.40591e-07 2.04721e-07)
(0.00129299 -5.10117e-07 1.33391e-07)
(0.0012905 -3.04813e-08 3.34863e-07)
(0.00128892 2.88903e-07 6.34348e-07)
(0.00128677 5.26046e-07 6.59691e-07)
(0.00128408 6.82715e-07 8.49013e-08)
(0.00128174 1.74405e-07 1.90853e-07)
(0.00127954 1.01508e-07 3.18685e-07)
(0.00127739 2.43295e-08 3.73076e-07)
(0.00127443 4.26778e-07 3.11898e-07)
(0.00127172 2.78005e-07 3.49696e-07)
(0.0012698 4.21799e-07 5.35469e-07)
(0.0104606 -0.000209577 6.1464e-05)
(-0.01504 0.0209861 -0.00162423)
(-0.00716936 -0.00844006 0.00252279)
(-0.00508543 -0.0042993 -0.000402195)
(0.0112565 0.00500865 -0.000295674)
(0.00468049 -0.00177642 0.00317642)
(-0.000356421 -0.000410823 0.000181689)
(0.00157876 -0.000143111 1.69167e-05)
(0.00153091 1.18039e-06 7.25569e-07)
(0.00142381 8.49192e-06 4.35407e-07)
(0.0014085 6.90355e-06 3.74304e-07)
(0.0013873 5.11452e-06 6.81924e-07)
(0.00137567 3.74335e-06 3.04807e-07)
(0.00136777 2.35414e-06 3.42167e-07)
(0.00136134 1.14304e-06 3.61625e-07)
(0.00135586 6.39258e-07 3.38625e-07)
(0.00135187 5.41395e-07 3.38075e-07)
(0.00134857 3.46143e-07 3.37592e-07)
(0.00134523 3.64222e-07 3.44558e-07)
(0.00134261 3.10423e-07 2.94775e-07)
(0.00134011 -2.77524e-07 3.67217e-07)
(0.00133743 1.42337e-07 2.90749e-07)
(0.00133502 5.79999e-08 3.71305e-07)
(0.00133237 7.36535e-08 3.79879e-07)
(0.00132979 6.77481e-08 2.60321e-07)
(0.0013274 -2.15367e-07 3.64545e-07)
(0.00132504 2.69372e-07 3.8471e-07)
(0.00132263 5.19842e-07 3.33244e-07)
(0.00131956 8.38055e-07 4.96976e-07)
(0.00131681 8.56896e-07 3.09676e-07)
(0.00131505 5.05475e-07 3.56437e-07)
(0.0013123 2.70838e-08 3.47438e-07)
(0.00130947 2.63303e-07 3.66157e-07)
(0.00130737 1.79903e-07 3.23597e-07)
(0.00130501 2.64699e-07 3.49488e-07)
(0.00130259 2.79667e-08 3.23426e-07)
(0.00130025 -3.64833e-08 3.1486e-07)
(0.00129763 -1.40383e-07 3.25283e-07)
(0.00129517 -2.91457e-07 3.16897e-07)
(0.00129342 -2.96977e-07 1.89152e-07)
(0.00129136 1.01343e-07 3.1241e-07)
(0.00128886 6.29793e-07 5.94148e-07)
(0.0012866 3.39526e-08 2.02475e-07)
(0.00128393 1.10454e-07 5.30208e-08)
(0.00128156 -3.26623e-07 3.16664e-07)
(0.00127973 -4.14552e-07 3.18704e-07)
(0.00127761 -9.22995e-07 1.08043e-07)
(0.00127465 -1.34767e-06 2.7402e-07)
(0.00127186 -5.3176e-07 3.54954e-07)
(0.0012694 7.45747e-08 3.40237e-07)
(-0.0192961 -0.00601994 -0.00134759)
(0.0270856 0.0012498 -0.00845517)
(0.00976604 -0.00621235 -0.000177886)
(-0.00342618 -0.00652809 0.000247262)
(-0.00261799 -0.00882435 0.00031198)
(-0.00818302 -0.00132072 -0.00471672)
(-0.000643326 0.000977231 2.11582e-05)
(0.00157796 -3.83998e-05 4.94402e-05)
(0.00152113 8.40194e-05 6.92584e-07)
(0.00141331 5.12357e-05 2.96856e-07)
(0.001399 3.19529e-05 3.087e-07)
(0.00138066 1.9582e-05 3.19542e-07)
(0.00137123 1.22919e-05 4.11857e-07)
(0.00136355 7.46312e-06 3.4088e-07)
(0.00135871 4.22679e-06 3.71571e-07)
(0.00135526 2.5104e-06 3.62616e-07)
(0.00135173 1.65079e-06 3.38132e-07)
(0.00134826 1.01665e-06 3.75049e-07)
(0.00134559 7.43786e-07 2.96559e-07)
(0.0013422 9.48744e-07 3.44352e-07)
(0.0013399 1.19073e-06 3.75613e-07)