/*--------------------------------*- C++ -*----------------------------------*\
| =========                 |                                                 |
| \\      /  F ield         | OpenFOAM: The Open Source CFD Toolbox           |
|  \\    /   O peration     | Version:  5.0                                   |
|   \\  /    A nd           | Web:      www.OpenFOAM.org                      |
|    \\/     M anipulation  |                                                 |
\*---------------------------------------------------------------------------*/
FoamFile
{
    version     2.0;
    format      ascii;
    class       volVectorField;
    location    "3";
    object      U_0;
}
// * * * * * * * * * * * * * * * * * * * * * * * * * * * * * * * * * * * * * //

dimensions      [0 1 -1 0 0 0 0];

internalField   nonuniform List<vector> 
9011
(
(0.00161526 -0.0100836 -0.000193122)
(-0.00442013 -0.00551552 0.00179492)
(-0.00864241 0.007883 -0.00632611)
(0.00665896 -0.00625262 -0.000113224)
(0.00802285 0.0134304 0.000535349)
(0.00758332 0.00150931 -0.000513536)
(0.00041867 2.88455e-06 1.6204e-05)
(0.000841994 -4.11069e-05 -2.32787e-06)
(0.000819404 -2.41221e-05 4.9001e-08)
(0.000819032 -1.44209e-05 7.42301e-08)
(0.000819101 -8.56926e-06 1.23984e-07)
(0.000818938 -5.2492e-06 6.60234e-08)
(0.000818787 -3.16945e-06 5.74723e-08)
(0.000818148 -1.92938e-06 8.51055e-08)
(0.000817179 -1.1846e-06 4.9132e-08)
(0.000816047 -7.23973e-07 1.79235e-07)
(0.00081474 -5.44336e-07 5.52972e-08)
(0.000813347 -4.26472e-07 6.85489e-08)
(0.000811826 -2.40605e-07 5.84259e-08)
(0.000810249 -1.9752e-07 2.13769e-07)
(0.000808836 -1.45284e-07 6.64949e-08)
(0.000807268 -9.10604e-08 3.42003e-08)
(0.000805634 -1.72793e-07 4.77982e-08)
(0.000804132 -9.93698e-08 4.73126e-08)
(0.000802656 9.30288e-09 5.97577e-08)
(0.000801223 8.91104e-08 3.92594e-08)
(0.000799692 5.4992e-08 4.93545e-08)
(0.000798372 -2.93496e-08 4.8909e-08)
(0.000796436 2.30843e-08 1.29466e-07)
(0.000794552 -2.65764e-07 1.6516e-07)
(0.000793291 -6.74323e-07 -5.89993e-08)
(0.000791548 -5.65932e-07 -1.79532e-08)
(0.000790068 -3.92722e-07 1.00719e-10)
(0.000789046 -1.80116e-07 4.03122e-08)
(0.000787676 6.05352e-08 4.51831e-08)
(0.000785987 7.68241e-08 5.93956e-08)
(0.000784247 1.06544e-07 4.21697e-08)
(0.00078261 1.43042e-07 4.06528e-08)
(0.000781175 3.76619e-07 -3.11727e-08)
(0.000780044 4.50617e-07 1.61445e-07)
(0.000778848 1.44544e-07 3.2213e-08)
(0.000777472 2.32382e-07 7.14127e-08)
(0.000775913 -3.11381e-07 7.35373e-08)
(0.000774002 -2.77671e-07 2.66159e-07)
(0.000772662 -2.09977e-07 5.40463e-08)
(0.000771327 -2.25457e-07 5.00487e-08)
(0.000769937 -2.86241e-07 6.407e-08)
(0.000768701 -5.04306e-07 1.17477e-07)
(0.00076697 -2.99463e-07 -2.3814e-08)
(0.000765171 -2.20856e-07 8.36675e-08)
(0.00572898 0.00241989 -0.000548936)
(0.00671091 -0.000169562 0.00042719)
(-0.00685912 -0.00043832 -4.57907e-05)
(0.00115753 -0.0031077 -0.000225328)
(0.0138691 -0.00139474 0.000238617)
(-0.00851139 0.00103978 -0.000184602)
(0.000482994 -5.98695e-05 3.6981e-05)
(0.000865893 -4.56301e-05 -2.04273e-06)
(0.000835926 -3.74387e-06 -1.48475e-07)
(0.000828628 -1.32206e-05 5.88709e-08)
(0.000825418 -8.29525e-06 4.75689e-08)
(0.000822836 -6.04039e-06 4.9297e-08)
(0.000821237 -4.01605e-06 5.4809e-08)
(0.00081971 -2.66354e-06 5.25756e-08)
(0.000818283 -1.7262e-06 5.30274e-08)
(0.00081666 -1.11793e-06 6.28007e-08)
(0.000814957 -6.74976e-07 5.26876e-08)
(0.000813598 -3.64712e-07 7.3713e-08)
(0.000812123 -9.38957e-08 5.33852e-08)
(0.000810441 -6.5809e-08 2.59e-08)
(0.000808749 6.42624e-08 8.46982e-08)
(0.000807043 1.49074e-08 6.55603e-08)
(0.000805605 2.29366e-07 2.69496e-07)
(0.000804332 2.15623e-07 3.52305e-08)
(0.000802823 3.68834e-08 -2.33281e-08)
(0.000801098 -8.9463e-08 7.06935e-08)
(0.000799507 -2.06716e-07 4.28987e-08)
(0.000797999 -3.08412e-07 4.69009e-08)
(0.000796281 -8.53676e-07 7.1198e-08)
(0.000794379 -5.077e-07 -2.77451e-08)
(0.000793073 -4.93954e-07 1.41254e-07)
(0.000792023 -2.93762e-07 5.41775e-08)
(0.000790654 2.76286e-07 1.69693e-07)
(0.000789317 4.9497e-07 2.85618e-07)
(0.000787553 9.40865e-08 5.26055e-08)
(0.000785796 6.92468e-08 3.39275e-08)
(0.000784506 6.79422e-08 4.60868e-08)
(0.000783088 2.00601e-07 5.45228e-08)
(0.000781473 3.60595e-07 3.00963e-08)
(0.00077977 5.48288e-07 1.21997e-08)
(0.000778294 1.55962e-07 5.49209e-08)
(0.00077664 -1.30677e-07 5.53499e-08)
(0.000775375 -5.90861e-07 4.05197e-08)
(0.00077448 -4.42788e-07 6.9686e-08)
(0.000772887 -1.10535e-07 5.61187e-08)
(0.000771355 -1.19011e-07 5.56769e-08)
(0.000769973 6.31636e-08 9.18093e-08)
(0.000768558 -1.37076e-07 4.6925e-08)
(0.000766941 -3.74612e-07 8.50298e-08)
(0.000765916 -2.42049e-07 2.76737e-08)
(0.00582774 0.00190053 -9.35968e-05)
(0.00191321 -0.0041797 0.000699481)
(0.0018116 0.00272077 0.000728454)
(0.00428539 -0.000373684 -0.000759862)
(0.010137 0.0147174 0.000459753)
(0.000129246 0.0143826 -0.000213484)
(0.00120846 0.000191049 -1.77631e-05)
(0.00046893 -2.58482e-05 -5.90964e-07)
(0.000881343 -9.09939e-06 -1.63866e-06)
(0.000813538 -1.38875e-05 -4.25602e-07)
(0.000828158 -8.66806e-06 1.98637e-07)
(0.000824342 -6.10983e-06 5.14145e-08)
(0.000823047 -4.03573e-06 6.50595e-08)
(0.000821036 -2.66959e-06 5.69867e-08)
(0.000819129 -1.7584e-06 5.61135e-08)
(0.000817372 -1.21105e-06 5.97615e-08)
(0.00081569 -7.39878e-07 5.66885e-08)
(0.000814077 -3.45146e-07 1.1392e-07)
(0.000812203 -4.80191e-07 -5.14208e-08)
(0.000810447 -2.87998e-07 4.28476e-08)
(0.000808937 -2.55076e-07 3.93603e-08)
(0.000807473 8.19939e-09 5.0029e-08)
(0.000805883 1.70461e-07 5.78646e-08)
(0.000803889 1.92027e-07 -6.74075e-08)
(0.000802273 1.01011e-07 4.66991e-08)
(0.000800918 3.30218e-08 3.45031e-08)
(0.000799419 -3.70081e-08 6.26556e-08)
(0.000797567 -6.63728e-08 6.45405e-08)
(0.000796191 -7.78239e-08 -3.90278e-08)
(0.000795008 4.04239e-07 -5.9161e-08)
(0.000793562 7.22291e-07 7.64558e-08)
(0.00079251 7.13165e-07 7.04438e-08)
(0.000791051 4.23029e-07 2.97585e-07)
(0.000788814 2.6933e-07 1.26858e-07)
(0.000787141 -2.19618e-08 5.65303e-08)
(0.000785953 1.11567e-07 5.22598e-08)
(0.000784409 9.55069e-08 5.81763e-08)
(0.000782973 2.11836e-08 4.58015e-08)
(0.000781606 5.01484e-08 4.31692e-08)
(0.000779785 -4.09854e-08 3.80772e-08)
(0.000777998 1.40146e-07 6.38393e-08)
(0.000776541 1.34175e-07 5.72906e-08)
(0.000775527 6.40153e-07 -6.39069e-08)
(0.000774606 3.02531e-07 9.68149e-08)
(0.000773071 2.46448e-07 2.90906e-08)
(0.000771545 2.42071e-07 1.23118e-07)
(0.000769915 3.45848e-07 6.48695e-08)
(0.000768155 1.62768e-07 5.16767e-08)
(0.000766845 8.21554e-08 5.57043e-08)
(0.000765939 7.98037e-08 8.29223e-08)
(0.00277988 0.00737943 0.000100732)
(0.0122039 0.00564133 0.00356325)
(0.00287691 0.00380656 0.000740261)
(-0.0094101 -0.00674785 0.000611638)
(0.00748786 -0.0107504 0.000695635)
(-0.000715243 -0.00345545 -6.37553e-05)
(0.000110669 -0.000394448 -1.75546e-05)
(0.00050081 -4.48456e-05 7.27031e-08)
(0.000890539 -2.91437e-05 -1.78059e-06)
(0.000829214 -1.35973e-05 -3.50064e-07)
(0.000835238 -8.57042e-06 1.41233e-07)
(0.000828691 -4.9703e-06 3.374e-08)
(0.000825581 -3.17638e-06 5.91059e-08)
(0.000822585 -1.90637e-06 5.39186e-08)
(0.000820125 -1.15813e-06 5.33484e-08)
(0.000817946 -6.82933e-07 5.39537e-08)
(0.000816047 -4.71019e-07 5.29672e-08)
(0.000813929 -3.94225e-07 -9.23996e-09)
(0.000812199 -4.80455e-07 5.90878e-08)
(0.000810726 -4.4948e-07 4.15308e-08)
(0.000809121 -2.44044e-07 7.76673e-08)
(0.000807576 -1.70753e-07 5.14411e-08)
(0.000805834 -2.66527e-07 4.65152e-08)
(0.000804244 -1.39541e-07 5.8182e-08)
(0.000802623 9.25816e-08 2.75586e-08)
(0.000800925 2.29597e-07 2.83344e-08)
(0.000799382 2.91891e-07 6.08183e-08)
(0.000797948 3.63669e-07 8.92314e-08)
(0.000796868 8.58526e-07 2.59507e-08)
(0.000795375 5.74303e-07 3.26906e-08)
(0.000793454 7.12861e-07 2.09347e-08)
(0.000791643 6.94157e-07 -1.57756e-08)
(0.000790095 1.3105e-07 7.15024e-08)
(0.000788759 -8.6693e-08 4.8213e-08)
(0.000787355 1.27196e-07 4.35613e-08)
(0.000785942 4.66364e-08 4.01726e-08)
(0.000784392 1.97705e-09 4.72245e-08)
(0.000783031 1.21634e-08 4.72815e-08)
(0.000781395 -2.62786e-07 1.59942e-08)
(0.000779882 -2.63447e-07 1.99949e-08)
(0.000778512 4.02847e-08 5.51162e-08)
(0.000777263 2.56615e-07 7.90025e-08)
(0.000775582 5.5616e-07 1.33129e-07)
(0.000773984 4.68313e-07 8.06504e-09)
(0.000772808 9.74442e-08 2.92989e-08)
(0.000771475 3.55894e-08 3.92168e-08)
(0.00076987 -5.81587e-08 8.48001e-08)
(0.000768226 8.46602e-08 3.79742e-08)
(0.000766834 2.94236e-07 4.24133e-08)
(0.000765714 2.31446e-07 4.77895e-08)
(0.0145362 -0.00550474 -0.000242491)
(-0.021433 -0.00616023 -0.000695998)
(0.00187728 -0.00551258 0.00036199)
(0.00780475 -0.00161858 0.000279043)
(0.0210271 0.00870008 -0.000608478)
(-0.000249096 -0.00708487 0.00015833)
(0.000591275 4.31926e-05 6.08663e-06)
(0.000409724 -2.8672e-05 1.07233e-05)
(0.000887732 -1.59711e-05 -1.88828e-06)
(0.00083944 -6.04584e-06 -2.6694e-07)
(0.00083904 -3.02089e-06 1.37785e-07)
(0.000831146 -1.45221e-06 3.11852e-08)
(0.000826913 -5.37103e-07 2.52389e-07)
(0.000823582 -2.61226e-07 5.47396e-08)
(0.000820671 -1.27488e-07 2.54561e-08)
(0.000818239 -5.23641e-08 4.37113e-08)
(0.000816055 -1.01934e-08 4.80523e-08)
(0.000814069 -3.6564e-08 5.15809e-08)
(0.000812137 1.92444e-07 1.83976e-07)
(0.000810746 3.37291e-07 7.66464e-08)
(0.000809288 1.88781e-07 6.55474e-08)
(0.000807447 1.02713e-07 6.03005e-08)
(0.000805924 5.73808e-08 2.96802e-07)
(0.00080434 9.63046e-08 1.00262e-07)
(0.000802734 1.30331e-07 1.64947e-07)
(0.000801166 5.32117e-08 6.12019e-08)
(0.000799584 1.81308e-07 6.86002e-08)
(0.000798269 2.23343e-07 2.89548e-08)
(0.000796448 2.51291e-07 -6.92113e-09)
(0.000794818 9.29396e-08 6.4193e-08)
(0.000793704 5.884e-09 5.09404e-08)
(0.000791778 -2.83795e-07 5.21141e-08)
(0.000790072 8.01546e-08 5.96172e-07)
(0.000788809 5.50925e-08 5.39127e-08)
(0.000787307 1.36919e-07 5.83159e-08)
(0.000785796 1.42919e-09 4.90013e-08)
(0.000784366 -2.08191e-08 3.33937e-08)
(0.000782643 -1.15685e-07 4.28165e-08)
(0.000781264 -1.13353e-07 9.32903e-08)
(0.000780166 5.4823e-08 8.86854e-08)
(0.000778648 6.94141e-08 3.4618e-08)
(0.000777183 1.58685e-07 4.14942e-07)
(0.000775787 -4.30764e-08 2.74793e-08)
(0.000774029 1.02781e-07 -3.5819e-08)
(0.000772527 -8.94213e-08 3.8478e-08)
(0.00077135 -1.91847e-07 4.64732e-08)
(0.000769976 -4.55117e-07 -4.35915e-08)
(0.000768595 -3.50539e-07 -2.45404e-07)
(0.000767022 -2.04824e-07 5.20339e-09)
(0.000765285 1.09738e-07 9.31211e-08)
(-0.00695122 0.000123181 0.000363583)
(-0.00360438 0.00255864 0.000437891)
(0.00665885 0.0100807 0.00215437)
(0.029583 0.00697647 0.000415503)
(-0.0098779 0.0122944 -0.000108741)
(0.000158502 0.00363384 -0.000340866)
(0.0007857 -4.45218e-05 4.35675e-06)
(0.000488514 -2.67811e-05 1.3932e-05)
(0.000902458 1.04275e-05 -2.20047e-06)
(0.00084538 7.82337e-06 -2.60124e-07)
(0.000841025 5.87301e-06 1.10827e-07)
(0.000831819 3.92344e-06 1.4138e-07)
(0.000827082 2.759e-06 8.14377e-08)
(0.000823104 1.74994e-06 4.66136e-08)
(0.00082039 1.11227e-06 1.7282e-07)
(0.000818095 6.93776e-07 1.10329e-07)
(0.000816069 4.36565e-07 5.1731e-08)
(0.000814182 3.34536e-07 6.14512e-08)
(0.000812665 3.32376e-07 7.62207e-08)
(0.00081072 4.51824e-07 2.61198e-08)
(0.000808827 2.26304e-07 7.76162e-08)
(0.000807411 2.0888e-07 8.41602e-08)
(0.000805826 1.87325e-07 8.27915e-08)
(0.000804335 9.43763e-08 -3.79095e-09)
(0.000802569 4.4438e-08 7.5346e-08)
(0.000800988 7.84584e-08 6.15753e-08)
(0.000799594 -4.15102e-09 4.01135e-08)
(0.000798033 -1.00926e-07 1.71219e-08)
(0.000796702 -1.19794e-07 5.80795e-08)
(0.000795066 -1.7798e-07 2.82363e-08)
(0.000792982 -4.07508e-07 -3.94367e-09)
(0.000791735 -3.75214e-07 -2.844e-08)
(0.000790518 -2.13519e-07 1.65578e-08)
(0.000788828 -1.34751e-07 5.25162e-08)
(0.000787287 -1.27403e-07 3.72314e-08)
(0.000785745 -3.79531e-08 4.03917e-08)
(0.000784247 -2.63869e-09 -1.41671e-09)
(0.000782917 4.63114e-08 6.13231e-08)
(0.00078161 2.60324e-07 1.16936e-07)
(0.000780111 2.2546e-07 6.52245e-08)
(0.000778641 1.65417e-07 8.44413e-08)
(0.000777121 3.06919e-07 2.62213e-07)
(0.000775512 1.89067e-08 2.23735e-08)
(0.000773927 -1.43283e-07 1.87784e-08)
(0.000772441 -1.57631e-08 4.38659e-08)
(0.000771022 -1.80571e-07 4.64323e-08)
(0.000769676 -4.69958e-07 -3.44337e-07)
(0.000768543 -5.39757e-07 5.77868e-08)
(0.00076741 -4.93655e-07 9.63451e-08)
(0.000765832 -1.88485e-07 1.85331e-07)
(-0.00984409 0.00144812 0.000541457)
(-0.00662074 0.00610457 -0.000470894)
(0.016809 -0.00641327 -0.00101254)
(-0.00640243 -0.016325 0.0021089)
(0.0118757 0.00825456 0.000473485)
(-0.00754996 -0.0030398 0.000266973)
(0.000473297 -0.000796356 6.79994e-05)
(0.000351339 1.27718e-05 3.7001e-06)
(0.000892914 4.72492e-05 -2.28017e-06)
(0.000833398 2.59485e-05 -4.07777e-07)
(0.000834116 1.54325e-05 9.72796e-08)
(0.00082722 9.21405e-06 -1.93349e-08)
(0.000824174 5.40671e-06 4.47113e-08)
(0.000821508 3.30683e-06 4.70386e-08)
(0.000819342 2.03959e-06 5.10226e-08)
(0.000817389 1.23269e-06 5.11171e-08)
(0.000815603 7.04469e-07 5.26925e-08)
(0.000813937 4.08305e-07 5.27301e-08)
(0.000812281 1.53039e-07 -9.42428e-09)
(0.00081061 -1.49969e-07 4.79282e-08)
(0.000808982 4.46066e-08 5.37313e-08)
(0.000807396 2.93541e-08 4.78973e-08)
(0.000805779 8.45105e-08 2.85314e-08)
(0.00080416 -1.00037e-08 4.41536e-08)
(0.000802714 -1.13339e-08 2.78779e-09)
(0.000801105 1.65867e-07 1.82972e-07)
(0.00079936 -2.65512e-08 5.37977e-08)
(0.000798125 -6.32287e-08 7.07725e-08)
(0.000796353 -3.95571e-07 3.07961e-08)
(0.00079446 -5.86372e-07 5.52461e-08)
(0.000793461 -3.03783e-07 1.68631e-07)
(0.000792025 -1.73696e-08 8.95245e-08)
(0.000790376 -1.00749e-07 4.42347e-08)
(0.000788919 -9.71552e-08 5.06059e-08)
(0.00078743 -1.04235e-07 3.98436e-08)
(0.000785953 1.97342e-08 4.9169e-08)
(0.000784472 3.33628e-08 5.17181e-08)
(0.000782971 1.03956e-07 4.72512e-08)
(0.000781486 1.05915e-07 4.76426e-08)
(0.000780045 1.28346e-07 4.67553e-08)
(0.000778748 -4.49903e-08 3.99953e-08)
(0.000776999 -2.97172e-07 -2.34916e-08)
(0.000775224 -1.73651e-07 5.92457e-08)
(0.000773986 -1.69009e-07 5.62051e-08)
(0.000772482 -1.1467e-07 2.57327e-09)
(0.000770784 -2.27211e-08 4.75169e-08)
(0.000769531 -3.57596e-08 -1.6676e-07)
(0.00076857 -3.19992e-07 6.36646e-08)
(0.00076747 -2.35494e-07 2.38293e-08)
(0.000766136 -3.12629e-07 5.46269e-08)
(0.00151046 0.0016456 -0.000189082)
(-0.000449764 -0.00582415 0.000758657)
(-0.00350089 -0.00793898 -0.00039876)
(-0.00500289 0.0124164 0.000335795)
(0.00146088 -0.0137115 0.00411098)
(-0.0115714 0.00558755 -5.59397e-05)
(0.00081255 0.00074776 0.000100699)
(0.000445567 8.19158e-05 -2.24448e-07)
(0.000852562 5.34429e-05 -1.54057e-06)
(0.000805103 2.96051e-05 -5.1982e-07)
(0.000819951 1.64609e-05 1.3029e-07)
(0.000819194 9.57321e-06 2.27033e-08)
(0.000819642 5.63052e-06 5.0729e-08)
(0.000818861 3.36988e-06 4.81236e-08)
(0.000817777 2.03239e-06 4.93963e-08)
(0.000816413 1.21639e-06 5.21977e-08)
(0.00081503 8.11841e-07 1.27129e-07)
(0.000813488 5.37266e-07 2.17584e-07)
(0.000811965 3.96797e-07 1.57155e-07)
(0.000810583 2.10838e-07 3.98517e-08)
(0.000809051 8.06383e-08 5.17493e-08)
(0.00080746 1.95087e-09 5.65656e-08)
(0.000805776 -1.40613e-07 6.19488e-08)
(0.000804215 -7.87696e-08 5.05548e-08)
(0.000802788 -1.80121e-07 5.89475e-08)
(0.000800969 -2.98063e-07 4.41351e-08)
(0.000799308 -5.08084e-08 -3.36945e-09)
(0.000797575 2.2516e-09 1.6656e-07)
(0.000796053 -2.17033e-07 3.53145e-08)
(0.000795187 2.07524e-07 4.95833e-08)
(0.000793697 3.17702e-07 5.81818e-08)
(0.000791992 1.23741e-07 4.05202e-08)
(0.00079042 2.35624e-07 6.22665e-08)
(0.000788825 6.19731e-08 4.81695e-08)
(0.000787434 2.69644e-08 3.73259e-08)
(0.000785917 -4.22722e-08 7.48175e-08)
(0.000784352 2.5743e-09 4.41924e-08)
(0.000783008 -6.40121e-08 5.71954e-08)
(0.000781639 6.64533e-08 4.00013e-08)
(0.000779922 -2.55586e-08 8.67517e-08)
(0.00077811 -1.43787e-07 5.06764e-08)
(0.000776962 -1.81146e-07 5.90871e-08)
(0.000775674 -1.3866e-07 -4.10448e-08)
(0.000774002 -1.25462e-07 4.73085e-08)
(0.000772625 -5.04384e-08 5.58628e-08)
(0.000771121 1.27833e-07 4.48644e-08)
(0.000769305 4.59364e-07 5.58257e-08)
(0.000768295 6.06966e-07 7.08339e-08)
(0.000767428 2.34477e-07 -1.24692e-08)
(0.000766517 -3.06568e-08 -4.22685e-08)
(0.00272644 -0.00128465 0.000127708)
(-0.00858333 -0.0120023 0.000613639)
(0.00189126 0.00533638 0.00115976)
(0.00472997 0.003916 0.000749578)
(0.0139064 0.0107853 -0.00176674)
(0.0134506 -0.0130384 0.000414406)
(0.000581562 -0.000114809 -2.9651e-05)
(0.000377326 4.57927e-05 4.02282e-07)
(0.0008111 1.64953e-06 -1.07484e-06)
(0.000787041 8.40767e-06 -2.61777e-07)
(0.000808896 4.8259e-06 1.72625e-07)
(0.000813579 3.59725e-06 5.60082e-08)
(0.000816359 2.3356e-06 5.65789e-08)
(0.000816974 1.55338e-06 5.38223e-08)
(0.000816628 1.0309e-06 5.45854e-08)
(0.00081585 7.54702e-07 1.15877e-07)
(0.000814745 5.89939e-07 7.43295e-08)
(0.000813412 3.99878e-07 2.54856e-07)
(0.000811869 3.75313e-07 5.50049e-09)
(0.000810213 2.98196e-07 7.43084e-08)
(0.00080872 1.66972e-07 5.06187e-08)
(0.00080712 -4.92063e-08 5.08704e-08)
(0.000805679 -1.3956e-07 2.36115e-09)
(0.000804112 -1.78958e-07 5.28859e-08)
(0.000802442 -2.29311e-07 3.01574e-08)
(0.000801269 -3.41211e-07 6.21388e-08)
(0.000799737 -1.72741e-07 1.02575e-08)
(0.00079792 -6.43915e-08 4.86577e-08)
(0.000796611 1.99019e-07 1.02843e-07)
(0.000795129 3.54957e-07 6.41081e-08)
(0.000793355 2.49931e-07 1.13648e-07)
(0.00079192 1.53932e-07 5.52747e-08)
(0.000790297 -9.71161e-09 -3.50947e-07)
(0.000788657 -4.71509e-08 -1.79652e-08)
(0.0007873 -7.12583e-08 2.58086e-08)
(0.000785923 -2.09554e-07 1.58623e-08)
(0.000784446 -2.14595e-07 6.23723e-08)
(0.000783051 -1.52497e-07 4.57239e-08)
(0.000781535 -4.1933e-07 8.51422e-08)
(0.000779783 -5.92801e-07 4.00552e-08)
(0.000778554 -3.09114e-07 4.32063e-08)
(0.000777007 -2.2807e-07 4.92718e-09)
(0.000775295 -1.12044e-07 6.93913e-08)
(0.000774098 4.13686e-08 4.43317e-08)
(0.000772799 1.67621e-07 4.48534e-08)
(0.00077142 1.97955e-07 6.87621e-09)
(0.000770127 4.31269e-07 2.46479e-08)
(0.000768286 1.01207e-06 2.74337e-08)
(0.000766672 6.57625e-07 -1.00268e-07)
(0.000765878 3.43944e-07 8.90527e-08)
(-0.0190639 -0.00438166 0.000755028)
(-0.00487682 -4.28975e-05 -0.00703515)
(0.00712644 -0.0134564 -0.000520032)
(-0.000249844 -0.00100534 0.000373227)
(-0.00263879 -0.00532649 0.000297973)
(0.00872599 0.00109651 -0.00125789)
(0.000335712 2.29406e-05 3.00379e-05)
(0.000816441 -2.86623e-05 -2.09857e-06)
(0.000801732 -3.10497e-05 -2.82921e-07)
(0.000809057 -1.0614e-05 1.65777e-08)
(0.000813875 -5.4681e-06 7.07833e-08)
(0.000816039 -2.4859e-06 6.1749e-08)
(0.000817059 -1.19706e-06 5.94358e-08)
(0.000817212 -5.49899e-07 -2.35891e-07)
(0.000816766 -2.60334e-07 5.75858e-08)
(0.000815854 -1.093e-07 6.975e-08)
(0.000814581 -1.0241e-07 4.76106e-08)
(0.000813216 -1.12864e-07 6.68526e-08)
(0.000811835 -1.54823e-07 8.29816e-08)
(0.00081032 -1.47373e-07 7.69283e-08)
(0.000808615 -1.27161e-07 2.23893e-08)
(0.000807077 -5.49844e-08 9.46315e-08)
(0.000805616 -9.54954e-09 4.78631e-08)
(0.000804106 -9.16889e-08 4.87879e-08)
(0.000802589 6.21821e-09 6.2963e-08)
(0.000801042 7.94712e-08 6.02908e-08)
(0.000799656 -3.02157e-08 1.86569e-07)
(0.00079804 4.34181e-08 4.77542e-08)
(0.000796576 3.31978e-07 1.88409e-08)
(0.000795247 -9.61477e-08 4.36743e-08)
(0.000793443 -1.29101e-07 7.75627e-08)
(0.000791666 -1.48921e-07 4.44255e-08)
(0.000790169 -4.2944e-07 1.00135e-08)
(0.000788749 -3.355e-07 2.26259e-08)
(0.000787233 -1.20843e-07 1.00463e-07)
(0.00078574 -3.56578e-08 6.12382e-08)
(0.000784425 -6.98548e-08 -7.65128e-09)
(0.000782754 -1.95064e-07 4.65747e-08)
(0.000781092 -4.24586e-07 5.50314e-09)
(0.000780064 -4.84743e-07 6.12509e-08)
(0.000778569 -2.17876e-07 6.30274e-08)
(0.00077721 -2.51712e-07 1.01031e-07)
(0.000776012 1.54454e-07 4.47319e-08)
(0.000774351 2.43221e-07 6.65127e-08)
(0.00077282 7.92926e-08 -3.76911e-08)
(0.000771448 1.3616e-07 2.67008e-08)
(0.000770318 5.58947e-09 1.69038e-08)
(0.000768572 -1.47923e-08 1.61623e-08)
(0.000766579 3.39553e-07 -1.01575e-08)
(0.000765268 2.29745e-07 7.15109e-08)
(0.00174168 -0.0110323 0.00132724)
(-0.00618859 0.00399331 0.00529522)
(0.0407613 0.0428591 0.0496517)
(0.0172646 -0.0038049 0.000223465)
(0.00180617 -0.000910194 0.000287147)
(0.0123864 -0.00300182 0.0013134)
(0.00128534 8.68591e-05 -1.07511e-05)
(0.0014033 -6.36997e-05 3.23852e-07)
(0.0013652 -3.77234e-05 3.42724e-07)
(0.00136499 -2.27007e-05 3.43396e-07)
(0.00136527 -1.35065e-05 3.73555e-07)
(0.00136517 -8.3194e-06 3.23212e-07)
(0.00136515 -5.03935e-06 7.2459e-07)
(0.00136415 -3.00088e-06 3.77409e-07)
(0.00136254 -1.86304e-06 3.37162e-07)
(0.00136068 -1.14294e-06 4.57161e-07)
(0.00135852 -8.47742e-07 3.43759e-07)
(0.00135625 -6.13247e-07 2.88953e-07)
(0.00135368 -3.87769e-07 2.52628e-07)
(0.00135109 -3.53783e-07 5.00889e-07)
(0.00134879 -2.07921e-07 4.35755e-07)
(0.00134614 -6.21341e-08 1.5408e-07)
(0.00134343 -1.6868e-07 3.24955e-07)
(0.00134099 -1.01835e-07 2.93257e-07)
(0.00133854 1.10369e-07 3.53233e-07)
(0.00133612 2.58466e-07 3.26283e-07)
(0.00133357 1.51506e-07 2.91905e-07)
(0.00133142 -2.65761e-08 3.37085e-07)
(0.0013282 4.90163e-08 4.17366e-07)
(0.00132504 -5.08361e-07 4.70239e-07)
(0.0013229 -1.15927e-06 2.52363e-07)
(0.00131998 -9.71647e-07 8.1049e-08)
(0.00131759 -6.46895e-07 3.03063e-07)
(0.00131596 -2.47518e-07 3.90626e-07)
(0.00131366 1.45371e-07 3.21974e-07)
(0.00131083 1.83927e-07 3.27879e-07)
(0.00130789 2.30943e-07 3.14401e-07)
(0.00130509 3.02046e-07 2.93357e-07)
(0.00130283 7.19662e-07 1.29461e-07)
(0.001301 7.43355e-07 4.55016e-07)
(0.00129888 2.424e-07 2.90092e-07)
(0.00129656 3.57534e-07 3.56947e-07)
(0.00129409 -4.78544e-07 3.75532e-07)
(0.00129088 -4.45045e-07 7.42247e-07)
(0.00128859 -3.58609e-07 3.5385e-07)
(0.00128637 -3.9778e-07 3.17757e-07)
(0.00128402 -4.18386e-07 3.05312e-07)
(0.00128202 -7.69524e-07 6.27778e-07)
(0.00127911 -5.03346e-07 2.15548e-07)
(0.0012761 -3.92336e-07 3.71722e-07)
(-0.00213641 0.00275144 -0.00124478)
(0.00137982 -0.000309583 0.000659836)
(-0.00270467 -0.0142015 -8.60818e-05)
(0.000908638 -0.0135671 -0.000328391)
(0.00592659 -0.00367084 -0.000823241)
(-0.000896429 -0.000553133 -0.00216048)
(0.000969092 7.08832e-05 6.36731e-05)
(0.00143972 -7.38492e-05 3.71388e-07)
(0.00139091 -5.36862e-06 3.90228e-07)
(0.00137991 -2.13691e-05 5.43173e-07)
(0.00137527 -1.34684e-05 3.45807e-07)
(0.0013714 -9.82517e-06 3.43655e-07)
(0.001369 -6.54501e-06 3.44791e-07)
(0.0013666 -4.39979e-06 3.41649e-07)
(0.00136429 -2.85537e-06 3.42502e-07)
(0.00136169 -1.8878e-06 4.9192e-07)
(0.00135897 -1.14379e-06 3.43183e-07)
(0.00135665 -6.76766e-07 4.05298e-07)
(0.00135414 -2.05882e-07 3.6982e-07)
(0.00135142 -1.12159e-07 3.09153e-07)
(0.00134867 1.04147e-07 3.84085e-07)
(0.00134587 2.95154e-08 3.7456e-07)
(0.0013434 4.36541e-07 5.73495e-07)
(0.00134128 4.10066e-07 2.99248e-07)
(0.00133883 1.25624e-07 9.46975e-08)
(0.00133589 -1.01667e-07 3.41249e-07)
(0.00133322 -2.85491e-07 3.09865e-07)
(0.00133074 -4.93695e-07 3.32979e-07)
(0.00132787 -1.43716e-06 4.14754e-07)
(0.00132475 -8.70426e-07 2.2838e-07)
(0.00132265 -7.95428e-07 3.71768e-07)
(0.00132085 -4.59651e-07 3.10216e-07)
(0.00131858 6.05207e-07 5.66445e-07)
(0.00131636 8.95834e-07 9.46041e-07)
(0.00131344 2.14101e-07 3.43671e-07)
(0.00131052 1.43472e-07 3.16151e-07)
(0.00130833 1.47338e-07 3.30443e-07)
(0.00130602 3.93701e-07 3.74826e-07)
(0.00130325 7.11136e-07 3.37589e-07)
(0.00130038 8.97617e-07 3.53617e-07)
(0.00129795 2.437e-07 3.38487e-07)
(0.00129523 -2.26924e-07 3.53773e-07)
(0.00129309 -9.45736e-07 2.80212e-07)
(0.00129159 -8.06231e-07 5.8226e-07)
(0.00128899 -2.14802e-07 3.57729e-07)
(0.00128648 -2.42759e-07 3.42346e-07)
(0.00128418 1.50547e-07 3.71829e-07)
(0.00128175 -1.97062e-07 3.18077e-07)
(0.00127908 -5.85568e-07 3.67144e-07)
(0.00127734 -4.08555e-07 2.22004e-07)
(0.00258097 -0.00279855 -0.000898671)
(0.0105107 0.0073056 0.00289587)
(-0.0066665 -0.00046643 0.000463024)
(-0.000374934 0.00080063 8.27989e-05)
(-0.0198343 -0.0197816 0.000176048)
(0.00196904 -0.0107722 -0.00155739)
(0.00094272 0.000943202 -0.000105185)
(0.00139043 -7.97423e-05 7.6808e-07)
(0.00146673 -1.63268e-05 -2.3291e-07)
(0.00135522 -2.36299e-05 3.38684e-07)
(0.00137984 -1.47257e-05 3.45914e-07)
(0.00137392 -1.033e-05 3.44296e-07)
(0.001372 -6.81477e-06 3.43542e-07)
(0.0013688 -4.50321e-06 3.43076e-07)
(0.00136571 -2.95688e-06 3.42271e-07)
(0.00136284 -2.02243e-06 3.43195e-07)
(0.00136005 -1.26586e-06 3.39811e-07)
(0.00135743 -6.64447e-07 3.26363e-07)
(0.00135439 -8.48767e-07 1.83649e-07)
(0.00135148 -4.99452e-07 3.28166e-07)
(0.00134897 -4.28749e-07 2.8544e-07)
(0.00134656 -1.42918e-08 3.36316e-07)
(0.0013439 2.47922e-07 3.26092e-07)
(0.0013406 3.4239e-07 -1.55418e-07)
(0.0013379 1.38018e-07 3.33082e-07)
(0.0013356 5.84614e-08 3.10178e-07)
(0.00133308 -2.85708e-08 3.53722e-07)
(0.00132998 -5.39479e-08 3.31092e-07)
(0.00132774 -9.21404e-08 1.57125e-07)
(0.00132585 7.26091e-07 1.74759e-07)
(0.00132342 1.21388e-06 3.58681e-07)
(0.00132173 1.18147e-06 3.31408e-07)
(0.00131928 7.22382e-07 8.16304e-07)
(0.00131546 4.62088e-07 4.45715e-07)
(0.00131272 -1.93881e-08 8.93045e-08)
(0.00131075 1.6188e-07 3.37602e-07)
(0.0013082 1.62458e-07 2.76792e-07)
(0.00130579 4.17824e-08 3.44619e-07)
(0.00130346 5.05385e-08 3.34063e-07)
(0.00130041 -4.47067e-08 3.34423e-07)
(0.00129747 2.13575e-07 3.59415e-07)
(0.00129508 2.21386e-07 2.78087e-07)
(0.00129337 1.03411e-06 1.50913e-07)
(0.0012918 5.98701e-07 4.24917e-07)
(0.0012893 5.26699e-07 2.72545e-07)
(0.00128683 4.91e-07 4.19232e-07)
(0.00128408 5.89915e-07 3.32853e-07)
(0.0012811 3.34734e-07 1.77581e-07)
(0.00127886 1.5646e-07 3.33014e-07)
(0.00127734 1.40541e-07 3.48279e-07)
(-0.00358688 0.00711729 0.000310708)
(0.000351058 0.00610622 0.00329428)
(0.00206267 -0.000253017 0.000554729)
(-0.011246 0.01044 -0.00107868)
(0.0061441 0.00575033 0.000636805)
(-0.00220867 -0.00168518 0.000578905)
(0.00063094 -0.00105273 -0.000144303)
(0.0014764 -0.000141283 3.19e-06)
(0.00148418 -5.0411e-05 3.0798e-07)
(0.00138199 -2.38422e-05 5.19362e-07)
(0.00139207 -1.49645e-05 3.5025e-07)
(0.0013814 -8.68967e-06 3.45872e-07)
(0.00137635 -5.54439e-06 3.44798e-07)
(0.00137147 -3.32078e-06 3.43704e-07)
(0.00136742 -1.98355e-06 3.42269e-07)
(0.00136382 -1.15289e-06 3.41195e-07)
(0.00136068 -7.93411e-07 3.404e-07)
(0.00135718 -6.15089e-07 2.40004e-07)
(0.00135435 -7.6016e-07 3.57355e-07)
(0.00135195 -7.24413e-07 3.18974e-07)
(0.00134928 -4.07999e-07 3.58484e-07)
(0.00134672 -3.05e-07 3.36413e-07)
(0.00134385 -4.57628e-07 3.29925e-07)
(0.00134115 -2.51661e-07 3.89994e-07)
(0.00133847 1.15055e-07 2.77831e-07)
(0.00133569 3.50261e-07 2.93597e-07)
(0.00133307 4.91636e-07 3.94263e-07)
(0.00133066 6.80465e-07 4.36284e-07)
(0.00132884 1.51662e-06 2.91875e-07)
(0.00132638 1.02928e-06 4.97535e-07)
(0.00132321 1.22307e-06 3.11084e-07)
(0.00132023 1.22525e-06 -2.52126e-08)
(0.00131768 2.57866e-07 3.09327e-07)
(0.00131543 -1.27627e-07 3.28621e-07)
(0.00131306 2.10249e-07 3.23891e-07)
(0.00131075 7.45034e-08 3.11514e-07)
(0.00130818 -1.24668e-08 3.21777e-07)
(0.00130588 -2.66936e-08 3.43083e-07)
(0.00130314 -4.75426e-07 2.39373e-07)
(0.00130058 -4.7079e-07 1.97263e-07)
(0.00129828 5.99552e-08 3.33621e-07)
(0.00129625 4.69997e-07 3.73622e-07)
(0.00129356 9.52656e-07 5.0022e-07)
(0.00129095 8.09384e-07 2.17706e-07)
(0.00128885 2.02462e-07 2.60936e-07)
(0.00128655 8.10773e-08 3.21608e-07)
(0.00128397 -9.81419e-08 3.94473e-07)
(0.0012812 1.36189e-07 2.48345e-07)
(0.00127883 4.53305e-07 3.1565e-07)
(0.00127697 3.99268e-07 2.32938e-07)
(0.0111651 -0.000831741 8.90993e-05)
(-0.0215352 0.0186715 -0.00224228)
(-0.00295317 -0.00780353 -0.000665484)
(0.0041776 -0.0336268 0.001199)
(0.0121119 0.00733391 -0.00036853)
(0.00179155 -0.00150432 0.00234716)
(-0.000485724 -0.000350759 0.00017874)
(0.00144708 -0.000180891 1.67941e-05)
(0.00148124 -2.84327e-05 7.29608e-07)
(0.00139984 -1.12807e-05 4.05119e-07)
(0.00139895 -5.78528e-06 3.69072e-07)
(0.0013858 -2.88924e-06 3.45866e-07)
(0.00137877 -1.15786e-06 5.04598e-07)
(0.00137329 -6.26018e-07 3.44613e-07)
(0.00136844 -3.6807e-07 3.39406e-07)
(0.00136434 -2.00009e-07 3.37274e-07)
(0.00136073 -7.81621e-08 3.4101e-07)
(0.00135747 -9.43779e-08 3.38282e-07)
(0.00135426 2.94146e-07 4.71206e-07)
(0.00135193 5.0897e-07 3.17928e-07)
(0.0013495 2.62074e-07 3.70941e-07)
(0.0013465 1.62927e-07 3.347e-07)
(0.00134397 7.84052e-08 6.25376e-07)
(0.00134132 1.15324e-07 3.82164e-07)
(0.00133865 2.02512e-07 3.74653e-07)
(0.00133607 9.39497e-09 3.40889e-07)
(0.00133349 2.79905e-07 3.87175e-07)
(0.00133125 3.95163e-07 3.20642e-07)
(0.00132817 5.18288e-07 2.6748e-07)
(0.00132547 3.12769e-07 3.48297e-07)
(0.00132366 9.78752e-08 3.49604e-07)
(0.00132052 -4.04561e-07 3.09264e-07)
(0.00131758 1.88804e-07 1.45474e-06)
(0.0013154 1.21208e-07 3.36913e-07)
(0.00131297 2.48636e-07 3.09246e-07)
(0.00131047 4.32325e-09 3.27835e-07)
(0.00130807 -7.16843e-08 3.39431e-07)
(0.00130521 -2.14991e-07 3.37022e-07)
(0.00130291 -2.26596e-07 4.31357e-07)
(0.00130108 1.77064e-08 3.04686e-07)
(0.00129865 1.14789e-07 3.25166e-07)
(0.00129619 3.21538e-07 1.12811e-06)
(0.00129379 -4.25473e-08 2.74186e-07)
(0.00129085 1.25683e-07 1.66635e-07)
(0.00128838 -2.61968e-07 3.1941e-07)
(0.00128645 -3.72508e-07 3.20365e-07)
(0.00128415 -8.38686e-07 1.15301e-07)
(0.00128179 -7.10045e-07 -2.06742e-08)
(0.00127917 -3.62205e-07 3.15967e-07)
(0.00127628 1.84078e-07 4.32722e-07)
(-0.0197024 -0.00596472 -0.001207)
(0.0330837 0.00128175 -0.00646333)
(0.0123656 -0.00305868 -0.000780013)
(-0.00383174 -0.00542075 0.000739803)
(-0.00233451 -0.00701489 5.60473e-06)
(-0.00828498 -0.00108971 -0.00508919)
(-0.000910022 0.00090003 2.25913e-05)
(0.00145004 -0.000182537 4.84426e-05)
(0.00150632 1.57676e-05 6.94746e-07)
(0.00141024 1.20542e-05 3.98485e-07)
(0.00140264 9.1624e-06 3.11069e-07)
(0.00138722 6.14198e-06 4.95825e-07)
(0.00137921 4.36707e-06 4.05237e-07)
(0.00137247 2.75794e-06 3.45059e-07)
(0.00136797 1.71223e-06 6.36747e-07)
(0.00136419 1.05284e-06 4.2692e-07)
(0.00136082 6.70011e-07 3.41413e-07)
(0.00135765 4.96638e-07 3.49871e-07)
(0.00135511 4.98221e-07 3.73971e-07)
(0.00135191 7.39629e-07 3.47066e-07)
(0.00134885 4.17339e-07 3.72306e-07)
(0.00134649 3.80036e-07 5.31896e-07)