/*--------------------------------*- C++ -*----------------------------------*\
| =========                 |                                                 |
| \\      /  F ield         | OpenFOAM: The Open Source CFD Toolbox           |
|  \\    /   O peration     | Version:  5.0                                   |
|   \\  /    A nd           | Web:      www.OpenFOAM.org                      |
|    \\/     M anipulation  |                                                 |
\*---------------------------------------------------------------------------*/
FoamFile
{
    version     2.0;
    format      ascii;
    class       surfaceVectorField;
    location    "3";
    object      Uf;
}
// * * * * * * * * * * * * * * * * * * * * * * * * * * * * * * * * * * * * * //

dimensions      [0 1 -1 0 0 0 0];

internalField   nonuniform List<vector> 
26815
(
(-0.000894626 -0.007017 0.000830334)
(0.00416792 -0.00283836 -0.000157053)
(0.00156504 -0.0105561 0.00165613)
(0.00133774 -0.0107933 -5.97502e-05)
(-0.0116266 -0.0118364 0.000358177)
(0.00240486 -0.00752756 -0.000577979)
(0.00510859 -0.00334414 0.00173844)
(0.00352442 -0.00670641 -0.000541135)
(0.00241137 -0.00549355 -0.000219768)
(-0.00462139 -0.00307927 0.00119819)
(-0.00116023 -0.0106489 0.000462154)
(-0.0139266 -0.00833913 0.00124059)
(-0.0245607 0.00281436 0.00173658)
(-0.00698581 0.000532729 -0.00097421)
(-0.00411536 0.0217733 -0.0118978)
(-0.00768349 -0.0102321 -0.0530431)
(-0.0451753 0.00358231 0.154459)
(-0.0489579 0.00273554 -0.0935593)
(-0.0320748 0.012872 -0.00192901)
(-0.0218878 0.0199172 -0.0143725)
(0.0685925 -0.0443697 0.0152932)
(0.0141331 -0.057377 0.00431117)
(0.00339983 -0.00317078 0.00100868)
(-0.00932697 -0.00521777 -0.000712776)
(-0.00281128 -0.00390641 0.00146531)
(-0.00448852 -0.0108629 0.000199321)
(0.00547389 0.0103181 0.000403702)
(0.00793553 0.00877175 0.000417037)
(-0.00117568 0.00182484 0.000174332)
(0.00832629 0.00574558 0.000640894)
(-0.00537576 0.00430126 0.000189545)
(0.00278314 0.00443741 0.00144234)
(0.00168781 0.0120948 0.000629474)
(0.00332119 0.00973979 0.000305065)
(0.00285458 0.0150817 0.000823805)
(0.000817896 0.0102494 0.000347013)
(0.00170232 -0.000622893 -0.000488594)
(0.00798152 -0.00158026 -0.000245964)
(0.00455543 0.00623873 -0.000302745)
(0.0100242 -0.00126591 -0.00123877)
(0.000608733 2.07641e-06 3.62399e-05)
(0.000410907 1.2143e-05 1.34007e-05)
(0.000581862 -7.19311e-07 2.76398e-05)
(0.000273983 -7.97244e-06 6.13861e-06)
(0.000812292 -5.13108e-05 -1.0812e-06)
(0.000840249 -6.81626e-05 -2.35576e-06)
(0.00110537 -7.68999e-05 -1.42632e-06)
(0.000590787 -3.16547e-05 -4.23387e-06)
(0.000567035 -4.70474e-05 -4.39647e-06)
(0.0010147 -4.6038e-05 -4.49364e-06)
(0.000960032 -8.13621e-05 -4.57941e-06)
(0.000807639 -3.58939e-05 6.39086e-08)
(0.000817453 -3.9766e-05 -3.06832e-08)
(0.00107693 -5.47843e-05 1.74385e-07)
(0.000809634 -2.38157e-05 9.89265e-08)
(0.000816657 -3.04926e-05 3.55406e-08)
(0.00107935 -3.67496e-05 1.85993e-07)
(0.000810385 -1.54146e-05 9.767e-08)
(0.000815876 -1.99725e-05 7.9249e-08)
(0.00108107 -2.37577e-05 1.81859e-07)
(0.00081138 -9.87636e-06 2.83541e-08)
(0.00081476 -1.30793e-05 5.75752e-08)
(0.00108205 -1.53156e-05 1.71415e-07)
(0.000811894 -6.08899e-06 1.07375e-08)
(0.000814166 -8.45544e-06 1.65132e-08)
(0.00108323 -9.69541e-06 1.83802e-07)
(0.000810663 -3.70207e-06 4.48967e-08)
(0.000812914 -5.70336e-06 4.19201e-08)
(0.00108265 -5.71479e-06 1.64087e-07)
(0.000809946 -2.3799e-06 3.93056e-08)
(0.000811407 -3.55972e-06 5.0664e-08)
(0.00108125 -3.64923e-06 1.86411e-07)
(0.000808809 -1.52932e-06 3.92407e-08)
(0.000810128 -1.17698e-06 3.55643e-08)
(0.00108003 -2.36055e-06 1.56449e-07)
(0.000807793 -9.10958e-07 6.22091e-08)
(0.000808801 -1.44698e-06 5.05508e-08)
(0.00107857 -1.50103e-06 1.78663e-07)
(0.000806079 -6.00573e-07 6.87096e-08)
(0.000807227 -8.73901e-07 7.03465e-08)
(0.00107679 -8.04293e-07 1.64392e-07)
(0.000804518 -5.70024e-07 8.6896e-08)
(0.000805546 1.03396e-07 7.05752e-08)
(0.0010745 -7.12463e-07 1.6319e-07)
(0.000803554 -4.61629e-07 6.95251e-08)
(0.000804225 -2.64128e-07 6.81734e-08)
(0.00107283 -7.25019e-07 2.42842e-07)
(0.000802013 -2.50072e-07 4.11396e-08)
(0.000802861 -1.51306e-07 5.65658e-08)
(0.00107126 -4.21525e-07 1.43542e-07)
(0.000800482 -1.32063e-07 2.94875e-08)
(0.00080126 1.11518e-07 5.879e-08)
(0.00106908 -1.54725e-07 1.35057e-07)
(0.000799145 -1.02335e-07 2.61063e-08)
(0.000799752 3.81403e-07 7.20327e-08)
(0.00106714 -1.09227e-07 1.08481e-07)
(0.000797656 -3.46399e-08 4.86122e-08)
(0.00079838 -2.10016e-07 4.9462e-08)
(0.00106532 -9.39555e-08 1.80309e-07)
(0.000796276 4.17492e-08 7.14112e-08)
(0.000796948 7.92e-08 5.70871e-08)
(0.00106341 7.46276e-08 1.63531e-07)
(0.000794498 5.97995e-08 6.53408e-08)
(0.000795349 -5.24241e-08 1.09718e-07)
(0.0010613 1.41037e-07 2.38942e-07)
(0.00079298 5.37824e-08 4.39386e-08)
(0.000793762 6.66721e-08 3.74035e-08)
(0.00105906 1.08538e-07 1.74205e-07)
(0.000791588 1.23896e-07 3.12479e-08)
(0.000792408 -3.91014e-08 4.86983e-08)
(0.0010573 6.16297e-08 1.7628e-07)
(0.000790088 5.01065e-08 3.7349e-08)
(0.000790836 -1.64184e-07 4.10605e-08)
(0.00105523 2.40257e-07 1.34498e-07)
(0.000788703 -2.70407e-07 6.93103e-08)
(0.000789137 2.85408e-07 6.86767e-08)
(0.0010532 -1.81784e-07 1.84936e-07)
(0.000786864 -4.82485e-07 5.59775e-08)
(0.000787691 -5.7613e-07 -1.73633e-08)
(0.00105119 -6.55304e-07 3.65865e-07)
(0.000785577 -4.74876e-07 4.18522e-08)
(0.000786253 -5.20326e-07 2.68439e-08)
(0.00104895 -7.17242e-07 2.99267e-07)
(0.000783984 -2.0555e-07 6.13668e-08)
(0.000785003 -5.67811e-08 8.39912e-08)
(0.00104705 -5.599e-07 1.57258e-07)
(0.000783233 3.39268e-08 5.86412e-08)
(0.000783831 -1.95722e-06 8.1758e-08)
(0.00104567 9.14223e-09 2.30584e-07)
(0.000781612 5.66645e-08 6.83602e-08)
(0.000782354 8.74333e-08 4.52612e-08)
(0.00104409 9.33961e-08 1.72955e-07)
(0.000780022 8.45037e-08 6.77444e-08)
(0.000780825 2.98546e-07 6.81318e-08)
(0.00104187 1.11252e-07 1.5463e-07)
(0.00077828 1.75475e-07 2.34958e-08)
(0.000779371 3.38312e-07 4.14777e-08)
(0.0010396 1.58568e-07 1.62524e-07)
(0.000776813 3.99315e-07 3.90268e-08)
(0.000777913 4.75069e-07 4.87261e-09)
(0.00103733 3.33002e-07 1.38971e-07)
(0.00077644 3.72928e-07 7.39964e-08)
(0.000776547 -2.11609e-06 4.69381e-08)
(0.00103619 7.50207e-07 2.07663e-07)
(0.000774635 1.13957e-07 5.00515e-08)
(0.000775137 3.27223e-07 1.60712e-07)
(0.00103485 3.03812e-07 1.79078e-07)
(0.000773245 4.38737e-08 4.94085e-08)
(0.000773723 1.4298e-08 4.24137e-08)
(0.00103263 6.97888e-08 1.73382e-07)
(0.000771817 -8.22708e-09 7.60722e-08)
(0.000772337 -6.93211e-08 6.74251e-08)
(0.00103073 8.75771e-08 1.71699e-07)
(0.000770541 -1.50271e-07 4.96411e-08)
(0.000770952 -2.25816e-07 6.51861e-08)
(0.00102909 -1.09042e-07 1.68792e-07)
(0.000768514 -2.00658e-07 3.12071e-08)
(0.000769529 1.89315e-06 2.9612e-08)
(0.00102668 -3.04319e-07 1.05345e-07)
(0.000767255 -1.25752e-07 4.90879e-08)
(0.000768135 -2.22998e-07 4.80844e-08)
(0.00102456 -2.35889e-07 1.78437e-07)
(0.000765811 -1.3601e-10 5.28927e-08)
(0.000766741 2.23062e-07 5.56133e-08)
(0.00102278 -1.47103e-07 1.63705e-07)
(0.000765055 -5.88306e-09 4.39943e-08)
(0.000765438 -7.73737e-07 6.27952e-08)
(0.0010212 7.59779e-08 1.61515e-07)
(0.000763481 -2.3389e-07 4.07998e-08)
(0.000764132 1.61851e-07 4.22872e-08)
(0.00101985 -1.64796e-07 1.78014e-07)
(0.000761784 -3.51776e-07 2.13375e-08)
(0.000762578 -2.9663e-07 -1.44833e-08)
(0.0010175 -4.89773e-07 2.09426e-07)
(0.000761272 8.76743e-07 5.37761e-08)
(0.00101533 -4.32078e-07 1.12142e-07)
(0.00789354 0.0019073 -3.38718e-05)
(0.00563812 0.00286371 -0.000314068)
(0.00192041 0.00317731 -0.00096987)
(-0.00418724 -0.000882745 -2.5428e-05)
(0.00436504 -0.000316992 0.000545675)
(0.0045781 0.000518695 0.000753439)
(0.00184838 -0.00441673 0.000194172)
(0.00494039 0.00397578 0.000895757)
(-0.00387397 -0.00103286 0.000601537)
(0.00347693 -0.00701629 2.24192e-05)
(0.00755432 0.00334336 -0.000111378)
(0.0043146 -0.00326909 -0.000495925)
(0.00990069 0.00467972 -2.22256e-05)
(0.00193607 0.00256749 0.000327525)
(-0.00155896 -0.0020784 -0.000221772)
(-0.00103412 0.00294369 0.000676037)
(-0.0197069 -0.00353223 0.00319605)
(-0.00186646 -0.0196216 -0.00030048)
(-0.00426861 0.00253418 -1.27222e-05)
(-0.00449157 -0.0025857 -0.000600646)
(-0.0104022 -0.00138148 0.00148689)
(-0.00666092 -0.0200237 -0.000347721)
(0.00173983 -0.00271631 -0.000361284)
(-0.000566298 -0.00361216 -0.000347036)
(-0.0007746 -0.00253687 -0.000554705)
(0.00431087 0.000716323 0.000525539)
(0.00349157 0.00378024 -9.43811e-05)
(0.0165588 -0.00225952 0.00011855)
(0.0104364 -0.00905469 0.00096363)
(0.00391181 -0.00282977 -4.61028e-05)
(0.00347871 -0.00628793 -6.50265e-05)
(0.00946133 -0.00365393 0.000317603)
(0.00417225 -0.000429875 -0.000101304)
(0.00463999 0.00136034 0.00107728)
(0.00280715 0.00357241 -0.000251152)
(0.0102046 -0.00212737 -5.81757e-05)
(-0.0106046 0.000380618 -0.000339987)
(-0.00649296 -0.00316191 0.000154645)
(-0.00211221 0.00107635 -5.09888e-05)
(-0.00557494 0.00293468 -0.000118864)
(-0.0126976 4.51303e-05 -0.000541103)
(0.00110845 -5.09193e-05 1.44313e-05)
(0.000407662 -6.38821e-05 2.77623e-05)
(0.000437755 -9.74674e-05 4.10888e-05)
(0.000575168 -8.01732e-05 7.16124e-05)
(0.000286119 -5.2449e-05 1.84194e-05)
(0.000835819 -5.62827e-05 -1.306e-06)
(0.000598285 -6.41971e-05 -1.95622e-06)
(0.00113799 -0.000106998 -1.51387e-06)
(0.000583999 -6.34705e-05 -5.13782e-06)
(0.000598418 -8.42678e-05 -4.00427e-06)
(0.000981625 -0.000106627 -5.10456e-06)
(0.00102507 -0.000153697 2.52652e-08)
(0.000570845 -7.56518e-05 -4.74389e-06)
(0.0010152 -0.000109746 -1.57577e-06)
(0.000950481 -0.000123079 -5.69967e-06)
(0.000826335 -2.93711e-05 -5.90729e-08)
(0.000860128 -2.8736e-05 -8.90636e-07)
(0.00110467 -3.59798e-05 1.03652e-07)
(0.000823353 -2.43173e-05 1.58488e-08)
(0.000823102 -2.86583e-05 -2.45179e-07)
(0.00109966 -3.76827e-05 1.76678e-07)
(0.000819958 -1.58756e-05 3.91613e-08)
(0.000826493 -1.76686e-05 1.17068e-07)
(0.00109586 -2.40794e-05 1.79415e-07)
(0.00081756 -1.05461e-05 4.57476e-08)
(0.000821465 -1.20471e-05 4.21067e-08)
(0.00109196 -1.62835e-05 1.80126e-07)
(0.00081549 -6.96524e-06 4.76875e-08)
(0.000818671 -7.85362e-06 5.41047e-08)
(0.00108925 -1.05752e-05 1.81027e-07)
(0.000813449 -4.592e-06 4.76845e-08)
(0.0008159 -5.12171e-06 4.94026e-08)
(0.00108659 -7.17533e-06 1.79811e-07)
(0.000811602 -2.94089e-06 4.69275e-08)
(0.000813484 -3.22777e-06 5.1416e-08)
(0.00108406 -4.53827e-06 1.80071e-07)
(0.000810111 -1.87223e-06 4.68696e-08)
(0.000811472 -1.72097e-06 5.12736e-08)
(0.00108187 -2.97598e-06 2.09766e-07)
(0.000808403 -1.18862e-06 5.86818e-08)
(0.000809661 -1.26029e-06 5.23832e-08)
(0.00107979 -1.81768e-06 1.78566e-07)
(0.000806534 -6.65358e-07 7.2212e-08)
(0.000807884 -4.46294e-07 5.78619e-08)
(0.00107741 -1.23792e-06 1.76289e-07)
(0.000805189 -2.49612e-07 5.18534e-08)
(0.000806068 -1.12048e-06 7.23886e-08)
(0.00107524 -4.78447e-07 2.45649e-07)
(0.000803653 -1.25504e-07 5.52178e-08)
(0.000804381 -2.84657e-07 3.41779e-08)
(0.00107334 -1.66432e-07 1.79389e-07)
(0.000802067 -8.50143e-08 7.42154e-08)
(0.000802912 -5.44577e-08 5.83621e-08)
(0.00107128 -1.38732e-07 1.75907e-07)
(0.00080052 6.57179e-08 1.01331e-07)
(0.000801447 -3.15796e-08 5.72586e-08)
(0.00106917 -5.35152e-08 1.89582e-07)
(0.000798988 1.43849e-07 9.53956e-08)
(0.000799849 -9.89194e-07 9.30685e-08)
(0.00106706 2.71422e-07 2.74216e-07)
(0.000797663 2.28521e-08 5.79344e-08)
(0.000798228 3.02157e-07 6.57672e-08)
(0.00106526 1.89329e-07 1.25126e-07)
(0.000796075 -1.58451e-07 9.53776e-08)
(0.000796721 -9.30794e-08 5.56936e-08)
(0.00106336 -3.99757e-08 1.96455e-07)
(0.000794581 -2.47499e-07 8.1804e-08)
(0.000795238 4.19076e-08 8.10188e-08)
(0.00106117 -2.95438e-07 1.6978e-07)
(0.000793127 -2.30978e-07 4.21597e-08)
(0.000793784 1.5927e-08 4.1841e-08)
(0.00105918 -2.90313e-07 1.76832e-07)
(0.000791739 -3.73261e-07 5.85133e-08)
(0.000792232 -2.13341e-07 5.10322e-08)
(0.00105736 -3.01789e-07 1.80088e-07)
(0.000789873 -5.10943e-07 7.23795e-08)
(0.000790666 -7.86807e-07 3.2879e-08)
(0.00105518 -7.60345e-07 2.541e-07)
(0.000788129 -3.9904e-07 -1.79699e-08)
(0.00078928 -1.16609e-07 3.82782e-08)
(0.00105263 -6.77047e-07 2.2813e-07)
(0.000786994 -2.08177e-07 -4.65108e-08)
(0.000787931 7.04186e-08 3.62672e-08)
(0.00105086 -4.25705e-07 1.00584e-07)
(0.00078566 1.51511e-07 6.8965e-08)
(0.000786702 3.22597e-07 4.13208e-08)
(0.00104927 -1.76399e-07 1.04407e-07)
(0.000784898 4.82449e-07 1.04383e-07)
(0.000785416 -2.25801e-06 5.81177e-08)
(0.00104782 5.80545e-07 2.69934e-07)
(0.000782987 3.86762e-07 6.83893e-08)
(0.00078371 -2.2051e-06 4.7027e-08)
(0.00104612 7.5061e-07 2.33613e-07)
(0.000781496 1.96527e-07 4.50256e-08)
(0.000782114 1.93724e-07 7.17729e-08)
(0.00104376 3.06713e-07 1.71316e-07)
(0.000780227 1.694e-07 4.18734e-08)
(0.00078079 5.9777e-08 4.73826e-08)
(0.00104183 2.16609e-07 1.76298e-07)
(0.000778977 2.69524e-07 2.28659e-08)
(0.000779496 1.75922e-07 1.03494e-07)
(0.00104018 2.32402e-07 1.69431e-07)
(0.00077762 4.9653e-07 1.27709e-08)
(0.000778195 8.68751e-08 2.77363e-08)
(0.00103855 4.91051e-07 1.9537e-07)
(0.000775312 4.47937e-07 1.33618e-07)
(0.000776484 -6.66112e-07 2.2762e-08)
(0.00103603 8.36976e-07 1.48867e-07)
(0.000774147 1.62752e-07 1.5311e-07)
(0.000774779 1.5154e-07 1.62421e-07)
(0.00103361 4.06561e-07 1.63109e-07)
(0.000772849 -4.11781e-08 6.04226e-08)
(0.000773467 -9.82833e-08 6.28396e-08)
(0.00103205 8.42025e-08 1.70552e-07)
(0.000771503 -2.13687e-07 5.65397e-08)
(0.000772122 -9.60564e-08 6.21213e-08)
(0.00103023 -1.85796e-07 1.68736e-07)
(0.000769884 -4.01306e-07 4.51678e-08)
(0.00077072 1.02164e-07 1.6894e-07)
(0.00102821 -4.05168e-07 1.6773e-07)
(0.000769168 -2.81223e-07 4.64836e-08)
(0.000769682 1.97659e-07 7.50239e-08)
(0.00102684 -6.93984e-07 2.32561e-07)
(0.000767629 -9.95129e-09 5.46075e-08)
(0.000768475 9.46766e-09 6.51325e-08)
(0.00102523 -8.67522e-08 1.6721e-07)
(0.000766279 2.0901e-07 6.55136e-08)
(0.000767015 9.01885e-08 5.3604e-08)
(0.0010233 -9.74835e-09 1.7669e-07)
(0.00076463 2.37749e-07 6.10944e-08)
(0.000765474 -1.20013e-06 1.03222e-07)
(0.00102137 4.88977e-07 2.25115e-07)
(0.000763192 2.76702e-09 -1.29786e-08)
(0.000763838 2.83288e-07 6.47656e-08)
(0.00101923 9.63583e-08 1.65814e-07)
(0.000761983 -1.25017e-07 1.79345e-08)
(0.00076242 1.14743e-07 -8.31959e-09)
(0.0010174 -1.4312e-07 1.23565e-07)
(0.000761426 -1.19876e-07 1.06042e-07)
(0.00101604 -2.36988e-07 2.2983e-07)
(0.00594232 -0.00265007 0.000358667)
(0.00404022 0.00576667 2.62889e-05)
(0.00451475 -0.000221658 -0.000370929)
(0.00120687 -0.000709827 0.00130136)
(0.00512997 0.00140268 0.000708671)
(-0.000428141 0.00387433 -0.00260166)
(0.000796962 -0.00813028 0.000316688)
(0.00512229 -0.00948435 0.0012865)
(0.00336457 -0.00197983 0.00104237)
(-0.00164825 -0.000200831 -0.000358876)
(-0.00909645 -0.0129484 0.00213108)
(0.000928942 -0.0104482 0.000604753)
(-0.000896693 -0.0367236 -0.0111589)
(-0.0116039 -0.00547879 0.00128292)
(-0.0180458 -0.0165121 0.00359794)
(-0.00757193 -0.0372227 -0.00225133)
(-0.00146552 0.00463338 0.000704927)
(0.00250346 0.00379519 -0.000993835)
(0.00634516 0.0028733 -0.000110648)
(0.0031611 -0.00623296 0.000435613)
(0.00225576 -0.00735226 -3.86376e-05)
(0.00142969 -0.00200431 -0.000196569)
(0.00298957 0.0127608 4.99411e-05)
(0.00513597 0.00413231 7.31203e-05)
(0.00431022 0.00822493 0.000417261)
(0.0124964 0.00484132 0.000707353)
(0.00992103 0.0103624 0.0001856)
(-0.00147494 0.00452218 -0.000166972)
(3.52635e-05 0.00754703 -0.000256551)
(0.00143616 0.00762623 -0.000101555)
(-0.000916379 0.0121248 0.000252145)
(7.34409e-05 0.0128205 -0.00062994)
(0.000573032 0.000141721 4.53797e-05)
(0.000990721 5.43335e-05 -1.00417e-05)
(0.00164351 0.00039503 3.89782e-05)
(0.00125133 0.00020335 -7.48907e-05)
(0.00118877 -4.85368e-05 1.15482e-05)
(0.000320624 -5.95162e-05 -2.99649e-06)
(0.00048673 -5.68285e-05 -3.91703e-06)
(0.000474246 -6.5613e-05 -7.69851e-07)
(0.00078375 -9.41455e-05 -2.17707e-06)
(0.000331422 -3.87644e-05 -2.4986e-06)
(0.000578005 -0.000123469 -4.31256e-06)
(0.000608105 -6.95121e-05 -1.99104e-06)
(0.000834396 -3.06384e-05 -1.07695e-06)
(0.000905835 -4.37039e-05 -1.80583e-06)
(0.00118804 -4.24601e-05 -1.02988e-06)
(0.000602858 -4.77693e-05 -4.46786e-06)
(0.000619252 -3.94453e-05 -4.87779e-06)
(0.000988454 -9.28316e-05 -5.42385e-06)
(0.0010276 -7.42791e-05 -6.02526e-06)
(0.000831134 -2.21496e-05 -1.44079e-07)
(0.000833753 -2.50063e-05 -3.08059e-07)
(0.00109456 -3.55014e-05 7.51186e-08)
(0.000826792 -1.36881e-05 1.20038e-07)
(0.000837135 -1.46675e-05 1.62068e-07)
(0.00110798 -2.13634e-05 2.13706e-07)
(0.000822596 -8.77111e-06 5.04599e-08)
(0.000827653 -8.7848e-06 3.12714e-08)
(0.00109904 -1.38698e-05 1.81858e-07)
(0.000818935 -5.56058e-06 5.58214e-08)
(0.000822711 -5.29898e-06 5.39492e-08)
(0.00109469 -8.76878e-06 1.83902e-07)
(0.000815823 -3.52244e-06 5.31334e-08)
(0.000818465 -3.23153e-06 4.98672e-08)
(0.00109024 -5.60986e-06 1.81984e-07)
(0.000813183 -2.19682e-06 5.57621e-08)
(0.000815152 -1.92546e-06 4.97166e-08)
(0.00108653 -3.51596e-06 1.81682e-07)
(0.000811047 -1.41484e-06 5.67869e-08)
(0.000812457 -1.15723e-06 5.26862e-08)
(0.00108345 -2.19598e-06 1.89267e-07)
(0.000809129 -9.74015e-07 5.15615e-08)
(0.000810217 -8.51429e-07 5.30305e-08)
(0.00108076 -1.49269e-06 1.81428e-07)
(0.000807414 -6.76212e-07 5.80338e-08)
(0.00080826 -5.62456e-07 5.77495e-08)
(0.00107848 -1.03952e-06 2.0068e-07)
(0.000805165 -4.12873e-07 5.47254e-08)
(0.000806399 3.50425e-07 5.25898e-08)
(0.00107585 -7.51977e-07 1.37649e-07)
(0.000803604 -2.38507e-07 3.73144e-08)
(0.000804601 -2.6076e-07 3.91954e-08)
(0.00107326 -3.82148e-07 1.78553e-07)
(0.000802314 -1.46703e-07 4.14057e-08)
(0.000803028 -3.10689e-07 5.01714e-08)
(0.0010714 -2.83812e-07 1.74761e-07)
(0.000800836 -4.29557e-08 4.89847e-08)
(0.000801578 -1.20024e-07 5.08251e-08)
(0.00106959 -1.22091e-07 1.79914e-07)
(0.00079904 5.38486e-08 6.34487e-08)
(0.00079997 -2.99713e-07 1.73626e-08)
(0.00106744 1.88219e-08 1.53586e-07)
(0.000797261 6.93312e-08 6.35296e-08)
(0.000798247 -7.36795e-08 6.83036e-08)
(0.00106493 1.60429e-07 2.26766e-07)
(0.000795854 3.00647e-08 4.13268e-08)
(0.000796672 -1.77581e-07 3.7721e-08)
(0.00106281 4.14995e-08 1.74363e-07)
(0.000794457 -1.73344e-09 4.10682e-08)
(0.000795198 -1.21352e-07 3.04261e-08)
(0.00106099 3.35652e-08 1.79419e-07)
(0.000792934 -3.40128e-08 5.07105e-08)
(0.000793743 2.05779e-07 5.69319e-08)
(0.00105906 -2.02938e-08 1.65971e-07)
(0.000791181 -8.60836e-08 2.54036e-08)
(0.000792167 -1.03447e-08 5.16393e-08)
(0.00105671 -3.27764e-08 1.85592e-07)
(0.000789923 3.75744e-08 -1.22399e-09)
(0.00079082 5.96144e-07 2.07606e-08)
(0.00105476 -1.48333e-07 5.91416e-08)
(0.000789224 2.98738e-07 9.25158e-08)
(0.000789605 8.76579e-07 2.14295e-08)
(0.00105363 3.26513e-07 3.75079e-08)
(0.000787495 4.00654e-07 1.24097e-07)
(0.000788056 4.02387e-07 1.35792e-07)
(0.00105182 5.93005e-07 1.75331e-07)
(0.000786532 4.43741e-07 3.04683e-08)
(0.000786754 4.40326e-07 5.62415e-08)
(0.00105021 5.96489e-07 1.23001e-07)
(0.000784333 3.40679e-07 7.65175e-10)
(0.000785285 2.04397e-08 5.19355e-08)
(0.0010482 6.37503e-07 7.9408e-08)
(0.000782697 1.61773e-07 5.04029e-08)
(0.000783485 2.65044e-08 2.4256e-08)
(0.00104532 2.90236e-07 3.27967e-08)
(0.000781393 1.40997e-07 7.41375e-08)
(0.000782088 1.40166e-07 7.98193e-08)
(0.00104342 1.42992e-07 1.66003e-07)
(0.000780062 1.2856e-07 1.08986e-07)
(0.000780774 -1.19802e-07 1.37616e-07)
(0.00104178 2.02845e-07 1.77667e-07)
(0.000778728 2.9193e-08 1.08388e-07)
(0.000779371 9.92455e-08 1.03207e-07)
(0.00103994 1.2713e-07 1.70819e-07)
(0.000777269 -1.06432e-07 3.7729e-08)
(0.000778025 -5.30966e-08 4.84861e-08)
(0.00103808 -3.64036e-08 1.8669e-07)
(0.000775664 -5.70601e-08 5.1522e-08)
(0.000776546 -1.73912e-07 2.26038e-08)
(0.00103608 -2.13358e-07 1.54467e-07)
(0.000774178 5.19792e-08 7.21814e-08)
(0.000774915 6.526e-07 8.08215e-09)
(0.0010339 6.36074e-08 1.43329e-07)
(0.000772719 2.99702e-09 6.45385e-08)
(0.000773406 -7.54472e-08 6.0528e-08)
(0.00103188 6.16977e-08 1.75335e-07)
(0.000771466 1.25577e-07 1.74489e-07)
(0.000772275 -1.9526e-07 1.21144e-07)
(0.00103012 -1.57806e-08 1.65477e-07)
(0.000770178 3.66025e-07 1.98825e-07)
(0.000771019 -1.63492e-06 2.52336e-07)
(0.00102846 4.40356e-07 2.87187e-07)
(0.00076932 3.7086e-07 9.36758e-08)
(0.000769685 -1.60047e-06 3.84732e-08)
(0.00102708 6.15105e-07 2.52885e-07)
(0.000767747 2.88273e-07 6.41326e-08)
(0.00076837 2.2371e-08 -3.19389e-09)
(0.00102542 4.41514e-07 1.8629e-07)
(0.000766324 2.78609e-07 9.12978e-08)
(0.000767001 -1.15607e-08 4.58641e-08)
(0.0010235 4.11132e-07 1.8106e-07)
(0.000764552 3.43691e-07 1.06905e-07)
(0.000765554 -5.87751e-08 1.0355e-07)
(0.00102134 3.88819e-07 1.22061e-07)
(0.000763117 3.28667e-07 6.94468e-08)
(0.000763818 3.73384e-07 6.25165e-08)
(0.00101906 5.34935e-07 1.67806e-07)
(0.000761651 1.93088e-07 7.97534e-08)
(0.000762249 1.73697e-07 5.1764e-08)
(0.00101709 3.15982e-07 1.72835e-07)
(0.000761185 -1.09718e-06 1.32121e-07)
(0.0010158 1.80111e-07 2.05083e-07)
(0.00880322 0.0072295 0.00178452)
(0.0098691 -0.00146368 -0.000102554)
(-0.000515934 0.00718458 0.00032257)
(-0.00450475 -0.00203133 0.000449683)
(0.0120962 -0.000891325 -2.47772e-05)
(-0.00529576 -0.00109736 0.00221625)
(-0.00361488 0.000470026 0.000319238)
(0.0029797 0.00410655 0.000595094)
(0.00251976 0.00052393 0.000552687)
(0.00176458 0.00131267 0.00151066)
(0.00816583 0.00492975 0.00161011)
(0.0105675 0.00735067 0.00230177)
(0.0233846 0.00405879 0.00849724)
(-0.0117935 0.0178459 -0.000863406)
(-0.0167398 0.00851223 -0.00450458)
(-0.0173847 0.0207703 0.00214561)
(0.00486266 -0.0232685 0.000392523)
(-0.000570737 -0.00168442 0.000268699)
(0.00399974 0.00479493 0.000814605)
(0.00726053 0.00689949 0.000260045)
(0.000540712 0.00119555 -0.00050233)
(-0.02055 -0.00701169 0.00141583)
(0.00246945 -0.00353671 9.85881e-05)
(-0.00730944 -0.000787266 -3.68306e-06)
(-0.0299821 -0.00347928 -0.00140507)
(-0.00578506 -0.0100815 0.000680575)
(0.0235571 0.00498511 -0.000723501)
(-0.0220396 -0.0148845 0.00442836)
(-0.00826411 -0.0128126 -0.00170167)
(0.00251314 -0.0049578 0.000508952)
(0.00031934 -0.0122274 0.00033508)
(0.0018385 -0.00865626 3.41642e-05)
(0.00832051 -0.00406742 0.00131239)
(0.0129784 -0.00490197 0.000251628)
(-0.000139104 -0.00244724 6.92263e-05)
(-0.00208047 -0.00718997 -4.72092e-05)
(9.28711e-05 -0.00194839 -6.09571e-05)
(-0.00255402 -0.00329809 -0.000131267)
(-0.00154385 -0.00536501 -0.000125664)
(-0.000275214 -0.00057058 -4.58033e-07)
(0.000314714 -0.000229391 2.14635e-05)
(0.00018658 -0.000406443 -1.60537e-05)
(0.000326956 -0.00076685 -7.68299e-05)
(0.000777717 -0.000159145 3.49124e-05)
(0.000397005 -5.66455e-05 3.78172e-06)
(0.000530044 -4.34322e-05 -3.33864e-06)
(0.0008522 -0.000102662 2.04201e-06)
(0.000373518 -7.5503e-05 1.8391e-05)
(0.000750798 -0.000103793 1.06554e-05)
(0.000674979 -0.000112785 4.62643e-05)
(0.000497005 -6.37918e-05 -2.79395e-07)
(0.000385592 -4.38637e-05 1.16491e-06)
(0.000704917 -8.67444e-05 8.13602e-06)
(0.000620309 -9.75562e-05 -2.52927e-06)
(0.000340565 -5.11878e-05 -2.2332e-06)
(0.000863643 -2.68065e-05 -1.03742e-06)
(0.00092093 -1.82057e-05 -2.01329e-06)
(0.00122317 -4.88112e-05 -1.41094e-06)
(0.000641056 -2.81637e-05 -4.44183e-06)
(0.000655432 -1.86513e-05 -4.94578e-06)
(0.00105931 -4.7202e-05 -5.29279e-06)
(0.00111092 -2.70594e-05 -5.82114e-06)
(0.000847433 -1.30419e-05 -2.06489e-09)
(0.000851055 -5.14275e-06 -1.94048e-07)
(0.00112611 -2.20674e-05 7.5136e-08)
(0.000835698 -7.25742e-06 7.33449e-08)
(0.000844413 -2.25311e-06 1.25158e-07)
(0.00112307 -1.26477e-05 2.02419e-07)
(0.000827623 -4.0158e-06 3.47533e-08)
(0.000831734 -6.09116e-07 4.51096e-08)
(0.00110781 -6.80464e-06 1.7756e-07)
(0.000821848 -2.33612e-06 4.79964e-08)
(0.000824828 -7.99074e-08 6.25911e-08)
(0.00109964 -4.04379e-06 1.82453e-07)
(0.000817603 -1.24918e-06 4.64504e-08)
(0.000819833 8.76568e-08 4.76855e-08)
(0.0010932 -2.30876e-06 1.81086e-07)
(0.00081424 -6.0555e-07 4.66396e-08)
(0.000815962 3.00713e-07 3.66155e-08)
(0.00108835 -1.1209e-06 1.80151e-07)
(0.000811532 -3.78133e-07 4.89296e-08)
(0.000812744 2.62304e-07 3.62558e-08)
(0.00108442 -5.75154e-07 1.79567e-07)
(0.000809257 -3.07708e-07 5.9217e-08)
(0.000810307 -2.1096e-08 4.87303e-08)
(0.00108124 -4.76607e-07 1.83305e-07)
(0.000807304 -3.33047e-07 5.23071e-08)
(0.00080823 1.86311e-07 5.91101e-08)
(0.00107835 -3.49017e-07 1.61723e-07)
(0.000805751 -3.6213e-07 3.7064e-08)
(0.000806364 2.57502e-07 5.34457e-08)
(0.00107607 -5.35026e-07 1.85731e-07)
(0.000803946 -2.53048e-07 5.20489e-08)
(0.000804739 -1.58832e-07 3.83129e-08)
(0.00107393 -4.44878e-07 1.94451e-07)
(0.0008023 -1.95466e-07 5.95906e-08)
(0.000803101 -2.31536e-07 6.67323e-08)
(0.00107161 -2.57028e-07 1.82392e-07)
(0.000800767 -2.30687e-07 1.92137e-08)
(0.000801535 -1.65743e-07 4.7577e-08)
(0.00106955 -2.84494e-07 1.81659e-07)
(0.000799134 -1.99034e-07 2.22013e-08)
(0.00080001 5.97705e-07 4.02279e-08)
(0.00106741 -3.5283e-07 1.24997e-07)
(0.000797658 -5.04717e-08 4.25047e-08)
(0.000798433 1.95422e-08 7.75311e-08)
(0.00106529 -2.08274e-07 1.67552e-07)
(0.000795968 1.13471e-07 2.68225e-08)
(0.000796877 -1.80158e-09 5.23467e-08)
(0.0010632 4.48723e-08 1.80932e-07)
(0.000794483 2.48251e-07 4.62814e-08)
(0.000795366 -8.16686e-08 4.71663e-08)
(0.00106109 2.35647e-07 1.7284e-07)
(0.000793045 3.89689e-07 5.78624e-08)
(0.000793918 1.91314e-08 6.62099e-08)
(0.0010591 4.19066e-07 1.84858e-07)
(0.000791714 6.40306e-07 4.70061e-08)
(0.000792477 6.12853e-07 5.57788e-08)
(0.0010572 6.43061e-07 1.18979e-07)
(0.000790475 7.68318e-07 4.34139e-08)
(0.000790977 8.61057e-07 1.33909e-07)
(0.00105563 1.15121e-06 1.36401e-07)
(0.000788568 5.78792e-07 6.46698e-08)
(0.000789364 2.66676e-07 4.03584e-08)
(0.00105355 9.87889e-07 2.57174e-07)
(0.000787108 4.91818e-07 6.79614e-08)
(0.000787944 4.66124e-07 6.9975e-08)
(0.00105119 6.48886e-07 1.70552e-07)
(0.000785805 2.52683e-07 7.771e-08)
(0.000786452 4.8646e-07 4.89761e-08)
(0.00104932 7.94299e-07 1.58147e-07)
(0.000784243 -4.71075e-08 7.5435e-08)
(0.000784909 -1.18149e-07 8.54925e-08)
(0.00104743 -8.19174e-09 1.94447e-07)
(0.000782868 8.50845e-09 5.3655e-08)
(0.000783554 8.2495e-09 4.63469e-08)
(0.0010455 -6.04022e-08 1.69615e-07)
(0.000781496 5.86202e-08 1.4328e-07)
(0.00078215 -3.77158e-09 5.88088e-08)
(0.00104365 1.00888e-07 1.7853e-07)
(0.000780042 2.30584e-08 1.31848e-07)
(0.00078073 -1.99599e-08 1.35061e-07)
(0.00104181 6.25661e-08 1.68669e-07)
(0.000778679 -3.04451e-08 4.33218e-08)
(0.000779304 -3.25056e-08 2.68581e-08)
(0.00103988 -1.48488e-08 1.77335e-07)
(0.000777349 -1.4768e-07 3.33689e-08)
(0.000777879 -1.23686e-07 4.73488e-08)
(0.00103813 -8.62948e-08 1.7016e-07)
(0.000775805 -2.61343e-07 -2.08316e-08)
(0.000776404 -3.4722e-07 3.0715e-08)
(0.00103615 -3.38365e-07 1.96878e-07)
(0.000774106 -1.57495e-07 -3.58744e-09)
(0.000775046 1.1587e-06 1.14967e-08)
(0.00103396 -3.98339e-07 1.62032e-07)
(0.000772813 5.16794e-08 1.17115e-07)
(0.000773667 -1.66025e-07 4.88692e-08)
(0.00103195 -2.94146e-08 1.68588e-07)
(0.000772045 1.96681e-07 1.98951e-07)
(0.000772455 4.40035e-07 1.82055e-07)
(0.0010307 2.10329e-07 6.87111e-08)
(0.000770361 3.23448e-07 9.20498e-08)
(0.000771175 2.6103e-07 1.21707e-07)
(0.001029 3.93846e-07 6.01913e-08)
(0.000768825 2.33837e-07 -5.83838e-08)
(0.000769572 2.34093e-07 -1.04968e-07)
(0.00102684 5.34002e-07 5.10872e-08)
(0.00076758 6.56271e-08 -2.14773e-08)
(0.000768159 1.12975e-07 -2.21806e-08)
(0.00102497 1.28349e-07 1.50836e-07)
(0.00076631 4.32888e-08 5.8099e-08)
(0.000766973 6.09013e-09 4.44352e-08)
(0.00102323 7.52292e-08 1.5844e-07)
(0.000764853 1.66944e-07 5.9174e-08)
(0.000765708 9.25535e-07 4.23943e-08)
(0.00102152 3.09769e-08 1.04824e-07)
(0.000762885 2.26924e-07 4.4837e-08)
(0.000763893 1.12443e-06 1.35141e-08)
(0.00101914 3.61561e-07 1.68164e-07)
(0.000761623 2.0518e-07 1.04107e-07)
(0.000762219 -4.50411e-09 5.5508e-08)
(0.00101695 2.17734e-07 1.71524e-07)
(0.00076093 -1.33739e-06 1.06298e-07)
(0.00101542 3.37362e-07 1.95104e-07)
(0.00349628 -0.00577477 0.000189522)
(0.00928518 -0.00381992 0.000125191)
(0.0151067 -0.00489919 -9.49152e-05)
(-0.00374604 0.00136427 -0.00148384)
(-0.00439223 -0.00744634 -0.00259868)
(-0.0194673 0.00245628 -0.00062881)
(-0.0151772 -0.00578262 4.03398e-06)
(-0.0150518 -0.00255005 -9.397e-05)
(0.0019126 -0.00232044 0.000116798)
(-0.0120495 0.00711519 -2.15965e-05)
(0.00282589 -0.0104837 -0.000443346)
(0.00968484 0.0018651 -0.001328)
(0.0117409 -0.00921687 0.00440285)
(0.0142172 0.00214792 -0.000257801)
(0.0108635 0.00189296 0.00152814)
(0.0121844 -0.0065498 -0.000639344)
(0.00478819 -0.000394304 3.67455e-05)
(0.00543213 0.00414542 -0.000419956)
(0.00733317 -0.000222921 -0.000632962)
(0.0121017 -0.00338126 -5.52746e-05)
(0.0175153 0.00301657 -0.000194853)
(0.0119462 0.00547405 -0.000357394)
(0.0141964 -0.0024506 0.000805464)
(0.012922 0.00126935 -0.000572254)
(0.0126203 0.00336037 -0.00196174)
(0.0103115 0.00777285 0.000290684)
(0.00172395 -0.00170523 0.000244191)
(0.00422674 -0.00934572 0.00038503)
(0.000471325 -0.00460796 0.000178926)
(0.00574793 -0.00797292 -6.27392e-05)
(0.0023613 -0.00899618 0.000738205)
(0.00070252 -0.000366857 3.24383e-06)
(0.0011446 0.000257108 -7.36646e-05)
(0.000853862 -0.000262691 9.31214e-06)
(0.000646968 -5.57289e-06 1.80195e-05)
(0.000904774 5.5854e-05 2.85911e-05)
(0.000557157 -8.47304e-05 2.59864e-05)
(0.000395979 -2.55228e-05 8.4185e-06)
(0.000439242 -2.14399e-05 1.06591e-05)
(0.000679586 -4.53813e-05 2.12727e-05)
(0.00030228 -2.33882e-05 3.67054e-06)
(0.00087452 5.37998e-06 -1.17051e-06)
(0.00091778 2.96506e-05 -2.19042e-06)
(0.00122661 2.42346e-06 -1.58238e-06)
(0.000668091 -7.18514e-06 -4.87141e-06)
(0.000657853 4.06331e-06 -5.26077e-06)
(0.00113468 -2.14318e-05 -5.48225e-06)
(0.00111317 2.08214e-06 -6.04719e-06)
(0.000852554 6.24955e-06 -6.6929e-08)
(0.000852089 2.08691e-05 -3.17701e-07)
(0.00114001 7.79325e-06 1.46086e-07)
(0.000837945 4.63698e-06 9.69493e-08)
(0.000842399 1.37613e-05 1.08818e-07)
(0.00112719 6.15376e-06 2.00845e-07)
(0.000828375 3.29585e-06 7.29416e-08)
(0.000830055 9.24543e-06 4.82562e-08)
(0.00110987 4.492e-06 1.89791e-07)
(0.00082224 2.21609e-06 6.2285e-08)