/*--------------------------------*- C++ -*----------------------------------*\
| =========                 |                                                 |
| \\      /  F ield         | OpenFOAM: The Open Source CFD Toolbox           |
|  \\    /   O peration     | Version:  5.0                                   |
|   \\  /    A nd           | Web:      www.OpenFOAM.org                      |
|    \\/     M anipulation  |                                                 |
\*---------------------------------------------------------------------------*/
FoamFile
{
    version     2.0;
    format      ascii;
    class       surfaceVectorField;
    location    "3";
    object      Uf_0;
}
// * * * * * * * * * * * * * * * * * * * * * * * * * * * * * * * * * * * * * //

dimensions      [0 1 -1 0 0 0 0];

internalField   nonuniform List<vector> 
26815
(
(0.00368527 -0.00700394 0.000977306)
(0.00409421 -0.00390339 -0.000329958)
(0.000643524 -0.0109804 0.00117944)
(-0.00179612 -0.00844066 1.31626e-05)
(0.00413679 -0.0144839 0.000317106)
(-0.00101022 -0.00612569 0.000143677)
(0.0018106 -0.011505 -0.00110653)
(0.00414583 -0.00786543 -0.00217447)
(0.00301204 -0.00581505 0.00151828)
(-0.0162284 -0.000995466 0.00196363)
(-0.00222743 -0.00949265 0.000795008)
(-0.0143764 -0.00885049 0.00243619)
(-0.000536099 0.00329434 -0.00350915)
(0.00395962 0.00570307 -0.00214705)
(0.00275362 0.0169928 0.0422982)
(-0.00850234 -0.0100865 -0.0925501)
(-0.0441892 0.00608602 0.142732)
(-0.0368352 0.0010682 -0.0888367)
(-0.0240567 0.02327 -0.00427905)
(-0.028704 0.026266 -0.0138246)
(0.0379531 0.0295883 0.00778239)
(0.0110569 0.0195084 0.000789262)
(0.0108237 0.00473202 -0.000100492)
(-0.00140185 -0.00932775 0.000177222)
(-0.00140185 -0.00932775 0.000177222)
(-0.00140185 -0.00932775 0.000177222)
(0.00540196 0.00867817 0.000259638)
(0.0072612 0.00720485 0.000265391)
(-0.00137802 0.00258952 0.00039523)
(0.00798261 0.00529605 0.00064661)
(-0.00440489 0.00395758 0.00019382)
(0.00220456 0.0047599 0.00121411)
(0.00109965 0.0123226 0.000623082)
(0.00343193 0.00884009 0.000346)
(0.0032433 0.0113444 0.000584665)
(0.00068374 0.00930148 0.000326061)
(0.00251198 0.0011017 -0.000416835)
(0.00785936 -0.00027503 -0.00015192)
(0.00472016 0.00641032 -0.000216311)
(0.010721 0.00203741 -0.000867236)
(0.000637081 -8.4892e-06 3.61037e-05)
(0.000423144 1.56277e-05 1.39661e-05)
(0.000586514 1.18708e-05 2.99216e-05)
(0.000272199 2.54711e-08 6.5801e-06)
(0.000826416 -3.26173e-05 -1.13982e-06)
(0.000853943 -4.39906e-05 -2.1853e-06)
(0.00112265 -5.24033e-05 -1.55386e-06)
(0.000600638 -2.10404e-05 -4.22888e-06)
(0.000586624 -3.28805e-05 -4.35638e-06)
(0.00103349 -2.29018e-05 -4.45886e-06)
(0.000993844 -5.14296e-05 -4.60343e-06)
(0.000818817 -1.92731e-05 6.16114e-08)
(0.000827665 -1.87658e-05 -4.97371e-08)
(0.0010923 -3.09227e-05 1.73353e-07)
(0.00081916 -1.1496e-05 9.9099e-08)
(0.00082383 -1.52766e-05 6.65505e-08)
(0.00109201 -1.85608e-05 1.7615e-07)
(0.000818961 -6.90977e-06 9.50133e-08)
(0.00082226 -9.42392e-06 8.57766e-08)
(0.00109219 -1.10379e-05 1.83721e-07)
(0.000818924 -4.20966e-06 6.17492e-08)
(0.000820887 -6.14674e-06 5.76602e-08)
(0.00109206 -6.7843e-06 1.80238e-07)
(0.000818423 -2.54961e-06 7.12844e-08)
(0.000820012 -3.90688e-06 5.61406e-08)
(0.00109197 -4.1044e-06 1.85059e-07)
(0.000817742 -1.55711e-06 6.71246e-08)
(0.000818929 -2.49174e-06 6.88406e-08)
(0.00109115 -2.46513e-06 1.77756e-07)
(0.000816579 -9.54359e-07 1.14162e-07)
(0.000817731 -1.50178e-06 5.10797e-08)
(0.00108986 -1.52382e-06 1.73788e-07)
(0.000815461 -6.34183e-07 1.17286e-07)
(0.000816353 -1.37927e-06 1.21018e-07)
(0.00108836 -9.33456e-07 1.93396e-07)
(0.000813998 -4.85423e-07 6.19209e-08)
(0.000814848 -5.91769e-07 5.39924e-08)
(0.00108663 -6.96039e-07 1.83165e-07)
(0.000812615 -3.33568e-07 6.3489e-08)
(0.000813472 -4.59614e-07 7.1131e-08)
(0.0010848 -5.1986e-07 1.80147e-07)
(0.000811067 -2.19069e-07 1.36073e-07)
(0.000811975 -5.8852e-07 5.59055e-08)
(0.00108275 -3.14187e-07 2.1505e-07)
(0.00080948 -1.71411e-07 1.40156e-07)
(0.000810345 -1.85192e-07 1.19835e-07)
(0.00108067 -2.75652e-07 1.7576e-07)
(0.000808088 -1.18181e-07 5.03528e-08)
(0.000808793 -2.86992e-08 7.55966e-08)
(0.00107882 -1.76603e-07 2.07299e-07)
(0.00080646 -1.31914e-07 4.09971e-08)
(0.000807156 1.29937e-08 4.98803e-08)
(0.00107671 -7.65973e-08 1.81381e-07)
(0.000804862 -1.36093e-07 4.75555e-08)
(0.000805619 -3.57423e-07 1.58647e-07)
(0.00107453 -1.70736e-07 2.19563e-07)
(0.000803381 -4.50507e-08 5.35332e-08)
(0.000804232 -2.56276e-07 4.12716e-08)
(0.00107256 -1.00602e-07 1.82643e-07)
(0.000801923 4.9194e-08 4.95118e-08)
(0.000802739 -1.64807e-07 1.82148e-08)
(0.0010706 5.98361e-08 1.84598e-07)
(0.00080051 7.20566e-08 4.43053e-08)
(0.00080116 1.33395e-07 5.49764e-08)
(0.00106867 1.73788e-07 1.21296e-07)
(0.000798946 1.28345e-08 4.91318e-08)
(0.000799599 1.00226e-07 4.61266e-08)
(0.00106663 1.03249e-07 1.6965e-07)
(0.00079762 -3.14092e-09 8.91749e-08)
(0.000798186 -1.93601e-07 4.7905e-08)
(0.00106489 -2.79629e-08 1.80082e-07)
(0.000795256 -1.21294e-07 1.47307e-07)
(0.000796359 1.28261e-06 1.00332e-07)
(0.00106232 3.60503e-08 1.97946e-07)
(0.000793995 -4.69979e-07 5.31154e-08)
(0.000794465 -4.53323e-07 6.87073e-08)
(0.0010598 -3.87063e-07 1.7255e-07)
(0.000792458 -6.20145e-07 -3.84827e-08)
(0.000793182 2.16159e-06 4.11274e-08)
(0.0010581 -9.16798e-07 -1.51324e-08)
(0.000790755 -4.79354e-07 -8.92909e-09)
(0.000791785 1.1936e-06 1.81121e-08)
(0.00105577 -7.68789e-07 8.73319e-08)
(0.000789498 -2.86452e-07 2.02002e-08)
(0.000790361 1.38835e-07 8.48967e-08)
(0.00105383 -5.19809e-07 2.00642e-07)
(0.000788466 -5.98281e-08 4.27469e-08)
(0.000789181 2.45997e-07 1.62965e-07)
(0.0010525 -2.13817e-07 1.13818e-07)
(0.000786794 6.86772e-08 5.22871e-08)
(0.000787615 1.19834e-07 4.88943e-08)
(0.00105067 1.02953e-07 1.74718e-07)
(0.000785149 9.16797e-08 5.07853e-08)
(0.000785891 1.01821e-07 4.66615e-08)
(0.00104841 1.30376e-07 1.99876e-07)
(0.000783363 1.24787e-07 4.14115e-08)
(0.000784376 1.2542e-07 4.41283e-08)
(0.00104607 1.68744e-07 2.0858e-07)
(0.000781998 2.59794e-07 4.75118e-09)
(0.000782849 1.25284e-07 4.75878e-08)
(0.00104385 2.22544e-07 1.63827e-07)
(0.0007804 4.13607e-07 6.51064e-08)
(0.000781324 2.78561e-07 -5.38183e-10)
(0.001042 5.4814e-07 1.89255e-07)
(0.000779592 2.97628e-07 9.6849e-08)
(0.000779907 -9.64545e-07 8.68224e-08)
(0.00104052 5.96986e-07 1.90639e-07)
(0.000778093 1.88449e-07 5.18068e-08)
(0.000778571 1.36582e-07 4.3567e-08)
(0.00103886 1.93472e-07 1.77528e-07)
(0.000776868 -3.94161e-08 7.24747e-08)
(0.000777056 1.89458e-08 6.33813e-08)
(0.00103702 2.94958e-07 1.68741e-07)
(0.000774792 -2.94531e-07 1.69818e-07)
(0.000775644 1.08301e-06 5.70285e-08)
(0.001035 -3.94962e-07 1.59302e-07)
(0.000773353 -2.43834e-07 1.60135e-07)
(0.000774241 -5.6219e-07 1.67922e-07)
(0.00103244 -3.61358e-07 1.93202e-07)
(0.000771989 -2.17715e-07 5.20481e-08)
(0.000772775 1.5277e-08 5.50825e-08)
(0.00103062 -2.84293e-07 1.67788e-07)
(0.000770644 -2.5584e-07 5.70572e-08)
(0.000771341 -1.39548e-08 5.28628e-08)
(0.00102885 -3.11618e-07 1.65617e-07)
(0.000769317 -3.9524e-07 9.07654e-08)
(0.000769955 -1.23302e-07 7.79397e-08)
(0.00102698 -3.52314e-07 1.7647e-07)
(0.000767898 -4.01915e-07 4.6853e-08)
(0.00076863 -3.87347e-07 8.2201e-08)
(0.00102536 -6.36915e-07 1.70681e-07)
(0.000766042 -2.60171e-07 2.99104e-08)
(0.000766955 1.26814e-06 3.06079e-08)
(0.00102304 -4.01404e-07 8.13598e-08)
(0.000765543 -4.96877e-07 5.56706e-08)
(0.00102064 -3.06596e-07 2.62695e-07)
(0.00768796 0.00112559 -6.10354e-05)
(0.00577836 0.00247518 -0.000321266)
(0.0017963 0.00258566 -0.000997889)
(-0.00417846 -0.000348694 0.000111939)
(0.00351244 -0.000168077 0.000608717)
(0.00404535 -0.000239573 0.000637955)
(0.00116022 -0.00513372 0.000107455)
(0.00351747 0.00473012 0.00074687)
(-0.00613036 -0.00114222 0.000495972)
(0.00221381 -0.00704292 5.79309e-06)
(0.00524323 -0.000538615 0.00032245)
(0.00268424 -0.00343445 -0.000462324)
(0.00512292 -0.00213867 0.000625757)
(0.000176042 0.00142516 0.000275008)
(-0.00296264 -0.00117884 0.000176743)
(-0.00195055 0.00159506 0.000560344)
(0.000355542 -0.00256769 -0.000368984)
(-0.00535436 -0.00246929 -0.000226346)
(-0.00568919 0.00267912 7.65375e-05)
(-0.00665491 -0.00106107 -0.000253116)
(-0.00745239 -0.000436041 -0.000824555)
(-0.00106138 -0.00403628 -0.000343802)
(-0.00140185 -0.00932775 0.000177222)
(-0.00140185 -0.00932775 0.000177222)
(-0.00106138 -0.00403628 -0.000343802)
(0.00496993 0.00205845 0.000522191)
(0.00398195 0.00350757 -0.000259986)
(0.0184908 -0.00157492 0.000227077)
(0.0092835 -0.00510056 0.000740964)
(0.00549818 -0.0031028 -5.31885e-05)
(0.00734604 -0.00934902 0.000173058)
(0.0099025 -0.00277518 0.000358228)
(0.00569999 -0.000831711 -7.52233e-05)
(0.00504811 0.00215787 0.000906113)
(0.0040035 0.00171316 -0.000365352)
(0.0124878 -0.00196598 8.38991e-05)
(-0.0106225 0.000714829 -0.000382758)
(-0.00634407 -0.00327756 0.00015882)
(-0.00199277 0.00118368 -4.3387e-05)
(-0.00553776 0.0031641 -0.000120334)
(-0.0129475 0.000296896 -0.000531583)
(0.00114185 -3.9342e-05 1.41463e-05)
(0.000435579 -5.06855e-05 2.76446e-05)
(0.000465157 -7.80409e-05 4.0696e-05)
(0.000618289 -4.60567e-05 7.16569e-05)
(0.00031401 -3.45128e-05 1.82956e-05)
(0.000846877 -2.46938e-05 -1.09591e-06)
(0.000601251 -2.33275e-05 -1.07488e-06)
(0.00115281 -5.97396e-05 -1.59126e-06)
(0.000606221 -3.20233e-05 -4.67641e-06)
(0.000617932 -5.26381e-05 -3.13677e-06)
(0.0010189 -5.04541e-05 -4.71698e-06)
(0.00106179 -9.86831e-05 1.21679e-06)
(0.00056744 -4.25179e-05 -4.35581e-06)
(0.00101188 -4.52888e-05 -4.87403e-07)
(0.000935894 -7.0982e-05 -5.49825e-06)
(0.000831136 -8.4807e-06 -4.48361e-08)
(0.000858634 -2.46325e-08 -8.93568e-07)
(0.00111342 -4.55624e-06 1.06974e-07)
(0.000826982 -1.07587e-05 5.32218e-08)
(0.000821083 -1.19542e-05 -1.83365e-07)
(0.00110427 -1.72949e-05 1.69668e-07)
(0.000823854 -7.16819e-06 4.84327e-08)
(0.000826788 -7.5455e-06 1.23103e-07)
(0.00110035 -1.08818e-05 1.80382e-07)
(0.000821993 -5.02855e-06 5.20521e-08)
(0.000823589 -5.87526e-06 5.03558e-08)
(0.00109712 -7.93278e-06 1.8152e-07)
(0.000820434 -3.34002e-06 5.36927e-08)
(0.000822142 -4.04343e-06 5.99343e-08)
(0.00109512 -5.28053e-06 1.83713e-07)
(0.000818966 -2.19502e-06 5.28015e-08)
(0.000820373 -2.71421e-06 5.47811e-08)
(0.00109316 -3.53167e-06 1.82393e-07)
(0.000817553 -1.42216e-06 5.79125e-08)
(0.000818706 -1.78683e-06 5.45705e-08)
(0.00109129 -2.29078e-06 1.82722e-07)
(0.000815751 -8.96526e-07 5.77458e-08)
(0.000817016 -9.0322e-07 6.12811e-08)
(0.00108917 -1.50286e-06 1.6444e-07)
(0.000814165 -5.19894e-07 6.31969e-08)
(0.000815323 -6.22314e-07 5.4688e-08)
(0.00108696 -9.09385e-07 1.80895e-07)
(0.000812998 -2.29348e-07 6.35524e-08)
(0.000813838 -1.00702e-06 9.38167e-08)
(0.00108512 -5.20739e-07 1.8074e-07)
(0.000811253 -7.98568e-08 3.9647e-08)
(0.000812163 6.76595e-07 9.82214e-10)
(0.00108313 -1.49889e-07 1.0587e-07)
(0.000809618 -7.94105e-10 5.52896e-08)
(0.000810444 -1.34943e-07 3.43738e-08)
(0.00108093 -8.89842e-08 1.80758e-07)
(0.000807854 3.95928e-08 7.51323e-08)
(0.000808843 1.76178e-07 6.20292e-08)
(0.00107871 8.42046e-08 1.81572e-07)
(0.00080626 1.22102e-07 1.67495e-07)
(0.000807258 1.16636e-08 5.77946e-08)
(0.00107646 2.22114e-08 1.81519e-07)
(0.000805027 2.22497e-07 1.524e-07)
(0.000805744 6.36756e-07 1.6368e-07)
(0.0010745 3.32954e-07 8.0967e-08)
(0.000803579 1.26282e-07 5.96053e-09)
(0.000804111 -9.4945e-07 -1.60885e-08)
(0.00107281 3.12844e-07 2.17579e-07)
(0.000801964 -2.62697e-08 2.36678e-08)
(0.000802548 1.41339e-08 1.16855e-08)
(0.00107082 8.12537e-08 1.71634e-07)
(0.000800277 -1.48071e-07 5.68005e-08)
(0.000801008 5.66342e-08 5.25983e-08)
(0.0010685 -9.55652e-08 1.96095e-07)
(0.000798784 -2.57548e-07 4.48992e-08)
(0.000799463 4.26386e-08 5.27772e-08)
(0.00106636 -2.46103e-07 1.77866e-07)
(0.000797145 -5.80958e-07 5.90456e-08)
(0.000797783 8.73933e-09 5.57207e-08)
(0.00106437 -4.01054e-07 1.72777e-07)
(0.000795383 -6.80742e-07 2.1742e-08)
(0.000796236 1.41626e-06 1.60851e-08)
(0.00106208 -1.14542e-06 1.88594e-07)
(0.000793546 -5.00829e-07 5.6728e-08)
(0.000794693 -3.07342e-07 -4.3453e-08)
(0.00105957 -6.89063e-07 1.944e-07)
(0.000792614 -3.93889e-07 9.77296e-08)
(0.000793317 2.3141e-08 1.08855e-07)
(0.00105786 -6.44691e-07 2.76304e-07)
(0.000791363 -8.82758e-09 1.11917e-07)
(0.000792267 -5.94586e-08 6.23107e-08)
(0.00105644 -3.76707e-07 2.42181e-07)
(0.000789967 3.85594e-07 2.27637e-07)
(0.000790853 5.36368e-07 2.33639e-07)
(0.00105462 4.40746e-07 1.38059e-07)
(0.000788551 2.94591e-07 1.69148e-07)
(0.000789066 6.77282e-07 2.06238e-07)
(0.00105284 6.95402e-07 1.37608e-07)
(0.000786537 8.16705e-08 4.32694e-08)
(0.000787347 7.64075e-07 5.45679e-08)
(0.0010505 1.54094e-07 1.75736e-07)
(0.000785167 6.85947e-08 4.00053e-08)
(0.000785874 -4.41675e-08 4.30937e-08)
(0.00104816 1.0636e-07 1.74774e-07)
(0.000783848 1.34251e-07 5.03035e-08)
(0.000784458 -1.69636e-07 5.21315e-08)
(0.00104642 1.0764e-07 1.81077e-07)
(0.000782214 2.80573e-07 4.23133e-08)
(0.00078303 1.7287e-07 5.01622e-08)
(0.00104455 2.97151e-07 1.85062e-07)
(0.00078072 4.54412e-07 2.11507e-08)
(0.00078154 4.42442e-07 3.66328e-08)
(0.00104236 5.35865e-07 1.64182e-07)
(0.000778917 3.52185e-07 3.35537e-08)
(0.000779777 -8.14748e-07 2.51384e-08)
(0.00104007 7.22952e-07 1.93261e-07)
(0.000777623 1.26865e-08 5.51353e-08)
(0.000778146 -1.54397e-08 5.93801e-08)
(0.00103812 1.99831e-07 1.69479e-07)
(0.000775726 -3.60698e-07 4.79371e-08)
(0.00077659 8.3975e-07 5.63203e-08)
(0.00103593 -1.788e-07 1.53806e-07)
(0.000775137 -5.16847e-07 5.50984e-08)
(0.000775451 -1.25272e-06 -1.16936e-08)
(0.00103423 -7.68298e-07 2.64225e-07)
(0.000773654 -2.76713e-07 6.29044e-08)
(0.000774543 -7.04831e-08 8.32504e-08)
(0.00103304 -6.2451e-07 1.40685e-07)
(0.000772135 -1.14772e-07 5.58978e-08)
(0.000772979 -2.45007e-08 4.26046e-08)
(0.00103094 -1.62668e-07 1.82808e-07)
(0.000770599 -2.79514e-08 7.37376e-08)
(0.00077145 6.08645e-08 8.93977e-08)
(0.00102892 -1.80885e-07 1.76294e-07)
(0.000769295 -3.6926e-08 6.9374e-08)
(0.000769944 3.62982e-07 7.83394e-08)
(0.00102707 1.06856e-07 1.25636e-07)
(0.000767819 -2.55808e-07 6.59716e-08)
(0.000768356 -3.70858e-07 4.93009e-08)
(0.00102515 -1.67069e-07 1.75665e-07)
(0.000766199 -3.08351e-07 5.63605e-08)
(0.000766893 4.33798e-07 7.03671e-08)
(0.00102301 -4.8009e-07 2.51427e-07)
(0.000765928 7.10769e-08 5.5298e-08)
(0.00102163 -3.25302e-07 8.20892e-08)
(0.0056574 -0.00215206 0.000435004)
(0.00430381 0.00622421 3.56738e-06)
(0.00420433 -0.000449007 -0.000345151)
(-0.000891224 7.27948e-05 0.00185337)
(0.0041259 0.00246699 0.000573126)
(-0.000982622 0.00461203 -0.00284434)
(-0.000154078 -0.00791821 0.00032474)
(0.00319177 -0.00824597 0.00176349)
(0.00191696 -0.000714648 0.00102517)
(0.000995303 0.00970171 -0.000879674)
(-0.00793744 -0.003504 0.00121547)
(0.000951501 -0.00447036 0.000337892)
(0.0147576 -0.0185045 -0.00388256)
(-0.00199016 -0.00601101 0.00065447)
(0.00324723 -0.0171366 0.00143257)
(-0.0055917 -0.0127404 -0.000564148)
(-0.00135383 0.00462486 0.00046366)
(0.000431528 0.0081573 -0.00162494)
(0.011086 0.00450059 -0.00037999)
(0.000926698 0.00146572 0.000251956)
(0.00365728 -0.0058014 -0.00137941)
(0.00324277 -0.00577498 -0.000581684)
(0.00211591 0.0150078 -0.000149418)
(0.00469728 0.00509201 5.05656e-05)
(0.00187254 0.0095202 0.00036672)
(0.0126887 0.00562742 0.000740546)
(0.00911522 0.0120452 0.000248016)
(-0.00142052 0.00493615 -0.000164372)
(8.69021e-05 0.00807486 -0.000263731)
(0.00146319 0.00798785 -0.000101139)
(-0.00102946 0.0126435 0.000275246)
(0.000115103 0.0135642 -0.000634923)
(0.000631828 0.000264242 4.24445e-05)
(0.00100834 0.000117708 -1.27224e-05)
(0.00163885 0.000540302 3.33493e-05)
(0.00127648 0.000318056 -7.52727e-05)
(0.00118655 5.41164e-06 9.00758e-06)
(0.00032186 -3.43192e-05 -2.36877e-06)
(0.000475717 -2.71423e-05 -3.17653e-06)
(0.000469819 -3.64468e-05 1.85259e-07)
(0.000776899 -4.35726e-05 -6.84156e-07)
(0.000332726 -1.47746e-05 -1.95379e-06)
(0.000572542 -7.5003e-05 -3.31937e-06)
(0.000600213 -2.53833e-05 -1.10093e-06)
(0.000823509 -1.14927e-05 -1.03233e-06)
(0.000885941 -2.54995e-05 -1.70963e-06)
(0.00117404 -1.27131e-05 -8.81843e-07)
(0.000593404 -2.19936e-05 -4.22168e-06)
(0.000606249 -1.76301e-05 -4.74378e-06)
(0.000968122 -4.81169e-05 -5.36438e-06)
(0.0010003 -3.87928e-05 -6.13097e-06)
(0.000825834 -1.12786e-05 -1.13584e-07)
(0.000821376 -1.53175e-05 -3.87833e-07)
(0.00108438 -1.87587e-05 7.05162e-08)
(0.000825401 -7.38936e-06 1.2505e-07)
(0.000831698 -9.54891e-06 1.69935e-07)
(0.001104 -1.16969e-05 2.15616e-07)
(0.000823863 -5.07311e-06 5.82348e-08)
(0.000826516 -6.04372e-06 4.25773e-08)
(0.00109913 -8.21991e-06 1.83858e-07)
(0.000821984 -3.35288e-06 6.10244e-08)
(0.000824314 -3.81478e-06 6.20827e-08)
(0.00109752 -5.42525e-06 1.8624e-07)
(0.000820073 -2.21414e-06 5.65502e-08)
(0.000821811 -2.40439e-06 5.54526e-08)
(0.00109492 -3.5864e-06 1.83913e-07)
(0.000818208 -1.48481e-06 5.79369e-08)
(0.000819627 -1.52259e-06 5.47309e-08)
(0.00109242 -2.35764e-06 1.83592e-07)
(0.000816529 -9.7554e-07 5.82255e-08)
(0.000817659 -9.70381e-07 5.68576e-08)
(0.0010901 -1.61674e-06 1.91029e-07)
(0.000814902 -5.42576e-07 8.52952e-08)
(0.000815868 -6.66461e-07 5.48278e-08)
(0.00108787 -1.00287e-06 1.85289e-07)
(0.00081319 -4.12647e-07 3.12764e-08)
(0.000814003 -2.30875e-06 5.23402e-08)
(0.00108575 -5.04797e-07 2.7994e-07)
(0.000811198 -3.84125e-07 -4.30171e-09)
(0.000812201 4.37159e-07 3.83351e-09)
(0.0010833 -6.64479e-07 2.31415e-07)
(0.00080976 -2.71542e-07 4.11045e-08)
(0.000810587 -3.34241e-07 4.21892e-08)
(0.00108096 -3.93725e-07 1.81081e-07)
(0.000808132 -1.2348e-07 4.46929e-08)
(0.000809029 1.0259e-07 5.85138e-08)
(0.00107895 -3.41913e-07 1.89116e-07)
(0.000806771 8.93043e-08 5.39455e-08)
(0.000807524 -2.67633e-07 5.0735e-08)
(0.00107701 -3.04621e-09 1.80527e-07)
(0.000804885 1.81241e-07 -4.75148e-09)
(0.000805858 1.75247e-07 5.21899e-08)
(0.00107489 2.09192e-07 2.39348e-07)
(0.000802984 1.46533e-07 -1.03723e-08)
(0.000804067 -4.51255e-08 -4.61273e-09)
(0.00107224 2.67208e-07 1.45547e-07)
(0.000801621 6.70272e-08 4.0603e-08)
(0.000802448 -1.44953e-07 3.71289e-08)
(0.00107008 1.19514e-07 1.73217e-07)
(0.000800177 -1.98202e-09 4.85749e-08)
(0.000800922 -1.04151e-07 3.14187e-08)
(0.00106826 4.57416e-08 1.80635e-07)
(0.000798577 -5.16858e-08 6.35978e-08)
(0.000799401 5.24706e-08 6.1737e-08)
(0.00106625 -3.27894e-08 1.8251e-07)
(0.000796709 -7.20965e-08 1.27727e-08)
(0.000797757 -4.78089e-08 7.6886e-08)
(0.00106377 -6.01604e-08 2.11052e-07)
(0.000795725 1.63132e-07 -4.90912e-08)
(0.00079653 -7.15375e-07 -6.53853e-09)
(0.00106197 -8.49822e-08 2.79658e-07)
(0.000794175 5.63215e-07 8.62611e-09)
(0.000795191 -1.08114e-06 -1.32352e-08)
(0.00106043 5.65165e-07 2.3414e-07)
(0.000793095 7.17729e-07 7.34508e-08)
(0.000793508 -8.98993e-07 4.86952e-08)
(0.00105849 9.68085e-07 2.03329e-07)
(0.000791783 5.68142e-07 1.83979e-07)
(0.000792077 -1.89173e-06 2.73341e-08)
(0.00105712 9.47315e-07 2.88702e-07)
(0.000790076 3.46203e-07 2.12248e-07)
(0.000790573 3.84465e-07 1.84544e-07)
(0.00105517 5.72705e-07 2.04649e-07)
(0.000787755 1.2373e-07 9.1705e-08)
(0.000788787 4.54143e-08 8.75354e-08)
(0.00105214 3.65709e-07 2.93621e-07)
(0.000786639 4.47818e-08 5.43957e-08)
(0.000787248 1.45027e-07 5.00458e-08)
(0.00104993 -2.0675e-08 1.85824e-07)
(0.000785178 1.03539e-07 5.52171e-08)
(0.000785948 -1.09151e-07 4.62162e-08)
(0.00104835 1.36724e-07 1.77048e-07)
(0.000783653 5.83568e-08 5.19908e-08)
(0.000784401 4.02115e-08 5.27004e-08)
(0.0010463 1.28982e-07 1.63497e-07)
(0.000782288 3.56615e-08 4.44858e-08)
(0.000783002 6.05814e-08 4.65415e-08)
(0.00104438 3.1483e-08 1.7229e-07)
(0.000780819 4.5956e-09 4.0624e-08)
(0.000781501 4.97384e-07 2.95817e-08)
(0.00104253 5.03435e-08 1.69839e-07)
(0.000778785 4.95525e-08 5.09543e-08)
(0.000779834 -4.76067e-07 2.9036e-08)
(0.0010401 -4.2846e-08 2.00456e-07)
(0.000777297 1.37161e-07 6.0566e-08)
(0.000778255 3.56627e-08 5.94778e-08)
(0.00103773 1.76861e-07 1.72279e-07)
(0.000775864 3.87086e-07 -3.28952e-09)
(0.000776902 4.87079e-07 6.81465e-08)
(0.00103581 1.7778e-07 1.96676e-07)
(0.000775206 4.71394e-07 1.64293e-08)
(0.000775554 1.15966e-06 3.4611e-08)
(0.00103445 8.37131e-07 -7.29955e-08)
(0.0007739 2.74498e-07 6.29631e-08)
(0.000774295 4.27924e-07 5.24399e-08)
(0.0010332 4.50616e-07 1.24205e-07)
(0.000772245 2.4426e-07 7.60902e-08)
(0.000772939 -4.26879e-08 2.91947e-08)
(0.00103118 3.86573e-07 1.93588e-07)
(0.000770764 2.93943e-07 9.40029e-08)
(0.00077151 -3.21099e-08 8.11676e-08)
(0.00102919 3.66535e-07 1.83577e-07)
(0.000769013 2.54336e-07 5.82751e-08)
(0.000769892 2.36371e-07 7.48348e-08)
(0.001027 4.67881e-07 2.10916e-07)
(0.000767415 1.22474e-07 5.36899e-08)
(0.000768191 -4.19328e-08 4.48254e-08)
(0.00102463 2.48751e-07 1.64006e-07)
(0.00076642 8.09799e-08 6.93092e-08)
(0.000766839 -2.07097e-07 4.90588e-08)
(0.00102285 1.19308e-07 1.80135e-07)
(0.000765827 1.31275e-07 6.53559e-08)
(0.00102164 1.10173e-07 1.59294e-07)
(0.00961942 0.00622096 0.00240857)
(0.0106174 -0.00154855 -0.000128084)
(-0.000403512 0.00724836 0.000281976)
(-0.00503137 -0.00194207 0.000535746)
(0.0122857 -0.00085164 -4.52123e-05)
(-0.00648105 -0.00042735 0.00244902)
(-0.00205074 -0.00033554 0.000288872)
(0.00228661 0.0026086 0.00106114)
(0.00366983 -0.000396851 0.000592242)
(0.00262426 -0.000323883 0.00197313)
(0.00650257 0.00293146 0.00239132)
(0.00833713 0.00645574 0.00319537)
(0.0259285 -0.00227191 0.00773587)
(-0.0232006 0.0108515 0.000129188)
(-0.0299697 0.00121242 -0.00246784)
(-0.0270555 0.020562 0.00160845)
(0.017959 -0.020786 0.000473422)
(0.00194293 -6.53666e-05 0.000379566)
(-0.00221952 0.00383686 0.000140931)
(0.00616143 0.00661515 0.0012776)
(0.00149566 0.00612615 0.00124073)
(-0.0249246 -0.0111273 0.00169728)
(0.00285744 -0.0039724 0.000146126)
(-0.00533285 0.00202851 0.000210196)
(-0.0301729 -0.00258544 -0.00147008)
(-0.00592105 -0.0131979 0.000937706)
(0.0335351 0.00838914 -0.000466849)
(-0.0232015 -0.0147027 0.00231566)
(0.00474029 -0.00604453 -0.00380588)
(0.000547965 -0.00630192 0.000484661)
(-0.000238144 -0.0126458 0.000342596)
(0.00170856 -0.0083997 3.47459e-05)
(0.00849404 -0.00440648 0.00133148)
(0.0139289 -0.00597205 0.000193434)
(-0.000197837 -0.00222395 7.8533e-05)
(-0.0020773 -0.00715216 -4.83522e-05)
(4.60151e-06 -0.00170763 -5.60036e-05)
(-0.00269538 -0.00308432 -0.000122169)
(-0.0015735 -0.00504939 -0.000117325)
(-0.000361877 -0.000421218 -2.28897e-06)
(0.000252259 -7.44758e-05 1.91045e-05)
(9.373e-05 -0.00027468 -1.71188e-05)
(0.000235006 -0.00061254 -7.7991e-05)
(0.000723318 -2.91608e-05 3.01174e-05)
(0.000386893 -4.18728e-05 3.65662e-06)
(0.000505008 -2.52457e-05 -2.80816e-06)
(0.000827025 -7.66247e-05 3.19645e-06)
(0.000358729 -6.25302e-05 1.82264e-05)
(0.000721983 -7.7635e-05 1.0525e-05)
(0.000637221 -9.20238e-05 4.62134e-05)
(0.000485759 -4.08442e-05 5.17092e-07)
(0.000367988 -3.59115e-05 1.39638e-06)
(0.00066723 -7.73476e-05 8.34067e-06)
(0.000586492 -8.82854e-05 -1.9055e-06)
(0.000326148 -4.34487e-05 -1.75819e-06)
(0.000841141 -2.13731e-05 -1.06556e-06)
(0.000889136 -2.21753e-05 -1.83444e-06)
(0.00118736 -3.97774e-05 -1.24878e-06)
(0.000616483 -1.3475e-05 -4.2224e-06)
(0.000623142 -1.02075e-05 -4.3949e-06)
(0.00101609 -2.19592e-05 -5.4044e-06)
(0.00105785 -1.51289e-05 -5.14003e-06)
(0.000835964 -1.10847e-05 -1.04496e-07)
(0.000834327 -9.41675e-06 -3.08502e-07)
(0.0011056 -1.87197e-05 7.89767e-08)
(0.000831089 -6.77094e-06 8.75038e-08)
(0.000837139 -5.81515e-06 1.39509e-07)
(0.00111365 -1.17675e-05 2.03225e-07)
(0.000827192 -4.07363e-06 4.64188e-08)
(0.000829919 -3.19206e-06 3.24626e-08)
(0.00110504 -6.82998e-06 1.79389e-07)
(0.000823985 -2.54158e-06 5.65131e-08)
(0.000826247 -1.92087e-06 1.55748e-07)
(0.00110097 -4.36038e-06 1.8604e-07)
(0.000821302 -1.53237e-06 5.36336e-08)
(0.000823084 -1.12733e-06 5.43291e-08)
(0.00109703 -2.61357e-06 1.83794e-07)
(0.000819011 -9.20606e-07 5.36509e-08)
(0.000820398 -7.27411e-07 3.94022e-08)
(0.00109377 -1.57084e-06 1.83561e-07)
(0.000816953 -5.7701e-07 5.34606e-08)
(0.000818092 -4.52091e-07 4.88325e-08)
(0.00109088 -9.17909e-07 1.832e-07)
(0.000815081 -4.32634e-07 2.18736e-08)
(0.000816051 -3.98762e-07 5.05097e-08)
(0.00108836 -6.32215e-07 1.84876e-07)
(0.000812888 -4.37326e-07 2.49129e-08)
(0.000813999 -1.534e-07 2.11705e-08)
(0.00108555 -5.04657e-07 8.27722e-08)
(0.000811574 -4.64972e-07 5.03121e-08)
(0.000812168 -8.46946e-09 1.21532e-07)
(0.00108328 -6.20307e-07 1.87024e-07)
(0.000809826 -3.46795e-07 5.95933e-08)
(0.000810736 -4.11161e-07 5.90886e-08)
(0.00108134 -5.86947e-07 1.99555e-07)
(0.000808435 -2.0741e-07 6.45584e-08)
(0.000809205 -1.34257e-08 7.16074e-08)
(0.0010792 -3.26021e-07 1.71517e-07)
(0.000806663 -2.18625e-07 4.89789e-08)
(0.000807511 -1.68579e-08 5.58708e-08)
(0.00107715 -2.37876e-07 1.79471e-07)
(0.000805008 -2.03055e-07 5.23467e-08)
(0.000805879 -1.67892e-07 1.71659e-07)
(0.00107484 -3.62078e-07 2.10884e-07)
(0.000803502 -2.35167e-08 4.28752e-08)
(0.000804292 9.62338e-08 7.92221e-08)
(0.0010727 -1.95601e-07 1.6444e-07)
(0.000801729 1.61067e-07 2.79463e-08)
(0.000802679 7.63627e-08 9.6253e-08)
(0.00107055 1.03818e-07 1.82448e-07)
(0.000800126 2.60734e-07 4.45712e-08)
(0.000801045 -4.8041e-09 4.47681e-08)
(0.00106831 2.89929e-07 1.76315e-07)
(0.000798675 3.27768e-07 7.50204e-08)
(0.000799483 1.643e-08 6.47093e-08)
(0.00106623 3.91763e-07 1.72738e-07)
(0.000797316 6.11019e-07 5.76011e-08)
(0.000798109 -5.19533e-07 5.90931e-08)
(0.0010643 5.22067e-07 1.95471e-07)
(0.000796322 7.16459e-07 2.93196e-08)
(0.000796658 -2.64346e-06 9.5148e-09)
(0.00106286 1.18758e-06 2.66257e-07)
(0.000794313 6.4356e-07 2.68145e-08)
(0.000795097 3.98909e-07 4.84418e-08)
(0.00106088 8.01792e-07 1.15503e-07)
(0.000792627 7.03512e-07 2.58532e-09)
(0.000793579 -4.26606e-07 3.59375e-08)
(0.00105833 9.67963e-07 1.5831e-07)
(0.000790731 4.12692e-07 2.78498e-08)
(0.000791711 -6.44721e-07 1.81693e-08)
(0.00105594 9.59705e-07 1.22072e-07)
(0.000789488 2.22124e-08 5.98614e-08)
(0.000790084 -1.06893e-07 3.33837e-07)
(0.00105389 1.94458e-07 1.87631e-07)
(0.000788008 2.02179e-08 4.58879e-08)
(0.000788784 2.95496e-08 5.10629e-08)
(0.00105209 -1.0716e-07 1.75053e-07)
(0.000786725 8.69286e-08 4.18675e-08)
(0.000787331 3.69301e-07 5.09386e-08)
(0.00105021 1.68722e-07 1.40465e-07)
(0.000785109 2.43136e-08 4.36975e-08)
(0.000785869 4.23405e-08 4.4587e-08)
(0.00104834 6.05699e-08 1.75535e-07)
(0.000783705 7.06865e-09 4.7253e-08)
(0.000784379 -4.68622e-08 4.03091e-08)
(0.00104629 -5.24485e-09 1.73866e-07)
(0.00078229 -1.25269e-07 3.16427e-08)
(0.000782837 7.38023e-09 4.5049e-08)
(0.00104446 -7.2651e-09 1.72575e-07)
(0.000780515 -2.63116e-07 1.79939e-08)
(0.000781329 1.702e-06 5.46423e-08)
(0.00104227 -3.69106e-07 1.14751e-07)
(0.000779302 -1.11628e-07 3.75501e-08)
(0.000780024 -1.55936e-07 5.43401e-08)
(0.00104023 -3.67118e-07 1.27987e-07)
(0.000777783 1.48416e-07 6.70557e-08)
(0.00077858 9.55273e-08 4.48671e-08)
(0.0010384 5.01199e-08 1.74477e-07)
(0.000776659 4.06341e-07 1.06057e-07)
(0.000777223 -6.02521e-07 2.46972e-07)
(0.00103676 3.63306e-07 2.22022e-07)
(0.000774501 5.1225e-07 7.06162e-08)
(0.000775685 7.74738e-08 8.03041e-08)
(0.00103457 7.54408e-07 3.15404e-07)
(0.000773473 2.82935e-07 1.86787e-08)
(0.000774006 -2.11232e-06 -1.3877e-08)
(0.00103247 6.38849e-07 3.19213e-07)
(0.000772135 6.65263e-08 3.42563e-08)
(0.000772667 1.74846e-07 3.38885e-08)
(0.00103083 1.49953e-07 1.47645e-07)
(0.000770833 -1.12703e-08 6.20015e-08)
(0.000771412 -8.00135e-09 4.2845e-08)
(0.00102901 5.83334e-08 1.58707e-07)
(0.000768828 1.3229e-08 6.13943e-08)
(0.000769923 -4.88811e-07 2.06043e-08)
(0.00102692 -7.81503e-08 2.77688e-07)
(0.000767676 1.89416e-07 4.01931e-08)
(0.000768411 -3.01835e-07 -1.03715e-07)
(0.00102471 1.10425e-07 1.66273e-07)
(0.0007661 2.62851e-07 4.51006e-08)
(0.000766928 6.11586e-08 2.38083e-08)
(0.00102283 3.7377e-07 1.66853e-07)
(0.000765499 3.63974e-07 7.04553e-08)
(0.00102134 3.15357e-07 1.24312e-07)
(0.00408263 -0.00638549 0.000250257)
(0.00963152 -0.00420099 0.000126347)
(0.0157874 -0.00516481 -0.000123974)
(-0.00461962 -0.000173256 -0.00223563)
(-0.00521245 -0.00858752 -0.00265912)
(-0.0209478 0.00214061 -0.00074566)
(-0.0171144 -0.00671342 2.88691e-05)
(-0.0141942 -0.00410683 -0.000156496)
(0.000808964 -0.00271381 0.000370747)
(-0.0108424 0.0131796 0.0015432)
(0.00309014 -0.00958637 -0.000674967)
(0.0118916 0.000152447 -0.00171464)
(0.0123337 -0.0107483 0.00497001)
(0.00848974 0.00273543 -0.000131629)
(0.0092792 -0.00206993 0.00173696)
(0.0141101 -0.00861129 0.000459605)
(0.00741269 -0.000766529 0.000323491)
(0.00327458 0.00611984 4.38981e-05)
(0.0084782 0.00213107 -0.000617311)
(0.0144108 -0.0034069 0.000223438)
(0.0187778 0.00547845 -9.17208e-05)
(0.0141589 0.00789449 -0.000580562)
(0.0121867 -0.00180733 0.00108048)
(0.0142367 0.00120845 -0.000628355)
(0.0144081 0.00481417 -0.00145706)
(0.0101431 0.0085344 0.000355645)
(0.000427625 -0.000591604 0.000157465)
(-0.00047795 -0.00989555 0.000466208)
(-0.000391033 -0.00438342 0.000103685)
(0.00415998 -0.00832113 -0.0001856)
(-0.000408213 -0.0086032 0.000513237)
(0.000522996 -0.000316918 4.65699e-06)
(0.000991124 0.000288302 -6.79517e-05)
(0.000690635 -0.000242134 8.49236e-06)
(0.000486698 4.57671e-05 1.61613e-05)
(0.000755795 9.7526e-05 2.75357e-05)
(0.000531541 -8.6933e-05 2.46782e-05)
(0.000376663 -2.74464e-05 8.19217e-06)
(0.000417942 -2.75259e-05 1.03442e-05)
(0.000640255 -5.45003e-05 2.10456e-05)
(0.000282673 -2.82984e-05 3.749e-06)
(0.000850693 -1.10101e-05 -1.07788e-06)
(0.000895095 -5.82676e-06 -2.04438e-06)
(0.00118449 -2.22019e-05 -1.41858e-06)
(0.000632753 -2.01191e-05 -4.36977e-06)
(0.000621825 -1.82487e-05 -4.90208e-06)
(0.0010769 -4.29899e-05 -4.95492e-06)
(0.00105409 -3.84723e-05 -5.60875e-06)
(0.000841676 -4.53386e-06 -6.46439e-08)
(0.00084241 4.78228e-07 -2.63532e-07)
(0.00111964 -8.66326e-06 1.35235e-07)
(0.000834419 -2.2368e-06 8.45022e-08)
(0.000840032 9.12351e-07 1.24306e-07)
(0.00111899 -4.40308e-06 2.02347e-07)
(0.000828916 -9.94805e-07 1.41751e-07)
(0.000831483 1.78919e-06 8.62827e-08)
(0.00110847 -2.17072e-06 1.71196e-07)
(0.000825192 -3.99209e-07 1.53597e-07)