/*--------------------------------*- C++ -*----------------------------------*\
| =========                 |                                                 |
| \\      /  F ield         | OpenFOAM: The Open Source CFD Toolbox           |
|  \\    /   O peration     | Version:  5.0                                   |
|   \\  /    A nd           | Web:      www.OpenFOAM.org                      |
|    \\/     M anipulation  |                                                 |
\*---------------------------------------------------------------------------*/
FoamFile
{
    version     2.0;
    format      ascii;
    class       surfaceScalarField;
    location    "2.8";
    object      alphaPhi10;
}
// * * * * * * * * * * * * * * * * * * * * * * * * * * * * * * * * * * * * * //

dimensions      [0 3 -1 0 0 0 0];

internalField   nonuniform List<scalar> 
25822
(
3.28795e-08
-7.87317e-09
1.13453e-07
3.94214e-08
3.36039e-08
3.48891e-08
6.82909e-08
1.96648e-07
-8.21255e-08
-5.89337e-09
-6.68278e-09
-5.1823e-09
4.2866e-08
3.18726e-08
2.85605e-08
4.04734e-08
-4.99545e-09
-2.38157e-08
1.30447e-09
9.0781e-08
6.55401e-08
2.5156e-08
6.25191e-08
3.55679e-08
-1.02558e-08
8.85587e-09
2.70977e-08
-1.88036e-09
-2.15159e-09
-3.3796e-09
1.15058e-08
-2.73448e-12
6.27763e-08
6.27763e-08
6.27763e-08
5.44879e-23
-6.28403e-23
3.03195e-21
6.89197e-20
-6.3856e-20
-2.51991e-19
2.26547e-19
1.26581e-26
-8.90386e-25
-1.11385e-25
1.14642e-26
-3.60724e-27
-1.05707e-29
1.2262e-28
-3.2524e-29
-1.05709e-30
6.02995e-32
-8.18312e-33
-2.13092e-32
2.93394e-36
-7.27962e-37
-4.47068e-35
7.46397e-40
-3.05988e-40
2.19701e-38
2.92882e-43
1.84336e-44
8.63794e-42
1.18122e-46
-1.72538e-46
-3.74623e-45
4.7604e-50
1.0251e-50
7.67716e-49
1.93003e-53
-1.81793e-54
-2.94339e-51
7.81077e-57
-7.16545e-57
-3.67549e-54
3.1763e-60
1.28568e-60
-8.45131e-57
1.31358e-63
3.23753e-64
-3.44838e-60
5.38388e-67
6.94304e-68
1.46652e-63
2.18565e-70
-6.81928e-72
6.63846e-67
8.95855e-74
-3.60322e-75
5.71282e-71
4.34569e-77
-3.26098e-78
8.05338e-73
2.22716e-80
-4.75665e-81
-2.83704e-76
7.52333e-84
-1.80017e-84
8.25979e-79
3.82738e-87
-2.49994e-89
-5.09269e-83
3.31178e-90
-9.68055e-91
2.01183e-85
1.30928e-93
-6.41768e-97
4.26215e-89
8.62875e-97
3.86137e-97
-6.07797e-92
2.92366e-100
2.32535e-101
-1.43268e-96
7.61154e-103
-1.77145e-104
1.49859e-98
1.96324e-105
-7.57254e-106
9.13386e-101
3.11688e-109
2.99149e-110
-1.53841e-104
2.23604e-112
-2.82999e-113
-2.22825e-107
2.94756e-115
5.52046e-117
-6.92746e-111
4.94539e-118
6.24475e-119
-3.38139e-114
4.55645e-122
-8.73676e-123
1.87963e-118
1.53341e-125
-1.39686e-126
1.2054e-126
1.32004e-128
4.69543e-130
-1.1603e-124
3.41791e-131
3.72501e-133
-6.21033e-127
4.6011e-134
-3.343e-135
-2.69802e-129
1.48664e-136
5.06273e-137
-8.3584e-133
1.59398e-140
-1.1063e-142
7.96782e-137
1.65902e-143
-3.64115e-146
-2.55849e-139
3.04742e-147
9.94719e-148
-2.02744e-142
3.27426e-150
-9.6733e-154
7.48723e-147
2.67964e-152
1.14172e-153
-1.52312e-149
2.9026e-157
2.69415e-157
-6.56757e-09
3.37905e-08
-7.87602e-09
2.74791e-08
4.11309e-08
6.48722e-08
-4.1328e-09
5.66909e-09
5.39381e-09
3.83442e-09
1.97065e-07
7.36548e-08
1.12462e-07
-2.20328e-07
-2.47735e-08
4.66454e-08
-1.47933e-08
-3.3801e-08
1.39625e-07
6.34758e-08
-1.32275e-07
-8.88531e-08
-3.43545e-08
-2.37979e-08
-2.37081e-08
-2.4979e-08
1.86119e-08
2.40208e-08
2.6993e-08
9.35862e-08
1.48584e-09
1.20373e-08
-1.71447e-08
1.76564e-08
-5.2119e-09
2.70931e-08
-5.90862e-09
-4.00716e-08
-1.68912e-09
-6.8158e-09
-1.69904e-09
1.34771e-09
6.93327e-09
-5.59447e-12
-5.1972e-16
1.78157e-08
5.54881e-13
1.78158e-08
8.70195e-22
-1.26898e-18
2.33432e-21
-6.65058e-21
-2.11432e-18
2.21819e-18
2.3005e-18
-1.34958e-18
-2.18179e-18
-1.35006e-18
2.24545e-25
-1.50204e-22
-2.19678e-25
3.34298e-28
-6.73268e-26
-6.32793e-29
6.64178e-29
-4.55146e-28
1.25782e-32
4.35253e-33
-1.32778e-31
-7.69224e-34
2.56671e-37
-3.99179e-34
-4.42456e-36
7.05168e-41
-1.04032e-37
-9.14144e-40
2.74156e-44
-1.20232e-41
-3.44078e-43
1.10853e-47
-2.87879e-45
-9.99022e-46
4.50458e-51
-8.52653e-49
7.7922e-50
1.8376e-54
-8.70972e-53
8.79942e-52
7.48919e-58
1.2022e-56
2.50276e-55
3.03411e-61
-7.79978e-60
-1.13802e-59
1.23978e-64
-7.01851e-63
-1.79077e-61
5.21744e-68
-9.61984e-67
-1.52878e-66
2.32243e-71
-1.27976e-70
-8.60408e-68
9.86941e-75
-9.28012e-74
-4.67912e-72
4.24716e-78
-7.90555e-79
-2.06392e-74
1.96911e-81
2.96964e-80
-1.9678e-78
8.3177e-85
-1.78226e-83
2.07498e-80
3.60013e-88
4.21745e-88
-4.8911e-84
1.98488e-91
8.40847e-92
-7.97767e-87
1.29723e-94
5.92103e-94
7.92026e-90
1.27769e-97
-1.67665e-99
-4.91593e-94
1.9199e-100
1.89523e-101
-2.37323e-96
3.47399e-104
-1.59249e-102
-6.72125e-100
3.07771e-107
-9.82411e-106
1.1516e-101
1.26835e-110
4.19698e-111
8.18617e-107
1.18499e-113
-2.4583e-114
-6.70812e-109
3.65089e-117
-7.2138e-118
-1.21743e-112
7.48545e-120
5.39312e-122
-8.92559e-121
1.02156e-121
-1.51252e-123
-2.5632e-118
8.05167e-126
-2.74705e-126
1.39237e-121
2.28352e-129
-6.62999e-130
-7.36548e-125
1.45167e-132
-1.74741e-133
-1.13884e-127
3.63834e-136
-8.73937e-136
-5.3881e-131
1.38304e-139
1.67534e-140
4.91594e-139
7.939e-143
2.25123e-143
3.30341e-137
1.16711e-145
-8.17861e-150
6.22981e-141
1.11819e-148
-1.82255e-148
-4.31111e-143
1.86173e-152
-4.36491e-152
5.84347e-148
1.27029e-153
5.14254e-156
5.95171e-151
1.39989e-157
-1.00184e-153
7.65059e-08
7.80053e-09
-2.63138e-07
7.67452e-08
7.55459e-08
7.34932e-08
-5.27969e-09
-3.57605e-09
-4.82668e-09
-3.44422e-10
-1.5654e-07
-2.49776e-07
-1.62006e-07
-1.41579e-08
2.1635e-08
7.31824e-08
9.49515e-08
7.58358e-09
-3.13826e-09
3.78911e-08
8.33997e-09
6.02003e-09
-3.36284e-08
-2.62892e-09
-6.89188e-08
4.20213e-08
-1.38686e-08
4.081e-08
-3.35685e-08
-3.30375e-08
-3.30727e-08
-3.33104e-08
-1.58047e-08
-1.55731e-08
-1.62356e-08
-1.48046e-08
-2.33844e-08
-1.22126e-08
2.03659e-08
-2.53806e-07
-2.27391e-09
1.0312e-09
1.94019e-09
5.66163e-09
-3.73871e-09
-6.95529e-12
1.15981e-11
1.42919e-09
-9.50995e-11
1.48887e-09
1.72044e-19
-1.35251e-18
-5.74826e-09
-1.29412e-18
-2.55148e-19
4.63665e-19
2.74268e-19
5.02794e-25
-1.22921e-21
-1.76597e-23
7.38707e-20
7.41879e-20
7.33042e-20
7.37057e-20
1.10464e-25
-1.46944e-25
-1.2741e-26
4.85684e-28
-3.46378e-28
3.65622e-30
6.3098e-32
-8.14542e-31
-1.21204e-31
2.09043e-35
1.65277e-34
3.64323e-35
9.65807e-39
7.44686e-39
-3.64737e-40
2.69129e-42
3.18246e-42
4.32344e-42
1.02695e-45
9.18033e-46
-3.47581e-45
4.18603e-49
3.90424e-50
-3.39412e-47
1.71509e-52
1.67493e-52
-2.46592e-50
7.01491e-56
-4.27603e-56
-1.89832e-54
2.86829e-59
-1.35277e-59
-4.52452e-57
1.17538e-62
-5.82375e-63
2.21568e-60
4.83247e-66
-4.5606e-67
-2.73332e-63
1.9855e-69
-7.69763e-70
3.01456e-66
8.09037e-73
-6.65237e-74
5.69865e-70
3.39213e-76
-4.63462e-76
-5.84535e-73
1.44667e-79
-1.20761e-80
-2.16689e-76
5.89038e-83
2.61113e-83
-8.10969e-79
2.40403e-86
-6.83327e-87
2.6415e-83
1.13042e-89
5.13198e-91
-8.71697e-86
5.36632e-93
-1.30673e-93
-2.07518e-88
1.85344e-96
-9.47496e-97
4.02555e-96
4.5485e-99
-2.33362e-98
-4.00293e-99
3.74999e-101
1.20583e-102
-1.32348e-97
2.68087e-105
3.52384e-106
-2.09227e-100
7.44491e-109
7.65888e-110
-8.40355e-105
3.55151e-112
-1.571e-112
-4.15428e-107
1.51258e-115
9.46191e-117
-5.58088e-111
1.45675e-118
1.29348e-120
-1.73197e-114
8.12799e-121
7.17904e-122
-3.90646e-117
1.88245e-124
4.57364e-124
-8.59732e-120
3.87532e-128
-1.60109e-128
-1.14635e-124
5.18587e-131
1.62649e-130
-7.28422e-126
1.29643e-133
-8.07406e-134
2.7857e-129
8.92295e-138
1.56915e-137
5.42448e-133
2.99866e-141
-5.73225e-141
5.05214e-136
4.07847e-144
5.47847e-144
5.06344e-140
1.73775e-146
1.14619e-147
-1.38196e-142
2.10325e-150
5.07562e-151
-5.72177e-146
1.90614e-153
-2.28639e-155
1.99349e-149
-4.75484e-157
1.10505e-154
1.2798e-08
1.69699e-08
-2.873e-07
9.59912e-11
-2.96581e-09
-3.59333e-09
1.6308e-08
1.71603e-08
1.65133e-08
2.05232e-09
9.80751e-10
-1.32121e-08
3.8117e-08
3.77966e-08
3.70422e-08
3.46252e-08
6.48243e-08
5.60128e-08
4.70275e-08
-2.22889e-09
4.31168e-08
2.35088e-07
-1.60021e-07
-7.65661e-08
4.82426e-08
4.79717e-08
4.56575e-08
-4.58262e-08
8.60498e-09
2.02468e-07
8.40004e-08
-2.33919e-08
2.78615e-08
3.10197e-08
-6.86052e-10
-2.18916e-08
-1.32295e-07
8.38387e-08
4.54148e-07
-2.30286e-09
-3.15282e-08
4.6276e-08
2.04455e-08
-3.24009e-08
-1.38096e-07
-6.06213e-08
1.60663e-07
2.50422e-09
-1.56532e-08
2.00185e-09
-5.15368e-10
1.22339e-08
-1.55619e-10
2.28638e-11
4.95066e-11
1.90594e-11
1.64685e-10
2.03441e-16
2.56511e-19
-1.96558e-08
8.33885e-18
5.48259e-17
5.6089e-16
-1.43864e-16
6.91766e-18
4.77663e-25
-8.27992e-21
-5.81408e-22
2.69023e-19
1.88222e-19
2.68656e-19
3.58396e-19
1.52206e-27
-1.27042e-24
-2.2383e-26
2.55371e-27
-7.0875e-28
5.19879e-30
9.04603e-30
-8.13711e-29
-2.86826e-31
4.79125e-34
-1.0434e-31
2.96797e-33
5.7164e-38
-1.06298e-35
-4.05328e-37
2.15402e-41
-2.34305e-39
-4.44954e-40
8.74861e-45
-6.26716e-43
-4.49765e-43
3.58749e-48
-1.83164e-46
-2.60938e-46
1.47366e-51
-4.51419e-50
-3.05225e-49
6.0131e-55
-1.84719e-55
-5.35855e-52
2.46048e-58
-3.09024e-57
6.95089e-56
1.00769e-61
-6.7912e-61
-1.84048e-59
4.25847e-65
-2.89096e-64
-3.73467e-62
1.91691e-68
-5.88557e-68
-3.45624e-65
7.93764e-72
-1.61395e-71
1.26151e-68
3.37287e-75
4.41809e-75
-2.90842e-71
1.37754e-78
-1.70098e-77
-6.32955e-74
8.07652e-82
2.10203e-82
-1.21979e-77
1.02569e-84
6.66377e-85
-1.39833e-80
1.65594e-88
-2.73269e-87
-2.5026e-84
1.06508e-91
2.42786e-92
-2.29913e-88
2.44601e-94
5.76259e-95
-2.42231e-90
1.70258e-97
-6.56773e-99
-3.24701e-93
2.18161e-101
-3.08023e-101
-3.48659e-97
1.65834e-104
2.46757e-105
-1.5321e-100
2.70655e-107
7.30538e-109
-4.7379e-103
4.10086e-111
-1.41398e-113
-5.11273e-106
2.30135e-114
-3.21275e-114
6.66136e-110
6.36747e-117
-2.78241e-118
-8.72057e-113
2.90808e-119
5.99528e-120
-1.42312e-115
2.24909e-123
-1.18301e-123
-9.44203e-119
1.66719e-126
-5.94485e-128
1.81208e-122
3.60808e-129
-2.40378e-130
1.56072e-126
4.295e-133
-1.82343e-133
3.81748e-129
5.45014e-136
-1.65824e-135
-2.20101e-131
1.37474e-138
1.86948e-139
-2.24204e-134
2.00729e-142
3.35127e-143
-3.3933e-138
6.50296e-146
8.4885e-145
-8.51273e-141
2.81891e-149
2.81191e-149
-5.75015e-146
3.19247e-152
-4.07422e-152
-3.93634e-150
-3.1067e-154
-1.01327e-151
1.20818e-08
3.23091e-08
1.94444e-08
9.41196e-09
-6.02939e-09
6.72391e-09
3.18974e-08
3.07764e-08
3.20134e-08
2.89343e-08
6.67235e-10
-1.67237e-08
1.88063e-08
2.73706e-08
2.74962e-08
1.76634e-08
3.81718e-08
1.63623e-08
-6.58389e-08
1.41892e-08
-6.79482e-08
-1.66366e-08
3.70251e-08
-4.93547e-08
1.67226e-08
1.92277e-08
1.01984e-08
1.64336e-08
-1.03051e-09
-2.19501e-08
2.64692e-09
-6.28551e-09
2.50405e-08
-2.69833e-09
2.19596e-11
-4.31084e-11
-9.6273e-11
2.72899e-10
2.43852e-13
2.62726e-15
3.09097e-08
3.0322e-15
3.09097e-08
5.9344e-23
6.81613e-21
-1.00922e-21
5.71053e-18
5.83069e-18
6.66667e-18
5.33588e-18
1.3421e-25
9.35151e-25
-1.95299e-25
1.36393e-26
6.8269e-27
-1.10531e-29
1.33862e-28
2.79619e-29
1.85622e-29
2.02055e-32
-1.94015e-32
-3.82305e-32
1.26272e-36
-2.0097e-36
-2.26397e-35
4.17479e-40
-3.53541e-40
-2.54197e-38
1.68555e-43
-9.69057e-44
-1.51978e-41
6.82744e-47
-2.91317e-47
-1.09508e-44
2.77038e-50
-7.03309e-51
-1.02997e-47
1.1276e-53
1.33453e-54
1.12456e-50
4.60013e-57
-7.98525e-57
-1.41815e-53
1.88719e-60
3.22882e-62
-3.4559e-58
7.91073e-64
3.59713e-64
-8.76124e-60
3.1367e-67
5.06498e-68
-1.5524e-63
1.29738e-70
-3.78186e-72
-1.93976e-67
6.03753e-74
1.71974e-74
-7.41006e-70
3.51373e-77
1.04913e-77
-1.99994e-72
1.25374e-80
1.22849e-81
-1.46033e-76
8.28071e-84
3.60934e-85
4.16488e-80
1.01582e-86
1.74203e-87
-2.00279e-82
3.37361e-90
-3.75807e-89
-5.72065e-85
2.50206e-93
-5.46119e-93
-7.82797e-89
1.04475e-96
2.86232e-97
-1.11084e-91
1.67755e-99
-9.69647e-101
-6.09814e-95
1.94642e-103
-3.60574e-104
-8.60194e-99
7.30335e-107
-3.64554e-107
-4.52376e-103
9.35119e-110
1.48789e-110
1.47764e-105
3.16861e-112
1.58561e-113
-5.6592e-108
4.14336e-116
-9.68351e-117
-3.85713e-111
2.56922e-119
-2.24554e-120
8.58864e-120
8.28203e-122
-1.12655e-123
-6.5179e-117
5.48908e-126
-7.62469e-126
2.61122e-121
3.51967e-129
-1.13509e-127
5.86539e-124
7.53346e-132
-2.37633e-131
-7.23894e-127
1.30869e-134
-2.15485e-135
-9.89956e-130
2.30856e-138
2.33882e-140
4.24313e-134
4.55579e-141
-6.77812e-142
-9.27053e-138
2.30636e-143
2.59723e-144
-2.34188e-139
3.39388e-147
2.35176e-147
-3.72138e-143
2.4693e-150
6.43657e-151
-4.62651e-146
8.14036e-155
-3.48173e-149
2.97647e-08
3.04988e-08
4.19483e-08
-7.0705e-09
1.94235e-09
1.24953e-08
3.30224e-08
7.56972e-09
1.73762e-08
3.58266e-08
1.46147e-07
3.13112e-08
2.28904e-08
2.68651e-08
2.2085e-08
2.08717e-08
-2.24568e-08
-3.22191e-08
-3.47594e-08
-3.55379e-08
6.44448e-08
-9.52615e-10
-2.29296e-08
-7.17413e-10
5.13884e-08
2.5225e-08
-1.41704e-08
5.30089e-08
4.68008e-08
4.64933e-09
3.56279e-09
-7.1796e-09
6.87999e-09
1.52185e-09
-4.06092e-09
-1.26334e-09
-7.0808e-11
1.77931e-10
4.37794e-11
1.5227e-10
-5.68993e-14
4.9232e-16
6.27763e-08
5.41569e-15
6.27763e-08
-2.67835e-23
2.48568e-21
-1.66613e-21
5.76918e-18
5.49689e-18
6.6145e-18
5.00671e-18
3.94369e-26
5.53749e-25
-1.34027e-25
8.8252e-27
4.34008e-27
7.12801e-30
1.12324e-28
3.89156e-29
-1.61241e-29
1.83534e-32
3.45704e-32
-4.41218e-31
1.11007e-36
3.72937e-36
-4.45901e-35
3.60495e-40
7.82375e-40
-7.62648e-39
1.45302e-43
1.97048e-43
-1.14527e-42
5.92838e-47
5.35614e-47
-1.47281e-44
2.42933e-50
3.41756e-50
-7.00708e-47
9.97016e-54
6.01378e-54
-5.21701e-51
4.13776e-57
1.09262e-57
-1.77142e-53
1.6402e-60
-1.5565e-60
2.26795e-56
6.63862e-64
-1.41244e-65
2.16472e-60
2.75187e-67
5.26981e-68
1.55e-64
1.15116e-70
-1.04202e-72
-9.65946e-67
1.0631e-73
-7.28242e-76
-7.80338e-71
4.67476e-76
-4.78558e-78
-6.01809e-73
2.79625e-80
1.62108e-81
-4.68962e-76
1.20317e-83
1.29146e-85
-5.94629e-80
2.78533e-86
-7.65204e-88
-3.55444e-82
7.10251e-89
2.45966e-89
-1.73782e-85
2.07802e-92
1.11023e-92
-3.95866e-88
7.70299e-96
3.63771e-97
-1.84035e-91
2.10198e-99
9.79924e-101
-5.48315e-95
1.27624e-102
1.13198e-103
-1.45471e-97
9.47985e-106
4.92117e-107
-3.13079e-101
2.6447e-109
-2.7701e-110
2.98329e-106
1.83766e-112
-1.00786e-113
-4.53812e-108
1.30111e-115
3.64014e-117
-2.04065e-110
5.3108e-119
-1.08303e-120
-1.46817e-114
1.40706e-121
-5.20598e-123
-5.70067e-118
1.73317e-124
-1.76906e-126
-3.24446e-120
3.55661e-127
-5.40067e-129
-3.68285e-123
4.90204e-131
2.78956e-132
-1.30487e-126
1.58632e-134
8.71953e-137
-3.14003e-130
6.99876e-138
3.63418e-141
1.10012e-133
4.50233e-141
-4.76301e-144
-8.53334e-137
9.83351e-145
1.4768e-145
-5.53815e-144
3.97265e-148
3.54865e-149
6.78308e-143
1.71188e-151
7.43447e-153
-3.81239e-146
7.87584e-156
1.91559e-154
-1.81274e-08
2.59819e-08
3.24247e-08
3.50213e-08
-4.3109e-08
5.5749e-08
3.11088e-08
6.79927e-08
6.31581e-08
6.28907e-09
-2.66363e-08
3.62997e-08
-4.84562e-08
3.02243e-08
-9.79159e-09
-1.03187e-08
3.5007e-08
3.12232e-08
1.25695e-08
-5.91184e-09
7.5768e-09
-9.05862e-08
-1.53521e-07
3.54549e-08
1.53251e-07
4.49909e-08
-1.86027e-08
-1.27279e-08
-2.64181e-08
4.06854e-08
4.62718e-08
3.27375e-08
2.16856e-08
-3.57322e-12
1.53667e-08
-2.89015e-09
-3.35993e-09
-8.77478e-09
-2.99014e-10
-7.40486e-10
7.78253e-10
-1.46417e-10
6.22954e-11
3.32273e-14
-1.61756e-15
-3.4828e-08
-3.4828e-08
1.10938e-15
6.74507e-14
-1.8719e-13
8.389e-14
-2.2751e-15
-1.93262e-15
-1.96992e-15
-2.95203e-26
1.75383e-21
-4.64738e-22
2.52997e-19
2.5356e-19
2.46881e-19
2.70977e-19
3.35531e-26
2.0727e-25
-2.67383e-26
2.54515e-27
4.10733e-28
3.09111e-30
7.93551e-30
9.85167e-31
-3.8417e-31
4.02875e-34
6.14876e-34
-2.13359e-33
5.15639e-38
1.63472e-37
-7.17895e-37
1.95034e-41
2.52229e-41
-5.84122e-40
7.9196e-45
5.17566e-45
-4.40456e-44
3.24883e-48
1.40014e-48
-9.69184e-47
1.33539e-51
4.54418e-52
-8.28731e-49
5.49517e-55
3.6584e-56
-3.20285e-53
2.31992e-58
2.20692e-59
-3.27472e-55
9.96504e-62
5.99085e-63
-3.07146e-58
3.93451e-65
2.52754e-66
-2.97855e-62
1.64454e-68
2.89414e-69
-7.69348e-65
7.22187e-72
9.66215e-74
-2.36833e-68
3.40699e-75
2.23432e-76
-2.9172e-71
1.18801e-78
3.88817e-81
2.15369e-78
5.21021e-82
-4.50244e-83
-2.04683e-78
4.85448e-85
-2.21748e-86
-4.59482e-81
7.94537e-88
4.38873e-89
-7.9266e-84
8.10317e-92
-4.00909e-93
9.38757e-87
2.87912e-95
-1.28331e-96
-5.68722e-92
1.16349e-98
-9.45025e-101
-1.72141e-95
5.77011e-102
5.04153e-104
5.5596e-101
4.17494e-105
-1.49381e-106
-1.47376e-100
2.98074e-108
-2.89887e-110
-2.5892e-103
3.88385e-111
6.32128e-113
-4.54283e-107
1.91928e-114
-2.10778e-116
-1.14237e-110
4.65061e-117
-4.22679e-119
1.77481e-113
1.66531e-120
1.92269e-122
-4.20909e-116
5.20758e-124
-1.00062e-124
1.1341e-118
3.49334e-127
-5.70134e-130
7.08794e-123
6.51495e-130
5.17365e-132
2.42617e-125
8.65052e-134
2.12944e-135
6.75035e-129
6.17987e-137
3.89398e-139
3.73069e-133
1.66511e-139
-3.81924e-142
-4.17148e-135
9.72713e-143
2.3111e-146
-2.14208e-138
6.35676e-145
2.08047e-147
-1.79744e-141
2.91057e-149
-8.78145e-152
7.29045e-150
4.3066e-152
9.68473e-155
5.15754e-151
2.22369e-155
-1.54091e-150
-2.58387e-08
3.07601e-08
3.15107e-08
3.42008e-08
-1.39624e-08
-1.22105e-08
3.30594e-08
-1.01339e-08
-2.31893e-09
1.61196e-07
4.41248e-08
-3.69135e-07
3.37937e-08
3.47202e-08
3.36616e-08
3.54824e-08
1.16804e-07
4.53401e-08
2.49459e-08
-1.21084e-07
3.53672e-08
2.88156e-08
2.67996e-08
2.66422e-08
6.34298e-09
-1.69444e-08
4.80861e-08
-1.55132e-08
-2.62235e-07
4.39078e-08
3.24366e-09
5.15495e-09
2.49733e-09
1.24098e-09
-1.3014e-08
2.14724e-10
-3.81502e-10
1.64419e-09
-7.38681e-12
1.33443e-09
4.49089e-16
-3.4837e-18
4.58199e-09
4.58199e-09
4.20893e-18
4.86385e-16
4.07366e-16
5.5733e-16
-8.28625e-25
1.15366e-22
-4.84852e-23
2.27638e-21
2.64515e-21
3.01077e-21
3.10845e-21
1.16563e-25
2.49678e-26
6.41658e-27
6.23191e-28
5.22413e-28
3.4673e-30
1.09014e-31
1.00484e-31
3.945e-33
1.6552e-35
3.56484e-34
2.01749e-35
8.80071e-39
9.6522e-38
-8.85532e-39
2.47172e-42
1.22954e-41
-3.71694e-41
9.38972e-46
2.75491e-45
4.2555e-45
3.82408e-49
7.91203e-49
2.11447e-47
1.57077e-52
1.98006e-52
-3.85505e-50
6.47065e-56
9.55536e-56
6.30487e-53
2.66995e-59
1.29155e-59
-1.86173e-56
1.10046e-62
6.20146e-63
1.38703e-60
4.59721e-66
1.23694e-66
-1.06648e-62
1.89437e-69
1.47138e-70
-4.51993e-66
7.70393e-73
-1.64903e-74
-1.19329e-70
3.27228e-76
-3.55732e-78
1.54553e-73
1.58022e-79
2.7639e-81
-1.08857e-75
7.65405e-83
3.44294e-84
-1.86764e-78
2.71115e-86
4.2658e-88
-5.82076e-82
1.1043e-89
-9.62048e-92
1.14308e-87
4.78474e-93
-7.27446e-95
-1.6168e-88
2.70096e-96
-1.86512e-97
6.94549e-96
3.29886e-99
3.54511e-102
-8.86216e-95
2.35495e-102
5.23733e-103
-7.35504e-98
5.5417e-106
-7.88909e-107
4.21762e-101
5.42587e-109
1.33036e-111
-8.54881e-105
1.24267e-111
1.31944e-114
3.94296e-107
1.59177e-115
-2.34533e-117
-1.12151e-110
2.00845e-118
-2.78171e-120
3.41288e-114
1.43137e-121
6.52995e-124
-4.87262e-117
1.08278e-124
-4.61974e-127
1.53324e-119
2.04305e-128
-9.93065e-131
1.46541e-123
2.57741e-131
-5.7175e-133
6.57209e-127
2.85072e-134
-5.76352e-136
-1.33709e-129
8.99804e-138
8.61842e-141
-2.81433e-133
2.3066e-141
1.43506e-143
-3.79782e-136
8.4083e-145
2.35978e-146
-4.15959e-140
3.2887e-148
-4.5021e-150
-9.45434e-147
1.21054e-151
-8.00627e-152
4.70689e-150
-1.77743e-153
-7.17134e-155
4.37534e-153
8.72808e-159
-8.5902e-153
-6.56095e-08
1.31604e-08
3.13442e-07
4.99813e-08
5.03271e-08
5.00302e-08
4.96287e-08
1.32907e-07
2.952e-08
-4.72702e-08
5.86324e-08
8.39296e-08
2.60864e-08
3.0209e-08
2.89922e-08
3.25654e-08
2.55921e-08
2.48437e-08
2.44442e-08
2.73957e-08
5.71338e-08
3.67315e-08
5.44367e-08
-1.59614e-07
-1.65954e-08
-4.75401e-08
4.63619e-08
2.68935e-08
2.66841e-08
6.20172e-08
5.62601e-08
6.58753e-08
5.56489e-08
2.15777e-08
-9.73158e-09
-8.73074e-09
-3.64523e-09
3.04053e-09
1.85729e-08
2.85505e-11
1.26177e-11
-2.4682e-08
-1.5012e-11
-2.46875e-08
9.95646e-22
3.15315e-19
6.3418e-21
1.03208e-16
4.1743e-18
-1.23703e-16
1.56216e-17
-8.40827e-19
-9.56747e-19
-1.85878e-18
-9.53266e-19
4.48245e-25
1.00726e-22
-1.20304e-24
5.09295e-28
1.40183e-26
-5.29432e-29
5.37707e-29
-1.73921e-28
-2.6228e-32
7.47667e-32
-4.79474e-31
-7.7705e-34
1.80026e-36
-9.87043e-35
2.10533e-37
3.51162e-40
-1.44101e-38
-2.89918e-40
1.38495e-43
-3.55144e-42
-2.08998e-43
5.60174e-47
-9.63793e-46
3.73203e-46
2.26771e-50
-2.24939e-49
1.56038e-49
9.17875e-54
-6.27187e-53
-1.65083e-52
3.71651e-57
-7.86827e-57
1.00472e-55
1.5023e-60
-4.62612e-60
-3.93063e-58
6.07101e-64
-2.28513e-63
-4.67674e-62
2.45337e-67
2.69781e-67
-4.77369e-66
9.91153e-71
-4.90073e-71
-1.32231e-68
4.13457e-74
1.73438e-74
-1.40003e-71
1.78027e-77
9.04695e-78
-4.89729e-74
6.75679e-81
6.41723e-81
-1.63695e-79
2.72277e-84
-3.69056e-84
3.01071e-82
1.10577e-87
-7.73725e-88
-9.11807e-84
4.49045e-91
-1.76969e-90
-4.94865e-88
3.57337e-94
-3.87458e-94
2.02712e-90
1.0071e-96
6.76999e-99
-3.27643e-93
9.85569e-101
-7.14739e-101
3.39157e-99
2.98066e-104
-3.50156e-103
1.14366e-100
2.15212e-107
-8.03372e-107
-1.07976e-103
4.98009e-110
-4.34943e-111
2.56177e-107
7.88824e-114
-3.36305e-113
2.24401e-109
4.86627e-117
-1.35602e-115
2.11795e-112
1.01163e-120
-1.01253e-120
3.66477e-116
8.57142e-124
-3.64076e-123
1.3088e-123
2.71453e-126
1.77215e-127
-1.71719e-122
2.26455e-129
3.43395e-131
-2.24604e-126
2.8715e-132
-1.12917e-132
2.23565e-128
4.36277e-136
9.83831e-136
3.13094e-131
1.2793e-139
-1.36933e-139
6.79672e-137
5.84494e-143
2.4213e-143
-5.50739e-139
5.88861e-146
-3.85434e-146
-1.6699e-142
2.16937e-148
-1.16385e-148
4.24112e-145
3.48114e-151
-4.158e-151
-1.57019e-147
7.78567e-154
-1.02483e-154
-3.27136e-150
-1.84183e-157
4.12287e-155
1.34751e-08
-3.16779e-09
1.55604e-08
1.32658e-08
1.73556e-08
3.84901e-08
1.46827e-08
1.32215e-08
-1.57397e-08
6.67746e-08
3.64089e-08
-1.41874e-08
3.70787e-08
2.01044e-08
-5.05017e-08
6.53017e-08
5.84551e-08
-2.6876e-09
-2.84323e-08
-8.50571e-08
4.27647e-08
5.65326e-08
-6.86644e-10
3.54507e-09
-3.29996e-09
5.42632e-09
-2.18594e-09
-5.76898e-09
2.36519e-11
1.56341e-13
1.79728e-08
1.28686e-12
1.7973e-08
-7.86785e-23
1.64132e-21
-3.89533e-20
-4.04116e-19
5.57987e-19
2.04258e-19
-5.60224e-26
-9.74348e-26
3.41776e-27
-9.54896e-30
1.50615e-28
-8.73873e-31
1.48956e-31
-4.99354e-33
7.96162e-36
-4.39192e-35
1.64228e-39
2.42527e-38
6.30668e-43
6.33877e-42
2.53617e-46
3.2916e-46
1.02088e-49
9.20345e-49
4.11817e-53
-8.47698e-52
1.67012e-56
4.98655e-54
6.78386e-60
-2.74123e-57
2.72757e-63
-1.50227e-60
1.10202e-66
5.88781e-64
4.45158e-70
2.72769e-67
1.8256e-73
1.18362e-71
7.57906e-77
-2.68541e-73
3.06416e-80
1.08707e-76
1.27172e-83
1.15565e-79
9.83964e-87
-5.60661e-83
1.80763e-89
-4.8881e-86
2.40723e-93
-3.83177e-90
1.4532e-96
-3.96949e-94
3.72679e-99
-1.63974e-95
1.32056e-102
-3.79072e-99
4.74068e-106
4.03885e-102
1.63662e-109
2.18933e-105
1.74514e-112
-5.67273e-108
2.6839e-115
-2.02051e-110
1.13478e-118
1.32787e-114
4.09773e-121
-1.48396e-117
2.70722e-125
-1.24678e-122
8.65875e-129
-1.59944e-124
1.1503e-131
-4.16439e-127
4.66995e-134
-1.28144e-130
4.51318e-138
-3.41353e-134
3.83099e-141
9.68506e-137
5.04233e-144
4.14873e-140
2.27687e-147
3.63468e-143
8.85295e-151
-3.0885e-147
1.53443e-154
2.45753e-149
4.6452e-153
1.73442e-07
1.67446e-07
1.65206e-08
-6.88705e-08
2.15804e-09
-1.55555e-08
-6.44285e-08
-3.00628e-09
1.8708e-07
2.09743e-07
-6.65991e-09
2.84399e-08
-4.71555e-08
-2.64836e-08
9.99135e-08
-4.97599e-08
2.63978e-07
8.69616e-08
9.18364e-08
8.46114e-08
7.84605e-08
-3.14185e-07
-1.88856e-08
8.52941e-10
-1.50829e-07
7.16975e-09
-3.73088e-08
2.13231e-09
-2.59065e-09
-3.60289e-09
3.93476e-08
-4.69052e-12
-5.32172e-14
3.85076e-15
4.82284e-08
4.82265e-08
1.43461e-22
1.01469e-20
-3.59333e-21
-1.02459e-19
5.63714e-19
-1.03175e-18
3.79646e-19
1.56164e-25
-8.38805e-24
1.07427e-25
2.90749e-26
-1.44861e-26
1.15752e-29
1.20408e-27
-3.64324e-28
4.93011e-31
4.48832e-30
-9.6309e-31
-4.43756e-33
1.63352e-33
-1.74044e-34
-1.08306e-35
2.55859e-37
1.3488e-37
-2.8028e-38
1.41472e-40
1.01451e-40
2.42179e-42
1.03343e-43
6.99005e-44
1.31612e-44
7.25229e-47
4.24057e-47
-1.09633e-48
5.00827e-50
1.94952e-50
-1.21171e-50
3.4625e-53
-1.73673e-53
-5.41321e-54
2.39789e-56
1.70839e-56
4.29903e-57
1.66193e-59
5.14801e-60
8.635e-60
1.151e-62
1.06132e-63
6.01438e-64
7.97072e-66
-2.64878e-66
-8.36653e-67
5.51863e-69
-3.03333e-70
2.11816e-70
3.81853e-72
-4.38561e-73
-1.31029e-72
2.64336e-75
7.76675e-77
4.36582e-76
1.8284e-78
2.57323e-79
-2.00946e-79
1.26337e-81
-1.95123e-83
1.05103e-83
8.71898e-85
3.05858e-86
-3.44847e-86
6.01187e-88
-1.3449e-91
-5.27439e-89
4.13925e-91
2.14719e-91
6.4257e-94
2.84849e-94
1.03956e-94
1.07912e-96
1.95847e-97
-9.5129e-98
-4.49009e-98
1.34531e-100
3.95717e-101
-1.0031e-100
9.22714e-104
8.2963e-105
2.61339e-105
6.31247e-107
3.7513e-108
2.6439e-107
4.30716e-110
3.21605e-111
1.36894e-110
2.93539e-113
-3.31289e-116
-3.29626e-115
1.99917e-116
3.63172e-117
-1.51658e-122
1.35861e-119
-6.42447e-122
1.42579e-120
9.21505e-123
8.68011e-124
-2.73542e-124
6.23408e-126
-7.71263e-128
2.006e-127
4.21042e-129
-7.09329e-130
1.38681e-129
2.83569e-132
1.56565e-132
-1.58798e-138
1.90549e-135
6.27307e-138
-1.3567e-136
1.27681e-138
-4.29107e-140
3.96506e-139
8.54993e-142
3.75353e-143
1.23235e-142
5.70987e-145
-1.48282e-147
8.50829e-147
3.67504e-148
4.41298e-151
2.04133e-151
4.49572e-152
3.41941e-152
1.07289e-08
1.21008e-08
-2.42245e-07
9.89712e-08
-3.52606e-07
1.35403e-08
-6.65531e-08
8.75544e-09
1.14178e-08
6.29492e-08
2.15578e-08
-3.47841e-09
-1.70098e-07
1.26498e-08
-2.7159e-09
1.73935e-07
7.94602e-09
-2.38534e-09
-1.12211e-08
-4.39763e-07
1.03791e-07
-2.8248e-07
-2.85774e-07
-2.29985e-07
-3.58948e-09
2.36033e-08
-1.49999e-08
-1.66824e-07
2.97958e-09
3.43732e-10
9.1964e-09
1.21764e-08
6.36294e-09
3.2827e-09
7.6084e-09
1.33804e-09
2.36265e-09
-2.14349e-08
4.53513e-12
-1.06559e-12
3.9819e-14
7.22818e-13
5.87295e-13
-6.87483e-16
7.52508e-21
-6.68713e-18
-3.93139e-21
1.06056e-18
4.68755e-18
3.61659e-19
5.01279e-18
-5.29607e-18
-5.80462e-18
-5.29369e-18
1.53031e-24
-4.81199e-22
-7.81671e-26
-2.34942e-27
-1.03985e-24
7.77254e-29
4.38746e-28
-1.92419e-26
3.91895e-31
3.52498e-31
-1.29077e-29
-1.14825e-34
2.66308e-35
-4.41954e-34
4.73598e-36
1.01012e-38
-1.62378e-37
3.51093e-41
7.14222e-42
-8.19779e-41
1.47525e-43
5.10601e-45
-2.95665e-44
5.39658e-46
3.55154e-48
-1.56484e-47
1.0189e-50
2.45892e-51
-4.7667e-51
2.12516e-52
1.70523e-54
-2.01072e-54
-9.33192e-55
1.18356e-57
-9.77267e-58
-2.01763e-59
8.21569e-61
1.63478e-61
4.74848e-62
5.69878e-64
-1.42228e-64
5.16259e-65
3.96012e-67
-5.85026e-67
-1.51068e-67
2.75232e-70
8.18823e-72
-8.04488e-71
1.90964e-73
2.10945e-74
3.82026e-74
1.32585e-76
1.17931e-76
6.68011e-78
9.20077e-80
-1.28949e-80
6.74445e-81
6.37737e-83
-2.09929e-83
4.41187e-86
4.41729e-86
1.39525e-86
4.54052e-87
3.05906e-89
2.3226e-89
-1.8631e-90
2.12065e-92
1.70929e-93
2.0653e-93
1.46606e-95
1.35222e-96
1.53699e-96
1.01265e-98
-6.6572e-99
1.52434e-99
6.98986e-102
-5.67118e-102
1.01803e-101
4.81781e-105
1.41125e-105
-4.43825e-106
3.31481e-108
2.38087e-109
6.92067e-109
2.27681e-111
3.5519e-112
2.06502e-112
1.56136e-114
1.9759e-116
2.66178e-116
1.06796e-117
-4.78556e-118
4.0497e-118
7.28967e-121
-1.04794e-121
9.58512e-124
4.97277e-124
-3.09409e-124
9.87477e-125
3.3832e-127
-3.25333e-127
1.13904e-127
2.29695e-130
-1.06911e-130
1.71654e-131
1.55914e-133
-1.82814e-134
5.4339e-134
1.05411e-136
1.90195e-137
-4.68653e-137
7.11533e-140
-3.91056e-141
-4.76448e-141
4.79178e-143
5.87626e-143
1.0437e-143
3.21945e-146
2.32975e-146
1.86097e-147
2.07781e-149
1.47386e-150
5.29972e-151
2.4346e-153
1.26294e-157
1.28161e-08
-2.0609e-07
-2.0974e-07
-2.46742e-08
1.26303e-08
1.30736e-07
6.53867e-10
9.04833e-08
1.09617e-07
1.17047e-08
1.32594e-08
1.40319e-08
3.56013e-09
1.45335e-08
2.42414e-08
5.22619e-07
5.2781e-07
5.26294e-07
3.30978e-08
1.58757e-08
1.20562e-08
1.49077e-08
1.22398e-08
7.9645e-09
-1.01717e-07
-7.90883e-09
2.60558e-08
3.2671e-08
-6.02919e-09
3.90906e-09
2.99374e-09
-2.87406e-08
-2.65897e-08
-3.00156e-08
-2.65727e-08
-1.95698e-08
-1.65211e-08
-1.79006e-08
-1.28689e-08
1.91168e-08
-2.61938e-08
-2.89227e-08
1.0892e-08
1.362e-07
3.30932e-08
-2.51466e-09
-1.89563e-08
5.40371e-09
5.8851e-09
-2.2972e-08
7.88243e-11
7.95128e-11
2.67909e-12
-1.20174e-10
-4.9843e-11
6.19364e-11
7.29216e-18
-5.52546e-18
1.23878e-19
-4.70119e-18
6.41641e-19
9.99928e-18
8.70558e-18
3.3095e-17
1.57495e-23
-6.66597e-21
1.29669e-22
-5.25261e-20
-5.3796e-20
-5.51896e-20
-5.39223e-20
1.46545e-24
-1.92785e-24
1.31243e-26
3.51637e-26
4.63662e-27
-5.54924e-30
1.73831e-29
-2.9136e-29
1.62909e-31
1.28177e-33
-1.93592e-32
-1.40237e-35
6.40747e-37
-3.32521e-36
-9.74289e-39
4.69503e-40
-1.34367e-39
-5.58361e-42
3.24666e-43
-5.70208e-43
-2.64076e-45
2.22061e-46
-2.9988e-46
-2.35489e-48
1.51848e-49
-6.19025e-50
1.8244e-50
1.03675e-52
-1.58927e-53
-5.84464e-53
7.08508e-56
-3.33316e-56
-1.60769e-57
4.84209e-59
-1.3136e-59
8.7841e-60
3.30758e-62
-5.63263e-63
-7.64014e-64
2.25782e-65
-1.83171e-66
2.11167e-66
1.53901e-68
-6.62059e-70
5.25974e-69
1.0484e-71
6.35311e-72
-1.14121e-72
7.14427e-75
5.35018e-76
2.68871e-76
4.86297e-78
6.84908e-79
3.14848e-79
3.30411e-81
3.2701e-81
-4.7201e-83
2.24654e-84
4.98173e-85
3.62323e-86
1.52705e-87
-7.20802e-88
7.50526e-89
1.03644e-90
2.4417e-91
2.18636e-95
7.03541e-94
-3.02311e-95
5.7596e-99
4.76389e-97
1.24391e-97
6.46622e-100
3.21705e-100
2.60531e-102
-1.37712e-101
2.17196e-103
2.3638e-104
-2.30163e-105
1.4649e-106
-1.18056e-107
-2.27568e-107
9.86201e-110
-1.13868e-111
6.23548e-112
6.63188e-113
-4.25066e-114
1.37847e-114
4.45032e-116
3.88755e-117
1.39505e-117
2.97846e-119
9.19594e-120
-1.33732e-119
1.99047e-122
3.36432e-123
7.87855e-123
1.32832e-125
3.43698e-127
5.29112e-127
8.85556e-129
-4.37488e-129
-5.22661e-130
5.89855e-132
5.217e-133
-6.86306e-133
3.91889e-135
2.46883e-135
-4.26283e-136
2.59704e-138
1.29144e-138
-5.92509e-140
1.71785e-141
3.37664e-142
1.96519e-142
1.13354e-144
1.82835e-145
1.20933e-146
7.2923e-148
2.56398e-149
-1.79877e-149
-1.87742e-151
2.73263e-152
-1.72555e-08
4.71954e-09
4.14862e-07
-9.53322e-09
-1.89741e-08
-1.34708e-08
1.31011e-09
3.97222e-09
1.19793e-09
1.5251e-08
1.55868e-08
1.40723e-08
1.40935e-08
-6.4213e-09
-3.27083e-09
-2.00532e-08
-4.38432e-07
-7.65375e-09
-1.05707e-08
-1.3547e-08
-1.11615e-08
-5.30075e-07
-5.07256e-08
-3.31371e-08
-5.4849e-08
-1.05426e-08
-3.17242e-08
-1.704e-08
2.46783e-08
1.57983e-08
-1.10196e-07
-2.63989e-07
6.45157e-09
3.31762e-09
-1.58179e-08
-1.55765e-07
-2.90919e-08
-4.69337e-08
4.88955e-09
-1.72131e-08
6.93635e-09