/*--------------------------------*- C++ -*----------------------------------*\
| =========                 |                                                 |
| \\      /  F ield         | OpenFOAM: The Open Source CFD Toolbox           |
|  \\    /   O peration     | Version:  5.0                                   |
|   \\  /    A nd           | Web:      www.OpenFOAM.org                      |
|    \\/     M anipulation  |                                                 |
\*---------------------------------------------------------------------------*/
FoamFile
{
    version     2.0;
    format      ascii;
    class       volScalarField;
    location    "2.8";
    object      alpha.water;
}
// * * * * * * * * * * * * * * * * * * * * * * * * * * * * * * * * * * * * * //

dimensions      [0 0 0 0 0 0 0];

internalField   nonuniform List<scalar> 
8647
(
1.04272
1.01673
1.02352
0.994691
1.00386
0.999741
-4.52356e-17
-4.25413e-18
-9.41018e-24
9.10959e-18
9.42026e-19
6.15132e-21
1.49963e-24
8.5965e-29
2.61338e-32
1.10618e-35
4.51536e-39
1.94422e-42
8.28812e-46
3.31535e-49
1.58528e-52
6.71524e-56
2.93515e-59
1.018e-62
6.27071e-66
5.73123e-69
1.68254e-72
3.66571e-76
9.52184e-79
3.06392e-82
3.48644e-85
2.81907e-89
8.6987e-92
3.9778e-94
1.15282e-97
6.92431e-101
5.1747e-104
1.33407e-106
1.22278e-110
1.18221e-114
7.29912e-118
5.17966e-120
5.02551e-123
2.42651e-125
3.2625e-129
5.37378e-132
9.61608e-136
8.13934e-140
1.72222e-141
7.8225e-145
1.05307
1.06619
0.939779
0.999737
0.998198
1.00642
0.00768715
-9.50162e-18
-2.02968e-20
9.38649e-23
8.502e-20
5.15305e-22
1.32151e-25
1.19993e-29
3.49628e-33
1.42252e-36
6.0222e-40
2.57999e-43
1.11777e-46
4.52841e-50
1.93068e-53
8.24074e-57
4.56072e-60
2.18176e-63
8.45009e-67
4.84531e-70
2.20329e-73
7.65691e-77
4.42621e-80
4.04461e-83
2.41559e-86
5.64106e-89
6.54625e-93
1.2427e-95
3.39256e-99
4.15222e-102
1.71901e-105
1.21049e-109
4.76785e-111
3.77359e-114
5.13461e-118
5.21525e-121
6.25334e-125
1.14312e-128
1.75345e-131
2.22779e-134
3.54978e-137
4.7046e-141
1.20186e-144
2.49794e-145
1.03666
0.997514
1.04114
1.04404
1.01605
1.00488
0.754969
-1.10819e-18
-9.90947e-20
1.64524e-16
8.05782e-18
1.45544e-20
9.40787e-24
4.82102e-27
6.89459e-31
1.93013e-34
7.89871e-38
3.35705e-41
1.42886e-44
6.01424e-48
2.55053e-51
1.07281e-54
4.64821e-58
1.8846e-61
8.00275e-65
3.78997e-68
1.53432e-71
5.73263e-75
2.69209e-78
1.78595e-81
4.30807e-85
1.70781e-88
2.80334e-90
1.36312e-93
1.45611e-97
6.99228e-101
4.10653e-104
4.20967e-108
7.01264e-110
7.54925e-113
8.07309e-117
4.57692e-120
2.49855e-122
2.54084e-126
4.74363e-130
1.94336e-133
2.10481e-135
1.13648e-138
8.52956e-143
2.80875e-145
0.9996
0.991057
0.973378
1.02552
1.05768
0.980696
1
-2.24028e-15
-9.96218e-19
-2.32914e-24
4.28759e-18
1.71989e-19
1.8846e-22
1.00539e-26
1.87095e-30
6.83035e-34
2.83472e-37
1.26708e-40
5.13439e-44
2.15734e-47
9.40497e-51
3.84086e-54
2.71459e-57
1.15768e-60
5.19671e-64
2.0196e-67
5.70899e-71
2.15544e-73
3.91441e-77
8.16345e-81
3.56997e-83
5.82206e-86
3.95218e-90
1.4911e-93
5.99781e-96
9.70683e-100
4.95399e-103
4.96296e-106
3.69162e-108
1.07379e-111
1.7311e-115
7.47193e-118
1.23877e-121
6.27948e-125
2.60666e-127
9.2652e-131
1.57527e-134
3.60885e-138
4.38192e-141
1.18626e-143
1.01028
1.01508
1.07518
1.01179
1.00555
0.993908
1.00146
-2.48569e-15
-2.57796e-18
-1.72648e-24
2.20814e-17
1.4848e-18
4.17257e-21
3.54852e-25
3.09759e-29
1.16337e-32
4.67414e-36
1.95656e-39
8.07922e-43
3.70584e-46
1.38135e-49
8.13322e-53
2.4088e-56
1.18577e-59
4.79246e-63
6.80341e-66
2.22894e-69
9.40739e-73
2.49036e-75
6.69324e-79
9.05606e-82
7.40028e-86
3.63397e-88
3.83503e-92
5.44454e-96
4.88147e-99
4.46529e-101
2.06104e-104
7.14483e-109
1.02189e-110
1.0682e-114
4.18204e-118
9.90122e-121
3.04164e-123
8.41202e-127
2.97957e-130
2.64293e-132
1.11942e-135
9.97341e-139
2.18886e-142
1.00097
1.01301
0.978661
1.0057
1.00072
0.996094
1.00173
-4.70597e-16
-3.02125e-18
-2.09313e-24
1.72233e-17
1.19748e-18
3.58911e-21
3.2909e-25
2.70519e-29
9.8576e-33
4.08866e-36
1.94022e-39
7.47979e-43
4.12683e-46
1.36632e-49
5.4382e-53
2.25477e-56
1.3066e-59
3.71724e-63
4.62834e-65
1.04458e-68
8.7658e-73
2.76735e-75
1.19385e-77
7.95098e-81
3.70573e-84
2.52509e-88
1.44694e-91
2.75559e-94
4.49401e-98
3.34848e-101
4.28741e-104
2.42562e-108
1.93676e-110
2.65431e-113
7.71519e-116
2.17078e-119
4.37489e-123
7.50909e-127
1.32805e-129
7.84348e-134
3.30751e-137
2.4145e-140
2.72374e-144
0.905014
1.03376
1.05337
1.04358
0.990163
1.01535
1.00281
-2.1816e-18
-1.22476e-18
-1.62581e-24
4.07573e-18
1.57249e-19
1.62876e-22
9.75685e-27
1.90125e-30
6.74931e-34
2.79376e-37
1.19682e-40
5.15514e-44
2.19529e-47
1.38112e-50
4.01431e-54
1.9992e-57
7.78843e-61
6.91896e-64
1.36251e-67
5.2785e-71
5.00562e-74
1.81603e-76
2.00547e-80
3.02885e-84
1.34208e-87
4.83269e-91
9.92233e-94
4.08558e-97
1.17055e-99
2.41247e-103
9.42371e-106
6.99882e-109
2.81667e-112
3.91e-116
1.57139e-118
3.94154e-122
2.68061e-126
2.80174e-128
4.38038e-132
6.0404e-134
1.40682e-137
7.1117e-142
2.53184e-143
1.02794
0.991481
1.03907
1.00918
1.0111
1.00373
1
-2.4232e-17
-7.98694e-20
1.66278e-16
8.10207e-18
1.5261e-20
9.83494e-24
4.66932e-27
6.85296e-31
1.97942e-34
8.1146e-38
3.44936e-41
1.46931e-44
6.34038e-48
2.62973e-51
1.15018e-54
4.89612e-58
1.94783e-61
8.11701e-65
4.12861e-68
2.67127e-71
7.3963e-75
2.49401e-78
1.29916e-81
4.48822e-85
7.58878e-88
9.38475e-91
1.89696e-94
5.02199e-98
2.68504e-100
2.28381e-104
5.19147e-107
3.96881e-110
5.1116e-113
2.72732e-117
5.01006e-120
8.53719e-123
4.74125e-126
3.34296e-130
6.34986e-134
1.83778e-137
7.16015e-141
2.86626e-144
2.73452e-145
1.02065
1.03697
1.00381
0.947314
1.00508
0.998918
0.671139
-9.9089e-20
-2.145e-19
1.05983e-22
7.89293e-20
2.20216e-21
1.01068e-24
2.90872e-29
7.51881e-33
3.07432e-36
1.28451e-39
5.34899e-43
2.24012e-46
9.25971e-50
3.81424e-53
1.58543e-56
6.5114e-60
2.72105e-63
2.0689e-66
5.12562e-70
1.94565e-73
8.60219e-77
3.33735e-80
1.74323e-83
1.34169e-85
3.96429e-89
4.20011e-93
1.1129e-96
7.95065e-99
2.13398e-102
2.07452e-105
1.69653e-109
3.76333e-113
3.65779e-115
4.7281e-118
8.76132e-121
2.09706e-124
1.70077e-128
1.21638e-131
4.57641e-135
2.7865e-137
6.612e-140
8.77601e-143
2.75097e-145
1.0484
1.02496
1.03288
1.02329
0.980859
1.00249
0.0143111
-4.39794e-21
-1.47306e-22
7.82832e-18
9.92387e-19
1.0085e-20
4.5082e-24
2.40121e-28
6.26638e-32
2.57658e-35
1.06875e-38
4.47293e-42
1.86847e-45
8.25085e-49
3.26912e-52
1.34741e-55
5.52316e-59
2.26501e-62
1.10854e-65
4.24691e-69
1.83534e-72
8.45915e-76
3.6698e-78
9.04444e-82
9.18403e-86
5.52906e-88
4.78803e-91
2.24832e-94
3.22148e-98
2.45764e-101
6.82536e-104
9.03524e-108
5.99714e-110
1.03254e-113
9.85334e-118
5.50061e-121
5.82635e-123
1.58016e-126
9.17814e-130
1.44883e-132
9.37395e-136
3.92976e-139
9.81471e-143
3.1147e-145
1.07389
0.985372
1
0.979065
1.00196
0.997754
8.9919e-07
6.83048e-16
1.82972e-17
1.74697e-17
2.70125e-18
7.01525e-20
1.91416e-22
4.68073e-26
8.87036e-30
5.80513e-33
4.28516e-36
3.04038e-39
2.13581e-42
1.49799e-45
1.04949e-48
7.33561e-52
5.11316e-55
3.55794e-58
2.46983e-61
1.71021e-64
1.18249e-67
8.15718e-71
5.61138e-74
3.85227e-77
2.63755e-80
1.80139e-83
1.2287e-86
8.36269e-90
5.68268e-93
3.85375e-96
2.60576e-99
1.75693e-102
1.18287e-105
7.95332e-109
5.33598e-112
3.57314e-115
2.38722e-118
1.59117e-121
1.05875e-124
7.02564e-128
4.65347e-131
3.07832e-134
2.03143e-137
7.94168e-141
1.12682
1.10001
1
1
1.00438
1.01162
0.014239
7.29342e-13
7.63702e-16
1.21554e-18
6.88502e-19
1.05675e-20
6.25324e-24
9.00824e-28
3.88412e-31
2.87063e-34
2.11049e-37
1.50659e-40
1.07138e-43
7.59938e-47
5.38502e-50
3.8035e-53
2.68081e-56
1.88725e-59
1.32454e-62
9.27055e-66
6.47888e-69
4.51345e-72
3.13627e-75
2.17495e-78
1.51425e-81
1.04496e-84
7.17379e-88
4.93328e-91
3.38861e-94
2.3208e-97
1.5871e-100
1.08031e-103
7.35127e-107
4.98699e-110
3.37781e-113
2.28057e-116
1.53858e-119
1.03882e-122
6.95672e-126
4.66186e-129
3.1176e-132
2.08107e-135
1.38599e-138
5.47923e-142
1.01902
1.05435
1.03352
1.06579
0.997772
1.00393
0.75506
1.40779e-12
1.38628e-15
1.46637e-15
1.49115e-16
9.95694e-19
2.56718e-22
2.34997e-26
1.43499e-29
1.04883e-32
7.34148e-36
5.10412e-39
3.54237e-42
2.45382e-45
1.69778e-48
1.17304e-51
8.08862e-55
5.56945e-58
3.82477e-61
2.62209e-64
1.79571e-67
1.22685e-70
8.36706e-74
5.7058e-77
3.88353e-80
2.63884e-83
1.79132e-86
1.21303e-89
8.18773e-93
5.5243e-96
3.72127e-99
2.50158e-102
1.67944e-105
1.12494e-108
7.51868e-112
5.01829e-115
3.34555e-118
2.22691e-121
1.48046e-124
9.8253e-128
6.50581e-131
4.30029e-134
2.83657e-137
1.10943e-140
1.0307
1.07194
1
1.02011
1.04251
0.973141
1.0004
2.66339e-09
1.97202e-14
4.26473e-17
2.7544e-17
2.14986e-18
1.13771e-20
2.71489e-24
3.07154e-28
1.94313e-31
1.42194e-34
9.9668e-38
6.94075e-41
4.82913e-44
3.35582e-47
2.32664e-50
1.60892e-53
1.11345e-56
7.66621e-60
5.27294e-63
3.62397e-66
2.48667e-69
1.70582e-72
1.16336e-75
7.93249e-79
5.40117e-82
3.66754e-85
2.48728e-88
1.68518e-91
1.13862e-94
7.68307e-98
5.17423e-101
3.47619e-104
2.33173e-107
1.56128e-110
1.04756e-113
6.9862e-117
4.65601e-120
3.08851e-123
2.04969e-126
1.35762e-129
8.97945e-133
5.92651e-136
2.31915e-139
0.963301
1.00589
1.01037
0.985126
1.00037
1.00285
1.00189
5.07639e-07
1.18351e-15
1.9752e-16
2.65138e-16
3.05271e-17
2.93733e-19
1.41219e-22
1.2247e-26
6.1089e-30
4.53388e-33
3.19229e-36
2.21476e-39
1.53453e-42
1.06232e-45
7.33958e-49
5.05761e-52
3.48103e-55
2.39025e-58
1.63734e-61
1.1205e-64
7.65143e-68
5.21126e-71
3.54321e-74
2.40455e-77
1.62807e-80
1.10091e-83
7.42491e-87
4.99759e-90
3.35965e-93
2.25341e-96
1.50776e-99
1.0073e-102
6.71989e-106
4.47455e-109
2.97529e-112
1.97373e-115
1.30621e-118
8.63203e-122
5.69379e-125
3.74759e-128
2.46308e-131
1.61551e-134
6.28225e-138
0.9408
1.00185
1.02766
0.999636
0.998097
1
1.00239
8.72011e-07
1.37195e-15
4.01091e-16
4.85461e-16
5.89576e-17
5.81682e-19
2.79791e-22
2.3636e-26
1.17417e-29
8.71925e-33
6.13776e-36
4.25805e-39
2.9493e-42
2.03967e-45
1.40859e-48
9.70538e-52
6.67444e-55
4.57958e-58
3.13474e-61
2.14462e-64
1.46403e-67
9.97017e-71
6.77839e-74
4.595e-77
3.10735e-80
2.10041e-83
1.41687e-86
9.53208e-90
6.40361e-93
4.29282e-96
2.87207e-99
1.91909e-102
1.27968e-105
8.51633e-109
5.65889e-112
3.75144e-115
2.48053e-118
1.63781e-121
1.0792e-124
7.09547e-128
4.6614e-131
3.05816e-134
1.18978e-137
1.06061
1.09013
1.0341
1.05667
1.00111
1.01487
1.00421
4.0275e-08
1.85869e-14
3.29277e-17
1.85912e-17
1.45082e-18
8.05229e-21
2.07934e-24
2.30674e-28
1.42819e-31
1.03799e-34
7.25107e-38
5.03829e-41
3.501e-44
2.44322e-47
1.6905e-50
1.16378e-53
8.05189e-57
5.60651e-60
3.80565e-63
2.61084e-66
1.79074e-69
1.22608e-72
8.40798e-76
5.70747e-79
3.88556e-82
2.64309e-85
1.79329e-88
1.22056e-91
8.21745e-95
5.54363e-98
3.74328e-101
2.52173e-104
1.68648e-107
1.13017e-110
7.56568e-114
5.05135e-117
3.36796e-120
2.23864e-123
1.48627e-126
9.92427e-130
6.52548e-133
4.3153e-136
1.77143e-139
1.01132
1.05143
1.03213
1.02477
1.01661
1.00982
1
1.75534e-10
1.59957e-15
1.73318e-15
1.95524e-16
1.58421e-18
5.19476e-22
4.32884e-26
2.45999e-29
1.80991e-32
1.26701e-35
8.79322e-39
6.09323e-42
4.21497e-45
2.91207e-48
2.00796e-51
1.38153e-54
9.49228e-58
6.50996e-61
4.4546e-64
3.043e-67
2.07443e-70
1.41125e-73
9.59233e-77
6.51383e-80
4.41388e-83
2.98554e-86
2.01439e-89
1.35637e-92
9.12442e-96
6.12568e-99
4.10419e-102
2.74709e-105
1.83448e-108
1.22243e-111
8.13414e-115
5.403e-118
3.58171e-121
2.37131e-124
1.5669e-127
1.0325e-130
6.79681e-134
4.47088e-137
1.74418e-140
1.04732
1.04236
1.09246
0.877334
1.02447
1.00051
0.670941
1.76475e-12
3.11115e-15
2.59174e-18
4.16447e-19
5.70879e-21
3.57513e-24
3.9673e-28
1.96547e-31
1.47194e-34
1.06623e-37
7.56904e-41
5.36178e-44
3.79273e-47
2.6804e-50
1.89027e-53
1.33078e-56
9.35094e-60
6.57426e-63
4.59685e-66
3.21006e-69
2.23979e-72
1.55948e-75
1.08351e-78
7.5236e-82
5.19707e-85
3.5909e-88
2.47198e-91
1.70074e-94
1.16723e-97
7.99675e-101
5.46801e-104
3.72937e-107
2.54017e-110
1.72608e-113
1.17034e-116
7.92157e-120
5.34891e-123
3.60674e-126
2.42792e-129
1.62875e-132
1.09253e-135
7.31898e-139
2.89636e-142
1.049
1.00699
1.04366
1.02075
0.999463
1.00835
0.0211631
6.02775e-15
1.78179e-17
1.18922e-17
1.60484e-18
3.47788e-20
8.0524e-23
1.90092e-26
4.08445e-30
2.7185e-33
2.01301e-36
1.43476e-39
1.01235e-42
7.1307e-46
5.01481e-49
3.51749e-52
2.46085e-55
1.71886e-58
1.19759e-61
8.32266e-65
5.77293e-68
3.99594e-71
2.7596e-74
1.90172e-77
1.30724e-80
8.96139e-84
6.12822e-87
4.18356e-90
2.84948e-93
1.93803e-96
1.31478e-99
8.89598e-103
6.0065e-106
4.04957e-109
2.72419e-112
1.82905e-115
1.22531e-118
8.18894e-122
5.46222e-125
3.63529e-128
2.41425e-131
1.60177e-134
1.05968e-137
4.15088e-141
1.03775
1.05978
0.987233
1.02417
0.998607
0.998671
1.165e-06
-3.62959e-18
-1.29659e-23
4.21895e-18
4.76754e-19
3.77426e-21
1.21893e-24
6.84006e-29
1.96062e-32
8.45503e-36
3.35649e-39
1.43704e-42
6.18701e-46
3.8649e-49
1.32337e-52
5.65744e-56
2.40929e-59
7.62958e-63
8.01653e-66
6.49934e-69
1.2184e-72
6.40901e-76
1.60396e-78
2.41996e-82
3.92813e-86
1.29392e-89
6.23887e-92
2.04505e-94
1.00601e-97
5.1941e-101
5.53647e-104
3.19107e-107
1.58796e-111
4.19936e-113
1.93407e-116
9.87009e-121
3.40588e-123
3.05301e-127
1.14369e-129
4.92149e-132
1.14642e-135
5.13157e-139
5.59298e-142
1.34207e-144
1.07089
1.02514
0.995784
1.01291
1.02493
1.01
0.0136238
-7.6264e-18
-1.71832e-20
1.04526e-21
1.01258e-19
6.13615e-22
1.6974e-25
1.48598e-29
4.29072e-33
1.74244e-36
7.35193e-40
3.13538e-43
1.33717e-46
5.50167e-50
2.42335e-53
1.00323e-56
4.98742e-60
2.16823e-63
9.91125e-67
3.88794e-70
2.24458e-73
8.1662e-77
2.80481e-79
4.41861e-83
9.15435e-86
9.39472e-89
7.60704e-92
1.31254e-95
9.1732e-99
5.5346e-102
1.2055e-105
2.27428e-109
1.39829e-110
1.63957e-113
1.45273e-117
2.91115e-121
1.31686e-124
1.47e-126
4.49111e-130
5.23929e-134
6.41116e-137
6.25026e-141
6.17439e-144
2.69885e-145
1.04103
0.949584
1.02125
1.02734
0.996027
1.00374
0.755335
4.98609e-13
-1.0879e-19
1.63265e-16
8.10191e-18
1.52043e-20
1.11809e-23
6.04143e-27
8.50414e-31
2.32363e-34
9.48247e-38
4.03464e-41
1.7178e-44
7.21015e-48
3.07492e-51
1.28106e-54
5.73424e-58
2.40971e-61
1.04913e-64
4.08411e-68
1.80982e-71
6.88606e-75
2.84267e-78
3.30992e-81
5.50775e-85
2.06472e-88
8.8587e-92
2.37971e-94
5.61781e-98
4.93011e-101
3.99162e-104
1.46222e-107
1.07357e-110
3.39863e-113
2.14239e-116
1.48256e-120
5.74523e-124
4.9245e-126
1.90668e-129
4.64059e-133
2.05768e-135
9.27329e-139
2.31123e-142
8.6239e-145
1.0607
1.05942
1.00102
1.03977
1.00688
0.998461
1.00042
1.30851e-09
-1.03757e-18
-1.98844e-24
4.43779e-18
1.77591e-19
1.93593e-22
1.01241e-26
1.88609e-30
6.9032e-34
2.86976e-37
1.23267e-40
5.18746e-44
2.20148e-47
9.22299e-51
3.84722e-54
1.74821e-57
1.18085e-60
3.31931e-64
1.82206e-67
5.39463e-71
3.70691e-73
2.08413e-76
1.21885e-80
3.12539e-83
1.54744e-86
1.31662e-90
7.037e-94
2.49654e-96
5.10616e-100
5.16754e-103
7.1519e-106
4.26499e-110
7.00459e-112
3.12896e-115
4.19548e-118
4.0234e-121
1.67522e-124
1.87286e-127
8.75373e-131
4.00398e-134
2.01248e-138
4.81419e-142
4.43145e-145
1.03343
1.00568
1.01437
0.874982
1.00367
1.00469
1.00182
4.05252e-07
-2.85787e-18
-1.68578e-24
2.27942e-17
1.53218e-18
4.29416e-21
3.63654e-25
3.18289e-29
1.16733e-32
4.78727e-36
1.98889e-39
8.81456e-43
3.47754e-46
1.40388e-49
6.07287e-53
2.6043e-56
1.04277e-59
4.66054e-63
1.13062e-65
1.59995e-69
3.4838e-73
1.64396e-76
6.50353e-79
5.79324e-82
2.64766e-86
3.24837e-88
7.22485e-92
8.48211e-95
4.64531e-99
5.00695e-101
1.90057e-104
1.00766e-106
2.72337e-110
1.4723e-114
2.50804e-116
6.79451e-120
1.57266e-123
1.39995e-126
2.21245e-130
3.76284e-132
1.21203e-135
5.91536e-139
1.43555e-141
0.987486
1.09414
1.07501
1.07156
0.9876
0.995844
1.00161
6.8973e-07
-3.07135e-18
-1.88644e-24
1.76609e-17
1.22743e-18
3.66374e-21
3.35164e-25
2.76647e-29
1.01141e-32
4.18945e-36
1.76313e-39
7.33205e-43
6.35997e-46
1.44688e-49
9.58743e-53
3.12896e-56
1.05583e-59
4.61282e-63
1.58831e-66
1.26281e-69
2.97968e-73
1.08436e-76
5.62519e-78
5.17273e-81
2.36666e-84
2.34467e-88
2.59379e-91
2.01419e-95
4.90508e-98
3.58245e-101
4.76241e-104
2.28157e-108
2.49313e-110
1.80793e-113
1.4184e-117
1.7786e-119
8.99149e-123
1.6563e-126
1.00393e-130
9.17293e-133
1.81615e-135
4.23685e-139
1.32804e-143
0.999701
1.07933
0.904876
0.997293
0.986385
1.01341
1.00377
2.59042e-08
-1.39838e-18
-1.4492e-24
3.95184e-18
1.52744e-19
1.58846e-22
9.65134e-27
1.8781e-30
6.66002e-34
2.7568e-37
1.20072e-40
5.09779e-44
2.16548e-47
1.38446e-50
4.15298e-54
1.86451e-57
8.28398e-61
5.91016e-64
4.0142e-67
7.22804e-71
4.41089e-74
1.44453e-76
2.80041e-80
2.95565e-84
1.45419e-86
1.34257e-90
1.04588e-93
3.41206e-96
7.62709e-100
1.04077e-103
7.1355e-106
2.00066e-109
5.22568e-112
6.07004e-116
1.44903e-119
1.18315e-121
3.72631e-125
9.36241e-129
9.06585e-133
2.72548e-136
1.07062e-139
9.66507e-143
4.74495e-143
0.983051
1.03422
1.00884
0.973648
1.0003
1.01345
1.00001
8.33574e-11
-7.78569e-20
1.75427e-16
8.05265e-18
1.35706e-20
9.61067e-24
4.803e-27
6.8821e-31
1.96122e-34
8.03652e-38
3.41215e-41
1.46501e-44
6.19357e-48
2.60912e-51
1.13261e-54
4.94311e-58
1.92759e-61
1.13208e-64
4.01632e-68
2.55947e-71
2.04559e-74
2.82583e-78
3.28487e-81
5.54241e-85
2.21398e-88
5.90952e-91
2.63471e-94
4.68143e-98
4.28855e-101
4.1059e-104
1.71402e-107
3.81017e-110
7.41098e-113
2.10353e-116
9.0749e-119
1.07959e-122
6.93597e-127
7.08293e-130
1.03635e-133
3.3163e-137
1.29843e-140
5.1547e-144
2.73865e-145
1.02409
1.01749
0.98132
0.907836
0.997842
1.01149
0.671567
-9.43515e-20
-2.1434e-19
1.06992e-22
7.45094e-20
2.07384e-21
9.40353e-25
2.70659e-29
7.01883e-33
2.86989e-36
1.19772e-39
4.97683e-43
2.07557e-46
8.645e-50
3.54993e-53
1.48753e-56
6.07921e-60
2.55071e-63
1.03571e-66
4.23685e-70
1.84837e-73
7.39765e-77
2.91851e-80
1.28322e-83
8.71791e-86
2.54187e-89
2.62481e-92
1.61252e-95
9.07326e-99
5.17795e-102
1.75886e-105
1.04639e-108
8.87776e-113
5.55886e-115
9.51898e-119
1.6611e-122
9.84931e-125
1.97022e-127
9.52426e-131
1.62532e-134
2.00385e-137
1.75149e-140
9.59698e-143
2.80245e-145
1.05364
1.02581
1.02456
1.042
1.00989
1.00966
0.0199627
-2.07259e-21
-1.38519e-22
5.68956e-18
7.21363e-19
7.38246e-21
3.3529e-24
1.79561e-28
4.66281e-32
1.91285e-35
7.96115e-39
3.3679e-42
1.39245e-45
5.76011e-49
2.45596e-52
1.01821e-55
4.13571e-59
1.71824e-62
8.01489e-66
3.52896e-69
2.08329e-72
5.58838e-76
5.48688e-79
3.56761e-82
4.94292e-86
6.68339e-88
2.06225e-91
1.79032e-95
1.01425e-98
4.9982e-101
4.57193e-104
5.10363e-108
6.12714e-110
1.69853e-113
6.46483e-117
1.7157e-119
9.45817e-123
9.52517e-127
1.04815e-129
1.61785e-132
1.11305e-135
6.34353e-139
1.48635e-142
2.82037e-145
0.233504
1.00724
0.330826
0.995573
0.247657
1.00689
0.341576
0.579693
1.0178
1
1.00819
0.580735
1.0172
1.00012
1.00009
0.997792
1.00019
1.00416
1.0001
0.984959
1.00049
0.999889
0.999669
1.00133
0.996683
0.999834
1.00114
1.00126
1.00254
0.999278
1.00275
1.00239
1.00235
0.999648
1.00267
1.00274
0.999794
1.00494
1
1.00307
0.999785
1.00519
1.00389
1.01481
1.0015
1.01501
1.00651
1.01291
1.00127
0.999831
1.01633
1
1.00962
0.999445
1.02434
1.00008
1.00002
0.993634
0.739448
0.998365
1.00026
1.00045
0.739682
0.608236
1.00102
0.175839
1.00676
0.609467
1.00641
0.180837
0.238545
1.0067
0.342875
0.990951
0.234389
1.00538
0.341608
0.580619
1.01607
1.00026
1.0137
0.580253
1.01493
1
1.00033
0.96941
1.0009
1.00411
1.00012
0.996871
1.00074
1.00002
1.00231
1.00156
0.994708
1.00005
0.998206
1.00105
1.00289
0.999998
1.00345
1.00442
1.0024
0.998582
1.00224
1.00322
1.00016
1.00558
1
1.00187
1.00005
1.00507
1.00629
1.01171
1.00173
1.01519
1.00572
1.00786
1.0012
0.999855
1.02151
1.0003
1.01616
0.999521
1.01862
1.00009
1.00055
1.00115
0.738937
1.01575
1.00046
1.00462
0.736248
0.60934
1.0077
0.182304
1.01162
0.609998
1.01027
0.180196
0.226713
1.00569
0.338564
0.998302
0.230419
1.01286
0.328379
0.580038
1.01457
1.00014
1.00495
0.579924
1.01361
1
1.00029
0.999608
1.00117
1.00467
1.00008
0.999812
1.00026
1.00025
0.97408
1.00156
0.999794
1.00001
0.973929
1.00159
1.00294
1
1.00259
1.00843
1.00261
0.999281
1.00206
1.00187
0.999357
1.00547
0.994406
1.00143
1.00187
1.00517
1.00559
1.01667
1.00164
1.0136
1.00495
1.00518
1.00144
1.00013
1.02223
1.0003
1.02502
1.00003
1.02023
1.00007
1.00054
1.00587
0.73462
1.02325
1.00013
1.01544
0.734932
0.610093
1.01064
0.176753
1.00645
0.609744
1.00245
0.166733
0.983908
0.980984
0.999434
1.0047
0.975498
0.986508
0.992768
1.00005
1
0.999982
0.999998
0.999959
1.00015
1
-3.05676e-17
-3.2269e-16
-2.05859e-17
4.90505e-07
1.81303e-13
8.66016e-07
1.81235e-13
1.00592
1.01949
1.03995
1.006
1.00907
1.01766
1.03439
1.00144
1.00279
1.0075
1.00696
1.00284
1.00717
1.00218
-5.82362e-17
0.485671
-1.18999e-15
0.0134843
3.87182e-10
0.48698
2.33347e-10
1.01292
1.04874
1.01169
1.0205
1.02151
1.07206
1.0112
0.99777
1.00337
1.00301
1.00483
1.00353
1.00247
0.997153
-1.20174e-19
1.00003
-1.19859e-15
0.755475
4.67242e-10
1.00023
6.71132e-08
1.00648
1.07231
1.00844
1.06929
1.00754
1.04409
1.01515
0.997257
0.996163
0.9878
0.985003
0.992434
0.999308
0.978831
-1.24353e-18
1.00162
0.0593048
1.00063
1.18451e-06
1.00167
0.0661377
0.974012
0.995171
0.95557
1
1.00553
0.992361
0.965747
1.00199
1.00438
1.00271
0.986465
1.00464
1.013
1.00144
0.11918
1.00181
0.204899
1.0023
0.128182
1.00213
0.21615
0.942523
0.991724
0.97874
1.00209
0.852012
0.961164
1
0.999907
1
0.998668
0.996929
1.00016
0.997484
1.00069
0.223601
1.00298
0.112731
1.00277
0.237528
1.0033
0.120018
1.0247
0.986697
1.01363
0.988619
1.01866
0.98526
1.01371
1.01603
1.01014
1.02436
1.01522
1.01038
1.02418
1.01638
0.0570214
1.00051
-1.22222e-17
1.00426
0.0630787
1.00078
1.0003e-06
1.00176
1.00041
1.02867
1.01137
1.0219
1.00713
1.0476
0.996173
1.00105
0.958521
1.00381
1.00126
0.968321
0.999048
-1.06812e-14
0.857412
-2.07686e-21
1.00019
6.72026e-08
0.857301
6.10349e-10
0.968066
0.870691
0.948554
1.0225
0.978768
0.965298
1.00064
0.995537
1.00007
0.960268
0.998176
1
0.987288
0.996113
-3.44335e-20
0.0595949
-5.14221e-24
0.671615
1.29672e-09
0.0656933
2.19486e-09
0.973281
1.00658
0.984304
0.986617
0.97618
0.999519
0.988793
1.00076
0.997223
1.01859
1.00194
0.997467
1.01958
1.00151
-5.62291e-23
-1.27382e-16
-4.45475e-17
0.0204365
1.58684e-12
6.31926e-07
1.61945e-12
1.00018
0.985412
0.996121
0.998294
1.004
0.96772
0.971062
1
0.999889
1.00328
0.988505
1.0002
1.01225
0.999046
9.73108e-13
1.04146e-06
9.73064e-13
1.13113e-06
9.73109e-13
1.10087e-06
9.73087e-13
1.01138
1.01994
1.01721
1.01742
1.00482
1.00697
1.0004
0.997031
1.00255
1.00572
1.01701
1.00079
1.00237
1.00591
1.52063e-09
0.486747
8.49946e-10
0.0146086
1.52116e-09
0.487098
8.49946e-10
1.00934
1.01968
1.00097
1.00659
1.01775
0.975014
0.999905
1.0002
1.00322
1.0029
1.00413
1.00001
1.0035
1.00233
9.16248e-10
1.0008
1.06383e-07
0.75536
9.09168e-10
1.00032
1.0588e-07
1.00695
1.05024
1.01741
1.00435
1.00146
1.03912
0.998087
0.98165
0.983335
0.95497
0.965146
0.971179
0.99525
0.939923
1.81649e-06
1.00168
0.0672328
1.00057
1.81193e-06
1.00147
0.0663268
0.993962
0.995822
0.984742
1.00902
1.0045
0.981765
0.992431
1.00347
1.00637
1.00414
1.00359
1.00359
1.00661
1.00393
0.128602
1.00289
0.21929
1.00219
0.128407
1.00208
0.219315
0.890423
0.980124
0.998426
0.998042
0.999961
0.999185
0.998841
0.999319
1.00032
1
0.99552
0.999429
1.00034
0.999722
0.239174
1.00416
0.121787
1.00187
0.238498
1.00328
0.121102
1.01953
1.02808
1.01559
0.996934
1.01552
0.991625
1.00236
1.01536
1.01036
1.02396
1.01484
1.01574
1.01079
1.02436
0.0631636
1.00149
1.54402e-06
1.0039
0.0638842
1.00084
1.54591e-06
1.00213
0.992782
0.998758
1.00093
0.990944
1.01054
0.98087
1.00413
1.00124
1.00258
1.01241
1.00321
1.00114
1.00897
1.06859e-07
0.857151
1.22655e-09
1.00025
1.07034e-07
0.85766
1.29876e-09
0.945745
0.981008
1.00961
0.998916
0.945488
0.960755
1.01397
0.995414
1.00246
0.992746
1.0039
0.995605
1.004
0.988533
3.74917e-09
0.0664575
6.64572e-09
0.671351
3.74917e-09
0.0677372
6.69409e-09
0.971985
0.995447
0.996859
0.998851
1.00101
1
0.995418
1.00215
1.00059
1.01031
1.00937
1.00216
1.00032
1.01028
6.87873e-12
7.65681e-07
9.54249e-12
0.0208441
6.87873e-12
7.5528e-07
9.45265e-12
1.01149
0.985773
0.951686
1.02566
1.00098
0.896042
0.93757
1.00089
1
1.02618
0.992825
1.00233
1.02937
0.999752
2.42156e-13
9.8841e-07
2.42432e-13
-1.35374e-16
-6.38136e-17
-5.40287e-16
-2.28538e-17
0.979166
1.04085
0.988593
1.04855
0.95668
1.00583
0.977632
0.99435
1.00173
0.998325
1.00866
0.99432
1.00163
1.00099
3.85653e-10
0.486828
2.31765e-10
0.00767667
-5.55471e-17
0.485302
-1.00609e-15
1.01223
0.953144
1.00469
0.970599
1.00757
0.975398
1.00159
1.00234
1.00331
1.00049
1.00418
1.00231
1.00367
1.00037
4.64513e-10
1.00072
6.76167e-08
0.75491
-1.02928e-19
1.00004
-7.03559e-16
1.0147
1.03719
1.0158
1.00001
0.983875
1.00812
0.916956
0.981824
0.998511
0.93104
0.999209
0.979829
0.998112
0.924492
1.17431e-06
1.00153
0.0660012
1.00006
-7.4757e-19
1.00122
0.05929
1.00702
0.984147
0.98721
1.00587
1.00494
0.970783
0.980112
1.00314
1.00745
1.007
1.00618
1.00349
1.00761
1.0132
0.127016
1.00278
0.219475
1.00149
0.119077
1.00153
0.204719
0.99425
0.978887
0.975099
0.983554
0.989961
0.990444
0.976349
0.999554
0.999537
0.982003
0.999125
0.999781
0.999271
0.978451
0.236237
1.00405
0.120703
1.00124
0.222053
1.00287
0.112717
1.02158
0.964863
1.03191
0.992207
1.0075
0.903845
0.998121
1.01558
1.00981
1.03162
1.01916
1.01546
1.00994
1.03278
0.0619393
1.00141
1.00032e-06
1.00324
0.0566944
1.00045
-1.33321e-17
0.994673
0.998559
0.962643
0.991399
1.00201
1.0221
1.00492
1.004
1.0018
1.04198
1.04293
1.00491
1.00195
1.00927
6.72385e-08
0.857627
6.91364e-10
1.00002
-1.06063e-14
0.85812
-8.40925e-22
0.985075
1.00103
1.04353
1.0201
0.999367
1.01832
0.994956
0.987426
1.00709
0.978501
1.02089
0.989952
1.00742
0.98165
1.28372e-09
0.0686639
2.1391e-09
0.671671
-5.81383e-20
0.0594922
-1.81928e-22
1.01751
1.02977
0.995469
1.01954
1.01062
1.00554
0.976568
1.00311
1.0018
1.00005
1.00236
1.00135
1.00017
1.01226
1.57519e-12
6.3308e-07
1.57498e-12
0.0137387
-7.09236e-23
-2.43061e-16
-3.69499e-17
0.881125
0.940485
0.157073
0.239652
0.160507
0.881611
0.936971
1.00218
1.00623
1.00416
1.00721
1.0063
1.00349
1.0027
0.974951
0.285888
0.996821
0.336305
0.295081
0.993623
0.980676
1.00012
0.998757
0.999997
0.997163
0.996487
1
1
0.879567
0.245095
0.93225
0.166853
0.163175
0.877968
0.933011
1.00142
1.00686
1.00335
1.00232
1.00574
1.00307
1.00083
0.973566
0.338578
0.303215
0.991063
0.297718
0.992416
0.970709
1.00046
1.00043
0.735206
0.579866
1.00057
0.736005
1.00065
1.00862
1.01815
1.00921
1.01734
1.01779
1.00888
1.00887
1.00341
0.914718
1.00141
1.00001
0.912695
1.00155
1.00299
1.00193
1.00752
1.00271
1.00506
1.00284
1.00738
1.00125
1.00075
0.5793
1.00033
0.736098
1.00071
0.735269
1.00033
1.00853
1.01688
1.01789
1.00837
1.01763
1.00865
1.00851
1.00379
1.00024
0.911181
1.00163
0.911031
1.0018
1.00338
1.00119
1.00185
1.00049
1.00013
1.0018
1.00085
1.00158
0.998844
1.0002
0.99984
0.990723
0.994802
0.998427
1.00414
1.00124
1.00091
1.00023
1.00028
1.00122
1
1.00312
0.998223
1.0043
1.00353
1.00241
1.00323
1.00261
0.99917
1.00139
1.00027
1.00184
1.0008
1.00211
1.00122
1.00125
0.993908
0.993774
0.974768
0.993694
0.978957
0.99684
0.992901
1.00111
1.00096
1.00139
0.999904
1.00154
0.999969
1.00131
0.997537
0.99787
1
0.999986
0.997845
0.999563
0.996227
0.999091
0.993329
1.00212
0.999084
0.996909
1.00154
0.99705
1.00069
1.00057
1.00298
1.00198
1.00055
1.00272
1.00132
0.996566
0.998482
0.99538
0.992628
0.998941
0.994266
0.979279
0.995857
0.999854
0.996888
0.999964
0.998953
0.999438
0.995961
0.997879
1.00079
0.979552
1.00146
0.979771
1.00178
0.997929
1.00087
1.00189
1.00043
1.00205
1.00069
1.00261
1.00056
1.00334
1.0048
1.00323
1.00254
1.00447
1.00313
1.00423
0.999485
0.988658
1.00312
0.999753
0.987156
1.00266
1
1.00139
1.00267
1.00375
1.0028
1.00281
1.00361
1.002
1.00476
1.00324
1.00587
1.00618
1.00507
1.00884
1.00339
1.00376
1.00285
1.0043
1.00289
1.00461
1.0034
1.00337
0.998963
1
0.985941
1.00112
0.986384
1.002
0.998619
1.00176
1.0034
1.0028
1.00348
1.00322
1.0038
1.00171
1.00288
1.00344
1.00298
1.00287
1.00313
1.00304
1.00344
0.992654
0.984045
1.00277
0.999813
0.97541
1.00243
0.994786
1.00093
1.00443
1.00684
1.00482
1.0039
1.00676
1.00172
0.999646
1
1.00044
0.991465
1.00033
0.991124
0.99951
1.00291
1.00346
1.00264
1.00307
1.00298
1.00358
1.0025
0.99662
1.00093
0.975574
1.00252
0.97522
1.00247
0.993669
1.00136
1.00504
1.00392
1.00664
1.00406
1.00689
1.00104
1.0098
1.00761
1.0057
1.00356
1.0067
1.00592
1.01004
1.01006
1.01865
1.00587
1.01448
1.01802
1.00616
1.00984
1.00599
1.00368
1.00274
1.00132
1.00357
1.00296
1.00613
1.01605
1.01539
1.01061
1.02415
1.01026
1.02398
1.01571
1.01012
1.00418
1.00716
1.00602
1.00676
1.00634
1.01
1.00995
1.01392
1.01715
1.00665
1.01764
1.00623
1.00999
1.00626
1.00179
1.00341
1.00318
1.00393
1.00318
1.00596
0.990427
1.00014
0.997251
0.999578
0.999725
0.996831
0.983214
1.00029
0.980915
1.00933
1.01815
0.984954
1.01064
0.999821
0.988946
0.999335
1.00041
1.00004
0.999518
1.00105
0.992922
0.999664
1.00807
1.0014
1
1.00134
0.993605
1.00122
0.992703
0.999857
1.00017
0.998424
0.999661
0.996326
0.988297
1.00238
1.02106
0.993786
1.01119
0.999297
1.01045
1.00231
0.988709
1.0003
0.999809
1.00144
0.999946
1.00154
0.988662
0.999983
1.00016
1
1.00001
1.00005
1
1.00016
0.951082
0.965329
0.996395
0.996234
0.933122
0.996393
0.982873
0.999376
0.925479
1
0.739653
0.923587
1
0.999747
0.995561
0.997754
1.00112
0.988761
1.00034
0.993855
0.995932
0.999961
1.00039
1.00116
1
1.00091
1
0.999923
0.932337
1.00013
0.931493
0.997113
0.931932
0.99633
0.928491
0.999612
0.739183
0.91046
1
0.921358
1
0.999946
1.00001
1
0.359177
0.60873
1
0.360058
1.00009
0.999961
0.958694
1
1.00332
0.958909
1
1.0001
0.929044
0.298726
0.890318
0.178191
0.307802
0.933168
0.890517
1.00156
1.00593
1.00046
1.01731
0.999672
1.01657
1.00209
0.999527
0.608427
1.00003
0.362954
1.00015
0.361085
0.998848
0.999961
1.00455
0.960359
1.00058
0.959161
1
1.00036
0.932162
0.177861
0.298207
0.890085
0.303731
0.938789
0.890868
0.873275
0.939803
0.16848
0.243475
0.877057
0.172335
0.936339
1.00003
1.0011
1.0019
1.00724
1.0004
1.00023
1.00132
0.969129
0.305876
0.990474
0.343152
0.969241
0.306499
0.990322
1.00033
0.989969
0.999163
1.02868
1.02858
1
0.999896
0.873189
0.247186
0.943937
0.173989
0.173563
0.870954
0.933219
0.999901
1.00608
0.971414
1.00106
0.99744
1.0013
0.999527
0.968993
0.342732
0.305155
0.991464
0.306972
0.990664
0.970626
1