/*--------------------------------*- C++ -*----------------------------------*\
| =========                 |                                                 |
| \\      /  F ield         | OpenFOAM: The Open Source CFD Toolbox           |
|  \\    /   O peration     | Version:  5.0                                   |
|   \\  /    A nd           | Web:      www.OpenFOAM.org                      |
|    \\/     M anipulation  |                                                 |
\*---------------------------------------------------------------------------*/
FoamFile
{
    version     2.0;
    format      ascii;
    class       volScalarField;
    location    "2.8";
    object      p;
}
// * * * * * * * * * * * * * * * * * * * * * * * * * * * * * * * * * * * * * //

dimensions      [1 -1 -2 0 0 0 0];

internalField   nonuniform List<scalar> 
8647
(
98.6339
96.0547
103.478
96.2889
97.9569
97.5291
95.1697
91.4439
88.9189
86.4234
83.9398
81.4693
79.0138
76.5963
74.1958
71.8195
69.458
67.1288
64.8215
62.5394
60.2634
58.0052
55.7771
53.5416
51.3302
49.1398
46.9527
44.7644
42.5955
40.451
38.3035
36.1807
34.0864
31.986
29.8745
27.7972
25.773
23.7853
21.8066
19.8196
17.861
15.9464
14.0352
12.0987
10.1894
8.32698
6.4692
4.6025
2.75715
0.921824
105.406
107.236
106.838
100.578
98.9401
97.0101
95.4187
91.5495
88.9961
86.482
83.9825
81.4958
79.0518
76.6189
74.2027
71.8292
69.4603
67.145
64.8447
62.5428
60.2672
58.0073
55.7704
53.5431
51.3211
49.1241
46.9415
44.7667
42.6039
40.4553
38.3191
36.1947
34.0836
31.9752
29.8767
27.8033
25.7684
23.769
21.7864
19.8189
17.8671
15.9517
14.0418
12.1181
10.1975
8.31797
6.4544
4.59888
2.75711
0.921405
97.6121
97.1199
101.978
97.5393
96.7645
96.473
96.0573
92.242
88.9388
86.5059
84.0043
81.5057
79.0476
76.6242
74.2121
71.822
69.4743
67.1651
64.8604
62.5414
60.2699
58.0093
55.7585
53.5358
51.3233
49.1193
46.9322
44.7726
42.6134
40.4567
38.3236
36.1939
34.0635
31.9643
29.8872
27.8197
25.7699
23.7606
21.7847
19.8223
17.8768
15.9518
14.0317
12.118
10.2072
8.31505
6.45008
4.6003
2.75985
0.921284
96.9093
95.1974
101.553
97.8087
97.9021
98.8687
96.5452
92.5781
89.0227
86.571
84.0322
81.5459
79.0572
76.6215
74.217
71.8301
69.4767
67.1593
64.8386
62.5434
60.277
58.0094
55.7636
53.5379
51.3344
49.1292
46.931
44.7788
42.6086
40.4473
38.3241
36.1899
34.0585
31.9597
29.8951
27.8365
25.776
23.7565
21.7848
19.8249
17.8814
15.9408
14.0112
12.1085
10.2152
8.31834
6.45082
4.60847
2.76646
0.916758
93.1278
103.525
108.192
101.854
94.9933
97.8566
96.8418
93.1978
89.0882
86.564
84.0274
81.5221
79.0554
76.6174
74.2247
71.8387
69.4891
67.151
64.8176
62.5429
60.281
58.01
55.7695
53.5426
51.3433
49.1443
46.9411
44.774
42.5966
40.4425
38.318
36.1801
34.0552
31.9587
29.8963
27.8463
25.787
23.763
21.79
19.8373
17.8813
15.9251
13.9933
12.0987
10.211
8.31969
6.45868
4.62085
2.77471
0.914565
68.9914
110.173
98.2972
97.1173
98.2079
95.889
96.5111
93.2082
89.0066
86.5172
83.9958
81.5027
79.0491
76.6156
74.2267
71.8421
69.4958
67.1541
64.8159
62.5377
60.2803
58.0041
55.7704
53.5526
51.3482
49.1577
46.9511
44.7677
42.5872
40.4254
38.3073
36.1727
34.0473
31.9603
29.8997
27.8479
25.7973
23.7726
21.7929
19.8368
17.874
15.9084
13.9778
12.0863
10.2065
8.32389
6.47431
4.64701
2.78587
0.917682
163.954
43.6441
103.045
95.2915
95.5784
96.4473
96.5639
92.1835
88.8445
86.4292
83.9509
81.4805
79.0489
76.6198
74.219
71.839
69.4928
67.16
64.8181
62.5248
60.2617
58.0028
55.7674
53.5607
51.3556
49.1562
46.9574
44.7647
42.5893
40.4412
38.3066
36.162
34.0409
31.9667
29.9021
27.8424
25.8028
23.7869
21.7953
19.8314
17.8679
15.9076
13.9765
12.0863
10.2025
8.32558
6.4806
4.64609
2.78957
0.926756
114.046
109.073
106.426
99.9895
96.3042
96.9301
95.7902
92.0611
88.7396
86.3655
83.9032
81.4525
79.0316
76.6087
74.1925
71.8382
69.4813
67.1471
64.8298
62.5176
60.2542
57.999
55.7664
53.562
51.3545
49.1605
46.9586
44.7615
42.6003
40.4462
38.3023
36.1593
34.0451
31.9735
29.9006
27.832
25.8031
23.7968
21.7996
19.8209
17.8618
15.9128
13.9892
12.0902
10.2014
8.32771
6.47896
4.63477
2.78765
0.930527
103.913
102.91
112.689
96.994
100.577
96.5206
95.4172
91.1957
88.7848
86.3534
83.9022
81.4554
79.0224
76.6008
74.2004
71.8353
69.4628
67.1329
64.8248
62.5271
60.248
57.9926
55.7713
53.5574
51.3567
49.1595
46.9551
44.7601
42.5937
40.4457
38.2911
36.16
34.0647
31.98
29.8935
27.8217
25.7999
23.8011
21.804
19.8206
17.8597
15.9249
14.0051
12.0902
10.1968
8.32864
6.47153
4.62395
2.77692
0.93169
99.285
103.867
99.665
99.2355
95.9452
96.4878
94.6858
91.3181
88.8599
86.3758
83.9154
81.4515
79.0024
76.5997
74.1974
71.8208
69.4583
67.1293
64.8186
62.5288
60.2483
57.9945
55.775
53.5466
51.3446
49.1539
46.9559
44.7623
42.5916
40.4473
38.2943
36.1666
34.0796
31.984
29.8809
27.8034
25.7799
23.7933
21.8058
19.8193
17.8598
15.9365
14.0229
12.0927
10.1916
8.33374
6.47475
4.6128
2.76237
0.922148
99.5988
104.178
101.993
98.6995
97.803
97.3108
95.1623
91.4445
88.9189
86.4234
83.9399
81.4693
79.0136
76.5963
74.1958
71.8193
69.458
67.1289
64.8216
62.5392
60.2634
58.0052
55.7771
53.5415
51.3302
49.1399
46.9526
44.7644
42.5954
40.4507
38.3034
36.1808
34.0865
31.9858
29.8745
27.7972
25.7729
23.7853
21.8066
19.8195
17.8608
15.9465
14.0355
12.0988
10.1894
8.32699
6.46912
4.60221
2.75711
0.921894
117.664
104.65
93.5993
103.824
97.1134
96.9429
95.3131
91.5497
88.996
86.4819
83.9824
81.4958
79.0518
76.6188
74.2027
71.829
69.4602
67.1451
64.8446
62.5427
60.2672
58.0073
55.7704
53.543
51.3211
49.124
46.9414
44.7667
42.6039
40.4553
38.3196
36.1947
34.0835
31.9752
29.8767
27.8032
25.7683
23.7691
21.7863
19.8189
17.8671
15.9518
14.0417
12.1178
10.1977
8.318
6.45431
4.59895
2.7573
0.921358
102.501
98.6247
101.782
98.5564
97.1155
96.4794
96.0867
92.2418
88.9404
86.5057
84.0043
81.5056
79.0476
76.6242
74.2121
71.8219
69.4743
67.1649
64.8605
62.5413
60.2697
58.0093
55.7583
53.5358
51.3233
49.1191
46.9322
44.7726
42.6134
40.4568
38.3234
36.1938
34.0636
31.9643
29.8873
27.8197
25.7697
23.7606
21.7847
19.8222
17.8769
15.9519
14.0316
12.1178
10.2072
8.31502
6.44992
4.60033
2.75987
0.921268
95.5503
97.5915
100.735
99.5426
97.8008
102.939
96.5449
92.576
89.0233
86.5705
84.0322
81.5458
79.0572
76.6215
74.2169
71.83
69.4767
67.1592
64.8385
62.5433
60.2771
58.0093
55.7636
53.5381
51.3342
49.129
46.9311
44.7789
42.6086
40.4472
38.324
36.1898
34.0585
31.9597
29.8951
27.8365
25.776
23.7566
21.7848
19.8248
17.8814
15.9405
14.011
12.1085
10.2153
8.31833
6.45077
4.60841
2.76644
0.916624
109.307
102.478
105.87
99.9313
101.686
97.2343
96.8254
93.1831
89.0884
86.5641
84.0274
81.5222
79.055
76.6173
74.2247
71.8387
69.4891
67.151
64.8175
62.5429
60.2811
58.0097
55.7692
53.5427
51.3432
49.1443
46.9412
44.774
42.596
40.4422
38.318
36.1801
34.0551
31.9587
29.8963
27.8462
25.787
23.7629
21.79
19.8372
17.8813
15.9251
13.9933
12.0987
10.211
8.31967
6.45871
4.62079
2.77463
0.91462
102.49
103.208
94.6295
97.8195
96.8121
95.9783
96.5
93.1782
89.0068
86.5172
83.9957
81.5026
79.0492
76.6156
74.2266
71.842
69.4958
67.1542
64.8158
62.5375
60.2805
58.0041
55.7704
53.5526
51.3482
49.1578
46.951
44.7676
42.5872
40.4256
38.3073
36.1722
34.0472
31.9602
29.8998
27.848
25.7974
23.7726
21.7929
19.8368
17.8739
15.9084
13.9778
12.0863
10.2064
8.32387
6.47428
4.64697
2.78559
0.917648
140.614
35.9561
95.142
95.7573
97.2721
96.4198
96.4997
92.1719
88.845
86.4291
83.9509
81.4805
79.0489
76.6198
74.219
71.839
69.4928
67.1599
64.8181
62.5249
60.2618
58.0028
55.7674
53.5607
51.3555
49.1561
46.9573
44.7647
42.5893
40.4411
38.3069
36.1619
34.0409
31.9667
29.902
27.8422
25.8028
23.7869
21.7953
19.8314
17.8679
15.9075
13.9765
12.0863
10.2023
8.32557
6.48069
4.64614
2.78949
0.926874
113.678
111.116
106.205
103.115
97.1962
96.7279
95.7551
92.0579
88.7403
86.3653
83.9032
81.4525
79.0316
76.6087
74.1925
71.8382
69.4816
67.1468
64.8299
62.5176
60.2542
57.9991
55.7664
53.5619
51.3545
49.1606
46.9586
44.7613
42.6002
40.4463
38.3022
36.1593
34.0451
31.9735
29.9005
27.8319
25.803
23.7967
21.7996
19.8209
17.8617
15.9129
13.9892
12.0902
10.2014
8.32769
6.47895
4.63475
2.78763
0.93056
104.975
103.198
117.82
102.28
99.9973
96.3474
95.4541
91.1961
88.7849
86.3534
83.9022
81.4554
79.0225
76.6008
74.2004
71.8355
69.463
67.1327
64.8248
62.5272
60.2479
57.9926
55.7714
53.5574
51.3566
49.1596
46.955
44.7601
42.5938
40.4458
38.2911
36.1599
34.0651
31.98
29.8934
27.8217
25.7999
23.801
21.8039
19.8205
17.8597
15.9249
14.0051
12.0901
10.1968
8.32867
6.47147
4.62392
2.77699
0.931692
99.2423
99.9494
101.569
99.0492
99.3333
96.6197
94.5723
91.3186
88.8599
86.3757
83.9155
81.4513
79.0024
76.5996
74.1974
71.8211
69.4582
67.129
64.8187
62.5287
60.2481
57.9944
55.775
53.5466
51.3447
49.1539
46.9559
44.7623
42.5917
40.4473
38.2942
36.1667
34.0798
31.9837
29.8808
27.8036
25.7799
23.7933
21.8058
19.8193
17.8598
15.9366
14.0229
12.0926
10.1916
8.33374
6.47462
4.61279
2.76242
0.922135
98.9024
102.823
102.355
96.8936
97.7793
98.8876
95.2049
91.4443
88.9188
86.4233
83.9399
81.4694
79.0133
76.5962
74.1957
71.819
69.4579
67.1289
64.8217
62.539
60.2632
58.0051
55.777
53.5413
51.3302
49.1398
46.9524
44.7643
42.5952
40.4506
38.3035
36.1808
34.0864
31.9857
29.8744
27.7971
25.7728
23.7853
21.8066
19.8194
17.8607
15.9465
14.0355
12.0989
10.1893
8.32729
6.469
4.60213
2.75701
0.921847
99.6777
111.196
97.2086
97.2406
95.1462
97.0847
95.3185
91.549
88.996
86.4818
83.9824
81.4957
79.0518
76.6188
74.2026
71.8287
69.4602
67.1452
64.8445
62.5426
60.2678
58.0073
55.7702
53.5429
51.3213
49.1239
46.9412
44.7666
42.6041
40.4553
38.3196
36.1947
34.0834
31.9752
29.8767
27.8031
25.7682
23.7695
21.7861
19.818
17.8671
15.9518
14.0416
12.1174
10.1977
8.318
6.45422
4.59888
2.75737
0.921168
101.733
117.971
98.9625
96.9737
97.0653
96.5384
96.0813
92.2429
88.9401
86.5058
84.0042
81.5056
79.0475
76.6241
74.212
71.8218
69.4742
67.1647
64.8606
62.5412
60.2695
58.0092
55.7581
53.5363
51.3233
49.119
46.9321
44.7726
42.6134
40.4568
38.3233
36.1935
34.0637
31.9644
29.8873
27.8197
25.7695
23.7606
21.7846
19.8221
17.8769
15.952
14.0315
12.1177
10.2072
8.31495
6.44973
4.60028
2.75984
0.9211
97.0391
95.5502
100.932
104.079
97.7597
94.8317
96.5448
92.5778
89.0227
86.5704
84.0321
81.5457
79.0571
76.6214
74.2169
71.83
69.4766
67.1589
64.8385
62.5431
60.2771
58.0093
55.7635
53.5382
51.334
49.1288
46.9312
44.7788
42.6086
40.4471
38.3238
36.1897
34.0584
31.9596
29.8951
27.8364
25.7759
23.7565
21.7848
19.825
17.8814
15.9404
14.0108
12.1085
10.2153
8.31826
6.45066
4.60833
2.76634
0.916292
98.832
102.271
102.063
102.412
100.204
97.1577
96.8194
93.1864
89.0876
86.5643
84.0274
81.5222
79.0548
76.6173
74.2248
71.8387
69.489
67.1509
64.8174
62.5429
60.2811
58.0096
55.7688
53.5429
51.3429
49.1444
46.9413
44.7739
42.5959
40.4421
38.318
36.18
34.055
31.9587
29.8963
27.8462
25.7869
23.7629
21.7899
19.8372
17.8812
15.9252
13.9934
12.0986
10.211
8.3196
6.45893
4.62065
2.77454
0.914519
129.833
108.403
96.2728
106.462
96.2098
96.9019
96.4889
93.1811
89.006
86.5173
83.9955
81.5025
79.0497
76.6155
74.2264
71.8419
69.4957
67.1542
64.8157
62.5373
60.2803
58.0041
55.7702
53.5526
51.3483
49.1577
46.951
44.7674
42.5871
40.4261
38.3075
36.172
34.047
31.9611
29.8998
27.8479
25.7974
23.7726
21.7928
19.837
17.8738
15.9084
13.9778
12.0863
10.2062
8.3238
6.47425
4.64687
2.78516
0.917632
177.536
178.656
112.557
92.4905
97.4068
96.4373
96.455
92.1752
88.8445
86.4291
83.9508
81.4804
79.0488
76.6197
74.2189
71.8389
69.4927
67.1597
64.818
62.5248
60.262
58.0027
55.7673
53.5606
51.3553
49.1561
46.9572
44.7649
42.5897
40.4411
38.3067
36.1618
34.0408
31.9667
29.9019
27.8421
25.8027
23.7868
21.7952
19.8313
17.8678
15.9071
13.9765
12.0862
10.2022
8.3255
6.48079
4.64598
2.78905
0.926986
114.063
111.029
107.569
100.668
97.1905
97.529
95.7731
92.0582
88.74
86.3654
83.9031
81.4524
79.0315
76.6086
74.1924
71.8381
69.4818
67.1466
64.83
62.5176
60.2541
57.999
55.7666
53.5619
51.3545
49.1605
46.9585
44.7611
42.5999
40.4463
38.3022
36.1593
34.045
31.9734
29.9004
27.8319
25.8029
23.7966
21.7995
19.8209
17.8616
15.9129
13.9892
12.0901
10.2012
8.32762
6.4789
4.63471
2.78762
0.930559
103.931
104.089
106.299
95.7151
99.8632
96.9803
95.4493
91.1959
88.7853
86.3533
83.9021
81.4553
79.0224
76.6007
74.2003
71.8357
69.4631
67.1325
64.8248
62.5272
60.2479
57.9928
55.7713
53.5573
51.3562
49.1595
46.9545
44.7597
42.5937
40.4459
38.2909
36.1598
34.0658
31.98
29.8932
27.8218
25.7998
23.8008
21.8038
19.8205
17.8598
15.9251
14.005
12.0899
10.1967
8.3286
6.47137
4.62385
2.77692
0.931601
99.3625
96.8866
101.64
90.3387
99.0325
96.5393
94.571
91.3184
88.8598
86.3756
83.9155
81.4511
79.0022
76.5995
74.1973
71.8213
69.4582
67.1289
64.8187
62.5286
60.248
57.9944
55.7749
53.5465
51.3447
49.1538
46.9559
44.7624
42.5917
40.4473
38.2938
36.1668
34.08
31.9833
29.8806
27.8036
25.7798
23.7932
21.8057
19.8192
17.8597
15.9366
14.0228
12.0924
10.1916
8.33372
6.47443
4.6126
2.76244
0.92207
96.5242
96.963
96.6566
97.1801
96.5207
96.9467
96.5521
96.5921
96.862
96.3639
96.9305
96.6248
96.8405
96.3809
96.5069
95.9647
96.5017
96.462
96.5115
94.6811
96.5111
96.5516
97.2387
96.8417
102.126
96.5649
97.2715
96.8416
96.8285
96.5005
96.5419
97.2175
96.8626
96.5321
96.4744
96.4998
96.398
96.413
95.903
96.4979
96.3899
96.418
96.4726
95.7882
96.145
96.4251
96.7129
95.5773
96.1298
95.9648
96.5263
95.8103
96.6826
95.9812
96.3554
95.8156
95.5841
95.8259
95.7205
96.4934
95.585
95.6227
95.7929
95.8697
96.8653
96.573
96.5502
95.907
96.691
96.4568
96.5256
96.9486
96.5514
96.3314
96.2488
97.1173
96.5389
96.6328
96.7701
96.3818
97.1205
96.6212
96.6982
96.381
96.5098
99.8904
96.5171
96.4995
96.5054
99.2182
96.5221
96.547
97.5307
96.7405
94.459
96.5607
97.1841
96.8617
96.826
96.5498
96.5807
97.1939
96.8419
96.6976
96.4917
96.5105
96.3891
96.5492
97.1316
96.5072
96.4129
96.367
96.6439
95.5084
96.1332
96.2642
96.4343
96.3087
96.1368
95.9339
96.3162
95.8183
97.2088
95.9818
98.0544
95.8282
95.5827
95.6944
95.8017
96.9261
95.5795
95.3326
95.8146
95.9177
96.6717
96.4725
97.0437
95.9045
96.7712
96.4516
96.5067
97.079
96.5209
97.5591
96.4767
97.5494
96.6425
96.6125
96.6968
96.3804
97.4742
96.586
96.7185
96.3647
96.5039
99.3654
96.6766
96.5611
96.4957
99.2364
96.5432
96.6048
97.0377
96.7112
94.9697
96.5725
98.4488
96.7748
96.8675
96.4818
96.4969
98.0758
96.8154
96.4287
96.5029
96.5077
96.432
96.4803
97.0704
96.5263
96.4024
96.3932
96.3825
98.7957
96.1442
96.4236
96.303
98.0452
96.1353
95.9944
97.4291
95.8314
94.6515
95.9463
97.1925
95.829
95.5848
95.3467
95.7781
97.0865
95.5861
96.4066
95.7133
95.8947
96.7546
96.4898
96.2488
95.8641
99.6965
96.6816
96.5258
97.3016
97.2967
98.0093
97.2647
97.5029
96.7681
96.793
96.7792
97.2795
97.5791
97.2523
96.7896
96.7781
93.3956
95.2879
93.4345
95.1347
93.4049
95.2592
93.4436
97.3103
95.7426
98.0999
97.94
97.2282
95.5966
97.5101
96.4275
96.5691
96.7594
96.9264
96.5733
96.7039
96.4528
93.5016
95.9204
93.7028
95.3208
93.5106
95.886
93.7112
96.9762
98.061
96.6778
97.1784
97.708
100.16
96.6578
96.5586
96.519
96.5056
96.4676
96.5279
96.4976
96.6911
93.4735
96.3918
93.6763
96.0873
93.4824
96.3594
93.6793
96.2893
100.895
97.5365
99.0296
96.3043
98.2886
97.8679
99.2978
96.4629
100.204
98.0182
97.1456
100.46
97.7254
93.7159
96.941
94.4681
96.5504
93.705
96.8906
94.3581
99.7431
98.5548
98.531
94.6501
98.2833
98.381
97.2553
97.0595
97.1292
98.6082
99.1056
97.0919
99.4103
97.1524
94.8441
96.5096
95.3254
96.905
94.7398
96.4584
95.2036
105.556
92.5009
97.7319
96.5028
105.067
96.615
97.0981
96.7121
96.4191
97.6217
95.8048
96.396
97.4129
96.7994
95.3896
96.3877
94.4832
96.635
95.2855
96.3477
94.366
97.1935
94.5508
95.2079
95.6829
96.681
94.6464
95.262
96.4797
96.5261
96.7335
96.4417
96.5199
96.7139
96.5006
94.1938
96.1115
93.4052
96.5147
94.0929
96.1115
93.3971
97.0961
96.3759
96.1938
96.3536
99.0044
96.5785
98.0579
96.6653
96.1717
97.92
96.9411
96.1597
95.9925
96.1527
93.3545
95.7179
93.0612
95.7625
93.3582
95.7582
93.0707
96.7102
108.725
100.319
99.4058
99.0279
96.4248
96.5425
96.0618
95.9926
99.5669
96.52
95.9985
95.719
96.0507
93.0859
94.9631
92.9514
95.4487
93.0927
94.8243
92.9585
100.253
97.8152
96.8578
94.978
100.062
97.661
96.4239
96.3716
96.0548
97.3361
96.5582
96.0214
97.4395
96.3413
93.1388
95.1637
93.3363
94.5798
93.1478
95.1595
93.3455
97.1278
97.2059
96.7797
97.8001
97.1953
97.2407
96.8087
96.8276
96.7627
97.8169
97.1621
96.819
97.9558
96.7608
93.4043
95.2556
93.4429
95.1714
93.4042
95.2578
93.4427
97.5687
95.3982
97.4058
95.9067
96.7687
97.5063
97.4234
96.3207
96.5472
96.8209
98.1802
96.3702
96.5655
96.8341
93.5095
95.8822
93.7101
95.3152
93.5088
95.8788
93.7103
96.2578
97.9522
96.5213
97.1153
96.3223
98.0058
96.6833
96.5376
96.5167
96.5076
96.4754
96.539
96.5059
96.4879
93.4808
96.352
93.676
96.0837
93.4807
96.3437
93.675
96.3146
98.3516
98.2008
97.8602
96.1466
98.1805
97.593
97.245
100.909
98.8597
105.852
100.364
96.6182
99.2732
93.706
96.8848
94.3497
96.5445
93.7088
96.8632
94.3468
98.3178
98.5502
98.5526
101.533
97.6032
98.0412
97.8087
97.0433
97.0768
97.8271
97.2037
97.0367
97.0962
97.8311
94.7288
96.5717
95.1938
96.8169
94.7239
96.5042
95.2039
96.8125
94.5876
96.8931
96.4001
96.9551
97.8697
96.9852
96.8065
96.3856
98.202
96.9201
96.7876
96.3926
98.0888
95.2959
96.4202
94.3583
96.4881
95.2876
96.4136
94.3547
96.6385
102.235
95.1649
96.5748
96.6416
95.7223
97.3137
96.4921
96.5304
96.7241
96.4124
96.4896
96.547
96.6894
94.0799
96.1121
93.3955
96.4744
94.0779
96.1127
93.3941
95.4763
97.1576
97.1478
97.2431
96.9271
95.9371
97.4931
96.049
96.1681
95.5141
96.745
95.8776
96.1749
95.289
93.3544
95.7621
93.0684
95.7653
93.3551
95.7663
93.0681
97.0362
96.2747
97.0642
99.8845
97.0303
96.4586
97.188
96.0873
95.9566
96.4618
96.3563
96.077
96.0037
95.8707
93.0907
94.8159
92.9559
95.4541
93.0904
94.8168
92.9563
98.8134
97.4782
96.442
99.3824
98.0132
97.8988
96.3326
96.3599
96.2475
96.8878
96.6506
96.3547
96.2339
96.8822
93.1471
95.1509
93.3451
94.5679
93.1469
95.1524
93.3451
98.4578
97.1133
96.9475
98.0798
97.6664
105.448
98.3678
96.8653
96.7601
98.1082
97.6434
96.9197
97.5987
96.7575
93.4048
95.2666
93.4432
95.1658
93.3954
95.2877
93.4338
96.5531
103.16
97.4714
96.6938
98.6738
100.205
98.5549
96.6737
96.5251
96.9146
97.1144
96.6966
96.5448
96.5629
93.5093
95.8844
93.712
95.4152
93.4997
95.9152
93.7041
96.1374
102.186
96.4909
99.3463
96.5276
99.81
96.2638
96.5474
96.5087
96.5135
96.5104
96.5502
96.5434
96.537
93.4827
96.3565
93.6787
96.0495
93.4739
96.3733
93.6758
97.4663
98.1275
97.7783
98.3017
99.3826
100.374
106.686
97.1721
96.6998
99.2521
94.9039
97.4635
96.7049
99.6756
93.7093
96.8614
94.3589
96.5435
93.7191
96.9108
94.4555
98.2307
98.2592
97.2679
100.498
97.4841
98.5901
97.3168
97.0021
97.1543
97.4744
97.119
97.0104
97.1666
98.1757
94.7338
96.5657
95.223
96.8397
94.8444
96.5357
95.3081
97.2599
96.8134
96.8182
96.5155
97.0611
95.9645
96.732
96.7804
96.3926
97.2007
96.7453
96.8019
96.4567
98.4144
95.2998
96.4701
94.3649
96.5038
95.4077
96.4562
94.4792
97.021
95.7617
102.234
96.8561
97.744
101.509
99.4855
96.4882
96.5088
97.6382
98.0291
96.4879
96.4972
98.0812
94.0875
96.1194
93.3946
96.4401
94.1915
96.1151
93.4035
96.3704
96.6034
100.853
97.7495
96.5912
97.8629
97.3498
96.2865
96.1649
102.605
98.803
96.3842
96.164
101.668
93.3583
95.7632
93.0704
95.7988
93.3544
95.7233
93.0604
96.7372
94.2939
102.583
101.803
97.9558
95.7364
98.5926
96.0931
96.2123
96.7668
96.6013
95.8601
96.2343
97.2023
93.0923
94.8647
92.9594
95.4197
93.0854
95.0115
92.952
98.9434
96.7877
95.5472
99.3073
98.254
99.0123
105.494
96.4513
96.3986
99.1021
96.8314
96.4591
96.2074
97.4715
93.1473
95.1589
93.3457
94.677
93.1381
95.1686
93.3365
96.7572
96.6492
96.7337
96.3817
96.6113
96.72
96.6049
96.6157
96.1452
96.6128
96.9505
96.1414
96.5249
96.6613
96.4575
96.9028
96.3734
96.5584
96.6838
96.347
96.5418
96.7961
97.4005
96.7694
97.9181
98.1109
96.8066
96.7741
96.7825
96.4732
96.7025
96.5356
96.5524
96.7867
96.6784
96.5974
96.9543
95.9107
96.5099
96.0308
96.5167
96.5998
96.4709
96.549
96.7057
96.366
96.6809
96.3552
96.4997
96.2105
96.3291
96.3222
96.6029
96.3375
96.3428
96.1986
96.6053
96.8813
96.5976
96.8339
96.8726
96.576
96.609
96.2916
96.3081
96.2859
96.3748
96.3032
96.2799
96.2883
96.4584
96.9325
96.5429
96.8742
96.5653
96.7297
96.3809
96.2128
96.6175
96.3374
96.3657
96.3382
96.3572
96.2055
96.616
96.8272
96.9046
96.5678
96.8772
96.5703
96.6342
96.2969
96.3782
96.3235
96.2822
96.3165
96.2897
96.2855
96.5689
96.4178
96.5647
96.5137
96.4324
96.5653
96.5969
96.4863
97.8511
96.1478
94.7551
96.9308
95.9102
97.4303
96.6126
96.6244
96.483
96.4935
96.5785
96.4624
96.9141
96.5515
96.4581
96.5244
96.5065
96.527
96.4871
96.5353
96.5293
96.5124
96.4309
96.5646
96.4564
96.5763
96.5466
96.6395
94.6864
97.2301
95.9442
97.0195
95.9198
96.8179
96.6534
96.5836
96.5414
96.4831
96.6024
96.4683
96.6403
96.6881
96.5719
96.7681
96.57
96.5689
96.7697
96.4815
97.165
94.4622
96.9892
97.3329
95.0474
96.9526
97.1506
96.8115
96.7589
96.782
96.9016
96.7556
96.731
96.8675
99.0338
102.711
96.6575
98.6407
97.8842
98.797
97.7701
96.8446
96.5649
97.1023
96.7045
96.8262
96.8146
96.8039
97.0806
97.2397
95.088
96.9521
95.124
96.9246
97.0889
96.8048
96.8689
96.743
96.7539
96.7799
96.7314
96.806
96.9534
96.8717
96.7565
96.8317
96.8089
96.7492
97.0756
96.7538
97.0219
96.9094
96.5133
96.8275
96.8212
96.8066
96.7278
96.6744
96.641
96.5341
96.6529
96.6294
96.7085
97.4609
97.3056
97.0495
97.642
97.0514
97.9303
97.0436
96.9263
96.8755
96.8102
96.742
96.81
96.8011
96.918
96.8182
96.5244
96.8476
96.7951
96.8056
96.7961
96.8963
96.6256
96.6746
96.6342
96.6182
96.7839
96.6461
96.6329
96.4394
96.5905
96.4658
96.4792
96.5394
96.4578
96.5163
97.3005
99.7167
96.4914
96.4033
98.3818
96.4877
97.0578
96.5524
96.5361
96.4291
96.425
96.4656
96.4272
96.5699
96.7477
95.8753
96.3974
98.7874
96.3859
98.9136
96.7698
96.4378
96.6424
96.5408
96.4762
96.5438
96.5539
96.4377
97.6973
96.4424
98.3662
96.4753
98.5388
96.4828
96.9337
96.5168
96.398
96.4553
96.437
96.43
96.4343
96.527
96.3575
96.5449
96.3295
96.5273
96.4862
96.3112
96.3522
96.1207
96.0471
96.3169
95.7291
95.934
96.2978
96.1254
96.1873
96.2251
96.163
96.1534
96.2402
96.1424
96.1827
96.4834
96.4468
96.5282
96.7138
96.5159
96.7168
96.4835
96.3457
96.4055
96.3926
96.3087
96.4642
96.3438
96.354
96.1083
95.6547
95.8659
96.3051
95.9076
96.2983
96.1084
96.1979
96.1892
96.2501
96.1445
96.2619
96.1468
96.1897
96.017
95.9842
95.9064
95.9552
95.9906
95.9329
97.2767
96.2846
95.7532
96.4316
96.2762
94.9614
96.3611
96.3601
96.4483
95.8681
95.9772
95.8133
95.8665
95.9316
97.1663
95.7553
96.6518
96.1696
95.6708
96.1637
95.7939
95.781
96.7536
95.9524
95.957
96.0808
96.004
96.0431
96.4436
96.3076
96.3163
97.4989
96.4603
98.7259
96.3433
96.3172
96.4804
95.8138
95.8682
95.9617
95.8735
95.9851
96.483
95.821
95.8183
95.6642
95.5893
95.8351
95.6724
95.8357
97.1111
100.073
95.8307
95.4536
94.6433
95.8177
102.503
95.6399
94.9528
95.8982
95.7416
94.9256
95.9029
95.66
96.0661
96.5828
95.9438
95.9988
95.9696
96.8553
96.0706
95.8231
95.588
95.8798
95.6813
95.8717
95.6777
95.8202
97.6169
95.5913
95.0737
95.8354
95.0536
95.8074
98.3127
95.6271
95.7665
94.7777
95.9043
94.8399
95.9029
95.6499
96.1859
96.0831
96.2038
95.8829
96.0912
96.157
96.1676
96.486
97.7751
96.6793
96.6145
97.7893
96.4862
96.6791
96.3714
96.4754
96.3921
96.497
96.5017
96.2916
96.4157
96.3037
96.4856
96.2278
97.1029
96.129
97.046
96.3424
96.188
95.8963
96.0875
96.0783
96.0901
96.1058
96.1865
96.4848
96.6312
97.5604
96.6715
97.7654
96.4951
96.6774
96.2654
96.4686
96.2268
96.4095
96.3323
96.2291
96.4205
96.7888
96.7422
96.5383
96.4788
96.7776
96.5477
96.7033
96.6198
95.8335
96.5145
97.0317
96.6109
95.8024
96.5377
96.5311
96.7191
96.3715
96.5504
96.5224
96.7117
96.3736
96.839
96.7241
96.7509
98.3885
98.2969
96.8499
96.7463
96.7882
96.6159
96.6069
96.5888
96.5652
96.7866
96.8123
96.6183
96.9597
102.373
96.5352
95.7664
96.532
96.6428
96.5511
96.5479
96.6568
96.3694
96.6992
96.3727
96.5728
96.206
96.3357
96.378
96.6331
96.2031
96.3343
96.3801
96.6597
96.7894
96.5648
96.9024
96.6529
96.8904
96.5658
96.2785
96.3345
96.2783
96.3807
96.2841
96.3376
96.2806
96.3215
97.2791
96.5613
96.6799
96.5667
96.674
96.339
96.208
96.6277
96.3374
96.379
96.3345
96.3782
96.21
96.6704
96.7031
96.8054
96.5678
96.7656
96.5715
96.6897
96.2895
96.3809
96.3455
96.2806
96.3657
96.2849
96.2917
96.5115
96.4392
96.5561
96.5074
96.5208
96.4171
96.5541
96.7464
97.371
98.6645
99.8547
96.755
97.3921
98.2632
96.6849
96.5871
96.4967
96.5204
96.7347
96.6523
96.5118
96.5225
96.4863
96.5181
96.5042
96.5073
96.6496
96.5373
96.518
96.507
96.3805
96.5446
96.4109
96.5541
96.5182
96.6084
99.2882
97.3381
97.2228
97.427
97.1908
98.2017
96.6931
96.5445
96.57
96.4955
96.5722
96.4739
96.6732
96.8455
96.4494
96.7032
96.5491
96.8095
96.4327
96.71
97.3223
94.9758
96.9702
97.3059
97.2566
109.931
96.9318
96.8791
96.7564
96.7565
96.7557
96.8242
96.7641
96.7558
96.9562
94.9801
96.71
99.0575
96.6568
99.1743
97.2094
96.853
96.5656
96.4282
96.6439
96.4675
96.7131
96.8506
97.5989
97.1984
103.766
96.9503
103.588
96.9403
97.0212
96.901
96.8947
96.7447
96.7837
96.7485
96.7816
96.9245
96.9289
96.8204
96.7471
96.8381
96.9294
96.826
96.7329
96.7834
96.8187
96.8389
96.5546
96.8117
96.8526
96.8437
96.6386
96.6595
96.6231
96.4805
96.6585
96.6494
96.6091
97.0415
97.1993
97.1324
97.5249
97.1091
97.5489
97.0204
96.933
96.8363
96.8245
96.752
96.8118
96.7533
96.9264
96.7938
96.5692
96.6284
96.814
96.7185
96.9371
96.802
96.6409
96.4819
96.6385
96.6051
96.6508
96.6081
96.6627
96.4572
96.5419
96.5093
96.5069
96.4419
96.5304
96.4277
96.8804
98.2387
96.4547
96.4653
96.8238
100.14
96.4514
96.4974
96.4336
96.4425
96.4791
96.51
96.4331
96.4225
96.7947
96.3897
96.379
96.6949
96.3794
96.7156
96.7945
96.4459
96.5054
96.5266
96.4574
96.5278
96.4611
96.437
96.9555
96.452
96.5208
96.4654
101.398
96.4455
97.2935
96.4867
96.3682
96.4467
96.4313
96.4464
96.422
96.6372
96.3619
96.48
96.3278
96.4768
96.3807
96.396
96.324
96.0852
95.802
96.3234
95.4514
96.1055
95.7494
96.346
96.2047
96.2473
96.1494
96.1395
96.1963
96.23
96.153
96.4931
96.4303
96.5075
96.7708
96.5264
96.6825
96.4976
96.3806
96.3361
96.3249
96.3174
96.5331
96.3323
96.3705
96.0679
96.2937
96.8199
96.3631
96.0198
96.3554
96.0175
96.2091
96.1333
96.2132
96.1624
96.2393
96.1702
96.1987
95.8906
95.9739
96.0003
95.9186
96.4918
95.9556
95.9951
96.6976
99.9682
96.3832
98.1904
96.3037
94.9249
96.3832
96.5241
95.8669
95.9596
95.8204
96.4982
95.8702
95.9878
96.0779
97.0784
96.158
100.974
96.1757
95.0526
96.1409
95.9639
95.9309
95.9444
95.9824
95.9437
95.9836
95.8079
96.5566
98.6312
97.8704
96.4486
100.065
96.4349
96.5736
96.5351
95.8241
95.873
95.9898
95.8749
96.0065
96.4312
95.8243
95.9117
95.6854
95.5793
95.8187
95.9493
95.6861
98.2687
94.9191
95.8412
95.7468
98.3024
95.1095
95.8268
95.687
94.8247
95.9056
95.8039
95.6637
94.8264
95.9056
96.0737
96.633
96.174
96.714
96.0613
95.7276
96.3786
95.8197
95.5778
95.9497
95.6727
95.9694
95.6835
95.7969
98.1931
95.6355
95.8249
95.9334
94.6551
96.0109
98.154
95.6855
95.8212
95.0671
95.9112
94.8446
95.9077
95.7087
96.1863
96.0848
96.0808
95.9195
96.1911
96.0835
96.0718
96.506
97.4108
96.6707
96.6758
96.5003
97.4592
96.6628
96.3112
96.2301
96.4068
96.4713
96.2824
96.2352
96.4117
96.6443
96.9349
96.2423
98.5907
96.2039
96.8689
96.3289
96.1808
95.914
96.0805
96.0498
96.082
96.0581
96.1773
96.5329
96.8297
97.5372
96.6561
97.4718
96.5513
96.6584
96.31
96.4597
96.2107
96.409
96.2391
96.2772
96.4203
96.8085
96.8535
96.5617
96.3827
96.7826
96.5562
96.6788
96.7175
100.265
96.5339
97.2914
96.6657
101.52
96.5839
96.5842
96.6406
96.3558
96.5215
96.5843
96.6605
96.3467
96.8603
97.6405
96.768
98.2189
97.6456
96.8413
96.7638
96.7775
96.447
96.626
96.7239
96.6154
96.713
96.6676
96.6902
97.1212
99.7602
96.5461
97.9252
96.5614
96.6679
96.5823
96.5589
96.7661
96.3626
96.704
96.3503
96.5346
96.2226
96.3424
96.3716
96.6023
96.2115
96.3455
96.372
96.5452
96.8204
96.556
96.6874
96.6555
96.8368
96.5529
96.2942
96.3295
96.2749
96.3775
96.2905
96.3134
96.28
97.8171
97.146
96.549
96.695
96.5539
96.6943
96.9773
96.2315
96.5907
96.3376
96.3402
96.3457
96.3802
96.2198
96.7793
96.7141
96.8412
96.5469
96.8326
96.5479
96.6647
96.3125
96.3741
96.3295
96.2905
96.3035
96.2923
96.3121
96.5176
96.3792
96.5463
96.5023
96.5687
96.3799
96.5461
96.5228
97.1033
97.2276
99.1807
96.5855
102.22
97.2285
96.7359
96.5259
96.6541
96.5309
96.6203
96.5207
96.4138
96.5393
96.5167
96.5338
96.5564
96.5378
96.6044
96.552
96.6676
96.5025
96.3895
96.5464
96.3876
96.5473
96.6111
96.532
99.155
98.9235
97.3478
98.5258
97.2288
96.9545
96.6529
96.5263
96.4593
96.4491
96.4927
96.4061
96.6456
96.8548
96.4105
96.6668
96.5696
96.8521
96.6159
96.6688
97.2316
103.737
96.9379
98.6219
97.6163
98.2238
96.9357
96.9417
96.7854
96.7883
96.7688
96.9348
96.7657
96.7926
97.6087
94.9386
96.689
100.026
96.6886
99.9764
97.3638
96.8629
96.5689
96.4446
96.6902
96.4727
96.7162
96.8649
97.3261
98.7161
98.9345
96.9655
97.9756
96.9043
97.3491
96.9718
96.8186
96.7604
96.824
96.7615
96.8018
96.9438
96.92
96.8505
96.7779
96.8134
96.9268
96.823
96.7482
96.877
98.8264
96.8181
96.4311
96.8297
97.8064
96.8447
96.661
96.6893
96.6055
96.4939
96.6525
96.6446
96.6065
97.0207
98.9051
97.293
98.9839
97.2156
100.408
97.0356
96.9193
96.8103
96.8365
96.7809
96.8293
96.7494
97.0351
96.8297
96.3895
99.0239
96.8809
97.6643
96.8815
96.8298
96.6603
96.4968
96.6895
96.6185
96.6453
96.6211
96.6559
96.4125
96.5253
96.4661
96.5132
96.4238
96.5293
96.4482
96.8852
96.7961
96.4842
96.3533
97.1777
97.1651
96.4377
96.4174
96.46
96.4274
96.4437
96.4128
96.4582
96.4145
96.7385
96.681
96.4255
95.9565
96.4366
95.8294
97.084
96.4104
96.5165
96.5282
96.493
96.5325
96.4483
96.464
96.9931
96.3186
97.2094
96.4851
97.2347
96.4525
97.0971
96.4708
96.3928
96.4722
96.4102
96.4681
96.4111
96.4702
96.3999
96.4233
96.3386
96.4026
96.3761
96.3653
96.3161
95.9429
97.6784
96.4356
98.9791
96.0021
97.6048
96.3042
96.2124
96.2264
96.1806
96.144
96.2187
96.2008
96.1664
96.5001
96.4133
96.4943
97.6013
96.4909
96.895
96.5192
96.3878
96.486
96.3942
96.3516
96.4259
96.3224
96.3904
95.9553
98.2725
97.3865
96.3075
97.4544
96.2998
96.0112
96.2466
96.1376
96.224
96.2017
96.2136
96.1719
96.2696
95.3124
95.9198
95.9864
95.9698
95.6912
95.9165
95.9715
96.6552
98.3267
96.5024
97.3793
96.559
96.6534
96.4651
96.4843
95.8744
95.9884
95.8321
96.9465
95.8739
96.0084
96.6192
96.0335
96.2873