/*--------------------------------*- C++ -*----------------------------------*\
| =========                 |                                                 |
| \\      /  F ield         | OpenFOAM: The Open Source CFD Toolbox           |
|  \\    /   O peration     | Version:  5.0                                   |
|   \\  /    A nd           | Web:      www.OpenFOAM.org                      |
|    \\/     M anipulation  |                                                 |
\*---------------------------------------------------------------------------*/
FoamFile
{
    version     2.0;
    format      ascii;
    class       surfaceScalarField;
    location    "2.8";
    object      phi;
}
// * * * * * * * * * * * * * * * * * * * * * * * * * * * * * * * * * * * * * //

dimensions      [0 3 -1 0 0 0 0];

internalField   nonuniform List<scalar> 
25822
(
1.16562e-09
-2.3719e-09
-2.40157e-08
2.27349e-09
4.2193e-09
7.84826e-09
-7.3416e-08
9.09907e-08
-1.06923e-08
-1.42485e-09
-8.19571e-10
-1.69888e-10
9.88831e-10
-1.52747e-09
1.76638e-09
-2.21455e-09
4.44193e-09
-5.66663e-09
5.43944e-09
-4.7942e-09
-9.88903e-10
4.87389e-09
8.17973e-10
3.39672e-09
-7.17691e-10
2.85952e-09
-5.54542e-09
-9.93646e-13
-3.64656e-11
-7.28783e-13
-3.18001e-10
-4.80075e-11
-4.34546e-13
2.42399e-11
2.42861e-11
1.39743e-09
-2.27056e-11
-3.58728e-11
-2.51473e-10
-2.50525e-10
-4.33166e-10
-4.30841e-10
1.38431e-09
-3.17645e-12
2.15764e-13
1.38212e-09
-7.39948e-12
1.75818e-13
1.3802e-09
-4.46443e-12
1.18012e-15
1.38e-09
-2.80336e-12
1.39947e-13
1.3803e-09
-2.07674e-12
-9.89813e-14
1.37941e-09
-1.83213e-12
-4.152e-13
1.37944e-09
-6.97266e-13
-1.36376e-14
1.37983e-09
-5.89023e-13
-1.6109e-13
1.37988e-09
-2.08404e-13
-6.37489e-14
1.37983e-09
-3.27601e-13
-3.7104e-13
1.3799e-09
-5.72008e-13
1.01454e-13
1.37992e-09
6.12498e-14
-8.35402e-13
1.38071e-09
2.75348e-13
4.16352e-13
1.38062e-09
2.87394e-13
1.48219e-13
1.38054e-09
-4.51359e-14
-2.51169e-13
1.38068e-09
-3.32411e-13
1.72107e-14
1.38073e-09
-4.63064e-13
7.09889e-13
1.38122e-09
-8.45319e-13
5.79355e-13
1.38117e-09
2.43137e-13
-2.27167e-13
1.38122e-09
-2.45734e-14
8.11288e-14
1.38128e-09
-3.31925e-13
-1.08308e-12
1.38144e-09
1.38787e-13
-4.81659e-13
1.38083e-09
-1.07004e-12
3.82815e-12
1.3813e-09
-8.93807e-13
2.90281e-12
1.38105e-09
-2.05738e-13
1.56937e-13
1.38263e-09
-2.87047e-12
1.32e-12
1.38215e-09
1.89793e-13
-2.95852e-13
1.38172e-09
4.02804e-14
6.23919e-13
1.38135e-09
1.64833e-13
1.73034e-14
1.38116e-09
6.21844e-13
-5.48552e-13
1.3834e-09
-3.78352e-12
9.93859e-13
1.38264e-09
4.62981e-13
7.9565e-14
1.38266e-09
3.1221e-14
5.87799e-15
1.38269e-09
-1.65632e-13
-1.83132e-14
1.38339e-09
-7.57522e-13
-1.44635e-13
1.38192e-09
4.17676e-12
-2.17671e-12
1.38227e-09
-5.46767e-13
2.45738e-13
1.38193e-09
1.79837e-13
-2.25058e-13
1.38317e-09
-9.22372e-13
-1.48968e-13
1.38294e-09
2.31813e-13
4.85074e-14
1.38237e-09
-4.15176e-13
7.69768e-13
1.2867e-12
-1.17012e-12
-1.31288e-10
1.15769e-09
-3.20738e-09
4.54462e-09
-3.09512e-09
6.74957e-09
-1.56765e-09
-3.12983e-09
-2.00481e-09
-5.79833e-10
1.68616e-08
1.93518e-08
-2.80615e-08
-9.06893e-09
-3.77855e-10
2.13852e-09
9.07931e-10
2.75435e-10
6.61355e-08
2.076e-08
-7.63005e-08
-1.59003e-08
1.03238e-09
1.23386e-10
1.20206e-09
-6.79856e-10
1.81051e-09
-9.29447e-09
-3.55507e-10
3.42025e-08
-6.61104e-09
-7.52402e-09
-1.15461e-08
7.80087e-10
1.33661e-09
1.46932e-09
8.8742e-09
-1.24602e-08
5.82757e-11
-1.47455e-10
2.67888e-10
7.34926e-11
-2.522e-10
-8.82004e-11
1.06099e-12
-5.01753e-12
6.35974e-11
2.85596e-11
1.4176e-09
-1.07938e-12
-3.33191e-11
-2.51954e-10
-2.59654e-10
-4.27888e-10
-4.43527e-10
-8.179e-12
-1.79432e-12
-1.2918e-11
1.3925e-09
2.37369e-11
-1.82412e-12
1.38757e-09
-2.0394e-12
-4.42205e-13
1.38423e-09
-1.00624e-12
-1.30077e-13
1.38233e-09
-7.76143e-13
-1.40582e-13
1.38065e-09
-1.21284e-13
-2.79568e-13
1.38017e-09
-1.26399e-12
-7.68197e-14
1.38035e-09
-8.42417e-13
-2.65229e-14
1.3794e-09
3.3903e-13
4.6832e-14
1.37981e-09
-6.51336e-13
6.78836e-14
1.38016e-09
-6.73984e-13
3.4936e-14
1.38028e-09
-5.73885e-13
-7.08661e-14
1.38018e-09
1.09125e-13
1.14315e-13
1.38023e-09
4.3017e-13
-1.39379e-13
1.3799e-09
2.88801e-13
4.03316e-13
1.38081e-09
1.11541e-12
-1.99812e-12
1.38121e-09
-1.45781e-12
8.07416e-13
1.38104e-09
5.46684e-14
-2.60061e-13
1.38087e-09
1.20216e-13
-7.06827e-13
1.38099e-09
6.70401e-14
1.44529e-13
1.38112e-09
9.35322e-14
-1.59167e-13
1.38042e-09
-8.78612e-13
1.34005e-12
1.38071e-09
-1.34471e-14
-4.92699e-14
1.38125e-09
2.98583e-13
-1.8145e-12
1.38154e-09
5.48428e-13
-1.64191e-12
1.3829e-09
-3.65103e-12
2.17267e-12
1.38227e-09
-3.37155e-12
1.20975e-12
1.38196e-09
6.59209e-13
-7.63238e-14
1.38225e-09
-2.53898e-13
8.1917e-14
1.38249e-09
3.77158e-14
-3.94602e-14
1.38285e-09
4.0618e-14
2.95344e-13
1.38098e-09
-1.11138e-12
-7.41499e-13
1.38181e-09
9.00284e-14
-3.88247e-13
1.3821e-09
-1.9652e-13
-1.27825e-14
1.38193e-09
1.32302e-14
4.31483e-14
1.38148e-09
1.64299e-13
-4.24429e-13
1.38337e-09
2.64673e-13
2.06353e-12
1.383e-09
1.48966e-13
-2.86429e-13
1.38309e-09
5.23679e-14
7.04777e-14
1.38237e-09
-7.67457e-13
5.89741e-13
1.38241e-09
2.2644e-13
-1.8161e-14
1.38275e-09
1.21319e-13
-8.6201e-13
-1.83585e-13
1.20823e-12
6.78004e-10
-4.48022e-09
-5.1253e-08
2.04656e-09
-1.19467e-09
7.91754e-10
2.93439e-10
2.60242e-09
6.71641e-10
5.89325e-09
-8.54998e-09
-1.54886e-08
6.93796e-08
-5.94473e-10
-5.55612e-10
1.16746e-09
6.60601e-10
-1.17312e-09
-8.41762e-10
3.35023e-09
1.41964e-10
-1.47732e-09
-1.28107e-09
-4.51151e-09
1.5899e-08
-3.24412e-09
-2.24117e-10
-3.53615e-09
1.34701e-09
2.27518e-09
6.84473e-10
9.20653e-10
-2.12503e-09
-2.27369e-09
-2.47998e-09
-1.45066e-09
-7.62238e-10
-3.95516e-10
2.84218e-09
-2.96546e-09
2.24207e-10
-6.86334e-11
5.01086e-11
-1.99899e-10
-5.78344e-12
-8.3062e-11
2.78056e-12
2.99376e-11
-6.89435e-11
1.19287e-10
-3.23852e-11
1.96651e-10
-6.28762e-12
-6.08308e-12
-3.3594e-11
-5.83304e-11
-6.10511e-11
1.36921e-09
-1.29341e-11
-2.20813e-11
-2.45802e-10
-2.49538e-10
-4.03128e-10
-4.11988e-10
1.37762e-09
-8.46839e-12
-1.98498e-12
1.37978e-09
-3.78926e-12
6.23977e-13
1.38107e-09
-2.1816e-12
1.13484e-13
1.38171e-09
-9.56188e-13
1.96292e-13
1.38104e-09
-5.74868e-13
-7.34456e-15
1.38061e-09
-3.86481e-13
-9.4405e-15
1.3812e-09
-3.28752e-13
9.38799e-14
1.38097e-09
-2.44002e-13
-1.35896e-13
1.38044e-09
4.01097e-13
-5.10996e-13
1.37937e-09
7.3679e-13
-1.87267e-13
1.37988e-09
-1.53732e-13
-1.88211e-13
1.38049e-09
-2.4588e-13
1.22966e-13
1.38092e-09
-1.90752e-14
-4.54436e-14
1.38038e-09
-3.99274e-13
2.12973e-12
1.37987e-09
-1.04063e-13
-7.62838e-13
1.38033e-09
-1.74426e-13
-1.4717e-13
1.38067e-09
-1.21028e-13
-5.70992e-15
1.38073e-09
9.70252e-14
-2.87631e-15
1.38052e-09
-5.26215e-14
4.44673e-13
1.38114e-09
6.21117e-13
-2.0242e-12
1.38202e-09
9.46135e-13
-1.74627e-12
1.3819e-09
4.66381e-13
4.07093e-14
1.38299e-09
5.90976e-13
-1.04331e-12
1.38166e-09
-7.77735e-14
-2.15764e-12
1.38127e-09
1.34301e-13
-3.03605e-12
1.38181e-09
2.98526e-13
-9.88881e-14
1.38206e-09
-1.99897e-13
-2.19898e-13
1.38233e-09
-4.14077e-14
-1.21649e-13
1.38219e-09
-2.32824e-14
2.75373e-13
1.38184e-09
-3.18545e-13
-3.7802e-13
1.38185e-09
1.43635e-13
2.63244e-15
1.38154e-09
1.41138e-13
3.22474e-14
1.38203e-09
-1.55586e-13
-2.70486e-13
1.38235e-09
-2.79622e-12
2.68392e-12
1.38339e-09
-2.40813e-12
1.67096e-12
1.38314e-09
-2.91377e-14
4.67219e-13
1.38299e-09
-2.74946e-14
2.57654e-13
1.38252e-09
2.49343e-13
-5.1929e-13
1.38234e-09
4.77627e-13
-4.70321e-14
1.38217e-09
2.31565e-13
6.56851e-14
-1.60051e-12
7.03929e-13
-1.02259e-09
1.86302e-09
-4.26278e-09
4.87002e-10
-2.51115e-09
-2.13106e-09
1.13736e-09
2.068e-09
1.28082e-09
-1.70985e-09
4.41986e-09
-6.43931e-10
-1.79622e-09
-1.10484e-09
-1.4386e-10
-4.37189e-11
2.13132e-09
-5.03548e-10
-1.22032e-09
1.12276e-09
2.29787e-08
-1.40959e-09
-6.62332e-09
-1.27198e-08
-1.13679e-09
2.99122e-12
-2.62237e-09
1.66942e-09
-8.5709e-10
3.28454e-08
5.55456e-09
1.37066e-09
4.05469e-09
-1.2678e-09
-1.09595e-09
-1.24698e-09
-1.52036e-08
-2.03417e-08
-1.9748e-10
-8.15221e-10
-4.98835e-09
1.52061e-09
-5.5119e-09
-2.5257e-09
-2.22415e-09
-9.30167e-11
6.51228e-09
1.25557e-10
2.32021e-10
-1.75887e-10
-3.23282e-10
1.4159e-10
-7.65399e-11
-2.8724e-11
2.87916e-11
-2.13033e-11
9.77759e-11
-3.76274e-11
2.10417e-10
-3.02456e-12
1.80711e-12
-3.84186e-11
-6.99944e-11
-7.26992e-11
9.53938e-12
1.39229e-09
-1.84395e-11
-2.45009e-11
-2.59652e-10
-2.54211e-10
-4.30308e-10
-4.18109e-10
1.38837e-09
-1.80457e-12
-2.76559e-12
1.38539e-09
-1.22751e-12
4.15542e-13
1.38331e-09
1.23955e-13
-2.22584e-13
1.382e-09
3.88458e-13
-2.96162e-14
1.38119e-09
2.63515e-13
-1.39757e-14
1.38082e-09
8.4293e-15
-9.36673e-15
1.38048e-09
8.10892e-14
-4.98573e-14
1.38037e-09
-1.70408e-13
7.16128e-14
1.38022e-09
2.22129e-13
3.71339e-13
1.3806e-09
3.26365e-13
7.93161e-14
1.38046e-09
-8.56806e-14
1.30723e-13
1.38046e-09
-2.23242e-13
4.02058e-14
1.38072e-09
-2.39219e-13
2.29299e-14
1.3805e-09
-3.65918e-13
2.70662e-13
1.38069e-09
2.10937e-15
-2.15161e-13
1.38052e-09
9.40737e-15
6.81296e-14
1.38065e-09
-7.47719e-14
-8.44379e-14
1.38086e-09
3.33717e-14
-6.11254e-14
1.38122e-09
8.23455e-13
-1.14816e-12
1.38189e-09
1.14924e-12
-1.10014e-12
1.38118e-09
2.53403e-13
1.48678e-12
1.38131e-09
5.35643e-13
-1.08123e-13
1.38152e-09
6.21855e-13
-1.48516e-13
1.3816e-09
-8.78086e-14
1.40552e-14
1.38169e-09
1.31869e-13
2.58752e-15
1.38207e-09
-4.34706e-14
4.34669e-14
1.382e-09
-5.87327e-14
3.15796e-15
1.38225e-09
-2.81587e-13
6.465e-14
1.38228e-09
1.75401e-13
-1.60252e-13
1.38221e-09
-6.12228e-13
4.33598e-13
1.38163e-09
9.80435e-13
-2.01128e-13
1.38196e-09
-1.08869e-13
-2.0111e-14
1.38296e-09
-3.81488e-13
-7.2435e-13
1.38258e-09
2.85619e-13
-2.64705e-12
1.38229e-09
3.43877e-13
-2.42112e-12
1.38281e-09
5.16525e-13
-1.03621e-12
1.38286e-09
2.10063e-13
-2.55193e-13
1.38308e-09
4.69473e-13
-4.13523e-13
1.3821e-09
1.13431e-12
3.4511e-13
1.38221e-09
1.1111e-13
1.89732e-14
-2.00555e-12
5.68372e-13
-2.79285e-09
3.19735e-09
1.64949e-09
3.25282e-09
-8.45326e-10
-3.01834e-09
2.14968e-09
-3.11409e-10
-7.97433e-10
-1.97788e-09
1.54788e-09
4.92564e-10
1.83945e-10
1.55209e-09
8.42677e-10
-3.07128e-09
3.31411e-09
3.08769e-10
-1.42474e-09
-3.05523e-09
3.66626e-09
-2.11976e-09
2.79027e-09
-1.40878e-09
-6.6399e-10
-1.36689e-09
-1.06374e-09
1.6663e-10
1.00906e-10
4.77204e-10
-2.87749e-10
-2.64933e-10
-2.5429e-11
-4.46124e-11
-6.5505e-11
2.64035e-11
-9.90809e-12
9.36223e-11
-4.09511e-11
2.07537e-12
-1.18302e-12
1.21876e-11
2.78705e-11
1.40335e-09
1.35989e-11
-3.29711e-11
-2.57958e-10
-2.60561e-10
-4.3849e-10
-4.45416e-10
1.39388e-09
8.96711e-12
-1.29831e-12
1.3874e-09
5.06406e-12
1.81998e-13
1.38406e-09
3.4581e-12
-5.2894e-15
1.38238e-09
2.11918e-12
-4.38084e-14
1.38149e-09
1.13878e-12
1.89285e-14
1.38083e-09
7.87456e-13
-1.01025e-13
1.38053e-09
4.60683e-13
-4.94904e-14
1.38017e-09
2.4958e-13
-2.87813e-14
1.38023e-09
2.58075e-13
-6.11154e-14
1.37991e-09
4.88907e-13
2.09187e-13
1.38035e-09
-2.44244e-12
1.96792e-12
1.38018e-09
1.63205e-14
-5.44174e-15
1.38081e-09
6.63869e-13
-1.45973e-12
1.38082e-09
2.1494e-13
-5.11396e-13
1.38085e-09
-7.1151e-14
1.25782e-13
1.38091e-09
3.10802e-13
-2.76068e-13
1.38116e-09
-2.74454e-13
3.12493e-14
1.3813e-09
2.95075e-14
-4.64282e-14
1.38113e-09
1.91373e-13
8.96512e-13
1.38025e-09
6.65695e-13
1.45135e-12
1.38178e-09
-1.94549e-12
7.61587e-13
1.38211e-09
5.48857e-13
-2.46461e-13
1.38125e-09
1.63626e-12
-6.87852e-14
1.38135e-09
1.52181e-13
-2.50883e-13
1.3816e-09
-7.21548e-15
-2.66083e-14
1.38174e-09
-1.03195e-13
-6.13723e-15
1.38177e-09
3.10471e-14
-4.03387e-14
1.38162e-09
-2.34335e-13
1.78756e-13
1.38181e-09
-1.98039e-14
7.66319e-14
1.38197e-09
-3.93403e-13
-3.15315e-13
1.38263e-09
-1.08097e-13
4.90831e-13
1.38268e-09
-6.18814e-13
5.19075e-13
1.3828e-09
-2.55768e-12
2.11255e-12
1.38271e-09
4.60573e-13
-4.27713e-14
1.38264e-09
-1.09922e-13
5.70718e-13
1.38264e-09
-6.56784e-14
6.16116e-13
1.38328e-09
-4.25657e-13
2.28992e-14
1.38351e-09
-1.2212e-12
1.48999e-12
1.38149e-09
3.67643e-12
-5.02589e-13
1.38201e-09
-9.29043e-13
5.27782e-13
-1.92798e-13
-9.96109e-13
-1.0018e-08
-2.74475e-09
1.81271e-08
-5.17338e-09
1.49788e-10
1.08687e-09
5.28309e-09
-2.65572e-09
-3.86402e-09
-7.59957e-10
1.11569e-08
-3.48677e-10
-7.63384e-10
-1.01348e-09
-6.26018e-10
-1.78653e-09
6.96034e-11
-1.04067e-09
-1.42779e-09
-3.46001e-09
-7.47058e-09
-1.58471e-09
-8.92833e-11
1.68749e-09
7.45707e-09
8.41217e-12
5.79083e-10
2.71431e-10
8.37832e-11
-9.42713e-10
-1.74708e-10
-1.65884e-09
3.975e-10
-2.30526e-10
1.66658e-09
-9.77055e-11
-6.55281e-12
-1.24141e-11
3.86504e-11
7.80222e-11
-5.47653e-11
-6.57794e-13
7.82632e-13
2.54229e-11
2.92176e-11
1.39206e-09
3.58498e-11
-3.17741e-11
-2.57721e-10
-2.53522e-10
-4.40316e-10
-4.30976e-10
1.38805e-09
1.40384e-11
-1.07955e-12
1.38386e-09
8.99136e-12
2.33315e-13
1.38222e-09
5.12178e-12
-4.49689e-14
1.38129e-09
3.03231e-12
2.00714e-14
1.38065e-09
1.77993e-12
-2.39287e-15
1.3804e-09
9.98656e-13
6.0242e-14
1.38014e-09
7.62023e-13
-1.9197e-14
1.37996e-09
4.80519e-13
-2.05668e-14
1.3803e-09
-1.57466e-13
1.21778e-13
1.38051e-09
4.6575e-13
-1.4255e-13
1.37966e-09
6.11831e-13
-2.14882e-12
1.38119e-09
-5.10879e-12
3.6607e-12
1.38027e-09
3.15625e-13
1.34181e-12
1.38072e-09
-5.27529e-13
3.62908e-13
1.38061e-09
-6.60093e-15
1.25239e-13
1.38045e-09
-1.84186e-13
7.42751e-13
1.3814e-09
8.46875e-13
-1.98072e-12
1.38158e-09
-1.14094e-13
4.82573e-14
1.38191e-09
1.48906e-13
-1.90881e-13
1.38249e-09
3.26206e-13
-1.49188e-13
1.37977e-09
4.43981e-12
-3.57752e-12
1.38037e-09
-9.41169e-13
9.775e-13
1.3815e-09
6.95937e-14
5.27746e-13
1.38157e-09
1.03985e-13
6.4812e-14
1.38158e-09
1.62369e-13
-8.91847e-14
1.38156e-09
7.46716e-13
-7.52458e-13
1.38172e-09
-2.45117e-13
1.93002e-13
1.38202e-09
-8.24476e-14
-3.79755e-13
1.38211e-09
2.55809e-15
-4.13537e-14
1.38212e-09
-7.99548e-13
4.67184e-13
1.38275e-09
-5.84863e-13
-9.81096e-14
1.38297e-09
-2.13081e-13
-5.63993e-13
1.38208e-09
-5.38039e-13
-1.07745e-12
1.3827e-09
-1.16676e-14
-1.03913e-13
1.38192e-09
4.58113e-13
2.58646e-13
1.38201e-09
-2.1255e-13
9.05833e-14
1.3819e-09
-2.09599e-13
-7.86074e-14
1.38156e-09
1.70565e-12
-2.5628e-12
1.38389e-09
1.25902e-12
1.12356e-13
1.38355e-09
-4.85414e-13
-9.33259e-14
-8.4975e-13
1.9975e-12
2.41943e-09
-7.88772e-09
1.34156e-09
4.15166e-09
-2.75457e-09
-4.78757e-09
-4.87177e-09
1.37486e-08
-1.3346e-09
-1.03511e-09
4.90141e-09
2.11844e-09
-3.3502e-09
-2.63455e-09
-6.05784e-09
-4.19913e-10
4.21449e-09
1.58646e-09
3.65599e-09
-4.46022e-09
3.25112e-09
-4.39827e-08
-2.94994e-08
1.89083e-08
5.28054e-08
-2.06247e-10
-4.93349e-10
1.4375e-09
3.10578e-09
-5.02989e-10
-1.54575e-10
-2.59502e-10
-2.92662e-09
-6.23931e-11
2.55245e-11
-5.19277e-12
-1.15569e-11
5.36164e-11
-8.80288e-11
4.69185e-11
-3.55017e-11
-7.23396e-11
1.48952e-10
-4.30896e-11
-2.35549e-12
1.82829e-10
1.49e-12
5.82987e-11
-4.14185e-11
-7.11382e-11
-6.99567e-11
-4.53773e-12
-3.60917e-12
-6.50967e-12
1.37359e-09
2.08508e-11
-2.31166e-11
-2.48701e-10
-2.54798e-10
-4.0766e-10
-4.24322e-10
1.37624e-09
1.37837e-11
-2.44476e-12
1.37754e-09
7.22332e-12
4.25776e-13
1.37847e-09
4.23434e-12
-7.50315e-14
1.37912e-09
2.4169e-12
-3.59441e-14
1.3796e-09
1.31639e-12
-1.99022e-14
1.37947e-09
1.25082e-12
-1.10535e-13
1.37982e-09
4.31522e-13
9.97042e-15
1.38003e-09
3.22907e-13
-2.56714e-14
1.37963e-09
6.32985e-13
-3.49479e-13
1.38058e-09
-4.69615e-13
3.97246e-14
1.38104e-09
2.82272e-13
-8.00047e-14
1.37986e-09
-2.28072e-13
-3.63087e-12
1.38042e-09
-1.00058e-13
-7.89487e-14
1.38033e-09
1.82102e-14
-3.70853e-13
1.38064e-09
-4.19196e-14
-1.94203e-13
1.38105e-09
1.78788e-13
-6.85145e-13
1.38047e-09
-4.21509e-13
1.93391e-12
1.38093e-09
-4.89283e-13
4.20721e-15
1.3816e-09
-4.9449e-13
6.64867e-14
1.37984e-09
5.07913e-12
-2.90345e-12
1.3815e-09
-4.54856e-13
3.32793e-12
1.3817e-09
-3.28928e-13
-7.20647e-13
1.3815e-09
-1.01292e-13
4.55467e-13
1.38154e-09
9.05254e-14
5.70129e-14
1.38171e-09
-6.42502e-14
1.48414e-13
1.38192e-09
-8.93528e-14
7.02761e-13
1.38198e-09
3.53088e-14
-2.67171e-13
1.38201e-09
-1.32325e-13
1.02351e-13
1.38217e-09
-8.47677e-14
-6.38642e-15
1.38181e-09
2.27575e-14
-3.93846e-13
1.38285e-09
-1.94272e-12
3.74389e-13
1.38265e-09
1.61894e-14
3.08045e-14
1.38252e-09
-1.68481e-13
-1.88231e-13
1.38215e-09
3.36912e-13
6.66111e-14
1.38216e-09
3.76607e-13
1.19781e-13
1.38213e-09
-3.08497e-13
1.5639e-13
1.38192e-09
6.81738e-15
2.72593e-14
1.38234e-09
-6.37429e-13
1.94546e-12
1.38285e-09
6.98728e-13
7.1207e-14
1.38306e-09
-1.42646e-13
-5.40243e-13
-1.84882e-13
-1.42509e-12
-3.86705e-09
-8.03714e-10
-4.84057e-10
5.3458e-09
-7.23455e-09
-3.77396e-11
-1.17863e-09
1.14901e-09
7.30191e-09
1.94586e-09
-2.78233e-09
1.25381e-09
4.67529e-11
4.82183e-10
-2.2896e-10
1.08166e-09
-1.79895e-09
-2.50562e-09
4.80781e-09
7.64355e-10
2.50477e-10
-4.56533e-10
-1.7582e-10
-1.2327e-10
-2.56138e-09
3.79629e-10
1.35814e-10
-8.80562e-10
-1.19019e-09
1.55531e-09
-2.7707e-10
-6.48469e-10
3.41515e-10
9.06595e-10
-3.22572e-10
-5.59803e-11
-9.77484e-12
-7.14362e-12
-5.72276e-12
7.86216e-11
-3.43716e-11
-1.01815e-11
1.78399e-10
7.73064e-12
1.43287e-11
-3.24224e-11
-6.40568e-11
-5.94252e-11
1.34966e-09
-1.90152e-11
-2.26899e-11
-2.44635e-10
-2.40428e-10
-4.04995e-10
-3.97064e-10
1.36366e-09
1.72626e-12
-2.00516e-12
1.37115e-09
-8.64624e-13
5.41868e-13
1.37506e-09
2.46792e-13
4.24111e-14
1.37704e-09
3.95796e-13
3.09172e-14
1.3782e-09
1.71408e-13
-1.07754e-14
1.37925e-09
4.62187e-14
1.62059e-13
1.37979e-09
-1.27367e-13
3.62843e-14
1.37979e-09
4.32534e-13
-7.38052e-14
1.38019e-09
-1.09027e-13
3.82971e-13
1.37958e-09
2.56888e-13
-6.11492e-14
1.38034e-09
-2.8512e-13
-1.37614e-13
1.38031e-09
-1.67737e-15
-1.30396e-13
1.38047e-09
1.30864e-13
-3.15684e-13
1.3805e-09
-5.3894e-13
6.05072e-13
1.38072e-09
-1.77538e-13
-7.34539e-15
1.38053e-09
-8.47832e-13
1.30367e-12
1.38063e-09
-2.96076e-13
-1.41787e-13
1.38051e-09
9.50154e-14
-3.67421e-13
1.37987e-09
7.07718e-13
-4.71875e-13
1.38157e-09
5.74548e-13
2.89442e-12
1.38149e-09
5.98218e-13
-8.79407e-13
1.38224e-09
-2.68527e-12
1.69094e-12
1.38216e-09
8.64934e-14
-1.44503e-14
1.38138e-09
1.23403e-12
-2.78829e-13
1.38159e-09
-1.16301e-13
-7.05715e-14
1.38168e-09
-5.74196e-14
-4.3384e-14
1.38189e-09
-3.43676e-13
2.46251e-13
1.38219e-09
-4.06233e-13
4.29369e-14
1.38238e-09
-2.43652e-13
4.44203e-14
1.38278e-09
-1.77779e-13
-1.29448e-13
1.3818e-09
-4.08612e-13
-4.99558e-13
1.38199e-09
-7.9684e-14
-3.46796e-14
1.38204e-09
-2.44337e-13
7.64421e-14
1.38235e-09
3.11745e-13
-2.33265e-13
1.38268e-09
2.68697e-13
-1.78733e-13
1.38242e-09
1.43886e-13
-1.57475e-13
1.38185e-09
6.00257e-13
1.08936e-15
1.3824e-09
-1.02547e-12
-1.29104e-13
1.38234e-09
5.09194e-13
2.69142e-13
1.38353e-09
-2.82547e-12
1.5044e-12
-3.15946e-13
-5.26768e-13
-4.71719e-09
-5.0949e-09
8.41929e-09
6.63128e-10
9.78155e-10
7.405e-10
3.99942e-10
-6.54164e-09
-1.28747e-09
2.26082e-08
-1.27065e-09
-1.1274e-08
-6.24164e-09
7.34745e-10
-2.35694e-09
1.49806e-10
4.12445e-10
-6.00189e-10
-7.8321e-10
1.7324e-09
5.16034e-09
-6.85996e-09
-1.34592e-10
-4.70777e-09
3.0234e-10
-1.02959e-09
5.34661e-10
-4.26112e-10
6.18693e-10
6.12607e-10
1.40755e-09
-1.52649e-11
-2.43971e-11
-1.98049e-09
-1.18467e-10
-2.17006e-11
2.55483e-10
3.79041e-10
-4.94356e-10
-7.97216e-11
2.16942e-12
1.26418e-11
-1.95858e-11
8.44961e-11
1.35331e-09
-1.82392e-11
-2.99734e-11
-2.33099e-10
-2.33965e-10
-3.96723e-10
-4.00597e-10
-4.93465e-12
-9.63666e-12
-9.17314e-12
-1.69716e-11
1.35756e-09
-2.28761e-11
-4.51368e-13
1.36796e-09
-8.63609e-12
-1.02839e-13
1.3724e-09
-5.36549e-12
9.12167e-15
1.37547e-09
-2.74768e-12
-1.01623e-13
1.37675e-09
-1.87309e-12
9.77044e-13
1.37818e-09
-1.25001e-12
-1.86806e-14
1.37882e-09
-5.08259e-13
-7.69067e-14
1.37891e-09
-4.8022e-13
2.85259e-13
1.37975e-09
-4.02416e-13
3.32887e-14
1.38003e-09
-3.86884e-13
3.95733e-14
1.38041e-09
7.20168e-15
-7.88037e-14
1.38034e-09
3.09268e-13
-4.6189e-13
1.38021e-09
1.17607e-13
7.02681e-14
1.38012e-09
-2.65703e-13
5.64506e-13
1.38046e-09
-2.32373e-13
-5.71795e-13
1.38032e-09
8.90189e-14
-4.51457e-14
1.38102e-09
1.92793e-13
-1.65831e-12
1.38104e-09
-2.84387e-13
6.01745e-14
1.3808e-09
-3.91845e-13
8.17142e-13
1.38134e-09
-1.1317e-13
3.67941e-13
1.38164e-09
2.66888e-13
1.00154e-13
1.38164e-09
1.10821e-13
5.77511e-13
1.38101e-09
-1.37424e-13
-1.82225e-12
1.38102e-09
2.31783e-13
-6.74903e-14
1.38191e-09
1.14801e-12
-7.19061e-13
1.3816e-09
1.13414e-13
1.70487e-13
1.38144e-09
2.13874e-13
-3.30463e-14
1.38142e-09
-5.56574e-13
3.05365e-13
1.38269e-09
-2.40478e-12
8.05397e-13
1.38264e-09
-1.56137e-13
3.68668e-14
1.38232e-09
8.71198e-13
-6.66469e-13
1.38236e-09
-2.91639e-13
-8.99239e-14
1.38232e-09
-1.87017e-13
2.01363e-13
1.38212e-09
-1.30848e-13
1.36738e-13
1.38247e-09
-8.44186e-14
9.46335e-14
1.3823e-09
3.93388e-13
9.03299e-14
1.38286e-09
-6.1785e-13
2.33043e-13
1.38311e-09
4.35478e-13
-5.6523e-14
1.38191e-09
4.50219e-13
-2.44618e-13
1.38219e-09
3.60473e-13
-1.17351e-13
1.38232e-09
1.09367e-12
-4.03484e-12
-1.75918e-12
-3.40647e-14
-1.763e-09
6.87043e-09
-3.84776e-10
-1.90945e-09
1.27983e-09
4.37285e-10
-8.28233e-10
-2.65985e-09
-4.44286e-10
1.79594e-09
-4.02178e-10
5.88105e-10
-1.53758e-09
-4.32012e-11
-7.88297e-11
-1.37752e-10
-6.51008e-13
2.6045e-10
8.17509e-10
2.97303e-10
-3.6873e-10
-1.21554e-09
4.69461e-10
4.15264e-10
5.60454e-11
2.04614e-10
-2.36765e-10
-4.3916e-10
-9.38385e-11
-1.25701e-12
-4.06967e-12
7.39724e-11
2.51928e-11
1.38172e-09
-3.40199e-11
-2.42607e-10
-2.50955e-10
-4.13295e-10
-4.31987e-10
1.37499e-09
-1.67251e-13
1.37596e-09
-2.92897e-13
1.37688e-09
2.51292e-14
1.37715e-09
-2.02989e-13
1.37786e-09
-7.34808e-13
1.37934e-09
4.1328e-13
1.37952e-09
1.25665e-14
1.37976e-09
-2.99296e-13
1.37968e-09
-1.64835e-14
1.37996e-09
1.86624e-13
1.38056e-09
-6.29426e-14
1.38042e-09
1.34396e-12
1.37965e-09
-4.30033e-13
1.38013e-09
-9.22488e-13
1.38039e-09
7.20024e-14
1.38081e-09
4.48882e-14
1.38094e-09
-3.77133e-14
1.38056e-09
8.49806e-14
1.38093e-09
-5.12174e-13
1.38104e-09
-1.06958e-13
1.38167e-09
1.21641e-12
1.38171e-09
4.70278e-13
1.38162e-09
-1.9824e-12
1.38085e-09
-1.2664e-12
1.38148e-09
1.03585e-12
1.38164e-09
1.14468e-13
1.3822e-09
4.37554e-13
1.38262e-09
-1.0262e-12
1.38146e-09
-8.80872e-13
1.38161e-09
-2.04995e-14
1.38249e-09
6.94944e-13
1.38242e-09
1.51042e-13
1.38251e-09
-2.04012e-13
1.38276e-09
-9.7789e-14
1.38233e-09
6.5772e-13
1.38234e-09
-4.1191e-14
1.38206e-09
-2.98394e-13
1.38275e-09
1.9578e-13
1.38302e-09
6.52371e-14
1.38361e-09
-2.25919e-13
1.38227e-09
2.66968e-12
1.15685e-13
-4.47945e-09
-7.94404e-09
-1.3937e-08
3.00381e-09
3.25873e-09
2.70551e-09
-2.06782e-09
-3.71482e-09
-2.83017e-09
-3.64584e-10
-6.73903e-09
6.04204e-09
8.49349e-09
2.40599e-10
7.76175e-10
2.53565e-09
-5.2332e-09
-3.64364e-10
-5.4516e-10
-2.64837e-10
-9.2968e-10
-6.78667e-09
-2.31837e-09
-2.48425e-09
8.00413e-09
3.84049e-09
1.22036e-09
-5.73911e-10
4.43133e-10
-4.9182e-10
-1.20716e-09
-1.49771e-10
3.70584e-11
-3.52493e-13
-2.32376e-11
1.37236e-10
2.33136e-09
-3.63565e-11
3.55535e-11
-6.03339e-10
-6.00211e-10
-6.03387e-10
-6.0029e-10
2.30963e-09
-2.22526e-12
-3.27832e-13
2.30587e-09
-1.10251e-11
9.77753e-14
2.30281e-09
-6.55021e-12
-1.1259e-13
2.30256e-09
-4.24846e-12
1.1803e-13
2.30315e-09
-2.54081e-12
3.29671e-14
2.30188e-09
-2.61001e-12
5.49309e-13
2.30186e-09
-1.03507e-12
1.42657e-14
2.30247e-09
-1.32222e-12
9.97501e-14
2.30253e-09
-4.3091e-13
1.18653e-15
2.30248e-09
-4.2064e-13
2.88336e-13
2.3026e-09
-6.38199e-13
-6.73018e-13
2.30271e-09
8.40771e-14
7.93476e-13
2.30389e-09
3.91973e-13
2.07015e-12
2.30363e-09
-7.31385e-13
3.68489e-13
2.30356e-09
-7.52395e-13
1.89689e-13
2.30384e-09
-3.02018e-13
-1.23289e-13
2.30394e-09
4.06932e-13
-7.81989e-13
2.30473e-09
6.44711e-13
-3.88588e-13
2.30481e-09
-1.14414e-13
4.14668e-14
2.30501e-09
-7.83134e-14
1.34946e-13
2.30465e-09
-6.30522e-13
4.3221e-13
2.3049e-09
1.9017e-13
-3.07757e-13
2.30412e-09
5.46607e-12
-1.46615e-12
2.30466e-09
4.37906e-12
-2.98962e-12
2.30479e-09
-2.20522e-13
-2.92007e-13
2.30709e-09
1.09304e-12
-1.2966e-12
2.30644e-09
4.3754e-13
2.51911e-13
2.30563e-09
5.44846e-13
-7.01679e-13
2.30503e-09
5.22902e-13
-7.19292e-14
2.30487e-09
-1.27751e-12
7.35688e-13
2.30806e-09
-7.03945e-13
-2.08161e-12
2.30726e-09
8.21262e-13
-9.71694e-15
2.30714e-09
1.96301e-13
2.80829e-14
2.30726e-09
-2.61686e-13
-8.38788e-14
2.30856e-09
6.28037e-13
2.43731e-13
2.30617e-09
4.44179e-12
-3.62038e-12
2.30681e-09
-1.43529e-13
-5.09938e-13
2.30615e-09
6.69078e-14
2.09328e-13
2.30805e-09
-1.44132e-12
-5.25054e-13
2.30766e-09
2.22488e-13
1.35452e-13
2.30662e-09
7.13989e-13
8.74332e-13
-5.76428e-13
-4.40596e-13
3.07395e-09
-3.67745e-09
1.67683e-09
-6.09596e-09
5.63026e-09
-2.85586e-09
-2.53962e-08
-8.31993e-11
-2.50532e-09
2.76095e-08
3.23113e-09
-4.79314e-10
-5.74916e-08
3.49671e-10
2.89103e-09
5.24361e-08
2.29411e-09
1.31075e-09
4.70071e-10
-2.68361e-08
2.58441e-08
-8.39483e-10
5.06432e-11
-1.63696e-08
1.04342e-09
3.25291e-09
4.71725e-10
2.55339e-08
-1.11458e-08
-1.80174e-09
1.08239e-10
-1.09307e-09
3.84789e-10
8.71821e-11
-4.06474e-10
-1.00576e-10
-2.33135e-11
5.83925e-11
-9.93976e-11
-7.2922e-11
-5.87045e-13
6.12584e-13
3.85339e-11
1.3376e-10
2.36563e-09
-3.0197e-12
3.33321e-11
-5.97041e-10
-6.17511e-10
-5.97006e-10
-6.17518e-10
-1.6761e-11
-3.02308e-12
-1.67631e-11
2.32254e-09
3.73072e-11
1.72683e-12
2.31433e-09
-3.63574e-12
3.5395e-13
2.30917e-09
-1.67163e-12
1.31678e-13
2.30622e-09
-1.57392e-12
1.18721e-13
2.30363e-09
-6.46207e-13
4.25848e-13
2.30293e-09
-2.02984e-12
6.33366e-14
2.30325e-09
-1.33352e-12
-5.20099e-15
2.30179e-09
2.32378e-13
1.38522e-14
2.30244e-09
-8.08081e-13
-1.15715e-13
2.30303e-09
-8.23116e-13
-4.48607e-14
2.30315e-09
-7.18661e-13
6.30828e-15
2.30305e-09
4.53274e-13
-1.9437e-14
2.30316e-09
6.60122e-13
-3.63683e-13
2.30263e-09
4.97753e-13
-1.26669e-13
2.30398e-09
-3.17088e-12
-7.49303e-13
2.30484e-09
1.37655e-12
-1.5451e-12
2.30446e-09
2.84753e-13
4.28618e-13
2.30403e-09
1.99826e-13
3.67736e-13
2.30425e-09
9.09605e-14
-7.65025e-14
2.30449e-09
-3.81525e-13
1.08967e-13
2.30337e-09
4.33195e-12
-2.29756e-12
2.30376e-09
2.93461e-13
-3.39684e-13
2.30498e-09
5.6325e-13
2.06887e-12
2.30545e-09
8.36246e-13
1.62811e-12
2.30741e-09
-2.73662e-12
2.91655e-12
2.30665e-09
1.09221e-12
2.15451e-12
2.30613e-09
1.11786e-12
-6.24818e-14
2.30643e-09
-3.07195e-13
8.10833e-13
2.3069e-09
1.53039e-13
1.3276e-14
2.30735e-09
-5.58383e-13
-7.20921e-13
2.30472e-09
-8.52238e-13
2.18354e-12
2.30571e-09
-4.3756e-13
1.65799e-14
2.30614e-09
-2.02794e-13
7.6992e-14
2.30592e-09
1.62048e-13
-5.29021e-14
2.30558e-09
2.61884e-13
3.85915e-13
2.30824e-09
1.79537e-13
3.74472e-12
2.30777e-09
-7.59043e-15
1.29734e-13
2.30795e-09
1.45939e-13
-1.37372e-13
2.30693e-09
2.5904e-13
-3.66897e-14
2.30693e-09
4.5516e-13
-2.19196e-13
2.30737e-09
1.41764e-13
-7.11369e-13
-2.83751e-13
2.05874e-13
1.17513e-09
1.76037e-09
-1.58354e-09
-5.20047e-08
-1.01229e-09
-7.26919e-09
1.68939e-09
9.0001e-09
-3.54756e-09
1.07451e-10
-1.86104e-09
1.49417e-09
1.39896e-09
-1.5573e-09
1.0539e-09
1.52627e-09
2.31996e-09
9.22413e-10
4.40831e-10
-1.20388e-09
-1.39408e-09
-2.10811e-09
1.01255e-09
3.05815e-09
1.2793e-08
1.33077e-09
2.21764e-09
3.75167e-09
-1.24996e-09
-3.28011e-09
-7.64074e-10
-1.10431e-09
9.2058e-10
-1.45494e-09
2.36271e-10
-2.83879e-09
-3.11632e-10
-1.51554e-09
3.09669e-09
3.91374e-09
-2.07468e-09
1.20452e-09
1.12178e-09
-3.15276e-09
5.88292e-11
1.47455e-10
-1.45055e-10
1.52018e-10
-2.27241e-11
-1.90524e-10
-9.72596e-11
5.787e-11
-1.03927e-11
-1.55895e-11
-3.66545e-11
1.02026e-10
-1.36791e-10
5.85621e-10
-1.82552e-11
-5.13573e-13
-1.52856e-12
-1.42073e-10
-1.41977e-10
-1.47503e-10
2.28973e-09
-2.08484e-11
2.24404e-11
-5.63239e-10
-5.74789e-10
-5.63247e-10
-5.74813e-10
2.2959e-09
-1.37353e-11
1.94308e-12
2.30179e-09
-6.32117e-12
-6.1832e-13
2.3039e-09
-3.40042e-12
-1.70247e-13
2.30524e-09
-1.54529e-12
-2.22391e-13
2.30429e-09
-1.04719e-12
-1.2267e-14
2.30368e-09
-6.7624e-13
-1.0076e-14
2.3046e-09
-4.2613e-13
-1.04132e-13
2.30426e-09
-5.08323e-13
-1.00467e-14
2.30353e-09
3.95408e-13
-9.03832e-13
2.30178e-09
7.67429e-13
1.94334e-13
2.30269e-09
-4.40795e-13
-7.0085e-14
2.30348e-09
-4.17912e-13
5.63984e-13
2.30425e-09
-1.30135e-13
-2.17498e-14
2.30339e-09
-5.28033e-13
5.23863e-13
2.30263e-09
-8.95496e-14
1.6481e-12
2.30325e-09
-2.03532e-13
-8.03825e-14
2.30375e-09
-1.08881e-13
-3.27748e-15
2.30373e-09
1.59856e-13
1.52026e-13
2.30339e-09
1.06995e-12
-4.62836e-13
2.30468e-09
-7.55264e-13
1.98182e-12
2.30598e-09
-4.31616e-12
1.76414e-12
2.30592e-09
1.00015e-12
-1.35537e-13
2.30776e-09
-2.67042e-12
8.14025e-13
2.30574e-09
1.25345e-13
-2.80519e-12
2.30492e-09
1.231e-14
-9.53408e-13
2.30574e-09
3.08208e-13
6.81944e-14
2.30629e-09
-2.45811e-13
-6.63205e-13
2.30656e-09
-7.8903e-14
2.97305e-15
2.30649e-09
-8.56085e-14
2.73143e-14
2.30598e-09
-5.63946e-13
-1.36443e-14
2.30562e-09
1.52156e-14
4.07277e-14
2.30527e-09
2.38418e-13
6.957e-14
2.30612e-09
-3.60248e-13
-4.88651e-13
2.30685e-09
1.35166e-12
9.57291e-13
2.30832e-09
1.54373e-12
-1.07178e-12
2.30808e-09
1.05598e-12
-2.8741e-13
2.30797e-09
8.08506e-13
-2.33293e-13
2.30702e-09
3.1933e-13
4.22405e-13
2.3066e-09
7.67109e-13
9.02018e-14
2.30653e-09
3.98131e-13
-9.38988e-14
-2.22277e-12
1.33215e-12
-2.01199e-09
7.20023e-10
-1.79216e-09
3.88786e-10
1.81369e-10
-7.13096e-10
-1.9351e-09
7.7038e-11
-1.66047e-09
1.59709e-09
1.88343e-09
6.27124e-10
8.75573e-10
4.53919e-09
-9.06443e-09
-5.72413e-09
4.87894e-09
-2.49089e-11
4.28474e-09
1.29657e-10
-1.03101e-09
-2.0688e-08
1.04683e-09
-1.51162e-10
-5.99773e-11
1.99527e-08
-1.00417e-10
8.14458e-09
-2.34421e-09
7.2314e-09
2.28695e-08
-1.27706e-08
-2.63737e-09
2.6468e-09
4.96217e-09
8.41739e-09
-6.18341e-10
6.11956e-09
1.92563e-10
2.48185e-10
-2.96329e-10
7.21324e-10
-6.9853e-09
-2.20911e-10
-8.80209e-11
-1.68636e-10
2.2894e-10
8.56814e-11
1.62947e-10
-1.50497e-10
6.2145e-10
-1.62127e-11
3.21833e-12
-1.14587e-11
-1.54732e-10
-1.56594e-10
-1.59801e-10
2.46256e-11
2.32873e-09
-3.16934e-11
2.4424e-11
-5.99695e-10
-5.83669e-10
-5.99722e-10
-5.83713e-10
2.31401e-09
-4.49773e-12
2.69987e-12
2.31125e-09
-2.75824e-12
-3.94866e-13
2.30778e-09
-5.33094e-13
3.85415e-13
2.30588e-09
2.68194e-13
6.55721e-14
2.30462e-09
2.31429e-13
1.1894e-16
2.30403e-09
-2.34022e-14
-2.12401e-14
2.3035e-09
1.1113e-13
1.53005e-14
2.3033e-09