/*--------------------------------*- C++ -*----------------------------------*\
| =========                 |                                                 |
| \\      /  F ield         | OpenFOAM: The Open Source CFD Toolbox           |
|  \\    /   O peration     | Version:  5.0                                   |
|   \\  /    A nd           | Web:      www.OpenFOAM.org                      |
|    \\/     M anipulation  |                                                 |
\*---------------------------------------------------------------------------*/
FoamFile
{
    version     2.0;
    format      ascii;
    class       volScalarField;
    location    "2.8";
    object      rAU;
}
// * * * * * * * * * * * * * * * * * * * * * * * * * * * * * * * * * * * * * //

dimensions      [-1 3 1 0 0 0 0];

internalField   nonuniform List<scalar> 
8647
(
9.42093e-07
8.82122e-07
8.86871e-07
8.20054e-07
8.90133e-07
6.90467e-07
3.47955e-08
3.9242e-07
3.93663e-07
3.94697e-07
3.95731e-07
3.96763e-07
3.97795e-07
3.98826e-07
3.99857e-07
4.00886e-07
4.01916e-07
4.02944e-07
4.03971e-07
4.04999e-07
4.06025e-07
4.0705e-07
4.08075e-07
4.09099e-07
4.10122e-07
4.11145e-07
4.12167e-07
4.13188e-07
4.14208e-07
4.15228e-07
4.16246e-07
4.17264e-07
4.18281e-07
4.19298e-07
4.20314e-07
4.21328e-07
4.22342e-07
4.23356e-07
4.24368e-07
4.25379e-07
4.2639e-07
4.274e-07
4.28409e-07
4.29418e-07
4.30425e-07
4.31432e-07
4.32438e-07
4.33443e-07
4.34446e-07
4.36222e-07
8.63951e-07
7.94346e-07
5.3512e-07
7.54009e-07
8.86659e-07
6.94605e-07
3.53839e-08
3.92286e-07
3.93662e-07
3.94697e-07
3.9573e-07
3.96763e-07
3.97795e-07
3.98826e-07
3.99857e-07
4.00886e-07
4.01916e-07
4.02944e-07
4.03971e-07
4.04999e-07
4.06025e-07
4.0705e-07
4.08075e-07
4.09099e-07
4.10122e-07
4.11145e-07
4.12167e-07
4.13188e-07
4.14208e-07
4.15228e-07
4.16246e-07
4.17264e-07
4.18281e-07
4.19298e-07
4.20314e-07
4.21328e-07
4.22342e-07
4.23356e-07
4.24368e-07
4.25379e-07
4.2639e-07
4.274e-07
4.28409e-07
4.29418e-07
4.30425e-07
4.31432e-07
4.32438e-07
4.33443e-07
4.34446e-07
4.36222e-07
9.52357e-07
8.60354e-07
8.84408e-07
9.65227e-07
8.88864e-07
6.94614e-07
1.23998e-07
1.29779e-07
3.93454e-07
3.94697e-07
3.95731e-07
3.96763e-07
3.97795e-07
3.98826e-07
3.99857e-07
4.00886e-07
4.01916e-07
4.02944e-07
4.03971e-07
4.04999e-07
4.06025e-07
4.0705e-07
4.08075e-07
4.09099e-07
4.10122e-07
4.11145e-07
4.12167e-07
4.13188e-07
4.14208e-07
4.15228e-07
4.16246e-07
4.17264e-07
4.18281e-07
4.19298e-07
4.20314e-07
4.21328e-07
4.22342e-07
4.23356e-07
4.24368e-07
4.25379e-07
4.2639e-07
4.274e-07
4.28409e-07
4.29418e-07
4.30425e-07
4.31432e-07
4.32438e-07
4.33443e-07
4.34446e-07
4.36222e-07
9.69966e-07
8.15282e-07
6.72207e-07
9.39216e-07
8.58853e-07
5.11157e-07
7.00656e-07
1.29721e-07
3.93454e-07
3.94697e-07
3.95731e-07
3.96763e-07
3.97795e-07
3.98826e-07
3.99857e-07
4.00886e-07
4.01916e-07
4.02944e-07
4.03971e-07
4.04999e-07
4.06025e-07
4.0705e-07
4.08075e-07
4.09099e-07
4.10122e-07
4.11145e-07
4.12167e-07
4.13188e-07
4.14208e-07
4.15228e-07
4.16246e-07
4.17264e-07
4.18281e-07
4.19298e-07
4.20314e-07
4.21328e-07
4.22342e-07
4.23356e-07
4.24368e-07
4.25379e-07
4.2639e-07
4.274e-07
4.28409e-07
4.29418e-07
4.30425e-07
4.31432e-07
4.32438e-07
4.33442e-07
4.34446e-07
4.36222e-07
8.87659e-07
8.74973e-07
6.27315e-07
8.7995e-07
8.8552e-07
5.99916e-07
7.0102e-07
3.51901e-08
3.93454e-07
3.94697e-07
3.95731e-07
3.96763e-07
3.97795e-07
3.98826e-07
3.99857e-07
4.00886e-07
4.01916e-07
4.02944e-07
4.03971e-07
4.04999e-07
4.06025e-07
4.0705e-07
4.08075e-07
4.09099e-07
4.10122e-07
4.11145e-07
4.12167e-07
4.13188e-07
4.14208e-07
4.15228e-07
4.16246e-07
4.17264e-07
4.18281e-07
4.19298e-07
4.20314e-07
4.21328e-07
4.22342e-07
4.23356e-07
4.24368e-07
4.25379e-07
4.2639e-07
4.274e-07
4.28409e-07
4.29418e-07
4.30425e-07
4.31432e-07
4.32438e-07
4.33442e-07
4.34446e-07
4.36222e-07
8.53872e-07
8.65458e-07
7.72152e-07
8.79497e-07
6.12072e-07
6.4267e-07
7.00959e-07
3.50505e-08
3.93454e-07
3.94697e-07
3.95731e-07
3.96763e-07
3.97795e-07
3.98826e-07
3.99857e-07
4.00886e-07
4.01916e-07
4.02944e-07
4.03971e-07
4.04999e-07
4.06025e-07
4.0705e-07
4.08075e-07
4.09099e-07
4.10122e-07
4.11145e-07
4.12167e-07
4.13188e-07
4.14208e-07
4.15227e-07
4.16246e-07
4.17264e-07
4.18281e-07
4.19298e-07
4.20314e-07
4.21328e-07
4.22342e-07
4.23356e-07
4.24368e-07
4.25379e-07
4.2639e-07
4.274e-07
4.28409e-07
4.29418e-07
4.30425e-07
4.31432e-07
4.32438e-07
4.33442e-07
4.34446e-07
4.36222e-07
2.65819e-07
4.9692e-07
6.19522e-07
7.7611e-07
8.27603e-07
6.87298e-07
7.00434e-07
1.29674e-07
3.93454e-07
3.94697e-07
3.95731e-07
3.96763e-07
3.97795e-07
3.98826e-07
3.99857e-07
4.00886e-07
4.01916e-07
4.02944e-07
4.03971e-07
4.04999e-07
4.06025e-07
4.0705e-07
4.08075e-07
4.09099e-07
4.10122e-07
4.11145e-07
4.12167e-07
4.13188e-07
4.14208e-07
4.15228e-07
4.16246e-07
4.17264e-07
4.18281e-07
4.19298e-07
4.20314e-07
4.21328e-07
4.22342e-07
4.23356e-07
4.24368e-07
4.25379e-07
4.2639e-07
4.274e-07
4.28409e-07
4.29418e-07
4.30425e-07
4.31432e-07
4.32438e-07
4.33442e-07
4.34446e-07
4.36222e-07
8.81409e-07
8.20777e-07
8.27937e-07
8.68179e-07
8.85316e-07
6.89939e-07
6.95742e-07
1.2969e-07
3.93454e-07
3.94697e-07
3.95731e-07
3.96763e-07
3.97795e-07
3.98826e-07
3.99857e-07
4.00886e-07
4.01916e-07
4.02944e-07
4.03971e-07
4.04999e-07
4.06025e-07
4.0705e-07
4.08075e-07
4.09099e-07
4.10122e-07
4.11145e-07
4.12167e-07
4.13188e-07
4.14208e-07
4.15228e-07
4.16246e-07
4.17264e-07
4.18281e-07
4.19298e-07
4.20314e-07
4.21328e-07
4.22342e-07
4.23356e-07
4.24368e-07
4.25379e-07
4.2639e-07
4.274e-07
4.28409e-07
4.29418e-07
4.30425e-07
4.31432e-07
4.32438e-07
4.33443e-07
4.34446e-07
4.36222e-07
9.56648e-07
9.54549e-07
8.75757e-07
3.24423e-07
5.39457e-07
6.6894e-07
9.69206e-08
3.92287e-07
3.93663e-07
3.94697e-07
3.95731e-07
3.96763e-07
3.97795e-07
3.98826e-07
3.99857e-07
4.00886e-07
4.01916e-07
4.02944e-07
4.03971e-07
4.04999e-07
4.06025e-07
4.0705e-07
4.08075e-07
4.09099e-07
4.10122e-07
4.11145e-07
4.12167e-07
4.13188e-07
4.14208e-07
4.15228e-07
4.16246e-07
4.17264e-07
4.18281e-07
4.19298e-07
4.20314e-07
4.21328e-07
4.22342e-07
4.23356e-07
4.24368e-07
4.25379e-07
4.2639e-07
4.274e-07
4.28409e-07
4.29418e-07
4.30425e-07
4.31432e-07
4.32438e-07
4.33443e-07
4.34446e-07
4.36222e-07
9.63468e-07
8.90238e-07
8.75286e-07
5.99891e-07
4.82762e-07
6.90846e-07
3.56107e-08
3.9242e-07
3.93663e-07
3.94697e-07
3.9573e-07
3.96763e-07
3.97795e-07
3.98826e-07
3.99857e-07
4.00886e-07
4.01916e-07
4.02944e-07
4.03971e-07
4.04999e-07
4.06025e-07
4.0705e-07
4.08075e-07
4.09099e-07
4.10122e-07
4.11145e-07
4.12167e-07
4.13188e-07
4.14208e-07
4.15228e-07
4.16246e-07
4.17264e-07
4.18281e-07
4.19298e-07
4.20314e-07
4.21328e-07
4.22342e-07
4.23356e-07
4.24368e-07
4.25379e-07
4.2639e-07
4.274e-07
4.28409e-07
4.29418e-07
4.30425e-07
4.31432e-07
4.32438e-07
4.33442e-07
4.34446e-07
4.36222e-07
8.80608e-07
8.98342e-07
8.56206e-07
7.79759e-07
9.26372e-07
6.95672e-07
5.13875e-08
5.04896e-07
5.06386e-07
5.07527e-07
5.08665e-07
5.09803e-07
5.10939e-07
5.12072e-07
5.13204e-07
5.14335e-07
5.15464e-07
5.16591e-07
5.17718e-07
5.18841e-07
5.19964e-07
5.21085e-07
5.22204e-07
5.23322e-07
5.24438e-07
5.25552e-07
5.26665e-07
5.27776e-07
5.28885e-07
5.29993e-07
5.31099e-07
5.32203e-07
5.33307e-07
5.34408e-07
5.35507e-07
5.36605e-07
5.37702e-07
5.38796e-07
5.39889e-07
5.4098e-07
5.42069e-07
5.43157e-07
5.44244e-07
5.45328e-07
5.46411e-07
5.47493e-07
5.48571e-07
5.4965e-07
5.50726e-07
5.53041e-07
8.76124e-07
5.84621e-07
3.76592e-07
4.33752e-07
9.17672e-07
7.56856e-07
5.25265e-08
5.04674e-07
5.06384e-07
5.07527e-07
5.08665e-07
5.09803e-07
5.10939e-07
5.12072e-07
5.13204e-07
5.14335e-07
5.15464e-07
5.16591e-07
5.17718e-07
5.18841e-07
5.19964e-07
5.21085e-07
5.22204e-07
5.23322e-07
5.24438e-07
5.25552e-07
5.26665e-07
5.27776e-07
5.28885e-07
5.29993e-07
5.31099e-07
5.32203e-07
5.33306e-07
5.34408e-07
5.35507e-07
5.36605e-07
5.37702e-07
5.38795e-07
5.39889e-07
5.4098e-07
5.42069e-07
5.43157e-07
5.44244e-07
5.45328e-07
5.46411e-07
5.47493e-07
5.48571e-07
5.4965e-07
5.50726e-07
5.53041e-07
8.52844e-07
8.61245e-07
7.03359e-07
9.68329e-07
8.99358e-07
7.35657e-07
1.7501e-07
1.84067e-07
5.0604e-07
5.07528e-07
5.08666e-07
5.09803e-07
5.10939e-07
5.12072e-07
5.13205e-07
5.14335e-07
5.15464e-07
5.16591e-07
5.17718e-07
5.18841e-07
5.19964e-07
5.21085e-07
5.22204e-07
5.23322e-07
5.24438e-07
5.25552e-07
5.26665e-07
5.27776e-07
5.28885e-07
5.29993e-07
5.31099e-07
5.32203e-07
5.33306e-07
5.34408e-07
5.35507e-07
5.36605e-07
5.37702e-07
5.38796e-07
5.39889e-07
5.4098e-07
5.42069e-07
5.43157e-07
5.44244e-07
5.45328e-07
5.46411e-07
5.47493e-07
5.48571e-07
5.4965e-07
5.50726e-07
5.53041e-07
9.57519e-07
8.8293e-07
6.29919e-07
9.23934e-07
9.22175e-07
5.68954e-07
7.74887e-07
1.83949e-07
5.0604e-07
5.07528e-07
5.08666e-07
5.09803e-07
5.10939e-07
5.12072e-07
5.13205e-07
5.14335e-07
5.15464e-07
5.16591e-07
5.17718e-07
5.18841e-07
5.19964e-07
5.21085e-07
5.22204e-07
5.23322e-07
5.24438e-07
5.25552e-07
5.26665e-07
5.27776e-07
5.28885e-07
5.29993e-07
5.31099e-07
5.32203e-07
5.33307e-07
5.34408e-07
5.35507e-07
5.36605e-07
5.37702e-07
5.38796e-07
5.39889e-07
5.4098e-07
5.42069e-07
5.43157e-07
5.44244e-07
5.45328e-07
5.46411e-07
5.47493e-07
5.48571e-07
5.4965e-07
5.50726e-07
5.53041e-07
7.97597e-07
8.84393e-07
6.58169e-07
7.25128e-07
5.40507e-07
6.8269e-07
7.76363e-07
5.20226e-08
5.06038e-07
5.07528e-07
5.08666e-07
5.09803e-07
5.10939e-07
5.12072e-07
5.13205e-07
5.14335e-07
5.15464e-07
5.16591e-07
5.17718e-07
5.18841e-07
5.19964e-07
5.21085e-07
5.22204e-07
5.23322e-07
5.24438e-07
5.25552e-07
5.26665e-07
5.27776e-07
5.28885e-07
5.29993e-07
5.31099e-07
5.32203e-07
5.33307e-07
5.34408e-07
5.35507e-07
5.36605e-07
5.37702e-07
5.38796e-07
5.39889e-07
5.4098e-07
5.42069e-07
5.43157e-07
5.44244e-07
5.45328e-07
5.46411e-07
5.47493e-07
5.48571e-07
5.4965e-07
5.50726e-07
5.53041e-07
4.79007e-07
5.59981e-07
7.52844e-07
8.56784e-07
6.63373e-07
7.04894e-07
7.76195e-07
5.19947e-08
5.06038e-07
5.07528e-07
5.08666e-07
5.09803e-07
5.10939e-07
5.12072e-07
5.13205e-07
5.14335e-07
5.15464e-07
5.16591e-07
5.17718e-07
5.18841e-07
5.19964e-07
5.21085e-07
5.22204e-07
5.23322e-07
5.24438e-07
5.25552e-07
5.26665e-07
5.27776e-07
5.28885e-07
5.29993e-07
5.311e-07
5.32203e-07
5.33307e-07
5.34408e-07
5.35507e-07
5.36605e-07
5.37702e-07
5.38796e-07
5.39889e-07
5.4098e-07
5.42069e-07
5.43157e-07
5.44244e-07
5.45328e-07
5.46411e-07
5.47493e-07
5.48571e-07
5.4965e-07
5.50726e-07
5.53041e-07
3.98291e-07
6.03623e-07
6.09181e-07
7.88596e-07
9.12732e-07
7.3919e-07
7.73335e-07
1.83854e-07
5.06039e-07
5.07528e-07
5.08666e-07
5.09803e-07
5.10939e-07
5.12072e-07
5.13205e-07
5.14335e-07
5.15464e-07
5.16591e-07
5.17718e-07
5.18841e-07
5.19964e-07
5.21085e-07
5.22204e-07
5.23322e-07
5.24438e-07
5.25552e-07
5.26665e-07
5.27776e-07
5.28885e-07
5.29993e-07
5.31099e-07
5.32203e-07
5.33307e-07
5.34408e-07
5.35507e-07
5.36605e-07
5.37702e-07
5.38796e-07
5.39889e-07
5.4098e-07
5.42069e-07
5.43157e-07
5.44244e-07
5.45328e-07
5.46411e-07
5.47493e-07
5.48571e-07
5.4965e-07
5.50726e-07
5.53041e-07
9.10634e-07
8.59721e-07
8.93882e-07
8.72849e-07
9.25796e-07
7.20631e-07
7.73328e-07
1.83949e-07
5.0604e-07
5.07528e-07
5.08666e-07
5.09803e-07
5.10939e-07
5.12072e-07
5.13205e-07
5.14335e-07
5.15464e-07
5.16591e-07
5.17718e-07
5.18841e-07
5.19964e-07
5.21085e-07
5.22204e-07
5.23322e-07
5.24438e-07
5.25552e-07
5.26665e-07
5.27776e-07
5.28885e-07
5.29993e-07
5.31099e-07
5.32203e-07
5.33306e-07
5.34408e-07
5.35507e-07
5.36605e-07
5.37702e-07
5.38796e-07
5.39889e-07
5.4098e-07
5.42069e-07
5.43157e-07
5.44244e-07
5.45328e-07
5.46411e-07
5.47493e-07
5.48571e-07
5.4965e-07
5.50726e-07
5.53041e-07
9.69661e-07
9.70779e-07
8.54826e-07
2.17397e-07
5.85889e-07
6.91379e-07
1.38429e-07
5.04677e-07
5.06386e-07
5.07527e-07
5.08665e-07
5.09803e-07
5.10939e-07
5.12072e-07
5.13204e-07
5.14335e-07
5.15464e-07
5.16591e-07
5.17718e-07
5.18841e-07
5.19964e-07
5.21085e-07
5.22204e-07
5.23322e-07
5.24438e-07
5.25552e-07
5.26665e-07
5.27776e-07
5.28885e-07
5.29993e-07
5.31099e-07
5.32203e-07
5.33306e-07
5.34408e-07
5.35507e-07
5.36605e-07
5.37702e-07
5.38796e-07
5.39889e-07
5.4098e-07
5.42069e-07
5.43157e-07
5.44244e-07
5.45328e-07
5.46411e-07
5.47493e-07
5.48571e-07
5.4965e-07
5.50726e-07
5.53041e-07
9.64512e-07
8.57569e-07
8.80325e-07
4.12486e-07
6.94064e-07
7.42817e-07
5.28728e-08
5.04896e-07
5.06386e-07
5.07527e-07
5.08665e-07
5.09803e-07
5.10939e-07
5.12072e-07
5.13204e-07
5.14335e-07
5.15464e-07
5.16591e-07
5.17718e-07
5.18841e-07
5.19964e-07
5.21085e-07
5.22204e-07
5.23322e-07
5.24438e-07
5.25552e-07
5.26665e-07
5.27776e-07
5.28885e-07
5.29993e-07
5.31099e-07
5.32203e-07
5.33306e-07
5.34408e-07
5.35507e-07
5.36605e-07
5.37702e-07
5.38796e-07
5.39889e-07
5.4098e-07
5.42069e-07
5.43157e-07
5.44244e-07
5.45328e-07
5.46411e-07
5.47493e-07
5.48571e-07
5.4965e-07
5.50726e-07
5.53041e-07
9.56421e-07
8.52445e-07
6.07833e-07
8.79849e-07
8.83475e-07
6.758e-07
5.12754e-08
3.9242e-07
3.93663e-07
3.94697e-07
3.9573e-07
3.96763e-07
3.97795e-07
3.98826e-07
3.99857e-07
4.00886e-07
4.01916e-07
4.02944e-07
4.03971e-07
4.04999e-07
4.06025e-07
4.0705e-07
4.08075e-07
4.09099e-07
4.10122e-07
4.11145e-07
4.12167e-07
4.13188e-07
4.14208e-07
4.15228e-07
4.16246e-07
4.17264e-07
4.18281e-07
4.19298e-07
4.20314e-07
4.21328e-07
4.22342e-07
4.23356e-07
4.24368e-07
4.25379e-07
4.2639e-07
4.274e-07
4.28409e-07
4.29418e-07
4.30425e-07
4.31432e-07
4.32438e-07
4.33442e-07
4.34446e-07
4.36222e-07
9.01012e-07
4.58396e-07
8.93224e-07
7.28532e-07
9.26406e-07
7.51588e-07
5.24878e-08
3.92286e-07
3.93662e-07
3.94697e-07
3.9573e-07
3.96763e-07
3.97795e-07
3.98826e-07
3.99857e-07
4.00886e-07
4.01916e-07
4.02944e-07
4.03971e-07
4.04999e-07
4.06025e-07
4.0705e-07
4.08075e-07
4.09099e-07
4.10122e-07
4.11145e-07
4.12167e-07
4.13188e-07
4.14208e-07
4.15228e-07
4.16246e-07
4.17264e-07
4.18281e-07
4.19298e-07
4.20314e-07
4.21328e-07
4.22342e-07
4.23356e-07
4.24368e-07
4.25379e-07
4.2639e-07
4.274e-07
4.28409e-07
4.29418e-07
4.30425e-07
4.31432e-07
4.32438e-07
4.33442e-07
4.34446e-07
4.36222e-07
9.53612e-07
7.98076e-07
9.53663e-07
9.62841e-07
8.4297e-07
7.62795e-07
1.7506e-07
1.84072e-07
3.93454e-07
3.94697e-07
3.95731e-07
3.96763e-07
3.97795e-07
3.98826e-07
3.99857e-07
4.00886e-07
4.01916e-07
4.02944e-07
4.03971e-07
4.04999e-07
4.06025e-07
4.0705e-07
4.08075e-07
4.09099e-07
4.10122e-07
4.11145e-07
4.12167e-07
4.13188e-07
4.14208e-07
4.15227e-07
4.16246e-07
4.17264e-07
4.18281e-07
4.19298e-07
4.20314e-07
4.21328e-07
4.22342e-07
4.23356e-07
4.24368e-07
4.25379e-07
4.2639e-07
4.274e-07
4.28409e-07
4.29418e-07
4.30425e-07
4.31432e-07
4.32438e-07
4.33442e-07
4.34446e-07
4.36222e-07
9.62275e-07
9.08601e-07
9.06098e-07
8.99938e-07
9.00718e-07
7.13718e-07
7.74989e-07
1.83954e-07
3.93454e-07
3.94697e-07
3.95731e-07
3.96763e-07
3.97795e-07
3.98826e-07
3.99857e-07
4.00886e-07
4.01916e-07
4.02944e-07
4.03971e-07
4.04999e-07
4.06025e-07
4.0705e-07
4.08075e-07
4.09099e-07
4.10122e-07
4.11145e-07
4.12167e-07
4.13188e-07
4.14208e-07
4.15227e-07
4.16246e-07
4.17264e-07
4.18281e-07
4.19298e-07
4.20314e-07
4.21328e-07
4.22342e-07
4.23356e-07
4.24368e-07
4.25379e-07
4.2639e-07
4.274e-07
4.28409e-07
4.29418e-07
4.30425e-07
4.31432e-07
4.32438e-07
4.33442e-07
4.34446e-07
4.36222e-07
9.21225e-07
8.82225e-07
5.58592e-07
2.48298e-07
5.34801e-07
6.85002e-07
7.76175e-07
5.20227e-08
3.93454e-07
3.94697e-07
3.95731e-07
3.96763e-07
3.97795e-07
3.98826e-07
3.99857e-07
4.00886e-07
4.01916e-07
4.02944e-07
4.03971e-07
4.04999e-07
4.06025e-07
4.0705e-07
4.08075e-07
4.09099e-07
4.10122e-07
4.11145e-07
4.12167e-07
4.13188e-07
4.14208e-07
4.15228e-07
4.16246e-07
4.17264e-07
4.18281e-07
4.19298e-07
4.20314e-07
4.21328e-07
4.22342e-07
4.23356e-07
4.24368e-07
4.25379e-07
4.2639e-07
4.274e-07
4.28409e-07
4.29418e-07
4.30425e-07
4.31432e-07
4.32438e-07
4.33442e-07
4.34446e-07
4.36222e-07
4.66472e-07
6.02062e-07
5.19172e-07
8.95573e-07
7.72269e-07
6.65718e-07
7.75478e-07
5.19948e-08
3.93454e-07
3.94697e-07
3.95731e-07
3.96763e-07
3.97795e-07
3.98826e-07
3.99857e-07
4.00886e-07
4.01916e-07
4.02944e-07
4.03971e-07
4.04999e-07
4.06025e-07
4.0705e-07
4.08075e-07
4.09099e-07
4.10122e-07
4.11145e-07
4.12167e-07
4.13188e-07
4.14208e-07
4.15227e-07
4.16246e-07
4.17264e-07
4.18281e-07
4.19298e-07
4.20314e-07
4.21328e-07
4.22342e-07
4.23356e-07
4.24368e-07
4.25379e-07
4.2639e-07
4.274e-07
4.28409e-07
4.29418e-07
4.30425e-07
4.31432e-07
4.32438e-07
4.33442e-07
4.34446e-07
4.36222e-07
2.61449e-07
6.77788e-07
2.98235e-07
7.4439e-07
8.82379e-07
7.14813e-07
7.74176e-07
1.83856e-07
3.93454e-07
3.94697e-07
3.95731e-07
3.96763e-07
3.97795e-07
3.98826e-07
3.99857e-07
4.00886e-07
4.01916e-07
4.02944e-07
4.03971e-07
4.04999e-07
4.06025e-07
4.0705e-07
4.08075e-07
4.09099e-07
4.10122e-07
4.11145e-07
4.12167e-07
4.13188e-07
4.14208e-07
4.15227e-07
4.16246e-07
4.17264e-07
4.18281e-07
4.19298e-07
4.20314e-07
4.21328e-07
4.22342e-07
4.23356e-07
4.24368e-07
4.25379e-07
4.2639e-07
4.274e-07
4.28409e-07
4.29418e-07
4.30425e-07
4.31432e-07
4.32438e-07
4.33442e-07
4.34446e-07
4.36222e-07
8.51035e-07
9.11237e-07
9.15904e-07
5.38711e-07
8.91491e-07
7.33917e-07
7.73627e-07
1.83953e-07
3.93454e-07
3.94697e-07
3.95731e-07
3.96763e-07
3.97795e-07
3.98826e-07
3.99857e-07
4.00886e-07
4.01916e-07
4.02944e-07
4.03971e-07
4.04999e-07
4.06025e-07
4.0705e-07
4.08075e-07
4.09099e-07
4.10122e-07
4.11145e-07
4.12167e-07
4.13188e-07
4.14208e-07
4.15227e-07
4.16246e-07
4.17264e-07
4.18281e-07
4.19298e-07
4.20314e-07
4.21328e-07
4.22342e-07
4.23356e-07
4.24368e-07
4.25379e-07
4.2639e-07
4.274e-07
4.28409e-07
4.29418e-07
4.30425e-07
4.31432e-07
4.32438e-07
4.33442e-07
4.34446e-07
4.36222e-07
9.63735e-07
9.68533e-07
8.52535e-07
3.39105e-07
8.75409e-07
7.17797e-07
1.38568e-07
3.92287e-07
3.93663e-07
3.94697e-07
3.9573e-07
3.96763e-07
3.97795e-07
3.98826e-07
3.99857e-07
4.00886e-07
4.01916e-07
4.02944e-07
4.03971e-07
4.04999e-07
4.06025e-07
4.0705e-07
4.08075e-07
4.09099e-07
4.10122e-07
4.11145e-07
4.12167e-07
4.13188e-07
4.14208e-07
4.15227e-07
4.16246e-07
4.17264e-07
4.18281e-07
4.19298e-07
4.20314e-07
4.21328e-07
4.22342e-07
4.23356e-07
4.24368e-07
4.25379e-07
4.2639e-07
4.274e-07
4.28409e-07
4.29418e-07
4.30425e-07
4.31431e-07
4.32438e-07
4.33442e-07
4.34446e-07
4.36222e-07
9.61489e-07
8.73337e-07
8.97187e-07
4.40053e-07
5.30152e-07
7.59461e-07
5.28025e-08
3.9242e-07
3.93663e-07
3.94697e-07
3.9573e-07
3.96763e-07
3.97795e-07
3.98826e-07
3.99857e-07
4.00886e-07
4.01916e-07
4.02944e-07
4.03971e-07
4.04999e-07
4.06025e-07
4.0705e-07
4.08075e-07
4.09099e-07
4.10122e-07
4.11145e-07
4.12167e-07
4.13188e-07
4.14208e-07
4.15228e-07
4.16246e-07
4.17264e-07
4.18281e-07
4.19298e-07
4.20314e-07
4.21328e-07
4.22342e-07
4.23356e-07
4.24368e-07
4.25379e-07
4.2639e-07
4.274e-07
4.28409e-07
4.29418e-07
4.30425e-07
4.31432e-07
4.32438e-07
4.33442e-07
4.34446e-07
4.36222e-07
4.5205e-08
6.83566e-07
5.13106e-08
7.12836e-07
6.70853e-08
7.09585e-07
7.59716e-08
7.81116e-08
6.86973e-07
6.92136e-07
7.62353e-07
1.12791e-07
7.34495e-07
7.66589e-07
6.9738e-07
6.45565e-07
7.00494e-07
7.40092e-07
7.7251e-07
6.09922e-07
7.73596e-07
6.9929e-07
6.78157e-07
7.01191e-07
6.69557e-07
7.69758e-07
7.08228e-07
7.74262e-07
6.98808e-07
6.66395e-07
7.00116e-07
6.89308e-07
7.72741e-07
7.53682e-07
7.76935e-07
6.99509e-07
6.74207e-07
6.99991e-07
7.09597e-07
7.76232e-07
7.30438e-07
7.72428e-07
6.99681e-07
6.83835e-07
7.0089e-07
7.61797e-07
7.74043e-07
6.92048e-07
7.7667e-07
6.98363e-07
6.49886e-07
6.98649e-07
7.34495e-07
7.73909e-07
6.02994e-07
7.74728e-07
6.95867e-07
6.18566e-07
1.1783e-07
6.97356e-07
7.68871e-07
7.27651e-07
1.66598e-07
8.312e-08
6.86445e-07
4.22122e-08
7.53968e-07
1.19786e-07
6.73926e-07
6.22847e-08
6.68722e-08
7.10195e-07
7.61249e-08
6.55992e-07
6.63672e-08
6.98864e-07
7.59743e-08
1.12883e-07
7.31357e-07
7.66476e-07
7.39966e-07
1.12759e-07
6.96266e-07
7.66113e-07
7.72323e-07
5.45814e-07
7.73005e-07
7.5581e-07
7.7251e-07
6.68176e-07
7.74055e-07
7.70203e-07
7.01676e-07
7.73516e-07
7.17993e-07
7.71814e-07
6.64447e-07
7.76661e-07
7.73294e-07
7.45023e-07
7.75796e-07
6.79259e-07
7.7232e-07
7.39518e-07
7.77282e-07
7.74531e-07
7.31668e-07
7.71767e-07
6.82756e-07
7.7756e-07
7.54264e-07
7.75014e-07
7.72218e-07
6.95724e-07
7.76293e-07
6.74772e-07
7.72893e-07
6.76026e-07
7.75419e-07
7.74288e-07
5.99399e-07
7.73899e-07
7.34819e-07
7.74375e-07
6.41306e-07
7.72057e-07
7.69075e-07
7.24387e-07
1.66367e-07
6.92283e-07
7.66256e-07
7.52882e-07
1.6494e-07
1.19859e-07
6.81681e-07
6.23966e-08
7.63763e-07
1.19989e-07
6.96836e-07
6.22431e-08
6.59274e-08
6.99709e-07
7.57019e-08
6.50364e-07
4.50048e-08
6.97267e-07
5.11124e-08
1.12732e-07
7.19519e-07
7.66038e-07
6.95277e-07
7.81435e-08
6.88424e-07
6.9214e-07
7.72382e-07
7.11315e-07
7.75404e-07
6.79742e-07
6.97395e-07
6.86442e-07
7.00747e-07
7.72276e-07
5.64406e-07
7.75201e-07
6.80488e-07
6.98614e-07
4.41332e-07
7.01011e-07
7.72329e-07
7.41321e-07
7.76024e-07
6.8025e-07
6.99636e-07
6.81343e-07
6.99987e-07
7.76683e-07
7.47198e-07
7.75085e-07
6.15872e-07
7.00409e-07
6.88249e-07
7.00135e-07
7.71285e-07
6.8686e-07
7.75507e-07
6.74748e-07
6.99802e-07
6.87199e-07
7.0004e-07
7.75085e-07
6.68556e-07
7.72297e-07
6.72018e-07
7.01265e-07
6.65769e-07
6.98857e-07
7.66517e-07
7.36349e-07
1.64088e-07
6.8381e-07
6.95705e-07
6.80262e-07
1.16126e-07
1.20021e-07
7.03732e-07
6.20738e-08
6.90743e-07
8.3404e-08
6.62061e-07
4.18259e-08
7.95925e-07
7.91297e-07
8.80646e-07
8.67544e-07
8.62779e-07
8.71385e-07
8.97492e-07
7.72465e-07
6.98161e-07
6.97172e-07
7.44308e-07
7.60116e-07
6.97804e-07
7.73914e-07
1.29567e-07
3.49801e-08
1.29567e-07
5.12427e-08
1.83832e-07
5.18106e-08
1.83833e-07
8.91569e-07
8.77593e-07
8.66239e-07
8.82643e-07
9.06345e-07
9.02596e-07
8.67951e-07
7.30462e-07
6.98796e-07
6.70579e-07
7.54038e-07
7.71174e-07
7.19003e-07
6.82323e-07
1.29567e-07
6.52857e-08
1.29508e-07
5.24824e-08
1.83833e-07
9.48916e-08
1.83716e-07
8.97561e-07
8.88671e-07
8.78094e-07
8.75816e-07
9.06121e-07
9.04291e-07
9.14203e-07
7.51409e-07
6.97261e-07
6.32818e-07
7.6947e-07
7.73761e-07
6.61578e-07
6.64775e-07
3.52934e-08
6.95861e-07
3.52796e-08
1.75023e-07
5.20168e-08
7.72621e-07
5.19872e-08
8.66514e-07
8.65772e-07
8.93727e-07
8.63027e-07
8.51831e-07
8.28042e-07
8.59047e-07
6.90466e-07
6.44405e-07
5.73802e-07
6.39261e-07
7.21998e-07
6.85348e-07
5.17725e-07
3.52871e-08
6.99699e-07
3.74383e-08
7.75676e-07
5.20039e-08
7.72633e-07
5.5459e-08
7.79027e-07
5.73486e-07
3.62694e-07
7.69996e-07
6.47805e-07
4.02323e-07
4.48239e-07
7.54043e-07
6.99195e-07
6.48416e-07
6.57238e-07
7.74414e-07
6.84309e-07
6.90388e-07
3.98023e-08
7.0094e-07
4.38494e-08
7.76401e-07
5.89997e-08
7.77631e-07
6.51905e-08
2.92336e-07
5.18842e-07
4.55132e-07
5.8625e-07
2.51294e-07
7.33849e-07
8.28496e-07
7.55007e-07
6.94321e-07
6.73478e-07
7.28055e-07
7.61407e-07
7.20321e-07
6.91958e-07
4.48264e-08
7.00511e-07
3.95355e-08
7.76373e-07
6.67176e-08
7.75784e-07
5.8556e-08
8.84521e-07
8.22143e-07
8.66067e-07
8.71513e-07
9.06732e-07
8.46372e-07
9.13739e-07
7.67584e-07
6.96971e-07
6.9217e-07
7.67911e-07
7.72809e-07
7.45399e-07
6.96003e-07
3.73454e-08
7.00306e-07
3.52862e-08
7.71317e-07
5.52639e-08
7.76386e-07
5.2002e-08
8.8128e-07
7.93196e-07
8.96387e-07
8.67703e-07
8.93597e-07
8.80633e-07
8.82886e-07
7.39931e-07
6.97805e-07
3.99526e-07
7.25684e-07
7.69077e-07
5.34165e-07
6.7821e-07
3.5268e-08
1.88609e-07
3.50725e-08
7.7358e-07
5.19866e-08
2.57559e-07
5.20165e-08
4.1645e-07
2.10713e-07
3.35576e-07
6.57471e-07
5.31557e-07
3.49868e-07
7.01474e-07
7.20147e-07
6.96008e-07
4.13271e-07
7.21159e-07
7.69036e-07
5.87009e-07
6.45238e-07
1.29512e-07
3.73121e-08
1.29567e-07
1.38458e-07
1.83724e-07
5.52138e-08
1.83833e-07
4.28633e-07
5.45263e-07
8.0596e-07
4.48429e-07
5.52854e-07
7.89288e-07
8.91797e-07
7.69983e-07
6.62419e-07
6.79553e-07
7.61679e-07
7.46587e-07
7.21426e-07
6.97191e-07
1.29567e-07
3.47911e-08
1.29566e-07
5.28269e-08
1.83832e-07
5.12485e-08
1.83832e-07
8.98044e-07
8.16411e-07
8.54331e-07
8.84773e-07
9.09592e-07
8.3042e-07
8.18003e-07
7.63663e-07
7.67792e-07
7.39812e-07
6.56937e-07
7.63052e-07
7.31292e-07
7.6508e-07
1.83827e-07
5.18112e-08
1.83828e-07
5.15358e-08
1.83827e-07
5.18105e-08
1.83828e-07
8.99842e-07
9.11014e-07
9.09338e-07
8.62987e-07
9.09694e-07
8.35893e-07
8.77448e-07
6.57466e-07
7.62588e-07
6.86946e-07
7.54821e-07
6.6833e-07
7.56581e-07
6.76009e-07
1.83828e-07
9.49339e-08
1.83711e-07
5.25387e-08
1.83828e-07
9.49559e-08
1.83711e-07
8.51998e-07
8.6836e-07
9.27699e-07
9.20242e-07
9.1059e-07
7.71311e-07
9.25733e-07
7.72008e-07
7.66946e-07
7.14255e-07
7.10602e-07
7.71143e-07
7.65613e-07
7.11332e-07
5.20163e-08
7.72038e-07
5.19869e-08
1.75071e-07
5.20164e-08
7.72067e-07
5.19869e-08
9.22288e-07
9.18426e-07
9.05167e-07
8.61402e-07
9.13001e-07
8.53582e-07
8.42122e-07
5.6462e-07
6.62669e-07
4.65841e-07
5.52159e-07
5.55629e-07
6.91492e-07
4.11418e-07
5.20035e-08
7.7375e-07
5.55172e-08
7.74202e-07
5.20036e-08
7.72751e-07
5.5486e-08
4.59882e-07
4.67999e-07
5.77635e-07
4.67513e-07
3.88671e-07
4.40298e-07
6.4042e-07
7.25487e-07
7.6257e-07
7.03682e-07
6.75064e-07
7.2882e-07
7.60603e-07
6.53276e-07
5.90708e-08
7.76859e-07
6.53067e-08
7.75359e-07
5.90277e-08
7.76993e-07
6.53816e-08
3.12347e-07
8.3752e-07
8.64472e-07
5.27838e-07
6.47912e-07
8.65124e-07
8.92427e-07
7.39614e-07
7.62201e-07
7.27493e-07
6.92805e-07
7.40656e-07
7.61487e-07
7.03006e-07
6.68899e-08
7.74272e-07
5.86042e-08
7.75082e-07
6.68175e-08
7.74435e-07
5.86165e-08
8.68695e-07
8.89881e-07
7.90538e-07
8.51908e-07
9.02504e-07
8.73403e-07
9.07144e-07
7.6418e-07
7.69508e-07
6.34695e-07
6.59984e-07
7.60995e-07
7.67623e-07
6.73022e-07
5.53204e-08
7.76048e-07
5.20018e-08
7.76262e-07
5.53368e-08
7.76122e-07
5.20017e-08
8.71407e-07
7.99355e-07
9.00226e-07
8.99376e-07
8.68837e-07
9.20113e-07
7.79105e-07
7.70859e-07
7.51844e-07
6.03474e-07
7.13896e-07
7.627e-07
7.47317e-07
5.60842e-07
5.19861e-08
2.57578e-07
5.2016e-08
7.73398e-07
5.19862e-08
2.58082e-07
5.2016e-08
7.1087e-07
3.59761e-07
8.29667e-07
7.57481e-07
7.66342e-07
7.99529e-07
8.71464e-07
7.05993e-07
7.53856e-07
6.59547e-07
6.55552e-07
7.05621e-07
7.43109e-07
6.69376e-07
1.83719e-07
5.52715e-08
1.83829e-07
1.38474e-07
1.83719e-07
5.53484e-08
1.83828e-07
7.52738e-07
9.21322e-07
8.94074e-07
7.5286e-07
8.89634e-07
6.79541e-07
8.00683e-07
7.6413e-07
7.66515e-07
7.72148e-07
7.03328e-07
7.67279e-07
7.65794e-07
7.58218e-07
1.83828e-07
5.15406e-08
1.83827e-07
5.2858e-08
1.83828e-07
5.1276e-08
1.83827e-07
8.95209e-07
7.91388e-07
7.64987e-07
6.15201e-07
8.53486e-07
5.74105e-07
6.5218e-07
7.6717e-07
7.6724e-07
7.18298e-07
6.88552e-07
7.62e-07
6.95294e-07
7.68863e-07
1.83832e-07
5.18097e-08
1.83832e-07
3.47951e-08
1.29567e-07
3.49268e-08
1.29567e-07
8.35623e-07
9.01078e-07
8.74623e-07
8.9517e-07
7.17513e-07
8.80919e-07
7.80407e-07
6.68689e-07
7.61855e-07
6.57643e-07
7.38958e-07
6.44401e-07
7.6379e-07
6.72823e-07
1.83832e-07
9.48985e-08
1.83716e-07
3.54379e-08
1.29567e-07
6.52424e-08
1.29509e-07
8.78198e-07
8.01585e-07
8.70451e-07
7.74305e-07
8.78843e-07
7.56096e-07
8.81193e-07
7.65731e-07
7.70226e-07
7.51885e-07
7.69445e-07
7.67777e-07
7.67585e-07
7.18994e-07
5.20168e-08
7.72448e-07
5.19872e-08
1.24026e-07
3.51956e-08
6.95893e-07
3.52797e-08
8.93467e-07
9.16531e-07
8.24285e-07
8.66622e-07
8.24342e-07
8.8219e-07
6.31517e-07
6.01835e-07
7.52943e-07
3.80269e-07
7.30675e-07
5.78748e-07
7.53127e-07
3.68042e-07
5.20038e-08
7.74377e-07
5.54322e-08
7.00602e-07
3.52861e-08
7.00835e-07
3.74313e-08
5.06093e-07
4.76521e-07
5.52945e-07
6.58954e-07
8.30839e-07
4.20637e-07
7.12822e-07
7.65248e-07
7.62093e-07
6.71645e-07
7.43588e-07
7.52529e-07
7.65171e-07
7.00565e-07
5.89758e-08
7.77309e-07
6.52572e-08
7.00897e-07
3.97999e-08
7.01167e-07
4.38277e-08
7.88561e-07
8.83977e-07
8.43094e-07
8.04224e-07
8.41143e-07
8.14777e-07
7.59291e-07
7.52497e-07
7.67135e-07
5.6269e-07
6.92515e-07
7.50585e-07
7.66518e-07
5.70295e-07
6.67197e-08
7.75043e-07
5.85412e-08
7.01175e-07
4.47579e-08
7.00433e-07
3.95318e-08
8.71296e-07
7.23727e-07
8.54199e-07
8.48927e-07
8.77428e-07
5.84825e-07
8.54278e-07
7.67941e-07
7.68565e-07
7.08411e-07
7.181e-07
7.66078e-07
7.68875e-07
7.30324e-07
5.52479e-08
7.76543e-07
5.2002e-08
7.00545e-07
3.73327e-08
7.00329e-07
3.52863e-08
9.00741e-07
8.90371e-07
8.20168e-07
8.65184e-07
8.63186e-07
8.77729e-07
8.36835e-07
7.60486e-07
7.50903e-07
5.88565e-07
7.15873e-07
7.56275e-07
7.574e-07
5.54902e-07
5.19865e-08
2.58305e-07
5.20165e-08
6.95753e-07
3.52564e-08
1.89337e-07
3.50725e-08
8.45098e-07
8.08024e-07
9.12135e-07
8.83518e-07
8.77779e-07
9.00201e-07
8.67624e-07
6.47611e-07
7.5399e-07
5.84321e-07
6.92289e-07
6.736e-07
7.60299e-07
5.48322e-07
1.83723e-07
5.53484e-08
1.83833e-07
9.70476e-08
1.29512e-07
3.73068e-08
1.29567e-07
8.9937e-07
3.95227e-07
5.08564e-07
5.95204e-07
8.97139e-07
5.76115e-07
4.66255e-07
7.57474e-07
7.7025e-07
6.90214e-07
7.53266e-07
7.56119e-07
7.64775e-07
6.96023e-07
1.83832e-07
5.12621e-08
1.83832e-07
3.56304e-08
1.29567e-07
3.48089e-08
1.29567e-07
2.89241e-07
3.24831e-07
4.13368e-08
6.66752e-08
6.09153e-08
2.14935e-07
4.07897e-07
7.68339e-07
6.75805e-07
6.97483e-07
7.37756e-07
7.26327e-07
7.69604e-07
6.9717e-07
5.71841e-07
4.83282e-08
6.44808e-07
7.54011e-08
7.12977e-08
7.06073e-07
4.99324e-07
7.67335e-07
7.31525e-07
7.70838e-07
7.14511e-07
7.23617e-07
7.62725e-07
7.73069e-07
2.87327e-07
6.70653e-08
4.00148e-07
6.13139e-08
6.11233e-08
2.85334e-07
3.98859e-07
7.67546e-07
7.2253e-07
6.41748e-07
7.60739e-07
6.63741e-07
7.65594e-07
7.66395e-07
5.54743e-07
7.5733e-08
7.21235e-08
6.80095e-07
7.17543e-08
6.90358e-07
5.42307e-07
7.70735e-07
6.93832e-07
1.16291e-07
1.12653e-07
7.67566e-07
1.6474e-07
6.96324e-07
7.66679e-07
6.96114e-07
6.93789e-07
7.48285e-07
7.61667e-07
7.67165e-07
6.96556e-07
7.75052e-07
2.65603e-07
7.00036e-07
7.66752e-07
3.47011e-07
7.75849e-07
6.993e-07
7.0951e-07
7.70037e-07
7.63713e-07
6.73611e-07
7.65253e-07
6.88965e-07
6.93743e-07
7.68385e-07
1.12679e-07
7.67e-07
1.65001e-07
7.66893e-07
1.64755e-07
7.65754e-07
7.61372e-07
6.8604e-07
7.62433e-07
7.62224e-07
7.54204e-07
7.63384e-07
7.59154e-07
7.73565e-07
7.66628e-07
3.4312e-07
7.76478e-07
3.44131e-07
7.75823e-07
7.75822e-07
7.72268e-07
7.00429e-07
7.00065e-07
7.7301e-07
7.74754e-07
7.7577e-07
6.98632e-07
7.44333e-07
6.74758e-07