/*--------------------------------*- C++ -*----------------------------------*\
| =========                 |                                                 |
| \\      /  F ield         | OpenFOAM: The Open Source CFD Toolbox           |
|  \\    /   O peration     | Version:  5.0                                   |
|   \\  /    A nd           | Web:      www.OpenFOAM.org                      |
|    \\/     M anipulation  |                                                 |
\*---------------------------------------------------------------------------*/
FoamFile
{
    version     2.0;
    format      ascii;
    class       volVectorField;
    location    "2.8";
    object      U;
}
// * * * * * * * * * * * * * * * * * * * * * * * * * * * * * * * * * * * * * //

dimensions      [0 1 -1 0 0 0 0];

internalField   nonuniform List<vector> 
8647
(
(-0.00345864 -0.00625287 -1.7721e-05)
(0.00648246 -0.00215869 3.8487e-05)
(-0.0121067 0.00978939 -0.000620063)
(-0.01077 -0.00315801 0.00058715)
(0.0157692 -0.00352459 0.00021643)
(-0.000797106 -0.00212374 -6.73768e-05)
(0.000312933 -3.38281e-06 1.07109e-05)
(0.000834473 -1.78849e-05 -2.60874e-06)
(0.000819581 -1.02955e-05 1.15328e-07)
(0.000814028 -6.80131e-06 6.2954e-08)
(0.000811654 -3.98014e-06 1.18316e-07)
(0.000809306 -2.3954e-06 6.06936e-08)
(0.00080794 -1.13356e-06 3.54646e-09)
(0.000806181 -5.13217e-07 8.44716e-08)
(0.000804281 -3.77057e-07 4.90285e-08)
(0.000802893 -1.16469e-07 1.60554e-08)
(0.000801482 -2.90646e-07 5.24667e-08)
(0.000799913 -2.27719e-07 7.86925e-08)
(0.000798376 -1.64364e-07 6.56475e-08)
(0.000796839 -2.5436e-07 7.32791e-08)
(0.000795595 -3.39998e-07 6.34777e-08)
(0.000794275 -1.12933e-07 8.2846e-08)
(0.000792648 -2.42608e-07 4.71477e-08)
(0.000791185 -1.43883e-07 4.35392e-08)
(0.000789718 -1.88474e-08 1.7422e-08)
(0.000788376 1.48578e-08 6.38812e-09)
(0.000787 7.06813e-08 4.74984e-08)
(0.000785578 4.80335e-08 4.98355e-08)
(0.000784056 1.7094e-07 4.07132e-08)
(0.000782596 -2.0997e-07 1.96439e-07)
(0.000781077 -4.68702e-07 7.61733e-08)
(0.000779484 -5.16864e-07 -6.9523e-08)
(0.000778067 -3.73835e-07 8.01598e-08)
(0.000777089 -1.13641e-08 7.65933e-08)
(0.000775979 1.435e-07 3.60669e-08)
(0.000774184 8.58291e-08 5.47266e-08)
(0.000772514 -8.66495e-08 3.15802e-08)
(0.000770842 1.90781e-07 1.58651e-08)
(0.000770072 5.6806e-07 7.47972e-08)
(0.000769149 1.40241e-07 9.14389e-08)
(0.00076742 -1.52992e-08 2.46776e-08)
(0.000765938 -3.46848e-08 7.42178e-08)
(0.000764932 -3.08657e-07 -1.07778e-08)
(0.000763204 -4.76395e-07 -9.08832e-09)
(0.000761431 -2.07129e-07 4.37401e-08)
(0.000760092 -2.80253e-08 1.86169e-08)
(0.000758898 1.08361e-07 4.98953e-08)
(0.000757948 -9.8553e-08 2.01494e-07)
(0.00075623 -3.70179e-07 4.28679e-08)
(0.000754641 -3.18054e-07 1.28511e-08)
(-0.000513075 -0.00212857 -0.000819039)
(-0.0136091 -0.0145929 0.000237875)
(0.014817 0.00039986 0.00283934)
(-0.0081184 -0.0012876 -0.000945524)
(0.016936 0.00180444 0.00125045)
(0.00141687 -0.000741345 -0.000108599)
(0.000441305 -3.20672e-05 2.61894e-05)
(0.000859949 -1.80586e-05 -2.43185e-06)
(0.000825464 1.16295e-05 -1.74435e-07)
(0.000817816 -2.465e-06 6.68632e-08)
(0.000814437 -1.2454e-06 3.49457e-08)
(0.000811236 -1.63607e-06 3.07849e-08)
(0.000808647 -1.2847e-06 2.62858e-08)
(0.000806376 -9.56002e-07 4.22789e-08)
(0.00080487 -5.61745e-07 4.80817e-08)
(0.000803024 -3.20433e-07 3.53332e-08)
(0.000801254 2.94704e-08 5.43222e-08)
(0.000800026 2.6485e-07 7.78916e-08)
(0.000798603 4.62927e-07 4.96223e-08)
(0.000797038 2.52861e-07 2.88855e-08)
(0.000795534 3.16682e-07 1.36558e-08)
(0.000793883 1.8234e-07 6.10556e-08)
(0.000792484 3.30736e-07 2.73495e-08)
(0.000791467 2.90105e-07 3.60884e-08)
(0.000790021 6.96283e-08 -1.79115e-08)
(0.000788339 7.68229e-10 1.01703e-07)
(0.000786817 -1.29417e-07 7.85147e-08)
(0.000785485 -1.95055e-07 4.41794e-08)
(0.000783792 -4.96327e-07 6.29666e-08)
(0.000782099 -4.13691e-07 7.5218e-08)
(0.000780972 -3.1079e-07 -1.35792e-07)
(0.000779709 -1.32187e-07 2.0003e-08)
(0.00077872 3.99106e-07 1.2744e-07)
(0.000777532 5.24619e-07 1.04325e-07)
(0.000775732 1.15891e-07 4.28618e-08)
(0.000774256 4.65864e-08 3.8748e-08)
(0.000772974 1.4843e-07 4.2409e-08)
(0.000771809 3.59865e-07 7.95462e-09)
(0.000769869 6.807e-07 1.19759e-08)
(0.000768074 2.77709e-07 1.15803e-07)
(0.000767069 7.82795e-08 6.05309e-08)
(0.000765677 -1.76096e-07 6.48165e-08)
(0.000763995 -2.71459e-07 4.62003e-08)
(0.000763116 -6.53817e-07 9.50936e-08)
(0.000762124 -1.61332e-07 3.21955e-08)
(0.000760605 -8.50318e-08 5.23595e-08)
(0.000759076 2.97056e-07 4.11584e-08)
(0.000757448 6.36325e-08 -8.60716e-09)
(0.000756148 -9.3128e-08 -7.09052e-08)
(0.000755146 -1.7298e-07 1.07832e-07)
(0.00310254 -0.0106696 -0.00040411)
(-0.000189134 0.00405952 5.18495e-05)
(0.00638503 0.0028294 1.96564e-05)
(-0.0010111 -0.00802499 0.000501746)
(-0.00261847 0.00362632 -0.000340441)
(0.000449329 -0.00230238 -2.10873e-05)
(0.00108756 2.79703e-05 -1.13512e-05)
(0.000451299 -3.908e-06 -9.70299e-07)
(0.000861351 7.40136e-06 -1.53281e-06)
(0.000798013 -3.5368e-06 -4.64036e-07)
(0.000812697 -1.29322e-06 1.95618e-07)
(0.000809264 -1.36226e-06 8.24788e-08)
(0.000808798 -1.11893e-06 7.39173e-08)
(0.000807091 -7.6926e-07 5.29987e-08)
(0.00080508 -5.21949e-07 5.24058e-08)
(0.000803634 -4.77321e-07 5.86039e-08)
(0.000802214 -1.69218e-07 4.73e-08)
(0.000800453 -3.95409e-08 3.51331e-08)
(0.000798358 -8.02783e-08 9.36425e-08)
(0.000796654 2.98992e-08 3.70752e-08)
(0.000795504 8.29923e-08 3.88428e-08)
(0.000794289 1.115e-07 4.69563e-08)
(0.00079278 3.62084e-07 7.36744e-08)
(0.000790856 2.88681e-07 -6.49655e-08)
(0.000789355 1.11549e-07 4.56705e-08)
(0.000788127 9.89552e-09 6.21542e-08)
(0.000786756 -3.67246e-08 6.42101e-08)
(0.000785123 -4.81555e-08 5.87723e-08)
(0.000783786 -1.15816e-07 1.04866e-09)
(0.000782834 3.4512e-07 4.05715e-09)
(0.000781432 4.35363e-07 1.32641e-07)
(0.000780371 4.32116e-07 6.31489e-08)
(0.000778886 4.28637e-07 -8.79847e-09)
(0.000776731 1.33217e-07 -5.19509e-09)
(0.000775379 -3.73234e-08 8.78492e-08)
(0.000774223 2.25053e-08 4.10213e-08)
(0.000772904 -2.24307e-08 1.30487e-07)
(0.000771504 -8.10535e-08 5.11675e-08)
(0.000769965 -2.43971e-07 2.4057e-08)
(0.000768392 6.66485e-08 5.6187e-08)
(0.000766851 2.00759e-08 6.6407e-08)
(0.000765501 -4.6781e-08 5.55443e-08)
(0.000764338 2.32733e-07 1.4105e-07)
(0.000763345 5.07429e-07 1.08001e-07)
(0.000762146 2.04403e-07 9.19776e-08)
(0.000760666 1.99645e-07 5.37453e-08)
(0.000759084 9.24465e-08 1.36909e-07)
(0.00075746 3.26449e-07 8.3366e-08)
(0.00075594 2.11522e-07 5.82925e-08)
(0.00075497 1.27513e-07 1.07483e-07)
(-0.000751712 0.00168015 -0.000151707)
(-0.00695326 -0.00412477 0.0016404)
(0.00869889 -0.0024099 -0.000902074)
(0.00627709 1.99371e-06 5.367e-05)
(0.00101051 0.0045671 0.000584483)
(-0.000922581 -0.00329185 0.000109072)
(0.000864369 0.000375594 2.26597e-05)
(0.000469525 -1.1505e-05 -1.56349e-06)
(0.000883097 -1.78558e-05 -1.2707e-06)
(0.000806921 -5.11187e-06 -4.07964e-07)
(0.000817176 -2.65347e-06 1.58961e-07)
(0.000811468 -7.83835e-07 1.74124e-08)
(0.0008094 -2.37297e-07 5.74701e-08)
(0.000807131 -1.32717e-07 5.30484e-08)
(0.000805241 -1.71194e-08 5.25655e-08)
(0.000803469 6.33361e-08 5.21751e-08)
(0.000801804 -1.51e-07 5.33538e-08)
(0.000800139 -3.20706e-07 5.06064e-08)
(0.000798691 -4.07166e-07 3.72536e-08)
(0.000797243 -2.58654e-07 3.1878e-08)
(0.000795636 -1.29863e-07 7.32197e-08)
(0.000794231 -1.99487e-07 5.16209e-08)
(0.000792704 -2.67174e-07 1.56356e-08)
(0.000791152 -1.50541e-07 5.19842e-08)
(0.000789671 8.84053e-08 2.67704e-08)
(0.000788154 2.1473e-07 3.01062e-08)
(0.000786744 3.20783e-07 6.00145e-08)
(0.000785386 4.35789e-07 5.14308e-08)
(0.000784282 7.00485e-07 3.84706e-08)
(0.000782784 3.63675e-07 3.9909e-08)
(0.000781076 3.36745e-07 7.05836e-08)
(0.000779696 5.00136e-07 5.4854e-08)
(0.000778342 -3.6755e-08 4.28251e-08)
(0.000776948 -9.721e-08 4.87615e-08)
(0.000775593 4.04577e-08 2.6684e-08)
(0.000774274 4.86549e-09 7.41386e-08)
(0.000772845 -5.38965e-08 7.14789e-08)
(0.000771532 -2.06843e-07 4.58872e-08)
(0.000770055 -3.40466e-07 1.66352e-08)
(0.000768405 -3.2696e-07 1.80419e-08)
(0.000766928 -9.99723e-08 5.77001e-08)
(0.000765942 1.50779e-07 1.67808e-07)
(0.000764686 3.55006e-07 1.86784e-07)
(0.000763077 4.41423e-07 -2.95784e-08)
(0.000761735 2.111e-07 2.21761e-08)
(0.000760462 1.14609e-07 4.17991e-08)
(0.000759232 1.59932e-07 2.2158e-08)
(0.000757595 4.38042e-07 5.87349e-08)
(0.000755896 2.02447e-07 4.60924e-08)
(0.000754722 2.66854e-07 1.60375e-07)
(-0.00505046 0.00875559 0.000402619)
(-0.00755068 0.016096 0.00163849)
(0.0016507 -0.0260284 0.00107372)
(0.00961588 -0.00317498 -1.23975e-05)
(-0.00155612 -0.0127272 -0.000119707)
(-0.0038835 -0.00106872 -7.88987e-06)
(0.000732424 0.000656135 1.61666e-06)
(0.00032975 -1.85979e-05 3.84243e-06)
(0.0008605 -3.32837e-06 -2.01642e-06)
(0.000817266 2.29097e-06 -2.49183e-07)
(0.000818153 1.256e-06 1.18873e-07)
(0.000812308 9.33532e-07 3.0597e-08)
(0.000809622 7.21354e-07 2.6368e-07)
(0.000807372 5.11672e-07 5.30262e-08)
(0.000805327 3.75726e-07 4.24412e-08)
(0.000803468 2.81748e-07 4.15565e-08)
(0.000801735 2.30636e-07 5.08597e-08)
(0.000800136 8.05763e-08 5.20663e-08)
(0.000798439 1.37866e-07 5.348e-08)
(0.000797003 1.67415e-07 7.25678e-08)
(0.000795581 -1.29436e-07 6.66047e-08)
(0.00079412 1.36249e-07 2.30811e-07)
(0.000792843 -2.61996e-08 2.86593e-07)
(0.000791302 3.76891e-08 7.64064e-08)
(0.000789811 5.85735e-08 6.54012e-08)
(0.000788416 -4.14963e-08 6.48769e-08)
(0.000787029 1.99369e-07 6.57156e-08)
(0.000785592 3.43757e-07 5.26142e-08)
(0.00078369 5.26956e-07 2.33463e-07)
(0.000782372 6.89439e-07 1.29307e-07)
(0.000781597 3.30962e-07 6.26978e-08)
(0.0007799 3.9366e-08 4.04352e-08)
(0.000778137 1.69374e-07 4.62868e-08)
(0.000776826 8.38681e-08 4.87424e-08)
(0.000775506 1.14e-07 4.85011e-08)
(0.000774105 -3.93726e-08 4.62651e-08)
(0.00077264 -1.05306e-07 6.09969e-08)
(0.000771148 -1.39431e-07 7.59341e-08)
(0.000769818 -2.0302e-07 4.55732e-08)
(0.000768695 -2.24992e-07 6.49879e-08)
(0.000767449 5.57847e-08 5.4139e-08)
(0.000766068 3.23227e-07 1.35294e-07)
(0.000764697 4.69072e-08 -1.22658e-08)
(0.000763161 1.33861e-07 6.79532e-08)
(0.000761734 -9.23765e-09 5.2411e-08)
(0.000760601 -1.3377e-07 4.76261e-08)
(0.000759487 -3.47902e-07 -5.55818e-08)
(0.000757511 -7.99888e-07 3.63643e-08)
(0.000755719 -3.01286e-07 5.5923e-08)
(0.000754387 5.04443e-08 4.98285e-08)
(-0.0119875 0.00845933 0.000365486)
(0.00119767 0.00775227 -0.000312437)
(-0.00569851 -0.00652839 0.00171469)
(0.00973344 0.0037735 0.000429642)
(-0.00986838 0.000822545 -0.000122616)
(0.0147278 -0.00143726 0.000416601)
(0.000714743 -1.93204e-05 1.40646e-05)
(0.000400299 7.48135e-06 9.97407e-06)
(0.000851446 2.09755e-05 -2.02197e-06)
(0.000812526 8.51973e-06 -1.92953e-07)
(0.000815488 5.54376e-06 1.26276e-07)
(0.000810804 3.11802e-06 7.58013e-08)
(0.000808874 1.96225e-06 5.29418e-08)
(0.000806699 1.17884e-06 5.02049e-08)
(0.000804953 7.62114e-07 1.34103e-07)
(0.000803287 4.39756e-07 1.10439e-07)
(0.000801553 2.84959e-07 5.01851e-08)
(0.000800022 2.96482e-07 6.9577e-08)
(0.000798799 7.00289e-08 2.21726e-08)
(0.000796908 3.28658e-07 1.90737e-07)
(0.000795596 4.5888e-07 -1.5885e-08)
(0.000794359 3.69061e-07 1.01159e-07)
(0.00079258 2.96262e-07 7.57222e-08)
(0.000791258 1.53453e-07 6.55544e-08)
(0.000789572 1.19713e-07 6.07073e-08)
(0.000788329 1.93003e-07 -1.08746e-08)
(0.000787225 -9.71397e-09 5.13146e-08)
(0.000785793 -1.19724e-07 8.88998e-09)
(0.000784711 5.30699e-08 2.42739e-08)
(0.000782536 -7.73528e-08 -1.69294e-07)
(0.000780261 -1.59654e-07 5.57777e-09)
(0.000779492 -2.35979e-07 1.65361e-07)
(0.000778397 -2.01452e-07 1.4091e-08)
(0.000776876 -1.12182e-07 -6.0405e-08)
(0.000775438 -1.24494e-07 -3.90035e-08)
(0.000774 -5.63915e-08 7.92878e-08)
(0.00077272 -4.4614e-08 2.29948e-08)
(0.000771412 5.32816e-08 5.51149e-08)
(0.00076995 1.74439e-07 6.11961e-08)
(0.000768729 9.49528e-08 4.87085e-08)
(0.000767612 1.49325e-07 2.38937e-08)
(0.000765929 1.78816e-07 -1.32989e-08)
(0.000764448 8.68345e-08 4.80235e-08)
(0.000763007 -5.89209e-08 5.80163e-08)
(0.000761402 -1.16573e-07 3.69689e-08)
(0.000760041 -2.19642e-07 4.4128e-08)
(0.000758403 -5.88253e-07 -6.52599e-08)
(0.000757657 -8.56701e-07 3.70914e-08)
(0.000756959 -5.17964e-07 8.97032e-08)
(0.000755036 -3.41741e-07 1.30509e-07)
(-0.0300123 0.00667342 -0.00207427)
(0.00735072 0.00294612 0.00632245)
(-0.0435439 0.0132865 -0.000441805)
(0.0127748 0.000327943 0.000980885)
(0.00269 0.00394509 0.000390563)
(0.000475468 0.000253283 5.36643e-06)
(0.000783558 -0.000728739 3.71589e-05)
(0.000513766 2.62891e-05 4.28932e-06)
(0.000868929 2.53054e-05 -1.35869e-06)
(0.000798094 1.13732e-05 -5.00829e-07)
(0.000811364 6.66145e-06 1.61738e-07)
(0.000807806 3.80266e-06 1.5568e-08)
(0.000807185 2.17035e-06 5.58178e-08)
(0.000805863 1.25227e-06 5.09096e-08)
(0.000804399 6.97146e-07 4.71371e-08)
(0.000802869 4.46904e-07 5.23437e-08)
(0.000801555 3.6987e-07 4.86948e-08)
(0.000799865 3.46739e-07 2.80665e-08)
(0.000798477 3.73204e-07 6.20887e-08)
(0.000797487 1.54466e-08 5.61679e-08)
(0.000795628 3.42624e-07 -8.49479e-08)
(0.000793914 1.58453e-08 4.42905e-08)
(0.000792572 1.28926e-07 3.46423e-08)
(0.000791079 4.29197e-08 4.43484e-08)
(0.00078986 6.31796e-08 1.24712e-08)
(0.000788253 1.62034e-07 9.35053e-08)
(0.000786638 -9.69397e-08 4.95099e-08)
(0.000785671 -2.62155e-07 4.27679e-08)
(0.000783745 -8.21197e-07 -5.46478e-08)
(0.000782108 -1.10541e-06 1.05842e-07)
(0.000781401 -6.02947e-07 -6.69281e-08)
(0.000779851 -1.37114e-07 8.51344e-08)
(0.000778294 -3.44634e-08 4.13502e-08)
(0.000776925 -9.34472e-08 6.30093e-08)
(0.000775577 -9.74451e-08 7.57461e-08)
(0.000774206 -5.00422e-08 1.25097e-07)
(0.000772777 -2.52689e-08 5.45718e-08)
(0.000771421 1.13843e-08 4.10791e-08)
(0.000769869 5.56515e-08 3.7441e-08)
(0.000768663 2.97012e-07 5.64506e-08)
(0.000767553 -1.34075e-09 4.38815e-08)
(0.000765989 -2.4254e-07 1.59408e-09)
(0.0007644 -1.96742e-07 6.63614e-08)
(0.000762908 -3.25292e-07 5.40431e-08)
(0.000761535 -1.09404e-07 2.39181e-08)
(0.000760014 -2.63202e-08 4.95091e-08)
(0.000758695 -5.85695e-08 1.15218e-07)
(0.000757605 1.61449e-07 4.90788e-08)
(0.000756373 -2.25871e-07 3.1354e-08)
(0.000755459 -3.26945e-07 3.70939e-08)
(-0.00301986 0.00377299 0.000501068)
(-0.000203036 0.00841711 0.000590313)
(0.00104917 -0.00989756 0.000632332)
(0.00933301 0.00472105 -0.000300033)
(-0.00812969 -0.00215963 -0.000217178)
(0.00539281 0.0112501 -0.0002057)
(0.00094728 8.88769e-05 0.000103479)
(0.00044487 3.43404e-05 9.74114e-07)
(0.000843248 -6.37001e-07 -1.2151e-06)
(0.000788879 6.45637e-06 -4.43878e-07)
(0.000805956 2.66173e-06 1.71216e-07)
(0.000805151 1.86755e-06 4.01087e-08)
(0.000805664 1.1555e-06 5.68955e-08)
(0.000804845 6.09106e-07 5.10995e-08)
(0.000803939 2.78453e-07 5.83638e-08)
(0.000802873 1.7436e-07 5.27783e-08)
(0.000801424 -7.23511e-08 1.09895e-07)
(0.000800023 -1.40414e-07 6.58585e-08)
(0.000798383 8.53105e-09 8.40327e-08)
(0.000796867 -5.24588e-08 3.3612e-08)
(0.000795596 -2.65072e-07 4.59194e-08)
(0.000794091 -1.06056e-07 5.7523e-08)
(0.000792614 -2.58676e-07 3.83969e-08)
(0.000791175 -1.46514e-07 4.74351e-08)
(0.00078972 -2.84479e-07 6.35365e-08)
(0.000788129 -3.03806e-07 5.05916e-08)
(0.000786695 -9.95755e-08 2.38633e-08)
(0.00078489 -1.45905e-07 1.5847e-07)
(0.000783662 -3.3454e-07 1.45364e-07)
(0.000782815 2.46733e-07 2.8745e-08)
(0.000781477 2.74728e-07 8.31197e-08)
(0.000780205 2.47518e-08 6.7635e-08)
(0.000778453 -4.49221e-08 4.0604e-08)
(0.000776799 3.53802e-08 4.42285e-08)
(0.000775494 4.10193e-08 4.42425e-08)
(0.000774091 -1.18463e-07 5.25452e-08)
(0.000772798 -2.37729e-07 5.90522e-08)
(0.000771513 -8.34578e-08 5.29356e-08)
(0.000770306 4.6939e-08 4.12601e-08)
(0.000768657 1.88649e-07 2.80674e-08)
(0.000766938 2.42267e-08 1.55759e-08)
(0.000765686 -2.88375e-08 5.00369e-08)
(0.000764347 -1.44454e-07 5.19164e-08)
(0.000763118 -5.96894e-08 4.70012e-08)
(0.000761777 -3.02349e-08 5.93489e-08)
(0.000760106 1.06096e-07 4.40052e-08)
(0.000758639 4.591e-07 4.40162e-08)
(0.000757449 3.23024e-07 5.32102e-08)
(0.000756358 1.69526e-07 5.18385e-08)
(0.000755725 -4.29488e-08 5.69617e-08)
(-0.00162888 -0.00260566 0.000528441)
(-0.00662773 -0.000267928 0.000629355)
(-0.0164417 -0.0132411 -0.000730629)
(0.00770336 -0.00401758 0.000436245)
(-0.00691793 -0.0041535 -0.000661688)
(0.00202153 0.00712701 -7.22424e-05)
(0.000696652 6.71929e-05 7.08585e-06)
(0.000798313 1.17746e-05 -2.30389e-06)
(0.000799519 -1.94307e-05 2.08034e-08)
(0.000802248 -3.32796e-06 1.64156e-08)
(0.000805584 -2.64407e-06 5.61876e-08)
(0.0008059 -9.7852e-07 4.16381e-08)
(0.000805597 -6.39208e-07 -2.08468e-08)
(0.000804758 -4.81467e-07 5.13018e-08)
(0.00080385 -1.73866e-07 5.03059e-08)
(0.000802428 -1.34862e-07 1.16716e-07)
(0.00080116 -1.40642e-07 8.74803e-08)
(0.000799967 -1.60055e-07 2.34003e-08)
(0.000798587 -2.66428e-07 5.38809e-08)
(0.000797145 4.15999e-08 7.25677e-08)
(0.000795562 4.38172e-08 5.18444e-08)
(0.000793924 -1.50661e-07 5.30273e-08)
(0.000792523 -2.22202e-07 2.30229e-08)
(0.00079105 -2.25406e-07 5.31264e-08)
(0.000789666 -2.14454e-07 3.05659e-08)
(0.000788487 -1.45291e-07 5.85791e-08)
(0.000786838 -1.36386e-07 6.65701e-08)
(0.00078538 -8.14796e-08 9.13517e-08)
(0.000784236 2.39116e-07 1.0092e-07)
(0.000782869 2.80826e-07 -2.79771e-08)
(0.000781122 3.05324e-07 -8.90425e-09)
(0.000779449 1.82495e-07 9.11028e-08)
(0.000778307 -1.89712e-07 -3.0294e-07)
(0.000777032 -1.12273e-07 2.92733e-08)
(0.000775385 -1.22732e-07 2.52388e-08)
(0.000773858 -1.89196e-08 6.22748e-08)
(0.000772822 2.39655e-07 7.59308e-08)
(0.000771778 1.83191e-08 4.76711e-08)
(0.000770209 -1.7672e-07 9.40838e-08)
(0.000768634 -2.7891e-07 3.74094e-08)
(0.000767281 -5.92205e-08 5.91474e-08)
(0.000765779 7.78009e-10 -1.67634e-08)
(0.000764363 2.25758e-07 6.94353e-08)
(0.000763052 1.60398e-07 4.21528e-08)
(0.000761743 1.21367e-07 6.36988e-08)
(0.000760624 -1.15292e-08 1.83254e-08)
(0.000758964 2.05664e-07 2.00551e-08)
(0.00075724 4.10543e-07 3.92825e-08)
(0.000755915 6.85815e-07 -5.88834e-08)
(0.000755298 4.67041e-07 8.74738e-08)
(-0.00755553 -0.00490389 0.000148127)
(-0.000609309 -0.00450744 -0.000125715)
(0.00562287 -0.00307132 -0.0011461)
(-0.00010798 -0.00161524 -2.96829e-06)
(-0.00335182 -0.0157648 0.000360005)
(0.000972371 -0.00445196 -0.000111467)
(0.00041299 -1.55538e-05 3.02613e-05)
(0.000828227 -2.36816e-05 -2.59559e-06)
(0.000811113 -1.36849e-05 -2.36564e-08)
(0.000809874 -7.39713e-06 2.59532e-08)
(0.0008089 -4.30666e-06 9.18598e-08)
(0.000807662 -2.56567e-06 1.7499e-07)
(0.000806286 -1.59575e-06 8.76656e-08)
(0.000805426 -6.99223e-07 3.83368e-08)
(0.000804372 -4.61703e-07 5.38857e-08)
(0.000802914 -3.57019e-07 6.76796e-08)
(0.000801393 -9.10784e-08 4.88265e-08)
(0.000799867 -1.00212e-07 1.44832e-07)
(0.000798635 -1.34321e-07 8.53154e-08)
(0.000797256 -2.70406e-07 7.96523e-08)
(0.000795356 -3.80627e-07 1.14705e-07)
(0.00079376 -2.45858e-07 1.30256e-07)
(0.000792523 -1.01148e-07 5.78751e-08)
(0.000791188 -1.46503e-07 5.1006e-08)
(0.000789824 6.73272e-09 4.773e-08)
(0.000788229 -1.04695e-07 5.46712e-08)
(0.000786777 -8.20764e-08 2.5321e-08)
(0.000785361 2.48947e-08 4.0969e-08)
(0.000784114 7.7311e-08 5.80545e-08)
(0.000782896 -1.19364e-07 4.84139e-08)
(0.000781351 -1.41029e-07 1.29856e-07)
(0.000779586 -1.56721e-07 -1.20317e-08)
(0.000778085 -1.15978e-07 -2.6225e-08)
(0.000776884 -3.50607e-07 2.07826e-07)
(0.000775612 -7.28732e-08 4.67343e-08)
(0.000774544 1.23403e-07 -2.69072e-09)
(0.000772844 1.8781e-07 2.6033e-08)
(0.000770993 -1.22846e-07 4.63585e-08)
(0.000769936 -5.61612e-07 5.33776e-08)
(0.000768806 -2.34351e-07 5.71165e-08)
(0.000767289 -1.51859e-07 5.94605e-08)
(0.000766043 -1.24662e-07 3.57841e-08)
(0.000764546 -2.59281e-08 5.49607e-08)
(0.000762986 3.31005e-07 2.58619e-08)
(0.000761561 9.70406e-08 3.6588e-08)
(0.000760209 8.39686e-08 5.60553e-08)
(0.000759163 -3.27835e-07 2.57851e-08)
(0.000758044 3.20026e-08 3.97443e-08)
(0.000756414 2.39119e-07 -2.89643e-08)
(0.000754288 2.90816e-07 6.64199e-08)
(-0.0124079 -0.0196978 -0.00442074)
(0.0142134 0.0168824 0.000569103)
(-0.0117087 -0.00213969 -0.0019218)
(0.00239161 -0.0234311 0.000388163)
(-0.0190291 -0.00801183 0.0015278)
(0.0067369 -0.00730716 -0.00108833)
(0.00132072 -6.86104e-06 -2.31685e-05)
(0.0013912 -2.81113e-05 3.15616e-07)
(0.0013672 -1.58412e-05 3.38817e-07)
(0.00135805 -1.04658e-05 3.54737e-07)
(0.00135417 -6.07578e-06 3.68743e-07)
(0.0013503 -3.6823e-06 2.9078e-07)
(0.0013481 -1.72817e-06 3.23554e-07)
(0.00134526 -7.85681e-07 3.46686e-07)
(0.00134211 -5.61736e-07 3.38012e-07)
(0.00133976 -1.4839e-07 2.58062e-07)
(0.0013374 -4.50772e-07 3.35905e-07)
(0.00133478 -3.59781e-07 3.6171e-07)
(0.00133223 -2.59551e-07 3.69515e-07)
(0.00132968 -3.9963e-07 3.26681e-07)
(0.00132759 -5.0161e-07 3.91998e-07)
(0.00132532 -9.02529e-08 3.63484e-07)
(0.00132259 -3.00263e-07 3.18625e-07)
(0.00132018 -1.67583e-07 2.84435e-07)
(0.00131775 7.47042e-08 2.72681e-07)
(0.0013155 1.6695e-07 2.64228e-07)
(0.00131325 1.8888e-07 2.78355e-07)
(0.00131097 8.83415e-08 3.371e-07)
(0.00130832 2.71545e-07 3.26998e-07)
(0.00130575 -4.21317e-07 5.20549e-07)
(0.00130328 -9.10021e-07 3.57908e-07)
(0.00130061 -9.01115e-07 1.05999e-07)
(0.00129833 -6.28711e-07 3.39047e-07)
(0.00129677 -3.39768e-08 2.91812e-07)
(0.00129487 2.70077e-07 3.13987e-07)
(0.00129188 2.12352e-07 3.19747e-07)
(0.00128907 -1.0431e-07 3.05459e-07)
(0.00128632 3.36785e-07 2.51223e-07)
(0.00128494 9.51014e-07 2.83288e-07)
(0.00128338 3.18308e-07 3.6132e-07)
(0.00128058 9.43077e-09 2.82976e-07)
(0.00127807 -3.51121e-08 3.51211e-07)
(0.00127647 -5.49152e-07 2.51939e-07)
(0.00127363 -7.50606e-07 1.83038e-07)
(0.0012707 -3.68171e-07 3.28497e-07)
(0.00126846 -1.34758e-07 9.12665e-08)
(0.00126639 9.70507e-08 2.70711e-07)
(0.00126477 -2.45831e-07 4.97607e-07)
(0.00126187 -6.07143e-07 3.43403e-07)
(0.00125916 -5.13792e-07 2.32682e-07)
(-0.0174562 0.00199909 -0.0019606)
(-0.0181588 0.0501368 0.0221368)
(0.0341087 0.0199563 0.0463792)
(0.0083986 -0.0125635 0.0266232)
(0.0228018 -0.000736235 0.00399485)
(-0.000292093 -0.00304236 -0.000227591)
(0.00108646 6.98194e-06 4.66385e-05)
(0.0014339 -2.85967e-05 3.71981e-07)
(0.0013767 2.02035e-05 4.03373e-07)
(0.00136392 -3.44075e-06 4.8817e-07)
(0.00135852 -1.68596e-06 3.39622e-07)
(0.00135336 -2.44867e-06 3.37901e-07)
(0.00134917 -1.95182e-06 3.50248e-07)
(0.00134547 -1.465e-06 3.35385e-07)
(0.00134301 -8.8057e-07 3.35052e-07)
(0.00133996 -5.09507e-07 2.72031e-07)
(0.00133703 4.14329e-08 3.34392e-07)
(0.00133498 4.13101e-07 4.00628e-07)
(0.00133258 7.51557e-07 3.08222e-07)
(0.00132996 4.10546e-07 3.0531e-07)
(0.00132749 5.35035e-07 -1.32056e-07)
(0.00132474 2.9339e-07 3.6944e-07)
(0.00132236 5.76975e-07 2.24941e-07)
(0.00132068 5.29127e-07 2.87952e-07)
(0.00131829 1.94384e-07 6.18676e-08)
(0.00131542 7.57208e-08 4.23419e-07)
(0.00131283 -1.51687e-07 3.47328e-07)
(0.00131063 -3.35214e-07 3.26314e-07)
(0.00130782 -9.57614e-07 2.9581e-07)
(0.00130497 -7.46171e-07 3.45326e-07)
(0.00130317 -5.53992e-07 4.16351e-08)
(0.00130115 -2.53656e-07 2.6948e-07)
(0.00129941 7.1298e-07 4.81449e-07)
(0.00129742 9.0582e-07 4.48605e-07)
(0.0012945 2.33955e-07 3.24978e-07)
(0.00129197 8.72246e-08 3.36883e-07)
(0.0012898 2.80209e-07 3.1193e-07)
(0.00128786 6.10275e-07 1.16265e-07)
(0.00128471 1.1328e-06 3.58198e-07)
(0.00128172 5.66478e-07 9.04522e-07)
(0.00127993 1.63707e-07 3.37625e-07)
(0.00127761 -2.59925e-07 3.65872e-07)
(0.00127492 -4.22187e-07 2.89614e-07)
(0.00127345 -1.07115e-06 3.95476e-07)
(0.00127169 -3.00637e-07 3.29223e-07)
(0.0012692 -2.25384e-07 3.37545e-07)
(0.00126672 4.39072e-07 3.16933e-07)
(0.00126402 4.89419e-08 2.46694e-07)
(0.0012618 -2.27062e-07 8.23204e-08)
(0.0012601 -3.13934e-07 3.99921e-07)
(0.00249833 -0.00690791 -0.0114892)
(-0.0166805 -0.00165055 0.00173242)
(0.00390275 0.00373244 -0.00115044)
(0.00506769 -0.00332163 0.00102848)
(0.00264909 0.00498812 -0.000614428)
(0.000705061 -0.00180914 -7.22378e-05)
(0.000883723 -0.0001434 -3.70071e-05)
(0.00135271 -9.84564e-06 4.33159e-07)
(0.00143578 1.23593e-05 -3.10727e-07)
(0.00133085 -5.74778e-06 3.31266e-07)
(0.00135542 -2.12254e-06 3.39229e-07)
(0.00134998 -2.25266e-06 3.61923e-07)
(0.00134934 -1.86502e-06 3.36474e-07)
(0.0013466 -1.27415e-06 3.36538e-07)
(0.00134332 -8.62698e-07 3.35588e-07)
(0.00134092 -7.9414e-07 3.34334e-07)
(0.00133855 -2.99049e-07 3.31169e-07)
(0.00133567 -1.02029e-07 2.27183e-07)
(0.00133222 -2.0004e-07 3.80725e-07)
(0.00132941 -1.76119e-09 3.15346e-07)
(0.00132744 9.71546e-08 2.88655e-07)
(0.00132537 1.61447e-07 3.28181e-07)
(0.00132288 5.80896e-07 3.77033e-07)
(0.00131969 4.96223e-07 -1.74479e-07)
(0.00131718 1.56448e-07 3.34627e-07)
(0.00131507 1.04581e-08 3.40695e-07)
(0.00131273 -3.61638e-08 3.46468e-07)
(0.00130996 -3.29511e-08 3.17524e-07)
(0.00130781 -1.4434e-07 2.13376e-07)
(0.00130626 6.53904e-07 2.51241e-07)
(0.0013039 8.62537e-07 3.96297e-07)
(0.00130219 8.13091e-07 4.7387e-07)
(0.00129978 7.18448e-07 2.0587e-07)
(0.00129617 2.72606e-07 1.52271e-07)
(0.00129385 -4.62448e-08 3.6932e-07)
(0.00129194 2.81421e-08 2.77541e-07)
(0.00128972 -5.9168e-09 3.69961e-07)
(0.00128738 -1.03439e-07 3.49953e-07)
(0.00128488 -3.47811e-07 3.06312e-07)
(0.00128217 5.41261e-08 3.37686e-07)
(0.00127954 2.80119e-08 3.58214e-07)
(0.00127734 -1.3913e-08 3.44691e-07)
(0.00127546 4.65196e-07 4.24961e-07)
(0.00127379 8.58175e-07 2.92389e-07)
(0.00127176 4.39718e-07 3.43134e-07)
(0.00126939 4.10648e-07 3.15504e-07)
(0.00126673 1.99943e-07 4.86176e-07)
(0.00126394 5.33614e-07 3.29803e-07)
(0.00126143 3.3075e-07 3.28415e-07)
(0.00125983 2.03185e-07 4.03023e-07)
(0.0022597 -0.000839486 -0.000139581)
(-0.0102113 0.00633131 -0.00289422)
(-0.00592646 0.00075799 0.0207661)
(-0.0156634 0.0176048 0.00693539)
(0.00594365 0.0116986 0.00233743)
(-0.00290199 0.00807308 -0.00539136)
(0.00197476 0.00252707 7.3615e-05)
(0.00139868 -3.39016e-05 1.87007e-06)
(0.00147168 -3.05901e-05 3.09817e-07)
(0.00134578 -9.16232e-06 3.90613e-07)
(0.00136292 -4.82807e-06 3.41736e-07)
(0.00135371 -1.57572e-06 3.39749e-07)
(0.00135041 -5.79333e-07 3.38224e-07)
(0.00134673 -3.21224e-07 3.36675e-07)
(0.00134362 -6.23683e-08 3.34998e-07)
(0.00134067 9.47087e-08 3.33993e-07)
(0.0013379 -2.5567e-07 3.37886e-07)
(0.00133511 -5.17844e-07 3.97883e-07)
(0.00133271 -7.04609e-07 3.28493e-07)
(0.00133033 -4.85578e-07 3.06578e-07)
(0.00132769 -2.7051e-07 3.45087e-07)
(0.00132534 -3.22498e-07 3.33944e-07)
(0.00132277 -4.4091e-07 3.02121e-07)
(0.00132014 -2.54864e-07 3.34785e-07)
(0.00131768 1.0925e-07 2.72423e-07)
(0.00131518 3.28838e-07 2.67837e-07)
(0.00131278 5.30423e-07 3.86253e-07)
(0.0013105 7.80479e-07 3.5321e-07)
(0.00130868 1.32275e-06 3.47881e-07)
(0.00130622 7.68794e-07 3.03358e-07)
(0.00130336 7.24724e-07 3.60874e-07)
(0.00130096 9.75865e-07 2.55082e-07)
(0.00129873 5.53352e-08 3.1709e-07)
(0.00129647 -1.22307e-07 3.2122e-07)
(0.00129419 8.71368e-08 2.71807e-07)
(0.00129202 1.92189e-08 3.32129e-07)
(0.00128964 -9.36416e-08 3.35927e-07)
(0.00128743 -3.334e-07 3.36119e-07)
(0.0012849 -6.2018e-07 1.98575e-07)
(0.00128219 -6.01343e-07 1.40246e-07)
(0.00127984 -1.48887e-07 3.18911e-07)
(0.00127815 3.07147e-07 4.6553e-07)
(0.001276 6.80428e-07 6.26391e-07)
(0.00127341 7.93229e-07 1.95864e-07)
(0.00127113 3.75478e-07 3.3263e-07)
(0.0012689 2.14389e-07 3.1625e-07)
(0.00126687 2.38354e-07 2.82941e-07)
(0.00126418 6.49389e-07 2.98271e-07)
(0.00126138 3.46438e-07 3.46466e-07)
(0.00125943 4.43695e-07 5.36433e-07)
(-0.00565329 0.0177509 0.000560897)
(-0.0065057 -0.0161988 -0.00367853)
(0.0194026 -0.0689702 0.00208454)
(0.0116327 -0.00341929 -0.00119656)
(0.0136438 0.00365115 0.00932978)
(-0.00141961 0.00751411 -0.00110941)
(0.000435158 0.00277585 7.91687e-05)
(0.00152682 -0.000100703 1.27806e-05)
(0.00143619 -7.32129e-06 7.35538e-07)
(0.00136351 2.6283e-06 4.23363e-07)
(0.00136498 1.39804e-06 3.60255e-07)
(0.00135534 1.12787e-06 3.86737e-07)
(0.00135093 9.8996e-07 5.15638e-07)
(0.00134726 6.90441e-07 3.37497e-07)
(0.00134384 4.85051e-07 3.40984e-07)
(0.00134068 3.67511e-07 3.16829e-07)
(0.00133779 3.275e-07 3.33933e-07)
(0.00133511 1.02606e-07 3.26748e-07)
(0.00133227 2.48611e-07 3.28977e-07)
(0.00132996 3.43518e-07 3.12413e-07)
(0.00132765 -1.66477e-07 3.64488e-07)
(0.00132516 2.18412e-07 5.15177e-07)
(0.00132297 -3.18062e-08 8.03589e-07)
(0.00132038 4.37755e-08 2.41398e-07)
(0.00131791 1.07616e-07 2.50877e-07)
(0.00131559 -1.00574e-07 3.64358e-07)
(0.00131329 3.07303e-07 3.80988e-07)
(0.00131094 5.49852e-07 3.1898e-07)
(0.00130779 8.63328e-07 4.97393e-07)
(0.0013055 1.06849e-06 4.14635e-07)
(0.00130415 5.24357e-07 3.45816e-07)
(0.00130135 4.36653e-08 3.29251e-07)
(0.0012984 3.31456e-07 3.17417e-07)
(0.0012962 1.64413e-07 3.22419e-07)
(0.00129402 2.14078e-07 2.87107e-07)
(0.00129171 -5.53957e-08 3.21411e-07)
(0.00128928 -2.0449e-07 3.50621e-07)
(0.00128673 -2.56896e-07 2.80652e-07)
(0.00128455 -3.63488e-07 3.17447e-07)
(0.00128276 -3.3865e-07 2.59886e-07)
(0.00128068 1.07407e-07 3.16309e-07)
(0.00127837 4.92494e-07 4.53556e-07)
(0.00127606 7.31647e-08 1.20732e-07)
(0.0012734 1.77399e-07 2.97883e-07)
(0.00127103 -1.16914e-07 3.3203e-07)
(0.00126921 -2.62977e-07 3.15641e-07)
(0.00126727 -5.96266e-07 -1.45808e-08)
(0.00126407 -1.27027e-06 2.66937e-07)
(0.00126116 -4.73955e-07 3.56994e-07)
(0.00125885 1.0008e-07 3.36677e-07)
(-0.011063 0.0277631 -0.0853793)
(-0.0106287 -0.0133515 -0.00428482)
(0.0153316 0.0149901 -0.00493933)
(-0.00468669 0.00615673 0.00544183)
(-0.0310141 -0.0157685 0.000824307)
(-0.00677173 -0.000242696 0.00194943)
(0.000183835 -0.00026374 -5.60113e-05)
(0.00144692 3.3538e-05 2.13353e-05)
(0.00142245 3.31409e-05 6.72354e-07)
(0.00135645 1.31372e-05 3.72652e-07)
(0.00136108 8.58394e-06 3.00733e-07)
(0.00135321 4.79647e-06 3.83876e-07)
(0.00134987 3.05197e-06 4.60029e-08)
(0.00134611 1.8155e-06 3.35202e-07)
(0.00134322 1.14021e-06 5.27861e-07)
(0.00134047 6.41451e-07 4.32265e-07)
(0.00133757 4.30766e-07 3.34642e-07)
(0.00133501 4.72757e-07 3.79122e-07)
(0.00133301 1.45306e-07 2.86446e-07)
(0.00132981 6.0525e-07 6.39524e-07)
(0.00132753 7.4355e-07 3.1603e-07)
(0.00132551 5.89775e-07 4.18678e-07)
(0.00132255 4.71822e-07 3.29543e-07)