/*--------------------------------*- C++ -*----------------------------------*\
| =========                 |                                                 |
| \\      /  F ield         | OpenFOAM: The Open Source CFD Toolbox           |
|  \\    /   O peration     | Version:  5.0                                   |
|   \\  /    A nd           | Web:      www.OpenFOAM.org                      |
|    \\/     M anipulation  |                                                 |
\*---------------------------------------------------------------------------*/
FoamFile
{
    version     2.0;
    format      ascii;
    class       volVectorField;
    location    "2.8";
    object      U_0;
}
// * * * * * * * * * * * * * * * * * * * * * * * * * * * * * * * * * * * * * //

dimensions      [0 1 -1 0 0 0 0];

internalField   nonuniform List<vector> 
8647
(
(-0.00484137 -0.00632629 -0.000150686)
(0.00626899 -0.00372636 -1.17338e-06)
(-0.0105027 0.00910724 -0.000584842)
(-0.0119969 -0.00204368 0.000547954)
(0.0147569 -0.00389032 0.000164877)
(-0.00132618 -0.00214472 -7.89373e-05)
(0.00031541 1.54652e-06 1.06199e-05)
(0.000832137 -1.50008e-05 -2.76526e-06)
(0.000824925 -7.30933e-06 1.4557e-07)
(0.000820199 -4.6344e-06 9.83435e-08)
(0.00081801 -2.47893e-06 9.20347e-08)
(0.000815634 -1.47284e-06 7.01103e-08)
(0.000814198 -6.48163e-07 3.33931e-09)
(0.000812762 -3.69317e-07 4.29638e-08)
(0.000810963 -1.57127e-07 5.22254e-08)
(0.000809329 2.17741e-08 5.43015e-08)
(0.000807873 -1.88253e-07 5.46502e-08)
(0.000806252 -1.84154e-07 8.91648e-08)
(0.000804775 -1.34129e-07 6.04484e-08)
(0.000803346 -1.38119e-07 6.90231e-08)
(0.000801957 -1.78909e-07 4.52552e-08)
(0.000800526 -2.45962e-08 2.33761e-08)
(0.000798952 -1.33439e-07 5.03437e-08)
(0.000797453 -6.36623e-08 4.37025e-08)
(0.000796066 7.93818e-08 2.25231e-08)
(0.000794882 1.68759e-07 -1.21403e-08)
(0.000793698 8.1162e-08 4.66537e-08)
(0.000792562 4.97003e-08 4.38885e-08)
(0.00079063 2.05642e-07 4.40057e-08)
(0.000788781 -2.6276e-07 6.48161e-08)
(0.000787776 -6.80023e-07 -6.21663e-08)
(0.000786231 -5.51574e-07 5.20906e-09)
(0.000785019 -4.32797e-07 8.13266e-08)
(0.000784161 -1.38362e-07 5.61258e-08)
(0.000782891 5.50133e-08 3.96373e-08)
(0.000781237 1.58032e-07 5.46931e-08)
(0.000779736 3.18925e-08 4.92635e-08)
(0.000778482 1.45567e-07 2.89517e-08)
(0.000777102 3.49674e-07 -7.19412e-08)
(0.00077599 3.88429e-07 5.79684e-08)
(0.000774775 7.9774e-08 2.67931e-08)
(0.000773242 7.13197e-08 7.17279e-08)
(0.000772337 -5.01473e-07 9.43434e-08)
(0.000770959 -4.13022e-07 2.50717e-07)
(0.00076929 -2.13301e-07 2.43095e-08)
(0.000767968 -2.3825e-07 5.43951e-08)
(0.000766607 -2.90478e-07 6.65853e-08)
(0.000765401 -5.16975e-07 4.06222e-08)
(0.000763708 -2.96663e-07 -2.354e-08)
(0.000761917 -2.16463e-07 6.56757e-08)
(-0.00196 -0.00275878 -0.000879931)
(-0.0135274 -0.0153399 -0.000378524)
(0.0225122 -0.00109238 -0.000298213)
(0.00696906 -0.00201566 -0.00360918)
(0.00231135 0.00210826 0.000158204)
(0.00136261 -0.000817784 -0.000116913)
(0.000441531 -4.3052e-05 2.58716e-05)
(0.000865631 -1.59712e-05 -2.37277e-06)
(0.000831943 1.39456e-05 -1.65938e-07)
(0.000823478 -6.31413e-07 -1.59947e-08)
(0.00082026 3.11819e-08 4.00576e-08)
(0.000817229 -7.10488e-07 3.39843e-08)
(0.000814776 -5.97576e-07 4.52835e-08)
(0.000812617 -3.7344e-07 4.62906e-08)
(0.000811207 -2.96109e-07 5.044e-08)
(0.000809355 -1.42292e-07 3.4075e-08)
(0.000807539 9.97974e-08 5.39139e-08)
(0.000806299 3.17391e-07 7.91406e-08)
(0.000804917 4.81939e-07 7.1609e-08)
(0.000803353 2.32499e-07 2.80163e-08)
(0.000801867 3.07362e-07 9.11767e-08)
(0.000800334 9.58151e-08 -2.96066e-09)
(0.000798899 1.5684e-07 2.47696e-07)
(0.000797814 2.1239e-07 5.35542e-08)
(0.000796459 1.28068e-07 6.78149e-08)
(0.000794797 1.14897e-07 7.55953e-08)
(0.000793308 -6.52201e-08 3.8978e-08)
(0.00079206 -2.46986e-07 4.78972e-08)
(0.000790429 -8.7827e-07 5.15222e-08)
(0.000788653 -4.77014e-07 8.41001e-08)
(0.000787616 -4.14917e-07 1.33018e-07)
(0.000786675 -2.36963e-07 3.61947e-08)
(0.000785484 3.48614e-07 2.00891e-07)
(0.000784292 4.59125e-07 2.73277e-07)
(0.000782824 1.87174e-07 4.70307e-08)
(0.000781318 8.0929e-08 3.9975e-08)
(0.000780053 2.40526e-07 4.20905e-08)
(0.000778795 2.70462e-07 5.2097e-08)
(0.000777363 4.19679e-07 2.77879e-08)
(0.000775742 6.78873e-07 7.35714e-08)
(0.000774332 2.47892e-07 5.67173e-08)
(0.000773015 4.61199e-08 6.23508e-08)
(0.000771741 -1.70765e-07 3.70744e-08)
(0.000770794 -3.91698e-07 1.36064e-07)
(0.000769385 -1.90828e-07 6.90511e-08)
(0.000767879 -1.82395e-07 5.58298e-08)
(0.000766639 -2.85542e-08 6.36032e-08)
(0.000765296 -1.87212e-07 3.64204e-08)
(0.000763716 -3.9886e-07 8.43174e-08)
(0.000762711 -2.54454e-07 2.70342e-08)
(0.00244915 -0.0104052 -0.000510709)
(-0.00146636 0.00350862 0.000697611)
(0.00822652 0.00240463 0.000374187)
(-0.0012459 -0.00775078 0.000502444)
(-0.00256255 0.00343494 -0.000300375)
(0.000516324 -0.00236227 -1.81601e-05)
(0.00109674 2.7431e-05 -1.02245e-05)
(0.000457868 -3.73427e-06 -7.91813e-07)
(0.000865248 9.58735e-06 -1.56672e-06)
(0.000802873 -2.16364e-06 -4.48643e-07)
(0.000817909 -5.62585e-07 1.92809e-07)
(0.000814849 -9.56865e-07 5.50162e-08)
(0.000814624 -9.19994e-07 7.26213e-08)
(0.000813143 -6.0016e-07 5.32184e-08)
(0.000811256 -3.82495e-07 5.38508e-08)
(0.000809825 -4.04243e-07 5.97456e-08)
(0.000808448 -1.67094e-07 5.16445e-08)
(0.000806728 -8.56503e-08 3.15291e-08)
(0.000804667 -1.55719e-07 1.1182e-07)
(0.000803125 -7.34031e-08 3.77264e-08)
(0.000801785 -1.53377e-08 2.87526e-08)
(0.000800335 8.2593e-08 4.72916e-08)
(0.000799095 2.34519e-07 4.97907e-08)
(0.000797414 1.87137e-07 7.59133e-08)
(0.000795942 7.21564e-08 4.53694e-08)
(0.000794639 -1.89086e-08 2.68591e-08)
(0.000793246 -3.99456e-08 6.76299e-08)
(0.00079155 -3.99594e-08 5.75382e-08)
(0.000790347 -7.43601e-08 -6.24927e-08)
(0.000789366 4.34071e-07 6.05395e-08)
(0.000788079 7.3892e-07 8.30762e-08)
(0.000787186 7.06346e-07 6.71311e-08)
(0.000785887 4.26465e-07 2.92244e-07)
(0.000783956 2.96076e-07 1.08665e-07)
(0.000782416 1.11807e-07 8.87172e-08)
(0.000781302 1.24451e-07 4.8522e-08)
(0.000779971 1.16392e-07 5.71154e-08)
(0.000778703 1.66574e-08 5.86658e-08)
(0.000777609 4.48158e-08 3.97988e-08)
(0.000775771 -2.41751e-07 2.60398e-08)
(0.000773982 1.89382e-08 6.43114e-08)
(0.000772719 9.67481e-08 6.62972e-08)
(0.000771793 2.85277e-07 1.88289e-07)
(0.000770938 2.19391e-07 1.00277e-07)
(0.000769556 9.62946e-08 8.06889e-08)
(0.000768172 1.50741e-07 1.23158e-07)
(0.000766602 1.40572e-07 7.16652e-08)
(0.000764939 1.06334e-07 5.20419e-08)
(0.000763631 6.48337e-08 6.79666e-08)
(0.000762731 7.5028e-08 8.9876e-08)
(-0.000669394 0.00192345 -8.48773e-05)
(-0.00611341 -0.00368109 0.00207561)
(0.00805393 -0.00200022 -0.00236238)
(0.00615888 0.000505652 1.83784e-05)
(0.00109007 0.00482697 0.000598376)
(-0.000852343 -0.00278873 0.000173254)
(0.000881043 0.000418949 2.26253e-05)
(0.000467518 -9.33602e-06 -1.47622e-06)
(0.00088193 -1.78391e-05 -1.32753e-06)
(0.000810706 -5.45254e-06 -2.66032e-07)
(0.000821789 -3.05293e-06 1.55143e-07)
(0.000816797 -1.13269e-06 -1.6638e-08)
(0.000815234 -6.20309e-07 6.01712e-08)
(0.000813298 -2.92151e-07 5.31649e-08)
(0.000811458 2.4083e-08 5.00449e-08)
(0.000809628 1.16709e-07 5.04745e-08)
(0.00080794 -1.73721e-07 5.07418e-08)
(0.000806315 -4.12657e-07 4.70051e-08)
(0.000804934 -5.76583e-07 6.64446e-08)
(0.00080353 -5.53222e-07 3.84479e-08)
(0.000802063 -3.12533e-07 7.36574e-08)
(0.000800646 -1.05162e-07 5.03922e-08)
(0.000799029 -1.04355e-07 -1.87446e-08)
(0.00079761 -3.27561e-08 7.23342e-08)
(0.000796201 1.15147e-07 2.65144e-08)
(0.000794657 2.1404e-07 3.08386e-08)
(0.000793282 3.03358e-07 6.19286e-08)
(0.000792017 3.82589e-07 8.29523e-08)
(0.000791019 8.67033e-07 1.50618e-08)
(0.000789666 6.47733e-07 2.55859e-08)
(0.000787951 7.23775e-07 1.97464e-08)
(0.000786279 6.96121e-07 -1.92326e-08)
(0.000784968 2.21001e-07 4.5141e-08)
(0.000783897 -2.65489e-08 5.13321e-08)
(0.000782609 1.03743e-07 4.87438e-08)
(0.000781323 7.04893e-08 2.59134e-07)
(0.000779917 2.74746e-08 2.48502e-07)
(0.000778706 -6.19783e-08 4.85627e-08)
(0.00077704 -4.55147e-07 -5.91972e-09)
(0.00077571 -5.11585e-07 2.97666e-08)
(0.000774755 -4.75232e-08 5.06563e-08)
(0.000773346 1.85752e-07 3.81073e-08)
(0.000771891 6.26022e-07 1.25827e-07)
(0.000770555 5.01227e-07 -6.27222e-08)
(0.000769296 1.73022e-07 -2.51943e-08)
(0.000767932 1.32133e-07 4.06e-08)
(0.000766581 1.89603e-07 4.19163e-08)
(0.0007652 1.64203e-07 1.2069e-08)
(0.000763674 3.21461e-07 4.08657e-08)
(0.000762536 2.42223e-07 4.81476e-08)
(-0.00314736 0.00787578 0.000609514)
(-0.00305396 0.0184967 0.00184539)
(-0.000952609 -0.0249037 0.000877181)
(0.00961906 -0.00307631 9.67754e-05)
(-0.00219425 -0.0116658 -0.000172527)
(-0.00404571 -0.00154834 -5.75707e-05)
(0.000714391 0.000661981 9.43427e-07)
(0.000327437 -1.77616e-05 3.83703e-06)
(0.000863897 -7.19286e-06 -2.05811e-06)
(0.000821591 -3.79323e-07 -2.74864e-07)
(0.000823365 -3.6662e-07 1.12907e-07)
(0.00081792 -6.52255e-08 2.60828e-07)
(0.00081569 2.77149e-07 1.12453e-07)
(0.000813956 8.8867e-08 5.27426e-08)
(0.00081177 -1.41882e-07 1.0245e-08)
(0.00080958 -1.26851e-07 2.89186e-08)
(0.000807788 4.57435e-08 5.079e-08)
(0.000806227 5.80261e-08 5.43908e-08)
(0.000804495 2.62482e-07 6.38893e-08)
(0.000803459 4.47669e-07 -3.53948e-09)
(0.000802348 1.14292e-07 6.74337e-08)
(0.000800598 1.07438e-07 8.5415e-08)
(0.000799188 6.85483e-08 8.73294e-08)
(0.00079769 1.16472e-07 8.36091e-08)
(0.000796251 7.82191e-08 8.85168e-08)
(0.000794873 6.15282e-08 6.42817e-08)
(0.000793454 1.6976e-07 6.63109e-08)
(0.000792249 1.90679e-07 1.9987e-08)
(0.000790672 1.97404e-07 4.84333e-10)
(0.000789179 6.48622e-08 2.77372e-08)
(0.000788132 1.11053e-08 6.8956e-08)
(0.000786552 -2.54784e-07 4.65713e-08)
(0.000784981 1.14111e-07 1.55843e-07)
(0.000783808 7.95252e-08 4.88752e-08)
(0.000782537 1.29337e-07 6.28838e-08)
(0.000781207 -2.0088e-08 4.72973e-08)
(0.000779806 -1.08025e-07 1.1088e-08)
(0.000778101 -8.67377e-08 6.69243e-08)
(0.000777049 -1.4557e-07 1.13462e-07)
(0.000776284 1.47147e-07 -2.01289e-07)
(0.000774854 1.17768e-07 6.03082e-08)
(0.000773559 1.18147e-07 3.95731e-07)
(0.000772182 1.11175e-07 3.14763e-08)
(0.000770367 1.10434e-07 -1.14875e-07)
(0.000769092 3.71656e-08 4.68427e-08)
(0.000768192 -6.52341e-08 4.39494e-08)
(0.000766641 -1.53399e-07 4.80199e-09)
(0.000765102 -2.28793e-07 -1.47159e-08)
(0.000763721 -1.48957e-07 8.07589e-09)
(0.000762029 1.26269e-07 9.3512e-08)
(0.00220862 0.0098479 -0.00152239)
(-0.00505157 0.0135967 -0.000645867)
(-0.00614586 -0.00288708 0.00183346)
(0.00914981 0.00230802 0.00110323)
(-0.0120057 0.00128105 0.000117565)
(0.0141138 -0.00139331 0.000405568)
(0.000718233 -6.78864e-05 1.36636e-05)
(0.000402354 6.11924e-06 1.00005e-05)
(0.000858679 1.50812e-05 -2.08204e-06)
(0.00081914 5.0421e-06 -3.02871e-07)
(0.000822207 3.49178e-06 1.30157e-07)
(0.000817616 1.88507e-06 4.18195e-08)
(0.000815434 1.37413e-06 7.9677e-08)
(0.000812778 6.904e-07 4.90849e-08)
(0.000811192 2.39505e-07 9.39005e-08)
(0.000809865 3.82705e-08 7.74891e-08)
(0.000808173 1.00859e-07 5.15531e-08)
(0.000806586 2.69547e-07 6.90682e-08)
(0.00080542 2.33645e-07 2.72239e-08)
(0.000803343 6.43187e-07 1.46734e-07)
(0.000801636 4.03552e-07 2.01835e-08)
(0.000800588 2.4334e-07 3.56736e-07)
(0.000799039 1.99576e-07 1.3915e-07)
(0.000797621 1.06262e-07 6.442e-08)
(0.000796132 1.07722e-07 -3.4899e-08)
(0.000794771 5.30745e-08 5.54428e-08)
(0.000793442 -5.60112e-08 1.04354e-07)
(0.00079205 -1.65775e-07 2.00776e-08)
(0.00079086 -1.72771e-07 4.22295e-08)
(0.000789431 -2.84977e-07 7.52024e-08)
(0.00078755 -4.97156e-07 -1.0063e-08)
(0.000786407 -3.93471e-07 -2.41051e-08)
(0.000785385 -2.84038e-07 1.32443e-08)
(0.000783914 -1.5559e-07 5.15886e-08)
(0.000782483 -2.04408e-07 5.83113e-08)
(0.000781026 -7.90576e-08 2.44881e-07)
(0.000779835 -6.87481e-08 7.61653e-08)
(0.00077866 1.08311e-07 1.02638e-07)
(0.000777333 3.56713e-07 1.1728e-07)
(0.000776039 2.02648e-07 5.3763e-08)
(0.000774718 1.40659e-07 6.0475e-08)
(0.000773337 3.1842e-07 1.573e-07)
(0.00077188 -4.45336e-08 4.91993e-08)
(0.000770463 -1.46822e-07 4.9916e-08)
(0.000769077 -1.38392e-08 3.8472e-08)
(0.000767696 -2.14506e-07 4.56989e-08)
(0.00076638 -6.48623e-07 -3.42989e-07)
(0.000765208 -5.70012e-07 -1.47213e-07)
(0.000764118 -5.03253e-07 9.40998e-08)
(0.000762564 -1.75009e-07 1.91994e-07)
(0.00273708 -0.00631841 -0.0144369)
(0.0227756 0.00325706 -0.00244777)
(-0.0224474 -0.00698797 -0.00685827)
(0.0286365 0.00312043 0.00103531)
(0.0018546 0.00370999 0.000315415)
(0.000478907 0.00024788 6.55401e-06)
(0.000825632 -0.000793248 3.46358e-05)
(0.000513888 2.18571e-05 4.06401e-06)
(0.000878704 2.1554e-05 -1.42314e-06)
(0.00080728 9.05417e-06 -5.02517e-07)
(0.000819396 5.25712e-06 1.57649e-07)
(0.000815257 2.96837e-06 2.52662e-08)
(0.000814188 1.51206e-06 5.47181e-08)
(0.000812533 9.44843e-07 5.19909e-08)
(0.000810953 6.75044e-07 5.21398e-08)
(0.000809406 4.76618e-07 5.55816e-08)
(0.000808076 2.90854e-07 5.11571e-08)
(0.000806392 2.90745e-07 3.91487e-08)
(0.000804959 2.60602e-07 1.50299e-07)
(0.000803668 -2.11751e-07 4.62778e-08)
(0.000801844 1.49105e-07 6.08836e-08)
(0.00080034 4.97691e-08 5.07395e-08)
(0.000799014 1.0131e-07 4.1819e-08)
(0.000797574 2.37676e-08 4.55867e-08)
(0.000796183 6.25085e-08 1.29623e-07)
(0.000794668 1.50197e-07 1.87599e-07)
(0.000793181 -5.20028e-08 6.75061e-08)
(0.000792104 -3.97979e-08 6.42177e-08)
(0.000790525 -4.06351e-07 4.96619e-08)
(0.000788776 -6.86383e-07 1.25322e-08)
(0.000788001 -3.07144e-07 1.34143e-07)
(0.000786822 -4.14596e-08 1.7221e-07)
(0.000785281 -9.04252e-08 6.54494e-08)
(0.00078391 -1.04608e-07 5.38561e-08)
(0.000782634 -1.28854e-07 1.42833e-07)
(0.000781377 -1.17033e-08 5.31213e-08)
(0.000780041 7.4522e-08 3.77001e-08)
(0.000778633 1.43798e-08 3.44189e-08)
(0.000777166 6.2385e-08 4.76803e-08)
(0.000776012 1.4875e-07 -5.99115e-08)
(0.000774998 -3.80923e-08 4.10174e-08)
(0.000773327 -2.40637e-07 -3.08002e-08)
(0.000771601 -1.21658e-07 3.94195e-08)
(0.000770406 -1.11839e-07 5.18284e-08)
(0.000769009 -9.1879e-08 3.88683e-09)
(0.000767401 -3.4712e-08 4.95331e-08)
(0.000766201 -9.59814e-08 3.62689e-08)
(0.000765289 -3.86049e-07 6.35584e-08)
(0.000764224 -2.69021e-07 2.35049e-08)
(0.000762875 -3.49305e-07 8.29738e-08)
(-0.00457948 -0.00312951 0.000277336)
(0.0018365 0.0042833 0.00016381)
(-0.00504591 -0.0146313 -3.35554e-05)
(0.0095632 0.00517068 -0.000157244)
(-0.00820256 -0.00180424 -0.000142579)
(0.0052833 0.0106925 -0.000124231)
(0.000982723 6.61298e-05 0.000106179)
(0.000455645 3.81e-05 1.0118e-06)
(0.000856304 -1.59495e-06 -1.21477e-06)
(0.000798494 5.84318e-06 -4.33473e-07)
(0.000814536 2.26112e-06 1.74557e-07)
(0.000812899 1.61424e-06 4.12081e-08)
(0.000812885 9.77083e-07 5.99247e-08)
(0.000811721 5.84616e-07 5.38677e-08)
(0.000810599 3.1388e-07 5.73735e-08)
(0.00080938 2.12595e-07 5.3431e-08)
(0.000807937 3.22265e-08 1.22074e-07)
(0.000806545 -8.7607e-08 5.54265e-08)
(0.00080479 -7.30078e-09 8.62783e-08)
(0.000803202 -8.27233e-08 4.02032e-08)
(0.000801963 -2.11646e-07 4.82941e-08)
(0.000800528 -6.71878e-08 5.34623e-08)
(0.000799007 -2.47108e-07 3.27434e-08)
(0.000797572 -1.65357e-07 4.86632e-08)
(0.000796289 -3.12045e-07 5.72092e-08)
(0.000794627 -3.42797e-07 5.15874e-08)
(0.000793205 -8.62502e-08 -4.89075e-08)
(0.000791609 -6.89279e-08 7.46057e-08)
(0.000790056 -2.14691e-07 4.52468e-08)
(0.000789561 3.1773e-07 9.25758e-08)
(0.000788361 4.44591e-07 8.88594e-08)
(0.00078668 1.97811e-07 2.81929e-07)
(0.000785307 2.977e-07 4.90579e-08)
(0.000783867 1.21549e-07 4.41311e-08)
(0.0007826 1.01781e-07 4.35216e-08)
(0.000781281 -9.76457e-08 5.06577e-08)
(0.000779868 -1.09843e-07 2.99352e-08)
(0.000778645 -1.55932e-07 4.98749e-08)
(0.0007775 6.98232e-08 4.13389e-08)
(0.000775913 1.07464e-07 1.11341e-07)
(0.000774231 -5.91139e-08 1.81666e-08)
(0.000773234 -1.57176e-07 6.67631e-08)
(0.000772043 -1.50161e-07 5.25555e-08)
(0.000770501 -1.89184e-07 4.83162e-08)
(0.000769175 -5.15812e-08 5.33892e-08)
(0.000767692 1.2569e-07 4.41531e-08)
(0.000765942 4.53822e-07 5.36457e-08)
(0.000764994 5.96984e-07 7.39866e-08)
(0.000764173 2.1644e-07 3.43255e-08)
(0.000763335 -5.21856e-08 9.4816e-08)
(-0.001823 -0.00361609 0.00049844)
(-0.00596114 -0.000494626 0.00070923)
(-0.0098975 -0.0134719 -0.00168163)
(-1.40112e-05 -0.00159079 -0.000665311)
(-0.00632093 -0.00736536 -0.000811779)
(0.00194194 0.00748071 -5.53914e-05)
(0.000682421 6.13218e-05 6.03633e-06)
(0.000811662 1.78595e-05 -2.37922e-06)
(0.000812057 -1.69876e-05 9.12537e-08)
(0.000812194 -1.87862e-06 2.7149e-08)
(0.000814063 -1.84895e-06 6.45865e-08)
(0.000813626 -4.73433e-07 4.84657e-08)
(0.000812884 -2.21052e-07 4.50699e-08)
(0.000811694 -6.42323e-08 5.08875e-08)
(0.000810482 6.46032e-09 5.26508e-08)
(0.000809051 3.27014e-08 1.15373e-07)
(0.0008077 1.87493e-08 7.83565e-08)
(0.000806342 -7.89669e-08 1.72215e-08)
(0.000804966 -2.33236e-07 5.30104e-08)
(0.000803414 -2.43955e-08 8.11016e-08)
(0.000801865 -6.91506e-08 6.72308e-08)
(0.000800298 -2.15204e-07 6.6289e-08)
(0.000798893 -2.70938e-07 5.95639e-08)
(0.000797495 -2.63714e-07 5.24556e-08)
(0.000795965 -2.92266e-07 2.97342e-08)
(0.000794953 -3.61576e-07 5.89862e-08)
(0.000793525 -1.58974e-07 1.73158e-08)
(0.000791945 -1.60622e-07 7.53506e-08)
(0.000791009 7.76653e-08 6.79032e-08)
(0.000789599 4.5021e-07 3.12693e-08)
(0.000787848 2.37141e-07 3.79881e-08)
(0.000786636 1.41471e-07 4.35746e-08)
(0.000785184 -1.73541e-08 7.14831e-08)
(0.000783664 -1.3263e-07 6.24285e-08)
(0.00078236 -1.67303e-07 2.59172e-08)
(0.000781113 -2.50691e-07 7.65214e-08)
(0.000779969 -1.14781e-07 -3.85087e-08)
(0.000778858 -8.9866e-08 5.13886e-08)
(0.000777495 -3.11305e-07 8.10536e-08)
(0.00077585 -4.42575e-07 3.87011e-08)
(0.000774667 -1.78388e-07 4.12762e-08)
(0.000773214 -4.55781e-08 2.08151e-08)
(0.000771563 2.26679e-07 4.66156e-08)
(0.000770531 1.95036e-07 4.98544e-08)
(0.000769403 1.7172e-07 4.32796e-08)
(0.000768032 1.87455e-07 5.46118e-08)
(0.000766787 3.99286e-07 3.38526e-08)
(0.000764989 1.02548e-06 2.70414e-08)
(0.000763412 6.49807e-07 -1.0083e-07)
(0.000762667 3.64472e-07 8.99169e-08)
(-0.0068862 -0.00546219 0.000106475)
(-0.000839026 -0.00464798 -3.64909e-05)
(0.0056736 -0.00199813 -0.00117723)
(-0.00194569 -0.00123463 0.000411298)
(-0.0035832 -0.012848 0.000345673)
(0.000513174 -0.00466615 -0.000124108)
(0.000416094 -1.21807e-05 2.98735e-05)
(0.000831056 -1.53898e-05 -2.66337e-06)
(0.000818552 -9.10411e-06 2.66349e-08)
(0.000817411 -4.79896e-06 3.68443e-08)
(0.000816291 -2.73119e-06 9.97421e-08)
(0.000814932 -1.65612e-06 5.43607e-08)
(0.000813392 -1.13332e-06 3.68775e-07)
(0.000812002 -6.09424e-07 -2.26954e-07)
(0.000810718 -2.81359e-07 5.54129e-08)
(0.000809393 -2.25282e-07 6.65739e-08)
(0.000807796 -5.91616e-08 4.80725e-08)
(0.00080623 -8.66738e-08 5.16113e-08)
(0.000804859 -1.31699e-07 9.99943e-08)
(0.000803408 -2.39741e-07 1.90588e-08)
(0.000801725 -1.86735e-07 5.17286e-08)
(0.000800277 -1.66805e-07 8.73552e-08)
(0.000798948 -4.95246e-09 5.72101e-08)
(0.000797549 -1.20539e-07 4.13628e-08)
(0.00079617 -3.88917e-08 6.96475e-08)
(0.000794797 -3.92139e-08 5.82854e-08)
(0.000793459 -9.58768e-08 1.88974e-07)
(0.000791906 9.91006e-08 4.90765e-08)
(0.000790819 3.98699e-07 -3.41435e-09)
(0.000789758 -2.03472e-07 9.24841e-08)
(0.000787972 -2.56293e-07 8.71932e-08)
(0.000786361 -2.63498e-07 5.09816e-08)
(0.000784965 -5.83277e-07 2.77478e-08)
(0.000783681 -3.98535e-07 1.84581e-08)
(0.000782454 -1.8829e-07 3.90535e-08)
(0.000781348 2.5285e-08 6.41052e-08)
(0.00078007 -8.94096e-08 7.56598e-09)
(0.0007784 -1.60863e-07 4.54019e-08)
(0.000777062 -3.91068e-07 7.55041e-09)
(0.000776082 -4.77399e-07 5.5427e-08)
(0.00077473 -2.81914e-07 6.57447e-08)
(0.00077374 -3.93116e-07 9.72693e-08)
(0.000772344 -2.60562e-07 4.17062e-08)
(0.000770431 2.26476e-07 2.0479e-08)
(0.000769164 8.32263e-08 4.04756e-08)
(0.000767974 1.39078e-07 4.57852e-08)
(0.000766985 3.37526e-08 1.76156e-08)
(0.000765301 -3.96222e-09 1.54697e-08)
(0.000763333 3.64212e-07 -1.76639e-08)
(0.000762071 2.39426e-07 7.1539e-08)
(-0.0121384 -0.0206577 -0.00366096)
(0.0144091 0.0146146 0.000769482)
(-0.0113227 -0.00464329 -0.00195524)
(0.000678848 -0.028696 6.2143e-05)
(-0.0184499 -0.0072387 0.00127813)
(0.00695123 -0.00684056 -0.00102386)
(0.00137649 7.33002e-06 -2.49874e-05)
(0.00138733 -2.21767e-05 3.21682e-07)
(0.00137455 -1.04028e-05 3.42929e-07)
(0.00136684 -6.67387e-06 4.02811e-07)
(0.00136345 -3.5017e-06 2.20119e-07)
(0.00135972 -2.09377e-06 3.48866e-07)
(0.00135754 -8.84118e-07 2.59509e-07)
(0.00135519 -4.46471e-07 5.44145e-08)
(0.00135222 -1.84293e-07 3.43037e-07)
(0.00134953 8.52169e-08 2.98547e-07)
(0.00134708 -2.81953e-07 3.38546e-07)
(0.00134439 -2.77108e-07 3.38047e-07)
(0.00134189 -2.11202e-07 3.69864e-07)
(0.00133945 -2.32027e-07 3.11601e-07)
(0.00133713 -2.75162e-07 3.76288e-07)
(0.00133468 3.17831e-08 8.15425e-08)
(0.00133198 -1.33349e-07 3.20554e-07)
(0.00132948 -5.38007e-08 2.86894e-07)
(0.00132713 2.21764e-07 2.46614e-07)
(0.00132504 4.03824e-07 2.40583e-07)
(0.00132297 2.03783e-07 2.67897e-07)
(0.00132104 9.58638e-08 3.2996e-07)
(0.00131781 3.21797e-07 3.48231e-07)
(0.00131467 -4.91193e-07 3.52741e-07)
(0.00131288 -1.16832e-06 2.34651e-07)
(0.00131023 -9.52611e-07 1.6367e-07)
(0.00130817 -7.05809e-07 3.66561e-07)
(0.00130672 -1.897e-07 3.24782e-07)
(0.00130457 1.44092e-07 3.15634e-07)
(0.00130174 2.97182e-07 3.30083e-07)
(0.00129911 4.44478e-08 3.20899e-07)
(0.00129686 2.73651e-07 2.83176e-07)
(0.00129465 6.60239e-07 8.42575e-08)
(0.00129283 6.46866e-07 3.40658e-07)
(0.00129067 1.30066e-07 2.83246e-07)
(0.00128808 8.7583e-08 3.4873e-07)
(0.0012866 -8.12109e-07 3.40249e-07)
(0.00128416 -6.69081e-07 7.29059e-07)
(0.00128134 -3.78564e-07 3.11768e-07)
(0.00127913 -4.13504e-07 3.41844e-07)
(0.0012768 -4.33004e-07 3.10147e-07)
(0.00127484 -7.92611e-07 3.05689e-07)
(0.00127199 -5.0225e-07 2.12243e-07)
(0.00126899 -3.87584e-07 3.43843e-07)
(-0.0196516 0.00139622 -0.00170157)
(-0.0207208 0.0247206 0.0163228)
(0.0197715 0.0141368 0.0461056)
(0.01297 -0.0139542 0.00799213)
(0.00242862 -0.00148089 -0.0012822)
(-0.000318606 -0.00292525 -0.000265128)
(0.00108097 -3.09961e-05 4.56616e-05)
(0.00143912 -2.41388e-05 3.82331e-07)
(0.0013847 2.40265e-05 4.09984e-07)
(0.00137151 -6.23326e-07 3.63581e-07)
(0.00136679 2.19182e-07 3.41379e-07)
(0.00136215 -1.09761e-06 3.41046e-07)
(0.00135833 -9.68791e-07 4.33482e-07)
(0.00135487 -6.56019e-07 3.37139e-07)
(0.0013526 -5.14315e-07 3.37824e-07)
(0.00134956 -2.75704e-07 2.73127e-07)
(0.00134658 1.30418e-07 3.37305e-07)
(0.00134449 4.77003e-07 4.03362e-07)
(0.00134212 7.74443e-07 3.37379e-07)
(0.00133948 3.80178e-07 3.08426e-07)
(0.00133698 5.20771e-07 3.95079e-07)
(0.00133438 1.80413e-07 2.93199e-07)
(0.0013319 3.46782e-07 5.32096e-07)
(0.00133007 4.35919e-07 5.65063e-07)
(0.00132778 2.70181e-07 3.21562e-07)
(0.00132488 2.1527e-07 3.42002e-07)
(0.0013223 -6.7534e-08 3.0297e-07)
(0.00132017 -4.03592e-07 3.2891e-07)
(0.0013174 -1.46777e-06 3.89315e-07)
(0.00131443 -8.15019e-07 3.38001e-07)
(0.00131267 -6.85434e-07 3.63132e-07)
(0.00131102 -3.97992e-07 2.94487e-07)
(0.00130899 6.67184e-07 6.44447e-07)
(0.00130695 8.17797e-07 7.34348e-07)
(0.00130443 3.25619e-07 3.34862e-07)
(0.00130184 1.29812e-07 3.35531e-07)
(0.00129966 3.84358e-07 3.14661e-07)
(0.00129755 4.84101e-07 3.61991e-07)
(0.00129504 7.90794e-07 3.30641e-07)
(0.00129225 1.0786e-06 3.27567e-07)
(0.00128988 3.8715e-07 3.37244e-07)
(0.00128764 3.21368e-08 3.6102e-07)
(0.00128548 -2.97779e-07 2.64571e-07)
(0.0012839 -7.48427e-07 4.29658e-07)
(0.00128157 -3.3625e-07 3.73025e-07)
(0.00127907 -3.48321e-07 3.42207e-07)
(0.00127697 5.5666e-09 4.65361e-07)
(0.00127464 -2.70967e-07 3.08418e-07)
(0.00127202 -6.22308e-07 3.63596e-07)
(0.0012703 -4.26311e-07 2.20308e-07)
(0.00178403 -0.00689606 -0.0102077)
(-0.0199209 -0.00482503 0.00388382)
(0.00657306 0.00410669 0.000757829)
(0.00561316 -0.00346286 0.000986445)
(0.00297699 0.00510979 -0.000611332)
(0.000969547 -0.00178489 -7.20547e-05)
(0.000901 -0.000159245 -3.64638e-05)
(0.00136073 -1.36669e-05 6.1665e-07)
(0.00143982 1.44774e-05 -2.38116e-07)
(0.00133722 -4.41862e-06 3.3399e-07)
(0.00136285 -1.50047e-06 3.41676e-07)
(0.00135824 -1.93969e-06 3.40164e-07)
(0.0013581 -1.74992e-06 3.39817e-07)
(0.00135577 -1.13768e-06 3.39254e-07)
(0.0013527 -7.33215e-07 3.38221e-07)
(0.00135034 -7.2677e-07 3.3702e-07)
(0.00134803 -3.19427e-07 3.38742e-07)
(0.00134519 -1.80387e-07 2.32167e-07)
(0.00134176 -3.13478e-07 4.80571e-07)
(0.00133913 -1.48803e-07 3.20021e-07)
(0.00133688 -4.52639e-08 2.67629e-07)
(0.00133446 1.21541e-07 3.29273e-07)
(0.0013323 3.84541e-07 3.5262e-07)
(0.00132938 3.5849e-07 2.95457e-07)
(0.00132685 9.07315e-08 3.38898e-07)
(0.00132461 -4.27768e-08 2.99908e-07)
(0.0013222 -4.65606e-08 3.14209e-07)
(0.0013193 -2.48543e-08 3.18678e-07)
(0.0013173 -8.95036e-08 1.15247e-07)
(0.00131566 7.71959e-07 3.10211e-07)
(0.0013134 1.24229e-06 3.26069e-07)
(0.00131192 1.1722e-06 3.26091e-07)
(0.00130968 7.10519e-07 8.00316e-07)
(0.00130629 4.8677e-07 4.13001e-07)
(0.0013037 1.57552e-07 3.72872e-07)
(0.00130181 1.80714e-07 3.17306e-07)
(0.00129955 1.98136e-07 2.8487e-07)
(0.00129736 2.91023e-08 3.58e-07)
(0.00129539 3.90898e-08 3.29372e-07)
(0.00129232 -3.53688e-07 3.0792e-07)
(0.00128936 2.44288e-08 3.53782e-07)
(0.00128723 1.75522e-07 3.55865e-07)
(0.00128563 5.38232e-07 4.65751e-07)
(0.00128412 4.78001e-07 3.46403e-07)
(0.00128184 2.99205e-07 3.11391e-07)
(0.00127956 3.54087e-07 4.20653e-07)
(0.0012769 2.82681e-07 3.24387e-07)
(0.00127406 2.43566e-07 1.75865e-07)
(0.00127181 1.28235e-07 3.41098e-07)
(0.0012703 1.33332e-07 3.43681e-07)
(0.00251319 -0.000710536 -3.39743e-05)
(-0.0103065 0.00484259 -0.00265541)
(-0.00395808 -0.00415926 0.0176364)
(-0.0164217 0.0167353 0.00703691)
(0.00590041 0.0109884 0.00213435)
(-0.00259053 0.00875667 -0.00461702)
(0.00200365 0.00258787 7.3406e-05)
(0.00139078 -3.94647e-05 2.15786e-06)
(0.00146944 -3.29034e-05 3.16155e-07)
(0.0013514 -1.10125e-05 5.51434e-07)
(0.00136993 -6.20898e-06 3.44641e-07)
(0.00136187 -2.54963e-06 3.0973e-07)
(0.00135935 -1.42182e-06 3.39629e-07)
(0.00135616 -7.27991e-07 3.39255e-07)
(0.00135312 -1.25037e-07 3.37755e-07)
(0.00135009 9.54273e-08 3.36729e-07)
(0.00134727 -3.26158e-07 3.35561e-07)
(0.00134451 -6.61488e-07 3.93143e-07)
(0.00134217 -9.46756e-07 3.62704e-07)
(0.00133982 -8.93644e-07 3.13799e-07)
(0.00133732 -5.19849e-07 3.59245e-07)
(0.00133492 -2.16903e-07 3.33233e-07)
(0.00133219 -2.47768e-07 2.50118e-07)
(0.0013297 -1.19685e-07 4.09675e-07)
(0.00132728 1.36195e-07 2.7362e-07)
(0.00132471 3.18237e-07 2.69558e-07)
(0.00132232 4.98587e-07 3.95271e-07)
(0.00132012 7.05032e-07 4.17163e-07)
(0.00131839 1.53226e-06 3.007e-07)
(0.00131609 1.15083e-06 4.85744e-07)
(0.00131316 1.24662e-06 3.12637e-07)
(0.00131035 1.23254e-06 -3.84307e-08)
(0.00130813 3.8008e-07 3.23111e-07)
(0.00130625 -3.85474e-08 3.29162e-07)
(0.00130405 1.70919e-07 2.77505e-07)
(0.00130189 1.0627e-07 5.70166e-07)
(0.00129947 1.87328e-08 5.56362e-07)
(0.00129735 -1.32893e-07 3.31892e-07)
(0.00129456 -7.52681e-07 1.96449e-07)
(0.00129223 -8.34078e-07 2.80766e-07)
(0.00129054 -7.35966e-08 2.73547e-07)
(0.00128828 3.77587e-07 3.11441e-07)
(0.00128585 1.04608e-06 4.72863e-07)
(0.0012836 8.65869e-07 1.48542e-07)
(0.0012814 3.23644e-07 2.61437e-07)
(0.00127905 2.31123e-07 3.19155e-07)
(0.00127682 2.7721e-07 3.10493e-07)
(0.00127445 2.76309e-07 7.13217e-08)
(0.00127187 4.94024e-07 3.12374e-07)
(0.00126998 4.16375e-07 2.35168e-07)
(-0.0047842 0.00517251 0.00327146)
(-0.00705394 -0.0170596 -0.00397155)
(0.0246913 -0.0770562 0.00326379)
(0.0148823 -0.00385383 -0.000860212)
(0.0171035 -0.00254434 0.0103297)
(-0.00174628 0.00840448 -0.00142726)
(0.000425246 0.00277824 7.56576e-05)
(0.00153305 -0.000114367 1.27715e-05)
(0.0014428 -1.51564e-05 7.43064e-07)
(0.00137102 -2.55385e-06 3.9624e-07)
(0.00137353 -1.72656e-06 3.66148e-07)
(0.00136428 -7.83179e-07 1.05029e-06)
(0.0013604 4.78566e-08 3.40309e-07)
(0.0013574 -8.96783e-08 3.39334e-07)
(0.00135373 -3.46097e-07 3.41946e-07)
(0.00135009 -2.66284e-07 3.43535e-07)
(0.00134708 2.80983e-08 3.36449e-07)
(0.00134442 3.69732e-08 3.329e-07)
(0.00134148 3.93776e-07 3.45056e-07)
(0.00133967 6.97745e-07 1.68761e-07)
(0.00133773 1.53063e-07 3.66406e-07)
(0.0013348 1.92016e-07 3.59937e-07)
(0.00133242 9.7709e-08 3.77722e-07)
(0.00132987 1.40397e-07 3.52712e-07)
(0.0013274 1.2165e-07 2.77186e-07)
(0.00132507 3.86163e-08 3.66934e-07)
(0.00132268 2.66794e-07 3.83099e-07)
(0.00132058 3.39141e-07 3.09942e-07)
(0.00131785 4.16473e-07 2.68697e-07)
(0.00131529 2.2917e-07 3.07941e-07)
(0.00131349 8.95352e-08 2.90628e-07)
(0.00131083 -3.64051e-07 3.03177e-07)
(0.00130809 2.53585e-07 4.5668e-07)
(0.00130603 1.59624e-07 3.27459e-07)
(0.00130388 2.40382e-07 3.34918e-07)
(0.00130162 -3.08837e-08 3.24503e-07)
(0.00129926 -2.1754e-07 1.6057e-07)
(0.0012964 -1.89197e-07 3.19991e-07)
(0.00129452 -2.87634e-07 4.64644e-07)
(0.00129318 1.52774e-07 -2.11144e-07)
(0.00129087 2.01415e-07 3.33226e-07)
(0.00128862 2.58296e-07 9.23348e-07)
(0.00128623 1.71708e-07 2.76544e-07)
(0.00128321 1.48817e-07 -1.21043e-07)
(0.00128104 -5.64675e-08 3.72493e-07)
(0.0012795 -1.7801e-07 3.19426e-07)
(0.00127696 -3.76228e-07 2.01985e-07)
(0.00127433 -5.29526e-07 -5.28875e-08)
(0.00127197 -2.74369e-07 3.19481e-07)
(0.00126917 2.08683e-07 4.32262e-07)
(-0.0187482 -0.0124915 -0.00644688)
(-0.00568549 -0.00356412 -0.00276848)
(0.0111349 0.0117879 -0.00223827)
(-0.0046709 0.00432052 0.00729154)
(-0.0272627 -0.0123099 0.000587048)
(-0.00529163 0.000572418 0.00214267)
(0.00019519 -0.000344037 -5.70743e-05)
(0.00146768 2.67342e-05 2.14831e-05)
(0.00143588 2.36602e-05 6.78397e-07)
(0.00136799 7.51477e-06 2.67119e-07)
(0.00137219 5.23987e-06 3.14679e-07)
(0.00136411 2.76334e-06 3.19416e-07)
(0.00136023 2.04663e-06 3.46133e-07)
(0.00135568 1.02146e-06 3.38368e-07)
(0.00135291 3.54026e-07 3.469e-07)
(0.00135056 5.06951e-08 3.55722e-07)
(0.00134765 1.50343e-07 3.36696e-07)
(0.00134496 4.12942e-07 3.7797e-07)
(0.00134299 3.56757e-07 3.08962e-07)
(0.00133951 1.01799e-06 5.47915e-07)
(0.00133669 6.73758e-07 2.46641e-07)
(0.00133485 4.32602e-07 9.30961e-07)