/*--------------------------------*- C++ -*----------------------------------*\
| =========                 |                                                 |
| \\      /  F ield         | OpenFOAM: The Open Source CFD Toolbox           |
|  \\    /   O peration     | Version:  5.0                                   |
|   \\  /    A nd           | Web:      www.OpenFOAM.org                      |
|    \\/     M anipulation  |                                                 |
\*---------------------------------------------------------------------------*/
FoamFile
{
    version     2.0;
    format      ascii;
    class       surfaceVectorField;
    location    "2.8";
    object      Uf;
}
// * * * * * * * * * * * * * * * * * * * * * * * * * * * * * * * * * * * * * //

dimensions      [0 1 -1 0 0 0 0];

internalField   nonuniform List<vector> 
25822
(
(0.00279191 -0.00352402 1.97427e-05)
(-0.00149493 -0.00711095 -0.000551933)
(-0.00942539 -0.0152175 -0.00480471)
(0.0054455 -0.00678355 0.000954983)
(0.0101061 0.00139075 0.000341676)
(0.0187982 0.0017758 0.000773977)
(-0.00297982 -0.0118855 -0.0146837)
(-0.00945042 -0.0147822 0.0181966)
(-0.00352797 -0.0072477 -0.00213904)
(-0.00458345 -0.00426885 0.000600512)
(-0.00516614 -0.00245708 -0.000328052)
(0.00498779 -0.000508984 0.00147276)
(0.00236929 -0.00263312 0.000803246)
(0.00560011 -0.00457022 0.000740073)
(0.0103566 0.00152821 0.000354022)
(-0.00529 0.0107051 -0.000385718)
(-0.00013884 0.0132639 -0.000367863)
(-0.0100224 0.0103289 -0.00113379)
(-0.0130026 0.00333878 0.000481464)
(-0.0114282 -0.00318691 -0.00052489)
(-0.00413847 -0.00294706 -4.62787e-05)
(-0.00200312 -0.0127136 0.000974288)
(-0.00195143 0.00423386 0.00021743)
(0.00808097 -0.00314832 0.000379941)
(0.0104313 -0.00213455 0.00042854)
(0.0028212 -0.00761084 0.000571939)
(0.0132034 -0.00337015 -0.000734687)
(9.44455e-06 -0.00233992 0.000132931)
(-0.000346411 -0.000696532 5.47048e-07)
(-0.000666994 -8.65513e-06 -6.11833e-05)
(-0.000626802 -0.0039706 -0.000254354)
(0.000455407 7.51686e-06 2.51826e-05)
(0.000327046 -5.15042e-06 7.96574e-06)
(0.00044601 -4.96161e-06 1.94062e-05)
(0.00023027 -5.19728e-06 3.88295e-06)
(0.000825251 -1.40914e-05 -1.24715e-06)
(0.000847211 -1.67775e-05 -2.5203e-06)
(0.00111284 -2.29981e-05 -1.60808e-06)
(0.000595203 -1.03591e-05 -4.58827e-06)
(0.000592958 -1.32798e-05 -4.54508e-06)
(0.00102525 -1.57822e-05 -5.13191e-06)
(0.00101974 -2.31278e-05 -4.94298e-06)
(0.0008159 -8.54897e-06 8.91493e-08)
(0.000822522 -2.34251e-06 -2.95535e-08)
(0.00109339 -1.30683e-05 1.92837e-07)
(0.000813012 -5.39119e-06 9.0626e-08)
(0.000815922 -5.44613e-06 6.49086e-08)
(0.00108604 -8.63354e-06 1.89888e-07)
(0.000810295 -3.18803e-06 8.95142e-08)
(0.000813046 -3.27945e-06 7.66309e-08)
(0.00108291 -5.02796e-06 1.80635e-07)
(0.000808594 -1.76469e-06 3.21293e-08)
(0.000810271 -2.05525e-06 4.57393e-08)
(0.00107981 -3.03885e-06 1.86785e-07)
(0.000807191 -8.23489e-07 4.39959e-08)
(0.000808293 -1.51957e-06 1.49161e-08)
(0.00107802 -1.43087e-06 1.7481e-07)
(0.0008051 -4.45159e-07 6.67557e-08)
(0.000806278 -1.33797e-06 6.33752e-08)
(0.00107572 -6.49449e-07 1.58616e-07)
(0.000803561 -2.46805e-07 3.25473e-08)
(0.000804575 -5.08211e-07 4.85551e-08)
(0.0010732 -4.69397e-07 1.78005e-07)
(0.000802228 -2.03529e-07 3.42552e-08)
(0.000802958 -4.28484e-07 2.56943e-08)
(0.00107133 -1.32429e-07 1.70589e-07)
(0.000800703 -2.59193e-07 6.55754e-08)
(0.000801368 -1.5131e-07 5.33945e-08)
(0.00106944 -3.70709e-07 1.75142e-07)
(0.000799129 -1.96052e-07 7.21721e-08)
(0.000799969 -2.37392e-07 7.82921e-08)
(0.00106735 -2.9375e-07 1.59161e-07)
(0.000797629 -2.09348e-07 6.94621e-08)
(0.000798489 -4.13699e-07 5.76349e-08)
(0.0010653 -2.11957e-07 1.82712e-07)
(0.000796106 -2.97165e-07 6.838e-08)
(0.000796938 4.4213e-08 5.10823e-08)
(0.00106326 -3.26995e-07 1.35529e-07)
(0.000795034 -2.26502e-07 7.31588e-08)
(0.000795564 1.98378e-07 3.85667e-08)
(0.00106159 -4.20804e-07 1.97573e-07)
(0.000793458 -1.7775e-07 6.50025e-08)
(0.000794079 2.06659e-07 7.19508e-08)
(0.0010598 -1.01593e-07 1.84132e-07)
(0.000791897 -1.93262e-07 4.5344e-08)
(0.000792566 -3.23942e-08 3.72486e-08)
(0.00105762 -2.71436e-07 1.63799e-07)
(0.000790467 -8.13852e-08 3.04848e-08)
(0.000791326 -2.38116e-07 3.98138e-08)
(0.00105568 -1.55733e-07 1.76631e-07)
(0.000788991 -2.00016e-09 1.19068e-08)
(0.00078987 -3.31075e-07 -2.4475e-10)
(0.00105373 2.79284e-08 2.11204e-07)
(0.000787769 4.27607e-08 2.69368e-08)
(0.000788358 -6.03224e-07 5.40453e-08)
(0.00105194 9.09042e-08 2.04379e-07)
(0.000786247 5.9361e-08 4.86666e-08)
(0.000786909 1.73175e-07 6.30066e-08)
(0.00105012 1.29781e-07 1.63487e-07)
(0.000784783 1.09468e-07 4.52758e-08)
(0.000785531 -1.74692e-08 4.70075e-08)
(0.00104827 6.81875e-08 1.78856e-07)
(0.000783333 -1.94546e-08 1.18551e-07)
(0.000783924 -2.35519e-07 5.18399e-08)
(0.00104619 2.21243e-07 1.20298e-07)
(0.000781948 -3.39295e-07 1.36325e-07)
(0.000782348 9.8291e-08 1.35828e-07)
(0.00104417 -3.15643e-07 1.49772e-07)
(0.000780128 -4.92775e-07 3.34805e-09)
(0.000781025 -7.56388e-07 -2.98091e-08)
(0.00104218 -6.89361e-07 3.65191e-07)
(0.000778929 -4.45372e-07 5.29497e-09)
(0.000779596 -6.30625e-07 -2.476e-08)
(0.00104005 -7.0899e-07 3.18568e-07)
(0.000777325 -1.92656e-07 7.83771e-08)
(0.000778394 -1.44886e-07 1.038e-07)
(0.0010382 -5.01273e-07 1.80707e-07)
(0.000776758 6.6044e-08 5.63364e-08)
(0.00077731 -2.01767e-06 9.04593e-08)
(0.00103693 -2.26705e-08 2.38908e-07)
(0.000775036 1.14674e-07 4.53938e-08)
(0.000775856 1.33157e-07 3.94643e-08)
(0.00103543 2.06789e-07 1.57865e-07)
(0.000773349 -3.8339e-10 4.3157e-08)
(0.00077422 2.82076e-08 4.67373e-08)
(0.00103303 1.49091e-07 2.03196e-07)
(0.000771703 5.20227e-08 2.37251e-08)
(0.000772744 1.15214e-07 3.69946e-08)
(0.00103079 -9.548e-08 1.7275e-07)
(0.000770161 3.79362e-07 4.53221e-08)
(0.000771326 4.33844e-07 1.19099e-08)
(0.00102858 2.63783e-07 1.44089e-07)
(0.000769983 3.54216e-07 8.31155e-08)
(0.000769971 -2.63476e-06 4.33866e-08)
(0.00102751 7.59537e-07 2.20773e-07)
(0.000768134 6.24947e-08 5.80686e-08)
(0.000768612 3.21813e-07 1.03621e-07)
(0.00102627 2.29274e-07 1.75108e-07)
(0.000766724 -2.4989e-08 4.94401e-08)
(0.000767245 2.16612e-08 4.26042e-08)
(0.001024 -2.93422e-09 1.71046e-07)
(0.000765329 -1.71629e-07 3.17331e-08)
(0.000765807 -1.14704e-07 6.95172e-08)
(0.001022 -3.48984e-08 1.69248e-07)
(0.000764306 -3.925e-07 -9.93331e-09)
(0.000764464 -5.23633e-07 1.77113e-08)
(0.0010207 -4.28904e-07 1.6297e-07)
(0.000762086 -3.41804e-07 1.73178e-08)
(0.00076316 2.88185e-06 4.30026e-08)
(0.00101842 -6.13501e-07 6.09855e-08)
(0.000760881 -1.17605e-07 3.11823e-08)
(0.000761777 -3.76561e-07 3.79678e-08)
(0.00101606 -2.8765e-07 1.81462e-07)
(0.000759302 4.01468e-08 3.42513e-08)
(0.000760349 1.23627e-07 3.54882e-08)
(0.00101428 -8.13917e-08 1.57877e-07)
(0.000758595 4.93531e-09 1.25672e-07)
(0.000758987 -6.32917e-07 4.55269e-08)
(0.00101264 1.02706e-07 1.6141e-07)
(0.000757083 -2.34325e-07 1.22205e-07)
(0.000757698 1.58776e-07 9.64436e-08)
(0.00101136 -1.72192e-07 1.70817e-07)
(0.000755393 -3.44124e-07 2.78641e-08)
(0.000756189 -2.83849e-07 -1.40187e-08)
(0.00100905 -4.88661e-07 2.06748e-07)
(0.000754893 8.78092e-07 6.03417e-08)
(0.0010069 -4.15923e-07 1.09395e-07)
(-0.000314636 -0.00196359 3.52505e-05)
(-0.0038096 0.00347075 -4.47883e-05)
(-0.00326648 -0.00119927 -0.000641534)
(-0.00444569 -0.0135976 0.000839767)
(-0.0019697 -0.00926065 -0.00197982)
(-0.0161666 -0.0081936 0.000573864)
(-0.015009 -0.0419103 -0.00114163)
(-0.0299588 -0.00971624 -0.00059235)
(-0.0191863 0.00422107 0.000571157)
(-0.00555159 -0.01887 -0.000464428)
(-0.00425785 -0.0261197 0.0134845)
(-0.0209028 -0.0061181 0.0154745)
(-0.0555278 -0.0131054 -0.0224464)
(-0.0296399 -0.0138694 -0.0072552)
(0.013323 0.0011283 0.00136184)
(0.00511694 8.88611e-05 0.00253378)
(0.0151063 0.00271114 0.00238316)
(-0.00263364 0.0286467 0.000677109)
(0.0216746 0.00766831 0.0528927)
(0.0163822 0.00489452 0.0166039)
(0.0185877 0.00404531 -0.0610186)
(0.00748171 0.00949875 -0.0127154)
(-0.00987134 0.0494358 -0.00197145)
(-0.00117979 0.00253431 0.001768)
(-0.0114938 0.0138634 0.00259858)
(-0.00281267 0.00202606 -0.000812616)
(-0.0043193 -0.000754693 0.000651816)
(-0.0221567 -0.000954429 -0.0012814)
(-0.00164686 -0.00105946 -0.000301972)
(0.0154838 -0.00148717 0.0273542)
(-0.00757286 0.000209533 -0.00528771)
(-0.0152748 0.00836773 -0.0060185)
(-0.0147535 -0.0123314 -0.00923502)
(0.0110147 -0.00232013 0.00094555)
(0.00318189 0.000985857 0.000636571)
(0.0104033 0.00437003 0.000705868)
(0.0201905 0.00721069 0.0017759)
(0.0296672 0.000591185 -0.000256272)
(0.00206502 -0.00069209 8.51168e-05)
(0.00140155 -0.00043835 -8.4033e-05)
(0.00254467 -0.000708558 -5.21565e-05)
(0.000805626 0.000872808 -3.53215e-05)
(0.00181576 -0.00128067 -0.000201616)
(0.000836684 -6.90766e-05 1.41337e-05)
(0.000404769 -1.25753e-05 1.93191e-05)
(0.000463393 -5.94699e-05 3.3847e-05)
(0.000605241 -3.04646e-05 5.08889e-05)
(0.00027082 -1.43185e-05 1.21032e-05)
(0.000837163 -3.21942e-06 -1.30351e-06)
(0.000587515 -3.19135e-06 -1.45748e-06)
(0.00114693 -2.33276e-05 -1.47471e-06)
(0.000596341 -2.55932e-05 -4.63468e-06)
(0.000614565 -1.95951e-05 -4.81155e-06)
(0.00101275 -5.19615e-05 -4.57317e-06)
(0.00104977 -3.73988e-05 -3.74303e-06)
(0.000560437 -2.41664e-05 -4.38257e-06)
(0.000988145 -5.30515e-06 -1.01579e-06)
(0.000925802 -3.81688e-05 -5.34636e-06)
(0.00082073 4.58457e-06 -5.38252e-08)
(0.000843407 1.75051e-05 -8.53623e-07)
(0.00110108 1.59165e-05 9.21239e-08)
(0.00081622 -1.8554e-06 5.09097e-08)
(0.000807914 -1.50103e-06 -1.98586e-07)
(0.00109087 -2.95287e-06 1.59792e-07)
(0.000812658 -1.44067e-06 3.2866e-08)
(0.000813567 -7.39156e-07 1.15282e-07)
(0.00108648 -1.46568e-06 1.74667e-07)
(0.00080996 -1.46044e-06 2.85361e-08)
(0.00081025 -5.6902e-07 5.66318e-08)
(0.0010823 -2.04237e-06 1.73173e-07)
(0.000807399 -1.12041e-06 3.42797e-08)
(0.000808723 -8.87447e-08 5.01015e-08)
(0.00107891 -1.61826e-06 1.65929e-07)
(0.000805544 -7.58938e-07 4.51793e-08)
(0.000806733 -9.23072e-07 4.76388e-08)
(0.00107592 -1.2105e-06 1.75569e-07)
(0.000804089 -4.41128e-07 4.17095e-08)
(0.000804975 -6.14006e-07 5.02437e-08)
(0.00107394 -7.21158e-07 1.77485e-07)
(0.000801977 -1.45538e-07 4.48247e-08)
(0.000803329 2.46627e-07 4.69686e-08)
(0.00107149 -4.1497e-07 1.81013e-07)
(0.000800662 1.47122e-07 6.61031e-08)
(0.000801734 -4.72896e-07 5.08111e-08)
(0.00106914 3.54517e-08 1.81674e-07)
(0.000799323 3.63856e-07 6.37615e-08)
(0.000800239 -4.88395e-07 5.65124e-08)
(0.0010675 3.38975e-07 1.79486e-07)
(0.000797853 3.57928e-07 3.92572e-08)
(0.000798481 -4.15057e-07 7.16324e-08)
(0.00106559 6.07242e-07 1.74144e-07)
(0.000796257 2.84762e-07 2.1273e-08)
(0.000796846 7.87713e-08 3.29803e-08)
(0.0010635 3.31704e-07 1.83054e-07)
(0.000794759 2.49533e-07 3.73481e-08)
(0.000795519 3.0992e-07 2.62493e-08)
(0.00106151 4.25858e-07 1.69772e-07)
(0.000793044 2.56514e-07 4.4208e-08)
(0.000794086 2.07671e-07 5.4006e-08)
(0.00105931 2.37865e-07 1.96806e-07)
(0.000792052 3.10427e-07 3.17176e-08)
(0.000792632 8.00536e-07 5.05119e-08)
(0.00105742 4.53855e-07 7.64188e-08)
(0.00079077 1.79902e-07 9.09705e-09)
(0.000791161 -1.04428e-06 -1.44385e-08)
(0.00105607 4.09616e-07 2.16207e-07)
(0.000789165 3.52092e-08 4.18765e-08)
(0.000789688 3.90861e-08 1.38795e-08)
(0.00105416 1.32006e-07 1.62777e-07)
(0.000787566 -6.43036e-08 9.01123e-08)
(0.000788233 8.57868e-08 8.19284e-08)
(0.00105188 3.82445e-08 1.40059e-07)
(0.000786142 -1.62225e-07 6.13525e-08)
(0.000786786 4.77493e-08 7.13624e-08)
(0.00104983 -1.40552e-07 1.82022e-07)
(0.000784728 -3.45643e-07 5.35701e-08)
(0.000785304 6.64921e-08 5.14758e-08)
(0.00104806 -2.65134e-07 1.66805e-07)
(0.000782845 -4.55022e-07 6.90904e-08)
(0.000783789 -6.23424e-07 3.20077e-08)
(0.00104581 -7.2697e-07 2.41391e-07)
(0.000781536 -3.62257e-07 -3.02536e-08)
(0.000782466 -9.52343e-09 3.96376e-08)
(0.00104353 -5.79931e-07 1.71285e-07)
(0.000780366 -2.21517e-07 -5.79187e-08)
(0.000781202 2.11063e-07 -1.57548e-09)
(0.00104207 -4.32391e-07 8.30403e-08)
(0.000779061 1.33376e-07 7.37045e-08)
(0.00078004 3.86944e-07 4.1576e-08)
(0.00104043 -1.92922e-07 9.13959e-08)
(0.000778366 4.61843e-07 1.15886e-07)
(0.000778803 -2.57115e-06 5.93206e-08)
(0.00103906 5.56043e-07 2.81638e-07)
(0.000776557 3.20319e-07 7.36032e-08)
(0.000777131 -2.36988e-06 4.95652e-08)
(0.00103748 7.15219e-07 2.33487e-07)
(0.00077493 8.12493e-08 4.08056e-08)
(0.000775556 4.62495e-07 6.53555e-08)
(0.00103511 1.74923e-07 1.68789e-07)
(0.000773648 9.74923e-08 4.05779e-08)
(0.000774239 -1.778e-07 3.98847e-08)
(0.00103311 6.69055e-08 1.76109e-07)
(0.000772341 2.54115e-07 2.51871e-08)
(0.000772939 2.63624e-08 8.64481e-08)
(0.00103139 2.1432e-07 1.70011e-07)
(0.000771104 5.20233e-07 9.96465e-09)
(0.000771657 2.83381e-08 2.95611e-08)
(0.00102983 4.8507e-07 1.86492e-07)
(0.000768637 4.79267e-07 6.38732e-08)
(0.000769917 -7.73939e-07 1.80165e-08)
(0.00102729 9.0675e-07 1.33968e-07)
(0.00076767 1.78025e-07 8.81753e-08)
(0.000768233 6.25777e-08 8.59948e-08)
(0.0010249 4.22093e-07 1.51489e-07)
(0.000766416 -4.8869e-08 6.2673e-08)
(0.00076696 -1.36346e-07 6.34689e-08)
(0.0010235 1.20993e-07 1.70029e-07)
(0.000764909 -2.23763e-07 5.55113e-08)
(0.000765589 9.16217e-09 6.01804e-08)
(0.00102164 -2.18011e-07 1.72261e-07)
(0.000763251 -4.62579e-07 7.06394e-08)
(0.000764167 1.13571e-07 9.36252e-08)
(0.00101946 -3.46823e-07 1.48773e-07)
(0.00076289 -4.0765e-07 6.36541e-08)
(0.000763231 1.82617e-07 1.01547e-07)
(0.00101828 -8.62486e-07 2.72975e-07)
(0.000761286 -1.23194e-07 4.22744e-08)
(0.000762135 1.02594e-07 6.20865e-08)
(0.00101691 -2.30985e-07 1.54994e-07)
(0.000759939 1.05954e-07 4.67607e-08)
(0.000760635 3.59999e-08 5.30524e-08)
(0.0010149 -1.55208e-07 1.72759e-07)
(0.000758154 1.8038e-07 1.62832e-08)
(0.00075908 -5.26617e-07 8.90336e-08)
(0.0010129 3.68064e-07 1.98388e-07)
(0.000756795 -1.47239e-08 -3.97467e-08)
(0.000757454 1.55096e-07 3.73794e-08)
(0.00101073 5.62872e-08 1.67379e-07)
(0.000755601 -1.33042e-07 1.84364e-08)
(0.000756044 8.2944e-08 -6.30636e-09)
(0.00100898 -1.60095e-07 1.25146e-07)
(0.000755058 -1.25286e-07 1.07657e-07)
(0.00100762 -2.43457e-07 2.28433e-07)
(0.00162396 -0.000852358 -0.000100204)
(0.00117541 -0.00335681 -0.000277908)
(0.00270008 -0.00816143 -0.0102502)
(0.00490195 0.000162596 2.39485e-05)
(-0.0028615 -0.0108353 0.000168288)
(0.00189642 0.0031372 0.00034021)
(-0.00370324 -0.000879731 0.000351605)
(-0.00708697 -0.00779688 -0.00013092)
(-0.00560216 -0.00201358 0.000714728)
(-0.0075996 -0.0176562 -0.0011844)
(0.00567677 -0.00841243 -0.00170905)
(0.00172289 -0.00758323 -0.00309743)
(-0.000905886 -0.00858314 0.0138758)
(0.0047403 0.00177867 -0.00207283)
(-0.001328 0.00359805 0.000372816)
(0.00167239 0.00349306 0.000144985)
(-0.00397025 -0.00342936 0.000131745)
(0.0108902 0.00350301 0.000973318)
(0.00201218 0.00298304 0.000356702)
(0.0080017 0.00342011 0.000287705)
(0.00328963 0.000423914 0.00016684)
(0.00666606 0.00419679 -0.000294811)
(-0.00305018 -0.000259188 -5.95865e-05)
(0.00263299 -0.00336011 0.000277708)
(0.00202829 -0.00567332 0.00079529)
(-0.00772409 0.00386253 0.000334491)
(-0.000533613 -0.000303036 -0.000362625)
(-0.00841941 0.00440426 0.000341201)
(0.00287942 -0.00401427 0.000394969)
(0.00300807 -0.00677585 -0.000334927)
(0.00450097 -0.00203982 0.000757314)
(0.0036506 -0.00274185 0.002671)
(0.00506965 6.60103e-07 0.000539466)
(0.00542432 -0.00301572 0.000153382)
(0.00591646 -0.00136115 0.00110193)
(0.00346081 -0.00262017 -0.000263315)
(0.000626062 0.00226704 -8.95783e-05)
(-0.000941652 0.00113238 -0.000212254)
(-0.00690043 0.00845318 -4.48173e-05)
(-0.00133357 0.00359343 -0.000592995)
(-0.00176878 -0.00266271 -8.77767e-06)
(0.000652357 -0.00198864 -4.1994e-05)
(0.000475869 -0.000829602 -4.18572e-05)
(0.00154274 -0.00237402 2.31253e-05)
(0.000536338 -0.00251461 -4.60054e-06)
(0.00078794 -0.000116503 4.84751e-05)
(0.000794466 -3.29564e-05 1.27668e-05)
(0.00139338 0.000354834 2.38649e-05)
(0.0011405 -1.38041e-05 -5.50829e-05)
(0.00113101 -5.74338e-05 1.32621e-05)
(0.000306606 -1.24861e-05 -2.17419e-06)
(0.000464975 -9.03287e-06 -3.29614e-06)
(0.000449214 -1.85902e-05 -2.09705e-08)
(0.000751771 -5.92379e-06 -1.15354e-06)
(0.000318049 3.49757e-06 -2.64039e-06)
(0.00055224 -3.00371e-05 -3.01684e-06)
(0.000577999 1.22644e-05 -3.02151e-06)
(0.000807 1.93407e-06 -9.98599e-07)
(0.000872224 -9.53839e-06 -1.40175e-06)
(0.00114857 9.88034e-06 -9.12827e-07)
(0.000580634 -6.97451e-06 -4.08345e-06)
(0.00058946 -2.38517e-06 -4.82828e-06)
(0.000952269 -1.91317e-05 -5.04745e-06)
(0.0009732 -8.41375e-06 -6.07542e-06)
(0.000810367 -2.41537e-06 -1.34317e-07)
(0.000802467 -6.23287e-06 -4.36e-07)
(0.00106443 -4.64229e-06 7.82449e-08)
(0.000810046 -1.32773e-06 1.39067e-07)
(0.000814936 -2.78349e-06 1.77289e-07)
(0.00108406 -1.70788e-06 2.11965e-07)
(0.000809221 -1.24064e-06 7.81994e-08)
(0.000810366 -1.59942e-06 4.99456e-08)
(0.00107962 -1.80746e-06 1.85431e-07)
(0.000808018 -9.44153e-07 6.34614e-08)
(0.000809099 -6.9965e-07 6.56937e-08)
(0.00107907 -1.49198e-06 1.89749e-07)
(0.000806052 -6.45645e-07 5.27023e-08)
(0.000807111 -4.19816e-07 5.30236e-08)
(0.00107685 -1.02171e-06 1.79197e-07)
(0.000804237 -4.99642e-07 5.55038e-08)
(0.00080516 -2.81691e-07 5.24856e-08)
(0.0010742 -6.92324e-07 1.78382e-07)
(0.000803026 -3.23319e-07 5.29538e-08)
(0.000803551 -2.3915e-07 5.53895e-08)
(0.00107228 -6.3573e-07 1.83496e-07)
(0.000801334 -1.04401e-07 4.12185e-08)
(0.000802009 -1.77155e-07 5.03269e-08)
(0.00107038 -2.34134e-07 1.71691e-07)
(0.000799486 -5.9903e-08 6.43784e-08)
(0.000800296 2.9065e-07 4.28698e-08)
(0.00106806 -7.07851e-08 1.52282e-07)
(0.000797324 -2.52072e-08 6.5368e-08)
(0.000798525 5.32876e-07 6.5448e-08)
(0.00106529 -1.40159e-07 1.68274e-07)
(0.000796082 5.64373e-08 3.79587e-08)
(0.000796948 -1.10971e-07 3.44766e-08)
(0.00106303 1.4069e-08 1.6785e-07)
(0.000794911 9.72418e-08 4.28983e-08)
(0.00079557 -1.77147e-07 5.60313e-08)
(0.00106147 9.00735e-08 1.82884e-07)
(0.000793631 2.36752e-07 6.03111e-08)
(0.00079426 -1.37166e-08 4.92886e-08)
(0.00105983 1.36474e-07 1.74454e-07)
(0.000791804 3.25394e-07 4.37653e-09)
(0.000792742 -2.8656e-07 4.4655e-08)
(0.00105783 4.71491e-07 2.8288e-07)
(0.000790003 2.00143e-07 -9.66507e-09)
(0.000791004 -7.45437e-08 -6.49066e-09)
(0.00105527 3.92452e-07 1.37561e-07)
(0.000788761 6.07382e-08 5.39097e-08)
(0.000789513 -1.24709e-07 3.62205e-08)
(0.00105327 1.33998e-07 1.68274e-07)
(0.000787452 -1.34071e-08 6.31818e-08)
(0.00078814 -8.63664e-08 4.61302e-08)
(0.0010516 1.01768e-08 1.75069e-07)
(0.000785994 -4.24382e-08 6.1492e-08)
(0.00078675 6.91063e-08 6.21123e-08)
(0.00104974 -3.64442e-08 1.74639e-07)
(0.000784387 -8.1975e-08 2.99196e-08)
(0.000785254 -3.74087e-08 5.51015e-08)
(0.00104754 -4.05533e-08 1.96911e-07)
(0.000783253 1.14579e-07 2.55243e-09)
(0.000784034 4.40716e-07 1.97596e-08)
(0.0010458 -1.30078e-07 7.31771e-08)
(0.000782274 3.90227e-07 6.83287e-08)
(0.000782809 6.70067e-07 2.19831e-08)
(0.00104455 4.99512e-07 8.66035e-08)
(0.000780733 4.3374e-07 9.79057e-08)
(0.000781254 3.29676e-07 1.01612e-07)
(0.00104267 6.4895e-07 1.759e-07)
(0.000779879 4.30377e-07 2.71865e-08)
(0.000780034 4.16963e-07 5.90015e-08)
(0.00104128 6.22604e-07 1.21468e-07)
(0.000777669 2.80973e-07 -6.99734e-09)
(0.000778614 -5.47701e-08 1.70133e-08)
(0.00103933 5.73543e-07 6.51665e-08)
(0.000775995 4.79733e-08 4.13125e-08)
(0.000776839 9.44013e-08 2.17832e-08)
(0.00103645 2.02911e-07 2.10253e-08)
(0.000774847 -7.4184e-09 6.44426e-08)
(0.000775486 2.09443e-07 5.72666e-08)
(0.00103461 -4.17841e-08 1.67577e-07)
(0.00077354 4.42819e-11 8.57404e-08)
(0.000774248 -1.39984e-07 5.758e-08)
(0.00103308 2.53237e-08 1.61013e-07)
(0.000772252 -5.1733e-08 9.08397e-08)
(0.000772874 -2.8943e-08 1.00983e-07)
(0.00103131 -1.41737e-08 1.65889e-07)
(0.000770738 -1.62487e-07 3.76165e-08)
(0.000771518 -1.62435e-08 4.85274e-08)
(0.00102944 -9.22462e-08 1.85428e-07)
(0.000769115 -8.87093e-08 4.01171e-08)
(0.00077001 -2.21828e-07 2.03461e-08)
(0.00102742 -2.95891e-07 1.52165e-07)
(0.000767693 4.33694e-08 6.12954e-08)
(0.000768399 9.98392e-08 3.71145e-08)
(0.00102528 6.03873e-08 1.71097e-07)
(0.0007661 -1.33423e-08 6.09773e-08)
(0.000766889 9.79218e-08 6.20536e-08)
(0.0010232 2.40439e-08 1.7223e-07)
(0.00076496 9.29331e-08 9.8284e-08)
(0.000765722 -1.07746e-07 1.11676e-07)
(0.00102142 -3.0347e-08 1.56542e-07)
(0.00076373 3.70039e-07 1.24531e-07)
(0.000764512 -1.93287e-06 1.63917e-07)
(0.0010199 3.48964e-07 3.04264e-07)
(0.000762901 3.55962e-07 9.99919e-08)
(0.000763211 -1.66154e-06 3.92114e-08)
(0.00101857 6.82802e-07 2.53394e-07)
(0.000761363 2.02025e-07 7.28673e-08)
(0.000761941 -2.00673e-08 5.70769e-08)
(0.00101695 3.2206e-07 1.92684e-07)
(0.000759887 1.46062e-07 9.53144e-08)
(0.000760564 -1.8901e-08 4.77722e-08)
(0.00101503 3.05146e-07 1.82138e-07)
(0.000758238 2.09412e-07 1.10146e-07)
(0.000759158 1.71096e-07 7.95334e-08)
(0.00101291 1.46195e-07 1.42938e-07)
(0.000756754 2.69003e-07 7.0833e-08)
(0.000757528 3.27142e-07 7.10504e-08)
(0.0010107 4.30032e-07 1.6593e-07)
(0.000755286 1.6953e-07 8.28801e-08)
(0.000755918 1.58317e-07 5.21925e-08)
(0.00100868 2.71136e-07 1.71482e-07)
(0.000754846 -1.09225e-06 1.33929e-07)
(0.0010074 1.65349e-07 2.0318e-07)
(-0.00244932 -0.00218894 0.00104276)
(-0.00361755 0.00558535 0.000217844)
(0.000754004 0.000420333 -0.000213013)
(0.00116647 -0.000784098 -0.00277054)
(-0.00601473 -0.00135397 6.28957e-05)
(-0.00510434 0.00638094 -0.000973995)
(-0.00380796 0.00340753 -0.000149313)
(-0.0035433 0.00619987 -0.00023964)
(-0.00372728 0.00383733 -0.000236265)
(-0.00098037 -0.0051159 -0.00122022)
(-0.00560764 -0.0034984 0.00088321)
(-0.00170967 0.00192665 0.000939259)
(-0.0171925 -0.00418071 -0.000112191)
(-0.0105775 -0.0103144 -0.000695228)
(-0.0013776 -0.00426744 -0.000170599)
(-0.000415604 -0.00284029 0.000714501)
(0.00508805 0.000395458 -0.000418656)
(0.0150091 -0.00150363 -0.000108665)
(0.0116684 -0.00728954 -0.000970663)
(0.00444657 -0.00335264 -0.000294025)
(-0.00400936 -0.00361034 0.0183765)
(0.0191092 0.00202088 -0.00112571)
(-0.00201586 -0.00259776 -0.00529707)
(0.00379966 -0.00176035 -0.0101721)
(0.0108697 -0.00390813 -0.000336269)
(-2.86013e-05 -0.01313 -0.00250641)
(0.0250745 0.00638829 -0.00175451)
(0.0039748 0.00304472 0.000407466)
(0.00850295 -0.00255424 9.62502e-06)
(-0.00835238 0.0117389 0.00656768)
(0.0132251 -0.00363307 0.000276512)
(0.00326347 0.00653879 0.00148178)
(0.00965401 0.00847336 0.00093473)
(0.00536472 -0.00377571 8.4241e-06)
(0.0107621 -0.00326607 -0.000366553)
(0.00711545 -0.00371371 0.000504666)
(0.0015104 -0.00189707 -0.00304047)
(0.00480379 0.0109734 -0.00406754)
(0.00507339 0.00574287 -3.86499e-05)
(0.00194486 0.00213501 5.97269e-05)
(0.0119006 0.00491413 -0.000156126)
(-0.0036277 0.00455722 -5.27718e-05)
(0.0131497 0.00723152 0.000140135)
(-0.00508595 0.00751191 0.000417645)
(-0.0052892 0.00260649 0.000275049)
(0.00728559 -0.000276649 0.000486245)
(0.000404979 0.00718825 0.00130203)
(3.44088e-05 -0.00149113 -0.000153486)
(-0.00220535 -0.00197876 5.86099e-05)
(-0.00167076 -0.00204489 3.38747e-05)
(-0.000752727 -0.00383934 -0.000152698)
(-0.004146 -0.00345878 0.000113046)
(0.00072607 0.000459925 4.40968e-07)
(0.00105147 0.000340449 5.41163e-05)
(0.000601914 0.00034125 8.29031e-06)
(0.0011809 0.000747003 -1.69818e-05)
(0.000927146 0.000587527 3.48032e-05)
(0.000356236 -2.19747e-05 3.92094e-06)
(0.000497525 -1.13882e-05 -3.46699e-06)
(0.000496289 -8.94252e-06 1.3457e-06)
(0.000779632 -1.89735e-05 4.26305e-07)
(0.000363727 -2.17845e-05 4.9935e-06)
(0.000662669 -4.85213e-05 1.3743e-05)
(0.000688277 -3.44538e-05 1.44036e-05)
(0.000458327 -2.82045e-05 -3.17565e-07)
(0.000820602 -1.14859e-05 -8.39471e-07)
(0.000871798 -1.35985e-05 -1.64356e-06)
(0.00117739 -2.4223e-05 -1.02901e-06)
(0.000613351 -1.34653e-05 -3.8065e-06)
(0.000600498 4.42825e-07 -5.11464e-06)
(0.00101648 -2.32075e-05 -4.74262e-06)
(0.000987659 7.85755e-06 -6.22551e-06)
(0.00081669 -3.88307e-06 -1.24594e-07)
(0.000812094 -1.32819e-06 -3.28573e-07)
(0.00107635 -7.1371e-06 4.1202e-08)
(0.000813342 -1.71896e-06 8.82097e-08)
(0.000817664 -9.01696e-07 1.38917e-07)
(0.00109005 -3.74077e-06 2.02543e-07)
(0.000810534 -5.10655e-07 3.74348e-08)
(0.000811888 9.08763e-08 2.40047e-08)
(0.00108259 -1.17978e-06 1.69121e-07)
(0.000808186 -1.85024e-07 5.526e-08)
(0.000809511 2.84238e-07 1.60575e-07)
(0.00107991 -4.08315e-07 1.78593e-07)
(0.000806139 -7.4937e-08 5.28071e-08)
(0.000807251 1.9244e-07 5.30373e-08)
(0.00107693 -2.26971e-07 1.7888e-07)
(0.000804361 2.30953e-08 5.23704e-08)
(0.000805284 6.1438e-09 4.75034e-08)
(0.00107443 -3.97438e-08 1.78424e-07)
(0.000802606 -4.37973e-08 5.27643e-08)
(0.000803468 5.89883e-08 4.68658e-08)
(0.00107207 7.90224e-08 1.76275e-07)
(0.000800988 -2.35825e-07 5.19806e-08)
(0.00080177 -1.23723e-07 5.21068e-08)
(0.00106985 -2.03335e-07 1.81979e-07)
(0.000799356 -3.63922e-07 4.39321e-08)
(0.000800137 1.60963e-07 5.13363e-08)
(0.00106762 -4.19275e-07 1.96326e-07)
(0.000798034 -3.32934e-07 3.45667e-08)
(0.000798565 2.3604e-07 4.53668e-08)
(0.0010657 -5.55888e-07 1.81671e-07)
(0.000796416 -1.94279e-07 5.25422e-08)
(0.000797123 -6.18483e-08 5.22229e-08)
(0.00106379 -3.72116e-07 1.83923e-07)
(0.000794889 -1.64664e-07 6.24238e-08)
(0.000795608 -1.60837e-07 6.99122e-08)
(0.00106166 -2.00186e-07 1.78777e-07)
(0.00079352 -2.3332e-07 3.3634e-08)
(0.000794175 -1.72018e-07 1.41216e-07)
(0.00105979 -2.60993e-07 1.77866e-07)
(0.000791871 -2.08876e-07 3.38041e-08)
(0.000792773 -2.62621e-07 1.51114e-07)
(0.00105774 -3.54042e-07 1.89911e-07)
(0.00079047 -3.11059e-08 3.93813e-08)
(0.000791227 1.51101e-09 6.41953e-08)
(0.00105565 -2.02703e-07 1.65007e-07)
(0.000788869 1.51548e-07 2.84378e-08)
(0.000789741 6.72596e-09 4.60858e-08)
(0.00105368 9.88276e-08 1.79107e-07)
(0.00078744 2.6774e-07 4.50556e-08)
(0.000788285 -5.33577e-08 4.74916e-08)
(0.00105167 2.71784e-07 1.71143e-07)
(0.000786069 3.78268e-07 5.5724e-08)
(0.000786887 2.3769e-08 6.2865e-08)
(0.00104976 4.25603e-07 1.71729e-07)
(0.000784786 5.68095e-07 4.49527e-08)
(0.000785489 5.85395e-07 5.20225e-08)
(0.00104794 6.08134e-07 1.17336e-07)
(0.000783678 5.32133e-07 3.91896e-08)
(0.000783986 8.1545e-07 1.35967e-07)
(0.00104648 1.01162e-06 1.19494e-07)
(0.000781803 3.50215e-07 5.52415e-08)
(0.000782578 1.79464e-07 8.46079e-08)
(0.0010445 5.66235e-07 2.48249e-07)
(0.000780403 4.18415e-07 6.27213e-08)
(0.000781336 3.78636e-07 6.66407e-08)
(0.00104222 5.30734e-07 1.68384e-07)
(0.000779052 2.31775e-07 4.88415e-08)
(0.000779798 4.3875e-07 4.76446e-08)
(0.00104033 7.38001e-07 1.66049e-07)
(0.000777638 -6.6973e-08 4.57924e-08)
(0.00077824 -6.1837e-08 4.45559e-08)
(0.00103853 9.2901e-09 1.73619e-07)
(0.000776228 -2.83976e-08 3.77262e-08)
(0.000776887 9.26917e-08 4.8752e-08)
(0.00103671 -1.09759e-07 1.73e-07)
(0.000774989 2.26671e-08 5.04039e-08)
(0.00077555 -3.04985e-08 3.75926e-08)
(0.00103489 6.37972e-08 1.74741e-07)
(0.000773508 -2.45064e-08 7.28092e-08)
(0.000774189 -4.11293e-08 6.02018e-08)
(0.00103315 1.20422e-08 1.72177e-07)
(0.000772206 -1.30346e-07 5.86871e-08)
(0.000772742 -1.96822e-07 6.62379e-08)
(0.00103124 -7.37691e-08 1.75192e-07)
(0.000770788 -2.73634e-07 3.12658e-08)
(0.00077134 1.22373e-07 6.09106e-08)
(0.00102948 -2.70121e-07 1.63653e-07)
(0.000769319 -3.33715e-07 1.73383e-08)
(0.000769936 -4.26343e-07 3.11042e-08)
(0.00102748 -4.80323e-07 1.92755e-07)
(0.000767575 -2.13501e-07 3.78649e-08)
(0.00076855 6.81489e-07 4.15149e-08)
(0.0010253 -4.64152e-07 1.60912e-07)
(0.000766337 2.5365e-08 1.12737e-07)
(0.000767188 -7.55336e-08 5.59196e-08)
(0.00102339 -1.24429e-07 1.69644e-07)
(0.000765479 2.52861e-07 1.77293e-07)
(0.000766005 -2.64189e-07 1.51551e-07)
(0.00102205 2.28963e-07 1.33953e-07)
(0.000763854 3.98201e-07 7.86362e-08)
(0.000764691 1.97433e-07 8.72593e-08)
(0.00102034 5.17717e-07 3.77898e-08)
(0.00076229 3.26297e-07 -3.70908e-09)
(0.000763119 2.37266e-07 1.91874e-08)
(0.00101824 6.17326e-07 4.8736e-08)
(0.000761183 1.62869e-07 3.19846e-08)
(0.000761735 3.55733e-07 3.72936e-08)
(0.00101643 2.93289e-07 1.17425e-07)
(0.000759814 1.37264e-07 3.19816e-08)
(0.000760531 1.44406e-07 4.47126e-08)
(0.00101468 1.64499e-07 1.56438e-07)
(0.000758544 2.98945e-07 4.04409e-08)
(0.00075936 3.22145e-07 -1.67119e-08)
(0.00101305 1.99143e-07 1.4825e-07)
(0.000756623 3.2028e-07 5.24156e-08)
(0.000757553 7.76927e-07 4.75496e-08)
(0.00101089 5.43715e-07 1.85568e-07)
(0.000755307 2.34641e-07 1.03217e-07)
(0.000755807 7.59638e-08 5.10077e-08)
(0.00100864 2.74442e-07 1.69139e-07)
(0.000754554 -1.36866e-06 1.05102e-07)
(0.00100708 3.55274e-07 1.96349e-07)
(-0.0066956 0.00917055 0.000133252)
(-0.0035901 0.00958567 -0.000315194)
(-0.0049948 0.00916562 0.000329371)
(-0.0038597 0.00973249 0.000960457)
(-0.00755322 0.0104459 -0.000169639)
(-0.00127908 0.00903093 -0.00122117)
(0.0205724 0.00804752 -0.000711369)
(-0.00297913 0.00265522 0.000363965)
(-0.00763057 0.000265418 0.000473359)
(-0.0189294 0.0113436 0.000353266)
(-0.0037075 0.0128397 0.000744891)
(0.00820693 -0.00588461 0.000944062)
(-0.00175883 -0.00971137 0.00131725)
(-0.00555198 -0.0238915 0.00124101)
(0.00805316 -0.0259816 3.89689e-05)
(-0.000228249 -0.0366923 -0.00120765)
(0.00789852 -0.00341542 -1.58094e-05)
(0.0079476 0.000920173 -0.000315906)
(0.0113102 -0.00397016 -0.000283911)
(0.00728883 -0.000710375 0.000336358)
(0.00600227 -0.0109042 0.000134151)
(-0.00504194 -0.00357397 2.22008e-05)
(-0.000792082 -0.0179979 0.000557794)
(0.00335425 -0.00819003 -6.69351e-05)
(-0.00155459 -0.00789757 -0.00115031)
(-0.00506728 -0.0162652 -0.000318159)
(-0.0108299 -0.0126564 -0.000815334)
(-0.000703911 0.00198215 -0.000240933)
(-0.000543236 -0.00119837 5.60694e-05)
(-0.0045358 0.00114808 4.49299e-05)
(-0.00273368 -0.000283118 -4.10363e-05)
(-0.0041006 -0.00314639 -0.000308759)
(-0.0055803 0.000757963 -2.05954e-05)
(0.000423201 0.000379151 -1.85858e-05)
(0.000849604 0.000776393 -7.46689e-05)
(0.000465419 0.000312946 -2.40865e-06)
(0.000677289 0.00112793 -7.89222e-06)
(0.000887813 0.000553157 4.62884e-05)
(0.000387702 -4.44008e-05 2.24419e-05)
(0.000394184 -2.45498e-05 3.97991e-06)
(0.000336414 -1.39941e-05 3.95122e-06)
(0.000557958 -3.37073e-05 9.77274e-06)
(0.000263718 -2.51977e-05 -8.97634e-08)