/*--------------------------------*- C++ -*----------------------------------*\
| =========                 |                                                 |
| \\      /  F ield         | OpenFOAM: The Open Source CFD Toolbox           |
|  \\    /   O peration     | Version:  5.0                                   |
|   \\  /    A nd           | Web:      www.OpenFOAM.org                      |
|    \\/     M anipulation  |                                                 |
\*---------------------------------------------------------------------------*/
FoamFile
{
    version     2.0;
    format      ascii;
    class       surfaceVectorField;
    location    "2.8";
    object      Uf_0;
}
// * * * * * * * * * * * * * * * * * * * * * * * * * * * * * * * * * * * * * //

dimensions      [0 1 -1 0 0 0 0];

internalField   nonuniform List<vector> 
25822
(
(0.00253278 -0.00459339 -5.1033e-05)
(-0.00292046 -0.00781587 -0.000636849)
(-0.00970651 -0.015882 -0.00412906)
(0.00601643 -0.00625645 0.000606744)
(0.00965627 -0.000629151 0.000359185)
(0.00882425 0.00468825 -0.00110555)
(-0.00181569 -0.0119085 -0.0192291)
(-0.0110538 -0.0148377 0.0148959)
(-0.00445979 -0.00740039 0.00613529)
(-0.00528834 -0.00538426 0.000479099)
(-0.0074387 -0.00340863 -0.000134021)
(0.00558269 -0.00282125 0.000453905)
(0.0033509 -0.00323669 0.00073155)
(0.00656344 -0.00604133 0.000492269)
(0.0100444 -0.000752524 0.000313601)
(-0.00465592 0.0105408 -0.000397937)
(-0.000186726 0.0135517 -0.000296472)
(-0.008235 0.00905381 -0.00106177)
(-0.0117428 0.00317814 0.000449359)
(-0.0119961 -0.00142734 -0.000712593)
(-0.00375156 -0.00129561 6.11878e-05)
(-0.00359062 -0.0119081 0.000847457)
(-0.00224108 0.00496766 0.000168438)
(0.00779199 -0.0033807 0.000378634)
(0.00843962 -0.00248149 0.000246308)
(0.0010986 -0.00810474 0.000503468)
(0.0122374 -0.00235014 -0.000928259)
(-0.000559311 -0.00238694 0.000142324)
(-0.000733431 -0.000672414 -6.51797e-06)
(-0.000933461 -0.000168534 -8.0479e-05)
(-0.00117847 -0.00401645 -0.000259146)
(0.00044772 9.05471e-06 2.60191e-05)
(0.00032542 -1.43591e-06 7.9769e-06)
(0.000445392 2.80195e-06 1.89164e-05)
(0.000227347 -9.75622e-07 3.60793e-06)
(0.000829021 -1.11563e-05 -1.31032e-06)
(0.000848884 -1.64664e-05 -2.56901e-06)
(0.00110973 -1.85887e-05 -1.63754e-06)
(0.000592791 -1.12379e-05 -4.38585e-06)
(0.000591523 -1.74013e-05 -4.56816e-06)
(0.00102567 -1.68158e-05 -4.77512e-06)
(0.00101858 -3.04713e-05 -4.93597e-06)
(0.000821807 -5.9723e-06 1.21965e-07)
(0.000828434 -1.35982e-06 -1.01837e-08)
(0.00109974 -8.85606e-06 2.01141e-07)
(0.000819333 -3.55702e-06 9.51902e-08)
(0.000821838 -3.6407e-06 4.11744e-08)
(0.00109352 -5.65413e-06 1.89693e-07)
(0.000816633 -1.97605e-06 8.10761e-08)
(0.000819135 -1.92992e-06 6.60461e-08)
(0.00109073 -2.99031e-06 1.84173e-07)
(0.00081488 -1.06063e-06 3.67357e-08)
(0.000816431 -1.11943e-06 5.20473e-08)
(0.00108768 -1.7833e-06 1.76109e-07)
(0.000813439 -5.08786e-07 2.31451e-08)
(0.000814487 -8.15956e-07 2.43114e-08)
(0.00108587 -7.66141e-07 1.89307e-07)
(0.000811971 -2.63256e-07 4.75931e-08)
(0.00081269 -8.10681e-07 4.46272e-08)
(0.00108398 -4.07894e-07 1.81715e-07)
(0.000810005 -6.77052e-08 5.32631e-08)
(0.000811085 -1.73875e-07 5.13327e-08)
(0.00108159 -1.7071e-07 1.78206e-07)
(0.00080867 -8.32054e-08 5.44758e-08)
(0.000809342 -4.93835e-07 4.41883e-08)
(0.00107943 5.34955e-08 1.94085e-07)
(0.000807045 -1.86204e-07 7.19019e-08)
(0.000807706 -6.33771e-08 5.4282e-08)
(0.00107748 -2.35103e-07 1.78196e-07)
(0.000805471 -1.5915e-07 7.48112e-08)
(0.000806275 -1.53449e-07 8.41527e-08)
(0.00107532 -2.30631e-07 1.59134e-07)
(0.000804087 -1.36123e-07 6.47344e-08)
(0.000804846 -3.71518e-07 6.60287e-08)
(0.00107333 -1.72665e-07 1.63213e-07)
(0.000802636 -1.58507e-07 5.7143e-08)
(0.000803349 2.28584e-09 4.85197e-08)
(0.0010714 -1.85073e-07 2.23973e-07)
(0.000801231 -1.01777e-07 3.43191e-08)
(0.000801912 -9.13014e-08 6.82159e-08)
(0.00106954 -2.27035e-07 1.57054e-07)
(0.00079978 -7.90003e-08 3.68556e-08)
(0.00080043 -1.22513e-07 1.02077e-08)
(0.0010676 3.59344e-09 1.76737e-07)
(0.000798174 -9.85618e-08 4.70242e-08)
(0.000798926 1.77208e-07 1.4902e-07)
(0.00106547 -1.33394e-07 1.75844e-07)
(0.000796742 7.83701e-09 3.31162e-08)
(0.000797633 -1.39651e-07 4.86284e-08)
(0.00106347 -5.87315e-08 1.76459e-07)
(0.000795406 1.24056e-07 5.1969e-09)
(0.000796263 3.68606e-07 4.5169e-08)
(0.0010616 1.50573e-07 1.26907e-07)
(0.000794366 1.24974e-07 1.72473e-08)
(0.00079484 6.04728e-07 3.17275e-08)
(0.00105996 2.86292e-07 9.80749e-08)
(0.000793071 6.54361e-08 4.52715e-08)
(0.000793503 -6.41406e-09 4.28158e-08)
(0.00105834 1.42473e-07 1.81193e-07)
(0.00079185 1.27647e-07 4.39471e-08)
(0.000792311 -1.10295e-07 4.58929e-08)
(0.0010568 7.2782e-08 1.69962e-07)
(0.000789415 -2.84851e-08 5.44076e-08)
(0.000790529 7.56559e-07 4.7764e-08)
(0.00105422 2.6372e-07 2.64631e-07)
(0.000788332 -4.71326e-07 1.34482e-09)
(0.000788717 -3.77855e-07 7.44581e-08)
(0.00105173 -3.76977e-07 2.05349e-07)
(0.000787091 -6.15818e-07 -2.84892e-08)
(0.000787696 1.93716e-06 3.54256e-08)
(0.00105033 -9.24169e-07 -3.04178e-08)
(0.000785483 -4.92204e-07 4.32559e-08)
(0.000786453 1.09918e-06 2.07019e-08)
(0.00104823 -7.52093e-07 8.44149e-08)
(0.000784658 -2.85626e-07 6.87301e-08)
(0.000785252 2.18205e-07 1.41109e-07)
(0.00104659 -5.69303e-07 1.61821e-07)
(0.000783541 -4.17047e-08 4.78842e-08)
(0.000784227 2.40656e-07 1.64702e-07)
(0.00104544 -1.64031e-07 1.17911e-07)
(0.000782126 1.06506e-07 4.71629e-08)
(0.000782858 6.58866e-08 4.3334e-08)
(0.00104373 9.95525e-08 1.69001e-07)
(0.000780359 9.49817e-08 5.19791e-08)
(0.000781277 -5.01697e-08 4.73341e-08)
(0.00104149 2.27607e-07 1.10534e-07)
(0.000779163 8.87119e-08 3.91108e-08)
(0.000779894 6.74464e-08 4.5677e-08)
(0.00103943 3.81701e-08 1.66101e-07)
(0.000777881 2.47589e-07 -2.14791e-08)
(0.000778639 1.91281e-07 4.05243e-08)
(0.00103767 2.09609e-07 1.6175e-07)
(0.000776367 3.69046e-07 -7.00652e-09)
(0.000777232 3.23647e-07 -2.20767e-08)
(0.00103588 5.04957e-07 1.8305e-07)
(0.000775506 2.34149e-07 4.23856e-08)
(0.000775866 -8.86849e-07 6.57699e-08)
(0.00103441 5.17647e-07 1.88408e-07)
(0.000774005 7.55481e-08 4.92536e-08)
(0.000774553 2.0769e-07 4.17552e-08)
(0.00103272 1.0492e-07 1.70104e-07)
(0.000772674 -2.14989e-07 8.30322e-08)
(0.000773129 1.4789e-07 6.70394e-08)
(0.00103066 7.94514e-08 1.59086e-07)
(0.000771794 -4.57261e-07 1.72506e-07)
(0.000772039 9.97364e-07 6.57089e-08)
(0.00102947 -6.56791e-07 2.1731e-07)
(0.000770088 -3.13192e-07 1.37548e-07)
(0.000770877 -3.81247e-07 1.9339e-07)
(0.00102756 -5.41051e-07 1.86133e-07)
(0.000768594 -2.25772e-07 3.93477e-08)
(0.000769338 7.73261e-08 4.66803e-08)
(0.00102531 -2.95932e-07 1.45075e-07)
(0.00076732 -2.64356e-07 6.04884e-08)
(0.000767924 -2.37158e-08 5.51124e-08)
(0.00102355 -3.25877e-07 1.61474e-07)
(0.000765988 -4.03692e-07 5.36077e-08)
(0.000766623 -1.92684e-07 6.50942e-08)
(0.0010217 -3.61741e-07 1.73852e-07)
(0.00076463 -4.06852e-07 8.55085e-09)
(0.000765348 -4.36554e-07 3.85213e-08)
(0.00102012 -6.54793e-07 1.72917e-07)
(0.000762779 -2.56575e-07 2.10543e-08)
(0.000763712 1.22965e-06 3.03887e-08)
(0.00101785 -3.99456e-07 8.16066e-08)
(0.000762314 -5.06207e-07 4.63549e-08)
(0.00101546 -3.02024e-07 2.62468e-07)
(-0.00133622 -0.00239066 -5.25541e-05)
(-0.00492784 0.00304452 -0.000131746)
(-0.00534868 -0.00193334 -0.000575127)
(-0.00333473 -0.0113897 0.000303593)
(-0.000916388 -0.0124212 -0.00249527)
(-0.0162368 -0.00867899 0.000207929)
(-0.0113184 -0.0412236 -0.000842064)
(-0.0347613 -0.0110768 -0.00054862)
(-0.0174465 0.00219906 0.00129845)
(-0.00296324 -0.0178663 -0.000527801)
(-0.0020197 -0.0225155 0.0203271)
(-0.0190293 -0.00200488 0.0127543)
(-0.0426265 -0.0102209 -0.0370556)
(-0.0180173 -0.0125418 0.00437882)
(0.0163207 -0.0002256 -0.000153157)
(0.00162181 -0.00058072 0.000667908)
(0.0185797 -0.000400709 0.00138331)
(0.0245345 0.0257948 -0.0019141)
(0.0302447 0.0122373 0.0603794)
(0.0279582 0.00755642 -0.00363296)
(0.0197494 -0.00242597 -0.0169994)
(0.0102977 0.0139816 -0.038414)
(-0.00406472 0.0494579 -0.00883664)
(0.00190147 0.00618016 0.000765155)
(-0.000596817 0.0209177 0.00159389)
(0.00573144 0.00147119 -0.00201738)
(-0.00295365 -0.00104204 -0.000997445)
(0.0013997 -0.00330112 -0.00198544)
(0.00566149 -0.00198621 -0.00161485)
(0.030465 -0.00439423 0.0213271)
(0.0106527 -0.000858349 -0.0103795)
(-0.00417183 0.00826059 -0.00251742)
(0.00425921 -0.0116879 -0.00896065)
(0.00221687 -0.00167558 0.000242971)
(0.00129492 0.0011461 2.81095e-05)
(0.00321724 0.00438386 0.000180304)
(0.00244347 0.00737861 -7.1153e-06)
(0.00605974 -0.00124028 -0.000112844)
(0.00198452 -0.000681465 7.9931e-05)
(0.00127073 -0.000483742 -0.000115701)
(0.0025525 -0.000757787 -5.34844e-05)
(0.000776533 0.00093912 -3.92809e-05)
(0.00174162 -0.00140114 -0.000217036)
(0.000829615 -7.99578e-05 1.4372e-05)
(0.000405542 -2.27683e-05 1.91204e-05)
(0.000463637 -7.0687e-05 3.34517e-05)
(0.000604668 -4.80956e-05 5.02463e-05)
(0.000272191 -2.39526e-05 1.19124e-05)
(0.000843752 -1.0177e-06 -1.26971e-06)
(0.000593789 -2.08333e-06 -1.3188e-06)
(0.00115237 -2.0055e-05 -1.5027e-06)
(0.00060027 -3.13943e-05 -4.48719e-06)
(0.000622679 -2.47949e-05 -4.79394e-06)
(0.00101761 -6.29553e-05 -4.4611e-06)
(0.00105916 -4.8236e-05 -3.86018e-06)
(0.000565067 -2.28649e-05 -4.33028e-06)
(0.000995686 -4.99717e-06 -8.47325e-07)
(0.000931351 -3.81617e-05 -5.33911e-06)
(0.00082638 6.65948e-06 -9.09908e-08)
(0.000848595 1.94221e-05 -8.66327e-07)
(0.00110832 1.8986e-05 1.03508e-07)
(0.000821927 -3.00224e-07 1.20223e-08)
(0.000813176 1.10867e-07 -2.32319e-07)
(0.00109749 -6.27369e-07 1.63823e-07)
(0.000818531 -3.39532e-07 3.70219e-08)
(0.000819085 3.29522e-07 1.16433e-07)
(0.00109353 1.25182e-07 1.76129e-07)
(0.000816018 -6.5405e-07 3.9632e-08)
(0.000816039 1.25085e-07 4.45002e-08)
(0.00108969 -9.04047e-07 1.70696e-07)
(0.000813561 -4.85544e-07 4.57869e-08)
(0.0008147 3.7875e-07 5.89524e-08)
(0.00108655 -7.83183e-07 1.70252e-07)
(0.000811842 -3.34787e-07 4.83646e-08)
(0.00081288 -6.32764e-07 4.97545e-08)
(0.00108375 -5.1473e-07 1.77672e-07)
(0.000810442 -2.19226e-07 4.22602e-08)
(0.000811231 -3.99671e-07 5.21454e-08)
(0.0010819 -4.05212e-07 1.78977e-07)
(0.000808275 -2.12866e-08 4.39912e-08)
(0.00080959 3.25814e-07 4.69103e-08)
(0.00107946 -2.08998e-07 1.74204e-07)
(0.000806923 2.08559e-07 6.65232e-08)
(0.000807994 -3.22567e-07 5.27792e-08)
(0.00107706 1.15108e-07 1.7934e-07)
(0.000805612 3.99638e-07 7.5376e-08)
(0.000806513 -4.61285e-07 5.53349e-08)
(0.0010754 3.97197e-07 1.80234e-07)
(0.000804184 3.57259e-07 4.98196e-08)
(0.000804792 -4.25014e-07 9.17144e-08)
(0.00107352 6.28191e-07 1.73908e-07)
(0.000802553 2.69918e-07 5.95863e-08)
(0.000803239 1.06205e-07 3.28714e-08)
(0.00107142 3.06339e-07 1.81655e-07)
(0.000801143 2.01622e-07 4.41231e-08)
(0.000801826 -2.36052e-07 5.99646e-08)
(0.00106943 4.14066e-07 1.80566e-07)
(0.000799545 1.26318e-07 1.22327e-07)
(0.000800335 1.98298e-07 2.21655e-08)
(0.00106736 1.38114e-07 1.65512e-07)
(0.000798377 1.84606e-07 1.50656e-07)
(0.000798997 -1.28259e-06 1.48743e-07)
(0.0010654 2.51811e-07 2.5298e-07)
(0.000797161 1.70242e-07 6.06823e-08)
(0.000797614 4.12857e-07 6.47337e-08)
(0.00106394 3.24154e-07 1.17689e-07)
(0.000795635 1.21484e-07 7.17039e-08)
(0.000796201 -4.06345e-08 5.65922e-08)
(0.00106212 1.99124e-07 2.12605e-07)
(0.000794012 2.48668e-08 5.72924e-08)
(0.000794718 -2.09206e-07 5.12272e-08)
(0.00105984 1.65083e-07 2.50312e-07)
(0.00079269 -1.56075e-07 4.34362e-08)
(0.000793277 5.78622e-08 5.33039e-08)
(0.0010578 -6.63771e-08 1.62874e-07)
(0.00079133 -5.62529e-07 4.97091e-08)
(0.000791805 -1.87971e-07 5.27177e-08)
(0.00105611 -3.25289e-07 1.76741e-07)
(0.000789502 -6.77705e-07 6.7806e-08)
(0.000790388 1.58348e-06 -5.48529e-09)
(0.00105392 -1.17302e-06 1.54718e-07)
(0.000788004 -4.45975e-07 1.08551e-07)
(0.000789009 -3.34425e-07 7.23198e-08)
(0.00105154 -6.46017e-07 1.81157e-07)
(0.000787212 -3.25968e-07 8.46213e-08)
(0.000787848 -5.79234e-09 1.08047e-07)
(0.00105014 -5.50176e-07 2.59599e-07)
(0.000786088 5.57338e-08 1.18517e-07)
(0.00078693 -2.16881e-08 5.16629e-08)
(0.00104885 -3.17477e-07 2.31294e-07)
(0.000784897 4.03852e-07 2.37073e-07)
(0.000785686 5.40708e-07 2.46568e-07)
(0.00104724 5.07899e-07 1.3496e-07)
(0.000783589 3.23192e-07 1.60189e-07)
(0.000784124 6.47471e-07 1.90971e-07)
(0.00104562 6.38461e-07 1.39464e-07)
(0.000782033 1.34068e-07 4.35039e-08)
(0.00078262 3.33536e-07 6.7874e-08)
(0.00104363 2.56396e-07 1.71431e-07)
(0.000780679 1.60703e-07 4.10324e-08)
(0.00078131 -2.36149e-08 4.42485e-08)
(0.00104158 1.05371e-07 1.70614e-07)
(0.000779457 2.55489e-07 4.70922e-08)
(0.000780012 -1.26041e-07 4.96029e-08)
(0.00103985 3.12442e-07 1.74448e-07)
(0.000778025 3.45047e-07 3.99462e-08)
(0.000778749 2.25288e-07 5.53814e-08)
(0.00103817 3.77282e-07 1.76873e-07)
(0.000776662 5.49236e-07 5.06725e-08)
(0.000777486 4.89724e-07 3.37933e-08)
(0.0010362 6.05237e-07 1.60953e-07)
(0.000774913 4.63449e-07 6.51469e-08)
(0.000775756 -5.96231e-07 4.98056e-08)
(0.001034 8.78739e-07 1.8648e-07)
(0.00077376 1.47037e-07 5.95332e-08)
(0.000774157 4.85884e-09 6.05144e-08)
(0.00103211 3.17521e-07 1.68075e-07)
(0.000772279 -6.22894e-08 4.97165e-08)
(0.000772867 4.40019e-07 6.4324e-08)
(0.00103033 3.91283e-08 1.61554e-07)
(0.000771318 -2.81198e-07 8.65539e-08)
(0.000771767 -1.89386e-07 1.12682e-07)
(0.00102861 -2.34272e-07 2.21146e-07)
(0.000770143 -2.91294e-07 1.02568e-07)
(0.000770866 -1.87929e-07 1.1817e-07)
(0.00102735 -5.70063e-07 1.40172e-07)
(0.000768601 -1.86613e-07 6.24424e-08)
(0.000769471 -2.63335e-07 7.487e-08)
(0.00102548 -2.63539e-07 2.1164e-07)
(0.000767207 -1.05498e-07 5.97153e-08)
(0.000768026 -5.27446e-08 8.94939e-08)
(0.00102348 -2.65358e-07 1.75181e-07)
(0.000766013 -1.07859e-07 5.00159e-08)
(0.000766621 2.46733e-07 6.76342e-08)
(0.0010218 -1.14938e-08 1.22263e-07)
(0.000764569 -2.93004e-07 6.03617e-08)
(0.000765117 -4.14409e-07 4.42312e-08)
(0.00101997 -2.29089e-07 1.74918e-07)
(0.000762997 -3.26679e-07 5.56845e-08)
(0.000763673 4.05412e-07 7.6142e-08)
(0.00101787 -5.10584e-07 2.47878e-07)
(0.000762721 9.57891e-08 5.84551e-08)
(0.00101651 -3.40382e-07 8.08515e-08)
(0.0050322 -0.0011314 0.000294659)
(0.000889879 -0.0029748 -0.000297793)
(0.00200611 -0.00806544 -0.00957955)
(0.00477937 0.0002553 -3.14366e-05)
(-0.000740504 -0.0130696 0.000902817)
(0.00207403 0.00326432 0.00030961)
(-0.0044474 -0.00102276 0.000240723)
(-0.00764383 -0.00977516 -0.000176768)
(-0.00606372 -0.00249736 0.000352392)
(-0.00700789 -0.0216911 -0.000752949)
(0.00480921 -0.00898124 -0.0043405)
(0.0018128 -0.00835702 -0.00204804)
(-0.000366069 -0.00941381 0.0137752)
(0.00511411 0.00339143 -0.0019572)
(-0.00979172 0.000930348 -1.57637e-05)
(0.00118289 0.00338731 0.000452985)
(-0.00476476 -0.005447 0.00123809)
(0.0114368 0.00392549 0.00171951)
(0.0118967 0.000377684 -0.000212181)
(0.00690589 0.00299052 0.000445258)
(0.00428573 -0.000236391 0.000328936)
(0.0076293 0.00311798 0.000696292)
(-0.00313851 -0.000295304 -3.26489e-05)
(0.00245649 -0.00346833 0.000260411)
(0.00218362 -0.00560682 0.00079569)
(-0.00774215 0.00375896 0.000304637)
(-0.0006266 0.000131061 -0.000364724)
(-0.00855523 0.0046359 0.000315067)
(0.00248731 -0.00385245 0.000420469)
(0.00289293 -0.00668077 0.000315349)
(0.00373323 -0.0011397 0.000296338)
(0.0032415 -0.00497992 0.000266464)
(0.00486681 -0.000197653 0.000503533)
(0.00549101 -0.0034575 0.000195738)
(0.00683737 -0.00140191 0.00106996)
(0.00287801 -0.00208572 -0.000393209)
(0.00078029 0.00242995 -4.8985e-05)
(-0.000901445 0.00106353 -0.000198743)
(-0.00667682 0.00808396 -4.73539e-05)
(-0.00127988 0.00375478 -0.00056802)
(-0.00172117 -0.00268687 -9.75654e-06)
(0.000679515 -0.00201065 -4.43035e-05)
(0.00051951 -0.000831954 -4.13182e-05)
(0.00181857 -0.00276334 3.00174e-05)
(0.000570871 -0.00257662 1.8603e-05)
(0.000814595 -0.000107579 4.88279e-05)
(0.000801009 -3.66697e-05 1.37771e-05)
(0.00140939 0.000355045 2.41782e-05)
(0.00115572 -1.70023e-05 -5.32054e-05)
(0.00113226 -6.05858e-05 1.36511e-05)
(0.000312701 -1.58051e-05 -2.103e-06)
(0.000469684 -8.67131e-06 -3.18e-06)
(0.000454588 -1.73753e-05 1.28175e-07)
(0.000759291 -6.83555e-06 -9.36439e-07)
(0.000324708 1.16195e-06 -2.57978e-06)
(0.000560489 -4.00043e-05 -2.97911e-06)
(0.000586508 3.88282e-06 -3.03564e-06)
(0.000811512 3.71378e-06 -1.00786e-06)
(0.000873589 -8.00576e-06 -1.44712e-06)
(0.00115253 1.20324e-05 -9.25594e-07)
(0.000584737 -5.87983e-06 -4.06214e-06)
(0.000592841 -6.42379e-07 -4.7762e-06)
(0.00095712 -1.89455e-05 -5.07119e-06)
(0.000977182 -7.97243e-06 -6.09056e-06)
(0.000815259 -1.36337e-06 -1.28022e-07)
(0.00080679 -5.22697e-06 -3.57338e-07)
(0.00107005 -3.29113e-06 8.14281e-08)
(0.000815453 -7.59661e-07 1.23935e-07)
(0.000819849 -2.44891e-06 1.73976e-07)
(0.00109038 -1.03153e-06 2.13402e-07)
(0.0008149 -9.38436e-07 6.38159e-08)
(0.000815823 -1.38726e-06 1.91891e-08)
(0.00108655 -1.44828e-06 1.91179e-07)
(0.000813961 -7.60129e-07 6.2923e-08)
(0.000814929 -5.96539e-07 6.63963e-08)
(0.00108636 -1.33496e-06 1.88689e-07)
(0.000812179 -4.91363e-07 5.35345e-08)
(0.000813221 -4.15131e-07 5.31917e-08)
(0.00108446 -8.68921e-07 1.80204e-07)
(0.000810434 -3.93365e-07 5.67972e-08)
(0.000811357 -2.07685e-07 5.19479e-08)
(0.00108198 -5.57855e-07 1.79852e-07)
(0.000809208 -2.85707e-07 5.56963e-08)
(0.000809727 -1.74572e-07 5.511e-08)
(0.00108008 -5.65506e-07 1.8404e-07)
(0.000807616 -1.26385e-07 4.15901e-08)
(0.000808194 -2.6066e-07 5.11932e-08)
(0.00107824 -2.43261e-07 1.77988e-07)
(0.000805746 -1.20673e-07 7.16616e-08)
(0.000806522 1.81887e-07 3.92671e-08)
(0.00107596 -1.33019e-07 1.62805e-07)
(0.00080369 -1.14574e-07 7.4785e-08)
(0.000804801 3.96703e-07 8.91322e-08)
(0.00107321 -2.34599e-07 1.67648e-07)
(0.000802622 -4.43797e-08 3.3241e-08)
(0.000803327 -3.22823e-07 3.80872e-08)
(0.00107113 -1.11103e-07 1.69788e-07)
(0.000800927 3.3612e-08 3.80191e-08)
(0.000801924 1.72026e-08 5.1205e-08)
(0.00106933 -3.03008e-08 1.77599e-07)
(0.000799757 1.58532e-07 4.85408e-08)
(0.00080049 -1.06702e-07 4.88419e-08)
(0.0010674 1.02067e-07 1.71922e-07)
(0.000798305 2.10835e-07 6.28478e-08)
(0.000799062 -6.82737e-08 1.55231e-08)
(0.0010657 3.0953e-07 9.14551e-08)
(0.000796601 1.29665e-07 6.06462e-08)
(0.000797512 -3.56775e-08 7.41237e-08)
(0.0010634 2.72814e-07 2.30043e-07)
(0.000795324 2.66384e-08 3.61172e-08)
(0.000796071 -1.23646e-07 3.59419e-08)
(0.0010614 8.1444e-08 1.68007e-07)
(0.000793917 -2.94238e-08 4.72381e-08)
(0.000794648 -1.25257e-07 2.88489e-08)
(0.00105963 -3.08427e-08 1.68446e-07)
(0.000792511 -3.99525e-08 6.25856e-08)
(0.000793264 1.05448e-07 6.47793e-08)
(0.00105772 -4.32531e-08 1.714e-07)
(0.000790747 -5.71543e-08 -2.45834e-09)
(0.000791784 -1.10693e-08 7.02452e-08)
(0.00105542 -3.24069e-08 1.9435e-07)
(0.000789995 1.79775e-07 -9.95993e-10)
(0.000790683 -8.32555e-07 -2.37155e-08)
(0.00105382 -8.19319e-08 2.88384e-07)
(0.000788611 5.86448e-07 7.18043e-08)
(0.000789516 -1.17783e-06 4.30627e-08)
(0.00105251 6.03015e-07 2.33774e-07)
(0.000787699 7.22638e-07 7.51062e-08)
(0.000788015 -8.57246e-07 5.14113e-08)
(0.00105074 9.90606e-07 1.93031e-07)
(0.00078654 5.6645e-07 1.79652e-07)
(0.000786732 -1.78346e-06 2.39493e-08)
(0.00104955 9.39273e-07 2.7981e-07)
(0.000785013 3.61291e-07 2.00483e-07)
(0.000785427 4.42698e-07 1.68693e-07)
(0.00104779 5.68492e-07 1.94652e-07)
(0.000783062 2.0397e-07 9.86941e-08)
(0.000783926 2.69213e-07 7.99984e-08)
(0.00104512 3.91423e-07 2.52475e-07)
(0.000781879 1.18127e-07 6.86259e-08)
(0.000782512 7.53682e-08 6.87305e-08)
(0.00104306 1.3468e-07 1.75644e-07)
(0.000780662 1.20423e-07 5.28174e-08)
(0.000781313 -1.08118e-07 1.53828e-07)
(0.00104156 1.52582e-07 1.6629e-07)
(0.000779281 6.65403e-08 5.78904e-08)
(0.000779944 -3.0371e-08 1.52808e-07)
(0.00103976 1.57264e-07 1.67996e-07)
(0.000778134 3.07322e-08 4.92352e-08)
(0.000778704 1.94532e-08 5.36142e-08)
(0.00103803 2.28798e-08 1.68575e-07)
(0.00077695 -9.84235e-08 3.29214e-08)
(0.000777324 3.7375e-07 1.69395e-08)
(0.0010365 4.19528e-08 1.65082e-07)
(0.000774613 -1.11447e-07 4.51697e-08)
(0.000775741 1.00496e-06 2.79032e-08)
(0.00103405 -2.9772e-07 1.45147e-07)
(0.000773463 5.78312e-08 6.5304e-08)
(0.000774369 -1.74215e-07 5.74839e-08)
(0.00103167 2.16835e-08 1.66069e-07)
(0.000772062 1.90984e-07 1.27274e-07)
(0.000773033 2.96693e-07 5.22022e-08)
(0.00102997 1.36135e-07 1.85665e-07)
(0.000771528 2.52344e-07 1.44297e-07)
(0.000771842 7.44051e-07 1.57058e-07)
(0.00102871 4.11755e-07 2.91633e-08)
(0.000770253 1.57862e-07 9.0486e-08)
(0.000770746 3.77878e-07 1.87775e-08)
(0.00102753 3.48696e-07 1.22322e-07)
(0.000768861 1.23509e-07 1.01917e-07)
(0.000769426 -4.28464e-08 2.77473e-08)
(0.0010257 1.9775e-07 1.57244e-07)
(0.000767394 1.45658e-07 9.74195e-08)
(0.000768052 -7.84051e-08 8.1879e-08)
(0.00102387 2.52414e-07 1.81571e-07)
(0.000765763 1.23458e-07 6.18566e-08)
(0.000766592 -2.52535e-08 5.67908e-08)
(0.00102175 2.11626e-07 2.14018e-07)
(0.000764214 8.55901e-08 6.00018e-08)
(0.000765069 -7.31875e-08 3.20555e-08)
(0.0010195 1.7495e-07 1.61073e-07)
(0.000763195 6.99293e-08 7.8918e-08)
(0.000763652 -2.17902e-07 5.44161e-08)
(0.00101772 9.65344e-08 1.82694e-07)
(0.000762633 1.32739e-07 6.90118e-08)
(0.00101652 1.0418e-07 1.5851e-07)
(-0.00300417 -0.00181208 0.00135513)
(-0.00190838 0.0033627 0.000262318)
(0.000921898 0.000606457 -6.73051e-05)
(0.00226629 0.000380232 -0.00381575)
(-0.00835222 -0.00163814 6.36275e-05)
(-0.00461117 0.0070797 -0.00167322)
(-0.00190838 0.0033627 0.000262318)
(-0.00190838 0.0033627 0.000262318)
(-0.00190838 0.0033627 0.000262318)
(-0.000539444 -0.00346059 -0.00180341)
(-0.00652182 -0.0035506 0.000596714)
(-0.00114064 0.00153273 0.00114198)
(-0.015229 -0.0051839 6.37383e-05)
(-0.00724885 -0.0104868 -0.00017672)
(-0.00208677 -0.00521591 -0.00086745)
(-5.89782e-05 -0.00392664 0.000652623)
(0.00543493 0.000596144 -0.00121536)
(0.0117995 -0.00115442 -0.000450618)
(0.00978185 -0.00481918 -0.00168687)
(0.00419944 -0.00372221 -0.00103935)
(-0.00426473 -0.00261861 0.0205781)
(0.0197396 0.00317617 -0.00265688)
(0.000704331 -0.0050378 0.00319047)
(0.00795696 -0.00326327 -0.0209039)
(0.00563637 0.00100666 -0.000470349)
(0.00083103 -0.0095418 -0.00336787)
(0.0162137 0.0113911 -0.00126121)
(0.00399544 0.00338588 0.000404957)
(0.00846567 -0.00103172 7.06431e-05)
(-0.00889743 0.011327 0.0068241)
(0.013042 -0.00359621 0.000229541)
(0.00332652 0.00697192 0.00149235)
(0.0108931 0.00974259 0.00105521)
(0.00443104 -0.00220894 9.74034e-05)
(0.00949969 -0.00128408 -0.000108961)
(0.00670688 -0.00276874 0.000933288)
(0.00108672 -0.00147701 -0.00289225)
(0.00494238 0.0115208 -0.00474405)
(0.00480351 0.00661622 -0.000258185)
(0.00313119 0.00229728 -3.84739e-05)
(0.0122498 0.00589739 -0.000404138)
(-0.00493687 0.00548529 -0.000147944)
(0.013372 0.00724367 -0.000244554)
(-0.00485051 0.00755088 0.000402022)
(-0.00546331 0.00291449 0.000268258)
(0.00724642 -9.36787e-06 0.000466785)
(0.000695243 0.0075171 0.00130308)
(0.000100177 -0.000392672 -0.000201474)
(-0.00219943 -0.00152465 9.14869e-05)
(-0.00184929 -0.00200875 8.57915e-05)
(-0.00102811 -0.00441273 -0.000128772)
(-0.00422271 -0.00284553 0.000241172)
(0.000733925 0.000506957 4.88433e-07)
(0.00107558 0.000382264 5.44058e-05)
(0.000610354 0.000381899 8.41035e-06)
(0.00119707 0.000795067 -1.76767e-05)
(0.000944174 0.000618157 3.48193e-05)
(0.000357258 -2.18515e-05 3.93577e-06)
(0.000497791 -9.47574e-06 -3.38528e-06)
(0.000490129 -5.4999e-06 1.30151e-06)
(0.000775669 -1.8817e-05 4.71872e-07)
(0.000363849 -2.06396e-05 4.85724e-06)
(0.000665545 -5.29041e-05 1.374e-05)
(0.000691071 -3.69783e-05 1.4024e-05)
(0.000459413 -2.58808e-05 -2.14027e-07)
(0.000823043 -1.16479e-05 -7.96955e-07)
(0.000872914 -1.5036e-05 -1.69282e-06)
(0.00117568 -2.53713e-05 -1.05136e-06)
(0.000613549 -1.23555e-05 -3.772e-06)
(0.000599418 -7.74644e-07 -4.99849e-06)
(0.00101746 -2.40901e-05 -4.77088e-06)
(0.000986902 1.95662e-06 -6.08844e-06)
(0.000820819 -4.25313e-06 -5.55136e-08)
(0.000816149 -2.62816e-06 -2.70448e-07)
(0.00108105 -8.23252e-06 4.90703e-08)
(0.000818368 -2.09312e-06 6.92804e-08)
(0.000822577 -1.80269e-06 1.34025e-07)
(0.00109586 -4.63096e-06 2.05073e-07)
(0.000816104 -8.76584e-07 2.17541e-08)
(0.000817358 -5.4389e-07 1.22095e-07)
(0.00108933 -1.84116e-06 1.76119e-07)
(0.000814244 -4.56283e-07 5.66692e-08)
(0.000815462 -3.43588e-07 8.63122e-08)
(0.00108729 -1.02106e-06 1.83162e-07)
(0.00081237 -1.34085e-07 5.16054e-08)
(0.000813627 -8.90517e-08 5.29538e-08)
(0.00108473 -5.10071e-07 1.80514e-07)
(0.000810545 7.03812e-08 5.02597e-08)
(0.000811614 9.92945e-08 3.0145e-08)
(0.00108229 -5.04769e-08 1.78747e-07)
(0.000808741 -2.84589e-08 5.06081e-08)
(0.000809604 1.4458e-07 3.96966e-08)
(0.00107986 1.06068e-07 1.77318e-07)
(0.000807129 -2.9315e-07 4.8874e-08)
(0.000807864 -1.59986e-07 5.07659e-08)
(0.00107761 -2.49939e-07 1.77058e-07)
(0.000805573 -4.94594e-07 5.67217e-08)
(0.000806271 7.25068e-08 5.06979e-08)
(0.00107541 -5.37072e-07 1.87631e-07)
(0.000804298 -5.64906e-07 5.24507e-08)
(0.000804715 4.05952e-08 6.51669e-08)
(0.00107355 -7.6167e-07 1.81555e-07)
(0.000802733 -4.32916e-07 5.6047e-08)
(0.000803495 -4.77644e-07 1.74542e-08)
(0.00107167 -7.23433e-07 1.93866e-07)
(0.000801408 -2.08881e-07 6.20285e-08)
(0.000802205 -4.52437e-08 7.05456e-08)
(0.00106969 -4.16191e-07 1.67419e-07)
(0.000799826 -1.04759e-07 1.58348e-08)
(0.000800622 4.35092e-08 6.79036e-08)
(0.00106778 -1.61032e-07 1.7611e-07)
(0.000798237 -6.85671e-08 2.67803e-08)
(0.000799108 6.68898e-07 3.42924e-08)
(0.00106561 -1.76062e-07 1.36581e-07)
(0.000797009 4.11718e-08 4.94316e-08)
(0.00079765 -4.72189e-07 7.79716e-08)
(0.00106365 -7.62206e-08 1.87647e-07)
(0.000795386 1.64577e-07 2.86758e-08)
(0.000796226 9.40173e-08 5.75156e-08)
(0.00106174 1.25671e-07 1.77285e-07)
(0.000793935 2.58685e-07 4.63787e-08)
(0.000794765 -1.64417e-08 4.75601e-08)
(0.00105968 2.66138e-07 1.70554e-07)
(0.000792652 3.42961e-07 7.24371e-08)
(0.000793368 -2.75082e-09 6.41198e-08)
(0.0010578 4.00973e-07 1.71524e-07)
(0.00079147 6.24735e-07 4.90178e-08)
(0.000792133 -4.46819e-07 5.14697e-08)
(0.00105607 5.4381e-07 1.86297e-07)
(0.00079047 7.57418e-07 2.03222e-08)
(0.000790846 -2.15607e-06 7.77309e-09)
(0.00105471 1.19965e-06 2.33322e-07)
(0.000788759 6.85742e-07 2.26671e-08)
(0.000789423 9.7659e-08 2.66615e-08)
(0.00105288 8.99284e-07 1.12993e-07)
(0.000787169 7.09952e-07 2.63025e-10)
(0.000788042 -3.19251e-07 4.43512e-08)
(0.00105056 9.85199e-07 1.54721e-07)
(0.000785487 4.58635e-07 1.29441e-08)
(0.000786416 -5.38427e-07 1.36694e-08)
(0.00104831 9.64333e-07 1.13034e-07)
(0.000784484 9.72645e-08 4.82356e-08)
(0.000784974 -5.15282e-08 1.00492e-07)
(0.00104655 3.0054e-07 1.76172e-07)
(0.000783255 3.85769e-08 5.00384e-08)
(0.000783852 4.1524e-08 5.01036e-08)
(0.00104508 -3.25481e-08 1.77559e-07)
(0.000781989 8.71215e-08 1.53906e-07)
(0.000782573 3.26947e-07 5.58138e-08)
(0.00104333 1.37331e-07 1.46755e-07)
(0.000780604 4.89886e-08 2.53819e-07)
(0.000781265 8.74724e-09 1.53216e-07)
(0.00104161 8.83796e-08 1.6691e-07)
(0.000779267 -1.72379e-08 1.48563e-07)
(0.000779862 6.19302e-08 1.29795e-07)
(0.00103969 2.31037e-08 1.64315e-07)
(0.000778045 -2.58502e-07 2.13299e-08)
(0.000778403 -1.01849e-07 5.77435e-08)
(0.00103803 -9.74358e-08 1.69169e-07)
(0.00077608 -4.83357e-07 1.19179e-08)
(0.000777045 2.46939e-06 5.37711e-08)
(0.0010358 -6.03914e-07 7.63678e-08)
(0.000775452 -2.79626e-07 4.02082e-08)
(0.000775997 -1.24295e-07 -8.57613e-08)
(0.00103397 -6.72831e-07 1.87871e-07)
(0.000774019 6.90787e-08 4.43837e-08)
(0.000774805 -9.74366e-08 5.54822e-08)
(0.00103265 -6.05599e-08 1.73116e-07)
(0.000772626 4.05819e-07 8.19537e-08)
(0.000773452 3.01759e-07 2.16919e-07)
(0.00103081 2.8167e-07 1.7433e-07)
(0.000771172 5.63644e-07 3.15815e-08)
(0.000772037 -1.12918e-06 7.86517e-08)
(0.00102887 8.36051e-07 3.15401e-07)
(0.000769906 3.37175e-07 -4.3964e-08)
(0.000770461 -1.6267e-06 -8.87986e-08)
(0.00102708 6.83549e-07 3.07641e-07)
(0.000768674 1.52584e-07 7.69278e-09)
(0.000769194 -2.60709e-08 1.08242e-08)
(0.00102535 2.48333e-07 1.57619e-07)
(0.000767252 1.60859e-07 4.12579e-08)
(0.000768062 1.90775e-07 4.22747e-08)
(0.00102349 1.81628e-07 1.55977e-07)
(0.000765844 1.76907e-07 2.69972e-08)
(0.000766611 1.03837e-07 2.33591e-08)
(0.0010217 2.33406e-07 1.64409e-07)
(0.000764536 2.42808e-07 2.6463e-08)
(0.000765151 -1.35534e-07 -1.32343e-09)
(0.00101982 2.20256e-07 1.68597e-07)
(0.000762935 2.81854e-07 4.45055e-08)
(0.000763698 1.38466e-07 2.44708e-08)
(0.00101777 4.07743e-07 1.64267e-07)
(0.000762283 3.77004e-07 7.08298e-08)
(0.00101626 3.29299e-07 1.2561e-07)
(-0.00190838 0.0033627 0.000262318)
(0.00253278 -0.00459339 -5.1033e-05)
(-0.00190838 0.0033627 0.000262318)
(0.00117996 0.0103075 0.00116254)
(-0.00530865 0.0121994 -0.000404505)
(0.000990285 0.011459 -0.00191852)
(0.0227869 0.00681338 0.000604298)
(0.00109401 0.0021192 0.000805665)
(-8.11926e-05 -0.00141678 0.00224143)
(-0.0144165 0.0106566 0.000591711)
(-0.00341911 0.0149549 0.00143325)
(0.0045466 -0.0059965 0.00107184)
(-0.00529732 -0.00688719 0.00130336)
(-0.0087028 -0.0202894 0.000906816)
(0.00824205 -0.0240047 -0.000288696)
(-0.00222254 -0.0364729 -0.00073064)
(0.00750036 -0.00313791 0.000113265)
(0.00846846 -0.00020307 -0.000306913)
(0.0103946 -0.00371054 2.52557e-05)
(0.00846174 -0.000848016 0.000243484)
(0.00560426 -0.010744 8.13334e-05)
(-0.00412503 -0.00328103 6.08686e-05)
(-0.00171524 -0.0187079 0.000215455)
(0.00101208 -0.00743123 -1.77535e-05)
(-0.00191778 -0.00706916 -0.0010629)
(-0.00367549 -0.014748 -0.000299616)
(-0.00845304 -0.0103733 -0.000545086)
(-0.000907223 0.00207243 -0.000196625)
(-0.000760424 -0.00131684 2.18738e-05)
(-0.00524158 0.000669824 5.86747e-05)
(-0.00237387 -0.000509938 -6.21066e-05)
(-0.00458321 -0.00360622 -0.000356539)
(-0.0057712 0.00025747 -8.72977e-05)
(0.000400324 0.000382689 -1.85583e-05)
(0.000826955 0.000780247 -7.75746e-05)
(0.000443359 0.000319558 -2.82232e-06)
(0.000661453 0.00113438 -9.36029e-06)
(0.000880135 0.000557424 4.63946e-05)
(0.00038413 -4.311e-05 2.24587e-05)
(0.000389204 -2.21409e-05 3.91777e-06)
(0.00033399 -1.31949e-05 3.92582e-06)
(0.000554552 -3.40456e-05 9.72278e-06)