/*--------------------------------*- C++ -*----------------------------------*\
| =========                 |                                                 |
| \\      /  F ield         | OpenFOAM: The Open Source CFD Toolbox           |
|  \\    /   O peration     | Version:  5.0                                   |
|   \\  /    A nd           | Web:      www.OpenFOAM.org                      |
|    \\/     M anipulation  |                                                 |
\*---------------------------------------------------------------------------*/
FoamFile
{
    version     2.0;
    format      ascii;
    class       surfaceScalarField;
    location    "1.9";
    object      alphaPhi10;
}
// * * * * * * * * * * * * * * * * * * * * * * * * * * * * * * * * * * * * * //

dimensions      [0 3 -1 0 0 0 0];

internalField   nonuniform List<scalar> 
27883
(
2.15142e-08
1.29885e-08
2.18565e-08
1.46664e-08
-9.47036e-09
9.33056e-09
6.12862e-09
1.35593e-08
1.09996e-08
1.3738e-08
-1.91007e-08
-1.11032e-08
-3.35173e-08
-1.15505e-08
-9.3398e-09
-2.97509e-08
6.4848e-09
-1.71454e-08
5.90194e-09
-6.41198e-09
-7.19424e-11
2.51541e-08
-4.60775e-09
1.70416e-10
-9.3339e-11
8.18572e-09
-6.93683e-16
-1.12002e-19
-1.56043e-17
1.89737e-17
-4.56101e-15
5.31231e-15
-3.79419e-17
5.71032e-24
-2.15396e-21
-1.43338e-22
-4.44335e-21
-2.76903e-21
2.08167e-21
-4.68216e-21
1.37501e-26
-3.34849e-25
2.71779e-27
1.17076e-27
-9.90583e-28
-1.38026e-30
1.23357e-30
-1.99354e-30
-7.15407e-32
6.01513e-35
-1.10089e-33
-4.0319e-33
1.56643e-38
-1.62729e-37
6.43796e-38
6.55116e-42
-3.74785e-41
-6.59839e-40
2.8042e-45
-9.80337e-45
1.54962e-43
1.19728e-48
-1.97521e-48
3.53048e-46
5.0866e-52
-7.18079e-52
-2.06908e-50
2.16364e-55
-2.1683e-55
-8.71038e-53
9.16264e-59
-4.26427e-59
-2.54177e-55
3.85657e-62
-1.30589e-62
-1.51653e-59
1.63743e-65
-6.84306e-67
1.03197e-62
6.89794e-69
2.36419e-70
3.66192e-67
2.87214e-72
2.27759e-73
-1.37282e-68
1.18971e-75
-5.67948e-77
3.82474e-73
5.63339e-79
-7.88847e-80
7.20868e-75
3.37983e-82
6.40014e-83
-2.44728e-77
1.17101e-85
2.09138e-86
-5.81276e-81
5.08136e-89
5.35082e-91
-1.2394e-84
3.06792e-92
2.58312e-94
3.04889e-87
1.23253e-95
-1.67313e-96
8.67871e-91
8.76704e-99
3.28217e-99
-6.37373e-94
2.81082e-102
4.04123e-103
-4.49629e-99
5.61369e-105
-2.02724e-107
1.18734e-100
8.08254e-108
-2.87068e-108
-2.21427e-103
1.68664e-111
2.17239e-112
-1.03848e-106
1.32006e-114
-3.25096e-116
-6.43505e-110
1.42148e-117
6.82096e-119
2.82538e-113
1.84105e-120
2.81522e-121
-3.64528e-116
2.07675e-124
-1.77396e-124
7.9171e-121
9.22164e-128
-1.71341e-128
9.69201e-127
1.11981e-130
6.27921e-132
-2.01288e-126
1.21293e-133
1.22246e-135
-3.67988e-129
1.67266e-136
2.40414e-137
5.19627e-133
5.29727e-139
1.68241e-139
-6.82836e-135
6.6719e-143
-2.22789e-144
-6.62935e-139
8.85516e-146
-1.72035e-147
-5.80399e-142
1.21711e-149
1.67017e-150
-2.7616e-145
1.59763e-152
-4.16862e-156
8.93806e-150
5.16597e-153
5.90689e-156
-6.22692e-151
5.14772e-158
-9.03152e-158
5.10205e-08
-4.11853e-09
3.90948e-09
4.44895e-09
3.94255e-09
5.04985e-09
1.47126e-09
-1.18485e-08
-2.06935e-08
5.99772e-09
4.98606e-08
2.26153e-08
1.18883e-08
2.72699e-08
1.54066e-08
-2.5798e-09
-1.89675e-08
-1.07258e-09
-1.17653e-09
3.68948e-09
-3.33587e-08
-3.95112e-08
-4.26276e-08
-3.00045e-08
-3.34428e-08
-2.85785e-08
-2.74599e-08
5.38731e-08
6.40894e-08
-4.62608e-08
-7.17904e-08
3.41156e-08
2.98993e-08
3.77419e-08
-6.99079e-08
-1.92266e-08
-1.93019e-09
-2.21608e-09
-2.75597e-09
6.53307e-10
4.80731e-09
2.41519e-14
2.62313e-15
1.78158e-08
2.61216e-15
1.78158e-08
8.67074e-22
-1.34845e-18
8.44109e-22
-3.10303e-19
9.00842e-20
1.80291e-19
1.70554e-18
-1.35017e-18
-1.35554e-18
-1.35039e-18
-2.55311e-26
-1.54725e-22
1.67832e-26
5.9265e-28
-3.57627e-26
-1.3992e-29
5.81317e-31
-9.80784e-30
-1.30168e-31
7.93114e-35
2.85495e-32
-1.23393e-34
1.13448e-38
1.63302e-35
-1.98324e-38
4.12585e-42
4.53e-40
-1.69127e-41
1.77011e-45
7.48188e-44
-1.72223e-45
7.69556e-49
1.0389e-46
3.02052e-47
3.31285e-52
-1.02393e-51
1.63298e-51
1.42192e-55
-5.15852e-55
1.43762e-53
6.0849e-59
-2.52003e-57
1.83707e-56
2.58295e-62
2.5596e-61
-3.9887e-60
1.09634e-65
-6.9053e-65
-2.3014e-63
4.67539e-69
-7.97031e-69
2.08332e-66
2.02282e-72
-5.22226e-71
-8.07625e-70
8.64076e-76
-1.43037e-74
1.62366e-72
3.69131e-79
1.43752e-79
-6.16752e-76
1.61244e-82
1.46831e-81
8.60585e-79
6.54893e-86
-1.68189e-85
2.74781e-82
2.85148e-89
-2.90231e-89
-1.90487e-85
1.44017e-92
6.58933e-93
-7.69355e-88
6.31948e-96
1.32346e-95
-1.72029e-91
3.55979e-99
3.18256e-100
-2.4719e-95
3.3801e-102
4.8524e-103
-7.73912e-98
8.17767e-106
-1.73224e-104
-1.00769e-101
5.82024e-109
-1.81918e-107
3.23181e-103
2.64401e-112
3.05188e-114
1.26564e-107
2.3735e-115
2.97067e-115
7.36717e-111
8.43846e-119
-5.66379e-119
-3.84765e-114
1.5055e-121
2.36469e-123
-9.08976e-121
1.83356e-123
-7.46314e-125
-5.05998e-120
1.35739e-127
-3.30873e-128
2.04524e-123
4.64244e-131
1.18735e-131
-6.16616e-127
3.11789e-134
7.04277e-135
-3.6196e-130
6.89615e-138
-1.1469e-138
7.87856e-136
2.83135e-141
3.42184e-142
4.19023e-139
1.60667e-144
1.06728e-144
1.08037e-138
1.19113e-147
-1.22261e-149
-5.06883e-142
1.64139e-150
-4.64288e-150
-1.88132e-145
-1.55775e-153
-1.12215e-153
-3.69258e-149
7.37697e-154
8.82329e-157
-6.58175e-152
7.71598e-158
-1.0486e-154
-9.69021e-09
3.86667e-09
1.00446e-08
6.23781e-09
-2.24978e-08
7.37031e-08
-4.45748e-09
1.15054e-07
-2.43966e-08
7.4233e-09
1.46017e-08
1.86866e-08
4.13831e-08
1.90412e-08
-2.77566e-08
-3.41985e-08
-1.72629e-08
-1.32445e-08
1.11019e-08
-2.04922e-08
6.19374e-10
4.98141e-09
-2.00659e-07
-4.1902e-08
-1.09653e-10
2.28355e-09
2.92043e-09
7.21575e-09
-9.73906e-09
-8.67545e-11
-4.06866e-13
1.43855e-09
1.45701e-11
1.43504e-09
3.49065e-19
-1.35007e-18
-5.74826e-09
-1.3627e-18
8.0969e-25
-8.8055e-22
-1.78331e-23
7.4062e-20
7.40647e-20
7.39196e-20
7.4013e-20
1.31643e-27
-1.58332e-25
-9.00682e-27
-5.20635e-29
-4.00669e-29
-2.75763e-30
8.44633e-32
7.76552e-32
-1.96063e-33
1.02962e-35
2.61232e-34
-1.12022e-36
9.71731e-40
2.63931e-38
-2.78795e-40
3.7571e-43
3.92199e-42
-1.17668e-43
1.58484e-46
9.48716e-46
-1.11176e-46
6.66932e-50
1.96766e-49
-6.92646e-51
2.7974e-53
1.72963e-53
-1.89963e-52
1.16936e-56
2.25052e-56
-3.42695e-56
4.87072e-60
3.02214e-61
-9.63535e-60
2.02379e-63
-4.64264e-64
5.48243e-63
8.38865e-67
-1.25164e-67
-2.35731e-65
3.46507e-70
2.83545e-70
-2.12567e-68
1.43006e-73
-4.37837e-74
1.02028e-71
5.87061e-77
-1.20636e-77
1.85933e-74
2.42089e-80
2.04512e-80
-9.28827e-78
9.87843e-84
-3.02098e-85
-4.52893e-81
4.03146e-87
-6.66868e-89
-1.44858e-86
1.72331e-90
-1.15021e-90
4.15023e-88
7.24582e-94
-3.20086e-94
-2.56085e-90
2.83214e-97
-1.59257e-97
4.34708e-96
1.68075e-100
-7.29872e-100
-4.07832e-99
3.65899e-103
2.6148e-104
-1.93094e-99
7.72191e-107
6.81803e-108
-3.01914e-102
2.66213e-110
-9.09162e-111
1.19809e-106
8.12339e-114
-3.15447e-114
2.23465e-109
2.85887e-117
2.37379e-119
-7.94019e-113
2.89453e-120
5.83676e-121
-1.17254e-116
9.06959e-123
5.15565e-124
-7.68409e-119
1.85877e-126
5.9708e-126
-3.24627e-122
5.80651e-130
-2.90793e-133
-3.23663e-125
7.13659e-133
1.26889e-132
-2.9772e-129
4.62232e-136
-4.09242e-135
-1.33959e-131
7.54802e-140
-9.10298e-139
2.84919e-136
5.6621e-143
3.6113e-143
2.66374e-137
4.73764e-146
1.7823e-145
1.12961e-142
2.18295e-148
6.63595e-150
-2.51133e-144
3.05389e-152
9.23923e-153
-1.50436e-147
2.93328e-153
-6.65613e-157
1.00179e-150
-3.04134e-157
1.10502e-154
2.48647e-08
5.20726e-10
4.18428e-09
1.21336e-08
2.52874e-08
2.57939e-08
2.58475e-08
-3.30951e-08
-1.66195e-08
-3.59927e-08
7.97653e-09
-3.19143e-08
-3.5402e-08
-3.50024e-08
-3.27011e-08
-3.74048e-08
-3.7439e-08
-3.71593e-08
5.96985e-09
5.38793e-09
1.94522e-08
5.76687e-09
2.2264e-08
-1.99097e-08
7.94593e-09
2.70431e-08
2.29033e-08
7.13933e-09
-2.40787e-08
-1.32605e-07
-4.96267e-08
1.67365e-07
-2.84539e-09
2.31664e-09
-1.63433e-08
3.1929e-09
-8.39697e-10
1.23023e-08
-2.35516e-11
-8.32963e-11
1.14589e-10
-8.251e-11
1.29143e-10
9.3199e-17
5.05803e-19
-1.96558e-08
-1.28949e-18
9.26719e-17
9.36459e-17
9.17716e-17
5.05264e-19
3.49641e-25
2.35668e-22
-3.44823e-22
2.70503e-19
2.68569e-19
2.69755e-19
2.6657e-19
2.97798e-26
1.42235e-25
1.27961e-26
1.15502e-28
1.62974e-27
2.86306e-30
3.1844e-32
8.48299e-31
-3.33861e-32
2.75169e-35
2.27155e-34
-3.55826e-36
3.85936e-39
7.89542e-38
-3.60467e-39
1.22798e-42
1.45019e-41
-4.02804e-42
5.36052e-46
3.60125e-45
-1.56129e-45
2.37418e-49
9.38045e-49
-8.02436e-49
1.04286e-52
2.3037e-52
-1.01641e-50
4.54211e-56
5.12409e-56
1.90734e-54
1.96506e-59
2.45092e-60
-8.49422e-58
8.45335e-63
3.72291e-63
-3.1241e-61
3.62817e-66
1.2597e-66
-4.52663e-65
1.5565e-69
1.50199e-69
-6.80529e-67
6.63567e-73
1.56516e-73
2.00738e-70
2.82053e-76
6.52298e-77
-2.04677e-73
1.17998e-79
-9.25653e-81
-3.29454e-76
5.11817e-83
-5.03551e-84
7.61904e-81
2.44825e-86
1.08279e-88
-6.09491e-83
9.81285e-90
-1.24834e-89
-3.44314e-86
4.43805e-93
1.00705e-93
3.19968e-90
3.55709e-96
3.03621e-97
-2.57906e-92
2.36273e-99
-1.16422e-100
-2.77499e-95
6.75325e-103
-2.17532e-102
-1.33131e-97
3.40021e-106
-3.92259e-108
-4.51074e-102
2.89067e-109
2.20627e-110
-2.92587e-105
8.45129e-113
-1.42702e-114
-3.35291e-108
4.00272e-116
6.17943e-118
-4.35922e-112
8.70992e-119
-3.95837e-120
-2.93156e-115
3.946e-121
7.21451e-122
-2.24193e-117
6.21394e-125
2.66443e-125
-3.55944e-121
2.86598e-128
5.22193e-130
-1.21316e-124
5.09398e-131
2.02612e-133
-5.59833e-127
7.92839e-135
-2.16434e-136
4.02825e-134
8.37283e-138
-1.54024e-139
2.43455e-135
6.11582e-141
8.78113e-142
-1.19976e-136
2.212e-144
6.91358e-146
-3.03881e-140
8.51596e-148
3.54396e-147
-7.74726e-143
4.47556e-151
2.25868e-151
-3.73408e-147
2.09164e-153
-1.9333e-154
-2.17654e-150
-9.35572e-157
-1.49179e-153
-1.90963e-08
-1.48169e-08
1.75043e-07
-6.36057e-08
1.73695e-08
-7.44269e-09
-8.24584e-09
-6.92517e-09
-6.0707e-09
-9.46083e-09
-6.60671e-08
-3.84968e-09
2.26922e-07
-3.24142e-08
-6.5504e-08
-2.94394e-09
-2.32345e-09
9.23903e-08
4.35635e-09
1.79733e-08
2.28447e-09
-2.09398e-08
-1.66103e-08
-3.35671e-08
-1.69412e-08
-8.58204e-09
-7.97742e-10
9.06477e-09
-1.23632e-09
-1.72381e-09
-4.29563e-09
-7.98936e-09
5.82299e-10
-5.96431e-08
-4.5647e-09
-1.80205e-08
-5.34818e-07
-1.29738e-07
2.84865e-07
3.86046e-07
3.89718e-09
3.06077e-09
4.51625e-09
5.98781e-09
-1.27675e-09
-1.31192e-08
1.68922e-09
-2.41238e-09
1.44478e-08
-2.37415e-09
1.6811e-10
-2.47949e-10
-1.12017e-10
2.34908e-11
5.65897e-16
-6.84544e-19
-2.17123e-08
7.83778e-19
5.81542e-16
8.43507e-16
4.94075e-16
-8.3961e-18
4.33837e-24
8.22371e-21
8.57305e-22
5.88635e-18
5.88503e-18
5.89182e-18
5.88153e-18
2.49946e-25
1.30821e-24
-7.70707e-26
1.05372e-27
1.67778e-27
-4.1723e-30
1.2717e-31
1.116e-30
5.55478e-31
2.091e-35
2.0288e-34
5.03436e-36
7.28656e-39
7.06943e-38
-1.57539e-38
2.85289e-42
1.93323e-41
-2.99767e-40
1.24073e-45
5.03085e-45
-1.74128e-43
5.44832e-49
1.03369e-48
-2.7323e-47
2.38125e-52
3.23519e-52
-1.51599e-50
1.0341e-55
1.03224e-55
2.08171e-53
4.47465e-59
-4.70463e-59
1.31112e-56
1.92909e-62
1.14025e-62
2.37938e-60
8.28334e-66
2.26954e-66
1.42548e-63
3.5264e-69
6.70998e-70
-8.96829e-67
1.50297e-72
6.31197e-74
6.65754e-70
6.46087e-76
1.42052e-78
-6.14451e-73
2.8306e-79
1.3892e-80
1.43754e-75
1.19811e-82
-5.34379e-85
-2.53094e-79
5.65827e-86
-1.77581e-87
-4.8903e-83
2.59226e-89
5.17511e-91
-2.99146e-85
1.3028e-92
1.64218e-93
-1.58303e-88
7.57871e-96
5.896e-96
-1.40264e-91
3.59049e-99
8.04021e-100
-5.33725e-96
5.76501e-102
-5.96853e-104
-9.25452e-97
7.9132e-106
-1.55682e-106
2.14903e-101
3.17773e-109
2.71435e-111
7.81657e-105
2.81889e-112
-1.01042e-113
-6.36387e-108
4.27282e-115
1.44678e-115
-3.61044e-110
7.91497e-119
-3.79266e-119
-8.52298e-114
1.91811e-122
3.1875e-123
5.11208e-120
1.54493e-125
7.82133e-127
1.96306e-121
4.55863e-129
-6.04539e-129
-1.92443e-126
2.18659e-135
-1.86987e-130
1.90423e-129
1.11553e-135
-8.72887e-134
-6.2916e-133
3.75045e-138
1.278e-137
-2.71458e-133
1.13742e-140
8.869e-141
1.64224e-136
8.22707e-144
-1.41642e-144
5.27245e-140
3.89376e-146
3.71279e-147
4.45121e-142
9.56961e-150
3.78246e-150
-1.38842e-145
6.59243e-153
2.65398e-153
-1.65083e-148
1.40765e-157
-1.61592e-151
-1.13317e-08
-3.32201e-08
-3.90575e-07
1.28045e-08
9.3843e-09
4.11138e-10
3.66796e-08
-9.1915e-09
-1.08418e-08
-1.5317e-08
1.66284e-08
2.2834e-08
6.51825e-09
2.07775e-08
4.77227e-09
6.0159e-08
-5.87576e-09
-5.22905e-09
-2.7e-08
1.15318e-08
4.52021e-08
-7.08089e-09
2.75639e-08
3.20181e-08
-1.91616e-08
3.93167e-09
4.42192e-09
5.59029e-09
2.9411e-09
-1.66301e-08
-1.21309e-09
2.85146e-10
-1.23795e-10
1.62537e-11
7.54245e-11
-6.07e-16
3.65959e-17
-1.82663e-08
3.73048e-17
2.94536e-17
7.53495e-16
-2.92062e-15
2.14338e-15
1.83327e-24
-7.48423e-22
-3.79725e-22
5.72242e-18
5.72362e-18
5.71249e-18
5.72969e-18
1.48771e-25
-1.15678e-25
7.45101e-26
1.03437e-27
6.552e-28
1.32029e-29
1.17861e-31
5.15368e-31
-1.24246e-30
1.49053e-35
1.63296e-34
-1.0882e-33
5.01178e-39
4.63897e-38
-1.39909e-38
1.98068e-42
9.07106e-42
-1.61855e-40
8.73675e-46
2.41576e-45
-1.5999e-43
3.89569e-49
6.43489e-49
-6.32678e-48
1.72862e-52
1.73965e-52
-2.29882e-50
7.60797e-56
4.85317e-56
-3.11793e-53
3.32775e-59
6.01622e-60
2.8098e-56
1.43864e-62
-7.81006e-63
2.01338e-59
6.20494e-66
1.07135e-66
1.77845e-62
2.69578e-69
1.36856e-70
-3.14514e-66
1.17127e-72
1.44575e-73
2.20107e-70
5.94535e-76
-6.15748e-77
-1.46915e-72
4.29633e-79
2.13828e-80
-2.22238e-75
1.10043e-82
-5.35976e-84
-4.41537e-79
5.53003e-86
-9.26464e-88
-6.93972e-82
5.46615e-89
8.4714e-91
-6.78318e-85
6.92279e-92
3.17172e-92
-1.01674e-87
4.87273e-95
3.97585e-95
-1.1759e-90
7.59515e-99
-7.09109e-100
-4.25309e-96
2.97342e-102
4.80169e-104
-5.11418e-98
1.97511e-105
8.58343e-108
-3.05707e-100
1.3298e-108
1.43922e-109
-5.08206e-104
4.40425e-112
-3.18329e-113
2.1165e-107
3.1651e-115
-1.89308e-118
-3.80992e-110
2.58401e-118
1.6488e-119
-3.16429e-113
5.39514e-122
-5.52457e-123
-1.70709e-120
7.69133e-125
-4.97076e-126
2.79771e-121
8.22458e-127
2.02676e-129
-4.58832e-123
7.67742e-130
3.07037e-132
-8.41257e-126
1.22371e-133
-1.61933e-136
-3.23572e-129
3.54172e-137
1.58849e-138
8.30835e-133
1.56135e-140
-9.19848e-143
3.12087e-135
8.90945e-144
-6.70098e-146
-2.61042e-139
5.42559e-147
2.34557e-148
-5.89774e-144
1.02371e-150
-1.72194e-152
2.31086e-147
-5.1708e-153
4.83985e-155
2.67904e-148
1.52414e-157
1.16561e-154
5.77307e-08
-1.7212e-08
1.29289e-07
2.73633e-08
4.31539e-08
1.89477e-08
-1.46824e-08
-1.74458e-08
-1.52527e-08
1.19609e-07
1.44031e-07
9.23087e-08
-5.55372e-08
-1.02603e-07
-2.59805e-08
-2.57819e-08
1.28473e-08
1.40569e-08
-3.72159e-08
-1.8565e-08
-1.1611e-08
-2.46491e-08
1.56397e-08
-2.84472e-08
-9.23037e-09
-1.56793e-08
9.08641e-09
2.77654e-09
-1.34262e-08
2.65415e-08
1.56141e-08
1.38496e-08
5.15304e-09
2.63777e-08
2.76689e-09
1.81297e-08
-4.13728e-10
1.71085e-09
-2.17204e-08
-4.12051e-10
-1.33325e-10
1.93515e-10
-1.2561e-10
1.31974e-10
-3.39165e-16
-3.94885e-18
-3.4828e-08
-3.4828e-08
-4.72605e-18
-3.86683e-16
-7.30161e-16
-3.4481e-16
5.40811e-25
1.47439e-21
1.21497e-22
2.55242e-19
2.53943e-19
2.56322e-19
2.55493e-19
6.57252e-26
1.88509e-25
-4.69614e-27
8.74314e-30
3.18182e-29
1.24286e-30
2.58406e-32
7.98575e-32
-6.39662e-33
3.18608e-35
-1.70359e-36
-7.65702e-36
4.57178e-39
-5.56504e-39
-2.81822e-39
1.4301e-42
9.33396e-43
-1.88874e-42
6.181e-46
6.58708e-47
-6.21713e-46
2.72149e-49
5.77471e-50
9.54765e-50
1.19111e-52
3.17226e-53
1.95083e-51
5.18196e-56
-2.67894e-56
6.90295e-55
2.24278e-59
3.52338e-60
-8.43395e-58
9.64755e-63
-2.56662e-64
-1.35617e-60
4.12045e-66
-1.19403e-68
-1.07219e-64
1.7538e-69
1.04137e-70
-3.49438e-67
7.47992e-73
2.05918e-74
1.07947e-71
3.18198e-76
3.14581e-77
-1.67111e-73
1.32299e-79
-1.56348e-81
2.29402e-78
5.57218e-83
-1.25118e-84
-2.18066e-80
2.66523e-86
-2.07438e-87
-3.14467e-83
1.47926e-89
7.72226e-90
-8.48567e-86
4.78529e-93
1.82108e-94
-7.99381e-95
2.0289e-96
-7.93707e-98
7.23345e-96
9.45963e-100
-2.40085e-101
-8.3184e-96
3.66212e-103
-2.0669e-105
5.62558e-101
1.73326e-106
-7.33065e-108
1.49116e-102
8.68983e-110
4.9086e-112
-4.99575e-105
5.56744e-113
6.50618e-115
1.0344e-109
3.90211e-116
-8.4696e-119
-6.95331e-112
8.51057e-119
3.31144e-121
-6.22846e-115
4.15727e-122
2.25754e-123
-7.94367e-118
3.41526e-125
-1.26376e-127
-6.32652e-121
7.31246e-129
-2.52567e-131
-1.22238e-124
4.25316e-132
1.09315e-133
5.15376e-127
1.42653e-135
4.21138e-137
8.59889e-131
1.07701e-138
-7.8958e-142
1.21785e-136
2.62559e-141
2.68618e-143
-3.99994e-137
1.51812e-144
4.3906e-149
-2.94549e-140
6.96007e-147
-1.23928e-148
-4.58681e-143
5.32281e-151
-6.64542e-154
2.13841e-150
1.64193e-153
3.03985e-156
5.14313e-151
6.95588e-157
-1.36789e-152
-2.02257e-08
8.40106e-09
1.49375e-09
1.67749e-08
-4.91656e-09
3.62356e-08
-7.19152e-09
9.18297e-09
1.20118e-07
4.17321e-08
-3.62919e-07
4.83593e-08
1.27254e-07
5.15138e-08
3.88227e-08
5.36371e-08
1.24227e-07
1.31176e-07
1.29977e-07
4.24662e-08
9.40398e-10
3.20752e-08
-1.52401e-08
-8.4786e-08
-5.96615e-08
-1.25874e-07
-6.21808e-08
-2.65884e-08
1.30357e-09
8.1213e-09
2.86559e-08
8.62777e-09
1.7617e-09
1.79199e-08
-2.88535e-10
2.93043e-09
-2.36283e-08
-1.07618e-10
9.94237e-11
1.43352e-09
-1.11702e-10
1.4597e-09
4.72925e-16
4.58171e-18
4.58199e-09
4.58199e-09
4.32831e-18
4.72918e-16
4.72917e-16
4.72933e-16
9.05632e-25
6.18391e-23
-4.72834e-23
2.60109e-21
2.71721e-21
2.70601e-21
2.67912e-21
-1.43857e-27
-7.48059e-27
-2.6027e-27
7.86579e-29
-5.88135e-31
4.7606e-31
1.49976e-31
-6.91099e-32
-4.62289e-34
9.68286e-36
-4.92881e-36
-8.24392e-37
8.76107e-40
-4.51688e-40
-2.22785e-40
3.37515e-43
-8.52557e-44
-1.82202e-43
1.43194e-46
-2.65382e-47
-4.53304e-47
6.07262e-50
-7.78707e-51
-5.85144e-50
2.56875e-53
-6.55235e-54
1.11951e-52
1.08276e-56
3.16626e-57
6.93628e-56
4.54729e-60
-6.91235e-61
3.35949e-59
1.90364e-63
-1.06899e-64
-2.52315e-62
7.95197e-67
3.80542e-68
-4.67353e-65
3.30887e-70
-1.23246e-72
3.1889e-68
1.37142e-73
-1.40578e-75
-2.03131e-72
5.67944e-77
-1.40783e-78
-1.44597e-75
2.35223e-80
1.00055e-81
-7.666e-78
9.80884e-84
1.17603e-85
-4.79999e-81
3.96015e-87
-1.00816e-88
-4.46463e-85
1.67161e-90
5.67445e-92
-4.03325e-90
7.34846e-94
-1.32656e-96
-2.17742e-90
2.90935e-97
-6.79182e-99
6.96226e-96
1.46081e-100
3.05011e-102
-1.05661e-96
5.9596e-104
3.65929e-105
-4.69458e-100
2.42122e-107
-3.10808e-109
3.37677e-103
1.20998e-110
-1.99619e-113
-1.09248e-106
6.16474e-114
4.04725e-115
-1.63442e-109
2.35871e-117
-1.0921e-119
2.19553e-113
2.81259e-120
4.78427e-123
2.30405e-115
1.15432e-123
4.21422e-126
-3.14889e-119
1.9842e-127
1.67303e-129
1.16603e-124
2.03242e-130
-3.08337e-132
-7.11692e-128
3.82758e-133
3.20193e-135
1.17832e-128
1.69435e-136
-8.8182e-138
3.46577e-132
9.84742e-140
3.00788e-142
-3.14247e-135
2.22428e-143
5.4509e-146
-1.60282e-138
8.73266e-147
2.34198e-148
-9.67708e-143
1.34927e-149
-2.51196e-151
-9.62206e-147
-3.42702e-154
-2.60961e-153
4.66983e-150
1.49307e-153
-2.05897e-156
4.35159e-153
7.56806e-159
-3.08521e-154
2.25032e-08
1.84489e-09
2.86946e-08
1.90635e-08
1.30745e-07
1.77134e-07
-1.32539e-07
-5.65732e-09
6.2412e-09
2.24803e-08
-2.59952e-08
3.59215e-09
-2.03786e-08
-8.39135e-08
1.50235e-07
-4.53858e-09
-3.65118e-09
3.62913e-09
4.55259e-08
1.82506e-08
2.35118e-08
1.60349e-07
-9.48686e-08
3.28177e-08
3.64449e-08
4.38136e-08
4.36324e-08
4.31973e-08
4.29269e-08
2.58408e-08
8.21271e-08
1.21423e-08
-1.33288e-08
-1.82747e-08
-2.25279e-08
4.0798e-09
1.01808e-08
4.2262e-08
3.61403e-08
1.36017e-10
2.9305e-08
1.95745e-08
-7.26996e-09
-1.00726e-08
-3.7557e-09
-1.11189e-10
2.10722e-08
2.03697e-11
-5.02657e-12
-2.46875e-08
7.6758e-12
-2.46878e-08
9.31324e-22
-3.41843e-21
-3.84331e-21
-3.81941e-20
4.8842e-20
-1.77482e-18
5.93253e-19
-9.56834e-19
-9.59807e-19
-9.46132e-19
-9.5981e-19
-8.43715e-27
-1.43721e-24
-1.58094e-25
9.27559e-28
8.62895e-28
2.42559e-29
8.37746e-31
-5.38126e-30
8.46957e-32
7.2601e-35
-2.27338e-33
5.1441e-35
1.06834e-38
-3.075e-37
-5.77406e-40
3.78459e-42
-7.87929e-41
2.38221e-42
1.62958e-45
-1.84698e-44
-3.33251e-45
7.10779e-49
-8.29225e-48
3.92481e-48
3.08855e-52
-1.10668e-51
4.35603e-51
1.33617e-55
-2.55986e-55
-6.48127e-54
5.75848e-59
-1.47167e-58
-4.67423e-57
2.46717e-62
-3.68794e-62
-1.18727e-59
1.05172e-65
2.86898e-66
-2.97285e-63
4.47292e-69
1.41166e-69
-2.47333e-66
1.89344e-72
-9.85695e-73
-8.37121e-70
8.38578e-76
4.92923e-77
-4.48536e-73
4.03233e-79
-1.08342e-79
-1.22164e-75
1.50197e-82
6.29635e-83
-1.23997e-79
6.21468e-86
1.67203e-86
-1.17206e-82
2.59867e-89
-5.32584e-90
4.4788e-87
1.08821e-92
-7.42145e-93
9.76928e-89
1.06534e-95
-1.64256e-96
-8.60775e-93
5.47977e-98
-3.01863e-101
-1.64864e-94
3.91868e-102
-2.82576e-103
-1.27884e-100
1.07994e-105
-1.77364e-105
4.11601e-105
6.48286e-109
-4.62226e-109
-1.42174e-105
9.71132e-112
9.54947e-114
-4.45809e-108
2.42643e-115
-5.29171e-115
-1.17242e-110
1.03852e-118
-1.6743e-118
4.38108e-115
3.21543e-122
-3.28905e-122
-1.13824e-117
2.522e-125
-7.23771e-126
1.1838e-123
8.58033e-128
3.92398e-129
-9.39721e-124
1.07702e-130
-5.17668e-132
-1.11691e-126
1.05994e-133
1.80876e-134
-1.3992e-129
1.71104e-137
1.05976e-137
-1.86836e-132
5.53459e-141
-9.2657e-142
-9.74928e-139
1.91136e-144
-4.26792e-144
1.212e-141
2.2888e-147
-9.31874e-148
-5.28395e-145
1.05844e-149
3.57939e-152
-4.91904e-147
6.87304e-153
-3.05863e-153
-6.72842e-149
2.45585e-153
-1.53652e-156
-8.28068e-152
-4.19317e-158
3.06101e-156
2.16024e-08
7.00365e-09
1.83956e-08
1.59241e-08
5.18454e-08
4.32675e-08
2.05552e-08
3.80221e-08
2.31937e-08
-1.55203e-08
7.52448e-10
1.93807e-08
2.1203e-08
7.01389e-09
6.74904e-08
5.76372e-08
9.58117e-09
1.16207e-08
4.25385e-08
-3.72405e-08
-3.7031e-08
3.19385e-09
-6.83029e-08
-3.25382e-08
-3.67779e-08
-3.16836e-08
-4.47454e-09
-1.66704e-09
-1.0953e-09
-4.53735e-09
-1.60034e-09
-2.99503e-09
2.02404e-09
-3.08539e-10
9.07807e-10
7.91656e-14
1.45028e-15
1.68641e-18
-1.05928e-15
-1.33534e-15
-4.63557e-14
1.62457e-13
-1.84732e-13
6.98199e-15
-3.42773e-16
-2.79183e-16
-2.17707e-23
6.02523e-23
6.78929e-21
-8.29175e-21
4.96004e-20
-5.33587e-20
-7.11984e-26
-9.81348e-27
6.00649e-27
2.61667e-30
1.02117e-29
-1.70597e-31
2.78339e-34
-5.14324e-34
4.71802e-38
-1.3049e-37
1.90973e-41
-3.92508e-42
7.95064e-45
-6.00322e-45
3.3061e-48
-1.94691e-46
1.37053e-51
-3.39879e-51
5.68426e-55
-4.72577e-53
2.36154e-58
-1.98091e-56
9.79421e-62
-3.04302e-59
4.0195e-65
2.08579e-62
1.65379e-68
2.57537e-66
6.78207e-72
-1.60064e-69
2.79545e-75
-1.12205e-74
1.15609e-78
-2.9979e-75
4.75629e-82
-2.58719e-78
2.00418e-85
-3.23952e-82
1.17348e-88
-1.24203e-84
1.58482e-91
1.22589e-88
2.53821e-95
2.21079e-92
1.78315e-98
6.47754e-95
2.81334e-101
-2.66346e-97
1.09496e-104
-1.52408e-100
4.04629e-108
-1.13936e-103
1.59541e-111
7.39277e-108
2.82416e-114
1.76445e-110
2.07069e-117
-1.04048e-112
8.47636e-121
3.64474e-117
2.38564e-123
-2.70402e-119
1.76189e-127
-1.22127e-127
5.98187e-131
-2.76915e-127
5.89967e-134
1.24225e-132
3.19124e-136
-3.32858e-132
3.12314e-140
2.25851e-135
4.13018e-143
-1.45034e-138
2.15682e-146
-6.74003e-143
9.55249e-150
3.61985e-145
5.64193e-153
-1.36256e-148
2.31755e-153
4.71681e-151
1.12152e-154
2.4601e-07
7.43871e-09
9.79349e-09
-7.02613e-08
1.81533e-07
1.84425e-07
1.62685e-07
3.40671e-09
5.89117e-09
2.40778e-07
2.43386e-07
3.30682e-09
-1.72914e-08
1.29092e-07
1.96882e-07
2.08217e-07
3.24622e-08
1.75146e-07
-3.17948e-08
7.24442e-09
-2.63109e-08
-2.70718e-08
-1.56437e-07
-2.36309e-08
6.7489e-09
-1.96577e-07
6.66303e-09
-2.34417e-08
-2.52047e-10
-2.34214e-10
6.73698e-10
2.60014e-08
1.4309e-14
-1.07099e-16
1.94006e-18
3.2607e-16
-8.15218e-17
-1.39716e-14
1.44004e-14
-1.41044e-14
4.85796e-23
-3.71537e-21
1.52577e-22
-3.61495e-20
1.14423e-20
-3.59941e-21
2.28218e-20
1.59788e-25
-2.64117e-24
-2.80254e-27
1.80202e-26
-6.18341e-27
-6.67675e-30
2.01647e-28
-5.65231e-29
5.8756e-33
5.80977e-32
-9.04092e-32
-2.44313e-34
5.31887e-36
-1.58218e-35
6.39652e-37
3.29616e-39
-4.71663e-39
5.26517e-40
2.4245e-42
-2.74995e-42
4.73704e-44
1.70141e-45
-1.1291e-45
4.52843e-46
1.18562e-48
-6.519e-49
-1.45621e-53
8.24351e-52
-2.97043e-52
-3.59117e-53
5.71513e-55
8.03368e-56
-1.40228e-56
3.956e-58
-5.4088e-59
-2.72614e-59
2.73437e-61
-7.02275e-63
-2.49826e-62
1.8843e-64
-2.43268e-65
-1.17318e-65
1.29573e-67
-1.29672e-68
-7.6656e-69
8.88806e-71
1.01725e-71
-2.04625e-72
6.08006e-74
2.20229e-75
1.36176e-74
4.15452e-77
5.97546e-78
2.73112e-77
2.83264e-80
-1.77775e-81
4.04124e-81
1.92652e-83
3.14851e-85
1.77867e-85
1.30682e-86
-6.0692e-88
6.41346e-88
8.84585e-90
-3.09035e-92
-5.44187e-93
5.97276e-93
3.53982e-93
-1.6188e-94
4.02552e-96
1.82937e-96
4.82242e-101
2.70845e-99
-2.83622e-100
-4.11465e-100
1.82069e-102
2.44958e-103
-7.33316e-103
1.22127e-105
2.00453e-106
6.18339e-107
8.16615e-109
6.35283e-110
-7.39488e-111
5.44611e-112
1.02968e-112
-7.9896e-113
3.62687e-115
-4.43172e-117
1.40835e-116
2.41258e-118
2.94194e-119
-1.08752e-123
1.60145e-121
-2.28218e-123
1.20361e-122
1.061e-124
9.07762e-126
-5.90998e-127
7.01408e-128
-3.07421e-130
2.11628e-130
4.62985e-131
5.84795e-132
8.63469e-134
3.04827e-134
1.29535e-134
-3.01935e-140
2.00208e-137
-1.68174e-140
-7.39592e-140
1.31248e-140
-5.2335e-142
3.70143e-141
8.59796e-144
-5.1602e-145
-5.33414e-145
5.61847e-147
-6.89832e-149
1.23519e-148
3.61108e-150
1.41419e-152
8.80612e-152
4.07251e-154
7.95917e-154
-1.18782e-07
-1.10591e-07
1.37952e-07
-3.08589e-07
1.99677e-09
7.1265e-09
-3.9748e-09
-2.3738e-07
-2.71495e-07
-2.50778e-07
1.45299e-08
-8.25201e-09
3.01417e-09
-3.4686e-09
-2.13025e-09
1.84238e-09
-1.95746e-08
6.91975e-09
-3.8337e-09
-2.533e-08
9.37311e-09
2.94622e-08
-4.27029e-07
1.65239e-08
3.34708e-08
8.73135e-09
-1.13184e-07
-3.74129e-07
-5.92833e-07
-3.06517e-07
-2.07308e-09
1.88286e-08
-1.44709e-08
-2.48535e-07
2.2406e-08
1.48073e-08
2.19774e-09
6.04487e-09
1.01306e-09
2.35521e-09
-2.62197e-08
1.25485e-13
-1.78732e-15
7.22045e-15
3.39547e-15
1.41137e-14
3.72509e-15
7.99667e-21
-5.28122e-18
-7.58301e-22
-1.27947e-18
6.9015e-18
-1.98186e-18
6.77693e-18
-5.29356e-18
-5.24497e-18
-5.29365e-18
6.47709e-25
-5.06044e-22
5.38811e-26
1.44674e-27
-4.6721e-25
6.85769e-30
1.30081e-29
-3.73328e-28
3.09932e-32
2.03349e-33
-3.80616e-32
-1.85926e-35
5.234e-37
-1.89395e-35
2.62297e-38
3.55926e-40
-8.86344e-39
-4.38891e-42
2.64749e-43
-3.58384e-42
3.36698e-45
1.92483e-46
-1.2824e-45
-4.80489e-47
1.38039e-49
-6.30836e-49
-2.57628e-51
9.8571e-53
-2.09061e-52
-1.8749e-53
7.01793e-56
-5.75311e-56
-2.02187e-56
4.98229e-59
-5.3903e-59
2.66235e-61
3.52577e-62
-4.33776e-62
1.75743e-64
2.48623e-65
-6.15227e-66
5.4595e-66
1.74921e-68
4.30372e-69
-8.95604e-70
1.22707e-71
7.52607e-72
-1.52782e-72
8.57818e-75
-5.17146e-76
3.67899e-77
5.98247e-78
5.11662e-79
2.69167e-79
4.16095e-81
-2.48495e-82
4.21015e-82
2.88603e-84
-2.12378e-85
1.14413e-85
1.99622e-87
5.3651e-88
1.49129e-88
1.37704e-90
2.13883e-91
3.63104e-91
9.48377e-94
1.12496e-94
7.3606e-95
6.52049e-97
7.95038e-98
8.03859e-98
4.47414e-100
-2.00174e-100
8.3233e-101
3.05984e-103
-1.42651e-103
-1.27481e-103
2.08789e-106
5.65968e-107
7.62136e-108
1.42139e-109
1.13762e-110
-1.40042e-110
9.65527e-113
-5.27727e-114
-9.17587e-115
6.54694e-116
7.62392e-118
6.23503e-119
4.42468e-119
-1.60012e-119
1.0832e-119
2.98245e-122
1.69388e-123
2.25762e-126
2.00749e-125
1.74933e-126
-9.69472e-127
1.34769e-128
1.37604e-129
-1.25193e-130
9.03141e-132
9.22453e-134
-3.41801e-135
6.04804e-135
3.17398e-137
1.05434e-135
4.03797e-138
9.56425e-139
-1.32365e-138
2.68764e-141
5.37412e-143
4.15573e-143
1.78578e-144
3.79914e-145
3.21886e-145
1.18379e-147
1.05395e-148
3.31473e-149
8.2131e-151
7.18691e-152
2.24395e-152
4.74572e-155
2.94865e-157
1.48468e-09
-1.60557e-07
-1.51183e-07
-8.82111e-09
-2.02135e-07
1.83633e-08
6.06058e-07
8.62861e-09
-8.7961e-09
4.1742e-07
1.26958e-07
1.10971e-08
1.40132e-08
2.6386e-08
-8.05782e-09
2.47178e-08
3.16515e-08
-3.97071e-08
-2.68389e-08
4.73956e-08
4.45591e-08
-5.8898e-08
-1.9089e-07
-3.274e-08
-2.72859e-08
-3.75072e-08
-1.87567e-09
-2.5744e-08
-2.88741e-08
1.74546e-08
1.5167e-07
2.02709e-08
5.13558e-08
5.60221e-10
-1.80456e-08
5.79773e-09
6.41401e-09
-4.61944e-08
-4.94869e-11
-1.4122e-11
-6.8551e-12
1.53947e-11
6.28289e-12
1.96017e-13
3.84246e-18
-5.50381e-18
7.26888e-19
-5.29646e-18
6.47999e-19
2.894e-23
-5.21921e-21
1.29715e-22
-5.4312e-20
-5.4203e-20
-5.43472e-20
-5.43743e-20
1.17501e-26
-2.24859e-24
8.50592e-27
2.45089e-29
-6.71225e-28
1.94594e-30
1.34334e-32
-2.66275e-31
1.06837e-33
4.45893e-36
-7.6316e-35
4.88656e-37
2.96751e-39
-5.98434e-38
-2.82058e-41
2.32445e-42
-2.40953e-41
-1.37169e-44
1.77374e-45
-1.14168e-44
-4.49564e-47
1.32706e-48
-4.91084e-48
-4.1993e-50
9.83719e-52
-1.59274e-52
-7.35678e-53
7.24242e-55
-1.28417e-54
1.74991e-55
5.30095e-58
-4.78864e-58
-8.42155e-60
3.85565e-61
-2.76633e-61
1.45219e-61
2.78947e-64
-1.8645e-64
1.23063e-65
2.00873e-67
1.11993e-67
8.92501e-68
1.43983e-70
-1.20645e-71
1.96935e-71
1.0263e-73
1.60876e-73
1.47515e-75
7.28994e-77
-5.57983e-78
2.90381e-80
5.15816e-80
-1.04131e-80
-1.93862e-81
3.63376e-83
1.78722e-83
1.86288e-86
2.55489e-86
7.71541e-87
-6.5558e-89
1.79074e-89
-9.95434e-90
6.8247e-90
1.25037e-92
2.92011e-93
2.2047e-95
8.71532e-96
-2.88345e-97
6.00611e-99
6.04744e-99
1.4245e-99
1.0577e-100
4.17729e-102
2.25696e-103
1.60706e-103
2.88065e-105
4.93503e-106
-6.02146e-107
1.98153e-108
-3.70822e-109
-4.25085e-111
1.35858e-111
-1.33721e-112
2.93115e-113
9.29408e-115
1.49482e-115
-1.42678e-118
6.33762e-118
6.86563e-119
1.04315e-119
4.30698e-121
1.47063e-121
1.9714e-122
2.92099e-124
7.40989e-126
2.1649e-125
1.97612e-127
4.23974e-128
-2.57129e-129
1.335e-130
-1.77898e-130
1.59253e-133
9.00258e-134
-4.4962e-134
-6.06133e-136
6.05063e-137
3.41261e-137
-5.25434e-138
4.0548e-140
1.44329e-140
-2.08403e-144
2.7105e-143
2.54756e-144
6.22349e-144
1.80675e-146
2.65426e-147
9.46278e-148
1.18045e-149
8.81028e-151
-1.57462e-150
-7.12657e-153
9.4723e-155
-1.51252e-09
-4.04178e-07
2.22712e-08
3.23932e-08
-3.93821e-07
-3.9523e-07
-3.9364e-07
-3.96765e-07
-1.4088e-07
-4.06657e-08
-1.95014e-08
-4.08786e-08
-1.93838e-08
-4.50051e-08
-2.49588e-08
-2.45134e-07
-4.79762e-09
-1.03316e-07
-3.42799e-08
2.14468e-09
1.02502e-08
3.73564e-09
6.54465e-09
-3.91686e-08
-3.60465e-08
-3.57217e-08
-1.26477e-08
1.98589e-08
1.16974e-08
-1.15354e-07
1.17115e-08
6.00726e-08
-2.95764e-07
6.05004e-09
-2.91585e-10
-1.16362e-08
-9.49798e-09
-2.10488e-07
-1.23319e-07
-8.72999e-08
-1.53885e-07
-4.83068e-08
2.63354e-09