/*--------------------------------*- C++ -*----------------------------------*\
| =========                 |                                                 |
| \\      /  F ield         | OpenFOAM: The Open Source CFD Toolbox           |
|  \\    /   O peration     | Version:  5.0                                   |
|   \\  /    A nd           | Web:      www.OpenFOAM.org                      |
|    \\/     M anipulation  |                                                 |
\*---------------------------------------------------------------------------*/
FoamFile
{
    version     2.0;
    format      ascii;
    class       volScalarField;
    location    "1.9";
    object      alpha.water;
}
// * * * * * * * * * * * * * * * * * * * * * * * * * * * * * * * * * * * * * //

dimensions      [0 0 0 0 0 0 0];

internalField   nonuniform List<scalar> 
9326
(
0.804996
1.0261
1.02697
1.01521
0.996693
1.0037
-2.56939e-17
-2.74471e-19
3.95824e-17
8.75833e-18
8.13567e-20
2.88575e-23
1.50501e-27
4.18894e-31
1.68799e-34
7.18384e-38
2.9098e-41
1.24279e-44
5.49461e-48
2.1141e-51
9.95218e-55
4.2898e-58
1.75145e-61
5.93547e-65
3.1559e-68
5.03378e-71
1.79571e-74
2.5406e-78
6.40509e-81
1.48051e-84
2.44174e-87
1.41715e-91
6.52027e-94
1.97205e-96
4.24504e-100
3.73581e-103
2.8397e-106
5.66189e-109
3.92497e-113
3.62319e-117
1.38011e-119
3.11961e-122
1.90017e-125
8.93806e-128
9.72454e-132
2.403e-134
2.96331e-138
2.24201e-142
6.55965e-144
1.60193e-145
1.05593
1
1.08082
0.981429
0.993259
0.992218
-5.56315e-19
-6.91577e-24
3.9413e-22
4.62301e-19
1.77376e-20
2.37525e-23
2.98439e-27
3.87619e-31
1.31436e-34
5.38276e-38
2.26001e-41
9.49089e-45
4.08285e-48
1.62997e-51
6.82655e-55
2.86152e-58
1.45492e-61
7.19522e-65
2.60557e-68
1.60413e-71
5.12656e-75
1.95022e-78
1.4152e-81
1.02636e-84
2.88719e-88
7.79865e-91
8.85562e-95
2.12477e-97
5.49958e-101
7.36543e-104
3.24029e-107
2.30915e-111
8.53298e-113
6.12836e-116
8.59134e-120
1.04955e-122
8.30711e-127
1.68228e-130
3.49814e-133
2.20043e-136
4.31564e-139
9.24706e-143
2.91325e-145
4.55431e-146
0.865321
1.00933
1.01266
1.02373
1.02827
1.00834
0.156118
-4.32592e-25
8.83913e-16
5.2465e-18
4.34891e-20
1.70018e-21
2.93219e-24
1.48128e-28
1.90673e-32
7.39532e-36
3.02917e-39
1.24058e-42
5.07689e-46
2.06767e-49
8.43633e-53
3.4255e-56
1.39402e-59
5.64526e-63
2.28553e-66
9.64857e-70
3.93775e-73
1.49646e-76
6.86222e-80
4.41541e-83
1.07577e-86
4.02552e-90
3.63718e-92
2.62948e-95
3.82895e-99
1.2602e-102
6.70643e-106
9.26906e-110
9.58946e-112
7.04888e-115
2.01781e-118
3.05236e-122
1.08682e-124
1.4123e-128
1.70829e-131
3.86796e-135
2.75164e-137
1.75873e-140
3.55549e-144
2.35582e-145
1.03
1.06718
1.02338
1.04082
1.03525
0.996757
0.998779
-2.71927e-18
-1.84351e-19
4.8728e-17
1.4024e-18
2.47181e-21
5.51485e-24
1.60413e-27
1.52678e-31
4.8794e-35
2.00842e-38
8.43679e-42
3.48874e-45
1.44584e-48
6.00943e-52
2.47698e-55
1.11371e-58
4.63453e-62
2.0466e-65
7.89072e-69
3.00603e-72
2.82948e-75
1.03904e-78
2.45053e-82
4.8144e-85
6.51136e-88
1.58432e-91
2.52851e-95
6.3784e-98
1.53712e-101
6.13589e-105
5.92161e-108
4.46165e-110
2.81308e-113
2.68963e-117
1.03532e-119
1.22009e-123
1.75051e-126
1.85599e-129
8.8331e-133
1.78989e-136
7.11773e-140
5.84354e-143
3.76685e-145
1.00936
1.00954
0.918506
1.0195
1.03096
1.0126
1.00038
-2.72132e-17
-4.47504e-18
2.47721e-16
1.39991e-17
2.90796e-20
6.51417e-24
1.6354e-27
3.14214e-31
1.09131e-34
4.49415e-38
1.89724e-41
7.97925e-45
3.36077e-48
1.39945e-51
6.17174e-55
2.45065e-58
1.05675e-61
4.33116e-65
2.68391e-68
8.34376e-72
5.01822e-75
5.0548e-78
1.67686e-81
1.75925e-84
1.7149e-88
8.56686e-91
1.22125e-94
2.11125e-98
1.75215e-101
9.16138e-104
2.51792e-107
1.9978e-111
1.90528e-114
4.39326e-118
1.22777e-121
4.62485e-125
2.07705e-127
2.11999e-129
5.93951e-133
4.93989e-135
2.62215e-138
3.00749e-141
6.2395e-145
1.02154
1.06018
1.01484
0.955164
1.0598
0.98685
1.00082
-1.03256e-16
-7.56144e-18
1.95648e-16
1.13946e-17
2.46452e-20
5.33788e-24
1.23875e-27
2.49583e-31
8.82029e-35
3.66744e-38
1.60628e-41
6.58841e-45
2.93143e-48
1.17643e-51
4.90442e-55
2.04301e-58
1.06629e-61
3.66686e-65
8.60071e-68
1.12149e-71
3.88247e-75
7.67186e-78
1.34444e-80
1.74401e-83
1.10263e-87
2.47055e-91
1.78783e-94
3.32085e-97
8.48008e-101
3.63431e-104
7.90199e-107
6.01472e-111
1.15041e-114
4.2023e-116
1.40663e-118
6.31392e-122
6.80362e-126
2.32255e-129
2.37858e-132
2.18168e-136
5.96687e-140
5.93619e-143
2.78596e-145
1.03257
0.998833
0.957066
1.01593
1.04551
1.01467
1.00053
-1.29428e-16
-2.13981e-18
4.5656e-17
1.339e-18
2.51948e-21
6.2177e-24
1.94307e-27
1.76813e-31
5.54997e-35
2.28192e-38
9.5106e-42
3.95862e-45
1.64509e-48
7.07829e-52
2.83052e-55
1.18952e-58
4.8063e-62
2.38979e-65
8.26992e-69
3.32678e-72
1.64667e-75
2.65376e-78
4.54808e-82
1.1872e-85
1.21473e-88
2.39019e-92
2.16406e-95
7.56937e-99
1.36299e-101
3.29402e-105
1.50264e-107
1.04358e-110
1.2025e-113
1.23969e-117
1.12162e-120
3.50954e-124
4.1008e-128
3.9896e-130
9.14447e-134
8.08895e-136
2.41047e-139
1.54164e-143
5.72007e-145
1.08029
1.0332
0.943917
0.975486
1.03799
0.986492
0.867491
-2.30568e-17
1.05003e-15
5.0723e-18
4.88539e-20
1.89826e-21
3.01414e-24
1.47449e-28
2.03341e-32
7.91578e-36
3.24485e-39
1.32933e-42
5.43916e-46
2.22648e-49
9.04503e-53
3.70192e-56
1.50653e-59
6.0533e-63
2.44534e-66
1.02933e-69
4.87608e-73
1.65597e-76
6.52884e-80
5.2529e-83
1.21133e-86
1.55168e-89
8.03922e-93
1.82423e-96
1.08437e-99
1.71128e-102
2.21873e-106
4.23839e-109
3.74381e-112
2.59969e-116
5.78952e-120
5.40832e-122
6.91767e-125
4.2492e-128
3.84491e-132
6.1296e-136
2.14835e-139
8.29952e-143
2.86533e-145
7.74016e-146
1.01439
0.9659
0.984539
1.0643
1.01491
1.00004
0.0697487
-5.05353e-18
-3.9519e-21
5.63945e-19
1.79903e-20
2.30479e-23
3.29611e-27
4.1341e-31
1.41344e-34
5.80518e-38
2.43009e-41
1.0171e-44
4.26597e-48
1.78063e-51
7.25608e-55
3.04257e-58
1.25935e-61
5.21984e-65
4.76195e-68
1.12317e-71
3.96393e-75
1.70411e-78
7.26015e-82
2.8695e-85
4.25509e-87
1.64381e-90
1.03603e-94
2.77172e-98
1.5245e-100
7.1642e-104
3.01742e-107
3.85846e-111
8.54061e-115
9.04701e-117
1.90091e-119
3.02867e-122
6.23031e-126
4.4833e-130
1.29219e-133
5.30534e-137
9.16812e-139
1.63139e-141
2.16825e-144
1.12082e-145
0.998256
0.983223
0.903864
0.952501
1.0327
0.978346
-1.98568e-18
-6.25702e-19
-4.9891e-22
7.66558e-18
2.30224e-19
1.42038e-22
3.55402e-27
8.00628e-31
3.2338e-34
1.35116e-37
5.42403e-41
2.22407e-44
9.15259e-48
4.21992e-51
1.5579e-54
6.3458e-58
2.49474e-61
1.00982e-64
5.16562e-68
1.81138e-71
1.0764e-74
4.8411e-78
2.58652e-80
4.80716e-84
1.68822e-87
5.41201e-90
3.81003e-93
1.62654e-96
8.84676e-101
3.86926e-103
6.48065e-106
6.18884e-110
3.75561e-112
4.62464e-116
5.12699e-120
9.78327e-124
2.46804e-125
6.31936e-129
1.04542e-131
8.22258e-135
2.70912e-138
2.31582e-141
8.23648e-145
9.72203e-146
1.01908
1.00048
1.05112
1.01973
0.982525
1.00398
3.73394e-10
5.29321e-16
1.33419e-17
1.27913e-17
1.0136e-18
4.52792e-21
7.72852e-25
9.08809e-29
5.98844e-32
4.28429e-35
2.95211e-38
2.02569e-41
1.38813e-44
9.49215e-48
6.48434e-51
4.42141e-54
3.008e-57
2.04366e-60
1.38573e-63
9.37571e-67
6.33685e-70
4.27438e-73
2.87628e-76
1.93236e-79
1.29521e-82
8.66144e-86
5.78705e-89
3.85944e-92
2.57038e-95
1.70896e-98
1.1332e-101
7.49506e-105
4.95113e-108
3.26715e-111
2.15169e-114
1.41476e-117
9.28412e-121
6.07896e-124
3.97509e-127
2.59244e-130
1.68783e-133
1.09783e-136
7.12485e-140
2.77169e-143
1.05361
1.04584
1.0803
1.04113
1.02765
0.997467
5.93243e-08
5.7984e-15
1.23862e-17
7.65146e-18
2.19281e-19
3.16368e-22
5.83173e-26
1.50537e-29
9.55602e-33
6.97562e-36
4.9623e-39
3.48502e-42
2.44466e-45
1.71063e-48
1.19564e-51
8.3359e-55
5.79934e-58
4.02966e-61
2.79205e-64
1.93018e-67
1.33198e-70
9.16963e-74
6.296e-77
4.31494e-80
2.95365e-83
2.01563e-86
1.37322e-89
9.34314e-93
6.34142e-96
4.29494e-99
2.90274e-102
1.95661e-105
1.3171e-108
8.84058e-112
5.91987e-115
3.95725e-118
2.64042e-121
1.75917e-124
1.16963e-127
7.76159e-131
5.13755e-134
3.3947e-137
2.23807e-140
9.01857e-144
1.0378
1.02457
1.00866
1.03027
1.03338
1.00865
0.163262
2.08775e-12
1.5401e-14
2.50333e-16
3.93264e-19
1.02421e-21
5.48288e-25
2.07604e-28
1.33797e-31
9.66732e-35
6.94078e-38
4.93157e-41
3.48851e-44
2.46213e-47
1.73361e-50
1.21797e-53
8.53028e-57
5.96283e-60
4.15399e-63
2.88691e-66
2.00257e-69
1.38503e-72
9.55586e-76
6.59224e-79
4.53332e-82
3.11127e-85
2.13226e-88
1.45707e-91
9.91941e-95
6.74729e-98
4.58073e-101
3.10223e-104
2.09726e-107
1.41411e-110
9.51044e-114
6.38506e-117
4.28463e-120
2.86726e-123
1.91576e-126
1.27767e-129
8.49966e-133
5.64296e-136
3.73793e-139
1.47062e-142
0.988325
1.36569
1.00637
1.08713
0.985184
1.00041
0.992287
1.06257e-11
1.22126e-16
2.01803e-16
1.45683e-17
6.59027e-20
2.08452e-23
3.41474e-27
1.9794e-30
1.47768e-33
1.06652e-36
7.57192e-40
5.36718e-43
3.7989e-46
2.68396e-49
1.89137e-52
1.32872e-55
9.32195e-59
6.51947e-62
4.54855e-65
3.1684e-68
2.201e-71
1.52641e-74
1.0557e-77
7.28261e-81
5.01089e-84
3.43899e-87
2.35551e-90
1.6098e-93
1.09814e-96
7.47304e-100
5.07255e-103
3.43495e-106
2.32078e-109
1.56394e-112
1.05373e-115
7.07594e-119
4.73825e-122
3.16421e-125
2.11043e-128
1.4041e-131
9.32324e-135
6.17525e-138
2.42226e-141
0.988303
0.967294
0.763402
0.92956
1.0724
0.994796
1.00104
3.95926e-10
1.99493e-15
1.72081e-15
1.78671e-16
1.16536e-18
3.01809e-22
2.94706e-26
1.79453e-29
1.30448e-32
9.09291e-36
6.29204e-39
4.34837e-42
3.0007e-45
2.06951e-48
1.42527e-51
9.79574e-55
6.72785e-58
4.61252e-61
3.15636e-64
2.15862e-67
1.47381e-70
1.00414e-73
6.83195e-77
4.64096e-80
3.14647e-83
2.13119e-86
1.4406e-89
9.72113e-93
6.55353e-96
4.40947e-99
2.96025e-102
1.98481e-105
1.32928e-108
8.88868e-112
5.93538e-115
3.95536e-118
2.63035e-121
1.74698e-124
1.15822e-127
7.66376e-131
5.06421e-134
3.33965e-137
1.30495e-140
1.01632
1.01228
1.03223
1.03389
1.05452
1
1.00155
1.03552e-09
3.58442e-15
3.13327e-15
3.22178e-16
2.16801e-18
5.79045e-22
5.34942e-26
3.21372e-29
2.33027e-32
1.61562e-35
1.11206e-38
7.64466e-42
5.24519e-45
3.59387e-48
2.4588e-51
1.6792e-54
1.14522e-57
7.79563e-61
5.29578e-64
3.59685e-67
2.43851e-70
1.64979e-73
1.11475e-76
7.51262e-80
5.05329e-83
3.39783e-86
2.28114e-89
1.52775e-92
1.02203e-95
6.82506e-99
4.54996e-102
3.03025e-105
2.01461e-108
1.3372e-111
8.86431e-115
5.86385e-118
3.86932e-121
2.54996e-124
1.67772e-127
1.10161e-130
7.22927e-134
4.73834e-137
1.8425e-140
1.04035
0.982564
1.12242
0.991723
1.03344
0.999851
1.00338
2.99009e-10
1.54761e-16
1.51246e-16
1.00705e-17
3.96179e-20
1.24547e-23
2.49858e-27
1.45635e-30
1.09164e-33
7.98153e-37
5.72774e-40
4.09887e-43
2.92863e-46
2.08775e-49
1.48417e-52
1.05067e-55
7.43008e-59
5.24527e-62
3.67901e-65
2.57948e-68
1.80374e-71
1.25783e-74
8.75774e-78
6.06442e-81
4.19865e-84
2.90085e-87
1.99762e-90
1.3729e-93
9.40259e-97
6.42739e-100
4.38338e-103
2.98287e-106
2.02203e-109
1.36906e-112
9.25201e-116
6.2322e-119
4.1858e-122
2.80565e-125
1.8761e-128
1.2524e-131
8.33585e-135
5.54381e-138
2.19406e-141
0.972579
1.34908
1.03388
0.824528
0.938584
1.00221
0.868009
1.46084e-12
2.4102e-14
2.98659e-16
4.38611e-19
1.17059e-21
5.27087e-25
2.19864e-28
1.47751e-31
1.06179e-34
7.55167e-38
5.33212e-41
3.75014e-44
2.63128e-47
1.84323e-50
1.28787e-53
8.97396e-57
6.24134e-60
4.33089e-63
2.99697e-66
2.06939e-69
1.42539e-72
9.79539e-76
6.7244e-79
4.6081e-82
3.15081e-85
2.15007e-88
1.463e-91
9.93111e-95
6.7332e-98
4.55484e-101
3.07465e-104
2.0728e-107
1.39392e-110
9.34968e-114
6.26471e-117
4.18682e-120
2.79214e-123
1.8593e-126
1.23574e-129
8.18899e-133
5.42021e-136
3.5847e-139
1.40812e-142
1
0.929434
1
1.00124
1.01474
1.00013
0.0759102
3.9048e-14
4.3046e-17
6.59734e-18
1.14321e-19
1.39141e-22
3.12184e-26
9.38842e-30
6.25555e-33
4.61403e-36
3.3068e-39
2.34286e-42
1.65686e-45
1.16934e-48
8.23896e-52
5.79017e-55
4.059e-58
2.83986e-61
1.98304e-64
1.38088e-67
9.59776e-71
6.65698e-74
4.60488e-77
3.18021e-80
2.19144e-83
1.50477e-86
1.03178e-89
7.05747e-93
4.81605e-96
3.2804e-99
2.22962e-102
1.51237e-105
1.02371e-108
6.9156e-112
4.65876e-115
3.13231e-118
2.10197e-121
1.40657e-124
9.40062e-128
6.2691e-131
4.17093e-134
2.77046e-137
1.83581e-140
7.47299e-144
1.0381
0.986466
1.02573
0.959706
1.0026
0.994579
1.52288e-08
5.3065e-15
1.22155e-17
7.95573e-18
6.00341e-19
3.11537e-21
7.23644e-25
7.76861e-29
4.8569e-32
3.50068e-35
2.41693e-38
1.65874e-41
1.13739e-44
7.78228e-48
5.31625e-51
3.62362e-54
2.46496e-57
1.67495e-60
1.13578e-63
7.68513e-67
5.19395e-70
3.50368e-73
2.35837e-76
1.5856e-79
1.06375e-82
7.11816e-86
4.75411e-89
3.17056e-92
2.11051e-95
1.40332e-98
9.31138e-102
6.16411e-105
4.07394e-108
2.68896e-111
1.77155e-114
1.16535e-117
7.65147e-121
5.01255e-124
3.27848e-127
2.14042e-130
1.39485e-133
9.08178e-137
5.89774e-140
2.30087e-143
1.02832
0.979911
1.20805
1.0166
0.987555
1
2.26829e-10
-2.72289e-19
-5.88226e-25
4.01939e-18
7.5186e-20
2.82445e-23
1.10321e-27
2.95737e-31
1.19333e-34
5.27471e-38
2.02824e-41
8.60488e-45
3.94434e-48
2.18596e-51
7.36129e-55
3.30262e-58
1.59331e-61
4.48809e-65
5.33023e-68
3.17267e-71
1.15895e-74
3.57893e-78
7.1797e-81
1.08416e-84
2.3116e-87
1.66054e-91
4.08686e-94
1.20201e-96
3.74758e-100
1.56262e-103
4.00664e-106
1.30902e-109
5.75651e-114
1.70357e-115
5.76469e-119
2.27657e-123
4.66487e-126
4.93496e-130
2.42719e-132
1.94946e-134
3.31519e-138
1.80216e-141
2.18587e-144
1.11282e-145
1.03323
1.04803
1.07046
1.04305
1.00496
1.00159
5.41392e-08
-8.43286e-24
6.0113e-23
5.92677e-19
2.16322e-20
2.62334e-23
3.20338e-27
4.20012e-31
1.41977e-34
5.79712e-38
2.41959e-41
1.04785e-44
4.46095e-48
1.78263e-51
7.68194e-55
3.10958e-58
1.47519e-61
6.2083e-65
2.81884e-68
1.0881e-71
5.39676e-75
1.92444e-78
6.07856e-81
1.18385e-84
1.25767e-87
1.44004e-90
1.41829e-93
2.98534e-97
1.77441e-100
6.54221e-104
2.22615e-107
8.26503e-111
2.43141e-112
2.17786e-115
1.78191e-119
2.20386e-123
7.3806e-127
1.88383e-128
1.03739e-131
6.5716e-136
9.79102e-139
9.70758e-143
4.14564e-145
6.6355e-146
1.06917
1.07384
1.22818
1.04506
1.06705
1.00717
0.162635
8.15173e-13
8.78909e-16
5.14328e-18
4.72703e-20
1.92946e-21
3.46956e-24
1.80979e-28
2.27508e-32
8.80473e-36
3.61072e-39
1.48036e-42
6.06861e-46
2.47418e-49
1.01191e-52
4.10878e-56
1.68388e-59
6.90315e-63
2.88322e-66
1.12552e-69
4.67858e-73
1.81397e-76
7.27941e-80
5.04816e-83
1.30068e-86
4.88904e-90
2.3196e-93
3.30018e-96
9.61229e-100
1.10768e-102
7.77068e-106
1.87736e-109
1.29442e-112
2.92051e-115
4.61253e-118
4.10031e-122
5.55791e-126
2.03096e-128
8.8402e-131
1.35742e-134
3.00518e-137
1.36736e-140
5.8866e-144
2.47126e-145
1.11568
1.01745
0.989697
0.99001
1.00368
1.03143
0.994541
2.86823e-12
-1.70008e-19
5.0491e-17
1.45196e-18
2.45908e-21
5.41776e-24
1.59235e-27
1.51991e-31
4.84851e-35
1.99563e-38
8.32608e-42
3.46134e-45
1.43868e-48
5.96028e-52
2.45925e-55
1.03931e-58
4.59165e-62
1.77519e-65
7.57299e-69
2.94635e-72
4.29303e-75
2.42358e-78
3.21071e-82
4.19423e-85
3.14708e-88
9.53203e-92
2.21489e-95
2.56691e-98
4.86845e-102
5.09391e-105
8.19929e-108
7.10584e-112
1.58644e-113
5.62704e-117
3.15556e-120
5.69989e-123
6.18971e-127
3.13518e-130
9.02528e-133
4.72209e-136
2.87935e-140
6.52351e-144
2.7382e-145
0.999262
0.93604
0.982841
0.925561
0.989436
0.982688
1.00097
1.85306e-10
-5.3334e-18
2.55641e-16
1.44256e-17
2.97844e-20
6.4357e-24
1.6037e-27
3.10654e-31
1.07595e-34
4.44803e-38
1.87468e-41
7.98097e-45
3.32027e-48
1.38139e-51
5.84947e-55
2.44812e-58
1.07441e-61
4.48458e-65
3.59289e-68
7.8641e-72
3.03747e-75
1.25914e-78
7.7626e-82
1.24402e-84
1.42287e-88
7.25494e-91
1.37164e-94
2.83687e-97
1.84574e-101
8.45637e-104
2.74117e-107
2.56963e-109
5.33689e-113
3.99527e-117
6.66247e-119
2.42049e-122
1.14579e-125
3.01867e-129
4.90206e-133
8.56424e-135
3.15212e-138
2.69862e-141
3.52375e-144
1.03363
0.993388
0.853594
1.00667
1.01868
0.985018
1.00148
4.68546e-10
-7.2878e-18
2.00693e-16
1.16608e-17
2.52891e-20
5.89416e-24
1.43806e-27
2.79483e-31
9.74322e-35
4.04601e-38
1.70873e-41
7.21413e-45
3.55986e-48
1.31421e-51
6.17738e-55
2.43454e-58
9.60464e-62
4.98412e-65
1.62621e-68
7.19563e-72
2.88166e-75
1.12739e-78
7.16747e-81
1.33403e-83
5.93371e-87
5.70349e-91
4.0855e-94
4.14471e-98
1.50626e-100
4.5674e-104
1.31931e-106
8.43167e-111
1.34068e-112
5.24358e-116
2.39647e-120
4.57027e-122
1.59804e-125
3.5621e-129
2.65532e-133
7.90966e-136
2.6589e-138
2.14031e-142
2.8963e-145
1.01615
0.940938
0.965151
0.937939
1.01339
1.02724
1.00291
1.42918e-10
-2.10359e-18
4.41275e-17
1.30582e-18
2.5354e-21
6.23189e-24
1.92602e-27
1.7582e-31
5.53301e-35
2.27522e-38
9.49819e-42
3.94998e-45
1.63941e-48
7.03519e-52
2.83245e-55
1.16885e-58
4.91351e-62
2.09386e-65
1.05144e-68
3.49856e-72
1.43986e-75
2.3451e-78
4.0937e-82
1.13713e-85
4.42069e-89
1.78212e-92
1.71056e-95
5.39823e-98
1.16447e-101
2.40457e-105
1.10831e-107
3.6293e-111
3.13038e-115
8.96584e-118
9.95398e-122
1.23479e-123
6.72457e-127
1.99177e-130
1.83047e-134
7.24271e-138
4.04884e-141
1.35312e-143
7.94726e-145
1.03335
1.09628
0.917088
1
1.10436
1.00824
0.868576
5.62271e-13
1.14431e-15
5.54514e-18
4.87895e-20
1.88542e-21
3.00358e-24
1.47817e-28
2.03341e-32
7.91477e-36
3.2446e-39
1.3291e-42
5.44333e-46
2.2245e-49
9.0467e-53
3.69959e-56
1.51857e-59
6.05268e-63
2.69607e-66
1.03576e-69
4.7847e-73
2.47699e-76
6.88653e-80
7.30413e-83
1.45671e-86
4.83416e-90
5.11396e-93
2.65646e-96
5.46503e-100
6.26347e-103
3.92959e-106
1.61959e-109
2.87115e-112
2.13296e-114
6.60198e-118
6.92112e-121
1.01002e-124
9.88447e-129
6.02833e-132
1.42709e-135
5.39159e-139
2.1683e-142
3.09559e-145
1.11968e-145
0.969048
0.936763
0.973179
1.02792
0.991111
1.02288
0.0762235
-1.11893e-17
-4.29333e-21
5.27215e-19
1.64357e-20
2.11827e-23
3.25209e-27
4.01051e-31
1.35513e-34
5.55961e-38
2.32735e-41
9.6635e-45
4.03831e-48
1.69367e-51
6.9102e-55
2.91536e-58
1.19194e-61
5.01916e-65
2.02635e-68
8.5198e-72
3.49468e-75
1.50692e-78
5.67121e-82
2.29606e-85
2.51414e-87
1.00518e-90
8.21658e-94
4.75121e-97
1.78448e-100
1.15423e-103
3.60603e-107
2.89665e-110
2.37796e-114
1.58311e-116
2.84817e-120
2.87471e-124
2.51647e-126
4.64391e-129
5.39571e-132
3.88369e-136
4.22047e-139
3.0431e-142
2.34932e-144
1.03305e-145
1.0171
1.03044
1.01696
0.875407
0.950526
1
1.22029e-08
-6.40188e-19
-5.3425e-22
5.52075e-18
1.72428e-19
1.14491e-22
2.92713e-27
6.33862e-31
2.5504e-34
1.05865e-37
4.29152e-41
1.80446e-44
7.25551e-48
2.94873e-51
1.25176e-54
5.31713e-58
1.98019e-61
8.17971e-65
4.16218e-68
4.25599e-71
1.3695e-74
2.87718e-78
6.26162e-81
3.69983e-84
2.74988e-88
6.49744e-90
1.91412e-93
1.06079e-97
4.2036e-101
2.95717e-103
3.19201e-106
1.85311e-110
3.85266e-112
1.23229e-115
7.1769e-119
1.44862e-121
2.9786e-125
1.60539e-128
6.11121e-133
1.09793e-134
7.49365e-138
3.52874e-141
1.1059e-144
1.18714e-145
-1.93031e-16
0.986054
0.00207568
1.00309
2.07947e-07
0.985421
0.00422826
0.0204715
1.01103
0.59158
0.994491
0.0243461
1.01061
0.592083
0.863833
1
1
1.00921
0.862534
1.00001
1
1
1.01584
1.00044
0.997127
1
1.03117
1.00064
1.00194
1.01519
1.00208
0.998974
1.00207
1.0146
1.00227
1.00199
1.03173
1.00297
1
1.0018
1.01785
1.0031
1.00194
1.01001
1.00164
1.0003
1.00448
1.00965
1.0024
1.00008
1.00217
0.883538
0.999536
1.00025
0.996204
0.884382
0.769283
0.939173
0.123988
1
0.770298
0.975764
0.12525
0.0401308
1.02452
-8.98502e-20
0.990106
0.0448518
1.01406
4.90268e-07
3.06891e-07
0.991336
0.00487096
1.00347
4.11833e-07
1.00431
0.00590471
0.0235653
1.01068
0.591888
1.0018
0.0241261
1.01132
0.591434
0.862755
1.00033
1
1.00807
0.86248
0.999766
1
1.00002
1.0265
1.00124
1.03711
1
1.00722
1.00075
1.00271
1.00899
1.0028
0.996983
1.00246
1.00602
1.00242
1.00222
1.00783
1.00322
0.990836
1.00179
1.01896
1.00267
1.00438
1.0086
1.00284
1.00688
1.00412
1.0002
1.00253
1.00039
0.968403
0.883954
1.0001
1.00027
0.992857
0.888286
0.770002
0.999428
0.133855
1.03413
0.769001
1.01362
0.131493
0.0469468
1.01662
6.5678e-07
0.989319
0.049208
1.01371
9.03733e-07
2.38274e-07
1.00243
0.0055618
0.999616
-8.34068e-16
1.00788
0.00240043
0.0263541
1.00819
0.591201
1.0134
0.0238777
1.01397
0.590714
0.86246
0.998898
1.00002
1.00683
0.862895
0.994555
1
1.00003
1.00769
1.00117
1.05185
0.999929
1.00656
1.00054
1.00281
1.00688
1.0028
0.989696
1.00217
1
1.00201
1.00208
1.01946
1.00279
1
1.00195
1.01234
1.00247
1.00424
1.00714
1.00276
1.0389
1.0031
1.00767
1.00155
1.00032
0.994117
0.889632
1.01158
1.00008
0.998249
0.891963
0.768595
1.00732
0.126113
1.01715
0.766475
1.00071
0.121036
0.0459949
1.00892
5.71158e-07
1.00408
0.0398681
1.0206
1.38771e-20
0.974253
1.00413
0.896354
0.999957
0.954453
1.01054
0.91685
0.879074
0.966708
0.988751
1.00342
1
0.914877
0.964669
-6.18009e-18
-1.97984e-17
-4.32405e-18
1.97573e-10
1.58674e-13
1.10304e-09
1.58516e-13
1.0006
1.04884
1.02439
1.00004
1.00124
1.04137
1.02419
0.995234
1
0.966089
0.992056
0.999996
0.976378
0.99607
-1.62053e-19
0.0188174
-7.11545e-23
4.74632e-08
2.40416e-12
0.0249835
1.15436e-12
0.99924
1.01473
1.00455
1.04105
0.996549
1.02691
0.997935
0.999398
1.00422
1.00054
1.00867
1.00638
1.00069
0.999657
-1.59208e-18
0.893643
-1.4003e-20
0.162766
6.85061e-10
0.896047
1.70884e-10
1.00468
1.06411
1.05122
1.0057
0.989565
1.02098
1.08178
0.876961
0.988755
0.976211
0.992965
0.983972
0.972526
0.834084
-4.77801e-21
1.00014
-2.25352e-18
0.992708
4.25978e-09
1.00061
5.18452e-08
0.997292
0.91739
1.0086
1.08426
0.959343
0.77343
0.993318
1.01056
1.01147
1.00937
1.00985
1.01123
1
1.01404
-4.96923e-20
1.00062
-3.90227e-15
1.00127
1.80357e-07
1.00127
2.72817e-07
0.954867
0.989108
1.05355
1.10095
0.632271
1.04127
1.00812
0.998964
1
1.00023
0.98998
0.998778
0.99721
0.999891
-5.267e-17
1.00047
-1.40904e-14
1.00173
3.71004e-07
1.00101
2.99509e-07
0.992883
0.992129
0.995022
1.03096
1.01111
0.968564
0.96895
0.999284
1.01346
0.876397
1.05974
1.01554
0.914953
1.00208
-3.47952e-15
1
-3.41997e-20
1.00351
1.05446e-07
0.9939
9.15328e-09
0.89908
1.00764
0.915232
0.959155
1.08074
1
1.08683
0.999467
1.00394
1.01186
0.982204
1.00416
1.01175
0.999338
-5.14262e-17
0.212165
-9.2447e-15
0.868456
3.53551e-10
0.218023
8.09104e-10
0.889826
1.00134
0.779254
1.01507
0.999474
1.03122
0.840973
1
0.999612
0.919067
1.0017
0.999879
0.922178
1.00006
-1.54789e-15
-7.19601e-16
-5.11359e-17
0.0753651
1.04361e-11
5.41426e-07
1.58089e-11
0.93687
1.0216
1.01864
1.0205
0.949922
1.07093
1.03669
0.992332
0.999863
0.987564
0.986029
0.99974
0.955661
0.998358
-1.24748e-16
-5.01692e-19
-3.28244e-17
9.96903e-09
1.37153e-12
5.26187e-10
1.77795e-12
0.958595
1.01601
0.977481
0.978066
0.992492
1.02404
1.04131
0.868285
0.951614
1
1.00372
0.87027
1.00017
0.951096
1.02793e-12
2.14209e-09
8.28884e-13
5.01024e-10
8.89821e-13
2.24222e-09
8.28884e-13
1.00171
1.01521
1.01699
1.0309
1.00795
1.00971
1.02545
0.994945
1
0.985606
0.998807
0.997221
1.00015
0.985501
1.08345e-11
0.0259046
5.23035e-12
6.31499e-08
1.08448e-11
0.0260982
5.23035e-12
0.999409
1.00042
1.01155
1.03253
0.995332
0.976905
1.00338
1.00035
1.00757
1.00025
1.00878
1.00014
1.00795
1.00154
1.36079e-09
0.896016
3.64262e-10
0.162975
1.3548e-09
0.895534
3.62326e-10
0.946055
1.00612
1.04113
1.04455
1.03092
0.999708
1.00255
0.976429
0.995811
0.974214
1.0073
0.968503
0.997834
0.988697
8.67907e-09
1.00077
8.62495e-08
0.993441
9.95668e-09
1.00075
8.57887e-08
0.976589
0.782255
0.99369
1.00287
1.00826
0.970907
0.976717
1.00628
1.00682
0.88949
0.957723
1.00396
1.00177
0.888225
2.88032e-07
1.00191
4.6955e-07
1.00137
2.91137e-07
1.00137
4.70557e-07
0.675438
1
0.946014
1.00568
0.993862
0.99857
1.03638
0.999234
0.999767
0.993349
0.991479
0.999796
0.999486
0.991221
5.94303e-07
1.00159
4.74898e-07
1.00177
5.93363e-07
1.00101
4.72717e-07
1.24102
0.979756
0.889727
1.02945
0.854623
0.997723
0.944945
0.998369
1.01291
0.860592
0.947542
0.996924
1.01362
0.8956
1.70936e-07
0.992292
1.6297e-08
1.00281
1.73004e-07
0.992257
1.63289e-08
1.07288
1
0.991781
1.02873
0.918655
0.920044
0.998858
1.00024
1.00509
0.984619
0.989632
0.995848
1.00509
1
6.63595e-10
0.218388
1.64063e-09
0.868498
6.66512e-10
0.212718
1.51634e-09
0.999101
1.02869
0.940572
1.00902
0.999636
1.02871
1.03184
0.999935
1
0.945934
1.01195
0.999394
1.00034
0.982791
4.07498e-11
5.46617e-07
6.81794e-11
0.0766324
4.07489e-11
4.78227e-07
6.83449e-11
0.968164
1.07103
1.04606
0.955541
0.91791
1.1258
1.11867
0.984755
1
0.955762
1.00829
0.988553
1.00005
0.969405
5.48645e-12
8.96357e-10
8.35422e-12
1.62965e-08
5.48648e-12
1.22934e-09
7.96606e-12
0.958994
1.03476
0.938147
0.995649
0.969882
1.03068
0.989538
0.873079
0.954504
0.999927
1
0.873923
0.999957
0.956907
1.85808e-13
1.29711e-09
1.8559e-13
-1.56996e-17
-4.7566e-18
-2.6596e-17
-4.81738e-18
0.995918
1.01271
1.00027
1.01921
1.00626
1.03215
1.03886
0.998456
1.00437
0.986027
1.00113
1
1.00561
0.987845
2.48021e-12
0.0253973
1.18863e-12
-9.82364e-19
-1.82677e-19
0.0194167
-7.16294e-23
0.990812
0.893152
1.00489
1.03624
1.00239
0.891273
0.991085
1.00152
1.00803
1.00149
1.00707
1.0016
1.00839
1.00166
6.90529e-10
0.895293
1.69546e-10
0.156318
-1.50323e-18
0.892847
-1.95458e-20
1.04333
0.996402
1.00392
0.909643
1.0493
0.932625
0.996834
0.972247
1.00133
0.90748
1.03796
0.97474
1.00727
0.994189
4.63842e-09
1.00073
5.19239e-08
1
-1.1476e-20
1.00011
-1.61399e-18
1.02251
1
0.967214
0.811681
1.01055
0.995891
0.958003
1
0.983363
0.918095
0.947869
0.991834
0.986335
0.909375
1.76894e-07
1.00188
2.93179e-07
1.00043
-6.68169e-20
1.00066
-6.20669e-15
0.880026
0.729092
1.03852
0.947049
0.862666
0.877087
0.95934
1
1
0.986619
0.998068
1
1.00002
0.992968
3.60955e-07
1.00156
3.05281e-07
1.00077
-2.39991e-15
1.00038
-1.87668e-14
0.993623
0.976473
1.01184
1.07258
1.06908
0.955985
1.00134
1.00378
1.01292
1.02756
1.0366
1.00424
1.01285
1.02145
1.07472e-07
0.993128
9.27335e-09
1.0007
-3.26435e-15
1
-3.09018e-20
1.01421
0.77149
1.02186
1.13421
0.93375
0.814033
1.0252
0.997976
1.00513
1.00014
1.01298
0.999863
1.00498
1.00045
3.55356e-10
0.209949
8.93697e-10
0.867865
-8.04892e-17
0.197709
-1.21741e-14
0.998872
1.02004
1.02328
1
1.00196
0.982844
1.04913
0.99893
1.00419
1.00034
1.01653
0.999964
1.00536
0.996251
1.05538e-11
3.95727e-07
1.65327e-11
0.0711865
-1.13836e-15
-3.61681e-16
-1.55237e-17
0.976655
1.13779
1.11736
1.01968
1.0215
1.15767
1.09809
0.998509
1
0.981637
1.01938
0.992829
1
1.00052
1.66597e-12
6.13401e-10
2.22217e-12
-1.18438e-17
-1.36631e-16
-6.51236e-18
-3.31661e-17
0.231785
0.285981
-3.82398e-19
9.44659e-08
9.44659e-08
0.19279
0.290113
0.999554
0.99103
0.999295
0.985555
0.991029
0.999032
0.992686
0.41415
0
0.499869
0.00309859
0.000239924
0.499089
0.425991
0.870079
1.00377
0.954657
0.999995
1
0.868358
0.961648
0.243454
2.07947e-07
0.305504
2.07947e-07
2.07947e-07
0.247183
0.295063
0.999966
0.986144
0.992176
0.998925
0.991872
0.999341
1
0.413264
0.00363896
0.000231503
0.498668
0.000261827
0.498321
0.413004
0.738837
0.657989
0.0788572
0.0229659
0.657498
0.0834941
0.739266
1
1.00122
1.00122
1.01073
0.999363
1.00122
1.00023
0.91752
0.285395
1
0.591786
0.288158
1
0.917312
0.99814
0.991677
0.999994
0.989683
1
0.992585
0.995942
0.735998
0.0233691
0.659848
0.0881081
0.658339
0.0858869
0.737065
1.00015
1.01059
0.999704
1.00151
1.00168
1.00166
1
0.917414
0.591706
0.29186
1
0.288956
1
0.916756
1.00009
1.00023
1.00001
0.863426
1.00002
1.00013
1.00069
1.00003
0.976986
1.00001
0.999953
0.979132
1.00006
1.00042
1.00055
1.00024
1.00002
1.00005
1.00054
1.00004
1.00137
0.999689
1.00879
1.00748
1.00047
1.00712
1.00042
0.999539
1.00072
0.862833
1
1.00019
1.00013
1.00082
1.0001
1.00026
1.00014
0.989011
1.00051
0.984643
1.00038
1.00004
1.00089
1.00006
1.00069
1
1.00104
1.00027
1.00055
0.975768
0.997243
1
1
0.998522
1.00002
0.976888
0.990072
0.938184
1.00241
1.0084
1.01887
1.00262
0.986777
0.99804
1
1.00146
1.00081
1
1.00177
0.999266
0.955503
0.984642
0.982559
0.996561
0.98979
0.982971
0.967119
0.972382
1.00002
0.998121
1.00002
0.999509
1.00023
0.977705
0.995482
1.044
1.0457
1.00436
1.09239
1.00384
1
0.999592
1.00135
0.999896
1.00237
1.00016
1.00234
0.996998
1.00831
1.00659
1.00246
1.00184
1.00675
1.00251
1.00837
1.01367
1.03794
1.01016
1.00915
1.02474
1.01048
1.01497
1.00489
1.00195
1.00377
1.00216
1.00214
1.00369
1.00513
1.00657
1.00326
1.00966
0.897171
1.01046
0.996282
1.00399
1.00785
1.00231
1.00646
1.00277
1.00686
1.00299
1.00722
1.00821
1
0.980689
1.00964
0.989098
1.00891
1.00759
1.00489
1.00277
1.00227
1.00373
1.00272
1.00372
1.00443
1.00098
1.00153
1.00107
1.00198
1.00126
1.00104
1.00167
1.00974
1.0361
1.02254
1.05666
1.04917
1.02109
1.01075
1.0043
1.00125
1.00814
1.00296
1.00131
1.0089
1.00386
0.999702
1
0.999926
0.994622
0.999983
1.00129
0.998995
1.00099
1.00239
1.00106
1.00116
1.00132
1.00172
1.00086
1.00957
1.0589
1.02012
1.02014
1.02757
1.02214
1.01008
1.00452
1.00309
1.00149
1.00847
1.00165
1.0086
1.00468
1.00569
1.00717
1.00291
1.00117
1.007
1.0032
1.00617
0.992291
0.918612
1.00898
1.00546
0.945802
1.00863
0.993393
1.00438
1.00315
1.0042
1.00209
1.00359
1.00445
1.00511
0.996346
1.07404
1.01433
0.909274
1.01355
0.937322
0.997606
1.00562
1.00249
1.00685
1.00372
1.00649
1.0037
1.00554
0.990933
1.00995
0.999819
1.0084
0.986827
1.0091
0.996613
1.00473
1.00258
1.00389
1.00465
1.00397
1.00464
1.0048
0.999025
1.00129
1
1.00016
1.00119
1
0.998918
0.979644
0.795003
0.98992
1.03126
0.82876
0.991221
0.993298
0.999963
0.983231
1
0.885559
0.979964
1
1
0.995493
0.985146
1.00469
0.976059
1.00384
0.999998
0.992291
0.998275
1.00028
1.00049
1
1.001
1.00006
0.998432
0.973428
1.04686
0.978498
0.978918
0.894005
0.984477
0.95229
0.999974
0.884987
0.979492
0.999739
0.979949
1
0.994439
1.00001
1
0.57795
0.769876
1
0.578799
1.00012
0.99719
0.999308
1
0.939994
1.00036
0.999823
0.9963
0.966692
0.290384
0.859271
0.122176
0.296812
0.862903
0.970705
1
1.01042
0.999889
0.920158
0.999655
0.922152
0.998913
1.00013
0.769494
1.00001
0.579438
1.00013
0.578494
1
0.999017
0.946842
0.995296
1
0.997586
0.999954
0.998801
0.962629
0.120836
0.302514
0.867586
0.301988
0.86889
0.9625
0.469042
0.716536
0.00137083
0.0427883
0.717831
0.00251163
0.461585
1.00386
1.00973
0.991181
1.02056
1.00519
1.00691
0.990939
0.435901
0.000337264
0.220302
1.42625e-07
0.000349625
0.432446
0.222264
0.989931
0.979276
0.999946
0.955407
0.999862
0.95566
0.991137
0.47574
0.0441066
0.719132
0.00422073
0.716938
0.00325046
0.471094
1.00207
1.02081
0.995536
0.98652
1.0055
1.00028
0.989737
0.438837
4.90268e-07
0.000818342
0.232948
0.000502668
0.43875
0.225692
0.248854
0.309933
3.06891e-07
3.06891e-07
0.248397
3.06891e-07
0.309628
1
0.997511
0.999274
0.997623
1.00002
0.999309
0.999326
0.41023
0.000233737
0.498249