/*--------------------------------*- C++ -*----------------------------------*\
| =========                 |                                                 |
| \\      /  F ield         | OpenFOAM: The Open Source CFD Toolbox           |
|  \\    /   O peration     | Version:  5.0                                   |
|   \\  /    A nd           | Web:      www.OpenFOAM.org                      |
|    \\/     M anipulation  |                                                 |
\*---------------------------------------------------------------------------*/
FoamFile
{
    version     2.0;
    format      ascii;
    class       volScalarField;
    location    "1.9";
    object      p;
}
// * * * * * * * * * * * * * * * * * * * * * * * * * * * * * * * * * * * * * //

dimensions      [1 -1 -2 0 0 0 0];

internalField   nonuniform List<scalar> 
9326
(
159.895
115.812
109.727
104.597
95.3636
93.1525
88.5225
84.55
81.7184
79.0727
76.5719
74.1646
71.8223
69.5472
67.3101
65.1104
62.9348
60.7945
58.6826
56.5979
54.5217
52.4602
50.4299
48.3946
46.3829
44.3937
42.4082
40.4195
38.4504
36.5056
34.5567
32.6325
30.7367
28.8341
26.9199
25.0382
23.2092
21.4164
19.6326
17.8383
16.0726
14.3513
12.6319
10.8828
9.16278
7.49037
5.81814
4.13786
2.47859
0.829266
104.124
126.493
112.082
104.672
100.305
94.9681
90.6981
85.1158
82.0102
79.2548
76.685
74.2328
71.8857
69.5862
67.3278
65.1291
62.9408
60.8152
58.7082
56.6018
54.5235
52.4613
50.4214
48.3946
46.3738
44.3785
42.3964
40.4216
38.4589
36.5093
34.5722
32.6465
30.7338
28.8228
26.9225
25.044
23.2051
21.4001
19.6107
17.8363
16.0772
14.3542
12.6391
10.9023
9.16992
7.47752
5.80334
4.1343
2.47896
0.828949
113.859
99.7879
128.134
109.704
97.0707
95.2662
91.5918
85.9069
81.6994
79.1218
76.6119
74.1813
71.8415
69.5676
67.3225
65.1109
62.9515
60.8344
58.7246
56.6002
54.5256
52.4647
50.4139
48.392
46.3768
44.3729
42.3871
40.428
38.4677
36.5102
34.5765
32.6454
30.713
28.8115
26.9304
25.0599
23.2053
21.3907
19.6085
17.8392
16.0872
14.3523
12.6231
10.9027
9.17991
7.47544
5.79747
4.13562
2.48179
0.829163
86.9971
84.3833
100.567
102.723
95.2056
94.8882
90.706
84.9756
81.1822
78.8249
76.4214
74.0921
71.7737
69.5165
67.2966
65.0998
62.9396
60.8171
58.6945
56.5992
54.5321
52.463
50.4191
48.3934
46.3908
44.3859
42.3863
40.4333
38.4631
36.5008
34.5771
32.6407
30.7082
28.807
26.9385
25.0763
23.2115
21.3869
19.6096
17.8451
16.0902
14.3387
12.6049
10.8899
9.1855
7.47794
5.79882
4.14303
2.4881
0.823864
103.298
101.819
111.728
96.0741
101.6
91.5944
88.071
83.8087
80.5624
78.4273
76.1723
73.9185
71.6828
69.4564
67.2677
65.0854
62.9394
60.8015
58.6696
56.601
54.5325
52.46
50.4223
48.3959
46.3982
44.3994
42.3963
40.4298
38.4509
36.4935
34.5716
32.6331
30.7058
28.8059
26.9395
25.0858
23.221
21.3921
19.6126
17.8516
16.0891
14.326
12.5843
10.8788
9.18257
7.47917
5.80539
4.15715
2.49619
0.821912
103.244
106.826
127.049
54.3758
79.5234
83.7407
85.7324
82.8077
80.0556
78.1114
75.9689
73.7922
71.6031
69.4139
67.2526
65.0809
62.9392
60.7998
58.6615
56.5784
54.5221
52.4555
50.4218
48.4055
46.4025
44.4122
42.406
40.4227
38.4437
36.4863
34.5659
32.6275
30.6985
28.8083
26.9437
25.088
23.2332
21.4027
19.6166
17.8534
16.0833
14.3124
12.5707
10.8691
9.17771
7.48348
5.82193
4.18038
2.50601
0.82496
110.186
100.916
94.1833
95.2419
88.7517
93.0348
84.9538
82.1253
79.7614
77.9162
75.865
73.7328
71.5838
69.405
67.2345
65.0704
62.9328
60.8041
58.6637
56.5731
54.5181
52.4559
50.4214
48.4141
46.4089
44.4106
42.4122
40.4198
38.4449
36.4958
34.5596
32.6141
30.6915
28.8146
26.9468
25.0825
23.2381
21.4165
19.6182
17.8454
16.076
14.3036
12.5664
10.8665
9.17318
7.48518
5.82814
4.18087
2.51141
0.834052
111.913
119.42
97.8067
99.8372
91.2714
79.3399
84.1196
81.9919
79.8692
77.9856
75.9001
73.7564
71.5991
69.4137
67.219
65.0772
62.9275
60.7956
58.678
56.5677
54.5073
52.4519
50.4198
48.4155
46.4089
44.4151
42.4136
40.4173
38.4558
36.5013
34.5554
32.6112
30.696
28.8213
26.9447
25.0718
23.2377
21.4264
19.6238
17.8396
16.0715
14.3167
12.5792
10.8711
9.1719
7.48738
5.82654
4.16993
2.50919
0.837839
75.8418
90.9211
102.88
100.811
97.2745
91.5902
85.0493
82.4927
80.4534
78.3013
76.1031
73.8849
71.6679
69.453
67.2562
65.0928
62.918
60.7886
58.6819
56.5823
54.5011
52.4441
50.4237
48.4105
46.41
44.4137
42.4098
40.415
38.4485
36.5
34.5442
32.6125
30.7147
28.8275
26.9374
25.0597
23.2319
21.43
19.628
17.8383
16.0698
14.324
12.5947
10.8718
9.16843
7.48919
5.81996
4.15939
2.499
0.839044
120.461
130.595
97.0388
130.69
99.0947
89.6431
86.5116
83.5615
81.1103
78.6995
76.3503
74.0254
71.7343
69.5062
67.2869
65.0964
62.9275
60.7955
58.6795
56.5849
54.5009
52.449
50.4284
48.4002
46.3999
44.4079
42.4098
40.417
38.4464
36.5016
34.5474
32.6186
30.7298
28.8323
26.9269
25.0485
23.2222
21.427
19.6316
17.8374
16.0707
14.3399
12.6113
10.8738
9.1619
7.49267
5.82318
4.14807
2.48454
0.829862
117.805
114.38
108.768
108.982
95.9137
93.172
88.517
84.5506
81.7185
79.0726
76.572
74.1646
71.8221
69.5473
67.3101
65.1099
62.9348
60.7945
58.6828
56.5976
54.5217
52.4603
50.4299
48.3945
46.383
44.3938
42.4081
40.4195
38.4502
36.5055
34.5566
32.6325
30.7367
28.834
26.9199
25.0382
23.2091
21.4165
19.6325
17.8382
16.0725
14.3514
12.632
10.8829
9.16278
7.49035
5.81807
4.1378
2.47854
0.829342
103.731
124.267
111.915
103.769
99.7845
95.2119
90.6884
85.1165
82.0101
79.2548
76.685
74.2328
71.8857
69.5862
67.3278
65.1289
62.9407
60.8153
58.7081
56.6017
54.5236
52.4613
50.4214
48.3943
46.3738
44.3784
42.3962
40.4216
38.4589
36.5093
34.5728
32.6466
30.7337
28.8229
26.9225
25.0439
23.205
21.4002
19.6107
17.8363
16.0773
14.3543
12.639
10.9021
9.17003
7.47758
5.80324
4.13429
2.47915
0.828903
97.0856
96.8293
132.333
109.793
97.3412
95.2235
91.4589
85.9067
81.7007
79.1217
76.6119
74.1812
71.8415
69.5676
67.3225
65.1109
62.9515
60.8343
58.7247
56.6001
54.5252
52.4647
50.4138
48.3919
46.3768
44.3728
42.3871
40.4279
38.4677
36.5103
34.5763
32.6453
30.7131
28.8115
26.9305
25.06
23.205
21.3908
19.6085
17.8392
16.0872
14.3525
12.6231
10.9025
9.17994
7.47531
5.79725
4.13565
2.48179
0.829153
98.6163
66.0988
100.566
119.885
95.2283
92.8945
90.6934
84.9753
81.1826
78.8245
76.4214
74.0919
71.7737
69.5165
67.2966
65.0998
62.9396
60.8169
58.6944
56.5991
54.5322
52.463
50.4192
48.3935
46.3907
44.3857
42.3864
40.4334
38.4632
36.5006
34.5769
32.641
30.7081
28.807
26.9386
25.0762
23.2112
21.3869
19.6096
17.8451
16.0902
14.3387
12.6047
10.89
9.18557
7.47793
5.7987
4.14302
2.48809
0.823762
103.521
101.392
121.718
92.9417
97.672
91.1376
88.0721
83.8062
80.5625
78.4273
76.1724
73.9184
71.6825
69.4564
67.2678
65.0855
62.9394
60.8014
58.6695
56.6011
54.5325
52.4595
50.422
48.396
46.3979
44.3995
42.3965
40.4297
38.4504
36.4932
34.5717
32.6331
30.7058
28.8059
26.9395
25.0858
23.221
21.392
19.6126
17.8519
16.089
14.3257
12.5843
10.8788
9.18259
7.47915
5.80532
4.15707
2.49612
0.821959
103.424
104.603
107.403
68.5281
78.0141
84.2215
85.7304
82.8043
80.0557
78.1113
75.9689
73.792
71.6033
69.4139
67.2525
65.0808
62.9391
60.7998
58.6615
56.5784
54.5222
52.4551
50.4218
48.4054
46.4026
44.4123
42.4059
40.4226
38.4437
36.4865
34.566
32.6273
30.6983
28.8083
26.9438
25.088
23.2332
21.4027
19.6166
17.8534
16.0832
14.312
12.5707
10.8691
9.17761
7.48347
5.82191
4.18039
2.50585
0.824934
110.522
102.02
144.16
91.774
89.1162
84.0193
84.9438
82.122
79.7619
77.916
75.865
73.7329
71.5837
69.4049
67.2344
65.0704
62.9328
60.804
58.6636
56.5732
54.5181
52.4559
50.4214
48.4141
46.4088
44.4106
42.4122
40.4198
38.4449
36.4957
34.5597
32.6141
30.6914
28.8146
26.9468
25.0824
23.2381
21.4165
19.6182
17.8455
16.076
14.3034
12.5664
10.8665
9.17307
7.48516
5.82826
4.18094
2.5114
0.834177
118.056
95.4238
113.311
102.778
93.0621
81.5151
84.1306
81.9893
79.8697
77.9854
75.9001
73.7563
71.5991
69.4137
67.219
65.0772
62.9278
60.7954
58.6781
56.5676
54.5073
52.452
50.4198
48.4155
46.4089
44.4151
42.4139
40.4173
38.4557
36.5013
34.5553
32.6112
30.696
28.8213
26.9447
25.0718
23.2376
21.4263
19.6238
17.8395
16.0714
14.3168
12.5792
10.8711
9.17181
7.48736
5.82653
4.16991
2.50913
0.837934
211.819
117.387
92.7808
101.595
97.2394
92.4444
84.9222
82.493
80.4535
78.3012
76.1031
73.8849
71.6678
69.453
67.2562
65.0931
62.9181
60.7885
58.6819
56.5824
54.5011
52.4441
50.4237
48.4105
46.41
44.4137
42.4098
40.4149
38.4485
36.5001
34.5443
32.6124
30.7151
28.8276
26.9373
25.0598
23.232
21.4299
19.6279
17.8382
16.0698
14.324
12.5947
10.8717
9.1684
7.48915
5.81992
4.15936
2.49907
0.839048
120.875
98.0455
97.7522
117.343
90.6072
89.2171
86.505
83.5619
81.1103
78.6995
76.3504
74.0254
71.7342
69.5064
67.2868
65.0967
62.9275
60.7955
58.6795
56.5848
54.5008
52.4489
50.4284
48.4002
46.3999
44.4079
42.4097
40.417
38.4464
36.5015
34.5473
32.6186
30.73
28.832
26.9268
25.0487
23.2223
21.427
19.6316
17.8374
16.0707
14.3398
12.6113
10.8736
9.16187
7.49269
5.82305
4.14805
2.48454
0.829848
114.145
116.544
121.593
108.198
95.5237
92.8221
88.521
84.5503
81.7183
79.0726
76.5722
74.1646
71.8219
69.5475
67.31
65.1096
62.9347
60.7946
58.6828
56.5974
54.5216
52.4604
50.4298
48.3943
46.383
44.3938
42.4079
40.4194
38.4501
36.5055
34.5567
32.6325
30.7367
28.8338
26.9198
25.0381
23.209
21.4165
19.6325
17.8381
16.0723
14.3514
12.6321
10.883
9.1628
7.49057
5.81793
4.1377
2.47844
0.829301
104.474
106.963
111.461
103.45
98.8576
95.4674
90.6928
85.1153
82.01
79.2548
76.6849
74.2327
71.8856
69.5861
67.3277
65.1287
62.9407
60.8157
58.7079
56.6015
54.5236
52.4614
50.4214
48.3942
46.3737
44.3784
42.3961
40.4215
38.459
36.5092
34.5728
32.6465
30.7336
28.8228
26.9225
25.0438
23.2049
21.4006
19.6105
17.8356
16.0772
14.3544
12.6389
10.9016
9.17005
7.47764
5.80312
4.13423
2.47923
0.828718
98.4333
92.2829
147.597
109.877
103.185
95.2341
91.4713
85.9076
81.7005
79.1217
76.6118
74.1812
71.8414
69.5675
67.3224
65.1108
62.9514
60.834
58.7246
56.6001
54.5248
52.4646
50.4137
48.3919
46.3769
44.3728
42.387
40.4279
38.4677
36.5103
34.5762
32.6449
30.7131
28.8116
26.9305
25.0599
23.2049
21.3907
19.6084
17.8391
16.0872
14.3526
12.6225
10.9023
9.18001
7.47522
5.79717
4.13559
2.48175
0.828824
120.149
78.7286
105.23
100.901
84.1329
92.9333
90.6805
84.9766
81.1821
78.8243
76.4213
74.0918
71.7736
69.5164
67.2965
65.0997
62.9395
60.8167
58.6944
56.599
54.5322
52.4629
50.4191
48.3936
46.39
44.3852
42.3865
40.4334
38.4631
36.5006
34.5768
32.6409
30.708
28.8069
26.9386
25.0761
23.2111
21.387
19.6097
17.8452
16.0901
14.3385
12.6044
10.8902
9.18557
7.47786
5.79861
4.14298
2.48797
0.823445
103.019
104.919
105.235
95.7154
88.229
91.067
88.0677
83.8068
80.5618
78.4276
76.1723
73.918
71.6822
69.4563
67.2677
65.0854
62.9393
60.8014
58.6693
56.6012
54.5325
52.4594
50.4216
48.396
46.3976
44.3995
42.3965
40.4297
38.4503
36.4931
34.5717
32.6331
30.705
28.8059
26.9395
25.0857
23.2211
21.3921
19.6126
17.852
16.0888
14.3253
12.5844
10.8788
9.18255
7.47909
5.80546
4.15698
2.49602
0.821876
103.897
104.989
110.531
70.3325
79.2585
85.498
85.735
82.8051
80.055
78.1116
75.9686
73.792
71.6034
69.4138
67.2523
65.0808
62.9391
60.7999
58.6613
56.5783
54.5222
52.455
50.4216
48.4061
46.4026
44.4122
42.4058
40.4225
38.4436
36.487
34.5661
32.6269
30.6982
28.8082
26.9438
25.0879
23.2332
21.4026
19.6165
17.8536
16.0831
14.3116
12.5708
10.8691
9.17742
7.4834
5.82193
4.18044
2.50485
0.824912
110.827
96.3848
101.166
94.8324
94.9242
82.7096
84.9436
82.121
79.7614
77.9161
75.8649
73.7328
71.5837
69.4049
67.2344
65.0703
62.9328
60.8039
58.6636
56.5732
54.5182
52.4558
50.4213
48.414
46.4086
44.4105
42.4121
40.4201
38.4453
36.4957
34.5595
32.6139
30.6914
28.8145
26.9466
25.0823
23.2381
21.4164
19.6181
17.8455
16.0759
14.3033
12.5663
10.8665
9.17293
7.4851
5.82829
4.18077
2.51136
0.834155
107.114
135.618
124.198
98.6969
91.1602
79.595
84.1447
81.9888
79.8695
77.9855
75.9
73.7561
71.599
69.4136
67.2187
65.0772
62.9281
60.7951
58.6782
56.5677
54.5073
52.4519
50.4199
48.4155
46.4088
44.4152
42.4138
40.417
38.4556
36.5014
34.5553
32.6111
30.6959
28.8212
26.9446
25.0717
23.2376
21.4261
19.6237
17.8396
16.0713
14.3167
12.5791
10.8711
9.1717
7.4873
5.82649
4.16988
2.50912
0.83792
76.6631
138.398
95.9571
100.27
99.7293
93.6852
84.9379
82.4929
80.4537
78.3012
76.103
73.8848
71.6678
69.4529
67.2561
65.0932
62.918
60.7883
58.6819
56.5824
54.501
52.4441
50.4236
48.4104
46.4096
44.4137
42.4093
40.4148
38.4491
36.5002
34.5441
32.6123
30.7158
28.8276
26.9372
25.0597
23.232
21.4297
19.6278
17.8382
16.0699
14.324
12.5947
10.8715
9.1683
7.48909
5.81983
4.1593
2.49904
0.838961
113.057
96.9605
100.382
95.6304
99.3296
86.2643
86.5128
83.5618
81.1102
78.6994
76.3504
74.0252
71.7339
69.5065
67.2869
65.097
62.9274
60.7954
58.6796
56.5847
54.5007
52.4488
50.4283
48.4002
46.4
44.4078
42.4097
40.417
38.4465
36.5015
34.5468
32.6187
30.7303
28.8316
26.9266
25.0489
23.2222
21.427
19.6315
17.8374
16.0706
14.3397
12.6112
10.8735
9.16183
7.49265
5.82287
4.14798
2.48456
0.82979
90.0495
95.0849
91.4252
93.1676
90.0185
95.1451
91.4149
92.4315
95.0215
93.0193
95.1266
92.3338
94.9964
93.052
93.156
93.9179
91.8597
95.3078
93.1856
93.8969
91.8582
91.0911
90.4496
88.7643
92.8732
91.0944
93.1878
88.8067
88.0412
85.6319
85.7207
91.3204
88.0348
86.0183
85.7098
85.3728
85.4721
84.4779
84.1035
85.3455
89.0114
84.4786
84.29
88.9569
84.2643
84.6234
84.3075
88.5972
84.2444
83.6999
97.8208
85.1758
80.5027
83.6991
88.1868
85.1754
86.2406
88.1387
86.3881
92.6098
86.281
86.4889
86.1192
86.3005
94.0449
89.2414
88.8746
86.1809
93.7451
89.2106
90.0037
94.7815
91.4061
93.0957
90.0288
95.5741
91.4016
92.3231
94.9819
93.0521
95.4854
92.3156
95.1651
93.0501
93.1902
93.9005
91.8547
95.2273
93.182
93.847
91.867
91.0918
92.7339
88.6658
94.4935
91.0996
89.2315
88.6763
88.0366
84.4378
85.7157
96.0018
88.0308
84.0019
85.6821
85.3303
89.0184
84.4985
84.1931
85.3164
83.9898
84.4929
84.271
88.343
84.2523
83.2845
84.1157
81.8331
84.2366
83.6981
93.8645
85.1724
79.8401
83.7048
90.648
85.2383
86.2894
86.5036
86.1013
95.2753
86.2893
87.6607
86.0318
86.1404
93.2505
89.2243
88.1562
86.1938
93.4183
89.2157
90.0309
95.4235
91.4022
92.8425
90.0444
95.2195
91.4493
92.3243
95.8066
93.0378
97.1803
92.4378
95.8733
93.0186
93.1727
93.9355
91.8709
95.3138
93.1373
95.1257
91.8702
91.1086
89.2121
88.6522
99.3304
91.0967
89.61
88.696
88.0519
84.1493
85.7511
84.8729
88.0736
84.1346
85.7482
85.3556
84.1957
84.4908
86.1862
85.3515
83.9421
84.5057
84.1605
84.2474
84.2528
82.948
84.0825
84.6283
84.2613
83.7066
90.8933
85.2279
80.1187
83.7083
90.673
85.1509
86.2803
86.7649
86.0692
93.2877
86.2377
87.1849
86.3282
86.2127
93.9053
89.1737
88.5465
86.2487
93.774
89.2338
93.0066
99.2875
101.068
95.6328
94.4672
98.6956
98.7411
92.5772
92.201
94.947
93.1542
93.9434
95.0185
92.1592
86.7114
89.5984
87.4293
88.5181
86.7203
89.5985
87.4392
96.1019
100.028
97.202
99.6832
96.0587
99.3219
97.2077
94.6186
94.4939
98.8474
94.9971
94.4988
97.1619
94.5859
87.6555
91.3194
87.9057
90.6911
87.6643
91.2002
87.9151
96.4723
97.2889
96.1213
97.4636
96.4633
98.3411
96.7159
94.2064
94.9119
94.7375
95.2371
94.6255
94.7414
94.1997
88.0169
91.1317
86.9568
91.4758
88.016
91.1342
86.9672
94.0603
95.4718
99.3058
92.5887
92.6953
91.5029
102.31
92.0848
92.6622
87.8601
94.2897
92.7593
88.5593
100.847
86.5518
88.7638
85.3146
90.6882
86.5577
88.7676
85.3158
89.859
122.109
108.748
101.27
92.6973
118.59
85.9685
87.2009
88.546
95.0103
91.0988
88.5011
93.3977
87.8534
84.9793
86.018
83.9067
88.0759
84.9767
86.016
83.8879
101.166
71.724
80.2601
88.4223
111.015
71.5231
80.3743
85.0296
83.9005
88.7173
83.3148
84.0377
88.7708
85.0498
83.6376
85.0166
82.9654
85.7337
83.6161
85.0222
82.963
92.5668
97.7479
88.6206
88.8355
91.6934
91.7911
86.273
84.3808
82.4091
93.0445
92.8304
82.5382
85.1456
84.5476
82.7056
84.7136
82.6352
84.9493
82.6977
84.6948
82.6421
77.7481
106.269
95.9723
89.5799
74.992
101.759
95.4754
83.6906
81.3834
86.7095
80.0706
81.3853
86.5746
83.661
82.6155
84.6205
83.3485
84.1318
82.6234
84.4959
83.3471
98.4215
107.067
92.6031
97.298
83.8029
110.273
82.4023
87.1359
86.2554
92.0084
91.4629
86.2947
91.7268
87.0985
83.7769
85.9854
84.4188
84.9375
83.7855
85.9966
84.428
89.2481
90.2333
94.5034
99.2157
83.8668
92.9107
93.3947
89.3298
86.8575
97.4684
88.939
86.8633
90.9394
89.5067
84.9406
88.1168
85.9497
86.5069
84.948
88.1162
85.9581
93.7064
98.5306
98.362
96.6844
98.5151
98.4984
109.687
93.5121
92.2172
93.9396
93.1429
93.4675
93.9536
92.2322
86.7195
89.5969
87.4387
88.5185
86.7193
89.5964
87.4385
96.041
99.193
96.9508
100.401
96.8031
100.119
97.021
94.6979
94.4865
95.0088
95.2613
94.6578
94.5055
95.0625
87.6628
91.197
87.9142
90.69
87.662
91.1952
87.914
96.6037
96.9582
96.939
97.3648
96.614
99.3688
95.6259
94.1132
94.7264
94.8093
95.2385
94.12
94.7486
94.773
88.0147
91.1334
86.9651
91.454
88.0146
91.1223
86.9651
94.5913
91.6417
95.4109
96.4678
93.1736
83.9519
93.2304
90.7264
92.2662
91.5015
92.9926
90.7857
92.277
91.3596
86.5552
88.7606
85.3123
90.6897
86.5588
88.7634
85.3112
89.4118
115.843
85.8774
93.3516
88.8386
92.4705
84.0926
88.0236
88.4538
95.0901
93.0698
87.8891
88.6076
95.9458
84.9741
86.0199
83.8907
88.07
84.975
86.0113
83.8869
93.0053
68.2739
102.024
78.5467
89.5875
102.248
78.0364
85.0581
83.7336
89.0082
84.1624
84.976
83.7708
88.7723
83.6184
85.0288
82.9604
85.7324
83.6219
85.0349
82.961
134.061
90.5668
100.644
89.0509
72.6924
93.622
90.3784
84.3848
82.8127
101.835
101.742
84.4847
82.8464
87.7038
82.6957
84.7027
82.6389
84.9398
82.6982
84.6992
82.6387
71.0496
96.6463
60.7189
90.5386
80.9232
103.729
102.927
84.152
81.4612
87.4875
81.7048
83.7554
81.4998
89.1984
82.6214
84.4931
83.3464
84.1414
82.6219
84.4243
83.3457
83.5767
111.037
81.4475
96.9563
92.2673
117.29
83.8823
87.2881
86.4845
91.7315
90.9863
87.212
86.6009
91.8251
83.7849
85.9732
84.4278
84.9244
83.7847
85.9663
84.4278
88.9905
92.8079
94.3879
97.9426
100.928
88.8966
100.274
89.4449
86.8382
90.9472
94.2174
89.3657
86.8307
90.8873
84.9464
88.117
85.9568
86.5075
84.9462
88.1166
85.9568
94.2484
98.9778
100.283
95.9908
93.7673
98.6924
95.4092
93.4768
92.2754
93.9474
92.8006
93.4797
93.9754
92.2909
86.7199
89.598
87.4388
88.5224
86.7109
89.5987
87.4287
97.3963
99.5765
101.335
97.578
96.6847
101.151
98.7655
94.7396
94.4827
94.9891
95.5412
94.7412
94.5108
95.551
87.6628
91.2046
87.9156
90.6985
87.6534
91.3131
87.9068
97.365
92.6574
95.7994
100.318
97.0953
102.244
96.8747
94.1099
94.7581
94.8018
95.2464
94.114
94.7963
94.7762
88.0158
91.1255
86.9669
91.5848
88.017
91.1094
86.9571
92.7176
84.2522
92.3453
98.9774
95.1152
86.359
91.9262
94.853
92.5649
105.873
92.1902
93.9049
93.07
96.3481
86.5617
88.7578
85.316
90.6966
86.5541
88.764
85.3149
90.734
92.7691
83.5671
98.5008
89.5279
92.0602
83.9922
88.4205
92.5564
91.159
99.4949
88.4891
91.5215
92.3854
84.9774
86.0186
83.8858
88.0627
84.9802
86.0159
83.9035
83.918
101.579
77.1887
84.2517
87.2477
166.761
82.8149
85.2842
83.793
88.8516
85.3362
85.2473
83.8061
88.8704
83.6203
85.0417
82.9632
85.7337
83.6425
85.0345
82.9643
49.2101
90.5397
89.6657
88.8901
44.3009
92.8376
88.6381
83.9893
82.8526
85.1133
82.6083
84.048
82.8233
83.6694
82.6967
84.6926
82.6417
84.9322
82.7032
84.7165
82.6356
76.4711
105.447
101.391
97.6099
77.0149
117.183
91.1113
84.5471
81.7029
88.2216
80.0526
84.8383
81.7401
87.802
82.6238
84.4547
83.3458
84.1292
82.6157
84.7136
83.3478
95.6769
124.585
83.0685
106.492
95.6482
66.0821
86.1092
87.4148
87.2214
92.8503
93.4959
87.5594
87.3948
92.7525
83.7852
85.9725
84.428
85.0489
83.7764
85.9824
84.4191
100.47
90.1319
99.9085
91.9911
82.9828
91.9619
99.4161
89.4657
86.7772
90.9217
86.8528
89.3113
86.7589
91.547
84.9476
88.1147
85.9581
86.5153
84.9398
88.1148
85.9498
92.6884
92.4695
90.5956
90.0653
90.5174
95.6171
92.3053
93.2329
94.6834
93.9206
95.0584
94.6652
93.9189
93.327
92.8761
91.5367
93.0808
91.4234
91.6064
93.0774
93.0894
93.3024
93.1527
92.1296
93.9194
93.9389
93.494
92.1006
93.4139
90.0479
92.2534
90.4998
90.4724
93.5543
92.2022
93.2421
95.0387
94.595
93.9141
94.6163
93.9166
93.2431
92.8804
91.4173
91.5959
93.0857
91.6153
93.0737
92.8983
94.0735
93.9613
93.0426
92.3815
93.9656
92.8967
94.0289
94.9616
95.7614
94.6735
95.0091
95.8291
94.6756
94.9561
94.1506
93.3122
93.9718
93.0317
93.2453
93.9812
94.1243
94.6835
95.073
94.4782
96.3999
94.4913
97.4774
94.6438
94.0856
92.3519
94.0058
92.8714
93.9863
92.8763
94.0714
94.9657
95.0101
95.8791
94.6773
95.7453
94.6662
94.9828
94.1587
93.0444
93.1971
93.9759
93.214
93.9792
94.1615
93.7651
93.8764
93.0634
93.1701
93.8878
93.0754
93.7526
93.4537
95.1131
93.1794
93.9195
94.6169
93.1776
93.4658
93.4547
92.5504
92.4734
91.8637
92.5588
92.4699
93.6414
94.1565
95.2406
94.7291
94.751
94.6901
94.7424
94.1637
93.6515
93.1777
93.884
93.0737
93.8918
93.0828
93.6932
93.4294
93.8996
94.4789
93.1769
94.5263
93.1717
93.4439
93.4234
91.8641
92.5461
92.4487
92.5566
92.5245
93.4497
90.8544
91.5171
90.1758
91.0955
91.3992
90.1957
90.8181
89.2706
109.96
89.2048
91.7598
95.5524
89.1796
89.7582
89.4587
89.4094
88.7916
88.7223
89.4097
88.7353
89.4714
91.2282
97.287
93.1698
91.2326
91.7578
87.0869
90.857
91.734
91.0985
91.4256
90.205
91.5545
90.2128
90.4702
88.9872
95.6848
91.2269
89.227
100.555
89.1864
89.2696
89.5403
88.8763
89.4218
88.7464
89.4387
88.7465
89.3358
87.566
88.2522
87.2542
88.0506
88.2515
87.25
87.5758
85.9254
89.4634
84.97
85.1769
86.9614
85.0071
86.1431
86.3237
86.3899
85.4067
85.7073
86.3647
85.4061
86.3321
87.3997
91.3169
88.4412
93.8792
88.4393
93.3742
87.8544
87.492
88.0306
88.1747
87.2412
88.2573
87.251
87.4403
85.8595
87.3933
88.6864
85.0153
87.0266
85.0024
85.8903
86.3312
85.7648
86.3673
85.3944
86.418
85.4058
86.2773
85.5223
85.1262
85.2476
85.3725
85.1074
85.2518
85.6078
84.0564
90.2529
83.1972
89.7607
92.7622
83.0751
84.1368
84.9202
84.7334
84.7446
84.4759
84.725
84.7541
84.9593
84.872
83.9994
83.7579
89.0245
83.8102
89.1106
84.9131
85.5232
85.5202
85.1301
85.2797
85.1198
85.3057
85.5533
84.0583
90.4434
87.1696
82.9211
87.0577
83.2184
84.0268
84.9332
84.4738
84.7134
84.7259
84.7245
84.7304
84.9555
84.5812
84.1927
84.5939
84.4124
84.1564
84.5556
84.6534
84.2104
89.1746
84.2099
89.5051
84.0412
84.1886
84.1
84.159
84.2124
84.193
84.2165
84.1886
84.1683
84.1677
84.6624
97.1519
82.597
83.3192
82.386
91.905
84.4671
84.5805
84.1413
84.104
84.5678
84.1756
84.5708
84.5493
84.5729
88.633
86.247
84.0325
83.8616
84.2071
83.7979
84.1113
84.2608
84.2166
84.1454
84.2349
84.1647
84.133
84.3727
83.1962
84.3336
83.7033
83.1756
84.3418
84.3596
83.4747
79.4971
84.1082
95.6725
71.5901
84.3415
85.4983
84.233
84.4329
86.1506
85.2028
84.4319
86.164
84.2415
83.7295
79.456
81.3738
91.207
81.4262
85.2636
84.6495
84.5197
83.702
83.1697
84.3314
83.1578
84.3366
84.4629
83.2755
100.97
98.4777
85.2117
70.1081
84.1392
83.1987
84.1974
85.1917
84.4587
86.1549
84.4538
86.1665
84.9042
87.9557
87.0866
86.4803
86.256
87.0939
86.488
87.9405
85.6301
88.8513
86.9822
88.047
89.0342
86.9833
85.7026
87.2135
86.015
87.6744
86.3761
85.8456
87.5916
87.2638
87.1445
93.4478
86.3958
92.4963
86.3301
92.0317
87.1608
87.9597
86.2661
87.0763
86.4775
87.0885
86.49
87.9605
85.6868
87.1519
88.4415
86.9642
88.6292
86.9759
85.6723
87.2736
86.3253
85.8645
87.8208
85.8762
87.7751
87.2758
90.076
87.6695
87.523
86.2314
87.7262
87.4531
90.1756
90.4597
92.8473
91.4104
93.3448
92.1012
90.508
91.4394
90.1553
88.0714
92.8804
89.2518
88.0587
90.1739
92.8078
89.3677
89.0671
86.8409
91.1489
86.8534
91.0606
89.3764
90.1661
86.2029
87.7512
87.471
87.745
87.425
90.1547
90.4444
93.3242
91.6867
91.5279
92.1086
90.4206
91.4536
90.1859
89.2303
88.0367
92.855
88.0442
90.2609
92.7532
93.5001
92.3503
90.514
90.0206
93.5194
90.5212
92.2995
93.2428
94.3844
93.9164
94.9123
93.2445
94.4305
93.92
92.9107
91.588
93.099
91.4051
92.9039
91.5957
93.1054
93.5165
93.1509
92.2669
93.9541
93.9627
93.5096
92.2402
93.452
90.0316
92.2854
90.5374
90.5337
93.4552
92.2724
93.2356
95.1957
93.6075
93.8998
96.0574
93.9171
93.2309
92.9264
91.4042
91.6068
93.1214
91.599
93.1106
92.9266
94.0541
94.0207
92.8667
92.3138
94.0587
94.0258
92.8707
95.007
95.7196
94.6684
94.9802
94.9974
95.9076
94.6711
94.1526
93.1898
93.9762
93.0525
94.1597
93.1961
93.9804
94.6674
95.3599
94.4846
94.9903
94.5002
95.0227
94.684
94.0633
92.3139
93.9825
92.8646
93.996
92.8722
94.0364
95.0252
94.9742
95.5672
94.6727
95.7354
94.6685
95.0433
94.1487
93.0555
93.2198
93.9808
93.2176
93.9833
94.1413
93.6073
93.8807
93.071
93.1885
93.6181
93.8775
93.0681
93.3573
96.8585
93.2352
93.8901
93.4033
95.4063
93.1684
93.5691
92.5402
92.4524
91.8586
93.5612
92.5341
92.482
94.1245
95.2218
94.7675
94.7923
94.7424
94.7718
94.1209
93.6151
93.1876
93.8303
93.0577
93.8551
93.0647
93.5945
93.3446
93.8587
93.6536
93.1698
95.4269
93.1793
93.3516
93.5016
91.8644
92.5243
92.4633
92.5291
92.4658
93.5382
90.3831
91.4127
90.2285
91.0944
90.3018
91.5283
90.2187
89.0993
100.915
89.2064
96.7159
89.202
97.4934
89.1759
89.4347
89.4092
88.7417
88.654
89.3948
89.4205
88.7528
95.6346
93.5391
92.561
98.1575
92.3905
94.8481
95.4999
90.4959
91.0962
91.2242
90.2536
91.2155
90.2048
90.0209
88.929
89.1804
97.0004
89.1703
97.0596
89.1634
89.4238
89.4506
88.8278
89.445
88.7522
89.4309
88.7713
89.4152
87.3756
88.1369
87.2583
88.0184
87.408
88.0539
87.2411
85.8948
87.7495
85.0686
83.9441
85.9
87.346
84.9027
86.2322
86.4187
85.3766
85.6948
86.2559
86.3553
85.3891
87.905
99.8863
88.7164
92.9666
88.679
94.02
87.6236
87.3669
88.1064
88.0372
87.2255
88.0103
87.2799
87.3586
85.9471
83.9071
87.0187
84.865
87.0744
84.9119
86.0063
86.2188
85.7198
86.3641
85.3998
86.4001
85.3703
86.2126
85.5219
85.1635
85.2692
85.3073
85.526
85.149
85.2624
83.9893
87.1693
82.9018
89.1471
84.044
86.3458
82.9316
84.9716
84.7244
84.715
84.4878
84.9676
84.7182
84.697
85.1569
84.1748
83.7748
88.8507
83.7569
91.6096
85.1923
85.5277
85.3119
85.139
85.2803
85.1466
85.3971
85.5302
83.9459
97.1021
89.3872
82.9095
90.3419
82.924
83.9342
84.9781
84.4991
84.7095
84.6365
84.7513
84.6646
84.9834
84.5027
84.0996
84.6157
84.0543
84.5184
84.1087
84.5898
83.7964
85.1181
84.0397
88.878
83.971
83.7086
84.3375
84.1729
84.2506
84.1267
84.2423
84.2405
84.2331
84.1002
84.0616
83.8623
82.8704
85.5801
82.8744
86.3219
83.956
84.4887
84.0502
84.0086
84.5611
84.1673
84.6005
84.462
83.9013
93.6541
88.6037
84.0148
95.0593
84.1524
83.9402
84.1646
84.2569
84.1862
84.04
84.2643
84.0658
84.1429
84.3677
83.1704
84.3287
83.7019
84.442
83.1617
84.3313
86.3578
93.2133
84.7237
91.4385
84.3502
99.0567
84.6072
84.5347
84.4369
86.1587
85.1866
84.5599
84.4273
86.1845
84.2615
79.451
81.6182
110.555
81.5903
90.8028
84.6387
84.2777
83.7036
83.1576
84.3384
83.1533
84.3345
84.2339
83.7756
90.2088
98.5137
85.1283
99.9283
84.8751
81.8024
84.5423
85.2129
84.6111
86.1869
84.5202
86.1969
84.3359
87.9813
87.0643
86.4667
86.2917
87.9688
87.0501
86.4721
85.8498
88.2487
86.9993
86.8259
85.8508
90.7224
87.1983
87.2675
85.8918
87.8269
86.2222
87.2603
85.8818
87.9027
87.3735
100.1
87.0648
92.8085
86.8225
92.4834
87.4711
87.9881
86.2913
87.0179
86.4828
87.0337
86.4737
87.9902
85.988
86.533
88.4952
87.1561
89.3097
87.1479
85.9394
87.3109
86.1125
85.9165
87.7844
85.8889
87.7727
87.3049
90.2032
87.7968
87.4362
86.1333
90.0448
87.8597
87.4
90.4404
93.2736
91.4472
93.4129
90.4361
93.6209
91.4886
90.3744
88.002
92.7024
89.2642
90.3687
87.9993
92.7747
89.3812
89.8165
86.7839
90.9197
86.8048
90.831
89.3535
90.036
86.1435
87.731
87.4149
87.817
87.4041
89.9923
90.4192
94.0767
92.0674
91.2425
94.1754
90.3911
91.537
90.241
89.2683
88.0666
92.5018
88.0287
90.2043
92.8395
93.5178
92.2843
90.5277
90.0244
93.5201
90.4919
92.302
93.2372
93.5014
93.8827
95.1572
93.2272
93.2066
93.8744
92.9071
91.6299
93.1338
91.4016
92.8922
91.6576
93.1308
93.419
92.8355
92.2686
94.401
93.9912
94.5409
92.2599
93.4894
90.0301
92.4869
90.5856
90.5136
95.156
92.3393
93.2557
95.0877
93.3103
93.8778
93.4687
93.877
93.3009
92.9807
91.4164
91.5691
93.0924
91.6469
93.1143
93.0974
94.1239
93.9597
92.9607
92.3407
94.1651
93.9629
92.8693
95.0602
96.6212
94.8024
95.8458
95.0555
97.9782
94.7078
94.1576
93.2206
93.9816
93.0356
94.1504
93.2338
93.9891
94.7538
95.5021
94.5597
95.8327
94.5298
95.4139
94.7446
94.0904
92.3801
93.9892
93.0582
93.9512
92.9129
94.0655
95.0708
96.0351
95.3109
94.7204
95.861
94.695
95.0557
94.1419
93.0321
93.3376
93.9855
93.2658
93.9933
94.118
93.616
93.8241
93.0602
93.1645
93.6072
93.8362
93.0573
93.2756
93.6796
93.1509
94.3548
93.2778
94.5384
93.1805
93.5663
92.5313
92.4472
91.8734
93.5523
92.5349
92.4645
94.2059
95.3252
94.7928
94.7625
94.7794
94.8046
94.1551
93.7243
93.1553
93.8358
93.0433
93.8461
93.0558
93.6646
93.3031
94.2989
97.4588
93.5136
95.0969
93.7182
93.2982
93.7242
91.8748
92.5384
92.4686
92.5451
92.4551
93.6247
90.6487
91.8605
90.207
91.0954
90.3232
91.6564
90.2074
90.0552
99.7245
89.1408
89.2272
89.7882
99.4101
89.4023
89.508
89.5664
88.7607
88.6467
89.4972
89.4534
88.7456
91.0149
95.1485
92.5988
89.084
92.6557
88.2796
90.0376
90.9821
91.0923
91.7779
90.1835
91.919
90.1787
90.6657
91.8402
90.0755
93.3555
90.2967
99.0213
89.6726
90.7139
89.5123
88.6641
89.465
88.8173
89.4593
88.7373
89.5071
87.3304
87.9313
87.2725
88.0115
87.3477
88.1499
87.2239
85.9728
87.0055
84.8365
84.2579
86.0071
86.9884
84.7853
86.2283
86.4159
85.3295
85.6973
86.2173
86.3755
85.3176
87.401
84.9674
91.2228
96.4606
90.8585
91.7869
88.3415
87.3255
88.0402
87.8393
87.2417
87.8388
87.224
87.4411
85.923
83.8947
88.7853
84.8903
87.6844
84.7345
86.0164
86.2333
85.7019
86.4254
85.3684
86.3787
85.4137
86.2367
85.5835
85.142
85.2885
85.3909
85.5404
85.1397
85.2785
83.9371
89.0365
82.8403
83.4361
83.9337
88.7772
82.8189
84.9843
84.7367
84.6131
84.5042
84.9909
84.7211
84.5476
85.3043
85.7974
83.8114
89.8562
83.8137
89.0326
85.3147
85.5289
85.3494
85.1871
85.3483
85.1369
85.2789
85.5757
83.9236
83.5428
88.9695
83.3123
88.9937
82.8172
83.9752
84.982
84.5037
84.7799
84.7489
84.7256
84.551
85.029
84.466
83.9935
84.5761
84.0168
84.4562
84.0385
84.5416
83.9721
88.4225
84.1721
83.9323
84.0202
86.7672
84.1138
84.1438
84.172
84.0294
84.2083
84.1431
84.1638
83.9769
84.1576
82.1158
82.7867
83.4092
82.8082
83.4673
84.0664
84.4659
84.2886
84.0302
84.6459
84.0218
84.5439
84.5901
84.0362
82.2072
86.3223
84.2413
86.3595
83.9302
84.0531
84.1518
84.2025
84.2184
84.0298
84.1647
83.9705
84.2515
84.2344
83.1546
84.3441
83.7099
84.2211
83.149
84.3484
82.1274
102.949
85.1919
92.1604
81.5507
88.905
85.0266
83.7538
84.6087
86.1869
85.1927
84.1513
84.6248
86.2062
84.8138
80.3144
81.7668