/*--------------------------------*- C++ -*----------------------------------*\
| =========                 |                                                 |
| \\      /  F ield         | OpenFOAM: The Open Source CFD Toolbox           |
|  \\    /   O peration     | Version:  5.0                                   |
|   \\  /    A nd           | Web:      www.OpenFOAM.org                      |
|    \\/     M anipulation  |                                                 |
\*---------------------------------------------------------------------------*/
FoamFile
{
    version     2.0;
    format      ascii;
    class       surfaceScalarField;
    location    "1.9";
    object      phi;
}
// * * * * * * * * * * * * * * * * * * * * * * * * * * * * * * * * * * * * * //

dimensions      [0 3 -1 0 0 0 0];

internalField   nonuniform List<scalar> 
27883
(
2.12103e-10
-1.15641e-10
1.24279e-10
2.87144e-09
-1.24052e-09
-4.55477e-09
2.02371e-10
-5.16919e-10
-3.79668e-10
-5.33672e-10
-1.46379e-09
1.46619e-09
1.40106e-09
-2.65619e-09
4.30727e-09
1.4067e-10
1.31304e-10
-4.41775e-09
-3.83454e-10
-1.38182e-09
6.31399e-09
-3.21584e-09
2.51509e-10
-1.10855e-10
1.20623e-10
-1.09069e-10
-4.69847e-11
2.03216e-10
-1.94184e-11
1.97237e-11
-2.92145e-11
-8.60709e-11
-4.51091e-11
1.38184e-09
-3.06937e-11
-3.34245e-11
-2.49922e-10
-2.63644e-10
-4.13044e-10
-4.40514e-10
1.35418e-09
-3.66978e-13
-8.77113e-13
1.34207e-09
-2.57522e-12
3.08115e-13
1.33386e-09
-4.32208e-13
9.18432e-14
1.3302e-09
-1.00148e-13
-3.6572e-14
1.32866e-09
2.57424e-14
1.33895e-13
1.32538e-09
-3.69552e-13
-2.68954e-13
1.3245e-09
-1.95339e-13
3.00163e-13
1.32367e-09
1.37113e-12
-3.50135e-13
1.32365e-09
-1.62066e-13
1.17258e-13
1.32241e-09
-3.19768e-13
2.10746e-14
1.32183e-09
4.80419e-13
-9.71675e-13
1.32152e-09
6.30173e-14
2.51365e-13
1.32273e-09
5.21197e-13
-2.90013e-13
1.32222e-09
4.32925e-13
-5.28191e-13
1.32162e-09
4.83359e-13
-3.10336e-13
1.32136e-09
-1.16624e-13
2.69073e-13
1.32078e-09
-6.77877e-13
7.05465e-13
1.32106e-09
4.77631e-13
-6.00832e-13
1.32105e-09
4.106e-13
-7.35496e-13
1.3208e-09
5.92257e-14
8.54556e-14
1.32062e-09
-2.85656e-13
-1.25161e-12
1.32067e-09
-4.34653e-13
5.49444e-14
1.31979e-09
-1.03125e-12
3.74752e-12
1.32003e-09
-8.68002e-13
2.83276e-12
1.31962e-09
-1.57716e-13
1.31418e-13
1.32114e-09
-3.17413e-12
1.51353e-12
1.32072e-09
2.2839e-13
-2.65834e-13
1.32014e-09
6.51327e-14
-6.69734e-13
1.31943e-09
3.54192e-13
2.01099e-13
1.31903e-09
6.77561e-13
-4.66959e-13
1.32148e-09
-4.67219e-12
1.61095e-12
1.32056e-09
5.82468e-13
1.56162e-13
1.32031e-09
1.84648e-13
-4.11863e-15
1.32043e-09
7.08984e-14
-2.53687e-13
1.32159e-09
2.56135e-12
-1.49838e-13
1.31974e-09
3.70104e-12
-1.81219e-12
1.31972e-09
-3.76661e-13
1.36286e-13
1.32016e-09
-1.79828e-12
1.12027e-12
1.32115e-09
-1.20704e-12
-3.34183e-14
1.32074e-09
2.91186e-13
1.46378e-13
1.3201e-09
-4.48295e-13
8.31343e-13
1.31804e-12
-1.1827e-12
2.00733e-08
-1.50823e-09
-1.99574e-09
-1.8726e-09
-2.30075e-09
-1.37056e-09
-3.12099e-09
-2.03658e-09
-2.96107e-09
-2.71587e-09
6.96845e-10
8.23897e-10
-1.94046e-10
-1.59203e-09
2.65326e-10
1.30905e-09
-1.3173e-09
1.13048e-09
-1.39712e-09
2.74878e-10
-4.34687e-10
-1.29111e-11
-5.04697e-10
-6.77193e-11
-5.20809e-10
6.4583e-10
8.29469e-10
1.03093e-08
1.94053e-09
-1.86654e-09
-1.03184e-08
-1.3996e-09
1.76921e-09
9.55316e-10
2.99638e-09
-4.32131e-09
4.19012e-11
-7.98987e-11
7.69115e-11
-1.65812e-10
1.26897e-10
-3.39325e-11
2.81923e-12
-2.817e-12
5.24916e-12
2.86819e-11
1.41474e-09
6.53482e-12
-3.77512e-11
-2.6441e-10
-2.64866e-10
-4.45751e-10
-4.44847e-10
-6.82835e-13
9.52825e-12
-3.36821e-12
1.36461e-09
5.14077e-11
-2.11258e-12
1.34617e-09
1.57561e-11
-3.47393e-13
1.33563e-09
9.68595e-12
-7.71601e-15
1.33041e-09
4.72915e-12
-1.13672e-14
1.32755e-09
2.45014e-12
5.22873e-14
1.32565e-09
1.12885e-12
5.33186e-14
1.32439e-09
6.52341e-13
8.42954e-14
1.32409e-09
5.76844e-13
7.91813e-13
1.32325e-09
3.1967e-13
7.61496e-14
1.32294e-09
-9.37103e-13
6.58921e-13
1.32253e-09
-1.03765e-12
1.67977e-12
1.32222e-09
3.23389e-14
1.09383e-13
1.32213e-09
1.09553e-13
2.8913e-13
1.3219e-09
-5.4266e-15
4.7781e-13
1.32169e-09
3.87572e-13
1.23961e-13
1.32147e-09
1.10732e-13
-1.58833e-13
1.32111e-09
-1.72336e-13
-2.86833e-13
1.3207e-09
1.55992e-13
6.03668e-13
1.32072e-09
5.00714e-14
2.40478e-13
1.32065e-09
1.01241e-13
-7.24834e-14
1.3198e-09
-8.0617e-13
1.29481e-12
1.31984e-09
-1.97245e-13
-3.37652e-13
1.32019e-09
3.50677e-13
-1.77961e-12
1.32028e-09
6.19577e-13
-1.62413e-12
1.32159e-09
-4.04157e-12
2.54853e-12
1.3206e-09
-3.26583e-12
1.05167e-12
1.32053e-09
2.86944e-13
-8.67789e-16
1.32039e-09
-2.04847e-13
4.08146e-13
1.32075e-09
1.97989e-13
-2.04052e-13
1.32111e-09
1.25936e-13
1.93603e-13
1.31913e-09
-1.53104e-12
-1.16279e-12
1.31973e-09
1.65835e-13
-1.66851e-13
1.31971e-09
2.91105e-13
-7.49199e-14
1.31907e-09
8.94038e-13
-1.74e-13
1.32002e-09
8.61177e-13
7.64847e-13
1.32158e-09
3.29466e-13
1.82183e-12
1.32116e-09
2.50424e-13
-1.9868e-13
1.32049e-09
3.39789e-14
-1.14935e-12
1.32014e-09
-1.89061e-12
1.04206e-12
1.3201e-09
4.1046e-13
-6.96133e-14
1.32046e-09
1.48247e-13
-9.53152e-13
-2.09708e-13
1.24158e-12
-9.23191e-10
-5.83974e-10
2.04155e-09
-5.09427e-10
-9.12945e-10
1.8436e-09
-3.21859e-09
9.11599e-09
-6.82806e-09
1.4803e-09
1.75653e-09
-2.10337e-09
-4.07346e-12
-1.12939e-09
-1.7472e-09
-6.43348e-10
-1.13839e-10
2.49376e-09
1.06333e-11
-1.28431e-09
5.91627e-09
1.80661e-09
1.7019e-09
-8.14048e-09
1.49241e-11
-1.64886e-10
1.60623e-10
1.84683e-10
-1.95345e-10
-1.27575e-10
1.03275e-11
-1.20438e-11
8.70275e-11
4.22635e-11
-2.05276e-10
2.0087e-10
1.08703e-11
3.52162e-14
1.32043e-09
2.77801e-11
-2.09351e-11
-2.43204e-10
-2.42127e-10
-3.96166e-10
-3.94563e-10
1.32523e-09
1.25026e-11
-2.02406e-12
1.32605e-09
7.8845e-12
5.5013e-13
1.32592e-09
4.33307e-12
1.20232e-13
1.32544e-09
2.40482e-12
1.48804e-13
1.32474e-09
1.38346e-12
1.00256e-13
1.32406e-09
9.03958e-13
1.00774e-13
1.32359e-09
6.26987e-13
1.25941e-13
1.32319e-09
3.33507e-13
9.47036e-14
1.32298e-09
-1.68111e-12
6.9344e-13
1.32251e-09
1.51618e-12
-2.33597e-12
1.32224e-09
1.31342e-14
6.18409e-14
1.32214e-09
-3.91346e-13
3.82772e-13
1.32214e-09
-2.17787e-13
1.91378e-14
1.32125e-09
6.68344e-13
4.32791e-13
1.32139e-09
-2.98643e-13
1.11011e-13
1.32072e-09
-8.83222e-13
1.2456e-12
1.32044e-09
9.638e-13
-6.49332e-13
1.32038e-09
-5.89154e-14
6.1053e-14
1.32017e-09
-5.12664e-14
2.62924e-13
1.32056e-09
5.61351e-13
-1.82665e-12
1.32112e-09
9.96106e-13
-1.8185e-12
1.32089e-09
4.78649e-13
5.10921e-14
1.32186e-09
6.73222e-13
-1.06642e-12
1.32027e-09
-1.04171e-13
-2.38347e-12
1.31984e-09
1.38217e-13
-2.9948e-12
1.32007e-09
-1.64358e-14
6.07555e-14
1.3204e-09
-1.50508e-13
-3.85799e-13
1.32049e-09
1.01115e-13
5.955e-15
1.32026e-09
-2.01335e-14
3.70979e-13
1.31962e-09
-3.58665e-13
-5.22385e-13
1.31975e-09
-1.14678e-13
1.57341e-13
1.3198e-09
2.32384e-13
1.84847e-14
1.31983e-09
1.62143e-13
7.18352e-13
1.31989e-09
6.73223e-13
1.36874e-13
1.32159e-09
-1.38303e-12
2.05515e-14
1.32111e-09
3.72644e-13
3.70213e-13
1.32095e-09
2.92724e-14
1.84634e-13
1.32008e-09
1.60859e-13
-1.17882e-12
1.31998e-09
5.49789e-13
-3.03452e-14
1.31981e-09
2.60836e-13
6.89731e-14
-1.98694e-12
8.47475e-13
2.53654e-10
-3.23953e-09
-1.8882e-09
6.71083e-09
-1.15165e-09
6.38587e-10
-1.13276e-09
-4.21176e-09
2.9441e-08
-1.61644e-09
-7.61717e-09
-2.21409e-09
-5.12369e-09
-3.94108e-09
-1.74993e-09
-2.61156e-09
5.02717e-10
-8.58038e-10
-1.90596e-09
-1.53985e-12
-7.03265e-10
1.56976e-09
1.041e-09
-6.94431e-10
-2.62869e-09
5.43118e-09
1.74653e-09
-3.8546e-09
-2.08128e-09
-5.27728e-09
3.52283e-09
3.1214e-09
7.14336e-10
1.23697e-10
5.52378e-10
-1.40656e-10
2.08624e-10
-7.44043e-10
1.06716e-11
-3.39254e-11
-4.01027e-11
-5.55187e-11
1.18875e-10
-3.23864e-11
1.92679e-10
5.54519e-12
-4.39694e-12
-3.37073e-11
-5.88622e-11
-6.22305e-11
-6.64123e-12
1.30892e-09
4.25787e-12
-2.2404e-11
-2.40635e-10
-2.364e-10
-3.94482e-10
-3.91674e-10
1.31888e-09
4.07482e-12
-1.98635e-12
1.32222e-09
3.55595e-12
5.81119e-13
1.3236e-09
2.58122e-12
-6.20972e-15
1.32411e-09
1.3955e-12
1.36931e-13
1.3241e-09
9.69276e-13
9.28994e-14
1.32378e-09
8.31141e-13
8.08291e-14
1.32349e-09
5.45444e-13
7.53669e-14
1.32323e-09
2.56784e-13
5.72884e-14
1.32233e-09
-4.63121e-14
-1.00283e-12
1.32228e-09
-4.9135e-13
1.81583e-12
1.32211e-09
-2.73338e-13
2.19812e-13
1.32206e-09
-9.59976e-15
-5.46085e-13
1.32151e-09
7.41572e-14
6.9826e-14
1.32139e-09
1.28722e-12
-6.82892e-13
1.32119e-09
-1.94509e-13
-5.80749e-14
1.32124e-09
7.64013e-14
-1.15243e-12
1.32116e-09
7.87208e-13
1.30023e-13
1.32093e-09
-8.01563e-14
1.45523e-13
1.32089e-09
5.97539e-13
-7.02084e-13
1.3214e-09
1.11406e-12
-1.13328e-12
1.32033e-09
4.95562e-13
1.50749e-12
1.32042e-09
4.57598e-13
-1.27259e-13
1.32021e-09
3.19026e-13
5.28608e-13
1.32019e-09
-2.73409e-13
1.57105e-13
1.32029e-09
-7.31472e-14
9.27748e-14
1.32044e-09
-5.7284e-14
-1.27812e-13
1.32027e-09
-3.32781e-14
4.95894e-14
1.32048e-09
-8.24617e-15
-1.04256e-13
1.32043e-09
9.24108e-14
-5.95707e-14
1.32006e-09
-3.50154e-13
3.70889e-13
1.32005e-09
-3.69134e-13
2.66787e-13
1.32018e-09
5.62079e-14
5.98229e-14
1.32034e-09
1.77933e-13
-1.65575e-13
1.32067e-09
6.16682e-13
-2.65371e-13
1.32012e-09
-1.35623e-12
5.42011e-13
1.3206e-09
2.93927e-13
-3.94377e-13
1.32075e-09
6.45983e-14
-1.66015e-13
1.32065e-09
1.3181e-12
-1.05745e-12
1.31954e-09
1.70037e-12
-3.11444e-14
1.31991e-09
-7.17107e-14
-2.94607e-14
-1.98184e-12
3.60976e-13
-3.29588e-09
-1.37711e-09
1.38364e-09
2.72898e-09
-5.04712e-09
1.48358e-09
7.85038e-10
1.8483e-09
2.87737e-09
2.14074e-12
-4.5811e-09
1.9338e-09
-4.19421e-09
3.5457e-09
-6.58867e-10
1.691e-09
5.60962e-09
-1.50638e-08
5.14396e-09
-3.9346e-09
6.82835e-09
-2.58427e-10
7.24564e-11
9.71187e-11
4.71305e-10
-5.38754e-09
1.63927e-09
5.01972e-09
-8.43016e-10
6.40659e-10
-1.48831e-09
-2.80636e-09
3.22557e-09
-2.57717e-09
4.21521e-09
9.03967e-11
-4.67497e-09
-1.84816e-08
2.70928e-08
-3.91157e-09
-1.26325e-09
-1.44585e-09
1.12829e-09
-1.74772e-10
1.12128e-09
-3.12048e-10
5.05296e-10
-8.12396e-10
-5.02129e-10
-7.88341e-11
5.35002e-11
-4.72414e-11
-3.01595e-12
7.55914e-11
-3.26515e-11
1.90742e-10
-1.08356e-12
1.46171e-12
-3.28978e-11
-6.23009e-11
-6.27921e-11
-4.77314e-13
1.31499e-09
-5.26341e-12
-2.28826e-11
-2.40108e-10
-2.39067e-10
-4.00817e-10
-4.02774e-10
1.32025e-09
2.32687e-13
-1.78898e-12
1.32215e-09
6.69802e-13
6.21911e-13
1.32244e-09
1.63236e-12
3.08834e-13
1.32419e-09
-1.68212e-12
1.00164e-12
1.32451e-09
2.22049e-13
1.08941e-13
1.32352e-09
2.30337e-12
-7.75215e-13
1.32294e-09
1.3134e-12
-4.75046e-13
1.32301e-09
-1.94643e-13
1.05324e-13
1.32246e-09
3.21315e-13
-7.84662e-14
1.32104e-09
5.36193e-13
1.46528e-13
1.32308e-09
-2.69282e-12
1.51124e-13
1.322e-09
7.09792e-13
1.45164e-13
1.32156e-09
2.50825e-13
6.40251e-14
1.32168e-09
3.13431e-13
6.82868e-13
1.32129e-09
-4.05055e-14
6.98505e-14
1.32124e-09
-1.85237e-13
1.71972e-13
1.32146e-09
-1.98125e-13
6.43508e-13
1.32122e-09
3.67177e-14
1.42041e-14
1.32114e-09
2.32547e-14
5.67114e-13
1.32033e-09
3.0882e-13
1.5368e-12
1.32023e-09
3.9747e-13
1.35188e-13
1.32081e-09
-1.01288e-13
-7.51735e-14
1.32007e-09
1.70945e-12
-6.90885e-13
1.3202e-09
5.20696e-14
-4.89427e-13
1.32029e-09
-1.50848e-13
-3.28714e-14
1.32016e-09
6.6338e-14
-7.61457e-15
1.32023e-09
-1.16952e-13
1.0804e-14
1.31984e-09
8.12988e-13
-4.31513e-13
1.32004e-09
-1.33013e-13
2.63856e-14
1.3202e-09
-1.99417e-13
-3.0866e-13
1.32042e-09
-1.88255e-13
-3.90368e-13
1.32032e-09
2.41811e-13
-7.63293e-14
1.32055e-09
5.68031e-13
-6.04932e-13
1.32077e-09
3.15451e-13
9.13694e-14
1.32017e-09
2.22989e-13
-9.69052e-13
1.32048e-09
-2.75416e-15
6.76631e-15
1.32096e-09
-4.57814e-13
4.41486e-14
1.32095e-09
-1.3919e-12
2.73428e-12
1.31957e-09
3.34176e-12
-2.50857e-13
1.31977e-09
-7.69434e-13
4.94954e-13
-1.91497e-13
-9.37132e-13
3.39987e-09
-4.22884e-09
-4.25509e-09
1.89864e-09
1.42322e-09
1.77408e-09
-3.94187e-09
2.31481e-10
4.62422e-10
6.64801e-09
1.90148e-09
1.94919e-09
1.03125e-09
-7.96051e-09
3.07858e-09
7.8184e-10
-1.34973e-09
-3.81883e-09
-4.82524e-09
9.21197e-09
-1.72013e-09
-3.40737e-09
3.79666e-09
-2.01857e-09
3.34941e-09
2.3664e-10
-2.10503e-09
7.92054e-10
-3.97024e-10
1.47336e-09
-8.12364e-11
8.05242e-11
-7.80655e-11
-1.91283e-12
8.06905e-11
-3.54127e-11
1.99755e-10
-1.41631e-12
6.56911e-12
3.41203e-12
-3.56976e-11
-6.7687e-11
-6.95229e-11
1.3318e-09
1.40426e-11
-2.47982e-11
-2.44421e-10
-2.46679e-10
-4.13662e-10
-4.21683e-10
1.3273e-09
6.75378e-12
-2.33648e-12
1.32441e-09
2.71383e-12
5.33397e-13
1.32466e-09
1.35467e-12
-2.90103e-13
1.32317e-09
3.00387e-13
-7.95916e-13
1.32282e-09
1.64782e-13
1.11896e-13
1.32359e-09
3.07094e-13
9.41012e-13
1.3238e-09
1.76239e-13
6.51496e-13
1.32321e-09
4.63728e-14
8.0471e-14
1.32321e-09
-5.6267e-13
6.30132e-13
1.32358e-09
1.10722e-14
-9.29991e-14
1.3213e-09
-5.12125e-13
-1.3001e-13
1.32166e-09
-1.60319e-13
2.9405e-13
1.3217e-09
1.02534e-13
-8.57985e-14
1.32162e-09
1.48995e-13
6.95501e-14
1.32112e-09
2.56889e-13
4.14602e-14
1.32095e-09
-1.76116e-14
-1.39059e-13
1.32157e-09
8.86358e-13
-1.82918e-12
1.32147e-09
1.78528e-14
9.52811e-15
1.32117e-09
2.51888e-13
-1.28514e-14
1.32096e-09
6.75143e-13
-2.33102e-13
1.3195e-09
4.44302e-12
-2.65357e-12
1.31972e-09
-4.44543e-13
6.7541e-14
1.32064e-09
-9.01408e-13
1.65904e-12
1.32037e-09
1.44793e-13
1.45615e-13
1.32025e-09
1.96252e-13
-2.50916e-13
1.32003e-09
8.3878e-13
-5.69238e-13
1.32003e-09
-2.87158e-13
1.62212e-13
1.32031e-09
1.02553e-14
5.18156e-13
1.32024e-09
-7.0677e-14
1.58349e-14
1.32023e-09
-7.26807e-13
5.44887e-13
1.32074e-09
-9.22234e-13
2.33542e-13
1.32056e-09
2.78905e-13
1.46299e-13
1.32036e-09
5.94293e-13
1.93337e-13
1.32038e-09
3.59334e-13
-5.29069e-14
1.31978e-09
2.25028e-13
6.04492e-13
1.31979e-09
-1.30159e-13
1.35414e-13
1.31957e-09
-1.32279e-13
-9.55852e-14
1.3196e-09
1.34979e-12
-2.76275e-12
1.3215e-09
1.11067e-12
3.41191e-13
1.3211e-09
-6.38932e-13
2.74593e-13
-8.26622e-13
1.79545e-12
-2.23425e-10
-1.28131e-09
6.30279e-09
2.48485e-09
1.6827e-09
1.33094e-09
-1.39423e-10
-1.34375e-09
-1.16225e-09
-5.85433e-09
1.73929e-08
-2.20285e-08
4.72583e-09
-5.16813e-09
9.45785e-10
-6.53076e-10
-2.16825e-11
1.43992e-10
-1.96131e-10
-5.59924e-11
3.287e-10
-1.9369e-09
2.95813e-09
-1.29393e-09
4.04909e-10
1.28444e-09
-1.86434e-09
1.39378e-09
-1.21879e-09
1.03607e-10
-6.88134e-10
-1.91774e-09
2.07007e-10
2.29526e-09
-4.89054e-10
5.86739e-10
1.15046e-09
2.57905e-09
-3.8272e-09
-1.20786e-10
8.50913e-11
-5.63769e-11
-4.42016e-11
1.36273e-10
-3.18207e-11
-9.27037e-12
1.75954e-10
1.17552e-11
9.52872e-12
-3.18633e-11
-6.1944e-11
-6.23395e-11
1.31648e-09
5.0295e-12
-2.24622e-11
-2.39937e-10
-2.36301e-10
-4.08955e-10
-3.99926e-10
1.32031e-09
4.76288e-12
-2.11141e-12
1.32163e-09
5.2142e-13
5.77883e-13
1.32271e-09
-1.05236e-13
7.77456e-14
1.32313e-09
-5.18478e-13
1.05069e-13
1.32335e-09
-4.3796e-13
9.63626e-14
1.32349e-09
-1.61396e-13
5.68425e-14
1.32348e-09
-1.77644e-13
9.58323e-14
1.32335e-09
-1.76624e-13
8.5833e-14
1.32274e-09
3.1449e-13
-5.18863e-13
1.3229e-09
-6.28843e-13
2.35338e-13
1.3223e-09
2.48093e-13
-3.91871e-13
1.32178e-09
2.77407e-13
-1.33692e-13
1.32153e-09
8.89275e-14
7.03438e-14
1.32154e-09
2.46312e-13
-2.87201e-13
1.32153e-09
-7.79164e-15
1.20106e-13
1.3213e-09
1.28189e-13
-5.50388e-14
1.32056e-09
-3.84405e-13
1.8868e-12
1.32072e-09
-2.82206e-13
3.41072e-14
1.32111e-09
-3.55903e-13
1.23197e-13
1.31934e-09
5.29532e-12
-2.92763e-12
1.32079e-09
6.67292e-13
2.26326e-12
1.3207e-09
-4.40016e-13
3.18826e-14
1.32028e-09
-2.14534e-13
-3.10579e-13
1.32027e-09
3.61902e-14
8.76699e-14
1.3203e-09
-6.2779e-14
2.1092e-13
1.3205e-09
8.27589e-14
5.38342e-13
1.32036e-09
1.38985e-14
-1.67479e-13
1.32037e-09
-3.69332e-14
4.07054e-14
1.32047e-09
-1.31066e-13
-3.98175e-14
1.32027e-09
-2.86677e-14
-4.9383e-13
1.3206e-09
-1.55077e-12
3.0945e-13
1.32113e-09
-2.66114e-13
3.08134e-14
1.31995e-09
1.88246e-12
-1.01095e-13
1.31988e-09
4.50249e-13
-1.36877e-14
1.31968e-09
3.21558e-13
1.22031e-13
1.31978e-09
-2.86535e-13
7.0158e-14
1.31965e-09
-1.19639e-14
2.25898e-14
1.32009e-09
-7.99913e-13
1.71557e-12
1.3205e-09
6.61177e-13
5.02557e-14
1.32076e-09
-8.47832e-14
-8.14598e-13
-1.73205e-13
-1.30696e-12
-4.17315e-09
-9.87422e-09
1.29571e-08
3.29117e-09
-1.24022e-09
1.67115e-09
3.05223e-09
-6.77432e-09
-8.11602e-09
-4.11896e-10
4.70348e-09
-1.70443e-09
-1.05886e-09
4.07144e-11
-2.05554e-09
-7.43658e-10
7.62762e-10
1.8463e-09
6.73713e-09
2.2762e-09
5.7993e-10
4.67968e-09
3.72354e-09
-3.19156e-09
-1.50172e-08
-1.05536e-08
1.75036e-08
-1.3892e-09
2.11206e-09
1.65075e-10
-1.45653e-09
5.68595e-10
-4.08207e-10
9.24052e-10
-3.33385e-10
5.70711e-10
-7.53171e-10
-5.99485e-11
1.00311e-10
-1.77396e-11
-1.58185e-10
1.35563e-10
-2.91589e-11
-8.08445e-12
1.6365e-10
7.51083e-13
1.07048e-11
-2.89812e-11
-5.48538e-11
-5.40276e-11
1.29337e-09
-4.13997e-11
-1.99989e-11
-2.30117e-10
-2.27548e-10
-3.87544e-10
-3.81829e-10
1.31007e-09
-1.04959e-11
-1.71673e-12
1.31774e-09
-8.19614e-12
7.43116e-13
1.32127e-09
-4.04506e-12
1.01849e-13
1.32265e-09
-2.36809e-12
1.69868e-13
1.32328e-09
-1.46654e-12
1.07873e-13
1.32346e-09
-7.82925e-13
1.67299e-13
1.32339e-09
-4.73531e-13
9.40253e-14
1.32322e-09
4.92655e-13
-7.64286e-13
1.3234e-09
-4.99243e-13
3.78113e-13
1.32243e-09
-5.83423e-14
1.59841e-13
1.32211e-09
-9.55639e-13
1.29347e-12
1.32202e-09
1.10551e-13
4.80044e-14
1.32173e-09
3.39939e-13
-1.59215e-13
1.32159e-09
-1.58581e-13
3.7267e-13
1.32137e-09
-2.57822e-15
5.15157e-14
1.32094e-09
-6.46222e-13
1.06433e-12
1.3207e-09
-1.73891e-13
-9.57326e-14
1.32015e-09
1.77149e-13
-1.07897e-14
1.31952e-09
1.24347e-13
5.95194e-14
1.3209e-09
7.31612e-13
3.10597e-12
1.32075e-09
7.56538e-13
-7.54987e-15
1.32138e-09
-3.08944e-12
1.96924e-12
1.32093e-09
1.28033e-13
7.06852e-14
1.32021e-09
9.24333e-13
-2.01195e-13
1.32023e-09
-1.20314e-13
1.71917e-14
1.32026e-09
-3.98238e-14
7.74365e-14
1.32034e-09
-1.60865e-13
8.93796e-14
1.32037e-09
-1.48262e-13
7.70243e-14
1.32042e-09
-2.28962e-13
4.86202e-14
1.32067e-09
-2.28866e-13
-4.3509e-14
1.32006e-09
-3.7459e-13
-5.55535e-13
1.31962e-09
3.06448e-14
1.51839e-13
1.3207e-09
6.97263e-13
1.13205e-13
1.31999e-09
-1.47009e-14
1.18835e-12
1.32034e-09
1.61392e-13
-1.70707e-13
1.32007e-09
-2.10578e-15
-3.11987e-15
1.3196e-09
4.42012e-13
2.77878e-14
1.32009e-09
-1.07999e-12
-2.01616e-13
1.32004e-09
4.46165e-13
2.71541e-13
1.32121e-09
-2.65967e-12
1.40856e-12
-3.20073e-13
-4.26652e-13
-8.03346e-09
-9.74657e-09
-9.12386e-11
-4.35854e-08
-2.28896e-07
-8.28658e-08
3.7346e-07
-3.96642e-09
-1.16984e-08
-3.61412e-09
3.00883e-09
9.16116e-09
8.79695e-09
3.13633e-08
-2.80631e-08
-2.58673e-09
-1.81175e-09
-5.95624e-10
4.38693e-09
6.23465e-09
-1.23995e-08
4.87957e-08
-7.08575e-08
1.04287e-08
1.58407e-08
-7.27195e-10
1.62257e-10
-4.11615e-10
-1.4539e-09
-3.86302e-09
7.42375e-09
-1.46648e-10
3.35618e-10
-3.56764e-10
-1.18248e-09
-2.12391e-09
-8.65442e-11
-4.5689e-10
3.97949e-10
-1.12725e-09
7.4592e-11
1.1116e-09
3.07245e-10
1.85169e-09
-5.06841e-10
1.55372e-09
-3.20581e-09
-1.13307e-10
-9.14999e-12
3.88966e-12
8.85516e-11
3.00153e-11
1.32792e-09
-4.062e-11
-2.29815e-11
-2.29891e-10
-2.34012e-10
-3.89472e-10
-3.94336e-10
2.35015e-12
-4.41652e-12
-1.73085e-12
-1.28105e-11
1.31875e-09
-3.10272e-11
-1.51085e-12
1.3232e-09
-1.54135e-11
1.41972e-13
1.32383e-09
-9.25498e-12
9.39718e-14
1.32425e-09
-4.90709e-12
1.04242e-13
1.32415e-09
-2.69132e-12
1.05287e-13
1.32414e-09
-1.87126e-12
1.0318e-13
1.32382e-09
-8.51049e-13
1.03211e-13
1.32382e-09
-1.40324e-12
6.5774e-13
1.32333e-09
-1.45575e-13
8.63874e-13
1.32272e-09
7.62543e-14
-2.2101e-13
1.32272e-09
-1.88917e-13
-1.12508e-13
1.32273e-09
-2.27039e-13
-9.65603e-13
1.32222e-09
3.55527e-13
4.56022e-14
1.32143e-09
5.4482e-13
3.93945e-13
1.32124e-09
-2.31863e-13
8.67294e-14
1.3209e-09
1.64349e-13
1.49496e-14
1.32125e-09
7.21211e-14
-1.21209e-12
1.32105e-09
-2.02227e-13
1.11505e-13
1.32072e-09
6.91922e-13
-2.96565e-13
1.32086e-09
-6.03088e-14
-4.0776e-14
1.32096e-09
3.30998e-13
2.19654e-13
1.32083e-09
1.95191e-13
6.24276e-13
1.31993e-09
-2.90657e-13
-1.951e-12
1.31999e-09
1.8625e-13
-1.5973e-13
1.32055e-09
9.97399e-13
-6.5763e-13
1.32019e-09
3.7311e-14
1.80659e-13
1.32015e-09
-3.66143e-15
-1.07765e-14
1.32026e-09
-6.62447e-13
3.82822e-13
1.3204e-09
-1.32628e-13
-1.56078e-13
1.32052e-09
-4.0736e-13
5.63674e-14
1.32028e-09
6.95225e-13
-6.72752e-13
1.32037e-09
-4.02007e-13
-5.68698e-14
1.32071e-09
-3.26571e-13
2.625e-14
1.32026e-09
2.28786e-12
-1.12764e-12
1.31999e-09
1.71426e-12
-1.44608e-12
1.31979e-09
3.34119e-13
3.9883e-14
1.32047e-09
-1.13651e-12
4.69107e-13
1.32089e-09
-2.60253e-13
2.89314e-13
1.31971e-09
3.25716e-13
-2.13209e-13
1.31992e-09
3.54454e-13
-1.13742e-13
1.32011e-09
1.06461e-12
-3.90826e-12
-1.61609e-12
-5.02731e-14
3.70812e-09
-1.31132e-10
-3.54965e-09
1.63633e-10
-2.40837e-09
2.35691e-09
-1.13365e-09
4.276e-09
-3.09087e-09
-1.81772e-09
-9.65775e-10
-9.19664e-10
1.16968e-10
3.58619e-09
5.53724e-10
2.8651e-10
1.17793e-09
7.07003e-10
-2.72517e-09
-3.67617e-12
5.83697e-09
-1.65797e-08
4.95146e-09
1.25667e-09
2.42803e-10
1.88759e-09
-7.04992e-10
8.49548e-10
1.62268e-09
6.40648e-10
3.32193e-10
4.48888e-10
-1.01765e-10
-3.98097e-10
-2.81218e-10
-2.41768e-11
1.86051e-12
1.70258e-10
-3.50112e-11
9.23628e-12
-2.76404e-11
-4.68184e-11
-5.49819e-11
-2.81188e-13
3.40113e-12
4.15307e-12
1.33638e-09
-3.5412e-11
-2.24961e-10
-2.50048e-10
-3.83157e-10
-4.34475e-10
1.33267e-09
6.18635e-13
1.33086e-09
-1.95569e-13
1.32913e-09
8.65847e-14
1.32694e-09
1.60759e-13
1.3248e-09
-4.28981e-14
1.3256e-09
4.45753e-13
1.32499e-09
-2.00016e-13
1.3235e-09
-8.12265e-13
1.32275e-09
1.73262e-14
1.32347e-09
2.69236e-13
1.32366e-09
1.09806e-13
1.32282e-09
5.75698e-14
1.32085e-09
3.90462e-13
1.3215e-09
3.43366e-14
1.32125e-09
2.971e-14
1.32113e-09
1.19174e-14
1.3215e-09
-7.68507e-14
1.32074e-09
1.11371e-13
1.32068e-09
8.31225e-13
1.32057e-09
-6.06853e-14
1.32105e-09
1.39514e-12
1.32094e-09
4.78719e-13
1.32056e-09
-1.87654e-12
1.31963e-09
-1.1757e-12
1.32003e-09
9.6564e-13
1.32004e-09
1.16101e-13
1.32005e-09
4.19002e-13
1.32029e-09
2.61871e-13
1.32035e-09
-4.77659e-14
1.32016e-09
-8.39144e-15
1.32076e-09
7.13416e-13
1.32043e-09
1.33363e-13
1.3204e-09
-2.01939e-13
1.32145e-09
1.33332e-12
1.31983e-09
-2.09632e-13
1.32029e-09
-1.41811e-13
1.3199e-09
-4.48713e-13
1.32018e-09
-2.70449e-13
1.32073e-09
3.84091e-14
1.32128e-09
-2.01725e-13
1.31999e-09
2.62365e-12
1.2137e-13
2.99677e-08
6.47237e-09
2.73518e-09
-3.86264e-08
2.15462e-09
-1.8557e-09
2.46353e-10
8.62234e-09
5.56319e-10
-1.84226e-08
1.63308e-08
-8.61181e-09
-1.41229e-08
2.69085e-09
6.80247e-09
7.33669e-09
1.69508e-09
1.52426e-08
-1.63284e-09
-6.31393e-11
-1.40241e-08
1.75683e-09
-6.7084e-09
-6.57512e-11
-2.51167e-09
9.25893e-09
-1.4295e-09
5.53008e-10
2.52959e-10
-1.93575e-10
7.92792e-10
-4.95826e-10
-1.50796e-10
1.23337e-11
5.81472e-10
-2.52063e-11
-4.07039e-11
-1.01266e-10
-1.54224e-10
-1.17265e-10
2.27364e-09
-3.4901e-11
3.43097e-11
-5.68988e-10
-6.03942e-10
-5.69015e-10
-6.03941e-10
2.24066e-09
9.09943e-12
1.07922e-12
2.2309e-09
1.04707e-12
1.86368e-13
2.22363e-09
2.47437e-12
9.93575e-14
2.22158e-09
1.70646e-12
-4.47667e-13
2.22144e-09
1.17367e-12
-4.60686e-13
2.21789e-09
1.46799e-13
6.30111e-13
2.21741e-09
1.47882e-13
5.02034e-13
2.21666e-09
-2.77933e-13
9.11304e-13
2.21697e-09
-7.69236e-14
3.15788e-14
2.21548e-09
-4.62867e-13
-1.27668e-14
2.21467e-09
-1.0505e-12
-2.04413e-13
2.21444e-09
9.001e-14
3.05369e-13
2.21623e-09
7.0077e-13
1.97312e-13
2.21541e-09
-3.08903e-13
-6.48554e-13
2.21472e-09
-6.67401e-13
4.06871e-13
2.21435e-09
5.45097e-13
-1.55932e-13
2.21353e-09
-1.00271e-12
6.79637e-13
2.21402e-09
-1.56628e-12
7.20184e-13
2.21418e-09
-7.32986e-13
2.72032e-13
2.21397e-09
5.60303e-14
5.08377e-14
2.21318e-09
-5.49997e-13
3.37385e-13
2.21336e-09
3.39218e-13
-1.27107e-13
2.21219e-09
5.56161e-12
-1.51104e-12
2.21232e-09
4.51105e-12
-2.95428e-12
2.21227e-09
-3.93194e-13
-2.25757e-13
2.21453e-09
1.25419e-12
-1.47973e-12
2.21393e-09
4.55001e-13
4.84037e-14
2.21291e-09
1.81445e-13
1.2241e-12
2.21179e-09
8.38516e-13
-2.25573e-13
2.21136e-09
-9.89012e-13
6.82568e-13
2.21477e-09
-6.86232e-13
-1.87625e-12
2.21382e-09
9.88609e-13
-8.78386e-14
2.21334e-09
3.60872e-13
2.38218e-14
2.21363e-09
-4.52965e-14
-6.74706e-14
2.21539e-09
1.81275e-12
-5.26089e-14
2.21262e-09
4.14707e-12
-3.25544e-12
2.21275e-09
-1.79007e-13
-2.21529e-13
2.21316e-09
-9.76978e-13
1.46626e-12
2.21473e-09
-1.80611e-12
-1.48257e-13
2.2142e-09
3.48444e-13
1.73822e-13
2.21304e-09
8.45614e-13
9.52456e-13
-5.80881e-13
-4.4681e-13
-5.82827e-09
-4.72216e-09
4.40387e-08
-3.30557e-08
1.75092e-10
2.38115e-09
-3.51014e-09
5.73625e-09
2.1426e-09
-1.57458e-09
-5.17528e-09
5.25377e-10
-3.16905e-09
-1.83828e-10
-7.58311e-10
-1.11537e-09
4.70119e-09
-4.87212e-11
3.6613e-09
-2.31057e-09
-7.00167e-10
-3.81119e-09
-1.00255e-08
-4.93957e-10
-1.06969e-09
1.32288e-09
9.12026e-09
-4.55942e-12
4.35936e-09
-2.21379e-09
-3.44839e-09
5.86477e-10
3.83854e-09
-2.67303e-09
3.9102e-09
-6.09242e-10
-1.16256e-10
-5.52436e-10
4.60103e-10
2.22802e-10
5.95028e-10
-1.35203e-10
-7.28342e-12
7.97038e-12
-9.78475e-12
-2.02542e-12
1.46327e-10
2.31695e-09
1.10569e-11
3.85392e-11
-6.10857e-10
-6.09274e-10
-6.10833e-10
-6.09237e-10
-5.49453e-12
1.10636e-11
-5.49048e-12
2.25336e-09
6.73243e-11
2.18983e-12
2.23454e-09
1.80359e-11
4.83334e-13
2.22476e-09
1.12303e-11
8.54202e-14
2.22081e-09
4.67061e-12
9.97478e-14
2.21906e-09
2.13996e-12
2.1559e-14
2.21779e-09
6.99934e-13
3.54526e-15
2.21699e-09
3.51273e-13
-2.1679e-14
2.21716e-09
3.15997e-13
-6.29696e-13
2.21644e-09
1.28505e-13
-1.55621e-14
2.21615e-09
3.77842e-13
-4.74351e-13
2.21566e-09
9.86855e-13
-3.96171e-13
2.21543e-09
-4.74627e-14
-1.86154e-14
2.21539e-09
5.04889e-13
6.72278e-14
2.21504e-09
7.64193e-14
2.78501e-14
2.21487e-09
5.64165e-13
-1.31077e-12
2.21467e-09
1.53173e-13
1.02744e-13
2.21409e-09
-2.23907e-13
-7.8058e-13
2.2133e-09
2.03238e-13
-6.34921e-13
2.21337e-09
-5.37229e-13
-2.44558e-13
2.21336e-09
-2.49252e-13
5.7717e-14
2.21201e-09
4.1131e-12
-2.17377e-12
2.21201e-09
1.60123e-13
-2.93958e-13
2.21297e-09
6.54686e-13
2.06689e-12
2.21317e-09
9.48953e-13
1.65918e-12
2.21505e-09
-2.91985e-12
3.1369e-12
2.21384e-09
1.22121e-12
2.25879e-12
2.21357e-09
7.47804e-13
-4.98979e-14
2.21327e-09
1.2962e-12
-4.15455e-13
2.2139e-09
-1.50948e-13
1.63115e-13
2.21436e-09
-5.93525e-13
-6.55267e-13
2.21163e-09
-1.08868e-12
1.99062e-12
2.21227e-09
3.51226e-13
-1.55224e-13
2.21221e-09
2.34587e-13
1.41447e-13
2.21145e-09
7.94542e-13
-2.24936e-13
2.21298e-09
1.29628e-12
-2.24819e-13
2.21527e-09
2.35798e-13
3.47338e-12
2.21471e-09
2.00508e-14
1.83957e-13
2.21387e-09
1.04376e-13
-1.36265e-12
2.21331e-09
7.58573e-13
-9.48761e-13
2.21322e-09
6.15932e-13
-2.27245e-13
2.21374e-09
1.95646e-13
-8.21433e-13
-3.09367e-13
2.28323e-13
-3.97129e-09
-7.4113e-09
1.06627e-08
2.24602e-08
-2.11327e-08
5.21654e-09
-1.62339e-08
3.24917e-09
-2.60699e-09
-4.19729e-09
1.45724e-08
2.67635e-10
-1.69534e-09
5.76784e-09
-5.16419e-09
2.04799e-09
-1.22394e-09
-2.1982e-09
-2.49626e-09
7.07226e-09
3.82437e-09
1.38768e-08
-1.1112e-08
-3.0653e-09
-3.65917e-09
-2.24255e-09
-4.33091e-09
-1.64983e-09
-2.82768e-10
2.00133e-09
6.09316e-09
-1.83098e-09
6.16443e-10
4.41493e-10
-9.82843e-11
-3.49363e-11
-1.93318e-10
-7.31397e-10
-9.54491e-11
-9.63586e-11
-1.48864e-11
1.03216e-11
4.78758e-11
1.48497e-10
-5.78806e-10
5.72304e-10
1.57303e-11
5.16288e-12
-3.38143e-12
2.19445e-09
2.03759e-11
2.18723e-11
-5.48679e-10
-5.46956e-10
-5.48674e-10
-5.46973e-10
2.20341e-09
3.99839e-12
2.04435e-12
2.21202e-09
2.73119e-12
-4.76637e-13
2.21514e-09
8.50582e-13
-4.47756e-14
2.21669e-09
1.40831e-14
-7.20604e-14
2.21696e-09
-1.82493e-13
-3.94087e-14
2.2168e-09
-4.1757e-14
-3.75545e-14
2.21658e-09
7.90622e-14
-7.1933e-14
2.2163e-09
-4.74321e-14
-6.70552e-14
2.21641e-09
-5.7407e-14
4.46452e-13
2.21587e-09
-3.7406e-12
2.39771e-12
2.21566e-09
-2.74488e-13
1.70542e-15
2.21538e-09
-7.45959e-13
1.45098e-12
2.21557e-09
-5.15771e-13
6.50407e-15
2.21422e-09
2.4461e-12
-4.70123e-13
2.21446e-09
-4.91298e-13
1.80278e-13
2.21331e-09
2.98593e-12
-1.10789e-12
2.21296e-09
5.95723e-13
-9.4447e-13
2.21274e-09
-2.72788e-13
-2.09709e-13
2.21239e-09
4.26633e-13
-2.43432e-13
2.21338e-09
-6.75183e-13
1.80885e-12
2.21424e-09
-4.20391e-12
1.55886e-12
2.21399e-09
1.0085e-12
-1.53646e-13
2.21568e-09
-2.6713e-12
7.88667e-13
2.21328e-09
1.11405e-13
-3.07685e-12
2.21235e-09
1.31661e-13
-1.01089e-12
2.21278e-09
3.61554e-13
-1.26968e-14
2.21343e-09
-1.7331e-13
4.30324e-13
2.21343e-09
-2.89849e-14
-1.16507e-13
2.21321e-09
-3.74319e-14
4.21768e-14
2.21226e-09
-5.76536e-13
-7.1574e-14
2.21221e-09
6.67757e-13
-8.43236e-14
2.21225e-09
2.85843e-13
-4.72066e-14
2.21246e-09
9.76099e-13
3.57545e-13
2.21309e-09
1.23556e-12
-4.03863e-13
2.21531e-09
-2.15113e-12
2.15469e-13
2.21477e-09
1.26062e-12
-3.06698e-13
2.21461e-09
7.33892e-13
-2.63984e-13
2.21315e-09
7.24511e-14
9.88518e-13
2.21285e-09
8.37663e-13
5.69644e-14
2.21278e-09
4.29498e-13
-7.92062e-14
-2.60739e-12
1.54925e-12
-3.56149e-09
-1.44475e-08
3.30111e-10
2.02336e-08
-5.16583e-10
-2.79188e-10
1.38057e-10
-1.28948e-09
6.24486e-08
1.76712e-09
-3.07219e-09
-2.48078e-09
-3.18363e-09
-5.5481e-08
7.99321e-10
4.53046e-09
-1.99212e-09
-6.25957e-09
1.6734e-09
1.88361e-10
-2.86252e-10
3.90148e-10
3.29922e-10
1.85989e-10
-1.80486e-10
6.20813e-10
-8.82615e-10
3.7109e-09
2.52599e-09
-1.28131e-08
-1.32663e-09
8.78548e-09
-1.50696e-09
-1.01377e-10
1.88203e-09
5.64714e-09
-2.87339e-09
-1.83815e-08
-1.31152e-08
5.65647e-09
2.2793e-08
3.95546e-09
-6.18048e-10
4.98606e-10
-4.57511e-10
1.87705e-09
-5.25555e-09
1.31345e-10
3.12396e-10
2.20396e-10
-4.15935e-10
-3.15309e-10
6.71067e-11
-1.33473e-10
5.63187e-10
-9.74318e-12
8.26247e-12
-7.18254e-13
-1.4065e-10
-1.38403e-10
-1.4592e-10
-2.54257e-12
2.19185e-09
-2.32903e-11
2.29795e-11
-5.4979e-10
-5.47418e-10
-5.49807e-10
-5.47451e-10
2.2032e-09
-1.23584e-11
2.08934e-12
2.21214e-09
-5.97149e-12
-5.2037e-13
2.21527e-09
-3.15229e-12
5.95427e-14
2.21693e-09
-2.20098e-12
-6.1626e-14
2.2174e-09
-1.24439e-12
-3.44459e-14
2.21726e-09
-4.77835e-13
-1.65575e-14
2.21704e-09
-2.54794e-13
-5.33122e-15
2.21675e-09
-3.03074e-13
-2.83801e-15
2.21546e-09
-3.15158e-13
-3.36954e-14
2.21558e-09
-7.27339e-13
-1.85145e-12
2.2154e-09
-5.08721e-13