/*--------------------------------*- C++ -*----------------------------------*\
| =========                 |                                                 |
| \\      /  F ield         | OpenFOAM: The Open Source CFD Toolbox           |
|  \\    /   O peration     | Version:  5.0                                   |
|   \\  /    A nd           | Web:      www.OpenFOAM.org                      |
|    \\/     M anipulation  |                                                 |
\*---------------------------------------------------------------------------*/
FoamFile
{
    version     2.0;
    format      ascii;
    class       volScalarField;
    location    "1.9";
    object      rAU;
}
// * * * * * * * * * * * * * * * * * * * * * * * * * * * * * * * * * * * * * //

dimensions      [-1 3 1 0 0 0 0];

internalField   nonuniform List<scalar> 
9326
(
1.60989e-07
8.82108e-07
8.95957e-07
8.94282e-07
8.8105e-07
6.93385e-07
1.29269e-07
3.9242e-07
3.93663e-07
3.94697e-07
3.95731e-07
3.96764e-07
3.97795e-07
3.98827e-07
3.99857e-07
4.00887e-07
4.01917e-07
4.02945e-07
4.03972e-07
4.05e-07
4.06026e-07
4.07051e-07
4.08076e-07
4.091e-07
4.10123e-07
4.11146e-07
4.12168e-07
4.13188e-07
4.14209e-07
4.15228e-07
4.16247e-07
4.17265e-07
4.18282e-07
4.19299e-07
4.20315e-07
4.21329e-07
4.22343e-07
4.23357e-07
4.24369e-07
4.2538e-07
4.26391e-07
4.27401e-07
4.2841e-07
4.29419e-07
4.30426e-07
4.31432e-07
4.32439e-07
4.33443e-07
4.34447e-07
4.36223e-07
8.68277e-07
6.08477e-07
6.78822e-07
7.82208e-07
8.57782e-07
6.07207e-07
3.5105e-08
3.92288e-07
3.93664e-07
3.94698e-07
3.95731e-07
3.96764e-07
3.97796e-07
3.98827e-07
3.99858e-07
4.00887e-07
4.01917e-07
4.02945e-07
4.03972e-07
4.05e-07
4.06026e-07
4.07051e-07
4.08076e-07
4.091e-07
4.10123e-07
4.11146e-07
4.12168e-07
4.13188e-07
4.14209e-07
4.15228e-07
4.16247e-07
4.17265e-07
4.18282e-07
4.19298e-07
4.20315e-07
4.21329e-07
4.22343e-07
4.23357e-07
4.24369e-07
4.2538e-07
4.26391e-07
4.27401e-07
4.2841e-07
4.29419e-07
4.30426e-07
4.31432e-07
4.32439e-07
4.33443e-07
4.34447e-07
4.36223e-07
2.07608e-07
5.5383e-07
6.1265e-07
8.9787e-07
8.9221e-07
6.89827e-07
4.13309e-08
1.2987e-07
3.93456e-07
3.94699e-07
3.95732e-07
3.96764e-07
3.97796e-07
3.98827e-07
3.99858e-07
4.00887e-07
4.01917e-07
4.02945e-07
4.03972e-07
4.05e-07
4.06026e-07
4.07051e-07
4.08076e-07
4.091e-07
4.10123e-07
4.11146e-07
4.12168e-07
4.13189e-07
4.14209e-07
4.15228e-07
4.16247e-07
4.17265e-07
4.18282e-07
4.19298e-07
4.20315e-07
4.21329e-07
4.22343e-07
4.23357e-07
4.24369e-07
4.2538e-07
4.26391e-07
4.27401e-07
4.2841e-07
4.29419e-07
4.30426e-07
4.31432e-07
4.32439e-07
4.33443e-07
4.34447e-07
4.36223e-07
8.77822e-07
8.68341e-07
6.4945e-07
8.83418e-07
8.68462e-07
6.43271e-07
6.68542e-07
1.29721e-07
3.93456e-07
3.94698e-07
3.95732e-07
3.96764e-07
3.97796e-07
3.98827e-07
3.99858e-07
4.00887e-07
4.01917e-07
4.02945e-07
4.03972e-07
4.05e-07
4.06026e-07
4.07051e-07
4.08076e-07
4.091e-07
4.10123e-07
4.11146e-07
4.12168e-07
4.13188e-07
4.14209e-07
4.15228e-07
4.16247e-07
4.17265e-07
4.18282e-07
4.19299e-07
4.20315e-07
4.21329e-07
4.22343e-07
4.23357e-07
4.24369e-07
4.2538e-07
4.26391e-07
4.27401e-07
4.2841e-07
4.29419e-07
4.30426e-07
4.31432e-07
4.32439e-07
4.33443e-07
4.34447e-07
4.36223e-07
9.64286e-07
8.61435e-07
5.8271e-07
8.77845e-07
7.75046e-07
6.83922e-07
6.99079e-07
1.29721e-07
3.93455e-07
3.94698e-07
3.95731e-07
3.96764e-07
3.97796e-07
3.98827e-07
3.99857e-07
4.00887e-07
4.01917e-07
4.02945e-07
4.03972e-07
4.05e-07
4.06026e-07
4.07051e-07
4.08076e-07
4.091e-07
4.10123e-07
4.11146e-07
4.12168e-07
4.13188e-07
4.14209e-07
4.15228e-07
4.16247e-07
4.17265e-07
4.18282e-07
4.19299e-07
4.20315e-07
4.21329e-07
4.22343e-07
4.23357e-07
4.24369e-07
4.2538e-07
4.26391e-07
4.27401e-07
4.2841e-07
4.29419e-07
4.30426e-07
4.31432e-07
4.32439e-07
4.33443e-07
4.34447e-07
4.36223e-07
9.6822e-07
8.87631e-07
6.38209e-07
3.57549e-07
6.12208e-07
5.57226e-07
7.00073e-07
1.2972e-07
3.93454e-07
3.94697e-07
3.95731e-07
3.96764e-07
3.97795e-07
3.98827e-07
3.99857e-07
4.00887e-07
4.01917e-07
4.02945e-07
4.03972e-07
4.05e-07
4.06026e-07
4.07051e-07
4.08076e-07
4.091e-07
4.10123e-07
4.11146e-07
4.12168e-07
4.13188e-07
4.14209e-07
4.15228e-07
4.16247e-07
4.17265e-07
4.18282e-07
4.19299e-07
4.20315e-07
4.21329e-07
4.22343e-07
4.23357e-07
4.24369e-07
4.2538e-07
4.26391e-07
4.27401e-07
4.2841e-07
4.29419e-07
4.30426e-07
4.31433e-07
4.32439e-07
4.33443e-07
4.34447e-07
4.36223e-07
9.48483e-07
8.87135e-07
3.81943e-07
6.88316e-07
6.32326e-07
6.64934e-07
6.97796e-07
1.29724e-07
3.93454e-07
3.94697e-07
3.95731e-07
3.96764e-07
3.97795e-07
3.98827e-07
3.99857e-07
4.00887e-07
4.01917e-07
4.02945e-07
4.03972e-07
4.05e-07
4.06026e-07
4.07051e-07
4.08076e-07
4.091e-07
4.10123e-07
4.11146e-07
4.12168e-07
4.13188e-07
4.14209e-07
4.15228e-07
4.16247e-07
4.17265e-07
4.18282e-07
4.19299e-07
4.20315e-07
4.21329e-07
4.22343e-07
4.23357e-07
4.24369e-07
4.2538e-07
4.26391e-07
4.27401e-07
4.2841e-07
4.29419e-07
4.30426e-07
4.31433e-07
4.32439e-07
4.33443e-07
4.34447e-07
4.36223e-07
8.75553e-07
6.31832e-07
6.25992e-07
6.86046e-07
6.55921e-07
5.38283e-07
1.98862e-07
1.2969e-07
3.93454e-07
3.94697e-07
3.95731e-07
3.96764e-07
3.97795e-07
3.98827e-07
3.99857e-07
4.00887e-07
4.01917e-07
4.02945e-07
4.03972e-07
4.05e-07
4.06026e-07
4.07051e-07
4.08076e-07
4.091e-07
4.10123e-07
4.11146e-07
4.12168e-07
4.13189e-07
4.14209e-07
4.15228e-07
4.16247e-07
4.17265e-07
4.18282e-07
4.19299e-07
4.20315e-07
4.21329e-07
4.22343e-07
4.23357e-07
4.24369e-07
4.2538e-07
4.26391e-07
4.27401e-07
4.2841e-07
4.29419e-07
4.30426e-07
4.31433e-07
4.32439e-07
4.33443e-07
4.34447e-07
4.36223e-07
7.64076e-07
6.43417e-07
6.96566e-07
8.69867e-07
6.09825e-07
6.8799e-07
3.77015e-08
3.92285e-07
3.93662e-07
3.94697e-07
3.95731e-07
3.96764e-07
3.97795e-07
3.98827e-07
3.99857e-07
4.00887e-07
4.01917e-07
4.02945e-07
4.03972e-07
4.05e-07
4.06026e-07
4.07051e-07
4.08076e-07
4.091e-07
4.10123e-07
4.11146e-07
4.12168e-07
4.13188e-07
4.14209e-07
4.15228e-07
4.16247e-07
4.17265e-07
4.18282e-07
4.19299e-07
4.20315e-07
4.21329e-07
4.22343e-07
4.23357e-07
4.24369e-07
4.2538e-07
4.26391e-07
4.27401e-07
4.2841e-07
4.29419e-07
4.30426e-07
4.31432e-07
4.32439e-07
4.33443e-07
4.34447e-07
4.36223e-07
8.83372e-07
4.74953e-07
2.47638e-07
3.28536e-07
8.96331e-07
5.04221e-07
1.29216e-07
3.9242e-07
3.93663e-07
3.94697e-07
3.95731e-07
3.96764e-07
3.97795e-07
3.98827e-07
3.99857e-07
4.00887e-07
4.01917e-07
4.02945e-07
4.03972e-07
4.05e-07
4.06026e-07
4.07051e-07
4.08076e-07
4.091e-07
4.10123e-07
4.11146e-07
4.12168e-07
4.13188e-07
4.14209e-07
4.15228e-07
4.16247e-07
4.17265e-07
4.18282e-07
4.19299e-07
4.20315e-07
4.21329e-07
4.22343e-07
4.23357e-07
4.24369e-07
4.2538e-07
4.26391e-07
4.27401e-07
4.2841e-07
4.29419e-07
4.30426e-07
4.31433e-07
4.32439e-07
4.33443e-07
4.34447e-07
4.36223e-07
7.485e-07
8.37014e-07
8.221e-07
5.90416e-07
8.80892e-07
7.48639e-07
1.83343e-07
5.04898e-07
5.06388e-07
5.07529e-07
5.08667e-07
5.09805e-07
5.10941e-07
5.12074e-07
5.13207e-07
5.14338e-07
5.15466e-07
5.16594e-07
5.1772e-07
5.18843e-07
5.19966e-07
5.21087e-07
5.22206e-07
5.23324e-07
5.2444e-07
5.25554e-07
5.26667e-07
5.27778e-07
5.28887e-07
5.29995e-07
5.31102e-07
5.32205e-07
5.33309e-07
5.3441e-07
5.35509e-07
5.36607e-07
5.37704e-07
5.38798e-07
5.39891e-07
5.40983e-07
5.42071e-07
5.4316e-07
5.44246e-07
5.4533e-07
5.46413e-07
5.47495e-07
5.48574e-07
5.49652e-07
5.50728e-07
5.53043e-07
8.63847e-07
6.52882e-07
7.64199e-07
8.90805e-07
9.17166e-07
7.26466e-07
5.18204e-08
5.04679e-07
5.06389e-07
5.0753e-07
5.08668e-07
5.09805e-07
5.10941e-07
5.12074e-07
5.13207e-07
5.14338e-07
5.15466e-07
5.16594e-07
5.1772e-07
5.18843e-07
5.19966e-07
5.21087e-07
5.22206e-07
5.23324e-07
5.2444e-07
5.25554e-07
5.26667e-07
5.27778e-07
5.28887e-07
5.29995e-07
5.31102e-07
5.32205e-07
5.33309e-07
5.3441e-07
5.35509e-07
5.36607e-07
5.37704e-07
5.38798e-07
5.39891e-07
5.40983e-07
5.42072e-07
5.4316e-07
5.44246e-07
5.4533e-07
5.46413e-07
5.47495e-07
5.48574e-07
5.49652e-07
5.50728e-07
5.53043e-07
9.0587e-07
3.09335e-07
5.69374e-07
9.03676e-07
8.91022e-07
7.15851e-07
6.11675e-08
1.84252e-07
5.06045e-07
5.07532e-07
5.08669e-07
5.09806e-07
5.10941e-07
5.12074e-07
5.13207e-07
5.14338e-07
5.15466e-07
5.16594e-07
5.1772e-07
5.18843e-07
5.19966e-07
5.21087e-07
5.22206e-07
5.23324e-07
5.2444e-07
5.25554e-07
5.26667e-07
5.27778e-07
5.28887e-07
5.29995e-07
5.31102e-07
5.32205e-07
5.33309e-07
5.3441e-07
5.35509e-07
5.36607e-07
5.37704e-07
5.38798e-07
5.39891e-07
5.40983e-07
5.42072e-07
5.4316e-07
5.44246e-07
5.4533e-07
5.46413e-07
5.47495e-07
5.48574e-07
5.49652e-07
5.50728e-07
5.53043e-07
8.84304e-07
7.33448e-07
9.12033e-07
8.77759e-07
8.56253e-07
7.27249e-07
6.90035e-07
1.83951e-07
5.06043e-07
5.07531e-07
5.08668e-07
5.09806e-07
5.10941e-07
5.12074e-07
5.13207e-07
5.14338e-07
5.15466e-07
5.16594e-07
5.1772e-07
5.18843e-07
5.19966e-07
5.21087e-07
5.22206e-07
5.23324e-07
5.2444e-07
5.25554e-07
5.26667e-07
5.27778e-07
5.28887e-07
5.29995e-07
5.31102e-07
5.32205e-07
5.33309e-07
5.3441e-07
5.35509e-07
5.36607e-07
5.37704e-07
5.38798e-07
5.39891e-07
5.40983e-07
5.42072e-07
5.4316e-07
5.44246e-07
5.4533e-07
5.46413e-07
5.47495e-07
5.48574e-07
5.49652e-07
5.50728e-07
5.53043e-07
9.73424e-07
8.0579e-07
1.72752e-07
5.3894e-07
7.15005e-07
6.03981e-07
7.72837e-07
1.8395e-07
5.0604e-07
5.07529e-07
5.08667e-07
5.09805e-07
5.10941e-07
5.12074e-07
5.13207e-07
5.14338e-07
5.15466e-07
5.16594e-07
5.1772e-07
5.18843e-07
5.19966e-07
5.21087e-07
5.22206e-07
5.23324e-07
5.2444e-07
5.25554e-07
5.26667e-07
5.27778e-07
5.28887e-07
5.29995e-07
5.31102e-07
5.32205e-07
5.33309e-07
5.3441e-07
5.35509e-07
5.36607e-07
5.37704e-07
5.38798e-07
5.39891e-07
5.40983e-07
5.42071e-07
5.4316e-07
5.44246e-07
5.4533e-07
5.46413e-07
5.47495e-07
5.48574e-07
5.49652e-07
5.50728e-07
5.53043e-07
9.6879e-07
9.5343e-07
8.16847e-07
2.96513e-07
6.3952e-07
7.30004e-07
7.73973e-07
1.83947e-07
5.06037e-07
5.07527e-07
5.08666e-07
5.09804e-07
5.1094e-07
5.12074e-07
5.13206e-07
5.14337e-07
5.15466e-07
5.16594e-07
5.1772e-07
5.18843e-07
5.19966e-07
5.21087e-07
5.22206e-07
5.23324e-07
5.2444e-07
5.25554e-07
5.26667e-07
5.27778e-07
5.28887e-07
5.29995e-07
5.31102e-07
5.32206e-07
5.33309e-07
5.3441e-07
5.35509e-07
5.36607e-07
5.37704e-07
5.38798e-07
5.39891e-07
5.40983e-07
5.42071e-07
5.4316e-07
5.44246e-07
5.4533e-07
5.46413e-07
5.47495e-07
5.48574e-07
5.49652e-07
5.50728e-07
5.53043e-07
9.06893e-07
8.26303e-07
5.8545e-07
6.44192e-07
6.1022e-07
6.20557e-07
7.69114e-07
1.83948e-07
5.06038e-07
5.07527e-07
5.08666e-07
5.09804e-07
5.1094e-07
5.12074e-07
5.13206e-07
5.14337e-07
5.15466e-07
5.16594e-07
5.1772e-07
5.18843e-07
5.19966e-07
5.21087e-07
5.22206e-07
5.23324e-07
5.2444e-07
5.25554e-07
5.26667e-07
5.27778e-07
5.28887e-07
5.29995e-07
5.31102e-07
5.32206e-07
5.33309e-07
5.3441e-07
5.35509e-07
5.36607e-07
5.37704e-07
5.38798e-07
5.39891e-07
5.40983e-07
5.42071e-07
5.4316e-07
5.44246e-07
5.4533e-07
5.46413e-07
5.47495e-07
5.48574e-07
5.49652e-07
5.50728e-07
5.53043e-07
8.69012e-07
3.37299e-07
5.3796e-07
2.15319e-07
5.15675e-07
7.12413e-07
2.71615e-07
1.83949e-07
5.06039e-07
5.07528e-07
5.08667e-07
5.09804e-07
5.1094e-07
5.12074e-07
5.13206e-07
5.14337e-07
5.15466e-07
5.16594e-07
5.1772e-07
5.18843e-07
5.19966e-07
5.21087e-07
5.22206e-07
5.23324e-07
5.2444e-07
5.25554e-07
5.26667e-07
5.27778e-07
5.28887e-07
5.29995e-07
5.31102e-07
5.32205e-07
5.33309e-07
5.3441e-07
5.35509e-07
5.36607e-07
5.37704e-07
5.38798e-07
5.39891e-07
5.40983e-07
5.42072e-07
5.4316e-07
5.44246e-07
5.4533e-07
5.46413e-07
5.47495e-07
5.48574e-07
5.49652e-07
5.50728e-07
5.53043e-07
6.12175e-07
3.59339e-07
5.50018e-07
5.88324e-07
7.32367e-07
6.72095e-07
5.58026e-08
5.04671e-07
5.06384e-07
5.07527e-07
5.08666e-07
5.09804e-07
5.1094e-07
5.12074e-07
5.13206e-07
5.14337e-07
5.15466e-07
5.16594e-07
5.1772e-07
5.18843e-07
5.19966e-07
5.21087e-07
5.22206e-07
5.23324e-07
5.2444e-07
5.25554e-07
5.26667e-07
5.27778e-07
5.28887e-07
5.29995e-07
5.31102e-07
5.32206e-07
5.33309e-07
5.3441e-07
5.35509e-07
5.36607e-07
5.37704e-07
5.38798e-07
5.39891e-07
5.40983e-07
5.42071e-07
5.4316e-07
5.44246e-07
5.4533e-07
5.46413e-07
5.47495e-07
5.48574e-07
5.49652e-07
5.50728e-07
5.53043e-07
8.85097e-07
8.27156e-07
5.76588e-07
2.51179e-07
7.3468e-07
7.21109e-07
1.8324e-07
5.04895e-07
5.06386e-07
5.07528e-07
5.08667e-07
5.09804e-07
5.10941e-07
5.12074e-07
5.13206e-07
5.14337e-07
5.15466e-07
5.16594e-07
5.1772e-07
5.18843e-07
5.19966e-07
5.21087e-07
5.22206e-07
5.23324e-07
5.2444e-07
5.25554e-07
5.26667e-07
5.27778e-07
5.28887e-07
5.29995e-07
5.31102e-07
5.32206e-07
5.33309e-07
5.3441e-07
5.35509e-07
5.36607e-07
5.37704e-07
5.38798e-07
5.39891e-07
5.40983e-07
5.42071e-07
5.4316e-07
5.44246e-07
5.4533e-07
5.46413e-07
5.47495e-07
5.48574e-07
5.49652e-07
5.50728e-07
5.53043e-07
9.55153e-07
8.77672e-07
8.45605e-07
8.00106e-07
8.7573e-07
7.2523e-07
1.83347e-07
3.9242e-07
3.93663e-07
3.94697e-07
3.95731e-07
3.96764e-07
3.97795e-07
3.98827e-07
3.99857e-07
4.00887e-07
4.01917e-07
4.02945e-07
4.03972e-07
4.05e-07
4.06026e-07
4.07051e-07
4.08076e-07
4.091e-07
4.10123e-07
4.11146e-07
4.12168e-07
4.13188e-07
4.14209e-07
4.15228e-07
4.16247e-07
4.17265e-07
4.18282e-07
4.19298e-07
4.20314e-07
4.21329e-07
4.22343e-07
4.23357e-07
4.24369e-07
4.2538e-07
4.26391e-07
4.27401e-07
4.2841e-07
4.29419e-07
4.30426e-07
4.31432e-07
4.32439e-07
4.33443e-07
4.34447e-07
4.36223e-07
9.62152e-07
8.05942e-07
6.25668e-07
8.00145e-07
9.31967e-07
7.65256e-07
5.18201e-08
3.92287e-07
3.93663e-07
3.94698e-07
3.95731e-07
3.96764e-07
3.97796e-07
3.98827e-07
3.99857e-07
4.00887e-07
4.01917e-07
4.02945e-07
4.03972e-07
4.05e-07
4.06026e-07
4.07051e-07
4.08076e-07
4.091e-07
4.10123e-07
4.11146e-07
4.12168e-07
4.13188e-07
4.14209e-07
4.15228e-07
4.16247e-07
4.17265e-07
4.18282e-07
4.19298e-07
4.20314e-07
4.21329e-07
4.22343e-07
4.23356e-07
4.24369e-07
4.2538e-07
4.26391e-07
4.27401e-07
4.2841e-07
4.29419e-07
4.30426e-07
4.31432e-07
4.32439e-07
4.33443e-07
4.34447e-07
4.36223e-07
8.94809e-07
6.5899e-07
4.89571e-07
8.41788e-07
8.4137e-07
7.41426e-07
6.1091e-08
1.84256e-07
3.93456e-07
3.94698e-07
3.95732e-07
3.96764e-07
3.97796e-07
3.98827e-07
3.99858e-07
4.00887e-07
4.01917e-07
4.02945e-07
4.03972e-07
4.05e-07
4.06026e-07
4.07051e-07
4.08076e-07
4.091e-07
4.10123e-07
4.11146e-07
4.12168e-07
4.13188e-07
4.14209e-07
4.15228e-07
4.16247e-07
4.17265e-07
4.18282e-07
4.19298e-07
4.20314e-07
4.21329e-07
4.22343e-07
4.23357e-07
4.24369e-07
4.2538e-07
4.26391e-07
4.27401e-07
4.2841e-07
4.29419e-07
4.30426e-07
4.31432e-07
4.32439e-07
4.33443e-07
4.34447e-07
4.36223e-07
6.60734e-07
6.54083e-07
4.70124e-07
8.63821e-07
5.06386e-07
7.10764e-07
7.10695e-07
1.83955e-07
3.93456e-07
3.94698e-07
3.95732e-07
3.96764e-07
3.97796e-07
3.98827e-07
3.99857e-07
4.00887e-07
4.01917e-07
4.02945e-07
4.03972e-07
4.05e-07
4.06026e-07
4.07051e-07
4.08076e-07
4.091e-07
4.10123e-07
4.11146e-07
4.12168e-07
4.13188e-07
4.14209e-07
4.15228e-07
4.16247e-07
4.17265e-07
4.18282e-07
4.19299e-07
4.20314e-07
4.21329e-07
4.22343e-07
4.23357e-07
4.24369e-07
4.2538e-07
4.26391e-07
4.27401e-07
4.2841e-07
4.29419e-07
4.30426e-07
4.31432e-07
4.32439e-07
4.33443e-07
4.34447e-07
4.36223e-07
9.65335e-07
7.28126e-07
9.2456e-07
7.25878e-07
5.0197e-07
5.6723e-07
7.73208e-07
1.83954e-07
3.93454e-07
3.94698e-07
3.95731e-07
3.96764e-07
3.97796e-07
3.98827e-07
3.99857e-07
4.00887e-07
4.01917e-07
4.02945e-07
4.03972e-07
4.05e-07
4.06026e-07
4.07051e-07
4.08076e-07
4.091e-07
4.10123e-07
4.11146e-07
4.12168e-07
4.13188e-07
4.14209e-07
4.15228e-07
4.16247e-07
4.17265e-07
4.18282e-07
4.19299e-07
4.20314e-07
4.21329e-07
4.22343e-07
4.23357e-07
4.24369e-07
4.2538e-07
4.26391e-07
4.27401e-07
4.2841e-07
4.29419e-07
4.30426e-07
4.31432e-07
4.32439e-07
4.33443e-07
4.34447e-07
4.36223e-07
9.62017e-07
8.73084e-07
6.61608e-07
6.29397e-07
6.17802e-07
6.25497e-07
7.73613e-07
1.83953e-07
3.93453e-07
3.94697e-07
3.95731e-07
3.96764e-07
3.97795e-07
3.98827e-07
3.99857e-07
4.00887e-07
4.01917e-07
4.02945e-07
4.03972e-07
4.05e-07
4.06026e-07
4.07051e-07
4.08076e-07
4.091e-07
4.10123e-07
4.11146e-07
4.12168e-07
4.13188e-07
4.14209e-07
4.15228e-07
4.16247e-07
4.17265e-07
4.18282e-07
4.19298e-07
4.20314e-07
4.21329e-07
4.22343e-07
4.23357e-07
4.24369e-07
4.2538e-07
4.26391e-07
4.27401e-07
4.2841e-07
4.29419e-07
4.30426e-07
4.31432e-07
4.32439e-07
4.33443e-07
4.34447e-07
4.36223e-07
8.69809e-07
3.95374e-07
7.93683e-07
6.64122e-07
6.11581e-07
7.13753e-07
7.69062e-07
1.83953e-07
3.93454e-07
3.94697e-07
3.95731e-07
3.96764e-07
3.97795e-07
3.98827e-07
3.99857e-07
4.00887e-07
4.01917e-07
4.02945e-07
4.03972e-07
4.05e-07
4.06026e-07
4.07051e-07
4.08076e-07
4.091e-07
4.10123e-07
4.11146e-07
4.12168e-07
4.13188e-07
4.14209e-07
4.15228e-07
4.16247e-07
4.17265e-07
4.18282e-07
4.19299e-07
4.20314e-07
4.21329e-07
4.22343e-07
4.23357e-07
4.24369e-07
4.2538e-07
4.26391e-07
4.27401e-07
4.2841e-07
4.29419e-07
4.30426e-07
4.31432e-07
4.32439e-07
4.33443e-07
4.34447e-07
4.36223e-07
8.77084e-07
6.27427e-07
3.58323e-07
4.48223e-07
5.54392e-07
7.29282e-07
2.71918e-07
1.83953e-07
3.93454e-07
3.94697e-07
3.95731e-07
3.96764e-07
3.97795e-07
3.98827e-07
3.99857e-07
4.00887e-07
4.01916e-07
4.02945e-07
4.03972e-07
4.05e-07
4.06026e-07
4.07051e-07
4.08076e-07
4.091e-07
4.10123e-07
4.11146e-07
4.12168e-07
4.13188e-07
4.14209e-07
4.15228e-07
4.16247e-07
4.17265e-07
4.18282e-07
4.19299e-07
4.20314e-07
4.21329e-07
4.22343e-07
4.23357e-07
4.24369e-07
4.2538e-07
4.26391e-07
4.27401e-07
4.2841e-07
4.29419e-07
4.30426e-07
4.31432e-07
4.32439e-07
4.33443e-07
4.34447e-07
4.36223e-07
4.39388e-07
3.61862e-07
6.32834e-07
8.30641e-07
7.05452e-07
6.89305e-07
5.57876e-08
3.92285e-07
3.93662e-07
3.94697e-07
3.95731e-07
3.96764e-07
3.97795e-07
3.98827e-07
3.99857e-07
4.00887e-07
4.01916e-07
4.02945e-07
4.03972e-07
4.05e-07
4.06026e-07
4.07051e-07
4.08076e-07
4.091e-07
4.10123e-07
4.11146e-07
4.12168e-07
4.13188e-07
4.14209e-07
4.15228e-07
4.16247e-07
4.17265e-07
4.18282e-07
4.19298e-07
4.20314e-07
4.21329e-07
4.22343e-07
4.23357e-07
4.24369e-07
4.2538e-07
4.26391e-07
4.27401e-07
4.2841e-07
4.29419e-07
4.30426e-07
4.31432e-07
4.32439e-07
4.33443e-07
4.34447e-07
4.36223e-07
9.47232e-07
8.65298e-07
8.79302e-07
2.25997e-07
4.44736e-07
7.30232e-07
1.83239e-07
3.9242e-07
3.93663e-07
3.94697e-07
3.95731e-07
3.96764e-07
3.97795e-07
3.98827e-07
3.99857e-07
4.00887e-07
4.01917e-07
4.02945e-07
4.03972e-07
4.05e-07
4.06026e-07
4.07051e-07
4.08076e-07
4.091e-07
4.10123e-07
4.11146e-07
4.12168e-07
4.13188e-07
4.14209e-07
4.15228e-07
4.16247e-07
4.17265e-07
4.18282e-07
4.19298e-07
4.20314e-07
4.21329e-07
4.22343e-07
4.23357e-07
4.24369e-07
4.2538e-07
4.26391e-07
4.27401e-07
4.2841e-07
4.29419e-07
4.30426e-07
4.31432e-07
4.32439e-07
4.33443e-07
4.34447e-07
4.36223e-07
3.51535e-08
5.47803e-07
3.52378e-08
7.44396e-07
5.18097e-08
6.2996e-07
5.20349e-08
3.58524e-08
6.89641e-07
8.01305e-08
7.0495e-07
5.29636e-08
7.10345e-07
1.15533e-07
1.94814e-07
6.90918e-07
6.9937e-07
7.23669e-07
2.64181e-07
7.6105e-07
7.74904e-07
7.01275e-07
6.75872e-07
7.00679e-07
6.91277e-07
7.72768e-07
6.93984e-07
7.71548e-07
6.98309e-07
6.71171e-07
6.99995e-07
6.90315e-07
7.71792e-07
7.22753e-07
7.75108e-07
6.99486e-07
6.77772e-07
7.00139e-07
7.30554e-07
7.74715e-07
7.46987e-07
7.73699e-07
7.00431e-07
6.79062e-07
7.00247e-07
7.25652e-07
7.72665e-07
6.71512e-07
7.76211e-07
6.99179e-07
6.2509e-07
2.17973e-07
7.06458e-07
7.73766e-07
5.1216e-07
2.94482e-07
1.30179e-07
3.22059e-07
3.98226e-08
6.80533e-07
1.83346e-07
5.24853e-07
5.87065e-08
3.65798e-08
6.88722e-07
3.51509e-08
6.55916e-07
5.41277e-08
7.27253e-07
5.1803e-08
5.18108e-08
6.61166e-07
5.20663e-08
7.36078e-07
5.18112e-08
7.31613e-07
5.21121e-08
5.29604e-08
7.16357e-07
1.15522e-07
7.3921e-07
5.30015e-08
7.32347e-07
1.15403e-07
2.64113e-07
7.55228e-07
7.74472e-07
7.29106e-07
2.63955e-07
7.60883e-07
7.74764e-07
7.73227e-07
6.93903e-07
7.70735e-07
7.22359e-07
7.75262e-07
7.15701e-07
7.71365e-07
7.71263e-07
7.24753e-07
7.73746e-07
5.67463e-07
7.72418e-07
7.43597e-07
7.76156e-07
7.74402e-07
7.48154e-07
7.73141e-07
6.43874e-07
7.7162e-07
7.16313e-07
7.74919e-07
7.71223e-07
6.26824e-07
7.75897e-07
6.80723e-07
7.71889e-07
6.21323e-07
7.76769e-07
7.73516e-07
4.58946e-07
2.94171e-07
7.31629e-07
7.74985e-07
5.64954e-07
3.00235e-07
1.83325e-07
6.32786e-07
5.91032e-08
6.77546e-07
1.8271e-07
7.11725e-07
5.90072e-08
5.42265e-08
7.17841e-07
5.18024e-08
6.55785e-07
5.42953e-08
7.51618e-07
5.18024e-08
5.1811e-08
7.1909e-07
5.21001e-08
6.86026e-07
3.51538e-08
6.91697e-07
3.52547e-08
5.305e-08
7.25521e-07
1.15345e-07
6.90797e-07
3.59634e-08
6.84809e-07
7.99818e-08
2.639e-07
7.56403e-07
7.74942e-07
6.70179e-07
1.93943e-07
6.35725e-07
6.99323e-07
7.73396e-07
7.0394e-07
7.7067e-07
6.78702e-07
6.98049e-07
6.61595e-07
7.00692e-07
7.7088e-07
7.55543e-07
7.75519e-07
5.77776e-07
6.99167e-07
6.82527e-07
6.99453e-07
7.72521e-07
7.70764e-07
7.7505e-07
6.5051e-07
7.00248e-07
6.92346e-07
7.00514e-07
7.70262e-07
6.73697e-07
7.76137e-07
6.68459e-07
6.99881e-07
6.68603e-07
7.00303e-07
7.75062e-07
6.21312e-07
3.02057e-07
6.90783e-07
6.9926e-07
6.50383e-07
2.2898e-07
1.82495e-07
7.12162e-07
5.87548e-08
6.88456e-07
1.28954e-07
6.86173e-07
3.97269e-08
5.41885e-08
7.55194e-07
5.18052e-08
6.89847e-07
3.6564e-08
6.84952e-07
3.51515e-08
7.61972e-07
8.73207e-07
5.5441e-07
8.79492e-07
7.89858e-07
9.24231e-07
7.1261e-07
2.96543e-07
4.2345e-07
5.93038e-07
7.47031e-07
7.45559e-07
2.55265e-07
5.11342e-07
1.29658e-07
1.29211e-07
1.29658e-07
1.83348e-07
1.84017e-07
1.83232e-07
1.84017e-07
8.97627e-07
8.74587e-07
8.70527e-07
8.5192e-07
9.16663e-07
8.92199e-07
8.73217e-07
6.92913e-07
6.92146e-07
4.23791e-07
6.82872e-07
7.61795e-07
5.61956e-07
6.31615e-07
1.29567e-07
3.58403e-08
1.29567e-07
5.18204e-08
1.83833e-07
5.30599e-08
1.83833e-07
8.91592e-07
8.83723e-07
8.70688e-07
8.8503e-07
9.08445e-07
8.91018e-07
9.01941e-07
7.66838e-07
6.95317e-07
6.32712e-07
7.57333e-07
7.70265e-07
6.60867e-07
6.91821e-07
1.29419e-07
2.31471e-07
3.52761e-08
6.11063e-08
1.83535e-07
3.13871e-07
5.19791e-08
8.51218e-07
8.62551e-07
8.88432e-07
8.63676e-07
7.96968e-07
8.18561e-07
8.57012e-07
2.88505e-07
5.65499e-07
4.65806e-07
6.75808e-07
6.45494e-07
5.42989e-07
1.7311e-07
3.52761e-08
6.96571e-07
3.52789e-08
6.95481e-07
5.19793e-08
7.67451e-07
5.1986e-08
8.50993e-07
2.2746e-07
5.64043e-07
4.34108e-07
7.76459e-07
1.80809e-07
3.74516e-07
7.43526e-07
6.96578e-07
6.59488e-07
7.39158e-07
7.68185e-07
7.00981e-07
6.85622e-07
3.52816e-08
6.99863e-07
3.5285e-08
7.73028e-07
5.19918e-08
7.74484e-07
5.2e-08
2.98592e-07
5.45174e-07
6.49855e-07
5.769e-07
1.2819e-07
6.13095e-07
6.50426e-07
7.5874e-07
6.90916e-07
6.86248e-07
6.75861e-07
7.58964e-07
7.37486e-07
6.90319e-07
3.52856e-08
6.98784e-07
3.52809e-08
7.74339e-07
5.20011e-08
7.73522e-07
5.199e-08
8.61594e-07
5.50162e-07
8.22099e-07
5.4124e-07
8.98879e-07
7.36324e-07
7.81064e-07
7.58962e-07
6.94439e-07
2.15503e-07
7.2118e-07
7.72247e-07
3.39541e-07
6.9563e-07
3.52791e-08
6.84272e-07
3.52761e-08
7.67201e-07
5.19868e-08
7.04001e-07
5.1979e-08
2.42032e-07
6.28217e-07
2.97498e-07
7.61073e-07
7.18793e-07
7.83301e-07
5.79773e-07
7.38217e-07
6.95866e-07
6.95503e-07
6.18153e-07
7.65034e-07
7.51774e-07
6.83491e-07
3.52647e-08
4.40734e-08
1.29418e-07
2.71538e-07
5.19792e-08
6.5021e-08
1.8353e-07
2.40641e-07
6.49685e-07
1.35994e-07
6.94326e-07
5.81939e-07
4.98438e-07
2.51505e-07
7.61234e-07
6.87767e-07
2.74921e-07
7.35254e-07
7.57557e-07
3.59801e-07
6.96702e-07
1.29566e-07
3.51752e-08
1.29566e-07
5.57474e-08
1.83831e-07
5.18265e-08
1.83831e-07
3.20101e-07
8.78967e-07
8.91304e-07
8.20457e-07
4.87534e-07
9.07578e-07
9.06639e-07
6.94902e-07
6.92967e-07
5.15508e-07
6.15542e-07
7.65047e-07
5.0516e-07
6.55416e-07
1.29658e-07
1.29268e-07
1.29658e-07
1.83243e-07
1.84017e-07
1.83345e-07
1.84016e-07
7.96753e-07
9.18361e-07
7.88723e-07
8.32071e-07
8.22366e-07
9.08569e-07
8.36055e-07
2.73984e-07
4.57842e-07
7.50085e-07
7.43695e-07
2.72619e-07
7.53977e-07
4.54453e-07
1.84013e-07
1.83228e-07
1.84012e-07
1.83342e-07
1.84013e-07
1.83229e-07
1.84012e-07
9.20222e-07
9.065e-07
9.13571e-07
8.62867e-07
9.27015e-07
8.3704e-07
8.87409e-07
6.40087e-07
7.65291e-07
6.16295e-07
7.41886e-07
6.42084e-07
7.62347e-07
5.96209e-07
1.83828e-07
5.31131e-08
1.83829e-07
5.182e-08
1.83828e-07
5.31276e-08
1.83829e-07
8.51473e-07
8.90598e-07
9.11764e-07
9.04875e-07
9.02131e-07
6.52301e-07
9.2335e-07
7.62284e-07
7.58368e-07
7.18658e-07
6.88788e-07
7.66221e-07
7.62071e-07
7.16723e-07
1.83531e-07
3.14128e-07
5.19787e-08
6.1155e-08
1.83531e-07
3.13328e-07
5.19787e-08
7.13804e-07
8.44338e-07
7.88854e-07
5.66364e-07
5.7434e-07
6.48482e-07
3.47495e-07
5.37623e-07
7.01611e-07
5.52179e-07
7.1446e-07
4.92399e-07
7.45161e-07
5.98713e-07
5.19787e-08
7.68594e-07
5.19856e-08
7.00387e-07
5.19786e-08
7.67503e-07
5.19858e-08
8.24626e-07
1.79165e-07
6.111e-07
7.32961e-07
7.5641e-07
6.7253e-07
5.39751e-07
7.29477e-07
7.45944e-07
3.02928e-07
4.8435e-07
7.31059e-07
7.36221e-07
2.83188e-07
5.19915e-08
7.74296e-07
5.19997e-08
7.72693e-07
5.19916e-08
7.74018e-07
5.19997e-08
1.2707e-07
4.64801e-07
4.41699e-07
6.07579e-07
5.93495e-07
3.09741e-07
8.05078e-07
7.3987e-07
7.54469e-07
6.51545e-07
6.94016e-07
7.41224e-07
7.50122e-07
6.14669e-07
5.20009e-08
7.72011e-07
5.19896e-08
7.73131e-07
5.2001e-08
7.72736e-07
5.19895e-08
7.38374e-07
8.37865e-07
6.46458e-07
5.12761e-07
6.93188e-07
8.72564e-07
7.39002e-07
7.41395e-07
7.53804e-07
2.80387e-07
5.19516e-07
7.28813e-07
7.5245e-07
3.41372e-07
5.19865e-08
6.93865e-07
5.19785e-08
7.71415e-07
5.19864e-08
6.91347e-07
5.19786e-08
5.78161e-07
6.05694e-07
4.24423e-07
5.88944e-07
3.28613e-07
3.18674e-07
4.76799e-07
7.1131e-07
7.6792e-07
6.17386e-07
6.87628e-07
6.93491e-07
7.66618e-07
6.80229e-07
5.19787e-08
6.50853e-08
1.83525e-07
2.7194e-07
5.19787e-08
6.46767e-08
1.83525e-07
4.70396e-07
4.58307e-07
2.98606e-07
5.65933e-07
6.33435e-07
6.83756e-07
3.67924e-07
7.56297e-07
7.52576e-07
4.36789e-07
6.56392e-07
7.53266e-07
7.38468e-07
5.59785e-07
1.83825e-07
5.18276e-08
1.83826e-07
5.58354e-08
1.83825e-07
5.18292e-08
1.83826e-07
6.55924e-07
7.56842e-07
8.5862e-07
3.85147e-07
3.63995e-07
5.77049e-07
5.99133e-07
6.39156e-07
7.52366e-07
4.884e-07
6.54189e-07
6.57241e-07
7.49549e-07
5.22474e-07
1.84012e-07
1.8334e-07
1.84011e-07
1.83237e-07
1.84012e-07
1.8334e-07
1.84011e-07
8.11035e-07
9.13985e-07
8.02549e-07
8.46228e-07
7.52412e-07
8.60595e-07
7.94326e-07
2.77813e-07
4.65908e-07
7.6088e-07
7.43002e-07
2.77968e-07
7.60721e-07
4.72663e-07
1.84017e-07
1.83232e-07
1.84017e-07
1.29269e-07
1.29658e-07
1.29211e-07
1.29658e-07
8.75331e-07
9.06694e-07
9.08717e-07
8.96774e-07
8.82296e-07
8.78942e-07
8.67508e-07
6.89145e-07
7.61789e-07
5.75342e-07
7.62189e-07
6.68711e-07
7.61879e-07
5.85426e-07
1.83833e-07
5.30792e-08
1.83833e-07
3.51589e-08
1.29567e-07
3.58614e-08
1.29567e-07
8.60254e-07
2.47905e-07
8.62392e-07
8.46611e-07
8.68691e-07
2.13028e-07
8.13727e-07
7.66941e-07
7.73453e-07
7.62155e-07
7.45103e-07
7.66972e-07
7.6906e-07
7.33721e-07
1.83535e-07
3.12648e-07
5.19791e-08
4.1342e-08
1.29419e-07
2.30373e-07
3.52761e-08
5.78197e-07
5.47822e-07
3.41967e-07
2.2573e-07
6.33937e-07
3.12943e-07
6.14945e-07
5.60029e-07
7.69818e-07
3.7884e-07
7.21437e-07
5.67789e-07
7.69043e-07
4.93116e-07
5.19791e-08
7.69035e-07
5.1986e-08
6.85755e-07
3.52752e-08
6.97537e-07
3.5279e-08
8.86724e-07
5.77109e-07
4.46901e-07
1.56135e-07
8.00578e-07
6.44385e-07
3.66942e-07
7.07404e-07
6.37767e-07
3.36066e-07
5.28596e-07
7.2492e-07
6.50908e-07
3.26841e-07
5.19918e-08
7.74913e-07
5.19999e-08
6.99023e-07
3.52816e-08
6.99875e-07
3.52851e-08
2.98355e-07
1.60377e-07
8.76695e-07
3.71759e-07
1.96186e-07
1.63965e-07
7.34902e-07
7.55789e-07
7.58279e-07
6.06635e-07
6.48618e-07
7.47738e-07
7.6465e-07
6.27029e-07
5.20011e-08
7.73182e-07
5.19898e-08
7.0001e-07
3.52856e-08
6.98713e-07
3.52809e-08
7.39515e-07
7.58301e-07
8.38633e-07
6.34774e-07
8.65571e-07
6.94908e-07
8.71034e-07
7.60567e-07
7.72387e-07
7.34902e-07
7.00402e-07
7.56687e-07
7.73348e-07
7.54739e-07
5.19868e-08
7.00718e-07
5.1979e-08
6.97781e-07
3.52792e-08
6.83148e-07
3.52761e-08
7.69464e-07
2.00351e-07
6.7029e-07
6.45817e-07
6.59454e-07
1.33371e-07
7.34749e-07
7.3482e-07
7.71559e-07
5.69166e-07
7.18646e-07
7.42133e-07
7.70443e-07
6.71778e-07
5.19791e-08
6.44527e-08
1.83529e-07
1.99268e-07
3.5253e-08
4.33381e-08
1.29418e-07
7.9554e-07
4.81796e-07
5.62533e-07
5.55418e-07
8.8797e-07
4.0562e-07
8.83872e-07
7.45753e-07
7.52634e-07
7.37669e-07
7.00006e-07
7.56776e-07
7.60044e-07
7.0119e-07
1.83831e-07
5.18289e-08
1.83831e-07
3.77539e-08
1.29566e-07
3.51658e-08
1.29566e-07
5.1075e-07
7.42271e-07
5.04652e-07
6.57289e-07
6.67442e-07
6.26042e-07
6.47387e-07
7.33302e-07
7.6822e-07
6.00295e-07
7.57497e-07
6.90234e-07
7.64224e-07
6.67305e-07
1.84017e-07
1.83344e-07
1.84015e-07
1.29215e-07
1.29658e-07
1.29268e-07
1.29658e-07
6.5498e-08
4.82332e-08
3.51494e-08
5.18148e-08
5.18106e-08
4.33204e-08
7.09423e-08
7.34959e-07
5.946e-07
6.80722e-07
6.35583e-07
6.87392e-07
7.51608e-07
6.16983e-07
8.4635e-08
3.51605e-08
6.68004e-08
5.19798e-08
5.1835e-08
9.67909e-08
5.87501e-08
2.7527e-07
7.46988e-07
4.71176e-07
7.45329e-07
7.63856e-07
2.71902e-07
4.92905e-07
6.67903e-08
5.18141e-08
7.21934e-08
5.18077e-08
5.18126e-08
6.71914e-08
7.15016e-08
7.51591e-07
6.26667e-07
6.86323e-07
7.45952e-07
6.68732e-07
7.49007e-07
7.48957e-07
8.41895e-08
5.20118e-08
5.18312e-08
9.66691e-08
5.18373e-08
9.67078e-08
8.41161e-08
1.65849e-07
9.34549e-08
3.80193e-08
5.28954e-08
1.33736e-07
5.61381e-08
1.1763e-07
7.66143e-07
6.95976e-07
6.94495e-07
7.46068e-07
7.55877e-07
7.69891e-07
6.9663e-07
3.57364e-07
4.82336e-08
6.92819e-07
1.15488e-07
7.07847e-08
7.66488e-07
2.71398e-07
6.81173e-07
7.01671e-07
7.65616e-07
6.13078e-07
7.61316e-07
6.11194e-07
6.65777e-07
1.6512e-07
5.2949e-08
1.34265e-07
5.64118e-08
1.3394e-07
5.63026e-08
1.6483e-07
7.63171e-07
6.73741e-07
7.50894e-07
7.70394e-07
7.47973e-07
7.69478e-07
7.60766e-07
3.56899e-07
1.15515e-07
7.11041e-08
7.65322e-07
7.0949e-08
7.65387e-07
3.56003e-07
7.73529e-07
6.97523e-07
6.91437e-07
2.65076e-07
7.7116e-07
7.65683e-07
6.99005e-07
7.73889e-07
4.90139e-07
6.98056e-07
7.68397e-07
5.83035e-07
7.6447e-07
6.99145e-07
7.74691e-07
6.96968e-07
6.99753e-07
7.74661e-07
7.6968e-07