/*--------------------------------*- C++ -*----------------------------------*\
| =========                 |                                                 |
| \\      /  F ield         | OpenFOAM: The Open Source CFD Toolbox           |
|  \\    /   O peration     | Version:  5.0                                   |
|   \\  /    A nd           | Web:      www.OpenFOAM.org                      |
|    \\/     M anipulation  |                                                 |
\*---------------------------------------------------------------------------*/
FoamFile
{
    version     2.0;
    format      ascii;
    class       volVectorField;
    location    "1.9";
    object      U;
}
// * * * * * * * * * * * * * * * * * * * * * * * * * * * * * * * * * * * * * //

dimensions      [0 1 -1 0 0 0 0];

internalField   nonuniform List<vector> 
9326
(
(0.00239602 0.0018873 0.000233754)
(0.00171576 -0.0259799 -9.41184e-05)
(-0.00872274 0.00633145 -0.000212286)
(0.0107413 -0.00508408 0.000200201)
(0.00343593 -0.00719189 0.000565903)
(-0.00276537 0.000517101 -6.33302e-05)
(0.000516767 -1.69745e-05 1.73976e-06)
(0.000851449 -3.02823e-05 -2.1716e-06)
(0.000803553 -1.36426e-05 5.97694e-08)
(0.000794308 -6.63787e-06 7.22031e-08)
(0.000786405 -2.95828e-06 8.87998e-08)
(0.000781242 -1.53999e-06 7.14676e-08)
(0.000778414 -7.1978e-07 -2.56693e-09)
(0.000775374 6.51157e-08 4.0909e-08)
(0.000772528 1.84456e-08 5.63689e-08)
(0.00077059 -1.50851e-07 2.00157e-07)
(0.000768847 2.8893e-08 5.27109e-08)
(0.000767034 1.89111e-07 6.58473e-08)
(0.000764946 4.74476e-08 2.39968e-08)
(0.000763167 -2.49074e-07 1.15559e-07)
(0.000762082 -4.17472e-07 7.32057e-08)
(0.000760818 -2.33815e-08 5.10359e-08)
(0.000758965 3.06113e-08 7.87582e-09)
(0.000757328 1.11162e-07 4.48434e-08)
(0.000755592 2.26485e-07 2.67407e-08)
(0.000754065 1.46951e-07 3.75205e-08)
(0.000752739 1.08427e-07 3.70887e-08)
(0.000751314 8.76353e-08 4.77543e-08)
(0.000749684 2.21933e-07 7.03968e-08)
(0.000748197 -1.62796e-07 4.1132e-08)
(0.000746642 -4.48883e-07 7.13169e-08)
(0.000744961 -4.91865e-07 2.58146e-08)
(0.000743497 -3.67447e-07 7.92364e-08)
(0.000742528 4.09031e-08 8.63234e-08)
(0.000741487 1.64311e-07 3.53716e-08)
(0.000739743 2.70695e-07 5.59751e-08)
(0.000737985 2.5269e-07 4.53422e-08)
(0.000736212 3.39082e-07 1.16239e-08)
(0.000735512 6.59274e-07 1.0967e-07)
(0.000734678 2.15989e-07 6.79543e-08)
(0.000732882 4.04685e-08 2.12464e-08)
(0.000731413 -3.23933e-08 6.95115e-08)
(0.000730626 -7.10952e-07 8.62456e-08)
(0.000729005 -5.83788e-07 -2.40187e-09)
(0.000727051 -2.89764e-07 3.4507e-08)
(0.000725892 -2.31408e-08 5.98094e-08)
(0.000724952 9.30537e-08 5.25734e-08)
(0.000723906 -9.07811e-08 3.90162e-08)
(0.000722185 -3.68186e-07 4.24186e-08)
(0.000720656 -3.13441e-07 7.57718e-09)
(-0.0296086 -0.0180488 0.00159271)
(0.00367839 -0.00822896 -0.000724642)
(-0.0146585 0.00897177 0.000323193)
(-0.00677802 -0.00868908 0.000787103)
(0.00608556 0.00466859 0.000289696)
(0.000127289 -0.00252033 2.70616e-05)
(0.000292971 -2.74413e-05 9.30664e-07)
(0.000858415 -9.12604e-06 -2.32047e-06)
(0.000818234 2.39392e-05 -1.25464e-07)
(0.000797419 5.72906e-06 5.36863e-09)
(0.000788198 3.95462e-06 4.15705e-08)
(0.000781828 1.90243e-06 4.16836e-08)
(0.000778046 1.03099e-06 4.96124e-08)
(0.000775106 1.77245e-07 4.46766e-08)
(0.000772624 1.2436e-07 4.96704e-08)
(0.000770681 -1.33447e-08 6.12211e-08)
(0.000768873 1.37692e-08 5.14011e-08)
(0.000767027 -1.73099e-07 4.21875e-08)
(0.000765322 -3.51882e-09 8.67148e-08)
(0.00076363 1.60948e-07 2.76335e-08)
(0.000762078 3.86874e-07 1.0783e-07)
(0.000760522 1.32934e-07 6.88184e-08)
(0.000758903 2.23821e-07 1.76858e-08)
(0.000757365 6.50694e-08 1.4971e-07)
(0.00075579 1.18909e-07 3.84794e-08)
(0.000754062 1.00222e-07 6.82759e-08)
(0.000752494 -4.01069e-08 8.32355e-08)
(0.00075116 -1.73959e-07 4.33764e-08)
(0.000749429 -4.56381e-07 5.78251e-08)
(0.000747679 -3.46112e-07 7.55462e-08)
(0.000746497 -2.79896e-07 -1.34331e-07)
(0.000745181 -1.01189e-07 1.90332e-08)
(0.000744199 4.78621e-07 1.37208e-07)
(0.000742955 6.06636e-07 8.90659e-08)
(0.00074119 2.13521e-07 4.07406e-08)
(0.00073972 6.68146e-08 4.41438e-08)
(0.000738405 1.47011e-07 6.40419e-08)
(0.000737349 3.79705e-07 8.13773e-10)
(0.000735448 7.5636e-07 5.22732e-09)
(0.000733632 2.66644e-07 8.95897e-08)
(0.000732533 6.44397e-08 5.3481e-08)
(0.000730924 -2.34954e-08 5.85438e-08)
(0.00072962 -1.39835e-07 7.56898e-08)
(0.000729133 -6.52606e-07 8.95794e-08)
(0.000728075 -8.20002e-08 2.47249e-08)
(0.000726384 1.3262e-07 1.22222e-08)
(0.000724789 4.40315e-07 5.61196e-08)
(0.000723337 1.05769e-07 4.81207e-08)
(0.000722072 -7.70213e-08 -7.62091e-08)
(0.000721142 -1.80904e-07 1.05827e-07)
(-0.00250977 0.00106563 0.000620576)
(-0.0399596 -0.0164035 0.00372456)
(-0.0385342 -0.0238374 -0.00135638)
(-0.00441378 0.00186622 -0.000572837)
(0.0242608 0.00457856 0.000164452)
(-2.1025e-05 -1.8873e-05 -2.79888e-05)
(0.000492977 -0.000127369 3.80359e-05)
(0.00045001 2.69168e-05 -9.43281e-08)
(0.000831935 3.40702e-05 -1.5296e-06)
(0.000769403 1.09605e-05 -3.77848e-07)
(0.000781626 6.73852e-06 1.7668e-07)
(0.000777591 3.2568e-06 4.76946e-08)
(0.000776262 1.71827e-06 6.15068e-08)
(0.000774245 8.77434e-07 5.54912e-08)
(0.000772295 5.07992e-07 5.41218e-08)
(0.000770455 3.70158e-07 5.40352e-08)
(0.00076865 1.959e-07 5.4374e-08)
(0.000767015 2.25864e-07 8.18603e-08)
(0.000765366 1.41127e-08 4.8812e-08)
(0.000763655 5.90155e-09 4.0715e-08)
(0.000762046 -5.26021e-08 2.06936e-07)
(0.000760612 -4.29112e-08 4.57715e-08)
(0.000758878 -1.53648e-07 2.7241e-08)
(0.000757194 -1.8424e-07 2.21792e-08)
(0.000755634 -3.28632e-07 5.96127e-08)
(0.000753865 -2.49854e-07 1.37056e-08)
(0.000752397 -1.44515e-07 4.93045e-08)
(0.000750796 -8.00291e-08 5.41358e-08)
(0.000749472 -1.22069e-07 -3.96229e-10)
(0.000748422 3.70443e-07 1.81816e-08)
(0.000746952 4.6221e-07 1.86875e-07)
(0.000745909 4.96712e-07 9.5744e-08)
(0.00074438 4.93444e-07 -1.70608e-08)
(0.000742193 1.52502e-07 -4.22356e-09)
(0.00074081 6.24391e-08 8.60499e-08)
(0.000739658 5.94699e-08 4.16625e-08)
(0.000738375 5.78515e-08 1.3878e-07)
(0.00073697 -1.23549e-08 4.75453e-08)
(0.000735366 -1.94069e-07 1.76904e-08)
(0.00073381 4.54914e-08 5.01852e-08)
(0.000732518 9.99667e-08 7.28666e-08)
(0.000731159 1.57623e-07 -1.00777e-08)
(0.000729842 5.61489e-07 1.45305e-07)
(0.000729081 6.76513e-07 1.38597e-07)
(0.000728036 3.06449e-07 7.3112e-08)
(0.000726545 1.89655e-07 9.37761e-08)
(0.000724918 2.49577e-07 1.52686e-07)
(0.000723259 4.03484e-07 8.04076e-08)
(0.000721831 2.35672e-07 5.77038e-08)
(0.000720975 1.58297e-07 1.22763e-07)
(-0.00686902 -0.00135305 0.000686833)
(-0.0196628 -0.00230259 0.00183625)
(0.0163275 -0.00421018 0.000773156)
(0.00985624 0.00392218 0.00127406)
(-0.014035 0.000558327 0.000360485)
(-0.00331832 0.00406642 -0.000321417)
(0.00150558 0.00037142 0.000108372)
(0.000431128 1.72024e-05 -7.06294e-07)
(0.000821886 7.53419e-06 -1.35993e-06)
(0.000763379 4.54409e-06 -4.15432e-07)
(0.000778653 3.20684e-06 1.66491e-07)
(0.000775609 2.0544e-06 -6.58198e-09)
(0.00077511 9.98051e-07 6.1427e-08)
(0.000773618 6.77797e-07 5.28182e-08)
(0.000772006 6.03162e-07 4.91693e-08)
(0.000770302 4.39468e-07 4.86845e-08)
(0.0007687 2.21967e-07 4.83059e-08)
(0.000766805 2.43607e-07 3.01479e-08)
(0.000765051 9.53401e-08 1.03887e-07)
(0.00076355 -3.26589e-07 3.39498e-08)
(0.000762019 -7.6402e-08 5.6692e-08)
(0.000760397 -8.25912e-08 4.99746e-08)
(0.000758727 -3.0719e-07 3.51291e-08)
(0.000757148 -1.20567e-07 6.42433e-08)
(0.00075571 -2.16475e-07 5.54798e-08)
(0.000754294 -7.39559e-08 7.14384e-08)
(0.000752707 1.73213e-07 6.16834e-08)
(0.000751189 3.37973e-07 5.97375e-08)
(0.00074999 6.79862e-07 3.27477e-08)
(0.000748406 5.32284e-07 3.50275e-08)
(0.000746649 3.11373e-07 6.85888e-08)
(0.000745215 4.26194e-07 -1.79998e-07)
(0.000743764 -1.3964e-07 9.63014e-08)
(0.000742415 -1.28674e-07 4.78871e-08)
(0.000741073 3.71653e-08 6.08429e-08)
(0.000739714 3.62472e-08 4.49512e-08)
(0.000738315 6.45717e-10 1.9439e-07)
(0.000737034 -1.3615e-07 3.32594e-08)
(0.00073552 -2.40583e-07 1.00614e-08)
(0.000733999 -1.03239e-07 3.61571e-08)
(0.000732672 8.19505e-08 5.68123e-08)
(0.000731499 1.99859e-07 4.1367e-08)
(0.000730265 3.74945e-07 1.94822e-07)
(0.000728809 6.12478e-07 -1.03692e-07)
(0.000727463 1.99604e-07 4.97941e-08)
(0.00072631 1.01852e-07 4.07088e-08)
(0.000725053 5.71217e-08 7.81734e-08)
(0.000723318 3.23021e-07 4.02795e-08)
(0.000721761 1.94142e-07 4.53728e-08)
(0.00072065 2.80449e-07 1.37596e-07)
(0.00496674 -0.00183905 -4.34344e-05)
(-0.0182843 -0.00192202 -0.000132428)
(0.00467537 0.0016598 -0.00200883)
(0.0067851 -0.0238927 0.000292484)
(0.00584523 0.000142564 -0.00430524)
(0.00338713 -0.0154162 -9.11223e-05)
(0.000715331 -0.000634954 7.22265e-05)
(0.000400195 -2.8041e-06 -1.44444e-06)
(0.00082578 -4.66037e-06 -1.17869e-06)
(0.000764534 -1.24706e-06 -4.60848e-07)
(0.000778675 3.56311e-07 1.88184e-07)
(0.000774931 4.19881e-07 5.42742e-08)
(0.000774604 6.42567e-07 2.06287e-07)
(0.000773791 2.46784e-07 5.50179e-08)
(0.00077202 -1.40275e-07 2.7538e-09)
(0.000769992 -1.98506e-07 2.6116e-08)
(0.000768413 -1.06364e-07 5.07009e-08)
(0.000766862 -1.92837e-07 4.05862e-08)
(0.000764656 5.009e-08 4.38953e-08)
(0.000763444 4.08053e-07 9.8129e-08)
(0.000762354 1.06597e-07 6.77597e-08)
(0.000760327 6.21451e-08 3.07242e-07)
(0.000758834 1.00077e-07 2.64129e-07)
(0.00075731 1.41281e-07 9.36719e-08)
(0.000755694 1.84384e-07 1.74633e-07)
(0.000754353 3.99446e-09 7.43466e-08)
(0.00075291 1.73613e-07 6.61691e-08)
(0.000751425 2.83597e-07 3.02093e-08)
(0.000749709 3.82771e-07 2.37028e-07)
(0.000747954 2.47314e-07 1.02527e-07)
(0.000746813 9.36207e-08 5.30611e-08)
(0.000745341 -1.82685e-07 1.60265e-08)
(0.000743684 5.7493e-08 1.03062e-07)
(0.000742413 2.47688e-08 4.67428e-08)
(0.000741016 6.02568e-08 4.61553e-08)
(0.000739612 -6.67927e-08 4.39247e-08)
(0.00073816 -1.22115e-07 3.43985e-08)
(0.00073667 -1.39598e-07 6.99606e-08)
(0.00073541 -2.15287e-07 4.02081e-08)
(0.000734215 -1.83489e-07 -6.74349e-08)
(0.000732897 1.40976e-08 7.25042e-08)
(0.000731522 1.28558e-07 3.91379e-07)
(0.000730354 7.09649e-08 3.74622e-09)
(0.000728858 4.03473e-08 5.45541e-08)
(0.000727395 -7.76716e-08 5.5294e-08)
(0.000726366 -2.00118e-07 4.59795e-08)
(0.000725194 -5.07643e-07 6.32494e-09)
(0.000723429 -8.13353e-07 -1.46717e-08)
(0.000721772 -2.89236e-07 5.20057e-08)
(0.000720385 1.89066e-08 4.51789e-08)
(0.0064997 -0.00174669 -0.000278733)
(0.00800535 0.00864438 0.000684047)
(0.00129251 -0.0135306 -0.00348763)
(-0.0234124 -0.050048 0.00402765)
(0.0268084 0.00489388 0.00127184)
(0.0193327 -0.00351235 0.000368804)
(0.000868466 -0.00111639 4.25185e-05)
(0.000423682 -1.42333e-05 -1.71238e-06)
(0.000841997 1.18958e-06 -1.34935e-06)
(0.000770038 8.02836e-07 -5.83949e-07)
(0.0007809 6.4524e-07 1.79049e-07)
(0.000776065 3.2135e-07 9.95441e-08)
(0.000774955 4.37644e-07 6.85542e-08)
(0.000772678 6.96305e-08 4.70593e-08)
(0.000771474 -2.56376e-07 1.63889e-07)
(0.000770361 -2.68885e-07 1.15999e-07)
(0.000768718 -1.22977e-07 4.9904e-08)
(0.000767007 -5.74574e-08 6.56506e-08)
(0.000765805 -6.53836e-08 2.45938e-08)
(0.000763622 4.84618e-07 3.56425e-08)
(0.000761588 2.66013e-07 2.46829e-08)
(0.00076039 1.72744e-07 2.70686e-07)
(0.000758826 1.98342e-07 5.51728e-08)
(0.000757253 1.30583e-07 -1.40449e-08)
(0.000755539 2.17179e-07 5.37374e-08)
(0.00075428 2.64335e-07 -9.27769e-09)
(0.000753056 4.04341e-09 3.70893e-08)
(0.000751448 -1.25567e-07 -6.17208e-09)
(0.000749942 -6.72372e-08 1.98142e-08)
(0.000748042 -3.65844e-07 -1.17535e-07)
(0.000746111 -2.18591e-07 2.10519e-08)
(0.000745168 -2.26263e-07 4.77942e-08)
(0.000744023 -2.0277e-07 1.41685e-08)
(0.000742416 -1.51015e-07 4.54168e-08)
(0.000740958 -1.85265e-07 -3.53196e-08)
(0.000739486 -7.72236e-08 5.49219e-08)
(0.000738225 -8.50581e-08 5.71533e-08)
(0.00073692 4.90035e-08 4.31461e-08)
(0.000735467 1.72887e-07 6.10449e-08)
(0.000734287 1.69048e-07 5.60502e-08)
(0.000733062 1.92904e-07 5.7588e-08)
(0.000731569 4.10651e-07 2.59605e-07)
(0.000730154 2.7598e-07 3.32947e-08)
(0.000728624 2.32623e-08 6.6819e-08)
(0.000727164 -2.4383e-08 5.70058e-08)
(0.000725776 -1.83431e-07 4.16383e-08)
(0.000724291 -5.25112e-07 -7.79969e-08)
(0.000723595 -7.25648e-07 6.16475e-08)
(0.000722803 -4.95594e-07 1.85044e-07)
(0.000720988 -3.2582e-07 1.23495e-07)
(-0.00281369 -0.00146615 -1.6454e-05)
(-0.000593883 0.00113782 -0.000430265)
(-0.00643355 -0.0230124 0.0010235)
(-0.00881159 -0.0234838 0.000556711)
(-0.00806525 0.00439304 0.00103857)
(-0.00724761 0.030205 -0.00136851)
(0.00137014 -0.000961443 0.00016322)
(0.000414671 3.52096e-05 -4.1243e-07)
(0.000828884 1.29733e-05 -1.28318e-06)
(0.000763954 6.08458e-06 -5.90095e-07)
(0.000778153 2.02273e-06 1.81682e-07)
(0.000774721 8.43794e-07 -4.58885e-08)
(0.000774321 -2.35756e-09 5.24072e-08)
(0.000772943 -1.76155e-08 4.98139e-08)
(0.000771611 1.33277e-07 5.17993e-08)
(0.000770168 1.02528e-07 5.28177e-08)
(0.000768684 -2.63817e-08 5.05889e-08)
(0.000766938 4.98696e-09 4.06397e-08)
(0.000765335 6.64474e-08 5.38093e-08)
(0.000763857 -2.73339e-07 1.04209e-08)
(0.000761962 3.65363e-08 1.36015e-08)
(0.00076024 3.09575e-08 4.70818e-08)
(0.00075878 6.76825e-08 3.31857e-08)
(0.000757333 4.13133e-08 5.08841e-08)
(0.00075586 1.06757e-07 1.99856e-09)
(0.000754085 1.68585e-07 9.60923e-08)
(0.000752423 -9.76128e-08 6.41161e-08)
(0.000751337 -3.48464e-07 4.37149e-08)
(0.000749412 -8.08925e-07 -5.58818e-08)
(0.000747769 -8.44898e-07 1.04622e-07)
(0.000746991 -5.2824e-07 2.32265e-08)
(0.000745364 -5.56585e-08 5.17055e-08)
(0.000743781 -5.98385e-08 3.56622e-08)
(0.000742437 -1.01845e-07 7.04962e-08)
(0.000741109 -1.17686e-07 5.8405e-08)
(0.000739739 -4.02833e-08 4.4747e-08)
(0.000738318 1.74849e-08 3.94653e-08)
(0.000736992 1.45975e-08 3.83643e-08)
(0.000735559 5.37969e-08 3.11127e-08)
(0.000734239 2.34704e-07 -6.29609e-08)
(0.000733197 9.16455e-09 4.14181e-08)
(0.000731624 -2.27301e-07 -3.08602e-08)
(0.000729869 -1.06387e-07 5.96905e-08)
(0.000728482 -2.20704e-07 5.10584e-08)
(0.000727137 -6.57694e-08 7.21136e-09)
(0.000725742 -1.19864e-08 4.62789e-08)
(0.00072452 -1.13208e-08 2.68827e-08)
(0.000723472 1.15934e-07 3.91133e-08)
(0.000722281 -2.39946e-07 -1.37291e-08)
(0.00072141 -3.07336e-07 5.16151e-08)
(-0.00320873 -0.0146973 0.00166379)
(0.0233072 -0.0667403 0.00115685)
(-0.00636267 0.00969302 0.00130134)
(0.0123238 -0.00304909 -0.00328888)
(-0.0160059 0.0022779 0.000193893)
(-0.00834647 0.00286198 -0.000347699)
(0.00127439 -0.000238994 -4.45829e-05)
(0.000406066 1.20859e-05 5.4513e-07)
(0.000806487 -1.40212e-05 -1.07832e-06)
(0.000756171 -1.00025e-06 -4.82652e-07)
(0.0007743 -2.32673e-06 1.87164e-07)
(0.00077351 -1.22078e-06 5.12842e-08)
(0.000773864 -8.48304e-07 5.87891e-08)
(0.00077284 -5.43332e-07 4.90377e-08)
(0.000771619 -3.15295e-07 6.62745e-08)
(0.000770158 -2.32809e-07 5.02925e-08)
(0.000768593 -1.16647e-07 6.55956e-08)
(0.000767122 -1.34549e-07 6.83664e-08)
(0.000765456 -6.82366e-08 9.33401e-08)
(0.000763584 -1.8815e-07 6.48973e-08)
(0.000761967 -9.27785e-08 4.88216e-08)
(0.000760428 7.16031e-08 6.22491e-08)
(0.000758839 1.06126e-08 4.84483e-08)
(0.000757301 -1.43698e-08 4.68483e-08)
(0.000755697 -2.30334e-07 5.55288e-08)
(0.000754024 -2.3351e-07 3.0999e-08)
(0.00075241 -7.05315e-08 -1.7879e-07)
(0.000750562 -5.83707e-08 6.23752e-08)
(0.000749328 -2.58892e-07 1.20259e-07)
(0.0007484 2.74329e-07 6.57063e-08)
(0.000747102 2.9051e-07 8.95611e-08)
(0.000745757 7.03481e-09 3.83245e-08)
(0.000743967 -3.23792e-09 3.99994e-08)
(0.000742345 4.83855e-08 4.48784e-08)
(0.000741036 5.6404e-08 5.25917e-08)
(0.000739656 -9.93339e-08 5.48529e-08)
(0.000738293 -5.79207e-08 5.00843e-08)
(0.000736965 -1.00137e-07 5.42139e-08)
(0.000735741 -3.91747e-08 3.9811e-08)
(0.000734231 -3.7917e-08 5.1288e-08)
(0.000732484 -1.16276e-07 1.64757e-08)
(0.000731426 -2.12742e-07 5.90475e-08)
(0.000730164 -1.35909e-07 8.18524e-08)
(0.000728677 -1.11324e-07 4.16397e-08)
(0.000727426 -9.57504e-08 6.34397e-08)
(0.000725845 3.14483e-08 4.2751e-08)
(0.000724452 4.04531e-07 3.85873e-08)
(0.000723311 2.76957e-07 5.0096e-08)
(0.000722283 1.39856e-07 8.60911e-08)
(0.000721671 -4.78463e-08 1.67353e-08)
(0.0108393 0.0162897 -0.00194245)
(-0.0235536 0.00918637 0.00591598)
(0.0200177 -0.00647143 -0.00319323)
(-0.00994797 -0.0140379 0.000651705)
(-0.00518156 -0.00248386 0.000256953)
(-0.0255054 0.0242315 -0.00178565)
(0.000428892 6.42207e-05 3.78475e-05)
(0.000814639 -6.70714e-06 -1.66813e-06)
(0.000773722 -2.86746e-05 -3.85108e-07)
(0.000778198 -9.16199e-06 2.86954e-08)
(0.000777755 -6.15915e-06 2.0539e-08)
(0.000776497 -2.98046e-06 1.00331e-08)
(0.000775121 -1.63868e-06 4.3297e-08)
(0.000773581 -1.17171e-06 5.03466e-08)
(0.000771981 -5.19439e-07 5.22715e-08)
(0.000770405 -1.23328e-07 1.70719e-08)
(0.000768799 -9.20475e-08 1.15182e-07)
(0.000766993 -2.27125e-07 1.91174e-08)
(0.000765265 -1.78098e-07 4.72082e-08)
(0.000763825 1.08458e-07 5.64489e-08)
(0.000762286 3.26941e-07 4.62229e-08)
(0.00076037 -2.68099e-08 6.57525e-08)
(0.000758673 -4.47236e-08 5.34065e-08)
(0.000757033 -1.09517e-07 5.146e-08)
(0.000755588 -1.88993e-07 4.049e-08)
(0.000754287 -6.96759e-08 5.77449e-08)
(0.000752643 -3.99129e-08 3.66116e-08)
(0.000751103 5.72606e-08 4.32745e-08)
(0.000749827 3.26289e-07 2.91618e-08)
(0.000748454 3.89936e-07 -2.98306e-08)
(0.000746655 4.21292e-07 7.24996e-09)
(0.000744995 2.33497e-07 1.02119e-07)
(0.000743832 -1.23651e-07 -3.10936e-07)
(0.000742511 -1.16329e-07 9.59762e-09)
(0.000740925 -1.6932e-07 2.48374e-08)
(0.000739596 -2.23089e-07 5.12041e-08)
(0.000738318 -2.05911e-07 2.18807e-08)
(0.000737016 -2.01727e-07 4.92557e-08)
(0.000735637 -3.03714e-07 8.20703e-08)
(0.000734143 -3.12695e-07 3.71911e-08)
(0.000732979 -1.63697e-07 5.45586e-08)
(0.000731601 -2.64862e-08 1.64279e-08)
(0.000729997 1.84886e-07 1.82096e-09)
(0.000728533 8.76321e-08 3.48432e-08)
(0.000727317 1.26755e-07 6.51501e-08)
(0.000726366 4.55898e-08 4.93781e-08)
(0.000724825 1.76334e-07 2.50543e-08)
(0.000723138 3.84716e-07 3.69187e-08)
(0.000721875 6.61695e-07 -6.12312e-08)
(0.000721292 4.43574e-07 8.35736e-08)
(0.00763959 -0.000505804 -0.000284702)
(-0.0188521 -0.00408429 0.00165983)
(0.00122433 0.00960651 0.00159515)
(-0.00126561 -0.00046789 -0.00151247)
(-0.0145612 0.00582786 -0.00201863)
(-0.00455042 -0.00510978 -0.000277954)
(0.000327765 -9.59665e-05 -1.21139e-07)
(0.000787351 -3.44045e-05 -2.91427e-06)
(0.00078867 -1.85238e-05 2.05135e-07)
(0.000784136 -1.00789e-05 1.38384e-08)
(0.000781879 -5.47987e-06 9.05179e-08)
(0.000779068 -3.05737e-06 5.91338e-08)
(0.000776065 -1.61837e-06 5.22269e-08)
(0.000774201 -3.81336e-07 -4.20268e-08)
(0.000772906 -1.55848e-07 3.77506e-08)
(0.000770675 7.5572e-08 3.51458e-08)
(0.000768453 3.88741e-09 4.6426e-08)
(0.000767008 1.21498e-07 7.98932e-08)
(0.000765871 4.17991e-08 7.80149e-08)
(0.000764211 -1.30827e-07 6.35717e-08)
(0.000761796 -4.83706e-07 1.04584e-08)
(0.000759962 -2.94689e-07 5.22574e-08)
(0.000758736 -1.25586e-07 5.41406e-08)
(0.000757123 -6.07163e-08 4.57591e-08)
(0.000755749 1.10722e-07 5.36092e-08)
(0.000754212 -5.70915e-08 4.51922e-08)
(0.00075257 -6.66177e-08 6.1669e-08)
(0.00075102 1.99239e-08 4.2853e-08)
(0.000749742 1.02648e-07 2.9265e-08)
(0.000748516 -9.46566e-08 4.66344e-08)
(0.000746903 -1.03396e-07 1.29968e-07)
(0.000745074 -1.05776e-07 -2.06229e-09)
(0.00074353 -1.32973e-07 -6.69426e-08)
(0.00074229 -3.75332e-07 2.1631e-07)
(0.000740904 -1.21825e-07 4.15383e-08)
(0.000739612 7.34957e-08 1.68853e-08)
(0.000738322 -4.67751e-09 5.29345e-08)
(0.000736844 -1.92422e-07 4.74648e-08)
(0.000735605 -6.49491e-07 5.41479e-08)
(0.000734408 -2.94536e-07 5.47773e-08)
(0.000732845 -2.23018e-07 5.74878e-08)
(0.000731862 -3.74273e-07 8.39632e-08)
(0.000730307 -3.75181e-07 2.87463e-08)
(0.000728603 1.2819e-07 1.24966e-07)
(0.000727372 2.52932e-09 1.81851e-08)
(0.000725904 -8.24886e-08 4.35187e-08)
(0.000724872 -3.76856e-07 2.1707e-08)
(0.000723912 1.99016e-08 2.9192e-08)
(0.000722342 2.38618e-07 3.42592e-09)
(0.000720293 2.74122e-07 6.28895e-08)
(0.00921935 0.0084635 -0.00568458)
(0.0165104 -0.0169275 -0.00428017)
(0.0213454 0.0378908 -0.000432749)
(0.0104617 0.0128229 -0.0117801)
(-0.00053973 -0.0160934 0.00165519)
(-0.00467449 0.0157589 -0.000513173)
(0.00145146 2.76029e-05 -6.34982e-06)
(0.00139135 -2.94164e-05 3.7314e-07)
(0.00132539 -1.00855e-05 3.37007e-07)
(0.00131739 -3.40474e-06 3.46564e-07)
(0.00130913 -2.71823e-07 2.52107e-07)
(0.00130358 2.55586e-07 3.3266e-07)
(0.00130077 5.05491e-07 2.5058e-07)
(0.00129696 1.12243e-06 1.99824e-07)
(0.00129304 6.48061e-07 3.38763e-07)
(0.00129027 1.50469e-07 4.96198e-07)
(0.00128764 2.66649e-07 3.29522e-07)
(0.00128488 4.24968e-07 3.10858e-07)
(0.00128158 1.40263e-07 3.09364e-07)
(0.00127873 -3.48775e-07 3.55977e-07)
(0.00127694 -5.69005e-07 3.33413e-07)
(0.00127476 6.01979e-08 3.3258e-07)
(0.00127175 1.37385e-07 2.77775e-07)
(0.00126913 2.54094e-07 2.78152e-07)
(0.00126627 4.70714e-07 2.37518e-07)
(0.00126377 4.02611e-07 2.40167e-07)
(0.0012616 2.67337e-07 2.58323e-07)
(0.00125932 1.62545e-07 3.22309e-07)
(0.00125651 3.68107e-07 3.49751e-07)
(0.0012539 -3.40055e-07 3.02513e-07)
(0.00125141 -8.74146e-07 3.4169e-07)
(0.0012486 -8.60431e-07 2.0381e-07)
(0.00124625 -6.16654e-07 3.24701e-07)
(0.00124472 4.30016e-08 4.0418e-07)
(0.00124294 3.04308e-07 2.96597e-07)
(0.00124002 4.60938e-07 3.39181e-07)
(0.00123708 3.95501e-07 3.12483e-07)
(0.00123418 5.50884e-07 2.10144e-07)
(0.0012329 1.0809e-06 3.06066e-07)
(0.00123148 4.36774e-07 3.33214e-07)
(0.00122861 9.49255e-08 2.69983e-07)
(0.00122614 -4.42312e-08 3.32708e-07)
(0.00122481 -1.09164e-06 3.51669e-07)
(0.00122213 -8.87188e-07 1.85964e-07)
(0.00121898 -4.72966e-07 2.88222e-07)
(0.001217 -1.14342e-07 1.88236e-07)
(0.00121531 8.50795e-08 2.70745e-07)
(0.00121359 -2.23609e-07 2.97415e-07)
(0.00121071 -6.10748e-07 3.35428e-07)
(0.00120809 -5.09303e-07 2.16624e-07)
(-0.0159571 -0.00757902 0.00772289)
(0.039357 -0.0448538 -0.0029794)
(-0.00992788 -0.00907266 0.00321246)
(0.00487498 -0.0133818 -0.000615505)
(-0.00410664 0.0129926 9.57192e-05)
(0.0058167 0.000717938 0.000511923)
(0.00139748 -9.20543e-05 2.87551e-06)
(0.00139903 -1.44298e-05 4.11768e-07)
(0.0013452 3.78607e-05 3.6245e-07)
(0.00132008 8.43301e-06 3.63365e-07)
(0.00131065 5.86695e-06 3.29782e-07)
(0.00130369 2.72478e-06 3.28435e-07)
(0.00129967 1.44173e-06 3.27084e-07)
(0.0012962 1.45259e-07 3.25056e-07)
(0.00129297 9.78086e-08 3.25144e-07)
(0.0012903 -1.12501e-07 2.63135e-07)
(0.00128767 -4.76164e-08 3.24892e-07)
(0.00128484 -3.48957e-07 1.43292e-07)
(0.0012821 -6.83831e-08 3.99728e-07)
(0.0012794 2.24919e-07 2.92534e-07)
(0.00127692 6.11152e-07 3.4964e-07)
(0.00127436 2.05365e-07 3.70241e-07)
(0.0012717 4.35442e-07 2.80811e-07)
(0.00126923 1.89178e-07 4.25515e-07)
(0.00126665 2.94099e-07 2.80354e-07)
(0.00126373 2.37035e-07 3.49792e-07)
(0.00126108 -2.63361e-09 3.4374e-07)
(0.00125889 -2.94689e-07 3.1449e-07)
(0.00125603 -9.00843e-07 2.85111e-07)
(0.00125309 -6.34241e-07 2.93019e-07)
(0.00125122 -5.00586e-07 3.40951e-08)
(0.00124913 -2.11092e-07 2.61929e-07)
(0.00124741 8.40865e-07 4.88845e-07)
(0.00124536 1.03328e-06 4.44207e-07)
(0.00124248 3.66519e-07 3.06204e-07)
(0.00123995 1.0597e-07 2.9267e-07)
(0.00123774 2.61446e-07 3.38586e-07)
(0.00123595 6.25708e-07 8.37201e-08)
(0.00123288 1.21925e-06 3.23934e-07)
(0.00122988 5.24535e-07 7.66144e-07)
(0.00122795 1.26024e-07 3.24482e-07)
(0.00122532 -7.27675e-08 3.42498e-07)
(0.0012232 -2.97435e-07 2.90992e-07)
(0.0012223 -1.05661e-06 3.64658e-07)
(0.00122046 -1.73633e-07 3.11731e-07)
(0.00121774 1.0493e-07 2.42456e-07)
(0.00121515 6.64253e-07 3.20157e-07)
(0.00121271 1.35418e-07 2.92955e-07)
(0.00121057 -1.89535e-07 6.14925e-08)
(0.00120899 -3.17898e-07 3.90843e-07)
(-0.00598105 0.0364678 0.00456902)
(-0.0413223 -0.0733662 0.00959147)
(-0.0351658 0.0233173 -0.00479942)
(0.0248798 0.00592171 0.00261442)
(0.00297377 0.00492479 0.00123577)
(0.0018561 -0.00523246 -0.000518297)
(0.00123953 0.000189584 6.1153e-05)
(0.00128615 5.15895e-05 1.05724e-06)
(0.00137453 4.15655e-05 -1.59715e-07)
(0.00127762 8.95755e-06 3.19352e-07)
(0.00130204 5.48917e-06 3.27591e-07)
(0.00129807 1.89878e-06 3.24783e-07)
(0.00129757 6.87725e-07 3.27191e-07)
(0.00129529 1.14409e-07 3.25895e-07)
(0.00129273 1.69984e-09 3.2527e-07)
(0.0012901 6.91921e-08 3.23428e-07)
(0.00128735 -2.78151e-08 3.2322e-07)
(0.00128486 1.04354e-07 2.84535e-07)
(0.0012823 -1.86572e-07 3.45549e-07)
(0.00127958 -1.15339e-07 3.12302e-07)
(0.00127691 -1.8167e-07 5.68606e-07)
(0.00127454 -1.25307e-07 3.18479e-07)
(0.00127173 -2.54726e-07 2.9259e-07)
(0.00126894 -2.8444e-07 3.18045e-07)
(0.00126633 -5.67995e-07 2.9298e-07)
(0.00126339 -4.02159e-07 2.56963e-07)
(0.00126093 -2.18417e-07 3.21705e-07)
(0.0012582 -9.57532e-08 3.10605e-07)
(0.00125609 -1.64029e-07 2.01035e-07)
(0.00125441 6.8533e-07 2.32524e-07)
(0.00125195 9.06328e-07 4.51136e-07)
(0.00125027 8.91297e-07 5.2642e-07)
(0.0012478 8.30461e-07 1.81561e-07)
(0.00124413 3.02518e-07 1.54728e-07)
(0.00124177 9.0207e-08 3.46637e-07)
(0.00123989 7.14042e-08 3.21626e-07)
(0.00123772 1.16625e-07 3.69202e-07)
(0.00123537 1.97914e-09 3.31027e-07)
(0.00123276 -2.5306e-07 2.87798e-07)
(0.00123011 6.32956e-08 3.34043e-07)
(0.00122786 1.36781e-07 3.20011e-07)
(0.00122561 2.4806e-07 1.77189e-07)
(0.00122359 9.79231e-07 7.53028e-07)
(0.00122229 1.09975e-06 3.39112e-07)
(0.00122044 5.80196e-07 2.74436e-07)
(0.00121805 3.91627e-07 3.69578e-07)
(0.00121535 4.5427e-07 4.66819e-07)
(0.00121252 6.45496e-07 3.14014e-07)
(0.00121015 3.67991e-07 3.09463e-07)
(0.00120872 2.45698e-07 5.18336e-07)
(-0.00589135 0.00351726 0.00418194)
(-0.00260195 -0.0551263 -0.0541144)
(-0.00822703 0.0126233 -0.00143441)
(0.00430255 -0.00186889 -0.00434856)
(0.00511821 -0.00481469 -0.00112697)
(-0.00675565 0.0158615 -0.00387095)
(0.000266662 -0.00413499 -0.000255091)
(0.00126055 -9.3594e-06 9.33e-07)
(0.00137165 -8.79273e-06 2.97753e-07)
(0.00127537 -5.85998e-06 2.26789e-07)
(0.00130204 -2.97337e-06 3.27133e-07)
(0.00129782 -1.72845e-06 2.96657e-07)
(0.00129753 -1.5145e-06 3.25866e-07)
(0.0012954 -8.46175e-07 3.25831e-07)
(0.00129296 -2.38706e-07 3.24994e-07)
(0.00129029 -3.86684e-08 3.24315e-07)
(0.00128773 -1.02349e-07 3.24077e-07)
(0.00128465 1.34766e-07 2.70842e-07)
(0.00128184 -3.126e-08 3.18792e-07)
(0.00127942 -6.15221e-07 2.96579e-07)
(0.00127691 -2.64959e-07 2.85801e-07)
(0.00127427 -2.06224e-07 3.20367e-07)
(0.00127151 -5.63902e-07 3.24014e-07)
(0.00126884 -2.58818e-07 3.48333e-07)
(0.00126651 -4.05287e-07 6.37644e-07)
(0.00126417 -1.51435e-07 5.04045e-07)
(0.00126146 2.75174e-07 3.84942e-07)
(0.00125896 6.11692e-07 3.71607e-07)
(0.001257 1.28622e-06 3.36081e-07)
(0.00125442 1.01284e-06 2.9105e-07)
(0.00125147 6.84282e-07 3.50922e-07)
(0.00124902 8.68327e-07 4.0594e-08)
(0.00124666 -1.07946e-07 3.82312e-07)
(0.00124443 -1.77701e-07 3.12328e-07)
(0.00124219 8.19426e-08 3.04877e-07)
(0.00123999 6.12709e-08 2.97595e-07)
(0.00123765 -2.57438e-08 4.78375e-07)
(0.00123549 -2.32523e-07 2.47197e-07)
(0.00123295 -4.72316e-07 1.80948e-07)
(0.00123037 -2.81781e-07 2.51202e-07)
(0.00122818 1.07237e-07 3.08312e-07)
(0.00122637 4.15946e-07 3.59682e-07)
(0.00122426 7.05308e-07 6.61685e-07)
(0.00122179 1.00663e-06 -5.16454e-08)
(0.00121957 3.32878e-07 3.24976e-07)
(0.00121757 1.70961e-07 3.0454e-07)
(0.00121547 5.03788e-08 3.64732e-07)
(0.0012126 4.6547e-07 2.94037e-07)
(0.00121006 3.24572e-07 3.52798e-07)
(0.00120823 4.55405e-07 4.96616e-07)
(0.0122066 0.000674354 0.000212124)
(-0.0164032 -0.0071294 -0.00230488)
(0.00458779 0.00348153 -0.00566817)
(0.000321771 -0.00740001 0.00345351)
(0.00788805 0.00353783 0.00181049)
(0.00211992 0.00378261 -0.00508154)
(0.000879947 -0.00440632 5.72398e-05)
(0.00121566 -7.48607e-05 1.72051e-06)
(0.00139305 -2.75679e-05 5.93341e-07)
(0.001286 -1.44797e-05 3.8772e-07)
(0.00130756 -7.13197e-06 3.48296e-07)
(0.00130012 -4.09996e-06 5.20494e-07)
(0.00129881 -1.90981e-06 4.38231e-07)
(0.00129697 -1.42878e-06 3.26617e-07)
(0.00129379 -1.34051e-06 3.10665e-07)
(0.0012903 -1.00841e-06 3.13065e-07)
(0.00128758 -6.03133e-07 3.23949e-07)
(0.00128496 -5.86081e-07 3.2064e-07)
(0.00128137 -8.8278e-08 3.07334e-07)
(0.00127929 4.87775e-07 3.24649e-07)
(0.00127743 2.77577e-08 3.55972e-07)
(0.00127417 5.69708e-08 6.24068e-07)
(0.00127167 1.14922e-07 7.92741e-07)
(0.00126915 1.803e-07 3.76279e-07)
(0.00126647 2.9575e-07 3.74826e-07)
(0.00126424 -5.92649e-08 3.52676e-07)
(0.00126189 2.53981e-07 3.69536e-07)
(0.00125946 4.50449e-07 2.86177e-07)
(0.00125658 6.45405e-07 4.94663e-07)
(0.00125365 4.30589e-07 3.84517e-07)
(0.00125176 2.06154e-07 3.41984e-07)
(0.00124928 -2.69301e-07 2.534e-07)
(0.00124649 1.54372e-07 8.26318e-07)
(0.00124436 7.66821e-08 3.13851e-07)
(0.00124207 1.25798e-07 2.99154e-07)
(0.00123975 -9.93497e-08 3.09421e-07)
(0.00123736 -2.33559e-07 2.93913e-07)
(0.00123482 -2.61013e-07 2.74654e-07)
(0.00123271 -4.01097e-07 3.02248e-07)
(0.00123084 -3.26983e-07 7.74505e-08)
(0.00122873 4.86695e-08 4.23948e-07)
(0.00122636 2.78513e-07 9.99685e-07)
(0.00122432 9.2088e-08 1.24568e-07)
(0.00122182 3.8596e-08 2.12116e-07)
(0.00121939 -2.21736e-07 3.11698e-07)
(0.00121769 -3.79298e-07 3.03214e-07)
(0.00121571 -8.86176e-07 9.59369e-08)
(0.00121286 -1.31681e-06 2.62361e-07)
(0.00121013 -4.76049e-07 3.56942e-07)
(0.00120775 5.08463e-08 3.08488e-07)
(0.00169616 -0.00215653 -0.000180321)
(0.00210145 -0.00155095 0.00152078)
(-0.0202689 0.00226072 -0.00344439)
(0.0107841 -0.0375428 0.0239316)
(0.0102315 -0.00980023 0.0128631)
(-0.0663187 -0.0119339 -0.00094499)
(0.00180844 -0.00384741 -8.24464e-05)
(0.00133264 -8.91345e-05 2.19839e-06)
(0.00143094 -9.76075e-06 5.69856e-07)
(0.00130168 -5.8533e-06 3.64822e-07)
(0.00131535 -3.38117e-06 2.90483e-07)
(0.00130456 -2.22055e-06 4.0175e-07)
(0.00130099 -9.75025e-07 3.59006e-07)
(0.00129619 -9.15624e-07 3.26764e-07)
(0.00129353 -1.02742e-06 5.38774e-07)
(0.00129124 -8.10157e-07 3.82661e-07)
(0.00128828 -4.27631e-07 3.24274e-07)
(0.00128531 -2.38301e-07 3.17839e-07)
(0.00128319 -1.91044e-07 2.89634e-07)
(0.00127956 7.03196e-07 3.49062e-07)
(0.00127638 4.86132e-07 2.81154e-07)
(0.00127439 2.87695e-07 5.66667e-07)
(0.00127166 3.20411e-07 2.91779e-07)