/*--------------------------------*- C++ -*----------------------------------*\
| =========                 |                                                 |
| \\      /  F ield         | OpenFOAM: The Open Source CFD Toolbox           |
|  \\    /   O peration     | Version:  5.0                                   |
|   \\  /    A nd           | Web:      www.OpenFOAM.org                      |
|    \\/     M anipulation  |                                                 |
\*---------------------------------------------------------------------------*/
FoamFile
{
    version     2.0;
    format      ascii;
    class       volVectorField;
    location    "1.9";
    object      U_0;
}
// * * * * * * * * * * * * * * * * * * * * * * * * * * * * * * * * * * * * * //

dimensions      [0 1 -1 0 0 0 0];

internalField   nonuniform List<vector> 
9326
(
(0.00312144 0.00126686 0.000116978)
(0.0018546 -0.029013 -0.000262668)
(-0.0121462 0.00151946 -0.000317658)
(0.00861907 -0.0116028 -0.000127468)
(0.00241903 -0.0054399 0.000627635)
(-0.00303702 0.00104684 -5.6222e-05)
(0.000388826 0.000144495 9.38255e-07)
(0.000722508 0.000106151 -1.74679e-06)
(0.000739171 6.9425e-05 2.39255e-08)
(0.000764881 4.43364e-05 9.62682e-08)
(0.000780279 2.83776e-05 1.06885e-07)
(0.000789764 1.77401e-05 5.42291e-08)
(0.000796042 1.11356e-05 -3.58027e-09)
(0.000798887 7.27011e-06 6.74784e-08)
(0.000799932 4.41395e-06 3.86468e-08)
(0.0008004 2.58903e-06 2.36095e-08)
(0.000800072 1.61185e-06 5.08221e-08)
(0.000799384 1.00662e-06 6.8606e-08)
(0.000798166 5.32111e-07 8.90475e-10)
(0.000797007 1.77873e-07 6.4891e-08)
(0.000795939 8.55446e-08 4.80103e-08)
(0.000794414 8.79203e-08 6.70417e-08)
(0.000793005 1.08732e-07 7.80621e-08)
(0.000791595 1.59053e-07 4.88462e-08)
(0.000789956 2.45522e-07 3.60785e-08)
(0.000788788 4.5544e-07 8.63231e-08)
(0.00078759 2.56167e-07 5.28971e-08)
(0.000786304 1.46497e-07 4.61675e-08)
(0.000784299 3.17818e-07 6.13212e-08)
(0.00078233 -1.96093e-07 6.34477e-08)
(0.000781199 -6.39085e-07 -6.19547e-08)
(0.000779574 -5.25088e-07 -8.1669e-09)
(0.000778267 -4.2379e-07 7.98132e-08)
(0.000777358 -1.27376e-07 4.34384e-08)
(0.000775989 6.91255e-08 4.29873e-08)
(0.000774221 -2.78266e-09 5.84956e-08)
(0.000772557 1.21497e-08 3.3045e-08)
(0.000771141 1.16246e-07 4.14153e-08)
(0.000769667 3.51981e-07 5.48108e-08)
(0.000768557 4.45002e-07 1.7253e-07)
(0.000767377 9.39626e-08 2.98472e-08)
(0.000765773 -1.54611e-08 7.533e-08)
(0.000764532 -2.25511e-07 9.10869e-08)
(0.000763084 -2.60467e-07 2.35486e-07)
(0.000761522 -1.28272e-07 5.42999e-08)
(0.000760088 -1.61805e-07 4.93401e-08)
(0.000758769 -2.63667e-07 6.43094e-08)
(0.000757543 -4.90101e-07 4.30922e-08)
(0.00075587 -3.2805e-07 -2.36444e-08)
(0.000754155 -2.2688e-07 6.98808e-08)
(-0.0331531 -0.0209063 0.00172635)
(0.0272481 -0.0270924 -0.00208173)
(-0.0145786 0.00700529 0.00038057)
(-0.00623158 -0.00957888 0.000924311)
(0.00447654 0.00476261 0.000284074)
(-0.000278686 -0.00253223 2.0962e-05)
(0.000163724 3.00119e-05 1.33736e-06)
(0.000680618 3.35577e-05 -2.39058e-06)
(0.000715313 3.51967e-05 -3.90501e-08)
(0.000746527 1.25101e-05 1.35575e-07)
(0.000769193 7.91743e-06 4.25994e-08)
(0.000782546 4.23152e-06 4.05806e-08)
(0.000791087 2.4089e-06 4.93696e-08)
(0.000795844 1.07966e-06 4.5172e-08)
(0.000798241 6.60589e-07 4.86756e-08)
(0.000799369 2.90824e-07 5.56775e-08)
(0.000799583 1.58336e-07 5.02857e-08)
(0.000799025 -4.44069e-08 3.57758e-08)
(0.000798022 -6.21906e-09 1.00708e-07)
(0.000796905 1.24473e-07 2.62242e-08)
(0.00079573 1.54596e-07 7.25279e-08)
(0.000794436 4.26682e-08 5.22747e-08)
(0.000793087 2.66242e-07 1.25423e-07)
(0.000791735 1.62944e-07 1.40829e-08)
(0.000790436 3.0423e-07 -1.56033e-08)
(0.000788684 2.68709e-07 -4.75989e-09)
(0.000786986 3.1901e-08 2.18662e-08)
(0.00078578 -1.84971e-07 4.70245e-08)
(0.000784054 -8.74398e-07 4.19076e-08)
(0.000782148 -4.85127e-07 2.42597e-08)
(0.000781049 -3.94428e-07 1.33808e-07)
(0.000780006 -2.23963e-07 3.86877e-08)
(0.000778747 3.95334e-07 2.23816e-07)
(0.000777527 5.01812e-07 2.66882e-07)
(0.000775862 1.18246e-07 4.64315e-08)
(0.00077415 3.10839e-08 4.21357e-08)
(0.000772831 1.41235e-07 4.58022e-08)
(0.000771485 1.97227e-07 5.4337e-08)
(0.000770021 3.259e-07 2.63801e-08)
(0.000768358 4.6139e-07 2.04803e-08)
(0.000766767 7.77378e-08 5.53454e-08)
(0.000765437 -1.70777e-07 6.71096e-08)
(0.000764158 -5.13535e-07 2.36346e-08)
(0.000763068 -3.28472e-07 1.28005e-07)
(0.000761658 -1.26831e-07 6.32625e-08)
(0.000760101 -1.326e-07 5.38615e-08)
(0.00075873 4.79126e-08 6.77654e-08)
(0.000757381 -1.24298e-07 4.74626e-08)
(0.00075584 -3.15973e-07 8.56884e-08)
(0.000754847 -2.21752e-07 2.80788e-08)
(0.000988668 0.000788241 0.000269979)
(-0.0404934 -0.0173126 0.0036215)
(-0.0561344 -0.028541 0.000801106)
(-0.0087621 0.00304669 -0.000349852)
(0.0230995 0.00430548 6.44174e-05)
(-0.000765741 -0.000159468 -3.98731e-05)
(0.000350204 -0.000135476 3.89041e-05)
(0.000316683 -8.65117e-06 -2.79163e-07)
(0.000745663 -2.97753e-05 -1.44967e-06)
(0.000730935 -2.9143e-05 -4.68184e-07)
(0.000769965 -1.81995e-05 1.93394e-07)
(0.000782899 -1.2207e-05 4.48249e-08)
(0.000792117 -7.86763e-06 6.27038e-08)
(0.000796712 -5.08234e-06 5.24293e-08)
(0.000798954 -3.21611e-06 5.1446e-08)
(0.000799778 -2.00353e-06 5.10154e-08)
(0.000799657 -1.33783e-06 5.29236e-08)
(0.000799182 -9.09314e-07 3.98814e-08)
(0.000798379 -7.67232e-07 -2.11732e-08)
(0.000797209 -4.3358e-07 3.95938e-08)
(0.000795837 -3.82819e-07 1.88318e-08)
(0.000794552 -2.23869e-07 4.58869e-08)
(0.000793153 -2.04316e-07 4.53944e-08)
(0.000791639 -2.23099e-07 -1.75245e-07)
(0.000790086 -3.12581e-07 5.384e-08)
(0.000788445 -2.42794e-07 9.9562e-08)
(0.000787023 -1.82349e-07 6.66932e-09)
(0.000785174 -1.3872e-07 6.47304e-08)
(0.000783928 -1.2891e-07 -8.72668e-08)
(0.000782935 4.13733e-07 5.47544e-08)
(0.000781529 7.69045e-07 8.55054e-08)
(0.000780561 7.21416e-07 9.78049e-08)
(0.000779172 4.83917e-07 3.08429e-07)
(0.000777008 2.94189e-07 1.19899e-07)
(0.000775398 3.27519e-08 8.24743e-08)
(0.000774249 9.34147e-08 5.0306e-08)
(0.000772763 1.21387e-07 4.93124e-08)
(0.000771369 6.43523e-08 4.47335e-08)
(0.000769994 1.86352e-07 4.3234e-08)
(0.000768244 3.27657e-08 1.13097e-07)
(0.000766585 1.10476e-08 3.11057e-08)
(0.000765035 -3.98592e-08 -2.78403e-09)
(0.000764339 4.63309e-07 4.35064e-08)
(0.000763571 1.99817e-07 8.14009e-08)
(0.00076177 4.59823e-08 7.03719e-08)
(0.000760307 1.36696e-07 5.29125e-08)
(0.000758781 3.13624e-07 6.44165e-08)
(0.000757089 1.48688e-07 4.81261e-08)
(0.000755754 8.36326e-08 5.45836e-08)
(0.000754825 8.20993e-08 6.79592e-08)
(0.00203938 0.00300106 0.000109353)
(-0.0196923 0.00871367 0.00158843)
(0.0125032 -0.00234635 0.00120547)
(0.011091 0.00246269 0.00360071)
(-0.0152228 -0.00131907 0.000254496)
(-0.00424317 0.00249748 -0.000242212)
(0.00123742 -0.000179366 0.000103941)
(0.000335539 -9.26637e-05 -2.09388e-06)
(0.000796233 -0.000106394 -1.13518e-06)
(0.000761471 -6.68279e-05 -5.48272e-07)
(0.000790579 -4.08938e-05 1.76252e-07)
(0.000795596 -2.52512e-05 -2.42698e-07)
(0.000800079 -1.58163e-05 5.3585e-08)
(0.000801713 -9.76229e-06 4.94882e-08)
(0.000802124 -5.93477e-06 4.8186e-08)
(0.000801739 -3.64306e-06 4.79243e-08)
(0.000800965 -2.33612e-06 5.14162e-08)
(0.000799748 -1.39425e-06 2.7015e-08)
(0.000798623 -9.68015e-07 8.7249e-08)
(0.000797391 -7.45202e-07 2.53211e-08)
(0.000795996 -6.59205e-07 4.71429e-08)
(0.000794662 -4.71055e-07 4.98339e-08)
(0.000793089 -4.57532e-07 4.45077e-08)
(0.000791602 -2.86401e-07 6.50621e-08)
(0.000790412 -2.84229e-07 1.94604e-08)
(0.000788849 -1.36508e-07 4.37388e-08)
(0.000787117 8.08702e-08 5.91004e-08)
(0.000785847 2.55986e-07 8.25847e-08)
(0.000784743 8.40691e-07 9.35084e-09)
(0.000783267 6.85065e-07 2.67632e-08)
(0.000781428 7.62934e-07 1.85386e-08)
(0.000779643 7.36154e-07 -1.37815e-08)
(0.000778209 1.6796e-07 6.12825e-08)
(0.000776961 -8.10008e-08 4.84952e-08)
(0.00077561 1.02417e-07 6.19322e-08)
(0.00077426 4.74828e-08 7.67287e-08)
(0.000772794 -2.15136e-08 4.79815e-08)
(0.000771566 -4.8879e-08 5.22639e-08)
(0.000769982 -4.05583e-07 -1.56594e-08)
(0.000768139 -3.81305e-07 2.62897e-08)
(0.000766676 -1.01537e-08 5.23742e-08)
(0.000766 3.15315e-07 4.06169e-08)
(0.000764454 6.13096e-07 4.01026e-08)
(0.000762542 2.97358e-07 1.23135e-08)
(0.000761576 2.07139e-08 5.47859e-08)
(0.000760432 1.26574e-08 4.16836e-08)
(0.000758742 -6.63406e-08 8.18516e-08)
(0.000757091 6.97577e-08 3.0597e-08)
(0.000755753 2.57057e-07 4.12672e-08)
(0.00075464 2.09087e-07 5.45246e-08)
(0.00475664 -0.00155989 -6.47247e-06)
(-0.0187255 -0.00183483 -0.000123594)
(0.00258379 0.00172286 -0.00151181)
(0.00506998 -0.018414 -0.000227481)
(0.00281693 0.00479578 -0.00673981)
(0.0028224 -0.0163783 -0.000260661)
(0.000660367 -0.00118808 7.19746e-05)
(0.000403568 -0.000149509 -2.49571e-06)
(0.000889111 -0.00012754 -1.25265e-06)
(0.000813742 -7.69264e-05 -5.75898e-07)
(0.000822273 -4.61516e-05 1.80464e-07)
(0.000814455 -2.82269e-05 1.13889e-08)
(0.000811608 -1.71078e-05 7.25276e-08)
(0.000809145 -1.06518e-05 5.04209e-08)
(0.000806653 -6.76892e-06 1.46829e-08)
(0.000804306 -4.26523e-06 -3.511e-10)
(0.000802486 -2.6287e-06 5.05727e-08)
(0.000800904 -1.72322e-06 3.58827e-08)
(0.000799198 -1.00467e-06 4.36028e-08)
(0.0007976 -7.37213e-07 9.5885e-08)
(0.000796184 -9.008e-07 7.02463e-08)
(0.000794809 -2.73256e-07 3.45042e-08)
(0.000793388 -1.48482e-07 1.9894e-08)
(0.000791859 2.84889e-08 8.77505e-08)
(0.000790275 7.01467e-08 7.9924e-08)
(0.000788903 -9.20931e-08 4.6623e-08)
(0.000787512 7.70728e-08 6.78531e-08)
(0.000786119 1.35183e-07 1.51302e-08)
(0.000784458 1.53438e-07 1.68278e-09)
(0.00078283 9.04972e-08 1.03457e-08)
(0.000781585 2.09386e-07 4.56904e-08)
(0.000779812 -2.23599e-07 4.01205e-08)
(0.000778147 7.76503e-08 7.74068e-08)
(0.000776925 4.21589e-08 5.25287e-08)
(0.000775558 9.49008e-08 6.45375e-08)
(0.000774093 -4.33691e-08 4.60827e-08)
(0.000772643 -9.10481e-08 5.19796e-08)
(0.000770891 -1.24125e-07 6.8712e-08)
(0.000769581 -2.97907e-07 1.21665e-07)
(0.000768741 -1.8402e-07 9.06538e-08)
(0.000767456 1.05722e-07 5.23313e-08)
(0.000765811 4.27387e-07 1.49575e-07)
(0.000764312 7.40578e-08 5.80931e-08)
(0.000762827 1.05178e-07 4.00201e-08)
(0.000761412 1.58081e-08 1.4733e-07)
(0.000760197 -1.80568e-07 4.73455e-08)
(0.000758851 -4.73092e-07 -4.98412e-08)
(0.000757493 -3.80491e-07 -2.2706e-07)
(0.000755922 -2.93569e-07 2.45069e-09)
(0.000754245 8.8543e-08 8.60569e-08)
(0.00684645 -0.00103135 -0.000328372)
(0.00843614 0.00952905 0.000545076)
(-0.00970165 -0.0231245 -0.00230477)
(-0.0156642 -0.0538733 0.00807604)
(0.0157701 0.0108375 -0.00135416)
(0.0244555 -0.00396316 0.000608392)
(0.00115806 -0.00147746 4.30962e-05)
(0.000553106 -0.000129034 -1.57604e-06)
(0.000986024 -8.13514e-05 -1.69972e-06)
(0.000863979 -4.97245e-05 -5.46018e-07)
(0.000851773 -3.04042e-05 1.61834e-07)
(0.000832095 -1.8771e-05 1.80038e-08)
(0.000822169 -1.14051e-05 8.10547e-08)
(0.000814712 -7.15789e-06 4.5624e-08)
(0.000810155 -4.59142e-06 8.79197e-08)
(0.000806945 -2.90661e-06 8.6517e-08)
(0.000804162 -1.74248e-06 4.79011e-08)
(0.00080179 -1.05618e-06 3.3926e-08)
(0.000799863 -6.95711e-07 5.51861e-08)
(0.000797525 -1.27566e-07 5.21051e-08)
(0.00079658 5.9443e-07 9.15427e-08)
(0.000795604 2.38935e-07 5.04204e-08)
(0.000793467 1.61362e-07 6.92506e-08)
(0.000791875 7.85084e-08 6.27416e-08)
(0.000790262 1.15905e-07 6.9045e-08)
(0.000788857 1.0593e-07 5.93026e-08)
(0.0007874 -7.54377e-08 4.0978e-08)
(0.000785941 -2.42712e-07 4.329e-08)
(0.000784685 -2.52375e-07 4.44837e-08)
(0.000783334 -4.11705e-07 8.27782e-08)
(0.000781034 -6.81942e-07 -1.07544e-08)
(0.000779478 -4.71905e-07 5.06338e-08)
(0.000778541 -2.92617e-07 1.68629e-08)
(0.000776981 -1.51564e-07 4.66512e-08)
(0.000775503 -1.46872e-07 5.76555e-08)
(0.000774028 -5.4048e-08 1.09041e-07)
(0.000772694 5.36163e-10 1.23431e-08)
(0.000771309 1.45698e-07 3.77622e-08)
(0.000769909 3.78883e-07 1.18786e-07)
(0.000768644 2.8824e-07 6.97313e-08)
(0.00076744 2.56579e-07 2.59126e-08)
(0.000765959 1.80606e-07 -2.28196e-08)
(0.000764051 1.60667e-07 3.03569e-08)
(0.00076247 1.42655e-08 5.03661e-08)
(0.00076122 5.83013e-08 1.35248e-07)
(0.000759824 -1.39606e-07 4.63549e-08)
(0.000758496 -4.41762e-07 -3.499e-07)
(0.000757319 -5.04237e-07 5.83444e-08)
(0.000756341 -4.22287e-07 2.38683e-07)
(0.000754895 -1.52318e-07 1.86988e-07)
(-0.00646875 -0.00118827 -0.000131645)
(-0.000686489 -0.00050411 -0.000661797)
(-0.00139533 -0.0177156 0.00125497)
(-0.019102 -0.0112537 -0.000655091)
(-0.00101279 0.0139416 0.00166537)
(-0.0115586 0.0291831 -0.00295537)
(0.00188255 -0.00114127 0.000165824)
(0.000609424 2.3589e-06 4.96931e-07)
(0.00100588 5.3927e-06 -1.85245e-06)
(0.000877713 9.00963e-07 -4.37541e-07)
(0.000861134 -1.47452e-06 1.56981e-07)
(0.000838307 -1.39496e-06 2.45847e-08)
(0.000826188 -1.30685e-06 5.30115e-08)
(0.000817701 -8.31289e-07 4.9222e-08)
(0.000811992 -4.06086e-07 4.8108e-08)
(0.000807884 -1.95044e-07 5.12791e-08)
(0.00080481 -1.65331e-07 5.13539e-08)
(0.000802219 -4.14522e-08 7.72286e-08)
(0.000800362 -2.79552e-08 5.79222e-08)
(0.000799214 2.54767e-07 4.41104e-08)
(0.00079664 8.24803e-07 7.4232e-09)
(0.000794265 2.45277e-07 4.39613e-08)
(0.000793186 2.0549e-07 -8.20124e-09)
(0.000791801 8.98303e-08 5.0868e-08)
(0.000790308 1.52388e-07 4.18387e-09)
(0.000788663 1.67806e-07 1.78444e-07)
(0.000787077 -4.04889e-08 4.98797e-08)
(0.000785899 -1.0363e-07 7.13533e-08)
(0.00078425 -4.87127e-07 6.49581e-08)
(0.000782297 -8.59815e-07 1.81618e-08)
(0.000781514 -7.85553e-07 1.37899e-07)
(0.000780304 -2.10552e-07 9.85485e-08)
(0.000778551 -1.63067e-07 3.88775e-08)
(0.00077711 -1.36514e-07 3.11385e-08)
(0.000775681 -1.4881e-07 3.64032e-08)
(0.000774279 -1.96131e-08 5.57011e-08)
(0.000772893 7.45029e-09 4.24032e-08)
(0.000771363 -3.06016e-08 3.59331e-08)
(0.000769758 1.15726e-07 4.53783e-08)
(0.000768586 2.71234e-07 1.4621e-08)
(0.00076732 1.72212e-08 4.83873e-08)
(0.00076569 -2.20367e-07 4.72332e-09)
(0.000764103 -2.83584e-07 3.6195e-08)
(0.000762698 -1.31667e-07 4.92966e-08)
(0.000761221 -9.50173e-08 2.74931e-09)
(0.000759575 -7.15271e-10 4.80022e-08)
(0.0007584 -1.62804e-08 -1.29079e-07)
(0.000757522 -2.69571e-07 6.50967e-08)
(0.000756371 -1.37918e-07 1.27836e-07)
(0.000754961 -3.09802e-07 7.77561e-08)
(-0.00419403 -0.0064596 0.0013361)
(0.0567427 -0.0612085 -0.00076536)
(-0.0230618 0.00461841 0.000536173)
(0.0201026 0.00518401 -0.00546448)
(-0.0327546 -0.00354043 -0.000142992)
(-0.0027416 0.00218904 -0.00023466)
(0.001637 -0.000143181 -3.85295e-05)
(0.000576447 6.89497e-05 9.24568e-07)
(0.000951159 5.13701e-05 -1.36293e-06)
(0.000855117 3.96245e-05 -3.9553e-07)
(0.000848842 2.26556e-05 1.77958e-07)
(0.000832272 1.4214e-05 3.76637e-08)
(0.000822854 8.72187e-06 5.84244e-08)
(0.000815826 5.40632e-06 4.92156e-08)
(0.000810942 3.39737e-06 4.84596e-08)
(0.00080724 2.17439e-06 4.97921e-08)
(0.00080435 1.51357e-06 1.54258e-07)
(0.000801959 1.13366e-06 7.00782e-08)
(0.000800231 1.06912e-06 1.12373e-07)
(0.000798588 3.94902e-07 1.01181e-07)
(0.000796565 -2.69818e-07 4.57507e-08)
(0.000794828 5.96127e-08 5.47322e-08)
(0.000793272 4.58254e-08 4.62016e-08)
(0.000791808 3.31337e-08 4.80819e-08)
(0.000790359 -2.17384e-07 5.62522e-08)
(0.000788616 -2.53453e-07 5.52974e-08)
(0.000787061 -4.9178e-08 -2.30741e-09)
(0.000785386 5.72503e-08 1.00373e-07)
(0.000783745 -1.68363e-07 3.23928e-08)
(0.000782968 3.26738e-07 7.28636e-08)
(0.000781851 4.8977e-07 8.96751e-08)
(0.000780259 2.01786e-07 5.05143e-08)
(0.000778635 3.10094e-07 4.7707e-08)
(0.000777 1.09669e-07 4.93596e-08)
(0.00077565 3.73228e-08 4.0304e-08)
(0.000774224 -2.83122e-07 2.55909e-08)
(0.00077268 -1.45103e-07 4.583e-08)
(0.000771444 -2.51985e-07 2.44517e-08)
(0.000770285 4.81848e-08 4.15784e-08)
(0.00076852 1.13676e-07 7.48455e-08)
(0.000766825 -8.55108e-08 1.53083e-08)
(0.000765585 -1.30432e-07 4.79393e-08)
(0.000764164 -1.62313e-07 5.18235e-08)
(0.000762707 -1.33402e-07 4.92892e-08)
(0.000761385 -6.75024e-08 5.63153e-08)
(0.000759924 1.00947e-07 4.5445e-08)
(0.000758161 4.54359e-07 5.40481e-08)
(0.000757169 5.88398e-07 6.95089e-08)
(0.000756299 1.90321e-07 4.28586e-08)
(0.000755454 -5.3875e-08 9.78442e-08)
(0.0337065 0.00908014 -0.00915898)
(-0.0300116 0.0114356 -0.00185321)
(0.00942741 -0.00386469 -0.00622559)
(-0.0104523 -0.0143372 0.000664243)
(-0.00571488 -0.00751983 0.000166859)
(-0.0248227 0.0231527 -0.00175296)
(0.000480874 0.000176668 3.72749e-05)
(0.000924857 0.000184182 -2.12985e-06)
(0.00085413 8.27369e-05 -3.86735e-07)
(0.000841203 6.0833e-05 -4.99097e-09)
(0.000829128 3.74482e-05 3.90335e-08)
(0.000820743 2.40888e-05 2.97199e-08)
(0.000815086 1.51468e-05 4.28746e-08)
(0.000810988 9.29531e-06 4.90503e-08)
(0.000807916 5.97717e-06 5.08848e-08)
(0.000805506 3.87477e-06 5.88053e-08)
(0.000803493 2.52002e-06 -6.83722e-09)
(0.000801652 1.66737e-06 7.30256e-08)
(0.000799431 1.26774e-06 2.52329e-08)
(0.000797536 7.38153e-07 5.55526e-08)
(0.00079622 3.7327e-07 5.14185e-08)
(0.00079466 1.63928e-07 4.89872e-08)
(0.000793153 3.85763e-08 5.34062e-08)
(0.000791474 -5.42736e-08 5.08833e-08)
(0.000789952 -1.55476e-07 3.71897e-08)
(0.000788875 -2.8836e-07 6.28897e-08)
(0.000787467 -1.10401e-07 2.0162e-08)
(0.000785752 -3.93314e-08 4.61601e-08)
(0.000784587 1.44781e-07 1.00565e-07)
(0.000783118 5.51677e-07 3.80239e-08)
(0.000781355 4.46207e-07 1.75052e-07)
(0.000780076 2.37823e-07 6.81027e-08)
(0.000778434 2.52897e-08 8.85378e-08)
(0.000776768 -7.24581e-08 5.83583e-08)
(0.000775191 -4.79682e-08 2.80222e-08)
(0.000774052 -2.76499e-08 4.62076e-09)
(0.000772934 -4.99392e-08 6.3272e-08)
(0.000771605 -2.58718e-08 5.69203e-08)
(0.000770215 -3.56152e-07 8.33045e-08)
(0.000768419 -5.64982e-07 3.76181e-08)
(0.000767015 -2.27954e-07 4.60242e-08)
(0.000765596 -1.517e-07 -2.29594e-08)
(0.000764101 -2.82706e-08 4.4226e-08)
(0.000762818 8.71381e-08 4.25055e-08)
(0.000761514 1.61499e-07 5.3701e-08)
(0.000760226 2.06392e-07 1.92845e-08)
(0.000759006 4.39416e-07 7.67312e-08)
(0.000757188 9.91476e-07 2.74515e-08)
(0.000755567 6.75904e-07 -9.41215e-08)
(0.000754788 3.66039e-07 8.92899e-08)
(0.00501748 0.000961593 1.77322e-05)
(-0.0271208 0.00996574 -0.000414772)
(-0.00495491 0.00940004 0.00130601)
(0.00109002 0.00332451 0.000815106)
(-0.0197004 0.0113027 -0.00158524)
(-0.00414517 -0.00395992 -0.000240311)
(0.000363262 0.000126496 6.73675e-07)
(0.000775563 0.000155574 -2.8719e-06)
(0.000792845 0.000101399 2.06692e-07)
(0.000798059 6.4417e-05 2.43184e-08)
(0.000802582 4.07251e-05 9.976e-08)
(0.000804191 2.55766e-05 1.81941e-07)
(0.000804233 1.60906e-05 5.47068e-08)
(0.000804284 1.04342e-05 7.3297e-08)
(0.000804116 6.46823e-06 4.47332e-08)
(0.000802886 4.08446e-06 8.98692e-08)
(0.00080157 2.40669e-06 4.73796e-08)
(0.00080038 1.36117e-06 2.47762e-07)
(0.000799061 6.0083e-07 7.17792e-08)
(0.000797464 3.53393e-07 1.45916e-08)
(0.000795844 1.79997e-07 2.2571e-08)
(0.000794408 1.29839e-07 5.14885e-08)
(0.000792999 -1.58969e-08 5.46603e-08)
(0.000791567 1.18143e-08 4.79385e-08)
(0.000790068 8.14782e-08 7.19483e-08)
(0.000788675 1.53218e-08 -2.37644e-09)
(0.000787375 1.18446e-08 1.36686e-07)
(0.000785705 1.14447e-07 4.59373e-08)
(0.000784482 4.54444e-07 -2.74094e-08)
(0.000783342 -1.1497e-07 9.67616e-08)
(0.000781455 -1.76335e-07 8.69032e-08)
(0.000779731 -2.42073e-07 2.1861e-08)
(0.000778247 -5.80771e-07 2.08735e-08)
(0.00077691 -3.78916e-07 2.31329e-08)
(0.000775707 -1.11114e-07 3.5682e-08)
(0.000774222 2.58604e-07 3.53242e-08)
(0.000772684 2.48463e-08 4.413e-08)
(0.000771063 -4.20613e-08 4.75139e-08)
(0.000769614 -3.47385e-07 1.12395e-08)
(0.000768684 -4.82e-07 6.18427e-08)
(0.000767344 -2.38652e-07 6.31111e-08)
(0.000765835 -1.94713e-07 2.45324e-08)
(0.000764463 -9.7916e-08 3.95842e-08)
(0.000762943 1.5025e-07 6.24634e-08)
(0.000761533 1.15318e-07 -3.13317e-08)
(0.000760268 1.58601e-07 4.98142e-08)
(0.000759138 5.83151e-09 1.65317e-08)
(0.000757458 -2.96207e-08 2.56147e-08)
(0.000755503 2.90882e-07 -2.11477e-08)
(0.000754155 2.18858e-07 6.7667e-08)
(0.011509 0.00976962 -0.00482754)
(0.0190828 -0.0190556 -0.00521887)
(0.0206146 0.0395155 0.000565879)
(0.0151783 0.0126087 -0.0101116)
(-0.00266774 -0.0149297 0.00189108)
(-0.00485283 0.0163359 -0.000495163)
(0.00112941 0.000371734 -7.25824e-06)
(0.00120441 0.000149833 2.96787e-07)
(0.00123298 9.83926e-05 3.04504e-07)
(0.00127521 6.28764e-05 3.34436e-07)
(0.00130019 4.03265e-05 3.64723e-07)
(0.00131539 2.51518e-05 2.32154e-07)
(0.00132542 1.57741e-05 2.57422e-07)
(0.0013299 1.03365e-05 3.69495e-07)
(0.00133143 6.27327e-06 2.38168e-07)
(0.00133201 3.66422e-06 2.7599e-07)
(0.00133135 2.27285e-06 3.34825e-07)
(0.00133013 1.42293e-06 3.61031e-07)
(0.001328 7.27165e-07 1.67852e-07)
(0.00132593 2.06377e-07 3.08074e-07)
(0.00132416 8.21457e-08 3.15775e-07)
(0.00132162 1.94059e-07 3.79961e-07)
(0.00131917 2.3424e-07 4.13794e-07)
(0.00131683 2.97059e-07 2.87101e-07)
(0.0013141 4.99436e-07 2.72665e-07)
(0.001312 8.27246e-07 3.11332e-07)
(0.00130995 4.59678e-07 2.70892e-07)
(0.00130785 2.4318e-07 3.30266e-07)
(0.00130451 4.98928e-07 3.68382e-07)
(0.00130122 -3.92854e-07 3.36268e-07)
(0.00129927 -1.10686e-06 2.31638e-07)
(0.00129651 -9.07872e-07 9.77075e-08)
(0.00129434 -6.95191e-07 3.37225e-07)
(0.00129285 -1.66914e-07 3.96214e-07)
(0.00129058 1.70551e-07 3.15651e-07)
(0.00128761 9.61937e-08 3.19172e-07)
(0.00128476 6.2298e-08 3.09453e-07)
(0.00128232 2.50638e-07 2.91683e-07)
(0.00127998 6.61809e-07 2.12021e-07)
(0.00127814 7.30318e-07 4.6265e-07)
(0.00127605 1.61014e-07 2.83756e-07)
(0.0012734 -1.62532e-08 3.50202e-07)
(0.00127146 -4.57283e-07 3.72233e-07)
(0.00126895 -4.49547e-07 6.80367e-07)
(0.00126628 -2.54431e-07 3.40666e-07)
(0.00126393 -2.95394e-07 3.3963e-07)
(0.00126171 -3.83219e-07 2.98496e-07)
(0.00125972 -7.47477e-07 3.06376e-07)
(0.0012569 -5.42937e-07 2.0756e-07)
(0.00125401 -4.03519e-07 3.41934e-07)
(-0.01294 -0.00689055 0.00721009)
(0.040237 -0.0291273 -0.00959534)
(-0.00778814 -0.00909465 0.00323409)
(0.00413774 -0.010526 -0.000706723)
(-0.00502834 0.0121901 0.000246163)
(0.00536845 0.00073647 0.000425703)
(0.000976486 4.1278e-05 1.56374e-06)
(0.0011552 2.97416e-05 3.06253e-07)
(0.00120479 4.49815e-05 3.33371e-07)
(0.00125146 1.27127e-05 6.34209e-07)
(0.0012859 8.26326e-06 3.22396e-07)
(0.00130597 4.06211e-06 3.25737e-07)
(0.00131877 2.19556e-06 3.29585e-07)
(0.00132579 7.07052e-07 3.30736e-07)
(0.00132921 4.0658e-07 3.31615e-07)
(0.00133067 5.77545e-08 2.75072e-07)
(0.00133074 -1.46913e-08 3.32354e-07)
(0.00132963 -2.85688e-07 3.75847e-07)
(0.00132784 -1.56413e-07 5.15975e-07)
(0.0013259 1.23994e-07 3.01828e-07)
(0.00132389 2.61861e-07 1.20548e-07)
(0.00132165 6.64877e-08 3.60615e-07)
(0.0013193 4.94411e-07 7.90375e-07)
(0.00131707 3.13268e-07 3.03599e-07)
(0.00131484 5.31608e-07 1.22886e-07)
(0.00131184 4.39968e-07 3.21051e-07)
(0.001309 8.73492e-08 2.97902e-07)
(0.00130694 -3.09882e-07 3.2692e-07)
(0.00130404 -1.46151e-06 3.79586e-07)
(0.0013009 -8.17636e-07 -5.62641e-10)
(0.00129908 -6.51634e-07 3.59525e-07)
(0.00129729 -3.72419e-07 2.94399e-07)
(0.00129519 7.56412e-07 6.80193e-07)
(0.00129313 8.89648e-07 8.3347e-07)
(0.00129035 2.3474e-07 3.37664e-07)
(0.00128748 5.13617e-08 2.54777e-07)
(0.00128523 2.3901e-07 3.09295e-07)
(0.00128301 3.72016e-07 3.64232e-07)
(0.00128049 6.35008e-07 3.14051e-07)
(0.00127768 7.81926e-07 2.71888e-07)
(0.00127507 1.6041e-07 3.32315e-07)
(0.00127277 -2.6582e-07 3.62885e-07)
(0.00127066 -8.03549e-07 2.42127e-07)
(0.00126894 -6.5457e-07 3.88082e-07)
(0.0012666 -2.34813e-07 3.49489e-07)
(0.00126403 -2.49987e-07 3.31314e-07)
(0.00126172 1.35147e-07 4.07919e-07)
(0.00125941 -1.71097e-07 2.68159e-07)
(0.00125685 -5.00389e-07 3.60498e-07)
(0.00125517 -3.77776e-07 2.19441e-07)
(-0.00442088 0.0298961 0.00540972)
(-0.0924899 -0.181504 0.00874094)
(-0.0354771 0.0236104 0.0234292)
(0.0191317 0.00433411 0.00359092)
(0.000853067 0.00463059 0.000955978)
(0.00111176 -0.00501984 -0.000536265)
(0.000811434 0.000106043 5.62638e-05)
(0.00101206 -4.48371e-05 8.30634e-07)
(0.00126357 -5.28473e-05 -3.22677e-07)
(0.00122971 -5.00302e-05 3.04596e-07)
(0.00128949 -3.10117e-05 3.21719e-07)
(0.00130788 -2.06778e-05 3.25869e-07)
(0.00132127 -1.32671e-05 3.38892e-07)
(0.00132769 -8.54737e-06 3.31921e-07)
(0.00133064 -5.40979e-06 3.32717e-07)
(0.0013315 -3.38651e-06 3.31866e-07)
(0.00133094 -2.24855e-06 3.34336e-07)
(0.00132996 -1.52705e-06 2.18588e-07)
(0.00132852 -1.2992e-06 2.21785e-07)
(0.00132646 -7.42145e-07 3.20162e-07)
(0.00132409 -6.41758e-07 2.43728e-07)
(0.00132191 -3.73532e-07 3.28509e-07)
(0.00131947 -3.20311e-07 3.78741e-07)
(0.00131687 -3.14373e-07 6.59911e-08)
(0.00131426 -5.39984e-07 3.79267e-07)
(0.00131145 -3.82532e-07 4.0483e-07)
(0.00130901 -2.64725e-07 2.73721e-07)
(0.00130592 -1.73148e-07 3.2471e-07)
(0.00130388 -1.73912e-07 7.39491e-08)
(0.00130225 7.44922e-07 2.9612e-07)
(0.00129983 1.2882e-06 3.2725e-07)
(0.00129827 1.20032e-06 3.31492e-07)
(0.00129591 8.12474e-07 8.21385e-07)
(0.00129219 4.87059e-07 4.30049e-07)
(0.00128953 5.30118e-08 3.52989e-07)
(0.00128762 1.17355e-07 3.32503e-07)
(0.00128516 1.87261e-07 2.80414e-07)
(0.00128281 9.71924e-08 3.29972e-07)
(0.00128048 2.4673e-07 3.27135e-07)
(0.00127754 3.18793e-08 4.19851e-07)
(0.00127474 2.33866e-10 1.32648e-07)
(0.00127219 -1.93535e-08 2.738e-07)
(0.00127098 8.40359e-07 2.88098e-07)
(0.00126967 4.76189e-07 2.76087e-07)
(0.00126679 2.33098e-07 3.50536e-07)
(0.00126439 3.1871e-07 3.13374e-07)
(0.00126181 5.34493e-07 3.74514e-07)
(0.00125893 3.09933e-07 1.4734e-07)
(0.00125665 1.54287e-07 2.71325e-07)
(0.0012551 1.41564e-07 2.95677e-07)
(0.00178407 0.00440714 0.00127907)
(-0.00600795 -0.0252085 0.00899535)
(-0.00580611 0.0165772 -0.00130508)
(0.00366515 -0.00281772 -0.0046577)
(0.00113702 -0.00651267 -0.000934631)
(-0.00820705 0.0135466 -0.00323854)
(-9.14294e-05 -0.0048023 -0.000263393)
(0.00108866 -0.000258932 -3.99394e-07)
(0.0013491 -0.000165779 2.71334e-07)
(0.00127962 -0.000104195 2.57796e-07)
(0.00132297 -6.3717e-05 3.28679e-07)
(0.00132839 -3.9329e-05 2.01587e-08)
(0.00133409 -2.46721e-05 3.3097e-07)
(0.00133571 -1.52179e-05 3.33946e-07)
(0.00133572 -9.24625e-06 3.33528e-07)
(0.00133466 -5.66458e-06 3.32934e-07)
(0.00133309 -3.62362e-06 3.35072e-07)
(0.00133084 -2.10793e-06 2.69256e-07)
(0.00132883 -1.48646e-06 3.41041e-07)
(0.00132673 -1.17307e-06 2.95026e-07)
(0.00132436 -1.03816e-06 2.79534e-07)
(0.00132206 -7.53839e-07 3.31526e-07)
(0.00131938 -7.9999e-07 3.30235e-07)
(0.00131679 -4.79725e-07 3.50281e-07)
(0.00131476 -5.03102e-07 2.78382e-07)
(0.00131219 -2.3769e-07 2.59642e-07)
(0.00130926 1.54078e-07 3.89706e-07)
(0.00130705 5.01206e-07 4.2534e-07)
(0.00130519 1.48773e-06 2.97165e-07)
(0.00130272 1.20359e-06 4.82788e-07)
(0.00129964 1.28815e-06 3.0783e-07)
(0.00129668 1.27806e-06 1.88575e-07)
(0.00129429 2.7079e-07 3.30491e-07)
(0.00129218 -1.22497e-07 3.23557e-07)
(0.00128989 1.69498e-07 2.94265e-07)
(0.00128765 7.40207e-08 3.34745e-07)
(0.0012852 -4.78593e-08 3.11559e-07)
(0.00128309 -1.18374e-07 3.49593e-07)
(0.00128041 -6.88881e-07 1.78443e-07)
(0.00127737 -6.61173e-07 3.36789e-07)
(0.001275 -4.49556e-08 2.55246e-07)
(0.00127382 5.39339e-07 3.38712e-07)
(0.00127127 1.02699e-06 3.64399e-07)
(0.00126817 5.97288e-07 2.12312e-07)
(0.0012664 1.01491e-07 2.78396e-07)
(0.0012644 5.70796e-08 3.15598e-07)
(0.0012617 -1.05651e-07 3.84443e-07)
(0.00125893 1.24441e-07 2.12964e-07)
(0.00125663 4.0409e-07 3.10433e-07)
(0.0012548 3.64903e-07 2.45811e-07)
(0.0118123 0.000987347 0.000257618)
(-0.0139018 -0.00643879 -0.00220733)
(0.0026904 0.000710304 -0.00193246)
(-0.0044373 0.0053771 0.00184874)
(0.00818114 0.00436912 0.0044182)
(-0.000146191 0.000669686 -0.00672851)
(0.000878866 -0.00495121 5.61744e-05)
(0.00126282 -0.000376092 6.86286e-07)
(0.00148964 -0.000190238 5.95781e-07)
(0.00135882 -0.000114987 2.76561e-07)
(0.00137109 -6.90494e-05 3.60442e-07)
(0.00135701 -4.22836e-05 3.47638e-07)
(0.00135161 -2.5599e-05 3.07269e-07)
(0.0013471 -1.59732e-05 3.35987e-07)
(0.00134266 -1.01737e-05 2.7578e-07)
(0.00133858 -6.42045e-06 1.67873e-07)
(0.00133541 -3.9583e-06 3.3301e-07)
(0.00133265 -2.61501e-06 3.21591e-07)
(0.0013297 -1.47636e-06 3.00241e-07)
(0.00132703 -1.05983e-06 3.64515e-07)
(0.00132462 -1.29784e-06 3.64887e-07)
(0.00132222 -4.10592e-07 2.9708e-07)
(0.00131982 -2.20986e-07 3.04644e-07)
(0.00131725 2.76627e-08 3.63072e-07)
(0.00131456 1.44059e-07 2.61317e-07)
(0.00131227 -1.79845e-07 3.57869e-07)
(0.00130993 1.27365e-07 3.80882e-07)
(0.00130757 2.55451e-07 2.80768e-07)
(0.00130475 3.4295e-07 2.67463e-07)
(0.00130198 2.36541e-07 2.96691e-07)
(0.00129991 3.54096e-07 3.48173e-07)
(0.00129699 -3.36525e-07 3.11947e-07)
(0.00129415 1.80255e-07 3.26839e-07)
(0.00129206 1.01787e-07 3.25232e-07)
(0.00128978 1.77066e-07 3.32679e-07)
(0.00128734 -6.55081e-08 3.20513e-07)
(0.00128492 -1.84806e-07 3.33915e-07)
(0.00128201 -2.41433e-07 3.18972e-07)
(0.00127981 -4.97403e-07 4.76348e-07)
(0.00127835 -3.12608e-07 3.13486e-07)
(0.00127624 1.81544e-07 3.22161e-07)
(0.00127353 6.48785e-07 5.24455e-07)
(0.00127104 1.00859e-07 3.0078e-07)
(0.0012685 1.08088e-07 -3.72993e-08)
(0.00126611 -9.32747e-08 4.40699e-07)
(0.00126413 -3.5298e-07 3.15493e-07)
(0.00126189 -8.57491e-07 9.81131e-08)
(0.00125956 -7.54228e-07 -3.91063e-09)
(0.00125694 -4.74098e-07 3.19383e-07)
(0.00125415 1.55031e-07 4.02774e-07)
(0.0019086 -0.00161792 -0.000300861)
(0.00037736 -0.00146442 0.00130918)
(-0.00417981 0.00130654 -0.0129424)
(-0.00201946 -0.117109 0.0510259)
(0.0159415 -0.0105755 0.0037237)
(-0.0650665 -0.0104348 -0.000481064)
(0.00212213 -0.00409724 -8.41409e-05)
(0.00163345 -0.000310498 2.78341e-06)
(0.00163043 -0.000115878 6.00801e-07)
(0.00143225 -7.07432e-05 3.46421e-07)
(0.0014143 -4.3272e-05 3.12279e-07)
(0.00138298 -2.67318e-05 3.29187e-07)
(0.00136715 -1.61699e-05 3.9266e-07)
(0.0013551 -1.01745e-05 3.38107e-07)
(0.00134773 -6.54671e-06 3.4713e-07)
(0.00134247 -4.15758e-06 3.93749e-07)
(0.00133788 -2.48446e-06 3.34612e-07)
(0.00133396 -1.50162e-06 3.05112e-07)
(0.00133079 -9.91419e-07 3.50052e-07)
(0.00132696 -1.19126e-07 3.62583e-07)
(0.00132517 9.04166e-07 3.01536e-07)
(0.00132341 3.92863e-07 3.22367e-07)
(0.00131993 2.84765e-07 3.22624e-07)
(0.00131725 1.3153e-07 3.45656e-07)