/*--------------------------------*- C++ -*----------------------------------*\
| =========                 |                                                 |
| \\      /  F ield         | OpenFOAM: The Open Source CFD Toolbox           |
|  \\    /   O peration     | Version:  5.0                                   |
|   \\  /    A nd           | Web:      www.OpenFOAM.org                      |
|    \\/     M anipulation  |                                                 |
\*---------------------------------------------------------------------------*/
FoamFile
{
    version     2.0;
    format      ascii;
    class       surfaceVectorField;
    location    "1.9";
    object      Uf;
}
// * * * * * * * * * * * * * * * * * * * * * * * * * * * * * * * * * * * * * //

dimensions      [0 1 -1 0 0 0 0];

internalField   nonuniform List<vector> 
27883
(
(0.00203428 0.0010699 -0.000195559)
(0.00845767 0.00638443 -9.20906e-05)
(0.000435808 0.00149069 -1.87251e-05)
(0.00687175 -0.001796 0.000227389)
(0.00699717 -0.00371166 -5.0922e-05)
(0.00662539 -0.0275298 -0.000910099)
(-0.00193888 -0.0106695 0.000199969)
(0.00495251 -0.0148647 0.000805156)
(0.00363754 -0.0176247 -4.78402e-05)
(0.00511302 -0.0233425 -0.000213362)
(-0.00349638 0.0157098 -0.000193264)
(-0.00480322 0.00437813 -0.000400894)
(0.00113049 -0.000168112 0.000280214)
(0.00634945 0.0143624 0.000156907)
(0.0102648 -0.0103411 -0.000195948)
(0.00145041 0.000419217 5.55909e-05)
(0.00574805 0.00846885 2.67314e-05)
(0.0105394 0.0100071 3.80814e-06)
(-0.000909859 -0.00439367 0.000533653)
(0.0215862 -0.00410979 5.51205e-05)
(0.0096312 -0.0177053 0.00126316)
(0.00765677 -0.0113964 -1.25081e-05)
(-0.00239058 -0.000187372 0.000122036)
(-0.00105309 -0.000515701 8.07386e-07)
(-0.00217324 0.00143254 -0.000128179)
(-0.00506109 0.00284661 -8.7463e-05)
(0.000445705 -2.25862e-05 7.63114e-06)
(0.000481454 -3.38498e-05 -1.58056e-06)
(0.00053344 -5.75258e-05 3.04777e-07)
(0.000832132 -5.6769e-06 4.01241e-06)
(0.000277133 -3.52136e-05 2.36714e-05)
(0.000816479 -2.95216e-05 2.78167e-05)
(0.000427911 -6.32787e-05 5.01198e-05)
(0.000816045 -2.19652e-05 -1.05628e-06)
(0.000854932 -2.26801e-05 -2.24604e-06)
(0.0011214 -2.98494e-05 -1.48423e-06)
(0.000591532 -4.39136e-05 -4.02629e-06)
(0.000624009 -3.0162e-05 -3.8086e-06)
(0.000977618 -6.46469e-05 -4.30952e-06)
(0.00104264 -4.24238e-05 -4.52844e-06)
(0.00079814 -1.01414e-05 6.59842e-08)
(0.000810894 -2.70633e-07 -3.28474e-08)
(0.00106447 -1.18641e-05 1.33379e-07)
(0.000789454 -4.79867e-06 8.04987e-08)
(0.000795864 -1.89541e-06 3.87859e-08)
(0.00105585 -5.02131e-06 1.91469e-07)
(0.000783087 -2.24936e-06 8.01365e-08)
(0.000787301 -3.17489e-07 6.51851e-08)
(0.00104777 -1.61505e-06 1.79308e-07)
(0.000779415 -1.13002e-06 3.44624e-08)
(0.000781535 -7.34219e-08 5.65756e-08)
(0.00104241 -6.42203e-07 1.71733e-07)
(0.000776995 -3.2746e-07 1.9164e-08)
(0.00077823 1.88359e-08 2.35227e-08)
(0.00103959 -1.07145e-07 1.80047e-07)
(0.000773568 4.17882e-08 4.86364e-08)
(0.00077524 -2.69877e-07 4.27928e-08)
(0.00103617 5.93771e-07 1.59333e-07)
(0.000771552 -6.61751e-08 1.2824e-07)
(0.000772576 -1.42375e-07 5.30197e-08)
(0.00103278 3.33253e-07 1.86967e-07)
(0.000769578 -6.10079e-08 1.26458e-07)
(0.000770635 9.9743e-07 1.30689e-07)
(0.00103043 -1.90745e-10 1.54317e-07)
(0.000768075 1.08976e-07 5.9277e-08)
(0.00076886 -1.17666e-07 5.2056e-08)
(0.00102824 1.47771e-07 1.77322e-07)
(0.000765876 1.18302e-07 4.49288e-08)
(0.000767031 -2.31716e-07 5.40174e-08)
(0.00102596 3.0704e-07 1.71875e-07)
(0.000764066 -1.00766e-07 6.9763e-08)
(0.000765134 3.47458e-07 5.53558e-08)
(0.00102326 9.38552e-08 1.22046e-07)
(0.000762415 -3.33246e-07 9.4389e-08)
(0.000763399 4.54889e-08 7.15961e-08)
(0.00102095 -2.98925e-07 1.82811e-07)
(0.000761648 -2.2049e-07 6.21244e-08)
(0.00076208 3.75502e-07 9.05177e-08)
(0.00101951 -4.93239e-07 1.55248e-07)
(0.000759898 3.60632e-09 2.94628e-08)
(0.00076067 3.11308e-07 5.99272e-08)
(0.00101779 1.84082e-08 1.43307e-07)
(0.000758096 7.0874e-08 2.63537e-08)
(0.000758934 3.46908e-07 1.27808e-08)
(0.00101536 8.39981e-08 1.53794e-07)
(0.000756504 1.68805e-07 3.57949e-08)
(0.000757346 -8.35418e-08 9.72767e-08)
(0.00101323 1.82628e-07 1.82156e-07)
(0.000754731 1.8673e-07 3.21289e-08)
(0.000755691 -4.84659e-07 3.261e-08)
(0.00101093 3.48599e-07 2.03846e-07)
(0.000753453 1.27695e-07 3.73047e-08)
(0.000754063 3.4084e-07 5.28982e-08)
(0.00100892 2.74781e-07 1.38195e-07)
(0.000752024 9.80344e-08 4.24198e-08)
(0.000752617 2.9245e-07 6.01621e-08)
(0.00100717 1.87882e-07 1.30919e-07)
(0.000750457 1.54763e-07 5.9072e-08)
(0.000751237 4.21036e-08 4.55654e-08)
(0.00100532 1.2509e-07 1.71909e-07)
(0.000748931 2.96295e-08 5.5769e-08)
(0.000749557 -2.02689e-07 6.41109e-08)
(0.0010031 2.9502e-07 1.04686e-07)
(0.000747549 -3.05794e-07 5.62197e-08)
(0.000747938 -3.07828e-07 5.83391e-08)
(0.00100105 -2.51425e-07 1.69422e-07)
(0.000745646 -4.70367e-07 4.85729e-08)
(0.000746569 -7.28968e-07 -3.15071e-08)
(0.000999028 -6.61514e-07 3.53964e-07)
(0.000744376 -4.29676e-07 5.25172e-08)
(0.000745071 -6.12419e-07 2.24239e-08)
(0.000996779 -6.76148e-07 3.07851e-07)
(0.000742752 -1.63336e-07 8.27788e-08)
(0.000743848 -1.11068e-07 1.08222e-07)
(0.000994873 -4.92051e-07 1.72217e-07)
(0.000742216 1.02588e-07 6.08555e-08)
(0.000742742 -2.23111e-06 8.76946e-08)
(0.000993626 4.19523e-08 2.41363e-07)
(0.000740589 2.17486e-07 4.56702e-08)
(0.000741339 1.60236e-07 3.80561e-08)
(0.000992212 2.34309e-07 1.5216e-07)
(0.000738886 2.61695e-07 5.06603e-08)
(0.000739732 4.56112e-08 5.00594e-08)
(0.000989882 3.65817e-07 1.31329e-07)
(0.000737112 2.95873e-07 2.84883e-08)
(0.000738195 2.47571e-07 5.46921e-08)
(0.00098753 3.24095e-07 1.74726e-07)
(0.000735516 4.99128e-07 6.06319e-08)
(0.000736781 4.72717e-07 6.21883e-09)
(0.000985198 4.44984e-07 1.40934e-07)
(0.000735517 4.377e-07 8.88187e-08)
(0.00073548 -3.25362e-06 5.74488e-08)
(0.000984205 8.70085e-07 2.44418e-07)
(0.000733642 1.28256e-07 4.46075e-08)
(0.000734155 4.04867e-07 7.8772e-08)
(0.000983079 3.26381e-07 1.71737e-07)
(0.000732147 4.04882e-09 4.53715e-08)
(0.000732707 1.28109e-07 3.73637e-08)
(0.000980745 6.7697e-08 1.63333e-07)
(0.000730867 -3.71568e-07 7.7876e-08)
(0.000731169 4.90986e-08 6.40276e-08)
(0.000978777 -3.83123e-08 1.50282e-07)
(0.00073016 -6.4739e-07 4.19355e-08)
(0.000730123 1.77052e-06 8.09677e-08)
(0.000977719 -9.01295e-07 1.55543e-07)
(0.0007278 -4.36821e-07 1.60469e-08)
(0.000729069 2.55361e-06 4.35887e-08)
(0.000975568 -7.35488e-07 7.20664e-08)
(0.000726449 -1.56493e-07 4.71544e-08)
(0.000727563 -2.59408e-07 2.9616e-08)
(0.000973016 -3.81365e-07 1.68822e-07)
(0.00072536 3.49387e-08 5.61925e-08)
(0.000726138 -1.23621e-06 3.60158e-08)
(0.000971445 -6.87413e-08 2.18002e-07)
(0.00072458 1.16429e-09 4.57969e-08)
(0.00072487 -8.2825e-07 5.43465e-08)
(0.00097013 8.90666e-08 1.60098e-07)
(0.000723032 -2.29441e-07 4.07169e-08)
(0.000723622 1.99443e-07 4.35685e-08)
(0.000968746 -1.57195e-07 1.68615e-07)
(0.000721365 -3.40822e-07 2.50032e-08)
(0.000722129 -3.06492e-07 -1.68952e-08)
(0.000966448 -4.89467e-07 2.02722e-07)
(0.000720899 8.99481e-07 5.67019e-08)
(0.000964374 -4.11372e-07 1.01674e-07)
(-0.0227113 -0.014561 0.00401144)
(-0.0202079 0.00452167 0.00209813)
(-0.0285437 -0.0239276 -0.00113918)
(-0.0161775 -0.0224613 0.000718426)
(-0.0223932 -0.0275937 0.00175768)
(-0.0235059 -0.0164339 0.000114647)
(-0.0299237 -0.00113135 0.00198607)
(-0.0195285 -0.0134268 0.000781489)
(-0.0283985 0.0162148 -0.000150491)
(-0.0260436 -0.0048819 0.000680793)
(0.00654512 -0.00834174 -0.00048567)
(-0.00789362 -0.0135899 0.000331076)
(-0.00186139 -0.0049457 -0.000827239)
(0.0203024 -0.0133378 -0.00127226)
(0.0157998 0.00317614 -0.000292665)
(-0.0125168 0.00245507 0.000823003)
(-0.0100669 0.0157376 1.89614e-05)
(-0.0139287 0.010158 0.000903442)
(-0.0133494 0.00333417 0.000517321)
(-0.00562673 0.00328394 0.000386531)
(0.00414811 0.000253229 -0.000433575)
(-0.00730927 3.84767e-05 0.000349042)
(-0.00120259 -0.003705 6.65031e-05)
(-0.00498075 -0.000201813 -0.000124683)
(0.00496996 -0.00528051 -0.00153453)
(-0.006163 -0.00566139 0.000823285)
(-0.00791542 0.00279736 0.00184725)
(-0.00845568 -0.00990497 0.00824404)
(-0.0136706 -0.00637516 0.00155077)
(-0.0115317 -0.0188487 -0.0014937)
(0.000176969 -0.011207 -0.00825197)
(0.022911 0.00416267 -8.29826e-05)
(0.00420883 -0.00429825 0.000148658)
(0.000602492 0.00284129 8.41701e-05)
(0.000957999 0.00637721 0.000599147)
(0.0102888 0.00297327 -0.000188521)
(0.00240477 -0.000497625 4.19365e-05)
(0.000759433 -0.00610325 1.84689e-05)
(0.00073084 -0.00160974 5.68203e-05)
(0.000896483 -0.0019692 7.92642e-05)
(8.75122e-05 -0.00443155 0.000101492)
(0.000321889 -8.85936e-05 1.37935e-05)
(0.000378685 -3.34147e-05 2.43708e-07)
(0.000327586 -3.33883e-05 1.96917e-06)
(0.000507712 -4.38887e-05 4.22157e-06)
(0.000271926 -2.22578e-05 -1.06078e-06)
(0.000835478 7.40114e-06 -1.22333e-06)
(0.000586145 1.93211e-05 -8.36377e-07)
(0.00112872 -1.17779e-05 -1.69935e-06)
(0.000625822 -1.08255e-05 -4.06415e-06)
(0.000626901 -1.25426e-05 -3.88922e-06)
(0.00105503 -1.58527e-05 -4.30221e-06)
(0.00105289 -2.3544e-05 -4.20815e-06)
(0.000566839 -2.01757e-06 -3.84476e-06)
(0.000961549 2.81716e-05 -4.91857e-07)
(0.000924682 -9.95202e-06 -4.81798e-06)
(0.000804287 1.48371e-05 -6.00692e-08)
(0.000825084 3.79113e-05 -8.27534e-07)
(0.00108171 3.08999e-05 7.44767e-08)
(0.000791863 4.84213e-06 2.34636e-08)
(0.000783411 1.15968e-05 -1.8624e-07)
(0.00105875 7.08103e-06 1.59177e-07)
(0.000784126 2.92886e-06 4.1627e-08)
(0.000784912 7.11504e-06 1.09125e-07)
(0.00104942 4.91079e-06 1.74606e-07)
(0.000779536 1.46685e-06 4.56467e-08)
(0.00077971 3.46712e-06 4.46891e-08)
(0.00104276 2.3136e-06 1.73051e-07)
(0.000776345 6.04255e-07 4.71453e-08)
(0.000777154 1.79279e-06 5.55596e-08)
(0.00103886 1.23636e-06 1.75844e-07)
(0.000773722 1.50811e-07 4.71727e-08)
(0.000774676 8.24378e-07 5.00839e-08)
(0.00103565 1.61252e-07 1.75361e-07)
(0.000771489 5.55297e-08 5.54439e-08)
(0.000772459 4.75467e-07 5.18961e-08)
(0.0010328 1.11084e-07 1.76176e-07)
(0.000769818 2.07853e-10 5.63127e-08)
(0.000770568 4.19625e-07 5.76281e-08)
(0.00103049 -6.29231e-08 2.11425e-07)
(0.000767841 -7.96347e-08 4.67958e-08)
(0.000768762 2.32093e-07 5.28876e-08)
(0.00102827 -1.69236e-08 1.75272e-07)
(0.000766182 -8.83361e-08 6.4444e-08)
(0.000767021 -6.7906e-07 6.20239e-08)
(0.00102593 -2.61028e-07 2.03764e-07)
(0.000764469 7.86884e-08 5.71836e-08)
(0.000765344 -7.50474e-07 6.77634e-08)
(0.00102371 -3.59509e-08 2.54692e-07)
(0.00076282 2.73875e-07 6.77187e-08)
(0.000763643 2.33438e-08 3.41743e-08)
(0.00102152 1.92934e-07 1.75807e-07)
(0.000761305 2.59945e-07 8.83303e-08)
(0.000762062 7.89288e-08 1.57383e-07)
(0.0010195 4.99013e-07 1.84203e-07)
(0.000759711 1.78363e-07 4.32603e-08)
(0.000760567 -3.90216e-09 5.7295e-08)
(0.00101744 1.69149e-07 1.93549e-07)
(0.000758141 1.44471e-07 8.36768e-08)
(0.000758891 2.78162e-07 2.24634e-08)
(0.0010153 3.29632e-07 1.755e-07)
(0.000756566 9.19806e-08 9.41124e-08)
(0.000757279 7.93206e-08 8.59446e-08)
(0.0010133 1.27124e-07 1.60772e-07)
(0.000754919 1.09568e-07 5.33729e-08)
(0.000755712 -1.23215e-07 4.90461e-08)
(0.00101122 2.06504e-07 1.5428e-07)
(0.000753252 3.00798e-08 7.57533e-08)
(0.000753963 1.11317e-07 4.09907e-08)
(0.00100889 1.68628e-07 1.98417e-07)
(0.000751831 -1.07012e-07 6.33123e-08)
(0.000752445 3.56634e-08 6.627e-08)
(0.00100679 -2.13703e-08 1.79654e-07)
(0.000750372 -3.15126e-07 5.05985e-08)
(0.000750978 7.1972e-08 4.87561e-08)
(0.00100503 -2.34324e-07 1.63964e-07)
(0.00074847 -4.01264e-07 6.66828e-08)
(0.000749451 -5.72022e-07 2.87144e-08)
(0.00100273 -6.78612e-07 2.31946e-07)
(0.00074708 -3.13014e-07 -2.93595e-08)
(0.000748051 -1.39692e-07 4.68639e-08)
(0.00100039 -4.90176e-07 1.49682e-07)
(0.000745867 -1.90571e-07 -5.76731e-08)
(0.000746724 2.47887e-07 2.62719e-08)
(0.000998856 -3.90241e-07 7.75788e-08)
(0.000744519 1.88625e-07 7.81019e-08)
(0.000745545 4.37143e-07 5.73886e-08)
(0.000997154 -1.56141e-07 8.50691e-08)
(0.000743858 5.42608e-07 1.13144e-07)
(0.000744289 -2.84617e-06 6.00734e-08)
(0.000995803 6.59743e-07 2.93227e-07)
(0.000741913 4.10139e-07 6.49108e-08)
(0.000742574 -2.29557e-06 4.24212e-08)
(0.000994159 8.19957e-07 2.18359e-07)
(0.000740485 1.4019e-07 4.24416e-08)
(0.000741 2.01317e-07 6.33952e-08)
(0.000991834 2.9002e-07 1.65345e-07)
(0.000739024 1.069e-07 5.40897e-08)
(0.000739689 -1.4345e-07 4.29031e-08)
(0.000989837 8.63922e-08 1.85215e-07)
(0.000737847 2.63322e-07 3.24377e-08)
(0.00073839 1.3839e-07 1.01411e-07)
(0.000988071 2.04228e-07 1.54558e-07)
(0.000736676 5.67974e-07 3.01986e-09)
(0.00073716 8.78622e-08 2.41795e-08)
(0.00098665 5.02706e-07 1.74204e-07)
(0.000734213 5.11578e-07 4.73955e-08)
(0.000735407 -1.06619e-06 1.14589e-08)
(0.000984162 9.87807e-07 1.05723e-07)
(0.000733182 1.65573e-07 7.15409e-08)
(0.000733721 1.1527e-07 6.98874e-08)
(0.000981756 3.95589e-07 1.55365e-07)
(0.000731814 2.04857e-08 5.60116e-08)
(0.000732525 2.01969e-07 6.31738e-08)
(0.000980239 9.5232e-08 1.59709e-07)
(0.000730113 -8.16473e-08 6.71142e-08)
(0.000731041 6.1914e-07 2.42331e-08)
(0.000978122 -4.81314e-08 1.54157e-07)
(0.000729291 -3.96142e-07 8.26324e-08)
(0.000729731 5.95284e-07 1.10497e-07)
(0.000976408 -2.18635e-07 2.01058e-07)
(0.000728811 -3.67391e-07 5.71621e-08)
(0.000729107 2.27322e-07 1.14088e-07)
(0.000975716 -8.54606e-07 2.53792e-07)
(0.000727246 2.52771e-08 1.84755e-08)
(0.000728056 1.72469e-07 4.89185e-08)
(0.000974268 -1.27817e-07 1.52282e-07)
(0.000725545 2.8642e-07 3.41642e-08)
(0.000726464 2.33585e-08 5.29992e-08)
(0.00097206 1.18775e-07 1.04624e-07)
(0.000724026 2.73093e-07 5.21214e-08)
(0.000724854 -1.29731e-06 1.04403e-07)
(0.000969972 5.52284e-07 2.13846e-07)
(0.000722683 1.44015e-08 -1.40253e-08)
(0.000723298 2.81137e-07 6.42642e-08)
(0.000968026 1.20594e-07 1.57696e-07)
(0.000721564 -1.28947e-07 1.47811e-08)
(0.000721952 1.01354e-07 -9.25262e-09)
(0.000966319 -1.33278e-07 1.13476e-07)
(0.000721059 -1.43113e-07 1.14295e-07)
(0.000965067 -2.49401e-07 2.23004e-07)
(-0.00688374 0.0110734 0.000362599)
(-0.00559858 0.00802691 0.00111604)
(-0.00179322 0.00775375 0.00163261)
(0.00195993 -0.00611041 -6.59227e-05)
(-0.0225213 0.0109286 0.000597545)
(-0.0176632 -0.0259502 0.00212834)
(-0.026469 -0.0385288 0.0011691)
(-0.0468549 -0.0274293 0.0072882)
(-0.0653836 -0.0284437 -0.000351512)
(-0.0224677 -0.017685 -0.000806725)
(-0.0167955 -0.0195833 -0.000964536)
(-0.0201039 0.00271157 -0.000812367)
(-0.0547872 -0.02174 -5.79159e-06)
(0.0228802 -0.0134927 -0.00414645)
(0.00416828 0.00736229 -0.00122854)
(-0.00379863 0.00191726 -0.000804653)
(-0.000274629 0.00853041 -0.000839947)
(-0.0168006 0.00743173 -0.00107727)
(0.0112083 0.00704958 3.06045e-06)
(0.00969014 0.00381979 2.15482e-05)
(0.0140736 0.00245856 0.000305374)
(0.0144251 0.00537322 0.000126445)
(0.0188744 0.00172618 0.000341837)
(0.0193821 0.00988836 -0.000476066)
(-0.000889583 -0.00017724 5.46922e-06)
(0.00156723 0.000100331 0.000127077)
(0.0015256 -2.62434e-05 -7.70028e-05)
(-0.000367064 0.00219333 -1.16831e-05)
(-0.000611517 -0.000750948 -0.000156257)
(0.0012102 -1.76004e-05 1.48017e-05)
(0.000485527 -0.000122406 3.35125e-05)
(0.000465337 -0.000142748 3.28861e-05)
(0.000674916 -9.93853e-05 6.96299e-05)
(0.000400775 -6.32483e-05 1.94606e-05)
(0.000485859 2.20441e-05 -2.24131e-07)
(0.000474953 1.55607e-05 -2.50376e-06)
(0.000454458 3.21394e-05 6.62865e-07)
(0.000731563 3.68736e-05 6.8035e-08)
(0.000778253 2.25191e-05 -9.53915e-07)
(0.00082691 2.04868e-05 -1.44477e-06)
(0.00110323 3.78178e-05 -8.63068e-07)
(0.000574497 1.41554e-05 -3.58159e-06)
(0.000571953 2.45563e-05 -4.62588e-06)
(0.000935824 9.0468e-06 -4.55502e-06)
(0.000932037 2.75748e-05 -6.11998e-06)
(0.000779548 8.85019e-06 -1.00675e-07)
(0.000766391 9.20212e-06 -3.9664e-07)
(0.00102351 9.95901e-06 6.94671e-08)
(0.000778502 4.99823e-06 1.12208e-07)
(0.00078014 5.79174e-06 1.71585e-07)
(0.00104183 6.11384e-06 2.01232e-07)
(0.000776909 2.48779e-06 5.45984e-08)
(0.0007766 3.17674e-06 2.05563e-08)
(0.00103783 2.57779e-06 1.78811e-07)
(0.000775113 1.29799e-06 5.85e-08)
(0.000775686 1.75962e-06 6.14669e-08)
(0.00103692 1.203e-06 1.80346e-07)
(0.000773194 6.92773e-07 5.48067e-08)
(0.000773932 1.01032e-06 5.41547e-08)
(0.00103477 4.95921e-07 1.7756e-07)
(0.0007713 4.39097e-07 5.40785e-08)
(0.00077215 6.58861e-07 5.16455e-08)
(0.00103251 2.54846e-07 1.76952e-07)
(0.000769527 2.83057e-07 5.42045e-08)
(0.000770378 4.56101e-07 5.13598e-08)
(0.00103028 2.19675e-07 1.78096e-07)
(0.00076781 2.10878e-07 6.81127e-08)
(0.000768675 2.4214e-07 5.134e-08)
(0.001028 8.40426e-08 1.76154e-07)
(0.000766205 1.20023e-07 6.53414e-08)
(0.00076691 -1.21819e-06 5.60041e-08)
(0.00102594 1.65109e-07 2.0549e-07)
(0.000764458 1.00084e-08 4.47648e-08)
(0.000765208 1.09656e-06 7.63495e-08)
(0.00102383 -8.62296e-08 5.39259e-08)
(0.000762829 -2.33409e-08 1.23799e-07)
(0.000763603 9.48086e-09 3.73324e-08)
(0.00102162 -5.47189e-08 1.73447e-07)
(0.000761312 -4.77582e-08 1.2638e-07)
(0.000762033 -2.8195e-07 1.31814e-07)
(0.00101948 -1.17136e-07 1.88882e-07)
(0.000759852 -9.82618e-08 3.65092e-08)
(0.000760505 -1.56606e-07 4.78731e-08)
(0.00101757 -8.41092e-08 1.70637e-07)
(0.000757888 -1.68939e-07 2.47109e-08)
(0.000758803 4.79672e-07 3.11851e-08)
(0.00101531 -2.04187e-07 1.90942e-07)
(0.000756523 -2.56413e-07 4.089e-08)
(0.000757171 -2.13928e-07 4.32112e-08)
(0.00101307 -2.3434e-07 1.74227e-07)
(0.000754695 -2.89256e-07 3.66665e-08)
(0.000755672 -6.31475e-07 5.75463e-08)
(0.00101098 -4.48314e-07 2.30861e-07)
(0.000753099 -1.97201e-07 3.14994e-08)
(0.000754079 6.87774e-07 4.2572e-08)
(0.00100863 -3.26007e-07 1.35722e-07)
(0.000751638 -1.12282e-07 5.17194e-08)
(0.000752552 -4.19625e-08 5.54939e-08)
(0.00100667 -1.81466e-07 1.70662e-07)
(0.000750099 -1.01042e-07 2.68784e-08)
(0.000750993 -3.64453e-08 5.69367e-08)
(0.0010045 -8.78911e-08 1.80647e-07)
(0.000748897 1.24109e-07 8.88975e-09)
(0.000749731 3.98309e-07 1.61757e-08)
(0.00100278 -1.43049e-07 7.58809e-08)
(0.000747803 4.16312e-07 1.02502e-07)
(0.000748414 7.05458e-07 2.66045e-08)
(0.00100142 5.27886e-07 7.5811e-08)
(0.000746263 4.79456e-07 1.41324e-07)
(0.0007468 3.38348e-07 1.27732e-07)
(0.00099945 6.84269e-07 1.69213e-07)
(0.000745408 4.95079e-07 3.93592e-08)
(0.000745562 4.74992e-07 -4.21272e-08)
(0.000998092 6.94005e-07 1.13111e-07)
(0.000743119 3.23026e-07 -1.06442e-08)
(0.000744072 -7.33597e-08 3.96203e-08)
(0.00099609 6.61953e-07 4.66756e-08)
(0.000741485 1.07485e-07 4.08991e-08)
(0.000742304 9.71536e-08 2.18318e-08)
(0.000993159 2.2751e-07 1.58693e-08)
(0.000740227 6.0955e-08 6.38631e-08)
(0.000740941 -1.15312e-08 7.34464e-08)
(0.000991291 7.6323e-08 1.68336e-07)
(0.000739028 5.8661e-08 9.02061e-08)
(0.000739686 -1.05398e-07 4.33068e-08)
(0.000989773 6.54371e-08 1.45507e-07)
(0.000737701 2.27592e-08 9.31767e-08)
(0.000738345 7.0677e-08 1.66585e-07)
(0.000988049 8.7238e-08 1.65055e-07)
(0.000736205 -1.03184e-07 3.26225e-08)
(0.000737002 -1.40466e-08 4.04023e-08)
(0.000986173 -5.18787e-09 1.82993e-07)
(0.000734482 -7.4326e-08 3.39328e-08)
(0.000735443 -2.49767e-07 1.38759e-08)
(0.000984065 -2.23564e-07 1.37728e-07)
(0.000733195 7.27206e-08 6.15224e-08)
(0.000733905 -7.97114e-08 4.31711e-08)
(0.00098196 5.43935e-08 1.71609e-07)
(0.000731867 1.28786e-07 3.14073e-08)
(0.000732595 1.61228e-07 6.48395e-08)
(0.000980188 1.18374e-07 1.64371e-07)
(0.000730532 3.59494e-07 6.75899e-08)
(0.000731329 1.12288e-07 1.56447e-08)
(0.000978386 2.02841e-07 1.98819e-07)
(0.000729221 6.18983e-07 1.41952e-07)
(0.000730054 4.65362e-07 1.70063e-07)
(0.000976715 7.7036e-07 1.69711e-07)
(0.00072882 4.91538e-07 1.05864e-07)
(0.000728945 -9.54252e-07 1.7452e-08)
(0.000975687 8.88133e-07 1.63723e-07)
(0.00072722 2.4807e-07 8.34409e-08)
(0.000727749 2.56642e-07 6.14531e-08)
(0.000974238 4.43322e-07 1.80721e-07)
(0.000725794 2.19607e-07 1.23222e-07)
(0.000726427 2.01231e-08 6.72425e-08)
(0.000972296 2.90641e-07 1.71362e-07)
(0.000723993 3.26507e-07 1.16558e-07)
(0.000724986 1.10379e-07 1.1543e-07)
(0.000970133 3.51924e-07 1.02828e-07)
(0.000722618 3.19604e-07 6.90592e-08)
(0.000723288 3.76568e-07 6.03436e-08)
(0.000967889 5.2449e-07 1.59636e-07)
(0.000721205 1.96996e-07 9.02234e-08)
(0.000721796 1.78329e-07 5.15383e-08)
(0.000965992 3.01832e-07 1.64528e-07)
(0.000720813 -1.35596e-06 1.30179e-07)
(0.00096485 2.01997e-07 2.03262e-07)
(0.0172211 -0.0030425 -0.00183518)
(-0.00776884 -0.0123059 -0.00043696)
(-0.00710405 -0.00566084 0.000557898)
(-0.00965299 -0.0118369 0.00134091)
(0.0422237 0.013809 -0.000132369)
(0.0154201 -0.00765879 -0.00510766)
(0.042215 0.013581 -0.000593002)
(-0.0112807 -0.0126017 0.00175833)
(-0.00733355 -0.00511636 0.00588564)
(-0.0441633 0.01935 0.00102367)
(0.0182447 -0.0127841 8.13236e-05)
(-0.0211981 0.0127249 -0.00162603)
(-0.0490416 0.0251865 -0.000340719)
(-0.0377295 0.0239703 -0.00208487)
(-0.0167497 0.00250897 -0.000149624)
(-0.0567322 0.0312589 0.00443362)
(-0.0596552 -0.00601589 0.00249735)
(-0.0682024 0.0102668 0.00382437)
(0.0182243 0.0211125 -0.00124737)
(0.0128149 1.83964e-05 -0.000191732)
(0.0141274 -0.00840184 -0.000171648)
(0.0176532 -0.0037675 0.00125621)
(0.00994881 -0.00719274 0.000126833)
(0.0016567 -0.00665151 0.000496354)
(-0.00966558 0.00783384 -0.000153823)
(0.0129509 0.00678586 0.00169238)
(0.0147354 0.0052049 0.00156632)
(0.0111226 0.00375038 -0.000769737)
(-0.00472288 0.00619013 0.000224462)
(-0.0125533 0.00228461 -0.000188471)
(-0.0130098 0.0104776 0.000104272)
(-0.00929066 -0.00489778 0.000623286)
(-0.0017008 0.00510546 0.00124323)
(-0.00263971 -0.00146904 -0.000148318)
(-0.00525032 0.00404789 -0.000471487)
(-0.00133726 0.00902742 -0.000300222)
(0.00655407 0.00247765 -0.000115894)
(-0.00264591 0.00916912 -0.000595178)
(-0.000101233 -6.7847e-05 3.07061e-05)
(0.00147158 0.000402098 5.19292e-05)
(0.00160102 -0.000475314 0.000122048)
(0.00137737 -0.00044214 -4.43357e-05)
(0.00112732 0.000115281 6.80261e-05)
(0.000306617 2.11605e-05 -1.76764e-06)
(0.000455585 1.94684e-05 -2.81641e-06)
(0.000415985 1.63951e-05 3.0332e-08)
(0.00070872 1.14706e-05 -8.20009e-07)
(0.000319122 2.80109e-05 -2.08909e-06)
(0.000557276 3.69552e-05 -7.1149e-07)
(0.000589165 5.40878e-05 -5.8636e-07)
(0.000445017 1.96357e-05 3.56881e-07)
(0.000771465 6.03963e-06 -8.87836e-07)
(0.000823833 3.14002e-06 -1.26931e-06)
(0.00109677 -6.29269e-07 -9.3759e-07)
(0.000568429 1.70031e-05 -3.55783e-06)
(0.000558424 1.30721e-05 -4.16855e-06)
(0.000931846 1.82473e-05 -4.7136e-06)
(0.000925213 7.17182e-06 -5.48977e-06)
(0.000775813 3.87568e-06 -1.24566e-07)
(0.000763956 2.99914e-06 -4.3814e-07)
(0.00101937 -6.5794e-07 7.06628e-08)
(0.000776255 2.6308e-06 7.99827e-08)
(0.000778664 2.61211e-06 1.77337e-07)
(0.00104035 1.16733e-07 2.02534e-07)
(0.000775547 1.5264e-06 2.74114e-08)
(0.00077527 1.89239e-06 2.38461e-08)
(0.00103672 1.62973e-07 1.72303e-07)
(0.000774335 8.37976e-07 5.7124e-08)
(0.000774857 1.02109e-06 1.33857e-07)
(0.00103632 -2.58226e-07 1.79653e-07)
(0.00077282 6.40491e-07 5.09943e-08)
(0.000773705 7.07845e-07 5.39181e-08)
(0.00103451 -8.41894e-08 1.77149e-07)
(0.000771135 5.21341e-07 4.8927e-08)
(0.000772013 6.05788e-07 2.59615e-08)
(0.00103248 1.82228e-07 1.7595e-07)
(0.000769472 3.30753e-07 4.84953e-08)
(0.000770147 3.96783e-07 3.74002e-08)
(0.00103029 2.004e-07 1.7557e-07)
(0.000767831 2.32783e-07 3.92298e-08)
(0.000768557 1.86436e-07 4.95034e-08)
(0.00102821 5.98091e-08 1.74319e-07)
(0.000765831 1.69497e-07 6.70056e-08)
(0.000766834 -3.35595e-08 3.5367e-08)
(0.00102573 1.89187e-07 1.20642e-07)
(0.000764322 -1.15556e-07 6.89296e-08)
(0.000764853 -3.55364e-07 7.38911e-08)
(0.00102344 3.20401e-08 2.61451e-07)
(0.000762757 -2.01535e-07 4.53173e-08)
(0.000763497 -1.97308e-07 6.60394e-08)
(0.00102148 -4.70905e-07 1.81323e-07)
(0.000761266 -7.94956e-08 5.33344e-08)
(0.000762187 -6.91625e-09 6.22259e-08)
(0.00101947 -1.70681e-07 1.42437e-07)
(0.000759487 -1.94855e-07 4.25542e-08)
(0.000760362 5.3325e-08 1.78608e-07)
(0.00101734 -1.44407e-07 1.73132e-07)
(0.000757969 -2.13908e-07 4.96815e-08)
(0.000758781 9.23839e-07 1.49629e-07)
(0.00101512 -4.35546e-07 1.35126e-07)
(0.000756407 -1.68506e-07 5.98629e-08)
(0.000757229 -1.39333e-07 7.89576e-08)
(0.00101299 -1.89693e-07 1.6576e-07)
(0.000754995 -1.45238e-07 6.34565e-08)
(0.000755702 5.46244e-08 1.15056e-07)
(0.00101111 -3.10881e-07 1.10981e-07)
(0.000753515 4.95893e-08 6.65624e-08)
(0.000754323 5.61756e-07 7.28925e-08)
(0.00100923 -1.12695e-07 1.7479e-07)
(0.000751955 2.55567e-07 6.07107e-08)
(0.000752808 -5.70914e-08 6.39262e-08)
(0.00100708 2.24193e-07 1.74956e-07)
(0.000750508 5.08863e-07 4.62469e-08)
(0.000751307 4.24791e-07 4.49734e-08)
(0.00100508 4.74832e-07 1.32492e-07)
(0.000749374 6.06096e-07 3.38872e-08)
(0.00074985 7.90488e-07 1.34888e-07)
(0.0010035 9.83041e-07 1.10669e-07)
(0.000747356 4.21863e-07 5.18029e-08)
(0.00074818 3.50964e-07 6.87775e-08)
(0.00100142 7.72564e-07 2.4211e-07)
(0.000746002 3.68765e-07 -5.56658e-08)
(0.000746731 3.23467e-07 6.0825e-08)
(0.000999057 4.97828e-07 1.6023e-07)
(0.000744478 1.43365e-07 -4.18918e-08)
(0.000745278 2.25089e-07 -8.1986e-08)
(0.000997119 6.4726e-07 1.927e-07)
(0.000743072 -1.34159e-07 7.21018e-08)
(0.000743724 -1.92542e-07 9.96818e-08)
(0.000995214 -1.23793e-07 1.73558e-07)
(0.000741734 -4.57801e-08 5.4363e-08)
(0.000742414 -5.14156e-08 4.73149e-08)
(0.000993424 -1.53187e-07 1.70292e-07)
(0.000740434 3.67064e-08 5.28995e-08)
(0.000741044 -4.01899e-08 5.34991e-08)
(0.00099163 5.9554e-08 1.58964e-07)
(0.000738956 1.8452e-08 1.19647e-07)
(0.000739663 -2.3304e-08 4.44379e-08)
(0.00098985 4.8759e-08 1.6729e-07)
(0.000737698 -6.77307e-08 1.1385e-07)
(0.000738237 -5.76387e-09 1.14394e-07)
(0.000987982 -1.2549e-08 1.59533e-07)
(0.000736298 -1.8835e-07 2.1664e-08)
(0.000736852 6.44726e-08 5.161e-08)
(0.000986261 -1.84336e-07 1.6148e-07)
(0.000734725 -1.71932e-07 2.31052e-08)
(0.000735465 -2.4384e-07 2.51347e-08)
(0.000984237 -3.56449e-07 1.8242e-07)
(0.000733362 -1.06728e-08 4.64815e-08)
(0.000734107 -2.56581e-07 -1.56389e-08)
(0.000982184 -1.9251e-07 1.77118e-07)
(0.000732076 1.40886e-07 4.90921e-08)
(0.000732784 3.89971e-08 6.46583e-08)
(0.000980424 9.45937e-08 1.66477e-07)
(0.000730816 2.87375e-07 1.18071e-07)
(0.00073151 1.23222e-07 2.16373e-07)
(0.000978934 3.07902e-07 1.54714e-07)
(0.000729655 4.93675e-07 4.56104e-08)
(0.00073031 4.26278e-07 9.9284e-08)
(0.00097726 5.40127e-07 1.4969e-07)
(0.000728006 4.06104e-07 -2.69727e-08)
(0.000728833 -9.35758e-07 -2.45692e-08)
(0.000975301 8.09555e-07 1.89732e-07)
(0.000726938 1.50743e-07 4.52529e-08)
(0.000727429 2.02429e-07 5.25441e-08)
(0.000973516 2.66241e-07 1.42372e-07)
(0.000725684 7.94936e-08 5.94354e-08)
(0.000726338 4.44077e-08 4.33441e-08)
(0.000971942 1.36406e-07 1.53771e-07)
(0.000724307 1.90031e-07 5.92322e-08)
(0.000725123 9.04458e-07 4.22492e-08)
(0.00097026 5.37503e-08 1.08918e-07)
(0.000722378 2.58601e-07 4.28254e-08)
(0.000723373 1.16464e-06 1.28039e-08)
(0.00096796 3.94246e-07 1.59608e-07)
(0.000721263 2.37282e-07 9.14703e-08)
(0.000721767 -4.90274e-08 4.86893e-08)
(0.00096591 2.59357e-07 1.59593e-07)
(0.000720517 -1.35248e-06 9.13873e-08)
(0.000964438 3.67927e-07 1.78869e-07)
(-0.00789432 -0.00189435 -0.00010275)
(0.00573322 -0.0010318 -0.000161084)
(0.00858666 -0.000582349 7.06137e-05)
(0.00653649 0.00683931 3.4235e-05)
(-0.0120889 -0.00408635 -0.00120621)
(0.00355348 0.0117465 -0.0004043)
(-0.00323714 -0.00235355 0.000271497)
(0.00403804 -0.00553752 -0.000143569)
(0.00516189 -0.00862635 -0.000438721)
(0.0123723 -6.41368e-06 -0.000445618)
(-0.0109664 -0.000164139 -0.00117367)
(-0.00561844 0.00578596 -2.96663e-05)
(-0.0230305 -0.00356639 -0.000840484)
(-0.0105915 -0.0106088 0.000773988)
(0.00157498 0.00162676 -0.00211911)
(0.0057619 -0.00504943 -0.00206122)
(0.0133923 -0.000327757 -0.000954941)
(0.0104961 0.00556688 -0.0120461)
(0.0105854 0.00747585 0.00411469)
(-0.000561224 0.0078556 -0.00314669)
(0.0234382 0.0105797 0.00546283)
(0.000614492 -0.0030874 -0.00077594)
(0.00298723 0.000865533 -0.000981011)
(0.013673 0.00115975 -0.00130834)
(0.00681873 0.00562876 -0.000919662)
(0.012853 -0.0131004 0.000205485)
(0.00391115 -0.0250913 0.00107275)
(0.0067545 -0.0180348 0.00100418)
(-0.0190781 -0.0100514 0.000846504)
(0.00242286 0.00763784 0.00170993)
(-0.00509976 -0.0177376 -0.00556904)
(0.0031182 -0.0334496 -0.00346887)
(0.0131999 -0.00961264 0.00107554)
(-0.00306969 0.007665 -0.00222859)
(0.0100175 -0.00358255 -0.00210334)
(-0.00021523 -0.0130781 -0.0012196)
(0.0226596 -0.00100453 -0.00373677)
(0.00450586 0.00422411 -0.0147797)
(0.00962994 -0.000277681 0.0216675)
(0.0148433 0.000753838 -0.00312692)
(0.0111217 -0.0150252 0.00109427)
(0.0231272 -0.0172048 -0.00352642)
(0.051094 0.0134244 -0.00571289)
(0.0366773 -0.002079 -0.000408397)
(0.00648889 -0.0133164 0.000312949)
(0.002966 -0.0127123 -1.53003e-05)
(0.00480019 -0.0080004 3.03942e-06)
(0.00678705 -0.00964812 -0.000613234)
(0.00290718 -0.0213515 -0.000401448)
(0.000747834 -0.00108826 4.54012e-05)
(0.00080611 -0.000634107 1.59222e-05)
(0.000680042 -0.000559926 6.33321e-05)
(0.000732384 -0.00129217 -2.37781e-06)
(0.000716833 -0.000274331 3.90942e-05)
(0.000309126 3.30134e-06 9.74208e-07)
(0.000451002 -1.0526e-06 -3.16256e-06)
(0.000405012 -3.20368e-06 -5.21277e-07)
(0.000670761 -2.3757e-05 3.4817e-07)
(0.000311459 1.83792e-06 1.61144e-06)
(0.000589831 -1.87692e-06 7.71464e-06)
(0.000594482 -5.48099e-06 9.41664e-06)
(0.000400518 1.41124e-06 -3.3874e-07)
(0.000775046 -2.95427e-06 -8.19887e-07)
(0.000833889 -3.88157e-06 -1.26402e-06)
(0.00110941 -1.61142e-05 -9.59414e-07)
(0.000567185 -1.08673e-06 -3.42088e-06)
(0.000564724 -2.83459e-06 -4.46529e-06)
(0.000946811 -2.0277e-05 -4.30678e-06)
(0.000951434 -2.24841e-05 -5.70553e-06)
(0.000776616 -4.45636e-07 -1.36438e-07)
(0.000767286 1.71261e-07 -5.22399e-07)
(0.00102527 -7.86335e-06 8.15144e-08)
(0.000776212 3.88086e-07 1.21251e-07)
(0.000779788 4.92019e-07 1.83616e-07)
(0.00104312 -3.38783e-06 2.05035e-07)
(0.000774868 5.31188e-07 1.30256e-07)
(0.000775498 1.19674e-06 7.69092e-08)
(0.00103752 -1.84004e-06 1.8819e-07)
(0.000774377 4.4474e-07 1.30677e-07)
(0.000774779 -1.23082e-06 1.3742e-07)
(0.00103671 -6.33622e-07 2.22953e-07)
(0.00077306 5.33173e-08 2.88943e-08)