/*--------------------------------*- C++ -*----------------------------------*\
| =========                 |                                                 |
| \\      /  F ield         | OpenFOAM: The Open Source CFD Toolbox           |
|  \\    /   O peration     | Version:  5.0                                   |
|   \\  /    A nd           | Web:      www.OpenFOAM.org                      |
|    \\/     M anipulation  |                                                 |
\*---------------------------------------------------------------------------*/
FoamFile
{
    version     2.0;
    format      ascii;
    class       surfaceVectorField;
    location    "1.9";
    object      Uf_0;
}
// * * * * * * * * * * * * * * * * * * * * * * * * * * * * * * * * * * * * * //

dimensions      [0 1 -1 0 0 0 0];

internalField   nonuniform List<vector> 
27883
(
(0.00290378 0.000105613 -0.000246394)
(0.00935251 0.00468472 -0.000181777)
(0.00141601 0.00140782 2.11423e-05)
(0.00845434 -0.0201234 -5.85278e-05)
(0.00658873 -0.0042187 0.000173178)
(0.00661867 -0.0300736 -0.00117022)
(-0.0016446 -0.012318 9.08146e-05)
(0.00585533 -0.0179552 0.000632978)
(0.00309557 -0.0187522 9.63313e-05)
(0.00472294 -0.0235638 0.000204682)
(-0.00478821 0.0124343 -9.35057e-05)
(-0.00710959 -0.0017574 -0.00052216)
(-0.00264968 -0.00298333 0.000689575)
(0.00178247 -0.00485927 -9.05056e-05)
(0.00841952 -0.0111825 -0.000194271)
(-0.000110441 -0.00201849 -0.000166687)
(0.00371865 0.00467207 -0.0004202)
(0.00819078 0.00587892 -2.23148e-06)
(-0.00148287 -0.00335708 0.000573396)
(0.0212636 -0.00385851 9.08373e-05)
(0.00835104 -0.0165293 0.00138801)
(0.00604826 -0.00810195 0.000184125)
(-0.00271824 0.00027283 0.000133225)
(-0.00125547 -1.91645e-05 -1.00302e-07)
(-0.00237173 0.00198458 -0.000126103)
(-0.00543168 0.00343394 -7.97442e-05)
(0.000361165 9.18308e-05 7.3994e-06)
(0.000378778 0.000112121 -1.66941e-06)
(0.000365804 9.58075e-05 -8.14552e-07)
(0.000636574 0.000223986 3.3218e-06)
(0.000172406 8.01879e-05 2.35883e-05)
(0.000674828 0.000156479 2.70251e-05)
(0.000247699 0.000123854 4.9673e-05)
(0.000726363 8.7794e-05 -8.61724e-07)
(0.000701563 7.19849e-05 -2.06869e-06)
(0.000963459 0.000127992 -1.20375e-06)
(0.000489301 8.85446e-05 -3.44538e-06)
(0.000493223 7.58085e-05 -3.16242e-06)
(0.000818056 0.000140361 -3.5689e-06)
(0.000838958 0.000108442 -3.00832e-06)
(0.000753309 5.68848e-05 6.0085e-08)
(0.000727242 5.32968e-05 -7.56229e-09)
(0.000986077 8.39088e-05 1.40015e-07)
(0.000773464 3.63596e-05 1.01575e-07)
(0.000755704 3.03147e-05 1.15921e-07)
(0.00102005 5.36064e-05 1.80041e-07)
(0.000785432 2.30606e-05 8.05656e-08)
(0.000774736 1.92703e-05 7.47421e-08)
(0.00104023 3.4352e-05 1.72598e-07)
(0.000793246 1.4439e-05 2.53338e-08)
(0.000786155 1.18435e-05 4.74049e-08)
(0.00105258 2.1446e-05 1.72021e-07)
(0.000797953 9.20349e-06 3.19375e-08)
(0.000793564 7.34675e-06 2.28947e-08)
(0.00106073 1.34549e-05 1.76195e-07)
(0.00079933 5.84249e-06 5.30672e-08)
(0.000797365 4.24297e-06 5.63252e-08)
(0.00106439 8.80332e-06 1.54483e-07)
(0.000800367 3.50179e-06 3.11306e-08)
(0.000799086 2.65932e-06 4.36612e-08)
(0.00106568 5.34361e-06 1.89176e-07)
(0.000800251 2.1006e-06 3.72114e-08)
(0.000799885 2.5017e-06 3.96435e-08)
(0.00106621 3.12662e-06 1.5645e-07)
(0.000799807 1.30934e-06 5.97111e-08)
(0.000799827 9.24903e-07 5.05539e-08)
(0.00106571 1.94235e-06 1.75201e-07)
(0.0007988 7.69442e-07 3.47591e-08)
(0.000799205 7.06722e-07 5.21909e-08)
(0.00106475 1.21477e-06 1.91765e-07)
(0.000797527 3.55049e-07 3.28805e-08)
(0.000798094 1.30063e-06 5.07991e-08)
(0.00106308 6.29638e-07 1.13016e-07)
(0.000796582 1.31724e-07 5.64534e-08)
(0.000796956 2.56084e-07 4.55576e-08)
(0.00106147 1.92125e-07 2.01666e-07)
(0.000795163 8.67321e-08 5.75229e-08)
(0.000795835 -3.5347e-09 6.02691e-08)
(0.00106005 8.38451e-08 1.8065e-07)
(0.000793649 9.83228e-08 7.25501e-08)
(0.000794425 1.74778e-08 5.96582e-08)
(0.00105802 1.4099e-07 1.80619e-07)
(0.000792407 1.33885e-07 6.34588e-08)
(0.000793046 -1.02203e-06 1.01742e-07)
(0.00105609 1.71486e-07 2.23103e-07)
(0.000790713 2.02274e-07 4.24644e-08)
(0.000791665 4.32148e-08 3.14646e-08)
(0.00105421 2.28056e-07 1.93137e-07)
(0.000789256 3.50448e-07 6.11928e-08)
(0.000790196 6.16723e-07 1.02376e-08)
(0.00105203 3.72479e-07 1.37741e-07)
(0.000788352 3.55835e-07 6.96154e-08)
(0.000788736 -2.5899e-06 4.07816e-08)
(0.0010504 6.41343e-07 3.12326e-07)
(0.000786847 2.0135e-07 4.95334e-08)
(0.000787288 -1.82594e-07 3.73816e-08)
(0.00104877 3.57922e-07 1.87701e-07)
(0.000785551 2.32131e-07 5.3742e-08)
(0.000786042 -1.65748e-08 4.6596e-08)
(0.00104708 1.94839e-07 1.74951e-07)
(0.000783055 6.09434e-08 6.23841e-08)
(0.000784177 6.02741e-07 5.16144e-08)
(0.0010444 4.08373e-07 2.78433e-07)
(0.000781787 -4.1752e-07 7.66193e-10)
(0.000782239 6.01617e-08 4.38537e-08)
(0.00104178 -2.94474e-07 1.77194e-07)
(0.000780482 -5.82104e-07 -3.50693e-08)
(0.000781124 1.96866e-06 3.59265e-08)
(0.00104023 -8.7297e-07 -3.21652e-08)
(0.000778784 -4.74455e-07 3.58094e-08)
(0.00077979 1.0026e-06 1.52604e-08)
(0.00103804 -7.1648e-07 9.04921e-08)
(0.000777859 -2.75629e-07 6.16314e-08)
(0.000778507 3.40909e-07 1.51814e-07)
(0.0010363 -5.5949e-07 1.64445e-07)
(0.000776727 -2.91557e-08 4.32129e-08)
(0.000777442 2.52457e-07 1.5516e-07)
(0.0010351 -1.47145e-07 1.0201e-07)
(0.000775127 3.31826e-08 5.0739e-08)
(0.000775925 1.54113e-07 4.47094e-08)
(0.00103329 1.19838e-07 1.73066e-07)
(0.00077331 4.68119e-09 4.57742e-08)
(0.000774185 -7.37375e-08 5.03156e-08)
(0.00103092 4.67055e-08 2.1651e-07)
(0.000771866 6.41819e-08 3.72289e-08)
(0.000772694 1.68222e-07 3.94236e-08)
(0.00102866 3.72238e-08 1.68662e-07)
(0.000770494 2.34077e-07 4.8111e-08)
(0.000771313 1.27336e-07 4.78761e-08)
(0.00102673 1.83442e-07 1.62755e-07)
(0.000768898 3.98477e-07 1.13652e-07)
(0.000769844 3.50579e-07 4.05955e-08)
(0.00102482 5.06895e-07 1.81063e-07)
(0.000768125 2.69536e-07 1.0121e-07)
(0.000768458 -1.06733e-06 9.65049e-08)
(0.00102335 5.8766e-07 1.89017e-07)
(0.000766577 3.92676e-08 5.25816e-08)
(0.000767072 1.72904e-07 4.25963e-08)
(0.00102171 1.27488e-07 1.73269e-07)
(0.000765116 -1.20454e-07 8.3206e-08)
(0.000765605 -5.57204e-08 7.12198e-08)
(0.00101958 -1.58572e-08 1.6882e-07)
(0.000763787 -2.42984e-07 1.63264e-07)
(0.000764345 -3.57883e-07 5.73608e-08)
(0.00101799 -3.41397e-07 1.76615e-07)
(0.000762359 -1.9439e-07 1.44921e-07)
(0.000763076 -3.38147e-07 1.81745e-07)
(0.00101602 -3.55007e-07 1.66157e-07)
(0.000760762 -1.45033e-07 5.18208e-08)
(0.00076159 2.41767e-07 5.87812e-08)
(0.0010139 -1.91352e-07 1.58183e-07)
(0.000759429 -2.12721e-07 5.68224e-08)
(0.000760094 -1.57064e-07 5.16008e-08)
(0.00101201 -2.28599e-07 1.64039e-07)
(0.00075817 -3.7685e-07 5.3704e-08)
(0.00075875 -1.08819e-07 6.60374e-08)
(0.00101024 -3.23443e-07 1.7466e-07)
(0.000756741 -4.091e-07 9.73403e-09)
(0.000757462 -3.62917e-07 4.52774e-08)
(0.00100863 -6.18789e-07 1.70519e-07)
(0.000755002 -2.7748e-07 2.3104e-08)
(0.000755855 1.30025e-06 3.1022e-08)
(0.00100638 -4.35494e-07 7.56495e-08)
(0.000754501 -4.72821e-07 4.89798e-08)
(0.00100408 -3.15199e-07 2.56759e-07)
(-0.0238696 -0.016482 0.00405087)
(-0.0205061 0.00278976 0.00228673)
(-0.0324784 -0.0273086 -0.00187689)
(-0.0181864 -0.0259315 0.000770739)
(-0.0229702 -0.0287655 0.00173201)
(-0.0278169 -0.0189876 0.000175865)
(-0.0237358 -0.0109446 -0.000162584)
(-0.0223569 -0.0256215 0.00103778)
(-0.0256347 0.00823938 0.00115601)
(-0.031151 -0.0110179 -0.000385621)
(0.0219397 -0.0124563 -0.00118481)
(-0.011524 -0.0207138 6.38931e-05)
(0.0360154 -0.0225209 -0.000136333)
(0.0506145 -0.0245926 -0.00356931)
(0.017339 -0.018418 -0.0017326)
(-0.011919 0.0011742 0.000342653)
(-0.01041 0.0158181 1.1493e-05)
(-0.0159177 0.00870435 0.00129204)
(-0.0145179 0.00133333 0.000676717)
(-0.00511003 -0.000233642 0.000357105)
(0.00314645 -0.00153144 -0.000313079)
(-0.00753576 -0.000472295 0.000359203)
(-0.000362113 -0.00391317 0.000157575)
(-0.00535152 0.000711765 -0.000613816)
(0.00446529 -0.00852392 -0.0016993)
(-0.00644747 -0.00527771 0.000933864)
(-0.00946859 0.00414566 0.00161909)
(-0.00879059 -0.0117933 0.0106948)
(-0.0129268 -0.00692518 0.0066959)
(-0.0124554 -0.0215838 -0.004937)
(-8.41694e-05 -0.0121568 -0.0133483)
(0.0222924 0.0045156 -8.09432e-05)
(0.00300112 -0.00411809 0.000136696)
(0.000263942 0.00280743 0.000109783)
(-0.000640545 0.00687176 0.00063681)
(0.00922044 0.00325707 -0.000166834)
(0.00209878 -0.000210288 4.62469e-05)
(0.000106657 -0.00602238 8.59989e-06)
(0.000422846 -0.00150844 5.09682e-05)
(0.000560798 -0.00196165 8.06559e-05)
(-0.000342162 -0.00441344 9.13167e-05)
(0.000189974 -2.64491e-05 1.35786e-05)
(0.000223411 5.58446e-05 3.57875e-08)
(0.000195681 2.10197e-05 2.16823e-06)
(0.000300371 4.23361e-05 5.195e-06)
(0.000156292 2.94845e-05 -4.7389e-07)
(0.000698829 3.43769e-05 -1.2152e-06)
(0.000437995 1.29732e-05 -9.82968e-07)
(0.000917908 3.16497e-05 -1.11281e-06)
(0.000465909 3.94523e-05 -4.04625e-06)
(0.000444094 2.24287e-05 -4.03768e-06)
(0.000804007 5.43049e-05 -4.30792e-06)
(0.000766913 1.8213e-05 -4.03494e-06)
(0.000445469 -1.21943e-05 -3.52972e-06)
(0.000742583 1.55164e-06 -7.34456e-08)
(0.000755441 -3.88865e-05 -4.23994e-06)
(0.000732013 2.38571e-05 4.82338e-08)
(0.000730488 1.0247e-05 -7.44361e-07)
(0.000960053 4.00891e-05 1.52293e-07)
(0.000759703 1.02145e-05 8.91023e-08)
(0.000738731 -5.85807e-06 -1.66305e-07)
(0.000998993 1.26114e-05 1.5307e-07)
(0.000776657 6.07507e-06 4.15903e-08)
(0.000769579 -3.7554e-06 1.17997e-07)
(0.00102755 8.09034e-06 1.73382e-07)
(0.000787479 3.32051e-06 4.49737e-08)
(0.000782722 -3.50617e-06 4.27028e-08)
(0.00104426 4.14681e-06 1.73161e-07)
(0.000793901 1.7445e-06 4.72715e-08)
(0.000791602 -2.55554e-06 5.60367e-08)
(0.00105493 2.30223e-06 1.76965e-07)
(0.000797295 8.70194e-07 4.69232e-08)
(0.000796278 -1.86188e-06 4.88006e-08)
(0.00106082 8.93358e-07 1.76257e-07)
(0.000798908 4.75766e-07 5.21754e-08)
(0.000798597 -1.21456e-06 5.00608e-08)
(0.00106373 5.33584e-07 1.76023e-07)
(0.00079965 2.24601e-07 5.29824e-08)
(0.000799574 -7.52113e-07 5.33464e-08)
(0.00106502 1.74289e-07 2.08295e-07)
(0.000799343 5.69973e-08 4.30331e-08)
(0.00079962 -5.37553e-07 5.16046e-08)
(0.00106516 7.18224e-08 1.75128e-07)
(0.00079861 -2.53191e-08 6.82313e-08)
(0.000799104 3.46953e-07 3.78286e-08)
(0.00106433 -1.65048e-07 1.35486e-07)
(0.000797428 5.91058e-08 6.34779e-08)
(0.000798201 1.16939e-06 3.97672e-08)
(0.00106293 -8.13162e-08 1.58199e-07)
(0.00079637 1.39529e-07 4.93687e-08)
(0.000797057 -3.1328e-07 3.2909e-08)
(0.0010614 1.24233e-07 1.77639e-07)
(0.000795046 9.86499e-08 6.24046e-08)
(0.000795784 -1.04443e-06 4.56799e-08)
(0.00105981 2.08228e-07 2.33301e-07)
(0.000793801 1.54419e-07 8.88371e-08)
(0.000794494 -1.47377e-07 4.90808e-08)
(0.00105804 5.4578e-08 1.65404e-07)
(0.000792421 2.14609e-07 6.97706e-08)
(0.00079312 -5.25375e-07 8.54087e-08)
(0.00105619 3.80327e-07 1.31055e-07)
(0.000791025 2.33564e-07 -7.55462e-10)
(0.000791687 1.35692e-07 -8.05812e-08)
(0.0010544 2.38106e-07 1.60506e-07)
(0.000789713 2.86475e-07 -1.01833e-08)
(0.000790261 -6.51878e-08 1.91184e-08)
(0.00105264 4.17919e-07 2.07347e-07)
(0.000787696 1.50343e-07 8.54892e-09)
(0.000788565 -4.66893e-07 4.74011e-08)
(0.00105026 3.54339e-07 7.25639e-08)
(0.000786393 -7.65008e-08 3.44414e-08)
(0.000787004 3.18406e-08 1.42677e-08)
(0.00104799 5.96251e-08 1.43704e-07)
(0.000785036 -5.29576e-07 4.44669e-08)
(0.000785477 -1.83364e-07 5.58775e-08)
(0.00104636 -2.47427e-07 1.75345e-07)
(0.000783042 -6.79824e-07 3.30864e-08)
(0.000783991 1.73985e-06 -2.26796e-08)
(0.00104405 -1.16795e-06 1.39702e-07)
(0.000781468 -4.39792e-07 7.90165e-08)
(0.000782541 1.57718e-07 3.9507e-08)
(0.00104152 -6.51381e-07 1.75881e-07)
(0.000780603 -3.09222e-07 8.62627e-08)
(0.000781289 7.90462e-10 1.09657e-07)
(0.00104006 -5.23031e-07 2.5953e-07)
(0.000779373 8.55889e-08 1.31223e-07)
(0.000780283 -5.52124e-08 6.82463e-08)
(0.00103865 -2.98191e-07 2.2763e-07)
(0.000778138 4.48557e-07 2.45342e-07)
(0.000778959 5.56804e-07 2.66122e-07)
(0.00103697 5.75873e-07 1.37893e-07)
(0.000776787 3.10089e-07 1.56691e-07)
(0.000777267 6.85204e-07 1.93391e-07)
(0.00103533 6.9573e-07 1.32978e-07)
(0.000774911 7.46786e-08 4.42843e-08)
(0.00077563 7.35262e-07 6.44529e-08)
(0.00103311 1.76493e-07 1.69207e-07)
(0.000773483 8.61421e-08 4.39684e-08)
(0.000774199 -7.99159e-08 4.62209e-08)
(0.00103082 4.12228e-08 1.71156e-07)
(0.000772205 1.69222e-07 5.00683e-08)
(0.000772797 -1.80186e-07 4.75573e-08)
(0.00102903 1.90122e-07 1.82522e-07)
(0.000770676 2.61544e-07 4.03629e-08)
(0.000771427 1.61093e-07 4.95352e-08)
(0.00102725 2.84622e-07 1.77834e-07)
(0.000769333 3.93624e-07 2.34311e-08)
(0.000770008 3.55931e-07 3.48071e-08)
(0.00102525 4.80454e-07 1.6326e-07)
(0.00076744 2.69623e-07 3.79075e-08)
(0.000768301 -3.43309e-07 6.67885e-08)
(0.00102302 6.21658e-07 1.61175e-07)
(0.000766106 -4.64811e-08 6.12257e-08)
(0.000766676 1.06471e-07 4.32255e-08)
(0.00102092 1.19074e-07 1.67917e-07)
(0.000764819 -3.42103e-07 4.53788e-08)
(0.000765236 -2.0646e-07 3.21628e-08)
(0.0010191 -2.18298e-07 1.69772e-07)
(0.000763595 -4.21032e-07 7.58036e-08)
(0.000764249 -7.32047e-07 3.35705e-08)
(0.00101741 -6.58542e-07 1.80515e-07)
(0.000762405 -2.27682e-07 9.56435e-08)
(0.000763319 -8.4322e-08 1.04703e-07)
(0.001016 -4.91521e-07 1.32038e-07)
(0.000760874 -1.29715e-07 5.85634e-08)
(0.000761714 -1.60186e-07 6.68172e-08)
(0.00101413 -1.80822e-07 2.1055e-07)
(0.000759358 -4.23712e-08 6.08113e-08)
(0.000760204 3.57607e-08 5.3387e-08)
(0.00101207 -1.91294e-07 1.66216e-07)
(0.000758083 -3.81665e-08 5.76171e-08)
(0.000758755 3.00021e-07 6.60909e-08)
(0.00101023 9.15298e-08 1.28546e-07)
(0.000756672 -2.20107e-07 6.65697e-08)
(0.000757235 -4.02968e-07 4.77944e-08)
(0.00100839 -1.47698e-07 1.73664e-07)
(0.000755135 -2.68877e-07 5.68923e-08)
(0.000755797 4.11511e-07 7.0136e-08)
(0.00100635 -4.08181e-07 2.47431e-07)
(0.000754836 1.02085e-07 4.8019e-08)
(0.00100501 -2.99764e-07 8.16114e-08)
(-0.0040952 0.00705578 0.000102923)
(0.00112995 0.00581419 0.00114878)
(0.00278199 0.00757988 0.000727936)
(0.00161771 -0.00496764 -9.04689e-05)
(-0.0231266 0.00520733 0.00122507)
(-0.0262104 -0.0250418 0.0022367)
(-0.0293963 -0.0388239 0.000866228)
(-0.0382637 -0.0228726 0.00597635)
(-0.0625506 -0.0242012 0.000657479)
(-0.0306211 -0.0186488 0.00030955)
(-0.0121548 -0.0187293 0.000456557)
(-0.0550546 0.00509308 -0.00330493)
(-0.0669279 -0.0239106 0.00392472)
(0.0114536 -0.023702 -0.00387453)
(0.00287942 0.00476215 0.000220944)
(-0.00661678 0.00552872 -0.0012509)
(-0.00297454 0.00990947 -0.000755591)
(-0.0140155 0.00656917 -0.00070118)
(0.00658881 0.00659277 0.000421339)
(0.00957544 0.00315045 -4.47419e-08)
(0.0140802 0.00241145 0.000290234)
(0.0131981 0.00540645 8.56748e-06)
(0.0187886 0.00154716 0.00015224)
(0.0176934 0.010541 -0.000550616)
(-0.00161791 -0.000416688 -1.06285e-06)
(0.000869469 6.6262e-05 0.000144318)
(0.000909215 -0.00018234 -8.36815e-05)
(-0.00120551 0.00222865 -1.86973e-05)
(-0.00145722 -0.000848383 -0.000181622)
(0.00102457 -5.58924e-05 1.40238e-05)
(0.000343783 -0.000115981 3.41119e-05)
(0.000310709 -0.000173703 3.25342e-05)
(0.000445147 -0.000114038 6.92011e-05)
(0.000250113 -6.50833e-05 2.03292e-05)
(0.000322883 4.64372e-07 -1.07334e-06)
(0.000359254 -1.58467e-05 -2.33282e-06)
(0.000324371 -3.53122e-05 9.44047e-08)
(0.000545125 -1.95028e-05 2.08808e-07)
(0.000721811 -2.94592e-05 -9.59089e-07)
(0.000770948 -7.27328e-05 -1.29242e-06)
(0.00100462 -4.13113e-05 -6.93981e-07)
(0.000481816 -2.52855e-05 -3.21647e-06)
(0.000490028 -3.74383e-05 -4.52709e-06)
(0.000798752 -5.26985e-05 -3.92685e-06)
(0.00081575 -7.49957e-05 -5.57096e-06)
(0.000756844 -2.3673e-05 -1.37503e-07)
(0.000746203 -5.01393e-05 -5.08228e-07)
(0.000980323 -3.95866e-05 7.90695e-08)
(0.000776928 -1.52042e-05 1.19134e-07)
(0.000780272 -3.11126e-05 1.84823e-07)
(0.00102973 -2.46056e-05 2.02369e-07)
(0.000788467 -1.0038e-05 5.37615e-08)
(0.000789247 -1.98249e-05 -9.89364e-08)
(0.00104539 -1.64424e-05 1.78055e-07)
(0.00079487 -6.47543e-06 5.75682e-08)
(0.000796098 -1.24706e-05 5.81444e-08)
(0.00105669 -1.05674e-05 1.79657e-07)
(0.000798129 -4.14952e-06 5.19378e-08)
(0.000799213 -7.80804e-06 5.09587e-08)
(0.0010622 -6.81486e-06 1.77162e-07)
(0.000799535 -2.61001e-06 5.12308e-08)
(0.000800539 -4.84357e-06 4.9816e-08)
(0.0010648 -4.31295e-06 1.77027e-07)
(0.000799834 -1.67079e-06 5.19692e-08)
(0.000800759 -3.00253e-06 4.94699e-08)
(0.00106564 -2.69502e-06 1.77278e-07)
(0.000799471 -1.12364e-06 4.64046e-08)
(0.000800311 -1.969e-06 5.21699e-08)
(0.0010653 -1.79319e-06 1.77747e-07)
(0.000798848 -8.38296e-07 9.36393e-09)
(0.000799465 -1.66323e-06 3.34482e-08)
(0.00106457 -1.21818e-06 2.39883e-07)
(0.000797801 -6.00459e-07 9.20054e-09)
(0.000798501 1.23767e-07 3.30379e-08)
(0.00106345 -1.03322e-06 2.09795e-07)
(0.000796569 -4.08207e-07 2.92161e-08)
(0.0007973 -5.98165e-07 3.24574e-08)
(0.00106183 -5.87862e-07 1.72961e-07)
(0.000795148 -3.03369e-07 3.2355e-08)
(0.000795916 -1.59236e-07 3.29873e-08)
(0.00105996 -5.12289e-07 1.08001e-07)
(0.000793906 -2.14095e-07 4.56408e-08)
(0.000794607 -4.39304e-07 4.78604e-08)
(0.00105823 -2.98701e-07 1.73973e-07)
(0.000792356 -2.13705e-07 -6.48903e-08)
(0.000793121 -5.33769e-07 4.49511e-08)
(0.00105631 -2.62314e-07 1.81039e-07)
(0.00079094 -2.67826e-07 -6.07391e-08)
(0.000791621 -4.88772e-08 -5.50916e-08)
(0.00105425 -2.68736e-07 1.81468e-07)
(0.000789202 -2.77698e-07 7.66937e-08)
(0.000790249 7.45123e-07 3.66502e-08)
(0.00105217 -4.26283e-07 1.40183e-07)
(0.000787737 -2.12581e-07 5.31304e-08)
(0.000788647 -3.31095e-07 7.16504e-08)
(0.00104995 -3.12663e-07 1.63462e-07)
(0.000786219 -1.60542e-07 3.56907e-08)
(0.00078707 -9.57086e-08 3.28848e-08)
(0.00104802 -2.23537e-07 1.86581e-07)
(0.000784311 -1.33816e-07 -1.12442e-08)
(0.00078551 -2.03331e-07 7.36576e-08)
(0.00104554 -1.55934e-07 2.13462e-07)
(0.000783591 1.42326e-07 -1.62786e-08)
(0.000784336 -9.91436e-07 -3.8958e-08)
(0.00104391 -1.51411e-07 2.99954e-07)
(0.000782133 5.91333e-07 7.01251e-08)
(0.000783101 -1.16839e-06 4.07588e-08)
(0.00104259 5.79327e-07 2.66278e-07)
(0.000781092 7.45238e-07 9.16532e-08)
(0.000781478 -8.67199e-07 5.2022e-08)
(0.00104068 1.02862e-06 1.97284e-07)
(0.000779882 6.02703e-07 2.03084e-07)
(0.000780102 -2.008e-06 4.20117e-08)
(0.00103942 9.6087e-07 2.89362e-07)
(0.000778218 3.89083e-07 2.14193e-07)
(0.00077869 4.82106e-07 1.84856e-07)
(0.00103754 6.48195e-07 1.96667e-07)
(0.000775997 1.63511e-07 1.01192e-07)
(0.000776984 1.63077e-07 8.41971e-08)
(0.0010346 3.90624e-07 2.78194e-07)
(0.00077491 6.30739e-08 6.63951e-08)
(0.000775504 4.71023e-07 7.22032e-08)
(0.00103246 4.28819e-08 1.59111e-07)
(0.000773507 1.07397e-07 4.98093e-08)
(0.000774255 -1.07747e-07 6.35173e-08)
(0.00103093 1.05385e-07 1.70569e-07)
(0.000772024 9.28787e-08 4.70237e-08)
(0.000772779 6.70921e-08 4.8647e-08)
(0.00102896 1.54324e-07 1.58205e-07)
(0.00077071 1.25333e-07 4.3984e-08)
(0.000771467 1.45842e-07 4.84987e-08)
(0.00102709 8.07724e-08 1.62065e-07)
(0.000769186 1.09583e-07 7.81546e-08)
(0.000769988 5.39267e-07 1.37873e-08)
(0.00102524 2.16541e-07 1.66715e-07)
(0.000767318 2.191e-08 7.21139e-08)
(0.000768191 8.50183e-07 6.96932e-08)
(0.00102289 3.23225e-08 1.25145e-07)
(0.000765906 -1.4398e-08 1.4166e-08)
(0.000766631 1.75546e-07 4.174e-08)
(0.00102066 5.64071e-09 1.65171e-07)
(0.000764348 2.11647e-07 2.03541e-08)
(0.000765518 2.62368e-07 1.89164e-08)
(0.00101861 -2.96063e-08 1.4952e-07)
(0.000764331 3.31603e-07 6.24478e-08)
(0.000764397 -2.13711e-06 4.18045e-08)
(0.00101766 6.51834e-07 1.45937e-07)
(0.000762606 1.22923e-07 7.58881e-08)
(0.000763056 2.03369e-07 4.68572e-08)
(0.00101662 3.38003e-07 1.78027e-07)
(0.000760982 9.13252e-08 6.16449e-08)
(0.000761673 4.19054e-07 6.25789e-08)
(0.00101428 1.3954e-07 1.47829e-07)
(0.000759571 2.25133e-07 5.86627e-08)
(0.00076037 -8.94816e-08 4.72981e-08)
(0.00101235 2.27703e-07 1.79696e-07)
(0.000757927 2.31181e-07 5.62738e-08)
(0.000758761 -3.07276e-08 7.3134e-08)
(0.0010103 4.24059e-07 2.16111e-07)
(0.000756355 1.1617e-07 5.13539e-08)
(0.00075709 -5.17924e-08 3.93615e-08)
(0.00100801 2.29311e-07 1.59766e-07)
(0.000755295 8.28662e-08 6.12694e-08)
(0.000755754 -1.02064e-07 4.79254e-08)
(0.0010062 1.1896e-07 1.76445e-07)
(0.000754733 1.45932e-07 6.12419e-08)
(0.00100496 1.11832e-07 1.5652e-07)
(0.0216473 0.000126656 -0.00244529)
(0.00566865 -0.00411111 0.000263376)
(-0.0030296 -0.00195656 0.000286995)
(-0.00268496 -0.00918694 0.000215574)
(0.0350453 0.0176157 0.000301235)
(0.0163799 -0.00431762 -0.00490936)
(0.0312725 0.0177435 0.00117851)
(-0.0110203 -0.00468727 0.00139195)
(-0.0109715 0.00420544 0.00440312)
(-0.0390079 0.0374349 0.00178968)
(0.00464442 -0.00125813 0.000983984)
(-0.013885 0.023628 -0.000656101)
(-0.0381063 0.0419907 -9.28245e-08)
(-0.0292203 0.0393959 -0.00160305)
(-0.0120047 0.00982615 -5.77036e-05)
(-0.0515987 0.04531 0.00642465)
(-0.059265 0.00199238 0.00129369)
(-0.0703293 0.020395 0.00234153)
(0.0164581 0.0280003 -5.60392e-05)
(0.00905195 0.00373441 0.000311367)
(0.0121703 -0.0116456 -0.000582657)
(0.0127028 -0.00200386 0.00196868)
(0.00523589 0.00132544 0.000515028)
(0.00539806 -0.00615976 0.00108847)
(-0.0091489 0.00915144 0.000498564)
(0.00290378 0.000105613 -0.000246394)
(0.00290378 0.000105613 -0.000246394)
(-0.0091489 0.00915144 0.000498564)
(-0.00596305 0.00595996 0.000103607)
(-0.0132233 0.00181716 -0.000250517)
(-0.0105471 0.00892165 0.000107232)
(-0.0101055 -0.00706434 0.00039034)
(-0.00620552 -5.79157e-05 0.0013704)
(-0.00362124 -0.00183468 -0.000114045)
(-0.00577908 0.00331641 -0.000423559)
(-0.00261832 0.00757709 -0.000266973)
(0.00573439 0.000753166 -0.00010544)
(-0.00350225 0.00726004 -0.000440346)
(-0.000468142 -0.000654671 3.03064e-05)
(0.00121946 1.11939e-05 4.82891e-05)
(0.00137043 -0.00103085 0.000118827)
(0.00103829 -0.00104512 -5.80575e-05)
(0.00105479 -0.000215726 6.801e-05)
(0.00021971 -5.079e-05 -2.10143e-06)
(0.000392804 -7.80761e-05 -3.54051e-06)
(0.000341176 -0.000108372 -1.24934e-06)
(0.000582278 -0.000148942 -2.19158e-06)
(0.000242376 -4.96862e-05 -2.56478e-06)
(0.00042119 -7.99907e-05 -1.14988e-06)
(0.0004737 -7.45213e-05 -1.56822e-06)
(0.000333799 -7.40902e-05 -8.12956e-07)
(0.000761331 -8.66174e-05 -8.41821e-07)
(0.000842672 -0.000126109 -1.19391e-06)
(0.00107266 -0.000136086 -8.4945e-07)
(0.000523234 -7.77841e-05 -3.47947e-06)
(0.000535486 -9.37212e-05 -4.21865e-06)
(0.000871751 -0.00012801 -4.13935e-06)
(0.000901191 -0.000157899 -5.19968e-06)
(0.000782525 -5.38651e-05 -1.86129e-07)
(0.000787607 -7.70424e-05 -5.62085e-07)
(0.00102055 -8.55115e-05 7.45357e-08)
(0.000793108 -3.3075e-05 -3.31545e-08)
(0.000806426 -4.65969e-05 1.78358e-07)
(0.00105677 -5.23054e-05 2.0344e-07)
(0.000798565 -2.05353e-05 -9.46046e-08)
(0.000805025 -2.8512e-05 -1.15654e-07)
(0.00106199 -3.22901e-05 1.76676e-07)
(0.000801187 -1.27903e-05 5.15373e-08)
(0.000805844 -1.76073e-05 6.30563e-08)
(0.00106708 -2.02442e-05 1.76412e-07)
(0.00080212 -7.84915e-06 4.88373e-08)
(0.000805429 -1.08503e-05 4.99545e-08)
(0.00106871 -1.24901e-05 1.77523e-07)
(0.00080204 -4.78928e-06 4.80552e-08)
(0.000804388 -6.61151e-06 3.14344e-08)
(0.00106892 -7.59051e-06 1.7686e-07)
(0.000801413 -2.9898e-06 4.96697e-08)
(0.000803023 -4.08186e-06 2.37866e-08)
(0.0010682 -4.65382e-06 1.76346e-07)
(0.00080042 -1.86533e-06 3.92195e-08)
(0.000801725 -2.58486e-06 5.09944e-08)
(0.00106703 -2.97987e-06 1.75705e-07)
(0.000799146 -1.1812e-06 5.71223e-08)
(0.000800326 -1.68531e-06 3.14488e-08)
(0.00106529 -1.75109e-06 1.588e-07)
(0.000798114 -8.56644e-07 5.6295e-08)
(0.000798911 -1.09944e-06 6.54259e-08)
(0.00106373 -1.22724e-06 2.20678e-07)
(0.000796622 -7.02217e-07 3.62285e-08)
(0.000797496 -5.64639e-07 6.06031e-08)
(0.00106206 -9.59134e-07 1.73501e-07)
(0.000795377 -5.6516e-07 4.8488e-08)
(0.00079609 -6.36509e-07 5.86946e-08)
(0.00106018 -8.48681e-07 1.87136e-07)
(0.000793883 -4.64296e-07 4.71717e-08)
(0.000794735 -4.41736e-07 4.2169e-08)
(0.00105836 -6.12447e-07 1.75831e-07)
(0.000792298 -3.71994e-07 5.47816e-08)
(0.000793238 -3.76036e-07 3.22009e-08)
(0.00105623 -6.28761e-07 1.72414e-07)
(0.000791002 -2.85315e-07 4.22685e-08)
(0.000791731 -4.39138e-07 7.64063e-08)
(0.0010542 -3.83063e-07 1.85332e-07)
(0.000789762 -2.10392e-07 3.15957e-08)
(0.000790344 -1.47514e-08 4.96922e-08)
(0.00105259 -3.93665e-07 2.0653e-07)
(0.000787862 -2.78535e-08 5.14171e-08)
(0.000788876 -3.87071e-07 4.51809e-08)
(0.00105052 -1.87099e-07 2.15047e-07)
(0.000786469 1.684e-07 7.08388e-08)
(0.000787314 -1.56085e-07 6.34767e-08)
(0.00104819 1.17474e-07 1.70884e-07)
(0.000785294 5.48246e-07 4.59794e-08)
(0.000785983 -6.06148e-07 4.88575e-08)
(0.00104645 3.78596e-07 1.75967e-07)
(0.000784095 7.62903e-07 1.80543e-08)
(0.000784601 -2.07743e-06 5.51681e-09)
(0.00104497 1.16421e-06 2.26336e-07)
(0.000782337 7.23987e-07 2.26522e-08)
(0.000783048 1.2303e-08 1.85544e-08)
(0.00104299 9.44329e-07 1.15732e-07)
(0.000780549 7.49549e-07 2.38362e-09)
(0.000781506 -1.53018e-07 3.21145e-08)
(0.00104053 1.02554e-06 1.5144e-07)
(0.000778824 4.52146e-07 2.37387e-08)
(0.000779728 -4.38296e-07 1.31695e-08)
(0.00103816 1.00711e-06 8.52656e-08)
(0.000777626 4.35184e-08 5.48909e-08)
(0.000778178 -1.25362e-07 6.93447e-08)
(0.00103625 2.19375e-07 1.93067e-07)
(0.000776262 1.06796e-08 5.52116e-08)
(0.000776943 9.58881e-08 5.0512e-08)
(0.00103457 -1.01749e-07 1.69567e-07)
(0.00077498 7.49586e-08 6.93281e-08)
(0.000775584 2.7055e-07 6.32348e-08)
(0.00103275 1.35958e-07 1.71985e-07)
(0.000773496 1.29953e-08 6.23596e-08)
(0.000774177 -7.80707e-08 6.14057e-08)
(0.00103095 6.07518e-08 1.73711e-07)
(0.000772128 -3.5192e-08 5.0122e-08)
(0.000772719 -1.71643e-07 4.99806e-08)
(0.001029 -3.46864e-08 1.82687e-07)
(0.000770916 -2.27176e-07 1.83128e-08)
(0.000771228 -1.8396e-07 6.04879e-08)
(0.00102733 -8.36266e-08 1.75473e-07)
(0.00076901 -3.93448e-07 5.30869e-09)
(0.000769781 2.65748e-06 5.30031e-08)
(0.00102519 -5.47232e-07 6.20671e-08)
(0.000767386 -1.95787e-07 3.93279e-08)
(0.00076844 1.58358e-06 5.84717e-08)
(0.00102276 -5.21239e-07 1.36288e-07)
(0.000766117 1.52531e-07 4.64974e-08)
(0.000767066 -6.6667e-08 5.23528e-08)
(0.00102084 -2.75547e-08 1.74774e-07)
(0.000765687 4.6416e-07 4.03598e-08)
(0.000765906 -3.62215e-07 9.5096e-08)
(0.00101991 4.27327e-07 1.26714e-07)
(0.000763149 4.55275e-07 2.62123e-08)
(0.000764383 -1.06598e-06 4.90979e-08)
(0.00101786 8.20045e-07 1.94759e-07)
(0.000762067 1.59078e-07 3.35432e-08)
(0.000762684 4.27407e-07 2.61668e-08)
(0.00101536 4.47323e-07 1.24403e-07)
(0.000761071 1.66869e-08 4.82367e-08)
(0.000761494 -1.19995e-07 1.01058e-07)
(0.00101399 6.11026e-08 1.71961e-07)
(0.000759752 -2.68295e-08 6.17615e-08)
(0.000760315 -2.77335e-08 4.45145e-08)
(0.00101242 3.48685e-08 1.57738e-07)
(0.000757669 1.68783e-09 5.62321e-08)
(0.000758797 -5.53251e-07 1.60052e-08)
(0.00101022 -8.59957e-08 2.70057e-07)
(0.000756572 1.63379e-07 3.59305e-08)
(0.000757292 -3.51725e-07 -9.82317e-08)
(0.00100801 9.70991e-08 1.63974e-07)
(0.00075504 2.33079e-07 4.78939e-08)
(0.000755838 1.10259e-07 2.1859e-08)
(0.00100619 3.30573e-07 1.66454e-07)
(0.000754442 3.16261e-07 7.02908e-08)
(0.00100472 2.86995e-07 1.30511e-07)
(-0.00900481 -0.00174314 -8.45364e-05)
(0.00580154 -0.00108215 -0.000167422)
(0.00828446 -0.000286274 0.000126592)
(0.00648397 0.00716773 -2.16517e-05)
(-0.0110386 -0.00383892 -0.00132942)
(0.00237791 0.0116016 -0.000443917)
(-0.00381352 -0.000669451 0.0003076)
(0.00426808 -0.00548576 -0.000385742)
(0.00534857 -0.00714212 -0.000303948)
(0.0123413 -0.00168047 -0.000570376)
(-0.0106706 0.000619774 -0.000718361)
(-0.00546712 0.00624094 -7.64203e-05)
(-0.0217906 -0.00340701 -0.000993564)
(-0.0105369 -0.0106908 0.000535937)
(-0.000598284 0.00239884 -0.00141733)
(0.00411541 -0.00344301 -0.00106879)
(0.00915121 0.000948654 -0.000832178)
(0.00608705 0.00487615 -0.0103369)
(0.0145764 0.00497894 0.00616424)
(-0.00903006 0.0087552 -0.00068205)
(0.0173531 0.00644 0.000310578)
(0.000274679 -0.00191835 -0.00073716)
(0.00282352 0.0033572 -0.00113588)
(0.0128746 -0.000715701 -0.000932651)
(0.00863312 0.00465398 -0.000761253)
(0.00991297 -0.0091167 -0.000184412)
(0.00521522 -0.0137368 0.000704543)
(0.00450843 -0.0118173 -0.000298072)
(-0.0172649 -0.0014717 0.000680619)
(0.00363717 0.0207326 0.00145983)
(-0.00522383 -0.0130627 -0.0038533)
(0.0056719 -0.0180825 -0.00272163)
(0.007077 -0.0132858 0.00104858)
(-0.00152722 0.00853388 -0.00338992)
(0.0085066 -0.00249569 -0.00333792)
(-0.00447271 -0.00213425 -0.00253834)
(0.0154786 0.000242697 -0.0320789)
(0.00362699 0.00670625 -0.0245962)
(0.00758699 -0.00166874 0.0326189)
(0.00716887 0.00909957 0.0210836)
(-0.00588377 -0.0196325 -0.00433992)
(-0.000311356 0.00706764 -0.00119686)
(0.010182 0.0258176 0.00460864)
(0.021581 0.000321781 -0.00330562)
(0.00448738 -0.0150911 0.000180761)
(0.000163785 -0.0141803 -0.000136313)
(0.00518178 -0.00891233 -6.97781e-05)
(0.00681495 -0.0104055 -0.000704884)
(0.00212977 -0.022796 -0.000737925)
(0.000621437 -0.00167616 4.9645e-05)
(0.000700809 -0.00119787 1.25909e-05)
(0.000660081 -0.00111064 6.50951e-05)
(0.000695959 -0.00186201 -8.56454e-06)
(0.000653398 -0.000709748 3.97083e-05)
(0.000297255 -9.94585e-05 6.50641e-07)
(0.000471411 -0.000130357 -3.92429e-06)
(0.000439728 -0.000150678 -1.28367e-06)
(0.000687142 -0.000228728 -9.01337e-07)
(0.000314674 -0.000103469 1.15113e-06)
(0.000582935 -0.000167188 7.18334e-06)
(0.000615585 -0.000175155 8.51783e-06)
(0.000375191 -0.000140772 -1.45025e-06)
(0.000829582 -0.000102241 -9.14386e-07)
(0.000937567 -0.000117417 -1.47618e-06)
(0.00118937 -0.000158889 -1.14558e-06)
(0.000602083 -0.000116648 -3.72761e-06)
(0.00062782 -0.000115646 -4.91241e-06)
(0.00100683 -0.000195154 -4.33883e-06)
(0.00105239 -0.000189489 -6.14489e-06)
(0.000823048 -6.1544e-05 -1.9784e-07)
(0.00083886 -6.91632e-05 -5.60958e-07)
(0.00108628 -9.59567e-05 6.77471e-08)
(0.000817429 -3.71921e-05 9.59542e-08)
(0.000837023 -4.18624e-05 1.71149e-07)
(0.00109668 -5.76005e-05 2.06693e-07)
(0.000813099 -2.26692e-05 4.19483e-08)
(0.000823275 -2.50236e-05 1.46963e-08)
(0.00108573 -3.52552e-05 1.80905e-07)
(0.000810381 -1.38809e-05 6.14778e-08)
(0.000816888 -1.64024e-05 7.67911e-08)
(0.00108161 -2.13534e-05 1.99418e-07)