/*--------------------------------*- C++ -*----------------------------------*\
| =========                 |                                                 |
| \\      /  F ield         | OpenFOAM: The Open Source CFD Toolbox           |
|  \\    /   O peration     | Version:  5.0                                   |
|   \\  /    A nd           | Web:      www.OpenFOAM.org                      |
|    \\/     M anipulation  |                                                 |
\*---------------------------------------------------------------------------*/
FoamFile
{
    version     2.0;
    format      ascii;
    class       volScalarField;
    location    "3.8";
    object      alpha.water;
}
// * * * * * * * * * * * * * * * * * * * * * * * * * * * * * * * * * * * * * //

dimensions      [0 0 0 0 0 0 0];

internalField   nonuniform List<scalar> 
9347
(
1.05566
1.00077
1.02367
1
0.998455
1.01442
0.166255
-1.15698e-20
-1.39689e-23
9.28172e-18
2.0014e-18
5.231e-20
1.09069e-22
1.46655e-26
1.76604e-30
6.56962e-34
2.73003e-37
1.1989e-40
5.20492e-44
2.1082e-47
1.02751e-50
4.28437e-54
1.87308e-57
7.02695e-61
4.91174e-64
5.62255e-67
1.49256e-70
3.23491e-74
1.04671e-76
2.34822e-80
3.43163e-83
5.23961e-87
6.1859e-90
2.7905e-92
1.05007e-95
6.29261e-99
1.9215e-102
1.05742e-104
1.99983e-108
1.64765e-112
3.12924e-115
5.28403e-118
5.99046e-121
1.59432e-123
3.14176e-127
2.91509e-130
4.26378e-134
6.06951e-138
1.82245e-139
1.09012e-142
1.02438
1
1.02849
1.01419
0.999611
0.998456
0.535416
-5.82356e-18
-5.20394e-18
1.5029e-16
7.05381e-19
6.32799e-21
3.57649e-23
1.34769e-26
9.19212e-31
2.7266e-34
1.12984e-37
4.77983e-41
2.04062e-44
8.42439e-48
3.55675e-51
1.50994e-54
7.34959e-58
3.08891e-61
1.17983e-64
5.83727e-68
3.18205e-71
1.13398e-74
4.65026e-78
2.99831e-81
1.16896e-84
3.68179e-87
4.93389e-91
1.29511e-93
3.50043e-97
4.04577e-100
1.41453e-103
1.24924e-107
4.98674e-109
4.17736e-112
5.25468e-116
5.86633e-119
7.69727e-123
1.45104e-126
2.98641e-129
2.46624e-132
2.41533e-136
6.81839e-140
2.70421e-143
4.37057e-144
1.0334
1.05015
1.0477
1.04161
0.981018
1.01296
1.00007
-2.80156e-15
-4.16925e-18
-2.93935e-22
1.93509e-17
8.84666e-19
1.25465e-21
6.59849e-26
1.06517e-29
4.05977e-33
1.73581e-36
7.69081e-40
3.68839e-43
1.37331e-46
6.81816e-50
2.69941e-53
1.54066e-56
4.96236e-60
3.68105e-63
1.62068e-66
1.12075e-69
1.70493e-73
1.2505e-75
1.27039e-78
1.11027e-82
1.67384e-86
1.35804e-87
1.57017e-90
1.27975e-94
4.36719e-98
2.66858e-101
2.46631e-105
3.58898e-107
2.02453e-110
7.32188e-114
3.88985e-117
4.31575e-120
5.16472e-124
1.17654e-127
2.49495e-131
4.17296e-133
5.6602e-136
3.01014e-140
3.24176e-144
1.06772
0.649138
1.02711
1.03131
1.00219
1.00014
1.00016
-2.04012e-15
-1.97959e-17
-8.81871e-22
4.56633e-18
6.69688e-19
9.06261e-21
6.49043e-24
3.93492e-28
8.62536e-32
3.49183e-35
1.60556e-38
6.36578e-42
2.61785e-45
1.17567e-48
4.70037e-52
4.12354e-55
1.63722e-58
6.83313e-62
3.01175e-65
7.24681e-69
4.41188e-71
9.75789e-75
1.19688e-78
9.46087e-81
7.6004e-84
7.41238e-88
2.83163e-91
1.50098e-93
2.94074e-97
1.09031e-100
1.7661e-103
6.17463e-106
4.44484e-109
6.20794e-113
1.50277e-115
5.7681e-119
4.74897e-122
7.10737e-125
2.74708e-128
1.5986e-132
1.52022e-135
1.34253e-138
3.86273e-141
1.03419
1.05825
0.988832
0.989322
0.967246
1.00372
1.00177
0.169319
-9.61556e-18
-4.03563e-20
2.1906e-17
4.1016e-18
8.10309e-20
1.03184e-22
8.83259e-27
1.45788e-30
5.42712e-34
2.33667e-37
9.67007e-41
4.83667e-44
1.77939e-47
1.18467e-50
3.33529e-54
2.03617e-57
6.97046e-61
4.87853e-64
2.22876e-67
1.99103e-70
8.74204e-73
3.78316e-76
2.80802e-79
3.72548e-83
1.41022e-85
1.83758e-89
2.31359e-93
1.98132e-96
1.68434e-98
5.07332e-102
3.34905e-106
6.29378e-109
2.46834e-112
2.72189e-115
1.32199e-117
1.73629e-120
4.52416e-124
9.34584e-128
1.05121e-129
4.98459e-133
4.28374e-136
5.6801e-140
1.02596
1.00087
0.979732
1.00939
0.993562
1
1.00177
0.285261
-4.92145e-18
-2.11167e-20
1.71325e-17
3.22819e-18
6.39569e-20
8.36175e-23
7.23252e-27
1.14045e-30
4.40307e-34
2.7663e-37
9.11566e-41
5.74871e-44
2.48256e-47
8.07208e-51
3.05778e-54
4.23486e-57
1.31151e-60
8.35342e-63
2.8076e-66
2.21944e-70
1.06094e-72
3.54383e-75
2.7419e-78
3.87944e-82
4.54482e-86
3.93115e-89
8.32745e-92
1.27783e-95
1.06995e-98
2.24308e-101
1.82148e-105
4.61661e-108
6.2122e-111
1.87369e-113
7.6522e-117
1.28705e-120
3.0277e-124
6.48738e-127
5.56986e-131
1.09706e-134
4.0201e-138
1.05025e-141
1.03077
0.970887
1.07638
0.983843
1.0311
1.02731
1.00369
0.0726476
-1.31513e-17
-5.61665e-22
4.32692e-18
6.28662e-19
8.32691e-21
5.7933e-24
3.46893e-28
7.71631e-32
3.12451e-35
1.33314e-38
5.69242e-42
2.41934e-45
1.50241e-48
4.55652e-52
2.46542e-55
8.27726e-59
6.5857e-62
1.61607e-65
5.93885e-69
8.69525e-72
3.49779e-74
6.16858e-78
7.37303e-82
1.52125e-84
1.6443e-88
3.17201e-91
1.69857e-94
3.09481e-97
5.88052e-101
2.60834e-103
2.16493e-106
1.95092e-110
1.73276e-113
3.47751e-116
1.57834e-119
7.42904e-123
8.06623e-126
1.27547e-129
1.68907e-131
5.26877e-135
2.65333e-139
6.0345e-141
1.02618
0.991525
0.972974
1.00176
1.04002
1.03629
1.00138
-2.19734e-16
-3.94506e-18
-1.73484e-22
1.85872e-17
9.46694e-19
1.56292e-21
8.77034e-26
1.26008e-29
4.74233e-33
2.00662e-36
8.572e-40
4.38047e-43
2.03122e-46
7.04561e-50
3.72307e-53
1.99172e-56
5.2801e-60
2.09012e-63
9.82183e-66
7.64875e-69
6.29021e-73
1.30383e-76
2.54655e-78
5.97211e-82
5.2757e-85
4.85001e-88
7.99208e-92
2.99608e-95
1.50534e-97
1.54454e-101
4.1298e-104
2.4111e-107
7.20434e-110
9.15562e-114
6.01069e-117
4.45967e-120
2.38451e-123
6.30776e-127
4.57965e-131
1.50985e-134
5.87291e-138
2.30282e-141
1.52166e-144
1.03439
1.04008
0.969864
0.968083
1.00181
0.984885
1
-3.35499e-16
-2.54057e-20
1.3004e-16
3.89206e-18
8.24278e-21
3.17758e-23
1.90307e-26
1.73751e-30
4.53555e-34
1.86955e-37
7.943e-41
3.37937e-44
1.43126e-47
6.00543e-51
2.56283e-54
1.06663e-57
4.49628e-61
2.60187e-64
8.11552e-68
3.30285e-71
1.40686e-74
6.03785e-78
2.50183e-81
1.09308e-83
1.75227e-87
3.19116e-91
1.07314e-94
7.83947e-97
2.32238e-100
1.01831e-103
1.1356e-107
3.21194e-111
2.85337e-113
4.20565e-116
7.86237e-119
2.3498e-122
4.48594e-126
4.83677e-129
1.04877e-132
4.51917e-135
5.76777e-138
8.70585e-141
9.89826e-145
1.02391
1.0985
0.970604
1.01832
0.998485
1.01172
0.573926
-1.10225e-21
-2.36746e-25
3.29592e-22
1.84855e-18
6.58955e-20
1.62838e-22
2.9511e-26
3.18502e-30
1.10785e-33
4.64094e-37
1.97707e-40
8.45503e-44
3.78459e-47
1.54154e-50
6.4908e-54
2.72538e-57
1.13954e-60
5.06689e-64
2.12078e-67
1.91346e-70
5.53458e-74
1.66602e-76
4.99748e-80
3.32648e-83
3.99068e-86
2.12757e-89
1.34732e-92
1.32507e-96
1.70708e-99
3.91157e-102
6.2861e-106
3.93582e-108
1.05649e-111
7.98446e-116
3.21348e-119
4.50571e-121
1.73477e-124
5.01552e-128
1.19295e-130
1.59202e-134
2.90774e-137
3.08653e-141
2.24691e-144
1.04597
1.00008
1.02412
0.676166
0.986826
1.00965
0.171198
1.4714e-13
2.15447e-16
5.17403e-18
4.91094e-18
3.63156e-19
3.72978e-21
4.35831e-24
7.93725e-28
2.73672e-31
2.00361e-34
1.50036e-37
1.08532e-40
7.78891e-44
5.58919e-47
4.0037e-50
2.85997e-53
2.03905e-56
1.45031e-59
1.0289e-62
7.28689e-66
5.14856e-69
3.62762e-72
2.55047e-75
1.7884e-78
1.25065e-81
8.7333e-85
6.08533e-88
4.23267e-91
2.9377e-94
2.03286e-97
1.40257e-100
9.6613e-104
6.64559e-107
4.56077e-110
3.12357e-113
2.13401e-116
1.45435e-119
9.89266e-123
6.71141e-126
4.54249e-129
3.07104e-132
2.07116e-135
8.25038e-139
1.02966
0.889139
0.964508
1
1.01922
1.01386
0.53637
3.33008e-11
3.4892e-14
8.37102e-15
6.23977e-17
7.21898e-20
2.5267e-22
1.91058e-25
4.11898e-29
1.99612e-32
1.50329e-35
1.11211e-38
8.02061e-42
5.75165e-45
4.12817e-48
2.95432e-51
2.12205e-54
1.50994e-57
1.07025e-60
7.58861e-64
5.37272e-67
3.7947e-70
2.66763e-73
1.87323e-76
1.3167e-79
9.20715e-83
6.42201e-86
4.47526e-89
3.10176e-92
2.14969e-95
1.4875e-98
1.02489e-101
7.05526e-105
4.84218e-108
3.31799e-111
2.2665e-114
1.54679e-117
1.05522e-120
7.15517e-124
4.84921e-127
3.28436e-130
2.21436e-133
1.49103e-136
5.949e-140
1.03597
1.04413
1.03637
1.06321
0.939471
0.999757
1.0001
4.61241e-10
3.73563e-16
3.30242e-16
3.23222e-16
3.35477e-17
2.42973e-19
8.07414e-23
8.01402e-27
4.54772e-30
3.37356e-33
2.3891e-36
1.67082e-39
1.16691e-42
8.14227e-46
5.6724e-49
3.94312e-52
2.73682e-55
1.89451e-58
1.30899e-61
9.03375e-65
6.21867e-68
4.27221e-71
2.93398e-74
2.01097e-77
1.3759e-80
9.40299e-84
6.40918e-87
4.35344e-90
2.95534e-93
2.00287e-96
1.35432e-99
9.14425e-103
6.15866e-106
4.13861e-109
2.7768e-112
1.86025e-115
1.24428e-118
8.31157e-122
5.54155e-125
3.68592e-128
2.4465e-131
1.62026e-134
6.3583e-138
1.0611
0.999736
1.00287
1.02684
1.00786
0.998271
1.00108
1.23618e-06
6.72604e-14
9.10768e-17
3.6459e-17
6.84154e-18
2.35437e-19
8.08327e-22
2.18066e-25
3.7265e-29
2.35828e-32
1.7528e-35
1.25316e-38
8.85869e-42
6.2585e-45
4.41334e-48
3.10334e-51
2.18202e-54
1.52779e-57
1.06822e-60
7.45626e-64
5.19748e-67
3.62025e-70
2.50751e-73
1.73534e-76
1.19896e-79
8.26038e-83
5.68205e-86
3.90373e-89
2.67446e-92
1.82924e-95
1.24855e-98
8.49965e-102
5.77476e-105
3.91752e-108
2.6611e-111
1.79702e-114
1.21336e-117
8.13923e-121
5.46436e-124
3.66081e-127
2.44889e-130
1.63435e-133
6.45753e-137
1.17365
1.16426
0.988249
0.983944
0.993489
1.00664
1.00185
0.177155
3.43303e-13
7.1272e-16
2.79867e-16
7.90048e-17
4.55849e-18
2.93129e-20
1.36219e-23
1.73191e-27
9.11001e-31
6.82108e-34
4.90199e-37
3.45754e-40
2.43652e-43
1.71492e-46
1.20381e-49
8.43924e-53
5.90235e-56
4.11833e-59
2.86947e-62
1.99513e-65
1.38353e-68
9.57632e-72
6.61552e-75
4.55879e-78
3.13732e-81
2.15327e-84
1.47468e-87
1.00861e-90
6.88222e-94
4.68386e-97
3.18276e-100
2.15905e-103
1.462e-106
9.88449e-110
6.66574e-113
4.48413e-116
3.01157e-119
2.01885e-122
1.35015e-125
9.0156e-129
6.00795e-132
2.36867e-135
1.03373
1.03415
1.00448
1.02157
0.999701
0.996616
1.00249
0.302547
3.37613e-13
9.43329e-16
5.17204e-16
1.54724e-16
9.82989e-18
6.78468e-20
3.26705e-23
3.97385e-27
2.04876e-30
1.53395e-33
1.1016e-36
7.7592e-40
5.45764e-43
3.83486e-46
2.68855e-49
1.88134e-52
1.31353e-55
9.14804e-59
6.36611e-62
4.42045e-65
3.06199e-68
2.11727e-71
1.45963e-74
1.00375e-77
6.89903e-81
4.73218e-84
3.23669e-87
2.21038e-90
1.50623e-93
1.02422e-96
6.95492e-100
4.71238e-103
3.18633e-106
2.15117e-109
1.44892e-112
9.73356e-116
6.52818e-119
4.36863e-122
2.91661e-125
1.94561e-128
1.29608e-131
5.10958e-135
1.02545
0.992089
1.08503
1.0196
1.02697
1.02864
1.00439
0.0805585
6.27047e-14
7.78872e-17
2.68242e-17
4.67892e-18
1.50614e-19
5.00516e-22
1.37684e-25
2.47838e-29
1.55537e-32
1.14965e-35
8.19979e-39
5.79611e-42
4.10131e-45
2.91022e-48
2.03638e-51
1.43745e-54
1.0082e-57
7.01894e-61
4.89659e-64
3.41455e-67
2.37692e-70
1.66142e-73
1.14397e-76
7.90207e-80
5.45827e-83
3.75946e-86
2.60787e-89
1.77555e-92
1.21352e-95
8.33378e-99
5.6981e-102
3.84821e-105
2.61001e-108
1.77026e-111
1.19645e-114
8.08114e-118
5.43349e-121
3.64895e-124
2.47982e-127
1.64141e-130
1.09711e-133
4.67568e-137
1.09293
0.989181
1.03506
1
1.00645
1.03334
1.00169
3.96434e-07
4.08358e-16
3.91083e-16
3.91313e-16
4.41536e-17
3.68589e-19
1.46419e-22
1.3873e-26
7.42936e-30
5.53111e-33
3.92653e-36
2.74664e-39
1.91909e-42
1.3398e-45
9.33418e-49
6.4883e-52
4.50405e-55
3.1206e-58
2.15709e-61
1.48849e-64
1.02494e-67
7.04218e-71
4.83445e-74
3.31531e-77
2.26849e-80
1.54924e-83
1.05535e-86
7.17363e-90
4.87105e-93
3.3007e-96
2.23172e-99
1.50738e-102
1.01586e-105
6.8293e-109
4.584e-112
3.07119e-115
2.05311e-118
1.37067e-121
9.13154e-125
6.06666e-128
4.02561e-131
2.66909e-134
1.04841e-137
1.04966
1.03799
0.998869
1.00394
1.01044
0.961741
1.00008
2.65662e-11
3.1199e-15
6.75121e-15
4.74468e-16
1.12469e-18
1.81076e-22
4.14621e-26
1.92059e-29
1.26772e-32
9.01111e-36
6.22132e-39
4.2668e-42
2.99395e-45
2.09314e-48
1.47216e-51
1.03623e-54
7.23457e-58
5.26763e-61
3.63662e-64
2.48844e-67
1.73786e-70
1.22721e-73
8.43575e-77
6.01414e-80
4.08212e-83
2.86745e-86
1.94865e-89
1.34179e-92
9.2675e-96
6.38205e-99
4.37126e-102
2.9922e-105
2.05084e-108
1.39926e-111
9.55297e-115
6.52985e-118
4.40942e-121
2.99777e-124
2.05442e-127
1.3713e-130
9.21313e-134
6.21029e-137
2.48534e-140
1.0506
1.02444
1.03305
1.01844
1.01099
1.03064
0.573198
4.58159e-13
9.76826e-16
3.51177e-18
2.80127e-18
1.89078e-19
1.44139e-21
1.31166e-24
2.56842e-28
9.93702e-32
7.32929e-35
5.51781e-38
4.01529e-41
2.89789e-44
2.08987e-47
1.50404e-50
1.07942e-53
7.73346e-57
5.52643e-60
3.93842e-63
2.80123e-66
1.98806e-69
1.40771e-72
9.94297e-76
7.00426e-79
4.92059e-82
3.44763e-85
2.41114e-88
1.68226e-91
1.17183e-94
8.14119e-98
5.63986e-101
3.89818e-104
2.69011e-107
1.85204e-110
1.27232e-113
8.72035e-117
5.9621e-120
4.06837e-123
2.7691e-126
1.88051e-129
1.27557e-132
8.62688e-136
3.44419e-139
1.08467
1.08968
0.939636
1
0.997576
1.00741
0.173206
-6.22034e-20
-1.40938e-23
4.46136e-18
9.78843e-19
2.58453e-20
6.04726e-23
9.55671e-27
1.10584e-30
4.17438e-34
1.66502e-37
7.15519e-41
3.30894e-44
1.98351e-47
6.92869e-51
3.37513e-54
1.42744e-57
4.65543e-61
4.40858e-64
5.16625e-67
1.64456e-70
5.70006e-74
3.37426e-77
9.08333e-81
8.30652e-83
3.75348e-86
7.3402e-90
2.02326e-92
1.01693e-95
3.62494e-99
2.79986e-102
2.90164e-105
2.35014e-109
3.4218e-111
1.62777e-114
1.2536e-118
5.42172e-121
9.28311e-125
3.83487e-128
2.74272e-130
5.10657e-134
4.96939e-137
6.56078e-140
1.10721e-142
1.05135
0.914163
1.05727
0.846592
0.992022
1.00449
0.536476
1.53771e-11
-5.26422e-18
1.47547e-16
1.23793e-18
7.47382e-21
4.34242e-23
1.69725e-26
1.13902e-30
3.34527e-34
1.38512e-37
5.85659e-41
2.47949e-44
1.03175e-47
4.41937e-51
1.83354e-54
8.72201e-58
3.26452e-61
1.40771e-64
6.01876e-68
3.25941e-71
1.22462e-74
2.25567e-77
5.00559e-81
4.80773e-84
6.65494e-87
6.08239e-90
9.91423e-94
8.43323e-97
4.75147e-100
7.63201e-104
2.23909e-107
1.35662e-108
2.01851e-111
2.0727e-115
3.66808e-119
1.83479e-122
9.49652e-125
2.5351e-128
6.82349e-132
8.21488e-135
8.35291e-139
1.75921e-142
3.19995e-145
1.20943
1.01202
1.10034
1.02285
0.973882
1.00154
1.00015
2.26605e-10
-4.04245e-18
-3.1454e-22
1.92982e-17
8.85219e-19
1.26793e-21
6.92793e-26
1.13784e-29
4.29998e-33
1.82761e-36
8.41363e-40
3.94616e-43
1.43052e-46
8.16237e-50
2.66014e-53
1.7319e-56
1.23396e-59
5.23371e-63
1.30563e-66
1.43397e-69
2.39038e-73
8.94415e-77
1.2578e-78
2.97974e-82
1.87139e-86
7.33763e-90
1.44885e-91
4.29988e-95
3.98141e-98
2.48411e-101
7.86861e-105
7.90275e-108
3.24449e-111
1.16608e-113
2.92093e-117
4.87566e-121
1.33516e-123
2.5011e-127
2.41538e-131
7.44378e-133
6.68517e-136
1.34313e-139
3.50799e-142
1.05876
1.10522
1.00768
0.992925
0.998019
1.00995
1.00106
9.81086e-07
-1.99706e-17
-8.28548e-22
4.71931e-18
6.92397e-19
9.37824e-21
6.71332e-24
4.06551e-28
8.90596e-32
3.60925e-35
1.55768e-38
6.48956e-42
2.74725e-45
1.165e-48
4.76649e-52
2.46513e-55
1.58365e-58
5.22781e-62
2.74513e-65
6.9809e-69
7.63289e-71
4.44875e-74
2.89201e-78
8.375e-81
7.79712e-84
6.67041e-88
1.71571e-91
3.81221e-94
7.45563e-98
1.45781e-100
1.70573e-103
1.04664e-107
1.22618e-109
7.90654e-113
1.41379e-115
1.49933e-118
8.03849e-122
6.87801e-125
2.65794e-128
1.80318e-131
1.11323e-135
2.55723e-139
9.9723e-143
1.16446
1.08432
0.982312
0.991675
1.00751
1.01008
1.00179
0.177935
-9.44566e-18
-3.20449e-20
2.26112e-17
4.24797e-18
8.45104e-20
1.07928e-22
9.23458e-27
1.46994e-30
5.62377e-34
2.38008e-37
1.1478e-40
4.31717e-44
1.76094e-47
7.88924e-51
3.61496e-54
2.11193e-57
1.02764e-60
1.16181e-63
2.02418e-67
5.24499e-71
2.97464e-74
1.73255e-76
2.02283e-79
1.17614e-83
1.2134e-85
3.24978e-89
3.73981e-92
3.82331e-96
1.42304e-98
4.36779e-102
1.77234e-104
1.02096e-107
8.23181e-112
5.13021e-114
2.24107e-117
5.39878e-121
3.31169e-124
6.04658e-128
1.61455e-129
7.83994e-133
2.82111e-136
5.94393e-139
1.00621
1.04225
1.00144
0.998417
0.977603
0.99233
1.00228
0.304467
-6.36395e-18
-2.87228e-20
1.74784e-17
3.31472e-18
6.56416e-20
8.5991e-23
7.43902e-27
1.17238e-30
4.53647e-34
1.99894e-37
8.41119e-41
1.24002e-43
2.29995e-47
1.96762e-50
6.16537e-54
1.58245e-57
1.09483e-60
2.79587e-64
2.89477e-67
4.90044e-71
1.77478e-74
2.13677e-75
2.50435e-78
1.15883e-81
7.57612e-86
8.49745e-89
1.08236e-92
2.05355e-95
1.50929e-98
2.43684e-101
1.98616e-105
1.02957e-107
6.35975e-111
9.99077e-115
5.00772e-117
2.45802e-120
9.05942e-124
5.52964e-128
1.63351e-131
7.75198e-133
4.04564e-136
1.34285e-140
1.01891
1.04812
0.73856
0.997215
1.02146
1.02903
1.00394
0.0803029
-1.27874e-17
-7.77653e-22
4.20607e-18
6.10451e-19
8.06822e-21
5.60975e-24
3.36057e-28
7.4837e-32
3.02997e-35
1.32351e-38
5.54359e-42
2.32425e-45
1.60627e-48
4.76365e-52
2.08692e-55
1.10345e-58
4.29689e-62
3.86814e-65
8.48111e-69
2.9686e-72
2.89476e-74
1.41316e-77
8.48107e-82
5.83562e-85
1.41685e-88
3.32e-91
7.79292e-94
2.47757e-97
3.34884e-101
2.03245e-103
4.19281e-107
5.5226e-111
1.35216e-113
1.39877e-116
1.83673e-119
6.02725e-123
4.07355e-126
2.60859e-130
6.12684e-134
2.37919e-137
1.54524e-140
1.17797e-140
1.08278
1.01667
1
0.985392
0.980927
1.03103
1.00156
3.16711e-07
-4.05193e-18
-1.38693e-22
1.86521e-17
9.58445e-19
1.60366e-21
9.02024e-26
1.28785e-29
4.81513e-33
2.03353e-36
8.61185e-40
4.23664e-43
2.03031e-46
7.08288e-50
4.34073e-53
2.38404e-56
5.45212e-60
9.43754e-63
1.35814e-66
5.17666e-69
6.59532e-72
4.25369e-76
1.21444e-79
3.60587e-83
1.84117e-85
3.3934e-88
1.36365e-91
2.02374e-95
5.76395e-98
3.47629e-101
1.97124e-104
2.00649e-107
2.20109e-110
5.32661e-114
2.74915e-116
1.07743e-119
2.27416e-123
6.55434e-127
6.6557e-131
2.28138e-134
8.90499e-138
3.49937e-141
1.48383e-144
1.06072
1.09625
1.0109
1
0.998665
0.973867
1.00008
1.26138e-11
-2.40627e-20
1.39709e-16
4.4342e-18
8.37527e-21
2.89874e-23
1.69422e-26
1.57556e-30
4.15535e-34
1.71395e-37
7.26836e-41
3.09302e-44
1.31234e-47
5.50859e-51
2.33096e-54
9.78221e-58
4.13318e-61
1.72575e-64
9.22021e-68
3.18256e-71
1.2844e-74
5.22026e-78
2.31793e-81
7.09506e-84
1.15838e-87
1.60569e-90
1.18287e-93
8.52414e-97
2.47881e-100
9.71274e-104
7.58528e-107
7.58548e-111
4.10972e-113
6.41356e-117
9.28914e-121
1.45498e-122
1.20886e-125
3.47008e-129
5.55469e-133
1.59905e-135
1.61555e-138
9.64555e-141
2.40862e-144
1.09281
1.03737
1.03605
1.01947
1.00645
1.0437
0.573175
-1.09625e-21
-2.39352e-25
2.51933e-22
1.34514e-18
4.74625e-20
1.14005e-22
2.07521e-26
2.27325e-30
7.9039e-34
3.31927e-37
1.43371e-40
6.0564e-44
2.56898e-47
1.10434e-50
4.78511e-54
1.96021e-57
8.3684e-61
4.01234e-64
1.95399e-67
7.5971e-71
2.98674e-74
3.95827e-77
3.0773e-80
3.55905e-84
4.53583e-86
1.83746e-89
1.43582e-93
5.28947e-97
2.48463e-99
1.20423e-102
1.78391e-106
3.99147e-108
2.42886e-111
6.13429e-115
1.43867e-117
4.18428e-121
7.23185e-125
1.34415e-127
1.24041e-130
6.64366e-134
4.99762e-137
3.99588e-141
8.65427e-145
0.883638
1.04068
0.995202
1.00871
0.882456
1.04016
0.990147
1
1.01494
1.00036
1.01712
1
0.999589
1.00082
1.00105
0.997192
1.00216
1.00135
1.00154
0.979758
1.00265
1.00042
1.00151
1.00163
0.995996
1.0011
1.009
1.00136
1.00391
1
1.00295
1.00442
1.00383
1
1.00252
1.00231
1.01955
1.00528
0.999975
1.00186
1.0194
1.00531
1.00481
1.00553
1.00373
1.03003
1.00636
1.02362
1.00351
1.00456
1
1.00132
1.03222
1.00412
0.998888
1.00137
1.00026
1.01101
1
0.973745
1.00046
1.00557
1
1.00007
1.00097
0.935062
1.02289
1.00016
1
0.932973
0.88333
1.03648
0.989466
1.00671
0.880783
1.03346
0.99059
1
0.974072
1.00104
1.00571
1
0.983189
1.00126
1.00181
0.983898
1.00298
1.00138
1.0016
1
1.00244
1.00162
1.0145
1.00155
1.00887
1.0017
1.01523
1.0013
1.00455
1
1.00318
1.00728
1.00387
1
1.00225
1.00221
1.01981
1.00588
0.997923
1.00203
1.01897
1.0054
1.00648
1.02298
1.00412
1.02822
1.00608
1.0375
1.00373
1.0044
0.994319
1.00166
1.03157
1.00449
0.997616
1.00136
1.00079
1.00903
1.00007
0.957316
1.00062
1.00575
1
1.00044
1
0.938449
1.03883
1.00025
1
0.932362
0.881142
1.03408
0.991154
1.00611
0.885627
1.02965
0.996534
1
0.982212
1.00138
1.0007
1
1.01544
1.00136
1.0018
1.00036
1.00305
1.00315
1.00144
0.996987
1.00202
1.00201
1.0221
1.00158
1.01435
1.00097
1.02064
1.00162
1.00435
1
1.00294
1.00849
1.00385
0.999895
1.00245
1.00231
1.01708
1.00572
0.996426
1.00209
1.01547
1.00529
1.00638
1.04332
1.00419
1.02423
1.00544
1.04771
1.00373
1.00491
0.993329
1.0016
1.03187
1.00506
0.992072
1.00128
1.00059
1.00351
1.00011
0.994623
1.00033
1.01491
1
1.00052
1
0.932064
1.05331
1.00005
1.01309
0.93668
1.02141
1.08479
1.10123
0.954574
0.997006
1.02587
1.08536
1.00636
1.00839
1.00285
1.01235
1.00394
1.00776
1.0071
-2.33589e-20
0.335451
-5.13925e-20
0.171908
5.77372e-11
0.345232
5.77371e-11
1.00155
1.00445
0.956504
1.00427
1.00594
0.987786
0.970551
1.01145
1.0112
0.966067
1.00169
1.01088
1.03713
1.00798
-5.68407e-17
1
-4.97439e-18
0.536462
1.35289e-08
1
2.22571e-09
0.981615
1
0.735224
0.970293
1
1.02426
0.792414
1.0019
1.00241
1.01378
1.00719
1.00242
1.02809
1.00317
-1.10089e-17
1.00101
0.0756383
1.00022
2.02534e-07
1.00136
0.0822542
0.902512
0.970531
0.994075
1.01056
0.967644
0.94755
0.988624
1.00592
1.00025
1.013
1.00255
1.00204
1
1.00055
0.276319
1.00173
0.799647
1.00097
0.285111
1.00148
0.800138
0.998525
0.988019
0.999831
0.982558
0.997525
0.996032
0.972198
1.00215
1.00431
1.00001
1.00304
1.00474
1.00001
1.00315
0.896496
1.00176
0.975676
1.00208
0.893092
1.00216
0.963335
0.965992
1.02455
1.02606
0.993812
0.983839
1.03216
1.03787
0.999356
1
0.978235
0.999643
0.999996
0.983628
1.00002
0.979226
1.00264
0.890112
1.00263
0.96561
1.0031
0.884319
1.05979
1.02615
0.972616
0.994685
1.05058
0.977434
1.07708
1.01155
1.01808
1.01705
1.02821
1.01816
1.01852
1.01045
0.777257
1.00189
0.275796
1.00428
0.778429
1.0018
0.286834
1.17221
1.00135
0.96311
1.02649
1.21216
0.982286
0.88519
1.00946
1.0152
0.964968
1.034
1.00598
0.941895
1.01372
0.0929765
1.00021
-5.56421e-17
1.0019
0.0996205
1.00032
2.59128e-07
0.859532
1.02888
1.00464
1.00379
0.864349
1.00367
1.00029
0.988451
1
0.960833
0.975104
1
0.984159
0.987927
-1.6877e-15
0.713645
-1.99176e-19
1.00012
1.20086e-08
0.714623
1.92772e-10
0.980384
0.982346
0.963878
1.02109
0.995316
1
0.964061
1.00138
1.01247
0.945778
1.03611
1.0111
0.973046
1.0002
-3.16872e-17
0.200404
-3.07345e-20
0.573854
3.54013e-10
0.205911
4.29942e-10
0.987423
0.970777
1.11365
0.98956
0.987351
1.13004
1.07154
1.00478
1.00651
0.999696
1.00826
1.00549
1
1.00611
2.25269e-10
0.346495
2.25269e-10
0.174062
2.25269e-10
0.344784
2.25269e-10
0.998222
0.957008
0.997281
0.992996
1.00408
0.979282
0.908625
1.00791
1.00848
0.954172
1.01937
1.00969
1.00689
0.947924
2.27067e-08
1.00005
4.38581e-09
0.536693
2.31436e-08
1.00001
4.40987e-09
0.994211
1.02196
0.852348
0.939351
0.995175
1.01138
1.0017
0.990112
1.00162
0.982024
0.999433
0.987833
1.00107
0.969445
3.19164e-07
1.00182
0.0821531
1.00041
3.20781e-07
1.00134
0.082313
0.986413
0.949154
0.996627
1.00146
0.967056
0.989309
0.964778
1.00925
1.00343
0.998008
0.999186
1.00788
1.00347
1.00355
0.285112
1.00158
0.80008
1.00116
0.285307
1.00135
0.801099
0.998082
0.998787
0.96039
1.00827
1
1.00198
0.952022
1.00255
1.00444
0.99813
1.00665
1.00223
1.00439
0.994225
0.894777
1.00244
0.964258
1.0021
0.895078
1.00241
0.963952
0.998898
1.02846
1.03568
0.999524
0.975593
1.03172
1.02179
0.998894
0.998499
0.99795
0.993082
0.998168
0.995475
0.996158
0.96805
1.00311
0.886369
1.00284
0.967066
1.0033
0.885845
1.00918
1.05503
1.02472
1.01163
1
1.04965
1.03822
1.01105
1.01681
1.01913
1.0291
1.01135
1.01663
1.02599
0.77745
1.00221
0.289371
1.00386
0.778518
1.00178
0.288215
1.11556
1.01057
0.922494
0.985431
1.0423
1.00947
0.931351
1.00793
1.01777
1.03239
1.03199
1.00993
1.01717
1.02914
0.100195
1.00076
3.92235e-07
1.00188
0.100768
1.00031
3.89724e-07
0.865175
1.00084
1.01792
1.0067
0.929877
1.00759
1.02433
0.994635
1
0.951896
0.97136
0.992025
0.998479
0.941643
2.02406e-08
0.714436
3.50921e-10
1.00019
2.01928e-08
0.714537
3.71541e-10
1.00483
1.00288
0.960628
0.999564
1.03323
0.971437
0.998572
1.00334
1.01384
0.982903
1.03572
1.00299
1.01388
0.999588
1.13106e-09
0.19972
1.3758e-09
0.573521
1.13106e-09
0.207
1.36814e-09
0.996308
1.04179
1.03685
0.999431
1.06281
0.956758
1.00217
1.00285
1.00444
1.00036
1.0065
1.00291
1.00182
1.00361
6.02052e-11
0.34373
6.02051e-11
0.164331
-1.95698e-20
0.33389
-4.65966e-20
0.986647
1.00371
0.906108
0.973898
1.00048
1.03407
1.00239
1.00732
1.00418
0.99911
1.0018
1.00692
1.00372
1.00182
1.42084e-08
1.00005
2.24583e-09
0.535482
-6.90105e-17
1.00001
-4.78745e-18
0.9991
1.00626
1.01976
0.975746
1.00486
1.00836
0.976069
0.999
1.00158
0.998531
1.00235
0.995427
1.00262
0.999974
2.04741e-07
1.00172
0.0818838
1.00011
-4.13995e-16
1.00106
0.0755121
0.973506
1.01749
0.971836
0.999555
0.963543
1.04293
0.988613
1.01475
1.00795
1.02566
1.01278
1.01366
1.0087
1.02752
0.284014
1.00149
0.799577
1.00029
0.275681
1.00152
0.800301
0.991841
1.00103
0.961253
1.02049
1.01914
1.01118
1
1.00145
1.00347
1.00806
1.02199
1.00152
1.00345
1.0105
0.893504
1.0023
0.962754
1.00169
0.896803
1.00155
0.97602
0.978644
1.02863
1.03001
1
0.82327
1.02925
1.02786
0.995277
0.996404
0.986352
0.97625
0.995659
0.999617
0.98612
0.966472
1.00299
0.885474
1.00193
0.979456
1.00272
0.890112
0.967081
1.00139
1.03829
1.01575
0.940383
1.0107
1.04307
1.01079
1.01658
1.02593
1.02696
1.01078
1.01659
1.02257
0.777016
1.00212
0.288147
1.00382
0.776497
1.00186
0.276557
1.04588
1
0.984502
0.990716
1.04754
0.951899
0.966668
1.00547
1.01763
1.01118
1.03048
1.00611
1.01737
1.01104
0.0992494
1.00067
2.54571e-07
1.00131
0.0927151
1.00016
-4.90213e-17
0.950128
1.00346
1.02141
0.988006
0.731279
1.01612
1.02682
0.998629
0.997994
0.923741
0.963039
0.993525
1
0.997005
1.21765e-08
0.714561
1.7641e-10
1
-1.59052e-15
0.713631
-1.95083e-19
0.995187
0.965953
0.938258
1.10211
1.0519
1.00572
1.05769
1.00631
1.01491
1.05379
1.06094
1.00506
1.01338
1.03289
3.55705e-10
0.206948
3.55705e-10
0.573933
-3.37931e-17
0.198941
-3.51266e-20
1.00295
1.00045
0.907037
0.881621
0.903513
1.00252
1.00084
1.01481
1.05956
1.01671
1.04361
1.06213
1.01595
1.02084
1.00057
0.923335
1.00522
0.992773
0.922195
1.00516
1.00014
1.00644
1.01026
1.00682
1
1.00004
1.00516
1.00767
1.00309
0.880024
1.00067
0.902535
0.901467
1.0027
1.00099
1.01493
1.03919
1.06621
1.0143
1.05674
1.01599
1.01096
1.00129
0.991619
0.92162
1.00435
0.92206
1.00505
1.0016
1.00643
1.00549
1.00098
1
1.00525
1.00121
1.00662
0.999449
0.980118
1.00101
1.04823
0.980948
1.00234
0.999572
1.00127
1.00042
0.999988
1.00037
1.00057
1.00022
1.00153
1.01027
1.02244
1.01015
0.990301
1.01177
1.01157
1.00977
1.00684
1
1.00503
1.00144
1.00516
1.00116
1.00639
0.99985
1.05677
0.946906
1.0027
0.946524
1.00216
1.00165
1.00108
1.00091
1.00061
1.00142
1.00066
1.00103
1.0013
1.00191
1.00163
1.00216
1.00122
1.00188
1.00205
1.00227
0.976104
0.964532
1.00001
0.981684
0.930731
1.00018
0.976119
0.999996
1.00461
1.00231
1.00237
1.00332
1.0023
1.00027
0.999177
1.01417
1.00174
1.00038
1.0023
1.04318
1
1.00135
1.00182
1.00207
1.00174
1.00236
1.00217
1.00049
0.986666
0.989206
0.930934
1.00127
0.929598
1.00046
0.98499
1.00003
1.00289
1.00463
1.00254
1.00355
1.00249
1.00042
0.999887
1.00041
1.00002
1.00059
1.00074
1.00007
0.998662
0.999978
0.952866
1.00085
1
0.955124
1.00027
1.00009
1.00006
1.00029
1.00122
1.00135
1.00018
1.001
1.00014
1.00515
0.997557
1.0024
0.998342
1.00228
0.999619
1.00639
1.00013
1.00114
1.00193
1.00023
1.00137
1.0004
1.0002
0.998373
1.00155
0.955963
1.00263
0.955611
1.00019
0.997788
1
1.00148
1.00014
1.00145
1.00044
1.00108
0.999326
1.00366
1.00415
1.00476
1.00396
1.00403
1.00461
1.00414
1.00032
1.00001
1.00005
1
1
1.00017
1.00076
1.00198
1.00369
1.00122
1.00277
1.00361
1.00085
1.00242
1.00203
1.00346
1.00463
0.999403
1.00472
0.999961
1.00195
1.00401
1.00448
1.00399
1.00446
1.00435
1.00474
1.0037
1.00074
1
1
1.00013
1.00003
1.00031
1.00039
1.00236
1.00323
1.00337
1.00094
1.00404
1.00115
1.00178
1.00027
1.00065
1.00281
1.00203
1.00042
1.00271
1.00068
1.00594
1.01317
1.01031
1.01926
1.01086
1.01094
1.00593
1.00362
1.00426
1.00658
1.00517
1.00398
1.00664
1.00357
0.999493
0.99901
1
0.994628
0.999983
0.992199
0.998752
1.00029
1.00225
1.00035
1.00263
1.00065
1.00303
1
1.0059
1.01945
1.00957
1.01186
1.00878
1.01126
1.00516
1.00394
1.00561
1.00389
1.00684
1.00436
1.0069
1.0037
1.00704
1.00854
1.00532
1.00402
1.00829
1.00518
1.00758
1.00294
0.895726
1.01414
0.990563
0.901183
1.01203
1.00394
1.00479
1.00368
1.00798
1.00353
1.00359
1.00803
1.00437
1.01157
1.02831
1.01744
1.01516
1.01779
1.01541
1.01151
1.00698
1.00437
1.0078
1.00514
1.00767
1.0054
1.00666
1.00214
1.03072
1
1.01548
0.941854
1.01572
1.00321
1.00522
1.00409
1.00367
1.00791
1.00437
1.00798
1.00493
1.00955
1.01164
1.0028
1.00426
1.01146
1.00294
1.01015
1.00642
0.995284
1.00101
0.997517
0.998061
1
1.00782
1.00764
1.00246
1.00322
1.00137
1.00268
1.00244
1.00803
1.01368
1.05549
1.01834
1.02833
1.02049
1.01058
1.01254
1.00938
1.00444
1.01144
1.00319
1.01158
1.0033
1.0091
1.0064
0.999262
1.00351
1.00001
1.00004
1.00008
1.00603
1.00765
1.00168
1.0029
1.00227
1.00297
1.00248
1.00735
0.998213
1.00073
1
1.00044
1.00075
1
0.998568
0.956996
0.996668
1
0.996172
0.994431
0.997675
0.946769
0.984693
0.999396
0.998156
1
0.999999
0.99816
0.985752
0.987044
0.975071
1
0.950191
1
0.951416
0.991848
0.999453
1.00084
1.00056
1
1.00084
1.00009
0.997212
0.988929
1.00551
0.991741
0.996319
0.989469
0.996715
0.982388
0.979788
1.00028
0.998731
0.99751
0.999979
0.999182
0.986149
1.00086
1.00228
1
1.00015
1.00289
0.997951
1.00093
1.00044
0.989656
1.00433
1.00005
0.991637
1.0015
1.00248
1.00076
0.965331
1.00038
0.930695
0.9631
1.00076
1.00068
1.00193
1.01238
1.01255
0.973485
1.01093
0.972771
1.00181
1.00098
1.00047
1.00231
0.994383
1.003
0.996111
1.00075
1.00081
0.99968
1
1.00076
0.996353
1.00027
1.002
1.00095
0.924921
0.959298
1.00053
0.96079
1.00084
1.0013
1.00203
1.0006
0.903324
0.883765
1.00257
0.90567
1.00035
1.01101
1.04996
1.01335
1.03406
1.01233
1.0412
1.01285
1.00208
0.920134
1.00439
0.989648
1.00196
0.917775
1.00417
1.00439
1.00849
1.00501
1
1
1.00352
1.00566
1.00158
0.88213
1.00087
0.911434
0.909105
1.00109
1.0008
1.00982
1.03388
1.0122
1.01196
1.03192
1.01256
1.00691
1.00217
0.990112
0.916421
1.00387
0.915808
1.0041
1.00189
1.00652
1.00512
1.00201
1
1.00659
1.00497
1.00224
0.997941
0.951197
1.00282
0.961275
1.00043
0.96857
1.00269
1.0011
1.00087
1.00158
1.00104
1.00129
1.00088
1.00158
1.00788
1.00304
1.00434
0.999599
1.00493
0.998139
1.00682
1.00648
1
1.00488
1.00265
1.00498
1.00255
1.00637
1.00322
0.961027
0.942192
1.00244
0.921267
1.00264
1.00194
1.00152
1.00122
1.0011
1.00202
1.00109
1.00165
1.00159
0.999742
1.00216
1.00164
1.0016
1
1.00205
1.00145
0.983778
0.931696
1.00192
0.978596