/*--------------------------------*- C++ -*----------------------------------*\
| =========                 |                                                 |
| \\      /  F ield         | OpenFOAM: The Open Source CFD Toolbox           |
|  \\    /   O peration     | Version:  5.0                                   |
|   \\  /    A nd           | Web:      www.OpenFOAM.org                      |
|    \\/     M anipulation  |                                                 |
\*---------------------------------------------------------------------------*/
FoamFile
{
    version     2.0;
    format      ascii;
    class       surfaceScalarField;
    location    "3.8";
    object      alphaPhi10;
}
// * * * * * * * * * * * * * * * * * * * * * * * * * * * * * * * * * * * * * //

dimensions      [0 3 -1 0 0 0 0];

internalField   nonuniform List<scalar> 
27955
(
-2.36209e-08
-1.22833e-08
1.68456e-08
-7.12106e-09
-4.43432e-09
-8.42341e-09
1.54712e-07
2.00773e-08
-2.28898e-07
1.88175e-07
2.40771e-08
1.75413e-08
-3.93561e-08
-1.00989e-07
-1.04559e-07
4.02485e-08
-3.6235e-08
5.2698e-08
2.10234e-09
-1.84906e-08
-1.48522e-08
-1.05399e-08
-1.22242e-08
-1.82504e-07
3.21958e-08
8.59515e-08
1.51778e-07
2.14542e-08
-1.06924e-08
-5.45813e-09
6.02466e-08
-7.08082e-08
3.45693e-08
2.57644e-08
-8.96192e-09
-4.43505e-09
-1.25242e-09
1.88945e-08
8.62624e-12
6.27755e-08
6.27877e-08
6.27763e-08
2.08839e-22
1.7737e-18
-8.83442e-20
2.23659e-18
1.12198e-17
-2.74066e-17
1.17032e-17
1.74809e-18
2.37358e-18
1.75074e-18
1.47615e-25
1.62197e-22
-4.88308e-25
9.76447e-27
3.71598e-26
2.04622e-28
5.07377e-28
-5.22039e-29
4.59532e-30
2.05371e-30
8.49727e-31
7.08153e-32
4.42873e-34
1.39593e-33
-5.20578e-34
4.41721e-38
4.75026e-38
8.89631e-37
1.49937e-41
2.21364e-41
1.81641e-40
6.33942e-45
9.96287e-45
4.43215e-43
2.70831e-48
1.56818e-48
1.34856e-47
1.16049e-51
4.5748e-52
3.56224e-49
4.93669e-55
5.29284e-55
-2.23887e-52
2.10137e-58
2.15807e-59
-1.60267e-55
9.04262e-62
-1.62353e-63
3.38075e-59
3.83774e-65
1.4887e-66
-5.13459e-62
1.61741e-68
6.24099e-69
-9.58114e-65
6.96812e-72
-8.62131e-74
4.6092e-69
3.72617e-75
4.88299e-76
3.23443e-71
2.19431e-78
-2.50618e-79
-9.28224e-75
7.22874e-82
-1.34563e-83
-1.20902e-77
3.98608e-85
-2.23584e-87
-7.74893e-81
4.18805e-88
-3.35444e-89
3.27375e-83
1.27829e-91
-1.95457e-93
6.40591e-88
1.02001e-94
5.28784e-95
3.06073e-91
3.04941e-98
1.95571e-99
-1.57653e-94
5.54958e-101
9.21285e-104
1.25444e-97
1.4873e-103
-8.46635e-104
2.1875e-99
2.88677e-107
-9.75079e-109
-7.29625e-103
1.64327e-110
-1.31866e-111
-8.71689e-106
2.04077e-113
2.04077e-115
1.07841e-109
6.64626e-116
4.31648e-117
-3.12831e-112
5.18476e-120
-1.17797e-120
1.91144e-118
1.95012e-123
-1.52259e-124
1.62491e-124
1.93578e-126
1.01879e-127
-9.32431e-122
2.19094e-129
2.34021e-130
2.30062e-125
3.45364e-132
5.05009e-133
2.32872e-127
7.06194e-135
1.49085e-135
-2.94625e-131
1.17453e-138
-2.49233e-140
-1.61059e-134
8.27512e-142
7.10974e-142
-9.76572e-137
1.92725e-145
2.69524e-148
1.78148e-141
3.24878e-148
-8.90188e-152
6.05148e-147
3.59272e-150
1.43184e-151
-4.72175e-147
3.23157e-155
5.15124e-155
1.63441e-10
-1.92189e-08
1.27291e-09
-1.28634e-08
9.33943e-09
6.42153e-08
4.91201e-08
3.1451e-08
2.6528e-08
-4.68449e-08
1.67513e-07
2.4515e-07
2.31104e-09
4.70702e-09
-9.68898e-09
3.25255e-08
-1.34549e-08
2.01328e-08
-7.40212e-09
-3.45846e-09
-1.00882e-08
-4.79593e-09
9.78604e-09
1.42332e-08
2.45551e-08
-6.35415e-09
-1.16831e-09
-6.68207e-09
2.14037e-08
-9.44847e-09
-2.94089e-10
-6.51904e-09
2.24346e-10
-3.66198e-11
1.78198e-08
3.18851e-11
1.77973e-08
-1.78078e-18
1.74171e-18
2.76599e-08
2.40414e-18
-1.11452e-24
-1.97586e-22
1.87152e-23
6.80848e-22
6.71793e-22
9.67126e-22
5.81419e-22
1.43781e-25
3.14229e-26
2.62166e-26
1.07381e-28
3.88082e-27
3.633e-30
1.5315e-31
-2.64786e-29
3.78781e-32
3.26188e-34
-6.44119e-33
2.17096e-34
2.6314e-38
-3.81298e-37
7.76182e-38
6.4336e-42
-6.81076e-41
2.06891e-41
2.64718e-45
-1.22623e-44
-6.90412e-44
1.12704e-48
-4.35591e-48
-1.21638e-47
4.79728e-52
-2.99429e-52
-1.44278e-50
2.03509e-55
2.8783e-55
-8.0203e-53
8.58243e-59
-7.60624e-59
1.19187e-56
3.61783e-62
-4.2569e-63
3.53852e-60
1.5367e-65
-6.62928e-66
-4.23009e-63
6.5771e-69
-8.93539e-69
-2.38392e-65
2.74852e-72
1.85646e-72
-2.2796e-69
1.14907e-75
-5.98369e-76
1.42945e-72
4.99802e-79
-2.23644e-79
4.00501e-75
2.17556e-82
-2.92618e-84
-6.89587e-79
8.95185e-86
-4.28608e-87
-3.78968e-82
3.90747e-89
1.2232e-89
-7.10263e-85
1.77864e-92
1.69514e-91
5.30939e-90
1.19653e-95
4.9139e-97
3.01959e-94
1.52802e-98
5.77527e-100
-1.24349e-94
3.51063e-102
-5.78231e-100
-2.51615e-99
3.4192e-105
1.61607e-103
1.48468e-99
1.2764e-108
4.34382e-110
-9.7913e-105
1.09485e-111
1.16066e-111
1.03649e-106
3.33957e-115
-6.17666e-114
-3.57598e-110
8.06307e-118
2.39517e-120
1.67451e-119
1.1486e-119
-1.16152e-120
-2.29897e-116
9.37468e-124
-8.53066e-124
4.12155e-119
2.56345e-127
-9.02019e-127
-3.58024e-123
1.72835e-130
1.41557e-130
-4.81345e-126
4.25829e-134
6.61913e-134
-2.90111e-129
1.85917e-137
6.20499e-139
2.01301e-138
1.46542e-140
5.29691e-141
2.16305e-135
7.85933e-144
5.47617e-145
-3.37187e-138
2.16148e-147
-3.96172e-146
-8.11583e-143
8.31296e-151
-1.08245e-149
1.90538e-147
6.76781e-153
7.92877e-155
5.9533e-151
-1.02129e-157
-1.17762e-151
5.31926e-09
3.5953e-08
-8.61726e-08
4.04427e-09
5.97542e-08
-3.50053e-08
-2.99813e-08
8.11725e-08
7.41653e-08
8.84236e-08
8.83419e-08
7.6801e-08
3.0234e-09
-2.52098e-08
8.72712e-08
2.19748e-08
1.61159e-08
2.57093e-08
1.47195e-08
2.65602e-08
-4.36931e-08
-6.53643e-08
4.5285e-09
1.24012e-07
-3.86695e-08
-6.88986e-08
-5.74239e-08
-3.03288e-07
-8.87863e-08
1.17659e-09
-3.803e-09
-5.81018e-09
1.85586e-09
-3.11445e-10
-1.09494e-08
3.65169e-09
4.0006e-09
6.39929e-09
4.09827e-10
4.5505e-10
8.51997e-10
-1.55141e-10
1.39014e-09
2.01502e-16
-1.18409e-18
-3.25303e-18
-3.43642e-16
9.02181e-16
-5.0715e-16
-1.45928e-18
-5.74826e-09
-5.74826e-09
-5.74826e-09
-5.74826e-09
1.81772e-23
-2.993e-21
2.93142e-22
7.87505e-20
9.18606e-20
1.17117e-19
9.17189e-21
-8.89703e-26
-3.16975e-25
-7.5237e-27
1.13275e-26
-1.97733e-27
6.17383e-29
5.9813e-29
-3.76507e-29
3.42212e-29
3.96564e-33
-3.96175e-32
7.08188e-32
3.98869e-37
-8.18716e-36
3.19946e-36
1.54685e-40
-1.18135e-39
3.40072e-39
6.52785e-44
-2.87362e-43
-8.1434e-43
2.76433e-47
-8.59806e-47
-4.56063e-45
1.17501e-50
-4.07451e-50
-2.11533e-48
4.96507e-54
-3.7461e-55
1.58559e-50
2.07824e-57
-2.30874e-57
-7.30208e-55
8.78838e-61
-7.67809e-62
9.96705e-58
3.73191e-64
-3.23531e-64
-5.88509e-61
1.60727e-67
-1.44906e-67
-4.80899e-63
6.75799e-71
-1.31843e-71
-3.61168e-67
3.08932e-74
-5.73919e-76
-2.44542e-70
1.34661e-77
4.00623e-78
-7.67055e-75
5.96385e-81
-5.07825e-82
6.03841e-77
3.86721e-84
-1.06259e-84
2.69727e-83
9.41182e-87
-3.41624e-88
-6.74867e-83
3.07229e-90
-3.21008e-91
2.36182e-87
5.97944e-94
-3.69387e-94
1.00394e-94
2.16428e-96
-1.1807e-96
7.93168e-98
5.84614e-98
6.12626e-100
-3.11214e-95
4.24924e-102
3.85692e-103
-8.67316e-98
6.248e-106
2.51955e-106
-1.40906e-101
2.74097e-109
-3.46589e-110
5.2136e-105
1.1882e-112
2.73026e-114
-1.92985e-108
9.06276e-116
-4.86529e-117
2.62942e-112
3.75197e-118
1.12063e-119
-1.63346e-114
5.03212e-122
2.04078e-122
7.05307e-118
2.30666e-125
9.65076e-126
-5.98205e-122
1.50316e-128
5.14446e-128
6.36566e-124
9.14636e-132
-1.32262e-131
1.2557e-126
2.19316e-135
-1.71743e-135
1.76194e-130
7.85776e-139
-9.03691e-139
9.46741e-134
8.9754e-142
-8.82289e-143
5.06767e-140
3.53547e-144
1.53181e-145
-4.76721e-140
1.35736e-147
2.83706e-148
-1.99338e-143
1.85216e-151
-2.16111e-153
1.99547e-149
-2.22831e-154
1.32603e-154
2.11333e-08
1.17282e-08
9.73071e-08
7.94331e-09
-4.70185e-09
1.54166e-08
1.84747e-08
-5.36125e-09
5.57313e-09
5.14355e-08
2.39557e-08
2.67514e-08
3.29215e-08
3.39899e-08
7.0424e-08
5.80059e-08
1.87437e-09
5.73045e-08
5.19418e-08
4.85539e-08
4.53695e-08
-3.37602e-10
-1.34473e-08
2.14146e-08
1.49838e-08
7.39017e-09
-9.66922e-08
1.85699e-08
1.62814e-08
-8.59145e-08
1.59306e-09
-1.94098e-08
3.96662e-09
2.38572e-09
1.17742e-08
-2.3015e-10
5.50525e-10
-3.51452e-10
9.34122e-11
3.80972e-11
7.00116e-14
7.29408e-16
2.3357e-08
3.01777e-15
2.3357e-08
-1.76699e-22
-4.20493e-20
1.40166e-22
3.36787e-19
-1.07209e-19
2.92771e-19
5.91496e-19
1.4735e-26
-8.02773e-24
-1.43365e-25
1.8309e-27
-1.04402e-26
9.68477e-30
1.00991e-28
-8.70955e-28
8.8445e-30
1.91296e-31
-5.91619e-30
3.95318e-32
1.43753e-35
-2.04821e-33
8.67437e-35
2.47666e-39
-2.28061e-37
6.2363e-38
9.85306e-43
-5.67094e-41
2.90911e-41
4.19622e-46
-1.51581e-44
-8.31217e-45
1.7896e-49
-3.72089e-48
-1.67963e-46
7.52448e-53
-1.47964e-51
-5.17548e-50
3.17024e-56
-3.61088e-55
-1.58112e-54
1.33677e-59
-8.35886e-59
7.67989e-58
5.88505e-63
-2.82349e-62
-2.30952e-60
2.83974e-66
2.60575e-66
-1.89837e-62
1.16163e-69
8.29478e-69
3.3528e-66
4.99021e-73
-1.56109e-73
-3.20118e-69
2.06557e-76
-3.37096e-77
9.50068e-73
1.39731e-79
-6.87225e-81
6.32687e-77
2.79827e-82
1.64964e-83
-7.14288e-79
3.3049e-86
-7.79137e-85
4.34975e-83
2.41261e-89
2.28298e-90
3.04044e-85
7.67906e-92
1.32192e-93
-3.00152e-88
1.77602e-95
-8.77183e-96
-1.27258e-91
4.03145e-99
-5.43287e-98
-2.49947e-94
3.63134e-102
1.04388e-103
-9.2182e-99
7.8778e-105
2.01264e-107
1.63452e-100
1.00866e-108
-1.35679e-109
-7.99543e-104
6.33354e-112
-4.37361e-111
-2.13024e-107
1.36802e-114
-1.09392e-114
-1.50196e-111
3.43761e-117
8.59464e-118
-1.77322e-113
1.00992e-120
7.62821e-121
-2.97271e-116
4.31356e-124
-8.91856e-125
-8.21552e-121
6.12851e-127
-5.37635e-128
-1.34142e-122
1.96638e-130
-2.78392e-130
4.36315e-126
2.21587e-133
-1.14868e-132
-1.65523e-128
2.39247e-136
-9.29216e-137
-2.60648e-132
5.85741e-140
1.05137e-141
-6.08779e-136
1.69321e-143
7.70546e-144
-5.23938e-140
9.56484e-147
5.98754e-147
-4.4471e-142
9.85556e-150
6.37956e-151
-5.1675e-146
-1.16198e-151
-1.86176e-148
3.37438e-09
1.70567e-08
7.35359e-10
-2.22927e-08
-2.19137e-08
-2.70332e-09
7.62456e-09
1.4986e-08
2.01106e-08
2.15547e-08
1.07317e-08
-2.18109e-08
-1.25913e-08
-3.11324e-08
9.97032e-09
2.00223e-08
-2.37097e-08
-1.12892e-08
4.39487e-09
3.82669e-08
2.00442e-08
8.10667e-10
1.76911e-08
1.20196e-08
1.98203e-08
-8.40266e-08
-1.03114e-07
9.90697e-09
1.63859e-08
-8.89428e-08
-2.45437e-10
-2.95166e-08
5.58711e-09
-3.65631e-09
2.62824e-08
-3.0979e-09
4.16543e-10
-9.94116e-10
8.27525e-11
2.22814e-10
-3.72343e-10
8.43409e-10
6.01547e-10
2.55434e-10
2.48387e-10
2.44462e-10
1.87483e-10
3.34243e-10
1.9645e-10
-1.38112e-10
1.86436e-12
3.09076e-08
1.8408e-11
3.09097e-08
5.89573e-23
-1.68915e-20
-1.46182e-20
3.91738e-18
6.8126e-18
2.85433e-18
9.96403e-18
1.78703e-26
-5.31263e-24
-6.49632e-25
8.14019e-27
-3.51607e-27
1.54443e-29
7.3887e-28
-8.22759e-28
7.04711e-29
2.49599e-30
-5.79519e-30
-2.96192e-30
3.07038e-34
-1.49477e-33
1.82797e-33
3.85947e-38
-1.57991e-37
-8.0217e-36
1.44652e-41
-5.85036e-41
-5.11624e-39
6.11216e-45
-1.53485e-44
5.50228e-43
2.60014e-48
-3.74717e-48
7.23285e-46
1.11021e-51
-8.63258e-52
-5.9008e-49
4.74943e-55
-2.42899e-55
-1.65417e-51
2.0343e-58
-7.20729e-59
1.37339e-55
8.98387e-62
-5.90392e-62
1.11291e-57
3.65399e-65
1.21476e-66
-1.34129e-61
1.59352e-68
-1.7741e-69
2.58995e-64
6.77125e-72
-2.10393e-72
9.02126e-69
3.16594e-75
3.28567e-75
9.76812e-72
1.48252e-78
-4.11362e-80
3.25468e-75
1.92648e-81
4.54601e-83
7.5938e-77
4.86857e-84
-2.02444e-86
-2.85538e-80
1.19457e-87
-1.6319e-87
-1.25644e-82
6.88629e-91
-6.66959e-91
-1.126e-86
3.74796e-94
2.52998e-95
-1.29691e-91
6.52177e-97
5.85251e-99
-1.56916e-92
7.50978e-101
-7.54789e-102
4.34084e-97
2.81977e-104
-8.08611e-104
-1.39718e-100
3.65532e-107
3.76476e-108
-5.40038e-103
1.1477e-109
-4.83126e-111
-1.7606e-105
1.29879e-113
-1.01181e-113
-3.33721e-108
4.39232e-117
3.76261e-118
1.02661e-117
2.39225e-120
-1.96925e-121
2.49453e-115
1.20971e-123
2.01845e-123
2.16128e-118
2.64237e-126
-1.99298e-125
-5.19553e-122
8.92254e-129
9.49569e-129
-1.67435e-124
5.7333e-132
9.55799e-133
-9.12995e-127
1.25874e-135
-5.14184e-137
1.47662e-131
1.90838e-138
-2.30734e-139
-1.12655e-134
1.05554e-140
8.9677e-142
-2.38075e-137
1.53217e-144
8.60445e-145
-1.04811e-140
1.04195e-147
3.25591e-148
-1.01056e-143
2.6075e-152
-2.49786e-146
-7.31504e-09
-2.00528e-08
-4.23859e-07
1.48509e-08
1.5112e-08
2.64229e-08
1.16493e-08
1.27248e-08
1.27951e-08
1.19496e-08
-4.07278e-07
-4.35531e-07
-4.45263e-07
-1.08527e-08
-3.86551e-09
1.05035e-07
-1.40452e-08
1.382e-08
-1.87222e-09
2.46189e-08
-3.43231e-08
1.29326e-08
-3.71042e-11
2.82692e-09
1.95328e-08
2.07458e-08
2.12262e-08
2.03764e-08
-3.48583e-08
-4.46291e-08
-2.60061e-08
1.20209e-07
4.71975e-08
2.95733e-08
-8.17739e-09
3.84615e-08
2.2569e-08
-8.3779e-09
1.54297e-09
2.82418e-08
1.21647e-10
-2.1006e-10
-2.89934e-08
-9.15621e-10
1.23636e-09
-1.67529e-09
-3.57403e-11
-8.3145e-11
-1.17696e-09
8.40965e-10
9.66684e-11
9.61642e-11
1.6763e-10
1.28499e-10
-1.89181e-10
6.76141e-13
6.27771e-08
1.92303e-11
6.27763e-08
-1.82336e-23
1.7845e-20
-1.07239e-20
3.7857e-18
6.52077e-18
2.45768e-18
1.00928e-17
-5.21194e-26
5.03795e-24
-2.45767e-24
1.0707e-26
-1.80416e-28
3.11225e-30
5.6425e-28
-3.75022e-28
-3.55632e-29
2.00151e-30
-2.80259e-30
1.31902e-30
2.53232e-34
-6.30753e-34
1.13005e-32
3.1656e-38
-6.4803e-38
-3.01729e-36
1.18589e-41
-1.96417e-41
-2.40132e-38
5.16259e-45
-6.20424e-45
1.08904e-42
2.30677e-48
-1.06695e-49
-1.71896e-44
9.75267e-52
-7.00675e-52
3.48159e-48
4.43388e-55
7.89487e-56
-1.68178e-51
1.83824e-58
-6.96675e-59
4.52207e-54
7.47138e-62
1.90193e-62
2.96375e-57
3.56094e-65
-3.13585e-66
-2.75175e-61
2.07711e-68
2.30281e-69
-4.90853e-64
1.86727e-71
-6.96184e-74
-8.97665e-68
5.5209e-74
8.18075e-75
2.72672e-71
6.33157e-78
7.91054e-79
-1.3401e-75
3.25379e-81
3.82802e-84
-9.6163e-78
1.02942e-83
-9.59867e-86
-5.44259e-80
2.03285e-86
7.76125e-87
-5.98934e-83
6.49358e-90
4.30462e-90
-1.07552e-85
1.38269e-93
5.43956e-97
-1.24389e-89
5.21386e-97
2.88713e-98
-1.18835e-93
3.66914e-100
2.60191e-101
-4.80268e-95
3.03646e-103
5.97274e-104
-1.72882e-98
7.77895e-107
-6.4051e-108
8.1337e-102
7.45788e-110
-8.0864e-111
-5.65786e-105
7.67762e-113
4.53293e-114
-8.48231e-108
1.75988e-116
-1.08523e-118
5.8261e-112
2.38776e-119
-2.01615e-120
4.89449e-115
4.18659e-122
-9.61891e-124
-4.85118e-118
8.93012e-125
-8.81688e-126
-8.12707e-123
1.56922e-128
4.98269e-130
5.65712e-124
4.9781e-132
-3.67066e-133
-3.85818e-127
2.66478e-135
8.89548e-139
-1.98013e-131
2.21908e-138
-1.13817e-141
-2.69908e-134
4.19557e-142
2.65121e-143
7.02474e-143
1.5748e-145
6.98128e-148
1.46837e-141
6.16642e-149
2.38791e-150
-9.22004e-146
2.56806e-153
1.91971e-152
1.11971e-07
-8.56758e-09
6.22841e-08
1.03776e-07
1.1956e-07
1.0503e-07
6.33616e-08
9.11232e-08
4.1895e-08
4.35141e-08
1.15832e-07
1.30744e-07
-1.68086e-08
-1.62567e-08
-2.12665e-08
-5.21256e-09
1.9056e-08
-9.97527e-10
1.23815e-08
-1.204e-08
-1.24067e-08
-1.7479e-08
-4.93505e-08
-1.45961e-08
-2.93779e-08
9.70771e-09
-4.83359e-08
-5.16974e-08
-4.33394e-08
4.56637e-08
9.36552e-09
-5.45417e-08
6.36768e-09
2.74377e-08
2.77489e-08
2.89515e-08
2.88048e-08
1.01003e-09
2.08835e-08
-1.72421e-09
-5.06398e-09
-1.78274e-08
-9.0018e-10
-4.12593e-10
7.33897e-10
-1.93095e-10
4.25503e-10
-5.97776e-11
-1.7742e-12
2.2165e-08
8.18052e-12
2.21645e-08
-2.84811e-22
5.45763e-21
-7.42211e-21
9.4054e-19
-9.85646e-21
-4.84394e-19
6.01751e-19
-5.34456e-27
5.07993e-25
-3.38661e-25
3.55344e-27
-2.54835e-28
-9.29892e-30
1.11805e-28
-9.38954e-30
-2.43146e-30
1.75324e-31
2.47206e-32
6.12095e-34
1.28004e-35
8.49841e-36
-1.56792e-35
2.32114e-39
8.89521e-40
-1.30868e-39
9.32435e-43
2.28186e-43
5.0492e-42
3.96545e-46
5.72708e-47
5.34074e-45
1.6864e-49
1.34058e-50
-5.53509e-47
7.14954e-53
-1.15157e-54
-1.69317e-50
3.08435e-56
1.88053e-57
-2.09998e-53
1.34376e-59
9.35255e-62
6.36964e-56
5.51325e-63
4.55269e-65
-2.1583e-60
2.35529e-66
6.34446e-68
-1.28832e-63
1.00594e-69
8.8394e-72
6.47172e-67
4.56473e-73
7.53003e-75
-4.56914e-70
1.73873e-76
5.16594e-79
-2.34853e-73
8.0271e-80
-3.25511e-82
-7.85851e-76
9.14266e-83
-1.98036e-84
-2.50489e-79
1.72652e-85
3.94588e-87
-7.02682e-82
1.95794e-89
-4.42343e-91
6.4867e-86
8.29107e-93
-7.61231e-94
-5.11479e-92
5.84325e-96
-2.53912e-98
2.19696e-91
1.75735e-99
-1.30967e-101
1.18855e-100
1.38427e-102
5.41819e-104
1.76061e-98
9.00707e-106
-1.10902e-107
-7.4199e-101
8.52943e-109
8.98976e-110
1.04164e-103
5.55185e-112
-7.07098e-114
-6.45906e-108
1.56725e-114
2.10421e-117
-4.53471e-110
4.87862e-118
7.60384e-120
-8.0379e-114
1.17471e-121
-6.53568e-122
-5.61203e-117
1.09628e-124
1.51533e-126
-1.00464e-120
1.39414e-127
-5.50526e-129
-1.4422e-122
4.79738e-131
-2.45844e-132
-1.02592e-125
2.99556e-134
-6.28674e-136
3.28602e-130
2.12909e-137
-5.34932e-139
-5.51289e-133
2.91786e-140
7.13575e-143
-3.28524e-136
1.82356e-142
1.56444e-145
-5.26338e-139
1.05645e-146
-1.17407e-148
1.64302e-147
1.11769e-149
-8.51854e-153
8.86693e-151
4.58642e-153
-1.50713e-148
3.88152e-08
3.35785e-08
-1.69438e-07
5.1969e-08
3.54312e-08
5.56888e-08
-1.90195e-07
-2.06297e-07
-1.90386e-07
4.15327e-08
3.56672e-08
-5.8243e-09
-3.2347e-09
-8.59488e-09
-6.76704e-09
-4.69391e-09
3.28246e-08
6.52558e-08
-3.69233e-09
3.81328e-08
-3.88872e-09
-3.51034e-08
3.00347e-08
-1.00287e-08
6.13786e-08
-4.14629e-08
-3.40057e-08
-1.69567e-08
5.18761e-09
-8.21856e-09
-6.10243e-08
3.65234e-09
1.68928e-08
1.4207e-09
-1.48342e-10
-2.44568e-08
6.18602e-10
-4.35398e-10
1.42843e-09
-9.71964e-12
1.20307e-09
-1.76864e-13
-3.09428e-16
-1.26131e-08
1.62217e-13
-1.26132e-08
-4.32319e-23
-4.2128e-23
5.93995e-22
1.30213e-20
2.03412e-21
-9.24985e-21
8.39084e-21
3.85115e-26
8.61107e-27
9.99925e-27
3.52127e-26
2.28232e-27
7.24819e-30
7.15828e-29
1.96734e-29
9.52998e-31
5.26374e-33
5.46097e-33
-4.28196e-33
4.89391e-37
5.98644e-37
-3.5088e-35
1.87044e-40
1.20592e-40
-2.50562e-38
7.89868e-44
3.00332e-44
-3.69789e-42
3.34779e-47
6.7375e-48
-3.37274e-44
1.4255e-50
3.05767e-51
-1.96307e-47
6.13283e-54
-1.65554e-55
-9.97467e-51
2.58577e-57
3.61648e-59
-3.68731e-54
1.07939e-60
3.46103e-62
4.82687e-57
4.68158e-64
1.24646e-65
-9.48923e-61
1.97905e-67
8.5949e-69
-9.12669e-64
7.91169e-71
2.14568e-73
-3.26388e-69
4.55131e-74
-2.89278e-76
-7.70461e-72
6.42236e-77
3.23878e-78
-3.99061e-73
1.97864e-80
9.19819e-82
-4.95533e-77
4.94966e-84
-1.18589e-85
-3.64889e-80
5.53462e-87
-1.44381e-91
2.18647e-87
3.22048e-89
-5.75694e-93
-1.21389e-85
2.28093e-93
-1.6182e-95
4.08044e-91
1.97997e-96
6.70736e-98
-2.30076e-92
1.21474e-99
2.08427e-100
-1.90409e-95
3.22961e-103
-4.08992e-104
3.98051e-98
3.4186e-106
4.91396e-109
-1.01783e-101
7.30689e-109
6.07516e-110
-2.22341e-105
1.23908e-112
-7.75882e-115
-1.48897e-108
1.747e-115
7.67939e-118
-6.39774e-111
1.51694e-118
1.02445e-120
-1.65975e-114
2.98689e-121
9.6241e-123
-1.24495e-117
3.6537e-125
-2.35821e-126
5.86711e-121
2.45054e-128
1.40372e-129
4.16112e-124
1.70175e-131
1.59428e-132
-6.39696e-126
7.30681e-135
1.1692e-136
-5.13885e-130
2.7125e-138
4.63618e-140
-2.68132e-133
8.94659e-142
4.62238e-143
-1.07669e-138
3.50793e-145
-1.17796e-147
1.0077e-145
1.38234e-148
-1.15742e-149
3.1736e-149
5.2026e-152
-9.70017e-153
2.9675e-152
1.91099e-157
2.96326e-150
-5.58476e-08
2.69885e-08
1.91527e-07
-4.57635e-08
-6.54186e-08
-3.60797e-08
-3.72081e-08
-6.81354e-08
2.96389e-08
3.67456e-08
8.07154e-09
6.90263e-09
3.22505e-08
3.58371e-09
7.10472e-08
-2.08876e-08
1.08685e-07
-1.42514e-08
1.87729e-08
-4.01466e-08
4.43747e-08
4.25879e-09
-2.6547e-09
1.9164e-08
1.55605e-08
1.38506e-08
6.42401e-08
1.43964e-08
3.02864e-08
2.26886e-08
3.39813e-09
-6.62819e-09
9.24848e-09
-5.17276e-09
7.90898e-10
9.47449e-10
-2.2016e-10
4.10497e-10
-2.5002e-08
2.58872e-10
-2.48247e-08
2.39929e-16
7.95103e-19
3.22594e-08
3.22594e-08
-1.02832e-18
2.53004e-16
2.65591e-16
2.53768e-16
2.80813e-24
-2.74564e-22
2.02231e-23
9.81417e-22
-4.89553e-23
-2.27666e-21
2.45774e-21
4.41638e-26
-8.18558e-28
-2.39883e-26
1.09273e-28
-2.10062e-28
1.64581e-30
1.16357e-31
7.63812e-31
1.59149e-31
2.37837e-34
3.54958e-33
-6.54819e-35
4.14022e-38
6.40538e-37
1.97594e-38
9.31287e-42
1.03144e-40
1.31634e-41
3.78462e-45
3.38999e-44
-4.35508e-44
1.62648e-48
6.57223e-48
-3.20905e-47
6.98123e-52
2.23105e-51
2.72187e-51
2.98138e-55
5.96312e-55
-5.38302e-53
1.26731e-58
9.36253e-59
-2.07643e-56
5.36769e-62
1.97923e-62
1.47762e-60
2.26797e-65
-2.10017e-66
-2.15186e-63
9.52925e-69
6.36741e-69
3.84834e-66
4.10102e-72
1.23635e-72
-1.78179e-70
1.78521e-75
3.33368e-76
-2.76216e-72
7.13679e-79
2.44678e-79
-7.25569e-78
2.96662e-82
-2.66975e-82
7.29199e-80
1.23787e-85
2.22382e-86
-4.03398e-82
5.14454e-89
-5.74096e-89
3.11792e-85
3.54904e-92
-1.84025e-93
2.29033e-89
5.71428e-95
2.98512e-96
-4.09509e-91
7.3083e-99
-2.23783e-98
-3.44148e-96
2.66487e-102
-4.90857e-101
-4.8594e-98
2.13107e-105
-1.49588e-105
-1.07832e-103
5.4017e-108
8.41137e-110
-1.92526e-104
7.1374e-112
-3.90489e-112
4.60251e-108
2.90598e-115
-1.11807e-113
9.65051e-111
9.20798e-119
-4.31334e-119
4.26696e-115
7.56778e-122
-5.22133e-121
1.66547e-122
2.18445e-124
8.0735e-126
-1.83866e-120
2.18133e-127
-5.47603e-128
-1.35251e-124
2.86062e-130
1.33865e-130
-4.78897e-126
5.66425e-134
-5.2931e-134
-4.7073e-129
2.37774e-137
-3.68432e-137
-2.89443e-133
1.29912e-140
-1.44642e-140
1.81373e-135
1.04733e-143
-1.99788e-143
-1.15557e-139
2.83584e-146
1.98599e-147
-1.58749e-142
2.6992e-149
-2.48933e-149
-1.82896e-145
2.65697e-152
-5.58645e-153
-2.98384e-148
-1.82818e-156
4.14169e-155
5.06315e-08
2.78822e-09
3.62567e-08
4.7814e-08
3.36461e-08
4.06136e-08
-5.08419e-09
8.78649e-09
3.37576e-08
2.17828e-08
3.66948e-08
1.11195e-07
7.27417e-09
-8.87329e-09
6.2412e-08
9.1189e-08
4.96696e-08
7.11829e-09
9.39617e-09
8.22511e-09
3.12254e-08
-1.80046e-09
2.72128e-08
8.20477e-08
-1.23436e-08
-1.49988e-08
1.74991e-08
-7.78078e-08
-2.08181e-07
-7.2992e-08
2.04437e-08
-2.09624e-07
-1.46982e-08
-1.43817e-08
-1.51263e-08
-1.65965e-08
-1.16936e-09
2.84317e-09
6.26683e-09
2.58279e-09
-1.24445e-08
-6.7046e-11
6.84843e-12
1.7979e-08
-5.95297e-11
1.79814e-08
2.86984e-22
4.18615e-20
4.67668e-17
1.17078e-17
-7.64421e-17
2.3489e-17
-2.3506e-18
-1.72054e-18
-8.41227e-18
-1.73178e-18
-2.75104e-24
-1.16975e-23
1.60207e-27
1.39854e-28
5.98804e-28
-6.95833e-30
3.61476e-30
-1.14168e-31
7.67657e-34
-2.36319e-35
7.76029e-38
4.60627e-37
2.50937e-41
-3.4725e-41
1.05678e-44
-4.77773e-43
4.51946e-48
2.22222e-47
1.93004e-51
9.6813e-50
8.24572e-55
6.43508e-53
3.51096e-58
7.90634e-56
1.47788e-61
5.31454e-59
6.22237e-65
2.13856e-62
2.6102e-68
-1.59917e-66
1.09596e-71
4.10347e-70
4.61226e-75
3.16779e-72
2.06918e-78
-6.85302e-76
1.0124e-81
2.93346e-78
5.89626e-85
-3.08912e-81
7.46825e-88
-2.94107e-84
1.86788e-91
1.95635e-88
1.43915e-94
-4.49404e-91
1.35108e-97
-1.14808e-93
6.46187e-101
-8.88172e-97
3.19497e-104
-3.83272e-101
1.04475e-107
-1.40267e-103
1.17043e-110
-8.30595e-106
1.36345e-113
-1.40747e-109
7.58344e-117
1.3806e-112
2.78396e-119
-9.60415e-116
2.36232e-123
-3.82896e-121
6.66428e-127
-2.14811e-123
9.00357e-130
2.0937e-125
4.90023e-132
-3.08295e-128
4.06365e-136
-1.11622e-131
3.01317e-139
2.35265e-134
4.39417e-142
-8.54924e-138
9.4737e-146
1.7094e-141
9.02384e-149
-3.1112e-145
1.70137e-152
2.45801e-149
5.54775e-151
2.40345e-08
5.73689e-08
6.3579e-08
8.0692e-09
-1.02524e-07
6.14329e-10
-7.94835e-09
-4.09475e-09
7.69784e-08
9.22794e-08
2.16433e-08
3.62493e-09
-1.35563e-07
-4.22332e-09
-2.78399e-08
4.10748e-07
-1.37112e-08
-1.07646e-07
2.60692e-07
-5.41921e-07
6.96153e-09
2.67478e-09
-2.42348e-09
3.02351e-08
-6.77147e-08
5.744e-10
-8.05395e-09
1.13333e-09
7.59953e-08
-7.99015e-11
-5.17445e-12
-1.0023e-11
4.82325e-08
4.82266e-08
-3.23607e-21
5.24604e-18
8.27629e-20
-3.22805e-17
3.54779e-17
-3.52868e-17
3.41819e-17
5.14019e-18
5.29851e-18
5.14037e-18
4.7362e-25
8.17985e-22
2.00334e-25
6.28499e-27
2.31484e-24
-2.10418e-28
6.53714e-27
8.39236e-28
-2.68231e-30
6.8907e-29
1.25325e-29
-2.17768e-32
1.06342e-31
-8.40247e-33
-1.03972e-33
2.43759e-35
-1.83631e-35
3.42311e-37
6.87272e-39
-4.90449e-39
2.03968e-40
4.85854e-42
-1.36839e-42
1.54317e-42
3.68991e-45
-8.50142e-46
2.59375e-47
2.69202e-48
6.22263e-50
5.72201e-49
1.93917e-51
2.7381e-52
-4.5164e-52
1.39543e-54
-9.59911e-56
-5.72155e-55
1.00198e-57
-1.83011e-58
2.37592e-58
7.16842e-61
2.01184e-61
-4.72101e-62
5.1137e-64
1.57865e-64
8.56554e-65
3.63786e-67
7.25565e-69
-6.83114e-70
2.58076e-70
-5.52069e-71
5.20591e-71
1.82732e-73
-5.07685e-74
-1.84992e-74
1.29027e-76
1.60823e-77
2.3432e-77
9.08653e-80
1.54997e-81
8.26323e-81
6.38157e-83
-6.64476e-84
4.48532e-85
4.47212e-86
-3.10691e-88
-3.24915e-87
3.12531e-89
1.07067e-89
1.09375e-90
2.18074e-92
6.40354e-93
3.82962e-95
1.51915e-95
-6.14663e-97
-3.99018e-96
1.05582e-98
3.60686e-99
-3.09942e-99
7.32642e-102
-2.30359e-103
3.58531e-103
5.0699e-105
-2.08835e-106
-2.59813e-106
3.49753e-108
5.94332e-109
5.27837e-109
2.40983e-111
-1.72163e-113
1.27992e-113
1.65905e-114
1.6683e-115
-1.19262e-120
1.13983e-117
-9.75233e-120
8.47565e-119
7.8158e-121
6.39663e-122
1.12195e-123
5.34834e-124
6.63456e-125
-2.05845e-125
3.65347e-127
1.50265e-129
3.46373e-127
2.49012e-130
6.37382e-131
4.01643e-132
1.69372e-133
-1.73453e-135
2.07096e-134
1.14925e-136
1.58431e-137
8.89467e-137
7.79231e-140
-1.05076e-141
1.42317e-143
5.27151e-143
-3.02436e-145
8.31326e-145
3.42075e-146
-9.33815e-149
1.042e-147
3.78373e-150
2.97538e-150
-4.69793e-07
2.83586e-09
-1.09015e-08
5.01942e-08
2.92445e-09
3.71951e-09
2.96443e-09
4.73971e-09
4.8509e-07
2.46195e-08
-2.90927e-09
2.33162e-08
-3.19912e-07
-6.84791e-09
-8.2924e-09
-2.38991e-09
3.13107e-08
-2.45478e-07
2.48084e-08
-1.88045e-07
-2.44765e-07
6.54528e-09
6.49683e-09
7.93681e-08
-7.22512e-09
6.98104e-09
1.32456e-07
2.55426e-09
2.51954e-10
-1.17667e-09
-1.21985e-07
2.32091e-08
6.64905e-08
3.86203e-09
5.39813e-08
-4.45144e-09
4.84957e-09
-1.23881e-07
5.78925e-10
9.05763e-11
-1.03138e-10
-2.57151e-11
-5.19265e-11
-9.71382e-11
3.22851e-17
4.95721e-18
-1.18417e-18
5.13932e-18
9.85291e-19
-1.55595e-24
-7.64451e-22
-1.40396e-23
-1.93511e-20
-1.79475e-20
-1.98527e-20
-1.79442e-20
4.15077e-24
-7.95211e-26
-1.94088e-26
1.48928e-27
8.36596e-26
-2.24671e-30
1.62584e-30
1.86397e-28
-2.30116e-32
2.6672e-33
-1.21398e-29
-1.90611e-34
9.56563e-37
-5.87336e-34
-5.34366e-38
3.84168e-40
-1.47132e-37
-7.71861e-42
2.85116e-43
-6.96424e-41
1.43888e-44
2.19618e-46
-4.00361e-44
-3.09214e-47
1.61327e-49
-2.54045e-48
-1.59793e-49
1.17496e-52
-5.81379e-51
1.31635e-53
8.54113e-56
-2.92731e-54
-1.26076e-57
6.18962e-59
-4.79924e-58
-2.62306e-59
4.46942e-62
-3.15058e-61
1.50025e-63
3.22171e-65
3.54735e-64
1.33807e-65
2.30807e-68
-4.71545e-67
6.06294e-71
1.64821e-71
-6.6847e-71
1.65279e-74
1.17525e-74
-8.658e-75
-1.34089e-75
8.35404e-78
-2.52654e-78
1.12056e-78
5.91848e-81
-4.88524e-80
2.6513e-82
4.17804e-84
1.74495e-84
2.54741e-86
2.94367e-87
-2.19258e-86
-5.75644e-88
2.07109e-90
1.40292e-91
2.17321e-92
1.45317e-93
1.30925e-94
1.20324e-94
1.01726e-96
-5.57343e-96
6.02666e-98
7.10427e-100
-6.46536e-99
-3.11365e-101
4.94665e-103
9.09818e-105
1.69616e-104
3.43748e-106
8.28636e-107
-7.91701e-107
2.38295e-109
-4.13785e-109
2.90105e-110
1.64845e-112
-4.63929e-113
5.75119e-114
1.13691e-115
-3.18243e-115
3.24585e-116
7.82178e-119
6.12057e-120
-3.52691e-126
5.37706e-122
-2.79929e-121
2.3529e-123
3.68534e-125
5.05788e-125
1.05963e-126
2.52226e-128
1.26405e-129
9.9339e-129
1.7249e-131
-6.48454e-131
3.31054e-133
1.17529e-134
1.84502e-135
-2.56135e-135
7.99424e-138
4.34356e-139
4.00114e-138
5.42887e-141
-2.45797e-140
5.55185e-142
3.67501e-144
1.22483e-145
1.86051e-147
2.38677e-147
2.37681e-148
5.29964e-151
2.70754e-150
-3.49094e-157
-2.62103e-07
-7.65519e-10
-1.18983e-08
1.25669e-08
7.30254e-08
1.66406e-07
-2.62562e-07
1.88007e-07
-6.17968e-08
3.57413e-08
1.33469e-08
2.95325e-09
1.68837e-08
8.77262e-09
7.1876e-09
8.00346e-09
8.57039e-09
3.44901e-08
3.45823e-08
3.47644e-08
-4.10966e-08
-5.40207e-08
4.42336e-08
6.99596e-10
3.88665e-09
1.38909e-08
-5.94988e-08
-5.74622e-08
-4.33919e-08
5.97916e-07
5.914e-07
7.83915e-07
3.94128e-07
2.57042e-08
8.58887e-09
1.27967e-08
3.17422e-08
4.13884e-08
3.80377e-08
3.33394e-09
6.06237e-08
9.53436e-08
-4.56825e-08
2.4089e-08
-2.83789e-08
-3.6157e-08
1.71394e-07
-4.20285e-07
-4.49545e-08
-1.57187e-07
-2.96976e-08
-9.93522e-09
3.23546e-07
-1.94795e-08
-5.17084e-09
-1.37902e-08
1.72883e-08
7.66332e-09
5.80645e-08
2.29629e-09
-1.85354e-08
4.51895e-09
4.13289e-09
-5.02011e-08
6.7371e-10
-2.07633e-10
5.62853e-10
-8.12316e-10
2.15579e-10
-2.00328e-10
2.45049e-15
-1.13336e-17
-2.8317e-18
3.05538e-18
-1.81098e-15
2.61297e-15
-2.09269e-15
-2.59099e-17
-5.29559e-16
-5.54403e-16
-1.60678e-16
-1.63436e-16
6.07258e-24
-1.17704e-20
-1.59127e-22
2.72939e-20
-1.56777e-19
2.45484e-20
-1.43053e-19
-6.52724e-26
-3.02235e-24
1.43665e-26
4.47722e-25
-3.19641e-26
-2.50996e-29
8.67523e-27
-1.1813e-27
-1.20704e-29
4.94134e-30
-6.8221e-30
-2.83999e-32
4.1398e-34
-1.96524e-33
1.09046e-35
2.01919e-37
-5.29848e-37
-3.79301e-40
1.53412e-40
-2.38599e-40
-1.16138e-42
1.0999e-43
-1.11049e-43
-3.53465e-45
7.7435e-47
-5.92388e-47
-2.44543e-47
5.43211e-50
-1.00251e-51
-2.64855e-50
3.80229e-53
-1.48416e-53
-7.62925e-55
2.65236e-56
-5.26064e-57
-1.16725e-56
1.84492e-59
-5.91905e-60
4.63142e-61
1.27969e-62
8.80525e-63
-1.17853e-63
8.85149e-66
-8.69229e-67
1.20545e-67
6.10178e-69
1.73338e-70
-1.61483e-70
4.19717e-72
-2.24855e-73
-1.67226e-73
2.87977e-75
2.10117e-77
5.30405e-77
1.96974e-78
7.4492e-79
-4.78708e-83
1.34618e-81
1.75868e-82
-1.16216e-83
9.1821e-85
-2.28037e-85
-9.27921e-86
6.24654e-88
1.05962e-88
-9.74143e-95
4.24562e-91
-1.80799e-92
-6.12854e-98
2.87615e-94
8.41791e-95
1.01554e-96
1.942e-97
2.85464e-98
-1.09314e-98
1.30979e-100
-1.14332e-101
1.50727e-101
8.81934e-104
-4.1827e-105
-3.87583e-105
5.9251e-107
2.07124e-109
3.49433e-108
3.97533e-110
-3.76693e-111
-4.10988e-111
2.66097e-113
1.91471e-114
4.23608e-115
1.77608e-116
9.55804e-117
-1.95872e-117
1.18391e-119
1.18584e-120
-6.95685e-121
7.8814e-123
4.10108e-124
-1.68208e-123
5.24077e-126
-2.41033e-126
1.1779e-126
3.48215e-129
-1.06809e-129
-1.97987e-130
2.30826e-132
1.39382e-132
-2.46583e-133
1.52677e-135
5.78688e-136
-5.93264e-140
1.00796e-138
1.58363e-139
3.95365e-140
6.63985e-142
1.0695e-142
2.69121e-143
4.2642e-145
1.03846e-146
6.33651e-147
-9.81509e-149
3.05273e-149
-3.96634e-07
-4.09482e-07
5.03626e-10
1.28763e-07
2.09201e-07
1.75704e-07
6.94251e-08
-3.92033e-07
-3.91499e-07
-3.86422e-07
-3.88305e-07
-3.51194e-07
-2.49755e-08
-3.53836e-08