/*--------------------------------*- C++ -*----------------------------------*\
| =========                 |                                                 |
| \\      /  F ield         | OpenFOAM: The Open Source CFD Toolbox           |
|  \\    /   O peration     | Version:  5.0                                   |
|   \\  /    A nd           | Web:      www.OpenFOAM.org                      |
|    \\/     M anipulation  |                                                 |
\*---------------------------------------------------------------------------*/
FoamFile
{
    version     2.0;
    format      ascii;
    class       volScalarField;
    location    "3.8";
    object      p_rgh;
}
// * * * * * * * * * * * * * * * * * * * * * * * * * * * * * * * * * * * * * //

dimensions      [1 -1 -2 0 0 0 0];

internalField   nonuniform List<scalar> 
9347
(
101.313
109.348
106.676
112.005
91.7806
96.9161
97.2409
94.0494
91.7213
89.3132
86.8524
84.3675
81.8719
79.3971
76.9286
74.4786
72.0434
69.6377
67.25
64.8893
62.5325
60.1964
57.8894
55.5758
53.2864
51.0161
48.7515
46.4849
44.2376
42.0159
39.7906
37.5898
35.4176
33.2391
31.0529
28.8981
26.7964
24.7321
22.6771
20.6133
18.5789
16.5894
14.6037
12.5903
10.6038
8.66597
6.73189
4.78969
2.86924
0.959115
102.214
124.741
95.1105
108.818
101.851
100.946
98.2784
95.0409
91.8632
89.4664
86.948
84.4301
81.9332
79.4348
76.947
74.5003
72.0505
69.6555
67.2755
64.8947
62.5389
60.1998
57.8822
55.5765
53.2777
51.0026
48.7406
46.4868
44.2449
42.0181
39.8046
37.6029
35.4146
33.2307
31.0566
28.9046
26.7923
24.7156
22.6557
20.6118
18.5844
16.5924
14.6071
12.6065
10.611
8.65647
6.71836
4.78649
2.86946
0.958764
101.357
102.328
92.5768
97.6074
100.38
101.238
99.4119
95.7238
92.2236
89.6764
87.089
84.5064
81.9674
79.4644
76.9716
74.5005
72.0741
69.6866
67.3003
64.8971
62.5421
60.2044
57.8744
55.5739
53.2823
50.9956
48.7305
46.4933
44.2559
42.0207
39.8094
37.6022
35.3955
33.2192
31.0626
28.9192
26.793
24.7069
22.6539
20.6136
18.5942
16.5946
14.5996
12.6069
10.6208
8.6533
6.71239
4.78771
2.87215
0.958889
97.2139
123.067
100.251
100.263
101.063
99.9414
99.7886
96.7627
92.5123
89.8876
87.2159
84.6141
82.0216
79.4891
76.9927
74.5187
72.0807
69.6803
67.2792
64.9029
62.5575
60.2068
57.8823
55.5754
53.2898
51.0076
48.7301
46.4986
44.2497
42.0104
39.8095
37.5967
35.3894
33.2138
31.0717
28.9363
26.799
24.7032
22.6546
20.62
18.5993
16.5811
14.5763
12.5987
10.6283
8.65599
6.71324
4.79494
2.87836
0.953783
101.691
93.2524
105.555
100.64
101.494
101.859
99.9721
98.0105
92.7056
90.0033
87.2839
84.6372
82.051
79.504
77.0108
74.5337
72.0985
69.6756
67.2605
64.9039
62.5599
60.2067
57.8859
55.5783
53.2996
51.0214
48.7396
46.4936
44.2376
42.0022
39.8034
37.5884
35.3864
33.2126
31.0729
28.9457
26.8098
24.7087
22.6605
20.6319
18.5991
16.5673
14.556
12.5871
10.6254
8.65761
6.72036
4.80981
2.88717
0.951873
96.6882
100.364
98.0701
102.824
100.774
100.407
100.141
98.8766
92.695
89.9974
87.2744
84.6311
82.0485
79.5075
77.0224
74.5447
72.1081
69.6793
67.2576
64.896
62.558
60.2017
57.886
55.5886
53.3051
51.0355
48.7505
46.4891
44.2312
41.9946
39.7959
37.5834
35.3798
33.2148
31.0762
28.9478
26.8206
24.7193
22.6629
20.631
18.5914
16.5489
14.5412
12.5757
10.6194
8.66135
6.73662
4.83296
2.89768
0.954976
98.6343
93.172
111.251
107.062
104.838
101.418
100.363
97.6005
92.4845
89.829
87.183
84.5767
82.0297
79.4988
77.0047
74.5347
72.102
69.6857
67.2593
64.8839
62.5399
60.2001
57.8851
55.5974
53.3123
51.0338
48.756
46.4849
44.2329
42.0067
39.7946
37.5729
35.3734
33.2213
31.0794
28.9424
26.8258
24.7327
22.6651
20.6235
18.5834
16.5466
14.5416
12.576
10.6157
8.6632
6.74271
4.83267
2.90144
0.96398
99.3886
101.538
124.931
104.788
108.938
100.628
99.2241
96.3853
92.1191
89.5991
87.0305
84.4826
81.9712
79.4613
76.96
74.5228
72.0846
69.6671
67.2716
64.8746
62.5303
60.1943
57.8822
55.5979
53.3113
51.0376
48.7577
46.4824
44.2429
42.0119
39.7901
37.5693
35.3779
33.2277
31.0772
28.9312
26.8266
24.7443
22.6702
20.6151
18.5787
16.5532
14.5519
12.577
10.614
8.66505
6.74086
4.82185
2.89979
0.967861
96.5337
97.5161
143.917
102.814
102.54
99.123
98.1924
94.992
91.7411
89.3881
86.9022
84.4098
81.9156
79.4237
76.9493
74.5082
72.0532
69.6437
67.2526
64.879
62.5211
60.1863
57.8852
55.5921
53.3115
51.0374
48.7549
46.4813
44.236
42.01
39.7774
37.5688
35.3952
33.2328
31.0703
28.9221
26.8246
24.7484
22.6744
20.6142
18.5763
16.564
14.5694
12.5796
10.6098
8.66672
6.73391
4.81118
2.88907
0.969103
96.2378
101.988
100.851
93.1325
100.601
98.7659
97.2614
93.8525
91.6401
89.2643
86.8318
84.352
81.8594
79.4
76.9322
74.4806
72.0434
69.6356
67.2462
64.8792
62.5216
60.1871
57.8884
55.5812
53.3011
51.0322
48.7541
46.4825
44.2338
42.0107
39.7799
37.5747
35.4105
33.2388
31.0583
28.9043
26.8024
24.7399
22.6758
20.6128
18.5776
16.5793
14.588
12.5809
10.6046
8.67012
6.73696
4.79972
2.87447
0.959317
99.0375
106.229
104.121
107.458
105.133
96.612
97.1267
94.0499
91.7213
89.313
86.8525
84.3676
81.8717
79.3972
76.9286
74.4784
72.0434
69.6378
67.2502
64.8892
62.5325
60.1965
57.8893
55.5757
53.2864
51.0161
48.7514
46.4849
44.2376
42.0158
39.7906
37.5899
35.4176
33.239
31.0527
28.8981
26.7962
24.7321
22.677
20.6132
18.5787
16.5894
14.6037
12.5903
10.6038
8.66601
6.73181
4.78956
2.86919
0.959199
102.01
175.371
104.922
106.57
103.97
98.79
98.2993
95.0404
91.8635
89.4661
86.948
84.43
81.9332
79.4348
76.947
74.5001
72.0505
69.6556
67.2754
64.8946
62.539
60.1999
57.8816
55.5763
53.2776
51.0026
48.7405
46.4868
44.2449
42.0184
39.8051
37.603
35.4145
33.2307
31.0566
28.9046
26.7922
24.7156
22.6556
20.6118
18.5844
16.5924
14.6071
12.6062
10.6111
8.6565
6.71826
4.78648
2.86965
0.958716
97.3825
101.19
96.5149
102.915
104.812
100.082
99.4035
95.7226
92.2251
89.6762
87.089
84.5064
81.9673
79.4644
76.9716
74.5004
72.0741
69.6863
67.3003
64.897
62.5419
60.2043
57.8743
55.5739
53.2823
50.9956
48.7305
46.4932
44.256
42.0209
39.8091
37.6021
35.3955
33.2192
31.0626
28.9192
26.7929
24.7069
22.6538
20.6136
18.5944
16.5947
14.5996
12.6068
10.621
8.65314
6.71226
4.78778
2.87217
0.958866
97.3406
96.3907
102.446
99.5955
101.038
99.5629
99.7719
96.7471
92.5129
89.8872
87.2159
84.6141
82.0216
79.489
76.9927
74.5187
72.0807
69.6801
67.2792
64.9027
62.5575
60.2068
57.8824
55.5754
53.2893
51.0074
48.7302
46.4987
44.2498
42.0103
39.8093
37.5967
35.3893
33.2138
31.0718
28.9363
26.799
24.7032
22.6546
20.62
18.5993
16.5811
14.5764
12.5988
10.6283
8.65597
6.71313
4.79491
2.87835
0.95367
165.86
116.858
106.631
101.877
101.704
102.08
99.9601
97.8879
92.7059
90.0033
87.2839
84.6369
82.0507
79.504
77.0108
74.5337
72.0984
69.6756
67.2605
64.9042
62.56
60.2066
57.8859
55.5784
53.2994
51.0215
48.7397
46.4936
44.237
42.0022
39.8033
37.5884
35.3861
33.2125
31.0729
28.9457
26.8098
24.7087
22.6605
20.6319
18.599
16.5673
14.556
12.5874
10.6254
8.65759
6.72029
4.80973
2.88716
0.951919
96.2122
100.711
97.3505
102.133
101.414
100.216
100.074
98.8053
92.6953
89.9974
87.2743
84.6309
82.0486
79.5075
77.0224
74.5447
72.1081
69.6794
67.2575
64.896
62.5581
60.2015
57.8859
55.5886
53.3051
51.0355
48.7503
46.489
44.2312
41.9946
39.7959
37.5833
35.3797
33.2146
31.0763
28.9478
26.8205
24.7192
22.6629
20.631
18.5914
16.5489
14.5412
12.5757
10.6192
8.66133
6.73659
4.83298
2.89741
0.954944
98.659
92.0223
124.744
107.171
102.368
101.324
100.425
97.4518
92.485
89.8289
87.183
84.5766
82.0297
79.4988
77.0047
74.5347
72.102
69.6855
67.2592
64.884
62.5397
60.2
57.8851
55.5974
53.3121
51.0338
48.756
46.4849
44.2329
42.0066
39.7949
37.5728
35.3734
33.2213
31.0793
28.9422
26.8258
24.7326
22.6651
20.6236
18.5834
16.5464
14.5417
12.5761
10.6156
8.66318
6.74283
4.83276
2.90136
0.964088
108.844
107.684
121.192
101.951
107.663
100.119
99.1657
96.3746
92.1198
89.5989
87.0305
84.4826
81.9712
79.4613
76.96
74.5228
72.0849
69.6669
67.2717
64.8745
62.5303
60.1944
57.8823
55.5979
53.3112
51.0378
48.7576
46.4823
44.2428
42.0119
39.79
37.5692
35.3779
33.2277
31.0772
28.9313
26.8265
24.7442
22.6702
20.615
18.5784
16.5532
14.5519
12.5771
10.6139
8.66503
6.74085
4.82183
2.89973
0.967865
95.9674
98.1295
95.4985
95.1819
101.05
99.4277
98.1941
94.9893
91.7417
89.3879
86.9022
84.4097
81.9156
79.4237
76.9493
74.5084
72.0533
69.6436
67.2526
64.8791
62.5211
60.1863
57.8852
55.5921
53.3114
51.0374
48.7548
46.4811
44.2361
42.0102
39.7774
37.5687
35.3957
33.2327
31.0701
28.9221
26.8246
24.7483
22.6743
20.6142
18.5764
16.5641
14.5694
12.5794
10.6098
8.66668
6.73387
4.81115
2.88914
0.969102
93.5844
99.6148
96.1462
92.46
98.2295
97.4297
97.3061
93.853
91.64
89.2643
86.8319
84.352
81.8592
79.4
76.9322
74.4809
72.0434
69.635
67.2463
64.879
62.5214
60.187
57.8883
55.5812
53.3012
51.0321
48.754
46.4825
44.2339
42.0107
39.7797
37.5748
35.4107
33.2387
31.058
28.9046
26.8024
24.7399
22.6758
20.6128
18.5776
16.5793
14.588
12.5807
10.6046
8.67014
6.73683
4.79969
2.87453
0.959305
105.62
110.024
101.794
99.8278
103.183
96.6917
97.1421
94.0498
91.7213
89.313
86.8525
84.3676
81.8714
79.3972
76.9285
74.4782
72.0433
69.6379
67.2502
64.8888
62.5322
60.1965
57.8892
55.5755
53.2865
51.0161
48.7512
46.4848
44.2374
42.0157
39.7906
37.5899
35.4176
33.2389
31.0526
28.898
26.7961
24.732
22.677
20.6131
18.5786
16.5894
14.6037
12.5904
10.6038
8.666
6.73168
4.78946
2.86909
0.959204
105.925
123.114
100.593
129.007
100.776
98.175
98.3012
95.0409
91.863
89.4661
86.9478
84.43
81.9331
79.4347
76.9469
74.4999
72.0504
69.6557
67.2753
64.8944
62.5393
60.1999
57.8815
55.5761
53.2775
51.0025
48.7404
46.4867
44.245
42.0186
39.8051
37.603
35.4144
33.2308
31.0565
28.9045
26.7921
24.716
22.6555
20.6119
18.5843
16.5924
14.607
12.6054
10.6111
8.65649
6.71818
4.78641
2.86972
0.958521
108.87
98.596
102.372
101.169
104.153
100.074
99.3999
95.7238
92.225
89.6763
87.0888
84.5063
81.9673
79.4643
76.9715
74.5003
72.074
69.686
67.3003
64.8969
62.5417
60.2042
57.8742
55.5741
53.2824
50.9954
48.7307
46.4932
44.2559
42.0209
39.8089
37.6017
35.3956
33.2193
31.0626
28.9192
26.7927
24.7069
22.6538
20.6134
18.5944
16.5947
14.5997
12.6066
10.6213
8.65304
6.71209
4.78777
2.87213
0.958698
99.1359
95.7205
99.9899
99.8044
100.569
99.7495
99.7697
96.749
92.5123
89.8869
87.2158
84.614
82.0215
79.489
76.9926
74.5186
72.0806
69.6799
67.2792
64.9026
62.5575
60.2067
57.8824
55.5759
53.2891
51.0072
48.7303
46.4986
44.2498
42.0102
39.8092
37.5967
35.3893
33.2137
31.0718
28.9361
26.7989
24.7032
22.6546
20.62
18.5992
16.581
14.5762
12.5987
10.6284
8.6559
6.71303
4.79483
2.87825
0.953342
121.709
99.4754
106.839
100.399
102.468
101.699
99.9582
97.906
92.7051
90.0036
87.2839
84.6366
82.0505
79.5039
77.0108
74.5338
72.0984
69.6755
67.2604
64.9042
62.56
60.2065
57.8859
55.5785
53.2992
51.0215
48.7398
46.4935
44.2369
42.0021
39.8031
37.5884
35.386
33.2125
31.0729
28.9456
26.8098
24.7087
22.6605
20.6322
18.5989
16.5673
14.5559
12.5875
10.6253
8.65752
6.72042
4.80964
2.88714
0.951829
96.8233
100.368
96.7413
104.114
102.999
99.7623
100.087
98.8015
92.6945
89.9976
87.2741
84.6308
82.0487
79.5074
77.0223
74.5445
72.108
69.6794
67.2573
64.8957
62.5582
60.2014
57.8858
55.5886
53.3051
51.0354
48.7502
46.4888
44.2311
41.9953
39.7961
37.583
35.3795
33.2156
31.0763
28.9477
26.8205
24.7192
22.6628
20.6309
18.5913
16.5489
14.5412
12.5756
10.619
8.66126
6.73661
4.83297
2.89698
0.954923
97.0894
95.3678
133.639
107.372
101.728
101.375
100.34
97.4639
92.4845
89.8289
87.1829
84.5766
82.0296
79.4987
77.0046
74.5346
72.1019
69.6853
67.2591
64.8841
62.5395
60.1999
57.885
55.5973
53.3119
51.0338
48.7559
46.4852
44.2333
42.0067
39.7948
37.5726
35.3733
33.2212
31.0792
28.942
26.8257
24.7326
22.665
20.6236
18.5833
16.5461
14.5416
12.576
10.6155
8.66311
6.74287
4.83246
2.90091
0.964028
101.622
54.9883
101.778
98.0379
108.924
100.253
99.188
96.3777
92.1195
89.599
87.0304
84.4825
81.9711
79.4612
76.9599
74.5227
72.0852
69.6666
67.2718
64.8745
62.5302
60.1944
57.8825
55.5978
53.3111
51.038
48.7576
46.4821
44.2428
42.0118
39.7899
37.5691
35.3778
33.2276
31.0771
28.9312
26.8264
24.7441
22.6701
20.615
18.5783
16.5532
14.5518
12.577
10.6138
8.66496
6.74079
4.82178
2.89972
0.967866
96.5096
100.25
95.4931
95.3165
99.2239
99.3744
98.1955
94.9894
91.7415
89.388
86.9021
84.4097
81.9155
79.4236
76.9492
74.5086
72.0533
69.6433
67.2526
64.8791
62.521
60.1863
57.8851
55.592
53.3113
51.0373
48.7546
46.4811
44.2366
42.0102
39.7773
37.5686
35.3962
33.2327
31.07
28.9221
26.8246
24.7481
22.6742
20.6141
18.5765
16.564
14.5693
12.5792
10.6097
8.66661
6.7337
4.81107
2.88907
0.96901
101.182
100.586
96.1805
92.6038
96.9779
97.9232
97.2916
93.8529
91.6399
89.2642
86.8318
84.3519
81.859
79.4001
76.9321
74.4811
72.0433
69.635
67.2463
64.879
62.5213
60.1869
57.8883
55.5812
53.3012
51.032
48.7539
46.4826
44.2341
42.0106
39.7796
37.5748
35.4111
33.2386
31.0575
28.9046
26.8023
24.7398
22.6758
20.6127
18.5775
16.5792
14.5879
12.5806
10.6048
8.67009
6.73664
4.79961
2.87455
0.959237
96.7704
99.2576
97.9076
96.6787
96.7967
99.0964
97.9102
98.1239
97.604
99.2281
99.5602
98.1291
101.984
99.2444
99.5526
101.355
99.536
100.026
99.5307
100.594
99.4911
99.8261
101.034
99.9604
100.054
99.797
100.78
99.9208
100.021
100.312
100.012
101.878
100.042
100.231
100.033
100.196
101.131
100.298
100.509
100.217
101.124
100.275
100.43
102.566
99.612
101.685
100.724
100.553
99.6168
99.4097
99.2296
98.5106
100.167
99.392
99.085
98.5059
98.2451
98.9354
97.6796
98.2138
98.2066
97.5006
97.6823
97.2325
95.5419
96.6287
97.8131
97.2336
95.5407
96.5725
96.7992
98.9967
97.9169
96.6475
96.8084
99.1251
97.9177
98.1286
102
99.2509
98.02
98.1233
105.061
99.2591
99.5569
99.9341
99.5401
100.047
99.5469
99.736
99.5344
99.8002
101.018
99.9139
99.6841
99.7903
100.836
99.9258
100.052
100.182
99.9943
101.915
100.023
100.024
100.042
100.134
101.158
100.405
100.344
100.144
101.021
100.276
100.77
100.545
99.594
101.367
100.585
99.1058
99.5825
99.3772
99.0502
98.5192
100.229
99.3659
99.2052
98.5165
98.238
98.1985
97.6823
100.243
98.2389
97.9523
97.6847
97.2301
95.5512
96.6889
97.7873
97.2235
95.6844
96.6418
96.8019
99.1923
97.9151
97.1488
96.7644
99.5484
97.9155
98.1223
105.182
99.2744
98.6959
98.1135
105.283
99.27
99.5611
99.8258
99.6234
100.188
99.561
99.732
99.5824
99.8608
101.139
99.9122
100.155
99.8842
100.89
99.9085
100.041
99.945
100.018
101.408
100.014
99.8399
100.048
100.169
101.023
100.347
104.19
100.162
101.126
100.302
100.696
99.1767
99.6144
101.937
100.317
99.5826
99.6096
99.3895
98.5201
98.533
100.325
99.3763
98.6288
98.5166
98.2344
98.1648
97.6854
101.89
98.2287
98.8641
97.6794
97.2249
95.748
96.6381
98.303
97.2204
98.8247
96.6055
97.7096
87.6373
101.364
106.945
96.7854
92.415
100.598
96.9916
96.6701
96.8944
96.5332
97.0286
97.2559
96.544
95.749
98.3669
96.0705
97.1385
95.7568
98.2732
96.0778
98.0898
102.564
89.7841
101.569
98.2639
101.211
90.5863
98.7269
98.4693
106.443
100.332
98.4614
108.862
98.7793
96.3685
99.2161
96.8017
98.2959
96.3655
99.2333
96.8107
102.112
101.652
111.934
99.4981
101.204
101.574
104.759
99.6399
99.9779
105.081
100.227
99.9836
104.877
99.8056
96.8559
99.4839
97.8985
99.4066
96.8586
99.4302
97.7701
101.935
99.1057
100.231
101.332
100.404
101.224
99.7294
100.187
100.267
103.436
100.153
100.039
101.579
101.014
98.5293
100.104
99.6034
99.7669
98.4394
100.03
99.6393
96.8207
101.338
101.788
101.943
95.9311
102.711
100.505
99.7336
99.991
99.6207
101.942
99.9543
99.6121
99.8996
99.73
100.007
99.7694
99.9709
99.7731
99.9807
99.7589
100.656
101.855
100.749
100.655
100.774
101.612
101.719
100.551
100.963
101.615
100.411
100.962
100.524
100.582
99.7874
100.188
99.813
100.088
99.7944
100.162
99.8551
102.218
127.183
111.785
107.84
101.336
106.224
105.82
100.951
100.885
102.02
101.364
100.89
102.104
101.023
99.6536
99.5502
98.4673
100.385
99.6987
99.5521
98.3403
139.428
102.035
108.808
107.489
120.252
107.844
110.385
99.4116
102.287
100.793
100.622
103.875
105.084
99.0498
97.7051
98.3965
96.3959
99.1887
97.5606
98.3913
96.3974
102.927
101.023
98.1558
100.484
102.534
98.6571
97.9805
98.0926
98.242
110.337
98.3991
98.2318
114.218
98.1352
96.0731
97.7576
95.6668
98.195
96.0768
97.7933
95.677
98.2656
104.69
97.8567
100.821
98.2124
103.793
97.0706
96.6241
97.661
101.34
103.193
97.5931
96.4375
96.7079
95.5348
96.9919
95.5711
97.2977
95.54
96.8325
95.5787
97.818
96.9893
101.971
105.085
95.8411
145.536
98.8143
96.938
96.46
96.9755
96.554
96.984
97.0376
96.4354
95.7569
98.2769
96.0756
97.1384
95.7574
98.264
96.0752
97.9192
106.557
94.8678
100.612
98.139
102.798
110.687
98.4273
98.3213
104.785
99.0869
98.3655
98.3329
107.006
96.3629
99.2358
96.8086
98.3027
96.3627
99.232
96.8094
100.767
101.023
102.907
104.721
100.834
100.516
100.538
100.584
99.9505
101.558
100.19
101.365
99.967
102.892
96.8546
99.465
97.7587
99.3977
96.8547
99.427
97.7591
100.834
100.865
100.024
100.63
96.4874
100.536
102.031
100.225
100.063
101.952
99.5161
100.203
100.069
101.485
98.4229
100.051
99.6423
99.7822
98.4216
100.053
99.6491
95.6455
103.652
101.706
100.971
93.3116
101.005
101.668
99.7755
99.9175
99.3507
102.033
99.7465
99.9117
100.192
99.7807
100.003
99.7508
99.9752
99.7804
99.996
99.7598
102.366
101.175
101.327
101.006
100.789
101.528
102.173
100.583
100.95
101.451
101.384
100.622
100.975
100.85
99.7834
100.165
99.8579
100.144
99.7525
100.192
99.8456
101.241
101.378
96.8703
100.806
101.25
100.783
96.9806
100.917
100.872
101.66
101.356
100.926
100.892
102.079
99.6981
99.5591
98.3419
100.317
99.7023
99.5646
98.3352
112.631
109.651
100.761
109.727
102.08
108.933
101.635
98.8281
98.9817
102.372
100.226
98.7619
99.0669
101.232
97.5476
98.3887
96.3938
99.1796
97.5499
98.388
96.3934
102.132
99.1184
97.1341
99.3701
101.824
98.3641
99.8209
97.9286
98.2403
104.423
98.9883
97.8017
98.2097
104.775
96.073
97.8066
95.6757
98.1948
96.0728
97.8011
95.6756
98.441
104.373
96.9649
98.2704
100.107
105.831
105.432
96.5747
97.6427
95.5555
97.6204
96.57
97.6543
95.8145
95.5372
96.9051
95.5792
97.3022
95.5373
96.8704
95.5791
95.0723
145.052
97.688
102.494
102.897
148.489
98.5781
96.8622
96.3299
96.9788
96.6331
96.859
97.1769
96.2902
95.758
98.2691
96.077
97.235
95.7496
98.3738
96.0699
100.582
102.726
110.702
115.213
99.8405
105.519
118.46
98.5317
98.3389
100.073
98.4652
98.5287
98.3494
99.778
96.3645
99.2296
96.8118
98.2746
96.367
99.2106
96.803
100.654
96.996
102.993
101.368
101.119
97.1881
106.09
99.6994
99.9581
100.656
100.09
99.7219
99.9565
100.762
96.859
99.4642
97.7696
99.4031
96.8564
99.482
97.8963
96.3668
100.551
100.716
100.628
97.4583
102.882
100.239
100.503
100.147
101.682
99.9646
100.462
100.29
101.782
98.4338
100.059
99.6409
99.81
98.5394
100.072
99.604
94.8684
100.931
99.5218
101.176
94.1507
100.881
104.832
99.7141
99.9291
100.012
105.796
99.725
99.9445
100.923
99.7705
99.9823
99.7696
99.9617
99.7303
100.033
99.7716
101.138
101.333
101.1
100.122
113.577
101.306
101.064
100.596
100.683
100.953
103.436
100.542
100.794
100.977
99.758
100.166
99.841
100.108
99.7892
100.181
99.8122
101.374
93.5
96.9622
101.786
104.021
92.9806
97.3896
100.908
100.909
101.975
101.386
100.917
100.911
101.42
99.6947
99.5574
98.3482
100.32
99.6539
99.554
98.4554
101.637
111.733
98.9401
112.781
101.627
110.738
101.191
99.1257
99.1801
100.537
100.315
98.9276
99.1836
100.497
97.5602
98.39
96.3969
99.2281
97.7066
98.3939
96.394
108.237
97.9905
100.183
100.218
118.582
97.4941
100.214
97.5896
98.2306
89.7328
99.6439
97.4042
98.2167
113.814
96.0767
97.7985
95.6772
98.1926
96.0724
97.7565
95.6667
100.509
107.775
106.498
105.087
98.8184
104.219
106.6
96.6603
97.722
107.833
101.364
96.6766
97.7089
100.416
95.54
96.8885
95.5794
97.2563
95.5344
96.9447
95.5723
97.0952
96.6832
97.1978
96.7882
97.1845
97.0924
96.6881
97.733
99.8404
98.1853
99.5199
99.8349
98.132
98.5026
97.6114
97.4625
97.9082
97.8903
97.4849
97.9062
97.6176
96.9968
96.5181
96.4819
96.9051
96.8861
96.9692
96.5539
97.0985
96.823
96.6876
97.2203
97.2248
97.093
96.69
97.7214
99.051
101.418
98.0893
99.5132
98.1501
98.0013
97.6076
97.8968
97.4831
97.9144
97.4881
97.9052
97.6051
98.2712
98.3198
98.3678
98.1302
98.301
98.3722
98.268
98.4835
94.6397
99.7079
102.073
94.6795
99.6851
98.4572
98.7915
98.838
99.4303
99.2278
98.8396
99.3882
98.8233
98.3772
100.991
98.3528
97.142
98.6377
99.9953
98.3392
98.3022
98.1307
98.3037
98.3697
98.3002
98.3703
98.2751
98.5116
104.952
95.0121
99.8026
95.0056
99.7448
98.7735
98.8183
99.2479
98.8407
99.38
98.8405
99.3687
98.8218
99.7104
99.699
99.6167
99.5289
99.6659
99.6037
99.7712
100.598
109.448
99.1817
100.795
104.57
99.1861
100.666
100.19
99.8918
99.7057
99.5084
99.9275
99.7073
100.162
99.5113
100.461
99.9487
101.507
99.9717
110.29
99.5535
99.7164
99.5703
99.6661
99.5875
99.7606
99.6264
99.734
100.689
100.335
104.637
99.1794
105.19
99.1796
100.425
100.198
99.5401
99.9358
99.7283
99.8584
99.7081
100.173
100.07
99.9826
99.776
99.8005
99.9231
99.7795
100.272
100.095
102.531
99.9677
101.252
102.16
100.075
100.088
100.175
99.9173
99.9809
99.9529
99.9275
99.9979
100.19
100.149
99.7666
100.057
101.889
100.054
101.6
100.178
100.081
99.8006
99.9218
99.7526
99.9182
99.7845
100.077
100.033
100.926
102.072
100.094
102.124
100.094
100.052
100.168
99.9286
99.9123
99.9841
99.9526
99.9825
100.16
100.1
100.102
100.038
100.018
100.102
100.009
100.127
100.315
100.31
100.16
100.294
100.311
100.145
100.31
100.053
100.019
100.205
100.013
100.025
100.21
100.081
99.7535
101.833
99.9229
99.4671
99.9518
99.5717
99.7766
100.067
100.106
100.088
100.006
100.134
100.015
100.051
100.263
100.269
100.305
100.134
100.308
100.187
100.261
100.046
100.096
100.003
100.174
100.138
100.166
100.069
100.311
100.293
100.163
100.164
100.292
100.169
100.356
100.816
101.053
100.731
101.128
100.765
100.673
100.815
100.481
100.359
100.504
100.311
100.354
100.501
100.488
100.558
100.388
100.955
100.407
100.958
100.429
100.535
100.309
100.147
100.284
100.157
100.296
100.187
100.331
100.815
101.123
100.886
100.678
101.053
100.672
100.819
100.508
100.299
100.324
100.507
100.346
100.512
100.478
100.469
100.565
100.262
100.557
100.542
100.263
100.537
101.364
105.47
99.7101
105.034
103.975
100.06
101.404
100.409
100.196
99.5997
99.626
100.224
99.6029
100.462
100.949
101.368
100.847
102.268
100.859
102.175
100.939
100.475
100.434
100.553
100.246
100.576
100.252
100.505
101.441
102.005
102.801
99.48
103.097
99.5249
101.193
100.453
99.638
100.237
99.5992
100.347
99.5998
100.444
99.1707
99.5946
99.0695
99.4013
99.5832
99.0615
99.2719
98.9671
99.7904
98.6791
99.2302
99.4062
98.5429
99.1747
98.9842
98.7749
98.5532
98.5073
98.7596
98.4667
99.0334
99.3287
104.935
99.0595
101.093
99.6449
100.913
99.0344
99.1725
99.3934
99.5765
99.0568
99.5737
99.061
99.1755
98.9743
99.1871
99.3557
98.5334
99.2199
98.5254
99.028
98.9821
98.5561
98.7607
98.4848
98.7673
98.4683
98.9677
98.0652
98.0981
98.1887
98.2199
98.1013
98.1892
98.0621
91.9711
100.561
97.9112
100.579
100.274
97.6715
94.1243
97.5299
97.8264
97.5923
97.6872
97.8377
97.5909
97.6783
98.26
98.3502
98.2429
104.008
98.2359
103.508
97.9016
98.1919
98.3062
98.0648
98.1916
98.1121
98.1995
98.3843
102.744
97.4896
100.338
97.7469
100.392
97.6991
100.406
97.4164
97.6865
97.842
97.812
97.835
97.7615
97.7139
96.9195
97.2503
96.8125
97.2373
97.2586
96.798
96.9203
96.4461
96.2584
96.5823
95.4916
95.9821
96.6037
96.159
96.6271
96.7656
96.438
96.5925
96.748
96.6263
96.4359
96.6433
101.303
97.4926
96.3651
97.6285
96.4167
96.6424
96.9314
97.2366
97.2005
96.8054
97.2777
96.7964
96.9263
96.4668
95.5364
96.2706
96.0787
95.9648
96.4105
96.1311
96.6284
96.8289
96.778
96.433
96.757
96.6275
96.457
97.0897
96.6881
97.218
96.8078
97.0929
97.2001
96.6922
97.8444
99.1285
98.13
99.0781
97.9766
98.9631
98.1579
97.5955
97.4668
97.9172
97.9163
97.6014
97.4609
97.9196
96.9112
96.5634
96.3628
97.0217
97.0416
96.8702
96.404
97.091
96.8001
96.6938
97.2537
97.2129
97.101
96.6908
97.6931
99.1061
98.5393
98.0841
98.794
98.1429
97.5087
97.5948
97.9174
97.4688
97.9165
97.4804
97.9155
97.5802
98.3105
98.306
98.3698
98.1262
98.295
98.2977
98.3711
99.362
94.5431
99.8428
105.85
98.8402
100.248
99.8527
98.8902
98.841
99.409
99.2516
98.8457
98.8413
99.4321
98.4643
98.1774
98.3343
100.059
98.332
99.8693
98.5201
98.3184
98.1248
98.302
98.375
98.2982
98.3738
98.3219
99.0094
105.897
108.269
99.9411
116.118
99.8872
99.0682
98.8727
99.2558
98.8421
99.4797
98.8422
99.4577
98.9067
99.7236
99.6636
99.5836
99.5455
99.7345
99.6876
99.594
101.006
104.39
99.2319
101.12
100.478
104.235
99.2144
100.246
99.9065
99.7129
99.5067
100.428
99.8729
99.7026
100.731
100.035
99.9891
100.712
100.039
102.769
101.06
100.272
99.5437
99.6204
99.61
99.6479
99.5691
99.6948
99.9349
99.7223
103.73
99.2105
103.805
99.221
100.072
100.229
99.5465
99.9098
99.7071
99.8112
99.7023
100.234
100.089
99.9339
99.7551
99.7975
100.077
99.9362
99.7768
100.221
101.877
100.158
100.891
100.336
101.846
100.157
100.085
99.8974
99.9937
99.9191
100.967
99.9479
99.9764
100.303
99.4971
100.234
101.724
100.093
101.562
100.403
100.142
99.8249
99.9791
99.7413
99.9715
99.8048
100.105
100.078
100.876
101.705
100.163
101.727
100.195
100.096
100.111
99.9237
99.9069
99.9941
99.9091
99.9765
100.158
100.041
100.124
100.01
100.009
100.063
100.082
100.005
100.271
100.304
100.135
100.13
100.261
100.301
100.164
100.029
100.046
100.173
99.9787
100.032
100.028
100.175
99.8204
101.962
99.9028
99.653
99.9045
99.9942
99.7264
100.047
100.049
100.093
100.014
100.093
100.003
100.024
100.269
100.08
100.217
100.13
100.252
100.138
100.253
100.046
100.046
100.026
100.18
100.029
100.17
100.024
100.326
100.276
100.178
100.144
100.328
100.327
100.176
100.849
100.869
100.673
101.224
100.842
100.904
100.717
100.484
100.336
100.504
100.365
100.487
100.307
100.504
100.475
100.806
100.706
100.88
100.882
100.864
100.466
100.322
100.211
100.292
100.18
100.285
100.146
100.318
100.846
101.071
100.898
100.844
100.867
100.651
100.838
100.484
100.28
100.346
100.496
100.3
100.511
100.512
100.505
100.556
100.301
100.649
100.5
100.557
100.288
101.017
102.696
99.4819
99.0773
101.055
102.654
99.4722
100.433
100.223
99.6006
99.5945
100.438
100.195
99.6026
100.917
101.373
100.9
101.716
100.898
101.8
100.929
100.502
100.571
100.533
100.236
100.573
100.233
100.515
100.982
99.0846
102.365
99.463
102.648
99.4634
100.968
100.501
99.6023
100.196
99.6192
100.229
99.6164
100.444
99.1768
99.5954
99.0429
99.3863
99.1828
99.585
99.0463
98.9538
99.2253
98.5413
98.9072
99.0047
99.2783
98.5498
98.9715
98.7745
98.4599
98.5137
98.9689
98.7707
98.4696
98.8596
100.321
99.1604
100.5
99.1068
100.55
98.8963
99.1774
99.3662
99.5817
99.0609
99.6172
99.0761
99.2058
98.9154
98.8351
99.3745
98.5462
99.3103
98.5522
98.9085
98.9748
98.5241
98.775
98.4905
98.7834
98.5002
98.9619
98.0918
98.0689
98.1922
98.2916
98.0607
98.1012
98.1918
100.91
100.328
97.8527
98.4733
100.628
100.857
97.6772
97.7461
97.8355
97.6482
97.6842
97.8509
97.8543
97.7477
98.4416
98.7268
98.1514
114.535
98.2893
110.528
98.5976
98.0081
98.2449
98.0319
98.1856
98.0891
98.1898
98.0832
100.603
98.0335
99.3577
97.6594
101.08
97.6844
100.986
97.6993
97.6852
97.8429
97.6699
97.8508
97.6682
97.6741
96.941
97.1885
96.8118
97.2258
96.9345
97.1811
96.8166
96.407
96.2457
96.0723
95.5793
96.4052
96.2191
96.0689
96.6316
96.7856
96.436
96.6532
96.6306
96.7908
96.4419
96.6016
97.6658
97.7359
95.5107
97.7528
95.7606
96.639
96.9578
97.2234
97.1635
96.8112
97.1716
96.8135
96.9633
96.4009
95.6309
96.1078
96.0488
96.1529
96.4416
96.0637
96.6306
96.6286
96.7932
96.4349
96.7929
96.6326
96.4329
97.1039
96.6973
97.2386
96.7866
97.101
97.2418
96.7001
97.9567
98.4548
98.0332
99.0633
97.3905
98.5276
98.1573
97.5581
97.4563
97.9161
97.9062
97.5467
97.4974
97.9159
97.017
97.6996
96.2154
97.1146
97.0795
96.9794
96.3094
97.1018
96.7705
96.6997
97.2005
97.2032
97.1048
96.7014
97.7259
99.4497
99.6233
98.1318
98.8789
98.1268
97.7565
97.5551
97.8975
97.4573
97.918
97.4838
97.9101
97.5556
98.3376
98.3037
98.376
98.1218
98.3204
98.3037
98.3766
99.1599
107.458
99.9394
105.032
99.0471
107.318
99.8216
98.9776
98.8435
99.5099
99.2691
98.9528
98.843
99.5438
98.5773
98.8557
98.3859
103.043
98.4219
99.9328
98.6083
98.3442
98.1214
98.3117
98.3736
98.3006
98.3774
98.3367
99.3002
104.995
108.01
99.9395
107.19
100.154
99.0806
99.0018
99.2706
98.8429
99.6542
98.8434
99.5741
99.0253
99.6719
99.627
99.5898
99.5375
99.6718
99.6507
99.6011
100.157
103.924
99.2075
99.4383
100.005
100.587
99.2
100.419
100.065
99.7048
99.5093
100.384
100.049
99.7238
99.967
100.168
100.073
100.779
99.9754
100.749
99.84
99.6128
99.539
99.6946
99.6236
99.6636
99.6633
99.6671
100.014
99.9448
101.954
99.2476
100.741
99.1934
100.414
100.248
99.5117
99.9999
99.7105
99.9896
99.7117
100.244
100.123
99.9832
99.7476
99.8076
100.137
99.9927
99.7451
100.268
101.507
100.187
100.821
100.149
101.533
100.178
100.2
99.96
100.001
99.9435
100.198
99.9257
99.9883
100.54
99.9997
100.301
101.952
100.267
101.856
100.737
100.121
99.8077
99.9967
99.7647
99.985
99.7564
100.125
100.231
100.958
101.644
100.208
101.272
100.213
100.241
100.118
99.914
99.9364
100.019
99.932
99.9923
100.147
100.023
100.09
100.024
99.9926
100.02
100.085
100.021
100.264
100.174
100.119
99.9009
100.265
100.168
100.13
100.105
100.032
100.212
100.022
100.05
100.011
100.191
99.6862
101.348
99.9786
97.5842
99.985
97.5805
99.7945
100.022
99.9957
100.099
100.018
100.12
100.019
100.087
100.285
99.8609
100.232
100.124
100.274
100.12
100.288
100.138
100.029
100.008
100.185
100.006
100.186
100.121
100.307
100.282
100.17
100.185
100.312
100.284
100.155
100.811
100.819
100.589
101.564
100.815
100.82
100.66
100.482
100.337
100.499
100.305
100.498
100.359
100.499
100.584
103.305
100.853
101.922
100.845
102.824
100.596
100.306
100.159
100.291
100.162
100.289
100.16
100.307
100.897
101.501
100.906
100.82
100.878
101.026
100.87
100.514
100.296
100.356
100.487
100.335
100.485
100.544
100.506
100.562
100.322
100.496
100.504
100.544
100.315
101.018
102.127
99.4662
99.5146
100.993
102.073
99.4921
100.453
100.223
99.6257
99.614
100.462
100.189
99.6273
100.9
101.655
100.964
101.96
100.941
101.696
100.904
100.533
100.522
100.547
100.282
100.553
100.279
100.524
101.014
99.3946
102.44
99.6311
102.376
99.5217
101.21
100.455
99.6049
100.234
99.635
100.197
99.6117
100.557
99.2191
99.5875
99.0753
99.3893
99.211
99.5887
99.066
98.951
99.4548
98.5425
98.8802
98.9679
99.5248
98.5131
98.9803
98.7896
98.497
98.5107
98.9598
98.769
98.5128
98.955
100.276
99.2104
100.525
99.2148
100.529
98.9644
99.2213
99.3731