/*--------------------------------*- C++ -*----------------------------------*\
| =========                 |                                                 |
| \\      /  F ield         | OpenFOAM: The Open Source CFD Toolbox           |
|  \\    /   O peration     | Version:  5.0                                   |
|   \\  /    A nd           | Web:      www.OpenFOAM.org                      |
|    \\/     M anipulation  |                                                 |
\*---------------------------------------------------------------------------*/
FoamFile
{
    version     2.0;
    format      ascii;
    class       surfaceScalarField;
    location    "3.8";
    object      phi;
}
// * * * * * * * * * * * * * * * * * * * * * * * * * * * * * * * * * * * * * //

dimensions      [0 3 -1 0 0 0 0];

internalField   nonuniform List<scalar> 
27955
(
4.94337e-09
-1.10396e-10
-3.7191e-09
5.07567e-10
-5.1078e-09
7.80614e-10
2.13926e-08
-1.30312e-08
-1.99791e-08
9.49916e-09
6.83403e-10
2.9593e-10
-2.48225e-09
-4.07e-09
1.08402e-08
-2.40687e-08
1.51461e-08
7.50795e-09
1.41464e-09
2.15457e-09
2.88861e-09
1.43769e-09
4.57033e-10
-1.70298e-08
-3.73351e-08
3.61048e-08
-1.21426e-09
4.7375e-10
5.83019e-09
-1.63371e-09
-3.7955e-09
6.46273e-09
5.55433e-09
-1.01335e-08
-5.93405e-11
-3.89256e-10
-3.99708e-13
6.37815e-10
-1.05052e-10
-5.82131e-12
7.79638e-11
3.3197e-11
1.31039e-09
-2.2679e-11
-2.8627e-11
-2.19937e-10
-2.32093e-10
-3.65832e-10
-3.92923e-10
-2.43078e-11
-3.8049e-11
-4.0882e-11
1.32669e-09
-4.21016e-11
-1.67757e-12
1.35245e-09
-4.07973e-11
7.63574e-14
1.36781e-09
-2.4334e-11
2.36644e-14
1.3796e-09
-1.59352e-11
-8.51607e-14
1.38771e-09
-1.00968e-11
4.69497e-14
1.39146e-09
-6.75509e-12
-2.49484e-13
1.39455e-09
-4.33332e-12
6.62951e-14
1.39614e-09
-1.16103e-12
-5.74144e-13
1.39761e-09
-1.87307e-12
-8.67992e-15
1.39843e-09
-1.01043e-12
-3.23619e-14
1.39835e-09
5.81362e-13
-9.81449e-13
1.39908e-09
-5.17408e-13
-1.00453e-12
1.39952e-09
-2.16142e-13
-9.65195e-13
1.3996e-09
-4.796e-13
2.51077e-13
1.39929e-09
1.14124e-13
1.12479e-13
1.39943e-09
-2.76294e-13
4.37809e-14
1.39971e-09
2.75467e-13
-9.7629e-13
1.39976e-09
1.28913e-13
2.72402e-13
1.39962e-09
1.42494e-13
-1.41596e-13
1.39965e-09
-3.62738e-14
-1.22213e-14
1.39953e-09
-2.65338e-13
-9.14805e-13
1.39973e-09
2.07729e-13
2.03865e-13
1.39906e-09
-9.34847e-13
3.89898e-12
1.39952e-09
-8.72067e-13
3.0009e-12
1.3992e-09
-2.81744e-13
1.63939e-13
1.39983e-09
-5.60621e-13
-2.4374e-14
1.39979e-09
-6.09235e-14
7.5735e-14
1.39946e-09
-4.22622e-14
4.7364e-13
1.39877e-09
1.80199e-13
1.23697e-13
1.39846e-09
6.19852e-13
-5.70221e-13
1.40075e-09
-4.22918e-12
1.2658e-12
1.39982e-09
5.47904e-13
6.56009e-14
1.39963e-09
9.5337e-14
-2.34517e-13
1.39955e-09
6.99632e-14
6.7927e-14
1.40032e-09
-4.05057e-13
2.56419e-12
1.39908e-09
2.84162e-12
-1.35022e-12
1.39919e-09
1.42215e-13
-3.47301e-13
1.399e-09
2.50112e-13
-8.75829e-14
1.40009e-09
-9.73582e-13
-4.77479e-14
1.39977e-09
1.93875e-13
1.17782e-13
1.39919e-09
-4.42404e-13
7.79772e-13
1.26022e-12
-1.13897e-12
5.25715e-10
-5.76524e-09
5.07049e-09
3.6001e-10
5.02625e-09
3.47712e-09
5.40444e-10
7.94085e-10
1.24022e-08
-1.49496e-07
-8.46486e-08
2.11901e-07
4.55102e-10
9.59228e-10
1.48766e-09
-2.45987e-09
-4.42116e-10
-5.51674e-10
1.35172e-09
2.87195e-09
-3.69481e-09
2.28141e-11
-4.49006e-10
-4.13039e-09
2.93592e-09
-2.53842e-09
4.1819e-09
-1.02713e-09
1.77551e-10
-2.40139e-10
4.46174e-10
6.43542e-10
-5.52233e-11
1.00728e-11
-3.96231e-12
-1.87509e-11
6.78637e-11
-1.83049e-10
1.90024e-10
-2.28402e-11
-6.8178e-12
1.35186e-09
-8.62728e-11
-2.26688e-11
-2.37448e-10
-2.4656e-10
-3.92528e-10
-4.085e-10
1.37059e-09
-5.76665e-11
-1.96925e-12
1.38169e-09
-3.60234e-11
5.2247e-13
1.38861e-09
-2.28913e-11
-1.93091e-14
1.39288e-09
-1.44441e-11
3.31192e-14
1.39533e-09
-9.24677e-12
9.00259e-15
1.39678e-09
-5.8201e-12
7.46634e-15
1.39827e-09
-3.55634e-12
8.82317e-13
1.39882e-09
-2.52072e-12
8.49393e-14
1.39903e-09
-2.97032e-13
-9.35366e-13
1.3991e-09
1.33989e-12
-8.41349e-13
1.3994e-09
-8.602e-13
2.81636e-14
1.39941e-09
-3.07727e-14
-2.01414e-13
1.39949e-09
-3.09439e-13
-2.59195e-13
1.39982e-09
-8.24304e-13
5.94914e-13
1.39951e-09
-5.62712e-15
4.07808e-14
1.39961e-09
-4.45439e-13
6.08122e-13
1.39959e-09
-4.9464e-13
6.41249e-13
1.39968e-09
3.81405e-14
4.63528e-15
1.39976e-09
5.24718e-14
-1.82401e-13
1.39892e-09
-1.1087e-12
1.67617e-12
1.3988e-09
8.37611e-13
-5.13716e-13
1.39925e-09
2.13704e-13
-1.60414e-12
1.39944e-09
5.14748e-13
-1.58594e-12
1.40026e-09
-2.85018e-12
1.73417e-12
1.40007e-09
-1.92448e-12
1.54496e-12
1.39991e-09
2.02814e-13
-1.082e-13
1.39994e-09
-3.72323e-14
-5.11207e-14
1.40017e-09
1.16251e-13
-1.70716e-13
1.40041e-09
3.96349e-14
3.32195e-13
1.39833e-09
-1.10771e-12
-1.05493e-12
1.39889e-09
2.69318e-13
-2.95988e-13
1.39927e-09
-2.28112e-13
-6.42909e-14
1.39882e-09
7.87646e-13
-2.75158e-13
1.39878e-09
-5.78538e-13
2.0084e-13
1.40013e-09
2.6489e-13
1.22087e-12
1.3998e-09
2.52405e-14
4.43377e-13
1.39979e-09
1.56084e-13
1.00396e-13
1.39942e-09
-1.68611e-12
1.07072e-12
1.39928e-09
4.18697e-13
-8.47557e-14
1.39957e-09
1.51105e-13
-8.91859e-13
-2.05639e-13
1.19366e-12
2.41509e-09
-1.35633e-10
-5.36765e-09
3.27916e-09
1.14596e-09
-4.40203e-09
-3.24638e-09
4.12354e-09
1.20103e-09
6.28011e-10
1.081e-09
-5.31144e-10
-2.16973e-09
-7.5074e-09
6.7637e-09
-2.10471e-10
1.01185e-09
9.26246e-10
7.18763e-10
4.67049e-10
-4.32535e-09
-7.16474e-09
2.36928e-09
1.11472e-08
-2.02634e-09
-5.38436e-10
-4.26883e-09
-1.26105e-09
5.82467e-09
-8.03028e-11
5.25418e-10
3.04875e-10
-5.0634e-10
2.15483e-10
-2.4375e-10
1.66966e-10
-7.05999e-10
5.673e-10
-9.68873e-11
3.27739e-11
-6.04839e-11
3.38403e-11
9.0757e-11
-3.53079e-11
2.1155e-10
-2.85061e-12
-3.75786e-11
-6.53126e-11
-7.01288e-11
2.43812e-11
-4.18942e-12
-8.1963e-12
-8.09935e-12
-4.26809e-12
1.40811e-09
-8.56024e-11
-2.81404e-11
-2.57593e-10
-2.59261e-10
-4.26798e-10
-4.37043e-10
1.40689e-09
-5.44972e-11
-2.08684e-12
1.40449e-09
-3.41009e-11
3.77089e-13
1.403e-09
-2.1403e-11
-6.04622e-14
1.40195e-09
-1.3475e-11
2.14884e-14
1.40113e-09
-8.46367e-12
1.74368e-17
1.40052e-09
-5.25558e-12
1.14627e-14
1.4002e-09
-3.27459e-12
1.0501e-14
1.39983e-09
-2.1195e-12
-5.01145e-14
1.40041e-09
-2.70761e-12
1.81467e-12
1.39999e-09
2.19378e-13
1.52501e-12
1.40005e-09
-8.76535e-13
-5.21058e-14
1.39952e-09
7.3528e-14
4.14365e-13
1.40001e-09
-7.45609e-13
-5.60631e-14
1.39941e-09
-1.07007e-12
8.34818e-13
1.39953e-09
5.62512e-14
-1.92213e-13
1.39957e-09
-3.08727e-13
-1.81952e-13
1.39909e-09
4.59533e-13
-4.78727e-13
1.39913e-09
-4.39945e-14
3.42743e-14
1.39895e-09
-5.44214e-14
2.82576e-13
1.39953e-09
7.39603e-13
-2.44124e-12
1.40034e-09
1.06264e-12
-1.04132e-12
1.40002e-09
5.23264e-13
-4.04639e-16
1.40081e-09
7.71042e-13
-1.05123e-12
1.39956e-09
5.88959e-14
-1.67077e-12
1.39942e-09
2.47743e-13
-2.03465e-12
1.39943e-09
3.77978e-13
-2.03469e-13
1.39958e-09
-2.39553e-13
4.48101e-14
1.3998e-09
-5.2653e-14
-6.12129e-14
1.39966e-09
-8.50056e-14
2.54552e-13
1.39928e-09
-3.81658e-13
-3.51853e-13
1.39882e-09
1.17605e-12
-4.58942e-13
1.39841e-09
2.17817e-13
-4.63801e-14
1.39896e-09
5.06399e-14
1.77354e-13
1.39992e-09
-3.1213e-12
1.57209e-12
1.40039e-09
7.65011e-13
-9.74964e-13
1.39997e-09
2.36656e-14
4.15255e-13
1.39997e-09
3.18692e-14
1.19507e-13
1.39924e-09
-2.76091e-14
-9.34084e-13
1.39911e-09
5.68077e-13
-2.82907e-14
1.39893e-09
2.71057e-13
5.95554e-14
-1.93097e-12
8.5495e-13
-1.16775e-09
-2.4867e-09
4.06775e-09
9.97361e-10
-1.26017e-09
-1.36322e-10
1.7681e-10
-8.60165e-10
-2.4483e-10
-7.74536e-10
1.26924e-09
6.10288e-10
4.43017e-09
1.53388e-09
1.29726e-08
-2.02073e-09
-7.57373e-09
-3.29816e-09
-2.16949e-09
-3.87456e-09
2.07417e-09
-5.37036e-10
1.36093e-10
-9.44865e-11
-1.57874e-09
-1.77369e-10
-4.14423e-10
4.46442e-10
1.06163e-10
3.91866e-11
-2.0144e-10
1.58678e-10
8.06289e-11
-7.89302e-11
4.10629e-11
-1.17659e-10
-2.03335e-11
2.69898e-12
4.68566e-11
8.8437e-11
-4.99697e-11
4.25146e-12
-3.87201e-12
1.9444e-11
3.01462e-11
1.46084e-09
-5.16612e-11
-3.03515e-11
-2.75348e-10
-2.72064e-10
-4.63317e-10
-4.53765e-10
1.44101e-09
-3.26243e-11
-2.16701e-12
1.42598e-09
-1.95469e-11
3.85961e-13
1.41652e-09
-1.18883e-11
-1.25426e-13
1.41042e-09
-7.43007e-12
8.5144e-15
1.4065e-09
-4.56456e-12
-1.95493e-14
1.4039e-09
-2.68298e-12
-1.21649e-14
1.40228e-09
-1.66273e-12
-1.29451e-14
1.40124e-09
-1.08358e-12
-1.08575e-14
1.40004e-09
-7.71398e-13
-7.56696e-13
1.4005e-09
-5.59397e-13
3.10285e-13
1.39988e-09
-4.59393e-13
1.8989e-13
1.40033e-09
-1.61572e-13
-2.24966e-13
1.39973e-09
-1.25378e-13
-2.7938e-14
1.39983e-09
9.7903e-13
-2.15882e-12
1.39986e-09
1.65354e-13
-1.45291e-13
1.39963e-09
-1.64081e-13
7.91062e-14
1.39987e-09
-1.85684e-14
2.35099e-13
1.39981e-09
2.83717e-14
-2.20233e-14
1.3999e-09
7.76032e-13
-9.30581e-13
1.40037e-09
1.12606e-12
-8.60819e-13
1.3995e-09
1.56345e-13
1.76446e-12
1.39961e-09
5.09757e-13
-9.96185e-14
1.39927e-09
-1.08217e-12
2.17793e-12
1.3994e-09
-1.19337e-13
4.03497e-14
1.39952e-09
1.26373e-13
-6.13908e-15
1.39975e-09
-1.09724e-13
2.52539e-13
1.39957e-09
-1.22324e-13
4.58973e-14
1.39965e-09
-2.46981e-13
1.07064e-13
1.39971e-09
-7.89835e-15
-1.45707e-13
1.39942e-09
-6.3596e-13
5.33337e-13
1.39901e-09
1.83576e-12
-2.57473e-13
1.39947e-09
-4.66393e-13
2.08193e-13
1.39996e-09
5.65944e-14
-5.0038e-13
1.39937e-09
-9.87177e-13
-1.55386e-12
1.39952e-09
-1.4533e-12
2.06303e-12
1.39975e-09
1.9722e-13
-4.16905e-13
1.39988e-09
2.36762e-14
-1.29195e-13
1.3998e-09
1.37361e-12
-1.32296e-12
1.39866e-09
1.75297e-12
-5.26879e-14
1.39894e-09
8.36077e-15
-1.85798e-14
-2.06482e-12
4.14595e-13
-2.81081e-09
5.8678e-09
3.27406e-09
-6.14008e-09
7.9774e-10
1.03421e-08
-2.90301e-09
-1.75907e-09
-2.43851e-09
-2.13116e-09
-6.92928e-10
-1.21516e-09
-1.02815e-10
-5.1306e-11
8.55098e-10
9.87625e-10
-1.6886e-09
-3.76252e-10
-1.16353e-09
-1.13364e-09
4.7544e-10
1.57231e-09
1.1937e-10
-7.40789e-11
5.80378e-10
1.69326e-10
1.99072e-10
-9.25504e-10
-1.96232e-10
7.53337e-10
4.22107e-10
-2.9247e-10
-3.8431e-12
1.40852e-10
-2.66645e-10
-8.52261e-11
6.56054e-12
-1.81644e-10
1.25742e-10
1.34586e-11
-3.90321e-11
-5.12492e-12
3.04912e-11
-5.54975e-12
-9.22843e-12
-2.09034e-12
4.91002e-11
6.40779e-11
3.84645e-11
-1.56711e-10
9.89037e-12
-8.65384e-12
1.09772e-10
4.57025e-11
1.50121e-09
7.97106e-12
-2.99573e-11
-2.87489e-10
-2.86356e-10
-4.78492e-10
-4.78603e-10
1.46383e-09
7.22485e-12
-2.53969e-12
1.43965e-09
4.22213e-12
3.57085e-13
1.42425e-09
3.5342e-12
-6.8794e-14
1.41551e-09
2.38999e-12
-1.12348e-12
1.40993e-09
1.00261e-12
-1.57273e-14
1.40566e-09
1.9533e-12
-3.90318e-13
1.40324e-09
4.59248e-13
2.73889e-13
1.40196e-09
2.166e-13
-2.83738e-14
1.40091e-09
3.40168e-13
-7.57374e-14
1.40013e-09
4.69899e-13
-2.67345e-13
1.40022e-09
4.78834e-13
-1.03548e-12
1.39994e-09
1.13036e-13
-6.52542e-15
1.40018e-09
-6.88585e-13
3.14528e-13
1.40021e-09
3.59585e-13
5.86649e-13
1.40001e-09
-3.42853e-14
3.86798e-13
1.39999e-09
-5.59525e-13
4.1052e-13
1.40001e-09
2.84025e-13
-3.31861e-13
1.4001e-09
-5.54715e-14
-5.16855e-15
1.39991e-09
8.65318e-14
8.66126e-13
1.39934e-09
2.65521e-13
1.42244e-12
1.3994e-09
5.25505e-13
-4.34869e-13
1.40006e-09
1.32904e-13
-2.8985e-13
1.39923e-09
-6.01716e-13
3.40698e-13
1.3993e-09
-1.21064e-15
-1.99426e-13
1.39944e-09
-3.25163e-14
1.39707e-14
1.39939e-09
-8.7429e-14
1.0978e-14
1.39921e-09
7.901e-14
-2.95386e-14
1.39924e-09
-1.91606e-13
-9.16249e-14
1.39914e-09
-5.01807e-14
1.28937e-13
1.39907e-09
-1.76512e-13
-3.96511e-13
1.3998e-09
1.98817e-13
8.97045e-13
1.39957e-09
-4.16386e-13
1.67108e-13
1.40038e-09
-2.30707e-12
1.54339e-12
1.39957e-09
-4.38312e-13
2.58144e-13
1.39935e-09
3.42095e-13
-1.5845e-12
1.39966e-09
4.94512e-14
-1.70312e-13
1.40011e-09
-4.26414e-13
-1.07251e-14
1.40004e-09
-1.37707e-12
2.81675e-12
1.39873e-09
3.29227e-12
-2.27337e-13
1.399e-09
-8.57639e-13
5.85558e-13
-2.00099e-13
-9.51464e-13
4.19757e-10
3.47947e-09
2.95102e-09
3.29722e-09
4.10803e-11
3.75416e-09
-1.56112e-09
-1.99209e-09
-7.98164e-10
-2.50094e-09
1.54914e-08
-6.78502e-09
-1.44077e-08
5.43446e-10
6.29122e-11
3.73892e-10
-5.60471e-10
7.66245e-10
7.84117e-10
-1.29753e-09
1.20072e-09
7.75901e-10
-2.67567e-10
-3.69566e-10
-1.22274e-09
1.74808e-10
1.1656e-10
-6.6095e-10
2.94667e-09
3.11593e-09
-1.87011e-09
-6.93594e-09
2.74346e-09
-3.09829e-12
-2.51046e-12
-2.86776e-10
-3.13117e-10
6.05502e-10
-7.21448e-11
3.14421e-10
-1.8349e-10
1.57809e-10
-2.16595e-10
-8.8212e-11
2.57722e-10
-2.33232e-10
-6.48233e-11
-9.06744e-11
-1.69076e-10
-1.49468e-10
1.11339e-10
1.42385e-10
1.71394e-10
1.12645e-10
-1.33068e-10
1.39837e-12
3.23464e-12
5.87783e-11
6.96569e-11
1.49724e-09
6.78014e-11
-2.97923e-11
-2.86349e-10
-2.86442e-10
-4.78243e-10
-4.76268e-10
1.46125e-09
4.58984e-11
-2.69305e-12
1.43722e-09
2.78743e-11
3.70274e-13
1.42345e-09
1.75874e-11
-3.04833e-13
1.41396e-09
1.0828e-11
1.04157e-12
1.40819e-09
6.77119e-12
-1.7912e-14
1.40539e-09
4.3718e-12
3.68027e-13
1.4034e-09
2.70987e-12
-2.76882e-13
1.40197e-09
1.63183e-12
1.7131e-15
1.40097e-09
2.79985e-12
-1.4696e-12
1.4008e-09
5.01284e-13
1.21245e-13
1.39958e-09
7.50415e-13
9.43893e-13
1.40085e-09
1.48275e-12
-2.6445e-12
1.39994e-09
4.92596e-13
-2.88915e-13
1.39997e-09
3.03019e-13
2.71805e-14
1.39965e-09
5.12939e-13
-2.36418e-13
1.39948e-09
-5.18258e-14
-3.48149e-13
1.40022e-09
9.16025e-13
-1.37911e-12
1.4002e-09
2.23945e-14
-6.53928e-14
1.40024e-09
1.08902e-13
-7.17124e-14
1.40028e-09
4.46918e-13
-2.28242e-13
1.39864e-09
4.66824e-12
-2.50622e-12
1.39869e-09
-8.561e-13
9.30685e-13
1.39974e-09
-2.37022e-13
-1.42707e-12
1.39965e-09
1.22319e-13
-4.28569e-14
1.39952e-09
1.79917e-13
-8.53231e-14
1.39933e-09
1.06981e-12
-9.83535e-13
1.39938e-09
1.46895e-14
6.7475e-15
1.39946e-09
-4.48231e-13
1.62632e-13
1.39939e-09
-1.02243e-13
1.14676e-13
1.39925e-09
-7.28526e-13
6.80554e-13
1.39998e-09
-6.75644e-13
1.35466e-13
1.40028e-09
-4.30031e-13
-2.94527e-13
1.39929e-09
-4.17801e-13
-9.05787e-13
1.39936e-09
-2.0191e-13
-3.17011e-13
1.39898e-09
1.28372e-13
5.89163e-13
1.39889e-09
-8.34517e-14
2.13609e-13
1.3987e-09
-1.53039e-13
-9.58881e-14
1.39871e-09
1.33678e-12
-2.72007e-12
1.4006e-09
1.12677e-12
2.71996e-13
1.40033e-09
-4.62202e-13
-1.37881e-13
-8.29771e-13
1.89643e-12
1.5652e-09
4.04893e-09
7.70435e-09
-6.48442e-09
9.18002e-09
-4.94804e-09
1.69883e-08
3.62138e-08
-5.94002e-08
-1.59853e-09
3.75648e-09
2.71535e-09
-3.0762e-10
1.9347e-09
-2.4479e-09
-2.48724e-09
1.26798e-09
3.22167e-09
-3.26365e-09
-1.97057e-10
-1.02896e-09
1.73546e-09
-4.18046e-10
2.77841e-09
-1.21811e-09
-4.37417e-09
6.25887e-10
-3.25965e-09
4.13022e-09
3.15282e-09
2.09433e-09
4.18119e-09
1.71426e-11
-2.55214e-09
-3.16834e-09
-1.99883e-09
-1.72617e-09
-2.11012e-11
-2.7921e-10
2.66221e-10
6.18553e-10
-5.84463e-10
-5.7171e-11
2.1504e-11
3.34468e-12
-9.39142e-11
1.26237e-10
-1.41578e-10
-1.02008e-11
7.57757e-12
1.05088e-10
3.91132e-11
1.45108e-09
1.06207e-10
-2.99647e-11
-2.71711e-10
-2.74178e-10
-4.52159e-10
-4.61465e-10
1.43219e-09
6.69794e-11
-2.14472e-12
1.41922e-09
4.05689e-11
3.07561e-13
1.41176e-09
2.51547e-11
-1.0061e-13
1.40709e-09
1.55091e-11
-7.95782e-15
1.40424e-09
9.63513e-12
-1.52731e-14
1.40255e-09
6.04784e-12
2.68328e-15
1.40146e-09
3.80046e-12
-9.54301e-15
1.40069e-09
2.37382e-12
1.52285e-14
1.40042e-09
1.52164e-12
1.54248e-12
1.40073e-09
7.85326e-14
1.00315e-13
1.40078e-09
9.99514e-13
-3.09429e-13
1.39938e-09
2.44534e-13
2.63699e-12
1.39964e-09
1.74865e-13
4.59592e-14
1.39982e-09
4.89122e-13
-3.78087e-13
1.39994e-09
1.68261e-13
2.22983e-13
1.39999e-09
-4.7932e-14
-6.54005e-14
1.39936e-09
-2.31613e-13
1.77771e-12
1.39957e-09
-1.31681e-13
-6.70548e-14
1.39984e-09
-2.43536e-13
7.70691e-14
1.39828e-09
4.61009e-12
-2.60971e-12
1.39983e-09
4.21904e-13
2.68593e-12
1.39985e-09
-2.57642e-13
-6.22121e-13
1.39967e-09
-6.55202e-14
-9.21812e-15
1.39961e-09
9.59007e-14
8.40892e-14
1.3996e-09
8.96303e-14
9.05131e-14
1.39968e-09
-7.33709e-16
9.75461e-13
1.39961e-09
1.35924e-13
-6.15171e-14
1.39954e-09
-2.12862e-13
-1.73659e-13
1.3995e-09
3.78089e-13
-4.51976e-13
1.39932e-09
6.87726e-14
-6.26303e-13
1.39997e-09
5.67264e-13
-1.90355e-12
1.39949e-09
-1.80585e-14
5.96354e-14
1.39926e-09
-1.67395e-13
-2.66153e-14
1.39918e-09
-1.01045e-13
-3.17463e-14
1.39927e-09
1.01788e-14
2.52021e-14
1.39913e-09
-1.19597e-13
1.67554e-13
1.39886e-09
1.1271e-13
-5.4529e-15
1.39926e-09
-7.83006e-13
1.71491e-12
1.39965e-09
6.7967e-13
4.97976e-14
1.39985e-09
-1.07491e-13
-5.55017e-13
-1.89149e-13
-1.41024e-12
-5.21291e-09
8.19955e-09
-1.04662e-08
4.20085e-10
-8.2152e-09
3.98572e-10
6.54551e-08
-4.54919e-08
3.5106e-10
3.98553e-09
-9.33863e-09
3.22605e-09
2.51559e-10
-1.25494e-09
4.94281e-10
-2.57667e-09
1.6802e-10
2.69173e-09
5.72237e-10
-4.55754e-09
1.12555e-09
2.2313e-10
5.03769e-10
-8.93718e-10
3.50762e-09
-3.3408e-09
-5.98425e-10
1.81973e-09
-1.70831e-10
-3.43019e-10
-7.07453e-10
2.53519e-10
-8.42774e-09
3.19085e-09
1.25846e-09
3.72491e-09
-8.10942e-11
8.53454e-12
-2.4164e-12
-2.10738e-11
9.60499e-11
-3.69029e-11
-5.10559e-12
5.34448e-12
9.53328e-12
2.71307e-11
1.37586e-09
9.07175e-11
-2.80833e-11
-2.52761e-10
-2.45584e-10
-4.27109e-10
-4.06807e-10
1.387e-09
5.75431e-11
-1.61871e-12
1.39205e-09
3.52232e-11
3.39646e-13
1.39519e-09
2.2091e-11
-5.54292e-14
1.3969e-09
1.37942e-11
1.7104e-14
1.39801e-09
8.54059e-12
-5.21266e-15
1.39865e-09
5.38432e-12
1.86128e-14
1.39901e-09
3.41467e-12
2.13213e-14
1.39952e-09
1.76316e-12
8.76291e-14
1.39925e-09
2.13279e-12
-3.45066e-13
1.39998e-09
-1.43861e-12
7.72117e-13
1.39993e-09
3.26009e-13
7.24495e-13
1.39972e-09
4.39061e-13
3.06891e-15
1.39964e-09
6.12812e-13
-3.68351e-13
1.39974e-09
8.41217e-15
3.72812e-13
1.39978e-09
9.16267e-14
3.58687e-14
1.39956e-09
7.5961e-14
8.34581e-14
1.39931e-09
-2.81478e-13
2.95808e-13
1.39908e-09
8.54146e-14
-7.66976e-16
1.39846e-09
-1.78427e-14
3.87463e-13
1.39982e-09
3.6546e-13
2.88329e-12
1.39977e-09
8.32595e-13
-3.74781e-13
1.40047e-09
-2.74871e-12
1.78273e-12
1.40015e-09
2.82008e-13
-3.49968e-14
1.39954e-09
9.10738e-13
-2.13874e-13
1.39947e-09
9.86934e-14
5.15311e-14
1.3995e-09
-4.75683e-14
7.70946e-15
1.39928e-09
1.22193e-12
-8.74332e-13
1.39956e-09
-5.55809e-13
4.88653e-14
1.39981e-09
-2.24636e-13
3.46981e-13
1.40011e-09
-1.67297e-13
-7.10856e-14
1.39931e-09
-3.67811e-13
1.71707e-12
1.39938e-09
2.40409e-13
-3.37977e-13
1.39927e-09
-5.87285e-14
-7.03052e-15
1.39929e-09
-1.24348e-13
-1.73401e-15
1.39929e-09
7.69593e-14
-7.10645e-14
1.39917e-09
1.13979e-13
-1.29143e-13
1.39871e-09
5.39097e-13
2.86176e-14
1.39918e-09
-1.02672e-12
-2.26298e-13
1.39909e-09
4.96603e-13
2.65342e-13
1.40032e-09
-2.86567e-12
1.53181e-12
-3.38337e-13
-5.2497e-13
-3.83336e-09
7.64238e-09
7.98115e-09
-4.34444e-10
-4.91358e-09
3.14645e-09
1.39651e-10
-3.6501e-09
1.37824e-09
-2.69649e-09
3.17229e-10
1.24489e-09
-5.66732e-10
1.04036e-09
3.93996e-10
1.55977e-09
-3.99265e-09
9.98518e-10
8.40563e-11
-2.75228e-10
-6.91837e-10
-1.21608e-09
7.09267e-10
3.31564e-10
3.01986e-10
7.56269e-10
3.72742e-10
-4.91766e-11
4.06363e-10
4.03676e-10
-1.1336e-09
8.94963e-11
-2.8702e-10
5.24382e-10
-3.01395e-10
-2.54639e-11
-6.7976e-11
1.60266e-11
-2.21041e-11
2.4164e-11
4.98895e-11
-2.94759e-11
-2.67675e-11
1.67341e-10
1.99931e-11
1.05827e-11
-3.07402e-11
-5.42192e-11
-5.67145e-11
1.31429e-09
1.99267e-11
-2.21704e-11
-2.33193e-10
-2.27312e-10
-3.86163e-10
-3.74623e-10
1.34872e-09
2.48281e-11
-1.63489e-12
1.36895e-09
1.44744e-11
5.59671e-13
1.38096e-09
1.00791e-11
2.56817e-14
1.38799e-09
7.0256e-12
-2.55511e-13
1.39259e-09
3.93037e-12
1.11816e-14
1.39518e-09
2.81777e-12
-2.54103e-14
1.39746e-09
4.75413e-13
6.61189e-13
1.3983e-09
8.94567e-13
1.1571e-14
1.3994e-09
6.52443e-13
3.72727e-13
1.39854e-09
2.8166e-13
-8.72712e-13
1.39912e-09
5.82268e-13
-8.39802e-13
1.39926e-09
2.42423e-13
4.31139e-14
1.39944e-09
8.83345e-14
3.42075e-13
1.39942e-09
6.53409e-15
1.80889e-14
1.39934e-09
2.24888e-13
-6.13651e-14
1.39939e-09
9.4423e-14
-7.50211e-14
1.39956e-09
-2.20374e-13
-2.42163e-13
1.39961e-09
-4.53104e-14
7.00887e-14
1.4e-09
4.83866e-14
-4.6126e-13
1.40001e-09
3.4148e-13
5.15158e-15
1.39995e-09
2.67374e-13
6.17685e-13
1.39917e-09
-1.16978e-13
-1.86064e-12
1.39926e-09
2.69048e-13
-8.28228e-14
1.39985e-09
9.09642e-13
-6.01988e-13
1.39916e-09
7.22481e-15
7.73695e-13
1.39905e-09
1.9998e-13
-1.48264e-13
1.39877e-09
5.86219e-13
9.08861e-13
1.4003e-09
-2.92033e-12
8.25479e-13
1.40011e-09
-1.93231e-13
1.49614e-13
1.39966e-09
9.51855e-13
-6.84542e-13
1.39967e-09
-3.15349e-13
-6.88654e-14
1.39973e-09
-3.55534e-13
5.26485e-13
1.39924e-09
1.92366e-12
-1.50698e-12
1.3993e-09
-1.1768e-13
-7.27676e-14
1.39915e-09
-1.57155e-13
3.74974e-13
1.39951e-09
-6.72528e-13
4.17651e-13
1.40003e-09
-2.21856e-13
2.36126e-13
1.39877e-09
4.70467e-13
-2.35382e-13
1.39901e-09
3.78685e-13
-1.31562e-13
1.39909e-09
1.09481e-12
-4.04277e-12
-1.87308e-12
-1.0525e-14
1.19276e-09
-2.33714e-08
1.02361e-09
5.57591e-10
-8.32773e-10
5.1542e-08
1.42392e-09
-2.42571e-08
-1.7653e-09
-2.52402e-09
-1.38095e-09
6.86308e-09
-1.06138e-09
1.41809e-09
6.02182e-10
-9.48101e-10
6.33306e-10
-8.80093e-10
6.98199e-10
-4.6221e-10
-5.33726e-10
-3.23794e-09
5.04457e-10
4.72487e-09
-1.45766e-09
-1.70277e-09
1.4857e-09
1.00054e-09
1.90139e-08
-1.25542e-08
-1.29255e-08
4.6455e-09
4.09771e-10
6.19681e-10
6.43262e-12
9.54767e-13
-5.11917e-10
3.06906e-10
5.99925e-11
1.42162e-09
-1.2766e-09
-3.15625e-11
-1.74348e-11
1.87532e-11
-3.81534e-11
6.83975e-11
1.24992e-09
-2.28932e-11
-2.03489e-10
-2.05804e-10
-3.3885e-10
-3.41338e-10
-1.2718e-11
-1.61286e-11
-2.41982e-11
-2.95664e-11
1.29799e-09
-6.48915e-13
1.33781e-09
-4.18625e-14
1.3611e-09
1.12489e-13
1.37522e-09
1.59812e-13
1.38379e-09
3.63787e-13
1.39063e-09
3.09064e-13
1.39458e-09
-4.99436e-16
1.39606e-09
-8.92633e-13
1.39743e-09
-9.90388e-14
1.39844e-09
-1.56111e-13
1.39899e-09
1.7864e-13
1.39897e-09
1.38483e-12
1.39895e-09
9.75829e-13
1.39911e-09
5.16798e-14
1.39922e-09
-3.87532e-14
1.39948e-09
4.29257e-14
1.39964e-09
3.40759e-13
1.39963e-09
-6.84312e-13
1.3995e-09
2.0456e-13
1.39955e-09
1.86047e-15
1.40012e-09
1.06551e-12
1.39995e-09
-1.95146e-13
1.39976e-09
-2.24866e-12
1.3988e-09
-1.3839e-12
1.39926e-09
8.73456e-13
1.39946e-09
-2.61753e-13
1.39969e-09
-2.28884e-14
1.40049e-09
-3.52926e-13
1.39878e-09
-8.36829e-13
1.39892e-09
-9.9919e-14
1.39979e-09
7.2384e-13
1.39957e-09
2.02515e-13
1.39954e-09
-2.36055e-14
1.39994e-09
1.45085e-12
1.39946e-09
-2.60119e-12
1.39943e-09
-3.916e-13
1.39923e-09
-3.89374e-13
1.39934e-09
-3.26947e-13
1.39979e-09
-5.97868e-14
1.4004e-09
-2.22282e-13
1.39908e-09
2.643e-12
7.92835e-14
-8.60953e-11
-1.0449e-08
-2.69994e-09
1.30511e-08
1.27037e-08
8.04615e-10
-6.30138e-10
-2.59914e-10
-1.19779e-08
3.31948e-09
4.48661e-09
-3.62462e-09
-4.96656e-09
-1.11816e-09
-3.67757e-09
5.05166e-09
-3.07257e-09
6.83454e-09
-3.74334e-09
-6.79119e-09
1.56224e-10
1.27886e-09
-2.6643e-10
6.26913e-09
2.69048e-10
9.21366e-10
-8.78887e-10
2.18523e-10
-1.70372e-10
-6.7189e-11
-8.30039e-11
-1.28279e-11
3.71931e-11
1.22143e-10
2.19594e-09
-5.16913e-11
2.85878e-11
-5.14526e-10
-5.4926e-10
-5.14675e-10
-5.49185e-10
-5.5351e-11
-5.16786e-11
-5.53385e-11
2.216e-09
-6.8446e-11
1.66729e-12
2.25597e-09
-6.53251e-11
1.65184e-13
2.28021e-09
-3.90364e-11
-7.18079e-14
2.29891e-09
-2.55956e-11
-4.87218e-13
2.31182e-09
-1.6172e-11
-5.87326e-13
2.31786e-09
-1.08184e-11
3.08058e-13
2.32271e-09
-6.9051e-12
1.30175e-13
2.32539e-09
-4.9589e-12
8.35383e-13
2.32773e-09
-2.98279e-12
-2.45925e-14
2.3289e-09
-1.9265e-12
1.79786e-13
2.32886e-09
-2.0106e-12
8.87586e-13
2.33e-09
-7.99741e-13
2.79559e-13
2.33078e-09
-2.70125e-13
9.69309e-13
2.33076e-09
-7.99899e-14
5.33797e-14
2.33033e-09
2.81341e-13
-5.59789e-14
2.33062e-09
-2.4915e-13
-8.54225e-14
2.33101e-09
-1.94873e-12
1.09692e-12
2.3311e-09
-1.41159e-12
-2.79977e-13
2.33101e-09
2.16561e-13
1.51548e-13
2.33116e-09
-1.22252e-13
-6.33196e-14
2.33052e-09
-5.64265e-13
5.32311e-13
2.33089e-09
2.42462e-13
-9.09391e-14
2.32994e-09
4.8646e-12
-1.09685e-12
2.33045e-09
4.28865e-12
-3.16048e-12
2.33041e-09
-3.62897e-13
-2.55998e-13
2.33139e-09
4.05338e-13
-4.89538e-13
2.33121e-09
-6.13519e-15
6.88251e-14
2.33061e-09
2.48946e-14
-4.58973e-13
2.32946e-09
8.28082e-13
4.12079e-15
2.32914e-09
-1.30794e-12
7.78139e-13
2.33232e-09
-6.38823e-13
-2.09807e-12
2.33134e-09
9.37896e-13
-1.20918e-13
2.33086e-09
2.74203e-13
-4.83358e-14
2.33085e-09
3.61332e-14
-3.2918e-13
2.332e-09
-7.02594e-13
1.06303e-12
2.33001e-09
3.39997e-12
-2.5589e-12
2.33037e-09
-6.26797e-13
-2.44476e-13
2.32986e-09
1.59014e-13
2.31749e-13
2.3315e-09
-1.4461e-12
-6.27324e-13
2.33104e-09
2.23316e-13
1.44038e-13
2.32994e-09
7.38024e-13
8.84625e-13
-5.89088e-13
-4.03473e-13
-1.41869e-08
9.93426e-10
-2.17386e-09
2.01988e-08
-1.49853e-09
-6.96457e-10
-4.30139e-10
-1.59879e-09
-3.02921e-10
9.83663e-10
9.52566e-10
-8.19926e-09
5.39599e-09
1.16995e-09
-8.64311e-10
4.50489e-09
8.665e-10
-2.54402e-10
1.23871e-09
-5.49265e-09
-1.91163e-09
1.74815e-09
2.99036e-09
5.06642e-09
-6.48057e-09
-1.41273e-09
3.7149e-10
3.89059e-10
-3.79451e-09
2.83447e-09
-8.1428e-09
8.34228e-09
2.32542e-09
-3.8293e-10
2.05233e-09
-7.62707e-10
1.07032e-09
-4.30243e-09
-4.19724e-11
5.37973e-11
-4.04017e-11
-1.33105e-11
-4.57143e-11
8.76016e-11
-5.4855e-10
5.59127e-10
-6.28695e-11
1.45926e-12
-8.64427e-13
2.26085e-09
-1.36208e-10
2.28528e-11
-5.49608e-10
-5.69819e-10
-5.49605e-10
-5.69834e-10
2.28339e-09
-9.19771e-11
1.93436e-12
2.3026e-09
-5.73875e-11
-4.87643e-13
2.31336e-09
-3.65232e-11
3.21425e-14
2.32021e-09
-2.306e-11
-1.99998e-14
2.3241e-09
-1.47765e-11
2.74832e-15
2.32647e-09
-9.30904e-12
-1.88338e-14
2.32872e-09
-5.7644e-12
-6.02129e-13
2.32964e-09
-3.77429e-12
-8.60181e-14
2.32994e-09
-1.41063e-12
-1.78063e-12
2.33001e-09
-3.59846e-12
6.5232e-13
2.33052e-09
-1.27247e-12
-3.26915e-14
2.33061e-09
-9.53269e-13
3.7342e-13
2.33078e-09
-4.02498e-13
-1.2565e-13
2.33111e-09
2.54186e-13
2.78274e-13
2.33089e-09
-3.10608e-14
1.88448e-14
2.33085e-09
-6.1491e-13
-6.99197e-13
2.33064e-09
-1.79589e-13
-3.91979e-13
2.33085e-09
8.19955e-15
-1.48016e-14
2.33097e-09
-5.9427e-13
1.49438e-13
2.32961e-09
5.18733e-12
-2.72744e-12
2.32945e-09
-6.64032e-13
5.27544e-13
2.33044e-09
4.48559e-13
1.80913e-12
2.33073e-09
7.825e-13
1.60535e-12
2.33192e-09
-2.25539e-12
2.41439e-12
2.33186e-09
1.1387e-12
8.51065e-13
2.33137e-09
3.0204e-13
5.36768e-14
2.3313e-09
-3.13237e-14
4.97314e-14
2.33174e-09
2.27502e-13
-2.96884e-14
2.33197e-09
-5.36852e-13
-6.92541e-13
2.32901e-09
-9.10723e-13
2.15562e-12
2.32965e-09
4.90864e-13
-5.10784e-13
2.33012e-09
-2.73043e-13
-1.24181e-14
2.32946e-09
5.26002e-13
-1.17468e-13
2.3297e-09
-7.06181e-13
-5.92817e-14
2.33156e-09
2.02874e-13
2.53868e-12
2.3311e-09
1.20217e-13
1.43252e-13
2.33117e-09
2.42683e-13
-6.23487e-14
2.33059e-09
7.62415e-13
-5.6692e-13
2.3303e-09
6.19323e-13
-1.99294e-13
2.33069e-09
1.91263e-13
-7.37402e-13
-3.0615e-13
1.86398e-13
3.72207e-09
-5.08747e-09
-9.29011e-09
5.48348e-09
-5.31048e-09
-8.40004e-09
-8.32412e-10
2.03227e-08
9.84065e-09
8.08106e-10
4.3995e-09
-7.95545e-09
3.81514e-09
-1.27267e-09
-2.43718e-09
-1.64491e-09
-1.33787e-09
-2.40334e-09
-1.01563e-09
-7.96327e-10
-3.61406e-09
1.88056e-10
1.40637e-09
-1.68221e-09
-1.02573e-09
-1.41321e-09
-5.10346e-09
-2.41169e-09
-2.66654e-09
-1.36175e-08
1.06355e-08
4.23879e-08
-1.92193e-08
-1.22313e-09
-9.61896e-10
-7.37969e-10
-2.14915e-10
-4.96648e-09
-7.4743e-11
-2.9368e-09
2.47819e-09
5.20354e-09
-5.57899e-09
5.14925e-09
-3.48262e-09
2.24254e-09
1.8186e-08
-1.76198e-08
-2.94015e-09
-2.74896e-09
-3.72733e-09
-4.37784e-09
1.38466e-08
2.56189e-10
-2.38819e-10
-9.81095e-10
2.04626e-11
-2.0492e-09
3.03675e-09
3.24291e-10
4.7564e-11
2.93032e-10
1.11644e-09
-4.81808e-09
-3.40131e-11
-6.7025e-11
2.46324e-11
-9.59407e-11
7.67409e-11
9.56055e-11
-1.48202e-10
6.24134e-10
3.14661e-12
-5.00319e-12
-1.54118e-10
-1.53457e-10
-1.6002e-10
6.981e-11
-1.89565e-11
-1.9703e-11
-1.91691e-11
-1.84628e-11
2.3511e-09
-1.3692e-10
2.88322e-11
-5.94885e-10
-6.08939e-10
-5.94882e-10
-6.08974e-10
2.34173e-09
-8.69431e-11
1.99085e-12
2.33928e-09
-5.4354e-11
-3.88758e-13
2.33649e-09
-3.39988e-11
6.55671e-14
2.3348e-09
-2.14326e-11
-2.06495e-14
2.33341e-09
-1.34652e-11
-1.69161e-15
2.33241e-09
-8.35269e-12
-1.431e-14
2.33184e-09
-5.20131e-12
-2.84722e-14
2.33129e-09
-3.37131e-12
6.04791e-14
2.33223e-09
-2.23734e-12
1.66813e-12
2.33145e-09
-1.10544e-13
-1.21519e-12
2.33161e-09
-1.50513e-12
2.10085e-15
2.33082e-09
1.57709e-16
2.27402e-13
2.33157e-09
-1.22199e-12
1.64982e-15
2.33064e-09
1.87351e-12
1.22999e-13
2.33096e-09
-6.04463e-13
4.53498e-14
2.33047e-09
-5.85122e-13
2.64698e-13
2.32996e-09
1.20954e-13
-2.83609e-13
2.3299e-09
-3.06838e-14
1.13394e-13
2.32956e-09
3.33904e-13
-3.22075e-13
2.33074e-09
-8.53905e-13
2.40301e-12
2.33201e-09
-4.01422e-12
1.01938e-12
2.33155e-09
1.06015e-12
-1.72794e-13
2.333e-09
-2.60462e-12
8.67863e-13
2.33105e-09
3.01387e-13
-2.29535e-12
2.33043e-09
2.96014e-13
-5.89924e-13
2.33064e-09
4.35466e-14
-1.81145e-13
2.33092e-09
-2.86963e-13
-5.77871e-15
2.33111e-09
-8.40807e-14
3.67272e-14
2.33098e-09
-1.77236e-13
1.00979e-14
2.33034e-09
-6.45963e-13
-7.00904e-15
2.32941e-09
-5.00997e-13
1.44202e-12
2.32891e-09
-1.54094e-13
3.18114e-13
2.32974e-09
-1.72153e-13
2.62553e-14
2.33131e-09
1.77358e-12
-2.49996e-12
2.33196e-09
-2.39434e-12
9.54427e-13
2.33155e-09
1.02515e-12
-8.72279e-14
2.3315e-09
7.2328e-13
-3.31339e-13
2.33021e-09
1.27332e-13
9.82694e-13
2.32985e-09
8.66305e-13
7.5262e-14
2.32975e-09
4.46638e-13
-9.75688e-14
-2.52846e-12
1.57511e-12
9.80157e-10
-5.78021e-09
1.31738e-09
2.78295e-09
-4.07651e-08
6.20434e-08
-1.21924e-08
-3.78235e-09
-2.36905e-09
8.2867e-11
-1.70992e-09
5.91591e-09
1.91041e-09
-1.26095e-09
1.7376e-09
-7.22328e-09
-1.07969e-09
-2.74917e-09
2.15741e-09
1.98321e-08
2.36776e-09
-2.36488e-08
1.51774e-09
9.65047e-10
-2.54102e-10
9.4396e-10
-2.0587e-09
4.62731e-09
-4.08029e-09
-2.09525e-09
2.66296e-09
-1.06493e-09
6.91529e-10
-4.80072e-10
1.30321e-10
-2.23046e-10
9.462e-10
4.08453e-09
1.85992e-09
-2.59286e-09
1.89961e-09
-1.03014e-09
-4.22106e-09
-3.78691e-10
-2.30752e-10
1.29005e-10
5.64473e-11
2.42563e-10
1.81428e-10
-1.54765e-10
-2.2992e-11
2.30372e-11
-1.91706e-11
1.33372e-11
1.60553e-10
2.43636e-09
-8.21799e-11
3.01284e-11
-6.44412e-10
-6.31467e-10
-6.44421e-10
-6.31542e-10
2.39666e-09
-5.1755e-11
2.1241e-12