/*--------------------------------*- C++ -*----------------------------------*\
| =========                 |                                                 |
| \\      /  F ield         | OpenFOAM: The Open Source CFD Toolbox           |
|  \\    /   O peration     | Version:  5.0                                   |
|   \\  /    A nd           | Web:      www.OpenFOAM.org                      |
|    \\/     M anipulation  |                                                 |
\*---------------------------------------------------------------------------*/
FoamFile
{
    version     2.0;
    format      ascii;
    class       volScalarField;
    location    "3.8";
    object      rAU;
}
// * * * * * * * * * * * * * * * * * * * * * * * * * * * * * * * * * * * * * //

dimensions      [-1 3 1 0 0 0 0];

internalField   nonuniform List<scalar> 
9347
(
8.88296e-07
8.16441e-07
8.44982e-07
7.04137e-07
8.45551e-07
6.825e-07
4.12932e-08
3.92288e-07
3.93664e-07
3.94698e-07
3.95731e-07
3.96763e-07
3.97795e-07
3.98826e-07
3.99857e-07
4.00886e-07
4.01916e-07
4.02944e-07
4.03971e-07
4.04999e-07
4.06025e-07
4.0705e-07
4.08075e-07
4.09099e-07
4.10122e-07
4.11145e-07
4.12167e-07
4.13188e-07
4.14208e-07
4.15227e-07
4.16246e-07
4.17264e-07
4.18281e-07
4.19298e-07
4.20314e-07
4.21328e-07
4.22342e-07
4.23356e-07
4.24368e-07
4.25379e-07
4.2639e-07
4.274e-07
4.28409e-07
4.29418e-07
4.30425e-07
4.31431e-07
4.32438e-07
4.33442e-07
4.34446e-07
4.36222e-07
8.91504e-07
6.9791e-07
6.71504e-07
6.6677e-07
8.9205e-07
6.66072e-07
7.12513e-08
1.29777e-07
3.93455e-07
3.94697e-07
3.95731e-07
3.96763e-07
3.97795e-07
3.98826e-07
3.99857e-07
4.00886e-07
4.01916e-07
4.02944e-07
4.03971e-07
4.04999e-07
4.06025e-07
4.0705e-07
4.08075e-07
4.09099e-07
4.10122e-07
4.11145e-07
4.12167e-07
4.13187e-07
4.14208e-07
4.15227e-07
4.16246e-07
4.17264e-07
4.18281e-07
4.19297e-07
4.20314e-07
4.21328e-07
4.22342e-07
4.23356e-07
4.24368e-07
4.25379e-07
4.2639e-07
4.274e-07
4.28409e-07
4.29418e-07
4.30425e-07
4.31431e-07
4.32438e-07
4.33442e-07
4.34446e-07
4.36222e-07
8.84859e-07
8.19251e-07
8.57753e-07
8.6606e-07
8.02737e-07
6.87923e-07
6.95563e-07
1.29662e-07
3.93453e-07
3.94696e-07
3.9573e-07
3.96763e-07
3.97794e-07
3.98826e-07
3.99856e-07
4.00886e-07
4.01916e-07
4.02944e-07
4.03971e-07
4.04999e-07
4.06025e-07
4.0705e-07
4.08075e-07
4.09099e-07
4.10122e-07
4.11145e-07
4.12167e-07
4.13188e-07
4.14208e-07
4.15227e-07
4.16246e-07
4.17264e-07
4.18281e-07
4.19298e-07
4.20314e-07
4.21328e-07
4.22342e-07
4.23356e-07
4.24368e-07
4.25379e-07
4.2639e-07
4.274e-07
4.28409e-07
4.29418e-07
4.30425e-07
4.31431e-07
4.32438e-07
4.33442e-07
4.34446e-07
4.36222e-07
8.62239e-07
9.31854e-08
8.3865e-07
8.84753e-07
6.65925e-07
6.84786e-07
7.00819e-07
3.52092e-08
3.93451e-07
3.94695e-07
3.9573e-07
3.96762e-07
3.97794e-07
3.98826e-07
3.99856e-07
4.00886e-07
4.01916e-07
4.02944e-07
4.03971e-07
4.04999e-07
4.06025e-07
4.0705e-07
4.08075e-07
4.09099e-07
4.10122e-07
4.11145e-07
4.12167e-07
4.13187e-07
4.14208e-07
4.15227e-07
4.16246e-07
4.17264e-07
4.18281e-07
4.19298e-07
4.20314e-07
4.21328e-07
4.22342e-07
4.23356e-07
4.24368e-07
4.25379e-07
4.2639e-07
4.274e-07
4.28409e-07
4.29418e-07
4.30425e-07
4.31431e-07
4.32438e-07
4.33442e-07
4.34446e-07
4.36222e-07
8.85458e-07
8.79919e-07
5.52359e-07
8.35819e-07
4.2237e-07
6.76023e-07
9.02716e-07
4.19319e-08
3.93451e-07
3.94695e-07
3.95729e-07
3.96762e-07
3.97794e-07
3.98826e-07
3.99856e-07
4.00886e-07
4.01916e-07
4.02944e-07
4.03971e-07
4.04999e-07
4.06025e-07
4.0705e-07
4.08075e-07
4.09099e-07
4.10122e-07
4.11145e-07
4.12167e-07
4.13187e-07
4.14208e-07
4.15227e-07
4.16246e-07
4.17264e-07
4.18281e-07
4.19298e-07
4.20314e-07
4.21328e-07
4.22342e-07
4.23356e-07
4.24368e-07
4.25379e-07
4.2639e-07
4.274e-07
4.28409e-07
4.29418e-07
4.30425e-07
4.31431e-07
4.32438e-07
4.33442e-07
4.34446e-07
4.36222e-07
9.63795e-07
8.84137e-07
7.95048e-07
8.77315e-07
5.71794e-07
6.75416e-07
9.02664e-07
4.80168e-08
3.93451e-07
3.94695e-07
3.95729e-07
3.96762e-07
3.97794e-07
3.98826e-07
3.99856e-07
4.00886e-07
4.01916e-07
4.02944e-07
4.03971e-07
4.04999e-07
4.06025e-07
4.0705e-07
4.08075e-07
4.09099e-07
4.10122e-07
4.11145e-07
4.12167e-07
4.13187e-07
4.14208e-07
4.15227e-07
4.16246e-07
4.17264e-07
4.18281e-07
4.19298e-07
4.20314e-07
4.21328e-07
4.22342e-07
4.23356e-07
4.24368e-07
4.25379e-07
4.2639e-07
4.274e-07
4.28409e-07
4.29418e-07
4.30425e-07
4.31431e-07
4.32438e-07
4.33442e-07
4.34446e-07
4.36222e-07
9.47389e-07
7.4337e-07
6.51357e-07
8.35012e-07
8.69156e-07
6.82221e-07
7.00095e-07
3.78604e-08
3.93451e-07
3.94695e-07
3.95729e-07
3.96762e-07
3.97794e-07
3.98826e-07
3.99856e-07
4.00886e-07
4.01916e-07
4.02944e-07
4.03971e-07
4.04999e-07
4.06025e-07
4.0705e-07
4.08075e-07
4.09099e-07
4.10122e-07
4.11145e-07
4.12167e-07
4.13187e-07
4.14208e-07
4.15227e-07
4.16246e-07
4.17264e-07
4.18281e-07
4.19298e-07
4.20314e-07
4.21328e-07
4.22342e-07
4.23356e-07
4.24368e-07
4.25379e-07
4.2639e-07
4.274e-07
4.28409e-07
4.29418e-07
4.30425e-07
4.31431e-07
4.32438e-07
4.33442e-07
4.34446e-07
4.36222e-07
9.60905e-07
8.5451e-07
3.6843e-07
6.20281e-07
6.87281e-07
6.75177e-07
6.99067e-07
3.52956e-08
3.93452e-07
3.94696e-07
3.9573e-07
3.96763e-07
3.97794e-07
3.98826e-07
3.99856e-07
4.00886e-07
4.01916e-07
4.02944e-07
4.03971e-07
4.04999e-07
4.06025e-07
4.0705e-07
4.08075e-07
4.09099e-07
4.10122e-07
4.11145e-07
4.12167e-07
4.13188e-07
4.14208e-07
4.15227e-07
4.16246e-07
4.17264e-07
4.18281e-07
4.19298e-07
4.20314e-07
4.21328e-07
4.22342e-07
4.23356e-07
4.24368e-07
4.25379e-07
4.2639e-07
4.274e-07
4.28409e-07
4.29418e-07
4.30425e-07
4.31431e-07
4.32438e-07
4.33442e-07
4.34446e-07
4.36222e-07
9.60799e-07
8.66513e-07
3.21582e-07
7.64282e-07
6.04669e-07
5.26436e-07
6.95468e-07
1.29503e-07
3.93455e-07
3.94697e-07
3.95731e-07
3.96763e-07
3.97795e-07
3.98826e-07
3.99857e-07
4.00886e-07
4.01916e-07
4.02944e-07
4.03971e-07
4.04999e-07
4.06025e-07
4.0705e-07
4.08075e-07
4.09099e-07
4.10122e-07
4.11145e-07
4.12167e-07
4.13187e-07
4.14208e-07
4.15227e-07
4.16246e-07
4.17264e-07
4.18281e-07
4.19298e-07
4.20314e-07
4.21328e-07
4.22342e-07
4.23356e-07
4.24368e-07
4.25379e-07
4.2639e-07
4.274e-07
4.28409e-07
4.29418e-07
4.30425e-07
4.31431e-07
4.32438e-07
4.33442e-07
4.34446e-07
4.36222e-07
9.55713e-07
8.55316e-07
7.58684e-07
8.74099e-07
8.82507e-07
6.83301e-07
7.69135e-08
3.92289e-07
3.93665e-07
3.94698e-07
3.95731e-07
3.96763e-07
3.97795e-07
3.98826e-07
3.99857e-07
4.00886e-07
4.01916e-07
4.02944e-07
4.03971e-07
4.04999e-07
4.06025e-07
4.0705e-07
4.08075e-07
4.09099e-07
4.10122e-07
4.11145e-07
4.12167e-07
4.13188e-07
4.14208e-07
4.15227e-07
4.16246e-07
4.17264e-07
4.18281e-07
4.19298e-07
4.20314e-07
4.21328e-07
4.22342e-07
4.23356e-07
4.24368e-07
4.25379e-07
4.2639e-07
4.274e-07
4.28409e-07
4.29418e-07
4.30425e-07
4.31431e-07
4.32438e-07
4.33442e-07
4.34446e-07
4.36222e-07
8.98147e-07
6.74466e-07
6.31064e-07
1.20811e-07
5.75689e-07
7.03728e-07
6.11296e-08
5.0468e-07
5.0639e-07
5.0753e-07
5.08667e-07
5.09804e-07
5.10939e-07
5.12072e-07
5.13204e-07
5.14335e-07
5.15464e-07
5.16591e-07
5.17717e-07
5.18841e-07
5.19964e-07
5.21085e-07
5.22203e-07
5.23321e-07
5.24438e-07
5.25551e-07
5.26664e-07
5.27776e-07
5.28885e-07
5.29993e-07
5.31099e-07
5.32203e-07
5.33306e-07
5.34408e-07
5.35507e-07
5.36605e-07
5.37701e-07
5.38795e-07
5.39888e-07
5.4098e-07
5.42069e-07
5.43157e-07
5.44244e-07
5.45328e-07
5.46411e-07
5.47492e-07
5.48571e-07
5.49649e-07
5.50726e-07
5.53041e-07
8.93085e-07
2.55813e-07
5.19519e-07
5.30116e-07
8.92664e-07
6.49812e-07
1.03687e-07
1.84251e-07
5.06041e-07
5.07528e-07
5.08666e-07
5.09803e-07
5.10939e-07
5.12072e-07
5.13204e-07
5.14335e-07
5.15463e-07
5.16591e-07
5.17717e-07
5.18841e-07
5.19964e-07
5.21085e-07
5.22203e-07
5.23321e-07
5.24438e-07
5.25551e-07
5.26664e-07
5.27776e-07
5.28884e-07
5.29993e-07
5.31099e-07
5.32203e-07
5.33306e-07
5.34408e-07
5.35507e-07
5.36605e-07
5.37701e-07
5.38795e-07
5.39888e-07
5.4098e-07
5.42069e-07
5.43157e-07
5.44244e-07
5.45328e-07
5.46411e-07
5.47492e-07
5.48571e-07
5.49649e-07
5.50726e-07
5.5304e-07
8.03119e-07
8.89255e-07
8.9768e-07
8.71187e-07
7.21786e-07
6.94946e-07
7.71796e-07
1.8383e-07
5.06035e-07
5.07525e-07
5.08664e-07
5.09802e-07
5.10938e-07
5.12071e-07
5.13204e-07
5.14335e-07
5.15463e-07
5.16591e-07
5.17717e-07
5.18841e-07
5.19964e-07
5.21085e-07
5.22203e-07
5.23321e-07
5.24438e-07
5.25551e-07
5.26664e-07
5.27776e-07
5.28884e-07
5.29993e-07
5.31099e-07
5.32203e-07
5.33306e-07
5.34408e-07
5.35507e-07
5.36605e-07
5.37701e-07
5.38795e-07
5.39889e-07
5.4098e-07
5.42069e-07
5.43157e-07
5.44244e-07
5.45328e-07
5.46411e-07
5.47492e-07
5.48571e-07
5.49649e-07
5.50726e-07
5.5304e-07
8.14048e-07
4.51644e-07
8.80299e-07
8.47954e-07
7.02062e-07
6.75254e-07
7.74903e-07
5.19984e-08
5.06032e-07
5.07523e-07
5.08663e-07
5.09801e-07
5.10937e-07
5.12071e-07
5.13204e-07
5.14335e-07
5.15463e-07
5.16591e-07
5.17717e-07
5.18841e-07
5.19964e-07
5.21085e-07
5.22203e-07
5.23321e-07
5.24438e-07
5.25551e-07
5.26664e-07
5.27776e-07
5.28885e-07
5.29993e-07
5.31099e-07
5.32203e-07
5.33306e-07
5.34408e-07
5.35507e-07
5.36605e-07
5.37701e-07
5.38795e-07
5.39888e-07
5.4098e-07
5.42069e-07
5.43157e-07
5.44244e-07
5.45328e-07
5.46411e-07
5.47492e-07
5.48571e-07
5.49649e-07
5.50726e-07
5.5304e-07
4.77026e-07
8.15242e-07
5.07627e-07
7.35555e-07
3.34841e-07
6.73608e-07
9.31381e-07
6.24097e-08
5.06031e-07
5.07523e-07
5.08662e-07
5.09801e-07
5.10937e-07
5.12071e-07
5.13204e-07
5.14335e-07
5.15463e-07
5.16591e-07
5.17717e-07
5.18841e-07
5.19964e-07
5.21085e-07
5.22203e-07
5.23321e-07
5.24438e-07
5.25551e-07
5.26664e-07
5.27776e-07
5.28885e-07
5.29993e-07
5.31099e-07
5.32203e-07
5.33306e-07
5.34408e-07
5.35507e-07
5.36605e-07
5.37701e-07
5.38795e-07
5.39889e-07
5.4098e-07
5.42069e-07
5.43157e-07
5.44244e-07
5.45328e-07
5.46411e-07
5.47492e-07
5.48571e-07
5.49649e-07
5.50726e-07
5.53041e-07
8.60698e-07
9.27157e-07
9.11574e-07
8.61241e-07
6.83995e-07
6.89797e-07
9.31822e-07
7.26898e-08
5.06031e-07
5.07522e-07
5.08662e-07
5.09801e-07
5.10937e-07
5.12071e-07
5.13204e-07
5.14335e-07
5.15463e-07
5.16591e-07
5.17717e-07
5.18841e-07
5.19963e-07
5.21085e-07
5.22203e-07
5.23321e-07
5.24438e-07
5.25551e-07
5.26664e-07
5.27776e-07
5.28885e-07
5.29993e-07
5.31099e-07
5.32203e-07
5.33306e-07
5.34408e-07
5.35507e-07
5.36605e-07
5.37701e-07
5.38795e-07
5.39889e-07
5.4098e-07
5.42069e-07
5.43157e-07
5.44244e-07
5.45328e-07
5.46411e-07
5.47492e-07
5.48571e-07
5.49649e-07
5.50726e-07
5.5304e-07
9.14906e-07
8.59031e-07
3.81069e-07
7.42612e-07
9.17472e-07
7.33299e-07
7.7315e-07
5.62637e-08
5.06031e-07
5.07523e-07
5.08662e-07
5.09801e-07
5.10937e-07
5.12071e-07
5.13204e-07
5.14335e-07
5.15463e-07
5.16591e-07
5.17717e-07
5.18841e-07
5.19963e-07
5.21085e-07
5.22203e-07
5.23321e-07
5.24438e-07
5.25551e-07
5.26664e-07
5.27776e-07
5.28885e-07
5.29993e-07
5.31099e-07
5.32203e-07
5.33306e-07
5.34408e-07
5.35507e-07
5.36605e-07
5.37701e-07
5.38795e-07
5.39889e-07
5.4098e-07
5.42069e-07
5.43157e-07
5.44244e-07
5.45328e-07
5.46411e-07
5.47492e-07
5.48571e-07
5.49649e-07
5.50726e-07
5.5304e-07
8.92075e-07
5.34023e-07
3.73509e-07
7.46242e-07
6.3822e-07
7.20155e-07
7.75652e-07
5.19821e-08
5.06035e-07
5.07525e-07
5.08664e-07
5.09802e-07
5.10938e-07
5.12071e-07
5.13204e-07
5.14335e-07
5.15463e-07
5.16591e-07
5.17717e-07
5.18841e-07
5.19964e-07
5.21085e-07
5.22203e-07
5.23321e-07
5.24438e-07
5.25551e-07
5.26664e-07
5.27776e-07
5.28885e-07
5.29993e-07
5.31099e-07
5.32203e-07
5.33306e-07
5.34408e-07
5.35507e-07
5.36605e-07
5.37701e-07
5.38795e-07
5.39889e-07
5.4098e-07
5.42069e-07
5.43157e-07
5.44244e-07
5.45328e-07
5.46411e-07
5.47492e-07
5.48571e-07
5.49649e-07
5.50726e-07
5.5304e-07
9.61049e-07
8.38402e-07
6.65173e-07
8.64676e-07
5.60063e-07
4.98659e-07
7.68521e-07
1.83948e-07
5.06041e-07
5.07528e-07
5.08666e-07
5.09803e-07
5.10939e-07
5.12072e-07
5.13204e-07
5.14335e-07
5.15463e-07
5.16591e-07
5.17717e-07
5.18841e-07
5.19964e-07
5.21085e-07
5.22203e-07
5.23321e-07
5.24438e-07
5.25551e-07
5.26664e-07
5.27776e-07
5.28885e-07
5.29993e-07
5.31099e-07
5.32203e-07
5.33306e-07
5.34408e-07
5.35507e-07
5.36605e-07
5.37701e-07
5.38795e-07
5.39888e-07
5.4098e-07
5.42069e-07
5.43157e-07
5.44244e-07
5.45328e-07
5.46411e-07
5.47492e-07
5.48571e-07
5.49649e-07
5.50726e-07
5.5304e-07
9.10068e-07
8.4667e-07
8.772e-07
7.9931e-07
7.75575e-07
7.06294e-07
1.11357e-07
5.04683e-07
5.06391e-07
5.0753e-07
5.08667e-07
5.09804e-07
5.10939e-07
5.12072e-07
5.13204e-07
5.14335e-07
5.15464e-07
5.16591e-07
5.17717e-07
5.18841e-07
5.19964e-07
5.21085e-07
5.22203e-07
5.23321e-07
5.24438e-07
5.25551e-07
5.26664e-07
5.27776e-07
5.28885e-07
5.29993e-07
5.31099e-07
5.32203e-07
5.33306e-07
5.34408e-07
5.35507e-07
5.36605e-07
5.37701e-07
5.38795e-07
5.39889e-07
5.4098e-07
5.42069e-07
5.43157e-07
5.44244e-07
5.45328e-07
5.46411e-07
5.47492e-07
5.48571e-07
5.49649e-07
5.50726e-07
5.53041e-07
8.08697e-07
5.47982e-07
3.943e-07
5.26482e-07
6.85667e-07
7.0408e-07
6.10689e-08
3.92288e-07
3.93664e-07
3.94698e-07
3.95731e-07
3.96763e-07
3.97795e-07
3.98826e-07
3.99857e-07
4.00886e-07
4.01916e-07
4.02944e-07
4.03971e-07
4.04999e-07
4.06025e-07
4.0705e-07
4.08075e-07
4.09099e-07
4.10122e-07
4.11145e-07
4.12167e-07
4.13187e-07
4.14208e-07
4.15227e-07
4.16246e-07
4.17264e-07
4.18281e-07
4.19297e-07
4.20313e-07
4.21328e-07
4.22342e-07
4.23356e-07
4.24368e-07
4.25379e-07
4.2639e-07
4.274e-07
4.28409e-07
4.29418e-07
4.30425e-07
4.31431e-07
4.32438e-07
4.33442e-07
4.34446e-07
4.36222e-07
9.06589e-07
4.78031e-07
6.08553e-07
2.25304e-07
7.56671e-07
6.84717e-07
1.03691e-07
1.84255e-07
3.93454e-07
3.94697e-07
3.95731e-07
3.96763e-07
3.97795e-07
3.98826e-07
3.99856e-07
4.00886e-07
4.01916e-07
4.02944e-07
4.03971e-07
4.04999e-07
4.06025e-07
4.0705e-07
4.08075e-07
4.09099e-07
4.10122e-07
4.11145e-07
4.12167e-07
4.13187e-07
4.14208e-07
4.15227e-07
4.16246e-07
4.17264e-07
4.18281e-07
4.19297e-07
4.20313e-07
4.21328e-07
4.22342e-07
4.23355e-07
4.24368e-07
4.25379e-07
4.2639e-07
4.274e-07
4.28409e-07
4.29418e-07
4.30425e-07
4.31431e-07
4.32438e-07
4.33442e-07
4.34446e-07
4.36222e-07
6.91584e-07
4.61238e-07
9.21748e-07
8.03111e-07
5.33815e-07
7.10054e-07
7.71912e-07
1.83835e-07
3.93453e-07
3.94696e-07
3.9573e-07
3.96763e-07
3.97794e-07
3.98826e-07
3.99856e-07
4.00886e-07
4.01916e-07
4.02944e-07
4.03971e-07
4.04999e-07
4.06025e-07
4.0705e-07
4.08075e-07
4.09099e-07
4.10122e-07
4.11145e-07
4.12167e-07
4.13187e-07
4.14208e-07
4.15227e-07
4.16246e-07
4.17264e-07
4.18281e-07
4.19297e-07
4.20313e-07
4.21328e-07
4.22342e-07
4.23356e-07
4.24368e-07
4.25379e-07
4.2639e-07
4.274e-07
4.28409e-07
4.29418e-07
4.30425e-07
4.31431e-07
4.32438e-07
4.33442e-07
4.34446e-07
4.36222e-07
5.48003e-07
6.59847e-07
9.50134e-07
8.72925e-07
8.90946e-07
7.43688e-07
7.76389e-07
5.19986e-08
3.93451e-07
3.94695e-07
3.95729e-07
3.96762e-07
3.97794e-07
3.98826e-07
3.99856e-07
4.00886e-07
4.01916e-07
4.02944e-07
4.03971e-07
4.04999e-07
4.06025e-07
4.0705e-07
4.08075e-07
4.09099e-07
4.10122e-07
4.11145e-07
4.12167e-07
4.13187e-07
4.14208e-07
4.15227e-07
4.16246e-07
4.17264e-07
4.18281e-07
4.19297e-07
4.20313e-07
4.21328e-07
4.22342e-07
4.23356e-07
4.24368e-07
4.25379e-07
4.2639e-07
4.274e-07
4.28409e-07
4.29418e-07
4.30425e-07
4.31431e-07
4.32438e-07
4.33442e-07
4.34446e-07
4.36222e-07
4.64148e-07
8.80813e-07
8.01027e-07
8.51724e-07
7.4192e-07
6.70018e-07
9.31657e-07
6.22925e-08
3.93451e-07
3.94695e-07
3.95729e-07
3.96762e-07
3.97794e-07
3.98826e-07
3.99856e-07
4.00886e-07
4.01916e-07
4.02944e-07
4.03971e-07
4.04999e-07
4.06025e-07
4.0705e-07
4.08075e-07
4.09099e-07
4.10122e-07
4.11145e-07
4.12167e-07
4.13187e-07
4.14208e-07
4.15227e-07
4.16246e-07
4.17264e-07
4.18281e-07
4.19297e-07
4.20313e-07
4.21328e-07
4.22342e-07
4.23356e-07
4.24368e-07
4.25379e-07
4.2639e-07
4.274e-07
4.28409e-07
4.29418e-07
4.30425e-07
4.31431e-07
4.32437e-07
4.33442e-07
4.34446e-07
4.36222e-07
9.307e-07
9.04295e-07
8.93643e-07
8.55224e-07
4.49425e-07
6.25372e-07
9.31541e-07
7.24603e-08
3.93451e-07
3.94695e-07
3.95729e-07
3.96762e-07
3.97794e-07
3.98826e-07
3.99856e-07
4.00886e-07
4.01916e-07
4.02944e-07
4.03971e-07
4.04999e-07
4.06025e-07
4.0705e-07
4.08075e-07
4.09099e-07
4.10122e-07
4.11145e-07
4.12167e-07
4.13187e-07
4.14208e-07
4.15227e-07
4.16246e-07
4.17264e-07
4.18281e-07
4.19297e-07
4.20313e-07
4.21328e-07
4.22342e-07
4.23356e-07
4.24368e-07
4.25379e-07
4.2639e-07
4.274e-07
4.28409e-07
4.29418e-07
4.30425e-07
4.31431e-07
4.32438e-07
4.33442e-07
4.34446e-07
4.36222e-07
9.393e-07
8.72938e-07
1.58865e-07
8.02518e-07
8.73927e-07
7.27491e-07
7.73473e-07
5.62039e-08
3.93451e-07
3.94695e-07
3.95729e-07
3.96762e-07
3.97794e-07
3.98826e-07
3.99856e-07
4.00886e-07
4.01916e-07
4.02944e-07
4.03971e-07
4.04999e-07
4.06025e-07
4.0705e-07
4.08075e-07
4.09099e-07
4.10122e-07
4.11145e-07
4.12167e-07
4.13187e-07
4.14208e-07
4.15227e-07
4.16246e-07
4.17264e-07
4.18281e-07
4.19297e-07
4.20313e-07
4.21328e-07
4.22342e-07
4.23356e-07
4.24368e-07
4.25379e-07
4.2639e-07
4.274e-07
4.28409e-07
4.29418e-07
4.30425e-07
4.31431e-07
4.32438e-07
4.33442e-07
4.34446e-07
4.36222e-07
9.21459e-07
8.33873e-07
7.86093e-07
7.08771e-07
6.7965e-07
7.59638e-07
7.76591e-07
5.19823e-08
3.93452e-07
3.94696e-07
3.9573e-07
3.96762e-07
3.97794e-07
3.98826e-07
3.99856e-07
4.00886e-07
4.01916e-07
4.02944e-07
4.03971e-07
4.04999e-07
4.06025e-07
4.0705e-07
4.08075e-07
4.09099e-07
4.10122e-07
4.11145e-07
4.12167e-07
4.13187e-07
4.14208e-07
4.15227e-07
4.16246e-07
4.17264e-07
4.18281e-07
4.19297e-07
4.20313e-07
4.21328e-07
4.22342e-07
4.23356e-07
4.24368e-07
4.25379e-07
4.2639e-07
4.274e-07
4.28409e-07
4.29418e-07
4.30425e-07
4.31431e-07
4.32438e-07
4.33442e-07
4.34446e-07
4.36222e-07
9.5114e-07
8.70511e-07
7.46553e-07
8.5204e-07
6.52269e-07
5.10073e-07
7.69337e-07
1.83953e-07
3.93454e-07
3.94697e-07
3.95731e-07
3.96763e-07
3.97795e-07
3.98826e-07
3.99856e-07
4.00886e-07
4.01916e-07
4.02944e-07
4.03971e-07
4.04999e-07
4.06025e-07
4.0705e-07
4.08075e-07
4.09099e-07
4.10122e-07
4.11145e-07
4.12167e-07
4.13187e-07
4.14208e-07
4.15227e-07
4.16246e-07
4.17264e-07
4.18281e-07
4.19297e-07
4.20313e-07
4.21328e-07
4.22342e-07
4.23355e-07
4.24368e-07
4.25379e-07
4.2639e-07
4.274e-07
4.28409e-07
4.29418e-07
4.30425e-07
4.31431e-07
4.32438e-07
4.33442e-07
4.34446e-07
4.36222e-07
8.7589e-07
7.96946e-07
9.20326e-07
8.34096e-07
6.89959e-07
7.62762e-07
1.11333e-07
3.92289e-07
3.93665e-07
3.94698e-07
3.95731e-07
3.96763e-07
3.97795e-07
3.98826e-07
3.99857e-07
4.00886e-07
4.01916e-07
4.02944e-07
4.03971e-07
4.04999e-07
4.06025e-07
4.0705e-07
4.08075e-07
4.09099e-07
4.10122e-07
4.11145e-07
4.12167e-07
4.13187e-07
4.14208e-07
4.15227e-07
4.16246e-07
4.17264e-07
4.18281e-07
4.19297e-07
4.20313e-07
4.21328e-07
4.22342e-07
4.23356e-07
4.24368e-07
4.25379e-07
4.2639e-07
4.274e-07
4.28409e-07
4.29418e-07
4.30425e-07
4.31431e-07
4.32438e-07
4.33442e-07
4.34446e-07
4.36222e-07
2.17343e-07
6.83434e-07
6.28172e-07
7.14111e-07
2.91369e-07
7.07564e-07
6.72244e-07
6.92551e-07
6.70286e-07
7.00618e-07
6.97587e-07
7.64559e-07
6.62712e-07
7.74675e-07
7.00368e-07
6.28696e-07
7.00256e-07
7.08611e-07
7.75034e-07
5.78048e-07
7.75541e-07
7.0034e-07
6.86685e-07
7.00537e-07
6.87834e-07
7.72034e-07
7.32398e-07
7.71633e-07
6.97741e-07
6.75588e-07
7.005e-07
6.80689e-07
7.7108e-07
7.56419e-07
7.76839e-07
7.00273e-07
6.79425e-07
6.99913e-07
7.17944e-07
7.76402e-07
7.25651e-07
7.74508e-07
6.99236e-07
6.63313e-07
7.0052e-07
7.29553e-07
7.72372e-07
6.7254e-07
7.75402e-07
7.00821e-07
6.54962e-07
7.00642e-07
7.24668e-07
7.75834e-07
5.68099e-07
7.73634e-07
7.00519e-07
6.75061e-07
6.95963e-07
5.2442e-07
7.73627e-07
7.43018e-07
7.68887e-07
6.93624e-07
6.72864e-07
3.10097e-07
7.20029e-07
7.66441e-07
6.43141e-07
3.94906e-07
2.93166e-07
6.92334e-07
6.67448e-07
7.14271e-07
2.90044e-07
6.79162e-07
6.74377e-07
7.64309e-07
5.35874e-07
7.74114e-07
6.3801e-07
7.64872e-07
5.05349e-07
7.73348e-07
7.7475e-07
5.61217e-07
7.75352e-07
6.94249e-07
7.7406e-07
6.49345e-07
7.75084e-07
7.72089e-07
7.32504e-07
7.719e-07
7.38394e-07
7.74268e-07
7.5784e-07
7.73885e-07
7.71785e-07
7.5656e-07
7.75607e-07
6.63395e-07
7.71166e-07
7.35879e-07
7.77416e-07
7.75407e-07
7.17248e-07
7.73713e-07
7.06024e-07
7.74274e-07
7.34298e-07
7.74383e-07
7.69499e-07
6.73801e-07
7.76462e-07
7.15138e-07
7.72377e-07
6.57158e-07
7.74429e-07
7.75941e-07
5.51216e-07
7.72987e-07
7.44065e-07
7.76036e-07
5.73639e-07
7.73428e-07
7.73216e-07
7.51675e-07
7.68629e-07
4.79441e-07
7.72255e-07
7.26465e-07
7.68299e-07
7.66305e-07
6.45381e-07
4.07786e-07
7.47725e-07
7.63276e-07
6.43891e-07
3.96985e-07
2.90072e-07
6.72625e-07
6.79741e-07
6.8179e-07
2.20092e-07
6.80324e-07
6.42504e-07
7.65365e-07
5.65497e-07
7.73629e-07
6.891e-07
6.92944e-07
6.68695e-07
6.99951e-07
7.74564e-07
6.85514e-07
7.75455e-07
6.69964e-07
7.00392e-07
6.50526e-07
7.00317e-07
7.75163e-07
7.45311e-07
7.73923e-07
6.85064e-07
6.99335e-07
6.66728e-07
6.99911e-07
7.7166e-07
7.23425e-07
7.76115e-07
6.80324e-07
6.98627e-07
6.84357e-07
7.00237e-07
7.7412e-07
7.38955e-07
7.74678e-07
5.93979e-07
7.00657e-07
6.80188e-07
7.00063e-07
7.70275e-07
6.74247e-07
7.72996e-07
6.74425e-07
6.99564e-07
6.66096e-07
6.98871e-07
7.76301e-07
5.92597e-07
7.7359e-07
6.81767e-07
7.00864e-07
5.76033e-07
7.00706e-07
7.72747e-07
7.26299e-07
7.68544e-07
5.71958e-07
7.00469e-07
6.88888e-07
6.95862e-07
7.62849e-07
6.3344e-07
3.95332e-07
6.84279e-07
6.93202e-07
6.50667e-07
3.16143e-07
8.8266e-07
8.80858e-07
8.64361e-07
3.27828e-07
7.67774e-07
8.81982e-07
9.11236e-07
7.6479e-07
6.95319e-07
6.8059e-07
7.31748e-07
7.42208e-07
6.94395e-07
7.68413e-07
1.29567e-07
5.12731e-08
1.29567e-07
6.09594e-08
1.83834e-07
7.6412e-08
1.83834e-07
8.90101e-07
8.51045e-07
6.94365e-07
9.25263e-07
9.10794e-07
8.66598e-07
8.26806e-07
7.31936e-07
6.91444e-07
4.31116e-07
7.70265e-07
7.62374e-07
6.00565e-07
6.79697e-07
1.29425e-07
6.92658e-07
3.51617e-08
1.03658e-07
1.83548e-07
7.65789e-07
5.19791e-08
8.10999e-07
6.4804e-07
1.16961e-07
7.41119e-07
8.68525e-07
6.0325e-07
1.90476e-07
7.64874e-07
6.97154e-07
6.55422e-07
7.62228e-07
7.7415e-07
7.19886e-07
6.96782e-07
3.52786e-08
6.98639e-07
3.80289e-08
7.71682e-07
5.19848e-08
7.76251e-07
5.62672e-08
2.42832e-07
7.25235e-07
8.5293e-07
6.66973e-07
3.34471e-07
6.86045e-07
7.94399e-07
7.67279e-07
6.94675e-07
6.76444e-07
7.28049e-07
7.62434e-07
7.11527e-07
6.96642e-07
4.78504e-08
7.00018e-07
1.46323e-07
7.75237e-07
7.07418e-08
7.72645e-07
2.04349e-07
6.3286e-07
5.23592e-07
6.12591e-07
3.41052e-07
3.56678e-07
4.01132e-07
4.52235e-07
7.55513e-07
6.96066e-07
6.62835e-07
7.02092e-07
7.68985e-07
6.97137e-07
6.90763e-07
2.36067e-07
9.0281e-07
4.7306e-07
9.3211e-07
3.11409e-07
9.32202e-07
5.16546e-07
4.04318e-07
8.89081e-07
8.7812e-07
5.47309e-07
5.47194e-07
9.04304e-07
9.14158e-07
7.68151e-07
6.98558e-07
4.94152e-07
7.3388e-07
7.70323e-07
6.19709e-07
6.9674e-07
4.9491e-07
9.02356e-07
2.26825e-07
9.31849e-07
5.28968e-07
9.31419e-07
2.97287e-07
8.58436e-07
6.67713e-07
4.80526e-07
8.45252e-07
8.77197e-07
6.55465e-07
7.46295e-07
7.52982e-07
6.9743e-07
6.75706e-07
7.49739e-07
7.69493e-07
7.29282e-07
6.89259e-07
1.34368e-07
7.00871e-07
4.78474e-08
7.70067e-07
1.88732e-07
7.76897e-07
7.09813e-08
6.11934e-07
5.66535e-07
3.68604e-07
5.3684e-07
6.26433e-07
6.4252e-07
2.87247e-07
7.49306e-07
6.86301e-07
3.90106e-07
7.47706e-07
7.51528e-07
4.59491e-07
6.89619e-07
3.87029e-08
6.97308e-07
3.50607e-08
7.76207e-07
5.7282e-08
7.72484e-07
5.19906e-08
1.85751e-07
8.40786e-07
8.58752e-07
4.43497e-07
2.47437e-07
9.21896e-07
8.85152e-07
6.56588e-07
6.94645e-07
4.17189e-07
5.6617e-07
7.60835e-07
5.36102e-07
5.69507e-07
3.52096e-08
1.08992e-07
3.52267e-08
7.68488e-07
5.19814e-08
1.55101e-07
5.20166e-08
7.50544e-07
4.82459e-07
3.88934e-07
6.98217e-07
5.41149e-07
5.39348e-07
4.50748e-07
7.71282e-07
6.96492e-07
3.48033e-07
7.40279e-07
7.7027e-07
4.77634e-07
6.98839e-07
1.2951e-07
4.29415e-08
1.29567e-07
1.11361e-07
1.83721e-07
6.33717e-08
1.83835e-07
4.91826e-07
7.26755e-07
8.69304e-07
6.78396e-07
7.08929e-07
6.36757e-07
8.88e-07
7.30151e-07
7.49442e-07
6.81982e-07
7.10964e-07
7.39654e-07
6.99059e-07
7.48115e-07
1.83829e-07
7.6558e-08
1.83829e-07
6.14849e-08
1.8383e-07
7.64126e-08
1.83829e-07
8.63461e-07
7.63562e-07
8.09781e-07
8.87732e-07
9.0776e-07
7.35876e-07
6.51233e-07
6.65762e-07
7.60389e-07
4.15161e-07
6.55738e-07
6.63624e-07
7.56109e-07
4.26347e-07
1.83545e-07
7.65427e-07
5.19785e-08
1.03719e-07
1.83545e-07
7.64961e-07
5.19785e-08
7.94699e-07
7.0849e-07
2.41761e-07
7.32347e-07
9.01024e-07
6.28076e-07
8.85875e-07
6.7925e-07
7.65486e-07
6.24366e-07
6.53569e-07
6.78173e-07
7.68087e-07
5.48683e-07
5.19844e-08
7.76242e-07
5.63243e-08
7.71734e-07
5.19844e-08
7.76223e-07
5.63186e-08
5.90759e-07
7.90329e-07
8.44503e-07
8.47461e-07
8.25749e-07
7.79091e-07
7.64805e-07
7.4427e-07
7.54166e-07
7.09919e-07
7.04789e-07
7.48151e-07
7.55802e-07
7.0985e-07
7.08256e-08
7.74658e-07
2.04183e-07
7.76368e-07
7.08055e-08
7.72746e-07
2.04433e-07
5.60118e-07
5.77722e-07
5.28318e-07
6.03708e-07
3.59135e-07
4.5864e-07
4.54205e-07
7.3136e-07
7.54413e-07
6.59125e-07
6.66846e-07
7.29605e-07
7.54009e-07
5.95677e-07
3.10807e-07
9.32054e-07
5.07825e-07
9.32051e-07
3.11235e-07
9.31928e-07
5.06895e-07
5.86001e-07
9.02817e-07
8.42428e-07
5.00463e-07
5.17384e-07
9.02597e-07
9.06537e-07
7.52766e-07
7.46121e-07
7.04685e-07
6.82471e-07
7.55059e-07
7.30902e-07
6.61242e-07
5.23095e-07
9.31531e-07
2.96917e-07
9.31571e-07
5.20698e-07
9.31093e-07
2.96647e-07
9.11488e-07
8.93822e-07
8.13335e-07
8.9028e-07
8.80576e-07
8.64098e-07
9.12874e-07
7.38813e-07
7.63089e-07
6.12258e-07
6.71708e-07
7.41638e-07
7.58475e-07
5.81499e-07
1.88923e-07
7.76375e-07
7.11261e-08
7.75566e-07
1.88824e-07
7.76812e-07
7.11282e-08
8.11902e-07
4.60949e-07
3.00658e-07
5.3192e-07
8.82378e-07
8.03864e-07
2.8575e-07
7.44337e-07
7.54748e-07
5.87383e-07
7.30041e-07
7.44915e-07
7.53137e-07
5.51234e-07
5.73558e-08
7.7219e-07
5.19902e-08
7.75948e-07
5.73603e-08
7.72069e-07
5.19902e-08
2.75001e-07
8.07361e-07
5.45551e-07
6.71127e-07
3.43815e-07
8.86756e-07
5.18969e-07
7.14209e-07
7.35378e-07
4.33828e-07
4.88357e-07
6.84323e-07
7.21041e-07
3.58635e-07
5.19811e-08
1.55191e-07
5.20161e-08
7.68989e-07
5.19811e-08
1.55204e-07
5.20162e-08
5.57437e-07
5.06666e-07
4.47569e-07
4.89305e-07
4.01232e-07
4.26061e-07
4.75748e-07
7.50935e-07
7.67012e-07
5.86344e-07
7.14628e-07
7.65499e-07
7.6492e-07
6.60484e-07
1.83717e-07
6.34838e-08
1.8383e-07
1.11329e-07
1.83717e-07
6.33947e-08
1.83831e-07
6.98335e-07
4.8549e-07
6.43809e-07
6.63783e-07
6.58596e-07
3.7522e-07
6.23376e-07
7.41518e-07
7.57235e-07
7.00228e-07
7.12838e-07
7.34128e-07
6.9207e-07
7.61932e-07
1.83834e-07
7.62704e-08
1.83834e-07
4.11968e-08
1.29567e-07
5.10507e-08
1.29567e-07
9.00839e-07
8.94886e-07
7.21564e-07
4.56962e-07
8.73179e-07
8.62383e-07
7.92746e-07
6.98436e-07
7.70605e-07
6.4614e-07
6.59099e-07
6.80917e-07
7.68157e-07
6.62778e-07
1.83548e-07
7.65238e-07
5.1979e-08
7.14834e-08
1.29425e-07
6.92587e-07
3.51618e-08
7.88671e-07
4.79735e-07
8.30309e-07
4.39394e-07
8.25945e-07
6.88706e-07
7.26054e-07
7.47295e-07
7.74759e-07
6.72755e-07
7.28375e-07
7.1675e-07
7.68274e-07
7.03454e-07
5.19847e-08
7.76144e-07
5.62591e-08
6.96621e-07
3.5181e-08
6.98645e-07
3.80222e-08
7.96609e-07
9.06354e-07
8.14524e-07
8.57178e-07
7.27266e-07
8.59521e-07
7.92691e-07
7.40045e-07
7.62632e-07
7.00567e-07
6.95993e-07
7.40017e-07
7.64772e-07
7.05682e-07
7.07151e-08
7.74481e-07
2.04341e-07
7.0076e-07
4.78234e-08
7.00592e-07
1.46635e-07
5.60258e-07
4.16044e-07
3.96329e-07
6.53774e-07
6.25986e-07
6.47809e-07
5.98838e-07
7.6982e-07
7.62545e-07
6.83626e-07
6.86329e-07
7.60843e-07
7.68058e-07
6.75191e-07
3.12066e-07
9.31985e-07
5.13568e-07
9.02613e-07
2.36517e-07
9.02828e-07
4.75215e-07
6.61932e-07
9.13151e-07
9.00763e-07
5.99679e-07
1.58015e-07
8.61285e-07
8.45857e-07
7.23609e-07
7.35728e-07
5.80699e-07
5.72794e-07
7.30594e-07
7.55719e-07
5.74579e-07
5.30728e-07
9.31491e-07
2.98053e-07
9.02555e-07
4.96443e-07
9.0224e-07
2.26795e-07
8.08168e-07
7.69552e-07
8.6106e-07
8.92905e-07
6.72329e-07
8.77299e-07
8.67645e-07
7.39936e-07
7.67799e-07
6.79009e-07
7.15679e-07
7.35358e-07
7.70974e-07
7.54998e-07
1.88807e-07
7.76895e-07
7.09871e-08
7.0025e-07
1.3412e-07
7.00902e-07
4.78831e-08
8.66825e-07
7.67928e-07
6.18886e-07
5.62549e-07
8.42225e-07
3.64055e-07
3.74622e-07
7.68288e-07
7.65754e-07
6.06509e-07
7.37522e-07
7.63308e-07
7.66645e-07
6.09319e-07
5.72898e-08
7.72282e-07
5.19905e-08
6.99052e-07
3.868e-08
6.9621e-07
3.50608e-08
3.2685e-07
7.36995e-07
4.68639e-07
4.98575e-07
1.14553e-07
6.69852e-07
6.40353e-07
7.11922e-07
7.25013e-07
3.53151e-07
5.08564e-07
6.90588e-07
7.42352e-07
4.67322e-07
5.19814e-08
1.55148e-07
5.20166e-08
6.95472e-07
3.51423e-08
1.08899e-07
3.52277e-08
8.01307e-07
3.4594e-07
3.93027e-07
6.58654e-07
6.82611e-07
6.31831e-07
6.88762e-07
7.53202e-07
7.58436e-07
7.25112e-07
7.53072e-07
7.48428e-07
7.5851e-07
7.24262e-07
1.83721e-07
6.33886e-08
1.83835e-07
7.71066e-08
1.2951e-07
4.28578e-08
1.29567e-07
7.71699e-07
6.97523e-07
2.5139e-07
2.90836e-07
3.28734e-07
6.97931e-07
7.7227e-07
7.63251e-07
6.72411e-07
6.93652e-07
7.65962e-07
6.89459e-07
7.58583e-07
6.92065e-07
7.65081e-07
2.83587e-07
6.97235e-07
6.9571e-07
3.69362e-07
7.71391e-07
6.95843e-07
7.55897e-07
7.30258e-07
7.57507e-07
7.19894e-07
7.25902e-07
7.48123e-07
7.63558e-07
7.69032e-07
2.89782e-07
7.70016e-07
3.2577e-07
3.25463e-07
7.6659e-07
7.71108e-07
7.56347e-07
7.37794e-07
6.51248e-07
7.56675e-07
6.5282e-07
7.54214e-07
7.51951e-07
7.62464e-07
6.82105e-07
3.66619e-07
7.70295e-07
3.68171e-07
7.71261e-07
7.61996e-07
7.72718e-07
6.9728e-07
6.96228e-07
7.65547e-07
7.70762e-07
7.70971e-07
6.99465e-07
7.55783e-07
5.09674e-07
6.91277e-07
7.1709e-07
5.29551e-07
7.64711e-07
6.88557e-07
7.74483e-07
6.99128e-07
6.96575e-07
7.7598e-07
7.74847e-07
7.67252e-07
6.99385e-07
7.15546e-07
7.68803e-07
7.58504e-07
5.39013e-07
7.57897e-07
6.30504e-07
6.9327e-07
7.71635e-07
7.64968e-07
7.70164e-07
7.68732e-07
7.69586e-07
7.69614e-07
7.66995e-07
7.50241e-07
6.72636e-07
4.03646e-07
7.53824e-07
4.34987e-07
7.58103e-07
7.37127e-07
7.69464e-07
7.75285e-07
7.74802e-07
7.65088e-07
7.74569e-07
7.65114e-07
7.66927e-07
7.73609e-07
6.9939e-07
7.00472e-07
7.7614e-07
7.73833e-07
7.75973e-07
6.99432e-07
5.84303e-07
3.88981e-07