/*--------------------------------*- C++ -*----------------------------------*\
| =========                 |                                                 |
| \\      /  F ield         | OpenFOAM: The Open Source CFD Toolbox           |
|  \\    /   O peration     | Version:  5.0                                   |
|   \\  /    A nd           | Web:      www.OpenFOAM.org                      |
|    \\/     M anipulation  |                                                 |
\*---------------------------------------------------------------------------*/
FoamFile
{
    version     2.0;
    format      ascii;
    class       volVectorField;
    location    "3.8";
    object      U;
}
// * * * * * * * * * * * * * * * * * * * * * * * * * * * * * * * * * * * * * //

dimensions      [0 1 -1 0 0 0 0];

internalField   nonuniform List<vector> 
9347
(
(0.00791432 0.000102857 -0.000601501)
(-0.000542099 -0.0117061 -0.000131598)
(0.0104557 -0.00697507 0.000441008)
(-0.0125223 -0.010681 -0.00693456)
(-0.00160308 0.0196068 -0.00100155)
(-0.00301315 -0.000249525 0.000269299)
(0.000359118 -4.58169e-05 3.41073e-05)
(0.00078917 -8.15309e-05 -2.0507e-06)
(0.000773583 -2.39112e-05 -2.21563e-07)
(0.000789087 -2.16988e-05 9.98326e-08)
(0.000799818 -1.23962e-05 1.02731e-07)
(0.000805831 -8.09375e-06 6.7069e-08)
(0.000810266 -4.99901e-06 4.29768e-10)
(0.000812006 -2.8662e-06 7.57765e-08)
(0.000812297 -1.84587e-06 4.95653e-08)
(0.000812089 -1.39564e-06 2.2901e-08)
(0.000811388 -8.82944e-07 5.23533e-08)
(0.00081052 -5.33464e-07 6.55226e-08)
(0.000809078 -4.197e-07 4.57752e-08)
(0.000807697 -4.37905e-07 1.32624e-07)
(0.000806563 -3.2513e-07 5.82118e-08)
(0.000805144 -1.86376e-07 7.13841e-08)
(0.000803489 -1.33063e-07 5.22577e-08)
(0.000801915 2.12059e-08 4.3024e-08)
(0.000800525 2.6338e-08 1.98842e-08)
(0.000799097 4.81837e-08 8.25309e-08)
(0.000797519 -3.68957e-09 4.18346e-08)
(0.000796065 2.71477e-08 4.81471e-08)
(0.000794464 1.59962e-07 1.46641e-08)
(0.000792948 -1.83082e-07 4.49008e-08)
(0.000791406 -4.90618e-07 8.11429e-08)
(0.000789766 -5.72474e-07 -3.88717e-08)
(0.000788347 -4.22461e-07 8.00543e-08)
(0.000787015 -1.88715e-07 4.69918e-08)
(0.000785717 -2.17124e-08 1.43392e-07)
(0.000784121 4.12321e-08 5.62071e-08)
(0.000782352 -1.91572e-07 1.12707e-07)
(0.000780521 1.75236e-07 4.0524e-08)
(0.000779722 6.11561e-07 1.01992e-07)
(0.000778755 1.96948e-07 5.24386e-08)
(0.000776896 1.95069e-08 7.93219e-08)
(0.000775319 3.78822e-08 7.6932e-08)
(0.000774256 -3.16567e-07 1.15632e-07)
(0.0007726 -4.08344e-07 1.70822e-08)
(0.000770838 -2.49739e-07 3.39614e-08)
(0.000769437 -1.55817e-07 5.96459e-08)
(0.000768234 1.38034e-08 5.1454e-08)
(0.000767191 -1.22601e-07 8.82893e-08)
(0.000765431 -3.85165e-07 4.45348e-08)
(0.000763821 -3.30569e-07 -1.50691e-10)
(-0.00643032 -0.0115778 0.000350482)
(0.00853684 0.0146409 -0.00205618)
(0.00322186 -0.00682533 -0.00178313)
(0.00519847 -0.0461159 0.00183659)
(-0.022856 0.0054097 -0.00123523)
(-0.00109345 0.00861513 0.000205263)
(0.000531393 -5.30823e-05 -2.25202e-07)
(0.000400663 -5.57276e-05 -1.17518e-06)
(0.000840584 -4.63834e-05 -1.06309e-06)
(0.000791938 -3.71847e-05 -2.50709e-07)
(0.000811106 -2.28112e-05 1.81462e-07)
(0.000812255 -1.4693e-05 4.7707e-08)
(0.000814326 -9.29382e-06 6.25567e-08)
(0.000814558 -6.1525e-06 5.06433e-08)
(0.000814066 -3.90777e-06 5.20569e-08)
(0.000813331 -2.58612e-06 5.5273e-08)
(0.000812368 -1.63085e-06 5.07315e-08)
(0.000810998 -1.21612e-06 5.1568e-08)
(0.000809474 -7.11787e-07 5.93085e-08)
(0.000808025 -3.42709e-07 2.65763e-08)
(0.000806598 -8.5406e-08 4.09615e-08)
(0.00080504 -1.75132e-07 5.37647e-08)
(0.000803628 -5.48317e-09 3.58017e-07)
(0.000802127 -3.4721e-08 3.11075e-08)
(0.000800523 6.75486e-08 6.53939e-08)
(0.000798996 -2.4756e-08 6.38613e-08)
(0.000797484 -1.69014e-07 3.40401e-08)
(0.000796098 -2.39457e-07 4.50126e-08)
(0.00079435 -5.4434e-07 7.10375e-08)
(0.00079247 -4.26725e-07 -1.37761e-07)
(0.000791157 -3.17015e-07 -1.11681e-07)
(0.000789862 -1.55589e-07 1.4457e-08)
(0.000788625 2.76342e-07 1.14671e-07)
(0.000787416 3.24514e-07 9.53404e-08)
(0.000785795 1.61946e-07 4.65295e-08)
(0.000784223 9.18034e-08 3.41366e-08)
(0.000782867 1.20682e-07 4.1769e-08)
(0.000781647 3.54643e-07 7.4037e-09)
(0.000779593 7.11442e-07 4.56865e-09)
(0.000777641 3.32039e-07 3.30515e-09)
(0.000776587 7.92942e-08 5.95137e-08)
(0.00077509 -1.89705e-07 6.69303e-08)
(0.000773457 -3.01184e-07 2.63546e-08)
(0.00077253 -4.86446e-07 1.67604e-07)
(0.000771347 -5.81801e-08 6.3472e-08)
(0.000769816 -4.00342e-09 5.65729e-08)
(0.000768339 3.6155e-07 5.48524e-08)
(0.00076675 7.55492e-08 5.0734e-08)
(0.000765355 -9.00041e-08 -7.14625e-08)
(0.000764333 -1.86123e-07 1.08943e-07)
(0.00392188 -0.000365102 -0.000358591)
(-0.00684887 0.0112947 -0.00026326)
(-0.0080872 -0.0232055 0.000856573)
(-0.00545859 0.0045669 0.000785439)
(-0.0113915 -0.000936095 -0.000332289)
(0.00376805 -0.00241007 0.000260453)
(0.00124774 -0.000478307 0.000119952)
(0.000473551 -6.91869e-05 -1.34092e-06)
(0.000879663 -6.79622e-05 -2.28426e-06)
(0.000818707 -4.32118e-05 -4.21456e-07)
(0.00082813 -2.70854e-05 1.53508e-07)
(0.000822852 -1.70598e-05 3.25678e-08)
(0.000821022 -1.07238e-05 5.55918e-08)
(0.00081879 -6.76649e-06 5.21389e-08)
(0.000816788 -4.24133e-06 5.28096e-08)
(0.000814957 -2.62309e-06 5.22951e-08)
(0.000813116 -1.74074e-06 5.31812e-08)
(0.000811679 -1.16889e-06 1.1291e-07)
(0.000810176 -1.04076e-06 1.18018e-07)
(0.000808483 -6.27578e-07 3.97766e-08)
(0.000806774 -5.86182e-07 4.21177e-08)
(0.000805244 -3.32227e-07 4.642e-08)
(0.000803664 -2.90776e-07 5.79511e-08)
(0.000802005 -2.72917e-07 -4.03814e-09)
(0.000800537 -2.71098e-07 5.92214e-08)
(0.0007988 -2.00702e-07 1.43849e-08)
(0.000797252 -1.48446e-07 2.82065e-08)
(0.000795599 -1.05796e-07 5.82299e-08)
(0.000794234 -1.62777e-07 -2.87232e-09)
(0.000793238 2.72557e-07 -5.16035e-08)
(0.000791749 4.31613e-07 2.36693e-07)
(0.000790508 5.00027e-07 5.63792e-08)
(0.000788946 4.37439e-07 6.8066e-09)
(0.000786869 2.80074e-07 2.61895e-08)
(0.000785424 8.42281e-08 4.82916e-08)
(0.000784068 9.45407e-08 5.30161e-08)
(0.000782679 2.57535e-08 5.3092e-08)
(0.000781256 -1.00075e-07 5.03625e-08)
(0.000779689 -3.03333e-07 2.57638e-08)
(0.000777961 -3.45026e-09 2.9094e-08)
(0.000776243 -9.24249e-10 -3.55636e-08)
(0.000774845 1.0153e-08 7.53272e-08)
(0.000773889 3.50684e-07 8.73205e-08)
(0.000772906 4.46882e-07 1.13024e-07)
(0.000771444 3.01e-07 -1.01176e-07)
(0.000769962 2.9343e-07 1.19791e-07)
(0.000768334 3.03133e-07 1.01586e-07)
(0.000766627 4.28833e-07 7.69136e-08)
(0.000765109 2.50901e-07 5.81937e-08)
(0.000764163 1.54392e-07 1.10242e-07)
(0.00870331 0.00353727 -0.000330844)
(0.000808974 0.00300404 0.000336369)
(0.0170478 0.0179065 0.000866059)
(-0.00611965 0.00176915 -0.000148103)
(0.00511699 0.00186858 -0.000117945)
(-0.000286205 0.00047013 0.000301286)
(0.000727244 6.01157e-05 1.1526e-05)
(0.000379886 -4.77348e-05 8.11502e-06)
(0.000919872 -5.36194e-05 -1.72862e-06)
(0.000843703 -3.38333e-05 -4.0977e-07)
(0.000844032 -2.07861e-05 1.53272e-07)
(0.000832856 -1.28065e-05 2.5157e-08)
(0.000827286 -8.083e-06 5.42996e-08)
(0.00082272 -4.99067e-06 4.85262e-08)
(0.000819282 -2.97659e-06 4.78992e-08)
(0.000816481 -1.8349e-06 4.86973e-08)
(0.000814201 -1.18238e-06 4.79133e-08)
(0.000811884 -6.26976e-07 5.30451e-08)
(0.000810158 -5.86524e-07 3.8037e-08)
(0.0008086 -5.66849e-07 6.13745e-08)
(0.000806971 -5.28322e-07 7.59231e-08)
(0.000805413 -3.98668e-07 5.12513e-08)
(0.000803705 -4.28563e-07 -3.24901e-08)
(0.000802154 -1.59119e-07 2.53016e-08)
(0.000800615 -1.51828e-07 2.71092e-07)
(0.000799152 1.16405e-08 4.18139e-08)
(0.000797604 2.06438e-07 6.12799e-08)
(0.000796081 4.06551e-07 5.7916e-08)
(0.000794822 7.41922e-07 -1.05536e-08)
(0.00079321 6.08014e-07 5.31363e-08)
(0.000791437 3.74549e-07 9.82736e-08)
(0.000789864 5.0478e-07 2.47031e-08)
(0.000788346 1.3807e-08 4.44086e-08)
(0.000786972 -4.0063e-08 4.9486e-08)
(0.000785562 3.85982e-08 1.52905e-09)
(0.00078415 -2.23926e-10 4.38388e-08)
(0.000782624 -8.33377e-08 6.4533e-08)
(0.000781236 -1.98574e-07 4.81863e-08)
(0.000779715 -3.42191e-07 2.49077e-08)
(0.00077802 -4.30349e-07 3.86204e-08)
(0.000776603 -1.46165e-07 4.9169e-08)
(0.000775528 9.04599e-08 4.326e-08)
(0.000773999 4.65818e-07 1.15623e-08)
(0.000772463 3.78412e-07 -7.57887e-08)
(0.000771151 7.865e-08 3.45366e-08)
(0.000769815 4.90541e-08 4.36401e-08)
(0.000768505 3.41015e-08 7.67886e-08)
(0.000766681 2.78869e-07 4.76917e-08)
(0.000765008 1.60019e-07 4.58491e-08)
(0.000763827 2.71036e-07 1.47441e-07)
(0.00872727 0.0153795 0.000195064)
(-0.0132927 0.00153853 0.00231906)
(0.00491191 0.011165 -0.000813259)
(-0.00305084 -0.00427347 -0.000192782)
(-0.00530079 -0.0017819 0.000329486)
(-0.00380895 0.00128662 -0.000154071)
(0.00044689 -0.000312081 3.4997e-05)
(0.000529535 -0.000111337 4.85669e-05)
(0.000959927 -1.738e-05 -1.52209e-06)
(0.000859951 -1.09521e-05 -5.56573e-07)
(0.000854602 -6.14366e-06 1.55666e-07)
(0.000838847 -3.74786e-06 1.55717e-07)
(0.000830864 -2.0962e-06 2.10849e-07)
(0.000825217 -1.35358e-06 4.77839e-08)
(0.00082076 -1.01077e-06 3.23409e-08)
(0.000817216 -6.54003e-07 3.1599e-08)
(0.000814635 -3.86072e-07 4.87035e-08)
(0.00081243 -2.68472e-07 4.54356e-08)
(0.000810256 5.00612e-09 6.08166e-08)
(0.00080856 7.67441e-08 -3.79564e-08)
(0.000806988 -5.76228e-08 6.77549e-08)
(0.000805373 1.11328e-07 4.27923e-08)
(0.000803967 1.42159e-07 6.06455e-08)
(0.000802354 1.55935e-07 1.02248e-07)
(0.000800752 1.90642e-07 1.01153e-07)
(0.000799249 2.5715e-08 5.65399e-08)
(0.000797744 1.89134e-07 6.85661e-08)
(0.000796264 2.55757e-07 5.41607e-08)
(0.000794479 3.75007e-07 2.33946e-07)
(0.000792771 3.42166e-07 2.65463e-08)
(0.000791613 1.47654e-07 8.4246e-08)
(0.000790052 -1.64729e-07 3.99805e-08)
(0.000788261 9.36223e-08 1.62552e-07)
(0.000786899 6.8461e-08 5.05377e-08)
(0.000785473 1.11804e-07 4.72486e-08)
(0.000783915 -1.46764e-08 4.71032e-08)
(0.000782432 -5.70715e-08 5.33544e-08)
(0.000780935 -8.16518e-08 5.31668e-08)
(0.000779403 -1.73317e-07 4.52392e-08)
(0.000778209 -2.32399e-07 9.38312e-08)
(0.000776895 3.26841e-08 5.24872e-08)
(0.000775608 2.42196e-07 1.30888e-07)
(0.000774245 1.82413e-08 2.09491e-08)
(0.000772419 8.23218e-08 -7.39497e-08)
(0.00077103 -1.1287e-07 4.02593e-08)
(0.000769906 -2.27021e-07 4.85959e-08)
(0.00076862 -5.41086e-07 1.26673e-08)
(0.000766783 -8.55038e-07 -7.10431e-09)
(0.000765093 -3.36501e-07 5.9586e-08)
(0.000763627 2.04996e-08 4.97718e-08)
(-0.00081332 0.00438437 -7.72587e-05)
(0.00209146 -0.00236445 -4.00558e-05)
(-0.0014044 -0.0150889 0.000151031)
(0.00160651 -0.0101556 -0.000595295)
(-0.00129556 -0.000875319 9.46978e-05)
(-0.00513112 0.00269179 -0.000308178)
(0.00158814 -0.000891482 -1.16385e-05)
(0.000573449 1.02651e-05 2.91796e-05)
(0.000958226 2.89278e-05 -1.54332e-06)
(0.000857986 1.99217e-05 -5.07698e-07)
(0.000853098 1.23516e-05 1.58912e-07)
(0.000837951 7.71822e-06 1.04798e-07)
(0.000830301 4.96947e-06 8.28271e-08)
(0.00082409 3.02168e-06 4.37365e-08)
(0.000820165 1.70022e-06 6.48823e-08)
(0.000817268 1.0263e-06 4.77722e-08)
(0.000814687 6.38312e-07 4.90443e-08)
(0.000812375 3.38798e-07 2.783e-08)
(0.00081059 1.93644e-07 2.88867e-08)
(0.000808522 4.14764e-07 9.97359e-08)
(0.000807014 5.41647e-07 -5.59421e-09)
(0.000805662 3.80875e-07 1.32252e-07)
(0.00080376 2.70729e-07 5.66092e-08)
(0.000802213 1.54646e-07 6.41127e-08)
(0.000800452 1.65949e-07 5.35166e-08)
(0.000799148 1.8734e-07 2.4271e-08)
(0.00079789 4.39141e-09 1.14506e-07)
(0.000796311 -1.31957e-07 1.13517e-08)
(0.000794928 -9.23012e-08 2.39107e-08)
(0.000792923 -4.0153e-07 -8.41605e-08)
(0.000790802 -2.8162e-07 4.82817e-09)
(0.000789796 -3.20062e-07 -1.00716e-08)
(0.000788637 -2.47969e-07 1.40413e-08)
(0.000786993 -1.31592e-07 -6.00489e-08)
(0.000785457 -1.37093e-07 -3.67605e-08)
(0.000783938 -4.4533e-08 4.48829e-08)
(0.00078254 2.32567e-08 5.64854e-08)
(0.000781092 1.00895e-07 5.12019e-08)
(0.000779528 1.90196e-07 7.18093e-08)
(0.000778278 2.46745e-07 8.01304e-08)
(0.000777197 2.7783e-07 3.60615e-08)
(0.000775509 2.85441e-07 -6.96453e-09)
(0.000773799 9.23046e-09 6.76571e-10)
(0.000772301 -1.06509e-07 7.53619e-08)
(0.000770766 -6.09859e-08 4.32114e-08)
(0.000769283 -1.86223e-07 4.64294e-08)
(0.000767725 -5.14569e-07 -7.11009e-08)
(0.000766942 -6.95429e-07 7.05683e-08)
(0.000766104 -4.6891e-07 9.02751e-08)
(0.000764222 -3.32344e-07 1.29674e-07)
(0.0080173 0.00250236 -0.000127488)
(-0.00528459 0.00676791 0.000531702)
(-0.0258648 -0.0278561 -0.00140488)
(0.00529973 -0.0100949 -0.000188334)
(-0.000369019 -0.017124 0.00228359)
(0.00307449 0.000488321 -0.000105502)
(0.000542896 0.000118698 4.14656e-05)
(0.000546547 0.000110998 4.48462e-05)
(0.000912766 6.78708e-05 -1.94051e-06)
(0.000838797 4.41391e-05 -4.38146e-07)
(0.000839242 2.66251e-05 1.33924e-07)
(0.000829552 1.66207e-05 2.48847e-08)
(0.000824951 1.01356e-05 4.96675e-08)
(0.000821105 6.33089e-06 4.82228e-08)
(0.000818251 4.0739e-06 5.16928e-08)
(0.00081588 2.53781e-06 5.05858e-08)
(0.000813771 1.53049e-06 5.18435e-08)
(0.000811871 1.00825e-06 8.47646e-08)
(0.000810348 6.2157e-07 5.20191e-08)
(0.000808992 3.92749e-07 4.56278e-08)
(0.000806942 5.90298e-07 9.67508e-08)
(0.000805031 2.2152e-07 4.83608e-08)
(0.000803682 2.10473e-07 2.91792e-08)
(0.000802221 1.29718e-07 5.74867e-08)
(0.000800791 1.66936e-07 6.09364e-09)
(0.000799046 2.56121e-07 8.88154e-08)
(0.000797345 -3.08045e-08 4.39043e-08)
(0.000796144 -2.22107e-07 4.61672e-08)
(0.000794145 -7.09371e-07 -5.30871e-08)
(0.000792538 -8.62927e-07 1.10459e-07)
(0.000791718 -5.33755e-07 -7.10724e-08)
(0.000790098 -6.14383e-08 5.73996e-08)
(0.0007885 -2.715e-08 4.00717e-08)
(0.00078704 -6.19485e-08 7.14344e-08)
(0.000785583 -7.60949e-08 8.07981e-08)
(0.000784117 -1.21822e-08 1.00362e-07)
(0.000782614 -5.99578e-08 4.55046e-08)
(0.000781142 -4.40081e-08 5.91398e-08)
(0.000779584 4.84452e-08 3.64889e-08)
(0.000778317 3.21717e-07 -1.89002e-09)
(0.000776942 9.51551e-08 4.31641e-08)
(0.000775271 -1.09466e-07 5.73786e-09)
(0.000773755 -9.56532e-08 6.40379e-08)
(0.000772332 -1.21136e-07 -2.34459e-08)
(0.000770932 -3.46129e-08 2.27029e-08)
(0.000769342 2.64417e-08 4.92868e-08)
(0.000767988 2.46901e-08 1.78076e-08)
(0.000766845 1.47579e-07 4.95467e-08)
(0.000765557 -2.21514e-07 3.3554e-08)
(0.000764627 -3.19301e-07 4.4137e-08)
(-0.000882578 0.00438271 0.000865146)
(-0.022188 -0.000189674 -0.00184603)
(-0.00962934 -0.00262608 -0.00230091)
(-0.021586 -0.00976119 0.00114912)
(-0.0165568 0.000988068 -0.000190424)
(0.084351 0.0171636 0.00185883)
(0.000737056 1.2034e-05 -2.99798e-06)
(0.000303287 6.49242e-05 2.33132e-06)
(0.000848353 7.91129e-05 -1.81683e-06)
(0.000805905 4.85934e-05 -3.47523e-07)
(0.000818456 2.96014e-05 1.33769e-07)
(0.000817192 1.8306e-05 3.33037e-08)
(0.000817347 1.13501e-05 5.42446e-08)
(0.000816457 7.03096e-06 4.86323e-08)
(0.000815389 4.42771e-06 4.94691e-08)
(0.000814066 2.74719e-06 5.23731e-08)
(0.000812761 1.86935e-06 1.12888e-07)
(0.00081123 1.32418e-06 5.32961e-08)
(0.000809815 1.18789e-06 1.12809e-07)
(0.000808478 6.031e-07 4.69094e-08)
(0.000806797 2.01436e-07 4.64793e-08)
(0.000805185 2.3711e-07 5.96413e-08)
(0.000803644 1.68439e-07 3.46891e-08)
(0.000802158 1.102e-07 4.9594e-08)
(0.000800608 -6.93663e-08 5.25882e-08)
(0.0007989 -2.31079e-07 -1.36961e-07)
(0.000797292 -1.34816e-07 4.50806e-08)
(0.000795466 -1.12921e-07 6.15254e-08)
(0.000794132 -2.00632e-07 1.17793e-07)
(0.000793149 3.54854e-07 7.21646e-08)
(0.000791809 3.75902e-07 8.70673e-08)
(0.000790431 1.28229e-07 3.74831e-08)
(0.000788637 7.73714e-08 4.37528e-08)
(0.000786933 1.39777e-07 2.64053e-08)
(0.00078552 4.99794e-08 4.65968e-08)
(0.000783959 -1.22659e-07 4.04618e-08)
(0.000782501 -3.20249e-07 5.85507e-08)
(0.000781228 -1.45513e-07 5.8787e-08)
(0.000779984 2.53434e-08 4.43536e-08)
(0.000778336 1.09815e-07 7.56108e-08)
(0.000776657 -1.62575e-08 1.6166e-07)
(0.000775271 8.20565e-08 4.77073e-08)
(0.000773786 5.92963e-08 5.53074e-08)
(0.000772378 9.13339e-08 3.42405e-08)
(0.000770951 5.76124e-08 4.15811e-08)
(0.000769358 1.08116e-07 4.71228e-08)
(0.000767877 4.71465e-07 4.1043e-08)
(0.000766635 3.20135e-07 5.37163e-08)
(0.000765529 1.68895e-07 9.39107e-08)
(0.000764896 -4.71801e-08 7.5743e-08)
(0.00264465 0.00577061 0.000322327)
(-0.010561 -0.00425524 -0.00114242)
(0.00475666 0.00315507 -0.00195429)
(-0.00550941 -0.00316512 -2.10077e-05)
(0.00064536 -0.00167468 -0.000290659)
(0.00459358 -0.00295818 7.79971e-05)
(0.00064077 -0.000401023 0.000137391)
(0.000409512 7.43484e-05 6.07238e-07)
(0.00080687 4.17523e-05 -1.1856e-06)
(0.000776316 3.17205e-05 -2.67127e-07)
(0.000801116 1.90002e-05 1.64684e-07)
(0.000806574 1.22807e-05 3.69423e-08)
(0.000810756 7.68338e-06 4.78867e-08)
(0.000812389 4.65539e-06 5.35476e-08)
(0.000812857 3.02407e-06 5.34723e-08)
(0.000812657 2.13493e-06 1.24966e-07)
(0.000811976 1.47926e-06 9.49865e-08)
(0.000811007 9.62574e-07 2.60167e-08)
(0.000809439 8.33888e-07 3.14575e-08)
(0.000807754 5.95991e-07 6.2467e-08)
(0.000806482 3.78638e-07 5.27095e-08)
(0.000804988 1.85756e-07 7.32276e-08)
(0.000803522 7.12079e-08 5.5744e-08)
(0.000801925 -3.39412e-08 5.07401e-08)
(0.000800366 -1.12818e-07 3.59902e-08)
(0.000798966 -1.29318e-07 5.85569e-08)
(0.000797494 -6.19361e-09 2.2761e-08)
(0.000796063 4.49979e-08 1.09358e-07)
(0.000794729 3.37178e-07 3.51098e-08)
(0.000793257 4.31287e-07 -1.96398e-08)
(0.000791433 4.45105e-07 6.08968e-09)
(0.000789723 2.98615e-07 8.60409e-08)
(0.000788513 -8.14501e-08 -3.25929e-07)
(0.000787004 -9.78716e-08 6.13536e-08)
(0.000785255 -9.8225e-08 1.14305e-07)
(0.000783655 -1.08914e-07 8.79056e-08)
(0.000782587 2.82847e-07 8.83729e-08)
(0.000781575 5.04988e-08 5.68856e-08)
(0.000779903 -1.83356e-07 8.72334e-08)
(0.000778265 -2.82816e-07 3.94881e-08)
(0.000776906 -1.46422e-07 5.87724e-08)
(0.000775366 -1.80765e-07 1.66898e-08)
(0.000773767 4.32958e-08 5.8838e-08)
(0.00077233 2.76164e-10 9.74324e-08)
(0.000770953 9.62223e-08 6.12752e-08)
(0.000769857 6.29664e-08 4.97258e-08)
(0.00076825 1.99459e-07 3.34106e-08)
(0.000766464 4.01227e-07 4.23922e-08)
(0.000765097 6.9228e-07 -5.85578e-08)
(0.000764472 4.74978e-07 8.89543e-08)
(0.0120666 0.00543566 0.000235655)
(-0.00395346 0.00962479 0.000909989)
(-0.00037087 0.00257049 -2.70549e-05)
(-0.00617121 -8.79143e-05 8.09961e-05)
(-0.00108651 0.00644475 0.000861254)
(-0.00347369 0.0161358 -0.000617879)
(0.000529464 0.000235022 -8.91492e-06)
(0.000736726 1.33928e-05 -1.67713e-06)
(0.000749337 -8.63733e-06 -9.70606e-08)
(0.000777236 2.50654e-06 6.02852e-08)
(0.000793984 1.64453e-06 1.20428e-07)
(0.00080294 1.4753e-06 7.5819e-08)
(0.000807748 1.05723e-06 7.52433e-08)
(0.00081059 1.09053e-06 6.47484e-08)
(0.000812212 7.5643e-07 5.7358e-08)
(0.000812117 6.4752e-07 5.26686e-08)
(0.000811284 3.05567e-07 4.47048e-08)
(0.000810415 1.80121e-07 3.60434e-07)
(0.000809351 -8.32237e-08 7.75662e-08)
(0.000807905 -1.08306e-07 7.7245e-08)
(0.000806282 -1.29355e-07 9.81052e-08)
(0.000804799 -4.41844e-08 5.28911e-08)
(0.000803369 -5.12236e-09 5.41193e-08)
(0.000801929 -7.10067e-08 4.46874e-08)
(0.000800491 -1.23039e-08 3.93582e-09)
(0.000799035 5.68545e-08 2.21297e-08)
(0.000797512 9.30012e-08 3.57935e-08)
(0.000795894 7.77833e-08 4.1638e-08)
(0.000794613 9.53507e-08 3.76818e-08)
(0.00079328 -1.34612e-07 3.37778e-08)
(0.000791639 -1.51816e-07 7.90735e-08)
(0.000789771 -1.57359e-07 -1.48693e-08)
(0.000788142 -1.19552e-07 -5.32202e-08)
(0.000786913 -2.92635e-07 3.90919e-08)
(0.000785508 -1.1343e-07 2.5827e-07)
(0.000784436 7.56124e-08 8.24199e-09)
(0.0007827 2.59648e-07 3.27656e-08)
(0.000780646 -1.1145e-07 4.58382e-08)
(0.00077957 -5.8479e-07 5.64734e-08)
(0.000778384 -2.58251e-07 6.13979e-08)
(0.000776787 -1.94702e-07 6.75377e-08)
(0.000775509 -2.68252e-07 8.19453e-08)
(0.000774013 -2.3316e-07 4.21309e-08)
(0.000772443 1.23209e-07 8.2268e-08)
(0.000771029 -1.70965e-08 -1.62664e-08)
(0.000769485 3.30558e-08 4.31997e-08)
(0.000768296 -3.52547e-07 2.41495e-08)
(0.000767246 2.0876e-08 3.24779e-08)
(0.000765607 2.3e-07 -3.59815e-08)
(0.000763441 2.94611e-07 6.6273e-08)
(-0.0250085 -0.0129153 0.00118726)
(-0.00606558 0.0105554 -0.010152)
(-0.0595281 -0.0252781 -0.0039444)
(-0.00895365 -0.0160675 0.000706917)
(0.000731779 0.00838968 0.00625138)
(-0.017446 0.00176693 -0.00033012)
(0.00093992 -0.000191957 5.02865e-05)
(0.00132251 -0.000133699 3.21187e-07)
(0.00129369 -3.85587e-05 2.9272e-07)
(0.00131715 -3.53372e-05 4.38215e-07)
(0.00133381 -2.0203e-05 3.80682e-07)
(0.0013431 -1.32245e-05 3.45778e-07)
(0.00135006 -8.17914e-06 2.59094e-07)
(0.00135271 -4.69421e-06 3.75238e-07)
(0.00135303 -3.00563e-06 3.4638e-07)
(0.0013526 -2.21952e-06 2.84505e-07)
(0.00135141 -1.40912e-06 3.40327e-07)
(0.00134988 -8.39561e-07 2.67823e-07)
(0.00134743 -6.52062e-07 3.78527e-07)
(0.00134514 -6.96196e-07 5.39458e-07)
(0.00134326 -4.96937e-07 4.34219e-07)
(0.00134085 -2.16057e-07 3.92012e-07)
(0.00133808 -1.15032e-07 3.26005e-07)
(0.00133549 1.02787e-07 2.90409e-07)
(0.00133318 1.61846e-07 2.30513e-07)
(0.00133078 2.16185e-07 3.37409e-07)
(0.00132819 6.09572e-08 2.82111e-07)
(0.00132585 4.68187e-08 3.33914e-07)
(0.00132308 2.30804e-07 2.87885e-07)
(0.00132044 -3.97666e-07 3.22205e-07)
(0.00131793 -9.44804e-07 3.76412e-07)
(0.00131516 -9.93545e-07 1.42206e-07)
(0.00131287 -7.11313e-07 3.41085e-07)
(0.00131078 -3.12224e-07 2.77146e-07)
(0.00130857 1.49093e-08 4.3871e-07)
(0.00130586 1.44833e-07 3.25809e-07)
(0.0013029 -2.50727e-07 4.09812e-07)
(0.0012999 3.14418e-07 3.25762e-07)
(0.00129845 1.01374e-06 3.06234e-07)
(0.00129684 4.00054e-07 3.09465e-07)
(0.00129384 6.24584e-08 3.4734e-07)
(0.0012912 5.95047e-08 3.48616e-07)
(0.00128944 -5.49839e-07 4.25799e-07)
(0.00128666 -6.22502e-07 2.37869e-07)
(0.00128379 -4.25407e-07 3.14615e-07)
(0.00128145 -3.20147e-07 3.48024e-07)
(0.00127934 -3.33314e-08 2.72913e-07)
(0.0012776 -2.70158e-07 3.65625e-07)
(0.00127464 -6.27128e-07 3.47816e-07)
(0.00127188 -5.31061e-07 1.84668e-07)
(0.00744801 -0.0125828 0.00414592)
(-0.0371897 0.0126187 -0.00547454)
(-0.00713362 0.0166622 -0.00355181)
(-0.0511171 -0.0272369 0.00315949)
(-0.0198749 -0.00511195 -0.000873694)
(-0.0221727 0.00578311 -0.00277936)
(0.000585263 0.000472839 -4.13269e-05)
(0.00120262 -0.000157143 2.84774e-07)
(0.00140327 -7.35172e-05 4.14418e-07)
(0.00132064 -5.961e-05 4.89881e-07)
(0.00135182 -3.65913e-05 3.38875e-07)
(0.00135338 -2.3598e-05 3.38767e-07)
(0.00135658 -1.49326e-05 3.39586e-07)
(0.00135682 -9.89487e-06 3.39068e-07)
(0.00135592 -6.28442e-06 3.39012e-07)
(0.00135461 -4.14612e-06 3.02829e-07)
(0.00135295 -2.62665e-06 3.35204e-07)
(0.00135065 -1.97792e-06 3.14798e-07)
(0.00134808 -1.12853e-06 3.47007e-07)
(0.00134566 -5.43117e-07 3.06434e-07)
(0.00134331 -1.17435e-07 9.83479e-08)
(0.00134074 -2.67984e-07 3.60911e-07)
(0.00133834 5.24033e-08 6.6802e-07)
(0.00133587 2.33135e-08 2.87264e-07)
(0.00133322 2.41955e-07 3.19911e-07)
(0.00133056 1.18466e-08 3.54414e-07)
(0.00132801 -2.36355e-07 2.98662e-07)
(0.00132572 -4.14385e-07 3.30633e-07)
(0.00132281 -1.03674e-06 2.91235e-07)
(0.00131969 -7.79406e-07 -5.4566e-08)
(0.0013176 -5.82243e-07 7.64275e-08)
(0.00131551 -3.11289e-07 2.78203e-07)
(0.00131339 5.15158e-07 4.55553e-07)
(0.0013114 5.97606e-07 4.37186e-07)
(0.00130871 2.57103e-07 3.31137e-07)
(0.00130598 1.44696e-07 3.14897e-07)
(0.00130371 2.16615e-07 3.10416e-07)
(0.00130167 5.90846e-07 1.00261e-07)
(0.00129833 1.16019e-06 3.51804e-07)
(0.00129512 6.26402e-07 3.40861e-07)
(0.00129325 1.43782e-07 3.36942e-07)
(0.00129073 -2.85736e-07 3.41352e-07)
(0.00128811 -4.99767e-07 2.53867e-07)
(0.00128657 -8.24164e-07 6.99164e-07)
(0.00128451 -1.46738e-07 3.37726e-07)
(0.00128201 -9.29893e-08 3.43513e-07)
(0.00127959 5.43414e-07 3.19763e-07)
(0.00127692 8.22749e-08 3.10429e-07)
(0.00127456 -2.17681e-07 7.73047e-08)
(0.00127283 -3.28862e-07 4.04397e-07)
(-0.0051151 -0.0348644 -0.000470903)
(-0.000537452 0.00807167 -0.00135616)
(-0.0017023 -0.00314116 -0.000406168)
(-0.0157733 0.00398655 0.00392387)
(-0.012343 -0.00907503 0.00153975)
(0.00061409 0.00256443 -0.0032418)
(0.000799938 -0.000417438 6.98167e-05)
(0.0014133 -0.000199965 1.18246e-06)
(0.00146601 -0.000109008 -3.98285e-07)
(0.00136348 -6.9322e-05 3.37568e-07)
(0.00137913 -4.34266e-05 3.44524e-07)
(0.00137037 -2.73496e-05 3.42944e-07)
(0.00136732 -1.71895e-05 3.41692e-07)
(0.0013636 -1.08467e-05 3.41339e-07)
(0.00136026 -6.80511e-06 3.40338e-07)
(0.00135721 -4.22654e-06 3.38201e-07)
(0.00135414 -2.80396e-06 3.39187e-07)
(0.00135176 -1.89337e-06 3.64395e-07)
(0.00134924 -1.71699e-06 3.64529e-07)
(0.00134641 -1.02357e-06 3.25646e-07)
(0.0013436 -9.33656e-07 2.91885e-07)
(0.00134107 -5.33214e-07 3.32765e-07)
(0.00133844 -4.75127e-07 3.38074e-07)
(0.00133573 -4.30517e-07 1.69707e-07)
(0.00133316 -5.28644e-07 3.1447e-07)
(0.00133018 -3.48363e-07 2.86886e-07)
(0.00132766 -2.25582e-07 1.10645e-07)
(0.00132485 -1.39006e-07 3.24685e-07)
(0.00132263 -2.29423e-07 2.17232e-07)
(0.00132102 5.42488e-07 1.91536e-07)
(0.00131853 8.53726e-07 5.41478e-07)
(0.00131654 9.0389e-07 4.72861e-07)
(0.00131401 7.33826e-07 2.37185e-07)
(0.00131046 5.00133e-07 2.07837e-07)
(0.001308 1.073e-07 3.32605e-07)
(0.00130581 1.25032e-07 3.37801e-07)
(0.00130346 5.96422e-08 2.81601e-07)
(0.00130107 -1.36307e-07 3.5079e-07)
(0.00129849 -4.43775e-07 3.10355e-07)
(0.00129556 -1.79134e-08 3.58819e-07)
(0.0012927 1.21193e-09 2.39692e-07)
(0.00129039 6.40888e-08 3.60604e-07)
(0.00128878 6.57474e-07 3.12011e-07)
(0.0012871 7.73914e-07 3.56874e-07)
(0.00128471 5.98216e-07 -1.20616e-07)
(0.00128231 5.57954e-07 4.14107e-07)
(0.00127956 5.39698e-07 4.38136e-07)
(0.00127665 6.86512e-07 3.50192e-07)
(0.00127414 3.9109e-07 3.30846e-07)
(0.00127256 2.41637e-07 4.09162e-07)
(-0.0276267 -4.139e-05 0.00303428)
(0.0193642 0.00427161 -0.00533477)
(-0.0285401 0.000692692 0.00542368)
(-0.0133332 0.00936586 -0.000680644)
(0.00414043 -0.00472749 0.000836362)
(0.027976 -0.0185949 -0.00336381)
(0.00205462 -0.000596021 0.000200696)
(0.00158646 -0.000252555 1.55134e-05)
(0.00153051 -8.62293e-05 3.18872e-07)
(0.00140374 -5.42291e-05 3.07289e-07)
(0.00140465 -3.32623e-05 3.50816e-07)
(0.00138641 -2.04476e-05 3.46856e-07)
(0.00137735 -1.29053e-05 3.44005e-07)
(0.00136989 -7.9599e-06 3.42663e-07)
(0.00136425 -4.74329e-06 3.4106e-07)
(0.00135965 -2.92037e-06 3.39528e-07)
(0.00135589 -1.8762e-06 3.39437e-07)
(0.00135203 -9.82428e-07 3.10207e-07)
(0.00134918 -9.48822e-07 2.66423e-07)
(0.00134665 -9.33706e-07 3.40607e-07)
(0.00134393 -8.53901e-07 3.42876e-07)
(0.00134132 -6.54873e-07 3.33789e-07)
(0.00133847 -7.35046e-07 1.53599e-07)
(0.0013358 -3.07253e-07 9.53728e-08)
(0.00133332 -3.61606e-07 5.48251e-07)
(0.00133095 -8.26958e-09 2.87926e-07)
(0.00132827 3.36612e-07 3.95789e-07)
(0.00132572 7.11955e-07 3.87765e-07)
(0.00132366 1.36812e-06 2.21242e-07)
(0.00132104 1.11629e-06 3.20641e-07)
(0.00131804 7.80423e-07 4.03365e-07)
(0.00131535 9.86304e-07 3.09713e-07)
(0.00131287 1.3838e-07 3.22276e-07)
(0.00131061 -4.18943e-08 3.26777e-07)
(0.00130824 1.08864e-07 2.40708e-07)
(0.00130592 8.39819e-09 3.13234e-07)
(0.00130338 -1.46039e-07 3.26434e-07)
(0.00130104 -3.34633e-07 3.41932e-07)
(0.00129848 -6.01885e-07 2.00586e-07)
(0.00129567 -7.33803e-07 2.28579e-07)
(0.00129335 -2.22772e-07 3.18504e-07)
(0.00129155 1.84858e-07 3.15261e-07)
(0.001289 7.82249e-07 3.70192e-07)
(0.00128649 6.60502e-07 1.38541e-07)
(0.00128423 1.6938e-07 3.28443e-07)
(0.00128193 8.87465e-08 3.20608e-07)
(0.00127974 1.49705e-08 3.73793e-07)
(0.00127673 3.98105e-07 3.00022e-07)
(0.001274 2.76594e-07 3.41605e-07)
(0.00127204 4.44327e-07 5.19426e-07)
(0.010662 0.0213505 0.0183339)
(-0.00141583 -0.0113274 0.00856307)
(0.0237136 0.0245049 -0.00435402)
(-0.00130204 0.00735514 -7.55903e-05)
(1.62763e-05 -0.00621726 0.00299844)
(-0.0100151 -0.0018672 -0.000274885)
(0.000163424 -0.0005234 4.51518e-05)
(0.00142295 -0.000117466 6.55112e-05)
(0.00159511 -2.75315e-05 6.30748e-07)
(0.00142995 -1.72985e-05 4.3703e-07)
(0.00142165 -9.62691e-06 3.75029e-07)
(0.001396 -5.84803e-06 6.9602e-07)
(0.00138304 -3.22393e-06 4.54426e-07)
(0.00137387 -2.08746e-06 3.43992e-07)
(0.00136661 -1.56285e-06 3.58478e-07)
(0.00136082 -1.00969e-06 2.54278e-07)
(0.00135658 -5.95658e-07 3.38828e-07)
(0.00135293 -4.30474e-07 3.3513e-07)
(0.00134931 4.03785e-08 3.24336e-07)
(0.00134654 1.58515e-07 2.28479e-07)
(0.00134396 -8.16207e-08 3.67966e-07)
(0.00134122 1.80166e-07 2.89402e-07)
(0.00133888 2.13486e-07 3.69566e-07)
(0.0013362 2.33372e-07 3.7935e-07)
(0.00133354 3.48918e-07 2.9801e-07)
(0.00133106 5.08733e-09 3.51685e-07)
(0.00132856 2.98942e-07 3.86176e-07)
(0.00132614 4.23902e-07 3.23444e-07)
(0.00132313 6.52208e-07 5.10248e-07)
(0.00132027 5.77398e-07 3.02146e-07)
(0.00131835 2.58195e-07 2.77114e-07)
(0.00131573 -2.56214e-07 2.90093e-07)
(0.00131272 2.27101e-07 4.62443e-07)
(0.00131042 1.43292e-07 3.27048e-07)
(0.00130807 2.08135e-07 3.10652e-07)
(0.00130549 -1.16727e-08 3.22032e-07)
(0.00130303 -1.10063e-07 3.50624e-07)
(0.0013005 -1.50307e-07 3.26246e-07)
(0.001298 -3.00796e-07 3.17909e-07)
(0.00129604 -3.67987e-07 2.10284e-07)
(0.00129385 5.83023e-08 3.10728e-07)
(0.00129165 3.57774e-07 4.16667e-07)
(0.00128936 -5.54852e-09 2.78733e-07)
(0.00128633 7.55352e-08 8.3694e-08)
(0.00128399 -3.03555e-07 3.1733e-07)
(0.00128212 -4.29479e-07 3.19421e-07)
(0.00127995 -9.40365e-07 1.1388e-07)
(0.00127697 -1.37706e-06 2.80661e-07)
(0.00127418 -5.38286e-07 3.33079e-07)
(0.00127167 5.44319e-08 3.23014e-07)
(-0.00879995 0.00688607 0.000853988)
(0.00371504 0.000245193 -0.000568446)
(-0.00863501 -0.00941238 -0.0016713)
(-0.00362714 0.00953719 -0.000682013)
(-0.0024599 0.0129653 0.00128273)
(0.0163798 -0.000594507 -0.00192741)
(0.00314991 -0.000693047 2.88817e-06)
(0.0012349 -0.000110834 3.33971e-05)
(0.00159195 4.74251e-05 5.77873e-07)
(0.00142655 3.26702e-05 4.10658e-07)
(0.00141906 2.02235e-05 3.13933e-07)
(0.00139448 1.26141e-05 4.44506e-07)
(0.00138209 8.13241e-06 3.37363e-07)
(0.00137199 4.94899e-06 3.42243e-07)
(0.00136562 2.79583e-06 3.44452e-07)
(0.00136087 1.69369e-06 3.5877e-07)
(0.00135662 1.05554e-06 3.39282e-07)
(0.00135283 5.69489e-07 3.3033e-07)
(0.00134992 3.30238e-07 3.18784e-07)
(0.00134649 7.26144e-07 5.23316e-07)
(0.00134396 8.8596e-07 1.93242e-07)