/*--------------------------------*- C++ -*----------------------------------*\
| =========                 |                                                 |
| \\      /  F ield         | OpenFOAM: The Open Source CFD Toolbox           |
|  \\    /   O peration     | Version:  5.0                                   |
|   \\  /    A nd           | Web:      www.OpenFOAM.org                      |
|    \\/     M anipulation  |                                                 |
\*---------------------------------------------------------------------------*/
FoamFile
{
    version     2.0;
    format      ascii;
    class       volVectorField;
    location    "3.8";
    object      U_0;
}
// * * * * * * * * * * * * * * * * * * * * * * * * * * * * * * * * * * * * * //

dimensions      [0 1 -1 0 0 0 0];

internalField   nonuniform List<vector> 
9347
(
(0.00604187 0.00345702 -0.000492554)
(0.00145308 -0.0102937 0.000380124)
(0.00837897 -0.00701523 0.00102504)
(-0.00567793 -0.0147092 -0.00204387)
(-0.0018321 0.0162862 -0.00145347)
(-0.00305211 0.00015593 0.000274117)
(0.000376261 -3.69486e-05 3.46296e-05)
(0.000796075 -7.86619e-05 -2.1535e-06)
(0.000777906 -2.341e-05 -1.94163e-07)
(0.000788932 -2.20035e-05 1.07915e-08)
(0.000797134 -1.2795e-05 1.01733e-07)
(0.00080163 -8.38339e-06 5.74221e-08)
(0.000805016 -5.14801e-06 3.31786e-09)
(0.000806205 -3.0183e-06 8.04218e-08)
(0.000806187 -1.83667e-06 5.04506e-08)
(0.000805937 -1.09325e-06 1.77957e-07)
(0.000805377 -7.28655e-07 5.22994e-08)
(0.000804114 -2.87606e-07 6.54751e-08)
(0.000802512 -2.53005e-07 4.95299e-08)
(0.000801293 -3.14113e-07 1.93737e-07)
(0.000800207 -3.26135e-07 5.96031e-08)
(0.000798828 -1.56346e-07 7.57531e-08)
(0.000797155 -1.08436e-07 4.66987e-08)
(0.000795592 8.88289e-08 4.19524e-08)
(0.000794072 1.74502e-07 4.39817e-08)
(0.000792782 2.70106e-07 4.59173e-08)
(0.000791436 5.57291e-08 4.66326e-08)
(0.000790099 7.47361e-09 4.94704e-08)
(0.000788165 5.33498e-08 1.38856e-07)
(0.00078628 -2.67233e-07 4.29207e-08)
(0.000785085 -7.28181e-07 -6.22883e-08)
(0.000783409 -6.30411e-07 1.18763e-08)
(0.000782193 -5.09304e-07 7.49593e-08)
(0.000781101 -3.87733e-07 5.39751e-08)
(0.000779547 3.14966e-08 4.81595e-08)
(0.000777855 1.1976e-07 5.6438e-08)
(0.000776277 -6.81071e-09 3.42253e-08)
(0.000774874 1.10769e-07 1.14016e-08)
(0.000773386 3.4541e-07 4.49774e-08)
(0.000772268 4.3228e-07 7.76975e-08)
(0.000771033 7.69002e-08 2.85475e-08)
(0.000769472 -3.60298e-08 6.72849e-08)
(0.000768185 -4.83385e-07 4.25572e-09)
(0.000766545 -2.73385e-07 2.41183e-07)
(0.00076506 -2.33302e-07 4.44226e-08)
(0.000763718 -2.28783e-07 6.39505e-08)
(0.00076231 -2.64897e-07 5.68459e-08)
(0.000761071 -4.84347e-07 4.27738e-08)
(0.000759372 -2.95775e-07 -2.28874e-08)
(0.000757585 -2.17954e-07 8.22442e-08)
(-0.00976908 -0.0148452 0.000782006)
(0.0122843 0.013188 -0.00187599)
(0.00745967 -0.00722921 -0.00138088)
(0.0133175 -0.0385814 0.00149464)
(-0.0231829 0.00897614 -0.00113712)
(-0.00117372 0.00855326 0.000228915)
(0.000517454 -3.83188e-05 5.60767e-08)
(0.00039567 -5.35307e-05 -1.23961e-06)
(0.000840241 -4.09519e-05 -1.05884e-06)
(0.000789028 -3.42293e-05 -3.21792e-07)
(0.000807282 -2.10081e-05 1.80964e-07)
(0.000807524 -1.35929e-05 4.56558e-08)
(0.000808954 -8.60202e-06 6.07717e-08)
(0.000808793 -5.61102e-06 5.04994e-08)
(0.00080817 -3.50878e-06 5.04362e-08)
(0.000807086 -2.16876e-06 7.1197e-08)
(0.000805829 -1.35559e-06 5.28417e-08)
(0.000804484 -1.00728e-06 6.87837e-08)
(0.000803016 -4.09305e-07 4.32884e-08)
(0.000801592 -2.08604e-07 2.5932e-08)
(0.0008002 -7.45013e-08 7.84512e-08)
(0.000798737 -1.37062e-07 4.81152e-08)
(0.000797363 -3.70166e-08 8.18128e-08)
(0.000795937 6.10718e-08 2.78694e-08)
(0.000794347 4.38781e-07 -2.65878e-08)
(0.000792573 8.80603e-08 1.10302e-08)
(0.000790947 -1.84881e-07 3.15748e-08)
(0.000789625 -3.07458e-07 4.87846e-08)
(0.000787997 -9.17743e-07 7.16784e-08)
(0.000786111 -5.95631e-07 5.70453e-08)
(0.000784839 -5.79968e-07 1.40475e-07)
(0.000783832 -3.69546e-07 5.39096e-08)
(0.000782412 2.18236e-07 1.85223e-07)
(0.00078139 2.90003e-07 2.38787e-07)
(0.000779808 -4.42217e-08 4.66639e-08)
(0.000777856 9.20389e-09 3.22084e-08)
(0.000776588 1.68098e-07 4.388e-08)
(0.000775242 2.06087e-07 5.62888e-08)
(0.000773722 3.38528e-07 3.07084e-08)
(0.000772002 5.13351e-07 1.309e-07)
(0.000770446 1.93639e-07 5.75435e-08)
(0.00076897 5.67918e-09 4.51589e-08)
(0.000767707 -2.72701e-07 6.89834e-08)
(0.000766702 -3.87632e-07 5.34188e-08)
(0.000765203 -9.68791e-08 5.23756e-08)
(0.000763702 -1.22798e-07 5.53046e-08)
(0.000762332 4.22993e-08 6.86004e-08)
(0.000760934 -1.45312e-07 4.81536e-08)
(0.000759348 -3.69806e-07 8.43918e-08)
(0.000758347 -2.44051e-07 2.61403e-08)
(0.00277788 -0.000313596 -0.000373557)
(-0.00886117 0.0110173 -0.000686408)
(-0.00582707 -0.0179919 0.000646577)
(-0.00663769 0.004721 0.000837502)
(-0.0106963 -0.00124379 -0.000318735)
(0.00414639 0.000917906 0.000352186)
(0.00122099 -0.000478282 0.000120387)
(0.00046904 -6.98974e-05 -1.45265e-06)
(0.000878465 -6.21767e-05 -2.22839e-06)
(0.000813947 -3.90122e-05 -4.50775e-07)
(0.000823093 -2.42201e-05 1.5271e-07)
(0.000817241 -1.51635e-05 3.17546e-08)
(0.00081506 -9.47074e-06 5.44253e-08)
(0.000812614 -5.9449e-06 5.0909e-08)
(0.000810518 -3.73758e-06 5.13886e-08)
(0.000808646 -2.40371e-06 5.14532e-08)
(0.000806841 -1.5188e-06 4.93599e-08)
(0.000805305 -9.92375e-07 1.88429e-08)
(0.000803516 -8.17944e-07 -7.35726e-08)
(0.000801714 -4.29826e-07 3.82699e-08)
(0.000800298 -2.69618e-07 3.99454e-08)
(0.000798874 -1.77246e-07 4.7683e-08)
(0.000797403 -1.8414e-07 1.12839e-07)
(0.000796185 -3.70219e-07 2.88197e-08)
(0.000794104 -7.47019e-07 7.32235e-08)
(0.000792001 -4.19758e-07 2.6452e-08)
(0.000790943 -2.38796e-07 5.84502e-08)
(0.000789187 -1.80789e-07 6.49175e-08)
(0.00078781 -1.40203e-07 -3.90728e-08)
(0.000786708 3.25616e-07 7.49439e-08)
(0.000785372 7.22815e-07 8.7705e-08)
(0.000784408 6.69331e-07 6.52423e-08)
(0.000783016 4.27253e-07 2.89247e-07)
(0.00078077 4.05123e-07 1.38472e-07)
(0.000779194 -2.22869e-08 -1.55329e-07)
(0.00077812 9.07613e-08 5.23745e-08)
(0.000776522 1.03296e-07 5.19578e-08)
(0.000775084 1.21199e-09 4.64008e-08)
(0.000773767 -6.69881e-09 4.13124e-08)
(0.000772084 -1.25529e-07 3.1827e-08)
(0.000770397 4.9222e-08 5.19146e-08)
(0.00076889 1.66238e-07 4.51439e-08)
(0.000767697 4.70351e-07 1.43184e-07)
(0.000766768 3.09917e-07 1.04877e-07)
(0.000765394 2.22896e-07 6.71647e-08)
(0.000763893 2.20774e-07 5.51716e-08)
(0.000762283 3.41035e-07 5.312e-08)
(0.000760556 1.61967e-07 7.64881e-08)
(0.000759254 8.43916e-08 6.18168e-08)
(0.00075835 8.63594e-08 8.06396e-08)
(0.00637173 0.0053604 -0.000230936)
(0.00536998 0.00554945 -0.000394732)
(0.0195353 0.0155002 0.000601794)
(-0.00602031 0.00213672 -0.000142334)
(0.00300421 0.00145353 -9.6296e-05)
(0.000471477 0.00117262 0.000312385)
(0.000730134 8.70781e-05 1.09676e-05)
(0.000380717 -4.84535e-05 7.97637e-06)
(0.000914474 -4.67956e-05 -1.6267e-06)
(0.000837053 -2.89006e-05 -4.06343e-07)
(0.000837292 -1.75286e-05 1.55391e-07)
(0.000826087 -1.0663e-05 2.47987e-08)
(0.000820556 -6.66814e-06 5.4011e-08)
(0.000816009 -4.08762e-06 4.82382e-08)
(0.000812629 -2.45614e-06 4.82318e-08)
(0.00080988 -1.52826e-06 4.90963e-08)
(0.000807606 -1.00447e-06 4.76859e-08)
(0.000805369 -6.20486e-07 1.84033e-08)
(0.000803726 -5.74808e-07 4.18309e-08)
(0.000802283 -5.23789e-07 2.14445e-08)
(0.000800519 -2.93036e-07 6.59758e-08)
(0.000798846 -2.67426e-07 4.95472e-08)
(0.000797123 -3.39522e-07 4.74524e-08)
(0.000795236 -3.04949e-07 6.15498e-08)
(0.000794288 -6.18404e-07 6.5224e-09)
(0.000793211 -7.25934e-08 3.21839e-08)
(0.000791246 1.21206e-07 6.03702e-08)
(0.000789749 2.2376e-07 8.46783e-08)
(0.000788629 7.74948e-07 8.95182e-08)
(0.000787186 6.23962e-07 5.9469e-08)
(0.000785263 7.57766e-07 5.39219e-09)
(0.000783457 7.10998e-07 -1.82369e-08)
(0.000782077 2.2448e-07 4.6891e-08)
(0.000780826 -4.55364e-08 4.94256e-08)
(0.000779414 2.30179e-07 4.57018e-08)
(0.000778012 5.30526e-08 4.80184e-08)
(0.000776476 -5.77372e-08 2.01597e-07)
(0.000775105 -1.0393e-07 5.22625e-08)
(0.000773563 -3.03141e-07 2.3279e-08)
(0.000772073 -3.27697e-07 4.49463e-09)
(0.00077081 -9.39822e-08 -4.21746e-08)
(0.000769495 1.83451e-08 1.2842e-07)
(0.000767884 2.46411e-07 9.60136e-08)
(0.000766388 3.40196e-07 -3.73655e-08)
(0.000765087 2.19174e-08 1.72093e-08)
(0.000763846 -1.50305e-08 3.97059e-08)
(0.000762255 -1.02024e-07 8.90157e-08)
(0.000760611 5.58174e-08 1.90719e-08)
(0.00075925 2.65409e-07 4.30672e-08)
(0.000758134 2.17958e-07 5.30043e-08)
(0.00904564 0.01239 5.04395e-06)
(-0.0148247 0.00200487 0.0029172)
(0.00654291 0.00826316 -0.000412663)
(-0.00332327 -0.00474668 -0.000236928)
(-0.00339637 -0.00169229 0.000320923)
(-0.00414852 0.00117517 -0.000193387)
(0.000442664 -0.000313401 3.51487e-05)
(0.000533498 -0.000107401 4.79942e-05)
(0.000948971 -1.05833e-05 -1.34885e-06)
(0.000850717 -6.53765e-06 -5.7393e-07)
(0.000846052 -3.3748e-06 1.60462e-07)
(0.000830917 -1.95832e-06 -1.20575e-08)
(0.000823341 -9.85784e-07 1.34718e-07)
(0.000817918 -6.18474e-07 4.74139e-08)
(0.00081374 -4.60291e-07 7.27741e-09)
(0.000810475 -2.85903e-07 6.42907e-08)
(0.000807984 -1.56472e-07 4.84899e-08)
(0.000805848 -1.12057e-07 4.66366e-08)
(0.00080364 1.37397e-07 2.26219e-07)
(0.00080207 1.6372e-07 1.25167e-07)
(0.000800622 -4.79679e-08 6.567e-08)
(0.00079882 7.62416e-08 4.96756e-08)
(0.000797359 3.06357e-08 2.45399e-07)
(0.00079584 1.73419e-07 1.0064e-07)
(0.000794398 4.78742e-07 1.88918e-07)
(0.000792926 1.17707e-07 5.59329e-08)
(0.000791312 1.7665e-07 6.73987e-08)
(0.00079 2.1116e-07 2.67106e-08)
(0.000788304 2.37736e-07 1.93225e-10)
(0.000786679 1.07384e-07 1.34606e-07)
(0.000785473 3.14749e-08 -5.76855e-08)
(0.000783736 -1.91353e-07 3.40972e-08)
(0.000782067 1.58397e-07 3.24891e-08)
(0.000780776 9.28338e-08 4.9651e-08)
(0.000779316 1.13552e-07 6.36638e-08)
(0.000777759 2.35938e-08 4.86485e-08)
(0.000776326 4.30956e-10 5.92963e-08)
(0.000774779 8.77739e-09 5.05605e-08)
(0.00077349 -7.22939e-08 8.75005e-08)
(0.000772348 2.75347e-08 8.92896e-08)
(0.000770831 3.07143e-08 8.20171e-08)
(0.000769314 -1.18778e-08 3.45042e-07)
(0.000768096 -1.32221e-07 5.14985e-08)
(0.000766485 -6.74215e-08 5.45948e-08)
(0.000764948 -1.68238e-07 3.95736e-08)
(0.000763737 -2.4768e-07 4.59043e-08)
(0.000762371 -5.01787e-07 -4.7298e-08)
(0.000761015 -3.79588e-07 -2.13558e-07)
(0.000759451 -2.19418e-07 1.46939e-07)
(0.000757749 1.02849e-07 8.93819e-08)
(-0.000663562 0.00393507 -1.45817e-05)
(0.00170901 -0.00352827 7.95081e-06)
(-0.00136381 -0.0105257 -0.00035346)
(0.00249126 -0.00946641 -0.000598807)
(-0.00150114 -0.000849666 1.14895e-05)
(-0.00539397 0.00273354 -0.000289558)
(0.0015372 -0.000899316 -1.14033e-05)
(0.000579151 1.53896e-05 2.87933e-05)
(0.000942655 3.30643e-05 -1.41199e-06)
(0.000846307 2.21833e-05 -5.48069e-07)
(0.000843071 1.35953e-05 1.62379e-07)
(0.000829105 8.42817e-06 2.6279e-08)
(0.00082225 5.36093e-06 3.90147e-08)
(0.000816677 3.28469e-06 4.36099e-08)
(0.000813052 1.9406e-06 6.49238e-08)
(0.000810265 1.2003e-06 3.82665e-08)
(0.000807827 7.43406e-07 4.82043e-08)
(0.000805738 4.68959e-07 4.53287e-08)
(0.000804071 2.87202e-07 1.82116e-08)
(0.00080205 5.91013e-07 1.42041e-07)
(0.000800409 4.61501e-07 5.87134e-09)
(0.000798944 3.18647e-07 7.70579e-08)
(0.000797245 3.01963e-07 7.89269e-08)
(0.000795795 2.16414e-07 7.95345e-08)
(0.000794217 2.35623e-07 5.53967e-08)
(0.000792832 1.05526e-07 4.56093e-08)
(0.000791362 -1.98524e-08 3.88003e-08)
(0.000789823 -1.18501e-07 1.76496e-08)
(0.000788497 -1.48297e-07 4.40205e-08)
(0.000786926 -2.37584e-07 1.70454e-08)
(0.000784889 -4.42203e-07 -1.31605e-08)
(0.000783615 -2.6178e-07 1.73798e-07)
(0.000782432 -2.18686e-07 1.71954e-08)
(0.000780768 -1.06429e-07 5.35398e-08)
(0.000779326 -1.53861e-07 5.60989e-08)
(0.00077787 -5.70932e-09 4.27422e-08)
(0.000776457 6.30574e-08 3.64684e-08)
(0.000775015 1.85294e-07 5.14492e-08)
(0.000773588 2.97749e-07 1.07069e-07)
(0.000772202 1.92397e-07 4.42618e-08)
(0.000770761 1.19212e-07 8.36854e-08)
(0.000769291 1.44786e-07 1.84676e-07)
(0.000767814 7.64335e-08 4.5868e-08)
(0.000766345 -9.04464e-08 4.92678e-08)
(0.000764864 -4.66337e-08 4.23875e-08)
(0.000763433 -1.90953e-07 4.78784e-08)
(0.000762095 -4.68376e-07 -3.39896e-07)
(0.000760968 -5.48217e-07 5.88869e-08)
(0.000759854 -4.82265e-07 9.73044e-08)
(0.000758279 -1.68253e-07 1.89776e-07)
(0.00455953 0.00304044 -0.00013594)
(-0.00737649 0.00274315 0.000637191)
(-0.0401431 -0.0418101 -0.00173866)
(0.00561475 -0.0118912 -0.000153686)
(-0.00129941 -0.0119305 0.00317535)
(0.0033591 0.000562799 -8.6513e-05)
(0.000483489 0.000108021 4.1277e-05)
(0.000541498 0.000114083 4.43588e-05)
(0.000895529 6.63158e-05 -1.91813e-06)
(0.000825998 4.27263e-05 -4.32004e-07)
(0.000828768 2.55825e-05 1.35811e-07)
(0.000820566 1.58637e-05 2.60575e-08)
(0.000816876 9.64554e-06 4.98926e-08)
(0.00081362 5.98363e-06 4.771e-08)
(0.000811122 3.78595e-06 4.99165e-08)
(0.000808971 2.34178e-06 4.91965e-08)
(0.000807065 1.42645e-06 4.95898e-08)
(0.000805275 9.46307e-07 5.88509e-08)
(0.00080379 7.29427e-07 4.73155e-08)
(0.000802285 3.21003e-07 6.63793e-08)
(0.000800278 4.17421e-07 -8.12313e-08)
(0.000798617 1.74828e-07 4.54151e-08)
(0.000797229 2.79197e-07 -4.40953e-08)
(0.000795755 1.73189e-07 5.2554e-08)
(0.000794257 2.34567e-07 6.09932e-09)
(0.000792606 2.4707e-07 2.1039e-07)
(0.000791032 3.21565e-08 5.99116e-08)
(0.000789841 -2.13391e-08 6.67472e-08)
(0.000788158 -3.48032e-07 8.19678e-08)
(0.000786315 -6.38494e-07 4.78127e-08)
(0.000785446 -2.76295e-07 1.5078e-07)
(0.000784019 1.36899e-08 5.71299e-08)
(0.000782264 -4.56333e-08 3.85866e-08)
(0.000780859 -7.79732e-08 2.5036e-08)
(0.000779443 -8.18652e-08 1.30715e-07)
(0.000778031 -8.03312e-09 5.67486e-08)
(0.000776565 4.30559e-08 5.02108e-08)
(0.000775071 1.78741e-08 5.99692e-08)
(0.000773497 1.19232e-07 7.05951e-08)
(0.000772123 2.00227e-07 9.5812e-09)
(0.00077077 6.23013e-08 4.27191e-08)
(0.00076926 -1.87522e-08 7.97438e-09)
(0.000767802 -2.09555e-08 6.44105e-08)
(0.000766331 -3.03607e-08 4.22771e-08)
(0.000764824 4.9285e-09 6.14859e-08)
(0.000763213 4.4589e-08 4.92142e-08)
(0.000761929 4.61865e-09 -1.53154e-07)
(0.000761003 -2.88254e-07 7.1205e-08)
(0.000759935 -2.26376e-07 2.19159e-08)
(0.00075856 -3.32293e-07 1.10244e-08)
(-0.00123423 0.00431074 0.000342014)
(-0.0152026 0.00247071 0.000604538)
(-0.0161569 -0.00424662 -0.00292802)
(-0.0139676 -0.00522667 0.000101523)
(-0.0094769 -0.000946621 2.13584e-05)
(0.0827871 0.0174197 0.00214567)
(0.000668229 -7.83935e-05 -8.33097e-06)
(0.000292714 6.45722e-05 2.36062e-06)
(0.000832875 7.10988e-05 -1.81652e-06)
(0.000794919 4.35091e-05 -3.58864e-07)
(0.000809282 2.6443e-05 1.32536e-07)
(0.000809057 1.63061e-05 3.09999e-08)
(0.000809822 1.00947e-05 5.23235e-08)
(0.000809305 6.2207e-06 4.71006e-08)
(0.000808469 3.88197e-06 4.77195e-08)
(0.000807296 2.41455e-06 4.93477e-08)
(0.00080607 1.5064e-06 1.19676e-07)
(0.000804859 9.58657e-07 6.08709e-08)
(0.000803284 6.6422e-07 9.19387e-08)
(0.000801656 3.1119e-07 3.94718e-08)
(0.000800224 9.15828e-08 4.50152e-08)
(0.000798769 1.51984e-07 6.85936e-08)
(0.000797241 8.7533e-08 4.0455e-08)
(0.000795737 7.23939e-08 4.78068e-08)
(0.000794307 -1.30396e-07 5.99029e-08)
(0.000792578 -2.03561e-07 7.49383e-09)
(0.000791026 -2.60706e-08 3.45726e-08)
(0.00078935 8.2509e-08 7.26626e-08)
(0.00078773 -1.15908e-07 3.2027e-08)
(0.000787021 3.70842e-07 5.40105e-08)
(0.000785708 4.42266e-07 8.91128e-08)
(0.000783905 1.49548e-07 4.25577e-08)
(0.000782318 3.00161e-07 4.659e-08)
(0.000780724 1.1227e-07 5.22073e-08)
(0.000779415 6.81647e-08 4.5677e-08)
(0.000778027 -4.37421e-08 6.48461e-08)
(0.00077649 -6.5084e-08 2.29149e-08)
(0.00077511 -9.00906e-08 4.14586e-08)
(0.000773815 9.7133e-08 4.27619e-08)
(0.00077213 1.34657e-07 3.7997e-08)
(0.000770487 -5.21766e-09 4.96357e-08)
(0.000769187 5.48772e-08 3.19846e-08)
(0.000767801 1.20213e-07 5.53341e-08)
(0.000766378 3.4526e-08 5.45232e-08)
(0.000764958 7.78848e-08 6.082e-08)
(0.000763433 1.792e-07 4.579e-08)
(0.000761679 5.01948e-07 5.79031e-08)
(0.000760681 6.62254e-07 7.06413e-08)
(0.000759807 2.45746e-07 4.63595e-08)
(0.000758976 -3.90662e-08 9.04975e-08)
(0.00270223 0.00558608 0.00033087)
(-0.0117207 -0.00365542 -0.00123819)
(0.00770897 0.00206197 0.00111592)
(-0.00523018 -0.00376795 -0.000103727)
(0.000261653 -0.00352052 -0.000338181)
(0.00358959 -0.00125745 -0.000203019)
(0.00061348 -0.000470056 0.000130812)
(0.00040047 6.28987e-05 6.3567e-07)
(0.000799941 3.02321e-05 -1.12333e-06)
(0.000769644 2.48239e-05 -2.37448e-07)
(0.000794534 1.48075e-05 1.67573e-07)
(0.000799989 9.64152e-06 3.94465e-08)
(0.000804182 5.959e-06 4.39691e-08)
(0.0008058 3.59805e-06 5.11765e-08)
(0.000806331 2.2486e-06 5.00794e-08)
(0.00080598 1.44108e-06 1.10109e-07)
(0.000805232 9.77476e-07 9.52291e-08)
(0.000804213 4.4573e-07 1.69566e-08)
(0.000802975 2.04125e-07 2.66061e-08)
(0.000801565 2.59217e-07 7.11887e-08)
(0.000800077 2.263e-07 5.2489e-08)
(0.000798611 8.25227e-08 6.50721e-08)
(0.000797129 -1.7257e-08 5.49606e-08)
(0.000795484 -6.52187e-08 4.9793e-08)
(0.000793914 -1.40793e-07 1.69017e-08)
(0.000792739 -2.15125e-07 6.76826e-08)
(0.000791391 -2.57391e-08 2.39104e-08)
(0.000789729 -1.65056e-08 4.33361e-08)
(0.000788518 1.97148e-07 9.61281e-08)
(0.000787011 4.72727e-07 3.61285e-08)
(0.000785167 2.50186e-07 1.31764e-07)
(0.000783839 1.38743e-07 4.58996e-08)
(0.000782216 -3.07135e-08 8.85802e-08)
(0.000780568 -3.22507e-08 -2.18653e-08)
(0.000779249 -4.08965e-08 2.34803e-08)
(0.000777865 -2.26082e-07 4.22944e-08)
(0.000776508 -1.39972e-07 6.40678e-08)
(0.000775274 -1.38632e-07 4.58567e-08)
(0.000773778 -3.8565e-07 8.6858e-08)
(0.000771994 -5.34513e-07 3.79447e-08)
(0.00077067 -2.19138e-07 4.60461e-08)
(0.000769417 -9.95778e-08 2.23914e-08)
(0.000767777 1.66211e-07 5.12194e-08)
(0.000766279 6.12504e-08 2.44233e-08)
(0.000765005 1.73716e-07 6.03762e-08)
(0.000763741 2.111e-07 1.26252e-08)
(0.00076253 4.2103e-07 6.38913e-08)
(0.000760679 9.90223e-07 2.49715e-08)
(0.000759057 6.57177e-07 -1.02561e-07)
(0.000758299 3.61038e-07 8.90088e-08)
(0.0129388 0.00582385 6.81975e-05)
(-0.00401225 0.0134332 0.000876341)
(-0.000601329 0.00270945 -5.10523e-06)
(-0.00647334 -0.00113333 0.00014969)
(-0.000146808 0.00647998 0.00110428)
(-0.00407415 0.0149581 -0.00061288)
(0.000531332 0.000216136 -9.78307e-06)
(0.000746619 4.52252e-08 -1.88655e-06)
(0.000752062 -1.69798e-05 -1.47577e-07)
(0.000775477 -2.55915e-06 4.14124e-08)
(0.000790159 -1.50147e-06 9.90511e-08)
(0.000797907 -4.78412e-07 2.13957e-07)
(0.000802211 -1.85397e-07 7.02065e-08)
(0.000804631 1.93252e-07 7.5639e-08)
(0.000805751 1.42351e-07 5.85091e-08)
(0.000805693 8.2163e-08 7.37051e-08)
(0.000804817 1.10247e-07 4.57144e-08)
(0.000803886 2.00154e-07 6.69483e-08)
(0.000803048 3.2691e-08 8.30931e-08)
(0.000801681 -1.6981e-07 -6.98114e-09)
(0.000800001 -1.85547e-07 1.67771e-08)
(0.000798464 -6.6143e-08 5.2991e-08)
(0.000797057 -1.29574e-08 5.35703e-08)
(0.000795584 -4.49303e-08 4.73343e-08)
(0.000794122 7.43951e-08 5.25166e-08)
(0.000792724 8.25677e-08 -9.03263e-08)
(0.000791276 1.09598e-07 3.44279e-08)
(0.000789629 1.1969e-07 4.32358e-08)
(0.00078834 4.07e-07 7.66506e-09)
(0.000787085 -1.61589e-07 4.04151e-08)
(0.000785288 -1.77861e-07 6.89487e-08)
(0.000783553 -2.29219e-07 5.81388e-08)
(0.000782105 -5.24191e-07 2.28805e-08)
(0.000780712 -2.50307e-07 1.31023e-07)
(0.000779174 -1.00261e-07 6.88138e-08)
(0.000777905 -1.2805e-08 9.57257e-08)
(0.000776601 -1.08335e-07 3.62748e-08)
(0.000774804 -1.97361e-07 4.91823e-08)
(0.000773323 -4.3027e-07 5.53179e-09)
(0.000772341 -5.12709e-07 6.22887e-08)
(0.000771033 -2.13651e-07 6.95915e-08)
(0.00076967 -2.23688e-07 2.65663e-08)
(0.000768002 -1.70357e-07 7.98373e-08)
(0.000766386 1.03356e-07 5.73674e-08)
(0.000765144 4.37107e-08 4.54224e-08)
(0.000763739 1.49581e-07 4.20378e-08)
(0.000762649 2.61533e-08 1.95196e-08)
(0.00076097 -2.45425e-08 2.63798e-08)
(0.000759007 3.40916e-07 -1.34483e-08)
(0.000757707 2.33412e-07 7.16366e-08)
(-0.0235077 -0.0112104 0.00147407)
(-0.00577265 0.0084265 -0.00810838)
(-0.0483741 -0.0200085 -0.00307814)
(-0.0315349 -0.0286318 -0.00646994)
(-0.000835385 0.00172389 -0.00962008)
(-0.0172282 0.00231065 -0.000172212)
(0.00106935 -0.000164945 4.93656e-05)
(0.00134285 -0.000126837 3.32772e-07)
(0.00130644 -3.56097e-05 2.99379e-07)
(0.00132102 -3.42937e-05 3.45618e-07)
(0.00133274 -1.98123e-05 3.76283e-07)
(0.00133906 -1.30379e-05 2.98772e-07)
(0.00134406 -8.01604e-06 2.84401e-07)
(0.00134563 -4.66794e-06 3.60282e-07)
(0.00134535 -2.84919e-06 3.42806e-07)
(0.00134474 -1.71791e-06 4.49215e-07)
(0.00134365 -1.13792e-06 3.38901e-07)
(0.00134156 -4.51221e-07 3.07702e-07)
(0.0013389 -4.0903e-07 2.83492e-07)
(0.00133679 -5.0384e-07 4.78655e-07)
(0.00133495 -4.78402e-07 3.32314e-07)
(0.00133261 -1.70686e-07 4.00177e-07)
(0.00132982 -1.13676e-07 3.20538e-07)
(0.00132726 1.899e-07 2.89643e-07)
(0.00132479 3.49258e-07 3.13661e-07)
(0.00132256 5.15929e-07 1.89787e-07)
(0.00132025 1.41049e-07 2.85086e-07)
(0.0013181 2.17378e-08 3.41869e-07)
(0.00131488 9.38774e-08 4.23783e-07)
(0.00131173 -4.93955e-07 3.19625e-07)
(0.00130972 -1.23578e-06 2.46972e-07)
(0.00130691 -1.06613e-06 1.84347e-07)
(0.00130487 -8.20499e-07 3.37097e-07)
(0.00130311 -5.47996e-07 2.91464e-07)
(0.00130059 1.06473e-07 3.31276e-07)
(0.00129775 2.49667e-07 3.27847e-07)
(0.00129504 1.66526e-08 3.08261e-07)
(0.00129261 2.38829e-07 2.57843e-07)
(0.00129025 6.60033e-07 2.08777e-07)
(0.00128843 7.15952e-07 3.45958e-07)
(0.00128626 1.38128e-07 2.76602e-07)
(0.00128364 -3.27949e-08 3.3165e-07)
(0.00128163 -7.63711e-07 2.52635e-07)
(0.00127885 -4.51412e-07 7.17776e-07)
(0.00127632 -4.07494e-07 2.95946e-07)
(0.00127408 -4.15761e-07 3.33932e-07)
(0.0012717 -3.97885e-07 2.98239e-07)
(0.0012697 -7.44667e-07 3.07411e-07)
(0.00126684 -4.99506e-07 2.12879e-07)
(0.00126385 -3.87798e-07 3.68528e-07)
(0.0135108 -0.013755 0.00458797)
(-0.00325402 0.00411884 -0.142284)
(0.00407306 0.00857229 0.0595753)
(-0.0305376 -0.0213429 0.000741296)
(-0.0194609 -0.00626098 -0.000351754)
(-0.0239109 0.00683443 -0.0026368)
(0.000599273 0.000564675 -4.37878e-05)
(0.00120614 -0.000136555 1.34224e-07)
(0.0014066 -6.04654e-05 4.00884e-07)
(0.00131901 -5.21988e-05 4.15014e-07)
(0.00134813 -3.20667e-05 3.36958e-07)
(0.00134798 -2.08301e-05 3.36674e-07)
(0.00135001 -1.32068e-05 3.37577e-07)
(0.00134954 -8.67525e-06 3.37277e-07)
(0.00134836 -5.44211e-06 3.38224e-07)
(0.00134653 -3.40416e-06 4.95076e-07)
(0.00134443 -2.13858e-06 3.39137e-07)
(0.00134215 -1.62144e-06 2.49845e-07)
(0.00133966 -6.92724e-07 3.21381e-07)
(0.00133726 -3.41628e-07 3.05527e-07)
(0.00133494 -8.07e-08 3.74357e-07)
(0.00133246 -1.97338e-07 3.50621e-07)
(0.00133016 4.46414e-08 3.44486e-07)
(0.00132783 1.62458e-07 2.82707e-07)
(0.00132516 7.28521e-07 8.20307e-08)
(0.0013222 1.33097e-07 3.28911e-07)
(0.00131951 -2.64871e-07 2.97135e-07)
(0.00131729 -5.07903e-07 3.29715e-07)
(0.00131456 -1.54556e-06 4.16371e-07)
(0.00131144 -9.92545e-07 3.31083e-07)
(0.00130937 -9.27426e-07 3.6689e-07)
(0.00130766 -5.91628e-07 3.09007e-07)
(0.00130535 4.72818e-07 6.10179e-07)
(0.00130358 5.7796e-07 8.55717e-07)
(0.00130092 -1.43726e-08 3.36299e-07)
(0.00129772 3.62321e-08 3.1366e-07)
(0.00129557 2.80696e-07 3.12279e-07)
(0.00129336 3.91824e-07 3.66621e-07)
(0.00129074 6.60093e-07 3.32647e-07)
(0.00128784 8.60258e-07 9.21436e-07)
(0.00128531 3.06096e-07 3.38429e-07)
(0.00128284 -3.12321e-08 1.88716e-07)
(0.00128069 -4.56668e-07 3.01307e-07)
(0.00127905 -7.15717e-07 2.5921e-07)
(0.00127659 -1.9108e-07 3.32366e-07)
(0.00127412 -2.57111e-07 3.38051e-07)
(0.00127184 1.17544e-07 4.73563e-07)
(0.00126945 -2.04811e-07 2.81019e-07)
(0.00126681 -5.79713e-07 3.62911e-07)
(0.00126511 -4.10242e-07 2.16656e-07)
(-0.00462503 -0.0343451 -0.000151952)
(-0.000364029 0.00881053 -0.0015892)
(-0.00173501 -0.00339851 -0.000347688)
(-0.0134705 0.00210571 0.00414888)
(-0.0133458 -0.0105075 0.00143333)
(0.00104943 0.00356896 -0.00297624)
(0.000767526 -0.00031754 7.24022e-05)
(0.0014025 -0.000179004 8.05035e-07)
(0.00146434 -9.47715e-05 -3.71507e-07)
(0.00135659 -5.97463e-05 3.36291e-07)
(0.0013722 -3.71704e-05 3.43016e-07)
(0.00136279 -2.33289e-05 3.42011e-07)
(0.00135936 -1.46016e-05 3.40067e-07)
(0.0013554 -9.1856e-06 3.39551e-07)
(0.00135198 -5.78386e-06 3.38325e-07)
(0.00134889 -3.7166e-06 3.36341e-07)
(0.00134589 -2.37238e-06 3.35048e-07)
(0.00134338 -1.57224e-06 1.9949e-07)
(0.0013405 -1.36381e-06 1.75024e-07)
(0.00133756 -7.29232e-07 3.22006e-07)
(0.00133513 -4.93089e-07 2.71223e-07)
(0.00133276 -3.04875e-07 3.31888e-07)
(0.00133026 -2.75225e-07 3.94413e-07)
(0.00132811 -5.41106e-07 3.29082e-07)
(0.00132475 -1.15538e-06 4.05606e-07)
(0.00132131 -6.11649e-07 3.06566e-07)
(0.00131945 -3.38626e-07 3.42878e-07)
(0.0013165 -2.33768e-07 3.26627e-07)
(0.00131428 -1.90698e-07 1.54836e-07)
(0.00131251 5.99708e-07 3.38161e-07)
(0.00131023 1.21411e-06 3.28283e-07)
(0.00130866 1.12378e-06 3.17037e-07)
(0.00130633 7.17901e-07 7.99963e-07)
(0.0013025 6.4476e-07 4.56465e-07)
(0.00129991 -2.99454e-08 6.2585e-08)
(0.00129812 1.20427e-07 3.34038e-07)
(0.00129548 1.73401e-07 2.81985e-07)
(0.00129308 -2.02864e-09 3.41918e-07)
(0.00129083 -4.4696e-08 3.25739e-07)
(0.00128798 -1.85693e-07 2.99345e-07)
(0.00128515 5.89407e-08 3.35074e-07)
(0.00128269 2.73187e-07 2.15887e-07)
(0.00128078 8.1984e-07 5.70523e-07)
(0.00127919 6.04911e-07 3.85521e-07)
(0.0012769 4.93628e-07 3.2057e-07)
(0.00127447 4.61269e-07 3.18352e-07)
(0.00127177 5.87259e-07 3.25577e-07)
(0.00126883 3.34022e-07 3.43783e-07)
(0.0012666 1.59666e-07 3.35257e-07)
(0.00126508 1.48563e-07 3.39936e-07)
(-0.0234346 0.00119995 0.00114912)
(0.0250438 0.00121536 -0.0128038)
(-0.0269994 -0.00094002 0.00404336)
(-0.0139857 0.0106346 -0.000623959)
(0.00450852 -0.00533358 0.00100728)
(0.0310617 -0.0193854 -0.00350013)
(0.00205469 -0.000515716 0.000199656)
(0.00156775 -0.000231493 1.53747e-05)
(0.00151877 -7.26696e-05 3.23604e-07)
(0.00139199 -4.48285e-05 3.48153e-07)
(0.00139397 -2.71744e-05 3.49078e-07)
(0.00137639 -1.65224e-05 3.43228e-07)
(0.00136782 -1.03617e-05 3.41679e-07)
(0.00136064 -6.3434e-06 3.40593e-07)
(0.00135525 -3.79585e-06 3.38762e-07)
(0.00135082 -2.35185e-06 3.37698e-07)
(0.00134713 -1.53772e-06 3.37e-07)
(0.00134343 -9.1168e-07 2.65129e-07)
(0.00134072 -8.66604e-07 3.18375e-07)
(0.00133836 -8.34115e-07 2.86961e-07)
(0.00133548 -5.23555e-07 2.84069e-07)
(0.00133274 -4.71068e-07 3.34421e-07)
(0.00132987 -6.1174e-07 3.41004e-07)
(0.00132673 -4.99178e-07 3.85212e-07)
(0.00132507 -9.62139e-07 2.11235e-07)
(0.00132323 -1.07522e-07 2.72144e-07)
(0.00131998 2.27016e-07 3.98515e-07)
(0.00131748 4.69133e-07 4.40554e-07)
(0.0013156 1.39596e-06 3.528e-07)
(0.0013132 1.13503e-06 5.01373e-07)
(0.00131002 1.28851e-06 3.10187e-07)
(0.00130703 1.25594e-06 2.90149e-07)
(0.00130474 3.82223e-07 3.24816e-07)
(0.00130264 -5.85588e-08 3.26355e-07)
(0.00130026 3.78215e-07 2.59477e-07)
(0.00129798 8.02127e-08 3.10942e-07)
(0.00129542 -1.06158e-07 5.0313e-07)
(0.00129309 -2.05814e-07 3.40784e-07)
(0.00129051 -5.43336e-07 2.45781e-07)
(0.00128798 -5.98189e-07 1.1528e-07)
(0.00128588 -1.60608e-07 1.72781e-07)
(0.00128378 1.11031e-07 4.54528e-07)
(0.0012811 4.96803e-07 5.31991e-07)
(0.00127863 6.29661e-07 1.33742e-07)
(0.0012764 9.0667e-08 3.20914e-07)
(0.00127423 1.4532e-08 3.18359e-07)
(0.00127168 -1.60413e-07 3.97963e-07)
(0.00126891 9.33771e-08 1.15995e-07)
(0.00126658 4.22197e-07 3.11959e-07)
(0.00126473 3.77838e-07 2.44561e-07)
(0.000313092 0.022455 -0.00286062)
(-0.00526617 -0.00678031 0.00729028)
(0.029645 0.0266472 -0.00143085)
(-0.000464891 0.00857956 -6.18023e-05)
(0.00421999 -0.0155979 0.00332839)
(-0.00950806 -0.00244348 -0.00074012)
(0.000162582 -0.000503721 4.37452e-05)
(0.00140179 -9.46027e-05 6.5412e-05)
(0.00157415 -1.75853e-05 6.71535e-07)
(0.00141373 -1.07874e-05 4.35367e-07)
(0.00140784 -5.52763e-06 3.7055e-07)
(0.00138397 -3.20566e-06 3.78562e-07)
(0.00137218 -1.57683e-06 3.78578e-07)
(0.00136367 -1.0021e-06 3.40803e-07)
(0.00135701 -7.60889e-07 3.11843e-07)
(0.00135174 -4.7337e-07 3.69702e-07)
(0.00134771 -2.61643e-07 3.37141e-07)
(0.00134423 -2.00267e-07 3.36506e-07)
(0.00134061 2.2653e-07 5.49512e-07)
(0.00133799 2.83552e-07 3.779e-07)
(0.00133559 -6.46576e-08 3.67312e-07)
(0.00133266 1.27689e-07 3.27946e-07)
(0.00133023 5.61786e-08 8.27918e-07)
(0.00132768 2.53686e-07 3.7776e-07)
(0.00132524 7.38429e-07 3.87345e-07)
(0.0013228 1.1537e-07 3.50387e-07)
(0.00132017 2.74102e-07 3.83472e-07)
(0.00131796 3.6117e-07 2.95299e-07)
(0.00131511 4.63628e-07 2.69454e-07)
(0.00131237 2.70039e-07 4.45911e-07)
(0.00131037 1.08573e-07 -4.48497e-07)
(0.00130752 -2.7695e-07 3.10787e-07)
(0.00130468 3.10773e-07 3.06863e-07)
(0.00130249 1.7585e-07 3.26466e-07)
(0.00130009 2.10208e-07 3.38313e-07)
(0.00129752 3.80388e-08 3.25772e-07)
(0.00129512 -4.50402e-08 3.45696e-07)
(0.00129253 -2.90695e-08 3.24679e-07)
(0.00129035 -1.60878e-07 4.07853e-07)
(0.00128846 -1.89757e-08 3.04861e-07)
(0.00128604 7.3417e-08 3.54141e-07)
(0.00128351 4.20274e-08 6.80876e-07)
(0.00128142 -2.02805e-07 3.09829e-07)
(0.00127868 -1.24213e-07 3.18155e-07)
(0.00127612 -3.71256e-07 3.18605e-07)
(0.00127415 -4.52519e-07 3.173e-07)
(0.00127187 -9.05658e-07 1.04384e-07)
(0.00126956 -7.53092e-07 1.34801e-08)
(0.00126694 -3.8396e-07 5.09067e-07)
(0.00126409 1.74029e-07 4.08664e-07)
(-0.00876039 0.00519193 0.00117166)
(0.00336438 -0.000522825 -0.000236372)
(-0.00792065 -0.0172886 -0.0037161)
(-0.00339071 0.0112891 -0.000603969)
(-0.00245567 0.00908269 0.00107422)
(0.0167272 -0.000853273 -0.00272149)
(0.00308035 -0.000682018 3.49015e-06)
(0.00120217 -0.000104138 3.36315e-05)
(0.00156565 5.02144e-05 6.0238e-07)
(0.00140753 3.40189e-05 3.60748e-07)
(0.00140355 2.08515e-05 3.09568e-07)
(0.00138139 1.29365e-05 3.3191e-07)
(0.00137061 8.27208e-06 2.92083e-07)
(0.00136168 5.05842e-06 3.39311e-07)
(0.00135592 2.97234e-06 3.67664e-07)
(0.00135146 1.83718e-06 3.29527e-07)
(0.00134748 1.14457e-06 3.36622e-07)
(0.00134404 7.13626e-07 3.1922e-07)
(0.00134133 4.21412e-07 2.8728e-07)
(0.00133799 9.25826e-07 4.89357e-07)
(0.00133528 7.55967e-07 3.13926e-07)
(0.00133289 5.40128e-07 3.77906e-07)