/*--------------------------------*- C++ -*----------------------------------*\
| =========                 |                                                 |
| \\      /  F ield         | OpenFOAM: The Open Source CFD Toolbox           |
|  \\    /   O peration     | Version:  5.0                                   |
|   \\  /    A nd           | Web:      www.OpenFOAM.org                      |
|    \\/     M anipulation  |                                                 |
\*---------------------------------------------------------------------------*/
FoamFile
{
    version     2.0;
    format      ascii;
    class       surfaceVectorField;
    location    "3.8";
    object      Uf;
}
// * * * * * * * * * * * * * * * * * * * * * * * * * * * * * * * * * * * * * //

dimensions      [0 1 -1 0 0 0 0];

internalField   nonuniform List<vector> 
27955
(
(0.0118535 -0.00135881 0.000307102)
(0.0063889 -0.000330967 -0.000247597)
(-0.00547747 -0.00557765 -0.000744029)
(0.00121082 0.00187586 -0.000929398)
(0.0153022 -0.0152826 0.00587218)
(-0.00186973 -0.00726182 0.000565533)
(0.00661894 0.00468356 0.0171089)
(-0.00360626 -0.0044465 -0.0104218)
(-0.000931345 -0.0102393 -0.015978)
(-0.0112196 -0.0120787 0.00759586)
(0.00163304 -0.00335303 0.000262335)
(-0.00566673 0.000883666 0.000329674)
(0.00593365 0.00424511 -0.000639154)
(0.00909265 -0.00340618 -0.00325416)
(-0.0140728 -0.00326103 0.00866811)
(0.00858823 -0.00030489 -0.0192479)
(0.0157738 0.00221324 0.0121142)
(-0.0179116 -0.00520419 -0.00341268)
(0.00335929 -0.00488982 -0.00310416)
(0.00698193 0.0256893 -0.00290877)
(-0.00711355 0.0344376 -0.00463403)
(0.0160224 0.0171342 0.00179534)
(0.0152614 0.00544748 -0.000666978)
(-0.0152042 -0.0213115 -0.0136206)
(-0.0332044 -0.00469475 -0.0298609)
(-0.0288879 -0.00288206 0.0288719)
(-0.0126245 -0.0130975 -0.000972143)
(0.00112336 0.0154002 -0.000840053)
(-0.00645903 0.0173401 -5.86396e-05)
(0.00388979 0.010251 -0.000119353)
(0.000526569 0.0148193 -0.00303529)
(-0.000218392 0.0143077 0.00516836)
(0.00756441 0.012649 0.00444254)
(-0.00142508 0.0230634 -0.00810408)
(0.000564029 0.00356633 -4.79399e-05)
(-0.00369729 0.000275816 0.000149544)
(-0.00207126 -4.74699e-06 7.19992e-05)
(-0.0041769 -0.000887011 0.000509906)
(0.000996542 -8.16872e-05 2.84589e-06)
(0.000387192 -6.89967e-05 3.72571e-05)
(0.000457538 -9.53524e-05 6.23712e-05)
(0.000314814 -3.61872e-05 1.87173e-05)
(0.00077385 -5.27305e-05 -1.13643e-06)
(0.000530165 -6.70534e-05 -1.46702e-06)
(0.00105584 -0.000107615 -1.25529e-06)
(0.000520562 -5.80458e-05 -4.67323e-06)
(0.000549332 -6.38567e-05 -4.13081e-06)
(0.000865875 -9.65323e-05 -6.57749e-06)
(0.000929996 -0.000107784 -2.12366e-06)
(0.0005352 -7.18219e-05 -3.7799e-06)
(0.000886379 -0.000112497 -9.40145e-07)
(0.000898162 -0.000120794 -4.588e-06)
(0.000781937 -2.28054e-05 -6.09176e-08)
(0.000807083 -3.10484e-05 -6.42328e-07)
(0.00103364 -3.12349e-05 8.82221e-08)
(0.00079556 -1.7049e-05 1.01281e-07)
(0.000790512 -3.00275e-05 -7.54384e-08)
(0.00105312 -2.8518e-05 1.79426e-07)
(0.00080302 -1.02457e-05 8.49056e-08)
(0.000805462 -1.78751e-05 1.42096e-07)
(0.00106681 -1.62996e-05 1.79075e-07)
(0.000808358 -6.54688e-06 3.37602e-08)
(0.000809043 -1.16827e-05 5.7388e-08)
(0.00107447 -1.06591e-05 1.74641e-07)
(0.000811524 -3.93295e-06 3.80909e-08)
(0.000812296 -7.38794e-06 3.14933e-08)
(0.00108017 -6.58907e-06 1.82465e-07)
(0.000812134 -2.3562e-06 6.26751e-08)
(0.000813282 -4.93312e-06 6.32099e-08)
(0.00108236 -3.7802e-06 1.68009e-07)
(0.000812358 -1.62083e-06 3.62375e-08)
(0.000813181 -3.1584e-06 5.08111e-08)
(0.00108266 -2.42575e-06 1.83578e-07)
(0.00081171 -1.13937e-06 3.76224e-08)
(0.00081271 -8.4459e-07 3.9087e-08)
(0.00108235 -1.80758e-06 1.51774e-07)
(0.000810994 -7.0826e-07 5.89358e-08)
(0.000811878 -1.35993e-06 5.15424e-08)
(0.0010814 -1.14603e-06 1.79889e-07)
(0.000809903 -4.766e-07 5.56521e-08)
(0.000810759 -7.32198e-07 5.85453e-08)
(0.0010802 -6.86512e-07 1.78235e-07)
(0.000808296 -4.28799e-07 8.91856e-08)
(0.000809276 4.20464e-07 5.25418e-08)
(0.00107826 -5.3588e-07 1.30727e-07)
(0.000807159 -3.81536e-07 9.54298e-08)
(0.000807861 -3.73489e-07 7.96001e-08)
(0.00107642 -5.67051e-07 1.29267e-07)
(0.000805865 -2.55776e-07 6.47958e-08)
(0.000806581 -1.55722e-07 4.95867e-08)
(0.00107491 -4.11034e-07 1.30713e-07)
(0.00080437 -1.59728e-07 6.1824e-08)
(0.000805092 -3.44871e-07 6.25744e-08)
(0.001073 -2.01217e-07 1.91476e-07)
(0.000802653 -5.59532e-08 4.76423e-08)
(0.000803559 8.19074e-08 2.05137e-07)
(0.00107078 -1.24048e-07 1.84177e-07)
(0.000801204 2.37711e-08 3.14578e-08)
(0.000802021 -1.97919e-07 3.70657e-08)
(0.0010687 6.19965e-08 1.80128e-07)
(0.000799833 3.72574e-08 5.11976e-08)
(0.000800524 1.9695e-07 4.26391e-08)
(0.00106685 9.4092e-08 1.29083e-07)
(0.000798341 2.22553e-08 6.21892e-08)
(0.000799046 9.19931e-08 7.31961e-08)
(0.00106494 1.32185e-07 1.91199e-07)
(0.000796749 1.17242e-08 4.49898e-08)
(0.000797502 1.01492e-07 3.79373e-08)
(0.00106286 2.86338e-08 1.69886e-07)
(0.000795256 9.35341e-08 3.14109e-08)
(0.000796082 -2.57871e-08 4.65799e-08)
(0.00106096 3.69832e-08 1.76303e-07)
(0.000793681 -1.15057e-08 2.97777e-08)
(0.000794407 -1.88272e-07 4.28508e-08)
(0.00105877 1.95383e-07 1.3081e-07)
(0.000792298 -3.36801e-07 6.30161e-08)
(0.000792709 1.47117e-07 -4.64299e-08)
(0.0010567 -2.90374e-07 1.86133e-07)
(0.000790432 -5.31533e-07 2.11544e-08)
(0.000791282 -6.60826e-07 -1.5269e-08)
(0.00105467 -7.17711e-07 3.70815e-07)
(0.000789205 -4.97491e-07 2.05727e-08)
(0.000789814 -6.15287e-07 -1.22073e-08)
(0.00105246 -7.83009e-07 3.25544e-07)
(0.00078754 -3.05625e-07 6.35282e-08)
(0.000788486 -1.98411e-07 9.73624e-08)
(0.00105061 -5.66887e-07 1.83123e-07)
(0.00078642 -1.0524e-07 9.51769e-08)
(0.000787215 -3.94064e-07 7.11661e-08)
(0.0010489 -2.50469e-07 1.73685e-07)
(0.000784926 9.75004e-09 9.98132e-08)
(0.000785756 -4.27433e-08 9.49608e-08)
(0.00104715 -3.40152e-09 1.78398e-07)
(0.000783282 -7.51335e-08 8.44483e-08)
(0.000784172 -2.95954e-08 4.51718e-08)
(0.00104499 9.30324e-08 1.97673e-07)
(0.000781433 -8.22456e-09 7.66268e-08)
(0.00078261 1.25955e-07 7.72381e-08)
(0.00104263 -2.21149e-07 1.80043e-07)
(0.00077981 3.93331e-07 7.12483e-08)
(0.000781084 4.32455e-07 2.39639e-08)
(0.00104021 2.44827e-07 1.44944e-07)
(0.000779639 4.04319e-07 7.72228e-08)
(0.000779658 -2.94511e-06 5.32802e-08)
(0.00103909 8.1265e-07 2.36298e-07)
(0.000777677 1.08255e-07 6.58761e-08)
(0.000778198 3.80842e-07 2.78719e-08)
(0.0010378 2.98501e-07 1.76333e-07)
(0.000776137 2.86917e-08 7.81273e-08)
(0.000776741 6.6145e-08 6.94178e-08)
(0.00103537 4.09827e-08 1.60922e-07)
(0.000774658 -1.39288e-07 9.62762e-08)
(0.000775205 4.8451e-08 7.19311e-08)
(0.00103326 4.86935e-08 1.75434e-07)
(0.00077366 -3.62442e-07 6.63724e-08)
(0.000773856 -2.79993e-07 7.09935e-08)
(0.00103185 -4.33203e-07 3.00271e-07)
(0.00077155 -3.29066e-07 2.55192e-08)
(0.000772565 1.96064e-06 9.23432e-08)
(0.00102963 -5.15423e-07 1.04179e-07)
(0.000770198 -2.02793e-07 4.67997e-08)
(0.000771092 9.79445e-08 4.87167e-08)
(0.00102731 -3.37573e-07 1.53682e-07)
(0.000768683 -7.10328e-08 5.55512e-08)
(0.000769627 1.71938e-07 5.81094e-08)
(0.00102544 -2.37982e-07 1.66614e-07)
(0.000767875 -5.43779e-08 6.9866e-08)
(0.000768287 -6.68057e-07 5.31532e-08)
(0.00102379 -9.76402e-09 1.68329e-07)
(0.000766297 -2.53843e-07 6.64187e-08)
(0.00076697 1.32791e-07 6.95116e-08)
(0.0010224 -1.96379e-07 1.76118e-07)
(0.000764585 -3.57875e-07 2.21989e-08)
(0.000765393 -3.02464e-07 -1.34638e-08)
(0.00102004 -5.06147e-07 2.0908e-07)
(0.000764077 8.60022e-07 5.4396e-08)
(0.00101785 -4.30815e-07 1.12779e-07)
(0.00125382 -0.00423569 -0.00166154)
(-0.00728721 -0.0172842 0.000202126)
(0.000182372 -0.0118315 0.00101377)
(-0.000783427 -0.00107931 0.000228394)
(0.0120429 0.0103824 0.0040166)
(0.00359594 0.0104036 0.00106025)
(-0.00129448 0.00887174 -0.00284659)
(0.0198417 -0.00237592 0.00490988)
(-0.00161522 0.0225234 0.00991835)
(-0.000704853 0.0245431 -0.119557)
(0.0196685 0.0175882 -0.0676947)
(0.0161829 0.028194 0.169466)
(-0.00511513 -0.00543705 -0.00111598)
(-0.0091719 -0.00250717 0.00220284)
(0.0142152 -0.00277737 -0.000375846)
(0.000763506 -0.00210857 -0.00196721)
(0.00565583 -0.00528191 -0.00169895)
(0.00526449 -0.0166816 0.000262531)
(-0.00120614 -0.0161168 0.00336812)
(-0.0048034 -0.0435181 0.00229657)
(-0.0396295 -0.0440538 -0.00269489)
(0.00021882 -0.0082342 0.000311539)
(-0.0170855 0.00133543 -0.000175483)
(-0.00982713 0.00606606 -0.000632651)
(-0.0108682 0.00873198 -0.000768422)
(-0.0226925 0.00484352 -0.000509401)
(-0.00995691 0.00187969 -0.000105703)
(0.00165428 0.0121983 3.84458e-05)
(-0.00168761 0.00798398 0.000139322)
(-0.00228103 0.00457349 6.41605e-05)
(-0.00286208 0.00529882 0.000107316)
(-0.00361218 0.00147833 0.000514512)
(0.000523858 3.69473e-05 4.4011e-05)
(0.000470861 -0.000119387 1.81108e-05)
(0.000647288 -4.6963e-05 -8.80518e-07)
(0.000601339 3.21416e-05 -1.49676e-05)
(0.000643441 -5.92465e-05 7.51753e-06)
(0.000433253 -7.21645e-05 2.48684e-08)
(0.000449305 -5.68204e-05 -3.08413e-06)
(0.000430414 -6.75301e-05 -2.80536e-07)
(0.000667823 -9.01876e-05 -1.30743e-06)
(0.000796772 -4.17856e-05 -6.57034e-07)
(0.000860124 -6.3623e-05 -1.67367e-06)
(0.00112193 -5.99503e-05 -9.46641e-07)
(0.000560901 -5.40716e-05 -3.45122e-06)
(0.000582424 -5.54831e-05 -4.70706e-06)
(0.000927231 -0.000102766 -4.2595e-06)
(0.000964961 -0.000105824 -6.10479e-06)
(0.000806231 -3.00003e-05 -3.46945e-08)
(0.000805322 -4.24435e-05 -3.36083e-07)
(0.00105629 -4.83974e-05 7.76737e-08)
(0.000811167 -1.87534e-05 1.14606e-07)
(0.000819618 -2.64619e-05 1.67485e-07)
(0.00108146 -2.97013e-05 2.06457e-07)
(0.000813641 -1.19943e-05 5.51294e-08)
(0.000817554 -1.67825e-05 4.01374e-08)
(0.00108282 -1.91455e-05 1.79324e-07)
(0.000814552 -7.72367e-06 5.6602e-08)
(0.000817674 -1.05688e-05 5.90743e-08)
(0.00108545 -1.21132e-05 1.82655e-07)
(0.000814395 -5.0305e-06 5.13499e-08)
(0.000816674 -6.75275e-06 5.13911e-08)
(0.00108569 -8.02368e-06 1.81488e-07)
(0.000813661 -3.24716e-06 5.36644e-08)
(0.000815427 -4.24206e-06 5.24332e-08)
(0.00108499 -5.09609e-06 1.81025e-07)
(0.00081295 -2.10864e-06 5.3003e-08)
(0.000814144 -2.58706e-06 5.3784e-08)
(0.00108397 -3.36612e-06 2.24868e-07)
(0.000811693 -1.42355e-06 5.11496e-08)
(0.000812742 -1.83015e-06 5.19564e-08)
(0.00108266 -2.12875e-06 1.8478e-07)
(0.000810248 -9.64034e-07 5.5437e-08)
(0.000811338 -2.15241e-07 8.22392e-08)
(0.00108083 -1.59702e-06 1.33189e-07)
(0.000808727 -5.27307e-07 4.29477e-08)
(0.000809825 9.69064e-07 8.86631e-08)
(0.00107878 -9.20158e-07 1.37819e-07)
(0.000807346 -2.14099e-07 3.37666e-08)
(0.000808254 -6.20933e-07 3.31764e-08)
(0.00107684 -4.42913e-07 1.80972e-07)
(0.000805802 -1.30255e-07 4.73611e-08)
(0.000806686 -2.21705e-08 4.15396e-08)
(0.00107495 -1.01421e-07 1.68909e-07)
(0.000804304 -9.03347e-08 2.05842e-07)
(0.000805142 -2.22512e-07 5.00924e-08)
(0.00107289 -2.21558e-07 1.65945e-07)
(0.000802958 -2.00974e-08 1.94614e-07)
(0.000803646 -5.91605e-07 2.07984e-07)
(0.00107098 2.34601e-08 2.08332e-07)
(0.000801244 1.63975e-08 4.82452e-08)
(0.000802066 -4.03088e-09 1.35347e-08)
(0.001069 -5.70376e-09 1.80027e-07)
(0.000799778 2.1411e-08 6.46279e-08)
(0.00080053 -3.18474e-07 6.23077e-08)
(0.00106687 1.54752e-07 2.08307e-07)
(0.000798242 -9.6862e-08 4.89554e-08)
(0.000798898 -3.52978e-07 3.91231e-08)
(0.00106478 -6.45468e-09 2.09615e-07)
(0.000796782 -2.04224e-07 3.95246e-08)
(0.000797368 2.71656e-08 3.11233e-08)
(0.00106275 -2.02685e-07 1.77179e-07)
(0.000795321 -3.9185e-07 5.8021e-08)
(0.000795849 3.73022e-08 5.16213e-08)
(0.00106091 -3.26921e-07 1.67787e-07)
(0.00079334 -4.85551e-07 -3.33287e-08)
(0.000794292 -7.86684e-07 3.40826e-08)
(0.00105858 -7.9054e-07 2.60327e-07)
(0.000791775 -3.71888e-07 -1.24725e-07)
(0.000792854 5.93209e-07 -9.46821e-08)
(0.00105608 -6.03065e-07 1.50152e-07)
(0.000790536 -2.36327e-07 -4.86317e-08)
(0.000791453 1.51063e-07 6.25062e-08)
(0.00105438 -4.49629e-07 9.56105e-08)
(0.000789156 6.03087e-08 6.45481e-08)
(0.000790185 3.6318e-07 3.54181e-08)
(0.00105268 -2.33439e-07 9.62381e-08)
(0.000788142 3.0042e-07 1.05009e-07)
(0.000788786 -2.00717e-06 6.07386e-08)
(0.00105101 3.9575e-07 2.61701e-07)
(0.000786558 2.43255e-07 7.09426e-08)
(0.000787143 -1.35273e-06 6.07649e-08)
(0.00104941 4.61059e-07 2.52236e-07)
(0.000784994 1.26885e-07 4.0335e-08)
(0.00078561 1.42292e-07 4.74105e-08)
(0.00104725 2.09524e-07 1.69219e-07)
(0.000783552 1.06238e-07 3.79516e-08)
(0.000784146 -2.6073e-08 4.35763e-08)
(0.0010451 1.1825e-07 1.71454e-07)
(0.000782217 2.37626e-07 2.45917e-08)
(0.000782773 8.12567e-08 4.74305e-08)
(0.00104329 1.68649e-07 1.65432e-07)
(0.000780895 5.32987e-07 5.98662e-09)
(0.000781452 2.76522e-08 2.88831e-08)
(0.00104166 4.72745e-07 1.90306e-07)
(0.000778292 5.218e-07 3.9371e-09)
(0.000779641 -7.71389e-07 1.51662e-08)
(0.00103896 9.35815e-07 1.2024e-07)
(0.000777163 2.05706e-07 3.14008e-08)
(0.000777801 1.872e-07 1.61996e-08)
(0.00103638 4.7922e-07 1.58017e-07)
(0.000775936 -5.5164e-08 6.32209e-08)
(0.000776415 -1.58264e-07 1.19751e-08)
(0.00103492 1.11538e-07 1.69358e-07)
(0.000774255 -2.45427e-07 4.66487e-08)
(0.000774968 5.45461e-07 7.11287e-08)
(0.00103291 -2.37721e-07 1.58222e-07)
(0.000772809 -3.93787e-07 9.69577e-08)
(0.000773673 -3.99911e-07 5.68375e-08)
(0.00103079 -4.00476e-07 1.81925e-07)
(0.000772131 -2.72379e-07 1.15554e-07)
(0.000772718 1.82766e-07 1.40314e-07)
(0.00102955 -6.55305e-07 2.32721e-07)
(0.000770532 -3.11e-08 6.00235e-08)
(0.000771395 1.73833e-08 -1.8852e-08)
(0.00102793 -1.02459e-07 1.93319e-07)
(0.000769113 1.78718e-07 5.57129e-08)
(0.000769889 1.07299e-07 8.81817e-08)
(0.00102591 -4.84963e-08 1.76091e-07)
(0.000767507 2.18593e-07 5.27938e-08)
(0.000768337 -1.15698e-06 7.82192e-08)
(0.00102396 4.52482e-07 2.24282e-07)
(0.000766029 -7.20227e-09 -1.03457e-08)
(0.000766688 2.86779e-07 6.38238e-08)
(0.00102184 7.89121e-08 1.65898e-07)
(0.000764795 -1.38049e-07 1.87127e-08)
(0.000765232 1.03308e-07 -6.6344e-09)
(0.00101996 -1.53842e-07 1.25485e-07)
(0.000764248 -1.40336e-07 1.09592e-07)
(0.00101858 -2.57493e-07 2.29532e-07)
(0.00579127 0.00986167 0.000207878)
(-0.00451818 -0.000406627 -8.89158e-05)
(-0.00257298 -0.0113701 -0.00107339)
(-0.00211111 -0.00983094 -0.000152411)
(0.00274342 0.011009 0.000337506)
(-0.00451448 0.0121204 -0.000880489)
(-0.00409691 0.00971324 0.00195671)
(-0.00987675 0.015693 0.000271615)
(-0.0387884 0.0143709 -0.00352105)
(-0.0223363 0.00751775 0.000885552)
(-0.0577329 0.012939 0.00327066)
(-0.0232261 -0.00635606 0.000348558)
(-0.00518275 -0.0143604 -0.000328815)
(-0.00389288 -0.0224176 -0.00148781)
(-0.000331564 -0.0178088 0.00135227)
(0.000503116 -0.00623547 0.000907441)
(-0.00057743 -0.0120884 -0.000453974)
(-0.00139119 -0.0110621 0.000908958)
(0.0012678 -0.00858604 -0.000866409)
(0.000690501 -0.00557732 0.00182869)
(-0.00606785 0.0128901 0.000767583)
(-0.0170763 0.00678626 -0.000110528)
(-0.00818674 0.00706077 0.000603538)
(-0.00955263 0.0064377 0.0022279)
(0.00483422 -0.00047588 -0.000381514)
(-0.00513597 0.00160141 -0.000316949)
(-0.0101553 -0.00695282 -0.000350073)
(-0.0126119 -0.00279241 -0.000253175)
(-0.0138683 0.00403643 -0.000687934)
(-0.012199 -0.00095513 0.000756818)
(-0.00845538 0.00625217 -0.000233921)
(-0.00925225 0.00362741 -0.000291564)
(-0.0100402 -0.00602317 0.000169915)
(-0.00553297 -0.00255911 -0.000440441)
(0.00231683 -0.00593122 4.84921e-05)
(0.0015865 -0.00116752 0.000105723)
(0.00202145 -0.00838454 -0.000253291)
(0.00232532 -0.0051402 0.000453812)
(0.000919089 -0.000835068 5.64696e-05)
(0.00156986 -0.00038845 0.00010408)
(0.00101653 -0.000716881 8.70788e-05)
(0.00105545 -0.000621712 2.71123e-05)
(0.00086071 -0.00033491 6.21964e-05)
(0.000334276 -5.30309e-05 -8.74742e-07)
(0.000500204 -5.18006e-05 -3.28241e-06)
(0.000787066 -0.000113384 -5.04313e-07)
(0.000355774 -6.21949e-05 1.61647e-06)
(0.000618344 -0.000101595 4.23736e-06)
(0.000663941 -0.000119283 8.9706e-06)
(0.000466858 -7.20863e-05 -3.63403e-07)
(0.000334062 -4.95571e-05 -2.41513e-07)
(0.000613415 -9.69445e-05 5.33138e-06)
(0.000561551 -9.57663e-05 -2.27946e-06)
(0.000310022 -5.04712e-05 -2.04471e-06)
(0.000829928 -5.5591e-05 -1.35316e-06)
(0.000899768 -6.31286e-05 -2.00644e-06)
(0.00117283 -8.8485e-05 -1.21174e-06)
(0.000608487 -4.5592e-05 -4.03515e-06)
(0.000612426 -4.70232e-05 -4.7621e-06)
(0.00100818 -7.47994e-05 -5.0589e-06)
(0.00103238 -7.81412e-05 -5.64503e-06)
(0.000827582 -3.51512e-05 -1.34068e-07)
(0.000831205 -4.01108e-05 -4.15613e-07)
(0.0010911 -5.62669e-05 7.75982e-08)
(0.000824556 -2.20743e-05 9.30579e-08)
(0.000836081 -2.50496e-05 1.5339e-07)
(0.00110363 -3.5256e-05 2.02885e-07)
(0.00082207 -1.38928e-05 4.40761e-08)
(0.000827854 -1.56914e-05 2.88624e-08)
(0.00109661 -2.22047e-05 1.79563e-07)
(0.000819856 -8.74576e-06 5.38659e-08)
(0.000824154 -9.85976e-06 5.49457e-08)
(0.00109417 -1.39566e-05 1.83527e-07)
(0.000817778 -5.50432e-06 5.24742e-08)
(0.000820755 -6.18086e-06 5.03325e-08)
(0.00109119 -8.80662e-06 1.81957e-07)
(0.000815837 -3.43247e-06 5.25524e-08)
(0.000818035 -3.8306e-06 5.03544e-08)
(0.00108853 -5.52322e-06 1.81813e-07)
(0.000814071 -2.18206e-06 5.2738e-08)
(0.000815719 -2.3821e-06 5.04962e-08)
(0.00108608 -3.42481e-06 1.81629e-07)
(0.00081228 -1.45491e-06 8.30362e-08)
(0.000813659 -1.53884e-06 5.05473e-08)
(0.00108363 -2.27235e-06 1.78189e-07)
(0.00081105 -1.10485e-06 1.15463e-07)
(0.000811781 -1.96203e-06 8.29778e-08)
(0.00108172 -1.53113e-06 2.7084e-07)
(0.000809246 -8.34238e-07 7.89097e-08)
(0.000810167 1.58663e-07 7.80274e-08)
(0.00107971 -1.37888e-06 2.56292e-07)
(0.000807722 -6.06887e-07 4.09467e-08)
(0.000808542 -6.32725e-07 5.05755e-08)
(0.00107745 -8.25575e-07 1.77059e-07)
(0.000805869 -4.59245e-07 4.42682e-08)
(0.000806873 5.29741e-08 5.90204e-08)
(0.00107519 -7.59919e-07 1.99737e-07)
(0.000804602 -3.11508e-07 5.21837e-08)
(0.000805328 -5.36152e-07 4.88357e-08)
(0.00107315 -4.3272e-07 1.76145e-07)
(0.000802721 -2.81849e-07 2.69664e-08)
(0.000803685 -7.67994e-07 1.27305e-08)
(0.00107105 -3.82952e-07 2.20339e-07)
(0.00080126 -2.72008e-07 2.75816e-08)
(0.00080208 4.02946e-08 1.06317e-08)
(0.00106887 -3.51717e-07 1.68356e-07)
(0.000799755 -2.35911e-07 3.68103e-08)
(0.000800576 -2.2073e-07 1.65157e-07)
(0.00106685 -3.99871e-07 1.68799e-07)
(0.000797959 -1.74583e-07 2.12935e-08)
(0.000798976 3.27925e-07 2.80994e-08)
(0.00106449 -2.74533e-07 1.53568e-07)
(0.000796469 -1.27128e-07 4.32135e-08)
(0.000797428 -3.13351e-08 4.47432e-08)
(0.00106246 -1.87014e-07 1.78613e-07)
(0.000794856 -1.34277e-07 2.76884e-08)
(0.00079584 -3.86882e-08 5.80729e-08)
(0.00106023 -1.22401e-07 1.90922e-07)
(0.000793685 5.48213e-08 -2.72302e-08)
(0.000794528 5.24789e-07 -6.71297e-09)
(0.00105843 -1.961e-07 5.44317e-08)
(0.000792646 3.5206e-07 9.24995e-08)
(0.000793224 7.52579e-07 7.66408e-10)
(0.00105713 4.07522e-07 1.23946e-07)
(0.000790974 4.65809e-07 1.46565e-07)
(0.000791593 3.69886e-07 1.67483e-07)
(0.00105514 6.42669e-07 1.75924e-07)
(0.000789929 4.68743e-07 3.16007e-08)
(0.000790186 5.44009e-07 4.05412e-08)
(0.00105352 7.01959e-07 1.23113e-07)
(0.000787747 3.58781e-07 1.6495e-08)
(0.000788646 4.1476e-08 2.56076e-08)
(0.00105148 5.85633e-07 9.15321e-08)
(0.000786188 1.82182e-07 3.72371e-08)
(0.000786921 1.7414e-07 3.78377e-08)
(0.00104866 3.90103e-07 7.31319e-08)
(0.000784729 8.93828e-08 5.06531e-08)
(0.000785493 2.65186e-07 2.49103e-08)
(0.00104671 9.5764e-08 1.64366e-07)
(0.000783349 6.01578e-08 5.3054e-08)
(0.000784109 -1.67754e-07 4.84275e-08)
(0.00104494 1.09786e-07 1.76223e-07)
(0.000782012 -3.71413e-08 5.17277e-08)
(0.000782651 -3.68031e-08 5.88125e-08)
(0.00104307 4.26978e-08 1.70871e-07)
(0.000780479 -2.01673e-07 3.8067e-08)
(0.000781246 -5.93062e-08 4.92744e-08)
(0.00104116 -1.18191e-07 1.86342e-07)
(0.000778819 -1.53438e-07 2.74284e-08)
(0.000779702 -2.65778e-07 2.53358e-08)
(0.00103909 -3.73554e-07 1.55416e-07)
(0.000777122 -2.18765e-09 -3.22479e-09)
(0.000777991 8.17458e-07 3.38572e-08)
(0.00103676 -1.06818e-08 1.49933e-07)
(0.000775457 4.61266e-09 1.98647e-08)
(0.000776423 1.51122e-07 6.80272e-09)
(0.00103447 1.4384e-10 1.70179e-07)
(0.000774333 1.80366e-07 8.1322e-08)
(0.000775186 3.50692e-08 5.92936e-08)
(0.00103262 3.71209e-08 1.80799e-07)
(0.000773437 3.98768e-07 1.00168e-07)
(0.000773944 -2.15758e-06 4.94414e-08)
(0.00103133 5.04079e-07 2.50579e-07)
(0.000772272 3.73963e-07 5.95686e-09)
(0.000772685 5.27836e-07 1.86177e-08)
(0.00103 6.10398e-07 1.23005e-07)
(0.000770625 2.97216e-07 9.27348e-09)
(0.000771298 1.62986e-08 -3.33197e-08)
(0.00102808 4.49608e-07 1.91937e-07)
(0.000769212 2.9828e-07 1.10691e-07)
(0.000769889 2.19083e-08 8.17153e-08)
(0.00102614 4.25692e-07 1.77084e-07)
(0.000767405 3.65964e-07 8.92536e-08)
(0.000768419 -1.89449e-08 8.91873e-08)
(0.00102395 4.21415e-07 1.24039e-07)
(0.000765938 3.39894e-07 6.75565e-08)
(0.000766654 3.89094e-07 6.23026e-08)
(0.00102164 5.57672e-07 1.68688e-07)
(0.000764442 2.02661e-07 8.42098e-08)
(0.000765059 1.85317e-07 5.20214e-08)
(0.00101962 3.20995e-07 1.73e-07)
(0.000763995 -1.31777e-06 1.28841e-07)
(0.00101836 1.98014e-07 2.12559e-07)
(-0.00212746 0.00350093 -7.50422e-05)
(0.016202 -0.00745513 -0.000773047)
(-0.00301855 0.00278559 0.000813027)
(0.009572 0.00103962 0.00172525)
(-0.0120689 0.000865482 0.00418451)
(-0.00130521 -0.0117438 0.000545135)
(0.00169437 -0.032673 -0.000326808)
(-0.00424298 0.0102968 0.000239892)
(0.00234567 0.00211472 -0.00162948)
(-0.00741791 0.00928823 -0.000332445)
(0.00770196 0.0151938 -0.00126204)
(0.00591429 0.00181213 0.000488342)
(0.0105824 0.00945082 0.000721876)
(0.0026702 0.00458026 0.0004409)
(0.0104412 0.0113641 0.00259453)
(0.0193217 0.00433506 -5.09244e-05)
(0.00867464 0.0226156 -0.00148306)
(0.0315361 0.00567948 -0.000766801)
(0.0207441 -0.0011678 0.000740782)
(0.0370475 0.00317256 0.000929885)
(-0.00494832 0.00138203 0.000223034)
(-0.00851727 0.00160044 0.000136767)
(0.000323262 0.00350506 -0.000276373)
(-0.00188562 -0.000281583 2.05536e-05)
(-0.00316258 0.00468498 -0.000315907)
(0.00105569 0.00211059 -8.03165e-07)
(0.00394688 0.00299315 -0.000212977)
(0.00424988 8.71944e-05 0.000101852)
(0.00329309 0.00126328 2.9231e-05)
(0.00378575 0.000986322 3.15152e-05)
(-0.01028 0.00239233 7.4987e-05)
(-0.00150823 -0.00365445 0.000162944)
(0.000766331 -0.00135537 0.000106462)
(-0.00157109 -0.000937386 9.2015e-05)
(-0.00265724 -0.00115336 3.27175e-05)
(0.00111613 0.000443388 5.10229e-06)
(0.000712758 0.000241001 1.68956e-05)
(0.000187964 3.19895e-05 6.63801e-06)
(0.00106834 -9.72313e-05 3.75224e-05)
(0.000838518 -0.000167311 1.32365e-05)
(0.000473086 -0.000131166 2.79373e-05)
(0.000341736 -5.0291e-05 5.05003e-06)
(0.000390545 -4.58025e-05 1.12292e-05)
(0.000620312 -8.571e-05 1.55788e-05)
(0.000285261 -3.91479e-05 2.37379e-06)
(0.000861006 -4.37296e-05 -1.06941e-06)
(0.000939899 -3.80982e-05 -1.62536e-06)
(0.00122519 -6.99244e-05 -1.31358e-06)
(0.000650428 -5.75282e-05 -4.60407e-06)
(0.00064267 -5.45598e-05 -5.25117e-06)
(0.00109445 -0.000107942 -5.37415e-06)
(0.00107188 -0.000101736 -5.54936e-06)
(0.000847651 -2.73118e-05 -1.28341e-07)
(0.000851827 -2.4012e-05 -4.83172e-07)
(0.00112372 -4.40312e-05 7.90297e-08)
(0.000837168 -1.67976e-05 8.92355e-08)
(0.000849317 -1.43586e-05 1.54469e-07)
(0.00112434 -2.70242e-05 2.06782e-07)
(0.000829995 -1.04455e-05 3.97236e-08)
(0.000835852 -8.71579e-06 9.04371e-08)
(0.00110963 -1.66271e-05 1.78483e-07)
(0.000824805 -6.53734e-06 5.14138e-08)
(0.000829075 -5.43664e-06 1.32574e-07)
(0.00110232 -1.04942e-05 1.84238e-07)
(0.000820911 -3.98396e-06 4.82128e-08)
(0.000823969 -3.33342e-06 4.8155e-08)
(0.0010963 -6.47529e-06 1.81831e-07)
(0.000817809 -2.40593e-06 4.82981e-08)
(0.000820021 -1.95552e-06 4.01201e-08)
(0.00109177 -3.85994e-06 1.81171e-07)
(0.000815279 -1.50874e-06 4.83054e-08)
(0.000816848 -1.20955e-06 4.01481e-08)
(0.00108807 -2.37763e-06 1.80788e-07)
(0.000813096 -9.04767e-07 5.04784e-08)
(0.000814418 -7.86722e-07 4.83084e-08)
(0.00108504 -1.52929e-06 1.80388e-07)
(0.000810836 -6.06757e-07 4.55435e-08)
(0.000812157 -5.58984e-07 4.92404e-08)
(0.00108196 -8.04702e-07 1.42311e-07)
(0.000809537 -5.7669e-07 4.9702e-08)
(0.000810207 -4.04578e-07 4.94268e-08)
(0.00107967 -7.67673e-07 1.95549e-07)
(0.000807623 -5.47592e-07 6.86465e-08)
(0.00080858 -3.31611e-07 1.17091e-08)
(0.00107762 -7.50278e-07 1.89188e-07)
(0.000806334 -4.63516e-07 6.35912e-08)
(0.00080698 -1.16407e-07 7.1839e-08)
(0.00107545 -6.91112e-07 1.67814e-07)
(0.000804443 -4.13611e-07 9.39396e-09)
(0.000805393 -9.01567e-08 4.70218e-08)
(0.00107337 -5.26771e-07 1.77587e-07)
(0.000802962 -2.93884e-07 -3.60347e-09)
(0.000803836 7.02653e-07 1.40777e-08)
(0.00107109 -5.81805e-07 7.06629e-08)
(0.000801448 -1.55474e-07 1.48158e-07)
(0.000802254 1.18448e-07 6.37749e-08)
(0.00106898 -2.33186e-07 1.7072e-07)
(0.000799789 -7.01196e-08 1.56489e-07)
(0.000800683 -1.17312e-07 1.86122e-07)
(0.00106697 -2.56717e-07 1.81872e-07)
(0.000798402 1.09008e-07 5.15438e-08)
(0.0007992 -1.32505e-08 4.91769e-08)
(0.00106505 1.68547e-09 1.89352e-07)
(0.000796856 3.06463e-07 5.95985e-08)
(0.000797674 2.02077e-08 6.4923e-08)
(0.00106294 2.71525e-07 1.75878e-07)
(0.000795398 5.74183e-07 2.3692e-08)
(0.000796172 5.51682e-07 5.60383e-08)
(0.0010609 5.59253e-07 1.30376e-07)
(0.000794159 6.74989e-07 2.12813e-08)
(0.000794651 7.98998e-07 1.11696e-07)
(0.00105924 1.05502e-06 1.33588e-07)
(0.000792172 4.91318e-07 7.56979e-08)
(0.000792991 1.10726e-07 3.98413e-08)
(0.00105712 8.62153e-07 2.64234e-07)
(0.000790738 4.39644e-07 6.14999e-08)
(0.000791525 3.60337e-07 9.12598e-08)
(0.00105474 5.77486e-07 1.70897e-07)
(0.000789063 2.5937e-07 3.45528e-08)
(0.000789958 -7.63523e-07 3.23418e-08)
(0.00105261 7.45542e-07 2.84419e-07)
(0.000787657 -1.31196e-08 4.69465e-08)
(0.000788304 -8.40401e-08 1.0348e-07)
(0.00105061 7.60935e-08 1.76944e-07)
(0.000786248 -7.44678e-10 2.5515e-08)
(0.000786935 8.8828e-08 5.00119e-08)
(0.00104879 -4.09786e-08 1.74579e-07)
(0.000784904 1.91932e-08 2.26773e-08)
(0.000785518 -7.6981e-08 2.43888e-08)
(0.0010469 7.37311e-08 1.87197e-07)
(0.000783344 -4.17679e-08 5.41827e-08)
(0.000784033 -8.56612e-08 4.5471e-08)
(0.00104504 4.08713e-09 1.76294e-07)
(0.000781927 -1.40938e-07 5.63622e-08)
(0.000782528 -1.72634e-07 5.89437e-08)
(0.001043 -1.14688e-07 1.79274e-07)
(0.000780506 -2.70361e-07 3.65506e-08)
(0.000781085 -5.51047e-09 5.06765e-08)
(0.00104114 -2.66604e-07 1.66324e-07)
(0.000778898 -3.86257e-07 3.17619e-08)
(0.000779559 -4.42869e-07 3.50735e-08)
(0.0010391 -4.72038e-07 1.99676e-07)
(0.000777226 -2.88301e-07 4.38931e-08)
(0.000778114 1.27601e-06 6.62258e-08)
(0.00103685 -5.82076e-07 1.60021e-07)
(0.000776047 -2.78889e-08 4.62154e-08)
(0.000776749 -3.23584e-07 5.08281e-08)
(0.00103498 -1.84468e-07 1.82992e-07)
(0.000774885 2.78081e-07 2.74161e-08)
(0.000775568 3.91928e-08 8.70738e-08)
(0.00103354 1.37659e-07 1.47065e-07)
(0.000773132 4.22128e-07 -3.20998e-08)
(0.000774122 -6.8238e-07 1.62557e-08)
(0.0010315 6.24034e-07 9.43092e-08)
(0.000771792 2.28577e-07 -2.06429e-08)
(0.000772441 -1.00274e-06 -7.48692e-08)
(0.00102948 5.19457e-07 2.74817e-07)
(0.000770507 6.38566e-08 3.90869e-08)
(0.000771091 1.35827e-07 3.7398e-08)
(0.00102769 1.24015e-07 1.50265e-07)
(0.000769167 4.15801e-08 6.02093e-08)
(0.000769861 1.62761e-08 4.6118e-08)
(0.00102587 6.89003e-08 1.64604e-07)
(0.000767715 1.56448e-07 6.22445e-08)
(0.000768563 9.42551e-07 4.47279e-08)
(0.00102412 2.4536e-08 1.04624e-07)
(0.000765693 2.19462e-07 4.67707e-08)
(0.000766732 1.20066e-06 2.02937e-08)
(0.00102171 3.38487e-07 1.6748e-07)
(0.00076445 2.15511e-07 9.66296e-08)
(0.00076505 5.71611e-09 5.27176e-08)
(0.0010195 2.18306e-07 1.69073e-07)
(0.000763727 -1.40911e-06 9.86064e-08)
(0.00101793 3.57682e-07 1.9047e-07)
(0.016214 0.00842681 -0.000510093)
(0.0140694 0.0120131 0.00018961)
(0.00858356 0.00981566 -7.85617e-05)
(0.0128126 0.0223356 -0.00122654)
(-0.0140325 0.00238685 0.00207548)
(-0.0168148 -0.00125897 0.00206633)
(-0.00831775 0.00868586 0.00371029)
(-0.0168334 0.0111111 0.000779309)
(-0.0233399 -0.00138858 -6.19999e-05)
(-0.0204115 0.00751538 -0.00340613)
(-0.0066287 0.00714392 0.000880805)
(0.00291057 0.00509378 0.0012575)
(-0.000627872 0.00122833 -0.000536926)
(0.000490575 -0.00046031 -0.000427074)
(0.00817122 0.00474654 -0.000123328)
(0.0055417 0.0117991 0.000174701)
(0.00946687 0.0117593 -0.00135)
(-0.000896979 0.000381615 -6.37048e-05)
(0.0021082 -0.00346748 9.63671e-06)
(0.00176029 -0.00405102 -0.000226506)
(-0.00453701 -0.00131359 0.000119926)
(-0.000351216 -0.0046857 -1.78608e-06)
(-0.00113912 -0.00195874 -0.000107792)
(0.000706916 -0.00414209 0.00028778)
(-0.00553841 -0.00337868 -0.000136835)
(-0.00170954 -0.00201488 7.31052e-05)
(-0.00189592 0.000491866 0.000242346)
(-0.00880981 0.00077847 -9.45091e-05)
(0.00155579 -0.00233505 2.58286e-05)
(-0.0052363 -0.00206385 0.00060222)
(0.000666273 -0.00501299 -5.44353e-05)
(0.00277991 0.00181046 0.000325694)
(-3.67581e-05 0.000455113 -7.0082e-05)
(-0.002505 0.00167277 -5.32002e-05)
(-0.00558555 0.00158792 -0.00021351)
(0.00080847 -0.000445531 -3.78375e-06)
(0.000780461 -7.77583e-05 -7.20177e-05)
(0.000883941 -0.000538109 1.42382e-05)
(0.00027273 -0.000407068 2.51623e-05)
(-0.000127671 -0.000534214 2.3132e-05)
(0.000370263 -0.000896526 -2.40742e-05)
(4.86156e-05 -0.00122034 5.71983e-05)
(0.00159887 -0.000361352 8.20947e-05)
(0.000858426 6.57564e-05 1.17767e-05)
(0.00119278 0.000109331 3.39043e-05)
(-1.98277e-05 -0.000474062 -4.30665e-06)
(0.00046558 -8.03988e-05 6.41545e-05)
(0.000607232 -3.19847e-05 -5.48566e-06)
(0.000364696 -0.000256492 4.2335e-05)
(0.00148366 -3.59539e-05 1.95035e-05)
(0.000523361 -0.000116994 4.62286e-05)
(0.000536678 -0.000102367 4.87452e-05)
(0.000736614 -0.000132087 8.78231e-05)
(0.000432547 -7.03502e-05 2.50818e-05)
(0.000884802 -1.41671e-05 -1.03949e-06)
(0.000959077 5.87836e-06 -1.5327e-06)
(0.00127752 -2.24558e-05 -1.28516e-06)
(0.000679107 -2.2872e-05 -5.23656e-06)
(0.000676431 -5.35279e-06 -5.05352e-06)
(0.0011303 -4.47409e-05 -5.01211e-06)
(0.00113056 -4.28195e-06 -1.05682e-06)
(0.000861077 -8.54867e-06 -2.0057e-07)
(0.000858968 5.31761e-06 -5.32136e-07)
(0.00114495 -1.41253e-05 6.39363e-08)
(0.000845194 -4.94615e-06 1.55692e-07)
(0.00085385 3.10147e-06 1.57289e-07)
(0.00113813 -7.88529e-06 2.07637e-07)