/*--------------------------------*- C++ -*----------------------------------*\
| =========                 |                                                 |
| \\      /  F ield         | OpenFOAM: The Open Source CFD Toolbox           |
|  \\    /   O peration     | Version:  5.0                                   |
|   \\  /    A nd           | Web:      www.OpenFOAM.org                      |
|    \\/     M anipulation  |                                                 |
\*---------------------------------------------------------------------------*/
FoamFile
{
    version     2.0;
    format      ascii;
    class       surfaceVectorField;
    location    "3.8";
    object      Uf_0;
}
// * * * * * * * * * * * * * * * * * * * * * * * * * * * * * * * * * * * * * //

dimensions      [0 1 -1 0 0 0 0];

internalField   nonuniform List<vector> 
27955
(
(0.0104381 0.000757195 0.000309587)
(0.00485341 0.000872766 -6.91083e-05)
(-0.0064995 -0.00278512 -0.000503013)
(0.00133938 0.00359581 -0.000664058)
(0.0174563 -0.015492 0.00341308)
(0.0021119 -0.00611675 0.000764973)
(0.00886645 0.0118138 0.0315)
(-0.00221376 -0.00568711 -0.00868296)
(0.00269503 -0.010595 -0.023187)
(-0.0139618 -0.010502 -0.000212527)
(-0.00596846 -0.00399294 0.000915595)
(-0.00753815 -0.00208773 0.000953553)
(0.00857603 0.00523909 -0.000342505)
(0.0152685 -0.00131605 -0.0021737)
(-0.0132016 -0.00265059 0.00138339)
(0.00365614 -0.00437087 -0.0015018)
(0.0181782 0.00315086 0.00556857)
(-0.00825936 -0.00783766 -0.00063224)
(0.00144892 -0.00560137 -0.000806727)
(0.0127146 -0.000926678 -0.00230659)
(-0.000923682 0.0100185 -0.0106602)
(0.0315435 0.0190503 0.00402706)
(0.0248314 0.00775245 0.00100357)
(-0.0217907 -0.0219697 -0.0198286)
(-0.0293672 -0.00790751 -0.0106334)
(-0.0135793 -0.0144714 0.0306357)
(-0.00334977 -0.0193712 -0.00751209)
(0.00308418 0.012711 -0.00100866)
(-0.00854163 0.0156226 -0.000497118)
(0.00272531 0.00989418 -0.000508443)
(0.00160729 0.0126451 0.00273683)
(-0.000434397 0.0113717 -0.0155611)
(0.00244958 0.00813704 0.0126966)
(-0.000329977 0.0188216 -0.00290725)
(0.000678359 0.00315042 -3.09377e-06)
(-0.00349502 0.000536419 0.000151075)
(-0.00202053 0.000479981 8.61143e-05)
(-0.00415261 -0.000463884 0.000509976)
(0.00100936 -5.35577e-05 3.3565e-06)
(0.000396375 -5.70743e-05 3.74256e-05)
(0.000481938 -8.09303e-05 6.21839e-05)
(0.000323377 -2.75709e-05 1.87252e-05)
(0.000780789 -5.1045e-05 -1.17415e-06)
(0.000529139 -6.32045e-05 -1.54424e-06)
(0.00106946 -0.00010275 -1.35665e-06)
(0.000529821 -5.56319e-05 -4.51845e-06)
(0.000552002 -5.94601e-05 -4.16932e-06)
(0.000896908 -9.27277e-05 -6.40228e-06)
(0.000946886 -9.63787e-05 -2.23361e-06)
(0.000535668 -6.87015e-05 -3.83208e-06)
(0.00088807 -0.000100496 -9.88155e-07)
(0.000900696 -0.000110875 -4.59026e-06)
(0.000783913 -2.2707e-05 -9.17191e-08)
(0.000809073 -2.83601e-05 -6.26503e-07)
(0.00104217 -2.95099e-05 6.48706e-08)
(0.000794056 -1.74008e-05 5.62474e-08)
(0.00078898 -2.84202e-05 -1.555e-07)
(0.00105498 -2.81486e-05 1.7756e-07)
(0.000799534 -1.05899e-05 7.95848e-08)
(0.000802208 -1.71391e-05 1.41348e-07)
(0.00106494 -1.63037e-05 1.76226e-07)
(0.000803652 -6.76623e-06 3.03788e-08)
(0.000804577 -1.13068e-05 5.15389e-08)
(0.00107035 -1.07107e-05 1.78464e-07)
(0.000805879 -4.0835e-06 4.18573e-08)
(0.000806985 -7.22406e-06 3.20448e-08)
(0.00107454 -6.58202e-06 1.8837e-07)
(0.00080626 -2.42768e-06 6.54411e-08)
(0.000807499 -4.65819e-06 6.54606e-08)
(0.00107592 -3.84312e-06 1.71456e-07)
(0.000806077 -1.46508e-06 1.14183e-07)
(0.000807179 -2.86183e-06 5.04434e-08)
(0.00107577 -2.34293e-06 1.82771e-07)
(0.000805727 -9.1101e-07 1.15148e-07)
(0.000806512 -2.20954e-06 1.24577e-07)
(0.00107534 -1.40558e-06 1.86577e-07)
(0.000804911 -5.08202e-07 5.88851e-08)
(0.000805603 -1.14782e-06 5.25706e-08)
(0.00107451 -9.33286e-07 1.79723e-07)
(0.000803207 -2.70311e-07 5.75051e-08)
(0.000804299 -7.69803e-07 6.71294e-08)
(0.00107284 -3.69413e-07 1.43592e-07)
(0.000801892 -2.83549e-07 1.2161e-07)
(0.000802764 -9.63244e-07 4.64092e-08)
(0.0010707 -3.31017e-07 1.94402e-07)
(0.00080075 -3.20122e-07 1.26692e-07)
(0.000801442 -3.04946e-07 1.09835e-07)
(0.00106904 -4.08977e-07 2.75233e-07)
(0.000799565 -2.41268e-07 6.76755e-08)
(0.000800203 -1.80526e-07 6.90272e-08)
(0.00106758 -4.02269e-07 2.20451e-07)
(0.000798034 -1.32399e-07 6.12306e-08)
(0.000798782 -5.59646e-07 6.19342e-08)
(0.00106572 -1.63516e-07 1.99452e-07)
(0.000796326 -9.83481e-09 4.43263e-08)
(0.000797259 1.47623e-07 6.42558e-08)
(0.00106349 -1.11056e-07 1.72356e-07)
(0.000794873 1.31652e-07 4.29668e-08)
(0.000795765 -8.39401e-08 3.49109e-08)
(0.00106143 1.39364e-07 1.79059e-07)
(0.000793268 2.22289e-07 4.49492e-08)
(0.00079421 -1.01973e-08 8.69695e-09)
(0.00105943 2.6188e-07 2.03958e-07)
(0.000792284 1.62952e-07 4.62748e-08)
(0.000792677 -1.9356e-06 2.84737e-08)
(0.00105767 3.93018e-07 2.71782e-07)
(0.00079065 3.1609e-08 4.8051e-08)
(0.000791191 1.95864e-07 3.91037e-08)
(0.00105584 9.8389e-08 1.68784e-07)
(0.000789367 3.04045e-08 9.41492e-08)
(0.000789862 -1.93688e-07 4.91275e-08)
(0.0010541 1.46057e-08 1.82264e-07)
(0.000786968 -1.06891e-07 9.09036e-08)
(0.000788081 1.35457e-06 1.05267e-07)
(0.00105152 7.36136e-08 2.04477e-07)
(0.000785754 -4.97635e-07 -9.66727e-09)
(0.000786195 -5.24683e-07 4.9983e-08)
(0.00104901 -3.80594e-07 1.74501e-07)
(0.00078429 -6.79311e-07 -2.52177e-08)
(0.000784962 2.11073e-06 3.90932e-08)
(0.0010474 -9.81983e-07 -2.17663e-08)
(0.000782654 -5.69876e-07 4.34079e-08)
(0.000783621 1.02851e-06 3.28929e-08)
(0.00104516 -8.48269e-07 8.60386e-08)
(0.000781798 -4.48537e-07 6.44705e-08)
(0.000782302 6.54451e-08 1.30091e-07)
(0.00104353 -6.64901e-07 1.60954e-07)
(0.000780284 -1.78184e-07 5.10682e-08)
(0.000781246 -3.3509e-07 1.46381e-07)
(0.00104211 -4.67865e-07 1.83835e-07)
(0.000778728 7.56144e-08 5.22974e-08)
(0.000779677 -1.51407e-08 4.74117e-08)
(0.00104007 6.89848e-08 1.8468e-07)
(0.000776977 5.64941e-08 4.53351e-08)
(0.000777856 -1.10995e-07 4.43232e-08)
(0.00103781 1.84713e-07 1.16601e-07)
(0.000775619 5.19607e-08 2.2817e-08)
(0.000776433 4.91381e-08 3.90526e-08)
(0.00103566 4.92095e-09 1.70006e-07)
(0.000774209 2.28053e-07 2.81843e-08)
(0.000775058 1.61666e-07 3.38452e-08)
(0.00103374 1.74799e-07 1.64107e-07)
(0.000772623 3.88832e-07 6.13324e-08)
(0.000773554 3.08746e-07 3.78429e-08)
(0.00103182 5.02722e-07 1.82692e-07)
(0.000771808 2.54645e-07 5.31301e-08)
(0.000772135 -1.07107e-06 1.04299e-07)
(0.00103035 5.74116e-07 1.9026e-07)
(0.000770213 2.04526e-08 4.79102e-08)
(0.00077074 1.37233e-07 4.30455e-08)
(0.00102865 1.07514e-07 1.60477e-07)
(0.000768866 -2.59638e-07 3.578e-08)
(0.000769221 -7.04803e-08 5.62219e-08)
(0.00102656 -3.44124e-08 1.5468e-07)
(0.000767332 -3.78417e-07 1.22683e-07)
(0.000767946 1.53579e-06 3.66196e-08)
(0.00102491 -6.23548e-07 3.73537e-08)
(0.000765795 -2.5335e-07 1.42833e-07)
(0.000766624 -4.94538e-07 1.47301e-07)
(0.0010227 -3.62399e-07 1.9332e-07)
(0.00076438 -2.31043e-07 5.41836e-08)
(0.000765131 -2.81206e-07 4.83991e-08)
(0.00102069 -3.20398e-07 1.89996e-07)
(0.000763034 -2.46834e-07 6.03993e-08)
(0.00076371 -1.75702e-08 5.96276e-08)
(0.0010189 -3.22272e-07 1.6761e-07)
(0.000761678 -3.74589e-07 4.9812e-08)
(0.000762321 -1.4114e-07 6.27231e-08)
(0.00101701 -3.31391e-07 1.69324e-07)
(0.000760281 -3.9009e-07 9.95318e-09)
(0.000761002 -3.96963e-07 4.54637e-08)
(0.00101539 -6.14507e-07 1.72505e-07)
(0.000758457 -2.56876e-07 2.96624e-08)
(0.00075936 1.23799e-06 3.07522e-08)
(0.00101311 -3.97641e-07 8.06436e-08)
(0.000757966 -5.01304e-07 5.41922e-08)
(0.00101072 -3.02876e-07 2.62735e-07)
(-0.00863817 -0.00528026 -0.000385846)
(-0.00904233 -0.0202737 0.000418238)
(-0.000143715 -0.0152811 0.00203209)
(-0.00305206 -0.00117417 0.000568172)
(-0.0074784 0.00803163 0.00335217)
(0.00526101 0.00232298 -0.000992953)
(0.0240908 0.00873486 -0.00174355)
(0.0228719 0.00263316 0.00228502)
(0.00767952 0.0191358 0.00265824)
(0.00767952 0.0191358 0.00265824)
(0.00767952 0.0191358 0.00265824)
(0.00767952 0.0191358 0.00265824)
(-0.00284531 -0.00624885 -0.000626567)
(-0.00339591 -0.00385974 0.00191704)
(0.0195764 -0.00282513 -0.000149631)
(0.00616963 -0.00266139 -0.00192289)
(0.0108558 -0.00623624 -0.00161379)
(0.00453233 -0.0115414 0.000155721)
(0.0252634 -0.00738045 0.00182628)
(0.00312329 -0.039206 0.00169019)
(-0.0421394 -0.0478855 -0.00326017)
(0.0167774 -0.0219838 0.000572482)
(-0.019217 0.00532677 -0.000338942)
(-0.00994222 0.00813138 -0.000507707)
(-0.0121367 0.0104955 -0.000536151)
(-0.0225725 0.00737153 -0.000210655)
(-0.00829847 0.00269959 -0.000172751)
(0.00279934 0.0133412 9.6375e-05)
(-0.00211237 0.00813089 0.00020595)
(-0.00272184 0.00471566 6.80855e-05)
(-0.00279837 0.00465771 0.000165944)
(-0.00330372 0.00162467 0.000636037)
(0.000512121 0.000120729 4.43691e-05)
(0.000462749 -0.000102924 1.89676e-05)
(0.000630689 -3.35687e-05 -4.12555e-07)
(0.000586043 6.31904e-05 -1.46244e-05)
(0.000630089 -4.95545e-05 7.62281e-06)
(0.000425915 -6.80838e-05 -4.5409e-08)
(0.000445782 -5.46574e-05 -3.13112e-06)
(0.000425006 -6.75633e-05 -3.1717e-07)
(0.000664869 -8.23284e-05 -1.36652e-06)
(0.000794662 -3.75917e-05 -6.90438e-07)
(0.000859353 -5.94574e-05 -1.64362e-06)
(0.00112342 -5.07086e-05 -9.12143e-07)
(0.000559615 -5.08422e-05 -3.46772e-06)
(0.000580476 -5.29325e-05 -4.7613e-06)
(0.000928443 -9.32018e-05 -4.22606e-06)
(0.00096484 -9.64537e-05 -6.10301e-06)
(0.000803019 -2.76208e-05 -7.04964e-08)
(0.000801488 -3.93345e-05 -3.86284e-07)
(0.00105402 -4.3214e-05 7.34313e-08)
(0.000806876 -1.73017e-05 1.13332e-07)
(0.000815188 -2.42903e-05 1.66837e-07)
(0.00107771 -2.65374e-05 2.03704e-07)
(0.000808579 -1.10983e-05 5.32113e-08)
(0.000812383 -1.53646e-05 3.87052e-08)
(0.00107775 -1.72115e-05 1.76605e-07)
(0.000808949 -7.10701e-06 5.56372e-08)
(0.000812007 -9.66023e-06 5.75985e-08)
(0.00107948 -1.09044e-05 1.80321e-07)
(0.000808528 -4.56024e-06 5.04678e-08)
(0.000810703 -6.10683e-06 5.07042e-08)
(0.00107917 -7.14314e-06 1.80512e-07)
(0.000807733 -2.83899e-06 6.08133e-08)
(0.000809344 -3.83626e-06 5.09124e-08)
(0.00107827 -4.47545e-06 1.80093e-07)
(0.000806402 -1.76231e-06 6.20223e-08)
(0.000807866 -2.29712e-06 6.13251e-08)
(0.00107681 -2.78646e-06 1.65409e-07)
(0.000805207 -1.18149e-06 6.08102e-08)
(0.000806335 -1.72685e-06 5.11008e-08)
(0.00107513 -1.74708e-06 1.87697e-07)
(0.000803717 -7.08391e-07 5.60402e-08)
(0.000804894 -1.77997e-06 4.38133e-08)
(0.00107332 -1.31436e-06 2.43254e-07)
(0.000802336 -3.08987e-07 3.4613e-08)
(0.000803266 -1.2688e-06 -1.51421e-08)
(0.00107134 -5.51015e-07 1.8545e-07)
(0.000800866 -1.41574e-07 5.21832e-08)
(0.000801653 -4.25132e-07 3.2101e-08)
(0.00106943 -2.75117e-07 1.80639e-07)
(0.000799491 -1.05771e-07 6.32881e-08)
(0.000800249 -1.65734e-08 5.91983e-08)
(0.00106757 -7.76006e-08 1.52802e-07)
(0.000798021 -8.70551e-08 6.49586e-08)
(0.000798805 -2.54912e-07 4.78991e-08)
(0.0010656 -1.672e-07 1.51463e-07)
(0.000796711 1.20119e-08 5.48497e-08)
(0.000797383 -5.8537e-07 9.73258e-08)
(0.00106376 3.81241e-09 2.10076e-07)
(0.000795084 2.49866e-07 6.49416e-10)
(0.000796061 7.29327e-08 2.83445e-08)
(0.00106188 1.11765e-07 1.75701e-07)
(0.000793571 2.63476e-07 -7.78482e-09)
(0.000794226 2.42183e-07 2.33178e-08)
(0.00105975 5.83651e-07 1.59342e-07)
(0.000791619 -4.83672e-08 2.12992e-08)
(0.000792287 -1.69521e-07 1.87411e-08)
(0.00105739 1.10578e-07 9.18541e-08)
(0.00079034 -2.4615e-07 4.0177e-08)
(0.000790945 -6.54227e-08 4.50125e-08)
(0.00105523 -2.24876e-07 1.75055e-07)
(0.000788827 -6.12504e-07 6.02279e-08)
(0.000789406 -2.22064e-07 5.6851e-08)
(0.00105346 -4.07681e-07 1.79453e-07)
(0.000787115 -7.56738e-07 6.43641e-08)
(0.000787904 1.44012e-06 1.63028e-08)
(0.00105128 -1.23165e-06 1.89101e-07)
(0.000785285 -5.87802e-07 9.87469e-08)
(0.000786409 -4.08948e-07 6.59946e-08)
(0.00104878 -7.94088e-07 1.97427e-07)
(0.000784415 -4.7479e-07 9.72057e-08)
(0.000785105 -5.27031e-08 1.1409e-07)
(0.00104711 -7.53697e-07 2.73983e-07)
(0.000783176 -7.57469e-08 1.19546e-07)
(0.00078412 -1.54511e-07 5.95759e-08)
(0.00104575 -4.80587e-07 2.37573e-07)
(0.000781717 2.54108e-07 2.11997e-07)
(0.000782714 5.51899e-07 2.37235e-07)
(0.00104388 3.45527e-07 1.38697e-07)
(0.000780914 1.22943e-07 1.42756e-07)
(0.00078108 8.96129e-07 1.8863e-07)
(0.00104249 4.33981e-07 2.75842e-08)
(0.000778635 -1.75172e-08 3.94384e-08)
(0.000779501 9.74526e-07 -5.43326e-08)
(0.00104036 -2.92972e-08 1.76037e-07)
(0.000777218 8.86264e-08 3.80424e-08)
(0.000777988 -1.1005e-07 4.22914e-08)
(0.00103779 2.2718e-08 1.69688e-07)
(0.000775968 1.87087e-07 5.00825e-08)
(0.000776555 -2.2831e-07 4.79189e-08)
(0.00103608 2.24397e-07 1.74902e-07)
(0.000774411 2.72287e-07 4.35026e-08)
(0.000775163 1.7973e-07 5.13448e-08)
(0.0010343 2.98956e-07 1.81258e-07)
(0.000773001 4.25913e-07 8.07887e-08)
(0.000773744 3.67512e-07 3.60104e-08)
(0.00103223 4.99311e-07 1.65215e-07)
(0.000771091 3.53544e-07 9.42331e-08)
(0.000772043 -7.09814e-07 8.13635e-08)
(0.00102992 6.86805e-07 1.88558e-07)
(0.000769785 9.96879e-08 5.13531e-08)
(0.000770421 -8.54051e-10 5.4729e-08)
(0.00102788 2.49867e-07 1.70341e-07)
(0.000768198 -1.33468e-07 5.70675e-08)
(0.00076893 1.28035e-07 4.51514e-08)
(0.0010259 -1.27765e-08 1.71399e-07)
(0.000767325 -3.30149e-07 6.12035e-08)
(0.000767702 4.45105e-07 1.06083e-07)
(0.0010242 -3.64685e-07 2.00375e-07)
(0.000765937 -2.423e-07 5.28974e-08)
(0.000766735 -8.53352e-08 7.9148e-08)
(0.00102287 -5.51675e-07 1.38515e-07)
(0.000764469 -1.09835e-07 5.38397e-08)
(0.000765298 -4.16969e-08 5.97702e-08)
(0.0010209 -1.43979e-07 1.58152e-07)
(0.000762957 -4.02746e-08 6.19505e-08)
(0.000763797 8.89824e-08 5.52381e-08)
(0.00101891 -1.89955e-07 1.72048e-07)
(0.000761658 -5.14776e-08 5.83801e-08)
(0.000762308 3.45101e-07 6.08602e-08)
(0.00101709 7.99215e-08 1.25201e-07)
(0.000760208 -2.57525e-07 6.62672e-08)
(0.000760745 -4.01217e-07 6.23209e-08)
(0.00101519 -1.75061e-07 1.74793e-07)
(0.000758622 -3.06948e-07 5.52749e-08)
(0.000759301 4.04573e-07 7.31043e-08)
(0.00101308 -4.74759e-07 2.48053e-07)
(0.000758349 8.78511e-08 5.33899e-08)
(0.00101173 -3.27147e-07 7.87542e-08)
(0.00774247 0.0133294 0.000210557)
(0.00301644 0.000356415 8.88926e-05)
(-0.00436701 -0.0138511 -0.00132057)
(-0.00276885 -0.0103331 -0.000159543)
(0.00474458 0.0106269 -0.000206263)
(-0.00656795 0.0143727 -0.00172764)
(-0.00280656 0.00859373 -0.000318913)
(-0.0159339 0.0108848 0.000408893)
(-0.013746 0.0109373 -0.00056269)
(-0.0293944 0.00856014 0.000348354)
(-0.031625 0.0178197 0.000350487)
(-0.0109664 -0.00284109 0.000574308)
(-0.00317764 -0.01243 -0.000337503)
(-0.00209399 -0.0163893 -0.0010339)
(0.00154185 -0.0133613 0.000981224)
(0.000861901 -0.00331037 0.000857555)
(0.000910729 -0.00857259 -0.000470227)
(0.000386119 -0.00983427 0.000820707)
(0.0042583 -0.00615999 -0.00127934)
(0.00270179 -0.00257297 0.00138204)
(-0.00652905 0.0131621 0.000748709)
(-0.0188763 0.00658966 -0.000143656)
(-0.00796425 0.00771762 0.000593456)
(-0.0110233 0.00677867 0.00242853)
(0.00573619 -0.00107548 -0.000260267)
(-0.0058934 0.00101038 -0.000126958)
(-0.0102577 -0.00640081 -0.000322742)
(-0.0133656 -0.00356823 -0.000309375)
(-0.0136413 0.0036089 -0.00074274)
(-0.00994493 0.000454274 0.000751682)
(-0.00750766 0.00578247 -0.000216743)
(-0.0101429 0.00461065 -0.000514999)
(-0.00852428 -0.0053235 0.000277514)
(-0.00368032 0.000280421 -0.000469681)
(0.00254736 -0.00324225 0.000122712)
(0.00183205 0.000494275 0.00015292)
(0.00236942 -0.00819603 -0.000244796)
(0.00238807 -0.0014234 0.000631078)
(0.000897218 -0.000839869 5.79722e-05)
(0.00152713 -0.000341893 0.000103091)
(0.00100895 -0.000719449 8.75646e-05)
(0.00102435 -0.000600763 2.97105e-05)
(0.000847328 -0.000343395 6.24554e-05)
(0.000330534 -5.58732e-05 -9.04465e-07)
(0.000497539 -5.30516e-05 -3.32919e-06)
(0.000780389 -0.000107755 -7.79489e-07)
(0.000353993 -6.49955e-05 1.56521e-06)
(0.000612264 -0.000103602 4.17149e-06)
(0.000659771 -0.000119701 8.58707e-06)
(0.000461691 -7.36017e-05 -4.23691e-07)
(0.000336485 -5.03941e-05 -3.35711e-07)
(0.000607467 -9.4853e-05 4.75967e-06)
(0.000563335 -9.25717e-05 -2.16075e-06)
(0.000315964 -5.11096e-05 -2.03065e-06)
(0.000825991 -5.05982e-05 -1.33987e-06)
(0.000896469 -5.74625e-05 -1.92755e-06)
(0.0011714 -7.84741e-05 -1.20495e-06)
(0.000607223 -4.4859e-05 -4.00344e-06)
(0.000610909 -4.47919e-05 -4.72768e-06)
(0.00100649 -6.9511e-05 -4.99073e-06)
(0.0010261 -6.97541e-05 -5.48879e-06)
(0.000822778 -3.16186e-05 -1.49131e-07)
(0.0008255 -3.57306e-05 -4.28559e-07)
(0.00108527 -4.93792e-05 7.04112e-08)
(0.000819156 -1.96933e-05 9.2252e-08)
(0.000830193 -2.20574e-05 1.54051e-07)
(0.00109764 -3.06953e-05 2.01966e-07)
(0.000816251 -1.23181e-05 4.30863e-08)
(0.000821664 -1.36879e-05 2.82767e-08)
(0.00109002 -1.92462e-05 1.78834e-07)
(0.00081375 -7.70839e-06 5.26677e-08)
(0.000817808 -8.53605e-06 5.42181e-08)
(0.00108721 -1.20361e-05 1.82489e-07)
(0.000811538 -4.8416e-06 5.11487e-08)
(0.000814312 -5.32127e-06 4.95736e-08)
(0.00108401 -7.56525e-06 1.80728e-07)
(0.000809536 -3.07086e-06 5.14209e-08)
(0.000811573 -3.31038e-06 4.98102e-08)
(0.00108125 -4.76072e-06 1.80428e-07)
(0.00080776 -1.9614e-06 5.04069e-08)
(0.000809263 -2.08748e-06 5.02747e-08)
(0.00107877 -3.06015e-06 1.83e-07)
(0.000806021 -1.25567e-06 3.41063e-08)
(0.000807224 -1.36963e-06 4.85229e-08)
(0.00107637 -1.94559e-06 1.70016e-07)
(0.000804539 -9.05187e-07 -2.735e-08)
(0.000805337 -1.41533e-06 1.86231e-08)
(0.00107434 -1.28231e-06 1.47555e-07)
(0.000802458 -6.23947e-07 -1.76693e-08)
(0.000803621 4.74709e-08 -1.58709e-08)
(0.00107201 -1.09088e-06 1.3389e-07)
(0.000801013 -3.49748e-07 3.91074e-08)
(0.000801998 -4.81031e-07 2.98572e-08)
(0.00106964 -5.79529e-07 1.73996e-07)
(0.00079961 -2.23447e-07 4.3813e-08)
(0.000800408 -4.43212e-07 5.29606e-08)
(0.00106771 -3.81354e-07 1.96217e-07)
(0.000798105 -1.80692e-07 8.02505e-08)
(0.00079886 -2.89466e-07 4.86151e-08)
(0.00106582 -2.4106e-07 1.78129e-07)
(0.000796726 -2.7715e-07 7.08426e-08)
(0.000797263 2.07635e-07 8.01455e-08)
(0.00106383 -2.29682e-07 1.09682e-07)
(0.000795519 -5.58559e-07 5.10146e-08)
(0.00079571 -5.73246e-07 4.51848e-08)
(0.00106215 -4.55663e-07 1.95202e-07)
(0.000792664 -5.83441e-07 4.98452e-08)
(0.000794196 9.13869e-07 3.9873e-08)
(0.00105943 -9.51198e-07 2.47333e-07)
(0.000791535 -3.29306e-07 4.2446e-08)
(0.000792606 -6.48141e-07 2.93179e-08)
(0.00105666 -5.15704e-07 1.76963e-07)
(0.000790206 -2.09802e-07 6.16828e-08)
(0.000791095 -2.1157e-07 5.94102e-08)
(0.0010552 -2.88711e-07 1.71368e-07)
(0.00078831 -1.60502e-07 1.29388e-08)
(0.000789468 -2.59307e-07 7.47979e-08)
(0.00105284 -2.07278e-07 2.13681e-07)
(0.000787372 9.26331e-08 1.79176e-08)
(0.00078822 -7.19681e-07 2.52227e-08)
(0.00105105 -1.6545e-07 2.79177e-07)
(0.000785929 5.24153e-07 8.13224e-08)
(0.000786947 -1.08687e-06 6.72065e-08)
(0.00104961 4.62662e-07 2.19371e-07)
(0.000784955 6.96081e-07 7.64772e-08)
(0.000785317 -1.08261e-06 4.65486e-08)
(0.0010478 9.6846e-07 2.03018e-07)
(0.000783727 5.4833e-07 1.77209e-07)
(0.000783933 -1.95699e-06 2.35027e-08)
(0.00104654 8.96555e-07 2.80528e-07)
(0.000782054 4.16192e-07 2.13883e-07)
(0.000782547 4.11988e-07 1.68069e-07)
(0.00104467 5.72577e-07 2.02227e-07)
(0.000779695 1.91485e-07 -8.38265e-09)
(0.000780798 1.17824e-07 9.39489e-08)
(0.00104163 5.24941e-07 3.08807e-07)
(0.000778803 3.42196e-08 -5.15097e-08)
(0.000779304 1.27103e-07 -5.48137e-08)
(0.00103955 -2.61161e-08 1.83377e-07)
(0.000777326 9.70267e-08 5.21662e-08)
(0.000778066 -8.74901e-08 5.01964e-08)
(0.00103812 1.05594e-07 1.73478e-07)
(0.00077574 5.22698e-08 4.91802e-08)
(0.000776499 -2.59724e-08 1.26777e-07)
(0.001036 1.38348e-07 1.70568e-07)
(0.000774436 -2.74219e-09 4.38574e-08)
(0.000775094 2.70743e-08 4.93317e-08)
(0.00103408 -4.08326e-10 1.70926e-07)
(0.000772998 -6.60954e-08 3.65711e-08)
(0.000773665 4.06995e-07 3.22957e-08)
(0.0010323 -2.56974e-08 1.69106e-07)
(0.00077118 -3.81803e-08 4.18677e-08)
(0.000772078 -4.91838e-07 1.81608e-08)
(0.00103003 -1.55611e-07 1.90651e-07)
(0.000769691 1.07712e-07 4.85303e-08)
(0.000770604 -1.48794e-07 4.86998e-09)
(0.00102777 5.40814e-08 1.87464e-07)
(0.000768184 3.18247e-07 9.41486e-08)
(0.000769192 1.74857e-07 8.67818e-08)
(0.00102579 2.19712e-07 1.75103e-07)
(0.000767232 3.90159e-07 1.24036e-07)
(0.00076779 4.99906e-07 1.19599e-07)
(0.00102424 6.45095e-07 1.24652e-07)
(0.000766201 2.6642e-07 8.60267e-08)
(0.000766578 -1.48095e-06 3.37558e-08)
(0.00102298 4.57414e-07 2.36983e-07)
(0.000764587 2.21835e-07 6.117e-08)
(0.000765241 -7.99388e-08 4.2187e-08)
(0.00102115 3.58262e-07 1.91617e-07)
(0.000763117 2.80886e-07 5.41461e-08)
(0.000763869 -7.05469e-08 4.74387e-08)
(0.00101918 3.41021e-07 1.87547e-07)
(0.000761395 2.51528e-07 6.48005e-08)
(0.000762269 2.3062e-07 7.10678e-08)
(0.00101703 4.64147e-07 2.07542e-07)
(0.000759831 1.23191e-07 6.91547e-08)
(0.000760584 -4.85911e-08 4.778e-08)
(0.00101469 2.47995e-07 1.5903e-07)
(0.00075882 8.53752e-08 7.12253e-08)
(0.000759252 -2.10138e-07 5.2442e-08)
(0.00101293 1.22029e-07 1.79611e-07)
(0.000758242 1.47135e-07 6.68219e-08)
(0.00101172 1.17461e-07 1.56648e-07)
(-0.0189716 0.00045436 0.000311259)
(0.0138254 -0.00523705 0.000124724)
(-0.00460954 0.00535039 0.000616492)
(0.00447357 0.0033248 0.0011094)
(-0.017876 0.00575737 0.00300184)
(-0.000822801 -0.00497607 0.00131468)
(0.00468931 -0.0269875 4.06472e-05)
(6.58689e-05 0.00781276 -6.76686e-05)
(-0.00147386 0.00484912 -0.00149806)
(0.000546704 0.0119731 -0.000392676)
(0.00851338 0.023528 -0.00235492)
(0.0151302 0.0067353 -0.00121801)
(0.0121654 0.00874041 0.000619364)
(0.00308579 0.00280891 0.000286507)
(0.010944 0.0093495 0.00251548)
(0.0210667 0.0013779 -0.000153872)
(0.0105872 0.0214175 -0.00105629)
(0.03254 0.00151023 -0.000790168)
(0.0225381 -0.0015707 0.000775044)
(0.0332267 0.00196087 0.000703048)
(-0.00466974 0.00205866 0.000256295)
(-0.00765556 0.00174929 0.000103538)
(0.000337861 0.00364602 -0.000276925)
(-0.00185026 -0.000147072 4.35106e-05)
(-0.00316752 0.00492826 -0.000292824)
(-0.000235836 0.00243998 3.23949e-06)
(0.00234941 0.00268795 -0.000200736)
(0.00276489 0.000197541 0.000103502)
(0.00258064 0.00110278 5.25334e-05)
(0.00300601 0.00121316 5.50269e-05)
(-0.00874349 0.00231978 9.40089e-05)
(-0.000833512 -0.00259689 0.000163779)
(0.00111088 -0.000913155 0.000109287)
(-0.00294484 -0.000749391 0.000104171)
(-0.00232157 -0.000528922 4.29531e-05)
(0.00111976 0.000477082 4.94787e-06)
(0.000736368 0.000258636 1.69997e-05)
(0.000187136 6.70355e-05 6.2942e-06)
(0.00106387 -6.05237e-05 3.65261e-05)
(0.000840026 -0.000147391 1.3281e-05)
(0.000472382 -0.000129824 2.72927e-05)
(0.000342158 -5.11532e-05 4.67063e-06)
(0.000391007 -4.5456e-05 1.09068e-05)
(0.000619036 -8.41411e-05 1.53255e-05)
(0.000286587 -3.94985e-05 2.34243e-06)
(0.000854438 -3.7851e-05 -1.01672e-06)
(0.000931722 -3.09941e-05 -1.48778e-06)
(0.00121662 -5.97326e-05 -1.30702e-06)
(0.000647905 -5.20557e-05 -4.49663e-06)
(0.000639737 -4.84546e-05 -5.08478e-06)
(0.00108674 -9.38047e-05 -5.28378e-06)
(0.00106359 -8.84415e-05 -5.40589e-06)
(0.000840825 -2.32165e-05 -1.25568e-07)
(0.000843885 -1.91718e-05 -4.90136e-07)
(0.00111452 -3.68645e-05 7.39097e-08)
(0.000830299 -1.40969e-05 9.01162e-08)
(0.000841672 -1.1244e-05 1.57927e-07)
(0.00111563 -2.23515e-05 2.05515e-07)
(0.000823212 -8.66622e-06 3.94001e-08)
(0.000828502 -6.73941e-06 6.37059e-09)
(0.00110124 -1.35927e-05 1.75788e-07)
(0.00081805 -5.3783e-06 5.11256e-08)
(0.000821949 -4.0869e-06 9.43646e-08)
(0.00109419 -8.51494e-06 1.82305e-07)
(0.000814204 -3.27214e-06 4.8235e-08)
(0.000816963 -2.49334e-06 4.7826e-08)
(0.00108832 -5.21551e-06 1.80621e-07)
(0.000811182 -1.99235e-06 4.86639e-08)
(0.000813184 -1.50616e-06 2.77546e-08)
(0.00108394 -3.12599e-06 1.8008e-07)
(0.000808681 -1.26645e-06 4.83913e-08)
(0.000810177 -9.30264e-07 5.66935e-08)
(0.00108035 -1.94005e-06 1.80171e-07)
(0.000806502 -8.12539e-07 3.30493e-08)
(0.000807795 -6.13885e-07 4.80879e-08)
(0.00107737 -1.2711e-06 1.8047e-07)
(0.000804397 -5.97654e-07 3.01133e-08)
(0.000805609 -3.32222e-07 3.252e-08)
(0.0010744 -7.66083e-07 1.51705e-07)
(0.00080311 -5.49306e-07 3.1641e-08)
(0.000803683 -4.40369e-07 1.34025e-07)
(0.00107222 -7.20706e-07 1.90002e-07)
(0.000801384 -4.08449e-07 4.3703e-08)
(0.000802176 -5.90943e-08 7.33057e-08)
(0.00107032 -6.78952e-07 1.65198e-07)
(0.00079967 -2.80235e-07 5.77641e-08)
(0.00080057 -2.74205e-07 6.58229e-08)
(0.001068 -4.08296e-07 1.81916e-07)
(0.000797979 -3.03462e-07 4.85001e-08)
(0.000798833 -9.7364e-08 4.96114e-08)
(0.00106579 -3.69247e-07 1.78529e-07)
(0.00079623 -3.22241e-07 5.44988e-08)
(0.000797241 -2.44292e-07 1.46426e-07)
(0.0010635 -4.75631e-07 2.28651e-07)
(0.000794446 -4.61626e-07 3.40448e-08)
(0.000795538 1.35691e-07 8.10946e-08)
(0.00106098 -4.02064e-07 1.50812e-07)
(0.000794101 -3.45585e-07 1.93491e-08)
(0.000794343 4.59614e-07 9.77201e-08)
(0.00105968 -7.90271e-07 1.06652e-07)
(0.000792127 2.42756e-08 4.62726e-08)
(0.000793069 -1.42562e-08 4.40584e-08)
(0.00105822 -9.00577e-08 1.73166e-07)
(0.000790471 1.72467e-07 7.25204e-08)
(0.000791279 -5.72407e-08 6.38845e-08)
(0.00105561 1.74111e-07 1.78963e-07)
(0.000789126 4.99267e-07 8.70975e-08)
(0.000789875 -5.08448e-07 5.56945e-08)
(0.00105361 3.46446e-07 1.80158e-07)
(0.000788047 6.99479e-07 7.44984e-08)
(0.000788467 -2.23699e-06 4.48557e-08)
(0.00105212 1.08545e-06 2.4636e-07)
(0.000786203 6.90843e-07 3.24391e-08)
(0.000786933 3.16223e-07 9.70374e-08)
(0.00105019 8.79494e-07 1.07832e-07)
(0.000784349 7.34389e-07 -6.41863e-09)
(0.000785368 -2.8147e-07 -2.61466e-08)
(0.00104764 1.02314e-06 1.51376e-07)
(0.000782677 4.67815e-07 1.43169e-08)
(0.000783597 2.18762e-07 7.93017e-09)
(0.00104525 9.83469e-07 3.79038e-08)
(0.000781504 8.95139e-08 4.81579e-08)
(0.000782072 -2.73606e-08 3.969e-08)
(0.00104341 3.03352e-07 1.78971e-07)
(0.000780094 9.2278e-08 4.75643e-08)
(0.000780801 5.17922e-08 4.95383e-08)
(0.00104174 -5.20476e-08 1.73796e-07)
(0.000778764 1.41643e-07 4.68597e-08)
(0.000779365 3.88073e-07 5.46828e-08)
(0.00103984 3.04197e-07 1.43415e-07)
(0.000777207 -2.3251e-09 1.24784e-07)
(0.000777886 2.78113e-08 4.83334e-08)
(0.001038 6.66327e-08 1.74076e-07)
(0.000775771 -8.08263e-08 1.26953e-07)
(0.000776401 1.44098e-08 1.30447e-07)
(0.00103595 -8.19477e-08 1.68691e-07)
(0.000774397 -2.03504e-07 3.77752e-08)
(0.000774942 -1.27357e-07 5.14115e-08)
(0.0010341 -1.54872e-07 1.77278e-07)
(0.000772726 -3.15415e-07 1.38897e-08)
(0.000773527 1.42672e-06 5.53898e-08)
(0.00103204 -4.23238e-07 1.19661e-07)
(0.0007715 -2.10876e-07 -1.88328e-08)
(0.00077221 -1.9948e-07 4.68921e-08)
(0.00103002 -4.62943e-07 1.31969e-07)
(0.000770151 -3.78358e-08 4.30963e-08)
(0.000770821 -6.2856e-08 1.99213e-08)
(0.00102834 -1.27295e-07 1.58051e-07)
(0.000768724 1.32343e-07 1.12222e-07)
(0.000769404 1.34536e-07 2.36731e-07)
(0.00102664 6.46883e-08 1.74299e-07)
(0.000767072 2.93289e-07 2.93445e-08)
(0.00076799 1.53783e-07 7.3756e-08)
(0.00102449 3.71607e-07 2.16951e-07)
(0.000765704 1.81106e-07 -1.00865e-08)
(0.000766436 2.80975e-07 8.61462e-09)
(0.00102251 4.84929e-07 3.86663e-08)
(0.000764474 3.44909e-09 2.84541e-08)
(0.000765018 7.84501e-08 2.83915e-08)
(0.00102074 5.62922e-08 1.42474e-07)
(0.000763225 -5.85139e-08 6.43532e-08)
(0.000763792 -7.06243e-08 4.28051e-08)
(0.00101904 -2.49252e-10 1.55854e-07)
(0.000761203 -2.31273e-08 5.40544e-08)
(0.000762313 -5.62835e-07 2.08588e-08)
(0.00101697 -1.31219e-07 2.8426e-07)
(0.000760074 1.60581e-07 3.10659e-08)
(0.000760813 -3.38139e-07 -9.72431e-08)
(0.00101476 7.45972e-08 1.66328e-07)
(0.000758533 2.4169e-07 4.80342e-08)
(0.00075935 2.83748e-08 9.5003e-08)
(0.00101291 3.43803e-07 1.6563e-07)
(0.000757941 3.2874e-07 7.11931e-08)
(0.00101143 2.97898e-07 1.3009e-07)
(0.0151623 0.00375211 0.000242714)
(0.0156311 0.0103336 0.000121543)
(0.00916686 0.0089583 -0.000296408)
(0.0136876 0.0208781 -0.00161129)
(-0.0156107 0.00648708 0.00260073)
(-0.0211235 -0.00403424 0.00144803)
(-0.00958381 0.00778368 0.00224167)
(-0.0261926 0.0152018 -0.000365287)
(-0.0198746 -0.00335044 3.91026e-05)
(-0.0158721 0.00324525 -0.00169768)
(-0.0128076 0.00613655 0.000803877)
(-0.00237342 0.00514213 0.00158906)
(-9.26168e-05 -0.000639575 -0.000284702)
(0.00360667 -0.00207098 -0.000176141)
(0.0061074 0.003098 -3.41524e-05)
(0.00691687 0.0102411 0.000426262)
(0.0108957 0.00882637 -0.000937311)
(-0.00089739 0.000235679 -0.00011311)
(0.0019787 -0.00364304 -8.24074e-06)
(0.001725 -0.00432148 -0.000245121)
(-0.00463096 -0.00134876 0.000132567)
(-0.000501744 -0.0052295 -3.78643e-06)
(-0.00107316 -0.00194862 -0.000137852)
(0.000766116 -0.00416817 0.000289142)
(-0.00527967 -0.00315195 -0.000157369)
(-0.000548446 -0.00105051 7.57996e-05)
(-0.000498342 0.000612066 0.000218768)
(-0.00703907 -0.000153729 -0.000249819)
(0.00277483 -0.00285614 -7.43441e-06)
(-0.00205646 -0.00170663 0.000670733)
(0.000599313 -0.00477327 -6.85494e-05)
(0.000650807 0.00186219 0.000224879)
(-0.0002542 0.000360851 -9.34228e-05)
(-0.00289248 0.000998936 -0.000142164)
(-0.0053894 0.00148088 -0.000312827)
(0.00079607 -0.000431128 -4.318e-06)
(0.00079887 -0.000101652 -8.11044e-05)
(0.000866777 -0.000538559 1.44578e-05)
(0.000269839 -0.000403137 2.54161e-05)
(-0.000133622 -0.000519494 2.36261e-05)
(0.000362348 -0.000888604 -2.4638e-05)
(6.74397e-05 -0.00120998 5.85854e-05)
(0.00159462 -0.000375685 7.05907e-05)
(0.000861572 6.96122e-05 1.1755e-05)
(0.00118853 0.000109978 3.38368e-05)
(-3.52191e-05 -0.000477245 -6.19569e-06)
(0.000450505 -7.59695e-05 6.23478e-05)
(0.000577773 -3.43162e-05 -7.54769e-06)
(0.000379598 -0.000253887 4.2574e-05)
(0.00147342 -3.31426e-05 1.93824e-05)
(0.000527075 -0.000113502 4.54458e-05)
(0.00053902 -9.78557e-05 4.77505e-05)
(0.000738853 -0.000124677 8.67313e-05)
(0.000434413 -6.66588e-05 2.47544e-05)
(0.000874807 -8.56116e-06 -9.61517e-07)
(0.000945813 1.25034e-05 -1.38042e-06)
(0.00126156 -1.40843e-05 -1.29337e-06)
(0.000673406 -1.64898e-05 -4.99031e-06)
(0.000668507 1.23172e-06 -4.83102e-06)
(0.00111743 -3.30112e-05 -4.78041e-06)
(0.00111511 6.04555e-06 -7.89425e-07)
(0.000852033 -4.95674e-06 -2.06854e-07)
(0.000848512 9.00751e-06 -5.60999e-07)
(0.00113222 -8.6625e-06 6.24034e-08)
(0.000836876 -2.66679e-06 7.42305e-08)
(0.000844562 5.37274e-06 1.61421e-07)