/*--------------------------------*- C++ -*----------------------------------*\
| =========                 |                                                 |
| \\      /  F ield         | OpenFOAM: The Open Source CFD Toolbox           |
|  \\    /   O peration     | Version:  5.0                                   |
|   \\  /    A nd           | Web:      www.OpenFOAM.org                      |
|    \\/     M anipulation  |                                                 |
\*---------------------------------------------------------------------------*/
FoamFile
{
    version     2.0;
    format      ascii;
    class       surfaceScalarField;
    location    "0.7";
    object      alphaPhi10;
}
// * * * * * * * * * * * * * * * * * * * * * * * * * * * * * * * * * * * * * //

dimensions      [0 3 -1 0 0 0 0];

internalField   nonuniform List<scalar> 
28708
(
-1.31392e-08
1.85508e-09
-1.04741e-08
1.55191e-08
1.61462e-08
-4.24534e-08
8.56435e-09
-8.78311e-09
-9.64825e-09
-8.76295e-09
-1.38909e-08
-1.18249e-08
-8.48308e-09
5.1302e-09
1.7389e-09
3.119e-09
-9.31427e-09
-5.6202e-09
-7.1443e-09
3.88938e-08
-4.411e-09
-5.94738e-10
4.60611e-10
-5.62178e-10
-6.20822e-09
1.07856e-09
1.54305e-10
2.60008e-10
9.90957e-11
-2.28164e-19
3.8071e-21
4.85045e-20
-1.3658e-20
-4.63995e-20
-9.61914e-19
1.21073e-18
3.87788e-24
-1.09102e-22
-1.12786e-25
-1.71294e-24
-1.83144e-23
-4.33841e-23
-1.04747e-22
8.22415e-28
-2.98859e-26
-1.25986e-28
2.42582e-32
-9.96129e-30
3.86606e-32
7.47609e-36
4.2837e-33
1.40827e-34
3.09792e-39
1.23425e-37
3.70157e-38
1.30313e-42
1.62552e-41
-1.03378e-41
5.43489e-46
4.83901e-45
-4.81295e-45
2.25276e-49
9.1707e-49
7.44298e-48
9.28782e-53
1.58248e-51
2.92607e-50
3.80741e-56
6.59331e-56
6.27156e-54
1.56195e-59
-4.26857e-59
-4.56659e-57
6.35559e-63
-5.80898e-63
7.51582e-60
2.57546e-66
-4.24678e-66
4.41267e-65
1.57391e-69
2.75817e-70
-4.59387e-66
4.23216e-73
-1.03973e-73
1.07019e-69
5.50975e-76
-9.75158e-77
3.08587e-73
1.913e-80
-4.19997e-80
1.45904e-77
2.2341e-83
-4.23807e-83
-1.2311e-79
-5.98042e-86
-1.01268e-85
1.82908e-82
7.01542e-89
-5.18887e-91
1.96503e-85
-2.46116e-93
1.56314e-94
3.03592e-89
1.3192e-94
1.12521e-96
-1.51987e-91
-5.44325e-99
-9.66349e-101
1.425e-95
-5.59638e-101
2.60286e-103
-3.44063e-98
2.00508e-104
2.90422e-106
7.04922e-102
3.6839e-108
1.43316e-111
3.40935e-104
-9.20389e-111
-2.71828e-112
3.96377e-107
-2.42136e-114
-2.55955e-117
4.66112e-111
1.67993e-117
-1.7735e-120
-6.09155e-114
-9.85726e-121
5.33639e-123
-4.75918e-117
1.64805e-124
7.08625e-126
-4.60849e-120
-7.92292e-127
9.98778e-129
7.77308e-124
-2.55163e-130
-4.72131e-132
9.60994e-127
-1.67393e-133
1.34896e-136
5.64464e-130
1.7223e-136
-7.29272e-139
-7.11597e-133
2.00943e-141
2.27715e-141
-7.03798e-136
9.27754e-143
7.34072e-144
-1.886e-139
4.08245e-147
2.09312e-148
-1.08101e-142
1.25503e-149
-5.15176e-151
-7.83225e-146
9.03612e-153
-1.73137e-154
-5.43649e-149
8.87657e-154
-1.07324e-158
1.60232e-152
3.70876e-155
3.79772e-158
-5.74254e-155
4.79592e-160
-1.47291e-157
-1.13794e-10
-6.11382e-09
-1.343e-09
-1.71831e-08
1.1826e-09
-8.31861e-09
1.77141e-10
2.24109e-09
-3.60686e-11
-9.12789e-09
-1.05157e-08
1.35952e-08
5.88822e-09
-7.35362e-09
-8.18063e-10
7.49717e-09
-1.63705e-07
-9.82007e-08
1.69775e-07
7.2464e-08
-1.06874e-08
1.25985e-09
-4.06206e-09
1.07672e-09
-1.77779e-09
-1.43229e-08
-1.19218e-08
-9.83094e-09
-9.56569e-09
1.96475e-09
1.81233e-08
-2.23569e-08
-7.74244e-09
4.32306e-10
7.35837e-10
8.80134e-10
-1.62397e-10
-3.40433e-09
-2.36111e-16
2.50824e-18
6.49967e-18
5.93302e-17
2.8422e-18
1.43225e-16
-7.69273e-16
7.9082e-16
1.45116e-21
-2.35794e-21
-5.80452e-23
-1.92349e-21
7.07286e-21
-1.63974e-20
1.17967e-20
4.75931e-28
-2.41275e-25
5.12499e-26
1.2307e-29
-4.69127e-29
-1.30104e-30
1.9809e-33
2.37349e-32
5.86481e-34
1.00112e-37
4.13048e-36
2.47221e-38
4.09419e-41
-3.76499e-40
-4.91011e-40
1.82262e-44
-1.93687e-43
-5.28498e-44
7.81639e-48
-2.00818e-47
1.58679e-46
6.36893e-51
1.29957e-50
8.84677e-50
2.27631e-54
7.71858e-55
-1.19119e-52
7.11084e-58
3.67158e-57
5.24311e-55
2.93627e-61
2.55428e-60
-2.47305e-59
1.23317e-64
2.97086e-65
3.84437e-64
5.32107e-68
-7.57763e-68
-1.89012e-65
2.16493e-71
1.24807e-71
1.06875e-68
9.1191e-75
-2.46168e-74
-1.14682e-71
3.82496e-78
-2.3744e-78
5.59386e-75
1.95187e-81
4.14372e-82
2.22343e-78
1.26378e-84
6.56295e-85
-3.89419e-81
2.79942e-88
1.55046e-88
4.30059e-85
1.18032e-91
-2.79555e-91
9.10279e-88
5.62193e-94
-7.59865e-95
-2.88594e-90
-4.96932e-99
-3.55173e-98
5.07252e-94
3.84507e-101
-9.09841e-102
1.7681e-98
1.58055e-104
-8.0155e-106
-4.45193e-100
-8.13232e-108
-5.07438e-107
1.81401e-103
-8.65659e-111
-4.30478e-109
-1.09697e-106
3.85542e-114
4.67371e-116
1.73453e-110
-2.89515e-117
3.64899e-118
-2.34376e-113
4.99791e-120
-6.49711e-121
2.2434e-116
4.31572e-124
2.70703e-126
-9.08385e-121
3.20615e-126
1.63889e-128
3.49958e-123
-2.68767e-129
-7.22475e-130
9.99066e-126
9.77758e-134
4.35807e-134
-7.17323e-129
-2.22252e-136
-3.9379e-137
5.92166e-132
-1.62277e-139
-2.21287e-141
7.85978e-136
-9.29454e-144
6.83326e-144
1.54683e-139
3.90676e-146
1.89442e-146
3.73025e-141
-3.59087e-148
1.15289e-150
2.53744e-145
2.51217e-151
-3.29029e-151
-1.633e-147
1.18894e-153
-5.87644e-156
-8.05831e-152
4.55998e-155
3.856e-158
6.58044e-154
4.01503e-160
1.66625e-157
-1.35591e-08
3.30797e-10
3.98608e-08
4.7489e-09
4.93308e-09
4.59136e-09
4.80139e-09
2.36234e-09
5.53299e-09
-9.54139e-09
-1.10315e-08
2.2749e-09
4.81432e-10
2.56431e-08
4.14319e-09
-2.05092e-08
-4.27379e-09
7.77724e-09
2.11201e-09
4.18997e-09
3.09931e-09
1.06662e-09
2.25253e-08
-1.30442e-08
-1.11933e-09
1.84255e-08
-2.40468e-09
1.6271e-08
1.4156e-09
4.00183e-09
1.20942e-09
1.74663e-09
2.98268e-09
-9.6309e-10
9.83186e-10
1.60799e-09
1.08609e-09
-2.66078e-09
-1.3328e-11
-8.19775e-16
1.43501e-09
-1.64581e-16
1.43504e-09
7.47746e-20
2.65999e-19
-1.17708e-21
3.30976e-20
1.98123e-19
-1.33541e-18
7.65014e-19
4.31604e-27
2.37591e-23
-2.00446e-25
6.47549e-31
8.02375e-28
6.46873e-30
2.1144e-32
3.05508e-31
-1.32508e-32
2.16337e-36
1.74427e-34
7.53468e-36
4.86275e-40
3.0461e-38
8.56932e-39
1.8798e-43
7.13461e-42
2.02548e-42
7.96233e-47
1.83941e-45
3.59188e-45
3.5842e-50
4.72038e-49
-3.29481e-48
1.45879e-53
1.2014e-52
-8.13806e-52
5.93999e-57
2.43419e-56
3.65809e-54
3.58857e-60
8.40725e-60
5.50212e-57
1.01818e-63
1.90204e-63
2.66875e-61
3.70697e-67
4.31579e-67
4.32858e-65
1.72013e-70
7.68132e-71
2.51298e-67
7.02302e-74
-4.5827e-74
2.48035e-70
2.27364e-76
-4.03556e-78
-2.29092e-73
-3.31866e-80
-1.47581e-80
2.23444e-76
6.68375e-83
-1.56514e-84
1.16232e-79
2.99436e-87
6.03348e-88
-3.77892e-83
-1.21104e-90
-8.26316e-91
-1.48602e-86
4.46053e-92
-4.91586e-94
-4.01147e-89
2.32507e-95
5.08553e-99
6.88282e-93
6.82021e-99
-4.90083e-103
4.32589e-96
4.13694e-102
-5.57946e-103
-4.10839e-99
7.508e-105
8.23011e-107
-9.88908e-102
1.40102e-108
-6.95306e-110
-1.31171e-104
4.58836e-111
-4.53379e-113
-5.24443e-108
-1.28551e-114
-2.60577e-117
1.69351e-111
-1.1604e-117
1.59006e-120
5.75506e-115
7.31292e-123
-2.59561e-124
-4.85879e-118
1.63422e-125
-5.25791e-126
-6.15522e-121
-8.15594e-128
1.48562e-128
-8.0061e-124
-5.29956e-131
2.0548e-133
-5.74439e-128
3.40257e-133
-3.92889e-135
-1.75012e-130
-3.17922e-137
-2.34401e-138
1.20077e-133
-1.18237e-140
-1.30928e-141
7.35414e-137
1.17641e-143
6.74278e-146
1.49558e-139
-1.03324e-146
6.76492e-149
-4.58682e-143
1.84744e-149
5.36249e-152
-2.78176e-146
-1.0156e-152
5.645e-155
8.51655e-150
4.66541e-154
-1.18228e-158
6.33367e-153
-1.86861e-158
1.21433e-155
1.53923e-09
9.72262e-09
3.37547e-09
2.53145e-09
2.30956e-09
3.9614e-09
-1.69146e-09
-4.34878e-09
8.34263e-09
1.43569e-08
1.88157e-08
-1.15656e-08
1.97586e-09
-9.29279e-09
1.29315e-08
1.13566e-08
1.11297e-08
1.23388e-08
1.02671e-08
1.52264e-08
-7.8707e-08
-4.92675e-08
8.29254e-08
7.01545e-09
-2.09458e-08
7.54911e-09
-1.47728e-08
-1.98982e-08
2.54734e-09
2.70318e-09
-1.74038e-08
-2.48921e-09
1.34142e-08
-1.40707e-09
-9.52618e-09
2.70093e-09
1.0398e-09
7.03542e-09
-7.36708e-11
1.05707e-12
-1.53245e-12
1.25494e-11
5.4327e-16
2.71025e-19
4.0722e-18
2.52313e-20
4.03557e-18
2.61525e-17
2.2083e-17
-5.63749e-17
4.03971e-25
1.28563e-21
-9.26165e-24
1.51916e-29
3.84633e-25
7.04321e-28
1.02904e-30
6.27803e-29
4.68454e-32
1.2091e-34
2.23721e-32
1.75042e-34
6.08887e-39
5.2402e-36
7.86946e-38
2.37191e-42
1.28505e-39
4.55497e-41
1.0673e-45
3.05597e-43
3.20165e-44
4.74934e-49
7.48553e-47
1.81389e-47
2.08723e-52
2.01278e-50
1.34234e-50
9.06465e-56
4.68595e-54
2.58588e-53
3.87439e-59
1.85586e-57
3.81883e-56
1.63859e-62
3.72711e-61
5.22458e-60
6.96042e-66
8.1841e-65
6.68342e-63
2.88342e-69
9.57838e-69
7.00852e-67
1.20994e-72
4.41069e-72
1.10433e-69
4.97953e-76
1.6682e-76
2.89438e-73
2.10342e-79
1.12423e-79
-1.97308e-75
8.95986e-83
9.10617e-83
-4.62219e-80
-3.66003e-85
-9.56523e-87
3.20896e-82
6.47161e-90
2.8204e-89
-1.89993e-85
1.44415e-91
-5.53766e-93
-3.89456e-88
4.46799e-96
8.18289e-97
-4.26272e-93
5.4113e-99
2.95754e-100
-4.60193e-95
-2.73668e-101
2.62949e-103
-7.04259e-98
-1.95931e-104
-1.00216e-106
-1.45137e-101
5.70843e-109
-4.81344e-110
-1.28373e-104
-1.01235e-110
-2.00707e-113
1.21331e-107
4.95726e-114
-5.99777e-117
-6.20905e-111
-1.87805e-118
5.20379e-119
-8.92508e-114
2.77376e-121
8.27129e-123
-2.58026e-117
7.17331e-125
1.40735e-124
-5.72818e-120
6.93289e-129
-1.57059e-127
4.08072e-123
4.04529e-131
-1.65304e-132
-4.98362e-127
-2.71494e-134
-6.07954e-135
-6.58074e-130
-5.48261e-138
-1.10616e-138
4.02712e-134
4.91418e-141
-1.84718e-141
-1.34554e-136
-8.24575e-143
6.38882e-145
-1.1872e-140
-7.3251e-146
-9.07116e-149
5.73554e-143
2.415e-150
3.22108e-151
-1.56113e-145
3.01493e-152
1.38228e-154
-1.98578e-149
6.57764e-154
-2.85822e-157
-9.81926e-153
-1.72792e-157
4.98368e-155
1.52237e-08
-5.34006e-09
-8.14268e-09
3.46634e-09
1.28833e-08
9.70159e-09
-9.33767e-09
-1.74014e-08
-4.55628e-09
-6.5964e-10
-8.25654e-09
-1.87611e-08
-9.98613e-09
-3.93622e-09
-5.61527e-09
-4.8853e-09
1.51132e-10
-8.19774e-09
-4.84038e-08
-6.03388e-09
1.94418e-08
2.00525e-08
-9.39214e-09
9.79005e-08
-3.06235e-08
-3.5204e-08
-7.35381e-08
-1.14434e-09
1.2888e-09
2.02399e-09
2.30311e-09
-4.08452e-09
-2.47445e-09
-3.71311e-11
3.33199e-11
-1.3067e-10
2.69773e-11
5.87846e-18
2.26723e-18
1.91877e-18
2.36593e-16
5.6387e-16
-4.32265e-16
-3.74204e-16
-5.18129e-25
-2.5876e-23
2.42362e-23
-1.45269e-27
-5.85769e-26
2.58045e-26
1.87376e-29
-8.21873e-30
1.54796e-30
2.2998e-33
-1.60016e-32
8.86417e-34
-1.6546e-38
-2.55775e-36
-1.31157e-36
-1.0066e-41
-4.39311e-40
6.19915e-40
-2.04213e-45
-1.0004e-43
1.32245e-42
3.15716e-50
-2.22959e-47
3.49944e-46
3.43715e-52
-5.78258e-51
2.34788e-49
2.57927e-55
-1.20708e-54
2.23704e-52
1.53012e-58
-4.96227e-58
9.85822e-56
7.78432e-62
-5.61747e-62
3.88528e-58
4.49969e-65
-2.20482e-65
1.14309e-62
1.68583e-68
8.17255e-69
5.31357e-65
7.51822e-72
-5.97568e-72
7.88668e-69
4.48003e-75
-3.70574e-76
-1.86542e-71
-5.7162e-79
2.47723e-79
5.29625e-75
6.7401e-82
2.22619e-83
8.0681e-78
1.65236e-84
-1.25198e-86
2.59502e-81
1.04304e-88
1.25205e-89
8.76231e-84
-3.33164e-90
-1.62122e-93
4.61328e-87
-7.57244e-95
1.25155e-95
-7.81665e-91
6.11887e-97
1.22559e-98
-1.49513e-95
1.26939e-101
-1.1717e-102
-1.81663e-96
-2.94858e-104
9.71395e-106
-5.07907e-101
2.43135e-107
-2.08678e-109
4.59307e-104
1.34004e-110
-2.06507e-112
7.85207e-107
5.92273e-114
4.41277e-116
-3.92609e-110
-7.28624e-116
1.11444e-117
1.27174e-113
-6.6975e-121
-7.95657e-122
-2.11127e-115
-7.86455e-123
1.37141e-125
5.10052e-120
3.53874e-126
2.63595e-128
-1.52058e-122
-1.58757e-130
-1.9025e-131
1.00206e-126
-1.88633e-132
-7.52338e-133
1.90063e-129
-2.53562e-137
-2.39932e-136
-6.29663e-133
-4.44032e-140
1.3294e-140
-2.45207e-135
1.20818e-142
4.49367e-144
6.07695e-138
-1.47757e-145
-3.71155e-147
1.87936e-142
-1.97364e-147
1.77283e-149
-1.19417e-144
1.50268e-151
1.75688e-152
3.43364e-148
3.74509e-153
1.06741e-155
2.41749e-151
2.68522e-158
-1.97031e-153
1.37634e-08
3.44124e-09
-1.27667e-10
-3.38673e-09
-1.04717e-08
4.118e-09
-1.20603e-08
-1.29496e-08
7.3766e-09
6.27509e-09
3.40229e-09
1.17465e-09
8.13201e-10
5.76152e-09
7.87881e-09
2.4127e-09
1.0432e-08
-7.66711e-09
-2.06315e-08
-6.83971e-09
-2.77556e-08
-2.72969e-09
-3.11471e-09
-7.23639e-09
1.93671e-07
1.67692e-08
-2.051e-07
-1.38638e-07
2.8677e-08
-1.44411e-08
2.98474e-09
-5.21569e-08
2.23663e-08
1.15011e-09
-1.14785e-08
3.80121e-09
1.46365e-09
4.91923e-09
-1.08258e-09
-4.9801e-11
8.75054e-11
-4.0396e-11
4.06967e-11
5.72854e-18
-4.27224e-18
5.3106e-18
8.01964e-16
4.41859e-16
-5.93789e-16
-6.54546e-16
-1.78002e-25
-1.39635e-21
-4.93106e-23
-4.00182e-27
-3.70215e-25
-6.68144e-27
1.90293e-29
-6.11762e-29
8.49659e-31
1.84563e-33
-3.7619e-32
2.23757e-33
-2.26591e-37
-6.53885e-36
-3.64369e-36
-9.73756e-41
-1.50284e-39
4.47943e-40
-3.87152e-44
-4.02679e-43
2.98654e-43
-1.53215e-47
-9.85841e-47
1.77565e-46
-6.04739e-51
-2.3415e-50
1.00711e-49
-2.38604e-54
-7.83265e-54
4.56106e-52
-9.43419e-58
-1.35115e-57
3.16696e-56
-3.71679e-61
-7.04351e-61
5.54622e-58
-1.45797e-64
2.38938e-65
-5.73315e-62
-5.88612e-68
-4.03606e-68
1.05633e-64
-2.43014e-71
-1.13573e-71
1.63822e-68
-9.69371e-75
7.65766e-76
3.51876e-72
-3.76811e-78
-8.44985e-80
1.87904e-74
-6.45593e-81
3.33833e-82
1.33914e-77
-5.73169e-85
4.93554e-87
1.18454e-81
-7.73472e-89
7.86867e-90
4.25122e-84
-1.18636e-91
-1.2417e-92
3.13918e-87
2.52925e-94
8.50449e-95
4.74876e-90
-1.07952e-96
1.17348e-97
4.01133e-93
9.97225e-101
-1.47858e-103
-6.39127e-97
-2.17086e-103
1.49352e-105
2.8095e-100
3.38526e-107
2.10103e-109
-5.81612e-103
2.45998e-110
5.58612e-112
-2.22823e-106
4.28484e-114
-5.55751e-116
-1.38729e-110
8.65139e-117
-1.80822e-119
-4.07735e-113
-1.69344e-119
7.46684e-122
-2.24155e-115
2.40229e-123
-4.69488e-127
-1.71311e-120
-4.95344e-126
-1.10946e-128
-8.50004e-126
1.50058e-129
1.93137e-131
-3.54673e-126
-4.7293e-132
-5.39494e-135
2.69075e-128
-9.66853e-135
-9.1165e-139
1.32214e-131
4.07605e-139
2.53518e-141
9.39146e-135
-4.26374e-142
-2.02128e-144
6.0984e-138
4.47646e-146
-9.5663e-149
-8.99777e-143
2.95679e-147
1.81287e-149
-4.89271e-144
7.10582e-152
3.11379e-154
-3.80061e-148
-1.79311e-154
-2.1969e-157
3.92467e-150
3.00014e-158
1.16323e-154
4.22266e-09
-3.10649e-09
-7.96207e-09
1.82678e-08
-2.18513e-09
-1.21759e-09
-7.2539e-10
-9.23062e-09
1.89576e-08
5.378e-09
-1.51953e-08
8.7484e-09
-4.709e-08
2.30487e-08
4.56332e-09
1.66021e-08
1.1172e-08
-1.51277e-08
-4.48607e-09
-6.18065e-09
1.38488e-08
-1.03737e-08
7.74573e-09
6.01417e-09
4.13672e-09
5.1461e-08
2.06941e-08
3.76314e-09
-1.01049e-08
2.67518e-10
-1.05697e-09
6.62129e-09
-4.32431e-10
-1.50956e-11
-1.43735e-11
-9.64408e-12
1.03749e-12
2.54285e-19
-6.78279e-19
3.344e-19
1.57187e-17
-1.21411e-18
-5.69682e-18
-1.30727e-17
3.95562e-25
-5.50062e-23
6.3427e-24
-2.36006e-28
-1.75533e-27
5.00607e-28
1.23877e-30
-5.5939e-31
6.31336e-31
9.19166e-35
-2.60664e-34
1.21007e-34
-1.2714e-38
-4.67072e-38
7.88035e-38
-5.62813e-42
-1.02498e-41
2.92379e-41
-2.28875e-45
-2.56229e-45
6.28492e-44
-9.28282e-49
-6.31638e-49
6.09971e-48
-3.76009e-52
-1.57116e-52
1.09844e-50
-1.52255e-55
-3.87265e-56
-4.84087e-54
-6.17251e-59
-8.78222e-60
6.43153e-57
-2.48001e-62
-1.77739e-63
-2.46195e-60
-1.64918e-65
-4.95545e-67
1.47499e-62
-4.06697e-69
-1.51236e-70
2.10429e-66
-1.67286e-72
-2.89543e-74
2.78101e-69
-5.53181e-76
-7.47861e-78
1.14534e-72
-8.6438e-79
-6.21832e-81
3.24196e-75
-1.35533e-82
-3.55515e-85
2.75348e-80
-5.47719e-86
-2.19295e-89
-3.74992e-83
-9.84589e-90
4.12392e-92
3.98563e-86
-2.51641e-91
4.85169e-95
4.69319e-88
1.768e-95
-7.3169e-98
-2.03605e-93
-4.26351e-99
-2.93573e-101
5.92866e-96
-5.42101e-102
7.36689e-105
-3.15419e-98
-3.45386e-105
8.06376e-108
1.73662e-102
-4.20849e-109
-1.12607e-110
3.89824e-104
4.81626e-112
-9.03678e-115
1.84689e-107
-1.26569e-114
6.05086e-118
1.05153e-110
-4.1422e-118
-1.01613e-121
-1.40118e-114
-2.16479e-120
3.484e-123
5.5935e-117
8.57708e-125
9.7527e-127
6.04651e-121
5.07374e-127
-3.06737e-130
3.38523e-123
-6.42721e-132
-1.4248e-134
-7.11828e-127
2.7848e-133
9.36867e-137
1.74676e-129
3.72918e-138
3.78024e-139
-3.75466e-133
-1.36112e-140
-1.76378e-143
1.13112e-136
-1.86966e-143
2.05649e-146
1.53098e-139
4.70067e-148
1.55101e-150
-6.46725e-144
5.86443e-150
1.54532e-153
-8.9738e-147
-8.1313e-153
5.32685e-156
2.07101e-150
3.77352e-154
-4.65063e-158
3.64654e-152
1.18029e-158
2.66784e-154
-4.13906e-08
2.43038e-08
3.44554e-08
8.28106e-09
3.99953e-09
1.07124e-08
3.67274e-09
-1.0901e-08
-2.05494e-08
-4.44957e-09
-5.8766e-09
-7.06523e-09
3.97884e-08
3.52556e-08
2.6193e-08
-1.76792e-07
1.49051e-08
1.16301e-08
7.72275e-09
1.52207e-08
-6.93718e-11
-2.20437e-08
2.06576e-08
9.45888e-09
-8.25916e-09
2.6352e-09
1.27939e-08
1.76126e-08
-6.38387e-08
1.41214e-09
4.1402e-10
3.46438e-09
-3.53724e-10
-1.27345e-09
-2.46373e-09
-4.82064e-11
2.91294e-12
1.42092e-09
2.43147e-11
1.42175e-09
4.28428e-21
-6.42996e-21
8.30698e-22
-2.10592e-19
1.21344e-19
-2.12634e-19
-3.8664e-19
9.3351e-29
-2.90141e-25
-8.75463e-26
2.14992e-29
-3.40738e-29
2.75721e-29
1.45011e-32
-4.3061e-32
7.30853e-33
1.24733e-36
-7.63056e-36
7.70274e-36
1.52758e-40
-7.47943e-40
-4.23872e-39
5.00126e-44
-1.5511e-43
-3.47491e-42
1.86883e-47
-4.92257e-47
1.67795e-45
7.78594e-51
-1.13998e-50
1.12375e-48
5.44002e-54
-1.03314e-54
3.82415e-51
1.04277e-57
-1.63825e-57
3.4458e-54
1.33561e-60
-2.21309e-60
-3.32763e-57
1.35023e-64
1.54018e-64
-4.55496e-61
-4.33596e-67
-7.89446e-69
4.27058e-64
2.25922e-71
1.05237e-71
5.3054e-68
1.35542e-73
-5.28583e-75
-3.8374e-71
1.40571e-78
-5.68568e-78
2.54844e-74
5.49245e-81
-4.72758e-81
1.10328e-76
-5.00015e-83
6.79743e-86
4.24782e-81
5.77604e-86
3.68775e-90
-4.781e-83
-9.20601e-90
-7.32791e-92
5.8705e-86
9.08095e-93
7.44808e-95
-4.6845e-90
2.13059e-95
8.84642e-98
4.48373e-95
-3.58317e-99
-2.22248e-101
6.8286e-96
-8.86551e-105
4.93957e-105
3.47262e-99
1.47962e-105
2.71301e-107
-3.37176e-102
9.70306e-109
-4.82008e-112
1.77875e-105
-5.44465e-113
-6.96284e-117
3.46311e-109
-1.10364e-114
-2.09561e-118
2.35049e-111
-1.79071e-118
1.78905e-121
-5.45955e-115
7.31603e-121
-1.17778e-125
-3.0542e-118
1.51137e-124
1.50041e-128
4.10503e-122
-5.03457e-128
-8.47208e-131
1.16594e-124
3.12023e-131
-5.83919e-136
-1.01341e-127
2.66655e-134
6.76985e-138
-1.70343e-130
-5.12766e-137
2.26436e-140
-9.7718e-135
1.0912e-140
-3.66581e-144
-7.02701e-138
-1.21897e-144
-4.51192e-148
3.3967e-141
-4.29176e-149
7.16189e-151
-1.04552e-143
9.93956e-150
-5.09601e-153
-7.58364e-147
7.86009e-154
-1.35639e-155
4.66948e-150
2.6824e-154
-3.05515e-157
4.35128e-153
1.1333e-159
-1.43012e-155
7.35226e-09
-1.17142e-08
-1.44471e-08
-1.24921e-08
-1.32492e-09
-1.04558e-08
3.9179e-09
5.80599e-09
1.21912e-09
7.95114e-09
-3.71132e-10
-1.13574e-08
-1.28226e-08
4.85614e-09
-2.72792e-08
-2.04723e-08
3.08986e-08
-8.17062e-10
-2.65361e-09
-5.25935e-09
9.51119e-09
4.97521e-08
7.26926e-08
5.96898e-08
1.80957e-07
1.51227e-08
5.1804e-09
-1.19592e-08
-3.82867e-08
-1.96657e-08
-1.02909e-08
1.84546e-07
6.64899e-09
3.30063e-09
7.9345e-09
6.93092e-09
1.16667e-09
-4.82803e-09
1.92082e-09
-1.55544e-09
3.20629e-09
-4.40794e-13
3.41496e-15
-2.34093e-17
-6.02667e-16
2.68141e-16
-1.33855e-14
6.81549e-13
-4.99909e-14
6.29312e-15
1.90651e-15
1.92001e-15
1.6726e-21
1.28765e-22
-2.67588e-21
-2.9102e-20
-1.00502e-20
9.83354e-20
-6.43306e-20
5.02181e-27
2.7368e-26
-4.08619e-26
1.5301e-29
9.07764e-30
-1.34199e-30
1.90219e-33
7.06627e-34
-1.32872e-33
4.2254e-37
-1.12844e-38
-8.99719e-37
1.62952e-40
-1.30468e-42
-3.72967e-40
6.51688e-44
-3.16499e-45
2.56088e-44
2.599e-47
-1.00842e-48
-2.4583e-47
1.03316e-50
-1.34722e-51
1.92606e-50
4.09043e-54
-1.55483e-55
1.80608e-52
1.61448e-57
3.31353e-59
-1.04467e-55
6.33318e-61
-2.3497e-62
-2.93286e-58
2.48347e-64
-7.43531e-66
-4.73869e-62
9.68532e-68
-8.99637e-70
1.80247e-65
3.76632e-71
5.81138e-73
1.14526e-68
1.45925e-74
-2.86228e-77
-5.30278e-72
6.01787e-78
2.69344e-79
6.7229e-75
1.51731e-80
8.04897e-83
-4.20868e-77
1.15012e-84
7.46126e-87
-2.31953e-82
1.84401e-88
6.00847e-90
2.68268e-85
-3.16961e-93
2.71316e-93
-8.24682e-88
4.59849e-95
-5.72486e-96
2.34564e-91
-2.90923e-98
6.42431e-101
1.15189e-94
6.41543e-100
1.97721e-102
-2.06119e-96
6.27997e-105
-4.2041e-106
2.42062e-101
-9.87274e-108
8.22294e-109
2.05364e-103
-9.42978e-111
-7.59365e-112
2.36896e-107
-3.65652e-113
-7.5221e-117
-3.26457e-110
4.44939e-118
-1.35581e-118
-5.10673e-114
3.67971e-120
-1.74583e-121
-1.13562e-115
-2.28189e-123
-4.61899e-125
7.31337e-120
-1.64398e-126
-4.74856e-128
1.17935e-123
4.70648e-130
1.95974e-131
-7.48891e-126
1.97094e-133
-3.43518e-136
-1.84045e-128
2.72266e-135
2.19977e-137
3.43917e-132
-4.95528e-139
6.43787e-141
-5.1065e-135
1.78992e-142
-1.2431e-144
-9.74775e-139
-2.49273e-145
-4.65843e-147
4.33441e-142
8.75509e-149
-1.00889e-150
1.30106e-145
8.38722e-153
1.06284e-153
4.04642e-148
3.6528e-153
-2.45265e-156
1.1501e-152
1.94279e-154
-1.16838e-157
-9.32153e-154
-1.66334e-159
-1.78729e-157
-9.12371e-10
7.44063e-09
1.72733e-08
8.98031e-09
6.97181e-08
4.76054e-08
-9.54871e-08
2.28047e-08
4.22786e-08
3.03264e-10
-4.86559e-09
-9.86414e-09
4.11815e-08
-2.14705e-08
-1.94584e-08
-3.28493e-09
-1.24671e-08
5.95878e-09
5.09566e-08
-3.48212e-09
4.93996e-10
2.15115e-08
1.54184e-08
3.02029e-09
-4.94496e-08
-2.50141e-08
-3.70149e-08
-2.72195e-08
-2.53193e-08
-1.94779e-09
-9.35597e-10
-2.19143e-09
-5.41539e-08
6.86117e-08
3.65209e-08
-2.54012e-08
2.60296e-10
-4.70522e-09
2.9802e-09
6.76465e-10
-5.88198e-10
1.50742e-18
-2.73093e-18
-4.57683e-21
9.34229e-20
7.57134e-20
1.08551e-18
-1.22493e-17
1.23092e-17
4.69352e-24
-7.00055e-25
-9.81181e-23
-5.95008e-24
-5.18653e-22
-1.21733e-22
1.2109e-27
-6.24578e-28
3.33281e-31
2.09352e-31
6.65955e-35
1.74639e-34
1.38252e-38
-2.49895e-37
5.39591e-42
-2.35176e-40
2.26267e-45
-1.73491e-43
9.45187e-49
-1.9934e-47
3.91691e-52
-9.46279e-50
1.60224e-55
1.43937e-53
6.56086e-59
5.87917e-57
2.72532e-62
-2.27232e-59
1.13919e-65
-4.93516e-62
4.42666e-69
-4.52598e-65
1.45469e-72
-1.25146e-68
6.97664e-76
-8.66854e-73
-9.66793e-80
7.00912e-76
-4.69904e-83
7.48909e-78
-1.01935e-86
-1.00754e-83
6.69453e-89
-4.74375e-85
6.71733e-92
-9.08241e-89
3.78192e-95
7.09941e-91
1.93185e-98
-2.90842e-94
2.78839e-100
-5.91153e-97
8.51896e-104
-1.28392e-100
5.18832e-107
-1.01041e-103
1.60194e-109
-7.91738e-107
-9.5939e-114
9.60022e-111
-7.77552e-117
-3.26786e-113
1.61911e-119
-9.96492e-116
8.58953e-124
1.82989e-119
1.00226e-125
-7.62161e-123
3.88672e-130
-1.34617e-127
8.18695e-133
-1.01458e-129
-1.01406e-136
1.23243e-132
3.89746e-138
-1.27984e-135
1.68506e-142
1.23558e-138
-2.92075e-146
-2.50177e-142
6.97541e-148
-5.26449e-145
-1.0928e-151
1.04127e-147
2.02188e-153
1.63678e-151
1.03391e-154
5.50193e-154
1.04353e-157
-1.78291e-07
-1.86747e-08
2.09823e-07
1.23091e-08
1.35621e-07
-2.18533e-07
7.09827e-09
8.90964e-09
-4.1262e-08
-5.92441e-09
-1.13473e-09
-6.11408e-09
6.61664e-09
-1.75156e-08
-2.80229e-09
3.33603e-07
7.15087e-08
-1.73989e-07
-5.00527e-09
-1.03259e-08
6.22108e-09
8.97392e-09
1.09133e-07
1.43933e-07
3.7513e-08
1.0575e-07
-2.12637e-09
-4.21728e-09
-2.87969e-09
-4.04857e-08
1.68794e-09
4.89382e-09
2.18436e-09
-9.33558e-09
-1.22918e-07
-1.2344e-08
2.26082e-07
-8.77316e-08
4.10011e-09
-2.16559e-09
4.07392e-09
-5.30463e-09
8.54438e-09
1.72068e-09
1.70473e-10
3.18263e-10
-3.84981e-10
2.8522e-10
5.68363e-10
-2.49277e-10
-6.14119e-18
3.83304e-20
2.1348e-19
1.15338e-18
-2.41228e-20
4.43015e-18
-5.62124e-18
6.45077e-18
1.07309e-24
-4.40071e-22
9.69667e-26
-6.95362e-22
-2.43652e-21
-6.61504e-22
-1.59064e-21
7.55843e-26
-5.5244e-25
1.49274e-28
2.70675e-29
3.38256e-29
4.28725e-32
1.10711e-33
-1.07488e-32
1.75651e-34
7.29797e-37
1.20349e-35
1.81855e-39
5.19323e-40
4.16182e-39
9.03461e-42
3.57565e-43
1.42772e-42
7.46668e-44
2.43832e-46
6.08701e-46
3.74923e-47
1.65631e-49
9.18294e-50
1.89948e-50
1.12239e-52
8.32894e-53
2.78208e-54
7.57688e-56
-3.09469e-57
4.11921e-57
5.09704e-59
5.67926e-59
5.04568e-60
3.42291e-62
-2.2229e-63
1.51907e-62
2.29149e-65
5.1995e-66
3.73438e-66
1.52902e-68
2.1086e-69
2.38686e-69
1.01824e-71
-7.9409e-73
8.85686e-73
6.76132e-75
7.41624e-76
-7.11235e-77
4.47789e-78
4.97131e-79
-2.34054e-79
2.95916e-81
4.17873e-82
2.26445e-82
1.95062e-84
-9.8563e-86
8.76237e-86
1.28272e-87
-1.41538e-89
4.26858e-89
8.41335e-91
-3.34838e-91
1.26221e-92
5.50717e-94
-1.76326e-94
5.11933e-95
3.59551e-97
1.50458e-97
-2.90251e-98
2.34156e-100
1.41924e-100
4.44003e-101
1.5232e-103
-1.27436e-105
-2.38674e-104
9.90208e-107
-1.586e-106
-4.01745e-108
6.42539e-110
6.9822e-113
5.72281e-111
4.15587e-113
-2.70914e-114
2.49662e-114
2.68119e-116
1.47935e-117
3.56316e-117
1.72858e-119
-7.5621e-120
2.08812e-120
1.11337e-122
-3.74622e-124
-1.02373e-123
7.15822e-126
-1.4736e-126
1.03469e-126
4.59392e-129
2.20964e-130
5.40011e-130
2.94371e-132
-4.02783e-133
-2.82147e-133
1.88508e-135
2.23187e-136
-2.07463e-136
1.20383e-138
5.93421e-139
-2.48777e-140
7.66935e-142
-1.9862e-142
1.34046e-142
4.87873e-145
-3.44493e-145
1.58161e-146
3.10032e-148
-1.815e-148
5.06113e-149
2.294e-151
-2.09176e-152
3.71076e-152
-3.92067e-153
2.19483e-155
-3.41937e-155
1.2918e-157
-5.63222e-158
-2.71736e-09
1.58756e-07
-5.34942e-08
-2.66716e-07
-7.47753e-09
-1.9819e-09
1.58256e-09
2.3675e-07
-2.96948e-08
-2.90271e-07
-2.74885e-08
-9.91893e-09
-4.77788e-09
-4.55952e-08
-1.66149e-08
7.06228e-08
-2.27031e-09
-3.74973e-09
2.36739e-09
3.48433e-08
3.21309e-08
-8.18868e-09
3.61782e-08
4.29535e-08
-5.98844e-09
7.53827e-09
-5.13253e-08
4.77865e-09
-1.61924e-09
1.20752e-08
-1.3257e-08
1.28517e-09
7.90139e-09
6.63632e-10
2.33708e-09
1.86394e-09
-9.58862e-11
-1.23844e-08
-1.55589e-15
7.6864e-19
1.34624e-17
1.15604e-16
-1.39505e-16
-1.86105e-17
1.92162e-15
-1.89582e-15
1.64146e-15
1.00973e-20
3.215e-21
3.11735e-23
-9.01499e-21
8.74914e-21
-9.98749e-21
1.41909e-20
7.38436e-27
-1.66992e-24
-4.62803e-26
3.26437e-29
-3.73588e-28
1.21441e-30
5.71962e-33
-1.0612e-31
-2.72729e-34
3.65491e-36
1.15699e-33
4.01631e-37
2.93638e-39
3.2961e-37
8.25361e-40
2.28196e-42
7.05391e-42
4.282e-43
1.7274e-45
2.36859e-45
1.28109e-46
1.28365e-48
1.98778e-48
-3.5219e-49
9.43646e-52
1.09096e-51
5.72903e-53
6.84747e-55
2.88217e-54
-4.02575e-55
4.92093e-58
2.08489e-57
1.10042e-58
3.4982e-61
1.28331e-61
1.89425e-63
2.47011e-64
-1.47962e-64
-1.63524e-66
1.72963e-67
1.77737e-67
8.99101e-69
1.20476e-70
-1.70818e-70
7.42556e-72
8.34511e-74
-1.38658e-73
-1.47678e-75
5.74306e-77
1.47364e-77
4.12827e-78
3.93112e-80
1.62537e-80
-4.01588e-82
2.67839e-83
4.20671e-84
-1.34882e-84
1.81706e-86
-2.59749e-86
1.83114e-88
1.22739e-89
3.90344e-89
7.48359e-91
8.24765e-93
-1.54895e-92
3.89229e-94
5.529e-96
-5.14263e-96
4.11397e-97
3.69689e-99
1.264e-99
6.46188e-100
2.46486e-102
-8.95567e-102
5.75978e-103
1.63724e-105
2.34157e-105
8.40039e-107
1.08427e-108
1.54428e-109
-4.40777e-110
7.16092e-112
-5.66477e-112
1.90058e-113
4.71558e-115
-5.63873e-115
3.98243e-117
3.09853e-118
1.1433e-118
1.26176e-119
2.02935e-121
-4.56536e-121
3.13355e-122
1.32543e-124
-5.46231e-125
2.37045e-126
8.64298e-128
-9.018e-129
2.51208e-131
5.62109e-131
3.10891e-131
-2.87325e-132
3.64968e-134
1.14475e-133
-2.15777e-135
2.3674e-137
2.76998e-137
3.24996e-138
1.53128e-140
7.72069e-141
-4.52862e-141
9.87288e-144
9.5152e-144
5.74839e-146
6.3541e-147
-2.65284e-147
1.64057e-147
4.18774e-150
-5.68944e-150
-5.69601e-152
5.56226e-152
3.67394e-153
1.3872e-154
-4.80785e-157
3.37394e-157
3.02653e-09
8.31521e-08
-3.83343e-08
-9.21431e-08
-1.3054e-08
-1.86621e-08
4.67788e-09
3.94429e-09
9.45945e-09
8.1062e-09
-4.21381e-08
1.29764e-09
2.94313e-08
-1.47356e-08
1.54743e-08
2.62111e-08
-8.30309e-09
1.56525e-09
-2.20499e-09
8.70222e-09
-8.95948e-10
-3.79386e-10
-6.72374e-09
4.57911e-09
1.66565e-08
1.27077e-08
2.12029e-08
2.14891e-08
1.59763e-08
-6.3406e-08
-6.63215e-08
-9.8809e-09
1.37982e-07
-6.86906e-09
5.25455e-09
5.80922e-08
-3.38868e-09
-3.4265e-10
3.84322e-09
1.13528e-08
5.57742e-09
7.06665e-09
-1.2301e-09
-5.87558e-10
6.00003e-10
1.05757e-09
-6.92991e-09
-4.5334e-11
-3.73771e-14
-6.25599e-15
-2.43368e-14
-2.74911e-15
-1.20822e-15
-8.31483e-20
1.46441e-18
1.91187e-21
-8.9962e-19
-5.02775e-19
2.65659e-20
-5.46704e-20
4.78388e-26
3.57809e-22
-5.29644e-26
1.70193e-28
1.43172e-26
7.21892e-30
4.90415e-31
7.67237e-30
-2.21608e-32
2.7713e-34
5.92505e-33
-1.01273e-35
6.49095e-38
2.4e-36
2.44641e-39
3.40423e-41
8.78257e-40
2.43086e-42
2.53006e-44
3.78072e-43
1.17924e-44
1.82013e-47
1.64467e-46
1.61166e-48
1.281e-50
6.8077e-50
-3.39613e-51
8.97108e-54
3.31633e-53
-3.31985e-54
6.25285e-57
1.76593e-56
1.21012e-57
4.33728e-60
4.91631e-60
-1.46062e-61
2.99217e-63
1.28562e-63
4.88774e-64
2.05599e-66
6.76222e-67
3.06793e-67
1.4063e-69
1.07892e-69
-9.80984e-71
9.57631e-73
-9.48774e-74
-1.08614e-73
6.49008e-76
8.22761e-76
6.09731e-77
4.38503e-79
-8.59524e-80
-3.8514e-80
2.95078e-82
6.40315e-83
2.95784e-84
1.97778e-85
6.06611e-86
1.9367e-86
1.32368e-88
4.14635e-89
2.76032e-89
8.83444e-92
-2.36419e-92
9.84317e-93
5.87788e-95
1.13e-95
2.20808e-95
3.90698e-98
-1.43076e-98
7.40187e-99
2.58527e-101
3.24564e-102
-5.46098e-102
1.70198e-104
-5.15396e-105
-1.78848e-105
1.12014e-107
9.9868e-111
-1.22276e-109
7.36106e-111
-1.22208e-111
3.29021e-111
4.82544e-114
1.05297e-114
2.25887e-114
3.15793e-117
8.73283e-119
-1.13088e-117
2.06213e-120
3.0519e-121
-2.48986e-121
1.34295e-123
-3.87923e-124
1.08971e-123
8.73865e-127
1.87898e-127
-1.6494e-127
5.67639e-130
2.90243e-130
3.315e-131
3.68531e-133
-7.48717e-134
1.59283e-133
2.39398e-136
-5.90284e-137
7.93603e-137
1.54962e-139
4.84358e-140
-1.23615e-139
9.99706e-143
1.10929e-143
-1.91614e-143
6.44195e-146
4.38594e-147
4.20818e-146
4.12029e-149
1.58183e-149
1.34828e-149
6.12858e-152
1.04518e-152
2.0773e-152
-2.20855e-155
1.12064e-155
8.67815e-09
3.685e-08
4.68719e-08
4.92793e-09
-1.0604e-08
-7.40427e-09
-6.29516e-09
-1.87831e-09
-2.26471e-09
-1.30868e-09
-1.06032e-09
-8.80112e-09
1.4014e-08
1.28671e-08
1.63875e-08
1.10899e-07
-1.12139e-09
-1.56301e-10
3.01941e-09
-1.71663e-09
1.05463e-08
4.28389e-08
-1.2343e-08
4.96465e-08
-7.6248e-09
-1.78731e-08
1.08923e-08
-1.33209e-07
2.16674e-09
5.31733e-08
8.2664e-08
-1.94209e-08
-1.02741e-07
5.03997e-09
-1.65506e-09
-1.0741e-08
-5.13621e-09
1.07126e-07
-1.58807e-08
1.25302e-09
-7.81697e-09
2.6384e-09
2.64297e-10
2.02977e-08
-6.32822e-11
-1.50776e-11
1.73072e-12
-1.75743e-12
8.90907e-12
7.98476e-14
1.89972e-18
1.33312e-17
-2.13309e-20