/*--------------------------------*- C++ -*----------------------------------*\
| =========                 |                                                 |
| \\      /  F ield         | OpenFOAM: The Open Source CFD Toolbox           |
|  \\    /   O peration     | Version:  5.0                                   |
|   \\  /    A nd           | Web:      www.OpenFOAM.org                      |
|    \\/     M anipulation  |                                                 |
\*---------------------------------------------------------------------------*/
FoamFile
{
    version     2.0;
    format      ascii;
    class       volScalarField;
    location    "0.7";
    object      alpha.water;
}
// * * * * * * * * * * * * * * * * * * * * * * * * * * * * * * * * * * * * * //

dimensions      [0 0 0 0 0 0 0];

internalField   nonuniform List<scalar> 
9641
(
0.647552
1.08206
0.958705
0.987239
0.987932
0.844714
-1.29328e-17
4.17085e-15
4.65314e-17
7.83455e-21
4.07606e-25
8.12615e-29
3.11701e-32
1.29103e-35
5.23777e-39
2.25128e-42
8.46946e-46
3.9304e-49
1.74474e-52
5.83523e-56
3.0603e-59
1.12738e-62
6.10698e-66
1.36354e-69
8.52138e-73
1.07618e-75
3.79296e-79
5.26507e-83
1.46074e-84
3.03554e-88
1.25782e-91
3.73646e-95
3.45955e-98
9.3961e-101
1.92656e-104
2.41852e-107
6.00058e-111
3.17648e-113
3.85574e-117
9.17518e-121
6.88167e-124
1.88683e-126
1.37784e-129
5.47843e-132
7.61306e-136
1.71381e-138
1.28544e-142
2.75058e-145
2.6817e-146
7.79445e-148
1.02186
0.68086
1.05618
1.02499
1.0098
1
-4.77992e-20
-1.16852e-18
-3.17715e-24
1.64913e-20
1.84279e-22
1.67071e-26
1.68669e-30
6.56925e-34
2.67742e-37
1.16031e-40
1.4547e-43
4.55601e-47
9.66576e-51
3.50741e-54
1.45522e-57
5.90781e-61
2.80956e-64
1.44609e-67
5.15117e-71
5.08839e-74
1.1157e-77
3.95644e-81
8.40085e-84
2.34819e-87
8.39935e-91
2.41928e-93
5.21776e-97
1.09689e-100
9.89644e-104
1.97003e-106
1.61101e-109
3.68672e-114
2.31968e-115
1.56115e-118
1.55788e-122
2.4587e-125
1.36551e-129
1.73366e-133
8.15172e-136
1.14782e-139
4.24213e-142
2.9635e-145
3.36816e-146
1.50233e-147
0.949198
0.655327
1.07438
1.02671
0.990778
1.00339
-1.46253e-18
-1.20026e-17
-2.28441e-21
3.44626e-20
6.69036e-22
7.22035e-25
7.71499e-29
1.00312e-32
3.74835e-36
1.56709e-39
6.60775e-43
2.83696e-46
1.18687e-49
4.4605e-53
2.21156e-56
7.80357e-60
3.86586e-63
1.20679e-66
6.33038e-70
5.25217e-73
2.15758e-76
4.37506e-80
6.73786e-83
9.06305e-86
4.15531e-90
2.12412e-93
9.872e-95
1.02461e-97
6.97011e-102
4.44937e-105
2.36047e-108
1.61374e-112
4.45883e-114
4.31758e-117
6.63264e-121
2.03294e-124
4.95217e-127
3.91828e-131
1.23976e-133
2.07022e-137
3.67959e-139
1.0881e-142
2.7381e-145
1.4717e-146
1.03394
1.01821
1.00901
0.919786
0.952333
1.00917
0.127798
-2.87717e-17
-1.73307e-19
-4.34065e-22
1.47632e-21
1.45811e-23
1.39388e-27
1.36075e-31
5.21001e-35
2.10694e-38
8.54003e-42
3.68517e-45
1.45493e-48
5.64389e-52
2.32187e-55
9.23416e-59
5.59383e-62
1.88646e-65
1.10871e-68
5.39905e-72
1.63784e-75
4.15649e-78
2.20448e-81
1.0705e-85
7.55741e-88
9.83323e-91
4.7127e-94
3.50222e-98
1.75439e-100
3.80969e-104
8.44912e-108
1.21828e-110
6.12855e-113
1.21398e-116
3.05513e-120
1.03996e-122
8.59076e-127
2.05507e-129
2.09909e-132
1.06394e-135
5.76477e-140
9.20977e-143
3.12563e-145
1.64028e-146
0.741233
1.14331
0.989367
1.10734
0.970873
0.987812
0.67474
-5.41589e-16
-2.357e-18
-8.28985e-23
3.04554e-20
2.98162e-22
2.92962e-26
3.25769e-30
1.22625e-33
5.00126e-37
2.00713e-40
8.17286e-44
3.30457e-47
1.34642e-50
5.39882e-54
2.32703e-57
8.90607e-61
4.05175e-64
1.41933e-67
6.21367e-71
2.7668e-74
1.45358e-77
1.32042e-80
9.83696e-84
9.45194e-87
9.16155e-91
1.90364e-93
1.48108e-97
6.72604e-101
6.28875e-104
6.11389e-106
2.83475e-109
1.37833e-113
9.91592e-116
1.03785e-119
8.10031e-124
3.79881e-127
3.41156e-129
7.04199e-132
1.60229e-135
2.30174e-137
8.93568e-141
1.24772e-143
1.95081e-145
0.847361
0.843114
0.772503
0.977855
1.04584
1.01952
0.793933
-2.30115e-16
-1.4849e-18
-7.46481e-21
3.23428e-20
3.06242e-22
2.80192e-26
3.17716e-30
1.23735e-33
5.01594e-37
2.03146e-40
8.40989e-44
3.3479e-47
1.48136e-50
5.48239e-54
2.20001e-57
8.81845e-61
4.04996e-64
1.79693e-67
1.18888e-70
2.95687e-74
1.88415e-77
2.51546e-80
5.4618e-83
6.20245e-86
3.77966e-90
2.98232e-93
4.30427e-97
7.84179e-100
2.03857e-103
1.22633e-106
2.49371e-109
1.46471e-113
3.77715e-116
1.25251e-118
4.64054e-121
1.60742e-124
1.79149e-128
4.41269e-132
6.83333e-135
1.57468e-137
7.69761e-142
8.0236e-145
9.52709e-146
0.848827
0.951649
0.99717
0.946813
0.925195
0.965083
0.57073
-1.79816e-17
-5.26264e-20
-2.51995e-22
1.64516e-21
1.57022e-23
1.63646e-27
1.49689e-31
5.65781e-35
2.27748e-38
9.18054e-42
3.74911e-45
1.52373e-48
6.10767e-52
3.74807e-55
9.9782e-59
4.80603e-62
1.86245e-65
1.21377e-68
2.57869e-72
1.0131e-75
4.84915e-79
3.02532e-81
2.34824e-85
3.53109e-89
1.54039e-91
1.20477e-95
5.79621e-98
5.11744e-101
2.9701e-104
5.08903e-108
2.35318e-110
1.52473e-113
1.75593e-116
8.68735e-121
2.60388e-123
1.75473e-126
8.11798e-131
1.06584e-132
1.04484e-136
7.95429e-140
1.14912e-143
2.73287e-145
1.7726e-146
1.00965
0.993464
0.994483
1.02006
0.950826
0.9898
0.0491353
-2.43442e-18
-1.7352e-21
3.72514e-20
5.9914e-22
4.97615e-25
5.09705e-29
7.40444e-33
2.79946e-36
1.16525e-39
4.90217e-43
2.01401e-46
8.9628e-50
3.46133e-53
1.40724e-56
6.75787e-60
2.85164e-63
8.29005e-67
6.10342e-70
3.59399e-73
4.37538e-76
1.76727e-79
1.2136e-83
9.35923e-86
1.02341e-89
2.95986e-92
2.7997e-95
2.51304e-99
1.35115e-102
8.36622e-105
1.02927e-108
2.48411e-111
1.36804e-114
6.52365e-118
7.82907e-122
2.14718e-124
3.33021e-127
1.54577e-130
5.51692e-135
2.98485e-138
6.53643e-141
1.44285e-144
2.07603e-145
1.00983e-146
1.0174
0.985278
0.999345
0.941626
1.00187
0.986572
-6.5873e-16
-1.15282e-17
-1.26666e-22
1.44552e-20
1.65927e-22
2.03587e-26
1.83687e-30
6.43561e-34
2.61591e-37
1.07191e-40
4.49695e-44
1.86076e-47
7.92559e-51
3.13284e-54
1.22331e-57
5.33342e-61
2.04216e-64
9.03305e-68
3.07464e-70
2.71709e-74
7.86445e-78
5.18122e-81
1.46931e-84
2.60522e-87
1.76616e-89
1.90592e-93
4.28352e-97
4.58877e-101
8.01007e-103
2.32706e-106
1.96325e-109
8.7598e-114
1.46723e-117
3.70402e-119
5.58588e-122
1.17579e-124
1.92601e-128
1.39815e-132
1.15135e-135
1.34042e-139
4.42412e-141
6.60143e-144
1.38814e-145
3.33247e-147
1.01157
1.02603
1.0524
1.00252
1.03459
0.999818
-2.38276e-16
4.12287e-15
4.77182e-17
2.65847e-20
2.20958e-23
1.89415e-27
2.83998e-31
1.09314e-34
4.552e-38
2.04468e-41
7.82555e-45
3.32593e-48
1.42468e-51
9.5025e-55
2.3079e-58
1.10385e-61
3.56208e-65
1.56725e-68
1.67479e-71
2.84378e-75
5.46874e-78
1.73949e-81
3.56609e-84
2.44822e-87
3.85801e-90
1.09125e-93
1.05316e-96
1.48998e-99
1.06436e-103
1.25058e-106
3.93823e-109
3.5035e-113
2.94108e-115
5.0222e-119
2.00635e-123
6.41986e-127
1.90631e-128
7.2549e-132
3.633e-135
5.79599e-138
7.57641e-142
1.4549e-144
7.41304e-146
1.67123e-147
1.19223
1.07111
1.0869
1.00651
0.972412
0.842194
8.77708e-13
1.25107e-16
1.10255e-16
1.08135e-18
1.21017e-22
1.08818e-26
6.28576e-30
4.52709e-33
3.16869e-36
2.19452e-39
1.51945e-42
1.05246e-45
7.28512e-49
5.03878e-52
3.48632e-55
2.40684e-58
1.66074e-61
1.14535e-64
7.89032e-68
5.4286e-71
3.73415e-74
2.56399e-77
1.75768e-80
1.20403e-83
8.24148e-87
5.62277e-90
3.83633e-93
2.61441e-96
1.77882e-99
1.20941e-102
8.20322e-106
5.55358e-109
3.75544e-112
2.53734e-115
1.71106e-118
1.15254e-121
7.75527e-125
5.19975e-128
3.48485e-131
2.33042e-134
1.55549e-137
1.03751e-140
6.89539e-144
2.74725e-145
0.967293
0.928248
0.99548
0.998261
0.96659
0.996651
1.81033e-10
2.90532e-15
2.89558e-18
2.5316e-19
3.70384e-22
1.71056e-25
1.02648e-28
6.70104e-32
4.60104e-35
3.16224e-38
2.17001e-41
1.48879e-44
1.01839e-47
6.92918e-51
4.72752e-54
3.21548e-57
2.18235e-60
1.47826e-63
1.00032e-66
6.75743e-70
4.5565e-73
3.06824e-76
2.06205e-79
1.37852e-82
9.24021e-86
6.18585e-89
4.13792e-92
2.75801e-95
1.83431e-98
1.22037e-101
8.10542e-105
5.37471e-108
3.55742e-111
2.34886e-114
1.54735e-117
1.01922e-120
6.70319e-124
4.39635e-127
2.88687e-130
1.89058e-133
1.23678e-136
8.05642e-140
5.25019e-143
2.92429e-145
0.999369
1.00422
0.996014
0.92337
0.990042
1.00891
2.81256e-07
7.71501e-15
5.22058e-18
5.01788e-19
4.63022e-21
2.18485e-23
1.02351e-26
1.47625e-30
8.32986e-34
6.18044e-37
4.39274e-40
3.08636e-43
2.16732e-46
1.51994e-49
1.06472e-52
7.44847e-56
5.20081e-59
3.62775e-62
2.52484e-65
1.75436e-68
1.21777e-71
8.43494e-75
5.83165e-78
4.03167e-81
2.78174e-84
1.91609e-87
1.31848e-90
9.04981e-94
6.19332e-97
4.23591e-100
2.89326e-103
1.97191e-106
1.34212e-109
9.11479e-113
6.17626e-116
4.17957e-119
2.82417e-122
1.90534e-125
1.28411e-128
8.63619e-132
5.79413e-135
3.88099e-138
2.59408e-141
1.29351e-144
1.02449
1.03298
1.01895
1
0.997698
1.03311
0.136239
1.84113e-12
2.06938e-15
1.66215e-18
3.41654e-20
3.8381e-23
1.72845e-26
1.11122e-29
7.59393e-33
5.17758e-36
3.52221e-39
2.3931e-42
1.62531e-45
1.10273e-48
7.47354e-52
5.05641e-55
3.41392e-58
2.30594e-61
1.55254e-64
1.04484e-67
7.02321e-71
4.71702e-74
3.17147e-77
2.11653e-80
1.41475e-83
9.45332e-87
6.29146e-90
4.18745e-93
2.78767e-96
1.84713e-99
1.22466e-102
8.10789e-106
5.35575e-109
3.53408e-112
2.32833e-115
1.54025e-118
1.0102e-121
6.63623e-125
4.33407e-128
2.83693e-131
1.85351e-134
1.20951e-137
7.87746e-141
3.31769e-144
0.76553
0.94597
1.05165
1.28274
0.874653
0.998173
0.673546
3.3733e-11
3.02433e-14
2.81816e-17
4.91688e-19
7.16317e-22
3.83035e-25
2.08674e-28
1.39076e-31
9.57985e-35
6.54896e-38
4.46565e-41
3.04021e-44
2.06622e-47
1.40369e-50
9.52158e-54
6.44677e-57
4.36171e-60
2.94607e-63
1.98645e-66
1.33851e-69
9.00449e-73
6.04576e-76
4.0546e-79
2.71495e-82
1.81466e-85
1.21189e-88
8.08047e-92
5.37906e-95
3.57741e-98
2.37481e-101
1.57352e-104
1.04145e-107
6.88644e-111
4.54669e-114
2.99807e-117
1.97389e-120
1.29713e-123
8.51503e-127
5.58092e-130
3.65169e-133
2.38712e-136
1.55748e-139
6.0531e-143
0.86503
0.922903
0.992268
0.989155
1.01955
1.02821
0.792416
3.6256e-11
3.41131e-14
3.26273e-17
5.07345e-19
7.25708e-22
3.93871e-25
2.17611e-28
1.44949e-31
9.95329e-35
6.79007e-38
4.62012e-41
3.13914e-44
2.12911e-47
1.44246e-50
9.76453e-54
6.59968e-57
4.45524e-60
3.00321e-63
2.021e-66
1.35953e-69
9.13156e-73
6.12339e-76
4.10231e-79
2.74159e-82
1.82931e-85
1.22027e-88
8.13117e-92
5.40595e-95
3.5907e-98
2.3813e-101
1.57692e-104
1.0434e-107
6.89299e-111
4.54728e-114
2.99655e-117
1.97105e-120
1.29358e-123
8.48101e-127
5.55182e-130
3.62764e-133
2.36994e-136
1.54636e-139
6.01531e-143
0.832103
1.09737
1.16814
0.844864
1.01476
1.00474
0.5742
1.55728e-12
1.92886e-15
1.46122e-18
3.61279e-20
4.70543e-23
1.97501e-26
1.13507e-29
7.67385e-33
5.23628e-36
3.55086e-39
2.40814e-42
1.63059e-45
1.10387e-48
7.47509e-52
5.04997e-55
3.40245e-58
2.29588e-61
1.54479e-64
1.03819e-67
6.97677e-71
4.68216e-74
3.1382e-77
2.10316e-80
1.40386e-83
9.38357e-87
6.26497e-90
4.17602e-93
2.7835e-96
1.84832e-99
1.22733e-102
8.14421e-106
5.39669e-109
3.56524e-112
2.35576e-115
1.55532e-118
1.02461e-121
6.73828e-125
4.42681e-128
2.90388e-131
1.90536e-134
1.2454e-137
8.14723e-141
3.46464e-144
1.00814
1.01983
1.16424
1.0794
1.02219
1.01048
0.0556534
1.55484e-14
1.35173e-17
5.3386e-19
4.00648e-21
1.7044e-23
7.79207e-27
1.19718e-30
6.85098e-34
5.06807e-37
3.59759e-40
2.52658e-43
1.7732e-46
1.24302e-49
8.70625e-53
6.0877e-56
4.2489e-59
2.96256e-62
2.06219e-65
1.43262e-68
9.93845e-72
6.8828e-75
4.75802e-78
3.28629e-81
2.26722e-84
1.56123e-87
1.07333e-90
7.36353e-94
5.04171e-97
3.44845e-100
2.35418e-103
1.60386e-106
1.09161e-109
7.41389e-113
5.02394e-116
3.40007e-119
2.29693e-122
1.54841e-125
1.04247e-128
7.00524e-132
4.69526e-135
3.14346e-138
2.10222e-141
1.10082e-144
1.08032
1.04108
1.05775
1.0219
1
0.986489
2.05584e-08
4.89084e-15
5.00236e-18
2.13053e-19
3.21278e-22
2.76906e-25
1.3114e-28
6.55983e-32
4.44875e-35
3.11585e-38
2.15776e-41
1.49031e-44
1.02765e-47
7.07394e-51
4.86499e-54
3.33962e-57
2.28822e-60
1.56584e-63
1.07048e-66
7.30037e-70
4.9741e-73
3.38354e-76
2.29742e-79
1.55783e-82
1.05523e-85
7.12227e-89
4.80487e-92
3.23504e-95
2.17407e-98
1.45956e-101
9.78166e-105
6.54473e-108
4.37425e-111
2.9187e-114
1.94225e-117
1.29131e-120
8.57283e-124
5.67488e-127
3.75487e-130
2.48173e-133
1.63555e-136
1.07678e-139
7.06838e-143
2.99558e-145
1.10148
1.02543
1.02268
1.02128
0.932025
0.999658
8.92719e-12
5.21448e-15
7.8679e-17
4.71252e-19
1.9988e-21
6.75218e-25
7.52002e-29
4.47737e-32
3.25892e-35
2.26836e-38
1.56747e-41
1.08303e-44
7.47503e-48
5.15032e-51
3.54434e-54
2.43428e-57
1.66935e-60
1.14402e-63
7.8258e-67
5.34418e-70
3.64692e-73
2.48425e-76
1.68872e-79
1.1474e-82
7.78066e-86
5.26339e-89
3.55616e-92
2.39895e-95
1.61561e-98
1.087e-101
7.30101e-105
4.89424e-108
3.27667e-111
2.19003e-114
1.46131e-117
9.74001e-121
6.48036e-124
4.30156e-127
2.85185e-130
1.88759e-133
1.24718e-136
8.23146e-140
5.41868e-143
2.92975e-145
1.05321
1.02327
1.31172
1.0293
1.0016
0.847592
3.22399e-13
2.11867e-15
3.68989e-17
8.78824e-21
4.23955e-25
8.23694e-29
3.15564e-32
1.31965e-35
5.41119e-39
2.37229e-42
9.13175e-46
3.89414e-49
1.73222e-52
1.0698e-55
3.27145e-59
1.58306e-62
7.04132e-66
2.30889e-69
1.62127e-72
1.96019e-75
8.13806e-79
2.78738e-82
5.74333e-85
1.6293e-88
4.80613e-91
9.54606e-95
3.40759e-98
7.85354e-101
2.30629e-104
1.52138e-107
1.91162e-110
8.03569e-114
8.08788e-117
1.21836e-119
1.54272e-123
2.07111e-127
4.66724e-130
3.61742e-133
3.19485e-136
1.5996e-138
2.30542e-142
4.12747e-145
3.28015e-146
1.16751e-147
0.830312
0.96669
0.695282
0.95286
1.00434
1
6.25304e-11
-1.15643e-18
-3.80167e-24
1.6728e-20
1.8892e-22
2.0172e-26
1.96992e-30
7.05513e-34
2.84324e-37
1.15348e-40
7.31979e-44
2.67594e-46
7.07398e-50
6.89751e-54
2.502e-57
9.91687e-61
4.54601e-64
1.64156e-67
7.37807e-71
3.81431e-74
1.53681e-77
5.7216e-81
2.85554e-83
3.59031e-87
2.81931e-90
3.5305e-93
3.89132e-97
3.15101e-100
3.33201e-103
2.11109e-106
3.81859e-110
1.9078e-113
6.45274e-115
2.63172e-118
1.69232e-122
2.5945e-126
1.60959e-129
4.3099e-131
1.08039e-134
3.68989e-139
1.97497e-141
3.78702e-145
6.912e-146
2.68651e-147
0.691567
1.03722
0.957168
0.984848
1.01937
0.999487
2.03331e-07
-1.09473e-17
-2.24854e-21
5.80395e-20
2.81139e-21
7.08506e-24
9.21777e-28
7.87829e-32
2.77178e-35
1.15218e-38
4.81797e-42
2.02244e-45
8.47841e-49
3.48901e-52
1.47683e-55
6.04035e-59
2.6064e-62
1.09979e-65
4.61397e-69
1.88238e-72
9.05634e-76
3.62028e-79
2.05428e-82
2.37358e-85
5.72687e-89
1.96663e-92
1.0738e-94
1.97216e-98
6.72065e-102
8.22733e-105
3.9278e-108
1.73436e-111
8.8932e-115
2.96941e-117
2.44103e-120
2.79354e-124
1.4493e-127
3.05694e-130
4.64222e-133
3.37832e-137
1.37678e-139
7.78754e-143
2.80632e-145
2.27792e-146
1.00649
1.00051
1.02715
1.00852
1.01322
1.03748
0.135577
-2.92989e-17
-1.79888e-19
-4.53415e-22
1.54403e-21
1.50573e-23
1.40686e-27
1.41596e-31
5.44213e-35
2.20076e-38
8.91523e-42
3.65763e-45
1.46064e-48
5.95425e-52
2.42191e-55
9.56253e-59
4.40064e-62
2.35936e-65
8.91988e-69
4.15011e-72
1.13377e-75
6.8857e-78
4.53945e-81
1.68373e-85
6.33279e-88
5.99957e-91
2.39845e-94
2.7807e-98
2.1193e-101
1.61024e-104
9.88777e-108
1.12486e-110
6.42575e-115
5.97283e-117
1.23798e-120
6.92268e-123
7.52806e-126
1.12835e-129
3.85019e-133
1.1319e-135
7.4781e-139
2.89943e-143
2.73901e-145
2.4252e-146
1.03545
1.04869
0.967849
0.692806
1.04135
1.04097
0.673349
-5.65838e-16
-2.46063e-18
-8.62396e-23
3.03646e-20
2.97696e-22
2.65652e-26
3.00046e-30
1.18301e-33
4.7919e-37
1.93611e-40
7.86127e-44
3.27195e-47
1.32974e-50
5.1645e-54
2.09416e-57
8.73992e-61
3.54196e-64
1.96637e-67
1.00419e-70
2.89247e-74
9.74678e-78
4.94252e-81
6.75566e-84
5.25466e-87
4.80129e-91
2.29199e-93
6.03318e-97
1.96463e-99
1.31454e-103
3.32011e-106
1.73833e-109
1.1962e-111
2.51531e-115
2.02444e-119
3.30462e-121
5.02715e-125
3.76357e-128
6.94064e-132
1.28918e-135
4.27239e-137
1.47374e-140
1.12126e-143
2.16601e-145
1.03131
0.984332
1.00135
1.01995
1
1.01399
0.792246
-2.10988e-16
-1.41691e-18
-7.57235e-21
3.20224e-20
2.99736e-22
2.68405e-26
3.12753e-30
1.22084e-33
4.95087e-37
2.00459e-40
8.1586e-44
3.28473e-47
1.44254e-50
5.47089e-54
2.65946e-57
9.25244e-61
3.51179e-64
1.41703e-67
9.98984e-71
2.58481e-74
9.2626e-78
3.72245e-81
3.12076e-83
5.01661e-86
2.25756e-89
6.39629e-93
1.29403e-96
1.19507e-100
6.05612e-103
3.25545e-106
2.80733e-109
1.23942e-113
3.33614e-115
1.05188e-118
4.27788e-123
1.42802e-124
4.60274e-128
1.42873e-131
6.78299e-136
3.94497e-139
8.0068e-141
1.42826e-144
1.05843e-145
0.849654
1.0522
1.21331
0.999885
1.123
1.0088
0.574102
-1.81351e-17
-4.6659e-20
-2.38818e-22
1.58375e-21
1.56274e-23
1.7005e-27
1.46216e-31
5.48864e-35
2.2103e-38
8.91118e-42
3.70136e-45
1.45766e-48
5.99851e-52
3.86055e-55
1.03683e-58
4.18289e-62
2.06559e-65
9.59161e-69
2.58259e-72
1.24489e-75
4.7335e-78
2.97174e-81
1.90334e-85
6.01759e-89
2.16803e-92
8.68221e-96
1.52213e-98
9.35654e-101
2.43822e-104
3.35712e-108
2.93417e-110
5.2616e-114
3.6918e-117
1.62178e-120
1.76113e-124
1.42325e-126
4.10817e-130
4.69415e-133
2.7015e-137
1.17928e-138
3.82049e-142
3.04724e-145
3.03976e-146
1.0122
0.998491
1.0304
1.02525
1.05126
1.00101
0.0535699
-2.27691e-18
-1.78278e-21
3.59479e-20
5.30051e-22
3.725e-25
3.72807e-29
5.82718e-33
2.22188e-36
9.24366e-40
3.91939e-43
1.64812e-46
7.78502e-50
3.22986e-53
1.24576e-56
5.74133e-60
2.90607e-63
9.1666e-67
2.36786e-69
3.89737e-73
1.42953e-76
1.13515e-79
4.84618e-83
3.59612e-85
4.37568e-89
1.02614e-92
2.60699e-95
1.26824e-98
1.51325e-102
3.1883e-105
2.02727e-108
1.0751e-111
1.39918e-114
7.65043e-117
1.00239e-120
3.03322e-123
8.10038e-127
6.148e-131
2.8484e-134
1.54392e-137
2.3773e-140
1.12897e-143
2.7113e-145
1.99733e-146
1.01916
0.988292
0.956204
0.997172
0.793869
0.973688
1.31555e-08
-1.07257e-17
-1.36555e-22
1.3455e-20
1.55192e-22
1.73561e-26
1.56506e-30
5.75185e-34
2.34405e-37
9.61129e-41
4.03383e-44
1.63184e-47
6.76912e-51
2.79713e-54
1.09786e-57
4.93802e-61
1.8628e-64
8.06394e-68
3.0926e-71
1.24487e-74
1.12738e-77
2.53584e-81
1.02875e-84
5.7375e-88
1.02588e-89
2.34883e-93
2.10661e-96
1.71016e-99
8.12758e-103
3.08438e-106
1.72558e-109
1.21189e-112
7.48674e-117
6.24324e-119
7.84176e-123
1.03854e-126
8.02291e-129
1.56171e-131
2.06508e-135
1.1133e-138
1.74555e-141
9.4607e-145
8.54397e-146
3.23497e-147
1.04567
1.02954
0.951362
1.00052
1.01804
0.999671
4.13682e-12
3.50831e-15
3.47049e-17
3.18038e-20
2.68739e-23
2.0249e-27
3.22001e-31
1.24477e-34
5.15772e-38
2.22638e-41
8.96901e-45
4.07462e-48
1.61883e-51
6.40086e-55
2.79847e-58
1.34867e-61
4.96737e-65
2.26777e-68
1.6919e-71
4.01866e-75
8.18169e-78
1.07428e-81
1.26594e-83
3.27544e-87
3.39233e-91
3.96637e-93
1.74288e-96
8.20721e-101
7.535e-104
3.99135e-106
1.86747e-109
1.6471e-113
3.0035e-115
7.19247e-119
3.80859e-122
1.18848e-124
3.52839e-128
1.01514e-131
3.51903e-135
7.36441e-138
3.87926e-141
3.30971e-144
1.26355e-145
3.09169e-147
-2.11824e-21
1
-1.44188e-20
0.84195
2.40731e-10
1.00241
3.72066e-09
-4.97739e-18
1
0.0556559
0.999996
1.18345e-07
0.993662
0.0625557
0.149062
1.06752
0.722193
1.00858
0.154257
1.06386
0.722872
0.856346
0.986823
1
1.02437
0.855815
1.06871
1.00002
1.00002
0.995439
1.00003
0.953584
1.0001
0.973104
1.00012
1.00007
0.980896
1
1.02192
1.00013
0.997075
1.00004
1
0.958779
0.856302
0.971119
1.00004
1.04975
0.857124
0.730693
0.997097
0.132944
1.01295
0.732588
0.997565
0.135257
0.0551392
1
-1.02336e-15
0.99994
0.0581152
1.00001
1.71006e-07
-1.11382e-14
0.811911
-4.0952e-16
0.999719
4.38781e-09
0.797204
2.20226e-10
5.50331e-10
1.0042
7.58463e-09
0.846781
5.06387e-10
1.00884
8.58759e-09
1.64884e-07
0.993655
0.06395
0.999906
1.51346e-07
0.993887
0.0647238
0.155744
1.05845
0.722064
1.00345
0.159733
1.03187
0.723004
0.855127
1.09701
1.0001
1.03641
0.855548
1.0765
1.00002
1.00093
1.0054
1.00096
1.07108
1.00003
0.995268
1.00015
1.00117
0.999591
1.00053
1.02794
1.00017
1.01144
1.00003
1.00067
1.06597
0.855412
1.01081
1.00007
1.06212
0.856027
0.732706
0.987714
0.139459
0.999791
0.733475
0.954895
0.143741
0.0604761
1
2.61266e-07
0.968049
0.0555401
1
2.20665e-07
7.05389e-09
0.794302
3.61213e-10
0.99992
7.21695e-09
0.785758
3.36893e-10
2.33047e-10
1.0101
5.53889e-09
0.842404
-1.29378e-21
1.0115
-4.94329e-20
7.51816e-08
0.995071
0.0637064
1.00243
-3.90759e-19
1.00275
0.0569493
0.158289
1.02061
0.723339
0.999073
0.151843
1.0125
0.722646
0.855274
1.08319
1.00004
1.03323
0.855874
1.07819
1
1.00096
0.992244
1.001
1.02533
1.00001
1.00833
1.00006
1.00114
1.01225
1.00046
1.00783
1.00002
1.0098
1.00001
1.00063
1.0513
0.856689
1.00069
1.00001
1.01397
0.857065
0.733575
0.983209
0.142033
0.995358
0.73252
0.968482
0.137832
0.0559258
1.00011
1.42528e-07
0.995589
0.0496412
1
-1.05863e-15
4.19137e-09
0.783051
1.91431e-10
1.00084
-1.16858e-14
0.780808
-9.64788e-16
1.0003
1.00562
0.992919
0.965903
1.00111
0.996569
1.00083
0.152629
0.111819
0.899708
0.84312
0.89294
0.143767
0.116524
-9.48981e-20
-8.54095e-21
-9.60048e-20
3.32306e-13
5.01685e-15
3.29284e-12
4.20491e-15
0.994681
0.97529
0.991898
0.998556
0.954945
0.970174
1.00115
0.977731
0.800733
0.999987
0.999996
0.797835
0.999963
0.978502
-8.10603e-19
-3.27944e-19
-6.54218e-17
9.78194e-11
1.83282e-12
8.88465e-09
9.60074e-13
0.992378
1.00958
1.15493
0.983286
1.00603
0.991075
1.09929
0.999261
1.00062
1.00223
0.978391
0.999982
0.985618
1.00013
-2.42911e-18
0.0447176
-8.46332e-17
2.37493e-07
4.81166e-12
0.0516682
3.06841e-12
1.07858
1.01307
0.99828
0.986723
1.06019
0.879147
0.999168
1
0.998362
0.942861
1.00257
0.996547
0.944774
0.999934
-1.62584e-15
0.562048
-9.03229e-15
0.135047
7.66964e-10
0.562335
7.66973e-10
1
0.998316
0.953854
0.820332
0.212736
0.942346
1.00317
1.00021
0.997921
0.947602
0.9114
0.994201
0.951215
1.00208
-1.35033e-14
0.79426
-1.33945e-15
0.675111
1.69853e-08
0.794854
1.69853e-08
0.975676
1.05305
1.03363
0.990555
1.00026
1.0843
1.02412
1.00915
1.00641
1.05566
1.015
1.00739
1.05558
1.0089
-1.34696e-14
0.678072
-4.72451e-15
0.794816
1.80677e-08
0.679987
1.80676e-08
0.99119
1.01341
1.0815
1.04164
0.958058
1.01151
1.09734
0.998307
0.987282
0.969891
0.908159
0.9828
0.910029
0.996074
-6.29608e-16
0.129711
-1.22017e-16
0.573189
6.66928e-10
0.13437
7.77767e-10
0.997764
1.0174
1.03916
0.981238
1.01312
1.73738
0.865658
1.00265
1.00034
0.979672
0.984399
1.00014
1.00689
1.00237
-3.62882e-16
-3.13582e-17
-8.20215e-18
0.0551878
5.33817e-12
4.9785e-07
7.17486e-12
0.999443
0.992447
0.994237
1.03343
1.09097
0.975562
0.994516
0.997772
1
0.98998
0.998571
1.00075
0.997698
0.99798
-9.66079e-17
-6.48138e-16
-3.62552e-17
1.21489e-08
1.64532e-12
1.79166e-10
2.23808e-12
1.00454
0.93433
0.996702
1.02025
1.00888
0.993989
1
0.351578
0.536279
1.00073
0.999657
0.535797
1.0016
0.35286
-7.44496e-19
-8.30879e-16
-2.32709e-19
4.33428e-12
2.62359e-15
2.13739e-13
4.91497e-15
1.00127
1.00038
1.0029
1.0001
1
1.01104
1.0036
0.155307
0.122089
0.891655
0.846267
0.155861
0.891894
0.119644
7.17615e-15
1.03396e-11
4.08236e-15
8.55312e-13
7.17623e-15
1.297e-11
3.80407e-15
0.954275
0.965399
0.974171
0.960416
0.996898
0.981466
0.962828
0.976501
0.792605
0.999592
0.995063
0.978055
0.801656
0.998988
6.77715e-12
1.27963e-08
3.41825e-12
1.66728e-10
6.89824e-12
1.2488e-08
3.41826e-12
1.028
0.944539
1.08067
0.986507
1.03686
1.01471
1.01563
0.994605
1.00132
0.969754
1.01634
0.996424
1.00054
0.993061
2.21684e-11
0.0526581
1.22283e-11
2.31974e-07
2.21711e-11
0.0522608
1.22283e-11
1.06002
0.862962
0.856283
0.976678
1.0419
0.865698
0.748156
0.998026
1.00285
0.953387
1.03391
0.992244
1.0027
0.983097
3.70649e-09
0.561714
2.62911e-09
0.135808
3.79378e-09
0.562591
2.62911e-09
0.139115
0.990773
1.08302
0.998601
1.8348
1.05696
0.955162
0.999673
1.00068
0.92633
1.05557
0.999963
1.00176
1.11324
4.54367e-08
0.792738
4.54369e-08
0.675138
4.54367e-08
0.7944
4.54369e-08
1
1.02854
1.00492
1.00852
1
1.03151
1.01704
1.00278
1.00697
1.01998
1.01687
1.00748
1.0067
1.0082
4.82045e-08
0.679193
4.82045e-08
0.794301
4.82045e-08
0.68
4.82045e-08
1.04411
0.977137
1.08108
1.14579
1.14404
1.04936
1.05619
1.0019
1.00186
0.992904
1.03695
0.999871
1.00322
1.02359
2.17737e-09
0.136281
3.39792e-09
0.572135
2.17737e-09
0.135253
3.36624e-09
1.0634
1.04545
0.829876
1.00059
1.05364
1
0.938395
0.999231
1.00106
0.999689
1.00298
1.0009
1.00079
0.989359
2.3161e-11
6.1815e-07
3.73881e-11
0.0546184
2.3161e-11
5.70284e-07
3.73658e-11
1.01287
0.791002
0.998557
0.969022
0.985423
0.987829
0.996624
0.996669
1
0.982823
0.972497
0.996475
0.998848
0.991921
7.00015e-12
3.58174e-10
1.02432e-11
2.12235e-08
7.00074e-12
3.04787e-10
1.03825e-11
1.01012
0.990003
1
1.02553
1.0108
0.966193
1
0.34881
0.534607
1.00282
0.999598
0.34976
0.534063
1.00385
8.46622e-15
4.56473e-13
1.02149e-14
9.12389e-12
8.13555e-15
3.81149e-13
1.02181e-14
1
0.997329
1.00288
0.990604
1
1.00346
1.00718
0.158328
0.118324
0.88683
0.844475
0.160195
0.88628
0.118105
3.39514e-15
4.90049e-12
1.90747e-15
-1.23027e-17
-9.72844e-20
-1.57027e-20
-1.26975e-19
0.994802
1.02217
0.996807
1.00814
0.986451
1.04663
1.01674
0.972661
0.810129
1.00058
1
0.975365
0.807357
1.00093
1.79095e-12
8.72757e-09
9.46937e-13
-1.63284e-20
-9.11798e-19
-1.2787e-19
-7.24965e-17
1.02933
0.993699
1.00023
1.00432
1.00278
0.989121
1.0195
1
0.999945
0.997614
0.999997
0.998872
0.999933
1.00006
4.58129e-12
0.0515676
2.91852e-12
-1.65805e-18
-2.50811e-18
0.044593
-1.14603e-16
1.03575
0.935294
0.961723
0.92458
1.07127
0.906981
1.05969
1.00152
1.00079
0.998573
1.03685
1.00244
1.00057
1
8.04038e-10
0.561091
8.04041e-10
0.128064
-1.6226e-15
0.560515
-8.04512e-15
1.2849
1.06339
1
1.00294
1.04921
1.01649
1
1
1.00127
1.039
1.04007
1
1.00061
1.03125
1.69383e-08
0.792689
1.69383e-08
0.674351
-1.41259e-14
0.793914
-1.386e-15
1.00667
1.03235
1.01976
0.948029
1
1.0411
1.0299
0.995151
1.00334
0.910995
1.03685
1
1.00221
0.915289
1.80218e-08
0.679439
1.80218e-08
0.793185
-1.28808e-14
0.677892
-4.48376e-15
1.09259
1.04812
1.03736
1.06034
1.01696
1.04881
0.919676
1.00278
1.00168
1.01965
0.992974
1.00291
0.998916
1.01283
6.3014e-10
0.134334
6.82993e-10
0.571089
-6.36261e-16
0.128968
-1.1295e-16
1.0343
0.444554
0.997862
1.08247
0.975038
0.950798
0.988475
0.996971
0.999956
0.844172
1.00013
1
0.998033
0.862561
5.37451e-12
4.42806e-07
7.23752e-12
0.0466989
-3.52997e-16
-2.0664e-17
-6.10824e-18
0.998787
0.997269
0.994476
0.967047
1.0234
1.00239
0.996498
1.00155
0.999244
1.03233
0.978929
1
0.999587
1.04156
1.76858e-12
1.49729e-10
2.39612e-12
-5.47851e-16
-8.98066e-17
-5.02321e-16
-3.17771e-17
1.01003
0.964429
0.999952
0.987671
0.996802
1.00432
1
0.352372
0.532132
1
0.99988
0.351205
0.531229
1.00024
2.29293e-15
1.86028e-13
4.2713e-15
-2.49988e-16
-6.0861e-19
-7.15149e-16
-2.2494e-19
1.09715e-07
-4.13839e-16
-1.48686e-21
2.69835e-11
2.69823e-11
-1.32375e-16
8.48061e-08
0.372794
1.00025
0.594298
1
1.0003
0.594641
0.372585
3.07768e-05
-2.8639e-23
0.00704353
6.02966e-10
6.02966e-10
0.00852274
1.19179e-05
0.149009
0.842789
0.121422
0.895946
0.896479
0.150894
0.118088
2.54811e-07
3.10506e-10
2.18284e-07
2.40732e-10
2.40732e-10
3.98589e-07
1.57468e-07
0.37295
1.00115
1.00144
0.591532
1.00049
0.592777
0.372366
4.38712e-05
3.72066e-09
3.72066e-09
0.011125
3.72066e-09
0.00936988
5.21012e-05
0.274899
0.0762701
-2.30536e-20
2.5251e-08
0.0783407
2.5251e-08
0.27342
0.992318
0.999983
1
0.999977
0.999778
0.999957
0.99333
0.464962
0.00298933
0.725363
0.0589427
0.00477119
0.723793
0.463011
0.978178
1
0.785368
0.999589
0.79388
0.99996
0.979015
0.274766
1.18345e-07
0.0904262
1.18345e-07
0.0829911
1.18345e-07
0.274334
0.98697
0.995075
0.977025
0.999227
0.982384
0.999741
0.982475
0.471937
0.0605976
0.0020986
0.723291
0.00475935
0.722917
0.48588
0.995048
0.877753
0.34349
0.151601
0.877445
0.350273
0.999098
0.997014
0.998942
1.01157
1.06981
0.999151
1.00818
0.998492
1
0.53653
1.00038
0.723256
0.538499
1.00088
0.999997
0.997506
0.991084
1.00161
0.967312
1.0006
0.976659
0.996953
0.99363
0.152962
0.87656
0.357404
0.876242
0.35245
0.990992
0.999707
1.06639
1.01058
1.01293
1.01006
1.01181
0.999997
1.00001
0.721141
0.535335
1.00083
0.538103
1.00154
1
1
1
0.948254
0.856208
1
0.948366
0.999956
1.00346
1.01193
0.997997
0.992315
1.0173
0.994347
1.00292
1.00051
1.00001
0.999999
1.00003
1
0.999866
1.00084
1
1.03035
1.00166
0.924338
1.00192
0.941866
0.998422
1.0002
0.854764
1.00002
0.947237
1.0002
0.947177
1
1.00489
1.03106
1.02395
1.00113
1.02013
1.00112
1.00363
1.00107
1.00065
1
1.0003
1
1.00064
1.00056
1.00034
1.00008
1.00005
1.00007
1.00013
1.00013
1.001
0.999491
1.00916
1.00002
1.06251
0.997424
1.00017
1.00012
1.00011
1.00008
1.00016
1.00013
1.00016
1.00032
1.00077
0.999789
0.91659
1
0.923077
0.997228
0.978779
1
1.00063
1.00095
1.00031
1.00013
1.00081
1.0008
1.00037
0.992112
1.02493
0.904968
0.999901
0.993783
1.00029
0.991124
1.00007
1.00103
1.00018
1.00038
1.00079
1.0007
1.00006
1.00074
1.00072
1.0001
1.00015
1.00069
1.00011
1.00129
0.988204
0.99828
0.995285
0.924957
0.947129
0.995284
0.993567
1
1.00006
1
1.00002
1.00014
1.00009
0.999861
1.00985
1.02345
1.0075
1.03541
1.00792
1.04784
1.00773
1.00146
1.00118
1.00061
1.00015
1.00098
1.00126
1.00095
0.981543
0.915211
1
0.998386
0.922516
0.998606
0.988893
1
1.00053
1.00018
1.00029
1.00105
1.00064
0.999769
1.00005
0.999802
1.00004
1
1.00002
1.00001
1.00053
0.995827
1.00201
0.999649
1.0304
0.98832
1.00344
1.00028
0.999894
0.953071
1.00008
0.856938
0.952365
1.00011
1.00002
0.996943
0.908373
0.998638
0.970948
0.998932
0.929021
0.999037
1.00037
1.00057
1.00008
1.00002
1.00097
1.00029
1.00014
0.999892
1.07756
1.00738
1.0041
1.02063
1.00388
1.00147
1.00008
0.8572
0.951204
1.00033
0.951452
1.00026
1.00011
1
1
0.554279
0.731665
1
0.55499
1.00013
1.00224
0.966397
1
0.993827
0.976595
0.999863
1.00547
1
0.418412
0.874646
0.131834
0.418692
0.878172
1.00013
1.00281
1.03068
1.00132
1.02006
1.00096
1.01897
1.0029
1.00013
0.731668
1.00001
0.556193
1.00011
0.555106
1.00011
1.00216
0.972092
1.01108
1
1.00754
0.999757
1.00171
1
0.131587
0.420071
0.87657
0.419029
0.877608
1
0.447514
0.733914
0.000315709
0.0565421
0.736215
0.00048235
0.447808
0.978803
1.00352
0.755743
1.00001
1.00348
0.756732
0.980359
0.231251
-5.52974e-18
0.0628178
4.71861e-08
4.71861e-08
0.0659513
0.228901
0.996648
0.978792
0.999979
0.963676
1
0.972686
0.996994
0.444936
0.0582977
0.739204
0.000982761
0.733441
0.000689919
0.44724
0.973158
1
1.0051
0.758158
1.0037
0.761497
0.972282
0.238338
1.71006e-07
1.71006e-07
0.0678218
1.71006e-07
0.060662
0.240025
2.58587e-07
0.0067257
-2.445e-15
8.05752e-10
0.00722712
8.18751e-10
-4.33885e-19
0.118429
0.835679
0.0877252
0.816537
0.832075
0.11204
0.0855299