/*--------------------------------*- C++ -*----------------------------------*\
| =========                 |                                                 |
| \\      /  F ield         | OpenFOAM: The Open Source CFD Toolbox           |
|  \\    /   O peration     | Version:  5.0                                   |
|   \\  /    A nd           | Web:      www.OpenFOAM.org                      |
|    \\/     M anipulation  |                                                 |
\*---------------------------------------------------------------------------*/
FoamFile
{
    version     2.0;
    format      ascii;
    class       volScalarField;
    location    "0.7";
    object      p;
}
// * * * * * * * * * * * * * * * * * * * * * * * * * * * * * * * * * * * * * //

dimensions      [1 -1 -2 0 0 0 0];

internalField   nonuniform List<scalar> 
9641
(
197.489
100.913
104.241
83.7227
79.1262
84.6867
88.737
88.2915
87.1153
85.4212
83.4369
81.2743
79.0124
76.7172
74.3939
72.0678
69.7441
67.4391
65.1532
62.8843
60.6137
58.3654
56.1426
53.9109
51.7036
49.5111
47.3241
45.1325
42.9577
40.8106
38.657
36.524
34.4242
32.3129
30.1913
28.0993
26.0621
24.0559
22.0576
20.055
18.0788
16.1459
14.215
12.2544
10.3229
8.43993
6.55466
4.66324
2.79228
0.933826
95.148
117.642
83.2676
89.0869
87.3117
87.8837
88.6012
88.279
87.0778
85.386
83.413
81.2562
79.0219
76.7213
74.391
72.0769
69.7426
67.4541
65.1712
62.8844
60.6188
58.3656
56.1329
53.9095
51.6897
49.495
47.3125
45.1357
42.9714
40.8132
38.6718
36.5414
34.4238
32.3073
30.1949
28.106
26.0563
24.0408
22.0432
20.0546
18.0847
16.1506
14.2222
12.2732
10.3291
8.4247
6.54029
4.66041
2.79532
0.933999
128.804
170.841
98.4796
74.6054
88.9861
90.4919
89.8914
89.5277
87.8522
85.8349
83.6951
81.4159
79.1059
76.7807
74.4333
72.0865
69.7711
67.4841
65.1945
62.8858
60.6213
58.3702
56.1253
53.9056
51.6904
49.489
47.3026
45.1414
42.9769
40.8173
38.6766
36.5389
34.3988
32.2862
30.1983
28.1191
26.0556
24.0313
22.0383
20.0554
18.0927
16.1452
14.2052
12.2741
10.3395
8.42337
6.53489
4.66186
2.7978
0.934094
100.175
98.4199
98.0515
63.0278
101.864
94.1643
94.2594
91.5164
89.0551
86.6029
84.1641
81.7348
79.2907
76.886
74.5043
72.1357
69.7969
67.4909
65.1822
62.895
60.6368
58.3731
56.133
53.9108
51.7113
49.5037
47.303
45.1476
42.9738
40.8065
38.6768
36.5326
34.3931
32.284
30.2074
28.1358
26.0609
24.0263
22.0387
20.0643
18.0966
16.134
14.1877
12.2606
10.3443
8.42575
6.53508
4.6685
2.80353
0.928966
124.845
154.512
76.5439
127.628
92.663
122.509
99.6894
93.2604
90.1743
87.3249
84.6237
82.0078
79.4783
77.0003
74.5848
72.1893
69.8391
67.5018
65.1727
62.9027
60.6431
58.3753
56.1393
53.9147
51.717
49.5174
47.3128
45.1427
42.9606
40.7991
38.6721
36.5282
34.3922
32.2835
30.2085
28.1451
26.0709
24.0308
22.0415
20.0701
18.095
16.1194
14.1666
12.2497
10.3416
8.42725
6.5426
4.68314
2.81145
0.926813
109.711
127.561
119.792
89.8674
107.353
100.578
101.368
94.369
90.9368
87.8361
84.9487
82.2137
79.6085
77.0873
74.6483
72.2339
69.8697
67.5197
65.1792
62.902
60.642
58.3734
56.1418
53.9261
51.7231
49.5301
47.3236
45.1381
42.955
40.7922
38.6658
36.5208
34.3842
32.2853
30.2113
28.1471
26.0823
24.0423
22.0451
20.071
18.0898
16.1079
14.1545
12.2409
10.3382
8.43207
6.55928
4.70685
2.82119
0.929878
108.981
107.555
98.2764
98.9766
111.624
106.483
102.812
95.0341
91.2862
87.9837
85.038
82.2654
79.6534
77.1168
74.6539
72.2377
69.8721
67.5303
65.1833
62.89
60.6343
58.3742
56.14
53.9343
51.7292
49.5316
47.3303
45.1355
42.957
40.8025
38.6604
36.5074
34.3765
32.2916
30.2152
28.1415
26.0871
24.0549
22.0471
20.0636
18.0827
16.0997
14.1506
12.2385
10.3336
8.43385
6.56515
4.7069
2.82678
0.938995
101.271
100.043
81.7704
101.009
107.597
113.552
104.872
94.6522
90.9238
87.6917
84.8191
82.1197
79.5585
77.0549
74.5936
72.2161
69.8483
67.5084
65.1911
62.8811
60.6221
58.3685
56.1379
53.9342
51.7243
49.5338
47.331
45.1313
42.9655
40.8064
38.6553
36.5045
34.3806
32.2985
30.2134
28.1313
26.0867
24.0664
22.0528
20.0578
18.0782
16.1113
14.1631
12.2431
10.3322
8.43609
6.56364
4.69575
2.82467
0.942873
107.966
98.6528
110.161
76.5921
84.5097
108.164
97.4707
92.134
89.4844
86.8688
84.3274
81.8281
79.3698
76.9357
74.5331
72.1712
69.8007
67.4783
65.1759
62.8848
60.611
58.3589
56.1409
53.9302
51.7337
49.5341
47.3281
45.1296
42.9599
40.8059
38.6436
36.5049
34.3992
32.3038
30.2067
28.1222
26.0808
24.0698
22.0568
20.0561
18.0762
16.1195
14.1793
12.244
10.3294
8.43741
6.55655
4.68464
2.81189
0.94421
118.631
96.9
93.1413
77.3629
71.7372
90.0475
91.6596
89.6047
87.9853
85.9653
83.7832
81.4859
79.1405
76.806
74.4511
72.1047
69.7674
67.4579
65.1576
62.8763
60.6085
58.359
56.1432
53.9176
51.7174
49.5279
47.3262
45.1308
42.9566
40.807
38.647
36.5143
34.416
32.312
30.1963
28.1065
26.072
24.0667
22.0598
20.0544
18.0761
16.1338
14.1925
12.2447
10.3204
8.4403
6.55983
4.674
2.80043
0.934092
121.16
109.109
95.0157
84.8346
79.8608
84.7158
88.7386
88.2918
87.1151
85.4212
83.437
81.2744
79.0122
76.7173
74.3939
72.0677
69.7441
67.4391
65.1532
62.8842
60.6136
58.3654
56.1426
53.9108
51.7036
49.5112
47.3239
45.1325
42.9576
40.8106
38.657
36.5239
34.4242
32.3128
30.1912
28.0993
26.0619
24.0559
22.0576
20.0548
18.0787
16.146
14.2151
12.2545
10.3229
8.43999
6.55457
4.66318
2.7923
0.933898
88.7596
104.632
84.9974
87.876
88.9924
87.882
88.6007
88.2789
87.0777
85.386
83.413
81.2562
79.0219
76.7212
74.3909
72.0767
69.7426
67.4542
65.1712
62.8843
60.6188
58.3657
56.1325
53.9094
51.6898
49.4949
47.3124
45.1357
42.9713
40.8132
38.6723
36.5415
34.4238
32.3073
30.1949
28.1059
26.0563
24.0408
22.043
20.0545
18.0847
16.1507
14.2221
12.273
10.3292
8.42472
6.54018
4.6604
2.79525
0.933947
130.2
141.497
93.0879
104.553
87.9845
90.275
89.874
89.5281
87.8531
85.8349
83.6951
81.4159
79.1059
76.7806
74.4333
72.0867
69.7711
67.4839
65.1944
62.8857
60.6212
58.3702
56.1252
53.9059
51.6903
49.489
47.3026
45.1414
42.9769
40.8174
38.6763
36.5388
34.3986
32.2863
30.1984
28.1191
26.0555
24.0313
22.0383
20.0554
18.0928
16.1453
14.2052
12.2739
10.3395
8.42334
6.53485
4.66189
2.79787
0.934084
97.6112
94.9244
114.411
100.069
99.6986
94.5041
94.109
91.5177
89.0551
86.6027
84.164
81.7348
79.2906
76.8859
74.5043
72.1357
69.7969
67.4908
65.1821
62.8949
60.6368
58.3731
56.133
53.9109
51.7113
49.5034
47.3031
45.1477
42.9739
40.8063
38.6767
36.5325
34.393
32.284
30.2074
28.1355
26.0607
24.0263
22.0387
20.0644
18.0966
16.134
14.1876
12.2608
10.3445
8.42572
6.53498
4.66846
2.80352
0.928857
120.596
106.004
90.6216
88.6392
106.989
102.391
99.7151
93.2604
90.174
87.325
84.6237
82.0072
79.4782
77.0003
74.5849
72.1894
69.839
67.5018
65.1726
62.9028
60.6432
58.3751
56.1392
53.9148
51.7167
49.5175
47.3129
45.1427
42.9604
40.799
38.6722
36.5282
34.3923
32.2835
30.2085
28.145
26.0711
24.0307
22.0415
20.0702
18.0949
16.119
14.1666
12.2496
10.3417
8.42723
6.54253
4.68304
2.81136
0.926858
113.153
114.625
128.403
99.2446
98.8119
101.113
101.412
94.369
90.9365
87.8362
84.9485
82.2135
79.6087
77.0873
74.6483
72.2339
69.8697
67.5198
65.1791
62.902
60.6423
58.3733
56.1418
53.9261
51.7231
49.5302
47.3234
45.138
42.9549
40.7924
38.6658
36.5203
34.384
32.2853
30.2112
28.1471
26.0822
24.0422
22.0451
20.071
18.0897
16.1074
14.1545
12.2409
10.3381
8.43205
6.55917
4.70686
2.82088
0.929846
108.973
110.956
99.6176
132.841
99.4744
109.5
102.875
95.0349
91.286
87.9837
85.038
82.2654
79.6534
77.1167
74.6539
72.2377
69.872
67.5301
65.1832
62.8901
60.6342
58.3741
56.14
53.9343
51.729
49.5316
47.3302
45.1356
42.9571
40.8024
38.6605
36.5073
34.3764
32.2915
30.2152
28.1414
26.0871
24.0549
22.047
20.0637
18.0827
16.0995
14.1506
12.2385
10.3335
8.43383
6.56529
4.70692
2.8268
0.939113
100.34
103.154
120.079
95.4074
104.834
109.598
104.7
94.6544
90.9238
87.6917
84.8191
82.1197
79.5585
77.0549
74.5936
72.2161
69.8487
67.508
65.1915
62.8811
60.6221
58.3686
56.1379
53.9342
51.7242
49.5338
47.331
45.1313
42.9653
40.8065
38.6552
36.5045
34.3806
32.2985
30.2134
28.1313
26.0867
24.0664
22.0528
20.0577
18.0781
16.1114
14.163
12.2431
10.3321
8.43607
6.56364
4.69573
2.82466
0.942994
123.597
104.856
128.202
102.924
61.9603
104.831
97.4671
92.1342
89.4844
86.8688
84.3274
81.8281
79.3697
76.9357
74.533
72.1714
69.8008
67.4776
65.1759
62.8849
60.6109
58.359
56.141
53.9301
51.7337
49.5341
47.3281
45.1296
42.9598
40.806
38.6436
36.5048
34.3993
32.3038
30.2066
28.1223
26.081
24.0697
22.0567
20.056
18.0763
16.1195
14.1793
12.2438
10.3293
8.43736
6.55649
4.6846
2.81192
0.944206
120.699
93.4229
93.682
74.4695
124.956
90.082
91.6622
89.605
87.9851
85.9653
83.7832
81.4856
79.1402
76.806
74.451
72.105
69.7674
67.4575
65.1577
62.8763
60.6084
58.359
56.1432
53.9176
51.7174
49.5278
47.3261
45.1308
42.9566
40.807
38.647
36.5143
34.4161
32.312
30.1959
28.1065
26.072
24.0667
22.0597
20.0544
18.0761
16.1338
14.1925
12.2444
10.3205
8.44038
6.5597
4.674
2.80051
0.93408
112.989
102.817
101.571
78.7719
79.915
84.7562
88.7373
88.2919
87.1152
85.4212
83.437
81.2745
79.0119
76.7172
74.3938
72.0674
69.7441
67.4395
65.1535
62.8839
60.6135
58.3655
56.1425
53.9106
51.7036
49.5112
47.3238
45.1325
42.9573
40.8105
38.657
36.5239
34.4241
32.3126
30.1911
28.0992
26.0618
24.0559
22.0575
20.0547
18.0785
16.146
14.2152
12.2546
10.3229
8.43998
6.55443
4.66307
2.79224
0.933862
154.604
117.081
140.984
88.2346
85.9016
87.9231
88.5992
88.2786
87.0777
85.3859
83.4129
81.2561
79.0218
76.7211
74.3909
72.0765
69.7425
67.4543
65.1712
62.8841
60.6188
58.3657
56.1323
53.9092
51.6899
49.4948
47.3121
45.1356
42.9715
40.8136
38.6723
36.5414
34.4236
32.3073
30.1948
28.1058
26.0562
24.0413
22.0429
20.0544
18.0847
16.1507
14.222
12.2725
10.3292
8.42472
6.53996
4.66035
2.79518
0.933748
235.653
157.705
96.2594
97.6392
90.043
91.9766
89.8603
89.5286
87.8535
85.8348
83.695
81.4158
79.1058
76.7806
74.4332
72.0868
69.771
67.4836
65.1943
62.8856
60.621
58.3701
56.125
53.9058
51.6902
49.4889
47.3027
45.1413
42.9769
40.8174
38.6758
36.5384
34.3985
32.2862
30.1984
28.119
26.0553
24.0313
22.0382
20.0553
18.0931
16.1455
14.2048
12.2737
10.3395
8.42321
6.53478
4.66183
2.79788
0.933754
97.6963
89.866
106.208
88.3085
97.2869
94.7032
94.1159
91.518
89.055
86.6024
84.164
81.7347
79.2906
76.8859
74.5042
72.1356
69.7968
67.4906
65.1821
62.8947
60.6368
58.373
56.133
53.911
51.7111
49.5031
47.3032
45.1476
42.9738
40.8062
38.6766
36.5324
34.3931
32.2839
30.2074
28.1354
26.0606
24.0263
22.0388
20.0643
18.0966
16.1339
14.1873
12.2609
10.3445
8.42564
6.53487
4.66838
2.80338
0.928531
106.293
113.509
94.9446
105.921
93.7715
108.147
99.7114
93.2595
90.1738
87.3252
84.6237
82.0064
79.478
77.0002
74.5849
72.1894
69.839
67.5017
65.1725
62.9028
60.6432
58.3746
56.1391
53.9149
51.7164
49.5175
47.313
45.1426
42.9604
40.7989
38.6722
36.5282
34.3922
32.2834
30.2085
28.145
26.0715
24.0307
22.0414
20.0701
18.0947
16.1185
14.1667
12.2496
10.3417
8.42716
6.54267
4.68293
2.81126
0.926769
109.348
79.2023
79.7365
96.4072
98.6019
98.4949
101.42
94.3682
90.9362
87.8362
84.9483
82.2134
79.6088
77.0872
74.6483
72.2338
69.8696
67.5198
65.1789
62.9019
60.6422
58.3732
56.1414
53.9261
51.7232
49.5299
47.3233
45.1378
42.9549
40.7929
38.6659
36.5201
34.3839
32.2852
30.2112
28.147
26.0822
24.0421
22.0451
20.0711
18.0896
16.107
14.1545
12.2409
10.3379
8.43198
6.55909
4.70688
2.82041
0.929811
107.639
103.807
127.684
105.974
99.5408
106.858
102.868
95.0327
91.286
87.9835
85.0379
82.2653
79.6533
77.1167
74.6538
72.2376
69.872
67.5299
65.1831
62.8901
60.6341
58.3741
56.14
53.9342
51.7289
49.5315
47.3302
45.1355
42.9574
40.8024
38.6603
36.5071
34.3765
32.2913
30.2151
28.1413
26.087
24.0549
22.0469
20.0637
18.0826
16.0994
14.1505
12.2385
10.3333
8.43376
6.56551
4.70689
2.82677
0.939108
101.584
91.6589
114.728
97.8668
104.315
110.436
104.732
94.6524
90.9239
87.6915
84.819
82.1196
79.5584
77.0548
74.5935
72.216
69.8489
67.5078
65.1917
62.881
60.622
58.3686
56.1381
53.9341
51.724
49.5338
47.3309
45.1309
42.9653
40.8065
38.6552
36.5043
34.3806
32.2984
30.2133
28.1312
26.0867
24.0662
22.0527
20.0578
18.078
16.1113
14.1629
12.243
10.332
8.436
6.56358
4.69568
2.82465
0.942967
114.528
98.4265
99.0527
104.875
81.4806
105.027
97.4718
92.1341
89.4847
86.8687
84.3273
81.828
79.3697
76.9356
74.533
72.1715
69.8016
67.4775
65.176
62.8849
60.6108
58.3589
56.1409
53.9301
51.7335
49.5341
47.328
45.1297
42.9598
40.8061
38.6435
36.5047
34.4
32.3037
30.2063
28.1223
26.081
24.0695
22.0566
20.0559
18.0763
16.1195
14.1792
12.2436
10.3293
8.43729
6.55639
4.68453
2.812
0.944118
111.416
94.1759
99.2018
74.4846
95.4434
90.2032
91.6599
89.605
87.9853
85.9652
83.7832
81.4855
79.1399
76.806
74.451
72.1052
69.7673
67.4574
65.1577
62.8762
60.6083
58.3589
56.1431
53.9176
51.7174
49.5277
47.326
45.1309
42.9565
40.8066
38.6469
36.5142
34.4166
32.3119
30.1958
28.1068
26.0719
24.0665
22.0597
20.0544
18.076
16.1337
14.1925
12.2443
10.3204
8.44032
6.55951
4.6738
2.8005
0.934009
88.1739
87.3361
87.9292
84.7042
88.1737
87.3327
87.9281
87.9749
89.7298
89.5388
87.8759
87.9615
89.5854
89.4368
90.2938
94.5889
94.1653
90.3098
90.1689
93.9268
94.1341
95.2655
112.917
99.7217
94.0539
95.3205
112.566
99.7231
100.294
104.918
100.826
102.832
100.298
103.955
100.823
101.301
98.3317
102.855
99.2479
101.307
108.049
102.876
103.21
123.28
106.126
109.679
103.238
107.886
106.164
107.687
109.853
104.336
110.208
107.704
111.84
104.136
101.617
93.0731
93.6404
108.8
101.541
93.0427
93.6431
92.0964
83.8229
88.4589
90.0561
92.0997
83.5314
88.4607
88.1724
87.3291
87.926
84.7469
88.1771
87.349
87.9325
87.9623
89.5772
89.4319
87.9411
87.9615
89.5783
89.4255
90.1593
93.3709
94.1243
91.8782
90.2322
92.5752
94.1246
95.3195
113.073
99.7065
94.6584
95.3281
109.77
99.6942
100.296
100.224
100.817
107.221
100.287
98.1732
100.807
101.307
107.933
102.884
101.062
101.31
108.451
102.895
103.25
108.785
106.156
106.913
103.271
110.833
106.142
107.709
109.086
104.134
110.423
107.7
113.166
104.208
101.579
93.0238
93.6384
105.335
101.591
93.03
93.6481
92.0969
83.7068
88.4564
90.1762
92.0928
83.9636
88.4532
88.179
87.3495
87.9374
84.7045
88.1772
87.3423
87.9378
87.9764
89.5441
89.4342
87.9159
87.9646
90.0225
89.5459
90.2358
92.6031
94.1478
91.9083
90.3338
93.9761
94.1284
95.3314
109.216
99.6796
96.0302
95.2717
108.652
99.6663
100.286
98.4588
100.812
109.665
100.267
100.398
100.805
101.316
108.279
102.896
99.0815
101.307
109.085
102.886
103.275
109.511
106.132
106.017
103.273
110.836
106.114
107.694
106.192
104.194
110.677
107.67
105.684
104.373
101.588
93.0338
93.6527
107.621
101.651
93.06
93.6467
92.0948
83.9821
88.4555
90.2238
92.0917
83.8517
88.458
83.6139
83.8202
86.8467
80.9028
83.6174
84.4891
86.691
86.4493
86.5116
85.1252
84.6902
85.1276
86.5607
86.3922
88.7603
88.4433
88.437
88.7375
88.7653
88.4435
88.4424
90.5207
90.2049
88.9909
86.2646
88.5402
90.3766
89.7966
88.5069
87.4058
88.8944
87.8823
87.3203
88.8757
88.4773
88.5099
88.9802
89.0183
88.6007
88.5151
88.975
89.0238
92.7182
104.723
96.4446
89.1757
91.5652
105.215
93.0437
91.0697
90.6754
92.0443
94.5021
90.6707
89.2745
91.2285
90.0579
92.6379
91.3352
89.8812
90.0648
92.4794
91.3421
95.6151
89.5179
109.959
96.6781
95.7366
97.8661
155.114
96.2319
94.3696
98.339
95.0617
94.6365
98.4418
96.212
92.7573
99.5056
94.333
94.1185
92.766
99.4902
94.3404
102.625
103.445
132.765
120.322
146.693
127.78
117.037
97.6613
101.76
81.7978
114.708
101.978
81.322
97.7586
95.2224
100.812
96.1355
99.7175
95.2282
100.853
96.1409
106.712
107.335
102.628
103.706
106.553
110.457
102.187
101.42
100.964
102.946
101.266
100.935
102.848
101.426
96.692
102.615
97.2675
101.413
96.6967
102.641
97.2726
106.133
100.287
108.629
101.903
109.095
100.475
110.274
104.428
103.981
109.232
113.849
104.723
118.588
104.565
98.0856
104.359
98.7456
102.842
98.0944
104.232
98.7562
111.837
81.4383
94.8687
104.907
111.112
251.525
98.2617
113.624
109.613
118.472
114.47
109.635
113.729
113.619
98.9257
101.883
97.842
104.717
98.9373
101.891
97.8535
114.151
104.083
91.6765
63.2377
122.556
111.524
91.4954
99.9879
104.733
100.547
110.011
104.747
102.091
99.994
95.6354
94.5374
93.1485
97.4687
95.645
94.5388
93.1562
89.4924
112.723
83.7379
98.7334
89.7379
78.4105
83.8491
88.8119
90.5258
87.4682
90.0513
90.5291
87.4794
88.8168
91.1719
89.7175
89.5615
91.6605
91.1777
89.7182
89.567
83.6194
83.9392
86.8297
79.5605
83.6146
85.4154
86.8284
86.3009
86.3543
85.0659
84.7222
86.3063
85.0852
86.2977
88.7641
88.4445
88.4413
88.7384
88.764
88.4444
88.4411
88.6797
91.2226
89.6574
90.0874
89.6419
89.9383
91.675
88.5619
87.4149
88.6798
88.0321
88.5522
87.6567
88.688
88.5138
88.971
89.0229
88.6
88.513
88.9699
89.0232
91.4588
108.341
92.6838
88.1442
93.0216
91.3652
92.2027
91.6472
90.7521
91.8505
92.702
91.1399
90.7607
91.7472
90.0642
92.4611
91.3412
89.8532
90.064
92.4476
91.3412
95.8691
98.8762
171.339
94.7463
94.4714
95.5725
234.82
95.5157
94.8463
96.2196
94.562
97.1156
94.8283
95.7797
92.7644
99.494
94.3377
94.1059
92.7641
99.4934
94.3378
185.748
123.333
111.259
95.1833
202
116.697
91.9812
98.3782
101.305
97.161
102.559
98.1497
101.39
120.148
95.2241
100.852
96.1376
99.7187
95.224
100.846
96.1377
105.792
101.993
104.342
98.7425
87.1812
103.944
110.391
100.975
100.985
101.631
101.478
101.168
101.006
101.332
96.6931
102.647
97.2677
101.418
96.6934
102.651
97.2678
109.122
104.791
107.267
106.399
123.497
106.53
108.038
104.355
103.844
109.664
113.293
104.046
104.188
109.714
98.0911
104.228
98.7536
102.818
98.0908
104.225
98.7536
106.912
26.4215
101.01
104.69
107.333
-75.1279
103.183
113.604
109.642
118.075
110.034
113.549
109.614
118.124
98.9352
101.882
97.8519
104.713
98.935
101.874
97.8516
94.6652
168.011
90.9689
62.3995
103.439
77.7565
90.6909
99.6975
104.678
99.0845
104.483
99.7993
104.644
99.8838
95.6448
94.5406
93.1553
97.4692
95.6445
94.5396
93.1553
89.8838
77.2928
83.9025
99.1617
90.5367
77.6782
83.9976
88.7947
90.5846
87.5095
90.1025
88.8123
90.5886
87.5429
91.1767
89.7198
89.5658
91.6617
91.1765
89.7197
89.5658
83.6268
84.0348
86.8326
79.0305
83.6211
83.6
87.3252
86.3965
86.3221
85.0624
84.7316
86.3548
85.0662
86.354
88.7651
88.4435
88.442
88.7372
88.76
88.4436
88.4366
88.5555
89.8641
85.8787
86.2127
87.4687
92.1245
87.654
88.6172
87.6469
88.7095
87.9142
88.5732
87.5599
88.7539
88.5137
88.9726
89.0246
88.6
88.508
88.9771
89.0198
91.5891
88.9733
93.2879
88.5649
93.9108
89.4269
94.9964
91.1968
90.89
91.6883
91.9062
91.1468
90.921
91.7207
90.0647
92.4536
91.3422
89.8757
90.0581
92.6212
91.3354
94.8381
95.3173
82.3136
104.992
97.8393
97.0207
83.816
95.8055
94.7919
95.6586
94.734
96.0867
94.8104
95.3421
92.7658
99.4996
94.3404
94.2486
92.7577
99.5198
94.333
150.715
115.381
71.7923
96.1962
134.558
100.472
108.503
99.1784
101.221
112.409
108.981
99.0614
101.213
112.968
95.2277
100.841
96.1408
99.6847
95.2217
100.802
96.1351
93.6579
102.937
108.639
105.508
97.7861
101.032
107.356
100.96
100.878
107.705
104.938
101.481
100.837
105.335
96.6975
102.651
97.2726
101.375
96.6932
102.628
97.2674
104.761
106.266
107.81
112.7
109.304
105.926
115.221
103.809
104.07
104.104
107.184
103.824
104.198
106.165
98.0936
104.236
98.7564
102.797
98.0843
104.344
98.7459
106.661
-57.2119
118.496
107.275
106.247
8.5058
113.762
114.075
109.656
132.301
110.376
114.461
109.772
124.78
98.9369
101.878
97.8526
104.89
98.925
101.879
97.8409
104.323
61.5335
91.1474
56.5287
105.553
62.0608
91.0316
99.3142
104.629
102.867
105.192
99.4203
104.623
105.592
95.6446
94.5369
93.1563
97.4734
95.6348
94.5359
93.1488
90.449
77.9435
84.0569
97.7048
91.3005
78.7901
84.1524
88.8424
90.5887
87.5617
90.2237
88.8044
90.5792
87.5544
91.1773
89.718
89.5671
91.6589
91.1713
89.7173
89.5618
87.2331
87.1797
87.946
88.1762
87.9506
87.2424
87.1769
87.0963
86.4513
87.5057
87.3397
86.4541
87.527
87.122
87.3869
88.0245
87.4479
87.9323
88.0277
87.4026
87.3877
86.3941
84.695
86.3723
85.0826
85.0849
86.3606
86.3622
87.2393
88.1734
87.1666
87.9492
87.9486
87.244
87.1726
87.0543
87.3341
86.4654
87.5208
86.4576
87.5282
87.0173
87.3897
87.9285
88.0271
87.3636
88.0257
87.3804
87.3949
88.2104
87.6801
88.3133
87.9813
87.6475
88.3132
88.237
89.5565
90.0339
89.6054
89.721
90.0012
89.6085
89.5848
89.3447
88.2374
90.264
89.4739
88.2112
90.2757
89.3566
88.5251
87.8828
87.5856
88.7664
87.2489
88.8447
88.5394
88.1803
87.9734
87.8326
88.3243
87.6324
88.3158
88.1639
89.3934
89.5607
89.865
89.5979
89.6098
89.5996
89.4147
89.2416
89.4505
88.0934
90.3587
88.1519
90.3148
89.3903
92.3726
91.0659
91.5639
90.2143
91.1284
91.4524
92.4316
91.9802
93.2837
93.8214
94.8365
93.1347
94.0405
91.791
93.0372
92.3799
93.7382
94.1678
92.4024
93.744
93.0073
91.1245
90.1421
90.7531
92.9251
90.6935
89.4153
91.1301
92.3782
90.1833
91.1105
91.5227
91.1329
91.4708
92.3996
91.6142
94.3232
93.0294
93.6004
93.0697
93.5538
91.6833
93.039
94.1467
92.3971
93.7126
92.4041
93.7316
93.0246
96.4776
94.8577
96.2784
95.2934
94.8595
96.3011
96.4732
97.6633
100.265
103.691
111.961
99.612
104.346
97.736
97.8808
97.9144
100.993
99.7452
97.9262
101.011
97.8634
96.2
94.6066
94.6493
103.907
94.6903
98.4362
95.9843
96.4778
95.3138
94.8428
96.3202
94.8505
96.3141
96.4564
97.8366
112.15
99.7593
103.321
99.7258
103.315
97.7101
97.9084
99.7395
97.9271
100.916
97.9242
100.994
97.8171
100.514
100.819
99.944
100.303
100.801
99.9508
100.65
102.533
108.029
100.643
117.134
105.779
100.635
102.626
101.749
101.02
101.296
100.832
101.027
101.266
101.839
97.7869
113.049
101.166
98.0812
101.307
90.3663
97.9146
100.501
100.304
100.762
99.9451
100.865
99.9485
100.517
102.796
103.387
106.126
100.666
105.696
100.693
102.923
101.759
100.833
101.027
101.265
101.03
101.389
101.763
101.303
101.211
101.447
101.309
101.21
101.458
101.274
101.875
117.595
103.049
107.184
110.804
103.03
102.524
101.781
102.04
103.036
102.869
102.047
103.043
101.785
101.511
99.7801
100.997
102.102
101.046
102.488
101.178
101.226
101.313
101.239
101.451
101.218
101.461
101.222
104.003
110.426
121.361
103.053
119.892
103.006
101.691
101.774
102.873
102.04
103.099
102.045
103.14
101.774
104.62
103.678
104.224
103.212
103.675
104.238
104.668
106.338
108.757
106.955
110.724
110.812
106.746
105.675
105.462
104.905
107.032
106.146
104.934
107.024
105.464
104.491
113.5
103.788
109.752
103.726
111.544
104.152
104.595
103.217
103.898
104.237
103.874
104.238
104.595
105.014
115.296
108.891
106.784
108.656
106.79
105.026
105.458
106.162
104.945
107.001
104.949
107.013
105.451
112.017
109.201
108.708
107.696
109.207
108.681
112.01
115.502
124.613
108.245
109.285
122.808
108.236
116.113
112.474
108.008
108.002
104.279
107.966
108.051
112.463
113.674
116.299
109.689
118.248
109.63
117.849
113.746
112.024
107.7
109.182
108.642
109.192
108.657
112.04
115.557
115.978
128.423
108.205
126.454
108.208
115.594
112.478
104.229
107.881
108.018
107.918
108.068
112.471
97.9805
103.601
97.8331
101.589
103.596
97.8595
97.9725
98.0792
99.6036
94.0305
93.0761
99.5905
94.0213
98.0661
96.6231
96.3522
93.1479
93.65
96.3603
93.1186
96.6886
99.9465
107.967
104.702
104.405
104.712
101.67
99.8778
97.976
101.556
103.608
97.8679
103.593
97.8697
97.954
98.0651
93.0594
99.675
94.0372
99.5507
94.0247
98.0621
96.6068
93.6473
96.3598
93.0779
96.3519
93.1496
96.6173
89.4211
91.262
90.502
92.1017
91.2625
90.5063
89.412
87.7842
85.4246
86.3616
83.909
85.4867
87.9875
86.3471
88.4658
89.4693
87.4756
88.4632
89.4718
88.4712
87.4921
88.8164
90.054
90.5703
87.4944
90.5439
87.4894
88.8187
89.4237
92.1
91.2399
90.5072
91.2525
90.505
89.421
87.7121
83.4423
85.512
86.2286
85.5535
87.7355
86.2763
88.4623
88.4619
89.4695
87.488
89.4693
88.4589
87.4948
87.2305
87.1629
87.9476
88.1744
87.2377
87.9469
87.1658
87.0051
86.478
87.4775
87.3326
87.0024
86.4937
87.4679
87.3905
88.0258
87.358
87.9275
87.3947
88.0266
87.3698
86.344
84.7517
86.3041
85.0908
85.1307
86.3338
86.2912
87.2251
88.1759
87.1683
87.9457
87.9465
87.2289
87.1674
87.0107
87.3464
86.4797
87.4801
86.4955
87.4946
87.0167
87.3874
87.9297
88.0258
87.3868
88.0259
87.3768
87.3863
88.1625
87.688
88.3205
87.9669
88.1514
87.6903
88.3136
89.4708
89.9242
89.5962
89.9562
89.4923
90.2723
89.5927
89.5697
88.1316
90.3749
89.4362
89.5034
88.1187
90.3835
88.5527
87.9651
87.5728
88.671
87.5629
88.7038
88.5582
88.1729
87.9593
87.6294
88.3205
87.6925
88.315
88.1713
89.4626
89.6592
90.1573
89.5856
89.989
89.5916
89.4269
89.5664
89.4354
88.1597
90.398
88.1289
90.3946
89.5244
92.4016
91.1116
91.5002
90.1683
92.3946
91.1256
91.4989
91.6084
92.9612
93.7935
92.7837
91.6179
92.9881
93.7483
93.0426
92.3906
93.7105
94.1163
93.0279
92.3915
93.7182
91.0754
92.6226
90.852
91.9066
90.8099
91.9044
91.0964
92.3927
90.2085
91.1051
91.473
91.1205
91.4764
92.3796
91.6244
92.5533
101.432
93.2488
95.4018
93.3171
91.6578
93.024
94.1163
92.3699
93.7437
92.3879
93.7324
92.982
96.4501
94.8385
96.3309
95.3221
96.4501
94.8407
96.3379
97.5175
100.102
103.292
112.729
97.5924
111.553
103.257
97.8544
97.931
100.94
99.7116
97.8206
97.9359
100.967
95.8748
94.6039
94.7843
95.641
94.7711
95.8352
95.8825
96.4612
95.3244
94.8531
96.2908
94.8446
96.3194
96.4635
97.45
124.245
104.324
102.923
95.3886
103.032
97.3918
97.8472
99.7121
97.9178
101.012
97.932
100.993
97.8698
100.575
100.927
99.9456
100.293
100.571
100.855
99.9479
103.332
105.925
100.716
116.272
103.256
135.106
102.467
101.76
101.03
101.26
100.81
101.767
101.032
101.294
98.5359
139.65
101.27
111.912
101.245
107.617
98.8031
100.617
100.292
100.844
99.9568
100.806
99.9503
100.657
103.351
102.243
117.581
100.405
115.862
100.59
103.506
101.753
100.804
101.029
101.193
101.031
101.263
101.742
101.198
101.22
101.45
101.308
101.44
101.205
101.45
101.588
106.569
103.065
108.249
101.626
107.885
103.062
101.763
102.039
103.152
102.888
101.78
102.042
103.148
101.488
100.668
100.944
101.052
100.988
101.055
101.585
101.216
101.309
101.2
101.453
101.323
101.45
101.225
101.94
108.463
98.8148
103.203
109.024
103.171
102.048
101.85
102.893
102.052
103.188
102.047
103.199
101.742
104.613
103.795
104.239
103.248
104.637
103.712
104.247
105.087
108.206
107.013
109.837
105.037
108.264
106.902
105.423
104.942
106.991
106.156
105.442
104.947
106.986
104.165
112.746
103.956
116.658
104.068
114.261
104.156
104.61
103.257
103.726
104.24
103.761
104.249
104.714
105.243
111.16
107.756
106.889
112.836
106.878
105.375
105.407
106.152
104.912
106.984
104.936
106.984
105.397
112.069
109.178
108.643
107.711
112.059
109.175
108.651
115.858
122.518
108.192
108.214
115.843
123.609
108.196
112.474
107.86
107.94
104.179
112.469
107.86
107.945
113.719
110.358
109.647
119.171
109.643
118.344
114.061
112.08
107.707
109.176
108.658
109.175
108.655
112.099
115.896
108.844
131.412
108.182
132.241
108.206
115.888
112.474
104.223
107.865
107.978
107.864
107.978
112.478
98.0934
103.604
97.8577
101.559
98.0398
103.515
97.8473
98.0546
99.4847
94.0299
93.0201
98.0625
99.3718
94.0175
96.6149
96.3683
93.0122
93.6411
96.6225
96.3588
93.0126
99.617
105.855
104.629
98.8234
104.636
99.413
99.5203
98.1598
101.593
103.457
97.8459
103.478
97.8409
98.2273
98.0668
93.027
99.1508
93.973
99.247
94.0109
98.0676
96.6605
93.6458
96.3381
93.0347
96.3412
93.0162
96.6718
89.4296
91.2361
90.5074
92.0946
89.4212
91.2387
90.5093
87.7088
85.53
86.2024
83.8374
87.7548
85.567
86.2273
88.452
89.4676
87.4752
88.4546
88.4551
89.4684
87.4584
88.8025
90.1378
90.5945
87.5532
90.5914
87.5659
88.7722
89.4389
92.0928
91.2382
90.5062
91.2368
90.5085
89.4301
87.6701
83.9027
85.6248
86.2501
85.6187
87.6632
86.2458
88.4477
88.4532
89.4721
87.4359
89.4694
88.4534
87.4437
87.2324
87.1699
87.9469
88.1784
87.234
87.9465
87.1728
87.0647
86.4724
87.4346
87.3541
87.0328
86.4786
87.4437
87.3853
88.0276
87.4133
87.9399
87.3858
88.028
87.4309
86.4528
84.7071
86.4567
85.0608
85.0806
86.507
86.3953
87.2305
88.1803
87.178
87.945
87.9487
87.2346
87.1758
87.0922
87.3482
86.4626
87.4483
86.4752
87.435
87.1199
87.3849
87.943
88.0278
87.5164
88.0308
87.4348
87.3836
88.2812
87.6233
88.3101
87.9783
88.1882
87.6672
88.2905
89.4303
90.0043
89.5851
89.4721
89.525
90.3638
89.5817
89.2575
88.1607
90.378
89.4601
89.4953
88.1884
90.3175
88.569
87.8894
87.5176
88.6731
87.5085
88.6733
88.6534
88.2188
87.9737
87.6903
88.3282
87.6028
88.3043
88.3337
89.6179
89.5036
90.7169
89.5765
90.7135
89.5845
89.6277
89.4695
89.4849
88.2416
90.2642
88.2352
90.2678
89.471
92.3683
91.0941
91.4479
90.2493
92.369
91.1028
91.4199
91.7014
91.5291
93.1745
92.6062
91.6946
91.6335
93.2765
92.9571
92.3705
93.753
94.1651
92.9455
92.3818
93.7682
91.2374
91.8879
90.9427
91.6132
90.937
91.672
91.2078
92.3677
90.2748
91.0909
91.5107
91.1096
91.4187
92.4094
91.7448
92.6726
91.2507
93.3362
91.1746
93.3318
91.7328
92.9379
94.1566
92.3576
93.775
92.3757
93.7773
92.8984
96.4809
94.8588
96.284
95.3279
96.4827
94.8619
96.3043
97.312
96.0319
104.339
110.051
97.7366
93.874
102.894
97.8307
97.9127
101.09
99.688
97.8399
97.9177
101.075
95.7037
96.4908
95.1955
98.3121
94.8347
95.2505
95.786
96.4968
95.3108
94.8567
96.307
94.8613
96.3043
96.4924
97.4286
109.062
96.4769
102.85
96.2559
103.313
98.3884
97.961
99.6873
97.909
101.129
97.9182
101.106
97.9202
100.743
100.945
99.964
100.279
100.634
100.876
99.9677
104.447
112.512
100.175
98.0316
103.543
111.958
100.087
101.697
101.028
101.215
100.809
101.723
101.028
101.166
99.3143
110.073
101.249
113.831
101.252
113.518
99.295
100.863
100.277
100.888
99.9649
100.881
99.9719
100.811
105.111
98.3538
113.648
100.237
112.067
100.534
106.398
101.684
100.808
101.03
101.373
101.033
101.566
101.708
101.271
101.239
101.463
101.313
101.276
101.201
101.46
101.764
98.9848
103.247
108.251
101.757
99.9637
103.242
101.698
102.061
103.2
102.896
101.708
102.063
103.196
101.034
99.8869
100.954
110.074
101.089
112.56
101.743
101.307
101.316
101.208
101.455
101.215
101.464
101.319
101.855
109.985
100.269
103.545
100.412
103.21
101.856
101.681
102.898
102.061
103.147
102.069
103.165
101.677
104.66
103.726
104.236
103.262
104.655
103.716
104.24
105.442
108.07
106.981
109.227
105.845
108.389
106.645
105.415
104.902
106.988
106.123
105.403
104.906
106.993
105.002
107.585
104.172
103.269
104.32
104.733
104.416
104.7
103.267
103.705
104.231
103.707
104.241
104.669
105.384
109.237
105.742
106.788
106.031
106.434
105.385
105.432
106.123
104.895
107
104.903
106.997
105.431
112.177
109.178
108.661
107.687
112.129
109.18
108.667
115.652
126.818
108.16
108.12
115.656
127.324
108.163
112.494
107.875
108.041
104.22
112.483
107.906
108.096
115.362
111.552
109.705
131.923
109.694
135.825
114.968
112.203