/*--------------------------------*- C++ -*----------------------------------*\
| =========                 |                                                 |
| \\      /  F ield         | OpenFOAM: The Open Source CFD Toolbox           |
|  \\    /   O peration     | Version:  5.0                                   |
|   \\  /    A nd           | Web:      www.OpenFOAM.org                      |
|    \\/     M anipulation  |                                                 |
\*---------------------------------------------------------------------------*/
FoamFile
{
    version     2.0;
    format      ascii;
    class       surfaceScalarField;
    location    "0.7";
    object      phi;
}
// * * * * * * * * * * * * * * * * * * * * * * * * * * * * * * * * * * * * * //

dimensions      [0 3 -1 0 0 0 0];

internalField   nonuniform List<scalar> 
28708
(
6.45505e-11
-4.75541e-10
1.58527e-10
2.82796e-09
1.63623e-09
-4.23728e-09
1.87058e-10
1.88789e-10
1.23313e-10
-1.08444e-10
-1.72353e-09
-1.53952e-09
-1.83475e-09
3.97978e-09
-1.40118e-10
6.4176e-10
-3.9763e-09
1.74048e-09
3.58946e-09
-3.45621e-09
6.88114e-11
8.20449e-10
5.73136e-11
1.10972e-09
2.54691e-09
2.80604e-12
1.1524e-10
-3.05656e-11
-1.27047e-10
-7.56779e-12
8.52466e-11
1.45421e-11
-7.51564e-12
-8.90609e-12
-1.67895e-11
-2.06738e-11
9.71193e-10
-3.21234e-11
-1.57473e-11
-1.33244e-10
-1.33651e-10
-2.36975e-10
-2.37204e-10
1.11205e-09
-2.19488e-11
-1.48831e-13
1.20077e-09
-1.30158e-11
5.94959e-13
1.25614e-09
-8.1622e-12
1.37227e-13
1.29156e-09
-4.95748e-12
9.78701e-14
1.31402e-09
-3.10735e-12
1.76835e-13
1.32663e-09
-2.27516e-12
-1.57509e-13
1.33514e-09
-1.54171e-12
7.4008e-14
1.33979e-09
1.53138e-12
-9.69651e-13
1.34364e-09
-7.77931e-13
-2.86408e-14
1.34478e-09
-5.29244e-13
-1.26681e-13
1.34611e-09
-6.65605e-13
5.13791e-13
1.34789e-09
1.20733e-14
1.53581e-12
1.34797e-09
-5.20732e-14
6.89464e-14
1.34847e-09
-1.95837e-13
-1.27613e-13
1.34857e-09
-3.44287e-13
3.55414e-13
1.3485e-09
1.55178e-13
1.20458e-13
1.34938e-09
-1.57624e-12
1.06931e-12
1.34904e-09
-5.18332e-13
-3.98571e-13
1.34927e-09
2.52483e-13
3.7516e-14
1.34953e-09
-1.30146e-13
-8.37207e-14
1.349e-09
1.53397e-12
-3.33145e-12
1.34941e-09
2.41603e-13
2.05667e-13
1.34899e-09
-1.00939e-12
3.75367e-12
1.34844e-09
-1.2849e-12
1.74218e-12
1.34887e-09
-3.94833e-13
5.79032e-13
1.3501e-09
-2.41587e-12
7.72769e-13
1.35008e-09
-1.09722e-14
5.49195e-14
1.34921e-09
-9.25804e-14
-1.06085e-12
1.34925e-09
5.22892e-13
-3.6144e-13
1.34901e-09
4.26666e-13
-6.25673e-13
1.35015e-09
-1.3169e-12
-1.0113e-13
1.34958e-09
3.56028e-13
5.59195e-14
1.34944e-09
1.6814e-15
-5.38041e-15
1.34953e-09
-1.80605e-13
-3.90561e-13
1.3507e-09
2.39541e-12
-2.89193e-13
1.34886e-09
3.3341e-12
-1.70295e-12
1.3487e-09
-2.79234e-13
4.95357e-15
1.34953e-09
-8.34388e-13
-4.07797e-13
1.35018e-09
-8.26452e-13
-4.37747e-14
1.34992e-09
2.02378e-13
1.34041e-13
1.34897e-09
1.76947e-12
-7.66707e-13
1.32471e-12
-1.27926e-12
-1.63807e-09
-6.03998e-09
1.11919e-08
-3.48888e-09
-3.08166e-10
-4.4649e-10
-4.06477e-09
7.05502e-09
-2.2356e-09
-1.81963e-09
4.46242e-10
7.50798e-09
3.0108e-09
-3.09584e-10
-4.12688e-10
5.42783e-10
2.42779e-09
-1.81612e-08
-5.55757e-09
1.22454e-08
1.37197e-09
-1.33234e-09
3.69101e-11
-9.82564e-10
-3.42569e-09
-1.71435e-09
-1.76949e-11
6.1403e-09
6.90043e-10
-1.29269e-09
-2.69379e-09
-5.40089e-10
3.83652e-09
2.85023e-11
-2.6375e-10
-1.15513e-10
-1.17583e-10
4.6835e-10
-8.43746e-12
6.13895e-13
8.66349e-11
-1.93406e-11
-1.35619e-12
-1.26498e-11
-1.62014e-11
-2.92638e-11
9.80338e-10
-2.56821e-10
-1.25616e-11
-1.38255e-10
-1.33722e-10
-2.42422e-10
-2.28714e-10
1.12082e-09
-1.62392e-10
-7.44281e-14
1.20739e-09
-1.00213e-10
5.94609e-13
1.26111e-09
-6.21576e-11
2.31121e-13
1.29444e-09
-3.85279e-11
1.87933e-13
1.31511e-09
-2.39722e-11
1.14365e-13
1.32775e-09
-1.50538e-11
5.98387e-14
1.33543e-09
-9.35624e-12
4.39561e-14
1.3411e-09
-5.45342e-12
1.23744e-12
1.34378e-09
-3.47619e-12
-4.71211e-14
1.34568e-09
-3.40193e-12
9.17683e-13
1.34673e-09
2.14578e-12
-3.90201e-12
1.34764e-09
-9.67927e-13
4.8161e-14
1.34826e-09
-4.15607e-13
-2.55582e-13
1.34835e-09
-3.28963e-13
4.17509e-14
1.3489e-09
2.18256e-13
-1.1004e-12
1.34904e-09
1.55914e-13
-1.14724e-13
1.34864e-09
4.32278e-14
-1.19861e-12
1.34876e-09
-2.04211e-13
-4.10096e-13
1.34912e-09
4.21379e-14
-1.26153e-13
1.3491e-09
-2.0173e-14
-5.89136e-14
1.34906e-09
-5.85779e-13
2.18249e-12
1.34833e-09
6.48292e-13
3.44613e-13
1.34878e-09
1.92098e-13
-1.63076e-12
1.34895e-09
7.23208e-13
-2.16184e-12
1.35005e-09
-4.05464e-12
2.57941e-12
1.35041e-09
-4.74011e-12
1.96981e-12
1.34998e-09
5.32432e-13
-1.18794e-13
1.34977e-09
7.08412e-13
-5.93728e-13
1.34995e-09
6.13142e-14
2.77713e-13
1.34978e-09
1.2717e-13
4.50867e-13
1.3489e-09
-7.18858e-13
2.64694e-13
1.34891e-09
3.68735e-13
-4.16917e-14
1.34897e-09
2.85013e-14
-1.1109e-13
1.34851e-09
2.7981e-13
-2.34204e-14
1.34928e-09
8.69067e-13
7.34954e-13
1.35068e-09
2.71328e-13
1.64253e-12
1.35044e-09
-1.08843e-13
4.17461e-14
1.34937e-09
-9.35332e-14
3.06042e-13
1.34915e-09
3.38615e-13
-9.66136e-13
1.34901e-09
3.82642e-13
-4.99403e-14
1.34968e-09
1.91598e-13
8.89207e-13
-2.05421e-13
1.33454e-12
2.81396e-09
1.39858e-09
-9.95727e-09
8.23926e-10
1.46357e-09
2.02836e-09
1.61982e-09
-1.65887e-10
1.31658e-09
-5.66268e-10
-7.07161e-10
1.22733e-10
7.14074e-11
1.506e-08
1.12888e-09
-1.46701e-08
-1.27712e-09
6.57192e-10
1.60164e-10
-1.13037e-09
-1.50726e-09
-1.08853e-09
3.8769e-09
5.53984e-09
-6.82095e-09
8.64427e-10
-3.44421e-09
1.42912e-09
2.89996e-09
-4.58643e-10
-3.57838e-10
-4.4228e-10
-4.90526e-10
-2.07324e-10
-1.19116e-09
8.38271e-10
-5.3948e-11
6.14166e-10
-2.23651e-11
8.88344e-12
-8.75304e-12
8.50098e-12
1.37339e-11
1.14815e-09
-3.97164e-10
-1.64669e-11
-1.76532e-10
-1.91498e-10
-2.96535e-10
-3.26796e-10
1.22479e-09
-2.38705e-10
-3.5686e-13
1.27194e-09
-1.47937e-10
5.48545e-13
1.30105e-09
-9.14474e-11
1.35195e-13
1.31916e-09
-5.68335e-11
1.32849e-13
1.33049e-09
-3.54408e-11
6.17419e-14
1.33739e-09
-2.20722e-11
4.11692e-14
1.34165e-09
-1.36939e-11
-2.60432e-15
1.34438e-09
-8.49443e-12
2.34198e-13
1.34618e-09
-5.39014e-12
5.19204e-14
1.34762e-09
-5.87832e-12
9.84382e-13
1.34768e-09
-1.16198e-12
3.20426e-12
1.34828e-09
-1.4935e-12
-9.53664e-14
1.34827e-09
-1.10076e-13
-2.97038e-13
1.34895e-09
-9.17856e-13
-8.56697e-14
1.34877e-09
-1.11056e-12
1.52527e-12
1.34928e-09
2.98152e-14
-3.75516e-13
1.34811e-09
-1.75359e-12
2.99096e-12
1.3484e-09
2.05608e-14
-4.89545e-13
1.34852e-09
-4.54502e-14
-7.60818e-15
1.34856e-09
-1.4902e-13
1.19301e-13
1.34894e-09
3.8256e-13
-1.32397e-12
1.35025e-09
1.1294e-12
-1.76415e-12
1.35e-09
5.18744e-13
-5.93307e-14
1.35106e-09
8.2851e-13
-1.14794e-12
1.34985e-09
-8.39378e-14
-2.75076e-12
1.34858e-09
-2.24943e-13
-3.23919e-12
1.34913e-09
-6.33316e-15
-4.5334e-15
1.3495e-09
-1.92592e-13
5.25025e-13
1.34962e-09
4.7165e-14
-1.17049e-13
1.34957e-09
-2.53315e-13
4.21041e-13
1.34947e-09
-2.94032e-13
-3.4399e-13
1.34895e-09
2.06192e-12
-1.18777e-12
1.34894e-09
2.17034e-14
-6.56437e-15
1.34881e-09
1.68077e-13
2.1681e-13
1.34892e-09
5.58231e-13
1.75226e-13
1.35084e-09
-1.78268e-12
1.0857e-13
1.35025e-09
2.99105e-13
1.5792e-13
1.34982e-09
6.66275e-13
-3.46858e-13
1.34917e-09
-1.09249e-14
9.71647e-13
1.34897e-09
6.38451e-13
-6.65414e-14
1.34902e-09
3.32224e-13
-2.00515e-13
-1.76591e-12
7.22247e-13
6.75673e-10
2.22336e-09
-5.19572e-10
-1.12461e-10
-1.49097e-09
-1.21132e-10
-4.63917e-10
1.32971e-09
2.58811e-10
-2.6988e-09
2.96753e-09
-1.85724e-09
2.86423e-09
-3.22233e-10
1.94743e-09
3.92076e-09
-1.25869e-09
1.82285e-10
2.98724e-09
4.09044e-08
-1.38323e-08
-6.53566e-08
2.79617e-08
-1.01881e-09
8.94926e-10
4.34548e-09
-6.72934e-10
-3.54867e-09
2.07191e-10
4.81288e-10
5.65621e-10
-1.56847e-09
3.14371e-10
-9.75816e-10
-7.92299e-10
1.15034e-09
4.9737e-10
1.20408e-10
-1.42565e-10
2.3093e-11
-2.68794e-11
1.0946e-10
3.68913e-11
1.42361e-09
-3.28638e-10
-3.46009e-11
-2.50821e-10
-2.85136e-10
-4.24873e-10
-4.96722e-10
1.38798e-09
-2.01511e-10
-1.58469e-12
1.36998e-09
-1.29854e-10
-1.16464e-13
1.36078e-09
-8.21362e-11
-1.48166e-13
1.35574e-09
-5.18064e-11
-4.49825e-14
1.35305e-09
-3.27891e-11
-2.00988e-14
1.35144e-09
-2.05209e-11
-1.46303e-14
1.35042e-09
-1.27454e-11
-6.67058e-16
1.34981e-09
-7.91121e-12
-3.47028e-14
1.3494e-09
-5.01556e-12
-2.14407e-14
1.34855e-09
-3.27421e-12
-1.79874e-12
1.34943e-09
-2.21225e-12
1.32621e-13
1.34888e-09
-1.02508e-12
6.23613e-14
1.34918e-09
-7.97187e-13
3.78954e-13
1.34884e-09
-5.70846e-13
2.1725e-15
1.34871e-09
5.92477e-13
-1.56575e-12
1.34847e-09
-7.65355e-15
2.94079e-13
1.34952e-09
2.87953e-13
-3.07065e-12
1.34934e-09
2.19737e-13
6.37614e-15
1.34928e-09
-1.01522e-14
4.9901e-14
1.34941e-09
7.9578e-13
-1.05257e-12
1.35015e-09
1.30504e-12
-1.63407e-12
1.34928e-09
5.40486e-13
1.48711e-12
1.34956e-09
3.60742e-13
-1.01197e-13
1.34929e-09
-6.69824e-14
1.18374e-12
1.34932e-09
-4.97913e-13
3.93998e-13
1.34933e-09
-1.87542e-13
-4.61055e-14
1.34958e-09
-2.84751e-13
3.19178e-14
1.34947e-09
-3.3716e-14
-5.45968e-14
1.3496e-09
7.15512e-14
-1.64261e-13
1.34946e-09
2.64171e-13
-3.8131e-13
1.34902e-09
-2.90443e-13
4.1334e-13
1.34963e-09
-2.46995e-13
1.67807e-12
1.34962e-09
-1.74328e-13
1.88758e-13
1.3497e-09
-7.379e-13
7.98234e-13
1.34986e-09
6.50529e-13
-2.79368e-13
1.34926e-09
-1.6593e-12
4.52229e-13
1.34955e-09
2.1513e-13
-2.25694e-13
1.34986e-09
1.53313e-14
3.21208e-13
1.34977e-09
1.39393e-12
-1.33616e-12
1.34851e-09
1.98948e-12
-1.07846e-13
1.34895e-09
-5.74063e-14
-6.18684e-14
-1.99843e-12
4.88167e-13
-3.36993e-10
-1.4725e-09
-5.14871e-10
2.34932e-09
5.13557e-09
3.41445e-09
1.70237e-09
-1.73619e-08
7.10954e-09
-1.24721e-11
1.29439e-09
-5.07728e-09
5.33339e-09
-1.53803e-09
5.13068e-09
4.11061e-09
4.97009e-09
2.16317e-10
-1.44277e-08
2.31914e-09
-1.07215e-08
2.01505e-09
7.23198e-09
7.93344e-08
8.53299e-08
-1.2199e-07
-4.35114e-08
-3.29545e-10
-2.67897e-09
3.97718e-09
2.08047e-09
-3.04911e-09
-1.09082e-10
1.36479e-11
-1.40484e-11
-7.96779e-12
1.17451e-10
1.59753e-09
-1.52473e-10
-5.03002e-11
-3.06382e-10
-3.15277e-10
-5.41361e-10
-5.60382e-10
1.50513e-09
-1.09063e-10
-4.89544e-14
1.44598e-09
-7.04578e-11
-2.6898e-13
1.4101e-09
-4.62272e-11
-7.03068e-14
1.38694e-09
-2.84764e-11
-2.12996e-13
1.37354e-09
-2.05842e-11
1.15135e-12
1.36472e-09
-1.1722e-11
-3.99075e-14
1.35846e-09
-6.10789e-12
-4.35469e-13
1.35454e-09
-3.59134e-12
-4.49362e-13
1.35252e-09
-2.98021e-12
-6.17116e-14
1.35106e-09
-1.55894e-12
-3.0187e-13
1.35e-09
-9.30345e-13
-2.44913e-13
1.34966e-09
-7.16652e-13
1.07347e-14
1.3491e-09
-2.76052e-13
3.56004e-14
1.34926e-09
1.21037e-13
-8.51827e-13
1.34936e-09
-3.36762e-13
8.38805e-13
1.34928e-09
-2.28636e-13
3.14652e-13
1.34943e-09
2.8642e-13
-1.22505e-13
1.34958e-09
-1.66294e-13
2.58561e-13
1.34969e-09
-5.57404e-14
-4.0826e-14
1.34954e-09
8.13126e-14
8.88099e-13
1.34887e-09
1.53999e-13
1.85e-12
1.34895e-09
3.74718e-13
1.10557e-13
1.3496e-09
-5.86933e-14
-2.11105e-13
1.34931e-09
1.36613e-12
-1.12087e-12
1.3495e-09
-1.00902e-13
-5.83194e-13
1.34948e-09
-1.37695e-13
-2.47402e-14
1.34938e-09
-1.13885e-13
-6.59644e-14
1.3494e-09
-2.0743e-14
-3.90636e-14
1.34919e-09
1.20786e-12
-9.34819e-13
1.34913e-09
-2.83801e-13
5.96867e-13
1.34935e-09
-1.76961e-13
-3.46066e-13
1.34973e-09
-6.00638e-14
-5.86453e-13
1.34952e-09
2.06516e-13
-1.92719e-13
1.34967e-09
3.30441e-13
-1.24188e-12
1.35002e-09
1.74735e-13
9.75242e-14
1.3493e-09
-5.31464e-13
-4.33057e-13
1.34957e-09
-1.48121e-13
7.18863e-14
1.35003e-09
-4.99346e-13
2.9564e-14
1.35005e-09
-1.39706e-12
2.75214e-12
1.34865e-09
3.65367e-12
-2.8171e-13
1.34888e-09
-7.71997e-13
4.80849e-13
-1.92114e-13
-9.6055e-13
-5.50666e-10
-1.09709e-09
-1.13041e-10
1.78575e-09
-2.1095e-09
2.34669e-10
-4.07251e-10
1.04252e-10
2.17783e-09
-1.30771e-10
-4.71864e-10
-3.56736e-09
6.55315e-09
-2.38315e-09
-4.16545e-10
1.77585e-09
1.39039e-09
-9.74741e-10
-6.41321e-10
2.38258e-09
-1.84027e-09
1.59288e-11
-2.3579e-09
-1.79001e-09
-1.81704e-08
-2.13709e-08
3.44059e-08
7.58919e-09
-3.11901e-09
5.59624e-10
1.4957e-09
-8.08686e-10
1.87237e-09
-4.40654e-10
-6.33392e-10
8.07503e-10
-3.50559e-10
6.17096e-10
-1.56403e-10
1.82324e-11
-6.24583e-12
-2.57477e-11
1.70164e-10
1.67426e-09
2.97915e-12
-4.8222e-11
-3.25358e-10
-3.1808e-10
-5.80396e-10
-5.57653e-10
1.56515e-09
-5.42631e-13
5.8143e-13
1.489e-09
6.02932e-12
-3.52277e-13
1.43816e-09
4.76476e-12
-1.81327e-13
1.406e-09
3.8414e-12
-1.96639e-13
1.3841e-09
2.49902e-12
-1.22766e-12
1.37064e-09
1.75539e-12
-5.84289e-14
1.36284e-09
1.30359e-12
3.48165e-13
1.35792e-09
9.06468e-13
3.75691e-13
1.35436e-09
5.54611e-13
-5.8126e-15
1.3521e-09
-2.87397e-13
9.58907e-13
1.35075e-09
1.73778e-13
2.20634e-13
1.35049e-09
-6.85533e-13
2.12536e-13
1.3502e-09
4.20759e-13
-4.12884e-13
1.34933e-09
2.72358e-13
7.19861e-13
1.34943e-09
-6.33141e-13
2.01197e-13
1.34915e-09
5.54587e-13
-4.84493e-13
1.34931e-09
1.07194e-13
3.77898e-14
1.34952e-09
5.49725e-13
-9.06947e-13
1.34969e-09
-6.7707e-14
-1.30642e-13
1.34973e-09
3.01472e-13
-2.29741e-13
1.34973e-09
3.7409e-13
-1.94346e-13
1.34833e-09
4.62119e-12
-2.82237e-12
1.34874e-09
-4.87537e-13
3.84114e-14
1.34972e-09
-9.11975e-13
1.31628e-12
1.34957e-09
2.65115e-13
-2.09358e-13
1.34949e-09
2.31887e-13
-2.78417e-13
1.34912e-09
-4.3361e-13
6.87563e-13
1.34925e-09
-1.07372e-14
-1.38223e-13
1.34943e-09
-3.24612e-13
1.3345e-12
1.34962e-09
1.3757e-13
-6.15462e-13
1.34951e-09
-4.83758e-13
3.97964e-13
1.34997e-09
-7.03876e-13
1.5977e-13
1.34978e-09
2.18922e-13
1.54566e-13
1.34953e-09
5.44683e-13
1.24862e-14
1.3495e-09
2.7894e-13
-1.00172e-13
1.34887e-09
9.78086e-14
-2.34964e-14
1.3489e-09
-3.59916e-13
1.63983e-13
1.34861e-09
-1.38865e-13
-9.56142e-14
1.34862e-09
-2.70144e-13
-1.15917e-12
1.35071e-09
1.17523e-12
3.79994e-13
1.35016e-09
-6.81648e-13
4.43101e-13
-8.33905e-13
1.7736e-12
3.2271e-10
-6.46382e-10
6.2486e-11
2.86143e-10
7.16898e-10
-8.21893e-10
6.43625e-10
-1.89377e-09
1.35513e-09
-1.58436e-09
-1.29473e-09
-3.69371e-10
9.83774e-10
2.26468e-09
1.89282e-09
2.85069e-09
3.06193e-09
-1.34212e-08
1.76034e-11
2.11753e-09
1.11197e-09
2.36863e-09
-5.50672e-09
-1.96414e-09
3.44845e-09
1.61275e-09
2.40966e-09
1.2992e-10
5.51999e-10
5.10956e-10
9.50329e-11
-1.28791e-09
-1.03646e-10
-1.04371e-11
4.76007e-12
1.57105e-11
9.36126e-11
1.6885e-09
1.77511e-10
-4.86781e-11
-3.33862e-10
-3.42171e-10
-5.64462e-10
-5.73859e-10
1.56552e-09
1.23281e-10
-8.30433e-13
1.48612e-09
8.53218e-11
1.00421e-13
1.43521e-09
5.58561e-11
-2.15004e-13
1.40303e-09
3.60904e-11
-1.02111e-13
1.3827e-09
2.2898e-11
-1.09893e-13
1.36998e-09
1.45127e-11
-6.70142e-14
1.36207e-09
9.20119e-12
-2.96414e-14
1.35714e-09
5.83342e-12
-3.56844e-14
1.35399e-09
3.70194e-12
-2.5221e-14
1.35212e-09
2.31141e-12
-7.48646e-13
1.35138e-09
8.6697e-13
2.6945e-14
1.3502e-09
1.22212e-12
-7.48436e-13
1.34947e-09
7.64666e-13
3.77437e-13
1.34943e-09
3.38896e-13
-2.30718e-14
1.34921e-09
4.25741e-13
-8.33375e-13
1.34939e-09
2.63606e-13
1.29848e-13
1.34912e-09
4.85632e-13
-9.66009e-14
1.34896e-09
-9.13675e-14
8.23616e-13
1.34907e-09
-1.5472e-13
3.4104e-15
1.34951e-09
-2.38234e-13
1.28556e-13
1.34809e-09
4.1217e-12
-2.29901e-12
1.34965e-09
6.47225e-13
2.43634e-12
1.34988e-09
-7.64468e-13
7.09411e-14
1.3495e-09
-7.75727e-14
-4.40659e-13
1.34935e-09
6.90675e-14
3.57802e-13
1.3494e-09
-1.64782e-14
2.04509e-13
1.34968e-09
-2.44515e-14
-6.8721e-13
1.34961e-09
-1.97375e-14
7.16336e-14
1.34957e-09
-7.40231e-14
-2.1906e-13
1.34954e-09
1.26695e-12
-1.11203e-12
1.34945e-09
-1.23091e-14
-3.9469e-13
1.34979e-09
-1.4008e-12
3.32041e-13
1.35013e-09
-6.67145e-14
-7.6073e-14
1.34926e-09
1.09542e-12
2.99089e-13
1.3492e-09
7.53259e-13
-4.34522e-13
1.34886e-09
2.9344e-13
1.199e-13
1.34894e-09
-3.19636e-13
-1.52593e-13
1.3488e-09
-3.31717e-14
1.23951e-14
1.34913e-09
-7.21184e-13
1.06427e-13
1.34956e-09
6.85638e-13
4.68062e-14
1.3499e-09
-1.2113e-13
-9.11521e-13
-2.04544e-13
-1.28464e-12
7.35005e-10
-1.72302e-09
-6.88021e-10
6.47015e-11
6.31847e-10
5.20426e-11
1.1184e-09
-8.20218e-10
5.85245e-10
1.95084e-09
-2.05091e-09
3.35079e-10
3.0977e-10
-4.46213e-09
1.12798e-09
1.30953e-08
-2.21431e-09
-2.19307e-09
-3.31832e-09
-2.34526e-09
-2.85482e-09
5.99367e-09
-3.77669e-09
2.46176e-09
-1.82391e-09
-6.66949e-10
-3.89416e-09
5.25889e-09
3.61352e-09
-4.3113e-09
2.99814e-10
-2.20717e-10
3.88725e-10
-1.1339e-10
-3.54427e-10
-1.505e-10
-7.15339e-13
3.16514e-12
9.22374e-11
5.58127e-11
1.63364e-09
4.24593e-10
-5.08516e-11
-3.5368e-10
-3.37018e-10
-5.8813e-10
-5.5103e-10
1.50583e-09
2.55248e-10
-4.14208e-12
1.43922e-09
1.52399e-10
-5.03804e-13
1.40232e-09
9.31756e-11
-4.64978e-13
1.38109e-09
5.74585e-11
-1.80967e-13
1.36844e-09
3.56096e-11
-9.52805e-14
1.36091e-09
2.20598e-11
-5.41711e-14
1.35633e-09
1.37734e-11
-2.78311e-14
1.35355e-09
8.58709e-12
-1.65204e-14
1.35191e-09
6.19982e-12
-8.84014e-13
1.35085e-09
3.60477e-12
-2.65882e-13
1.34976e-09
2.648e-12
-7.07517e-13
1.34949e-09
2.17477e-12
-6.97412e-13
1.34952e-09
8.77749e-13
-1.57405e-13
1.34938e-09
4.99863e-13
-1.60088e-14
1.34935e-09
-4.12354e-14
5.00741e-13
1.3498e-09
-1.51905e-13
-2.39752e-14
1.34821e-09
-1.67083e-12
3.77462e-12
1.3487e-09
-3.98061e-13
-1.60039e-13
1.34861e-09
7.70169e-14
-1.19921e-13
1.34815e-09
5.57998e-13
-3.10938e-13
1.34951e-09
2.65409e-13
2.52524e-12
1.34957e-09
7.2039e-13
-1.11652e-13
1.35025e-09
-3.60122e-12
2.17642e-12
1.35011e-09
1.28535e-13
-4.37557e-14
1.34916e-09
1.38129e-12
-3.51682e-13
1.34931e-09
-2.09783e-13
4.67729e-14
1.34937e-09
-6.83784e-14
-1.40827e-14
1.34963e-09
-4.49673e-13
1.62495e-13
1.34951e-09
-2.09067e-14
6.57551e-14
1.34971e-09
2.182e-13
8.3396e-13
1.34987e-09
-1.46209e-13
-4.89106e-14
1.34931e-09
-2.93576e-13
-5.5811e-13
1.34892e-09
-1.65033e-13
4.58946e-13
1.34967e-09
5.96143e-13
-2.72105e-13
1.34919e-09
6.21444e-13
5.85761e-13
1.34948e-09
1.56369e-13
-1.78017e-13
1.34921e-09
-6.83322e-14
-7.11694e-15
1.34875e-09
3.93617e-13
1.43785e-14
1.3492e-09
-1.00465e-12
-1.79705e-13
1.34906e-09
5.50725e-13
2.57786e-13
1.35035e-09
-2.99661e-12
1.57632e-12
-3.5686e-13
-4.70113e-13
-6.28434e-10
2.72935e-09
-2.37758e-09
4.67638e-10
-2.39574e-09
-2.08984e-10
3.41759e-09
-3.90643e-10
-4.22221e-10
1.50664e-09
3.25314e-09
-1.75212e-08
1.08477e-09
4.94228e-08
-1.61844e-08
-3.00596e-08
8.50652e-09
1.28528e-09
-1.48013e-09
-6.61711e-09
-2.03825e-08
-2.19306e-08
-5.54294e-08
3.84576e-08
6.60973e-08
1.98594e-09
-8.52892e-09
2.44758e-09
5.26921e-08
-9.98309e-08
3.88963e-08
2.60158e-08
-3.54744e-09
-4.7394e-09
-2.36346e-09
-3.03382e-09
8.82242e-11
9.29504e-11
2.94528e-10
6.33538e-10
-1.10926e-09
-4.57812e-11
-2.85777e-11
1.98705e-10
1.30788e-10
1.46145e-11
-3.25938e-11
-7.55283e-11
-5.64046e-11
-4.67596e-11
-2.30803e-11
-3.5368e-11
1.30853e-09
3.86256e-10
-2.7897e-11
-2.44223e-10
-2.22448e-10
-4.04052e-10
-3.71547e-10
1.32814e-09
2.36097e-10
-4.42787e-13
1.33652e-09
1.43621e-10
3.60051e-13
1.34137e-09
8.82699e-11
4.44718e-15
1.34414e-09
5.46072e-11
3.82461e-14
1.34581e-09
3.3857e-11
3.77397e-14
1.34695e-09
2.08607e-11
5.77248e-15
1.34757e-09
1.31009e-11
4.6436e-15
1.34833e-09
7.50525e-12
2.75158e-13
1.34831e-09
5.17585e-12
9.99317e-13
1.34872e-09
3.4594e-12
-2.93453e-13
1.34852e-09
2.33221e-12
4.87382e-13
1.34876e-09
1.16994e-12
7.4737e-13
1.34879e-09
7.64357e-13
7.51181e-14
1.34863e-09
2.47445e-13
4.13143e-13
1.34856e-09
2.53089e-13
-2.12763e-13
1.34803e-09
4.56252e-13
-6.46954e-14
1.3497e-09
5.2087e-13
-3.84038e-12
1.34936e-09
-7.9656e-14
4.74854e-14
1.34925e-09
3.91519e-13
-1.83079e-13
1.34947e-09
1.19048e-13
2.44538e-13
1.3498e-09
-7.63383e-13
7.28048e-13
1.34974e-09
2.52331e-13
5.48374e-13
1.34881e-09
-4.14696e-13
-2.23348e-12
1.34897e-09
-7.15773e-15
-4.75235e-15
1.34974e-09
5.52995e-13
6.32557e-14
1.34902e-09
-7.60962e-13
1.28076e-12
1.34903e-09
7.28081e-14
-1.45392e-13
1.34981e-09
-4.3756e-13
-7.9824e-13
1.34966e-09
-8.41023e-15
1.31846e-13
1.3499e-09
-2.02988e-13
1.63335e-13
1.34953e-09
9.02603e-13
-6.90619e-13
1.34955e-09
-2.54782e-13
-8.00937e-14
1.34977e-09
-1.48656e-13
-2.62791e-13
1.34929e-09
1.94509e-12
-8.93077e-13
1.34931e-09
8.93366e-13
-3.17985e-13
1.34887e-09
5.36393e-13
3.77129e-14
1.34982e-09
-1.06361e-12
1.80903e-14
1.35007e-09
-1.61535e-13
2.86368e-13
1.34884e-09
4.60907e-13
-2.52747e-13
1.3492e-09
3.19165e-13
-1.4281e-13
1.3488e-09
7.51562e-13
-3.36331e-12
-2.38244e-12
9.52466e-14
5.14114e-09
-1.84339e-09
-2.21389e-09
-8.92883e-10
-3.6371e-09
4.61695e-09
3.78186e-09
-4.04885e-09
-7.12853e-10
3.92103e-09
-4.23723e-09
-4.48042e-09
3.49546e-09
1.30116e-09
1.08018e-09
-2.10012e-09
5.24196e-09
-8.42319e-10
-3.3797e-09
-1.4869e-09
1.14037e-10
1.3384e-10
-8.01433e-10
-6.50225e-10
-4.03348e-09
-4.4921e-10
-1.24438e-09
1.0668e-09
-6.34652e-10
-2.34816e-09
2.98276e-10
-2.71049e-09
-5.36343e-08
4.16728e-08
4.71578e-08
-2.24351e-08
-2.41888e-10
1.03182e-10
-6.56397e-11
1.27454e-10
7.68911e-11
-1.17198e-11
-1.0643e-10
1.07309e-10
7.21103e-11
-9.63918e-12
-9.04514e-12
-2.40569e-11
-1.85304e-11
1.06204e-09
-1.68936e-11
-1.59848e-10
-1.47695e-10
-2.75776e-10
-2.5789e-10
1.1785e-09
7.08726e-13
1.24529e-09
4.18499e-13
1.28586e-09
2.52023e-13
1.30958e-09
1.89265e-13
1.3238e-09
-4.4884e-14
1.33405e-09
2.55175e-13
1.33997e-09
-4.06078e-14
1.34272e-09
-6.19514e-13
1.3447e-09
1.50153e-14
1.34728e-09
2.85833e-13
1.34812e-09
2.29292e-13
1.3472e-09
-1.27405e-12
1.3479e-09
-4.05838e-14
1.34841e-09
-4.27225e-13
1.34857e-09
7.64927e-15
1.34886e-09
3.83124e-15
1.34896e-09
1.00307e-13
1.34934e-09
8.62822e-13
1.34905e-09
2.12009e-13
1.34914e-09
4.96871e-14
1.34961e-09
1.15987e-12
1.34966e-09
-5.88573e-13
1.34904e-09
-2.07236e-12
1.3489e-09
2.68814e-13
1.34901e-09
-1.5065e-13
1.34957e-09
-9.00889e-13
1.34964e-09
-1.35501e-14
1.34948e-09
1.73688e-12
1.34936e-09
-1.12779e-13
1.34946e-09
1.00988e-13
1.3499e-09
6.98311e-13
1.34963e-09
1.25102e-13
1.34972e-09
-1.46585e-13
1.35087e-09
1.21255e-12
1.34866e-09
-2.26569e-13
1.34948e-09
-1.38556e-13
1.34882e-09
-2.61241e-14
1.34929e-09
-2.66689e-13
1.34987e-09
5.1618e-14
1.35033e-09
-2.51589e-13
1.34918e-09
1.82153e-12
-6.01973e-14
-2.0843e-09
-7.43826e-09
1.25096e-08
-3.98898e-09
3.73259e-08
-1.61748e-08
-1.44458e-09
-2.02835e-09
-2.94993e-09
-6.23144e-09
-3.11009e-10
-3.37016e-09
1.38076e-09
-3.23091e-09
-3.10903e-10
6.30399e-09
7.85043e-09
-2.56726e-08
1.43017e-09
4.43727e-09
5.41339e-09
2.0874e-09
2.16963e-08
1.48792e-09
-2.64022e-08
-1.07714e-09
8.79419e-10
1.15284e-09
1.5625e-09
1.92852e-08
2.20104e-09
4.78034e-09
3.15954e-09
-4.00934e-08
-6.71837e-08
-1.25299e-08
8.78502e-08
2.11001e-09
-2.26527e-09
-2.96302e-09
2.12832e-10
1.07662e-10
2.1429e-10
8.4392e-11
-4.20227e-10
5.31431e-10
5.11809e-11
-7.98725e-12
-1.95297e-10
-6.34657e-10
-6.01752e-11
9.98686e-12
3.04836e-10
3.61527e-11
1.71232e-12
-6.80335e-11
-6.42163e-11
-7.23354e-11
1.67741e-09
-5.99828e-11
1.59797e-11
-3.47541e-10
-3.47705e-10
-3.47539e-10
-3.47704e-10
1.88687e-09
-4.2507e-11
4.00572e-14
2.0209e-09
-2.63797e-11
-3.0745e-13
2.10446e-09
-1.69254e-11
-1.9258e-13
2.15838e-09
-1.0514e-11
-5.59374e-13
2.19263e-09
-6.67015e-12
-4.19632e-13
2.21171e-09
-4.70562e-12
2.74894e-13
2.22452e-09
-3.10628e-12
1.28665e-13
2.23175e-09
-2.79134e-12
1.28537e-12
2.23747e-09
-1.48111e-12
-3.91508e-14
2.23934e-09
-1.20131e-12
-6.87415e-14
2.24106e-09
8.54361e-13
-4.70774e-13
2.24371e-09
-1.45194e-13
2.128e-12
2.24395e-09
-3.96549e-14
3.91386e-14
2.24441e-09
-1.50771e-13
-3.24614e-13
2.24456e-09
7.70427e-13
-3.72953e-13
2.24454e-09
6.47013e-13
-1.88484e-13
2.2456e-09
1.30934e-12
-5.82543e-13
2.24511e-09
6.90708e-13
4.16837e-13
2.24549e-09
3.13618e-13
-3.18989e-13
2.24586e-09
-2.13591e-13
-7.70539e-14
2.24466e-09
-1.47582e-12
1.67495e-13
2.24524e-09
-7.08281e-13
1.02309e-12
2.24446e-09
4.8951e-12
-1.11205e-12
2.24349e-09
5.64379e-12
-1.76163e-12
2.24444e-09
-4.23767e-13
-6.89762e-13
2.24627e-09
3.61019e-13
-1.01196e-12
2.24605e-09
1.58464e-13
2.03018e-14
2.24466e-09
1.33771e-13
7.57109e-13
2.24432e-09
3.38489e-13
1.57341e-14
2.24397e-09
-1.62339e-12
9.08466e-13
2.24567e-09
-9.56999e-13
-1.18856e-12
2.24499e-09
6.75074e-13
-9.97447e-14
2.24454e-09
1.56079e-13
9.13863e-14
2.24471e-09
-2.7582e-13
-3.93811e-14
2.24642e-09
1.64803e-12
-4.71293e-14
2.24358e-09
3.77688e-12
-3.06718e-12
2.24349e-09
-4.78957e-13
-1.27549e-15
2.24427e-09
-1.61676e-12
-5.32036e-14
2.24533e-09
-1.21061e-12
-2.00402e-13
2.24491e-09
2.4594e-13
1.99865e-13
2.24338e-09
6.10817e-13
2.88963e-13
-7.09777e-13
-4.67542e-13
-1.58359e-09
-9.43955e-09
9.16999e-09
-6.73372e-09
8.73335e-09
-5.35517e-10
1.43802e-09
-6.06113e-09
-3.98709e-09
4.92857e-09
4.21714e-09
-1.38561e-09
3.68165e-09
4.67694e-09
-4.25833e-09
-3.77506e-09
1.0604e-09
-1.48244e-09
-7.38898e-10
2.05283e-09
-4.6393e-10
7.06294e-09
-6.4305e-09
6.36115e-09
-2.39383e-09
3.1327e-09
-1.03528e-08
1.08732e-09
1.7171e-09
1.30753e-09
1.60215e-09
-2.46136e-09
-3.11984e-10
4.9794e-11
2.18669e-09
-9.45132e-11
-3.31697e-10
-1.49829e-09
-5.05202e-11
-2.78443e-12
-3.48542e-12
3.00135e-10
-5.12876e-11
1.14472e-11
-7.40885e-11
-5.45672e-11
-7.48492e-11
1.6921e-09
-3.99638e-10
1.26786e-11
-3.53731e-10
-3.35169e-10
-3.53716e-10
-3.3517e-10
1.90264e-09
-2.53221e-10
2.08977e-14
2.0338e-09
-1.56479e-10
-5.55923e-13
2.11439e-09
-9.72052e-11
-1.89651e-13
2.16438e-09
-6.03088e-11
-1.55902e-13
2.19528e-09
-3.75684e-11
-6.91721e-14
2.21412e-09
-2.36387e-11
-3.00204e-14
2.22564e-09
-1.47234e-11
-4.06664e-14
2.23391e-09
-9.01664e-12
-9.69971e-13
2.23798e-09
-5.75907e-12
3.32019e-14
2.24057e-09
-1.94959e-12
-1.03043e-12
2.24217e-09
-3.8915e-12
-8.24525e-13
2.2435e-09
-1.43478e-12
-1.52391e-14
2.24436e-09
-9.353e-13
-2.20661e-13
2.24446e-09
-4.95676e-13
3.06182e-13
2.24506e-09
-1.90609e-12
1.01442e-12
2.24535e-09
1.56352e-13
1.28163e-13
2.24464e-09
8.01645e-14
7.84833e-13
2.24451e-09
-1.62189e-14
4.874e-13
2.2451e-09
3.15514e-14
-3.71575e-13
2.24507e-09
-2.32768e-13
5.11066e-14
2.24454e-09
3.24449e-12
-1.95316e-12
2.24347e-09
1.0147e-12
-2.60597e-13
2.2445e-09
4.04283e-13
1.87334e-12
2.24475e-09
1.04479e-12
2.21656e-12
2.24614e-09
-2.77905e-12
3.57093e-12
2.24666e-09
2.73589e-12
-9.15996e-13
2.24586e-09
7.35127e-13
9.6357e-14
2.24534e-09
8.46073e-14
-4.13094e-14
2.24561e-09
2.92401e-13
3.34742e-14
2.24533e-09
-3.21316e-13
-6.0143e-13
2.2438e-09
-4.62915e-13
1.25236e-12
2.24369e-09
5.77829e-13
1.18355e-13
2.24368e-09
-1.87021e-14
2.27866e-14
2.24299e-09
3.58733e-13
-2.10797e-14
2.2442e-09
1.31886e-12
-1.98282e-13
2.24621e-09
1.25687e-13
3.22497e-12
2.24579e-09
-5.26405e-14
-1.3166e-14
2.24437e-09
-7.46433e-14
1.44335e-13
2.24389e-09
-1.18297e-12
-5.57578e-13
2.24368e-09
5.77695e-13
-1.98936e-13
2.24444e-09
1.24756e-12
-5.30413e-13
-3.10534e-13
2.72867e-13
2.0945e-09
-5.16128e-08
3.9338e-11
4.98735e-08
-2.50501e-10
1.75992e-08
1.08617e-09
3.66487e-09
4.26182e-09
3.019e-09
-2.96311e-08
6.55779e-10
1.50315e-08
-1.20811e-09
-1.12452e-08
5.09782e-10
-3.74116e-09
-2.13591e-09
-5.75544e-10
-7.78343e-10
-2.41265e-09
4.79112e-09
4.41998e-11
6.07029e-09
-9.48584e-10
-1.10582e-09
6.2458e-10
5.71099e-10
-4.20534e-10
-1.57788e-08
-5.66651e-08
6.87174e-08
-5.96517e-09
-1.69868e-09
4.22725e-10
7.99762e-09
1.45512e-09
-1.05303e-09
-2.72796e-10
-6.27088e-10
-2.58709e-10
-1.6896e-09
-2.93649e-10
-9.50383e-10
6.53963e-10
3.84848e-10
1.89483e-09
-8.21916e-11
-2.92395e-11
3.24359e-11
-3.72895e-11
2.7606e-11
8.86791e-11
1.9564e-09
-6.07345e-10
1.64778e-11
-4.26133e-10
-4.64733e-10
-4.26142e-10
-4.64703e-10
2.06572e-09
-3.63569e-10
6.07301e-13
2.13542e-09
-2.25132e-10
-5.87972e-13
2.17736e-09
-1.39009e-10
-1.0385e-13
2.20342e-09
-8.62767e-11
-1.02851e-13
2.21959e-09
-5.38124e-11
-3.60246e-14
2.22934e-09
-3.34973e-11
-2.60221e-14
2.23527e-09
-2.07641e-11
-5.3638e-14
2.23919e-09
-1.28246e-11
-2.93485e-14
2.24162e-09
-8.17636e-12
-9.30681e-14
2.24382e-09
-3.81222e-12
5.55849e-13
2.24373e-09
-2.10804e-12
1.43853e-12
2.24457e-09
-2.40867e-12
1.4983e-14
2.24444e-09
-2.4409e-12
1.3407e-12
2.24542e-09
-1.50594e-12
-4.13825e-14
2.24492e-09
1.70016e-12
-1.54258e-12
2.2457e-09
-1.11846e-12
1.58668e-13
2.2437e-09
3.81185e-12
1.30762e-12
2.24404e-09
-1.74343e-13
-6.15406e-13
2.24397e-09
-3.67416e-14
1.93204e-13
2.2438e-09
2.50291e-13
-1.35918e-13
2.24488e-09
-4.0337e-13
1.30675e-12
2.24662e-09
-4.13418e-12
1.69344e-12
2.24626e-09
1.04548e-12
-2.9923e-13
2.24801e-09
-2.91964e-12
1.0984e-12
2.24583e-09
6.21662e-14
-3.39658e-12
2.24378e-09
-2.2212e-13
1.78158e-12
2.24451e-09
2.5458e-14
-2.60691e-14
2.24513e-09
-1.95474e-13
1.6839e-13
2.2451e-09
8.25494e-14
9.29653e-14
2.24501e-09
1.14218e-13
4.36252e-14
2.24466e-09
-5.01665e-13
3.81203e-15
2.24367e-09
-8.31706e-13
1.17161e-12
2.24342e-09
1.39731e-14
1.58904e-13
2.24337e-09
5.26781e-13
4.51122e-14
2.24404e-09
1.07986e-12
-3.15714e-13
2.24643e-09
-2.39558e-12
1.83294e-13
2.24566e-09
9.83546e-13
-1.53018e-13
2.24507e-09
4.83319e-13
-3.6458e-13
2.24387e-09
1.38483e-13
8.09223e-13
2.24335e-09
9.47742e-13
5.5215e-14
2.24354e-09
5.3424e-13
3.08369e-13
-2.45311e-12
1.40721e-12
2.3066e-09
1.16837e-08
-7.93421e-09
1.48274e-09
-3.51144e-09
1.24593e-09
-2.74134e-09
-9.52239e-10
-5.56224e-10
-4.77101e-10
6.12438e-11
-3.2712e-09
7.44401e-09
5.61258e-09
-2.12999e-08
1.53293e-08
-1.43723e-09
-7.62131e-10
-5.01402e-10
-1.11401e-09
3.04805e-09
-3.86859e-08
2.05381e-09
3.21259e-10
3.54248e-08
-2.16203e-09
2.45124e-09
-1.84538e-08
1.67904e-09
2.70623e-09
1.32734e-08
-1.65604e-09
-8.65024e-09
4.34345e-12
-3.03772e-09
4.05773e-09
7.49867e-10
6.87602e-09
-3.63847e-10
2.88987e-10
-1.88161e-09
7.37013e-10
-5.69567e-10
1.78903e-09
-7.33706e-11
-1.18961e-10
6.43479e-11
-7.19691e-11
6.92869e-11
1.30666e-10
2.38671e-09
-4.93154e-10
3.45544e-11
-5.96353e-10
-6.88831e-10
-5.96257e-10
-6.88661e-10
2.31993e-09
-3.00002e-10
1.57231e-12
2.28731e-09
-1.92846e-10
1.44844e-13
2.26963e-09
-1.21742e-10
1.62045e-13
2.25975e-09
-7.67588e-11
1.96083e-13
2.25426e-09
-4.8516e-11
3.73358e-14
2.25092e-09
-3.03435e-11
2.57615e-14
2.2488e-09
-1.87936e-11
3.85996e-15
2.24748e-09
-1.16561e-11
-1.11581e-14
2.24652e-09
-7.34778e-12
-2.24414e-15
2.24508e-09
-4.52815e-12
2.71118e-13
2.24637e-09
-3.14631e-12
-1.79834e-13
2.24552e-09
-1.71068e-12
1.87184e-13
2.24585e-09
-1.25144e-12
-1.14665e-12
2.24523e-09
-8.47683e-13
-1.57982e-14
2.24495e-09
-8.7502e-13
1.3176e-12
2.24436e-09
-1.066e-13
-8.7518e-14
2.24604e-09
3.49977e-13
-1.23448e-12
2.24552e-09
-1.08668e-13
5.21711e-13
2.24534e-09