/*--------------------------------*- C++ -*----------------------------------*\
| =========                 |                                                 |
| \\      /  F ield         | OpenFOAM: The Open Source CFD Toolbox           |
|  \\    /   O peration     | Version:  5.0                                   |
|   \\  /    A nd           | Web:      www.OpenFOAM.org                      |
|    \\/     M anipulation  |                                                 |
\*---------------------------------------------------------------------------*/
FoamFile
{
    version     2.0;
    format      ascii;
    class       volScalarField;
    location    "0.7";
    object      rAU;
}
// * * * * * * * * * * * * * * * * * * * * * * * * * * * * * * * * * * * * * //

dimensions      [-1 3 1 0 0 0 0];

internalField   nonuniform List<scalar> 
9641
(
1.04973e-07
6.42696e-07
3.5419e-07
8.35427e-07
8.17379e-07
1.76454e-07
1.29269e-07
3.92423e-07
3.93665e-07
3.94698e-07
3.95732e-07
3.96764e-07
3.97796e-07
3.98827e-07
3.99857e-07
4.00887e-07
4.01916e-07
4.02945e-07
4.03972e-07
4.04999e-07
4.06025e-07
4.07051e-07
4.08076e-07
4.091e-07
4.10123e-07
4.11146e-07
4.12167e-07
4.13188e-07
4.14209e-07
4.15228e-07
4.16247e-07
4.17265e-07
4.18282e-07
4.19298e-07
4.20314e-07
4.21329e-07
4.22343e-07
4.23356e-07
4.24368e-07
4.2538e-07
4.26391e-07
4.27401e-07
4.2841e-07
4.29418e-07
4.30426e-07
4.31432e-07
4.32438e-07
4.33443e-07
4.34447e-07
4.36223e-07
6.57813e-07
1.00724e-07
8.27531e-07
8.95711e-07
8.97617e-07
6.97465e-07
1.2927e-07
3.92426e-07
3.93667e-07
3.94699e-07
3.95732e-07
3.96764e-07
3.97796e-07
3.98827e-07
3.99857e-07
4.00887e-07
4.01916e-07
4.02945e-07
4.03972e-07
4.04999e-07
4.06025e-07
4.07051e-07
4.08076e-07
4.091e-07
4.10123e-07
4.11146e-07
4.12167e-07
4.13188e-07
4.14209e-07
4.15228e-07
4.16247e-07
4.17265e-07
4.18282e-07
4.19298e-07
4.20314e-07
4.21329e-07
4.22343e-07
4.23356e-07
4.24368e-07
4.2538e-07
4.26391e-07
4.27401e-07
4.2841e-07
4.29418e-07
4.30426e-07
4.31432e-07
4.32438e-07
4.33443e-07
4.34447e-07
4.36223e-07
7.10572e-07
9.87367e-08
8.72425e-07
8.86402e-07
8.4038e-07
6.51021e-07
3.51753e-08
3.92423e-07
3.93665e-07
3.94698e-07
3.95732e-07
3.96764e-07
3.97795e-07
3.98827e-07
3.99857e-07
4.00887e-07
4.01916e-07
4.02945e-07
4.03972e-07
4.04999e-07
4.06025e-07
4.07051e-07
4.08076e-07
4.091e-07
4.10123e-07
4.11146e-07
4.12167e-07
4.13188e-07
4.14209e-07
4.15228e-07
4.16247e-07
4.17265e-07
4.18282e-07
4.19298e-07
4.20314e-07
4.21329e-07
4.22343e-07
4.23356e-07
4.24368e-07
4.2538e-07
4.26391e-07
4.27401e-07
4.2841e-07
4.29418e-07
4.30426e-07
4.31432e-07
4.32438e-07
4.33443e-07
4.34447e-07
4.36223e-07
8.91238e-07
8.86036e-07
8.17193e-07
2.08189e-07
3.76544e-07
6.84573e-07
4.00713e-08
3.92417e-07
3.93662e-07
3.94696e-07
3.95731e-07
3.96763e-07
3.97795e-07
3.98827e-07
3.99857e-07
4.00887e-07
4.01916e-07
4.02945e-07
4.03972e-07
4.04999e-07
4.06025e-07
4.07051e-07
4.08076e-07
4.091e-07
4.10123e-07
4.11146e-07
4.12167e-07
4.13188e-07
4.14209e-07
4.15228e-07
4.16247e-07
4.17265e-07
4.18282e-07
4.19298e-07
4.20314e-07
4.21329e-07
4.22343e-07
4.23356e-07
4.24369e-07
4.2538e-07
4.26391e-07
4.27401e-07
4.2841e-07
4.29418e-07
4.30426e-07
4.31432e-07
4.32438e-07
4.33443e-07
4.34447e-07
4.36223e-07
1.17751e-07
6.2191e-07
5.8513e-07
6.56832e-07
6.8267e-07
4.6642e-07
9.78075e-08
3.92414e-07
3.9366e-07
3.94695e-07
3.9573e-07
3.96763e-07
3.97795e-07
3.98827e-07
3.99857e-07
4.00887e-07
4.01916e-07
4.02945e-07
4.03972e-07
4.04999e-07
4.06025e-07
4.07051e-07
4.08076e-07
4.091e-07
4.10123e-07
4.11146e-07
4.12167e-07
4.13188e-07
4.14209e-07
4.15228e-07
4.16247e-07
4.17265e-07
4.18282e-07
4.19298e-07
4.20314e-07
4.21329e-07
4.22343e-07
4.23356e-07
4.24369e-07
4.2538e-07
4.26391e-07
4.27401e-07
4.2841e-07
4.29418e-07
4.30426e-07
4.31432e-07
4.32438e-07
4.33443e-07
4.34447e-07
4.36223e-07
1.78591e-07
1.97759e-07
1.30202e-07
6.71332e-07
8.79278e-07
6.87642e-07
1.42694e-07
3.92415e-07
3.93661e-07
3.94696e-07
3.9573e-07
3.96763e-07
3.97795e-07
3.98827e-07
3.99857e-07
4.00887e-07
4.01916e-07
4.02945e-07
4.03972e-07
4.04999e-07
4.06025e-07
4.07051e-07
4.08076e-07
4.091e-07
4.10123e-07
4.11146e-07
4.12167e-07
4.13188e-07
4.14209e-07
4.15228e-07
4.16247e-07
4.17265e-07
4.18282e-07
4.19298e-07
4.20314e-07
4.21329e-07
4.22343e-07
4.23356e-07
4.24368e-07
4.2538e-07
4.26391e-07
4.27401e-07
4.2841e-07
4.29418e-07
4.30426e-07
4.31432e-07
4.32438e-07
4.33443e-07
4.34447e-07
4.36223e-07
1.76761e-07
3.58021e-07
6.11388e-07
6.78646e-07
6.48246e-07
3.78835e-07
7.67007e-08
3.92418e-07
3.93662e-07
3.94696e-07
3.9573e-07
3.96763e-07
3.97795e-07
3.98827e-07
3.99857e-07
4.00887e-07
4.01916e-07
4.02945e-07
4.03972e-07
4.04999e-07
4.06025e-07
4.07051e-07
4.08076e-07
4.091e-07
4.10123e-07
4.11146e-07
4.12167e-07
4.13188e-07
4.14209e-07
4.15228e-07
4.16247e-07
4.17265e-07
4.18282e-07
4.19298e-07
4.20314e-07
4.21329e-07
4.22343e-07
4.23356e-07
4.24368e-07
4.2538e-07
4.26391e-07
4.27401e-07
4.2841e-07
4.29418e-07
4.30426e-07
4.31432e-07
4.32438e-07
4.33443e-07
4.34447e-07
4.36223e-07
8.83672e-07
5.76337e-07
8.27334e-07
8.9372e-07
7.10701e-07
5.76414e-07
3.69197e-08
3.92418e-07
3.93661e-07
3.94696e-07
3.9573e-07
3.96763e-07
3.97795e-07
3.98827e-07
3.99857e-07
4.00887e-07
4.01916e-07
4.02945e-07
4.03972e-07
4.04999e-07
4.06025e-07
4.07051e-07
4.08076e-07
4.091e-07
4.10123e-07
4.11146e-07
4.12167e-07
4.13188e-07
4.14209e-07
4.15228e-07
4.16247e-07
4.17265e-07
4.18282e-07
4.19298e-07
4.20314e-07
4.21329e-07
4.22343e-07
4.23356e-07
4.24369e-07
4.2538e-07
4.26391e-07
4.27401e-07
4.2841e-07
4.29418e-07
4.30426e-07
4.31432e-07
4.32438e-07
4.33443e-07
4.34447e-07
4.36223e-07
8.86094e-07
8.3007e-07
8.28937e-07
6.30064e-07
8.00512e-07
5.72036e-07
1.29216e-07
3.92416e-07
3.93661e-07
3.94696e-07
3.9573e-07
3.96763e-07
3.97795e-07
3.98827e-07
3.99857e-07
4.00887e-07
4.01916e-07
4.02945e-07
4.03972e-07
4.04999e-07
4.06025e-07
4.07051e-07
4.08076e-07
4.091e-07
4.10123e-07
4.11146e-07
4.12167e-07
4.13188e-07
4.14209e-07
4.15228e-07
4.16247e-07
4.17265e-07
4.18282e-07
4.19298e-07
4.20314e-07
4.21329e-07
4.22343e-07
4.23356e-07
4.24368e-07
4.2538e-07
4.26391e-07
4.27401e-07
4.2841e-07
4.29418e-07
4.30426e-07
4.31432e-07
4.32438e-07
4.33443e-07
4.34447e-07
4.36223e-07
8.9334e-07
8.70677e-07
8.83148e-07
8.43833e-07
8.02582e-07
6.87812e-07
1.29267e-07
3.92418e-07
3.93662e-07
3.94697e-07
3.95731e-07
3.96763e-07
3.97795e-07
3.98827e-07
3.99857e-07
4.00887e-07
4.01916e-07
4.02945e-07
4.03972e-07
4.04999e-07
4.06025e-07
4.07051e-07
4.08076e-07
4.091e-07
4.10123e-07
4.11146e-07
4.12167e-07
4.13188e-07
4.14209e-07
4.15228e-07
4.16247e-07
4.17265e-07
4.18282e-07
4.19298e-07
4.20314e-07
4.21329e-07
4.22343e-07
4.23356e-07
4.24368e-07
4.2538e-07
4.26391e-07
4.27401e-07
4.2841e-07
4.29418e-07
4.30426e-07
4.31432e-07
4.32438e-07
4.33443e-07
4.34447e-07
4.36223e-07
5.53016e-07
7.44538e-07
4.54715e-07
7.18285e-07
8.52249e-07
2.41054e-07
1.83344e-07
5.04905e-07
5.06392e-07
5.07532e-07
5.08669e-07
5.09806e-07
5.10941e-07
5.12074e-07
5.13207e-07
5.14337e-07
5.15466e-07
5.16593e-07
5.1772e-07
5.18843e-07
5.19966e-07
5.21087e-07
5.22206e-07
5.23324e-07
5.2444e-07
5.25554e-07
5.26667e-07
5.27778e-07
5.28887e-07
5.29995e-07
5.31101e-07
5.32205e-07
5.33308e-07
5.3441e-07
5.35509e-07
5.36607e-07
5.37704e-07
5.38797e-07
5.39891e-07
5.40982e-07
5.42071e-07
5.43159e-07
5.44246e-07
5.4533e-07
5.46413e-07
5.47495e-07
5.48573e-07
5.49652e-07
5.50728e-07
5.53043e-07
4.003e-07
2.8854e-07
4.64891e-07
9.11438e-07
8.21908e-07
7.24322e-07
1.83349e-07
5.04912e-07
5.06396e-07
5.07534e-07
5.0867e-07
5.09806e-07
5.10942e-07
5.12074e-07
5.13207e-07
5.14338e-07
5.15466e-07
5.16593e-07
5.17719e-07
5.18843e-07
5.19966e-07
5.21087e-07
5.22206e-07
5.23324e-07
5.2444e-07
5.25554e-07
5.26667e-07
5.27778e-07
5.28887e-07
5.29995e-07
5.31101e-07
5.32205e-07
5.33308e-07
5.3441e-07
5.35509e-07
5.36607e-07
5.37704e-07
5.38797e-07
5.39891e-07
5.40982e-07
5.42071e-07
5.43159e-07
5.44246e-07
5.4533e-07
5.46413e-07
5.47494e-07
5.48573e-07
5.49652e-07
5.50728e-07
5.53043e-07
6.70166e-07
7.30477e-07
6.53165e-07
7.48348e-07
8.516e-07
7.67522e-07
5.18319e-08
5.04905e-07
5.06391e-07
5.07531e-07
5.08668e-07
5.09805e-07
5.10941e-07
5.12074e-07
5.13206e-07
5.14337e-07
5.15466e-07
5.16593e-07
5.17719e-07
5.18843e-07
5.19966e-07
5.21087e-07
5.22205e-07
5.23324e-07
5.2444e-07
5.25554e-07
5.26667e-07
5.27778e-07
5.28887e-07
5.29995e-07
5.31101e-07
5.32205e-07
5.33308e-07
5.3441e-07
5.35509e-07
5.36607e-07
5.37704e-07
5.38797e-07
5.39891e-07
5.40982e-07
5.42071e-07
5.43159e-07
5.44246e-07
5.4533e-07
5.46413e-07
5.47494e-07
5.48573e-07
5.49652e-07
5.50728e-07
5.53043e-07
9.05122e-07
8.75179e-07
5.71782e-07
4.65488e-07
5.70773e-07
7.3887e-07
5.93785e-08
5.04889e-07
5.06383e-07
5.07526e-07
5.08665e-07
5.09804e-07
5.1094e-07
5.12073e-07
5.13206e-07
5.14337e-07
5.15466e-07
5.16593e-07
5.17719e-07
5.18843e-07
5.19966e-07
5.21087e-07
5.22206e-07
5.23324e-07
5.2444e-07
5.25554e-07
5.26667e-07
5.27778e-07
5.28887e-07
5.29995e-07
5.31101e-07
5.32205e-07
5.33308e-07
5.3441e-07
5.35509e-07
5.36607e-07
5.37704e-07
5.38797e-07
5.39891e-07
5.40982e-07
5.42071e-07
5.43159e-07
5.44246e-07
5.4533e-07
5.46413e-07
5.47495e-07
5.48573e-07
5.49652e-07
5.50728e-07
5.53043e-07
1.68489e-07
8.00735e-07
7.63873e-07
4.24504e-07
2.15675e-07
5.95155e-07
1.39508e-07
5.04881e-07
5.06379e-07
5.07524e-07
5.08664e-07
5.09803e-07
5.10939e-07
5.12073e-07
5.13206e-07
5.14337e-07
5.15465e-07
5.16593e-07
5.17719e-07
5.18843e-07
5.19966e-07
5.21087e-07
5.22206e-07
5.23324e-07
5.2444e-07
5.25554e-07
5.26667e-07
5.27778e-07
5.28887e-07
5.29995e-07
5.31101e-07
5.32205e-07
5.33308e-07
5.3441e-07
5.35509e-07
5.36607e-07
5.37704e-07
5.38797e-07
5.39891e-07
5.40982e-07
5.42071e-07
5.43159e-07
5.44246e-07
5.4533e-07
5.46413e-07
5.47495e-07
5.48573e-07
5.49651e-07
5.50728e-07
5.53043e-07
2.84221e-07
6.131e-07
4.35505e-07
4.70516e-07
7.76833e-07
6.92476e-07
1.99001e-07
5.04883e-07
5.0638e-07
5.07524e-07
5.08664e-07
5.09803e-07
5.10939e-07
5.12073e-07
5.13206e-07
5.14337e-07
5.15465e-07
5.16593e-07
5.17719e-07
5.18843e-07
5.19966e-07
5.21087e-07
5.22206e-07
5.23324e-07
5.2444e-07
5.25554e-07
5.26667e-07
5.27778e-07
5.28887e-07
5.29995e-07
5.31101e-07
5.32205e-07
5.33308e-07
5.3441e-07
5.35509e-07
5.36607e-07
5.37704e-07
5.38797e-07
5.39891e-07
5.40982e-07
5.42071e-07
5.43159e-07
5.44246e-07
5.4533e-07
5.46413e-07
5.47495e-07
5.48573e-07
5.49651e-07
5.50728e-07
5.53043e-07
2.14857e-07
8.77367e-07
3.1996e-07
2.58927e-07
8.21021e-07
6.52439e-07
1.11233e-07
5.04891e-07
5.06383e-07
5.07525e-07
5.08665e-07
5.09803e-07
5.10939e-07
5.12073e-07
5.13206e-07
5.14337e-07
5.15465e-07
5.16593e-07
5.17719e-07
5.18843e-07
5.19966e-07
5.21087e-07
5.22206e-07
5.23324e-07
5.2444e-07
5.25554e-07
5.26667e-07
5.27778e-07
5.28887e-07
5.29995e-07
5.31101e-07
5.32205e-07
5.33308e-07
5.3441e-07
5.35509e-07
5.36607e-07
5.37704e-07
5.38797e-07
5.39891e-07
5.40982e-07
5.42071e-07
5.43159e-07
5.44246e-07
5.4533e-07
5.46413e-07
5.47495e-07
5.48573e-07
5.49652e-07
5.50728e-07
5.53042e-07
8.7741e-07
6.76987e-07
8.00679e-07
6.59251e-07
8.95342e-07
7.44343e-07
5.46787e-08
5.04893e-07
5.06382e-07
5.07525e-07
5.08665e-07
5.09803e-07
5.10939e-07
5.12073e-07
5.13206e-07
5.14337e-07
5.15465e-07
5.16593e-07
5.17719e-07
5.18843e-07
5.19966e-07
5.21087e-07
5.22206e-07
5.23324e-07
5.2444e-07
5.25554e-07
5.26667e-07
5.27778e-07
5.28887e-07
5.29995e-07
5.31101e-07
5.32205e-07
5.33308e-07
5.3441e-07
5.35509e-07
5.36607e-07
5.37704e-07
5.38797e-07
5.39891e-07
5.40982e-07
5.42071e-07
5.43159e-07
5.44246e-07
5.4533e-07
5.46413e-07
5.47495e-07
5.48573e-07
5.49652e-07
5.50728e-07
5.53043e-07
8.85178e-07
8.93772e-07
6.11417e-07
6.44714e-07
5.30208e-07
6.38297e-07
1.83232e-07
5.04887e-07
5.06382e-07
5.07526e-07
5.08665e-07
5.09803e-07
5.1094e-07
5.12073e-07
5.13206e-07
5.14337e-07
5.15465e-07
5.16593e-07
5.17719e-07
5.18843e-07
5.19966e-07
5.21087e-07
5.22206e-07
5.23324e-07
5.2444e-07
5.25554e-07
5.26667e-07
5.27778e-07
5.28887e-07
5.29995e-07
5.31101e-07
5.32205e-07
5.33308e-07
5.3441e-07
5.35509e-07
5.36607e-07
5.37704e-07
5.38797e-07
5.39891e-07
5.40982e-07
5.42071e-07
5.43159e-07
5.44246e-07
5.4533e-07
5.46413e-07
5.47494e-07
5.48573e-07
5.49652e-07
5.50728e-07
5.53043e-07
9.08827e-07
9.16096e-07
9.04578e-07
5.09279e-07
4.07045e-07
7.54746e-07
1.83337e-07
5.04894e-07
5.06386e-07
5.07528e-07
5.08667e-07
5.09805e-07
5.1094e-07
5.12074e-07
5.13206e-07
5.14337e-07
5.15466e-07
5.16593e-07
5.17719e-07
5.18843e-07
5.19966e-07
5.21087e-07
5.22206e-07
5.23324e-07
5.2444e-07
5.25554e-07
5.26667e-07
5.27778e-07
5.28887e-07
5.29995e-07
5.31101e-07
5.32205e-07
5.33308e-07
5.3441e-07
5.35509e-07
5.36607e-07
5.37704e-07
5.38797e-07
5.39891e-07
5.40982e-07
5.42071e-07
5.43159e-07
5.44246e-07
5.4533e-07
5.46413e-07
5.47495e-07
5.48573e-07
5.49652e-07
5.50728e-07
5.53043e-07
6.55329e-07
8.90403e-07
4.75185e-07
6.92417e-07
9.12835e-07
2.44848e-07
1.83347e-07
3.92423e-07
3.93665e-07
3.94698e-07
3.95732e-07
3.96764e-07
3.97796e-07
3.98827e-07
3.99857e-07
4.00887e-07
4.01916e-07
4.02945e-07
4.03972e-07
4.04999e-07
4.06025e-07
4.07051e-07
4.08076e-07
4.091e-07
4.10123e-07
4.11146e-07
4.12167e-07
4.13188e-07
4.14209e-07
4.15228e-07
4.16247e-07
4.17265e-07
4.18282e-07
4.19298e-07
4.20314e-07
4.21329e-07
4.22343e-07
4.23356e-07
4.24368e-07
4.2538e-07
4.26391e-07
4.27401e-07
4.2841e-07
4.29418e-07
4.30426e-07
4.31432e-07
4.32438e-07
4.33443e-07
4.34447e-07
4.36223e-07
2.39136e-07
5.07708e-07
1.64168e-07
8.16304e-07
8.83677e-07
7.52124e-07
1.83352e-07
3.92426e-07
3.93667e-07
3.94699e-07
3.95732e-07
3.96764e-07
3.97796e-07
3.98827e-07
3.99857e-07
4.00887e-07
4.01916e-07
4.02945e-07
4.03972e-07
4.04999e-07
4.06025e-07
4.07051e-07
4.08076e-07
4.091e-07
4.10123e-07
4.11146e-07
4.12167e-07
4.13188e-07
4.14209e-07
4.15228e-07
4.16247e-07
4.17265e-07
4.18282e-07
4.19298e-07
4.20314e-07
4.21329e-07
4.22343e-07
4.23356e-07
4.24368e-07
4.2538e-07
4.26391e-07
4.27401e-07
4.2841e-07
4.29418e-07
4.30426e-07
4.31432e-07
4.32438e-07
4.33443e-07
4.34447e-07
4.36223e-07
1.87206e-07
6.15005e-07
4.54722e-07
7.57668e-07
9.04038e-07
7.63174e-07
5.18323e-08
3.92423e-07
3.93665e-07
3.94698e-07
3.95732e-07
3.96764e-07
3.97795e-07
3.98827e-07
3.99857e-07
4.00887e-07
4.01916e-07
4.02945e-07
4.03972e-07
4.04999e-07
4.06025e-07
4.07051e-07
4.08076e-07
4.091e-07
4.10123e-07
4.11146e-07
4.12167e-07
4.13188e-07
4.14209e-07
4.15228e-07
4.16247e-07
4.17265e-07
4.18282e-07
4.19298e-07
4.20314e-07
4.21329e-07
4.22343e-07
4.23356e-07
4.24368e-07
4.2538e-07
4.26391e-07
4.27401e-07
4.2841e-07
4.29418e-07
4.30426e-07
4.31432e-07
4.32438e-07
4.33443e-07
4.34447e-07
4.36223e-07
9.08434e-07
9.06487e-07
5.67878e-07
6.55467e-07
8.33073e-07
7.30003e-07
5.93072e-08
3.92417e-07
3.93662e-07
3.94696e-07
3.9573e-07
3.96763e-07
3.97795e-07
3.98827e-07
3.99857e-07
4.00887e-07
4.01916e-07
4.02944e-07
4.03972e-07
4.04999e-07
4.06025e-07
4.07051e-07
4.08076e-07
4.091e-07
4.10123e-07
4.11146e-07
4.12167e-07
4.13188e-07
4.14209e-07
4.15228e-07
4.16247e-07
4.17265e-07
4.18282e-07
4.19298e-07
4.20314e-07
4.21329e-07
4.22343e-07
4.23356e-07
4.24368e-07
4.2538e-07
4.26391e-07
4.27401e-07
4.2841e-07
4.29418e-07
4.30426e-07
4.31432e-07
4.32438e-07
4.33443e-07
4.34447e-07
4.36223e-07
7.62545e-07
8.06497e-07
8.29523e-07
1.50265e-07
8.16547e-07
6.92627e-07
1.39439e-07
3.92414e-07
3.9366e-07
3.94695e-07
3.9573e-07
3.96763e-07
3.97795e-07
3.98827e-07
3.99857e-07
4.00887e-07
4.01916e-07
4.02944e-07
4.03972e-07
4.04999e-07
4.06025e-07
4.07051e-07
4.08076e-07
4.091e-07
4.10123e-07
4.11146e-07
4.12167e-07
4.13188e-07
4.14209e-07
4.15228e-07
4.16247e-07
4.17265e-07
4.18282e-07
4.19298e-07
4.20314e-07
4.21329e-07
4.22343e-07
4.23356e-07
4.24368e-07
4.2538e-07
4.26391e-07
4.27401e-07
4.2841e-07
4.29418e-07
4.30426e-07
4.31432e-07
4.32438e-07
4.33443e-07
4.34447e-07
4.36223e-07
8.40969e-07
2.83014e-07
4.9171e-07
9.03616e-07
6.37288e-07
7.14195e-07
1.9866e-07
3.92415e-07
3.9366e-07
3.94695e-07
3.9573e-07
3.96763e-07
3.97795e-07
3.98827e-07
3.99857e-07
4.00887e-07
4.01916e-07
4.02944e-07
4.03972e-07
4.04999e-07
4.06025e-07
4.07051e-07
4.08076e-07
4.091e-07
4.10123e-07
4.11146e-07
4.12167e-07
4.13188e-07
4.14209e-07
4.15228e-07
4.16247e-07
4.17265e-07
4.18282e-07
4.19298e-07
4.20314e-07
4.21329e-07
4.22343e-07
4.23356e-07
4.24368e-07
4.2538e-07
4.26391e-07
4.27401e-07
4.2841e-07
4.29418e-07
4.30426e-07
4.31432e-07
4.32438e-07
4.33443e-07
4.34447e-07
4.36223e-07
2.37982e-07
8.77454e-07
5.62811e-07
5.89283e-07
6.30767e-07
7.34872e-07
1.1111e-07
3.92418e-07
3.93662e-07
3.94696e-07
3.9573e-07
3.96763e-07
3.97795e-07
3.98827e-07
3.99857e-07
4.00887e-07
4.01916e-07
4.02944e-07
4.03972e-07
4.04999e-07
4.06025e-07
4.07051e-07
4.08076e-07
4.091e-07
4.10123e-07
4.11146e-07
4.12167e-07
4.13188e-07
4.14209e-07
4.15228e-07
4.16247e-07
4.17265e-07
4.18282e-07
4.19298e-07
4.20314e-07
4.21329e-07
4.22343e-07
4.23356e-07
4.24368e-07
4.2538e-07
4.26391e-07
4.27401e-07
4.2841e-07
4.29418e-07
4.30426e-07
4.31432e-07
4.32438e-07
4.33443e-07
4.34447e-07
4.36223e-07
8.80744e-07
7.05704e-07
7.28682e-07
7.18197e-07
8.99763e-07
7.53511e-07
5.45501e-08
3.92418e-07
3.93661e-07
3.94696e-07
3.9573e-07
3.96763e-07
3.97795e-07
3.98827e-07
3.99857e-07
4.00887e-07
4.01916e-07
4.02944e-07
4.03972e-07
4.04999e-07
4.06025e-07
4.07051e-07
4.08076e-07
4.091e-07
4.10123e-07
4.11146e-07
4.12167e-07
4.13188e-07
4.14209e-07
4.15228e-07
4.16247e-07
4.17265e-07
4.18282e-07
4.19298e-07
4.20314e-07
4.21329e-07
4.22343e-07
4.23356e-07
4.24368e-07
4.2538e-07
4.26391e-07
4.27401e-07
4.2841e-07
4.29418e-07
4.30426e-07
4.31432e-07
4.32438e-07
4.33443e-07
4.34447e-07
4.36223e-07
8.72612e-07
8.49237e-07
3.97927e-07
4.28282e-07
2.07914e-07
5.56685e-07
1.83238e-07
3.92416e-07
3.93661e-07
3.94696e-07
3.9573e-07
3.96763e-07
3.97795e-07
3.98827e-07
3.99857e-07
4.00887e-07
4.01916e-07
4.02944e-07
4.03972e-07
4.04999e-07
4.06025e-07
4.07051e-07
4.08076e-07
4.091e-07
4.10123e-07
4.11146e-07
4.12167e-07
4.13188e-07
4.14209e-07
4.15228e-07
4.16247e-07
4.17265e-07
4.18282e-07
4.19298e-07
4.20314e-07
4.21329e-07
4.22343e-07
4.23356e-07
4.24368e-07
4.2538e-07
4.26391e-07
4.27401e-07
4.2841e-07
4.29418e-07
4.30426e-07
4.31432e-07
4.32438e-07
4.33443e-07
4.34447e-07
4.36223e-07
9.00941e-07
8.84241e-07
8.07512e-07
6.53634e-07
8.2636e-07
7.60059e-07
1.83342e-07
3.92418e-07
3.93662e-07
3.94697e-07
3.95731e-07
3.96763e-07
3.97795e-07
3.98827e-07
3.99857e-07
4.00887e-07
4.01916e-07
4.02945e-07
4.03972e-07
4.04999e-07
4.06025e-07
4.07051e-07
4.08076e-07
4.091e-07
4.10123e-07
4.11146e-07
4.12167e-07
4.13188e-07
4.14209e-07
4.15228e-07
4.16247e-07
4.17265e-07
4.18282e-07
4.19298e-07
4.20314e-07
4.21329e-07
4.22343e-07
4.23356e-07
4.24368e-07
4.2538e-07
4.26391e-07
4.27401e-07
4.2841e-07
4.29418e-07
4.30426e-07
4.31432e-07
4.32438e-07
4.33443e-07
4.34447e-07
4.36223e-07
3.51425e-08
6.90129e-07
3.51429e-08
2.39928e-07
5.17854e-08
7.60981e-07
5.17867e-08
3.51456e-08
6.98002e-07
3.71536e-08
7.57792e-07
5.17937e-08
7.1046e-07
5.50517e-08
4.09609e-08
6.77015e-07
1.11713e-07
7.36501e-07
6.05074e-08
7.42268e-07
1.58383e-07
1.87512e-07
5.65272e-07
6.94739e-07
7.5181e-07
2.55337e-07
7.33724e-07
7.66014e-07
6.9409e-07
6.46141e-07
6.97438e-07
4.43337e-07
7.66126e-07
6.38416e-07
7.72731e-07
6.965e-07
4.4988e-07
6.95397e-07
7.11864e-07
7.72821e-07
5.56389e-07
7.67264e-07
6.93641e-07
4.16362e-07
1.87612e-07
4.86779e-07
7.6761e-07
6.81374e-07
2.57023e-07
1.14657e-07
6.29932e-07
4.02202e-08
7.27109e-07
1.63131e-07
5.92152e-07
5.92902e-08
3.71222e-08
6.9556e-07
3.51447e-08
6.75981e-07
5.48519e-08
7.62319e-07
5.17889e-08
3.51426e-08
1.53221e-07
3.51425e-08
7.61919e-07
5.17846e-08
2.01829e-07
5.17846e-08
5.17853e-08
7.57859e-07
5.17867e-08
2.4551e-07
5.17853e-08
7.65164e-07
5.17863e-08
5.17938e-08
7.01557e-07
5.5132e-08
7.49909e-07
5.17932e-08
7.00682e-07
5.51747e-08
6.06099e-08
7.39941e-07
1.58424e-07
7.63119e-07
6.08357e-08
7.37482e-07
1.58636e-07
2.55333e-07
7.16436e-07
7.65837e-07
7.30693e-07
2.55415e-07
7.49373e-07
7.67973e-07
7.6732e-07
5.93971e-07
7.71478e-07
6.8963e-07
7.67032e-07
7.23755e-07
7.7283e-07
7.72695e-07
7.21163e-07
7.66529e-07
7.20133e-07
7.70381e-07
7.51409e-07
7.68645e-07
7.67134e-07
7.13049e-07
2.55851e-07
7.1978e-07
7.669e-07
7.44052e-07
2.56198e-07
1.63307e-07
5.87873e-07
5.95252e-08
7.51111e-07
1.6362e-07
4.69236e-07
5.98061e-08
5.48704e-08
7.63844e-07
5.17885e-08
5.33706e-07
5.46764e-08
7.56494e-07
5.17876e-08
5.17845e-08
1.9846e-07
5.17844e-08
7.5525e-07
5.17845e-08
1.92912e-07
5.17849e-08
5.17853e-08
7.64533e-07
5.17862e-08
1.75008e-07
3.51425e-08
6.91471e-07
3.51428e-08
5.17918e-08
7.17675e-07
5.51134e-08
6.93453e-07
3.51456e-08
6.91687e-07
3.72034e-08
6.07469e-08
7.39529e-07
1.58888e-07
6.87977e-07
4.10874e-08
6.89926e-07
1.1189e-07
2.55419e-07
7.48628e-07
7.65847e-07
6.85899e-07
1.87109e-07
6.72135e-07
6.93722e-07
7.66959e-07
6.93265e-07
7.71706e-07
6.85673e-07
6.94851e-07
6.83257e-07
6.96942e-07
7.70976e-07
7.58721e-07
7.68799e-07
6.78518e-07
6.96772e-07
6.88733e-07
6.95578e-07
7.6662e-07
7.53128e-07
2.56658e-07
6.62505e-07
6.93671e-07
6.87714e-07
1.88329e-07
1.63615e-07
5.33002e-07
5.96987e-08
6.25248e-07
1.15294e-07
4.39328e-07
4.04439e-08
5.46692e-08
7.52668e-07
5.17876e-08
6.17173e-07
3.69275e-08
6.94515e-07
3.51442e-08
5.17844e-08
1.91396e-07
5.1785e-08
6.8577e-07
3.51425e-08
1.35208e-07
3.51424e-08
6.93404e-07
8.88517e-07
6.14646e-07
8.2466e-07
7.69001e-07
9.13486e-07
7.68498e-07
6.00874e-08
3.92836e-08
2.37977e-07
2.41582e-07
3.12515e-07
4.07042e-08
5.79484e-08
1.29658e-07
1.29269e-07
1.29658e-07
1.83348e-07
1.84017e-07
1.83349e-07
1.84018e-07
8.11346e-07
7.7883e-07
8.6079e-07
8.72816e-07
4.36219e-07
8.30673e-07
8.84718e-07
5.80807e-07
1.45836e-07
6.98346e-07
7.69464e-07
2.01072e-07
7.72329e-07
4.89926e-07
1.29659e-07
1.29219e-07
1.29659e-07
1.83352e-07
1.8402e-07
1.83251e-07
1.84021e-07
8.64061e-07
6.62475e-07
6.71166e-07
8.78592e-07
9.0632e-07
5.17006e-07
6.67223e-07
7.62133e-07
6.95363e-07
6.679e-07
6.46907e-07
7.66107e-07
6.49204e-07
6.98337e-07
1.29568e-07
3.67596e-08
1.29567e-07
5.18316e-08
1.83836e-07
5.44516e-08
1.83834e-07
6.65263e-07
7.7722e-07
7.81919e-07
5.94653e-07
5.91369e-07
2.29625e-07
3.76004e-07
7.72086e-07
6.69836e-07
3.32697e-07
7.48847e-07
7.38087e-07
4.23118e-07
6.98122e-07
1.29566e-07
7.54865e-08
1.29567e-07
5.93124e-08
1.8383e-07
1.09053e-07
1.83832e-07
5.85928e-07
8.14161e-07
5.83537e-07
1.65304e-07
6.36856e-08
3.94847e-07
2.71915e-07
7.65875e-07
6.5243e-07
3.49091e-07
3.87542e-07
7.0925e-07
4.67089e-07
6.98012e-07
1.29575e-07
1.4286e-07
1.29583e-07
1.39455e-07
1.83848e-07
1.99022e-07
1.83865e-07
7.90361e-07
8.81852e-07
8.8634e-07
7.95504e-07
8.8986e-07
9.13807e-07
9.07724e-07
7.7099e-07
6.94367e-07
6.73965e-07
7.44805e-07
7.64723e-07
7.37799e-07
6.97138e-07
1.29583e-07
9.87141e-08
1.29576e-07
1.98875e-07
1.83866e-07
1.41273e-07
1.83852e-07
8.22017e-07
8.97415e-07
8.80486e-07
8.554e-07
8.36344e-07
8.7078e-07
9.11042e-07
7.37008e-07
5.56227e-07
3.97111e-07
3.65631e-07
6.59507e-07
3.88367e-07
6.53803e-07
1.29567e-07
4.01456e-08
1.29566e-07
1.11006e-07
1.83834e-07
5.92702e-08
1.83832e-07
8.79358e-07
6.38853e-07
7.83829e-07
8.31196e-07
8.44264e-07
2.93494e-07
2.51114e-07
7.69308e-07
6.98446e-07
5.25007e-07
6.67038e-07
7.70374e-07
7.07206e-07
6.97467e-07
1.29566e-07
3.51775e-08
1.29566e-07
5.4634e-08
1.83831e-07
5.18282e-08
1.83829e-07
8.00401e-07
5.14107e-07
6.21839e-07
5.13084e-07
6.46599e-07
3.2195e-07
6.11322e-07
7.32567e-07
6.92261e-07
5.97194e-07
6.73088e-07
7.62507e-07
6.6298e-07
6.63846e-07
1.29656e-07
1.29267e-07
1.29656e-07
1.83238e-07
1.84012e-07
1.83339e-07
1.84011e-07
6.80626e-07
2.67565e-07
6.46532e-07
4.44836e-07
7.54889e-07
6.13829e-07
7.43533e-07
7.69006e-08
7.14414e-08
6.82098e-07
7.6213e-07
1.03264e-07
7.37107e-07
5.27348e-08
1.29657e-07
1.29268e-07
1.29657e-07
1.83342e-07
1.84013e-07
1.83345e-07
1.84014e-07
7.66512e-07
9.05298e-07
7.34627e-07
8.95013e-07
7.68605e-07
9.14204e-07
7.71926e-07
6.05802e-08
5.82935e-08
3.07883e-07
2.43692e-07
6.04202e-08
3.03591e-07
5.82092e-08
1.84012e-07
1.83346e-07
1.84014e-07
1.83344e-07
1.84012e-07
1.83346e-07
1.84014e-07
4.33761e-07
8.26811e-07
8.32821e-07
7.94991e-07
5.89178e-07
8.28499e-07
8.22067e-07
5.71934e-07
1.9786e-07
7.65824e-07
7.16938e-07
5.82127e-07
2.00779e-07
7.57739e-07
1.84017e-07
1.8325e-07
1.84018e-07
1.83349e-07
1.84017e-07
1.8325e-07
1.84018e-07
9.13769e-07
4.02145e-07
6.71247e-07
8.69768e-07
9.02419e-07
8.63538e-07
7.61188e-07
7.16896e-07
7.49301e-07
5.55869e-07
7.6948e-07
7.24811e-07
7.45782e-07
6.42998e-07
1.83832e-07
5.45145e-08
1.83829e-07
5.18329e-08
1.83832e-07
5.4504e-08
1.83829e-07
6.11917e-07
2.22933e-07
3.22112e-07
7.99634e-07
8.3158e-07
2.47433e-07
2.16616e-07
7.21805e-07
7.43176e-07
4.46266e-07
7.31179e-07
7.19218e-07
7.41703e-07
5.63709e-07
1.83824e-07
1.09013e-07
1.83826e-07
5.93782e-08
1.83825e-07
1.09088e-07
1.83826e-07
5.52197e-08
4.90147e-07
2.64567e-07
6.53591e-07
3.59187e-07
5.55274e-07
2.52569e-07
7.47188e-07
7.19556e-07
3.97817e-07
6.90853e-07
7.44157e-07
7.14961e-07
5.09807e-07
1.83843e-07
1.99122e-07
1.83859e-07
1.39485e-07
1.83843e-07
1.99088e-07
1.83859e-07
8.0611e-07
7.86027e-07
7.23521e-07
6.54984e-07
3.35675e-07
6.16173e-07
6.44317e-07
7.5912e-07
7.59029e-07
6.96313e-07
6.74415e-07
7.6717e-07
7.54004e-07
7.1961e-07
1.83861e-07
1.41325e-07
1.83847e-07
1.98811e-07
1.83861e-07
1.41392e-07
1.83847e-07
7.93772e-07
7.72752e-07
8.24504e-07
6.24004e-07
4.80766e-07
6.57809e-07
5.59097e-07
7.68501e-07
7.57617e-07
6.41385e-07
6.87275e-07
7.64547e-07
7.61832e-07
6.97938e-07
1.83829e-07
5.93814e-08
1.83827e-07
1.10948e-07
1.8383e-07
5.93412e-08
1.83827e-07
5.93832e-07
3.05234e-07
2.02471e-07
8.93621e-07
6.98145e-07
1.93951e-07
2.82794e-07
7.50284e-07
7.6599e-07
7.04715e-07
7.34396e-07
7.54944e-07
7.67413e-07
5.95447e-07
1.83826e-07
5.18284e-08
1.83824e-07
5.46226e-08
1.83826e-07
5.18294e-08
1.83824e-07
5.13536e-07
2.32953e-07
5.54438e-07
2.8328e-07
4.8047e-07
3.70075e-07
5.75577e-07
7.22623e-07
7.64165e-07
5.88656e-07
5.58813e-07
7.24277e-07
7.577e-07
6.55614e-07
1.84006e-07
1.83333e-07
1.84005e-07
1.83232e-07
1.84006e-07
1.83333e-07
1.84005e-07
6.68636e-07
6.14217e-07
7.3834e-07
6.74726e-07
6.9163e-07
6.7607e-07
7.48296e-07
7.65474e-08
1.03028e-07
7.45801e-07
7.49853e-07
7.6709e-08
1.02897e-07
7.45468e-07
1.84007e-07
1.8334e-07
1.84009e-07
1.83337e-07
1.84007e-07
1.8334e-07
1.84009e-07
7.66159e-07
8.94216e-07
7.1055e-07
8.58296e-07
6.95585e-07
8.88064e-07
6.95189e-07
6.07422e-08
5.81176e-08
2.98766e-07
2.43372e-07
6.0729e-08
2.96041e-07
5.80958e-08
1.84016e-07
1.83349e-07
1.84018e-07
1.29269e-07
1.29658e-07
1.29269e-07
1.29658e-07
5.76208e-07
8.91036e-07
8.66744e-07
9.02016e-07
7.69743e-07
8.68619e-07
8.91433e-07
5.57609e-07
2.07327e-07
7.63975e-07
7.58432e-07
5.63729e-07
2.08605e-07
7.70641e-07
1.8402e-07
1.83251e-07
1.84021e-07
1.2927e-07
1.29659e-07
1.29219e-07
1.29659e-07
9.25618e-07
8.87685e-07
9.10247e-07
8.91327e-07
8.93497e-07
8.46885e-07
8.96163e-07
7.63783e-07
7.65056e-07
7.42875e-07
7.62492e-07
7.49719e-07
7.68455e-07
7.61654e-07
1.83836e-07
5.44362e-08
1.83834e-07
3.51782e-08
1.29568e-07
3.67538e-08
1.29567e-07
8.78583e-07
6.7438e-07
6.91984e-07
6.48538e-07
8.7841e-07
5.85259e-07
8.52853e-07
7.66201e-07
7.47448e-07
7.08608e-07
7.33547e-07
7.5971e-07
7.54131e-07
7.237e-07
1.8383e-07
1.08851e-07
1.83832e-07
4.00758e-08
1.29566e-07
7.52621e-08
1.29567e-07
5.49203e-07
3.70912e-07
2.65786e-07
8.83611e-07
8.63684e-07
8.78673e-07
7.15196e-07
7.66046e-07
7.46763e-07
6.06318e-07
7.06741e-07
7.5346e-07
7.57405e-07
6.36749e-07
1.83848e-07
1.98952e-07
1.83865e-07
9.77345e-08
1.29575e-07
1.42742e-07
1.29583e-07
5.06772e-07
5.66908e-07
5.97437e-07
5.81903e-07
7.89831e-07
8.69883e-07
7.62798e-07
7.27834e-07
7.58572e-07
3.5614e-07
7.36831e-07
7.42397e-07
7.64816e-07
3.65556e-07
1.83866e-07
1.41312e-07
1.83852e-07
1.4242e-07
1.29583e-07
9.86884e-08
1.29576e-07
6.13814e-07
6.08627e-07
5.23512e-07
6.34533e-07
6.15811e-07
6.58317e-07
2.88918e-07
7.62558e-07
7.54359e-07
7.25142e-07
6.9338e-07
7.62478e-07
7.53902e-07
7.16491e-07
1.83834e-07
5.92505e-08
1.83832e-07
7.67555e-08
1.29567e-07
4.01106e-08
1.29567e-07
7.03579e-07
1.00894e-07
3.8119e-07
8.51201e-07
4.58582e-07
2.01382e-07
4.93852e-07
7.10219e-07
7.6511e-07
2.5796e-07
7.25761e-07
7.3943e-07
7.60435e-07
2.68436e-07
1.83831e-07
5.18294e-08
1.83829e-07
3.68309e-08
1.29566e-07
3.51747e-08
1.29566e-07
4.99958e-07
6.60892e-07
5.81259e-07
3.96141e-07
6.89898e-07
8.73547e-07
6.53597e-07
7.56762e-07
7.56765e-07
7.55505e-07
5.84843e-07
7.54212e-07
7.59325e-07
7.15687e-07
1.84012e-07
1.83339e-07
1.84011e-07
1.29216e-07
1.29657e-07
1.29267e-07
1.29656e-07
7.49247e-07
7.62254e-07
7.49154e-07
8.4712e-07
6.59752e-07
6.87038e-07
6.93771e-07
7.68364e-08
1.02564e-07
7.55979e-07
7.58447e-07
7.68438e-08
1.02386e-07
7.58651e-07
1.84012e-07
1.83345e-07
1.84014e-07
1.29267e-07
1.29657e-07
1.29268e-07
1.29657e-07
5.16983e-08
3.50889e-08
3.51426e-08
5.17918e-08
5.17917e-08
3.50902e-08
5.16949e-08
7.92301e-08
6.87423e-07
8.04715e-08
7.60124e-07
7.61113e-07
1.15829e-07
5.42841e-08
5.17189e-08
3.51426e-08
3.53538e-08
5.17927e-08
5.17918e-08
5.21455e-08
3.50999e-08
6.01455e-08
2.40675e-07
5.82584e-08
3.1195e-07
3.12656e-07
6.02364e-08
5.81164e-08
5.16977e-08
5.17911e-08
5.1689e-08
5.17853e-08
5.17911e-08
5.16914e-08
5.16948e-08
7.92289e-08
7.61906e-07
7.52611e-07
1.15098e-07
7.60252e-07
1.15555e-07
7.92316e-08
5.17193e-08
5.17923e-08
5.17854e-08
5.22697e-08
5.17912e-08
5.22061e-08
5.17134e-08
6.95447e-08
3.78718e-08
3.51535e-08
5.17985e-08
5.58709e-08
5.1816e-08
4.74392e-08
6.79804e-07
6.9492e-07
6.93622e-07
7.58379e-07
7.19039e-07
7.6443e-07
6.13642e-07
9.15239e-08
3.52716e-08
1.12552e-07
5.48474e-08
5.20426e-08
1.5899e-07
6.26802e-08
5.81535e-07
7.66222e-07
1.95285e-07
7.69391e-07
1.97475e-07
7.71024e-07
5.85625e-07
6.95589e-08
5.17984e-08
5.6375e-08
5.18094e-08
5.61331e-08
5.18155e-08
6.95785e-08
6.46653e-07
7.26734e-07
5.83974e-07
7.53785e-07
6.34633e-07
7.58622e-07
6.14858e-07
9.26509e-08
5.49627e-08
5.19399e-08
1.585e-07
5.20323e-08
1.58671e-07
9.41113e-08
7.16791e-07
2.10148e-07
5.22326e-08
6.03154e-08
2.83436e-07
7.67999e-08
6.68209e-07
7.47491e-07
6.7843e-07
6.93691e-07
7.26377e-07