/*--------------------------------*- C++ -*----------------------------------*\
| =========                 |                                                 |
| \\      /  F ield         | OpenFOAM: The Open Source CFD Toolbox           |
|  \\    /   O peration     | Version:  5.0                                   |
|   \\  /    A nd           | Web:      www.OpenFOAM.org                      |
|    \\/     M anipulation  |                                                 |
\*---------------------------------------------------------------------------*/
FoamFile
{
    version     2.0;
    format      ascii;
    class       volVectorField;
    location    "0.7";
    object      U;
}
// * * * * * * * * * * * * * * * * * * * * * * * * * * * * * * * * * * * * * //

dimensions      [0 1 -1 0 0 0 0];

internalField   nonuniform List<vector> 
9641
(
(8.17561e-05 0.00124509 -0.000164924)
(-0.0114929 0.00279222 -0.00283685)
(0.00674581 -0.020861 0.000403068)
(0.00448501 -0.00913831 0.000995452)
(0.0030842 0.0249396 -0.000822414)
(0.00104248 -0.000522431 -2.99629e-05)
(0.000151904 7.43162e-05 -1.48426e-06)
(0.000522097 5.72772e-05 -1.23246e-06)
(0.000614957 3.69974e-05 -2.72371e-07)
(0.000683845 2.37645e-05 1.33268e-07)
(0.000723183 1.50005e-05 9.33778e-08)
(0.000748002 9.20934e-06 6.46705e-08)
(0.000763299 5.69604e-06 2.84478e-09)
(0.000771783 3.79511e-06 7.81754e-08)
(0.000776215 2.286e-06 4.62331e-08)
(0.000778483 1.19611e-06 -1.85362e-08)
(0.000779398 8.50698e-07 4.90173e-08)
(0.000779376 6.97322e-07 3.25375e-08)
(0.000778424 2.7615e-07 4.32399e-08)
(0.000777864 -9.72267e-08 1.0678e-07)
(0.000776988 6.41854e-08 7.42829e-08)
(0.000775575 1.7523e-07 5.89015e-08)
(0.000774266 1.2468e-07 2.29232e-09)
(0.000772788 1.96769e-07 4.38399e-08)
(0.000771576 2.69548e-07 7.55246e-08)
(0.000770251 2.10437e-07 5.43955e-08)
(0.000768709 2.72507e-08 5.09042e-08)
(0.000767516 3.99754e-08 4.60741e-08)
(0.000765897 1.16715e-07 3.10195e-08)
(0.000764379 -6.94173e-08 3.71837e-08)
(0.000763047 -4.40994e-07 7.54984e-08)
(0.000761199 -4.3985e-07 8.16937e-08)
(0.000759728 -4.35194e-07 6.96033e-08)
(0.00075891 -1.86346e-07 8.02431e-08)
(0.000757849 2.34943e-08 4.73696e-08)
(0.000756106 9.78108e-08 5.74709e-08)
(0.000754447 1.00593e-07 1.1798e-07)
(0.000752934 2.71974e-07 3.27138e-08)
(0.000751845 4.06719e-07 5.87887e-08)
(0.000750702 1.35306e-07 1.37068e-07)
(0.000749031 -4.88223e-08 2.63296e-08)
(0.000747535 -1.35075e-07 7.11205e-08)
(0.000746725 -8.2317e-07 8.70898e-08)
(0.000745075 -5.76529e-07 4.89679e-09)
(0.000743056 -3.26606e-07 2.96155e-08)
(0.000741945 4.66979e-08 4.90631e-08)
(0.000740979 9.33109e-08 6.69528e-08)
(0.000739848 -1.18059e-07 4.06019e-08)
(0.000738067 -4.29219e-07 1.89728e-08)
(0.00073642 -3.76126e-07 6.26393e-09)
(-0.0485857 -0.00936649 0.00506513)
(-0.00370848 -0.00512987 0.0024019)
(0.0161847 0.0126079 -0.00594204)
(-0.00455022 0.00173597 0.000874565)
(-0.00730994 -0.00768279 0.000181538)
(-0.000807734 -0.000613977 0.000160606)
(0.000157532 -1.49651e-05 -1.46744e-06)
(0.000536767 -0.000106413 -1.10318e-06)
(0.000619732 -6.96632e-05 -1.48253e-07)
(0.000688845 -4.30673e-05 1.69292e-07)
(0.000726595 -2.69099e-05 6.92198e-08)
(0.000750365 -1.66104e-05 7.23973e-08)
(0.00076432 -1.03484e-05 6.03699e-08)
(0.000772362 -6.71792e-06 5.15111e-08)
(0.000776616 -4.2254e-06 5.20479e-08)
(0.00077894 -2.81057e-06 6.95758e-08)
(0.000779852 -1.71726e-06 4.81162e-08)
(0.000779594 -1.24059e-06 8.26221e-08)
(0.000778909 -5.43213e-07 1.78689e-08)
(0.000777985 -1.61814e-07 2.74039e-08)
(0.00077695 -8.97673e-08 8.45809e-08)
(0.000775638 -8.24175e-08 6.47683e-08)
(0.000774311 1.04159e-07 2.36923e-07)
(0.000773091 8.28638e-08 2.73748e-08)
(0.000771524 3.62631e-07 -4.5198e-08)
(0.000769911 -2.47168e-08 1.43189e-07)
(0.000768602 -1.23043e-07 5.52918e-08)
(0.000767329 -2.67639e-07 5.71357e-08)
(0.00076583 -6.53945e-07 7.28187e-08)
(0.000764036 -5.33219e-07 3.07663e-08)
(0.00076261 -3.7605e-07 -1.06535e-07)
(0.000761385 -2.22438e-07 1.0508e-08)
(0.000760257 5.49992e-07 1.37035e-07)
(0.000759323 7.63772e-07 8.07251e-08)
(0.000757864 2.98477e-07 4.66093e-08)
(0.00075619 8.75476e-08 5.42225e-08)
(0.000754797 1.87574e-07 5.30819e-08)
(0.000753479 2.57598e-07 9.54209e-09)
(0.000751725 4.53058e-07 1.02152e-07)
(0.000750034 2.7474e-07 2.57773e-08)
(0.000748748 9.55691e-08 5.72753e-08)
(0.000747198 -1.43829e-09 6.75379e-08)
(0.000745851 -1.38584e-07 7.89007e-08)
(0.000745233 -6.74609e-07 8.108e-08)
(0.000744159 -7.15242e-08 5.57335e-08)
(0.000742376 1.81056e-07 5.48292e-08)
(0.000740671 3.61741e-07 7.92023e-08)
(0.000739203 5.40321e-08 5.01778e-08)
(0.000737968 -1.78449e-07 6.36814e-08)
(0.000737071 -2.07656e-07 1.09706e-07)
(0.0130948 -0.00465009 0.00134473)
(0.000552817 -0.0010538 -0.000112984)
(0.0181508 -0.00192399 -0.0026958)
(0.000493513 0.0275607 0.000957218)
(-0.0127373 -0.00697405 0.000211057)
(0.015037 0.00157332 0.000298875)
(0.00016701 -9.21924e-05 2.70477e-06)
(0.000676866 -0.000257513 -1.36971e-06)
(0.00069539 -0.000157045 -4.68129e-07)
(0.000737657 -9.63191e-05 1.88689e-07)
(0.000756487 -5.93144e-05 7.36068e-08)
(0.000768851 -3.66621e-05 7.14389e-08)
(0.000775758 -2.27573e-05 5.7607e-08)
(0.000779495 -1.41573e-05 5.58755e-08)
(0.000781138 -8.79093e-06 5.25644e-08)
(0.000781643 -5.38032e-06 -1.37672e-07)
(0.000781377 -3.44131e-06 5.56629e-08)
(0.000780854 -2.15294e-06 9.4318e-08)
(0.000779779 -1.58709e-06 1.54958e-07)
(0.000778435 -8.91456e-07 5.79759e-08)
(0.000777089 -6.68124e-07 4.62622e-08)
(0.000775818 -4.35653e-07 4.47656e-08)
(0.000774472 -3.34846e-07 7.0379e-08)
(0.000773109 -3.41942e-07 -1.22156e-07)
(0.00077144 -5.94542e-07 1.25073e-07)
(0.000769643 -2.95021e-07 2.25382e-08)
(0.000768406 -1.76815e-07 4.09696e-08)
(0.000766856 -1.31529e-07 5.4938e-08)
(0.00076557 -1.54327e-07 1.4708e-08)
(0.000764733 1.98188e-07 2.50093e-08)
(0.00076344 4.27106e-07 2.72708e-07)
(0.000762357 5.75888e-07 4.87365e-08)
(0.000760958 6.38708e-07 1.28664e-07)
(0.000758591 5.07474e-07 -1.94006e-08)
(0.000757 1.9877e-07 9.60693e-08)
(0.000755967 1.36757e-07 6.48379e-08)
(0.000754658 9.33559e-08 5.90091e-08)
(0.000753263 2.31903e-09 5.73638e-08)
(0.000751863 -7.83676e-08 3.03858e-08)
(0.000750253 -5.73677e-08 1.18403e-08)
(0.000748684 1.12079e-07 3.05498e-08)
(0.000747243 2.12991e-07 3.7636e-08)
(0.000745887 5.89052e-07 9.45033e-08)
(0.000745163 6.84847e-07 1.46875e-07)
(0.000744129 3.36113e-07 8.12809e-08)
(0.000742486 1.29853e-07 3.10255e-08)
(0.00074082 2.4927e-07 7.04234e-08)
(0.000739173 4.31481e-07 8.30849e-08)
(0.000737745 2.75321e-07 8.33483e-09)
(0.0007369 1.51732e-07 1.21324e-07)
(0.0030406 -0.0060163 0.000304338)
(-0.00636037 -0.00194715 0.000331508)
(-0.0191931 -0.00834742 0.00108577)
(-0.0175186 -0.00428764 0.00309522)
(-0.00203065 -0.0114444 -9.60401e-05)
(0.020876 0.0143371 0.00012958)
(0.000472206 -0.000290385 4.7387e-05)
(0.000882239 -0.000281114 -2.04466e-06)
(0.000822623 -0.000168612 -2.82131e-07)
(0.000811725 -0.000106296 1.40597e-07)
(0.000801604 -6.62611e-05 3.38855e-08)
(0.00079633 -4.13444e-05 4.56714e-08)
(0.000792616 -2.59956e-05 4.96264e-08)
(0.000789922 -1.61464e-05 4.94734e-08)
(0.000787651 -9.91123e-06 4.72777e-08)
(0.000785667 -6.09604e-06 4.63775e-08)
(0.000783911 -3.84701e-06 4.58161e-08)
(0.000781929 -2.34373e-06 -6.71462e-09)
(0.000780498 -1.63751e-06 7.07541e-08)
(0.000779142 -1.09645e-06 2.7755e-08)
(0.000777525 -8.03066e-07 6.8318e-08)
(0.000776058 -5.7967e-07 4.96784e-08)
(0.00077443 -5.79213e-07 2.35165e-09)
(0.000772769 -3.64571e-07 7.29145e-08)
(0.000771585 -4.68221e-07 -1.27882e-08)
(0.000770436 -9.83412e-08 1.32784e-07)
(0.000768807 1.5216e-07 6.25568e-08)
(0.000767358 3.99705e-07 5.38667e-08)
(0.000766242 7.54601e-07 2.41911e-08)
(0.00076476 6.39428e-07 4.05691e-08)
(0.000763078 3.19756e-07 4.06765e-08)
(0.000761644 3.51824e-07 6.71316e-08)
(0.000760167 -1.92048e-07 6.74111e-08)
(0.000758771 -2.68623e-07 4.64326e-08)
(0.000757399 2.9035e-08 6.06849e-08)
(0.000756057 5.44049e-08 1.9265e-07)
(0.000754629 2.64662e-08 1.3916e-07)
(0.000753264 -4.59478e-08 4.06513e-08)
(0.000751651 -2.00694e-07 1.72072e-08)
(0.000750273 -2.34124e-07 -1.50103e-08)
(0.000749085 -2.04081e-08 5.31253e-08)
(0.000747791 1.11162e-07 5.67367e-08)
(0.000746437 3.15613e-07 1.71581e-07)
(0.000744912 6.15808e-07 -9.43094e-08)
(0.000743461 1.62637e-07 -1.69188e-08)
(0.000742265 5.45325e-08 5.76622e-08)
(0.000741045 6.63251e-08 7.36727e-08)
(0.000739233 3.20974e-07 4.54027e-08)
(0.000737614 2.24575e-07 4.75078e-08)
(0.000736537 2.79463e-07 1.44004e-07)
(-0.00076586 -0.000710133 0.000859045)
(0.0116012 -0.0114459 -0.00932428)
(-0.0102396 -0.0366735 0.00211824)
(0.0104604 -0.0213621 -0.00601455)
(-0.0498664 -0.0104081 0.00597628)
(0.0374513 0.0212888 -0.00140146)
(0.00105865 -9.52768e-05 1.04531e-05)
(0.00096919 -0.000182161 -3.75861e-06)
(0.000915089 -0.000116097 4.9777e-08)
(0.000866291 -7.62658e-05 -1.15422e-08)
(0.000838112 -4.84798e-05 2.68151e-08)
(0.000819453 -3.08196e-05 5.19111e-07)
(0.000807423 -1.91471e-05 1.19532e-07)
(0.000799705 -1.21243e-05 4.91939e-08)
(0.000793764 -7.77355e-06 2.93855e-08)
(0.000789262 -4.9321e-06 1.2873e-08)
(0.000786091 -3.05783e-06 4.61907e-08)
(0.000783631 -1.98288e-06 4.06361e-08)
(0.000781348 -1.09658e-06 3.57896e-08)
(0.000779485 -8.59514e-07 8.91869e-08)
(0.000777741 -5.08585e-07 6.46833e-08)
(0.000776103 -2.32902e-07 2.23718e-07)
(0.000774745 -1.43343e-07 8.26496e-08)
(0.000773251 -8.54094e-09 1.00493e-07)
(0.000771775 2.44802e-07 1.68408e-07)
(0.00077042 7.16364e-08 6.39036e-08)
(0.000769027 1.7965e-07 6.7057e-08)
(0.000767604 2.59461e-07 3.13438e-08)
(0.000765863 3.71457e-07 2.24281e-08)
(0.000764181 2.47852e-07 1.33165e-08)
(0.000763074 5.05342e-08 5.4339e-08)
(0.000761713 -2.39978e-07 1.50152e-08)
(0.00076018 -9.20477e-09 6.79812e-08)
(0.000758867 -1.91428e-08 5.11557e-08)
(0.000757404 5.68105e-08 5.50225e-08)
(0.000755963 -7.74957e-08 4.73189e-08)
(0.000754533 -1.33223e-07 -1.50695e-07)
(0.00075298 -1.61867e-07 6.90191e-08)
(0.00075163 -1.47166e-07 4.36049e-08)
(0.00075048 -3.05617e-08 4.54265e-08)
(0.000749116 7.31225e-08 6.55923e-08)
(0.000747661 1.35366e-07 4.14328e-07)
(0.000746514 4.40834e-08 1.69301e-08)
(0.000744968 -6.31172e-09 6.39323e-08)
(0.000743425 -1.31131e-07 4.90319e-08)
(0.000742365 -2.14626e-07 4.95726e-08)
(0.000741152 -5.39742e-07 1.05034e-08)
(0.000739369 -8.73046e-07 -1.98035e-08)
(0.000737687 -2.87012e-07 5.72977e-08)
(0.000736272 2.85103e-08 4.68568e-08)
(-0.00380538 0.00176905 0.000894215)
(-0.000455999 3.21957e-05 0.0007696)
(-0.00142733 -0.00426861 0.00252337)
(0.0112727 0.0121382 0.00274711)
(0.00230238 -0.000759458 0.00186017)
(0.00807404 0.00579159 5.28089e-05)
(0.00160529 -0.000155767 1.74673e-05)
(0.00101017 -5.32004e-05 -3.73268e-06)
(0.000955164 -4.06626e-05 -9.85323e-08)
(0.000896667 -2.45406e-05 1.17785e-08)
(0.000858684 -1.53855e-05 7.26536e-08)
(0.000833166 -9.54507e-06 8.76056e-08)
(0.000816093 -5.68865e-06 4.47546e-08)
(0.000804207 -3.63091e-06 2.95727e-08)
(0.000796685 -2.44508e-06 6.83299e-08)
(0.000791589 -1.59636e-06 6.86024e-08)
(0.000787616 -9.65608e-07 3.40021e-08)
(0.000784391 -6.44624e-07 7.27305e-08)
(0.000781908 -4.30628e-07 3.58291e-08)
(0.000779881 -6.1182e-08 5.43553e-08)
(0.000778311 7.47082e-08 -2.46468e-08)
(0.000776516 1.21663e-07 8.99209e-08)
(0.000774712 1.83936e-07 9.5409e-08)
(0.000773254 1.13841e-07 4.70739e-08)
(0.000771685 1.75755e-07 5.76702e-08)
(0.000770353 1.14974e-07 5.30643e-08)
(0.000769041 -5.26862e-08 1.2177e-07)
(0.000767595 -2.13714e-07 5.59209e-09)
(0.000766224 -1.64339e-07 3.38622e-08)
(0.000764357 -4.08871e-07 -1.09787e-07)
(0.000762467 -2.35748e-07 2.78884e-08)
(0.000761568 -1.49035e-07 1.5525e-07)
(0.000760444 -1.24085e-07 1.2115e-08)
(0.000758852 -1.34571e-07 5.66967e-08)
(0.000757326 -1.91964e-07 5.54887e-08)
(0.00075582 -8.66961e-08 4.26904e-08)
(0.000754525 -7.83334e-08 5.64397e-08)
(0.000753248 1.63757e-08 1.02484e-07)
(0.000751817 1.40178e-07 5.95345e-08)
(0.000750548 1.40087e-07 5.89058e-08)
(0.000749292 1.36867e-07 3.06631e-08)
(0.000747754 3.16554e-07 2.70762e-07)
(0.000746259 2.29553e-07 4.40036e-08)
(0.000744693 -1.91416e-08 5.52985e-08)
(0.000743203 -4.74825e-08 3.9872e-08)
(0.000741757 -1.9776e-07 4.46946e-08)
(0.000740226 -5.13211e-07 -3.9474e-08)
(0.000739553 -7.29776e-07 6.76387e-08)
(0.000738743 -5.09235e-07 1.05578e-07)
(0.000736861 -3.27188e-07 1.23281e-07)
(-0.00389295 -0.000298427 -3.24037e-06)
(-0.00188135 -0.0101064 0.000740078)
(0.0207776 0.00574575 0.000188931)
(0.00485145 0.00166158 -0.000997564)
(-0.00319317 0.00962805 0.000324374)
(-0.000471504 -0.00104993 -0.000574835)
(0.000729908 8.95222e-05 6.50475e-06)
(0.00106982 6.93007e-05 -1.52357e-06)
(0.000951449 4.6708e-05 -3.04597e-07)
(0.000897933 3.53568e-05 2.00131e-07)
(0.000856881 2.34938e-05 6.02201e-08)
(0.000831588 1.55285e-05 5.47749e-08)
(0.000814825 9.7637e-06 4.58901e-08)
(0.000803765 6.29523e-06 4.78944e-08)
(0.000796312 4.13647e-06 5.00256e-08)
(0.000791115 2.66138e-06 4.94155e-08)
(0.000787283 1.65162e-06 4.90411e-08)
(0.000784301 1.11919e-06 3.65428e-08)
(0.000782078 8.5615e-07 7.73747e-08)
(0.000780115 6.21216e-07 2.05929e-08)
(0.000777967 4.48175e-07 3.36954e-08)
(0.000776237 2.08265e-07 4.62849e-08)
(0.000774733 2.84038e-07 -9.46716e-09)
(0.000773239 2.1911e-07 5.0301e-08)
(0.000771775 4.31915e-07 7.13585e-10)
(0.000770133 1.78967e-07 5.71428e-08)
(0.000768616 -5.14148e-08 7.62123e-08)
(0.000767466 -2.43936e-07 7.45797e-08)
(0.000765622 -6.79592e-07 -3.32094e-08)
(0.000764096 -7.71146e-07 1.1415e-07)
(0.000763402 -4.3382e-07 2.46137e-08)
(0.000761856 -1.36515e-08 1.09017e-07)
(0.000760201 2.24448e-08 4.61467e-08)
(0.000758785 -9.27994e-08 5.41924e-08)
(0.000757465 -1.33674e-07 3.29456e-08)
(0.000756106 -5.98893e-08 7.16055e-08)
(0.000754662 1.75126e-08 4.56579e-08)
(0.000753254 3.03003e-08 2.84615e-08)
(0.000751784 3.83268e-08 6.94672e-08)
(0.000750475 2.0295e-07 -4.63095e-08)
(0.000749335 -1.75067e-08 4.25235e-08)
(0.000747776 -2.36978e-07 -1.31693e-08)
(0.000746093 -1.73425e-07 5.25655e-08)
(0.000744621 -2.55256e-07 5.42375e-08)
(0.000743203 -1.0247e-07 5.77253e-09)
(0.000741785 -3.49196e-08 4.96975e-08)
(0.000740491 -6.71126e-09 8.26452e-08)
(0.00073938 1.37657e-07 6.54787e-08)
(0.0007382 -2.68289e-07 7.58615e-10)
(0.000737316 -3.18381e-07 5.02909e-08)
(-0.00246978 -0.0068716 0.000102363)
(0.0122795 -0.00711156 0.000355799)
(-0.0122849 0.0167819 0.00152966)
(-0.00606398 0.0114567 -0.000161061)
(0.00308313 0.00535262 -0.00130067)
(0.00555986 -0.00413019 -4.51517e-05)
(0.000685532 1.31177e-05 3.80258e-05)
(0.00107907 0.000231163 -8.011e-07)
(0.000912151 0.000145924 -5.7404e-07)
(0.000867285 9.12255e-05 1.88556e-07)
(0.000833658 5.71228e-05 -8.71525e-09)
(0.000815854 3.57358e-05 5.02256e-08)
(0.000804457 2.23323e-05 4.70943e-08)
(0.000797114 1.39522e-05 4.64546e-08)
(0.000792105 8.74284e-06 4.64347e-08)
(0.000788459 5.44946e-06 4.84865e-08)
(0.000785672 3.46979e-06 8.81446e-08)
(0.000783386 2.18992e-06 1.91104e-07)
(0.000781279 1.47583e-06 -1.27769e-07)
(0.000779365 7.59258e-07 4.81422e-08)
(0.000777791 4.24892e-07 4.26992e-08)
(0.000776308 3.33995e-07 6.41852e-08)
(0.000774723 1.07712e-07 3.73465e-08)
(0.000773437 2.98993e-08 4.51434e-08)
(0.000771632 -4.03617e-07 1.27828e-07)
(0.000769747 -2.08772e-07 5.28756e-08)
(0.000768512 -9.08585e-08 -1.9535e-09)
(0.000766813 -5.08074e-08 5.27298e-08)
(0.000765571 -1.78283e-07 1.08502e-07)
(0.00076467 3.71885e-07 6.66213e-08)
(0.000763419 3.97358e-07 9.50931e-08)
(0.000762141 4.533e-08 3.41905e-08)
(0.000760345 -4.07258e-08 3.97019e-08)
(0.000758658 7.35628e-08 4.77332e-08)
(0.000757368 -5.36924e-09 4.71673e-08)
(0.00075601 -2.07395e-07 5.61079e-08)
(0.000754638 -1.2282e-07 5.79305e-08)
(0.000753274 -1.34773e-07 7.12619e-08)
(0.000752032 -7.22522e-09 4.48793e-08)
(0.000750478 7.50575e-09 6.78655e-08)
(0.000748742 -7.72738e-08 4.80933e-08)
(0.000747561 -1.5227e-07 5.24402e-08)
(0.000746238 -1.52539e-07 6.19806e-08)
(0.000744784 -1.1677e-07 4.66256e-08)
(0.000743479 -1.30469e-07 6.55397e-08)
(0.000741878 4.85466e-08 4.62628e-08)
(0.000740443 4.16692e-07 3.99055e-08)
(0.000739228 3.14076e-07 5.27591e-08)
(0.000738182 2.31547e-07 5.26326e-08)
(0.000737593 -7.85062e-08 3.23525e-09)
(0.00406782 -0.0042743 6.87339e-05)
(-0.0013362 0.00967964 -0.000430219)
(-0.0343056 0.000722085 0.000120978)
(0.0355527 -0.000796098 0.00405932)
(-0.0137685 -0.0485314 -0.00175091)
(0.00296899 0.00588552 -0.000297001)
(0.000521856 0.00047058 1.72761e-06)
(0.000790301 0.000312672 -2.43911e-06)
(0.000775017 0.000189441 -2.92343e-07)
(0.000786262 0.000113465 3.43575e-08)
(0.000787102 6.93004e-05 1.24371e-08)
(0.000787841 4.2744e-05 3.92236e-08)
(0.000787433 2.64447e-05 4.33286e-08)
(0.000786677 1.61914e-05 4.84629e-08)
(0.000785621 1.0142e-05 5.02396e-08)
(0.000784484 6.45494e-06 1.1308e-07)
(0.000783183 3.99683e-06 -5.04547e-08)
(0.000781792 2.31931e-06 4.26808e-07)
(0.000780279 1.55137e-06 2.80446e-08)
(0.000778796 1.22698e-06 3.07346e-08)
(0.000777432 6.64348e-07 1.38614e-07)
(0.000775839 2.85061e-07 7.81853e-08)
(0.000774353 6.94719e-08 -1.02777e-08)
(0.000772602 -6.53964e-08 5.20069e-08)
(0.00077148 -3.51722e-07 -2.42671e-08)
(0.000770527 -1.66019e-07 6.1296e-08)
(0.000768816 2.1329e-08 3.88735e-08)
(0.000767358 7.60285e-08 3.5842e-08)
(0.00076615 3.45746e-07 6.51479e-08)
(0.000764814 3.94524e-07 -7.04058e-09)
(0.000762991 3.97173e-07 -3.72744e-09)
(0.000761307 1.17592e-07 8.55301e-08)
(0.000760236 -2.16754e-07 -3.98488e-08)
(0.000758828 -2.09186e-07 7.40033e-08)
(0.000757115 -1.454e-07 9.07728e-08)
(0.000755961 -9.71826e-08 3.82709e-08)
(0.000754755 -7.82387e-08 -4.77886e-08)
(0.000753399 -1.42726e-07 5.40529e-08)
(0.000751962 -2.19512e-07 8.00256e-08)
(0.000750387 -2.50326e-07 4.09842e-08)
(0.000749136 -1.18873e-07 5.27919e-08)
(0.000747683 2.36958e-08 3.06386e-08)
(0.000746139 3.6346e-07 3.53989e-08)
(0.00074465 1.53251e-07 3.97417e-08)
(0.00074341 2.24093e-07 5.54187e-08)
(0.000742468 7.2995e-08 5.16804e-08)
(0.000740821 2.03873e-07 2.08152e-08)
(0.000739146 4.21967e-07 4.50499e-08)
(0.000737709 7.092e-07 -5.90939e-08)
(0.000737122 5.14264e-07 8.96535e-08)
(-0.00802795 0.00667891 -0.000919137)
(-0.00221489 0.00216641 -0.000349054)
(0.00211307 -0.00586001 -0.00100712)
(0.0168676 -0.00443408 -0.00102324)
(0.0105411 0.018689 0.00221804)
(-0.000677368 0.00194458 0.000120374)
(0.000196085 0.000270659 -1.68107e-06)
(0.000582336 0.000209993 -1.21524e-06)
(0.000661572 0.000133016 -3.47107e-07)
(0.000716403 8.26796e-05 9.84964e-08)
(0.000744824 5.14342e-05 7.6207e-08)
(0.000762015 3.17641e-05 1.58909e-07)
(0.000771099 1.97005e-05 1.24029e-07)
(0.000776631 1.2543e-05 6.86915e-08)
(0.00077987 7.83888e-06 4.46136e-08)
(0.000780737 5.05351e-06 5.38078e-08)
(0.000780477 3.06008e-06 4.76269e-08)
(0.000780313 2.03903e-06 3.08722e-07)
(0.000779903 1.13552e-06 7.58891e-08)
(0.000778249 5.60188e-07 -1.45235e-08)
(0.000776609 3.93234e-07 1.54234e-08)
(0.000775563 2.0643e-07 6.37127e-08)
(0.000774285 1.83407e-07 5.47762e-08)
(0.000772912 1.37967e-07 4.26916e-08)
(0.000771509 3.33452e-07 7.21679e-08)
(0.000770216 2.16856e-07 6.042e-08)
(0.000768816 1.14428e-07 4.18348e-08)
(0.000767218 1.32456e-07 3.74309e-08)
(0.000765967 2.41966e-07 8.11736e-08)
(0.000764731 -6.92228e-08 6.54797e-08)
(0.000763069 -1.05317e-07 -4.74727e-09)
(0.000761373 -2.56806e-08 5.13628e-08)
(0.000759938 -1.93133e-07 2.16145e-08)
(0.000758749 -4.34141e-07 2.06873e-08)
(0.000757509 -1.30179e-07 2.39446e-07)
(0.000756094 1.52139e-07 8.55141e-08)
(0.000754581 -1.28876e-08 3.04929e-08)
(0.000753099 -9.32535e-08 6.019e-08)
(0.000751899 -3.85317e-07 4.91308e-08)
(0.000750606 -1.88209e-07 5.95827e-08)
(0.000749087 -1.34755e-07 6.73695e-08)
(0.000748164 -2.74008e-07 6.5204e-08)
(0.0007464 -2.54043e-07 3.35369e-08)
(0.000744608 1.94713e-07 1.43808e-07)
(0.000743378 8.68391e-08 3.86448e-08)
(0.00074185 -8.63758e-08 -8.93095e-10)
(0.000740875 -3.31547e-07 2.54737e-08)
(0.000739854 4.06932e-08 4.0154e-08)
(0.000738281 2.31562e-07 -5.25973e-08)
(0.000736067 3.33888e-07 5.85424e-08)
(-0.0852031 -0.0615755 0.00495532)
(-0.0341952 0.0029771 0.00900019)
(-0.00407513 -0.0338879 -0.0165827)
(-0.0104356 -0.0025227 -0.00199277)
(0.00231117 -0.0197634 -0.00019206)
(-0.00042347 -0.00339765 -0.000476622)
(0.000617628 0.000171574 -7.36212e-07)
(0.0009201 7.59749e-05 2.28545e-07)
(0.00105206 4.81866e-05 2.52402e-07)
(0.00115574 3.06605e-05 3.04704e-07)
(0.00121443 1.92051e-05 3.51444e-07)
(0.00125167 1.16285e-05 2.41649e-07)
(0.0012747 7.13014e-06 2.47231e-07)
(0.00128731 4.84651e-06 3.4761e-07)
(0.0012937 2.89744e-06 3.32295e-07)
(0.00129693 1.47478e-06 2.79127e-07)
(0.00129809 1.06044e-06 3.26556e-07)
(0.00129785 9.05236e-07 8.83932e-08)
(0.00129609 2.95168e-07 2.22098e-07)
(0.00129493 -2.26303e-07 3.81707e-07)
(0.00129342 7.47576e-08 3.46805e-07)
(0.00129099 3.16714e-07 3.55522e-07)
(0.0012887 2.63113e-07 2.45967e-07)
(0.00128625 3.54754e-07 2.77951e-07)
(0.00128415 5.06931e-07 3.47826e-07)
(0.00128186 4.51515e-07 2.9366e-07)
(0.0012793 1.14328e-07 2.69899e-07)
(0.00127731 8.20955e-08 3.19678e-07)
(0.0012745 2.16673e-07 3.79725e-07)
(0.00127185 -2.03248e-07 3.64729e-07)
(0.00126959 -8.48851e-07 3.61927e-07)
(0.00126647 -7.81652e-07 3.19458e-07)
(0.00126407 -6.72008e-07 3.13825e-07)
(0.00126272 -2.54695e-07 4.02739e-07)
(0.00126085 9.38746e-08 3.10321e-07)
(0.00125791 2.20144e-07 3.35348e-07)
(0.00125505 1.60396e-07 3.98687e-07)
(0.00125242 4.59091e-07 2.58339e-07)
(0.00125058 7.40647e-07 2.77351e-07)
(0.0012487 3.22485e-07 4.01625e-07)
(0.00124593 -2.08571e-08 2.76399e-07)
(0.00124338 -1.7946e-07 3.35132e-07)
(0.001242 -1.25073e-06 3.52167e-07)
(0.00123924 -8.77788e-07 2.01002e-07)
(0.00123597 -5.20462e-07 2.71482e-07)
(0.00123401 2.40672e-10 3.1901e-07)
(0.00123224 8.97601e-08 2.90877e-07)
(0.00123037 -2.68963e-07 3.01689e-07)
(0.00122742 -6.92734e-07 2.9923e-07)
(0.00122463 -6.03739e-07 2.12204e-07)
(0.0294311 0.0401879 -0.00236715)
(-0.035071 0.0195934 0.0044386)
(-0.0540957 0.0504658 -0.00300049)
(0.00544129 -0.00233253 0.00168745)
(0.0107556 0.00982674 -0.00181882)
(-0.0122186 -0.000931199 -0.000471229)
(0.000596395 -2.09744e-05 1.81669e-06)
(0.000940435 -0.000169017 2.32996e-07)
(0.00106019 -0.000112004 3.13991e-07)
(0.00116505 -6.97767e-05 2.92416e-07)
(0.00122116 -4.38471e-05 3.06604e-07)
(0.00125646 -2.71546e-05 3.1519e-07)
(0.00127699 -1.69569e-05 3.20927e-07)
(0.00128867 -1.10429e-05 3.22842e-07)
(0.00129471 -6.95529e-06 3.24255e-07)
(0.00129786 -4.63388e-06 2.66713e-07)
(0.00129892 -2.85675e-06 3.26167e-07)
(0.0012982 -2.09263e-06 3.89465e-07)
(0.00129685 -9.85523e-07 2.60658e-07)
(0.00129521 -3.30728e-07 2.95224e-07)
(0.00129339 -1.66602e-07 3.31827e-07)
(0.00129114 -1.62551e-07 3.69124e-07)
(0.00128882 2.02245e-07 5.33156e-07)
(0.00128672 1.67562e-07 2.74658e-07)
(0.00128412 6.12252e-07 6.48746e-08)
(0.00128133 6.84885e-09 4.5785e-07)
(0.00127905 -1.54643e-07 4.59452e-07)
(0.00127694 -4.51491e-07 3.31169e-07)
(0.00127431 -1.21232e-06 3.18223e-07)
(0.00127121 -9.26215e-07 2.06613e-08)
(0.00126898 -6.70041e-07 8.1108e-08)
(0.00126701 -3.95904e-07 2.60966e-07)
(0.001265 9.40314e-07 4.95e-07)
(0.0012633 1.24263e-06 3.70202e-07)
(0.00126083 4.59745e-07 3.15814e-07)
(0.00125796 1.19142e-07 3.23667e-07)
(0.00125559 2.82842e-07 3.1509e-07)
(0.0012534 4.36684e-07 8.31209e-08)
(0.00125046 7.9653e-07 4.17328e-07)
(0.00124758 5.24923e-07 2.94802e-07)
(0.00124539 1.61473e-07 3.24441e-07)
(0.00124279 -6.0595e-08 3.55664e-07)
(0.00124055 -3.15315e-07 2.94791e-07)
(0.00123944 -1.10157e-06 3.55766e-07)
(0.00123755 -1.72406e-07 3.46365e-07)
(0.00123467 1.48664e-07 3.3422e-07)
(0.00123191 5.3728e-07 3.92444e-07)
(0.00122944 6.12135e-08 3.02243e-07)
(0.00122729 -3.2316e-07 3.06129e-07)
(0.00122572 -3.57206e-07 4.00024e-07)
(-0.0061542 -0.0288334 0.0379409)
(-0.00156836 0.0170584 -0.0200737)
(-0.0219562 0.0021051 -0.0127691)
(-0.0196899 -0.0394541 0.000263411)
(-0.00524084 -0.00289105 0.00139393)
(0.0087852 0.00331028 0.00138772)
(0.000839974 -0.00040807 2.44046e-05)
(0.00115971 -0.000400641 3.37175e-07)
(0.00117822 -0.000243853 1.72519e-09)
(0.00124151 -0.000149439 3.09515e-07)
(0.00126807 -9.19594e-05 3.18166e-07)
(0.00128551 -5.6809e-05 3.22683e-07)
(0.00129499 -3.52593e-05 3.24763e-07)
(0.0012999 -2.19375e-05 3.26098e-07)
(0.00130177 -1.36328e-05 3.24264e-07)
(0.00130209 -8.37746e-06 -3.03637e-08)
(0.00130129 -5.37422e-06 3.24817e-07)
(0.0013002 -3.41694e-06 3.0194e-07)
(0.0012983 -2.54413e-06 4.61514e-07)
(0.00129596 -1.44581e-06 3.37228e-07)
(0.00129363 -1.08861e-06 3.07286e-07)
(0.00129145 -7.08996e-07 3.1912e-07)
(0.00128911 -5.48106e-07 3.58329e-07)
(0.00128676 -5.07337e-07 1.30471e-07)
(0.00128395 -9.49509e-07 4.59518e-07)
(0.0012809 -4.56229e-07 2.74498e-07)
(0.00127873 -2.55681e-07 2.54012e-07)
(0.00127599 -1.82397e-07 3.14451e-07)
(0.00127391 -2.53538e-07 1.83648e-07)
(0.00127254 4.12268e-07 2.24279e-07)
(0.00127026 8.41685e-07 8.27376e-07)
(0.00126848 9.94178e-07 4.60718e-07)
(0.00126611 9.90188e-07 4.17511e-07)
(0.00126212 7.87879e-07 2.74279e-07)
(0.00125944 2.68031e-07 3.57953e-07)
(0.00125769 1.75085e-07 3.25401e-07)
(0.00125544 1.45445e-07 2.74194e-07)
(0.00125306 3.80317e-09 3.44654e-07)
(0.00125068 -1.2532e-07 2.99568e-07)
(0.00124791 -9.83337e-08 3.01175e-07)
(0.0012452 1.46275e-07 9.26635e-08)
(0.00124278 3.3305e-07 2.22925e-07)
(0.0012407 1.02133e-06 5.94476e-07)
(0.00123942 1.11308e-06 3.46292e-07)
(0.00123754 6.13322e-07 3.3255e-07)
(0.0012349 3.01687e-07 3.12642e-07)
(0.00123213 4.42588e-07 3.62766e-07)
(0.0012293 6.85218e-07 3.1661e-07)
(0.0012269 4.09769e-07 2.20427e-07)
(0.00122548 2.35046e-07 5.13199e-07)
(0.00371844 -0.00210878 0.00214461)
(0.0086592 -0.00597711 -0.00347944)
(-0.0310855 -0.00551317 0.028571)
(-0.0100862 -0.0127646 0.0129175)
(0.0395051 -0.00783151 0.00656532)
(0.0261452 -0.00735527 0.000569054)
(0.00101694 -0.000775212 7.8508e-05)
(0.00147781 -0.000429449 3.74216e-07)
(0.00137619 -0.000255802 3.15138e-07)
(0.00135596 -0.000161107 2.75917e-07)
(0.00133758 -0.000100256 3.35005e-07)
(0.00132772 -6.24423e-05 3.36732e-07)
(0.00132081 -3.9289e-05 3.30643e-07)
(0.00131585 -2.43728e-05 3.29834e-07)
(0.00131176 -1.49279e-05 3.28305e-07)
(0.00130824 -9.14993e-06 3.25871e-07)
(0.00130516 -5.78238e-06 3.26436e-07)
(0.00130176 -3.48955e-06 2.34482e-07)
(0.00129933 -2.48338e-06 3.12025e-07)
(0.00129705 -1.68502e-06 2.98654e-07)
(0.00129432 -1.26516e-06 3.20698e-07)
(0.00129182 -9.13079e-07 3.24012e-07)
(0.00128908 -9.50104e-07 2.08087e-07)
(0.00128623 -5.81055e-07 3.8383e-07)
(0.00128419 -7.60822e-07 1.63619e-07)
(0.0012822 -1.63645e-07 3.94531e-07)
(0.00127939 2.59679e-07 3.91774e-07)
(0.00127694 7.15508e-07 3.67902e-07)
(0.00127505 1.4122e-06 3.3753e-07)
(0.00127258 1.17097e-06 2.96344e-07)
(0.0012697 7.01094e-07 3.21415e-07)
(0.00126719 7.64843e-07 2.95143e-07)
(0.00126473 -1.98413e-07 2.42099e-07)
(0.0012624 -3.73936e-07 3.17044e-07)
(0.00126006 8.38995e-08 3.45564e-07)
(0.00125781 9.41162e-08 4.77389e-07)
(0.00125538 6.91168e-09 4.17765e-07)
(0.00125306 -1.05559e-07 3.19375e-07)
(0.00125033 -4.18268e-07 1.90969e-07)
(0.00124792 -4.51996e-07 1.80913e-07)
(0.00124593 -5.18032e-08 2.73604e-07)
(0.00124388 2.68908e-07 3.29455e-07)
(0.00124152 6.09689e-07 6.34685e-07)
(0.00123892 1.0026e-06 -3.22137e-08)
(0.00123653 2.63775e-07 2.50234e-07)
(0.00123445 9.8935e-08 3.26691e-07)
(0.00123238 6.69474e-08 3.57034e-07)
(0.00122939 4.53145e-07 2.83993e-07)
(0.00122672 3.66026e-07 3.62871e-07)
(0.00122492 4.52752e-07 5.0716e-07)
(0.0034655 -0.0116877 0.000673865)
(-0.011883 0.00740638 -0.00200489)
(-0.000792771 0.0213693 0.0166839)
(-0.0207534 0.00202967 -0.00444924)
(-0.0435895 -0.0245192 0.0766982)
(-0.048236 0.019899 0.00313571)
(0.00142523 -0.00060283 -3.31299e-06)
(0.00160034 -0.000269239 3.61054e-07)
(0.00151517 -0.000170175 4.39298e-07)
(0.0014369 -0.000111823 4.38265e-07)
(0.001392 -7.09651e-05 3.61317e-07)
(0.00136209 -4.51255e-05 1.43721e-06)
(0.0013428 -2.79563e-05 3.56343e-07)
(0.0013305 -1.77285e-05 3.33551e-07)
(0.00132089 -1.14006e-05 3.52296e-07)
(0.00131357 -7.23756e-06 3.16558e-07)
(0.0013084 -4.47886e-06 3.27341e-07)
(0.00130435 -2.904e-06 3.24865e-07)
(0.00130057 -1.56341e-06 3.08979e-07)
(0.00129749 -1.23085e-06 3.59274e-07)
(0.00129461 -7.86664e-07 3.60205e-07)
(0.00129185 -3.32486e-07 8.59013e-07)
(0.00128953 -1.96017e-07 3.44322e-07)
(0.001287 -2.47635e-08 3.6895e-07)
(0.00128447 4.09814e-07 3.56928e-07)
(0.00128217 6.47916e-08 3.5532e-07)
(0.00127983 2.88719e-07 3.73985e-07)
(0.00127742 4.32597e-07 2.92754e-07)
(0.00127447 6.39746e-07 2.8334e-07)
(0.00127164 4.38789e-07 2.99179e-07)
(0.00126974 1.38419e-07 3.46168e-07)
(0.00126735 -3.57509e-07 2.84944e-07)
(0.00126469 4.93266e-08 3.33147e-07)
(0.00126247 1.27386e-09 3.1642e-07)
(0.00126003 1.02563e-07 3.0481e-07)
(0.00125759 -1.36354e-07 3.11436e-07)
(0.00125519 -2.554e-07 -2.15833e-07)
(0.00125253 -2.93094e-07 3.10801e-07)
(0.00125025 -2.94161e-07 3.0547e-07)
(0.00124837 -8.80804e-08 3.25306e-07)
(0.0012461 1.46711e-07 3.97235e-07)
(0.00124361 2.94533e-07 1.11187e-06)
(0.00124161 6.80316e-08 1.38071e-07)
(0.00123899 -2.18088e-08 2.37856e-07)
(0.00123641 -2.7722e-07 3.52721e-07)
(0.00123466 -3.91591e-07 3.07689e-07)
(0.00123257 -9.23292e-07 1.01083e-07)
(0.00122967 -1.40334e-06 2.62743e-07)
(0.00122689 -4.80295e-07 3.69148e-07)
(0.00122446 6.40801e-08 3.11802e-07)
(-0.0203825 0.000185358 0.0016522)
(-0.0218164 -0.00422903 0.000446552)
(0.0292866 -0.0168993 -0.00241267)
(-0.0159002 0.00757818 -0.028932)
(0.0100599 -0.0115764 -0.0541916)
(0.00525428 -0.00275099 0.00800007)
(0.00147802 -0.000733904 -2.6017e-05)
(0.00166231 -6.10626e-05 4.19059e-07)
(0.00157281 -5.09137e-05 4.6155e-07)
(0.0014805 -3.04524e-05 4.17042e-07)
(0.0014213 -1.9193e-05 3.70899e-07)
(0.0013817 -1.19658e-05 4.01161e-07)
(0.0013552 -7.00848e-06 3.17612e-07)
(0.00133663 -4.5226e-06 3.20128e-07)
(0.00132492 -3.1236e-06 3.60231e-07)
(0.00131693 -2.05891e-06 3.45711e-07)
(0.0013106 -1.23127e-06 3.11868e-07)
(0.00130542 -8.32322e-07 3.83709e-07)
(0.00130143 -5.51918e-07 3.20921e-07)
(0.00129802 1.55683e-08 3.36054e-07)
(0.00129545 2.55721e-07 2.3115e-07)
(0.00129256 2.59107e-07 4.00393e-07)
(0.00128946 3.29663e-07 5.14455e-07)