/*--------------------------------*- C++ -*----------------------------------*\
| =========                 |                                                 |
| \\      /  F ield         | OpenFOAM: The Open Source CFD Toolbox           |
|  \\    /   O peration     | Version:  5.0                                   |
|   \\  /    A nd           | Web:      www.OpenFOAM.org                      |
|    \\/     M anipulation  |                                                 |
\*---------------------------------------------------------------------------*/
FoamFile
{
    version     2.0;
    format      ascii;
    class       volVectorField;
    location    "0.7";
    object      U_0;
}
// * * * * * * * * * * * * * * * * * * * * * * * * * * * * * * * * * * * * * //

dimensions      [0 1 -1 0 0 0 0];

internalField   nonuniform List<vector> 
9641
(
(-0.00193223 0.000695241 -0.000100319)
(-0.0122816 0.00416069 -0.003207)
(0.00289544 -0.0214327 -0.000823372)
(-0.00384043 -0.00880003 0.0022493)
(0.00735861 0.0254443 -0.000727244)
(0.00171951 -0.000415736 -4.559e-06)
(0.000447616 -3.17632e-05 -4.5808e-07)
(0.000751167 -4.31844e-05 -2.10798e-06)
(0.000737917 -3.16798e-05 -2.40206e-07)
(0.000757005 -2.1604e-05 7.3826e-08)
(0.000765594 -1.42612e-05 8.2419e-08)
(0.000772286 -9.40202e-06 7.46864e-08)
(0.000776618 -6.0397e-06 7.91477e-09)
(0.000778412 -3.57897e-06 5.06141e-08)
(0.000778587 -2.26801e-06 5.10983e-08)
(0.000778386 -1.43242e-06 6.68574e-08)
(0.000777682 -9.6731e-07 5.76265e-08)
(0.00077667 -5.90048e-07 7.52721e-08)
(0.000774781 -6.77755e-07 3.2638e-08)
(0.00077295 -4.86969e-07 1.56704e-07)
(0.000771764 -3.88083e-07 5.04766e-08)
(0.000770132 -1.67405e-07 6.47016e-08)
(0.000768286 -9.36619e-08 5.78568e-08)
(0.000766604 3.63156e-08 4.80492e-08)
(0.000764861 1.40055e-07 1.21904e-08)
(0.000763129 1.90231e-07 7.04304e-08)
(0.000761497 8.14433e-08 5.27443e-08)
(0.000759969 9.58109e-08 5.17628e-08)
(0.00075796 3.76575e-07 6.0558e-08)
(0.00075601 -1.97489e-07 6.96042e-08)
(0.000754324 -6.3425e-07 -6.15974e-08)
(0.000752452 -5.212e-07 -3.97217e-08)
(0.000751121 -1.15334e-07 -6.73737e-08)
(0.000749968 -1.12648e-08 6.49226e-08)
(0.000748331 1.44944e-07 4.37572e-08)
(0.000746468 1.3805e-07 6.12377e-08)
(0.000744542 -9.4152e-08 4.87769e-08)
(0.000742744 1.1307e-07 2.50158e-08)
(0.000741279 3.68498e-07 -6.73375e-09)
(0.000740173 4.50582e-07 6.49321e-08)
(0.000738777 1.66377e-07 2.5772e-08)
(0.000737001 7.0637e-08 7.83927e-08)
(0.000735758 -2.12333e-07 8.96262e-08)
(0.000734259 -2.40088e-07 2.43293e-07)
(0.000732703 -1.19705e-07 3.67447e-08)
(0.000731137 -8.58852e-08 3.57401e-08)
(0.00072968 -2.29231e-07 6.21006e-08)
(0.000728464 -5.16306e-07 4.02116e-08)
(0.000726926 -3.88591e-07 3.08594e-08)
(0.000725304 -2.45593e-07 6.50003e-08)
(-0.0462973 -0.0128643 0.00482651)
(-0.00922489 -0.00773963 0.00299107)
(0.0190719 0.0116472 -0.0108081)
(-0.00868548 0.00353313 0.000659495)
(-0.00617134 -0.00654592 4.23521e-05)
(-0.00062995 -0.000157877 0.000136463)
(0.000388644 6.27326e-06 -8.59443e-07)
(0.000749791 -7.72523e-05 -1.52651e-06)
(0.000746637 -5.75592e-05 -9.96858e-08)
(0.000768872 -3.88993e-05 1.41647e-07)
(0.00077548 -2.577e-05 6.19833e-08)
(0.000779654 -1.65449e-05 6.74724e-08)
(0.000781188 -1.05801e-05 5.86968e-08)
(0.000781413 -6.96293e-06 5.27606e-08)
(0.000780851 -4.42477e-06 5.27254e-08)
(0.00077979 -2.88939e-06 4.03858e-08)
(0.00077849 -1.90846e-06 4.93477e-08)
(0.0007767 -1.47453e-06 6.53388e-08)
(0.000775091 -1.08385e-06 1.6132e-07)
(0.000773688 -5.74097e-07 2.993e-08)
(0.000771918 -3.05189e-07 4.81094e-08)
(0.000770187 -3.14502e-07 7.50867e-08)
(0.00076847 -1.00397e-07 3.33066e-08)
(0.000766742 -1.00982e-07 3.79672e-08)
(0.000764947 -3.84408e-08 5.8342e-08)
(0.000763111 -1.04655e-07 8.02977e-08)
(0.000761424 -1.5544e-07 2.55013e-08)
(0.000760059 -3.10639e-07 4.82539e-08)
(0.00075776 -1.01648e-06 -4.45954e-09)
(0.000755328 -5.83394e-07 6.97123e-08)
(0.000754268 -5.93468e-07 1.53152e-07)
(0.000753285 -2.12242e-07 3.61475e-08)
(0.000751599 3.42864e-07 1.53996e-07)
(0.000749899 3.43845e-07 9.49197e-08)
(0.000748115 -1.02982e-07 4.49292e-08)
(0.000746214 -1.4158e-07 5.55311e-08)
(0.000744735 -6.38002e-08 6.32054e-08)
(0.000743267 9.73013e-08 5.53104e-08)
(0.000741593 3.04066e-07 1.84287e-08)
(0.000739815 4.29789e-07 7.80581e-09)
(0.000738308 6.61068e-08 5.5134e-08)
(0.000736769 -3.09099e-07 5.76592e-08)
(0.00073527 -6.10258e-07 1.85468e-08)
(0.000734159 -3.88823e-07 9.3561e-08)
(0.000732751 -1.58814e-07 5.26294e-08)
(0.000731226 -2.1701e-07 5.58558e-08)
(0.000729806 1.34444e-08 8.31668e-08)
(0.000728467 -1.18626e-07 5.15603e-08)
(0.000726887 -2.38611e-07 -8.0294e-08)
(0.000725857 -2.26942e-07 1.87878e-08)
(0.0054472 -0.00696242 0.00115859)
(-0.00583378 -0.00348132 0.000775017)
(0.0186316 -0.0037723 -0.00148229)
(0.00967704 0.0259272 0.00028531)
(-0.013742 -0.00571436 0.000134981)
(0.0165445 0.000855877 0.000242519)
(0.000258722 -6.26971e-05 2.90175e-06)
(0.00081703 -0.000135714 -1.44795e-06)
(0.000786878 -8.24525e-05 -1.99935e-07)
(0.000797048 -5.07743e-05 1.7286e-07)
(0.000793736 -3.12636e-05 6.1486e-08)
(0.000791402 -1.93361e-05 6.45048e-08)
(0.000788677 -1.20563e-05 5.45434e-08)
(0.000786159 -7.54957e-06 5.47903e-08)
(0.000783714 -4.76688e-06 5.38782e-08)
(0.000781553 -3.08561e-06 5.98587e-08)
(0.000779466 -2.0456e-06 5.75857e-08)
(0.000777711 -1.50544e-06 6.96354e-08)
(0.000775914 -1.03924e-06 -1.41548e-07)
(0.000773927 -6.61786e-07 4.24828e-08)
(0.00077209 -4.89097e-07 1.6514e-07)
(0.000770388 -3.20863e-07 5.13831e-08)
(0.000768553 -2.78251e-07 9.49804e-08)
(0.00076668 -2.37957e-07 5.48827e-08)
(0.000764855 -2.89007e-07 3.51023e-08)
(0.000762982 -1.81756e-07 1.01809e-07)
(0.000761241 -1.76322e-07 7.77552e-08)
(0.000758897 -2.19057e-07 6.8498e-08)
(0.000757625 -3.80308e-07 -9.9593e-08)
(0.000756545 2.95414e-07 3.57195e-08)
(0.000754793 7.29726e-07 9.01544e-08)
(0.000753623 5.27444e-07 5.56943e-08)
(0.000751815 1.80318e-07 7.58479e-08)
(0.000749408 1.06812e-07 6.44956e-08)
(0.000747722 -1.03517e-07 1.07208e-07)
(0.000746517 -4.87756e-08 3.42101e-08)
(0.00074484 -1.04013e-08 9.06549e-08)
(0.000743201 -5.66479e-08 4.82822e-08)
(0.000741691 2.95027e-08 4.36145e-08)
(0.000739872 -5.75014e-08 4.789e-08)
(0.000737852 -8.2766e-08 6.1711e-08)
(0.000736157 -5.88787e-08 -1.46631e-08)
(0.000735663 4.84833e-07 4.1113e-08)
(0.000734827 2.03248e-07 8.12572e-08)
(0.000732922 6.31675e-08 7.25771e-08)
(0.000731353 1.00914e-07 5.30827e-08)
(0.000729804 2.39222e-07 1.55649e-07)
(0.00072815 1.28161e-07 4.57358e-08)
(0.000726796 5.61459e-08 5.62015e-08)
(0.000725884 7.66874e-08 6.4497e-08)
(0.00203465 -0.00713946 0.000428765)
(-0.00643266 -0.00235144 0.000372547)
(-0.0230147 -0.0105304 0.00174963)
(-0.0217533 -0.00827769 0.000196244)
(-0.0032268 -0.0172638 7.87332e-05)
(0.0245832 0.0158801 0.000258387)
(0.000519773 -0.00019177 4.86697e-05)
(0.00092375 -0.000116975 -2.12338e-06)
(0.000853502 -6.15787e-05 -2.19093e-07)
(0.000833316 -3.75563e-05 3.92019e-07)
(0.000815056 -2.24209e-05 2.94407e-08)
(0.000803833 -1.35895e-05 3.6868e-08)
(0.000796025 -8.51301e-06 4.70864e-08)
(0.00079059 -5.18639e-06 4.84995e-08)
(0.000786471 -3.08706e-06 4.8285e-08)
(0.000783217 -1.85655e-06 4.99183e-08)
(0.000780482 -1.19225e-06 5.00254e-08)
(0.00077797 -6.72609e-07 6.75496e-08)
(0.000776154 -5.48139e-07 4.59228e-08)
(0.000774382 -4.10154e-07 2.98069e-08)
(0.000772348 -3.74606e-07 -2.57983e-08)
(0.000770453 -3.05795e-07 5.21817e-08)
(0.000768575 -3.46513e-07 4.45942e-08)
(0.000766731 -1.69219e-07 6.41845e-08)
(0.000765019 -1.69805e-07 2.19164e-07)
(0.000763254 1.54304e-08 1.29666e-08)
(0.000761379 1.43681e-07 6.34783e-08)
(0.000759805 3.08801e-07 8.01786e-08)
(0.000758403 1.02757e-06 -4.42759e-09)
(0.000756713 7.08973e-07 3.61495e-08)
(0.000754553 8.21866e-07 2.21311e-08)
(0.000752593 7.7721e-07 -9.85257e-08)
(0.00075107 1.44992e-07 5.26805e-08)
(0.000749543 -3.12181e-08 4.79902e-08)
(0.00074792 2.07826e-07 1.25002e-09)
(0.00074633 9.42216e-08 4.56454e-08)
(0.000744725 -1.55667e-08 5.06995e-08)
(0.000743317 -9.02636e-08 4.88687e-08)
(0.000741592 -4.34218e-07 -6.21463e-09)
(0.000739675 -3.72582e-07 -1.20765e-08)
(0.000738307 -1.5024e-07 4.05463e-08)
(0.000737476 2.07214e-07 2.37365e-08)
(0.000735594 5.35163e-07 3.90868e-08)
(0.000733628 2.46437e-07 1.43518e-08)
(0.00073262 -1.05819e-07 4.64489e-08)
(0.000731444 -5.57874e-08 4.47438e-08)
(0.000729837 -7.41545e-08 7.74382e-08)
(0.000728236 4.11952e-08 1.49593e-08)
(0.000726819 2.26355e-07 3.90756e-08)
(0.000725691 2.04337e-07 5.22211e-08)
(-0.000818856 -0.000225834 0.000939341)
(0.00212218 -0.0127528 -0.00549888)
(0.010447 -0.0252963 0.00285406)
(-0.0392284 -0.0257311 0.00205594)
(-0.0540777 -0.0092301 0.00110676)
(0.045861 0.0136967 0.000106317)
(0.000971754 -4.20059e-05 6.13907e-06)
(0.000935331 -3.13049e-05 -3.55028e-06)
(0.000886699 -1.16743e-05 9.07315e-08)
(0.000846328 -7.04001e-06 -5.40189e-09)
(0.000823904 -3.72989e-06 -5.28774e-08)
(0.000808916 -2.32618e-06 2.34164e-08)
(0.000799261 -1.15337e-06 2.71353e-07)
(0.00079299 -7.83923e-07 4.9239e-08)
(0.000787905 -6.00171e-07 -1.61431e-08)
(0.00078394 -3.6888e-07 1.43084e-08)
(0.000780956 -1.6819e-07 4.81923e-08)
(0.000778523 -4.62352e-08 4.54554e-08)
(0.000776247 1.1919e-07 4.70634e-08)
(0.000774148 -5.51208e-08 9.2221e-08)
(0.000772225 -3.66265e-07 6.86043e-08)
(0.000770427 2.72553e-08 2.74291e-08)
(0.000768727 7.33263e-08 2.3112e-07)
(0.000766904 9.3809e-08 1.00155e-07)
(0.000765088 1.82891e-07 9.48654e-08)
(0.000763374 4.37463e-08 7.94e-08)
(0.000761606 1.81116e-07 6.95052e-08)
(0.000759996 2.15095e-07 1.10831e-08)
(0.000758118 1.87583e-07 9.05601e-09)
(0.00075628 1.13393e-07 2.88227e-08)
(0.00075487 1.4226e-07 4.74992e-08)
(0.000752772 -1.64882e-07 6.8604e-08)
(0.000750801 4.38974e-08 3.41594e-07)
(0.000749485 -2.7062e-08 5.45027e-08)
(0.000747878 -5.48498e-08 4.70113e-08)
(0.000746237 -9.54101e-08 4.8272e-08)
(0.000744609 -1.51436e-07 4.60329e-08)
(0.00074268 -1.351e-07 7.88221e-08)
(0.000741341 -2.36427e-07 1.139e-07)
(0.00074023 -8.87336e-08 -1.32682e-07)
(0.000738577 2.14546e-07 4.92189e-08)
(0.000737012 4.57747e-07 1.76377e-07)
(0.000735708 1.21732e-07 6.36837e-08)
(0.000734022 1.26736e-07 -2.32081e-08)
(0.000732542 1.05416e-07 1.95213e-07)
(0.000731392 -1.20218e-07 4.74802e-08)
(0.000729925 -4.08855e-07 -3.70295e-08)
(0.000728525 -3.74296e-07 -2.77741e-07)
(0.000726994 -3.15605e-07 -1.35226e-09)
(0.000725348 8.50927e-08 8.49375e-08)
(-0.00221278 0.00380029 0.000870769)
(0.00493654 0.00341996 -0.000126517)
(-0.00572904 -0.00500159 0.00281032)
(0.0090607 0.0101997 -0.000303366)
(0.00343576 -0.000920793 0.002298)
(0.00816185 0.00662456 -0.000214869)
(0.0016126 -9.44184e-05 1.93873e-05)
(0.000941265 8.79873e-05 -3.84859e-06)
(0.000883355 4.54911e-05 -1.32636e-07)
(0.000843337 2.8547e-05 -1.61707e-07)
(0.000821011 1.72243e-05 2.39704e-08)
(0.000807091 1.05184e-05 3.83376e-08)
(0.000797978 6.68132e-06 7.98894e-08)
(0.000791297 4.03824e-06 4.16932e-08)
(0.000787001 2.37013e-06 1.63098e-07)
(0.000783765 1.46479e-06 1.17346e-07)
(0.000780891 9.60367e-07 5.05778e-08)
(0.000778331 6.40154e-07 7.62077e-08)
(0.000776144 4.0319e-07 3.13622e-08)
(0.000773776 5.11089e-07 5.69989e-08)
(0.000772452 8.37647e-07 1.49e-07)
(0.000771003 4.49939e-07 2.73847e-07)
(0.000768659 3.05645e-07 1.29213e-07)
(0.000766867 1.95899e-07 5.60526e-08)
(0.000764956 2.015e-07 5.18973e-08)
(0.000763251 1.70488e-07 4.29813e-08)
(0.000761592 1.46286e-09 3.98846e-08)
(0.000759811 -9.84569e-08 1.74871e-08)
(0.000758273 -1.69175e-07 1.01651e-07)
(0.000756655 -3.65e-07 8.00735e-08)
(0.000754204 -6.82929e-07 -8.20571e-09)
(0.000752469 -5.33378e-07 -5.29384e-09)
(0.000751242 -3.11385e-07 1.58293e-08)
(0.000749418 -1.84956e-07 8.06834e-08)
(0.000747834 -2.32475e-07 -4.49077e-08)
(0.00074621 -1.03777e-07 4.32132e-08)
(0.000744677 -1.01413e-07 2.42567e-11)
(0.000743213 5.87315e-08 5.32934e-08)
(0.000741652 3.21928e-07 1.05039e-07)
(0.000740239 2.07223e-07 4.46069e-08)
(0.000738989 2.40562e-07 4.44979e-08)
(0.000737358 3.16018e-07 -3.97694e-08)
(0.000735179 2.77654e-07 3.19148e-08)
(0.000733608 6.6826e-08 5.59378e-08)
(0.000732312 1.65917e-07 3.54477e-08)
(0.000730804 -1.01029e-07 4.35695e-08)
(0.000729524 -4.46376e-07 -4.35243e-07)
(0.000728356 -5.10661e-07 4.83772e-08)
(0.000727394 -4.33594e-07 8.34419e-08)
(0.000725978 -1.50423e-07 1.74078e-07)
(-0.00251525 0.000779898 -0.000101671)
(-0.00242928 -0.00800399 0.000847866)
(0.0244998 0.0069441 -0.000203412)
(0.00366236 -0.000937423 0.000103268)
(-0.000744214 0.0103102 0.000689874)
(0.000366328 0.00138842 -0.00115589)
(0.000628782 0.000283391 1.4785e-05)
(0.000869296 0.000160044 -1.78382e-06)
(0.000812188 8.5811e-05 -3.49811e-07)
(0.000810828 5.28387e-05 1.44962e-07)
(0.000801262 3.15491e-05 3.76e-08)
(0.000795672 1.93879e-05 4.87082e-08)
(0.00079112 1.17039e-05 4.36536e-08)
(0.000787577 7.29753e-06 4.79772e-08)
(0.000784674 4.66764e-06 5.15414e-08)
(0.000782169 2.95916e-06 5.18055e-08)
(0.00077992 1.85806e-06 5.20487e-08)
(0.000777824 1.22513e-06 3.81093e-08)
(0.000776083 9.3415e-07 6.75307e-08)
(0.000774688 8.02287e-07 6.0088e-08)
(0.000772144 1.01086e-06 -8.92468e-08)
(0.000769758 4.31584e-07 4.71712e-08)
(0.000768407 3.95445e-07 5.2606e-08)
(0.000766772 2.07118e-07 5.62568e-08)
(0.000765055 1.75033e-07 4.70621e-09)
(0.000763123 2.71474e-07 1.30082e-07)
(0.00076127 1.5406e-08 5.21162e-08)
(0.000759784 -7.09663e-08 6.53979e-08)
(0.000757788 -4.27259e-07 6.74666e-08)
(0.000755641 -8.08133e-07 2.47988e-08)
(0.000754664 -6.05199e-07 1.41031e-07)
(0.000753241 -1.31616e-07 8.43576e-08)
(0.000751239 -1.32382e-07 4.66876e-08)
(0.000749586 -9.66226e-08 -1.32808e-07)
(0.000747981 -5.6308e-08 8.20855e-08)
(0.000746402 -1.56121e-08 1.52085e-07)
(0.000744813 1.14989e-08 4.87003e-08)
(0.000743209 5.292e-08 8.5039e-08)
(0.000741525 1.42133e-07 4.85072e-08)
(0.000740126 2.86647e-07 1.11403e-08)
(0.000738712 -2.83612e-09 4.14669e-08)
(0.000737056 -3.28997e-07 2.87482e-09)
(0.000735395 -3.92728e-07 2.8422e-08)
(0.000733882 -1.70544e-07 4.86514e-08)
(0.000732333 -1.81956e-07 3.0782e-09)
(0.000730629 -2.90498e-08 4.77137e-08)
(0.000729417 -3.77611e-08 1.01044e-07)
(0.000728545 -3.04537e-07 9.23143e-08)
(0.000727453 -1.55377e-07 2.07382e-07)
(0.000726076 -3.1543e-07 7.02753e-08)
(-0.00673655 -0.00528527 0.000640841)
(0.00413669 -0.0152062 0.00156309)
(-0.0113887 0.0124665 0.00174554)
(0.00174707 0.0145199 -0.000986143)
(0.000851539 0.00372931 -0.0028939)
(0.00613358 -0.00195583 2.36606e-05)
(0.000456113 0.000125659 3.85087e-05)
(0.000794486 0.000128937 -1.20988e-06)
(0.00074873 8.06814e-05 -5.69277e-07)
(0.000775114 4.96536e-05 1.49303e-07)
(0.000778951 3.08313e-05 3.09802e-08)
(0.000782137 1.91972e-05 5.55956e-08)
(0.000782773 1.19681e-05 5.16216e-08)
(0.000782445 7.48328e-06 5.08008e-08)
(0.000781542 4.71938e-06 4.93415e-08)
(0.00078023 3.03954e-06 5.07737e-08)
(0.000778708 2.01615e-06 1.47565e-07)
(0.000777167 1.4627e-06 1.15132e-07)
(0.000775609 1.14026e-06 1.22363e-07)
(0.000773866 5.73931e-07 2.15822e-08)
(0.000771984 6.36443e-09 3.95347e-08)
(0.00077023 1.81883e-07 6.39747e-08)
(0.000768376 8.32403e-08 3.31103e-08)
(0.00076659 6.57017e-08 4.99171e-08)
(0.000765035 -1.50232e-07 4.19633e-08)
(0.00076305 -2.68906e-07 3.41205e-08)
(0.000761163 -6.57896e-08 1.98566e-09)
(0.00075926 -4.13668e-08 3.23585e-08)
(0.000757357 -1.07685e-07 2.83957e-08)
(0.000756438 4.12471e-07 7.4217e-08)
(0.000755055 5.3509e-07 9.43573e-08)
(0.000753063 1.77329e-07 3.49058e-08)
(0.000751287 1.86785e-07 5.02973e-08)
(0.000749515 8.40776e-08 3.30042e-08)
(0.000747936 3.21504e-08 4.66343e-08)
(0.000746295 -9.50669e-08 4.51471e-08)
(0.000744763 -2.72543e-07 5.95744e-08)
(0.000743376 -1.63574e-07 2.66433e-08)
(0.000741943 9.55382e-08 3.98187e-08)
(0.000740057 1.52375e-07 7.10729e-08)
(0.000738219 -4.65332e-08 1.32306e-07)
(0.000736873 -8.75777e-08 4.8556e-08)
(0.00073538 -1.5128e-07 -7.22004e-08)
(0.000733874 -1.33628e-07 4.80267e-08)
(0.000732491 -7.57136e-08 5.57643e-08)
(0.000730985 7.81143e-08 4.38018e-08)
(0.00072918 4.30456e-07 6.04862e-08)
(0.000728211 5.67021e-07 7.03874e-08)
(0.000727389 7.6671e-08 3.96174e-08)
(0.000726566 -8.34183e-08 9.99451e-08)
(0.00141543 -0.00254464 -1.53904e-05)
(-0.00149775 0.0124838 0.000315621)
(-0.00799505 0.0023469 0.000271352)
(0.00962301 -0.00515306 -0.000313087)
(-0.00301102 -0.0195927 -0.0022288)
(-0.00100672 0.00446983 -0.000566202)
(0.000246422 0.000125006 -3.37564e-07)
(0.00068656 4.97089e-05 -1.23567e-06)
(0.000712515 3.99976e-05 2.55376e-08)
(0.000748095 2.65801e-05 1.74647e-07)
(0.00076293 1.77058e-05 7.45943e-08)
(0.00077193 1.16764e-05 6.70903e-08)
(0.000776377 7.54557e-06 5.82131e-08)
(0.000778452 4.61494e-06 5.71679e-08)
(0.00077908 2.96743e-06 5.57695e-08)
(0.000778765 1.92775e-06 1.09436e-07)
(0.000777932 1.32305e-06 1.85445e-08)
(0.000776717 9.16588e-07 2.41049e-08)
(0.000774964 6.63658e-07 8.13032e-09)
(0.000773266 4.01589e-07 7.18998e-08)
(0.000771652 2.32588e-07 5.57962e-08)
(0.000769854 2.94287e-08 7.38278e-08)
(0.000768262 -9.68592e-08 5.93056e-08)
(0.000766482 -9.92855e-08 5.3674e-08)
(0.000764638 -2.08973e-07 6.83549e-08)
(0.000763231 -3.23695e-07 6.43998e-08)
(0.000761556 -1.01644e-07 2.19381e-07)
(0.000759733 -2.0883e-08 1.03678e-07)
(0.000758354 2.43407e-07 -1.9346e-07)
(0.000756443 5.96815e-07 2.93024e-08)
(0.000754368 3.67463e-07 1.25113e-07)
(0.000752803 2.90254e-07 6.01959e-08)
(0.000751122 2.35006e-08 7.32451e-08)
(0.000749392 2.81375e-08 -2.30243e-08)
(0.000747758 6.9731e-08 4.96055e-08)
(0.000746022 2.17472e-08 8.00091e-08)
(0.00074473 2.4449e-07 9.15323e-08)
(0.00074367 2.57575e-08 4.39241e-08)
(0.00074192 -3.03706e-07 8.24595e-08)
(0.000739949 -5.90994e-07 3.63199e-08)
(0.000738412 -2.9532e-07 5.13566e-08)
(0.000736927 -1.40507e-07 -1.35048e-08)
(0.000735339 -1.503e-09 3.95806e-08)
(0.000733978 8.0649e-08 4.20088e-08)
(0.000732598 1.33077e-07 5.16379e-08)
(0.000731261 1.34238e-07 9.53912e-09)
(0.000730025 4.36626e-07 3.26283e-08)
(0.0007281 1.06698e-06 2.36461e-08)
(0.00072664 8.03426e-07 -1.00017e-07)
(0.000726081 3.99243e-07 8.937e-08)
(-0.0141697 0.00556994 -0.000708888)
(-0.00155696 0.0041444 -0.000445263)
(-0.00520628 -0.00436405 -0.00133207)
(0.0203351 -0.00152302 -0.000791752)
(0.0174802 0.0153028 0.00139816)
(-9.98397e-06 0.000265555 0.000115392)
(0.000374977 -6.17674e-05 9.36036e-08)
(0.000720642 -2.22708e-05 -1.71732e-06)
(0.000719315 -7.03359e-06 -1.19994e-07)
(0.000746986 -1.74465e-06 1.1308e-07)
(0.000760148 1.35442e-07 9.17475e-08)
(0.000769324 4.18919e-07 6.45335e-08)
(0.000773875 4.43637e-07 5.5029e-08)
(0.000776677 6.27809e-07 1.76873e-08)
(0.000778155 4.22315e-07 5.84694e-08)
(0.000778156 2.41606e-07 7.56301e-08)
(0.000777432 1.24186e-07 4.7202e-08)
(0.000776335 4.42794e-08 4.71265e-08)
(0.000774959 8.85396e-08 6.57404e-08)
(0.000773324 -1.00769e-07 6.48376e-08)
(0.000771517 -1.64217e-07 1.76253e-08)
(0.000769818 -1.15247e-08 1.96911e-07)
(0.000768216 5.80246e-08 5.50959e-08)
(0.000766452 8.60021e-09 4.6474e-08)
(0.000764757 1.56978e-07 5.66786e-08)
(0.000763187 1.87642e-07 -3.25218e-08)
(0.000761544 7.60856e-08 1.18087e-07)
(0.000759691 1.41661e-07 4.80043e-08)
(0.000758127 2.65765e-07 -9.5249e-08)
(0.00075659 -1.7305e-07 2.64368e-08)
(0.000754668 -8.05592e-08 1.79661e-07)
(0.000752632 -2.08918e-07 -1.90672e-08)
(0.00075096 -3.63257e-07 6.23337e-08)
(0.000749573 -2.11748e-07 1.08123e-07)
(0.000747929 9.548e-08 1.93143e-08)
(0.000746514 2.46202e-07 5.20926e-08)
(0.000744768 4.53324e-07 1.40456e-09)
(0.000742691 9.78042e-08 4.27504e-08)
(0.000741175 -2.87314e-07 2.83403e-09)
(0.000740071 -4.16805e-07 6.40116e-08)
(0.000738785 -1.09895e-07 6.7097e-08)
(0.000737241 -1.26556e-07 1.80278e-08)
(0.000735657 -5.12781e-08 9.09201e-08)
(0.000734041 2.09188e-07 5.35754e-08)
(0.000732557 1.7443e-07 4.17099e-08)
(0.000731362 2.95712e-07 2.13099e-08)
(0.000730341 7.66302e-08 1.11759e-08)
(0.000728663 2.1071e-08 1.82375e-08)
(0.000726539 3.69179e-07 -4.15592e-08)
(0.000725066 2.56446e-07 6.16337e-08)
(-0.0928999 -0.0717727 0.00966481)
(-0.0424032 0.00335832 0.00948473)
(0.00780407 -0.0599505 -0.0258385)
(-0.00818405 -0.00850003 0.00160994)
(0.0060127 -0.017985 0.000568132)
(0.000943092 -0.00307192 -0.000458592)
(0.00132213 -8.38e-05 1.31689e-07)
(0.00124922 -6.45799e-05 3.25896e-07)
(0.00122894 -4.78896e-05 3.08872e-07)
(0.00126085 -3.27721e-05 3.41975e-07)
(0.00127506 -2.16824e-05 3.69935e-07)
(0.00128602 -1.43468e-05 3.28893e-07)
(0.00129315 -9.22947e-06 2.5936e-07)
(0.00129604 -5.40277e-06 2.1011e-07)
(0.00129626 -3.43035e-06 3.3774e-07)
(0.00129592 -2.17889e-06 5.12597e-07)
(0.00129476 -1.45721e-06 3.34326e-07)
(0.00129311 -8.54183e-07 3.61652e-07)
(0.00129006 -9.80203e-07 3.61091e-07)
(0.00128717 -7.64233e-07 3.96012e-07)
(0.00128524 -5.37677e-07 3.14738e-07)
(0.00128252 -1.58935e-07 3.59044e-07)
(0.0012795 -5.81681e-08 3.19581e-07)
(0.00127679 1.33482e-07 2.83698e-07)
(0.001274 3.40947e-07 2.75702e-07)
(0.00127119 4.33323e-07 3.45198e-07)
(0.00126852 1.84841e-07 2.81651e-07)
(0.00126609 1.57386e-07 3.31242e-07)
(0.00126277 5.6919e-07 3.49847e-07)
(0.00125954 -3.67652e-07 5.47692e-07)
(0.00125683 -1.09663e-06 2.47091e-07)
(0.00125371 -8.75463e-07 1.36264e-07)
(0.0012515 -2.54882e-07 1.73046e-07)
(0.00124971 -2.72483e-08 4.12806e-07)
(0.00124707 2.65504e-07 3.14226e-07)
(0.00124399 2.70703e-07 3.05283e-07)
(0.00124079 -9.1657e-08 3.16235e-07)
(0.00123778 2.61189e-07 2.69873e-07)
(0.00123547 7.15955e-07 1.51434e-07)
(0.00123369 7.46784e-07 3.25238e-07)
(0.00123128 2.6799e-07 2.7401e-07)
(0.00122836 9.70933e-08 3.49311e-07)
(0.00122644 -4.45012e-07 3.59551e-07)
(0.00122386 -4.2657e-07 6.93523e-07)
(0.00122121 -2.41696e-07 3.22323e-07)
(0.00121866 -1.93402e-07 3.1586e-07)
(0.00121624 -3.38559e-07 2.98753e-07)
(0.00121428 -7.90345e-07 2.91596e-07)
(0.00121166 -6.4292e-07 3.05248e-07)
(0.00120891 -4.38109e-07 3.32479e-07)
(0.0441095 0.0567738 -0.0105657)
(-0.0465697 0.0141345 0.00856421)
(-0.0781206 0.0551788 -0.00697099)
(0.00545047 -0.00185284 0.00131859)
(0.0110116 0.0110133 -0.00216281)
(-0.0133327 -0.000312976 -0.000362851)
(0.0011562 2.12511e-05 2.29907e-06)
(0.00124608 -0.000124478 3.10941e-07)
(0.00124182 -9.20712e-05 3.29625e-07)
(0.00127919 -6.18473e-05 3.21984e-07)
(0.00129042 -4.08254e-05 3.25633e-07)
(0.00129751 -2.61204e-05 3.28032e-07)
(0.00130019 -1.66669e-05 3.29176e-07)
(0.00130065 -1.10022e-05 3.27879e-07)
(0.0012998 -6.98287e-06 3.28252e-07)
(0.00129813 -4.57038e-06 2.56084e-07)
(0.00129605 -3.00234e-06 3.28936e-07)
(0.00129323 -2.32144e-06 4.01094e-07)
(0.00129059 -1.67275e-06 5.44993e-07)
(0.00128826 -8.53349e-07 2.97245e-07)
(0.00128545 -4.21919e-07 1.25496e-07)
(0.00128262 -4.58407e-07 3.41911e-07)
(0.00127982 -5.92094e-08 2.71341e-07)
(0.00127709 -4.6181e-08 2.81546e-07)
(0.00127416 8.59615e-08 3.078e-07)
(0.00127107 -8.38877e-08 3.4342e-07)
(0.00126831 -1.89482e-07 2.60868e-07)
(0.00126608 -5.03333e-07 3.19641e-07)
(0.00126241 -1.70072e-06 3.57053e-07)
(0.00125851 -9.90676e-07 3.49959e-07)
(0.00125674 -9.53448e-07 3.62682e-07)
(0.00125507 -3.71087e-07 2.82339e-07)
(0.00125235 6.56013e-07 5.55402e-07)
(0.00124964 6.85061e-07 6.61299e-07)
(0.00124674 -6.57981e-08 3.15385e-07)
(0.0012436 -1.73992e-07 3.22834e-07)
(0.00124114 -3.37854e-08 3.2335e-07)
(0.00123877 2.37202e-07 3.62485e-07)
(0.00123593 6.37162e-07 3.02062e-07)
(0.00123294 7.48021e-07 3.15823e-07)
(0.00123047 1.33956e-07 3.22763e-07)
(0.0012279 -4.69531e-07 3.41566e-07)
(0.00122547 -9.44584e-07 2.26586e-07)
(0.00122374 -7.52928e-07 3.62668e-07)
(0.00122139 -3.04993e-07 3.38329e-07)
(0.00121886 -3.94901e-07 3.21887e-07)
(0.00121651 8.80732e-08 3.54673e-07)
(0.0012142 -1.66217e-07 3.02647e-07)
(0.0012116 -3.91496e-07 9.51671e-08)
(0.00120989 -3.85596e-07 1.97608e-07)
(-0.0133804 -0.0494339 0.0125135)
(-0.0257775 0.00541 0.00575773)
(-0.011822 0.00104558 -0.0124506)
(5.26173e-05 -0.0520163 -0.00157585)
(-0.00479727 -0.002681 0.00114727)
(0.0107464 0.00383369 0.000609193)
(0.00121034 -0.000341831 2.00153e-05)
(0.00136265 -0.000221348 4.21939e-07)
(0.00130897 -0.000133349 4.47723e-07)
(0.00132536 -8.17394e-05 3.36134e-07)
(0.00132001 -5.01871e-05 3.33827e-07)
(0.00131641 -3.09797e-05 3.3294e-07)
(0.00131217 -1.92926e-05 3.31655e-07)
(0.00130822 -1.20702e-05 3.31039e-07)
(0.00130435 -7.60793e-06 3.29792e-07)
(0.00130093 -4.91365e-06 3.24133e-07)
(0.0012976 -3.25245e-06 3.28066e-07)
(0.00129479 -2.37535e-06 2.34963e-07)
(0.00129191 -1.72601e-06 4.94844e-08)
(0.00128874 -1.07602e-06 3.13895e-07)
(0.00128573 -8.14878e-07 4.33769e-07)
(0.00128297 -5.23303e-07 3.27352e-07)
(0.00128002 -4.27682e-07 3.8617e-07)
(0.00127696 -3.50382e-07 3.05742e-07)
(0.00127395 -5.20304e-07 2.70082e-07)
(0.00127084 -3.05391e-07 3.8993e-07)
(0.001268 -2.49022e-07 3.5413e-07)
(0.00126421 -2.92632e-07 3.17224e-07)
(0.00126217 -5.47724e-07 -1.08066e-09)
(0.00126049 5.38867e-07 2.6011e-07)
(0.00125761 1.21833e-06 3.14665e-07)
(0.00125572 9.11115e-07 3.02727e-07)
(0.00125282 3.78133e-07 3.95247e-07)
(0.0012488 2.45999e-07 3.24207e-07)
(0.001246 -1.35235e-07 3.30065e-07)
(0.00124402 -7.8283e-08 2.82432e-07)
(0.00124131 2.97137e-09 3.14455e-07)
(0.00123861 -7.63681e-08 3.31294e-07)
(0.0012361 5.70566e-09 3.18345e-07)
(0.00123306 -9.73355e-08 3.34295e-07)
(0.00122976 -1.14013e-07 3.56076e-07)
(0.00122702 -2.42309e-08 2.40161e-07)
(0.00122609 8.76135e-07 2.95174e-07)
(0.00122467 4.82708e-07 2.65789e-07)
(0.00122166 2.46889e-07 3.23609e-07)
(0.00121915 2.75633e-07 3.07152e-07)
(0.00121653 4.33104e-07 4.9749e-07)
(0.00121369 2.85387e-07 1.31953e-07)
(0.0012114 1.27858e-07 3.03095e-07)
(0.00120988 1.32456e-07 2.82353e-07)
(0.00328005 -0.00197891 0.00229207)
(0.00806281 -0.0047779 -0.00302099)
(-0.0420204 -0.0135644 0.00922274)
(0.0399171 -0.00413705 0.00727903)
(0.0406086 -0.0152379 0.0080855)
(0.029965 -0.00701803 0.00114534)
(0.00121358 -0.000374085 8.00093e-05)
(0.00153497 -0.000185205 4.49933e-07)
(0.00141734 -9.77147e-05 3.5893e-07)
(0.00138386 -6.00895e-05 6.19564e-07)
(0.00135431 -3.6058e-05 3.40373e-07)
(0.0013364 -2.19245e-05 3.3823e-07)
(0.00132399 -1.37905e-05 3.34839e-07)
(0.00131536 -8.40884e-06 3.32609e-07)
(0.0013088 -4.98534e-06 3.30187e-07)
(0.00130361 -2.98008e-06 3.28821e-07)
(0.00129925 -1.92311e-06 3.28694e-07)
(0.00129516 -1.06846e-06 3.22518e-07)
(0.00129222 -8.93047e-07 3.24807e-07)
(0.00128941 -7.09267e-07 2.92298e-07)
(0.00128615 -6.5505e-07 1.80906e-07)
(0.00128311 -5.31324e-07 3.23635e-07)
(0.00128004 -6.14873e-07 2.9613e-07)
(0.00127698 -3.28419e-07 3.79304e-07)
(0.00127422 -3.57242e-07 4.88864e-07)
(0.00127141 -1.97575e-08 2.53308e-07)
(0.00126833 2.45392e-07 3.85284e-07)
(0.00126571 5.89959e-07 4.19028e-07)
(0.00126345 1.77797e-06 2.71622e-07)
(0.00126071 1.26116e-06 4.8695e-07)
(0.00125719 1.37159e-06 3.08025e-07)
(0.00125401 1.32378e-06 -6.40535e-08)
(0.00125151 2.72294e-07 3.1778e-07)
(0.001249 -6.22709e-08 3.13256e-07)
(0.00124633 3.12685e-07 2.51554e-07)
(0.00124378 1.47393e-07 2.98001e-07)
(0.00124115 -3.96668e-08 3.02049e-07)
(0.00123878 -1.62128e-07 3.17871e-07)
(0.0012359 -7.24839e-07 1.81725e-07)
(0.00123279 -6.46858e-07 1.22857e-07)
(0.00123056 -2.28141e-07 2.89935e-07)
(0.00122913 3.85266e-07 3.04981e-07)
(0.0012261 9.0674e-07 3.53298e-07)
(0.00122295 5.16987e-07 2.09025e-07)
(0.00122113 -6.22887e-08 2.60794e-07)
(0.00121909 -3.83593e-08 3.06939e-07)
(0.00121652 -1.28834e-07 3.64591e-07)
(0.00121381 6.77924e-08 8.51829e-08)
(0.00121141 3.56233e-07 3.01207e-07)
(0.00120956 3.56156e-07 2.35262e-07)
(0.00060775 -0.0116094 0.00146935)
(-0.0160461 0.00780945 -0.00562209)
(0.00347574 -0.00261013 0.0117075)
(-0.0176248 0.0116434 0.00748339)
(-0.0347787 -0.0257542 0.020143)
(0.0198071 0.0149807 0.020742)
(0.00122477 -0.000396142 -9.12738e-06)
(0.00153617 -4.86871e-05 3.42587e-07)
(0.0014662 -1.87365e-05 3.2808e-07)
(0.00140297 -1.19348e-05 4.33767e-07)
(0.00136806 -6.57499e-06 2.38767e-07)
(0.00134445 -4.21177e-06 3.74429e-07)
(0.00132919 -2.14837e-06 5.17856e-07)
(0.00131931 -1.49803e-06 3.33888e-07)
(0.00131119 -1.16366e-06 2.97632e-07)
(0.00130478 -7.46401e-07 3.22076e-07)
(0.0013 -3.73947e-07 3.28538e-07)
(0.00129609 -1.71743e-07 3.23882e-07)
(0.00129236 1.66088e-07 3.18545e-07)
(0.00128904 -5.91403e-08 3.60043e-07)
(0.00128596 -5.2089e-07 3.57329e-07)
(0.00128303 5.61893e-08 3.7704e-07)
(0.00128028 1.13975e-07 5.33831e-07)
(0.00127729 1.20866e-07 3.70524e-07)
(0.00127434 3.10981e-07 2.82696e-07)
(0.00127159 3.56381e-08 3.75881e-07)
(0.00126875 2.82532e-07 3.73886e-07)
(0.00126611 3.70794e-07 2.76865e-07)
(0.001263 4.02852e-07 5.2497e-07)
(0.00125997 2.75094e-07 4.1508e-07)
(0.00125768 2.59892e-07 3.40712e-07)
(0.00125434 -2.64372e-07 3.34356e-07)
(0.00125108 1.16934e-07 7.20999e-07)
(0.00124885 -2.33368e-09 3.20054e-07)
(0.00124626 -4.68927e-08 2.6269e-07)
(0.00124358 -1.45621e-07 3.14298e-07)
(0.00124092 -2.74198e-07 3.54576e-07)
(0.00123776 -2.63664e-07 3.01004e-07)
(0.0012355 -4.08478e-07 4.52367e-07)
(0.00123368 -1.68576e-07 6.77749e-08)
(0.00123105 3.38055e-07 3.12509e-07)
(0.00122843 6.98807e-07 5.71962e-07)
(0.00122625 1.82414e-07 2.81334e-07)
(0.00122345 1.51298e-07 -1.37649e-07)
(0.00122096 3.60313e-08 7.50004e-07)
(0.00121907 -2.66734e-07 3.06407e-07)
(0.00121666 -7.84316e-07 1.14566e-07)
(0.00121429 -7.5054e-07 -7.45517e-08)
(0.00121175 -5.19222e-07 3.07744e-07)
(0.00120899 1.50747e-07 3.91577e-07)
(-0.0101611 0.00370456 -0.00216842)
(-0.0234273 0.00914539 0.00483627)
(0.0222748 -0.0153832 -0.00688057)
(-0.0137679 0.00684197 -0.0293996)
(-0.00111969 -0.0168237 -0.0480425)
(0.00172976 -0.00400893 0.00472407)
(0.00152759 -0.000666276 -2.57784e-05)
(0.00155013 0.000134406 3.79279e-07)
(0.0014624 6.87336e-05 3.10588e-07)
(0.00139924 4.34549e-05 2.40662e-07)
(0.00136409 2.62522e-05 3.33095e-07)
(0.00134201 1.60306e-05 3.17451e-07)
(0.00132743 1.02296e-05 4.19358e-07)
(0.00131662 6.15595e-06 3.33664e-07)
(0.00130977 3.55871e-06 6.25061e-07)
(0.00130461 2.17108e-06 4.35629e-07)
(0.00129998 1.42649e-06 3.29488e-07)
(0.00129584 9.31571e-07 3.91469e-07)
(0.00129237 5.88102e-07 3.14835e-07)
(0.00128855 8.09857e-07 3.78033e-07)
(0.0012863 1.27043e-06 3.57089e-07)
(0.0012839 7.12816e-07 6.33223e-07)
(0.00128012 4.82621e-07 3.96179e-07)