/*--------------------------------*- C++ -*----------------------------------*\
| =========                 |                                                 |
| \\      /  F ield         | OpenFOAM: The Open Source CFD Toolbox           |
|  \\    /   O peration     | Version:  5.0                                   |
|   \\  /    A nd           | Web:      www.OpenFOAM.org                      |
|    \\/     M anipulation  |                                                 |
\*---------------------------------------------------------------------------*/
FoamFile
{
    version     2.0;
    format      ascii;
    class       surfaceVectorField;
    location    "0.7";
    object      Uf;
}
// * * * * * * * * * * * * * * * * * * * * * * * * * * * * * * * * * * * * * //

dimensions      [0 1 -1 0 0 0 0];

internalField   nonuniform List<vector> 
28708
(
(0.00062076 0.0033259 0.000354952)
(0.000215286 0.000542343 -0.000380296)
(-0.0108479 0.00190148 0.000667226)
(-0.0270943 -0.0135513 -0.00110636)
(0.0156588 0.00178895 -0.00226167)
(-0.00754035 0.0220161 -0.00338905)
(-0.0114366 0.00223922 -0.000875916)
(-0.00180516 -0.0100303 1.77131e-06)
(0.00117631 -0.0100633 -0.000536256)
(0.0365207 -0.0252427 -8.5037e-05)
(-0.0126432 -0.0205909 -0.00146042)
(-0.00366696 -0.0125628 0.000561203)
(-0.00971864 -0.0054678 -0.000234866)
(-0.0317507 -0.0275347 0.000793045)
(0.00133711 -0.0233283 0.000136648)
(-0.00612416 0.00116247 0.0002348)
(0.0379448 -0.00786766 -0.00287339)
(-0.016609 -0.00309461 -0.00451227)
(0.00446507 0.0106757 -0.000295281)
(0.00224298 0.0212691 -0.000690814)
(0.000652678 0.0163945 -0.000484705)
(0.00780571 0.0143743 -7.88074e-05)
(0.000543909 0.0142499 -0.000334605)
(0.0105591 0.00898183 0.000198149)
(-0.00606407 0.00446925 -0.00035738)
(-2.66713e-05 -0.000964976 5.75102e-05)
(0.00109477 -0.000284733 5.74777e-06)
(0.000911361 -0.000363001 2.12097e-05)
(0.00089256 -0.00102582 -0.000101566)
(7.17893e-05 5.8166e-05 -1.51778e-06)
(0.000201957 6.97289e-05 -2.4094e-06)
(0.000162148 4.30801e-05 -1.42473e-06)
(0.000298932 0.000109144 -1.4778e-06)
(8.44847e-05 4.74491e-05 -1.0473e-06)
(0.000159267 0.000109534 -2.09459e-06)
(0.000196114 8.63156e-05 -6.81524e-07)
(0.000573539 4.71406e-05 -7.52573e-07)
(0.000529432 -2.37365e-05 -1.16782e-06)
(0.000721099 6.66261e-05 -6.67121e-07)
(0.000315369 6.25213e-05 -2.56806e-06)
(0.000316334 3.05562e-05 -2.48793e-06)
(0.000560888 0.000103169 -2.02531e-06)
(0.000561429 4.14634e-05 -2.15095e-06)
(0.000655433 3.03831e-05 -6.96179e-08)
(0.000617345 -1.61864e-05 -2.10312e-07)
(0.00083351 4.2592e-05 1.31338e-07)
(0.000706337 1.9384e-05 1.13329e-07)
(0.000686345 -9.57986e-06 1.5128e-07)
(0.000919794 2.72125e-05 1.83124e-07)
(0.000737456 1.21059e-05 7.90288e-08)
(0.000724889 -5.99573e-06 8.12988e-08)
(0.000968807 1.71028e-05 1.6841e-07)
(0.000756777 7.45326e-06 3.37677e-08)
(0.000749184 -3.63451e-06 6.85339e-08)
(0.000999837 1.04189e-05 1.71366e-07)
(0.000768432 4.74588e-06 4.04979e-08)
(0.00076381 -2.27367e-06 3.16073e-08)
(0.001019 6.41309e-06 1.7876e-07)
(0.000774299 3.0408e-06 6.22095e-08)
(0.000772072 -1.66151e-06 6.48433e-08)
(0.00102955 4.32081e-06 1.63801e-07)
(0.000777751 1.74123e-06 1.38589e-08)
(0.000776416 -1.1237e-06 4.91405e-08)
(0.00103496 2.59172e-06 1.76021e-07)
(0.000778946 1.02346e-06 1.52296e-08)
(0.000778711 1.114e-06 2.55198e-08)
(0.0010377 1.33544e-06 1.24555e-07)
(0.000779676 7.74035e-07 4.078e-08)
(0.000779625 -5.64809e-07 4.85668e-08)
(0.00103874 9.5557e-07 1.71778e-07)
(0.000778833 4.86804e-07 3.78869e-08)
(0.000779485 -3.8351e-07 5.75798e-08)
(0.00103861 8.01279e-07 1.66595e-07)
(0.0007781 8.95214e-08 7.49996e-08)
(0.000778667 -4.81393e-07 3.05544e-08)
(0.00103726 2.85659e-07 1.98652e-07)
(0.000777629 -1.65465e-08 9.05365e-08)
(0.000777924 8.71511e-09 6.70918e-08)
(0.0010364 -1.61765e-07 2.4961e-07)
(0.000776182 1.1969e-07 6.65946e-08)
(0.000776969 -3.75167e-08 7.94319e-08)
(0.0010352 6.94715e-08 1.75809e-07)
(0.000774981 1.49963e-07 3.0606e-08)
(0.000775606 -1.40823e-07 6.18349e-08)
(0.00103328 2.45972e-07 1.65919e-07)
(0.000773558 1.60713e-07 2.30595e-08)
(0.000774288 -2.47096e-07 1.19608e-07)
(0.00103148 1.93896e-07 1.8977e-07)
(0.000772045 2.33147e-07 5.96772e-08)
(0.000772939 1.11159e-07 3.56074e-08)
(0.00102952 2.75761e-07 1.77438e-07)
(0.000771074 2.40002e-07 6.49634e-08)
(0.00077155 -1.12696e-06 1.51633e-08)
(0.00102786 3.88239e-07 2.24862e-07)
(0.000769411 1.18873e-07 5.26504e-08)
(0.000770081 -3.69885e-07 9.87921e-08)
(0.00102605 3.30976e-07 1.51166e-07)
(0.000768089 3.3611e-08 4.84899e-08)
(0.000768655 1.79831e-07 5.3098e-08)
(0.001024 7.07894e-08 1.72373e-07)
(0.00076678 7.83333e-08 3.85492e-08)
(0.000767422 -9.25212e-08 5.16049e-08)
(0.00102241 6.10354e-08 1.66301e-07)
(0.000765028 2.36784e-08 3.41006e-08)
(0.000765864 1.08843e-06 5.19191e-08)
(0.0010202 1.66694e-07 3.54555e-09)
(0.000763817 -2.55147e-07 5.6335e-08)
(0.000764208 1.71107e-07 3.3975e-08)
(0.00101811 -1.36333e-07 1.79799e-07)
(0.000762139 -4.40422e-07 7.85951e-08)
(0.000762829 -7.13522e-07 -1.55184e-08)
(0.00101632 -6.44922e-07 3.57155e-07)
(0.000760395 -4.37523e-07 7.56504e-08)
(0.000761292 -9.0656e-07 4.61009e-08)
(0.00101383 -6.10751e-07 2.56166e-07)
(0.000759214 -3.10809e-07 7.49215e-08)
(0.000759993 -2.78051e-07 1.03319e-07)
(0.0010119 -5.53601e-07 1.97433e-07)
(0.000758484 -8.14586e-08 6.38115e-08)
(0.000759116 -1.69813e-06 8.04841e-08)
(0.00101082 -2.20521e-07 2.07192e-07)
(0.000757056 6.0641e-08 5.24187e-08)
(0.000757856 -7.69798e-09 4.69894e-08)
(0.00100935 5.86845e-08 1.71055e-07)
(0.000755153 9.92017e-08 8.77159e-08)
(0.000756148 -6.48322e-08 5.58467e-08)
(0.00100701 1.58977e-07 1.14624e-07)
(0.000753771 1.86257e-07 7.536e-08)
(0.000754622 3.65488e-07 8.55309e-08)
(0.00100475 1.30495e-07 1.49469e-07)
(0.000752238 3.39326e-07 4.57472e-08)
(0.000753206 2.97674e-07 2.11279e-08)
(0.00100268 3.65532e-07 1.35913e-07)
(0.000751478 2.71054e-07 9.79162e-08)
(0.000751785 -9.1706e-07 8.04702e-08)
(0.00100121 5.73683e-07 1.61645e-07)
(0.000749768 4.32701e-08 8.17158e-08)
(0.000750368 2.47471e-07 8.14226e-08)
(0.000999703 2.28895e-07 1.69496e-07)
(0.000748302 -9.19351e-08 4.87181e-08)
(0.000748889 1.16656e-09 4.18025e-08)
(0.000997481 -3.48397e-08 1.66061e-07)
(0.000746974 -4.79017e-07 7.91027e-08)
(0.000747366 -1.25073e-07 6.93292e-08)
(0.000995456 -1.57267e-07 1.46215e-07)
(0.000746244 -6.99888e-07 4.60059e-08)
(0.000746288 1.65581e-06 8.29952e-08)
(0.00099436 -1.03695e-06 1.5135e-07)
(0.000743858 -4.51606e-07 1.72523e-08)
(0.000745154 2.30043e-06 4.29884e-08)
(0.000992157 -7.27159e-07 8.02945e-08)
(0.000742406 -1.40011e-07 3.93363e-08)
(0.000743608 -1.9231e-07 4.26745e-08)
(0.000989515 -4.23534e-07 1.65002e-07)
(0.0007415 6.99973e-08 5.80052e-08)
(0.00074216 -5.73594e-07 5.19461e-08)
(0.000987979 2.34693e-08 1.44356e-07)
(0.000740502 -1.2342e-08 5.37814e-08)
(0.000740825 -5.67099e-07 7.30776e-08)
(0.000986608 9.15355e-08 1.62328e-07)
(0.000739007 -2.73592e-07 2.97906e-08)
(0.000739525 1.38615e-07 4.53898e-08)
(0.00098511 -1.93511e-07 1.70723e-07)
(0.000737143 -4.02681e-07 1.26203e-08)
(0.000738017 1.20976e-06 4.13271e-08)
(0.000982741 -5.60976e-07 1.25537e-07)
(0.000736745 9.0403e-07 5.79852e-08)
(0.000980525 -4.89933e-07 9.95393e-08)
(-0.0147053 0.0196481 0.00136745)
(-0.0579586 -0.00778887 -0.00173006)
(-0.0507191 -0.0222851 0.00894817)
(-0.0109355 -0.041848 0.00152532)
(-0.00867274 0.00368898 -0.000345178)
(0.00427775 -0.00607034 0.00125431)
(-0.0389231 -0.0266148 -0.000211195)
(-0.0039095 -0.00594237 0.00564196)
(-0.00813847 -0.0267617 0.00145131)
(0.0173988 -0.0174849 -0.00281191)
(-0.0313749 -0.00533121 -0.00137401)
(0.0179136 0.00771728 -0.00402386)
(0.0305662 0.00899043 -0.00258699)
(0.00296016 -0.00854545 -0.00212858)
(0.00394602 -0.0469333 -0.000179493)
(-0.00518995 -0.047445 0.00299447)
(-0.0120947 -0.00142135 0.00194058)
(0.0209113 0.00314375 -0.0145224)
(0.0130526 0.011726 -0.00444349)
(0.0104563 0.0158591 0.00979391)
(-0.00718585 -0.016389 -0.000572382)
(-0.00375846 0.015912 -0.00486148)
(-0.0116231 -0.000440766 -0.00436787)
(-0.0142363 0.00292817 -0.000295309)
(0.00817262 0.0022815 -0.000607424)
(-0.00408355 0.00212246 0.000580086)
(-0.000748377 -5.27331e-05 0.000386585)
(-0.00280631 0.000576874 0.00122742)
(-0.000732 -0.00205232 0.000206694)
(-0.00307721 -0.00407224 -0.000581694)
(-0.00308966 -0.00801183 -0.000261235)
(-0.000821625 5.01811e-05 -0.000108049)
(-0.00913458 -0.0025852 0.000239882)
(-2.50036e-05 -0.000338498 8.91073e-05)
(0.00250693 -0.000563216 -0.000345047)
(-0.00109713 -0.000153339 5.87707e-05)
(0.00156392 -0.00139643 0.000145466)
(-0.00209977 -0.000603389 0.000374471)
(8.00391e-05 2.62769e-06 1.29402e-06)
(0.000164962 -1.81863e-06 -1.41632e-06)
(0.000205246 -2.47167e-05 -2.32212e-06)
(0.000158353 -5.72955e-05 2.15272e-08)
(0.000297797 -1.84008e-05 -2.46434e-07)
(0.000119998 1.86256e-05 5.16775e-07)
(0.000153689 2.46412e-05 8.56074e-06)
(0.0002776 7.02788e-05 1.37793e-06)
(0.000578939 -8.80444e-05 -6.25871e-07)
(0.000606817 -0.000189769 -1.23644e-06)
(0.000738601 -0.000137715 -5.04917e-07)
(0.00032723 -5.84392e-05 -2.43668e-06)
(0.000316502 -0.000110033 -2.6489e-06)
(0.000573779 -8.30474e-05 -2.21674e-06)
(0.000541334 -0.000194675 -2.36102e-06)
(0.000660599 -5.63696e-05 1.04674e-08)
(0.000657561 -0.000119758 -3.08191e-07)
(0.000839963 -9.08334e-05 1.36132e-07)
(0.000710228 -3.49913e-05 1.19272e-07)
(0.000713251 -7.37585e-05 1.7899e-07)
(0.000926946 -5.6422e-05 1.84299e-07)
(0.000740378 -2.17618e-05 7.0808e-08)
(0.000741541 -4.56593e-05 7.14133e-08)
(0.000973877 -3.53785e-05 1.7395e-07)
(0.000758459 -1.34804e-05 6.63856e-08)
(0.000759608 -2.82463e-05 7.19181e-08)
(0.00100341 -2.18825e-05 1.76465e-07)
(0.000769071 -8.53377e-06 5.59419e-08)
(0.000770039 -1.75406e-05 5.89884e-08)
(0.00102065 -1.36527e-05 1.75912e-07)
(0.000774948 -5.47206e-06 5.17794e-08)
(0.000775929 -1.09935e-05 5.36933e-08)
(0.00103052 -8.88039e-06 1.74831e-07)
(0.000777921 -3.51821e-06 6.0809e-08)
(0.000778877 -6.81942e-06 5.23061e-08)
(0.00103566 -5.59034e-06 1.74636e-07)
(0.00077971 -2.26409e-06 5.88495e-08)
(0.000780291 -3.96708e-06 -3.40479e-08)
(0.0010384 -3.72222e-06 2.35025e-07)
(0.000779755 -1.479e-06 6.53636e-08)
(0.000780614 -2.52385e-06 5.18896e-08)
(0.00103939 -2.287e-06 1.70962e-07)
(0.000779351 -8.92013e-07 5.02559e-08)
(0.000780224 -2.46516e-06 8.847e-08)
(0.0010389 -1.66661e-06 2.18861e-07)
(0.000778457 -3.52574e-07 2.26349e-08)
(0.000779344 1.55192e-06 8.64136e-08)
(0.00103788 -7.64368e-07 -2.20342e-08)
(0.000777485 -1.25802e-07 5.59832e-08)
(0.00077821 -6.98696e-07 4.26899e-08)
(0.0010366 -2.46271e-07 1.75261e-07)
(0.000776348 -8.60936e-08 7.46777e-08)
(0.000777019 -2.99429e-07 6.54215e-08)
(0.00103517 -1.28185e-07 1.59577e-07)
(0.000774916 1.08408e-08 1.50818e-07)
(0.000775728 -2.3655e-07 5.47669e-08)
(0.00103339 -1.22484e-07 1.74405e-07)
(0.000773749 9.35146e-08 1.32182e-07)
(0.000774391 1.56643e-07 1.53651e-07)
(0.00103157 1.53202e-07 1.16994e-07)
(0.000772349 2.22703e-07 -8.90007e-09)
(0.0007731 1.11686e-07 -4.73906e-08)
(0.00102991 1.25213e-07 1.65743e-07)
(0.000770649 1.69019e-07 4.89655e-08)
(0.000771482 3.09065e-08 3.99374e-08)
(0.00102782 4.87442e-07 1.11459e-07)
(0.000769252 -7.38644e-08 9.92542e-08)
(0.000769777 -1.45726e-07 8.28635e-08)
(0.00102562 -8.93398e-09 1.50517e-07)
(0.000768001 -1.95318e-07 5.62134e-08)
(0.000768504 3.00128e-08 4.81307e-08)
(0.00102382 -1.38843e-07 1.64159e-07)
(0.000766532 -4.60731e-07 6.49748e-08)
(0.000767092 -1.4341e-08 5.60368e-08)
(0.00102213 -3.59565e-07 1.67495e-07)
(0.000765062 -5.93601e-07 5.17991e-08)
(0.0007657 -4.15643e-07 4.37634e-08)
(0.00102007 -9.33133e-07 2.79221e-07)
(0.000763208 -4.54659e-07 -3.78629e-08)
(0.000764384 4.5913e-07 2.78878e-08)
(0.00101762 -7.29717e-07 1.86665e-07)
(0.000762025 -2.99268e-07 -4.8032e-08)
(0.000763025 1.3579e-07 8.30862e-08)
(0.00101579 -5.23045e-07 8.78455e-08)
(0.000760688 1.63656e-07 7.37517e-08)
(0.000761871 5.1026e-07 2.96223e-08)
(0.0010142 -3.09171e-07 6.10256e-08)
(0.000759877 6.56848e-07 1.08889e-07)
(0.000760608 -2.85538e-06 1.32849e-07)
(0.00101263 7.45153e-07 2.97573e-07)
(0.000758656 5.31197e-07 6.36725e-08)
(0.000758957 -3.33185e-06 3.06622e-08)
(0.00101131 1.0032e-06 2.67127e-07)
(0.000756999 1.93045e-07 5.04147e-08)
(0.000757432 3.73549e-07 7.13393e-08)
(0.00100935 3.79111e-07 1.62369e-07)
(0.00075547 1.37545e-07 5.36524e-08)
(0.000756078 4.96087e-07 5.95302e-08)
(0.00100708 1.03345e-07 1.37992e-07)
(0.00075416 2.22575e-07 3.13188e-08)
(0.000754728 4.28571e-08 5.60455e-08)
(0.00100519 2.35208e-07 1.81502e-07)
(0.000752666 3.55298e-07 5.58326e-08)
(0.000753371 8.87229e-08 3.34529e-08)
(0.00100344 3.47141e-07 1.89867e-07)
(0.000750782 3.63927e-07 6.39763e-08)
(0.000751794 -5.00598e-07 6.62688e-08)
(0.00100109 6.24794e-07 1.79916e-07)
(0.000749396 1.85182e-07 4.15215e-08)
(0.000750144 2.56303e-07 1.88088e-08)
(0.000998809 3.99832e-07 1.64467e-07)
(0.000748044 4.70804e-08 6.24051e-08)
(0.000748716 1.97743e-08 4.39126e-08)
(0.000997069 1.28521e-07 1.60707e-07)
(0.000746411 -6.99902e-08 7.32176e-08)
(0.000747221 1.93774e-07 5.2587e-08)
(0.000994995 -3.10167e-08 1.64496e-07)
(0.000745459 -4.06514e-07 7.999e-08)
(0.000745869 6.00738e-07 8.6702e-08)
(0.000993199 -2.2695e-07 2.02364e-07)
(0.000744857 -3.73159e-07 6.84106e-08)
(0.000745198 1.87209e-07 1.13978e-07)
(0.000992338 -8.88091e-07 2.47599e-07)
(0.000743362 5.47274e-08 5.52815e-08)
(0.000744144 -7.4961e-08 6.85072e-08)
(0.000990857 -1.21965e-07 1.67065e-07)
(0.000741413 2.71371e-07 6.7012e-08)
(0.000742431 -6.42988e-08 4.29273e-08)
(0.000988523 1.6486e-07 1.80138e-07)
(0.000739937 2.07933e-07 6.46944e-08)
(0.000740745 2.32352e-07 7.48129e-08)
(0.000986288 4.49511e-07 1.16157e-07)
(0.000738508 -6.21729e-08 5.69275e-08)
(0.000739188 2.62083e-07 6.66313e-08)
(0.000984319 5.76228e-08 1.61392e-07)
(0.000737533 -1.93048e-07 8.66869e-08)
(0.000737857 1.30993e-07 3.60081e-08)
(0.00098263 -2.50804e-07 2.08314e-07)
(0.000736985 -1.40187e-07 1.15515e-07)
(0.000981397 -2.82431e-07 2.30375e-07)
(0.0391972 -0.00843625 0.000228983)
(0.0145686 0.00419293 0.000244528)
(0.0141907 -0.00903896 -0.00198961)
(0.00790389 -0.00451729 0.000525359)
(0.0140398 -0.019015 0.000883031)
(0.0194603 0.0155694 0.00187905)
(0.0155393 0.00751278 0.0011428)
(-0.00266812 0.00198579 -0.000582594)
(-0.012614 0.0130988 -0.000889585)
(-0.00541924 -0.00706154 0.00077248)
(-0.000897373 -0.00846523 -0.000586063)
(0.00516499 -0.000761245 9.8393e-05)
(-0.000682779 0.00312106 -0.00107975)
(0.0359489 -0.00365623 -0.00383988)
(0.00677965 0.00337089 -0.000939224)
(0.00775977 -0.0024482 -0.0029324)
(0.0315493 0.00381355 -0.000963874)
(-0.0062839 1.01937e-05 0.000897771)
(-0.00153145 0.00837078 -0.00154707)
(0.0108083 -0.00165528 0.00474266)
(0.00359585 0.0110807 -0.0019424)
(-0.00259159 0.0152687 0.000693193)
(-0.0241944 0.0115537 0.00281766)
(-0.000463191 0.0206594 0.00110756)
(0.00177349 0.0203273 0.000427912)
(-0.00580333 -0.00257097 -0.000246475)
(-0.00819297 0.000567369 -0.000146418)
(-0.0124498 -0.00956599 0.000284684)
(-0.00690466 -0.00199697 0.000317474)
(0.0112938 -0.00545515 -0.00346426)
(-0.0187901 -0.00425807 2.47417e-05)
(-0.0238716 -0.00526227 -0.000409303)
(0.00800022 -0.00583505 -0.000624688)
(0.00882717 0.00246221 0.00022146)
(0.0113219 0.0037526 2.25427e-05)
(0.00796423 0.000529924 0.000250009)
(0.00749507 -0.000640694 0.000173535)
(0.0206031 0.00519051 0.000492139)
(0.000212159 -0.000166756 1.94792e-05)
(0.000164398 -0.00010529 2.30668e-06)
(0.000208955 -0.000103745 8.06484e-06)
(0.000286095 -0.000157612 6.81182e-06)
(0.000130212 -8.49623e-05 2.80597e-07)
(0.000678042 -0.000207295 -9.19067e-07)
(0.000779553 -0.00029347 -1.70718e-06)
(0.00091829 -0.000329077 -6.70222e-07)
(0.000417828 -0.000208445 -3.81811e-06)
(0.00045325 -0.000234214 -3.83114e-06)
(0.000701857 -0.000350862 -4.0788e-06)
(0.000773481 -0.000406426 -3.62561e-06)
(0.000721881 -0.000126692 -1.39827e-07)
(0.000759006 -0.000176036 -3.7513e-07)
(0.000936804 -0.000200449 1.38135e-07)
(0.000748198 -7.78228e-05 1.31167e-07)
(0.000774691 -0.000108884 1.64643e-07)
(0.000989581 -0.000122879 1.9244e-07)
(0.000763824 -4.79919e-05 7.25232e-08)
(0.000779046 -6.71748e-05 5.37462e-08)
(0.00101228 -7.56369e-05 1.75557e-07)
(0.000772947 -2.97119e-05 6.45252e-08)
(0.00078259 -4.16668e-05 5.85551e-08)
(0.00102718 -4.67355e-05 1.77668e-07)
(0.000778067 -1.84587e-05 5.67416e-08)
(0.000784187 -2.59323e-05 5.36167e-08)
(0.00103537 -2.90083e-05 1.75735e-07)
(0.000780577 -1.1475e-05 5.42205e-08)
(0.000784709 -1.61189e-05 5.26745e-08)
(0.0010397 -1.80474e-05 1.75428e-07)
(0.000781544 -7.08618e-06 -4.25229e-08)
(0.000784394 -9.981e-06 4.9921e-08)
(0.00104146 -1.12119e-05 1.73272e-07)
(0.000781617 -4.41113e-06 -4.10356e-08)
(0.000783655 -6.17927e-06 -4.56471e-08)
(0.00104186 -6.87889e-06 1.85441e-07)
(0.000781147 -2.79733e-06 7.49842e-08)
(0.000782644 -3.91346e-06 5.07395e-08)
(0.00104134 -4.40777e-06 1.76239e-07)
(0.000780474 -1.8701e-06 1.24628e-07)
(0.000781392 -4.25966e-06 4.38017e-08)
(0.00104053 -2.78494e-06 2.22467e-07)
(0.000779007 -1.23938e-06 1.06483e-07)
(0.000780139 -8.40394e-07 1.12856e-07)
(0.00103904 -2.06561e-06 3.33473e-07)
(0.000777855 -7.79825e-07 5.21209e-08)
(0.000778788 -1.07808e-06 4.28654e-08)
(0.0010372 -1.16863e-06 1.68184e-07)
(0.000776355 -5.51926e-07 4.55141e-08)
(0.000777307 -7.93053e-08 5.72901e-08)
(0.00103536 -8.78369e-07 1.57536e-07)
(0.000775258 -3.85266e-07 5.75682e-08)
(0.000775938 -6.60012e-07 4.7222e-08)
(0.00103363 -5.72325e-07 1.68075e-07)
(0.00077367 -3.38393e-07 -2.58578e-08)
(0.000774451 -7.97054e-07 3.63653e-08)
(0.00103179 -4.41476e-07 2.48315e-07)
(0.000772492 -4.68202e-07 1.41912e-09)
(0.000772939 2.13576e-08 -2.46207e-08)
(0.00102993 -4.24639e-07 1.52708e-07)
(0.000770349 -4.44829e-07 7.38218e-08)
(0.000771513 -1.25376e-06 5.61423e-08)
(0.00102769 -7.72025e-07 3.20916e-07)
(0.000769049 -2.35937e-07 3.1751e-08)
(0.000770039 1.46723e-08 7.7661e-08)
(0.00102527 -3.75625e-07 1.46486e-07)
(0.00076766 -1.54179e-07 4.79516e-08)
(0.000768607 -3.2372e-08 5.17632e-08)
(0.00102357 -2.16248e-07 1.70044e-07)
(0.000766226 -1.42925e-07 3.48293e-08)
(0.000767107 -1.05939e-07 5.44023e-08)
(0.00102142 -1.56963e-07 1.76287e-07)
(0.000764994 2.18749e-08 1.9857e-08)
(0.000765906 2.71447e-07 1.94496e-08)
(0.00101974 -2.03932e-07 1.03844e-07)
(0.000764292 3.12611e-07 1.4882e-07)
(0.000764747 7.99856e-07 3.27892e-08)
(0.00101864 3.05228e-07 8.13953e-08)
(0.000762713 5.01474e-07 1.60757e-07)
(0.000763259 3.6669e-07 1.56692e-07)
(0.00101685 6.34395e-07 1.66593e-07)
(0.000761876 6.07288e-07 8.86875e-08)
(0.000762001 5.84555e-07 5.79341e-08)
(0.00101542 7.85033e-07 1.11924e-07)
(0.000759768 5.73112e-07 5.46546e-08)
(0.000760563 -5.91111e-08 9.80373e-08)
(0.00101354 8.14448e-07 3.12159e-08)
(0.000757631 3.5317e-07 3.83163e-08)
(0.000758681 -1.58114e-07 1.3516e-08)
(0.00101035 6.47677e-07 6.51709e-09)
(0.000756519 1.67773e-07 8.04585e-08)
(0.0007572 -4.44328e-09 7.83771e-08)
(0.00100822 2.33401e-07 1.67894e-07)
(0.000755318 1.15063e-07 6.19244e-08)
(0.000756012 -1.34868e-07 1.28744e-07)
(0.00100683 1.55921e-07 1.93888e-07)
(0.000753979 4.78516e-08 5.81867e-08)
(0.000754644 3.29672e-08 9.90844e-08)
(0.00100505 1.194e-07 1.6174e-07)
(0.000752547 -3.80118e-08 4.3879e-08)
(0.000753264 -1.76732e-07 4.90076e-08)
(0.00100316 3.0611e-09 1.88329e-07)
(0.000751098 -6.78709e-08 2.11159e-08)
(0.000751757 -2.04757e-07 2.37965e-08)
(0.00100127 -1.01844e-07 1.49512e-07)
(0.000749415 2.73297e-08 2.11922e-08)
(0.000750263 1.43321e-06 -1.585e-09)
(0.000999079 -7.78507e-08 1.07208e-07)
(0.000748024 1.6252e-07 3.40918e-08)
(0.000748885 1.50578e-08 4.18376e-08)
(0.000996941 1.29177e-07 1.65912e-07)
(0.000746574 4.00964e-07 6.60609e-08)
(0.000747517 1.16397e-07 4.71864e-08)
(0.000995013 2.7302e-07 1.7651e-07)
(0.000745259 6.36935e-07 1.20681e-07)
(0.000746162 3.85874e-07 1.33042e-07)
(0.000993293 8.05191e-07 1.74393e-07)
(0.000744948 5.10533e-07 1.14088e-07)
(0.000745037 -1.23e-06 2.6283e-08)
(0.000992294 8.98963e-07 1.70894e-07)
(0.000743258 2.33015e-07 5.61609e-08)
(0.000743795 2.05995e-07 3.2181e-08)
(0.000990837 4.74717e-07 1.7287e-07)
(0.000741657 1.89543e-07 5.07185e-08)
(0.000742376 4.58026e-07 4.43439e-08)
(0.000988694 2.1577e-07 1.47522e-07)
(0.000739949 3.40348e-07 7.67523e-08)
(0.000740932 -7.49649e-09 7.20481e-08)
(0.000986475 3.45929e-07 2.13077e-07)
(0.000738488 3.53425e-07 4.57212e-08)
(0.000739203 4.37295e-07 6.42438e-08)
(0.000984235 5.58349e-07 1.60548e-07)
(0.000737169 2.13545e-07 6.48125e-08)
(0.00073768 2.27136e-07 2.79213e-08)
(0.000982324 3.42545e-07 1.53777e-07)
(0.000736718 -1.20512e-06 1.32664e-07)
(0.000981188 1.93389e-07 1.99725e-07)
(0.00162027 -0.00699075 6.97485e-05)
(0.00442031 -0.00841554 0.000444892)
(0.00643643 -0.00622933 -0.000850768)
(0.00457502 -0.00134894 -0.000153469)
(0.00698249 -0.0178817 -0.000738288)
(0.00349236 -0.00145246 -0.000129458)
(0.00954148 0.00139083 -0.000275667)
(0.0031817 -0.00254448 -1.29687e-05)
(-0.00557393 0.000774369 0.000430059)
(0.00149252 0.0022147 -0.000539456)
(-0.00710785 -0.00495718 8.87745e-05)
(-0.0077242 0.00555691 0.000141992)
(-0.00684677 -0.00574375 0.000369771)
(-0.00231012 -0.000962209 0.00156277)
(-0.0118923 -0.00581514 0.000951561)
(0.0374531 0.0165916 0.000252356)
(-0.0120244 -0.00208356 -0.000267475)
(0.00173549 0.000983695 -0.0014498)
(0.0285396 0.0282669 0.00118781)
(-0.0247166 -0.00645476 0.0327106)
(-0.0311818 -0.00237353 -0.0110648)
(-0.0343812 -0.0131572 -0.0522708)
(-0.023205 -0.0163154 0.02236)
(0.00972221 0.00702138 0.000902524)
(-0.0279731 -0.0106704 0.00362285)
(-0.0252573 -0.000586573 0.00347406)
(-0.028158 -0.00802351 0.00229409)
(-0.0338428 -0.00399101 0.000654628)
(0.00068791 -0.00246546 -0.000269604)
(-0.00458369 -0.00850217 0.000546762)
(0.00538413 -0.00795579 6.10299e-05)
(-0.00494505 -0.0186639 -0.000236043)
(-0.00802145 -0.0153741 0.000251037)
(-0.0014318 0.0115889 -0.000394557)
(0.00753076 0.0132748 -0.00026464)
(0.0109288 0.0078921 0.00025143)
(0.00731185 0.00590683 0.000136844)
(0.0254862 0.0139249 9.74771e-05)
(0.0013524 -0.000198032 1.24851e-05)
(0.000439814 -0.000273708 4.1418e-05)
(0.000476156 -0.000318587 4.7726e-05)
(0.000607953 -0.000412574 8.75668e-05)
(0.000349863 -0.000219848 2.46125e-05)
(0.000840715 -0.000224882 -1.16368e-06)
(0.000925714 -0.000242836 -2.90163e-06)
(0.00118003 -0.000355282 -1.53328e-06)
(0.000593659 -0.000251951 -4.63708e-06)
(0.000674878 -0.000213986 -4.60568e-06)
(0.00100562 -0.000431108 -3.30054e-06)
(0.00117567 -0.00034428 -1.96344e-06)
(0.000818064 -0.000137465 -7.08359e-08)
(0.000868856 -0.000148607 -1.16177e-07)
(0.00109941 -0.000212207 1.03817e-07)
(0.000805873 -8.62852e-05 8.72588e-08)
(0.000839008 -9.5575e-05 6.45275e-08)
(0.00108384 -0.000133701 1.74907e-07)
(0.00079889 -5.38068e-05 3.97765e-08)
(0.000819858 -6.03351e-05 3.03503e-08)
(0.00106959 -8.32584e-05 1.70946e-07)
(0.000794381 -3.36725e-05 4.76482e-08)
(0.000807891 -3.79812e-05 2.82391e-07)
(0.00106203 -5.18933e-05 1.74578e-07)
(0.000791258 -2.10726e-05 4.95499e-08)
(0.00080002 -2.3992e-05 8.45794e-08)
(0.00105672 -3.26423e-05 1.75202e-07)
(0.00078878 -1.30298e-05 4.83759e-08)
(0.000794814 -1.4986e-05 4.93337e-08)
(0.00105289 -2.02596e-05 1.74838e-07)
(0.000786655 -8.00426e-06 4.68277e-08)
(0.000790708 -9.28964e-06 3.83316e-08)
(0.0010497 -1.24196e-05 1.74742e-07)
(0.000784772 -4.97189e-06 4.60969e-08)
(0.000787464 -5.755e-06 2.96252e-08)
(0.00104695 -7.62299e-06 1.72844e-07)
(0.000783015 -3.09561e-06 1.95592e-08)
(0.000785001 -3.6415e-06 4.60034e-08)
(0.00104454 -4.8147e-06 1.73104e-07)
(0.000781011 -1.99073e-06 3.20073e-08)
(0.00078278 -2.37262e-06 1.69608e-08)
(0.00104185 -2.91664e-06 8.35303e-08)
(0.000780017 -1.36707e-06 4.92615e-08)
(0.000780923 -1.59999e-06 5.32719e-08)
(0.00103991 -2.06045e-06 1.80037e-07)
(0.000778199 -9.49805e-07 4.803e-08)
(0.000779313 -7.39951e-07 5.8471e-08)
(0.00103809 -1.39073e-06 1.7622e-07)
(0.000776881 -6.91404e-07 5.90012e-08)
(0.000777633 -5.74342e-07 6.65006e-08)
(0.00103592 -1.03411e-06 1.91429e-07)
(0.000775193 -5.79442e-07 2.60226e-08)
(0.00077608 -4.10484e-07 1.36698e-07)
(0.00103394 -7.46374e-07 1.72518e-07)
(0.000773638 -4.71926e-07 3.76218e-08)
(0.000774588 4.25223e-07 4.25006e-08)
(0.00103175 -7.64659e-07 9.37576e-08)
(0.000772026 -4.16379e-07 3.00768e-08)
(0.00077301 -5.48248e-09 8.6704e-08)
(0.0010295 -4.72813e-07 1.86115e-07)
(0.000771154 -2.8334e-07 5.99746e-08)
(0.00077168 2.05877e-07 7.78098e-08)
(0.00102789 -6.14521e-07 1.78672e-08)
(0.000769584 2.68698e-08 9.76814e-08)
(0.000770428 1.56806e-07 9.83437e-08)
(0.00102632 -1.30993e-07 1.71457e-07)
(0.000768091 2.75893e-07 5.82131e-08)
(0.000768917 -7.23089e-09 6.48069e-08)
(0.0010241 2.05919e-07 1.73008e-07)
(0.000766713 5.77096e-07 3.90336e-08)
(0.000767481 5.65721e-07 4.26053e-08)
(0.00102215 5.57606e-07 1.17815e-07)
(0.000765681 6.97032e-07 3.23775e-08)
(0.000766052 9.25996e-07 2.33096e-08)
(0.00102065 1.0834e-06 8.84895e-08)
(0.000763743 4.79642e-07 4.06228e-08)
(0.000764471 3.8278e-07 2.69428e-08)
(0.00101867 9.05199e-07 2.43964e-07)
(0.000762462 3.35785e-07 5.38999e-08)
(0.000763076 2.55001e-07 4.75078e-08)
(0.00101639 5.10425e-07 1.64423e-07)
(0.000760875 7.99729e-08 6.72713e-08)
(0.000761679 -4.72594e-08 4.10734e-08)
(0.00101442 5.58334e-07 2.28341e-07)
(0.000759467 -2.30324e-07 5.69251e-08)
(0.000760174 -3.50643e-07 6.76961e-08)
(0.00101245 -1.95231e-07 1.88273e-07)
(0.000758052 -1.19841e-07 5.35565e-08)
(0.000758819 -1.31825e-07 4.87941e-08)
(0.00101058 -3.2128e-07 1.6621e-07)
(0.000756774 4.1716e-08 1.26647e-07)
(0.000757401 -1.99778e-07 5.78537e-08)
(0.00100873 5.64673e-08 1.69802e-07)
(0.000755303 4.04399e-08 1.65913e-07)
(0.00075601 -2.36106e-08 1.19984e-07)
(0.00100693 7.42606e-08 1.64924e-07)
(0.000753969 -9.72958e-09 8.99209e-08)
(0.000754581 5.00125e-08 -5.76751e-09)
(0.001005 1.6689e-08 1.59371e-07)
(0.000752484 -1.23297e-07 2.89329e-08)
(0.000753122 1.84305e-07 5.48352e-08)
(0.00100316 -7.57537e-08 1.48212e-07)
(0.000750848 -2.17404e-07 1.10345e-09)
(0.000751641 -2.02258e-07 3.0406e-08)
(0.00100099 -3.09481e-07 1.87332e-07)
(0.000749796 -1.27299e-07 1.9047e-08)
(0.000750376 -1.71683e-07 1.52081e-08)
(0.000999098 -3.4306e-07 2.50503e-07)
(0.000748401 4.53566e-08 5.49304e-08)
(0.000749101 -1.20949e-07 5.93588e-08)
(0.000997507 -3.61057e-08 1.75772e-07)
(0.000747068 2.13356e-07 1.14141e-07)
(0.000747726 -5.11011e-07 2.35532e-07)
(0.000995837 1.90035e-07 2.05719e-07)
(0.000745781 4.65664e-07 3.86767e-08)
(0.000746475 4.49675e-07 9.42557e-08)
(0.000993976 4.62651e-07 1.51777e-07)
(0.000744079 3.89292e-07 -5.5626e-08)
(0.00074494 -1.14487e-06 -1.51886e-08)
(0.000991918 8.09203e-07 1.88014e-07)
(0.000742872 1.08601e-07 2.03603e-08)
(0.000743443 1.48161e-07 1.60566e-08)
(0.000989997 2.13206e-07 1.5355e-07)
(0.00074168 6.0427e-08 6.5665e-08)
(0.000742315 1.05394e-08 5.36174e-08)
(0.000988358 7.67337e-08 1.80869e-07)
(0.000740275 1.93611e-07 5.9542e-08)
(0.000741098 9.56496e-07 4.20881e-08)
(0.000986712 6.66362e-08 9.77262e-08)
(0.000738237 2.72789e-07 4.64549e-08)
(0.000739301 1.36266e-06 1.27996e-08)
(0.000984311 3.87059e-07 1.58496e-07)
(0.000737132 2.5201e-07 9.57414e-08)
(0.000737651 -3.92477e-08 5.24028e-08)
(0.000982168 2.95301e-07 1.60683e-07)
(0.000736405 -1.36381e-06 9.54305e-08)
(0.000980728 3.66108e-07 1.87945e-07)
(-0.00120216 0.00404212 0.00055674)
(-0.0141247 -0.00705872 0.000861281)
(-0.00753657 -0.00617571 0.00101564)
(0.000253485 -0.00401959 0.00187884)
(-0.0492031 -0.00554779 -0.00538784)
(0.00613834 -0.0408735 -0.00603998)
(-0.0140727 0.0203786 -0.00455078)
(0.00592537 -0.00583441 -0.0138847)
(0.068067 -0.0304334 -0.00263573)
(0.000119255 -0.0351909 0.00197234)
(-0.0019688 -0.015464 0.00209209)
(0.023006 -0.0606577 -0.00278001)
(0.00604296 -0.0331603 0.00426557)
(-0.0147014 -0.0409992 -0.000824127)
(-0.0489608 -0.0129368 -0.00333559)
(-0.00772244 -0.0490115 -0.00106535)
(0.0473926 -0.0111558 -0.00240565)
(0.0105666 0.00257919 -0.00541584)
(-0.0208929 -0.00211389 -0.0115393)
(-0.0388157 -0.00689758 0.00285796)
(-0.0255184 0.00150775 -0.00393653)
(-0.00662317 0.00599315 0.00362661)
(-0.017219 -0.0134267 0.00346239)
(-0.0737749 -0.002747 0.0634392)
(-0.0445697 -0.0124933 0.0682363)
(-0.0642989 -0.0221265 -0.0975629)
(-0.0687148 -0.00310875 -0.0348027)
(0.0237359 0.00391372 -0.000917509)
(0.0254634 0.018666 -0.0055804)
(0.0377812 0.0129418 -0.000267243)
(0.0232685 0.0247079 0.000489756)
(0.0429421 0.0262198 -0.00243656)
(0.00103477 -0.000280012 7.08745e-05)
(0.000968605 -0.00016176 2.5941e-05)
(0.00110599 -0.000166507 1.03624e-05)
(0.0012381 -0.000142157 -6.31436e-06)
(0.00111361 -0.000111052 1.74283e-05)
(0.000943423 -0.00014914 -1.85504e-06)
(0.000989679 -0.000112664 -3.74565e-06)
(0.00128477 -0.0002257 -2.30078e-06)
(0.000725164 -0.000151522 -2.99539e-06)
(0.000746217 -0.000134263 -2.60369e-06)
(0.00128133 -0.000250936 1.90518e-06)
(0.00132635 -0.000215891 1.96146e-06)
(0.000887109 -9.61878e-05 1.91274e-08)
(0.000935126 -8.04296e-05 -2.43777e-08)
(0.00121513 -0.000143136 1.99871e-07)
(0.000850574 -6.23773e-05 7.63018e-09)
(0.000881479 -5.18581e-05 1.1818e-10)
(0.0011516 -9.40442e-05 1.7858e-07)
(0.000827848 -3.96526e-05 2.72883e-07)
(0.000848398 -3.39573e-05 4.97343e-08)
(0.00111505 -5.97224e-05 1.8242e-07)
(0.000812662 -2.49853e-05 3.19387e-07)
(0.000826309 -2.08771e-05 3.03358e-07)
(0.00109077 -3.79726e-05 1.70964e-07)
(0.000803237 -1.56369e-05 8.43746e-08)
(0.000811758 -1.50616e-05 8.21435e-08)
(0.00107511 -2.35517e-05 2.36843e-07)
(0.000796529 -9.94964e-06 3.92929e-08)
(0.000801956 -8.56037e-06 3.93833e-08)
(0.0010651 -1.49264e-05 1.7561e-07)
(0.000791337 -6.35328e-06 2.11319e-08)
(0.000795225 -4.45181e-06 4.88577e-08)
(0.00105733 -9.58709e-06 1.54271e-07)
(0.00078752 -3.99527e-06 2.95265e-08)
(0.000790426 -2.61252e-06 4.07377e-08)
(0.00105142 -6.08483e-06 1.52856e-07)
(0.000784824 -2.52053e-06 4.34143e-08)
(0.000786853 -2.16375e-06 4.00964e-08)
(0.00104725 -3.76834e-06 1.71543e-07)
(0.00078247 -1.53987e-06 3.82136e-08)
(0.000784011 -1.12967e-06 5.66833e-08)
(0.00104399 -2.44344e-06 1.58731e-07)
(0.000780346 -9.78085e-07 6.24797e-08)
(0.000781628 -6.72863e-07 3.58093e-08)