/*--------------------------------*- C++ -*----------------------------------*\
| =========                 |                                                 |
| \\      /  F ield         | OpenFOAM: The Open Source CFD Toolbox           |
|  \\    /   O peration     | Version:  5.0                                   |
|   \\  /    A nd           | Web:      www.OpenFOAM.org                      |
|    \\/     M anipulation  |                                                 |
\*---------------------------------------------------------------------------*/
FoamFile
{
    version     2.0;
    format      ascii;
    class       surfaceVectorField;
    location    "0.7";
    object      Uf_0;
}
// * * * * * * * * * * * * * * * * * * * * * * * * * * * * * * * * * * * * * //

dimensions      [0 1 -1 0 0 0 0];

internalField   nonuniform List<vector> 
28708
(
(-0.00130821 0.00206705 0.000114808)
(-0.0053615 0.000187839 -0.000700476)
(-0.0156483 0.00668575 0.00122151)
(-0.0332199 -0.0202651 -0.000794257)
(0.0184281 -0.00595437 -0.00201138)
(-0.00601584 0.0220716 -0.00407875)
(-0.00914659 0.00533886 -0.000530597)
(-0.00638271 -0.0134128 -0.00060929)
(-0.000826335 -0.0122059 -0.00157112)
(0.0368654 -0.0258752 -0.00211871)
(-0.0103913 -0.00649984 -0.000949118)
(-0.0173391 -0.01149 0.00073299)
(-0.0135513 -0.00702365 0.000430214)
(-0.0373996 -0.0311148 0.00322477)
(0.00476109 -0.0226969 0.000926323)
(-0.00402632 0.00336328 0.00162638)
(0.058689 -0.00750101 -0.00408596)
(0.0108079 -0.0082905 -0.00792779)
(0.00718037 0.0125998 -0.000212596)
(0.00688173 0.0236201 -0.000390526)
(0.00263586 0.0176827 -0.000373969)
(0.0100827 0.0157379 -1.83337e-05)
(0.00223845 0.0152024 -0.000272436)
(0.0127714 0.0109811 0.000334705)
(0.000345405 0.00562548 -0.000799508)
(0.000973838 -0.000731954 8.6249e-05)
(0.00161275 -0.000248611 2.29803e-05)
(0.0015424 -0.000194603 4.06302e-05)
(0.00178903 -0.000851034 -7.37033e-05)
(0.000307731 -2.50446e-05 -2.07477e-06)
(0.000427404 -2.86264e-05 -2.43399e-06)
(0.000441052 -1.95118e-05 -5.63787e-07)
(0.000740055 -5.00936e-05 -6.1126e-07)
(0.000313923 -1.80822e-05 -1.69343e-06)
(0.000558815 -4.89013e-05 -2.9101e-06)
(0.000583742 -3.04966e-05 -1.53336e-06)
(0.000734267 -3.7434e-05 -1.1744e-06)
(0.000750479 -5.29879e-05 -1.81725e-06)
(0.00100019 -5.38822e-05 -1.28028e-06)
(0.000525216 -3.13853e-05 -3.6531e-06)
(0.000525286 -2.50427e-05 -3.66505e-06)
(0.000887468 -5.09211e-05 -3.97657e-06)
(0.000887463 -3.75869e-05 -3.98436e-06)
(0.000749608 -2.66436e-05 -8.32415e-08)
(0.000742277 -4.25079e-05 -1.69946e-07)
(0.000983427 -3.97847e-05 9.02647e-08)
(0.000761337 -1.79338e-05 7.81211e-08)
(0.000762938 -2.99232e-05 1.07736e-07)
(0.00100893 -2.7188e-05 1.85189e-07)
(0.000769272 -1.18324e-05 7.85539e-08)
(0.000770537 -2.03436e-05 7.22011e-08)
(0.00102033 -1.79718e-05 1.69566e-07)
(0.000774687 -7.72141e-06 4.13114e-08)
(0.00077597 -1.32863e-05 7.10794e-08)
(0.00102915 -1.18744e-05 1.72075e-07)
(0.000777838 -4.80973e-06 2.92575e-08)
(0.000778903 -8.60515e-06 3.33058e-08)
(0.00103488 -7.63458e-06 1.90018e-07)
(0.000778546 -2.9237e-06 5.08562e-08)
(0.000779913 -5.64118e-06 5.16873e-08)
(0.00103723 -4.49087e-06 1.62354e-07)
(0.000778548 -1.85035e-06 5.89753e-08)
(0.000779719 -3.56935e-06 5.19119e-08)
(0.00103742 -2.84918e-06 1.80437e-07)
(0.000778096 -1.19994e-06 6.22434e-08)
(0.000779088 -2.2462e-06 5.36216e-08)
(0.00103715 -1.80565e-06 1.80237e-07)
(0.000777191 -7.7874e-07 6.64464e-08)
(0.000778086 -1.5108e-06 5.34871e-08)
(0.00103622 -1.21226e-06 1.83578e-07)
(0.000775931 -6.33887e-07 5.39619e-08)
(0.000776685 -9.57356e-07 7.03054e-08)
(0.00103489 -7.22115e-07 1.7181e-07)
(0.000773683 -5.82393e-07 9.46508e-08)
(0.000774936 1.47149e-06 9.69789e-08)
(0.00103242 -8.28979e-07 1.14925e-07)
(0.000772336 -4.37542e-07 1.03607e-07)
(0.000773319 -7.13049e-07 9.33168e-08)
(0.00103006 -6.25601e-07 1.72773e-07)
(0.000771041 -2.77779e-07 5.75868e-08)
(0.000771841 -3.40845e-07 4.9293e-08)
(0.0010285 -4.6288e-07 1.80465e-07)
(0.000769196 -1.30545e-07 6.12803e-08)
(0.000770159 -1.50198e-07 6.98942e-08)
(0.00102633 -1.6317e-07 1.71156e-07)
(0.000767428 -2.86939e-08 5.29545e-08)
(0.000768378 -3.91735e-07 4.55817e-08)
(0.0010239 -7.5915e-08 1.9432e-07)
(0.000765776 8.8169e-08 3.01255e-08)
(0.000766673 -2.58153e-07 4.30082e-08)
(0.0010217 8.48987e-08 1.88334e-07)
(0.000763924 1.65135e-07 4.13011e-08)
(0.000764904 5.18881e-08 3.52662e-08)
(0.00101943 2.40501e-07 1.74489e-07)
(0.000762352 1.35854e-07 6.15901e-08)
(0.00076312 2.49411e-07 7.5364e-08)
(0.00101716 3.11777e-07 1.72899e-07)
(0.0007607 8.86248e-08 5.22537e-08)
(0.000761461 7.91416e-08 3.91228e-08)
(0.00101501 1.33142e-07 1.68736e-07)
(0.00075907 2.36149e-07 5.6159e-08)
(0.000760014 -5.41087e-08 5.00083e-08)
(0.00101303 1.26598e-07 1.79513e-07)
(0.000756861 8.96335e-08 6.50797e-08)
(0.00075786 -2.48665e-07 2.80492e-08)
(0.00101037 4.72883e-07 2.66986e-07)
(0.000755259 -4.15801e-07 4.024e-09)
(0.000755669 -4.40103e-07 6.96582e-08)
(0.00100778 -2.8257e-07 1.81258e-07)
(0.000753289 -5.77743e-07 -5.0663e-08)
(0.000754296 2.46938e-06 4.57773e-08)
(0.00100558 -8.65441e-07 -1.51087e-08)
(0.000751762 -3.18331e-07 -5.35434e-08)
(0.000752868 1.03533e-06 -1.7871e-09)
(0.00100308 -6.98332e-07 1.71622e-07)
(0.000750584 -6.33157e-08 -1.24623e-09)
(0.00075136 -7.9679e-07 4.33113e-08)
(0.00100131 -1.85108e-07 1.47783e-07)
(0.000749212 6.68153e-08 5.43432e-08)
(0.000749933 3.49226e-07 7.99212e-08)
(0.000999839 -1.92565e-08 1.34703e-07)
(0.000747348 1.41498e-07 5.24947e-08)
(0.000748223 1.42155e-07 4.43432e-08)
(0.000997702 2.05224e-07 1.67332e-07)
(0.000745568 2.19853e-08 5.50092e-08)
(0.000746341 8.87439e-08 5.83844e-08)
(0.000995227 2.04377e-07 2.05556e-07)
(0.000743533 9.42697e-09 3.69e-08)
(0.000744639 -1.09134e-07 5.59911e-08)
(0.000992668 -9.29045e-08 1.92755e-07)
(0.000742107 2.40745e-07 9.14592e-09)
(0.000743005 1.12342e-07 4.01631e-08)
(0.000990262 1.8713e-07 1.56342e-07)
(0.00074052 4.09527e-07 2.90881e-08)
(0.000741436 2.04191e-07 5.84749e-09)
(0.000988372 5.42227e-07 1.83213e-07)
(0.000739674 3.08523e-07 4.53581e-08)
(0.000739994 -9.94136e-07 3.63689e-08)
(0.000986933 5.98683e-07 1.86947e-07)
(0.000737837 1.18522e-07 5.20742e-08)
(0.000738543 5.94934e-08 4.0453e-08)
(0.000985029 2.17183e-07 1.66416e-07)
(0.000736353 -7.08047e-08 8.40077e-08)
(0.000736885 -1.50501e-09 6.80259e-08)
(0.000982682 8.38652e-08 1.7661e-07)
(0.000734989 -2.26207e-07 1.66436e-07)
(0.000735514 -3.86333e-07 5.40865e-08)
(0.000981098 -3.28673e-07 1.74081e-07)
(0.000733519 -1.79915e-07 1.4005e-07)
(0.000734209 -3.91287e-07 1.68427e-07)
(0.00097906 -3.33329e-07 1.69987e-07)
(0.000731932 -1.028e-07 3.62425e-08)
(0.000732727 1.47515e-07 4.4687e-08)
(0.000976955 -1.80701e-07 1.65084e-07)
(0.000730356 -1.57536e-07 4.89163e-08)
(0.000731182 -1.16903e-07 4.57979e-08)
(0.000974898 -1.39644e-07 1.59257e-07)
(0.000729098 -3.72725e-07 5.11594e-08)
(0.000729743 -1.38533e-07 7.26337e-08)
(0.000972959 -2.83895e-07 1.76157e-07)
(0.000727671 -4.52468e-07 3.55369e-08)
(0.000728466 -3.55322e-07 4.5886e-08)
(0.000971374 -6.53325e-07 1.60741e-07)
(0.000726175 -3.17114e-07 4.79247e-08)
(0.000726906 -2.52122e-07 -2.47173e-08)
(0.000969294 -5.15756e-07 1.4971e-07)
(0.00072558 -4.71643e-07 4.1894e-08)
(0.000967106 -3.41851e-07 2.57965e-07)
(-0.0156177 0.0099701 0.00250485)
(-0.0484021 -0.0197672 -0.00178007)
(-0.0518341 -0.0239641 0.00683282)
(-0.0108586 -0.0317471 0.00161633)
(-0.00873834 0.00117462 -0.000229151)
(0.000931157 -0.00732489 0.00171896)
(-0.0635228 -0.0366067 -0.00126982)
(-0.00793177 -0.011016 0.00718722)
(-0.0129892 -0.0258427 0.00133929)
(0.00838848 -0.024139 -0.00413637)
(-0.0279211 -0.00869893 -0.00412299)
(0.0351838 0.00582429 -0.00485733)
(0.0323907 0.0176874 -0.00456159)
(-0.00903552 -0.00991346 -0.00291575)
(-0.00420368 -0.0446268 -0.00178747)
(-0.0212752 -0.0565192 0.00109888)
(-0.0138439 -0.00920613 0.000461586)
(0.0229386 0.0028532 -0.00866164)
(0.0327048 0.0156951 -0.0565602)
(0.0135899 0.0140017 0.0415103)
(-0.00922482 -0.0164963 -0.00561029)
(0.00102365 -0.0153923 -0.00464341)
(-0.000672976 -0.0273716 0.000195126)
(-0.0159738 0.00588153 -0.000364689)
(-0.000190657 0.00176666 0.000936302)
(-0.0058917 0.00396241 0.000434724)
(-0.00306072 0.000803416 0.000597749)
(-0.00632168 0.00280513 0.000818572)
(0.000415391 -0.00125178 0.000172202)
(-0.000923491 -0.00303946 -0.000557843)
(-0.00276967 -0.0066599 -0.000334687)
(0.000234454 0.00121964 -0.000323761)
(-0.00910737 -0.00107527 0.000135406)
(0.00034997 0.00022595 8.14615e-05)
(0.00221182 5.04739e-05 -0.000295701)
(-0.000550791 0.000155669 5.43551e-05)
(0.00159403 -0.00125147 9.37571e-05)
(-0.00181517 -6.20925e-05 0.000331903)
(0.000250629 9.85174e-06 6.87662e-07)
(0.000411566 -7.89811e-07 -7.64468e-07)
(0.000401014 -7.38025e-06 -2.61858e-06)
(0.000381122 -2.05318e-05 3.30452e-07)
(0.000645396 1.07093e-05 9.67277e-08)
(0.000287869 3.05478e-05 1.5827e-07)
(0.000444796 2.46451e-05 7.44615e-06)
(0.000561209 8.20523e-05 1.08352e-06)
(0.000738809 -6.7409e-05 -8.13334e-07)
(0.00078341 -0.000106609 -1.48723e-06)
(0.000997934 -0.000100865 -1.10561e-06)
(0.000518994 -3.97647e-05 -3.39798e-06)
(0.000502097 -6.16815e-05 -3.621e-06)
(0.000874497 -5.79224e-05 -3.66677e-06)
(0.000833728 -0.000110359 -3.76233e-06)
(0.000761026 -4.82323e-05 2.09409e-08)
(0.000766758 -7.17296e-05 -1.4981e-07)
(0.000994229 -7.48152e-05 1.27763e-07)
(0.000772236 -3.23368e-05 1.01828e-07)
(0.00078296 -4.63314e-05 1.57253e-07)
(0.00102403 -5.03733e-05 1.93993e-07)
(0.000777963 -2.1159e-05 6.47269e-08)
(0.000784608 -2.96906e-05 6.17346e-08)
(0.00103295 -3.32977e-05 1.79278e-07)
(0.000780577 -1.35635e-05 6.3086e-08)
(0.000785528 -1.87893e-05 6.59886e-08)
(0.00103858 -2.13327e-05 1.8155e-07)
(0.000781408 -8.77208e-06 5.57297e-08)
(0.000784933 -1.18828e-05 5.66201e-08)
(0.00104069 -1.36235e-05 1.80838e-07)
(0.00078118 -5.69426e-06 5.2743e-08)
(0.000783786 -7.60231e-06 5.37754e-08)
(0.00104103 -8.98255e-06 1.80204e-07)
(0.000780384 -3.65733e-06 4.65576e-08)
(0.000782282 -4.82841e-06 5.33018e-08)
(0.00104032 -5.70382e-06 1.8012e-07)
(0.000779125 -2.39908e-06 4.48653e-08)
(0.000780672 -2.78269e-06 5.01223e-08)
(0.00103896 -3.72988e-06 1.69956e-07)
(0.000777744 -1.69156e-06 5.73407e-08)
(0.000778978 -2.00924e-06 5.34667e-08)
(0.00103727 -2.4554e-06 1.77834e-07)
(0.000775645 -1.27925e-06 1.13314e-07)
(0.000777206 -4.22054e-07 6.74871e-08)
(0.00103497 -1.89798e-06 1.68339e-07)
(0.000774581 -8.29058e-07 9.5646e-08)
(0.000775503 -1.75496e-06 9.88588e-09)
(0.00103284 -1.3783e-06 3.39107e-07)
(0.000772752 -4.39686e-07 3.90168e-08)
(0.000773808 -7.11371e-07 3.62064e-08)
(0.00103097 -7.13723e-07 1.82065e-07)
(0.000771053 -3.09844e-07 6.15937e-08)
(0.000772004 -2.19321e-07 1.06625e-07)
(0.00102869 -3.63554e-07 1.62433e-07)
(0.000769329 -2.07484e-07 5.42033e-08)
(0.000770287 -2.36203e-07 6.32349e-08)
(0.0010264 -3.86455e-07 1.79241e-07)
(0.000767643 -1.00689e-07 3.56362e-08)
(0.000768511 -1.09069e-08 6.41435e-08)
(0.00102414 -7.98033e-08 1.43433e-07)
(0.000765779 -6.97212e-08 4.81514e-08)
(0.000766711 -4.32632e-08 4.6425e-08)
(0.00102192 -7.35814e-08 1.70725e-07)
(0.000764066 -7.15372e-08 6.93164e-08)
(0.000764901 -2.61768e-07 4.67222e-08)
(0.00101955 2.37603e-08 1.94835e-07)
(0.000762224 -1.30039e-07 5.29081e-08)
(0.000763046 -4.28456e-07 9.10532e-08)
(0.00101709 -9.42711e-08 2.31853e-07)
(0.000760709 -2.33015e-07 3.6874e-08)
(0.000761333 -1.84361e-09 5.16282e-08)
(0.00101487 -1.72461e-07 1.61762e-07)
(0.000759212 -6.63448e-07 2.19055e-08)
(0.000759478 -3.72573e-07 5.8376e-08)
(0.00101307 -4.06986e-07 1.77321e-07)
(0.000756262 -8.00005e-07 3.26147e-08)
(0.000757693 3.26495e-06 -5.20263e-08)
(0.00101008 -1.3586e-06 3.57476e-08)
(0.0007547 -5.88429e-07 1.11419e-07)
(0.000755937 -4.27517e-07 5.27159e-08)
(0.00100692 -7.87035e-07 1.6058e-07)
(0.000753833 -4.02915e-07 9.46681e-08)
(0.00075453 -1.11875e-07 1.21653e-07)
(0.0010055 -7.73458e-07 2.83314e-07)
(0.000752601 6.52241e-08 9.50534e-08)
(0.000753454 -2.10911e-07 4.59209e-08)
(0.00100418 -2.91664e-07 2.21917e-07)
(0.000750623 3.43354e-07 1.24467e-07)
(0.000751707 2.2647e-07 1.14922e-07)
(0.00100197 4.99439e-07 1.27739e-07)
(0.000749109 1.20501e-07 6.99322e-08)
(0.000749653 2.38033e-07 7.97076e-08)
(0.000999771 5.14453e-07 1.67874e-07)
(0.000747071 -1.22275e-07 5.02285e-08)
(0.000747918 6.8723e-07 7.60685e-08)
(0.000997428 -8.43899e-08 1.68683e-07)
(0.00074546 -1.02702e-07 5.93671e-08)
(0.000746365 -3.93709e-07 4.48706e-08)
(0.000994908 -1.57786e-07 2.04565e-07)
(0.000744043 1.67256e-08 5.92591e-08)
(0.000744787 -1.76519e-07 7.69301e-08)
(0.000992939 -4.87928e-08 1.58651e-07)
(0.000742369 2.00652e-07 3.68753e-08)
(0.000743234 7.66528e-08 5.17963e-08)
(0.00099102 1.67252e-07 1.80246e-07)
(0.000740797 3.66908e-07 1.31189e-08)
(0.000741642 3.75693e-07 3.10216e-08)
(0.00098876 4.70614e-07 1.57205e-07)
(0.000738943 2.48004e-07 3.14626e-08)
(0.000739844 -6.4524e-07 2.78479e-08)
(0.000986375 5.88905e-07 1.70871e-07)
(0.00073764 -1.21438e-07 5.63962e-08)
(0.00073808 -1.53587e-07 5.84225e-08)
(0.000984391 1.00032e-07 1.62778e-07)
(0.000735938 -4.59632e-07 3.8109e-08)
(0.000736463 4.85713e-07 2.1498e-08)
(0.000982334 -3.89315e-07 1.49281e-07)
(0.000734736 -4.99575e-07 5.60424e-08)
(0.000735466 -8.80101e-07 2.98299e-08)
(0.000980372 -7.77421e-07 1.76248e-07)
(0.000733437 -2.73854e-07 7.31015e-08)
(0.000734493 -1.05741e-07 8.74091e-08)
(0.00097895 -5.70876e-07 1.29722e-07)
(0.000732037 -1.87903e-07 5.42421e-08)
(0.000732837 3.60472e-08 6.26033e-08)
(0.000977073 -2.31903e-07 1.68869e-07)
(0.000730448 -1.01818e-07 6.95072e-08)
(0.00073129 4.90159e-08 5.44693e-08)
(0.000975045 -3.05955e-07 1.67168e-07)
(0.000729139 -5.25707e-08 6.73684e-08)
(0.000729805 -1.4303e-06 1.19408e-07)
(0.000973158 5.07588e-08 2.49233e-07)
(0.000727785 -1.786e-07 -1.43468e-08)
(0.000728308 -4.19619e-07 4.86481e-08)
(0.000971331 -1.42421e-07 1.65005e-07)
(0.000726114 -2.32778e-07 -3.07682e-08)
(0.000726841 2.30896e-07 -1.20462e-08)
(0.000969245 -3.15053e-07 1.55372e-07)
(0.00072587 1.66843e-07 4.16424e-08)
(0.000967872 -3.06269e-07 6.65279e-08)
(0.0363701 -0.00707309 0.000677921)
(0.0050652 -0.00197894 0.000277178)
(0.00781723 -0.0121474 -0.000362015)
(-0.0064471 -0.0159709 -3.15906e-05)
(-0.00245575 -0.032068 -0.000474508)
(0.00591337 0.00730762 0.000453355)
(0.00592158 0.00192504 0.000634175)
(-0.0160234 -0.00193137 0.000533873)
(-0.0127758 0.0114823 -0.000577099)
(-0.0253615 -0.000298569 3.87533e-05)
(-0.00420541 -0.0120294 0.000254008)
(-0.00433268 -0.00340367 0.00172616)
(-0.000587806 0.00111972 -0.000409231)
(0.0226879 -0.00272655 0.000203764)
(0.00601727 -0.00336228 -0.000930383)
(0.0103591 -0.00439306 -0.00136282)
(0.0318875 0.00102708 -0.000229095)
(-0.00482991 -0.00202554 -0.000704805)
(0.0131444 0.00786302 -0.00353066)
(0.00384336 -0.00269115 0.00216024)
(0.00459486 0.0109841 0.000628979)
(0.0102758 0.0144698 0.00059322)
(-0.0419029 0.0143847 0.00269861)
(0.00574704 0.0252444 -0.000510507)
(0.00612054 0.0138901 0.000410656)
(-0.006555 -0.00240745 -0.000288372)
(-0.00854233 -0.00152798 -9.4388e-05)
(-0.0128959 -0.00811971 0.000107561)
(-0.00905057 -0.0013495 0.000540066)
(0.00771794 -0.00504054 -0.00175705)
(-0.0186097 -0.00432007 -0.000230142)
(-0.0226399 -0.00424099 -0.000963981)
(-0.0112004 -0.00499137 0.000231707)
(0.00955171 0.00203618 0.000195525)
(0.0116946 0.00145692 4.60298e-05)
(0.00925279 0.000362899 0.000221606)
(0.00807984 -0.000748567 0.000103163)
(0.0225614 0.00429878 0.000393668)
(0.000301686 -0.000129781 2.11689e-05)
(0.000297015 -6.75115e-05 2.44129e-06)
(0.000299539 -6.54541e-05 8.31661e-06)
(0.000439277 -0.00011415 7.21751e-06)
(0.000214523 -5.40908e-05 1.53359e-08)
(0.000790566 -0.000109092 -8.24145e-07)
(0.00087039 -0.000139504 -1.78566e-06)
(0.00108984 -0.000178531 -1.174e-06)
(0.000551612 -0.00010823 -4.24129e-06)
(0.0005665 -0.000123183 -4.30497e-06)
(0.000923534 -0.00019344 -4.50698e-06)
(0.000957488 -0.000224705 -4.19568e-06)
(0.000795585 -6.66186e-05 -1.35985e-08)
(0.00082019 -7.94957e-05 -2.09514e-07)
(0.00104793 -0.000107901 1.34211e-07)
(0.000795046 -4.10221e-05 1.17191e-07)
(0.000815182 -4.82088e-05 2.8244e-07)
(0.00106121 -6.62568e-05 2.07371e-07)
(0.000792698 -2.53018e-05 6.29949e-08)
(0.000804396 -2.89685e-05 4.54634e-08)
(0.00105687 -4.07254e-05 1.82625e-07)
(0.000789975 -1.56974e-05 5.95257e-08)
(0.000797617 -1.76495e-05 5.06864e-08)
(0.0010539 -2.51579e-05 1.84435e-07)
(0.00078739 -9.80368e-06 5.46668e-08)
(0.000792351 -1.09067e-05 5.08149e-08)
(0.00105042 -1.56745e-05 1.8225e-07)
(0.000784902 -6.15868e-06 5.43344e-08)
(0.000788374 -6.75575e-06 5.16449e-08)
(0.00104719 -9.80987e-06 1.81478e-07)
(0.000782581 -3.92651e-06 5.68675e-08)
(0.000785092 -4.1937e-06 5.10816e-08)
(0.00104403 -6.18741e-06 1.80868e-07)
(0.000780525 -2.56577e-06 5.87226e-08)
(0.000782385 -2.62322e-06 5.48885e-08)
(0.00104124 -3.99963e-06 1.90452e-07)
(0.000778487 -1.77561e-06 6.36086e-08)
(0.000779974 -1.74313e-06 5.38056e-08)
(0.00103853 -2.64903e-06 1.81696e-07)
(0.000776914 -1.27242e-06 -3.59223e-08)
(0.000777841 -1.3282e-06 6.85925e-08)
(0.00103625 -1.94039e-06 2.22551e-07)
(0.00077486 -8.50576e-07 -4.95622e-08)
(0.000776034 7.16554e-08 -4.78126e-08)
(0.00103391 -1.38263e-06 7.53134e-08)
(0.00077301 -5.75469e-07 1.03792e-07)
(0.000774155 -5.87986e-07 3.61448e-08)
(0.00103133 -8.68904e-07 1.75532e-07)
(0.000771211 -4.05007e-07 1.0828e-07)
(0.000772219 -6.79333e-07 6.96711e-08)
(0.00102891 -6.51988e-07 2.11513e-07)
(0.000769534 -2.99563e-07 7.31748e-08)
(0.000770421 -3.89975e-07 5.17824e-08)
(0.00102668 -4.22083e-07 1.79878e-07)
(0.000767549 -2.5811e-07 7.49379e-08)
(0.000768564 2.30076e-07 6.97873e-08)
(0.00102429 -3.52967e-07 1.79306e-07)
(0.000765803 -2.63474e-07 4.49956e-08)
(0.000766706 -2.08184e-07 5.95336e-08)
(0.00102182 -2.94169e-07 1.86922e-07)
(0.00076388 -2.35398e-07 6.84449e-08)
(0.000764937 8.8667e-07 1.27133e-07)
(0.0010194 -4.04655e-07 1.10846e-07)
(0.000762145 -1.7904e-07 8.97858e-08)
(0.000763118 -2.69443e-07 5.73876e-08)
(0.00101691 -2.43573e-07 1.639e-07)
(0.000760208 -1.97682e-07 7.31281e-08)
(0.00076131 -3.44753e-09 7.06167e-08)
(0.00101462 -2.12672e-07 1.93191e-07)
(0.000757847 -2.99657e-07 -1.5521e-08)
(0.000759351 -1.56785e-07 7.43383e-08)
(0.00101155 -2.55844e-07 2.15672e-07)
(0.000757459 -4.25533e-08 -3.19581e-08)
(0.000758014 -1.22099e-06 -5.20103e-08)
(0.0010099 -4.64016e-07 3.73695e-07)
(0.000755429 5.12502e-07 6.29284e-08)
(0.000756629 -8.46116e-07 3.59345e-08)
(0.00100852 4.17141e-07 2.32498e-07)
(0.000754316 6.28617e-07 7.29298e-08)
(0.000754673 -1.15976e-06 5.61428e-08)
(0.0010062 9.74027e-07 1.96558e-07)
(0.000752781 3.53935e-07 6.57679e-08)
(0.000753108 -1.6328e-06 -2.14157e-08)
(0.00100467 7.1928e-07 2.61251e-07)
(0.000750626 1.43576e-07 7.01735e-08)
(0.000751442 2.70179e-07 6.42642e-08)
(0.00100232 2.79226e-07 2.13017e-07)
(0.000748389 1.68009e-09 8.5845e-08)
(0.000749475 1.21944e-07 5.62429e-08)
(0.000999105 1.76406e-07 2.32547e-07)
(0.000747195 -7.6155e-08 7.07203e-08)
(0.000747821 1.74587e-07 5.42289e-08)
(0.000996859 -1.19376e-07 1.68789e-07)
(0.000745728 -2.95944e-08 6.24237e-08)
(0.000746423 -4.41642e-08 3.99278e-08)
(0.000995271 -6.35293e-08 1.3234e-07)
(0.000743948 -3.35174e-08 6.94751e-08)
(0.000744783 2.36352e-08 7.06772e-08)
(0.000993073 -3.71497e-09 1.71992e-07)
(0.000742465 -1.35859e-08 4.59491e-08)
(0.000743259 -7.58398e-08 4.85755e-08)
(0.000990908 -6.6508e-08 1.71537e-07)
(0.00074083 -1.39859e-08 4.57516e-08)
(0.000741642 5.46873e-07 1.86999e-08)
(0.000988895 1.76042e-08 1.62861e-07)
(0.000738895 -7.01298e-08 5.47984e-08)
(0.000739774 -2.68792e-07 1.79067e-08)
(0.000986465 -7.74184e-08 1.76198e-07)
(0.000736898 -7.0826e-08 2.35357e-08)
(0.000738079 4.86572e-07 5.11287e-08)
(0.000983804 -9.83894e-08 1.63779e-07)
(0.000735646 2.12894e-07 1.32164e-08)
(0.000736817 4.27782e-07 4.5367e-09)
(0.000981588 -4.15548e-08 1.4796e-07)
(0.00073563 3.44083e-07 6.11789e-08)
(0.000735629 -2.45897e-06 4.00999e-08)
(0.000980877 6.80484e-07 1.47573e-07)
(0.000733834 1.33229e-07 7.69185e-08)
(0.000734227 2.06426e-07 4.78045e-08)
(0.000979747 3.42978e-07 1.72872e-07)
(0.00073206 8.20351e-08 6.28329e-08)
(0.000732771 3.63886e-07 5.9513e-08)
(0.000977292 1.55028e-07 1.70887e-07)
(0.000730579 1.70047e-07 1.0435e-07)
(0.000731398 4.36468e-08 4.89132e-08)
(0.000975253 1.88273e-07 1.69863e-07)
(0.00072898 1.83708e-07 1.00709e-07)
(0.00072982 1.45447e-07 1.16544e-07)
(0.000973165 3.36163e-07 6.6659e-08)
(0.00072742 9.21644e-08 5.09671e-08)
(0.000728193 -9.48246e-08 3.03475e-08)
(0.000970917 2.06774e-07 1.55395e-07)
(0.000726317 6.64135e-08 6.0348e-08)
(0.000726807 -2.3948e-07 4.76386e-08)
(0.000969097 9.2002e-08 1.7316e-07)
(0.000725787 1.55332e-07 5.83591e-08)
(0.00096788 1.04572e-07 1.49896e-07)
(0.000579379 -0.00362232 0.000340004)
(0.00343733 -0.0088441 0.000561896)
(0.00667302 -0.00648498 -0.000683147)
(0.0055327 -0.00417265 -0.000253991)
(0.00876579 -0.0194301 -0.0010987)
(0.00316062 -0.00229689 -0.00010772)
(0.00335892 0.000475749 -8.77324e-05)
(0.00406108 -0.00397476 -0.00015941)
(-0.00721527 -0.000997152 0.000396423)
(0.000654539 0.00119508 -0.000371669)
(-0.00730047 -0.00122793 0.000316341)
(-0.00308021 0.00763832 -0.000317965)
(0.00173623 -0.00806344 0.000535563)
(-0.00139257 0.0011936 0.0012896)
(-0.0147662 -0.00376438 0.00125813)
(0.0182721 0.0389239 -0.00337019)
(-0.0260064 -0.00163914 -0.00102725)
(-0.0144606 7.86048e-05 -0.00498087)
(0.012748 0.0457894 0.00015238)
(-0.0292636 -0.00752991 0.0073569)
(-0.0344345 -0.00812711 -0.0273679)
(-0.0460475 -0.0160348 -0.0275144)
(-0.0420602 -0.0160699 0.0475353)
(0.0012573 0.0102448 -0.000678661)
(-0.0271781 -0.0451122 0.000516015)
(-0.0320322 -0.000917881 -0.000896433)
(-0.0307835 -0.00778351 -0.000489717)
(-0.0179356 -0.00111833 -0.00141237)
(-0.000842478 -0.00861733 0.000345795)
(-0.00387441 -0.0137418 0.000615645)
(0.00236354 -0.010671 -1.23037e-08)
(-0.00232278 -0.0255416 -0.000323679)
(-0.00921938 -0.0228204 0.000613082)
(0.000250981 0.01282 -0.00028751)
(0.00992558 0.0182243 -0.000328838)
(0.0117172 0.00894618 0.00032389)
(0.00940272 0.00652103 0.000119788)
(0.0285378 0.0166498 0.000274315)
(0.00144085 3.26873e-06 1.44605e-05)
(0.000507544 -0.00019076 4.39469e-05)
(0.000513437 -0.000211135 4.91022e-05)
(0.000687273 -0.00024794 8.94359e-05)
(0.000396555 -0.000138761 2.51826e-05)
(0.000876682 -8.92861e-05 -1.17155e-06)
(0.000929541 -8.4326e-05 -2.83683e-06)
(0.00122936 -0.00015109 -1.61398e-06)
(0.000641375 -0.000113536 -4.9013e-06)
(0.000687395 -7.96346e-05 -4.75702e-06)
(0.00108692 -0.000203267 -3.57242e-06)
(0.00118877 -0.000119504 -2.112e-06)
(0.000844467 -4.95714e-05 8.63629e-08)
(0.000870101 -4.03568e-05 -6.41809e-08)
(0.00113542 -7.96467e-05 1.13489e-07)
(0.000822956 -2.9991e-05 2.10789e-07)
(0.000839822 -2.34456e-05 1.93309e-07)
(0.00110859 -4.88228e-05 1.79942e-07)
(0.000808982 -1.80066e-05 3.31532e-08)
(0.00081948 -1.36727e-05 -1.17184e-08)
(0.00108468 -2.92394e-05 1.80558e-07)
(0.000799514 -1.10521e-05 4.19756e-08)
(0.000806374 -7.90078e-06 3.01422e-08)
(0.00107012 -1.7757e-05 1.72602e-07)
(0.00079309 -6.85024e-06 4.77927e-08)
(0.000797643 -5.12106e-06 1.5922e-07)
(0.00106001 -1.11518e-05 1.81846e-07)
(0.000788374 -4.13706e-06 4.83923e-08)
(0.00079179 -3.10697e-06 4.88693e-08)
(0.00105298 -6.79761e-06 1.80681e-07)
(0.000784759 -2.472e-06 4.91014e-08)
(0.000787188 -1.95052e-06 1.6071e-08)
(0.00104764 -4.0362e-06 1.81662e-07)
(0.000781799 -1.5245e-06 4.99718e-08)
(0.000783578 -1.19598e-06 3.21133e-08)
(0.00104341 -2.41831e-06 1.81271e-07)
(0.000779174 -9.32511e-07 5.87847e-08)
(0.000780719 -7.29674e-07 4.91089e-08)
(0.00103987 -1.55768e-06 1.80973e-07)
(0.000776947 -6.10394e-07 5.67396e-08)
(0.000778247 -4.0597e-07 5.65025e-08)
(0.00103657 -8.70535e-07 1.52764e-07)
(0.000775393 -4.79169e-07 3.78674e-08)
(0.000776201 -3.18122e-07 4.64931e-08)
(0.00103419 -7.20593e-07 1.85437e-07)
(0.000773303 -3.92386e-07 2.01325e-09)
(0.000774265 -2.23805e-07 6.1014e-08)
(0.00103189 -5.59711e-07 1.79547e-07)
(0.000771418 -3.40211e-07 1.31793e-08)
(0.000772286 -2.78727e-07 2.1403e-08)
(0.00102925 -5.14828e-07 1.59326e-07)
(0.000769466 -3.26147e-07 4.83892e-08)
(0.00077044 -1.83844e-07 3.98054e-08)
(0.00102678 -4.18559e-07 1.78712e-07)
(0.000767664 -2.57894e-07 5.43862e-08)
(0.000768651 -2.1492e-07 1.37857e-07)
(0.00102431 -4.80693e-07 2.11174e-07)
(0.00076588 -1.69512e-07 1.4165e-07)
(0.000766818 3.0839e-08 8.21698e-08)
(0.00102186 -2.48819e-07 1.62062e-07)
(0.000764161 -7.72167e-08 1.16098e-07)
(0.000765053 -6.74526e-08 1.57015e-07)
(0.00101962 -2.63523e-07 2.40085e-07)
(0.00076226 7.95355e-08 3.82144e-08)
(0.000763314 4.1685e-07 4.61833e-08)
(0.00101733 -2.16354e-09 1.41456e-07)
(0.00076057 2.26215e-07 7.18258e-08)
(0.000761492 -5.18762e-08 6.64917e-08)
(0.00101485 1.94537e-07 1.74885e-07)
(0.000759116 6.68074e-07 3.78889e-08)
(0.000759901 -4.44313e-07 4.56309e-08)
(0.00101276 4.4938e-07 1.71323e-07)
(0.00075761 8.68324e-07 1.58545e-08)
(0.00075826 -1.8947e-06 2.31421e-09)
(0.00101093 1.40277e-06 2.0366e-07)
(0.000755693 7.65402e-07 2.91425e-08)
(0.000756497 7.28862e-08 3.24861e-08)
(0.00100871 9.85069e-07 1.28034e-07)
(0.00075346 7.99545e-07 -3.81784e-08)
(0.000754711 -1.83379e-07 3.48151e-08)
(0.00100587 1.09673e-06 1.52475e-07)
(0.000751823 4.612e-07 -2.29463e-08)
(0.000752682 -1.66711e-07 -1.49609e-08)
(0.0010033 1.0505e-06 6.5505e-08)
(0.00075032 5.69145e-08 5.03361e-08)
(0.000750935 -2.95471e-08 1.97137e-07)
(0.00100129 2.08643e-07 1.79481e-07)
(0.000748735 8.82669e-08 2.46274e-08)
(0.000749514 9.21453e-08 5.12464e-08)
(0.000999271 -4.67445e-08 1.68486e-07)
(0.000747133 1.51042e-07 2.34408e-08)
(0.000747899 1.49629e-07 2.41306e-08)
(0.000997127 2.60256e-07 1.70318e-07)
(0.000745498 3.93445e-08 4.81717e-08)
(0.000746283 -1.06175e-08 4.69587e-08)
(0.000995053 1.20807e-07 1.69951e-07)
(0.000743979 -5.29035e-08 4.97844e-08)
(0.000744667 -1.11136e-07 4.83662e-08)
(0.000992935 -2.76167e-08 1.72593e-07)
(0.000742572 -2.62188e-07 2.13356e-08)
(0.000742998 -1.96193e-07 6.38454e-08)
(0.000991048 -1.26196e-07 1.62425e-07)
(0.000740596 -4.0341e-07 -9.14467e-09)
(0.000741467 2.4032e-06 5.38428e-08)
(0.000988746 -5.79529e-07 7.2483e-08)
(0.000738895 -2.61446e-07 1.42268e-08)
(0.000739952 1.05559e-06 -7.23795e-08)
(0.000986231 -5.0972e-07 8.69045e-08)
(0.00073781 2.84317e-08 3.2144e-08)
(0.000738442 7.13605e-08 4.48826e-08)
(0.000984436 -1.89191e-07 1.57781e-07)
(0.000736925 3.71138e-07 3.14093e-08)
(0.000737244 2.42409e-07 1.00057e-07)
(0.000983305 2.9624e-07 1.24112e-07)
(0.000734251 3.90844e-07 2.67231e-08)
(0.000735651 -1.25237e-06 5.13852e-08)
(0.000980848 7.20951e-07 1.86387e-07)
(0.000733133 7.03626e-08 3.03954e-08)
(0.000733825 3.4674e-07 -4.42817e-09)
(0.000978287 3.81712e-07 1.23838e-07)
(0.00073209 -8.0811e-08 4.55966e-08)
(0.000732581 -2.52243e-08 1.20831e-07)
(0.000976874 -8.4054e-08 1.56671e-07)
(0.000730772 -6.49681e-08 6.1086e-08)
(0.000731418 -3.10507e-09 4.6112e-08)
(0.000975268 -4.70734e-08 1.57975e-07)
(0.00072883 -1.64972e-08 4.62083e-08)
(0.000729881 -4.47155e-07 2.02044e-08)
(0.000973177 -1.01494e-07 2.55902e-07)
(0.000727686 1.33747e-07 2.70138e-08)
(0.00072838 -3.18417e-07 -1.31391e-07)
(0.000971023 5.44938e-08 1.57532e-07)
(0.000726071 2.15349e-07 4.56464e-08)
(0.000726907 1.07639e-07 1.88617e-08)
(0.000969112 2.91294e-07 1.6012e-07)
(0.000725519 3.02295e-07 6.85793e-08)
(0.000967626 2.80246e-07 1.24543e-07)
(-0.00132715 0.00554345 0.00061502)
(-0.0135574 -0.00824186 0.00122411)
(-0.0101804 -0.00625964 0.00127603)
(0.000105523 -0.00408124 0.00193736)
(-0.0270257 -0.00567447 -0.00280507)
(-0.00125117 -0.0295749 -0.00352582)
(-0.0172462 0.0130723 -0.00338422)
(-0.00589999 -0.000782729 -0.00830089)
(0.0382558 -0.0281986 -0.0015328)
(0.0154328 -0.0169061 0.000716704)
(0.0137079 -0.0140472 0.00217923)
(0.00512043 -0.054201 -0.00409892)
(0.0228869 -0.0216257 0.00484435)
(-0.0103326 -0.0418283 -0.000246501)
(-0.0354689 -0.0171433 0.00052003)
(-0.0355689 -0.0505934 0.00458397)
(-0.03993 -0.00133346 -0.00479603)
(-0.022545 -0.0155913 -0.00175021)
(-0.0444055 -0.019383 -0.00197566)
(-0.0294355 -0.00924134 0.00137105)
(-0.0612594 -0.000634652 0.00149362)
(-0.0290869 0.01361 -0.000795757)
(-0.0201889 -0.0138905 0.00199423)
(-0.0748845 0.00867671 -0.00206387)
(-0.0265306 -0.0105983 0.00944162)
(-0.0850974 -0.0271649 0.00171608)
(-0.0919788 0.00907538 -0.00143348)
(0.027124 0.00105462 -4.78444e-05)
(0.0434685 0.0145453 0.00126921)
(0.0353958 0.00837731 0.000467308)
(0.0314034 0.0159721 0.00133863)
(0.0544213 0.017588 -0.000324313)
(0.000838133 -0.000204115 6.44461e-05)
(0.000891786 -6.75941e-05 2.23036e-05)
(0.00103144 -0.000121012 6.86702e-06)
(0.00112587 -5.25733e-05 -1.29297e-05)
(0.00103436 -6.48957e-05 1.47303e-05)
(0.00090905 -2.14928e-05 -1.73037e-06)
(0.000938298 2.53104e-05 -3.69943e-06)
(0.00123575 -3.9996e-05 -2.0399e-06)
(0.000696774 -4.208e-05 -2.88197e-06)
(0.000716253 -4.01779e-05 -2.60173e-06)
(0.00122098 -7.13927e-05 1.90416e-06)
(0.00125439 -7.45871e-05 1.83451e-06)
(0.000863058 -9.35793e-06 4.26806e-08)
(0.000885027 1.46794e-05 -2.09522e-08)
(0.00117645 -1.52054e-05 2.0424e-07)
(0.000833666 -5.38549e-06 -2.91319e-08)
(0.000844833 1.10845e-05 -8.35547e-08)
(0.00112465 -9.48739e-06 1.84185e-07)
(0.000815603 -3.02826e-06 -1.47429e-08)
(0.000822457 6.64947e-06 -1.44535e-08)
(0.00109598 -5.15244e-06 1.85431e-07)
(0.000803439 -1.73997e-06 1.47344e-07)
(0.000808004 4.84304e-06 3.0877e-08)
(0.00107668 -3.26898e-06 1.97706e-07)
(0.000795881 -9.68708e-07 1.60332e-07)
(0.000798619 2.30957e-06 1.75621e-07)
(0.00106423 -1.65087e-06 1.66212e-07)
(0.000790281 -6.92077e-07 1.65586e-08)
(0.000792144 1.63257e-06 4.54661e-08)
(0.00105615 -1.14098e-06 1.81956e-07)
(0.000785767 -4.84563e-07 -9.22257e-10)
(0.000787453 1.71928e-06 7.34774e-08)
(0.00104955 -8.81915e-07 1.61421e-07)
(0.000782381 -2.68567e-07 3.12449e-08)
(0.000783852 1.0265e-06 6.58273e-08)
(0.00104436 -5.5764e-07 1.63614e-07)
(0.000779652 -1.07232e-07 4.68243e-08)
(0.000780923 4.88252e-07 4.93851e-08)
(0.00104048 -2.71068e-07 1.7605e-07)
(0.000777396 3.64509e-08 4.62591e-08)
(0.000778427 3.33817e-07 6.08315e-08)
(0.0010373 -1.08989e-07 1.68072e-07)