/*--------------------------------*- C++ -*----------------------------------*\
| =========                 |                                                 |
| \\      /  F ield         | OpenFOAM: The Open Source CFD Toolbox           |
|  \\    /   O peration     | Version:  5.0                                   |
|   \\  /    A nd           | Web:      www.OpenFOAM.org                      |
|    \\/     M anipulation  |                                                 |
\*---------------------------------------------------------------------------*/
FoamFile
{
    version     2.0;
    format      ascii;
    class       volScalarField;
    location    "4.8";
    object      alpha.water;
}
// * * * * * * * * * * * * * * * * * * * * * * * * * * * * * * * * * * * * * //

dimensions      [0 0 0 0 0 0 0];

internalField   nonuniform List<scalar> 
9207
(
1.05975
0.992653
1.06263
1.01008
0.941172
1.01088
0.877894
-4.18685e-20
9.58245e-16
4.05615e-18
2.16244e-18
3.1939e-19
3.11984e-21
1.30101e-24
7.95103e-29
2.2074e-32
9.01349e-36
3.9589e-39
1.76201e-42
7.14521e-46
3.45862e-49
1.56156e-52
7.35171e-56
2.62012e-59
1.58361e-62
1.14388e-65
4.44728e-69
1.12311e-72
6.28378e-75
9.92075e-79
4.25601e-82
1.90274e-85
5.70096e-88
1.38723e-90
3.79409e-94
2.67161e-97
1.55011e-100
4.51119e-103
7.61991e-107
8.16196e-111
1.00393e-113
2.55922e-116
3.39938e-119
8.10801e-122
1.56779e-125
2.56853e-128
4.4014e-132
4.394e-136
8.32731e-138
4.33877e-141
1.0273
1.07962
1.13823
1.07821
1.04684
1.0436
1.00026
-4.36792e-18
-1.97508e-19
1.46308e-16
1.737e-17
1.50082e-19
1.17341e-22
5.10881e-26
1.19958e-29
3.24236e-33
1.3042e-36
5.89149e-40
2.89077e-43
1.10657e-46
5.12877e-50
2.36063e-53
2.24013e-56
8.73381e-60
2.61065e-63
5.17054e-66
2.28678e-69
4.50143e-73
3.69293e-75
5.01184e-79
2.77329e-82
4.60868e-85
7.18886e-89
1.23852e-91
3.11839e-95
4.73341e-98
2.23209e-101
1.1981e-105
5.04582e-107
4.7357e-110
5.22734e-114
5.07353e-117
8.04296e-121
1.20029e-124
3.1361e-127
6.42792e-130
3.48623e-133
7.42905e-137
2.33145e-140
3.98269e-142
1.03857
1.00764
1.03892
1.03172
1
1.0285
1.00107
-1.30873e-18
-2.02277e-19
-3.04366e-21
1.91446e-17
3.3727e-18
6.32171e-20
6.36338e-23
4.19478e-27
7.55484e-31
3.13413e-34
1.45058e-37
8.26669e-41
2.53922e-44
1.44796e-47
5.3678e-51
2.9935e-54
1.85113e-57
1.00975e-60
4.19655e-64
6.39356e-67
5.14939e-71
5.12803e-73
9.39752e-76
9.32836e-80
1.18349e-83
4.03669e-85
4.83328e-88
4.86663e-92
2.14118e-95
8.42754e-99
1.0232e-102
1.68604e-104
8.39777e-108
2.7893e-111
1.65741e-114
3.8587e-117
5.49524e-121
1.33737e-124
1.71569e-128
6.00302e-130
4.75138e-133
6.71013e-137
3.24331e-141
1.0531
1.03592
1.00416
0.985342
1.04231
0.965569
1.0006
0.297628
-4.19656e-19
4.51768e-18
4.07043e-22
1.00158e-18
7.0563e-20
2.44114e-22
4.10952e-26
3.83237e-30
1.30387e-33
6.27524e-37
2.40787e-40
1.00925e-43
4.7179e-47
1.87167e-50
1.73667e-53
9.427e-57
2.55093e-60
1.70949e-63
3.70198e-67
3.21348e-69
1.42781e-72
1.02226e-76
6.50246e-79
5.59866e-82
1.21871e-85
3.25066e-89
1.16107e-91
2.44645e-95
8.08121e-99
1.29954e-101
9.09901e-104
3.38248e-107
5.90527e-111
1.04434e-113
4.46187e-117
3.76623e-120
6.06261e-123
2.38649e-126
2.52235e-130
1.61801e-133
1.05456e-136
2.69885e-139
1.02673
1.02565
0.997002
0.992208
1.00525
1.00796
1.00223
0.937939
-1.59603e-17
4.64267e-15
4.33655e-17
4.64822e-18
5.81102e-19
5.0934e-21
1.6351e-24
1.00944e-28
2.77673e-32
1.17775e-35
5.10448e-39
2.54139e-42
9.21779e-46
6.96483e-49
1.90898e-52
9.04436e-56
4.40575e-59
2.46591e-62
1.56062e-65
1.56152e-68
3.63675e-71
2.2346e-74
2.39461e-77
1.81577e-81
1.50629e-83
3.10079e-87
2.92534e-91
2.32149e-94
1.87822e-96
6.38548e-100
3.81757e-104
7.20703e-106
2.01201e-109
5.34307e-113
1.45544e-115
1.64126e-118
3.07795e-122
1.34026e-125
1.10849e-127
5.22538e-131
4.3529e-134
1.00491e-137
1.04148
1.02614
1.01916
1.00836
0.999827
0.996263
1.00209
1
-3.01874e-18
3.82477e-15
3.6561e-17
3.6828e-18
4.54309e-19
3.92626e-21
1.24438e-24
7.24169e-29
2.12068e-32
1.5054e-35
5.16061e-39
5.14047e-42
1.22245e-45
4.6037e-49
1.57196e-52
2.19815e-55
1.33749e-58
4.3838e-61
1.43433e-64
1.5623e-68
1.29199e-70
2.17768e-73
2.50481e-76
1.34256e-79
7.2846e-84
3.76314e-87
1.08271e-89
2.66299e-93
8.24892e-97
2.58298e-99
3.08068e-103
5.59102e-106
8.99073e-109
1.24295e-111
7.04648e-115
2.1258e-118
5.59046e-122
7.03151e-125
6.34929e-129
1.36455e-132
1.43185e-135
1.53921e-139
1.05988
1.05218
0.970807
1.01323
1.03807
1.00204
1.00476
0.842425
-4.01157e-17
8.27181e-28
6.33462e-23
9.45293e-19
6.54424e-20
2.22415e-22
3.6663e-26
3.44398e-30
1.17051e-33
5.00419e-37
2.19459e-40
9.42773e-44
7.6498e-47
1.94239e-50
1.15536e-53
3.95166e-57
2.65873e-60
7.80416e-64
2.54135e-67
5.28455e-70
4.44281e-72
1.38236e-75
1.06648e-79
6.73246e-83
2.12473e-86
3.60701e-89
1.15397e-92
2.11607e-95
5.84038e-99
2.06201e-101
1.81463e-104
4.08787e-108
1.38205e-111
2.7045e-114
1.38979e-117
7.01165e-121
6.4038e-124
1.2045e-127
1.36633e-129
4.67809e-133
2.84865e-137
5.75464e-139
1.0493
1.05119
1.01698
0.985535
0.988898
1.00575
1.00183
0.111853
-1.18453e-18
1.41723e-22
1.8603e-17
3.19868e-18
5.86584e-20
5.94654e-23
4.08154e-27
7.3424e-31
2.9806e-34
1.29717e-37
7.84777e-41
4.38072e-44
1.18569e-47
1.19685e-50
4.38024e-54
8.76436e-58
3.34481e-61
2.13269e-63
2.70249e-66
2.56545e-70
3.33374e-74
1.19962e-75
3.14642e-79
1.55592e-82
1.33282e-85
1.65964e-89
1.31586e-92
5.81868e-95
7.50001e-99
1.00986e-101
7.00795e-105
1.23285e-107
6.56045e-112
2.81113e-114
1.73039e-117
8.31431e-121
5.39345e-124
2.34084e-128
6.23182e-132
2.40695e-135
9.51065e-139
6.71909e-142
1.05685
1.05872
0.990844
1.02401
1.01302
0.989541
1.00012
-1.79391e-16
-2.08368e-18
1.10013e-21
1.67385e-17
3.4016e-19
2.32697e-22
5.26602e-26
1.3335e-29
4.07681e-33
2.09962e-36
9.66751e-40
4.70438e-43
1.96597e-46
7.19931e-50
3.67338e-53
1.40077e-56
8.20324e-60
6.57447e-62
9.3366e-66
9.63002e-70
4.10506e-73
2.60055e-76
1.40744e-79
7.60475e-81
5.37494e-84
3.19914e-88
4.46361e-92
2.48533e-94
3.33462e-98
8.6254e-101
9.72869e-105
1.19931e-108
1.69107e-110
2.75299e-113
4.34502e-116
1.05862e-119
2.82412e-123
2.69836e-126
2.67247e-130
1.80054e-132
3.06074e-135
3.19475e-138
1.87493e-142
1.07457
1.15142
1.06031
0.998537
0.984942
1.0009
1
-2.33207e-18
3.52562e-15
3.01643e-17
1.84277e-18
3.22507e-19
5.25902e-21
3.71048e-24
2.1028e-28
4.73069e-32
1.92094e-35
8.16057e-39
3.47719e-42
1.5313e-45
6.32409e-49
2.65304e-52
1.11715e-55
4.7031e-59
2.08698e-62
9.29325e-66
7.44995e-69
1.80497e-72
3.00815e-75
1.22574e-78
9.1274e-82
1.21409e-84
4.77056e-88
3.64255e-91
5.47802e-95
6.48663e-98
1.59873e-100
3.01304e-104
1.40814e-106
3.39719e-110
4.06015e-114
1.0411e-117
1.77623e-119
9.90302e-123
2.07615e-126
4.19619e-129
1.99523e-132
1.19842e-135
6.33393e-139
2.46779e-142
1.08947
1.01564
1.00907
1.00716
0.92446
1.01176
0.874119
1.90303e-12
7.05822e-15
7.37613e-17
9.41696e-18
1.10889e-18
3.49707e-20
1.49172e-22
6.54766e-26
1.20111e-29
6.83574e-33
5.21423e-36
3.86813e-39
2.80641e-42
2.03144e-45
1.46908e-48
1.05968e-51
7.62962e-55
5.48019e-58
3.9262e-61
2.80884e-64
2.00511e-67
1.42732e-70
1.01397e-73
7.18367e-77
5.07668e-80
3.58216e-83
2.52259e-86
1.77335e-89
1.24404e-92
8.7011e-96
6.06777e-99
4.22465e-102
2.93761e-105
2.03808e-108
1.41112e-111
9.74615e-115
6.71553e-118
4.61857e-121
3.16787e-124
2.16833e-127
1.48208e-130
1.01056e-133
4.06476e-137
1.06984
1.03792
1.01303
1.07969
1.01437
1.00278
1.00043
8.78886e-11
6.96591e-15
8.86396e-15
1.94175e-15
5.69776e-17
1.17759e-19
2.1928e-23
5.08629e-27
3.1205e-30
2.25535e-33
1.57789e-36
1.10176e-39
7.63014e-43
5.3853e-46
3.74838e-49
2.83632e-52
2.0769e-55
1.30953e-58
9.05474e-62
6.36584e-65
4.45819e-68
3.07053e-71
2.14983e-74
1.47641e-77
1.01983e-80
7.27866e-84
5.13375e-87
3.36646e-90
2.30123e-93
1.57815e-96
1.08563e-99
7.38684e-103
5.02511e-106
3.42167e-109
2.32435e-112
1.58131e-115
1.06833e-118
7.20852e-122
4.86147e-125
3.32213e-128
2.207e-131
1.47607e-134
5.86381e-138
1.04973
1.04143
1.02402
1.0212
0.967923
1.02041
1.00139
2.09138e-07
4.55061e-14
3.93222e-16
3.56842e-16
1.0592e-16
6.30866e-18
3.66242e-20
1.408e-23
1.76076e-27
9.84961e-31
7.38842e-34
5.30113e-37
3.74405e-40
2.64255e-43
1.86258e-46
1.30972e-49
9.19255e-53
6.43434e-56
4.49347e-59
3.13405e-62
2.18009e-65
1.51296e-68
1.04942e-71
7.26387e-75
5.01763e-78
3.46162e-81
2.38124e-84
1.63245e-87
1.11815e-90
7.64552e-94
5.21499e-97
3.55149e-100
2.41236e-103
1.63455e-106
1.10572e-109
7.46644e-113
5.03384e-116
3.38924e-119
2.27702e-122
1.52585e-125
1.02053e-128
6.80952e-132
2.68921e-135
1.07669
1.03409
1.01524
0.979687
1.00845
0.966794
1.00094
0.307891
7.11004e-12
2.71662e-14
2.95131e-17
9.94756e-18
1.09318e-18
1.68367e-20
2.43043e-23
4.42336e-27
1.33165e-30
9.54579e-34
7.14978e-37
5.17339e-40
3.71385e-43
2.66229e-46
1.90363e-49
1.36162e-52
9.68724e-56
6.88318e-59
4.8822e-62
3.4603e-65
2.45298e-68
1.72201e-71
1.21014e-74
8.49044e-78
5.94039e-81
4.14785e-84
2.89429e-87
2.01148e-90
1.39623e-93
9.67245e-97
6.67843e-100
4.60332e-103
3.16824e-106
2.18111e-109
1.4945e-112
1.02298e-115
6.96035e-119
4.73642e-122
3.21623e-125
2.18058e-128
1.47481e-131
5.89629e-135
1.0226
1.02517
0.989928
0.992263
1.00256
1.00636
1.00237
0.93124
2.21346e-12
3.07521e-14
5.82368e-16
9.7198e-17
1.91978e-17
6.15942e-19
1.68346e-21
3.91826e-25
7.74342e-29
5.08977e-32
3.81213e-35
2.75003e-38
1.96213e-41
1.39841e-44
9.94483e-48
7.06301e-51
5.00402e-54
3.5368e-57
2.49602e-60
1.75781e-63
1.23454e-66
8.65426e-70
6.05447e-73
4.22443e-76
2.94415e-79
2.04621e-82
1.41894e-85
9.82582e-89
6.78788e-92
4.67669e-95
3.21668e-98
2.20925e-101
1.51441e-104
1.0363e-107
7.07324e-111
4.8157e-114
3.27342e-117
2.22084e-120
1.50299e-123
1.01553e-126
6.84784e-130
2.72781e-133
1.04375
1.05259
0.990695
1.00854
0.988329
0.993484
1.00208
0.985017
2.00421e-12
2.59449e-14
5.84297e-16
1.84889e-16
4.37417e-17
1.49691e-18
4.17922e-21
9.91781e-25
1.9079e-28
1.23738e-31
9.26856e-35
6.6864e-38
4.76458e-41
3.39237e-44
2.41104e-47
1.71032e-50
1.2105e-53
8.5461e-57
6.02693e-60
4.241e-63
2.977e-66
2.08581e-69
1.45701e-72
1.01505e-75
7.06813e-79
4.91131e-82
3.40273e-85
2.35371e-88
1.62452e-91
1.11879e-94
7.6936e-98
5.27877e-101
3.61416e-104
2.4706e-107
1.68493e-110
1.14605e-113
7.78158e-117
5.27149e-120
3.56242e-123
2.40528e-126
1.62179e-129
6.46116e-133
1.07469
1.06703
0.852956
1.02542
1.03325
1.00923
1.00549
0.839101
1.97232e-12
2.49554e-14
2.50459e-17
7.19734e-18
7.37256e-19
1.07941e-20
1.52181e-23
2.78743e-27
8.68387e-31
6.17538e-34
4.5949e-37
3.31277e-40
2.39512e-43
1.71811e-46
1.21707e-49
8.71041e-53
6.19098e-56
4.38115e-59
3.10482e-62
2.19846e-65
1.55463e-68
1.13695e-71
7.74973e-75
5.39941e-78
3.78489e-81
2.64618e-84
1.8733e-87
1.28735e-90
8.9148e-94
6.22729e-97
4.32425e-100
2.95006e-103
2.02658e-106
1.39323e-109
9.54712e-113
6.53978e-116
4.45244e-119
3.0293e-122
2.09866e-125
1.40094e-128
9.47395e-132
4.22449e-135
1.04251
1.0542
0.991893
1
0.992935
1.00772
1.00265
0.120042
4.80335e-14
5.01638e-16
4.37437e-16
1.29437e-16
7.8543e-18
4.81835e-20
2.0227e-23
2.52758e-27
1.37236e-30
1.03152e-33
7.42435e-37
5.25296e-40
3.7135e-43
2.62067e-46
1.84503e-49
1.29676e-52
9.09336e-56
6.36185e-59
4.44198e-62
3.09421e-65
2.14923e-68
1.49249e-71
1.03487e-74
7.15685e-78
4.93874e-81
3.39989e-84
2.33503e-87
1.60157e-90
1.09605e-93
7.48346e-97
5.10346e-100
3.47241e-103
2.35628e-106
1.59624e-109
1.07912e-112
7.27829e-116
4.90194e-119
3.29398e-122
2.20755e-125
1.4774e-128
9.87691e-132
3.90739e-135
1.05096
1.01429
0.839738
0.966733
1.02067
1.00089
1.00024
1.24755e-08
5.73042e-15
1.68009e-15
1.81258e-15
8.9063e-17
3.19394e-19
8.44909e-23
1.42809e-26
8.48296e-30
6.21585e-33
4.35359e-36
3.02182e-39
2.11112e-42
1.4829e-45
1.04115e-48
7.31974e-52
5.10287e-55
3.72763e-58
2.54971e-61
1.73684e-64
1.20714e-67
8.43808e-71
5.78847e-74
4.09961e-77
2.772e-80
1.92933e-83
1.30264e-86
8.88675e-90
6.09019e-93
4.16624e-96
2.82912e-99
1.91821e-102
1.30232e-105
8.80516e-109
5.97448e-112
4.04884e-115
2.702e-118
1.82568e-121
1.25916e-124
8.20158e-128
5.41852e-131
3.60793e-134
1.44551e-137
1.07396
1.10339
1.00085
0.976839
0.87838
1.0002
1.00006
1.68871e-11
1.41272e-14
2.0109e-16
8.05978e-18
5.75197e-19
1.19088e-20
3.71114e-23
1.43706e-26
3.17567e-30
1.94524e-33
1.49334e-36
1.11399e-39
8.14027e-43
5.93278e-46
4.3178e-49
3.13444e-52
2.27175e-55
1.64231e-58
1.18422e-61
8.52126e-65
6.1188e-68
4.38455e-71
3.1337e-74
2.23418e-77
1.58825e-80
1.12643e-83
7.97307e-87
5.62978e-90
3.96974e-93
2.79143e-96
1.95736e-99
1.36995e-102
9.56827e-106
6.66783e-109
4.63775e-112
3.21783e-115
2.22677e-118
1.53816e-121
1.06004e-124
7.28778e-128
5.00394e-131
3.42591e-134
1.38247e-137
1.01767
1.07403
1.02268
0.989378
1.01258
1.00815
0.874022
6.55683e-13
9.49933e-16
3.9439e-18
1.08455e-18
1.50193e-19
1.49917e-21
6.72201e-25
4.30957e-29
1.2297e-32
4.80084e-36
2.09667e-39
9.69542e-43
6.48006e-46
2.10477e-49
9.76308e-53
5.05769e-56
1.66812e-59
1.33365e-62
2.46104e-65
4.72124e-69
1.90283e-72
4.71379e-75
7.93299e-79
1.97171e-81
3.62239e-85
6.62879e-88
7.7329e-91
2.90794e-94
1.43472e-97
1.72362e-100
9.80658e-104
8.24211e-108
1.72551e-109
9.70685e-113
7.92194e-117
2.93211e-119
4.87405e-123
2.55752e-126
2.22963e-128
5.74047e-132
2.75635e-135
2.94493e-138
5.64326e-141
1.01305
1.09913
1.01287
1.00133
1.0547
0.995299
1.00034
3.78553e-11
-2.01411e-19
1.4366e-16
1.75571e-17
1.60717e-19
1.36614e-22
6.28202e-26
1.48642e-29
3.96085e-33
1.57752e-36
7.46458e-40
3.36623e-43
1.33616e-46
7.72309e-50
2.96539e-53
2.33413e-56
2.20094e-59
4.06918e-63
1.48579e-66
1.78522e-69
4.01085e-73
1.1968e-75
3.84706e-79
7.85137e-82
7.13434e-85
4.80168e-88
1.41426e-91
9.4024e-95
3.83935e-98
6.38542e-102
1.73586e-105
1.43288e-106
1.68982e-109
1.41347e-113
3.0651e-117
2.07666e-120
9.7387e-123
1.58871e-126
4.94041e-130
6.22274e-133
7.37305e-137
6.99131e-140
4.68232e-144
1.03063
1.00813
1.01363
0.991909
1.07348
0.992285
1.00137
1.66494e-07
-2.16804e-19
-3.10462e-21
1.90993e-17
3.36364e-18
6.30518e-20
6.35425e-23
4.19587e-27
7.56056e-31
3.12478e-34
1.58893e-37
7.99621e-41
2.44723e-44
1.39541e-47
4.62564e-51
3.73927e-54
1.40106e-57
6.26715e-61
2.67858e-64
8.9999e-67
2.63184e-70
3.02448e-73
3.98263e-76
5.21074e-80
6.33982e-84
4.59669e-86
3.89685e-89
1.26219e-92
1.69112e-95
1.15735e-98
4.38767e-102
2.04072e-105
1.11865e-107
8.11371e-111
9.68048e-115
4.1097e-118
8.54827e-121
2.44138e-124
1.93013e-128
5.26148e-130
3.45234e-133
5.32288e-137
1.27304e-139
1.06301
1.00897
1.00856
0.98806
1
0.968656
1.00081
0.307802
2.86796e-12
4.32691e-18
4.24882e-22
1.03227e-18
7.30043e-20
2.54563e-22
4.2981e-26
3.98451e-30
1.3571e-33
5.87271e-37
2.48662e-40
1.07231e-43
4.66724e-47
1.89076e-50
1.08725e-53
9.07432e-57
3.29544e-60
1.65274e-63
3.45816e-67
5.27115e-69
4.17438e-72
2.68314e-76
5.89306e-79
5.16311e-82
1.12893e-85
2.32166e-89
6.06249e-92
1.26247e-95
9.47476e-99
1.16686e-101
1.10761e-105
3.82464e-107
2.26896e-110
8.10928e-114
1.26644e-116
5.80685e-120
5.5182e-123
2.2637e-126
1.3689e-129
1.11594e-133
2.61482e-137
1.02821e-140
1.01135
1.00235
0.985624
1.01511
1.01058
1.00514
1.00248
0.930979
8.42595e-13
4.47656e-15
4.18105e-17
4.80371e-18
6.06903e-19
5.34528e-21
1.72507e-24
1.00972e-28
2.89408e-32
1.21401e-35
6.09769e-39
2.27087e-42
9.08793e-46
4.12554e-49
2.05992e-52
1.16405e-55
6.77032e-59
7.61968e-62
1.17808e-65
3.18469e-69
1.04548e-71
1.53371e-74
1.41579e-77
8.51853e-82
9.11799e-84
2.75938e-87
2.26916e-90
2.75079e-94
1.29639e-96
4.72765e-100
4.12308e-102
1.25853e-105
1.29771e-109
5.13182e-112
2.245e-115
1.08847e-118
3.96762e-122
1.02344e-125
1.76865e-127
8.86294e-131
2.66064e-134
5.96046e-137
1.04213
1.02976
0.990644
0.994888
0.980582
0.984462
1.00216
0.986374
8.57211e-13
3.76806e-15
3.57402e-17
3.76266e-18
4.66781e-19
4.045e-21
1.28264e-24
7.49877e-29
2.19024e-32
9.71803e-36
4.31082e-39
1.0511e-41
1.97186e-45
1.70897e-48
5.07846e-52
1.52342e-55
5.34389e-59
6.6784e-62
3.36733e-65
4.36869e-69
1.32886e-72
8.3345e-74
1.60704e-76
2.05475e-79
2.51245e-83
9.34038e-87
1.3588e-90
3.24813e-93
1.26724e-96
2.4897e-99
2.70028e-103
9.20627e-106
3.83698e-109
3.16151e-112
5.35193e-115
1.69937e-118
1.10228e-121
6.73927e-126
1.78301e-128
9.35732e-131
6.33866e-134
3.10234e-138
1.0818
1.02396
0.993589
1.01829
1.01882
1.00687
1.00548
0.839127
-3.38025e-17
8.27176e-28
6.35101e-23
9.17283e-19
6.35558e-20
2.15532e-22
3.54143e-26
3.32932e-30
1.132e-33
5.0112e-37
2.12716e-40
9.37314e-44
7.61372e-47
2.0576e-50
9.00338e-54
4.14607e-57
2.20442e-60
1.53271e-63
3.49508e-67
1.19081e-70
3.24143e-72
2.48466e-75
1.4521e-79
2.78138e-83
1.07096e-86
1.62318e-89
7.16661e-92
2.04989e-95
2.67351e-99
1.37261e-101
2.77487e-105
3.72925e-109
9.9962e-112
7.7825e-115
1.55955e-117
9.594e-121
5.97733e-124
2.94691e-128
7.39024e-132
2.90069e-135
2.31642e-138
1.06766e-138
1.03119
1.03944
0.909402
1.03076
1.00992
1.01798
1.00239
0.119426
-1.22419e-18
1.32677e-22
1.86687e-17
3.21959e-18
5.93759e-20
6.06648e-23
4.21901e-27
7.52403e-31
3.15093e-34
1.32724e-37
9.07234e-41
3.53372e-44
1.17645e-47
1.13084e-50
6.55197e-54
9.27637e-58
3.37902e-60
3.1358e-64
1.66695e-66
2.58814e-69
1.85236e-73
2.08459e-76
3.2531e-79
4.19009e-83
1.54297e-85
7.20407e-89
8.88853e-93
1.20863e-95
9.75071e-99
4.59377e-102
6.42186e-105
1.44598e-107
4.25069e-111
6.47139e-114
2.57265e-117
8.52341e-121
4.79316e-124
3.11895e-128
9.02609e-132
3.51705e-135
1.39278e-138
3.82382e-142
1.04209
1.04706
1.04143
0.983755
1.02973
1
1.00028
7.36234e-09
-2.06139e-18
1.07231e-21
1.82816e-17
3.73678e-19
2.53156e-22
4.87738e-26
1.20979e-29
3.82315e-33
1.84091e-36
7.83045e-40
3.5496e-43
1.77105e-46
6.29502e-50
3.50157e-53
1.34088e-56
8.10027e-60
2.90984e-63
1.01562e-65
2.65463e-69
3.88097e-73
1.68985e-76
3.48845e-78
1.35081e-81
4.07509e-85
1.5766e-87
6.94906e-91
2.72634e-94
1.13359e-97
7.49378e-101
4.80873e-104
2.55068e-108
2.47267e-110
3.70259e-114
3.34029e-118
4.24369e-120
8.52621e-123
2.07849e-126
1.72813e-130
6.64372e-133
5.40939e-136
3.76474e-138
6.46008e-142
1.025
1.10915
1.0336
1.17143
0.843087
1.00053
1.00004
7.04583e-12
3.55106e-15
3.01857e-17
1.37093e-18
2.30352e-19
3.68937e-21
2.57927e-24
1.46348e-28
3.31729e-32
1.34915e-35
5.77941e-39
2.44721e-42
1.03637e-45
4.42496e-49
1.89349e-52
7.88606e-56
3.34269e-59
1.70525e-62
7.85659e-66
2.74339e-69
1.08447e-72
2.61676e-75
1.05203e-78
1.38267e-82
1.26629e-84
5.53086e-88
5.50056e-92
5.30742e-95
9.55477e-98
6.69743e-101
7.75053e-105
1.41921e-106
9.34251e-110
2.38601e-113
3.98021e-116
1.88594e-119
3.27137e-123
3.87765e-126
5.43214e-129
3.35008e-132
2.14502e-135
9.89632e-139
4.68519e-143
1.00061
1.0255
1.00615
1.00927
1.00082
1.03409
1.00702
1.00476
1.00614
1.00228
1.0229
1.00423
1.00933
1.00256
1.00169
0.992153
1.00168
1.02369
1.00171
0.998768
1.0012
1.00176
1.00032
1.0038
0.976911
1.00136
0.999777
1.00255
1.00371
0.987539
1.00098
1.00685
1.0033
0.995215
1.00043
1.00114
1
1.00658
0.996495
1.00074
0.988515
1.00648
1.00639
1.03282
1.00595
1.00679
1.00672
1.03298
1.00645
1.00683
0.993062
1.00152
1.00862
1.00667
1.00256
1.00117
1.00029
0.999684
0.999919
0.99924
1.0003
0.998834
1
1.00043
1.00768
1.00034
1.00034
1.00079
1.01077
1.00071
1.00117
1.03944
1.00726
1.01354
1.00099
1.0165
1.00693
1.00472
1.00657
1.00302
1
1.00501
1.00966
1.00262
1.00225
0.996177
1.00161
0.997737
1.00175
0.984834
1.00131
1.00161
0.999101
1.00259
0.972994
1.00141
0.99317
1.00252
1.00376
0.989128
1.00053
1.00641
1.00331
0.961734
1.00055
1.00108
0.989127
1.00671
0.98644
1.00082
0.982742
1.00659
1.00789
1.03256
1.00681
1.00578
1.00851
1.03026
1.00653
1.00703
1.00312
1.00164
1.02027
1.00672
1.00008
1.00121
1.00041
0.999802
1.00001
1
1.0002
0.992676
0.999995
1.00106
1.01232
1.00099
1
1.00074
1.0153
1.00073
1.00114
1.00561
1.00707
0.996289
1.00044
1.00016
1.00686
1.00525
1.01185
1.00304
0.971372
1.00447
1.01184
1.0025
1.0022
0.993221
1.00162
0.985137
1.00186
0.996861
1.00173
1.00174
0.98933
1.00227
0.986609
1.00178
0.993323
1.00266
1.00355
0.962917
1.00079
1.0043
1.00347
0.902499
1.00124
1.00112
0.975464
1.00668
0.99752
1.00113
0.964516
1.00669
1.00833
1.0279
1.00686
0.999399
1.00903
1.03145
1.00649
1.00705
0.999916
1.00161
1.02181
1.00698
0.996993
1.00146
1.00033
0.989916
0.999979
1
1.0002
0.999904
0.99984
1.00071
1.01665
1.00098
1.00355
1.00027
1.01605
1.00038
1.0003
1.03263
0.987503
0.888409
1.03282
1.0228
1.00307
1.00582
1.00615
0.99045
1.0092
0.986914
1.00692
1.00519
-5.86121e-19
0.999058
-8.75626e-20
0.87589
4.47679e-10
0.991565
7.5087e-10
1.03733
0.923804
0.993488
1.00508
0.978179
1
0.999424
1.01287
1.01995
1.03037
1.04655
1.02068
1.03608
1.01047
-3.15785e-16
1.00092
0.000383344
1.00086
3.36693e-08
1.00108
0.00131597
1.02224
0.998322
0.918865
0.900019
1.02536
0.999996
0.857636
1.00229
1.00508
0.999688
1.02938
1.00601
0.993185
1.00237
0.0534121
1.00146
0.782828
1.00188
0.0611648
1.00123
0.783269
0.845204
1.01643
1.01726
1.02598
0.85501
1.02882
1.01519
0.998342
0.996535
0.935865
0.963143
0.999881
0.937921
1
0.972407
1.00245
1.00026
1.00114
0.966629
1.00234
1.00067
1.01036
1
0.819018
1.0027
1.01017
0.974279
0.80277
1.00009
1.00436
1.00059
1.00766
1.00373
1.00064
1.00008
1.00046
1.00185
1.00081
1.00273
1.00066
1.00188
1.00171
0.983632
1.01839
0.770658
0.997312
0.995902
1.01987
0.777437
1.00126
0.999802
1.00612
0.995722
0.999826
1.00588
1.00144
1.00096
1.00418
1.00097
1.00245
1.00174
1.00415
1.00135
0.911911
1.01486
1.02586
1.04297
0.904598
1.0016
1.01667
1.00485
1.00498
0.981797
1.00357
1.00615
0.985936
1.00534
1.00061
1.00354
0.983097
1.00538
1.0012
1.00384
0.977907
1.01407
0.999724
0.982216
0.987839
1.04956
1.00867
1.01773
0.997132
1.01748
0.956121
1.00376
1.01732
0.886254
0.997421
0.82695
1.00067
0.116042
1.00269
0.825611
1.00072
0.123018
0.981573
0.993518
0.99504
1.01891
1.00804
0.995164
0.996383
0.981095
0.99826
0.962703
0.988582
0.999026
0.988685
0.984825
0.0139302
1
1.73472e-21
1.00051
0.0204979
1.00001
1.24735e-07
0.998223
1.02134
1.00641
0.931655
0.988222
0.999532
1.00873
1.00386
1.00222
1.00209
1.00094
1.00202
1.00112
1.00454
1.0842e-22
0.900971
-2.9422e-18
1.00006
4.62093e-09
0.896616
5.33619e-10
1.04417
1.02023
1.0689
1.04996
1.04207
0.996733
0.984902
0.996561
1.00441
0.956843
1.01796
0.996708
0.943183
1.00425
9.35583e-10
0.990077
1.47197e-09
0.874206
9.36328e-10
0.990755
1.49096e-09
0.97661
0.973346
0.925852
1.02816
0.999933
1.03828
0.963014
1.00397
1.01856
0.942798
0.970268
0.99924
1.00638
0.940915
5.50105e-08
1.00174
0.00148288
1.0005
5.51731e-08
1.00124
0.00146991
1.02571
0.994066
0.861626
1.07934
0.976671
0.979602
0.972203
1.00131
1.00428
0.992662
1.01491
1.00185
1.00426
0.991171
0.0617417
1.0016
0.783639
1.00186
0.0620537
1.00121
0.78409
0.856945
1.02231
1.01573
0.978704
0.93009
1.02274
1.01384
0.991298
1
0.97313
0.971494
0.991299
0.999995
0.968531
0.967326
1.00211
1.00103
1.00132
0.966757
1.00235
1.00062
1.01154
0.999976
0.814821
1.00571
1.04238
1.0024
0.92952
0.999105
1.00384
1.00153
1.00623
0.99955
1.0038
1.00062
1.00123
1.00186
1.00219
1.0029
1.00078
1.00188
1.00155
0.982463
1.0229
0.780466
0.997378
0.955417
1.01855
0.782673
1.00121
0.999988
1.00525
0.993188
1.00106
0.999997
1.00573
1.00235
1.00406
1.00217
1.00258
1.00166
1.00395
1.00164
0.917767
0.990753
1.01829
1.01743
0.915673
0.954068
1.03201
1.0071
1.00961
1.00122
1.00742
1.00644
1.00983
1.00423
1.0018
1.00377
0.978178
1.00551
1.00124
1.00377
0.977895
1.05677
1.0188
1.05681
1.00512
1.04127
1.00636
1.06319
1.00286
1.01711
0.889717
1.01925
0.997006
1.01688
0.889664
0.825786
1.00104
0.124037
1.0029
0.825977
1.00073
0.123701
1
0.925652
0.999831
1.03447
1.03467
0.988979
0.950668
0.988629
0.996319
0.928669
1.00103
0.991591
0.999915
0.969093
0.0215
1.00015
1.98912e-07
1.00044
0.0214782
1.00003
1.96392e-07
0.979567
1.00705
0.986488
0.844389
0.980069
1.00435
0.99661
1.00478
1.00181
0.999638
0.999865
1.00407
1.00253
0.998024
8.80413e-09
0.895531
1.07808e-09
1.00006
8.7989e-09
0.895219
1.06453e-09
1.03693
0.982953
0.989503
1.03315
1.00466
1.00606
0.942589
0.995059
1.00314
0.994894
1.0089
0.99118
0.939115
1.00113
4.66495e-10
0.991881
7.63497e-10
0.878479
-7.50459e-19
0.998712
-7.73715e-20
1
1.01856
1.03066
1.02016
0.99869
1.07778
1.00532
1.00187
0.999391
1.00634
0.982241
1.00239
1.00063
1.0027
3.38404e-08
1.00165
0.00133598
1.00035
-3.51333e-16
1.00097
0.000377741
0.925775
1.00302
0.893678
1.03526
0.887203
0.997118
0.969114
1.00117
1.00179
0.988351
0.986676
1.00201
1.00121
0.982185
0.0608338
1.00162
0.78272
1.00102
0.0535257
1.00136
0.782821
0.97612
1.02712
0.998616
0.98806
0.962705
1.01305
1.00078
0.998555
0.999998
0.968543
0.969837
0.993905
0.999867
0.968545
0.967246
1.00188
1.00107
1.00095
0.97211
1.00193
1.00026
1.00441
0.974395
0.989469
1.01628
1.01183
0.913442
0.946569
0.997967
1.00216
1.00141
1.00487
0.998669
1.002
1.00031
1.00131
1.00194
1.00206
1.00252
1.00048
1.00182
1.00073
0.980782
1.01615
0.794427
0.984866
0.956602
1.001
0.937603
1.00106
0.99894
1.00039
0.986097
1.00111
0.998798
1.00055
1.00214
1.00416
1.00208
1.00244
1.001
1.00405
1.00098
0.943303
0.984629
1.01355
1.01246
0.968177
0.966616
1.01733
1.00835
1.01102
1.01697
1.00366
1.00861
1.01156
1.01819
1.00184
1.0036
0.978229
1.00474
1.00063
1.00353
0.983295
1.03848
1.0108
1.03543
0.99219
1.02683
1.00582
0.917873
0.991628
1.01847
0.882825
1.02209
1.00019
1.02191
0.880469
0.825917
1.00102
0.123441
1.00192
0.826801
1.00061
0.116252
1.0367
0.96794
0.950676
1.02204
0.912843
0.944904
0.989091
0.997053
0.996684
0.98298
0.999089
0.995886
0.999782
0.963641
0.0205533
1.00014
1.2116e-07
1.00011
0.0139098
1
0
0.98867
1.00951
1.01047
0.925737
0.998145
0.963915
1.01021
1.0066
1.00416
1.01124
1.00328
1.00655
1.00453
1.01147
4.61578e-09
0.895312
5.425e-10
1
0
0.900244
-8.61857e-18
1.00397
1.00237
1.00091
1.00068
1.0013
1.00371
1.00253
1.00203
0.958148
1.02083
1.02846
0.980695
1.02019
1.00301
1.00521
1.00223
1.01277
1.00675
1.00251
1.01244
1.00549
1.00345
1.00807
1.00472
0.997962
0.995998
1.00176
1.00548
1.00427
1.00119
1.00242
1.00147
1.00165
1.00401
1.00254
1.00123
1.026
0.993367
1.01956
0.99081
1.01976
0.999927
1.00529
1.00692
1.00282
1.01223
1.0028
1.01213
1.00486
1.00636
1.01024
1.00273
1.00465
1.01061
1.00316
1.00631
1.01363
0.990052
1.00504
1.03936
0.990508
1.00578
1.0137
1.00443
1.00236
1.00344
1.00236
1.00276
1.00332
1.00487
1.00578
1.02657
1.01862
0.998535
1.01989
1.00007
1.0076
1.00625
1.00457
1.01054
1.00338
1.01099
1.00367
1.0066
1.01141
1.00801
0.999208
1.0072
1.00125
1.00712
1.00983
1.00463
1.00298
1.00293
1.00398
1.00324
1.00412
1.00451
1.00204
1.002
1.00167
1.00175
1.00221
1.00146
1.00209
0.992323
0.966318
1
0.993646
0.993265
0.999999
0.992365
0.999104
1.00047
1.00056
1.00146
1
1.00025
1
1.00199
1.02527
1.00479
0.996908
1.005
0.989788
1.00152
1.00264
1.00225
1.00232
1.0016
1.00244
1.00205
1.00244
0.996136
0.991074
0.98269
1
0.996119
0.999975
0.99982
0.999546
1.00184
1.00017
1.00035
1.00012
1.00049
1.00005
1.00001
1.00009
1.00112
1.00149
1.00011
1.00107
1.00021
0.993021
0.968029
1.00133
1.00008
0.967642
1.00076
0.992857
1.00011
1.00175
1.00302
1.00315
1.00157
1.00272
1.00027
0.992802
0.951597
1
0.997998
0.999019
0.952243
0.996164
1
1.0017
1.00001
1.00101
1.00009
1.00131
0.999546
0.992989
1.00007
0.968403
1.00001
0.967929
1.00048
0.993124
1.00008
1.00298
1.0015
1.00237
1.0018
1.00259
1
1.0004
1.00334
1.0025
1.00346
1.00328
1.00234
1.00063
0.99924
0.99362
1
0.986856
0.993182
1
0.999916
1.00002
1.00145
1.00018
1.00054
1.00112
1.00006
1.00047
1.00021
1.00735
1.00382
1.00154
1.00385
1.00103
0.999997
1.00063
1.00387
1.00309
1.00225
1.00345
1.00272
1.0005
0.999999
0.9907
0.990877
1
0.993714
1
0.999014
1.00027
1.00078
1.00102
1
1.00144
1.00011
1.00006
1.00213
1.0001
1.00276
1.00083
1.00007
1.00262
1.00226
1.01495
1.01055
1.0031
0.998108
1.01004
1.00251
1.01508
1.00602
1.00556
1.00783
1.00648
1.0056
1.0078
1.00636
1.0011
0.998264
0.999229
1.00576
0.999738
1.0053
1.00116
1.00222
1.00115
1.00003
1.00249
1.00016
1.00276
1.00209
1.01507
0.995494
1.00984
1.00204
1.01037
1.00218
1.01463
1.00616
1.00666
1.00568
1.00756
1.00587
1.0077
1.00614
1.00824
1.00958
1.00862
1.0055
1.00761
1.00859
1.00836
1.00377
1.01868
1.0214
1.03315
1.01525
1.02061
1.00628
1.00557
1.00585
1.00842
1.00628
1.0057
1.00918
1.00591
1.00625
1.00588
1.00887
1
1.00753
0.996163
1.00575
1.00821
1.00586
1.00791
1.00842
1.0074
1.00856
1.00795
1.01054
1.03296
1.01422
1.02007
1.01505
1.02052
1.00812
1.0064
1.00675
1.00619
1.00967
1.00631
1.00977
1.00665
1.00722
1.01039
1.00668
1.00672
1.00998
1.00642
1.00778
0.999898
0.995335
1.0002
0.99624
0.989438
1.00038
1.00067
1.00406
1.00368
1.00221
1.0013
1.00359
1.00225
1.00478
1.00214
1.01179
1.01715
0.888089
1.01727
0.88613
1.00116
1.0079
1.00703
1.00989
1.0063
1.00985
1.00661
1.00788
0.99917
0.999998
0.994329
1.00012
0.991454
1.00039
0.999418
1.00411
1.00168
1.00345
1.00213
1.00383
1.00233
1.00409
0.999774
1.00011
0.999964
1.00027
1.0001
0.999921
1
0.962736
0.993228
0.99581
0.999685
0.998312
0.994255
0.924897
0.970039
1
1
1.00001
0.999517
1
0.970051
0.99048
0.994283
0.994452
0.948754
0.997513
0.997469
0.982741
0.99976
1.00055
1.00024
0.999335
1.00027
0.999867
0.999748
0.990195
0.998764
0.928588
0.997421
0.978427
0.99819
0.970638
0.970477
1.00009
0.998591
0.999918
1.00002
1
0.970734
1.00283
1.00163
1.00023
1.00063
1.00195
1.00041
1.00283
1.00606
1.00684
1.00521
1.00783
1.00684
1.00591
1.00528
1.00279
1.00064
1.00214
1.00051
1.00086
1.0029
1.00224
1.00364
1.00068
1.00076
1.00043
1.00079
1.00031
1.0036
1.00293
1.00089
1.00137
1.00056
1.00162
1.00067
1.00279
1.00642
1.0114
1.00918
1.00576
1.0076
1.00603
1.00584
1.0032
1.001
1.00092
1.00238
1.00127
1.00303
1.00235
1.0032
1.00246
1.0018
1.00102
1.00373
1.00157
1.00236
0.992458
0.942748
1.01918
1.03429
0.99441
0.94234
1.01552
1.00333
1.00317
1.01254
1.00712
1.00418
1.00307
1.01274
0.997276
1.01478
1.00374
0.962388
0.944044
0.996084
1.00377
1.00267
1.00121
1.00228
1.00152
1.00181
1.0023
1.00236
0.996027
1.05477
0.956863
1.01438
0.946338
1.0143
0.994789
1.00267
1.00728
1.00302
1.01322
1.00329
1.01312
1.00273
1.00631
1.01084
1.00376
1.00479
1.00599
1.00964
1.00341
1.00672
0.997261
1.00769
1.00999
1.00787
1.00936
1.00801
1.00423
1.00336
1.00444
1.00265
1.00462
1.00293
1.00428
0.999282
0.946969
1.0022
1.01791
0.996743
0.941358
1.00396
1.00593
1.00518
1.00854
1.00342
1.00816
1.00381
1.00589
1.00511
0.998224
1.0591
1.00813
1.06063
1.00818
1.00422
1.00387
1.00306
1.00265
1.00451
1.00326
1.00463
1.00335
1.00264
1.00261
1.00204
1.00169
1.00287
1.00239
1.00164
1
0.963141
1
0.985742
1.00003