/*--------------------------------*- C++ -*----------------------------------*\
| =========                 |                                                 |
| \\      /  F ield         | OpenFOAM: The Open Source CFD Toolbox           |
|  \\    /   O peration     | Version:  5.0                                   |
|   \\  /    A nd           | Web:      www.OpenFOAM.org                      |
|    \\/     M anipulation  |                                                 |
\*---------------------------------------------------------------------------*/
FoamFile
{
    version     2.0;
    format      ascii;
    class       surfaceScalarField;
    location    "4.8";
    object      alphaPhi10;
}
// * * * * * * * * * * * * * * * * * * * * * * * * * * * * * * * * * * * * * //

dimensions      [0 3 -1 0 0 0 0];

internalField   nonuniform List<scalar> 
27454
(
-3.51354e-08
-4.84756e-09
8.07052e-09
4.32548e-08
3.4581e-09
2.0082e-08
1.38581e-07
1.78407e-07
3.87451e-08
-3.1906e-07
-3.45967e-08
-4.76478e-08
2.29294e-08
-4.81173e-08
4.48307e-09
-1.97518e-08
-1.68016e-08
-1.54747e-08
3.95179e-08
-4.73331e-09
-1.69604e-08
-1.43811e-08
-4.60856e-10
-5.67357e-09
-2.98775e-09
1.26072e-08
-1.6197e-10
6.28752e-08
6.27598e-08
6.31007e-08
1.7022e-16
-9.93016e-09
-9.93016e-09
-9.93016e-09
1.70195e-16
1.70731e-16
1.69828e-16
-3.87157e-24
2.34291e-22
1.13292e-22
1.79361e-21
-5.51424e-22
-2.54548e-21
1.18561e-22
8.19934e-27
1.00452e-25
-9.89278e-27
1.11971e-27
9.00796e-28
-6.69103e-30
6.73756e-29
6.48462e-30
-2.55911e-31
4.8413e-32
2.22944e-33
1.88352e-33
2.66704e-36
2.1089e-36
-3.57504e-34
6.62768e-40
2.07625e-40
-2.31518e-39
2.83549e-43
1.09425e-43
-3.75888e-41
1.25477e-46
2.2237e-48
3.45017e-45
5.56428e-50
8.81149e-51
1.60347e-47
2.45178e-53
1.31535e-53
-9.87658e-53
1.07632e-56
3.91226e-58
-5.20933e-54
4.7613e-60
2.73958e-61
3.22435e-57
2.09722e-63
-4.75307e-65
9.44788e-61
9.13458e-67
-6.33385e-68
9.62878e-64
3.96853e-70
6.99792e-72
-5.55754e-67
1.85266e-73
1.77279e-74
5.20614e-70
8.74145e-77
-1.22148e-77
7.18907e-73
3.65812e-80
-5.77648e-82
-6.1625e-76
2.35046e-83
5.17478e-85
-1.21061e-79
3.77711e-86
-3.39857e-87
4.47825e-82
5.38452e-90
-3.16558e-92
8.91569e-86
2.57198e-93
9.77931e-94
-5.37038e-89
1.97711e-96
2.58477e-97
-2.66033e-91
4.14698e-99
1.97433e-101
-9.42425e-95
5.35882e-102
-1.82432e-102
1.51538e-97
1.32374e-105
1.20631e-106
-5.42524e-101
9.24226e-109
1.55445e-109
-5.94829e-104
1.05911e-111
4.0679e-113
3.61386e-108
2.01987e-114
2.21186e-115
-1.32972e-110
2.43518e-118
-1.26268e-118
3.41899e-118
9.27802e-122
-1.68502e-122
1.61824e-122
8.43382e-125
4.90033e-126
8.77335e-121
1.38008e-127
2.18979e-129
8.10177e-124
2.13206e-130
2.57387e-131
-2.25701e-126
3.42837e-133
1.50499e-134
-1.35872e-129
8.08655e-137
-9.64925e-138
-8.65006e-133
8.79281e-140
4.66172e-140
-2.3795e-135
1.6675e-143
1.61858e-143
-1.21842e-138
1.81001e-146
-4.46439e-149
2.04416e-143
1.24199e-148
1.9878e-149
-5.44939e-145
1.47957e-153
1.73793e-153
9.61807e-08
2.33634e-08
-3.03193e-07
9.08018e-09
1.33162e-08
9.28507e-09
-1.21252e-09
9.45574e-08
9.09748e-08
1.0194e-07
5.7632e-08
-6.08731e-09
7.88985e-08
1.03352e-07
-1.18466e-08
3.10917e-08
-1.12352e-08
-2.291e-08
1.41111e-08
-7.96859e-09
1.89017e-08
-2.62347e-08
1.03585e-08
-1.45886e-08
3.03216e-10
-2.91758e-08
6.43836e-09
-3.3066e-08
-4.49396e-09
-5.4703e-09
3.39179e-08
-1.09936e-08
-2.94426e-09
-1.39691e-08
2.36687e-10
-1.44493e-10
1.79213e-08
-1.3249e-10
1.80918e-08
-2.57118e-18
1.73149e-18
2.76599e-08
9.97934e-19
-8.03256e-18
1.38336e-18
6.1204e-18
1.17818e-18
3.86179e-25
-1.09191e-21
3.22063e-23
1.57417e-21
3.44139e-21
2.83157e-21
-4.33183e-21
1.26433e-25
4.70986e-27
7.04793e-26
3.12272e-27
4.38735e-27
1.08624e-29
2.10639e-30
1.44505e-31
3.90982e-29
3.00949e-34
-8.24885e-31
-1.71183e-32
1.23302e-37
-2.40971e-34
2.41721e-36
4.48457e-41
-2.26604e-38
1.84896e-39
1.88963e-44
-7.72648e-42
-4.92976e-43
8.68127e-48
-1.0866e-45
-6.16146e-45
4.07431e-51
-2.72828e-49
6.38252e-48
1.89049e-54
-9.07133e-53
6.08792e-51
8.52102e-58
-1.80326e-56
-1.49697e-54
3.91927e-61
9.68768e-61
-1.89687e-58
1.96225e-64
-6.40399e-66
1.82662e-60
1.11248e-67
-7.93086e-66
8.08212e-64
4.54696e-71
-1.4816e-69
4.43937e-67
2.53927e-74
-2.41337e-74
-2.4451e-70
2.33323e-77
1.23875e-76
7.73889e-74
7.44193e-81
1.06109e-79
7.68232e-79
8.22094e-84
-4.98652e-84
-3.02142e-85
3.04407e-86
-1.61071e-86
-2.89963e-82
2.23079e-90
-8.61927e-89
2.83581e-87
1.66206e-93
2.22409e-94
-4.90282e-90
1.56359e-96
1.66882e-97
-3.94504e-92
4.71529e-100
-6.29087e-97
2.09793e-95
3.83421e-103
-1.29787e-99
5.80155e-98
1.7271e-106
7.01077e-107
3.20055e-102
1.74951e-109
1.08317e-107
-1.06777e-104
5.53267e-113
-4.98854e-111
-3.51333e-109
9.15267e-116
1.58657e-117
2.41079e-117
1.20014e-117
-2.48059e-117
-3.26122e-114
1.18275e-121
-4.41126e-121
-8.17187e-118
2.88426e-125
-2.16987e-123
5.53782e-122
1.70168e-128
-1.50294e-127
-6.61417e-124
5.20501e-132
-2.61252e-130
-4.65524e-127
2.32328e-135
7.08206e-136
-1.18622e-136
2.39245e-138
1.1858e-138
1.4514e-133
2.4397e-141
-3.97566e-141
-1.73122e-136
9.15756e-145
-8.17736e-142
-1.79677e-139
3.37918e-148
-2.59648e-145
-5.23901e-143
7.19586e-151
4.28572e-149
5.26038e-146
-1.12383e-154
-2.78169e-149
1.99651e-08
4.34251e-09
-2.48399e-07
-7.47549e-09
-2.64972e-08
3.24106e-07
1.47795e-08
1.13427e-08
2.41866e-08
8.3798e-09
-4.0386e-10
-1.22615e-10
-3.52322e-09
-2.55231e-08
-3.73845e-08
1.09118e-09
6.46002e-09
-2.51302e-08
-2.63082e-08
-2.57809e-08
9.71277e-09
-3.35642e-08
-6.80295e-08
-4.76066e-08
-4.89269e-08
-4.85395e-08
-4.7882e-08
3.29142e-09
-8.18449e-08
-1.11108e-07
-9.75451e-10
5.9109e-09
-1.00393e-07
7.47917e-10
-4.58525e-08
5.5568e-09
7.09608e-09
3.37514e-08
5.08896e-10
4.07572e-10
9.08118e-10
-1.61169e-10
1.28877e-09
-2.08903e-14
-2.02036e-16
-1.07802e-08
-1.16535e-16
-1.07802e-08
-1.00909e-22
-4.0443e-18
-1.3304e-21
6.20436e-20
8.28543e-19
2.46504e-19
3.2216e-18
-4.04927e-18
-4.06888e-18
-4.04935e-18
-1.32149e-25
-1.24893e-22
-9.17948e-26
-9.08152e-27
-4.92811e-26
-2.8598e-29
8.5276e-28
-3.43337e-28
7.61943e-29
1.87249e-30
-4.84301e-30
-3.56326e-30
1.69293e-34
-4.19385e-33
-9.56906e-34
2.50012e-38
-5.11362e-37
1.80001e-37
1.01785e-41
-1.21251e-40
-1.02176e-41
4.53138e-45
-2.98165e-44
1.12127e-43
2.05046e-48
-5.95744e-48
-9.26053e-46
9.22267e-52
-2.22732e-51
-1.88209e-48
3.98551e-55
-5.16361e-55
-3.15042e-52
1.78402e-58
-1.76833e-58
-7.03685e-55
7.7838e-62
-3.74342e-62
1.74987e-58
3.59334e-65
-1.01146e-65
-1.66031e-61
1.6969e-68
6.14976e-69
-4.79369e-64
7.70411e-72
-3.75151e-73
3.33431e-68
4.13725e-75
-5.00942e-76
-2.10992e-71
2.59889e-78
1.56501e-79
-8.16515e-74
1.48598e-81
-6.15436e-83
3.92111e-79
5.7306e-84
-3.73765e-85
1.14402e-80
3.22548e-87
-1.39548e-88
-1.30553e-83
4.28909e-91
-1.16567e-91
8.46022e-92
7.6748e-94
-1.75515e-94
5.53222e-95
1.00003e-95
1.00347e-97
-2.27772e-92
1.4472e-99
2.46981e-101
-6.30778e-95
2.4887e-103
7.37536e-104
-2.97087e-99
1.15343e-106
-7.79017e-108
-6.52692e-102
4.7545e-110
1.67579e-111
-1.0962e-105
4.26167e-113
-1.78266e-114
-1.24708e-110
2.02365e-115
5.61934e-117
-1.04316e-111
2.24556e-119
1.41269e-119
-5.46615e-115
1.07119e-122
2.48983e-123
-9.85197e-118
1.04324e-125
2.87071e-126
-9.20689e-123
1.43081e-128
-8.10341e-129
-4.39799e-125
2.12744e-132
5.46988e-133
8.96349e-128
7.79951e-136
2.65454e-137
3.97397e-131
1.19705e-138
-2.29632e-140
1.10103e-139
1.06648e-140
5.78008e-143
-4.42173e-137
1.11119e-144
1.68498e-145
-2.51971e-140
2.43327e-148
-5.14243e-150
1.70936e-143
-4.82594e-152
2.11201e-152
-3.7907e-08
3.49964e-08
-4.87234e-07
8.439e-08
-9.69308e-09
-2.70426e-07
-9.34292e-09
2.53621e-09
-4.66804e-07
3.6883e-08
-3.79503e-10
2.70296e-08
-5.17916e-10
-1.56609e-09
-1.78803e-09
-1.3801e-09
-4.65145e-08
-2.14225e-08
-1.94621e-09
-4.07529e-08
3.83079e-09
-6.5573e-08
-5.42886e-09
-3.04102e-09
-6.58356e-08
-2.78612e-11
-1.94888e-08
4.37938e-09
6.33341e-09
8.10712e-09
1.70489e-10
5.75238e-10
-1.47044e-09
-2.0858e-11
1.83154e-10
3.53127e-11
1.54023e-10
5.65678e-10
5.27824e-10
6.18737e-10
-3.94955e-10
-2.70494e-10
-3.048e-10
-3.38602e-10
-6.84018e-11
5.98231e-12
2.33408e-08
3.16183e-11
2.3357e-08
1.58457e-17
-4.04962e-18
-3.82719e-08
-4.08442e-18
3.52051e-25
-1.42752e-21
3.21354e-23
-1.46712e-21
-1.1166e-21
-1.73168e-21
-1.50512e-21
6.38166e-29
-3.08365e-25
-2.82565e-27
8.78849e-28
-1.34242e-27
1.64038e-29
5.91885e-30
-1.61835e-29
3.22921e-31
1.55203e-33
5.92945e-33
-3.17976e-33
1.184e-37
6.26192e-36
-2.12308e-36
3.96174e-41
7.68976e-40
-5.09597e-40
1.74225e-44
1.57337e-43
2.30463e-42
7.77256e-48
5.47785e-47
1.02555e-45
3.39979e-51
1.37317e-50
-6.26473e-48
1.49448e-54
-1.1157e-53
5.46507e-52
6.55741e-58
-1.93408e-57
-1.90935e-55
2.9796e-61
-1.56696e-60
7.55631e-59
1.50721e-64
5.94452e-65
3.92819e-61
6.54908e-68
-4.33235e-67
-7.55071e-64
2.8076e-71
-3.72396e-72
7.34245e-68
1.27797e-74
-4.31017e-75
-7.832e-73
9.72228e-78
9.07148e-79
-1.02943e-73
2.76343e-80
2.04346e-81
-9.81168e-77
3.61488e-84
-1.98539e-83
-4.28784e-80
1.98737e-87
2.57598e-88
2.12838e-83
5.06317e-90
5.62102e-91
-1.83104e-86
1.58684e-93
-2.10465e-94
-2.14698e-89
4.78589e-97
-2.42408e-95
-7.06743e-92
3.49923e-100
-1.86726e-100
-1.06533e-95
5.3009e-103
-1.67449e-103
7.04794e-99
9.25856e-107
3.24012e-107
-1.7088e-102
5.43026e-110
-4.97997e-109
1.9801e-106
1.76205e-112
-3.78335e-113
7.836e-109
7.911e-115
2.06103e-115
-3.48757e-111
7.91415e-119
-2.82144e-118
-4.21886e-114
3.90624e-122
-2.48047e-122
-3.6546e-118
4.00368e-125
-1.56935e-126
6.07593e-121
1.57811e-128
-6.00737e-128
1.18994e-123
1.77323e-131
-1.49516e-130
1.29485e-126
2.25537e-134
-2.22688e-135
-2.18626e-130
5.51067e-138
2.21799e-138
-8.12121e-134
1.75373e-141
-2.93823e-140
7.37784e-137
9.29073e-145
3.732e-145
-1.04489e-140
8.11444e-148
-5.95027e-147
-2.99427e-143
-1.44881e-149
-1.00211e-146
5.38107e-10
1.12238e-08
1.10075e-08
-3.97984e-08
2.99903e-10
2.56023e-07
2.28081e-10
2.71763e-10
-2.1869e-10
2.96346e-08
2.90262e-09
-3.67809e-08
-3.43946e-07
2.91159e-07
1.87048e-07
4.20117e-08
-8.97037e-09
3.78031e-08
-3.51135e-11
2.08071e-09
4.81021e-10
-3.98657e-08
2.82141e-08
-3.07484e-08
-4.62716e-09
-7.82977e-08
7.93601e-08
-1.30971e-07
1.00218e-08
1.36544e-08
1.00007e-08
9.88662e-09
-4.08733e-08
-4.08341e-08
-5.30463e-08
-3.7493e-08
6.39473e-10
-2.27584e-08
3.73917e-09
-6.64566e-09
2.35795e-08
-2.88675e-09
2.55383e-09
-3.36181e-09
-1.97857e-10
2.03271e-10
-2.67538e-10
8.55472e-10
2.94095e-10
1.58008e-10
2.9269e-10
2.1591e-10
-1.32894e-10
6.07397e-11
3.08456e-08
-7.81957e-11
3.1148e-08
1.28901e-16
-6.09905e-18
-5.95057e-09
-5.73549e-18
1.28157e-16
1.32222e-16
1.24463e-16
-5.72335e-18
7.24063e-24
-1.64762e-21
3.54464e-22
-4.84364e-22
-9.2579e-23
2.88576e-21
-8.83817e-22
2.87878e-27
-2.84972e-25
-1.30549e-26
-2.22909e-27
-1.77519e-27
4.09485e-29
1.15629e-28
-5.44787e-29
-5.27263e-30
7.44366e-32
-1.7732e-31
-5.72359e-32
3.60414e-36
-3.49235e-35
-1.75304e-33
1.00345e-39
-4.83778e-39
-1.33637e-36
4.29827e-43
-1.46804e-42
-8.17577e-41
1.89342e-46
-3.72658e-46
6.23548e-44
8.35639e-50
-8.47475e-50
-7.93179e-47
3.67069e-53
-7.0111e-53
5.60631e-50
1.6233e-56
-3.33823e-57
-1.07048e-53
7.40401e-60
-4.72101e-60
8.02647e-57
3.0594e-63
-3.70514e-64
1.31532e-59
1.34048e-66
-9.17112e-68
-1.26609e-62
5.90256e-70
-1.01361e-71
5.23134e-66
2.69043e-73
-5.6334e-74
4.27817e-69
1.3667e-76
4.0222e-78
1.87747e-72
1.22369e-79
-2.29543e-81
3.51657e-75
1.75777e-82
1.10384e-85
-1.59898e-78
1.06813e-85
-1.14362e-84
-3.70666e-80
6.56224e-89
-5.2412e-89
-9.25682e-85
3.81855e-92
3.08128e-93
-1.71882e-89
1.23043e-94
-1.88673e-96
-5.06251e-90
1.04004e-98
-4.1705e-99
4.31496e-95
3.73254e-102
-8.00029e-103
-1.30881e-97
4.55482e-105
-8.58689e-107
-1.77766e-101
1.36154e-107
2.28459e-109
-3.72345e-103
1.556e-111
1.89953e-111
2.85407e-107
1.49753e-114
-6.22642e-116
2.67895e-115
8.07829e-117
6.67123e-119
2.62553e-113
5.20495e-121
-6.27447e-121
3.65559e-116
4.21532e-124
-3.385e-124
5.08957e-119
8.5877e-127
-9.52612e-127
-1.08364e-121
4.25468e-130
-1.85336e-130
-7.86274e-127
1.12071e-133
-6.05691e-134
1.73398e-128
2.10654e-136
-4.55324e-138
-1.21941e-132
9.42021e-139
9.40832e-140
8.66458e-136
1.67043e-142
7.21844e-143
-6.10768e-139
1.1725e-145
3.33405e-146
-1.51618e-141
3.22279e-150
-9.02239e-145
2.2237e-08
-5.14492e-09
-3.35056e-07
1.73389e-08
2.01599e-08
1.96239e-08
-5.76401e-09
-4.03867e-09
-6.15209e-09
1.95768e-09
1.91558e-08
2.09433e-08
1.47456e-09
-5.56594e-08
-5.09389e-08
-5.51004e-08
-5.17544e-08
-5.25226e-08
-5.49859e-08
3.17015e-09
-1.70051e-08
-2.60753e-08
3.27488e-08
8.72925e-08
1.80871e-08
-7.59828e-09
-5.91412e-09
3.72448e-09
1.98143e-08
3.80378e-10
3.14064e-08
1.26942e-09
-7.69332e-10
-3.16354e-08
-1.45303e-09
2.7205e-09
-2.23681e-09
-3.92818e-11
-5.62969e-10
-1.75038e-09
3.08868e-10
4.52061e-10
3.52771e-10
4.58131e-10
4.29182e-10
-3.93986e-10
1.17561e-10
6.26488e-08
-9.30105e-11
6.3522e-08
-2.96568e-16
-7.5448e-18
-6.55702e-09
-6.55702e-09
-7.88549e-18
-2.95539e-16
-2.99077e-16
-2.92378e-16
9.00219e-24
-7.75135e-22
4.68404e-22
1.50725e-21
8.13373e-22
1.03523e-21
3.01315e-21
1.46396e-26
-7.94878e-26
-4.31404e-27
-9.15672e-28
-6.61703e-28
-1.42831e-28
8.82686e-29
-1.48124e-29
-7.27555e-29
5.71517e-32
-4.42704e-32
-4.6648e-32
2.77867e-36
-9.30518e-36
5.3072e-34
7.76976e-40
-9.08918e-40
-6.9867e-37
3.43638e-43
-2.48074e-43
-5.72973e-42
1.59509e-46
-5.29351e-47
1.21955e-42
7.25506e-50
-5.91165e-51
2.82151e-46
3.62246e-53
-2.09969e-53
1.648e-49
1.41218e-56
-1.84194e-57
-3.04678e-53
6.02709e-60
-4.92282e-62
5.0042e-56
2.79497e-63
-4.655e-65
1.40866e-59
1.60265e-66
-4.24523e-68
7.80813e-63
1.28445e-69
-9.21137e-72
-2.78828e-67
1.96199e-72
-4.84808e-73
7.9757e-68
3.89614e-76
-1.2678e-77
2.79901e-72
3.16381e-79
-4.40026e-81
-1.97824e-75
1.26611e-81
1.97191e-83
-4.07392e-78
1.10497e-84
2.60285e-85
-3.12517e-80
8.82624e-88
3.56779e-88
-8.90848e-84
3.02935e-91
1.28932e-93
-4.98009e-87
7.62283e-95
5.26498e-96
-2.45287e-93
4.95957e-98
1.83488e-99
-4.9523e-93
4.78445e-101
2.49331e-102
-2.92208e-97
1.23029e-104
3.17006e-106
6.23837e-101
8.81708e-108
-7.28998e-109
-1.14264e-102
9.81752e-111
7.74593e-112
1.01229e-106
2.44078e-114
-5.03929e-117
5.82856e-112
3.1247e-117
-2.84142e-119
-2.365e-113
4.38683e-120
-3.15739e-121
-1.16146e-115
4.29121e-123
-1.26483e-124
7.14152e-119
1.77031e-126
-2.2992e-127
-8.55304e-122
6.44552e-130
-7.39586e-131
2.6022e-125
3.29427e-133
-2.08511e-134
7.95253e-129
2.07608e-136
-8.27169e-140
9.47445e-133
5.16969e-140
3.25156e-141
7.97309e-141
2.2739e-143
4.39513e-145
9.33949e-139
1.10548e-146
5.28704e-148
-3.91461e-141
3.67026e-151
2.58002e-150
-8.98104e-09
-7.60428e-09
-1.83905e-09
5.0208e-08
9.9532e-08
-7.3664e-09
-2.00681e-08
9.32498e-08
4.84664e-08
5.32229e-08
4.13951e-08
-5.23531e-09
-1.23982e-08
-5.6396e-08
-5.72284e-08
-3.16245e-08
-1.98935e-08
-2.51515e-08
-5.72305e-08
-5.85034e-08
-7.09438e-08
2.7976e-08
2.89177e-08
-2.61815e-08
-3.65961e-09
2.86594e-08
2.9628e-09
-9.5134e-10
1.5812e-09
-3.958e-09
-1.67307e-09
-1.47295e-09
-4.2218e-10
1.91573e-09
-1.06525e-09
1.25969e-09
-6.16148e-10
-1.01118e-09
2.91508e-10
5.56861e-10
4.32558e-10
3.83739e-10
-1.73005e-10
2.35761e-11
2.21658e-08
-1.85437e-11
2.23061e-08
8.90009e-22
4.42631e-18
-4.74672e-18
5.98423e-16
-1.08636e-17
-4.86271e-16
-9.93728e-17
-1.39292e-18
-1.27917e-18
-2.89664e-18
-1.30785e-18
-2.13394e-24
4.78983e-22
-4.33214e-23
3.33605e-27
5.88631e-26
-1.54288e-26
7.95926e-28
9.03372e-29
-1.23954e-29
4.3057e-30
2.09594e-30
-2.33237e-31
1.44289e-33
1.55414e-33
9.44928e-34
1.12004e-37
1.81765e-37
4.76903e-36
3.80478e-41
4.22548e-41
-6.86402e-40
1.66251e-44
1.1086e-44
-4.4159e-44
7.34983e-48
3.13259e-48
5.15601e-45
3.23711e-51
7.86929e-52
-7.61251e-49
1.47096e-54
1.33079e-55
-7.87733e-53
6.88931e-58
6.02081e-59
-1.69105e-54
2.84253e-61
8.64684e-63
9.91075e-59
1.26997e-64
-4.3871e-66
-1.04076e-61
5.52146e-68
1.2681e-69
3.09052e-65
2.48935e-71
6.61725e-73
-1.45016e-68
1.00881e-74
1.32382e-76
2.73086e-70
4.87633e-78
-1.50448e-78
-2.14616e-74
9.60724e-81
-8.49027e-82
-9.51149e-78
4.0282e-83
1.8806e-84
-1.91728e-79
3.29216e-87
-8.06261e-88
1.57091e-84
1.02893e-90
-4.19321e-91
2.42058e-89
4.79185e-94
-1.48751e-95
-4.50408e-91
2.391e-97
-2.16294e-98
1.86974e-98
1.61215e-100
1.52772e-101
4.05934e-96
8.10972e-104
2.68149e-107
-6.90196e-100
7.04286e-107
5.4559e-108
5.58426e-102
5.0952e-110
1.48174e-111
1.41515e-105
1.25419e-112
-8.17823e-114
-7.06054e-108
4.8245e-116
1.71048e-117
-5.62298e-112
1.43408e-119
-1.22133e-119
-1.85028e-115
9.63878e-123
2.31121e-124
-2.15845e-118
1.10233e-125
-5.99873e-127
-4.28621e-121
4.48938e-129
-8.18312e-131
-6.23626e-124
2.80861e-132
-1.21063e-133
1.35001e-127
1.9685e-135
-3.38615e-136
-3.98607e-130
2.60745e-138
3.31072e-140
-2.71187e-134
1.35841e-140
8.79323e-145
-5.36547e-137
1.00768e-144
-6.01846e-146
1.55865e-145
1.12947e-147
-5.90007e-151
4.37013e-149
3.52571e-151
-2.25593e-146
9.59351e-08
2.14636e-08
-1.62387e-07
7.25554e-08
8.35518e-08
7.48679e-08
-3.9425e-09
-9.64422e-10
3.18062e-09
1.04054e-09
-4.25023e-08
6.91246e-08
7.52474e-09
-2.46078e-09
-5.07536e-09
-4.54112e-09
-3.4691e-09
-4.67622e-08
-3.78184e-08
-4.61358e-08
2.33901e-08
5.01997e-08
-2.52409e-08
2.69049e-08
-1.48206e-08
3.43919e-08
2.12566e-09
8.96158e-09
-1.2391e-08
-1.47457e-08
-1.47687e-08
9.67034e-09
-5.06966e-09
-5.96474e-09
-6.5431e-09
6.14198e-09
1.74972e-08
-2.01883e-09
-5.7175e-09
-1.81831e-08
1.04867e-09
-8.57581e-10
8.43241e-11
-8.41505e-10
-1.43116e-09
-1.14366e-09
-5.41246e-10
-7.78204e-10
-4.55285e-10
-2.40589e-10
3.87644e-11
-4.6258e-11
-3.71697e-11
3.60674e-12
-8.7098e-11
-5.07421e-12
-1.26124e-08
1.31496e-11
-1.26132e-08
-5.22263e-22
8.19162e-22
-2.53004e-21
2.2304e-19
4.42867e-20
4.13045e-18
4.04364e-20
2.89848e-26
4.41446e-26
-2.24729e-26
4.61273e-26
5.43263e-27
1.96213e-29
8.66819e-28
1.24954e-28
-3.17957e-29
1.8309e-30
8.26638e-31
-1.65071e-30
1.67882e-34
8.76837e-35
1.90005e-33
2.55073e-38
1.15547e-38
-4.67144e-36
1.04207e-41
3.39079e-42
-5.67146e-40
4.61233e-45
-6.51858e-46
-2.0996e-42
2.07035e-48
-1.82718e-49
-5.04824e-45
9.59258e-52
1.70911e-52
3.14486e-48
4.26281e-55
1.32173e-55
-1.08007e-52
1.89145e-58
3.2577e-60
-6.41963e-55
9.51911e-62
1.41042e-62
-6.94729e-58
3.81345e-65
4.68502e-66
-3.66487e-61
1.53819e-68
-1.26289e-71
5.05033e-65
9.53156e-72
-2.27208e-75
-9.94065e-69
1.76929e-74
1.08081e-75
-5.41142e-72
7.99757e-78
2.2851e-79
-9.92541e-74
1.5613e-81
2.50883e-82
-3.69081e-77
2.40471e-84
5.07098e-87
8.34245e-85
2.6021e-86
-6.37512e-89
-1.45865e-82
9.95869e-91
-2.46624e-92
2.82385e-87
6.12505e-94
4.60283e-95
3.75212e-90
3.72068e-97
3.68917e-98
-1.28998e-92
1.1325e-100
2.4187e-102
6.60687e-96
1.40304e-103
4.03245e-106
6.37974e-101
2.86899e-106
3.19006e-107
-3.22994e-102
4.66955e-110
2.08855e-111
2.07335e-106
4.57568e-113
-3.07505e-114
-1.0179e-107
3.50742e-116
2.17455e-119
-3.43669e-112
3.72156e-119
6.37826e-121
-8.73551e-115
9.36631e-123
-1.78912e-124
-1.74862e-118
1.48477e-125
-5.2942e-127
-4.59466e-121
4.7838e-129
1.443e-129
7.85006e-125
2.94806e-132
-1.27405e-133
4.4087e-128
1.52893e-135
1.15675e-136
-6.08002e-130
4.17476e-139
8.45653e-140
-1.0685e-138
1.663e-142
-9.48013e-145
5.85842e-143
6.71353e-146
-7.56624e-147
1.19498e-146
2.84865e-149
-3.57257e-150
1.55061e-149
-5.00801e-156
-2.72959e-147
-7.71734e-08
2.67137e-08
1.87129e-07
5.48508e-08
2.46295e-08
3.28817e-08
-8.39554e-08
-7.22503e-08
-5.72367e-08
4.55129e-08
-3.7614e-08
-7.54199e-08
-4.16956e-08
1.45482e-08
-1.21683e-08
9.48761e-08
2.03872e-07
7.19715e-08
6.14151e-08
1.23005e-07
1.15426e-07
1.24768e-07
1.21765e-07
1.18604e-07
-1.83853e-08
-1.54805e-08
-2.21981e-08
4.08947e-10
2.28424e-08
1.91098e-08
-2.168e-08
-2.26939e-08
6.30493e-08
-4.51771e-08
-9.51895e-09
-6.76455e-08
2.66327e-08
6.41942e-08
6.36759e-08
6.48086e-08
-6.08931e-09
5.20415e-09
-4.85801e-09
-4.4182e-09
9.40641e-09
-4.21459e-10
7.80933e-10
-2.52542e-08
2.2879e-10
-2.47115e-08
-3.0369e-14
-8.11765e-16
3.22594e-08
3.22594e-08
1.60976e-16
1.02487e-15
2.61077e-14
6.5307e-15
-1.94748e-15
-3.37475e-16
-3.38111e-16
1.88005e-23
5.88024e-23
-1.67901e-22
-2.4336e-21
-9.15162e-22
6.13111e-21
-1.04058e-21
-2.59713e-26
1.69246e-26
-4.71073e-26
1.26173e-26
-7.73972e-28
3.02214e-31
1.08362e-29
5.35382e-29
-2.77384e-29
6.12769e-34
5.47452e-31
4.81102e-32
1.74719e-37
2.2799e-34
1.33813e-35
7.05639e-41
2.71097e-38
1.52873e-38
3.11682e-44
6.82226e-42
1.91715e-41
1.47544e-47
1.72644e-45
8.96525e-45
6.87856e-51
3.81404e-49
-5.80387e-48
3.18735e-54
1.07616e-52
2.35986e-50
1.42207e-57
2.09642e-56
-1.362e-55
6.33791e-61
7.67569e-60
-1.75592e-57
2.8756e-64
-4.77828e-64
6.17765e-61
1.29403e-67
2.72815e-67
4.4195e-64
1.54832e-70
-8.88303e-72
-2.45027e-67
5.40279e-73
3.78663e-74
-3.93707e-69
3.58412e-77
7.63899e-78
-9.21033e-75
1.28279e-80
2.07925e-81
1.75766e-76
5.77756e-84
-1.2036e-84
-2.13562e-79
2.6896e-87
-5.97721e-87
-1.21933e-82
1.26415e-89
-1.36378e-90
-7.67237e-87
2.80985e-91
-1.03671e-94
-4.76596e-88
1.20802e-95
-1.57569e-97
-9.1566e-93
2.30443e-99
4.11324e-100
-1.78841e-94
1.24699e-102
-9.43279e-104
-7.70544e-100
1.56764e-105
6.79975e-108
-4.4726e-101
3.73609e-109
-1.01432e-110
1.11524e-104
3.72494e-112
1.48733e-112
-3.39333e-107
6.7677e-116
-2.20497e-116
6.01065e-111
5.06723e-119
1.61217e-119
1.19716e-119
1.58138e-121
6.48644e-123
-1.39628e-117
1.39621e-124
-2.65123e-126
-1.52557e-120
1.44235e-127
5.4655e-129
-3.33422e-123
3.17652e-131
-1.12927e-132
-3.10584e-126
1.52225e-134
-5.88843e-137
-6.96917e-130
8.11611e-138
-1.86447e-138
2.06441e-133
4.89604e-141
-5.32242e-142
-1.03128e-136
1.41287e-143
4.39562e-145
1.77952e-139
1.38083e-146
-1.80581e-147
-1.79962e-142
8.00997e-150
-1.44989e-150
-5.80979e-146
-5.6944e-154
1.71585e-150
4.90262e-08
-5.32106e-09
2.29131e-08
3.30192e-08
4.07408e-08
-2.60826e-08
-2.3572e-08
5.01953e-08
4.88254e-09
4.69858e-08
-1.58913e-08
9.19371e-10
-1.59323e-08
1.28516e-08
2.82273e-09
-1.39002e-08
7.43186e-09
-2.1777e-08
-2.03653e-08
2.96746e-08
1.92177e-08
-1.84979e-07
-7.76212e-08
-1.27911e-09
-1.56337e-08
7.6603e-09
6.63243e-09
1.15884e-09
-8.81926e-11
-2.16751e-10
1.81554e-08
-1.07245e-10
1.82039e-08
2.29675e-16
-1.90359e-18
-8.6122e-09
-8.6122e-09
-2.81711e-18
2.28511e-16
2.256e-16
2.27916e-16
-3.11379e-25
6.68341e-23
4.99507e-22
-4.62821e-22
2.60306e-22
1.34723e-21
1.60841e-26
-1.19146e-26
-1.94131e-27
-7.32335e-30
8.53155e-29
2.13318e-31
1.35927e-31
5.40325e-33
8.50904e-36
-6.51358e-36
1.57095e-39
-3.68403e-39
6.57731e-43
2.6352e-42
2.89912e-46
1.87351e-46
1.27592e-49
4.53488e-48
5.60067e-53
-4.83453e-52
2.44429e-56
-2.72058e-54
1.05847e-59
1.54754e-57
4.57064e-63
-2.97264e-61
1.96496e-66
9.01918e-64
8.4372e-70
-2.10833e-67
3.62402e-73
-2.8148e-70
1.60324e-76
9.84014e-74
7.27365e-80
-1.47886e-76
3.25322e-83
-6.28451e-80
1.94864e-86
-2.25067e-82
8.12223e-90
1.33817e-86
5.5408e-93
-3.09772e-89
4.53541e-96
7.11612e-92
1.92341e-99
-3.75753e-95
1.1072e-102
-2.2542e-98
4.06095e-106
-2.25366e-102
4.58484e-109
-1.83067e-105
5.93834e-112
3.58021e-107
3.01238e-115
6.86909e-111
8.73434e-118
-4.31741e-114
9.077e-122
2.08222e-119
2.94253e-125
-3.19253e-121
3.93703e-128
-3.78863e-124
2.33338e-130
-3.81992e-126
2.39069e-134
2.10927e-130
1.3428e-137
-1.1246e-133
1.70867e-140
-3.03074e-136
6.08531e-144
3.99274e-139
3.75584e-147
-3.38038e-143
1.8896e-150
-1.02967e-146
-9.69758e-150
-3.98224e-08
6.24486e-08
1.31327e-08
-6.27946e-08
-6.63139e-08
-6.77027e-08
-6.21155e-08
-7.63889e-07
-8.75367e-09
1.9538e-09
5.36112e-09
6.71841e-07
2.89096e-08
7.74995e-09
2.45875e-07
-9.61921e-09
6.93267e-10
-1.89513e-08
-2.19287e-08
1.04822e-07
9.99816e-08
1.04369e-07
9.97803e-08
-2.09167e-07
-6.65788e-09
2.27016e-09
2.80934e-07
-1.63102e-09
-4.38653e-07
3.45249e-08
-3.338e-09
-4.73667e-07
-1.00821e-07
-5.4807e-08
6.16667e-09
-8.62674e-09
-2.79299e-09
5.98747e-08
-5.19993e-10
1.38872e-10
1.41687e-10
4.82984e-08
4.83745e-08
-5.67055e-16
1.24128e-18
-1.3566e-17
-1.02668e-08
2.14625e-18
-5.63901e-16
-5.61351e-16
-5.94439e-16
-1.02545e-23
1.46621e-21
2.09915e-22
-5.55129e-20
-6.06409e-20
-4.95329e-20
-6.12258e-20
2.21189e-26
5.7102e-24
2.11565e-27
1.78922e-27
1.92963e-25
-1.01358e-29
3.43711e-28
5.17431e-28
-1.74324e-30
3.04488e-30
9.57418e-31
1.05332e-32
2.02387e-33
8.75978e-34
7.938e-35
3.49395e-37
1.78985e-37
2.83787e-38
1.84811e-40
6.63856e-41
3.50009e-41
1.46389e-43
3.75882e-44
-1.65583e-45
1.12849e-46
2.08037e-47
-2.7863e-47
8.4442e-50
-1.10425e-50
-3.49998e-50
6.2821e-53
4.97253e-54
1.91106e-53
4.6552e-56
2.01535e-57
6.60245e-57
3.4328e-59
-5.94031e-60
-4.9436e-60
2.52163e-62
1.54175e-63
-3.10617e-63
1.84454e-65
-3.56736e-66
1.60723e-66
1.34358e-68
2.20716e-69
-2.00765e-69
9.75718e-72
-7.82866e-73
3.17013e-72
7.06207e-75
8.15834e-77
3.31473e-76
5.09228e-78
1.56588e-79
1.98069e-80
3.65881e-81
2.42179e-82
1.73664e-81
2.62061e-84
-3.55389e-86
-7.63029e-86
1.87018e-87
8.31788e-88
2.25389e-88
1.33123e-90
4.61501e-91
-4.40819e-92
9.45465e-94
4.58149e-95
-2.01744e-94
6.69886e-97
1.19385e-97
1.40106e-97
4.73347e-100
4.57728e-101
4.33288e-101
3.33333e-103
2.6039e-104
-4.65474e-104
2.33883e-106
3.27332e-107
-1.57382e-107
1.63785e-109
-3.53727e-111
-5.99489e-112
1.14537e-112
7.99864e-114
-5.54939e-119
7.98931e-116
-1.8222e-117
6.9416e-117
5.55977e-119
5.34051e-120
2.07219e-120
3.85916e-122
1.80254e-124
-3.7084e-123
2.67143e-125
2.93173e-126
4.96306e-126
1.845e-128
2.72878e-129
-8.45545e-130
1.27114e-131
-1.35141e-133
1.01982e-132
8.73634e-135
-4.4545e-136
2.4248e-135
5.99695e-138
6.41611e-139
6.97261e-139
4.10575e-141
-6.07935e-143
1.03283e-142
2.73175e-144
-1.91908e-146
-1.89738e-146
2.6924e-148
2.57814e-148
3.18032e-08
1.85203e-09
-3.51684e-08
6.93009e-09
4.84985e-09
2.57447e-09
8.1227e-09
2.20848e-08
1.78451e-08
2.35778e-07
4.1133e-08
3.72499e-08
3.45343e-08
1.71713e-08
1.79833e-08
1.08156e-08
-4.30535e-09
-1.57482e-07
-2.73749e-07
-7.52543e-10
-1.98489e-07
-2.55703e-08
3.15699e-08
-1.71495e-07
-1.39786e-08
4.34661e-08
4.67261e-08
5.00856e-08
4.35573e-08
-3.77542e-09
-2.31588e-07
-9.2207e-09
-1.78358e-07
-4.03497e-07
-1.9638e-08
-4.37072e-09
2.20681e-08
2.77014e-08
6.74512e-08
1.86572e-08
3.69357e-08
4.27535e-08
2.66527e-08
4.93474e-09
-5.84329e-10
6.99114e-09
8.35491e-09
5.14144e-08
3.9038e-09
3.86177e-08
-1.21497e-09
5.95277e-09
-9.9264e-08
4.38608e-10
-4.41176e-10
-1.60793e-10
1.85755e-10
4.49875e-10
-1.75449e-10
-2.2815e-17
4.04719e-18
-3.02659e-17
4.99447e-18
2.32168e-18
1.44982e-16
-3.25391e-17
9.79474e-17
2.9783e-18
5.44146e-23
-3.54544e-21
-2.92571e-23
-2.696e-20
-1.64303e-20
-2.73853e-20
-1.61365e-20
6.70366e-24
-1.04213e-24
-7.77899e-26
1.01968e-24
-2.9785e-26
-1.09783e-29
4.25985e-27
-2.52568e-27
-3.99891e-29
8.93076e-31
-1.52524e-28
1.98406e-33
1.71409e-34
-6.34952e-31
-3.70993e-36
1.16933e-37
-1.85914e-34
-5.67968e-40
8.90501e-41
-6.30867e-38
1.9749e-42
6.61565e-44
-2.91933e-41
2.49781e-45
4.83289e-47
-1.71695e-44
1.69841e-48
3.51461e-50
-6.50195e-48
-1.90113e-50
2.54477e-53
-1.47563e-51
-5.19656e-56
1.83809e-56
-3.18163e-55
4.55742e-57
1.32358e-59
1.41396e-58
-1.645e-61
9.60125e-63
-4.75234e-61
6.09234e-64
6.85263e-66
-1.06401e-63
-5.4182e-67
4.80788e-69
-7.44499e-69
9.60301e-70
3.41459e-72
2.40247e-71
-1.29131e-74
2.41254e-75
6.74751e-74
-3.8403e-76
1.69702e-78
-7.13406e-77
3.80106e-80
1.18881e-81
-8.55861e-83
1.50466e-83
8.31555e-85
-1.575e-83
-6.54431e-87
5.79127e-88
6.34366e-89
3.17313e-89
4.03655e-91
3.61272e-92
3.34721e-92
2.8151e-94
-2.0623e-92
3.74317e-95
1.94808e-97
-8.98963e-96
-8.00608e-98
1.33683e-100
4.00788e-101
1.17371e-101
9.20915e-104
-1.89339e-102
1.62572e-105
6.32511e-107
4.16829e-106
4.58743e-108
4.33652e-110
-6.70689e-109
-7.32957e-113
2.95977e-113
-1.54543e-111
8.75093e-114
2.01531e-116
1.54812e-116
-5.84323e-122
1.37076e-119
-2.61183e-118
1.05274e-120
9.29974e-123
-7.33937e-122
-2.06695e-126
6.29756e-126
8.7593e-125
4.03872e-127
4.25786e-129
-9.31537e-128
-7.04731e-131
2.87157e-132
7.67391e-131
-1.21686e-133
1.93304e-135
-2.93418e-134
1.75618e-136
1.29915e-138
1.26624e-136
2.67354e-139
8.68967e-142
9.31095e-141
5.93279e-143
5.71172e-145
1.2218e-143
1.50785e-146
1.41981e-147
-6.64791e-155
-4.30496e-09
1.73518e-08
-1.15587e-07
2.8663e-08
1.22014e-08
2.67503e-07
-5.46564e-08
-3.39404e-09
-1.31134e-07
-3.87783e-08
-5.85287e-08
-4.40943e-08
9.16526e-09
7.83467e-09
7.76673e-09
1.44065e-08
8.39859e-07
9.2231e-07
7.83803e-07
7.80517e-07
-2.11778e-07
-4.81279e-08
-1.20814e-07
-3.1221e-08
-2.44707e-08
-2.08366e-08
-2.38639e-08
-2.51576e-08
-3.33164e-07
-2.10509e-08
-9.56705e-09
-1.52497e-08
-4.94909e-09
5.68823e-08
1.53301e-09
2.64962e-09
-2.94182e-08
5.43559e-09
4.86473e-09
1.56187e-08
5.98382e-10
-1.39114e-10
3.87961e-10
-5.59376e-10
1.87762e-10
-2.43067e-10
-1.05661e-14
-2.6736e-16
-1.0618e-15
-7.08576e-15
-1.70718e-16
5.75001e-16
-7.42315e-22
-1.30954e-17
1.40904e-21
3.77022e-19
6.35385e-18
3.70386e-19
6.28525e-18
-1.29766e-17
-1.29748e-17
-1.29757e-17
-4.52397e-25
-1.43617e-22
1.12559e-25
2.15915e-25
-5.3977e-25
8.87697e-29
7.80305e-26
-1.23824e-26
-4.28422e-29
9.99211e-28
-5.11417e-28
1.82986e-30
6.27856e-31
-1.84516e-30
-2.12655e-33
7.42838e-35
-7.452e-34
-5.7383e-37
3.78054e-38
-1.95944e-37
-2.14992e-40
2.97021e-41
-7.45436e-41
1.15727e-42
2.22205e-44
-3.42456e-44
1.30555e-45
1.62208e-47
-1.47436e-47
4.72159e-48
1.18018e-50
-7.96815e-51
4.35059e-53
8.5529e-54
-3.68637e-54
7.01738e-55
6.17131e-57
-1.40517e-57
-2.44507e-58
4.43435e-60
-5.40928e-61
8.39456e-61
3.17009e-63
-1.5027e-64
-2.09723e-64
2.25766e-66
9.71433e-68
-5.81702e-69
1.60338e-69
-8.9612e-71
1.194e-70
1.13435e-72
7.89956e-74
-5.44934e-74
7.99117e-76
3.64163e-76
-3.82737e-77
5.6201e-79
4.45642e-80
-2.26106e-80
3.94092e-82
-9.49871e-83
3.45406e-83
2.75406e-85
3.88966e-86
-4.09139e-92
1.92134e-88
-4.33024e-90
-2.47515e-95
1.33478e-91
2.01855e-92
-8.35147e-93
9.23291e-95
6.01457e-97
-3.96296e-96
6.37804e-98
1.05404e-98
8.5628e-100
4.39495e-101
-5.04079e-103
-1.06174e-102
3.01876e-104
9.03631e-106
6.09585e-106
2.06941e-107
-9.45202e-109
-5.1831e-109
1.41431e-110
6.55124e-112
5.02648e-113
9.6347e-114
2.35556e-114
1.10614e-114
6.5511e-117
1.91115e-118
1.24021e-118
4.44381e-120
3.94915e-121
-9.86708e-122
3.01013e-123
-5.05855e-124
8.98911e-126
2.03544e-126
-8.51431e-127
4.22103e-128
1.37224e-129
5.16542e-130
1.42673e-130
9.22538e-133
2.21364e-133
-1.12877e-139
6.19059e-136
1.1032e-136
-6.14785e-137
4.1426e-139
5.2324e-140
3.09162e-140
2.72012e-142