/*--------------------------------*- C++ -*----------------------------------*\
| =========                 |                                                 |
| \\      /  F ield         | OpenFOAM: The Open Source CFD Toolbox           |
|  \\    /   O peration     | Version:  5.0                                   |
|   \\  /    A nd           | Web:      www.OpenFOAM.org                      |
|    \\/     M anipulation  |                                                 |
\*---------------------------------------------------------------------------*/
FoamFile
{
    version     2.0;
    format      ascii;
    class       volScalarField;
    location    "4.8";
    object      p_rgh;
}
// * * * * * * * * * * * * * * * * * * * * * * * * * * * * * * * * * * * * * //

dimensions      [1 -1 -2 0 0 0 0];

internalField   nonuniform List<scalar> 
9207
(
92.7593
121.87
108.953
105.906
106.455
99.991
99.443
95.9793
92.4465
89.9126
87.2971
84.7217
82.1646
79.6505
77.1568
74.6912
72.2419
69.8262
67.4329
65.0671
62.7025
60.3605
58.048
55.7291
53.4352
51.1617
48.8895
46.6177
44.3645
42.1381
39.9072
37.7011
35.5253
33.3369
31.144
28.9842
26.8776
24.8072
22.7465
20.6762
18.6354
16.6398
14.6474
12.6291
10.6359
8.69179
6.75058
4.80257
2.87509
0.961376
92.5756
97.3865
111.024
101.98
102.71
108.154
99.6398
96.1894
92.5353
89.935
87.3065
84.7218
82.1845
79.6603
77.1554
74.6957
72.24
69.8407
67.4551
65.0688
62.7098
60.364
58.0421
55.7292
53.4245
51.1427
48.8792
46.6199
44.3722
42.1404
39.9211
37.7136
35.5198
33.3316
31.1469
28.9912
26.8741
24.791
22.7246
20.6742
18.6405
16.6428
14.6506
12.6434
10.6424
8.68114
6.73657
4.80055
2.87931
0.9618
97.7657
102.831
98.3913
97.5027
108.433
100.192
99.5676
96.5994
92.4968
89.8583
87.2758
84.6889
82.1497
79.6462
77.1525
74.6802
72.2497
69.8563
67.4685
65.0661
62.7085
60.366
58.0323
55.7265
53.4281
51.1389
48.8687
46.6254
44.3822
42.1414
39.9252
37.7124
35.4994
33.3175
31.158
29.0064
26.8727
24.7811
22.722
20.6756
18.6507
16.6436
14.644
12.6451
10.653
8.67981
6.73531
4.80325
2.88204
0.962046
95.8618
93.9964
96.4022
95.4735
102.013
98.2121
98.5305
97.3667
93.0974
89.6536
87.2101
84.6713
82.1309
79.627
77.1474
74.682
72.2496
69.8512
67.4485
65.0692
62.7181
60.366
58.0362
55.7273
53.4388
51.1492
48.8675
46.6319
44.3796
42.1319
39.9253
37.7066
35.4936
33.3124
31.1649
29.0231
26.8799
24.778
22.7241
20.6847
18.6549
16.6295
14.6182
12.6363
10.6609
8.68286
6.73524
4.81021
2.88778
0.956776
96.6374
95.7939
98.467
100.675
94.3844
97.8145
97.7699
97.7596
92.9157
89.5919
87.1837
84.6341
82.1243
79.6189
77.1506
74.6878
72.261
69.8424
67.4276
65.0722
62.7224
60.3668
58.042
55.7298
53.4468
51.1635
48.8767
46.6255
44.3637
42.1243
39.9193
37.6982
35.4906
33.3107
31.1638
29.0318
26.889
24.7814
22.7268
20.6919
18.654
16.6162
14.6012
12.6263
10.6586
8.68422
6.74037
4.82484
2.8958
0.954706
98.5043
97.6264
99.4052
98.8
95.3218
97.3362
97.7691
97.5933
92.8968
89.6117
87.1896
84.6401
82.1287
79.628
77.1669
74.7024
72.272
69.8462
67.4225
65.0569
62.7156
60.358
58.0402
55.7402
53.4521
51.1752
48.8867
46.6201
44.3567
42.1165
39.9113
37.694
35.4842
33.3132
31.1703
29.0343
26.9002
24.7934
22.7309
20.6931
18.6471
16.6006
14.586
12.6142
10.6506
8.68727
6.75638
4.8467
2.90607
0.957881
100.06
105.755
102.061
99.7531
100.13
98.3284
98.6294
98.05
92.4909
89.8193
87.2567
84.6864
82.1679
79.6537
77.1694
74.7038
72.2722
69.854
67.4268
65.0491
62.7052
60.3599
58.0404
55.7491
53.4598
51.1787
48.8939
46.6168
44.3551
42.1235
39.91
37.6827
35.4779
33.3196
31.1722
29.0287
26.9062
24.8069
22.7331
20.6845
18.6401
16.5968
14.586
12.6129
10.6474
8.68895
6.76248
4.84635
2.90946
0.966166
102.151
97.9009
100.019
109.496
104.293
100.826
99.474
97.4307
92.52
89.8942
87.284
84.7079
82.181
79.6608
77.1527
74.709
72.2645
69.8425
67.4393
65.043
62.6958
60.3562
58.0401
55.7509
53.4594
51.1806
48.8952
46.6142
44.3745
42.1369
39.9051
37.6792
35.4833
33.3272
31.1705
29.0175
26.9058
24.8182
22.7383
20.6776
18.6351
16.6038
14.5961
12.6149
10.6453
8.69085
6.761
4.83589
2.90766
0.971078
111.275
103.139
100.165
86.1085
100.512
100.33
99.6789
96.1757
92.4759
89.9258
87.3054
84.732
82.1868
79.6623
77.166
74.7096
72.2476
69.8315
67.437
65.0522
62.69
60.3501
58.0446
55.7463
53.4615
51.1816
48.8913
46.615
44.3642
42.1323
39.8945
37.6787
35.495
33.331
31.1627
29.0081
26.9015
24.8222
22.7426
20.6768
18.6331
16.6144
14.6132
12.617
10.6413
8.69218
6.75404
4.82472
2.89597
0.972193
109.876
106.801
112.569
107.609
98.6107
99.0711
99.1907
95.917
92.4199
89.898
87.2969
84.7195
82.1612
79.6594
77.1636
74.6959
72.2445
69.8276
67.4309
65.0548
62.6927
60.3526
58.0479
55.7352
53.4492
51.1768
48.895
46.6164
44.3614
42.1332
39.8971
37.6864
35.5164
33.3371
31.1514
28.9935
26.8894
24.8169
22.7456
20.6756
18.6342
16.6295
14.6318
12.6182
10.636
8.69542
6.75529
4.81345
2.884
0.961519
89.3421
125.501
101.73
109.354
101.958
99.7231
99.4924
95.9768
92.4469
89.9124
87.2972
84.7218
82.1645
79.6506
77.1568
74.6907
72.2418
69.8263
67.433
65.0669
62.7025
60.3607
58.0479
55.729
53.4352
51.1618
48.8894
46.6177
44.3644
42.1381
39.9071
37.701
35.5253
33.3367
31.144
28.9841
26.8775
24.8073
22.7464
20.676
18.6353
16.6398
14.6474
12.6291
10.6359
8.692
6.75051
4.80257
2.87511
0.961459
94.5307
98.8947
100.472
100.802
99.2885
108.44
99.6497
96.1886
92.5358
89.9348
87.3065
84.7218
82.1844
79.6603
77.1554
74.6955
72.24
69.8408
67.455
65.0687
62.7098
60.364
58.042
55.7291
53.4245
51.1427
48.879
46.6199
44.3722
42.1404
39.9216
37.7136
35.5197
33.3312
31.1468
28.9912
26.8741
24.7911
22.7245
20.6739
18.6404
16.6434
14.6505
12.6432
10.6425
8.68114
6.73638
4.80054
2.87924
0.961747
98.2625
103.959
94.3547
97.7527
107.627
99.7167
99.5277
96.588
92.4982
89.8582
87.2758
84.6888
82.1496
79.6461
77.1524
74.6802
72.2497
69.8562
67.4688
65.066
62.7083
60.366
58.0322
55.7267
53.4281
51.1388
48.8688
46.6254
44.3826
42.1415
39.925
37.7124
35.4995
33.3176
31.1581
29.0064
26.8725
24.7811
22.722
20.6755
18.6507
16.6437
14.6439
12.645
10.653
8.67976
6.73505
4.80331
2.88206
0.962033
96.2486
94.1055
96.5281
94.4563
100.771
97.2807
98.4757
97.2633
93.0961
89.6534
87.2099
84.6713
82.1309
79.627
77.1474
74.6819
72.2495
69.851
67.4484
65.0691
62.7181
60.3659
58.0361
55.7275
53.4387
51.1491
48.8676
46.632
44.3798
42.1317
39.9251
37.7066
35.4936
33.3124
31.1649
29.023
26.8798
24.778
22.724
20.6847
18.6549
16.6295
14.6182
12.6364
10.6612
8.68285
6.73514
4.81022
2.88778
0.956666
96.4437
95.7821
97.6136
100.181
94.3567
97.6967
97.7341
97.7778
92.9152
89.5927
87.1836
84.6341
82.1239
79.6188
77.1508
74.688
72.261
69.8424
67.4274
65.0723
62.7225
60.3667
58.0416
55.7299
53.4467
51.1636
48.8768
46.6255
44.3635
42.1243
39.9192
37.6981
35.4905
33.3107
31.1638
29.0317
26.8891
24.7813
22.7268
20.6922
18.654
16.6162
14.6011
12.6266
10.6587
8.6842
6.74037
4.82474
2.89571
0.954747
98.5441
101.462
98.6108
98.7101
98.2004
97.836
97.7573
97.5563
92.8937
89.6124
87.1894
84.6401
82.1288
79.628
77.1669
74.7023
72.2719
69.8463
67.4224
65.0569
62.7156
60.358
58.04
55.7402
53.4522
51.1752
48.8867
46.62
44.3567
42.1166
39.9113
37.6939
35.4841
33.3137
31.1704
29.0342
26.9003
24.7934
22.7309
20.6932
18.647
16.6005
14.586
12.6142
10.6505
8.68724
6.75633
4.84672
2.90579
0.957855
99.825
114.569
128.109
99.6772
99.2716
98.3579
98.6044
98.0781
92.4912
89.8192
87.2566
84.6863
82.1678
79.6537
77.1694
74.7038
72.2721
69.8539
67.4268
65.0491
62.7052
60.3599
58.0405
55.749
53.4597
51.1787
48.8939
46.6168
44.3553
42.1234
39.9103
37.6825
35.4779
33.3196
31.172
29.0286
26.9062
24.8069
22.7331
20.6846
18.6401
16.5966
14.586
12.6129
10.6472
8.68893
6.76281
4.84643
2.90936
0.966274
101.905
97.4339
98.3435
100.796
101.455
101.39
99.4166
97.2925
92.5207
89.8941
87.2839
84.7079
82.181
79.6608
77.1527
74.709
72.265
69.8423
67.4398
65.043
62.6958
60.3562
58.0402
55.7509
53.4594
51.1809
48.8952
46.6141
44.3743
42.137
39.905
37.6792
35.4833
33.3272
31.1705
29.0175
26.9058
24.8182
22.7382
20.6775
18.635
16.6038
14.5961
12.6149
10.6453
8.69083
6.76099
4.83587
2.90763
0.971045
111.068
113.331
114.779
110.472
100.962
100.768
99.6959
96.1675
92.4766
89.9254
87.3054
84.7321
82.1867
79.6622
77.1659
74.7098
72.2477
69.8307
67.437
65.0523
62.69
60.3501
58.0446
55.7463
53.4614
51.1816
48.8911
46.6151
44.3642
42.1323
39.8946
37.6785
35.4954
33.3311
31.1627
29.0081
26.9015
24.822
22.7425
20.6767
18.6331
16.6145
14.6131
12.6168
10.6413
8.69214
6.75394
4.82468
2.89599
0.972187
104.647
104.029
112.693
113.426
106.926
99.046
99.2013
95.9139
92.4203
89.8977
87.297
84.7194
82.161
79.6593
77.1636
74.6962
72.2445
69.8276
67.431
65.0547
62.6926
60.3524
58.0479
55.7352
53.4493
51.1767
48.8948
46.6164
44.3615
42.1332
39.897
37.6863
35.5165
33.337
31.1513
28.9936
26.8893
24.8169
22.7455
20.6756
18.6341
16.6295
14.6318
12.6181
10.636
8.69544
6.75506
4.81345
2.88408
0.961511
79.6665
88.5419
102.703
97.9885
97.4268
99.6771
99.4874
95.9801
92.4464
89.9125
87.2972
84.7218
82.1637
79.6505
77.1567
74.6904
72.2418
69.8263
67.433
65.0667
62.7022
60.3607
58.0478
55.7288
53.4352
51.1618
48.8892
46.6176
44.3641
42.1376
39.9072
37.7011
35.5253
33.3365
31.1438
28.9841
26.8774
24.8073
22.7464
20.6759
18.6351
16.6398
14.6475
12.6292
10.6359
8.69199
6.75038
4.80249
2.87505
0.961448
92.3959
100.537
97.762
96.2225
102.041
98.7503
99.643
96.189
92.5352
89.9349
87.3064
84.7217
82.1843
79.6602
77.1553
74.6952
72.2399
69.8409
67.4548
65.0686
62.7097
60.3644
58.0418
55.7288
53.4247
51.1428
48.8788
46.6198
44.3722
42.1407
39.9217
37.7136
35.5196
33.3311
31.1468
28.9911
26.874
24.7915
22.7243
20.6738
18.6404
16.6434
14.6504
12.6424
10.6425
8.68124
6.73624
4.80047
2.87916
0.961546
97.9855
102.105
94.5789
97.638
99.4918
98.9547
99.5381
96.5919
92.4982
89.8582
87.2757
84.6888
82.1495
79.6461
77.1524
74.6801
72.2496
69.8556
67.4686
65.0659
62.7081
60.3659
58.032
55.7271
53.428
51.1387
48.8687
46.6253
44.3826
42.1415
39.9247
37.712
35.4996
33.3177
31.1581
29.0063
26.8723
24.7811
22.7219
20.6755
18.651
16.6437
14.644
12.6447
10.6529
8.67969
6.73496
4.80331
2.88202
0.961701
95.5897
95.2109
96.3063
94.9043
96.7816
98.7895
98.4947
97.2681
93.0972
89.6524
87.2099
84.6712
82.1308
79.6269
77.1473
74.6818
72.2495
69.8508
67.4483
65.0689
62.7181
60.3659
58.036
55.7275
53.4384
51.1488
48.8677
46.6319
44.3797
42.1317
39.925
37.7065
35.4935
33.3123
31.1649
29.0229
26.8797
24.778
22.7241
20.6846
18.6549
16.6294
14.6181
12.6364
10.6611
8.68277
6.73501
4.81019
2.88765
0.956338
96.8874
96.7493
97.9886
102.324
93.9969
97.4458
97.7485
97.7747
92.9158
89.5925
87.1837
84.6339
82.1236
79.6188
77.1507
74.6879
72.2609
69.8423
67.4273
65.0723
62.7225
60.3666
58.0416
55.7299
53.4464
51.1636
48.8769
46.6254
44.3634
42.1242
39.919
37.6981
35.4904
33.3106
31.1638
29.0317
26.8893
24.7813
22.7268
20.6924
18.6537
16.6163
14.6012
12.6268
10.6587
8.68413
6.74053
4.82462
2.89563
0.954656
98.5254
98.0195
98.3079
98.5428
99.1452
97.5094
97.7783
97.5522
92.8943
89.6119
87.1893
84.6399
82.1291
79.6279
77.167
74.7023
72.2718
69.8463
67.4222
65.0568
62.7157
60.3579
58.0399
55.7402
53.4522
51.1751
48.8866
46.6198
44.3567
42.1171
39.9115
37.6937
35.4839
33.3142
31.1703
29.0341
26.9003
24.7934
22.7308
20.6933
18.6469
16.6001
14.5859
12.6142
10.6504
8.68717
6.75632
4.84672
2.90536
0.957812
100.318
103.294
109.471
99.8287
99.4307
98.2414
98.602
98.0773
92.4909
89.8192
87.2566
84.6863
82.1677
79.6536
77.1693
74.7037
72.2721
69.8537
67.4267
65.049
62.7052
60.3598
58.0404
55.749
53.4595
51.1787
48.8938
46.617
44.3556
42.1233
39.9101
37.6823
35.4779
33.3196
31.1719
29.0285
26.9061
24.8068
22.733
20.6845
18.64
16.5964
14.5862
12.6129
10.6471
8.68886
6.76284
4.84623
2.90907
0.966228
102.228
95.2062
119.25
103.682
104.036
101.104
99.4112
97.2981
92.5203
89.8941
87.2838
84.7078
82.1809
79.6607
77.1526
74.7089
72.2653
69.842
67.4398
65.043
62.6957
60.3562
58.0403
55.7508
53.4592
51.181
48.8951
46.614
44.3743
42.137
39.9049
37.6791
35.4832
33.3271
31.1704
29.0174
26.9058
24.818
22.7382
20.6774
18.6346
16.6038
14.596
12.6148
10.6452
8.69076
6.76093
4.83582
2.90761
0.970891
111.201
105.862
111.541
99.88
99.2129
100.814
99.6464
96.1698
92.4763
89.9256
87.3053
84.732
82.1867
79.6622
77.1659
74.7099
72.2477
69.8306
67.4369
65.0523
62.6899
60.35
58.0445
55.7462
53.4613
51.1815
48.891
46.6151
44.3643
42.1324
39.8946
37.6784
35.4959
33.331
31.1625
29.0081
26.9015
24.8219
22.7424
20.6767
18.6332
16.6145
14.6129
12.6166
10.6412
8.69207
6.7538
4.82461
2.89613
0.972096
109.996
105.063
110.982
118.459
110.485
98.9833
99.2009
95.9141
92.4198
89.8978
87.297
84.7192
82.1608
79.6593
77.1635
74.6964
72.2444
69.8276
67.431
65.0546
62.6925
60.3522
58.0478
55.7351
53.4493
51.1766
48.8948
46.6164
44.3618
42.1331
39.8967
37.6862
35.5166
33.3369
31.1512
28.9936
26.8893
24.8168
22.7455
20.6755
18.6341
16.6294
14.6317
12.618
10.6359
8.69539
6.75489
4.81322
2.88407
0.961436
99.3332
100.602
98.9191
99.7619
99.3359
100.189
98.8999
99.9397
105.206
99.6347
108.463
99.9712
99.9619
99.6214
99.8071
98.5907
98.9739
99.7808
99.8032
99.2889
98.9571
98.6684
97.9391
97.841
99.1051
98.6462
97.924
97.7305
97.5472
100.503
97.2382
97.6504
97.4879
101.5
97.1792
97.4943
98.8622
98.1299
97.3908
97.4809
98.7941
98.1319
98.2216
100.041
99.2881
98.1857
98.2063
100.103
99.2522
99.571
100.719
99.8064
101.239
99.5729
100.725
99.8144
99.7119
98.6088
99.2586
100.5
99.7176
98.6969
99.2555
99.2373
98.9664
98.8704
99.0485
99.2118
99.0576
98.8705
99.3347
100.26
98.905
99.7202
99.3335
101.732
98.9002
99.9179
100.204
99.6391
100.286
99.9302
100.375
99.6438
99.799
98.876
98.8703
98.8974
99.802
100.233
98.9715
98.6045
97.8827
97.7045
98.1354
98.6393
97.6265
97.6763
97.485
100.36
97.1533
97.5003
97.4816
91.2968
97.1257
97.4482
98.7615
98.1495
97.2323
97.4688
98.4395
98.1365
98.6137
100.042
99.2621
98.221
98.5837
99.904
99.2456
99.5672
100.808
99.7929
101.158
99.5594
100.66
99.805
99.723
98.6794
99.252
100.826
99.7441
99.0392
99.2468
99.2697
99.1368
98.8703
99.0337
99.2098
99.2411
98.8711
99.3349
102.035
98.9009
100.392
99.3307
102.567
98.901
99.9569
100.537
99.6745
95.2339
99.9353
100.878
99.6539
99.872
98.6056
98.9463
98.9917
99.7953
98.8364
98.9569
98.6273
98.58
97.7371
98.1974
98.6305
98.1629
97.6658
97.4331
91.7716
97.1108
97.4479
97.4379
101.901
97.1253
97.4704
98.219
98.1416
99.0394
97.4686
98.9235
98.1391
98.5194
99.9001
99.2588
98.6122
98.6709
99.8891
99.2493
99.5585
100.806
99.8174
101.311
99.5548
100.981
99.798
99.7538
99.8621
99.243
100.816
99.7468
98.2733
99.2381
99.2083
99.3573
98.8738
99.026
99.2169
99.4017
98.8732
103.423
98.4173
98.5049
114.023
102.299
97.4918
97.227
97.7587
99.775
95.9285
99.745
96.6609
97.9597
99.6275
97.3285
99.0172
97.2389
99.4874
97.3384
98.9988
97.2456
109.409
94.495
100.495
100.958
104.634
110.805
97.3223
100.043
101.716
104.041
108.728
101.798
105.134
99.5755
97.5508
99.4551
97.8018
99.6534
97.5582
99.4627
97.8051
96.5423
98.9579
97.6211
135.289
98.0519
98.8943
100.754
102.052
100.14
101.315
100.34
100.2
101.004
102.066
97.7798
98.7641
98.3589
99.6002
97.6352
98.7141
98.4042
108.472
97.1233
98.9317
100.931
102.696
97.4253
98.8227
97.9452
98.553
94.5127
98.3068
98.3627
94.0096
98.1542
98.4695
98.1023
98.0273
98.4933
98.4721
98.0942
98.0296
98.3659
97.0719
106.739
94.3589
99.2714
101.405
107.819
96.0902
96.9793
94.0225
97.746
96.9054
94.054
96.0938
97.9245
97.5629
97.7907
97.7416
97.924
97.5624
97.8104
101.141
100.121
107.588
96.616
103.145
99.9574
106.96
96.9148
97.4072
96.4425
97.402
97.411
96.4316
96.9169
97.8101
98.0733
98.1881
97.7615
97.8412
98.0735
98.1875
99.9585
98.8732
98.9859
101.084
100.42
97.6723
99.4221
98.8296
98.6213
100.404
98.2219
98.4171
99.5182
98.7654
98.3671
99.0083
98.8256
98.5976
98.3687
99.0062
98.8266
104.643
101.701
104.846
100.301
102.314
101.493
101.884
100.186
100.702
119.448
101.019
100.698
108.101
100.187
98.8121
99.5871
98.2007
99.4247
98.8476
99.5745
98.0592
100.126
106.328
100.701
100.955
101.759
106.642
100.692
101.44
99.6791
97.0921
100.528
99.8089
101.244
100.722
97.8429
99.2832
97.2261
99.7235
97.7278
99.2885
97.2303
100.964
98.3109
97.5757
100.894
100.202
98.0633
97.7744
99.1076
99.428
99.5674
99.0696
99.3909
99.4384
99.215
97.1736
99.0167
97.1286
99.2009
97.1807
99.0494
97.1368
106.493
97.5668
106.535
101.158
101.226
98.1636
105.851
98.2333
99.6183
99.4312
100.777
98.2308
103.589
99.6091
97.3372
99.0136
97.2426
99.4905
97.3351
99.0105
97.2433
104.925
106.001
118.718
97.6173
102.227
93.8423
106.121
99.7198
101.395
105.567
109.12
100.466
101.406
106.525
97.5549
99.4956
97.8026
99.6435
97.554
99.4543
97.8034
99.0976
98.5854
98.2419
100.446
105.862
98.331
101.748
101.834
100.028
100.759
99.6886
101.945
100.029
100.641
97.6247
98.6607
98.4094
99.5552
97.6281
98.7252
98.4131
101.978
96.7029
98.8228
103.29
98.8341
96.7903
98.5816
98.2905
98.3087
100.469
97.5609
98.2804
98.2955
102.104
98.479
98.0934
98.0302
98.5452
98.4726
98.1018
98.03
100.043
99.657
107.917
94.1954
97.5995
101.394
107.742
95.9693
96.8641
94.3634
97.5916
96.0191
96.8398
94.5174
97.9262
97.5635
97.8392
97.8148
97.9228
97.5624
97.8288
100.355
99.9803
106.975
100.588
103.126
99.4204
106.863
96.8878
97.3632
96.3734
97.8402
96.9016
97.3561
96.4505
97.885
98.0749
98.1899
97.7815
97.8665
98.0813
98.1889
98.5272
97.6332
99.1563
99.5222
99.789
104.1
101.107
98.6328
98.4815
99.3236
98.2031
98.6697
98.4961
99.2889
98.3702
99.0021
98.8344
98.6031
98.3695
99.0017
98.833
103.216
99.9659
107.922
103.699
101.927
99.1711
112.339
100.349
100.695
107.256
101.431
100.676
100.718
107.433
98.8514
99.5859
98.0495
99.446
98.8523
99.592
98.0492
100.731
109.957
101.224
99.2399
107.792
99.1887
100.007
100.43
99.9049
111.524
100.844
100.278
100.858
97.1033
97.7206
99.2879
97.226
99.6504
97.7213
99.2868
97.2264
101.198
101.15
101.199
110.35
100.369
97.0524
99.4321
99.0946
99.2829
99.6179
99.0413
99.093
99.2975
100.09
97.1774
99.06
97.1352
99.2012
97.1775
99.0593
97.1334
99.5485
106.611
105.738
103.92
101.565
102.662
108.851
98.2583
99.5009
112.378
99.6352
99.4599
94.3144
99.4586
97.3367
99.0024
97.2462
99.4407
97.328
99.0211
97.2382
104.344
94.2772
103.264
99.0982
105.705
99.7209
101.124
99.5051
101.257
101.995
94.4002
99.6193
101.292
100.893
97.5568
99.4935
97.8065
99.6312
97.5486
99.4748
97.8023
103.646
99.6855
89.6538
95.9104
107.702
99.805
85.4835
101.667
100.026
103.698
98.7762
101.642
100.116
102.483
97.6358
98.8146
98.4034
99.5704
97.7817
98.7408
98.3598
96.131
97.2875
98.4921
96.0003
96.1626
97.8108
98.293
98.1527
98.3127
101.869
98.5401
97.9771
98.3264
101.861
98.4706
98.085
98.0327
98.4842
98.4699
98.0842
98.0281
98.3724
96.4856
108.615
94.3918
98.4083
99.171
95.4082
95.8743
96.7508
95.243
97.4322
96.0105
96.7613
95.1494
97.9313
97.5657
97.8584
97.7445
97.9247
97.5641
97.7955
102.12
99.3589
105.021
98.6645
93.6362
99.3362
112.985
96.852
97.329
96.7957
96.9513
96.8496
97.3092
96.733
97.8944
98.0807
98.1951
97.774
97.8428
98.0765
98.1965
98.909
103.178
98.5879
99.3614
102.86
101.875
98.3389
98.6956
98.5489
99.2478
98.1168
98.7351
98.5945
99.2505
98.372
99.0002
98.8273
98.6312
98.3672
99.002
98.8269
102.14
98.9668
111.682
105.657
102.861
99.1027
120.35
100.705
100.677
106.198
101.269
100.007
100.862
107.506
98.8499
99.6324
98.061
99.4406
98.8108
99.6015
98.1925
107.712
93.6032
100.344
99.806
108.737
99.0338
96.1351
100.303
101.59
101.683
100.825
100.319
101.548
100.283
97.7288
99.2868
97.2308
99.6692
97.8432
99.2804
97.2264
99.7797
97.5618
99.5138
115.381
100.56
100.912
99.4723
99.2095
99.3754
99.8289
98.9423
99.2005
99.4832
99.873
97.1806
99.0518
97.1357
99.1913
97.1731
99.0127
97.1287
98.321
99.44
98.5445
99.3364
98.5426
98.339
99.4378
100.26
101.033
98.885
100.256
96.7267
98.8091
100.353
99.8454
99.7076
99.3423
98.8889
99.7056
99.3225
99.8804
97.7118
100.059
99.617
99.0605
98.378
97.7125
99.6259
98.4114
99.3381
99.4325
98.544
98.5431
98.331
99.4389
100.197
100.52
100.689
98.8057
99.9557
98.8081
100.146
99.8475
98.8979
99.7054
99.3278
99.7059
99.3422
99.7812
99.8304
100.79
99.5029
99.932
100.771
99.4475
99.828
98.9776
97.611
100.301
111.729
97.4324
100.201
98.9627
100.24
99.6594
100.041
99.6232
99.5996
100.061
100.258
99.3692
108.472
101.43
105.01
101.639
104.826
99.3531
99.8232
99.9324
100.737
99.4606
100.801
99.4948
99.8551
98.8325
100.163
98.0248
100.149
98.4971
100.149
98.8907
100.235
99.6732
99.6024
100.033
99.6394
100.043
100.23
100.562
99.9187
99.9213
99.7972
99.9066
99.9554
100.55
101.208
113.137
98.7937
98.4856
108.367
98.7943
101.228
100.548
99.6933
99.1249
98.9583
99.6497
99.1311
100.46
102.023
99.8287
100.068
101.55
100.07
101.744
102.021
100.569
99.9004
99.927
99.9173
99.9309
99.9818
100.552
100.98
98.6624
104.703
98.7878
109.386
98.7982
101.121
100.42
99.0094
99.5922
99.0749
99.6046
99.0751
100.476
98.1419
98.519
98.1949
98.6301
98.5181
98.2127
98.1529
98.0618
99.168
97.5425
97.9364
99.2062
97.4814
98.0652
97.9282
98.0136
97.5189
97.7226
98.0086
97.4681
97.9321
98.0102
100.982
98.316
109.172
98.2896
93.4903
98.1133
98.1544
98.6282
98.5122
98.243
98.5126
98.2682
98.245
98.0631
97.9332
99.1593
97.5252
99.1907
97.4877
98.0693
97.9309
97.7179
98.0134
97.4908
97.9993
97.4741
97.9373
97.0485
97.3344
97.1944
97.5436
97.3285
97.1986
97.0399
97.5979
97.2325
97.7513
100.508
97.1957
97.7471
97.6127
97.3416
97.2557
97.367
97.1836
97.2403
97.3539
97.3741
96.1031
97.711
96.8742
94.2352
96.8826
94.0883
96.0571
97.0089
97.5938
97.3332
97.1714
97.3545
97.2507
97.0162
97.5767
100.419
96.891
97.7389
97.2103
97.7451
97.6574
97.3047
97.1696
97.2368
97.3402
97.2279
97.3517
97.3212
97.3041
97.4592
97.4828
97.4862
97.465
97.4777
97.3043
98.0351
97.7504
98.1286
98.7719
97.7483
98.0735
98.0633
97.6589
97.7709
98.1153
98.129
97.7656
98.1118
97.6635
96.9198
97.8591
97.5342
96.4284
97.3991
96.4519
96.9061
97.3015
97.4655
97.48
97.475
97.4752
97.4785
97.2984
98.0471
98.6902
97.6838
98.1031
97.7544
98.098
97.961
97.6457
98.1374
97.7604
98.0997
97.7704
98.1052
97.6444
98.6296
98.7246
98.6803
98.3344
98.3354
98.6729
98.6453
99.9379
99.4173
99.7778
100.078
99.0169
99.7196
99.4976
99.1154
98.9857
99.4426
99.2427
99.0262
99.3584
99.0509
98.6911
98.1879
98.4516
99.3396
98.4226
99.3706
98.7336
98.6314
98.2218
98.2243
98.6658
98.3956
98.6677
98.6309
99.6246
100.082
99.2052
99.8019
99.0364
99.7299
99.0071
99.0776
99.2883
98.9889
99.3837
99.0052
99.3987
99.0802
100.139
100.198
99.7934
99.5776
100.158
99.7721
100.104
100.744
98.631
100.816
100.225
98.7319
100.817
100.813
100.005
99.7363
99.9351
99.8077
99.7374
99.955
100.089
100.38
101.222
100.7
107.397
100.707
108.66
100.401
100.171
99.5868
100.166
99.7627
100.167
99.773
100.165
100.768
100.311
99.2329
100.793
98.7134
100.82
100.804
99.9849
99.8303
99.7372
99.9497
99.7523
99.9677
99.9624
99.7171
99.8873
99.6405
99.7145
99.8895
99.6327
99.7143
100.859
102.151
99.4276
98.6021
102.977
99.6921
107.89
99.7484
99.4833
98.9617
99.2512
99.439
98.9557
99.6957
100.847
100.247
100.562
104.198
99.563
104.215
100.608
99.7242
99.7739
99.8872
99.6484
99.8934
99.6317
99.7228
100.985
98.7297
102.353
100.013
102.044
100.279
98.2167
99.6994
99.2723
99.3813
98.9423
99.5179
98.9553
99.6411
99.1822
99.2041
99.1262
99.2093
99.2577
99.1202
99.1807
99.1992
99.4306
98.7376
98.9481
99.4413
99.2101
98.7286
99.2386
99.0782
98.8213
98.8715
99.0782
99.2289
98.8133
99.149
99.0424
99.482
99.4977
99.4811
99.4994
99.15
99.1934
99.2235
99.2666
99.1255
99.1987
99.1272
99.1731
99.2273
99.0459
99.4393
98.7502
99.4225
99.2201
98.7546
99.2542
98.8741
99.0791
98.817
99.0823
99.2256
98.8149
98.3092
99.4306
98.5469
99.3344
98.3174
98.5493
99.4257
101.006
101.131
98.7686
98.9227
100.614
101.219
98.6945
99.7112
99.706
99.3111
98.9001
99.7357
99.7056
99.3116
98.2561
99.9037
99.5701
101.293
102.993
98.1203
99.5907
98.3061
99.3342
99.4155
98.5537
98.5529
98.3232
99.4235
100.78
106.11
102.128
98.8132
99.3741
98.799
100.584
99.7822
98.9043
99.7059
99.345
99.7074
99.3296
99.7704
99.7836
100.768
99.4821
99.9174
99.7755
100.586
99.4738
99.3604
97.9496
100.175
100.598
99.0722
95.7286
100.203
100.203
99.6526
100.058
99.6198
100.247
99.5838
100.053
100.598
117.678
101.253
105.753
102.692
106.261
100.042
99.7574
99.9484
100.525
99.4738
100.566
99.49
99.7577
99.756
103.586
110.946
100.265
112.452
100.236
100.076
100.195
99.6458
99.5915
100.048
99.6287
100.065
100.184
100.511
99.9344
99.944
99.8227
100.585
99.9442
99.9038
100.957
111.742
98.7979
98.9314
101.07
101.437
98.812
100.571
99.6492
99.1067
98.9418
100.518
99.7409
99.0982
101.737
100.59
100.022
111.577
100.061
101.129
101.984
100.517
99.8093
99.8866
99.9009
99.917
99.94
100.551
100.845
98.3629
102.778
98.8577
102.815
98.851
100.76
100.491
98.967
99.6382
99.1034
99.6732
99.0752
100.407
98.2118
98.5137
98.1882
98.6263
98.2045
98.5144
98.2174
98.0786
99.1559
97.5373
97.8581
98.0656
99.1452
97.5378
97.9457
97.9951
97.49
97.7042
97.9424
98.0114
97.484
98.1785
98.1753
98.3028
100.419
98.2948
101.786
98.7571
98.2223
98.6149
98.5034
98.1751
98.5088
98.1973
98.2168
98.0782
97.701
98.6454
97.5239
98.8505
97.5354
98.06
97.9506
97.7054
97.9875
97.5087
97.9947
97.4859
97.959
97.0014
97.3249
97.1512
97.4784
97.0155
97.3271
97.201
97.5196
96.7878
97.7284
100.183
97.5303
96.8272
97.7566
97.3189
97.2126
97.3226
97.1633
97.313
97.1984
97.2968
95.9431
101.169
96.7591
95.3037
96.8142
95.8344
96.006
97.0022
97.5154
97.3224
97.1688
97.3425
97.1887
96.9959
97.5063
115.75
97.3603
97.4374
96.8929
97.759
97.4663
97.3142
97.1352
97.1911
97.238
97.2028
97.2652
97.3
97.2958
97.4728
97.4727
97.4608
97.296
97.4706
97.484
97.9077
97.5248
98.0906
98.9914
97.9552
97.4496
98.088
97.6436
97.7675
98.0979
98.1369
97.6439
97.7498
98.101
96.8754
98.2208
97.3331
96.2256
97.3116
96.2595
96.8565
97.2886
97.4499
97.4584
97.4748
97.4663
97.4651
97.2932
97.8204
99.4798
97.451
98.0441
97.3589
98.0901
97.7565
97.636
98.1426
97.7603
98.0808
97.7797
98.0913
97.6022
98.662
98.3606
98.6661
98.4854
98.6375
98.3505
98.676
99.1215
99.0455
99.7629
99.8923
99.0775
99.054
99.7333
99.0909
99.0077
99.3721
99.2546
99.091
99.0036
99.3556
98.6386
98.2065
98.5342
99.2627
98.5128
99.2592
98.6915
98.638
98.6671
98.3804
98.6712
98.4905
98.6716
98.6681
99.0951
99.8754
99.1389
99.7707
99.1013
99.7788
99.0947
99.1197
99.2447
98.9852
99.3595
99.0251
99.3493
99.0993
100.108
100.159
99.7924
99.5691
100.082
100.154
99.7437
101.505
99.7001
100.819
100.748
101.409
111.358
101.097
99.8659
99.7507
99.9392
99.7906
99.9437
99.7284
99.9559
100.173
101.288
100.691
113.443
100.708
106.77
100.014
100.098
99.5698
100.162
99.7656
100.149
99.7384
100.074
101.592
101.215
102.375
100.913
106.056
100.94
102.998
99.9342
99.7983
99.7482
99.9477
99.7349
99.9607
100.076
99.7074
99.8889
99.6951
99.7286
99.6635
99.8955
99.7099
100.889
102.657
99.9091
98.6874
104.984
102.508
103.155
99.4617
99.7679
98.9297
99.2505
99.4646
100.003
98.9248
100.255
100.822
102.082
102.788
100.879
97.0486
100.347
99.7799
99.73
99.9146
99.6983
99.8981
99.6348
100.095
101.404
98.4753
101.589
97.9632
102.273
98.0674
101.578
99.5155
99.2495
99.8908
98.9372
99.718
98.9325
99.7658
99.1731
99.1435
99.1302
99.2176
99.1751
99.1382
99.1277
99.2264
99.4983
98.7694
99.1634
99.2921
99.5629
98.7984
99.2429
99.0802
98.8161
98.8702
99.2243
99.0802
98.822
99.1172
99.0239
99.3462
99.632
99.3809
99.5442
99.1662
99.1783
99.2303
99.193
99.1277
99.3728
99.1315
99.17
99.2229
99.1983
99.6594
98.8073
99.607
99.2323
98.7979
99.2366
98.8706
99.0808
98.818
99.0813
99.23
98.8171
98.3127
99.411
98.5563
99.3334
98.3235
98.5544
99.3907
100.162
99.0632
98.7545
102.432
101.78
102.718
98.7456
99.756
99.7079
99.3579
98.9021
99.736
99.7056
99.359
98.5913
99.7727
99.5108
96.8346
99.8926
98.5892
99.5318
98.2804
99.3348
99.4123
98.5567
98.5557
98.2492
99.3873
100.191
102.571
100.735
98.8113
100.362
98.8545
100.156
99.7609
98.9019
99.716
99.3991
99.707
99.3653
99.8086
99.7798
100.531
99.511
99.9167
99.7778
100.487
99.4645
100.354
109.05
100.323
100.826
100.204
108.406
100.34
100.185
99.6042
100.069
99.6299
100.179
99.5795
100.044
99.8041
94.6728
101.322
102.81
101.321
101.118
99.7688
99.7989
99.9099
100.47
99.4872
100.475
99.4648
99.825
100.464
100.923
108.101
100.53
108.026
100.351
100.919
100.177
99.6292
99.6163
100.102
99.5777
100.071
100.254
100.513
99.9287
99.9091
99.7959
100.567
99.9255
99.9021
100.578
98.5134
98.8705
98.9907
100.666
98.5625
98.864
100.297
99.6563
99.0868
98.9502
100.431
99.6592
99.0909
101.649
99.0149
100.111
102.747
100.101
102.673
101.674
100.498
99.797
99.9943
99.9172
100.044
99.9058
100.585
100.567
98.833
98.5317
98.8606
98.5249
98.8591
100.688
100.437
98.9503
99.6788
99.1362
99.6633
99.0912
100.26
98.2362
98.5102
98.2396
98.6236
98.2291
98.5117
98.2135
98.0142
98.9113
97.5222
98.6915
98.1548
98.8671
97.5431
97.9657
98.0259
97.5194
97.6498
97.9648
98.0017
97.5239
98.1624
98.4263
98.3521
99.9675
98.3488
99.1654
98.1777
98.2447
98.63
98.5444
98.1996
98.5137
98.2072
98.2465
98.6075
98.501
98.5334
97.5246
100.753
97.5283
98.7867
97.9744
97.6457
98.0393
97.5433
97.9978
97.5302
97.9758
96.9887
97.3221
97.1863
97.443
96.9958
97.3394
97.1874
98.915
107.437
100.363
97.8804
97.6254
93.7693
92.9801
97.3044
97.1806
97.2109
97.106
97.2848
97.1984
97.2343
95.8604
97.4291
96.7874
95.3937
96.7848
95.3982
96.0518
96.9904
97.4365
97.334
97.1875
97.3341
97.1859
97.0151
95.7129
98.1833
94.7127
94.0165
95.5106
92.6033
95.27
97.299
97.1062
97.2059
97.2065
97.1999
97.2062
97.3211
97.2878
97.4622
97.4761
97.4729
97.2881
97.4466
97.4802
97.6659
97.2935
98.0552
98.438
97.7135
97.3024
98.0647
97.5953
97.7664
98.0695
98.1355
97.5831
97.7706
98.0584
96.8617
97.169
97.3102
97.8797
97.2973
96.4324
96.872
97.3002
97.4646
97.4476
97.4768
97.4456
97.4778
97.2942
97.6217
99.1004
97.2799
98.0616
97.2571
98.0556
98.0196
97.6026
98.1353
97.7741
98.0621
97.7704
98.064
97.5968
98.7364
98.4229
98.6655
98.4015
98.7083
98.4896
98.6766
99.117
99.3229
99.7485
99.8747
99.1139
99.1748
99.7629
99.108
98.9943
99.3773
99.242
99.1135
98.9858
99.3734
98.7486
98.1531
98.6105
100.571
98.5861
99.281
98.7934
98.6934
98.6333
98.6407
98.6964
98.6438
98.6927
98.736
99.1183
99.5105
99.396
99.7725
99.3589
99.6744
99.1416
99.123
99.241
99.0085
99.3854
98.9923
99.3887
99.1257
100.06
100.199
99.7445
99.5575
100.057
100.185
99.7508
101.278
124.333
100.778
100.912
101.276
116.162
100.784
99.9389
99.7443
99.9905
99.8061
99.9093
99.7423
99.9721
100.452
101.298
100.835
122.614
100.878
104.678
100.416
99.9235