/*--------------------------------*- C++ -*----------------------------------*\
| =========                 |                                                 |
| \\      /  F ield         | OpenFOAM: The Open Source CFD Toolbox           |
|  \\    /   O peration     | Version:  5.0                                   |
|   \\  /    A nd           | Web:      www.OpenFOAM.org                      |
|    \\/     M anipulation  |                                                 |
\*---------------------------------------------------------------------------*/
FoamFile
{
    version     2.0;
    format      ascii;
    class       surfaceScalarField;
    location    "4.8";
    object      phi;
}
// * * * * * * * * * * * * * * * * * * * * * * * * * * * * * * * * * * * * * //

dimensions      [0 3 -1 0 0 0 0];

internalField   nonuniform List<scalar> 
27454
(
-2.50512e-08
3.5249e-09
1.97024e-08
3.67739e-09
5.88908e-09
-1.31651e-09
4.04029e-08
8.63983e-08
-3.29239e-07
1.89329e-07
1.78747e-08
1.69777e-09
-1.6112e-08
-4.03649e-09
6.655e-09
-5.1403e-09
-6.66225e-10
2.25061e-10
-6.94922e-11
-2.53368e-10
1.77629e-09
-1.82624e-09
7.84914e-10
-3.74821e-11
2.87229e-10
-1.03455e-09
-6.93152e-11
2.58711e-11
-1.08594e-10
1.48765e-10
-3.57305e-11
1.94871e-10
-2.43302e-12
2.54079e-13
-3.2981e-11
-6.52266e-11
-5.91994e-11
1.41668e-09
-3.36351e-12
-2.66261e-11
-2.58206e-10
-2.59318e-10
-4.29826e-10
-4.29501e-10
1.42083e-09
7.55476e-12
-1.86205e-12
1.42007e-09
6.48814e-12
4.00779e-13
1.42001e-09
5.57115e-12
-1.83722e-13
1.42012e-09
4.09596e-12
-3.00137e-14
1.41846e-09
2.50777e-12
-1.42824e-12
1.41794e-09
1.73934e-12
9.22518e-15
1.41779e-09
1.9374e-12
-2.67045e-13
1.41775e-09
8.14667e-13
-1.41578e-14
1.41751e-09
5.70096e-13
4.4548e-13
1.41733e-09
-2.38772e-13
-3.30219e-13
1.41827e-09
4.27669e-13
1.04264e-12
1.41793e-09
4.44307e-14
1.93213e-14
1.41791e-09
2.97931e-13
-4.69965e-13
1.41792e-09
2.40124e-13
-3.40147e-13
1.4179e-09
-3.63906e-14
5.34825e-14
1.41799e-09
5.03705e-13
-2.71748e-13
1.41849e-09
-1.91472e-12
1.67634e-13
1.41849e-09
3.89341e-13
-9.45645e-14
1.41857e-09
1.36801e-13
-2.16101e-14
1.41829e-09
-1.37686e-13
7.44492e-13
1.41861e-09
2.7078e-13
-2.45371e-13
1.4179e-09
-7.75397e-13
3.72637e-12
1.41813e-09
-6.20786e-13
-2.65048e-13
1.41871e-09
-3.63052e-13
4.15814e-13
1.41943e-09
-2.55491e-12
2.07014e-12
1.419e-09
2.54473e-13
-2.02253e-13
1.41885e-09
2.92425e-13
3.73515e-13
1.41806e-09
3.05643e-13
-6.67551e-13
1.41775e-09
6.80928e-13
-4.94425e-13
1.42027e-09
-4.42312e-12
1.33424e-12
1.41942e-09
6.24479e-13
1.07551e-13
1.41928e-09
1.62754e-13
2.95676e-14
1.41938e-09
8.60295e-14
5.4472e-14
1.41971e-09
-3.38964e-13
1.29571e-12
1.41897e-09
2.15949e-12
-1.01848e-12
1.41901e-09
-2.90815e-13
6.43053e-14
1.41908e-09
4.39026e-13
-6.74869e-13
1.41989e-09
-6.03242e-13
-2.08873e-13
1.41975e-09
1.01097e-13
1.22504e-13
1.41869e-09
1.96352e-12
-8.69706e-13
1.2706e-12
-1.25458e-12
-4.25441e-09
-1.28477e-08
1.77062e-08
2.65238e-10
-1.37409e-09
9.09889e-10
-2.06122e-09
-1.8567e-09
1.9315e-11
4.88238e-09
-5.09375e-10
-1.73779e-09
-6.48043e-09
4.47328e-09
-4.21344e-10
-1.16875e-09
1.59158e-09
-1.17379e-11
1.02416e-11
5.31666e-10
-1.88015e-10
-4.04993e-10
-7.19364e-10
7.80707e-10
-1.21292e-09
-2.39436e-09
-9.44944e-10
2.04117e-09
2.51105e-09
1.28485e-09
-5.43581e-10
5.78623e-10
-3.74574e-10
-9.45322e-10
-1.57967e-10
9.27812e-12
1.79508e-12
1.11129e-11
1.35781e-10
-3.65974e-11
2.1203e-10
-6.35018e-12
-6.3685e-12
-3.50295e-11
-6.80571e-11
-6.50122e-11
5.38504e-12
1.43554e-09
2.37728e-12
-2.90436e-11
-2.61398e-10
-2.69572e-10
-4.31795e-10
-4.49469e-10
1.42344e-09
2.18548e-11
-2.1615e-12
1.41943e-09
1.03237e-11
2.17273e-13
1.41786e-09
7.31203e-12
-1.20998e-13
1.41742e-09
4.51397e-12
7.07768e-14
1.41716e-09
2.85789e-12
-3.66897e-14
1.41714e-09
1.84296e-12
-3.16972e-14
1.41716e-09
1.63948e-12
3.28715e-13
1.41709e-09
9.36582e-13
-3.91721e-16
1.41752e-09
2.43318e-14
1.71326e-13
1.41759e-09
-1.70699e-13
-9.13409e-14
1.41748e-09
7.06685e-13
-1.16305e-13
1.41795e-09
-2.75799e-13
-9.27907e-14
1.41743e-09
4.47311e-13
4.32473e-13
1.41832e-09
-2.28566e-12
1.68779e-12
1.41852e-09
5.50607e-13
-7.32021e-13
1.41864e-09
5.21966e-14
3.87878e-13
1.41785e-09
-2.23056e-13
-8.44936e-13
1.41818e-09
2.50531e-13
-1.32728e-13
1.41848e-09
-1.39222e-13
2.76796e-14
1.41756e-09
-8.28824e-13
1.65887e-12
1.41786e-09
-1.27254e-13
1.49962e-13
1.41834e-09
4.11453e-13
-1.60962e-12
1.41853e-09
6.68314e-13
-1.43374e-12
1.41938e-09
-3.53776e-12
2.36856e-12
1.41961e-09
-4.62986e-12
1.89293e-12
1.41862e-09
1.31574e-12
-2.46339e-14
1.419e-09
-2.58073e-15
-3.99674e-14
1.41957e-09
-1.70289e-13
-5.10889e-14
1.41995e-09
1.98367e-13
1.41663e-13
1.41792e-09
-1.43632e-12
-9.24717e-13
1.41843e-09
3.32625e-13
-1.81814e-13
1.4187e-09
-2.6721e-13
1.9586e-13
1.41865e-09
9.66409e-14
5.95584e-14
1.41868e-09
-4.14095e-13
7.51849e-14
1.41985e-09
1.70299e-13
8.48471e-13
1.41969e-09
-1.32005e-13
2.16051e-14
1.41955e-09
-9.71638e-14
6.92029e-13
1.41887e-09
-1.59367e-13
2.4973e-13
1.41878e-09
2.36529e-13
-3.56963e-14
1.41969e-09
1.86944e-13
8.78054e-13
-2.22752e-13
1.33329e-12
-1.6596e-08
-5.5235e-10
5.68975e-09
-1.16295e-08
-3.35812e-09
1.6143e-08
2.08192e-09
-4.18634e-09
4.18287e-09
-5.0865e-09
-1.91088e-09
-7.82279e-09
-5.00943e-09
-1.75253e-09
-8.89486e-09
5.08929e-09
2.04611e-09
-1.89283e-09
-3.40239e-09
-2.82223e-09
4.17181e-10
3.39837e-09
-4.30265e-09
7.79678e-10
-6.25363e-10
9.70111e-10
1.41189e-09
-2.04922e-09
7.77681e-10
3.70247e-09
1.4343e-09
8.16537e-10
-6.73098e-09
-1.28881e-10
-8.28749e-10
-4.20484e-11
-8.72034e-10
1.87171e-09
-1.28999e-10
2.35776e-11
2.99804e-12
3.07116e-12
9.93518e-11
-3.33893e-11
-1.1889e-12
-3.54875e-15
8.852e-12
2.57298e-11
1.43018e-09
1.78803e-14
-2.8723e-11
-2.60545e-10
-2.56828e-10
-4.37575e-10
-4.28037e-10
-5.67679e-12
-9.24187e-13
-9.48955e-12
1.41262e-09
4.1153e-11
-1.65567e-12
1.41271e-09
1.03946e-11
-1.01063e-13
1.41357e-09
5.96697e-12
5.55206e-13
1.41466e-09
3.67799e-12
-1.94068e-13
1.41542e-09
2.17149e-12
-1.39116e-14
1.41594e-09
1.32297e-12
5.74837e-14
1.41707e-09
5.14377e-13
4.80707e-14
1.41749e-09
2.2638e-13
3.51543e-13
1.41735e-09
1.96981e-13
1.82079e-14
1.41662e-09
4.70852e-13
1.46388e-13
1.4175e-09
-2.0354e-13
8.445e-14
1.4177e-09
-3.83372e-13
-4.18415e-14
1.41825e-09
-1.43835e-14
-3.2814e-14
1.41775e-09
-2.64483e-13
-1.45903e-12
1.41739e-09
2.38673e-13
7.21354e-13
1.4178e-09
-1.48407e-13
-1.46092e-13
1.41786e-09
-1.636e-13
-6.29403e-14
1.418e-09
5.40177e-14
1.027e-13
1.41779e-09
-6.25551e-14
1.89307e-13
1.41848e-09
4.69171e-13
-1.93171e-12
1.41908e-09
1.06519e-12
-1.74576e-12
1.41897e-09
5.76314e-13
-5.8778e-16
1.41994e-09
8.32472e-13
-1.08408e-12
1.41858e-09
1.55238e-14
-2.14618e-12
1.41806e-09
1.43306e-13
-4.21376e-12
1.41896e-09
6.28052e-13
-1.59475e-13
1.4191e-09
-1.54462e-13
4.79208e-14
1.41904e-09
1.06255e-14
-7.23839e-14
1.41903e-09
-1.54049e-13
3.9595e-13
1.41864e-09
-4.90431e-13
-5.18295e-13
1.41828e-09
-5.45266e-13
1.27304e-12
1.41826e-09
1.10462e-13
-3.20454e-13
1.41828e-09
7.07329e-13
-6.07562e-13
1.41965e-09
-3.68045e-12
1.9237e-12
1.42005e-09
8.28385e-13
-1.03462e-12
1.4197e-09
-3.23498e-14
2.71253e-13
1.41939e-09
-2.38064e-14
2.55946e-13
1.41935e-09
8.12691e-15
-1.12277e-13
1.419e-09
6.05203e-13
-1.20582e-14
1.41892e-09
3.40735e-13
-6.31056e-14
-1.93425e-12
8.41801e-13
-2.3623e-09
2.91884e-09
2.80126e-10
2.73201e-09
-9.36074e-09
9.08543e-10
-1.8996e-11
2.61169e-09
1.83724e-09
9.02322e-10
7.97706e-10
-1.68525e-10
5.50924e-12
-1.11918e-09
-8.72221e-10
-1.24342e-09
-3.21532e-11
1.09796e-09
1.18078e-09
-2.26555e-09
-6.65051e-10
6.71413e-10
-5.7076e-10
9.00343e-10
-3.35945e-10
-2.5756e-10
-4.5632e-10
1.91928e-10
3.42895e-10
1.79056e-10
-5.03126e-11
-6.77812e-11
2.78333e-10
-1.11628e-10
-5.37387e-11
-9.58531e-11
-4.73296e-11
-1.19271e-10
-8.41376e-11
-1.37232e-10
1.10104e-10
1.2113e-10
1.5872e-10
9.89979e-11
-1.53038e-10
1.92975e-11
-1.31402e-11
9.3988e-11
5.2893e-11
-2.01749e-10
2.04044e-10
6.61849e-13
-2.93186e-12
1.38855e-09
1.27122e-11
-2.1618e-11
-2.51558e-10
-2.5342e-10
-4.14674e-10
-4.18805e-10
1.40211e-09
-1.0485e-12
-2.04305e-12
1.40714e-09
1.35003e-12
-3.3891e-13
1.41126e-09
-4.26161e-13
5.77026e-14
1.41368e-09
-1.68337e-13
-1.52306e-14
1.41514e-09
3.84566e-14
-1.17887e-13
1.41572e-09
1.04364e-14
-1.7775e-14
1.41648e-09
-1.82596e-13
-2.98049e-13
1.41677e-09
2.15067e-13
-2.51286e-13
1.41776e-09
-1.88309e-13
-2.70911e-13
1.41788e-09
-4.53229e-13
1.85469e-13
1.41773e-09
-1.77258e-13
-5.89731e-15
1.41804e-09
-2.47405e-13
-2.4031e-14
1.41767e-09
-4.30485e-13
5.91822e-13
1.41822e-09
1.59808e-13
-4.12514e-13
1.418e-09
9.25602e-14
3.19977e-14
1.41795e-09
2.9594e-14
-8.34345e-14
1.4181e-09
1.2346e-13
-1.65998e-13
1.41834e-09
9.98796e-13
-1.25013e-12
1.4195e-09
1.58826e-12
-2.22633e-12
1.41833e-09
5.38125e-13
1.75373e-12
1.41855e-09
5.07769e-13
-1.00451e-13
1.41826e-09
-7.713e-13
1.93875e-12
1.41845e-09
-1.39631e-13
1.03628e-14
1.41853e-09
1.61234e-13
-4.69897e-14
1.41903e-09
-4.76128e-13
6.49689e-13
1.41889e-09
1.55864e-14
8.03945e-15
1.41909e-09
-8.47987e-14
-5.87575e-14
1.41902e-09
-1.16433e-13
7.28355e-14
1.41853e-09
-3.30298e-13
3.59573e-13
1.41891e-09
8.56445e-13
-1.74096e-12
1.41911e-09
-3.73963e-14
-1.86492e-14
1.41971e-09
1.62627e-13
-3.31833e-14
1.41881e-09
-1.77051e-12
-9.83592e-13
1.41906e-09
-1.44912e-12
2.05378e-12
1.41949e-09
1.87368e-13
-6.23681e-13
1.41951e-09
1.92066e-13
-2.20224e-13
1.41974e-09
-5.01324e-15
-2.03265e-13
1.41853e-09
1.8775e-12
-5.25099e-14
1.41893e-09
8.67296e-14
-1.327e-13
-1.97142e-12
3.7407e-13
-8.75503e-10
3.04872e-09
2.1346e-09
-7.61139e-10
-9.04484e-10
-5.72343e-09
-8.08866e-10
-7.28801e-10
-1.30935e-09
-3.45045e-09
1.38118e-09
4.5015e-09
-9.68505e-09
2.37833e-09
9.03047e-09
1.93894e-09
-3.95722e-09
1.95125e-09
-7.37045e-10
3.77475e-10
-1.87864e-09
9.74878e-10
2.55802e-10
-3.96184e-09
-7.19272e-10
-1.10867e-09
2.30075e-09
-1.51829e-09
-9.22586e-10
-1.42699e-10
-7.44903e-11
-6.06634e-10
3.78839e-10
6.40307e-10
9.81249e-10
7.22204e-11
-1.47323e-10
2.1139e-10
-3.18646e-10
7.39542e-11
1.80625e-10
4.9827e-12
-3.31147e-10
2.40657e-10
-2.28483e-10
2.55025e-11
-5.43623e-11
7.60879e-11
5.37224e-11
6.85135e-11
8.1043e-11
6.34839e-11
-7.59721e-11
-3.43709e-11
5.44598e-11
-8.77409e-11
1.43624e-10
-3.41562e-11
2.01047e-10
2.34928e-12
-6.66282e-12
-3.38708e-11
-6.25269e-11
-6.1941e-11
-4.23878e-12
1.38861e-09
-1.76353e-11
-2.36271e-11
-2.53039e-10
-2.51488e-10
-4.15668e-10
-4.14406e-10
1.40002e-09
-9.73982e-12
-2.64501e-12
1.40655e-09
-5.70153e-12
5.88901e-13
1.41178e-09
-6.04122e-12
4.54773e-13
1.41439e-09
-2.73743e-12
1.69044e-14
1.41513e-09
4.85901e-13
-1.12315e-12
1.41567e-09
7.77693e-13
-1.25575e-12
1.41635e-09
-6.63367e-13
-1.39021e-13
1.41693e-09
-3.03916e-13
-4.86185e-15
1.41665e-09
3.7273e-14
1.0664e-13
1.41801e-09
-2.0141e-12
2.52959e-13
1.41753e-09
4.01771e-13
-3.76136e-14
1.41817e-09
-1.15631e-12
3.18016e-13
1.41841e-09
1.67915e-14
-6.28992e-13
1.4182e-09
2.57799e-14
4.00494e-13
1.41832e-09
2.78261e-14
-7.06438e-16
1.41847e-09
-1.18185e-13
5.73979e-14
1.41868e-09
1.36047e-14
-5.25589e-14
1.41865e-09
1.13348e-13
9.72059e-13
1.41785e-09
3.36131e-13
2.10415e-12
1.41832e-09
5.55794e-13
-4.3757e-13
1.41905e-09
1.38305e-13
-3.03556e-13
1.41817e-09
-7.49054e-13
9.02865e-13
1.41842e-09
-5.56768e-14
-2.90921e-13
1.41883e-09
-2.23077e-13
2.23174e-14
1.41848e-09
1.9577e-13
-2.72847e-13
1.41873e-09
-1.70549e-13
-2.68548e-14
1.41865e-09
-3.8134e-13
4.21607e-13
1.41843e-09
8.00763e-13
-6.59444e-13
1.41869e-09
-2.60837e-13
-2.90783e-13
1.41924e-09
-1.34543e-13
4.76706e-13
1.41935e-09
-5.94966e-13
4.77185e-13
1.41946e-09
-1.89872e-12
1.98695e-12
1.41894e-09
-1.34207e-12
1.10971e-13
1.41898e-09
-6.83379e-13
-7.78232e-13
1.41954e-09
-5.21442e-13
1.66305e-13
1.42003e-09
-1.64215e-13
-1.09387e-13
1.41968e-09
-1.34349e-12
1.69806e-12
1.41868e-09
3.07313e-12
-1.84929e-13
1.41887e-09
-8.29954e-13
7.3628e-13
-2.27721e-13
-8.32028e-13
1.68102e-09
-6.07158e-10
2.79648e-09
-4.26916e-11
1.3485e-10
1.06138e-09
-2.5402e-10
4.44881e-10
-7.77084e-10
1.72986e-09
-1.99095e-09
1.03765e-09
1.19614e-09
6.80721e-10
-5.40588e-10
-9.81918e-11
6.65566e-11
1.13399e-10
-3.68343e-11
-1.57703e-09
9.17269e-10
1.42444e-09
1.67709e-10
-9.32386e-10
-3.12941e-10
8.02314e-10
-9.44689e-10
3.76311e-11
4.17685e-10
-3.6115e-10
-4.21651e-10
4.24745e-10
4.35821e-10
-7.7765e-11
-4.91904e-11
-1.03123e-10
7.60187e-11
-4.06617e-11
-1.62978e-11
-8.79681e-11
-4.40404e-11
6.68676e-11
6.13388e-11
7.84764e-11
5.85797e-11
-1.0899e-10
-9.24157e-12
-4.31712e-11
6.98107e-11
9.1592e-11
-3.29044e-11
2.53855e-12
1.80613e-10
-6.80309e-12
1.04907e-11
-3.31578e-11
-6.01326e-11
-6.06444e-11
1.39262e-09
-5.89663e-11
-2.32662e-11
-2.51431e-10
-2.49814e-10
-4.14447e-10
-4.12296e-10
1.40447e-09
-1.94613e-11
-2.07668e-12
1.4112e-09
-1.28891e-11
5.12173e-13
1.41309e-09
-7.20699e-12
-6.71223e-13
1.41456e-09
-4.17736e-12
2.03401e-14
1.4162e-09
-2.24231e-12
1.14055e-12
1.41711e-09
-1.29928e-12
1.22943e-12
1.41726e-09
-7.7278e-13
1.07346e-14
1.41768e-09
-1.0398e-12
3.72948e-13
1.41831e-09
-5.07991e-13
-3.87721e-14
1.41749e-09
-8.33005e-13
-3.05319e-13
1.41799e-09
2.22742e-14
-5.85328e-14
1.4175e-09
-3.20429e-13
-2.91455e-13
1.41776e-09
-3.23457e-14
-1.60703e-13
1.41801e-09
-1.71978e-13
4.40519e-15
1.41841e-09
-2.74866e-13
-3.74018e-14
1.4184e-09
1.04615e-13
-1.62131e-13
1.41873e-09
-2.98258e-13
3.52202e-14
1.41887e-09
1.50326e-13
-1.24036e-13
1.41868e-09
8.50176e-13
-2.7113e-13
1.4176e-09
3.40027e-12
-1.70772e-12
1.4175e-09
-9.13799e-13
1.20278e-12
1.41876e-09
8.58143e-14
-2.04811e-12
1.41868e-09
4.19368e-14
2.85731e-14
1.41835e-09
6.27301e-14
9.29988e-14
1.41872e-09
-2.04894e-13
7.68347e-14
1.41866e-09
4.01722e-15
-7.66463e-14
1.41875e-09
-8.00321e-14
-3.43456e-13
1.41892e-09
1.70352e-13
4.97671e-13
1.41872e-09
-6.35031e-13
6.12337e-13
1.41958e-09
-7.47178e-13
-2.17482e-13
1.41951e-09
2.49814e-13
-7.35199e-13
1.41919e-09
-4.25654e-13
-1.12904e-12
1.41918e-09
-1.89726e-13
-1.11494e-12
1.41896e-09
-2.79524e-13
-1.55847e-13
1.41849e-09
-1.39784e-13
1.07183e-13
1.41847e-09
-1.3477e-13
6.31625e-15
1.41854e-09
1.38597e-12
-2.78779e-12
1.42032e-09
1.0703e-12
2.31595e-13
1.42012e-09
-3.99292e-13
-2.17562e-13
-7.22728e-13
1.61781e-12
-2.26218e-09
-6.78888e-11
1.91388e-09
5.53772e-10
-1.02972e-10
8.56907e-10
-2.77798e-10
-1.02991e-09
5.7699e-10
2.03111e-10
-2.77293e-10
-3.42896e-10
-1.59912e-10
-1.29562e-09
-9.639e-12
-7.91909e-10
1.27174e-09
-3.58432e-10
7.81482e-10
7.53518e-10
-3.51143e-10
-2.65076e-11
4.02676e-10
-6.64786e-10
-1.32117e-10
4.20735e-10
-1.22762e-10
8.06446e-10
-4.93943e-10
3.22129e-10
-5.11869e-10
-9.50395e-13
1.37679e-10
-2.31028e-10
-9.39024e-10
1.10377e-10
7.90271e-10
1.27879e-10
-3.11534e-11
3.04699e-11
-6.45573e-14
5.54411e-12
-1.18785e-10
3.34072e-11
-8.19983e-12
-3.58368e-11
1.29414e-10
1.46917e-09
2.91223e-12
-3.27291e-11
-2.69414e-10
-2.65491e-10
-4.76277e-10
-4.50844e-10
7.88673e-12
-1.50454e-13
1.46524e-11
2.87886e-13
1.43585e-09
-2.4787e-11
-8.42776e-13
1.42682e-09
-9.96361e-12
-4.43839e-13
1.42167e-09
-7.58882e-12
-1.0952e-13
1.41936e-09
-4.74673e-12
-1.18796e-13
1.41832e-09
-3.04106e-12
-5.1937e-14
1.41804e-09
-1.91078e-12
-3.96417e-15
1.41791e-09
-1.10195e-12
-1.93185e-14
1.41788e-09
-6.54682e-13
-3.6521e-14
1.41769e-09
-4.11463e-13
-3.80637e-13
1.41792e-09
-8.74978e-13
1.88072e-13
1.41769e-09
-8.03789e-13
2.56149e-13
1.41789e-09
-1.16676e-13
-1.14673e-14
1.41796e-09
-3.23355e-13
-2.1825e-15
1.41808e-09
-3.01293e-14
-7.43327e-14
1.41816e-09
-1.31682e-13
-6.32568e-14
1.418e-09
6.25301e-14
-1.20749e-13
1.41829e-09
-1.96085e-13
6.93639e-14
1.41856e-09
-6.25273e-13
1.09793e-13
1.4195e-09
-7.62798e-13
2.59737e-14
1.41698e-09
8.23929e-12
-4.81978e-12
1.41774e-09
-1.53717e-12
4.22943e-12
1.41854e-09
-5.91332e-13
-1.06689e-12
1.41863e-09
-7.35767e-14
1.13961e-13
1.41872e-09
-1.06084e-13
1.04635e-13
1.41866e-09
2.17615e-13
-4.73308e-14
1.419e-09
-7.9904e-14
-4.16661e-13
1.41888e-09
1.49347e-13
1.84652e-14
1.41884e-09
1.65527e-14
-1.77711e-14
1.41905e-09
-1.79273e-13
1.79107e-13
1.419e-09
6.87927e-14
-6.1632e-13
1.41924e-09
4.19446e-13
-1.37056e-12
1.41918e-09
9.32131e-14
2.44743e-13
1.41905e-09
-1.43728e-13
-1.1901e-13
1.41903e-09
-1.0565e-13
-4.12206e-14
1.41881e-09
-1.20564e-13
8.51438e-14
1.41881e-09
-1.08981e-13
-6.584e-15
1.41862e-09
9.47262e-14
-2.35534e-14
1.41908e-09
-8.90436e-13
1.83598e-12
1.41946e-09
6.46138e-13
5.25105e-14
1.41968e-09
-1.35465e-13
-4.80134e-13
-2.95754e-13
-1.09598e-12
3.09115e-09
-3.25194e-09
3.11489e-09
-1.28353e-09
2.94765e-09
1.10039e-09
-1.90806e-09
-4.10808e-10
-1.57313e-09
-4.37726e-10
-5.54482e-10
1.50375e-09
-1.03353e-09
2.15474e-09
7.98772e-10
1.59236e-09
1.90761e-09
-1.16485e-09
-1.44817e-09
-6.6507e-10
1.28404e-09
-1.52653e-09
5.27035e-10
3.02666e-09
-3.31121e-09
-5.07751e-10
3.48027e-10
-1.48485e-09
9.99131e-10
6.45442e-10
1.13326e-09
-1.06394e-10
4.53528e-10
-4.758e-10
-1.0046e-09
6.75289e-10
5.82009e-10
-5.09687e-10
-1.9503e-09
1.20269e-09
-1.31125e-10
3.28439e-10
1.2845e-10
-8.57794e-11
-1.05681e-10
-1.56816e-10
-8.65206e-11
-2.12477e-10
-1.87173e-10
-1.23389e-10
1.32598e-10
1.76836e-10
1.86129e-10
1.3651e-10
-1.40597e-10
-1.69988e-11
9.69593e-12
1.07504e-10
4.03961e-11
1.46316e-09
1.96981e-11
-3.12598e-11
-2.69645e-10
-2.69599e-10
-4.53146e-10
-4.56291e-10
1.44099e-09
-1.26689e-12
-1.37003e-12
1.43135e-09
-5.72106e-13
2.48085e-13
1.42544e-09
-1.61718e-12
-3.77808e-14
1.42204e-09
-1.30897e-12
-1.18482e-14
1.42014e-09
-1.07911e-12
-2.77158e-14
1.4193e-09
-8.88444e-13
-1.41691e-13
1.41875e-09
-4.59563e-13
-4.95196e-14
1.41842e-09
2.7513e-13
-5.51837e-13
1.41829e-09
-1.82277e-13
-5.1807e-14
1.41764e-09
-1.02005e-14
-1.57324e-13
1.41793e-09
-7.15171e-13
-3.28352e-13
1.41796e-09
-3.95372e-14
-5.35558e-14
1.418e-09
6.37711e-14
-3.65398e-13
1.41799e-09
-4.79279e-13
5.17354e-13
1.41812e-09
-2.09765e-13
-2.44201e-15
1.41799e-09
7.69163e-14
1.69172e-13
1.41794e-09
-5.53876e-13
4.64969e-13
1.41771e-09
-4.52958e-14
-2.97002e-13
1.41612e-09
9.62563e-13
-7.93765e-14
1.41898e-09
2.98208e-13
5.13921e-12
1.41943e-09
9.314e-13
-2.87401e-12
1.41932e-09
-3.62217e-12
3.1892e-12
1.41897e-09
1.85415e-13
1.39719e-13
1.41862e-09
1.11558e-13
1.8959e-13
1.41876e-09
-6.0057e-14
1.75199e-13
1.41897e-09
-1.86928e-13
-5.741e-14
1.41882e-09
1.19183e-12
-8.44554e-13
1.41889e-09
-3.76475e-13
3.60285e-13
1.4191e-09
-2.81505e-13
-6.97048e-14
1.4195e-09
-2.37136e-13
-5.54026e-14
1.4189e-09
-4.25608e-13
1.48076e-12
1.41902e-09
-1.63068e-13
1.67125e-13
1.41883e-09
-1.31628e-13
2.09861e-13
1.41901e-09
-2.13715e-13
-4.11281e-14
1.41904e-09
-3.23554e-14
-9.56088e-14
1.41887e-09
8.56821e-14
-3.34835e-15
1.41847e-09
4.81689e-13
2.62615e-14
1.41911e-09
-1.30004e-12
-2.10735e-13
1.41898e-09
5.40408e-13
2.41084e-13
1.41996e-09
-2.61738e-12
1.51402e-12
-4.61025e-13
-6.39558e-13
1.99602e-09
7.6843e-10
-1.88096e-08
2.86377e-09
2.8799e-10
-5.59946e-09
6.91847e-09
8.73307e-10
8.838e-09
5.03202e-09
-4.70448e-09
-3.70745e-09
5.37593e-09
1.99005e-09
-5.23759e-10
-7.80376e-10
1.14271e-08
-2.12309e-08
2.08933e-08
-8.43417e-09
-5.62656e-10
2.74156e-10
-6.12429e-10
1.6652e-10
9.49246e-10
-1.19488e-09
-2.3613e-09
9.65112e-10
1.33462e-09
4.70999e-09
-2.03345e-09
-4.97627e-09
4.59331e-10
4.38711e-09
-1.91774e-09
3.43643e-10
-4.34714e-09
2.43457e-10
5.89399e-10
2.41937e-10
-2.65145e-10
-4.54352e-11
-3.07237e-11
5.64421e-10
-2.23118e-10
-9.85052e-11
6.62772e-11
-4.68962e-11
9.83244e-12
6.92918e-11
-4.08284e-11
-1.92868e-12
2.03888e-10
1.01277e-11
3.57555e-11
-4.21768e-11
-7.56279e-11
-7.9534e-11
-3.66285e-12
-2.2097e-12
-3.80328e-12
1.44931e-09
2.74848e-11
-2.69572e-11
-2.70141e-10
-2.66538e-10
-4.4968e-10
-4.43795e-10
1.4381e-09
1.24383e-11
-2.51936e-12
1.43066e-09
6.48121e-12
3.82829e-13
1.42573e-09
3.40895e-12
-8.25186e-14
1.4225e-09
1.95098e-12
-1.10596e-14
1.42082e-09
6.49843e-13
-1.5456e-14
1.41953e-09
3.23334e-13
1.15074e-13
1.41863e-09
1.55381e-13
3.33256e-13
1.41821e-09
1.88497e-13
5.54563e-13
1.41824e-09
-7.30808e-14
-9.75593e-14
1.41843e-09
-2.06594e-13
6.50088e-14
1.41775e-09
1.7413e-13
-1.54551e-13
1.41785e-09
-1.28682e-13
3.70499e-14
1.41771e-09
-2.8786e-13
5.48952e-13
1.41798e-09
-2.27908e-13
-4.64797e-13
1.41775e-09
1.27862e-13
-5.13444e-14
1.41833e-09
2.29138e-13
-6.81118e-13
1.41872e-09
-4.07327e-13
-4.75743e-13
1.41766e-09
-8.49945e-13
1.92196e-12
1.41866e-09
-4.98222e-14
6.5937e-14
1.41877e-09
3.54569e-13
-1.22456e-13
1.41883e-09
1.88696e-13
7.41514e-13
1.41847e-09
-6.28952e-14
-3.15118e-12
1.41895e-09
-8.24388e-14
-1.64889e-13
1.41839e-09
1.49297e-12
-7.71944e-13
1.41833e-09
3.15732e-14
1.59606e-14
1.41847e-09
4.85916e-14
-3.35386e-13
1.41869e-09
1.71994e-13
8.4859e-13
1.41904e-09
1.25609e-13
-8.17094e-13
1.41941e-09
-5.18946e-13
-8.57566e-14
1.41911e-09
8.21833e-13
-7.25823e-13
1.41919e-09
-3.93623e-13
-7.48994e-14
1.41937e-09
-3.87969e-13
7.2443e-14
1.41907e-09
2.11624e-12
-1.91446e-12
1.41909e-09
-3.66235e-13
1.56767e-13
1.4188e-09
2.7904e-13
1.50294e-15
1.41924e-09
-9.46725e-14
-2.3769e-13
1.41972e-09
-2.4513e-13
2.61259e-13
1.41861e-09
1.94024e-13
-3.6614e-13
1.41892e-09
3.59915e-13
-1.19249e-13
1.41869e-09
7.93813e-13
-3.17431e-12
-2.63738e-12
1.94792e-13
4.17655e-09
3.88351e-10
-3.60551e-09
2.9171e-09
1.52324e-09
7.5202e-10
8.78653e-10
-6.07101e-09
5.74341e-10
-2.49437e-09
1.70256e-09
-4.90052e-10
7.07521e-10
4.30252e-10
-4.51914e-09
2.6724e-09
2.79313e-09
-1.37664e-09
-1.11244e-09
-1.34979e-09
8.96916e-11
4.2868e-09
-1.91427e-09
-2.16666e-10
-4.77927e-10
1.74848e-10
-5.3982e-11
5.73728e-10
-8.9121e-11
-2.45458e-11
7.20778e-12
1.87318e-11
8.77272e-11
-3.4192e-11
-9.68814e-12
1.87995e-10
1.89239e-12
1.2716e-11
-3.41487e-11
-6.23904e-11
-6.21847e-11
1.41958e-09
-2.5619e-11
-2.58277e-10
-2.58727e-10
-4.27987e-10
-4.31333e-10
1.42442e-09
-2.24646e-12
1.42425e-09
5.56326e-13
1.42231e-09
7.3471e-14
1.42019e-09
-2.92179e-14
1.42013e-09
1.37807e-12
1.41936e-09
-2.43952e-14
1.41868e-09
-5.70651e-13
1.41822e-09
4.60951e-15
1.41804e-09
-5.46665e-13
1.41844e-09
2.75461e-13
1.41742e-09
-1.09054e-12
1.41766e-09
3.62688e-14
1.41797e-09
-2.65173e-13
1.41789e-09
6.77443e-14
1.41812e-09
3.50728e-14
1.41775e-09
4.07703e-13
1.41791e-09
8.1266e-13
1.41857e-09
-1.66883e-12
1.41844e-09
7.25704e-15
1.41893e-09
-3.33749e-13
1.41886e-09
3.66827e-14
1.41872e-09
-2.04034e-12
1.41785e-09
1.56574e-12
1.41866e-09
1.57844e-13
1.41861e-09
-4.37853e-14
1.41859e-09
5.49628e-13
1.41878e-09
-4.19568e-13
1.41902e-09
1.12705e-12
1.41875e-09
-2.78936e-14
1.41949e-09
7.3869e-13
1.41915e-09
1.40517e-13
1.41904e-09
-2.44351e-13
1.41943e-09
1.55582e-12
1.41938e-09
-1.544e-12
1.41925e-09
7.02586e-14
1.41913e-09
2.59725e-13
1.41938e-09
-2.81919e-13
1.41952e-09
7.85132e-14
1.42006e-09
-2.42931e-13
1.41909e-09
1.75787e-12
-1.41842e-13
1.44024e-09
6.42975e-08
-4.09173e-08
-6.15415e-09
-5.68359e-09
-5.70727e-09
-5.87149e-09
-3.20447e-08
-3.12177e-09
4.50551e-09
1.59955e-09
2.85635e-08
-3.51444e-09
-2.11181e-08
2.76766e-08
1.92731e-09
3.73611e-09
-1.60512e-09
-1.5759e-09
-1.05062e-09
-6.366e-09
2.78559e-09
-2.80023e-09
3.83759e-09
-2.71415e-09
1.45064e-09
-1.32184e-09
-3.40546e-10
8.49889e-10
1.15863e-09
-1.33868e-09
3.13089e-10
-4.00241e-10
2.33236e-09
-1.08732e-10
-8.30477e-11
-4.14214e-10
-2.11454e-09
-1.38849e-10
7.85999e-11
3.27058e-11
-3.49469e-11
1.08498e-10
-1.5231e-10
6.28925e-10
-2.76774e-12
-2.05803e-11
-8.45382e-12
-1.40513e-10
-1.58166e-10
-1.45848e-10
2.36573e-09
-7.2425e-13
2.64108e-11
-5.99921e-10
-5.98613e-10
-5.99546e-10
-5.98627e-10
2.36523e-09
1.49849e-11
2.10606e-12
2.36594e-09
1.19795e-11
-5.69136e-13
2.36584e-09
9.8562e-12
-3.84744e-13
2.36626e-09
7.05043e-12
-6.79478e-13
2.36374e-09
4.36978e-12
1.38257e-12
2.36298e-09
2.98465e-12
-4.95376e-14
2.36252e-09
1.76665e-12
5.25763e-13
2.36253e-09
1.32898e-12
-1.94021e-14
2.36213e-09
7.28651e-13
-4.7403e-13
2.36197e-09
-7.01938e-14
-3.34044e-16
2.36325e-09
6.70062e-13
1.32037e-12
2.3628e-09
2.60881e-13
-4.80502e-14
2.36261e-09
-8.79887e-13
4.68564e-13
2.36275e-09
5.21e-13
-9.9976e-13
2.3628e-09
1.52126e-13
-9.24087e-14
2.36287e-09
8.50442e-13
-5.79189e-13
2.36353e-09
-2.35955e-12
2.6519e-12
2.36381e-09
7.10703e-13
6.91486e-14
2.364e-09
2.03545e-13
-9.93987e-14
2.36311e-09
6.75491e-13
1.59135e-12
2.36366e-09
4.44244e-13
-7.32206e-13
2.36265e-09
5.2037e-12
-1.1577e-12
2.36282e-09
4.10293e-12
-3.15324e-12
2.36392e-09
-6.6325e-13
-8.43253e-13
2.36522e-09
5.59355e-13
6.13857e-13
2.36458e-09
4.83792e-13
2.12834e-13
2.3642e-09
3.67989e-13
-3.37481e-13
2.36284e-09
6.87601e-13
7.62652e-13
2.36251e-09
-1.07264e-12
7.17073e-13
2.36605e-09
-6.09803e-13
-2.26657e-12
2.36514e-09
1.09249e-12
-1.50098e-13
2.36483e-09
3.80947e-13
4.14048e-14
2.36504e-09
-1.20639e-15
-4.69783e-13
2.36557e-09
-5.9466e-13
5.61053e-13
2.3643e-09
2.72664e-12
-2.07456e-12
2.3645e-09
-1.10572e-13
-1.4194e-13
2.3645e-09
-1.64275e-12
7.63291e-13
2.36563e-09
-1.2282e-12
-2.48673e-13
2.36541e-09
7.50416e-14
1.91752e-13
2.36376e-09
5.16515e-13
2.64627e-13
-7.69069e-13
-4.40555e-13
3.32539e-08
-1.75971e-08
-1.21794e-08
2.29984e-09
3.95042e-09
2.35952e-09
8.11995e-09
1.27422e-08
-3.77573e-09
-1.23465e-09
7.08977e-09
1.48854e-08
4.80635e-09
-3.97103e-09
-1.13917e-09
-1.92148e-11
-1.30972e-09
-5.45389e-09
1.11126e-08
7.34867e-09
-7.82674e-09
-4.23009e-10
5.97214e-09
9.86382e-10
-3.27874e-09
2.41519e-09
3.17641e-09
1.79446e-09
2.09944e-09
2.54246e-09
1.33494e-09
-1.23438e-09
-1.04211e-09
1.46206e-09
-3.06296e-09
-4.57938e-09
7.3636e-10
7.2138e-09
7.06106e-09
-2.82974e-09
-8.96311e-10
-2.84613e-09
-4.10937e-10
-1.22496e-10
-1.63183e-09
-2.76644e-10
-1.41775e-09
8.90675e-09
7.76198e-10
-1.76165e-09
2.57223e-09
5.13295e-10
-1.10068e-08
-2.61136e-10
-3.71907e-10
2.30219e-10
-7.64712e-11
3.78981e-10
1.00314e-10
-1.56552e-10
6.23037e-10
-1.20407e-11
-1.07755e-12
-6.06185e-13
-1.48828e-10
-1.62663e-10
-1.54512e-10
1.32422e-11
2.39261e-09
8.35144e-13
2.889e-11
-6.0155e-10
-6.24444e-10
-6.01544e-10
-6.24462e-10
2.36819e-09
3.52245e-11
2.12898e-12
2.36408e-09
1.66746e-11
-2.54317e-13
2.3619e-09
1.19401e-11
8.26756e-14
2.36157e-09
7.61317e-12
-3.82308e-14
2.36135e-09
4.65428e-12
1.76869e-14
2.36144e-09
2.98006e-12
7.27556e-16
2.36159e-09
2.34015e-12
-2.70482e-13
2.36158e-09
1.34995e-12
1.05887e-13
2.36213e-09
2.21244e-13
2.53123e-13
2.36221e-09
-1.33831e-13
7.5856e-15
2.36218e-09
7.49011e-13
-3.25995e-14
2.3628e-09
-7.16535e-13
3.86396e-13
2.36199e-09
7.60293e-13
-2.70998e-13
2.3632e-09
1.52557e-12
-4.08376e-13
2.36393e-09
9.28084e-13
-2.10915e-12
2.36384e-09
3.04892e-13
1.14437e-12
2.36267e-09
-5.57929e-14
-1.85561e-12
2.36294e-09
3.5939e-13
6.83694e-14
2.36342e-09
-8.91054e-14
-3.40612e-14
2.36205e-09
3.10124e-12
7.1403e-13
2.36243e-09
-1.12398e-13
4.43938e-13
2.36353e-09
7.63042e-13
1.8417e-12
2.36384e-09
1.02974e-12
1.43316e-12
2.36522e-09
-2.60599e-12
3.04051e-12
2.36525e-09
1.64139e-12
8.83918e-13
2.36393e-09
1.38452e-12
4.8821e-13
2.36435e-09
5.10564e-14
-4.98988e-14
2.36525e-09
-7.32354e-14
-1.02838e-13
2.36571e-09
-6.08134e-13
-6.93646e-13
2.36293e-09
-9.98768e-13
2.32641e-12
2.36331e-09
5.15135e-13
9.00572e-14
2.36357e-09
7.24192e-13
-3.44515e-13
2.36377e-09
1.25968e-13
-1.96507e-13
2.36399e-09
-5.68741e-13
-1.15321e-13
2.36566e-09
1.28273e-14
1.9384e-12
2.3654e-09
1.45387e-13
7.22035e-14
2.36522e-09
-6.23066e-14
-6.78964e-13
2.36427e-09
-5.90408e-14
5.67904e-14
2.36413e-09
3.78087e-13
-1.79714e-13
2.36525e-09
6.59547e-13
-3.71419e-13
-3.32702e-13
2.62632e-13
-1.74958e-08
-1.81786e-09
9.90679e-09
-8.64529e-09
5.88552e-09
-2.36807e-09
2.3042e-09
2.59771e-09
-6.83811e-09
1.33526e-10
4.52374e-09
-3.9759e-09
-4.73005e-09
-9.06849e-10
-4.74132e-09
-1.19626e-09
-8.71924e-09
1.31983e-08
-7.54379e-09
7.24991e-09
-7.74941e-09
3.009e-09
1.48731e-08
-1.10946e-09
-2.09375e-09
6.25576e-11
-1.98221e-09
-2.70557e-09
4.87546e-08
1.09825e-10
-1.08733e-09
1.1591e-08
5.30405e-09
-6.46722e-08
-4.45693e-09
-1.63652e-10
1.12375e-10
5.13648e-10
4.10156e-10
3.58441e-09
-2.68316e-10
4.29172e-11
-9.80834e-11
1.62299e-10
-2.22272e-11
1.8341e-10
-1.35388e-10
-1.91959e-11
-3.16519e-12
1.66056e-12
1.05461e-11
1.45543e-10
2.38186e-09
-2.04918e-12
2.91166e-11
-6.08705e-10
-5.96015e-10
-6.08708e-10
-5.96047e-10
-1.25635e-11
-2.04499e-12
-1.25585e-11
2.35155e-09
6.2472e-11
1.5902e-12
2.353e-09
1.51925e-11
8.06104e-14
2.35487e-09
1.13585e-11
-5.88848e-13
2.35705e-09
5.22334e-12
1.64352e-13
2.35849e-09
3.33223e-12
-3.13711e-15
2.35951e-09
2.22123e-12
-7.20536e-14
2.36129e-09
7.91398e-13
-5.4315e-14
2.36196e-09
1.24167e-12
-8.95072e-14
2.36194e-09
7.07224e-13
-3.26507e-13
2.36089e-09
9.65726e-13
2.19246e-13
2.36216e-09
-3.48622e-13
3.47126e-14
2.3625e-09
-5.14463e-13
-4.58757e-13
2.36338e-09
4.40099e-14
-6.87013e-14
2.36255e-09
-3.2729e-13
1.35073e-12
2.36189e-09
9.71213e-14
2.33444e-12
2.36239e-09
-1.64571e-13
-4.87869e-14
2.36257e-09
-1.49855e-13
-3.18312e-14
2.36263e-09
4.34004e-13
9.06806e-14
2.36219e-09
9.16057e-13
-2.57809e-13
2.36369e-09
9.57209e-13
-1.16547e-12
2.36452e-09
-4.29546e-12
1.72294e-12
2.36442e-09
1.16124e-12
-1.92256e-13
2.3661e-09
-2.53319e-12
9.05811e-13
2.36398e-09
2.45859e-13
-2.77048e-12
2.36297e-09
8.45203e-14
-1.54864e-12
2.36423e-09
7.15576e-13
-6.46796e-13
2.3646e-09
-1.58905e-13
-1.89023e-14
2.36441e-09
2.51018e-14
1.05163e-13
2.36445e-09
-1.98207e-13
2.62695e-14
2.36382e-09
-7.55631e-13
-4.94811e-14
2.36308e-09
2.10548e-12
4.98474e-13
2.36304e-09
6.10851e-14
4.56255e-13
2.36326e-09
-8.82267e-14
-5.50632e-13
2.36534e-09
2.30324e-12
-2.97693e-12
2.36597e-09
-2.73927e-12
1.13719e-12
2.36555e-09
1.20619e-12
-3.22068e-13
2.36525e-09
7.68733e-13
-2.42149e-13
2.36478e-09
2.87668e-13
3.49699e-14
2.3642e-09
9.11308e-13
5.70584e-14
2.36416e-09
5.41408e-13
1.07565e-13
-2.53962e-12
1.50612e-12
-9.29778e-09
-5.83414e-09
1.60945e-08
-3.56196e-09
-2.8007e-09
3.85933e-09
-8.6731e-11
7.65829e-10
-6.21114e-10
-3.38444e-10
1.86086e-09
-4.43422e-10
-8.50631e-10
4.9178e-10
9.53794e-11
2.16575e-09
-3.64845e-09
-1.04733e-09
2.45099e-09
-7.66209e-12
1.93637e-09
-1.71122e-10
-1.64248e-10
1.72407e-09
1.38703e-09
-4.71209e-09
-1.50875e-09
3.07691e-10
-3.74063e-10
1.39698e-09
-4.53814e-10
6.31955e-10
-1.16926e-10
1.45926e-10
-2.2967e-10
7.82171e-10
-2.30414e-10
-1.23827e-10
-1.0762e-10
-1.36886e-10
-2.43241e-10
-2.42218e-10
-2.0441e-10
1.63352e-10