/*--------------------------------*- C++ -*----------------------------------*\
| =========                 |                                                 |
| \\      /  F ield         | OpenFOAM: The Open Source CFD Toolbox           |
|  \\    /   O peration     | Version:  5.0                                   |
|   \\  /    A nd           | Web:      www.OpenFOAM.org                      |
|    \\/     M anipulation  |                                                 |
\*---------------------------------------------------------------------------*/
FoamFile
{
    version     2.0;
    format      ascii;
    class       volScalarField;
    location    "4.8";
    object      rAU;
}
// * * * * * * * * * * * * * * * * * * * * * * * * * * * * * * * * * * * * * //

dimensions      [-1 3 1 0 0 0 0];

internalField   nonuniform List<scalar> 
9207
(
8.78381e-07
6.85181e-07
8.76686e-07
6.87691e-07
3.39061e-07
6.90978e-07
1.98016e-07
1.29724e-07
3.93453e-07
3.94696e-07
3.9573e-07
3.96762e-07
3.97794e-07
3.98826e-07
3.99856e-07
4.00886e-07
4.01915e-07
4.02943e-07
4.03971e-07
4.04998e-07
4.06024e-07
4.0705e-07
4.08075e-07
4.09099e-07
4.10122e-07
4.11145e-07
4.12166e-07
4.13187e-07
4.14208e-07
4.15227e-07
4.16246e-07
4.17264e-07
4.18281e-07
4.19297e-07
4.20313e-07
4.21328e-07
4.22342e-07
4.23355e-07
4.24367e-07
4.25379e-07
4.2639e-07
4.274e-07
4.28409e-07
4.29417e-07
4.30425e-07
4.31431e-07
4.32437e-07
4.33442e-07
4.34446e-07
4.36222e-07
9.59299e-07
8.54909e-07
6.52594e-07
6.70983e-07
8.93806e-07
6.71715e-07
6.66965e-07
1.29627e-07
3.93452e-07
3.94696e-07
3.9573e-07
3.96762e-07
3.97794e-07
3.98826e-07
3.99856e-07
4.00886e-07
4.01915e-07
4.02943e-07
4.03971e-07
4.04998e-07
4.06024e-07
4.0705e-07
4.08075e-07
4.09099e-07
4.10122e-07
4.11145e-07
4.12166e-07
4.13187e-07
4.14208e-07
4.15227e-07
4.16246e-07
4.17264e-07
4.18281e-07
4.19297e-07
4.20313e-07
4.21328e-07
4.22342e-07
4.23355e-07
4.24367e-07
4.25379e-07
4.2639e-07
4.274e-07
4.28409e-07
4.29417e-07
4.30425e-07
4.31431e-07
4.32437e-07
4.33442e-07
4.34446e-07
4.36222e-07
9.66237e-07
9.59742e-07
8.79364e-07
8.95885e-07
6.89047e-07
6.59399e-07
6.99156e-07
3.53113e-08
3.93319e-07
3.94696e-07
3.9573e-07
3.96762e-07
3.97794e-07
3.98826e-07
3.99856e-07
4.00886e-07
4.01915e-07
4.02943e-07
4.03971e-07
4.04998e-07
4.06024e-07
4.0705e-07
4.08075e-07
4.09099e-07
4.10122e-07
4.11145e-07
4.12166e-07
4.13187e-07
4.14208e-07
4.15227e-07
4.16246e-07
4.17264e-07
4.18281e-07
4.19297e-07
4.20313e-07
4.21328e-07
4.22342e-07
4.23355e-07
4.24367e-07
4.25379e-07
4.2639e-07
4.274e-07
4.28409e-07
4.29417e-07
4.30425e-07
4.31431e-07
4.32437e-07
4.33442e-07
4.34446e-07
4.36222e-07
9.6359e-07
9.63275e-07
9.70874e-07
8.17425e-07
6.93641e-07
4.14738e-07
9.0351e-07
4.909e-08
1.30324e-07
3.94486e-07
3.9573e-07
3.96763e-07
3.97794e-07
3.98826e-07
3.99856e-07
4.00886e-07
4.01915e-07
4.02943e-07
4.03971e-07
4.04998e-07
4.06024e-07
4.0705e-07
4.08075e-07
4.09099e-07
4.10122e-07
4.11145e-07
4.12166e-07
4.13187e-07
4.14208e-07
4.15227e-07
4.16246e-07
4.17264e-07
4.18281e-07
4.19297e-07
4.20313e-07
4.21328e-07
4.22342e-07
4.23355e-07
4.24367e-07
4.25379e-07
4.2639e-07
4.274e-07
4.28409e-07
4.29417e-07
4.30425e-07
4.31431e-07
4.32437e-07
4.33442e-07
4.34446e-07
4.36222e-07
9.67948e-07
9.62633e-07
9.49129e-07
8.50436e-07
8.82144e-07
6.79804e-07
9.02779e-07
3.09798e-07
1.30173e-07
3.94487e-07
3.9573e-07
3.96763e-07
3.97794e-07
3.98826e-07
3.99856e-07
4.00886e-07
4.01915e-07
4.02943e-07
4.03971e-07
4.04998e-07
4.06024e-07
4.0705e-07
4.08075e-07
4.09099e-07
4.10122e-07
4.11145e-07
4.12166e-07
4.13187e-07
4.14208e-07
4.15227e-07
4.16246e-07
4.17264e-07
4.18281e-07
4.19297e-07
4.20313e-07
4.21328e-07
4.22342e-07
4.23355e-07
4.24367e-07
4.25379e-07
4.2639e-07
4.274e-07
4.28409e-07
4.29417e-07
4.30425e-07
4.31431e-07
4.32437e-07
4.33442e-07
4.34446e-07
4.36222e-07
9.64439e-07
8.90324e-07
8.98535e-07
8.82927e-07
6.64362e-07
6.30671e-07
9.02727e-07
5.99165e-07
1.30176e-07
3.94486e-07
3.9573e-07
3.96763e-07
3.97794e-07
3.98826e-07
3.99856e-07
4.00886e-07
4.01915e-07
4.02943e-07
4.03971e-07
4.04998e-07
4.06024e-07
4.0705e-07
4.08075e-07
4.09099e-07
4.10122e-07
4.11145e-07
4.12166e-07
4.13187e-07
4.14208e-07
4.15227e-07
4.16246e-07
4.17264e-07
4.18281e-07
4.19297e-07
4.20313e-07
4.21328e-07
4.22342e-07
4.23355e-07
4.24367e-07
4.25379e-07
4.2639e-07
4.274e-07
4.28409e-07
4.29417e-07
4.30425e-07
4.31431e-07
4.32437e-07
4.33442e-07
4.34446e-07
4.36222e-07
8.90208e-07
5.44055e-07
3.78797e-07
9.00703e-07
6.32083e-07
6.95014e-07
9.0189e-07
1.7368e-07
3.93318e-07
3.94695e-07
3.9573e-07
3.96762e-07
3.97794e-07
3.98826e-07
3.99856e-07
4.00886e-07
4.01915e-07
4.02943e-07
4.03971e-07
4.04998e-07
4.06024e-07
4.0705e-07
4.08075e-07
4.09099e-07
4.10122e-07
4.11145e-07
4.12166e-07
4.13187e-07
4.14208e-07
4.15227e-07
4.16246e-07
4.17264e-07
4.18281e-07
4.19297e-07
4.20313e-07
4.21328e-07
4.22342e-07
4.23355e-07
4.24367e-07
4.25379e-07
4.2639e-07
4.274e-07
4.28409e-07
4.29417e-07
4.30425e-07
4.31431e-07
4.32437e-07
4.33442e-07
4.34446e-07
4.36222e-07
9.5693e-07
8.7842e-07
6.12022e-07
5.47679e-07
5.59768e-07
6.77249e-07
9.02776e-07
3.9537e-08
3.93452e-07
3.94696e-07
3.9573e-07
3.96762e-07
3.97794e-07
3.98826e-07
3.99856e-07
4.00886e-07
4.01915e-07
4.02943e-07
4.03971e-07
4.04998e-07
4.06024e-07
4.0705e-07
4.08075e-07
4.09099e-07
4.10122e-07
4.11145e-07
4.12166e-07
4.13187e-07
4.14208e-07
4.15227e-07
4.16246e-07
4.17264e-07
4.18281e-07
4.19297e-07
4.20313e-07
4.21328e-07
4.22342e-07
4.23355e-07
4.24367e-07
4.25379e-07
4.2639e-07
4.274e-07
4.28409e-07
4.29417e-07
4.30425e-07
4.31431e-07
4.32437e-07
4.33442e-07
4.34446e-07
4.36222e-07
9.58821e-07
8.71656e-07
6.70397e-07
6.40046e-07
8.58644e-07
5.76067e-07
7.00733e-07
1.29446e-07
3.93453e-07
3.94696e-07
3.9573e-07
3.96762e-07
3.97794e-07
3.98826e-07
3.99856e-07
4.00886e-07
4.01915e-07
4.02943e-07
4.03971e-07
4.04998e-07
4.06024e-07
4.0705e-07
4.08075e-07
4.09099e-07
4.10122e-07
4.11145e-07
4.12166e-07
4.13187e-07
4.14208e-07
4.15227e-07
4.16246e-07
4.17264e-07
4.18281e-07
4.19297e-07
4.20313e-07
4.21328e-07
4.22342e-07
4.23355e-07
4.24367e-07
4.25379e-07
4.2639e-07
4.274e-07
4.28409e-07
4.29417e-07
4.30425e-07
4.31431e-07
4.32437e-07
4.33442e-07
4.34446e-07
4.36222e-07
8.78393e-07
6.0605e-07
6.54102e-07
6.46199e-07
7.83344e-07
6.86463e-07
6.66898e-07
1.29724e-07
3.93453e-07
3.94696e-07
3.9573e-07
3.96762e-07
3.97794e-07
3.98826e-07
3.99856e-07
4.00886e-07
4.01915e-07
4.02943e-07
4.03971e-07
4.04998e-07
4.06024e-07
4.0705e-07
4.08075e-07
4.09099e-07
4.10122e-07
4.11145e-07
4.12166e-07
4.13187e-07
4.14208e-07
4.15227e-07
4.16246e-07
4.17264e-07
4.18281e-07
4.19297e-07
4.20313e-07
4.21328e-07
4.22342e-07
4.23355e-07
4.24367e-07
4.25379e-07
4.2639e-07
4.274e-07
4.28409e-07
4.29417e-07
4.30425e-07
4.31431e-07
4.32437e-07
4.33442e-07
4.34446e-07
4.36222e-07
8.86829e-07
2.43463e-07
8.09669e-07
5.36233e-07
3.19056e-07
7.25494e-07
2.68746e-07
1.83948e-07
5.06037e-07
5.07526e-07
5.08664e-07
5.09801e-07
5.10937e-07
5.1207e-07
5.13203e-07
5.14334e-07
5.15462e-07
5.1659e-07
5.17716e-07
5.1884e-07
5.19962e-07
5.21084e-07
5.22202e-07
5.2332e-07
5.24437e-07
5.2555e-07
5.26663e-07
5.27775e-07
5.28883e-07
5.29992e-07
5.31098e-07
5.32202e-07
5.33305e-07
5.34407e-07
5.35505e-07
5.36604e-07
5.377e-07
5.38794e-07
5.39887e-07
5.40979e-07
5.42068e-07
5.43156e-07
5.44242e-07
5.45326e-07
5.4641e-07
5.47491e-07
5.4857e-07
5.49648e-07
5.50725e-07
5.53039e-07
9.58496e-07
9.57964e-07
8.8201e-07
5.93451e-07
8.82543e-07
6.00043e-07
7.65851e-07
1.83948e-07
5.06035e-07
5.07525e-07
5.08664e-07
5.09801e-07
5.10937e-07
5.1207e-07
5.13203e-07
5.14334e-07
5.15462e-07
5.1659e-07
5.17716e-07
5.1884e-07
5.19962e-07
5.21084e-07
5.22202e-07
5.2332e-07
5.24437e-07
5.2555e-07
5.26663e-07
5.27775e-07
5.28883e-07
5.29992e-07
5.31098e-07
5.32202e-07
5.33305e-07
5.34407e-07
5.35505e-07
5.36604e-07
5.377e-07
5.38794e-07
5.39887e-07
5.40979e-07
5.42068e-07
5.43156e-07
5.44243e-07
5.45326e-07
5.4641e-07
5.47491e-07
5.4857e-07
5.49648e-07
5.50725e-07
5.53039e-07
9.66432e-07
9.66155e-07
9.0006e-07
9.21944e-07
4.68054e-07
7.28591e-07
7.77403e-07
5.20169e-08
5.05814e-07
5.07524e-07
5.08664e-07
5.09801e-07
5.10937e-07
5.1207e-07
5.13203e-07
5.14334e-07
5.15462e-07
5.1659e-07
5.17716e-07
5.1884e-07
5.19962e-07
5.21084e-07
5.22202e-07
5.2332e-07
5.24437e-07
5.2555e-07
5.26663e-07
5.27775e-07
5.28883e-07
5.29991e-07
5.31098e-07
5.32202e-07
5.33305e-07
5.34407e-07
5.35505e-07
5.36604e-07
5.377e-07
5.38794e-07
5.39887e-07
5.40979e-07
5.42068e-07
5.43156e-07
5.44242e-07
5.45326e-07
5.4641e-07
5.47491e-07
5.4857e-07
5.49648e-07
5.50725e-07
5.53039e-07
9.44967e-07
9.6801e-07
9.65286e-07
7.40807e-07
5.12045e-07
4.97231e-07
9.32348e-07
7.30536e-08
1.84859e-07
5.07177e-07
5.08665e-07
5.09802e-07
5.10938e-07
5.12071e-07
5.13203e-07
5.14334e-07
5.15462e-07
5.1659e-07
5.17716e-07
5.1884e-07
5.19962e-07
5.21084e-07
5.22202e-07
5.2332e-07
5.24437e-07
5.2555e-07
5.26663e-07
5.27775e-07
5.28883e-07
5.29991e-07
5.31098e-07
5.32202e-07
5.33305e-07
5.34407e-07
5.35505e-07
5.36604e-07
5.377e-07
5.38794e-07
5.39887e-07
5.40979e-07
5.42068e-07
5.43156e-07
5.44242e-07
5.45326e-07
5.4641e-07
5.47491e-07
5.4857e-07
5.49648e-07
5.50725e-07
5.53039e-07
9.76868e-07
9.72134e-07
9.0054e-07
7.87029e-07
8.38159e-07
6.70558e-07
9.31755e-07
3.95376e-07
1.84556e-07
5.07178e-07
5.08665e-07
5.09802e-07
5.10938e-07
5.12071e-07
5.13203e-07
5.14334e-07
5.15462e-07
5.1659e-07
5.17716e-07
5.1884e-07
5.19962e-07
5.21084e-07
5.22202e-07
5.2332e-07
5.24437e-07
5.2555e-07
5.26663e-07
5.27775e-07
5.28883e-07
5.29992e-07
5.31098e-07
5.32202e-07
5.33305e-07
5.34407e-07
5.35505e-07
5.36604e-07
5.377e-07
5.38794e-07
5.39887e-07
5.40979e-07
5.42068e-07
5.43156e-07
5.44243e-07
5.45326e-07
5.4641e-07
5.47491e-07
5.4857e-07
5.49648e-07
5.50725e-07
5.53039e-07
9.66645e-07
9.10081e-07
8.97946e-07
7.60799e-07
5.73872e-07
6.65704e-07
9.31941e-07
6.40755e-07
1.84556e-07
5.07178e-07
5.08665e-07
5.09802e-07
5.10938e-07
5.12071e-07
5.13203e-07
5.14334e-07
5.15462e-07
5.1659e-07
5.17716e-07
5.1884e-07
5.19962e-07
5.21084e-07
5.22202e-07
5.2332e-07
5.24437e-07
5.2555e-07
5.26663e-07
5.27775e-07
5.28883e-07
5.29992e-07
5.31098e-07
5.32202e-07
5.33305e-07
5.34407e-07
5.35505e-07
5.36604e-07
5.377e-07
5.38794e-07
5.39887e-07
5.40979e-07
5.42068e-07
5.43156e-07
5.44243e-07
5.45326e-07
5.4641e-07
5.47491e-07
5.4857e-07
5.49648e-07
5.50725e-07
5.53039e-07
8.98128e-07
5.933e-07
2.31609e-07
8.49084e-07
6.20812e-07
7.16679e-07
9.30832e-07
2.39308e-07
5.05812e-07
5.07523e-07
5.08663e-07
5.09801e-07
5.10937e-07
5.1207e-07
5.13203e-07
5.14334e-07
5.15462e-07
5.1659e-07
5.17716e-07
5.1884e-07
5.19962e-07
5.21084e-07
5.22202e-07
5.2332e-07
5.24437e-07
5.2555e-07
5.26663e-07
5.27775e-07
5.28883e-07
5.29992e-07
5.31098e-07
5.32202e-07
5.33305e-07
5.34407e-07
5.35505e-07
5.36604e-07
5.377e-07
5.38794e-07
5.39887e-07
5.40979e-07
5.42068e-07
5.43156e-07
5.44243e-07
5.45326e-07
5.4641e-07
5.47491e-07
5.4857e-07
5.49648e-07
5.50725e-07
5.53039e-07
9.57428e-07
9.06916e-07
3.6638e-07
8.63328e-07
8.69634e-07
7.13982e-07
9.31091e-07
5.86194e-08
5.06035e-07
5.07524e-07
5.08663e-07
5.09801e-07
5.10937e-07
5.1207e-07
5.13203e-07
5.14334e-07
5.15462e-07
5.1659e-07
5.17716e-07
5.1884e-07
5.19962e-07
5.21084e-07
5.22202e-07
5.2332e-07
5.24437e-07
5.2555e-07
5.26663e-07
5.27775e-07
5.28883e-07
5.29991e-07
5.31098e-07
5.32202e-07
5.33305e-07
5.34407e-07
5.35505e-07
5.36604e-07
5.377e-07
5.38794e-07
5.39887e-07
5.40979e-07
5.42068e-07
5.43156e-07
5.44243e-07
5.45326e-07
5.4641e-07
5.47491e-07
5.4857e-07
5.49648e-07
5.50725e-07
5.53039e-07
9.65138e-07
8.14306e-07
2.48287e-07
2.52287e-07
8.20352e-07
6.88804e-07
7.7312e-07
1.83835e-07
5.06035e-07
5.07525e-07
5.08664e-07
5.09801e-07
5.10937e-07
5.1207e-07
5.13203e-07
5.14334e-07
5.15462e-07
5.1659e-07
5.17716e-07
5.1884e-07
5.19962e-07
5.21084e-07
5.22202e-07
5.2332e-07
5.24437e-07
5.2555e-07
5.26663e-07
5.27775e-07
5.28883e-07
5.29992e-07
5.31098e-07
5.32202e-07
5.33305e-07
5.34407e-07
5.35505e-07
5.36604e-07
5.377e-07
5.38794e-07
5.39887e-07
5.40979e-07
5.42068e-07
5.43156e-07
5.44243e-07
5.45326e-07
5.4641e-07
5.47491e-07
5.4857e-07
5.49648e-07
5.50724e-07
5.53039e-07
8.97265e-07
7.06545e-07
5.6628e-07
2.69723e-07
3.27275e-07
7.49315e-07
7.6772e-07
1.83949e-07
5.06037e-07
5.07526e-07
5.08664e-07
5.09801e-07
5.10937e-07
5.1207e-07
5.13203e-07
5.14334e-07
5.15462e-07
5.1659e-07
5.17716e-07
5.1884e-07
5.19962e-07
5.21084e-07
5.22202e-07
5.2332e-07
5.24437e-07
5.2555e-07
5.26663e-07
5.27775e-07
5.28883e-07
5.29992e-07
5.31098e-07
5.32202e-07
5.33305e-07
5.34407e-07
5.35505e-07
5.36604e-07
5.377e-07
5.38794e-07
5.39887e-07
5.40979e-07
5.42068e-07
5.43156e-07
5.44242e-07
5.45326e-07
5.4641e-07
5.47491e-07
5.4857e-07
5.49648e-07
5.50725e-07
5.53039e-07
9.48458e-07
7.41847e-07
8.45125e-07
7.53957e-07
5.2223e-07
6.98568e-07
2.65737e-07
1.83969e-07
3.93453e-07
3.94696e-07
3.9573e-07
3.96762e-07
3.97794e-07
3.98826e-07
3.99856e-07
4.00886e-07
4.01915e-07
4.02943e-07
4.03971e-07
4.04998e-07
4.06024e-07
4.0705e-07
4.08075e-07
4.09099e-07
4.10122e-07
4.11145e-07
4.12166e-07
4.13187e-07
4.14208e-07
4.15227e-07
4.16246e-07
4.17264e-07
4.18281e-07
4.19297e-07
4.20313e-07
4.21328e-07
4.22341e-07
4.23355e-07
4.24367e-07
4.25379e-07
4.2639e-07
4.274e-07
4.28409e-07
4.29417e-07
4.30425e-07
4.31431e-07
4.32437e-07
4.33442e-07
4.34446e-07
4.36222e-07
9.68902e-07
9.54411e-07
9.60531e-07
8.53104e-07
8.31969e-07
6.26735e-07
7.68142e-07
1.83952e-07
3.93452e-07
3.94696e-07
3.9573e-07
3.96762e-07
3.97794e-07
3.98826e-07
3.99856e-07
4.00886e-07
4.01915e-07
4.02943e-07
4.03971e-07
4.04998e-07
4.06024e-07
4.0705e-07
4.08075e-07
4.09099e-07
4.10122e-07
4.11145e-07
4.12166e-07
4.13187e-07
4.14208e-07
4.15227e-07
4.16246e-07
4.17264e-07
4.18281e-07
4.19297e-07
4.20313e-07
4.21328e-07
4.22341e-07
4.23355e-07
4.24367e-07
4.25379e-07
4.2639e-07
4.274e-07
4.28409e-07
4.29417e-07
4.30425e-07
4.31431e-07
4.32437e-07
4.33442e-07
4.34446e-07
4.36222e-07
9.62887e-07
9.71718e-07
9.65432e-07
8.5559e-07
8.87829e-07
6.74571e-07
7.77143e-07
5.20171e-08
3.93319e-07
3.94695e-07
3.9573e-07
3.96762e-07
3.97794e-07
3.98826e-07
3.99856e-07
4.00886e-07
4.01915e-07
4.02943e-07
4.03971e-07
4.04998e-07
4.06024e-07
4.0705e-07
4.08075e-07
4.09099e-07
4.10122e-07
4.11145e-07
4.12166e-07
4.13187e-07
4.14208e-07
4.15227e-07
4.16246e-07
4.17264e-07
4.18281e-07
4.19297e-07
4.20313e-07
4.21328e-07
4.22341e-07
4.23355e-07
4.24367e-07
4.25379e-07
4.2639e-07
4.274e-07
4.28408e-07
4.29417e-07
4.30425e-07
4.31431e-07
4.32437e-07
4.33442e-07
4.34446e-07
4.36222e-07
9.60327e-07
9.62417e-07
9.70185e-07
9.37013e-07
8.73268e-07
5.21035e-07
9.32572e-07
7.29087e-08
1.84863e-07
3.94486e-07
3.9573e-07
3.96763e-07
3.97794e-07
3.98826e-07
3.99856e-07
4.00886e-07
4.01915e-07
4.02943e-07
4.03971e-07
4.04998e-07
4.06024e-07
4.0705e-07
4.08075e-07
4.09099e-07
4.10122e-07
4.11145e-07
4.12166e-07
4.13187e-07
4.14208e-07
4.15227e-07
4.16246e-07
4.17264e-07
4.18281e-07
4.19297e-07
4.20313e-07
4.21328e-07
4.22341e-07
4.23355e-07
4.24367e-07
4.25379e-07
4.2639e-07
4.274e-07
4.28408e-07
4.29417e-07
4.30425e-07
4.31431e-07
4.32437e-07
4.33442e-07
4.34446e-07
4.36222e-07
9.68274e-07
9.62312e-07
8.73773e-07
9.45212e-07
8.7976e-07
6.65582e-07
9.31475e-07
3.95429e-07
1.8456e-07
3.94486e-07
3.9573e-07
3.96763e-07
3.97794e-07
3.98826e-07
3.99856e-07
4.00886e-07
4.01915e-07
4.02943e-07
4.03971e-07
4.04998e-07
4.06024e-07
4.0705e-07
4.08075e-07
4.09099e-07
4.10122e-07
4.11145e-07
4.12166e-07
4.13187e-07
4.14208e-07
4.15227e-07
4.16246e-07
4.17264e-07
4.18281e-07
4.19297e-07
4.20313e-07
4.21328e-07
4.22341e-07
4.23355e-07
4.24367e-07
4.25379e-07
4.2639e-07
4.274e-07
4.28409e-07
4.29417e-07
4.30425e-07
4.31431e-07
4.32437e-07
4.33442e-07
4.34446e-07
4.36222e-07
9.59222e-07
9.10055e-07
8.2874e-07
8.54043e-07
8.14111e-07
5.90921e-07
9.31712e-07
6.55018e-07
1.84561e-07
3.94486e-07
3.9573e-07
3.96763e-07
3.97794e-07
3.98826e-07
3.99856e-07
4.00886e-07
4.01915e-07
4.02943e-07
4.03971e-07
4.04998e-07
4.06024e-07
4.0705e-07
4.08075e-07
4.09099e-07
4.10122e-07
4.11145e-07
4.12166e-07
4.13187e-07
4.14208e-07
4.15227e-07
4.16246e-07
4.17264e-07
4.18281e-07
4.19297e-07
4.20313e-07
4.21328e-07
4.22341e-07
4.23355e-07
4.24367e-07
4.25379e-07
4.2639e-07
4.274e-07
4.28409e-07
4.29417e-07
4.30425e-07
4.31431e-07
4.32437e-07
4.33442e-07
4.34446e-07
4.36222e-07
8.67018e-07
7.62609e-07
6.81921e-07
5.84582e-07
5.31434e-07
7.10669e-07
9.30979e-07
2.3913e-07
3.93318e-07
3.94695e-07
3.9573e-07
3.96762e-07
3.97794e-07
3.98826e-07
3.99856e-07
4.00886e-07
4.01915e-07
4.02943e-07
4.03971e-07
4.04998e-07
4.06024e-07
4.0705e-07
4.08075e-07
4.09099e-07
4.10122e-07
4.11145e-07
4.12166e-07
4.13187e-07
4.14208e-07
4.15227e-07
4.16246e-07
4.17264e-07
4.18281e-07
4.19297e-07
4.20313e-07
4.21328e-07
4.22341e-07
4.23355e-07
4.24367e-07
4.25379e-07
4.2639e-07
4.274e-07
4.28409e-07
4.29417e-07
4.30425e-07
4.31431e-07
4.32437e-07
4.33442e-07
4.34446e-07
4.36222e-07
9.64366e-07
8.97201e-07
3.59753e-07
9.08793e-07
7.56646e-07
7.33618e-07
9.31464e-07
5.85298e-08
3.93452e-07
3.94696e-07
3.9573e-07
3.96762e-07
3.97794e-07
3.98826e-07
3.99856e-07
4.00886e-07
4.01915e-07
4.02943e-07
4.03971e-07
4.04998e-07
4.06024e-07
4.0705e-07
4.08075e-07
4.09099e-07
4.10122e-07
4.11145e-07
4.12166e-07
4.13187e-07
4.14208e-07
4.15227e-07
4.16246e-07
4.17264e-07
4.18281e-07
4.19297e-07
4.20313e-07
4.21328e-07
4.22341e-07
4.23355e-07
4.24367e-07
4.25379e-07
4.2639e-07
4.274e-07
4.28409e-07
4.29417e-07
4.30425e-07
4.31431e-07
4.32437e-07
4.33442e-07
4.34446e-07
4.36222e-07
9.55369e-07
9.08347e-07
5.02423e-07
7.98999e-07
6.48671e-07
6.71997e-07
7.73429e-07
1.83838e-07
3.93453e-07
3.94696e-07
3.9573e-07
3.96762e-07
3.97794e-07
3.98826e-07
3.99856e-07
4.00886e-07
4.01915e-07
4.02943e-07
4.03971e-07
4.04998e-07
4.06024e-07
4.0705e-07
4.08075e-07
4.09099e-07
4.10122e-07
4.11145e-07
4.12166e-07
4.13187e-07
4.14208e-07
4.15227e-07
4.16246e-07
4.17264e-07
4.18281e-07
4.19297e-07
4.20313e-07
4.21328e-07
4.22341e-07
4.23355e-07
4.24367e-07
4.25379e-07
4.2639e-07
4.274e-07
4.28409e-07
4.29417e-07
4.30425e-07
4.31431e-07
4.32437e-07
4.33442e-07
4.34446e-07
4.36222e-07
8.83429e-07
5.6021e-07
6.69502e-07
4.61875e-07
2.33774e-07
7.58336e-07
7.6775e-07
1.83953e-07
3.93453e-07
3.94696e-07
3.9573e-07
3.96762e-07
3.97794e-07
3.98826e-07
3.99856e-07
4.00886e-07
4.01915e-07
4.02943e-07
4.03971e-07
4.04998e-07
4.06024e-07
4.0705e-07
4.08075e-07
4.09099e-07
4.10122e-07
4.11145e-07
4.12166e-07
4.13187e-07
4.14208e-07
4.15227e-07
4.16246e-07
4.17264e-07
4.18281e-07
4.19297e-07
4.20313e-07
4.21328e-07
4.22341e-07
4.23355e-07
4.24367e-07
4.25379e-07
4.2639e-07
4.274e-07
4.28409e-07
4.29417e-07
4.30425e-07
4.31431e-07
4.32437e-07
4.33442e-07
4.34446e-07
4.36222e-07
6.98784e-07
6.80861e-07
6.98848e-07
7.34695e-07
7.74269e-07
7.15777e-07
7.72516e-07
6.99839e-07
6.6413e-07
7.00724e-07
6.91701e-07
7.7488e-07
6.83251e-07
7.74405e-07
7.00637e-07
5.90268e-07
7.00525e-07
7.21668e-07
7.75285e-07
6.22036e-07
7.75843e-07
7.00715e-07
6.8943e-07
6.9922e-07
4.96702e-07
7.75587e-07
7.31019e-07
7.70789e-07
6.97731e-07
5.41767e-07
7.00371e-07
6.82418e-07
7.73128e-07
6.32319e-07
7.70476e-07
6.99908e-07
6.685e-07
6.99544e-07
6.89805e-07
7.77068e-07
6.22407e-07
7.73721e-07
6.98705e-07
6.61603e-07
7.00192e-07
7.51594e-07
7.67746e-07
6.55623e-07
7.72587e-07
7.00292e-07
5.88519e-07
6.9979e-07
7.31707e-07
7.76703e-07
5.94903e-07
7.74504e-07
6.99821e-07
6.79519e-07
6.99627e-07
6.90492e-07
7.71746e-07
7.0373e-07
7.71147e-07
7.00235e-07
6.82293e-07
6.99587e-07
7.63532e-07
7.73471e-07
6.54779e-07
7.74313e-07
7.74005e-07
6.9575e-07
7.72091e-07
7.14294e-07
7.74279e-07
6.56447e-07
7.72317e-07
7.73931e-07
6.45933e-07
7.74785e-07
5.50146e-07
7.7396e-07
5.76452e-07
7.75208e-07
7.75632e-07
5.94682e-07
7.75829e-07
6.87291e-07
7.74926e-07
5.47439e-07
7.7614e-07
7.75442e-07
7.30047e-07
7.67369e-07
5.12701e-07
7.75443e-07
6.83453e-07
7.73312e-07
7.73252e-07
5.34066e-07
7.67179e-07
6.60982e-07
7.7339e-07
4.09938e-07
7.6866e-07
7.76246e-07
5.99353e-07
7.72586e-07
6.33318e-07
7.766e-07
5.69094e-07
7.76228e-07
7.68978e-07
6.76668e-07
7.73103e-07
6.77268e-07
7.72828e-07
6.70771e-07
7.7234e-07
7.75762e-07
5.91512e-07
7.74154e-07
7.31375e-07
7.73689e-07
5.98444e-07
7.74471e-07
7.70285e-07
7.04456e-07
7.70807e-07
6.49095e-07
7.69467e-07
6.71441e-07
7.7247e-07
7.73278e-07
6.66306e-07
7.74453e-07
7.56023e-07
7.74701e-07
6.58807e-07
7.74257e-07
7.73858e-07
6.76539e-07
7.7247e-07
6.49813e-07
6.98909e-07
6.81267e-07
6.98601e-07
7.74629e-07
6.04673e-07
7.75408e-07
4.49503e-07
6.99553e-07
6.41737e-07
7.00752e-07
7.75307e-07
5.91822e-07
7.75888e-07
5.26738e-07
7.00634e-07
6.35539e-07
7.00446e-07
7.75324e-07
6.4455e-07
7.71577e-07
5.48403e-07
6.9939e-07
5.94983e-07
6.99758e-07
7.72605e-07
5.05645e-07
7.68921e-07
6.77269e-07
6.99281e-07
2.4872e-07
7.00223e-07
7.76021e-07
5.38619e-07
7.75334e-07
6.15724e-07
7.00001e-07
4.05367e-07
6.99782e-07
7.69305e-07
6.85181e-07
7.71448e-07
6.75024e-07
6.98085e-07
6.79451e-07
6.98558e-07
7.72044e-07
6.2051e-07
7.74584e-07
6.86081e-07
7.00551e-07
6.20141e-07
6.99796e-07
7.69455e-07
6.68157e-07
7.72761e-07
6.75101e-07
6.99381e-07
6.8788e-07
6.98697e-07
7.75275e-07
6.53809e-07
7.74769e-07
6.93245e-07
7.0038e-07
6.51906e-07
6.99623e-07
6.98058e-07
8.59676e-07
8.00161e-07
2.57651e-07
7.68305e-07
8.56222e-07
8.37583e-07
7.6456e-07
6.95583e-07
5.69436e-07
7.44637e-07
6.44893e-07
6.95115e-07
7.66387e-07
3.52761e-08
6.08352e-07
3.52761e-08
2.65318e-07
5.19791e-08
6.84795e-07
5.19792e-08
8.53006e-07
5.69674e-07
7.33246e-07
8.84178e-07
8.19835e-07
6.05732e-07
5.90138e-07
7.36769e-07
6.92438e-07
6.29612e-07
7.46794e-07
7.64755e-07
6.54794e-07
6.82779e-07
3.52762e-08
7.01558e-07
3.51958e-08
7.65984e-07
5.19795e-08
7.77526e-07
5.2083e-08
6.58419e-07
6.47082e-07
2.65435e-07
3.92615e-07
6.51644e-07
6.19139e-07
2.44073e-07
7.64282e-07
6.97095e-07
6.37535e-07
6.97046e-07
7.74029e-07
6.54433e-07
6.92925e-07
3.71822e-08
6.99106e-07
1.37212e-07
7.77657e-07
5.50943e-08
7.77345e-07
1.92516e-07
1.84345e-07
8.7628e-07
8.88472e-07
3.74223e-07
2.0785e-07
8.14281e-07
8.35144e-07
7.34755e-07
6.59517e-07
3.10656e-07
4.7965e-07
7.5538e-07
4.031e-07
6.88816e-07
4.54331e-07
9.02268e-07
6.99655e-07
9.32609e-07
5.27563e-07
9.31483e-07
7.74468e-07
6.4832e-07
6.5909e-07
1.54547e-07
9.21403e-07
4.28271e-07
3.65518e-07
1.93399e-07
7.52133e-07
6.97438e-07
6.47638e-07
6.96752e-07
7.70158e-07
6.6628e-07
6.88868e-07
7.00789e-07
9.02664e-07
7.0184e-07
9.32637e-07
7.7663e-07
9.31871e-07
7.77938e-07
5.12921e-07
6.52666e-07
1.29418e-07
5.07005e-07
5.41034e-07
5.67464e-07
1.84304e-07
7.62925e-07
6.95256e-07
6.85209e-07
6.9723e-07
7.66114e-07
7.56646e-07
6.9503e-07
7.01374e-07
9.02463e-07
7.00656e-07
9.32095e-07
7.77848e-07
9.31999e-07
7.76317e-07
2.58512e-07
8.14123e-07
8.29801e-07
5.42735e-07
3.12297e-07
8.65734e-07
8.89731e-07
7.60762e-07
6.97698e-07
5.21862e-07
7.63493e-07
7.70736e-07
6.33304e-07
6.93373e-07
6.99201e-07
9.02751e-07
5.22968e-07
9.30222e-07
7.73929e-07
9.31871e-07
5.89516e-07
8.71564e-07
5.70275e-07
7.8639e-07
5.15899e-07
8.94791e-07
3.69929e-07
7.99899e-07
7.32917e-07
6.93949e-07
3.3645e-07
7.32557e-07
7.62405e-07
3.12457e-07
6.55811e-07
1.63679e-07
6.99087e-07
3.93953e-08
9.31377e-07
2.25373e-07
7.73185e-07
5.87162e-08
8.02567e-07
8.36891e-07
8.36315e-07
9.04219e-07
8.79018e-07
8.12465e-07
9.16721e-07
6.30597e-07
6.74652e-07
4.28461e-07
6.54863e-07
7.49328e-07
6.1822e-07
5.37997e-07
3.57247e-08
6.94587e-07
3.52109e-08
7.73161e-07
5.3038e-08
7.70718e-07
5.19824e-08
8.77673e-07
8.42729e-07
8.86758e-07
7.01156e-07
8.40628e-07
7.86926e-07
8.79057e-07
7.7189e-07
6.9658e-07
6.54701e-07
7.27148e-07
7.72025e-07
6.53749e-07
7.00577e-07
3.52762e-08
2.25533e-07
3.52761e-08
7.67594e-07
5.19799e-08
2.95434e-07
5.19793e-08
7.17125e-07
8.65909e-07
7.11751e-07
7.40166e-07
6.87323e-07
6.80868e-07
5.81365e-07
7.08502e-07
7.49866e-07
4.87899e-07
7.22535e-07
7.20675e-07
4.26013e-07
7.51337e-07
5.19785e-08
6.75678e-07
5.19787e-08
2.72124e-07
5.19785e-08
6.78825e-07
5.19787e-08
8.10483e-07
3.31559e-07
4.29206e-07
9.09146e-07
6.81496e-07
8.25688e-07
7.7717e-07
6.71841e-07
7.4339e-07
3.97314e-07
4.85642e-07
6.73479e-07
7.28186e-07
3.55961e-07
5.1979e-08
7.77447e-07
5.20902e-08
7.6805e-07
5.1979e-08
7.77111e-07
5.20904e-08
3.55368e-07
6.39785e-07
2.29397e-07
6.4162e-07
6.81956e-07
2.69022e-07
4.98616e-07
7.54811e-07
7.67519e-07
6.61704e-07
6.96276e-07
7.56826e-07
7.63701e-07
6.70979e-07
5.51668e-08
7.77199e-07
1.925e-07
7.77042e-07
5.51669e-08
7.76992e-07
1.92529e-07
2.10198e-07
9.24494e-07
8.82741e-07
5.11053e-07
3.87706e-07
8.57334e-07
8.16483e-07
6.56273e-07
7.56468e-07
5.78685e-07
5.02416e-07
6.65342e-07
7.50353e-07
5.46248e-07
5.24873e-07
9.31914e-07
7.7425e-07
9.32312e-07
5.2392e-07
9.31588e-07
7.74513e-07
6.69869e-07
6.10757e-07
2.1088e-07
8.96705e-07
3.54841e-07
5.30557e-07
3.50105e-07
7.23736e-07
7.57448e-07
6.52205e-07
6.61252e-07
7.24389e-07
7.58615e-07
5.97724e-07
7.76384e-07
9.31722e-07
7.77414e-07
9.32045e-07
7.76337e-07
9.31689e-07
7.77232e-07
5.93442e-07
5.54649e-07
1.79331e-07
6.033e-07
4.17357e-07
7.72599e-07
1.5221e-07
7.43024e-07
7.63431e-07
7.24953e-07
6.68087e-07
7.47647e-07
7.6296e-07
7.19176e-07
7.77434e-07
9.31899e-07
7.75765e-07
9.31454e-07
7.77006e-07
9.3165e-07
7.75676e-07
3.15782e-07
8.66696e-07
7.75659e-07
5.60287e-07
3.05528e-07
8.01084e-07
8.89506e-07
7.36317e-07
7.60159e-07
6.30163e-07
6.72566e-07
7.39308e-07
7.55726e-07
6.14784e-07
7.73813e-07
9.31536e-07
5.85567e-07
9.31424e-07
7.74546e-07
9.31672e-07
5.85498e-07
7.84627e-07
5.98039e-07
8.06231e-07
6.7438e-07
7.26045e-07
7.75824e-07
3.34079e-07
7.45107e-07
7.44716e-07
2.66176e-07
6.94357e-07
7.41459e-07
7.40777e-07
2.61214e-07
2.25282e-07
7.72915e-07
5.87813e-08
9.31089e-07
2.25365e-07
7.72651e-07
5.87787e-08
8.27417e-07
2.35089e-07
7.81876e-07
5.11486e-07
5.58671e-07
6.18422e-07
3.77416e-07
6.66e-07
7.24591e-07
4.11709e-07
6.37296e-07
6.53148e-07
7.40957e-07
4.48884e-07
5.30937e-08
7.70497e-07
5.1982e-08
7.73172e-07
5.30945e-08
7.69599e-07
5.1982e-08
6.93365e-07
5.49823e-07
8.49582e-07
2.23894e-07
5.06027e-07
8.23067e-07
8.51635e-07
7.49042e-07
7.68896e-07
7.55718e-07
7.34646e-07
7.59416e-07
7.68363e-07
7.6442e-07
5.19794e-08
3.04796e-07
5.19787e-08
7.67894e-07
5.19794e-08
2.94769e-07
5.19788e-08
6.74596e-07
5.42366e-07
5.07076e-07
7.98194e-07
6.67765e-07
6.73961e-07
3.27132e-07
7.10085e-07
7.60143e-07
5.38821e-07
7.21374e-07
6.78925e-07
4.31617e-07
7.60285e-07
5.1979e-08
6.88366e-07
5.19791e-08
1.98622e-07
3.52761e-08
5.88632e-07
3.52761e-08
6.52031e-07
9.21223e-07
8.53392e-07
8.74222e-07
7.84911e-07
8.42355e-07
8.43811e-07
6.98496e-07
7.49657e-07
6.18633e-07
5.65488e-07
6.83961e-07
7.52757e-07
6.05634e-07
5.19794e-08
7.77427e-07
5.20832e-08
6.86834e-07
3.5255e-08
7.01693e-07
3.51956e-08
6.62145e-07
6.75983e-07
6.38726e-07
8.68616e-07
5.36027e-07
8.74294e-07
6.76593e-07
7.57342e-07
7.61594e-07
5.4635e-07
6.41232e-07
7.53819e-07
7.62892e-07
5.46654e-07
5.50968e-08
7.77363e-07
1.92408e-07
7.0041e-07
3.70794e-08
6.99056e-07
1.37193e-07
7.59332e-07
9.15896e-07
8.97223e-07
8.22634e-07
7.30193e-07
8.78905e-07
8.73623e-07
7.08981e-07
7.60055e-07
5.10661e-07
5.14983e-07
6.75702e-07
7.64506e-07
5.06102e-07
5.28632e-07
9.32124e-07
7.74725e-07
9.03379e-07
4.52454e-07
9.02647e-07
6.99647e-07
6.20358e-07
7.04535e-07
5.32018e-07
8.61287e-07
8.69678e-07
6.10346e-07
6.37934e-07
7.46253e-07
7.65725e-07
6.60399e-07
6.84044e-07
7.498e-07
7.6742e-07
6.62791e-07
7.76776e-07
9.32015e-07
7.77906e-07
9.02673e-07
7.00917e-07
9.0282e-07
7.01809e-07
5.20541e-07
6.04957e-07
1.67897e-07
7.65048e-07
6.56286e-07
6.96317e-07
2.782e-07
7.59513e-07
7.63879e-07
6.91614e-07
5.95201e-07
7.5331e-07
7.58701e-07
6.71084e-07
7.78031e-07
9.31916e-07
7.76166e-07
9.02593e-07
7.01386e-07
9.02608e-07
7.00623e-07
2.72934e-07
6.9891e-07
8.50633e-07
6.95659e-07
4.11449e-07
7.53787e-07
8.79979e-07
7.29883e-07
7.66204e-07
7.25757e-07
7.29292e-07
7.2577e-07
7.65956e-07
6.99042e-07
7.74679e-07
9.32217e-07
5.89562e-07
9.0205e-07
6.9929e-07
9.02904e-07
5.24475e-07
5.68082e-07
6.08719e-07
4.0561e-07
5.97398e-07
6.6133e-07
6.70933e-07
2.73673e-07
6.79635e-07
7.45737e-07
2.75507e-07
7.25265e-07
7.14381e-07
7.56786e-07
2.7086e-07
2.25713e-07
7.72886e-07
5.87145e-08
9.02995e-07
1.63306e-07
6.98018e-07
3.93991e-08
5.3375e-07
4.06902e-07
3.71952e-07
6.00584e-07
2.41211e-07
3.07204e-07
5.79345e-07
7.22324e-07
7.31734e-07
5.35918e-07
7.19947e-07
6.97576e-07
7.54706e-07
4.82824e-07
5.30392e-08
7.69819e-07
5.19823e-08
7.00752e-07
3.56549e-08
6.90965e-07
3.52119e-08
5.20618e-07
8.72301e-07
9.0991e-07
2.66252e-07
6.39709e-07
7.48478e-07
8.79358e-07
7.63783e-07
7.68485e-07
7.10565e-07
7.53626e-07
7.61761e-07
7.69433e-07
6.74359e-07
5.19798e-08
2.9511e-07
5.19793e-08
6.81498e-07
3.52763e-08
2.25343e-07
3.52762e-08
7.74398e-07
6.99764e-07
6.99386e-07
7.7483e-07
7.75518e-07
6.99107e-07
7.7457e-07
7.52792e-07
3.98424e-07
6.87853e-07
7.74071e-07
5.551e-07
7.51081e-07
6.8818e-07
7.65475e-07
6.98681e-07
6.94076e-07
7.73287e-07
7.72777e-07
7.66765e-07
6.9471e-07
7.582e-07
7.32807e-07
7.56658e-07
6.13661e-07
6.61365e-07
7.43719e-07
7.62557e-07
7.71148e-07
7.74803e-07
7.73225e-07
7.73564e-07
7.74435e-07
7.69237e-07
7.73477e-07
7.35794e-07
7.70364e-07
5.38872e-07
7.51418e-07
6.10277e-07
7.47987e-07
7.15878e-07
7.64337e-07
7.72917e-07
7.71387e-07
7.60179e-07
7.71945e-07
7.6383e-07
7.63938e-07
7.7527e-07
6.98266e-07
7.0031e-07
7.76216e-07
7.73913e-07
7.77166e-07
6.99762e-07
7.49453e-07
5.90674e-07
6.93517e-07
6.86375e-07
6.46786e-07
7.70365e-07
6.88147e-07
7.6954e-07
6.99788e-07
6.99649e-07
7.76164e-07
7.75485e-07
7.75094e-07
6.96297e-07
7.21807e-07
7.33637e-07
7.50423e-07
5.37108e-07
7.59151e-07
6.48508e-07
7.03541e-07
7.73548e-07
7.76056e-07
7.74056e-07
7.76885e-07
7.74135e-07
7.76912e-07
7.70439e-07
7.38311e-07
7.03781e-07
5.56712e-07
7.71361e-07
5.67793e-07
7.72036e-07
7.39229e-07
7.66144e-07
7.75003e-07
7.74251e-07
7.75329e-07
7.74695e-07
7.74768e-07
7.67783e-07
7.72066e-07
7.00279e-07
7.00622e-07
7.76204e-07
7.73866e-07
7.76232e-07
6.9849e-07
6.93114e-07
4.43374e-07
6.93914e-07
6.5247e-07
6.34036e-07
7.62203e-07
6.06294e-07
7.66444e-07
7.00644e-07
6.98792e-07