/*--------------------------------*- C++ -*----------------------------------*\
| =========                 |                                                 |
| \\      /  F ield         | OpenFOAM: The Open Source CFD Toolbox           |
|  \\    /   O peration     | Version:  5.0                                   |
|   \\  /    A nd           | Web:      www.OpenFOAM.org                      |
|    \\/     M anipulation  |                                                 |
\*---------------------------------------------------------------------------*/
FoamFile
{
    version     2.0;
    format      ascii;
    class       volVectorField;
    location    "4.8";
    object      U;
}
// * * * * * * * * * * * * * * * * * * * * * * * * * * * * * * * * * * * * * //

dimensions      [0 1 -1 0 0 0 0];

internalField   nonuniform List<vector> 
9207
(
(-0.0436382 0.00112746 0.00199156)
(0.00775788 -0.00815257 0.0185957)
(0.0355423 -0.0180589 -0.00213952)
(-0.0466691 0.00516743 -0.00226227)
(0.0013583 0.00559835 -0.000615171)
(0.00076884 0.00218594 -0.000189084)
(0.00140145 0.000215271 -1.27402e-05)
(0.000483662 -2.44706e-06 1.93145e-07)
(0.00088684 1.08175e-06 -1.40763e-06)
(0.000825271 5.51056e-06 -4.39553e-07)
(0.000836927 4.85338e-06 2.11982e-07)
(0.000832403 3.69722e-06 4.38329e-08)
(0.000831436 2.6408e-06 6.32721e-08)
(0.000829208 2.0989e-06 5.80843e-08)
(0.00082689 1.37985e-06 4.6808e-08)
(0.000825124 8.60487e-07 2.28116e-07)
(0.000823481 5.25451e-07 5.36187e-08)
(0.000821827 2.79375e-07 8.44947e-08)
(0.00082006 1.67679e-07 5.97128e-08)
(0.000818757 -6.0554e-08 8.93817e-08)
(0.000817398 -3.47645e-08 7.03684e-08)
(0.000815651 1.06087e-07 3.0679e-08)
(0.000814096 -9.33621e-08 4.55218e-08)
(0.000812576 -2.24366e-09 4.63217e-08)
(0.000811027 1.21709e-07 5.69547e-08)
(0.000809629 3.68575e-07 4.43588e-08)
(0.000808244 3.46199e-07 5.7165e-08)
(0.000806837 1.80533e-07 4.97338e-08)
(0.000805149 3.14715e-07 6.53171e-08)
(0.000803614 -9.98558e-08 7.75237e-08)
(0.000802076 -3.49049e-07 7.89326e-08)
(0.000800329 -4.10374e-07 3.77437e-08)
(0.000799045 -2.47553e-07 8.50424e-08)
(0.000798039 -6.02784e-08 1.15436e-07)
(0.000796626 1.81967e-07 4.14413e-08)
(0.000794932 1.50597e-07 5.53452e-08)
(0.00079318 1.9715e-07 3.2127e-08)
(0.000791261 2.9697e-07 -4.48688e-09)
(0.000790536 6.82934e-07 9.72035e-08)
(0.000789637 2.53228e-07 1.32057e-07)
(0.000787779 6.53864e-08 2.82755e-08)
(0.000786282 4.27042e-08 8.27343e-08)
(0.000785084 -1.9085e-07 1.08711e-07)
(0.000783432 -3.11164e-07 2.69937e-08)
(0.000781781 -1.73154e-07 4.5083e-08)
(0.000780415 -6.7777e-08 -7.91878e-08)
(0.000779191 2.20699e-08 4.78636e-08)
(0.000778068 -1.68632e-07 6.66356e-08)
(0.000776238 -4.80029e-07 1.81685e-08)
(0.000774499 -4.01585e-07 1.41445e-09)
(-0.00882907 -0.0151387 0.00087905)
(-0.0090706 -0.0159001 0.00107798)
(0.0130492 -0.00350262 0.000247216)
(-0.004875 -0.0050645 -1.27777e-05)
(-0.0094568 -0.00450331 -0.000425376)
(0.00494628 -0.0104504 -0.000177093)
(0.00169698 -0.000414036 0.000114332)
(0.000471706 -2.56191e-05 -1.33636e-06)
(0.000902965 2.08406e-06 -1.58455e-06)
(0.000831319 9.74234e-06 -4.63336e-07)
(0.000836989 6.19651e-06 1.18534e-07)
(0.000831625 4.82551e-06 2.73763e-08)
(0.000829893 3.27824e-06 5.30245e-08)
(0.000828009 1.96547e-06 4.52861e-08)
(0.00082632 1.33053e-06 4.83679e-08)
(0.000824723 8.33741e-07 5.2494e-08)
(0.00082312 7.35442e-07 5.13357e-08)
(0.000821625 6.34731e-07 8.43466e-08)
(0.000820194 6.65396e-07 7.89579e-08)
(0.000818577 4.63271e-07 2.46459e-08)
(0.000817164 2.97051e-07 1.05483e-07)
(0.000815547 1.98353e-07 3.03599e-08)
(0.000814006 3.61612e-07 1.13524e-07)
(0.000812896 3.16789e-07 8.77128e-08)
(0.000811464 1.55354e-07 4.39936e-08)
(0.000809644 1.27337e-07 2.56668e-08)
(0.000807932 6.8364e-09 9.20451e-08)
(0.00080667 -8.95722e-08 4.92084e-08)
(0.000804945 -4.13369e-07 7.80228e-08)
(0.000803147 -2.34362e-07 3.95752e-08)
(0.000801966 -1.75618e-07 -1.32859e-07)
(0.000800619 1.21353e-08 2.38093e-08)
(0.000799415 5.74681e-07 1.34179e-07)
(0.000798293 5.37336e-07 3.06346e-07)
(0.000796496 1.02285e-07 4.78567e-08)
(0.000794798 1.402e-07 3.89262e-08)
(0.000793623 1.77529e-07 4.47208e-08)
(0.000792513 4.09253e-07 4.46602e-09)
(0.000790502 7.93267e-07 1.04595e-08)
(0.000788532 3.68038e-07 2.00172e-07)
(0.000787374 7.85538e-08 7.046e-08)
(0.000785955 -1.17734e-07 -2.58606e-07)
(0.000784468 -3.91279e-07 3.31177e-08)
(0.000783459 -4.45908e-07 8.17287e-08)
(0.000782265 -1.11644e-07 3.34807e-08)
(0.000780717 -3.27479e-08 5.76807e-08)
(0.000779091 1.31475e-07 1.02854e-07)
(0.000777413 -4.0949e-08 4.78279e-08)
(0.00077619 -2.37364e-07 6.57234e-08)
(0.000775297 -2.30586e-07 1.14949e-07)
(-0.00871944 -0.00127816 4.15376e-05)
(-0.00557826 0.0031747 0.000599922)
(-0.0414956 0.0374065 -0.0003622)
(0.0180069 0.00944023 -0.000112139)
(-0.00962559 -0.00304581 -0.000890806)
(0.00190311 -0.00361645 0.000446803)
(0.000965348 -0.000216015 9.72851e-06)
(0.000282035 5.68382e-06 1.99183e-06)
(0.00088099 -8.88994e-06 -2.39826e-06)
(0.000830177 2.49162e-05 -3.30769e-07)
(0.000830709 8.44701e-06 4.7172e-08)
(0.000828707 5.99124e-06 5.09948e-08)
(0.000827828 3.29482e-06 4.28756e-08)
(0.000826752 1.95712e-06 5.01212e-08)
(0.000825462 1.16824e-06 5.37711e-08)
(0.000824371 7.38795e-07 5.7076e-08)
(0.000823226 3.91546e-07 4.6824e-08)
(0.000821734 2.83386e-07 9.19097e-08)
(0.000819842 7.49982e-08 -1.17425e-08)
(0.000818293 1.38271e-07 4.53051e-08)
(0.000817064 2.52477e-07 3.22993e-08)
(0.000815728 1.43963e-07 4.80083e-08)
(0.00081424 3.59093e-07 3.85261e-09)
(0.000812315 2.11166e-07 -1.92912e-07)
(0.000810787 8.48352e-08 4.61988e-08)
(0.000809441 -4.2041e-08 3.05933e-08)
(0.000807972 -2.81095e-08 6.23057e-08)
(0.000806313 -9.58178e-09 5.61449e-08)
(0.000804971 -1.40627e-07 -1.41224e-07)
(0.000803916 4.39237e-07 2.13031e-08)
(0.000802387 5.12953e-07 1.98888e-07)
(0.000801266 5.59542e-07 5.15661e-08)
(0.000799698 4.78589e-07 -4.83176e-09)
(0.000797444 2.83022e-07 -2.67736e-08)
(0.000796126 -1.92152e-08 9.18843e-08)
(0.000795024 1.28806e-07 5.45656e-08)
(0.000793514 1.13489e-07 9.77696e-08)
(0.000792027 9.0055e-10 5.63356e-08)
(0.000790479 -2.39006e-07 2.28621e-08)
(0.00078874 -9.04561e-08 7.25784e-08)
(0.000787171 2.61619e-08 2.68266e-08)
(0.000785696 8.45596e-08 5.39171e-08)
(0.000784677 4.05109e-07 9.43006e-08)
(0.000783785 3.93748e-07 7.96905e-08)
(0.000782301 2.13789e-07 8.97229e-08)
(0.00078072 1.65827e-07 5.20117e-08)
(0.000779182 1.50219e-07 1.65365e-07)
(0.000777608 3.85263e-07 7.85044e-08)
(0.000776007 2.97598e-07 5.79036e-08)
(0.000775081 1.59496e-07 1.28109e-07)
(-0.00192329 -0.000389883 -0.000314347)
(-0.00071949 -0.0103603 2.17987e-05)
(0.0044186 0.0036209 -9.09517e-05)
(-0.00185495 0.00504914 -0.000365421)
(-0.00583673 0.00559981 -0.000497219)
(0.00683484 0.00470735 -6.59375e-05)
(0.00151846 0.000686013 -2.14442e-05)
(0.000482778 -0.000191032 4.51759e-05)
(0.000454398 -9.03005e-08 -6.14217e-07)
(0.000861085 2.17841e-05 -7.59802e-07)
(0.000813265 3.83926e-06 -3.20821e-07)
(0.000825138 3.37057e-06 1.10986e-07)
(0.000824819 1.30103e-06 4.82718e-08)
(0.000825333 7.97616e-07 5.70573e-08)
(0.000824786 5.80763e-07 4.80553e-08)
(0.000823746 4.20813e-07 4.94491e-08)
(0.000822547 4.81673e-08 4.32961e-08)
(0.000821227 -1.85304e-07 2.37107e-08)
(0.000820012 -3.08505e-07 5.42631e-08)
(0.000818797 -3.01449e-07 3.29947e-08)
(0.00081717 -1.54009e-07 7.59461e-08)
(0.000815679 -1.96717e-07 5.09744e-08)
(0.000814088 -2.55964e-07 4.92138e-08)
(0.000812552 -9.67414e-08 5.6908e-08)
(0.000811146 1.16643e-07 2.75401e-08)
(0.000809503 2.26627e-07 3.14523e-08)
(0.000807972 3.6032e-07 5.95973e-08)
(0.000806529 4.8941e-07 5.08315e-08)
(0.000805504 8.26216e-07 -1.69453e-08)
(0.00080396 5.53135e-07 4.35198e-08)
(0.00080211 3.9112e-07 8.10019e-08)
(0.000800571 5.28225e-07 4.07121e-08)
(0.000799065 -1.80107e-08 4.38564e-08)
(0.000797669 -4.95389e-08 3.68575e-08)
(0.000796302 2.21184e-07 8.08354e-08)
(0.000794964 6.16949e-08 4.2203e-08)
(0.000793463 -1.46336e-08 3.69683e-08)
(0.000792073 -7.43727e-08 4.17875e-08)
(0.000790389 -2.75856e-07 1.54391e-08)
(0.000788863 -2.66634e-07 2.85077e-09)
(0.000787593 -1.08714e-08 5.12888e-08)
(0.000786427 2.37468e-07 4.44334e-08)
(0.000784851 5.52271e-07 1.97717e-08)
(0.000783216 3.55972e-07 -5.73358e-08)
(0.000781977 6.99937e-08 -9.78684e-08)
(0.000780635 6.45108e-08 4.36873e-08)
(0.000779362 1.85707e-07 5.90413e-08)
(0.000777595 2.96257e-07 4.12679e-08)
(0.000775903 1.99803e-07 4.66234e-08)
(0.000774726 2.87264e-07 1.46624e-07)
(0.000629891 0.00410493 0.000192276)
(-0.00241995 -0.00499526 -0.000207211)
(0.0019784 0.000991608 0.000115739)
(-0.00703712 0.000103759 -0.000372263)
(0.00959238 -0.00045066 0.000310991)
(-0.00603769 0.00161856 2.06785e-05)
(0.000466561 0.000667009 -1.04716e-05)
(0.00153738 0.000501345 7.71234e-06)
(0.000460233 1.35554e-05 -1.28693e-06)
(0.000875436 -6.40174e-07 -1.39247e-06)
(0.000807685 -3.85699e-06 -5.73851e-07)
(0.000825511 -2.35121e-06 1.61969e-07)
(0.000824596 -1.43527e-06 2.36335e-07)
(0.000825844 -1.05965e-06 5.94301e-08)
(0.000824986 -8.88257e-07 -3.22038e-09)
(0.000823702 -6.43984e-07 -3.01095e-09)
(0.000822467 -2.88067e-07 4.82704e-08)
(0.000821288 -1.50445e-07 5.52517e-08)
(0.000819697 7.55323e-08 1.31615e-07)
(0.000818487 2.32719e-07 8.12121e-08)
(0.000817196 9.92295e-08 6.33302e-08)
(0.000815603 1.91409e-07 3.50948e-08)
(0.000814367 2.58857e-08 2.27126e-07)
(0.000812781 6.35742e-08 1.02094e-07)
(0.000811191 2.56287e-08 8.63856e-08)
(0.000809744 8.39233e-08 6.53782e-08)
(0.000808297 2.16693e-07 6.71438e-08)
(0.000806889 3.61248e-07 6.50474e-08)
(0.000805043 5.16716e-07 3.14769e-08)
(0.000803364 2.99686e-07 3.72151e-09)
(0.000802349 1.54874e-07 8.65555e-08)
(0.00080075 -1.92809e-07 5.17991e-08)
(0.000798973 7.37198e-08 3.40661e-08)
(0.000797742 4.15105e-08 5.11745e-08)
(0.000796265 4.56182e-08 4.18928e-08)
(0.000794729 -5.1579e-08 4.81837e-08)
(0.000793344 -1.08454e-07 -4.56689e-08)
(0.000791702 -1.7742e-07 5.72269e-08)
(0.000790241 -2.17746e-07 4.57131e-08)
(0.000789074 -1.77834e-07 -1.16939e-07)
(0.000787801 9.31544e-09 8.85815e-08)
(0.000786397 1.0921e-07 7.35541e-08)
(0.000784821 -6.27394e-08 2.67938e-08)
(0.000783179 7.7217e-08 -1.48087e-07)
(0.000781934 -3.75013e-09 6.14537e-08)
(0.000780864 -1.72673e-07 4.70831e-08)
(0.00077947 -4.38415e-07 -2.43726e-08)
(0.000777624 -7.85806e-07 1.6792e-08)
(0.000775989 -2.91051e-07 6.4878e-08)
(0.000774475 1.54384e-08 5.3164e-08)
(0.00454538 0.000243367 0.000181821)
(0.00315354 -0.00276492 6.64354e-05)
(0.000703774 0.00553677 1.44323e-05)
(0.000374261 0.00438617 4.13385e-05)
(-0.0128218 0.00367886 0.000194136)
(0.00632244 0.00612405 5.26722e-05)
(0.000770818 0.000131739 -1.8216e-06)
(0.00129242 -0.000235929 0.000177785)
(0.000450395 -1.53655e-05 4.37107e-07)
(0.000870897 -3.36279e-05 -1.06476e-06)
(0.000811329 -1.19419e-05 -4.33255e-07)
(0.000828184 -8.02678e-06 1.85476e-07)
(0.000826447 -4.22633e-06 3.69895e-08)
(0.000826026 -2.68665e-06 5.77973e-08)
(0.000825313 -1.84175e-06 8.31704e-08)
(0.000824501 -1.17894e-06 8.70169e-08)
(0.000823167 -6.5658e-07 5.23847e-08)
(0.000821683 -3.16272e-07 7.09626e-08)
(0.000820491 -1.73189e-07 6.30387e-08)
(0.000818826 2.03585e-07 4.39541e-08)
(0.000817118 2.68679e-08 7.20679e-08)
(0.000815587 1.76412e-07 2.17289e-08)
(0.000813928 9.86885e-08 1.60814e-07)
(0.000812551 1.16737e-08 6.60106e-08)
(0.000811171 3.24221e-08 6.32999e-08)
(0.000809741 -5.17838e-08 5.50354e-08)
(0.000808317 -9.61302e-08 3.97847e-08)
(0.000806901 -1.66497e-07 1.00819e-08)
(0.000805423 1.23845e-07 2.81375e-08)
(0.000803505 -1.38024e-07 -5.06022e-08)
(0.000801494 -2.863e-07 2.4946e-08)
(0.000800468 -3.8947e-07 -2.67018e-08)
(0.000799358 -2.94867e-07 1.51425e-08)
(0.000797632 -1.78805e-07 -3.69057e-07)
(0.000796186 -2.77241e-07 -2.85204e-08)
(0.000794771 -1.09845e-07 4.38189e-08)
(0.000793307 -1.12381e-07 -4.73857e-09)
(0.000791938 -8.38769e-08 6.72329e-08)
(0.00079039 1.08327e-07 7.25119e-08)
(0.000789149 1.52256e-07 4.56099e-08)
(0.000787952 1.58819e-07 1.60813e-08)
(0.000786337 9.79223e-08 5.55803e-09)
(0.000784812 2.03611e-08 3.19242e-08)
(0.000783291 2.6133e-08 5.2433e-08)
(0.000781665 3.45463e-08 6.8741e-08)
(0.000780095 -1.36463e-07 4.92127e-08)
(0.0007786 -5.0644e-07 -7.25675e-08)
(0.000777784 -6.35847e-07 6.97332e-08)
(0.000776906 -4.47715e-07 8.94217e-08)
(0.00077507 -3.20348e-07 1.24759e-07)
(-0.00168579 -0.00348306 4.74259e-05)
(0.008513 -0.00444382 -0.000850543)
(-0.00527064 -0.00210703 -0.000646066)
(-0.00600246 0.00477598 9.22839e-05)
(-0.00697278 -0.000947408 0.000155669)
(-0.0100049 0.00446054 -7.54787e-05)
(-0.00105612 -0.000770063 6.47967e-06)
(0.00129866 -0.000188499 6.39995e-06)
(0.00087997 -6.29099e-06 -2.88521e-06)
(0.000853645 -3.47976e-05 -8.73133e-08)
(0.000839848 -1.20464e-05 -2.74736e-08)
(0.000835235 -8.24434e-06 3.81874e-08)
(0.000831319 -4.80426e-06 3.56682e-08)
(0.000828852 -2.82244e-06 4.84791e-08)
(0.000826889 -1.54939e-06 5.34336e-08)
(0.000825195 -8.6862e-07 5.31152e-08)
(0.000823552 -5.2944e-07 5.12129e-08)
(0.000821897 -2.51884e-07 3.48382e-08)
(0.000820349 -1.00591e-07 4.9924e-08)
(0.000818738 -3.04955e-07 6.7465e-08)
(0.000817162 -1.71998e-07 5.44672e-08)
(0.000815692 -2.09542e-07 4.93158e-08)
(0.000814161 -4.90096e-08 -2.38105e-08)
(0.000812698 -3.52329e-08 4.76864e-08)
(0.000811111 6.84882e-09 4.49325e-09)
(0.000809584 -6.66784e-08 3.35051e-08)
(0.000808155 -2.0837e-07 5.65169e-08)
(0.000807166 -3.54282e-07 4.63958e-08)
(0.000805081 -1.15164e-06 -1.05964e-07)
(0.000802854 -1.06456e-06 1.08442e-07)
(0.000802038 -5.79793e-07 -4.12336e-08)
(0.000800743 -1.12585e-07 1.84121e-07)
(0.00079924 -1.27127e-07 3.02667e-08)
(0.000797767 -1.53953e-07 6.48143e-08)
(0.000796353 -5.43218e-08 1.52832e-07)
(0.000794936 1.77686e-08 5.78003e-08)
(0.000793377 3.94788e-08 5.08454e-08)
(0.000791978 7.57335e-08 5.34512e-08)
(0.000790536 8.62546e-08 3.78363e-08)
(0.000789136 3.64974e-07 1.73932e-08)
(0.000787732 1.07566e-07 4.6725e-08)
(0.000786224 5.00378e-08 -7.5211e-09)
(0.000784732 -5.59076e-08 4.36829e-08)
(0.000783197 -9.41315e-08 5.56686e-08)
(0.000781732 -7.00954e-08 3.33669e-08)
(0.00078019 2.61825e-08 4.96514e-08)
(0.00077885 1.42411e-08 -8.39407e-08)
(0.000777703 1.66693e-07 2.95182e-08)
(0.000776394 -1.70602e-07 1.72873e-08)
(0.000775433 -2.96057e-07 6.36336e-08)
(-0.00500379 0.00102957 8.18516e-05)
(0.0214114 0.0180316 -8.43978e-05)
(0.00840209 -0.0360303 0.00104657)
(0.00724255 0.00670753 -0.000649245)
(0.0055966 -0.0114967 -0.000152322)
(-0.00713459 -0.0295447 0.000382986)
(0.00358433 -0.000797878 0.000138646)
(0.000516917 0.000162057 4.62208e-05)
(0.00090776 8.53699e-06 -1.99935e-06)
(0.000846974 -7.18634e-06 -2.52603e-07)
(0.000844638 -3.6392e-06 1.10112e-07)
(0.00083732 -3.2917e-06 4.50056e-08)
(0.000833276 -2.20429e-06 5.38809e-08)
(0.000830125 -1.5177e-06 5.01822e-08)
(0.000827772 -9.25222e-07 4.82923e-08)
(0.000825786 -5.94619e-07 5.04615e-08)
(0.000823944 -4.39412e-07 -1.74593e-08)
(0.000822223 -3.66343e-07 6.1415e-08)
(0.000820427 -2.38171e-07 -1.51259e-07)
(0.000818739 -1.38434e-07 2.02518e-08)
(0.000817239 -1.09219e-07 4.96627e-08)
(0.000815741 -1.18078e-07 5.80019e-08)
(0.000814147 -2.05949e-07 3.85843e-08)
(0.000812621 -1.76871e-07 4.86707e-08)
(0.000811132 -3.54519e-07 5.84453e-08)
(0.000809473 -2.43176e-07 -1.28512e-07)
(0.000807959 -8.65651e-08 3.16229e-09)
(0.000805727 -3.204e-07 4.37066e-08)
(0.000804542 -6.54501e-07 1.75627e-07)
(0.000804228 -9.13458e-08 -1.15205e-08)
(0.000802689 1.85198e-07 1.22123e-07)
(0.000801037 6.36066e-08 5.02542e-08)
(0.000799308 1.9703e-07 5.14429e-08)
(0.000797724 9.13018e-08 6.00896e-08)
(0.000796401 5.01144e-08 4.62442e-08)
(0.000794889 -1.30552e-07 3.61622e-08)
(0.000793379 -1.29431e-07 5.64412e-08)
(0.000791996 -1.13325e-07 1.97587e-08)
(0.00079075 6.36907e-09 4.45462e-08)
(0.000789174 3.09651e-08 9.42504e-08)
(0.000787557 -2.34294e-08 4.56131e-08)
(0.000786132 6.19869e-08 5.12839e-08)
(0.000784631 3.68557e-08 5.8972e-08)
(0.000783274 6.45594e-08 4.02568e-08)
(0.000781817 4.8534e-08 4.81141e-08)
(0.000780201 1.11205e-07 4.82188e-08)
(0.000778777 4.62731e-07 4.2797e-08)
(0.000777553 3.11289e-07 5.26071e-08)
(0.000776336 1.88593e-07 6.39046e-08)
(0.000775654 -8.90555e-08 5.61426e-08)
(0.0116565 -0.00244563 -0.000289827)
(-0.00370141 -0.0253515 0.000644752)
(0.00288482 0.00464363 -0.000705516)
(-0.0421183 -0.0243008 0.00195356)
(0.00979497 -0.00629926 -0.000417793)
(-0.000594523 0.00462803 -0.00010217)
(0.000383384 -0.000921743 1.38642e-05)
(0.000520487 3.33796e-05 1.81837e-06)
(0.00091539 1.87083e-05 -1.61555e-06)
(0.00083838 5.14379e-06 -2.77243e-07)
(0.000844767 2.60338e-06 1.50441e-07)
(0.000837061 9.07133e-07 -6.46055e-08)
(0.000833561 3.0391e-07 5.11453e-08)
(0.000830467 -1.73929e-07 5.16797e-08)
(0.000828053 -1.10434e-07 5.4564e-08)
(0.000825809 -8.66768e-08 1.20478e-07)
(0.000823842 -9.94892e-08 9.68788e-08)
(0.000822151 -1.60432e-07 4.5834e-07)
(0.000820636 -2.17619e-07 5.75785e-08)
(0.000818901 -5.48175e-09 7.98927e-08)
(0.000817189 -1.44945e-07 5.08865e-08)
(0.000815573 -2.31917e-07 8.22928e-08)
(0.000814089 -2.42607e-07 3.99475e-08)
(0.000812516 -2.37264e-07 5.43305e-08)
(0.000811032 -2.39021e-07 2.23157e-08)
(0.000809921 -3.43779e-07 2.56852e-08)
(0.000808061 -3.26411e-07 6.79158e-08)
(0.000806459 -1.77916e-07 7.94159e-08)
(0.00080537 4.60831e-07 9.86712e-08)
(0.000803904 4.25491e-07 7.67668e-08)
(0.000802231 2.61015e-07 -2.49861e-08)
(0.000800756 1.56226e-07 1.21585e-07)
(0.000799274 -1.77628e-07 -2.72671e-07)
(0.000797582 -1.10301e-07 3.45901e-10)
(0.000796076 -1.54048e-07 2.48436e-08)
(0.000794712 -2.45593e-07 9.03834e-08)
(0.000793401 -2.41664e-07 2.75777e-08)
(0.000792149 -1.96184e-07 5.18475e-08)
(0.000790717 -3.12436e-07 1.00565e-07)
(0.000789098 -3.49912e-07 4.03302e-08)
(0.000787771 -2.0843e-07 5.57875e-08)
(0.000786299 -2.86512e-07 1.18542e-08)
(0.000784735 -9.5612e-08 7.44923e-08)
(0.000783211 -6.56694e-08 3.54569e-08)
(0.00078179 3.321e-08 4.81882e-08)
(0.000780706 4.84402e-08 5.07258e-08)
(0.000779097 2.51885e-07 5.89138e-08)
(0.000777357 4.02483e-07 4.6607e-08)
(0.000775893 6.44085e-07 -5.47141e-08)
(0.000775306 5.22708e-07 9.62477e-08)
(0.00426537 0.00590121 -0.000744381)
(-0.0134834 -0.00984158 -0.00242405)
(0.0216086 0.0100094 -0.000242001)
(0.0604206 -0.00773918 0.000248909)
(-0.00989762 0.00578536 0.000693373)
(0.00279139 -0.00065841 0.000228276)
(0.00111948 0.000387575 0.00011048)
(0.000468216 1.97054e-05 9.67861e-07)
(0.000888622 1.58621e-05 -1.44791e-06)
(0.000826789 9.33779e-06 -3.07173e-07)
(0.000839317 5.54609e-06 2.23427e-07)
(0.000834434 3.12244e-06 3.75953e-08)
(0.000831921 1.85136e-06 6.81566e-08)
(0.000829606 1.44127e-06 7.27742e-08)
(0.000827882 8.55686e-07 5.61984e-08)
(0.0008258 5.19006e-07 5.57355e-08)
(0.000823852 3.12383e-07 4.97351e-08)
(0.000822076 2.33188e-07 1.28615e-08)
(0.000820621 5.44694e-08 8.34015e-08)
(0.000818831 -2.26973e-07 3.03124e-08)
(0.000816957 -6.06902e-08 2.24201e-08)
(0.000815621 -5.99701e-08 1.81155e-07)
(0.000814143 1.61239e-09 5.77759e-08)
(0.000812629 -5.48508e-08 4.81731e-08)
(0.000811003 5.01006e-08 7.07796e-08)
(0.000809367 -5.90047e-08 6.13193e-08)
(0.00080817 -1.84461e-07 1.27487e-07)
(0.000806712 8.70595e-08 5.13408e-08)
(0.000805296 1.17809e-07 2.80602e-08)
(0.000803975 -8.94034e-08 5.09868e-08)
(0.00080235 -1.14399e-07 1.00755e-07)
(0.000800488 -2.14497e-07 8.86476e-08)
(0.000798975 -4.58834e-07 4.09516e-08)
(0.000797756 -4.00293e-07 1.3637e-08)
(0.000796234 -9.63427e-08 8.35936e-08)
(0.000794781 3.85017e-08 6.75172e-08)
(0.000793442 7.89158e-08 8.32938e-08)
(0.00079191 -1.37679e-07 5.21743e-08)
(0.000790561 -6.32107e-07 5.86617e-08)
(0.000789307 -2.84625e-07 6.07578e-08)
(0.000787639 -2.03072e-07 5.75703e-08)
(0.000786275 -2.79643e-07 8.6848e-08)
(0.000784909 -2.18209e-07 7.69322e-08)
(0.000783435 -7.56789e-10 3.4464e-08)
(0.000781959 -4.14304e-08 4.27528e-08)
(0.000780472 -6.50543e-09 4.75369e-08)
(0.000779215 -2.73472e-07 9.02058e-08)
(0.000778038 6.92498e-08 4.58798e-08)
(0.000776471 2.96684e-07 -4.9707e-08)
(0.000774198 3.52725e-07 6.06937e-08)
(-0.0888864 0.0103934 0.00591932)
(0.0520016 -0.00024011 0.0248091)
(-0.0157388 -0.033799 -0.00485756)
(0.0259039 -0.00941676 -0.00206156)
(-0.017249 0.00714549 -8.55447e-05)
(-0.00944076 -0.00501764 -0.00190608)
(0.000893032 0.000942997 -4.65411e-05)
(0.0014495 7.08371e-07 -8.06762e-07)
(0.0014773 5.27951e-06 3.48162e-07)
(0.00137463 1.08964e-05 3.53398e-07)
(0.00139407 9.01762e-06 3.92337e-07)
(0.00138678 6.65442e-06 3.14196e-07)
(0.00138532 4.66078e-06 7.48922e-07)
(0.00138173 3.61895e-06 3.64024e-07)
(0.00137797 2.37141e-06 3.4641e-07)
(0.001375 1.46533e-06 5.40024e-07)
(0.00137222 9.00287e-07 3.45602e-07)
(0.00136949 5.19726e-07 3.73219e-07)
(0.00136658 3.02301e-07 3.86827e-07)
(0.00136437 -4.79115e-08 3.58774e-07)
(0.00136206 1.48272e-08 4.71123e-07)
(0.00135913 2.68292e-07 3.50103e-07)
(0.00135653 -5.19668e-08 3.3002e-07)
(0.00135406 3.99961e-08 2.95171e-07)
(0.00135147 3.00894e-07 3.22286e-07)
(0.00134907 7.00852e-07 3.0471e-07)
(0.0013468 6.41659e-07 2.92709e-07)
(0.00134456 3.07283e-07 3.37215e-07)
(0.00134164 5.02806e-07 3.6644e-07)
(0.00133896 -2.4026e-07 6.11163e-07)
(0.00133645 -7.07458e-07 3.74895e-07)
(0.00133353 -7.32035e-07 2.39704e-07)
(0.00133136 -4.16453e-07 3.36491e-07)
(0.00132977 -2.60153e-08 3.90068e-07)
(0.00132746 3.30052e-07 3.2396e-07)
(0.00132462 2.80864e-07 3.31722e-07)
(0.00132165 3.32968e-07 3.34297e-07)
(0.00131847 4.99016e-07 2.00036e-07)
(0.00131715 1.12358e-06 3.02088e-07)
(0.00131562 5.09276e-07 4.07792e-07)
(0.00131263 1.38334e-07 2.92166e-07)
(0.00131012 4.81863e-08 3.36199e-07)
(0.00130815 -3.34464e-07 4.15839e-07)
(0.00130537 -4.60995e-07 2.63854e-07)
(0.00130265 -2.9824e-07 3.23713e-07)
(0.00130038 -1.74588e-07 1.77186e-07)
(0.00129824 -2.74419e-08 2.8467e-07)
(0.00129633 -3.46433e-07 3.36836e-07)
(0.0012933 -7.74004e-07 3.12313e-07)
(0.00129038 -6.40122e-07 2.02317e-07)
(0.0200896 -0.0221026 0.000383017)
(0.0250097 -0.0131849 7.08165e-05)
(0.0337312 -0.0024168 0.000545454)
(0.0234836 -0.0580609 -0.00132761)
(0.00565208 -0.0140974 0.000344353)
(0.0192045 -0.00781013 -0.00860695)
(0.000367853 -0.00199988 0.000312919)
(0.00139972 -6.72246e-05 1.59507e-07)
(0.00150021 4.81975e-06 4.44151e-07)
(0.0013829 1.66748e-05 3.4474e-07)
(0.00139347 1.0565e-05 3.47291e-07)
(0.00138515 8.16651e-06 3.45371e-07)
(0.00138258 5.52393e-06 3.46966e-07)
(0.00137962 3.30922e-06 3.43823e-07)
(0.0013769 2.21542e-06 3.43552e-07)
(0.00137431 1.35242e-06 2.81192e-07)
(0.0013717 1.18553e-06 3.4707e-07)
(0.00136919 9.82196e-07 4.04239e-07)
(0.00136675 1.05351e-06 3.53497e-07)
(0.00136408 7.40147e-07 3.0683e-07)
(0.00136172 5.08108e-07 3.47506e-07)
(0.001359 3.58646e-07 1.06127e-07)
(0.00135637 6.8401e-07 3.4362e-07)
(0.00135456 6.27948e-07 4.04767e-07)
(0.00135221 3.42068e-07 1.82842e-07)
(0.00134913 2.61656e-07 2.7922e-07)
(0.00134623 8.79308e-08 3.83082e-07)
(0.00134406 -1.56743e-07 3.35916e-07)
(0.00134121 -8.24827e-07 3.42348e-07)
(0.00133822 -4.58044e-07 4.54585e-08)
(0.00133632 -3.46951e-07 4.60778e-08)
(0.00133416 -3.91808e-08 2.90837e-07)
(0.00133213 9.72625e-07 4.95897e-07)
(0.00133016 9.70493e-07 6.52496e-07)
(0.00132716 2.35311e-07 3.48911e-07)
(0.00132435 2.42836e-07 3.14101e-07)
(0.00132233 2.93784e-07 3.16468e-07)
(0.00132044 6.72194e-07 1.02358e-07)
(0.00131719 1.28025e-06 3.71737e-07)
(0.00131392 6.71589e-07 5.20645e-07)
(0.00131183 1.49687e-07 3.27233e-07)
(0.00130948 -1.89531e-07 -3.21742e-08)
(0.00130712 -6.42388e-07 2.6331e-07)
(0.00130544 -7.6548e-07 6.23322e-07)
(0.00130336 -2.27385e-07 3.34398e-07)
(0.0013008 -1.28761e-07 2.66252e-07)
(0.00129816 2.07294e-07 3.70062e-07)
(0.00129541 -7.70046e-08 3.10346e-07)
(0.00129327 -4.00389e-07 3.26374e-07)
(0.0012917 -3.90598e-07 4.16353e-07)
(-0.00861695 -0.00572061 0.000356442)
(-0.0100591 0.00910746 9.95838e-05)
(-0.00202536 0.0028093 -0.000366109)
(0.010897 0.0136471 0.00251637)
(0.0850376 0.0434683 -0.0530174)
(0.0048943 0.00173875 0.0035538)
(0.00179486 0.00140675 -1.36744e-05)
(0.00142489 2.89299e-05 1.29684e-05)
(0.0014641 -1.66065e-05 -4.30051e-07)
(0.00138135 3.88006e-05 3.41891e-07)
(0.00138331 1.31499e-05 3.45463e-07)
(0.0013804 9.4069e-06 3.44307e-07)
(0.00137919 5.19418e-06 3.43841e-07)
(0.00137756 3.10488e-06 3.44346e-07)
(0.0013755 1.85969e-06 3.43774e-07)
(0.00137369 1.18011e-06 3.42587e-07)
(0.00137175 6.26633e-07 3.40511e-07)
(0.00136932 4.37215e-07 5.31248e-07)
(0.00136627 1.0406e-07 3.66617e-07)
(0.00136369 2.08268e-07 3.34784e-07)
(0.00136158 3.80645e-07 2.64254e-07)
(0.00135934 2.2785e-07 3.35676e-07)
(0.00135686 5.92018e-07 3.38942e-07)
(0.00135362 4.18273e-07 -2.37e-07)
(0.00135101 1.28019e-07 3.44165e-07)
(0.00134875 -4.32583e-08 3.10191e-07)
(0.00134627 -3.77431e-08 3.59064e-07)
(0.00134342 3.41968e-08 3.3001e-07)
(0.00134127 -1.43889e-07 7.574e-08)
(0.00133956 8.11264e-07 2.50796e-07)
(0.00133698 9.84418e-07 5.61483e-07)
(0.00133518 9.97762e-07 4.73756e-07)
(0.00133262 7.86176e-07 2.18436e-07)
(0.00132884 4.48823e-07 1.34423e-07)
(0.00132655 -1.66249e-08 3.47135e-07)
(0.00132469 1.86964e-07 3.42355e-07)
(0.00132218 1.92569e-07 3.40277e-07)
(0.0013197 2.69156e-08 3.61046e-07)
(0.00131714 -3.23027e-07 3.09725e-07)
(0.0013142 -1.57672e-07 3.74293e-07)
(0.00131155 3.74344e-08 1.20915e-07)
(0.00130914 1.8723e-07 3.30495e-07)
(0.00130743 7.24135e-07 3.12387e-07)
(0.00130589 6.99972e-07 3.28584e-07)
(0.00130345 4.59616e-07 3.30009e-07)
(0.00130092 3.69884e-07 3.1908e-07)
(0.00129831 3.35572e-07 4.65122e-07)
(0.00129557 6.31398e-07 3.54564e-07)
(0.00129292 4.52824e-07 3.37203e-07)
(0.00129136 2.49008e-07 5.33027e-07)
(-0.00603541 0.000472057 0.000444505)
(-0.00326645 -0.00295322 0.000217705)
(-0.000452639 0.00234434 0.000328159)
(-0.000680923 0.0103126 -0.00037592)
(0.00576959 0.0168097 -0.00358746)
(0.00760783 -0.00467926 0.000894382)
(0.00317628 0.00146625 -6.2377e-05)
(0.00129036 0.00041696 6.36744e-05)
(0.00134765 -7.03992e-06 4.96507e-07)
(0.00143262 3.42179e-05 7.8085e-07)
(0.00135663 5.36518e-06 4.00287e-07)
(0.00137513 4.97936e-06 3.44111e-07)
(0.00137465 1.8204e-06 3.43679e-07)
(0.00137542 1.12425e-06 3.43846e-07)
(0.00137447 8.37998e-07 3.43002e-07)
(0.00137275 6.2563e-07 3.4215e-07)
(0.00137077 7.56123e-08 3.17928e-07)
(0.00136853 -2.4251e-07 2.87274e-07)
(0.00136646 -4.53107e-07 3.46959e-07)
(0.00136442 -4.63434e-07 3.11489e-07)
(0.00136175 -2.531e-07 3.75584e-07)
(0.00135926 -3.18932e-07 3.41462e-07)
(0.0013566 -4.32343e-07 3.57442e-07)
(0.00135398 -2.07153e-07 3.89075e-07)
(0.00135163 1.42763e-07 2.78956e-07)
(0.00134892 3.49747e-07 2.76721e-07)
(0.00134633 5.87651e-07 3.94526e-07)
(0.00134392 8.5536e-07 3.68192e-07)
(0.00134218 1.51037e-06 3.0946e-07)
(0.00133962 1.0337e-06 3.09247e-07)
(0.00133654 8.14153e-07 3.89855e-07)
(0.0013339 1.0211e-06 2.80535e-07)
(0.00133144 7.7112e-08 3.25692e-07)
(0.00132915 -6.00712e-08 3.16923e-07)
(0.00132683 3.43969e-07 3.63691e-07)
(0.00132462 9.62712e-08 3.15208e-07)
(0.00132213 -4.24054e-08 3.10184e-07)
(0.00131979 -1.44495e-07 2.94617e-07)
(0.00131696 -5.19724e-07 2.01463e-07)
(0.00131438 -4.99849e-07 2.27874e-07)
(0.00131226 -1.07951e-08 2.81745e-07)
(0.00131034 4.47193e-07 3.56105e-07)
(0.00130776 9.51605e-07 3.69674e-07)
(0.0013051 6.31419e-07 1.5281e-07)
(0.00130294 1.55241e-07 1.64071e-07)
(0.00130064 1.22014e-07 3.23216e-07)
(0.00129848 2.25336e-07 3.59572e-07)
(0.00129555 4.25184e-07 3.22993e-07)
(0.00129278 3.24291e-07 3.70218e-07)
(0.00129082 4.66705e-07 5.2166e-07)
(0.00134026 -0.00712303 -5.05692e-05)
(0.00416096 -0.000961871 -0.000194681)
(0.0101169 0.00347763 0.000661679)
(-0.00196078 0.00346808 -0.00238928)
(-0.00816679 -0.000531238 -0.000699192)
(-0.0124431 0.000467418 0.00153163)
(-0.000271922 0.000710384 1.81049e-05)
(0.000738566 -9.79649e-05 -0.000107151)
(0.00138937 3.64346e-05 2.49239e-07)
(0.00146005 -1.12058e-06 4.68445e-09)
(0.0013468 -6.98419e-06 3.53488e-07)
(0.00137593 -4.24996e-06 3.35249e-07)
(0.00137435 -2.61763e-06 5.14967e-07)
(0.00137632 -1.91543e-06 3.44497e-07)
(0.00137486 -1.55786e-06 2.96349e-07)
(0.00137273 -1.11186e-06 3.15014e-07)
(0.00137066 -5.26103e-07 3.42361e-07)
(0.00136866 -2.99441e-07 3.53221e-07)
(0.00136599 7.22415e-08 4.11549e-07)
(0.00136394 3.34491e-07 3.39024e-07)
(0.00136176 1.44646e-07 3.73075e-07)
(0.00135912 2.59659e-07 3.0464e-07)
(0.00135701 1.61509e-08 5.31965e-07)
(0.00135434 6.06012e-08 3.89938e-07)
(0.00135171 4.01714e-08 2.73614e-07)
(0.0013493 8.3971e-08 3.73156e-07)
(0.0013469 3.24365e-07 3.89588e-07)
(0.00134456 5.72819e-07 3.33081e-07)
(0.00134148 8.26751e-07 2.96428e-07)
(0.00133868 5.13139e-07 3.26708e-07)
(0.00133695 2.68597e-07 2.78045e-07)
(0.00133425 -2.96326e-07 3.01934e-07)
(0.00133126 1.936e-07 3.05119e-07)
(0.00132917 6.99182e-08 3.31649e-07)
(0.00132674 1.00701e-07 2.76352e-07)
(0.0013242 -8.51941e-08 3.28416e-07)
(0.00132188 -2.26847e-07 7.62216e-08)
(0.00131911 -3.33196e-07 2.98283e-07)
(0.0013167 -4.08387e-07 3.22897e-07)
(0.00131484 -3.17305e-07 -5.51599e-08)
(0.00131273 1.07838e-08 4.73911e-07)
(0.00131033 1.68982e-07 3.94801e-07)
(0.00130766 -9.8352e-08 1.93302e-07)
(0.00130489 8.11883e-08 -8.30201e-08)
(0.00130281 -1.24646e-07 3.85396e-07)
(0.00130101 -3.50027e-07 3.20378e-07)
(0.00129869 -7.95456e-07 6.99052e-08)
(0.00129569 -1.28584e-06 2.71525e-07)
(0.00129296 -4.78214e-07 3.60631e-07)
(0.00129038 4.47503e-08 3.3197e-07)
(-0.00244691 -0.00131091 0.000107616)
(-0.00749552 -0.00749505 0.000267537)
(-0.00531322 0.00336628 0.000375273)
(0.00365317 0.00766263 -5.4324e-05)
(0.0364708 -0.00088157 -0.000687891)
(0.00846614 0.00635247 -0.000177479)
(0.00240804 0.000547375 1.21603e-05)
(0.000414238 0.00073552 -7.59999e-05)
(0.0013559 -4.43712e-05 1.70028e-06)
(0.00145314 -5.6161e-05 2.96095e-07)
(0.00135311 -2.0251e-05 3.18364e-07)
(0.00138062 -1.35917e-05 3.25983e-07)
(0.00137759 -7.19791e-06 1.60052e-07)
(0.00137676 -4.5657e-06 3.42296e-07)
(0.00137549 -3.1051e-06 3.74027e-07)
(0.00137405 -1.99042e-06 3.6492e-07)
(0.00137179 -1.13295e-06 3.42848e-07)
(0.00136928 -5.8825e-07 3.90625e-07)
(0.00136725 -3.24515e-07 3.66768e-07)
(0.00136451 2.84756e-07 3.66498e-07)
(0.00136165 1.18555e-08 3.73883e-07)
(0.0013591 2.57141e-07 3.59966e-07)