/*--------------------------------*- C++ -*----------------------------------*\
| =========                 |                                                 |
| \\      /  F ield         | OpenFOAM: The Open Source CFD Toolbox           |
|  \\    /   O peration     | Version:  5.0                                   |
|   \\  /    A nd           | Web:      www.OpenFOAM.org                      |
|    \\/     M anipulation  |                                                 |
\*---------------------------------------------------------------------------*/
FoamFile
{
    version     2.0;
    format      ascii;
    class       volVectorField;
    location    "4.8";
    object      U_0;
}
// * * * * * * * * * * * * * * * * * * * * * * * * * * * * * * * * * * * * * //

dimensions      [0 1 -1 0 0 0 0];

internalField   nonuniform List<vector> 
9207
(
(-0.0255833 -0.00377051 0.00058696)
(0.00177249 -0.00629573 -0.00162495)
(0.0202022 -0.0210869 -0.00163715)
(-0.0227502 -0.00375889 -9.37698e-05)
(0.00119937 0.00303101 -0.000256839)
(0.000217466 0.00201629 -0.000172185)
(0.00152438 0.000238664 -1.80447e-05)
(0.000475667 1.13187e-05 7.48957e-08)
(0.000873581 1.09638e-05 -1.37405e-06)
(0.000817102 1.01281e-05 -4.63775e-07)
(0.000831878 7.26545e-06 2.15529e-07)
(0.000829546 4.97936e-06 5.14453e-08)
(0.000829933 3.32052e-06 -7.1421e-09)
(0.000828755 2.34839e-06 6.41234e-08)
(0.00082717 1.53582e-06 4.90627e-08)
(0.000825554 8.3633e-07 2.36788e-08)
(0.000824031 5.67804e-07 5.24843e-08)
(0.000822464 4.36622e-07 5.23395e-08)
(0.000820911 2.55143e-07 6.77528e-08)
(0.000819522 2.10237e-07 1.18612e-07)
(0.00081789 1.74582e-07 8.02491e-08)
(0.000816189 2.31398e-07 7.28221e-08)
(0.000814751 7.13725e-09 6.98782e-08)
(0.000813397 -8.38456e-08 4.96783e-08)
(0.000811853 2.07571e-07 4.86003e-08)
(0.000810157 3.47152e-07 7.28443e-08)
(0.000808849 4.12467e-07 6.56625e-08)
(0.000807793 1.88897e-07 5.3881e-08)
(0.000805747 2.95574e-07 1.6765e-07)
(0.000803842 -1.49535e-07 3.38076e-08)
(0.000802547 -5.52068e-07 -5.12526e-08)
(0.000800934 -4.58261e-07 -3.60399e-08)
(0.00079928 -2.6756e-07 5.08128e-08)
(0.000798333 1.19309e-07 1.40851e-08)
(0.000797204 8.36123e-08 4.87359e-08)
(0.000795558 4.31578e-08 6.20821e-08)
(0.000793842 1.22804e-07 4.48649e-08)
(0.000792123 1.58411e-07 3.50345e-08)
(0.000790678 3.78832e-07 -6.43286e-09)
(0.00078956 4.85224e-07 7.31612e-08)
(0.000788367 1.08212e-07 3.20724e-08)
(0.000786869 1.12642e-08 5.41855e-08)
(0.000785475 -3.03582e-07 3.03305e-08)
(0.000783805 -1.50847e-07 2.29846e-07)
(0.000782306 -1.01384e-07 8.3385e-08)
(0.000780938 -1.44726e-07 7.90099e-09)
(0.000779523 -2.59381e-07 6.30802e-08)
(0.000778144 -5.27964e-07 2.00242e-07)
(0.000776594 -4.31656e-07 3.51408e-08)
(0.000774899 -2.49498e-07 7.76283e-08)
(-0.00858757 -0.0135799 0.000887255)
(-0.00880523 -0.0172799 0.00118405)
(0.0103516 -0.00299455 0.000822946)
(-0.00213997 -0.00438071 -0.000243949)
(-0.00630376 -0.00517104 -0.000488431)
(0.00345207 -0.0100587 -0.000228216)
(0.00166585 -0.000339773 0.000114704)
(0.000444719 -1.55607e-05 -1.23688e-06)
(0.00087885 -6.27902e-07 -1.49205e-06)
(0.000818572 6.7756e-06 -4.59359e-07)
(0.00083056 4.18131e-06 1.33246e-07)
(0.000828281 3.47102e-06 3.0338e-08)
(0.0008283 2.35008e-06 5.40342e-08)
(0.000827445 1.39619e-06 4.78486e-08)
(0.000826349 8.66159e-07 5.09214e-08)
(0.000825194 4.67689e-07 6.45481e-08)
(0.000823944 4.41521e-07 4.93471e-08)
(0.000822375 3.03745e-07 8.93943e-08)
(0.000820894 4.86591e-07 4.87744e-08)
(0.000819458 2.8629e-07 2.72266e-08)
(0.000817899 2.15315e-07 2.24475e-08)
(0.000816167 2.64629e-07 5.06292e-08)
(0.000814461 5.39851e-07 2.41486e-07)
(0.000813489 6.16439e-07 7.10585e-08)
(0.000812225 2.50322e-07 6.04831e-08)
(0.000810487 9.12092e-08 1.64976e-07)
(0.000808666 1.50458e-07 1.78407e-08)
(0.000806958 -1.16917e-07 4.52147e-08)
(0.000805389 -7.36597e-07 3.21858e-08)
(0.000803633 -4.21267e-07 8.03948e-08)
(0.000802452 -4.05805e-07 1.35731e-07)
(0.000801365 -1.85038e-07 1.5099e-08)
(0.000800179 3.42423e-07 1.95412e-07)
(0.000798577 7.35244e-07 9.93872e-08)
(0.000796757 3.16113e-07 4.67837e-08)
(0.000795345 2.19226e-07 4.11746e-08)
(0.000793991 8.76953e-08 4.31424e-08)
(0.00079256 2.05402e-07 5.68011e-08)
(0.000791073 3.42644e-07 3.27633e-08)
(0.000789328 4.79416e-07 4.98992e-09)
(0.000787691 1.85445e-07 4.48096e-08)
(0.000786212 -3.07445e-08 6.10174e-08)
(0.000785042 -3.62016e-07 6.74563e-08)
(0.000784079 -3.8572e-07 -2.34721e-08)
(0.000782501 -1.81659e-07 6.60868e-08)
(0.000780819 -9.68293e-08 5.95318e-08)
(0.000779512 1.10233e-07 5.91696e-08)
(0.000778233 -5.35236e-08 5.27481e-08)
(0.00077656 -1.82933e-07 -8.64137e-08)
(0.00077551 -2.22217e-07 2.46302e-08)
(-0.00838887 -0.0008026 2.96727e-05)
(-0.0064679 0.0024764 -5.24496e-05)
(-0.0469587 0.0385974 0.000511009)
(0.0182839 0.00840937 -0.000228265)
(0.0039886 -0.00195534 -0.00444563)
(0.00336168 -0.00388732 0.000444038)
(0.000834429 -0.000253976 1.11555e-05)
(0.000265409 -3.07786e-06 2.05613e-06)
(0.00086583 -2.76905e-05 -2.27207e-06)
(0.000822864 1.0222e-05 -2.56094e-07)
(0.000827677 1.27046e-06 7.53946e-08)
(0.000827211 1.50443e-06 4.43859e-08)
(0.000827307 6.7446e-07 5.01901e-08)
(0.00082688 4.22906e-07 5.40102e-08)
(0.000825998 2.41805e-07 5.4819e-08)
(0.000825015 1.97189e-07 5.66497e-08)
(0.000823821 8.25942e-08 -3.83255e-08)
(0.000822517 6.24226e-08 2.89869e-08)
(0.000820886 5.58813e-08 1.52355e-07)
(0.000819179 9.10793e-08 4.40255e-08)
(0.00081786 1.16324e-07 3.34948e-08)
(0.00081659 1.22323e-07 4.85776e-08)
(0.000815186 3.15054e-07 4.40069e-08)
(0.00081303 4.06213e-07 2.85975e-08)
(0.000811193 1.32749e-07 4.58555e-08)
(0.00081003 3.6215e-08 3.42676e-08)
(0.000808588 -1.43817e-07 5.63789e-08)
(0.000806686 1.30066e-08 6.6851e-08)
(0.00080537 1.85641e-07 1.11107e-07)
(0.00080426 5.43064e-07 2.15736e-08)
(0.000802845 7.86939e-07 9.27946e-08)
(0.000801869 7.00618e-07 6.13309e-08)
(0.000800428 3.97033e-07 3.15812e-07)
(0.000798295 1.66842e-07 1.14528e-07)
(0.000796555 1.09431e-07 7.81236e-08)
(0.00079527 1.66885e-07 5.29436e-08)
(0.000793823 1.49652e-07 5.65658e-08)
(0.000792439 1.01239e-07 5.85655e-08)
(0.000791016 1.73808e-07 4.55758e-08)
(0.00078936 -3.11235e-08 9.74206e-08)
(0.000787727 3.63396e-08 6.08117e-08)
(0.000786185 6.1644e-08 5.04916e-08)
(0.000785034 3.98892e-07 1.3552e-07)
(0.000784034 2.95138e-07 9.32927e-08)
(0.000782671 2.1033e-07 5.31896e-08)
(0.000781304 2.41737e-07 9.97649e-08)
(0.000779579 4.92281e-07 1.4913e-08)
(0.000777779 2.20181e-07 7.3594e-08)
(0.000776389 1.24622e-07 6.21607e-08)
(0.000775403 9.08551e-08 7.00172e-08)
(-0.00205233 -0.000411752 -0.000302255)
(-0.000554901 -0.0112162 0.000315785)
(0.00454422 0.00386178 -8.31712e-05)
(-0.00214346 0.00518288 -0.000390239)
(-0.00594518 0.00452652 -0.000277781)
(0.00820026 0.00433403 -2.48732e-05)
(0.0015519 0.000501444 -2.1048e-05)
(0.000492209 -0.000221656 4.56622e-05)
(0.000494973 -1.95338e-05 -1.18825e-06)
(0.000862132 8.54033e-06 -6.81383e-07)
(0.000819607 -3.89406e-06 -2.35737e-07)
(0.000827501 -1.36599e-06 9.33181e-08)
(0.000826924 -1.47484e-06 4.9765e-08)
(0.000826889 -8.58122e-07 5.65314e-08)
(0.000826057 -4.73804e-07 5.11378e-08)
(0.000824989 -2.30787e-07 5.19816e-08)
(0.000823772 -2.06442e-07 5.52255e-08)
(0.000822339 -1.56315e-07 3.38126e-08)
(0.000820928 -2.0183e-07 -3.57566e-09)
(0.000819532 -1.31541e-07 2.70758e-08)
(0.000817937 -5.3027e-08 7.66771e-08)
(0.000816414 -8.62169e-08 5.0623e-08)
(0.000814813 -2.34279e-07 -1.73147e-08)
(0.000813258 -3.29308e-07 5.9689e-08)
(0.00081176 2.84812e-08 2.83837e-08)
(0.000810141 1.84874e-07 3.14279e-08)
(0.000808636 2.71333e-07 6.64616e-08)
(0.00080737 3.39813e-07 8.31493e-08)
(0.000806048 9.0959e-07 6.43958e-08)
(0.00080438 6.85198e-07 2.15404e-08)
(0.000802643 7.92217e-07 4.70616e-09)
(0.000800872 7.01511e-07 -5.87903e-08)
(0.000799508 1.9823e-07 4.74766e-08)
(0.000798216 -8.62516e-08 5.67716e-08)
(0.000796756 5.95525e-08 5.02917e-08)
(0.000795395 4.37911e-08 4.25331e-08)
(0.000793908 2.54089e-08 4.59036e-08)
(0.00079259 -6.20264e-08 4.42851e-08)
(0.000790907 -3.91333e-07 -1.31346e-08)
(0.000789156 -2.44739e-07 -3.45472e-08)
(0.000787807 -1.48664e-08 5.73386e-08)
(0.000786664 2.66942e-07 4.3106e-08)
(0.00078533 4.90423e-07 6.54433e-08)
(0.000783839 4.08132e-07 -2.30958e-08)
(0.000782431 1.27757e-07 3.35458e-08)
(0.000781168 2.05348e-08 4.12132e-08)
(0.000779482 -1.56618e-07 3.16458e-08)
(0.000777771 2.58733e-08 4.61474e-08)
(0.000776394 1.95118e-07 4.27691e-08)
(0.00077524 2.10619e-07 5.4358e-08)
(0.000545647 0.00450731 0.000189338)
(-0.00218877 -0.004592 -0.000200499)
(0.00290624 0.00122038 0.000158758)
(-0.0110035 0.000918944 -2.82098e-05)
(0.0131735 -0.000536743 0.000323729)
(-0.00764036 0.00030466 -4.92874e-05)
(0.000641634 0.000612123 -9.91209e-06)
(0.00164699 0.000474524 9.4423e-06)
(0.000481277 1.48023e-06 -9.10576e-07)
(0.000887541 -5.08214e-06 -1.42421e-06)
(0.000815318 -8.12039e-06 -5.19208e-07)
(0.000830219 -4.82271e-06 1.66456e-07)
(0.00082793 -3.03411e-06 8.96691e-08)
(0.000828126 -2.0267e-06 6.08406e-08)
(0.000826778 -1.36898e-06 5.04254e-08)
(0.000825347 -8.84955e-07 5.57498e-08)
(0.000823912 -5.25137e-07 4.74404e-08)
(0.000822522 -3.27191e-07 4.95086e-08)
(0.000820916 -1.99785e-07 7.55506e-08)
(0.000819366 -1.37174e-07 -2.54202e-08)
(0.000817917 -9.23161e-08 6.1436e-08)
(0.000816365 -8.06144e-08 1.96124e-08)
(0.000814884 -1.35436e-07 7.72708e-08)
(0.000813361 -2.91528e-08 9.95173e-08)
(0.000811836 -4.52171e-08 1.88524e-07)
(0.000810332 1.23905e-08 6.54256e-08)
(0.000808779 1.04154e-07 6.81455e-08)
(0.000807478 1.51229e-07 3.1075e-08)
(0.000805795 7.74647e-09 1.14212e-08)
(0.000804105 7.84583e-08 4.50895e-08)
(0.000802857 4.89842e-09 -6.24957e-08)
(0.000801121 -1.64847e-07 3.4901e-08)
(0.00079944 1.35461e-07 6.27217e-08)
(0.000798121 4.25943e-08 4.8316e-08)
(0.000796718 9.94098e-08 5.83717e-08)
(0.000795227 -7.24507e-08 4.86532e-08)
(0.000793691 -2.13746e-07 3.21321e-08)
(0.00079192 -2.24628e-07 7.09735e-08)
(0.00079079 -3.0955e-07 1.24142e-07)
(0.000789832 -1.49746e-07 4.51067e-08)
(0.000788367 4.70956e-09 3.52402e-08)
(0.000786814 1.18371e-07 1.69233e-07)
(0.000785207 4.34898e-08 2.33911e-08)
(0.000783577 1.73744e-08 8.17421e-08)
(0.000782184 -1.36655e-07 2.23683e-07)
(0.000780948 -2.59981e-07 5.00581e-08)
(0.000779585 -5.72613e-07 9.92375e-10)
(0.000778218 -4.25782e-07 -1.51939e-07)
(0.000776614 -2.53544e-07 8.73801e-09)
(0.000774898 8.34313e-08 8.88093e-08)
(0.00440129 0.000754334 0.000210676)
(0.00301043 -0.0021082 4.98989e-05)
(0.000998013 0.0051619 -1.07318e-05)
(0.000610825 0.00403484 4.35994e-06)
(-0.0233477 0.00487649 0.00125167)
(0.00568188 0.00560784 4.67616e-06)
(0.000887615 0.000227433 -2.26753e-06)
(0.00147463 -0.000265338 0.000205527)
(0.000473054 -1.34381e-05 6.71614e-07)
(0.000884632 -3.27175e-05 -1.13544e-06)
(0.000820119 -1.20019e-05 -4.18571e-07)
(0.000833877 -8.14709e-06 1.78119e-07)
(0.000830431 -4.38834e-06 7.1061e-08)
(0.00082898 -2.77829e-06 5.8503e-08)
(0.000827491 -1.80363e-06 1.55632e-07)
(0.000826049 -1.17636e-06 9.87605e-08)
(0.000824473 -7.69975e-07 5.18615e-08)
(0.000822748 -5.45547e-07 4.35864e-08)
(0.000821166 -3.30961e-07 3.56622e-08)
(0.000819667 -1.29912e-07 6.52769e-08)
(0.000818007 -1.47083e-07 7.45745e-08)
(0.00081636 -7.1004e-08 9.63301e-08)
(0.000814878 -8.72528e-08 5.80141e-08)
(0.000813371 -1.54333e-08 6.49033e-08)
(0.000811813 3.26594e-08 6.22877e-08)
(0.000810327 -1.72737e-08 5.61346e-08)
(0.000808809 -1.10321e-07 3.85789e-08)
(0.000807247 -1.86744e-07 2.06277e-08)
(0.000805955 -1.94549e-07 9.32872e-08)
(0.000804375 -3.53883e-07 3.0608e-09)
(0.000802338 -5.02498e-07 -2.28661e-08)
(0.000801034 -3.81552e-07 1.49901e-07)
(0.000799767 -2.72399e-07 1.84292e-08)
(0.000798169 -1.64971e-07 5.34117e-08)
(0.000796612 -1.89788e-07 1.5697e-08)
(0.000795003 -8.37196e-08 4.32198e-08)
(0.000793719 -4.81912e-08 6.53598e-08)
(0.000792472 3.95796e-08 1.00307e-07)
(0.000791003 3.40846e-07 1.08977e-07)
(0.000789551 1.28942e-07 6.8718e-08)
(0.000788143 1.00956e-07 6.33635e-08)
(0.000786712 -3.3604e-08 9.33046e-09)
(0.000785204 1.35568e-08 3.46193e-08)
(0.000783615 -1.04911e-07 4.99463e-08)
(0.000782086 -4.72862e-08 2.27584e-07)
(0.000780627 -1.98504e-07 4.78419e-08)
(0.000779279 -4.762e-07 -3.7185e-07)
(0.000778173 -5.88704e-07 6.25753e-08)
(0.000777032 -5.10609e-07 9.63147e-08)
(0.000775453 -2.18918e-07 1.77859e-07)
(-0.00150994 -0.00269809 8.00439e-05)
(0.0128879 -0.00887164 -0.00166511)
(-0.00789917 -0.00318589 -0.000647616)
(-0.00682488 0.00234435 0.000128512)
(-0.00807827 -0.00129288 0.000133394)
(-0.0100752 0.00461803 -8.83053e-05)
(-0.00103538 -0.00059998 6.97877e-06)
(0.00131987 -0.000148751 7.07336e-06)
(0.000892451 6.71246e-06 -2.84986e-06)
(0.000862604 -2.80686e-05 -1.00157e-07)
(0.0008462 -8.29531e-06 1.23195e-08)
(0.000839813 -6.03255e-06 4.0091e-08)
(0.000834689 -3.50718e-06 3.70709e-08)
(0.000831384 -2.08363e-06 4.79482e-08)
(0.000828798 -1.19544e-06 5.19735e-08)
(0.00082665 -7.35803e-07 5.23426e-08)
(0.000824708 -5.44444e-07 5.40516e-08)
(0.000823075 -4.01926e-07 5.46353e-08)
(0.000821438 -2.53944e-07 7.19922e-08)
(0.000819597 -1.129e-07 3.37685e-08)
(0.000817991 -8.93703e-08 5.74497e-08)
(0.00081644 1.28512e-09 5.14115e-08)
(0.000814954 2.14342e-07 4.24135e-08)
(0.00081351 2.93745e-08 4.92648e-08)
(0.000811833 6.99447e-08 3.75677e-09)
(0.000810153 3.26292e-08 6.96395e-08)
(0.000808568 -1.44898e-07 6.6059e-08)
(0.000807374 -1.71249e-07 6.94761e-08)
(0.000805588 -4.78232e-07 2.88252e-08)
(0.000803723 -6.51644e-07 -2.96738e-08)
(0.000802827 -4.02646e-07 1.55627e-07)
(0.000801413 -1.50819e-07 8.73142e-08)
(0.000799714 -1.05635e-07 5.14232e-08)
(0.000798227 -1.31965e-07 4.5029e-08)
(0.000796821 -1.21464e-07 7.56773e-08)
(0.000795406 2.02953e-08 6.73323e-08)
(0.000793846 1.70515e-07 4.91509e-08)
(0.000792406 2.01542e-07 5.61542e-08)
(0.000790901 1.88215e-07 7.02823e-08)
(0.000789531 3.10521e-07 2.72689e-08)
(0.000788163 1.70026e-07 4.64815e-08)
(0.000786705 1.33652e-07 1.75742e-09)
(0.000785118 -2.61458e-08 6.76245e-08)
(0.000783501 -6.05626e-08 5.40624e-08)
(0.000782068 -4.06496e-08 2.47562e-08)
(0.000780414 3.11738e-08 4.96878e-08)
(0.000779101 2.82807e-08 -5.70081e-08)
(0.00077818 -2.2406e-07 6.69001e-08)
(0.000777085 -1.93785e-07 1.97328e-08)
(0.000775808 -2.55013e-07 7.2462e-08)
(-0.0054278 0.0019813 0.000185906)
(0.0164589 0.0207985 -3.23028e-05)
(0.0137501 -0.0379563 0.00106536)
(0.00249601 0.0069821 -0.000841896)
(0.00381369 -0.0115745 -9.91788e-05)
(-0.00880111 -0.03194 0.000290942)
(0.00348513 -0.000710856 0.000141728)
(0.000506839 0.000168955 4.53059e-05)
(0.000910412 2.09811e-05 -2.03632e-06)
(0.000850328 9.15797e-07 -2.38445e-07)
(0.000847771 1.55839e-06 1.11987e-07)
(0.000839942 1.89058e-08 4.39601e-08)
(0.000835417 -1.24792e-07 5.30213e-08)
(0.000831899 -2.23772e-07 4.99079e-08)
(0.000829193 -1.83491e-07 4.99073e-08)
(0.000826873 -1.35006e-07 5.21363e-08)
(0.000824896 -3.71234e-08 1.54687e-07)
(0.000823115 7.03377e-09 7.75371e-08)
(0.000821531 -6.78131e-08 1.23707e-07)
(0.000819874 -1.3634e-07 4.77517e-08)
(0.000818152 -7.9573e-08 5.07269e-08)
(0.00081674 -4.34106e-08 5.40199e-08)
(0.000814913 -1.31144e-07 3.2803e-08)
(0.000813191 -1.59871e-07 4.80293e-08)
(0.000811816 -3.71804e-07 6.56173e-08)
(0.000810059 -2.88753e-07 1.42581e-08)
(0.000808555 -1.07121e-07 -1.78449e-07)
(0.000806835 -7.86877e-08 6.75614e-08)
(0.00080536 -2.88679e-07 3.53894e-08)
(0.000804476 1.74054e-07 -7.93337e-08)
(0.000802969 2.99448e-07 1.01019e-07)
(0.000801408 4.25078e-08 9.72544e-08)
(0.000799792 -3.9025e-09 3.37445e-08)
(0.000798151 1.25889e-08 4.98493e-08)
(0.000796804 2.67337e-08 4.82189e-08)
(0.000795369 -9.72229e-08 6.03657e-08)
(0.000793945 -1.12624e-07 5.47768e-08)
(0.000792493 -9.02479e-08 3.21208e-08)
(0.000791138 9.34839e-08 4.1639e-08)
(0.000789526 1.6777e-07 1.36718e-08)
(0.00078792 -1.46123e-08 7.25111e-09)
(0.000786466 3.97808e-08 3.69294e-08)
(0.000784961 5.64725e-09 4.47073e-08)
(0.000783598 3.92777e-08 5.10461e-08)
(0.000782201 4.13335e-08 9.02309e-08)
(0.000780713 1.53242e-07 4.72997e-08)
(0.000778961 5.20997e-07 5.65374e-08)
(0.000777897 6.30047e-07 6.85865e-08)
(0.000777002 1.54837e-07 4.40186e-08)
(0.000776015 -1.17779e-08 -8.70156e-08)
(0.010306 -0.00291758 -0.000236717)
(-0.00312083 -0.0279144 0.000526073)
(0.0065727 0.00214374 -0.000606182)
(-0.0408256 -0.0168143 0.00319362)
(0.0109927 -0.00538994 -0.000785848)
(-0.000649477 0.00384554 -9.29037e-05)
(0.000339179 -0.000903546 1.21219e-05)
(0.000509956 3.92203e-05 1.43051e-06)
(0.000913306 2.93937e-05 -1.60166e-06)
(0.000838258 1.29122e-05 -4.09264e-07)
(0.000845128 7.88005e-06 1.45387e-07)
(0.00083774 4.37155e-06 1.83385e-08)
(0.000834408 2.54633e-06 4.95071e-08)
(0.000831325 1.33904e-06 4.95254e-08)
(0.000828918 7.86803e-07 5.35819e-08)
(0.000826839 5.8724e-07 1.15514e-07)
(0.000824889 4.19183e-07 4.16302e-08)
(0.000823039 2.30073e-07 8.90114e-09)
(0.000821261 1.42705e-07 -3.62295e-08)
(0.000819584 -5.12437e-08 7.24416e-08)
(0.000818109 -1.09219e-07 5.11047e-08)
(0.000816378 -2.74391e-07 -1.59109e-08)
(0.00081481 -4.01098e-07 5.07151e-08)
(0.000813213 -3.22589e-07 5.39566e-08)
(0.000811675 -3.65048e-07 9.50053e-09)
(0.000810487 -4.28387e-07 -1.12605e-07)
(0.000808833 -2.27906e-07 1.2797e-07)
(0.000807149 -1.81884e-07 3.4771e-07)
(0.000805906 -1.07291e-08 1.12789e-07)
(0.000804459 1.79656e-07 6.92661e-08)
(0.000802661 1.62876e-07 1.72587e-07)
(0.000801032 7.33098e-08 5.13563e-08)
(0.000799676 -1.59298e-07 1.14113e-07)
(0.000798265 -1.9678e-07 5.54422e-08)
(0.000796684 -1.70989e-07 3.00802e-08)
(0.000795232 -1.57887e-07 4.84968e-08)
(0.000793856 -2.29224e-07 -4.49592e-08)
(0.000792664 -2.36564e-07 6.31254e-08)
(0.000791224 -4.31306e-07 8.78304e-08)
(0.000789396 -6.14875e-07 3.69191e-08)
(0.000788003 -3.19287e-07 5.08737e-08)
(0.00078673 -3.24931e-07 4.82549e-08)
(0.000785118 -1.12655e-07 1.03307e-08)
(0.000783546 -1.01102e-07 3.57745e-08)
(0.00078221 6.83586e-08 4.8289e-08)
(0.000781012 1.31796e-07 1.30531e-08)
(0.000779694 3.11433e-07 3.24003e-08)
(0.000777718 9.57625e-07 2.77438e-08)
(0.000776282 7.54363e-07 -7.74814e-08)
(0.000775627 3.30224e-07 9.30116e-08)
(0.0013286 0.00383689 -0.000780541)
(-0.0134595 -0.00758653 -0.00406091)
(-3.77668e-05 0.00815629 0.000420099)
(0.0615277 -0.00386145 0.00187623)
(-0.00997207 0.00414832 0.00034926)
(0.00278544 -0.000723637 0.000232821)
(0.00116894 0.000391968 0.000115759)
(0.000461098 2.90322e-05 5.27068e-07)
(0.00088381 2.68876e-05 -1.40716e-06)
(0.000823373 1.65588e-05 -3.78395e-07)
(0.000837067 1.0157e-05 2.22885e-07)
(0.00083326 6.0232e-06 5.26552e-08)
(0.000831621 3.63791e-06 8.62688e-08)
(0.000829697 2.464e-06 -1.00871e-07)
(0.000828253 1.59477e-06 5.23693e-08)
(0.000826413 1.07446e-06 5.91272e-08)
(0.000824449 5.7202e-07 4.87206e-08)
(0.000822769 3.91084e-07 1.0912e-07)
(0.000821179 1.14013e-07 7.94701e-08)
(0.00081956 1.11503e-07 3.62413e-08)
(0.000817874 6.43682e-08 2.59329e-08)
(0.000816378 -6.39975e-08 7.72122e-08)
(0.000814856 -8.71748e-08 5.79056e-08)
(0.000813239 -1.11827e-07 4.81777e-08)
(0.000811688 6.03406e-08 6.6008e-08)
(0.000810235 2.99441e-08 -4.16293e-08)
(0.000808867 -2.04349e-07 7.49906e-08)
(0.000807108 4.25355e-08 4.85483e-08)
(0.000805812 3.10236e-07 1.04498e-07)
(0.000804691 -8.41023e-08 1.07523e-07)
(0.000802834 -1.83362e-07 7.5239e-08)
(0.000801005 -1.77429e-07 -3.65344e-08)
(0.000799455 -2.64352e-07 7.47916e-08)
(0.000798139 -4.96611e-07 3.8958e-08)
(0.000796854 -2.12612e-07 2.75704e-07)
(0.000795298 -8.2075e-08 5.90219e-08)
(0.000793849 4.77109e-08 -4.36237e-10)
(0.000792243 -9.27077e-08 5.06968e-08)
(0.000790668 -3.85642e-07 1.16232e-08)
(0.00078967 -5.3139e-07 6.45283e-08)
(0.000788286 -2.56922e-07 6.21376e-08)
(0.000786727 -2.42375e-07 2.63419e-08)
(0.000785243 -1.47611e-07 1.16904e-07)
(0.000783824 4.3221e-08 3.63562e-08)
(0.000782492 5.98549e-08 -2.06218e-08)
(0.000781015 1.21556e-07 5.2235e-08)
(0.000779988 1.5869e-09 2.3918e-08)
(0.000778444 -1.36935e-08 2.20793e-08)
(0.000776203 3.43587e-07 -3.83605e-08)
(0.000774661 2.42293e-07 6.78088e-08)
(-0.0473103 0.00817714 0.00311709)
(0.05161 -0.0192636 -0.00781321)
(0.0181738 -0.0419594 -0.00311298)
(0.0138239 -0.0211315 0.00511614)
(-0.00945086 0.00362754 0.00189046)
(-0.00915761 -0.00511315 -0.00211257)
(0.00105834 0.00103187 -4.49601e-05)
(0.00144644 4.66984e-05 -7.99701e-07)
(0.00146083 2.23794e-05 3.42269e-07)
(0.00136427 1.90451e-05 3.51972e-07)
(0.00138744 1.33365e-05 3.89075e-07)
(0.00138282 8.98586e-06 3.5112e-07)
(0.001383 5.92842e-06 3.01441e-07)
(0.00138071 4.17616e-06 1.99195e-07)
(0.00137783 2.69992e-06 3.5347e-07)
(0.00137503 1.50389e-06 2.97652e-07)
(0.0013724 9.92004e-07 3.45193e-07)
(0.00136974 7.43309e-07 3.56878e-07)
(0.00136711 4.16322e-07 3.97079e-07)
(0.00136474 3.17719e-07 3.69199e-07)
(0.00136206 2.64383e-07 3.65606e-07)
(0.00135922 4.30272e-07 3.65812e-07)
(0.00135675 8.54047e-08 3.85567e-07)
(0.00135448 -7.51075e-08 2.96549e-07)
(0.0013519 4.1134e-07 2.40724e-07)
(0.0013491 6.87008e-07 3.06271e-07)
(0.00134692 7.28426e-07 2.93773e-07)
(0.00134515 3.18137e-07 3.46676e-07)
(0.00134174 4.6818e-07 4.12322e-07)
(0.00133855 -3.08337e-07 3.73051e-07)
(0.00133638 -9.55249e-07 2.58383e-07)
(0.00133364 -7.88379e-07 1.34419e-07)
(0.00133098 -4.43813e-07 3.43377e-07)
(0.00132946 1.92067e-07 2.44058e-07)
(0.00132755 1.77145e-07 3.23906e-07)
(0.00132474 1.28727e-07 3.41839e-07)
(0.0013218 2.36975e-07 3.15457e-07)
(0.00131889 3.16876e-07 2.96763e-07)
(0.00131661 7.14779e-07 1.54792e-07)
(0.00131479 7.93412e-07 3.5222e-07)
(0.00131268 1.92414e-07 2.90309e-07)
(0.00131016 3.78024e-08 2.11152e-07)
(0.00130796 -4.80248e-07 3.09651e-07)
(0.00130515 -2.60703e-07 7.11977e-07)
(0.00130261 -2.01411e-07 3.9171e-07)
(0.00130035 -2.77969e-07 3.1865e-07)
(0.00129795 -4.07209e-07 3.15421e-07)
(0.00129567 -8.16121e-07 5.02151e-07)
(0.00129303 -7.11094e-07 3.26911e-07)
(0.00129017 -4.42846e-07 3.68355e-07)
(0.0215996 -0.0205191 0.000407861)
(0.0251381 -0.0126185 0.000276612)
(0.0343813 -0.00243518 0.00130815)
(0.0138716 -0.0269553 -0.00148793)
(0.00597014 -0.016751 -0.000264391)
(0.016109 -0.00783696 -0.00843506)
(0.000210045 -0.00190516 0.000296336)
(0.00132921 -2.81954e-05 1.40925e-07)
(0.00146514 4.75384e-06 4.38619e-07)
(0.00136432 1.45027e-05 3.4255e-07)
(0.00138402 8.97103e-06 3.46452e-07)
(0.00138001 7.0086e-06 3.45628e-07)
(0.00137985 4.6835e-06 3.46906e-07)
(0.00137827 2.79282e-06 3.43644e-07)
(0.00137635 1.75087e-06 3.43836e-07)
(0.00137433 9.76638e-07 2.85091e-07)
(0.00137219 8.4447e-07 3.40963e-07)
(0.00136956 5.67666e-07 2.99227e-07)
(0.00136705 8.36248e-07 3.14623e-07)
(0.00136461 5.11778e-07 3.10058e-07)
(0.00136205 4.32159e-07 -9.43941e-08)
(0.00135919 4.57606e-07 3.74005e-07)
(0.00135631 9.27921e-07 5.1931e-07)
(0.00135467 1.04504e-06 4.06993e-07)
(0.00135256 4.70919e-07 3.18119e-07)
(0.00134957 2.12592e-07 5.71599e-07)
(0.00134652 2.76587e-07 3.16402e-07)
(0.00134376 -1.94216e-07 3.35247e-07)
(0.00134112 -1.24415e-06 3.18695e-07)
(0.0013382 -7.07022e-07 3.21901e-07)
(0.00133627 -6.513e-07 3.71025e-07)
(0.00133443 -2.95658e-07 2.71243e-07)
(0.00133243 6.8781e-07 6.22657e-07)
(0.00132982 1.24383e-06 4.11164e-07)
(0.00132682 5.12669e-07 3.29891e-07)
(0.00132437 3.27851e-07 2.90168e-07)
(0.0013221 1.58468e-07 3.20069e-07)
(0.00131977 3.89124e-07 3.78292e-07)
(0.0013172 6.76166e-07 3.39414e-07)
(0.00131426 8.21773e-07 3.33832e-07)
(0.00131159 2.89143e-07 2.22678e-07)
(0.00130911 -7.74411e-08 2.94683e-07)
(0.00130711 -5.91597e-07 2.9783e-07)
(0.00130552 -7.02408e-07 1.81586e-07)
(0.00130295 -3.28819e-07 3.59871e-07)
(0.00130018 -2.24147e-07 3.31796e-07)
(0.00129799 1.43762e-07 3.17995e-07)
(0.00129577 -1.10714e-07 2.93511e-07)
(0.00129302 -3.27276e-07 1.11786e-07)
(0.00129126 -3.8561e-07 2.17258e-07)
(-0.0079789 -0.00548728 0.000374921)
(-0.0102392 0.00883286 -0.000950116)
(-0.00315882 0.0030349 -1.38776e-05)
(0.0113324 0.0128575 0.00203838)
(0.056169 0.015932 -0.0842356)
(0.00580568 0.00383169 0.0046235)
(0.00162318 0.00140944 -1.28091e-05)
(0.00133475 1.11782e-05 1.32615e-05)
(0.00143965 -3.92165e-05 -3.53701e-07)
(0.00136905 1.87077e-05 3.39985e-07)
(0.00137795 3.99409e-06 3.45379e-07)
(0.00137738 3.72273e-06 3.45101e-07)
(0.00137768 1.94844e-06 3.44603e-07)
(0.001377 1.24087e-06 3.44596e-07)
(0.00137554 7.54785e-07 3.43995e-07)
(0.00137388 5.43795e-07 3.41798e-07)
(0.00137188 2.8701e-07 2.34098e-07)
(0.00136972 1.97233e-07 1.94977e-07)
(0.00136703 1.39944e-07 4.53923e-07)
(0.00136423 1.76061e-07 3.30001e-07)
(0.00136199 2.25551e-07 2.73443e-07)
(0.00135984 2.14991e-07 3.36575e-07)
(0.00135748 5.24301e-07 3.23226e-07)
(0.0013539 6.8599e-07 2.16402e-07)
(0.00135086 1.94453e-07 3.46812e-07)
(0.00134886 5.15145e-08 3.14156e-07)
(0.00134641 -1.8656e-07 3.50102e-07)
(0.00134325 6.43065e-08 3.38563e-07)
(0.00134111 2.96422e-07 4.18921e-07)
(0.0013393 9.41606e-07 2.58475e-07)
(0.00133689 1.31778e-06 3.37994e-07)
(0.00133532 1.1755e-06 3.22126e-07)
(0.0013329 6.71741e-07 8.37629e-07)
(0.00132923 3.09917e-07 4.28347e-07)
(0.00132639 1.55188e-07 2.88397e-07)
(0.0013243 2.33845e-07 3.41507e-07)
(0.00132187 2.35449e-07 2.86894e-07)
(0.00131953 1.4939e-07 3.60919e-07)
(0.00131714 2.17479e-07 3.3737e-07)
(0.0013143 -7.27348e-08 4.24496e-07)
(0.00131155 5.0259e-08 3.70947e-07)
(0.00130906 1.34916e-07 2.54215e-07)
(0.00130718 7.13798e-07 5.69044e-07)
(0.00130549 5.78438e-07 2.92587e-07)
(0.00130321 4.63562e-07 1.7095e-07)
(0.00130095 4.67683e-07 3.86574e-07)
(0.0012981 7.8977e-07 2.85391e-07)
(0.00129509 4.15459e-07 3.47111e-07)
(0.0012927 2.28614e-07 3.34273e-07)
(0.00129106 1.54587e-07 3.04486e-07)
(-0.00624205 0.00032001 0.000450477)
(-0.00301075 -0.00362757 0.000692402)
(-0.000117869 0.00292498 0.000372389)
(-0.000888022 0.0132878 -8.07359e-05)
(0.00111878 0.00403649 -0.0006782)
(0.0109083 -0.00546453 0.00102659)
(0.00320122 0.00125753 -6.22992e-05)
(0.0012816 0.000323732 6.5194e-05)
(0.00134847 -4.8058e-05 1.67665e-07)
(0.00142729 1.70571e-05 2.83311e-07)
(0.00136518 -4.56383e-06 3.65699e-07)
(0.00137738 -1.07349e-06 3.44691e-07)
(0.0013767 -1.70687e-06 3.43658e-07)
(0.00137675 -9.61733e-07 3.44391e-07)
(0.00137546 -4.82267e-07 3.43833e-07)
(0.00137373 -1.83651e-07 3.4304e-07)
(0.00137175 -2.12024e-07 3.41973e-07)
(0.00136938 -1.53524e-07 3.62226e-07)
(0.00136702 -2.87422e-07 2.51259e-07)
(0.00136472 -2.20739e-07 3.08469e-07)
(0.0013621 -1.04668e-07 3.76357e-07)
(0.00135956 -1.57563e-07 3.40801e-07)
(0.0013569 -4.06634e-07 2.6267e-07)
(0.00135426 -5.31651e-07 3.84073e-07)
(0.00135177 3.24625e-08 2.82192e-07)
(0.00134909 2.93034e-07 2.77033e-07)
(0.00134653 4.67841e-07 4.03329e-07)
(0.00134436 6.52593e-07 4.41047e-07)
(0.00134221 1.59715e-06 3.63338e-07)
(0.00133947 1.20696e-06 4.73846e-07)
(0.00133655 1.34061e-06 3.25032e-07)
(0.00133361 1.24615e-06 -3.96985e-08)
(0.00133134 3.38309e-07 3.29051e-07)
(0.00132918 -1.21797e-07 3.4232e-07)
(0.00132672 1.24291e-07 3.38749e-07)
(0.00132447 6.83838e-08 3.1654e-07)
(0.001322 1.71609e-08 3.2151e-07)
(0.00131975 -1.28556e-07 3.45664e-07)
(0.00131692 -6.66044e-07 1.86315e-07)
(0.00131405 -4.68222e-07 1.2023e-07)
(0.00131185 -2.20609e-08 3.26897e-07)
(0.00130993 5.02524e-07 3.52217e-07)
(0.00130766 8.66088e-07 4.67127e-07)
(0.0013052 7.16652e-07 1.18664e-07)
(0.00130281 2.43036e-07 2.73204e-07)
(0.00130058 6.38108e-08 3.24595e-07)
(0.00129792 -2.01514e-07 3.19987e-07)
(0.00129507 6.78549e-08 3.14959e-07)
(0.00129268 3.15096e-07 3.24608e-07)
(0.00129078 3.7026e-07 2.51147e-07)
(0.00123944 -0.00678946 -5.86151e-05)
(0.00457865 -0.000390823 -0.000199797)
(0.0105832 0.00344691 0.000680986)
(-0.00801175 0.00523588 -0.000945756)
(-0.00134293 -0.000385676 -0.000663374)
(-0.0152601 -0.000829858 0.000356341)
(-9.34401e-05 0.0006318 1.88679e-05)
(0.00080205 -0.000128933 -0.000107505)
(0.00142738 1.02604e-05 6.7181e-07)
(0.0014734 -5.66908e-06 5.11042e-08)
(0.00135534 -1.24414e-05 3.55983e-07)
(0.00138091 -7.40966e-06 3.47673e-07)
(0.00137779 -4.72238e-06 3.30096e-07)
(0.00137852 -3.20267e-06 3.4442e-07)
(0.0013765 -2.20053e-06 3.48069e-07)
(0.00137421 -1.43733e-06 3.59851e-07)
(0.00137191 -8.52541e-07 3.43309e-07)
(0.00136962 -5.52988e-07 3.31452e-07)
(0.00136695 -3.20433e-07 3.53195e-07)
(0.00136446 -1.65687e-07 2.2972e-07)
(0.00136207 -1.21148e-07 3.73246e-07)
(0.00135946 -1.08389e-07 3.4972e-07)
(0.00135702 -2.01736e-07 3.62364e-07)
(0.00135446 -6.22378e-08 3.85495e-07)
(0.00135189 -5.26065e-08 4.01506e-07)
(0.0013494 -1.07127e-08 3.74732e-07)
(0.00134686 1.75492e-07 3.90219e-07)
(0.00134466 2.92535e-07 3.24492e-07)
(0.00134179 1.49392e-07 5.25294e-07)
(0.00133896 2.25907e-07 5.37534e-07)
(0.00133693 7.4691e-08 -4.82913e-07)
(0.00133405 -2.38581e-07 3.17175e-07)
(0.00133118 2.73519e-07 3.30808e-07)
(0.00132896 9.58566e-08 3.28646e-07)
(0.00132663 1.71622e-07 3.29888e-07)
(0.00132416 -1.16199e-07 3.29229e-07)
(0.00132162 -3.60797e-07 2.66558e-07)
(0.00131868 -3.91867e-07 3.28669e-07)
(0.00131672 -5.21956e-07 4.88411e-07)
(0.00131511 -2.7286e-07 2.28956e-07)
(0.00131276 4.62549e-09 3.21857e-07)
(0.00131017 1.67793e-07 8.65199e-07)
(0.00130745 3.35576e-08 2.63057e-07)
(0.0013047 5.10028e-09 3.28704e-07)
(0.00130239 -2.96547e-07 7.99907e-07)
(0.00130039 -4.60823e-07 3.29538e-07)
(0.0012981 -9.83121e-07 1.98454e-07)
(0.00129573 -8.24863e-07 -7.57018e-08)
(0.00129307 -4.31101e-07 3.21641e-07)
(0.00129021 1.47837e-07 4.13281e-07)
(-0.00231005 -0.000932259 0.000145437)
(-0.00723376 -0.00670346 0.000261283)
(-0.00489561 0.00429168 0.00030364)
(0.00434857 0.00929352 -0.000155258)
(0.0346248 0.000753071 0.0073312)
(0.00815608 0.00654298 -0.000381426)
(0.0025418 0.000634461 1.21208e-05)
(0.000488282 0.000804919 -7.62637e-05)
(0.00139956 -4.35757e-05 1.9293e-06)
(0.00146912 -5.59486e-05 3.01537e-07)
(0.00136334 -2.10102e-05 3.12893e-07)
(0.00138704 -1.41705e-05 3.17451e-07)
(0.00138196 -7.66992e-06 3.56025e-07)
(0.00137991 -4.85175e-06 3.45014e-07)
(0.00137767 -3.16003e-06 6.91704e-07)
(0.00137542 -2.05898e-06 4.38438e-07)
(0.00137286 -1.33095e-06 3.4392e-07)
(0.00137004 -9.27503e-07 3.50442e-07)
(0.0013675 -5.45902e-07 3.10575e-07)
(0.00136497 -1.69323e-07 3.57409e-07)
(0.00136217 -2.26199e-07 3.75268e-07)
(0.00135946 -8.26115e-08 6.57305e-07)