/*--------------------------------*- C++ -*----------------------------------*\
| =========                 |                                                 |
| \\      /  F ield         | OpenFOAM: The Open Source CFD Toolbox           |
|  \\    /   O peration     | Version:  5.0                                   |
|   \\  /    A nd           | Web:      www.OpenFOAM.org                      |
|    \\/     M anipulation  |                                                 |
\*---------------------------------------------------------------------------*/
FoamFile
{
    version     2.0;
    format      ascii;
    class       surfaceVectorField;
    location    "4.8";
    object      Uf;
}
// * * * * * * * * * * * * * * * * * * * * * * * * * * * * * * * * * * * * * //

dimensions      [0 1 -1 0 0 0 0];

internalField   nonuniform List<vector> 
27454
(
(-0.0600677 0.0101479 -0.00124913)
(-0.013894 0.0105676 0.000979117)
(-0.0513695 0.00354868 0.00393488)
(0.00883598 -0.00697625 0.00921412)
(0.00640171 0.0176203 0.00913456)
(0.00315332 0.00551245 0.00695108)
(0.014616 -0.0086347 0.0323128)
(0.0145824 -0.0368484 0.0690969)
(-0.0377713 -0.0212353 -0.263307)
(-0.0339393 0.00960257 0.15141)
(0.0426913 -0.0234529 0.00136551)
(-0.00159515 0.00506966 -0.00116016)
(0.0394049 -0.0163422 -0.00321806)
(0.00964896 -0.0119274 -0.00114585)
(-0.063507 -0.00617516 0.000190148)
(-0.0458603 -0.000614264 -0.00411301)
(-0.006359 0.00530312 -0.00123824)
(-0.0353096 0.00268344 -0.00214435)
(0.000661831 0.00507592 -0.000513007)
(-0.0024163 0.00475171 -0.00113627)
(0.00855391 0.0211368 0.000249951)
(-0.000996157 0.00868154 -0.00146054)
(-0.00746057 0.00414167 -0.00025655)
(-0.000356538 0.00174316 -0.000131478)
(0.000615703 0.00341117 -5.63498e-05)
(-0.000823503 0.00386494 -0.000827429)
(0.000657536 0.000353553 2.91167e-05)
(0.00125809 0.000306635 -1.02315e-05)
(0.00145723 0.000370154 -8.67781e-05)
(0.00141049 0.000114734 1.48986e-05)
(0.000338277 -4.94685e-06 -2.26333e-06)
(0.000460766 -6.11932e-06 -2.96154e-06)
(0.000478805 -7.19356e-06 3.16934e-07)
(0.000805362 -1.79117e-06 1.17946e-07)
(0.000312246 -1.20479e-05 -1.82546e-06)
(0.00061753 -1.21259e-05 -2.90859e-06)
(0.000560468 -2.99963e-05 -2.07806e-06)
(0.000834979 3.29543e-06 -9.23749e-07)
(0.000894902 -2.48046e-06 -1.49609e-06)
(0.00118207 3.18063e-06 -1.13449e-06)
(0.000609934 -6.16872e-06 -4.58772e-06)
(0.000612562 -8.61894e-06 -5.06572e-06)
(0.00101534 -1.24216e-05 -5.6255e-06)
(0.00101457 -1.77164e-05 -6.3554e-06)
(0.000835782 5.18208e-06 -1.13892e-07)
(0.000828295 5.56043e-06 -4.51444e-07)
(0.00109995 8.20348e-06 9.03142e-08)
(0.000833699 4.27549e-06 1.27935e-07)
(0.000836958 4.76602e-06 1.65258e-07)
(0.0011155 6.9355e-06 2.06049e-07)
(0.000832039 3.16919e-06 5.35493e-08)
(0.000832014 4.08442e-06 3.56046e-08)
(0.00110959 5.17582e-06 1.75561e-07)
(0.000830478 2.36994e-06 6.0679e-08)
(0.000830664 2.99705e-06 5.81483e-08)
(0.00110838 3.65079e-06 1.83322e-07)
(0.000827896 1.73949e-06 5.2448e-08)
(0.000828608 1.83138e-06 5.16852e-08)
(0.00110547 2.85893e-06 1.12925e-07)
(0.000825984 1.12025e-06 1.37433e-07)
(0.000826605 1.26774e-06 4.7588e-08)
(0.00110243 1.87563e-06 1.84015e-07)
(0.000824296 6.93023e-07 1.40896e-07)
(0.000824924 1.40936e-06 1.40305e-07)
(0.00110006 1.16291e-06 1.70083e-07)
(0.000822678 4.02453e-07 6.90518e-08)
(0.0008233 5.91481e-07 5.24772e-08)
(0.00109785 7.12869e-07 1.82359e-07)
(0.000820952 2.23545e-07 7.21077e-08)
(0.000821726 4.13113e-07 8.44207e-08)
(0.00109566 3.99551e-07 2.04701e-07)
(0.000819263 5.35994e-08 7.45425e-08)
(0.000820127 -1.7269e-07 6.93353e-08)
(0.00109332 2.3499e-07 1.658e-07)
(0.000818232 -4.76634e-08 7.98781e-08)
(0.000818667 3.08712e-07 5.70138e-08)
(0.00109157 -5.42327e-08 2.3415e-07)
(0.000816467 3.56388e-08 5.05301e-08)
(0.000817281 3.20106e-08 8.79255e-08)
(0.00108973 -9.96868e-09 1.82406e-07)
(0.000814889 6.39441e-09 3.8098e-08)
(0.000815599 2.14236e-07 3.05194e-08)
(0.00108739 1.8719e-07 1.57824e-07)
(0.00081334 -4.78174e-08 4.59216e-08)
(0.000814051 1.72338e-07 7.95229e-08)
(0.00108531 -7.26645e-08 1.63969e-07)
(0.000811777 5.97127e-08 5.16365e-08)
(0.000812736 -2.60678e-08 6.70173e-08)
(0.00108332 1.88762e-08 1.83046e-07)
(0.000810283 2.45103e-07 5.06588e-08)
(0.000811245 3.60132e-07 5.04742e-08)
(0.00108125 2.11301e-07 1.66711e-07)
(0.000809025 3.5739e-07 5.07599e-08)
(0.000809636 -1.36635e-06 3.50128e-08)
(0.00107935 5.34713e-07 1.88363e-07)
(0.000807491 2.63392e-07 5.34506e-08)
(0.000808088 2.77308e-07 7.46051e-08)
(0.00107752 4.93929e-07 1.74679e-07)
(0.000806006 2.47603e-07 5.7523e-08)
(0.000806753 9.72519e-08 4.94711e-08)
(0.0010757 2.43908e-07 1.78292e-07)
(0.000804322 1.07495e-07 7.14185e-08)
(0.000805047 -9.76954e-08 7.16699e-08)
(0.00107339 4.08761e-07 2.16213e-07)
(0.000802989 -2.24413e-07 7.82279e-08)
(0.000803381 1.91771e-07 5.85495e-08)
(0.00107129 -1.70058e-07 1.66101e-07)
(0.000801075 -3.79702e-07 5.83446e-08)
(0.000802021 -5.48113e-07 -2.69631e-08)
(0.00106926 -5.28253e-07 3.64618e-07)
(0.000799695 -3.28989e-07 6.13857e-08)
(0.000800474 -4.37996e-07 3.07765e-08)
(0.00106693 -5.71204e-07 1.64658e-07)
(0.000798522 -1.53945e-07 1.00235e-07)
(0.00079923 -2.5567e-07 1.09611e-07)
(0.0010652 -3.32003e-07 1.98147e-07)
(0.000797433 6.08066e-08 7.84503e-08)
(0.000798166 -1.79586e-06 2.10891e-07)
(0.0010639 -4.31468e-08 2.80913e-07)
(0.000795702 1.66287e-07 4.83911e-08)
(0.000796561 1.78536e-07 4.4649e-08)
(0.00106204 2.5601e-07 1.66983e-07)
(0.000794132 1.73866e-07 4.37397e-08)
(0.000794865 2.04779e-07 4.71357e-08)
(0.00105977 2.15731e-07 1.95128e-07)
(0.000792214 2.47045e-07 1.38258e-08)
(0.000793401 2.13637e-07 3.84239e-08)
(0.00105741 2.65059e-07 1.42946e-07)
(0.000790564 4.89892e-07 4.63426e-08)
(0.000791887 4.75066e-07 -1.0427e-11)
(0.00105487 3.97993e-07 1.51178e-07)
(0.000790505 4.68147e-07 1.14625e-07)
(0.000790519 -3.08016e-06 5.38315e-08)
(0.00105384 9.03259e-07 2.42177e-07)
(0.000788569 1.59336e-07 8.01825e-08)
(0.000789084 4.34068e-07 1.66115e-07)
(0.00105263 3.81252e-07 1.80903e-07)
(0.00078703 5.40488e-08 5.54965e-08)
(0.000787577 1.12919e-07 4.93678e-08)
(0.0010502 1.0186e-07 1.766e-07)
(0.000785635 -7.40371e-08 9.57187e-08)
(0.000786119 5.95772e-08 -8.79357e-08)
(0.0010482 4.54452e-08 1.77249e-07)
(0.000784373 -2.50989e-07 6.78649e-08)
(0.000784776 -2.34307e-07 7.09144e-08)
(0.00104662 -2.62657e-07 2.39309e-07)
(0.000782519 -2.4218e-07 3.60355e-08)
(0.000783446 1.48998e-06 5.43612e-08)
(0.0010444 -3.8608e-07 1.2323e-07)
(0.000781106 -1.20482e-07 -1.70334e-08)
(0.000782023 -2.00285e-07 3.92819e-08)
(0.00104221 -2.35697e-07 1.76744e-07)
(0.000779712 -2.28673e-08 -1.56815e-08)
(0.000780566 3.01805e-07 -1.07535e-08)
(0.0010404 -1.21182e-07 1.39743e-07)
(0.000778732 -7.32521e-08 5.72468e-08)
(0.000779141 -4.13935e-07 7.53587e-08)
(0.00103872 -2.68606e-09 1.62762e-07)
(0.000777238 -3.24283e-07 4.24094e-08)
(0.000777741 6.92447e-08 5.72317e-08)
(0.0010372 -2.57533e-07 1.78819e-07)
(0.000775239 -4.40819e-07 9.79401e-09)
(0.000776214 1.34243e-06 4.19459e-08)
(0.00103477 -6.27017e-07 1.29063e-07)
(0.000774898 8.67103e-07 5.8182e-08)
(0.00103244 -5.20854e-07 1.0943e-07)
(-0.0101902 -0.0156462 0.00101164)
(-0.00877425 -0.00962613 0.000460294)
(0.00563022 -0.0186206 0.000886246)
(0.00762382 -0.000795186 0.000270799)
(-0.00527445 0.00411678 0.00150884)
(0.0104656 -0.00272785 0.000560553)
(-0.00812416 0.00617542 0.00407469)
(-0.00444719 -0.0134026 -0.000166423)
(4.62636e-05 -0.0111931 0.00101199)
(0.0116943 -0.0170613 -0.000939299)
(-0.00201253 0.00152406 0.000375692)
(-0.00415628 -0.018987 0.000487793)
(-0.00395408 -0.0193896 0.000194235)
(-0.00180887 -0.0125596 0.000894208)
(-0.00421142 0.00503376 0.000104544)
(0.0111753 -0.00969549 0.000126398)
(0.0152136 -0.01138 0.000929544)
(0.00124383 -0.000140231 -0.000111747)
(0.0102205 -0.00393656 8.66328e-06)
(-0.000688439 -0.00633915 5.51765e-05)
(0.00179419 0.0010387 -2.35643e-05)
(-0.0038634 -0.00487236 -0.000197798)
(-0.00975475 0.00248991 -0.000575753)
(0.00872231 0.00930851 -0.00105533)
(0.0106159 0.00360745 0.000798065)
(-0.0057006 -0.0161708 -0.00129769)
(-0.0036276 -0.00281044 0.000705581)
(-0.00517989 -0.00297793 0.000407659)
(-0.0059787 0.00113034 -0.00011604)
(-0.00834011 -0.0152591 -0.000298523)
(0.0051667 -0.0162485 -0.000847658)
(0.0054962 -0.00796916 -0.000155747)
(0.0048983 -0.00444849 -8.76692e-05)
(0.0084153 -0.0144847 -0.000755642)
(0.0014985 -0.000665944 6.694e-05)
(0.00153982 -0.000109968 0.000143893)
(0.00152442 2.12761e-05 0.000136018)
(0.00138843 -0.000803162 8.95199e-06)
(0.00128761 -0.000270684 7.01411e-05)
(0.000346484 -1.77721e-05 -2.57706e-06)
(0.000501338 -1.56403e-05 -3.2701e-06)
(0.000483942 -1.87752e-05 -8.27682e-07)
(0.0007818 -4.00691e-05 -1.2081e-06)
(0.00033164 -1.21627e-05 -1.37137e-06)
(0.000644328 -3.15062e-05 -8.56786e-07)
(0.000615501 -1.72119e-05 3.33234e-06)
(0.000472827 -1.59216e-05 -4.47817e-07)
(0.000846096 5.91194e-06 -1.02413e-06)
(0.000891977 1.75316e-06 -1.9914e-06)
(0.00120159 3.4519e-06 -1.25212e-06)
(0.000617474 -3.08079e-06 -3.79256e-06)
(0.000636784 8.81328e-06 -5.14221e-06)
(0.00101999 -6.37043e-06 -4.53091e-06)
(0.00106174 1.92701e-05 -6.32942e-06)
(0.000837319 7.97001e-06 -1.72496e-07)
(0.000830748 1.60855e-05 -3.97052e-07)
(0.00110711 1.32086e-05 7.65353e-08)
(0.000833325 5.51124e-06 7.297e-08)
(0.000833849 7.58351e-06 8.2853e-08)
(0.00111523 8.38076e-06 1.96828e-07)
(0.000830777 4.05213e-06 4.01962e-08)
(0.000830166 5.36073e-06 3.91855e-08)
(0.00110839 6.49601e-06 1.78496e-07)
(0.000828899 2.62207e-06 4.91565e-08)
(0.00082886 3.30291e-06 4.79501e-08)
(0.00110623 4.40109e-06 1.88003e-07)
(0.000827133 1.6481e-06 4.68265e-08)
(0.00082738 2.08707e-06 4.77036e-08)
(0.00110381 2.63734e-06 1.82226e-07)
(0.000825517 1.08221e-06 5.04303e-08)
(0.000825891 1.34327e-06 5.10695e-08)
(0.00110161 1.77297e-06 1.81833e-07)
(0.000823929 7.84607e-07 5.1915e-08)
(0.000824547 1.19264e-06 5.4785e-08)
(0.00109952 1.09308e-06 1.9978e-07)
(0.000822294 6.85103e-07 6.78358e-08)
(0.000823173 6.79996e-07 4.90798e-08)
(0.00109741 9.60484e-07 1.82974e-07)
(0.000820956 6.50058e-07 8.16531e-08)
(0.00082168 1.76317e-08 8.81282e-08)
(0.00109541 8.08464e-07 1.90952e-07)
(0.000819418 5.64366e-07 5.18106e-08)
(0.000820018 -1.23457e-07 3.36077e-08)
(0.00109347 8.59451e-07 1.77769e-07)
(0.000817779 3.80188e-07 6.50513e-08)
(0.000818435 5.10119e-07 3.49755e-08)
(0.00109133 6.01709e-07 1.76164e-07)
(0.000816481 2.47718e-07 6.79333e-08)
(0.000817114 -1.98703e-07 6.8891e-08)
(0.00108944 4.02579e-07 1.76753e-07)
(0.000814613 2.79957e-07 7.19287e-08)
(0.000815638 3.21652e-07 3.91841e-08)
(0.00108727 2.78499e-07 2.02927e-07)
(0.000813568 3.39208e-07 1.00623e-07)
(0.000814123 -1.64043e-06 5.86883e-08)
(0.00108519 5.22811e-07 2.65345e-07)
(0.000812132 2.36097e-07 6.58602e-08)
(0.000812606 3.94418e-07 -5.25997e-08)
(0.00108373 4.72369e-07 1.4384e-07)
(0.000810652 1.4135e-07 3.48331e-08)
(0.000811125 3.73189e-08 4.50962e-08)
(0.00108183 2.48711e-07 1.9979e-07)
(0.000808659 6.71059e-08 5.88455e-08)
(0.000809543 -1.59174e-07 2.81301e-08)
(0.00107939 1.94497e-07 1.37741e-07)
(0.000807311 -4.13527e-08 7.06335e-08)
(0.000807952 1.78441e-07 7.71754e-08)
(0.00107708 4.73836e-08 1.72698e-07)
(0.000805953 -2.5142e-07 6.3611e-08)
(0.000806491 -9.89731e-08 5.26767e-08)
(0.00107536 -1.23158e-07 1.80701e-07)
(0.00080391 -3.23894e-07 5.88051e-08)
(0.000804958 -5.88096e-07 -3.16005e-08)
(0.00107308 -6.19098e-07 2.61879e-07)
(0.000802564 -2.04999e-07 -4.66147e-08)
(0.000803531 -9.01235e-08 3.04392e-08)
(0.00107068 -3.46203e-07 1.85767e-07)
(0.000801319 -8.1771e-08 -5.45493e-08)
(0.000802176 2.90848e-07 3.30148e-08)
(0.00106914 -2.61284e-07 9.77986e-08)
(0.000799922 2.9332e-07 7.8977e-08)
(0.000800943 4.71529e-07 3.76877e-08)
(0.00106739 -1.35228e-08 1.063e-07)
(0.000798903 5.56014e-07 2.20236e-07)
(0.000799557 -2.49138e-06 6.46737e-08)
(0.00106577 7.73653e-07 2.95879e-07)
(0.000797534 3.19878e-07 1.77142e-07)
(0.000797869 -3.25436e-06 1.39786e-07)
(0.00106423 7.53914e-07 2.72106e-07)
(0.000795487 1.21237e-07 4.33928e-08)
(0.000796311 9.23112e-07 6.98705e-08)
(0.00106183 1.68798e-07 1.75828e-07)
(0.000794216 1.58859e-07 4.18226e-08)
(0.000794911 -1.80724e-09 4.67459e-08)
(0.00105958 1.91518e-07 1.74421e-07)
(0.000793053 2.93355e-07 2.45997e-08)
(0.000793569 -1.19028e-07 7.12452e-08)
(0.00105798 2.35657e-07 1.73863e-07)
(0.00079179 6.01201e-07 7.46184e-09)
(0.00079227 1.38396e-07 3.04008e-08)
(0.00105647 5.40724e-07 1.8325e-07)
(0.000789196 5.80718e-07 1.05286e-07)
(0.000790491 -1.00023e-06 1.66608e-08)
(0.00105385 1.03676e-06 1.29229e-07)
(0.000788016 2.23341e-07 1.35336e-07)
(0.000788636 2.31204e-07 1.36375e-07)
(0.00105123 5.19814e-07 1.66202e-07)
(0.000786707 -1.95597e-08 -9.40222e-08)
(0.000787273 -1.8539e-07 4.86433e-08)
(0.0010496 1.14121e-07 1.84815e-07)
(0.000785234 -2.54464e-07 -1.12789e-07)
(0.000785826 6.69258e-08 -1.02344e-07)
(0.00104772 -1.53632e-07 1.77423e-07)
(0.000783802 -4.18585e-07 5.74157e-08)
(0.000784573 -2.86241e-07 6.37091e-08)
(0.0010458 -5.16833e-07 1.78146e-07)
(0.000783003 -2.78827e-07 5.76121e-08)
(0.000783622 1.17501e-07 8.07096e-08)
(0.00104445 -6.05694e-07 2.16585e-07)
(0.00078148 -7.22078e-08 4.5577e-08)
(0.000782283 -9.09124e-08 6.16018e-08)
(0.00104281 -1.69514e-07 1.74708e-07)
(0.000779972 4.93383e-08 8.02603e-08)
(0.000780719 -6.67946e-08 5.48462e-08)
(0.00104076 -8.07546e-08 2.08148e-07)
(0.000778173 4.52891e-08 7.53492e-08)
(0.000779136 -1.09355e-07 1.3411e-07)
(0.00103863 1.69384e-07 1.85677e-07)
(0.000776706 -1.39127e-07 5.67729e-08)
(0.000777511 1.62006e-07 6.31661e-08)
(0.00103641 -5.89768e-08 1.70778e-07)
(0.000775785 -2.33976e-07 9.03289e-08)
(0.000776098 1.2781e-07 6.18135e-08)
(0.00103473 -3.18876e-07 2.16443e-07)
(0.000775189 -1.52014e-07 1.21529e-07)
(0.0010335 -3.10592e-07 2.39e-07)
(-0.00993771 0.000947532 0.000320637)
(-0.00532137 -0.000413849 -0.000136405)
(-0.00866821 -0.00349938 0.000283042)
(-0.0277996 0.0259909 -4.13504e-05)
(-0.00314888 -0.00251106 0.00031086)
(-0.00781877 0.00614108 0.000805846)
(-0.00108446 -0.00622915 -0.000259698)
(0.000481507 0.0125173 -0.000670775)
(0.0122785 -0.0125152 -0.00103275)
(-0.00494039 0.0152088 0.00125594)
(-0.00456784 0.000288187 0.000844861)
(-0.0186999 0.0151949 0.00179263)
(-0.0119747 0.00322241 0.00104898)
(-0.0395701 0.0209373 -0.000972676)
(-0.0212439 0.0280402 -0.000619086)
(-0.0238774 0.0151969 0.000302606)
(-0.0364952 0.0293077 0.000406047)
(-0.0116005 0.0226059 -0.00174283)
(-0.0343626 0.0406436 -0.00206284)
(-0.00956156 0.033702 -0.00415969)
(0.0124253 0.00124326 -6.44972e-05)
(0.012132 0.01223 0.00068046)
(0.0129757 0.0128225 -9.05774e-05)
(0.00743662 0.00172475 0.000947407)
(-0.00594819 0.00190411 0.00343603)
(0.00924734 -0.0123571 -0.000250725)
(0.0134593 -0.0115407 -0.000156662)
(0.00488879 0.0140586 -0.000485934)
(-0.00568319 -0.00925396 1.83085e-05)
(-0.0352616 -0.00316485 0.000345639)
(0.0136478 -0.00223712 -0.00112034)
(-0.00608752 0.00971632 -9.97955e-05)
(0.00408839 0.0059497 -0.00538276)
(-0.00779935 0.00153061 -0.000178442)
(0.00787722 -0.00346723 0.000160433)
(-0.000398721 -0.00275452 0.000204157)
(0.0013086 -0.0103564 0.000163792)
(0.00365918 -0.00217739 0.00149709)
(0.0012237 -0.000274792 -7.45237e-07)
(0.000827627 -0.000279451 2.51047e-05)
(0.00074341 3.55341e-05 1.07973e-05)
(0.00126978 -0.000178652 2.51528e-06)
(0.00094217 -0.000333517 5.55304e-05)
(0.000316112 -5.48813e-05 2.12496e-05)
(0.000353416 1.40636e-05 1.22155e-06)
(0.00031618 -4.19787e-08 4.53757e-06)
(0.000494612 9.96361e-06 7.10218e-06)
(0.00024346 2.37615e-06 -5.85008e-07)
(0.000842934 8.00761e-06 -1.36485e-06)
(0.000596595 5.27614e-08 -1.2089e-06)
(0.00117255 -1.27482e-05 -1.24092e-06)
(0.00061546 7.48951e-06 -4.42109e-06)
(0.00060668 -4.75052e-06 -5.33527e-06)
(0.00103364 1.87271e-05 -5.11726e-06)
(0.00101111 -1.0607e-05 -5.73994e-06)
(0.000583903 -1.67402e-05 -4.29226e-06)
(0.000992801 -2.72711e-06 -6.85042e-07)
(0.000963892 -2.79836e-05 -5.06377e-06)
(0.00083095 1.66843e-05 -1.4186e-07)
(0.000845631 3.02893e-05 -5.45285e-07)
(0.00110577 3.18584e-05 1.01603e-07)
(0.000829381 7.21952e-06 4.90828e-08)
(0.000821987 7.6356e-06 -1.36825e-07)
(0.00110701 1.07984e-05 1.79541e-07)
(0.000828263 4.64347e-06 4.69365e-08)
(0.000826923 4.37461e-06 8.09906e-08)
(0.00110455 7.69907e-06 2.11668e-07)
(0.000827286 2.62619e-06 4.64972e-08)
(0.000826323 2.69121e-06 4.55737e-08)
(0.00110351 4.2445e-06 1.74307e-07)
(0.00082612 1.56281e-06 5.19456e-08)
(0.000826042 1.5858e-06 5.35892e-08)
(0.00110215 2.531e-06 1.83089e-07)
(0.000824821 9.53586e-07 5.5423e-08)
(0.000825124 9.64263e-07 5.09132e-08)
(0.00110048 1.51396e-06 1.86104e-07)
(0.00082388 5.65226e-07 5.19516e-08)
(0.000824059 3.74183e-07 5.32625e-08)
(0.00109903 9.59452e-07 1.85667e-07)
(0.000822525 3.37483e-07 6.93596e-08)
(0.000822886 1.64361e-07 4.50601e-08)
(0.00109749 5.0909e-07 2.00584e-07)
(0.00082086 1.79225e-07 4.01003e-08)
(0.000821481 1.4274e-07 5.78102e-08)
(0.00109553 3.603e-07 1.83316e-07)
(0.000818854 1.06625e-07 1.67721e-08)
(0.000819927 3.40539e-07 2.12603e-08)
(0.00109306 8.95293e-08 1.89586e-07)
(0.000817787 1.95356e-07 3.88043e-08)
(0.000818545 -1.46925e-07 3.91499e-08)
(0.00109099 1.7327e-07 1.86145e-07)
(0.000816337 1.98237e-07 4.01513e-08)
(0.000817117 -2.76205e-07 5.41227e-08)
(0.00108932 3.16561e-07 1.7928e-07)
(0.000815088 2.51493e-07 2.59375e-08)
(0.000815703 -1.03429e-08 4.94913e-08)
(0.00108754 1.85906e-07 1.79706e-07)
(0.000813239 2.85153e-07 -9.44984e-08)
(0.000814164 -1.8982e-07 2.65332e-08)
(0.00108555 4.75555e-07 1.08064e-07)
(0.000811486 1.48021e-07 -7.33947e-08)
(0.000812433 1.70969e-07 -6.80021e-08)
(0.00108297 3.1472e-07 2.16382e-07)
(0.000810169 2.14172e-08 3.83986e-08)
(0.000810966 -1.06106e-07 3.68695e-08)
(0.0010809 1.06427e-07 1.72935e-07)
(0.000808662 -3.50775e-08 4.64445e-08)
(0.000809472 -1.16746e-07 3.10228e-08)
(0.0010791 -4.26496e-08 1.76792e-07)
(0.000807213 -1.88486e-08 5.92263e-08)
(0.000807972 3.84741e-08 6.09515e-08)
(0.00107712 -3.29263e-08 1.84476e-07)
(0.000805563 -7.50836e-08 -4.25082e-08)
(0.000806421 -4.44705e-08 5.34882e-08)
(0.00107487 1.23075e-08 1.88699e-07)
(0.000804429 1.49214e-07 -5.99859e-08)
(0.000805237 3.32903e-07 -7.90845e-08)
(0.00107312 -1.42258e-07 8.23567e-08)
(0.000803255 4.76083e-07 1.10068e-07)
(0.000803938 7.5438e-07 3.24114e-08)
(0.00107174 6.25251e-07 9.11564e-08)
(0.000801677 5.3624e-07 1.2525e-07)
(0.000802249 4.07385e-07 1.39945e-07)
(0.00106968 7.48685e-07 1.7834e-07)
(0.000800716 5.19078e-07 2.3376e-08)
(0.000800918 5.8735e-07 4.61391e-08)
(0.00106822 7.78652e-07 1.23922e-07)
(0.00079845 3.80836e-07 -1.57992e-08)
(0.000799382 1.09323e-08 1.95123e-08)
(0.00106616 6.32383e-07 7.02064e-08)
(0.000796665 1.3195e-07 3.25368e-08)
(0.000797557 1.00731e-07 5.04196e-09)
(0.00106314 3.65922e-07 -3.34094e-08)
(0.000795676 5.47724e-08 7.32308e-08)
(0.000796214 4.40635e-07 8.63599e-08)
(0.00106134 -1.79201e-08 1.69004e-07)
(0.000794275 1.2115e-07 7.61609e-08)
(0.000794994 -1.08167e-07 4.83843e-08)
(0.00105985 1.57885e-07 1.78862e-07)
(0.000792758 5.72124e-08 7.7059e-08)
(0.000793488 7.42694e-09 6.73689e-08)
(0.00105785 1.53029e-07 1.72777e-07)
(0.000791281 -1.19015e-07 3.96041e-08)
(0.00079205 -1.07476e-07 4.90616e-08)
(0.00105586 1.39081e-08 1.95863e-07)
(0.000789597 -1.64754e-07 4.77126e-08)
(0.000790434 -3.41526e-07 1.91506e-08)
(0.00105381 -2.81017e-07 1.49545e-07)
(0.000787934 -3.21651e-08 4.97096e-08)
(0.000788802 -3.79008e-07 3.77146e-08)
(0.00105147 -1.24064e-07 2.38984e-07)
(0.000786463 5.53518e-08 4.03676e-08)
(0.000787382 7.66389e-08 3.90577e-08)
(0.00104936 3.17981e-08 1.58958e-07)
(0.000785028 2.44785e-07 7.41026e-08)
(0.000786061 4.8984e-07 4.91752e-08)
(0.00104742 1.35895e-07 1.44017e-07)
(0.000784338 3.99431e-07 8.69978e-08)
(0.000784764 -2.54409e-06 5.70361e-08)
(0.00104606 5.64622e-07 2.70615e-07)
(0.000783117 3.03796e-07 8.47051e-08)
(0.0007835 5.71563e-07 1.11773e-08)
(0.00104484 5.4686e-07 1.22496e-07)
(0.000781488 1.89816e-07 7.08731e-08)
(0.000782139 -2.22795e-08 -4.07277e-09)
(0.00104287 3.36703e-07 1.87201e-07)
(0.000779885 1.58025e-07 1.08671e-07)
(0.000780677 -1.63656e-08 4.78495e-08)
(0.00104082 2.67856e-07 1.86354e-07)
(0.000778436 2.67705e-07 1.21948e-07)
(0.000779272 5.57656e-09 1.12203e-07)
(0.00103874 2.42895e-07 1.67597e-07)
(0.000776828 3.41444e-07 6.82071e-08)
(0.000777601 4.14522e-07 5.98862e-08)
(0.00103659 5.0833e-07 1.71989e-07)
(0.000775367 2.28568e-07 9.29959e-08)
(0.000775955 2.32955e-07 5.22635e-08)
(0.00103447 3.75211e-07 1.69342e-07)
(0.000774903 -1.32001e-06 1.37367e-07)
(0.00103322 2.04252e-07 2.1438e-07)
(-0.00141455 -0.00537345 -0.00014633)
(-0.0006467 0.00218694 -6.10356e-05)
(-0.00397934 4.10865e-05 1.33427e-05)
(0.00163268 -0.00337204 -3.45578e-05)
(-0.00156972 -0.00699955 -9.27063e-05)
(-0.00199296 -0.00665678 4.50948e-05)
(-4.53185e-05 0.00457285 -0.000273891)
(0.0031985 0.00194903 1.23938e-05)
(0.00198298 0.00298262 9.21922e-05)
(0.00215266 0.00341495 -0.000142636)
(0.00190308 0.0101833 -0.000303034)
(-0.000402048 0.00483263 0.000277521)
(-0.00269991 -1.6451e-05 0.000614624)
(-0.000724223 0.00333973 -4.83855e-05)
(-0.00637503 0.00260451 0.000818791)
(-0.00426432 0.00371046 -0.000939868)
(0.00249437 9.5821e-05 -0.000191138)
(0.00261588 0.00609208 -0.000232118)
(-0.000371945 0.00351888 -0.000266958)
(-0.0012739 0.00925789 -0.000453067)
(-0.0066966 0.00791373 0.000258996)
(-0.00639441 0.00611175 -0.000366116)
(-0.00543265 0.0043817 3.60053e-05)
(-0.00222124 0.0107136 6.67384e-05)
(-0.000537789 0.0082379 -0.00026869)
(0.0100465 0.00305881 0.000107314)
(0.00433729 0.00169354 -0.000155457)
(0.00182288 0.00270005 -0.000107434)
(0.00477551 0.00407227 0.000508704)
(0.0129765 0.00792783 0.000143803)
(0.000477274 0.000911053 -3.67467e-06)
(0.000890936 0.000803372 -1.23745e-05)
(0.00129747 0.000824545 -4.14652e-05)
(0.0021852 0.000875606 -2.21365e-05)
(0.000509774 0.000796898 1.25125e-05)
(0.000909275 0.00175597 -7.93334e-06)
(0.000448974 0.00153303 2.98752e-05)
(0.00116147 0.00141349 7.4272e-06)
(0.00103277 0.000996907 -1.74436e-05)
(0.00141554 0.0016258 -4.71982e-05)
(0.00104347 0.00144111 7.61635e-06)
(0.00114804 0.000670811 2.61924e-05)
(0.00150409 0.00145398 -1.56441e-05)
(0.000938215 0.000498233 7.33489e-06)
(0.00144888 0.000345412 4.14536e-05)
(0.000496589 -0.000228272 4.61637e-05)
(0.000541594 -0.000155437 3.1158e-05)
(0.000662768 -0.000133425 7.51964e-05)
(0.000500588 -9.57265e-05 2.57166e-05)
(0.000476571 4.71502e-06 -4.19102e-07)
(0.000481507 -4.21093e-06 -3.06825e-06)
(0.000452276 1.953e-06 -1.27015e-07)
(0.000751552 -2.05567e-06 -5.23614e-07)
(0.000816792 1.28146e-05 -5.40383e-07)
(0.000868261 9.35639e-06 -1.07613e-06)
(0.00114685 2.8001e-05 -8.89662e-07)
(0.000593065 1.70261e-06 -3.74676e-06)
(0.000597453 6.90352e-06 -4.55543e-06)
(0.000977621 -7.54036e-06 -4.51844e-06)
(0.000987361 4.62469e-06 -5.70295e-06)
(0.000823158 3.60499e-06 -1.04988e-07)
(0.000810475 -7.70199e-07 -4.47336e-07)
(0.00108495 4.60222e-06 7.87627e-08)
(0.000824498 2.33614e-06 7.96393e-08)
(0.000825324 9.89757e-07 1.36477e-07)
(0.00110013 4.17496e-06 1.66227e-07)
(0.000825296 1.04941e-06 5.26631e-08)
(0.000824707 -3.11826e-07 1.42303e-07)
(0.00109973 1.56072e-06 1.86266e-07)
(0.000825102 6.89225e-07 5.25578e-08)
(0.000825588 -1.22933e-07 5.82437e-08)
(0.00110037 9.60931e-07 1.82726e-07)
(0.000824354 5.00814e-07 4.8752e-08)
(0.000824886 2.80296e-08 2.24175e-08)
(0.00109963 7.09381e-07 1.77194e-07)
(0.000823092 2.3455e-07 4.63736e-08)
(0.000823724 7.59194e-09 2.32191e-08)
(0.00109825 5.23222e-07 1.82244e-07)
(0.000821942 -6.85308e-08 3.35066e-08)
(0.000822507 -1.32572e-07 4.57833e-08)
(0.00109666 6.18898e-08 1.67965e-07)
(0.000820524 -2.46885e-07 3.8982e-08)
(0.000821258 1.55846e-07 3.94812e-08)
(0.00109488 -2.13907e-07 1.69733e-07)
(0.000819512 -3.04978e-07 4.36323e-08)
(0.000819854 -1.36193e-07 9.2939e-08)
(0.00109324 -3.80806e-07 1.68752e-07)
(0.000818004 -2.27753e-07 5.44635e-08)
(0.000818642 -3.27162e-07 5.71034e-08)
(0.00109161 -3.82441e-07 1.91299e-07)
(0.000816352 -1.75356e-07 6.34643e-08)
(0.000817183 -1.27708e-07 6.96382e-08)
(0.00108946 -2.03555e-07 1.811e-07)
(0.000814968 -2.26331e-07 5.00944e-08)
(0.000815641 -1.77904e-07 4.30346e-08)
(0.00108747 -2.57824e-07 1.80134e-07)
(0.000813196 -1.76378e-07 5.30597e-08)
(0.000814227 -3.0896e-07 1.3817e-07)
(0.00108534 -3.44154e-07 2.10572e-07)
(0.000811959 9.91672e-09 4.22287e-08)
(0.000812667 1.14475e-07 7.95011e-08)
(0.00108327 -1.51947e-07 1.59738e-07)
(0.000810288 1.71617e-07 2.94956e-08)
(0.000811168 6.61775e-08 5.69629e-08)
(0.00108139 1.29703e-07 1.81921e-07)
(0.000808715 2.93452e-07 4.55204e-08)
(0.000809623 2.11184e-08 4.84152e-08)
(0.00107921 2.88187e-07 1.75787e-07)
(0.000807268 4.24844e-07 5.52158e-08)
(0.000808135 8.79347e-08 6.33706e-08)
(0.00107715 4.73985e-07 1.71046e-07)
(0.000805876 6.5776e-07 1.69538e-08)
(0.000806709 7.10045e-07 5.79395e-08)
(0.00107523 6.72385e-07 1.16787e-07)
(0.00080501 6.89719e-07 1.32777e-08)
(0.000805274 1.12696e-06 7.26582e-09)
(0.00107384 1.16829e-06 6.77469e-08)
(0.000802827 4.72153e-07 6.2255e-08)
(0.000803662 3.81108e-07 2.36207e-08)
(0.00107179 7.93416e-07 2.66139e-07)
(0.000801439 4.59651e-07 6.08633e-08)
(0.00080223 3.58932e-07 8.37787e-08)
(0.00106933 6.02636e-07 1.73288e-07)
(0.00079977 2.55193e-07 4.22838e-08)
(0.00080066 -5.44191e-07 4.62556e-08)
(0.00106724 7.74661e-07 2.74899e-07)
(0.00079838 -3.37698e-08 4.0358e-08)
(0.000799019 -9.83315e-08 3.89612e-08)
(0.00106525 2.95507e-08 1.77883e-07)
(0.000796926 8.57804e-08 5.88396e-08)
(0.000797705 1.13332e-07 4.4016e-08)
(0.00106341 -5.4805e-08 1.74974e-07)
(0.000795716 1.41464e-07 6.15252e-08)
(0.000796283 -3.34047e-07 6.13641e-08)
(0.00106156 2.82576e-07 2.095e-07)
(0.000794157 2.35425e-08 3.95865e-08)
(0.000794846 1.09148e-08 4.51933e-08)
(0.00105979 7.8983e-08 1.76857e-07)
(0.000792786 -4.44938e-08 3.93772e-08)
(0.000793403 -5.92722e-08 -4.35031e-09)
(0.0010578 -2.85195e-08 1.7345e-07)
(0.000791272 -1.75083e-07 2.86174e-08)
(0.000791887 -8.12323e-08 4.95072e-08)
(0.00105593 -1.09434e-07 1.79718e-07)
(0.000789537 -2.71246e-07 9.14686e-09)
(0.000790315 -2.30012e-07 3.05761e-08)
(0.00105367 -3.9779e-07 1.93415e-07)
(0.000788282 -1.38792e-07 2.70623e-08)
(0.000788969 5.95305e-07 -5.70439e-08)
(0.00105162 -3.83242e-07 8.83095e-08)
(0.000786935 1.1326e-07 4.78622e-08)
(0.000787697 -2.59456e-08 6.99351e-08)
(0.00104993 -1.08333e-08 1.74143e-07)
(0.00078582 3.94821e-07 3.21063e-08)
(0.000786412 1.12622e-07 5.89938e-08)
(0.00104838 3.4233e-07 1.72897e-07)
(0.000783876 4.54152e-07 -1.87703e-08)
(0.000784836 -1.22385e-06 2.32828e-08)
(0.00104631 7.51938e-07 1.25292e-07)
(0.000782571 2.13027e-07 -7.75959e-08)
(0.000783197 -9.99855e-07 -1.02711e-07)
(0.00104416 4.93696e-07 2.76802e-07)
(0.00078137 6.72531e-08 -2.71122e-08)
(0.000781955 1.29041e-07 -1.82074e-08)
(0.00104246 1.12617e-07 1.42385e-07)
(0.00077995 1.2509e-07 5.13619e-08)
(0.000780749 1.32035e-07 4.53852e-08)
(0.00104063 9.32623e-08 1.62515e-07)
(0.00077865 2.40965e-07 5.01573e-08)
(0.000779416 -3.44001e-09 1.73343e-08)
(0.00103892 2.05521e-07 1.63077e-07)
(0.000776569 2.48045e-07 4.39448e-08)
(0.000777609 1.28596e-06 2.90299e-08)
(0.00103657 3.60721e-07 1.69964e-07)
(0.000775369 2.4352e-07 9.66085e-08)
(0.000775946 5.92956e-08 5.57507e-08)
(0.00103434 2.62047e-07 1.65841e-07)
(0.0007746 -1.34538e-06 9.9894e-08)
(0.00103277 3.76984e-07 1.90919e-07)
(-0.000524254 -0.000443651 -7.40136e-06)
(0.00258764 0.00228425 0.000187048)
(0.00098507 -0.00150904 0.000106894)
(-0.000454863 -0.00200282 -4.57897e-05)
(0.00129571 -0.00270623 -2.47801e-05)
(0.000870521 -0.00297857 -0.000286027)
(0.00100683 -0.00241854 -2.94303e-05)
(-0.00182188 -0.00218059 0.000153305)
(0.00120698 -0.00391501 3.13587e-05)
(-0.00823171 0.000399839 -0.000209524)
(0.00112865 0.0041243 4.82013e-05)
(0.0074048 0.0026492 0.000901533)
(0.00706483 -0.00149825 -0.00193583)
(-0.00637656 0.00282267 0.000474604)
(0.00293932 -3.17352e-05 0.00180658)
(0.0046257 0.00149222 -0.000133535)
(-0.00944069 0.000401651 -0.00081595)
(0.00465508 0.00343157 -0.000685289)
(0.0028432 -0.0021994 0.000151363)
(-0.00103796 0.00112716 0.000208433)
(0.00247511 -0.00560602 0.000287688)
(0.00232219 0.00103626 -0.000318887)
(0.000910924 0.000762324 -0.000315259)
(-0.00681091 0.000105118 -0.000792673)
(-0.00296303 0.00214353 -0.000270379)
(0.00458182 0.00329741 0.000212857)
(0.00956641 -0.000362755 0.000460788)
(0.00361496 0.00075946 4.3274e-05)
(0.012485 -0.0109733 -0.0014399)
(-0.00151773 -0.00169804 0.000208177)
(-0.00457895 -0.000886289 0.000149856)
(0.00945735 -0.00721621 -0.000317863)
(0.00360296 0.0132252 -0.000348318)
(0.0060924 0.00285266 7.28251e-05)
(0.00933505 0.00361243 -0.000216015)
(0.000686411 0.00861959 -0.00017278)
(-0.00389375 0.00174963 -2.61472e-06)
(-0.00200925 0.00101251 5.20122e-05)
(-0.00302701 0.00095961 9.61235e-06)
(-0.00317623 0.00087829 1.4102e-05)
(-0.00730324 0.00212835 0.000144119)
(-4.72668e-05 0.000362466 4.99302e-06)
(0.000771517 0.000981006 -3.5979e-05)
(0.000674041 0.000712932 -9.36269e-07)
(0.000133538 0.000755405 -4.56695e-05)
(-0.000241921 0.000351812 2.66148e-06)
(0.000515688 0.000441339 -1.25726e-05)
(-0.000721779 0.000788022 3.21409e-06)
(0.00050902 0.000980918 -2.36415e-05)
(0.000649316 0.000434805 6.18016e-06)
(0.000768169 0.00113219 3.33666e-05)
(0.000601619 0.000328359 -1.71965e-06)
(0.000719263 0.000457431 2.82504e-05)
(0.00143503 0.000406577 3.97083e-06)
(0.00155831 0.000644212 2.21322e-05)
(0.00150573 0.000424577 -7.00999e-05)
(0.0013591 0.000202529 2.27962e-05)
(0.000322735 4.15471e-06 -2.97975e-06)
(0.000474434 7.30239e-06 -3.53942e-06)
(0.000453245 6.9323e-06 -4.60553e-07)
(0.000769732 2.13331e-05 -1.26805e-06)
(0.000320039 1.78726e-05 -2.62621e-06)
(0.000590805 5.20993e-06 -3.20473e-06)
(0.000585269 3.96863e-05 -8.06951e-07)
(0.000455194 1.25079e-05 -4.63369e-07)
(0.000816829 -2.24806e-06 -9.83293e-07)
(0.000873167 -1.29798e-05 -1.22861e-06)
(0.00116774 -8.80377e-07 -9.86632e-07)
(0.000596556 4.86417e-07 -4.15583e-06)
(0.000592899 3.69295e-06 -5.03016e-06)
(0.000979964 1.39904e-07 -4.9786e-06)
(0.000976991 8.20711e-06 -6.07989e-06)
(0.000821929 -3.10434e-06 -2.06061e-07)