/*--------------------------------*- C++ -*----------------------------------*\
| =========                 |                                                 |
| \\      /  F ield         | OpenFOAM: The Open Source CFD Toolbox           |
|  \\    /   O peration     | Version:  5.0                                   |
|   \\  /    A nd           | Web:      www.OpenFOAM.org                      |
|    \\/     M anipulation  |                                                 |
\*---------------------------------------------------------------------------*/
FoamFile
{
    version     2.0;
    format      ascii;
    class       surfaceVectorField;
    location    "4.8";
    object      Uf_0;
}
// * * * * * * * * * * * * * * * * * * * * * * * * * * * * * * * * * * * * * //

dimensions      [0 1 -1 0 0 0 0];

internalField   nonuniform List<vector> 
27454
(
(-0.0274856 0.00564174 -0.000289846)
(-0.00356289 0.00674745 5.07521e-05)
(-0.0334748 -0.00155869 0.00107497)
(0.0134089 -0.00759097 -0.00139574)
(0.00368503 0.0138357 -0.00111774)
(-0.0175403 0.00438268 -0.00140589)
(-0.00559189 -0.0172487 -0.00365335)
(0.00812435 -0.0213526 0.017234)
(0.0020451 -0.00218217 0.0139675)
(-0.0084601 0.000941279 -0.0449856)
(0.0319803 -0.0252106 0.00331643)
(-0.00843848 0.0028782 -0.00108683)
(0.024619 -0.0158474 -0.00287766)
(0.00166855 -0.0149845 -0.00136728)
(-0.0191412 -0.0122874 0.00274139)
(-0.0234457 -0.00840644 0.000275808)
(-0.0107735 0.00377397 -0.000162472)
(-0.0166484 -0.00793985 -0.000276558)
(0.00333221 0.00260037 -0.000366538)
(-0.0052043 0.00374123 -0.00104215)
(0.0102921 0.0154843 -0.000184321)
(-0.00159949 0.0056645 -0.000572725)
(-0.006178 0.00335842 -0.000281279)
(-0.000363079 0.0016088 -0.000123527)
(4.92985e-05 0.0035982 -3.78029e-05)
(-0.00208271 0.00341966 -0.000761876)
(0.000661204 0.000349695 2.83267e-05)
(0.0013278 0.000329083 -1.14309e-05)
(0.00152199 0.000385626 -9.37071e-05)
(0.00148886 0.00012936 1.43121e-05)
(0.000331129 5.7314e-06 -2.49684e-06)
(0.000451523 6.14515e-06 -3.05925e-06)
(0.000466688 7.60731e-06 2.24383e-07)
(0.000798379 2.25887e-05 1.23488e-07)
(0.000307238 2.84895e-07 -1.9456e-06)
(0.000607478 9.42073e-06 -3.35504e-06)
(0.000555843 -3.21166e-06 -2.29101e-06)
(0.000824876 1.05461e-05 -9.19063e-07)
(0.000876215 3.41751e-06 -1.43305e-06)
(0.00116721 1.66716e-05 -1.10271e-06)
(0.000599681 4.30087e-06 -4.6326e-06)
(0.00059887 1.60446e-06 -5.02649e-06)
(0.00100445 8.78965e-06 -5.58262e-06)
(0.000994467 4.14831e-06 -6.28593e-06)
(0.000829424 8.69725e-06 -1.24234e-07)
(0.000817837 7.22038e-06 -4.61567e-07)
(0.00109069 1.45866e-05 8.83702e-08)
(0.000829951 6.12278e-06 1.33514e-07)
(0.000831219 5.25084e-06 1.74387e-07)
(0.00110966 1.0301e-05 2.05705e-07)
(0.000830021 4.15021e-06 2.21611e-08)
(0.000828913 4.11161e-06 4.08917e-08)
(0.00110618 6.98261e-06 1.74758e-07)
(0.000829487 2.83461e-06 2.84791e-08)
(0.000829116 2.85279e-06 2.3446e-08)
(0.00110647 4.62447e-06 1.90088e-07)
(0.000827969 1.94224e-06 5.65955e-08)
(0.0008281 1.79126e-06 5.5986e-08)
(0.00110473 3.26227e-06 2.11287e-07)
(0.000826422 1.18619e-06 3.63749e-08)
(0.000826759 1.07628e-06 4.99921e-08)
(0.0011025 2.11787e-06 1.87047e-07)
(0.000824718 7.02111e-07 3.80769e-08)
(0.000825374 1.94229e-06 4.41135e-08)
(0.00110029 1.17011e-06 1.53866e-07)
(0.000823358 5.02234e-07 5.24119e-08)
(0.000823987 4.26233e-07 5.09157e-08)
(0.00109821 7.79904e-07 1.81669e-07)
(0.00082157 3.45912e-07 6.00437e-08)
(0.00082242 4.01771e-07 7.08669e-08)
(0.0010961 5.89965e-07 1.4301e-07)
(0.000820297 2.32698e-07 9.31742e-08)
(0.000820902 -1.55469e-07 5.82636e-08)
(0.00109401 3.35733e-07 1.76782e-07)
(0.00081873 1.92415e-07 9.94366e-08)
(0.00081949 1.60767e-07 7.29192e-08)
(0.00109213 2.63978e-07 1.86832e-07)
(0.000817002 2.02981e-07 7.65368e-08)
(0.000817894 2.15593e-07 5.13483e-08)
(0.00108998 2.19483e-07 1.8189e-07)
(0.00081541 1.19303e-07 7.13506e-08)
(0.000816178 -3.15659e-07 6.17257e-08)
(0.00108771 3.30835e-07 2.0138e-07)
(0.000814139 -3.83397e-08 5.97815e-08)
(0.000814606 -6.2341e-07 1.55682e-07)
(0.00108575 4.6271e-08 2.04693e-07)
(0.000812607 6.18165e-08 4.91395e-08)
(0.000813443 -1.48808e-07 6.03684e-08)
(0.00108394 -7.94766e-08 1.84327e-07)
(0.000811074 2.7734e-07 6.07185e-08)
(0.000812039 -2.69114e-07 5.45417e-08)
(0.00108188 3.09456e-07 1.89684e-07)
(0.000809328 3.79799e-07 6.92546e-08)
(0.000810322 4.12519e-07 1.1891e-07)
(0.00107963 5.1708e-07 2.0294e-07)
(0.000808427 3.00717e-07 5.97736e-08)
(0.000808757 -8.98223e-07 4.17516e-08)
(0.00107789 5.70447e-07 1.87984e-07)
(0.000806907 2.42219e-07 1.10748e-07)
(0.000807376 8.6699e-08 4.95478e-08)
(0.00107647 2.53517e-07 1.86118e-07)
(0.000804614 7.30894e-08 1.0075e-07)
(0.000805568 6.46562e-07 9.9918e-08)
(0.00107374 3.81877e-07 6.24142e-08)
(0.000803219 -3.50738e-07 -8.70911e-09)
(0.000803738 -3.9537e-07 5.71012e-08)
(0.00107119 -2.28936e-07 1.91203e-07)
(0.000801774 -5.05179e-07 -4.36486e-08)
(0.000802499 1.89337e-06 4.22391e-08)
(0.00106946 -7.53658e-07 -1.62239e-09)
(0.000800152 -3.62941e-07 7.37287e-09)
(0.000801149 9.98061e-07 -1.04704e-08)
(0.00106729 -6.2332e-07 1.97263e-07)
(0.00079858 -7.4186e-08 3.24547e-08)
(0.00079973 3.10335e-07 1.23113e-07)
(0.00106513 -3.55686e-07 1.24106e-07)
(0.000797993 1.01466e-07 3.14051e-08)
(0.000798455 8.07888e-07 5.67362e-08)
(0.00106389 1.55688e-07 2.94845e-08)
(0.000796261 6.33913e-08 5.54069e-08)
(0.000796981 2.46351e-07 4.77598e-08)
(0.00106237 1.30379e-07 1.78682e-07)
(0.00079482 8.29683e-08 5.34762e-08)
(0.000795451 2.52272e-07 5.16284e-08)
(0.00106015 8.59425e-08 1.6329e-07)
(0.000792884 1.40602e-07 3.99512e-08)
(0.000793916 2.10747e-07 4.40037e-08)
(0.00105782 1.79889e-07 2.19473e-07)
(0.000791511 2.68588e-07 1.43073e-08)
(0.000792342 1.43377e-07 4.59178e-08)
(0.00105551 2.37643e-07 1.66102e-07)
(0.000789892 4.32012e-07 3.33519e-08)
(0.000790875 3.38804e-07 1.31652e-08)
(0.00105364 5.46806e-07 1.87887e-07)
(0.000789127 2.96776e-07 5.26231e-08)
(0.000789444 -1.19854e-06 3.90756e-08)
(0.00105217 6.39318e-07 2.01406e-07)
(0.000787575 5.97529e-08 4.31255e-08)
(0.000788029 1.62837e-07 3.8441e-08)
(0.00105052 1.50313e-07 1.76425e-07)
(0.000786248 -1.4611e-07 4.22616e-08)
(0.00078654 -6.99115e-08 5.76015e-08)
(0.00104852 2.45333e-08 1.60797e-07)
(0.000784557 -2.27238e-07 1.30057e-07)
(0.000785258 1.46302e-06 4.88934e-08)
(0.00104672 -3.91915e-07 8.16117e-08)
(0.000783094 -1.26123e-07 1.56638e-07)
(0.000783942 -5.21075e-07 1.03187e-07)
(0.00104448 -2.05775e-07 2.04528e-07)
(0.000781574 -1.23048e-07 4.56545e-08)
(0.000782404 1.75021e-07 7.47359e-08)
(0.00104246 -1.51398e-07 1.565e-07)
(0.000780257 -2.02036e-07 3.54822e-08)
(0.000780878 2.18066e-08 3.37164e-08)
(0.00104065 -2.11347e-07 1.52093e-07)
(0.000778843 -3.93632e-07 1.3164e-07)
(0.000779518 -1.1807e-07 6.11249e-08)
(0.00103874 -3.33295e-07 1.74585e-07)
(0.000777352 -4.79825e-07 1.17717e-07)
(0.000778188 -3.13817e-07 1.26495e-07)
(0.00103691 -6.72042e-07 1.66275e-07)
(0.00077581 -3.40604e-07 5.63781e-08)
(0.000776577 -2.71224e-07 -2.56364e-08)
(0.00103481 -5.71375e-07 1.62248e-07)
(0.000775204 -4.73717e-07 5.11293e-08)
(0.00103254 -3.46172e-07 2.70177e-07)
(-0.011583 -0.0160461 0.00108507)
(-0.00848822 -0.0090573 0.000458464)
(0.00650596 -0.0170495 0.000986465)
(0.00944245 0.00268101 -2.78856e-05)
(-0.00283518 0.00703481 0.00092294)
(0.0123578 0.00177316 -0.000394733)
(-0.00553076 0.00850929 0.00252224)
(-0.00399902 -0.0124351 -0.000148728)
(0.00244698 -0.0105242 0.000776015)
(0.0141981 -0.0157025 -0.000845381)
(-0.00160383 -0.00119849 0.000286756)
(-0.00271223 -0.0217905 0.000600677)
(-0.00368848 -0.0221466 0.000258492)
(-5.81047e-05 -0.0131376 0.000659766)
(-0.00545867 0.00825386 0.000369792)
(0.0127565 -0.0107665 0.000551486)
(0.00846205 -0.0108837 0.00137229)
(0.00046221 -0.00367818 0.000142104)
(0.00930991 -0.000609264 0.00115842)
(0.0006749 -0.00718009 0.000108761)
(0.00109232 -0.000232417 -4.18971e-05)
(0.00140505 -0.0051581 -0.000125273)
(-0.0079163 0.000929761 -0.00119046)
(0.0109121 0.0101706 -0.00116818)
(0.013486 0.00386503 0.00107049)
(-0.00446579 -0.0173651 -0.00156023)
(-0.00609503 0.00453206 0.000642788)
(-0.00346326 -0.00399168 9.53963e-05)
(-0.00278918 0.00241487 5.07108e-05)
(-0.0106104 -0.0149751 -0.000354466)
(0.00384611 -0.0165613 -0.00103732)
(0.00439721 -0.00784316 -0.000176045)
(0.00425713 -0.00432394 1.5988e-05)
(0.00655838 -0.0130407 -0.000763594)
(0.00141481 -0.000569641 6.8648e-05)
(0.00160613 -3.49234e-05 0.000148045)
(0.00147571 5.69458e-05 0.000132655)
(0.00130557 -0.000728969 6.09502e-06)
(0.00126928 -0.00022337 7.01005e-05)
(0.000326739 -7.10235e-06 -2.45705e-06)
(0.000477275 -8.14119e-06 -3.13734e-06)
(0.000454592 -1.4354e-05 -6.56814e-07)
(0.000739589 -2.06385e-05 -1.08919e-06)
(0.00031006 -3.88668e-06 -1.2304e-06)
(0.000608027 -6.43385e-06 -7.0838e-07)
(0.000573889 1.43091e-06 3.5639e-06)
(0.000451214 -2.54238e-06 -4.31505e-07)
(0.000828646 3.07264e-06 -9.75875e-07)
(0.00087234 -9.85649e-06 -1.88206e-06)
(0.001172 2.06297e-06 -1.12912e-06)
(0.000596453 -6.9043e-07 -3.65548e-06)
(0.000612241 4.6046e-06 -4.9669e-06)
(0.000985176 3.73683e-06 -4.35199e-06)
(0.00102213 1.54302e-05 -6.25657e-06)
(0.000828481 5.47888e-06 -1.63154e-07)
(0.000820718 6.83908e-06 -3.57726e-07)
(0.00109144 1.06392e-05 8.36924e-08)
(0.000828727 3.82628e-06 8.18086e-08)
(0.000829118 2.65391e-06 1.0432e-07)
(0.00110729 6.57617e-06 2.01788e-07)
(0.000828493 2.91073e-06 4.21822e-08)
(0.000827746 2.39733e-06 3.7362e-08)
(0.00110415 5.23981e-06 1.81911e-07)
(0.000827898 1.87329e-06 5.09424e-08)
(0.000827803 1.49708e-06 5.21121e-08)
(0.00110407 3.51679e-06 1.88424e-07)
(0.000826958 1.13126e-06 4.93845e-08)
(0.000827163 9.395e-07 5.09294e-08)
(0.00110286 2.0945e-06 1.83492e-07)
(0.000825725 6.66988e-07 5.77325e-08)
(0.000826173 5.98774e-07 5.28702e-08)
(0.00110135 1.30851e-06 1.83178e-07)
(0.000824655 4.54609e-07 5.69501e-08)
(0.000825105 6.60942e-07 6.05989e-08)
(0.00109976 7.22163e-07 2.25092e-07)
(0.00082317 3.72656e-07 6.93643e-08)
(0.000823883 3.68104e-07 5.51083e-09)
(0.00109807 6.42996e-07 1.77156e-07)
(0.000821583 3.95139e-07 6.90909e-08)
(0.000822446 -6.42371e-07 5.91906e-08)
(0.00109597 4.35706e-07 2.54304e-07)
(0.000820218 3.86473e-07 3.8004e-08)
(0.00082089 -4.10602e-07 1.00565e-07)
(0.00109397 6.61419e-07 1.81047e-07)
(0.000818703 2.50814e-07 2.48378e-08)
(0.000819319 7.59927e-08 3.5626e-08)
(0.00109203 3.99034e-07 1.82558e-07)
(0.000817034 2.39964e-07 3.65338e-08)
(0.000817879 2.3961e-07 2.79711e-08)
(0.00108998 3.23737e-07 1.88634e-07)
(0.00081529 4.02196e-07 1.46027e-07)
(0.000816379 2.38626e-07 4.96034e-08)
(0.00108768 3.61117e-07 1.58771e-07)
(0.000813835 5.78133e-07 1.563e-07)
(0.000814824 6.95737e-07 1.42747e-07)
(0.00108539 7.33886e-07 8.05016e-08)
(0.000813055 4.33439e-07 6.57725e-08)
(0.00081326 -1.62417e-06 4.9828e-08)
(0.00108408 8.30739e-07 2.16758e-07)
(0.000811237 1.70791e-07 1.12713e-07)
(0.000811709 1.52951e-07 5.31693e-08)
(0.00108239 3.6062e-07 1.7529e-07)
(0.00080974 1.20824e-07 9.14315e-08)
(0.000810258 1.69382e-07 9.96216e-08)
(0.00108003 1.51901e-07 1.94007e-07)
(0.000807663 1.68129e-08 3.15234e-08)
(0.000808627 -7.55019e-08 3.71098e-08)
(0.00107759 2.13522e-07 1.70373e-07)
(0.000806244 -4.26659e-07 3.87023e-08)
(0.000806822 5.22784e-08 5.60329e-08)
(0.00107536 -1.55566e-07 1.73002e-07)
(0.000804497 -5.78982e-07 5.62827e-08)
(0.000805379 1.74591e-06 7.16466e-08)
(0.00107325 -9.90376e-07 1.22323e-07)
(0.000802941 -4.13539e-07 1.08054e-07)
(0.000803947 -2.08904e-07 5.09842e-08)
(0.00107092 -5.64145e-07 1.69903e-07)
(0.000801945 -2.95456e-07 7.54339e-08)
(0.000802648 5.14661e-08 1.14263e-07)
(0.00106936 -5.28553e-07 2.64154e-07)
(0.00080076 7.86101e-08 1.05227e-07)
(0.000801617 -1.30517e-07 3.8215e-08)
(0.0010679 -2.40348e-07 2.30804e-07)
(0.000799539 5.38772e-07 1.47415e-07)
(0.000800303 5.19886e-07 2.55612e-07)
(0.0010663 5.15117e-07 1.39173e-07)
(0.00079752 5.25744e-07 7.30937e-08)
(0.000798436 5.49779e-07 1.06957e-07)
(0.0010642 9.89535e-07 2.43547e-07)
(0.000796051 2.67685e-07 4.398e-08)
(0.000796656 2.59495e-07 6.24537e-08)
(0.00106179 4.14391e-07 1.75565e-07)
(0.000794695 1.53481e-07 4.21582e-08)
(0.000795308 3.06617e-08 4.70591e-08)
(0.00105986 2.73539e-07 1.82279e-07)
(0.000793292 1.46531e-07 4.99696e-08)
(0.000793907 1.42175e-07 4.98541e-08)
(0.00105805 1.23082e-07 1.75772e-07)
(0.000791739 2.74002e-07 4.47859e-08)
(0.000792499 1.21215e-07 5.76833e-08)
(0.00105617 2.97263e-07 1.85967e-07)
(0.000790364 4.11009e-07 1.88809e-08)
(0.000791045 3.71609e-07 3.91696e-08)
(0.00105413 5.09405e-07 1.66135e-07)
(0.000788361 3.32476e-07 2.48936e-08)
(0.000789344 -2.8552e-07 5.12053e-08)
(0.0010518 6.50594e-07 1.59403e-07)
(0.000787034 7.73837e-08 5.2911e-08)
(0.000787709 -1.88021e-08 5.28106e-08)
(0.00104964 2.37294e-07 1.77477e-07)
(0.000785459 -1.96329e-07 6.42359e-08)
(0.000786199 6.52351e-08 5.57545e-08)
(0.00104766 -5.40928e-08 1.76978e-07)
(0.000784705 -3.73864e-07 2.20061e-08)
(0.000785038 3.05831e-07 1.01488e-07)
(0.00104608 -4.76806e-07 1.96339e-07)
(0.000783297 -2.83721e-07 2.12937e-08)
(0.000784056 -5.61712e-08 3.49103e-08)
(0.0010448 -5.44064e-07 1.38245e-07)
(0.000781674 -1.39257e-07 6.28103e-08)
(0.000782586 -1.47456e-07 5.96382e-08)
(0.00104273 -2.55239e-07 2.14718e-07)
(0.000780041 6.67029e-09 5.93508e-08)
(0.000781062 1.21977e-07 7.96484e-08)
(0.0010405 -1.60488e-07 1.85178e-07)
(0.000778957 2.83797e-08 5.59598e-08)
(0.000779546 -8.46469e-07 3.70413e-08)
(0.00103875 1.26998e-07 1.95592e-07)
(0.000777455 -1.18208e-07 -1.68116e-08)
(0.000778006 -3.28258e-07 6.3171e-08)
(0.001037 -8.21189e-08 1.81567e-07)
(0.000775811 -2.02569e-07 -3.09086e-08)
(0.000776474 4.66182e-09 -1.21265e-08)
(0.00103479 -2.55104e-07 1.73428e-07)
(0.000775456 2.17714e-07 4.73237e-08)
(0.00103338 -3.03913e-07 7.73395e-08)
(-0.00984412 0.00972662 -0.000700031)
(-0.0052206 -0.000620418 -0.000136291)
(-0.0081839 -0.00314494 0.000327047)
(-0.0149281 0.0125933 0.00076714)
(-0.00544762 0.00973114 -1.38962e-05)
(-0.0128944 0.00256813 -0.000531396)
(-0.00107023 -0.00454486 -0.000684514)
(0.00766238 0.0117718 -0.000246306)
(0.0014022 -0.0117122 -0.00272033)
(-0.00926571 -0.0103581 0.00287474)
(-0.00720791 0.00258811 0.000700758)
(-0.0180798 -0.0148186 0.00406308)
(-0.0167047 0.00695664 -0.000331754)
(-0.0500832 0.0320242 -0.00153951)
(-0.0231161 0.0301628 -0.000125582)
(-0.0273523 0.0144003 0.00072427)
(-0.0396783 0.026692 0.0020727)
(-0.0148351 0.0330664 -0.00235561)
(-0.0359704 0.0448198 -0.00276144)
(-0.0103538 0.0306893 -0.00487115)
(0.0128166 0.000684649 -0.000244151)
(0.0125047 0.0120635 0.000414266)
(0.0128349 0.0121671 -5.71653e-05)
(0.0112963 0.0018486 0.00110494)
(-0.00325563 0.00260625 0.00439405)
(0.00843266 -0.0138576 -0.000716686)
(0.0150082 -0.0162911 -0.00030474)
(0.00361248 0.015071 -0.000481886)
(0.00936945 -0.0316008 -0.00205195)
(-0.0534153 -0.00315407 -0.00144062)
(0.0673469 -0.00097885 -0.000491219)
(0.000800969 0.0310603 -0.00168209)
(0.0171449 0.00326057 -0.0143544)
(-0.00991982 6.72717e-05 -2.86076e-05)
(0.00955604 -0.00187644 0.00019111)
(-0.000162484 -0.00266809 0.000187818)
(-0.0030737 -0.0105013 -1.25908e-05)
(0.00591073 -0.00246156 0.00152977)
(0.00111608 -0.000286585 -8.05149e-07)
(0.000674333 -0.000326685 2.54793e-05)
(0.000558634 1.27467e-05 1.26549e-05)
(0.00113506 -0.000211214 2.69242e-06)
(0.00081288 -0.000374277 5.51298e-05)
(0.000298538 -6.38665e-05 2.15199e-05)
(0.000331761 7.09793e-06 1.34517e-06)
(0.000300338 -1.20278e-05 4.54804e-06)
(0.000464755 -2.765e-06 7.21197e-06)
(0.000228597 -5.72176e-06 -4.48213e-07)
(0.000832505 -8.74047e-06 -1.26441e-06)
(0.000618592 -2.0609e-05 -1.54953e-06)
(0.00115274 -3.34535e-05 -1.2191e-06)
(0.000597723 -1.05378e-05 -4.18541e-06)
(0.000596562 -2.79747e-05 -4.98751e-06)
(0.00100252 -7.42808e-06 -4.87709e-06)
(0.000993054 -4.72468e-05 -5.53978e-06)
(0.000607909 -3.38242e-05 -4.19728e-06)
(0.000983752 -3.38289e-05 -1.72105e-06)
(0.000959621 -5.11114e-05 -4.69732e-06)
(0.000826274 5.7477e-06 -9.04038e-08)
(0.000842498 1.36401e-05 -4.68738e-07)
(0.00109596 1.44648e-05 1.10309e-07)
(0.000827267 1.38741e-06 5.98953e-08)
(0.000823642 -6.74504e-07 -8.01714e-08)
(0.00110281 2.63228e-06 1.86716e-07)
(0.000827287 1.08958e-06 4.72871e-08)
(0.000827356 3.59765e-07 6.8852e-08)
(0.0011023 2.61358e-06 1.8158e-07)
(0.000827142 5.48724e-07 5.20996e-08)
(0.000827115 -3.1523e-07 4.99776e-08)
(0.00110249 1.31145e-06 1.80527e-07)
(0.000826474 3.32385e-07 5.44145e-08)
(0.000826885 -2.58193e-07 5.52708e-08)
(0.00110194 8.3189e-07 1.83669e-07)
(0.000825491 2.19504e-07 5.5734e-08)
(0.000826027 -1.99521e-07 5.29784e-08)
(0.00110077 4.98295e-07 1.83791e-07)
(0.000824472 1.3991e-07 9.17743e-09)
(0.000825002 -9.62973e-08 5.43156e-08)
(0.00109945 3.70492e-07 1.84805e-07)
(0.000823154 7.25117e-08 -4.68011e-09)
(0.000823797 -8.53213e-08 8.44999e-09)
(0.00109785 1.84802e-07 1.90076e-07)
(0.000821815 5.9153e-08 9.06511e-08)
(0.000822428 -6.06784e-07 3.13998e-08)
(0.00109612 1.29828e-07 1.58382e-07)
(0.000819932 7.34746e-08 9.82076e-08)
(0.000820907 -1.37056e-06 7.43896e-08)
(0.00109396 9.79125e-08 2.74502e-07)
(0.000818476 1.03698e-07 3.87618e-08)
(0.000819356 -4.6951e-08 3.55506e-08)
(0.00109171 1.3357e-07 1.8001e-07)
(0.000817263 1.19322e-07 4.10338e-08)
(0.000817898 -1.28947e-07 5.50859e-08)
(0.00108993 1.70938e-07 1.76324e-07)
(0.000815893 2.18658e-07 4.6293e-08)
(0.000816502 6.73967e-08 4.96003e-08)
(0.00108821 1.68657e-07 1.76655e-07)
(0.000814288 3.60619e-07 3.63047e-08)
(0.000815 -2.40207e-07 1.33461e-08)
(0.00108633 4.19678e-07 2.50699e-07)
(0.000811861 2.69525e-07 3.72238e-08)
(0.000813144 1.64346e-07 4.41432e-08)
(0.00108347 5.46102e-07 1.32678e-07)
(0.000810664 8.44974e-08 4.00634e-08)
(0.000811476 -1.83314e-07 3.71196e-08)
(0.00108103 1.63601e-07 1.73926e-07)
(0.000809326 -5.37725e-08 4.53197e-08)
(0.000810085 -1.04253e-07 3.28477e-08)
(0.00107944 4.38647e-08 1.822e-07)
(0.000807753 -6.54301e-08 6.16133e-08)
(0.000808612 5.663e-08 6.14202e-08)
(0.0010775 -1.65189e-07 1.74549e-07)
(0.000805795 9.92966e-08 8.89722e-08)
(0.000807028 5.18698e-08 7.50002e-08)
(0.00107497 3.86565e-08 2.18055e-07)
(0.000804986 3.64296e-07 6.63546e-08)
(0.000805709 -1.123e-06 8.77516e-08)
(0.00107324 2.41032e-07 3.19258e-07)
(0.000803408 6.64963e-07 5.71729e-08)
(0.00080432 -1.10089e-06 2.1557e-08)
(0.00107178 7.42335e-07 2.4805e-07)
(0.000802442 7.43792e-07 7.70677e-08)
(0.000802744 -9.8654e-07 4.87504e-08)
(0.00106987 1.05236e-06 2.04708e-07)
(0.000801151 5.48873e-07 1.88531e-07)
(0.00080137 -1.80973e-06 1.27034e-09)
(0.00106859 9.3806e-07 2.79197e-07)
(0.000799474 2.81973e-07 2.15201e-07)
(0.000799968 4.07134e-07 1.81644e-07)
(0.00106666 5.34387e-07 2.02627e-07)
(0.000797289 1.38145e-07 9.63313e-08)
(0.000798256 9.83496e-08 8.56495e-08)
(0.00106376 2.38379e-07 2.72015e-07)
(0.000795933 1.38149e-07 6.55375e-08)
(0.000796656 7.03414e-08 6.42077e-08)
(0.00106148 1.32309e-07 1.79801e-07)
(0.000794538 1.58271e-07 5.47541e-08)
(0.000795333 -8.22839e-08 4.77384e-08)
(0.00105978 2.00365e-07 1.78078e-07)
(0.000793118 1.25453e-07 5.75653e-08)
(0.000793865 1.21766e-07 5.12347e-08)
(0.00105785 1.9255e-07 1.73748e-07)
(0.000791749 1.37513e-07 5.20726e-08)
(0.000792514 7.45393e-08 5.14253e-08)
(0.00105599 1.25315e-07 1.71296e-07)
(0.000790192 7.13741e-08 7.14902e-08)
(0.000790962 5.57772e-07 1.62206e-08)
(0.00105408 1.95644e-07 1.71447e-07)
(0.000788559 2.59763e-09 7.91218e-08)
(0.000789258 8.78006e-07 3.14367e-08)
(0.00105183 -5.19291e-08 1.08141e-07)
(0.000786962 4.89879e-08 5.56532e-08)
(0.000787767 4.10845e-07 5.90752e-08)
(0.00104964 4.32993e-08 1.57713e-07)
(0.000785495 2.30216e-07 9.29925e-08)
(0.000786424 -1.10056e-07 4.67988e-08)
(0.00104762 9.82799e-08 1.89639e-07)
(0.000784586 3.47031e-07 1.14413e-07)
(0.000785182 5.11723e-07 1.00481e-07)
(0.00104611 5.56345e-07 1.11813e-07)
(0.000783395 2.52747e-07 7.32473e-08)
(0.000783936 -1.10979e-06 3.50984e-08)
(0.00104476 4.36788e-07 2.28563e-07)
(0.000781955 2.26029e-07 7.64702e-08)
(0.000782551 1.53091e-08 4.33677e-08)
(0.00104294 3.36946e-07 1.62915e-07)
(0.000780551 3.66971e-07 5.73519e-08)
(0.000781236 -1.54023e-08 7.04891e-08)
(0.00104113 3.5471e-07 1.81653e-07)
(0.000778561 3.56272e-07 4.42446e-08)
(0.00077953 2.38445e-07 2.32794e-08)
(0.00103884 6.41026e-07 1.45967e-07)
(0.000777085 1.72416e-07 6.78791e-08)
(0.000777775 -6.01049e-08 5.98707e-08)
(0.00103643 3.1782e-07 1.5858e-07)
(0.000775844 1.07744e-07 6.60878e-08)
(0.000776392 -3.01868e-07 5.24649e-08)
(0.00103454 1.76618e-07 1.79149e-07)
(0.000775322 1.47357e-07 6.21876e-08)
(0.00103323 1.22721e-07 1.61569e-07)
(-0.0020568 -0.00581217 6.66232e-06)
(-0.000753341 0.00257303 -5.64584e-05)
(-0.00414718 -4.58712e-05 2.73867e-05)
(0.00248088 -0.0036797 0.000116373)
(-0.00137184 -0.00611103 5.76429e-05)
(-0.00178286 -0.00742187 0.000679502)
(-5.66857e-05 0.00474232 -0.000287838)
(0.00372523 0.00230473 3.77935e-05)
(0.00221318 0.00339338 0.000117222)
(0.00162449 0.00439147 -0.000222393)
(0.00141519 0.0102545 -0.000172287)
(-0.00110084 0.00601525 6.19327e-05)
(-0.0036492 -0.000914979 0.000597296)
(-0.000960471 0.00299932 -7.44166e-05)
(-0.00752262 0.00192076 0.000429684)
(-0.00119929 0.00215169 -0.000728283)
(0.00260291 -0.000150627 -0.000325138)
(0.00189001 0.00645229 -0.000278682)
(-0.000540788 0.00344346 -0.000341145)
(-0.00167045 0.00931796 -0.000404651)
(-0.00606482 0.0118274 0.000329409)
(-0.00637519 0.005592 -0.000242975)
(-0.00686286 0.00356146 0.00012874)
(-0.00217158 0.00938135 -5.34808e-05)
(0.000825712 0.00786431 0.000205745)
(0.011694 0.0030681 9.36019e-05)
(0.00575806 0.00173188 -0.000155124)
(0.00236984 0.00235351 -8.40165e-05)
(0.00582782 0.00387447 0.000510394)
(0.0143428 0.0074774 0.000231316)
(0.000511298 0.000679832 -4.2703e-06)
(0.000872818 0.000602418 -1.29036e-05)
(0.00136007 0.000664377 -4.11826e-05)
(0.00221794 0.000682651 -2.17943e-05)
(0.000564955 0.000602173 1.22819e-05)
(0.000955171 0.00150744 -9.45278e-06)
(0.000526919 0.00131731 2.94996e-05)
(0.00114233 0.00117484 8.7635e-06)
(0.00100549 0.000805077 -1.71221e-05)
(0.00138674 0.00141647 -4.67049e-05)
(0.00105833 0.00128535 4.35172e-06)
(0.00114522 0.000515059 2.66216e-05)
(0.00151033 0.00129346 -1.67567e-05)
(0.000956644 0.000356366 6.87461e-06)
(0.00146653 0.000272122 4.08397e-05)
(0.00049915 -0.000255738 4.64016e-05)
(0.000551752 -0.000187061 3.2024e-05)
(0.000672694 -0.000181053 7.63349e-05)
(0.000508088 -0.000121356 2.59914e-05)
(0.000495427 -1.93051e-05 -8.14504e-07)
(0.000520436 -2.20578e-05 -3.3034e-06)
(0.000498185 -1.79439e-05 -6.03952e-07)
(0.000768843 -2.93296e-05 -2.27824e-06)
(0.00082169 2.32517e-06 -4.58633e-07)
(0.000874836 -9.55213e-07 -1.0528e-06)
(0.00114471 1.27987e-05 -3.13947e-07)
(0.000622104 -1.35459e-05 -3.6677e-06)
(0.000631931 -6.49271e-06 -4.47223e-06)
(0.000977575 -2.94733e-05 -4.16785e-06)
(0.000991088 -1.57833e-05 -5.49049e-06)
(0.000826494 -2.63044e-06 -7.12633e-08)
(0.000817462 -7.39887e-06 -3.77473e-07)
(0.00109239 -4.22894e-06 9.11634e-08)
(0.000826844 -1.4204e-06 7.15487e-08)
(0.00082886 -2.24608e-06 1.29887e-07)
(0.00110244 -1.21974e-06 1.91562e-07)
(0.000827072 -1.16658e-06 5.31471e-08)
(0.000827427 -2.6355e-06 6.97171e-08)
(0.00110181 -1.59085e-06 1.82873e-07)
(0.000826478 -6.66025e-07 5.38355e-08)
(0.000827508 -1.55949e-06 5.8686e-08)
(0.00110182 -9.09927e-07 1.84259e-07)
(0.000825549 -3.52335e-07 5.15596e-08)
(0.000826417 -1.0106e-06 5.07816e-08)
(0.00110076 -4.78035e-07 1.80095e-07)
(0.000824382 -2.18619e-07 5.3603e-08)
(0.000825168 -6.3124e-07 5.38657e-08)
(0.00109936 -2.07219e-07 1.8233e-07)
(0.000823089 -1.81387e-07 4.45225e-08)
(0.000823842 -5.5878e-07 5.13329e-08)
(0.00109776 -2.09233e-07 1.89384e-07)
(0.000821575 -1.79065e-07 1.51245e-08)
(0.00082243 -1.85113e-08 4.16606e-08)
(0.00109586 -1.54919e-07 1.35256e-07)
(0.000820296 -1.66697e-07 1.17451e-08)
(0.000820922 -4.43899e-07 3.59875e-08)
(0.00109397 -2.44626e-07 9.18272e-08)
(0.000818732 -9.22966e-08 5.18685e-08)
(0.000819449 -7.39018e-08 8.27769e-10)
(0.00109212 -1.7614e-07 1.82703e-07)
(0.000817141 -6.96166e-08 6.36542e-08)
(0.000817927 -1.03592e-07 6.90566e-08)
(0.00109002 -7.88476e-08 1.81778e-07)
(0.000815655 -1.60225e-07 1.6665e-08)
(0.000816389 -5.0188e-08 3.51177e-08)
(0.00108799 -1.2189e-07 1.82948e-07)
(0.00081396 -2.81778e-07 2.11749e-08)
(0.000814849 3.72804e-07 2.99781e-08)
(0.00108586 -3.20457e-07 1.50658e-07)
(0.000812595 -1.5047e-07 4.40413e-08)
(0.000813309 -1.45492e-08 7.96032e-08)
(0.00108376 -4.30479e-07 1.77213e-07)
(0.000810897 1.06653e-07 2.99053e-08)
(0.000811798 -5.05738e-08 1.08454e-07)
(0.00108176 3.04719e-08 1.85047e-07)
(0.000809384 2.2809e-07 4.89392e-08)
(0.000810236 -7.38367e-08 4.84267e-08)
(0.00107962 2.38954e-07 1.76189e-07)
(0.000807945 3.05562e-07 7.48028e-08)
(0.000808707 -9.76864e-08 6.73035e-08)
(0.00107758 3.69587e-07 1.82945e-07)
(0.000806831 6.24611e-07 7.37755e-08)
(0.000807424 -5.6719e-07 5.71122e-08)
(0.00107587 4.96203e-07 1.8738e-07)
(0.000805164 7.97429e-07 4.29749e-08)
(0.000805921 -1.9956e-06 3.79085e-08)
(0.00107413 1.25337e-06 2.54227e-07)
(0.00080354 7.38691e-07 1.31259e-08)
(0.000804243 3.3535e-08 3.33149e-08)
(0.00107193 9.46078e-07 1.09067e-07)
(0.000801756 7.46878e-07 -2.70321e-08)
(0.00080275 -2.99597e-07 -2.88948e-08)
(0.0010696 1.06641e-06 1.5496e-07)
(0.000800093 4.49949e-07 -5.67349e-09)
(0.000800997 1.98809e-07 -1.19446e-08)
(0.00106724 9.73828e-07 5.07747e-08)
(0.000798938 5.60338e-08 5.21226e-08)
(0.000799474 -5.61962e-08 5.50991e-08)
(0.00106542 2.6827e-07 1.81015e-07)
(0.000797439 -1.33723e-08 5.35327e-08)
(0.000798168 -3.94172e-08 5.25438e-08)
(0.0010637 -1.04024e-07 1.88815e-07)
(0.000796116 5.16742e-08 4.64136e-08)
(0.000796737 8.93486e-08 5.43317e-08)
(0.00106174 9.19217e-08 1.62034e-07)
(0.000794627 3.46029e-08 4.42179e-08)
(0.000795311 -6.61264e-08 4.55932e-08)
(0.00105993 5.60875e-08 1.77236e-07)
(0.000793213 -1.82952e-08 4.50946e-08)
(0.000793799 4.69359e-08 3.90179e-08)
(0.00105795 2.12849e-08 1.77175e-07)
(0.000791874 -2.26629e-07 1.55841e-08)
(0.000792255 7.47403e-08 5.76293e-08)
(0.00105617 -9.52914e-08 1.65189e-07)
(0.000789955 -3.18059e-07 -2.38376e-08)
(0.000790849 2.65522e-06 5.55035e-08)
(0.00105391 -5.28688e-07 6.6723e-08)
(0.000788463 -1.29838e-07 1.13815e-08)
(0.000789494 -5.53143e-07 5.27977e-09)
(0.00105161 -3.56481e-07 2.82047e-07)
(0.000787182 1.25994e-07 5.02245e-08)
(0.000788087 1.10163e-07 4.62894e-08)
(0.00104983 -1.84636e-08 1.81867e-07)
(0.000786071 3.78648e-07 5.42712e-08)
(0.000786739 -4.32655e-07 1.0617e-07)
(0.0010483 3.84733e-07 1.68215e-07)
(0.000784582 4.4929e-07 2.11873e-08)
(0.000785268 5.18176e-07 4.44172e-08)
(0.0010465 6.78255e-07 1.78655e-07)
(0.000783073 2.67987e-07 5.21631e-09)
(0.000783708 4.68985e-07 2.93231e-08)
(0.00104452 5.62393e-07 6.66496e-08)
(0.000781797 7.41622e-08 3.73784e-08)
(0.000782307 9.92281e-08 1.28614e-07)
(0.00104262 1.85396e-07 1.53769e-07)
(0.000780552 -6.80143e-08 3.6431e-08)
(0.000781058 -7.80187e-08 4.56357e-08)
(0.00104088 4.21728e-08 1.61676e-07)
(0.00077833 -6.53999e-08 3.88944e-08)
(0.000779533 1.10689e-06 1.63191e-08)
(0.0010387 -1.79066e-07 1.82915e-07)
(0.000777258 1.1047e-07 4.44588e-08)
(0.000777994 -3.98741e-07 -5.28959e-08)
(0.00103642 4.68641e-08 1.66016e-07)
(0.000775644 2.02866e-07 4.85618e-08)
(0.000776504 -3.73015e-08 2.57536e-08)
(0.00103454 2.55107e-07 1.71469e-07)
(0.000775069 3.11919e-07 7.15836e-08)
(0.00103301 2.9044e-07 1.33551e-07)
(-0.000451341 -4.083e-05 -5.51579e-06)
(0.00247347 0.00265017 0.000200007)
(0.000892539 -0.00114107 0.000102133)
(-5.08958e-05 -0.00168677 -2.09302e-05)
(0.00127736 -0.00227682 -3.35672e-05)
(0.00119495 -0.00249141 -0.000281545)
(0.00118028 -0.00198639 4.08715e-06)
(-0.00190224 -0.00184928 0.00017022)
(0.00154315 -0.00347699 0.000115741)
(-0.00890293 0.00101947 3.41404e-05)
(0.00163409 0.00443308 4.57649e-05)
(0.0080249 0.00270495 0.000982638)
(0.00777105 -0.00110571 -0.0022585)
(-0.0058256 0.00317721 0.000779377)
(0.00373054 0.000239062 0.00194206)
(0.00546043 0.00114984 -0.000118148)
(-0.0112213 0.00134019 -6.25583e-05)
(0.00512612 0.00315168 -0.000596218)
(0.00343946 -0.00120377 0.000163368)
(-0.000435121 0.00125448 0.000163267)
(0.0033215 -0.0051227 0.000374997)
(-0.00446021 0.00206879 -0.000393132)
(-0.000647916 0.000493503 -0.000142452)
(-0.0117268 0.00115954 -0.000113538)
(-0.00497083 0.00436184 -0.00016013)
(0.0069458 0.00311193 0.000246218)
(0.0133696 -0.000496918 0.000590693)
(0.00736377 0.00134158 -0.000212631)
(0.0109752 -0.0126049 -0.00150365)
(-0.00219628 -0.00109566 0.0002609)
(-0.00361113 0.000728557 0.000324706)
(0.00727054 -0.00745345 -0.000191417)
(0.00648994 0.0113438 0.000815185)
(0.00698967 0.0029209 -9.07463e-05)
(0.0114213 0.00507363 -0.000851263)
(0.00276155 0.00791896 0.000314963)
(-0.00485203 0.00172222 -4.57515e-05)
(-0.00587188 -0.00144623 0.000583415)
(-0.00295617 7.06275e-05 -3.76047e-05)
(-0.00234379 -0.0019479 8.23845e-05)
(-0.00903228 0.000822563 1.5289e-06)
(0.000216841 0.000245039 5.06911e-06)
(0.000904938 0.00086649 -3.56147e-05)
(0.000838086 0.000716216 -6.79086e-07)
(0.00031084 0.000693109 -4.41498e-05)
(-4.62224e-05 0.000313975 2.46769e-06)
(0.000734043 0.000324794 -1.34295e-05)
(-0.000469518 0.000766098 4.43258e-06)
(0.000635096 0.000949579 -2.44497e-05)
(0.000751077 0.000367965 6.05625e-06)
(0.000887401 0.00106754 3.25369e-05)
(0.000735876 0.000293375 -1.61783e-06)
(0.000817056 0.00041914 2.90675e-05)
(0.00151977 0.000371587 4.97792e-06)
(0.00163063 0.000607604 2.56575e-05)
(0.00160247 0.000387488 -6.73225e-05)
(0.00142533 0.000181894 2.44562e-05)
(0.000341283 -8.20556e-06 -3.11784e-06)
(0.000487264 -2.59867e-06 -3.31185e-06)
(0.000475761 -2.20609e-06 -1.78183e-07)
(0.000797721 4.04791e-06 -8.0089e-07)
(0.000339084 9.49169e-06 -2.49229e-06)
(0.000618943 -1.82125e-05 -4.13147e-06)
(0.00061589 2.48937e-05 -5.87293e-07)
(0.000491337 -3.81881e-06 -4.65114e-07)
(0.00082602 -6.60077e-06 -9.71858e-07)
(0.000886086 -1.48764e-05 -1.27982e-06)
(0.00118047 -5.37561e-06 -1.05059e-06)
(0.000607871 -6.14599e-06 -4.12889e-06)
(0.000607836 -6.73659e-07 -5.03939e-06)
(0.000994289 -1.2191e-05 -5.03689e-06)
(0.000997229 5.63015e-07 -6.20945e-06)
(0.000827532 -6.47209e-06 -1.76488e-07)