/*--------------------------------*- C++ -*----------------------------------*\
| =========                 |                                                 |
| \\      /  F ield         | OpenFOAM: The Open Source CFD Toolbox           |
|  \\    /   O peration     | Version:  5.0                                   |
|   \\  /    A nd           | Web:      www.OpenFOAM.org                      |
|    \\/     M anipulation  |                                                 |
\*---------------------------------------------------------------------------*/
FoamFile
{
    version     2.0;
    format      ascii;
    class       surfaceScalarField;
    location    "2.3";
    object      alphaPhi10;
}
// * * * * * * * * * * * * * * * * * * * * * * * * * * * * * * * * * * * * * //

dimensions      [0 3 -1 0 0 0 0];

internalField   nonuniform List<scalar> 
26746
(
5.60035e-08
4.91908e-08
4.73348e-08
2.29568e-08
7.97606e-09
4.43165e-08
4.298e-08
4.81451e-08
4.80785e-08
5.23797e-08
2.37589e-08
1.36159e-08
9.84035e-09
1.96076e-08
2.90327e-08
-2.14048e-08
1.19096e-07
-6.10647e-08
2.53283e-08
-1.88765e-08
1.54381e-08
3.94232e-08
2.72745e-08
2.13952e-08
3.87944e-09
-7.21785e-09
2.02422e-08
-5.59256e-09
4.17321e-10
-9.00824e-10
8.82829e-09
4.62167e-15
-2.2253e-18
1.67904e-16
4.65774e-16
4.66198e-15
8.34486e-15
-1.85108e-14
4.65167e-23
1.03459e-21
-2.36788e-21
1.74738e-20
4.11326e-20
8.30892e-20
-1.55643e-19
6.4183e-27
2.77576e-25
-9.29769e-26
5.94889e-27
-2.39885e-27
-1.87169e-29
2.76346e-29
-2.16023e-30
-5.6181e-31
2.23709e-33
6.67854e-34
-1.04608e-32
2.16423e-37
2.01192e-39
3.37103e-38
8.37484e-41
-3.17843e-42
2.57114e-39
3.53792e-44
1.31765e-45
8.71218e-43
1.49292e-47
-1.35614e-48
-8.81382e-46
6.2579e-51
1.67527e-52
4.2152e-49
2.62575e-54
-2.18432e-55
-2.65087e-53
1.09589e-57
-1.57707e-58
6.26193e-55
4.54443e-61
-2.25204e-62
-6.1815e-58
1.90055e-64
-5.79816e-66
6.95344e-62
7.93269e-68
-1.23985e-69
3.4746e-64
3.2792e-71
-2.19549e-72
9.96692e-68
1.38141e-74
-4.35485e-76
1.62187e-72
6.86e-78
-6.69109e-79
3.87285e-74
3.45756e-81
-1.11325e-81
-1.69818e-76
1.26673e-84
6.72637e-86
1.54213e-80
4.73079e-88
7.55226e-90
-5.02619e-84
1.94408e-91
1.51118e-92
5.74964e-87
1.04139e-94
-1.61267e-96
3.03641e-90
7.49237e-98
1.62614e-98
6.19918e-93
2.50019e-101
1.6054e-102
-1.43269e-96
5.18924e-104
-4.8594e-106
2.32528e-99
1.43504e-106
-4.49944e-107
4.97261e-102
2.00485e-110
9.3444e-112
1.54995e-105
1.06595e-113
3.54134e-114
1.35941e-108
1.52814e-116
4.85136e-118
1.00513e-111
3.81629e-119
3.26951e-120
-8.99794e-116
2.57936e-123
-9.11289e-124
9.12441e-120
1.07468e-126
-1.36407e-127
1.2829e-126
1.35706e-129
3.8481e-131
-1.17622e-125
1.92759e-132
-1.30146e-134
7.48353e-129
2.57852e-135
3.84324e-136
-2.65954e-131
7.33381e-138
2.90847e-138
-8.75564e-134
9.08215e-142
-4.5749e-143
-4.3859e-138
1.00853e-144
-1.39706e-145
-1.26109e-140
1.77741e-148
4.66952e-150
8.37266e-144
1.74624e-151
-4.02302e-154
8.5304e-148
3.39456e-153
5.42608e-155
-4.48102e-150
9.58875e-158
-5.30678e-158
9.46193e-09
5.20747e-08
4.22711e-08
6.19514e-08
1.84469e-08
3.36023e-08
5.07185e-08
6.65823e-08
5.20306e-08
6.07311e-08
3.80641e-08
3.77088e-08
-1.29797e-08
-3.11527e-08
3.97584e-08
1.18231e-08
5.96857e-08
1.09174e-07
-2.60576e-08
-1.51727e-09
-4.39569e-08
6.14638e-09
-1.88463e-09
-1.45303e-08
-1.07646e-08
-4.02995e-09
1.33084e-08
1.33438e-08
1.4541e-08
-1.52712e-08
-1.44536e-08
-2.3927e-07
9.25102e-09
-9.02696e-09
3.82632e-08
-2.46749e-08
-3.21837e-08
-2.50651e-08
3.59026e-08
3.03602e-08
3.79448e-08
-7.38386e-08
-1.95256e-09
-2.64433e-09
-2.96732e-09
7.65975e-10
5.35695e-09
2.23693e-14
2.94468e-15
1.78158e-08
4.27531e-15
1.78158e-08
8.67363e-22
-1.28211e-18
-3.41086e-21
-3.1514e-19
1.95683e-19
1.49071e-19
1.6195e-18
-1.34991e-18
-1.39636e-18
-1.34982e-18
-1.59469e-26
-1.54372e-22
5.16341e-26
8.03702e-28
-3.93174e-26
-3.64334e-29
1.7848e-30
-1.14472e-29
-1.38492e-31
6.39199e-34
-8.47735e-32
2.22831e-34
5.7619e-38
-2.04409e-34
2.28243e-37
1.93421e-41
-1.55919e-38
1.08544e-40
8.2501e-45
-3.20304e-42
6.19001e-44
3.56201e-48
-6.97244e-46
-1.13482e-46
1.53087e-51
-1.61816e-49
7.72637e-50
6.55612e-55
-1.3686e-52
-9.9375e-53
2.79354e-58
3.20754e-57
-1.24851e-55
1.18023e-61
-1.15132e-60
-6.38829e-60
4.9835e-65
-5.63499e-64
-1.21509e-62
2.12127e-68
-1.96647e-67
-5.03569e-66
9.16809e-72
-4.58229e-71
-4.07317e-68
3.82249e-75
-2.05289e-73
8.16881e-72
1.61781e-78
-7.12059e-79
-2.28433e-75
7.23126e-82
-2.08966e-83
-4.5245e-78
3.00212e-85
-7.01518e-84
-1.35944e-81
1.21109e-88
-2.28013e-88
7.01991e-85
5.25122e-92
1.426e-92
-7.69334e-88
2.49674e-95
-1.5221e-95
2.87936e-91
1.96165e-98
3.31346e-100
-4.78961e-95
2.15009e-101
1.89774e-102
-3.50657e-97
3.82662e-105
-1.00564e-103
2.36641e-100
2.03903e-108
-6.11361e-107
1.69252e-102
1.22314e-111
8.23705e-113
5.74061e-107
9.6955e-115
-4.15698e-115
9.32322e-110
3.49334e-118
-2.64225e-118
2.11609e-113
7.85224e-121
1.85065e-123
-8.67698e-121
1.01271e-122
-2.95732e-124
-1.2087e-119
8.54645e-127
-9.1907e-128
2.26909e-122
2.6587e-130
3.22477e-131
-4.58793e-126
1.89928e-133
3.93608e-134
3.84826e-129
3.79616e-137
-5.75646e-138
8.02772e-136
1.52819e-140
-8.6547e-143
4.2878e-139
1.46922e-143
2.74e-144
6.39916e-138
2.23697e-146
-1.89005e-149
-7.76815e-144
7.27314e-150
9.31475e-152
-2.46243e-144
2.56742e-154
-5.65779e-154
-5.66533e-148
1.80796e-153
2.15713e-156
-6.74136e-152
1.20583e-157
-4.65302e-154
-1.34868e-08
5.99728e-08
4.83136e-08
4.71597e-08
-6.39126e-09
-1.44209e-08
-8.37385e-09
-1.93427e-09
2.0101e-08
6.94253e-08
6.43202e-08
6.99077e-08
-9.33557e-09
-1.93742e-08
3.64045e-08
-1.01674e-08
-8.47968e-09
-8.77011e-09
3.78999e-08
-6.72967e-08
-2.48898e-08
-1.18888e-08
-3.13451e-09
-1.77891e-07
-3.72953e-08
-2.83985e-10
2.54792e-09
2.83578e-09
7.24991e-09
-9.78005e-09
-1.55624e-10
-5.26424e-13
1.44803e-09
3.04162e-11
1.43484e-09
2.36854e-19
-1.35136e-18
-5.74826e-09
-1.3223e-18
2.84845e-24
-8.78831e-22
-1.76802e-23
7.40258e-20
7.40607e-20
7.4584e-20
7.39274e-20
1.00502e-26
-1.42609e-25
-1.20873e-26
-5.13912e-29
-7.47032e-29
-2.61058e-30
4.73462e-32
1.10058e-31
-8.27743e-34
5.43541e-35
2.68872e-34
3.42708e-36
4.62212e-39
4.26189e-38
6.22085e-40
1.41845e-42
8.02767e-42
1.95439e-43
6.05338e-46
1.98053e-45
-1.8462e-47
2.61373e-49
4.15496e-49
9.56235e-50
1.1217e-52
1.5605e-52
-9.35352e-52
4.78382e-56
6.08858e-56
-7.75896e-56
2.02869e-59
3.79508e-60
-2.60273e-60
8.5632e-63
1.14964e-63
-9.36277e-62
3.59867e-66
3.78335e-67
-7.43312e-66
1.5043e-69
-4.16243e-70
-1.1923e-68
6.26094e-73
-8.94856e-74
-1.43397e-71
2.59613e-76
-4.44412e-77
2.01709e-74
1.07389e-79
-9.57677e-81
-4.74089e-78
4.41573e-83
-1.73227e-84
-3.71726e-80
1.80993e-86
-1.95763e-87
-7.03839e-87
7.56523e-90
-2.31749e-90
4.18909e-87
3.14956e-93
-7.94936e-94
-5.015e-90
1.25034e-96
-4.79923e-97
4.69039e-96
6.7819e-100
-2.33117e-99
-3.87477e-99
8.61769e-103
6.54505e-104
-4.48649e-99
2.47563e-106
1.70182e-107
-7.45404e-102
8.61828e-110
-3.3906e-110
1.54893e-105
3.58404e-113
-5.33235e-114
-6.39383e-109
1.34838e-116
2.13075e-117
-8.01923e-113
1.04172e-119
-7.54454e-121
-4.72804e-116
2.82056e-122
-1.65766e-123
-6.60435e-119
7.38749e-126
5.70586e-125
4.76129e-121
2.17403e-129
2.24656e-129
1.84481e-125
1.78335e-132
-2.83501e-132
-3.09268e-128
1.35758e-135
-2.38606e-134
-1.66361e-131
3.21582e-139
-1.06775e-137
-6.37406e-136
2.33999e-142
1.01604e-142
7.26298e-137
2.4549e-145
2.24735e-144
1.35804e-140
6.64933e-148
9.13794e-149
2.13894e-144
1.29449e-151
5.20976e-152
-5.89441e-147
1.58288e-153
9.21102e-157
8.36276e-150
-3.50943e-157
1.10488e-154
1.77992e-08
2.40177e-08
8.31595e-09
1.3022e-08
-6.37835e-11
8.06897e-09
1.55519e-09
-1.96273e-08
-1.39577e-09
1.82937e-08
-2.85603e-08
1.53187e-07
8.31844e-09
1.55965e-08
3.43419e-09
1.25457e-08
2.84145e-08
-5.21207e-08
-6.44676e-09
-1.95104e-08
-1.20074e-07
-5.71619e-08
1.66753e-07
-3.35438e-08
2.33376e-09
-1.60293e-08
3.24758e-09
-1.57116e-09
1.26379e-08
-1.44587e-10
-1.42731e-10
2.14383e-10
4.98925e-12
1.6845e-10
1.07201e-16
5.02293e-19
-1.96558e-08
-2.63061e-18
1.65318e-16
8.51856e-17
1.72319e-17
5.29866e-19
4.22269e-25
-1.64123e-22
-3.53046e-22
2.69664e-19
2.6648e-19
2.64397e-19
2.75328e-19
4.17793e-26
1.0293e-25
1.18031e-26
4.04473e-28
8.54063e-28
6.38555e-30
1.01735e-31
-7.75645e-30
1.28228e-31
2.69997e-35
-1.06437e-33
4.46649e-35
7.90592e-39
-8.05072e-38
1.7717e-38
2.79016e-42
-3.27717e-41
3.62431e-42
1.22382e-45
-9.18532e-45
1.26166e-44
5.49758e-49
-2.20203e-48
-2.24969e-47
2.45098e-52
-8.11988e-52
2.68194e-50
1.08002e-55
-6.92406e-56
1.41598e-53
4.72434e-59
-6.28506e-59
6.10356e-59
2.05285e-62
-9.24142e-63
2.07641e-60
8.92473e-66
-5.31742e-66
8.54968e-65
3.89353e-69
1.63783e-69
-1.79728e-66
1.67297e-72
1.09555e-72
3.29938e-69
7.18362e-76
1.6012e-76
5.48236e-74
3.04858e-79
-3.90151e-79
-2.45932e-75
1.39905e-82
-2.05363e-83
-5.25934e-80
7.66256e-86
3.52876e-87
-2.48996e-83
2.57811e-89
-1.0813e-88
-1.94818e-86
1.32865e-92
1.17987e-93
6.00125e-90
1.49604e-95
5.60331e-97
9.70123e-93
9.1739e-99
-1.38321e-99
-2.52126e-95
2.25228e-102
-1.06656e-101
-3.32626e-97
1.3575e-105
7.39491e-107
-4.85863e-102
1.80641e-108
7.82009e-110
5.50935e-105
3.13793e-112
-1.73815e-114
-3.17543e-108
1.68727e-115
4.29617e-116
-6.48525e-112
4.10849e-118
-1.40391e-119
-1.8018e-114
1.56655e-120
3.4769e-121
-8.2049e-117
2.07192e-124
2.50775e-125
7.59766e-121
1.30303e-127
-2.12364e-129
1.82628e-123
3.17505e-130
1.40522e-131
-1.70416e-126
3.90218e-134
-3.60078e-135
4.47961e-134
4.21302e-137
-9.53067e-139
-1.2434e-133
3.04499e-140
4.27019e-141
-3.07831e-136
1.08041e-143
7.14074e-145
2.7579e-139
4.54069e-147
1.99091e-146
-1.51542e-141
2.07398e-150
1.66251e-150
-6.97192e-147
3.61915e-153
-5.119e-153
-1.28436e-149
-6.62704e-156
-1.43325e-152
-5.2939e-08
4.30003e-08
7.1386e-09
-1.8981e-10
-8.09709e-08
7.12538e-09
-3.42808e-08
-4.62007e-08
2.96264e-07
5.27337e-07
3.41237e-07
3.10629e-07
-7.84066e-08
-6.7465e-09
-2.66576e-08
-2.52547e-08
-8.38589e-08
-1.84135e-08
-2.97694e-08
-1.02635e-08
-1.03807e-08
-6.66745e-09
-7.18963e-09
-3.65966e-09
1.84744e-08
7.79984e-09
9.29419e-09
2.93514e-08
-3.57797e-08
-1.02423e-07
-2.36515e-08
-7.55002e-08
-1.7937e-08
1.15933e-08
7.17812e-08
-5.12664e-08
-1.96385e-09
-1.58168e-08
1.29753e-09
-6.9973e-09
2.22485e-08
-2.45638e-09
1.68648e-11
-1.52848e-10
-9.85685e-11
1.48306e-10
2.16593e-15
-9.06798e-19
-2.17123e-08
-1.18293e-17
-2.48174e-17
6.52253e-15
-6.15522e-15
7.80114e-18
5.87968e-23
8.02779e-21
8.28282e-22
5.89209e-18
5.87202e-18
5.96782e-18
5.8128e-18
1.4074e-25
1.33468e-24
-8.53627e-26
1.63723e-26
3.84735e-27
1.65297e-29
5.76664e-30
2.07043e-30
1.47955e-30
1.46533e-34
2.97169e-34
2.69471e-33
4.31556e-38
1.56514e-37
-5.4718e-38
1.79208e-41
3.56835e-41
9.20925e-40
7.63817e-45
9.21911e-45
3.58467e-43
3.25266e-48
2.66369e-48
2.38289e-46
1.38213e-51
6.75095e-52
-3.10274e-50
5.8584e-55
1.64657e-55
4.72339e-53
2.47569e-58
-2.34454e-58
1.86114e-55
1.04425e-61
2.04107e-62
-4.39601e-60
4.40955e-65
6.34068e-66
8.75774e-62
1.83034e-68
1.465e-69
6.79991e-66
7.70829e-72
-4.07808e-73
4.31953e-68
3.29898e-75
1.24101e-76
9.49697e-72
1.45235e-78
1.57425e-79
-6.05741e-74
6.16963e-82
-7.091e-84
4.39323e-78
3.47651e-85
1.58534e-87
8.48128e-81
3.29282e-88
1.87506e-89
-9.49569e-85
1.04832e-91
-2.42374e-91
-1.33973e-86
6.49104e-95
2.17206e-95
4.1551e-92
2.9714e-98
3.23739e-99
5.33522e-94
5.06987e-101
-1.09626e-102
-2.78872e-96
6.06935e-105
-2.82645e-106
1.43994e-100
2.22453e-108
-3.09014e-110
2.17901e-104
2.02983e-111
3.50189e-112
4.03424e-107
3.51078e-114
1.59323e-115
4.92905e-110
8.5726e-118
-3.7461e-118
-3.15482e-112
4.04854e-121
3.58834e-122
5.28107e-120
6.91281e-124
3.21203e-125
-1.09512e-119
8.1081e-128
-1.00385e-127
-1.20966e-122
2.56747e-131
-2.32708e-129
1.95609e-129
1.11951e-134
-1.01612e-132
-6.2077e-133
2.60586e-137
-1.37267e-136
1.47201e-132
1.0714e-139
8.29648e-140
1.62943e-134
7.11771e-143
-1.259e-143
1.72564e-138
2.97312e-145
3.60292e-146
3.83925e-142
8.16699e-149
4.04465e-149
-2.00987e-145
8.05991e-152
2.51414e-152
-1.60088e-147
1.11891e-156
-1.46099e-150
-2.90536e-09
2.99681e-08
5.70233e-08
1.14272e-07
2.84095e-08
-3.62705e-08
1.32557e-07
6.11505e-08
-1.37864e-08
-6.52993e-08
-2.06436e-08
-2.03361e-08
-2.14737e-08
-2.1159e-08
1.62253e-08
1.52549e-08
3.27856e-08
1.31904e-08
4.2986e-08
1.04556e-08
7.09885e-08
3.68248e-10
-2.13769e-08
4.32879e-08
-1.36003e-08
-1.69958e-08
-2.61412e-08
-1.97232e-08
3.58287e-08
-4.46643e-09
5.34542e-08
6.1963e-08
-2.09699e-08
5.78777e-09
1.10382e-09
8.29235e-09
3.43044e-09
-1.80624e-08
-1.18148e-09
1.8634e-10
-7.62514e-11
-3.67064e-12
1.15058e-10
5.5611e-15
3.56865e-17
-1.82663e-08
2.40122e-16
1.70341e-16
-5.67301e-15
1.48969e-14
-1.57062e-14
-2.7488e-23
-5.08934e-22
-8.25554e-22
5.72715e-18
5.7169e-18
5.73193e-18
5.71247e-18
4.87585e-26
-3.36488e-26
5.318e-26
1.06561e-26
2.38464e-27
2.05295e-29
6.21724e-30
1.86007e-30
-4.33439e-30
1.41865e-34
7.40145e-34
-1.80727e-32
3.91674e-38
1.68687e-37
-4.38531e-38
1.62367e-41
3.53797e-41
3.50439e-40
6.89651e-45
8.05742e-45
6.06022e-44
2.93989e-48
2.36017e-48
4.69882e-47
1.25232e-51
8.75076e-52
-4.7519e-49
5.31587e-55
1.72639e-55
3.59275e-52
2.25767e-58
1.72841e-59
-6.57544e-55
9.39661e-62
-1.78175e-62
1.07133e-58
3.9217e-65
3.20462e-66
2.90758e-61
1.65257e-68
1.56716e-70
-9.63217e-66
6.98492e-72
8.27219e-73
2.65757e-68
4.25481e-75
-6.47308e-77
-3.1654e-72
7.3953e-78
5.60532e-79
-5.9023e-74
8.39774e-82
2.28762e-83
8.01854e-78
4.23867e-85
-5.37123e-87
1.68088e-81
7.11869e-88
-2.03566e-89
1.03109e-84
1.20555e-90
6.71677e-91
-1.72575e-86
4.70984e-94
2.62842e-94
-5.27711e-90
1.46872e-97
1.61734e-99
-5.32384e-93
4.2562e-101
1.20351e-102
-1.13525e-98
2.45653e-104
1.19778e-105
-2.48982e-99
1.4155e-107
1.78145e-108
1.51294e-103
4.87396e-111
-8.47388e-112
4.45117e-106
3.84108e-114
-9.36035e-118
-3.66128e-109
3.19005e-117
4.68943e-118
-6.53949e-112
6.22753e-121
-2.12045e-123
-1.52864e-120
9.32158e-124
-1.71786e-125
-9.11289e-120
8.91269e-126
4.15486e-129
-6.33017e-123
9.7982e-129
-6.65328e-131
-7.56194e-125
1.49389e-132
-3.96491e-136
-2.59151e-128
3.93632e-136
-3.56544e-137
-1.79696e-131
1.69268e-139
-7.83331e-141
4.26435e-134
9.36704e-143
-2.71764e-145
-2.028e-140
2.68657e-146
2.95451e-147
-5.89107e-144
9.14106e-150
2.2347e-151
2.3124e-147
-2.11574e-153
2.62502e-154
8.24259e-148
4.80595e-157
1.17753e-154
2.65735e-09
5.47412e-08
-2.28527e-07
3.62594e-07
-8.31359e-08
9.10786e-08
7.34854e-08
7.36581e-08
8.95567e-08
8.37747e-08
-3.41239e-08
-1.32287e-08
1.58658e-08
1.84113e-08
1.69279e-08
1.57098e-08
4.46891e-08
-6.56151e-07
-1.18952e-07
-7.03073e-08
-9.41354e-08
5.13277e-08
5.23463e-08
5.44705e-08
-4.40032e-08
-3.39429e-08
5.22135e-08
-3.1934e-08
5.0531e-08
2.29021e-08
2.77316e-08
-1.37667e-09
-7.84515e-09
7.24403e-09
-1.16574e-07
-2.64512e-08
-4.42339e-08
6.64914e-08
2.37249e-08
3.88459e-09
5.16221e-08
5.10161e-08
5.97193e-08
6.07089e-08
-1.69674e-07
-1.40266e-07
2.0115e-08
-1.80433e-07
1.11574e-10
1.23592e-08
-2.22946e-09
-6.13203e-10
-9.44714e-09
-4.85432e-10
-3.88635e-10
4.68206e-10
-1.77109e-10
2.37269e-10
4.37228e-16
-1.95762e-17
-3.4828e-08
-3.4828e-08
5.72422e-18
-2.23529e-16
-2.11728e-15
-1.34257e-15
-2.77817e-25
1.47557e-21
8.79481e-23
2.53551e-19
2.52599e-19
2.66593e-19
2.48342e-19
6.94242e-26
1.80207e-25
-5.47777e-27
2.22231e-28
8.35513e-29
1.75545e-30
9.39546e-32
2.33109e-31
-5.74742e-32
2.8024e-35
3.0249e-34
-3.4454e-35
8.92251e-39
7.08132e-38
-7.95109e-39
3.04179e-42
8.45449e-42
1.73264e-41
1.32704e-45
1.69503e-45
4.41541e-46
5.96858e-49
4.87164e-49
3.33349e-48
2.66656e-52
1.16139e-52
4.24352e-51
1.18083e-55
-3.80655e-56
2.03848e-53
5.20921e-59
1.05532e-59
-3.41895e-57
2.28173e-62
3.03055e-64
-6.45901e-60
9.84215e-66
2.49715e-67
9.46692e-64
4.24667e-69
8.03222e-70
5.79887e-68
1.83852e-72
5.92246e-74
4.20138e-70
7.96856e-76
9.45314e-77
1.23555e-74
3.29962e-79
-1.24363e-80
2.51123e-78
1.40183e-82
-1.1165e-83
-3.96127e-80
7.62609e-86
-6.23553e-87
1.30504e-82
6.26726e-89
1.49756e-89
-1.06544e-85
1.43135e-92
-1.34286e-94
-1.65642e-89
5.94239e-96
-3.98219e-97
-5.68869e-92
2.77903e-99
-2.58178e-101
-1.72136e-95
1.10542e-102
1.04387e-105
5.64839e-101
5.45096e-106
-9.20045e-108
-2.39344e-102
2.75765e-109
1.65563e-111
-9.39253e-105
2.01889e-112
5.23019e-114
1.17363e-107
1.50233e-115
-1.74467e-117
-7.75986e-112
3.2749e-118
1.52097e-119
-1.14785e-113
1.96519e-121
1.96065e-124
3.17994e-118
1.86889e-124
-5.34336e-127
-9.7425e-121
3.30864e-128
-1.18985e-131
-1.91037e-124
1.69747e-131
2.93226e-133
2.89802e-126
5.43612e-135
-4.22764e-136
6.82012e-130
4.50279e-138
3.53469e-140
1.2206e-136
1.14558e-140
5.36229e-143
-2.16887e-136
7.00631e-144
1.57431e-147
-1.27234e-139
3.1691e-146
-4.88915e-148
-1.40321e-142
2.28729e-150
-3.00891e-153
2.44442e-150
3.78076e-153
9.85785e-155
5.14421e-151
2.21273e-156
-5.84498e-152
-7.56463e-09
5.63459e-08
-1.67702e-08
-1.34646e-08
3.2564e-09
-1.32559e-08
2.41416e-08
-1.03856e-07
-2.68231e-08
1.55418e-07
5.02678e-08
-4.47852e-07
4.56669e-08
1.60459e-07
2.42071e-08
2.19241e-08
-9.99952e-08
1.17178e-09
6.25094e-09
5.66081e-09
5.89538e-09
5.52238e-09
-2.30409e-08
3.4142e-08
5.75923e-08
6.47404e-08
-5.56813e-08
2.44628e-09
5.39288e-09
2.52958e-09
1.43108e-09
-1.25649e-08
-3.79791e-11
-3.01626e-10
1.66196e-09
3.75988e-12
1.47815e-09
4.72682e-16
3.4109e-18
4.58199e-09
4.58199e-09
4.32874e-18
4.72961e-16
4.74134e-16
4.73385e-16
-7.60707e-25
5.53333e-23
-4.71885e-23
2.59493e-21
2.60923e-21
2.46949e-21
3.19606e-21
1.10355e-25
4.44755e-27
-1.63531e-27
8.01808e-29
-4.90148e-31
7.23864e-31
7.34705e-32
1.26316e-32
-4.30541e-33
5.14736e-35
2.40684e-34
5.00827e-37
4.46669e-39
2.5342e-38
3.79429e-40
1.35414e-42
4.81746e-42
-1.96649e-42
5.80023e-46
1.11825e-45
1.84438e-46
2.51976e-49
2.24618e-49
-1.07791e-48
1.08884e-52
5.06354e-53
-3.46967e-52
4.67663e-56
2.22221e-56
-1.09657e-54
1.99607e-59
4.02872e-60
3.91969e-58
8.47278e-63
1.80136e-63
-5.29767e-62
3.58006e-66
3.4401e-67
-4.13758e-65
1.50352e-69
2.37733e-71
8.71259e-68
6.28449e-73
-6.95947e-76
4.11309e-72
2.61882e-76
1.31708e-78
-1.5976e-74
1.09052e-79
8.65011e-81
3.88292e-78
4.53241e-83
1.0196e-84
6.38327e-82
1.85073e-86
6.3428e-88
3.38901e-84
7.72636e-90
2.91106e-91
-4.94087e-91
3.28067e-93
2.45758e-96
-2.04454e-90
1.32673e-96
-2.47812e-98
7.61933e-96
6.07201e-100
2.16194e-101
4.05986e-97
2.56929e-103
3.25011e-104
-2.35097e-100
1.00615e-106
-4.96453e-108
2.37679e-102
5.2076e-110
1.52856e-112
5.66342e-106
3.30627e-113
1.06726e-114
-8.56133e-110
1.19831e-116
7.44126e-119
2.34134e-113
1.18213e-119
2.21408e-121
-3.53386e-116
4.18872e-123
4.50746e-125
3.80524e-119
1.0595e-126
1.25766e-128
1.16922e-124
7.86086e-130
-1.9656e-132
3.59869e-127
1.97869e-132
2.99979e-134
4.10802e-128
2.20518e-135
3.27256e-137
-9.51891e-132
4.14423e-139
3.39071e-141
8.64943e-136
1.13063e-142
1.13658e-144
-3.94616e-138
4.19808e-146
1.25125e-147
-3.79871e-143
2.6541e-149
-1.15383e-150
-9.61595e-147
4.71786e-153
-8.74162e-153
4.67083e-150
3.08317e-153
-1.48501e-155
4.3543e-153
8.90618e-159
-2.94643e-153
8.62687e-09
4.75801e-08
6.23975e-08
2.22406e-08
1.74184e-08
4.4562e-08
-2.52576e-08
-6.63629e-08
-5.49208e-08
2.89285e-08
9.88724e-08
5.3502e-08
8.93744e-08
5.97023e-08
-6.28617e-09
-3.27514e-08
2.0085e-09
2.59983e-08
-2.80446e-09
5.51412e-08
-3.96679e-08
5.1534e-08
5.00222e-08
5.22916e-08
5.02754e-08
1.34681e-08
8.08374e-09
7.75511e-09
1.41598e-08
4.24054e-08
3.79513e-08
3.90419e-08
4.17859e-08
-8.28134e-09
-1.05473e-08
-3.83851e-09
7.77135e-10
2.14331e-08
-8.3157e-11
1.37593e-11
-2.46892e-08
3.41063e-11
-2.46878e-08
9.3735e-22
-7.16113e-21
-1.10782e-20
-1.81097e-18
1.53298e-21
2.91306e-19
8.73049e-19
-9.25693e-19
-9.58755e-19
-1.4781e-18
-9.58089e-19
-4.5052e-26
-1.84501e-24
-2.1318e-25
1.12643e-27
-4.94878e-28
-7.92483e-29
3.5322e-30
-6.76696e-29
1.64472e-31
4.0147e-34
-1.1166e-31
1.52727e-34
4.63596e-38
-1.31064e-35
3.37725e-39
1.61968e-41
-2.58291e-39
2.51317e-41
6.95332e-45
-6.95175e-43
2.37638e-44
3.02776e-48
-1.37619e-46
1.63068e-47
1.3133e-51
-4.53902e-50
-6.69503e-50
5.66735e-55
-1.09869e-53
5.18048e-54
2.43426e-58
-2.17129e-57
-1.11748e-56
1.03868e-61
-4.74543e-61
-1.36136e-59
4.41018e-65
-1.62171e-64
-7.12608e-63
1.86633e-68
-2.12918e-68
-1.95227e-66
7.86243e-72
-1.0283e-71
-2.33933e-69
3.48763e-75
6.03705e-76
1.75074e-72
1.65622e-78
-5.5675e-80
-2.0993e-75
6.12937e-82
2.21723e-82
-3.08901e-79
2.53274e-85
2.29068e-85
2.99571e-82
1.0549e-88
-3.06866e-89
-6.78822e-85
4.34239e-92
-1.04954e-91
1.00434e-88
4.14111e-95
-2.91185e-95
1.23671e-91
1.96748e-97
3.79976e-99
-3.47077e-94
1.79263e-101
-1.27295e-101
-9.16647e-99
4.71878e-105
-2.64807e-104
-6.75134e-101
3.02821e-108
-6.78908e-108
-1.42065e-105
5.55072e-111
-6.1896e-112
-3.1904e-108
9.83523e-115
9.57013e-115
5.36656e-110
4.5408e-118
-3.48284e-118
-2.40788e-113
1.36644e-121
-1.17936e-121
5.79988e-117
1.03549e-124
2.46752e-124
1.21087e-123
3.2975e-127
2.41209e-128
1.66219e-123
4.89293e-130
-1.52899e-132
-5.65702e-127
4.37024e-133
1.12905e-133
-2.84675e-129
6.72844e-137
3.18508e-137
1.85086e-132
2.05164e-140
-6.73914e-142
-9.72471e-139
7.83815e-144
-4.432e-143
1.21392e-141
8.57631e-147
1.76518e-147
-4.98599e-144
3.74481e-149
-1.03353e-149
3.20736e-145
4.19331e-152
-2.47867e-152
-2.34913e-148
2.65665e-153
-1.20001e-155
-4.52951e-151
-2.06287e-157
4.12233e-155
5.9487e-09
2.08435e-07
3.01164e-08
3.05791e-08
5.09531e-08
-1.72104e-07
-1.34302e-07
4.76646e-08
3.21261e-08
2.763e-08
1.64578e-08
2.92851e-08
3.46474e-08
2.45344e-08
-5.01238e-08
-6.65439e-09
-1.37659e-08
-3.20004e-08
-9.9063e-09
3.93129e-07
1.68524e-07
2.05187e-07
-1.97409e-07
-8.09618e-08
-8.11044e-08
-7.99342e-08
-8.05913e-08
-3.4311e-08
-3.06446e-08
-3.32231e-08
8.24911e-08
5.13373e-08
2.18239e-08
1.90917e-08
3.7564e-08
-3.37582e-08
-8.54812e-08
2.77265e-09
-7.30054e-09
-8.50862e-08
3.21732e-09
-1.89425e-09
5.07563e-09
6.77005e-10
-9.46401e-09
-6.51759e-13
5.29245e-15
1.79728e-08
8.51433e-14
1.7973e-08
-2.16269e-23
-2.39223e-21
-1.39201e-19
-5.30127e-21
6.49195e-21
1.31327e-19
-6.47203e-26
-2.87776e-26
6.16827e-27
9.65895e-30
5.68356e-29
4.37555e-32
1.1251e-32
-4.59421e-33
6.81162e-37
2.80077e-36
2.30529e-40
1.95482e-39
9.72212e-44
5.79091e-43
4.1108e-47
4.1504e-46
1.72845e-50
-1.72911e-49
7.24176e-54
-5.18723e-52
3.02897e-57
-6.99322e-55
1.26266e-60
-1.4717e-58
5.21409e-64
-7.36225e-62
2.15071e-67
6.36844e-65
8.83084e-71
-1.23727e-68
3.62005e-74
-6.4156e-74
1.48149e-77
7.35507e-75
6.04627e-81
1.52322e-77
2.4836e-84
7.01965e-81
1.49588e-87
-6.60108e-84
2.34455e-90
-1.26542e-86
3.23148e-94
-7.86122e-91
1.7546e-97
-3.96947e-94
3.03437e-100
-1.33775e-96
1.2199e-103
-1.05799e-99
4.27399e-107
-1.51571e-102
1.31144e-110
3.63217e-107
1.31988e-113
1.86851e-108
1.93167e-116
5.04872e-112
8.58201e-120
-7.61341e-116
2.33396e-122
-2.02006e-118
1.76668e-126
-1.43878e-128
5.88047e-130
7.50653e-126
5.61443e-133
1.32035e-132
2.51757e-135
-5.2901e-133
3.45129e-139
4.50206e-136
4.76052e-142
-9.33546e-138
2.85684e-145
8.015e-142
1.33064e-148
1.62703e-144
5.91951e-152
-1.22978e-147
2.47752e-153
1.0533e-150
8.94679e-154
2.60662e-07
5.46905e-08
4.68172e-08
5.05427e-08
8.29308e-08
7.41937e-08
2.95851e-08
6.0914e-08
8.0871e-08
7.66463e-08
7.66744e-08
9.51304e-10
2.44247e-07
1.79197e-09
1.69723e-08
8.4758e-09
-1.226e-07
1.66119e-09
8.78591e-09
1.65428e-07
4.25097e-08
1.16457e-08
2.77422e-08
-2.52238e-08
-1.23324e-08
-5.14113e-09
1.51897e-08
-1.83743e-07
-2.02384e-08
1.20864e-08
-1.69269e-07
-2.71027e-08
-1.27519e-09
2.2185e-10
-1.24362e-09
2.98197e-08
7.70353e-14
-1.8294e-15
3.86046e-17
1.17608e-15
3.51992e-17
-8.46609e-14
8.41612e-14
-9.78497e-14
1.85574e-22
3.95577e-21
2.37152e-21
5.84485e-20
-2.24683e-19
8.78001e-20
-2.17761e-19
2.44264e-25
2.94607e-24
9.50628e-26
9.2192e-27
-9.66405e-27
6.70228e-30
3.4495e-28
-1.95349e-28
7.54607e-31
8.72384e-31
1.64699e-31
1.63845e-32
1.0318e-34
4.30461e-34
-2.02436e-36
3.11456e-38
9.75909e-38
8.33999e-41
2.36056e-41
3.86955e-41
1.48327e-42
1.71698e-44
1.13291e-44
9.47202e-47
1.21212e-47
7.29665e-48
-5.81082e-51
8.51715e-51
1.81262e-51
-1.02203e-51
5.96238e-54
6.71827e-54
-1.96489e-54
4.16148e-57
4.91164e-58
1.22138e-58
2.89419e-60
4.11175e-62
-2.64678e-62
2.00457e-63
2.68651e-64
3.81872e-64
1.38458e-66
3.40711e-67
4.40439e-67
9.52906e-70
2.14581e-70
-2.4626e-71
6.53398e-73
3.98695e-74
3.17584e-74
4.4743e-76
3.57693e-77
2.30097e-76
3.05322e-79
2.13156e-80
5.20348e-80
2.07608e-82
2.18948e-84
1.95574e-83
1.40692e-85
-4.09713e-88
1.19127e-86
9.507e-89
-5.86208e-91
3.96474e-91
6.40392e-92
3.59954e-92
6.4265e-94
4.30324e-95
2.02124e-95
1.07921e-96
2.88528e-98
-3.05244e-99
-5.95986e-100
1.93068e-101
2.76786e-102
-3.7123e-102
1.28875e-104
7.49148e-106
8.61989e-106
8.57324e-108
6.42651e-109
4.53544e-109
5.68493e-111
9.15118e-112
-4.57467e-112
3.76277e-114
-3.10334e-116
1.68207e-115
2.48707e-117
4.56911e-118
-1.80459e-123
1.63976e-120
-1.41336e-122
1.91775e-121
1.07865e-123
8.26154e-125
2.5151e-124
7.07914e-127
-4.13837e-129
2.00828e-129
4.63818e-130
3.24171e-131
1.0849e-132
3.03038e-133
1.39741e-133
-1.21462e-139
1.97533e-136
-3.57236e-138
7.07356e-138
1.28519e-139
-9.48907e-142
-2.27896e-140
8.35232e-143
-2.56748e-144
-6.46795e-144
5.4157e-146
-5.92135e-148
4.84062e-148
3.43896e-149
2.97993e-151
2.69606e-150
3.81927e-153
2.86869e-153
-2.2192e-07
3.45042e-09
-8.41637e-09
6.19171e-08
5.41853e-08
2.38345e-08
1.54831e-09
3.96831e-07
1.04709e-08
-1.99599e-07
-5.69e-10
-1.02299e-08
-5.46298e-09
-9.30609e-09
-2.32008e-09
-2.8336e-08
3.52836e-08
1.80204e-09
6.52777e-09
1.89052e-08
-9.18591e-09
6.07303e-08
4.28059e-08
2.76615e-08
-1.4097e-09
6.36533e-09
-7.44258e-09
-1.94395e-08
3.53202e-09
-1.48701e-08
-1.63784e-08
-1.78016e-08
-3.0281e-07
3.33175e-10
2.11169e-08
-1.7936e-08
-2.46155e-07
1.25607e-08
2.47232e-09
6.30108e-09
8.45002e-10
2.13032e-09
-2.4098e-08
1.17231e-13
-5.82781e-15
1.33785e-14
-1.09465e-15
1.53413e-14
3.93292e-15
8.05035e-21
-5.2182e-18
3.61432e-21
-1.33252e-18
6.91835e-18
-2.03587e-18
6.69307e-18
-5.29122e-18
-5.17909e-18
-5.2913e-18
7.22196e-25
-5.04316e-22
2.38655e-26
-1.87961e-27
-6.85485e-25
4.68128e-29
3.12254e-29
-4.29957e-28
4.65415e-31
2.40444e-32
-1.67846e-32
8.37218e-34
3.59415e-36
-7.98443e-36
3.82767e-37
1.99973e-39
-7.17357e-39
7.35162e-41
1.52229e-42
-2.93322e-42
6.84011e-45
1.11167e-45
-9.13877e-46
-1.96693e-46
7.96603e-49
-4.62346e-49
-1.86686e-50
5.68022e-52
-3.08047e-52
7.09209e-53
4.03849e-55
-1.49566e-55
3.89207e-56
2.86011e-58
-2.67645e-59
6.81141e-60
2.01732e-61
-7.20699e-62
-9.65594e-64
1.41665e-64
1.56027e-65
2.60795e-65
9.92499e-68
-6.52129e-68
2.14158e-68
6.93618e-71
-4.14359e-71
2.16319e-71
4.82785e-74
3.83143e-75
4.19899e-75
3.34619e-77
-1.99761e-78
3.38215e-79
2.31283e-80
-9.95417e-82
8.62889e-81
1.59402e-83
-1.5263e-84
1.69021e-85
1.09528e-86
2.93105e-87
8.88152e-88
7.50188e-90
1.5891e-90
1.55144e-91
5.1294e-93
3.22036e-94
5.1487e-94
3.49886e-96
2.81616e-97
5.33244e-97
2.38107e-99
-9.36476e-100
8.22137e-100
1.61557e-102
-5.50542e-103
4.67774e-103
1.09345e-105
1.83783e-106
-5.72943e-108
7.37929e-109
5.44199e-109
-6.61255e-110
4.96904e-112
9.04545e-114
-2.28397e-113
3.33976e-115
-1.25664e-116
7.93608e-117
2.2371e-118
-4.78248e-119
7.14343e-119
1.49435e-121
8.63321e-123
9.62471e-124
9.96932e-125
2.27954e-126
3.38054e-126
6.63362e-128
4.20671e-129
-3.77299e-129
4.4071e-131
-1.1275e-132
-3.42662e-135
2.92676e-134
-9.21292e-136
6.53089e-135
1.93743e-137
2.03647e-138
-3.5942e-138
1.27923e-140
3.74216e-143
1.26236e-141
8.435e-144
-7.30785e-145
1.55458e-144
5.5505e-147
1.36452e-148
5.06985e-149
3.61189e-150
1.43553e-151
-1.19822e-151
1.08918e-154
2.23479e-157
-2.07348e-07
3.06814e-09
6.72403e-09
4.98517e-08
5.12881e-08
2.18972e-09
3.33383e-09
2.4661e-09
2.95429e-08
2.01115e-07
1.86424e-07
-4.24061e-08
2.30274e-07
-4.23487e-09
2.69654e-08
1.28731e-08
1.67451e-08
8.37652e-09
5.95521e-08
-2.03718e-08
-1.41456e-08
-1.79265e-08
-1.393e-08
-2.90668e-08
-1.62843e-08
-1.51917e-07
-4.35864e-08
-2.32572e-07
-2.42848e-08
-2.61712e-08
-2.71058e-08
1.70654e-08
2.01961e-07
2.49509e-08
5.16159e-08
-2.01668e-10
-1.80431e-08
6.02955e-09
6.90157e-09
-4.64161e-08
-1.24066e-10
-2.68567e-11
-1.04622e-11
4.89549e-11
1.29441e-11
-6.00331e-12
1.46171e-18
-5.50802e-18
2.13329e-18
-5.16815e-18
5.51282e-19
1.5674e-23
-5.21666e-21
1.29583e-22
-5.44397e-20
-5.46952e-20
-5.44949e-20
-5.48707e-20
1.87515e-24
-1.92808e-24
1.25914e-26
3.07748e-28
2.72802e-28
1.92119e-30
2.23636e-32
-1.35971e-30
2.15709e-33
1.41513e-35
-4.76465e-34
-4.05646e-36
9.95416e-39
-1.41497e-37
2.055e-40
7.40037e-42
-5.6207e-41
-1.07952e-44
5.52549e-45
-2.57838e-44
-3.85329e-47
4.06969e-48
-1.19663e-47
1.45138e-49
2.97582e-51
-2.30344e-51
9.17283e-52
2.16706e-54
-2.93916e-54
7.70993e-55
1.57359e-57
-8.23172e-58
5.51912e-59
1.13816e-60
-4.87949e-61
1.4869e-61
8.20146e-64
-1.89916e-64
3.81816e-65
5.88813e-67
-3.01755e-68
5.85626e-68
4.20778e-70
-8.11331e-71
-3.641e-71
2.99542e-73
5.03239e-74
5.51567e-74
2.12664e-76
-8.44023e-77
-2.68951e-78
1.50414e-79
-6.3722e-81
2.25275e-80
1.05948e-82
5.88368e-83
1.31047e-86
7.44965e-86
1.50523e-86
-4.11428e-88
5.22456e-89
-2.25543e-89
2.40408e-90
3.65047e-92
6.87769e-93
2.1867e-95
2.54624e-95
-3.8016e-96
5.89119e-99
1.768e-98
3.40013e-99
6.4654e-100
1.22213e-101
5.22952e-103
1.04208e-102
8.43271e-105
3.57174e-106
-5.5259e-106
5.80653e-108
-6.76326e-109
8.7426e-109
3.98484e-111
1.52094e-112
5.16027e-113
2.72823e-114
-2.01615e-115
2.47001e-115
1.86201e-117
4.69815e-119
5.26779e-120
1.26648e-120
1.54041e-120
-2.24033e-121
8.59258e-124
2.19036e-124
1.30276e-124
5.81693e-127
6.59286e-128
4.16653e-129
3.93371e-130
-5.03951e-130
1.59176e-133
2.65578e-133
-1.34218e-133
-6.59376e-135
1.78706e-136
7.83376e-137
1.08853e-137
1.19914e-139
3.39497e-140
-6.94742e-141
8.03045e-143
1.00602e-143
2.52809e-143
5.36307e-146
1.02521e-146
2.58639e-147
3.47673e-149
3.08375e-150
-7.28983e-150
-1.70622e-152
3.09563e-154
-2.81171e-07
-2.83018e-07
4.54779e-09
-2.81387e-07
9.90403e-09
7.37982e-08
1.27193e-09
7.1953e-08
-1.96806e-08
-4.59001e-08
-3.18169e-07
-3.36532e-08
-3.29276e-07
-2.40943e-08
-2.77735e-07
7.25807e-09
-3.21172e-08
-1.83013e-08
4.13441e-08
1.72797e-08
-1.46619e-07
1.93262e-08
1.77101e-08
5.7393e-09
-2.3357e-09
-7.32662e-09
-1.93564e-08
-1.7168e-08
-2.10003e-07
-2.46252e-07
-1.47527e-07
-2.32441e-07
-3.07553e-07
4.06073e-09
1.62344e-09
-1.26551e-07
-1.97857e-08
-1.70932e-08