/*--------------------------------*- C++ -*----------------------------------*\
| =========                 |                                                 |
| \\      /  F ield         | OpenFOAM: The Open Source CFD Toolbox           |
|  \\    /   O peration     | Version:  5.0                                   |
|   \\  /    A nd           | Web:      www.OpenFOAM.org                      |
|    \\/     M anipulation  |                                                 |
\*---------------------------------------------------------------------------*/
FoamFile
{
    version     2.0;
    format      ascii;
    class       volScalarField;
    location    "2.3";
    object      alpha.water;
}
// * * * * * * * * * * * * * * * * * * * * * * * * * * * * * * * * * * * * * //

dimensions      [0 0 0 0 0 0 0];

internalField   nonuniform List<scalar> 
8969
(
1.01124
1.01049
0.867183
1.02417
1.03332
1.00332
-5.04957e-18
-1.29121e-18
-1.05914e-23
8.98227e-18
4.31004e-19
6.70275e-22
3.29715e-26
4.36393e-30
1.67975e-33
7.17796e-37
2.872e-40
1.22506e-43
5.4696e-47
2.02063e-50
9.58171e-54
4.36297e-57
2.02272e-60
6.52671e-64
6.31028e-67
5.99424e-70
2.10586e-73
2.80714e-77
1.50888e-80
7.90077e-84
1.99801e-86
3.04138e-90
5.44374e-93
2.78241e-95
7.90994e-99
4.19404e-102
2.12339e-105
8.18459e-108
6.45358e-112
5.52059e-116
1.7333e-118
4.66821e-121
3.37389e-124
1.36541e-126
1.63164e-130
3.06849e-133
6.14043e-137
3.43066e-141
8.61043e-143
2.82829e-145
1.01811
0.959068
0.97695
1.02732
1.00453
0.995232
-2.6849e-17
-9.48093e-18
-1.69313e-36
6.181e-19
3.95747e-20
1.15623e-22
1.94009e-26
1.93137e-30
6.23446e-34
2.52862e-37
1.05694e-40
4.48196e-44
1.91323e-47
7.6299e-51
3.22677e-54
1.33705e-57
7.40966e-61
3.10566e-64
1.0754e-67
7.12679e-71
3.38053e-74
9.68623e-78
3.82364e-81
2.75425e-84
2.39765e-87
5.84572e-90
5.87666e-94
9.13233e-97
3.30797e-100
3.57432e-103
1.64027e-106
1.27139e-110
4.86559e-112
3.91329e-115
5.30483e-119
6.96639e-122
5.49195e-126
1.13388e-129
2.51424e-132
6.1465e-135
2.82193e-138
3.77721e-142
3.3211e-145
8.90956e-146
1.04388
1.03125
1.00875
1.01313
1.03251
1.00721
0.399213
-6.98903e-20
3.39822e-15
1.56976e-16
1.40573e-19
1.85002e-21
7.44307e-24
1.91405e-27
1.46718e-31
4.68572e-35
1.92236e-38
7.96137e-42
3.2939e-45
1.35806e-48
5.60179e-52
2.29892e-55
9.44744e-59
3.86736e-62
1.58722e-65
6.53677e-69
2.68327e-72
1.06292e-75
4.55502e-79
2.49156e-82
7.48541e-86
2.91469e-89
1.28334e-91
8.42061e-95
1.36563e-98
7.40849e-102
2.60101e-105
4.63372e-109
3.597e-111
3.04364e-114
6.83976e-118
2.36556e-121
4.31718e-124
5.67889e-128
7.82144e-131
3.51371e-134
1.26606e-136
6.87703e-140
9.51133e-144
2.72619e-145
1.00817
1.01299
0.998723
1.04081
1.00075
0.999129
1
-1.70683e-24
-1.19557e-18
4.78121e-17
3.48156e-18
1.22784e-20
7.65277e-24
2.73504e-27
4.32988e-31
1.34475e-34
5.53099e-38
2.38097e-41
9.95617e-45
4.18358e-48
1.77528e-51
7.40478e-55
3.58173e-58
1.52557e-61
6.42354e-65
2.85674e-68
9.81089e-72
1.37098e-74
2.81019e-78
8.51503e-82
2.34664e-84
2.97588e-87
5.42903e-91
1.09643e-94
3.95659e-97
7.08006e-101
2.70514e-104
3.55691e-107
2.14436e-109
1.03122e-112
1.12433e-116
5.66121e-119
7.31348e-123
9.82629e-126
1.02912e-128
4.25517e-132
1.10964e-135
3.96326e-139
2.66038e-142
9.66902e-145
1.12383
1.03397
0.987957
1.0241
0.981863
1.00146
1.00087
-1.28045e-19
-2.58544e-18
1.00974e-31
2.19245e-17
2.9374e-19
6.0557e-23
4.2227e-27
1.152e-30
4.444e-34
1.80727e-37
7.60605e-41
3.17728e-44
1.4053e-47
5.55968e-51
2.81273e-54
9.81876e-58
4.66782e-61
2.14516e-64
1.21064e-67
5.94626e-71
2.77179e-74
7.31141e-77
1.68419e-80
2.12515e-83
2.11538e-87
9.39476e-90
1.42193e-93
1.36138e-97
1.66271e-100
7.68203e-103
3.73684e-106
1.66728e-110
1.36636e-112
1.62244e-116
1.39579e-120
4.99351e-124
8.65836e-127
1.9417e-128
7.13436e-132
4.39443e-134
2.27988e-137
3.03355e-140
3.62453e-144
1.02216
1.01733
0.8965
1.00674
1.07741
1.01738
1.00116
-1.41426e-18
-8.82061e-20
-2.01949e-31
1.70586e-17
2.70626e-19
6.43666e-23
3.56596e-27
9.69718e-31
3.73404e-34
1.55114e-37
7.17208e-41
2.86386e-44
1.43652e-47
5.21028e-51
2.16749e-54
8.84783e-58
5.04036e-61
1.5552e-64
1.04551e-66
1.47828e-70
2.74427e-74
8.38726e-77
2.39852e-79
1.79154e-82
6.44542e-86
3.127e-90
2.52615e-93
4.06466e-96
7.90974e-100
5.65439e-103
9.62176e-106
7.66401e-110
1.40913e-113
5.03412e-115
1.78877e-117
7.67539e-121
8.44778e-125
2.54916e-128
2.78483e-131
2.03999e-135
5.52917e-139
3.28426e-142
3.31984e-145
1.02381
1.29363
0.999785
0.979501
1.03621
1.00532
1.00182
-1.98461e-16
-2.97321e-18
4.44661e-17
3.28961e-18
1.20118e-20
8.4537e-24
3.30225e-27
5.08524e-31
1.5322e-34
6.28252e-38
2.66221e-41
1.1276e-44
4.76575e-48
2.17328e-51
8.48241e-55
3.70832e-58
1.5076e-61
8.03355e-65
2.64855e-68
1.07485e-71
5.48805e-75
1.34039e-77
2.1479e-81
4.57018e-85
4.24328e-88
9.20861e-92
8.98349e-95
2.95399e-98
5.592e-101
1.73619e-104
6.23328e-107
4.89055e-110
6.70153e-113
6.53857e-117
5.54476e-120
1.30775e-123
1.97246e-127
1.83802e-129
4.99858e-133
4.00675e-135
1.08054e-138
7.58684e-143
1.75893e-144
1.00376
0.963798
1.02381
0.943054
1.04625
0.966019
1
-1.73395e-19
-6.92344e-20
1.57658e-16
4.33673e-19
2.06913e-21
7.80112e-24
1.93771e-27
1.53248e-31
4.95585e-35
2.0351e-38
8.43167e-42
3.48916e-45
1.44289e-48
5.93353e-52
2.44855e-55
1.00546e-58
4.09634e-62
1.67265e-65
7.0074e-69
3.10966e-72
1.17539e-75
4.6086e-79
2.85358e-82
8.12247e-86
6.09787e-89
3.68982e-92
8.73839e-96
4.96181e-99
8.54846e-102
1.30855e-105
2.51773e-108
1.65044e-111
1.37574e-115
3.32279e-119
2.49628e-121
6.0615e-124
1.92853e-127
1.81545e-131
3.14481e-135
1.12934e-138
4.3829e-142
3.5884e-145
1.53903e-145
1.12435
1.08712
1.10917
1.01541
1.03261
1.00608
0.283591
-3.52871e-22
-2.45188e-21
8.89549e-19
4.81597e-20
9.94553e-23
1.49287e-26
1.80634e-30
5.94925e-34
2.43451e-37
1.01835e-40
4.26512e-44
1.79356e-47
7.47991e-51
3.07318e-54
1.28678e-57
5.33958e-61
2.23548e-64
2.21187e-67
4.71745e-71
1.71032e-74
7.61879e-78
2.92772e-81
1.2357e-84
1.66827e-86
8.06531e-90
6.66708e-94
1.46351e-97
8.92115e-100
2.77468e-103
1.55921e-106
1.93291e-110
4.2013e-114
3.80778e-116
8.83268e-119
1.36958e-121
2.6246e-125
2.3706e-129
6.76926e-133
3.3249e-136
3.83942e-138
8.43165e-141
1.02267e-143
2.30675e-145
1.05698
1.02153
0.992763
0.990834
1
1.00011
-1.56755e-16
-2.86513e-18
-1.72433e-23
7.71905e-18
5.58962e-19
1.8831e-21
1.93977e-25
1.4442e-29
5.11533e-33
2.11742e-36
8.62011e-40
3.55196e-43
1.45685e-46
6.43793e-50
2.47609e-53
1.00687e-56
4.01913e-60
1.61931e-63
6.79171e-67
2.80339e-70
1.21299e-73
5.93702e-77
3.55501e-79
7.78138e-83
9.63225e-87
4.68966e-89
4.07469e-92
1.85226e-95
1.10444e-99
1.88058e-102
5.0697e-105
8.76483e-109
4.26876e-111
5.23993e-115
8.05723e-119
1.3758e-122
2.50476e-124
7.79607e-128
1.25031e-130
1.04912e-133
5.31704e-137
2.45581e-140
6.25146e-144
2.50273e-145
1.01114
1.02269
0.867185
0.982614
0.997836
1.0007
2.60523e-08
3.43662e-14
4.54124e-17
1.44567e-17
1.72389e-18
2.36266e-20
2.05062e-23
1.93634e-27
7.32841e-31
5.42382e-34
3.82504e-37
2.64023e-40
1.81883e-43
1.25064e-46
8.58891e-50
5.88593e-53
4.02356e-56
2.7465e-59
1.87067e-62
1.27115e-65
8.62648e-69
5.84192e-72
3.94604e-75
2.66055e-78
1.78936e-81
1.20061e-84
8.04673e-88
5.38194e-91
3.59465e-94
2.39644e-97
1.59319e-100
1.05642e-103
6.9955e-107
4.62646e-110
3.05331e-113
2.01155e-116
1.32251e-119
8.67519e-123
5.68252e-126
3.71189e-129
2.42041e-132
1.57648e-135
1.02444e-138
3.95405e-142
1.05664
0.931227
0.958594
1.02914
0.999531
0.990458
8.49667e-07
7.53265e-14
7.274e-17
1.06372e-17
4.57643e-19
1.88214e-21
6.18522e-25
9.85316e-29
5.83859e-32
4.28698e-35
3.05202e-38
2.14155e-41
1.50076e-44
1.04867e-47
7.32209e-51
5.09878e-54
3.54341e-57
2.45959e-60
1.70348e-63
1.17706e-66
8.11919e-70
5.58625e-73
3.8342e-76
2.62718e-79
1.80205e-82
1.22938e-85
8.36188e-89
5.68817e-92
3.86295e-95
2.61695e-98
1.76969e-101
1.19272e-104
8.03243e-108
5.3943e-111
3.61517e-114
2.41778e-117
1.6148e-120
1.07778e-123
7.16396e-127
4.75744e-130
3.15184e-133
2.08483e-136
1.37601e-139
5.41413e-143
1.03595
1.00949
1.0044
0.994158
1.02792
1.00728
0.40932
2.92327e-11
1.31897e-15
1.36671e-15
1.25555e-17
2.48567e-21
1.05948e-24
5.10428e-28
3.21234e-31
2.38542e-34
1.77335e-37
1.29496e-40
9.39228e-44
6.79047e-47
4.89437e-50
3.51681e-53
2.51729e-56
1.79653e-59
1.27692e-62
9.04686e-66
6.39412e-69
4.50293e-72
3.16134e-75
2.21742e-78
1.54986e-81
1.08048e-84
7.51764e-88
5.21277e-91
3.59909e-94
2.48149e-97
1.70704e-100
1.17083e-103
8.01288e-107
5.46737e-110
3.71916e-113
2.52456e-116
1.71178e-119
1.15751e-122
7.81192e-126
5.26012e-129
3.53162e-132
2.36553e-135
1.5804e-138
6.2534e-142
1.08193
0.988668
0.983638
1.04319
1.00102
0.998814
1.00024
1.87571e-10
2.06596e-16
1.25962e-16
2.4208e-17
3.38228e-19
2.81505e-22
3.05136e-26
1.22219e-29
9.07707e-33
6.543e-36
4.59987e-39
3.22598e-42
2.26121e-45
1.58283e-48
1.10561e-51
7.70319e-55
5.36508e-58
3.72377e-61
2.58032e-64
1.78567e-67
1.23348e-70
8.51158e-74
5.8542e-77
4.01971e-80
2.75468e-83
1.88319e-86
1.28543e-89
8.75931e-93
5.95787e-96
4.04465e-99
2.73963e-102
1.85172e-105
1.24916e-108
8.40766e-112
5.66347e-115
3.79878e-118
2.54248e-121
1.69679e-124
1.13158e-127
7.52954e-131
5.00129e-134
3.31436e-137
1.30083e-140
1.1184
1.01883
0.987718
1
1.00938
1.00304
1.00152
4.92396e-09
7.54053e-15
2.48079e-16
2.42082e-16
9.02811e-18
1.08197e-20
7.79721e-25
2.33473e-28
1.72045e-31
1.21439e-34
8.37197e-38
5.75939e-41
3.95674e-44
2.71529e-47
1.85998e-50
1.27094e-53
8.67527e-57
5.9087e-60
4.01547e-63
2.72616e-66
1.84717e-69
1.24859e-72
8.42614e-76
5.67655e-79
3.81574e-82
2.562e-85
1.71604e-88
1.1473e-91
7.66213e-95
5.10646e-98
3.39526e-101
2.2544e-104
1.495e-107
9.89646e-111
6.54234e-114
4.31585e-117
2.84098e-120
1.86777e-123
1.2257e-126
8.02745e-130
5.2506e-133
3.42789e-136
1.32762e-139
1.08011
1.00413
0.897184
0.967848
1.03861
1.03382
1.00175
1.62843e-08
8.47317e-15
3.98374e-16
4.48085e-16
1.65671e-17
1.94389e-20
1.43264e-24
4.27712e-28
3.14748e-31
2.22287e-34
1.53223e-37
1.05387e-40
7.2359e-44
4.95951e-47
3.39427e-50
2.3178e-53
1.57988e-56
1.07454e-59
7.29088e-63
4.94453e-66
3.3462e-69
2.25918e-72
1.52283e-75
1.0235e-78
6.8631e-82
4.60026e-85
3.07752e-88
2.05339e-91
1.36819e-94
9.09767e-98
6.03756e-101
4.00194e-104
2.64746e-107
1.74821e-110
1.15272e-113
7.5834e-117
4.97561e-120
3.25989e-123
2.13195e-126
1.39127e-129
9.07278e-133
5.90867e-136
2.28454e-139
1.00419
0.116487
0.798095
1.00453
0.840628
1.01005
1.00299
6.83755e-10
2.25939e-16
6.19527e-17
1.59661e-17
2.14049e-19
1.60241e-22
1.81676e-26
7.80113e-30
5.77313e-33
4.17178e-36
2.9525e-39
2.08232e-42
1.46975e-45
1.03941e-48
7.30561e-52
5.11553e-55
3.59122e-58
2.52067e-61
1.75157e-64
1.22055e-67
8.49225e-71
5.89589e-74
4.09699e-77
2.82282e-80
1.94767e-83
1.34259e-86
9.22861e-90
6.34346e-93
4.33471e-96
2.96031e-99
2.02026e-102
1.37555e-105
9.31666e-109
6.31179e-112
4.26996e-115
2.87981e-118
1.93745e-121
1.30068e-124
8.71439e-128
5.84025e-131
3.89045e-134
2.59478e-137
1.03873e-140
1.09769
0.993569
1.03042
1.02137
0.94005
1.00034
1.00004
4.00188e-12
1.56e-15
1.62192e-15
3.05597e-17
8.35792e-21
1.21704e-24
6.0853e-28
4.06288e-31
2.99468e-34
2.18713e-37
1.57714e-40
1.13196e-43
8.10225e-47
5.7866e-50
4.12028e-53
2.92423e-56
2.07041e-59
1.46185e-62
1.02881e-65
7.22097e-69
5.05342e-72
3.5262e-75
2.45729e-78
1.70892e-81
1.18507e-84
8.19759e-88
5.65265e-91
3.88688e-94
2.66835e-97
1.82709e-100
1.24776e-103
8.5077e-107
5.78464e-110
3.9214e-113
2.65392e-116
1.7917e-119
1.20641e-122
8.1085e-126
5.43759e-129
3.63461e-132
2.42584e-135
1.61735e-138
6.38648e-142
1.19213
0.999974
0.784971
1.01675
1.02382
1.00266
0.291951
1.43131e-13
1.36943e-16
8.54229e-18
2.07157e-19
4.57354e-22
1.42619e-25
3.80653e-29
2.43395e-32
1.80939e-35
1.31234e-38
9.37236e-42
6.67408e-45
4.74295e-48
3.36436e-51
2.37987e-54
1.67944e-57
1.18245e-60
8.31316e-64
5.82294e-67
4.07143e-70
2.84114e-73
1.97676e-76
1.37345e-79
9.51664e-83
6.57346e-86
4.53202e-89
3.11735e-92
2.14016e-95
1.46508e-98
1.00127e-101
6.82877e-105
4.6444e-108
3.15348e-111
2.1358e-114
1.44291e-117
9.73051e-121
6.54417e-124
4.39604e-127
2.94489e-130
1.96853e-133
1.31431e-136
8.75767e-140
3.47559e-143
1.04342
1.01873
1
0.999573
0.855123
1.01422
7.44408e-07
1.76539e-14
2.28631e-17
9.61648e-18
9.48445e-19
1.13056e-20
1.01366e-23
1.14686e-27
4.27905e-31
3.15836e-34
2.24642e-37
1.55883e-40
1.07926e-43
7.45851e-47
5.14572e-50
3.54117e-53
2.4313e-56
1.66699e-59
1.14023e-62
7.78045e-66
5.3006e-69
3.60425e-72
2.44524e-75
1.65606e-78
1.11895e-81
7.54e-85
5.06955e-88
3.40313e-91
2.27968e-94
1.52503e-97
1.01781e-100
6.77545e-104
4.50171e-107
2.98689e-110
1.97783e-113
1.3073e-116
8.62304e-120
5.67445e-123
3.7272e-126
2.44321e-129
1.5983e-132
1.04461e-135
6.80831e-139
2.63534e-142
0.964014
1.02753
0.99337
0.991761
0.96928
0.999436
1.57087e-08
-1.36147e-18
-4.039e-31
4.0699e-18
2.46217e-19
5.81081e-22
4.27988e-26
4.13851e-30
1.5344e-33
6.75122e-37
2.58811e-40
1.10636e-43
4.76321e-47
2.98332e-50
8.76045e-54
4.2266e-57
1.64962e-60
5.27678e-64
6.43959e-67
5.80269e-70
1.25259e-73
3.66197e-77
1.10919e-79
1.30685e-83
1.03382e-86
1.81685e-90
3.09709e-93
1.49357e-95
6.43764e-99
2.24731e-102
2.09458e-105
2.05144e-108
7.40115e-113
2.43896e-114
1.32142e-117
3.62452e-122
4.45068e-125
5.60901e-129
3.73226e-131
2.99814e-133
8.11902e-137
2.52488e-140
3.24586e-143
2.93259e-145
1.02788
0.996362
1.01898
1.02907
0.991805
0.99994
7.1758e-07
-6.58294e-18
6.77253e-36
7.46247e-19
4.8892e-20
1.42056e-22
2.24755e-26
2.239e-30
7.21389e-34
2.91025e-37
1.21473e-40
5.12624e-44
2.16856e-47
8.7553e-51
3.80912e-54
1.52935e-57
8.04713e-61
4.54434e-64
1.23893e-67
5.75855e-71
3.16425e-74
1.01721e-77
2.92726e-80
6.79243e-84
9.73378e-87
9.72177e-90
8.14561e-93
1.55254e-96
1.08382e-99
3.83466e-103
7.93688e-107
2.97992e-110
1.4917e-111
1.36852e-114
1.12177e-118
1.61814e-122
4.84682e-126
1.19449e-127
6.17299e-131
5.56737e-135
4.87141e-138
5.34814e-142
9.94678e-145
1.44551e-145
1.04495
1.02772
1.06072
1.00274
1.03592
1.00704
0.408429
1.34608e-11
3.33607e-15
1.56378e-16
1.44407e-19
2.09898e-21
8.90158e-24
2.3669e-27
1.76671e-31
5.59443e-35
2.29433e-38
9.50446e-42
3.93333e-45
1.62163e-48
6.68593e-52
2.7452e-55
1.13143e-58
4.63015e-62
1.91052e-65
7.72352e-69
3.25242e-72
1.27274e-75
5.15966e-79
2.82636e-82
8.92686e-86
3.47546e-89
1.78716e-92
1.3752e-95
4.94871e-99
6.91727e-102
3.14848e-105
7.94259e-109
5.33836e-112
1.06584e-114
1.70618e-117
1.8455e-121
2.55614e-125
8.21962e-128
4.03844e-130
8.16083e-134
1.36016e-136
5.90131e-140
1.7923e-143
2.86698e-145
1.04568
0.990398
0.940458
1.01821
1.00427
0.999096
1.00013
7.97887e-11
-1.28232e-18
4.93127e-17
3.60462e-18
1.26021e-20
7.56058e-24
2.69083e-27
4.29503e-31
1.33516e-34
5.49107e-38
2.33173e-41
9.83997e-45
4.16559e-48
1.75268e-51
7.33696e-55
3.18256e-58
1.51984e-61
5.76248e-65
2.53938e-68
9.50992e-72
2.16292e-74
1.05994e-77
1.21647e-81
2.13044e-84
1.26143e-87
3.39456e-91
7.43481e-95
8.92769e-98
2.43519e-101
2.25233e-104
4.54882e-107
4.24002e-111
5.70745e-113
2.95893e-116
2.04633e-119
2.95691e-122
2.88278e-126
1.65317e-129
5.03517e-132
2.42627e-135
1.57282e-139
3.67203e-143
2.82798e-145
1.10705
1.04114
1
1.00619
0.988606
1.00367
1.00143
2.48596e-09
-2.57297e-18
1.00974e-31
2.26421e-17
3.00293e-19
6.12297e-23
4.22688e-27
1.16061e-30
4.40915e-34
1.81768e-37
7.63904e-41
3.33214e-44
1.37833e-47
5.56324e-51
2.37857e-54
1.0043e-57
4.56308e-61
2.0284e-64
2.60815e-67
3.77342e-71
1.28527e-74
5.96302e-78
9.85578e-81
1.00436e-83
9.68086e-88
6.17564e-90
1.15774e-93
2.62118e-96
1.77428e-100
1.03602e-102
3.79084e-106
2.52429e-108
5.43519e-112
4.94802e-116
7.02084e-118
1.96926e-121
1.2395e-124
2.88082e-128
5.50357e-132
9.67426e-134
2.87703e-137
2.66579e-140
3.36489e-143
1.17388
0.761445
0.976909
0.933327
0.934689
1.01768
1.00157
9.30864e-09
-8.95605e-20
-2.90436e-37
1.74989e-17
2.76046e-19
6.55997e-23
3.85946e-27
1.03593e-30
3.96025e-34
1.64377e-37
6.94165e-41
2.93783e-44
1.81362e-47
5.54922e-51
3.0791e-54
1.19279e-57
3.90428e-61
3.20087e-64
7.07848e-68
4.55458e-71
1.2115e-74
4.70043e-78
1.2504e-79
1.1328e-82
8.07078e-86
7.52384e-90
5.3903e-93
6.66822e-97
8.03022e-100
6.85822e-103
1.23178e-105
8.70296e-110
1.69428e-111
5.8965e-115
2.46139e-119
5.64752e-121
1.99015e-124
2.96953e-128
2.80564e-132
6.76468e-135
3.04028e-137
2.88648e-141
4.55624e-145
0.575031
1
0.767125
0.9651
0.933692
1.00535
1.00265
3.32473e-10
-2.9923e-18
4.29307e-17
3.19096e-18
1.17728e-20
8.46687e-24
3.29378e-27
5.05738e-31
1.52663e-34
6.26156e-38
2.66395e-41
1.12527e-44
4.75221e-48
2.17631e-51
8.51982e-55
3.61985e-58
1.53868e-61
6.59248e-65
3.70769e-68
1.16269e-71
5.68414e-75
1.10567e-77
2.36767e-81
4.40185e-85
3.50333e-88
6.87513e-92
7.26785e-95
2.47699e-97
8.33531e-101
1.25089e-104
6.48761e-107
1.55623e-110
1.38812e-114
3.7407e-117
4.79482e-121
8.61868e-123
2.8114e-126
1.01636e-129
8.34919e-134
2.5565e-137
1.13136e-140
3.53802e-143
2.98381e-144
1.03033
1.11003
1.04246
1.00155
0.828941
1.00198
1.00001
1.635e-12
1.58605e-15
1.65142e-16
2.31304e-19
2.05389e-21
7.70305e-24
1.91137e-27
1.5197e-31
4.91702e-35
2.01934e-38
8.36745e-42
3.46428e-45
1.43073e-48
5.89093e-52
2.4302e-55
1.00056e-58
4.06896e-62
1.72825e-65
6.97122e-69
3.06418e-72
1.45905e-75
4.75092e-79
3.58699e-82
8.76894e-86
3.34035e-89
2.59542e-92
1.27417e-95
3.10626e-99
2.10319e-102
2.20197e-105
7.74049e-109
1.19692e-111
1.09053e-113
3.90541e-117
3.03601e-120
3.94666e-124
5.54489e-128
2.81757e-131
7.52141e-135
2.87058e-138
1.13059e-141
5.65453e-145
2.16471e-145
1.00734
0.414097
0.826968
1.08683
1.02212
1.00611
0.291242
-1.94173e-21
4.81526e-23
8.53158e-19
4.50092e-20
8.99208e-23
1.37264e-26
1.69725e-30
5.55941e-34
2.27298e-37
9.51624e-41
3.9614e-44
1.65749e-47
6.9647e-51
2.85793e-54
1.20764e-57
4.98158e-61
2.10422e-64
8.60789e-68
3.55701e-71
1.47742e-74
6.30981e-78
2.43865e-81
1.88774e-84
1.03911e-86
3.82246e-90
3.75989e-93
2.0166e-96
1.01741e-99
5.45402e-103
1.86879e-106
1.35608e-109
1.22023e-113
6.98614e-116
1.35909e-119
1.51018e-123
1.5346e-125
2.09674e-128
2.69784e-131
2.34785e-135
1.66885e-138
2.04682e-141
1.08832e-143
2.23581e-145
1.02409
1.00514
1.00397
0.994175
1.00216
0.999961
5.64987e-07
-3.18278e-18
-2.01949e-31
5.57866e-18
4.09254e-19
1.409e-21
1.50362e-25
1.10694e-29
3.89737e-33
1.61136e-36
6.57814e-40
2.74469e-43
1.11617e-46
4.53196e-50
1.89583e-53
7.82891e-57
3.1044e-60
1.27858e-63
6.14895e-67
3.39719e-70
2.11079e-73
4.85359e-77
2.53304e-80
3.09536e-83
3.72837e-87
5.95641e-89
2.16418e-92
1.22106e-96
1.03447e-99
2.60362e-102
1.46469e-105
1.83058e-109
4.34517e-111
1.5371e-114
7.78422e-118
1.55081e-120
4.4238e-124
2.37329e-127
1.02236e-131
1.20672e-133
1.02039e-136
4.01944e-140
1.01244e-143
2.64069e-145
0.0292309
0.987455
0.0508058
1.0025
0.0349906
0.987588
0.0576462
0.159802
1.00806
0.818154
0.9876
0.172101
1.00686
0.820078
0.99595
1.00117
1.00004
1.00731
0.991628
1.00087
1.00023
0.999994
1.00359
1.00133
0.999475
1
1.00005
1.00142
1.00226
1.00164
1.00244
1.0029
1.00244
0.974083
1.00227
1.00189
0.968104
1.00444
1.0228
1.00181
0.999993
1.00471
1.00338
0.961718
1.00191
1.01438
1.00648
0.986488
1.00154
1.00019
1.01261
1
0.997214
1
1.01472
0.999897
0.958678
0.945053
0.366463
1.00131
0.955831
0.993145
0.375745
0.206407
1.01281
0.0130668
1.00569
0.21209
1.01467
0.0157686
0.0353405
0.989487
0.0589148
1
0.0353948
1
0.0585861
0.170485
1.00703
0.819525
1.00002
0.171155
1.00744
0.820103
0.991114
1.00114
1.00059
1.00715
0.991064
1.00211
1.00029
1.00028
1.00007
1.00169
0.999867
1.00002
1.00015
1.00138
1.00294
0.998419
1.00272
1.00378
1.00256
0.999996
1.00214
1.00196
0.991454
1.00483
1.02818
1.00137
0.990634
1.00458
1.00606
0.972801
1.00192
1.00247
1.0061
0.999466
1.00159
1.00029
1.02135
0.999877
1.00362
1.00009
1.0087
0.999799
0.955789
0.995329
0.377228
1.00524
0.956271
1.00363
0.377118
0.213857
1.01472
0.0171145
1.01341
0.217286
1.01199
0.0184846
0.0344353
0.999705
0.0574931
0.998302
0.0293305
0.999196
0.0514227
0.172415
1.00763
0.820005
1.00373
0.169469
1.00816
0.818352
0.991629
1.00258
1.00059
1.00666
0.995975
1.00457
1.00006
1.00013
1.00019
1.00153
1.00051
0.99995
1.00057
1.00151
1.00291
1
1.00248
1.00574
1.00243
1.00146
1.00215
1.00165
0.998866
1.00481
1
1.00159
0.995887
1.00478
1.00617
1
1.00192
1.01507
1.00457
0.990303
1.00186
1.00039
1.00626
0.999815
1.02581
1.00017
1.0066
1
0.95619
1.00214
0.374897
1.00697
0.958304
1.00045
0.363431
0.215071
1.01265
0.018545
0.989938
0.206115
1.01059
0.0108651
1
1.01386
0.878397
1.0422
1.00061
0.999028
0.892962
1
1.00015
0.997518
1.00317
0.998085
1
1.00023
-1.11908e-16
-1.05431e-17
-9.48492e-17
1.58052e-08
7.97099e-12
3.84498e-08
7.96981e-12
1.00338
1.04709
1.01726
1.00999
1.00078
1.03989
1.01792
1
1
0.989046
0.996618
0.999999
0.990603
0.999818
-3.94566e-17
0.121834
-7.93195e-23
6.36566e-07
2.80952e-11
0.127431
1.38032e-11
1.00888
1.01579
1.00519
1.0352
1.00811
1.01574
1.00324
1.00204
1.0051
1.00316
1.00729
1.00496
1.00345
1.00185
-1.89988e-19
1
0
0.408275
1.13929e-08
1
1.47145e-09
0.999812
1.01296
0.999909
1.0002
0.999996
0.999991
0.990775
0.968125
1.00001
1
0.99948
1
1
0.96672
-1.73472e-21
1.00077
-6.91497e-18
1.00061
6.71458e-08
1.00161
2.48287e-07
0.963622
0.997895
0.921033
1.01483
1.01266
0.916157
0.983558
1.00169
1.00417
0.995883
1.00178
1.00391
0.997579
1.00138
0.000158727
1.00129
0.0093212
1.00184
0.000636686
1.00185
0.0153891
0.892175
0.957094
1.01017
1.02455
0.911597
1.07336
1.08546
1.00125
1.00576
1.03649
1.04809
1.00641
1.02461
1.00072
0.0131987
1.0017
0.000276252
1.00189
0.0195393
1.00235
0.00100907
1.01219
1.16947
0.962247
0.815556
1.01115
1.14616
0.835686
1.00613
1.01017
1.02131
1.00798
1.01028
1.04931
1.00633
-1.3294e-14
1.00013
-3.51037e-15
1.00307
3.1169e-07
1.00045
8.63022e-08
0.889965
1.02198
0.98474
0.98067
0.847366
1.00648
0.998168
0.99234
1
0.998295
0.980431
0.999999
0.99663
0.992242
-6.08221e-18
0.548869
-1.4327e-17
1.00001
1.48032e-09
0.547872
1.60346e-08
0.90841
1
0.921901
1.01352
0.970722
0.990991
0.911384
1.00109
1.00346
1
1.00394
1.00348
0.997096
1.00129
-2.24798e-19
-2.49711e-20
-2.66003e-25
0.291643
3.76806e-11
4.35406e-06
4.77612e-11
0.972297
1.00053
0.998115
0.852785
0.991235
0.972868
0.90352
1
1.00005
1.00985
1.00025
1.00007
1.00992
1
-2.31719e-17
-1.106e-15
-2.60897e-16
6.50174e-07
5.32297e-12
2.23746e-08
3.21773e-12
0.98432
0.969258
0.926239
0.972196
0.989617
0.980461
0.992975
1
1.00007
0.99789
1.0002
1
0.998467
1.00012
3.18933e-11
6.08843e-08
3.18927e-11
2.60953e-08
3.18933e-11
6.11046e-08
3.18928e-11
0.999522
1.03053
1.01626
0.996659
1.00081
1.0274
1.01635
1
1
0.997892
0.994926
1
1
0.997853
1.14629e-10
0.128073
5.58106e-11
9.01353e-07
1.14769e-10
0.127848
5.58106e-11
1.0094
1.01505
1.00493
1.03469
1.00942
1.01652
1.00249
1.00252
1.00483
1.00333
1.00725
1.00269
1.00495
1.00339
1.85565e-08
1
3.02064e-09
0.409403
1.85992e-08
1
3.0073e-09
0.994857
0.958785
0.999263
1.00012
0.951165
0.998745
1.00295
0.960818
0.996014
0.98674
0.998776
0.982993
0.986785
0.941101
1.10451e-07
1.00167
4.27357e-07
1.0005
1.12455e-07
1.00169
3.81474e-07
0.962918
0.810364
0.905584
1.03163
1.03191
1.14055
0.941083
1.00062
1.00342
1.0007
1.00347
1.00096
1.00311
1.00143
0.000695648
1.00215
0.0162964
1.00192
0.000693531
1.00181
0.0163138
0.967961
1.0286
1.02125
0.927236
1.0607
1.09756
0.920606
1
1.00252
1.02111
1.03538
1.00046
1.00149
0.977452
0.0204912
1.00298
0.00109766
1.00171
0.0204539
1.00264
0.00109547
0.918171
0.981668
0.943133
0.776173
0.75584
1.02406
0.998753
1.00664
1.00833
1.04972
1.00713
1.00705
1.0078
1.03167
4.87383e-07
1.00067
1.35464e-07
1.00307
4.92583e-07
1.00052
1.33834e-07
1.00873
1.00584
1.023
1
0.927827
1.04329
0.998263
0.97816
0.999753
1.01725
0.987471
0.98575
0.999745
1.04407
2.89809e-09
0.551559
2.07179e-08
1
2.97993e-09
0.555556
1.77862e-08
1
0.991701
1
1.0113
0.977064
1.00415
1.02077
1.0021
1.00361
1.00184
1.00253
1.00218
1.00336
1.00135
1.4039e-10
1.21567e-05
2.30538e-10
0.291546
1.4039e-10
1.49271e-05
2.30305e-10
0.995117
0.99655
0.978736
0.998052
0.987633
0.997609
1.00677
0.99827
1.00011
0.98766
1.01771
1
1
0.973952
2.62665e-11
4.00514e-08
1.46902e-11
6.40697e-07
2.63149e-11
4.2037e-08
1.46901e-11
0.980146
0.979643
0.99323
0.977177
0.981499
0.9679
0.983843
1
1
0.998419
0.999068
0.999999
0.998766
1.00006
8.05808e-12
3.90819e-08
8.05655e-12
-5.31576e-18
-1.25872e-16
-1.15237e-17
-9.83497e-17
0.999615
1.02761
1.01513
1.00759
1.00046
1.01682
1.01715
1.0004
1.00186
1
0.999894
1.00067
1.00267
0.998388
2.84947e-11
0.127257
1.39567e-11
-4.82272e-16
-3.82462e-17
0.121708
-9.51653e-23
1.01061
1.02088
1.00424
1.03713
1.01063
1.01387
1.00435
1.00241
1.00513
1.00349
1.00701
1.00278
1.00539
1.00371
1.143e-08
1
1.4903e-09
0.399121
-1.75896e-19
1
0
0.927618
1.00522
1.00043
1.00705
0.923123
1.00917
1.00213
0.99323
0.995952
0.927601
0.999766
0.992562
0.993293
0.927013
6.89084e-08
1.00162
2.65075e-07
1
0
1.00063
-7.3288e-18
0.997773
1.1021
1
0.971053
0.99702
0.922334
1.00873
0.998259
1.00232
1.00155
1.00428
1
1.00224
1.00192
0.0006361
1.00208
0.0154097
1.00095
0.000155745
1.00123
0.00930655
1.08079
1
0.86321
1.07394
0.959608
1.04284
0.909553
1.00011
1.00041
0.897471
1.00238
1
1.00002
0.920259
0.019438
1.00289
0.00100774
1.00104
0.0130494
1.00166
0.000273332
0.749924
1.00268
1.02196
1.05634
1.01613
0.774161
1.05084
1.00906
1.00627
1.03371
1.00201
1.01284
1.00568
1.02419
2.99904e-07
1.00064
8.48251e-08
1.00205
-1.1873e-14
1.0001
-4.92584e-15
0.83521
1.01678
1.00373
0.9248
1.00114
1.01111
1.01707
0.998389
1.00097
1.00559
1.01815
0.99845
1.00109
0.998598
1.50198e-09
0.558051
1.08383e-08
1
-3.21843e-18
0.558155
-1.17689e-17
0.973222
1.0026
1.03619
1.00348
0.939461
1.00988
1.01341
1.00116
1.00374
1.00099
1.00635
1.00161
1.00395
1.00197
3.82274e-11
5.95791e-06
4.87176e-11
0.284306
-5.18201e-19
-6.21642e-20
-1.85075e-25
0.981784
1.00634
1.03315
0.997119
0.949083
1.01108
1.02201
0.998086
0.999414
0.990186
0.994896
0.997197
0.999612
0.989861
6.11008e-12
2.54047e-08
3.6204e-12
-4.41946e-16
-2.4421e-17
-1.88646e-15
-3.3089e-16
0.570504
0.685354
0.00581369
0.0321126
0.0084365
0.569717
0.685438
0.999995
0.994944
1
0.987755
0.995317
0.999998
1
0.719755
0.0426139
0.734469
0.0537829
0.0457556
0.73561
0.718799
1
1.00213
1.00037
0.998661
0.997847
1
1.00012
0.57053
0.0331938
0.685959
0.0112563
0.00990938
0.572076
0.685696
0.999994
0.987219
0.995262
1
0.994058
0.999999
1
0.719304
0.0555903
0.049362
0.735823
0.047376
0.734818
0.720348
0.949084
0.875053
0.298308
0.164787
0.873846
0.304013
0.951426
1.00073
1.00238
1.00243
1.00747
1.00199
1.00257
1.00098
1
0.601242
1.0004
0.818889
0.601784
1.00045
1
1
0.996195
0.999999
0.999332
1
0.995269
1
0.948576
0.167593
0.870393
0.305664
0.872375
0.3055
0.949989
1.00098
1.00723
1.00187
1.00263
1.00172
1.00272
1.00071
1
0.818406
0.602272
1.00039
0.601645
1.00073
1
1.00081
1.00089
1
0.994027
1.001
1.00008
1.00124
1.00041
0.993087
1.00026
1.00095
0.993145
1.00034
1.00079
1.00063
1.00039
1.00012
1.00012
1.00046
1.00002
1.00166
1.0025
1.00732
1.00491
1.00331
1.00484
1.00326
1.00243
1.00136
0.992927
1.00113
1.00042
1.00139
1.00088
1.00099
1.00073
1.00086
0.99419
1.00026
0.993243
1.00049
1.00089
1.00096
1.00053
1.00083
1.00014
1.00087
1.00044
1.00091
0.999513
0.997928
1.00008
0.999942
0.998559
1.00007
1.00004
1.00287
1.00092
1.00761
1.00182
1.00007
1.00577
1.00495
1.00145
1.00024
1.00354
1.00228
1.0004
1.0034
1.0017
0.968624
0.999749
0.998608
0.999962
0.999631
0.999998
0.969444
0.999047
1.00032
0.999378
1
0.999558
1.00017
0.997089
1.00155
1.00048
0.99444
1.00438
0.998973
1.00524
1
1.0015
1.00214
1.00048
1.0027
1.00088
1.00342
1.00104
1.0034
1.00565
1.00315
1.00244
1.00487
1.00311
1.00455
1.00087
1.00466
1.0036
1.01014
1.00742
1.00361
1.00081
1.00303
1.00246
1.00369
1.00244
1.00268
1.00331
1.00351
1.00122
1.03228
1.00368
0.996265
1.00389
1.00089
1.00108
1.0035
1.00296
1.00396
1.00297
1.00454
1.0035
1.00306
1.00073
0.948973
0.986159
1.00165
0.977202
1.00011
1.0003
1.00295
1.00277
1.00261
1.00279
1.00313
1.00294
1.00277
1.00361
1.0022
1.00238
1.00188
1.00219
1.00249
1.00374
1.00335
1.00403
1.00858
0.893172
0.969723
1.01321
1.00439
1.00895
1.00476
1.00874
1.00429
1.00501
1.00908
1.00895
1.00099
1.08751
1.00296
0.986276
1.00383
0.98479
1
1.00361
1.00223
1.00186
1.00262
1.00212
1.00286
1.00358
1.00578
0.958032
0.937066
1.00948
0.940419
1.00787
1.00505
1.00897
1.00436
1.00505
1.0089
1.00517
1.00905
1.00892
1.00571
1.00885
1.00386
1.00258
1.00882
1.00387
1.0056
0.999392
0.982998
0.999538
0.962303
0.997527
1
0.999245
1.00369
1.00336
1.00192
1.00165
1.00323
1.00172
1.00412
1.00711
1.00825
1.01002
1.09224
1.00949
1.09278
1.0077
1.00595
1.00362
1.00901
1.00409
1.008
1.0044
1.00591
1.00061
0.98342
1.01337
1.00021
1.00696
1.00005
1.00045
1.00378
1.00195
1.00313
1.00176
1.00347
1.00202
1.00339
0.985062
0.998771
0.999111
1.00018
1
1
0.988191
0.926797
0.991987
1.00033
1.01381
0.987294
1.00032
0.922655
0.940505
0.99815
0.989849
0.999984
0.986829
0.990601
0.974551
0.988629
0.996336
1
0.984952
1
1.0029
0.978952
0.979372
1.00033
0.999323
0.99903
1
0.999105
0.988477
0.930686
1.01381
1.00421
1.0002
1.00168
1.00059
0.939784
0.954032
0.999949
0.996004
0.981411
0.99669
0.990385
0.982688
1.00021
1.00001
0.840765
0.956935
1.00002
0.842202
1.00037
1.00003
0.927832
0.997727
0.968731
0.961416
0.996034
1
1
0.647063
0.997631
0.372679
0.647738
0.994371
1
1.00274
1.0042
1.00349
0.99693
1.00364
0.99759
1.0011
1.00064
0.956418
1.00004
0.840542
1
0.840244
1.00064
1.00046
0.994546
1.0264
1.00006
1
1
1.0006
1
0.373841
0.647418
0.99271
0.647412
0.993465
1.00019
0.776917
0.923512
0.0646756
0.206218
0.925264
0.0691512
0.779674
1.00214
1.00919
1.00485
1.01383
1.01449
1.00301
1.00151
0.721673
0.0462605
0.607092
0.0132893
0.0494405
0.721912
0.614419
1
1.00083
1.00045
1.00156
1.00002
1.00731
1
0.773577
0.207436
0.921754
0.0748846
0.924397
0.0708692
0.772083
1.00231
1.02395
1.01476
1.00032
1.01957
1.00164
1.0004
0.724755
0.0132018
0.0541465
0.617521
0.0488811
0.71979
0.617043
0.57175
0.686845
0.012226
0.035764
0.571921
0.0127831
0.686356
1
0.99532
1
0.988553
1.00003
0.99665
1
0.719272
0.0504732
0.734993
0.0599041
0.7198
0.0513657
0.734445
1
1
1.0002
0.999196
0.998989
1
1.00021
0.57171
0.0362416
0.686513
0.0122374
0.0128074
0.572144
0.686152
1
0.998961
0.999916
1.00004
0.999354
1
1
0.719056
0.0597472
0.0506543
0.73539
0.0513823
0.734392
0.719136
0.948965
0.873238
0.307419
0.170612
0.949114
0.872883
0.307852
1.00068
1.00203
1.00294
1.00697
1.00092
1.0022
1.00256
1