/*--------------------------------*- C++ -*----------------------------------*\
| =========                 |                                                 |
| \\      /  F ield         | OpenFOAM: The Open Source CFD Toolbox           |
|  \\    /   O peration     | Version:  5.0                                   |
|   \\  /    A nd           | Web:      www.OpenFOAM.org                      |
|    \\/     M anipulation  |                                                 |
\*---------------------------------------------------------------------------*/
FoamFile
{
    version     2.0;
    format      ascii;
    class       volScalarField;
    location    "2.3";
    object      p;
}
// * * * * * * * * * * * * * * * * * * * * * * * * * * * * * * * * * * * * * //

dimensions      [1 -1 -2 0 0 0 0];

internalField   nonuniform List<scalar> 
8969
(
99.1317
96.3624
106.532
100.878
100.525
97.3576
94.4247
91.0683
88.5204
85.9714
83.4617
80.9762
78.5148
76.0985
73.6961
71.3245
68.9695
66.6493
64.3497
62.0772
59.8127
57.5685
55.3541
53.1344
50.9391
48.766
46.5907
44.4167
42.2629
40.134
38.0026
35.8961
33.8197
31.7349
29.6416
27.5797
25.5718
23.5999
21.6368
19.6653
17.7225
15.8253
13.9296
12.0054
10.111
8.26194
6.41548
4.56547
2.73469
0.914538
102.763
98.8619
99.4135
99.6835
98.1625
96.9128
95.7382
91.6311
88.8368
86.1811
83.5955
81.0592
78.5871
76.139
73.7158
71.3417
68.9764
66.6676
64.3785
62.0844
59.82
57.5722
55.3489
53.1372
50.9256
48.7387
46.5756
44.4172
42.2705
40.137
38.0183
35.9108
33.8169
31.7259
29.6448
27.5855
25.5671
23.5833
21.6161
19.6633
17.7276
15.8286
13.938
12.027
10.1204
8.25611
6.40826
4.56448
2.7363
0.91455
107.084
105.761
100.56
100.446
99.0308
98.6161
97.3592
92.6906
88.8832
86.2639
83.6522
81.0875
78.5921
76.1498
73.7288
71.3371
68.9929
66.691
64.3953
62.0837
59.8218
57.574
55.3358
53.1239
50.9268
48.7373
46.5668
44.4237
42.2803
40.1402
38.0228
35.9091
33.7947
31.7127
29.6511
27.602
25.5677
23.5742
21.6132
19.6643
17.7347
15.8263
13.922
12.0279
10.1311
8.25345
6.40306
4.56658
2.73998
0.914896
105.347
102.242
104.978
101.209
101.783
99.6011
98.2577
92.8825
88.8669
86.2715
83.6428
81.1058
78.5895
76.139
73.7283
71.3413
68.9925
66.6822
64.3686
62.0844
59.8293
57.5733
55.3415
53.1286
50.9394
48.7487
46.5658
44.4294
42.2753
40.1303
38.0229
35.904
33.79
31.7078
29.6587
27.6173
25.5731
23.5702
21.6155
19.6751
17.745
15.8148
13.9049
12.0145
10.1359
8.25466
6.40208
4.57296
2.74594
0.909628
111.222
108.929
99.4049
100.156
125.834
99.3772
97.6998
92.6616
88.6263
86.1236
83.5465
81.0274
78.556
76.1145
73.7237
71.3424
69.0001
66.6713
64.3483
62.0827
59.832
57.5718
55.3457
53.1331
50.9485
48.7644
46.5763
44.4246
42.2628
40.1231
38.0171
35.8972
33.7874
31.7064
29.6597
27.6261
25.5833
23.5753
21.618
19.6804
17.7408
15.8018
13.8843
12.0037
10.1328
8.25567
6.409
4.5869
2.75378
0.90757
120.082
97.9888
97.833
104.795
114.006
109.568
95.7729
91.6374
88.2486
85.9025
83.4079
80.9432
78.5035
76.086
73.7095
71.3361
69.0004
66.6684
64.3406
62.0752
59.828
57.5694
55.3468
53.1436
50.9545
48.7792
46.5871
44.4193
42.2549
40.1106
38.0066
35.8883
33.7785
31.7073
29.6627
27.6276
25.5931
23.5838
21.6208
19.6809
17.7342
15.7878
13.8706
11.9935
10.1275
8.25982
6.42495
4.6112
2.76359
0.910533
99.0597
45.6573
131.641
118.712
106.607
95.5329
95.0664
91.2054
87.9424
85.6728
83.2799
80.8665
78.4719
76.0698
73.6888
71.325
68.9925
66.6725
64.3418
62.0637
59.8168
57.5686
55.3473
53.1529
50.9611
48.7761
46.5931
44.416
42.2575
40.1256
38.007
35.8775
33.7725
31.7143
29.6659
27.6217
25.5972
23.5946
21.6217
19.6725
17.7267
15.7786
13.8661
11.9909
10.1231
8.26144
6.43111
4.61093
2.76929
0.919901
90.8971
95.7358
106.298
109.118
128.446
96.5367
94.2346
90.7022
87.7472
85.5483
83.1974
80.8182
78.4434
76.0517
73.6594
71.3215
68.9794
66.6589
64.356
62.0565
59.8061
57.5636
55.344
53.1537
50.9601
48.7818
46.5947
44.4126
42.2676
40.1303
38.0027
35.8753
33.7771
31.7212
29.6645
27.6116
25.5991
23.6118
21.6294
19.6679
17.7225
15.7914
13.8789
11.9958
10.1222
8.26376
6.4298
4.60002
2.76743
0.923841
103.075
106.197
104.133
104.761
97.8373
94.4803
93.3542
90.079
87.9079
85.5984
83.2333
80.8418
78.4465
76.0497
73.6688
71.32
68.9617
66.645
64.3495
62.0644
59.7997
57.5574
55.3495
53.1497
50.9637
48.7819
46.5922
44.4135
42.2619
40.1293
37.9901
35.8754
33.7958
31.7262
29.6572
27.6014
25.5939
23.6152
21.6338
19.6662
17.7209
15.7988
13.8941
11.9959
10.118
8.26439
6.42241
4.58848
2.75451
0.924662
95.4373
99.9549
94.8267
96.839
78.9304
94.6055
93.0993
90.4882
88.1617
85.7431
83.3259
80.8882
78.4555
76.0641
73.6787
71.3144
68.9627
66.6431
64.3448
62.0706
59.8025
57.5594
55.3529
53.1392
50.9527
48.7782
46.5938
44.415
42.2594
40.1309
37.9939
35.8829
33.8122
31.7345
29.6465
27.5867
25.5817
23.6087
21.6362
19.6647
17.7214
15.8138
13.9092
11.9967
10.1095
8.2656
6.42163
4.57604
2.74175
0.914948
96.198
95.071
103.677
99.1369
101.037
97.2058
94.4194
91.0689
88.5203
85.9714
83.4618
80.9763
78.5146
76.0985
73.6961
71.3244
68.9694
66.6493
64.3497
62.0769
59.8126
57.5686
55.3541
53.1343
50.9391
48.766
46.5906
44.4167
42.2627
40.1338
38.0026
35.8961
33.8197
31.7347
29.6415
27.5796
25.5717
23.5999
21.6367
19.6652
17.7224
15.8253
13.9297
12.0055
10.111
8.26219
6.41539
4.56546
2.73464
0.914611
99.7398
102.164
99.9538
99.6848
97.6676
98.5994
95.7202
91.6314
88.8367
86.1811
83.5955
81.0592
78.5871
76.1389
73.7158
71.3416
68.9763
66.6677
64.3785
62.0843
59.8201
57.5723
55.349
53.1371
50.9257
48.7387
46.5755
44.4171
42.2705
40.1373
38.0189
35.9109
33.8168
31.7259
29.6448
27.5854
25.567
23.5834
21.616
19.6633
17.7277
15.8287
13.9378
12.0268
10.1205
8.25611
6.40816
4.56448
2.73652
0.9145
106.724
101.33
101.513
103.836
99.9588
98.6076
97.2754
92.6907
88.8847
86.2638
83.6522
81.0874
78.5919
76.1497
73.7288
71.3371
68.9929
66.6907
64.3956
62.0835
59.8214
57.574
55.3356
53.1239
50.9267
48.7372
46.5668
44.4236
42.2803
40.1403
38.0225
35.9091
33.7948
31.7128
29.6512
27.602
25.5676
23.5742
21.6131
19.6642
17.7348
15.8263
13.9219
12.0277
10.1311
8.25341
6.40301
4.56664
2.73997
0.914886
110.992
101.505
105.608
101.109
101.769
99.6391
98.2624
92.8819
88.8674
86.271
83.6428
81.1057
78.5895
76.1389
73.7283
71.3413
68.9925
66.6821
64.3685
62.0843
59.8293
57.5733
55.3415
53.1287
50.9392
48.7484
46.5659
44.4294
42.2755
40.1302
38.0228
35.9041
33.7899
31.7078
29.6587
27.6173
25.5731
23.5702
21.6155
19.6752
17.745
15.8148
13.9049
12.0146
10.136
8.25464
6.40196
4.57294
2.74593
0.909512
110.936
108.844
101.776
124.592
119.203
99.6009
97.6746
92.6573
88.6265
86.1236
83.5465
81.0274
78.5557
76.1144
73.7237
71.3425
69.0001
66.6712
64.3482
62.0828
59.8321
57.5718
55.3454
53.1332
50.9483
48.7644
46.5764
44.4246
42.2623
40.1231
38.0172
35.8972
33.7874
31.7063
29.6598
27.6261
25.5833
23.5752
21.618
19.6807
17.7408
15.8015
13.8843
12.0036
10.1328
8.25565
6.40894
4.58691
2.75372
0.907616
111.694
97.6332
97.076
102.249
114.902
92.9365
95.7419
91.6282
88.2488
85.9025
83.4078
80.9429
78.5037
76.086
73.7095
71.3361
69.0004
66.6685
64.3405
62.0751
59.828
57.5693
55.3467
53.1436
50.9547
48.7793
46.5871
44.4191
42.2549
40.1107
38.0066
35.8878
33.7784
31.7076
29.6628
27.6273
25.5931
23.5838
21.6208
19.681
17.7341
15.7874
13.8706
11.9935
10.1274
8.2598
6.42492
4.61142
2.76329
0.910497
97.8253
97.0051
112.728
99.9061
117.174
95.7718
95.0251
91.199
87.9429
85.6726
83.28
80.8665
78.4719
76.0698
73.6888
71.325
68.9925
66.6723
64.3417
62.0637
59.8168
57.5686
55.3473
53.1529
50.9608
48.776
46.5931
44.416
42.2575
40.1255
38.0074
35.8774
33.7724
31.7143
29.6659
27.6217
25.5972
23.5946
21.6216
19.6726
17.7267
15.7784
13.8661
11.9909
10.123
8.26142
6.43133
4.611
2.76931
0.920004
107.646
95.0872
104.962
105.381
95.7236
95.8556
94.2124
90.6996
87.7478
85.5481
83.1974
80.8182
78.4434
76.0517
73.6594
71.3214
68.9797
66.6587
64.3562
62.0564
59.8061
57.5637
55.344
53.1536
50.9601
48.7818
46.595
44.4126
42.2674
40.1303
38.0026
35.8752
33.7771
31.7212
29.6645
27.6115
25.5991
23.6117
21.6294
19.6679
17.7224
15.7914
13.8789
11.9957
10.1221
8.26374
6.42979
4.6
2.76747
0.923906
105.599
88.7503
131.201
101.939
95.7669
94.3248
93.2482
90.0792
87.9079
85.5983
83.2333
80.8418
78.4465
76.0497
73.6687
71.3203
68.9619
66.6449
64.3496
62.0645
59.7997
57.5574
55.3496
53.1497
50.9637
48.7819
46.5921
44.4136
42.262
40.1295
37.9902
35.8754
33.7962
31.7262
29.6571
27.6014
25.594
23.6151
21.6337
19.6662
17.721
15.7989
13.894
11.9957
10.118
8.26436
6.42236
4.58845
2.75457
0.924662
97.0976
99.7346
95.0511
96.8972
105.902
94.4546
93.0918
90.4887
88.1616
85.7431
83.3259
80.8881
78.4555
76.0644
73.6787
71.3147
68.9627
66.6431
64.3449
62.0705
59.8022
57.5594
55.3529
53.1392
50.9527
48.7783
46.5938
44.415
42.2595
40.1309
37.9937
35.8829
33.8123
31.7344
29.6461
27.5868
25.5818
23.6087
21.6362
19.6647
17.7213
15.8137
13.9092
11.9965
10.1095
8.26562
6.42152
4.57601
2.74181
0.914935
107.569
95.742
97.3432
98.7798
101.475
97.1568
94.4212
91.0687
88.5203
85.9713
83.4618
80.9764
78.5144
76.0985
73.696
71.3241
68.9694
66.6493
64.3498
62.0767
59.8124
57.5686
55.354
53.1341
50.9391
48.766
46.5904
44.4166
42.2626
40.1337
38.0026
35.8962
33.8197
31.7346
29.6414
27.5796
25.5716
23.5999
21.6367
19.6651
17.7222
15.8254
13.9298
12.0056
10.111
8.2623
6.41525
4.56539
2.73457
0.914571
101.176
101.831
103.451
99.6775
98.77
98.5551
95.7264
91.6305
88.8367
86.181
83.5954
81.0591
78.587
76.1389
73.7157
71.3415
68.9763
66.6681
64.3784
62.0842
59.82
57.5723
55.3488
53.1368
50.9259
48.7386
46.5754
44.4171
42.2706
40.1373
38.0189
35.9108
33.8167
31.7259
29.6448
27.5853
25.5669
23.5838
21.6158
19.6629
17.7276
15.8288
13.9377
12.0262
10.1205
8.25616
6.40802
4.56443
2.73664
0.914309
106.237
98.2727
101.617
100.631
99.3815
98.6214
97.2769
92.6918
88.8844
86.2638
83.6521
81.0874
78.5918
76.1497
73.7287
71.337
68.9928
66.6905
64.3955
62.0834
59.8212
57.5739
55.3356
53.1239
50.9267
48.7371
46.5672
44.4236
42.2803
40.1403
38.0224
35.9087
33.7949
31.7129
29.6517
27.602
25.5674
23.5742
21.6131
19.6642
17.7347
15.8263
13.9218
12.0274
10.131
8.25333
6.40287
4.56664
2.74
0.914557
105.659
101.463
106.331
103.826
101.622
99.7242
98.2653
92.8837
88.8668
86.2708
83.6427
81.1055
78.5894
76.1389
73.7282
71.3412
68.9924
66.6819
64.3685
62.0842
59.8292
57.5732
55.3414
53.1289
50.939
48.7482
46.566
44.4294
42.2754
40.1301
38.0227
35.9041
33.7899
31.7077
29.6587
27.6172
25.5729
23.5702
21.6155
19.6751
17.745
15.8147
13.9046
12.0148
10.136
8.25457
6.40187
4.5729
2.74579
0.90919
130.204
108.046
102.392
119.523
88.3295
99.5117
97.6786
92.6593
88.6258
86.1239
83.5464
81.0274
78.5555
76.1144
73.7237
71.3424
69
66.6712
64.348
62.0828
59.8321
57.5711
55.345
53.1334
50.9481
48.7645
46.5765
44.4245
42.2621
40.123
38.0172
35.8972
33.7874
31.7063
29.6597
27.6261
25.5833
23.5752
21.618
19.6809
17.7408
15.801
13.8844
12.0036
10.1328
8.25559
6.4091
4.58688
2.75363
0.907528
84.7838
157.826
99.5738
45.8105
127.776
92.0139
95.7412
91.6325
88.2481
85.9027
83.4075
80.9429
78.5037
76.0859
73.7094
71.336
69.0003
66.6685
64.3403
62.0749
59.828
57.5688
55.3466
53.1436
50.9547
48.7792
46.5869
44.419
42.2548
40.1113
38.0068
35.8876
33.7782
31.7084
29.6629
27.6272
25.5931
23.5837
21.6207
19.6811
17.734
15.7869
13.8706
11.9935
10.1272
8.25973
6.42492
4.61136
2.76283
0.910466
169.221
81.8951
118.49
101.19
112.242
96.1037
95.0216
91.1993
87.9424
85.6727
83.2798
80.8664
78.4718
76.0697
73.6887
71.3249
68.9924
66.6722
64.3415
62.0637
59.8167
57.5685
55.3472
53.1528
50.9607
48.776
46.593
44.4159
42.2579
40.1255
38.0072
35.8772
33.7724
31.7142
29.6658
27.6215
25.5972
23.5945
21.6216
19.6726
17.7266
15.7783
13.8661
11.9908
10.1228
8.26136
6.4314
4.61086
2.76928
0.919945
94.3674
103.14
106.552
104.686
119.454
94.6778
94.2311
90.6994
87.7475
85.5482
83.1973
80.8181
78.4433
76.0516
73.6593
71.3214
68.9799
66.6584
64.3564
62.0564
59.806
57.5637
55.344
53.1536
50.9601
48.7818
46.5949
44.4124
42.2674
40.1303
38.0026
35.8751
33.7771
31.7211
29.6643
27.6117
25.599
23.6116
21.6293
19.6679
17.7223
15.7913
13.8788
11.9957
10.122
8.26368
6.42974
4.59996
2.76745
0.923916
99.4082
130.23
127.588
118.572
95.9906
94.3077
93.2473
90.0791
87.9083
85.5983
83.2332
80.8417
78.4464
76.0496
73.6687
71.3204
68.962
66.6446
64.3496
62.0645
59.7996
57.5573
55.3495
53.1496
50.9633
48.7819
46.5918
44.4135
42.262
40.1295
37.9901
35.8753
33.7968
31.7261
29.657
27.6014
25.594
23.6149
21.6336
19.6661
17.721
15.7988
13.8939
11.9955
10.1179
8.26428
6.42219
4.58838
2.75457
0.924573
96.9874
99.5733
90.7166
96.0583
98.9944
94.079
93.0882
90.4884
88.1616
85.743
83.326
80.8879
78.4553
76.0644
73.6786
71.3149
68.9626
66.6431
64.3449
62.0704
59.8021
57.5594
55.3528
53.1391
50.9526
48.7782
46.5937
44.415
42.2596
40.1308
37.9936
35.8831
33.8128
31.7343
29.646
27.5868
25.5817
23.6086
21.6361
19.6646
17.7213
15.8136
13.9091
11.9964
10.1095
8.26558
6.42137
4.57593
2.74179
0.914867
95.4458
98.1123
96.7318
97.3179
95.3686
98.1322
96.5951
97.2807
98.6829
97.8775
99.5668
97.1449
98.6748
97.9193
98.2581
99.3078
98.4652
98.6041
98.2506
99.3174
98.435
98.4786
100.337
98.519
99.5462
98.4795
100.216
98.4751
98.0489
89.1169
96.1373
99.6556
98.0446
99.5078
96.1091
95.444
104.252
94.7985
96.6224
95.4075
99.0783
94.8107
94.9657
94.0362
94.4838
96.3685
95.0367
94.7643
94.4682
94.2534
95.5922
94.0406
95.1445
94.2774
95.4139
94.0672
93.8342
96.9401
93.7527
94.5679
93.8449
93.7234
93.6064
93.685
97.8642
94.9831
94.3418
93.5443
97.2697
94.8835
95.3563
98.0064
96.5886
97.2128
95.3543
98.2088
96.5877
97.0979
98.6603
97.9203
98.573
97.0621
98.6545
97.9227
98.2517
99.2951
98.4911
98.6185
98.2473
99.2738
98.4279
98.5087
100.189
98.375
99.713
98.5022
100.168
98.346
98.0274
100.316
96.1249
99.5259
98.0076
97.3056
96.1412
95.4035
96.3878
94.8379
92.2054
95.4288
89.2479
94.785
94.8854
96.1475
94.4579
96.224
94.7972
92.7894
94.4515
94.2558
95.681
94.0754
94.522
94.2504
92.9085
94.0946
93.8484
93.5587
93.6068
94.2391
93.8524
94.3747
93.629
93.5513
97.1973
94.8716
94.3574
93.6071
97.1521
94.8853
95.3636
98.1076
96.6005
97.1429
95.4413
98.0504
96.7395
97.0688
98.6555
97.9187
99.224
97.2324
98.6693
97.8787
98.2428
99.2791
98.5077
98.6347
98.2492
99.5205
98.4743
98.5116
100.166
98.307
99.7264
98.508
100.174
98.3582
98.066
96.9916
96.1785
99.591
98.0126
102.185
96.1371
95.4308
90.1309
94.8121
92.7562
95.4378
90.3421
94.8001
94.8304
92.8558
94.4604
95.5115
94.8916
93.1814
94.459
94.3134
93.2434
94.0928
95.0552
94.2604
93.2961
94.0783
93.849
94.5449
93.6271
94.3857
93.8309
94.4576
93.7499
93.5875
97.0812
94.9006
94.4027
93.7499
96.8595
94.9711
98.2107
99.3231
101.356
101.248
98.2682
97.9473
99.554
97.1659
96.8006
97.3319
97.3367
97.2628
97.1505
96.8076
92.9721
94.847
93.4287
94.4216
92.9811
94.8422
93.438
98.1213
99.9339
98.4993
98.5903
98.0873
99.2118
98.5405
97.8538
97.7814
98.3015
97.1874
97.7932
98.017
97.8292
93.7535
96.8603
94.15
95.7177
93.7631
96.7219
94.1599
99.0385
100.222
99.6524
99.2678
99.0559
100.215
99.6069
98.6588
98.5707
98.8261
98.6103
98.5644
98.8329
98.6886
94.4077
98.1038
94.3866
97.2798
94.4047
98.082
94.3969
101.429
106.057
102.105
101.781
101.451
106.656
102.849
99.6805
98.5308
101.749
99.5443
98.5175
101.758
100.13
94.2841
98.1664
94.3424
98.2645
94.2878
98.1384
94.3208
104.591
116.233
118.671
125.557
101.04
116.566
108.902
98.4054
98.8777
99.3108
99.3479
98.8644
99.0882
98.3694
94.5363
96.1988
93.6665
97.7088
94.5491
96.1659
93.5859
120.214
109.745
100.224
102.596
94.9664
117.561
114.433
92.9886
95.5815
91.2812
105.067
95.5983
89.1988
92.9015
93.4183
95.033
92.8534
95.7831
93.3351
94.9805
92.8635
101.084
107.81
128.918
119.168
100.881
105.658
94.6684
95.9241
94.4934
103.116
95.3874
94.4946
98.3528
95.9357
92.42
94.5229
91.8673
95.0295
92.3847
94.5298
91.8712
104.549
96.6966
95.5904
90.3134
94.7933
97.7445
94.4746
93.176
93.9441
92.9586
94.2345
93.9581
92.8098
93.1429
91.8616
93.3728
91.6013
94.2207
91.8705
93.3522
91.5979
96.06
85.1029
107.804
95.9036
93.6976
85.5003
93.3198
93.6321
94.0603
94.338
94.3758
94.0695
94.2599
93.603
91.7649
92.9405
91.8498
93.2649
91.7735
92.9231
91.8589
92.1977
100.64
92.8485
109.919
91.392
103.246
113.218
94.5811
93.8901
96.2984
94.5781
93.8983
96.333
94.5804
92.1469
93.8989
92.5447
93.0974
92.1565
93.8959
92.5523
97.947
97.9896
99.0797
100.999
97.8652
97.4526
98.8865
97.1668
96.8026
97.3494
97.2174
97.1662
97.289
96.8014
92.98
94.8384
93.4371
94.4191
92.9799
94.8385
93.437
98.1364
99.1909
98.4547
97.9884
98.0986
99.1873
98.4668
97.9036
97.7771
98.3632
98.4712
97.8855
97.7987
98.3693
93.762
96.7095
94.1592
95.7242
93.7616
96.7032
94.159
99.0007
100.277
99.5572
99.2863
98.9855
100.2
99.6634
98.6694
98.5649
98.8426
98.6104
98.6837
98.5586
98.8447
94.402
98.0773
94.3947
97.2725
94.4017
98.0711
94.3945
101.438
103.112
101.427
101.765
101.537
100.112
101.679
103.858
98.1528
101.563
99.6495
103.763
101.096
101.798
94.284
98.1311
94.3238
98.2647
94.2843
98.1322
94.3063
100.285
155.137
96.5276
86.883
105.636
108.99
81.7817
98.2823
98.787
98.9584
99.4837
98.3167
98.7671
98.9274
94.5475
96.2067
93.5811
97.7049
94.5476
96.1813
93.5814
91.2566
113.9
93.5463
130.163
93.9517
123.162
93.9144
92.8514
95.2444
99.4913
92.9064
92.9328
95.1543
87.8709
93.331
95.0076
92.8607
95.7432
93.3312
94.987
92.8615
94.0773
106.676
105.451
116.316
105.607
100.645
97.2377
96.0244
94.2745
98.334
95.8842
96.01
94.1864
98.9813
92.381
94.5291
91.8675
95.0308
92.384
94.5275
91.868
92.0724
97.7558
98.9803
118.742
91.9742
103.683
96.4901
95.0069
94.0543
93.9025
99.2161
93.2137
94.0684
103.652
91.8685
93.3555
91.5937
94.2254
91.8687
93.5149
91.5895
96.3047
93.0494
94.9335
95.6841
93.2785
91.8276
95.0746
93.8611
94.0975
94.1013
94.3243
93.8623
94.1024
94.054
91.7732
92.9188
91.859
93.2354
91.773
92.9131
91.8589
90.6617
95.4413
97.6792
98.6238
90.272
95.3561
94.3194
94.5125
93.8965
95.3728
95.1229
94.5575
93.8962
95.122
92.1564
93.8934
92.5513
93.0807
92.1563
93.8946
92.5513
98.1342
97.4427
98.9272
100.657
98.0158
98.1566
98.1996
97.1681
96.8029
97.3154
97.1281
97.1686
97.3141
96.8041
92.9808
94.8424
93.4376
94.4242
92.9717
94.8472
93.4281
98.1268
99.1772
98.5698
99.3695
98.1014
99.9093
98.6016
97.9534
97.7913
98.2414
98.558
97.9485
97.8098
98.2047
93.7619
96.7157
94.1604
95.7317
93.7516
96.8515
94.1512
99.0182
100.823
99.5778
99.4935
99.0139
100.517
99.5772
98.6428
98.5594
98.8338
98.6229
98.6688
98.5681
98.8416
94.4044
98.0796
94.3968
97.3572
94.4077
98.085
94.3866
101.866
99.6396
101.497
101.739
102.481
99.4524
101.456
100.294
100.437
102.344
99.7133
100.225
100.485
102.337
94.2879
98.1235
94.3212
98.262
94.2842
98.1729
94.3358
99.802
97.3566
77.053
93.2424
99.8566
103.514
98.1672
98.2557
98.7816
98.9583
99.4345
98.2515
98.7787
98.8326
94.5486
96.2073
93.586
97.6937
94.5353
96.213
93.6647
98.4924
116.482
98.4879
104.641
113.711
106.228
83.0732
92.9169
95.2266
110.238
92.3349
92.8454
95.1371
102.125
93.3353
95.0139
92.8642
95.7768
93.4185
95.0694
92.8533
106.214
97.9017
96.7194
118.419
104.547
132.453
93.3773
95.805
93.9678
98.7631
96.7122
96.9141
94.1683
97.3583
92.3834
94.5268
91.8716
95.027
92.4119
94.5166
91.8678
125.045
98.9506
95.5603
153.821
120.949
99.3476
95.5806
94.3591
93.9996
91.9251
93.9801
94.308
94.0176
92.0205
91.8703
93.5522
91.5909
94.2484
91.8611
93.55
91.5957
93.323
91.8673
98.003
97.2635
96.6623
92.4174
95.6666
93.7338
94.1403
94.0691
94.3357
93.7628
94.1727
94.0632
91.7731
92.9161
91.859
93.3365
91.7645
92.9435
91.85
90.3659
93.9611
94.8919
99.4292
93.434
94.3082
93.9451
94.5427
93.8972
99.3492
94.0526
94.5381
93.8981
99.1786
92.156
93.8983
92.5524
93.1019
92.1463
93.8997
92.5447
97.3076
96.681
96.0169
95.3943
95.9634
97.3166
96.6982
97.4891
97.9478
97.7367
98.122
97.9616
97.7473
97.4812
97.58
96.3393
97.7209
96.6501
96.2648
97.732
97.5644
97.1665
97.286
96.8044
97.3702
97.2528
97.1669
96.8068
97.3037
95.3708
96.7122
95.9383
95.9408
97.2957
96.7082
97.4831
98.1234
97.9046
97.7414
97.9236
97.745
97.4784
97.59
96.6075
96.2195
97.7388
96.2293
97.7386
97.5937
97.6735
97.6327
97.5258
97.1336
97.6524
97.4264
97.6587
98.2466
98.466
98.4065
98.621
98.4517
98.4042
98.2421
98.018
97.809
98.1783
97.8971
97.828
98.185
98.006
97.8686
97.0354
97.7665
98.5187
97.7822
98.0946
97.8746
97.694
97.1089
97.7094
97.3656
97.6671
97.3999
97.6985
98.2435
98.637
98.4629
98.4167
98.478
98.411
98.2615
98.0151
97.9089
97.8393
98.1792
97.8388
98.1836
98.0119
98.7402
98.3969
98.4033
98.2456
98.4049
98.4144
98.6906
98.7122
99.1491
99.0417
99.2978
99.1427
99.0365
98.7079
99.04
98.4643
98.7956
98.4551
98.4722
98.8108
99.2676
98.6695
98.6097
98.5707
98.8428
98.5734
98.8387
98.6619
98.6153
98.2456
98.4095
98.4046
98.4264
98.4169
98.5968
98.6731
99.3152
99.1019
99.035
99.1327
99.0805
98.6717
98.9292
98.4805
98.4629
98.7635
98.4703
98.8242
98.9401
99.8063
98.693
98.4445
98.4898
98.5746
98.4631
99.8493
99.7585
100.673
99.9335
100.066
100.531
99.565
100.069
98.9444
98.5499
98.7159
98.5567
98.5244
98.6887
98.9744
99.5675
99.6377
98.2902
101.797
98.4417
101.778
99.4584
99.7912
98.5381
98.5433
98.4656
98.5871
98.4963
99.7029
99.7508
100.18
100.576
99.534
100.537
99.554
99.7721
98.948
98.4999
98.5035
98.7136
98.6142
98.6971
98.9676
97.8577
98.5031
97.5095
98.0278
98.3408
97.5117
98.0724
96.8686
95.8876
95.9939
90.4647
96.2718
95.9932
96.8764
96.9009
96.7549
96.3091
96.1377
96.7227
96.2444
96.9688
98.3388
110.667
98.8324
99.9268
98.8647
99.6743
98.3342
97.8589
98.1021
98.3349
97.4859
98.3359
97.6097
97.8553
96.8486
108.897
102.324
96.3382
105.589
96.6163
96.8569
96.9131
96.2243
96.7119
96.2757
96.8577
96.2567
96.9199
94.7237
95.8167
94.8557
95.4426
95.8053
94.8416
94.715
94.4691
101.176
94.7489
119.341
95.3346
94.927
94.4156
94.7662
94.8165
94.7933
94.8054
94.8021
94.7955
94.7698
92.9521
119.605
95.2893
94.7181
95.3623
95.1683
92.9592
94.7348
95.5453
95.7565
94.8306
95.7824
94.8703
94.7446
94.4361
95.1513
96.9585
93.9051
95.7359
94.216
94.3569
94.7642
94.7985
94.7996
94.7631
94.8102
94.7897
94.7593
95.3843
94.7602
95.0476
95.1005
94.755
95.0456
95.4051
95.972
100.566
93.8343
93.8216
98.2724
93.8251
96.0097
95.1423
94.9389
94.5838
94.4686
94.9461
94.5939
95.1901
95.9441
95.4595
94.3913
106.078
94.4034
106.472
96.0364
95.3913
94.838
94.7621
95.0269
94.934
95.0741
95.3756
95.8575
94.5411
99.0375
93.8738
98.6256
93.8437
95.8182
95.1443
94.471
94.9427
94.5677
94.9697
94.6104
95.1968
94.6045
94.173
94.0971
94.2561
94.1532
94.1187
94.9468
94.1156
94.7259
93.9267
95.4327
95.4723
93.9422
95.1571
99.8544
94.249
91.9771
94.0554
94.3788
92.0761
94.8545
92.8792
94.8412
94.018
98.3549
93.9779
93.5664
93.7869
95.895
94.2832
94.1696
94.0916
94.1535
94.0832
96.5685
93.7291
95.4281
94.3056
93.9406
94.2741
93.9461
93.2339
95.27
94.0631
94.0639
94.5196
94.1058
92.0327
95.2156
93.9556
94.206
93.6936
93.8328
94.2111
93.7173
93.9453
93.7716
101.005
93.8387
92.9468
95.1428
94.0718
93.7392
93.9071
93.8677
93.8835
93.6528
93.889
93.8628
93.8948
94.175
94.3741
94.0717
94.3357
94.0996
94.178
94.0479
93.9572
93.8392
94.2019
93.7213
94.2075
93.7159
93.9561
93.792
93.7462
95.374
93.6139
95.3647
93.5983
93.8053
93.9059
93.6269
93.8983
93.8938
93.8982
93.88
93.9024
94.4841
93.9442
94.0409
93.6324
93.9794
93.9324
94.4934
95.4347
97.3387
96.2563
97.7735
96.6008
95.4429
96.2083
95.4149
94.8747
96.3489
94.94
94.7982
95.3875
96.2452
94.5705
94.4755
93.9067
95.7863
93.9013
96.0396
94.5591
94.4766
93.5791
93.9586
93.894
93.9785
93.907
94.4777
95.4199
100.496
96.4944
96.21
97.7393
95.4367
96.2116
95.4778
94.9099
94.6548
96.2878
94.7612
95.3416
96.2798
97.2905
96.7165
95.9336
95.3546
97.291
95.9349
96.7177
97.4768
97.9113
97.7396
98.0939
97.4758
97.8319
97.7456
97.5907
96.2099
97.7313
96.5948
97.5931
96.2128
97.7288
97.1688
97.2152
96.8022
97.3874
97.3429
97.17
96.8018
97.2927
95.3567
96.7192
95.9327
95.9346
97.2941
96.7188
97.48
97.9621
97.9399
97.759
97.7466
97.752
97.4832
97.5888
96.5919
96.2165
97.7373
96.2131
97.7322
97.5837
97.7015
97.7183
97.3397
97.0736
97.6998
97.7372
97.3343
98.2951
98.4547
98.4411
98.668
98.2711
98.4439
98.4341
98.0109
97.8422
98.1788
97.9218
98.0092
97.8437
98.181
97.9128
98.5528
97.7908
98.2354
97.7995
98.2146
97.9272
97.6939
97.0599
97.7474
97.3617
97.7456
97.3433
97.6845
98.2884
98.6568
98.458
98.4418
98.4575
98.4434
98.3081
98.011
97.9219
97.8442
98.1755
97.8447
98.182
98.0104
98.5761
98.4146
98.4004
98.2508
98.5937
98.3997
98.3963
98.659
99.0484
99.0297
99.2882
98.6736
99.02
99.0534
98.9701
98.4568
98.7773
98.4795
98.9683
98.4511
98.7744
98.6712
98.615
98.5568
98.8401
98.5588
98.8448
98.6575
98.6298
98.25
98.3503
98.3861
98.3793
98.3944
98.5811
98.6354
99.2774
99.0852
99.0729
99.0111
99.0668
98.6268
99.0323
98.4979
98.4387
98.7871
98.4476
98.7732
99.04
100.249
98.5696
98.4646
98.485
99.8189
98.6945
98.454
99.9037
100.946
99.5124
100.173
99.7997
100.529
99.4956
98.9744
98.5633
98.7556
98.381
98.9804
98.5328
98.6989
99.9444
99.6967
101.781
102.33
99.7498
102.197
100.027
102.266
98.4905
98.7913
98.4125
98.6984
98.5021
97.7866
99.9282
100.168
100.783
99.5128
100.467
99.4863
99.9633
99.0116
98.4892
98.5526
98.613
98.5309
98.6917
99.0345
97.8547
98.3326
97.5166
98.0102
97.8556
98.3206
97.4634
96.7777
101.294
96.4469
99.0452
96.8703
100.984
96.1983
96.9166
96.7255
96.2959
96.1058
96.9204
96.6922
96.3159
98.263
99.5121
98.7792
99.0322
98.7688
99.2947
98.2562
97.8553
98.0378
98.3154
97.4633
98.3203
97.4757
97.8519
96.716
98.4153
101.073
96.1899
102.85
96.1854
96.6742
96.909
96.0889
96.6941
96.3579
96.7239
96.3339
96.9043
94.7667
95.7418
94.8605
95.4077
94.7297
95.7217
94.8376
94.3568
98.1748
94.1712
98.1874
94.3367
96.2542
94.0438
94.7623
94.8068
94.7459
94.8279
94.7777
94.8186
94.7132
92.7758
93.4197
95.2435
88.0074
95.1995
87.8959
93.8983
94.7932
95.4019
95.7061
94.8276
95.71
94.8424
94.8432
94.3846
90.2064
96.6607
94.065
96.3881
94.0916
94.4219
94.765
94.7905
94.7956
94.6794
94.7952
94.6932
94.8055
95.4121
94.6988
95.0657
94.7388
95.3915
94.6388
95.0438
95.8545
149.893
93.9088
93.3343
95.9841
98.9961
93.9104
95.1461
94.9419
94.5571
94.4354
95.1561
94.9236
94.5414
96.0384
96.1239
93.9833
98.2384
94.0659
98.2847
95.8453
95.4173
94.7363
94.8146
95.0374
94.8441
95.0625
95.4257
96.0632
93.3788
94.6091
93.8933
94.3763
93.9036
95.7104
95.1404
94.4451
94.9138
94.5439
94.9421
94.5363
95.1183
94.4762
94.1114
94.0704
94.273
94.2755
94.1108
94.0646
92.6806
95.3536
93.9758
99.5433
92.8204
95.895
93.9707
93.4753
94.1031
93.6153
94.0813
96.9843
93.8672
93.6523
94.4426
94.4176
93.998
91.8126
94.0224
91.7751
93.9988
92.7602
94.2413
94.1135
94.0955
94.1128
94.0904
95.2532
95.1434
92.8226
94.7448
94.046
94.6812
94.0106
94.981
93.497
94.0903
93.8822
95.9979
93.9141
96.049
93.5906
93.9721
94.2081
93.7185
93.8509
93.9608
94.2206
93.717
93.7874
96.3828
93.6098
98.1561
93.7782
95.6893
93.6321
93.9115
93.9018
93.9078
93.62
93.9028
93.9015
93.9115
93.7631
94.2406
94.1393
94.0919
94.1096
94.0668
93.7809
93.9813
93.8517
94.2403
93.715
94.2342
93.7183
93.9877
93.8053
95.0148
95.199
93.6359
95.2383
93.6409
93.7838
93.9248
93.6261
93.9025
93.9092
93.8994
93.9099
93.9376
94.5765
93.9509
93.9072
93.5707
94.5787
93.9367
93.9026
95.3722
96.5152
96.1948
97.1432
95.4074
96.0515
96.1701
95.4414
94.6853
96.3041
94.8698
95.278
94.796
96.3119
94.5033
95.5111
93.9018
94.4095
93.8989
95.108
94.5199
94.7285
93.6133
93.9562
93.8519
93.9442
93.9114
94.7307
95.4728
97.0665
95.9215
96.1422
96.6665
95.3136
96.151
95.3723
94.8744
94.6679
96.2902
94.8412
95.2837
96.3033
97.3067
96.7173
95.938
95.3721
97.2974
95.9392
96.7115
97.4845
97.3353
97.7671
98.0692
97.4819
97.4175
97.7767
97.5615
96.2333
97.7394
96.6165
97.5715
96.2477
97.7379
97.1676
97.1565
96.7958
97.3406
97.3268
97.155
96.8046
97.3131
95.395
96.6886
96.0176
95.9619
97.3229
96.7023
97.489
98.0457
97.354
97.7678
97.333
97.7799
97.4789
97.5526
96.6581
96.3544
97.7184
96.2796
97.7308
97.5425
97.6776
97.7388
97.3918
97.0973
97.6824
97.7218
97.3897
98.3219
98.4648
98.4437
98.6573
98.3267
98.4746
98.4553
98.0182
97.8426
98.1724
97.9102
98.0123
97.8372
98.1795
97.9597
98.5368
97.8454
98.4437
97.8298
98.1672
97.9627
97.6662
97.1554
97.6821
97.5388
97.7054
97.4052
97.6799
98.3834
98.6513
98.5107
98.4416
98.5198
98.4402
98.3741
98.0217
97.899
97.8063
98.1788
97.8233
98.184
98.0131
98.5696
98.3424
98.3908
98.2356
98.521
98.3494
98.3888
98.6084
99.0106
99.1576
99.3719
98.6575
99.0077
99.0674
99.0185
98.4429
98.7809
98.4648
99.072
98.4468
98.7691
98.6644
98.6259
98.5968
98.8261
98.5676
98.8316
98.6923
98.6904
98.2318
98.3884
98.3826
98.3606
98.3913
98.6167
98.5829
99.3296
99.0564
99.0771
99.0136
99.0706
98.6051
99.0073
98.4631
98.445
98.778
98.4504
98.7713
98.9893
98.0735
98.7098
98.513
98.5023
98.0501
99.3106
98.4896
99.9567
100.645
99.5197
100.158
99.9144
100.592
99.5155
99.0515
98.5416
98.674
98.347
99.0705
98.5347
98.6344
100.367
99.7162
100.102
102.453
100.195
102.39
100.483
99.1955
98.5023
98.8019
98.6266
98.8466
98.7389
98.7019
99.9012
100.163
100.627
99.5159
100.595
99.5107
99.9003
99.0554
98.4122
98.54
98.6557
98.5397
98.6376
99.0558
97.8687
98.3147
97.4686
98.0038
97.851
98.3269
97.4631
96.9512
101.111
96.2007
97.5908
96.7018
101.092
96.2389
96.9053
96.7174
96.3693
96.1295
96.894
96.7013
96.3825
98.2759
99.4481
98.8333
98.7872
98.7753
98.8032
98.3994
97.8657
98
98.2984
97.4793
98.3006
97.46
97.9324
97.0831
106.547
102.557
96.3372
101.961
96.2749
97.0575
96.8837
96.132
96.753
96.4071
96.6998
96.4028
96.87
94.8539
95.6942
94.8549
95.4533
94.8319
95.6892
94.8235
94.4605
98.5207
94.0929
90.0986
94.3499
98.0213
94.1076
95.0316
94.8327
94.67
94.8175
94.8278
94.8174
94.6632
92.8461
92.5943
95.1264
96.111
95.107
96.1644
93.128
94.8697
95.4392
95.6808
94.8824
95.686
94.8246
94.8999
94.4268
90.2311
98.4772
94.2937
98.8552
93.8978
94.5247
94.7812
94.7938
94.8194
94.6507
94.8156
94.6428
94.7758
95.4138
94.7554
95.051
94.5838
95.4733
94.719
95.0284
95.689
94.7929
93.8607
92.819
95.628
96.0265
93.8564
95.1206
94.9275
94.5296
94.4653
95.1174
94.8966
94.5173
95.8445
95.1158
94.0196
97.6183
94.0452
97.2213
96.0255
95.4277
95.122
94.7684
95.0822
94.8399
95.038
95.456
95.6292
92.5546
98.0743
94.0796
99.7429
93.8316
95.6436
95.107
94.4685
94.9115
94.5938
94.8985
94.506
95.1558
92.9989
94.1214
94.0964
94.2629
92.9714
94.1108
94.0955
101.089
94.9108
94.0716
93.6078
94.465
95.345
94.0877
95.7462
93.8696
97.3225
94.0875
94.9069
93.8854
96.0886
94.4126
94.1295
94.0636
98.5669