/*--------------------------------*- C++ -*----------------------------------*\
| =========                 |                                                 |
| \\      /  F ield         | OpenFOAM: The Open Source CFD Toolbox           |
|  \\    /   O peration     | Version:  5.0                                   |
|   \\  /    A nd           | Web:      www.OpenFOAM.org                      |
|    \\/     M anipulation  |                                                 |
\*---------------------------------------------------------------------------*/
FoamFile
{
    version     2.0;
    format      ascii;
    class       surfaceScalarField;
    location    "2.3";
    object      phi;
}
// * * * * * * * * * * * * * * * * * * * * * * * * * * * * * * * * * * * * * //

dimensions      [0 3 -1 0 0 0 0];

internalField   nonuniform List<scalar> 
26746
(
3.22726e-09
-4.42952e-09
-2.32811e-09
-2.65583e-09
4.74309e-09
3.44719e-10
7.8337e-10
-1.03715e-09
-9.48449e-10
-1.91541e-09
-1.19586e-10
3.09643e-10
-1.24947e-09
-9.20598e-11
-2.46848e-09
8.71454e-10
2.17018e-08
-2.03793e-09
-2.28798e-09
-9.50548e-10
-5.37831e-09
8.86708e-10
-8.81791e-09
-7.81124e-09
-4.9854e-09
-2.59447e-09
6.87462e-09
3.66983e-10
-3.2517e-12
-4.41686e-11
-2.42519e-10
-4.05462e-11
2.06232e-10
-2.17558e-11
2.79362e-11
-4.34263e-11
-7.07799e-11
-8.16449e-11
1.40778e-09
-7.04522e-11
-3.09317e-11
-2.55682e-10
-2.5965e-10
-4.32239e-10
-4.38744e-10
1.38566e-09
-2.50491e-11
-1.22145e-12
1.37737e-09
-2.01286e-11
3.72676e-13
1.37156e-09
-1.17814e-11
-5.29694e-14
1.36913e-09
-7.41987e-12
2.85161e-14
1.3678e-09
-4.53859e-12
1.45375e-13
1.36675e-09
-2.91632e-12
-6.94958e-14
1.3655e-09
-1.73792e-12
-4.12762e-14
1.36545e-09
-1.7059e-12
5.88629e-13
1.36504e-09
-6.85676e-13
7.05508e-14
1.36491e-09
-5.2471e-13
2.81777e-14
1.3643e-09
-1.3254e-12
1.70219e-12
1.36414e-09
-3.44053e-13
8.31559e-15
1.36422e-09
-8.84877e-14
6.64869e-13
1.36395e-09
-4.13863e-13
3.42452e-13
1.36365e-09
-9.38497e-13
7.88057e-13
1.36343e-09
-3.66057e-13
2.22714e-13
1.36308e-09
-3.32523e-13
4.1345e-13
1.36439e-09
-2.99115e-12
7.7525e-13
1.36381e-09
8.54728e-13
-4.43782e-13
1.36349e-09
2.63976e-13
4.806e-14
1.36327e-09
-1.87135e-13
-1.01335e-12
1.36309e-09
3.22225e-13
-3.96881e-13
1.36217e-09
-1.06766e-12
3.87795e-12
1.36216e-09
-9.5839e-13
2.91271e-12
1.3622e-09
-1.3558e-13
-4.35393e-13
1.36308e-09
-2.12899e-12
1.06443e-12
1.36276e-09
1.1148e-13
6.08226e-14
1.3623e-09
5.70124e-13
-6.20685e-14
1.36169e-09
5.91071e-13
1.87157e-14
1.36136e-09
7.12239e-13
-5.79214e-13
1.36343e-09
-3.66897e-12
9.43717e-13
1.36249e-09
5.80639e-13
1.27439e-13
1.36206e-09
1.28507e-13
2.55775e-13
1.36234e-09
-3.9185e-14
-2.80086e-13
1.36333e-09
2.44466e-12
-7.47885e-13
1.36142e-09
4.03999e-12
-2.14285e-12
1.36182e-09
-6.87526e-13
-3.61139e-14
1.36201e-09
-1.46476e-13
-9.01671e-14
1.36208e-09
-6.69679e-14
2.22274e-14
1.36203e-09
-7.18724e-14
1.6508e-13
1.36141e-09
-6.49079e-13
9.9045e-13
1.31576e-12
-1.22966e-12
2.18367e-09
1.96157e-09
-4.45873e-09
3.3845e-10
-9.4742e-10
1.3554e-08
-3.5479e-09
-8.42219e-09
-4.61712e-10
3.37097e-09
-2.12945e-09
-1.41634e-09
1.72088e-09
-3.04941e-09
1.50362e-08
8.97055e-09
-2.96439e-10
3.14974e-09
7.34036e-10
2.79608e-09
-7.56387e-10
4.31553e-09
-9.71368e-09
-3.11985e-09
-1.28253e-08
-4.3807e-09
-1.05201e-09
-8.86485e-10
-6.43672e-10
5.55376e-10
1.82435e-09
-1.56963e-09
-8.66643e-10
-3.74285e-10
-1.38041e-09
-2.22846e-10
3.1488e-09
1.47754e-09
4.71148e-11
9.18892e-10
1.24495e-09
-1.65557e-09
-1.46174e-10
-2.88468e-10
-2.57406e-10
3.58329e-11
6.56224e-10
-5.00621e-11
3.0834e-12
-1.48715e-12
1.80019e-11
3.04633e-11
1.45856e-09
-3.18766e-12
-3.64128e-11
-2.72842e-10
-2.69238e-10
-4.69013e-10
-4.55895e-10
-8.75037e-12
-1.34358e-12
-1.23956e-11
1.40931e-09
2.56958e-11
-1.61703e-12
1.3914e-09
-2.00304e-12
-3.53787e-13
1.38022e-09
-6.69178e-13
-5.19597e-14
1.37414e-09
-1.37627e-12
-9.35723e-14
1.3704e-09
-8.09584e-13
-1.48329e-13
1.36834e-09
-1.01237e-12
-3.9188e-15
1.36719e-09
-7.49819e-13
2.45771e-14
1.3655e-09
1.57146e-13
-3.04246e-13
1.36519e-09
-8.49265e-13
3.42676e-13
1.36448e-09
2.07932e-12
-2.01895e-12
1.36528e-09
-6.38626e-13
-1.60858e-12
1.36455e-09
2.03412e-13
5.78547e-14
1.36424e-09
5.77524e-13
-4.61866e-13
1.36348e-09
4.8721e-13
-2.55531e-13
1.36376e-09
1.35309e-12
-2.68228e-12
1.36509e-09
-2.57141e-12
7.62358e-13
1.36479e-09
2.80118e-13
-4.1949e-13
1.36266e-09
-3.08536e-13
-6.52008e-13
1.363e-09
4.13166e-14
3.86199e-13
1.36312e-09
9.16421e-14
-4.5969e-14
1.36244e-09
-8.95083e-13
1.30743e-12
1.36205e-09
-1.50784e-13
7.80436e-13
1.36251e-09
2.93934e-13
-1.89961e-12
1.36261e-09
6.46329e-13
-1.78568e-12
1.3636e-09
-4.65062e-12
3.45763e-12
1.3629e-09
-3.34199e-12
1.84207e-12
1.36283e-09
1.9418e-13
-8.8416e-14
1.36256e-09
-2.48365e-13
1.03159e-12
1.3629e-09
1.68928e-13
2.0255e-14
1.36312e-09
1.05037e-13
3.35962e-13
1.36123e-09
-1.27518e-12
-5.56153e-13
1.36154e-09
3.6388e-13
-1.42496e-13
1.36153e-09
1.12256e-13
-1.90655e-14
1.36084e-09
7.93668e-13
-1.83222e-13
1.36157e-09
9.38666e-13
7.43691e-13
1.36325e-09
1.84345e-13
2.14401e-12
1.3625e-09
9.05944e-14
-4.70467e-14
1.36218e-09
4.02952e-14
1.14025e-13
1.36191e-09
1.91444e-13
-1.02413e-14
1.36169e-09
2.58806e-13
-1.235e-13
1.362e-09
5.14414e-13
-1.47877e-12
-2.40648e-13
1.27117e-12
-1.61384e-09
7.80197e-09
-2.6038e-09
-1.67321e-09
4.48318e-10
-2.18072e-09
1.22512e-11
1.4522e-09
1.57662e-09
2.05368e-10
-3.11045e-09
-1.23738e-10
-2.47462e-10
-5.15343e-09
3.75255e-09
-1.40107e-09
-5.62707e-09
1.71349e-09
2.07095e-09
3.66698e-09
5.51356e-10
-8.25606e-10
-1.56919e-09
3.75178e-09
-1.90835e-09
-8.34665e-11
1.02243e-10
1.31021e-11
1.32529e-10
-1.64404e-10
-1.41335e-10
1.88437e-11
-8.62851e-12
6.86431e-11
6.24768e-11
-2.04783e-10
2.06257e-10
-2.93271e-13
-4.38014e-12
1.38185e-09
9.58202e-12
-2.32168e-11
-2.5169e-10
-2.56234e-10
-4.14196e-10
-4.20446e-10
1.38036e-09
1.3452e-12
-1.97901e-12
1.37624e-09
2.6911e-12
6.24772e-13
1.37321e-09
1.51234e-12
-1.60589e-14
1.37078e-09
1.24575e-12
2.13667e-13
1.36872e-09
8.01272e-13
8.3486e-14
1.36718e-09
5.38079e-13
1.19495e-13
1.36684e-09
2.73888e-13
8.7943e-14
1.36587e-09
-3.66967e-14
3.11776e-14
1.36513e-09
9.22689e-13
1.76312e-12
1.36446e-09
1.57575e-12
-1.66559e-12
1.36442e-09
8.95329e-14
4.09742e-14
1.36457e-09
-1.41049e-13
4.66515e-13
1.36483e-09
1.37228e-13
-2.40247e-14
1.3643e-09
-3.21409e-13
2.09959e-12
1.36276e-09
-2.14693e-13
-9.33829e-13
1.36302e-09
-4.39076e-13
3.55903e-13
1.36298e-09
-3.81312e-13
1.61342e-14
1.3628e-09
7.32111e-14
5.32733e-14
1.36249e-09
-2.24023e-14
3.27687e-13
1.36277e-09
6.36533e-13
-1.89914e-12
1.36376e-09
1.04097e-12
-2.25519e-12
1.36338e-09
5.29891e-13
6.38594e-14
1.3643e-09
7.42478e-13
-1.09727e-12
1.36244e-09
-1.37224e-13
-2.72781e-12
1.36205e-09
1.34164e-13
-3.15069e-12
1.36205e-09
-1.9614e-14
1.45757e-13
1.36268e-09
6.07882e-15
-9.46446e-13
1.36267e-09
1.96156e-13
-8.43182e-14
1.36246e-09
-2.4941e-14
2.88177e-13
1.36208e-09
-5.05498e-13
-4.38471e-13
1.36189e-09
-7.42164e-13
1.24229e-12
1.36099e-09
1.07315e-12
-9.65302e-14
1.3613e-09
-3.86174e-13
8.29384e-13
1.36134e-09
5.63631e-13
3.028e-13
1.36314e-09
-1.74536e-12
9.71976e-14
1.36252e-09
3.75338e-13
3.10645e-13
1.36222e-09
2.1625e-13
9.74992e-14
1.36212e-09
4.56526e-13
-1.77819e-13
1.36172e-09
6.78139e-13
-3.28591e-14
1.36152e-09
3.148e-13
3.93152e-13
-1.88485e-12
7.88396e-13
3.82981e-09
-1.10603e-09
-2.18292e-09
-3.49877e-10
4.45356e-10
1.58646e-10
-4.15869e-10
3.02979e-09
-3.21792e-09
-4.85662e-09
9.41441e-10
-3.95096e-09
5.44338e-09
2.42277e-09
-1.27644e-09
4.02938e-09
3.1187e-09
-4.14461e-09
-1.72702e-09
4.90254e-10
-1.5105e-09
4.29266e-10
-1.45721e-10
7.36707e-10
1.80158e-10
3.8021e-12
8.63548e-11
-3.13455e-10
4.31425e-11
-3.82053e-11
-5.02624e-11
3.66287e-11
-3.72606e-11
8.90997e-11
-3.43702e-11
2.06491e-10
-1.36327e-12
-5.31022e-12
-3.64336e-11
-6.30321e-11
-6.78975e-11
1.91615e-12
1.38733e-09
1.60586e-11
-2.48904e-11
-2.60009e-10
-2.584e-10
-4.26165e-10
-4.2438e-10
1.38209e-09
9.12523e-12
-2.67947e-12
1.37647e-09
7.64688e-12
5.06378e-13
1.37236e-09
5.42184e-12
5.08616e-14
1.36986e-09
3.47908e-12
1.15836e-13
1.36811e-09
2.37078e-12
3.51421e-14
1.367e-09
1.54067e-12
-3.32363e-14
1.366e-09
9.96494e-13
1.47676e-13
1.36546e-09
6.73843e-13
-3.0961e-13
1.36537e-09
3.44799e-13
5.36194e-13
1.36488e-09
3.70969e-13
1.57616e-12
1.36464e-09
1.50601e-13
7.43202e-14
1.36429e-09
6.88239e-14
3.2555e-14
1.36415e-09
3.78734e-14
1.37053e-13
1.36387e-09
-1.99362e-13
5.13361e-14
1.36367e-09
-2.47056e-13
1.24456e-13
1.36343e-09
-1.38834e-14
-2.96631e-13
1.36321e-09
-1.97968e-13
-6.72237e-14
1.36316e-09
-5.17772e-14
8.67293e-14
1.36326e-09
7.95228e-13
-1.00716e-12
1.36371e-09
1.19747e-12
-1.10127e-12
1.36283e-09
1.92601e-13
1.64346e-12
1.36283e-09
5.084e-13
-5.88626e-14
1.36256e-09
2.96298e-13
6.402e-13
1.36251e-09
-1.88666e-13
2.89784e-14
1.36253e-09
3.60634e-14
8.88099e-15
1.36252e-09
-6.14161e-14
-1.64697e-14
1.36242e-09
-3.35506e-14
8.16038e-14
1.36251e-09
-4.20491e-14
8.26884e-14
1.36227e-09
2.53463e-13
-9.2328e-14
1.36158e-09
-2.42698e-13
3.79949e-13
1.3617e-09
-1.3058e-13
-7.81562e-13
1.36262e-09
-1.10443e-13
2.19197e-13
1.36231e-09
2.31707e-13
-3.4923e-13
1.36242e-09
6.40333e-13
-2.17212e-13
1.36167e-09
-1.41009e-12
3.89436e-13
1.36214e-09
2.84083e-13
-4.12685e-13
1.3623e-09
1.19807e-13
-7.91644e-14
1.3624e-09
1.44779e-12
-1.11039e-12
1.3611e-09
1.93993e-12
2.67207e-14
1.36149e-09
-3.82299e-14
-5.22273e-14
-1.96505e-12
4.15987e-13
-1.17039e-08
2.13728e-09
9.07416e-09
6.83476e-10
5.05369e-09
4.2876e-10
-3.58378e-10
-4.2842e-09
-8.03638e-09
1.83709e-08
2.13866e-09
-1.33126e-08
1.67773e-09
-1.75443e-09
-4.44564e-10
-4.38466e-09
2.00986e-09
1.83802e-09
1.38506e-09
-2.06073e-12
9.2187e-11
-6.97952e-10
2.81098e-10
3.95453e-09
-4.5736e-09
-6.8041e-10
-2.10191e-10
3.12798e-08
-3.92568e-08
4.46001e-08
-3.51176e-08
1.66401e-09
2.7372e-09
-3.93743e-10
-5.2319e-09
1.22443e-09
-2.83038e-10
9.65875e-10
-3.05829e-10
1.92823e-10
-5.69822e-10
-9.96627e-11
-4.65202e-11
-6.29518e-12
-1.02296e-11
1.62708e-10
-4.46787e-11
2.19979e-10
1.84447e-11
6.19272e-12
-4.02509e-11
-8.49882e-11
-7.31678e-11
-1.53142e-12
1.39019e-09
3.32099e-11
-2.2603e-11
-2.68606e-10
-2.56405e-10
-4.42405e-10
-4.17367e-10
1.38027e-09
2.1768e-11
-2.87497e-12
1.37386e-09
1.33691e-11
5.40968e-13
1.36958e-09
9.38238e-12
1.71232e-13
1.36844e-09
3.54126e-12
9.37745e-13
1.36708e-09
3.52922e-12
5.75077e-14
1.36616e-09
2.192e-12
1.22636e-13
1.36559e-09
1.38267e-12
4.2429e-14
1.36498e-09
1.11368e-12
3.6675e-14
1.36474e-09
6.03656e-13
-1.53702e-13
1.36448e-09
3.22107e-13
1.95229e-13
1.36451e-09
-1.75249e-12
1.76919e-12
1.36419e-09
2.51405e-13
4.08931e-14
1.36416e-09
2.34101e-13
-2.70325e-13
1.36403e-09
6.89787e-15
-1.94957e-13
1.36381e-09
-1.53004e-13
2.27686e-14
1.36368e-09
-1.96445e-13
2.00103e-13
1.36372e-09
-4.45261e-13
1.08597e-13
1.36364e-09
-7.4168e-14
7.66809e-15
1.3633e-09
1.67247e-13
8.81726e-13
1.36243e-09
4.53525e-13
1.52757e-12
1.363e-09
-4.94285e-13
3.17746e-14
1.36323e-09
3.58908e-13
-1.61161e-13
1.36253e-09
1.35945e-12
-4.39175e-13
1.36249e-09
1.02306e-13
-3.31632e-13
1.36247e-09
4.0828e-14
-4.61851e-14
1.36231e-09
4.51568e-15
2.69004e-14
1.36213e-09
6.73758e-14
1.13649e-14
1.36208e-09
-4.1959e-14
-5.9818e-15
1.36207e-09
1.69557e-13
3.66957e-14
1.36209e-09
-4.73905e-15
-3.09643e-13
1.36227e-09
-2.34611e-15
-3.57448e-13
1.36205e-09
3.82861e-13
-3.18659e-13
1.36229e-09
6.13208e-13
-6.55029e-13
1.36248e-09
3.23839e-13
8.76797e-14
1.36186e-09
-1.15774e-12
3.44047e-13
1.36202e-09
-1.04114e-13
2.02767e-13
1.36248e-09
-3.7856e-13
1.7647e-14
1.36265e-09
-1.30818e-12
2.56759e-12
1.3611e-09
3.63232e-12
-1.58394e-13
1.36135e-09
-7.85938e-13
4.86621e-13
-1.86174e-13
-9.28017e-13
-2.13519e-09
-4.87777e-09
-5.17966e-10
3.58495e-08
-1.99639e-08
-7.85567e-09
-3.01422e-10
-2.23013e-10
-2.82234e-09
5.84301e-09
9.41136e-10
4.54033e-10
1.10759e-10
7.85271e-10
-5.08883e-09
2.48443e-10
-1.99405e-10
-1.42529e-10
1.57246e-09
-1.47897e-09
4.09765e-10
3.23898e-09
-4.55651e-09
-1.56032e-09
2.2421e-09
1.49862e-09
-1.76747e-09
4.94825e-10
-4.0897e-10
9.51283e-10
4.01128e-09
1.21125e-09
-5.76485e-09
1.84207e-09
-6.56267e-10
2.48982e-09
4.04653e-10
-4.08028e-09
-1.02799e-10
2.34783e-11
-9.40962e-12
-1.63748e-11
1.05105e-10
-4.08172e-11
2.00344e-10
-1.07243e-13
3.4674e-11
-1.00603e-11
-4.03896e-11
-7.14685e-11
-7.21747e-11
1.37136e-09
3.93805e-11
-2.16745e-11
-2.53714e-10
-2.59229e-10
-4.13385e-10
-4.29578e-10
1.36877e-09
2.72496e-11
-3.0297e-12
1.36601e-09
1.53657e-11
6.22724e-13
1.36605e-09
9.52146e-12
-3.21809e-13
1.36477e-09
5.51848e-12
-8.51746e-13
1.36473e-09
3.37158e-12
3.14551e-14
1.36476e-09
2.04332e-12
-3.75481e-14
1.36466e-09
1.29887e-12
4.46789e-14
1.36476e-09
8.17247e-13
7.77094e-14
1.36479e-09
5.98442e-13
-1.5798e-13
1.36464e-09
2.79439e-13
8.76512e-14
1.36418e-09
3.29648e-13
-1.73159e-12
1.36401e-09
2.3743e-13
8.10722e-14
1.36394e-09
-1.17172e-13
3.15103e-13
1.36382e-09
-3.14516e-14
4.09175e-14
1.36343e-09
2.29902e-13
-9.56344e-14
1.3631e-09
-1.07256e-13
1.27786e-13
1.36409e-09
1.07184e-12
-2.60945e-12
1.36393e-09
-1.40717e-14
5.7451e-15
1.36391e-09
1.10816e-13
-9.81843e-15
1.36406e-09
3.51419e-13
-1.37212e-13
1.36178e-09
4.96583e-12
-3.26219e-12
1.3618e-09
-1.10896e-12
1.3628e-12
1.36288e-09
5.56837e-14
1.51919e-13
1.36269e-09
5.27432e-14
1.70684e-13
1.36244e-09
1.28809e-13
8.68505e-14
1.36219e-09
8.00243e-13
-6.13619e-13
1.36224e-09
7.96254e-14
-1.19662e-13
1.36225e-09
-2.21237e-13
1.05387e-13
1.36207e-09
2.52032e-13
4.20734e-14
1.36205e-09
-4.74719e-13
4.41019e-13
1.36254e-09
-7.09838e-13
1.71913e-13
1.36225e-09
2.95202e-13
3.26563e-13
1.36211e-09
5.21921e-13
1.97232e-13
1.36212e-09
3.59756e-13
-8.02144e-14
1.36142e-09
2.4765e-13
-7.36039e-13
1.36132e-09
-8.78453e-14
5.85854e-14
1.36112e-09
-1.24331e-13
-7.89441e-14
1.36102e-09
1.41588e-12
-2.63908e-12
1.36325e-09
1.17192e-12
2.13946e-13
1.3627e-09
-6.96494e-13
4.52992e-13
-8.67064e-13
1.90396e-12
5.6896e-09
3.11996e-09
-4.79097e-08
9.25996e-08
-2.50538e-08
-2.81753e-08
-3.07868e-09
-3.27896e-09
2.23079e-09
4.05991e-09
-6.56911e-09
-6.76712e-10
-3.43496e-09
1.97724e-09
7.58664e-10
2.92851e-10
-4.93612e-09
3.88219e-07
-6.52802e-08
-6.23897e-09
-2.96378e-07
2.45325e-10
-8.26707e-09
2.41764e-10
2.00393e-09
2.13999e-11
3.20998e-09
-5.86968e-09
6.34368e-10
2.13123e-09
3.11192e-09
4.78281e-09
-7.74044e-10
5.47152e-08
-8.07761e-08
1.75734e-08
-7.64085e-10
9.22822e-10
4.7615e-09
-9.05523e-11
-7.04744e-09
1.18753e-09
7.98477e-10
3.28125e-09
6.49444e-08
-4.10895e-08
-2.02018e-08
-7.46752e-09
-2.69407e-10
-1.36508e-09
1.75567e-10
-5.6121e-10
2.02011e-09
-1.0722e-10
4.84091e-11
-2.84785e-11
-1.05727e-10
1.93017e-10
-3.37506e-11
-9.86389e-12
1.78789e-10
1.26983e-11
2.55445e-11
-3.77039e-11
-6.34922e-11
-7.22213e-11
1.33952e-09
2.32233e-11
-2.39805e-11
-2.45531e-10
-2.43598e-10
-4.06406e-10
-4.03894e-10
1.35006e-09
1.92701e-11
-2.69044e-12
1.35536e-09
9.51522e-12
4.14949e-13
1.35901e-09
5.78694e-12
-6.16834e-14
1.36117e-09
3.16567e-12
3.27011e-14
1.36272e-09
1.6329e-12
2.02946e-14
1.36326e-09
8.98989e-13
4.47958e-13
1.36393e-09
4.68055e-13
3.48845e-14
1.36424e-09
3.41768e-13
3.84729e-14
1.36414e-09
8.58195e-14
4.969e-13
1.36395e-09
-9.68917e-13
1.31874e-12
1.3641e-09
1.97256e-13
-1.26845e-13
1.36416e-09
4.25945e-14
3.27372e-14
1.36393e-09
-3.95944e-15
-4.66186e-15
1.364e-09
2.61642e-13
-4.70582e-13
1.36399e-09
-1.76116e-14
1.42578e-13
1.36402e-09
1.36786e-13
-3.77877e-13
1.3629e-09
-5.85525e-13
2.67715e-12
1.36314e-09
-4.53149e-13
1.01753e-13
1.36344e-09
-3.05825e-13
3.00433e-14
1.36163e-09
4.74072e-12
-2.66898e-12
1.36316e-09
5.10638e-13
2.84025e-12
1.36336e-09
-3.22228e-13
-1.06108e-12
1.36279e-09
-1.79679e-13
7.3022e-13
1.36264e-09
2.55438e-14
1.00642e-13
1.36262e-09
-6.10383e-14
1.39767e-13
1.36275e-09
2.99084e-14
5.74082e-13
1.36273e-09
2.98664e-14
4.73621e-15
1.36279e-09
-2.81087e-13
-6.02315e-14
1.36181e-09
1.92208e-12
-7.46329e-13
1.36192e-09
-2.58561e-13
-3.70945e-13
1.36234e-09
-1.53899e-12
3.58304e-13
1.36281e-09
-9.57414e-14
-1.25151e-13
1.36164e-09
1.49719e-12
1.59375e-13
1.36164e-09
-6.26601e-13
9.52733e-13
1.36129e-09
4.15902e-13
1.49092e-13
1.36136e-09
-3.12411e-13
1.31653e-13
1.3612e-09
5.44845e-15
9.36111e-15
1.36161e-09
-7.99361e-13
1.78332e-12
1.36203e-09
7.05932e-13
3.62213e-14
1.3624e-09
-1.10855e-13
-9.62637e-13
-1.84906e-13
-1.42773e-12
9.2176e-10
2.22725e-09
-5.68815e-09
2.73011e-09
-1.54266e-09
-6.06298e-09
5.43557e-10
1.02133e-08
-3.15121e-09
8.62675e-09
-2.08608e-09
-3.48299e-09
5.63352e-10
-3.62104e-09
-5.27081e-10
1.0668e-09
-1.38613e-09
-2.50779e-09
1.67606e-09
2.71402e-10
3.76035e-10
1.0307e-09
7.74172e-10
3.79201e-09
1.14584e-09
2.49878e-09
-8.21081e-09
4.395e-11
-3.20926e-10
-2.96964e-11
-2.49518e-10
5.5619e-10
-7.20903e-11
-9.09129e-12
1.44254e-11
-6.26601e-11
1.29416e-10
-3.16471e-11
-1.36104e-11
1.6836e-10
6.98599e-12
1.18043e-11
-2.98933e-11
-5.81575e-11
-5.38426e-11
1.30466e-09
-3.46837e-11
-2.11582e-11
-2.33892e-10
-2.27106e-10
-3.86886e-10
-3.77773e-10
1.33179e-09
-6.39544e-12
-1.645e-12
1.34628e-09
-5.83026e-12
7.03447e-13
1.35447e-09
-2.43621e-12
-1.08006e-13
1.35885e-09
-1.45575e-12
9.41722e-14
1.36111e-09
-8.38549e-13
5.31084e-14
1.36319e-09
-6.33933e-13
-6.87882e-13
1.36383e-09
-3.42727e-13
4.25998e-14
1.36377e-09
2.4625e-13
3.25067e-14
1.36406e-09
-3.46052e-13
1.28902e-14
1.36396e-09
4.26178e-13
-1.40612e-12
1.3642e-09
-5.46828e-13
3.88058e-13
1.36415e-09
-7.49231e-14
5.82725e-14
1.36416e-09
1.05342e-13
-2.38629e-13
1.36379e-09
-6.0854e-13
1.12599e-12
1.36387e-09
-2.67088e-13
5.66202e-14
1.36326e-09
-1.43968e-13
7.88014e-13
1.36325e-09
-5.1212e-13
-1.6164e-13
1.36288e-09
-9.38635e-14
-8.92061e-14
1.36189e-09
7.85811e-13
-1.88854e-13
1.36326e-09
4.67965e-13
2.81807e-12
1.36307e-09
6.52794e-13
-3.97313e-14
1.36379e-09
-2.87976e-12
1.76032e-12
1.36343e-09
1.76942e-13
-6.89364e-14
1.36253e-09
1.0926e-12
-2.45681e-13
1.36243e-09
3.65121e-14
-6.58137e-14
1.3625e-09
-1.56161e-13
4.60901e-14
1.36232e-09
5.97062e-13
-4.44696e-13
1.36191e-09
-2.48208e-13
3.13826e-13
1.36267e-09
4.06265e-13
6.98451e-13
1.36265e-09
-2.45707e-13
-3.76733e-14
1.36197e-09
-3.54828e-13
-5.5862e-13
1.36143e-09
8.90336e-14
3.12853e-13
1.3623e-09
7.07347e-13
-1.12835e-13
1.36167e-09
9.02555e-13
-9.40154e-13
1.36198e-09
2.59381e-13
-1.75538e-13
1.36166e-09
9.63083e-14
-1.1886e-13
1.36112e-09
4.86221e-13
3.5283e-14
1.36168e-09
-1.23218e-12
-1.44795e-13
1.3615e-09
6.25316e-13
2.48815e-13
1.36287e-09
-3.41093e-12
1.92458e-12
-2.90546e-13
-5.04046e-13
-2.76395e-10
3.29747e-09
1.03789e-09
-3.868e-09
-5.23353e-10
-8.16158e-10
4.55226e-09
-2.07276e-08
1.75148e-08
-1.80892e-10
6.28344e-10
-6.78988e-10
-4.17481e-09
4.40635e-09
6.3982e-11
-2.03733e-09
8.99625e-10
8.7188e-10
2.01829e-10
2.40506e-09
-3.16604e-10
-6.91772e-10
-7.10195e-10
1.15575e-10
-1.15679e-09
-1.30639e-10
-8.90552e-10
-1.04298e-09
-1.81478e-10
1.22191e-09
2.02412e-10
1.16133e-09
1.47086e-11
8.10976e-11
1.65444e-09
-6.87817e-10
-1.55129e-10
-8.92593e-10
-1.56838e-10
-2.3959e-12
1.04802e-11
1.07103e-10
4.16499e-11
1.32071e-09
-4.85278e-11
-2.55588e-11
-2.2984e-10
-2.28742e-10
-3.87075e-10
-3.87155e-10
5.18671e-13
-4.16445e-12
-2.31915e-13
-9.93408e-12
1.33042e-09
-4.28049e-11
-1.76261e-12
1.34486e-09
-2.09931e-11
-2.11879e-14
1.35236e-09
-1.35334e-11
4.75769e-14
1.35735e-09
-7.84218e-12
2.73531e-13
1.36029e-09
-4.70216e-12
1.65757e-13
1.36221e-09
-2.95905e-12
5.65222e-14
1.36305e-09
-2.01802e-12
4.10829e-13
1.36335e-09
-6.24985e-13
-1.46779e-13
1.36411e-09
-6.67374e-13
2.04282e-14
1.36419e-09
-5.80692e-13
2.96497e-14
1.36439e-09
-5.20519e-14
1.65198e-13
1.36405e-09
-1.94048e-13
-1.32571e-13
1.364e-09
-2.55016e-13
1.13301e-13
1.36366e-09
-2.84367e-13
6.05184e-13
1.36374e-09
-2.5503e-13
-5.48471e-13
1.36332e-09
2.87235e-14
1.33213e-14
1.36381e-09
4.85686e-14
-7.81773e-13
1.36372e-09
-6.1623e-13
9.46199e-14
1.36301e-09
9.99196e-13
-4.80441e-13
1.36359e-09
-6.87566e-14
1.80886e-13
1.36357e-09
2.83032e-13
1.27424e-13
1.36339e-09
1.2957e-13
6.15984e-13
1.36242e-09
-1.87106e-13
-1.80665e-12
1.36239e-09
1.20861e-13
1.55973e-14
1.36316e-09
9.80325e-13
-7.29467e-13
1.36228e-09
-1.87425e-13
1.03288e-12
1.3623e-09
-4.679e-14
-2.00586e-13
1.36223e-09
1.24901e-13
4.8491e-13
1.36211e-09
4.54076e-14
-2.34279e-13
1.36268e-09
-3.59962e-13
1.36762e-13
1.36221e-09
8.63432e-13
-6.93249e-13
1.36221e-09
-3.46188e-13
-4.78715e-14
1.3625e-09
-2.86656e-13
3.91951e-14
1.36195e-09
2.29553e-12
-1.07933e-12
1.36177e-09
1.20995e-12
-1.58709e-13
1.36145e-09
5.05887e-13
4.20331e-14
1.3622e-09
-1.30259e-12
6.28642e-13
1.36242e-09
4.06126e-14
2.04277e-13
1.36141e-09
-1.51366e-13
-9.09898e-14
1.36164e-09
5.1554e-13
-1.38518e-13
1.36128e-09
8.80084e-13
-3.93371e-12
-1.97906e-12
4.63771e-15
-5.49819e-09
8.58483e-08
-5.40819e-09
-5.23885e-09
4.12317e-09
-4.38666e-08
-5.41197e-08
2.55524e-08
3.39915e-09
6.76488e-09
5.98457e-09
7.05471e-09
-2.97599e-09
1.6886e-10
-3.41794e-09
7.26785e-10
-1.98984e-10
7.08323e-10
-1.27427e-09
-1.40172e-08
2.359e-08
9.93243e-09
-2.2265e-08
-1.00278e-09
-7.39105e-10
4.4617e-10
-5.60808e-10
1.04174e-09
2.28915e-09
2.04958e-09
1.17155e-09
8.11182e-10
-2.54339e-10
-6.11667e-10
-1.11673e-09
-1.49974e-10
-1.61567e-09
1.83367e-09
9.14859e-10
-9.82886e-10
7.81182e-10
5.57731e-10
1.66965e-10
-2.79559e-10
-1.22632e-09
-3.16588e-11
2.10042e-12
-3.40179e-12
8.55739e-12
2.44029e-11
1.34569e-09
-2.877e-11
-2.35722e-10
-2.40967e-10
-4.00075e-10
-4.08965e-10
1.35052e-09
3.19187e-13
1.35717e-09
-4.56856e-15
1.36081e-09
1.317e-13
1.36238e-09
8.65657e-14
1.36323e-09
-1.56479e-13
1.36374e-09
2.12732e-13
1.36435e-09
8.12173e-14
1.36459e-09
-1.72973e-15
1.36464e-09
-6.47834e-15
1.36445e-09
-8.43571e-14
1.3643e-09
3.3372e-14
1.36433e-09
-9.78387e-16
1.36376e-09
-6.36776e-13
1.3638e-09
-2.61295e-13
1.36355e-09
1.76595e-13
1.36363e-09
4.9917e-14
1.36341e-09
2.88253e-13
1.36339e-09
6.78591e-14
1.36355e-09
7.80954e-13
1.36329e-09
-1.86293e-14
1.3636e-09
1.19996e-12
1.36336e-09
4.23337e-13
1.36294e-09
-1.84933e-12
1.36199e-09
-1.05681e-12
1.36224e-09
1.09153e-12
1.36272e-09
-6.53289e-13
1.36253e-09
1.35073e-13
1.36236e-09
8.86301e-14
1.36229e-09
-2.54663e-14
1.36198e-09
1.51722e-14
1.36264e-09
7.41861e-13
1.36228e-09
1.25952e-13
1.36239e-09
-4.48377e-13
1.3633e-09
1.3275e-12
1.36151e-09
2.35909e-13
1.36209e-09
-1.31102e-13
1.36166e-09
-6.16941e-13
1.36195e-09
-2.37533e-13
1.36188e-09
-1.61499e-13
1.36255e-09
-2.298e-13
1.3615e-09
2.19466e-12
5.04171e-14
9.0929e-09
1.89574e-09
-6.63353e-09
-2.08845e-09
9.07141e-09
-1.93814e-09
-2.82614e-09
7.37607e-10
1.51265e-09
6.11289e-10
-3.55381e-10
-1.39068e-09
-5.13091e-09
-8.14803e-10
3.88097e-10
9.74953e-10
5.06483e-09
-2.11938e-09
1.596e-09
1.63505e-08
2.18047e-09
-7.9467e-10
3.42992e-09
-4.08173e-09
-5.16247e-10
-1.23999e-09
3.62483e-09
-7.08774e-09
2.49563e-10
2.66319e-09
3.75374e-09
1.0099e-10
-1.81193e-10
1.85552e-10
-1.88953e-10
5.90494e-11
-1.37202e-10
-3.28021e-11
6.18672e-10
-5.87672e-11
4.67633e-12
-1.57156e-10
-1.39738e-10
-1.60381e-10
2.35111e-09
-1.01477e-10
3.12156e-11
-6.03097e-10
-6.11262e-10
-6.03096e-10
-6.11266e-10
2.30998e-09
-3.0767e-11
1.20944e-12
2.2967e-09
-2.72247e-11
-3.26296e-14
2.287e-09
-1.57048e-11
1.84974e-14
2.28309e-09
-9.94965e-12
-3.60146e-13
2.28107e-09
-6.13519e-12
-4.12408e-13
2.2791e-09
-3.95083e-12
1.05673e-13
2.27724e-09
-2.35333e-12
7.25272e-14
2.27708e-09
-1.47621e-12
-1.15516e-14
2.27652e-09
-9.03454e-13
-2.18054e-14
2.27627e-09
-7.01634e-13
-2.15157e-14
2.27532e-09
3.7447e-12
-1.60474e-12
2.27521e-09
-4.4913e-13
-2.90159e-13
2.27541e-09
-1.45165e-14
-6.88593e-13
2.27482e-09
3.52047e-13
-3.29246e-13
2.27457e-09
3.78357e-13
8.97057e-14
2.27428e-09
6.56166e-14
-1.42266e-13
2.27378e-09
1.29959e-12
-2.85263e-13
2.27563e-09
-2.89396e-12
2.51374e-13
2.27503e-09
-3.01893e-13
4.91692e-13
2.27469e-09
3.34111e-13
3.66649e-14
2.27385e-09
-4.24757e-13
4.58376e-13
2.27365e-09
4.05908e-13
-2.5697e-13
2.27239e-09
5.81098e-12
-1.57214e-12
2.27217e-09
4.96563e-12
-2.98023e-12
2.27267e-09
-2.33738e-12
4.01049e-13
2.27401e-09
8.45452e-13
-9.00035e-13
2.27342e-09
2.78212e-13
2.11764e-14
2.27268e-09
5.00903e-13
2.28806e-13
2.27169e-09
8.95745e-13
9.07283e-14
2.27126e-09
-1.16089e-12
7.50215e-13
2.27418e-09
-6.89966e-13
-2.14193e-12
2.27308e-09
9.70065e-13
-5.72928e-14
2.27233e-09
3.03214e-13
5.91956e-13
2.27279e-09
-1.54193e-13
-1.00759e-13
2.27433e-09
1.58163e-12
-5.06319e-13
2.27142e-09
4.19654e-12
-3.57217e-12
2.272e-09
-1.03631e-12
-3.164e-14
2.27219e-09
-3.84502e-13
1.21584e-14
2.27241e-09
-1.13567e-13
-1.04563e-13
2.27228e-09
-4.6749e-14
2.02664e-13
2.27115e-09
8.45267e-13
1.08821e-12
-6.70373e-13
-4.64029e-13
1.29779e-08
-1.40993e-09
3.81577e-09
4.12591e-09
-1.93631e-08
-1.25682e-09
-8.51799e-09
-4.10354e-09
6.92301e-10
1.14445e-08
2.8917e-09
-1.70323e-09
2.0039e-09
-1.45083e-09
2.53169e-09
-4.38296e-09
1.10312e-08
2.47508e-10
5.60681e-09
2.06795e-09
3.45082e-09
1.88035e-09
-8.83515e-11
3.8572e-09
4.33626e-10
-6.03696e-09
-2.4707e-09
-3.88893e-09
-8.74585e-10
2.26301e-09
9.17333e-10
-1.48449e-09
3.49948e-09
-1.40508e-09
1.39062e-09
1.15443e-09
-2.57149e-09
-2.88067e-09
-7.22752e-11
-4.08382e-11
1.1973e-10
1.53417e-10
2.72065e-09
-1.68677e-10
-1.89967e-11
8.71575e-12
-1.25415e-12
7.71047e-12
1.725e-10
2.42545e-09
-1.03971e-12
3.65449e-11
-6.51e-10
-6.32718e-10
-6.50979e-10
-6.32712e-10
-1.53143e-11
-1.04429e-12
-1.53168e-11
2.3448e-09
4.64205e-11
1.57233e-12
2.31646e-09
6.44323e-14
3.93138e-13
2.29927e-09
9.94048e-13
1.29993e-13
2.28999e-09
-1.26331e-12
1.7035e-13
2.28442e-09
-1.26094e-12
2.02031e-13
2.28131e-09
-1.20101e-12
1.98912e-14
2.27956e-09
-8.67403e-13
-2.18696e-14
2.27717e-09
-9.67536e-14
4.23632e-13
2.27666e-09
1.75597e-14
-3.57709e-13
2.2757e-09
-1.21706e-12
-8.28867e-13
2.27679e-09
-7.8133e-13
1.55758e-12
2.27585e-09
3.59991e-13
-6.32268e-14
2.27541e-09
-7.75583e-13
4.91481e-13
2.27422e-09
7.8865e-13
2.47873e-13
2.27473e-09
-4.78845e-12
1.73272e-12
2.27681e-09
-4.96053e-12
3.46045e-12
2.27623e-09
6.12746e-13
6.18105e-13
2.27312e-09
-3.13086e-13
-3.37152e-13
2.27352e-09
-1.18344e-13
-4.05201e-13
2.27376e-09
-1.81188e-13
3.60072e-14
2.27256e-09
4.10752e-12
-2.21585e-12
2.2721e-09
1.09735e-12
3.71034e-13
2.2731e-09
5.61393e-13
2.17108e-12
2.27331e-09
9.57698e-13
1.84541e-12
2.27466e-09
-3.30214e-12
2.91478e-12
2.27381e-09
1.45293e-12
1.92534e-12
2.27351e-09
3.03832e-13
4.30951e-14
2.27301e-09
3.08384e-12
-1.18474e-12
2.27363e-09
3.05927e-13
-1.34739e-13
2.27384e-09
-4.90397e-13
-6.71092e-13
2.27114e-09
-8.97927e-13
2.24803e-12
2.27138e-09
5.9256e-13
-1.03849e-13
2.27134e-09
1.86549e-13
4.5105e-14
2.27044e-09
6.15903e-13
-1.30419e-13
2.27164e-09
1.26663e-12
-2.19836e-13
2.27407e-09
1.12274e-13
3.73961e-12
2.27305e-09
-1.89932e-13
7.75968e-14
2.27256e-09
7.93525e-14
9.50397e-14
2.27206e-09
3.19525e-13
2.5444e-14
2.27172e-09
3.87583e-13
-2.45807e-13
2.27218e-09
3.32711e-14
-1.14223e-12
-3.5642e-13
2.35553e-13
-4.35879e-10
-2.147e-09
3.8974e-09
-2.07862e-09
5.4965e-09
-1.16264e-09
-1.58696e-09
-1.37516e-09
4.87022e-09
5.53254e-09
-1.83816e-09
-1.32252e-08
1.18088e-08
-7.1482e-09
7.08342e-09
7.34279e-09
3.52374e-09
-7.93134e-09
-1.07177e-08
-1.35261e-09
-3.80891e-10
6.16878e-10
1.81575e-09
1.23699e-09
-4.03428e-09
5.89787e-09
2.85467e-09
-2.50443e-09
-5.52688e-09
-1.37327e-09
-3.39358e-10
2.98614e-09
-1.78852e-09
6.0419e-09
6.11247e-10
-2.2393e-10
-8.58906e-11
1.0767e-10
2.01789e-10
-6.10882e-10
-1.20815e-10
-7.11171e-11
-5.27773e-11
6.16122e-11
3.45566e-11
1.4854e-10
-6.00181e-10
5.98822e-10
2.17629e-12
5.7031e-13
-2.44272e-12
2.30106e-09
1.81447e-11
2.36464e-11
-5.76216e-10
-5.83718e-10
-5.76223e-10
-5.83741e-10
2.29411e-09
2.7056e-12
2.02622e-12
2.29136e-09
4.59827e-12
-5.49392e-13
2.28747e-09
2.21673e-12
5.25412e-14
2.28438e-09
1.96144e-12
-2.71568e-13
2.28158e-09
1.3696e-12
-2.32574e-14
2.27944e-09
1.17417e-12
-8.96376e-14
2.27902e-09
1.2549e-13
-4.3116e-15
2.27768e-09
1.03005e-12
6.66655e-14
2.27664e-09
1.21269e-12
8.2181e-14
2.27562e-09
-3.45981e-12
1.77521e-12
2.27572e-09
4.0811e-14
2.23169e-14
2.27583e-09
-9.19532e-14
-5.65768e-13
2.27641e-09
-7.69754e-14
1.77025e-14
2.27547e-09
-1.75191e-13
-1.82424e-12
2.27324e-09
-5.23998e-13
-3.37533e-12
2.2735e-09
-3.50004e-13
8.27154e-13
2.27352e-09
-4.81693e-13
-5.41711e-14
2.27309e-09
2.73999e-14
1.26238e-13
2.27258e-09
8.30067e-13
-3.72142e-13
2.27339e-09
-6.78695e-13
1.88997e-12
2.27482e-09
-3.75276e-12
9.86312e-13
2.27435e-09
1.07567e-12
-1.51427e-13
2.27594e-09
-2.79486e-12
8.93163e-13
2.27314e-09
4.97485e-14
-3.43834e-12
2.27221e-09
2.63053e-13
-1.18462e-12
2.2723e-09
1.16497e-13
9.82868e-14
2.27333e-09
5.54861e-14
9.12417e-13
2.27323e-09
2.46486e-13
-4.80793e-14
2.27294e-09
-3.87753e-14
3.87258e-15
2.27231e-09
-7.60454e-13
-5.88809e-14
2.27178e-09
3.2841e-12
-1.01351e-12
2.27048e-09
7.28393e-13
5.70643e-13
2.27097e-09
6.28432e-13
2.50418e-13
2.27161e-09
1.08154e-12
-2.3244e-13
2.27391e-09
-2.3154e-12
1.65132e-13
2.2731e-09
1.15898e-12
-2.77159e-13
2.27272e-09
6.11677e-13
-1.01931e-13
2.27237e-09
2.70408e-13
1.94594e-13
2.27163e-09
1.01077e-12
5.46116e-14
2.27144e-09
4.98506e-13
1.03873e-13
-2.56627e-12
1.49112e-12
-2.51582e-09
-3.20768e-09
3.05067e-10
4.354e-09
1.67207e-09
1.84968e-09
3.17506e-09
1.4671e-09
-1.08202e-09
-3.13374e-09
-2.27608e-09
2.13187e-09
7.41026e-09
1.00507e-09
-5.41732e-10
-7.28097e-09
-2.72428e-09
-6.06713e-11
4.47103e-09
-4.80344e-09
-5.27212e-09
-1.51007e-10
-6.59674e-11
4.43747e-11
3.18591e-10
1.08983e-09
-4.95381e-10
-4.24546e-10
1.08153e-08
-4.12743e-09
-4.04989e-11
-1.29839e-09
-3.96563e-10
-2.18699e-09
-1.3995e-10
5.06319e-09
-1.66238e-09
-1.3135e-10
-1.00038e-10
-6.42639e-10
1.96722e-10
3.94672e-10
1.0502e-10
-2.0396e-10
3.15103e-10
-6.05294e-11
-5.50303e-10
-1.92527e-10
-1.02978e-10
-6.80338e-11
9.61981e-11
1.61329e-10
1.06012e-10
-1.40205e-10
5.98678e-10
-1.15682e-11
-6.27083e-13
-1.03494e-12
-1.48809e-10
-1.45111e-10
-1.54792e-10
3.46843e-12
2.31041e-09
1.91811e-11
2.51513e-11
-5.91453e-10
-5.89379e-10
-5.91483e-10
-5.89417e-10
2.29669e-09
1.07894e-11
2.63535e-12
2.29166e-09
1.02335e-11
-4.41048e-13
2.28612e-09
7.51159e-12
-3.07327e-14
2.28294e-09
4.95772e-12
-2.77995e-14
2.2806e-09
3.4083e-12
6.4755e-15
2.27911e-09
2.24892e-12
7.54334e-14
2.27773e-09