/*--------------------------------*- C++ -*----------------------------------*\
| =========                 |                                                 |
| \\      /  F ield         | OpenFOAM: The Open Source CFD Toolbox           |
|  \\    /   O peration     | Version:  5.0                                   |
|   \\  /    A nd           | Web:      www.OpenFOAM.org                      |
|    \\/     M anipulation  |                                                 |
\*---------------------------------------------------------------------------*/
FoamFile
{
    version     2.0;
    format      ascii;
    class       volScalarField;
    location    "2.3";
    object      rAU;
}
// * * * * * * * * * * * * * * * * * * * * * * * * * * * * * * * * * * * * * //

dimensions      [-1 3 1 0 0 0 0];

internalField   nonuniform List<scalar> 
8969
(
8.69335e-07
8.58111e-07
1.89863e-07
9.5635e-07
8.89885e-07
6.94192e-07
1.29272e-07
3.92419e-07
3.93662e-07
3.94697e-07
3.95731e-07
3.96763e-07
3.97795e-07
3.98827e-07
3.99857e-07
4.00887e-07
4.01916e-07
4.02944e-07
4.03972e-07
4.04999e-07
4.06025e-07
4.07051e-07
4.08076e-07
4.091e-07
4.10123e-07
4.11146e-07
4.12167e-07
4.13188e-07
4.14209e-07
4.15228e-07
4.16247e-07
4.17265e-07
4.18282e-07
4.19298e-07
4.20314e-07
4.21329e-07
4.22343e-07
4.23356e-07
4.24368e-07
4.2538e-07
4.26391e-07
4.27401e-07
4.2841e-07
4.29418e-07
4.30426e-07
4.31432e-07
4.32438e-07
4.33443e-07
4.34447e-07
4.36223e-07
5.83976e-07
6.78227e-07
9.24873e-07
9.67947e-07
8.82159e-07
6.39088e-07
3.51103e-08
3.92285e-07
3.93662e-07
3.94696e-07
3.95731e-07
3.96763e-07
3.97795e-07
3.98827e-07
3.99857e-07
4.00887e-07
4.01916e-07
4.02944e-07
4.03972e-07
4.04999e-07
4.06025e-07
4.07051e-07
4.08076e-07
4.091e-07
4.10123e-07
4.11146e-07
4.12167e-07
4.13188e-07
4.14209e-07
4.15228e-07
4.16247e-07
4.17265e-07
4.18282e-07
4.19298e-07
4.20314e-07
4.21329e-07
4.22343e-07
4.23356e-07
4.24368e-07
4.2538e-07
4.26391e-07
4.27401e-07
4.2841e-07
4.29418e-07
4.30426e-07
4.31432e-07
4.32438e-07
4.33443e-07
4.34447e-07
4.36223e-07
8.67577e-07
8.62479e-07
8.84643e-07
8.92124e-07
8.98373e-07
6.89455e-07
5.66976e-08
1.2987e-07
3.93454e-07
3.94697e-07
3.95731e-07
3.96763e-07
3.97795e-07
3.98827e-07
3.99857e-07
4.00887e-07
4.01916e-07
4.02944e-07
4.03972e-07
4.04999e-07
4.06025e-07
4.07051e-07
4.08076e-07
4.091e-07
4.10123e-07
4.11146e-07
4.12167e-07
4.13188e-07
4.14209e-07
4.15228e-07
4.16247e-07
4.17265e-07
4.18282e-07
4.19298e-07
4.20314e-07
4.21329e-07
4.22343e-07
4.23356e-07
4.24368e-07
4.2538e-07
4.26391e-07
4.27401e-07
4.2841e-07
4.29418e-07
4.30426e-07
4.31432e-07
4.32438e-07
4.33443e-07
4.34447e-07
4.36223e-07
8.89575e-07
8.98653e-07
8.6583e-07
8.8437e-07
8.76972e-07
6.75759e-07
6.96039e-07
1.29721e-07
3.93454e-07
3.94698e-07
3.95731e-07
3.96764e-07
3.97795e-07
3.98827e-07
3.99857e-07
4.00887e-07
4.01916e-07
4.02944e-07
4.03972e-07
4.04999e-07
4.06025e-07
4.07051e-07
4.08076e-07
4.091e-07
4.10123e-07
4.11146e-07
4.12167e-07
4.13188e-07
4.14209e-07
4.15228e-07
4.16247e-07
4.17265e-07
4.18282e-07
4.19298e-07
4.20314e-07
4.21329e-07
4.22343e-07
4.23356e-07
4.24368e-07
4.2538e-07
4.26391e-07
4.27401e-07
4.2841e-07
4.29418e-07
4.30426e-07
4.31432e-07
4.32438e-07
4.33443e-07
4.34447e-07
4.36223e-07
8.66948e-07
7.01277e-07
8.23334e-07
8.15921e-07
8.22543e-07
6.85619e-07
7.01018e-07
1.29721e-07
3.93455e-07
3.94698e-07
3.95731e-07
3.96764e-07
3.97795e-07
3.98827e-07
3.99857e-07
4.00887e-07
4.01916e-07
4.02944e-07
4.03972e-07
4.04999e-07
4.06025e-07
4.07051e-07
4.08076e-07
4.091e-07
4.10123e-07
4.11146e-07
4.12167e-07
4.13188e-07
4.14209e-07
4.15228e-07
4.16247e-07
4.17265e-07
4.18282e-07
4.19298e-07
4.20314e-07
4.21329e-07
4.22343e-07
4.23356e-07
4.24368e-07
4.2538e-07
4.26391e-07
4.27401e-07
4.2841e-07
4.29418e-07
4.30426e-07
4.31432e-07
4.32438e-07
4.33443e-07
4.34447e-07
4.36223e-07
8.08579e-07
8.84354e-07
2.24319e-07
8.80676e-07
5.74494e-07
6.66507e-07
7.00925e-07
1.29723e-07
3.93455e-07
3.94698e-07
3.95731e-07
3.96764e-07
3.97795e-07
3.98827e-07
3.99857e-07
4.00887e-07
4.01916e-07
4.02944e-07
4.03972e-07
4.04999e-07
4.06025e-07
4.07051e-07
4.08076e-07
4.091e-07
4.10123e-07
4.11146e-07
4.12167e-07
4.13188e-07
4.14209e-07
4.15228e-07
4.16247e-07
4.17265e-07
4.18282e-07
4.19298e-07
4.20314e-07
4.21329e-07
4.22343e-07
4.23356e-07
4.24368e-07
4.2538e-07
4.26391e-07
4.27401e-07
4.2841e-07
4.29418e-07
4.30426e-07
4.31432e-07
4.32438e-07
4.33443e-07
4.34447e-07
4.36223e-07
6.77636e-07
7.13746e-07
4.56922e-07
7.27864e-07
7.66862e-07
6.94614e-07
7.00379e-07
1.29723e-07
3.93455e-07
3.94698e-07
3.95731e-07
3.96764e-07
3.97795e-07
3.98827e-07
3.99857e-07
4.00887e-07
4.01916e-07
4.02944e-07
4.03972e-07
4.04999e-07
4.06025e-07
4.07051e-07
4.08076e-07
4.091e-07
4.10123e-07
4.11146e-07
4.12167e-07
4.13188e-07
4.14209e-07
4.15228e-07
4.16247e-07
4.17265e-07
4.18282e-07
4.19298e-07
4.20314e-07
4.21329e-07
4.22343e-07
4.23356e-07
4.24368e-07
4.2538e-07
4.26391e-07
4.27401e-07
4.2841e-07
4.29418e-07
4.30426e-07
4.31432e-07
4.32438e-07
4.33443e-07
4.34447e-07
4.36223e-07
8.89803e-07
7.46262e-07
8.33455e-07
6.86622e-07
5.62168e-07
4.35302e-07
6.89642e-07
1.2969e-07
3.93454e-07
3.94698e-07
3.95731e-07
3.96764e-07
3.97795e-07
3.98827e-07
3.99857e-07
4.00887e-07
4.01916e-07
4.02944e-07
4.03972e-07
4.04999e-07
4.06025e-07
4.07051e-07
4.08076e-07
4.091e-07
4.10123e-07
4.11146e-07
4.12167e-07
4.13188e-07
4.14209e-07
4.15228e-07
4.16247e-07
4.17265e-07
4.18282e-07
4.19298e-07
4.20314e-07
4.21329e-07
4.22343e-07
4.23356e-07
4.24368e-07
4.2538e-07
4.26391e-07
4.27401e-07
4.2841e-07
4.29418e-07
4.30426e-07
4.31432e-07
4.32438e-07
4.33443e-07
4.34447e-07
4.36223e-07
8.61201e-07
8.7573e-07
5.00803e-07
6.71143e-07
8.28166e-07
6.85671e-07
4.82e-08
3.92286e-07
3.93662e-07
3.94697e-07
3.95731e-07
3.96763e-07
3.97795e-07
3.98827e-07
3.99857e-07
4.00887e-07
4.01916e-07
4.02944e-07
4.03972e-07
4.04999e-07
4.06025e-07
4.07051e-07
4.08076e-07
4.091e-07
4.10123e-07
4.11146e-07
4.12167e-07
4.13188e-07
4.14209e-07
4.15228e-07
4.16247e-07
4.17265e-07
4.18282e-07
4.19298e-07
4.20314e-07
4.21329e-07
4.22343e-07
4.23356e-07
4.24368e-07
4.2538e-07
4.26391e-07
4.27401e-07
4.2841e-07
4.29418e-07
4.30426e-07
4.31432e-07
4.32438e-07
4.33443e-07
4.34447e-07
4.36223e-07
9.36044e-07
8.88509e-07
6.49966e-07
5.03832e-07
6.80802e-07
6.89472e-07
3.50945e-08
3.92419e-07
3.93662e-07
3.94697e-07
3.95731e-07
3.96763e-07
3.97795e-07
3.98827e-07
3.99857e-07
4.00887e-07
4.01916e-07
4.02944e-07
4.03972e-07
4.04999e-07
4.06025e-07
4.07051e-07
4.08076e-07
4.091e-07
4.10123e-07
4.11146e-07
4.12167e-07
4.13188e-07
4.14209e-07
4.15228e-07
4.16247e-07
4.17265e-07
4.18282e-07
4.19298e-07
4.20314e-07
4.21329e-07
4.22343e-07
4.23356e-07
4.24368e-07
4.2538e-07
4.26391e-07
4.27401e-07
4.2841e-07
4.29418e-07
4.30426e-07
4.31432e-07
4.32438e-07
4.33443e-07
4.34447e-07
4.36223e-07
8.60864e-07
8.4644e-07
2.63908e-07
9.62353e-07
8.96793e-07
7.47211e-07
1.83351e-07
5.04893e-07
5.06384e-07
5.07527e-07
5.08665e-07
5.09803e-07
5.1094e-07
5.12073e-07
5.13206e-07
5.14337e-07
5.15465e-07
5.16593e-07
5.17719e-07
5.18842e-07
5.19965e-07
5.21086e-07
5.22205e-07
5.23323e-07
5.24439e-07
5.25553e-07
5.26666e-07
5.27778e-07
5.28886e-07
5.29994e-07
5.31101e-07
5.32205e-07
5.33308e-07
5.3441e-07
5.35508e-07
5.36607e-07
5.37703e-07
5.38797e-07
5.3989e-07
5.40982e-07
5.42071e-07
5.43159e-07
5.44245e-07
5.45329e-07
5.46413e-07
5.47494e-07
5.48573e-07
5.49651e-07
5.50728e-07
5.53042e-07
6.86655e-07
7.14416e-07
8.36625e-07
9.66762e-07
9.24085e-07
6.80274e-07
5.18321e-08
5.04673e-07
5.06383e-07
5.07526e-07
5.08665e-07
5.09803e-07
5.1094e-07
5.12073e-07
5.13206e-07
5.14337e-07
5.15465e-07
5.16593e-07
5.17719e-07
5.18842e-07
5.19965e-07
5.21086e-07
5.22205e-07
5.23323e-07
5.24439e-07
5.25553e-07
5.26666e-07
5.27778e-07
5.28886e-07
5.29995e-07
5.31101e-07
5.32205e-07
5.33308e-07
5.34409e-07
5.35508e-07
5.36607e-07
5.37703e-07
5.38797e-07
5.3989e-07
5.40982e-07
5.42071e-07
5.43159e-07
5.44246e-07
5.45329e-07
5.46413e-07
5.47494e-07
5.48573e-07
5.49651e-07
5.50728e-07
5.53042e-07
9.01879e-07
8.15438e-07
9.05488e-07
9.22063e-07
8.82291e-07
7.15076e-07
8.38166e-08
1.8425e-07
5.06039e-07
5.07528e-07
5.08666e-07
5.09804e-07
5.1094e-07
5.12073e-07
5.13206e-07
5.14337e-07
5.15465e-07
5.16593e-07
5.17719e-07
5.18842e-07
5.19965e-07
5.21086e-07
5.22205e-07
5.23323e-07
5.24439e-07
5.25553e-07
5.26666e-07
5.27778e-07
5.28886e-07
5.29994e-07
5.31101e-07
5.32205e-07
5.33308e-07
5.34409e-07
5.35508e-07
5.36607e-07
5.37703e-07
5.38797e-07
5.3989e-07
5.40982e-07
5.42071e-07
5.43159e-07
5.44246e-07
5.45329e-07
5.46413e-07
5.47494e-07
5.48573e-07
5.49651e-07
5.50728e-07
5.53042e-07
9.15018e-07
8.78232e-07
5.76175e-07
8.98002e-07
9.32813e-07
7.03968e-07
7.69907e-07
1.8395e-07
5.06041e-07
5.07529e-07
5.08667e-07
5.09804e-07
5.1094e-07
5.12073e-07
5.13206e-07
5.14337e-07
5.15465e-07
5.16593e-07
5.17719e-07
5.18842e-07
5.19965e-07
5.21087e-07
5.22205e-07
5.23323e-07
5.24439e-07
5.25553e-07
5.26666e-07
5.27778e-07
5.28886e-07
5.29994e-07
5.31101e-07
5.32205e-07
5.33308e-07
5.3441e-07
5.35508e-07
5.36607e-07
5.37703e-07
5.38797e-07
5.3989e-07
5.40982e-07
5.42071e-07
5.43159e-07
5.44246e-07
5.45329e-07
5.46413e-07
5.47494e-07
5.48573e-07
5.49651e-07
5.50728e-07
5.53042e-07
5.16758e-07
6.44647e-07
6.05037e-07
2.63716e-07
5.17959e-07
6.79442e-07
7.7792e-07
1.83949e-07
5.06041e-07
5.0753e-07
5.08667e-07
5.09805e-07
5.1094e-07
5.12073e-07
5.13206e-07
5.14337e-07
5.15465e-07
5.16593e-07
5.17719e-07
5.18842e-07
5.19965e-07
5.21086e-07
5.22205e-07
5.23323e-07
5.24439e-07
5.25553e-07
5.26666e-07
5.27778e-07
5.28886e-07
5.29995e-07
5.31101e-07
5.32205e-07
5.33308e-07
5.3441e-07
5.35508e-07
5.36607e-07
5.37703e-07
5.38797e-07
5.3989e-07
5.40982e-07
5.42071e-07
5.43159e-07
5.44246e-07
5.45329e-07
5.46413e-07
5.47494e-07
5.48573e-07
5.49651e-07
5.50728e-07
5.53042e-07
4.64797e-07
7.58172e-07
3.14637e-07
2.19891e-07
6.15523e-07
7.16901e-07
7.76122e-07
1.83958e-07
5.06042e-07
5.0753e-07
5.08668e-07
5.09805e-07
5.1094e-07
5.12073e-07
5.13206e-07
5.14337e-07
5.15465e-07
5.16593e-07
5.17719e-07
5.18842e-07
5.19965e-07
5.21086e-07
5.22205e-07
5.23323e-07
5.24439e-07
5.25553e-07
5.26666e-07
5.27778e-07
5.28886e-07
5.29994e-07
5.31101e-07
5.32205e-07
5.33308e-07
5.3441e-07
5.35508e-07
5.36607e-07
5.37703e-07
5.38797e-07
5.3989e-07
5.40982e-07
5.42071e-07
5.43159e-07
5.44246e-07
5.45329e-07
5.46413e-07
5.47494e-07
5.48573e-07
5.49651e-07
5.50728e-07
5.53042e-07
3.04159e-07
6.55163e-08
1.77634e-07
8.27521e-07
2.07154e-07
7.12275e-07
7.74166e-07
1.83949e-07
5.06042e-07
5.0753e-07
5.08668e-07
5.09805e-07
5.1094e-07
5.12073e-07
5.13206e-07
5.14337e-07
5.15465e-07
5.16593e-07
5.17719e-07
5.18842e-07
5.19965e-07
5.21087e-07
5.22205e-07
5.23323e-07
5.24439e-07
5.25553e-07
5.26666e-07
5.27778e-07
5.28886e-07
5.29994e-07
5.31101e-07
5.32205e-07
5.33308e-07
5.3441e-07
5.35508e-07
5.36607e-07
5.37703e-07
5.38797e-07
5.3989e-07
5.40982e-07
5.42071e-07
5.43159e-07
5.44246e-07
5.45329e-07
5.46413e-07
5.47494e-07
5.48573e-07
5.49651e-07
5.50728e-07
5.53042e-07
8.92335e-07
6.76207e-07
8.63174e-07
9.09499e-07
7.18542e-07
7.11943e-07
7.64808e-07
1.8395e-07
5.06041e-07
5.07529e-07
5.08667e-07
5.09804e-07
5.1094e-07
5.12073e-07
5.13206e-07
5.14337e-07
5.15465e-07
5.16593e-07
5.17719e-07
5.18842e-07
5.19965e-07
5.21086e-07
5.22205e-07
5.23323e-07
5.24439e-07
5.25553e-07
5.26666e-07
5.27778e-07
5.28886e-07
5.29994e-07
5.31101e-07
5.32205e-07
5.33308e-07
5.3441e-07
5.35508e-07
5.36607e-07
5.37703e-07
5.38797e-07
5.3989e-07
5.40982e-07
5.42071e-07
5.43159e-07
5.44246e-07
5.45329e-07
5.46413e-07
5.47494e-07
5.48573e-07
5.49651e-07
5.50728e-07
5.53042e-07
5.59013e-07
6.35612e-07
2.16231e-07
5.63078e-07
8.92214e-07
6.71019e-07
7.12368e-08
5.04675e-07
5.06384e-07
5.07527e-07
5.08666e-07
5.09804e-07
5.1094e-07
5.12073e-07
5.13206e-07
5.14337e-07
5.15465e-07
5.16593e-07
5.17719e-07
5.18842e-07
5.19965e-07
5.21086e-07
5.22205e-07
5.23323e-07
5.24439e-07
5.25553e-07
5.26666e-07
5.27778e-07
5.28886e-07
5.29994e-07
5.31101e-07
5.32205e-07
5.33308e-07
5.3441e-07
5.35508e-07
5.36607e-07
5.37703e-07
5.38797e-07
5.3989e-07
5.40982e-07
5.42071e-07
5.43159e-07
5.44246e-07
5.45329e-07
5.46413e-07
5.47494e-07
5.48573e-07
5.49651e-07
5.50728e-07
5.53042e-07
8.30593e-07
8.64925e-07
4.67084e-07
4.08889e-07
2.4496e-07
7.24589e-07
5.17985e-08
5.04895e-07
5.06385e-07
5.07527e-07
5.08666e-07
5.09804e-07
5.1094e-07
5.12073e-07
5.13206e-07
5.14337e-07
5.15465e-07
5.16593e-07
5.17719e-07
5.18842e-07
5.19965e-07
5.21086e-07
5.22205e-07
5.23323e-07
5.24439e-07
5.25553e-07
5.26666e-07
5.27778e-07
5.28886e-07
5.29994e-07
5.31101e-07
5.32205e-07
5.33308e-07
5.3441e-07
5.35508e-07
5.36607e-07
5.37703e-07
5.38797e-07
5.3989e-07
5.40982e-07
5.42071e-07
5.43159e-07
5.44245e-07
5.45329e-07
5.46413e-07
5.47494e-07
5.48573e-07
5.49651e-07
5.50728e-07
5.53042e-07
8.52884e-07
8.70812e-07
8.35066e-07
9.57523e-07
8.33233e-07
7.27344e-07
1.83354e-07
3.92419e-07
3.93662e-07
3.94696e-07
3.95731e-07
3.96763e-07
3.97795e-07
3.98827e-07
3.99857e-07
4.00887e-07
4.01916e-07
4.02944e-07
4.03972e-07
4.04999e-07
4.06025e-07
4.07051e-07
4.08076e-07
4.091e-07
4.10123e-07
4.11146e-07
4.12167e-07
4.13188e-07
4.14209e-07
4.15228e-07
4.16247e-07
4.17265e-07
4.18282e-07
4.19298e-07
4.20314e-07
4.21329e-07
4.22343e-07
4.23356e-07
4.24368e-07
4.2538e-07
4.26391e-07
4.27401e-07
4.2841e-07
4.29418e-07
4.30426e-07
4.31432e-07
4.32438e-07
4.33443e-07
4.34447e-07
4.36223e-07
9.51878e-07
8.39307e-07
6.56042e-07
9.67148e-07
9.10191e-07
7.6559e-07
5.18321e-08
3.92285e-07
3.93662e-07
3.94696e-07
3.9573e-07
3.96763e-07
3.97795e-07
3.98827e-07
3.99857e-07
4.00887e-07
4.01916e-07
4.02944e-07
4.03972e-07
4.04999e-07
4.06025e-07
4.07051e-07
4.08076e-07
4.091e-07
4.10123e-07
4.11146e-07
4.12167e-07
4.13188e-07
4.14209e-07
4.15228e-07
4.16247e-07
4.17265e-07
4.18282e-07
4.19298e-07
4.20314e-07
4.21329e-07
4.22343e-07
4.23356e-07
4.24368e-07
4.2538e-07
4.26391e-07
4.27401e-07
4.2841e-07
4.29418e-07
4.30426e-07
4.31432e-07
4.32438e-07
4.33443e-07
4.34447e-07
4.36223e-07
9.48914e-07
9.01617e-07
8.51392e-07
9.30102e-07
8.68571e-07
7.43259e-07
8.36535e-08
1.84255e-07
3.93454e-07
3.94697e-07
3.95731e-07
3.96763e-07
3.97795e-07
3.98827e-07
3.99857e-07
4.00887e-07
4.01916e-07
4.02944e-07
4.03972e-07
4.04999e-07
4.06025e-07
4.07051e-07
4.08076e-07
4.091e-07
4.10123e-07
4.11146e-07
4.12167e-07
4.13188e-07
4.14209e-07
4.15228e-07
4.16247e-07
4.17265e-07
4.18282e-07
4.19298e-07
4.20314e-07
4.21329e-07
4.22343e-07
4.23356e-07
4.24368e-07
4.2538e-07
4.26391e-07
4.27401e-07
4.2841e-07
4.29418e-07
4.30426e-07
4.31432e-07
4.32438e-07
4.33443e-07
4.34447e-07
4.36223e-07
8.45911e-07
8.69547e-07
3.92456e-07
7.35728e-07
9.11307e-07
7.04916e-07
7.70154e-07
1.83954e-07
3.93454e-07
3.94697e-07
3.95731e-07
3.96763e-07
3.97795e-07
3.98827e-07
3.99857e-07
4.00887e-07
4.01916e-07
4.02944e-07
4.03972e-07
4.04999e-07
4.06025e-07
4.07051e-07
4.08076e-07
4.091e-07
4.10123e-07
4.11146e-07
4.12167e-07
4.13188e-07
4.14209e-07
4.15228e-07
4.16247e-07
4.17265e-07
4.18282e-07
4.19298e-07
4.20314e-07
4.21329e-07
4.22343e-07
4.23356e-07
4.24368e-07
4.2538e-07
4.26391e-07
4.27401e-07
4.2841e-07
4.29418e-07
4.30426e-07
4.31432e-07
4.32438e-07
4.33443e-07
4.34447e-07
4.36223e-07
5.47348e-07
4.88754e-07
5.54443e-07
5.06138e-07
4.45247e-07
6.9366e-07
7.7802e-07
1.83954e-07
3.93455e-07
3.94698e-07
3.95731e-07
3.96764e-07
3.97795e-07
3.98827e-07
3.99857e-07
4.00887e-07
4.01916e-07
4.02944e-07
4.03972e-07
4.04999e-07
4.06025e-07
4.07051e-07
4.08076e-07
4.091e-07
4.10123e-07
4.11146e-07
4.12167e-07
4.13188e-07
4.14209e-07
4.15228e-07
4.16247e-07
4.17265e-07
4.18282e-07
4.19298e-07
4.20314e-07
4.21329e-07
4.22343e-07
4.23356e-07
4.24368e-07
4.2538e-07
4.26391e-07
4.27401e-07
4.2841e-07
4.29418e-07
4.30426e-07
4.31432e-07
4.32438e-07
4.33443e-07
4.34447e-07
4.36223e-07
5.4677e-07
2.51971e-07
8.52994e-07
3.10821e-07
3.93163e-07
6.85598e-07
7.7524e-07
1.83961e-07
3.93455e-07
3.94698e-07
3.95731e-07
3.96764e-07
3.97795e-07
3.98827e-07
3.99857e-07
4.00887e-07
4.01916e-07
4.02944e-07
4.03972e-07
4.04999e-07
4.06025e-07
4.07051e-07
4.08076e-07
4.091e-07
4.10123e-07
4.11146e-07
4.12167e-07
4.13188e-07
4.14209e-07
4.15228e-07
4.16247e-07
4.17265e-07
4.18282e-07
4.19298e-07
4.20314e-07
4.21329e-07
4.22343e-07
4.23356e-07
4.24368e-07
4.2538e-07
4.26391e-07
4.27401e-07
4.2841e-07
4.29418e-07
4.30426e-07
4.31432e-07
4.32438e-07
4.33443e-07
4.34447e-07
4.36223e-07
1.23836e-07
6.08117e-07
1.79095e-07
7.72784e-07
3.14395e-07
7.20306e-07
7.74452e-07
1.83954e-07
3.93455e-07
3.94698e-07
3.95731e-07
3.96764e-07
3.97795e-07
3.98827e-07
3.99857e-07
4.00887e-07
4.01916e-07
4.02944e-07
4.03972e-07
4.04999e-07
4.06025e-07
4.07051e-07
4.08076e-07
4.091e-07
4.10123e-07
4.11146e-07
4.12167e-07
4.13188e-07
4.14209e-07
4.15228e-07
4.16247e-07
4.17265e-07
4.18282e-07
4.19298e-07
4.20314e-07
4.21329e-07
4.22343e-07
4.23356e-07
4.24368e-07
4.2538e-07
4.26391e-07
4.27401e-07
4.2841e-07
4.29418e-07
4.30426e-07
4.31432e-07
4.32438e-07
4.33443e-07
4.34447e-07
4.36223e-07
8.70709e-07
4.59078e-07
8.15466e-07
9.27438e-07
2.49588e-07
7.36384e-07
7.66076e-07
1.83954e-07
3.93454e-07
3.94698e-07
3.95731e-07
3.96763e-07
3.97795e-07
3.98827e-07
3.99857e-07
4.00887e-07
4.01916e-07
4.02944e-07
4.03972e-07
4.04999e-07
4.06025e-07
4.07051e-07
4.08076e-07
4.091e-07
4.10123e-07
4.11146e-07
4.12167e-07
4.13188e-07
4.14209e-07
4.15228e-07
4.16247e-07
4.17265e-07
4.18282e-07
4.19298e-07
4.20314e-07
4.21329e-07
4.22343e-07
4.23356e-07
4.24368e-07
4.2538e-07
4.26391e-07
4.27401e-07
4.2841e-07
4.29418e-07
4.30426e-07
4.31432e-07
4.32438e-07
4.33443e-07
4.34447e-07
4.36223e-07
6.54347e-07
8.15912e-08
2.36436e-07
6.25094e-07
9.13386e-07
6.95827e-07
7.11276e-08
3.92286e-07
3.93662e-07
3.94697e-07
3.95731e-07
3.96763e-07
3.97795e-07
3.98827e-07
3.99857e-07
4.00887e-07
4.01916e-07
4.02944e-07
4.03972e-07
4.04999e-07
4.06025e-07
4.07051e-07
4.08076e-07
4.091e-07
4.10123e-07
4.11146e-07
4.12167e-07
4.13188e-07
4.14209e-07
4.15228e-07
4.16247e-07
4.17265e-07
4.18282e-07
4.19298e-07
4.20314e-07
4.21329e-07
4.22343e-07
4.23356e-07
4.24368e-07
4.2538e-07
4.26391e-07
4.27401e-07
4.2841e-07
4.29418e-07
4.30426e-07
4.31432e-07
4.32438e-07
4.33443e-07
4.34447e-07
4.36223e-07
5.84078e-07
9.05577e-07
9.127e-07
8.78453e-07
8.74961e-07
7.35386e-07
5.17991e-08
3.92419e-07
3.93662e-07
3.94697e-07
3.95731e-07
3.96763e-07
3.97795e-07
3.98827e-07
3.99857e-07
4.00887e-07
4.01916e-07
4.02944e-07
4.03972e-07
4.04999e-07
4.06025e-07
4.07051e-07
4.08076e-07
4.091e-07
4.10123e-07
4.11146e-07
4.12167e-07
4.13188e-07
4.14209e-07
4.15228e-07
4.16247e-07
4.17265e-07
4.18282e-07
4.19298e-07
4.20314e-07
4.21329e-07
4.22343e-07
4.23356e-07
4.24368e-07
4.2538e-07
4.26391e-07
4.27401e-07
4.2841e-07
4.29418e-07
4.30426e-07
4.31432e-07
4.32438e-07
4.33443e-07
4.34447e-07
4.36223e-07
3.61882e-08
5.6206e-07
3.69733e-08
7.50809e-07
5.35684e-08
6.50265e-07
5.47858e-08
4.14682e-08
6.90516e-07
1.57214e-07
6.77994e-07
6.15814e-08
7.19781e-07
2.19218e-07
6.37567e-07
6.90858e-07
7.00304e-07
7.21704e-07
6.8678e-07
7.56799e-07
7.75671e-07
7.0011e-07
6.80572e-07
7.00685e-07
7.17633e-07
7.69672e-07
6.92273e-07
7.72353e-07
6.98992e-07
6.76156e-07
7.00073e-07
6.92981e-07
7.7253e-07
5.32874e-07
7.75436e-07
6.99816e-07
3.78973e-07
7.00125e-07
7.26447e-07
7.75599e-07
5.88967e-07
7.74402e-07
6.99561e-07
4.04153e-07
7.01215e-07
7.37386e-07
7.73168e-07
5.63839e-07
7.77077e-07
7.00859e-07
6.45074e-07
6.9298e-07
7.12766e-07
7.76536e-07
6.04634e-07
7.63416e-07
3.88425e-07
3.49856e-07
5.39781e-08
6.97213e-07
4.75241e-07
6.45353e-07
7.97171e-08
4.3709e-08
6.93463e-07
3.56097e-08
7.41706e-07
6.45103e-08
6.83868e-07
5.25971e-08
5.36069e-08
6.58322e-07
5.4862e-08
7.39784e-07
5.36078e-08
7.50971e-07
5.48493e-08
6.16078e-08
7.31426e-07
2.19455e-07
7.42506e-07
6.16618e-08
7.21979e-07
2.19597e-07
6.81191e-07
7.59611e-07
7.75484e-07
7.29283e-07
6.81258e-07
7.46999e-07
7.75062e-07
7.68383e-07
6.83859e-07
7.71251e-07
7.05369e-07
7.67694e-07
7.05881e-07
7.73598e-07
7.74024e-07
6.26788e-07
7.73934e-07
6.89534e-07
7.71333e-07
7.01645e-07
7.75319e-07
7.75605e-07
5.87615e-07
7.74226e-07
7.16355e-07
7.74899e-07
6.6867e-07
7.77382e-07
7.70901e-07
5.612e-07
7.7755e-07
6.51365e-07
7.69734e-07
6.50786e-07
7.76295e-07
7.76589e-07
5.92444e-07
7.61737e-07
7.42842e-07
7.75224e-07
6.32811e-07
7.62145e-07
4.74857e-07
6.50295e-07
7.98934e-08
6.66191e-07
4.76275e-07
7.16907e-07
7.98372e-08
6.4689e-08
6.91359e-07
5.26737e-08
7.48452e-07
6.49207e-08
7.01104e-07
5.27494e-08
5.35549e-08
7.14651e-07
5.47779e-08
6.68873e-07
3.61906e-08
6.82048e-07
3.69986e-08
6.16806e-08
7.26769e-07
2.19533e-07
6.92665e-07
4.19073e-08
6.83336e-07
1.5739e-07
6.8649e-07
7.61116e-07
7.75158e-07
6.71561e-07
6.37067e-07
6.89039e-07
7.00355e-07
7.67088e-07
7.00465e-07
7.73293e-07
6.81274e-07
6.97275e-07
6.58471e-07
7.00546e-07
7.71522e-07
7.19842e-07
7.74765e-07
6.86419e-07
6.99393e-07
6.89395e-07
6.99672e-07
7.75338e-07
7.02505e-07
7.76187e-07
6.72335e-07
7.00304e-07
6.47063e-07
7.00397e-07
7.69369e-07
6.75917e-07
7.75287e-07
6.81686e-07
7.00138e-07
5.78634e-07
7.00145e-07
7.75134e-07
6.59544e-07
7.62668e-07
6.85253e-07
7.00802e-07
6.65099e-07
6.93018e-07
4.77008e-07
7.25144e-07
7.96083e-08
6.82159e-07
3.87497e-07
6.8442e-07
5.37381e-08
6.47717e-08
7.04599e-07
5.27328e-08
5.80385e-07
4.37428e-08
6.69743e-07
3.55528e-08
8.96763e-07
8.66307e-07
5.22474e-07
8.85921e-07
9.14002e-07
8.86919e-07
6.54156e-07
7.66264e-07
6.95281e-07
6.67617e-07
7.51652e-07
7.5106e-07
6.93201e-07
7.69802e-07
1.29657e-07
1.29221e-07
1.29657e-07
1.83354e-07
1.84014e-07
1.83252e-07
1.84014e-07
8.96206e-07
8.75615e-07
8.70565e-07
8.5316e-07
9.13355e-07
8.93699e-07
8.72916e-07
7.29731e-07
6.95479e-07
5.60634e-07
7.14865e-07
7.68987e-07
6.45876e-07
6.80015e-07
1.29566e-07
3.98165e-08
1.29566e-07
5.18322e-08
1.83831e-07
5.88322e-08
1.83832e-07
8.98549e-07
8.84929e-07
8.70942e-07
8.89493e-07
9.09981e-07
8.97316e-07
9.01396e-07
7.71691e-07
6.96181e-07
6.32585e-07
7.58127e-07
7.7113e-07
6.62724e-07
6.96867e-07
1.29424e-07
6.8976e-07
3.52761e-08
8.36412e-08
1.83545e-07
7.65603e-07
5.19792e-08
8.6305e-07
8.64926e-07
8.86862e-07
8.80205e-07
8.52477e-07
6.29345e-07
8.62294e-07
5.17568e-07
6.95683e-07
6.80208e-07
7.3718e-07
7.67731e-07
7.34766e-07
4.25344e-07
3.52774e-08
6.99631e-07
3.52877e-08
7.70227e-07
5.19826e-08
7.72117e-07
5.20062e-08
7.59417e-07
7.8513e-07
2.92952e-07
7.70477e-07
7.7744e-07
3.04154e-07
7.70129e-07
7.54423e-07
6.99763e-07
6.02889e-07
7.29733e-07
7.74118e-07
6.55204e-07
6.91318e-07
3.53e-08
7.00693e-07
3.56317e-08
7.77478e-07
5.20467e-08
7.75712e-07
5.278e-08
2.18541e-07
3.39178e-07
7.79056e-07
7.35573e-07
6.22254e-07
7.65592e-07
7.18879e-07
7.60646e-07
6.84716e-07
6.83287e-07
7.02987e-07
7.45996e-07
7.17022e-07
6.95424e-07
3.57654e-08
7.00504e-07
3.53049e-08
7.76647e-07
5.2988e-08
7.7653e-07
5.20649e-08
8.82634e-07
8.50043e-07
2.98134e-07
2.0888e-07
8.18755e-07
8.08055e-07
2.37117e-07
7.69994e-07
6.97348e-07
6.79771e-07
7.6964e-07
7.69829e-07
7.42605e-07
6.93217e-07
3.52877e-08
6.96116e-07
3.52773e-08
7.72087e-07
5.20065e-08
7.70648e-07
5.19822e-08
2.10751e-07
8.15962e-07
8.19624e-07
8.10327e-07
2.96671e-07
8.79996e-07
8.70124e-07
6.87868e-07
6.9799e-07
6.44664e-07
6.01645e-07
7.7247e-07
6.62138e-07
6.08307e-07
3.52647e-08
7.34023e-08
1.29424e-07
7.64971e-07
5.19794e-08
1.06151e-07
1.83547e-07
2.51187e-07
6.71679e-07
2.37603e-07
8.48688e-07
4.89733e-07
3.77151e-07
3.30745e-07
7.69379e-07
6.90656e-07
6.8021e-07
7.33395e-07
7.53736e-07
7.2367e-07
6.97842e-07
1.29567e-07
3.5168e-08
1.29566e-07
7.11628e-08
1.83833e-07
5.18141e-08
1.83832e-07
4.34586e-07
6.57343e-07
7.64126e-07
1.91246e-07
6.30239e-07
5.51774e-07
2.923e-07
7.64861e-07
6.95589e-07
6.91356e-07
7.50523e-07
7.64001e-07
7.27491e-07
6.95073e-07
1.29566e-07
1.29217e-07
1.29657e-07
5.17982e-08
1.83832e-07
1.83243e-07
1.84014e-07
8.83271e-07
8.43817e-07
7.09576e-07
8.26892e-07
8.61498e-07
8.31869e-07
8.41187e-07
7.64562e-07
7.69446e-07
7.37967e-07
7.4456e-07
7.66146e-07
7.44085e-07
7.69831e-07
1.84009e-07
1.83249e-07
1.84009e-07
1.83351e-07
1.84009e-07
1.83249e-07
1.84009e-07
9.17637e-07
9.13578e-07
9.14345e-07
8.54453e-07
9.26607e-07
8.38837e-07
8.93247e-07
6.73599e-07
7.74153e-07
6.92299e-07
7.17198e-07
6.72447e-07
7.68228e-07
6.82348e-07
1.83826e-07
5.88838e-08
1.83827e-07
5.1832e-08
1.83826e-07
5.8877e-08
1.83827e-07
8.55418e-07
9.05481e-07
9.13111e-07
9.18356e-07
9.15796e-07
8.57845e-07
9.27896e-07
7.64e-07
7.59722e-07
7.14187e-07
6.87733e-07
7.68795e-07
7.63494e-07
7.09873e-07
1.83541e-07
7.65797e-07
5.19787e-08
8.38243e-08
1.83542e-07
7.65981e-07
5.19787e-08
8.68897e-07
2.94839e-07
9.07944e-07
8.6869e-07
7.62389e-07
8.88143e-07
8.57527e-07
5.03293e-07
7.0906e-07
5.60658e-07
6.8188e-07
5.29737e-07
6.70533e-07
4.40709e-07
5.19823e-08
7.73769e-07
5.20057e-08
7.69768e-07
5.19823e-08
7.71789e-07
5.20063e-08
8.34511e-07
2.62378e-07
3.58983e-07
4.51027e-07
7.54736e-07
5.11027e-07
4.51112e-07
7.25221e-07
7.52534e-07
6.94601e-07
7.04708e-07
7.27201e-07
7.51791e-07
6.06418e-07
5.20494e-08
7.75523e-07
5.28289e-08
7.77547e-07
5.20493e-08
7.75617e-07
5.28296e-08
5.15367e-07
7.30045e-07
5.73048e-07
3.76769e-07
7.1616e-07
5.30524e-07
3.21783e-07
7.28099e-07
7.60796e-07
6.59749e-07
7.31053e-07
7.35881e-07
7.64457e-07
5.97146e-07
5.30403e-08
7.7509e-07
5.20692e-08
7.74836e-07
5.30378e-08
7.756e-07
5.20691e-08
2.60272e-07
7.42544e-07
5.84475e-07
2.01154e-07
1.64661e-07
3.96697e-07
6.27557e-07
7.32182e-07
7.63405e-07
7.01465e-07
6.66965e-07
7.32792e-07
7.63398e-07
7.30228e-07
5.20067e-08
7.70523e-07
5.19819e-08
7.75648e-07
5.20067e-08
7.70996e-07
5.19819e-08
7.73524e-07
8.11564e-07
9.18788e-07
3.89083e-07
3.26987e-07
9.01969e-07
8.39491e-07
5.94276e-07
7.6311e-07
5.71098e-07
6.87852e-07
6.03192e-07
7.62491e-07
5.51295e-07
5.19789e-08
1.06417e-07
1.83541e-07
7.65971e-07
5.19789e-08
1.07553e-07
1.83545e-07
8.31385e-07
8.29458e-07
7.26073e-07
8.85074e-07
8.38151e-07
8.90822e-07
8.23405e-07
7.53892e-07
7.34279e-07
7.58061e-07
6.34751e-07
7.50779e-07
7.28482e-07
7.65884e-07
1.83828e-07
5.18149e-08
1.83827e-07
7.12093e-08
1.83828e-07
5.1815e-08
1.83827e-07
7.94157e-07
8.73176e-07
7.7113e-07
9.08511e-07
8.7699e-07
8.73292e-07
8.71155e-07
7.36526e-07
7.48949e-07
6.56762e-07
6.85096e-07
7.53963e-07
7.45365e-07
5.89173e-07
1.83827e-07
1.83242e-07
1.84009e-07
5.17997e-08
1.83827e-07
1.83241e-07
1.84009e-07
8.59841e-07
8.41147e-07
8.7968e-07
7.67404e-07
8.081e-07
7.41472e-07
8.15192e-07
7.67106e-07
7.67383e-07
7.59794e-07
7.38142e-07
7.65094e-07
7.59653e-07
7.64736e-07
1.84014e-07
1.83251e-07
1.84014e-07
1.29272e-07
1.29657e-07
1.29221e-07
1.29657e-07
8.85667e-07
8.96555e-07
9.14521e-07
8.86257e-07
8.88173e-07
8.80435e-07
8.73612e-07
7.01882e-07
7.65806e-07
6.69875e-07
7.70186e-07
6.84882e-07
7.66251e-07
6.67861e-07
1.83831e-07
5.88125e-08
1.83832e-07
3.51646e-08
1.29566e-07
3.98073e-08
1.29567e-07
8.7648e-07
9.20754e-07
8.8651e-07
8.66025e-07
8.76189e-07
8.84191e-07
8.83428e-07
7.65343e-07
7.70305e-07
7.49982e-07
7.50156e-07
7.66468e-07
7.68057e-07
7.2263e-07
1.83545e-07
7.65557e-07
5.19792e-08
5.67071e-08
1.29424e-07
6.89758e-07
3.52761e-08
7.03726e-07
9.13158e-07
9.09467e-07
8.71531e-07
6.08528e-07
8.77979e-07
8.89116e-07
6.69752e-07
7.33898e-07
3.71229e-07
7.19754e-07
6.44404e-07
7.14779e-07
3.68405e-07
5.19826e-08
7.7383e-07
5.2006e-08
6.9604e-07
3.52764e-08
7.00534e-07
3.52879e-08
8.83427e-07
5.34219e-07
5.52508e-07
7.08286e-07
8.58159e-07
2.87533e-07
8.15815e-07
7.48754e-07
7.55517e-07
6.61179e-07
7.47523e-07
7.54879e-07
7.59184e-07
6.81505e-07
5.20466e-08
7.7576e-07
5.27804e-08
7.00932e-07
3.52999e-08
7.00677e-07
3.56307e-08
4.36249e-07
5.22357e-07
2.49704e-07
7.49976e-07
3.40539e-07
6.67999e-07
2.52599e-07
7.51342e-07
7.71658e-07
3.57327e-07
7.02317e-07
7.21831e-07
7.71909e-07
3.71091e-07
5.2986e-08
7.75835e-07
5.20647e-08
7.0092e-07
3.57608e-08
7.00541e-07
3.53048e-08
1.78312e-07
3.88777e-07
6.22936e-07
6.11813e-07
6.43524e-07
1.47044e-07
5.92578e-07
7.56632e-07
7.48635e-07
7.32093e-07
7.30809e-07
7.52237e-07
7.49789e-07
7.32344e-07
5.20065e-08
7.71176e-07
5.19822e-08
7.00562e-07
3.5288e-08
6.96152e-07
3.52773e-08
2.34409e-07
9.11341e-07
8.73078e-07
2.31369e-07
5.64185e-07
8.71848e-07
8.63512e-07
7.50185e-07
7.57069e-07
6.12378e-07
7.22669e-07
7.37123e-07
7.58831e-07
6.14486e-07
5.19793e-08
1.07824e-07
1.8355e-07
6.89661e-07
3.5253e-08
7.48071e-08
1.29425e-07
8.01473e-07
8.74154e-07
9.18952e-07
8.93162e-07
6.72449e-07
9.01153e-07
8.80556e-07
7.61026e-07
7.47001e-07
7.27691e-07
6.81736e-07
7.63323e-07
7.57684e-07
7.20106e-07
1.83832e-07
5.18141e-08
1.83832e-07
4.82327e-08
1.29567e-07
3.51585e-08
1.29567e-07
8.36171e-07
9.20945e-07
9.26978e-07
8.8418e-07
7.05956e-07
8.94802e-07
8.78387e-07
7.38223e-07
7.58391e-07
6.19487e-07
7.00527e-07
7.21239e-07
7.59348e-07
5.96031e-07
1.83832e-07
1.83242e-07
1.84014e-07
3.51339e-08
1.29567e-07
1.29217e-07
1.29657e-07
1.10535e-07
1.00393e-07
3.53757e-08
5.34223e-08
5.22381e-08
7.64923e-08
1.43227e-07
7.67499e-07
6.36251e-07
6.95146e-07
6.5408e-07
7.21061e-07
7.69847e-07
6.94533e-07
1.56985e-07
3.66704e-08
1.15975e-07
5.45787e-08
5.41386e-08
1.64422e-07
1.10472e-07
7.67051e-07
7.55315e-07
7.69486e-07
7.39709e-07
7.52081e-07
7.67362e-07
7.68915e-07
1.10667e-07
5.35094e-08
1.43447e-07
5.23802e-08
5.23222e-08
1.10819e-07
1.43306e-07
7.68874e-07
6.46873e-07
7.06579e-07
7.69838e-07
6.94984e-07
7.69975e-07
7.6759e-07
1.57099e-07
5.46941e-08
5.43319e-08
1.64513e-07
5.42484e-08
1.64485e-07
1.572e-07
4.50623e-07
2.06752e-07
4.90953e-08
6.11623e-08
2.78632e-07
7.21973e-08
3.6051e-07
7.68282e-07
6.96876e-07
6.93937e-07
7.49778e-07
7.56209e-07
7.69082e-07
6.97854e-07
7.68897e-07
8.18407e-08
6.96996e-07
2.18424e-07
1.1789e-07
7.71893e-07
6.94135e-07
7.09667e-07
7.15695e-07
7.7164e-07
6.65259e-07
7.67082e-07
6.54284e-07
6.92924e-07
4.4811e-07
6.14157e-08
2.75349e-07
7.24816e-08
2.76375e-07
7.24028e-08
4.48236e-07
7.65573e-07
6.80492e-07
7.46536e-07
7.68406e-07
7.44231e-07
7.68624e-07
7.63704e-07
7.67962e-07
2.18745e-07
1.18003e-07
7.71924e-07
1.17944e-07
7.71431e-07
7.68247e-07
7.70834e-07
6.99861e-07
6.95865e-07
7.07579e-07
7.73984e-07
7.70145e-07
6.98188e-07
7.72102e-07