/*--------------------------------*- C++ -*----------------------------------*\
| =========                 |                                                 |
| \\      /  F ield         | OpenFOAM: The Open Source CFD Toolbox           |
|  \\    /   O peration     | Version:  5.0                                   |
|   \\  /    A nd           | Web:      www.OpenFOAM.org                      |
|    \\/     M anipulation  |                                                 |
\*---------------------------------------------------------------------------*/
FoamFile
{
    version     2.0;
    format      ascii;
    class       volVectorField;
    location    "2.3";
    object      U;
}
// * * * * * * * * * * * * * * * * * * * * * * * * * * * * * * * * * * * * * //

dimensions      [0 1 -1 0 0 0 0];

internalField   nonuniform List<vector> 
8969
(
(0.00263492 -0.00272265 -0.000176209)
(0.0045454 -0.01632 0.000509323)
(0.000851853 -0.00284312 -0.000720853)
(-0.0031307 0.000995176 0.000822538)
(-0.00995095 -0.0103621 0.000829994)
(-0.00107672 8.84889e-05 -9.80311e-05)
(0.000522542 -6.52592e-05 8.1598e-07)
(0.000869405 -5.96042e-05 -1.94212e-06)
(0.000817214 -3.14769e-05 -2.67098e-07)
(0.000813782 -1.92129e-05 8.49305e-08)
(0.000807351 -1.1158e-05 8.47502e-08)
(0.000803502 -6.87274e-06 4.85309e-08)
(0.000801047 -4.18402e-06 -2.68614e-09)
(0.000798803 -2.4887e-06 7.85968e-08)
(0.000796505 -1.47548e-06 4.50301e-08)
(0.000794623 -8.03415e-07 5.10901e-08)
(0.000792978 -6.36402e-07 5.43691e-08)
(0.000791316 -4.70018e-07 7.84901e-08)
(0.00078952 -5.16734e-07 1.00254e-07)
(0.000787769 -2.78468e-07 2.06012e-07)
(0.000786325 -2.38008e-07 7.47568e-08)
(0.000784699 -6.1386e-08 7.92122e-08)
(0.000783023 -1.90716e-07 3.34851e-08)
(0.000781433 -1.88788e-07 4.82453e-08)
(0.00077969 2.0358e-07 7.25706e-08)
(0.000778529 5.93312e-07 9.97056e-08)
(0.000777297 3.54705e-07 4.82559e-08)
(0.000775591 1.88986e-07 4.74173e-08)
(0.000773911 2.59076e-07 7.24552e-08)
(0.000772297 -8.49151e-08 1.45057e-07)
(0.000770621 -4.31388e-07 7.51094e-08)
(0.0007688 -4.87001e-07 3.10598e-08)
(0.000767368 -3.52844e-07 7.2965e-08)
(0.000766311 -1.1326e-09 7.20314e-08)
(0.000765016 3.01816e-08 5.40897e-08)
(0.000763317 9.11914e-08 4.35119e-08)
(0.00076161 1.00953e-07 3.11448e-08)
(0.000759826 2.34889e-07 3.76477e-08)
(0.000758993 6.02327e-07 6.93812e-08)
(0.000758001 2.08688e-07 1.15236e-07)
(0.000756102 2.15079e-08 4.64904e-08)
(0.000754582 -8.43463e-08 7.26313e-08)
(0.000753766 -7.87914e-07 7.28556e-08)
(0.000752023 -6.8459e-07 -9.12008e-09)
(0.000750119 -4.11548e-07 2.96774e-08)
(0.000749017 -2.44937e-07 -1.07047e-07)
(0.000747667 -1.58446e-07 4.63301e-08)
(0.000746401 -1.89903e-07 6.4774e-08)
(0.000744788 -4.05756e-07 5.34117e-08)
(0.000743217 -3.49716e-07 8.58184e-09)
(0.0205959 -0.00549829 -0.00196442)
(0.0053946 -0.00351269 -0.00086932)
(0.00174092 -0.00548077 0.00103558)
(0.000547689 -0.000934243 6.11187e-05)
(0.000673712 0.00308495 -0.000131895)
(-0.000404223 0.00143082 0.000174926)
(0.000375127 -2.14921e-05 6.35813e-06)
(0.000893287 -3.94333e-05 -2.536e-06)
(0.000841524 4.83362e-06 -1.40777e-07)
(0.000823381 -7.08212e-06 1.40645e-08)
(0.000814097 -3.98018e-06 3.05395e-08)
(0.000807444 -3.13242e-06 3.3238e-08)
(0.000803179 -2.0533e-06 3.99845e-08)
(0.000799941 -1.39534e-06 4.48631e-08)
(0.000797523 -9.05553e-07 4.67493e-08)
(0.00079513 -5.26949e-07 1.05033e-08)
(0.000793012 -1.73786e-07 5.57137e-08)
(0.000791182 -4.42134e-09 -8.98121e-09)
(0.000789704 5.46924e-08 1.92155e-08)
(0.000788235 9.00648e-08 4.68658e-08)
(0.000786408 1.70831e-07 8.89194e-08)
(0.000784582 1.84713e-07 5.55114e-08)
(0.000782836 4.75694e-07 -1.73448e-08)
(0.000781934 6.27896e-07 6.44484e-08)
(0.000780857 4.12821e-07 -4.00457e-08)
(0.000778495 4.66641e-07 2.22891e-08)
(0.00077645 1.09113e-07 4.69883e-08)
(0.000775258 -8.90188e-08 4.73947e-08)
(0.000773601 -4.46537e-07 6.182e-08)
(0.000771721 -4.6114e-07 -1.06416e-07)
(0.000770378 -3.21402e-07 -1.40884e-07)
(0.000769094 -1.28147e-07 1.66904e-08)
(0.000767947 5.38843e-07 1.54501e-07)
(0.000766646 5.50852e-07 1.102e-07)
(0.000764944 2.26084e-07 4.23914e-08)
(0.000763373 7.59862e-08 5.87978e-08)
(0.000761985 1.8158e-07 4.3398e-08)
(0.000760843 3.92957e-07 8.43493e-09)
(0.000758875 7.29688e-07 1.58081e-08)
(0.000756953 3.61681e-07 5.38608e-08)
(0.000755744 2.23225e-07 5.68055e-08)
(0.000754094 -1.191e-08 6.0899e-08)
(0.000752648 -2.23045e-07 7.78522e-08)
(0.000752108 -8.0494e-07 1.16102e-07)
(0.000750947 -2.51864e-07 3.21616e-08)
(0.000749202 -1.86292e-07 4.48943e-08)
(0.000747701 -6.72127e-08 3.59285e-08)
(0.000746171 -9.16544e-08 4.72078e-08)
(0.000744802 -1.9551e-07 -9.41454e-08)
(0.000743818 -2.14603e-07 1.08992e-07)
(0.014715 -0.0184189 -0.000283297)
(-0.00252471 0.00656864 -0.000130233)
(-0.0029157 -0.0131954 0.000365957)
(0.0100267 0.00789113 0.000346829)
(0.00233625 -0.00485367 0.000420542)
(-0.000258006 0.000986679 -4.29083e-05)
(0.00053774 -0.00016699 3.5537e-05)
(0.00045122 3.50893e-07 -7.0909e-07)
(0.000871257 1.72164e-05 -1.68495e-06)
(0.000802815 1.15567e-06 -4.06475e-07)
(0.00081228 1.46873e-06 1.83724e-07)
(0.000805906 3.33031e-07 1.06486e-07)
(0.000803218 4.25513e-08 1.74441e-07)
(0.000800239 -5.97893e-08 5.24217e-08)
(0.000797592 -8.27159e-08 5.28505e-08)
(0.000795538 -1.48223e-07 2.43944e-08)
(0.000793631 6.8704e-09 4.85212e-08)
(0.000791601 4.36154e-08 9.3404e-08)
(0.000789638 2.91893e-07 -2.25206e-08)
(0.000787913 1.64296e-07 9.81641e-08)
(0.000786441 1.99759e-07 1.99062e-07)
(0.000785077 1.84111e-07 4.74047e-08)
(0.000783573 3.82919e-07 5.63647e-08)
(0.00078135 4.57781e-07 2.46411e-08)
(0.000779484 3.54333e-08 5.14373e-08)
(0.000778147 -2.87775e-07 3.39333e-08)
(0.000776602 -1.13356e-07 -5.1259e-09)
(0.000774899 -6.62679e-08 5.52411e-08)
(0.000773449 -1.24671e-07 2.59983e-09)
(0.000772459 2.72488e-07 1.0647e-08)
(0.000771041 4.4827e-07 1.71425e-07)
(0.000769876 5.05287e-07 5.40089e-08)
(0.000768214 4.8271e-07 -2.78225e-08)
(0.000765917 2.47743e-07 -2.93231e-09)
(0.00076442 1.22391e-07 4.21716e-08)
(0.00076326 7.82227e-08 3.44695e-08)
(0.000762004 7.13646e-08 4.78962e-08)
(0.000760508 -2.73644e-08 5.08731e-08)
(0.000758949 -2.40014e-07 2.41378e-08)
(0.000757365 -1.476e-07 7.10544e-08)
(0.000755633 -1.23197e-07 6.97425e-08)
(0.000754025 7.99859e-08 5.01638e-08)
(0.000752778 5.24837e-07 6.23003e-08)
(0.000751991 6.91109e-07 1.41256e-07)
(0.000750896 2.74126e-07 8.98839e-08)
(0.000749249 2.16335e-07 5.03029e-08)
(0.000747787 2.34462e-07 3.56775e-08)
(0.000746241 3.93706e-07 7.68069e-08)
(0.00074464 2.18636e-07 5.42323e-08)
(0.000743726 1.45663e-07 1.23348e-07)
(0.00573517 -0.000341406 -6.76981e-05)
(0.00453347 -0.00804482 -0.000208748)
(-0.0172195 0.000551586 -0.00108878)
(0.0120779 0.00621125 -0.000722524)
(-0.00478222 0.000241257 2.10858e-05)
(0.000397263 -0.00396417 4.95728e-05)
(0.00112043 0.000243468 0.000101411)
(0.000454207 -3.78147e-06 -1.09083e-06)
(0.000883508 4.928e-06 -1.42988e-06)
(0.000803551 2.84949e-06 -2.78243e-07)
(0.00081302 3.3178e-06 1.62958e-07)
(0.00080563 2.61804e-06 -1.63118e-08)
(0.000802671 1.66272e-06 5.97992e-08)
(0.000799775 1.16513e-06 5.23812e-08)
(0.000797407 7.939e-07 4.96076e-08)
(0.000795238 5.85152e-07 5.23552e-08)
(0.00079325 2.50573e-07 4.37954e-08)
(0.000791536 8.32939e-08 5.14696e-08)
(0.000789853 -2.78366e-08 8.40879e-08)
(0.000788118 -3.36843e-08 2.64163e-08)
(0.000786431 2.62291e-08 4.63701e-08)
(0.000784809 -6.07674e-08 5.14159e-08)
(0.000783176 -2.55896e-07 4.30412e-08)
(0.000781497 -3.2656e-07 5.58844e-08)
(0.000779924 -4.74689e-08 1.48722e-08)
(0.000778309 8.91544e-08 1.06947e-07)
(0.000776727 2.5534e-07 6.28527e-08)
(0.000775244 4.32987e-07 5.29583e-08)
(0.000774023 7.32606e-07 5.26091e-09)
(0.000772434 5.47293e-07 4.33178e-08)
(0.000770664 3.70461e-07 4.23298e-08)
(0.000769132 4.68804e-07 2.41129e-08)
(0.000767621 -9.63878e-08 4.77655e-08)
(0.000766194 -5.84377e-08 4.88123e-08)
(0.000764731 9.64282e-08 4.53971e-08)
(0.000763309 1.55568e-07 4.30029e-08)
(0.000761852 -1.10714e-09 3.88332e-08)
(0.000760454 -9.61254e-08 4.64717e-08)
(0.000758725 -2.47143e-07 1.27357e-08)
(0.000757099 -2.31328e-07 3.49817e-08)
(0.000756029 -1.39009e-07 6.60407e-08)
(0.000754901 1.29388e-07 4.22579e-08)
(0.000753408 3.57189e-07 5.63463e-08)
(0.000751789 6.54311e-07 -1.07894e-07)
(0.000750349 2.71347e-07 4.28665e-08)
(0.000749149 1.95465e-07 4.58472e-08)
(0.00074792 2.33202e-07 7.64651e-08)
(0.000746149 3.93006e-07 4.23626e-08)
(0.000744488 2.28084e-07 4.76605e-08)
(0.000743363 2.86529e-07 1.47187e-07)
(-0.0327852 -0.00096817 0.00236327)
(0.0166926 -0.00195182 0.00161054)
(-0.00219635 0.00208013 0.000222429)
(-0.012092 -0.00885221 0.00207945)
(0.000345706 -0.00464235 0.000223462)
(-0.00698607 0.00309477 -0.000287623)
(0.00124053 0.000225184 1.1057e-05)
(0.00051757 3.31107e-05 -1.06351e-06)
(0.000899006 1.74304e-05 -1.06957e-06)
(0.000800775 1.00645e-05 -5.73878e-07)
(0.000811952 7.50527e-06 1.88435e-07)
(0.000803805 4.77391e-06 -4.95782e-09)
(0.000801379 3.47061e-06 1.66873e-07)
(0.000799137 2.20191e-06 5.33787e-08)
(0.000796856 1.41484e-06 2.93956e-08)
(0.000794851 9.10162e-07 1.85286e-08)
(0.000792999 6.21779e-07 4.9698e-08)
(0.000791251 4.46698e-07 4.56578e-08)
(0.00078949 3.10039e-07 5.41728e-08)
(0.000787981 3.15189e-07 2.19835e-08)
(0.000786408 1.49428e-07 6.13718e-08)
(0.000784726 1.15459e-07 8.21048e-08)
(0.000783243 3.86853e-08 2.47111e-07)
(0.000781612 3.70297e-08 7.91727e-08)
(0.000780005 2.82555e-08 7.32095e-08)
(0.000778524 -1.5696e-07 6.76118e-08)
(0.000777029 1.32929e-07 6.6618e-08)
(0.00077549 2.87998e-07 2.74143e-08)
(0.000773586 4.6288e-07 2.29586e-07)
(0.000771998 5.55397e-07 2.9635e-08)
(0.000770936 2.97835e-07 5.41747e-08)
(0.000769287 -3.2282e-08 2.2421e-08)
(0.000767552 1.88491e-07 6.38934e-08)
(0.000766156 1.39633e-07 4.77879e-08)
(0.000764686 1.8096e-07 4.83937e-08)
(0.000763137 5.97754e-08 4.66907e-08)
(0.00076169 3.96867e-08 5.16266e-08)
(0.000760202 -2.77469e-08 7.81202e-08)
(0.000758782 -9.95455e-08 4.24156e-08)
(0.000757502 1.68586e-08 -1.12587e-07)
(0.000756084 2.48738e-07 2.71834e-08)
(0.000754643 1.76942e-07 4.02396e-07)
(0.00075343 7.94748e-08 7.36974e-09)
(0.000751879 4.50232e-08 8.08716e-08)
(0.000750319 -4.64408e-08 3.31772e-08)
(0.0007492 -1.74533e-07 4.75351e-08)
(0.000748032 -4.68361e-07 5.53441e-09)
(0.000746233 -8.68037e-07 3.28629e-08)
(0.0007445 -2.83955e-07 4.07652e-08)
(0.000743086 2.9479e-08 4.85401e-08)
(-0.0141478 0.00410223 0.00262072)
(0.0108324 -0.00266171 -0.00161335)
(-0.00354123 -0.00204935 0.000551001)
(0.00805157 -0.0208215 -1.79909e-05)
(0.00455313 0.0084625 -0.00252068)
(0.0191485 -0.00535344 -0.00155248)
(0.000728354 -0.000142406 -1.09879e-05)
(0.000491719 1.91815e-06 1.31583e-06)
(0.000885571 2.74675e-05 -9.67389e-07)
(0.000791467 1.80858e-05 -5.95614e-07)
(0.000806356 1.09424e-05 2.03322e-07)
(0.000800547 6.684e-06 1.62788e-07)
(0.00079943 4.39651e-06 7.54486e-08)
(0.000797187 2.6544e-06 4.5953e-08)
(0.000795782 1.66216e-06 6.34688e-08)
(0.00079424 9.96508e-07 5.3859e-08)
(0.000792666 6.34076e-07 5.14483e-08)
(0.000791144 4.67422e-07 5.52935e-08)
(0.000789686 3.10844e-07 2.69818e-08)
(0.000787915 2.51908e-07 1.94232e-07)
(0.000786179 8.55094e-08 4.12038e-08)
(0.000784669 1.27165e-07 1.4544e-07)
(0.000783077 6.02029e-08 5.02457e-08)
(0.000781484 3.40634e-08 5.65967e-08)
(0.000779682 9.06786e-08 -6.84054e-09)
(0.00077844 2.21182e-07 -3.88011e-08)
(0.000777283 -2.69341e-08 3.97268e-08)
(0.000775654 -1.56355e-07 1.18176e-08)
(0.000774354 -6.29487e-08 2.44856e-08)
(0.000772224 -2.9287e-07 -1.06741e-07)
(0.000769927 -2.58756e-07 1.94274e-08)
(0.000768993 -2.12969e-07 1.42762e-07)
(0.000767835 -1.72271e-07 1.4764e-08)
(0.000766182 -1.04323e-07 -3.64086e-07)
(0.00076463 -1.025e-07 -3.85461e-08)
(0.000763131 1.95178e-08 2.23665e-07)
(0.000761743 1.35077e-07 5.72007e-08)
(0.000760281 3.11968e-07 5.42342e-08)
(0.000758782 2.64794e-07 6.00243e-08)
(0.000757535 2.01928e-07 5.6772e-08)
(0.000756228 2.12789e-07 5.03468e-08)
(0.000754688 4.18176e-07 2.56877e-07)
(0.000753242 2.72698e-07 3.93666e-08)
(0.000751633 3.36791e-08 3.60429e-08)
(0.000750076 -3.7915e-08 3.84603e-08)
(0.000748625 -1.81435e-07 4.43469e-08)
(0.000747058 -5.13977e-07 -6.94236e-08)
(0.000746384 -7.56318e-07 -6.58702e-08)
(0.000745611 -5.26236e-07 1.08882e-07)
(0.000743682 -3.43908e-07 1.26155e-07)
(0.00534554 0.00080672 -0.0035612)
(0.055804 -0.0049732 0.0800743)
(-0.00593828 0.0168859 -0.00432144)
(-0.011813 0.00398386 -0.0036095)
(0.00499123 -0.013302 -0.00763287)
(0.00477672 -0.00416076 0.000823233)
(0.00119087 -0.000447755 3.23536e-06)
(0.000446217 3.81461e-05 1.02196e-06)
(0.000847419 2.95041e-05 -1.31598e-06)
(0.000779735 1.92743e-05 -5.38041e-07)
(0.000797628 9.9786e-06 1.72195e-07)
(0.00079558 5.86188e-06 5.35924e-09)
(0.000796316 3.09276e-06 5.40868e-08)
(0.000795703 1.84129e-06 4.94489e-08)
(0.000794774 1.00804e-06 5.83831e-08)
(0.000793561 6.60854e-07 5.10792e-08)
(0.000792335 4.70748e-07 4.97599e-08)
(0.000790845 2.42627e-07 5.50268e-08)
(0.000789219 8.85511e-08 9.63277e-08)
(0.000787697 -1.166e-07 6.2509e-08)
(0.00078625 -6.07017e-08 5.0994e-08)
(0.000784693 -6.47286e-08 4.66264e-08)
(0.000783125 2.54729e-08 3.42411e-08)
(0.000781649 -2.01824e-08 5.33487e-08)
(0.000780237 8.32843e-08 5.76194e-08)
(0.000778376 2.09121e-07 1.0708e-07)
(0.000776557 -8.21952e-08 4.71284e-08)
(0.000775446 -2.41851e-07 7.40998e-08)
(0.000773418 -7.90091e-07 -4.9028e-08)
(0.000771757 -1.04356e-06 1.20507e-07)
(0.000771039 -6.5026e-07 -7.47361e-08)
(0.000769399 -1.44142e-07 9.35748e-08)
(0.00076769 -7.88893e-08 3.76638e-08)
(0.000766245 -1.1612e-07 7.10096e-08)
(0.000764842 -1.3989e-07 7.80247e-08)
(0.000763434 -3.32052e-08 6.79552e-08)
(0.000762054 -3.15239e-08 4.54622e-08)
(0.000760362 -1.31958e-07 2.18399e-08)
(0.000758643 1.33943e-08 3.57711e-08)
(0.000757435 2.274e-07 -5.30988e-08)
(0.000756353 2.50922e-08 4.58918e-08)
(0.000754716 -1.79258e-07 -2.05602e-08)
(0.000752948 -1.0294e-07 7.52408e-08)
(0.000751491 -2.2797e-07 5.38795e-08)
(0.000750052 -7.20501e-08 5.71099e-08)
(0.000748608 -4.24091e-09 4.90237e-08)
(0.000747318 -1.66753e-08 1.04995e-09)
(0.000746224 1.64654e-07 2.71926e-08)
(0.000745026 -2.76666e-07 -2.75496e-09)
(0.000744172 -3.23443e-07 4.09761e-08)
(-0.000821426 0.00087736 -0.000759866)
(-0.00322619 0.00343681 0.00116964)
(0.0224112 -0.00537705 -0.000579268)
(-0.00113413 5.60908e-05 2.97002e-05)
(-0.0262574 0.00293883 -0.00449324)
(0.00325357 -0.00120287 0.000272443)
(0.00170282 6.72993e-05 9.3325e-05)
(0.000427603 3.22639e-05 8.44494e-07)
(0.000808944 -5.37264e-06 -9.88146e-07)
(0.00076692 4.84484e-06 -3.9159e-07)
(0.000789536 1.13393e-06 1.98994e-07)
(0.000791916 8.994e-07 4.47825e-08)
(0.000794391 4.02556e-07 6.41625e-08)
(0.000794575 2.07976e-07 5.37568e-08)
(0.000794303 8.44526e-08 4.06397e-08)
(0.000793567 3.6294e-08 5.07894e-08)
(0.000792142 -1.11679e-07 1.09818e-07)
(0.000790665 -1.31826e-07 5.91459e-08)
(0.000789237 -1.21928e-07 4.73787e-08)
(0.000787729 -2.99925e-08 6.55448e-08)
(0.000786245 -3.15623e-08 5.10619e-08)
(0.000784778 -5.97414e-08 5.85007e-08)
(0.000783133 -1.66819e-07 7.27817e-08)
(0.000781556 -1.59874e-07 4.76349e-08)
(0.000779968 -3.80075e-07 6.3753e-08)
(0.000778233 -4.4983e-07 4.97584e-08)
(0.000776719 -1.73779e-07 -2.18245e-07)
(0.000774772 -2.33885e-07 5.3245e-08)
(0.000773358 -3.14971e-07 1.12797e-07)
(0.000772405 2.88892e-07 5.99054e-08)
(0.000771057 3.38685e-07 8.48204e-08)
(0.00076971 2.26473e-08 1.0385e-07)
(0.000767871 -2.7206e-08 4.06658e-08)
(0.000766107 1.05139e-07 4.44579e-08)
(0.000764734 2.88561e-08 5.97547e-08)
(0.000763267 -1.05961e-07 1.93323e-08)
(0.00076162 -1.73503e-07 5.59886e-08)
(0.000760337 -4.1314e-07 6.54987e-08)
(0.00075923 -1.25213e-07 4.36432e-08)
(0.000757548 -7.04246e-08 5.79251e-08)
(0.000755719 -1.30112e-07 2.28583e-08)
(0.00075453 -2.01851e-07 5.50521e-08)
(0.000753183 -1.30424e-07 3.34768e-08)
(0.000751673 -9.80687e-08 4.50293e-08)
(0.000750357 -7.28334e-08 5.83642e-08)
(0.000748695 8.90126e-08 4.63298e-08)
(0.00074727 4.47196e-07 4.31688e-08)
(0.00074606 3.68743e-07 5.24833e-08)
(0.00074501 2.77807e-07 -1.35052e-09)
(0.00074443 -2.95558e-08 3.38986e-08)
(0.0028209 0.00936809 0.000666853)
(-0.0226255 0.00640783 0.000179255)
(-0.00941486 0.0216458 -0.00203803)
(0.0190098 0.00757314 -0.000320648)
(-0.00262064 -0.00703482 0.000398095)
(-0.0208643 -0.00154455 -0.000452627)
(0.000407641 0.0001159 5.06121e-05)
(0.000800268 -1.33522e-05 -2.11575e-06)
(0.000777203 -3.25336e-05 -2.38058e-07)
(0.000788005 -1.12795e-05 -1.04033e-08)
(0.000792724 -7.79466e-06 3.05302e-08)
(0.000794689 -4.09608e-06 4.07577e-08)
(0.000795465 -2.4219e-06 4.80208e-08)
(0.000795315 -1.49471e-06 4.89462e-08)
(0.000794566 -8.64685e-07 5.64551e-08)
(0.00079332 -6.19377e-07 1.07116e-07)
(0.000792127 -4.62996e-07 9.05894e-08)
(0.000790834 -2.62922e-07 3.1701e-08)
(0.000789348 -1.7375e-07 2.86425e-08)
(0.000787811 -8.44166e-08 1.84213e-08)
(0.000786214 -5.04771e-08 4.88236e-08)
(0.000784526 -1.73455e-07 8.03907e-08)
(0.000783002 -2.56361e-07 1.38532e-08)
(0.000781386 -2.8584e-07 5.31345e-08)
(0.000779878 -3.50553e-07 5.06784e-08)
(0.000778638 -3.57698e-07 5.23664e-08)
(0.00077683 -2.92083e-07 2.27728e-08)
(0.000775272 -1.68865e-07 8.97152e-08)
(0.000774071 1.92806e-07 1.01375e-07)
(0.000772573 3.00595e-07 -2.48725e-08)
(0.000770704 3.35544e-07 2.51086e-08)
(0.00076894 1.58138e-07 4.53577e-08)
(0.000767793 -2.39467e-07 -2.93456e-07)
(0.000766314 -2.70124e-07 6.55166e-08)
(0.000764578 -1.93642e-07 5.37686e-08)
(0.000763182 -1.95984e-07 7.44574e-08)
(0.000761672 -1.80481e-07 1.46432e-08)
(0.000760424 -4.78198e-08 4.95609e-08)
(0.000759072 -2.76161e-07 9.967e-08)
(0.000757429 -3.05346e-07 4.00433e-08)
(0.000756189 -1.72141e-07 5.78944e-08)
(0.000754717 6.67703e-09 2.19858e-08)
(0.000753079 2.86544e-07 4.0795e-08)
(0.000751564 1.76428e-07 3.83426e-08)
(0.000750286 2.55913e-07 7.35399e-08)
(0.000749256 2.07375e-07 4.64521e-08)
(0.000747665 4.09021e-07 3.50032e-08)
(0.000746009 4.9958e-07 4.01176e-08)
(0.000744527 7.47741e-07 -6.49247e-08)
(0.000743858 4.98017e-07 8.71032e-08)
(-0.00587055 -0.0253106 0.000863488)
(-0.0115492 -0.010304 -0.000529265)
(0.000206994 -0.00691933 0.0013575)
(-0.0120093 -0.0160573 -0.000793206)
(0.0285875 0.0185071 -0.000406925)
(-0.00246026 -0.0110682 -0.000263831)
(0.000265806 -2.76541e-05 3.1414e-06)
(0.000814628 -5.07079e-05 -1.99287e-06)
(0.000790865 -3.19179e-05 -1.00042e-07)
(0.000797865 -1.86985e-05 8.39333e-08)
(0.000798602 -1.1414e-05 9.66233e-08)
(0.000798687 -7.06902e-06 6.41965e-08)
(0.000797675 -4.40849e-06 9.26238e-08)
(0.000796541 -2.63216e-06 -1.18808e-07)
(0.000795409 -1.63497e-06 5.31026e-08)
(0.000794076 -1.091e-06 6.97209e-08)
(0.000792592 -5.99183e-07 4.87088e-08)
(0.00079103 -4.14468e-07 6.96637e-08)
(0.000789462 -2.15771e-07 7.2089e-08)
(0.000787885 -2.78296e-07 5.64406e-08)
(0.000786135 -2.51007e-07 1.39094e-07)
(0.000784522 -1.9137e-07 6.50707e-08)
(0.000782995 -1.13182e-07 5.75592e-08)
(0.000781442 -1.75525e-07 4.64329e-08)
(0.000779882 -7.59556e-08 6.09506e-08)
(0.000778309 -3.27146e-07 -5.32976e-08)
(0.000776958 -1.63739e-07 4.60561e-08)
(0.000775379 4.62721e-08 4.73905e-08)
(0.000773944 9.18513e-08 3.93263e-08)
(0.000772582 -8.21752e-08 4.41244e-08)
(0.000770876 -1.28988e-07 1.10713e-07)
(0.000768991 -1.50335e-07 -1.92168e-08)
(0.000767337 -2.42979e-07 -7.22733e-08)
(0.000766166 -4.93231e-07 3.24553e-08)
(0.000764829 -2.48868e-07 2.96261e-07)
(0.000763285 -1.45111e-07 6.66207e-08)
(0.000761807 -1.42048e-07 5.53826e-08)
(0.000760219 -1.9566e-07 4.71797e-08)
(0.000758911 -6.22126e-07 5.40305e-08)
(0.000757681 -2.61857e-07 5.84349e-08)
(0.000756112 -1.66894e-07 5.77897e-08)
(0.000755103 -3.33802e-07 8.53822e-08)
(0.000753395 -2.76417e-07 4.10964e-08)
(0.000751633 2.15018e-07 1.2857e-07)
(0.000750394 9.12651e-08 1.45056e-08)
(0.000748884 8.32496e-08 4.41835e-08)
(0.00074763 -9.92082e-08 1.15781e-08)
(0.000746478 8.6224e-08 3.04292e-08)
(0.000744993 2.15855e-07 -3.55995e-08)
(0.000742877 3.01538e-07 6.31097e-08)
(0.00223981 -0.0137891 -0.00133676)
(0.00315786 0.0221828 9.53602e-05)
(0.0013378 0.0075168 0.00470716)
(-0.00825117 0.000583674 0.00116269)
(-0.00378629 0.00537881 0.000943603)
(0.00153255 -0.00314915 -8.2897e-06)
(0.00152992 -0.000172549 4.65377e-06)
(0.00145051 -8.83004e-05 3.72751e-07)
(0.00136269 -4.5311e-05 3.38359e-07)
(0.0013568 -2.75368e-05 3.51767e-07)
(0.00134616 -1.58113e-05 3.84249e-07)
(0.0013398 -9.74969e-06 2.52037e-07)
(0.00133583 -5.92741e-06 2.61496e-07)
(0.0013321 -3.43088e-06 3.6878e-07)
(0.00132825 -2.03769e-06 3.35715e-07)
(0.00132516 -1.1084e-06 2.8995e-07)
(0.00132244 -8.91253e-07 3.35359e-07)
(0.0013197 -6.48425e-07 3.61873e-07)
(0.0013167 -7.59782e-07 3.70818e-07)
(0.00131385 -4.53491e-07 5.1131e-07)
(0.00131151 -3.46312e-07 4.55046e-07)
(0.00130877 5.98272e-11 3.54092e-07)
(0.00130601 -2.07341e-07 3.10731e-07)
(0.00130346 -2.23406e-07 2.85791e-07)
(0.00130058 3.99196e-07 3.4124e-07)
(0.00129858 1.01566e-06 3.72817e-07)
(0.00129654 6.14528e-07 2.82521e-07)
(0.00129386 2.97638e-07 3.29581e-07)
(0.00129097 4.06197e-07 3.57689e-07)
(0.00128817 -2.45739e-07 4.85129e-07)
(0.00128548 -8.50201e-07 3.51374e-07)
(0.00128246 -8.52613e-07 2.15178e-07)
(0.00128013 -5.8055e-07 3.45444e-07)
(0.00127847 -4.60396e-09 2.99592e-07)
(0.00127626 9.60418e-08 3.24566e-07)
(0.00127341 1.99077e-07 3.21338e-07)
(0.00127058 1.74683e-07 3.04164e-07)
(0.00126763 3.9722e-07 2.85679e-07)
(0.00126614 9.99023e-07 2.72054e-07)
(0.00126448 4.1751e-07 3.81459e-07)
(0.00126142 5.68406e-08 3.12348e-07)
(0.00125886 -1.25834e-07 3.38078e-07)
(0.00125749 -1.21566e-06 3.30684e-07)
(0.00125462 -1.0333e-06 1.76909e-07)
(0.00125148 -6.36604e-07 2.86834e-07)
(0.00124959 -4.01692e-07 5.61817e-08)
(0.00124733 -2.48245e-07 2.79403e-07)
(0.00124524 -3.59302e-07 3.2496e-07)
(0.00124251 -6.72662e-07 3.37861e-07)
(0.00123982 -5.62967e-07 2.20197e-07)
(0.0238054 0.0577871 -0.0183328)
(-0.00177807 -0.0145867 -0.00154004)
(-0.00621785 -0.0207574 0.00291778)
(0.00301828 0.000866488 -0.000175216)
(0.0042471 0.00300221 -0.000736242)
(-0.00101953 -0.00109312 0.00225172)
(0.0017186 -6.32539e-05 1.15669e-05)
(0.00148377 -5.4978e-05 3.95693e-07)
(0.00139906 1.38365e-05 4.2232e-07)
(0.00137016 -8.07055e-06 3.88788e-07)
(0.00135571 -4.36229e-06 3.41007e-07)
(0.0013453 -3.78439e-06 3.38425e-07)
(0.00133866 -2.53206e-06 3.36247e-07)
(0.00133356 -1.82622e-06 3.33176e-07)
(0.00132969 -1.19368e-06 3.3287e-07)
(0.00132587 -6.98436e-07 3.14296e-07)
(0.00132245 -1.97286e-07 3.31868e-07)
(0.00131948 2.50809e-08 6.40123e-08)
(0.00131701 1.25643e-07 3.12407e-07)
(0.00131457 1.96852e-07 3.22063e-07)
(0.00131163 3.3777e-07 3.40415e-07)
(0.00130863 3.23178e-07 3.64893e-07)
(0.00130574 8.41648e-07 2.95802e-07)
(0.00130421 1.05509e-06 4.11175e-07)
(0.00130237 7.04967e-07 5.57261e-08)
(0.00129851 7.6092e-07 2.9867e-07)
(0.00129518 2.13888e-07 3.05432e-07)
(0.00129317 -1.69169e-07 3.23177e-07)
(0.00129039 -8.80278e-07 2.93965e-07)
(0.00128728 -8.13214e-07 1.50707e-07)
(0.00128517 -5.69965e-07 3.4652e-08)
(0.00128311 -2.62732e-07 2.64941e-07)
(0.00128112 9.13629e-07 5.11156e-07)
(0.00127896 9.43127e-07 4.65156e-07)
(0.00127615 3.68803e-07 3.09254e-07)
(0.00127346 1.37242e-07 2.98057e-07)
(0.00127115 3.17441e-07 3.0479e-07)
(0.00126923 6.48486e-07 1.0303e-07)
(0.00126602 1.18871e-06 3.55619e-07)
(0.00126285 6.50568e-07 4.88169e-07)
(0.00126076 3.49186e-07 3.31421e-07)
(0.00125806 -5.4145e-08 3.5294e-07)
(0.0012557 -4.22214e-07 2.98341e-07)
(0.00125473 -1.27678e-06 5.07771e-07)
(0.00125274 -4.14909e-07 3.21899e-07)
(0.0012499 -3.27553e-07 2.70236e-07)
(0.0012474 -8.20048e-08 2.81022e-07)
(0.00124483 -1.50958e-07 3.04085e-07)
(0.00124254 -3.56592e-07 1.84929e-08)
(0.00124089 -3.67737e-07 3.98685e-07)
(0.00703137 -0.00848884 0.000791138)
(0.0100745 -0.00694051 -0.00266695)
(0.0175659 -0.0102725 0.0036925)
(-0.0131779 0.0127439 0.000668979)
(-0.00920644 0.00511861 0.000305535)
(-0.000648385 0.00269261 -0.00045922)
(0.00135289 0.000821684 4.50938e-05)
(0.00132911 1.55725e-05 5.12271e-07)
(0.00144502 3.11435e-05 -2.66634e-07)
(0.00133413 3.46461e-06 3.34517e-07)
(0.00135148 3.32474e-06 3.40068e-07)
(0.00134207 1.08257e-06 3.89628e-07)
(0.00133827 4.0602e-07 5.28275e-07)
(0.00133376 1.05534e-07 3.35578e-07)
(0.00132966 -1.6671e-09 3.33536e-07)
(0.00132641 -1.49469e-07 2.97144e-07)
(0.00132335 5.19363e-08 3.3403e-07)
(0.0013201 8.62983e-08 3.14255e-07)
(0.00131691 4.17956e-07 2.80171e-07)
(0.00131412 2.35356e-07 3.86401e-07)
(0.00131167 2.93058e-07 4.4975e-07)
(0.0013094 2.77278e-07 3.26148e-07)
(0.00130692 6.17824e-07 3.15095e-07)
(0.00130328 7.37332e-07 1.93971e-07)
(0.00130021 3.63063e-08 3.36734e-07)
(0.00129796 -4.16138e-07 3.04475e-07)
(0.00129538 -1.51649e-07 -4.57149e-08)
(0.00129249 -6.15374e-08 3.14126e-07)
(0.00129017 -1.58308e-07 2.10302e-07)
(0.00128857 5.59894e-07 2.07833e-07)
(0.00128618 8.75768e-07 4.36914e-07)
(0.00128431 9.03211e-07 4.68163e-07)
(0.00128164 7.81217e-07 1.67622e-07)
(0.00127779 4.27202e-07 1.65681e-07)
(0.00127525 1.55268e-07 -2.51289e-08)
(0.00127334 9.70026e-08 3.27486e-07)
(0.00127121 1.26121e-07 2.85065e-07)
(0.00126871 -2.11581e-08 3.44717e-07)
(0.00126613 -3.23355e-07 2.99007e-07)
(0.00126342 -2.13048e-07 3.18961e-07)
(0.00126053 -1.6388e-07 3.43677e-07)
(0.00125789 1.42299e-07 3.6571e-07)
(0.00125596 9.258e-07 3.57491e-07)
(0.00125463 1.12365e-06 3.4371e-07)
(0.00125267 5.24215e-07 3.17929e-07)
(0.00125001 4.06565e-07 3.06066e-07)
(0.00124755 4.09507e-07 3.29317e-07)
(0.0012449 6.27117e-07 3.41429e-07)
(0.00124225 3.5012e-07 2.72414e-07)
(0.00124072 2.27211e-07 5.19147e-07)
(-0.00727079 -0.0100063 -0.000401007)
(0.000192378 0.00789624 0.000746641)
(-0.0365739 -0.0133836 -0.00743063)
(0.0138819 0.00413353 0.00140705)
(-7.49001e-05 0.00521148 0.00059817)
(0.00261838 -0.00130875 -0.000398633)
(0.00119938 0.000271586 0.000109886)
(0.00132033 -1.39616e-05 2.71112e-07)
(0.0014641 5.50972e-06 3.18363e-07)
(0.00133513 3.15557e-06 4.44225e-07)
(0.00135263 4.59757e-06 3.39982e-07)
(0.00134159 3.79296e-06 3.02065e-07)
(0.0013374 2.42797e-06 3.36152e-07)
(0.00133303 1.74835e-06 3.34727e-07)
(0.00132935 1.2381e-06 3.33453e-07)
(0.00132592 9.28454e-07 3.32057e-07)
(0.00132274 3.95161e-07 3.30571e-07)
(0.00131993 1.46273e-07 3.31693e-07)
(0.0013172 -6.59098e-08 3.32504e-07)
(0.00131441 -1.23518e-07 2.97639e-07)
(0.00131168 -1.67212e-08 3.28887e-07)
(0.00130903 -1.36927e-07 3.32111e-07)
(0.00130631 -4.37262e-07 3.2655e-07)
(0.00130348 -5.30516e-07 3.06747e-07)
(0.00130093 -1.00509e-07 2.34827e-07)
(0.00129828 1.35955e-07 3.5978e-07)
(0.00129562 4.24776e-07 3.89722e-07)
(0.00129316 7.64236e-07 3.56252e-07)
(0.00129117 1.36609e-06 3.02628e-07)
(0.00128856 1.02605e-06 3.09211e-07)
(0.00128559 7.78292e-07 3.24164e-07)
(0.00128298 9.56951e-07 2.97421e-07)
(0.00128052 -2.29221e-08 3.19708e-07)
(0.00127818 -6.53482e-08 3.21096e-07)
(0.00127574 1.81281e-07 2.86983e-07)
(0.00127342 2.46391e-07 3.06333e-07)
(0.001271 -1.93951e-08 3.03157e-07)
(0.00126867 -1.58715e-07 3.33295e-07)
(0.00126578 -4.64072e-07 1.90112e-07)
(0.00126305 -4.31387e-07 3.22331e-07)
(0.00126121 -1.88084e-07 3.22949e-07)
(0.00125942 3.32945e-07 2.91265e-07)
(0.00125692 7.03086e-07 4.94299e-07)
(0.00125422 1.07709e-06 -4.50024e-08)
(0.00125183 4.34525e-07 2.97529e-07)
(0.00124975 3.07903e-07 3.11571e-07)
(0.00124767 3.2396e-07 3.5742e-07)
(0.00124475 5.63842e-07 3.05987e-07)
(0.00124204 3.6835e-07 3.67048e-07)
(0.00124017 4.64202e-07 5.11849e-07)
(-0.0224785 0.00323299 -0.00934998)
(0.021228 -0.0110698 -0.0109686)
(-0.0218049 -0.00359195 -0.00308311)
(0.00259758 0.00184498 0.0166169)
(-0.0174695 -0.0155258 -0.0174701)
(-0.0153814 0.0050917 -0.00015957)
(0.000107722 0.00030083 -5.97876e-05)
(0.00151395 7.14506e-05 1.61986e-06)
(0.00149437 2.24355e-05 5.52875e-07)
(0.00133292 1.28389e-05 4.13061e-07)
(0.0013522 1.02043e-05 3.57596e-07)
(0.00133929 6.58652e-06 4.00839e-07)
(0.00133567 4.94771e-06 3.98151e-07)
(0.00133225 3.12964e-06 3.34876e-07)
(0.00132861 1.97389e-06 3.3266e-07)
(0.00132534 1.26351e-06 3.17233e-07)
(0.00132236 8.76939e-07 3.31491e-07)
(0.00131952 6.24972e-07 3.24764e-07)
(0.00131658 4.7046e-07 3.21515e-07)
(0.00131418 5.5356e-07 2.54863e-07)
(0.00131165 2.5706e-07 3.65008e-07)
(0.00130887 2.08478e-07 7.7996e-07)
(0.00130643 5.21752e-08 7.82917e-07)
(0.0013037 4.73221e-08 2.40478e-07)
(0.00130105 6.82677e-08 2.55917e-07)
(0.00129862 -2.80284e-07 3.61758e-07)
(0.00129616 2.08623e-07 3.78126e-07)
(0.00129366 4.70349e-07 2.84553e-07)
(0.00129049 7.70862e-07 4.9079e-07)
(0.00128782 8.84028e-07 3.08533e-07)
(0.00128608 4.80805e-07 3.49472e-07)
(0.0012833 -5.12834e-08 2.81532e-07)
(0.00128035 3.64237e-07 3.2157e-07)
(0.00127804 2.23427e-07 3.17468e-07)
(0.00127564 3.26341e-07 3.11719e-07)
(0.00127309 1.14307e-07 3.15609e-07)
(0.00127071 3.90708e-08 3.42714e-07)
(0.00126816 -9.75779e-08 2.93126e-07)
(0.00126579 -2.25466e-07 3.09291e-07)
(0.00126377 -2.06083e-08 -1.92071e-08)
(0.00126149 3.83116e-07 2.92114e-07)
(0.001259 3.5296e-07 1.05916e-06)
(0.00125689 1.18674e-07 1.27542e-07)
(0.00125429 4.11515e-08 2.72198e-07)
(0.0012517 -1.79814e-07 3.57727e-07)
(0.00124987 -3.43475e-07 3.11272e-07)
(0.00124787 -8.24678e-07 9.29519e-08)
(0.00124495 -1.40519e-06 3.10549e-07)
(0.00124211 -4.74019e-07 3.37456e-07)
(0.00123969 6.542e-08 3.17204e-07)
(0.0276402 0.0138257 0.0319045)
(0.0436033 -0.0988404 -0.0292262)
(-0.0161459 0.00540796 0.00823308)
(0.0100866 0.00553185 -0.0593472)
(-0.0483834 -0.00929561 0.0114156)
(-0.0348247 -0.0145311 -0.0114082)
(0.000583541 -0.00210966 2.51254e-05)
(0.00143395 -1.9201e-05 4.86573e-06)
(0.00147805 3.91188e-05 5.18461e-07)
(0.00132048 2.58832e-05 3.68294e-07)
(0.00134473 1.55764e-05 2.97213e-07)
(0.00133495 9.47024e-06 4.77008e-07)
(0.00133304 6.28003e-06 3.73395e-07)
(0.00132928 3.75604e-06 3.32874e-07)
(0.001327 2.30325e-06 3.44117e-07)
(0.00132454 1.35964e-06 3.29858e-07)
(0.00132194 8.75973e-07 3.31576e-07)
(0.00131942 6.51046e-07 3.69856e-07)
(0.0013171 4.55969e-07 3.04081e-07)
(0.00131414 4.58874e-07 6.51362e-07)
(0.00131124 1.70856e-07 3.38571e-07)
(0.00130877 2.51222e-07 6.38746e-07)
(0.00130611 1.25861e-07 3.04017e-07)