/*--------------------------------*- C++ -*----------------------------------*\
| =========                 |                                                 |
| \\      /  F ield         | OpenFOAM: The Open Source CFD Toolbox           |
|  \\    /   O peration     | Version:  5.0                                   |
|   \\  /    A nd           | Web:      www.OpenFOAM.org                      |
|    \\/     M anipulation  |                                                 |
\*---------------------------------------------------------------------------*/
FoamFile
{
    version     2.0;
    format      ascii;
    class       volVectorField;
    location    "2.3";
    object      U_0;
}
// * * * * * * * * * * * * * * * * * * * * * * * * * * * * * * * * * * * * * //

dimensions      [0 1 -1 0 0 0 0];

internalField   nonuniform List<vector> 
8969
(
(0.00204375 -0.00471458 -0.0001838)
(0.00510148 -0.0172143 0.000420321)
(2.73497e-05 -0.00164883 -0.000515314)
(-0.00317518 0.00141999 0.000867578)
(-0.0110474 -0.0105983 0.000714963)
(-0.00129133 5.20011e-05 -0.000104506)
(0.000525869 -2.5282e-05 1.22278e-06)
(0.000859863 5.74554e-06 -1.88355e-06)
(0.000807765 1.12894e-05 -2.19038e-07)
(0.000807497 7.99486e-06 9.33894e-08)
(0.00080363 5.99506e-06 9.65366e-08)
(0.000801654 3.87306e-06 6.77934e-08)
(0.000800675 2.57501e-06 2.99324e-09)
(0.000799108 1.97389e-06 7.84504e-08)
(0.000797223 1.24602e-06 4.832e-08)
(0.000795936 8.10677e-07 2.01845e-07)
(0.000794713 4.33845e-07 5.3159e-08)
(0.000793171 3.06639e-07 6.81341e-08)
(0.000791381 4.23485e-08 4.39157e-08)
(0.000790121 -2.02461e-07 1.12243e-07)
(0.000789043 -1.40365e-07 5.9336e-08)
(0.00078741 6.86008e-08 3.7324e-08)
(0.000786019 2.96817e-08 1.70532e-08)
(0.000784681 1.12759e-08 4.51546e-08)
(0.00078304 9.42725e-08 5.17751e-08)
(0.000781641 1.54518e-07 7.36189e-08)
(0.000780359 1.74049e-07 6.30837e-08)
(0.000779194 6.37017e-08 4.7778e-08)
(0.000777205 2.30505e-07 6.48968e-08)
(0.000775262 -2.28006e-07 5.76939e-08)
(0.000774102 -6.46567e-07 -5.59038e-08)
(0.000772421 -5.08829e-07 -1.23944e-08)
(0.000771134 -3.10951e-07 8.93073e-08)
(0.000770224 -9.968e-08 1.41963e-08)
(0.000768626 1.29872e-07 3.40766e-08)
(0.000766926 5.28525e-08 4.65898e-08)
(0.000765449 1.79275e-08 3.52307e-08)
(0.00076392 1.01777e-07 2.75389e-08)
(0.000762416 3.31589e-07 -9.94626e-08)
(0.000761254 4.11207e-07 6.7591e-08)
(0.000760023 3.23673e-08 1.20492e-07)
(0.000758411 -4.49309e-08 7.51267e-08)
(0.000757188 -2.57039e-07 9.36501e-08)
(0.000755729 -2.34931e-07 2.39846e-07)
(0.000753987 -2.93846e-08 3.85893e-08)
(0.000752617 7.41869e-08 6.57788e-08)
(0.000751472 1.39379e-08 5.02051e-08)
(0.000750186 -4.16457e-07 1.96046e-07)
(0.000748493 -3.78926e-07 -4.36984e-09)
(0.000746762 -2.33413e-07 6.75173e-08)
(0.0279261 -0.00300957 -0.00359839)
(0.0057417 -0.00274899 -0.000422106)
(0.00198699 -0.00571037 0.000963676)
(0.000670602 -0.000881451 8.13918e-05)
(0.000563194 0.00275176 -0.000117593)
(-0.000375211 0.00163629 0.000174229)
(0.000353525 -7.77916e-07 6.20039e-06)
(0.000841068 1.9737e-05 -2.55881e-06)
(0.000807907 3.65478e-05 -2.07242e-07)
(0.000801827 1.23941e-05 -2.18025e-08)
(0.000800662 7.89062e-06 2.68449e-08)
(0.000799448 4.17079e-06 3.05436e-08)
(0.000798783 2.39403e-06 3.88334e-08)
(0.000797857 1.17535e-06 4.10081e-08)
(0.000796896 7.42987e-07 4.73769e-08)
(0.00079557 5.08115e-07 9.75343e-08)
(0.000794144 4.6121e-07 5.36769e-08)
(0.000792919 3.97004e-07 6.49647e-08)
(0.000791674 4.61977e-07 7.48197e-08)
(0.00079034 4.15265e-07 2.30915e-08)
(0.000788903 3.18867e-07 4.57855e-08)
(0.000787435 2.38155e-07 7.02819e-08)
(0.00078589 4.56285e-07 1.6833e-07)
(0.000784624 3.05647e-07 4.37998e-08)
(0.000783242 1.44101e-07 6.35749e-08)
(0.000781627 6.09168e-08 1.02504e-07)
(0.0007801 -8.29473e-09 3.34757e-08)
(0.000778684 -2.0115e-07 4.87084e-08)
(0.000777003 -8.47043e-07 5.16949e-08)
(0.00077512 -5.10006e-07 5.74803e-08)
(0.000773963 -4.30094e-07 1.32194e-07)
(0.000772986 -2.53298e-07 3.63458e-08)
(0.000771622 3.78263e-07 1.90379e-07)
(0.000770294 4.60347e-07 2.67059e-07)
(0.000768585 4.8391e-08 4.70646e-08)
(0.000766825 1.14665e-07 4.4355e-08)
(0.000765601 1.8775e-07 4.56642e-08)
(0.000764271 2.1414e-07 5.6511e-08)
(0.000762715 3.19821e-07 3.12885e-08)
(0.000760983 4.18816e-07 3.36017e-08)
(0.000759466 1.14066e-07 5.84904e-08)
(0.000758162 -1.48409e-07 6.66989e-08)
(0.000756835 -5.25045e-07 2.34738e-08)
(0.000755784 -3.17647e-07 1.01506e-07)
(0.000754454 -1.00673e-07 6.6475e-08)
(0.000752832 1.46872e-08 2.42098e-08)
(0.000751175 6.99531e-08 3.86088e-08)
(0.000749739 -9.79826e-08 5.45959e-08)
(0.00074837 -2.93084e-07 1.10912e-07)
(0.000747436 -2.29268e-07 2.64827e-08)
(0.0142772 -0.0198375 -9.46296e-05)
(-0.00258292 0.00723313 -3.33647e-05)
(-0.00283275 -0.0137922 0.000322868)
(0.00923153 0.00827544 0.000361076)
(0.00168945 -0.00437168 0.000357559)
(-0.000352079 0.00120418 -5.01565e-05)
(0.000485528 -0.000134239 3.7373e-05)
(0.000394852 1.86106e-05 -5.46321e-07)
(0.000818282 2.54022e-05 -1.57276e-06)
(0.000771646 5.06696e-06 -4.49639e-07)
(0.00079329 3.26969e-06 1.97252e-07)
(0.000794745 1.16024e-06 4.79781e-08)
(0.000796911 4.84262e-07 6.45989e-08)
(0.000797033 1.65636e-07 5.18093e-08)
(0.000796383 8.09433e-08 5.0872e-08)
(0.00079558 -4.75368e-08 5.70466e-08)
(0.000794571 5.48787e-08 4.57087e-08)
(0.00079317 5.42913e-08 2.66127e-08)
(0.000791401 8.13239e-08 -1.5789e-08)
(0.00078994 9.22915e-08 4.7944e-08)
(0.000788819 1.28589e-07 4.33534e-08)
(0.000787578 1.02282e-07 4.61961e-08)
(0.000786099 1.93267e-07 1.59503e-08)
(0.000784287 1.18416e-07 2.19947e-08)
(0.000782731 -1.30647e-08 5.08652e-08)
(0.000781448 -2.91555e-08 7.80648e-08)
(0.000780031 -9.90736e-08 5.8864e-08)
(0.000778148 -6.59072e-08 6.17966e-08)
(0.000776823 -6.62399e-08 -6.6627e-08)
(0.000775788 4.34992e-07 3.70179e-08)
(0.000774427 7.18915e-07 9.12732e-08)
(0.000773431 6.2468e-07 6.57207e-08)
(0.000772024 3.20795e-07 2.89388e-07)
(0.000769809 2.11887e-07 1.1648e-07)
(0.000768192 -9.57196e-08 9.07248e-08)
(0.000767099 7.79178e-08 4.97813e-08)
(0.000765571 1.10805e-07 8.31463e-08)
(0.000764082 4.42886e-08 5.6705e-08)
(0.000762669 1.62027e-07 4.61495e-08)
(0.000760993 8.47559e-09 1.25999e-07)
(0.000759313 9.67192e-08 3.82042e-08)
(0.000757614 8.97494e-10 -1.33695e-07)
(0.000756981 5.29792e-07 3.92764e-08)
(0.000756263 2.18185e-07 8.188e-08)
(0.000754406 -1.64167e-08 3.70725e-08)
(0.000752831 -2.16843e-08 1.10083e-07)
(0.000751333 1.00401e-07 4.14183e-08)
(0.000749733 1.02407e-07 7.52941e-08)
(0.000748335 1.0786e-07 4.01939e-08)
(0.000747413 7.79612e-08 6.76344e-08)
(0.0059965 -0.000345759 -3.27586e-05)
(0.00459166 -0.00841032 -0.000214746)
(-0.01847 0.00143073 -0.000855345)
(0.0122315 0.0062426 -0.000731159)
(-0.0044634 0.00158118 1.34951e-05)
(-0.000492645 -0.00365299 5.94772e-05)
(0.000953083 0.000289937 0.000101062)
(0.000362228 -1.97131e-05 -2.12953e-06)
(0.000823244 -2.15362e-05 -1.09542e-06)
(0.000773925 -1.35918e-05 -4.56574e-07)
(0.000795697 -6.85344e-06 1.79321e-07)
(0.000795915 -3.71048e-06 -2.86026e-07)
(0.000797511 -2.20979e-06 5.31921e-08)
(0.000797335 -1.21496e-06 4.75818e-08)
(0.000796619 -5.5398e-07 4.56547e-08)
(0.00079553 -2.51806e-07 4.62233e-08)
(0.000794266 -3.18731e-07 4.91949e-08)
(0.000792949 -3.26061e-07 1.08348e-07)
(0.000791719 -3.81354e-07 6.66029e-08)
(0.000790398 -4.21616e-07 2.85224e-08)
(0.000788914 -1.23334e-07 -1.60022e-07)
(0.000787515 -1.72589e-07 5.06743e-08)
(0.000785908 -2.14068e-07 3.09103e-08)
(0.000784365 -8.70152e-08 6.35284e-08)
(0.000783056 6.42329e-08 2.54802e-08)
(0.00078152 2.17835e-07 4.15234e-08)
(0.000780054 2.4978e-07 6.3207e-08)
(0.000778725 3.31954e-07 8.31361e-08)
(0.000777627 8.5588e-07 5.76907e-08)
(0.000776098 6.67029e-07 2.84242e-08)
(0.000774195 7.83453e-07 2.52963e-08)
(0.000772483 8.4949e-07 1.58953e-08)
(0.000771102 2.27925e-07 4.8657e-08)
(0.000769772 -5.38405e-08 5.28336e-08)
(0.000768417 1.48023e-07 5.51424e-08)
(0.000767083 7.2123e-08 4.26084e-08)
(0.000765559 -4.34818e-08 3.87143e-08)
(0.000764335 -6.13159e-09 5.14135e-08)
(0.00076267 -3.38863e-07 -9.32465e-09)
(0.000760901 -2.11898e-07 3.79462e-08)
(0.000759456 5.48032e-08 5.6392e-08)
(0.000758701 3.90494e-07 1.02055e-07)
(0.000757103 7.03946e-07 5.59601e-08)
(0.000755097 3.36473e-07 1.39174e-08)
(0.000754151 4.14732e-08 5.16505e-08)
(0.000752976 1.18246e-08 4.29769e-08)
(0.000751328 2.58221e-08 7.16465e-08)
(0.000749746 6.15118e-08 3.31135e-08)
(0.000748336 2.51444e-07 3.98746e-08)
(0.000747204 2.11601e-07 5.15288e-08)
(-0.0302597 -0.0013075 0.0024565)
(0.0185525 -0.00379927 0.00205579)
(-0.0036554 0.00217423 0.000138249)
(-0.0051685 -0.0100173 -0.00094565)
(-0.00552596 -0.00397263 -6.19509e-05)
(-0.00720002 0.00282061 -0.000253553)
(0.000986074 -4.09626e-05 1.31943e-05)
(0.000440785 -3.96784e-05 -2.40168e-06)
(0.000871181 -3.52899e-05 -9.17956e-07)
(0.000789933 -2.08972e-05 -7.50582e-07)
(0.000805603 -1.08131e-05 1.82837e-07)
(0.000800518 -6.22801e-06 6.96402e-08)
(0.000800007 -3.29369e-06 6.50619e-08)
(0.000799087 -2.01783e-06 4.62218e-08)
(0.000797576 -1.38722e-06 -5.5284e-09)
(0.000795866 -8.69743e-07 1.12112e-08)
(0.000794473 -4.65514e-07 4.79231e-08)
(0.000793089 -2.21025e-07 4.57297e-08)
(0.000791281 -1.02194e-08 8.3369e-08)
(0.000790263 3.32451e-07 -4.3568e-08)
(0.000789132 1.3152e-07 6.21134e-08)
(0.000787466 2.18527e-07 2.70032e-08)
(0.000786208 2.80993e-08 6.53829e-08)
(0.000784636 1.56122e-07 1.09529e-07)
(0.000783113 1.71587e-07 8.12383e-08)
(0.000781679 8.33213e-08 6.80544e-08)
(0.000780171 1.84249e-07 6.80366e-08)
(0.0007789 2.04818e-07 7.78479e-09)
(0.000777235 1.80388e-07 4.1716e-09)
(0.00077569 5.95439e-08 1.5888e-07)
(0.000774647 -1.3211e-09 5.09934e-08)
(0.000772731 -2.3463e-07 5.00765e-08)
(0.000770891 1.15691e-07 2.81755e-07)
(0.000769707 6.43786e-08 5.37141e-08)
(0.000768348 1.89536e-07 6.88186e-08)
(0.000766859 1.29503e-08 4.99245e-08)
(0.000765473 -3.31785e-09 5.16557e-08)
(0.000763714 -1.68752e-07 5.67706e-08)
(0.000762413 -2.76511e-07 1.17398e-07)
(0.000761487 -1.00909e-07 7.9886e-08)
(0.000760065 8.83193e-08 8.77334e-08)
(0.000758421 4.36691e-07 1.55168e-07)
(0.000756908 6.77603e-08 5.88859e-08)
(0.000755431 8.45593e-08 -2.86787e-08)
(0.000753997 6.2333e-09 8.74786e-08)
(0.000752811 -1.77215e-07 4.72096e-08)
(0.000751394 -4.30126e-07 -2.75899e-08)
(0.000750015 -3.74854e-07 4.33658e-08)
(0.000748516 -3.11294e-07 1.30586e-08)
(0.000746836 8.62947e-08 8.95215e-08)
(-0.0182317 0.00218638 0.00318923)
(0.00750865 -0.00262488 -0.000635338)
(-0.00391175 -0.00281643 0.000298791)
(-0.00164431 -0.0176904 -0.000720453)
(0.000887826 0.00393359 -0.00645794)
(0.0187055 -0.0071566 -0.00138288)
(0.000887373 -0.000497875 -1.10583e-05)
(0.000505705 -6.49226e-05 3.88332e-07)
(0.000906301 -2.01842e-05 -1.11897e-06)
(0.000804932 -1.13323e-05 -6.67424e-07)
(0.000814014 -7.00633e-06 1.79634e-07)
(0.000805293 -4.37317e-06 4.16122e-09)
(0.000802759 -2.49573e-06 9.56767e-08)
(0.000799708 -1.65906e-06 4.16882e-08)
(0.000798049 -1.22566e-06 1.3366e-07)
(0.00079668 -8.35504e-07 6.82765e-08)
(0.000795076 -4.67041e-07 5.02681e-08)
(0.000793517 -2.46212e-07 7.99968e-08)
(0.000792409 -6.92753e-08 2.67211e-08)
(0.000790573 4.0411e-07 1.42407e-07)
(0.00078877 1.65372e-07 -1.52263e-07)
(0.000787384 2.4838e-07 4.36308e-08)
(0.00078583 1.82646e-07 4.64119e-08)
(0.000784544 7.35751e-08 6.08475e-08)
(0.000782966 8.28107e-08 7.71642e-08)
(0.000781535 7.97622e-08 6.17264e-08)
(0.000780205 -3.09742e-08 4.08385e-08)
(0.000778718 -1.53316e-07 1.80878e-08)
(0.000777443 -1.69694e-07 4.40369e-08)
(0.000775868 -2.68335e-07 6.82588e-08)
(0.000773826 -5.41767e-07 -1.05189e-08)
(0.000772628 -5.35385e-07 -3.4966e-08)
(0.000771475 -3.10023e-07 8.43059e-09)
(0.000769862 -1.44953e-07 4.06331e-08)
(0.000768351 -1.23961e-07 5.47892e-08)
(0.000766841 -1.00439e-08 5.22521e-08)
(0.000765332 4.16896e-08 5.68863e-08)
(0.000763994 5.48473e-08 1.00977e-07)
(0.000762756 3.26259e-07 1.13112e-07)
(0.000761358 1.58639e-07 7.06618e-08)
(0.000760127 1.7567e-07 9.76298e-08)
(0.000758674 1.0767e-07 -1.75303e-08)
(0.000756662 1.22397e-07 2.60487e-08)
(0.000755021 -1.99636e-08 5.54215e-08)
(0.000753825 5.26767e-09 4.85334e-08)
(0.000752433 -1.62848e-07 4.66717e-08)
(0.000751085 -4.9234e-07 -3.41274e-07)
(0.000749898 -5.2543e-07 5.22782e-08)
(0.000748914 -4.43839e-07 1.0279e-07)
(0.000747485 -1.63185e-07 1.7436e-07)
(-0.0493572 -0.0136815 -0.00243977)
(0.0545431 -0.00491302 0.0277124)
(-0.00235087 0.0225477 -0.0041267)
(-0.0135311 0.0033083 -0.00198325)
(0.00276173 -0.00754995 -0.00607639)
(0.00289834 -0.0044858 0.00118013)
(0.00140398 -0.000474665 4.7103e-06)
(0.000498583 2.3437e-05 8.42915e-07)
(0.00089223 5.70174e-06 -1.45994e-06)
(0.000806205 2.9359e-06 -5.17875e-07)
(0.000814282 -6.16165e-07 1.59953e-07)
(0.000806145 -8.5628e-07 2.18648e-08)
(0.000803394 -1.0984e-06 5.22646e-08)
(0.000800671 -7.49913e-07 4.84999e-08)
(0.000798605 -3.71706e-07 5.59388e-08)
(0.000796815 -2.28848e-07 5.29112e-08)
(0.000795211 -1.79246e-07 5.08128e-08)
(0.000793587 -1.20203e-07 3.89188e-08)
(0.000792093 -5.79306e-08 2.89052e-08)
(0.000790554 -2.95383e-07 5.42719e-08)
(0.000788935 -1.30136e-07 4.19984e-08)
(0.000787486 -1.63454e-07 4.56512e-08)
(0.000785988 4.72959e-08 3.67245e-08)
(0.00078451 -1.46163e-08 5.00103e-08)
(0.000783119 1.58774e-08 -7.84652e-09)
(0.000781536 2.05905e-07 1.88936e-07)
(0.00077988 -1.78469e-08 4.89684e-08)
(0.000778728 -5.70758e-08 3.0784e-08)
(0.000777094 -3.90571e-07 6.90558e-08)
(0.000775228 -7.01929e-07 2.60852e-08)
(0.000774317 -2.74278e-07 1.44906e-07)
(0.000773025 -4.9217e-09 1.92111e-07)
(0.000771382 -7.78043e-08 4.09921e-08)
(0.000769942 -7.53658e-08 3.52615e-08)
(0.000768518 -1.08463e-07 1.42279e-07)
(0.000767066 1.97949e-08 1.41897e-07)
(0.000765554 9.407e-08 5.03034e-08)
(0.000764069 1.86321e-07 5.31657e-08)
(0.000762542 2.03753e-07 5.73222e-08)
(0.000761297 3.48759e-07 7.15542e-09)
(0.00076 6.77365e-08 4.5267e-08)
(0.000758354 -2.15407e-07 3.38292e-09)
(0.000756748 -3.02712e-07 1.05594e-08)
(0.000755285 -1.19968e-07 5.10519e-08)
(0.00075382 -5.65122e-08 5.11556e-09)
(0.000752192 1.72845e-08 4.88532e-08)
(0.000750945 -3.64417e-10 -3.06678e-08)
(0.00075008 -2.68191e-07 6.52038e-08)
(0.000748978 -1.283e-07 1.96542e-07)
(0.000747594 -2.90742e-07 6.9292e-10)
(-0.000326351 0.00759865 -0.000566351)
(-0.000567478 0.00421643 0.000834519)
(0.0213956 -0.00553982 -0.000852714)
(-0.00593731 -0.000644357 0.000230489)
(-0.0306944 -0.00625827 -0.00612583)
(0.0065404 0.000134816 0.000364157)
(0.00190027 -7.60844e-05 9.36161e-05)
(0.00048196 3.63309e-05 1.11447e-06)
(0.000858795 -4.36473e-06 -1.03943e-06)
(0.000797086 4.90092e-06 -3.31048e-07)
(0.000809278 8.07618e-07 1.97328e-07)
(0.000804701 5.75978e-07 4.99281e-08)
(0.0008029 1.38274e-07 6.51776e-08)
(0.000800623 1.50816e-09 5.31888e-08)
(0.000798704 -4.2001e-08 4.83388e-08)
(0.000796923 -8.07002e-08 5.20442e-08)
(0.000795213 -7.50088e-08 1.22752e-07)
(0.00079367 -7.89081e-08 6.43839e-08)
(0.000792191 -1.05946e-07 8.92796e-08)
(0.000790484 -2.00835e-07 -7.91915e-09)
(0.000788936 -1.27551e-07 5.01316e-08)
(0.000787606 -8.95745e-08 5.78982e-08)
(0.000786016 -2.65716e-07 1.88986e-08)
(0.000784505 -1.75554e-07 4.90394e-08)
(0.00078324 -3.09112e-07 7.74475e-08)
(0.000781492 -3.41385e-07 3.63718e-08)
(0.000779876 -6.84855e-08 2.97882e-09)
(0.000778255 3.03536e-09 1.62602e-07)
(0.000776641 -1.7903e-07 2.7772e-08)
(0.000776019 3.08255e-07 4.92578e-08)
(0.000774701 4.11256e-07 8.84079e-08)
(0.000772875 1.84903e-07 3.44454e-08)
(0.000771388 2.79199e-07 4.94436e-08)
(0.000769825 9.92093e-08 4.78462e-08)
(0.000768471 5.67164e-08 3.71142e-08)
(0.000767095 -3.22144e-08 6.36182e-08)
(0.00076554 -4.09661e-08 1.70657e-08)
(0.000764131 -3.35318e-08 5.62653e-08)
(0.000762958 1.51294e-07 4.18396e-08)
(0.000761187 1.59548e-07 8.13406e-08)
(0.000759421 -6.38674e-08 1.43238e-08)
(0.000758212 -1.28612e-07 4.90114e-08)
(0.000756783 -1.93545e-07 -1.04138e-08)
(0.00075533 -1.47813e-07 4.95123e-08)
(0.000753997 -6.68455e-08 5.70603e-08)
(0.000752504 8.39322e-08 4.53197e-08)
(0.000750729 4.68834e-07 5.96128e-08)
(0.000749741 6.4083e-07 7.01518e-08)
(0.000748894 1.69303e-07 -6.10334e-09)
(0.000748007 -4.79561e-08 9.63627e-08)
(-0.00252103 0.00554452 0.000611283)
(-0.0182951 0.00627377 -0.000223759)
(0.0100663 0.0402573 -0.00774774)
(0.03209 0.0113706 -0.000163349)
(-0.0013865 -0.00928516 0.000457042)
(-0.0213306 -0.00218467 -0.000481672)
(0.000447218 0.00013563 4.99899e-05)
(0.000853847 3.73441e-05 -1.81919e-06)
(0.000817697 -6.87989e-06 -2.6526e-07)
(0.000812967 4.90355e-06 6.73313e-08)
(0.000808944 2.16448e-06 5.78543e-08)
(0.000805355 2.05102e-06 5.16947e-08)
(0.000802704 1.33283e-06 5.50144e-08)
(0.000800464 6.28217e-07 5.57565e-08)
(0.000798513 4.31971e-07 5.56813e-08)
(0.000796781 3.35452e-07 1.22245e-07)
(0.000795217 1.56036e-07 9.28655e-08)
(0.000793551 -1.97023e-08 8.46406e-08)
(0.000791943 -5.55225e-08 6.76769e-08)
(0.000790529 7.31017e-08 1.23176e-07)
(0.000789076 1.03918e-08 4.44186e-08)
(0.000787316 -2.25956e-07 1.06092e-08)
(0.000785882 -2.98344e-07 5.93762e-08)
(0.000784459 -2.71197e-07 5.34969e-08)
(0.000782915 -2.68673e-07 4.68352e-09)
(0.00078184 -4.14589e-07 5.82817e-08)
(0.000780312 -2.41377e-07 2.87418e-08)
(0.000778591 -1.45537e-07 2.9763e-07)
(0.000777476 4.59181e-08 1.15634e-07)
(0.000775965 4.35399e-07 3.64624e-08)
(0.000774161 2.03251e-07 2.56818e-07)
(0.000772858 1.23701e-07 6.41066e-08)
(0.000771273 -4.77295e-08 8.32797e-08)
(0.000769663 -1.01219e-07 -1.87235e-08)
(0.000768353 -1.15225e-07 2.34456e-07)
(0.000766944 -1.63516e-07 5.12926e-08)
(0.000765553 -2.19484e-07 6.42121e-08)
(0.00076431 -1.63635e-07 5.01954e-08)
(0.000762783 -4.20856e-07 8.75982e-08)
(0.000761028 -6.67533e-07 3.83596e-08)
(0.000759641 -2.85142e-07 4.71289e-08)
(0.000758193 -1.7725e-07 -1.58474e-08)
(0.000756726 -3.78e-08 4.53004e-08)
(0.000755445 5.21545e-08 4.30658e-08)
(0.00075411 9.60802e-08 5.77061e-08)
(0.00075286 1.07428e-07 1.02456e-09)
(0.000751638 3.16152e-07 3.33188e-08)
(0.000749702 9.57095e-07 2.40552e-08)
(0.000748116 7.1066e-07 -9.37451e-08)
(0.000747439 3.59899e-07 9.00298e-08)
(-0.00567758 -0.0223586 0.000903533)
(-0.00972966 -0.0102315 -0.000485699)
(0.000735056 -0.00615709 0.00144647)
(-0.0277196 -0.0231905 -0.000738451)
(0.0302296 0.0225383 -0.00196573)
(-0.00054295 -0.00982929 -0.000261753)
(0.000303483 2.13689e-05 2.76641e-06)
(0.000835164 1.54575e-05 -1.91226e-06)
(0.000805208 9.60173e-06 -6.98093e-08)
(0.00080842 7.63113e-06 1.02665e-07)
(0.0008058 5.16152e-06 1.12597e-07)
(0.000803717 3.33692e-06 1.32383e-07)
(0.000801154 2.17323e-06 3.51923e-07)
(0.000799517 1.69717e-06 4.48848e-08)
(0.000798351 1.07865e-06 5.62434e-08)
(0.000796585 6.59896e-07 6.49479e-08)
(0.000794774 3.99572e-07 5.14981e-08)
(0.000793408 2.54177e-07 2.86984e-07)
(0.000792309 9.45981e-08 7.6888e-08)
(0.000790567 -1.96925e-07 2.3116e-08)
(0.000788563 -2.33354e-07 6.92984e-08)
(0.000787223 -2.24371e-07 2.0963e-07)
(0.000785962 -1.59146e-07 5.41441e-08)
(0.000784545 -1.16653e-07 4.84824e-08)
(0.000783065 1.7967e-08 -4.80989e-08)
(0.00078153 -1.71282e-08 5.21355e-08)
(0.000780216 -1.42025e-07 8.20903e-08)
(0.000778616 1.94773e-08 4.98206e-08)
(0.000777367 3.39886e-07 2.31165e-09)
(0.000776214 -1.96943e-07 8.23115e-08)
(0.000774309 -2.22848e-07 7.67453e-08)
(0.000772561 -2.4571e-07 6.15358e-08)
(0.000771107 -5.75364e-07 2.49171e-08)
(0.000769742 -3.60763e-07 1.45453e-07)
(0.000768395 -1.2917e-07 8.28044e-08)
(0.000766966 -1.4453e-07 6.74781e-08)
(0.000765541 -1.44992e-07 5.66957e-08)
(0.000763881 -2.29324e-07 5.47288e-08)
(0.000762331 -4.58512e-07 6.87314e-09)
(0.00076136 -5.25105e-07 6.49333e-08)
(0.000760037 -2.80671e-07 6.31426e-08)
(0.000758522 -2.21144e-07 2.2181e-08)
(0.00075707 -1.07753e-07 4.04612e-08)
(0.000755496 1.4895e-07 6.23399e-08)
(0.000754065 1.20777e-07 -3.18389e-08)
(0.000752777 5.24044e-08 5.24454e-08)
(0.000751787 -7.22692e-08 3.15075e-08)
(0.000750227 -7.89295e-08 2.71572e-08)
(0.000748133 3.16175e-07 -3.42285e-08)
(0.000746673 2.28808e-07 6.58431e-08)
(0.00217563 -0.0148565 -0.00126236)
(0.00460181 0.0218796 0.000147571)
(-0.00139956 -0.000906664 0.00669205)
(-0.00703975 0.00129581 0.00126324)
(-0.00426331 0.00575782 0.000228795)
(0.00125987 -0.00331471 -5.7562e-05)
(0.0015352 -9.61595e-05 4.81273e-06)
(0.00144168 -1.5088e-06 3.59408e-07)
(0.00135345 1.12196e-05 3.32767e-07)
(0.00135113 8.26066e-06 3.50231e-07)
(0.00134344 6.67206e-06 3.80224e-07)
(0.00133922 4.28048e-06 3.37541e-07)
(0.00133699 2.86291e-06 2.65262e-07)
(0.00133396 2.40396e-06 3.50811e-07)
(0.00133054 1.50741e-06 3.40342e-07)
(0.00132816 9.55782e-07 4.82235e-07)
(0.00132592 4.97616e-07 3.33592e-07)
(0.00132332 3.65202e-07 3.48306e-07)
(0.0013203 -8.2745e-09 2.21631e-07)
(0.00131811 -3.65947e-07 3.94722e-07)
(0.00131625 -2.25869e-07 3.86117e-07)
(0.0013135 1.52735e-07 1.67363e-07)
(0.00131113 9.13508e-08 2.5424e-07)
(0.00130891 3.86453e-08 2.83852e-07)
(0.00130618 2.64963e-07 2.75062e-07)
(0.00130386 4.32083e-07 3.37379e-07)
(0.00130174 3.64865e-07 2.81159e-07)
(0.00129978 1.30115e-07 3.28284e-07)
(0.00129648 3.68172e-07 3.47025e-07)
(0.00129325 -4.28966e-07 3.73388e-07)
(0.00129127 -1.11502e-06 2.33762e-07)
(0.00128845 -8.92972e-07 8.83095e-08)
(0.0012863 -5.45696e-07 3.67093e-07)
(0.00128481 -1.5264e-07 2.98345e-07)
(0.0012822 2.37447e-07 3.05976e-07)
(0.00127935 1.42091e-07 3.18254e-07)
(0.00127682 6.23119e-08 3.03469e-07)
(0.00127419 2.21536e-07 2.68557e-07)
(0.00127182 6.39288e-07 4.31505e-08)
(0.00126996 6.76089e-07 3.33122e-07)
(0.00126776 6.79134e-08 3.93502e-07)
(0.00126506 -6.61674e-08 3.36045e-07)
(0.00126318 -5.26507e-07 3.70292e-07)
(0.00126066 -4.34881e-07 6.85817e-07)
(0.00125772 -1.28904e-07 3.26812e-07)
(0.00125548 1.24937e-08 3.65293e-07)
(0.00125348 -3.68952e-08 2.76391e-07)
(0.00125136 -6.56684e-07 4.85478e-07)
(0.00124852 -6.19311e-07 2.52407e-07)
(0.00124562 -4.16119e-07 3.40748e-07)
(0.0251095 0.0504944 -0.0251582)
(0.00418993 -0.0112677 -0.00176044)
(-0.0100929 -0.0216427 0.00361743)
(0.00275305 0.000703092 -0.000181587)
(0.00382107 0.00307253 -0.000727328)
(-0.00107566 -0.000910096 0.00216959)
(0.00165423 -5.77053e-05 1.01781e-05)
(0.00141865 2.39945e-05 3.61721e-07)
(0.00135783 5.63867e-05 4.03415e-07)
(0.0013443 1.81513e-05 3.72904e-07)
(0.00134011 1.16514e-05 3.34553e-07)
(0.00133656 6.09428e-06 3.32609e-07)
(0.00133447 3.48689e-06 3.3313e-07)
(0.00133225 1.63898e-06 3.31165e-07)
(0.00133017 1.03153e-06 3.3394e-07)
(0.00132772 6.81865e-07 7.36094e-07)
(0.0013252 6.41176e-07 3.34995e-07)
(0.00132297 5.41065e-07 3.39232e-07)
(0.00132077 6.6975e-07 4.14414e-07)
(0.00131848 6.3798e-07 2.91311e-07)
(0.00131607 5.34466e-07 2.61482e-08)
(0.00131356 3.97815e-07 3.62739e-07)
(0.00131092 8.09512e-07 7.86107e-07)
(0.00130891 6.26558e-07 4.47857e-07)
(0.00130668 3.42359e-07 3.21363e-07)
(0.0013038 2.28943e-07 4.00499e-07)
(0.00130116 6.22467e-08 3.04828e-07)
(0.00129887 -3.17121e-07 3.25154e-07)
(0.00129607 -1.41408e-06 3.80383e-07)
(0.00129297 -8.60375e-07 3.23785e-07)
(0.00129107 -7.1019e-07 3.57719e-07)
(0.0012894 -4.30782e-07 2.89582e-07)
(0.00128716 6.99179e-07 6.25486e-07)
(0.00128496 8.20046e-07 8.3072e-07)
(0.00128213 1.28865e-07 3.37955e-07)
(0.0012792 1.87101e-07 2.63476e-07)
(0.0012771 3.24808e-07 3.09225e-07)
(0.00127492 4.06794e-07 3.63422e-07)
(0.00127225 6.52703e-07 3.25638e-07)
(0.00126934 7.25724e-07 2.97284e-07)
(0.00126685 1.85813e-07 3.30098e-07)
(0.00126459 -2.58128e-07 3.59444e-07)
(0.00126238 -8.21153e-07 2.37527e-07)
(0.00126073 -6.53026e-07 3.21796e-07)
(0.0012585 -2.11586e-07 3.47262e-07)
(0.00125581 -6.33524e-08 2.57482e-07)
(0.00125313 1.19688e-07 2.99691e-07)
(0.00125071 -1.59089e-07 3.16786e-07)
(0.00124838 -4.72722e-07 3.96202e-07)
(0.00124677 -3.89876e-07 2.1428e-07)
(0.00693494 -0.00888644 0.00111732)
(0.0122129 -0.00624627 -0.00246955)
(0.0162578 -0.00925425 0.00378417)
(-0.0108169 0.0117131 0.000859946)
(-0.00989134 0.0053951 0.00027748)
(-0.000952503 0.00291405 -0.000481897)
(0.00119069 0.000884071 4.64015e-05)
(0.00121541 4.611e-05 7.83056e-07)
(0.00137763 4.36313e-05 -3.07052e-07)
(0.00129521 9.80139e-06 3.22461e-07)
(0.00132827 6.52546e-06 3.31365e-07)
(0.00132895 2.71218e-06 3.30275e-07)
(0.00133139 1.36709e-06 3.32154e-07)
(0.00133087 6.49083e-07 3.32288e-07)
(0.00132934 3.85052e-07 3.31899e-07)
(0.00132766 1.10525e-07 3.32615e-07)
(0.00132575 1.90353e-07 3.31193e-07)
(0.00132336 1.5285e-07 2.30093e-07)
(0.00132042 1.46336e-07 3.4449e-07)
(0.00131793 1.50572e-07 3.28018e-07)
(0.00131595 1.83596e-07 2.73766e-07)
(0.00131384 1.68173e-07 3.25506e-07)
(0.00131141 3.51459e-07 3.33439e-07)
(0.00130832 2.84597e-07 1.5322e-08)
(0.00130568 -2.89202e-08 3.40256e-07)
(0.0013035 -8.23324e-08 3.59732e-07)
(0.00130106 -1.27598e-07 3.31834e-07)
(0.00129794 -5.80949e-08 3.19956e-07)
(0.00129581 -7.46005e-08 1.03131e-07)
(0.00129414 7.6392e-07 2.58596e-07)
(0.00129181 1.21321e-06 3.28424e-07)
(0.00129021 1.06016e-06 3.11245e-07)
(0.00128786 5.68745e-07 7.91874e-07)
(0.00128409 3.76655e-07 4.1665e-07)
(0.00128141 -1.31914e-07 3.41376e-07)
(0.00127959 9.94e-08 3.29513e-07)
(0.00127709 1.78335e-07 4.24265e-07)
(0.0012746 7.18023e-08 3.49952e-07)
(0.00127221 2.1117e-07 3.26965e-07)
(0.00126937 6.11876e-09 4.13519e-07)
(0.00126653 1.37809e-07 1.4615e-07)
(0.0012638 3.95662e-08 9.94226e-08)
(0.00126269 9.35856e-07 3.23282e-07)
(0.00126143 5.1047e-07 2.72648e-07)
(0.00125847 1.45747e-07 1.42192e-07)
(0.0012559 1.05189e-07 3.78116e-07)
(0.00125336 2.54775e-07 3.24966e-07)
(0.00125062 2.50393e-07 3.38571e-07)
(0.00124824 1.90574e-07 2.92334e-07)
(0.0012467 1.34621e-07 2.94088e-07)
(-0.00616358 -0.00888656 -0.000436686)
(0.000211434 0.00740805 0.000678425)
(-0.0206152 -0.00850998 -0.00819418)
(0.0120907 0.00510288 0.00117383)
(-0.000287396 0.00520174 0.000445462)
(0.00152887 -0.000741437 -0.000287377)
(0.000986585 0.000247576 0.000117502)
(0.00113057 -5.2526e-05 -7.33763e-07)
(0.00138638 -2.68063e-05 2.81861e-07)
(0.0012975 -1.67814e-05 4.28446e-07)
(0.00133108 -7.62651e-06 3.30774e-07)
(0.00133001 -3.77932e-06 -2.89222e-08)
(0.00133183 -2.18911e-06 3.29382e-07)
(0.00133099 -1.06694e-06 3.32031e-07)
(0.00132947 -3.11019e-07 3.31501e-07)
(0.00132746 -3.06395e-08 3.31285e-07)
(0.00132524 -2.5186e-07 3.32097e-07)
(0.00132291 -3.14474e-07 4.80463e-07)
(0.00132077 -4.91981e-07 3.50153e-07)
(0.00131853 -6.26534e-07 2.95529e-07)
(0.00131609 -2.08256e-07 -8.31435e-09)
(0.00131377 -2.86093e-07 3.29987e-07)
(0.00131106 -3.8684e-07 3.20709e-07)
(0.00130843 -2.18383e-07 3.49711e-07)
(0.00130622 4.41345e-08 2.63605e-07)
(0.00130368 2.77474e-07 3.04426e-07)
(0.00130119 4.03384e-07 3.89741e-07)
(0.00129893 6.23108e-07 4.21897e-07)
(0.0012971 1.51472e-06 3.35292e-07)
(0.00129457 1.18921e-06 4.88435e-07)
(0.00129143 1.33101e-06 3.12678e-07)
(0.00128859 1.46361e-06 3.09591e-07)
(0.0012863 4.09984e-07 3.21835e-07)
(0.00128409 -6.15236e-08 3.25297e-07)
(0.00128179 2.52919e-07 2.79442e-07)
(0.00127959 1.37424e-07 3.02597e-07)
(0.00127707 -7.1551e-08 3.00889e-07)
(0.00127496 -3.10197e-08 3.25556e-07)
(0.00127217 -5.72205e-07 1.82434e-07)
(0.00126925 -3.83453e-07 3.21094e-07)
(0.00126689 8.84684e-08 2.99293e-07)
(0.00126558 6.85131e-07 3.71524e-07)
(0.00126296 1.16904e-06 3.72322e-07)
(0.00125974 6.56042e-07 2.19222e-07)
(0.00125799 1.29969e-07 3.20635e-07)
(0.00125594 5.10694e-08 3.14021e-07)
(0.00125331 2.64522e-08 3.61913e-07)
(0.00125063 1.18128e-07 2.35966e-07)
(0.00124823 3.89659e-07 3.10071e-07)
(0.00124637 3.67475e-07 2.38497e-07)
(-0.039397 0.0119716 0.0200913)
(0.0167759 -0.0100356 -0.0135949)
(-0.0142185 -0.00268428 -0.00259964)
(-0.0161184 0.0037486 0.00382982)
(-0.0197351 -0.013102 -0.0146306)
(-0.0138362 0.00488851 -0.000356114)
(-0.00014654 -1.93406e-05 -5.8015e-05)
(0.00135859 -7.65062e-05 1.34101e-07)
(0.00145817 -4.36967e-05 5.22192e-07)
(0.00131897 -2.59769e-05 4.07539e-07)
(0.0013444 -1.27072e-05 3.56787e-07)
(0.00133566 -7.14375e-06 9.1401e-07)
(0.00133472 -3.49942e-06 2.70152e-07)
(0.00133318 -2.16084e-06 3.32069e-07)
(0.0013306 -1.58039e-06 3.08118e-07)
(0.00132772 -1.01008e-06 3.09529e-07)
(0.00132538 -5.17292e-07 3.31077e-07)
(0.00132305 -2.49239e-07 3.2786e-07)
(0.00132003 5.86566e-08 3.53532e-07)
(0.00131829 5.75951e-07 1.28614e-07)
(0.00131638 2.23337e-07 3.58805e-07)
(0.00131362 3.33512e-07 4.00929e-07)
(0.0013115 3.38101e-08 3.30279e-07)
(0.00130886 1.99705e-07 3.59411e-07)
(0.0013063 2.50812e-07 2.80165e-07)
(0.00130395 4.38929e-08 3.60967e-07)
(0.00130149 2.71211e-07 3.78526e-07)
(0.00129932 3.54747e-07 2.80299e-07)
(0.00129651 3.88366e-07 2.67899e-07)
(0.0012939 2.32088e-07 6.12549e-07)
(0.00129215 7.95527e-08 3.43877e-07)
(0.00128905 -3.30051e-07 3.24222e-07)
(0.00128594 2.71127e-07 5.98752e-07)
(0.00128389 1.52728e-07 3.24406e-07)
(0.00128165 3.48189e-07 3.32171e-07)
(0.00127919 4.34982e-08 3.20881e-07)
(0.00127688 -1.06349e-08 3.45326e-07)
(0.00127397 -2.73273e-07 3.21172e-07)
(0.00127178 -4.47604e-07 4.6713e-07)
(0.00127019 -1.76268e-07 3.19188e-07)
(0.00126786 1.69536e-07 4.83635e-07)
(0.00126515 6.71026e-07 5.39778e-07)
(0.00126265 1.02567e-07 2.97891e-07)
(0.00126012 8.12199e-08 -1.33779e-07)
(0.00125771 -1.14529e-07 6.42784e-07)
(0.00125577 -3.51328e-07 3.1489e-07)
(0.00125345 -7.99862e-07 1.41041e-07)
(0.00125108 -7.49046e-07 3.1627e-07)
(0.00124854 -5.08865e-07 3.1927e-07)
(0.00124576 1.51994e-07 4.055e-07)
(0.0130446 0.0176167 0.0170748)
(0.0301672 -0.0521296 -0.0329486)
(-0.0132968 0.0060367 0.00423221)
(0.0427748 -0.0030245 -0.0357302)
(-0.069128 0.00233832 0.00809406)
(-0.0278397 -0.0132282 -0.0114641)
(0.000763605 -0.00251072 2.13216e-05)
(0.00146257 -0.00014134 3.62471e-06)
(0.00150296 -2.1374e-05 4.91668e-07)
(0.0013369 -1.17578e-05 3.94434e-07)
(0.00135452 -7.4753e-06 2.96972e-07)
(0.00134144 -4.77587e-06 3.19705e-07)
(0.001338 -2.60888e-06 4.19559e-07)
(0.00133335 -1.83312e-06 3.33064e-07)
(0.00133089 -1.48107e-06 4.53056e-07)
(0.00132878 -1.0554e-06 3.41296e-07)
(0.00132619 -5.75439e-07 3.31602e-07)
(0.00132363 -3.04502e-07 3.79764e-07)
(0.00132179 -6.53167e-08 2.9434e-07)
(0.00131873 6.67635e-07 5.32758e-07)
(0.00131578 3.0812e-07 8.74073e-08)
(0.00131353 4.30122e-07 2.98625e-07)
(0.0013109 3.16295e-07 3.21352e-07)