/*--------------------------------*- C++ -*----------------------------------*\
| =========                 |                                                 |
| \\      /  F ield         | OpenFOAM: The Open Source CFD Toolbox           |
|  \\    /   O peration     | Version:  5.0                                   |
|   \\  /    A nd           | Web:      www.OpenFOAM.org                      |
|    \\/     M anipulation  |                                                 |
\*---------------------------------------------------------------------------*/
FoamFile
{
    version     2.0;
    format      ascii;
    class       surfaceVectorField;
    location    "2.3";
    object      Uf;
}
// * * * * * * * * * * * * * * * * * * * * * * * * * * * * * * * * * * * * * //

dimensions      [0 1 -1 0 0 0 0];

internalField   nonuniform List<vector> 
26746
(
(0.007737 -0.00850446 -0.000173543)
(-0.00492437 -0.0132797 0.000660921)
(0.00188139 -0.00919437 -0.000465309)
(-0.00679872 -0.00794628 -0.000661828)
(0.00583432 -0.00276027 0.000948789)
(0.00330138 -0.00206748 0.000496728)
(0.0075019 -0.00306022 0.00101711)
(-0.00992795 -0.0237342 -0.000273676)
(-0.00907362 -0.00943274 0.00106937)
(0.00458782 -0.0153028 0.000178597)
(0.00114345 -0.00149216 -0.000189614)
(0.00295749 -0.00729007 -0.000404635)
(0.00334342 -0.00209508 -0.000999087)
(-0.000454775 -0.00109983 0.000157884)
(-0.00587733 -0.00657466 0.000827508)
(-0.0012915 0.000649048 0.000441828)
(-0.00569095 0.000789425 0.00108414)
(-0.00485223 -0.00204483 7.79592e-05)
(-0.00544757 -0.00454985 0.00138589)
(-0.00226321 0.00306722 -0.000446571)
(0.012831 -0.00880724 0.000229378)
(-0.00211541 -0.00703458 -0.000249355)
(0.0210368 0.0049494 0.000990852)
(0.0186352 -0.0126231 -0.00047405)
(-0.0118577 -0.00613823 0.000124328)
(-0.00746917 -0.00771645 0.000267707)
(-0.00793307 -0.00884317 0.00137378)
(-0.00348815 -0.000579411 -0.000267481)
(-3.08654e-05 -0.000366949 6.96821e-06)
(5.86565e-05 -0.000524553 -8.60178e-05)
(-0.00117436 -0.00110695 -0.000194011)
(0.000384628 -7.24034e-05 1.90653e-05)
(0.000488596 -5.95022e-05 -2.29475e-06)
(0.000550725 -6.44505e-05 1.97271e-06)
(0.000858094 -0.000102251 5.65649e-06)
(0.000411949 -6.67963e-05 1.84938e-05)
(0.000671427 -0.000160121 4.70643e-05)
(0.000774493 -0.000124782 4.59828e-05)
(0.000831365 -4.55452e-05 -1.10488e-06)
(0.000881346 -5.20582e-05 -2.23906e-06)
(0.00115996 -7.39523e-05 -1.35316e-06)
(0.000605165 -5.56974e-05 -4.29108e-06)
(0.000614557 -4.56024e-05 -4.59699e-06)
(0.00102305 -9.40952e-05 -4.23672e-06)
(0.00103845 -7.0333e-05 -4.5863e-06)
(0.000816695 -2.53469e-05 -9.11414e-08)
(0.000829369 -1.84728e-05 -2.03938e-07)
(0.00108995 -3.83939e-05 1.20405e-07)
(0.000810218 -1.51868e-05 8.48404e-08)
(0.000818581 -1.4815e-05 4.94975e-08)
(0.00108529 -2.33748e-05 1.99606e-07)
(0.00080522 -9.01606e-06 6.66465e-08)
(0.000810724 -8.65427e-06 5.76449e-08)
(0.00107676 -1.34847e-05 1.76901e-07)
(0.000802227 -5.52882e-06 2.29307e-08)
(0.000805473 -5.43979e-06 4.08845e-08)
(0.00107165 -8.31122e-06 1.79856e-07)
(0.000799881 -3.33664e-06 3.79421e-08)
(0.000802113 -3.32092e-06 1.86492e-08)
(0.00106844 -5.05571e-06 1.85431e-07)
(0.000797715 -1.98226e-06 6.18189e-08)
(0.000799372 -2.12974e-06 6.17299e-08)
(0.00106545 -2.95979e-06 1.74189e-07)
(0.00079544 -1.13956e-06 4.80591e-08)
(0.000797014 -1.26671e-06 4.58897e-08)
(0.00106238 -1.75659e-06 1.74822e-07)
(0.000793864 -7.19936e-07 5.2729e-08)
(0.000794876 -1.24095e-06 3.07967e-08)
(0.00105989 -9.5591e-07 2.06168e-07)
(0.000792089 -5.53237e-07 6.64257e-08)
(0.000792995 -4.97828e-07 5.50414e-08)
(0.00105771 -7.63827e-07 1.79901e-07)
(0.000790488 -4.93369e-07 8.93685e-08)
(0.000791249 -3.80225e-07 3.47544e-08)
(0.00105551 -5.59222e-07 1.77151e-07)
(0.000788613 -3.97639e-07 1.53116e-07)
(0.000789612 -9.58581e-07 5.97347e-08)
(0.00105311 -6.38258e-07 2.60716e-07)
(0.000787001 -2.58245e-07 1.40405e-07)
(0.000788002 -2.48354e-07 1.26439e-07)
(0.00105081 -3.65979e-07 1.75639e-07)
(0.000785543 -1.49725e-07 7.69838e-08)
(0.000786366 -6.3752e-08 8.18381e-08)
(0.00104892 -2.9216e-07 2.07888e-07)
(0.00078388 -1.26031e-07 5.63559e-08)
(0.000784641 -2.97601e-07 6.73618e-08)
(0.00104674 -3.06631e-08 1.91666e-07)
(0.000782208 -1.89752e-07 4.08628e-08)
(0.00078293 -6.73562e-07 8.07014e-09)
(0.00104452 -1.99029e-07 2.13576e-07)
(0.00078059 7.33371e-09 6.04041e-08)
(0.000781683 -2.62219e-07 5.63468e-08)
(0.00104244 -2.06097e-07 1.84703e-07)
(0.000778902 3.98384e-07 8.61338e-08)
(0.000780274 -2.37743e-07 1.62624e-08)
(0.00104014 3.01388e-07 1.94115e-07)
(0.000778169 4.74046e-07 7.39889e-08)
(0.000778512 -2.1345e-06 6.09974e-08)
(0.00103856 8.04486e-07 2.11942e-07)
(0.000776363 2.71871e-07 4.78367e-08)
(0.000776874 6.0878e-07 4.76221e-08)
(0.00103692 4.84617e-07 1.50458e-07)
(0.000774711 2.2402e-07 5.99323e-08)
(0.000775424 1.87661e-07 4.7406e-08)
(0.00103472 2.43312e-07 1.74943e-07)
(0.000773118 8.71347e-08 1.08745e-07)
(0.000773756 -1.32783e-07 6.71376e-08)
(0.00103244 3.32637e-07 1.21492e-07)
(0.00077156 -2.58097e-07 1.10094e-07)
(0.000772009 2.28205e-07 1.93207e-08)
(0.00103023 -1.65327e-07 1.5169e-07)
(0.00076959 -4.59186e-07 5.30915e-08)
(0.000770499 -7.54708e-07 -3.28873e-08)
(0.00102805 -6.40794e-07 3.65325e-07)
(0.000768137 -4.19943e-07 5.20058e-08)
(0.000768947 -6.76192e-07 2.38751e-08)
(0.00102563 -6.69807e-07 3.16659e-07)
(0.000766715 -1.77043e-07 7.24983e-08)
(0.000767657 -9.5479e-08 1.13733e-07)
(0.00102375 -4.66697e-07 1.48685e-07)
(0.000765774 1.45196e-08 6.30633e-08)
(0.000766478 -1.49648e-06 9.11158e-08)
(0.00102239 -2.86828e-09 2.23705e-07)
(0.000764162 6.0677e-08 4.88024e-08)
(0.00076498 7.82133e-08 4.82405e-08)
(0.00102064 6.31117e-08 1.73233e-07)
(0.000762481 9.60708e-08 3.73303e-08)
(0.000763345 3.99246e-07 5.11548e-08)
(0.00101836 1.45134e-07 1.66454e-07)
(0.000760722 1.679e-07 3.43953e-08)
(0.000761797 4.13144e-07 3.72714e-08)
(0.00101609 1.37818e-07 1.70369e-07)
(0.000759125 4.18551e-07 5.35096e-08)
(0.000760335 4.96911e-07 2.30413e-08)
(0.00101373 3.16055e-07 1.40078e-07)
(0.000758866 4.05568e-07 9.23017e-08)
(0.000758934 -2.55499e-06 4.25946e-08)
(0.00101256 8.00675e-07 2.15778e-07)
(0.000756939 1.15127e-07 8.0874e-08)
(0.000757477 4.03595e-07 8.45486e-08)
(0.00101124 3.13099e-07 1.74996e-07)
(0.000755302 -3.14029e-08 5.95568e-08)
(0.000755923 8.91584e-08 5.16479e-08)
(0.00100876 3.91743e-08 1.80999e-07)
(0.000754064 -4.36022e-07 7.27434e-08)
(0.000754338 -2.71364e-08 6.67651e-08)
(0.00100672 -1.0509e-07 1.53614e-07)
(0.000753222 -7.36268e-07 3.18803e-08)
(0.000753207 1.68986e-06 7.53539e-08)
(0.00100563 -1.00179e-06 1.30294e-07)
(0.000750783 -5.48111e-07 1.02727e-08)
(0.000752065 2.78748e-06 5.3491e-08)
(0.00100332 -8.58944e-07 6.01611e-08)
(0.000749628 -3.28268e-07 -3.86641e-08)
(0.000750533 -4.73503e-07 3.09195e-08)
(0.0010008 -5.24076e-07 1.64827e-07)
(0.000748355 -2.01705e-07 -3.03821e-08)
(0.000749109 -1.00694e-07 -3.10765e-08)
(0.000999305 -3.23314e-07 1.62126e-07)
(0.000747028 -1.7417e-07 5.55493e-08)
(0.000747684 -4.59524e-08 4.11293e-08)
(0.000997499 -2.03346e-07 1.67444e-07)
(0.000745639 -2.97797e-07 5.90946e-08)
(0.000746286 -4.92276e-08 5.59909e-08)
(0.000995822 -2.74603e-07 1.74058e-07)
(0.000743939 -3.77745e-07 3.10036e-08)
(0.000744795 -4.43764e-07 -2.03668e-08)
(0.000993648 -5.39209e-07 2.15213e-07)
(0.000743518 8.97925e-07 5.87871e-08)
(0.000991518 -4.56342e-07 1.03853e-07)
(0.00956938 -0.0261925 -0.000810266)
(0.0188188 -0.00680691 -0.000447017)
(0.0142789 -0.00775751 -0.00356514)
(-0.000562485 0.0040596 -0.000556415)
(-0.00637412 0.0028347 -0.00135115)
(0.0324338 0.000774456 0.000349332)
(0.0177532 -0.0106154 -5.09071e-05)
(-0.00225033 -0.00388561 -0.00168407)
(0.00442359 0.00243349 8.32477e-06)
(-0.0322968 0.0233916 0.00115263)
(0.020402 -0.00312245 0.000369913)
(0.0135697 0.0118179 0.00307255)
(0.00102637 -0.00320826 0.000548512)
(-0.00136349 -0.00910573 0.000589166)
(-0.00356583 -0.0156667 0.00300665)
(0.0118003 -0.0103699 0.00179607)
(0.00184852 -0.00714995 -5.89801e-05)
(0.00660799 -0.00670475 0.000631049)
(-0.000140427 -0.00219188 0.000646806)
(-0.0010385 -0.00834375 -0.000178104)
(0.00604805 0.00225862 0.000500739)
(0.0175956 -0.0128779 -0.000402749)
(0.0232199 0.00154903 0.00142811)
(0.00745781 -0.00205047 0.00213911)
(0.030658 0.00622426 0.000219305)
(0.0104718 -0.000458998 0.000595931)
(0.00506434 -0.00313929 -0.000516106)
(-0.00105368 -0.0026471 0.00094572)
(0.00343728 -0.00192077 -0.000296958)
(0.00132232 0.00174462 -6.7528e-05)
(0.00686703 0.0054368 0.000251592)
(0.00178299 -3.38782e-05 -7.81842e-05)
(-0.00206344 0.00130639 0.000238395)
(-0.000891154 0.00353111 -0.000360988)
(-0.00328669 0.00420379 0.000745029)
(0.00195067 -0.000663672 -0.000179629)
(-0.00601724 0.00938385 0.000508739)
(-0.000316318 0.00440035 -0.000439074)
(-0.00215684 -0.000140128 -0.000213237)
(0.00218518 -0.00367562 -0.000116365)
(-0.00212778 0.00370273 9.7599e-05)
(-0.000335221 0.00442512 -0.000331027)
(-8.76336e-05 0.00173598 2.70253e-05)
(0.00274187 -0.00252634 8.08521e-05)
(-0.00244496 0.00135859 9.1084e-05)
(0.000295472 0.000425556 0.000240922)
(0.000133778 0.00172612 0.000524828)
(0.000474897 -8.53038e-05 3.27895e-05)
(0.000443054 -3.65458e-05 5.2819e-06)
(0.000390338 -1.76264e-05 8.44158e-06)
(0.000617622 -3.31971e-05 1.44254e-05)
(0.000288826 -2.44143e-05 1.27913e-06)
(0.000861355 -1.73071e-05 -1.33878e-06)
(0.000598575 -9.42474e-06 -1.31806e-06)
(0.00118853 -4.72057e-05 -1.62245e-06)
(0.000645779 -2.77792e-05 -4.74287e-06)
(0.00063725 -2.15985e-05 -4.84742e-06)
(0.00111009 -3.6698e-05 -5.1767e-06)
(0.00107904 -2.2709e-05 -4.97897e-06)
(0.000588913 -2.58547e-05 -4.01588e-06)
(0.000990012 -3.97248e-06 -9.54388e-07)
(0.00096908 -3.66251e-05 -4.84629e-06)
(0.000830636 -1.1223e-06 -6.33816e-08)
(0.000856391 1.89497e-05 -9.12865e-07)
(0.00112029 9.33508e-06 1.05677e-07)
(0.000818473 -5.53166e-06 2.22993e-08)
(0.000813098 -1.47427e-06 -1.96205e-07)
(0.00109677 -7.57633e-06 1.65197e-07)
(0.000810305 -3.55644e-06 3.18883e-08)
(0.000813188 -4.9156e-07 1.07132e-07)
(0.0010849 -4.17124e-06 1.7831e-07)
(0.000805161 -2.59303e-06 3.66102e-08)
(0.000806675 -1.00899e-06 6.98618e-08)
(0.00107637 -3.4584e-06 1.74538e-07)
(0.000801405 -1.72443e-06 4.2423e-08)
(0.000803198 -5.92379e-07 1.07213e-07)
(0.00107092 -2.29268e-06 1.7116e-07)
(0.000798642 -1.15053e-06 4.58059e-08)
(0.00080009 -7.39314e-07 4.86424e-08)
(0.00106675 -1.61078e-06 1.77685e-07)
(0.00079642 -7.16312e-07 2.86322e-08)
(0.000797558 -5.46515e-07 4.97999e-08)
(0.0010636 -1.04962e-06 1.78319e-07)
(0.000793896 -3.50425e-07 3.31012e-08)
(0.000795334 1.14315e-07 1.74489e-08)
(0.0010605 -6.12693e-07 1.61626e-07)
(0.000792182 -8.91312e-08 2.33767e-08)
(0.000793322 -6.16601e-07 5.21175e-08)
(0.00105773 -1.85536e-07 1.93511e-07)
(0.00079024 2.5126e-08 5.11259e-09)
(0.000791392 1.50675e-06 4.22114e-08)
(0.00105533 1.03298e-08 7.47649e-08)
(0.000789177 7.23729e-08 3.30362e-08)
(0.000789671 -4.6188e-07 -1.65256e-09)
(0.00105336 9.01676e-08 9.52185e-08)
(0.000787242 1.30435e-07 6.78859e-08)
(0.000788074 1.46833e-07 7.2515e-08)
(0.0010514 1.43458e-07 1.78214e-07)
(0.000785551 1.7777e-07 7.22208e-08)
(0.000786424 4.16084e-07 1.43991e-07)
(0.00104902 2.543e-07 1.51568e-07)
(0.00078361 3.30157e-07 1.9095e-08)
(0.000784829 3.50343e-07 5.1458e-08)
(0.0010466 2.53946e-07 1.61745e-07)
(0.00078227 5.51771e-07 2.35388e-08)
(0.000783204 9.71115e-07 1.951e-08)
(0.00104429 6.58671e-07 4.00205e-08)
(0.000781542 5.20393e-07 1.22179e-08)
(0.000781642 -1.84198e-06 4.45447e-08)
(0.00104307 8.4149e-07 2.11789e-07)
(0.000779882 4.39722e-07 -8.88822e-09)
(0.000780171 2.00275e-07 5.69581e-09)
(0.00104161 5.58894e-07 1.52715e-07)
(0.000777184 2.87934e-07 3.46348e-08)
(0.000778321 -2.20173e-07 2.81112e-08)
(0.0010385 6.1378e-07 1.4057e-07)
(0.0007759 1.00785e-08 4.71914e-08)
(0.000776526 2.94278e-08 2.09312e-08)
(0.00103581 1.615e-07 1.91773e-07)
(0.000774502 -2.67722e-07 5.46051e-08)
(0.000775078 6.51484e-08 5.13179e-08)
(0.00103421 -1.29094e-07 1.70156e-07)
(0.000772649 -4.53836e-07 -2.22713e-08)
(0.000773525 -6.3511e-07 3.22099e-08)
(0.001032 -6.63408e-07 2.37457e-07)
(0.000770971 -3.91293e-07 -1.23644e-07)
(0.00077209 -1.06788e-07 -4.78843e-08)
(0.0010295 -6.37177e-07 2.10433e-07)
(0.000769778 -2.24805e-07 -6.21216e-08)
(0.000770709 2.07776e-07 1.52704e-08)
(0.00102777 -4.45683e-07 7.64005e-08)
(0.000768389 2.05244e-07 8.55741e-08)
(0.000769485 4.56018e-07 3.53497e-08)
(0.0010261 -1.95439e-07 8.18183e-08)
(0.000767503 5.44846e-07 1.32358e-07)
(0.000768081 -3.27508e-06 6.33393e-08)
(0.00102453 7.26236e-07 3.43467e-07)
(0.000765672 3.88519e-07 7.63064e-08)
(0.000766281 -2.3491e-06 5.3634e-08)
(0.0010228 7.4699e-07 2.62656e-07)
(0.000764206 1.51059e-07 5.0592e-08)
(0.000764682 1.36235e-07 4.22815e-08)
(0.00102055 2.97444e-07 1.65756e-07)
(0.000762627 1.28767e-07 5.11003e-08)
(0.000763316 -1.73925e-07 4.66337e-08)
(0.00101842 1.06614e-07 2.21146e-07)
(0.000761397 2.87236e-07 2.59219e-08)
(0.000761995 1.18076e-07 4.56471e-08)
(0.00101656 2.49511e-07 1.70525e-07)
(0.000760101 5.6127e-07 1.21204e-08)
(0.000760676 7.32815e-08 2.9654e-08)
(0.00101504 5.20721e-07 1.86056e-07)
(0.000757641 5.45741e-07 3.48285e-08)
(0.000758912 -8.88005e-07 1.99729e-08)
(0.00101245 9.59198e-07 1.40765e-07)
(0.000756411 2.92475e-07 5.53327e-08)
(0.000757159 2.52929e-07 6.24576e-08)
(0.0010099 5.06124e-07 1.61276e-07)
(0.000755008 1.05694e-07 5.88516e-08)
(0.000755689 7.78833e-08 6.3274e-08)
(0.00100825 2.86206e-07 1.67173e-07)
(0.000753236 -1.17445e-07 6.9373e-08)
(0.000754059 5.49631e-07 5.55314e-08)
(0.00100608 -3.30275e-08 1.58351e-07)
(0.00075225 -5.13903e-07 9.69713e-08)
(0.000752713 6.48847e-07 7.00763e-08)
(0.00100418 -3.22629e-07 2.04631e-07)
(0.000751794 -5.28487e-07 7.41447e-08)
(0.00075205 1.27193e-07 1.28679e-07)
(0.00100342 -1.04086e-06 2.7452e-07)
(0.000749999 -2.19088e-07 3.8526e-08)
(0.000750921 6.23929e-08 6.10227e-08)
(0.00100184 -3.33386e-07 1.64454e-07)
(0.000748448 -1.26771e-07 4.04128e-08)
(0.000749226 2.77007e-08 4.75986e-08)
(0.00099955 -2.56923e-07 1.72376e-07)
(0.000746933 -7.94298e-08 4.15664e-08)
(0.000747744 1.31366e-07 3.5803e-08)
(0.000997552 -7.46088e-08 1.6583e-07)
(0.000745451 -1.43566e-07 -2.34473e-08)
(0.000746206 1.77264e-07 6.20073e-08)
(0.000995502 -1.21306e-07 1.59576e-07)
(0.00074426 -2.05054e-07 7.39265e-09)
(0.000744721 3.51696e-07 -1.99565e-08)
(0.000993673 -2.76051e-07 9.17563e-08)
(0.000743772 -1.64227e-07 1.1617e-07)
(0.000992353 -2.9117e-07 2.29034e-07)
(0.00810226 0.0193575 -0.00177149)
(0.0187076 0.00353395 0.000388648)
(0.0118002 -0.0078062 -0.00048666)
(0.0157068 -0.0091792 -0.00033322)
(0.00406118 -0.00537564 0.00159905)
(-0.0221313 0.0261542 -0.0028634)
(-0.018955 -0.000146884 0.00574671)
(0.0137936 -0.00434501 0.000318637)
(0.00377259 -0.00157137 6.79287e-06)
(-0.000679338 0.000614464 0.000279203)
(-4.63979e-05 0.00406491 -0.000621887)
(0.000296377 0.0160309 0.000492292)
(-0.000592746 -0.00617127 -0.000453114)
(-0.00598421 -0.0153885 3.9682e-05)
(-0.00268335 -0.00757275 0.000750038)
(0.00334917 -0.0114528 0.000261788)
(0.0134244 0.00437085 -0.000472832)
(0.00408391 0.00426739 3.23144e-05)
(0.00654019 0.00617171 0.000123771)
(0.00036348 0.0101045 0.000733183)
(-0.00129651 -0.00163984 0.000373817)
(-0.00196294 -0.00242886 0.000201412)
(0.00193166 -0.00466706 0.000303718)
(0.00101267 -0.0039748 0.000750179)
(0.00454369 -0.00210408 6.01482e-05)
(-0.0013227 0.000991259 -7.94946e-05)
(-0.000971815 0.000656292 -3.83225e-05)
(0.000124344 0.001075 -3.42039e-05)
(2.73768e-05 0.00157393 -6.535e-05)
(-0.000563137 0.0012644 -0.00013151)
(0.00134073 0.000566953 6.97363e-05)
(0.000523255 -0.000223343 4.21592e-05)
(0.000716697 -0.000102269 1.38517e-05)
(0.000738466 -3.1114e-05 5.49303e-05)
(0.000592428 -9.11662e-05 2.25522e-05)
(0.000484693 -5.11991e-06 1.62666e-07)
(0.00048769 -7.83271e-06 -2.90227e-06)
(0.000467351 -8.67096e-07 2.23347e-07)
(0.000744797 4.67921e-06 -8.13643e-07)
(0.00081445 9.18865e-06 -1.04592e-06)
(0.000877383 7.06639e-06 -1.55742e-06)
(0.00115814 2.41799e-05 -9.68008e-07)
(0.000594542 -4.9436e-06 -3.73264e-06)
(0.000605277 5.21168e-06 -5.07059e-06)
(0.000978416 -1.46528e-05 -4.56324e-06)
(0.000993178 6.88136e-06 -6.52206e-06)
(0.000811976 1.31215e-06 -1.11472e-07)
(0.000803183 9.9009e-07 -3.42359e-07)
(0.00106847 2.31014e-06 7.92176e-08)
(0.000807965 9.01065e-07 1.45117e-07)
(0.00081265 1.97681e-06 1.73341e-07)
(0.00108188 2.39673e-06 2.11642e-07)
(0.000804617 1.87838e-07 1.40452e-07)
(0.000805768 1.10875e-06 4.50869e-08)
(0.00107399 7.07802e-07 1.78016e-07)
(0.000801626 -8.60236e-09 1.13451e-07)
(0.000802944 9.11528e-07 1.1712e-07)
(0.00107074 2.24286e-07 1.8923e-07)
(0.000798865 -7.12489e-08 5.2636e-08)
(0.000800007 5.85154e-07 5.24014e-08)
(0.001067 2.28722e-08 1.82097e-07)
(0.000796414 -1.15459e-07 3.86271e-08)
(0.000797499 3.92186e-07 5.12291e-08)
(0.00106363 -4.21915e-08 1.83068e-07)
(0.000794676 -7.07012e-08 3.64539e-08)
(0.000795388 1.9924e-07 3.83748e-08)
(0.00106097 -1.48846e-07 1.81314e-07)
(0.000792574 2.5237e-08 7.09554e-08)
(0.00079344 -2.66433e-08 4.61583e-08)
(0.00105849 2.94034e-08 1.78062e-07)
(0.000790617 1.67714e-07 3.54604e-08)
(0.000791569 6.68615e-07 7.24368e-08)
(0.00105585 6.49568e-08 2.63955e-07)
(0.000788704 2.28115e-07 3.78024e-08)
(0.000789745 1.13965e-06 3.07837e-08)
(0.00105328 3.54925e-07 9.23541e-08)
(0.000787165 1.82022e-07 1.48597e-07)
(0.000788016 6.46291e-08 6.22902e-08)
(0.00105101 1.99826e-07 1.77305e-07)
(0.00078574 1.91938e-07 1.23258e-07)
(0.000786436 -1.0162e-07 1.22716e-07)
(0.00104905 2.46409e-07 1.97993e-07)
(0.000784387 2.83483e-07 5.18832e-08)
(0.000784943 9.8678e-08 4.94103e-08)
(0.00104724 2.30695e-07 1.73425e-07)
(0.000782579 4.20338e-07 4.05079e-08)
(0.000783374 -2.30677e-07 4.9703e-08)
(0.00104525 5.00372e-07 2.79274e-07)
(0.000780209 2.46674e-07 3.80349e-08)
(0.000781423 -1.53792e-07 4.02627e-08)
(0.00104231 5.97556e-07 1.26854e-07)
(0.000778869 -1.2612e-07 4.26881e-08)
(0.000779704 -3.13925e-07 3.31548e-08)
(0.00103985 3.58698e-08 1.9119e-07)
(0.000777363 -2.00593e-07 1.44099e-08)
(0.000778228 -2.72106e-07 7.04402e-08)
(0.00103806 -3.51957e-07 1.73902e-07)
(0.000775787 -8.98194e-08 2.50481e-08)
(0.000776664 5.21447e-08 2.88634e-08)
(0.00103599 -1.32503e-07 1.75156e-07)
(0.000774144 -9.54604e-08 2.89288e-08)
(0.000775071 -1.59258e-08 5.40997e-08)
(0.0010337 -6.39027e-08 1.88753e-07)
(0.000772839 7.38457e-08 6.62216e-09)
(0.000773736 4.51655e-07 3.93037e-09)
(0.00103181 -1.4149e-07 7.70976e-08)
(0.000771938 3.60351e-07 9.10106e-08)
(0.000772446 7.37229e-07 2.69824e-08)
(0.00103051 4.16191e-07 5.88208e-08)
(0.000770269 4.76769e-07 1.12735e-07)
(0.000770852 3.7457e-07 1.06877e-07)
(0.00102861 6.62019e-07 1.74714e-07)
(0.000769342 4.94002e-07 1.3106e-08)
(0.000769504 5.23855e-07 3.90609e-08)
(0.00102709 7.0425e-07 1.16404e-07)
(0.000766853 3.65263e-07 -1.53813e-08)
(0.000767918 -9.66363e-08 9.97149e-09)
(0.00102493 6.31963e-07 3.42595e-08)
(0.000765194 1.85087e-07 1.96126e-08)
(0.000766055 9.43044e-08 2.294e-08)
(0.00102185 3.37472e-07 1.28592e-08)
(0.000763764 1.00314e-07 3.83218e-08)
(0.000764575 -1.3761e-08 4.37844e-08)
(0.00101983 1.3883e-07 1.77345e-07)
(0.000762692 7.47947e-08 4.11808e-08)
(0.000763284 4.25688e-09 3.87362e-08)
(0.0010183 8.76127e-08 1.22225e-07)
(0.00076127 2.20154e-08 4.93842e-08)
(0.000761928 1.37108e-07 4.33647e-08)
(0.00101661 9.87427e-08 1.65304e-07)
(0.000759735 -1.33657e-07 3.75096e-08)
(0.000760481 -1.74007e-08 4.86724e-08)
(0.00101461 -2.42613e-08 1.83595e-07)
(0.000758114 -1.93821e-07 4.75889e-08)
(0.000758837 -3.52018e-07 1.84367e-08)
(0.00101254 -2.81685e-07 1.46664e-07)
(0.000756608 -1.35402e-07 7.03987e-08)
(0.000757232 -5.1587e-07 5.30181e-08)
(0.00101039 -1.80324e-07 2.30598e-07)
(0.000754705 -2.16367e-08 5.99562e-08)
(0.000755831 7.44553e-07 6.78916e-08)
(0.00100808 -1.43538e-07 1.63271e-07)
(0.000753487 3.02343e-07 5.62302e-08)
(0.000754463 -2.67433e-07 4.62109e-08)
(0.00100596 1.11143e-07 2.08961e-07)
(0.00075212 6.07947e-07 1.01766e-07)
(0.000753093 3.89607e-07 5.93233e-08)
(0.00100437 7.25318e-07 1.82619e-07)
(0.000751731 4.82681e-07 1.15578e-07)
(0.00075189 -1.20425e-06 1.66813e-08)
(0.00100331 9.07381e-07 1.72162e-07)
(0.000750011 2.45239e-07 7.00995e-08)
(0.000750623 2.58497e-07 6.63752e-08)
(0.00100178 3.99171e-07 1.82329e-07)
(0.000748474 2.25396e-07 4.29925e-08)
(0.000749199 1.4866e-07 4.80751e-08)
(0.000999631 3.1145e-07 1.71563e-07)
(0.000747048 3.1406e-07 5.62359e-08)
(0.000747853 3.13261e-07 5.60713e-08)
(0.000997671 3.21985e-07 1.57471e-07)
(0.000745467 3.06198e-07 6.5523e-08)
(0.000746195 4.64479e-07 5.95847e-08)
(0.000995571 5.10411e-07 1.6412e-07)
(0.000743998 1.8216e-07 8.87797e-08)
(0.000744564 2.15223e-07 5.09464e-08)
(0.000993444 2.84378e-07 1.85314e-07)
(0.000743545 -1.28629e-06 1.35267e-07)
(0.000992224 1.86437e-07 2.04873e-07)
(0.00918261 -0.0014856 6.32966e-05)
(0.00193191 -0.00331589 -2.79843e-05)
(0.00306327 -0.000633427 -0.000436184)
(0.00731027 0.00104893 -0.000378861)
(0.00106553 -0.00532812 -3.08701e-05)
(0.00510373 0.000474672 -5.37334e-05)
(0.00384784 -0.00563846 -8.28253e-05)
(0.00284975 -0.0090652 0.000239945)
(0.0077076 -0.00533641 -1.35076e-06)
(-0.0115985 -0.00546318 -0.00014076)
(-0.0221718 0.0028112 -0.000430953)
(-0.0208053 -0.000500559 -0.000791662)
(-0.013012 -0.00103044 -0.000467554)
(-0.0131361 -0.00723453 -0.000687686)
(0.00304519 -0.00263628 4.33694e-05)
(0.0096025 0.00685012 -0.000198271)
(0.0176842 0.00929414 -0.00023808)
(0.0198052 0.00364857 -0.000826997)
(0.00756578 0.00514676 -0.000410905)
(-0.00162757 -0.00145811 0.00010399)
(-0.00359348 -0.000892623 -0.000145747)
(-0.00501564 0.00127672 -2.36174e-05)
(-0.00514897 0.00110861 -2.95638e-05)
(-0.00175406 0.00386634 0.00018181)
(-5.41414e-05 -0.00213958 1.39131e-05)
(-3.61387e-05 -0.00331803 -7.18562e-05)
(0.000820239 0.0011239 -3.02741e-05)
(0.00648006 -0.00372263 -0.000203071)
(0.000217339 -0.00606666 3.45137e-05)
(0.000362422 0.00061352 3.67027e-05)
(0.00155529 0.000595731 8.07484e-05)
(0.00109715 0.000434139 9.50263e-05)
(0.0010969 0.000315215 -2.97473e-05)
(0.00084496 0.000105837 5.29029e-05)
(0.000325398 6.30627e-06 -1.28487e-06)
(0.000488241 -2.942e-07 -3.14633e-06)
(0.000465526 -4.03068e-06 2.86808e-07)
(0.000744834 -7.14829e-06 -9.99594e-07)
(0.000344934 -7.92574e-06 -5.20134e-07)
(0.000596754 2.03506e-05 3.16299e-06)
(0.000642816 -1.75212e-05 4.30051e-06)
(0.000468845 -5.66536e-06 3.24786e-08)
(0.000817679 3.88909e-06 -8.54252e-07)
(0.000891257 1.18426e-05 -1.24973e-06)
(0.00117381 5.21886e-06 -1.04908e-06)
(0.000614193 3.77113e-06 -3.75143e-06)
(0.000610393 -1.77423e-06 -4.63909e-06)
(0.00100669 5.47051e-06 -4.83064e-06)
(0.00100247 -1.08819e-05 -6.08317e-06)
(0.000812994 3.08357e-06 -5.77146e-08)
(0.000802163 6.71632e-06 -4.26061e-07)
(0.00106934 3.00253e-06 4.43384e-08)
(0.000808105 2.96804e-06 7.33523e-08)
(0.000812486 5.6172e-06 1.75697e-07)
(0.00108282 3.95769e-06 2.0588e-07)
(0.00080412 2.14053e-06 2.17313e-08)
(0.000804718 3.97496e-06 -1.06348e-08)
(0.00107361 3.2055e-06 1.81299e-07)
(0.00080109 1.414e-06 5.60914e-08)
(0.000802025 2.54567e-06 1.13336e-07)
(0.00107004 2.04534e-06 1.8422e-07)
(0.000798509 9.79575e-07 5.09948e-08)
(0.000799456 1.73134e-06 5.28799e-08)
(0.0010664 1.45674e-06 1.79579e-07)
(0.000796314 6.8956e-07 5.0981e-08)
(0.000797131 1.12294e-06 3.95016e-08)
(0.00106338 1.016e-06 1.75391e-07)
(0.000794186 4.17916e-07 4.80767e-08)
(0.000795045 7.24899e-07 3.54419e-08)
(0.00106058 7.56803e-07 1.84236e-07)
(0.000792338 1.6696e-07 4.76313e-08)
(0.000793124 4.89237e-07 4.67467e-08)
(0.001058 3.22867e-07 1.60941e-07)
(0.000790756 2.77465e-08 6.77735e-08)
(0.000791394 2.49854e-07 4.85637e-08)
(0.00105573 1.14784e-07 2.02589e-07)
(0.000788947 -3.07595e-08 5.52614e-08)
(0.000789672 2.683e-07 6.91304e-08)
(0.00105352 -4.68732e-08 2.54483e-07)
(0.000787291 -3.73723e-09 3.639e-08)
(0.000788049 1.08711e-07 2.41999e-08)
(0.00105127 -7.8601e-08 1.79015e-07)
(0.000785583 -1.72553e-08 4.88922e-08)
(0.00078642 4.9585e-08 5.3871e-08)
(0.00104905 4.75392e-09 1.76295e-07)
(0.000783995 -1.58301e-07 4.72299e-08)
(0.000784767 2.7234e-08 6.67604e-08)
(0.00104692 -9.88474e-08 1.81426e-07)
(0.000782333 -2.91217e-07 4.94608e-08)
(0.000783209 -1.43082e-07 1.45076e-07)
(0.00104474 -3.46579e-07 1.76778e-07)
(0.000780725 -1.87059e-07 3.53848e-08)
(0.000781555 -1.76974e-07 6.75286e-08)
(0.00104249 -4.28538e-07 1.79797e-07)
(0.000779103 2.08211e-08 6.08951e-08)
(0.000779964 -9.92616e-09 4.40409e-08)
(0.00104042 -7.39887e-08 1.58659e-07)
(0.000777498 1.72221e-07 8.49069e-08)
(0.000778417 -1.41271e-07 8.72795e-08)
(0.0010383 1.12555e-07 1.69775e-07)
(0.000775991 3.44135e-07 5.79071e-08)
(0.000776878 -3.68784e-08 6.47353e-08)
(0.00103617 3.40058e-07 1.76859e-07)
(0.000774577 5.82749e-07 2.91172e-08)
(0.000775367 5.65328e-07 4.01863e-08)
(0.0010342 5.98611e-07 1.22095e-07)
(0.00077337 6.39978e-07 2.42834e-08)
(0.000773804 8.49668e-07 1.17423e-07)
(0.0010326 1.04935e-06 1.17122e-07)
(0.000771415 4.58905e-07 4.2824e-08)
(0.000772216 1.36403e-07 3.64764e-08)
(0.0010305 7.8667e-07 2.53751e-07)
(0.000769962 4.19617e-07 3.32242e-08)
(0.0007708 3.59378e-07 4.82523e-08)
(0.00102813 5.74377e-07 1.68497e-07)
(0.000768361 1.86297e-07 3.59355e-08)
(0.000769209 2.09053e-07 2.32669e-08)
(0.00102606 7.12878e-07 2.03105e-07)
(0.000766892 -7.74187e-08 4.82887e-08)
(0.000767587 -1.32864e-07 5.58294e-08)
(0.00102407 -5.9655e-08 1.71957e-07)
(0.000765466 1.89711e-08 4.71052e-08)
(0.000766175 2.53492e-08 4.83001e-08)
(0.00102219 -6.18929e-08 1.70894e-07)
(0.00076403 1.25989e-07 4.42004e-08)
(0.000764709 -4.30889e-08 4.68954e-08)
(0.00102023 1.38855e-07 1.69301e-07)
(0.000762547 7.72549e-08 4.09187e-08)
(0.000763223 -2.34948e-08 4.48468e-08)
(0.00101837 2.0098e-07 1.73638e-07)
(0.00076118 -4.86015e-08 4.26513e-08)
(0.000761771 -2.93913e-08 4.52299e-08)
(0.00101642 -1.02511e-08 1.73623e-07)
(0.000759629 -1.71611e-07 2.96089e-08)
(0.000760328 1.76835e-07 6.2296e-08)
(0.00101456 -1.2742e-07 1.64562e-07)
(0.000757835 -2.39238e-07 2.38553e-08)
(0.000758754 -1.6901e-07 2.75756e-08)
(0.00101225 -3.55608e-07 1.87538e-07)
(0.000756499 -1.85183e-07 5.05064e-08)
(0.0007573 -9.07647e-08 -3.88027e-08)
(0.00101007 -3.31357e-07 1.29351e-07)
(0.000755612 -4.85193e-09 5.4153e-08)
(0.000756056 -7.66255e-08 4.6612e-08)
(0.00100862 -1.63547e-07 1.79147e-07)
(0.000754049 2.43253e-07 4.92999e-08)
(0.000754772 1.60462e-07 2.22327e-07)
(0.00100716 2.31166e-07 1.5023e-07)
(0.000752718 5.05704e-07 -2.57485e-08)
(0.000753419 4.42627e-07 3.1858e-08)
(0.00100517 5.30137e-07 1.56751e-07)
(0.000750918 4.62888e-07 -3.25367e-08)
(0.000751834 -9.7292e-07 -1.35111e-08)
(0.001003 8.65703e-07 1.86722e-07)
(0.000749804 2.33418e-07 4.43564e-08)
(0.000750334 1.9565e-07 3.80219e-08)
(0.00100109 3.52936e-07 1.46048e-07)
(0.000748515 2.14328e-07 6.11515e-08)
(0.000749175 8.23603e-08 4.66912e-08)
(0.000999449 2.51684e-07 1.627e-07)
(0.000747202 3.1308e-07 5.9419e-08)
(0.000747976 9.9345e-07 4.09998e-08)
(0.000997797 2.78581e-07 1.10863e-07)
(0.000745127 3.1057e-07 4.50107e-08)
(0.000746191 1.32872e-06 3.76128e-08)
(0.000995452 4.78424e-07 1.67079e-07)
(0.000743986 2.57298e-07 9.74085e-08)
(0.000744494 -2.61371e-08 4.42128e-08)
(0.000993262 2.98217e-07 1.63015e-07)
(0.000743224 -1.34103e-06 9.78634e-08)
(0.000991766 3.75365e-07 1.86176e-07)
(-0.0280776 -0.00234366 -0.00406825)
(-0.0189027 0.00640757 0.00164091)
(-0.0301495 0.00974613 0.00181171)
(-0.0173283 -0.00204906 0.0011875)
(0.0120993 0.000636026 0.0016871)
(0.00800081 0.00128286 0.00158352)
(0.0111833 0.00107227 0.000855912)
(0.0102616 -0.00283578 -0.00448382)
(-2.91112e-05 -0.00639695 -0.00642697)
(0.0127605 -0.00637316 0.0146929)
(0.0158532 -0.0118778 0.00171168)
(0.022872 -0.0227514 -0.0106447)
(-0.0040105 0.00265219 0.00100698)
(-0.0146602 0.00523884 0.000224651)
(-0.00106164 0.0118223 1.4684e-06)
(-0.00671267 0.000994051 -0.00350713)
(-0.00221973 -0.00661545 0.00160717)
(-0.00384093 0.00424571 0.00146961)
(0.00498671 0.00576527 0.00110809)
(0.00113506 -2.46193e-05 -0.000381887)
(-0.0121358 0.00110123 -0.0017206)
(0.0316643 -0.00833467 -0.00271549)
(0.0241383 0.00335714 -0.000613249)
(-0.00943427 0.00636112 0.000936723)
(-0.0109035 0.0104365 -0.000797187)
(-0.0285112 -0.00202771 0.00019517)
(0.00559932 0.000626397 0.0011629)
(-0.000914922 -0.0106903 0.0250154)
(-0.0212201 -0.0105401 -0.0313968)
(-0.0213859 -0.0100916 0.0356665)
(-0.00239933 -0.00838917 -0.028085)
(-0.00245168 -0.00494908 7.75709e-05)
(0.00651138 -0.00298111 0.000170403)
(-0.0149782 -0.00117107 0.000563318)
(-0.0038504 -0.00972267 -0.00104633)
(-0.00291531 0.0125472 -0.00173886)
(-0.00181529 0.0033614 -0.000106245)
(-0.0091806 0.00162264 -0.000139252)
(-0.0029059 0.00122746 -0.000169587)
(-0.00539934 0.00228999 -0.000207917)
(-0.00602902 0.00331588 -0.000456)
(0.000945417 0.000155135 -1.50593e-05)
(0.00124732 0.000551377 -6.48201e-05)
(0.00117926 -7.46132e-05 6.23291e-06)
(0.00126427 0.000330316 -8.12199e-06)
(0.00154286 0.000341539 5.98159e-05)
(0.000422993 9.16956e-06 2.08141e-06)
(0.000520135 2.10084e-05 -3.43021e-06)
(0.000510203 5.45342e-05 1.1266e-06)
(0.000851289 4.70171e-05 1.30911e-06)
(0.000381074 3.55202e-05 9.21363e-06)
(0.000804622 3.13095e-06 6.6325e-06)
(0.000692713 7.56222e-05 2.45465e-05)
(0.000497208 4.52784e-06 3.00468e-07)
(0.000819364 1.37487e-05 -8.21804e-07)
(0.000892289 2.4491e-05 -1.01848e-06)
(0.00119669 1.9933e-05 -9.309e-07)
(0.000634502 1.17464e-05 -4.06463e-06)
(0.000605681 2.19902e-05 -5.17681e-06)
(0.00104505 1.19481e-05 -5.19559e-06)
(0.000985905 3.47808e-05 -6.60647e-06)
(0.000811925 8.78532e-06 -1.92846e-07)
(0.000796121 1.60216e-05 -5.84746e-07)
(0.00106685 1.14517e-05 3.41483e-08)
(0.000806569 6.14003e-06 9.17703e-08)
(0.000809154 9.82059e-06 1.95879e-07)
(0.00108208 8.8548e-06 2.07485e-07)
(0.000802491 4.12247e-06 8.09295e-08)
(0.000802176 6.87858e-06 7.8915e-08)
(0.00107155 5.68021e-06 1.86974e-07)
(0.000800258 2.83646e-06 1.10144e-07)
(0.000800404 2.59117e-06 1.21161e-07)
(0.00106853 4.20916e-06 2.25064e-07)
(0.000797905 1.8085e-06 4.1391e-08)
(0.000798162 2.57733e-06 4.96658e-08)
(0.00106569 2.66578e-06 1.8058e-07)
(0.000795822 1.16258e-06 2.39638e-08)