/*--------------------------------*- C++ -*----------------------------------*\
| =========                 |                                                 |
| \\      /  F ield         | OpenFOAM: The Open Source CFD Toolbox           |
|  \\    /   O peration     | Version:  5.0                                   |
|   \\  /    A nd           | Web:      www.OpenFOAM.org                      |
|    \\/     M anipulation  |                                                 |
\*---------------------------------------------------------------------------*/
FoamFile
{
    version     2.0;
    format      ascii;
    class       surfaceVectorField;
    location    "2.3";
    object      Uf_0;
}
// * * * * * * * * * * * * * * * * * * * * * * * * * * * * * * * * * * * * * //

dimensions      [0 1 -1 0 0 0 0];

internalField   nonuniform List<vector> 
26746
(
(0.00729068 -0.00992412 -0.000217648)
(-0.00532412 -0.0159144 0.00072207)
(0.00116204 -0.010805 -0.000287874)
(-0.00586295 -0.00674325 -0.000642319)
(0.00579505 -0.00278989 0.00073338)
(0.00218751 -0.0045623 0.000363092)
(0.00540749 -0.00525362 0.000230655)
(-0.00619649 -0.017044 0.000895662)
(-0.00225344 -0.0103484 0.000860914)
(0.00502311 -0.0161736 9.31901e-05)
(0.00147119 -0.00194902 -0.00015847)
(0.00140969 -0.00643152 -0.000293035)
(0.00210186 -0.000823166 -0.000600022)
(-0.00170424 -0.00080562 0.000337319)
(-0.00525463 -0.00659042 0.000765857)
(-0.00125229 0.000719066 0.000474485)
(-0.00510747 0.0013579 0.00113442)
(-0.0054949 -0.0021406 7.59771e-05)
(-0.00588525 -0.00334935 0.0009405)
(-0.00151229 0.003034 -0.000359999)
(0.0131028 -0.00790723 0.000331687)
(-0.000788134 -0.00623121 -0.000285509)
(0.0208728 0.00778949 0.00113667)
(0.0169961 -0.0118764 -8.27849e-05)
(-0.0130883 -0.00604135 6.83717e-05)
(-0.00851314 -0.00822523 0.000197437)
(-0.00894376 -0.00816696 0.00105676)
(-0.00365821 -0.00046036 -0.000272092)
(-0.00020965 -0.000284214 2.14098e-08)
(-0.000135863 -0.000395183 -8.929e-05)
(-0.00147566 -0.00113147 -0.000210831)
(0.000385041 -4.99241e-05 1.84114e-05)
(0.000481799 -1.76885e-05 -2.02741e-06)
(0.000544176 -2.31111e-05 1.92315e-06)
(0.000862402 -4.7712e-05 6.08493e-06)
(0.000409385 -4.7363e-05 1.81894e-05)
(0.000658567 -0.000134554 4.63503e-05)
(0.000761347 -0.000108307 4.57435e-05)
(0.00082052 8.51655e-06 -1.05157e-06)
(0.000850466 1.21246e-05 -2.22118e-06)
(0.00115077 2.11837e-06 -1.29101e-06)
(0.000597624 -4.81721e-06 -4.20591e-06)
(0.000604379 5.38535e-06 -4.58026e-06)
(0.00100934 -2.19543e-05 -4.37847e-06)
(0.00102438 8.91768e-07 -4.44905e-06)
(0.000808946 9.64266e-06 -6.28756e-08)
(0.000807836 2.20151e-05 -2.1314e-07)
(0.00108061 1.12545e-05 1.12453e-07)
(0.0008054 6.99529e-06 9.49625e-08)
(0.000804662 1.02535e-05 3.57934e-08)
(0.00107931 8.12776e-06 1.94024e-07)
(0.000802567 4.93441e-06 8.21697e-08)
(0.000802146 6.96675e-06 6.16908e-08)
(0.00107353 6.33356e-06 1.74182e-07)
(0.000801197 3.22424e-06 3.54039e-08)
(0.000800551 4.33597e-06 4.91685e-08)
(0.00107044 4.07677e-06 1.70995e-07)
(0.000800094 2.27455e-06 4.07095e-08)
(0.000799729 2.70946e-06 2.09133e-08)
(0.00106883 2.71896e-06 1.84784e-07)
(0.000798111 1.61007e-06 6.33901e-08)
(0.000798482 1.34812e-06 5.97293e-08)
(0.00106653 2.18893e-06 1.68565e-07)
(0.000796526 1.02842e-06 1.25058e-07)
(0.00079706 1.01574e-06 4.78484e-08)
(0.00106388 1.37671e-06 1.79697e-07)
(0.000795394 6.22322e-07 1.27526e-07)
(0.000795753 3.14111e-07 1.4969e-07)
(0.00106205 8.8323e-07 1.72582e-07)
(0.000794016 3.70263e-07 6.06441e-08)
(0.000794428 4.33015e-07 5.3418e-08)
(0.00106032 4.6573e-07 1.75574e-07)
(0.000792257 1.74537e-07 5.60288e-08)
(0.000793045 1.4908e-07 6.65494e-08)
(0.00105825 3.35921e-07 1.75762e-07)
(0.000790627 -8.00168e-08 7.80685e-08)
(0.000791527 -2.56667e-07 5.93677e-08)
(0.00105584 1.7037e-08 1.91888e-07)
(0.000789684 -1.71423e-07 8.57981e-08)
(0.000790231 2.78223e-07 6.76674e-08)
(0.00105411 -2.84204e-07 2.4725e-07)
(0.00078826 -3.59155e-08 4.83335e-08)
(0.000788973 1.95988e-07 5.25607e-08)
(0.00105265 -1.83117e-07 1.21018e-07)
(0.000786617 4.91475e-08 2.71918e-08)
(0.000787423 3.41397e-07 5.3803e-08)
(0.00105046 1.10668e-07 1.62843e-07)
(0.000785457 2.04817e-08 3.10994e-08)
(0.000785954 6.52223e-07 9.26918e-08)
(0.00104857 6.05163e-08 1.04575e-07)
(0.000783824 5.2761e-08 4.84638e-08)
(0.000784653 5.718e-08 4.44772e-08)
(0.00104679 2.49606e-08 1.76928e-07)
(0.000782322 1.24386e-07 6.26935e-08)
(0.000783141 2.46255e-07 5.7675e-08)
(0.00104461 1.79618e-07 1.77718e-07)
(0.000780993 1.64281e-07 6.8353e-08)
(0.000781634 1.17967e-07 8.80613e-08)
(0.00104275 2.93301e-07 1.79191e-07)
(0.000779735 1.18893e-07 5.54333e-08)
(0.000780229 -6.61365e-07 4.82797e-08)
(0.00104105 2.69457e-07 1.96294e-07)
(0.000778447 1.47077e-07 5.63347e-08)
(0.000778939 -8.22123e-08 4.82432e-08)
(0.00103949 9.69082e-08 1.72744e-07)
(0.000775971 1.32139e-09 6.12965e-08)
(0.000777104 6.51759e-07 5.82958e-08)
(0.00103684 2.99338e-07 2.66383e-07)
(0.000774729 -4.37221e-07 9.12944e-10)
(0.000775191 -3.65892e-07 5.75871e-08)
(0.00103426 -3.28486e-07 2.03226e-07)
(0.000773345 -5.7772e-07 -3.41559e-08)
(0.000774033 1.84455e-06 3.81451e-08)
(0.00103269 -8.80791e-07 -1.96576e-08)
(0.000771614 -4.09921e-07 3.84405e-08)
(0.000772703 1.04954e-06 1.19757e-08)
(0.00103043 -7.00901e-07 8.6222e-08)
(0.000770766 -2.05349e-07 5.17635e-08)
(0.000771378 -1.80577e-07 1.39843e-07)
(0.00102872 -4.28324e-07 1.7218e-07)
(0.00076951 1.50601e-08 2.41334e-08)
(0.000770259 3.62427e-07 1.40628e-07)
(0.00102752 -1.2616e-07 9.80872e-08)
(0.000767679 9.13741e-08 4.03312e-08)
(0.000768606 1.60628e-07 4.05706e-08)
(0.00102541 1.83659e-07 1.53525e-07)
(0.000766207 3.53954e-08 4.0912e-08)
(0.000766876 7.51679e-08 4.54724e-08)
(0.00102314 9.74715e-08 1.70953e-07)
(0.000764673 5.98393e-08 3.1386e-08)
(0.000765525 1.07859e-07 4.04474e-08)
(0.00102113 4.01197e-08 1.7266e-07)
(0.000763262 2.16647e-07 -3.59422e-08)
(0.000764096 1.19995e-07 4.20249e-08)
(0.00101906 1.61656e-07 1.61317e-07)
(0.00076163 3.71386e-07 -1.59616e-08)
(0.000762566 2.71792e-07 -3.4087e-08)
(0.00101712 4.85438e-07 1.84917e-07)
(0.000760769 2.21846e-07 9.40334e-08)
(0.000761118 -1.02036e-06 5.05963e-08)
(0.0010156 5.43648e-07 1.89598e-07)
(0.000759233 -6.26992e-09 9.78164e-08)
(0.000759745 1.00358e-07 8.94913e-08)
(0.00101389 5.01404e-08 1.71332e-07)
(0.000757763 -1.50953e-07 8.43856e-08)
(0.000758286 -1.09449e-07 7.09128e-08)
(0.00101173 -5.55491e-08 1.70835e-07)
(0.000756438 -2.45988e-07 1.66726e-07)
(0.000757011 -3.87833e-07 5.8562e-08)
(0.00101018 -3.91773e-07 1.77429e-07)
(0.000754967 -1.32189e-07 1.39249e-07)
(0.000755757 -2.67957e-07 1.70676e-07)
(0.00100819 -3.34906e-07 1.63623e-07)
(0.000753136 2.23853e-08 5.21799e-08)
(0.00075422 3.3442e-07 5.25322e-08)
(0.00100586 -7.91443e-08 1.68322e-07)
(0.000752096 4.40716e-08 5.79944e-08)
(0.000752725 -1.23865e-06 4.49943e-08)
(0.00100405 4.33403e-08 2.02862e-07)
(0.000750877 -2.01194e-07 1.23103e-07)
(0.000751324 -4.02255e-07 4.4407e-08)
(0.00100248 -1.14787e-08 1.72337e-07)
(0.000749353 -3.97697e-07 9.58686e-08)
(0.000749963 -2.05227e-07 1.25321e-07)
(0.00100077 -5.3657e-07 1.64313e-07)
(0.000747628 -3.06192e-07 3.15628e-08)
(0.000748432 1.28873e-06 5.32709e-08)
(0.000998506 -4.99119e-07 8.41968e-08)
(0.000747099 -4.7134e-07 4.7e-08)
(0.000996193 -3.24766e-07 2.59068e-07)
(0.0143867 -0.0374803 -0.00185628)
(0.0323881 -0.00659794 -0.000929857)
(0.016756 -0.00623323 -0.00613629)
(-0.00197951 0.0143706 -0.000627542)
(-0.00554284 0.00429235 -0.00106353)
(0.0308504 0.0026713 0.000434561)
(0.0180487 -0.0105677 0.000373791)
(-0.00133476 -0.00422676 -0.000844714)
(0.00402145 0.00312423 0.000392898)
(-0.0207785 0.0253933 0.00235602)
(0.0311735 -0.00510788 0.000443405)
(0.0210439 0.0078625 0.00238183)
(0.00161548 -0.00329671 0.00052268)
(-0.00122617 -0.00884545 0.000536471)
(-0.00606767 -0.0163335 0.00409101)
(0.0105041 -0.00791343 0.00126773)
(0.0016752 -0.00654928 -0.0004069)
(0.00674584 -0.00637805 0.000379527)
(0.00104257 -0.00342841 0.000635682)
(8.74936e-05 -0.00801362 -0.000253222)
(0.0109582 0.00334353 0.000577213)
(0.0192515 -0.0162875 -5.05424e-05)
(0.0272891 0.00349298 0.00120441)
(0.00604312 -0.00089193 0.00254928)
(0.036078 0.00836474 -0.000530466)
(0.00954438 0.000941537 0.000779313)
(0.00568197 -0.0018769 -0.000627934)
(-0.00147236 -0.00137032 0.000725045)
(0.00478677 -0.00133737 0.000326862)
(0.00123283 0.00154014 -5.1235e-05)
(0.00637789 0.00600176 0.000267848)
(0.00171182 -8.918e-05 -5.28499e-05)
(-0.00193657 0.00130061 0.000241133)
(-0.00113958 0.0037373 -0.000387016)
(-0.00338604 0.00419494 0.000776548)
(0.00150546 -0.000840806 -0.000188307)
(-0.0062463 0.0104149 0.000636502)
(-0.000638789 0.00508278 -0.000419109)
(-0.00270783 -0.000209396 -0.000218841)
(0.00225959 -0.00372713 -0.000106971)
(-0.00231787 0.00341162 0.000101732)
(-0.000519906 0.00439999 -0.000329899)
(-5.74045e-05 0.0019049 2.59586e-05)
(0.00273164 -0.00231263 8.23052e-05)
(-0.00233065 0.00155346 9.29758e-05)
(0.000328788 0.000558876 0.000243568)
(0.000169429 0.001903 0.000516736)
(0.000451209 -6.09867e-05 3.31368e-05)
(0.000423178 -7.30176e-06 5.0081e-06)
(0.000366995 8.47509e-06 8.38876e-06)
(0.000582462 -6.19533e-06 1.42954e-05)
(0.000269179 -5.66565e-06 1.16866e-06)
(0.000820067 2.81396e-05 -1.38341e-06)
(0.000543591 2.62579e-05 -1.21715e-06)
(0.00112986 2.18658e-05 -1.43144e-06)
(0.000605911 2.33483e-05 -4.58553e-06)
(0.000577982 2.64751e-05 -4.86203e-06)
(0.00105315 3.64897e-05 -4.93757e-06)
(0.000988217 4.53456e-05 -4.76977e-06)
(0.000540323 3.21182e-06 -3.73381e-06)
(0.000905913 3.87194e-05 -2.3406e-07)
(0.000897042 -5.20301e-07 -4.54034e-06)
(0.000804034 2.44749e-05 -1.14553e-07)
(0.000813094 4.13767e-05 -8.90002e-07)
(0.00108287 4.64672e-05 9.93611e-08)
(0.000801627 1.01431e-05 2.51325e-09)
(0.000786737 1.1674e-05 -2.35721e-07)
(0.00107306 1.52727e-05 1.61278e-07)
(0.000800082 6.03131e-06 2.86937e-08)
(0.000796976 7.11004e-06 1.12049e-07)
(0.00107038 9.771e-06 1.738e-07)
(0.000799262 3.2827e-06 3.46871e-08)
(0.000797097 3.68053e-06 3.92608e-08)
(0.001068 5.13254e-06 1.65129e-07)
(0.000798405 1.78489e-06 3.99204e-08)
(0.000797847 2.1505e-06 5.17161e-08)
(0.00106662 2.94046e-06 1.61316e-07)
(0.000797398 9.59237e-07 4.41915e-08)
(0.000797445 8.35908e-07 4.64087e-08)
(0.00106506 1.40717e-06 1.71321e-07)
(0.000796422 6.25589e-07 7.24475e-08)
(0.00079664 3.82911e-07 4.91244e-08)
(0.00106353 8.87259e-07 1.77059e-07)
(0.000794743 4.8467e-07 7.56127e-08)
(0.000795575 8.34013e-07 7.72905e-08)
(0.00106164 5.9499e-07 1.58348e-07)
(0.000793577 4.29117e-07 5.9319e-08)
(0.000794357 -7.23337e-08 4.96928e-08)
(0.00105967 5.51193e-07 1.84457e-07)
(0.000792288 4.2948e-07 6.98906e-08)
(0.000793045 3.91221e-07 4.57887e-08)
(0.00105795 4.69035e-07 1.43181e-07)
(0.000791062 4.38629e-07 4.89639e-08)
(0.000791537 -3.24126e-07 2.95154e-08)
(0.00105622 5.65864e-07 1.58904e-07)
(0.00078961 3.67082e-07 3.44349e-08)
(0.00079014 3.95563e-07 3.55178e-08)
(0.00105441 5.26623e-07 1.65353e-07)
(0.000788171 2.78524e-07 5.80298e-08)
(0.000788861 -1.52526e-07 4.45694e-08)
(0.00105249 4.26666e-07 1.96389e-07)
(0.000786679 3.47185e-07 1.1929e-07)
(0.000787507 1.77667e-07 5.8239e-08)
(0.0010505 3.17985e-07 1.8804e-07)
(0.000785247 3.8099e-07 1.06085e-07)
(0.000785994 -1.27197e-06 9.21403e-08)
(0.00104841 6.32898e-07 3.05233e-07)
(0.000783955 2.249e-07 5.36842e-08)
(0.000784456 2.46888e-07 3.28973e-08)
(0.00104677 4.66103e-07 1.45602e-07)
(0.000782354 1.02522e-07 8.30331e-08)
(0.000782986 4.32975e-08 5.722e-08)
(0.00104496 2.4323e-07 1.99855e-07)
(0.000780954 2.6322e-08 6.80006e-08)
(0.000781538 1.91638e-07 9.02842e-08)
(0.00104272 1.4493e-07 1.62632e-07)
(0.000779348 -1.04692e-07 4.10896e-08)
(0.000780065 7.4858e-08 4.61698e-08)
(0.00104063 2.6976e-08 1.34001e-07)
(0.000777925 -5.23995e-07 5.02012e-08)
(0.000778416 -1.61869e-07 5.52525e-08)
(0.00103878 -2.59136e-07 1.75004e-07)
(0.000776034 -6.78578e-07 5.45867e-08)
(0.000776913 1.45212e-06 -7.46606e-09)
(0.00103654 -1.13056e-06 1.541e-07)
(0.000774403 -4.70063e-07 9.48254e-08)
(0.000775454 -4.07733e-07 4.72491e-08)
(0.00103404 -6.85191e-07 1.90275e-07)
(0.000773526 -3.41724e-07 8.42849e-08)
(0.000774195 -6.69661e-08 1.11734e-07)
(0.00103252 -5.70142e-07 2.55754e-07)
(0.000772375 6.23838e-08 1.13339e-07)
(0.000773209 -1.17042e-07 5.10333e-08)
(0.00103119 -3.4204e-07 2.27329e-07)
(0.00077089 4.19292e-07 2.28707e-07)
(0.000771823 3.94573e-07 2.39883e-07)
(0.00102939 5.38721e-07 1.33173e-07)
(0.000769577 2.54434e-07 1.57096e-07)
(0.000770051 5.45485e-07 1.9177e-07)
(0.00102763 6.40197e-07 1.45754e-07)
(0.000767561 8.15177e-08 4.57102e-08)
(0.000768388 8.63457e-07 6.88947e-08)
(0.00102536 8.86282e-08 1.71167e-07)
(0.000766215 1.51196e-07 4.50094e-08)
(0.000766962 -5.00254e-08 4.70682e-08)
(0.00102301 1.50883e-07 1.70285e-07)
(0.000765002 2.00941e-07 5.10859e-08)
(0.000765586 -2.03675e-07 6.44053e-08)
(0.00102135 2.56279e-07 1.71821e-07)
(0.000763417 2.66964e-07 4.39037e-08)
(0.000764177 1.64911e-07 5.6608e-08)
(0.0010196 3.10467e-07 1.7967e-07)
(0.000761988 3.69303e-07 3.24448e-08)
(0.000762692 3.83226e-07 3.8719e-08)
(0.00101748 4.86262e-07 1.60877e-07)
(0.000760072 2.66488e-07 4.60422e-08)
(0.000760988 -5.45628e-07 7.98002e-08)
(0.00101516 5.7227e-07 1.78631e-07)
(0.000758848 -1.71311e-08 6.25934e-08)
(0.000759389 -1.17779e-07 4.83473e-08)
(0.00101316 1.49939e-07 1.66452e-07)
(0.000757509 -3.36669e-07 4.5093e-08)
(0.000757888 -1.7318e-07 -3.34982e-08)
(0.00101137 -2.03268e-07 1.65804e-07)
(0.000756288 -4.21378e-07 6.24778e-08)
(0.000756908 -7.92641e-07 3.13751e-08)
(0.00100961 -6.73099e-07 1.80116e-07)
(0.00075514 -2.09193e-07 8.39957e-08)
(0.000756024 -1.1593e-07 9.16928e-08)
(0.00100826 -4.85337e-07 1.33445e-07)
(0.000753696 -4.30103e-08 4.53489e-08)
(0.00075443 -2.36842e-07 5.17737e-08)
(0.00100648 -1.56129e-07 2.13092e-07)
(0.000751997 4.23117e-08 3.14071e-08)
(0.000752832 -2.14042e-07 6.71464e-08)
(0.00100432 -2.43326e-08 1.20536e-07)
(0.000750356 -1.39892e-08 4.65999e-08)
(0.000751254 -9.36281e-08 4.00135e-08)
(0.00100215 9.48207e-08 1.67763e-07)
(0.000749136 -1.95504e-07 8.27452e-08)
(0.000749736 -4.8884e-07 6.4945e-08)
(0.00100023 -1.28536e-07 1.72879e-07)
(0.000747721 -2.61186e-07 6.871e-08)
(0.000748352 -2.73755e-07 7.55528e-08)
(0.000998374 -3.82903e-07 2.84749e-07)
(0.000747424 1.48337e-07 4.70585e-08)
(0.000997105 -3.09572e-07 7.75475e-08)
(-0.00363923 0.0253316 -0.00074152)
(0.0189441 0.00346238 0.000511729)
(0.0116458 -0.00868326 -0.000425171)
(0.0152767 -0.0109875 8.68686e-07)
(-0.00253144 0.00183799 0.000950394)
(-0.0281512 0.0264447 0.000582471)
(-0.0283643 0.00408775 0.00343514)
(0.0138864 -0.00422526 0.000568162)
(0.00200843 -0.0013414 5.8673e-05)
(-0.000751557 -0.000838192 0.000333188)
(0.000486407 0.00543092 -0.000366316)
(0.000332694 0.017001 0.000570586)
(-0.000157281 -0.00644601 -0.000540522)
(-0.0061881 -0.0158559 0.000160514)
(-0.00301741 -0.00719668 0.000674736)
(0.00230292 -0.0118534 0.000240326)
(0.013232 0.00458659 -0.000531627)
(0.00350812 0.00448964 2.71256e-05)
(0.00602268 0.00610475 0.000164045)
(-0.000236626 0.0108719 0.000807698)
(-0.00175474 -0.00134467 0.000339308)
(-0.00239532 -0.00208699 0.000166186)
(0.00160155 -0.00414942 0.000274059)
(0.000466358 -0.00374741 0.000696573)
(0.00365128 -0.00183307 1.7087e-05)
(-0.00138574 0.00118926 -7.76174e-05)
(-0.00103202 0.000868537 -4.58528e-05)
(5.79669e-05 0.00128412 -3.70846e-05)
(-0.000116972 0.00199165 -7.17303e-05)
(-0.000658841 0.00145294 -0.000145789)
(0.00131814 0.000647205 6.92611e-05)
(0.000478526 -0.000193126 4.33205e-05)
(0.000656785 -6.4992e-05 1.44706e-05)
(0.000651751 1.81043e-05 5.73792e-05)
(0.000535129 -6.4646e-05 2.37849e-05)
(0.000417666 2.54038e-05 -2.86956e-07)
(0.000432048 9.46348e-06 -2.58783e-06)
(0.000402767 8.3593e-06 -3.05811e-10)
(0.000666594 2.82899e-05 1.71071e-08)
(0.000775011 1.52379e-05 -1.01138e-06)
(0.000820763 1.50985e-06 -1.33409e-06)
(0.00109796 3.45167e-05 -8.66362e-07)
(0.000547318 8.67464e-06 -3.40553e-06)
(0.000553088 1.05685e-05 -4.89147e-06)
(0.00090942 5.48885e-06 -4.21224e-06)
(0.00091888 1.2287e-05 -6.08329e-06)
(0.000787959 4.16862e-06 -1.26299e-07)
(0.000772786 -4.99864e-06 -4.53106e-07)
(0.00103343 7.43418e-06 8.32237e-08)
(0.000793667 2.21531e-06 1.22639e-07)
(0.000794494 -2.25454e-06 1.88286e-07)
(0.00106078 4.89757e-06 2.03244e-07)
(0.00079633 8.22361e-07 5.62858e-08)
(0.00079533 -1.66544e-06 -1.19024e-07)
(0.00106185 1.93621e-06 1.87463e-07)
(0.000797162 3.25001e-07 5.82062e-08)
(0.000797211 -9.62101e-07 5.88955e-08)
(0.00106415 9.25675e-07 1.9154e-07)
(0.000796831 1.23303e-07 5.13408e-08)
(0.000797184 -6.06324e-07 4.96956e-08)
(0.00106395 4.0736e-07 1.77028e-07)
(0.000795955 1.67241e-08 5.39583e-08)
(0.000796501 -3.32867e-07 4.82633e-08)
(0.00106286 2.32998e-07 1.74182e-07)
(0.000795201 3.6544e-09 5.13795e-08)
(0.000795555 -2.13245e-07 5.16349e-08)
(0.00106162 3.14939e-08 1.86662e-07)
(0.00079393 5.45851e-08 3.61638e-08)
(0.000794419 -1.31295e-07 4.74518e-08)
(0.00106016 1.22616e-07 1.62822e-07)
(0.000792342 6.78033e-08 5.41869e-09)
(0.00079306 1.97373e-07 6.74801e-08)
(0.00105826 1.0357e-07 1.99104e-07)
(0.000790511 8.6806e-08 1.60673e-08)
(0.00079156 6.19425e-07 2.54069e-08)
(0.00105591 1.1383e-07 1.41288e-07)
(0.000789423 1.10435e-07 4.56494e-08)
(0.000790169 -2.26094e-07 3.82332e-08)
(0.00105394 1.21432e-07 1.85074e-07)
(0.000788219 1.1544e-07 4.47743e-08)
(0.000788867 -1.35334e-07 -5.83343e-08)
(0.00105238 1.56093e-07 1.50531e-07)
(0.000786911 1.4776e-07 3.10781e-08)
(0.000787546 4.8372e-08 4.84352e-08)
(0.00105071 1.35228e-07 1.69679e-07)
(0.000785142 1.55854e-07 1.89715e-08)
(0.000786003 -1.55893e-07 2.34303e-08)
(0.00104875 2.72364e-07 1.22897e-07)
(0.000783516 5.26966e-08 3.64253e-08)
(0.000784326 8.67248e-09 4.27616e-08)
(0.0010463 2.01507e-07 2.04523e-07)
(0.000782023 -2.11076e-08 6.44606e-08)
(0.000782894 2.42196e-09 3.81727e-08)
(0.0010442 -2.09924e-08 1.79046e-07)
(0.000780812 -6.41035e-08 6.84674e-08)
(0.000781484 -8.89083e-08 5.97941e-08)
(0.00104248 -5.5744e-08 1.70967e-07)
(0.000779176 -8.24956e-08 6.03298e-08)
(0.000780042 1.25103e-07 6.10355e-08)
(0.00104055 -1.13336e-07 1.84676e-07)
(0.000777287 -6.60735e-08 -2.39496e-09)
(0.000778437 -7.38101e-08 7.24663e-08)
(0.00103804 -6.2001e-08 2.04136e-07)
(0.000776417 1.84297e-07 -1.48209e-08)
(0.000777225 -9.11694e-07 -4.46817e-09)
(0.00103632 -7.04202e-08 2.87084e-07)
(0.000775028 5.76909e-07 6.4137e-08)
(0.000775943 -1.37695e-06 3.27211e-08)
(0.00103496 5.99456e-07 2.3442e-07)
(0.000773969 6.71813e-07 7.8501e-08)
(0.000774311 -9.28926e-07 5.82847e-08)
(0.00103312 9.66063e-07 1.97736e-07)
(0.000772763 4.72785e-07 1.77519e-07)
(0.000772957 -1.90975e-06 4.0808e-08)
(0.00103182 8.42422e-07 2.76548e-07)
(0.000771034 2.66358e-07 2.02961e-07)
(0.000771563 3.97757e-07 1.69022e-07)
(0.00102994 4.4477e-07 1.95547e-07)
(0.000768773 5.81315e-08 1.03606e-07)
(0.00076979 2.17227e-07 8.46568e-08)
(0.00102695 2.94271e-07 2.66325e-07)
(0.000767747 -8.92792e-09 7.02594e-08)
(0.000768304 4.70729e-07 7.29336e-08)
(0.0010248 -1.13817e-07 1.60962e-07)
(0.000766351 9.43561e-08 6.64586e-08)
(0.000767091 -1.23861e-07 4.61949e-08)
(0.00102335 8.86589e-08 1.71157e-07)
(0.000764776 7.7557e-08 6.99298e-08)
(0.000765565 4.11374e-08 6.09303e-08)
(0.00102133 1.4457e-07 1.64392e-07)
(0.000763392 1.03139e-07 5.14289e-08)
(0.000764208 1.22747e-07 5.40593e-08)
(0.00101934 5.80455e-08 1.67873e-07)
(0.000761868 8.52748e-08 8.60618e-08)
(0.000762669 5.32015e-07 1.84124e-08)
(0.00101744 1.86598e-07 1.6673e-07)
(0.000760129 5.25837e-08 8.2115e-08)
(0.000760947 5.63909e-07 8.19724e-08)
(0.00101518 7.29718e-09 1.17087e-07)
(0.000758536 4.88231e-08 -4.77191e-08)
(0.000759385 9.57896e-08 4.72981e-08)
(0.00101292 1.17264e-07 1.68575e-07)
(0.000756898 2.65263e-07 -4.7236e-08)
(0.000758157 2.44444e-07 -1.58202e-08)
(0.00101071 2.02318e-08 1.58016e-07)
(0.000757053 3.74036e-07 6.05717e-08)
(0.000757042 -2.50404e-06 4.76182e-08)
(0.00100984 7.32824e-07 1.50237e-07)
(0.000755259 1.0092e-07 5.94831e-08)
(0.00075568 2.54109e-07 4.78987e-08)
(0.00100885 3.64327e-07 1.76205e-07)
(0.00075359 -1.90497e-08 7.35666e-08)
(0.000754278 4.87277e-07 4.43615e-08)
(0.00100644 6.46654e-08 1.39361e-07)
(0.000752037 3.93396e-08 7.57611e-08)
(0.000752904 -1.50968e-07 7.65299e-08)
(0.00100437 4.17522e-08 1.77337e-07)
(0.000750578 1.01404e-07 5.8351e-08)
(0.00075133 2.74703e-08 5.65324e-08)
(0.00100235 1.77588e-07 1.64819e-07)
(0.000748958 1.05132e-07 5.77493e-08)
(0.00074974 -5.16656e-08 5.42038e-08)
(0.00100018 1.764e-07 1.56757e-07)
(0.000747867 9.2915e-08 5.391e-08)
(0.000748335 -2.17031e-07 4.00343e-08)
(0.000998288 1.49217e-07 1.36645e-07)
(0.000747308 1.51265e-07 5.95816e-08)
(0.000997055 1.06291e-07 1.5581e-07)
(0.0091903 -0.00209145 4.36077e-05)
(0.0016073 -0.0033985 6.86089e-05)
(0.00343605 -0.000638487 -0.000433634)
(0.00750546 0.00101381 -0.000394235)
(0.00135185 -0.0054802 -2.88175e-05)
(0.00567563 0.000742696 -8.25816e-05)
(0.00392874 -0.00577526 -0.000128011)
(0.00283573 -0.00934356 0.000242498)
(0.00789019 -0.00612297 -4.22526e-05)
(-0.0152289 -0.00533392 -0.000450199)
(-0.0229874 0.00260094 -0.000300423)
(-0.02124 0.000349471 -0.000288817)
(-0.0120335 -0.000560328 -0.000346448)
(-0.0140067 -0.00569454 -0.000428593)
(0.00322041 -0.00293102 -0.000395383)
(0.00966338 0.00667758 -0.000209865)
(0.0168205 0.00974578 -0.000163762)
(0.0198016 0.00388041 -0.000881249)
(0.00752268 0.00464705 -0.000382072)
(-0.00147488 -0.000958547 0.000102027)
(-0.00417261 -7.37908e-05 -0.0001383)
(-0.00472961 0.00368575 1.59893e-06)
(-0.00495453 0.0023987 -4.90759e-06)
(-0.000511762 0.00434779 0.000168985)
(-0.000645194 -0.00189313 2.26422e-05)
(-0.00070871 -0.00301132 -5.90929e-05)
(-2.4757e-05 0.00137223 -5.48552e-05)
(0.00597956 -0.00341637 -0.00019728)
(-0.000774349 -0.00578031 4.49769e-05)
(0.000172585 0.000671987 3.6986e-05)
(0.00141025 0.000668353 7.96812e-05)
(0.000906619 0.000463477 9.40689e-05)
(0.000907842 0.000346971 -3.34484e-05)
(0.000733623 0.00013141 5.25874e-05)
(0.000251971 -4.16704e-06 -1.54228e-06)
(0.00042359 -1.5223e-05 -3.53232e-06)
(0.000371554 -3.43253e-05 -8.05883e-07)
(0.000616181 -3.11037e-05 -1.95341e-06)
(0.000268325 -2.28935e-05 -7.66345e-07)
(0.000480093 -1.76132e-06 2.5054e-06)
(0.000522159 -4.98952e-05 3.7149e-06)
(0.000386455 -9.77553e-06 -7.91912e-07)
(0.000778799 -1.75653e-05 -7.761e-07)
(0.000847212 -3.29261e-05 -1.00669e-06)
(0.00110481 -2.41712e-05 -8.95094e-07)
(0.000554947 -1.43324e-05 -3.4262e-06)
(0.000554893 -3.27947e-05 -4.41387e-06)
(0.000924094 -2.17948e-05 -4.13708e-06)
(0.000925956 -6.07568e-05 -5.34753e-06)
(0.00079068 -1.02237e-05 -1.38731e-07)
(0.000781929 -1.98653e-05 -6.03578e-07)
(0.00103571 -1.51866e-05 5.04178e-08)
(0.000795363 -5.28247e-06 -5.32767e-08)
(0.00080065 -1.03115e-05 1.81079e-07)
(0.00106339 -7.23997e-06 2.01811e-07)
(0.000797161 -2.96038e-06 -1.16472e-07)
(0.000798217 -5.74366e-06 -1.08193e-07)
(0.00106296 -3.7449e-06 1.75474e-07)
(0.000797547 -1.71254e-06 5.03879e-08)
(0.000798759 -3.26426e-06 5.9127e-08)
(0.00106467 -2.19945e-06 1.74726e-07)
(0.000797072 -8.84578e-07 4.66186e-08)
(0.000798211 -1.85353e-06 4.69018e-08)
(0.00106416 -1.14095e-06 1.7609e-07)
(0.000796126 -4.02942e-07 4.59389e-08)
(0.000797097 -9.76677e-07 2.00632e-08)
(0.00106305 -4.32499e-07 1.75231e-07)
(0.00079493 -2.85258e-07 4.77086e-08)
(0.000795698 -5.32461e-07 2.87172e-08)
(0.00106149 -1.41223e-07 1.74502e-07)
(0.000793582 -3.22395e-07 7.87617e-08)
(0.00079437 -3.37952e-07 4.8559e-08)
(0.00105975 -2.85295e-07 1.79678e-07)
(0.000792353 -3.53699e-07 8.74819e-08)
(0.000793019 -2.29739e-07 7.70386e-08)
(0.00105793 -3.20267e-07 1.842e-07)
(0.000791088 -4.01479e-07 4.75688e-08)
(0.0007915 2.65576e-08 7.49859e-08)
(0.00105624 -4.36668e-07 1.98547e-07)
(0.000789693 -2.72523e-07 -6.57195e-08)
(0.00079033 -3.65857e-07 -7.5228e-09)
(0.00105446 -5.24075e-07 1.78373e-07)
(0.00078815 -1.47954e-07 -5.47075e-08)
(0.000789023 -1.80967e-07 -4.89543e-08)
(0.0010525 -1.65795e-07 1.84347e-07)
(0.000786809 -1.93322e-07 4.07955e-08)
(0.000787491 -1.53579e-07 3.88388e-08)
(0.00105064 -2.29341e-07 1.77562e-07)
(0.000785004 -1.50562e-07 4.72142e-08)
(0.000786058 8.02769e-07 4.81466e-08)
(0.00104849 -3.00454e-07 1.36958e-07)
(0.000783798 -1.14152e-08 4.45104e-08)
(0.000784501 1.72495e-07 8.65289e-08)
(0.0010464 -1.52699e-07 1.39882e-07)
(0.000782273 1.41009e-07 3.34993e-08)
(0.000783084 1.612e-07 5.33593e-08)
(0.00104464 5.41837e-08 1.67867e-07)
(0.000780759 2.33802e-07 5.23618e-08)
(0.000781599 -9.06935e-09 5.47889e-08)
(0.0010426 2.47654e-07 1.72184e-07)
(0.000779387 2.90854e-07 7.31684e-08)
(0.000780112 9.88233e-09 6.56218e-08)
(0.00104062 3.26582e-07 1.73196e-07)
(0.000778141 5.93834e-07 7.04174e-08)
(0.000778813 -4.32142e-07 4.54604e-08)
(0.00103883 4.77531e-07 1.79115e-07)
(0.000777007 7.61484e-07 4.30621e-08)
(0.000777431 -2.10122e-06 3.09311e-08)
(0.00103736 1.1853e-06 2.27633e-07)
(0.000775085 7.25223e-07 2.68607e-08)
(0.000775894 2.60578e-07 9.36523e-08)
(0.00103534 9.28117e-07 9.73824e-08)
(0.000773346 8.16461e-07 2.05973e-08)
(0.000774421 -3.235e-07 3.81448e-08)
(0.00103281 1.05723e-06 1.53983e-07)
(0.000771713 5.38805e-07 3.22711e-08)
(0.000772607 -8.02813e-07 3.29859e-08)
(0.00103053 1.15655e-06 1.08929e-07)
(0.000770499 8.70864e-08 5.07447e-08)
(0.000770996 -5.20362e-09 1.65206e-07)
(0.0010287 3.18955e-07 1.78562e-07)
(0.000769015 4.70598e-08 5.39877e-08)
(0.000769739 1.84978e-07 5.32738e-08)
(0.00102693 -5.76821e-08 1.76128e-07)
(0.000767849 1.10085e-07 4.88774e-08)
(0.000768382 3.8818e-07 6.19805e-08)
(0.0010251 2.00471e-07 1.51433e-07)
(0.000766259 1.43386e-08 4.0662e-08)
(0.000766971 4.97842e-08 4.62664e-08)
(0.00102333 1.04774e-07 1.70779e-07)
(0.000764907 -2.48125e-08 4.50619e-08)
(0.000765516 -9.3886e-08 4.5185e-08)
(0.00102131 -5.75164e-08 1.71616e-07)
(0.000763654 -1.72446e-07 2.10538e-08)
(0.000764024 -6.07983e-08 5.40921e-08)
(0.00101965 -1.85756e-08 1.66346e-07)
(0.000761677 -2.754e-07 1.43035e-08)
(0.000762542 2.58787e-06 5.40366e-08)
(0.00101742 -4.55534e-07 7.0433e-08)
(0.000760229 -7.85888e-08 4.71662e-08)
(0.000761194 9.32508e-07 5.89161e-08)
(0.00101507 -2.97676e-07 1.44202e-07)
(0.000758816 2.22597e-07 7.92164e-08)
(0.000759761 6.5276e-08 7.20627e-08)
(0.00101318 7.16358e-08 1.69931e-07)
(0.000758403 5.47172e-07 7.90146e-08)
(0.000758561 -1.05334e-07 1.28611e-07)
(0.00101214 5.37812e-07 1.02982e-07)
(0.00075572 5.20266e-07 3.49452e-08)
(0.000757005 -1.22311e-06 5.7423e-08)
(0.00101003 9.36491e-07 1.90396e-07)
(0.000754619 1.89018e-07 3.27782e-08)
(0.000755264 4.36739e-07 -7.38065e-09)
(0.00100742 4.96258e-07 1.26959e-07)
(0.00075366 2.66534e-08 4.7315e-08)
(0.000754074 2.06546e-07 6.95646e-08)
(0.00100607 8.57212e-08 1.47933e-07)
(0.000752264 1.88212e-08 5.73073e-08)
(0.000752893 1.59972e-08 4.50933e-08)
(0.00100446 3.1447e-08 1.55389e-07)
(0.00075033 4.36615e-08 5.23859e-08)
(0.000751361 -3.98037e-07 2.20283e-08)
(0.00100232 2.61372e-08 2.47957e-07)
(0.000749201 1.56449e-07 3.6493e-08)
(0.00074988 -3.20929e-07 3.82396e-08)
(0.00100019 8.982e-08 1.63493e-07)
(0.000747587 2.31529e-07 4.56999e-08)
(0.000748426 1.22203e-07 2.64666e-08)
(0.000998281 3.20552e-07 1.6391e-07)
(0.00074702 3.16478e-07 7.05251e-08)
(0.000996786 2.89538e-07 1.26713e-07)
(-0.0254499 -0.00358284 -0.000684639)
(-0.0170595 0.0098022 0.00187628)
(-0.0318141 0.0119713 0.00118015)
(-0.0165208 -0.00485367 0.00131324)
(0.010979 -0.000346867 0.00193277)
(0.00854371 -0.00109893 0.00134475)
(0.0126561 0.00160205 0.00105269)
(0.0132253 -0.00482907 -0.000923754)
(0.00114429 -0.0113707 -0.0105807)
(0.0132406 -0.0070037 0.024462)
(0.0103708 -0.0132619 -0.00464833)
(0.0116744 -0.00905128 -0.00775919)
(-0.00603616 0.00264004 0.000985284)
(-0.0155801 0.00386253 0.000196374)
(-0.00320585 0.00772292 -0.000312015)
(-0.00742261 0.000550897 -0.00250469)
(-0.00381566 -0.00567426 -0.00413818)
(-0.000781351 0.00252364 0.00413031)
(-0.00265054 0.00861267 0.00264704)
(-0.00416755 0.000103595 -0.000380212)
(-0.0140436 0.00187527 -0.00115233)
(0.0178192 -0.0036927 -0.00261978)
(0.0172747 0.00104877 -0.000719882)
(-0.0082012 0.00902895 -0.000845727)
(0.0035821 -0.00491419 -0.00185672)
(-0.0226082 0.00893552 -0.00298316)
(-0.000774903 -0.00190358 0.000642023)
(-0.0104256 -0.00522462 0.00466772)
(0.00616009 0.00260279 -0.00805287)
(0.00641756 -0.00945536 -0.00217434)
(-0.0146787 -0.011134 -0.00130446)
(-0.00526089 -0.0019955 -3.61241e-05)
(0.00154277 -0.00198746 -0.000253301)
(-0.0170991 0.000663069 -0.00014228)
(-0.00855414 -0.00856589 -0.00122697)
(-0.0109298 0.00927233 -0.00202434)
(-0.0023245 0.0033141 -8.26723e-05)
(-0.00963681 0.00187927 -0.000302558)
(-0.0035858 0.000938342 -0.000150518)
(-0.00616168 0.00167108 -0.000180458)
(-0.00680259 0.00322206 -0.000398682)
(0.000675049 -0.000126919 -1.4361e-05)
(0.000974148 0.000368827 -6.91782e-05)
(0.000956356 -0.00032603 8.97473e-06)
(0.00100665 5.33673e-05 -5.21219e-06)
(0.0012931 0.000108987 6.16145e-05)
(0.000356111 -4.53078e-05 1.96604e-06)
(0.000483064 -4.11812e-05 -4.08171e-06)
(0.000454573 -2.53452e-05 -7.8072e-08)
(0.00074489 -5.43413e-05 -5.73583e-07)
(0.000322381 -2.3185e-05 9.07268e-06)
(0.00070982 -9.08419e-05 5.71935e-06)
(0.00061488 -2.55387e-05 2.34446e-05)
(0.000410832 -5.6281e-05 -9.41954e-07)
(0.000804812 -2.80959e-05 -8.34297e-07)
(0.000888741 -3.43866e-05 -1.01846e-06)
(0.00116468 -3.94933e-05 -1.00177e-06)
(0.000601313 -4.02205e-05 -3.92119e-06)
(0.000590001 -3.39842e-05 -5.10818e-06)
(0.00100317 -6.69143e-05 -4.47774e-06)
(0.00096978 -4.92503e-05 -6.04238e-06)
(0.00080361 -1.58568e-05 -2.84025e-07)
(0.000797433 -1.83446e-05 -7.09003e-07)
(0.00105445 -2.34371e-05 4.8794e-08)
(0.00080201 -8.52128e-06 1.26257e-07)
(0.000809809 -1.05473e-05 1.81236e-07)
(0.001075 -1.17601e-05 2.05068e-07)
(0.000800368 -4.76133e-06 6.73518e-08)
(0.000802905 -5.47383e-06 3.69007e-08)
(0.00106809 -6.68588e-06 1.72826e-07)
(0.000799566 -2.65597e-06 5.56449e-08)
(0.000801383 -3.67056e-06 8.03693e-08)
(0.00106736 -3.39656e-06 1.46999e-07)
(0.000798406 -1.70263e-06 2.03551e-08)
(0.000799397 -2.22203e-06 4.3955e-08)
(0.00106613 -2.08933e-06 1.74681e-07)
(0.000796691 -1.12857e-06 2.83867e-09)